# vtk DataFile Version 2.0
CellBP Time: 3.08
ASCII
DATASET UNSTRUCTURED_GRID
POINTS 296 double
-9.18335 -3.77457 0
-8.60512 -4.94703 0
-9.60366 -2.53669 0
-9.85865 -1.2545 0
-8.35806 -2.81887 0
-7.87893 -6.03409 0
-7.01703 -7.01703 0
-7.9177 -3.87494 0
-7.34311 -4.86814 0
-6.03407 -7.87891 0
-4.94713 -8.60528 0
-9.94417 0.0500005 0
-9.85875 1.35451 0
-8.65817 -1.68403 0
-8.78681 -0.529655 0
-7.59019 -2.00427 0
-7.22622 -2.90667 0
-6.63807 -5.77925 0
-5.82279 -6.59733 0
-6.79073 -3.88917 0
-6.22101 -4.67624 0
-3.77461 -9.18341 0
-2.53668 -9.6036 0
-4.9068 -7.30929 0
-3.91327 -7.88676 0
-8.79327 0.643435 0
-9.60365 2.6367 0
-8.62379 1.77418 0
-9.18342 3.87462 0
-7.74481 -0.929039 0
-7.79503 0.0802594 0
-6.95302 -1.31596 0
-1.2545 -9.8587 0
-6.44191 -2.15326 0
-6.31981 -3.05633 0
-5.53693 -5.47496 0
-4.79625 -6.11591 0
-5.65942 -3.75726 0
-5.26977 -4.56191 0
-2.86636 -8.3645 0
-1.77868 -8.64083 0
-3.92842 -6.72404 0
-3.05684 -7.15313 0
0.0500004 -9.94445 0
-7.70604 1.14359 0
-8.33912 2.91561 0
-7.55244 2.11211 0
-8.60525 5.04712 0
-7.8806 3.9785 0
-7.87895 6.1341 0
-6.77917 -0.396882 0
-6.95704 0.552581 0
-5.77177 -1.00347 0
-0.590878 -8.81033 0
0.565721 -8.77152 0
-5.30346 -2.48043 0
-4.49229 -5.0961 0
-3.90279 -5.77575 0
-4.4392 -3.805 0
-2.06257 -7.56253 0
-1.13557 -7.78645 0
-2.99477 -6.10252 0
-2.3092 -6.6203 0
1.35451 -9.85873 0
-6.68995 1.42215 0
-7.17274 3.11836 0
-6.65977 2.37319 0
-7.29528 4.98903 0
-6.71863 4.00338 0
-7.01697 7.11698 0
-6.57301 5.89461 0
-6.0341 7.97896 0
-4.45338 -1.18114 0
-5.81499 0.513792 0
-4.65644 -0.0103823 0
0.00852171 -7.84875 0
1.7387 -8.6445 0
0.949042 -7.7641 0
-4.03876 -2.40653 0
-3.48576 -1.39128 0
-3.29473 -4.80567 0
-3.26607 -3.26799 0
-1.37869 -6.676 0
-0.508782 -7.02553 0
-1.97569 -5.53743 0
2.63667 -9.60358 0
-5.50773 2.03707 0
-6.09523 3.07247 0
-6.10565 4.87008 0
-5.76225 3.99184 0
-5.76182 6.71776 0
-5.45266 5.61991 0
-4.94712 8.70526 0
-4.83893 7.40528 0
-3.50171 -0.42433 0
-4.4496 1.24912 0
-3.7117 0.59211 0
-4.06245 2.31997 0
-3.77462 9.28346 0
2.86287 -8.33364 0
0.419726 -6.79606 0
2.02222 -7.52659 0
1.30621 -6.90625 0
-2.44481 -0.873866 0
-2.83856 -2.13127 0
-2.29456 -4.09766 0
-2.3258 -2.97379 0
-0.442421 -5.86165 0
-1.22281 -4.49946 0
3.87462 -9.18346 0
-4.7902 3.39208 0
-5.08845 4.59461 0
-4.64768 6.28212 0
-4.53935 5.3603 0
-3.84415 7.99422 0
-3.82718 6.84649 0
-2.78361 8.42377 0
-1.64915 -0.137908 0
-1.45035 -0.890641 0
-2.48927 0.507287 0
-3.25384 1.44425 0
-3.23927 3.31681 0
-2.91118 2.37193 0
-1.35519 0.627143 0
-2.5367 9.70369 0
3.93313 -7.88785 0
2.96488 -7.15856 0
0.954178 -5.82257 0
2.07457 -6.41623 0
-1.68307 -1.99218 0
-1.43453 -3.278 0
0.0902259 -4.74737 0
-0.566214 -3.69469 0
4.93271 -7.31965 0
5.04715 -8.60532 0
-3.7773 4.55205 0
-3.73518 5.75279 0
-2.88832 7.29075 0
-3.01005 6.35448 0
-1.66275 8.7347 0
-1.94035 7.6203 0
-2.33857 4.05201 0
-0.730774 -1.32733 0
-0.836946 -0.257641 0
-1.93633 1.68088 0
-2.12592 2.87605 0
-1.30667 3.54496 0
-0.869512 1.35091 0
-0.282383 0.456074 0
-0.533584 8.87278 0
-1.25449 9.9586 0
1.11288 -4.575 0
3.91063 -6.71816 0
2.98828 -6.09552 0
2.11808 -5.42554 0
4.78507 -6.20619 0
-0.558888 -2.47698 0
0.495147 -3.4641 0
0.0535556 -1.61058 0
1.48202 -3.68247 0
5.86795 -6.61555 0
6.13409 -7.87894 0
-2.47594 5.34905 0
-2.13072 6.53528 0
-0.904193 7.80436 0
-1.27251 6.93297 0
0.0862155 7.88148 0
-1.14456 4.49512 0
0.150329 -0.617681 0
-0.797481 2.48867 0
-0.331675 3.60102 0
0.0631095 1.51282 0
0.741481 0.473449 0
0.646873 8.87547 0
0.0500007 10.0442 0
2.38125 -4.28568 0
3.8597 -5.64122 0
3.00183 -5.21341 0
5.57461 -5.49266 0
4.69171 -5.28383 0
0.629717 -2.29352 0
1.25628 -2.95146 0
0.757547 -1.39154 0
2.16454 -3.13611 0
2.9941 -3.47696 0
6.15617 -4.79257 0
6.65662 -5.77021 0
7.117 -7.017 0
-1.01975 5.82105 0
-0.372671 6.88459 0
1.12281 7.77081 0
0.558059 7.08089 0
-0.000765342 4.72568 0
0.607058 3.82819 0
1.33901 -0.641938 0
0.53914 2.65126 0
0.966151 1.57505 0
1.91034 0.213883 0
1.61489 1.06511 0
2.12977 7.5849 0
1.79951 8.71385 0
1.35451 9.95871 0
3.82334 -4.35219 0
5.11741 -4.44975 0
5.84675 -3.93582 0
3.78447 -3.20146 0
1.81244 -1.88278 0
3.01949 -2.57417 0
6.78463 -3.9486 0
7.38278 -4.89768 0
7.97896 -6.03411 0
0.483426 5.88238 0
1.42842 6.74309 0
2.37478 6.67033 0
1.21013 4.55675 0
1.48834 3.39801 0
2.43604 -0.692088 0
2.82836 0.14262 0
1.78907 2.16306 0
2.61217 1.15027 0
3.07264 7.17156 0
2.90479 8.37846 0
2.6367 9.70367 0
4.91207 -3.32842 0
6.12187 -3.10927 0
4.17346 -2.27557 0
3.24484 -1.50308 0
6.73275 -2.31351 0
7.23362 -3.04319 0
7.96658 -3.91307 0
8.70523 -4.94711 0
2.02396 5.60078 0
3.08717 6.15493 0
2.36426 4.12752 0
2.4204 3.06129 0
3.52616 -0.460918 0
3.61621 0.613373 0
2.96224 2.28839 0
3.54611 1.52549 0
4.01318 5.8996 0
3.98553 6.79499 0
3.97434 7.94077 0
3.87464 9.28348 0
5.56994 -1.91653 0
4.50997 -1.12978 0
6.71566 -1.33644 0
7.59461 -2.03696 0
8.39943 -2.86212 0
9.28345 -3.77463 0
3.41987 4.87808 0
3.3396 3.38598 0
4.69211 0.130099 0
4.52001 1.31021 0
4.06608 2.44426 0
4.57198 5.15405 0
4.84528 6.19282 0
4.98202 7.38279 0
5.04714 8.70529 0
5.88495 -0.435004 0
7.01312 -0.488391 0
7.76211 -1.08563 0
8.68761 -1.74648 0
9.70369 -2.53671 0
4.55368 3.82861 0
5.81939 1.09889 0
5.37279 2.53565 0
5.3821 4.62232 0
5.61431 5.52565 0
5.89935 6.67434 0
6.1341 7.97894 0
6.84862 0.463702 0
7.85636 -0.0256463 0
8.86366 -0.584548 0
9.9587 -1.2545 0
6.96328 1.34998 0
5.72336 3.77995 0
6.54409 2.19837 0
6.38288 3.08927 0
6.29515 4.68899 0
6.69581 5.8402 0
7.11699 7.11698 0
7.78765 0.968013 0
8.86301 0.572976 0
10.0442 0.0500017 0
7.61956 2.00517 0
6.83226 3.90602 0
7.27283 2.94811 0
7.38147 4.88785 0
7.97894 6.13409 0
8.72661 1.72762 0
9.95877 1.35451 0
8.42453 2.83896 0
7.98502 3.91796 0
8.70528 5.04713 0
9.70368 2.63669 0
9.28346 3.87462 0
CELLS 542 2168
3 2 0 4
3 0 1 7
3 4 0 7
3 1 5 8
3 7 1 8
3 3 2 13
3 13 2 4
3 11 3 14
3 14 3 13
3 13 4 15
3 4 7 16
3 15 4 16
3 5 6 17
3 8 5 17
3 6 9 18
3 17 6 18
3 7 8 19
3 16 7 19
3 8 17 20
3 19 8 20
3 9 10 23
3 18 9 23
3 10 21 24
3 23 10 24
3 12 11 25
3 25 11 14
3 26 12 27
3 27 12 25
3 14 13 29
3 29 13 15
3 25 14 30
3 30 14 29
3 29 15 31
3 15 16 33
3 31 15 33
3 16 19 34
3 33 16 34
3 17 18 35
3 20 17 35
3 18 23 36
3 35 18 36
3 19 20 37
3 34 19 37
3 20 35 38
3 37 20 38
3 21 22 39
3 24 21 39
3 22 32 40
3 39 22 40
3 23 24 41
3 36 23 41
3 24 39 42
3 41 24 42
3 27 25 44
3 44 25 30
3 28 26 45
3 45 26 27
3 45 27 46
3 46 27 44
3 47 28 48
3 48 28 45
3 30 29 50
3 50 29 31
3 44 30 51
3 51 30 50
3 50 31 52
3 31 33 52
3 32 43 53
3 40 32 53
3 53 43 54
3 33 34 55
3 34 37 55
3 33 55 52
3 35 36 56
3 38 35 56
3 36 41 57
3 56 36 57
3 37 38 58
3 38 56 58
3 37 58 55
3 39 40 59
3 42 39 59
3 40 53 60
3 59 40 60
3 41 42 61
3 57 41 61
3 42 59 62
3 61 42 62
3 43 63 54
3 46 44 64
3 64 44 51
3 48 45 65
3 65 45 46
3 65 46 66
3 66 46 64
3 49 47 67
3 67 47 48
3 67 48 68
3 68 48 65
3 69 49 70
3 70 49 67
3 52 55 72
3 64 51 73
3 51 50 73
3 50 52 73
3 73 52 74
3 74 52 72
3 53 54 75
3 60 53 75
3 54 63 76
3 54 76 77
3 75 54 77
3 55 58 78
3 72 55 78
3 72 78 79
3 56 57 80
3 57 61 80
3 56 80 58
3 58 80 81
3 78 58 81
3 59 60 82
3 62 59 82
3 60 75 83
3 82 60 83
3 61 62 84
3 62 82 84
3 61 84 80
3 63 85 76
3 66 64 86
3 64 73 86
3 68 65 87
3 87 65 66
3 87 66 86
3 70 67 88
3 88 67 68
3 88 68 89
3 89 68 87
3 71 69 90
3 90 69 70
3 90 70 91
3 91 70 88
3 92 71 93
3 93 71 90
3 74 72 94
3 94 72 79
3 86 73 95
3 95 73 74
3 95 74 96
3 96 74 94
3 97 86 95
3 76 85 99
3 75 77 100
3 83 75 100
3 76 99 101
3 77 76 101
3 77 101 102
3 100 77 102
3 94 79 103
3 78 81 104
3 79 78 104
3 79 104 103
3 80 84 105
3 81 80 105
3 81 105 106
3 104 81 106
3 82 83 107
3 83 100 107
3 82 107 84
3 84 107 108
3 105 84 108
3 85 109 99
3 89 87 110
3 87 86 110
3 110 86 97
3 91 88 111
3 111 88 89
3 111 89 110
3 93 90 112
3 112 90 91
3 112 91 113
3 113 91 111
3 98 92 114
3 114 92 93
3 114 93 115
3 115 93 112
3 116 98 114
3 117 103 118
3 96 94 119
3 94 103 119
3 119 103 117
3 97 95 120
3 120 95 96
3 120 96 119
3 121 110 97
3 121 97 122
3 122 97 120
3 123 119 117
3 124 98 116
3 99 109 125
3 99 125 126
3 101 99 126
3 100 102 127
3 100 127 107
3 101 126 128
3 102 101 128
3 102 128 127
3 104 106 129
3 104 129 103
3 103 129 118
3 105 108 130
3 106 105 130
3 106 130 129
3 107 127 131
3 108 107 131
3 108 131 132
3 108 132 130
3 109 134 125
3 125 134 133
3 113 111 135
3 111 110 135
3 135 110 121
3 115 112 136
3 136 112 113
3 136 113 135
3 116 114 137
3 137 114 115
3 137 115 138
3 138 115 136
3 139 124 116
3 139 116 140
3 140 116 137
3 141 135 121
3 118 129 142
3 118 142 143
3 117 118 143
3 123 117 143
3 122 120 144
3 120 119 144
3 144 119 123
3 141 121 145
3 145 121 122
3 145 122 144
3 146 141 145
3 147 144 123
3 147 123 148
3 143 148 123
3 150 124 139
3 149 150 139
3 131 127 151
3 125 133 152
3 126 125 152
3 126 152 153
3 128 126 153
3 128 153 154
3 128 154 127
3 127 154 151
3 152 133 155
3 130 132 156
3 130 156 129
3 129 156 142
3 131 151 157
3 132 131 157
3 132 157 156
3 156 158 142
3 157 151 159
3 133 160 155
3 134 161 133
3 133 161 160
3 138 136 162
3 136 135 162
3 162 135 141
3 140 137 163
3 163 137 138
3 163 138 162
3 149 139 164
3 164 139 140
3 164 140 165
3 165 140 163
3 166 149 164
3 167 162 141
3 167 141 146
3 142 158 168
3 143 142 168
3 143 168 148
3 146 145 169
3 145 144 169
3 169 144 147
3 170 167 146
3 170 146 169
3 171 169 147
3 171 147 148
3 171 148 172
3 168 172 148
3 173 149 166
3 174 150 149
3 173 174 149
3 154 175 151
3 151 175 159
3 152 155 176
3 153 152 176
3 153 176 177
3 153 177 154
3 154 177 175
3 155 160 178
3 155 178 179
3 176 155 179
3 156 157 180
3 156 180 158
3 157 159 181
3 157 181 180
3 158 180 182
3 158 182 168
3 159 175 183
3 159 183 181
3 175 184 183
3 160 186 178
3 178 186 185
3 161 187 160
3 160 187 186
3 165 163 188
3 163 162 188
3 188 162 167
3 166 164 189
3 189 164 165
3 189 165 188
3 190 173 166
3 190 166 191
3 191 166 189
3 192 188 167
3 192 167 170
3 193 192 170
3 182 194 168
3 194 172 168
3 193 170 195
3 170 169 195
3 195 169 171
3 196 195 171
3 196 171 172
3 194 197 172
3 197 198 172
3 198 196 172
3 200 173 190
3 199 200 190
3 201 174 173
3 200 201 173
3 176 179 202
3 177 176 202
3 177 202 175
3 175 202 184
3 178 185 203
3 178 203 179
3 179 203 202
3 203 185 204
3 202 205 184
3 183 206 181
3 180 181 206
3 180 206 182
3 182 206 194
3 183 184 207
3 205 207 184
3 183 207 206
3 185 208 204
3 186 209 185
3 185 209 208
3 187 210 186
3 186 210 209
3 191 189 211
3 189 188 211
3 211 188 192
3 199 190 212
3 212 190 191
3 212 191 211
3 213 199 212
3 214 211 192
3 214 192 193
3 215 214 193
3 215 193 195
3 206 216 194
3 216 197 194
3 216 217 197
3 215 195 218
3 218 195 196
3 198 218 196
3 217 219 197
3 219 218 198
3 197 219 198
3 220 199 213
3 221 200 199
3 220 221 199
3 222 201 200
3 221 222 200
3 203 204 223
3 203 223 202
3 202 223 205
3 204 208 224
3 204 224 223
3 205 223 225
3 205 225 207
3 207 225 226
3 207 226 206
3 226 216 206
3 208 228 224
3 224 228 227
3 209 229 208
3 229 228 208
3 210 230 209
3 209 230 229
3 213 212 231
3 212 211 231
3 231 211 214
3 232 220 213
3 232 213 231
3 233 231 214
3 233 214 215
3 234 233 215
3 234 215 218
3 226 235 216
3 235 217 216
3 235 236 217
3 217 236 219
3 237 234 218
3 237 218 219
3 236 238 219
3 238 237 219
3 240 220 232
3 239 240 232
3 241 221 220
3 240 241 220
3 242 222 221
3 241 242 221
3 224 227 243
3 224 243 223
3 223 243 225
3 225 243 244
3 225 244 226
3 226 244 235
3 227 245 243
3 228 246 227
3 227 246 245
3 229 247 228
3 228 247 246
3 230 248 229
3 229 248 247
3 239 232 249
3 232 231 249
3 249 231 233
3 250 249 233
3 250 233 234
3 237 250 234
3 244 251 235
3 235 251 236
3 251 252 236
3 236 252 238
3 252 253 238
3 253 250 237
3 253 237 238
3 254 239 249
3 255 240 239
3 254 255 239
3 256 241 240
3 255 256 240
3 257 242 241
3 256 257 241
3 245 258 243
3 243 258 244
3 244 258 251
3 245 259 258
3 246 260 245
3 245 260 259
3 247 261 246
3 246 261 260
3 248 262 247
3 247 262 261
3 254 249 263
3 263 249 250
3 253 263 250
3 258 264 251
3 251 264 252
3 264 265 252
3 265 263 253
3 252 265 253
3 266 254 263
3 267 255 254
3 266 267 254
3 268 256 255
3 267 268 255
3 269 257 256
3 268 269 256
3 259 270 258
3 270 264 258
3 260 271 259
3 259 271 270
3 261 272 260
3 260 272 271
3 262 273 261
3 273 272 261
3 270 274 264
3 275 266 263
3 275 263 265
3 274 276 264
3 276 265 264
3 276 277 265
3 277 275 265
3 278 267 266
3 275 278 266
3 279 268 267
3 278 279 267
3 280 269 268
3 279 280 268
3 271 281 270
3 270 281 274
3 272 282 271
3 271 282 281
3 273 283 272
3 272 283 282
3 281 284 274
3 274 284 276
3 285 278 275
3 277 285 275
3 284 286 276
3 286 285 277
3 276 286 277
3 287 279 278
3 285 287 278
3 288 280 279
3 287 288 279
3 282 289 281
3 281 289 284
3 283 290 282
3 282 290 289
3 289 291 284
3 284 291 286
3 291 292 286
3 292 287 285
3 286 292 285
3 293 288 287
3 292 293 287
3 290 294 289
3 289 294 291
3 294 295 291
3 295 293 292
3 291 295 292
CELL_TYPES 542
5
5
5
5
5
5
5
5
5
5
5
5
5
5
5
5
5
5
5
5
5
5
5
5
5
5
5
5
5
5
5
5
5
5
5
5
5
5
5
5
5
5
5
5
5
5
5
5
5
5
5
5
5
5
5
5
5
5
5
5
5
5
5
5
5
5
5
5
5
5
5
5
5
5
5
5
5
5
5
5
5
5
5
5
5
5
5
5
5
5
5
5
5
5
5
5
5
5
5
5
5
5
5
5
5
5
5
5
5
5
5
5
5
5
5
5
5
5
5
5
5
5
5
5
5
5
5
5
5
5
5
5
5
5
5
5
5
5
5
5
5
5
5
5
5
5
5
5
5
5
5
5
5
5
5
5
5
5
5
5
5
5
5
5
5
5
5
5
5
5
5
5
5
5
5
5
5
5
5
5
5
5
5
5
5
5
5
5
5
5
5
5
5
5
5
5
5
5
5
5
5
5
5
5
5
5
5
5
5
5
5
5
5
5
5
5
5
5
5
5
5
5
5
5
5
5
5
5
5
5
5
5
5
5
5
5
5
5
5
5
5
5
5
5
5
5
5
5
5
5
5
5
5
5
5
5
5
5
5
5
5
5
5
5
5
5
5
5
5
5
5
5
5
5
5
5
5
5
5
5
5
5
5
5
5
5
5
5
5
5
5
5
5
5
5
5
5
5
5
5
5
5
5
5
5
5
5
5
5
5
5
5
5
5
5
5
5
5
5
5
5
5
5
5
5
5
5
5
5
5
5
5
5
5
5
5
5
5
5
5
5
5
5
5
5
5
5
5
5
5
5
5
5
5
5
5
5
5
5
5
5
5
5
5
5
5
5
5
5
5
5
5
5
5
5
5
5
5
5
5
5
5
5
5
5
5
5
5
5
5
5
5
5
5
5
5
5
5
5
5
5
5
5
5
5
5
5
5
5
5
5
5
5
5
5
5
5
5
5
5
5
5
5
5
5
5
5
5
5
5
5
5
5
5
5
5
5
5
5
5
5
5
5
5
5
5
5
5
5
5
5
5
5
5
5
5
5
5
5
5
5
5
5
5
5
5
5
5
5
5
5
5
5
5
5
5
5
5
5
5
5
5
5
5
5
5
5
5
5
5
5
5
5
5
5
5
5
5
5
5
5
5
5
5
5
5
5
5
5
5
5
5
5
5
5
5
5
5
5
5
5
5
5
5
5
5
5
5
5
5
5
5
5
5
5
5
5
5
5
5
5
5
POINT_DATA 296
SCALARS concentrations float 4
LOOKUP_TABLE default
0 0.998823 0.226337 18.4533
0 0.998833 0.226025 18.8373
0 0.998829 0.226432 15.685
0 0.99884 0.22516 17.4663
0 0.998827 0.090887 0.00121055
0 0.998837 0.226424 15.6705
0 0.998844 0.225973 15.8055
0 0.998829 0.0908905 0.0014895
0 0.998836 0.0908855 0.000780872
0 0.998851 0.225823 16.4625
0 0.998854 0.225531 13.5626
0 0.998844 0.224156 17.1601
0 0.99884 0.224697 15.332
0 0.998835 0.0908852 0.00134347
0 0.998842 0.0908851 0.00145063
0 0.998835 0.0908831 0.000636947
0 0.998833 0.0908835 0.000527446
0 0.99884 0.0908812 0.000727591
0 0.998847 0.0908816 0.0012818
0 0.998835 0.0908833 0.000506209
0 0.998839 0.0908812 0.000502021
0 0.998854 0.227625 16.0511
0 0.998847 0.228918 16.6102
0 0.998852 0.0908837 0.0010629
0 0.998853 0.0908854 0.00128449
0 0.998842 0.0908829 0.0011498
0 0.998833 0.22366 16.3421
0 0.998838 0.0908814 0.00161082
0 0.99883 0.224402 16.6544
0 0.998838 0.090882 0.000560332
0 0.998841 0.0908807 0.000392114
0 0.998839 0.0908804 0.000362865
0 0.998843 0.225756 16.0079
0 0.998839 0.0908805 0.00042367
0 0.998838 0.0908811 0.000460517
0 0.998844 0.0908803 0.000798669
0 0.998848 0.0908805 0.00100574
0 0.99884 0.0908799 0.000302141
0 0.998843 0.0908794 0.000420846
0 0.99885 0.0908826 0.00166084
0 0.998845 0.0908789 0.000432737
0 0.99885 0.090881 0.00116975
0 0.998849 0.0908809 0.00114129
0 0.998843 0.224852 16.1021
0 0.998841 0.0908801 0.000551077
0 0.998834 0.0908839 0.00249313
0 0.99884 0.0908809 0.00122043
0 0.998834 0.223521 15.4846
0 0.998835 0.090884 0.00254
0 0.998842 0.223321 15.5694
0 0.998842 0.0908792 0.000170927
0 0.998842 0.0908791 6.18019e-05
0 0.998843 0.0908781 0.000164652
0 0.998843 0.090879 0.000606331
0 0.998843 0.0908807 0.00145233
0 0.998842 0.0908784 0.000168435
0 0.998845 0.0908789 0.000569288
0 0.998847 0.0908794 0.000841651
0 0.998844 0.0908779 0.000129639
0 0.998846 0.0908798 0.000891767
0 0.998844 0.090879 0.000505197
0 0.998847 0.0908792 0.000790769
0 0.998846 0.0908792 0.000759899
0 0.998845 0.22303 15.4201
0 0.998843 0.0908788 0.000332933
0 0.99884 0.0908815 0.00149993
0 0.998843 0.0908796 0.000684388
0 0.99884 0.0908824 0.00168353
0 0.998842 0.0908809 0.00121001
0 0.998845 0.223098 16.2379
0 0.998845 0.09088 0.000654591
0 0.998843 0.223171 15.6775
0 0.998844 0.0908775 8.01648e-05
0 0.998844 0.0908777 6.50616e-05
0 0.998845 0.0908773 0.000101334
0 0.998843 0.0908795 0.000711245
0 0.998843 0.0908848 0.00202038
0 0.998842 0.0908809 0.00105315
0 0.998844 0.0908775 1.21595e-05
0 0.998845 0.0908772 7.74148e-05
0 0.998846 0.0908777 0.000334299
0 0.998845 0.0908773 0.000101594
0 0.998845 0.0908785 0.000430629
0 0.998844 0.0908786 0.000321777
0 0.998846 0.0908777 0.00032368
0 0.998842 0.222954 18.7944
0 0.998845 0.0908777 0.000106106
0 0.998844 0.0908792 0.00051502
0 0.998844 0.0908798 0.000606019
0 0.998845 0.0908792 0.000396292
0 0.998845 0.0908787 0.000351262
0 0.998845 0.090879 0.000312673
0 0.998843 0.223108 15.5218
0 0.998843 0.0908785 0.000105131
0 0.998846 0.0908771 0.000104994
0 0.998845 0.0908773 8.39005e-05
0 0.998846 0.0908771 0.000118326
0 0.998846 0.0908772 9.50523e-05
0 0.998847 0.223839 15.856
0 0.998842 0.0908859 0.00132335
0 0.998843 0.0908789 0.000395796
0 0.998842 0.0908811 0.00105311
0 0.998843 0.0908796 0.000620173
0 0.998846 0.0908768 0.000108877
0 0.998846 0.0908771 8.11861e-05
0 0.998846 0.0908772 0.000164588
0 0.998846 0.0908771 0.000101762
0 0.998845 0.0908777 0.000162918
0 0.998845 0.0908772 0.000130195
0 0.998842 0.222931 15.7629
0 0.998846 0.0908776 8.21974e-05
0 0.998846 0.0908785 0.000224224
0 0.998845 0.0908787 0.000353702
0 0.998845 0.0908784 0.000350396
0 0.998844 0.0908795 0.000595055
0 0.998844 0.0908788 0.000445871
0 0.998848 0.090883 0.00193911
0 0.998847 0.0908767 0.000125475
0 0.998846 0.0908767 0.000104775
0 0.998846 0.0908767 0.000126815
0 0.998846 0.090877 0.000139799
0 0.998846 0.0908772 0.000135193
0 0.998846 0.090877 0.000158545
0 0.998847 0.0908765 0.000119248
0 0.998852 0.223038 14.7274
0 0.998845 0.0908851 0.00120895
0 0.998844 0.090881 0.00103141
0 0.998844 0.090878 0.000276809
0 0.998843 0.0908793 0.000698109
0 0.998846 0.0908768 8.33368e-05
0 0.998846 0.090877 8.38044e-05
0 0.998845 0.0908772 0.000114432
0 0.998846 0.090877 4.70427e-05
0 0.998848 0.0908829 0.00122243
0 0.998848 0.222535 13.293
0 0.998846 0.0908775 0.000201256
0 0.998845 0.0908783 0.000374081
0 0.998845 0.09088 0.000890267
0 0.998844 0.0908787 0.000471105
0 0.998849 0.0908888 0.00240597
0 0.998845 0.0908823 0.0012554
0 0.998846 0.0908773 0.000157892
0 0.998846 0.0908766 5.52591e-05
0 0.998847 0.0908764 8.62959e-05
0 0.998847 0.0908767 0.000135241
0 0.998846 0.090877 0.000154191
0 0.998846 0.0908771 0.000130762
0 0.998847 0.0908765 0.000100997
0 0.998847 0.0908763 6.66753e-05
0 0.998847 0.0908874 0.00220329
0 0.998851 0.223319 18.7445
0 0.998845 0.0908773 0.000210321
0 0.998846 0.09088 0.00105569
0 0.998845 0.0908791 0.00085729
0 0.998845 0.0908779 0.0004438
0 0.998847 0.0908794 0.00104091
0 0.998846 0.0908767 1.97455e-05
0 0.998846 0.0908769 9.07175e-05
0 0.998846 0.0908765 1.37167e-05
0 0.998846 0.0908772 0.000210284
0 0.998846 0.0908788 0.000766305
0 0.998848 0.22311 16.2856
0 0.998845 0.0908776 0.00021609
0 0.998844 0.0908793 0.000502124
0 0.998844 0.0908832 0.00136148
0 0.998844 0.0908807 0.000635286
0 0.998843 0.0908826 0.00107238
0 0.998845 0.0908773 0.000123512
0 0.998847 0.0908763 2.95912e-05
0 0.998846 0.0908767 9.46938e-05
0 0.998846 0.090877 7.31079e-05
0 0.998847 0.0908764 5.72429e-05
0 0.998847 0.0908763 3.70559e-05
0 0.998844 0.0908827 0.00171288
0 0.998849 0.222607 15.3805
0 0.998845 0.0908773 0.000321751
0 0.998846 0.0908785 0.000841982
0 0.998845 0.0908779 0.000594534
0 0.998846 0.0908786 0.000771791
0 0.998846 0.0908782 0.000771038
0 0.998846 0.0908767 6.31401e-05
0 0.998846 0.0908768 0.000135621
0 0.998847 0.0908765 6.52955e-05
0 0.998846 0.090877 0.000215777
0 0.998846 0.0908772 0.000323277
0 0.998845 0.0908783 0.00057011
0 0.998845 0.0908783 0.000522489
0 0.998845 0.221962 15.6445
0 0.998844 0.0908781 0.000166198
0 0.998843 0.0908803 0.00042728
0 0.998842 0.0908808 0.000664906
0 0.998843 0.0908802 0.000342576
0 0.998845 0.0908773 5.64048e-05
0 0.998845 0.0908771 1.09544e-05
0 0.998847 0.0908764 6.67827e-05
0 0.998846 0.0908767 2.66771e-05
0 0.998847 0.0908765 4.16707e-05
0 0.998847 0.0908765 8.49897e-05
0 0.998847 0.0908765 6.96318e-05
0 0.998841 0.09088 0.000253615
0 0.998841 0.0908805 0.000667314
0 0.998843 0.223123 16.0555
0 0.998846 0.0908775 0.000464345
0 0.998846 0.0908779 0.000566774
0 0.998845 0.0908781 0.00045272
0 0.998846 0.0908773 0.000296561
0 0.998846 0.0908767 0.000119183
0 0.998846 0.090877 0.000207553
0 0.998844 0.0908783 0.000420629
0 0.998844 0.0908781 0.00040542
0 0.998844 0.222537 15.8464
0 0.998844 0.090878 5.57085e-05
0 0.998843 0.090879 0.00012623
0 0.998842 0.090879 2.17617e-05
0 0.998845 0.0908773 2.84427e-05
0 0.998846 0.090877 4.05029e-05
0 0.998846 0.0908767 0.000116758
0 0.998846 0.0908768 0.000128599
0 0.998846 0.0908767 6.12144e-05
0 0.998846 0.0908768 0.00010157
0 0.998841 0.0908799 0.000202957
0 0.99884 0.0908808 0.000638641
0 0.99884 0.221608 16.2649
0 0.998846 0.0908774 0.000305372
0 0.998845 0.0908779 0.000282542
0 0.998846 0.0908771 0.000195543
0 0.998846 0.0908769 0.000146955
0 0.998844 0.0908781 0.000226271
0 0.998844 0.0908784 0.000374468
0 0.998843 0.0908781 0.0003402
0 0.998843 0.224341 16.1128
0 0.998844 0.0908776 4.10413e-05
0 0.998843 0.0908785 6.41823e-05
0 0.998845 0.0908771 4.54149e-05
0 0.998846 0.090877 6.48938e-05
0 0.998846 0.0908769 0.000129959
0 0.998846 0.090877 0.000119333
0 0.998846 0.090877 8.34176e-05
0 0.998846 0.090877 0.000105868
0 0.998843 0.0908787 0.00019233
0 0.99884 0.0908796 0.000382567
0 0.998837 0.0908818 0.00067862
0 0.998837 0.220421 15.9584
0 0.998845 0.0908773 0.000124049
0 0.998846 0.090877 0.000114842
0 0.998844 0.0908781 0.000192874
0 0.998842 0.0908791 0.000523378
0 0.998842 0.0908788 0.000652859
0 0.998843 0.224421 15.8455
0 0.998844 0.0908774 3.04598e-05
0 0.998845 0.0908771 4.98125e-05
0 0.998846 0.090877 8.94602e-05
0 0.998846 0.090877 9.2147e-05
0 0.998845 0.0908771 7.49083e-05
0 0.998843 0.0908786 0.000229741
0 0.99884 0.09088 0.000425334
0 0.998837 0.0908815 0.000676963
0 0.998835 0.221719 14.8258
0 0.998845 0.0908773 1.90599e-05
0 0.998844 0.0908784 0.000251696
0 0.998841 0.0908793 0.000557258
0 0.998838 0.0908814 0.00125557
0 0.998839 0.22261 15.7398
0 0.998844 0.0908775 8.36869e-05
0 0.998845 0.0908772 0.00010926
0 0.998845 0.0908773 0.000103217
0 0.998842 0.0908791 0.000279962
0 0.99884 0.0908804 0.00039931
0 0.998837 0.0908815 0.000393441
0 0.998835 0.222817 16.0851
0 0.998845 0.090878 0.000154761
0 0.998842 0.0908793 0.00054281
0 0.998838 0.0908823 0.00135896
0 0.998835 0.221248 17.0815
0 0.998845 0.0908782 0.00021272
0 0.998843 0.0908786 0.000200431
0 0.998845 0.0908781 0.000231036
0 0.998844 0.0908786 0.000238618
0 0.99884 0.0908805 0.000329491
0 0.998837 0.0908833 0.000293697
0 0.998835 0.222032 16.0452
0 0.998844 0.0908788 0.000323904
0 0.998841 0.0908804 0.000414212
0 0.998839 0.222484 15.9981
0 0.998844 0.0908791 0.000332268
0 0.998842 0.09088 0.000393352
0 0.998843 0.0908793 0.000460821
0 0.998839 0.0908821 0.000796466
0 0.998837 0.218832 17.3436
0 0.998843 0.0908816 0.000773361
0 0.998841 0.222027 14.4824
0 0.998845 0.090881 0.000771445
0 0.998843 0.09088 0.000717688
0 0.998841 0.220595 15.4787
0 0.998845 0.222578 15.7768
0 0.998844 0.221731 16.5497
VECTORS fa_u float
0.000541101 0.000228015 0
0.000518513 0.000300708 0
0.000482893 0.000126142 0
0.000551137 7.16719e-05 0
-1.20479e-08 -3.6587e-08 0
0.000398268 0.00030003 0
0.000354727 0.000356523 0
-2.06486e-08 4.26614e-08 0
2.26614e-08 1.01907e-08 0
0.000319992 0.000414738 0
0.000216036 0.000373595 0
0.000546032 4.64965e-07 0
0.000483916 -6.19393e-05 0
2.98715e-08 -3.05806e-08 0
4.5814e-08 -5.63297e-09 0
-4.19418e-09 -1.98289e-08 0
-1.58495e-08 -5.52006e-09 0
-1.11138e-08 2.031e-08 0
-2.66178e-09 4.06999e-08 0
-1.33853e-08 8.96028e-09 0
-4.90868e-09 1.52014e-08 0
0.000194861 0.000472113 0
0.000136588 0.000510582 0
2.01307e-08 2.7178e-08 0
1.04961e-08 3.95018e-08 0
2.72775e-08 2.43825e-08 0
0.000502473 -0.000133888 0
-1.34154e-08 4.94694e-08 0
0.000490004 -0.000201827 0
1.21434e-08 -1.30551e-08 0
1.2424e-08 1.14896e-09 0
-3.657e-09 -1.09519e-08 0
6.62831e-05 0.000505041 0
-1.01494e-08 -8.87306e-09 0
-1.43702e-08 -2.86792e-09 0
-1.8962e-09 2.53427e-08 0
8.66758e-09 3.08064e-08 0
-8.82457e-09 3.81551e-09 0
-3.01988e-09 1.30463e-08 0
4.7366e-08 2.34384e-08 0
9.51776e-09 9.95069e-09 0
1.77844e-08 3.26979e-08 0
2.44973e-08 2.6809e-08 0
2.82552e-07 0.000512367 0
-4.00698e-09 1.70713e-08 0
-6.19673e-08 4.95326e-08 0
-2.98915e-08 2.47905e-08 0
0.000426996 -0.000245857 0
-8.06525e-08 5.24159e-09 0
0.000391777 -0.000303232 0
9.09842e-10 -5.36225e-09 0
-7.99943e-10 1.79648e-09 0
-2.04963e-09 -4.82167e-09 0
-2.58671e-09 1.91192e-08 0
-2.85312e-08 3.63541e-08 0
-4.81698e-09 -2.34986e-09 0
4.08615e-09 1.76478e-08 0
1.17465e-08 2.40677e-08 0
-8.21533e-10 4.04248e-09 0
2.12289e-08 1.8829e-08 0
6.70863e-09 1.46086e-08 0
1.49027e-08 2.02743e-08 0
1.65946e-08 1.75866e-08 0
-6.56338e-05 0.000486257 0
-8.84922e-09 5.82428e-09 0
-4.5218e-08 1.52731e-08 0
-2.00934e-08 8.39641e-09 0
-4.75626e-08 -2.46477e-08 0
-3.83949e-08 -2.87618e-09 0
0.000365649 -0.000365058 0
-4.53174e-09 -2.03301e-08 0
0.000304049 -0.000395488 0
5.68413e-11 -2.5502e-09 0
-7.40903e-10 -1.93314e-09 0
8.36963e-10 -3.11392e-09 0
-6.83474e-09 2.1575e-08 0
-1.95374e-08 6.12476e-08 0
-1.38327e-08 3.0523e-08 0
3.1123e-10 -2.29865e-10 0
1.9241e-09 -1.53813e-09 0
5.59248e-09 9.04865e-09 0
2.35611e-09 2.21339e-09 0
8.76061e-09 1.05363e-08 0
1.26626e-09 1.01603e-08 0
6.77458e-09 7.75783e-09 0
-0.000152815 0.000578184 0
-3.36465e-09 -2.80094e-10 0
-1.63412e-08 1.23618e-09 0
-1.54009e-08 -1.16045e-08 0
-1.16264e-08 -4.88251e-09 0
1.10104e-08 -1.92323e-09 0
2.78004e-09 -9.55293e-09 0
0.000246387 -0.000428059 0
1.02076e-09 -3.18572e-09 0
2.38737e-09 -2.3371e-09 0
1.37497e-09 -2.2884e-09 0
2.82779e-09 -2.48589e-09 0
2.27253e-09 -1.99589e-09 0
0.000192012 -0.00046657 0
-2.46421e-11 4.2109e-08 0
-5.0221e-09 1.15496e-08 0
-1.56582e-08 2.96266e-08 0
-1.13517e-08 1.6142e-08 0
3.09781e-09 -1.55113e-09 0
2.56409e-09 -3.14789e-10 0
3.99198e-09 3.38999e-09 0
3.09247e-09 9.60032e-10 0
1.16538e-09 5.05134e-09 0
2.51203e-09 3.29432e-09 0
-0.000190287 0.000464078 0
-5.14621e-11 -2.61501e-09 0
1.28468e-09 -7.01819e-09 0
8.46459e-09 -7.41756e-09 0
8.06279e-09 -7.70095e-09 0
-4.54394e-09 -1.83813e-08 0
6.62005e-09 -1.25484e-08 0
-1.27849e-08 -6.03633e-08 0
3.57713e-09 -1.77341e-09 0
3.07617e-09 -1.28541e-09 0
3.5571e-09 -1.90531e-09 0
3.83438e-09 -2.25518e-09 0
3.99908e-09 -1.58529e-09 0
4.64322e-09 -1.97264e-09 0
3.44807e-09 -1.58389e-09 0
0.000119867 -0.000453034 0
-3.66257e-08 1.17638e-08 0
-2.22891e-08 2.40894e-08 0
-5.96037e-09 6.48501e-09 0
-1.58238e-08 1.55904e-08 0
2.61292e-09 -4.52279e-10 0
2.42956e-09 1.09921e-09 0
-1.55922e-09 3.29048e-09 0
3.77948e-10 1.4484e-09 0
-1.10282e-08 3.73017e-08 0
-0.000211964 0.000366039 0
5.48785e-09 -3.3006e-09 0
9.23483e-09 -7.51032e-09 0
5.68785e-09 -2.77513e-08 0
8.82955e-09 -1.21142e-08 0
2.72654e-08 -7.1538e-08 0
1.07304e-08 -3.84785e-08 0
4.90713e-09 -1.07784e-09 0
1.59055e-09 -7.49614e-10 0
2.3442e-09 -1.42998e-09 0
4.0158e-09 -1.54671e-09 0
4.72493e-09 -1.32179e-09 0
4.08001e-09 -8.16059e-10 0
2.9267e-09 -1.32753e-09 0
1.61261e-09 -1.37866e-09 0
8.81561e-09 -6.95522e-08 0
7.77635e-05 -0.000591357 0
-5.40771e-09 3.94268e-09 0
-2.24937e-08 2.49491e-08 0
-1.9303e-08 1.92752e-08 0
-1.08444e-08 9.04552e-09 0
-1.42106e-08 2.99183e-08 0
5.90733e-10 2.13998e-10 0
-2.29409e-09 1.75207e-09 0
-2.9166e-10 -3.24707e-10 0
-5.53256e-09 3.76343e-09 0
-1.77177e-09 2.43193e-08 0
-0.00031532 0.000411231 0
5.96888e-09 -3.41338e-09 0
8.33253e-09 -1.36327e-08 0
1.21077e-08 -4.15958e-08 0
8.37434e-09 -1.83985e-08 0
9.56699e-09 -3.27545e-08 0
3.83175e-09 -8.73881e-10 0
5.65884e-12 -9.41574e-10 0
2.86427e-09 -9.35437e-10 0
2.28823e-09 -4.19048e-10 0
1.28991e-09 -1.28602e-09 0
-5.43792e-10 -1.04623e-09 0
2.94884e-08 -4.58377e-08 0
6.686e-07 -0.000489405 0
-8.27622e-09 6.02685e-09 0
-1.61323e-08 2.13904e-08 0
-1.37083e-08 1.30374e-08 0
-8.6072e-09 2.30006e-08 0
-1.22236e-08 2.12725e-08 0
-1.96348e-09 4.25777e-10 0
-3.98945e-09 1.64545e-09 0
-2.07242e-09 -1.47993e-10 0
-5.88757e-09 3.53252e-09 0
-7.93315e-09 6.5483e-09 0
-5.80989e-09 1.71853e-08 0
-1.70647e-09 1.65377e-08 0
-0.000352072 0.000351934 0
3.99998e-09 -3.45938e-09 0
5.06104e-09 -1.26189e-08 0
5.02844e-09 -2.0551e-08 0
2.09083e-09 -1.06983e-08 0
1.54631e-09 -9.11157e-10 0
1.58912e-10 -3.10237e-10 0
-2.11081e-09 -2.45373e-10 0
4.17844e-10 -7.38901e-10 0
-5.06437e-10 -1.22543e-09 0
-2.58834e-09 -7.83625e-10 0
-1.93048e-09 -1.08743e-09 0
3.25518e-09 -7.38437e-09 0
9.7361e-10 -2.12116e-08 0
-6.61655e-05 -0.000506582 0
-9.45788e-09 1.13517e-08 0
-8.82852e-09 1.5726e-08 0
-6.26272e-09 1.29729e-08 0
-6.603e-09 6.74156e-09 0
-3.66502e-09 9.74658e-10 0
-5.60113e-09 3.49917e-09 0
-4.60457e-09 1.25674e-08 0
-2.0687e-09 1.27335e-08 0
-0.00040019 0.000306754 0
4.71863e-10 -1.70868e-09 0
-5.97973e-10 -3.97185e-09 0
-3.65135e-10 -5.88363e-10 0
-8.14971e-10 -3.9361e-10 0
-1.2391e-09 -3.54468e-10 0
-3.70806e-09 2.30683e-10 0
-4.06576e-09 -4.6274e-10 0
-1.71433e-09 -9.24733e-10 0
-3.11526e-09 -8.60537e-10 0
6.09443e-09 2.13648e-09 0
1.71261e-08 -1.0939e-08 0
-0.000133531 -0.000500026 0
-5.4515e-09 8.04362e-09 0
-2.99109e-09 8.47831e-09 0
-4.78342e-09 3.97923e-09 0
-4.45277e-09 1.42781e-09 0
2.63631e-09 6.69991e-09 0
-1.18479e-10 1.19149e-08 0
-5.878e-09 9.09025e-09 0
-0.000444199 0.00025604 0
-1.29592e-09 -1.61423e-10 0
7.4943e-10 1.8998e-09 0
-1.42441e-09 2.43668e-10 0
-2.03352e-09 -3.58735e-10 0
-4.12935e-09 2.21568e-10 0
-3.782e-09 -3.39192e-10 0
-2.60837e-09 -4.91854e-10 0
-3.35281e-09 -3.26816e-10 0
4.53073e-09 4.1141e-09 0
7.79207e-09 9.35264e-09 0
1.67593e-08 1.36166e-08 0
-0.000193378 -0.000469531 0
-1.60014e-09 3.60836e-09 0
-3.36412e-09 1.42704e-09 0
5.85416e-09 1.84236e-09 0
1.27464e-08 1.07182e-08 0
3.97024e-10 2.07701e-08 0