# vtk DataFile Version 2.0
CellBP Time: 1.56
ASCII
DATASET UNSTRUCTURED_GRID
POINTS 296 double
-9.186 -3.77568 0
-8.60764 -4.94849 0
-9.60635 -2.53741 0
-9.86146 -1.25487 0
-8.35806 -2.81887 0
-7.88114 -6.03577 0
-7.01899 -7.01899 0
-7.9177 -3.87494 0
-7.34311 -4.86814 0
-6.03574 -7.88109 0
-4.94851 -8.60767 0
-9.94699 0.0499996 0
-9.8615 1.35487 0
-8.65817 -1.68403 0
-8.78681 -0.529655 0
-7.59019 -2.00427 0
-7.22622 -2.90667 0
-6.63807 -5.77925 0
-5.82279 -6.59733 0
-6.79073 -3.88917 0
-6.22101 -4.67624 0
-3.77568 -9.18599 0
-2.5374 -9.60628 0
-4.9068 -7.30929 0
-3.91327 -7.88676 0
-8.79327 0.643435 0
-9.60637 2.63743 0
-8.62379 1.77418 0
-9.18602 3.87569 0
-7.74481 -0.929039 0
-7.79503 0.0802594 0
-6.95302 -1.31596 0
-1.25487 -9.86146 0
-6.44191 -2.15326 0
-6.31981 -3.05633 0
-5.53693 -5.47496 0
-4.79625 -6.11591 0
-5.65942 -3.75726 0
-5.26977 -4.56191 0
-2.86636 -8.3645 0
-1.77868 -8.64083 0
-3.92842 -6.72404 0
-3.05684 -7.15313 0
0.0500004 -9.94724 0
-7.70604 1.14359 0
-8.33912 2.91561 0
-7.55244 2.11211 0
-8.60766 5.04851 0
-7.8806 3.9785 0
-7.88116 6.1358 0
-6.77917 -0.396882 0
-6.95704 0.552581 0
-5.77177 -1.00347 0
-0.590878 -8.81033 0
0.565721 -8.77152 0
-5.30346 -2.48043 0
-4.49229 -5.0961 0
-3.90279 -5.77575 0
-4.4392 -3.805 0
-2.06257 -7.56253 0
-1.13557 -7.78645 0
-2.99477 -6.10252 0
-2.3092 -6.6203 0
1.35487 -9.86151 0
-6.68995 1.42215 0
-7.17274 3.11836 0
-6.65977 2.37319 0
-7.29528 4.98903 0
-6.71863 4.00338 0
-7.01897 7.11897 0
-6.57301 5.89461 0
-6.03579 7.98117 0
-4.45338 -1.18114 0
-5.81499 0.513792 0
-4.65644 -0.0103823 0
0.00852172 -7.84875 0
1.7387 -8.6445 0
0.949042 -7.7641 0
-4.03876 -2.40653 0
-3.48576 -1.39128 0
-3.29473 -4.80567 0
-3.26607 -3.26799 0
-1.37869 -6.676 0
-0.508782 -7.02553 0
-1.97569 -5.53743 0
2.63741 -9.60634 0
-5.50773 2.03707 0
-6.09523 3.07247 0
-6.10565 4.87008 0
-5.76225 3.99184 0
-5.76182 6.71776 0
-5.45266 5.61991 0
-4.94851 8.70768 0
-4.83893 7.40528 0
-3.50171 -0.42433 0
-4.4496 1.24912 0
-3.7117 0.59211 0
-4.06245 2.31997 0
-3.77569 9.28604 0
2.86287 -8.33364 0
0.419726 -6.79606 0
2.02222 -7.52659 0
1.30621 -6.90625 0
-2.44481 -0.873866 0
-2.83856 -2.13127 0
-2.29456 -4.09766 0
-2.3258 -2.97379 0
-0.442421 -5.86165 0
-1.22281 -4.49946 0
3.87569 -9.18603 0
-4.7902 3.39208 0
-5.08845 4.59461 0
-4.64768 6.28212 0
-4.53935 5.3603 0
-3.84415 7.99422 0
-3.82718 6.84649 0
-2.78361 8.42377 0
-1.64915 -0.137908 0
-1.45035 -0.890641 0
-2.48927 0.507287 0
-3.25384 1.44425 0
-3.23927 3.31681 0
-2.91118 2.37193 0
-1.35519 0.627143 0
-2.53741 9.70636 0
3.93313 -7.88785 0
2.96488 -7.15856 0
0.954178 -5.82257 0
2.07457 -6.41623 0
-1.68307 -1.99218 0
-1.43453 -3.278 0
0.0902259 -4.74737 0
-0.566214 -3.69469 0
4.93271 -7.31965 0
5.04853 -8.60771 0
-3.7773 4.55205 0
-3.73518 5.75279 0
-2.88832 7.29075 0
-3.01005 6.35448 0
-1.66275 8.7347 0
-1.94035 7.6203 0
-2.33857 4.05201 0
-0.730774 -1.32733 0
-0.836946 -0.257641 0
-1.93633 1.68088 0
-2.12592 2.87605 0
-1.30667 3.54496 0
-0.869512 1.35091 0
-0.282383 0.456074 0
-0.533584 8.87278 0
-1.25487 9.96149 0
1.11288 -4.575 0
3.91063 -6.71816 0
2.98828 -6.09552 0
2.11808 -5.42554 0
4.78507 -6.20619 0
-0.558888 -2.47698 0
0.495147 -3.4641 0
0.0535556 -1.61058 0
1.48202 -3.68247 0
5.86795 -6.61555 0
6.1358 -7.88118 0
-2.47594 5.34905 0
-2.13072 6.53528 0
-0.904193 7.80436 0
-1.27251 6.93297 0
0.0862155 7.88148 0
-1.14456 4.49512 0
0.150329 -0.617681 0
-0.797481 2.48867 0
-0.331675 3.60102 0
0.0631095 1.51282 0
0.741481 0.473449 0
0.646873 8.87547 0
0.0499999 10.047 0
2.38125 -4.28568 0
3.8597 -5.64122 0
3.00183 -5.21341 0
5.57461 -5.49266 0
4.69171 -5.28383 0
0.629717 -2.29352 0
1.25628 -2.95146 0
0.757547 -1.39154 0
2.16454 -3.13611 0
2.9941 -3.47696 0
6.15617 -4.79257 0
6.65662 -5.77021 0
7.11897 -7.01897 0
-1.01975 5.82105 0
-0.372671 6.88459 0
1.12281 7.77081 0
0.558059 7.08089 0
-0.00076535 4.72568 0
0.607058 3.82819 0
1.33901 -0.641938 0
0.53914 2.65126 0
0.966151 1.57505 0
1.91034 0.213883 0
1.61489 1.06511 0
2.12977 7.5849 0
1.79951 8.71385 0
1.35487 9.96149 0
3.82334 -4.35219 0
5.11741 -4.44975 0
5.84675 -3.93582 0
3.78447 -3.20146 0
1.81244 -1.88278 0
3.01949 -2.57417 0
6.78463 -3.9486 0
7.38278 -4.89768 0
7.98118 -6.03581 0
0.483426 5.88238 0
1.42842 6.74309 0
2.37478 6.67033 0
1.21013 4.55675 0
1.48834 3.39801 0
2.43604 -0.692088 0
2.82836 0.14262 0
1.78907 2.16306 0
2.61217 1.15027 0
3.07264 7.17156 0
2.90479 8.37846 0
2.63743 9.70639 0
4.91207 -3.32842 0
6.12187 -3.10927 0
4.17346 -2.27557 0
3.24484 -1.50308 0
6.73275 -2.31351 0
7.23362 -3.04319 0
7.96658 -3.91307 0
8.70765 -4.9485 0
2.02396 5.60078 0
3.08717 6.15493 0
2.36426 4.12752 0
2.4204 3.06129 0
3.52616 -0.460918 0
3.61621 0.613373 0
2.96224 2.28839 0
3.54611 1.52549 0
4.01318 5.8996 0
3.98553 6.79499 0
3.97434 7.94077 0
3.87571 9.28607 0
5.56994 -1.91653 0
4.50997 -1.12978 0
6.71566 -1.33644 0
7.59461 -2.03696 0
8.39943 -2.86212 0
9.28603 -3.7757 0
3.41987 4.87808 0
3.3396 3.38598 0
4.69211 0.130099 0
4.52001 1.31021 0
4.06608 2.44426 0
4.57198 5.15405 0
4.84528 6.19282 0
4.98202 7.38279 0
5.04852 8.70768 0
5.88495 -0.435004 0
7.01312 -0.488391 0
7.76211 -1.08563 0
8.68761 -1.74648 0
9.70639 -2.53743 0
4.55368 3.82861 0
5.81939 1.09889 0
5.37279 2.53565 0
5.3821 4.62232 0
5.61431 5.52565 0
5.89935 6.67434 0
6.1358 7.98116 0
6.84862 0.463702 0
7.85636 -0.0256463 0
8.86366 -0.584548 0
9.96151 -1.25487 0
6.96328 1.34998 0
5.72336 3.77995 0
6.54409 2.19837 0
6.38288 3.08927 0
6.29515 4.68899 0
6.69581 5.8402 0
7.11898 7.11897 0
7.78765 0.968013 0
8.86301 0.572976 0
10.047 0.0500005 0
7.61956 2.00517 0
6.83226 3.90602 0
7.27283 2.94811 0
7.38147 4.88785 0
7.98121 6.13582 0
8.72661 1.72762 0
9.9615 1.35487 0
8.42453 2.83896 0
7.98502 3.91796 0
8.70768 5.04851 0
9.70646 2.63744 0
9.28608 3.87571 0
CELLS 542 2168
3 2 0 4
3 0 1 7
3 4 0 7
3 1 5 8
3 7 1 8
3 3 2 13
3 13 2 4
3 11 3 14
3 14 3 13
3 13 4 15
3 4 7 16
3 15 4 16
3 5 6 17
3 8 5 17
3 6 9 18
3 17 6 18
3 7 8 19
3 16 7 19
3 8 17 20
3 19 8 20
3 9 10 23
3 18 9 23
3 10 21 24
3 23 10 24
3 12 11 25
3 25 11 14
3 26 12 27
3 27 12 25
3 14 13 29
3 29 13 15
3 25 14 30
3 30 14 29
3 29 15 31
3 15 16 33
3 31 15 33
3 16 19 34
3 33 16 34
3 17 18 35
3 20 17 35
3 18 23 36
3 35 18 36
3 19 20 37
3 34 19 37
3 20 35 38
3 37 20 38
3 21 22 39
3 24 21 39
3 22 32 40
3 39 22 40
3 23 24 41
3 36 23 41
3 24 39 42
3 41 24 42
3 27 25 44
3 44 25 30
3 28 26 45
3 45 26 27
3 45 27 46
3 46 27 44
3 47 28 48
3 48 28 45
3 30 29 50
3 50 29 31
3 44 30 51
3 51 30 50
3 50 31 52
3 31 33 52
3 32 43 53
3 40 32 53
3 53 43 54
3 33 34 55
3 34 37 55
3 33 55 52
3 35 36 56
3 38 35 56
3 36 41 57
3 56 36 57
3 37 38 58
3 38 56 58
3 37 58 55
3 39 40 59
3 42 39 59
3 40 53 60
3 59 40 60
3 41 42 61
3 57 41 61
3 42 59 62
3 61 42 62
3 43 63 54
3 46 44 64
3 64 44 51
3 48 45 65
3 65 45 46
3 65 46 66
3 66 46 64
3 49 47 67
3 67 47 48
3 67 48 68
3 68 48 65
3 69 49 70
3 70 49 67
3 52 55 72
3 64 51 73
3 51 50 73
3 50 52 73
3 73 52 74
3 74 52 72
3 53 54 75
3 60 53 75
3 54 63 76
3 54 76 77
3 75 54 77
3 55 58 78
3 72 55 78
3 72 78 79
3 56 57 80
3 57 61 80
3 56 80 58
3 58 80 81
3 78 58 81
3 59 60 82
3 62 59 82
3 60 75 83
3 82 60 83
3 61 62 84
3 62 82 84
3 61 84 80
3 63 85 76
3 66 64 86
3 64 73 86
3 68 65 87
3 87 65 66
3 87 66 86
3 70 67 88
3 88 67 68
3 88 68 89
3 89 68 87
3 71 69 90
3 90 69 70
3 90 70 91
3 91 70 88
3 92 71 93
3 93 71 90
3 74 72 94
3 94 72 79
3 86 73 95
3 95 73 74
3 95 74 96
3 96 74 94
3 97 86 95
3 76 85 99
3 75 77 100
3 83 75 100
3 76 99 101
3 77 76 101
3 77 101 102
3 100 77 102
3 94 79 103
3 78 81 104
3 79 78 104
3 79 104 103
3 80 84 105
3 81 80 105
3 81 105 106
3 104 81 106
3 82 83 107
3 83 100 107
3 82 107 84
3 84 107 108
3 105 84 108
3 85 109 99
3 89 87 110
3 87 86 110
3 110 86 97
3 91 88 111
3 111 88 89
3 111 89 110
3 93 90 112
3 112 90 91
3 112 91 113
3 113 91 111
3 98 92 114
3 114 92 93
3 114 93 115
3 115 93 112
3 116 98 114
3 117 103 118
3 96 94 119
3 94 103 119
3 119 103 117
3 97 95 120
3 120 95 96
3 120 96 119
3 121 110 97
3 121 97 122
3 122 97 120
3 123 119 117
3 124 98 116
3 99 109 125
3 99 125 126
3 101 99 126
3 100 102 127
3 100 127 107
3 101 126 128
3 102 101 128
3 102 128 127
3 104 106 129
3 104 129 103
3 103 129 118
3 105 108 130
3 106 105 130
3 106 130 129
3 107 127 131
3 108 107 131
3 108 131 132
3 108 132 130
3 109 134 125
3 125 134 133
3 113 111 135
3 111 110 135
3 135 110 121
3 115 112 136
3 136 112 113
3 136 113 135
3 116 114 137
3 137 114 115
3 137 115 138
3 138 115 136
3 139 124 116
3 139 116 140
3 140 116 137
3 141 135 121
3 118 129 142
3 118 142 143
3 117 118 143
3 123 117 143
3 122 120 144
3 120 119 144
3 144 119 123
3 141 121 145
3 145 121 122
3 145 122 144
3 146 141 145
3 147 144 123
3 147 123 148
3 143 148 123
3 150 124 139
3 149 150 139
3 131 127 151
3 125 133 152
3 126 125 152
3 126 152 153
3 128 126 153
3 128 153 154
3 128 154 127
3 127 154 151
3 152 133 155
3 130 132 156
3 130 156 129
3 129 156 142
3 131 151 157
3 132 131 157
3 132 157 156
3 156 158 142
3 157 151 159
3 133 160 155
3 134 161 133
3 133 161 160
3 138 136 162
3 136 135 162
3 162 135 141
3 140 137 163
3 163 137 138
3 163 138 162
3 149 139 164
3 164 139 140
3 164 140 165
3 165 140 163
3 166 149 164
3 167 162 141
3 167 141 146
3 142 158 168
3 143 142 168
3 143 168 148
3 146 145 169
3 145 144 169
3 169 144 147
3 170 167 146
3 170 146 169
3 171 169 147
3 171 147 148
3 171 148 172
3 168 172 148
3 173 149 166
3 174 150 149
3 173 174 149
3 154 175 151
3 151 175 159
3 152 155 176
3 153 152 176
3 153 176 177
3 153 177 154
3 154 177 175
3 155 160 178
3 155 178 179
3 176 155 179
3 156 157 180
3 156 180 158
3 157 159 181
3 157 181 180
3 158 180 182
3 158 182 168
3 159 175 183
3 159 183 181
3 175 184 183
3 160 186 178
3 178 186 185
3 161 187 160
3 160 187 186
3 165 163 188
3 163 162 188
3 188 162 167
3 166 164 189
3 189 164 165
3 189 165 188
3 190 173 166
3 190 166 191
3 191 166 189
3 192 188 167
3 192 167 170
3 193 192 170
3 182 194 168
3 194 172 168
3 193 170 195
3 170 169 195
3 195 169 171
3 196 195 171
3 196 171 172
3 194 197 172
3 197 198 172
3 198 196 172
3 200 173 190
3 199 200 190
3 201 174 173
3 200 201 173
3 176 179 202
3 177 176 202
3 177 202 175
3 175 202 184
3 178 185 203
3 178 203 179
3 179 203 202
3 203 185 204
3 202 205 184
3 183 206 181
3 180 181 206
3 180 206 182
3 182 206 194
3 183 184 207
3 205 207 184
3 183 207 206
3 185 208 204
3 186 209 185
3 185 209 208
3 187 210 186
3 186 210 209
3 191 189 211
3 189 188 211
3 211 188 192
3 199 190 212
3 212 190 191
3 212 191 211
3 213 199 212
3 214 211 192
3 214 192 193
3 215 214 193
3 215 193 195
3 206 216 194
3 216 197 194
3 216 217 197
3 215 195 218
3 218 195 196
3 198 218 196
3 217 219 197
3 219 218 198
3 197 219 198
3 220 199 213
3 221 200 199
3 220 221 199
3 222 201 200
3 221 222 200
3 203 204 223
3 203 223 202
3 202 223 205
3 204 208 224
3 204 224 223
3 205 223 225
3 205 225 207
3 207 225 226
3 207 226 206
3 226 216 206
3 208 228 224
3 224 228 227
3 209 229 208
3 229 228 208
3 210 230 209
3 209 230 229
3 213 212 231
3 212 211 231
3 231 211 214
3 232 220 213
3 232 213 231
3 233 231 214
3 233 214 215
3 234 233 215
3 234 215 218
3 226 235 216
3 235 217 216
3 235 236 217
3 217 236 219
3 237 234 218
3 237 218 219
3 236 238 219
3 238 237 219
3 240 220 232
3 239 240 232
3 241 221 220
3 240 241 220
3 242 222 221
3 241 242 221
3 224 227 243
3 224 243 223
3 223 243 225
3 225 243 244
3 225 244 226
3 226 244 235
3 227 245 243
3 228 246 227
3 227 246 245
3 229 247 228
3 228 247 246
3 230 248 229
3 229 248 247
3 239 232 249
3 232 231 249
3 249 231 233
3 250 249 233
3 250 233 234
3 237 250 234
3 244 251 235
3 235 251 236
3 251 252 236
3 236 252 238
3 252 253 238
3 253 250 237
3 253 237 238
3 254 239 249
3 255 240 239
3 254 255 239
3 256 241 240
3 255 256 240
3 257 242 241
3 256 257 241
3 245 258 243
3 243 258 244
3 244 258 251
3 245 259 258
3 246 260 245
3 245 260 259
3 247 261 246
3 246 261 260
3 248 262 247
3 247 262 261
3 254 249 263
3 263 249 250
3 253 263 250
3 258 264 251
3 251 264 252
3 264 265 252
3 265 263 253
3 252 265 253
3 266 254 263
3 267 255 254
3 266 267 254
3 268 256 255
3 267 268 255
3 269 257 256
3 268 269 256
3 259 270 258
3 270 264 258
3 260 271 259
3 259 271 270
3 261 272 260
3 260 272 271
3 262 273 261
3 273 272 261
3 270 274 264
3 275 266 263
3 275 263 265
3 274 276 264
3 276 265 264
3 276 277 265
3 277 275 265
3 278 267 266
3 275 278 266
3 279 268 267
3 278 279 267
3 280 269 268
3 279 280 268
3 271 281 270
3 270 281 274
3 272 282 271
3 271 282 281
3 273 283 272
3 272 283 282
3 281 284 274
3 274 284 276
3 285 278 275
3 277 285 275
3 284 286 276
3 286 285 277
3 276 286 277
3 287 279 278
3 285 287 278
3 288 280 279
3 287 288 279
3 282 289 281
3 281 289 284
3 283 290 282
3 282 290 289
3 289 291 284
3 284 291 286
3 291 292 286
3 292 287 285
3 286 292 285
3 293 288 287
3 292 293 287
3 290 294 289
3 289 294 291
3 294 295 291
3 295 293 292
3 291 295 292
CELL_TYPES 542
5
5
5
5
5
5
5
5
5
5
5
5
5
5
5
5
5
5
5
5
5
5
5
5
5
5
5
5
5
5
5
5
5
5
5
5
5
5
5
5
5
5
5
5
5
5
5
5
5
5
5
5
5
5
5
5
5
5
5
5
5
5
5
5
5
5
5
5
5
5
5
5
5
5
5
5
5
5
5
5
5
5
5
5
5
5
5
5
5
5
5
5
5
5
5
5
5
5
5
5
5
5
5
5
5
5
5
5
5
5
5
5
5
5
5
5
5
5
5
5
5
5
5
5
5
5
5
5
5
5
5
5
5
5
5
5
5
5
5
5
5
5
5
5
5
5
5
5
5
5
5
5
5
5
5
5
5
5
5
5
5
5
5
5
5
5
5
5
5
5
5
5
5
5
5
5
5
5
5
5
5
5
5
5
5
5
5
5
5
5
5
5
5
5
5
5
5
5
5
5
5
5
5
5
5
5
5
5
5
5
5
5
5
5
5
5
5
5
5
5
5
5
5
5
5
5
5
5
5
5
5
5
5
5
5
5
5
5
5
5
5
5
5
5
5
5
5
5
5
5
5
5
5
5
5
5
5
5
5
5
5
5
5
5
5
5
5
5
5
5
5
5
5
5
5
5
5
5
5
5
5
5
5
5
5
5
5
5
5
5
5
5
5
5
5
5
5
5
5
5
5
5
5
5
5
5
5
5
5
5
5
5
5
5
5
5
5
5
5
5
5
5
5
5
5
5
5
5
5
5
5
5
5
5
5
5
5
5
5
5
5
5
5
5
5
5
5
5
5
5
5
5
5
5
5
5
5
5
5
5
5
5
5
5
5
5
5
5
5
5
5
5
5
5
5
5
5
5
5
5
5
5
5
5
5
5
5
5
5
5
5
5
5
5
5
5
5
5
5
5
5
5
5
5
5
5
5
5
5
5
5
5
5
5
5
5
5
5
5
5
5
5
5
5
5
5
5
5
5
5
5
5
5
5
5
5
5
5
5
5
5
5
5
5
5
5
5
5
5
5
5
5
5
5
5
5
5
5
5
5
5
5
5
5
5
5
5
5
5
5
5
5
5
5
5
5
5
5
5
5
5
5
5
5
5
5
5
5
5
5
5
5
5
5
5
5
5
5
5
5
5
5
5
5
5
5
5
5
5
5
5
5
5
5
5
5
5
5
5
5
5
5
5
5
5
5
5
5
5
5
5
5
5
5
5
5
5
5
5
5
5
5
POINT_DATA 296
SCALARS concentrations float 4
LOOKUP_TABLE default
0 0.999402 0.197381 14.5477
0 0.999401 0.197134 14.3619
0 0.999401 0.19661 14.427
0 0.999399 0.195809 14.5475
0 0.999402 0.0908783 0.000344258
0 0.999401 0.196675 14.6144
0 0.999399 0.196235 14.7802
0 0.999402 0.0908786 0.000327591
0 0.999401 0.0908799 0.000458965
0 0.9994 0.1957 16.5815
0 0.999405 0.196073 13.3659
0 0.9994 0.195015 14.8095
0 0.9994 0.195276 14.2785
0 0.999401 0.090879 0.000521329
0 0.9994 0.0908791 0.000117241
0 0.999403 0.0908785 0.000299342
0 0.999403 0.0908785 0.000316021
0 0.9994 0.0908815 0.000699845
0 0.999399 0.0908854 0.000627919
0 0.999402 0.0908791 0.000363029
0 0.999401 0.09088 0.000428967
0 0.999402 0.197681 14.8492
0 0.999398 0.198462 15.5189
0 0.999402 0.0908879 0.00202929
0 0.999404 0.0908826 0.00176084
0 0.999401 0.0908785 0.000187733
0 0.999401 0.194596 14.3849
0 0.999401 0.0908783 0.000305064
0 0.999403 0.195263 14.4189
0 0.999402 0.0908785 0.000277012
0 0.999402 0.0908784 0.000196594
0 0.999403 0.0908781 0.000257768
0 0.999399 0.19606 14.7308
0 0.999404 0.090878 0.000245903
0 0.999403 0.0908784 0.000268095
0 0.9994 0.0908814 0.000417558
0 0.999401 0.0908819 0.000391831
0 0.999403 0.0908786 0.000242629
0 0.999402 0.0908796 0.000347402
0 0.9994 0.0908815 0.000694505
0 0.999399 0.0908812 0.000385036
0 0.999402 0.090881 0.000541033
0 0.999402 0.0908797 0.000420973
0 0.999401 0.19538 14.5079
0 0.999402 0.0908785 0.000188063
0 0.999402 0.0908785 0.000709798
0 0.999402 0.0908786 0.000277854
0 0.999409 0.194546 14.3732
0 0.999405 0.0908789 0.00189997
0 0.999415 0.194041 14.5321
0 0.999403 0.090878 0.000234233
0 0.999403 0.0908782 0.00021511
0 0.999404 0.0908774 0.000154714
0 0.9994 0.0908796 0.000385728
0 0.999401 0.0908793 0.000170112
0 0.999404 0.0908775 0.000101931
0 0.999402 0.0908796 0.000300418
0 0.999402 0.0908799 0.000280459
0 0.999404 0.0908778 0.000120886
0 0.999401 0.0908795 4.26608e-05
0 0.999401 0.0908794 0.000261605
0 0.999403 0.0908791 0.000192886
0 0.999402 0.0908789 0.000117526
0 0.999401 0.19394 13.5422
0 0.999403 0.0908781 0.000153656
0 0.999403 0.0908788 0.000871306
0 0.999403 0.0908784 0.000162778
0 0.99941 0.0908803 0.00518163
0 0.999405 0.0908792 0.00200405
0 0.999409 0.193966 13.8174
0 0.99941 0.0908808 0.00488129
0 0.999402 0.194071 14.5111
0 0.999405 0.0908772 8.27399e-05
0 0.999404 0.0908774 0.000178226
0 0.999405 0.0908772 0.00015224
0 0.999402 0.0908791 0.00021046
0 0.999401 0.0908802 0.000347018
0 0.999403 0.090879 7.45225e-05
0 0.999405 0.0908772 1.4168e-05
0 0.999405 0.0908771 6.71908e-05
0 0.999403 0.090878 0.000163681
0 0.999404 0.0908773 4.58272e-05
0 0.999403 0.0908784 0.000177076
0 0.999403 0.0908785 0.000218414
0 0.999404 0.0908778 0.000150183
0 0.999399 0.194387 15.4341
0 0.999404 0.0908775 8.34283e-05
0 0.999404 0.0908784 0.000450033
0 0.999406 0.0908795 0.00244674
0 0.999404 0.0908787 0.00096197
0 0.999404 0.0908793 0.00174234
0 0.999405 0.0908793 0.00192525
0 0.9994 0.193983 14.0041
0 0.999401 0.090879 0.000559223
0 0.999405 0.090877 0.000110619
0 0.999404 0.0908772 0.000165269
0 0.999405 0.0908771 0.000147533
0 0.999404 0.0908772 0.000103769
0 0.999401 0.194561 14.254
0 0.999399 0.0908844 0.00202597
0 0.999404 0.0908785 0.000172139
0 0.999402 0.0908798 0.000518803
0 0.999404 0.0908789 9.4923e-06
0 0.999406 0.0908768 9.09359e-05
0 0.999405 0.090877 4.91144e-05
0 0.999404 0.0908774 0.000110738
0 0.999405 0.0908772 7.22243e-05
0 0.999404 0.0908777 0.000171439
0 0.999405 0.0908774 0.000137568
0 0.999396 0.193299 14.6791
0 0.999404 0.0908776 0.000104557
0 0.999404 0.0908785 0.000753374
0 0.999403 0.090879 0.000724676
0 0.999403 0.0908787 0.000566649
0 0.999401 0.0908794 0.000350713
0 0.999402 0.0908789 0.000131401
0 0.999403 0.0908806 0.00104857
0 0.999406 0.0908767 0.000100841
0 0.999406 0.0908767 9.93083e-05
0 0.999405 0.0908768 0.000108654
0 0.999405 0.090877 0.000150994
0 0.999404 0.0908772 8.18036e-05
0 0.999405 0.0908771 0.000145935
0 0.999406 0.0908766 7.87789e-05
0 0.999405 0.19425 14.6868
0 0.9994 0.0908875 0.00246043
0 0.999403 0.090881 0.000680747
0 0.999405 0.090878 0.000174402
0 0.999404 0.0908791 8.70564e-05
0 0.999406 0.0908768 9.53421e-05
0 0.999405 0.0908771 0.000120783
0 0.999405 0.0908774 0.00017639
0 0.999405 0.0908771 0.000152836
0 0.999404 0.0908839 0.000574357
0 0.999402 0.193837 12.9391
0 0.999404 0.0908776 6.89522e-05
0 0.999403 0.0908784 0.000107269
0 0.999402 0.0908792 0.000411363
0 0.999403 0.0908785 0.000205717
0 0.999404 0.0908813 0.000804842
0 0.999403 0.0908796 0.000422059
0 0.999404 0.0908773 0.000128668
0 0.999406 0.0908766 0.000111901
0 0.999406 0.0908764 8.82946e-05
0 0.999405 0.0908768 0.000104502
0 0.999405 0.090877 0.000137054
0 0.999405 0.0908772 0.000148841
0 0.999406 0.0908766 6.6997e-05
0 0.999406 0.0908763 5.47632e-05
0 0.999405 0.0908838 0.000173414
0 0.999405 0.194939 14.1788
0 0.999406 0.0908775 0.000225514
0 0.999404 0.0908815 0.000648659
0 0.999405 0.0908798 0.000217964
0 0.999405 0.0908782 0.000204568
0 0.999405 0.0908811 0.000343706
0 0.999406 0.0908769 0.00014381
0 0.999406 0.0908771 0.000205631
0 0.999406 0.0908767 0.000134682
0 0.999406 0.0908774 0.000301825
0 0.999404 0.0908814 9.07184e-05
0 0.999404 0.193976 13.9599
0 0.999404 0.0908776 0.000157243
0 0.999403 0.0908786 0.000250692
0 0.999404 0.0908809 0.000283249
0 0.999403 0.0908793 0.000228919
0 0.999404 0.0908813 9.88769e-05
0 0.999404 0.0908773 0.000170617
0 0.999406 0.0908764 8.00123e-05
0 0.999405 0.0908768 0.000102835
0 0.999405 0.0908771 0.000149423
0 0.999406 0.0908765 6.92195e-05
0 0.999406 0.0908764 4.29827e-05
0 0.999405 0.0908838 7.66021e-05
0 0.999407 0.193503 14.4058
0 0.999406 0.0908776 0.000299844
0 0.999405 0.0908796 0.000335092
0 0.999406 0.0908785 0.00031209
0 0.999405 0.0908801 0.000477522
0 0.999406 0.0908794 0.0004859
0 0.999406 0.0908768 0.000167258
0 0.999406 0.090877 0.000233347
0 0.999406 0.0908766 0.000130839
0 0.999406 0.0908773 0.000301397
0 0.999406 0.0908777 0.000376777
0 0.999405 0.0908794 0.00067606
0 0.999404 0.0908796 0.000337374
0 0.999404 0.193077 14.2311
0 0.999404 0.0908778 0.0001735
0 0.999404 0.0908794 0.000141578
0 0.999403 0.0908808 4.90781e-05
0 0.999404 0.0908798 8.44612e-05
0 0.999404 0.0908774 0.000167202
0 0.999405 0.0908772 0.000149089
0 0.999406 0.0908765 8.66934e-05
0 0.999406 0.0908768 0.000112123
0 0.999406 0.0908766 7.99717e-05
0 0.999406 0.0908767 6.10194e-05
0 0.999406 0.0908767 7.92689e-05
0 0.999402 0.0908799 9.71548e-05
0 0.999402 0.0908802 0.000105258
0 0.999403 0.194026 14.3478
0 0.999406 0.0908781 0.000401995
0 0.999405 0.0908788 0.000571094
0 0.999405 0.0908787 0.000653304
0 0.999406 0.0908777 0.000368906
0 0.999406 0.0908768 0.000165941
0 0.999406 0.0908773 0.00027876
0 0.999405 0.0908789 0.000792658
0 0.999405 0.0908801 0.000899078
0 0.999405 0.193545 13.9932
0 0.999404 0.0908779 0.000118167
0 0.999403 0.0908791 4.14748e-05
0 0.999403 0.0908793 0.000119601
0 0.999405 0.0908774 0.000118094
0 0.999405 0.0908772 0.000135629
0 0.999406 0.0908768 0.000113247
0 0.999406 0.090877 0.00011625
0 0.999406 0.0908769 0.000121526
0 0.999406 0.090877 0.000124874
0 0.999401 0.09088 0.000434636
0 0.999401 0.0908796 0.000313111
0 0.999401 0.19285 14.3561
0 0.999405 0.0908778 0.000418487
0 0.999405 0.0908782 0.000530373
0 0.999405 0.0908774 0.000288257
0 0.999406 0.0908771 0.000179355
0 0.999405 0.0908783 0.000481529
0 0.999404 0.0908788 0.00071969
0 0.999405 0.0908797 0.00108113
0 0.999406 0.194935 14.7496
0 0.999404 0.0908779 2.43614e-05
0 0.999403 0.0908793 0.000287212
0 0.999405 0.0908775 8.00344e-05
0 0.999405 0.0908774 0.000141449
0 0.999406 0.0908771 0.000170037
0 0.999406 0.0908773 0.000202121
0 0.999406 0.0908773 0.000164515
0 0.999406 0.0908774 0.000211209
0 0.999403 0.0908799 0.000532803
0 0.9994 0.090881 0.000986138
0 0.999399 0.0908802 0.000813364
0 0.999399 0.19194 14.1618
0 0.999405 0.0908776 0.000297737
0 0.999406 0.0908773 0.000227924
0 0.999405 0.0908784 0.00046128
0 0.999404 0.0908788 0.000585076
0 0.999404 0.0908785 0.000490051
0 0.999404 0.195001 14.1976
0 0.999404 0.090878 6.33502e-05
0 0.999405 0.0908776 0.00011524
0 0.999406 0.0908773 0.00026613
0 0.999406 0.0908775 0.00029444
0 0.999406 0.0908776 0.000217918
0 0.999404 0.0908795 0.000384099
0 0.9994 0.0908814 0.00110767
0 0.999396 0.0908843 0.0023633
0 0.999396 0.19312 14.3682
0 0.999406 0.0908778 0.000377005
0 0.999406 0.0908789 0.000725844
0 0.999405 0.090879 0.00070485
0 0.999404 0.0908786 0.000560295
0 0.999404 0.193602 14.1501
0 0.999405 0.0908781 0.000168322
0 0.999406 0.0908781 0.000569107
0 0.999406 0.0908781 0.000458322
0 0.999404 0.0908796 0.000376519
0 0.999402 0.0908809 0.000907196
0 0.999397 0.0908847 0.00236469
0 0.999392 0.193206 14.7339
0 0.999406 0.0908793 0.000985491
0 0.999406 0.0908798 0.00110921
0 0.999405 0.0908791 0.000726265
0 0.999404 0.192933 14.1544
0 0.999407 0.0908803 0.00139357
0 0.999405 0.0908792 0.000515336
0 0.999407 0.0908799 0.00118013
0 0.999406 0.0908798 0.000983087
0 0.999404 0.0908801 0.000636713
0 0.999402 0.0908807 0.000914002
0 0.999398 0.193157 13.8478
0 0.999408 0.0908814 0.00176202
0 0.999407 0.0908805 0.0012453
0 0.999406 0.193493 14.2233
0 0.999409 0.0908821 0.00193026
0 0.999406 0.0908803 0.00090656
0 0.999408 0.0908816 0.00164386
0 0.999404 0.0908798 0.000643075
0 0.999403 0.190983 13.9981
0 0.999411 0.0908847 0.00272468
0 0.999409 0.193415 14.2347
0 0.99941 0.090886 0.00296849
0 0.999406 0.0908816 0.000995025
0 0.999404 0.191988 14.5746
0 0.999412 0.19315 11.8952
0 0.999407 0.192844 13.9475
VECTORS fa_u float
0.000427765 0.000176921 0
0.00039569 0.000228636 0
0.000443371 0.000119009 0
0.000458948 6.03552e-05 0
9.65354e-09 5.17734e-09 0
0.000368831 0.000283226 0
0.000332745 0.000332364 0
1.03679e-08 -1.07879e-09 0
1.45752e-08 -9.20638e-10 0
0.000320824 0.000418875 0
0.00021298 0.000368131 0
0.000471235 -4.42821e-07 0
0.000450485 -5.90757e-05 0
-1.70106e-09 1.65012e-08 0
-3.25614e-09 1.82068e-09 0
5.51389e-09 7.7668e-09 0
9.84881e-09 2.02967e-09 0
1.9563e-08 -1.06394e-08 0
-2.6792e-09 -1.97999e-08 0
1.07611e-08 -4.19961e-09 0
8.88328e-09 -1.03635e-08 0
0.000180972 0.000436469 0
0.00012741 0.000477091 0
-4.19563e-08 4.90837e-08 0
3.92864e-08 3.99489e-08 0
5.86493e-09 1.13453e-09 0
0.000442161 -0.000118353 0
9.69832e-09 -4.1313e-10 0
0.000423881 -0.000175583 0
1.4985e-09 8.68618e-09 0
1.54371e-09 6.06215e-09 0
4.48366e-09 6.8682e-09 0
6.05389e-05 0.000464806 0
6.81634e-09 3.84216e-09 0
8.4967e-09 -7.61525e-10 0
-7.41966e-10 -1.32659e-08 0
-1.1967e-08 3.49892e-09 0
5.07743e-09 -5.81592e-09 0
-1.74842e-10 -1.10529e-08 0
2.20546e-08 1.40078e-09 0
-1.10979e-08 -5.1908e-09 0
-7.08266e-09 1.56912e-08 0
7.31983e-09 1.12185e-08 0
3.76077e-07 0.00046164 0
4.37032e-09 4.08781e-09 0
1.30588e-08 -1.84278e-08 0
8.21633e-09 -3.265e-09 0
0.000396013 -0.000228792 0
2.18638e-08 -5.63651e-08 0
0.000367033 -0.000281266 0
2.22199e-09 7.11437e-09 0
1.72262e-09 6.62448e-09 0
1.84591e-09 4.56381e-09 0
-1.11369e-08 5.15903e-09 0
8.17083e-10 5.35093e-09 0
3.2103e-09 4.62435e-10 0
-6.46976e-09 -7.03718e-09 0
-8.9215e-09 2.19554e-10 0
-7.0633e-10 -3.78119e-09 0
-8.73199e-10 1.03934e-09 0
-8.31264e-09 4.39321e-10 0
-5.56935e-09 2.57929e-09 0
-2.85863e-09 2.4111e-09 0
-5.63944e-05 0.000427206 0
1.49864e-09 4.65397e-09 0
1.58141e-08 -2.27724e-08 0
4.56823e-09 -2.44121e-09 0
7.38172e-08 -1.47432e-07 0
3.76624e-08 -5.14588e-08 0
0.000310915 -0.000310872 0
1.5332e-07 -2.48621e-08 0
0.000281121 -0.000366303 0
4.95518e-10 2.58573e-09 0
-4.10619e-10 5.65625e-09 0
-7.17359e-10 4.79084e-09 0
-5.77339e-09 3.39344e-09 0
1.06801e-08 2.80409e-09 0
1.61401e-09 1.73725e-09 0
3.95362e-10 2.16634e-10 0
2.37719e-10 2.12475e-09 0
-4.81421e-09 -1.98744e-09 0
-1.4334e-09 -2.67892e-10 0
-5.40982e-09 1.57543e-09 0
-6.3805e-09 2.75507e-09 0
-4.71295e-09 7.90561e-10 0
-0.000126733 0.000474477 0
-2.54831e-10 2.64242e-09 0
9.44924e-09 -1.07599e-08 0
6.11933e-08 -4.81331e-08 0
2.19589e-08 -2.13253e-08 0
5.54325e-08 9.80222e-10 0
5.76359e-08 -2.07617e-08 0
0.000222908 -0.000385851 0
1.7048e-08 5.0998e-09 0
-1.77723e-10 3.5154e-09 0
-1.59225e-09 5.01201e-09 0
-1.10736e-09 4.56201e-09 0
-1.61808e-09 2.8783e-09 0
0.000172628 -0.000419426 0
5.68252e-08 -3.04429e-08 0
-4.21467e-09 3.49843e-09 0
1.20155e-08 -1.13203e-08 0
5.17118e-11 2.97585e-10 0
-3.45445e-10 2.87288e-09 0
-4.18134e-10 1.50584e-09 0
-3.42847e-09 8.13486e-10 0
-1.65049e-09 1.59921e-09 0
-4.73411e-09 2.71059e-09 0
-3.73119e-09 2.28911e-09 0
-0.000178126 0.000431789 0
2.37965e-09 -2.32513e-09 0
1.98261e-08 -1.34758e-08 0
2.245e-08 -5.26488e-09 0
1.61617e-08 -7.99409e-09 0
-1.07161e-08 -3.11499e-09 0
1.59832e-09 -3.86362e-09 0
-1.70737e-08 -2.86661e-08 0
-4.98333e-10 3.16981e-09 0
-2.25775e-10 3.15191e-09 0
-9.54281e-10 3.32307e-09 0
-2.23816e-09 4.25146e-09 0
-2.50825e-09 6.95835e-10 0
-3.45312e-09 3.10473e-09 0
-8.83863e-10 2.34574e-09 0
0.000120749 -0.000451465 0
-2.4253e-08 -7.44393e-08 0
2.23782e-09 -2.15454e-08 0
-4.02485e-09 3.82062e-09 0
-1.52637e-09 -2.31166e-09 0
-8.46646e-10 2.91325e-09 0
-2.36363e-09 3.03055e-09 0
-3.89547e-09 4.04076e-09 0
-2.63355e-09 4.08844e-09 0
-1.30173e-08 -1.28281e-08 0
-0.000206175 0.000356379 0
2.1662e-10 -2.18333e-09 0
1.28344e-09 -3.16279e-09 0
-7.71188e-09 -1.05765e-08 0
-4.91512e-09 -4.32325e-09 0
1.61002e-08 -1.99162e-08 0
-3.22125e-09 -1.30379e-08 0
-4.0213e-09 -7.69116e-10 0
-2.99659e-10 3.54804e-09 0
-2.14662e-10 2.80131e-09 0
-2.45e-09 2.24829e-09 0
-4.12529e-09 1.41446e-09 0
-4.73455e-09 -1.22193e-10 0
-1.89813e-09 9.70493e-10 0
-1.07922e-09 1.36814e-09 0
2.95898e-09 -4.65757e-09 0
5.91131e-05 -0.000447278 0
-4.12272e-09 5.8733e-09 0
-1.07063e-08 -1.76464e-08 0
-6.36064e-09 -2.76491e-09 0
-4.80599e-09 4.39022e-09 0
-1.06887e-08 2.31602e-09 0
-1.36155e-09 4.36876e-09 0
-2.58047e-09 6.01284e-09 0
-5.45978e-10 4.25065e-09 0
-3.68511e-09 8.86891e-09 0
-2.84189e-09 -5.06365e-10 0
-0.000270431 0.000352395 0
-4.44505e-09 -2.29701e-09 0
-5.51668e-09 -5.76185e-09 0
1.31741e-09 -8.91615e-09 0
-3.25444e-09 -6.51676e-09 0
-4.88975e-10 -3.10803e-09 0
-5.10851e-09 -1.83774e-09 0
-5.92931e-10 2.47598e-09 0
-3.2712e-09 8.0904e-11 0
-4.51758e-09 -1.4825e-09 0
-2.18912e-09 -2.42976e-10 0
-1.30324e-09 4.14946e-10 0
-5.24735e-12 -2.43747e-09 0
-5.37697e-08 -0.000458392 0
-4.94452e-09 8.15982e-09 0
-9.41357e-09 5.0076e-09 0
-7.03127e-09 7.01282e-09 0
-1.11226e-08 1.03521e-08 0
-1.03795e-08 1.14594e-08 0
-1.02333e-09 5.22283e-09 0
-2.32508e-09 7.05165e-09 0
-1.0931e-09 4.01723e-09 0
-3.80238e-09 8.80443e-09 0
-5.43586e-09 1.06859e-08 0
-1.5642e-08 1.47683e-08 0
-1.06542e-08 1.31613e-09 0
-0.000320499 0.0003199 0
-4.60313e-09 -3.04794e-09 0
-2.63869e-09 -3.65134e-09 0
-1.02056e-09 -1.18205e-09 0
-2.18097e-09 -1.57044e-09 0
-4.80771e-09 -2.2786e-09 0
-3.95174e-09 -2.62474e-09 0
-1.40748e-09 2.3725e-09 0
-3.03828e-09 -1.8702e-09 0
-2.13262e-09 -1.38831e-09 0
-1.94079e-09 5.72932e-11 0
-1.98705e-09 -1.55363e-09 0
3.08947e-09 1.10721e-10 0
-2.04556e-09 -2.65207e-09 0
-5.96616e-05 -0.000452629 0
-7.01991e-09 1.06931e-08 0
-1.07495e-08 1.46518e-08 0
-1.28638e-08 1.63299e-08 0
-5.61118e-09 1.03106e-08 0
-2.11072e-09 4.84001e-09 0
-4.19935e-09 7.81308e-09 0
-1.76223e-08 1.80449e-08 0
-2.66268e-08 1.04626e-08 0
-0.000353863 0.000270258 0
-3.23873e-09 -1.91018e-09 0
-1.02426e-09 -8.32202e-10 0
3.6425e-09 1.10254e-09 0
-3.04436e-09 -2.20281e-09 0
-2.99722e-09 -3.10513e-09 0
-2.59509e-09 2.50015e-09 0
-3.69145e-09 -2.3713e-10 0
-2.69284e-09 -2.77524e-09 0
-3.26336e-09 -2.26694e-09 0
1.33038e-08 3.77886e-09 0
9.36168e-09 -3.40933e-09 0
-0.000118236 -0.000441243 0
-7.53233e-09 1.09812e-08 0
-1.15539e-08 1.23013e-08 0
-6.01048e-09 6.92859e-09 0
-3.99503e-09 4.07559e-09 0
-1.31804e-08 7.81332e-09 0
-1.70822e-08 1.52522e-08 0
-1.7601e-08 2.95579e-08 0
-0.000406553 0.000234493 0
-4.95937e-10 -5.95775e-10 0
7.54306e-09 5.1599e-09 0
-1.82188e-09 -1.77943e-09 0
-2.98929e-09 -3.36484e-09 0
-5.30705e-09 1.05328e-09 0
-6.18149e-09 -1.77565e-09 0
-4.01301e-09 -3.36146e-09 0
-5.97291e-09 -3.08082e-09 0
1.11129e-08 1.28037e-08 0
2.64508e-08 1.68816e-08 0
2.58618e-08 9.99781e-10 0
-0.00017237 -0.000416358 0
-7.86119e-09 5.28751e-09 0
-6.79192e-09 2.54345e-09 0
-1.46577e-08 7.70525e-10 0