# vtk DataFile Version 2.0
CellBP Time: 2.92
ASCII
DATASET UNSTRUCTURED_GRID
POINTS 296 double
-9.18367 -3.77471 0
-8.6055 -4.94725 0
-9.60391 -2.53675 0
-9.859 -1.25454 0
-8.35806 -2.81887 0
-7.87914 -6.03423 0
-7.01722 -7.01721 0
-7.9177 -3.87494 0
-7.34311 -4.86814 0
-6.03425 -7.87914 0
-4.94719 -8.60538 0
-9.94449 0.049999 0
-9.85899 1.35454 0
-8.65817 -1.68403 0
-8.78681 -0.529655 0
-7.59019 -2.00427 0
-7.22622 -2.90667 0
-6.63807 -5.77925 0
-5.82279 -6.59733 0
-6.79073 -3.88917 0
-6.22101 -4.67624 0
-3.77472 -9.18367 0
-2.53676 -9.60388 0
-4.9068 -7.30929 0
-3.91327 -7.88676 0
-8.79327 0.643435 0
-9.60397 2.63678 0
-8.62379 1.77418 0
-9.18369 3.87472 0
-7.74481 -0.929039 0
-7.79503 0.0802594 0
-6.95302 -1.31596 0
-1.25454 -9.85897 0
-6.44191 -2.15326 0
-6.31981 -3.05633 0
-5.53693 -5.47496 0
-4.79625 -6.11591 0
-5.65942 -3.75726 0
-5.26977 -4.56191 0
-2.86636 -8.3645 0
-1.77868 -8.64083 0
-3.92842 -6.72404 0
-3.05684 -7.15313 0
0.0499986 -9.94474 0
-7.70604 1.14359 0
-8.33912 2.91561 0
-7.55244 2.11211 0
-8.6055 5.04726 0
-7.8806 3.9785 0
-7.87915 6.13426 0
-6.77917 -0.396882 0
-6.95704 0.552581 0
-5.77177 -1.00347 0
-0.590878 -8.81033 0
0.565721 -8.77152 0
-5.30346 -2.48043 0
-4.49229 -5.0961 0
-3.90279 -5.77575 0
-4.4392 -3.805 0
-2.06257 -7.56253 0
-1.13557 -7.78645 0
-2.99477 -6.10252 0
-2.3092 -6.6203 0
1.35454 -9.85895 0
-6.68995 1.42215 0
-7.17274 3.11836 0
-6.65977 2.37319 0
-7.29528 4.98903 0
-6.71863 4.00338 0
-7.01717 7.11718 0
-6.57301 5.89461 0
-6.03427 7.97918 0
-4.45338 -1.18114 0
-5.81499 0.513792 0
-4.65644 -0.0103823 0
0.00852174 -7.84875 0
1.7387 -8.6445 0
0.949042 -7.7641 0
-4.03876 -2.40653 0
-3.48576 -1.39128 0
-3.29473 -4.80567 0
-3.26607 -3.26799 0
-1.37869 -6.676 0
-0.508782 -7.02553 0
-1.97569 -5.53743 0
2.63677 -9.60397 0
-5.50773 2.03707 0
-6.09523 3.07247 0
-6.10565 4.87008 0
-5.76225 3.99184 0
-5.76182 6.71776 0
-5.45266 5.61991 0
-4.94725 8.7055 0
-4.83893 7.40528 0
-3.50171 -0.42433 0
-4.4496 1.24912 0
-3.7117 0.59211 0
-4.06245 2.31997 0
-3.77473 9.28372 0
2.86287 -8.33364 0
0.419726 -6.79606 0
2.02222 -7.52659 0
1.30621 -6.90625 0
-2.44481 -0.873866 0
-2.83856 -2.13127 0
-2.29456 -4.09766 0
-2.3258 -2.97379 0
-0.442421 -5.86165 0
-1.22281 -4.49946 0
3.87474 -9.18374 0
-4.7902 3.39208 0
-5.08845 4.59461 0
-4.64768 6.28212 0
-4.53935 5.3603 0
-3.84415 7.99422 0
-3.82718 6.84649 0
-2.78361 8.42377 0
-1.64915 -0.137908 0
-1.45035 -0.890641 0
-2.48927 0.507287 0
-3.25384 1.44425 0
-3.23927 3.31681 0
-2.91118 2.37193 0
-1.35519 0.627143 0
-2.53674 9.70385 0
3.93313 -7.88785 0
2.96488 -7.15856 0
0.954178 -5.82257 0
2.07457 -6.41623 0
-1.68307 -1.99218 0
-1.43453 -3.278 0
0.0902259 -4.74737 0
-0.566214 -3.69469 0
4.93271 -7.31965 0
5.04722 -8.60544 0
-3.7773 4.55205 0
-3.73518 5.75279 0
-2.88832 7.29075 0
-3.01005 6.35448 0
-1.66275 8.7347 0
-1.94035 7.6203 0
-2.33857 4.05201 0
-0.730774 -1.32733 0
-0.836946 -0.257641 0
-1.93633 1.68088 0
-2.12592 2.87605 0
-1.30667 3.54496 0
-0.869512 1.35091 0
-0.282383 0.456074 0
-0.533584 8.87278 0
-1.25454 9.959 0
1.11288 -4.575 0
3.91063 -6.71816 0
2.98828 -6.09552 0
2.11808 -5.42554 0
4.78507 -6.20619 0
-0.558888 -2.47698 0
0.495147 -3.4641 0
0.0535556 -1.61058 0
1.48202 -3.68247 0
5.86795 -6.61555 0
6.13427 -7.87918 0
-2.47594 5.34905 0
-2.13072 6.53528 0
-0.904193 7.80436 0
-1.27251 6.93297 0
0.0862154 7.88148 0
-1.14456 4.49512 0
0.150329 -0.617681 0
-0.797481 2.48867 0
-0.331675 3.60102 0
0.0631095 1.51282 0
0.741481 0.473449 0
0.646873 8.87547 0
0.049999 10.0444 0
2.38125 -4.28568 0
3.8597 -5.64122 0
3.00183 -5.21341 0
5.57461 -5.49266 0
4.69171 -5.28383 0
0.629717 -2.29352 0
1.25628 -2.95146 0
0.757547 -1.39154 0
2.16454 -3.13611 0
2.9941 -3.47696 0
6.15617 -4.79257 0
6.65662 -5.77021 0
7.11719 -7.0172 0
-1.01975 5.82105 0
-0.372671 6.88459 0
1.12281 7.77081 0
0.558059 7.08089 0
-0.000765347 4.72568 0
0.607058 3.82819 0
1.33901 -0.641938 0
0.53914 2.65126 0
0.966151 1.57505 0
1.91034 0.213883 0
1.61489 1.06511 0
2.12977 7.5849 0
1.79951 8.71385 0
1.35455 9.95901 0
3.82334 -4.35219 0
5.11741 -4.44975 0
5.84675 -3.93582 0
3.78447 -3.20146 0
1.81244 -1.88278 0
3.01949 -2.57417 0
6.78463 -3.9486 0
7.38278 -4.89768 0
7.97918 -6.03428 0
0.483426 5.88238 0
1.42842 6.74309 0
2.37478 6.67033 0
1.21013 4.55675 0
1.48834 3.39801 0
2.43604 -0.692088 0
2.82836 0.14262 0
1.78907 2.16306 0
2.61217 1.15027 0
3.07264 7.17156 0
2.90479 8.37846 0
2.63678 9.70395 0
4.91207 -3.32842 0
6.12187 -3.10927 0
4.17346 -2.27557 0
3.24484 -1.50308 0
6.73275 -2.31351 0
7.23362 -3.04319 0
7.96658 -3.91307 0
8.70549 -4.94725 0
2.02396 5.60078 0
3.08717 6.15493 0
2.36426 4.12752 0
2.4204 3.06129 0
3.52616 -0.460918 0
3.61621 0.613373 0
2.96224 2.28839 0
3.54611 1.52549 0
4.01318 5.8996 0
3.98553 6.79499 0
3.97434 7.94077 0
3.87476 9.28376 0
5.56994 -1.91653 0
4.50997 -1.12978 0
6.71566 -1.33644 0
7.59461 -2.03696 0
8.39943 -2.86212 0
9.2837 -3.77473 0
3.41987 4.87808 0
3.3396 3.38598 0
4.69211 0.130099 0
4.52001 1.31021 0
4.06608 2.44426 0
4.57198 5.15405 0
4.84528 6.19282 0
4.98202 7.38278 0
5.04728 8.70553 0
5.88495 -0.435004 0
7.01312 -0.488391 0
7.76211 -1.08563 0
8.68761 -1.74648 0
9.70396 -2.53678 0
4.55368 3.82861 0
5.81939 1.09889 0
5.37279 2.53565 0
5.3821 4.62232 0
5.61431 5.52565 0
5.89935 6.67434 0
6.13428 7.97918 0
6.84862 0.463702 0
7.85636 -0.0256463 0
8.86366 -0.584548 0
9.95907 -1.25455 0
6.96328 1.34998 0
5.72336 3.77995 0
6.54409 2.19837 0
6.38288 3.08927 0
6.29515 4.68899 0
6.69581 5.8402 0
7.1172 7.11719 0
7.78765 0.968013 0
8.86301 0.572976 0
10.0445 0.0499977 0
7.61956 2.00517 0
6.83226 3.90602 0
7.27283 2.94811 0
7.38147 4.88785 0
7.97919 6.13427 0
8.72661 1.72762 0
9.95902 1.35455 0
8.42453 2.83896 0
7.98502 3.91796 0
8.70551 5.04726 0
9.70393 2.63676 0
9.28374 3.87474 0
CELLS 542 2168
3 2 0 4
3 0 1 7
3 4 0 7
3 1 5 8
3 7 1 8
3 3 2 13
3 13 2 4
3 11 3 14
3 14 3 13
3 13 4 15
3 4 7 16
3 15 4 16
3 5 6 17
3 8 5 17
3 6 9 18
3 17 6 18
3 7 8 19
3 16 7 19
3 8 17 20
3 19 8 20
3 9 10 23
3 18 9 23
3 10 21 24
3 23 10 24
3 12 11 25
3 25 11 14
3 26 12 27
3 27 12 25
3 14 13 29
3 29 13 15
3 25 14 30
3 30 14 29
3 29 15 31
3 15 16 33
3 31 15 33
3 16 19 34
3 33 16 34
3 17 18 35
3 20 17 35
3 18 23 36
3 35 18 36
3 19 20 37
3 34 19 37
3 20 35 38
3 37 20 38
3 21 22 39
3 24 21 39
3 22 32 40
3 39 22 40
3 23 24 41
3 36 23 41
3 24 39 42
3 41 24 42
3 27 25 44
3 44 25 30
3 28 26 45
3 45 26 27
3 45 27 46
3 46 27 44
3 47 28 48
3 48 28 45
3 30 29 50
3 50 29 31
3 44 30 51
3 51 30 50
3 50 31 52
3 31 33 52
3 32 43 53
3 40 32 53
3 53 43 54
3 33 34 55
3 34 37 55
3 33 55 52
3 35 36 56
3 38 35 56
3 36 41 57
3 56 36 57
3 37 38 58
3 38 56 58
3 37 58 55
3 39 40 59
3 42 39 59
3 40 53 60
3 59 40 60
3 41 42 61
3 57 41 61
3 42 59 62
3 61 42 62
3 43 63 54
3 46 44 64
3 64 44 51
3 48 45 65
3 65 45 46
3 65 46 66
3 66 46 64
3 49 47 67
3 67 47 48
3 67 48 68
3 68 48 65
3 69 49 70
3 70 49 67
3 52 55 72
3 64 51 73
3 51 50 73
3 50 52 73
3 73 52 74
3 74 52 72
3 53 54 75
3 60 53 75
3 54 63 76
3 54 76 77
3 75 54 77
3 55 58 78
3 72 55 78
3 72 78 79
3 56 57 80
3 57 61 80
3 56 80 58
3 58 80 81
3 78 58 81
3 59 60 82
3 62 59 82
3 60 75 83
3 82 60 83
3 61 62 84
3 62 82 84
3 61 84 80
3 63 85 76
3 66 64 86
3 64 73 86
3 68 65 87
3 87 65 66
3 87 66 86
3 70 67 88
3 88 67 68
3 88 68 89
3 89 68 87
3 71 69 90
3 90 69 70
3 90 70 91
3 91 70 88
3 92 71 93
3 93 71 90
3 74 72 94
3 94 72 79
3 86 73 95
3 95 73 74
3 95 74 96
3 96 74 94
3 97 86 95
3 76 85 99
3 75 77 100
3 83 75 100
3 76 99 101
3 77 76 101
3 77 101 102
3 100 77 102
3 94 79 103
3 78 81 104
3 79 78 104
3 79 104 103
3 80 84 105
3 81 80 105
3 81 105 106
3 104 81 106
3 82 83 107
3 83 100 107
3 82 107 84
3 84 107 108
3 105 84 108
3 85 109 99
3 89 87 110
3 87 86 110
3 110 86 97
3 91 88 111
3 111 88 89
3 111 89 110
3 93 90 112
3 112 90 91
3 112 91 113
3 113 91 111
3 98 92 114
3 114 92 93
3 114 93 115
3 115 93 112
3 116 98 114
3 117 103 118
3 96 94 119
3 94 103 119
3 119 103 117
3 97 95 120
3 120 95 96
3 120 96 119
3 121 110 97
3 121 97 122
3 122 97 120
3 123 119 117
3 124 98 116
3 99 109 125
3 99 125 126
3 101 99 126
3 100 102 127
3 100 127 107
3 101 126 128
3 102 101 128
3 102 128 127
3 104 106 129
3 104 129 103
3 103 129 118
3 105 108 130
3 106 105 130
3 106 130 129
3 107 127 131
3 108 107 131
3 108 131 132
3 108 132 130
3 109 134 125
3 125 134 133
3 113 111 135
3 111 110 135
3 135 110 121
3 115 112 136
3 136 112 113
3 136 113 135
3 116 114 137
3 137 114 115
3 137 115 138
3 138 115 136
3 139 124 116
3 139 116 140
3 140 116 137
3 141 135 121
3 118 129 142
3 118 142 143
3 117 118 143
3 123 117 143
3 122 120 144
3 120 119 144
3 144 119 123
3 141 121 145
3 145 121 122
3 145 122 144
3 146 141 145
3 147 144 123
3 147 123 148
3 143 148 123
3 150 124 139
3 149 150 139
3 131 127 151
3 125 133 152
3 126 125 152
3 126 152 153
3 128 126 153
3 128 153 154
3 128 154 127
3 127 154 151
3 152 133 155
3 130 132 156
3 130 156 129
3 129 156 142
3 131 151 157
3 132 131 157
3 132 157 156
3 156 158 142
3 157 151 159
3 133 160 155
3 134 161 133
3 133 161 160
3 138 136 162
3 136 135 162
3 162 135 141
3 140 137 163
3 163 137 138
3 163 138 162
3 149 139 164
3 164 139 140
3 164 140 165
3 165 140 163
3 166 149 164
3 167 162 141
3 167 141 146
3 142 158 168
3 143 142 168
3 143 168 148
3 146 145 169
3 145 144 169
3 169 144 147
3 170 167 146
3 170 146 169
3 171 169 147
3 171 147 148
3 171 148 172
3 168 172 148
3 173 149 166
3 174 150 149
3 173 174 149
3 154 175 151
3 151 175 159
3 152 155 176
3 153 152 176
3 153 176 177
3 153 177 154
3 154 177 175
3 155 160 178
3 155 178 179
3 176 155 179
3 156 157 180
3 156 180 158
3 157 159 181
3 157 181 180
3 158 180 182
3 158 182 168
3 159 175 183
3 159 183 181
3 175 184 183
3 160 186 178
3 178 186 185
3 161 187 160
3 160 187 186
3 165 163 188
3 163 162 188
3 188 162 167
3 166 164 189
3 189 164 165
3 189 165 188
3 190 173 166
3 190 166 191
3 191 166 189
3 192 188 167
3 192 167 170
3 193 192 170
3 182 194 168
3 194 172 168
3 193 170 195
3 170 169 195
3 195 169 171
3 196 195 171
3 196 171 172
3 194 197 172
3 197 198 172
3 198 196 172
3 200 173 190
3 199 200 190
3 201 174 173
3 200 201 173
3 176 179 202
3 177 176 202
3 177 202 175
3 175 202 184
3 178 185 203
3 178 203 179
3 179 203 202
3 203 185 204
3 202 205 184
3 183 206 181
3 180 181 206
3 180 206 182
3 182 206 194
3 183 184 207
3 205 207 184
3 183 207 206
3 185 208 204
3 186 209 185
3 185 209 208
3 187 210 186
3 186 210 209
3 191 189 211
3 189 188 211
3 211 188 192
3 199 190 212
3 212 190 191
3 212 191 211
3 213 199 212
3 214 211 192
3 214 192 193
3 215 214 193
3 215 193 195
3 206 216 194
3 216 197 194
3 216 217 197
3 215 195 218
3 218 195 196
3 198 218 196
3 217 219 197
3 219 218 198
3 197 219 198
3 220 199 213
3 221 200 199
3 220 221 199
3 222 201 200
3 221 222 200
3 203 204 223
3 203 223 202
3 202 223 205
3 204 208 224
3 204 224 223
3 205 223 225
3 205 225 207
3 207 225 226
3 207 226 206
3 226 216 206
3 208 228 224
3 224 228 227
3 209 229 208
3 229 228 208
3 210 230 209
3 209 230 229
3 213 212 231
3 212 211 231
3 231 211 214
3 232 220 213
3 232 213 231
3 233 231 214
3 233 214 215
3 234 233 215
3 234 215 218
3 226 235 216
3 235 217 216
3 235 236 217
3 217 236 219
3 237 234 218
3 237 218 219
3 236 238 219
3 238 237 219
3 240 220 232
3 239 240 232
3 241 221 220
3 240 241 220
3 242 222 221
3 241 242 221
3 224 227 243
3 224 243 223
3 223 243 225
3 225 243 244
3 225 244 226
3 226 244 235
3 227 245 243
3 228 246 227
3 227 246 245
3 229 247 228
3 228 247 246
3 230 248 229
3 229 248 247
3 239 232 249
3 232 231 249
3 249 231 233
3 250 249 233
3 250 233 234
3 237 250 234
3 244 251 235
3 235 251 236
3 251 252 236
3 236 252 238
3 252 253 238
3 253 250 237
3 253 237 238
3 254 239 249
3 255 240 239
3 254 255 239
3 256 241 240
3 255 256 240
3 257 242 241
3 256 257 241
3 245 258 243
3 243 258 244
3 244 258 251
3 245 259 258
3 246 260 245
3 245 260 259
3 247 261 246
3 246 261 260
3 248 262 247
3 247 262 261
3 254 249 263
3 263 249 250
3 253 263 250
3 258 264 251
3 251 264 252
3 264 265 252
3 265 263 253
3 252 265 253
3 266 254 263
3 267 255 254
3 266 267 254
3 268 256 255
3 267 268 255
3 269 257 256
3 268 269 256
3 259 270 258
3 270 264 258
3 260 271 259
3 259 271 270
3 261 272 260
3 260 272 271
3 262 273 261
3 273 272 261
3 270 274 264
3 275 266 263
3 275 263 265
3 274 276 264
3 276 265 264
3 276 277 265
3 277 275 265
3 278 267 266
3 275 278 266
3 279 268 267
3 278 279 267
3 280 269 268
3 279 280 268
3 271 281 270
3 270 281 274
3 272 282 271
3 271 282 281
3 273 283 272
3 272 283 282
3 281 284 274
3 274 284 276
3 285 278 275
3 277 285 275
3 284 286 276
3 286 285 277
3 276 286 277
3 287 279 278
3 285 287 278
3 288 280 279
3 287 288 279
3 282 289 281
3 281 289 284
3 283 290 282
3 282 290 289
3 289 291 284
3 284 291 286
3 291 292 286
3 292 287 285
3 286 292 285
3 293 288 287
3 292 293 287
3 290 294 289
3 289 294 291
3 294 295 291
3 295 293 292
3 291 295 292
CELL_TYPES 542
5
5
5
5
5
5
5
5
5
5
5
5
5
5
5
5
5
5
5
5
5
5
5
5
5
5
5
5
5
5
5
5
5
5
5
5
5
5
5
5
5
5
5
5
5
5
5
5
5
5
5
5
5
5
5
5
5
5
5
5
5
5
5
5
5
5
5
5
5
5
5
5
5
5
5
5
5
5
5
5
5
5
5
5
5
5
5
5
5
5
5
5
5
5
5
5
5
5
5
5
5
5
5
5
5
5
5
5
5
5
5
5
5
5
5
5
5
5
5
5
5
5
5
5
5
5
5
5
5
5
5
5
5
5
5
5
5
5
5
5
5
5
5
5
5
5
5
5
5
5
5
5
5
5
5
5
5
5
5
5
5
5
5
5
5
5
5
5
5
5
5
5
5
5
5
5
5
5
5
5
5
5
5
5
5
5
5
5
5
5
5
5
5
5
5
5
5
5
5
5
5
5
5
5
5
5
5
5
5
5
5
5
5
5
5
5
5
5
5
5
5
5
5
5
5
5
5
5
5
5
5
5
5
5
5
5
5
5
5
5
5
5
5
5
5
5
5
5
5
5
5
5
5
5
5
5
5
5
5
5
5
5
5
5
5
5
5
5
5
5
5
5
5
5
5
5
5
5
5
5
5
5
5
5
5
5
5
5
5
5
5
5
5
5
5
5
5
5
5
5
5
5
5
5
5
5
5
5
5
5
5
5
5
5
5
5
5
5
5
5
5
5
5
5
5
5
5
5
5
5
5
5
5
5
5
5
5
5
5
5
5
5
5
5
5
5
5
5
5
5
5
5
5
5
5
5
5
5
5
5
5
5
5
5
5
5
5
5
5
5
5
5
5
5
5
5
5
5
5
5
5
5
5
5
5
5
5
5
5
5
5
5
5
5
5
5
5
5
5
5
5
5
5
5
5
5
5
5
5
5
5
5
5
5
5
5
5
5
5
5
5
5
5
5
5
5
5
5
5
5
5
5
5
5
5
5
5
5
5
5
5
5
5
5
5
5
5
5
5
5
5
5
5
5
5
5
5
5
5
5
5
5
5
5
5
5
5
5
5
5
5
5
5
5
5
5
5
5
5
5
5
5
5
5
5
5
5
5
5
5
5
5
5
5
5
5
5
5
5
5
5
5
5
5
5
5
5
5
5
5
5
5
5
5
5
5
5
5
5
5
5
5
5
5
5
5
5
5
5
5
5
5
5
5
5
5
5
5
5
5
5
5
POINT_DATA 296
SCALARS concentrations float 4
LOOKUP_TABLE default
0 0.998912 0.226915 16.1635
0 0.998902 0.225669 13.9955
0 0.998905 0.226503 16.4527
0 0.998892 0.224959 15.2388
0 0.998909 0.0908837 0.00218648
0 0.998901 0.226566 16.5048
0 0.998896 0.226055 16.4038
0 0.998907 0.0908867 0.00183911
0 0.998902 0.0908841 0.000645774
0 0.99889 0.225734 16.1262
0 0.99889 0.225954 18.7891
0 0.99889 0.223958 15.9481
0 0.998897 0.224767 16.7457
0 0.9989 0.0908854 0.00213831
0 0.998893 0.0908859 0.00213275
0 0.998905 0.0908812 0.00107491
0 0.998907 0.0908805 0.00103927
0 0.9989 0.0908797 0.000712164
0 0.998894 0.0908805 0.000381587
0 0.998905 0.0908807 0.000854679
0 0.998902 0.0908798 0.000568578
0 0.998888 0.22744 16.2317
0 0.998894 0.229068 16.5007
0 0.998892 0.0908814 0.00135018
0 0.998891 0.0908832 0.00142214
0 0.998896 0.0908833 0.00162808
0 0.998903 0.223775 14.8045
0 0.998901 0.0908801 0.000885016
0 0.998904 0.224703 16.6296
0 0.998901 0.0908818 0.000903321
0 0.998899 0.0908811 0.000706048
0 0.998904 0.0908796 0.000552157
0 0.998897 0.225813 16.1206
0 0.998905 0.090879 0.000747134
0 0.998905 0.0908793 0.000901711
0 0.998899 0.0908792 0.000514189
0 0.998896 0.0908794 0.000477964
0 0.998904 0.0908787 0.000724355
0 0.998902 0.0908786 0.00059423
0 0.998892 0.0908816 0.000676976
0 0.998897 0.0908786 0.000442499
0 0.998895 0.0908799 0.000481156
0 0.998895 0.0908799 0.000392409
0 0.998895 0.224923 15.7795
0 0.998901 0.09088 0.000488604
0 0.998903 0.0908805 0.000546431
0 0.998902 0.0908792 0.000530514
0 0.998906 0.223688 15.2729
0 0.998904 0.0908801 0.00127715
0 0.998903 0.223371 16.3891
0 0.998902 0.0908792 0.000223541
0 0.998902 0.0908792 0.000102553
0 0.998904 0.0908777 0.000327745
0 0.998897 0.090879 0.000498238
0 0.998895 0.0908813 0.00143926
0 0.998904 0.0908777 0.000501711
0 0.9989 0.0908784 0.00045296
0 0.998899 0.0908788 0.000416637
0 0.998903 0.0908776 0.000432978
0 0.998897 0.0908793 0.000314674
0 0.998899 0.0908788 0.000314369
0 0.998899 0.0908787 0.000403494
0 0.998899 0.0908788 0.000419202
0 0.99889 0.222998 17.1296
0 0.998902 0.0908784 0.000242887
0 0.998903 0.0908791 0.000782232
0 0.998902 0.0908784 0.000478334
0 0.998904 0.0908813 0.00136808
0 0.998903 0.090879 0.000851066
0 0.998899 0.223097 16.1682
0 0.9989 0.09088 0.000672714
0 0.9989 0.223284 15.692
0 0.998903 0.0908772 0.000314244
0 0.998903 0.0908775 0.000137245
0 0.998903 0.0908771 0.000232099
0 0.998899 0.0908795 0.000589069
0 0.998891 0.0908835 0.00351938
0 0.998897 0.0908804 0.00134135
0 0.998903 0.0908772 0.000355669
0 0.998903 0.090877 0.000291683
0 0.998901 0.0908776 0.000339776
0 0.998902 0.0908772 0.000348953
0 0.9989 0.0908783 0.000402411
0 0.998901 0.0908785 0.000331712
0 0.998901 0.0908776 0.000354435
0 0.998887 0.223074 14.8485
0 0.998902 0.0908773 0.000230308
0 0.998902 0.090878 0.000494829
0 0.998901 0.090879 0.00071341
0 0.998902 0.0908782 0.000522227
0 0.998899 0.0908792 0.000429275
0 0.9989 0.0908788 0.000424708
0 0.998899 0.223219 15.8113
0 0.9989 0.0908785 0.000609807
0 0.998903 0.0908769 0.00022497
0 0.998903 0.0908771 0.000176773
0 0.998903 0.0908769 0.000183331
0 0.998902 0.0908771 0.000177016
0 0.998894 0.223929 15.799
0 0.998894 0.0908836 0.00343962
0 0.998901 0.0908786 0.000330869
0 0.998897 0.0908804 0.00148292
0 0.9989 0.0908791 0.000568504
0 0.998903 0.0908767 0.000192951
0 0.998903 0.090877 0.000298248
0 0.998902 0.0908772 0.000344753
0 0.998903 0.0908771 0.000337329
0 0.998902 0.0908776 0.00034092
0 0.998902 0.0908772 0.00033629
0 0.998899 0.223071 15.0675
0 0.998902 0.0908773 0.000236456
0 0.998901 0.0908781 0.00035522
0 0.9989 0.0908787 0.000366696
0 0.998901 0.0908783 0.000300848
0 0.998897 0.0908797 0.000776997
0 0.998899 0.0908788 0.000367737
0 0.998891 0.0908834 0.00125865
0 0.998903 0.0908766 0.000123813
0 0.998903 0.0908766 0.00017858
0 0.998903 0.0908767 0.000116816
0 0.998903 0.0908769 0.000141998
0 0.998902 0.0908771 0.000179698
0 0.998903 0.090877 0.000160394
0 0.998903 0.0908765 6.8936e-05
0 0.998884 0.222965 18.3583
0 0.998903 0.0908821 0.000729573
0 0.9989 0.09088 0.000970546
0 0.998902 0.0908778 0.000247156
0 0.998901 0.0908788 0.000442663
0 0.998903 0.0908768 0.000249715
0 0.998903 0.090877 0.000335704
0 0.998902 0.0908772 0.000309951
0 0.998903 0.090877 0.000327303
0 0.998904 0.0908806 0.000286915
0 0.998907 0.223034 17.8277
0 0.998902 0.0908775 0.000183876
0 0.998901 0.0908782 0.00021042
0 0.998897 0.0908803 0.000672121
0 0.9989 0.0908788 0.000205774
0 0.998884 0.0908903 0.00284902
0 0.998894 0.0908831 0.0013304
0 0.998902 0.0908773 0.000167356
0 0.998903 0.0908765 0.00019388
0 0.998903 0.0908764 8.40398e-05
0 0.998903 0.0908767 0.000111264
0 0.998903 0.090877 0.000172315
0 0.998903 0.0908771 0.000206587
0 0.998903 0.0908765 0.00010337
0 0.998903 0.0908763 3.03892e-05
0 0.998883 0.0908889 0.00295576
0 0.998876 0.222827 15.2498
0 0.998902 0.0908772 0.000264105
0 0.998901 0.0908794 0.000250108
0 0.998901 0.0908788 0.000298765
0 0.998902 0.0908778 0.000188412
0 0.998901 0.090879 0.000102082
0 0.998903 0.0908767 0.000275282
0 0.998903 0.090877 0.000299869
0 0.998903 0.0908766 0.000206731
0 0.998902 0.0908772 0.000293039
0 0.9989 0.0908787 0.000323337
0 0.998903 0.223164 15.7563
0 0.998901 0.0908777 6.72846e-05
0 0.998899 0.0908797 0.000404871
0 0.998892 0.0908842 0.0016697
0 0.998898 0.0908813 0.000808623
0 0.998894 0.0908836 0.00152378
0 0.998902 0.0908774 0.00015879
0 0.998903 0.0908763 7.7637e-05
0 0.998903 0.0908767 0.000169305
0 0.998903 0.0908771 0.000238949
0 0.998903 0.0908765 0.0001328
0 0.998903 0.0908763 6.33924e-05
0 0.998891 0.0908833 0.00151063
0 0.998883 0.222559 17.6165
0 0.998902 0.0908773 0.000189899
0 0.998901 0.0908784 0.000128641
0 0.998901 0.0908779 0.000128027
0 0.9989 0.0908785 0.000237282
0 0.998901 0.0908782 8.21193e-05
0 0.998903 0.0908767 0.000233447
0 0.998903 0.0908768 0.000241742
0 0.998903 0.0908765 0.000157847
0 0.998902 0.090877 0.00021647
0 0.998902 0.0908773 0.000170751
0 0.9989 0.0908784 0.000332984
0 0.9989 0.0908783 0.000335672
0 0.9989 0.222048 15.7084
0 0.998901 0.0908783 0.000124854
0 0.998899 0.0908809 0.000695583
0 0.998898 0.0908815 0.000924256
0 0.9989 0.0908808 0.00063787
0 0.998903 0.0908775 0.000217574
0 0.998903 0.0908772 0.000299418
0 0.998903 0.0908764 8.96603e-05
0 0.998903 0.0908768 0.000224945
0 0.998903 0.0908766 0.000167597
0 0.998903 0.0908765 0.000105828
0 0.998903 0.0908766 0.000154811
0 0.998901 0.0908804 0.000663015
0 0.998896 0.0908815 0.000897379
0 0.998892 0.223171 15.4418
0 0.998901 0.0908775 4.81605e-05
0 0.998901 0.090878 0.000172297
0 0.998901 0.0908782 0.000329464
0 0.998902 0.0908773 0.000165987
0 0.998903 0.0908767 0.000148376
0 0.998902 0.090877 0.00016938
0 0.998901 0.0908784 0.00040932
0 0.9989 0.0908782 0.000350472
0 0.9989 0.22261 15.7521
0 0.998902 0.0908782 0.000213518
0 0.998902 0.0908794 0.000393903
0 0.998903 0.0908793 0.000608519
0 0.998903 0.0908774 0.000302071
0 0.998903 0.0908771 0.000322358
0 0.998903 0.0908767 0.000139822
0 0.998903 0.0908768 0.00016868
0 0.998903 0.0908768 0.00023809
0 0.998903 0.0908768 0.000189006
0 0.998904 0.0908801 0.000782884
0 0.998901 0.090881 0.000915648
0 0.998897 0.221586 16.2088
0 0.998902 0.0908775 0.000212318
0 0.998902 0.090878 0.00040766
0 0.998902 0.0908772 0.000212696
0 0.998903 0.0908769 0.000174764
0 0.998902 0.0908784 0.000569823
0 0.998901 0.0908787 0.000526142
0 0.9989 0.0908784 0.000342741
0 0.9989 0.224418 15.7554
0 0.998903 0.0908777 0.000384427
0 0.998904 0.0908787 0.00074016
0 0.998903 0.0908772 0.00033953
0 0.998903 0.0908771 0.000333978
0 0.998903 0.0908769 0.000207143
0 0.998903 0.090877 0.000205395
0 0.998903 0.0908771 0.000269356
0 0.998903 0.0908771 0.000221235
0 0.998904 0.090879 0.000806606
0 0.998906 0.09088 0.000902789
0 0.998907 0.0908823 0.00111071
0 0.998904 0.220487 15.1715
0 0.998902 0.0908774 0.000341671
0 0.998903 0.0908771 0.00025037
0 0.998902 0.0908785 0.000657841
0 0.998902 0.0908796 0.000676711
0 0.9989 0.0908791 0.00044967
0 0.9989 0.224468 16.2599
0 0.998903 0.0908775 0.000433964
0 0.998903 0.0908772 0.000305127
0 0.998903 0.090877 0.000241917
0 0.998902 0.090877 0.00018556
0 0.998903 0.0908771 0.000209488
0 0.998903 0.0908787 0.00056854
0 0.998904 0.0908804 0.000912181
0 0.998907 0.0908825 0.00116468
0 0.998909 0.221832 14.9553
0 0.998903 0.0908775 0.000431375
0 0.998903 0.0908788 0.000801486
0 0.998902 0.0908798 0.0007504
0 0.9989 0.0908817 0.000412366
0 0.998899 0.222671 15.9523
0 0.998902 0.0908776 0.000254575
0 0.998902 0.0908774 0.00030057
0 0.998902 0.0908775 5.06108e-05
0 0.998901 0.0908793 0.000456964
0 0.9989 0.0908807 0.000835129
0 0.998901 0.0908823 0.00119778
0 0.998904 0.222886 15.388
0 0.998903 0.0908783 0.000719049
0 0.998903 0.0908796 0.000935998
0 0.998901 0.0908824 0.000499344
0 0.998898 0.221342 14.1699
0 0.998902 0.0908785 0.000619213
0 0.9989 0.0908791 0.000291215
0 0.998901 0.0908785 0.000284893
0 0.9989 0.0908792 0.000266442
0 0.998897 0.0908809 0.000748322
0 0.998893 0.090884 0.00151672
0 0.998895 0.222077 15.5063
0 0.998903 0.0908792 0.00101222
0 0.998905 0.0908806 0.00122414
0 0.998902 0.222522 16.0416
0 0.9989 0.0908798 0.000830002
0 0.998896 0.0908808 0.00062115
0 0.998897 0.0908801 0.000525922
0 0.998891 0.0908828 0.000919616
0 0.998888 0.218733 16.6484
0 0.998903 0.0908825 0.00179106
0 0.998906 0.222188 15.2264
0 0.998896 0.0908819 0.00112895
0 0.998892 0.0908812 0.000642206
0 0.998889 0.220641 16.1947
0 0.998899 0.222582 16.5793
0 0.998892 0.221682 15.9386
VECTORS fa_u float
0.000476568 0.000193416 0
0.00038642 0.000221367 0
0.000504854 0.000138562 0
0.00048064 6.41132e-05 0
3.24392e-08 6.15481e-08 0
0.00041424 0.000322834 0
0.000370435 0.000367735 0
4.40961e-08 -3.84727e-08 0
-1.77109e-08 1.04194e-08 0
0.000311429 0.000407824 0
0.000299014 0.000517721 0
0.000507465 -1.0435e-06 0
0.000528252 -6.98194e-05 0
-3.76508e-08 5.66743e-08 0
-6.74369e-08 7.60195e-09 0
7.37777e-09 3.33983e-08 0
2.78847e-08 1.77772e-08 0
2.19076e-08 5.79452e-09 0
1.00715e-08 -6.78186e-09 0
2.64881e-08 6.16397e-09 0
1.66364e-08 7.11015e-09 0
0.000197865 0.000477087 0
0.000135441 0.000507282 0
-1.37371e-08 4.07072e-08 0
4.48757e-08 5.82604e-09 0
-3.54428e-08 -3.77835e-08 0
0.000455214 -0.000121219 0
6.82544e-09 -2.73215e-08 0
0.000488649 -0.000203041 0
-2.02913e-08 2.03582e-08 0
-2.23426e-08 -2.35545e-09 0
5.01893e-09 1.68375e-08 0
6.70081e-05 0.000508561 0
1.70715e-08 1.65455e-08 0
2.51944e-08 1.37294e-08 0
1.52107e-08 6.0276e-09 0
7.60721e-09 1.31696e-08 0
2.04373e-08 1.06569e-08 0
1.65483e-08 9.14764e-09 0
-2.15173e-08 1.01638e-09 0
6.52799e-09 1.24756e-08 0
6.56208e-09 1.38328e-08 0
4.52307e-09 1.16384e-08 0
-1.44029e-06 0.000502102 0
-5.61528e-09 -1.44979e-08 0
1.5625e-08 -7.62761e-09 0
1.08886e-08 -1.28997e-08 0
0.000419894 -0.000244682 0
2.07479e-08 -3.49435e-08 0
0.000414653 -0.000316269 0
-1.8535e-09 6.86734e-09 0
-2.43302e-09 -2.17463e-09 0
7.22652e-09 7.51917e-09 0
1.57581e-08 -1.74041e-09 0
4.14503e-08 -1.94745e-08 0
1.29344e-08 9.35758e-09 0
1.0429e-08 9.94864e-09 0
6.26275e-09 1.16848e-08 0
1.0441e-08 8.98888e-09 0
-1.996e-09 9.81194e-09 0
5.68229e-09 8.23261e-09 0
3.11836e-09 1.24547e-08 0
8.62247e-10 1.33111e-08 0
-6.96942e-05 0.000540589 0
5.60689e-09 -5.31927e-09 0
1.9932e-08 -1.49083e-08 0
1.27763e-08 -8.27231e-09 0
4.28684e-08 -7.57336e-09 0
2.37264e-08 -1.30549e-08 0
0.000363789 -0.000363784 0
2.10184e-08 4.0532e-09 0
0.000303314 -0.000396636 0
7.94405e-09 6.07261e-09 0
4.23966e-09 1.04739e-09 0
6.57293e-09 3.36756e-09 0
1.79161e-08 -5.50945e-09 0
7.89543e-08 -7.94176e-08 0
2.99685e-08 -3.03909e-08 0
8.15574e-09 7.84644e-09 0
6.9483e-09 6.15336e-09 0
5.04492e-09 9.56244e-09 0
6.1006e-09 9.27762e-09 0
1.26715e-09 1.27418e-08 0
5.56003e-09 8.97193e-09 0
1.91195e-09 1.11149e-08 0
-0.000121494 0.000456591 0
6.64394e-09 -3.09242e-09 0
1.37304e-08 -7.70673e-09 0
2.15733e-08 -7.06494e-09 0
1.48383e-08 -7.48042e-09 0
1.051e-09 -1.3619e-08 0
1.13088e-08 -7.39898e-09 0
0.000251591 -0.00043569 0
1.38264e-08 -1.36142e-08 0
6.10823e-09 3.73282e-09 0
5.60392e-09 -4.85429e-10 0
5.73144e-09 1.08679e-09 0
4.68984e-09 -3.11962e-09 0
0.000190288 -0.000465317 0
-2.91155e-08 -1.05505e-07 0
1.04368e-08 1.38451e-09 0
1.88284e-08 -4.3267e-08 0
1.40728e-08 -1.13665e-08 0
4.0744e-09 4.59294e-09 0
5.35483e-09 7.8352e-09 0
3.2572e-09 1.04753e-08 0
4.1222e-09 9.91069e-09 0
2.89589e-09 1.04544e-08 0
2.07952e-09 1.04967e-08 0
-0.000185066 0.00044229 0
6.00122e-09 -4.53827e-09 0
9.27853e-09 -6.45512e-09 0
7.40799e-09 -9.01496e-09 0
6.18821e-09 -7.30393e-09 0
2.44337e-08 3.77786e-09 0
1.15844e-08 -1.6502e-09 0
2.92523e-08 2.73555e-08 0
3.15834e-09 2.35505e-09 0
2.63245e-09 5.03588e-09 0
3.64264e-09 7.40082e-10 0
4.2543e-09 -1.52204e-09 0
2.96913e-09 -4.88667e-09 0
3.24275e-09 -3.94112e-09 0
2.06821e-09 -7.30827e-10 0
0.000153637 -0.000563593 0
-1.96207e-08 -1.24081e-08 0
2.36981e-09 -3.07916e-08 0
5.47072e-09 5.6499e-09 0
9.72755e-09 -1.0187e-08 0
2.61447e-09 7.50347e-09 0
1.99233e-09 1.04946e-08 0
2.50783e-09 9.53844e-09 0
1.48728e-09 1.0308e-08 0
1.31493e-10 9.12868e-09 0
-0.000283094 0.000491588 0
2.98061e-09 -5.03482e-09 0
4.63721e-09 -4.82977e-09 0
1.38464e-08 1.62995e-08 0
5.87806e-09 2.88465e-09 0
3.19056e-08 8.48554e-08 0
9.29647e-09 4.12999e-08 0
9.50368e-10 -5.23977e-09 0
1.19716e-09 6.05197e-09 0
1.20542e-09 2.38705e-09 0
2.02227e-09 -2.90602e-09 0
1.47381e-09 -5.28127e-09 0
-6.37549e-11 -6.57326e-09 0
6.10608e-10 -3.23205e-09 0
-1.05482e-10 -9.61211e-10 0
-5.03289e-08 7.94532e-08 0
6.41248e-05 -0.000480991 0
2.55184e-09 8.007e-09 0
1.2886e-09 -7.85339e-09 0
6.32678e-09 -7.09567e-09 0
5.15987e-09 3.0527e-09 0
-1.26155e-09 -2.99326e-09 0
1.03492e-09 8.69811e-09 0
1.2445e-09 9.4603e-09 0
2.9221e-10 6.57168e-09 0
1.1316e-09 9.25556e-09 0
-9.22875e-09 -4.54802e-09 0
-0.000304376 0.0003984 0
8.60736e-10 -1.96035e-09 0
2.48847e-09 1.26404e-08 0
-8.9481e-09 5.23707e-08 0
-2.86273e-09 2.55706e-08 0
-2.43482e-08 4.19297e-08 0
-1.20341e-09 -4.90729e-09 0
-4.74937e-10 2.42432e-09 0
-1.2689e-10 -5.38579e-09 0
-1.57848e-09 -7.43769e-09 0
-8.95762e-10 -4.12965e-09 0
-1.49181e-09 -1.35771e-09 0
-3.44697e-08 3.35021e-08 0
-1.02725e-06 -0.000560556 0
1.55533e-09 5.83898e-09 0
3.09804e-09 -2.67538e-09 0
3.90654e-09 1.1554e-09 0
-6.9351e-09 -2.98522e-09 0
-1.15523e-09 -2.34379e-09 0
1.33148e-10 7.42707e-09 0
1.02628e-10 7.69152e-09 0
-1.19515e-09 4.87842e-09 0
-8.93091e-10 6.82993e-09 0
-1.27919e-09 5.28055e-09 0
-1.05467e-08 -1.01619e-09 0
-1.06794e-08 1.88373e-10 0
-0.000353666 0.000353215 0
-2.977e-09 2.63079e-09 0
-9.64572e-09 1.9921e-08 0
-2.08814e-08 2.07099e-08 0
-1.39473e-08 1.47458e-08 0
-3.61369e-09 -5.90523e-09 0
-3.30648e-09 -8.93531e-09 0
-2.14946e-09 1.87599e-09 0
-1.99235e-09 -6.87484e-09 0
-2.01819e-09 -4.9363e-09 0
-3.2039e-09 -1.03668e-09 0
-2.88025e-09 -3.99631e-09 0
-2.03955e-08 5.39519e-09 0
-1.74706e-08 2.25862e-08 0
-6.22056e-05 -0.000487404 0
-7.07751e-10 1.35924e-09 0
-5.42415e-09 -7.97675e-10 0
-1.0474e-08 4.46248e-10 0
-4.12159e-09 3.30282e-09 0
-2.14344e-09 4.20671e-09 0
-3.50113e-09 4.09763e-09 0
-1.30224e-08 -2.36468e-10 0
-1.11238e-08 -7.92069e-10 0
-0.000397728 0.000305033 0
-6.63742e-09 -1.45076e-09 0
-1.25299e-08 -3.17193e-10 0
-1.59354e-08 -1.09995e-08 0
-4.95645e-09 -8.2354e-09 0
-3.8311e-09 -9.5151e-09 0
-4.05583e-09 1.82895e-09 0
-5.27665e-09 -9.82784e-10 0
-3.22075e-09 -6.8573e-09 0
-4.25652e-09 -4.24877e-09 0
-2.23879e-08 -1.0925e-08 0
-2.49173e-08 1.51006e-08 0
-0.000132204 -0.000498532 0
-6.59537e-09 1.46416e-09 0
-1.2921e-08 1.14595e-09 0
-6.42615e-09 2.12373e-09 0
-5.10923e-09 2.19549e-09 0
-1.81209e-08 6.26244e-10 0
-1.67291e-08 -6.52418e-10 0
-1.08948e-08 -4.93064e-10 0
-0.000434203 0.00025061 0
-7.27903e-09 -9.831e-09 0
-1.22624e-08 -2.01078e-08 0
-4.28408e-09 -9.91812e-09 0
-4.13046e-09 -9.79163e-09 0
-6.55564e-09 6.84578e-10 0
-6.29037e-09 -1.77366e-09 0
-4.17606e-09 -7.48468e-09 0
-5.27274e-09 -4.66424e-09 0
-6.6318e-09 -2.47946e-08 0
-1.25034e-08 -2.58629e-08 0
-3.39908e-08 -9.68176e-09 0
-0.000185598 -0.000445654 0
-1.0777e-08 1.43364e-09 0
-7.84193e-09 1.40475e-09 0
-2.09207e-08 7.00672e-10 0
-2.14582e-08 -1.79185e-09 0
-1.34064e-08 -4.99997e-09 0
-0.000478118 0.000197726 0
-4.15402e-09 -1.31691e-08 0