# vtk DataFile Version 2.0
CellBP Time: 0.88
ASCII
DATASET UNSTRUCTURED_GRID
POINTS 296 double
-9.18729 -3.77621 0
-8.60885 -4.94918 0
-9.60769 -2.53777 0
-9.86288 -1.25505 0
-8.35806 -2.81887 0
-7.88227 -6.03664 0
-7.02002 -7.02002 0
-7.9177 -3.87494 0
-7.34311 -4.86814 0
-6.03663 -7.88224 0
-4.9492 -8.60885 0
-9.94841 0.0499998 0
-9.86288 1.35505 0
-8.65817 -1.68403 0
-8.78681 -0.529655 0
-7.59019 -2.00427 0
-7.22622 -2.90667 0
-6.63807 -5.77925 0
-5.82279 -6.59733 0
-6.79073 -3.88917 0
-6.22101 -4.67624 0
-3.77622 -9.18729 0
-2.53775 -9.60759 0
-4.9068 -7.30929 0
-3.91327 -7.88676 0
-8.79327 0.643435 0
-9.60772 2.63779 0
-8.62379 1.77418 0
-9.18731 3.87623 0
-7.74481 -0.929039 0
-7.79503 0.0802594 0
-6.95302 -1.31596 0
-1.25505 -9.86285 0
-6.44191 -2.15326 0
-6.31981 -3.05633 0
-5.53693 -5.47496 0
-4.79625 -6.11591 0
-5.65942 -3.75726 0
-5.26977 -4.56191 0
-2.86636 -8.3645 0
-1.77868 -8.64083 0
-3.92842 -6.72404 0
-3.05684 -7.15313 0
0.0500008 -9.94864 0
-7.70604 1.14359 0
-8.33912 2.91561 0
-7.55244 2.11211 0
-8.60887 5.04921 0
-7.8806 3.9785 0
-7.88227 6.13665 0
-6.77917 -0.396882 0
-6.95704 0.552581 0
-5.77177 -1.00347 0
-0.590878 -8.81033 0
0.565721 -8.77152 0
-5.30346 -2.48043 0
-4.49229 -5.0961 0
-3.90279 -5.77575 0
-4.4392 -3.805 0
-2.06257 -7.56253 0
-1.13557 -7.78645 0
-2.99477 -6.10252 0
-2.3092 -6.6203 0
1.35506 -9.86292 0
-6.68995 1.42215 0
-7.17274 3.11836 0
-6.65977 2.37319 0
-7.29528 4.98903 0
-6.71863 4.00338 0
-7.01997 7.11997 0
-6.57301 5.89461 0
-6.03665 7.98228 0
-4.45338 -1.18114 0
-5.81499 0.513792 0
-4.65644 -0.0103823 0
0.00852169 -7.84875 0
1.7387 -8.6445 0
0.949042 -7.7641 0
-4.03876 -2.40653 0
-3.48576 -1.39128 0
-3.29473 -4.80567 0
-3.26607 -3.26799 0
-1.37869 -6.676 0
-0.508782 -7.02553 0
-1.97569 -5.53743 0
2.63776 -9.60765 0
-5.50773 2.03707 0
-6.09523 3.07247 0
-6.10565 4.87008 0
-5.76225 3.99184 0
-5.76182 6.71776 0
-5.45266 5.61992 0
-4.94922 8.7089 0
-4.83893 7.40528 0
-3.50171 -0.42433 0
-4.4496 1.24912 0
-3.7117 0.59211 0
-4.06245 2.31997 0
-3.77623 9.28733 0
2.86287 -8.33364 0
0.419726 -6.79606 0
2.02222 -7.52659 0
1.30621 -6.90625 0
-2.44481 -0.873866 0
-2.83856 -2.13127 0
-2.29456 -4.09766 0
-2.3258 -2.97379 0
-0.442421 -5.86165 0
-1.22281 -4.49946 0
3.87623 -9.18733 0
-4.7902 3.39208 0
-5.08845 4.59461 0
-4.64768 6.28212 0
-4.53935 5.3603 0
-3.84415 7.99422 0
-3.82718 6.84649 0
-2.78361 8.42377 0
-1.64915 -0.137908 0
-1.45035 -0.890641 0
-2.48927 0.507287 0
-3.25384 1.44425 0
-3.23927 3.31681 0
-2.91118 2.37193 0
-1.35519 0.627143 0
-2.53776 9.70767 0
3.93313 -7.88785 0
2.96488 -7.15856 0
0.954178 -5.82257 0
2.07457 -6.41623 0
-1.68307 -1.99218 0
-1.43453 -3.278 0
0.0902259 -4.74737 0
-0.566214 -3.69469 0
4.93271 -7.31965 0
5.0492 -8.60888 0
-3.7773 4.55205 0
-3.73518 5.7528 0
-2.88832 7.29075 0
-3.01005 6.35448 0
-1.66275 8.7347 0
-1.94035 7.6203 0
-2.33857 4.05201 0
-0.730774 -1.32733 0
-0.836947 -0.257641 0
-1.93633 1.68088 0
-2.12592 2.87605 0
-1.30667 3.54496 0
-0.869512 1.35091 0
-0.282383 0.456074 0
-0.533584 8.87278 0
-1.25505 9.96287 0
1.11288 -4.575 0
3.91063 -6.71816 0
2.98828 -6.09552 0
2.11808 -5.42554 0
4.78507 -6.20619 0
-0.558888 -2.47698 0
0.495147 -3.4641 0
0.0535556 -1.61058 0
1.48202 -3.68247 0
5.86795 -6.61555 0
6.13667 -7.88231 0
-2.47594 5.34905 0
-2.13072 6.53528 0
-0.904193 7.80436 0
-1.27251 6.93297 0
0.0862155 7.88148 0
-1.14456 4.49512 0
0.150329 -0.617681 0
-0.797481 2.48867 0
-0.331675 3.60102 0
0.0631095 1.51282 0
0.741481 0.473449 0
0.646873 8.87547 0
0.0500002 10.0484 0
2.38125 -4.28568 0
3.8597 -5.64122 0
3.00183 -5.21341 0
5.57461 -5.49266 0
4.69171 -5.28383 0
0.629717 -2.29352 0
1.25628 -2.95146 0
0.757547 -1.39154 0
2.16454 -3.13611 0
2.9941 -3.47696 0
6.15617 -4.79257 0
6.65662 -5.77021 0
7.11995 -7.01995 0
-1.01975 5.82105 0
-0.372671 6.88459 0
1.12281 7.77081 0
0.558059 7.08089 0
-0.000765348 4.72568 0
0.607058 3.82819 0
1.33901 -0.641938 0
0.53914 2.65126 0
0.966151 1.57505 0
1.91034 0.213883 0
1.61489 1.06511 0
2.12977 7.5849 0
1.79951 8.71385 0
1.35505 9.96287 0
3.82334 -4.35219 0
5.11741 -4.44975 0
5.84675 -3.93582 0
3.78447 -3.20146 0
1.81244 -1.88278 0
3.01949 -2.57417 0
6.78463 -3.9486 0
7.38278 -4.89768 0
7.98228 -6.03666 0
0.483426 5.88238 0
1.42842 6.74309 0
2.37478 6.67033 0
1.21013 4.55675 0
1.48834 3.39801 0
2.43604 -0.692088 0
2.82836 0.14262 0
1.78907 2.16306 0
2.61217 1.15027 0
3.07264 7.17156 0
2.90479 8.37846 0
2.63779 9.70773 0
4.91207 -3.32842 0
6.12187 -3.10927 0
4.17346 -2.27557 0
3.24484 -1.50308 0
6.73275 -2.31351 0
7.23362 -3.04319 0
7.96658 -3.91307 0
8.70881 -4.94917 0
2.02396 5.60078 0
3.08717 6.15493 0
2.36426 4.12752 0
2.4204 3.06129 0
3.52616 -0.460918 0
3.61621 0.613373 0
2.96224 2.28839 0
3.54611 1.52549 0
4.01318 5.8996 0
3.98553 6.79499 0
3.97434 7.94077 0
3.87624 9.28735 0
5.56994 -1.91653 0
4.50997 -1.12978 0
6.71566 -1.33644 0
7.59461 -2.03696 0
8.39943 -2.86212 0
9.28732 -3.77623 0
3.41987 4.87808 0
3.3396 3.38598 0
4.69211 0.130099 0
4.52001 1.31021 0
4.06608 2.44426 0
4.57198 5.15405 0
4.84528 6.19282 0
4.98202 7.38279 0
5.04922 8.70888 0
5.88495 -0.435004 0
7.01312 -0.488391 0
7.76211 -1.08563 0
8.68761 -1.74648 0
9.70773 -2.53779 0
4.55368 3.82861 0
5.81939 1.09889 0
5.37279 2.53565 0
5.3821 4.62232 0
5.61431 5.52565 0
5.89935 6.67434 0
6.13665 7.98227 0
6.84862 0.463702 0
7.85636 -0.0256463 0
8.86366 -0.584548 0
9.96289 -1.25506 0
6.96328 1.34998 0
5.72336 3.77995 0
6.54409 2.19837 0
6.38288 3.08927 0
6.29515 4.68899 0
6.69581 5.8402 0
7.11998 7.11997 0
7.78765 0.968013 0
8.86301 0.572976 0
10.0484 0.0500008 0
7.61956 2.00517 0
6.83226 3.90602 0
7.27283 2.94811 0
7.38147 4.88785 0
7.98231 6.13667 0
8.72661 1.72762 0
9.96289 1.35506 0
8.42453 2.83896 0
7.98502 3.91796 0
8.70891 5.04922 0
9.70774 2.63778 0
9.28738 3.87625 0
CELLS 542 2168
3 2 0 4
3 0 1 7
3 4 0 7
3 1 5 8
3 7 1 8
3 3 2 13
3 13 2 4
3 11 3 14
3 14 3 13
3 13 4 15
3 4 7 16
3 15 4 16
3 5 6 17
3 8 5 17
3 6 9 18
3 17 6 18
3 7 8 19
3 16 7 19
3 8 17 20
3 19 8 20
3 9 10 23
3 18 9 23
3 10 21 24
3 23 10 24
3 12 11 25
3 25 11 14
3 26 12 27
3 27 12 25
3 14 13 29
3 29 13 15
3 25 14 30
3 30 14 29
3 29 15 31
3 15 16 33
3 31 15 33
3 16 19 34
3 33 16 34
3 17 18 35
3 20 17 35
3 18 23 36
3 35 18 36
3 19 20 37
3 34 19 37
3 20 35 38
3 37 20 38
3 21 22 39
3 24 21 39
3 22 32 40
3 39 22 40
3 23 24 41
3 36 23 41
3 24 39 42
3 41 24 42
3 27 25 44
3 44 25 30
3 28 26 45
3 45 26 27
3 45 27 46
3 46 27 44
3 47 28 48
3 48 28 45
3 30 29 50
3 50 29 31
3 44 30 51
3 51 30 50
3 50 31 52
3 31 33 52
3 32 43 53
3 40 32 53
3 53 43 54
3 33 34 55
3 34 37 55
3 33 55 52
3 35 36 56
3 38 35 56
3 36 41 57
3 56 36 57
3 37 38 58
3 38 56 58
3 37 58 55
3 39 40 59
3 42 39 59
3 40 53 60
3 59 40 60
3 41 42 61
3 57 41 61
3 42 59 62
3 61 42 62
3 43 63 54
3 46 44 64
3 64 44 51
3 48 45 65
3 65 45 46
3 65 46 66
3 66 46 64
3 49 47 67
3 67 47 48
3 67 48 68
3 68 48 65
3 69 49 70
3 70 49 67
3 52 55 72
3 64 51 73
3 51 50 73
3 50 52 73
3 73 52 74
3 74 52 72
3 53 54 75
3 60 53 75
3 54 63 76
3 54 76 77
3 75 54 77
3 55 58 78
3 72 55 78
3 72 78 79
3 56 57 80
3 57 61 80
3 56 80 58
3 58 80 81
3 78 58 81
3 59 60 82
3 62 59 82
3 60 75 83
3 82 60 83
3 61 62 84
3 62 82 84
3 61 84 80
3 63 85 76
3 66 64 86
3 64 73 86
3 68 65 87
3 87 65 66
3 87 66 86
3 70 67 88
3 88 67 68
3 88 68 89
3 89 68 87
3 71 69 90
3 90 69 70
3 90 70 91
3 91 70 88
3 92 71 93
3 93 71 90
3 74 72 94
3 94 72 79
3 86 73 95
3 95 73 74
3 95 74 96
3 96 74 94
3 97 86 95
3 76 85 99
3 75 77 100
3 83 75 100
3 76 99 101
3 77 76 101
3 77 101 102
3 100 77 102
3 94 79 103
3 78 81 104
3 79 78 104
3 79 104 103
3 80 84 105
3 81 80 105
3 81 105 106
3 104 81 106
3 82 83 107
3 83 100 107
3 82 107 84
3 84 107 108
3 105 84 108
3 85 109 99
3 89 87 110
3 87 86 110
3 110 86 97
3 91 88 111
3 111 88 89
3 111 89 110
3 93 90 112
3 112 90 91
3 112 91 113
3 113 91 111
3 98 92 114
3 114 92 93
3 114 93 115
3 115 93 112
3 116 98 114
3 117 103 118
3 96 94 119
3 94 103 119
3 119 103 117
3 97 95 120
3 120 95 96
3 120 96 119
3 121 110 97
3 121 97 122
3 122 97 120
3 123 119 117
3 124 98 116
3 99 109 125
3 99 125 126
3 101 99 126
3 100 102 127
3 100 127 107
3 101 126 128
3 102 101 128
3 102 128 127
3 104 106 129
3 104 129 103
3 103 129 118
3 105 108 130
3 106 105 130
3 106 130 129
3 107 127 131
3 108 107 131
3 108 131 132
3 108 132 130
3 109 134 125
3 125 134 133
3 113 111 135
3 111 110 135
3 135 110 121
3 115 112 136
3 136 112 113
3 136 113 135
3 116 114 137
3 137 114 115
3 137 115 138
3 138 115 136
3 139 124 116
3 139 116 140
3 140 116 137
3 141 135 121
3 118 129 142
3 118 142 143
3 117 118 143
3 123 117 143
3 122 120 144
3 120 119 144
3 144 119 123
3 141 121 145
3 145 121 122
3 145 122 144
3 146 141 145
3 147 144 123
3 147 123 148
3 143 148 123
3 150 124 139
3 149 150 139
3 131 127 151
3 125 133 152
3 126 125 152
3 126 152 153
3 128 126 153
3 128 153 154
3 128 154 127
3 127 154 151
3 152 133 155
3 130 132 156
3 130 156 129
3 129 156 142
3 131 151 157
3 132 131 157
3 132 157 156
3 156 158 142
3 157 151 159
3 133 160 155
3 134 161 133
3 133 161 160
3 138 136 162
3 136 135 162
3 162 135 141
3 140 137 163
3 163 137 138
3 163 138 162
3 149 139 164
3 164 139 140
3 164 140 165
3 165 140 163
3 166 149 164
3 167 162 141
3 167 141 146
3 142 158 168
3 143 142 168
3 143 168 148
3 146 145 169
3 145 144 169
3 169 144 147
3 170 167 146
3 170 146 169
3 171 169 147
3 171 147 148
3 171 148 172
3 168 172 148
3 173 149 166
3 174 150 149
3 173 174 149
3 154 175 151
3 151 175 159
3 152 155 176
3 153 152 176
3 153 176 177
3 153 177 154
3 154 177 175
3 155 160 178
3 155 178 179
3 176 155 179
3 156 157 180
3 156 180 158
3 157 159 181
3 157 181 180
3 158 180 182
3 158 182 168
3 159 175 183
3 159 183 181
3 175 184 183
3 160 186 178
3 178 186 185
3 161 187 160
3 160 187 186
3 165 163 188
3 163 162 188
3 188 162 167
3 166 164 189
3 189 164 165
3 189 165 188
3 190 173 166
3 190 166 191
3 191 166 189
3 192 188 167
3 192 167 170
3 193 192 170
3 182 194 168
3 194 172 168
3 193 170 195
3 170 169 195
3 195 169 171
3 196 195 171
3 196 171 172
3 194 197 172
3 197 198 172
3 198 196 172
3 200 173 190
3 199 200 190
3 201 174 173
3 200 201 173
3 176 179 202
3 177 176 202
3 177 202 175
3 175 202 184
3 178 185 203
3 178 203 179
3 179 203 202
3 203 185 204
3 202 205 184
3 183 206 181
3 180 181 206
3 180 206 182
3 182 206 194
3 183 184 207
3 205 207 184
3 183 207 206
3 185 208 204
3 186 209 185
3 185 209 208
3 187 210 186
3 186 210 209
3 191 189 211
3 189 188 211
3 211 188 192
3 199 190 212
3 212 190 191
3 212 191 211
3 213 199 212
3 214 211 192
3 214 192 193
3 215 214 193
3 215 193 195
3 206 216 194
3 216 197 194
3 216 217 197
3 215 195 218
3 218 195 196
3 198 218 196
3 217 219 197
3 219 218 198
3 197 219 198
3 220 199 213
3 221 200 199
3 220 221 199
3 222 201 200
3 221 222 200
3 203 204 223
3 203 223 202
3 202 223 205
3 204 208 224
3 204 224 223
3 205 223 225
3 205 225 207
3 207 225 226
3 207 226 206
3 226 216 206
3 208 228 224
3 224 228 227
3 209 229 208
3 229 228 208
3 210 230 209
3 209 230 229
3 213 212 231
3 212 211 231
3 231 211 214
3 232 220 213
3 232 213 231
3 233 231 214
3 233 214 215
3 234 233 215
3 234 215 218
3 226 235 216
3 235 217 216
3 235 236 217
3 217 236 219
3 237 234 218
3 237 218 219
3 236 238 219
3 238 237 219
3 240 220 232
3 239 240 232
3 241 221 220
3 240 241 220
3 242 222 221
3 241 242 221
3 224 227 243
3 224 243 223
3 223 243 225
3 225 243 244
3 225 244 226
3 226 244 235
3 227 245 243
3 228 246 227
3 227 246 245
3 229 247 228
3 228 247 246
3 230 248 229
3 229 248 247
3 239 232 249
3 232 231 249
3 249 231 233
3 250 249 233
3 250 233 234
3 237 250 234
3 244 251 235
3 235 251 236
3 251 252 236
3 236 252 238
3 252 253 238
3 253 250 237
3 253 237 238
3 254 239 249
3 255 240 239
3 254 255 239
3 256 241 240
3 255 256 240
3 257 242 241
3 256 257 241
3 245 258 243
3 243 258 244
3 244 258 251
3 245 259 258
3 246 260 245
3 245 260 259
3 247 261 246
3 246 261 260
3 248 262 247
3 247 262 261
3 254 249 263
3 263 249 250
3 253 263 250
3 258 264 251
3 251 264 252
3 264 265 252
3 265 263 253
3 252 265 253
3 266 254 263
3 267 255 254
3 266 267 254
3 268 256 255
3 267 268 255
3 269 257 256
3 268 269 256
3 259 270 258
3 270 264 258
3 260 271 259
3 259 271 270
3 261 272 260
3 260 272 271
3 262 273 261
3 273 272 261
3 270 274 264
3 275 266 263
3 275 263 265
3 274 276 264
3 276 265 264
3 276 277 265
3 277 275 265
3 278 267 266
3 275 278 266
3 279 268 267
3 278 279 267
3 280 269 268
3 279 280 268
3 271 281 270
3 270 281 274
3 272 282 271
3 271 282 281
3 273 283 272
3 272 283 282
3 281 284 274
3 274 284 276
3 285 278 275
3 277 285 275
3 284 286 276
3 286 285 277
3 276 286 277
3 287 279 278
3 285 287 278
3 288 280 279
3 287 288 279
3 282 289 281
3 281 289 284
3 283 290 282
3 282 290 289
3 289 291 284
3 284 291 286
3 291 292 286
3 292 287 285
3 286 292 285
3 293 288 287
3 292 293 287
3 290 294 289
3 289 294 291
3 294 295 291
3 295 293 292
3 291 295 292
CELL_TYPES 542
5
5
5
5
5
5
5
5
5
5
5
5
5
5
5
5
5
5
5
5
5
5
5
5
5
5
5
5
5
5
5
5
5
5
5
5
5
5
5
5
5
5
5
5
5
5
5
5
5
5
5
5
5
5
5
5
5
5
5
5
5
5
5
5
5
5
5
5
5
5
5
5
5
5
5
5
5
5
5
5
5
5
5
5
5
5
5
5
5
5
5
5
5
5
5
5
5
5
5
5
5
5
5
5
5
5
5
5
5
5
5
5
5
5
5
5
5
5
5
5
5
5
5
5
5
5
5
5
5
5
5
5
5
5
5
5
5
5
5
5
5
5
5
5
5
5
5
5
5
5
5
5
5
5
5
5
5
5
5
5
5
5
5
5
5
5
5
5
5
5
5
5
5
5
5
5
5
5
5
5
5
5
5
5
5
5
5
5
5
5
5
5
5
5
5
5
5
5
5
5
5
5
5
5
5
5
5
5
5
5
5
5
5
5
5
5
5
5
5
5
5
5
5
5
5
5
5
5
5
5
5
5
5
5
5
5
5
5
5
5
5
5
5
5
5
5
5
5
5
5
5
5
5
5
5
5
5
5
5
5
5
5
5
5
5
5
5
5
5
5
5
5
5
5
5
5
5
5
5
5
5
5
5
5
5
5
5
5
5
5
5
5
5
5
5
5
5
5
5
5
5
5
5
5
5
5
5
5
5
5
5
5
5
5
5
5
5
5
5
5
5
5
5
5
5
5
5
5
5
5
5
5
5
5
5
5
5
5
5
5
5
5
5
5
5
5
5
5
5
5
5
5
5
5
5
5
5
5
5
5
5
5
5
5
5
5
5
5
5
5
5
5
5
5
5
5
5
5
5
5
5
5
5
5
5
5
5
5
5
5
5
5
5
5
5
5
5
5
5
5
5
5
5
5
5
5
5
5
5
5
5
5
5
5
5
5
5
5
5
5
5
5
5
5
5
5
5
5
5
5
5
5
5
5
5
5
5
5
5
5
5
5
5
5
5
5
5
5
5
5
5
5
5
5
5
5
5
5
5
5
5
5
5
5
5
5
5
5
5
5
5
5
5
5
5
5
5
5
5
5
5
5
5
5
5
5
5
5
5
5
5
5
5
5
5
5
5
5
5
5
5
5
5
5
5
5
5
5
5
5
5
5
5
5
5
5
5
5
5
5
5
5
5
5
5
5
5
5
5
5
5
5
5
5
5
5
5
5
5
5
5
5
POINT_DATA 296
SCALARS concentrations float 4
LOOKUP_TABLE default
0 0.999683 0.15547 10.5193
0 0.999683 0.155311 10.5826
0 0.999685 0.154968 10.5385
0 0.999686 0.15432 9.34443
0 0.999684 0.0908754 0.000727082
0 0.999684 0.154733 9.46908
0 0.999684 0.154391 8.85225
0 0.999684 0.090879 0.00119813
0 0.999684 0.0908903 0.0030791
0 0.999682 0.154706 10.6386
0 0.99968 0.154908 10.4075
0 0.999683 0.153845 9.95149
0 0.999683 0.154148 10.3839
0 0.999686 0.0908812 0.00221962
0 0.999685 0.0908836 0.00227534
0 0.999685 0.0908774 0.00151342
0 0.999685 0.0908777 0.00133426
0 0.999684 0.0908955 0.00328752
0 0.999684 0.0908878 0.00223387
0 0.999685 0.0908819 0.00206645
0 0.999685 0.0908846 0.00243035
0 0.999679 0.155682 10.2934
0 0.999678 0.155616 13.0352
0 0.999682 0.0908795 0.00163958
0 0.99968 0.0908793 0.0012342
0 0.999683 0.0908791 0.000687631
0 0.999682 0.153703 10.1464
0 0.999683 0.0908779 0.000930754
0 0.999682 0.154131 10.2664
0 0.999685 0.0908784 0.00158905
0 0.999684 0.090878 0.00133615
0 0.999685 0.0908761 0.00121376
0 0.999678 0.154662 10.2218
0 0.999685 0.0908759 0.00113773
0 0.999685 0.0908778 0.00148035
0 0.999685 0.0908837 0.00235559
0 0.999683 0.0908802 0.00187253
0 0.999685 0.0908786 0.00168603
0 0.999685 0.09088 0.00195098
0 0.999678 0.0908871 0.000625876
0 0.999678 0.0908898 0.000480982
0 0.999682 0.0908782 0.00143117
0 0.99968 0.0908799 0.0011284
0 0.999678 0.154201 10.5633
0 0.999684 0.0908768 0.000855032
0 0.999682 0.0908755 0.000318511
0 0.999683 0.090876 0.000645649
0 0.999682 0.153675 10.2491
0 0.999682 0.0908751 0.000168193
0 0.999684 0.153432 10.3484
0 0.999685 0.0908758 0.00102112
0 0.999684 0.0908759 0.000912358
0 0.999685 0.0908738 0.000621719
0 0.999678 0.0908809 0.000823359
0 0.999678 0.0908822 0.00133974
0 0.999685 0.0908744 0.000808111
0 0.999684 0.0908775 0.00151219
0 0.999683 0.0908765 0.00123519
0 0.999685 0.0908748 0.000967474
0 0.999679 0.0908811 0.000898943
0 0.999679 0.0908809 0.00107279
0 0.999682 0.0908761 0.00098589
0 0.999681 0.0908778 0.00110498
0 0.999677 0.152997 8.5591
0 0.999684 0.0908749 0.000584995
0 0.999683 0.0908752 0.000394612
0 0.999684 0.0908748 0.000474583
0 0.999683 0.0908756 0.000192341
0 0.999683 0.0908752 0.000329207
0 0.999685 0.153117 8.91948
0 0.999685 0.0908792 0.000553044
0 0.999684 0.153377 10.1829
0 0.999685 0.0908729 0.00043982
0 0.999684 0.0908736 0.000465318
0 0.999685 0.0908728 0.000352929
0 0.999679 0.0908791 0.0010884
0 0.999678 0.0908885 0.000680752
0 0.999679 0.0908798 0.00094295
0 0.999685 0.090873 0.00047126
0 0.999685 0.0908725 0.000297782
0 0.999684 0.0908737 0.000631927
0 0.999684 0.0908729 0.000405455
0 0.999681 0.090877 0.00103436
0 0.999681 0.0908772 0.00102857
0 0.999683 0.090874 0.000524369
0 0.999676 0.152993 12.5703
0 0.999684 0.0908734 0.000292057
0 0.999684 0.0908744 0.000390426
0 0.999684 0.0908762 0.00047727
0 0.999684 0.0908748 0.000402017
0 0.999685 0.0908845 0.00238007
0 0.999685 0.0908782 0.00115423
0 0.999683 0.152674 9.29171
0 0.999683 0.0908921 0.00474902
0 0.999685 0.0908724 0.00023395
0 0.999684 0.0908729 0.00026618
0 0.999685 0.0908725 0.000212556
0 0.999684 0.0908729 0.000177231
0 0.999684 0.153697 9.87222
0 0.999678 0.0908862 0.000364351
0 0.999681 0.0908768 0.000902437
0 0.99968 0.0908794 0.000644256
0 0.999681 0.0908774 0.000778723
0 0.999685 0.0908719 9.76868e-05
0 0.999685 0.0908723 0.00020671
0 0.999684 0.0908727 0.000189824
0 0.999685 0.0908723 0.000117773
0 0.999682 0.0908744 0.000640175
0 0.999683 0.0908729 0.00026103
0 0.999678 0.153302 10.0967
0 0.999684 0.0908734 0.000225576
0 0.999684 0.0908753 0.000477255
0 0.999684 0.0908823 0.0022506
0 0.999684 0.0908776 0.00103701
0 0.999683 0.0908919 0.00492026
0 0.999684 0.0908837 0.00228249
0 0.999685 0.0908896 0.00457669
0 0.999685 0.0908719 5.53434e-06
0 0.999685 0.0908719 5.80241e-05
0 0.999685 0.0908721 8.22452e-05
0 0.999685 0.0908725 0.000151349
0 0.999684 0.0908729 0.000102205
0 0.999684 0.0908726 0.000108343
0 0.999685 0.090872 2.95081e-05
0 0.999687 0.152984 11.9268
0 0.99968 0.0908795 0.000348534
0 0.999681 0.0908787 0.000548632
0 0.999683 0.0908747 0.000631692
0 0.999682 0.0908765 0.000674199
0 0.999685 0.090872 5.2771e-05
0 0.999684 0.0908723 0.000101358
0 0.999684 0.0908732 0.000446395
0 0.999684 0.0908725 0.000267594
0 0.999683 0.0908825 0.000302834
0 0.999681 0.153379 10.3288
0 0.999684 0.0908741 0.000341629
0 0.999684 0.0908783 0.00118592
0 0.999683 0.090884 0.00198011
0 0.999683 0.0908798 0.00122864
0 0.999684 0.0908865 0.0033056
0 0.999683 0.0908817 0.00147393
0 0.999684 0.090873 9.26348e-05
0 0.999685 0.0908719 0.000164414
0 0.999685 0.0908718 0.000110073
0 0.999685 0.0908721 5.22262e-05
0 0.999684 0.0908725 3.38282e-05
0 0.999684 0.0908726 1.95651e-05
0 0.999685 0.0908719 5.1126e-05
0 0.999685 0.0908717 0.000103454
0 0.999681 0.0908785 0.00131804
0 0.999683 0.153945 10.0337
0 0.999684 0.0908734 0.000512072
0 0.999682 0.0908773 0.000376208
0 0.999683 0.090876 0.000601646
0 0.999683 0.0908744 0.000591809
0 0.999683 0.0908775 0.000182653
0 0.999685 0.0908721 0.000219814
0 0.999684 0.0908727 0.000386557
0 0.999685 0.090872 0.000266571
0 0.999684 0.0908732 0.000496142
0 0.999683 0.0908838 0.000483311
0 0.999684 0.152983 8.60921
0 0.999684 0.0908746 0.000377522
0 0.999683 0.0908782 0.000664188
0 0.999682 0.0908793 0.00123463
0 0.999682 0.0908777 0.000584545
0 0.999681 0.090877 0.000598129
0 0.999684 0.0908728 8.45565e-05
0 0.999685 0.0908717 0.000203104
0 0.999684 0.090872 3.97294e-05
0 0.999684 0.0908723 4.69282e-05
0 0.999685 0.0908717 7.10845e-05
0 0.999685 0.0908716 0.000149134
0 0.999679 0.0908784 0.00109935
0 0.99968 0.153209 10.1316
0 0.999684 0.0908734 0.000502709
0 0.999683 0.0908751 0.000470036
0 0.999684 0.0908742 0.000568289
0 0.999682 0.0908798 0.00051579
0 0.999683 0.0908763 0.000381287
0 0.999685 0.0908722 0.000332574
0 0.999685 0.0908726 0.000434934
0 0.999685 0.090872 0.00030965
0 0.999684 0.0908729 0.000477005
0 0.999684 0.0908736 0.000496526
0 0.99968 0.0908815 0.000876335
0 0.99968 0.0908812 0.000865736
0 0.999681 0.152749 10.1673
0 0.999683 0.0908738 0.000157596
0 0.999682 0.0908755 0.000341705
0 0.99968 0.0908756 0.000228771
0 0.999682 0.0908748 0.000152276
0 0.999683 0.0908725 7.20328e-05
0 0.999684 0.0908722 6.75696e-05
0 0.999685 0.0908718 0.000268712
0 0.999684 0.0908718 6.23485e-05
0 0.999685 0.0908717 7.9665e-05
0 0.999685 0.0908719 0.00022026
0 0.999685 0.0908718 0.000131881
0 0.99968 0.0908749 0.000246822
0 0.999678 0.0908773 0.000653861
0 0.999677 0.153202 10.2133
0 0.999684 0.0908742 0.000428176
0 0.999683 0.0908773 0.000367692
0 0.999681 0.0908791 0.000443284
0 0.999684 0.0908739 0.000425855
0 0.999685 0.0908722 0.00035938
0 0.999684 0.0908731 0.000451211
0 0.999679 0.0908819 0.000894405
0 0.999677 0.090888 0.00178053
0 0.999678 0.153043 9.96082
0 0.999683 0.0908727 4.78119e-05
0 0.999682 0.0908738 8.31674e-05
0 0.999682 0.090874 0.000168045
0 0.999683 0.0908722 7.72266e-05
0 0.999684 0.0908721 8.1848e-05
0 0.999685 0.0908723 0.000322014
0 0.999685 0.0908726 0.000282738
0 0.999684 0.090872 8.6049e-05
0 0.999685 0.0908723 0.000169476
0 0.999681 0.0908742 0.000245585
0 0.99968 0.0908742 0.00023047
0 0.999678 0.152609 10.1977
0 0.999683 0.0908752 0.000270852
0 0.999681 0.0908778 0.000231836
0 0.999684 0.0908737 0.000375408
0 0.999684 0.0908728 0.000367128
0 0.999681 0.0908771 9.52019e-05
0 0.999679 0.0908808 0.00070882
0 0.999676 0.0908885 0.00177625
0 0.999675 0.153415 12.4094
0 0.999683 0.0908726 8.68313e-05
0 0.999683 0.0908736 0.00022792
0 0.999684 0.0908725 0.000104224
0 0.999684 0.0908725 0.00010289
0 0.999684 0.090873 0.000328264
0 0.999684 0.0908731 0.000270196
0 0.999684 0.0908728 0.000128963
0 0.999684 0.0908732 0.000201897
0 0.999683 0.0908742 0.000374305
0 0.999682 0.0908742 0.000314675
0 0.999681 0.0908738 0.000225354
0 0.99968 0.152021 10.0418
0 0.999683 0.0908745 0.000233977
0 0.999684 0.0908735 0.000332387
0 0.999682 0.0908755 0.000209289
0 0.99968 0.0908773 0.000235979
0 0.999678 0.0908788 0.000702208
0 0.999676 0.15398 10.0905
0 0.999684 0.0908731 0.000197212
0 0.999684 0.0908732 0.000135665
0 0.999684 0.0908734 0.00029752
0 0.999684 0.0908736 0.000248764
0 0.999684 0.0908735 0.000181714
0 0.999684 0.0908753 0.000424791
0 0.999683 0.0908755 0.000442855
0 0.999682 0.0908741 0.000300426
0 0.999681 0.152765 10.163
0 0.999683 0.0908742 0.000319813
0 0.999683 0.0908757 0.000341121
0 0.999681 0.0908762 0.00021036
0 0.99968 0.090876 0.000204887
0 0.999679 0.153081 10.0358
0 0.999684 0.0908747 0.000247504
0 0.999684 0.090875 0.00031329
0 0.999685 0.0908758 0.000272693
0 0.999685 0.0908781 0.000540566
0 0.999684 0.0908784 0.000467874
0 0.999683 0.090879 0.00032604
0 0.999682 0.153197 10.348
0 0.999684 0.0908764 0.000411986
0 0.999683 0.090877 0.000316917
0 0.999681 0.0908759 0.000151874
0 0.99968 0.152654 9.98979
0 0.999685 0.0908794 0.000567311
0 0.999686 0.0908799 0.000564828
0 0.999686 0.0908807 0.000607551
0 0.999686 0.0908826 0.000743835
0 0.999686 0.0908832 0.000718998
0 0.999685 0.0908841 0.000146584
0 0.999683 0.152504 8.84804
0 0.999685 0.0908796 0.000592227
0 0.999683 0.0908776 0.00010045
0 0.999682 0.153004 10
0 0.999687 0.0908845 0.000938382
0 0.999689 0.0908868 0.000999396
0 0.999689 0.0908874 0.00118686
0 0.99969 0.0908894 0.00109381
0 0.999687 0.151363 9.7764
0 0.999687 0.0908828 0.00108153
0 0.999684 0.152938 9.94038
0 0.999692 0.0908935 0.00136569
0 0.999694 0.0908952 0.0012263
0 0.999694 0.151933 9.6269
0 0.999691 0.153055 9.87326
0 0.999697 0.152256 9.19596
VECTORS fa_u float
0.000309266 0.000128043 0
0.000291584 0.000168438 0
0.000323936 8.66911e-05 0
0.000294778 3.89448e-05 0
2.26908e-08 4.51511e-09 0
0.0002392 0.000183216 0
0.000199042 0.000199311 0
1.32135e-08 3.57614e-08 0
3.80893e-08 9.027e-08 0
0.000205256 0.000269195 0
0.000165208 0.000287013 0
0.000316655 -2.25013e-07 0
0.000327525 -4.35973e-05 0
6.82361e-08 -1.82252e-08 0
4.88482e-08 5.34397e-08 0
4.70108e-08 1.04433e-08 0
3.407e-08 2.53327e-08 0
1.0165e-07 2.47052e-08 0
6.99054e-08 -1.28781e-08 0
4.25118e-08 5.01635e-08 0
6.16367e-08 4.67055e-08 0
0.000124785 0.000302833 0
0.000106856 0.000400778 0
4.88102e-08 -1.84232e-08 0
3.65564e-08 -1.43504e-08 0
2.18418e-08 1.29793e-09 0
0.000311872 -8.35e-05 0
2.57837e-08 1.45719e-08 0
0.000301743 -0.000125169 0
4.89413e-08 1.27042e-08 0
3.95163e-08 1.56871e-08 0
3.71328e-08 1.06202e-08 0
4.27762e-05 0.000322432 0
3.19747e-08 1.69777e-08 0
3.62971e-08 3.00228e-08 0
7.25329e-08 1.88994e-08 0
5.93233e-08 -5.56625e-09 0
4.17722e-08 3.36652e-08 0
5.46781e-08 2.93976e-08 0
1.77502e-08 -9.03043e-09 0
-1.4817e-08 -3.83335e-09 0
3.98231e-08 -2.20903e-08 0
2.04813e-08 -2.94911e-08 0
7.14341e-07 0.000336123 0
2.61302e-08 7.57854e-09 0
9.0573e-09 4.54787e-09 0
2.02523e-08 3.45259e-09 0
0.000282386 -0.000163141 0
5.11561e-09 1.57265e-09 0
0.000261373 -0.000200281 0
3.15273e-08 7.85867e-09 0
2.81431e-08 7.12567e-09 0
1.86275e-08 6.66211e-09 0
-2.55995e-08 -5.57345e-09 0
-4.26303e-08 -8.10223e-11 0
2.18655e-08 1.35319e-08 0
4.71948e-08 9.37901e-09 0
3.77881e-08 -1.08087e-08 0
2.76728e-08 1.3488e-08 0
-5.20484e-09 -2.81268e-08 0
-2.43615e-08 -2.39119e-08 0
1.90855e-08 -2.48974e-08 0
1.89541e-09 -3.51094e-08 0
-3.53193e-05 0.00027005 0
1.85123e-08 1.94748e-09 0
1.24973e-08 -1.21755e-09 0
1.49808e-08 -1.90334e-09 0
4.21397e-09 4.4385e-09 0
1.04158e-08 -1.11555e-09 0
0.000200535 -0.000200843 0
1.41222e-08 1.04998e-08 0
0.000196737 -0.000257456 0
1.30194e-08 5.13385e-09 0
1.45997e-08 2.46517e-09 0
1.09835e-08 2.34108e-09 0
-3.29057e-08 -1.08001e-08 0
-1.7225e-08 1.31346e-08 0
-2.99177e-08 -2.28201e-09 0
1.38037e-08 5.85852e-09 0
8.82986e-09 3.43754e-09 0
1.99716e-08 -2.33666e-09 0
1.26327e-08 2.61987e-09 0
-1.43408e-08 -2.96247e-08 0
-2.46765e-08 -2.15001e-08 0
8.65827e-10 -1.66629e-08 0
-0.000103609 0.000386333 0
9.23652e-09 -1.0251e-09 0
1.17843e-08 -3.93313e-09 0
1.36412e-08 6.67473e-09 0
1.27344e-08 -1.21377e-09 0
3.87006e-08 6.50988e-08 0
1.63937e-08 3.28658e-08 0
0.000147662 -0.000256148 0
5.93557e-10 1.51112e-07 0
7.21668e-09 1.82664e-09 0
8.45634e-09 -4.77781e-10 0
6.75968e-09 -2.27598e-10 0
5.60716e-09 -6.0282e-10 0
0.000119784 -0.000290399 0
-1.14005e-08 2.10748e-09 0
-2.66367e-08 -1.07269e-08 0
-2.04451e-08 1.50217e-09 0
-2.47066e-08 -1.89147e-09 0
2.83876e-09 1.26629e-09 0
6.11393e-09 2.42557e-09 0
5.48995e-09 -2.51879e-09 0
3.73886e-09 2.54503e-10 0
-1.46279e-08 -1.41765e-08 0
-5.44308e-09 -6.27389e-09 0
-0.000122305 0.000297085 0
7.16141e-09 4.84912e-10 0
1.11092e-08 1.03541e-08 0
7.47709e-11 7.1614e-08 0
5.03628e-09 3.2611e-08 0
-1.52498e-07 3.54418e-08 0
-4.35646e-08 5.81124e-08 0
-9.42753e-08 -1.10997e-07 0
1.61569e-10 7.00531e-11 0
-1.52038e-09 1.04754e-09 0
2.55533e-09 -5.64936e-10 0
4.55599e-09 -1.56074e-09 0
2.58665e-09 1.97122e-09 0
3.223e-09 -1.22362e-09 0
-7.58561e-10 -5.53356e-10 0
9.8031e-05 -0.00036663 0
-8.0974e-09 -7.57808e-09 0
-1.74571e-08 -1.00861e-10 0
-1.9796e-08 -3.48492e-09 0
-2.13363e-08 2.23421e-09 0
-1.08041e-09 1.28543e-09 0
-3.01999e-09 -1.13207e-09 0
-1.35695e-08 -4.19861e-09 0
-8.32926e-09 -1.76789e-09 0
1.13079e-09 -9.56958e-09 0
-0.000164047 0.000284793 0
1.13154e-09 1.08116e-08 0
-1.1839e-08 3.58307e-08 0
-6.29187e-08 -3.33198e-09 0
-3.00568e-08 2.50007e-08 0
5.73298e-08 -8.81869e-08 0
-2.06455e-08 -4.21117e-08 0
-4.59049e-10 2.91167e-09 0
-4.74339e-09 2.20684e-09 0
-3.40138e-09 8.35607e-10 0
9.6398e-10 -1.35368e-09 0
1.00519e-09 -3.85049e-10 0
-5.29934e-10 3.26725e-10 0
-1.29113e-09 -9.89713e-10 0
-3.26234e-09 4.40206e-10 0
3.18442e-08 -2.72928e-08 0
4.18695e-05 -0.000316513 0
-1.6252e-08 1.17093e-09 0
-1.19696e-08 1.77012e-10 0
-1.84543e-08 5.09363e-09 0
-1.85158e-08 3.43304e-09 0
-1.81262e-09 5.52211e-09 0
-6.81774e-09 1.56233e-09 0
-1.21517e-08 1.90548e-09 0
-7.83246e-09 3.25594e-09 0
-1.45665e-08 6.08716e-09 0
1.52568e-08 -1.93429e-09 0
-0.000166802 0.000217308 0
-7.96594e-09 8.99161e-09 0
-2.11127e-08 -9.57468e-10 0
1.37571e-08 -3.67983e-08 0
-6.15458e-09 -1.75524e-08 0
1.61998e-08 -9.98998e-09 0
-2.54074e-09 8.85373e-10 0
-5.90722e-09 2.62146e-09 0
-6.89568e-10 -1.05956e-09 0
-1.40317e-09 -5.10801e-10 0
-2.21187e-09 -4.73125e-10 0
-4.32321e-09 1.95681e-09 0
3.45614e-08 5.40451e-09 0
1.74503e-07 -0.000322388 0
-1.44501e-08 6.86081e-09 0
-1.16708e-08 9.35363e-09 0
-1.56734e-08 9.01863e-09 0
1.32212e-08 9.72451e-09 0
-2.77962e-09 1.18098e-08 0
-9.84417e-09 3.88345e-09 0
-1.24001e-08 6.1459e-09 0
-8.69625e-09 4.63222e-09 0
-1.22531e-08 8.95774e-09 0
-1.1899e-08 1.0394e-08 0
2.71231e-08 6.47343e-09 0
2.5746e-08 9.79867e-09 0
-0.000229107 0.000228421 0
-4.33879e-09 -2.51436e-09 0
3.11422e-09 -1.04175e-08 0
5.98152e-09 4.14873e-09 0
4.47866e-09 -1.84919e-09 0
-2.11229e-09 -8.89874e-10 0
-1.78316e-09 -1.20129e-09 0
-6.92601e-09 5.01393e-09 0
-1.70737e-09 -1.01036e-09 0
-2.53161e-09 1.29706e-10 0
-5.54146e-09 4.2911e-09 0
-3.81446e-09 1.7493e-09 0
-4.53723e-09 6.41066e-09 0
-1.27487e-08 1.64424e-08 0
-4.23257e-05 -0.000322219 0
-8.2081e-09 1.08745e-08 0
4.64549e-09 1.07381e-08 0
1.36839e-08 3.42178e-09 0
-7.56034e-09 1.12455e-08 0
-9.13669e-09 6.87678e-09 0
-9.90761e-09 1.03912e-08 0
2.71246e-08 -8.61512e-09 0
5.59759e-08 8.7538e-09 0
-0.000251878 0.000192397 0
-6.58173e-10 -1.37163e-09 0
-2.49118e-10 2.63463e-09 0
-4.77631e-09 2.40401e-09 0
-1.95945e-09 -1.48294e-09 0
-2.14246e-09 -1.48079e-09 0
-7.58244e-09 6.89175e-09 0
-6.85132e-09 5.83097e-09 0
-2.7325e-09 -1.74525e-10 0
-4.74076e-09 2.57034e-09 0
-7.69146e-09 1.38129e-09 0
-7.33345e-09 3.29563e-11 0
-8.40194e-05 -0.000313423 0
-1.65102e-09 8.45888e-09 0
7.32236e-09 -8.96266e-10 0
-7.05132e-09 9.64223e-09 0
-8.20156e-09 8.31883e-09 0
1.73172e-09 -2.48554e-09 0
1.43291e-08 -1.7418e-08 0
3.08792e-08 -4.73393e-08 0
-0.000342179 0.000197064 0
-2.74078e-09 -3.49429e-10 0
-7.0922e-09 -1.51595e-09 0
-2.78478e-09 -1.80097e-09 0
-2.96375e-09 -1.39105e-09 0
-7.47239e-09 7.29853e-09 0
-6.92671e-09 5.09308e-09 0
-4.10358e-09 -1.32067e-11 0
-6.02337e-09 2.23407e-09 0
-1.05998e-08 -5.43142e-09 0
-9.94793e-09 -1.13908e-09 0
-6.98186e-09 1.63497e-09 0
-0.000121929 -0.000295351 0
-4.1178e-09 6.20271e-09 0
-6.94442e-09 7.97732e-09 0
-5.83714e-09 3.20586e-09 0
-7.83149e-10 -7.46789e-09 0
2.56442e-09 -2.21966e-08 0