# vtk DataFile Version 2.0
CellBP Time: 3.6
ASCII
DATASET UNSTRUCTURED_GRID
POINTS 296 double
-9.18257 -3.77425 0
-8.6043 -4.94656 0
-9.60275 -2.53645 0
-9.85777 -1.25438 0
-8.35806 -2.81887 0
-7.87821 -6.03353 0
-7.01638 -7.01638 0
-7.9177 -3.87494 0
-7.34311 -4.86814 0
-6.03355 -7.87823 0
-4.94663 -8.60441 0
-9.94331 0.0499992 0
-9.8578 1.35438 0
-8.65817 -1.68403 0
-8.78681 -0.529655 0
-7.59019 -2.00427 0
-7.22622 -2.90667 0
-6.63807 -5.77925 0
-5.82279 -6.59733 0
-6.79073 -3.88917 0
-6.22101 -4.67624 0
-3.77426 -9.18257 0
-2.53645 -9.60271 0
-4.9068 -7.30929 0
-3.91327 -7.88676 0
-8.79327 0.643435 0
-9.60278 2.63646 0
-8.62379 1.77418 0
-9.18262 3.87428 0
-7.74481 -0.929039 0
-7.79503 0.0802594 0
-6.95302 -1.31596 0
-1.25438 -9.85779 0
-6.44191 -2.15326 0
-6.31981 -3.05633 0
-5.53693 -5.47496 0
-4.79625 -6.11591 0
-5.65942 -3.75726 0
-5.26977 -4.56191 0
-2.86636 -8.3645 0
-1.77868 -8.64083 0
-3.92842 -6.72404 0
-3.05684 -7.15313 0
0.0500013 -9.94354 0
-7.70604 1.14359 0
-8.33912 2.91561 0
-7.55244 2.11211 0
-8.60437 5.04661 0
-7.8806 3.9785 0
-7.87822 6.13354 0
-6.77917 -0.396882 0
-6.95704 0.552581 0
-5.77177 -1.00347 0
-0.590878 -8.81033 0
0.565721 -8.77152 0
-5.30346 -2.48043 0
-4.49229 -5.0961 0
-3.90279 -5.77575 0
-4.4392 -3.805 0
-2.06257 -7.56253 0
-1.13557 -7.78645 0
-2.99477 -6.10252 0
-2.3092 -6.6203 0
1.35439 -9.85783 0
-6.68995 1.42215 0
-7.17274 3.11836 0
-6.65977 2.37319 0
-7.29528 4.98903 0
-6.71862 4.00338 0
-7.01636 7.11637 0
-6.57301 5.89461 0
-6.03349 7.97817 0
-4.45338 -1.18114 0
-5.81499 0.513792 0
-4.65644 -0.0103823 0
0.00852171 -7.84875 0
1.7387 -8.6445 0
0.949042 -7.7641 0
-4.03876 -2.40653 0
-3.48576 -1.39128 0
-3.29473 -4.80567 0
-3.26607 -3.26799 0
-1.37869 -6.676 0
-0.508782 -7.02553 0
-1.97569 -5.53743 0
2.63646 -9.6028 0
-5.50773 2.03707 0
-6.09523 3.07247 0
-6.10565 4.87008 0
-5.76225 3.99184 0
-5.76182 6.71776 0
-5.45266 5.61991 0
-4.94665 8.70446 0
-4.83893 7.40528 0
-3.50171 -0.42433 0
-4.4496 1.24912 0
-3.7117 0.59211 0
-4.06245 2.31997 0
-3.77426 9.2826 0
2.86287 -8.33364 0
0.419726 -6.79606 0
2.02222 -7.52659 0
1.30621 -6.90625 0
-2.44481 -0.873866 0
-2.83856 -2.13127 0
-2.29456 -4.09766 0
-2.3258 -2.97379 0
-0.442421 -5.86165 0
-1.22281 -4.49946 0
3.87426 -9.18258 0
-4.7902 3.39208 0
-5.08845 4.59461 0
-4.64768 6.28212 0
-4.53935 5.3603 0
-3.84415 7.99422 0
-3.82718 6.84649 0
-2.78361 8.42377 0
-1.64915 -0.137908 0
-1.45035 -0.890641 0
-2.48927 0.507287 0
-3.25384 1.44425 0
-3.23927 3.31681 0
-2.91118 2.37193 0
-1.35519 0.627143 0
-2.53646 9.70279 0
3.93313 -7.88785 0
2.96488 -7.15856 0
0.954178 -5.82257 0
2.07457 -6.41623 0
-1.68307 -1.99218 0
-1.43453 -3.278 0
0.0902259 -4.74737 0
-0.566214 -3.69469 0
4.93271 -7.31965 0
5.04668 -8.60451 0
-3.7773 4.55205 0
-3.73518 5.75279 0
-2.88832 7.29075 0
-3.01005 6.35448 0
-1.66275 8.7347 0
-1.94035 7.6203 0
-2.33857 4.05201 0
-0.730774 -1.32733 0
-0.836946 -0.257641 0
-1.93633 1.68088 0
-2.12592 2.87605 0
-1.30667 3.54496 0
-0.869512 1.35091 0
-0.282383 0.456074 0
-0.533584 8.87278 0
-1.25439 9.95782 0
1.11288 -4.575 0
3.91063 -6.71816 0
2.98828 -6.09552 0
2.11808 -5.42554 0
4.78507 -6.20619 0
-0.558888 -2.47698 0
0.495147 -3.4641 0
0.0535556 -1.61058 0
1.48202 -3.68247 0
5.86795 -6.61555 0
6.13354 -7.87823 0
-2.47594 5.34905 0
-2.13072 6.53528 0
-0.904193 7.80436 0
-1.27251 6.93297 0
0.0862155 7.88148 0
-1.14456 4.49512 0
0.150329 -0.617681 0
-0.797481 2.48867 0
-0.331675 3.60102 0
0.0631095 1.51282 0
0.741481 0.473449 0
0.646873 8.87547 0
0.0500012 10.0433 0
2.38125 -4.28568 0
3.8597 -5.64122 0
3.00183 -5.21341 0
5.57461 -5.49266 0
4.69171 -5.28383 0
0.629717 -2.29352 0
1.25628 -2.95146 0
0.757547 -1.39154 0
2.16454 -3.13611 0
2.9941 -3.47696 0
6.15617 -4.79257 0
6.65662 -5.77021 0
7.11635 -7.01635 0
-1.01975 5.82105 0
-0.372671 6.88459 0
1.12281 7.77081 0
0.558059 7.08089 0
-0.000765345 4.72568 0
0.607058 3.82819 0
1.33901 -0.641938 0
0.53914 2.65126 0
0.966151 1.57505 0
1.91034 0.213883 0
1.61489 1.06511 0
2.12977 7.5849 0
1.79951 8.71385 0
1.35438 9.9578 0
3.82334 -4.35219 0
5.11741 -4.44975 0
5.84675 -3.93582 0
3.78447 -3.20146 0
1.81244 -1.88278 0
3.01949 -2.57417 0
6.78463 -3.9486 0
7.38278 -4.89768 0
7.97823 -6.03355 0
0.483426 5.88238 0
1.42842 6.74309 0
2.37478 6.67033 0
1.21013 4.55675 0
1.48834 3.39801 0
2.43604 -0.692088 0
2.82836 0.14262 0
1.78907 2.16306 0
2.61217 1.15027 0
3.07264 7.17156 0
2.90479 8.37846 0
2.63647 9.7028 0
4.91207 -3.32842 0
6.12187 -3.10927 0
4.17346 -2.27557 0
3.24484 -1.50308 0
6.73275 -2.31351 0
7.23362 -3.04319 0
7.96658 -3.91307 0
8.70445 -4.94666 0
2.02396 5.60078 0
3.08717 6.15493 0
2.36426 4.12752 0
2.4204 3.06129 0
3.52616 -0.460918 0
3.61621 0.613373 0
2.96224 2.28839 0
3.54611 1.52549 0
4.01318 5.8996 0
3.98553 6.79499 0
3.97434 7.94077 0
3.87429 9.28264 0
5.56994 -1.91653 0
4.50997 -1.12978 0
6.71566 -1.33644 0
7.59461 -2.03696 0
8.39943 -2.86212 0
9.2826 -3.77428 0
3.41987 4.87808 0
3.3396 3.38598 0
4.69211 0.130099 0
4.52001 1.31021 0
4.06608 2.44426 0
4.57198 5.15405 0
4.84528 6.19282 0
4.98202 7.38278 0
5.04667 8.70447 0
5.88495 -0.435004 0
7.01312 -0.488391 0
7.76211 -1.08563 0
8.68761 -1.74648 0
9.70281 -2.53647 0
4.55368 3.82861 0
5.81939 1.09889 0
5.37279 2.53565 0
5.3821 4.62232 0
5.61431 5.52565 0
5.89935 6.67434 0
6.13354 7.97822 0
6.84862 0.463702 0
7.85636 -0.0256463 0
8.86366 -0.584548 0
9.95779 -1.25439 0
6.96328 1.34998 0
5.72336 3.77995 0
6.54409 2.19837 0
6.38288 3.08927 0
6.29515 4.68899 0
6.69581 5.8402 0
7.11635 7.11634 0
7.78765 0.968013 0
8.86301 0.572976 0
10.0433 0.0500026 0
7.61956 2.00517 0
6.83226 3.90602 0
7.27283 2.94811 0
7.38147 4.88785 0
7.97828 6.13358 0
8.72661 1.72762 0
9.95782 1.35439 0
8.42453 2.83896 0
7.98502 3.91796 0
8.70448 5.04667 0
9.70284 2.63647 0
9.28263 3.87428 0
CELLS 542 2168
3 2 0 4
3 0 1 7
3 4 0 7
3 1 5 8
3 7 1 8
3 3 2 13
3 13 2 4
3 11 3 14
3 14 3 13
3 13 4 15
3 4 7 16
3 15 4 16
3 5 6 17
3 8 5 17
3 6 9 18
3 17 6 18
3 7 8 19
3 16 7 19
3 8 17 20
3 19 8 20
3 9 10 23
3 18 9 23
3 10 21 24
3 23 10 24
3 12 11 25
3 25 11 14
3 26 12 27
3 27 12 25
3 14 13 29
3 29 13 15
3 25 14 30
3 30 14 29
3 29 15 31
3 15 16 33
3 31 15 33
3 16 19 34
3 33 16 34
3 17 18 35
3 20 17 35
3 18 23 36
3 35 18 36
3 19 20 37
3 34 19 37
3 20 35 38
3 37 20 38
3 21 22 39
3 24 21 39
3 22 32 40
3 39 22 40
3 23 24 41
3 36 23 41
3 24 39 42
3 41 24 42
3 27 25 44
3 44 25 30
3 28 26 45
3 45 26 27
3 45 27 46
3 46 27 44
3 47 28 48
3 48 28 45
3 30 29 50
3 50 29 31
3 44 30 51
3 51 30 50
3 50 31 52
3 31 33 52
3 32 43 53
3 40 32 53
3 53 43 54
3 33 34 55
3 34 37 55
3 33 55 52
3 35 36 56
3 38 35 56
3 36 41 57
3 56 36 57
3 37 38 58
3 38 56 58
3 37 58 55
3 39 40 59
3 42 39 59
3 40 53 60
3 59 40 60
3 41 42 61
3 57 41 61
3 42 59 62
3 61 42 62
3 43 63 54
3 46 44 64
3 64 44 51
3 48 45 65
3 65 45 46
3 65 46 66
3 66 46 64
3 49 47 67
3 67 47 48
3 67 48 68
3 68 48 65
3 69 49 70
3 70 49 67
3 52 55 72
3 64 51 73
3 51 50 73
3 50 52 73
3 73 52 74
3 74 52 72
3 53 54 75
3 60 53 75
3 54 63 76
3 54 76 77
3 75 54 77
3 55 58 78
3 72 55 78
3 72 78 79
3 56 57 80
3 57 61 80
3 56 80 58
3 58 80 81
3 78 58 81
3 59 60 82
3 62 59 82
3 60 75 83
3 82 60 83
3 61 62 84
3 62 82 84
3 61 84 80
3 63 85 76
3 66 64 86
3 64 73 86
3 68 65 87
3 87 65 66
3 87 66 86
3 70 67 88
3 88 67 68
3 88 68 89
3 89 68 87
3 71 69 90
3 90 69 70
3 90 70 91
3 91 70 88
3 92 71 93
3 93 71 90
3 74 72 94
3 94 72 79
3 86 73 95
3 95 73 74
3 95 74 96
3 96 74 94
3 97 86 95
3 76 85 99
3 75 77 100
3 83 75 100
3 76 99 101
3 77 76 101
3 77 101 102
3 100 77 102
3 94 79 103
3 78 81 104
3 79 78 104
3 79 104 103
3 80 84 105
3 81 80 105
3 81 105 106
3 104 81 106
3 82 83 107
3 83 100 107
3 82 107 84
3 84 107 108
3 105 84 108
3 85 109 99
3 89 87 110
3 87 86 110
3 110 86 97
3 91 88 111
3 111 88 89
3 111 89 110
3 93 90 112
3 112 90 91
3 112 91 113
3 113 91 111
3 98 92 114
3 114 92 93
3 114 93 115
3 115 93 112
3 116 98 114
3 117 103 118
3 96 94 119
3 94 103 119
3 119 103 117
3 97 95 120
3 120 95 96
3 120 96 119
3 121 110 97
3 121 97 122
3 122 97 120
3 123 119 117
3 124 98 116
3 99 109 125
3 99 125 126
3 101 99 126
3 100 102 127
3 100 127 107
3 101 126 128
3 102 101 128
3 102 128 127
3 104 106 129
3 104 129 103
3 103 129 118
3 105 108 130
3 106 105 130
3 106 130 129
3 107 127 131
3 108 107 131
3 108 131 132
3 108 132 130
3 109 134 125
3 125 134 133
3 113 111 135
3 111 110 135
3 135 110 121
3 115 112 136
3 136 112 113
3 136 113 135
3 116 114 137
3 137 114 115
3 137 115 138
3 138 115 136
3 139 124 116
3 139 116 140
3 140 116 137
3 141 135 121
3 118 129 142
3 118 142 143
3 117 118 143
3 123 117 143
3 122 120 144
3 120 119 144
3 144 119 123
3 141 121 145
3 145 121 122
3 145 122 144
3 146 141 145
3 147 144 123
3 147 123 148
3 143 148 123
3 150 124 139
3 149 150 139
3 131 127 151
3 125 133 152
3 126 125 152
3 126 152 153
3 128 126 153
3 128 153 154
3 128 154 127
3 127 154 151
3 152 133 155
3 130 132 156
3 130 156 129
3 129 156 142
3 131 151 157
3 132 131 157
3 132 157 156
3 156 158 142
3 157 151 159
3 133 160 155
3 134 161 133
3 133 161 160
3 138 136 162
3 136 135 162
3 162 135 141
3 140 137 163
3 163 137 138
3 163 138 162
3 149 139 164
3 164 139 140
3 164 140 165
3 165 140 163
3 166 149 164
3 167 162 141
3 167 141 146
3 142 158 168
3 143 142 168
3 143 168 148
3 146 145 169
3 145 144 169
3 169 144 147
3 170 167 146
3 170 146 169
3 171 169 147
3 171 147 148
3 171 148 172
3 168 172 148
3 173 149 166
3 174 150 149
3 173 174 149
3 154 175 151
3 151 175 159
3 152 155 176
3 153 152 176
3 153 176 177
3 153 177 154
3 154 177 175
3 155 160 178
3 155 178 179
3 176 155 179
3 156 157 180
3 156 180 158
3 157 159 181
3 157 181 180
3 158 180 182
3 158 182 168
3 159 175 183
3 159 183 181
3 175 184 183
3 160 186 178
3 178 186 185
3 161 187 160
3 160 187 186
3 165 163 188
3 163 162 188
3 188 162 167
3 166 164 189
3 189 164 165
3 189 165 188
3 190 173 166
3 190 166 191
3 191 166 189
3 192 188 167
3 192 167 170
3 193 192 170
3 182 194 168
3 194 172 168
3 193 170 195
3 170 169 195
3 195 169 171
3 196 195 171
3 196 171 172
3 194 197 172
3 197 198 172
3 198 196 172
3 200 173 190
3 199 200 190
3 201 174 173
3 200 201 173
3 176 179 202
3 177 176 202
3 177 202 175
3 175 202 184
3 178 185 203
3 178 203 179
3 179 203 202
3 203 185 204
3 202 205 184
3 183 206 181
3 180 181 206
3 180 206 182
3 182 206 194
3 183 184 207
3 205 207 184
3 183 207 206
3 185 208 204
3 186 209 185
3 185 209 208
3 187 210 186
3 186 210 209
3 191 189 211
3 189 188 211
3 211 188 192
3 199 190 212
3 212 190 191
3 212 191 211
3 213 199 212
3 214 211 192
3 214 192 193
3 215 214 193
3 215 193 195
3 206 216 194
3 216 197 194
3 216 217 197
3 215 195 218
3 218 195 196
3 198 218 196
3 217 219 197
3 219 218 198
3 197 219 198
3 220 199 213
3 221 200 199
3 220 221 199
3 222 201 200
3 221 222 200
3 203 204 223
3 203 223 202
3 202 223 205
3 204 208 224
3 204 224 223
3 205 223 225
3 205 225 207
3 207 225 226
3 207 226 206
3 226 216 206
3 208 228 224
3 224 228 227
3 209 229 208
3 229 228 208
3 210 230 209
3 209 230 229
3 213 212 231
3 212 211 231
3 231 211 214
3 232 220 213
3 232 213 231
3 233 231 214
3 233 214 215
3 234 233 215
3 234 215 218
3 226 235 216
3 235 217 216
3 235 236 217
3 217 236 219
3 237 234 218
3 237 218 219
3 236 238 219
3 238 237 219
3 240 220 232
3 239 240 232
3 241 221 220
3 240 241 220
3 242 222 221
3 241 242 221
3 224 227 243
3 224 243 223
3 223 243 225
3 225 243 244
3 225 244 226
3 226 244 235
3 227 245 243
3 228 246 227
3 227 246 245
3 229 247 228
3 228 247 246
3 230 248 229
3 229 248 247
3 239 232 249
3 232 231 249
3 249 231 233
3 250 249 233
3 250 233 234
3 237 250 234
3 244 251 235
3 235 251 236
3 251 252 236
3 236 252 238
3 252 253 238
3 253 250 237
3 253 237 238
3 254 239 249
3 255 240 239
3 254 255 239
3 256 241 240
3 255 256 240
3 257 242 241
3 256 257 241
3 245 258 243
3 243 258 244
3 244 258 251
3 245 259 258
3 246 260 245
3 245 260 259
3 247 261 246
3 246 261 260
3 248 262 247
3 247 262 261
3 254 249 263
3 263 249 250
3 253 263 250
3 258 264 251
3 251 264 252
3 264 265 252
3 265 263 253
3 252 265 253
3 266 254 263
3 267 255 254
3 266 267 254
3 268 256 255
3 267 268 255
3 269 257 256
3 268 269 256
3 259 270 258
3 270 264 258
3 260 271 259
3 259 271 270
3 261 272 260
3 260 272 271
3 262 273 261
3 273 272 261
3 270 274 264
3 275 266 263
3 275 263 265
3 274 276 264
3 276 265 264
3 276 277 265
3 277 275 265
3 278 267 266
3 275 278 266
3 279 268 267
3 278 279 267
3 280 269 268
3 279 280 268
3 271 281 270
3 270 281 274
3 272 282 271
3 271 282 281
3 273 283 272
3 272 283 282
3 281 284 274
3 274 284 276
3 285 278 275
3 277 285 275
3 284 286 276
3 286 285 277
3 276 286 277
3 287 279 278
3 285 287 278
3 288 280 279
3 287 288 279
3 282 289 281
3 281 289 284
3 283 290 282
3 282 290 289
3 289 291 284
3 284 291 286
3 291 292 286
3 292 287 285
3 286 292 285
3 293 288 287
3 292 293 287
3 290 294 289
3 289 294 291
3 294 295 291
3 295 293 292
3 291 295 292
CELL_TYPES 542
5
5
5
5
5
5
5
5
5
5
5
5
5
5
5
5
5
5
5
5
5
5
5
5
5
5
5
5
5
5
5
5
5
5
5
5
5
5
5
5
5
5
5
5
5
5
5
5
5
5
5
5
5
5
5
5
5
5
5
5
5
5
5
5
5
5
5
5
5
5
5
5
5
5
5
5
5
5
5
5
5
5
5
5
5
5
5
5
5
5
5
5
5
5
5
5
5
5
5
5
5
5
5
5
5
5
5
5
5
5
5
5
5
5
5
5
5
5
5
5
5
5
5
5
5
5
5
5
5
5
5
5
5
5
5
5
5
5
5
5
5
5
5
5
5
5
5
5
5
5
5
5
5
5
5
5
5
5
5
5
5
5
5
5
5
5
5
5
5
5
5
5
5
5
5
5
5
5
5
5
5
5
5
5
5
5
5
5
5
5
5
5
5
5
5
5
5
5
5
5
5
5
5
5
5
5
5
5
5
5
5
5
5
5
5
5
5
5
5
5
5
5
5
5
5
5
5
5
5
5
5
5
5
5
5
5
5
5
5
5
5
5
5
5
5
5
5
5
5
5
5
5
5
5
5
5
5
5
5
5
5
5
5
5
5
5
5
5
5
5
5
5
5
5
5
5
5
5
5
5
5
5
5
5
5
5
5
5
5
5
5
5
5
5
5
5
5
5
5
5
5
5
5
5
5
5
5
5
5
5
5
5
5
5
5
5
5
5
5
5
5
5
5
5
5
5
5
5
5
5
5
5
5
5
5
5
5
5
5
5
5
5
5
5
5
5
5
5
5
5
5
5
5
5
5
5
5
5
5
5
5
5
5
5
5
5
5
5
5
5
5
5
5
5
5
5
5
5
5
5
5
5
5
5
5
5
5
5
5
5
5
5
5
5
5
5
5
5
5
5
5
5
5
5
5
5
5
5
5
5
5
5
5
5
5
5
5
5
5
5
5
5
5
5
5
5
5
5
5
5
5
5
5
5
5
5
5
5
5
5
5
5
5
5
5
5
5
5
5
5
5
5
5
5
5
5
5
5
5
5
5
5
5
5
5
5
5
5
5
5
5
5
5
5
5
5
5
5
5
5
5
5
5
5
5
5
5
5
5
5
5
5
5
5
5
5
5
5
5
5
5
5
5
5
5
5
5
5
5
5
5
5
5
5
5
5
5
5
5
5
5
5
5
5
5
5
5
5
5
5
5
5
5
5
5
5
5
5
5
5
5
5
POINT_DATA 296
SCALARS concentrations float 4
LOOKUP_TABLE default
0 0.998646 0.226688 16.0013
0 0.99865 0.225591 19.6733
0 0.998652 0.226137 16.5918
0 0.998651 0.224984 16.4542
0 0.998651 0.0908828 0.00151866
0 0.998657 0.226244 15.5137
0 0.998659 0.22576 16.1157
0 0.998649 0.0908884 0.00145251
0 0.998655 0.0908863 0.00114893
0 0.998659 0.224865 14.7112
0 0.998669 0.22566 16.2347
0 0.998652 0.224006 15.2197
0 0.998657 0.224418 16.7691
0 0.998653 0.0908809 0.00073222
0 0.998653 0.0908824 0.00128362
0 0.998656 0.0908809 0.000930611
0 0.998655 0.090882 0.00105848
0 0.998659 0.09088 0.000684244
0 0.998659 0.090882 0.000117449
0 0.998655 0.0908819 0.000978927
0 0.998658 0.0908807 0.00070971
0 0.998669 0.227529 15.9913
0 0.998663 0.228702 16.8459
0 0.998664 0.0908856 0.00186399
0 0.998668 0.0908831 0.00205464
0 0.998656 0.090882 0.000883535
0 0.998661 0.223628 15.9133
0 0.998659 0.0908802 0.000800175
0 0.99866 0.224391 15.1401
0 0.998657 0.0908803 0.000739465
0 0.998658 0.0908801 0.000654621
0 0.99866 0.0908794 0.000551643
0 0.998662 0.225522 16.1249
0 0.998659 0.0908794 0.000641689
0 0.998659 0.09088 0.000772534
0 0.99866 0.0908798 0.000526673
0 0.998662 0.0908802 0.000772757
0 0.99866 0.0908792 0.000540513
0 0.998661 0.0908791 0.000430039
0 0.998665 0.090881 0.00137336
0 0.998662 0.0908788 0.00058435
0 0.998664 0.0908804 0.00107821
0 0.998664 0.0908799 0.00115688
0 0.998662 0.22463 16.0522
0 0.99866 0.0908795 0.000341341
0 0.998661 0.0908803 0.000995675
0 0.99866 0.0908791 0.000330748
0 0.998656 0.223234 18.6875
0 0.998658 0.0908819 0.00133823
0 0.998652 0.223094 15.7864
0 0.998661 0.0908788 0.00033567
0 0.998661 0.0908788 0.00023465
0 0.998662 0.0908777 0.000208131
0 0.998662 0.0908788 0.000600124
0 0.998663 0.0908799 0.000361531
0 0.998661 0.0908779 0.00029137
0 0.998662 0.0908787 0.000410969
0 0.998663 0.090879 0.000645695
0 0.998662 0.0908778 0.000184903
0 0.998663 0.0908788 0.00079551
0 0.998662 0.0908785 0.000589366
0 0.998663 0.0908786 0.000646845
0 0.998663 0.0908785 0.000650297
0 0.998664 0.222666 15.0114
0 0.998661 0.0908783 3.76914e-05
0 0.99866 0.0908795 0.000498736
0 0.998661 0.0908784 0.000101449
0 0.998655 0.0908818 0.00115807
0 0.998658 0.0908796 0.00040461
0 0.99865 0.222577 14.5387
0 0.998653 0.0908814 0.00046386
0 0.998651 0.222317 18.1232
0 0.998663 0.0908772 8.82264e-05
0 0.998662 0.0908775 7.65141e-05
0 0.998663 0.0908772 6.26046e-05
0 0.998663 0.0908788 0.000706391
0 0.998667 0.0908828 0.00152783
0 0.998664 0.0908795 0.00103206
0 0.998662 0.0908773 7.15802e-05
0 0.998663 0.0908771 1.22925e-05
0 0.998662 0.0908776 0.000253315
0 0.998663 0.0908772 8.20401e-05
0 0.998662 0.0908779 0.000446137
0 0.998662 0.090878 0.0005292
0 0.998663 0.0908774 0.000283806
0 0.998669 0.223156 15.1011
0 0.998662 0.0908774 4.70579e-05
0 0.998661 0.0908783 0.000101531
0 0.998657 0.0908799 0.000227663
0 0.99866 0.0908787 0.00017158
0 0.998652 0.0908837 0.000541865
0 0.998656 0.0908798 0.000427266
0 0.998655 0.222904 16.062
0 0.998654 0.0908826 0.000765979
0 0.998663 0.090877 2.21761e-05
0 0.998663 0.0908772 3.2237e-05
0 0.998663 0.090877 1.51639e-05
0 0.998663 0.0908771 4.31609e-05
0 0.998659 0.223618 16.334
0 0.998667 0.0908825 0.00156778
0 0.998663 0.0908782 0.000708312
0 0.998665 0.0908795 0.00113217
0 0.998664 0.0908786 0.000967439
0 0.998663 0.0908768 3.81352e-05
0 0.998663 0.090877 2.8375e-05
0 0.998663 0.0908772 0.000150853
0 0.998663 0.0908771 7.93792e-05
0 0.998663 0.0908773 0.000331577
0 0.998663 0.0908771 0.000193955
0 0.998662 0.222763 16.6821
0 0.998662 0.0908774 0.000117895
0 0.99866 0.0908785 0.000293839
0 0.998657 0.0908798 0.000577621
0 0.99866 0.0908788 0.000420853
0 0.998659 0.0908805 0.000575614
0 0.998659 0.0908799 0.000623443
0 0.998661 0.0908832 0.000571244
0 0.998664 0.0908767 5.77713e-05
0 0.998663 0.0908766 5.35177e-05
0 0.998664 0.0908767 4.40541e-05
0 0.998663 0.090877 2.74758e-05
0 0.998663 0.090877 0.000125297
0 0.998663 0.090877 7.20247e-05
0 0.998664 0.0908766 7.23873e-05
0 0.99866 0.222759 15.0483
0 0.99866 0.090884 0.000868122
0 0.998664 0.0908797 0.000919559
0 0.998663 0.0908775 0.000557754
0 0.998664 0.0908785 0.000966313
0 0.998663 0.0908768 5.27678e-05
0 0.998663 0.0908769 0.000113136
0 0.998663 0.0908771 0.000268354
0 0.998663 0.0908769 0.000155475
0 0.998664 0.0908876 0.00194187
0 0.998657 0.22126 13.6709
0 0.998662 0.0908774 0.00021547
0 0.998661 0.0908786 0.000419773
0 0.998662 0.0908805 0.000482487
0 0.998662 0.090879 0.000480931
0 0.998663 0.0908854 0.000908454
0 0.998664 0.0908817 0.000383101
0 0.998663 0.0908771 0.00024561
0 0.998663 0.0908766 4.02593e-05
0 0.998664 0.0908765 4.95487e-05
0 0.998664 0.0908767 8.1384e-05
0 0.998664 0.0908769 0.0001509
0 0.998664 0.090877 0.000256515
0 0.998664 0.0908765 0.000102916
0 0.998664 0.0908764 7.56797e-05
0 0.998663 0.0908866 0.00163696
0 0.998663 0.223807 14.7936
0 0.998663 0.0908771 0.000349556
0 0.998664 0.0908798 0.000875102
0 0.998664 0.0908787 0.000995446
0 0.998663 0.0908776 0.000648037
0 0.998666 0.0908812 0.00148567
0 0.998663 0.0908767 8.35982e-05
0 0.998663 0.0908769 0.000185543
0 0.998663 0.0908766 3.46742e-05
0 0.998663 0.0908771 0.000294059
0 0.998673 0.0908852 0.002579
0 0.998671 0.22258 15.6942
0 0.998663 0.0908776 0.000344344
0 0.998664 0.0908793 0.000502553
0 0.998665 0.0908825 1.68986e-05
0 0.998665 0.0908803 0.000503739
0 0.998665 0.090882 0.000144821
0 0.998664 0.0908772 0.000336722
0 0.998663 0.0908764 3.01856e-05
0 0.998664 0.0908767 0.000167294
0 0.998664 0.090877 0.000301638
0 0.998664 0.0908765 0.000133173
0 0.998663 0.0908764 8.97799e-05
0 0.998661 0.0908844 0.00153378
0 0.998659 0.221628 14.5181
0 0.998663 0.0908772 0.000397525
0 0.998664 0.0908789 0.00103198
0 0.998663 0.0908779 0.000725763
0 0.998667 0.0908812 0.00176187
0 0.998665 0.0908793 0.00114114
0 0.998663 0.0908766 8.18153e-05
0 0.998663 0.0908768 0.00014621
0 0.998663 0.0908765 2.66407e-05
0 0.998663 0.090877 0.000226237
0 0.998663 0.0908773 0.000350118
0 0.998665 0.0908804 0.00137453
0 0.99867 0.0908829 0.00231087
0 0.998675 0.221573 15.6301
0 0.998665 0.090878 0.000433774
0 0.998665 0.0908799 0.000461531
0 0.998664 0.0908803 0.000117714
0 0.998665 0.0908797 0.000394095
0 0.998664 0.0908772 0.000362012
0 0.998664 0.0908771 0.000345044
0 0.998663 0.0908764 4.82847e-05
0 0.998664 0.0908767 0.000220599
0 0.998664 0.0908765 0.000164473
0 0.998663 0.0908766 0.0001197
0 0.998663 0.0908766 0.00016079
0 0.998664 0.0908789 0.000330658
0 0.998663 0.0908793 0.000465555
0 0.998661 0.222914 16.2971
0 0.998663 0.0908777 0.000577498
0 0.998664 0.0908789 0.000902821
0 0.998663 0.0908789 0.000703639
0 0.998663 0.0908773 0.000313237
0 0.998663 0.0908766 7.19805e-05
0 0.998663 0.090877 0.0001634
0 0.998662 0.0908792 0.000737129
0 0.998664 0.0908799 0.00112087
0 0.998668 0.222298 15.737
0 0.998665 0.0908778 0.000390262
0 0.998664 0.0908786 0.000405762
0 0.998664 0.0908784 0.000415751
0 0.998664 0.0908772 0.000343918
0 0.998664 0.090877 0.000312488
0 0.998663 0.0908767 9.51022e-05
0 0.998663 0.0908768 0.000177314
0 0.998663 0.0908767 0.000223938
0 0.998663 0.0908768 0.00021204
0 0.998662 0.0908786 0.000299917
0 0.998662 0.0908792 0.000509413
0 0.998663 0.221405 15.9131
0 0.998662 0.0908777 0.00034457
0 0.998662 0.0908781 0.000296035
0 0.998662 0.0908771 0.000154454
0 0.998663 0.0908769 0.000107436
0 0.998661 0.090878 0.000105119
0 0.99866 0.0908786 0.000340811
0 0.998661 0.090879 0.000649396
0 0.998662 0.224121 15.7774
0 0.998664 0.0908774 0.000325557
0 0.998663 0.090878 0.000353612
0 0.998664 0.0908771 0.000312128
0 0.998663 0.090877 0.000310888
0 0.998663 0.0908769 0.000176479
0 0.998663 0.090877 0.000253242
0 0.998663 0.090877 0.000289737
0 0.998663 0.090877 0.000300128
0 0.998663 0.0908781 0.000372443
0 0.998662 0.0908783 0.000240797
0 0.99866 0.0908791 0.000281834
0 0.99866 0.220208 15.6957
0 0.998662 0.0908773 9.88304e-05
0 0.998662 0.090877 0.000148263
0 0.998661 0.0908778 0.000145521
0 0.998659 0.0908783 3.41591e-05
0 0.998658 0.0908782 0.00017407
0 0.998659 0.22416 15.9924
0 0.998663 0.0908773 0.00030187
0 0.998663 0.0908771 0.000307614
0 0.998663 0.090877 0.000248377
0 0.998663 0.090877 0.000318224
0 0.998663 0.090877 0.000324391
0 0.998663 0.090878 0.000369811
0 0.998662 0.0908784 0.000358207
0 0.998661 0.0908786 0.000511333
0 0.998659 0.221631 15.5826
0 0.998662 0.0908773 0.000242088
0 0.998661 0.0908781 0.000351757
0 0.998659 0.0908784 0.000261569
0 0.998657 0.0908796 0.000212924
0 0.998657 0.222363 15.4711
0 0.998663 0.0908773 0.000347006
0 0.998663 0.0908773 0.000448398
0 0.998663 0.0908773 0.000465593
0 0.998663 0.0908783 0.000376985
0 0.998662 0.0908791 0.000217669
0 0.998662 0.0908786 0.000504369
0 0.998662 0.222626 15.9181
0 0.998662 0.0908781 0.000581125
0 0.99866 0.0908787 0.000548978
0 0.998658 0.0908806 0.000710422
0 0.998655 0.221223 16.9979
0 0.998663 0.0908786 0.000919376
0 0.998663 0.0908782 0.000552607
0 0.998664 0.0908783 0.000929743
0 0.998664 0.0908786 0.000889252
0 0.998662 0.0908794 0.000290114
0 0.998659 0.0908824 0.00117143
0 0.99866 0.221828 15.7613
0 0.998663 0.0908794 0.000991204
0 0.99866 0.0908787 0.000300118
0 0.998658 0.222236 15.4398
0 0.998665 0.0908798 0.00128401
0 0.998664 0.0908797 0.00084213
0 0.998666 0.0908799 0.00133134
0 0.998661 0.0908833 0.00159937
0 0.998657 0.218147 14.5597
0 0.998665 0.0908837 0.00193139
0 0.998661 0.221853 15.8114
0 0.998669 0.0908832 0.00181735
0 0.998667 0.0908805 0.00124311
0 0.998664 0.220346 15.6668
0 0.99867 0.221835 14.3741
0 0.99867 0.221565 16.0938
VECTORS fa_u float
0.000470281 0.000195141 0
0.000541188 0.000314638 0
0.00051025 0.000135555 0
0.000518807 7.04666e-05 0
-1.57412e-08 -4.56879e-08 0
0.000392435 0.000299465 0
0.000364421 0.00036078 0
-4.62151e-08 5.67943e-10 0
-2.27843e-08 2.85908e-08 0
0.000283603 0.000372419 0
0.000256877 0.000448191 0
0.000484289 -8.61556e-07 0
0.000528826 -7.11569e-05 0
-2.10417e-08 1.00049e-08 0
-3.84303e-08 -1.38348e-08 0
-2.40144e-08 -1.73257e-08 0
-2.89589e-08 -1.71983e-08 0
-2.85309e-09 2.15848e-08 0
-3.71786e-09 -3.7977e-10 0
-3.11493e-08 5.24629e-11 0
-1.89971e-08 1.22106e-08 0
0.000195356 0.000469848 0
0.00013815 0.000517927 0
-3.12091e-08 5.0437e-08 0
3.81881e-08 5.30662e-08 0
-1.99442e-08 -1.98148e-08 0
0.000488716 -0.000132501 0
6.09688e-09 -2.47208e-08 0
0.000444741 -0.000185185 0
-2.22356e-08 -7.6958e-09 0
-1.86235e-08 -9.33027e-09 0
-1.48802e-08 -9.31104e-09 0
6.66251e-05 0.000508748 0
-1.70186e-08 -1.12819e-08 0
-2.29565e-08 -8.79039e-09 0
-8.17072e-09 1.46319e-08 0
-3.58007e-09 2.4327e-08 0
-1.71959e-08 -3.30053e-10 0
-1.09626e-08 8.18954e-09 0
3.45491e-08 2.67596e-08 0
5.51128e-09 1.77584e-08 0
7.73752e-09 3.34245e-08 0
2.09422e-08 3.02745e-08 0
1.17753e-06 0.000510779 0
-5.56228e-09 -9.32908e-09 0
2.79921e-08 -1.48394e-08 0
7.94485e-09 -6.90232e-09 0
0.0005152 -0.000296918 0
3.91846e-08 -1.66677e-08 0
0.000399179 -0.000304931 0
-9.54638e-09 -4.79066e-09 0
-6.48012e-09 -3.70907e-09 0
-5.46142e-09 -3.74611e-09 0
-3.00147e-09 1.88585e-08 0
-7.47427e-09 8.745e-09 0
-8.62821e-09 -3.39295e-09 0
-2.60159e-09 1.28156e-08 0
4.22246e-09 2.01074e-08 0
-5.28913e-09 2.57721e-09 0
1.26878e-08 2.19037e-08 0
-1.77411e-12 1.87536e-08 0
8.46678e-09 1.87605e-08 0
9.7393e-09 1.82571e-08 0
-6.3865e-05 0.000473373 0
-6.52128e-10 -1.00655e-09 0
1.55977e-08 -2.92606e-09 0
3.10158e-09 8.94883e-10 0
3.60917e-08 7.43509e-09 0
1.26711e-08 2.2802e-09 0
0.000326992 -0.000327252 0
2.70683e-09 1.45097e-08 0
0.000351309 -0.000457321 0
-2.42527e-09 -1.41397e-09 0
-2.21611e-09 -1.00821e-09 0
-1.66702e-09 -1.0906e-09 0
-1.01212e-08 2.00696e-08 0
-4.33446e-08 2.20159e-08 0
-1.8888e-08 2.68647e-08 0
-2.27552e-09 9.90996e-11 0
-1.48429e-10 -3.6189e-10 0
1.14056e-09 7.97936e-09 0
-6.38997e-10 2.5311e-09 0
2.04343e-09 1.40482e-08 0
-4.98969e-09 1.60828e-08 0
2.12978e-09 8.77596e-09 0
-0.000126129 0.000463668 0
-1.21483e-09 8.75409e-10 0
6.63835e-10 3.16178e-09 0
1.97847e-09 6.9688e-09 0
-2.88225e-09 4.63688e-09 0
-1.33644e-08 1.08941e-08 0
-1.03474e-08 8.81871e-09 0
0.000256442 -0.000442099 0
-2.38798e-08 -4.88041e-09 0
1.29714e-10 -6.93616e-10 0
-1.01051e-09 -1.76339e-10 0
7.80411e-11 -4.76161e-10 0
-1.19438e-09 -6.77951e-10 0
0.000202044 -0.000478869 0
1.01987e-08 4.8833e-08 0
-1.03631e-08 2.00147e-08 0
-1.50383e-08 3.27368e-08 0
-1.42125e-08 2.73066e-08 0
1.19805e-09 -1.92777e-10 0
5.43243e-10 7.21176e-10 0
7.76072e-10 4.73697e-09 0
8.85089e-10 2.36569e-09 0
-2.69996e-09 1.01994e-08 0
-4.80643e-11 6.17143e-09 0
-0.000199356 0.000491967 0
-3.70289e-09 6.01353e-10 0
-8.33614e-09 4.23443e-09 0
-1.80519e-08 3.45635e-09 0
-1.29825e-08 3.28423e-09 0
-1.64025e-08 -8.15056e-09 0
-1.94181e-08 -4.05965e-09 0
-2.27928e-09 1.80335e-08 0
1.665e-09 -7.79133e-10 0
1.70094e-09 8.22739e-11 0
1.01414e-09 -9.67764e-10 0
3.7226e-11 -8.73485e-10 0
-2.39988e-09 -3.18375e-09 0
-7.75666e-10 -2.15657e-09 0
1.35231e-09 -1.86459e-09 0
0.000123306 -0.000462686 0
2.75914e-08 1.33402e-09 0
-4.8063e-09 2.88629e-08 0
-7.19234e-09 1.6225e-08 0
-1.19732e-08 2.8321e-08 0
1.2042e-09 1.17011e-09 0
6.73873e-10 3.53636e-09 0
-2.48153e-09 8.17046e-09 0
-4.22871e-10 4.9291e-09 0
-5.78713e-08 -2.16548e-08 0
-0.000218877 0.000375932 0
-6.16989e-09 -2.99008e-09 0
-1.29974e-08 -3.0791e-09 0
-1.43741e-08 -5.39351e-09 0
-1.26221e-08 -8.65275e-09 0
-2.77204e-08 8.19691e-09 0
-1.03937e-08 -6.36966e-09 0
-3.21253e-09 -7.12449e-09 0
1.11089e-09 6.37979e-10 0
1.30595e-09 -8.83341e-10 0
3.43358e-10 -2.56677e-09 0
-1.12946e-09 -4.6669e-09 0
-1.55899e-09 -8.01203e-09 0
5.20538e-10 -3.23313e-09 0
5.0965e-10 -2.35357e-09 0
3.78431e-08 3.57919e-08 0
6.17922e-05 -0.000466658 0
-3.83099e-09 1.04423e-08 0
-1.76256e-08 2.15573e-08 0
-1.23766e-08 2.91569e-08 0
-7.64141e-09 1.91524e-08 0
-3.28492e-08 3.39964e-08 0
3.58267e-10 2.63585e-09 0
-1.29703e-09 5.75972e-09 0
4.02838e-10 1.02716e-09 0
-2.87175e-09 8.90536e-09 0
-5.39615e-08 6.18272e-08 0
-0.000306689 0.000394119 0
-5.68761e-09 -9.3652e-09 0
-7.61513e-09 -1.40616e-08 0
5.0578e-10 1.8254e-10 0
-3.12269e-09 -1.57218e-08 0
3.44948e-09 3.05557e-09 0
-2.82198e-09 -1.03361e-08 0
2.1708e-10 -9.35652e-10 0
-4.54162e-10 -5.30386e-09 0
-1.25069e-09 -9.51628e-09 0
-3.0529e-10 -4.22654e-09 0
-6.47501e-10 -2.78244e-09 0
-2.66874e-08 4.08618e-08 0
1.14673e-06 -0.000461963 0
-4.93723e-09 1.16459e-08 0
-1.59857e-08 2.86837e-08 0
-9.84283e-09 2.08911e-08 0
-2.75173e-08 4.88447e-08 0
-1.82381e-08 3.13984e-08 0
-4.76439e-10 2.55939e-09 0
-1.59013e-09 4.3722e-09 0
-7.20761e-10 4.46216e-10 0
-3.08257e-09 6.50546e-09 0
-4.86454e-09 1.00226e-08 0
-1.44391e-08 4.12853e-08 0
-1.44914e-08 7.20896e-08 0
-0.000350831 0.000352525 0
-2.49067e-09 -1.35761e-08 0
8.57553e-10 -1.46608e-08 0
-3.59227e-09 -1.06094e-09 0
1.32261e-09 -1.24701e-08 0
-1.77642e-09 -1.13814e-08 0
-1.64386e-09 -1.08555e-08 0
-1.17315e-09 -9.92108e-10 0
-1.26796e-09 -6.90398e-09 0
-1.35339e-09 -5.05548e-09 0
-2.31763e-09 -3.02257e-09 0
-2.30946e-09 -4.56543e-09 0
-3.13971e-11 -1.05215e-08 0
-1.36615e-08 -5.72849e-09 0
-7.13365e-05 -0.000513642 0
-7.96262e-09 1.65612e-08 0
-1.21764e-08 2.60195e-08 0
-8.1542e-09 2.08521e-08 0
-4.64389e-09 8.81923e-09 0
-1.83812e-09 1.3665e-09 0
-3.24985e-09 4.05857e-09 0
-7.48334e-09 2.22296e-08 0
-7.17216e-09 3.49375e-08 0
-0.000397336 0.000304756 0
-4.95302e-10 -1.24082e-08 0
1.0721e-10 -1.29109e-08 0
-4.88414e-10 -1.32201e-08 0
-1.75101e-09 -1.08024e-08 0
-2.56853e-09 -9.60587e-09 0
-2.7974e-09 -1.15417e-09 0
-4.37866e-09 -3.55821e-09 0
-2.90678e-09 -6.50584e-09 0
-4.31066e-09 -5.19052e-09 0
1.98936e-09 -9.33367e-09 0
1.11906e-08 -1.17268e-08 0
-0.000131609 -0.000488951 0
-4.85026e-09 9.83302e-09 0
-4.18562e-09 8.43879e-09 0
-3.99523e-09 2.86226e-09 0
-3.41855e-09 2.11087e-11 0
-2.40358e-09 2.32614e-09 0
-3.8217e-09 1.01489e-08 0
-2.72649e-09 2.04831e-08 0
-0.000434791 0.000250988 0
-1.49306e-09 -1.0251e-08 0
-2.9603e-09 -1.08555e-08 0
-3.19162e-09 -9.40509e-09 0
-4.36176e-09 -8.87891e-09 0
-4.87669e-09 -2.78429e-09 0
-6.30701e-09 -5.0155e-09 0
-5.77412e-09 -7.18728e-09 0
-7.19082e-09 -6.28457e-09 0
-6.67613e-09 -9.79171e-09 0
-4.51989e-09 -6.18698e-09 0
7.86007e-09 4.3178e-09 0
-0.000190526 -0.000461668 0
-3.06641e-09 6.97683e-10 0
-4.32511e-09 -1.8842e-09 0
-2.75626e-09 -3.7208e-09 0