# vtk DataFile Version 2.0
CellBP Time: 1.28
ASCII
DATASET UNSTRUCTURED_GRID
POINTS 296 double
-9.18653 -3.77589 0
-8.60813 -4.94877 0
-9.6069 -2.53756 0
-9.86206 -1.25495 0
-8.35806 -2.81887 0
-7.88159 -6.03612 0
-7.01941 -7.01941 0
-7.9177 -3.87494 0
-7.34311 -4.86814 0
-6.03614 -7.8816 0
-4.94875 -8.60808 0
-9.94757 0.0499996 0
-9.86207 1.35495 0
-8.65817 -1.68403 0
-8.78681 -0.529655 0
-7.59019 -2.00427 0
-7.22622 -2.90667 0
-6.63807 -5.77925 0
-5.82279 -6.59733 0
-6.79073 -3.88917 0
-6.22101 -4.67624 0
-3.7759 -9.18653 0
-2.53757 -9.6069 0
-4.9068 -7.30929 0
-3.91327 -7.88676 0
-8.79327 0.643435 0
-9.60693 2.63758 0
-8.62379 1.77418 0
-9.18656 3.87591 0
-7.74481 -0.929039 0
-7.79503 0.0802594 0
-6.95302 -1.31596 0
-1.25494 -9.86204 0
-6.44191 -2.15326 0
-6.31981 -3.05633 0
-5.53693 -5.47496 0
-4.79625 -6.11591 0
-5.65942 -3.75726 0
-5.26977 -4.56191 0
-2.86636 -8.3645 0
-1.77868 -8.64083 0
-3.92842 -6.72404 0
-3.05684 -7.15313 0
0.0500002 -9.94782 0
-7.70604 1.14359 0
-8.33912 2.91561 0
-7.55244 2.11211 0
-8.60816 5.0488 0
-7.8806 3.9785 0
-7.88162 6.13615 0
-6.77917 -0.396882 0
-6.95704 0.552581 0
-5.77177 -1.00347 0
-0.590878 -8.81033 0
0.565721 -8.77152 0
-5.30346 -2.48043 0
-4.49229 -5.0961 0
-3.90279 -5.77575 0
-4.4392 -3.805 0
-2.06257 -7.56253 0
-1.13557 -7.78645 0
-2.99477 -6.10252 0
-2.3092 -6.6203 0
1.35495 -9.86209 0
-6.68995 1.42215 0
-7.17274 3.11836 0
-6.65977 2.37319 0
-7.29528 4.98903 0
-6.71863 4.00338 0
-7.01938 7.11938 0
-6.57301 5.89461 0
-6.03615 7.98163 0
-4.45338 -1.18114 0
-5.81499 0.513792 0
-4.65644 -0.0103823 0
0.00852173 -7.84875 0
1.7387 -8.6445 0
0.949042 -7.7641 0
-4.03876 -2.40653 0
-3.48576 -1.39128 0
-3.29473 -4.80567 0
-3.26607 -3.26799 0
-1.37869 -6.676 0
-0.508782 -7.02553 0
-1.97569 -5.53743 0
2.63756 -9.60689 0
-5.50773 2.03707 0
-6.09523 3.07247 0
-6.10565 4.87008 0
-5.76225 3.99184 0
-5.76182 6.71776 0
-5.45266 5.61991 0
-4.9488 8.70819 0
-4.83893 7.40528 0
-3.50171 -0.42433 0
-4.4496 1.24912 0
-3.7117 0.59211 0
-4.06245 2.31997 0
-3.77591 9.28658 0
2.86287 -8.33364 0
0.419726 -6.79606 0
2.02222 -7.52659 0
1.30621 -6.90625 0
-2.44481 -0.873866 0
-2.83856 -2.13127 0
-2.29456 -4.09766 0
-2.3258 -2.97379 0
-0.442421 -5.86165 0
-1.22281 -4.49946 0
3.87591 -9.18658 0
-4.7902 3.39208 0
-5.08845 4.59461 0
-4.64768 6.28212 0
-4.53935 5.3603 0
-3.84415 7.99422 0
-3.82718 6.84649 0
-2.78361 8.42377 0
-1.64915 -0.137908 0
-1.45035 -0.890641 0
-2.48927 0.507287 0
-3.25384 1.44425 0
-3.23927 3.31681 0
-2.91118 2.37193 0
-1.35519 0.627143 0
-2.53756 9.70689 0
3.93313 -7.88785 0
2.96488 -7.15856 0
0.954178 -5.82257 0
2.07457 -6.41623 0
-1.68307 -1.99218 0
-1.43453 -3.278 0
0.0902259 -4.74737 0
-0.566214 -3.69469 0
4.93271 -7.31965 0
5.04882 -8.60822 0
-3.7773 4.55205 0
-3.73518 5.7528 0
-2.88832 7.29075 0
-3.01005 6.35448 0
-1.66275 8.7347 0
-1.94035 7.6203 0
-2.33857 4.05201 0
-0.730774 -1.32733 0
-0.836947 -0.257641 0
-1.93633 1.68088 0
-2.12592 2.87605 0
-1.30667 3.54496 0
-0.869512 1.35091 0
-0.282383 0.456074 0
-0.533584 8.87278 0
-1.25495 9.96206 0
1.11288 -4.575 0
3.91063 -6.71816 0
2.98828 -6.09552 0
2.11808 -5.42554 0
4.78507 -6.20619 0
-0.558888 -2.47698 0
0.495147 -3.4641 0
0.0535556 -1.61058 0
1.48202 -3.68247 0
5.86795 -6.61555 0
6.13616 -7.88164 0
-2.47594 5.34905 0
-2.13072 6.53528 0
-0.904193 7.80436 0
-1.27251 6.93297 0
0.0862155 7.88148 0
-1.14456 4.49512 0
0.150329 -0.617681 0
-0.797481 2.48867 0
-0.331675 3.60102 0
0.0631095 1.51282 0
0.741481 0.473449 0
0.646873 8.87547 0
0.0500002 10.0476 0
2.38125 -4.28568 0
3.8597 -5.64122 0
3.00183 -5.21341 0
5.57461 -5.49266 0
4.69171 -5.28383 0
0.629717 -2.29352 0
1.25628 -2.95146 0
0.757547 -1.39154 0
2.16454 -3.13611 0
2.9941 -3.47696 0
6.15617 -4.79257 0
6.65662 -5.77021 0
7.11938 -7.01938 0
-1.01975 5.82105 0
-0.372671 6.88459 0
1.12281 7.77081 0
0.558059 7.08089 0
-0.000765345 4.72568 0
0.607058 3.82819 0
1.33901 -0.641938 0
0.53914 2.65126 0
0.966151 1.57505 0
1.91034 0.213883 0
1.61489 1.06511 0
2.12977 7.5849 0
1.79951 8.71385 0
1.35495 9.96206 0
3.82334 -4.35219 0
5.11741 -4.44975 0
5.84675 -3.93582 0
3.78447 -3.20146 0
1.81244 -1.88278 0
3.01949 -2.57417 0
6.78463 -3.9486 0
7.38278 -4.89768 0
7.98163 -6.03616 0
0.483426 5.88238 0
1.42842 6.74309 0
2.37478 6.67033 0
1.21013 4.55675 0
1.48834 3.39801 0
2.43604 -0.692088 0
2.82836 0.14262 0
1.78907 2.16306 0
2.61217 1.15027 0
3.07264 7.17156 0
2.90479 8.37846 0
2.63758 9.70695 0
4.91207 -3.32842 0
6.12187 -3.10927 0
4.17346 -2.27557 0
3.24484 -1.50308 0
6.73275 -2.31351 0
7.23362 -3.04319 0
7.96658 -3.91307 0
8.70812 -4.94878 0
2.02396 5.60078 0
3.08717 6.15493 0
2.36426 4.12752 0
2.4204 3.06129 0
3.52616 -0.460918 0
3.61621 0.613373 0
2.96224 2.28839 0
3.54611 1.52549 0
4.01318 5.8996 0
3.98553 6.79499 0
3.97434 7.94077 0
3.87593 9.2866 0
5.56994 -1.91653 0
4.50997 -1.12978 0
6.71566 -1.33644 0
7.59461 -2.03696 0
8.39943 -2.86212 0
9.28657 -3.77592 0
3.41987 4.87808 0
3.3396 3.38598 0
4.69211 0.130099 0
4.52001 1.31021 0
4.06608 2.44426 0
4.57198 5.15405 0
4.84528 6.19282 0
4.98202 7.38279 0
5.04881 8.70818 0
5.88495 -0.435004 0
7.01312 -0.488391 0
7.76211 -1.08563 0
8.68761 -1.74648 0
9.70694 -2.53758 0
4.55368 3.82861 0
5.81939 1.09889 0
5.37279 2.53565 0
5.3821 4.62232 0
5.61431 5.52565 0
5.89935 6.67434 0
6.13615 7.98162 0
6.84862 0.463702 0
7.85636 -0.0256463 0
8.86366 -0.584548 0
9.96208 -1.25495 0
6.96328 1.34998 0
5.72336 3.77995 0
6.54409 2.19837 0
6.38288 3.08927 0
6.29515 4.68899 0
6.69581 5.8402 0
7.11939 7.11938 0
7.78765 0.968013 0
8.86301 0.572976 0
10.0476 0.0500004 0
7.61956 2.00517 0
6.83226 3.90602 0
7.27283 2.94811 0
7.38147 4.88785 0
7.98167 6.13618 0
8.72661 1.72762 0
9.96208 1.35495 0
8.42453 2.83896 0
7.98502 3.91796 0
8.70818 5.0488 0
9.70694 2.63757 0
9.28661 3.87593 0
CELLS 542 2168
3 2 0 4
3 0 1 7
3 4 0 7
3 1 5 8
3 7 1 8
3 3 2 13
3 13 2 4
3 11 3 14
3 14 3 13
3 13 4 15
3 4 7 16
3 15 4 16
3 5 6 17
3 8 5 17
3 6 9 18
3 17 6 18
3 7 8 19
3 16 7 19
3 8 17 20
3 19 8 20
3 9 10 23
3 18 9 23
3 10 21 24
3 23 10 24
3 12 11 25
3 25 11 14
3 26 12 27
3 27 12 25
3 14 13 29
3 29 13 15
3 25 14 30
3 30 14 29
3 29 15 31
3 15 16 33
3 31 15 33
3 16 19 34
3 33 16 34
3 17 18 35
3 20 17 35
3 18 23 36
3 35 18 36
3 19 20 37
3 34 19 37
3 20 35 38
3 37 20 38
3 21 22 39
3 24 21 39
3 22 32 40
3 39 22 40
3 23 24 41
3 36 23 41
3 24 39 42
3 41 24 42
3 27 25 44
3 44 25 30
3 28 26 45
3 45 26 27
3 45 27 46
3 46 27 44
3 47 28 48
3 48 28 45
3 30 29 50
3 50 29 31
3 44 30 51
3 51 30 50
3 50 31 52
3 31 33 52
3 32 43 53
3 40 32 53
3 53 43 54
3 33 34 55
3 34 37 55
3 33 55 52
3 35 36 56
3 38 35 56
3 36 41 57
3 56 36 57
3 37 38 58
3 38 56 58
3 37 58 55
3 39 40 59
3 42 39 59
3 40 53 60
3 59 40 60
3 41 42 61
3 57 41 61
3 42 59 62
3 61 42 62
3 43 63 54
3 46 44 64
3 64 44 51
3 48 45 65
3 65 45 46
3 65 46 66
3 66 46 64
3 49 47 67
3 67 47 48
3 67 48 68
3 68 48 65
3 69 49 70
3 70 49 67
3 52 55 72
3 64 51 73
3 51 50 73
3 50 52 73
3 73 52 74
3 74 52 72
3 53 54 75
3 60 53 75
3 54 63 76
3 54 76 77
3 75 54 77
3 55 58 78
3 72 55 78
3 72 78 79
3 56 57 80
3 57 61 80
3 56 80 58
3 58 80 81
3 78 58 81
3 59 60 82
3 62 59 82
3 60 75 83
3 82 60 83
3 61 62 84
3 62 82 84
3 61 84 80
3 63 85 76
3 66 64 86
3 64 73 86
3 68 65 87
3 87 65 66
3 87 66 86
3 70 67 88
3 88 67 68
3 88 68 89
3 89 68 87
3 71 69 90
3 90 69 70
3 90 70 91
3 91 70 88
3 92 71 93
3 93 71 90
3 74 72 94
3 94 72 79
3 86 73 95
3 95 73 74
3 95 74 96
3 96 74 94
3 97 86 95
3 76 85 99
3 75 77 100
3 83 75 100
3 76 99 101
3 77 76 101
3 77 101 102
3 100 77 102
3 94 79 103
3 78 81 104
3 79 78 104
3 79 104 103
3 80 84 105
3 81 80 105
3 81 105 106
3 104 81 106
3 82 83 107
3 83 100 107
3 82 107 84
3 84 107 108
3 105 84 108
3 85 109 99
3 89 87 110
3 87 86 110
3 110 86 97
3 91 88 111
3 111 88 89
3 111 89 110
3 93 90 112
3 112 90 91
3 112 91 113
3 113 91 111
3 98 92 114
3 114 92 93
3 114 93 115
3 115 93 112
3 116 98 114
3 117 103 118
3 96 94 119
3 94 103 119
3 119 103 117
3 97 95 120
3 120 95 96
3 120 96 119
3 121 110 97
3 121 97 122
3 122 97 120
3 123 119 117
3 124 98 116
3 99 109 125
3 99 125 126
3 101 99 126
3 100 102 127
3 100 127 107
3 101 126 128
3 102 101 128
3 102 128 127
3 104 106 129
3 104 129 103
3 103 129 118
3 105 108 130
3 106 105 130
3 106 130 129
3 107 127 131
3 108 107 131
3 108 131 132
3 108 132 130
3 109 134 125
3 125 134 133
3 113 111 135
3 111 110 135
3 135 110 121
3 115 112 136
3 136 112 113
3 136 113 135
3 116 114 137
3 137 114 115
3 137 115 138
3 138 115 136
3 139 124 116
3 139 116 140
3 140 116 137
3 141 135 121
3 118 129 142
3 118 142 143
3 117 118 143
3 123 117 143
3 122 120 144
3 120 119 144
3 144 119 123
3 141 121 145
3 145 121 122
3 145 122 144
3 146 141 145
3 147 144 123
3 147 123 148
3 143 148 123
3 150 124 139
3 149 150 139
3 131 127 151
3 125 133 152
3 126 125 152
3 126 152 153
3 128 126 153
3 128 153 154
3 128 154 127
3 127 154 151
3 152 133 155
3 130 132 156
3 130 156 129
3 129 156 142
3 131 151 157
3 132 131 157
3 132 157 156
3 156 158 142
3 157 151 159
3 133 160 155
3 134 161 133
3 133 161 160
3 138 136 162
3 136 135 162
3 162 135 141
3 140 137 163
3 163 137 138
3 163 138 162
3 149 139 164
3 164 139 140
3 164 140 165
3 165 140 163
3 166 149 164
3 167 162 141
3 167 141 146
3 142 158 168
3 143 142 168
3 143 168 148
3 146 145 169
3 145 144 169
3 169 144 147
3 170 167 146
3 170 146 169
3 171 169 147
3 171 147 148
3 171 148 172
3 168 172 148
3 173 149 166
3 174 150 149
3 173 174 149
3 154 175 151
3 151 175 159
3 152 155 176
3 153 152 176
3 153 176 177
3 153 177 154
3 154 177 175
3 155 160 178
3 155 178 179
3 176 155 179
3 156 157 180
3 156 180 158
3 157 159 181
3 157 181 180
3 158 180 182
3 158 182 168
3 159 175 183
3 159 183 181
3 175 184 183
3 160 186 178
3 178 186 185
3 161 187 160
3 160 187 186
3 165 163 188
3 163 162 188
3 188 162 167
3 166 164 189
3 189 164 165
3 189 165 188
3 190 173 166
3 190 166 191
3 191 166 189
3 192 188 167
3 192 167 170
3 193 192 170
3 182 194 168
3 194 172 168
3 193 170 195
3 170 169 195
3 195 169 171
3 196 195 171
3 196 171 172
3 194 197 172
3 197 198 172
3 198 196 172
3 200 173 190
3 199 200 190
3 201 174 173
3 200 201 173
3 176 179 202
3 177 176 202
3 177 202 175
3 175 202 184
3 178 185 203
3 178 203 179
3 179 203 202
3 203 185 204
3 202 205 184
3 183 206 181
3 180 181 206
3 180 206 182
3 182 206 194
3 183 184 207
3 205 207 184
3 183 207 206
3 185 208 204
3 186 209 185
3 185 209 208
3 187 210 186
3 186 210 209
3 191 189 211
3 189 188 211
3 211 188 192
3 199 190 212
3 212 190 191
3 212 191 211
3 213 199 212
3 214 211 192
3 214 192 193
3 215 214 193
3 215 193 195
3 206 216 194
3 216 197 194
3 216 217 197
3 215 195 218
3 218 195 196
3 198 218 196
3 217 219 197
3 219 218 198
3 197 219 198
3 220 199 213
3 221 200 199
3 220 221 199
3 222 201 200
3 221 222 200
3 203 204 223
3 203 223 202
3 202 223 205
3 204 208 224
3 204 224 223
3 205 223 225
3 205 225 207
3 207 225 226
3 207 226 206
3 226 216 206
3 208 228 224
3 224 228 227
3 209 229 208
3 229 228 208
3 210 230 209
3 209 230 229
3 213 212 231
3 212 211 231
3 231 211 214
3 232 220 213
3 232 213 231
3 233 231 214
3 233 214 215
3 234 233 215
3 234 215 218
3 226 235 216
3 235 217 216
3 235 236 217
3 217 236 219
3 237 234 218
3 237 218 219
3 236 238 219
3 238 237 219
3 240 220 232
3 239 240 232
3 241 221 220
3 240 241 220
3 242 222 221
3 241 242 221
3 224 227 243
3 224 243 223
3 223 243 225
3 225 243 244
3 225 244 226
3 226 244 235
3 227 245 243
3 228 246 227
3 227 246 245
3 229 247 228
3 228 247 246
3 230 248 229
3 229 248 247
3 239 232 249
3 232 231 249
3 249 231 233
3 250 249 233
3 250 233 234
3 237 250 234
3 244 251 235
3 235 251 236
3 251 252 236
3 236 252 238
3 252 253 238
3 253 250 237
3 253 237 238
3 254 239 249
3 255 240 239
3 254 255 239
3 256 241 240
3 255 256 240
3 257 242 241
3 256 257 241
3 245 258 243
3 243 258 244
3 244 258 251
3 245 259 258
3 246 260 245
3 245 260 259
3 247 261 246
3 246 261 260
3 248 262 247
3 247 262 261
3 254 249 263
3 263 249 250
3 253 263 250
3 258 264 251
3 251 264 252
3 264 265 252
3 265 263 253
3 252 265 253
3 266 254 263
3 267 255 254
3 266 267 254
3 268 256 255
3 267 268 255
3 269 257 256
3 268 269 256
3 259 270 258
3 270 264 258
3 260 271 259
3 259 271 270
3 261 272 260
3 260 272 271
3 262 273 261
3 273 272 261
3 270 274 264
3 275 266 263
3 275 263 265
3 274 276 264
3 276 265 264
3 276 277 265
3 277 275 265
3 278 267 266
3 275 278 266
3 279 268 267
3 278 279 267
3 280 269 268
3 279 280 268
3 271 281 270
3 270 281 274
3 272 282 271
3 271 282 281
3 273 283 272
3 272 283 282
3 281 284 274
3 274 284 276
3 285 278 275
3 277 285 275
3 284 286 276
3 286 285 277
3 276 286 277
3 287 279 278
3 285 287 278
3 288 280 279
3 287 288 279
3 282 289 281
3 281 289 284
3 283 290 282
3 282 290 289
3 289 291 284
3 284 291 286
3 291 292 286
3 292 287 285
3 286 292 285
3 293 288 287
3 292 293 287
3 290 294 289
3 289 294 291
3 294 295 291
3 295 293 292
3 291 295 292
CELL_TYPES 542
5
5
5
5
5
5
5
5
5
5
5
5
5
5
5
5
5
5
5
5
5
5
5
5
5
5
5
5
5
5
5
5
5
5
5
5
5
5
5
5
5
5
5
5
5
5
5
5
5
5
5
5
5
5
5
5
5
5
5
5
5
5
5
5
5
5
5
5
5
5
5
5
5
5
5
5
5
5
5
5
5
5
5
5
5
5
5
5
5
5
5
5
5
5
5
5
5
5
5
5
5
5
5
5
5
5
5
5
5
5
5
5
5
5
5
5
5
5
5
5
5
5
5
5
5
5
5
5
5
5
5
5
5
5
5
5
5
5
5
5
5
5
5
5
5
5
5
5
5
5
5
5
5
5
5
5
5
5
5
5
5
5
5
5
5
5
5
5
5
5
5
5
5
5
5
5
5
5
5
5
5
5
5
5
5
5
5
5
5
5
5
5
5
5
5
5
5
5
5
5
5
5
5
5
5
5
5
5
5
5
5
5
5
5
5
5
5
5
5
5
5
5
5
5
5
5
5
5
5
5
5
5
5
5
5
5
5
5
5
5
5
5
5
5
5
5
5
5
5
5
5
5
5
5
5
5
5
5
5
5
5
5
5
5
5
5
5
5
5
5
5
5
5
5
5
5
5
5
5
5
5
5
5
5
5
5
5
5
5
5
5
5
5
5
5
5
5
5
5
5
5
5
5
5
5
5
5
5
5
5
5
5
5
5
5
5
5
5
5
5
5
5
5
5
5
5
5
5
5
5
5
5
5
5
5
5
5
5
5
5
5
5
5
5
5
5
5
5
5
5
5
5
5
5
5
5
5
5
5
5
5
5
5
5
5
5
5
5
5
5
5
5
5
5
5
5
5
5
5
5
5
5
5
5
5
5
5
5
5
5
5
5
5
5
5
5
5
5
5
5
5
5
5
5
5
5
5
5
5
5
5
5
5
5
5
5
5
5
5
5
5
5
5
5
5
5
5
5
5
5
5
5
5
5
5
5
5
5
5
5
5
5
5
5
5
5
5
5
5
5
5
5
5
5
5
5
5
5
5
5
5
5
5
5
5
5
5
5
5
5
5
5
5
5
5
5
5
5
5
5
5
5
5
5
5
5
5
5
5
5
5
5
5
5
5
5
5
5
5
5
5
5
5
5
5
5
5
5
5
5
5
5
5
5
5
5
5
5
5
5
5
5
5
5
5
5
5
5
5
5
5
5
5
5
5
5
5
5
5
5
5
5
POINT_DATA 296
SCALARS concentrations float 4
LOOKUP_TABLE default
0 0.999518 0.181018 13.177
0 0.999516 0.180817 13.18
0 0.999518 0.180344 13.2488
0 0.999517 0.179635 12.2741
0 0.999518 0.0908785 0.0005804
0 0.999512 0.180345 13.2142
0 0.999511 0.179923 12.7624
0 0.999517 0.0908791 0.000664832
0 0.999515 0.0908814 0.000602339
0 0.999515 0.17999 13.0073
0 0.999519 0.179709 15.3126
0 0.999516 0.178924 13.0217
0 0.999517 0.179206 12.9013
0 0.999518 0.0908798 0.000417105
0 0.999517 0.0908802 0.000266967
0 0.999519 0.0908786 0.000482539
0 0.999518 0.0908788 0.000530804
0 0.999513 0.090882 7.68596e-05
0 0.999514 0.0908837 0.00141994
0 0.999517 0.0908797 0.000478495
0 0.999516 0.0908804 0.000323231
0 0.999518 0.181235 13.0369
0 0.99952 0.181871 12.0005
0 0.999517 0.0908872 0.00302469
0 0.999518 0.0908876 0.00292407
0 0.999517 0.090879 0.000344681
0 0.999517 0.178612 12.8017
0 0.999518 0.0908784 0.000346181
0 0.999517 0.179187 12.8981
0 0.999519 0.0908787 0.000336906
0 0.999519 0.0908787 0.000254521
0 0.999519 0.0908782 0.000395867
0 0.99952 0.179857 12.7303
0 0.999519 0.0908782 0.000391234
0 0.999519 0.0908787 0.000399218
0 0.999515 0.0908813 0.00065587
0 0.999516 0.0908827 0.00140567
0 0.999518 0.0908789 0.000310155
0 0.999517 0.0908798 0.000377044
0 0.999519 0.0908847 0.00131244
0 0.99952 0.0908828 0.0012827
0 0.999517 0.090883 0.00176751
0 0.999518 0.0908826 0.0016704
0 0.99952 0.179287 12.9563
0 0.999519 0.0908786 0.000301344
0 0.999518 0.0908783 0.000254844
0 0.999519 0.0908785 0.000358234
0 0.999518 0.17857 12.8397
0 0.999518 0.0908782 0.000258003
0 0.999518 0.178239 12.924
0 0.99952 0.0908781 0.000338308
0 0.99952 0.0908783 0.000329025
0 0.99952 0.0908775 0.000262086
0 0.99952 0.0908799 0.000709165
0 0.99952 0.0908802 0.000910964
0 0.999519 0.0908777 0.000246694
0 0.999517 0.09088 0.000622319
0 0.999517 0.0908809 0.00101534
0 0.999519 0.0908781 0.000266713
0 0.999519 0.090881 0.00127693
0 0.99952 0.0908801 0.00107856
0 0.999518 0.0908803 0.00103262
0 0.999519 0.0908802 0.00111482
0 0.99952 0.178011 11.7657
0 0.99952 0.0908781 0.000316942
0 0.999519 0.0908785 0.000343641
0 0.99952 0.0908782 0.00034219
0 0.999518 0.0908783 0.000242669
0 0.999519 0.0908784 0.00035524
0 0.999519 0.17806 12.154
0 0.999519 0.0908798 0.000455792
0 0.999519 0.178158 12.8884
0 0.99952 0.0908773 0.000203576
0 0.99952 0.0908775 0.000246883
0 0.999521 0.0908773 0.000209223
0 0.99952 0.0908797 0.000926057
0 0.99952 0.090882 0.000870502
0 0.99952 0.0908798 0.000797168
0 0.99952 0.0908774 0.000200596
0 0.999521 0.0908772 0.000173727
0 0.999519 0.0908784 0.000443123
0 0.99952 0.0908775 0.000241078
0 0.999519 0.0908791 0.00086317
0 0.99952 0.090879 0.000813224
0 0.999519 0.0908782 0.000533457
0 0.999519 0.178275 14.0281
0 0.99952 0.0908774 0.000236698
0 0.99952 0.090878 0.000336212
0 0.999519 0.0908787 0.000438425
0 0.99952 0.0908782 0.000390978
0 0.999519 0.0908799 0.000497416
0 0.99952 0.0908789 0.000443417
0 0.999518 0.178058 12.1863
0 0.999519 0.0908811 0.000341816
0 0.999521 0.0908771 0.000169545
0 0.999521 0.0908773 0.000211298
0 0.999521 0.0908771 0.000187736
0 0.999521 0.0908772 0.000205009
0 0.999518 0.178587 12.5036
0 0.999521 0.0908832 0.000335184
0 0.99952 0.090879 0.000678271
0 0.99952 0.09088 0.00056857
0 0.99952 0.0908794 0.00061234
0 0.999521 0.0908769 0.000116922
0 0.99952 0.0908772 0.000164372
0 0.99952 0.0908776 0.000301125
0 0.99952 0.0908773 0.000205604
0 0.99952 0.090878 0.000483539
0 0.99952 0.0908775 0.000318395
0 0.999523 0.178062 12.6356
0 0.99952 0.0908774 0.000250193
0 0.99952 0.0908782 0.000397514
0 0.99952 0.0908795 0.000343582
0 0.99952 0.0908786 0.000402337
0 0.999518 0.0908817 0.000311782
0 0.999519 0.0908795 0.000208931
0 0.999519 0.0908825 0.00096568
0 0.999521 0.0908768 9.59269e-05
0 0.999521 0.0908767 8.70639e-05
0 0.999521 0.0908768 0.000125003
0 0.999521 0.0908771 0.000178801
0 0.999521 0.0908771 0.000190697
0 0.999521 0.0908771 0.000185588
0 0.999521 0.0908767 8.50448e-05
0 0.999519 0.178191 13.9164
0 0.999525 0.0908877 0.00081313
0 0.999522 0.0908818 0.000657887
0 0.99952 0.0908783 0.000434002
0 0.999521 0.0908797 0.000589923
0 0.999521 0.0908769 0.000120614
0 0.99952 0.0908773 0.000209476
0 0.99952 0.0908776 0.00030274
0 0.99952 0.0908773 0.000220213
0 0.999527 0.0908886 0.000888992
0 0.999529 0.177735 11.0304
0 0.99952 0.0908774 0.000231041
0 0.99952 0.0908785 0.000300959
0 0.999519 0.0908797 0.000388583
0 0.99952 0.0908787 0.00027774
0 0.999519 0.0908817 0.000958575
0 0.999519 0.0908792 0.000552326
0 0.999521 0.0908771 0.000169128
0 0.999521 0.0908767 7.49022e-05
0 0.999521 0.0908765 4.03884e-05
0 0.999521 0.0908768 0.000121017
0 0.999521 0.090877 0.000158421
0 0.999521 0.090877 0.00015195
0 0.999521 0.0908765 7.65659e-05
0 0.999521 0.0908764 2.65206e-05
0 0.999518 0.0908787 0.000493082
0 0.999518 0.178912 12.5259
0 0.99952 0.0908777 0.000297858
0 0.999524 0.090883 0.000893784
0 0.999521 0.0908805 0.000738001
0 0.999521 0.0908786 0.000447475
0 0.999523 0.0908831 0.000951779
0 0.999521 0.0908769 0.000136487
0 0.999521 0.0908773 0.000208382
0 0.999521 0.0908767 8.94163e-05
0 0.999521 0.0908776 0.000273755
0 0.999523 0.0908843 0.00087328
0 0.999527 0.178043 12.0967
0 0.99952 0.0908775 0.000178288
0 0.999519 0.0908783 0.000294688
0 0.999518 0.0908791 0.000536454
0 0.999519 0.0908784 0.000364594
0 0.999518 0.0908787 0.000360665
0 0.99952 0.0908771 0.000153526
0 0.999521 0.0908764 3.7156e-05
0 0.999521 0.0908767 0.00010056
0 0.999521 0.090877 0.00013483
0 0.999521 0.0908764 6.41305e-05
0 0.999521 0.0908763 5.39641e-05
0 0.999517 0.0908788 0.00040437
0 0.999517 0.177928 12.7244
0 0.99952 0.0908778 0.000322133
0 0.999522 0.0908805 0.000771146
0 0.999521 0.090879 0.000537548
0 0.999521 0.0908814 0.000784647
0 0.999521 0.0908803 0.000711643
0 0.999521 0.0908769 0.000129757
0 0.999521 0.0908771 0.00017662
0 0.999521 0.0908766 0.000100328
0 0.999521 0.0908774 0.000235014
0 0.99952 0.0908778 0.000315298
0 0.999519 0.0908805 0.000554413
0 0.99952 0.0908807 0.000489263
0 0.999521 0.177312 12.6088
0 0.99952 0.0908774 0.000181475
0 0.999519 0.0908781 0.000291508
0 0.999518 0.0908784 0.000228329
0 0.999519 0.0908782 0.000251703
0 0.99952 0.0908771 0.000153711
0 0.999521 0.0908771 0.000150751
0 0.999521 0.0908765 9.39762e-05
0 0.999521 0.0908767 0.000102092
0 0.999521 0.0908765 8.84457e-05
0 0.999521 0.0908766 0.00011777
0 0.999521 0.0908766 0.000114213
0 0.999518 0.0908784 0.000236967
0 0.999517 0.0908784 0.000189155
0 0.999516 0.178091 12.6866
0 0.99952 0.0908784 0.000419533
0 0.99952 0.0908794 0.000504793
0 0.999519 0.0908793 0.000356264
0 0.99952 0.0908778 0.000281125
0 0.999521 0.0908768 0.000140401
0 0.999521 0.0908773 0.000212244
0 0.999518 0.0908799 0.000354162
0 0.999518 0.0908821 0.000522357
0 0.999518 0.177722 12.4795
0 0.99952 0.0908773 0.000167354
0 0.999519 0.090878 0.000210987
0 0.999519 0.0908783 0.000277025
0 0.99952 0.0908772 0.000169339
0 0.999521 0.090877 0.000164145
0 0.999521 0.0908768 0.000150611
0 0.999521 0.090877 0.000189313
0 0.999521 0.0908768 0.000141709
0 0.999521 0.0908768 0.000179169
0 0.999518 0.0908785 0.000326306
0 0.999517 0.0908781 0.000266611
0 0.999516 0.177114 12.794
0 0.99952 0.0908781 0.000257088
0 0.999519 0.0908787 0.000228018
0 0.99952 0.0908775 0.000212247
0 0.999521 0.0908771 0.0001786
0 0.999519 0.0908787 0.000289392
0 0.999518 0.0908797 0.000333589
0 0.999517 0.0908823 0.0003319
0 0.999517 0.178771 13.9711
0 0.99952 0.0908774 0.000195811
0 0.99952 0.0908781 0.00033691
0 0.99952 0.0908772 0.000208155
0 0.999521 0.0908771 0.000210813
0 0.999521 0.0908772 0.0002051
0 0.999521 0.0908772 0.000234443
0 0.999521 0.0908771 0.000228823
0 0.999521 0.0908771 0.000256597
0 0.99952 0.0908783 0.000485235
0 0.999519 0.0908786 0.000423545
0 0.999518 0.0908782 0.000273037
0 0.999517 0.176331 12.5399
0 0.99952 0.0908778 0.000201761
0 0.99952 0.0908774 0.000199315
0 0.999519 0.0908784 0.000350706
0 0.999518 0.0908791 0.000440173
0 0.999517 0.0908793 0.00044936
0 0.999517 0.17898 12.5974
0 0.99952 0.0908774 0.000297034
0 0.999521 0.0908772 0.000256683
0 0.99952 0.0908773 0.000224907
0 0.999521 0.0908772 0.0002563
0 0.999521 0.0908772 0.000269689
0 0.99952 0.0908782 0.000555199
0 0.99952 0.0908788 0.000624557
0 0.999518 0.0908785 0.000396768
0 0.999517 0.177337 12.6791
0 0.99952 0.0908777 0.00027157
0 0.999519 0.0908785 0.000427103
0 0.999518 0.0908788 0.000445979
0 0.999518 0.0908787 0.000453222
0 0.999517 0.177765 12.6743
0 0.99952 0.0908775 0.000365584
0 0.99952 0.0908776 0.000312748
0 0.99952 0.0908776 0.000340308
0 0.99952 0.0908785 0.000654267
0 0.99952 0.090879 0.00073248
0 0.99952 0.0908803 0.000756978
0 0.999519 0.177915 12.9142
0 0.99952 0.0908783 0.000436996
0 0.999519 0.0908787 0.000437754
0 0.999518 0.0908785 0.000361146
0 0.999518 0.177189 12.6487
0 0.99952 0.0908787 0.000491664
0 0.99952 0.0908785 0.000569683
0 0.99952 0.0908786 0.000471983
0 0.99952 0.0908789 0.00053621
0 0.99952 0.0908792 0.000741476
0 0.99952 0.09088 0.000730179
0 0.99952 0.177332 11.9979
0 0.999519 0.0908789 0.000470887
0 0.999518 0.0908787 0.000268762
0 0.999517 0.17767 12.6626
0 0.999519 0.0908795 0.000460167
0 0.999519 0.0908797 0.000593337
0 0.999519 0.0908797 0.000458892
0 0.999519 0.0908796 0.000613453
0 0.99952 0.175502 12.1975
0 0.999518 0.0908791 0.000397329
0 0.999517 0.177601 12.5615
0 0.999517 0.0908814 0.000361666
0 0.999517 0.0908824 0.000414027
0 0.999518 0.176378 13.0933
0 0.999517 0.177763 12.6736
0 0.999515 0.176994 12.2969
VECTORS fa_u float
0.000387258 0.000160734 0
0.000363164 0.000209756 0
0.000407062 0.000109662 0
0.000387193 5.1179e-05 0
1.73603e-08 6.30056e-09 0
0.000333851 0.000255623 0
0.000286935 0.000287374 0
1.99266e-08 7.10366e-09 0
1.91561e-08 6.27722e-10 0
0.000251439 0.000328762 0
0.000244276 0.000421589 0
0.000414349 -4.06494e-07 0
0.000406967 -5.38758e-05 0
1.03815e-08 8.26899e-09 0
-1.72889e-09 8.31709e-09 0
1.46989e-08 4.43844e-09 0
1.63598e-08 4.19922e-09 0
1.81159e-09 1.64299e-09 0
-1.94316e-08 4.07903e-08 0
1.46698e-08 4.07668e-09 0
8.46487e-09 5.84217e-09 0
0.000159495 0.000382945 0
9.92813e-05 0.000368721 0
5.00716e-09 9.6115e-08 0
7.02157e-08 6.10481e-08 0
2.53008e-09 -1.06719e-08 0
0.000393495 -0.000105329 0
1.10065e-08 -4.44387e-10 0
0.000379148 -0.000157124 0
1.00475e-08 3.73815e-09 0
8.09491e-09 2.52227e-10 0
1.23922e-08 2.25926e-09 0
5.32737e-05 0.000401558 0
1.21367e-08 2.77103e-09 0
1.22263e-08 3.44759e-09 0
2.12067e-09 2.07617e-08 0
6.06475e-09 4.43153e-08 0
8.60291e-09 4.83622e-09 0
6.15915e-09 1.02959e-08 0
1.56853e-08 3.87042e-08 0
2.48256e-08 3.23972e-08 0
2.01725e-08 5.24997e-08 0
2.5006e-08 4.69022e-08 0
1.51221e-07 0.000412268 0
9.26745e-09 -2.46137e-09 0
7.60073e-09 -2.82607e-09 0
1.10763e-08 -2.69305e-09 0
0.00035385 -0.00020423 0
7.22494e-09 -3.89851e-09 0
0.000326346 -0.000250232 0
1.07425e-08 6.94826e-10 0
1.04584e-08 -4.83465e-10 0
8.30805e-09 7.24005e-10 0
4.61797e-09 2.2088e-08 0
-8.25226e-10 2.89751e-08 0
7.42978e-09 2.53322e-09 0
6.05536e-09 1.88536e-08 0
1.01641e-08 3.06675e-08 0
5.32344e-09 6.60959e-09 0
1.58504e-08 3.74127e-08 0
1.09712e-08 3.25187e-08 0
1.17425e-08 3.0688e-08 0
1.26653e-08 3.31355e-08 0
-4.84477e-05 0.000371234 0
9.92103e-09 -1.81161e-09 0
9.93783e-09 -4.56131e-09 0
1.02812e-08 -3.58545e-09 0
5.17098e-09 -5.73461e-09 0
9.17214e-09 -6.60645e-09 0
0.000273402 -0.000273529 0
5.9578e-09 -1.32231e-08 0
0.000249646 -0.00032537 0
6.39813e-09 1.01269e-09 0
7.80689e-09 -8.75323e-10 0
6.64572e-09 -3.95082e-10 0
3.62973e-09 2.92426e-08 0
1.61364e-08 2.25137e-08 0
2.93925e-09 2.51949e-08 0
5.44304e-09 3.33399e-09 0
5.26646e-09 1.68019e-09 0
5.31815e-09 1.30588e-08 0
4.33568e-09 6.32829e-09 0
7.63578e-09 2.63832e-08 0
4.45618e-09 2.54901e-08 0
4.98634e-09 1.62257e-08 0
-0.0001153 0.000431224 0
7.0726e-09 -2.58941e-09 0
9.35793e-09 -5.18476e-09 0
9.87334e-09 -9.85587e-09 0
9.99032e-09 -7.41415e-09 0
1.58261e-08 2.25686e-10 0
1.14957e-08 -8.18082e-09 0
0.000193697 -0.000335924 0
5.59018e-09 9.33003e-09 0
5.38898e-09 2.52868e-10 0
6.48495e-09 -1.77496e-09 0
5.89146e-09 -9.88031e-10 0
5.86912e-09 -2.84739e-09 0
0.000151314 -0.000367966 0
-1.04825e-08 1.96715e-09 0
1.41316e-09 2.15362e-08 0
-3.99765e-09 1.76447e-08 0
-2.46443e-09 1.93281e-08 0
3.56203e-09 1.07409e-09 0
3.9892e-09 3.38265e-09 0
3.34955e-09 8.97725e-09 0
3.27663e-09 5.66264e-09 0
2.10606e-09 1.52414e-08 0
2.10885e-09 9.9094e-09 0
-0.000153498 0.000371609 0
6.72446e-09 -4.26158e-09 0
1.00412e-08 -7.69214e-09 0
1.03526e-08 -3.51416e-09 0
1.04466e-08 -7.40057e-09 0
-9.48667e-09 -2.90292e-09 0
4.78057e-09 -4.62e-09 0
-8.12067e-09 -2.96354e-08 0
3.05142e-09 7.67918e-11 0
2.34118e-09 1.48115e-09 0
3.91082e-09 -7.25749e-10 0
5.3198e-09 -2.01727e-09 0
4.92016e-09 -3.55134e-09 0
5.03652e-09 -3.08337e-09 0
2.53119e-09 -9.57155e-10 0
0.000114417 -0.000427783 0
-2.46906e-08 7.73479e-09 0
-1.50645e-08 1.45358e-08 0
-2.03921e-09 1.36585e-08 0
-8.4331e-09 1.67703e-08 0
2.09827e-09 3.21356e-09 0
1.71059e-09 6.44228e-09 0
-2.53226e-10 9.62984e-09 0
4.01544e-10 6.99564e-09 0
-1.47767e-08 2.41213e-08 0
-0.000175412 0.000304011 0
5.80705e-09 -4.50841e-09 0
7.38434e-09 -6.09761e-09 0
9.18729e-10 -1.23305e-08 0
4.65293e-09 -7.51361e-09 0
1.70861e-08 -2.52671e-08 0
3.60826e-09 -1.72006e-08 0
3.57106e-09 -4.02611e-09 0
7.07587e-10 2.27592e-09 0
1.22063e-09 4.02097e-10 0
3.26079e-09 -2.04831e-09 0
3.67204e-09 -3.45359e-09 0
2.41712e-09 -4.18749e-09 0
1.60536e-09 -1.83262e-09 0
2.97148e-10 -7.89836e-10 0
4.26288e-09 -1.50996e-08 0
5.2377e-05 -0.000395116 0
-2.92008e-09 9.01676e-09 0
-1.79518e-08 2.20584e-08 0
-1.32039e-08 1.94194e-08 0
-6.08168e-09 1.28744e-08 0
-1.19234e-08 2.78397e-08 0
1.26103e-10 4.34118e-09 0
-1.4531e-09 6.46952e-09 0
-7.68253e-10 2.73954e-09 0
-3.60618e-09 7.92935e-09 0
1.81162e-09 2.77286e-08 0
-0.000234335 0.000305366 0
3.15984e-09 -4.71164e-09 0
2.77209e-09 -8.95782e-09 0
4.93911e-09 -1.63397e-08 0
2.50676e-09 -1.13273e-08 0
3.45105e-09 -1.09452e-08 0
1.78527e-09 -4.54728e-09 0
-9.09166e-10 7.55814e-10 0
1.47387e-09 -2.84016e-09 0
8.06337e-10 -4.21384e-09 0
-3.1838e-11 -2.04038e-09 0
-1.58315e-09 -6.64963e-10 0
1.07985e-08 -6.9966e-09 0
1.68088e-07 -0.00040489 0
-5.38278e-09 8.72315e-09 0
-1.21381e-08 2.13254e-08 0
-9.31326e-09 1.4347e-08 0
-6.96451e-09 2.39764e-08 0
-9.40392e-09 2.05994e-08 0
-1.74206e-09 3.74336e-09 0
-2.97512e-09 4.76796e-09 0
-2.39205e-09 2.11416e-09 0
-4.63937e-09 5.86502e-09 0
-6.09865e-09 7.96633e-09 0
-5.15406e-09 1.68717e-08 0
-3.5525e-09 1.51576e-08 0
-0.000284005 0.000283392 0
1.13694e-09 -5.6615e-09 0
1.44461e-09 -9.16257e-09 0
-3.12055e-11 -7.26534e-09 0
2.27386e-11 -8.00914e-09 0
-3.48907e-11 -4.89096e-09 0
-1.12461e-09 -4.66318e-09 0
-2.83723e-09 9.44514e-10 0
-8.2783e-10 -3.14132e-09 0
-1.71019e-09 -2.23511e-09 0
-3.71665e-09 -4.79369e-10 0
-3.21265e-09 -1.69904e-09 0
-4.63979e-09 -5.94372e-09 0
-5.85049e-09 -1.41388e-09 0
-5.26439e-05 -0.00040024 0
-6.99756e-09 1.13685e-08 0
-6.41825e-09 1.47244e-08 0
-5.36271e-09 9.98763e-09 0
-5.91078e-09 6.71434e-09 0
-3.68488e-09 2.526e-09 0
-5.30678e-09 4.17719e-09 0
-7.28619e-09 8.59716e-09 0
-5.59888e-09 1.565e-08 0
-0.000315506 0.000241124 0
-8.89804e-10 -5.25034e-09 0
-2.31747e-09 -6.30091e-09 0
-5.63927e-09 -6.77504e-09 0
-2.3739e-09 -4.83726e-09 0
-2.92087e-09 -4.33002e-09 0
-4.68605e-09 1.00411e-09 0
-5.99364e-09 -6.03248e-10 0
-3.40647e-09 -2.95441e-09 0
-5.3323e-09 -2.01728e-09 0
-7.8394e-09 -6.80815e-09 0
-5.77515e-09 -6.21436e-09 0
-0.000105398 -0.000393222 0
-5.25002e-09 6.27361e-09 0
-6.2319e-09 3.71563e-09 0
-5.97581e-09 3.14669e-09 0
-5.44877e-09 1.61485e-09 0
-9.19741e-09 4.50443e-10 0
-1.04418e-08 1.90854e-09 0
-1.00458e-08 3.25835e-09 0
-0.000385222 0.000221892 0
-3.87979e-09 -4.8753e-09 0
-8.03017e-09 -7.10243e-09 0
-4.71891e-09 -4.64782e-09 0
-5.1061e-09 -4.35038e-09 0
-6.52615e-09 -4.0213e-11 0
-7.29313e-09 -1.56878e-09 0
-6.35247e-09 -3.55824e-09 0
-7.66744e-09 -2.80643e-09 0
-1.28112e-08 -8.61807e-09 0
-1.15365e-08 -6.96727e-09 0
-7.43613e-09 -4.49283e-09 0
-0.000152513 -0.00036872 0
-6.27131e-09 1.37371e-09 0
-6.31775e-09 5.56097e-10 0
-1.11125e-08 -1.02308e-09 0
-1.39846e-08 -7.7933e-10 0
-1.42882e-08 -5.45457e-10 0
-0.000370166 0.000153804 0