# vtk DataFile Version 2.0
CellBP Time: 3.52
ASCII
DATASET UNSTRUCTURED_GRID
POINTS 296 double
-9.18264 -3.77428 0
-8.60453 -4.94669 0
-9.60294 -2.5365 0
-9.85788 -1.2544 0
-8.35806 -2.81887 0
-7.87832 -6.03362 0
-7.01649 -7.01648 0
-7.9177 -3.87494 0
-7.34311 -4.86814 0
-6.03356 -7.87824 0
-4.94674 -8.60459 0
-9.9434 0.0499998 0
-9.85796 1.35441 0
-8.65817 -1.68403 0
-8.78681 -0.529655 0
-7.59019 -2.00427 0
-7.22622 -2.90667 0
-6.63807 -5.77925 0
-5.82279 -6.59733 0
-6.79073 -3.88917 0
-6.22101 -4.67624 0
-3.77432 -9.18271 0
-2.53648 -9.60285 0
-4.9068 -7.30929 0
-3.91327 -7.88676 0
-8.79327 0.643435 0
-9.60294 2.63651 0
-8.62379 1.77418 0
-9.18274 3.87433 0
-7.74481 -0.929039 0
-7.79503 0.0802594 0
-6.95302 -1.31596 0
-1.2544 -9.85794 0
-6.44191 -2.15326 0
-6.31981 -3.05633 0
-5.53693 -5.47496 0
-4.79625 -6.11591 0
-5.65942 -3.75726 0
-5.26977 -4.56191 0
-2.86636 -8.3645 0
-1.77868 -8.64083 0
-3.92842 -6.72404 0
-3.05684 -7.15313 0
0.0499989 -9.94369 0
-7.70604 1.14359 0
-8.33912 2.91561 0
-7.55244 2.11211 0
-8.60459 5.04673 0
-7.8806 3.9785 0
-7.87833 6.13363 0
-6.77917 -0.396882 0
-6.95704 0.552581 0
-5.77177 -1.00347 0
-0.590878 -8.81033 0
0.565721 -8.77152 0
-5.30346 -2.48043 0
-4.49229 -5.0961 0
-3.90279 -5.77575 0
-4.4392 -3.805 0
-2.06257 -7.56253 0
-1.13557 -7.78645 0
-2.99477 -6.10252 0
-2.3092 -6.6203 0
1.3544 -9.8579 0
-6.68995 1.42215 0
-7.17274 3.11836 0
-6.65977 2.37319 0
-7.29528 4.98903 0
-6.71862 4.00338 0
-7.0164 7.1164 0
-6.57301 5.89461 0
-6.03364 7.97836 0
-4.45338 -1.18114 0
-5.81499 0.513792 0
-4.65644 -0.0103823 0
0.00852173 -7.84875 0
1.7387 -8.6445 0
0.949042 -7.7641 0
-4.03876 -2.40653 0
-3.48576 -1.39128 0
-3.29473 -4.80567 0
-3.26607 -3.26799 0
-1.37869 -6.676 0
-0.508782 -7.02553 0
-1.97569 -5.53743 0
2.6365 -9.60295 0
-5.50773 2.03707 0
-6.09523 3.07247 0
-6.10565 4.87008 0
-5.76225 3.99184 0
-5.76182 6.71776 0
-5.45266 5.61991 0
-4.94672 8.70459 0
-4.83893 7.40528 0
-3.50171 -0.42433 0
-4.4496 1.24912 0
-3.7117 0.59211 0
-4.06245 2.31997 0
-3.77433 9.28275 0
2.86287 -8.33364 0
0.419726 -6.79606 0
2.02222 -7.52659 0
1.30621 -6.90625 0
-2.44481 -0.873866 0
-2.83856 -2.13127 0
-2.29456 -4.09766 0
-2.3258 -2.97379 0
-0.442421 -5.86165 0
-1.22281 -4.49946 0
3.87433 -9.18275 0
-4.7902 3.39208 0
-5.08845 4.59461 0
-4.64768 6.28212 0
-4.53935 5.3603 0
-3.84415 7.99422 0
-3.82718 6.84649 0
-2.78361 8.42377 0
-1.64915 -0.137908 0
-1.45035 -0.890641 0
-2.48927 0.507287 0
-3.25384 1.44425 0
-3.23927 3.31681 0
-2.91118 2.37193 0
-1.35519 0.627143 0
-2.53647 9.70284 0
3.93313 -7.88785 0
2.96488 -7.15856 0
0.954178 -5.82257 0
2.07457 -6.41623 0
-1.68307 -1.99218 0
-1.43453 -3.278 0
0.0902259 -4.74737 0
-0.566214 -3.69469 0
4.93271 -7.31965 0
5.04665 -8.60445 0
-3.7773 4.55205 0
-3.73518 5.75279 0
-2.88832 7.29075 0
-3.01005 6.35448 0
-1.66275 8.7347 0
-1.94035 7.6203 0
-2.33857 4.05201 0
-0.730774 -1.32733 0
-0.836946 -0.257641 0
-1.93633 1.68088 0
-2.12592 2.87605 0
-1.30667 3.54496 0
-0.869512 1.35091 0
-0.282383 0.456074 0
-0.533584 8.87278 0
-1.2544 9.95793 0
1.11288 -4.575 0
3.91063 -6.71816 0
2.98828 -6.09552 0
2.11808 -5.42554 0
4.78507 -6.20619 0
-0.558888 -2.47698 0
0.495147 -3.4641 0
0.0535556 -1.61058 0
1.48202 -3.68247 0
5.86795 -6.61555 0
6.13365 -7.87837 0
-2.47594 5.34905 0
-2.13072 6.53528 0
-0.904193 7.80436 0
-1.27251 6.93297 0
0.0862155 7.88148 0
-1.14456 4.49512 0
0.150329 -0.617681 0
-0.797481 2.48867 0
-0.331675 3.60102 0
0.0631095 1.51282 0
0.741481 0.473449 0
0.646873 8.87547 0
0.0499988 10.0434 0
2.38125 -4.28568 0
3.8597 -5.64122 0
3.00183 -5.21341 0
5.57461 -5.49266 0
4.69171 -5.28383 0
0.629717 -2.29352 0
1.25628 -2.95146 0
0.757547 -1.39154 0
2.16454 -3.13611 0
2.9941 -3.47696 0
6.15617 -4.79257 0
6.65662 -5.77021 0
7.11647 -7.01648 0
-1.01975 5.82105 0
-0.372671 6.88459 0
1.12281 7.77081 0
0.558059 7.08089 0
-0.000765343 4.72568 0
0.607058 3.82819 0
1.33901 -0.641938 0
0.53914 2.65126 0
0.966151 1.57505 0
1.91034 0.213883 0
1.61489 1.06511 0
2.12977 7.5849 0
1.79951 8.71385 0
1.35441 9.95796 0
3.82334 -4.35219 0
5.11741 -4.44975 0
5.84675 -3.93582 0
3.78447 -3.20146 0
1.81244 -1.88278 0
3.01949 -2.57417 0
6.78463 -3.9486 0
7.38278 -4.89768 0
7.97834 -6.03364 0
0.483426 5.88238 0
1.42842 6.74309 0
2.37478 6.67033 0
1.21013 4.55675 0
1.48834 3.39801 0
2.43604 -0.692088 0
2.82836 0.14262 0
1.78907 2.16306 0
2.61217 1.15027 0
3.07264 7.17156 0
2.90479 8.37846 0
2.63651 9.70296 0
4.91207 -3.32842 0
6.12187 -3.10927 0
4.17346 -2.27557 0
3.24484 -1.50308 0
6.73275 -2.31351 0
7.23362 -3.04319 0
7.96658 -3.91307 0
8.70457 -4.94672 0
2.02396 5.60078 0
3.08717 6.15493 0
2.36426 4.12752 0
2.4204 3.06129 0
3.52616 -0.460918 0
3.61621 0.613373 0
2.96224 2.28839 0
3.54611 1.52549 0
4.01318 5.8996 0
3.98553 6.79499 0
3.97434 7.94077 0
3.87434 9.28277 0
5.56994 -1.91653 0
4.50997 -1.12978 0
6.71566 -1.33644 0
7.59461 -2.03696 0
8.39943 -2.86212 0
9.28273 -3.77433 0
3.41987 4.87808 0
3.3396 3.38598 0
4.69211 0.130099 0
4.52001 1.31021 0
4.06608 2.44426 0
4.57198 5.15405 0
4.84528 6.19282 0
4.98202 7.38278 0
5.04673 8.70457 0
5.88495 -0.435004 0
7.01312 -0.488391 0
7.76211 -1.08563 0
8.68761 -1.74648 0
9.70294 -2.53651 0
4.55368 3.82861 0
5.81939 1.09889 0
5.37279 2.53565 0
5.3821 4.62232 0
5.61431 5.52565 0
5.89935 6.67434 0
6.13364 7.97835 0
6.84862 0.463702 0
7.85636 -0.0256463 0
8.86366 -0.584548 0
9.95798 -1.25441 0
6.96328 1.34998 0
5.72336 3.77995 0
6.54409 2.19837 0
6.38288 3.08927 0
6.29515 4.68899 0
6.69581 5.8402 0
7.11645 7.11645 0
7.78765 0.968013 0
8.86301 0.572976 0
10.0435 0.0499986 0
7.61956 2.00517 0
6.83226 3.90602 0
7.27283 2.94811 0
7.38147 4.88785 0
7.97833 6.13361 0
8.72661 1.72762 0
9.95792 1.3544 0
8.42453 2.83896 0
7.98502 3.91796 0
8.70462 5.04674 0
9.70294 2.6365 0
9.28278 3.87434 0
CELLS 542 2168
3 2 0 4
3 0 1 7
3 4 0 7
3 1 5 8
3 7 1 8
3 3 2 13
3 13 2 4
3 11 3 14
3 14 3 13
3 13 4 15
3 4 7 16
3 15 4 16
3 5 6 17
3 8 5 17
3 6 9 18
3 17 6 18
3 7 8 19
3 16 7 19
3 8 17 20
3 19 8 20
3 9 10 23
3 18 9 23
3 10 21 24
3 23 10 24
3 12 11 25
3 25 11 14
3 26 12 27
3 27 12 25
3 14 13 29
3 29 13 15
3 25 14 30
3 30 14 29
3 29 15 31
3 15 16 33
3 31 15 33
3 16 19 34
3 33 16 34
3 17 18 35
3 20 17 35
3 18 23 36
3 35 18 36
3 19 20 37
3 34 19 37
3 20 35 38
3 37 20 38
3 21 22 39
3 24 21 39
3 22 32 40
3 39 22 40
3 23 24 41
3 36 23 41
3 24 39 42
3 41 24 42
3 27 25 44
3 44 25 30
3 28 26 45
3 45 26 27
3 45 27 46
3 46 27 44
3 47 28 48
3 48 28 45
3 30 29 50
3 50 29 31
3 44 30 51
3 51 30 50
3 50 31 52
3 31 33 52
3 32 43 53
3 40 32 53
3 53 43 54
3 33 34 55
3 34 37 55
3 33 55 52
3 35 36 56
3 38 35 56
3 36 41 57
3 56 36 57
3 37 38 58
3 38 56 58
3 37 58 55
3 39 40 59
3 42 39 59
3 40 53 60
3 59 40 60
3 41 42 61
3 57 41 61
3 42 59 62
3 61 42 62
3 43 63 54
3 46 44 64
3 64 44 51
3 48 45 65
3 65 45 46
3 65 46 66
3 66 46 64
3 49 47 67
3 67 47 48
3 67 48 68
3 68 48 65
3 69 49 70
3 70 49 67
3 52 55 72
3 64 51 73
3 51 50 73
3 50 52 73
3 73 52 74
3 74 52 72
3 53 54 75
3 60 53 75
3 54 63 76
3 54 76 77
3 75 54 77
3 55 58 78
3 72 55 78
3 72 78 79
3 56 57 80
3 57 61 80
3 56 80 58
3 58 80 81
3 78 58 81
3 59 60 82
3 62 59 82
3 60 75 83
3 82 60 83
3 61 62 84
3 62 82 84
3 61 84 80
3 63 85 76
3 66 64 86
3 64 73 86
3 68 65 87
3 87 65 66
3 87 66 86
3 70 67 88
3 88 67 68
3 88 68 89
3 89 68 87
3 71 69 90
3 90 69 70
3 90 70 91
3 91 70 88
3 92 71 93
3 93 71 90
3 74 72 94
3 94 72 79
3 86 73 95
3 95 73 74
3 95 74 96
3 96 74 94
3 97 86 95
3 76 85 99
3 75 77 100
3 83 75 100
3 76 99 101
3 77 76 101
3 77 101 102
3 100 77 102
3 94 79 103
3 78 81 104
3 79 78 104
3 79 104 103
3 80 84 105
3 81 80 105
3 81 105 106
3 104 81 106
3 82 83 107
3 83 100 107
3 82 107 84
3 84 107 108
3 105 84 108
3 85 109 99
3 89 87 110
3 87 86 110
3 110 86 97
3 91 88 111
3 111 88 89
3 111 89 110
3 93 90 112
3 112 90 91
3 112 91 113
3 113 91 111
3 98 92 114
3 114 92 93
3 114 93 115
3 115 93 112
3 116 98 114
3 117 103 118
3 96 94 119
3 94 103 119
3 119 103 117
3 97 95 120
3 120 95 96
3 120 96 119
3 121 110 97
3 121 97 122
3 122 97 120
3 123 119 117
3 124 98 116
3 99 109 125
3 99 125 126
3 101 99 126
3 100 102 127
3 100 127 107
3 101 126 128
3 102 101 128
3 102 128 127
3 104 106 129
3 104 129 103
3 103 129 118
3 105 108 130
3 106 105 130
3 106 130 129
3 107 127 131
3 108 107 131
3 108 131 132
3 108 132 130
3 109 134 125
3 125 134 133
3 113 111 135
3 111 110 135
3 135 110 121
3 115 112 136
3 136 112 113
3 136 113 135
3 116 114 137
3 137 114 115
3 137 115 138
3 138 115 136
3 139 124 116
3 139 116 140
3 140 116 137
3 141 135 121
3 118 129 142
3 118 142 143
3 117 118 143
3 123 117 143
3 122 120 144
3 120 119 144
3 144 119 123
3 141 121 145
3 145 121 122
3 145 122 144
3 146 141 145
3 147 144 123
3 147 123 148
3 143 148 123
3 150 124 139
3 149 150 139
3 131 127 151
3 125 133 152
3 126 125 152
3 126 152 153
3 128 126 153
3 128 153 154
3 128 154 127
3 127 154 151
3 152 133 155
3 130 132 156
3 130 156 129
3 129 156 142
3 131 151 157
3 132 131 157
3 132 157 156
3 156 158 142
3 157 151 159
3 133 160 155
3 134 161 133
3 133 161 160
3 138 136 162
3 136 135 162
3 162 135 141
3 140 137 163
3 163 137 138
3 163 138 162
3 149 139 164
3 164 139 140
3 164 140 165
3 165 140 163
3 166 149 164
3 167 162 141
3 167 141 146
3 142 158 168
3 143 142 168
3 143 168 148
3 146 145 169
3 145 144 169
3 169 144 147
3 170 167 146
3 170 146 169
3 171 169 147
3 171 147 148
3 171 148 172
3 168 172 148
3 173 149 166
3 174 150 149
3 173 174 149
3 154 175 151
3 151 175 159
3 152 155 176
3 153 152 176
3 153 176 177
3 153 177 154
3 154 177 175
3 155 160 178
3 155 178 179
3 176 155 179
3 156 157 180
3 156 180 158
3 157 159 181
3 157 181 180
3 158 180 182
3 158 182 168
3 159 175 183
3 159 183 181
3 175 184 183
3 160 186 178
3 178 186 185
3 161 187 160
3 160 187 186
3 165 163 188
3 163 162 188
3 188 162 167
3 166 164 189
3 189 164 165
3 189 165 188
3 190 173 166
3 190 166 191
3 191 166 189
3 192 188 167
3 192 167 170
3 193 192 170
3 182 194 168
3 194 172 168
3 193 170 195
3 170 169 195
3 195 169 171
3 196 195 171
3 196 171 172
3 194 197 172
3 197 198 172
3 198 196 172
3 200 173 190
3 199 200 190
3 201 174 173
3 200 201 173
3 176 179 202
3 177 176 202
3 177 202 175
3 175 202 184
3 178 185 203
3 178 203 179
3 179 203 202
3 203 185 204
3 202 205 184
3 183 206 181
3 180 181 206
3 180 206 182
3 182 206 194
3 183 184 207
3 205 207 184
3 183 207 206
3 185 208 204
3 186 209 185
3 185 209 208
3 187 210 186
3 186 210 209
3 191 189 211
3 189 188 211
3 211 188 192
3 199 190 212
3 212 190 191
3 212 191 211
3 213 199 212
3 214 211 192
3 214 192 193
3 215 214 193
3 215 193 195
3 206 216 194
3 216 197 194
3 216 217 197
3 215 195 218
3 218 195 196
3 198 218 196
3 217 219 197
3 219 218 198
3 197 219 198
3 220 199 213
3 221 200 199
3 220 221 199
3 222 201 200
3 221 222 200
3 203 204 223
3 203 223 202
3 202 223 205
3 204 208 224
3 204 224 223
3 205 223 225
3 205 225 207
3 207 225 226
3 207 226 206
3 226 216 206
3 208 228 224
3 224 228 227
3 209 229 208
3 229 228 208
3 210 230 209
3 209 230 229
3 213 212 231
3 212 211 231
3 231 211 214
3 232 220 213
3 232 213 231
3 233 231 214
3 233 214 215
3 234 233 215
3 234 215 218
3 226 235 216
3 235 217 216
3 235 236 217
3 217 236 219
3 237 234 218
3 237 218 219
3 236 238 219
3 238 237 219
3 240 220 232
3 239 240 232
3 241 221 220
3 240 241 220
3 242 222 221
3 241 242 221
3 224 227 243
3 224 243 223
3 223 243 225
3 225 243 244
3 225 244 226
3 226 244 235
3 227 245 243
3 228 246 227
3 227 246 245
3 229 247 228
3 228 247 246
3 230 248 229
3 229 248 247
3 239 232 249
3 232 231 249
3 249 231 233
3 250 249 233
3 250 233 234
3 237 250 234
3 244 251 235
3 235 251 236
3 251 252 236
3 236 252 238
3 252 253 238
3 253 250 237
3 253 237 238
3 254 239 249
3 255 240 239
3 254 255 239
3 256 241 240
3 255 256 240
3 257 242 241
3 256 257 241
3 245 258 243
3 243 258 244
3 244 258 251
3 245 259 258
3 246 260 245
3 245 260 259
3 247 261 246
3 246 261 260
3 248 262 247
3 247 262 261
3 254 249 263
3 263 249 250
3 253 263 250
3 258 264 251
3 251 264 252
3 264 265 252
3 265 263 253
3 252 265 253
3 266 254 263
3 267 255 254
3 266 267 254
3 268 256 255
3 267 268 255
3 269 257 256
3 268 269 256
3 259 270 258
3 270 264 258
3 260 271 259
3 259 271 270
3 261 272 260
3 260 272 271
3 262 273 261
3 273 272 261
3 270 274 264
3 275 266 263
3 275 263 265
3 274 276 264
3 276 265 264
3 276 277 265
3 277 275 265
3 278 267 266
3 275 278 266
3 279 268 267
3 278 279 267
3 280 269 268
3 279 280 268
3 271 281 270
3 270 281 274
3 272 282 271
3 271 282 281
3 273 283 272
3 272 283 282
3 281 284 274
3 274 284 276
3 285 278 275
3 277 285 275
3 284 286 276
3 286 285 277
3 276 286 277
3 287 279 278
3 285 287 278
3 288 280 279
3 287 288 279
3 282 289 281
3 281 289 284
3 283 290 282
3 282 290 289
3 289 291 284
3 284 291 286
3 291 292 286
3 292 287 285
3 286 292 285
3 293 288 287
3 292 293 287
3 290 294 289
3 289 294 291
3 294 295 291
3 295 293 292
3 291 295 292
CELL_TYPES 542
5
5
5
5
5
5
5
5
5
5
5
5
5
5
5
5
5
5
5
5
5
5
5
5
5
5
5
5
5
5
5
5
5
5
5
5
5
5
5
5
5
5
5
5
5
5
5
5
5
5
5
5
5
5
5
5
5
5
5
5
5
5
5
5
5
5
5
5
5
5
5
5
5
5
5
5
5
5
5
5
5
5
5
5
5
5
5
5
5
5
5
5
5
5
5
5
5
5
5
5
5
5
5
5
5
5
5
5
5
5
5
5
5
5
5
5
5
5
5
5
5
5
5
5
5
5
5
5
5
5
5
5
5
5
5
5
5
5
5
5
5
5
5
5
5
5
5
5
5
5
5
5
5
5
5
5
5
5
5
5
5
5
5
5
5
5
5
5
5
5
5
5
5
5
5
5
5
5
5
5
5
5
5
5
5
5
5
5
5
5
5
5
5
5
5
5
5
5
5
5
5
5
5
5
5
5
5
5
5
5
5
5
5
5
5
5
5
5
5
5
5
5
5
5
5
5
5
5
5
5
5
5
5
5
5
5
5
5
5
5
5
5
5
5
5
5
5
5
5
5
5
5
5
5
5
5
5
5
5
5
5
5
5
5
5
5
5
5
5
5
5
5
5
5
5
5
5
5
5
5
5
5
5
5
5
5
5
5
5
5
5
5
5
5
5
5
5
5
5
5
5
5
5
5
5
5
5
5
5
5
5
5
5
5
5
5
5
5
5
5
5
5
5
5
5
5
5
5
5
5
5
5
5
5
5
5
5
5
5
5
5
5
5
5
5
5
5
5
5
5
5
5
5
5
5
5
5
5
5
5
5
5
5
5
5
5
5
5
5
5
5
5
5
5
5
5
5
5
5
5
5
5
5
5
5
5
5
5
5
5
5
5
5
5
5
5
5
5
5
5
5
5
5
5
5
5
5
5
5
5
5
5
5
5
5
5
5
5
5
5
5
5
5
5
5
5
5
5
5
5
5
5
5
5
5
5
5
5
5
5
5
5
5
5
5
5
5
5
5
5
5
5
5
5
5
5
5
5
5
5
5
5
5
5
5
5
5
5
5
5
5
5
5
5
5
5
5
5
5
5
5
5
5
5
5
5
5
5
5
5
5
5
5
5
5
5
5
5
5
5
5
5
5
5
5
5
5
5
5
5
5
5
5
5
5
5
5
5
5
5
5
5
5
5
5
5
5
5
5
5
5
5
5
5
5
5
5
5
5
5
5
5
POINT_DATA 296
SCALARS concentrations float 4
LOOKUP_TABLE default
0 0.998693 0.226744 18.0558
0 0.998701 0.2258 15.8142
0 0.998687 0.22614 15.0116
0 0.998686 0.225105 17.2282
0 0.998688 0.0908833 0.00128935
0 0.998692 0.226212 15.6455
0 0.998685 0.225769 15.7257
0 0.998695 0.0908891 0.00381028
0 0.998695 0.0908866 0.0035735
0 0.998682 0.225062 18.6285
0 0.998686 0.225505 14.0813
0 0.998684 0.224033 16.9868
0 0.998687 0.224516 15.9554
0 0.998686 0.0908814 0.000893639
0 0.998685 0.0908829 0.00048419
0 0.998687 0.0908814 0.000670253
0 0.998689 0.0908824 0.001482
0 0.998688 0.0908805 0.000875843
0 0.998684 0.0908825 0.000733956
0 0.998691 0.0908825 0.00177038
0 0.998689 0.0908812 0.00143741
0 0.998691 0.227498 15.4967
0 0.998693 0.228777 16.7039
0 0.998685 0.0908858 0.000580669
0 0.99869 0.0908836 0.00047678
0 0.998686 0.0908824 0.000863493
0 0.998686 0.223597 15.3267
0 0.998688 0.0908804 0.00041662
0 0.998686 0.224317 15.6816
0 0.998686 0.0908808 0.000216285
0 0.998686 0.0908804 0.000335615
0 0.998687 0.0908797 7.30842e-05
0 0.998691 0.225553 15.907
0 0.998688 0.0908798 0.000363833
0 0.998689 0.0908804 0.000791827
0 0.998688 0.0908804 0.000789867
0 0.998687 0.0908807 0.000721799
0 0.998689 0.0908796 0.000715995
0 0.998689 0.0908795 0.000715572
0 0.998692 0.0908813 0.000773768
0 0.998692 0.0908788 0.000966096
0 0.998689 0.0908807 0.000788228
0 0.998691 0.09088 0.000842781
0 0.998687 0.224664 15.9064
0 0.998687 0.0908796 0.000492185
0 0.998687 0.0908806 0.000290169
0 0.998688 0.0908792 0.00036681
0 0.998689 0.223544 15.1927
0 0.998688 0.090881 0.000738301
0 0.998688 0.223132 15.9923
0 0.998687 0.090879 0.000188609
0 0.998688 0.0908789 0.000355131
0 0.998689 0.0908779 6.08907e-05
0 0.998689 0.0908788 0.000683293
0 0.998685 0.0908797 0.000662314
0 0.998689 0.0908781 0.000194411
0 0.998689 0.090879 0.000594055
0 0.99869 0.0908793 0.000716019
0 0.99869 0.0908779 0.000314644
0 0.998692 0.090879 0.000841714
0 0.998691 0.0908786 0.000706186
0 0.998691 0.0908788 0.000739667
0 0.998692 0.0908786 0.000792648
0 0.998681 0.222751 17.1284
0 0.998689 0.0908783 0.00039076
0 0.998689 0.0908793 0.000407653
0 0.99869 0.0908784 0.000444954
0 0.998689 0.090881 0.000543
0 0.998689 0.0908794 0.00050091
0 0.99869 0.222594 17.2223
0 0.998689 0.0908816 0.000549009
0 0.998697 0.222505 15.1343
0 0.99869 0.0908773 2.79915e-05
0 0.998689 0.0908776 0.000230061
0 0.99869 0.0908773 0.000126463
0 0.998689 0.0908787 0.000446909
0 0.998681 0.0908831 0.00111652
0 0.998687 0.0908794 0.000377917
0 0.99869 0.0908774 0.00014181
0 0.99869 0.0908771 5.4927e-05
0 0.99869 0.0908777 0.000404386
0 0.99869 0.0908773 0.000228567
0 0.998691 0.090878 0.000602454
0 0.998691 0.0908781 0.000442137
0 0.998691 0.0908775 0.000436773
0 0.998678 0.222917 14.8409
0 0.99869 0.0908774 0.000310078
0 0.99869 0.0908782 0.000457112
0 0.998689 0.0908797 0.00062351
0 0.99869 0.0908786 0.000520582
0 0.998693 0.0908842 0.00197773
0 0.99869 0.0908798 0.000972716
0 0.998693 0.22295 15.7435
0 0.998694 0.0908828 0.00212149
0 0.998691 0.090877 7.17282e-05
0 0.99869 0.0908772 0.000216944
0 0.998691 0.0908771 0.000143743
0 0.998691 0.0908771 0.000228857
0 0.998685 0.223655 15.5213
0 0.998682 0.0908827 0.00123628
0 0.99869 0.0908782 0.000231681
0 0.998686 0.0908795 0.000369839
0 0.998689 0.0908785 4.76203e-05
0 0.998691 0.0908768 3.71598e-05
0 0.998691 0.090877 0.000120092
0 0.998691 0.0908772 0.000278055
0 0.998691 0.0908771 0.000196594
0 0.998691 0.0908774 0.000314235
0 0.998691 0.0908771 0.000270781
0 0.998683 0.222851 15.5111
0 0.99869 0.0908774 0.000319499
0 0.99869 0.0908785 0.000576516
0 0.998691 0.09088 0.00119756
0 0.99869 0.0908789 0.000746726
0 0.998688 0.0908808 0.00139858
0 0.998689 0.0908801 0.00118506
0 0.998682 0.0908835 0.00137157
0 0.998692 0.0908767 5.64749e-05
0 0.998692 0.0908767 4.67809e-05
0 0.998691 0.0908768 0.000100114
0 0.998691 0.090877 0.000175104
0 0.998691 0.0908771 0.000199141
0 0.998691 0.090877 0.000183689
0 0.998692 0.0908766 9.59782e-05
0 0.998676 0.222876 17.859
0 0.998685 0.0908819 0.000278563
0 0.998686 0.0908792 0.000281911
0 0.99869 0.0908776 0.000180076
0 0.998689 0.0908784 8.41824e-05
0 0.998691 0.0908768 0.000112365
0 0.998691 0.090877 0.000212247
0 0.998691 0.0908771 0.000234913
0 0.998692 0.0908769 0.00021495
0 0.998683 0.090885 0.000744322
0 0.998683 0.222098 20.3338
0 0.99869 0.0908775 0.000314856
0 0.99869 0.0908787 0.000651884
0 0.998686 0.0908806 0.00102578
0 0.998688 0.0908791 0.000649048
0 0.998675 0.0908857 0.00177727
0 0.998682 0.0908819 0.00120743
0 0.99869 0.0908771 0.000140716
0 0.998692 0.0908766 8.28196e-05
0 0.998692 0.0908765 5.63552e-05
0 0.998691 0.0908767 0.000124349
0 0.998691 0.0908769 0.00013655
0 0.998691 0.090877 8.13382e-05
0 0.998692 0.0908765 9.21382e-05
0 0.998692 0.0908764 7.45633e-05
0 0.998675 0.090887 0.00150374
0 0.998671 0.223613 15.6929
0 0.998691 0.0908771 0.000222968
0 0.998686 0.0908791 0.000142173
0 0.998689 0.0908785 0.00016386
0 0.99869 0.0908776 0.000191508
0 0.998686 0.0908802 0.000341395
0 0.998692 0.0908767 0.000155501
0 0.998692 0.0908769 0.000213771
0 0.998692 0.0908766 0.000111847
0 0.998692 0.0908771 0.000281687
0 0.998681 0.0908837 0.00129862
0 0.998679 0.222388 14.3776
0 0.998689 0.0908777 0.000256854
0 0.998687 0.0908794 0.000654986
0 0.99868 0.0908826 0.00132051
0 0.998685 0.0908804 0.000968155
0 0.998681 0.0908821 0.00118879
0 0.99869 0.0908772 0.000129458
0 0.998692 0.0908764 7.00011e-05
0 0.998691 0.0908767 8.05174e-05
0 0.998691 0.090877 2.14293e-05
0 0.998692 0.0908765 7.97696e-05
0 0.998692 0.0908764 7.939e-05
0 0.998681 0.0908844 0.000911026
0 0.998676 0.221851 18.6821
0 0.998691 0.0908772 0.000277151
0 0.998689 0.0908786 0.000263481
0 0.99869 0.0908778 0.000265475
0 0.998688 0.0908804 0.000463284
0 0.99869 0.0908789 0.000400874
0 0.998692 0.0908767 0.000155483
0 0.998692 0.0908768 0.00021489
0 0.998692 0.0908766 0.000125078
0 0.998692 0.090877 0.000276569
0 0.998692 0.0908773 0.000351098
0 0.99869 0.0908797 0.00058324
0 0.998685 0.0908811 0.000466991
0 0.99868 0.221468 14.516
0 0.998688 0.090878 0.000386819
0 0.998686 0.09088 0.000903364
0 0.998684 0.0908804 0.00082352
0 0.998686 0.0908798 0.000840284
0 0.99869 0.0908773 0.000132619
0 0.998691 0.0908771 3.71418e-05
0 0.998692 0.0908765 0.000105262
0 0.998691 0.0908767 5.74541e-05
0 0.998692 0.0908766 8.77762e-05
0 0.998692 0.0908766 0.000110693
0 0.998692 0.0908766 0.00010493
0 0.998686 0.0908791 0.000546569
0 0.998684 0.0908794 0.000528506
0 0.998682 0.222971 15.6203
0 0.998691 0.0908776 0.000359249
0 0.998691 0.0908786 0.00052855
0 0.998691 0.0908786 0.000631012
0 0.998692 0.0908773 0.00035172
0 0.998692 0.0908767 0.000169733
0 0.998692 0.090877 0.000277755
0 0.998691 0.0908788 0.000612159
0 0.998689 0.0908792 0.000433412
0 0.998686 0.222346 15.8462
0 0.998689 0.0908778 0.000344778
0 0.998688 0.0908787 0.00049438
0 0.998688 0.0908786 0.000322505
0 0.99869 0.0908772 0.000115178
0 0.998691 0.090877 5.90511e-05
0 0.998692 0.0908767 0.000153416
0 0.998692 0.0908768 0.000156867
0 0.998692 0.0908768 9.28976e-05
0 0.998692 0.0908768 0.000129173
0 0.998688 0.0908789 0.000373173
0 0.998686 0.0908796 0.000692182
0 0.998685 0.221387 15.2087
0 0.998691 0.0908776 0.000422373
0 0.998691 0.090878 0.000524987
0 0.998692 0.0908771 0.000310046
0 0.998692 0.0908769 0.000212927
0 0.998691 0.0908779 0.000531554
0 0.998691 0.0908784 0.000610064
0 0.99869 0.0908788 0.000463223
0 0.998689 0.22414 15.8937
0 0.998689 0.0908775 0.000171015
0 0.998689 0.0908782 0.000178778
0 0.99869 0.0908772 9.28927e-05
0 0.998691 0.0908771 9.09383e-05
0 0.998692 0.0908769 0.000187715
0 0.998691 0.090877 0.000157805
0 0.998691 0.090877 0.000117327
0 0.998691 0.090877 0.000139004
0 0.998689 0.0908783 0.000161702
0 0.998688 0.0908786 0.000273472
0 0.998688 0.0908796 0.000566804
0 0.998688 0.220293 15.7942
0 0.998691 0.0908773 0.000335434
0 0.998691 0.090877 0.000237179
0 0.998691 0.0908778 0.000503396
0 0.998691 0.0908784 0.000764076
0 0.998691 0.0908781 0.000554908
0 0.99869 0.224216 16.1461
0 0.99869 0.0908774 0.000103912
0 0.998691 0.0908771 9.8752e-05
0 0.998691 0.090877 0.000166252
0 0.998691 0.090877 0.000116345
0 0.998691 0.0908771 0.000103645
0 0.998689 0.0908783 0.000154701
0 0.998688 0.0908787 0.000233647
0 0.998688 0.0908787 0.000368602
0 0.998688 0.221729 16.4324
0 0.998691 0.0908773 0.000266705
0 0.998691 0.0908781 0.000497285
0 0.998691 0.0908784 0.000789986
0 0.998693 0.0908799 0.00113767
0 0.998692 0.222373 15.9103
0 0.99869 0.0908774 9.76829e-05
0 0.99869 0.0908773 0.000117536
0 0.99869 0.0908774 6.55961e-05
0 0.99869 0.0908787 0.000192703
0 0.998689 0.0908797 0.000380671
0 0.998688 0.0908791 0.000235796
0 0.998687 0.222621 15.3996
0 0.99869 0.0908781 0.000286919
0 0.99869 0.0908788 0.000668146
0 0.998692 0.0908808 0.00141793
0 0.998694 0.221365 15.3287
0 0.998689 0.0908786 0.000204851
0 0.99869 0.0908785 0.000123853
0 0.998689 0.0908784 0.000130062
0 0.998689 0.0908788 0.000108908
0 0.998689 0.09088 0.000390121
0 0.998691 0.0908833 0.00112377
0 0.998689 0.221819 15.4452
0 0.998688 0.0908794 0.000553322
0 0.998688 0.0908789 0.000553138
0 0.99869 0.222216 15.6962
0 0.998686 0.0908798 0.000606808
0 0.998688 0.0908802 0.000314356
0 0.998687 0.0908802 0.000587417
0 0.99869 0.090884 0.00112235
0 0.998692 0.218406 17.2842
0 0.998683 0.0908838 0.00180444
0 0.998685 0.222033 16.8745
0 0.998681 0.0908837 0.00181936
0 0.998686 0.0908811 0.000591011
0 0.998687 0.220293 15.1419
0 0.998678 0.221573 15.4781
0 0.998682 0.221586 15.283
VECTORS fa_u float
0.000529525 0.000222916 0
0.000435943 0.00025134 0
0.000461861 0.000121864 0
0.000543463 7.19136e-05 0
2.31822e-08 3.38497e-08 0
0.000397732 0.000299418 0
0.00035337 0.000354287 0
5.91985e-08 1.05808e-07 0
1.13491e-07 7.02365e-09 0
0.0003619 0.000469456 0
0.00022467 0.000387669 0
0.000540517 -2.5189e-07 0
0.000503594 -6.44415e-05 0
2.51556e-08 1.3258e-08 0
1.29762e-08 8.30603e-09 0
1.30444e-08 1.68731e-08 0
2.82935e-08 3.77263e-08 0
2.73171e-08 5.52029e-09 0
1.11585e-08 2.05162e-08 0
4.34579e-08 3.58447e-08 0
4.09677e-08 2.0338e-08 0
0.000187317 0.000456138 0
0.000137095 0.000513531 0
6.55161e-09 1.72763e-08 0
-1.86491e-09 1.5056e-08 0
1.21694e-08 -2.46343e-08 0
0.000471709 -0.000123846 0
1.32111e-08 -1.09975e-09 0
0.000461059 -0.00019082 0
6.52344e-09 2.19295e-09 0
4.77529e-09 -9.55211e-09 0
2.89425e-10 2.30745e-09 0
6.56038e-05 0.00050189 0
4.81107e-09 1.05301e-08 0
1.56834e-08 1.97196e-08 0
1.73658e-08 1.81693e-08 0
7.34761e-09 2.17606e-08 0
1.52438e-08 1.69318e-08 0
1.51944e-08 1.69582e-08 0
2.05709e-09 2.45352e-08 0
1.80971e-08 2.48498e-08 0
4.58338e-09 2.4659e-08 0
6.8775e-09 2.59203e-08 0
-1.15675e-06 0.00050614 0
5.8715e-09 -1.4519e-08 0
-9.04647e-09 1.84732e-09 0
5.26209e-09 -1.04184e-08 0
0.000417931 -0.000242981 0
-8.30349e-09 -2.19763e-08 0
0.00040416 -0.000309206 0
-1.57416e-09 -5.79139e-09 0
5.80606e-10 -1.12853e-08 0
-1.46988e-09 -1.26234e-09 0
1.73249e-08 1.31368e-08 0
2.10687e-08 5.07286e-10 0
1.56203e-09 5.98568e-09 0
6.82194e-09 1.76288e-08 0
5.28473e-09 2.21623e-08 0
2.66468e-09 9.65083e-09 0
1.12233e-08 2.43183e-08 0
1.28477e-08 1.84357e-08 0
5.5835e-09 2.28643e-08 0
8.1562e-09 2.38668e-08 0
-6.9013e-05 0.000540637 0
3.94435e-09 -1.17917e-08 0
4.25024e-09 -1.22554e-08 0
7.37586e-09 -1.20854e-08 0
1.31442e-08 -1.12146e-08 0
8.89495e-09 -1.32261e-08 0
0.000386376 -0.000388626 0
7.70879e-09 -1.56766e-08 0
0.000292195 -0.000382795 0
-8.25054e-10 3.35573e-10 0
4.82762e-10 -7.30459e-09 0
-1.78007e-11 -4.024e-09 0
1.21911e-08 7.32135e-09 0
2.396e-08 -2.62321e-08 0
1.04598e-08 -5.9329e-09 0
-7.3939e-10 4.45139e-09 0
-1.43175e-09 1.0024e-09 0
1.68783e-09 1.27564e-08 0
-5.68839e-10 7.2507e-09 0
7.24699e-09 1.77474e-08 0
6.79032e-09 1.23216e-08 0
2.63976e-09 1.36451e-08 0
-0.000122395 0.000456098 0
4.46201e-09 -8.80009e-09 0
9.19592e-09 -1.12694e-08 0
1.31363e-08 -1.48683e-08 0
1.18679e-08 -1.15563e-08 0
7.97194e-09 -6.24241e-08 0
1.57342e-08 -2.66542e-08 0
0.000250802 -0.000433655 0
6.183e-08 -2.70938e-08 0
-1.00288e-09 -2.05025e-09 0
1.53115e-09 -6.7312e-09 0
5.38209e-11 -4.57359e-09 0
2.94713e-09 -6.6592e-09 0
0.000186404 -0.00045736 0
-2.32645e-08 -3.17217e-08 0
4.26704e-09 6.01166e-09 0
6.79673e-10 -1.17486e-08 0
1.48569e-09 -2.97947e-10 0
-1.18224e-09 2.04539e-11 0
-1.37468e-09 3.56548e-09 0
-3.25186e-10 8.8417e-09 0
-1.02792e-09 6.17057e-09 0
1.94564e-09 9.8078e-09 0
1.22297e-10 8.61537e-09 0
-0.000191961 0.000454704 0
6.64104e-09 -7.6976e-09 0
1.25924e-08 -1.33402e-08 0
2.66599e-08 -2.72276e-08 0
1.63901e-08 -1.72029e-08 0
4.44852e-08 -1.24442e-09 0
3.60082e-08 -1.11956e-08 0
4.07487e-08 1.56297e-08 0
-7.60749e-10 -1.62806e-09 0
-1.30737e-09 7.11771e-10 0
-2.69698e-10 -3.17418e-09 0
1.24545e-09 -5.43083e-09 0
4.17638e-09 -4.76559e-09 0
2.63717e-09 -5.2162e-09 0
-6.29914e-10 -2.98835e-09 0
0.00014898 -0.000548395 0
-3.87462e-09 7.97217e-09 0
-4.83151e-09 -7.55808e-09 0
-9.86224e-10 5.64449e-09 0
-2.65443e-09 -3.59616e-10 0
-1.61074e-09 3.19206e-09 0
-1.30111e-09 6.62717e-09 0
-1.08729e-09 7.39542e-09 0
-1.28315e-09 6.71825e-09 0
2.17203e-08 -9.44319e-09 0
-0.000322193 0.000561092 0
8.08862e-09 -5.91173e-09 0
1.81909e-08 -9.96791e-09 0
3.05308e-08 1.15435e-08 0
2.05937e-08 1.55883e-09 0
3.11156e-08 4.7223e-08 0
2.09488e-08 3.22065e-08 0
4.32641e-09 -1.15364e-09 0
-1.91099e-09 1.81466e-09 0
-1.52653e-09 -9.40928e-10 0
7.64295e-10 -3.88225e-09 0
2.52456e-09 -3.53633e-09 0
2.27309e-09 -1.23762e-09 0
-2.02974e-10 -2.9248e-09 0
-1.24134e-09 -2.02195e-09 0
-2.64881e-08 3.98483e-08 0
6.51571e-05 -0.000495078 0
-3.47221e-09 6.18711e-09 0
-1.75215e-09 -4.17086e-09 0
-5.21218e-09 1.381e-10 0
-4.2431e-09 4.3738e-09 0
-7.34656e-09 -8.00226e-09 0
-2.00628e-09 4.52303e-09 0
-2.78818e-09 6.20449e-09 0
-2.46194e-09 2.57004e-09 0
-4.89877e-09 7.50615e-09 0
-1.47396e-08 -3.86039e-08 0
-0.000277333 0.000363852 0
7.84489e-09 2.29283e-09 0
1.31386e-08 1.61787e-08 0
1.95987e-09 4.19729e-08 0
6.22259e-09 3.01716e-08 0
-1.51338e-08 3.46679e-08 0
2.98062e-09 2.84338e-09 0
-2.22718e-09 -3.30978e-11 0
5.44183e-10 -2.5036e-09 0
6.81874e-10 2.5323e-12 0
-7.82049e-10 -2.41478e-09 0
-2.07511e-09 -1.44066e-09 0
-2.72883e-08 9.78265e-09 0
-1.27014e-06 -0.000594461 0
-6.20783e-09 6.26389e-09 0
-8.19325e-09 1.77795e-09 0
-7.15297e-09 4.4937e-09 0
-1.46193e-08 -1.89531e-09 0
-1.21611e-08 3.84931e-09 0
-3.10146e-09 3.85463e-09 0
-4.31461e-09 5.30465e-09 0
-3.42144e-09 2.03318e-09 0
-5.95485e-09 6.47973e-09 0
-7.90974e-09 7.8897e-09 0
-1.45899e-08 1.14698e-08 0
-1.44493e-08 3.46789e-09 0
-0.000327079 0.000326142 0
2.68296e-09 1.20126e-08 0
-3.16471e-09 2.85702e-08 0
-1.6999e-08 1.99424e-08 0
-9.36369e-09 2.50446e-08 0
1.05944e-10 4.21858e-09 0
-8.29869e-10 8.41478e-10 0
-3.27546e-09 6.99963e-10 0
-8.80947e-10 -1.60193e-09 0
-1.72305e-09 -2.19821e-09 0
-3.43874e-09 -7.62453e-10 0
-2.71557e-09 -1.94262e-09 0
-1.51537e-08 8.53469e-09 0
-1.57397e-08 5.92229e-09 0
-6.24346e-05 -0.0004931 0
-9.11715e-09 6.89579e-09 0
-1.36945e-08 9.76315e-09 0
-1.43409e-08 1.40533e-08 0
-8.2721e-09 7.53834e-09 0
-4.44096e-09 3.07367e-09 0
-6.75778e-09 5.69609e-09 0
-1.41893e-08 1.3345e-08 0
-7.66206e-09 1.14668e-08 0
-0.000399932 0.000307078 0
-3.03228e-09 1.05434e-08 0
-8.75984e-09 1.30665e-08 0
-8.88389e-09 5.1368e-09 0
-2.21001e-09 2.92366e-09 0
-1.86158e-09 -2.55249e-10 0
-4.69449e-09 1.3389e-09 0
-4.97813e-09 -3.65091e-10 0
-2.36019e-09 -1.77972e-09 0
-3.78018e-09 -1.61386e-09 0
-1.1866e-08 -4.44507e-10 0
-2.19413e-08 1.91994e-09 0
-0.000125437 -0.000467402 0
-9.95579e-09 9.02841e-09 0
-1.28248e-08 1.07043e-08 0
-7.95011e-09 5.84182e-09 0
-6.06247e-09 3.02516e-09 0
-1.52759e-08 7.26159e-09 0
-1.67529e-08 9.80682e-09 0
-1.3074e-08 6.80657e-09 0
-0.000438064 0.000252725 0
-4.27347e-09 3.36891e-09 0
-5.67648e-09 -3.72666e-10 0
-2.85341e-09 7.71373e-10 0
-2.71808e-09 -9.92597e-10 0
-5.8419e-09 1.24483e-09 0
-5.00749e-09 -3.72741e-10 0
-3.38489e-09 -1.57492e-09 0
-4.24632e-09 -1.23796e-09 0
-4.44779e-09 -2.58686e-09 0
-6.8002e-09 -5.42951e-09 0
-1.33273e-08 -1.21519e-08 0
-0.000192416 -0.000464277 0
-8.98564e-09 5.76037e-09 0
-6.72961e-09 3.41614e-09 0
-1.5122e-08 5.28215e-09 0
-2.38118e-08 4.91035e-09 0
-1.66114e-08 5.98636e-09 0
-0.00047473 0.000196438 0