# vtk DataFile Version 2.0
CellBP Time: 7.76
ASCII
DATASET UNSTRUCTURED_GRID
POINTS 296 double
-8.95216 -3.66674 0
-8.39342 -4.81942 0
-9.344 -2.44462 0
-9.61971 -1.21395 0
-8.10837 -2.71568 0
-7.67711 -5.88602 0
-6.82859 -6.8503 0
-7.66758 -3.73868 0
-7.10767 -4.71201 0
-5.90145 -7.71741 0
-4.87072 -8.44944 0
-9.72682 0.038538 0
-9.66986 1.31546 0
-8.4271 -1.62378 0
-8.58271 -0.505264 0
-7.35311 -1.91927 0
-6.98097 -2.78561 0
-6.44972 -5.63026 0
-5.68126 -6.44975 0
-6.55335 -3.74859 0
-6.01859 -4.53284 0
-3.72012 -9.01426 0
-2.49132 -9.41418 0
-4.80298 -7.16705 0
-3.85166 -7.74943 0
-8.59798 0.629994 0
-9.44831 2.59299 0
-8.45233 1.73101 0
-9.038 3.80998 0
-7.52991 -0.885386 0
-7.59504 0.0890819 0
-6.74557 -1.255 0
-1.21895 -9.65243 0
-6.25076 -2.07174 0
-6.12002 -2.94677 0
-5.37753 -5.33541 0
-4.67422 -5.98095 0
-5.48185 -3.63889 0
-5.10061 -4.43367 0
-2.82024 -8.21187 0
-1.74722 -8.47106 0
-3.84479 -6.59341 0
-3.01313 -7.02564 0
0.0549861 -9.71308 0
-7.51995 1.11661 0
-8.19425 2.86275 0
-7.38164 2.05133 0
-8.42661 4.93293 0
-7.7124 3.885 0
-7.66946 5.97089 0
-6.59261 -0.369915 0
-6.77166 0.549208 0
-5.62903 -0.970763 0
-0.580924 -8.61941 0
0.544509 -8.55469 0
-5.16317 -2.40527 0
-4.35628 -4.96687 0
-3.80256 -5.64923 0
-4.32161 -3.71239 0
-2.02685 -7.41837 0
-1.11621 -7.62784 0
-2.93259 -5.97789 0
-2.27302 -6.49584 0
1.31286 -9.59777 0
-6.52733 1.38207 0
-6.99812 3.03082 0
-6.50173 2.30929 0
-7.11851 4.85809 0
-6.55584 3.89123 0
-6.82687 6.92001 0
-6.40381 5.73759 0
-5.88155 7.77702 0
-4.37722 -1.16662 0
-5.68432 0.493184 0
-4.57794 -0.0271229 0
-0.00490169 -7.66339 0
1.68274 -8.40442 0
0.905472 -7.5553 0
-3.96437 -2.35575 0
-3.45694 -1.38 0
-3.2203 -4.70596 0
-3.2193 -3.20976 0
-1.36606 -6.5351 0
-0.518797 -6.86232 0
-1.94763 -5.43721 0
2.56387 -9.35098 0
-5.38824 1.99364 0
-5.94959 2.98644 0
-5.95759 4.73457 0
-5.61816 3.87347 0
-5.60739 6.53453 0
-5.31293 5.45934 0
-4.84976 8.52764 0
-4.70781 7.19787 0
-3.46227 -0.419153 0
-4.36701 1.22849 0
-3.65478 0.58593 0
-3.98544 2.29404 0
-3.7104 9.09694 0
2.7616 -8.07215 0
0.375053 -6.61328 0
1.93464 -7.29708 0
1.23658 -6.70328 0
-2.4261 -0.863695 0
-2.81273 -2.10716 0
-2.26591 -4.02747 0
-2.29759 -2.92877 0
-0.451262 -5.7271 0
-1.20185 -4.42312 0
3.77658 -8.95685 0
-4.67785 3.30832 0
-4.96056 4.46215 0
-4.5263 6.09591 0
-4.42358 5.20599 0
-3.75489 7.79968 0
-3.71803 6.63845 0
-2.71231 8.20505 0
-1.6351 -0.1243 0
-1.43662 -0.87623 0
-2.47196 0.517242 0
-3.20438 1.43493 0
-3.17722 3.26243 0
-2.86679 2.35948 0
-1.35102 0.638047 0
-2.48833 9.48301 0
3.80037 -7.64179 0
2.84182 -6.91044 0
0.901099 -5.66599 0
1.98424 -6.20937 0
-1.66295 -1.97543 0
-1.41505 -3.23362 0
0.0798689 -4.65147 0
-0.55427 -3.64027 0
4.78107 -7.08442 0
4.9214 -8.39808 0
-3.68848 4.44052 0
-3.63895 5.59373 0
-2.80178 7.07981 0
-2.93025 6.17747 0
-1.623 8.52626 0
-1.88235 7.42315 0
-2.29956 3.9802 0
-0.720946 -1.31729 0
-0.829741 -0.244693 0
-1.9309 1.69394 0
-2.10254 2.85695 0
-1.29746 3.50704 0
-0.871848 1.361 0
-0.286209 0.463967 0
-0.522102 8.67656 0
-1.22678 9.72069 0
1.07122 -4.46418 0
3.75809 -6.46432 0
2.87316 -5.88519 0
2.03753 -5.25901 0
4.63247 -5.98462 0
-0.548065 -2.45721 0
0.48935 -3.41402 0
0.0592619 -1.60216 0
1.44537 -3.59927 0
5.70739 -6.41249 0
5.98491 -7.68234 0
-2.41768 5.22042 0
-2.06616 6.3606 0
-0.872915 7.62625 0
-1.22296 6.75759 0
0.0924964 7.71809 0
-1.12758 4.4195 0
0.148367 -0.611562 0
-0.808142 2.49453 0
-0.344285 3.57408 0
0.0524481 1.51518 0
0.733213 0.474142 0
0.629677 8.70144 0
0.0427132 9.82882 0
2.30776 -4.16391 0
3.73148 -5.44043 0
2.90278 -5.04295 0
5.42962 -5.3174 0
4.55328 -5.09145 0
0.632348 -2.28379 0
1.23918 -2.90795 0
0.758705 -1.38774 0
2.11896 -3.06987 0
2.92499 -3.38839 0
6.01956 -4.65921 0
6.49943 -5.61578 0
6.94145 -6.82423 0
-0.990981 5.69393 0
-0.345788 6.72772 0
1.1043 7.62723 0
0.563047 6.93445 0
-0.00270285 4.66017 0
0.593698 3.78831 0
1.33243 -0.641724 0
0.523126 2.63937 0
0.950708 1.57639 0
1.89285 0.207985 0
1.59948 1.06036 0
2.09818 7.44999 0
1.76912 8.55379 0
1.32558 9.75757 0
3.72291 -4.21422 0
4.98958 -4.29598 0
5.72235 -3.82013 0
3.7052 -3.11287 0
1.79698 -1.87626 0
2.96969 -2.52724 0
6.65169 -3.85145 0
7.23177 -4.78776 0
7.80689 -5.89017 0
0.480912 5.77082 0
1.4113 6.61822 0
2.34171 6.55682 0
1.18999 4.49277 0
1.46513 3.35704 0
2.40962 -0.689715 0
2.79591 0.139814 0
1.76762 2.14979 0
2.59069 1.14069 0
3.02771 7.05049 0
2.8619 8.22889 0
2.59437 9.51338 0
4.80879 -3.23057 0
6.00395 -3.03043 0
4.10327 -2.23184 0
3.20013 -1.48863 0
6.6178 -2.2745 0
7.11141 -2.98623 0
7.82983 -3.84712 0
8.54294 -4.86069 0
1.99871 5.50937 0
3.01564 6.0393 0
2.3343 4.06568 0
2.39264 3.0212 0
3.47944 -0.45294 0
3.57234 0.613397 0
2.92656 2.25982 0
3.49047 1.50614 0
3.90756 5.7767 0
3.90381 6.6673 0
3.91418 7.80151 0
3.81989 9.10933 0
5.47782 -1.88105 0
4.44374 -1.10903 0
6.59459 -1.31081 0
7.46187 -2.00014 0
8.248 -2.81325 0
9.11236 -3.71526 0
3.3308 4.77815 0
3.27314 3.32264 0
4.61717 0.133621 0
4.42746 1.28074 0
3.97196 2.38865 0
4.43015 5.02816 0
4.71898 6.06038 0
4.88055 7.23021 0
4.9651 8.53955 0
5.76928 -0.435957 0
6.86874 -0.486075 0
7.61993 -1.05766 0
8.52512 -1.71028 0
9.51489 -2.48754 0
4.42222 3.73343 0
5.67508 1.05481 0
5.21595 2.45882 0
5.20333 4.49351 0
5.44692 5.38801 0
5.75791 6.51924 0
5.99491 7.8068 0
6.68053 0.432076 0
7.68816 -0.0266075 0
8.68546 -0.562497 0
9.75646 -1.21653 0
6.77484 1.29028 0
5.5339 3.66597 0
6.34819 2.11085 0
6.17228 2.981 0
6.08624 4.55088 0
6.5043 5.68594 0
6.9353 6.94899 0
7.59816 0.932084 0
8.65796 0.561154 0
9.82237 0.0623683 0
7.40446 1.93343 0
6.58672 3.76518 0
7.03739 2.83707 0
7.16368 4.74688 0
7.79319 5.99369 0
8.49751 1.68104 0
9.70312 1.31989 0
8.17126 2.74789 0
7.75218 3.80303 0
8.50949 4.932 0
9.45928 2.57269 0
9.06671 3.78627 0
CELLS 542 2168
3 2 0 4
3 0 1 7
3 4 0 7
3 1 5 8
3 7 1 8
3 3 2 13
3 13 2 4
3 11 3 14
3 14 3 13
3 13 4 15
3 4 7 16
3 15 4 16
3 5 6 17
3 8 5 17
3 6 9 18
3 17 6 18
3 7 8 19
3 16 7 19
3 8 17 20
3 19 8 20
3 9 10 23
3 18 9 23
3 10 21 24
3 23 10 24
3 12 11 25
3 25 11 14
3 26 12 27
3 27 12 25
3 14 13 29
3 29 13 15
3 25 14 30
3 30 14 29
3 29 15 31
3 15 16 33
3 31 15 33
3 16 19 34
3 33 16 34
3 17 18 35
3 20 17 35
3 18 23 36
3 35 18 36
3 19 20 37
3 34 19 37
3 20 35 38
3 37 20 38
3 21 22 39
3 24 21 39
3 22 32 40
3 39 22 40
3 23 24 41
3 36 23 41
3 24 39 42
3 41 24 42
3 27 25 44
3 44 25 30
3 28 26 45
3 45 26 27
3 45 27 46
3 46 27 44
3 47 28 48
3 48 28 45
3 30 29 50
3 50 29 31
3 44 30 51
3 51 30 50
3 50 31 52
3 31 33 52
3 32 43 53
3 40 32 53
3 53 43 54
3 33 34 55
3 34 37 55
3 33 55 52
3 35 36 56
3 38 35 56
3 36 41 57
3 56 36 57
3 37 38 58
3 38 56 58
3 37 58 55
3 39 40 59
3 42 39 59
3 40 53 60
3 59 40 60
3 41 42 61
3 57 41 61
3 42 59 62
3 61 42 62
3 43 63 54
3 46 44 64
3 64 44 51
3 48 45 65
3 65 45 46
3 65 46 66
3 66 46 64
3 49 47 67
3 67 47 48
3 67 48 68
3 68 48 65
3 69 49 70
3 70 49 67
3 52 55 72
3 64 51 73
3 51 50 73
3 50 52 73
3 73 52 74
3 74 52 72
3 53 54 75
3 60 53 75
3 54 63 76
3 54 76 77
3 75 54 77
3 55 58 78
3 72 55 78
3 72 78 79
3 56 57 80
3 57 61 80
3 56 80 58
3 58 80 81
3 78 58 81
3 59 60 82
3 62 59 82
3 60 75 83
3 82 60 83
3 61 62 84
3 62 82 84
3 61 84 80
3 63 85 76
3 66 64 86
3 64 73 86
3 68 65 87
3 87 65 66
3 87 66 86
3 70 67 88
3 88 67 68
3 88 68 89
3 89 68 87
3 71 69 90
3 90 69 70
3 90 70 91
3 91 70 88
3 92 71 93
3 93 71 90
3 74 72 94
3 94 72 79
3 86 73 95
3 95 73 74
3 95 74 96
3 96 74 94
3 97 86 95
3 76 85 99
3 75 77 100
3 83 75 100
3 76 99 101
3 77 76 101
3 77 101 102
3 100 77 102
3 94 79 103
3 78 81 104
3 79 78 104
3 79 104 103
3 80 84 105
3 81 80 105
3 81 105 106
3 104 81 106
3 82 83 107
3 83 100 107
3 82 107 84
3 84 107 108
3 105 84 108
3 85 109 99
3 89 87 110
3 87 86 110
3 110 86 97
3 91 88 111
3 111 88 89
3 111 89 110
3 93 90 112
3 112 90 91
3 112 91 113
3 113 91 111
3 98 92 114
3 114 92 93
3 114 93 115
3 115 93 112
3 116 98 114
3 117 103 118
3 96 94 119
3 94 103 119
3 119 103 117
3 97 95 120
3 120 95 96
3 120 96 119
3 121 110 97
3 121 97 122
3 122 97 120
3 123 119 117
3 124 98 116
3 99 109 125
3 99 125 126
3 101 99 126
3 100 102 127
3 100 127 107
3 101 126 128
3 102 101 128
3 102 128 127
3 104 106 129
3 104 129 103
3 103 129 118
3 105 108 130
3 106 105 130
3 106 130 129
3 107 127 131
3 108 107 131
3 108 131 132
3 108 132 130
3 109 134 125
3 125 134 133
3 113 111 135
3 111 110 135
3 135 110 121
3 115 112 136
3 136 112 113
3 136 113 135
3 116 114 137
3 137 114 115
3 137 115 138
3 138 115 136
3 139 124 116
3 139 116 140
3 140 116 137
3 141 135 121
3 118 129 142
3 118 142 143
3 117 118 143
3 123 117 143
3 122 120 144
3 120 119 144
3 144 119 123
3 141 121 145
3 145 121 122
3 145 122 144
3 146 141 145
3 147 144 123
3 147 123 148
3 143 148 123
3 150 124 139
3 149 150 139
3 131 127 151
3 125 133 152
3 126 125 152
3 126 152 153
3 128 126 153
3 128 153 154
3 128 154 127
3 127 154 151
3 152 133 155
3 130 132 156
3 130 156 129
3 129 156 142
3 131 151 157
3 132 131 157
3 132 157 156
3 156 158 142
3 157 151 159
3 133 160 155
3 134 161 133
3 133 161 160
3 138 136 162
3 136 135 162
3 162 135 141
3 140 137 163
3 163 137 138
3 163 138 162
3 149 139 164
3 164 139 140
3 164 140 165
3 165 140 163
3 166 149 164
3 167 162 141
3 167 141 146
3 142 158 168
3 143 142 168
3 143 168 148
3 146 145 169
3 145 144 169
3 169 144 147
3 170 167 146
3 170 146 169
3 171 169 147
3 171 147 148
3 171 148 172
3 168 172 148
3 173 149 166
3 174 150 149
3 173 174 149
3 154 175 151
3 151 175 159
3 152 155 176
3 153 152 176
3 153 176 177
3 153 177 154
3 154 177 175
3 155 160 178
3 155 178 179
3 176 155 179
3 156 157 180
3 156 180 158
3 157 159 181
3 157 181 180
3 158 180 182
3 158 182 168
3 159 175 183
3 159 183 181
3 175 184 183
3 160 186 178
3 178 186 185
3 161 187 160
3 160 187 186
3 165 163 188
3 163 162 188
3 188 162 167
3 166 164 189
3 189 164 165
3 189 165 188
3 190 173 166
3 190 166 191
3 191 166 189
3 192 188 167
3 192 167 170
3 193 192 170
3 182 194 168
3 194 172 168
3 193 170 195
3 170 169 195
3 195 169 171
3 196 195 171
3 196 171 172
3 194 197 172
3 197 198 172
3 198 196 172
3 200 173 190
3 199 200 190
3 201 174 173
3 200 201 173
3 176 179 202
3 177 176 202
3 177 202 175
3 175 202 184
3 178 185 203
3 178 203 179
3 179 203 202
3 203 185 204
3 202 205 184
3 183 206 181
3 180 181 206
3 180 206 182
3 182 206 194
3 183 184 207
3 205 207 184
3 183 207 206
3 185 208 204
3 186 209 185
3 185 209 208
3 187 210 186
3 186 210 209
3 191 189 211
3 189 188 211
3 211 188 192
3 199 190 212
3 212 190 191
3 212 191 211
3 213 199 212
3 214 211 192
3 214 192 193
3 215 214 193
3 215 193 195
3 206 216 194
3 216 197 194
3 216 217 197
3 215 195 218
3 218 195 196
3 198 218 196
3 217 219 197
3 219 218 198
3 197 219 198
3 220 199 213
3 221 200 199
3 220 221 199
3 222 201 200
3 221 222 200
3 203 204 223
3 203 223 202
3 202 223 205
3 204 208 224
3 204 224 223
3 205 223 225
3 205 225 207
3 207 225 226
3 207 226 206
3 226 216 206
3 208 228 224
3 224 228 227
3 209 229 208
3 229 228 208
3 210 230 209
3 209 230 229
3 213 212 231
3 212 211 231
3 231 211 214
3 232 220 213
3 232 213 231
3 233 231 214
3 233 214 215
3 234 233 215
3 234 215 218
3 226 235 216
3 235 217 216
3 235 236 217
3 217 236 219
3 237 234 218
3 237 218 219
3 236 238 219
3 238 237 219
3 240 220 232
3 239 240 232
3 241 221 220
3 240 241 220
3 242 222 221
3 241 242 221
3 224 227 243
3 224 243 223
3 223 243 225
3 225 243 244
3 225 244 226
3 226 244 235
3 227 245 243
3 228 246 227
3 227 246 245
3 229 247 228
3 228 247 246
3 230 248 229
3 229 248 247
3 239 232 249
3 232 231 249
3 249 231 233
3 250 249 233
3 250 233 234
3 237 250 234
3 244 251 235
3 235 251 236
3 251 252 236
3 236 252 238
3 252 253 238
3 253 250 237
3 253 237 238
3 254 239 249
3 255 240 239
3 254 255 239
3 256 241 240
3 255 256 240
3 257 242 241
3 256 257 241
3 245 258 243
3 243 258 244
3 244 258 251
3 245 259 258
3 246 260 245
3 245 260 259
3 247 261 246
3 246 261 260
3 248 262 247
3 247 262 261
3 254 249 263
3 263 249 250
3 253 263 250
3 258 264 251
3 251 264 252
3 264 265 252
3 265 263 253
3 252 265 253
3 266 254 263
3 267 255 254
3 266 267 254
3 268 256 255
3 267 268 255
3 269 257 256
3 268 269 256
3 259 270 258
3 270 264 258
3 260 271 259
3 259 271 270
3 261 272 260
3 260 272 271
3 262 273 261
3 273 272 261
3 270 274 264
3 275 266 263
3 275 263 265
3 274 276 264
3 276 265 264
3 276 277 265
3 277 275 265
3 278 267 266
3 275 278 266
3 279 268 267
3 278 279 267
3 280 269 268
3 279 280 268
3 271 281 270
3 270 281 274
3 272 282 271
3 271 282 281
3 273 283 272
3 272 283 282
3 281 284 274
3 274 284 276
3 285 278 275
3 277 285 275
3 284 286 276
3 286 285 277
3 276 286 277
3 287 279 278
3 285 287 278
3 288 280 279
3 287 288 279
3 282 289 281
3 281 289 284
3 283 290 282
3 282 290 289
3 289 291 284
3 284 291 286
3 291 292 286
3 292 287 285
3 286 292 285
3 293 288 287
3 292 293 287
3 290 294 289
3 289 294 291
3 294 295 291
3 295 293 292
3 291 295 292
CELL_TYPES 542
5
5
5
5
5
5
5
5
5
5
5
5
5
5
5
5
5
5
5
5
5
5
5
5
5
5
5
5
5
5
5
5
5
5
5
5
5
5
5
5
5
5
5
5
5
5
5
5
5
5
5
5
5
5
5
5
5
5
5
5
5
5
5
5
5
5
5
5
5
5
5
5
5
5
5
5
5
5
5
5
5
5
5
5
5
5
5
5
5
5
5
5
5
5
5
5
5
5
5
5
5
5
5
5
5
5
5
5
5
5
5
5
5
5
5
5
5
5
5
5
5
5
5
5
5
5
5
5
5
5
5
5
5
5
5
5
5
5
5
5
5
5
5
5
5
5
5
5
5
5
5
5
5
5
5
5
5
5
5
5
5
5
5
5
5
5
5
5
5
5
5
5
5
5
5
5
5
5
5
5
5
5
5
5
5
5
5
5
5
5
5
5
5
5
5
5
5
5
5
5
5
5
5
5
5
5
5
5
5
5
5
5
5
5
5
5
5
5
5
5
5
5
5
5
5
5
5
5
5
5
5
5
5
5
5
5
5
5
5
5
5
5
5
5
5
5
5
5
5
5
5
5
5
5
5
5
5
5
5
5
5
5
5
5
5
5
5
5
5
5
5
5
5
5
5
5
5
5
5
5
5
5
5
5
5
5
5
5
5
5
5
5
5
5
5
5
5
5
5
5
5
5
5
5
5
5
5
5
5
5
5
5
5
5
5
5
5
5
5
5
5
5
5
5
5
5
5
5
5
5
5
5
5
5
5
5
5
5
5
5
5
5
5
5
5
5
5
5
5
5
5
5
5
5
5
5
5
5
5
5
5
5
5
5
5
5
5
5
5
5
5
5
5
5
5
5
5
5
5
5
5
5
5
5
5
5
5
5
5
5
5
5
5
5
5
5
5
5
5
5
5
5
5
5
5
5
5
5
5
5
5
5
5
5
5
5
5
5
5
5
5
5
5
5
5
5
5
5
5
5
5
5
5
5
5
5
5
5
5
5
5
5
5
5
5
5
5
5
5
5
5
5
5
5
5
5
5
5
5
5
5
5
5
5
5
5
5
5
5
5
5
5
5
5
5
5
5
5
5
5
5
5
5
5
5
5
5
5
5
5
5
5
5
5
5
5
5
5
5
5
5
5
5
5
5
5
5
5
5
5
5
5
5
5
5
5
5
5
5
5
5
5
5
5
5
5
5
5
5
5
5
5
5
5
5
5
5
5
5
5
5
5
POINT_DATA 296
SCALARS concentrations float 4
LOOKUP_TABLE default
0 0.954747 0.123408 8.4018
0 0.95476 0.122876 4.84253
0 0.954732 0.124252 3.28897
0 0.954716 0.122849 6.96293
0 0.954754 0.0940621 -0.26037
0 0.954752 0.122292 4.99019
0 0.954794 0.126257 6.67327
0 0.954768 0.0947893 0.0552972
0 0.954758 0.0937204 0.266335
0 0.954807 0.12707 5.43457
0 0.954758 0.123465 -0.401783
0 0.954774 0.126916 0.233583
0 0.954836 0.123683 3.82505
0 0.954743 0.0933621 -0.313206
0 0.954745 0.0936403 -0.611184
0 0.954764 0.0946685 -0.725331
0 0.954773 0.0956768 0.607178
0 0.95477 0.0937366 -0.405161
0 0.954791 0.0935696 0.503988
0 0.95477 0.0947592 -0.328658
0 0.954759 0.093722 0.514553
0 0.954703 0.124238 7.64159
0 0.954714 0.12575 8.87164
0 0.954783 0.093662 0.342295
0 0.954736 0.0932905 0.63317
0 0.954793 0.0934736 -0.0160489
0 0.954847 0.122746 3.46704
0 0.9548 0.0938413 0.810279
0 0.954787 0.122334 7.57896
0 0.954762 0.094205 0.578985
0 0.95476 0.0940867 -0.474765
0 0.954764 0.0938758 -0.304154
0 0.954727 0.124716 5.69425
0 0.954762 0.0941989 -0.658415
0 0.954766 0.0943767 0.135283
0 0.954761 0.0940839 0.660707
0 0.954763 0.0936948 0.262847
0 0.954754 0.0941142 0.553762
0 0.954747 0.0938814 -0.347321
0 0.954719 0.0933058 0.611229
0 0.954724 0.0935134 -0.898075
0 0.954762 0.0935741 -0.358456
0 0.954752 0.0941167 -0.797665
0 0.954746 0.125974 9.15019
0 0.954753 0.0938333 1.04821
0 0.954796 0.0950716 0.201464
0 0.95475 0.0948636 0.720432
0 0.954744 0.124727 -0.568322
0 0.954754 0.0937282 -0.336245
0 0.95473 0.125471 3.19243
0 0.954767 0.093949 -0.624149
0 0.954759 0.0948495 1.09241
0 0.954761 0.0944422 0.606906
0 0.954739 0.0926975 -0.779931
0 0.954757 0.0935037 0.562629
0 0.954756 0.0944153 -0.284313
0 0.954748 0.0942755 0.650847
0 0.954752 0.0938022 -0.2527
0 0.954751 0.0940567 -0.800025
0 0.954741 0.0939566 -1.12233
0 0.954744 0.0932829 -1.14996
0 0.954761 0.0947837 -0.91461
0 0.954765 0.0944748 -1.2325
0 0.954766 0.125441 2.81677
0 0.954768 0.0989599 -0.620789
0 0.954753 0.0946072 0.28379
0 0.954763 0.0946381 1.43976
0 0.954767 0.0939131 0.145359
0 0.954768 0.0944433 -0.10142
0 0.954675 0.124932 6.61629
0 0.954722 0.0931744 -0.395891
0 0.954719 0.127076 8.14934
0 0.95477 0.0959872 -0.256626
0 0.954767 0.0969252 0.478243
0 0.954766 0.096074 0.864163
0 0.954754 0.0928569 0.80819
0 0.954771 0.0933334 1.08082
0 0.954767 0.0928824 0.849356
0 0.954757 0.0944444 -0.485763
0 0.954769 0.102074 -2.39677
0 0.954758 0.0937131 0.356042
0 0.954759 0.093119 -0.203224
0 0.954762 0.0952915 0.813819
0 0.954761 0.0934434 0.850777
0 0.95477 0.0942594 0.999303
0 0.954764 0.121423 3.1582
0 0.954773 0.0933196 0.452717
0 0.954762 0.0946529 1.74787
0 0.954771 0.0937869 -0.206031
0 0.954765 0.0950601 -0.554311
0 0.954711 0.0930126 0.340516
0 0.954752 0.0938404 -0.308291
0 0.954749 0.124644 8.53639
0 0.954744 0.0938525 0.230448
0 0.95478 0.0945428 -0.287678
0 0.954765 0.0936558 -0.100559
0 0.954773 0.0939327 0.252261
0 0.954772 0.0940623 0.344129
0 0.954748 0.119905 1.55449
0 0.954756 0.0947338 1.58532
0 0.954766 0.0931999 -0.90517
0 0.954767 0.0940692 -0.797921
0 0.954769 0.0936012 0.964442
0 0.954775 0.0937111 -0.263021
0 0.954761 0.0934393 0.184133
0 0.954771 0.0937452 -0.83137
0 0.954768 0.0935308 -0.745934
0 0.954765 0.0940715 -1.24304
0 0.954772 0.0944466 1.09485
0 0.954753 0.122207 4.88726
0 0.954767 0.0937391 -0.427099
0 0.954766 0.094015 0.332075
0 0.95475 0.093536 -0.285986
0 0.95476 0.0936963 -0.367212
0 0.954745 0.0940919 -0.738746
0 0.954761 0.0948297 0.86133
0 0.954765 0.0933865 0.158024
0 0.954782 0.0941102 0.186626
0 0.954784 0.0938053 -0.0419409
0 0.954778 0.0933766 -0.207428
0 0.954773 0.0933228 -0.318346
0 0.954769 0.0945619 -0.276907
0 0.954774 0.0955477 -0.353629
0 0.954785 0.094698 -0.658459
0 0.954781 0.123769 4.66869
0 0.954778 0.094961 -0.303731
0 0.954768 0.095256 0.344629
0 0.954765 0.0934834 -1.05054
0 0.954765 0.0940416 1.00217
0 0.954774 0.0939866 -0.963212
0 0.954772 0.0935362 -0.934864
0 0.954767 0.0939684 0.941861
0 0.95477 0.0946233 0.611028
0 0.954809 0.0948288 0.878716
0 0.954818 0.122885 0.642912
0 0.954763 0.0930812 -0.278027
0 0.954767 0.0945808 -0.358268
0 0.954761 0.0950828 0.240544
0 0.95478 0.0940973 -0.533574
0 0.954773 0.0926912 0.16549
0 0.954767 0.0946911 0.252518
0 0.954764 0.0952767 -0.0316392
0 0.954784 0.0941355 -0.812994
0 0.954785 0.0939361 0.0214274
0 0.95478 0.0952364 -0.0424463
0 0.954771 0.0952501 -0.299866
0 0.954776 0.0949223 0.183578
0 0.954792 0.0968716 -0.950466
0 0.954788 0.0967563 -1.40187
0 0.954756 0.093709 -0.383846
0 0.954753 0.125945 3.25044
0 0.954768 0.094648 1.43071
0 0.954779 0.095605 -1.18801
0 0.954766 0.0951728 -0.411534
0 0.954761 0.0943091 -0.86346
0 0.954784 0.0960775 -0.226363
0 0.954775 0.0950339 0.260228
0 0.95477 0.0947957 1.63875
0 0.954789 0.0989836 -0.535032
0 0.954774 0.0950793 0.9579
0 0.95478 0.094117 -1.01822
0 0.954808 0.122514 4.90874
0 0.954768 0.0949541 0.600202
0 0.95477 0.0931359 -0.268633
0 0.954764 0.092937 -0.166268
0 0.954753 0.094261 -0.470122
0 0.954769 0.095311 0.480931
0 0.954768 0.0938212 0.116057
0 0.954792 0.100326 -1.31371
0 0.954787 0.0964729 -0.685501
0 0.954781 0.0953912 -0.159145
0 0.954792 0.0941894 -0.275371
0 0.954791 0.0937745 -0.773064
0 0.954765 0.0939346 0.277455
0 0.954753 0.125359 4.84216
0 0.954768 0.0950438 -0.356579
0 0.954774 0.099665 -2.42556
0 0.954763 0.0954566 0.763948
0 0.95478 0.093862 -1.19641
0 0.954782 0.0954715 0.686883
0 0.954779 0.0962753 1.24621
0 0.954772 0.0949623 0.232028
0 0.954791 0.096319 -0.215892
0 0.954773 0.0944217 -0.78576
0 0.954767 0.0954556 -1.42009
0 0.954763 0.0939071 -1.44469
0 0.95478 0.0933841 -0.834215
0 0.954767 0.12348 2.82895
0 0.954761 0.0939486 -0.0253263
0 0.954752 0.0952231 -0.767975
0 0.954768 0.0964168 -0.185119
0 0.954769 0.0958992 0.665566
0 0.954771 0.0942663 -1.01289
0 0.954776 0.0945183 -0.384799
0 0.954793 0.0953041 1.34761
0 0.954784 0.0934421 0.29841
0 0.954779 0.103164 3.23601
0 0.954782 0.0936861 -0.99476
0 0.954767 0.0933765 -0.585435
0 0.954759 0.095922 0.661306
0 0.954768 0.093848 1.00335
0 0.95477 0.125832 8.58711
0 0.954767 0.0940235 0.210668
0 0.954765 0.0945305 1.06029
0 0.954748 0.0937562 -0.973242
0 0.954759 0.0941492 0.407176
0 0.954777 0.0947669 -2.15687
0 0.954764 0.0945579 -1.07245
0 0.954753 0.0939581 -0.378707
0 0.954787 0.0936026 -0.220712
0 0.954805 0.123504 2.89447
0 0.954758 0.0967338 0.701124
0 0.954757 0.099099 -0.24688
0 0.954749 0.0977692 -0.628872
0 0.954769 0.0939147 -0.435234
0 0.954783 0.0938134 0.363791
0 0.954776 0.0935086 -1.21874
0 0.954777 0.0941536 1.13944
0 0.954768 0.0932553 0.252227
0 0.954772 0.093832 -0.525566
0 0.954751 0.0968648 -0.650795
0 0.954771 0.0943685 0.471649
0 0.954778 0.123052 7.15209
0 0.954754 0.0941562 0.743555
0 0.954739 0.0958129 -1.58394
0 0.954766 0.0946117 -0.00795983
0 0.95477 0.0959578 0.294726
0 0.954751 0.0962226 -0.437015
0 0.954758 0.0952208 1.24682
0 0.954766 0.0942282 1.15393
0 0.95479 0.124889 4.87159
0 0.954747 0.0977594 -1.0357
0 0.954741 0.0961069 -0.363867
0 0.954768 0.102986 1.08329
0 0.954786 0.0955806 0.985981
0 0.954774 0.0939883 0.843799
0 0.954772 0.0947749 0.0328066
0 0.954768 0.0959812 0.922553
0 0.954766 0.0969284 -0.48118
0 0.954753 0.094139 -0.962131
0 0.954754 0.0965463 -0.188163
0 0.954789 0.093808 0.822341
0 0.954791 0.12278 1.12913
0 0.954759 0.104026 -2.05922
0 0.954774 0.0951016 0.833349
0 0.954779 0.094826 -1.57927
0 0.954771 0.0942543 -1.53399
0 0.954765 0.0945352 1.07825
0 0.954772 0.12434 3.65159
0 0.954753 0.0959513 -0.77398
0 0.954769 0.0955188 -0.924813
0 0.954767 0.0950799 -1.32924
0 0.954765 0.0942471 -0.513904
0 0.954762 0.0931459 0.0236607
0 0.954766 0.0946368 0.686251
0 0.954765 0.093431 -0.790601
0 0.95478 0.0933292 0.691224
0 0.954812 0.124444 2.30387
0 0.954779 0.0998659 -1.76434
0 0.954791 0.0956272 1.46112
0 0.954764 0.09527 1.57238
0 0.954746 0.0947015 1.1525
0 0.954755 0.125913 5.05949
0 0.954762 0.0955001 -0.462791
0 0.954766 0.0947022 -0.253124
0 0.954759 0.0929126 -0.0838887
0 0.954753 0.0952173 -0.594563
0 0.954765 0.0937243 0.719246
0 0.954762 0.0936127 0.23249
0 0.954762 0.124914 8.03128
0 0.95478 0.0944171 1.00116
0 0.95476 0.0938764 0.966862
0 0.95473 0.0939498 0.109172
0 0.954721 0.124474 5.3721
0 0.95477 0.0940596 0.207956
0 0.954747 0.093446 -0.364641
0 0.954761 0.0929838 -0.104613
0 0.95475 0.0937715 -0.277547
0 0.954752 0.102642 0.369479
0 0.954765 0.0938539 0.313033
0 0.954761 0.123682 2.42823
0 0.95476 0.0936123 0.557928
0 0.954737 0.092909 -0.640892
0 0.95472 0.122666 0.914163
0 0.954758 0.0935436 0.102088
0 0.954742 0.0956278 0.0259368
0 0.954748 0.0935088 0.0554211
0 0.954745 0.0937137 0.16361
0 0.954746 0.122512 4.66513
0 0.954753 0.0930477 0.0338556
0 0.954737 0.1222 6.97836
0 0.95476 0.0932693 0.110255
0 0.954739 0.0940409 0.00920202
0 0.95473 0.122517 9.24417
0 0.954768 0.123248 5.84239
0 0.954754 0.122989 5.00279
VECTORS fa_u float
0.0071764 0.00287258 -0
0.00660032 0.0037921 -0
0.00305822 0.000832334 -0
0.0071342 0.00109986 -0
1e-08 0 0
0.00521067 0.00401492 -0
0.00265134 0.00257066 -0
1e-08 0 0
1e-08 0 0
0.00449373 0.00550177 -0
0.00518801 0.0087263 -0
0.00663062 0.000131443 -0
0.00621873 -0.00067804 0
1e-08 0 0
1e-08 0 0
1e-08 0 0
1e-08 0 0
1e-08 0 0
1e-08 0 0
1e-08 0 0
1e-08 0 0
0.00291866 0.00719847 -0
0.00159821 0.00626391 -0
1e-08 0 0
1e-08 0 0
1e-08 0 0
0.00880291 -0.00222974 0
1e-08 0 0
0.0106838 -0.00466492 0
1e-08 0 0
1e-08 0 0
1e-08 0 0
0.000854693 0.00728121 -0
1e-08 0 0
1e-08 0 0
1e-08 0 0
1e-08 0 0
1e-08 0 0
1e-08 0 0
1e-08 0 0
1e-08 0 0
1e-08 0 0
1e-08 0 0
-0.000163593 0.00757732 -0
1e-08 0 0
1e-08 0 0
1e-08 0 0
0.00569174 -0.00360468 0
1e-08 0 0
0.00279317 -0.00224871 0
1e-08 0 0
1e-08 0 0
1e-08 0 0
1e-08 0 0
1e-08 0 0
1e-08 0 0
1e-08 0 0
1e-08 0 0
1e-08 0 0
1e-08 0 0
1e-08 0 0
1e-08 0 0
1e-08 0 0
-0.000599848 0.00415616 0
1e-08 0 0
1e-08 0 0
1e-08 0 0
1e-08 0 0
1e-08 0 0
0.00326914 -0.00323615 0
1e-08 0 0
0.00285059 -0.00350573 0
1e-08 0 0
1e-08 0 0
1e-08 0 0
1e-08 0 0
1e-08 0 0
1e-08 0 0
1e-08 0 0
1e-08 0 0
1e-08 0 0
1e-08 0 0
1e-08 0 0
1e-08 0 0
1e-08 0 0
-0.00140454 0.00539916 0
1e-08 0 0
1e-08 0 0
1e-08 0 0
1e-08 0 0
1e-08 0 0
1e-08 0 0
0.00555265 -0.00913365 0
1e-08 0 0
1e-08 0 0
1e-08 0 0
1e-08 0 0
1e-08 0 0
0.00361707 -0.00894054 0
1e-08 0 0
1e-08 0 0
1e-08 0 0
1e-08 0 0
1e-08 0 0
1e-08 0 0
1e-08 0 0
1e-08 0 0
1e-08 0 0
1e-08 0 0
-0.00286316 0.00708367 0
1e-08 0 0
1e-08 0 0
1e-08 0 0
1e-08 0 0
1e-08 0 0
1e-08 0 0
1e-08 0 0
1e-08 0 0
1e-08 0 0
1e-08 0 0
1e-08 0 0
1e-08 0 0
1e-08 0 0
1e-08 0 0
0.0013579 -0.00540684 0
1e-08 0 0
1e-08 0 0
1e-08 0 0
1e-08 0 0
1e-08 0 0
1e-08 0 0
1e-08 0 0
1e-08 0 0
1e-08 0 0
-0.00372612 0.00645622 0
1e-08 0 0
1e-08 0 0
1e-08 0 0
1e-08 0 0
1e-08 0 0
1e-08 0 0
1e-08 0 0
1e-08 0 0
1e-08 0 0
1e-08 0 0
1e-08 0 0
1e-08 0 0
1e-08 0 0
1e-08 0 0
1e-08 0 0
0.000541404 -0.00396257 0
1e-08 0 0
1e-08 0 0
1e-08 0 0
1e-08 0 0
1e-08 0 0
1e-08 0 0
1e-08 0 0
1e-08 0 0
1e-08 0 0
1e-08 0 0
-0.00459651 0.00589965 0
1e-08 0 0
1e-08 0 0
1e-08 0 0
1e-08 0 0
1e-08 0 0
1e-08 0 0
1e-08 0 0
1e-08 0 0
1e-08 0 0
1e-08 0 0
1e-08 0 0
1e-08 0 0
0.000110927 -0.0076771 0
1e-08 0 0
1e-08 0 0
1e-08 0 0
1e-08 0 0
1e-08 0 0
1e-08 0 0
1e-08 0 0
1e-08 0 0
1e-08 0 0
1e-08 0 0
1e-08 0 0
1e-08 0 0
-0.00233123 0.00237 0
1e-08 0 0
1e-08 0 0
1e-08 0 0
1e-08 0 0
1e-08 0 0
1e-08 0 0
1e-08 0 0
1e-08 0 0
1e-08 0 0
1e-08 0 0
1e-08 0 0
1e-08 0 0
1e-08 0 0
-0.00085985 -0.00695561 0
1e-08 0 0
1e-08 0 0
1e-08 0 0
1e-08 0 0
1e-08 0 0
1e-08 0 0
1e-08 0 0
1e-08 0 0
-0.00487378 0.00397512 0
1e-08 0 0
1e-08 0 0
1e-08 0 0
1e-08 0 0
1e-08 0 0
1e-08 0 0
1e-08 0 0
1e-08 0 0
1e-08 0 0
1e-08 0 0
1e-08 0 0
-0.00159899 -0.00615266 0
1e-08 0 0
1e-08 0 0
1e-08 0 0
1e-08 0 0
1e-08 0 0
1e-08 0 0
1e-08 0 0
-0.00851238 0.00510946 0
1e-08 0 0
1e-08 0 0
1e-08 0 0
1e-08 0 0
1e-08 0 0
1e-08 0 0
1e-08 0 0
1e-08 0 0
1e-08 0 0
1e-08 0 0
1e-08 0 0
-0.00301908 -0.00734976 0
1e-08 0 0
1e-08 0 0
1e-08 0 0
1e-08 0 0
1e-08 0 0
-0.00748372 0.00306503 0
1e-08 0 0
1e-08 0 0
1e-08 0 0
1e-08 0 0
1e-08 0 0
1e-08 0 0
1e-08 0 0
1e-08 0 0
-0.00493923 -0.00824777 0
1e-08 0 0
1e-08 0 0
1e-08 0 0
1e-08 0 0
-0.00621044 0.00160089 0
1e-08 0 0
1e-08 0 0
1e-08 0 0
1e-08 0 0
1e-08 0 0
1e-08 0 0
-0.00361918 -0.004483 0
1e-08 0 0
1e-08 0 0
1e-08 0 0
-0.00714031 0.000861018 0
1e-08 0 0
1e-08 0 0
1e-08 0 0
1e-08 0 0
1e-08 0 0
1e-08 0 0
-0.002747 -0.00272453 0
1e-08 0 0
1e-08 0 0
-0.00834491 -0.00017549 0
1e-08 0 0
1e-08 0 0
1e-08 0 0
1e-08 0 0
-0.00584702 -0.00456338 0
1e-08 0 0
-0.00371179 -0.000536873 0
1e-08 0 0
1e-08 0 0
-0.00669997 -0.00386538 0
-0.00550437 -0.00142033 0
-0.00708256 -0.00285124 0
