# vtk DataFile Version 2.0
CellBP Time: 11.96
ASCII
DATASET UNSTRUCTURED_GRID
POINTS 296 double
-8.9163 -3.64974 0
-8.36011 -4.79966 0
-9.30386 -2.43029 0
-9.58293 -1.20704 0
-8.07362 -2.70146 0
-7.6454 -5.86174 0
-6.79892 -6.82368 0
-7.63587 -3.71946 0
-7.0773 -4.69286 0
-5.87874 -7.69024 0
-4.8565 -8.42333 0
-9.69256 0.0376256 0
-9.63941 1.31035 0
-8.39491 -1.61583 0
-8.55295 -0.501806 0
-7.32427 -1.90787 0
-6.95066 -2.76994 0
-6.42417 -5.60633 0
-5.65903 -6.42478 0
-6.52375 -3.72997 0
-5.99146 -4.5137 0
-3.70936 -8.98552 0
-2.48322 -9.38343 0
-4.78806 -7.14273 0
-3.84197 -7.72951 0
-8.56897 0.628392 0
-9.42147 2.58606 0
-8.42641 1.72578 0
-9.01338 3.79932 0
-7.49928 -0.878139 0
-7.5682 0.0901068 0
-6.71732 -1.24915 0
-1.21329 -9.61868 0
-6.22706 -2.06013 0
-6.09141 -2.93043 0
-5.3543 -5.31393 0
-4.66007 -5.9614 0
-5.45967 -3.62327 0
-5.07733 -4.41936 0
-2.81437 -8.18751 0
-1.74278 -8.44589 0
-3.83328 -6.57588 0
-3.00824 -7.00854 0
0.055516 -9.67709 0
-7.49733 1.1125 0
-8.17877 2.85398 0
-7.3611 2.04511 0
-8.39757 4.9149 0
-7.68816 3.87362 0
-7.63746 5.94617 0
-6.56863 -0.367176 0
-6.7494 0.549949 0
-5.60771 -0.966837 0
-0.58031 -8.59172 0
0.543049 -8.5213 0
-5.14557 -2.39502 0
-4.33274 -4.95075 0
-3.78698 -5.63171 0
-4.30541 -3.69839 0
-2.02252 -7.39853 0
-1.11294 -7.60757 0
-2.92354 -5.96304 0
-2.26708 -6.47905 0
1.30684 -9.55759 0
-6.50523 1.38098 0
-6.9771 3.02044 0
-6.48269 2.30119 0
-7.09169 4.84121 0
-6.53219 3.87849 0
-6.79749 6.89009 0
-6.37855 5.71291 0
-5.85722 7.74596 0
-4.36852 -1.16513 0
-5.67097 0.490154 0
-4.56692 -0.0276702 0
-0.0053895 -7.63758 0
1.67998 -8.37153 0
0.900138 -7.52782 0
-3.95336 -2.35053 0
-3.45205 -1.3795 0
-3.21061 -4.69487 0
-3.21141 -3.20152 0
-1.36287 -6.51513 0
-0.51989 -6.8421 0
-1.94505 -5.42306 0
2.55296 -9.31253 0
-5.37104 1.98755 0
-5.93159 2.97506 0
-5.93266 4.71333 0
-5.59951 3.85712 0
-5.58569 6.50692 0
-5.29432 5.4375 0
-4.83356 8.49946 0
-4.69396 7.17156 0
-3.45661 -0.419079 0
-4.35506 1.22216 0
-3.64516 0.583099 0
-3.97467 2.29171 0
-3.69938 9.06639 0
2.7494 -8.03933 0
0.370961 -6.5852 0
1.92741 -7.26694 0
1.22973 -6.67783 0
-2.4225 -0.860312 0
-2.80972 -2.10332 0
-2.26185 -4.01671 0
-2.29584 -2.92342 0
-0.451053 -5.71126 0
-1.19917 -4.41501 0
3.76178 -8.9219 0
-4.66447 3.29722 0
-4.94264 4.44314 0
-4.50941 6.0723 0
-4.40851 5.18476 0
-3.74353 7.77334 0
-3.70048 6.61316 0
-2.70436 8.17573 0
-1.63299 -0.123406 0
-1.43363 -0.871246 0
-2.46865 0.518696 0
-3.19834 1.43429 0
-3.16912 3.25711 0
-2.86138 2.3574 0
-1.34748 0.637025 0
-2.48112 9.44907 0
3.78473 -7.61027 0
2.82879 -6.88044 0
0.894627 -5.64596 0
1.97244 -6.18379 0
-1.66013 -1.97266 0
-1.4131 -3.2285 0
0.0774647 -4.63903 0
-0.551561 -3.63512 0
4.76275 -7.05498 0
4.90185 -8.36614 0
-3.6787 4.42584 0
-3.62893 5.57436 0
-2.79077 7.05352 0
-2.91974 6.15367 0
-1.61679 8.49676 0
-1.87561 7.39745 0
-2.29659 3.97106 0
-0.719507 -1.31326 0
-0.828293 -0.243136 0
-1.92909 1.69428 0
-2.10074 2.85262 0
-1.29805 3.50316 0
-0.872763 1.36059 0
-0.284902 0.465227 0
-0.520707 8.64703 0
-1.22279 9.68315 0
1.06547 -4.44818 0
3.73885 -6.43246 0
2.85805 -5.85802 0
2.02729 -5.23857 0
4.61492 -5.9556 0
-0.547162 -2.45252 0
0.488765 -3.4056 0
0.0611297 -1.60002 0
1.44163 -3.58855 0
5.68327 -6.3818 0
5.96176 -7.65264 0
-2.411 5.20402 0
-2.05728 6.33869 0
-0.869367 7.60003 0
-1.21795 6.73499 0
0.0928846 7.69604 0
-1.125 4.41108 0
0.147707 -0.61163 0
-0.810824 2.49514 0
-0.345997 3.5707 0
0.0511826 1.51714 0
0.729329 0.473672 0
0.629691 8.67753 0
0.0410219 9.79489 0
2.29891 -4.15079 0
3.7143 -5.41738 0
2.89105 -5.02184 0
5.41139 -5.29777 0
4.53599 -5.06908 0
0.633799 -2.28106 0
1.23846 -2.90179 0
0.759732 -1.38783 0
2.11393 -3.06156 0
2.91606 -3.37553 0
5.99713 -4.64004 0
6.47843 -5.59464 0
6.91449 -6.79551 0
-0.986731 5.67541 0
-0.342425 6.70711 0
1.10157 7.6059 0
0.563667 6.91683 0
-0.00284922 4.64831 0
0.590988 3.78006 0
1.33153 -0.641324 0
0.521448 2.63598 0
0.948676 1.57766 0
1.8891 0.206845 0
1.59604 1.06041 0
2.09507 7.43227 0
1.76735 8.53006 0
1.32044 9.72485 0
3.70983 -4.19519 0
4.97233 -4.27548 0
5.70373 -3.80348 0
3.69744 -3.10385 0
1.79592 -1.87586 0
2.96322 -2.5218 0
6.63084 -3.8368 0
7.20819 -4.76915 0
7.77972 -5.86769 0
0.480369 5.7567 0
1.40893 6.6008 0
2.3365 6.54011 0
1.18628 4.48488 0
1.46109 3.35095 0
2.40474 -0.690786 0
2.78819 0.138298 0
1.76416 2.14949 0
2.58741 1.13853 0
3.02035 7.03212 0
2.85667 8.20744 0
2.58637 9.48176 0
4.79652 -3.21761 0
5.98885 -3.02089 0
4.09199 -2.22613 0
3.19453 -1.48818 0
6.60499 -2.27169 0
7.09159 -2.97927 0
7.80827 -3.83676 0
8.51654 -4.84669 0
1.99311 5.49479 0
3.00485 6.02319 0
2.33085 4.05857 0
2.38798 3.0162 0
3.47414 -0.452104 0
3.56579 0.613746 0
2.92442 2.25553 0
3.48203 1.50238 0
3.89243 5.7583 0
3.88995 6.64623 0
3.90352 7.77956 0
3.80927 9.07998 0
5.467 -1.87759 0
4.43479 -1.10593 0
6.58224 -1.30954 0
7.443 -1.99642 0
8.22647 -2.80939 0
9.08436 -3.70559 0
3.31776 4.76522 0
3.26299 3.31295 0
4.60642 0.133087 0
4.41414 1.27664 0
3.95832 2.38089 0
4.41073 5.01063 0
4.70065 6.04149 0
4.86301 7.21156 0
4.94991 8.51171 0
5.75313 -0.435841 0
6.84819 -0.48765 0
7.60005 -1.05675 0
8.50235 -1.70527 0
9.48409 -2.48049 0
4.40516 3.71882 0
5.65471 1.05001 0
5.19842 2.4486 0
5.18113 4.47469 0
5.4219 5.3694 0
5.73619 6.49447 0
5.97198 7.77921 0
6.66111 0.42599 0
7.66585 -0.0312971 0
8.6603 -0.557916 0
9.72377 -1.21136 0
6.75129 1.28362 0
5.50934 3.64972 0
6.3201 2.09706 0
6.14506 2.96377 0
6.05637 4.53054 0
6.47636 5.66162 0
6.90628 6.92271 0
7.5706 0.927522 0
8.625 0.560216 0
9.78619 0.0632024 0
7.37875 1.92117 0
6.55495 3.74685 0
7.00586 2.82378 0
7.13625 4.72842 0
7.76366 5.97104 0
8.46914 1.67334 0
9.66411 1.31418 0
8.1342 2.73643 0
7.71885 3.78598 0
8.47761 4.91358 0
9.4207 2.56217 0
9.03197 3.77217 0
CELLS 542 2168
3 2 0 4
3 0 1 7
3 4 0 7
3 1 5 8
3 7 1 8
3 3 2 13
3 13 2 4
3 11 3 14
3 14 3 13
3 13 4 15
3 4 7 16
3 15 4 16
3 5 6 17
3 8 5 17
3 6 9 18
3 17 6 18
3 7 8 19
3 16 7 19
3 8 17 20
3 19 8 20
3 9 10 23
3 18 9 23
3 10 21 24
3 23 10 24
3 12 11 25
3 25 11 14
3 26 12 27
3 27 12 25
3 14 13 29
3 29 13 15
3 25 14 30
3 30 14 29
3 29 15 31
3 15 16 33
3 31 15 33
3 16 19 34
3 33 16 34
3 17 18 35
3 20 17 35
3 18 23 36
3 35 18 36
3 19 20 37
3 34 19 37
3 20 35 38
3 37 20 38
3 21 22 39
3 24 21 39
3 22 32 40
3 39 22 40
3 23 24 41
3 36 23 41
3 24 39 42
3 41 24 42
3 27 25 44
3 44 25 30
3 28 26 45
3 45 26 27
3 45 27 46
3 46 27 44
3 47 28 48
3 48 28 45
3 30 29 50
3 50 29 31
3 44 30 51
3 51 30 50
3 50 31 52
3 31 33 52
3 32 43 53
3 40 32 53
3 53 43 54
3 33 34 55
3 34 37 55
3 33 55 52
3 35 36 56
3 38 35 56
3 36 41 57
3 56 36 57
3 37 38 58
3 38 56 58
3 37 58 55
3 39 40 59
3 42 39 59
3 40 53 60
3 59 40 60
3 41 42 61
3 57 41 61
3 42 59 62
3 61 42 62
3 43 63 54
3 46 44 64
3 64 44 51
3 48 45 65
3 65 45 46
3 65 46 66
3 66 46 64
3 49 47 67
3 67 47 48
3 67 48 68
3 68 48 65
3 69 49 70
3 70 49 67
3 52 55 72
3 64 51 73
3 51 50 73
3 50 52 73
3 73 52 74
3 74 52 72
3 53 54 75
3 60 53 75
3 54 63 76
3 54 76 77
3 75 54 77
3 55 58 78
3 72 55 78
3 72 78 79
3 56 57 80
3 57 61 80
3 56 80 58
3 58 80 81
3 78 58 81
3 59 60 82
3 62 59 82
3 60 75 83
3 82 60 83
3 61 62 84
3 62 82 84
3 61 84 80
3 63 85 76
3 66 64 86
3 64 73 86
3 68 65 87
3 87 65 66
3 87 66 86
3 70 67 88
3 88 67 68
3 88 68 89
3 89 68 87
3 71 69 90
3 90 69 70
3 90 70 91
3 91 70 88
3 92 71 93
3 93 71 90
3 74 72 94
3 94 72 79
3 86 73 95
3 95 73 74
3 95 74 96
3 96 74 94
3 97 86 95
3 76 85 99
3 75 77 100
3 83 75 100
3 76 99 101
3 77 76 101
3 77 101 102
3 100 77 102
3 94 79 103
3 78 81 104
3 79 78 104
3 79 104 103
3 80 84 105
3 81 80 105
3 81 105 106
3 104 81 106
3 82 83 107
3 83 100 107
3 82 107 84
3 84 107 108
3 105 84 108
3 85 109 99
3 89 87 110
3 87 86 110
3 110 86 97
3 91 88 111
3 111 88 89
3 111 89 110
3 93 90 112
3 112 90 91
3 112 91 113
3 113 91 111
3 98 92 114
3 114 92 93
3 114 93 115
3 115 93 112
3 116 98 114
3 117 103 118
3 96 94 119
3 94 103 119
3 119 103 117
3 97 95 120
3 120 95 96
3 120 96 119
3 121 110 97
3 121 97 122
3 122 97 120
3 123 119 117
3 124 98 116
3 99 109 125
3 99 125 126
3 101 99 126
3 100 102 127
3 100 127 107
3 101 126 128
3 102 101 128
3 102 128 127
3 104 106 129
3 104 129 103
3 103 129 118
3 105 108 130
3 106 105 130
3 106 130 129
3 107 127 131
3 108 107 131
3 108 131 132
3 108 132 130
3 109 134 125
3 125 134 133
3 113 111 135
3 111 110 135
3 135 110 121
3 115 112 136
3 136 112 113
3 136 113 135
3 116 114 137
3 137 114 115
3 137 115 138
3 138 115 136
3 139 124 116
3 139 116 140
3 140 116 137
3 141 135 121
3 118 129 142
3 118 142 143
3 117 118 143
3 123 117 143
3 122 120 144
3 120 119 144
3 144 119 123
3 141 121 145
3 145 121 122
3 145 122 144
3 146 141 145
3 147 144 123
3 147 123 148
3 143 148 123
3 150 124 139
3 149 150 139
3 131 127 151
3 125 133 152
3 126 125 152
3 126 152 153
3 128 126 153
3 128 153 154
3 128 154 127
3 127 154 151
3 152 133 155
3 130 132 156
3 130 156 129
3 129 156 142
3 131 151 157
3 132 131 157
3 132 157 156
3 156 158 142
3 157 151 159
3 133 160 155
3 134 161 133
3 133 161 160
3 138 136 162
3 136 135 162
3 162 135 141
3 140 137 163
3 163 137 138
3 163 138 162
3 149 139 164
3 164 139 140
3 164 140 165
3 165 140 163
3 166 149 164
3 167 162 141
3 167 141 146
3 142 158 168
3 143 142 168
3 143 168 148
3 146 145 169
3 145 144 169
3 169 144 147
3 170 167 146
3 170 146 169
3 171 169 147
3 171 147 148
3 171 148 172
3 168 172 148
3 173 149 166
3 174 150 149
3 173 174 149
3 154 175 151
3 151 175 159
3 152 155 176
3 153 152 176
3 153 176 177
3 153 177 154
3 154 177 175
3 155 160 178
3 155 178 179
3 176 155 179
3 156 157 180
3 156 180 158
3 157 159 181
3 157 181 180
3 158 180 182
3 158 182 168
3 159 175 183
3 159 183 181
3 175 184 183
3 160 186 178
3 178 186 185
3 161 187 160
3 160 187 186
3 165 163 188
3 163 162 188
3 188 162 167
3 166 164 189
3 189 164 165
3 189 165 188
3 190 173 166
3 190 166 191
3 191 166 189
3 192 188 167
3 192 167 170
3 193 192 170
3 182 194 168
3 194 172 168
3 193 170 195
3 170 169 195
3 195 169 171
3 196 195 171
3 196 171 172
3 194 197 172
3 197 198 172
3 198 196 172
3 200 173 190
3 199 200 190
3 201 174 173
3 200 201 173
3 176 179 202
3 177 176 202
3 177 202 175
3 175 202 184
3 178 185 203
3 178 203 179
3 179 203 202
3 203 185 204
3 202 205 184
3 183 206 181
3 180 181 206
3 180 206 182
3 182 206 194
3 183 184 207
3 205 207 184
3 183 207 206
3 185 208 204
3 186 209 185
3 185 209 208
3 187 210 186
3 186 210 209
3 191 189 211
3 189 188 211
3 211 188 192
3 199 190 212
3 212 190 191
3 212 191 211
3 213 199 212
3 214 211 192
3 214 192 193
3 215 214 193
3 215 193 195
3 206 216 194
3 216 197 194
3 216 217 197
3 215 195 218
3 218 195 196
3 198 218 196
3 217 219 197
3 219 218 198
3 197 219 198
3 220 199 213
3 221 200 199
3 220 221 199
3 222 201 200
3 221 222 200
3 203 204 223
3 203 223 202
3 202 223 205
3 204 208 224
3 204 224 223
3 205 223 225
3 205 225 207
3 207 225 226
3 207 226 206
3 226 216 206
3 208 228 224
3 224 228 227
3 209 229 208
3 229 228 208
3 210 230 209
3 209 230 229
3 213 212 231
3 212 211 231
3 231 211 214
3 232 220 213
3 232 213 231
3 233 231 214
3 233 214 215
3 234 233 215
3 234 215 218
3 226 235 216
3 235 217 216
3 235 236 217
3 217 236 219
3 237 234 218
3 237 218 219
3 236 238 219
3 238 237 219
3 240 220 232
3 239 240 232
3 241 221 220
3 240 241 220
3 242 222 221
3 241 242 221
3 224 227 243
3 224 243 223
3 223 243 225
3 225 243 244
3 225 244 226
3 226 244 235
3 227 245 243
3 228 246 227
3 227 246 245
3 229 247 228
3 228 247 246
3 230 248 229
3 229 248 247
3 239 232 249
3 232 231 249
3 249 231 233
3 250 249 233
3 250 233 234
3 237 250 234
3 244 251 235
3 235 251 236
3 251 252 236
3 236 252 238
3 252 253 238
3 253 250 237
3 253 237 238
3 254 239 249
3 255 240 239
3 254 255 239
3 256 241 240
3 255 256 240
3 257 242 241
3 256 257 241
3 245 258 243
3 243 258 244
3 244 258 251
3 245 259 258
3 246 260 245
3 245 260 259
3 247 261 246
3 246 261 260
3 248 262 247
3 247 262 261
3 254 249 263
3 263 249 250
3 253 263 250
3 258 264 251
3 251 264 252
3 264 265 252
3 265 263 253
3 252 265 253
3 266 254 263
3 267 255 254
3 266 267 254
3 268 256 255
3 267 268 255
3 269 257 256
3 268 269 256
3 259 270 258
3 270 264 258
3 260 271 259
3 259 271 270
3 261 272 260
3 260 272 271
3 262 273 261
3 273 272 261
3 270 274 264
3 275 266 263
3 275 263 265
3 274 276 264
3 276 265 264
3 276 277 265
3 277 275 265
3 278 267 266
3 275 278 266
3 279 268 267
3 278 279 267
3 280 269 268
3 279 280 268
3 271 281 270
3 270 281 274
3 272 282 271
3 271 282 281
3 273 283 272
3 272 283 282
3 281 284 274
3 274 284 276
3 285 278 275
3 277 285 275
3 284 286 276
3 286 285 277
3 276 286 277
3 287 279 278
3 285 287 278
3 288 280 279
3 287 288 279
3 282 289 281
3 281 289 284
3 283 290 282
3 282 290 289
3 289 291 284
3 284 291 286
3 291 292 286
3 292 287 285
3 286 292 285
3 293 288 287
3 292 293 287
3 290 294 289
3 289 294 291
3 294 295 291
3 295 293 292
3 291 295 292
CELL_TYPES 542
5
5
5
5
5
5
5
5
5
5
5
5
5
5
5
5
5
5
5
5
5
5
5
5
5
5
5
5
5
5
5
5
5
5
5
5
5
5
5
5
5
5
5
5
5
5
5
5
5
5
5
5
5
5
5
5
5
5
5
5
5
5
5
5
5
5
5
5
5
5
5
5
5
5
5
5
5
5
5
5
5
5
5
5
5
5
5
5
5
5
5
5
5
5
5
5
5
5
5
5
5
5
5
5
5
5
5
5
5
5
5
5
5
5
5
5
5
5
5
5
5
5
5
5
5
5
5
5
5
5
5
5
5
5
5
5
5
5
5
5
5
5
5
5
5
5
5
5
5
5
5
5
5
5
5
5
5
5
5
5
5
5
5
5
5
5
5
5
5
5
5
5
5
5
5
5
5
5
5
5
5
5
5
5
5
5
5
5
5
5
5
5
5
5
5
5
5
5
5
5
5
5
5
5
5
5
5
5
5
5
5
5
5
5
5
5
5
5
5
5
5
5
5
5
5
5
5
5
5
5
5
5
5
5
5
5
5
5
5
5
5
5
5
5
5
5
5
5
5
5
5
5
5
5
5
5
5
5
5
5
5
5
5
5
5
5
5
5
5
5
5
5
5
5
5
5
5
5
5
5
5
5
5
5
5
5
5
5
5
5
5
5
5
5
5
5
5
5
5
5
5
5
5
5
5
5
5
5
5
5
5
5
5
5
5
5
5
5
5
5
5
5
5
5
5
5
5
5
5
5
5
5
5
5
5
5
5
5
5
5
5
5
5
5
5
5
5
5
5
5
5
5
5
5
5
5
5
5
5
5
5
5
5
5
5
5
5
5
5
5
5
5
5
5
5
5
5
5
5
5
5
5
5
5
5
5
5
5
5
5
5
5
5
5
5
5
5
5
5
5
5
5
5
5
5
5
5
5
5
5
5
5
5
5
5
5
5
5
5
5
5
5
5
5
5
5
5
5
5
5
5
5
5
5
5
5
5
5
5
5
5
5
5
5
5
5
5
5
5
5
5
5
5
5
5
5
5
5
5
5
5
5
5
5
5
5
5
5
5
5
5
5
5
5
5
5
5
5
5
5
5
5
5
5
5
5
5
5
5
5
5
5
5
5
5
5
5
5
5
5
5
5
5
5
5
5
5
5
5
5
5
5
5
5
5
5
5
5
5
5
5
5
5
5
5
5
5
5
5
5
5
5
5
5
5
5
5
5
5
5
5
5
POINT_DATA 296
SCALARS concentrations float 4
LOOKUP_TABLE default
0 0.947922 0.106423 3.36986
0 0.947892 0.103498 1.05802
0 0.947909 0.110666 3.71549
0 0.947841 0.101074 1.6469
0 0.947885 0.0925061 -0.382568
0 0.947864 0.11187 5.98105
0 0.947846 0.105367 1.58493
0 0.947883 0.0930752 -0.94385
0 0.94785 0.0923948 0.330758
0 0.947797 0.104436 3.20957
0 0.947753 0.114873 5.07988
0 0.947782 0.105012 0.442918
0 0.947781 0.10837 2.67882
0 0.947862 0.0925347 -0.426654
0 0.947802 0.0927606 -0.293886
0 0.947836 0.092834 -0.401417
0 0.947838 0.0929809 -0.638707
0 0.947835 0.0923663 -0.521816
0 0.947807 0.0922959 -0.268794
0 0.947828 0.0926196 0.214995
0 0.947814 0.0924334 0.161643
0 0.947754 0.104149 2.90035
0 0.947789 0.111556 3.78748
0 0.947771 0.0923851 -0.195511
0 0.947758 0.0930375 -0.129062
0 0.947791 0.0929467 0.144142
0 0.947804 0.103547 0.700968
0 0.947803 0.0940522 0.548449
0 0.947878 0.104513 0.919026
0 0.947826 0.0930941 -0.415897
0 0.947812 0.0930151 0.247438
0 0.947833 0.0930498 0.404038
0 0.94777 0.105466 3.94479
0 0.94783 0.092954 -0.374447
0 0.947827 0.0931243 -0.465646
0 0.947804 0.0925632 -0.636631
0 0.947792 0.0925778 0.43025
0 0.947824 0.0927522 0.542272
0 0.947815 0.0930046 0.594484
0 0.947779 0.0926217 0.0549356
0 0.947792 0.092628 0.116994
0 0.947787 0.0932394 -0.252646
0 0.947796 0.0936691 -0.240292
0 0.947786 0.104104 0.819709
0 0.947817 0.0945181 0.53674
0 0.947848 0.0932671 -0.221166
0 0.947837 0.0950266 0.0533065
0 0.947826 0.100935 2.4513
0 0.947861 0.0933303 0.201561
0 0.947771 0.102286 1.28675
0 0.94783 0.0929829 0.153389
0 0.947824 0.0932033 0.146577
0 0.947834 0.0929752 0.25958
0 0.94779 0.0929227 0.239697
0 0.947813 0.0925996 0.267196
0 0.947832 0.0932742 0.228322
0 0.947819 0.09276 -0.525587
0 0.947817 0.0934714 0.19485
0 0.947829 0.092979 0.00913554
0 0.947811 0.0934556 -0.147046
0 0.947823 0.0933881 -0.224013
0 0.947825 0.0933422 0.0311279
0 0.947826 0.0954596 -0.51914
0 0.9478 0.106094 2.80957
0 0.947832 0.0942951 0.266763
0 0.947846 0.0940806 -1.04395
0 0.947839 0.0939771 0.312818
0 0.947787 0.092481 0.343387
0 0.947826 0.0931815 -0.366493
0 0.9478 0.105809 2.39011
0 0.947793 0.0925516 0.282192
0 0.947827 0.105055 2.56743
0 0.947836 0.0935237 0.197585
0 0.947831 0.0938899 -0.261338
0 0.947835 0.093818 -0.0318242
0 0.947828 0.0929823 0.337514
0 0.947815 0.0926237 0.418342
0 0.94783 0.093133 0.453937
0 0.947834 0.0937025 0.303936
0 0.947841 0.093267 -0.135447
0 0.947831 0.0934162 -0.108559
0 0.947831 0.0933618 0.181489
0 0.947834 0.0936834 0.323557
0 0.947842 0.0939417 0.315788
0 0.947832 0.0950259 0.240568
0 0.947815 0.104013 -1.01483
0 0.94783 0.093359 -0.657274
0 0.947835 0.0937666 -0.560664
0 0.947806 0.093308 -0.0500402
0 0.947824 0.0932789 -0.500765
0 0.947809 0.0924035 -0.0647439
0 0.947813 0.0925477 0.0891158
0 0.94783 0.109167 4.73013
0 0.947837 0.0925871 -0.375451
0 0.947841 0.0935282 0.151728
0 0.947831 0.0930406 -0.382145
0 0.947838 0.0929418 -0.360163
0 0.947828 0.0949637 -0.44156
0 0.947822 0.104888 -0.730139
0 0.947829 0.0937815 0.716961
0 0.94784 0.0934346 0.17768
0 0.947827 0.0932587 0.202931
0 0.947829 0.0943475 -0.477035
0 0.947846 0.0939914 0.344906
0 0.947839 0.0957357 -0.747844
0 0.947834 0.0934014 -0.118038
0 0.947836 0.093539 -0.230427
0 0.94783 0.0996151 -1.66693
0 0.947825 0.09357 0.198511
0 0.947833 0.101976 1.47699
0 0.947828 0.0937685 -0.327793
0 0.947824 0.0934762 -0.108089
0 0.947821 0.0929007 -0.0162511
0 0.947825 0.0932224 -0.32065
0 0.947816 0.0924701 0.203676
0 0.94782 0.0931387 -0.274415
0 0.947854 0.0930431 -0.192455
0 0.947846 0.0936872 -0.221889
0 0.947846 0.0939118 -0.571833
0 0.947843 0.0937519 0.508641
0 0.947835 0.0945111 0.70367
0 0.947829 0.0945787 0.0324733
0 0.947833 0.0948809 -0.450348
0 0.947849 0.0938135 -0.729609
0 0.947901 0.105085 -0.0654627
0 0.947825 0.0941899 0.813809
0 0.947825 0.0943015 0.774621
0 0.947824 0.0938954 0.704182
0 0.947821 0.094104 0.74204
0 0.947842 0.0926855 -0.0346442
0 0.947834 0.0935809 0.0878702
0 0.947813 0.0944321 0.184781
0 0.947817 0.0937544 0.166545
0 0.947818 0.0953995 -0.690601
0 0.94782 0.105726 1.19539
0 0.947828 0.0936759 0.237637
0 0.947821 0.0930565 -0.383879
0 0.947824 0.0931525 0.0440198
0 0.947816 0.092727 -0.5902
0 0.947884 0.0921212 -0.117983
0 0.947841 0.0930552 0.044357
0 0.947829 0.0944443 0.925881
0 0.947836 0.0938491 0.517552
0 0.947843 0.0941465 0.026573
0 0.947843 0.0983171 -1.20522
0 0.947839 0.0941623 -0.99526
0 0.947847 0.0943855 0.448249
0 0.94785 0.096279 -1.12299
0 0.947845 0.0948492 -0.708591
0 0.947879 0.0927225 0.152644
0 0.947891 0.103937 -0.599947
0 0.947823 0.094004 -0.340618
0 0.947818 0.0947484 0.947253
0 0.947818 0.0934163 -0.613497
0 0.947821 0.0932388 -0.13841
0 0.947812 0.0944236 0.872661
0 0.94783 0.0940437 -0.242889
0 0.947824 0.0992105 -0.0352298
0 0.94783 0.0936548 0.383249
0 0.947836 0.0962586 0.894735
0 0.947832 0.093912 0.657662
0 0.947832 0.108157 -1.73742
0 0.94782 0.0974638 1.37893
0 0.947826 0.0930122 0.174958
0 0.947854 0.0930751 0.206562
0 0.947833 0.0929093 -0.0907611
0 0.947859 0.0935758 -0.528684
0 0.947838 0.101424 0.450054
0 0.947837 0.0933421 -0.136895
0 0.947846 0.0989394 -1.07125
0 0.947854 0.0943656 -0.335935
0 0.947842 0.0969561 0.562283
0 0.947838 0.0930843 -0.23417
0 0.947893 0.0932845 0.373815
0 0.947897 0.105951 2.23702
0 0.947829 0.0942942 0.394224
0 0.947816 0.0936797 0.172882
0 0.94782 0.0935385 -0.0541246
0 0.947816 0.092582 -0.40007
0 0.947811 0.0937221 0.120195
0 0.947836 0.0987667 1.02515
0 0.947841 0.0947575 0.457971
0 0.947834 0.0937509 -0.0826891
0 0.947839 0.0949212 -0.0549562
0 0.947834 0.0943154 0.238644
0 0.947816 0.092601 -0.679775
0 0.947851 0.0929656 -0.0713218
0 0.947854 0.102119 0.279045
0 0.947829 0.0932694 -0.0217854
0 0.947838 0.093243 0.262627
0 0.947863 0.0941525 0.731581
0 0.947843 0.0939811 -0.190872
0 0.947845 0.093969 -0.359726
0 0.947845 0.0928402 -0.248571
0 0.947836 0.10017 -1.21979
0 0.947843 0.0940342 -0.503963
0 0.947838 0.0939446 -0.150088
0 0.947835 0.0943199 -0.636835
0 0.94784 0.0935505 -0.104194
0 0.947855 0.0938253 0.309586
0 0.947888 0.0938814 0.347385
0 0.947909 0.104992 0.127019
0 0.947819 0.0947098 -0.355893
0 0.947807 0.0932512 0.737268
0 0.947797 0.0927492 -0.774259
0 0.947822 0.0941672 0.896526
0 0.947835 0.0935119 0.0551882
0 0.947834 0.0936216 -0.575193
0 0.947818 0.0938615 -0.292762
0 0.947852 0.0929645 0.078613
0 0.947881 0.106883 0.0682797
0 0.947836 0.0938764 0.448235
0 0.947846 0.0948229 1.23914
0 0.947842 0.0955602 1.15311
0 0.947833 0.0942638 -0.261713
0 0.947835 0.0951549 0.773483
0 0.94783 0.0951828 0.337213
0 0.947824 0.0945249 -0.796143
0 0.947838 0.0940209 -0.524806
0 0.947834 0.0974512 0.836687
0 0.947846 0.0942441 0.776259
0 0.947868 0.0936798 0.698525
0 0.947895 0.110379 -3.1541
0 0.947806 0.0941467 1.16765
0 0.947798 0.0938015 0.75095
0 0.94782 0.0945562 -0.112052
0 0.94783 0.0939823 0.0594066
0 0.947806 0.0934605 0.708241
0 0.947822 0.0945168 0.219344
0 0.947859 0.0938104 -0.624317
0 0.947872 0.104055 -0.28812
0 0.94783 0.0998131 2.65708
0 0.947828 0.0974011 0.731932
0 0.947821 0.0937067 -1.0883
0 0.947825 0.0936384 -0.297346
0 0.947824 0.0942146 -1.03347
0 0.947825 0.0951921 0.340681
0 0.947828 0.0955741 1.12986
0 0.947828 0.0953076 0.391862
0 0.947818 0.0944659 0.478411
0 0.947839 0.0940042 0.898192
0 0.947852 0.0938322 -0.592798
0 0.94787 0.105745 1.62907
0 0.947809 0.0957877 -0.769995
0 0.94782 0.0937127 0.894261
0 0.947811 0.0931233 0.712728
0 0.947821 0.0944453 -0.739973
0 0.947855 0.0934701 -0.383313
0 0.947886 0.111271 -3.05786
0 0.947814 0.0941447 -0.475363
0 0.947815 0.0943632 -1.00288
0 0.947821 0.093651 -0.197376
0 0.947823 0.0939946 0.436172
0 0.94782 0.0931161 -0.558258
0 0.94782 0.0940751 0.700625
0 0.947836 0.09348 -0.653158
0 0.947839 0.093067 -0.423664
0 0.947844 0.108584 -2.19323
0 0.947817 0.0942002 -0.487379
0 0.947813 0.0935466 -0.243073
0 0.947813 0.0933457 -0.476361
0 0.947839 0.0930619 0.342709
0 0.94786 0.10454 -0.107322
0 0.947815 0.0938944 0.854041
0 0.94782 0.0927611 0.0310889
0 0.94782 0.0944563 0.300957
0 0.947827 0.0938297 -0.384656
0 0.947844 0.0934878 0.0252107
0 0.947852 0.0930882 -0.0723754
0 0.947841 0.103984 -1.21593
0 0.947819 0.0931916 -0.336559
0 0.947811 0.0931053 -0.0209753
0 0.947816 0.0931196 0.0573378
0 0.947841 0.10527 1.28741
0 0.947823 0.0937521 -0.35292
0 0.947826 0.093704 -0.491659
0 0.947823 0.0927705 0.199488
0 0.947826 0.0939102 0.228203
0 0.947843 0.0953143 -0.408989
0 0.947883 0.093099 -0.231935
0 0.947883 0.106766 1.59226
0 0.947818 0.092793 -0.261644
0 0.947798 0.0928528 -0.21033
0 0.947792 0.103884 3.19449
0 0.947826 0.09363 0.466019
0 0.947838 0.0934586 0.299074
0 0.947832 0.0938034 -0.0163068
0 0.947863 0.0940442 -0.197724
0 0.9479 0.1076 2.01797
0 0.947809 0.093074 -0.302397
0 0.947789 0.108358 -2.63121
0 0.947819 0.0933195 0.117935
0 0.94785 0.0952477 1.19019
0 0.947866 0.106945 2.09103
0 0.947796 0.110762 0.853884
0 0.947843 0.110097 2.00827
VECTORS fa_u float
0.00737681 0.00293828 -0
0.00678994 0.00390116 -0
0.00264536 0.000721928 -0
0.00731532 0.00115215 -0
1e-08 0 0
0.00515159 0.0039736 -0
0.00247865 0.00239482 -0
1e-08 0 0
1e-08 0 0
0.00446051 0.00541629 -0
0.00556966 0.00932828 -0
0.00663025 0.000148757 -0
0.00627031 -0.000667 0
1e-08 0 0
1e-08 0 0
1e-08 0 0
1e-08 0 0
1e-08 0 0
1e-08 0 0
1e-08 0 0
1e-08 0 0
0.0029291 0.00724044 -0
0.00162015 0.00638706 -0
1e-08 0 0
1e-08 0 0
1e-08 0 0
0.00903663 -0.00227291 0
1e-08 0 0
0.0115228 -0.00506612 0
1e-08 0 0
1e-08 0 0
1e-08 0 0
0.000840567 0.00726685 -0
1e-08 0 0
1e-08 0 0
1e-08 0 0
1e-08 0 0
1e-08 0 0
1e-08 0 0
1e-08 0 0
1e-08 0 0
1e-08 0 0
1e-08 0 0
-0.000190416 0.00785587 -0
1e-08 0 0
1e-08 0 0
1e-08 0 0
0.00561451 -0.00359833 0
1e-08 0 0
0.00258211 -0.00209173 0
1e-08 0 0
1e-08 0 0
1e-08 0 0
1e-08 0 0
1e-08 0 0
1e-08 0 0
1e-08 0 0
1e-08 0 0
1e-08 0 0
1e-08 0 0
1e-08 0 0
1e-08 0 0
1e-08 0 0
-0.000558738 0.0038277 0
1e-08 0 0
1e-08 0 0
1e-08 0 0
1e-08 0 0
1e-08 0 0
0.00309399 -0.00306039 0
1e-08 0 0
0.00268532 -0.00327691 0
1e-08 0 0
1e-08 0 0
1e-08 0 0
1e-08 0 0
1e-08 0 0
1e-08 0 0
1e-08 0 0
1e-08 0 0
1e-08 0 0
1e-08 0 0
1e-08 0 0
1e-08 0 0
1e-08 0 0
-0.00137879 0.0053247 0
1e-08 0 0
1e-08 0 0
1e-08 0 0
1e-08 0 0
1e-08 0 0
1e-08 0 0
0.00597534 -0.00976492 0
1e-08 0 0
1e-08 0 0
1e-08 0 0
1e-08 0 0
1e-08 0 0
0.00370644 -0.00918189 0
1e-08 0 0
1e-08 0 0
1e-08 0 0
1e-08 0 0
1e-08 0 0
1e-08 0 0
1e-08 0 0
1e-08 0 0
1e-08 0 0
1e-08 0 0
-0.00291571 0.00723658 0
1e-08 0 0
1e-08 0 0
1e-08 0 0
1e-08 0 0
1e-08 0 0
1e-08 0 0
1e-08 0 0
1e-08 0 0
1e-08 0 0
1e-08 0 0
1e-08 0 0
1e-08 0 0
1e-08 0 0
1e-08 0 0
0.00136696 -0.005489 0
1e-08 0 0
1e-08 0 0
1e-08 0 0
1e-08 0 0
1e-08 0 0
1e-08 0 0
1e-08 0 0
1e-08 0 0
1e-08 0 0
-0.00377195 0.0065378 0
1e-08 0 0
1e-08 0 0
1e-08 0 0
1e-08 0 0
1e-08 0 0
1e-08 0 0
1e-08 0 0
1e-08 0 0
1e-08 0 0
1e-08 0 0
1e-08 0 0
1e-08 0 0
1e-08 0 0
1e-08 0 0
1e-08 0 0
0.000487565 -0.00355599 0
1e-08 0 0
1e-08 0 0
1e-08 0 0
1e-08 0 0
1e-08 0 0
1e-08 0 0
1e-08 0 0
1e-08 0 0
1e-08 0 0
1e-08 0 0
-0.00470119 0.00602425 0
1e-08 0 0
1e-08 0 0
1e-08 0 0
1e-08 0 0
1e-08 0 0
1e-08 0 0
1e-08 0 0
1e-08 0 0
1e-08 0 0
1e-08 0 0
1e-08 0 0
1e-08 0 0
0.000130669 -0.00796962 0
1e-08 0 0
1e-08 0 0
1e-08 0 0
1e-08 0 0
1e-08 0 0
1e-08 0 0
1e-08 0 0
1e-08 0 0
1e-08 0 0
1e-08 0 0
1e-08 0 0
1e-08 0 0
-0.00210813 0.00214712 0
1e-08 0 0
1e-08 0 0
1e-08 0 0
1e-08 0 0
1e-08 0 0
1e-08 0 0
1e-08 0 0
1e-08 0 0
1e-08 0 0
1e-08 0 0
1e-08 0 0
1e-08 0 0
1e-08 0 0
-0.000862716 -0.00701292 0
1e-08 0 0
1e-08 0 0
1e-08 0 0
1e-08 0 0
1e-08 0 0
1e-08 0 0
1e-08 0 0
1e-08 0 0
-0.00478899 0.00393684 0
1e-08 0 0
1e-08 0 0
1e-08 0 0
1e-08 0 0
1e-08 0 0
1e-08 0 0
1e-08 0 0
1e-08 0 0
1e-08 0 0
1e-08 0 0
1e-08 0 0
-0.001583 -0.00610948 0
1e-08 0 0
1e-08 0 0
1e-08 0 0
1e-08 0 0
1e-08 0 0
1e-08 0 0
1e-08 0 0
-0.00897086 0.00541312 0
1e-08 0 0
1e-08 0 0
1e-08 0 0
1e-08 0 0
1e-08 0 0
1e-08 0 0
1e-08 0 0
1e-08 0 0
1e-08 0 0
1e-08 0 0
1e-08 0 0
-0.00309286 -0.00753577 0
1e-08 0 0
1e-08 0 0
1e-08 0 0
1e-08 0 0
1e-08 0 0
-0.0076988 0.00314808 0
1e-08 0 0
1e-08 0 0
1e-08 0 0
1e-08 0 0
1e-08 0 0
1e-08 0 0
1e-08 0 0
1e-08 0 0
-0.0051597 -0.00857875 0
1e-08 0 0
1e-08 0 0
1e-08 0 0
1e-08 0 0
-0.00620071 0.00158958 0
1e-08 0 0
1e-08 0 0
1e-08 0 0
1e-08 0 0
1e-08 0 0
1e-08 0 0
-0.00359389 -0.00442477 0
1e-08 0 0
1e-08 0 0
1e-08 0 0
-0.00730585 0.000867679 0
1e-08 0 0
1e-08 0 0
1e-08 0 0
1e-08 0 0
1e-08 0 0
1e-08 0 0
-0.00253659 -0.00251345 0
1e-08 0 0
1e-08 0 0
-0.00840111 -0.000198464 0
1e-08 0 0
1e-08 0 0
1e-08 0 0
1e-08 0 0
-0.00596834 -0.00466781 0
1e-08 0 0
-0.00355029 -0.000519261 0
1e-08 0 0
1e-08 0 0
-0.00680882 -0.00392734 0
-0.00530876 -0.00136529 0
-0.00726384 -0.00291334 0
