# vtk DataFile Version 2.0
CellBP Time: 0.96
ASCII
DATASET UNSTRUCTURED_GRID
POINTS 296 double
-9.17482 -3.77039 0
-8.59707 -4.94204 0
-9.59345 -2.53286 0
-9.85029 -1.25296 0
-8.34551 -2.81404 0
-7.87115 -6.02859 0
-7.00983 -7.01099 0
-7.90492 -3.8673 0
-7.33079 -4.86121 0
-6.02984 -7.87399 0
-4.94553 -8.60106 0
-9.93631 0.0492185 0
-9.85305 1.35306 0
-8.64673 -1.68008 0
-8.7768 -0.528893 0
-7.5786 -1.99967 0
-7.21409 -2.90017 0
-6.62814 -5.77261 0
-5.81462 -6.59128 0
-6.77895 -3.88158 0
-6.21077 -4.66867 0
-3.77383 -9.1794 0
-2.53555 -9.59851 0
-4.90099 -7.30361 0
-3.91109 -7.87972 0
-8.78413 0.642819 0
-9.59908 2.63539 0
-8.61498 1.77079 0
-9.17932 3.87289 0
-7.73349 -0.928163 0
-7.78482 0.0799605 0
-6.94214 -1.31324 0
-1.25314 -9.85228 0
-6.4324 -2.14937 0
-6.30963 -3.05098 0
-5.52993 -5.46726 0
-4.79048 -6.1086 0
-5.65102 -3.75087 0
-5.26081 -4.55591 0
-2.86477 -8.35745 0
-1.77823 -8.63321 0
-3.92521 -6.71662 0
-3.05443 -7.14688 0
0.0503708 -9.93643 0
-7.696 1.14225 0
-8.33217 2.91295 0
-7.54255 2.10806 0
-8.59956 5.04342 0
-7.8727 3.97476 0
-7.87061 6.1278 0
-6.76911 -0.39595 0
-6.94624 0.552018 0
-5.76477 -1.00246 0
-0.591681 -8.80202 0
0.562807 -8.76126 0
-5.2967 -2.47726 0
-4.48556 -5.08908 0
-3.89783 -5.76908 0
-4.43291 -3.80083 0
-2.05968 -7.55526 0
-1.13278 -7.77942 0
-2.99179 -6.09667 0
-2.30698 -6.61453 0
1.35282 -9.8496 0
-6.68166 1.41994 0
-7.16358 3.11297 0
-6.65139 2.36954 0
-7.28751 4.98254 0
-6.71132 3.99796 0
-7.01009 7.10972 0
-6.56563 5.8873 0
-6.0287 7.97162 0
-4.44931 -1.18162 0
-5.80861 0.511805 0
-4.65311 -0.01157 0
0.00929953 -7.83992 0
1.7352 -8.63367 0
0.947873 -7.75431 0
-4.03514 -2.40467 0
-3.48418 -1.39017 0
-3.29138 -4.80121 0
-3.26382 -3.26656 0
-1.37687 -6.66941 0
-0.508342 -7.01697 0
-1.97485 -5.5324 0
2.63403 -9.59499 0
-5.50175 2.03445 0
-6.08791 3.06729 0
-6.09887 4.86324 0
-5.75383 3.98516 0
-5.75427 6.70947 0
-5.44663 5.61221 0
-4.94445 8.70018 0
-4.83312 7.39417 0
-3.49997 -0.423979 0
-4.44565 1.24879 0
-3.70899 0.591997 0
-4.05973 2.31954 0
-3.77301 9.27801 0
2.85779 -8.32132 0
0.418328 -6.78736 0
2.01847 -7.51491 0
1.3034 -6.8966 0
-2.44393 -0.873757 0
-2.83754 -2.13118 0
-2.2929 -4.0947 0
-2.32445 -2.97214 0
-0.442974 -5.85546 0
-1.22132 -4.49637 0
3.87093 -9.17521 0
-4.78391 3.38814 0
-5.08198 4.58831 0
-4.64144 6.27229 0
-4.53403 5.35327 0
-3.83908 7.98502 0
-3.8217 6.83638 0
-2.78029 8.41252 0
-1.64858 -0.13709 0
-1.44978 -0.890071 0
-2.48793 0.508135 0
-3.25102 1.44482 0
-3.2354 3.31394 0
-2.9087 2.37266 0
-1.3548 0.628029 0
-2.53501 9.69564 0
3.92611 -7.87597 0
2.95911 -7.14584 0
0.951485 -5.81494 0
2.0695 -6.40605 0
-1.68262 -1.99225 0
-1.43389 -3.27664 0
0.0906252 -4.74394 0
-0.566339 -3.69288 0
4.92497 -7.30751 0
5.04235 -8.59754 0
-3.77315 4.54757 0
-3.73094 5.74519 0
-2.88316 7.27969 0
-3.00668 6.34571 0
-1.66176 8.72468 0
-1.93649 7.60966 0
-2.33674 4.04938 0
-0.729882 -1.32678 0
-0.836828 -0.256914 0
-1.93567 1.68148 0
-2.12406 2.87564 0
-1.306 3.54355 0
-0.868806 1.35131 0
-0.281626 0.456581 0
-0.534613 8.86297 0
-1.25353 9.95023 0
1.11036 -4.57022 0
3.90352 -6.70491 0
2.98254 -6.08547 0
2.1131 -5.41724 0
4.77697 -6.19552 0
-0.557845 -2.47752 0
0.494728 -3.46223 0
0.0545864 -1.61129 0
1.48083 -3.67901 0
5.86067 -6.60514 0
6.12853 -7.87146 0
-2.4722 5.34276 0
-2.1278 6.52515 0
-0.90233 7.79607 0
-1.26936 6.925 0
0.0872851 7.87422 0
-1.14314 4.49148 0
0.150308 -0.618153 0
-0.798111 2.48957 0
-0.332081 3.60012 0
0.0627787 1.51381 0
0.742138 0.473033 0
0.645168 8.86599 0
0.0495827 10.0366 0
2.37703 -4.28001 0
3.85335 -5.6312 0
2.99547 -5.20444 0
5.56609 -5.48331 0
4.68478 -5.27436 0
0.629143 -2.29356 0
1.25524 -2.94977 0
0.758595 -1.39232 0
2.16117 -3.13331 0
2.99049 -3.47317 0
6.14923 -4.78653 0
6.64901 -5.76214 0
7.11046 -7.00955 0
-1.01885 5.81517 0
-0.370345 6.87703 0
1.12248 7.76423 0
0.559146 7.07372 0
2.254e-05 4.72251 0
0.606698 3.827 0
1.33965 -0.642412 0
0.538661 2.65203 0
0.964943 1.57576 0
1.91056 0.213494 0
1.61484 1.0639 0
2.12891 7.57774 0
1.79746 8.70535 0
1.35335 9.9521 0
3.81837 -4.34515 0
5.11046 -4.4418 0
5.84073 -3.93043 0
3.77961 -3.19729 0
1.81224 -1.88359 0
3.01779 -2.5725 0
6.77771 -3.94383 0
7.37597 -4.89336 0
7.97381 -6.02945 0
0.483762 5.87642 0
1.42809 6.73678 0
2.3727 6.66477 0
1.20951 4.55354 0
1.48811 3.39585 0
2.4349 -0.691743 0
2.82741 0.141959 0
1.78882 2.1637 0
2.6114 1.14956 0
3.0704 7.16505 0
2.90243 8.37126 0
2.63551 9.69704 0
4.90752 -3.32436 0
6.11611 -3.10504 0
4.1704 -2.27401 0
3.24319 -1.50335 0
6.72704 -2.31155 0
7.22672 -3.04009 0
7.96112 -3.91021 0
8.70069 -4.94482 0
2.02273 5.59674 0
3.08384 6.14855 0
2.36355 4.12539 0
2.41898 3.06017 0
3.52338 -0.461397 0
3.61418 0.613115 0
2.9607 2.28742 0
3.54401 1.52577 0
4.00696 5.89314 0
3.98061 6.78857 0
3.97063 7.93392 0
3.87362 9.27859 0
5.56588 -1.91559 0
4.50749 -1.12931 0
6.70982 -1.33493 0
7.58879 -2.03515 0
8.39246 -2.86105 0
9.27879 -3.77319 0
3.41559 4.87312 0
3.33627 3.38344 0
4.68904 0.129776 0
4.51618 1.30846 0
4.06054 2.44022 0
4.5642 5.14764 0
4.83825 6.1863 0
4.97683 7.37487 0
5.04489 8.69994 0
5.8792 -0.43448 0
7.00548 -0.488354 0
7.75377 -1.08365 0
8.68005 -1.74438 0
9.6981 -2.53513 0
4.54675 3.82501 0
5.8116 1.09575 0
5.36437 2.53195 0
5.37178 4.61545 0
5.60576 5.51753 0
5.8928 6.66698 0
6.12906 7.97286 0
6.83933 0.461551 0
7.84885 -0.0249506 0
8.85532 -0.583135 0
9.9524 -1.25293 0
6.95376 1.34624 0
5.71377 3.77362 0
6.5341 2.19331 0
6.37212 3.08345 0
6.28432 4.68168 0
6.68509 5.83295 0
7.11058 7.11128 0
7.77875 0.965761 0
8.85397 0.572277 0
10.0375 0.05083 0
7.60839 2.00145 0
6.81919 3.89902 0
7.26135 2.94209 0
7.37089 4.87995 0
7.97214 6.12891 0
8.71588 1.72487 0
9.94956 1.35324 0
8.41164 2.83434 0
7.97318 3.91207 0
8.69831 5.04294 0
9.69426 2.63423 0
9.27554 3.87137 0
CELLS 542 2168
3 2 0 4
3 0 1 7
3 4 0 7
3 1 5 8
3 7 1 8
3 3 2 13
3 13 2 4
3 11 3 14
3 14 3 13
3 13 4 15
3 4 7 16
3 15 4 16
3 5 6 17
3 8 5 17
3 6 9 18
3 17 6 18
3 7 8 19
3 16 7 19
3 8 17 20
3 19 8 20
3 9 10 23
3 18 9 23
3 10 21 24
3 23 10 24
3 12 11 25
3 25 11 14
3 26 12 27
3 27 12 25
3 14 13 29
3 29 13 15
3 25 14 30
3 30 14 29
3 29 15 31
3 15 16 33
3 31 15 33
3 16 19 34
3 33 16 34
3 17 18 35
3 20 17 35
3 18 23 36
3 35 18 36
3 19 20 37
3 34 19 37
3 20 35 38
3 37 20 38
3 21 22 39
3 24 21 39
3 22 32 40
3 39 22 40
3 23 24 41
3 36 23 41
3 24 39 42
3 41 24 42
3 27 25 44
3 44 25 30
3 28 26 45
3 45 26 27
3 45 27 46
3 46 27 44
3 47 28 48
3 48 28 45
3 30 29 50
3 50 29 31
3 44 30 51
3 51 30 50
3 50 31 52
3 31 33 52
3 32 43 53
3 40 32 53
3 53 43 54
3 33 34 55
3 34 37 55
3 33 55 52
3 35 36 56
3 38 35 56
3 36 41 57
3 56 36 57
3 37 38 58
3 38 56 58
3 37 58 55
3 39 40 59
3 42 39 59
3 40 53 60
3 59 40 60
3 41 42 61
3 57 41 61
3 42 59 62
3 61 42 62
3 43 63 54
3 46 44 64
3 64 44 51
3 48 45 65
3 65 45 46
3 65 46 66
3 66 46 64
3 49 47 67
3 67 47 48
3 67 48 68
3 68 48 65
3 69 49 70
3 70 49 67
3 52 55 72
3 64 51 73
3 51 50 73
3 50 52 73
3 73 52 74
3 74 52 72
3 53 54 75
3 60 53 75
3 54 63 76
3 54 76 77
3 75 54 77
3 55 58 78
3 72 55 78
3 72 78 79
3 56 57 80
3 57 61 80
3 56 80 58
3 58 80 81
3 78 58 81
3 59 60 82
3 62 59 82
3 60 75 83
3 82 60 83
3 61 62 84
3 62 82 84
3 61 84 80
3 63 85 76
3 66 64 86
3 64 73 86
3 68 65 87
3 87 65 66
3 87 66 86
3 70 67 88
3 88 67 68
3 88 68 89
3 89 68 87
3 71 69 90
3 90 69 70
3 90 70 91
3 91 70 88
3 92 71 93
3 93 71 90
3 74 72 94
3 94 72 79
3 86 73 95
3 95 73 74
3 95 74 96
3 96 74 94
3 97 86 95
3 76 85 99
3 75 77 100
3 83 75 100
3 76 99 101
3 77 76 101
3 77 101 102
3 100 77 102
3 94 79 103
3 78 81 104
3 79 78 104
3 79 104 103
3 80 84 105
3 81 80 105
3 81 105 106
3 104 81 106
3 82 83 107
3 83 100 107
3 82 107 84
3 84 107 108
3 105 84 108
3 85 109 99
3 89 87 110
3 87 86 110
3 110 86 97
3 91 88 111
3 111 88 89
3 111 89 110
3 93 90 112
3 112 90 91
3 112 91 113
3 113 91 111
3 98 92 114
3 114 92 93
3 114 93 115
3 115 93 112
3 116 98 114
3 117 103 118
3 96 94 119
3 94 103 119
3 119 103 117
3 97 95 120
3 120 95 96
3 120 96 119
3 121 110 97
3 121 97 122
3 122 97 120
3 123 119 117
3 124 98 116
3 99 109 125
3 99 125 126
3 101 99 126
3 100 102 127
3 100 127 107
3 101 126 128
3 102 101 128
3 102 128 127
3 104 106 129
3 104 129 103
3 103 129 118
3 105 108 130
3 106 105 130
3 106 130 129
3 107 127 131
3 108 107 131
3 108 131 132
3 108 132 130
3 109 134 125
3 125 134 133
3 113 111 135
3 111 110 135
3 135 110 121
3 115 112 136
3 136 112 113
3 136 113 135
3 116 114 137
3 137 114 115
3 137 115 138
3 138 115 136
3 139 124 116
3 139 116 140
3 140 116 137
3 141 135 121
3 118 129 142
3 118 142 143
3 117 118 143
3 123 117 143
3 122 120 144
3 120 119 144
3 144 119 123
3 141 121 145
3 145 121 122
3 145 122 144
3 146 141 145
3 147 144 123
3 147 123 148
3 143 148 123
3 150 124 139
3 149 150 139
3 131 127 151
3 125 133 152
3 126 125 152
3 126 152 153
3 128 126 153
3 128 153 154
3 128 154 127
3 127 154 151
3 152 133 155
3 130 132 156
3 130 156 129
3 129 156 142
3 131 151 157
3 132 131 157
3 132 157 156
3 156 158 142
3 157 151 159
3 133 160 155
3 134 161 133
3 133 161 160
3 138 136 162
3 136 135 162
3 162 135 141
3 140 137 163
3 163 137 138
3 163 138 162
3 149 139 164
3 164 139 140
3 164 140 165
3 165 140 163
3 166 149 164
3 167 162 141
3 167 141 146
3 142 158 168
3 143 142 168
3 143 168 148
3 146 145 169
3 145 144 169
3 169 144 147
3 170 167 146
3 170 146 169
3 171 169 147
3 171 147 148
3 171 148 172
3 168 172 148
3 173 149 166
3 174 150 149
3 173 174 149
3 154 175 151
3 151 175 159
3 152 155 176
3 153 152 176
3 153 176 177
3 153 177 154
3 154 177 175
3 155 160 178
3 155 178 179
3 176 155 179
3 156 157 180
3 156 180 158
3 157 159 181
3 157 181 180
3 158 180 182
3 158 182 168
3 159 175 183
3 159 183 181
3 175 184 183
3 160 186 178
3 178 186 185
3 161 187 160
3 160 187 186
3 165 163 188
3 163 162 188
3 188 162 167
3 166 164 189
3 189 164 165
3 189 165 188
3 190 173 166
3 190 166 191
3 191 166 189
3 192 188 167
3 192 167 170
3 193 192 170
3 182 194 168
3 194 172 168
3 193 170 195
3 170 169 195
3 195 169 171
3 196 195 171
3 196 171 172
3 194 197 172
3 197 198 172
3 198 196 172
3 200 173 190
3 199 200 190
3 201 174 173
3 200 201 173
3 176 179 202
3 177 176 202
3 177 202 175
3 175 202 184
3 178 185 203
3 178 203 179
3 179 203 202
3 203 185 204
3 202 205 184
3 183 206 181
3 180 181 206
3 180 206 182
3 182 206 194
3 183 184 207
3 205 207 184
3 183 207 206
3 185 208 204
3 186 209 185
3 185 209 208
3 187 210 186
3 186 210 209
3 191 189 211
3 189 188 211
3 211 188 192
3 199 190 212
3 212 190 191
3 212 191 211
3 213 199 212
3 214 211 192
3 214 192 193
3 215 214 193
3 215 193 195
3 206 216 194
3 216 197 194
3 216 217 197
3 215 195 218
3 218 195 196
3 198 218 196
3 217 219 197
3 219 218 198
3 197 219 198
3 220 199 213
3 221 200 199
3 220 221 199
3 222 201 200
3 221 222 200
3 203 204 223
3 203 223 202
3 202 223 205
3 204 208 224
3 204 224 223
3 205 223 225
3 205 225 207
3 207 225 226
3 207 226 206
3 226 216 206
3 208 228 224
3 224 228 227
3 209 229 208
3 229 228 208
3 210 230 209
3 209 230 229
3 213 212 231
3 212 211 231
3 231 211 214
3 232 220 213
3 232 213 231
3 233 231 214
3 233 214 215
3 234 233 215
3 234 215 218
3 226 235 216
3 235 217 216
3 235 236 217
3 217 236 219
3 237 234 218
3 237 218 219
3 236 238 219
3 238 237 219
3 240 220 232
3 239 240 232
3 241 221 220
3 240 241 220
3 242 222 221
3 241 242 221
3 224 227 243
3 224 243 223
3 223 243 225
3 225 243 244
3 225 244 226
3 226 244 235
3 227 245 243
3 228 246 227
3 227 246 245
3 229 247 228
3 228 247 246
3 230 248 229
3 229 248 247
3 239 232 249
3 232 231 249
3 249 231 233
3 250 249 233
3 250 233 234
3 237 250 234
3 244 251 235
3 235 251 236
3 251 252 236
3 236 252 238
3 252 253 238
3 253 250 237
3 253 237 238
3 254 239 249
3 255 240 239
3 254 255 239
3 256 241 240
3 255 256 240
3 257 242 241
3 256 257 241
3 245 258 243
3 243 258 244
3 244 258 251
3 245 259 258
3 246 260 245
3 245 260 259
3 247 261 246
3 246 261 260
3 248 262 247
3 247 262 261
3 254 249 263
3 263 249 250
3 253 263 250
3 258 264 251
3 251 264 252
3 264 265 252
3 265 263 253
3 252 265 253
3 266 254 263
3 267 255 254
3 266 267 254
3 268 256 255
3 267 268 255
3 269 257 256
3 268 269 256
3 259 270 258
3 270 264 258
3 260 271 259
3 259 271 270
3 261 272 260
3 260 272 271
3 262 273 261
3 273 272 261
3 270 274 264
3 275 266 263
3 275 263 265
3 274 276 264
3 276 265 264
3 276 277 265
3 277 275 265
3 278 267 266
3 275 278 266
3 279 268 267
3 278 279 267
3 280 269 268
3 279 280 268
3 271 281 270
3 270 281 274
3 272 282 271
3 271 282 281
3 273 283 272
3 272 283 282
3 281 284 274
3 274 284 276
3 285 278 275
3 277 285 275
3 284 286 276
3 286 285 277
3 276 286 277
3 287 279 278
3 285 287 278
3 288 280 279
3 287 288 279
3 282 289 281
3 281 289 284
3 283 290 282
3 282 290 289
3 289 291 284
3 284 291 286
3 291 292 286
3 292 287 285
3 286 292 285
3 293 288 287
3 292 293 287
3 290 294 289
3 289 294 291
3 294 295 291
3 295 293 292
3 291 295 292
CELL_TYPES 542
5
5
5
5
5
5
5
5
5
5
5
5
5
5
5
5
5
5
5
5
5
5
5
5
5
5
5
5
5
5
5
5
5
5
5
5
5
5
5
5
5
5
5
5
5
5
5
5
5
5
5
5
5
5
5
5
5
5
5
5
5
5
5
5
5
5
5
5
5
5
5
5
5
5
5
5
5
5
5
5
5
5
5
5
5
5
5
5
5
5
5
5
5
5
5
5
5
5
5
5
5
5
5
5
5
5
5
5
5
5
5
5
5
5
5
5
5
5
5
5
5
5
5
5
5
5
5
5
5
5
5
5
5
5
5
5
5
5
5
5
5
5
5
5
5
5
5
5
5
5
5
5
5
5
5
5
5
5
5
5
5
5
5
5
5
5
5
5
5
5
5
5
5
5
5
5
5
5
5
5
5
5
5
5
5
5
5
5
5
5
5
5
5
5
5
5
5
5
5
5
5
5
5
5
5
5
5
5
5
5
5
5
5
5
5
5
5
5
5
5
5
5
5
5
5
5
5
5
5
5
5
5
5
5
5
5
5
5
5
5
5
5
5
5
5
5
5
5
5
5
5
5
5
5
5
5
5
5
5
5
5
5
5
5
5
5
5
5
5
5
5
5
5
5
5
5
5
5
5
5
5
5
5
5
5
5
5
5
5
5
5
5
5
5
5
5
5
5
5
5
5
5
5
5
5
5
5
5
5
5
5
5
5
5
5
5
5
5
5
5
5
5
5
5
5
5
5
5
5
5
5
5
5
5
5
5
5
5
5
5
5
5
5
5
5
5
5
5
5
5
5
5
5
5
5
5
5
5
5
5
5
5
5
5
5
5
5
5
5
5
5
5
5
5
5
5
5
5
5
5
5
5
5
5
5
5
5
5
5
5
5
5
5
5
5
5
5
5
5
5
5
5
5
5
5
5
5
5
5
5
5
5
5
5
5
5
5
5
5
5
5
5
5
5
5
5
5
5
5
5
5
5
5
5
5
5
5
5
5
5
5
5
5
5
5
5
5
5
5
5
5
5
5
5
5
5
5
5
5
5
5
5
5
5
5
5
5
5
5
5
5
5
5
5
5
5
5
5
5
5
5
5
5
5
5
5
5
5
5
5
5
5
5
5
5
5
5
5
5
5
5
5
5
5
5
5
5
5
5
5
5
5
5
5
5
5
5
5
5
5
5
5
5
5
5
5
5
5
5
5
5
5
5
5
5
5
5
5
5
5
5
5
POINT_DATA 296
SCALARS concentrations float 4
LOOKUP_TABLE default
0 0.997216 0.148127 17.7977
0 0.997203 0.148596 12.443
0 0.997251 0.150361 12.2585
0 0.997317 0.149904 10.4945
0 0.997251 0.0980629 -1.04773
0 0.997222 0.146009 17.07
0 0.997233 0.147772 13.5551
0 0.997244 0.10233 -0.768057
0 0.997244 0.0986267 -1.70351
0 0.997315 0.14864 10.1515
0 0.997341 0.149857 8.09797
0 0.99733 0.147119 15.9236
0 0.997324 0.149542 9.14332
0 0.997279 0.0976519 1.25371
0 0.997302 0.0954784 0.0314578
0 0.997302 0.0998597 0.593169
0 0.99731 0.0982211 -0.789269
0 0.997239 0.0955676 0.0355784
0 0.997271 0.0946078 0.267996
0 0.997291 0.101163 1.52999
0 0.997274 0.0976945 0.984384
0 0.997306 0.153382 12.1985
0 0.997338 0.148443 6.0234
0 0.997325 0.0938605 0.570876
0 0.997313 0.0934172 -0.766491
0 0.997306 0.0958103 -0.707527
0 0.997299 0.14899 10.7711
0 0.997293 0.0954908 0.0662704
0 0.997352 0.148991 11.8149
0 0.997291 0.097423 1.39871
0 0.997271 0.0971141 1.33022
0 0.997305 0.099599 0.0305119
0 0.997324 0.148866 11.1134
0 0.997304 0.0979749 -0.915419
0 0.997311 0.103933 -3.00419
0 0.997284 0.0959267 -0.194671
0 0.997294 0.093664 0.195687
0 0.997293 0.101435 3.71406
0 0.997284 0.0957547 -0.0596595
0 0.997316 0.0940353 -0.533961
0 0.997331 0.0933157 0.752729
0 0.997304 0.094142 -0.704957
0 0.997309 0.0937266 -0.685374
0 0.997307 0.15064 11.596
0 0.997293 0.0976349 2.58232
0 0.997319 0.0964841 0.896703
0 0.99731 0.100196 2.43474
0 0.997374 0.151483 10.2133
0 0.997338 0.094879 -0.44862
0 0.997406 0.147919 11.7818
0 0.997283 0.0971437 -1.46456
0 0.997289 0.104568 -1.78353
0 0.997297 0.0969617 0.395867
0 0.99731 0.0932968 0.670009
0 0.9973 0.0928237 0.292836
0 0.997316 0.100571 -2.52415
0 0.997303 0.095666 -0.249361
0 0.997295 0.0960953 -0.490026
0 0.997319 0.100505 1.79917
0 0.997325 0.0960529 -1.84585
0 0.997315 0.0935312 0.550602
0 0.997304 0.0948211 -1.13574
0 0.997326 0.0943595 0.285782
0 0.997286 0.148523 8.98537
0 0.997328 0.0967482 0.9449
0 0.997324 0.0992294 -0.137267
0 0.997329 0.0976776 1.84186
0 0.99736 0.0940303 0.40442
0 0.997322 0.094825 0.137793
0 0.997374 0.14711 2.94869
0 0.997372 0.0935339 -0.0503757
0 0.997329 0.146386 12.5885
0 0.997324 0.100383 1.45362
0 0.997315 0.0960237 -0.12916
0 0.997323 0.0966928 0.802409
0 0.997308 0.0933498 0.179518
0 0.997291 0.0939701 0.501991
0 0.997315 0.0937648 0.50395
0 0.997345 0.0972814 -1.71294
0 0.997323 0.101128 2.43419
0 0.997305 0.0948321 -0.833342
0 0.997328 0.0958193 -0.483593
0 0.99733 0.0981484 -0.600583
0 0.997316 0.0939621 -0.747091
0 0.997314 0.0973011 0.284008
0 0.99728 0.149029 11.0002
0 0.997319 0.100124 -0.0475471
0 0.997317 0.0978184 -2.78051
0 0.997327 0.0939345 -0.347294
0 0.997325 0.0949339 0.449003
0 0.997348 0.0947843 -0.557346
0 0.997335 0.0937143 -0.476137
0 0.99736 0.1467 4.37886
0 0.99735 0.0940237 -0.361154
0 0.997335 0.0969361 -1.87409
0 0.997339 0.0981143 -2.47554
0 0.997342 0.0952108 -0.874021
0 0.997344 0.0958757 -0.100263
0 0.9974 0.147388 6.65915
0 0.997302 0.0945514 0.580853
0 0.997322 0.094097 0.281838
0 0.997322 0.0933828 -0.119511
0 0.997333 0.093972 0.352445
0 0.997321 0.0949012 -0.628558
0 0.997323 0.10395 -2.35652
0 0.99731 0.0953096 -0.806852
0 0.997323 0.0959622 -0.745829
0 0.997324 0.0946639 -0.631059
0 0.99732 0.0946746 -0.312773
0 0.997301 0.150142 12.0048
0 0.99731 0.0949352 0.440046
0 0.997317 0.0943784 -0.87251
0 0.997349 0.0957831 -1.10434
0 0.997318 0.0940838 -0.685252
0 0.997386 0.0947443 0.335705
0 0.997356 0.0962362 -1.18192
0 0.997395 0.0937919 -0.823064
0 0.997342 0.0953436 -1.08929
0 0.997361 0.0961355 -1.03514
0 0.997336 0.0974719 1.01476
0 0.997356 0.100239 -1.50212
0 0.997317 0.0950918 0.822137
0 0.997348 0.0976973 3.79638
0 0.997361 0.0986629 4.02456
0 0.997376 0.149221 10.1674
0 0.997314 0.0956569 0.645612
0 0.997329 0.0938115 -0.378467
0 0.99733 0.0942284 0.0763548
0 0.997338 0.0955389 0.774722
0 0.997342 0.0958404 -0.551715
0 0.997329 0.0951538 -0.696112
0 0.997329 0.0938335 0.286064
0 0.997331 0.0946896 0.725561
0 0.997281 0.0953695 0.141728
0 0.997293 0.150371 15.743
0 0.997309 0.0937191 -0.539536
0 0.99732 0.094213 -0.750853
0 0.997364 0.094896 -0.741546
0 0.997319 0.0949436 -0.733675
0 0.997366 0.0940725 -0.481331
0 0.997371 0.0944837 -0.955969
0 0.997308 0.0950376 -1.2452
0 0.997381 0.0956561 -0.741111
0 0.997379 0.0949354 -0.55839
0 0.997331 0.101547 -3.32684
0 0.997312 0.0986489 2.5145
0 0.997326 0.0966476 0.465842
0 0.997352 0.0966997 0.180088
0 0.997382 0.0951927 -0.00323187
0 0.997357 0.0936754 -0.408139
0 0.997336 0.149311 7.29113
0 0.99733 0.0946045 -0.617396
0 0.997323 0.0966586 1.39892
0 0.997338 0.0948263 0.69933
0 0.997331 0.0949138 0.600632
0 0.997315 0.093998 -0.511358
0 0.997355 0.0943122 -0.480059
0 0.997337 0.0951088 0.649449
0 0.99737 0.097409 0.845403
0 0.997335 0.0949176 -0.193989
0 0.997289 0.0950274 0.393074
0 0.997246 0.148182 11.5139
0 0.997305 0.0945275 1.00214
0 0.99733 0.0956552 1.39965
0 0.997372 0.0948671 -0.476572
0 0.997351 0.0955364 -0.582987
0 0.997386 0.0949634 1.34232
0 0.997316 0.097302 1.1434
0 0.997375 0.0946493 -0.16685
0 0.997325 0.0984364 -2.85841
0 0.997341 0.0960394 -0.332612
0 0.99735 0.0964377 1.4261
0 0.997363 0.0934767 -0.08787
0 0.997378 0.094159 -1.01238
0 0.997337 0.147004 8.09083
0 0.997322 0.0944887 0.429549
0 0.997326 0.0956039 -0.468517
0 0.997329 0.0953579 -0.428862
0 0.997343 0.0941811 0.130368
0 0.997332 0.0940819 0.60766
0 0.99734 0.0960468 1.21983
0 0.997338 0.0943876 0.0280604
0 0.99735 0.0984391 -0.659666
0 0.997329 0.0946737 0.243206
0 0.997322 0.0946101 0.143548
0 0.99736 0.0946086 -0.592082
0 0.997338 0.0942967 0.117643
0 0.997306 0.148571 12.6364
0 0.997319 0.0947154 -0.722519
0 0.997351 0.0953126 -1.10464
0 0.997402 0.0942818 -0.703533
0 0.997363 0.0953474 -0.19334
0 0.997328 0.0961343 -0.310815
0 0.997347 0.0970306 0.336161
0 0.997354 0.0947427 0.0234767
0 0.997343 0.0956863 -0.754034
0 0.997343 0.0954955 0.0326352
0 0.997354 0.10044 -0.191148
0 0.997337 0.0949362 0.426011
0 0.997396 0.0953806 -0.837089
0 0.997417 0.0941167 0.0699387
0 0.997381 0.145252 0.875434
0 0.99732 0.0934526 0.242306
0 0.997335 0.100839 1.49645
0 0.997346 0.0944296 0.449827
0 0.997323 0.0946304 0.00380692
0 0.997337 0.0952472 0.515802
0 0.99733 0.0941889 0.0190971
0 0.997357 0.0943372 -0.0813423
0 0.997351 0.0937455 0.073392
0 0.997342 0.146333 6.79758
0 0.997338 0.0943833 0.937703
0 0.997353 0.0969947 -1.29501
0 0.99736 0.101343 -2.30306
0 0.99735 0.0963698 1.62303
0 0.997356 0.0959044 0.287205
0 0.997348 0.0948386 -0.368912
0 0.997356 0.0960798 0.282239
0 0.997329 0.0956645 0.583605
0 0.997334 0.100357 1.55105
0 0.99738 0.0975294 -0.72024
0 0.997416 0.0946765 0.229469
0 0.997441 0.145619 3.29984
0 0.997315 0.0956233 -0.349871
0 0.99733 0.101034 3.04301
0 0.997327 0.0937785 0.310602
0 0.99734 0.094308 0.430157
0 0.997326 0.0958662 0.410068
0 0.997348 0.0946509 -0.356681
0 0.997317 0.0931913 0.402959
0 0.997323 0.147671 9.25261
0 0.997336 0.0983509 -0.485786
0 0.997334 0.100143 1.55896
0 0.997348 0.0957387 0.847191
0 0.997344 0.0963739 -0.613072
0 0.997352 0.0939856 -0.127111
0 0.997356 0.0944531 0.320947
0 0.997332 0.0962328 -0.420922
0 0.997352 0.100952 3.09667
0 0.997325 0.0943487 -0.10525
0 0.997354 0.0941599 0.00393814
0 0.997406 0.0939544 -0.5241
0 0.997424 0.149021 7.96432
0 0.997328 0.0978193 0.767784
0 0.997338 0.0946778 0.0226804
0 0.997357 0.104685 0.873772
0 0.997343 0.0939463 0.570284
0 0.997307 0.0934628 -0.549888
0 0.997266 0.146029 15.2635
0 0.997325 0.0953806 0.679026
0 0.997327 0.0950412 -0.332621
0 0.997342 0.0969538 -0.0403558
0 0.997337 0.0961567 0.302262
0 0.997328 0.095792 0.154695
0 0.99732 0.10201 -4.51231
0 0.997355 0.0948019 0.90298
0 0.997403 0.0935138 0.859756
0 0.997435 0.146808 9.54455
0 0.997343 0.0952448 0.528595
0 0.997367 0.0947038 -0.0111302
0 0.997355 0.0934882 -0.622581
0 0.997319 0.0933922 0.357014
0 0.99729 0.145279 4.82801
0 0.997306 0.095 -0.329736
0 0.997321 0.096553 -1.46422
0 0.997308 0.0972307 0.459177
0 0.9973 0.0960138 -0.768965
0 0.997343 0.0946106 0.829924
0 0.997403 0.0939959 0.323138
0 0.997424 0.146072 -0.12671
0 0.99733 0.0954926 -1.19302
0 0.99734 0.0934788 0.645041
0 0.997332 0.0932573 0.625924
0 0.997304 0.148733 10.8743
0 0.997318 0.0940069 0.677355
0 0.997311 0.102357 0.647973
0 0.997308 0.0966555 0.722256
0 0.997319 0.0972482 2.21032
0 0.997333 0.0950146 0.914537
0 0.997392 0.0952112 0.855465
0 0.997435 0.147701 1.98601
0 0.997328 0.0937156 0.852422
0 0.99735 0.0934952 0.482146
0 0.99735 0.149703 9.02774
0 0.99732 0.0946995 0.124157
0 0.997332 0.0952458 1.22529
0 0.997316 0.0959159 1.16813
0 0.997381 0.0954406 0.330281
0 0.997417 0.148339 6.84484
0 0.997354 0.0942815 0.634965
0 0.997371 0.149371 7.76427
0 0.997356 0.0951001 0.597224
0 0.997367 0.0954748 0.607234
0 0.997414 0.14505 14.501
0 0.997383 0.147126 8.55344
0 0.997394 0.145529 1.07277
VECTORS fa_u float
0.00613354 0.00253667 -0
0.00565617 0.00326533 -0
0.00605135 0.00162369 -0
0.00660194 0.000876638 -0
1e-08 0 0
0.00517856 0.00397284 -0
0.00449154 0.00448159 -0
1e-08 0 0
1e-08 0 0
0.00401585 0.00521355 -0
0.00333724 0.00576741 -0
0.00642094 6.79946e-06 -0
0.00656305 -0.000855799 0
1e-08 0 0
1e-08 0 0
1e-08 0 0
1e-08 0 0
1e-08 0 0
1e-08 0 0
1e-08 0 0
1e-08 0 0
0.0025455 0.00615026 -0
0.00168689 0.00631934 -0
1e-08 0 0
1e-08 0 0
1e-08 0 0
0.00636688 -0.00170233 0
1e-08 0 0
0.00621651 -0.00258034 0
1e-08 0 0
1e-08 0 0
1e-08 0 0
0.000846351 0.00647676 -0
1e-08 0 0
1e-08 0 0
1e-08 0 0
1e-08 0 0
1e-08 0 0
1e-08 0 0
1e-08 0 0
1e-08 0 0
1e-08 0 0
1e-08 0 0
-6.74196e-06 0.00655151 -0
1e-08 0 0
1e-08 0 0
1e-08 0 0
0.00574269 -0.00333294 0
1e-08 0 0
0.00493671 -0.00379748 0
1e-08 0 0
1e-08 0 0
1e-08 0 0
1e-08 0 0
1e-08 0 0
1e-08 0 0
1e-08 0 0
1e-08 0 0
1e-08 0 0
1e-08 0 0
1e-08 0 0
1e-08 0 0
1e-08 0 0
-0.00083956 0.00635302 0
1e-08 0 0
1e-08 0 0
1e-08 0 0
1e-08 0 0
1e-08 0 0
0.00459833 -0.00459357 0
1e-08 0 0
0.00387376 -0.00503111 0
1e-08 0 0
1e-08 0 0
1e-08 0 0
1e-08 0 0
1e-08 0 0
1e-08 0 0
1e-08 0 0
1e-08 0 0
1e-08 0 0
1e-08 0 0
1e-08 0 0
1e-08 0 0
1e-08 0 0
-0.00169384 0.00632471 0
1e-08 0 0
1e-08 0 0
1e-08 0 0
1e-08 0 0
1e-08 0 0
1e-08 0 0
0.00340145 -0.00587314 0
1e-08 0 0
1e-08 0 0
1e-08 0 0
1e-08 0 0
1e-08 0 0
0.00257152 -0.00622421 0
1e-08 0 0
1e-08 0 0
1e-08 0 0
1e-08 0 0
1e-08 0 0
1e-08 0 0
1e-08 0 0
1e-08 0 0
1e-08 0 0
1e-08 0 0
-0.00250311 0.00604369 0
1e-08 0 0
1e-08 0 0
1e-08 0 0
1e-08 0 0
1e-08 0 0
1e-08 0 0
1e-08 0 0
1e-08 0 0
1e-08 0 0
1e-08 0 0
1e-08 0 0
1e-08 0 0
1e-08 0 0
1e-08 0 0
0.00164199 -0.00615418 0
1e-08 0 0
1e-08 0 0
1e-08 0 0
1e-08 0 0
1e-08 0 0
1e-08 0 0
1e-08 0 0
1e-08 0 0
1e-08 0 0
-0.00327875 0.00567752 0
1e-08 0 0
1e-08 0 0
1e-08 0 0
1e-08 0 0
1e-08 0 0
1e-08 0 0
1e-08 0 0
1e-08 0 0
1e-08 0 0
1e-08 0 0
1e-08 0 0
1e-08 0 0
1e-08 0 0
1e-08 0 0
1e-08 0 0
0.000842028 -0.00638235 0
1e-08 0 0
1e-08 0 0
1e-08 0 0
1e-08 0 0
1e-08 0 0
1e-08 0 0
1e-08 0 0
1e-08 0 0
1e-08 0 0
1e-08 0 0
-0.00399357 0.00520102 0
1e-08 0 0
1e-08 0 0
1e-08 0 0
1e-08 0 0
1e-08 0 0
1e-08 0 0
1e-08 0 0
1e-08 0 0
1e-08 0 0
1e-08 0 0
1e-08 0 0
1e-08 0 0
4.69531e-06 -0.00653966 0
1e-08 0 0
1e-08 0 0
1e-08 0 0
1e-08 0 0
1e-08 0 0
1e-08 0 0
1e-08 0 0
1e-08 0 0
1e-08 0 0
1e-08 0 0
1e-08 0 0
1e-08 0 0
-0.00443284 0.00444074 0
1e-08 0 0
1e-08 0 0
1e-08 0 0
1e-08 0 0
1e-08 0 0
1e-08 0 0
1e-08 0 0
1e-08 0 0
1e-08 0 0
1e-08 0 0
1e-08 0 0
1e-08 0 0
1e-08 0 0
-0.000859984 -0.0065487 0
1e-08 0 0
1e-08 0 0
1e-08 0 0
1e-08 0 0
1e-08 0 0
1e-08 0 0
1e-08 0 0
1e-08 0 0
-0.00524504 0.00403965 0
1e-08 0 0
1e-08 0 0
1e-08 0 0
1e-08 0 0
1e-08 0 0
1e-08 0 0
1e-08 0 0
1e-08 0 0
1e-08 0 0
1e-08 0 0
1e-08 0 0
-0.00165172 -0.00618073 0
1e-08 0 0
1e-08 0 0
1e-08 0 0
1e-08 0 0
1e-08 0 0
1e-08 0 0
1e-08 0 0
-0.00575713 0.00332982 0
1e-08 0 0
1e-08 0 0
1e-08 0 0
1e-08 0 0
1e-08 0 0
1e-08 0 0
1e-08 0 0
1e-08 0 0
1e-08 0 0
1e-08 0 0
1e-08 0 0
-0.00257683 -0.00622663 0
1e-08 0 0
1e-08 0 0
1e-08 0 0
1e-08 0 0
1e-08 0 0
-0.0061203 0.0025333 0
1e-08 0 0
1e-08 0 0
1e-08 0 0
1e-08 0 0
1e-08 0 0
1e-08 0 0
1e-08 0 0
1e-08 0 0
-0.00332396 -0.00574158 0
1e-08 0 0
1e-08 0 0
1e-08 0 0
1e-08 0 0
-0.0062967 0.00168296 0
1e-08 0 0
1e-08 0 0
1e-08 0 0
1e-08 0 0
1e-08 0 0
1e-08 0 0
-0.00391152 -0.00508606 0
1e-08 0 0
1e-08 0 0
1e-08 0 0
-0.00644429 0.00084591 0
1e-08 0 0
1e-08 0 0
1e-08 0 0
1e-08 0 0
1e-08 0 0
1e-08 0 0
-0.0045878 -0.00458563 0
1e-08 0 0
1e-08 0 0
-0.00671491 -7.32696e-06 0
1e-08 0 0
1e-08 0 0
1e-08 0 0
1e-08 0 0
-0.00515741 -0.00395899 0
1e-08 0 0
-0.00631955 -0.000839749 0
1e-08 0 0
1e-08 0 0
-0.00572065 -0.00330285 0
-0.00619328 -0.00165771 0
-0.00608987 -0.00251805 0
