# vtk DataFile Version 2.0
CellBP Time: 8.76
ASCII
DATASET UNSTRUCTURED_GRID
POINTS 296 double
-8.93969 -3.66061 0
-8.3816 -4.81213 0
-9.32978 -2.43936 0
-9.6067 -1.21142 0
-8.09606 -2.71128 0
-7.66589 -5.87752 0
-6.81834 -6.84087 0
-7.6563 -3.73214 0
-7.09574 -4.70531 0
-5.89381 -7.70807 0
-4.86578 -8.44033 0
-9.71445 0.0381883 0
-9.65913 1.31361 0
-8.41527 -1.62228 0
-8.57306 -0.505767 0
-7.34278 -1.91633 0
-6.96913 -2.7804 0
-6.44131 -5.62422 0
-5.67283 -6.44198 0
-6.54203 -3.74224 0
-6.00765 -4.52543 0
-3.71678 -9.0046 0
-2.48857 -9.40375 0
-4.79747 -7.15905 0
-3.84854 -7.74194 0
-8.58738 0.630618 0
-9.43923 2.59075 0
-8.4433 1.73031 0
-9.02941 3.80634 0
-7.52009 -0.883142 0
-7.5869 0.0889083 0
-6.73635 -1.25294 0
-1.21708 -9.64094 0
-6.24184 -2.06714 0
-6.10933 -2.93999 0
-5.36888 -5.32826 0
-4.66935 -5.97368 0
-5.47319 -3.63202 0
-5.0928 -4.42768 0
-2.81758 -8.20321 0
-1.74618 -8.46389 0
-3.84029 -6.58804 0
-3.0111 -7.02059 0
0.0552849 -9.70066 0
-7.5121 1.115 0
-8.18701 2.85937 0
-7.37463 2.04952 0
-8.41644 4.92662 0
-7.70429 3.88079 0
-7.65818 5.96222 0
-6.58383 -0.36921 0
-6.76365 0.547728 0
-5.62083 -0.969179 0
-0.5819 -8.61014 0
0.543896 -8.54309 0
-5.15657 -2.4012 0
-4.34843 -4.96174 0
-3.79819 -5.6424 0
-4.31523 -3.70707 0
-2.02536 -7.41206 0
-1.11478 -7.62044 0
-2.92953 -5.97339 0
-2.27092 -6.48922 0
1.31067 -9.58365 0
-6.51896 1.38145 0
-6.99007 3.02665 0
-6.49482 2.30609 0
-7.10913 4.85073 0
-6.54774 3.88554 0
-6.81665 6.90943 0
-6.39476 5.72862 0
-5.87305 7.76627 0
-4.37431 -1.16669 0
-5.67891 0.490971 0
-4.57354 -0.0279095 0
-0.00492622 -7.65424 0
1.68063 -8.39256 0
0.902985 -7.54486 0
-3.95987 -2.35288 0
-3.45527 -1.37947 0
-3.21674 -4.70097 0
-3.21584 -3.20662 0
-1.36503 -6.52825 0
-0.519846 -6.85454 0
-1.94634 -5.43213 0
2.5601 -9.33729 0
-5.38151 1.9911 0
-5.94383 2.98359 0
-5.94853 4.72767 0
-5.61294 3.86862 0
-5.60105 6.52398 0
-5.30527 5.45129 0
-4.84417 8.5178 0
-4.70164 7.18718 0
-3.46061 -0.418171 0
-4.36291 1.2263 0
-3.65136 0.586389 0
-3.98113 2.29286 0
-3.70664 9.08621 0
2.75761 -8.06079 0
0.373814 -6.60453 0
1.93115 -7.28567 0
1.23381 -6.69351 0
-2.42504 -0.862104 0
-2.81104 -2.10529 0
-2.2642 -4.0245 0
-2.29641 -2.92733 0
-0.452825 -5.72018 0
-1.20115 -4.41994 0
3.77147 -8.94463 0
-4.67237 3.30372 0
-4.9544 4.4548 0
-4.51983 6.08698 0
-4.41762 5.19763 0
-3.75111 7.7905 0
-3.71197 6.62904 0
-2.70866 8.1956 0
-1.63353 -0.12355 0
-1.43503 -0.874513 0
-2.4708 0.517403 0
-3.20134 1.43342 0
-3.17463 3.26096 0
-2.86485 2.35805 0
-1.35052 0.638609 0
-2.48573 9.47072 0
3.79564 -7.63114 0
2.83726 -6.89868 0
0.898214 -5.65877 0
1.98036 -6.19968 0
-1.66173 -1.97392 0
-1.41414 -3.23221 0
0.079297 -4.64688 0
-0.552816 -3.63749 0
4.77425 -7.07279 0
4.91472 -8.38678 0
-3.68421 4.43391 0
-3.63465 5.58755 0
-2.79808 7.07026 0
-2.92699 6.16828 0
-1.62123 8.5164 0
-1.8798 7.41249 0
-2.29837 3.97709 0
-0.719817 -1.31541 0
-0.828616 -0.243014 0
-1.93006 1.69469 0
-2.10176 2.85571 0
-1.29681 3.50521 0
-0.870821 1.36142 0
-0.284839 0.46383 0
-0.522699 8.66582 0
-1.22515 9.70747 0
1.06909 -4.45808 0
3.75084 -6.45221 0
2.86697 -5.87462 0
2.03449 -5.25186 0
4.62536 -5.97352 0
-0.547481 -2.45618 0
0.489592 -3.41072 0
0.0597404 -1.60058 0
1.44456 -3.59597 0
5.6992 -6.40154 0
5.97699 -7.67188 0
-2.41567 5.2144 0
-2.06221 6.3532 0
-0.871915 7.61605 0
-1.22163 6.74895 0
0.0919175 7.70905 0
-1.12644 4.41626 0
0.148967 -0.61131 0
-0.808961 2.49505 0
-0.344783 3.5727 0
0.0509598 1.51487 0
0.7313 0.474195 0
0.629044 8.69348 0
0.0424078 9.81676 0
2.30567 -4.15842 0
3.72534 -5.43167 0
2.89873 -5.03611 0
5.42293 -5.31016 0
4.54786 -5.08324 0
0.633055 -2.2829 0
1.2389 -2.90517 0
0.758689 -1.38807 0
2.11769 -3.06678 0
2.92225 -3.38457 0
6.01174 -4.65171 0
6.49105 -5.60722 0
6.93194 -6.81408 0
-0.988946 5.68697 0
-0.34352 6.71902 0
1.10321 7.61921 0
0.563169 6.9277 0
-0.00317481 4.65615 0
0.592916 3.78524 0
1.33313 -0.642302 0
0.5224 2.63813 0
0.950374 1.57691 0
1.89105 0.20784 0
1.59749 1.06 0
2.09668 7.4432 0
1.76864 8.54609 0
1.32391 9.74607 0
3.71896 -4.20875 0
4.98414 -4.2896 0
5.71508 -3.81366 0
3.70269 -3.10957 0
1.79644 -1.87643 0
2.96716 -2.52472 0
6.64419 -3.84616 0
7.22351 -4.78143 0
7.79757 -5.88241 0
0.480805 5.76618 0
1.41115 6.61176 0
2.34008 6.55161 0
1.18863 4.48899 0
1.46387 3.35482 0
2.40738 -0.689689 0
2.79352 0.139245 0
1.76633 2.14961 0
2.58949 1.13944 0
3.02573 7.04492 0
2.85976 8.22035 0
2.59168 9.50264 0
4.80445 -3.22628 0
5.99724 -3.02615 0
4.09999 -2.23004 0
3.19767 -1.4888 0
6.61353 -2.27378 0
7.10415 -2.98377 0
7.82288 -3.84362 0
8.53392 -4.85619 0
1.99735 5.50456 0
3.01243 6.0339 0
2.33412 4.06273 0
2.39109 3.01847 0
3.47866 -0.452714 0
3.56962 0.613687 0
2.92655 2.25908 0
3.48726 1.505 0
3.90211 5.77035 0
3.89956 6.66022 0
3.91027 7.79489 0
3.81637 9.09906 0
5.47441 -1.87889 0
4.43965 -1.10787 0
6.5904 -1.31077 0
7.45456 -1.99922 0
8.24083 -2.81085 0
9.10272 -3.71186 0
3.32665 4.77384 0
3.27011 3.31991 0
4.6124 0.133675 0
4.42198 1.2796 0
3.96715 2.38525 0
4.4237 5.02342 0
4.71271 6.05354 0
4.87419 7.22358 0
4.96014 8.52992 0
5.76326 -0.435461 0
6.86246 -0.48618 0
7.61454 -1.05824 0
8.51747 -1.70833 0
9.50454 -2.48506 0
4.41666 3.72919 0
5.66698 1.05288 0
5.20995 2.45432 0
5.19434 4.48741 0
5.4395 5.38117 0
5.75003 6.51143 0
5.98713 7.79753 0
6.67414 0.430369 0
7.68177 -0.0283674 0
8.67574 -0.560901 0
9.74547 -1.21479 0
6.76776 1.28712 0
5.5251 3.6601 0
6.33894 2.10631 0
6.16234 2.97539 0
6.07674 4.54308 0
6.49547 5.67727 0
6.92558 6.93977 0
7.5888 0.930717 0
8.64678 0.561073 0
9.81014 0.0630004 0
7.39641 1.92971 0
6.57561 3.75834 0
7.02513 2.83172 0
7.15376 4.73902 0
7.78326 5.98608 0
8.48887 1.67945 0
9.68961 1.31797 0
8.15786 2.74371 0
7.74135 3.79617 0
8.49932 4.92594 0
9.44634 2.56937 0
9.05529 3.78168 0
CELLS 542 2168
3 2 0 4
3 0 1 7
3 4 0 7
3 1 5 8
3 7 1 8
3 3 2 13
3 13 2 4
3 11 3 14
3 14 3 13
3 13 4 15
3 4 7 16
3 15 4 16
3 5 6 17
3 8 5 17
3 6 9 18
3 17 6 18
3 7 8 19
3 16 7 19
3 8 17 20
3 19 8 20
3 9 10 23
3 18 9 23
3 10 21 24
3 23 10 24
3 12 11 25
3 25 11 14
3 26 12 27
3 27 12 25
3 14 13 29
3 29 13 15
3 25 14 30
3 30 14 29
3 29 15 31
3 15 16 33
3 31 15 33
3 16 19 34
3 33 16 34
3 17 18 35
3 20 17 35
3 18 23 36
3 35 18 36
3 19 20 37
3 34 19 37
3 20 35 38
3 37 20 38
3 21 22 39
3 24 21 39
3 22 32 40
3 39 22 40
3 23 24 41
3 36 23 41
3 24 39 42
3 41 24 42
3 27 25 44
3 44 25 30
3 28 26 45
3 45 26 27
3 45 27 46
3 46 27 44
3 47 28 48
3 48 28 45
3 30 29 50
3 50 29 31
3 44 30 51
3 51 30 50
3 50 31 52
3 31 33 52
3 32 43 53
3 40 32 53
3 53 43 54
3 33 34 55
3 34 37 55
3 33 55 52
3 35 36 56
3 38 35 56
3 36 41 57
3 56 36 57
3 37 38 58
3 38 56 58
3 37 58 55
3 39 40 59
3 42 39 59
3 40 53 60
3 59 40 60
3 41 42 61
3 57 41 61
3 42 59 62
3 61 42 62
3 43 63 54
3 46 44 64
3 64 44 51
3 48 45 65
3 65 45 46
3 65 46 66
3 66 46 64
3 49 47 67
3 67 47 48
3 67 48 68
3 68 48 65
3 69 49 70
3 70 49 67
3 52 55 72
3 64 51 73
3 51 50 73
3 50 52 73
3 73 52 74
3 74 52 72
3 53 54 75
3 60 53 75
3 54 63 76
3 54 76 77
3 75 54 77
3 55 58 78
3 72 55 78
3 72 78 79
3 56 57 80
3 57 61 80
3 56 80 58
3 58 80 81
3 78 58 81
3 59 60 82
3 62 59 82
3 60 75 83
3 82 60 83
3 61 62 84
3 62 82 84
3 61 84 80
3 63 85 76
3 66 64 86
3 64 73 86
3 68 65 87
3 87 65 66
3 87 66 86
3 70 67 88
3 88 67 68
3 88 68 89
3 89 68 87
3 71 69 90
3 90 69 70
3 90 70 91
3 91 70 88
3 92 71 93
3 93 71 90
3 74 72 94
3 94 72 79
3 86 73 95
3 95 73 74
3 95 74 96
3 96 74 94
3 97 86 95
3 76 85 99
3 75 77 100
3 83 75 100
3 76 99 101
3 77 76 101
3 77 101 102
3 100 77 102
3 94 79 103
3 78 81 104
3 79 78 104
3 79 104 103
3 80 84 105
3 81 80 105
3 81 105 106
3 104 81 106
3 82 83 107
3 83 100 107
3 82 107 84
3 84 107 108
3 105 84 108
3 85 109 99
3 89 87 110
3 87 86 110
3 110 86 97
3 91 88 111
3 111 88 89
3 111 89 110
3 93 90 112
3 112 90 91
3 112 91 113
3 113 91 111
3 98 92 114
3 114 92 93
3 114 93 115
3 115 93 112
3 116 98 114
3 117 103 118
3 96 94 119
3 94 103 119
3 119 103 117
3 97 95 120
3 120 95 96
3 120 96 119
3 121 110 97
3 121 97 122
3 122 97 120
3 123 119 117
3 124 98 116
3 99 109 125
3 99 125 126
3 101 99 126
3 100 102 127
3 100 127 107
3 101 126 128
3 102 101 128
3 102 128 127
3 104 106 129
3 104 129 103
3 103 129 118
3 105 108 130
3 106 105 130
3 106 130 129
3 107 127 131
3 108 107 131
3 108 131 132
3 108 132 130
3 109 134 125
3 125 134 133
3 113 111 135
3 111 110 135
3 135 110 121
3 115 112 136
3 136 112 113
3 136 113 135
3 116 114 137
3 137 114 115
3 137 115 138
3 138 115 136
3 139 124 116
3 139 116 140
3 140 116 137
3 141 135 121
3 118 129 142
3 118 142 143
3 117 118 143
3 123 117 143
3 122 120 144
3 120 119 144
3 144 119 123
3 141 121 145
3 145 121 122
3 145 122 144
3 146 141 145
3 147 144 123
3 147 123 148
3 143 148 123
3 150 124 139
3 149 150 139
3 131 127 151
3 125 133 152
3 126 125 152
3 126 152 153
3 128 126 153
3 128 153 154
3 128 154 127
3 127 154 151
3 152 133 155
3 130 132 156
3 130 156 129
3 129 156 142
3 131 151 157
3 132 131 157
3 132 157 156
3 156 158 142
3 157 151 159
3 133 160 155
3 134 161 133
3 133 161 160
3 138 136 162
3 136 135 162
3 162 135 141
3 140 137 163
3 163 137 138
3 163 138 162
3 149 139 164
3 164 139 140
3 164 140 165
3 165 140 163
3 166 149 164
3 167 162 141
3 167 141 146
3 142 158 168
3 143 142 168
3 143 168 148
3 146 145 169
3 145 144 169
3 169 144 147
3 170 167 146
3 170 146 169
3 171 169 147
3 171 147 148
3 171 148 172
3 168 172 148
3 173 149 166
3 174 150 149
3 173 174 149
3 154 175 151
3 151 175 159
3 152 155 176
3 153 152 176
3 153 176 177
3 153 177 154
3 154 177 175
3 155 160 178
3 155 178 179
3 176 155 179
3 156 157 180
3 156 180 158
3 157 159 181
3 157 181 180
3 158 180 182
3 158 182 168
3 159 175 183
3 159 183 181
3 175 184 183
3 160 186 178
3 178 186 185
3 161 187 160
3 160 187 186
3 165 163 188
3 163 162 188
3 188 162 167
3 166 164 189
3 189 164 165
3 189 165 188
3 190 173 166
3 190 166 191
3 191 166 189
3 192 188 167
3 192 167 170
3 193 192 170
3 182 194 168
3 194 172 168
3 193 170 195
3 170 169 195
3 195 169 171
3 196 195 171
3 196 171 172
3 194 197 172
3 197 198 172
3 198 196 172
3 200 173 190
3 199 200 190
3 201 174 173
3 200 201 173
3 176 179 202
3 177 176 202
3 177 202 175
3 175 202 184
3 178 185 203
3 178 203 179
3 179 203 202
3 203 185 204
3 202 205 184
3 183 206 181
3 180 181 206
3 180 206 182
3 182 206 194
3 183 184 207
3 205 207 184
3 183 207 206
3 185 208 204
3 186 209 185
3 185 209 208
3 187 210 186
3 186 210 209
3 191 189 211
3 189 188 211
3 211 188 192
3 199 190 212
3 212 190 191
3 212 191 211
3 213 199 212
3 214 211 192
3 214 192 193
3 215 214 193
3 215 193 195
3 206 216 194
3 216 197 194
3 216 217 197
3 215 195 218
3 218 195 196
3 198 218 196
3 217 219 197
3 219 218 198
3 197 219 198
3 220 199 213
3 221 200 199
3 220 221 199
3 222 201 200
3 221 222 200
3 203 204 223
3 203 223 202
3 202 223 205
3 204 208 224
3 204 224 223
3 205 223 225
3 205 225 207
3 207 225 226
3 207 226 206
3 226 216 206
3 208 228 224
3 224 228 227
3 209 229 208
3 229 228 208
3 210 230 209
3 209 230 229
3 213 212 231
3 212 211 231
3 231 211 214
3 232 220 213
3 232 213 231
3 233 231 214
3 233 214 215
3 234 233 215
3 234 215 218
3 226 235 216
3 235 217 216
3 235 236 217
3 217 236 219
3 237 234 218
3 237 218 219
3 236 238 219
3 238 237 219
3 240 220 232
3 239 240 232
3 241 221 220
3 240 241 220
3 242 222 221
3 241 242 221
3 224 227 243
3 224 243 223
3 223 243 225
3 225 243 244
3 225 244 226
3 226 244 235
3 227 245 243
3 228 246 227
3 227 246 245
3 229 247 228
3 228 247 246
3 230 248 229
3 229 248 247
3 239 232 249
3 232 231 249
3 249 231 233
3 250 249 233
3 250 233 234
3 237 250 234
3 244 251 235
3 235 251 236
3 251 252 236
3 236 252 238
3 252 253 238
3 253 250 237
3 253 237 238
3 254 239 249
3 255 240 239
3 254 255 239
3 256 241 240
3 255 256 240
3 257 242 241
3 256 257 241
3 245 258 243
3 243 258 244
3 244 258 251
3 245 259 258
3 246 260 245
3 245 260 259
3 247 261 246
3 246 261 260
3 248 262 247
3 247 262 261
3 254 249 263
3 263 249 250
3 253 263 250
3 258 264 251
3 251 264 252
3 264 265 252
3 265 263 253
3 252 265 253
3 266 254 263
3 267 255 254
3 266 267 254
3 268 256 255
3 267 268 255
3 269 257 256
3 268 269 256
3 259 270 258
3 270 264 258
3 260 271 259
3 259 271 270
3 261 272 260
3 260 272 271
3 262 273 261
3 273 272 261
3 270 274 264
3 275 266 263
3 275 263 265
3 274 276 264
3 276 265 264
3 276 277 265
3 277 275 265
3 278 267 266
3 275 278 266
3 279 268 267
3 278 279 267
3 280 269 268
3 279 280 268
3 271 281 270
3 270 281 274
3 272 282 271
3 271 282 281
3 273 283 272
3 272 283 282
3 281 284 274
3 274 284 276
3 285 278 275
3 277 285 275
3 284 286 276
3 286 285 277
3 276 286 277
3 287 279 278
3 285 287 278
3 288 280 279
3 287 288 279
3 282 289 281
3 281 289 284
3 283 290 282
3 282 290 289
3 289 291 284
3 284 291 286
3 291 292 286
3 292 287 285
3 286 292 285
3 293 288 287
3 292 293 287
3 290 294 289
3 289 294 291
3 294 295 291
3 295 293 292
3 291 295 292
CELL_TYPES 542
5
5
5
5
5
5
5
5
5
5
5
5
5
5
5
5
5
5
5
5
5
5
5
5
5
5
5
5
5
5
5
5
5
5
5
5
5
5
5
5
5
5
5
5
5
5
5
5
5
5
5
5
5
5
5
5
5
5
5
5
5
5
5
5
5
5
5
5
5
5
5
5
5
5
5
5
5
5
5
5
5
5
5
5
5
5
5
5
5
5
5
5
5
5
5
5
5
5
5
5
5
5
5
5
5
5
5
5
5
5
5
5
5
5
5
5
5
5
5
5
5
5
5
5
5
5
5
5
5
5
5
5
5
5
5
5
5
5
5
5
5
5
5
5
5
5
5
5
5
5
5
5
5
5
5
5
5
5
5
5
5
5
5
5
5
5
5
5
5
5
5
5
5
5
5
5
5
5
5
5
5
5
5
5
5
5
5
5
5
5
5
5
5
5
5
5
5
5
5
5
5
5
5
5
5
5
5
5
5
5
5
5
5
5
5
5
5
5
5
5
5
5
5
5
5
5
5
5
5
5
5
5
5
5
5
5
5
5
5
5
5
5
5
5
5
5
5
5
5
5
5
5
5
5
5
5
5
5
5
5
5
5
5
5
5
5
5
5
5
5
5
5
5
5
5
5
5
5
5
5
5
5
5
5
5
5
5
5
5
5
5
5
5
5
5
5
5
5
5
5
5
5
5
5
5
5
5
5
5
5
5
5
5
5
5
5
5
5
5
5
5
5
5
5
5
5
5
5
5
5
5
5
5
5
5
5
5
5
5
5
5
5
5
5
5
5
5
5
5
5
5
5
5
5
5
5
5
5
5
5
5
5
5
5
5
5
5
5
5
5
5
5
5
5
5
5
5
5
5
5
5
5
5
5
5
5
5
5
5
5
5
5
5
5
5
5
5
5
5
5
5
5
5
5
5
5
5
5
5
5
5
5
5
5
5
5
5
5
5
5
5
5
5
5
5
5
5
5
5
5
5
5
5
5
5
5
5
5
5
5
5
5
5
5
5
5
5
5
5
5
5
5
5
5
5
5
5
5
5
5
5
5
5
5
5
5
5
5
5
5
5
5
5
5
5
5
5
5
5
5
5
5
5
5
5
5
5
5
5
5
5
5
5
5
5
5
5
5
5
5
5
5
5
5
5
5
5
5
5
5
5
5
5
5
5
5
5
5
5
5
5
5
5
5
5
5
5
5
5
5
5
5
5
5
5
5
5
5
5
5
5
5
POINT_DATA 296
SCALARS concentrations float 4
LOOKUP_TABLE default
0 0.952364 0.117336 1.00298
0 0.952354 0.118233 4.18579
0 0.952368 0.118243 6.41819
0 0.952348 0.118419 2.61758
0 0.95236 0.0926584 0.432501
0 0.952386 0.11928 4.91876
0 0.952397 0.120122 0.234662
0 0.952357 0.0940892 0.630332
0 0.952365 0.0926672 0.174478
0 0.952355 0.11894 4.57914
0 0.952338 0.116049 4.98551
0 0.952324 0.116979 9.66463
0 0.952337 0.117249 3.91599
0 0.952351 0.0925266 0.652511
0 0.952332 0.0931815 0.71684
0 0.952343 0.0934381 0.887414
0 0.95235 0.0936877 0.967591
0 0.952386 0.0928024 0.416085
0 0.952363 0.0932604 -0.0825296
0 0.952352 0.0944327 0.594668
0 0.952356 0.09279 0.345507
0 0.95237 0.119694 4.00651
0 0.952363 0.119503 0.0113992
0 0.952344 0.0931596 -0.114003
0 0.952363 0.0938052 0.474637
0 0.952329 0.0938073 0.104978
0 0.952345 0.112389 3.09045
0 0.952337 0.0945005 0.87822
0 0.952346 0.11811 8.96704
0 0.952337 0.0935534 0.872027
0 0.952338 0.0929694 0.802874
0 0.952346 0.0937842 0.902568
0 0.952364 0.117593 5.76243
0 0.952351 0.0942368 0.195482
0 0.952353 0.0938236 -0.822887
0 0.952354 0.0943328 -0.212627
0 0.952345 0.0932047 -0.283066
0 0.952352 0.0931173 -0.695246
0 0.95235 0.0933705 -0.399849
0 0.952384 0.0926893 -0.0316385
0 0.952363 0.0941381 0.0272256
0 0.952363 0.0959231 0.549721
0 0.952389 0.0935934 0.189738
0 0.952339 0.114684 2.48458
0 0.952339 0.0937642 0.693633
0 0.952342 0.0946865 1.56407
0 0.952346 0.0951785 -1.58642
0 0.952374 0.116099 4.92692
0 0.952354 0.0947048 0.988722
0 0.95238 0.115419 1.75454
0 0.952349 0.093595 0.812259
0 0.952354 0.0931877 0.932632
0 0.952351 0.0943285 0.33875
0 0.952358 0.0934252 -0.515194
0 0.952334 0.0936273 -0.0834471
0 0.952358 0.0935278 0.328669
0 0.952351 0.0946075 0.797012
0 0.952353 0.093667 0.137067
0 0.952362 0.0944135 -0.0225361
0 0.952368 0.0978607 1.02025
0 0.95235 0.0948684 0.417634
0 0.952367 0.0955769 0.270284
0 0.952367 0.0969262 1.8041
0 0.952342 0.117977 6.71982
0 0.952363 0.0942082 -0.736645
0 0.952349 0.0941219 -0.766476
0 0.952361 0.0944774 -0.571406
0 0.952376 0.0935167 1.0342
0 0.95236 0.0939627 1.19079
0 0.952327 0.120562 4.30451
0 0.952363 0.0928439 0.81872
0 0.952308 0.117447 5.18892
0 0.952356 0.0975756 1.78069
0 0.952361 0.0946521 1.5238
0 0.952362 0.0946433 0.668365
0 0.952351 0.0938902 0.94871
0 0.952353 0.093647 1.19817
0 0.952347 0.093795 -1.19498
0 0.95236 0.0965059 1.94901
0 0.952364 0.0953044 1.55514
0 0.952365 0.0947573 -0.459463
0 0.952371 0.0940637 0.0300158
0 0.952363 0.098642 0.4657
0 0.952368 0.0935249 -0.461781
0 0.952367 0.0959938 -0.123664
0 0.952365 0.118269 3.83829
0 0.952369 0.0941765 1.8355
0 0.952359 0.0941938 -1.65367
0 0.952367 0.0940462 1.32621
0 0.952361 0.0932976 -1.26366
0 0.952325 0.0930846 0.417775
0 0.952357 0.0948888 1.10306
0 0.95234 0.116049 4.81462
0 0.95234 0.094803 1.09295
0 0.952372 0.0943788 0.657692
0 0.952372 0.0945259 1.99982
0 0.952376 0.0947821 -1.72843
0 0.95237 0.0941443 0.364457
0 0.952339 0.118027 5.0446
0 0.952352 0.0933623 0.2408
0 0.952363 0.0938535 1.14831
0 0.952352 0.0946264 1.03733
0 0.952359 0.093754 1.40816
0 0.952374 0.0950276 1.52392
0 0.952368 0.0935601 0.397332
0 0.952371 0.0935578 0.914091
0 0.952376 0.0948766 -1.4626
0 0.952374 0.095214 -1.15284
0 0.95237 0.0934141 -0.920756
0 0.952354 0.115796 5.04543
0 0.952364 0.0935269 1.54529
0 0.952364 0.0925617 0.0155827
0 0.952358 0.0932407 -0.555526
0 0.952368 0.0935296 1.11442
0 0.952345 0.0943981 -0.831924
0 0.952365 0.0943125 -0.594847
0 0.952353 0.0935511 -0.114008
0 0.952367 0.0943145 0.647047
0 0.952381 0.0943259 0.864605
0 0.952373 0.0958572 -1.8342
0 0.952375 0.0956022 1.07349
0 0.952368 0.0954238 -1.96529
0 0.952371 0.0978275 -1.32995
0 0.952375 0.0942749 -0.776648
0 0.952367 0.115932 4.85776
0 0.952352 0.0979871 2.30593
0 0.95236 0.0953167 0.505491
0 0.952372 0.0933715 -1.238
0 0.952362 0.0941142 1.53647
0 0.952383 0.0961395 -1.89332
0 0.952373 0.0947926 1.45486
0 0.952374 0.0939671 1.23902
0 0.952362 0.0960856 -0.221735
0 0.952329 0.0954223 -1.05468
0 0.952336 0.113772 4.27531
0 0.952371 0.0930998 -0.00058737
0 0.952376 0.0959274 -1.85881
0 0.952359 0.0944677 0.119287
0 0.952366 0.0963793 -0.0802624
0 0.952371 0.0930776 -0.219349
0 0.952363 0.0932217 -0.304131
0 0.952371 0.0937376 -1.01532
0 0.952384 0.0954835 1.49732
0 0.952375 0.0941328 -0.112785
0 0.952378 0.0948975 -0.135832
0 0.952376 0.0951748 -0.263351
0 0.952376 0.100087 -2.52147
0 0.952379 0.0945506 1.49513
0 0.952381 0.0949444 -0.670959
0 0.952386 0.0930045 0.0400499
0 0.952391 0.118449 4.0589
0 0.952378 0.0931472 -0.686635
0 0.952349 0.0991462 0.990187
0 0.952358 0.0943356 -1.73375
0 0.95237 0.0998021 -0.179334
0 0.952332 0.0958599 1.00686
0 0.952366 0.0950175 -1.51099
0 0.95236 0.0943127 -0.475462
0 0.952381 0.0962399 -0.409467
0 0.952376 0.0950043 0.519956
0 0.952326 0.0953288 -1.86907
0 0.952317 0.115919 3.12359
0 0.952367 0.0938881 0.0237363
0 0.952362 0.0972955 -1.22146
0 0.95237 0.0943511 -0.510491
0 0.952365 0.0930256 0.0855691
0 0.952385 0.0947733 0.00107758
0 0.952368 0.095508 -1.10386
0 0.952383 0.0935502 0.420076
0 0.952378 0.0958081 -0.811275
0 0.952375 0.101406 -1.57981
0 0.952381 0.0946499 -1.18702
0 0.952392 0.0957789 -0.740881
0 0.952364 0.0943814 -1.00068
0 0.952382 0.115233 0.332262
0 0.952369 0.0953 1.38125
0 0.952347 0.0944681 -1.40849
0 0.952358 0.0934315 0.846337
0 0.952342 0.0941641 -1.63396
0 0.95235 0.0937073 1.21085
0 0.952362 0.0992826 -0.875094
0 0.952356 0.0971868 1.45008
0 0.952383 0.094521 -0.517597
0 0.952367 0.0962678 -1.17999
0 0.95237 0.0932951 0.370669
0 0.952354 0.0930371 -1.17228
0 0.952343 0.0934526 -0.970973
0 0.952328 0.11451 6.90852
0 0.952363 0.0949722 0.572033
0 0.952374 0.0932348 0.200131
0 0.952373 0.0934742 0.0719754
0 0.952375 0.100289 2.57961
0 0.95237 0.097122 -0.453772
0 0.952382 0.0944983 -0.903473
0 0.952398 0.0943783 -1.05391
0 0.952384 0.0952837 1.0652
0 0.952389 0.0942073 0.317653
0 0.952385 0.0974612 2.24095
0 0.952383 0.0938912 -0.481481
0 0.952368 0.0932679 0.199727
0 0.952362 0.0932128 -0.537454
0 0.952344 0.116397 5.25982
0 0.952364 0.0946034 1.11614
0 0.952359 0.0936325 1.39752
0 0.95237 0.0932217 -1.45695
0 0.952371 0.0946824 0.311195
0 0.952379 0.101961 -2.09729
0 0.952372 0.0944692 -1.02995
0 0.952369 0.0932425 -1.13991
0 0.952362 0.0928308 -0.90687
0 0.952355 0.117472 3.21159
0 0.952364 0.0949801 -0.0952956
0 0.95236 0.0999488 1.36279
0 0.952365 0.0949963 0.52699
0 0.952372 0.0951784 -1.40967
0 0.952384 0.0948767 0.971658
0 0.952394 0.0966988 -0.149248
0 0.952367 0.0937701 -0.361495
0 0.952382 0.0944732 -0.387654
0 0.952371 0.0987885 2.53061
0 0.952356 0.0954314 0.967841
0 0.952373 0.094365 -0.882799
0 0.952381 0.11757 0.702972
0 0.952373 0.0954015 0.169685
0 0.952376 0.0969865 -1.52733
0 0.952374 0.0937346 -1.1121
0 0.952386 0.0951465 0.316855
0 0.952355 0.0981646 -0.596495
0 0.952372 0.0930111 -0.954418
0 0.95238 0.092888 -0.969479
0 0.952378 0.114876 1.03834
0 0.952361 0.098033 1.97933
0 0.952354 0.0966074 0.14466
0 0.95237 0.0938568 0.681128
0 0.952374 0.0962035 1.04045
0 0.952378 0.0955657 -0.028909
0 0.95237 0.0936812 -0.278081
0 0.952372 0.0945113 0.122733
0 0.952373 0.0960227 -0.354281
0 0.952353 0.0938645 0.294017
0 0.952339 0.0939745 -0.31804
0 0.952323 0.0942623 0.258225
0 0.952353 0.118866 4.58205
0 0.952362 0.0957041 -0.0186347
0 0.952374 0.0937971 -0.870418
0 0.952351 0.0993227 -0.954422
0 0.952368 0.0936051 -0.997666
0 0.952381 0.0926273 -0.910109
0 0.952389 0.117365 7.46207
0 0.952359 0.0940462 0.6891
0 0.952365 0.0954091 -0.226038
0 0.952369 0.0948797 -0.578414
0 0.952373 0.0939506 -0.474681
0 0.952369 0.0951808 -0.432684
0 0.952355 0.094046 0.247883
0 0.952339 0.0928475 0.211399
0 0.952306 0.0929266 0.294615
0 0.952295 0.11735 6.07017
0 0.952359 0.0956077 -1.33655
0 0.952368 0.0941459 -1.21687
0 0.952373 0.093879 0.678134
0 0.952381 0.0929699 -0.773561
0 0.952389 0.114663 2.02459
0 0.952365 0.0956398 -0.77222
0 0.952368 0.0945523 -0.768125
0 0.952372 0.0942192 0.304668
0 0.952358 0.09355 -0.00533857
0 0.952342 0.0940465 -0.276146
0 0.952322 0.09275 0.224603
0 0.952298 0.117834 7.51045
0 0.952366 0.094669 1.06536
0 0.95237 0.0936557 0.59196
0 0.952371 0.0928541 -0.766059
0 0.952372 0.115773 -0.219275
0 0.952362 0.0938895 0.82885
0 0.952363 0.0941533 0.128863
0 0.952362 0.0996996 3.58974
0 0.952358 0.0937622 0.128491
0 0.952341 0.0943055 0.434571
0 0.952336 0.0952788 0.313567
0 0.952332 0.118755 6.94598
0 0.952368 0.0937147 -1.02079
0 0.952392 0.0928632 -0.885617
0 0.952385 0.11819 2.94076
0 0.952357 0.0933486 0.764346
0 0.952343 0.0949633 -0.066087
0 0.952347 0.0942683 0.750396
0 0.952338 0.0948613 0.294807
0 0.952333 0.115495 6.67781
0 0.952387 0.0939392 -0.292201
0 0.952411 0.117251 3.39426
0 0.952361 0.0931496 -0.541174
0 0.952346 0.0946446 0.474375
0 0.952347 0.115152 3.63672
0 0.952387 0.119039 4.06484
0 0.952358 0.114588 3.18046
VECTORS fa_u float
0.00729167 0.00291383 -0
0.0066249 0.00380655 -0
0.00289442 0.000788256 -0
0.00722185 0.00112128 -0
1e-08 0 0
0.00519883 0.00400601 -0
0.00258172 0.00249926 -0
1e-08 0 0
1e-08 0 0
0.00451435 0.00551093 -0
0.00528025 0.00886616 -0
0.00658826 0.000136809 -0
0.00622857 -0.000671583 0
1e-08 0 0
1e-08 0 0
1e-08 0 0
1e-08 0 0
1e-08 0 0
1e-08 0 0
1e-08 0 0
1e-08 0 0
0.0029449 0.00726642 -0
0.00160205 0.00629332 -0
1e-08 0 0
1e-08 0 0
1e-08 0 0
0.00894764 -0.00226037 0
1e-08 0 0
0.0109512 -0.00479512 0
1e-08 0 0
1e-08 0 0
1e-08 0 0
0.000850696 0.00728858 -0
1e-08 0 0
1e-08 0 0
1e-08 0 0
1e-08 0 0
1e-08 0 0
1e-08 0 0
1e-08 0 0
1e-08 0 0
1e-08 0 0
1e-08 0 0
-0.00017411 0.00768196 -0
1e-08 0 0
1e-08 0 0
1e-08 0 0
0.00566404 -0.00360257 0
1e-08 0 0
0.00271357 -0.0021894 0
1e-08 0 0
1e-08 0 0
1e-08 0 0
1e-08 0 0
1e-08 0 0
1e-08 0 0
1e-08 0 0
1e-08 0 0
1e-08 0 0
1e-08 0 0
1e-08 0 0
1e-08 0 0
1e-08 0 0
-0.000585132 0.00403348 0
1e-08 0 0
1e-08 0 0
1e-08 0 0
1e-08 0 0
1e-08 0 0
0.00320319 -0.00316959 0
1e-08 0 0
0.00280032 -0.00343426 0
1e-08 0 0
1e-08 0 0
1e-08 0 0
1e-08 0 0
1e-08 0 0
1e-08 0 0
1e-08 0 0
1e-08 0 0
1e-08 0 0
1e-08 0 0
1e-08 0 0
1e-08 0 0
1e-08 0 0
-0.00138823 0.00534591 0
1e-08 0 0
1e-08 0 0
1e-08 0 0
1e-08 0 0
1e-08 0 0
1e-08 0 0
0.00569797 -0.0093521 0
1e-08 0 0
1e-08 0 0
1e-08 0 0
1e-08 0 0
1e-08 0 0
0.0036593 -0.00905655 0
1e-08 0 0
1e-08 0 0
1e-08 0 0
1e-08 0 0
1e-08 0 0
1e-08 0 0
1e-08 0 0
1e-08 0 0
1e-08 0 0
1e-08 0 0
-0.00289076 0.00716111 0
1e-08 0 0
1e-08 0 0
1e-08 0 0
1e-08 0 0
1e-08 0 0
1e-08 0 0
1e-08 0 0
1e-08 0 0
1e-08 0 0
1e-08 0 0
1e-08 0 0
1e-08 0 0
1e-08 0 0
1e-08 0 0
0.00134854 -0.0053864 0
1e-08 0 0
1e-08 0 0
1e-08 0 0
1e-08 0 0
1e-08 0 0
1e-08 0 0
1e-08 0 0
1e-08 0 0
1e-08 0 0
-0.00373667 0.00647523 0
1e-08 0 0
1e-08 0 0
1e-08 0 0
1e-08 0 0
1e-08 0 0
1e-08 0 0
1e-08 0 0
1e-08 0 0
1e-08 0 0
1e-08 0 0
1e-08 0 0
1e-08 0 0
1e-08 0 0
1e-08 0 0
1e-08 0 0
0.00052585 -0.00384185 0
1e-08 0 0
1e-08 0 0
1e-08 0 0
1e-08 0 0
1e-08 0 0
1e-08 0 0
1e-08 0 0
1e-08 0 0
1e-08 0 0
1e-08 0 0
-0.00464675 0.00596012 0
1e-08 0 0
1e-08 0 0
1e-08 0 0
1e-08 0 0
1e-08 0 0
1e-08 0 0
1e-08 0 0
1e-08 0 0
1e-08 0 0
1e-08 0 0
1e-08 0 0
1e-08 0 0
0.000117482 -0.00775879 0
1e-08 0 0
1e-08 0 0
1e-08 0 0
1e-08 0 0
1e-08 0 0
1e-08 0 0
1e-08 0 0
1e-08 0 0
1e-08 0 0
1e-08 0 0
1e-08 0 0
1e-08 0 0
-0.00223127 0.00227007 0
1e-08 0 0
1e-08 0 0
1e-08 0 0
1e-08 0 0
1e-08 0 0
1e-08 0 0
1e-08 0 0
1e-08 0 0
1e-08 0 0
1e-08 0 0
1e-08 0 0
1e-08 0 0
1e-08 0 0
-0.000857377 -0.00695804 0
1e-08 0 0
1e-08 0 0
1e-08 0 0
1e-08 0 0
1e-08 0 0
1e-08 0 0
1e-08 0 0
1e-08 0 0
-0.00485232 0.00397026 0
1e-08 0 0
1e-08 0 0
1e-08 0 0
1e-08 0 0
1e-08 0 0
1e-08 0 0
1e-08 0 0
1e-08 0 0
1e-08 0 0
1e-08 0 0
1e-08 0 0
-0.0016053 -0.00618411 0
1e-08 0 0
1e-08 0 0
1e-08 0 0
1e-08 0 0
1e-08 0 0
1e-08 0 0
1e-08 0 0
-0.00870682 0.0052354 0
1e-08 0 0
1e-08 0 0
1e-08 0 0
1e-08 0 0
1e-08 0 0
1e-08 0 0
1e-08 0 0
1e-08 0 0
1e-08 0 0
1e-08 0 0
1e-08 0 0
-0.00303034 -0.00737854 0
1e-08 0 0
1e-08 0 0
1e-08 0 0
1e-08 0 0
1e-08 0 0
-0.00751809 0.0030775 0
1e-08 0 0
1e-08 0 0
1e-08 0 0
1e-08 0 0
1e-08 0 0
1e-08 0 0
1e-08 0 0
1e-08 0 0
-0.00501493 -0.00836414 0
1e-08 0 0
1e-08 0 0
1e-08 0 0
1e-08 0 0
-0.00622227 0.00160163 0
1e-08 0 0
1e-08 0 0
1e-08 0 0
1e-08 0 0
1e-08 0 0
1e-08 0 0
-0.00362563 -0.00448131 0
1e-08 0 0
1e-08 0 0
1e-08 0 0
-0.00720393 0.000864008 0
1e-08 0 0
1e-08 0 0
1e-08 0 0
1e-08 0 0
1e-08 0 0
1e-08 0 0
-0.00265632 -0.00263387 0
1e-08 0 0
1e-08 0 0
-0.00838823 -0.000185018 0
1e-08 0 0
1e-08 0 0
1e-08 0 0
1e-08 0 0
-0.00586781 -0.00458549 0
1e-08 0 0
-0.00360881 -0.000523814 0
1e-08 0 0
1e-08 0 0
-0.0067935 -0.0039201 0
-0.00545829 -0.00140533 0
-0.00713941 -0.00286909 0
