# vtk DataFile Version 2.0
CellBP Time: 8.84
ASCII
DATASET UNSTRUCTURED_GRID
POINTS 296 double
-8.93876 -3.66024 0
-8.38087 -4.81169 0
-9.32898 -2.43906 0
-9.60579 -1.21115 0
-8.09507 -2.71096 0
-7.66521 -5.87703 0
-6.81742 -6.84016 0
-7.65565 -3.73162 0
-7.09478 -4.70483 0
-5.89323 -7.70752 0
-4.86546 -8.43989 0
-9.71387 0.0380657 0
-9.65842 1.31362 0
-8.41461 -1.62219 0
-8.57217 -0.505618 0
-7.3422 -1.91604 0
-6.96842 -2.78011 0
-6.44048 -5.62373 0
-5.67224 -6.4413 0
-6.54141 -3.74178 0
-6.00691 -4.5251 0
-3.71644 -9.00405 0
-2.48842 -9.4028 0
-4.79736 -7.15858 0
-3.84838 -7.74185 0
-8.5867 0.630758 0
-9.43853 2.59064 0
-8.44305 1.73043 0
-9.02901 3.80601 0
-7.51924 -0.883063 0
-7.5865 0.0891658 0
-6.73563 -1.25289 0
-1.21702 -9.64011 0
-6.24101 -2.06683 0
-6.10857 -2.93941 0
-5.36826 -5.3276 0
-4.66917 -5.97321 0
-5.47271 -3.63148 0
-5.09243 -4.42749 0
-2.81759 -8.20301 0
-1.74604 -8.46314 0
-3.83979 -6.58743 0
-3.01117 -7.01987 0
0.0552368 -9.69977 0
-7.51166 1.11533 0
-8.18679 2.85907 0
-7.37388 2.04892 0
-8.41573 4.92615 0
-7.70409 3.88051 0
-7.65737 5.96145 0
-6.58345 -0.369014 0
-6.76327 0.548066 0
-5.62053 -0.968791 0
-0.581754 -8.60937 0
0.543997 -8.54232 0
-5.15583 -2.40106 0
-4.34778 -4.96097 0
-3.79767 -5.64235 0
-4.31498 -3.70697 0
-2.02508 -7.41174 0
-1.11481 -7.61959 0
-2.92973 -5.97278 0
-2.27112 -6.48899 0
1.31061 -9.5828 0
-6.5186 1.38129 0
-6.98963 3.02627 0
-6.49433 2.30573 0
-7.10887 4.85032 0
-6.54754 3.88547 0
-6.81582 6.90872 0
-6.39453 5.72812 0
-5.87239 7.76562 0
-4.37409 -1.16617 0
-5.6788 0.4913 0
-4.5735 -0.0275643 0
-0.00487943 -7.65374 0
1.6805 -8.39188 0
0.902962 -7.54397 0
-3.96013 -2.35259 0
-3.45502 -1.3794 0
-3.21623 -4.70096 0
-3.21592 -3.2065 0
-1.36494 -6.52769 0
-0.519836 -6.85438 0
-1.94603 -5.4318 0
2.55967 -9.33634 0
-5.38107 1.99082 0
-5.94299 2.98343 0
-5.94784 4.72732 0
-5.6121 3.86812 0
-5.6008 6.52343 0
-5.3049 5.45114 0
-4.84383 8.51719 0
-4.70146 7.18644 0
-3.46024 -0.418323 0
-4.36294 1.22609 0
-3.65083 0.58618 0
-3.98089 2.29299 0
-3.7064 9.08553 0
2.75742 -8.05982 0
0.373888 -6.60367 0
1.93092 -7.28503 0
1.23378 -6.69261 0
-2.4252 -0.861839 0
-2.81081 -2.10512 0
-2.26419 -4.02398 0
-2.29654 -2.92716 0
-0.452884 -5.72014 0
-1.20113 -4.42006 0
3.77104 -8.94391 0
-4.67233 3.30339 0
-4.95413 4.45433 0
-4.51927 6.08608 0
-4.41757 5.19737 0
-3.75053 7.78973 0
-3.7113 6.62832 0
-2.70819 8.19505 0
-1.63328 -0.123492 0
-1.43487 -0.874392 0
-2.47091 0.517565 0
-3.20152 1.43357 0
-3.17423 3.26103 0
-2.86491 2.35804 0
-1.35076 0.638604 0
-2.48542 9.47004 0
3.79488 -7.63029 0
2.83706 -6.89786 0
0.897858 -5.6585 0
1.97993 -6.19914 0
-1.6617 -1.97365 0
-1.414 -3.23194 0
0.0793042 -4.64617 0
-0.552566 -3.63745 0
4.77356 -7.07199 0
4.91423 -8.38597 0
-3.68396 4.4334 0
-3.63439 5.58728 0
-2.79772 7.0698 0
-2.92677 6.16758 0
-1.62101 8.51555 0
-1.87952 7.41159 0
-2.29789 3.97701 0
-0.720063 -1.3152 0
-0.828489 -0.242812 0
-1.9303 1.69474 0
-2.10196 2.85554 0
-1.29637 3.50507 0
-0.870665 1.36137 0
-0.284681 0.464246 0
-0.522455 8.66499 0
-1.22521 9.70661 0
1.06892 -4.45751 0
3.75024 -6.45106 0
2.86638 -5.87385 0
2.03437 -5.25126 0
4.62493 -5.97291 0
-0.547685 -2.45621 0
0.489541 -3.41099 0
0.0597089 -1.60096 0
1.44463 -3.5956 0
5.6985 -6.40094 0
5.97641 -7.67107 0
-2.41522 5.21401 0
-2.06186 6.35241 0
-0.871816 7.61527 0
-1.22142 6.74861 0
0.0919849 7.70832 0
-1.12639 4.41627 0
0.148896 -0.610919 0
-0.808572 2.49515 0
-0.344746 3.57285 0
0.0512427 1.51514 0
0.731227 0.473867 0
0.629196 8.69295 0
0.0421266 9.81589 0
2.30555 -4.15788 0
3.72492 -5.43125 0
2.8981 -5.03553 0
5.4224 -5.3094 0
4.54723 -5.08265 0
0.633014 -2.2832 0
1.23886 -2.90534 0
0.758613 -1.38772 0
2.11733 -3.06646 0
2.92199 -3.38442 0
6.01137 -4.65104 0
6.49052 -5.60653 0
6.9315 -6.81322 0
-0.989016 5.68643 0
-0.343487 6.7183 0
1.10305 7.61865 0
0.562881 6.92776 0
-0.00312169 4.65615 0
0.592753 3.78497 0
1.33321 -0.641966 0
0.522488 2.63809 0
0.950016 1.57678 0
1.8911 0.207637 0
1.59721 1.0598 0
2.09648 7.44266 0
1.76862 8.54544 0
1.32369 9.74536 0
3.71857 -4.20846 0
4.98354 -4.28913 0
5.71449 -3.81338 0
3.70221 -3.10929 0
1.79652 -1.87655 0
2.96678 -2.52452 0
6.64362 -3.84586 0
7.22299 -4.78095 0
7.79696 -5.88188 0
0.480664 5.7656 0
1.41088 6.61158 0
2.33988 6.55085 0
1.18839 4.48887 0
1.46396 3.35473 0
2.40751 -0.689333 0
2.7933 0.139106 0
1.76605 2.14946 0
2.58921 1.13929 0
3.0258 7.04456 0
2.85979 8.22007 0
2.59141 9.50191 0
4.80434 -3.22588 0
5.99731 -3.02602 0
4.09962 -2.23011 0
3.19783 -1.48854 0
6.61321 -2.2733 0
7.10367 -2.98354 0
7.82232 -3.84347 0
8.53336 -4.85567 0
1.99675 5.50412 0
3.01203 6.03322 0
2.33417 4.06266 0
2.39111 3.01819 0
3.47825 -0.452554 0
3.56958 0.613857 0
2.92648 2.25914 0
3.48691 1.50486 0
3.9019 5.77007 0
3.89913 6.65965 0
3.91023 7.79424 0
3.81607 9.09852 0
5.47432 -1.87927 0
4.4393 -1.10802 0
6.59009 -1.31039 0
7.45417 -1.99948 0
8.24027 -2.81065 0
9.10215 -3.71188 0
3.32653 4.77362 0
3.26969 3.31967 0
4.61216 0.133354 0
4.42153 1.27954 0
3.96668 2.38497 0
4.42337 5.02311 0
4.71251 6.05311 0
4.87395 7.22327 0
4.95984 8.52934 0
5.76287 -0.435295 0
6.86197 -0.486496 0
7.6141 -1.0583 0
8.51693 -1.70809 0
9.50389 -2.48497 0
4.41611 3.72863 0
5.6664 1.05246 0
5.20946 2.45385 0
5.19394 4.48704 0
5.43885 5.38052 0
5.74965 6.51107 0
5.98678 7.79674 0
6.67375 0.430075 0
7.68122 -0.0285695 0
8.67507 -0.560775 0
9.74461 -1.21459 0
6.76689 1.28689 0
5.52459 3.65985 0
6.3381 2.10609 0
6.16148 2.97483 0
6.07629 4.54275 0
6.49464 5.6767 0
6.9248 6.93915 0
7.58796 0.930392 0
8.646 0.561065 0
9.80928 0.062808 0
7.39584 1.92928 0
6.57507 3.75784 0
7.02457 2.83155 0
7.15333 4.73855 0
7.78263 5.98556 0
8.48832 1.67934 0
9.68873 1.31781 0
8.15703 2.74352 0
7.74084 3.79593 0
8.49837 4.92551 0
9.44547 2.56894 0
9.05441 3.78115 0
CELLS 542 2168
3 2 0 4
3 0 1 7
3 4 0 7
3 1 5 8
3 7 1 8
3 3 2 13
3 13 2 4
3 11 3 14
3 14 3 13
3 13 4 15
3 4 7 16
3 15 4 16
3 5 6 17
3 8 5 17
3 6 9 18
3 17 6 18
3 7 8 19
3 16 7 19
3 8 17 20
3 19 8 20
3 9 10 23
3 18 9 23
3 10 21 24
3 23 10 24
3 12 11 25
3 25 11 14
3 26 12 27
3 27 12 25
3 14 13 29
3 29 13 15
3 25 14 30
3 30 14 29
3 29 15 31
3 15 16 33
3 31 15 33
3 16 19 34
3 33 16 34
3 17 18 35
3 20 17 35
3 18 23 36
3 35 18 36
3 19 20 37
3 34 19 37
3 20 35 38
3 37 20 38
3 21 22 39
3 24 21 39
3 22 32 40
3 39 22 40
3 23 24 41
3 36 23 41
3 24 39 42
3 41 24 42
3 27 25 44
3 44 25 30
3 28 26 45
3 45 26 27
3 45 27 46
3 46 27 44
3 47 28 48
3 48 28 45
3 30 29 50
3 50 29 31
3 44 30 51
3 51 30 50
3 50 31 52
3 31 33 52
3 32 43 53
3 40 32 53
3 53 43 54
3 33 34 55
3 34 37 55
3 33 55 52
3 35 36 56
3 38 35 56
3 36 41 57
3 56 36 57
3 37 38 58
3 38 56 58
3 37 58 55
3 39 40 59
3 42 39 59
3 40 53 60
3 59 40 60
3 41 42 61
3 57 41 61
3 42 59 62
3 61 42 62
3 43 63 54
3 46 44 64
3 64 44 51
3 48 45 65
3 65 45 46
3 65 46 66
3 66 46 64
3 49 47 67
3 67 47 48
3 67 48 68
3 68 48 65
3 69 49 70
3 70 49 67
3 52 55 72
3 64 51 73
3 51 50 73
3 50 52 73
3 73 52 74
3 74 52 72
3 53 54 75
3 60 53 75
3 54 63 76
3 54 76 77
3 75 54 77
3 55 58 78
3 72 55 78
3 72 78 79
3 56 57 80
3 57 61 80
3 56 80 58
3 58 80 81
3 78 58 81
3 59 60 82
3 62 59 82
3 60 75 83
3 82 60 83
3 61 62 84
3 62 82 84
3 61 84 80
3 63 85 76
3 66 64 86
3 64 73 86
3 68 65 87
3 87 65 66
3 87 66 86
3 70 67 88
3 88 67 68
3 88 68 89
3 89 68 87
3 71 69 90
3 90 69 70
3 90 70 91
3 91 70 88
3 92 71 93
3 93 71 90
3 74 72 94
3 94 72 79
3 86 73 95
3 95 73 74
3 95 74 96
3 96 74 94
3 97 86 95
3 76 85 99
3 75 77 100
3 83 75 100
3 76 99 101
3 77 76 101
3 77 101 102
3 100 77 102
3 94 79 103
3 78 81 104
3 79 78 104
3 79 104 103
3 80 84 105
3 81 80 105
3 81 105 106
3 104 81 106
3 82 83 107
3 83 100 107
3 82 107 84
3 84 107 108
3 105 84 108
3 85 109 99
3 89 87 110
3 87 86 110
3 110 86 97
3 91 88 111
3 111 88 89
3 111 89 110
3 93 90 112
3 112 90 91
3 112 91 113
3 113 91 111
3 98 92 114
3 114 92 93
3 114 93 115
3 115 93 112
3 116 98 114
3 117 103 118
3 96 94 119
3 94 103 119
3 119 103 117
3 97 95 120
3 120 95 96
3 120 96 119
3 121 110 97
3 121 97 122
3 122 97 120
3 123 119 117
3 124 98 116
3 99 109 125
3 99 125 126
3 101 99 126
3 100 102 127
3 100 127 107
3 101 126 128
3 102 101 128
3 102 128 127
3 104 106 129
3 104 129 103
3 103 129 118
3 105 108 130
3 106 105 130
3 106 130 129
3 107 127 131
3 108 107 131
3 108 131 132
3 108 132 130
3 109 134 125
3 125 134 133
3 113 111 135
3 111 110 135
3 135 110 121
3 115 112 136
3 136 112 113
3 136 113 135
3 116 114 137
3 137 114 115
3 137 115 138
3 138 115 136
3 139 124 116
3 139 116 140
3 140 116 137
3 141 135 121
3 118 129 142
3 118 142 143
3 117 118 143
3 123 117 143
3 122 120 144
3 120 119 144
3 144 119 123
3 141 121 145
3 145 121 122
3 145 122 144
3 146 141 145
3 147 144 123
3 147 123 148
3 143 148 123
3 150 124 139
3 149 150 139
3 131 127 151
3 125 133 152
3 126 125 152
3 126 152 153
3 128 126 153
3 128 153 154
3 128 154 127
3 127 154 151
3 152 133 155
3 130 132 156
3 130 156 129
3 129 156 142
3 131 151 157
3 132 131 157
3 132 157 156
3 156 158 142
3 157 151 159
3 133 160 155
3 134 161 133
3 133 161 160
3 138 136 162
3 136 135 162
3 162 135 141
3 140 137 163
3 163 137 138
3 163 138 162
3 149 139 164
3 164 139 140
3 164 140 165
3 165 140 163
3 166 149 164
3 167 162 141
3 167 141 146
3 142 158 168
3 143 142 168
3 143 168 148
3 146 145 169
3 145 144 169
3 169 144 147
3 170 167 146
3 170 146 169
3 171 169 147
3 171 147 148
3 171 148 172
3 168 172 148
3 173 149 166
3 174 150 149
3 173 174 149
3 154 175 151
3 151 175 159
3 152 155 176
3 153 152 176
3 153 176 177
3 153 177 154
3 154 177 175
3 155 160 178
3 155 178 179
3 176 155 179
3 156 157 180
3 156 180 158
3 157 159 181
3 157 181 180
3 158 180 182
3 158 182 168
3 159 175 183
3 159 183 181
3 175 184 183
3 160 186 178
3 178 186 185
3 161 187 160
3 160 187 186
3 165 163 188
3 163 162 188
3 188 162 167
3 166 164 189
3 189 164 165
3 189 165 188
3 190 173 166
3 190 166 191
3 191 166 189
3 192 188 167
3 192 167 170
3 193 192 170
3 182 194 168
3 194 172 168
3 193 170 195
3 170 169 195
3 195 169 171
3 196 195 171
3 196 171 172
3 194 197 172
3 197 198 172
3 198 196 172
3 200 173 190
3 199 200 190
3 201 174 173
3 200 201 173
3 176 179 202
3 177 176 202
3 177 202 175
3 175 202 184
3 178 185 203
3 178 203 179
3 179 203 202
3 203 185 204
3 202 205 184
3 183 206 181
3 180 181 206
3 180 206 182
3 182 206 194
3 183 184 207
3 205 207 184
3 183 207 206
3 185 208 204
3 186 209 185
3 185 209 208
3 187 210 186
3 186 210 209
3 191 189 211
3 189 188 211
3 211 188 192
3 199 190 212
3 212 190 191
3 212 191 211
3 213 199 212
3 214 211 192
3 214 192 193
3 215 214 193
3 215 193 195
3 206 216 194
3 216 197 194
3 216 217 197
3 215 195 218
3 218 195 196
3 198 218 196
3 217 219 197
3 219 218 198
3 197 219 198
3 220 199 213
3 221 200 199
3 220 221 199
3 222 201 200
3 221 222 200
3 203 204 223
3 203 223 202
3 202 223 205
3 204 208 224
3 204 224 223
3 205 223 225
3 205 225 207
3 207 225 226
3 207 226 206
3 226 216 206
3 208 228 224
3 224 228 227
3 209 229 208
3 229 228 208
3 210 230 209
3 209 230 229
3 213 212 231
3 212 211 231
3 231 211 214
3 232 220 213
3 232 213 231
3 233 231 214
3 233 214 215
3 234 233 215
3 234 215 218
3 226 235 216
3 235 217 216
3 235 236 217
3 217 236 219
3 237 234 218
3 237 218 219
3 236 238 219
3 238 237 219
3 240 220 232
3 239 240 232
3 241 221 220
3 240 241 220
3 242 222 221
3 241 242 221
3 224 227 243
3 224 243 223
3 223 243 225
3 225 243 244
3 225 244 226
3 226 244 235
3 227 245 243
3 228 246 227
3 227 246 245
3 229 247 228
3 228 247 246
3 230 248 229
3 229 248 247
3 239 232 249
3 232 231 249
3 249 231 233
3 250 249 233
3 250 233 234
3 237 250 234
3 244 251 235
3 235 251 236
3 251 252 236
3 236 252 238
3 252 253 238
3 253 250 237
3 253 237 238
3 254 239 249
3 255 240 239
3 254 255 239
3 256 241 240
3 255 256 240
3 257 242 241
3 256 257 241
3 245 258 243
3 243 258 244
3 244 258 251
3 245 259 258
3 246 260 245
3 245 260 259
3 247 261 246
3 246 261 260
3 248 262 247
3 247 262 261
3 254 249 263
3 263 249 250
3 253 263 250
3 258 264 251
3 251 264 252
3 264 265 252
3 265 263 253
3 252 265 253
3 266 254 263
3 267 255 254
3 266 267 254
3 268 256 255
3 267 268 255
3 269 257 256
3 268 269 256
3 259 270 258
3 270 264 258
3 260 271 259
3 259 271 270
3 261 272 260
3 260 272 271
3 262 273 261
3 273 272 261
3 270 274 264
3 275 266 263
3 275 263 265
3 274 276 264
3 276 265 264
3 276 277 265
3 277 275 265
3 278 267 266
3 275 278 266
3 279 268 267
3 278 279 267
3 280 269 268
3 279 280 268
3 271 281 270
3 270 281 274
3 272 282 271
3 271 282 281
3 273 283 272
3 272 283 282
3 281 284 274
3 274 284 276
3 285 278 275
3 277 285 275
3 284 286 276
3 286 285 277
3 276 286 277
3 287 279 278
3 285 287 278
3 288 280 279
3 287 288 279
3 282 289 281
3 281 289 284
3 283 290 282
3 282 290 289
3 289 291 284
3 284 291 286
3 291 292 286
3 292 287 285
3 286 292 285
3 293 288 287
3 292 293 287
3 290 294 289
3 289 294 291
3 294 295 291
3 295 293 292
3 291 295 292
CELL_TYPES 542
5
5
5
5
5
5
5
5
5
5
5
5
5
5
5
5
5
5
5
5
5
5
5
5
5
5
5
5
5
5
5
5
5
5
5
5
5
5
5
5
5
5
5
5
5
5
5
5
5
5
5
5
5
5
5
5
5
5
5
5
5
5
5
5
5
5
5
5
5
5
5
5
5
5
5
5
5
5
5
5
5
5
5
5
5
5
5
5
5
5
5
5
5
5
5
5
5
5
5
5
5
5
5
5
5
5
5
5
5
5
5
5
5
5
5
5
5
5
5
5
5
5
5
5
5
5
5
5
5
5
5
5
5
5
5
5
5
5
5
5
5
5
5
5
5
5
5
5
5
5
5
5
5
5
5
5
5
5
5
5
5
5
5
5
5
5
5
5
5
5
5
5
5
5
5
5
5
5
5
5
5
5
5
5
5
5
5
5
5
5
5
5
5
5
5
5
5
5
5
5
5
5
5
5
5
5
5
5
5
5
5
5
5
5
5
5
5
5
5
5
5
5
5
5
5
5
5
5
5
5
5
5
5
5
5
5
5
5
5
5
5
5
5
5
5
5
5
5
5
5
5
5
5
5
5
5
5
5
5
5
5
5
5
5
5
5
5
5
5
5
5
5
5
5
5
5
5
5
5
5
5
5
5
5
5
5
5
5
5
5
5
5
5
5
5
5
5
5
5
5
5
5
5
5
5
5
5
5
5
5
5
5
5
5
5
5
5
5
5
5
5
5
5
5
5
5
5
5
5
5
5
5
5
5
5
5
5
5
5
5
5
5
5
5
5
5
5
5
5
5
5
5
5
5
5
5
5
5
5
5
5
5
5
5
5
5
5
5
5
5
5
5
5
5
5
5
5
5
5
5
5
5
5
5
5
5
5
5
5
5
5
5
5
5
5
5
5
5
5
5
5
5
5
5
5
5
5
5
5
5
5
5
5
5
5
5
5
5
5
5
5
5
5
5
5
5
5
5
5
5
5
5
5
5
5
5
5
5
5
5
5
5
5
5
5
5
5
5
5
5
5
5
5
5
5
5
5
5
5
5
5
5
5
5
5
5
5
5
5
5
5
5
5
5
5
5
5
5
5
5
5
5
5
5
5
5
5
5
5
5
5
5
5
5
5
5
5
5
5
5
5
5
5
5
5
5
5
5
5
5
5
5
5
5
5
5
5
5
5
5
5
5
5
5
5
5
5
5
5
5
5
5
5
5
5
5
5
5
5
5
5
5
POINT_DATA 296
SCALARS concentrations float 4
LOOKUP_TABLE default
0 0.952252 0.115897 0.804729
0 0.952254 0.115738 0.849448
0 0.952245 0.117856 0.188418
0 0.952241 0.11587 3.24825
0 0.952236 0.0934632 0.425824
0 0.952234 0.118975 2.14831
0 0.952222 0.119825 5.94213
0 0.952249 0.0949144 -0.23011
0 0.952237 0.0937725 0.408011
0 0.952215 0.116775 3.70907
0 0.952219 0.114577 0.548644
0 0.952243 0.118112 0.753647
0 0.952225 0.115083 0.54039
0 0.952235 0.0929911 0.817648
0 0.952225 0.092914 -0.480944
0 0.952214 0.093421 0.550049
0 0.952225 0.093414 0.721905
0 0.952215 0.0938734 0.518536
0 0.952205 0.093782 -0.0692157
0 0.952223 0.0952734 -0.351311
0 0.952202 0.094098 0.848051
0 0.952205 0.116706 1.68648
0 0.952219 0.119663 5.05386
0 0.952207 0.0939234 -0.242917
0 0.952207 0.0942345 0.557867
0 0.952219 0.0939116 -0.999248
0 0.952191 0.113764 2.69252
0 0.952195 0.0950679 -0.301664
0 0.952203 0.115618 4.15185
0 0.952208 0.0935788 0.273916
0 0.952195 0.0928951 0.497502
0 0.952197 0.0937094 0.584501
0 0.952238 0.118252 5.3641
0 0.9522 0.0941207 -0.191224
0 0.952206 0.093259 -0.615814
0 0.952186 0.0952291 0.227331
0 0.95219 0.0943952 -0.441863
0 0.952193 0.0939968 -0.850943
0 0.952177 0.0944492 -0.0875459
0 0.952204 0.0934543 0.390289
0 0.952223 0.0951522 -0.647759
0 0.952188 0.0959415 0.0834693
0 0.95219 0.0930532 -0.543093
0 0.952233 0.116345 0.711209
0 0.952177 0.0927359 0.00382433
0 0.952195 0.0943428 1.41663
0 0.952181 0.0965764 2.30177
0 0.952196 0.117236 3.75044
0 0.95221 0.0943075 0.878935
0 0.952148 0.115978 4.20374
0 0.952196 0.0931605 0.721532
0 0.952182 0.0926802 0.25353
0 0.952196 0.0937524 -0.314842
0 0.952223 0.0940034 -0.800385
0 0.952215 0.0931247 -0.290398
0 0.952188 0.0944158 0.432751
0 0.952179 0.0956042 0.139816
0 0.952179 0.0938328 0.443195
0 0.952181 0.0945283 -0.0372153
0 0.952188 0.101192 -2.06234
0 0.952204 0.0945335 -0.256224
0 0.952182 0.0959665 0.664488
0 0.952174 0.0993461 1.82417
0 0.952213 0.115733 1.48454
0 0.952177 0.0942156 1.17736
0 0.952206 0.0947163 1.35753
0 0.952189 0.0950618 1.10799
0 0.952179 0.0936484 0.752282
0 0.952206 0.093533 0.216674
0 0.952151 0.118107 5.76779
0 0.952165 0.0934303 0.659712
0 0.952166 0.117754 4.63134
0 0.952193 0.0974362 -0.742211
0 0.952194 0.094029 0.454526
0 0.952205 0.0945473 0.577207
0 0.952204 0.0941159 0.522398
0 0.952199 0.0934895 0.367023
0 0.952199 0.0938094 -0.629038
0 0.952183 0.0956082 0.564724
0 0.952197 0.0967548 0.354935
0 0.95218 0.0950226 -0.484614
0 0.952186 0.0947257 -0.137321
0 0.952179 0.0972793 -0.591671
0 0.952196 0.0936776 0.302918
0 0.952187 0.096657 -1.25955
0 0.952195 0.117162 3.07094
0 0.952192 0.0939623 -0.0555964
0 0.952201 0.0941911 -1.28752
0 0.952187 0.09422 -0.786098
0 0.952192 0.0932389 -0.785761
0 0.952179 0.0929519 0.40929
0 0.952191 0.0946928 -1.64561
0 0.952195 0.113697 2.77853
0 0.952198 0.0948394 0.788049
0 0.952205 0.0947606 -0.0823871
0 0.9522 0.0942554 0.647638
0 0.952207 0.0952412 -0.758964
0 0.952196 0.0942898 0.189573
0 0.952197 0.117494 4.8206
0 0.952205 0.0927256 -0.204371
0 0.95219 0.0942087 -0.0720647
0 0.952198 0.0939068 0.024812
0 0.952189 0.0937611 -0.0407086
0 0.952205 0.0966081 1.07798
0 0.952196 0.0948857 0.0291023
0 0.952193 0.094105 -0.279008
0 0.952201 0.0944009 0.491732
0 0.95219 0.0951114 -0.0830612
0 0.952195 0.0935635 0.690975
0 0.952204 0.116754 1.17578
0 0.952193 0.0934989 0.749454
0 0.95219 0.0927407 1.08068
0 0.952202 0.0943435 1.4461
0 0.952195 0.0937632 0.0494036
0 0.952199 0.0944743 0.0835544
0 0.952201 0.0944298 0.162819
0 0.952207 0.094519 0.0862326
0 0.952202 0.0953926 0.284574
0 0.952203 0.0953972 0.0074258
0 0.952201 0.0954385 0.69219
0 0.952201 0.09593 -0.0302077
0 0.952196 0.0949603 -0.162238
0 0.952196 0.0956958 0.911234
0 0.952205 0.095864 1.26989
0 0.952228 0.115839 3.03803
0 0.952204 0.096724 0.582401
0 0.952202 0.0939939 -0.0744517
0 0.952187 0.0934154 0.504044
0 0.952192 0.0939893 0.325139
0 0.952203 0.0972092 0.382714
0 0.952199 0.0944932 -1.14116
0 0.952187 0.0941451 -0.720101
0 0.952194 0.096887 -1.09424
0 0.952208 0.0942408 0.552068
0 0.952211 0.11452 4.18167
0 0.952194 0.0931679 0.651185
0 0.952189 0.0950456 -0.610966
0 0.952198 0.0941866 -0.986725
0 0.952184 0.0948866 0.464768
0 0.952216 0.093277 0.395554
0 0.952199 0.0940743 1.1341
0 0.952193 0.0946445 0.451188
0 0.952208 0.0974915 1.73154
0 0.952202 0.0960347 0.688658
0 0.95221 0.0959108 1.16784
0 0.95221 0.0955138 1.21457
0 0.952214 0.0981025 -0.212699
0 0.95222 0.0955622 0.179842
0 0.952218 0.0946407 -0.322903
0 0.952192 0.0930661 0.646139
0 0.952206 0.117242 5.08903
0 0.952184 0.0945251 0.658168
0 0.9522 0.0972272 1.20457
0 0.9522 0.0945545 0.632263
0 0.952195 0.0973616 -1.7292
0 0.952199 0.0951184 -0.653197
0 0.952206 0.0959726 2.43104
0 0.95219 0.0958454 1.87534
0 0.952213 0.0976374 2.7034
0 0.952164 0.0964588 -2.07103
0 0.952195 0.0941577 -0.10037
0 0.952208 0.114466 5.57517
0 0.952179 0.0936366 0.0440695
0 0.95218 0.0969182 0.99719
0 0.952191 0.0954514 0.597449
0 0.952181 0.0931718 -0.760367
0 0.952196 0.0952698 1.24033
0 0.952179 0.0948394 -0.0168326
0 0.952214 0.0950925 -0.553874
0 0.952226 0.0962754 0.870874
0 0.9522 0.102143 1.85091
0 0.952225 0.0953662 -0.284222
0 0.95223 0.0955168 1.28153
0 0.952209 0.0951503 0.365318
0 0.9522 0.116821 4.89247
0 0.952192 0.0960489 -1.93058
0 0.952203 0.0940439 -0.283267
0 0.952204 0.0946322 0.985674
0 0.952198 0.0937556 0.0828308
0 0.952206 0.0936004 -0.313428
0 0.952199 0.100139 2.78717
0 0.952169 0.0979119 -0.944522
0 0.952198 0.0954905 0.116357
0 0.95217 0.0974436 2.74842
0 0.952203 0.0943143 -0.403929
0 0.952195 0.0930935 0.331118
0 0.952192 0.0933179 0.456743
0 0.952188 0.114447 6.51524
0 0.952174 0.0946236 0.362529
0 0.952191 0.0948496 0.686716
0 0.952203 0.0950262 -0.222862
0 0.952197 0.101456 1.62841
0 0.952172 0.0954686 -0.246127
0 0.952192 0.0950653 -0.184253
0 0.952213 0.0958063 -0.822254
0 0.95222 0.0953806 -0.605379
0 0.952232 0.0951082 0.583586
0 0.952228 0.0971697 -1.82669
0 0.952225 0.0946449 0.527879
0 0.952211 0.0950765 -0.322528
0 0.952211 0.0930522 0.240554
0 0.95222 0.117311 5.41852
0 0.952208 0.0947044 -0.522923
0 0.952204 0.0934831 -0.395942
0 0.952202 0.0930908 -0.300479
0 0.952205 0.0946911 0.553331
0 0.952189 0.101831 1.0368
0 0.9522 0.0954496 1.20145
0 0.952194 0.0931561 -0.116191
0 0.952181 0.0926981 0.191133
0 0.952182 0.117157 3.51749
0 0.952181 0.0953599 0.965556
0 0.952192 0.0963125 -1.16437
0 0.952208 0.0966673 2.83477
0 0.952189 0.0956384 -1.21889
0 0.952214 0.0947924 0.139394
0 0.952218 0.0963677 -0.356335
0 0.952229 0.094642 0.39001
0 0.952218 0.0939447 0.011193
0 0.952217 0.0996034 -1.82214
0 0.952214 0.0961273 1.08771
0 0.952208 0.0952022 0.0543494
0 0.952206 0.11494 3.05692
0 0.952207 0.0942858 -0.0950454
0 0.95221 0.0951475 0.711611
0 0.952209 0.0938088 0.74356
0 0.95221 0.0952016 -1.11488
0 0.952225 0.0989218 -1.37688
0 0.952203 0.0934022 -0.0425992
0 0.952172 0.0929835 -0.151637
0 0.952166 0.114773 3.62859
0 0.952195 0.0961874 -0.00458148
0 0.952201 0.0995984 -1.67855
0 0.952206 0.0944662 -0.0212756
0 0.952211 0.0944887 0.494326
0 0.952219 0.0953732 0.790615
0 0.952215 0.0938711 -0.0363664
0 0.952206 0.0946304 -0.524109
0 0.952209 0.0951751 0.0372572
0 0.952194 0.0933376 -0.492401
0 0.952203 0.093917 0.808191
0 0.952212 0.0944952 1.33619
0 0.952208 0.113349 2.26066
0 0.952213 0.0952571 0.513822
0 0.952212 0.0937189 0.353912
0 0.952209 0.100053 0.282374
0 0.952208 0.0932212 -0.516538
0 0.952165 0.0932195 0.130022
0 0.952145 0.115025 5.27787
0 0.9522 0.0936553 -0.0553599
0 0.952199 0.0948469 -0.685759
0 0.952209 0.0945508 0.0663391
0 0.952202 0.0937649 -0.12693
0 0.9522 0.0945916 0.446167
0 0.952202 0.094611 -1.02815
0 0.952204 0.0929267 0.463799
0 0.95221 0.0925078 -0.416942
0 0.952213 0.116196 3.00243
0 0.952205 0.0945318 -0.193282
0 0.952188 0.0935998 -0.728024
0 0.952197 0.0938908 -0.706112
0 0.952178 0.0932539 0.0812725
0 0.952141 0.113281 0.807434
0 0.9522 0.0941718 0.198907
0 0.952201 0.0938574 -0.0932837
0 0.952203 0.094242 0.734016
0 0.95221 0.0937913 -0.598493
0 0.952202 0.0937477 0.426011
0 0.952192 0.0933158 -0.499723
0 0.952208 0.11675 4.90379
0 0.952202 0.0946083 0.41529
0 0.952198 0.0936174 -0.231411
0 0.952212 0.0931152 -0.148357
0 0.952191 0.11681 5.0803
0 0.952206 0.0937636 -0.316617
0 0.952217 0.0930549 -0.130252
0 0.952206 0.101541 -2.15233
0 0.952217 0.0939761 0.623483
0 0.952202 0.0943739 0.940667
0 0.952169 0.093446 -0.183429
0 0.95216 0.119964 5.77198
0 0.9522 0.0936796 -0.530374
0 0.952211 0.0931729 -0.582356
0 0.952232 0.116473 3.9066
0 0.952196 0.0941242 1.03205
0 0.952198 0.0952443 1.23666
0 0.952198 0.0935477 0.442946
0 0.952172 0.0943013 1.04233
0 0.952157 0.115851 2.67591
0 0.952191 0.0931313 -0.0549108
0 0.952212 0.11564 1.97839
0 0.952175 0.0940807 -1.32182
0 0.952162 0.0936539 0.531536
0 0.95215 0.115973 6.22477
0 0.952183 0.115594 4.98936
0 0.952156 0.113115 5.78635
VECTORS fa_u float
0.00726826 0.0029044 -0
0.00663709 0.00381303 -0
0.00290668 0.000791661 -0
0.00718583 0.0011165 -0
1e-08 0 0
0.00521824 0.004022 -0
0.00255431 0.00247266 -0
1e-08 0 0
1e-08 0 0
0.00452091 0.00551632 -0
0.00529968 0.00889781 -0
0.00662655 0.000138121 -0
0.00621948 -0.000670857 0
1e-08 0 0
1e-08 0 0
1e-08 0 0
1e-08 0 0
1e-08 0 0
1e-08 0 0
1e-08 0 0
1e-08 0 0
0.00295051 0.00728365 -0
0.00159311 0.00626015 -0
1e-08 0 0
1e-08 0 0
1e-08 0 0
0.00893083 -0.00225531 0
1e-08 0 0
0.0110044 -0.00481923 0
1e-08 0 0
1e-08 0 0
1e-08 0 0
0.000852868 0.00730499 -0
1e-08 0 0
1e-08 0 0
1e-08 0 0
1e-08 0 0
1e-08 0 0
1e-08 0 0
1e-08 0 0
1e-08 0 0
1e-08 0 0
1e-08 0 0
-0.00017404 0.00767493 -0
1e-08 0 0
1e-08 0 0
1e-08 0 0
0.00565884 -0.00360108 0
1e-08 0 0
0.00270001 -0.00217888 0
1e-08 0 0
1e-08 0 0
1e-08 0 0
1e-08 0 0
1e-08 0 0
1e-08 0 0
1e-08 0 0
1e-08 0 0
1e-08 0 0
1e-08 0 0
1e-08 0 0
1e-08 0 0
1e-08 0 0
-0.000587175 0.00404626 0
1e-08 0 0
1e-08 0 0
1e-08 0 0
1e-08 0 0
1e-08 0 0
0.00319835 -0.00316433 0
1e-08 0 0
0.00279789 -0.00343024 0
1e-08 0 0
1e-08 0 0
1e-08 0 0
1e-08 0 0
1e-08 0 0
1e-08 0 0
1e-08 0 0
1e-08 0 0
1e-08 0 0
1e-08 0 0
1e-08 0 0
1e-08 0 0
1e-08 0 0
-0.00138141 0.00531998 0
1e-08 0 0
1e-08 0 0
1e-08 0 0
1e-08 0 0
1e-08 0 0
1e-08 0 0
0.00571264 -0.00937458 0
1e-08 0 0
1e-08 0 0
1e-08 0 0
1e-08 0 0
1e-08 0 0
0.0036593 -0.00905719 0
1e-08 0 0
1e-08 0 0
1e-08 0 0
1e-08 0 0
1e-08 0 0
1e-08 0 0
1e-08 0 0
1e-08 0 0
1e-08 0 0
1e-08 0 0
-0.00290125 0.00718788 0
1e-08 0 0
1e-08 0 0
1e-08 0 0
1e-08 0 0
1e-08 0 0
1e-08 0 0
1e-08 0 0
1e-08 0 0
1e-08 0 0
1e-08 0 0
1e-08 0 0
1e-08 0 0
1e-08 0 0
1e-08 0 0
0.00134989 -0.00539274 0
1e-08 0 0
1e-08 0 0
1e-08 0 0
1e-08 0 0
1e-08 0 0
1e-08 0 0
1e-08 0 0
1e-08 0 0
1e-08 0 0
-0.00373453 0.00647057 0
1e-08 0 0
1e-08 0 0
1e-08 0 0
1e-08 0 0
1e-08 0 0
1e-08 0 0
1e-08 0 0
1e-08 0 0
1e-08 0 0
1e-08 0 0
1e-08 0 0
1e-08 0 0
1e-08 0 0
1e-08 0 0
1e-08 0 0
0.000524876 -0.00383591 0
1e-08 0 0
1e-08 0 0
1e-08 0 0
1e-08 0 0
1e-08 0 0
1e-08 0 0
1e-08 0 0
1e-08 0 0
1e-08 0 0
1e-08 0 0
-0.00464059 0.00595222 0
1e-08 0 0
1e-08 0 0
1e-08 0 0
1e-08 0 0
1e-08 0 0
1e-08 0 0
1e-08 0 0
1e-08 0 0
1e-08 0 0
1e-08 0 0
1e-08 0 0
1e-08 0 0
0.000117768 -0.00774543 0
1e-08 0 0
1e-08 0 0
1e-08 0 0
1e-08 0 0
1e-08 0 0
1e-08 0 0
1e-08 0 0
1e-08 0 0
1e-08 0 0
1e-08 0 0
1e-08 0 0
1e-08 0 0
-0.00223013 0.00226922 0
1e-08 0 0
1e-08 0 0
1e-08 0 0
1e-08 0 0
1e-08 0 0
1e-08 0 0
1e-08 0 0
1e-08 0 0
1e-08 0 0
1e-08 0 0
1e-08 0 0
1e-08 0 0
1e-08 0 0
-0.000858962 -0.00697423 0
1e-08 0 0
1e-08 0 0
1e-08 0 0
1e-08 0 0
1e-08 0 0
1e-08 0 0
1e-08 0 0
1e-08 0 0
-0.00485562 0.00397334 0
1e-08 0 0
1e-08 0 0
1e-08 0 0
1e-08 0 0
1e-08 0 0
1e-08 0 0
1e-08 0 0
1e-08 0 0
1e-08 0 0
1e-08 0 0
1e-08 0 0
-0.00160131 -0.00617009 0
1e-08 0 0
1e-08 0 0
1e-08 0 0
1e-08 0 0
1e-08 0 0
1e-08 0 0
1e-08 0 0
-0.00869272 0.0052284 0
1e-08 0 0
1e-08 0 0
1e-08 0 0
1e-08 0 0
1e-08 0 0
1e-08 0 0
1e-08 0 0
1e-08 0 0
1e-08 0 0
1e-08 0 0
1e-08 0 0
-0.00303633 -0.00739418 0
1e-08 0 0
1e-08 0 0
1e-08 0 0
1e-08 0 0
1e-08 0 0
-0.00754537 0.00308897 0
1e-08 0 0
1e-08 0 0
1e-08 0 0
1e-08 0 0
1e-08 0 0
1e-08 0 0
1e-08 0 0
1e-08 0 0
-0.00502449 -0.0083783 0
1e-08 0 0
1e-08 0 0
1e-08 0 0
1e-08 0 0
-0.00623236 0.00160337 0
1e-08 0 0
1e-08 0 0
1e-08 0 0
1e-08 0 0
1e-08 0 0
1e-08 0 0
-0.00362466 -0.00447889 0
1e-08 0 0
1e-08 0 0
1e-08 0 0
-0.00718433 0.000861136 0
1e-08 0 0
1e-08 0 0
1e-08 0 0
1e-08 0 0
1e-08 0 0
1e-08 0 0
-0.00264258 -0.00262022 0
1e-08 0 0
1e-08 0 0
-0.00839217 -0.000185186 0
1e-08 0 0
1e-08 0 0
1e-08 0 0
1e-08 0 0
-0.00589354 -0.00460553 0
1e-08 0 0
-0.0036112 -0.00052423 0
1e-08 0 0
1e-08 0 0
-0.00677657 -0.00390959 0
-0.00545781 -0.00140541 0
-0.00713884 -0.00286909 0
