# vtk DataFile Version 2.0
CellBP Time: 1.68
ASCII
DATASET UNSTRUCTURED_GRID
POINTS 296 double
-9.14649 -3.75727 0
-8.57097 -4.92644 0
-9.56165 -2.52173 0
-9.82066 -1.24806 0
-8.31562 -2.80139 0
-7.84639 -6.01042 0
-6.98678 -6.99055 0
-7.87532 -3.85147 0
-7.30243 -4.84228 0
-6.01373 -7.85424 0
-4.93598 -8.58146 0
-9.90928 0.0477331 0
-9.82933 1.34812 0
-8.61943 -1.67282 0
-8.7514 -0.52693 0
-7.54965 -1.98906 0
-7.18472 -2.88587 0
-6.60533 -5.75457 0
-5.79815 -6.57326 0
-6.75034 -3.8647 0
-6.18666 -4.6513 0
-3.76723 -9.15858 0
-2.52995 -9.57484 0
-4.89044 -7.28648 0
-3.90341 -7.86378 0
-8.75963 0.639444 0
-9.57945 2.62985 0
-8.59344 1.76591 0
-9.16109 3.86483 0
-7.70688 -0.922398 0
-7.75993 0.081375 0
-6.91601 -1.30575 0
-1.24875 -9.82695 0
-6.40885 -2.13969 0
-6.28576 -3.03769 0
-5.51081 -5.45065 0
-4.77594 -6.09189 0
-5.62872 -3.73596 0
-5.24106 -4.54045 0
-2.85923 -8.33944 0
-1.77501 -8.61335 0
-3.91498 -6.70072 0
-3.04893 -7.132 0
0.0509775 -9.90772 0
-7.67298 1.13879 0
-8.31402 2.9078 0
-7.52175 2.10059 0
-8.57675 5.02907 0
-7.8523 3.96265 0
-7.84451 6.10761 0
-6.74605 -0.392955 0
-6.92352 0.550459 0
-5.74581 -0.997869 0
-0.591049 -8.77967 0
0.560383 -8.73578 0
-5.28029 -2.4691 0
-4.46904 -5.07373 0
-3.88599 -5.7538 0
-4.41982 -3.79048 0
-2.05498 -7.53783 0
-1.13101 -7.76065 0
-2.98467 -6.08203 0
-2.30293 -6.59873 0
1.34766 -9.817 0
-6.66086 1.41456 0
-7.14132 3.10249 0
-6.6316 2.36215 0
-7.26607 4.96605 0
-6.6916 3.98439 0
-6.98621 7.0852 0
-6.54486 5.86888 0
-6.00987 7.9469 0
-4.44002 -1.17897 0
-5.79245 0.508435 0
-4.64357 -0.0139806 0
0.00770147 -7.81737 0
1.72805 -8.60433 0
0.942068 -7.72908 0
-4.02578 -2.39806 0
-3.48055 -1.38849 0
-3.28189 -4.78978 0
-3.25864 -3.25909 0
-1.37601 -6.65244 0
-0.509448 -6.99739 0
-1.97209 -5.52023 0
2.62472 -9.5634 0
-5.48747 2.02946 0
-6.0693 3.05746 0
-6.08003 4.84688 0
-5.7356 3.96988 0
-5.73542 6.68739 0
-5.42923 5.59288 0
-4.93215 8.67781 0
-4.81691 7.36896 0
-3.49464 -0.423157 0
-4.43494 1.24576 0
-3.70186 0.591228 0
-4.05035 2.31579 0
-3.76487 9.25479 0
2.84493 -8.28943 0
0.413117 -6.76516 0
2.00785 -7.48708 0
1.29479 -6.87143 0
-2.44177 -0.872808 0
-2.83415 -2.128 0
-2.28978 -4.08563 0
-2.32146 -2.96655 0
-0.443869 -5.83923 0
-1.21928 -4.4869 0
3.85858 -9.14652 0
-4.7698 3.37827 0
-5.06642 4.57284 0
-4.62683 6.24988 0
-4.51976 5.33438 0
-3.82777 7.96083 0
-3.80859 6.81061 0
-2.77138 8.38608 0
-1.64661 -0.135823 0
-1.44789 -0.888445 0
-2.48603 0.509046 0
-3.24536 1.44387 0
-3.22846 3.30838 0
-2.9033 2.37154 0
-1.35438 0.629404 0
-2.5289 9.66839 0
3.9093 -7.84505 0
2.94349 -7.11569 0
0.944754 -5.79534 0
2.05831 -6.38077 0
-1.67979 -1.9899 0
-1.43122 -3.27167 0
0.0897588 -4.7327 0
-0.564975 -3.68624 0
4.90504 -7.27913 0
5.02675 -8.57209 0
-3.76161 4.53442 0
-3.71939 5.72608 0
-2.87229 7.2534 0
-2.99723 6.32447 0
-1.6575 8.69902 0
-1.92892 7.58545 0
-2.33175 4.04089 0
-0.72887 -1.32581 0
-0.835652 -0.255563 0
-1.9349 1.68359 0
-2.12172 2.87335 0
-1.3044 3.53849 0
-0.869003 1.35203 0
-0.2817 0.458231 0
-0.533809 8.83986 0
-1.24998 9.92096 0
1.10496 -4.55647 0
3.88423 -6.67354 0
2.96809 -6.05924 0
2.10325 -5.3967 0
4.75789 -6.16807 0
-0.557153 -2.47597 0
0.493964 -3.45606 0
0.0551593 -1.61 0
1.47642 -3.66834 0
5.84053 -6.57989 0
6.10986 -7.84697 0
-2.46544 5.32685 0
-2.11971 6.50411 0
-0.898125 7.77269 0
-1.26367 6.90215 0
0.0877156 7.85469 0
-1.14094 4.48226 0
0.150593 -0.617762 0
-0.799369 2.49033 0
-0.333028 3.59688 0
0.0621242 1.51389 0
0.741938 0.473203 0
0.642708 8.84597 0
0.0486611 10.0102 0
2.36809 -4.26448 0
3.8368 -5.60639 0
2.98272 -5.18378 0
5.54851 -5.46187 0
4.66758 -5.2507 0
0.629292 -2.29237 0
1.25257 -2.94443 0
0.758481 -1.39153 0
2.15526 -3.12438 0
2.98237 -3.4622 0
6.13316 -4.76963 0
6.62954 -5.74342 0
7.08856 -6.98566 0
-1.01517 5.79856 0
-0.367182 6.85766 0
1.12036 7.7461 0
0.559263 7.05582 0
-0.000895372 4.71468 0
0.605407 3.82242 0
1.33881 -0.642735 0
0.536707 2.65013 0
0.963505 1.57555 0
1.90813 0.212794 0
1.6131 1.0639 0
2.12515 7.56071 0
1.79549 8.68624 0
1.34987 9.92756 0
3.80674 -4.32814 0
5.09487 -4.42261 0
5.82623 -3.91581 0
3.77077 -3.18609 0
1.81017 -1.8822 0
3.01176 -2.56663 0
6.76154 -3.93217 0
7.3595 -4.8792 0
7.95195 -6.01128 0
0.48368 5.86249 0
1.42598 6.72136 0
2.36918 6.65081 0
1.20685 4.54606 0
1.48512 3.38999 0
2.43181 -0.691399 0
2.82273 0.142214 0
1.78618 2.1616 0
2.6084 1.1484 0
3.06552 7.14961 0
2.89666 8.35385 0
2.63018 9.67333 0
4.895 -3.31113 0
6.10204 -3.09482 0
4.16168 -2.26906 0
3.23789 -1.50092 0
6.71239 -2.30677 0
7.21143 -3.03297 0
7.94518 -3.90149 0
8.68028 -4.93404 0
2.01976 5.58526 0
3.07459 6.13471 0
2.35894 4.11756 0
2.41633 3.05558 0
3.51788 -0.459234 0
3.60831 0.612872 0
2.95624 2.28449 0
3.5378 1.52367 0
3.99377 5.87756 0
3.97118 6.77317 0
3.96345 7.9179 0
3.86703 9.25717 0
5.55397 -1.9109 0
4.49935 -1.12718 0
6.6954 -1.33168 0
7.57287 -2.03137 0
8.37389 -2.8559 0
9.25745 -3.7658 0
3.40531 4.86075 0
3.32887 3.37537 0
4.67974 0.130616 0
4.50391 1.30509 0
4.04919 2.43297 0
4.54682 5.13176 0
4.82238 6.17034 0
4.96539 7.35672 0
5.03457 8.67932 0
5.865 -0.43413 0
6.98805 -0.487834 0
7.73664 -1.07957 0
8.66117 -1.74016 0
9.6749 -2.52907 0
4.53168 3.81265 0
5.79405 1.09048 0
5.34569 2.5231 0
5.34916 4.59933 0
5.58526 5.50129 0
5.87521 6.64764 0
6.11184 7.95128 0
6.81842 0.457933 0
7.82816 -0.024573 0
8.83411 -0.581121 0
9.92777 -1.24811 0
6.93073 1.33872 0
5.68972 3.75933 0
6.50996 2.18186 0
6.3456 3.06987 0
6.25857 4.6648 0
6.66095 5.81535 0
7.08801 7.09023 0
7.75536 0.960914 0
8.83022 0.569484 0
10.0099 0.0525747 0
7.58195 1.99263 0
6.78887 3.8813 0
7.23246 2.92784 0
7.34332 4.86355 0
7.94947 6.11175 0
8.68769 1.71904 0
9.91771 1.34897 0
8.38042 2.82289 0
7.9447 3.89731 0
8.67444 5.02892 0
9.66419 2.62657 0
9.24872 3.86044 0
CELLS 542 2168
3 2 0 4
3 0 1 7
3 4 0 7
3 1 5 8
3 7 1 8
3 3 2 13
3 13 2 4
3 11 3 14
3 14 3 13
3 13 4 15
3 4 7 16
3 15 4 16
3 5 6 17
3 8 5 17
3 6 9 18
3 17 6 18
3 7 8 19
3 16 7 19
3 8 17 20
3 19 8 20
3 9 10 23
3 18 9 23
3 10 21 24
3 23 10 24
3 12 11 25
3 25 11 14
3 26 12 27
3 27 12 25
3 14 13 29
3 29 13 15
3 25 14 30
3 30 14 29
3 29 15 31
3 15 16 33
3 31 15 33
3 16 19 34
3 33 16 34
3 17 18 35
3 20 17 35
3 18 23 36
3 35 18 36
3 19 20 37
3 34 19 37
3 20 35 38
3 37 20 38
3 21 22 39
3 24 21 39
3 22 32 40
3 39 22 40
3 23 24 41
3 36 23 41
3 24 39 42
3 41 24 42
3 27 25 44
3 44 25 30
3 28 26 45
3 45 26 27
3 45 27 46
3 46 27 44
3 47 28 48
3 48 28 45
3 30 29 50
3 50 29 31
3 44 30 51
3 51 30 50
3 50 31 52
3 31 33 52
3 32 43 53
3 40 32 53
3 53 43 54
3 33 34 55
3 34 37 55
3 33 55 52
3 35 36 56
3 38 35 56
3 36 41 57
3 56 36 57
3 37 38 58
3 38 56 58
3 37 58 55
3 39 40 59
3 42 39 59
3 40 53 60
3 59 40 60
3 41 42 61
3 57 41 61
3 42 59 62
3 61 42 62
3 43 63 54
3 46 44 64
3 64 44 51
3 48 45 65
3 65 45 46
3 65 46 66
3 66 46 64
3 49 47 67
3 67 47 48
3 67 48 68
3 68 48 65
3 69 49 70
3 70 49 67
3 52 55 72
3 64 51 73
3 51 50 73
3 50 52 73
3 73 52 74
3 74 52 72
3 53 54 75
3 60 53 75
3 54 63 76
3 54 76 77
3 75 54 77
3 55 58 78
3 72 55 78
3 72 78 79
3 56 57 80
3 57 61 80
3 56 80 58
3 58 80 81
3 78 58 81
3 59 60 82
3 62 59 82
3 60 75 83
3 82 60 83
3 61 62 84
3 62 82 84
3 61 84 80
3 63 85 76
3 66 64 86
3 64 73 86
3 68 65 87
3 87 65 66
3 87 66 86
3 70 67 88
3 88 67 68
3 88 68 89
3 89 68 87
3 71 69 90
3 90 69 70
3 90 70 91
3 91 70 88
3 92 71 93
3 93 71 90
3 74 72 94
3 94 72 79
3 86 73 95
3 95 73 74
3 95 74 96
3 96 74 94
3 97 86 95
3 76 85 99
3 75 77 100
3 83 75 100
3 76 99 101
3 77 76 101
3 77 101 102
3 100 77 102
3 94 79 103
3 78 81 104
3 79 78 104
3 79 104 103
3 80 84 105
3 81 80 105
3 81 105 106
3 104 81 106
3 82 83 107
3 83 100 107
3 82 107 84
3 84 107 108
3 105 84 108
3 85 109 99
3 89 87 110
3 87 86 110
3 110 86 97
3 91 88 111
3 111 88 89
3 111 89 110
3 93 90 112
3 112 90 91
3 112 91 113
3 113 91 111
3 98 92 114
3 114 92 93
3 114 93 115
3 115 93 112
3 116 98 114
3 117 103 118
3 96 94 119
3 94 103 119
3 119 103 117
3 97 95 120
3 120 95 96
3 120 96 119
3 121 110 97
3 121 97 122
3 122 97 120
3 123 119 117
3 124 98 116
3 99 109 125
3 99 125 126
3 101 99 126
3 100 102 127
3 100 127 107
3 101 126 128
3 102 101 128
3 102 128 127
3 104 106 129
3 104 129 103
3 103 129 118
3 105 108 130
3 106 105 130
3 106 130 129
3 107 127 131
3 108 107 131
3 108 131 132
3 108 132 130
3 109 134 125
3 125 134 133
3 113 111 135
3 111 110 135
3 135 110 121
3 115 112 136
3 136 112 113
3 136 113 135
3 116 114 137
3 137 114 115
3 137 115 138
3 138 115 136
3 139 124 116
3 139 116 140
3 140 116 137
3 141 135 121
3 118 129 142
3 118 142 143
3 117 118 143
3 123 117 143
3 122 120 144
3 120 119 144
3 144 119 123
3 141 121 145
3 145 121 122
3 145 122 144
3 146 141 145
3 147 144 123
3 147 123 148
3 143 148 123
3 150 124 139
3 149 150 139
3 131 127 151
3 125 133 152
3 126 125 152
3 126 152 153
3 128 126 153
3 128 153 154
3 128 154 127
3 127 154 151
3 152 133 155
3 130 132 156
3 130 156 129
3 129 156 142
3 131 151 157
3 132 131 157
3 132 157 156
3 156 158 142
3 157 151 159
3 133 160 155
3 134 161 133
3 133 161 160
3 138 136 162
3 136 135 162
3 162 135 141
3 140 137 163
3 163 137 138
3 163 138 162
3 149 139 164
3 164 139 140
3 164 140 165
3 165 140 163
3 166 149 164
3 167 162 141
3 167 141 146
3 142 158 168
3 143 142 168
3 143 168 148
3 146 145 169
3 145 144 169
3 169 144 147
3 170 167 146
3 170 146 169
3 171 169 147
3 171 147 148
3 171 148 172
3 168 172 148
3 173 149 166
3 174 150 149
3 173 174 149
3 154 175 151
3 151 175 159
3 152 155 176
3 153 152 176
3 153 176 177
3 153 177 154
3 154 177 175
3 155 160 178
3 155 178 179
3 176 155 179
3 156 157 180
3 156 180 158
3 157 159 181
3 157 181 180
3 158 180 182
3 158 182 168
3 159 175 183
3 159 183 181
3 175 184 183
3 160 186 178
3 178 186 185
3 161 187 160
3 160 187 186
3 165 163 188
3 163 162 188
3 188 162 167
3 166 164 189
3 189 164 165
3 189 165 188
3 190 173 166
3 190 166 191
3 191 166 189
3 192 188 167
3 192 167 170
3 193 192 170
3 182 194 168
3 194 172 168
3 193 170 195
3 170 169 195
3 195 169 171
3 196 195 171
3 196 171 172
3 194 197 172
3 197 198 172
3 198 196 172
3 200 173 190
3 199 200 190
3 201 174 173
3 200 201 173
3 176 179 202
3 177 176 202
3 177 202 175
3 175 202 184
3 178 185 203
3 178 203 179
3 179 203 202
3 203 185 204
3 202 205 184
3 183 206 181
3 180 181 206
3 180 206 182
3 182 206 194
3 183 184 207
3 205 207 184
3 183 207 206
3 185 208 204
3 186 209 185
3 185 209 208
3 187 210 186
3 186 210 209
3 191 189 211
3 189 188 211
3 211 188 192
3 199 190 212
3 212 190 191
3 212 191 211
3 213 199 212
3 214 211 192
3 214 192 193
3 215 214 193
3 215 193 195
3 206 216 194
3 216 197 194
3 216 217 197
3 215 195 218
3 218 195 196
3 198 218 196
3 217 219 197
3 219 218 198
3 197 219 198
3 220 199 213
3 221 200 199
3 220 221 199
3 222 201 200
3 221 222 200
3 203 204 223
3 203 223 202
3 202 223 205
3 204 208 224
3 204 224 223
3 205 223 225
3 205 225 207
3 207 225 226
3 207 226 206
3 226 216 206
3 208 228 224
3 224 228 227
3 209 229 208
3 229 228 208
3 210 230 209
3 209 230 229
3 213 212 231
3 212 211 231
3 231 211 214
3 232 220 213
3 232 213 231
3 233 231 214
3 233 214 215
3 234 233 215
3 234 215 218
3 226 235 216
3 235 217 216
3 235 236 217
3 217 236 219
3 237 234 218
3 237 218 219
3 236 238 219
3 238 237 219
3 240 220 232
3 239 240 232
3 241 221 220
3 240 241 220
3 242 222 221
3 241 242 221
3 224 227 243
3 224 243 223
3 223 243 225
3 225 243 244
3 225 244 226
3 226 244 235
3 227 245 243
3 228 246 227
3 227 246 245
3 229 247 228
3 228 247 246
3 230 248 229
3 229 248 247
3 239 232 249
3 232 231 249
3 249 231 233
3 250 249 233
3 250 233 234
3 237 250 234
3 244 251 235
3 235 251 236
3 251 252 236
3 236 252 238
3 252 253 238
3 253 250 237
3 253 237 238
3 254 239 249
3 255 240 239
3 254 255 239
3 256 241 240
3 255 256 240
3 257 242 241
3 256 257 241
3 245 258 243
3 243 258 244
3 244 258 251
3 245 259 258
3 246 260 245
3 245 260 259
3 247 261 246
3 246 261 260
3 248 262 247
3 247 262 261
3 254 249 263
3 263 249 250
3 253 263 250
3 258 264 251
3 251 264 252
3 264 265 252
3 265 263 253
3 252 265 253
3 266 254 263
3 267 255 254
3 266 267 254
3 268 256 255
3 267 268 255
3 269 257 256
3 268 269 256
3 259 270 258
3 270 264 258
3 260 271 259
3 259 271 270
3 261 272 260
3 260 272 271
3 262 273 261
3 273 272 261
3 270 274 264
3 275 266 263
3 275 263 265
3 274 276 264
3 276 265 264
3 276 277 265
3 277 275 265
3 278 267 266
3 275 278 266
3 279 268 267
3 278 279 267
3 280 269 268
3 279 280 268
3 271 281 270
3 270 281 274
3 272 282 271
3 271 282 281
3 273 283 272
3 272 283 282
3 281 284 274
3 274 284 276
3 285 278 275
3 277 285 275
3 284 286 276
3 286 285 277
3 276 286 277
3 287 279 278
3 285 287 278
3 288 280 279
3 287 288 279
3 282 289 281
3 281 289 284
3 283 290 282
3 282 290 289
3 289 291 284
3 284 291 286
3 291 292 286
3 292 287 285
3 286 292 285
3 293 288 287
3 292 293 287
3 290 294 289
3 289 294 291
3 294 295 291
3 295 293 292
3 291 295 292
CELL_TYPES 542
5
5
5
5
5
5
5
5
5
5
5
5
5
5
5
5
5
5
5
5
5
5
5
5
5
5
5
5
5
5
5
5
5
5
5
5
5
5
5
5
5
5
5
5
5
5
5
5
5
5
5
5
5
5
5
5
5
5
5
5
5
5
5
5
5
5
5
5
5
5
5
5
5
5
5
5
5
5
5
5
5
5
5
5
5
5
5
5
5
5
5
5
5
5
5
5
5
5
5
5
5
5
5
5
5
5
5
5
5
5
5
5
5
5
5
5
5
5
5
5
5
5
5
5
5
5
5
5
5
5
5
5
5
5
5
5
5
5
5
5
5
5
5
5
5
5
5
5
5
5
5
5
5
5
5
5
5
5
5
5
5
5
5
5
5
5
5
5
5
5
5
5
5
5
5
5
5
5
5
5
5
5
5
5
5
5
5
5
5
5
5
5
5
5
5
5
5
5
5
5
5
5
5
5
5
5
5
5
5
5
5
5
5
5
5
5
5
5
5
5
5
5
5
5
5
5
5
5
5
5
5
5
5
5
5
5
5
5
5
5
5
5
5
5
5
5
5
5
5
5
5
5
5
5
5
5
5
5
5
5
5
5
5
5
5
5
5
5
5
5
5
5
5
5
5
5
5
5
5
5
5
5
5
5
5
5
5
5
5
5
5
5
5
5
5
5
5
5
5
5
5
5
5
5
5
5
5
5
5
5
5
5
5
5
5
5
5
5
5
5
5
5
5
5
5
5
5
5
5
5
5
5
5
5
5
5
5
5
5
5
5
5
5
5
5
5
5
5
5
5
5
5
5
5
5
5
5
5
5
5
5
5
5
5
5
5
5
5
5
5
5
5
5
5
5
5
5
5
5
5
5
5
5
5
5
5
5
5
5
5
5
5
5
5
5
5
5
5
5
5
5
5
5
5
5
5
5
5
5
5
5
5
5
5
5
5
5
5
5
5
5
5
5
5
5
5
5
5
5
5
5
5
5
5
5
5
5
5
5
5
5
5
5
5
5
5
5
5
5
5
5
5
5
5
5
5
5
5
5
5
5
5
5
5
5
5
5
5
5
5
5
5
5
5
5
5
5
5
5
5
5
5
5
5
5
5
5
5
5
5
5
5
5
5
5
5
5
5
5
5
5
5
5
5
5
5
5
5
5
5
5
5
5
5
5
5
5
5
5
5
5
5
5
5
5
5
5
5
5
5
5
5
5
5
5
5
5
5
5
5
5
5
POINT_DATA 296
SCALARS concentrations float 4
LOOKUP_TABLE default
0 0.991905 0.186228 12.2561
0 0.991888 0.179943 13.7262
0 0.991966 0.183165 7.01348
0 0.991875 0.187431 10.9553
0 0.991878 0.0953 0.760149
0 0.99176 0.182378 18.0168
0 0.99173 0.184342 13.456
0 0.991844 0.095537 1.10375
0 0.991802 0.0954452 0.584318
0 0.991785 0.181119 3.67726
0 0.991872 0.175409 19.011
0 0.991771 0.175976 11.2956
0 0.991787 0.176906 8.49266
0 0.991893 0.0947588 0.516733
0 0.991829 0.0944087 0.422313
0 0.991796 0.0949675 0.10169
0 0.991773 0.0960571 0.515114
0 0.991743 0.0938335 0.616325
0 0.991772 0.0926868 0.239843
0 0.991765 0.0956605 0.933195
0 0.991765 0.0950637 0.726334
0 0.991913 0.1769 3.06497
0 0.991969 0.176897 8.97666
0 0.991823 0.0928194 0.202091
0 0.991867 0.0936932 -0.436779
0 0.991819 0.0944613 1.35277
0 0.991811 0.181407 13.3329
0 0.991852 0.0941985 1.7544
0 0.991772 0.17812 8.36741
0 0.991822 0.0947101 0.241916
0 0.991847 0.0945534 0.20208
0 0.991765 0.0947865 0.147319
0 0.991922 0.177689 2.54727
0 0.991753 0.0943851 0.296853
0 0.991751 0.0946587 0.566656
0 0.991782 0.0944773 0.716805
0 0.991798 0.0935768 0.584519
0 0.991758 0.095266 -0.253143
0 0.991772 0.0945454 0.607746
0 0.9919 0.0942683 0.400382
0 0.991917 0.0937089 -0.138985
0 0.991806 0.0939294 0.350047
0 0.991822 0.0948435 0.423515
0 0.991876 0.181122 11.7941
0 0.991881 0.0949702 0.880435
0 0.991834 0.0939004 1.56882
0 0.991877 0.0950928 2.19899
0 0.991712 0.177637 23.673
0 0.991774 0.093915 -1.07777
0 0.991744 0.180101 13.4661
0 0.991783 0.0948784 0.0929281
0 0.991823 0.0947422 0.242018
0 0.991756 0.0943789 0.934738
0 0.991867 0.0934777 -0.0298171
0 0.991855 0.0936742 0.631665
0 0.991758 0.0942272 -0.184857
0 0.99178 0.0945866 0.789919
0 0.991782 0.094381 0.736734
0 0.991763 0.0932546 0.0672259
0 0.991837 0.0942332 -0.121956
0 0.99183 0.0950919 1.20532
0 0.991775 0.0944863 0.505561
0 0.991783 0.0957235 -0.725253
0 0.991833 0.177623 11.91
0 0.991847 0.0966233 -0.66781
0 0.991819 0.0973054 2.51402
0 0.991826 0.107689 0.044474
0 0.991758 0.0941081 -0.807571
0 0.991801 0.0955076 0.682289
0 0.991798 0.178971 13.434
0 0.991792 0.095076 1.51126
0 0.991831 0.173244 7.79443
0 0.991763 0.096493 1.06671
0 0.991793 0.0978728 -0.450747
0 0.991772 0.098599 0.140072
0 0.991813 0.0938657 0.66162
0 0.99176 0.0948812 0.0520461
0 0.991806 0.0942589 0.589355
0 0.991771 0.100431 1.25533
0 0.991779 0.094272 1.05432
0 0.991771 0.0934729 0.484721
0 0.99177 0.0990873 -1.0091
0 0.991788 0.0947327 -0.194828
0 0.991783 0.0944608 1.17138
0 0.991772 0.0943808 -0.496124
0 0.991616 0.176283 14.0109
0 0.991807 0.0962942 2.34223
0 0.991779 0.0954298 2.15541
0 0.991793 0.0956778 1.64385
0 0.991771 0.0953818 -0.750116
0 0.991823 0.0960751 1.8578
0 0.991793 0.0967837 2.26907
0 0.991746 0.17717 20.077
0 0.991797 0.0959654 1.76547
0 0.991778 0.0949231 0.172423
0 0.991798 0.101999 2.56288
0 0.991784 0.0946264 1.26006
0 0.991801 0.094083 -1.26584
0 0.991695 0.171883 13.9344
0 0.991687 0.0959296 0.769025
0 0.991773 0.0949014 0.674607
0 0.991798 0.0964599 1.81024
0 0.991786 0.095169 0.642511
0 0.991801 0.0947879 -0.380326
0 0.991784 0.0956434 -0.534877
0 0.991781 0.0940366 -0.132135
0 0.991786 0.0948711 -0.266546
0 0.991766 0.0939786 0.200963
0 0.991775 0.0984706 0.778053
0 0.991704 0.179263 21.7481
0 0.991764 0.0945139 1.18713
0 0.991736 0.0963518 1.84663
0 0.991789 0.0979862 -3.09883
0 0.991744 0.0974454 3.5792
0 0.991772 0.0968718 0.132134
0 0.991794 0.0993541 -0.287588
0 0.991788 0.0977011 1.25971
0 0.991835 0.0957724 0.254705
0 0.991831 0.0945966 0.0607983
0 0.991814 0.0946132 -0.816557
0 0.991806 0.0953739 -0.700136
0 0.991772 0.0952225 1.60744
0 0.991811 0.095461 2.70527
0 0.991821 0.0959096 2.46281
0 0.991708 0.172244 15.7861
0 0.99189 0.0981157 -0.225457
0 0.991831 0.0972841 2.37244
0 0.991762 0.0951106 0.53053
0 0.991796 0.0958486 0.37447
0 0.991811 0.0942192 -0.70675
0 0.991796 0.0934106 -0.607465
0 0.991761 0.0933748 -0.40083
0 0.99178 0.094249 -0.419204
0 0.992002 0.0965538 0.238785
0 0.992006 0.175658 -2.15978
0 0.991731 0.0959142 1.36292
0 0.99175 0.0976214 1.23517
0 0.991851 0.0973048 0.13933
0 0.991768 0.0980341 -2.38274
0 0.991858 0.0962715 -2.01942
0 0.991933 0.105562 -3.66526
0 0.991776 0.0991182 1.92682
0 0.991848 0.0950665 -0.635418
0 0.99185 0.0949856 -0.288884
0 0.991806 0.099491 3.11007
0 0.991805 0.0988001 -0.712325
0 0.991831 0.0948772 1.0025
0 0.991786 0.09464 1.01301
0 0.99183 0.0956849 -0.371482
0 0.991926 0.0959125 -1.46512
0 0.991822 0.171438 6.75496
0 0.991758 0.0953968 0.850852
0 0.991881 0.0975473 0.313076
0 0.991809 0.095779 1.32494
0 0.991768 0.0963107 1.33676
0 0.991898 0.096865 0.37625
0 0.991818 0.0952393 0.154336
0 0.991779 0.0954544 1.341
0 0.991855 0.0954075 -0.231744
0 0.99177 0.0969333 -1.94384
0 0.991882 0.0960332 0.00439297
0 0.991958 0.173657 8.63666
0 0.991756 0.0977855 3.05576
0 0.991827 0.0979255 2.83271
0 0.991939 0.0988754 -2.34561
0 0.991866 0.0987036 -3.39388
0 0.991957 0.0980425 2.39509
0 0.991801 0.0970572 1.65504
0 0.991852 0.0962269 1.83794
0 0.991808 0.101255 3.10265
0 0.991819 0.0968445 1.65052
0 0.991813 0.0977482 -1.05047
0 0.991834 0.0947651 0.493428
0 0.99193 0.0963675 -0.52651
0 0.991891 0.172923 6.57419
0 0.991766 0.0950595 -1.20088
0 0.991821 0.0977197 1.43488
0 0.991785 0.0962684 0.418273
0 0.991862 0.0963917 1.50081
0 0.991832 0.100304 1.60727
0 0.991818 0.0994955 -1.1738
0 0.991788 0.0969489 1.53296
0 0.991829 0.100709 3.82157
0 0.991782 0.0963234 1.12295
0 0.991778 0.0950044 -0.313827
0 0.991833 0.0948399 0.830414
0 0.991744 0.0948746 0.245978
0 0.991743 0.174393 9.83575
0 0.991792 0.0965954 -1.74221
0 0.991854 0.105267 -4.28111
0 0.991932 0.0971842 -1.2963
0 0.991892 0.102714 1.39812
0 0.991782 0.0964823 -1.91262
0 0.991792 0.0963106 -0.249117
0 0.991826 0.0963576 0.0767466
0 0.991814 0.0959049 0.804791
0 0.991825 0.0945714 1.27457
0 0.991824 0.096067 0.666347
0 0.991816 0.0942763 -0.0422054
0 0.991912 0.0965853 0.893147
0 0.991906 0.0963532 0.565384
0 0.99188 0.171525 -4.95286
0 0.991795 0.0945316 -0.0653784
0 0.991822 0.0950832 0.903883
0 0.991816 0.0947317 1.15173
0 0.991778 0.0947304 0.00905848
0 0.991799 0.103291 -1.07318
0 0.991773 0.0982688 -0.374192
0 0.991819 0.0955977 1.23094
0 0.991742 0.094223 0.416158
0 0.991641 0.176626 17.564
0 0.991789 0.0977368 -2.08012
0 0.991813 0.104049 0.808745
0 0.991789 0.0977025 1.4088
0 0.991773 0.0966708 -0.00533309
0 0.991796 0.0947928 -0.194314
0 0.991817 0.0950368 -0.341573
0 0.991811 0.0959937 0.0380277
0 0.991811 0.0952105 -1.54678
0 0.991814 0.0948205 -1.14275
0 0.991876 0.102799 -0.10356
0 0.991923 0.0954063 -1.39038
0 0.991882 0.173717 13.841
0 0.99179 0.0950449 0.99663
0 0.991799 0.0951269 -0.8011
0 0.991784 0.0967461 0.767536
0 0.991785 0.0955393 0.228827
0 0.991823 0.0959861 0.693613
0 0.991852 0.0956517 -1.28639
0 0.991827 0.0946671 0.558139
0 0.991744 0.18107 13.4024
0 0.991759 0.100382 3.15181
0 0.991795 0.0999605 0.339007
0 0.991773 0.0964574 -0.518664
0 0.991795 0.0947096 -0.00386508
0 0.991796 0.0950584 -1.13762
0 0.991799 0.0962013 0.513236
0 0.991791 0.0946924 -1.3588
0 0.991787 0.101988 1.51147
0 0.991832 0.0980998 -0.865926
0 0.991847 0.0957752 -0.423567
0 0.991816 0.0958253 -1.16878
0 0.991857 0.171989 1.25613
0 0.991791 0.0964669 -2.11794
0 0.991788 0.0956679 -1.06562
0 0.991813 0.0984263 2.44129
0 0.991885 0.0953887 1.30071
0 0.991947 0.0948269 1.06871
0 0.991904 0.179679 13.4214
0 0.991773 0.095752 0.644371
0 0.991767 0.0949136 -1.32949
0 0.991777 0.0947064 0.320564
0 0.991766 0.0949962 1.08594
0 0.991759 0.0952291 -0.584991
0 0.9918 0.0964267 1.44597
0 0.991833 0.0955439 -1.63596
0 0.991797 0.0947092 1.51502
0 0.991697 0.170861 17.6697
0 0.991782 0.103605 4.04141
0 0.991784 0.0955586 1.73607
0 0.991848 0.0969872 -1.37514
0 0.991955 0.0953692 1.21952
0 0.992023 0.174724 -2.67938
0 0.99177 0.0954192 0.183439
0 0.991766 0.0954129 0.473289
0 0.991765 0.0949561 -0.985547
0 0.991784 0.102533 -4.87099
0 0.991822 0.0951578 1.5166
0 0.991901 0.0938683 0.657509
0 0.991873 0.17935 11.7055
0 0.991764 0.0971316 -1.77441
0 0.991777 0.0951923 -1.15924
0 0.991892 0.095429 -1.31366
0 0.99196 0.175803 -1.8192
0 0.991743 0.0955539 1.23814
0 0.991778 0.0971335 -1.32904
0 0.991746 0.0960063 1.23736
0 0.991751 0.0973612 -0.811247
0 0.991836 0.095891 1.61927
0 0.99195 0.0955406 1.44704
0 0.991988 0.177746 12.2749
0 0.99174 0.0949616 -0.407831
0 0.991825 0.0945094 1.01882
0 0.991912 0.175858 13.0261
0 0.991753 0.095994 -0.622541
0 0.991843 0.104461 -3.61854
0 0.991798 0.0956537 1.21569
0 0.992032 0.0955284 0.251807
0 0.992082 0.176183 -1.65204
0 0.991868 0.0946103 -0.803438
0 0.991897 0.174749 18.3767
0 0.99194 0.095481 -1.20775
0 0.992005 0.0963497 1.41955
0 0.992139 0.173582 0.797309
0 0.992024 0.173465 6.73817
0 0.992074 0.17482 3.20694
VECTORS fa_u float
0.0062765 0.00258574 -0
0.00575129 0.00331857 -0
0.00564367 0.00151633 -0
0.00665444 0.000900313 -0
1e-08 0 0
0.00518254 0.00397757 -0
0.00423303 0.00420742 -0
1e-08 0 0
1e-08 0 0
0.00411189 0.00530052 -0
0.00349708 0.00602309 -0
0.00644256 2.15124e-05 -0
0.00651553 -0.00083229 0
1e-08 0 0
1e-08 0 0
1e-08 0 0
1e-08 0 0
1e-08 0 0
1e-08 0 0
1e-08 0 0
1e-08 0 0
0.00262201 0.00635068 -0
0.00166049 0.00625695 -0
1e-08 0 0
1e-08 0 0
1e-08 0 0
0.00663271 -0.00176112 0
1e-08 0 0
0.00676787 -0.00282847 0
1e-08 0 0
1e-08 0 0
1e-08 0 0
0.000854372 0.00662418 -0
1e-08 0 0
1e-08 0 0
1e-08 0 0
1e-08 0 0
1e-08 0 0
1e-08 0 0
1e-08 0 0
1e-08 0 0
1e-08 0 0
1e-08 0 0
-2.55316e-05 0.00666389 -0
1e-08 0 0
1e-08 0 0
1e-08 0 0
0.00568054 -0.00333464 0
1e-08 0 0
0.00466059 -0.00360523 0
1e-08 0 0
1e-08 0 0
1e-08 0 0
1e-08 0 0
1e-08 0 0
1e-08 0 0
1e-08 0 0
1e-08 0 0
1e-08 0 0
1e-08 0 0
1e-08 0 0
1e-08 0 0
1e-08 0 0
-0.000808766 0.00604528 0
1e-08 0 0
1e-08 0 0
1e-08 0 0
1e-08 0 0
1e-08 0 0
0.00438433 -0.00437325 0
1e-08 0 0
0.00379168 -0.00489033 0
1e-08 0 0
1e-08 0 0
1e-08 0 0
1e-08 0 0
1e-08 0 0
1e-08 0 0
1e-08 0 0
1e-08 0 0
1e-08 0 0
1e-08 0 0
1e-08 0 0
1e-08 0 0
1e-08 0 0
-0.0016628 0.00622711 0
1e-08 0 0
1e-08 0 0
1e-08 0 0
1e-08 0 0
1e-08 0 0
1e-08 0 0
0.00360654 -0.00619064 0
1e-08 0 0
1e-08 0 0
1e-08 0 0
1e-08 0 0
1e-08 0 0
0.00270112 -0.00655317 0
1e-08 0 0
1e-08 0 0
1e-08 0 0
1e-08 0 0
1e-08 0 0
1e-08 0 0
1e-08 0 0
1e-08 0 0
1e-08 0 0
1e-08 0 0
-0.00251238 0.0060877 0
1e-08 0 0
1e-08 0 0
1e-08 0 0
1e-08 0 0
1e-08 0 0
1e-08 0 0
1e-08 0 0
1e-08 0 0
1e-08 0 0
1e-08 0 0
1e-08 0 0
1e-08 0 0
1e-08 0 0
1e-08 0 0
0.00160233 -0.00604908 0
1e-08 0 0
1e-08 0 0
1e-08 0 0
1e-08 0 0
1e-08 0 0
1e-08 0 0
1e-08 0 0
1e-08 0 0
1e-08 0 0
-0.00337834 0.00585249 0
1e-08 0 0
1e-08 0 0
1e-08 0 0
1e-08 0 0
1e-08 0 0
1e-08 0 0
1e-08 0 0
1e-08 0 0
1e-08 0 0
1e-08 0 0
1e-08 0 0
1e-08 0 0
1e-08 0 0
1e-08 0 0
1e-08 0 0
0.000803365 -0.00605882 0
1e-08 0 0
1e-08 0 0
1e-08 0 0
1e-08 0 0
1e-08 0 0
1e-08 0 0
1e-08 0 0
1e-08 0 0
1e-08 0 0
1e-08 0 0
-0.00404476 0.00525682 0
1e-08 0 0
1e-08 0 0
1e-08 0 0
1e-08 0 0
1e-08 0 0
1e-08 0 0
1e-08 0 0
1e-08 0 0
1e-08 0 0
1e-08 0 0
1e-08 0 0
1e-08 0 0
1.69214e-05 -0.00666004 0
1e-08 0 0
1e-08 0 0
1e-08 0 0
1e-08 0 0
1e-08 0 0
1e-08 0 0
1e-08 0 0
1e-08 0 0
1e-08 0 0
1e-08 0 0
1e-08 0 0
1e-08 0 0
-0.00415487 0.00416933 0
1e-08 0 0
1e-08 0 0
1e-08 0 0
1e-08 0 0
1e-08 0 0
1e-08 0 0
1e-08 0 0
1e-08 0 0
1e-08 0 0
1e-08 0 0
1e-08 0 0
1e-08 0 0
1e-08 0 0
-0.000869184 -0.00666147 0
1e-08 0 0
1e-08 0 0
1e-08 0 0
1e-08 0 0
1e-08 0 0
1e-08 0 0
1e-08 0 0
1e-08 0 0
-0.00515718 0.0040011 0
1e-08 0 0
1e-08 0 0
1e-08 0 0
1e-08 0 0
1e-08 0 0
1e-08 0 0
1e-08 0 0
1e-08 0 0
1e-08 0 0
1e-08 0 0
1e-08 0 0
-0.00162331 -0.00609515 0
1e-08 0 0
1e-08 0 0
1e-08 0 0
1e-08 0 0
1e-08 0 0
1e-08 0 0
1e-08 0 0
-0.00608561 0.00353813 0
1e-08 0 0
1e-08 0 0
1e-08 0 0
1e-08 0 0
1e-08 0 0
1e-08 0 0
1e-08 0 0
1e-08 0 0
1e-08 0 0
1e-08 0 0
1e-08 0 0
-0.00266078 -0.00643616 0
1e-08 0 0
1e-08 0 0
1e-08 0 0
1e-08 0 0
1e-08 0 0
-0.00627612 0.0025956 0
1e-08 0 0
1e-08 0 0
1e-08 0 0
1e-08 0 0
1e-08 0 0
1e-08 0 0
1e-08 0 0
1e-08 0 0
-0.00349352 -0.00600532 0
1e-08 0 0
1e-08 0 0
1e-08 0 0
1e-08 0 0
-0.00629356 0.00167561 0
1e-08 0 0
1e-08 0 0
1e-08 0 0
1e-08 0 0
1e-08 0 0
1e-08 0 0
-0.00387112 -0.00500228 0
1e-08 0 0
1e-08 0 0
1e-08 0 0
-0.00658174 0.0008541 0
1e-08 0 0
1e-08 0 0
1e-08 0 0
1e-08 0 0
1e-08 0 0
1e-08 0 0
-0.00430308 -0.00429863 0
1e-08 0 0
1e-08 0 0
-0.00688025 -2.6643e-05 0
1e-08 0 0
1e-08 0 0
1e-08 0 0
1e-08 0 0
-0.00527079 -0.00405652 0
1e-08 0 0
-0.00592071 -0.00079522 0
1e-08 0 0
1e-08 0 0
-0.00587374 -0.0033898 0
-0.00614435 -0.00163669 0
-0.00616555 -0.00254017 0
