# vtk DataFile Version 2.0
CellBP Time: 0.16
ASCII
DATASET UNSTRUCTURED_GRID
POINTS 296 double
-9.1895 -3.77725 0
-8.61097 -4.9501 0
-9.60999 -2.53815 0
-9.8657 -1.25515 0
-8.35893 -2.81936 0
-7.88388 -6.03812 0
-7.02196 -7.02165 0
-7.91866 -3.87521 0
-7.34387 -4.86883 0
-6.03792 -7.88454 0
-4.95061 -8.61136 0
-9.95036 0.0498172 0
-9.86516 1.35547 0
-8.65912 -1.68417 0
-8.78768 -0.529986 0
-7.59109 -2.00459 0
-7.22712 -2.90706 0
-6.63885 -5.77997 0
-5.82349 -6.59819 0
-6.7916 -3.88967 0
-6.22183 -4.67687 0
-3.77785 -9.19052 0
-2.5387 -9.61046 0
-4.90723 -7.31034 0
-3.91365 -7.88785 0
-8.79414 0.643512 0
-9.60958 2.63803 0
-8.62464 1.77406 0
-9.18902 3.87734 0
-7.74568 -0.929309 0
-7.79589 0.0801122 0
-6.95389 -1.31626 0
-1.25534 -9.86564 0
-6.44279 -2.15366 0
-6.32068 -3.05682 0
-5.53766 -5.47573 0
-4.79689 -6.1168 0
-5.66024 -3.75786 0
-5.27054 -4.5626 0
-2.86689 -8.36553 0
-1.77904 -8.64189 0
-3.92892 -6.72504 0
-3.05716 -7.15422 0
0.0499039 -9.95126 0
-7.70687 1.14359 0
-8.33987 2.91595 0
-7.55322 2.11223 0
-8.61137 5.05092 0
-7.88142 3.9789 0
-7.88414 6.13811 0
-6.78002 -0.397106 0
-6.95787 0.552489 0
-5.77264 -1.00378 0
-0.591213 -8.81139 0
0.565753 -8.77258 0
-5.3043 -2.48098 0
-4.49297 -5.0969 0
-3.90336 -5.77666 0
-4.43992 -3.80575 0
-2.06216 -7.56352 0
-1.1351 -7.78741 0
-2.99519 -6.10353 0
-2.30887 -6.6213 0
1.35545 -9.86541 0
-6.69076 1.42219 0
-7.17354 3.11859 0
-6.66054 2.37335 0
-7.29619 4.9894 0
-6.71943 4.00382 0
-7.02201 7.12205 0
-6.57369 5.89544 0
-6.03855 7.98493 0
-4.45427 -1.1815 0
-5.81585 0.51373 0
-4.65736 -0.0103705 0
0.00905641 -7.84965 0
1.73881 -8.64554 0
0.949632 -7.76495 0
-4.03949 -2.40724 0
-3.4867 -1.39118 0
-3.29525 -4.80661 0
-3.2666 -3.2689 0
-1.37826 -6.67695 0
-0.508286 -7.02643 0
-1.97604 -5.53845 0
2.63843 -9.61104 0
-5.50856 2.03729 0
-6.09602 3.07283 0
-6.10644 4.87071 0
-5.76301 3.9924 0
-5.76258 6.71864 0
-5.45341 5.62068 0
-4.95125 8.71195 0
-4.8396 7.40629 0
-3.50255 -0.423862 0
-4.45048 1.24943 0
-3.7125 0.592675 0
-4.06321 2.32056 0
-3.77753 9.29079 0
2.86294 -8.33465 0
0.420249 -6.79691 0
2.02288 -7.52735 0
1.30676 -6.90706 0
-2.44389 -0.8743 0
-2.8391 -2.13214 0
-2.29491 -4.09867 0
-2.32618 -2.97478 0
-0.442542 -5.86267 0
-1.22304 -4.50048 0
3.87693 -9.1897 0
-4.79095 3.39268 0
-5.08918 4.59532 0
-4.64837 6.28303 0
-4.54004 5.36114 0
-3.84477 7.99528 0
-3.82778 6.84753 0
-2.78429 8.42475 0
-1.64819 -0.138123 0
-1.4495 -0.891103 0
-2.48826 0.507455 0
-3.25429 1.44515 0
-3.23974 3.31772 0
-2.91121 2.37293 0
-1.35422 0.627175 0
-2.53852 9.71002 0
3.93339 -7.88878 0
2.96559 -7.15925 0
0.954254 -5.82355 0
2.07479 -6.41717 0
-1.68339 -1.99316 0
-1.43479 -3.27901 0
0.0902137 -4.74837 0
-0.566362 -3.69569 0
4.93312 -7.32054 0
5.05047 -8.61071 0
-3.77793 4.5529 0
-3.73582 5.75372 0
-2.88812 7.29184 0
-3.01064 6.35546 0
-1.66327 8.73568 0
-1.94006 7.62131 0
-2.33878 4.05302 0
-0.730038 -1.32788 0
-0.836053 -0.257918 0
-1.93549 1.68137 0
-2.12563 2.87698 0
-1.30642 3.54588 0
-0.868613 1.35119 0
-0.281455 0.456066 0
-0.533855 8.87369 0
-1.25527 9.96579 0
1.11304 -4.57594 0
3.91108 -6.719 0
2.98862 -6.09639 0
2.11834 -5.42644 0
4.78559 -6.20701 0
-0.559076 -2.47796 0
0.495171 -3.46505 0
0.0542403 -1.61114 0
1.48225 -3.68335 0
5.86867 -6.61627 0
6.13819 -7.88406 0
-2.47638 5.35003 0
-2.13119 6.53624 0
-0.903836 7.80528 0
-1.27223 6.93391 0
0.0866922 7.88231 0
-1.14456 4.49609 0
0.151165 -0.617997 0
-0.796796 2.48928 0
-0.331298 3.60183 0
0.0639792 1.51315 0
0.742403 0.473449 0
0.646692 8.87637 0
0.0502181 10.0507 0
2.3816 -4.28651 0
3.86017 -5.64203 0
3.00221 -5.21424 0
5.57522 -5.49344 0
4.69226 -5.2846 0
0.629642 -2.29445 0
1.25647 -2.95232 0
0.758246 -1.39203 0
2.16493 -3.1369 0
2.99459 -3.47772 0
6.15688 -4.79329 0
6.65754 -5.77074 0
7.12154 -7.0217 0
-1.02002 5.82197 0
-0.372268 6.88545 0
1.12343 7.77153 0
0.558578 7.08168 0
-5.5916e-05 4.7263 0
0.607462 3.82898 0
1.33986 -0.642209 0
0.539732 2.65193 0
0.967013 1.57536 0
1.91124 0.213778 0
1.61579 1.06524 0
2.13042 7.58561 0
1.7993 8.71476 0
1.3552 9.96506 0
3.82388 -4.35295 0
5.11804 -4.45047 0
5.84749 -3.93647 0
3.78507 -3.20214 0
1.81304 -1.88338 0
3.02007 -2.57484 0
6.78546 -3.94921 0
7.38357 -4.89838 0
7.98479 -6.03897 0
0.483411 5.88324 0
1.42903 6.74379 0
2.37507 6.67119 0
1.21045 4.55757 0
1.48878 3.39878 0
2.43679 -0.692533 0
2.82919 0.14231 0
1.78972 2.16365 0
2.61307 1.15035 0
3.073 7.17246 0
2.90529 8.37934 0
2.6383 9.70955 0
4.91278 -3.32905 0
6.12269 -3.10982 0
4.17419 -2.27612 0
3.24556 -1.50359 0
6.73367 -2.3139 0
7.23454 -3.04365 0
7.96749 -3.91364 0
8.71127 -4.95049 0
2.02424 5.60159 0
3.08759 6.15576 0
2.36464 4.12831 0
2.42085 3.06204 0
3.52697 -0.461302 0
3.61709 0.613161 0
2.9628 2.28906 0
3.54697 1.52579 0
4.01374 5.9004 0
3.98605 6.79587 0
3.9746 7.94177 0
3.87718 9.29033 0
5.57081 -1.91691 0
4.5108 -1.13018 0
6.71659 -1.3367 0
7.59556 -2.03729 0
8.40036 -2.86262 0
9.29037 -3.77728 0
3.42041 4.87884 0
3.34018 3.38668 0
4.69302 0.129896 0
4.52092 1.31039 0
4.06683 2.44479 0
4.57262 5.15479 0
4.84591 6.19362 0
4.98232 7.38381 0
5.05051 8.71107 0
5.88588 -0.435178 0
7.01408 -0.488543 0
7.76306 -1.08585 0
8.6886 -1.74671 0
9.71021 -2.53813 0
4.55439 3.82924 0
5.82033 1.09901 0
5.37362 2.53607 0
5.38283 4.62297 0
5.61503 5.52636 0
5.9002 6.67497 0
6.13806 7.98428 0
6.84958 0.463708 0
7.85733 -0.0257418 0
8.86465 -0.584547 0
9.96574 -1.25557 0
6.96422 1.35013 0
5.72414 3.78051 0
6.54499 2.19867 0
6.38372 3.08971 0
6.29592 4.68962 0
6.6964 5.84109 0
7.12205 7.12169 0
7.78861 0.968087 0
8.86397 0.572832 0
10.051 0.049962 0
7.62048 2.00543 0
6.83306 3.90656 0
7.27369 2.94852 0
7.38236 4.8883 0
7.98385 6.13781 0
8.72757 1.72759 0
9.96543 1.35576 0
8.42547 2.83908 0
7.9857 3.91869 0
8.7111 5.05036 0
9.70983 2.63815 0
9.28942 3.87721 0
CELLS 542 2168
3 2 0 4
3 0 1 7
3 4 0 7
3 1 5 8
3 7 1 8
3 3 2 13
3 13 2 4
3 11 3 14
3 14 3 13
3 13 4 15
3 4 7 16
3 15 4 16
3 5 6 17
3 8 5 17
3 6 9 18
3 17 6 18
3 7 8 19
3 16 7 19
3 8 17 20
3 19 8 20
3 9 10 23
3 18 9 23
3 10 21 24
3 23 10 24
3 12 11 25
3 25 11 14
3 26 12 27
3 27 12 25
3 14 13 29
3 29 13 15
3 25 14 30
3 30 14 29
3 29 15 31
3 15 16 33
3 31 15 33
3 16 19 34
3 33 16 34
3 17 18 35
3 20 17 35
3 18 23 36
3 35 18 36
3 19 20 37
3 34 19 37
3 20 35 38
3 37 20 38
3 21 22 39
3 24 21 39
3 22 32 40
3 39 22 40
3 23 24 41
3 36 23 41
3 24 39 42
3 41 24 42
3 27 25 44
3 44 25 30
3 28 26 45
3 45 26 27
3 45 27 46
3 46 27 44
3 47 28 48
3 48 28 45
3 30 29 50
3 50 29 31
3 44 30 51
3 51 30 50
3 50 31 52
3 31 33 52
3 32 43 53
3 40 32 53
3 53 43 54
3 33 34 55
3 34 37 55
3 33 55 52
3 35 36 56
3 38 35 56
3 36 41 57
3 56 36 57
3 37 38 58
3 38 56 58
3 37 58 55
3 39 40 59
3 42 39 59
3 40 53 60
3 59 40 60
3 41 42 61
3 57 41 61
3 42 59 62
3 61 42 62
3 43 63 54
3 46 44 64
3 64 44 51
3 48 45 65
3 65 45 46
3 65 46 66
3 66 46 64
3 49 47 67
3 67 47 48
3 67 48 68
3 68 48 65
3 69 49 70
3 70 49 67
3 52 55 72
3 64 51 73
3 51 50 73
3 50 52 73
3 73 52 74
3 74 52 72
3 53 54 75
3 60 53 75
3 54 63 76
3 54 76 77
3 75 54 77
3 55 58 78
3 72 55 78
3 72 78 79
3 56 57 80
3 57 61 80
3 56 80 58
3 58 80 81
3 78 58 81
3 59 60 82
3 62 59 82
3 60 75 83
3 82 60 83
3 61 62 84
3 62 82 84
3 61 84 80
3 63 85 76
3 66 64 86
3 64 73 86
3 68 65 87
3 87 65 66
3 87 66 86
3 70 67 88
3 88 67 68
3 88 68 89
3 89 68 87
3 71 69 90
3 90 69 70
3 90 70 91
3 91 70 88
3 92 71 93
3 93 71 90
3 74 72 94
3 94 72 79
3 86 73 95
3 95 73 74
3 95 74 96
3 96 74 94
3 97 86 95
3 76 85 99
3 75 77 100
3 83 75 100
3 76 99 101
3 77 76 101
3 77 101 102
3 100 77 102
3 94 79 103
3 78 81 104
3 79 78 104
3 79 104 103
3 80 84 105
3 81 80 105
3 81 105 106
3 104 81 106
3 82 83 107
3 83 100 107
3 82 107 84
3 84 107 108
3 105 84 108
3 85 109 99
3 89 87 110
3 87 86 110
3 110 86 97
3 91 88 111
3 111 88 89
3 111 89 110
3 93 90 112
3 112 90 91
3 112 91 113
3 113 91 111
3 98 92 114
3 114 92 93
3 114 93 115
3 115 93 112
3 116 98 114
3 117 103 118
3 96 94 119
3 94 103 119
3 119 103 117
3 97 95 120
3 120 95 96
3 120 96 119
3 121 110 97
3 121 97 122
3 122 97 120
3 123 119 117
3 124 98 116
3 99 109 125
3 99 125 126
3 101 99 126
3 100 102 127
3 100 127 107
3 101 126 128
3 102 101 128
3 102 128 127
3 104 106 129
3 104 129 103
3 103 129 118
3 105 108 130
3 106 105 130
3 106 130 129
3 107 127 131
3 108 107 131
3 108 131 132
3 108 132 130
3 109 134 125
3 125 134 133
3 113 111 135
3 111 110 135
3 135 110 121
3 115 112 136
3 136 112 113
3 136 113 135
3 116 114 137
3 137 114 115
3 137 115 138
3 138 115 136
3 139 124 116
3 139 116 140
3 140 116 137
3 141 135 121
3 118 129 142
3 118 142 143
3 117 118 143
3 123 117 143
3 122 120 144
3 120 119 144
3 144 119 123
3 141 121 145
3 145 121 122
3 145 122 144
3 146 141 145
3 147 144 123
3 147 123 148
3 143 148 123
3 150 124 139
3 149 150 139
3 131 127 151
3 125 133 152
3 126 125 152
3 126 152 153
3 128 126 153
3 128 153 154
3 128 154 127
3 127 154 151
3 152 133 155
3 130 132 156
3 130 156 129
3 129 156 142
3 131 151 157
3 132 131 157
3 132 157 156
3 156 158 142
3 157 151 159
3 133 160 155
3 134 161 133
3 133 161 160
3 138 136 162
3 136 135 162
3 162 135 141
3 140 137 163
3 163 137 138
3 163 138 162
3 149 139 164
3 164 139 140
3 164 140 165
3 165 140 163
3 166 149 164
3 167 162 141
3 167 141 146
3 142 158 168
3 143 142 168
3 143 168 148
3 146 145 169
3 145 144 169
3 169 144 147
3 170 167 146
3 170 146 169
3 171 169 147
3 171 147 148
3 171 148 172
3 168 172 148
3 173 149 166
3 174 150 149
3 173 174 149
3 154 175 151
3 151 175 159
3 152 155 176
3 153 152 176
3 153 176 177
3 153 177 154
3 154 177 175
3 155 160 178
3 155 178 179
3 176 155 179
3 156 157 180
3 156 180 158
3 157 159 181
3 157 181 180
3 158 180 182
3 158 182 168
3 159 175 183
3 159 183 181
3 175 184 183
3 160 186 178
3 178 186 185
3 161 187 160
3 160 187 186
3 165 163 188
3 163 162 188
3 188 162 167
3 166 164 189
3 189 164 165
3 189 165 188
3 190 173 166
3 190 166 191
3 191 166 189
3 192 188 167
3 192 167 170
3 193 192 170
3 182 194 168
3 194 172 168
3 193 170 195
3 170 169 195
3 195 169 171
3 196 195 171
3 196 171 172
3 194 197 172
3 197 198 172
3 198 196 172
3 200 173 190
3 199 200 190
3 201 174 173
3 200 201 173
3 176 179 202
3 177 176 202
3 177 202 175
3 175 202 184
3 178 185 203
3 178 203 179
3 179 203 202
3 203 185 204
3 202 205 184
3 183 206 181
3 180 181 206
3 180 206 182
3 182 206 194
3 183 184 207
3 205 207 184
3 183 207 206
3 185 208 204
3 186 209 185
3 185 209 208
3 187 210 186
3 186 210 209
3 191 189 211
3 189 188 211
3 211 188 192
3 199 190 212
3 212 190 191
3 212 191 211
3 213 199 212
3 214 211 192
3 214 192 193
3 215 214 193
3 215 193 195
3 206 216 194
3 216 197 194
3 216 217 197
3 215 195 218
3 218 195 196
3 198 218 196
3 217 219 197
3 219 218 198
3 197 219 198
3 220 199 213
3 221 200 199
3 220 221 199
3 222 201 200
3 221 222 200
3 203 204 223
3 203 223 202
3 202 223 205
3 204 208 224
3 204 224 223
3 205 223 225
3 205 225 207
3 207 225 226
3 207 226 206
3 226 216 206
3 208 228 224
3 224 228 227
3 209 229 208
3 229 228 208
3 210 230 209
3 209 230 229
3 213 212 231
3 212 211 231
3 231 211 214
3 232 220 213
3 232 213 231
3 233 231 214
3 233 214 215
3 234 233 215
3 234 215 218
3 226 235 216
3 235 217 216
3 235 236 217
3 217 236 219
3 237 234 218
3 237 218 219
3 236 238 219
3 238 237 219
3 240 220 232
3 239 240 232
3 241 221 220
3 240 241 220
3 242 222 221
3 241 242 221
3 224 227 243
3 224 243 223
3 223 243 225
3 225 243 244
3 225 244 226
3 226 244 235
3 227 245 243
3 228 246 227
3 227 246 245
3 229 247 228
3 228 247 246
3 230 248 229
3 229 248 247
3 239 232 249
3 232 231 249
3 249 231 233
3 250 249 233
3 250 233 234
3 237 250 234
3 244 251 235
3 235 251 236
3 251 252 236
3 236 252 238
3 252 253 238
3 253 250 237
3 253 237 238
3 254 239 249
3 255 240 239
3 254 255 239
3 256 241 240
3 255 256 240
3 257 242 241
3 256 257 241
3 245 258 243
3 243 258 244
3 244 258 251
3 245 259 258
3 246 260 245
3 245 260 259
3 247 261 246
3 246 261 260
3 248 262 247
3 247 262 261
3 254 249 263
3 263 249 250
3 253 263 250
3 258 264 251
3 251 264 252
3 264 265 252
3 265 263 253
3 252 265 253
3 266 254 263
3 267 255 254
3 266 267 254
3 268 256 255
3 267 268 255
3 269 257 256
3 268 269 256
3 259 270 258
3 270 264 258
3 260 271 259
3 259 271 270
3 261 272 260
3 260 272 271
3 262 273 261
3 273 272 261
3 270 274 264
3 275 266 263
3 275 263 265
3 274 276 264
3 276 265 264
3 276 277 265
3 277 275 265
3 278 267 266
3 275 278 266
3 279 268 267
3 278 279 267
3 280 269 268
3 279 280 268
3 271 281 270
3 270 281 274
3 272 282 271
3 271 282 281
3 273 283 272
3 272 283 282
3 281 284 274
3 274 284 276
3 285 278 275
3 277 285 275
3 284 286 276
3 286 285 277
3 276 286 277
3 287 279 278
3 285 287 278
3 288 280 279
3 287 288 279
3 282 289 281
3 281 289 284
3 283 290 282
3 282 290 289
3 289 291 284
3 284 291 286
3 291 292 286
3 292 287 285
3 286 292 285
3 293 288 287
3 292 293 287
3 290 294 289
3 289 294 291
3 294 295 291
3 295 293 292
3 291 295 292
CELL_TYPES 542
5
5
5
5
5
5
5
5
5
5
5
5
5
5
5
5
5
5
5
5
5
5
5
5
5
5
5
5
5
5
5
5
5
5
5
5
5
5
5
5
5
5
5
5
5
5
5
5
5
5
5
5
5
5
5
5
5
5
5
5
5
5
5
5
5
5
5
5
5
5
5
5
5
5
5
5
5
5
5
5
5
5
5
5
5
5
5
5
5
5
5
5
5
5
5
5
5
5
5
5
5
5
5
5
5
5
5
5
5
5
5
5
5
5
5
5
5
5
5
5
5
5
5
5
5
5
5
5
5
5
5
5
5
5
5
5
5
5
5
5
5
5
5
5
5
5
5
5
5
5
5
5
5
5
5
5
5
5
5
5
5
5
5
5
5
5
5
5
5
5
5
5
5
5
5
5
5
5
5
5
5
5
5
5
5
5
5
5
5
5
5
5
5
5
5
5
5
5
5
5
5
5
5
5
5
5
5
5
5
5
5
5
5
5
5
5
5
5
5
5
5
5
5
5
5
5
5
5
5
5
5
5
5
5
5
5
5
5
5
5
5
5
5
5
5
5
5
5
5
5
5
5
5
5
5
5
5
5
5
5
5
5
5
5
5
5
5
5
5
5
5
5
5
5
5
5
5
5
5
5
5
5
5
5
5
5
5
5
5
5
5
5
5
5
5
5
5
5
5
5
5
5
5
5
5
5
5
5
5
5
5
5
5
5
5
5
5
5
5
5
5
5
5
5
5
5
5
5
5
5
5
5
5
5
5
5
5
5
5
5
5
5
5
5
5
5
5
5
5
5
5
5
5
5
5
5
5
5
5
5
5
5
5
5
5
5
5
5
5
5
5
5
5
5
5
5
5
5
5
5
5
5
5
5
5
5
5
5
5
5
5
5
5
5
5
5
5
5
5
5
5
5
5
5
5
5
5
5
5
5
5
5
5
5
5
5
5
5
5
5
5
5
5
5
5
5
5
5
5
5
5
5
5
5
5
5
5
5
5
5
5
5
5
5
5
5
5
5
5
5
5
5
5
5
5
5
5
5
5
5
5
5
5
5
5
5
5
5
5
5
5
5
5
5
5
5
5
5
5
5
5
5
5
5
5
5
5
5
5
5
5
5
5
5
5
5
5
5
5
5
5
5
5
5
5
5
5
5
5
5
5
5
5
5
5
5
5
5
5
5
5
5
5
5
5
5
5
5
5
5
5
5
5
5
5
5
5
5
5
5
5
5
POINT_DATA 296
SCALARS concentrations float 4
LOOKUP_TABLE default
0 1.0002 0.0899927 3.56857
0 1.00016 0.0857246 1.7323
0 1.00018 0.0865539 0.0740648
0 1.00015 0.0863225 0.00840777
0 1.00019 0.0763239 0.159881
0 1.00019 0.0844532 3.42657
0 1.00027 0.0841989 0.150286
0 1.00017 0.0763491 0.0317764
0 1.00016 0.0762212 -0.109728
0 1.00024 0.087265 6.32133
0 1.00017 0.0837855 0.931349
0 1.00017 0.0844756 -2.74382
0 1.00017 0.0858636 5.98408
0 1.00017 0.0763304 0.125652
0 1.00017 0.0762383 0.0381457
0 1.00018 0.0763293 -0.0778533
0 1.00017 0.0763947 -0.109811
0 1.00021 0.0761657 -0.0659951
0 1.00023 0.0761403 -0.0105253
0 1.00016 0.0763745 -0.153223
0 1.00017 0.0762897 -0.170221
0 1.00019 0.0839349 -0.0727635
0 1.0003 0.0842207 0.959555
0 1.00018 0.0761922 -0.0824529
0 1.00017 0.0762097 -0.24401
0 1.00017 0.0763086 -0.193467
0 1.00027 0.0876434 -0.363956
0 1.00021 0.0763461 -0.299512
0 1.00034 0.0880871 5.15756
0 1.00018 0.0762951 -0.107263
0 1.00017 0.0763202 -0.206006
0 1.00018 0.0764341 -0.18114
0 1.00034 0.0917744 -0.858843
0 1.00018 0.0765089 -0.163026
0 1.00017 0.0765418 -0.160211
0 1.00018 0.076226 -0.158196
0 1.00017 0.0761972 -0.185246
0 1.00017 0.0764541 -0.192961
0 1.00017 0.0763509 -0.207681
0 1.00021 0.0761469 -0.264751
0 1.00029 0.0760546 -0.370714
0 1.00016 0.0761848 -0.322412
0 1.00017 0.0762514 -0.510635
0 1.0002 0.0869747 0.240978
0 1.00018 0.0764364 -0.349323
0 1.00028 0.0764749 -0.320435
0 1.00021 0.0765813 -0.439379
0 1.00033 0.0914422 2.80125
0 1.00031 0.0763171 -0.395626
0 1.00031 0.0875091 1.42229
0 1.00018 0.0764662 -0.227385
0 1.00018 0.0764991 -0.322632
0 1.00019 0.0766223 -0.18385
0 1.00026 0.0760484 -0.312019
0 1.00015 0.0758941 -0.365466
0 1.00019 0.0766933 -0.177454
0 1.00017 0.0763234 -0.269906
0 1.00016 0.0762855 -0.347304
0 1.00018 0.0764986 -0.261364
0 1.0002 0.0762439 -0.321978
0 1.00022 0.0762382 -0.257474
0 1.00017 0.0763612 -0.538243
0 1.00017 0.0763486 -0.501653
0 1.00009 0.0816227 3.28006
0 1.00019 0.0766131 -0.42269
0 1.00024 0.0765623 -0.482456
0 1.0002 0.0766658 -0.444596
0 1.00029 0.0762734 -0.469798
0 1.00025 0.076435 -0.512631
0 1.00024 0.0855102 -4.01253
0 1.00026 0.0761458 -0.538115
0 1.00025 0.0796097 -0.45387
0 1.0002 0.0769338 -0.150067
0 1.00019 0.076687 -0.278457
0 1.0002 0.0769772 -0.122835
0 1.0002 0.0761242 -0.193077
0 1.00014 0.0758833 -0.258772
0 1.00018 0.0760533 -0.147494
0 1.00019 0.0767721 -0.235995
0 1.0002 0.0771198 0.251175
0 1.00018 0.0764199 -0.428592
0 1.00019 0.0766057 -0.33944
0 1.00019 0.0762603 -0.425558
0 1.00019 0.0761512 -0.324155
0 1.00018 0.0764068 -0.562868
0 1.00014 0.0839086 0.524992
0 1.00019 0.0767721 -0.185635
0 1.00021 0.0765693 -0.460123
0 1.00024 0.0763475 -0.529341
0 1.00021 0.0765011 -0.557483
0 1.00022 0.0761552 -0.622146
0 1.00022 0.0763244 -0.559755
0 1.00036 0.088013 2.17567
0 1.00028 0.0762582 -0.557852
0 1.00021 0.0771248 0.460198
0 1.0002 0.0770826 0.0662811
0 1.00021 0.0770733 0.333464
0 1.0002 0.0770371 0.12933
0 1.00045 0.0964896 7.39771
0 1.00019 0.0758837 -0.208486
0 1.00019 0.076075 -0.317035
0 1.00019 0.0760059 -0.0724048
0 1.00019 0.0760158 -0.264866
0 1.00021 0.0770534 0.0412283
0 1.0002 0.0768394 -0.206592
0 1.00019 0.0764196 -0.413225
0 1.0002 0.0765322 -0.255497
0 1.00019 0.0762121 -0.546848
0 1.00019 0.0762192 -0.376301
0 1.00021 0.0849552 0.0526968
0 1.0002 0.076554 -0.259667
0 1.0002 0.0764654 -0.538031
0 1.00022 0.0763953 -0.571708
0 1.0002 0.076488 -0.537612
0 1.00036 0.0766108 -0.276861
0 1.00025 0.0765517 -0.535529
0 1.00039 0.0765961 -0.123238
0 1.00023 0.0769979 -0.0864721
0 1.00021 0.0767776 -0.0600296
0 1.00023 0.077248 0.140404
0 1.00021 0.0768417 0.352175
0 1.00019 0.0764778 -0.0144543
0 1.0002 0.0762018 0.114053
0 1.00024 0.077046 -0.192215
0 1.00042 0.0900591 -3.41393
0 1.00021 0.0761074 -0.204035
0 1.00021 0.0760443 -0.0639264
0 1.00019 0.0760616 -0.452575
0 1.0002 0.0760715 -0.389915
0 1.0002 0.0765832 -0.0304539
0 1.0002 0.0763282 -0.210416
0 1.00019 0.076019 -0.378379
0 1.0002 0.0761173 -0.228541
0 1.0002 0.0762466 -0.326873
0 1.0002 0.0838064 0.873622
0 1.00019 0.0764645 -0.321229
0 1.0002 0.0765391 -0.465272
0 1.00027 0.076393 -0.274698
0 1.00021 0.0766293 -0.415506
0 1.00032 0.0760964 -0.226884
0 1.00026 0.0761445 -0.200924
0 1.00019 0.0763081 -0.122643
0 1.00021 0.0765217 -0.105578
0 1.00023 0.0768388 -0.205
0 1.00022 0.07687 -0.167144
0 1.0002 0.0758632 -0.089653
0 1.0002 0.0758524 -0.0757071
0 1.00023 0.0769755 -0.362031
0 1.00024 0.0769524 -0.351916
0 1.00023 0.0759827 -0.108082
0 1.00027 0.0867077 1.60382
0 1.0002 0.0759126 -0.321071
0 1.00021 0.0761993 -0.22883
0 1.00021 0.0761143 -0.277751
0 1.0002 0.0760201 -0.334381
0 1.0002 0.0761473 -0.227841
0 1.0002 0.0762838 -0.0324352
0 1.0002 0.0759526 -0.190132
0 1.00021 0.0764188 -0.179913
0 1.0002 0.0758774 -0.22635
0 1.00019 0.0761795 -0.265703
0 1.00017 0.0849272 -3.22738
0 1.00019 0.076529 -0.302284
0 1.00021 0.0765604 -0.349235
0 1.00024 0.0759755 -0.0669544
0 1.00021 0.0761231 -0.100778
0 1.00022 0.075833 0.106446
0 1.00019 0.0760694 -0.0415617
0 1.00023 0.0767448 -0.332913
0 1.00021 0.0766177 -0.263241
0 1.0002 0.0758748 0.0226741
0 1.00023 0.0770228 -0.193419
0 1.00023 0.0770163 -0.242348
0 1.00026 0.0758167 0.139309
0 1.00024 0.0885891 1.29663
0 1.0002 0.0759985 -0.242981
0 1.00021 0.0761469 -0.209455
0 1.0002 0.0761046 -0.255498
0 1.00021 0.075955 -0.102605
0 1.0002 0.0761375 -0.126267
0 1.0002 0.0760747 0.0183919
0 1.0002 0.0758945 -0.145959
0 1.00021 0.0765059 -0.300107
0 1.0002 0.0760147 -0.19851
0 1.0002 0.0761384 -0.197976
0 1.00022 0.0760331 0.062934
0 1.00022 0.0765303 0.139114
0 1.0002 0.087751 -3.60281
0 1.00019 0.0763121 -0.167109
0 1.0002 0.0759633 0.0663546
0 1.00022 0.075823 0.226389
0 1.0002 0.0758515 0.193464
0 1.00019 0.0760417 0.0332903
0 1.0002 0.0759262 0.12671
0 1.00022 0.0768272 -0.334555
0 1.00021 0.076406 -0.00710884
0 1.00023 0.0771301 -0.0363247
0 1.00022 0.0770433 -0.216991
0 1.00024 0.07719 -0.0519361
0 1.0002 0.0758557 0.292127
0 1.00023 0.0758137 0.180103
0 1.00028 0.084177 -1.61723
0 1.0002 0.0761436 -0.168799
0 1.0002 0.0762179 -0.027105
0 1.0002 0.0763084 0.0507512
0 1.0002 0.0763503 -0.159499
0 1.00021 0.0764216 -0.283542
0 1.00021 0.0763787 -0.21065
0 1.00022 0.0762744 0.104817
0 1.00025 0.0767542 0.237519
0 1.00026 0.0958765 4.87397
0 1.00019 0.0761242 0.0785445
0 1.0002 0.0759139 0.326387
0 1.00019 0.0760812 0.39255
0 1.0002 0.0759532 0.248795
0 1.00021 0.076076 0.207592
0 1.00021 0.076707 -0.372721
0 1.00022 0.0769384 -0.334644
0 1.00022 0.0768158 0.149076
0 1.00023 0.0773231 0.0382881
0 1.00018 0.0759354 0.366154
0 1.00015 0.0759928 0.244505
0 1.0002 0.0839595 -1.26395
0 1.0002 0.0765094 -0.0527587
0 1.0002 0.0766457 0.0294962
0 1.0002 0.0767471 -0.180263
0 1.00021 0.076716 -0.289617
0 1.0002 0.0769924 -0.0417359
0 1.00021 0.0766236 -0.0137527
0 1.00023 0.0766594 -0.0761105
0 1.00025 0.0872144 4.93426
0 1.0002 0.0760715 0.374579
0 1.0002 0.0760216 0.395068
0 1.0002 0.0760604 0.373465
0 1.00021 0.0762909 0.303283
0 1.00021 0.0768712 -0.306567
0 1.00022 0.0771284 -0.197492
0 1.00022 0.0767356 0.29334
0 1.00023 0.0772784 0.19116
0 1.0002 0.0760212 0.331288
0 1.00019 0.0759268 0.321109
0 1.00013 0.0760566 0.322078
0 1.00009 0.0862754 4.41318
0 1.0002 0.0771433 -0.10534
0 1.0002 0.0769915 -0.21071
0 1.00019 0.0770534 -0.115522
0 1.00021 0.0766898 -0.0883388
0 1.00025 0.0765543 -0.111277
0 1.00026 0.0850385 -1.74594
0 1.0002 0.0761318 0.349835
0 1.00021 0.0764649 0.319989
0 1.00021 0.0770903 -0.159948
0 1.00021 0.0771118 -0.0162624
0 1.00021 0.0770339 0.214632
0 1.0002 0.076195 0.236216
0 1.00019 0.0760421 0.229593
0 1.00017 0.0760457 0.293502
0 1.00013 0.0878039 -0.800441
0 1.0002 0.0770679 -0.160114
0 1.00018 0.0768344 -0.193803
0 1.00019 0.0766688 -0.139201
0 1.00021 0.0765405 -0.125789
0 1.00025 0.0900519 4.19786
0 1.0002 0.0765679 0.177151
0 1.0002 0.0769149 -0.193607
0 1.0002 0.0769862 -0.0327011
0 1.00019 0.0764258 0.0892406
0 1.00017 0.0762571 0.0976817
0 1.00014 0.0762616 -0.0388508
0 1.00014 0.0835741 0.276568
0 1.00018 0.0767841 -0.252148
0 1.00019 0.0765531 -0.210359
0 1.00024 0.0766402 -0.155248
0 1.00024 0.0865028 3.53804
0 1.00019 0.0767311 -0.306816
0 1.00019 0.0767309 0.00259786
0 1.00019 0.0768183 -0.260733
0 1.00019 0.0768867 -0.173403
0 1.00017 0.0765196 -0.013957
0 1.00014 0.0763307 0.0652031
0 1.00011 0.0878741 8.72176
0 1.00019 0.0765488 -0.307926
0 1.00024 0.0766194 -0.247426
0 1.0003 0.0934912 8.53328
0 1.00019 0.076623 -0.373548
0 1.00019 0.0768069 -0.145012
0 1.00019 0.0767469 -0.312505
0 1.00019 0.0765398 -0.135105
0 1.00017 0.0842358 7.2239
0 1.0002 0.0765744 -0.431206
0 1.00023 0.0896584 4.88341
0 1.0002 0.0766625 -0.597677
0 1.00019 0.0764908 -0.0297568
0 1.00019 0.0843159 1.10036
0 1.00021 0.0827192 0.589788
0 1.0002 0.0863588 2.17814
VECTORS fa_u float
0.0060466 0.00250446 -0
0.00564826 0.00326178 -0
0.00625637 0.00167741 -0
0.00657499 0.00086476 -0
1e-08 0 0
0.00514511 0.00394662 -0
0.0046434 0.00464226 -0
1e-08 0 0
1e-08 0 0
0.0039574 0.00515638 -0
0.00324763 0.00562018 -0
0.00643209 -1.3412e-06 -0
0.00653288 -0.000860174 0
1e-08 0 0
1e-08 0 0
1e-08 0 0
1e-08 0 0
1e-08 0 0
1e-08 0 0
1e-08 0 0
1e-08 0 0
0.00253808 0.00612718 -0
0.00167564 0.00626088 -0
1e-08 0 0
1e-08 0 0
1e-08 0 0
0.00626028 -0.00167845 0
1e-08 0 0
0.00596898 -0.00246936 0
1e-08 0 0
1e-08 0 0
1e-08 0 0
0.000850136 0.00645727 -0
1e-08 0 0
1e-08 0 0
1e-08 0 0
1e-08 0 0
1e-08 0 0
1e-08 0 0
1e-08 0 0
1e-08 0 0
1e-08 0 0
1e-08 0 0
-5.80335e-07 0.00655233 -0
1e-08 0 0
1e-08 0 0
1e-08 0 0
0.0057609 -0.00332509 0
1e-08 0 0
0.00510399 -0.00391675 0
1e-08 0 0
1e-08 0 0
1e-08 0 0
1e-08 0 0
1e-08 0 0
1e-08 0 0
1e-08 0 0
1e-08 0 0
1e-08 0 0
1e-08 0 0
1e-08 0 0
1e-08 0 0
1e-08 0 0
-0.000839563 0.00638773 0
1e-08 0 0
1e-08 0 0
1e-08 0 0
1e-08 0 0
1e-08 0 0
0.00462906 -0.00462597 0
1e-08 0 0
0.00396953 -0.00517009 0
1e-08 0 0
1e-08 0 0
1e-08 0 0
1e-08 0 0
1e-08 0 0
1e-08 0 0
1e-08 0 0
1e-08 0 0
1e-08 0 0
1e-08 0 0
1e-08 0 0
1e-08 0 0
1e-08 0 0
-0.00172286 0.006429 0
1e-08 0 0
1e-08 0 0
1e-08 0 0
1e-08 0 0
1e-08 0 0
1e-08 0 0
0.00327824 -0.0056761 0
1e-08 0 0
1e-08 0 0
1e-08 0 0
1e-08 0 0
1e-08 0 0
0.00253215 -0.00612117 0
1e-08 0 0
1e-08 0 0
1e-08 0 0
1e-08 0 0
1e-08 0 0
1e-08 0 0
1e-08 0 0
1e-08 0 0
1e-08 0 0
1e-08 0 0
-0.0024808 0.00598179 0
1e-08 0 0
1e-08 0 0
1e-08 0 0
1e-08 0 0
1e-08 0 0
1e-08 0 0
1e-08 0 0
1e-08 0 0
1e-08 0 0
1e-08 0 0
1e-08 0 0
1e-08 0 0
1e-08 0 0
1e-08 0 0
0.00165218 -0.00617368 0
1e-08 0 0
1e-08 0 0
1e-08 0 0
1e-08 0 0
1e-08 0 0
1e-08 0 0
1e-08 0 0
1e-08 0 0
1e-08 0 0
-0.00324901 0.00562703 0
1e-08 0 0
1e-08 0 0
1e-08 0 0
1e-08 0 0
1e-08 0 0
1e-08 0 0
1e-08 0 0
1e-08 0 0
1e-08 0 0
1e-08 0 0
1e-08 0 0
1e-08 0 0
1e-08 0 0
1e-08 0 0
1e-08 0 0
0.000862721 -0.00655553 0
1e-08 0 0
1e-08 0 0
1e-08 0 0
1e-08 0 0
1e-08 0 0
1e-08 0 0
1e-08 0 0
1e-08 0 0
1e-08 0 0
1e-08 0 0
-0.00397777 0.00518454 0
1e-08 0 0
1e-08 0 0
1e-08 0 0
1e-08 0 0
1e-08 0 0
1e-08 0 0
1e-08 0 0
1e-08 0 0
1e-08 0 0
1e-08 0 0
1e-08 0 0
1e-08 0 0
-1.81037e-06 -0.00648631 0
1e-08 0 0
1e-08 0 0
1e-08 0 0
1e-08 0 0
1e-08 0 0
1e-08 0 0
1e-08 0 0
1e-08 0 0
1e-08 0 0
1e-08 0 0
1e-08 0 0
1e-08 0 0
-0.00455719 0.00456091 0
1e-08 0 0
1e-08 0 0
1e-08 0 0
1e-08 0 0
1e-08 0 0
1e-08 0 0
1e-08 0 0
1e-08 0 0
1e-08 0 0
1e-08 0 0
1e-08 0 0
1e-08 0 0
1e-08 0 0
-0.000854575 -0.00648291 0
1e-08 0 0
1e-08 0 0
1e-08 0 0
1e-08 0 0
1e-08 0 0
1e-08 0 0
1e-08 0 0
1e-08 0 0
-0.0052815 0.00405373 0
1e-08 0 0
1e-08 0 0
1e-08 0 0
1e-08 0 0
1e-08 0 0
1e-08 0 0
1e-08 0 0
1e-08 0 0
1e-08 0 0
1e-08 0 0
1e-08 0 0
-0.00165677 -0.00619258 0
1e-08 0 0
1e-08 0 0
1e-08 0 0
1e-08 0 0
1e-08 0 0
1e-08 0 0
1e-08 0 0
-0.00557411 0.0032177 0
1e-08 0 0
1e-08 0 0
1e-08 0 0
1e-08 0 0
1e-08 0 0
1e-08 0 0
1e-08 0 0
1e-08 0 0
1e-08 0 0
1e-08 0 0
1e-08 0 0
-0.00254874 -0.00615749 0
1e-08 0 0
1e-08 0 0
1e-08 0 0
1e-08 0 0
1e-08 0 0
-0.00611515 0.00253225 0
1e-08 0 0
1e-08 0 0
1e-08 0 0
1e-08 0 0
1e-08 0 0
1e-08 0 0
1e-08 0 0
1e-08 0 0
-0.00324619 -0.00561945 0
1e-08 0 0
1e-08 0 0
1e-08 0 0
1e-08 0 0
-0.00621963 0.00166577 0
1e-08 0 0
1e-08 0 0
1e-08 0 0
1e-08 0 0
1e-08 0 0
1e-08 0 0
-0.0039557 -0.00515568 0
1e-08 0 0
1e-08 0 0
1e-08 0 0
-0.0065249 0.000859166 0
1e-08 0 0
1e-08 0 0
1e-08 0 0
1e-08 0 0
1e-08 0 0
1e-08 0 0
-0.00467084 -0.00466911 0
1e-08 0 0
1e-08 0 0
-0.0064988 -7.66856e-07 0
1e-08 0 0
1e-08 0 0
1e-08 0 0
1e-08 0 0
-0.00509931 -0.00391202 0
1e-08 0 0
-0.00651023 -0.000858153 0
1e-08 0 0
1e-08 0 0
-0.00569926 -0.00329149 0
-0.00625372 -0.00167667 0
-0.00602799 -0.00249579 0
