# vtk DataFile Version 2.0
CellBP Time: 0.4
ASCII
DATASET UNSTRUCTURED_GRID
POINTS 296 double
-9.18732 -3.77614 0
-8.60847 -4.94886 0
-9.60734 -2.53742 0
-9.86321 -1.25509 0
-8.35767 -2.81857 0
-7.88188 -6.03667 0
-7.02001 -7.01999 0
-7.91723 -3.87386 0
-7.34221 -4.86815 0
-6.03705 -7.88271 0
-4.94981 -8.60943 0
-9.94822 0.0499707 0
-9.8635 1.35519 0
-8.658 -1.68356 0
-8.78657 -0.530197 0
-7.58988 -2.0041 0
-7.22578 -2.90588 0
-6.63741 -5.77937 0
-5.82235 -6.59757 0
-6.7902 -3.88822 0
-6.22069 -4.67546 0
-3.77704 -9.18869 0
-2.53816 -9.60872 0
-4.9063 -7.30967 0
-3.91294 -7.88697 0
-8.79333 0.643318 0
-9.60782 2.63776 0
-8.62348 1.77318 0
-9.18754 3.87634 0
-7.74429 -0.929467 0
-7.79457 0.0796613 0
-6.95255 -1.31632 0
-1.25518 -9.86343 0
-6.44153 -2.15351 0
-6.31954 -3.05636 0
-5.537 -5.47464 0
-4.79651 -6.1157 0
-5.65927 -3.7566 0
-5.26936 -4.56119 0
-2.86706 -8.36468 0
-1.77924 -8.64054 0
-3.92883 -6.72415 0
-3.05638 -7.15344 0
0.0499675 -9.94885 0
-7.70517 1.14302 0
-8.33913 2.91621 0
-7.55159 2.11163 0
-8.60939 5.0496 0
-7.88064 3.97883 0
-7.88185 6.13647 0
-6.77861 -0.397452 0
-6.95618 0.552032 0
-5.7716 -1.0041 0
-0.591634 -8.81039 0
0.565342 -8.77166 0
-5.30333 -2.48097 0
-4.49185 -5.09563 0
-3.90255 -5.77541 0
-4.43903 -3.80541 0
-2.06146 -7.56257 0
-1.13432 -7.78625 0
-2.99522 -6.10274 0
-2.30823 -6.62012 0
1.35485 -9.86325 0
-6.68921 1.42201 0
-7.17233 3.1175 0
-6.659 2.37306 0
-7.29541 4.98901 0
-6.71868 4.00358 0
-7.02019 7.12019 0
-6.57282 5.89492 0
-6.03708 7.98256 0
-4.45371 -1.18193 0
-5.81494 0.513046 0
-4.65669 -0.00993637 0
0.0094534 -7.84851 0
1.7382 -8.64446 0
0.949722 -7.76377 0
-4.03885 -2.40738 0
-3.48605 -1.39051 0
-3.2951 -4.80596 0
-3.26593 -3.26896 0
-1.37786 -6.67603 0
-0.507813 -7.02521 0
-1.97601 -5.53793 0
2.63786 -9.60831 0
-5.50796 2.03647 0
-6.09553 3.07248 0
-6.10566 4.87029 0
-5.76195 3.99218 0
-5.76182 6.71784 0
-5.45273 5.62003 0
-4.94982 8.70991 0
-4.83891 7.40526 0
-3.50178 -0.423357 0
-4.44953 1.24971 0
-3.71158 0.59304 0
-4.06263 2.32041 0
-3.77672 9.28817 0
2.86208 -8.33341 0
0.420433 -6.79577 0
2.02264 -7.52574 0
1.30656 -6.90603 0
-2.44428 -0.87468 0
-2.83865 -2.13245 0
-2.29448 -4.09866 0
-2.32586 -2.97491 0
-0.442311 -5.86205 0
-1.22253 -4.49999 0
3.87603 -9.18746 0
-4.79037 3.39269 0
-5.08814 4.59494 0
-4.64765 6.28219 0
-4.53932 5.36053 0
-3.84362 7.99415 0
-3.8265 6.84633 0
-2.78396 8.42356 0
-1.64865 -0.1385 0
-1.4499 -0.891457 0
-2.48797 0.507862 0
-3.25333 1.44522 0
-3.23911 3.31713 0
-2.91082 2.37269 0
-1.35437 0.626849 0
-2.53776 9.70746 0
3.93274 -7.88718 0
2.96474 -7.15761 0
0.953624 -5.82271 0
2.07383 -6.41602 0
-1.68336 -1.99313 0
-1.43473 -3.27897 0
0.0904959 -4.74795 0
-0.565874 -3.69542 0
4.93219 -7.31882 0
5.04918 -8.60878 0
-3.7773 4.5526 0
-3.73556 5.75281 0
-2.88691 7.29001 0
-3.01056 6.35413 0
-1.66341 8.73432 0
-1.9391 7.61957 0
-2.33803 4.05214 0
-0.730012 -1.32818 0
-0.836569 -0.258177 0
-1.9358 1.68129 0
-2.12551 2.87673 0
-1.30637 3.54549 0
-0.868914 1.35119 0
-0.281637 0.455945 0
-0.534257 8.87234 0
-1.25507 9.9628 0
1.11269 -4.57562 0
3.91005 -6.71741 0
2.98762 -6.09538 0
2.11745 -5.42555 0
4.78482 -6.20567 0
-0.559112 -2.4779 0
0.49516 -3.46461 0
0.0538748 -1.61123 0
1.48223 -3.68289 0
5.86776 -6.61466 0
6.13637 -7.88204 0
-2.4759 5.34952 0
-2.13127 6.53496 0
-0.903115 7.80413 0
-1.27134 6.93267 0
0.087251 7.88121 0
-1.14441 4.49538 0
0.150627 -0.618005 0
-0.797462 2.48954 0
-0.331464 3.6016 0
0.0634808 1.513 0
0.742062 0.473185 0
0.646076 8.8751 0
0.0498863 10.048 0
2.38097 -4.2861 0
3.85907 -5.64113 0
3.00121 -5.21345 0
5.57366 -5.49253 0
4.6907 -5.28349 0
0.629928 -2.29433 0
1.25631 -2.9519 0
0.757729 -1.39215 0
2.16452 -3.13634 0
2.99413 -3.47734 0
6.15538 -4.79268 0
6.65684 -5.76947 0
7.11988 -7.01972 0
-1.02011 5.82071 0
-0.371546 6.88424 0
1.12388 7.77025 0
0.559096 7.08032 0
0.000101249 4.72605 0
0.607495 3.82897 0
1.33992 -0.642052 0
0.539631 2.65214 0
0.966528 1.57509 0
1.91084 0.213474 0
1.616 1.06538 0
2.13072 7.58459 0
1.79855 8.71344 0
1.35514 9.96271 0
3.8226 -4.35222 0
5.11695 -4.44905 0
5.84669 -3.93549 0
3.78389 -3.20134 0
1.81275 -1.88332 0
3.01915 -2.57458 0
6.78456 -3.94829 0
7.38216 -4.89813 0
7.98309 -6.03724 0
0.483163 5.88199 0
1.42924 6.74236 0
2.37481 6.67052 0
1.21054 4.55736 0
1.48884 3.39875 0
2.43598 -0.692485 0
2.82875 0.142027 0
1.78974 2.16353 0
2.61281 1.15015 0
3.07283 7.17174 0
2.9052 8.37857 0
2.63807 9.70713 0
4.91216 -3.32824 0
6.12198 -3.10891 0
4.17386 -2.2759 0
3.24537 -1.50361 0
6.73234 -2.31375 0
7.23311 -3.04346 0
7.96645 -3.91384 0
8.70952 -4.94965 0
2.02392 5.60112 0
3.08739 6.155 0
2.36466 4.12783 0
2.42088 3.06199 0
3.52598 -0.461394 0
3.61657 0.612827 0
2.96272 2.28899 0
3.54649 1.5255 0
4.01322 5.8996 0
3.98571 6.79512 0
3.9741 7.94109 0
3.87684 9.28813 0
5.57017 -1.91701 0
4.51053 -1.13006 0
6.71558 -1.33679 0
7.59474 -2.03666 0
8.39951 -2.8629 0
9.28833 -3.77683 0
3.4195 4.87835 0
3.3399 3.38635 0
4.69264 0.129879 0
4.5199 1.31009 0
4.06571 2.44387 0
4.57158 5.15412 0
4.84521 6.19284 0
4.98161 7.3831 0
5.04976 8.70919 0
5.88498 -0.435432 0
7.01264 -0.488356 0
7.76163 -1.08542 0
8.68737 -1.74589 0
9.70822 -2.53769 0
4.55301 3.82884 0
5.81888 1.0986 0
5.37229 2.53538 0
5.38108 4.62221 0
5.61378 5.52572 0
5.89952 6.67404 0
6.13637 7.9822 0
6.84794 0.463413 0
7.85636 -0.0253183 0
8.86321 -0.583856 0
9.96327 -1.25514 0
6.96248 1.34967 0
5.72237 3.77946 0
6.54329 2.19787 0
6.38188 3.0888 0
6.29441 4.68898 0
6.6945 5.84023 0
7.12021 7.12022 0
7.78745 0.968276 0
8.86304 0.572287 0
10.0493 0.050127 0
7.61935 2.00506 0
6.83102 3.90539 0
7.27203 2.94753 0
7.38111 4.88705 0
7.98204 6.13641 0
8.72645 1.72692 0
9.96302 1.35502 0
8.42399 2.83828 0
7.98368 3.91765 0
8.70908 5.04927 0
9.70726 2.63765 0
9.28697 3.87613 0
CELLS 542 2168
3 2 0 4
3 0 1 7
3 4 0 7
3 1 5 8
3 7 1 8
3 3 2 13
3 13 2 4
3 11 3 14
3 14 3 13
3 13 4 15
3 4 7 16
3 15 4 16
3 5 6 17
3 8 5 17
3 6 9 18
3 17 6 18
3 7 8 19
3 16 7 19
3 8 17 20
3 19 8 20
3 9 10 23
3 18 9 23
3 10 21 24
3 23 10 24
3 12 11 25
3 25 11 14
3 26 12 27
3 27 12 25
3 14 13 29
3 29 13 15
3 25 14 30
3 30 14 29
3 29 15 31
3 15 16 33
3 31 15 33
3 16 19 34
3 33 16 34
3 17 18 35
3 20 17 35
3 18 23 36
3 35 18 36
3 19 20 37
3 34 19 37
3 20 35 38
3 37 20 38
3 21 22 39
3 24 21 39
3 22 32 40
3 39 22 40
3 23 24 41
3 36 23 41
3 24 39 42
3 41 24 42
3 27 25 44
3 44 25 30
3 28 26 45
3 45 26 27
3 45 27 46
3 46 27 44
3 47 28 48
3 48 28 45
3 30 29 50
3 50 29 31
3 44 30 51
3 51 30 50
3 50 31 52
3 31 33 52
3 32 43 53
3 40 32 53
3 53 43 54
3 33 34 55
3 34 37 55
3 33 55 52
3 35 36 56
3 38 35 56
3 36 41 57
3 56 36 57
3 37 38 58
3 38 56 58
3 37 58 55
3 39 40 59
3 42 39 59
3 40 53 60
3 59 40 60
3 41 42 61
3 57 41 61
3 42 59 62
3 61 42 62
3 43 63 54
3 46 44 64
3 64 44 51
3 48 45 65
3 65 45 46
3 65 46 66
3 66 46 64
3 49 47 67
3 67 47 48
3 67 48 68
3 68 48 65
3 69 49 70
3 70 49 67
3 52 55 72
3 64 51 73
3 51 50 73
3 50 52 73
3 73 52 74
3 74 52 72
3 53 54 75
3 60 53 75
3 54 63 76
3 54 76 77
3 75 54 77
3 55 58 78
3 72 55 78
3 72 78 79
3 56 57 80
3 57 61 80
3 56 80 58
3 58 80 81
3 78 58 81
3 59 60 82
3 62 59 82
3 60 75 83
3 82 60 83
3 61 62 84
3 62 82 84
3 61 84 80
3 63 85 76
3 66 64 86
3 64 73 86
3 68 65 87
3 87 65 66
3 87 66 86
3 70 67 88
3 88 67 68
3 88 68 89
3 89 68 87
3 71 69 90
3 90 69 70
3 90 70 91
3 91 70 88
3 92 71 93
3 93 71 90
3 74 72 94
3 94 72 79
3 86 73 95
3 95 73 74
3 95 74 96
3 96 74 94
3 97 86 95
3 76 85 99
3 75 77 100
3 83 75 100
3 76 99 101
3 77 76 101
3 77 101 102
3 100 77 102
3 94 79 103
3 78 81 104
3 79 78 104
3 79 104 103
3 80 84 105
3 81 80 105
3 81 105 106
3 104 81 106
3 82 83 107
3 83 100 107
3 82 107 84
3 84 107 108
3 105 84 108
3 85 109 99
3 89 87 110
3 87 86 110
3 110 86 97
3 91 88 111
3 111 88 89
3 111 89 110
3 93 90 112
3 112 90 91
3 112 91 113
3 113 91 111
3 98 92 114
3 114 92 93
3 114 93 115
3 115 93 112
3 116 98 114
3 117 103 118
3 96 94 119
3 94 103 119
3 119 103 117
3 97 95 120
3 120 95 96
3 120 96 119
3 121 110 97
3 121 97 122
3 122 97 120
3 123 119 117
3 124 98 116
3 99 109 125
3 99 125 126
3 101 99 126
3 100 102 127
3 100 127 107
3 101 126 128
3 102 101 128
3 102 128 127
3 104 106 129
3 104 129 103
3 103 129 118
3 105 108 130
3 106 105 130
3 106 130 129
3 107 127 131
3 108 107 131
3 108 131 132
3 108 132 130
3 109 134 125
3 125 134 133
3 113 111 135
3 111 110 135
3 135 110 121
3 115 112 136
3 136 112 113
3 136 113 135
3 116 114 137
3 137 114 115
3 137 115 138
3 138 115 136
3 139 124 116
3 139 116 140
3 140 116 137
3 141 135 121
3 118 129 142
3 118 142 143
3 117 118 143
3 123 117 143
3 122 120 144
3 120 119 144
3 144 119 123
3 141 121 145
3 145 121 122
3 145 122 144
3 146 141 145
3 147 144 123
3 147 123 148
3 143 148 123
3 150 124 139
3 149 150 139
3 131 127 151
3 125 133 152
3 126 125 152
3 126 152 153
3 128 126 153
3 128 153 154
3 128 154 127
3 127 154 151
3 152 133 155
3 130 132 156
3 130 156 129
3 129 156 142
3 131 151 157
3 132 131 157
3 132 157 156
3 156 158 142
3 157 151 159
3 133 160 155
3 134 161 133
3 133 161 160
3 138 136 162
3 136 135 162
3 162 135 141
3 140 137 163
3 163 137 138
3 163 138 162
3 149 139 164
3 164 139 140
3 164 140 165
3 165 140 163
3 166 149 164
3 167 162 141
3 167 141 146
3 142 158 168
3 143 142 168
3 143 168 148
3 146 145 169
3 145 144 169
3 169 144 147
3 170 167 146
3 170 146 169
3 171 169 147
3 171 147 148
3 171 148 172
3 168 172 148
3 173 149 166
3 174 150 149
3 173 174 149
3 154 175 151
3 151 175 159
3 152 155 176
3 153 152 176
3 153 176 177
3 153 177 154
3 154 177 175
3 155 160 178
3 155 178 179
3 176 155 179
3 156 157 180
3 156 180 158
3 157 159 181
3 157 181 180
3 158 180 182
3 158 182 168
3 159 175 183
3 159 183 181
3 175 184 183
3 160 186 178
3 178 186 185
3 161 187 160
3 160 187 186
3 165 163 188
3 163 162 188
3 188 162 167
3 166 164 189
3 189 164 165
3 189 165 188
3 190 173 166
3 190 166 191
3 191 166 189
3 192 188 167
3 192 167 170
3 193 192 170
3 182 194 168
3 194 172 168
3 193 170 195
3 170 169 195
3 195 169 171
3 196 195 171
3 196 171 172
3 194 197 172
3 197 198 172
3 198 196 172
3 200 173 190
3 199 200 190
3 201 174 173
3 200 201 173
3 176 179 202
3 177 176 202
3 177 202 175
3 175 202 184
3 178 185 203
3 178 203 179
3 179 203 202
3 203 185 204
3 202 205 184
3 183 206 181
3 180 181 206
3 180 206 182
3 182 206 194
3 183 184 207
3 205 207 184
3 183 207 206
3 185 208 204
3 186 209 185
3 185 209 208
3 187 210 186
3 186 210 209
3 191 189 211
3 189 188 211
3 211 188 192
3 199 190 212
3 212 190 191
3 212 191 211
3 213 199 212
3 214 211 192
3 214 192 193
3 215 214 193
3 215 193 195
3 206 216 194
3 216 197 194
3 216 217 197
3 215 195 218
3 218 195 196
3 198 218 196
3 217 219 197
3 219 218 198
3 197 219 198
3 220 199 213
3 221 200 199
3 220 221 199
3 222 201 200
3 221 222 200
3 203 204 223
3 203 223 202
3 202 223 205
3 204 208 224
3 204 224 223
3 205 223 225
3 205 225 207
3 207 225 226
3 207 226 206
3 226 216 206
3 208 228 224
3 224 228 227
3 209 229 208
3 229 228 208
3 210 230 209
3 209 230 229
3 213 212 231
3 212 211 231
3 231 211 214
3 232 220 213
3 232 213 231
3 233 231 214
3 233 214 215
3 234 233 215
3 234 215 218
3 226 235 216
3 235 217 216
3 235 236 217
3 217 236 219
3 237 234 218
3 237 218 219
3 236 238 219
3 238 237 219
3 240 220 232
3 239 240 232
3 241 221 220
3 240 241 220
3 242 222 221
3 241 242 221
3 224 227 243
3 224 243 223
3 223 243 225
3 225 243 244
3 225 244 226
3 226 244 235
3 227 245 243
3 228 246 227
3 227 246 245
3 229 247 228
3 228 247 246
3 230 248 229
3 229 248 247
3 239 232 249
3 232 231 249
3 249 231 233
3 250 249 233
3 250 233 234
3 237 250 234
3 244 251 235
3 235 251 236
3 251 252 236
3 236 252 238
3 252 253 238
3 253 250 237
3 253 237 238
3 254 239 249
3 255 240 239
3 254 255 239
3 256 241 240
3 255 256 240
3 257 242 241
3 256 257 241
3 245 258 243
3 243 258 244
3 244 258 251
3 245 259 258
3 246 260 245
3 245 260 259
3 247 261 246
3 246 261 260
3 248 262 247
3 247 262 261
3 254 249 263
3 263 249 250
3 253 263 250
3 258 264 251
3 251 264 252
3 264 265 252
3 265 263 253
3 252 265 253
3 266 254 263
3 267 255 254
3 266 267 254
3 268 256 255
3 267 268 255
3 269 257 256
3 268 269 256
3 259 270 258
3 270 264 258
3 260 271 259
3 259 271 270
3 261 272 260
3 260 272 271
3 262 273 261
3 273 272 261
3 270 274 264
3 275 266 263
3 275 263 265
3 274 276 264
3 276 265 264
3 276 277 265
3 277 275 265
3 278 267 266
3 275 278 266
3 279 268 267
3 278 279 267
3 280 269 268
3 279 280 268
3 271 281 270
3 270 281 274
3 272 282 271
3 271 282 281
3 273 283 272
3 272 283 282
3 281 284 274
3 274 284 276
3 285 278 275
3 277 285 275
3 284 286 276
3 286 285 277
3 276 286 277
3 287 279 278
3 285 287 278
3 288 280 279
3 287 288 279
3 282 289 281
3 281 289 284
3 283 290 282
3 282 290 289
3 289 291 284
3 284 291 286
3 291 292 286
3 292 287 285
3 286 292 285
3 293 288 287
3 292 293 287
3 290 294 289
3 289 294 291
3 294 295 291
3 295 293 292
3 291 295 292
CELL_TYPES 542
5
5
5
5
5
5
5
5
5
5
5
5
5
5
5
5
5
5
5
5
5
5
5
5
5
5
5
5
5
5
5
5
5
5
5
5
5
5
5
5
5
5
5
5
5
5
5
5
5
5
5
5
5
5
5
5
5
5
5
5
5
5
5
5
5
5
5
5
5
5
5
5
5
5
5
5
5
5
5
5
5
5
5
5
5
5
5
5
5
5
5
5
5
5
5
5
5
5
5
5
5
5
5
5
5
5
5
5
5
5
5
5
5
5
5
5
5
5
5
5
5
5
5
5
5
5
5
5
5
5
5
5
5
5
5
5
5
5
5
5
5
5
5
5
5
5
5
5
5
5
5
5
5
5
5
5
5
5
5
5
5
5
5
5
5
5
5
5
5
5
5
5
5
5
5
5
5
5
5
5
5
5
5
5
5
5
5
5
5
5
5
5
5
5
5
5
5
5
5
5
5
5
5
5
5
5
5
5
5
5
5
5
5
5
5
5
5
5
5
5
5
5
5
5
5
5
5
5
5
5
5
5
5
5
5
5
5
5
5
5
5
5
5
5
5
5
5
5
5
5
5
5
5
5
5
5
5
5
5
5
5
5
5
5
5
5
5
5
5
5
5
5
5
5
5
5
5
5
5
5
5
5
5
5
5
5
5
5
5
5
5
5
5
5
5
5
5
5
5
5
5
5
5
5
5
5
5
5
5
5
5
5
5
5
5
5
5
5
5
5
5
5
5
5
5
5
5
5
5
5
5
5
5
5
5
5
5
5
5
5
5
5
5
5
5
5
5
5
5
5
5
5
5
5
5
5
5
5
5
5
5
5
5
5
5
5
5
5
5
5
5
5
5
5
5
5
5
5
5
5
5
5
5
5
5
5
5
5
5
5
5
5
5
5
5
5
5
5
5
5
5
5
5
5
5
5
5
5
5
5
5
5
5
5
5
5
5
5
5
5
5
5
5
5
5
5
5
5
5
5
5
5
5
5
5
5
5
5
5
5
5
5
5
5
5
5
5
5
5
5
5
5
5
5
5
5
5
5
5
5
5
5
5
5
5
5
5
5
5
5
5
5
5
5
5
5
5
5
5
5
5
5
5
5
5
5
5
5
5
5
5
5
5
5
5
5
5
5
5
5
5
5
5
5
5
5
5
5
5
5
5
5
5
5
5
5
5
5
5
5
5
5
5
5
5
5
5
5
5
5
5
5
5
5
5
5
5
5
5
5
5
5
POINT_DATA 296
SCALARS concentrations float 4
LOOKUP_TABLE default
0 0.999717 0.113021 5.04093
0 0.999742 0.113407 0.71937
0 0.999741 0.112043 3.78375
0 0.999767 0.111806 2.48257
0 0.999728 0.0926578 0.313128
0 0.999747 0.110647 5.76249
0 0.999779 0.111549 0.69705
0 0.999732 0.0926488 -0.125477
0 0.999747 0.092341 -0.524276
0 0.999778 0.113449 3.315
0 0.999718 0.111721 7.74965
0 0.999746 0.115898 6.48152
0 0.999747 0.114152 2.45576
0 0.999751 0.0921995 0.249878
0 0.999756 0.092101 0.0614501
0 0.999735 0.0929236 0.206656
0 0.999731 0.0927586 0.11302
0 0.999756 0.0917619 -0.500917
0 0.999768 0.0927453 -0.925636
0 0.99974 0.0927082 -0.203323
0 0.999743 0.0925231 -0.179493
0 0.999654 0.113967 6.04561
0 0.99965 0.111788 3.56718
0 0.99974 0.0931021 -0.816258
0 0.999697 0.0928175 -0.0998399
0 0.999739 0.092244 0.0266674
0 0.999674 0.114417 4.70719
0 0.999734 0.0925019 -0.139557
0 0.999635 0.110818 8.05563
0 0.999743 0.0922031 0.154302
0 0.999733 0.0925856 0.101736
0 0.999729 0.0922726 0.146507
0 0.999695 0.114166 5.05062
0 0.999726 0.0921538 -0.125731
0 0.999731 0.0931699 -0.287143
0 0.999738 0.0926594 -0.378758
0 0.999725 0.0925715 -0.442744
0 0.999733 0.0926971 -0.00473454
0 0.999727 0.0927178 0.17362
0 0.999685 0.0943315 -1.36012
0 0.999706 0.0933184 0.179352
0 0.99972 0.0940149 -1.05508
0 0.999705 0.0933994 0.318917
0 0.999749 0.110959 3.94657
0 0.999738 0.0923937 -0.227384
0 0.999668 0.0925071 0.384884
0 0.999736 0.0931503 -0.0485034
0 0.999698 0.112223 4.37971
0 0.999688 0.09213 0.201152
0 0.9997 0.112353 7.1167
0 0.99973 0.0928245 0.0731086
0 0.999733 0.0924751 -0.200514
0 0.999732 0.0927909 0.0168269
0 0.999734 0.0935281 -0.829762
0 0.99975 0.0922165 -0.326704
0 0.99973 0.0927746 0.0272925
0 0.999709 0.0931643 0.536858
0 0.999714 0.0937774 0.576508
0 0.999722 0.0933127 -0.868965
0 0.999736 0.0971166 -1.5483
0 0.999759 0.0942717 0.654046
0 0.999734 0.0935216 -0.639768
0 0.999731 0.0971622 -0.186202
0 0.999747 0.11259 7.58531
0 0.999738 0.0932821 0.35048
0 0.999717 0.0931161 -0.248311
0 0.999731 0.0934237 0.305745
0 0.999709 0.0920295 -0.0377458
0 0.999714 0.0925843 0.0953461
0 0.999712 0.11356 3.97228
0 0.999711 0.0918699 -0.247279
0 0.999712 0.113186 6.19988
0 0.999737 0.0929448 -0.277259
0 0.999739 0.0931857 -0.112295
0 0.999739 0.0928546 0.306229
0 0.99975 0.0927617 -0.290208
0 0.999727 0.0921652 0.452403
0 0.999731 0.0929327 -0.282608
0 0.999741 0.0927886 -0.422228
0 0.999749 0.0929359 0.756655
0 0.999727 0.0961465 0.843418
0 0.999737 0.093175 -0.487024
0 0.999757 0.098096 -2.54965
0 0.999754 0.0929775 -0.146014
0 0.999752 0.0947146 0.0620882
0 0.999693 0.11342 6.93999
0 0.999733 0.0939405 0.0126028
0 0.999727 0.0929343 0.143272
0 0.999715 0.0924191 -0.424293
0 0.999729 0.0937721 -0.325095
0 0.99972 0.0922883 -0.679587
0 0.99972 0.0926756 -0.814732
0 0.999712 0.111749 5.84632
0 0.99972 0.0929044 -1.16638
0 0.999742 0.0922098 0.557466
0 0.999742 0.0933334 0.39377
0 0.999738 0.0926587 0.473404
0 0.999732 0.093729 -1.34997
0 0.999755 0.118557 5.84589
0 0.999703 0.0928274 1.03781
0 0.999734 0.0934076 -0.284888
0 0.999741 0.0940564 -1.43771
0 0.999734 0.093342 0.266696
0 0.999749 0.092371 -0.875369
0 0.999751 0.0930118 -0.647334
0 0.999744 0.0942119 -0.816476
0 0.999747 0.0934976 -0.99747
0 0.999736 0.0944161 -0.31154
0 0.999749 0.0944806 0.494337
0 0.999687 0.111835 2.46848
0 0.999729 0.0928088 -0.0375755
0 0.999723 0.0936499 -0.151888
0 0.999732 0.0931438 -1.23312
0 0.999722 0.0932709 -1.19238
0 0.999726 0.0934384 1.59349
0 0.999731 0.0939422 1.79059
0 0.99975 0.0936083 -1.16691
0 0.999762 0.0923291 -1.22086
0 0.999754 0.093077 -1.25079
0 0.999754 0.0929592 -0.0970384
0 0.99974 0.0932218 0.326837
0 0.999724 0.0926834 -0.658796
0 0.999729 0.09305 -1.21935
0 0.999783 0.0938992 -1.28149
0 0.999762 0.111989 7.24261
0 0.999719 0.0946791 -2.0272
0 0.999751 0.0954335 -2.2959
0 0.999721 0.0933116 -0.26227
0 0.999753 0.0929682 0.528473
0 0.999746 0.0932948 -0.823608
0 0.999749 0.0941571 -1.12363
0 0.999724 0.0943757 -0.19079
0 0.99974 0.0945491 0.309363
0 0.999731 0.0948063 -3.11175
0 0.999727 0.111119 2.50085
0 0.999727 0.0935786 -0.845764
0 0.999731 0.0939462 -1.28168
0 0.99972 0.0936387 2.11672
0 0.999723 0.0940315 -1.33331
0 0.99972 0.093247 -1.2243
0 0.999721 0.0934508 2.0759
0 0.999728 0.0937329 0.435574
0 0.999747 0.0940483 -0.302333
0 0.999765 0.0932572 -1.5274
0 0.999752 0.0950295 -0.112196
0 0.999736 0.093205 -1.4389
0 0.999748 0.0935808 -1.08524
0 0.999771 0.0948399 0.149075
0 0.999778 0.0942174 -1.91583
0 0.999709 0.0925057 -1.05653
0 0.999704 0.11378 5.2918
0 0.999726 0.0941262 -0.457289
0 0.99973 0.0952038 -1.81028
0 0.999747 0.0934691 0.960271
0 0.99973 0.0931442 -0.0536312
0 0.99973 0.0944789 -1.43653
0 0.999733 0.0946323 -1.11385
0 0.999732 0.0941537 -0.0217315
0 0.999747 0.0963316 -1.81672
0 0.999745 0.0942013 -0.190394
0 0.999755 0.0943812 -2.74859
0 0.999747 0.111261 4.40212
0 0.999729 0.0938713 -1.06468
0 0.999718 0.093857 -1.5578
0 0.999722 0.0930264 1.18928
0 0.999726 0.0939772 2.03438
0 0.999742 0.092929 1.13591
0 0.999745 0.0931493 -0.702666
0 0.999764 0.09575 -1.67068
0 0.999748 0.0959685 -0.102034
0 0.999756 0.093806 -1.75744
0 0.999754 0.0952414 0.0442786
0 0.999755 0.093472 -1.40201
0 0.999744 0.0924634 -0.962122
0 0.999727 0.113199 6.81839
0 0.999733 0.0939999 -0.0681327
0 0.999731 0.0935702 1.20864
0 0.999733 0.0934729 0.427536
0 0.999739 0.0929055 1.32051
0 0.999732 0.0932109 1.16384
0 0.999722 0.0947295 0.568298
0 0.999717 0.0941294 -0.289215
0 0.999751 0.095038 -0.870756
0 0.999733 0.0942692 -1.17486
0 0.999737 0.0943614 -0.440824
0 0.999736 0.0939147 1.75565
0 0.999765 0.0940823 -2.01677
0 0.999776 0.116564 3.92344
0 0.999735 0.0934896 0.536465
0 0.999738 0.094009 2.0942
0 0.999753 0.0934436 1.82481
0 0.999752 0.0940301 2.39664
0 0.999745 0.0934719 -0.187186
0 0.999739 0.0930343 -0.907221
0 0.999765 0.0946702 1.40085
0 0.999739 0.0937835 -0.594996
0 0.999748 0.0948464 0.691662
0 0.999759 0.0968657 1.14612
0 0.99973 0.0938603 1.31021
0 0.999744 0.0928568 0.998277
0 0.999725 0.0919229 -0.595168
0 0.99974 0.112286 1.88024
0 0.999725 0.0929478 0.217567
0 0.999724 0.0936637 -1.57796
0 0.999726 0.0933243 -0.942964
0 0.999716 0.0947017 0.591245
0 0.999736 0.0968767 -2.30418
0 0.999734 0.095568 0.838337
0 0.99974 0.0934171 -1.02592
0 0.999745 0.0925143 1.12569
0 0.999769 0.11603 1.18095
0 0.999737 0.0928279 1.75091
0 0.999751 0.0943545 2.73968
0 0.999744 0.0945178 -1.66378
0 0.999727 0.0929233 -0.773644
0 0.999731 0.0925777 0.264671
0 0.999768 0.0949303 -1.15329
0 0.999756 0.0989417 -2.00531
0 0.999741 0.0940755 -0.116513
0 0.999738 0.0952786 -1.10315
0 0.999743 0.0932803 -0.243681
0 0.999727 0.0921279 -0.148636
0 0.99971 0.112116 5.4375
0 0.999714 0.0929321 -0.127805
0 0.999728 0.0945938 -1.64989
0 0.999728 0.0935661 1.1137
0 0.999745 0.0954051 1.77683
0 0.999736 0.0946774 0.37085
0 0.999741 0.0939524 0.549382
0 0.999728 0.0925491 0.744603
0 0.999725 0.110254 7.74488
0 0.999732 0.095047 -1.94683
0 0.99974 0.0925516 0.878777
0 0.999734 0.0944109 1.10686
0 0.999742 0.0926872 -0.401337
0 0.999742 0.0934585 0.0826696
0 0.999731 0.0977162 -2.15476
0 0.999734 0.0931348 -0.545646
0 0.999726 0.0960703 2.08279
0 0.999748 0.0928326 1.46238
0 0.999749 0.0917499 0.57916
0 0.999762 0.0927372 -0.832626
0 0.999751 0.110967 7.42314
0 0.999731 0.0984951 2.02832
0 0.999745 0.0928199 0.680832
0 0.99974 0.0950811 0.922875
0 0.999737 0.0944425 -0.632979
0 0.999708 0.0927307 0.64258
0 0.999701 0.112969 3.6051
0 0.999737 0.0942714 -1.49254
0 0.999739 0.0927376 0.841471
0 0.999729 0.092601 0.148117
0 0.999714 0.0937613 0.975155
0 0.999719 0.0964097 -1.15178
0 0.999735 0.093654 -0.0690929
0 0.999748 0.0928026 1.35236
0 0.999773 0.0921398 0.167595
0 0.99979 0.116242 2.15276
0 0.999734 0.0939328 -1.08009
0 0.999727 0.0937576 0.707259
0 0.999731 0.0933502 0.65282
0 0.999704 0.0926203 -0.00883268
0 0.99968 0.115236 6.37162
0 0.999723 0.0941637 -0.8614
0 0.999715 0.0922923 0.130425
0 0.999719 0.095334 3.2134
0 0.999725 0.0939381 -1.50587
0 0.999727 0.0932648 0.123729
0 0.999733 0.093217 1.16655
0 0.999761 0.112789 3.30182
0 0.99972 0.092456 0.387998
0 0.999724 0.0933815 -0.281538
0 0.999702 0.092521 0.0561542
0 0.999676 0.113809 4.30112
0 0.999718 0.0933011 0.76706
0 0.999729 0.0927039 0.514917
0 0.999721 0.0930698 1.00208
0 0.999729 0.0934253 0.539135
0 0.999719 0.0942182 0.69418
0 0.999715 0.0930895 -0.958773
0 0.999712 0.115286 3.69471
0 0.999728 0.0931472 0.116032
0 0.999742 0.0926356 -0.174848
0 0.999713 0.115393 5.85204
0 0.99973 0.0940918 1.74286
0 0.999728 0.094239 0.689948
0 0.99974 0.0956828 2.72714
0 0.999716 0.0946687 1.30856
0 0.999712 0.110732 7.4397
0 0.999753 0.0925761 -0.0639119
0 0.999769 0.11445 3.00296
0 0.999775 0.0926046 -0.687876
0 0.999765 0.0926368 0.452519
0 0.999744 0.112058 3.4065
0 0.999784 0.11048 1.10054
0 0.999802 0.111832 1.81215
VECTORS fa_u float
0.00609523 0.00252478 -0
0.00560617 0.00323752 -0
0.00621477 0.00166617 -0
0.00657172 0.000865803 -0
1e-08 0 0
0.00517117 0.00396604 -0
0.00460882 0.0046058 -0
1e-08 0 0
1e-08 0 0
0.00398959 0.0051963 -0
0.00324298 0.00561204 -0
0.00642411 7.15474e-07 -0
0.00657639 -0.000865068 0
1e-08 0 0
1e-08 0 0
1e-08 0 0
1e-08 0 0
1e-08 0 0
1e-08 0 0
1e-08 0 0
1e-08 0 0
0.00253586 0.00612 -0
0.00168684 0.00630459 -0
1e-08 0 0
1e-08 0 0
1e-08 0 0
0.00625196 -0.00167624 0
1e-08 0 0
0.00601464 -0.00248987 0
1e-08 0 0
1e-08 0 0
1e-08 0 0
0.000846836 0.00644373 -0
1e-08 0 0
1e-08 0 0
1e-08 0 0
1e-08 0 0
1e-08 0 0
1e-08 0 0
1e-08 0 0
1e-08 0 0
1e-08 0 0
1e-08 0 0
-4.5041e-07 0.0065244 -0
1e-08 0 0
1e-08 0 0
1e-08 0 0
0.00574969 -0.00332164 0
1e-08 0 0
0.00506573 -0.00388801 0
1e-08 0 0
1e-08 0 0
1e-08 0 0
1e-08 0 0
1e-08 0 0
1e-08 0 0
1e-08 0 0
1e-08 0 0
1e-08 0 0
1e-08 0 0
1e-08 0 0
1e-08 0 0
1e-08 0 0
-0.000848244 0.00644601 0
1e-08 0 0
1e-08 0 0
1e-08 0 0
1e-08 0 0
1e-08 0 0
0.00465105 -0.00464772 0
1e-08 0 0
0.00394915 -0.00514316 0
1e-08 0 0
1e-08 0 0
1e-08 0 0
1e-08 0 0
1e-08 0 0
1e-08 0 0
1e-08 0 0
1e-08 0 0
1e-08 0 0
1e-08 0 0
1e-08 0 0
1e-08 0 0
1e-08 0 0
-0.00170516 0.00636148 0
1e-08 0 0
1e-08 0 0
1e-08 0 0
1e-08 0 0
1e-08 0 0
1e-08 0 0
0.00330048 -0.00571405 0
1e-08 0 0
1e-08 0 0
1e-08 0 0
1e-08 0 0
1e-08 0 0
0.00252287 -0.00610022 0
1e-08 0 0
1e-08 0 0
1e-08 0 0
1e-08 0 0
1e-08 0 0
1e-08 0 0
1e-08 0 0
1e-08 0 0
1e-08 0 0
1e-08 0 0
-0.00248816 0.0060026 0
1e-08 0 0
1e-08 0 0
1e-08 0 0
1e-08 0 0
1e-08 0 0
1e-08 0 0
1e-08 0 0
1e-08 0 0
1e-08 0 0
1e-08 0 0
1e-08 0 0
1e-08 0 0
1e-08 0 0
1e-08 0 0
0.0016597 -0.00620366 0
1e-08 0 0
1e-08 0 0
1e-08 0 0
1e-08 0 0
1e-08 0 0
1e-08 0 0
1e-08 0 0
1e-08 0 0
1e-08 0 0
-0.00326902 0.00566031 0
1e-08 0 0
1e-08 0 0
1e-08 0 0
1e-08 0 0
1e-08 0 0
1e-08 0 0
1e-08 0 0
1e-08 0 0
1e-08 0 0
1e-08 0 0
1e-08 0 0
1e-08 0 0
1e-08 0 0
1e-08 0 0
1e-08 0 0
0.000857008 -0.00651273 0
1e-08 0 0
1e-08 0 0
1e-08 0 0
1e-08 0 0
1e-08 0 0
1e-08 0 0
1e-08 0 0
1e-08 0 0
1e-08 0 0
1e-08 0 0
-0.00395517 0.00515396 0
1e-08 0 0
1e-08 0 0
1e-08 0 0
1e-08 0 0
1e-08 0 0
1e-08 0 0
1e-08 0 0
1e-08 0 0
1e-08 0 0
1e-08 0 0
1e-08 0 0
1e-08 0 0
-2.21544e-07 -0.00647855 0
1e-08 0 0
1e-08 0 0
1e-08 0 0
1e-08 0 0
1e-08 0 0
1e-08 0 0
1e-08 0 0
1e-08 0 0
1e-08 0 0
1e-08 0 0
1e-08 0 0
1e-08 0 0
-0.00455642 0.00456117 0
1e-08 0 0
1e-08 0 0
1e-08 0 0
1e-08 0 0
1e-08 0 0
1e-08 0 0
1e-08 0 0
1e-08 0 0
1e-08 0 0
1e-08 0 0
1e-08 0 0
1e-08 0 0
1e-08 0 0
-0.00085876 -0.0065209 0
1e-08 0 0
1e-08 0 0
1e-08 0 0
1e-08 0 0
1e-08 0 0
1e-08 0 0
1e-08 0 0
1e-08 0 0
-0.00526381 0.00404216 0
1e-08 0 0
1e-08 0 0
1e-08 0 0
1e-08 0 0
1e-08 0 0
1e-08 0 0
1e-08 0 0
1e-08 0 0
1e-08 0 0
1e-08 0 0
1e-08 0 0
-0.00165123 -0.00617262 0
1e-08 0 0
1e-08 0 0
1e-08 0 0
1e-08 0 0
1e-08 0 0
1e-08 0 0
1e-08 0 0
-0.00561102 0.00324001 0
1e-08 0 0
1e-08 0 0
1e-08 0 0
1e-08 0 0
1e-08 0 0
1e-08 0 0
1e-08 0 0
1e-08 0 0
1e-08 0 0
1e-08 0 0
1e-08 0 0
-0.00255115 -0.00616533 0
1e-08 0 0
1e-08 0 0
1e-08 0 0
1e-08 0 0
1e-08 0 0
-0.00610763 0.00252894 0
1e-08 0 0
1e-08 0 0
1e-08 0 0
1e-08 0 0
1e-08 0 0
1e-08 0 0
1e-08 0 0
1e-08 0 0
-0.00327901 -0.00567333 0
1e-08 0 0
1e-08 0 0
1e-08 0 0
1e-08 0 0
-0.00625714 0.00167475 0
1e-08 0 0
1e-08 0 0
1e-08 0 0
1e-08 0 0
1e-08 0 0
1e-08 0 0
-0.00390936 -0.00509394 0
1e-08 0 0
1e-08 0 0
1e-08 0 0
-0.0064304 0.000847576 0
1e-08 0 0
1e-08 0 0
1e-08 0 0
1e-08 0 0
1e-08 0 0
1e-08 0 0
-0.00468732 -0.00468704 0
1e-08 0 0
1e-08 0 0
-0.00662191 -6.33175e-07 0
1e-08 0 0
1e-08 0 0
1e-08 0 0
1e-08 0 0
-0.00510457 -0.0039163 0
1e-08 0 0
-0.00646084 -0.000854075 0
1e-08 0 0
1e-08 0 0
-0.00572488 -0.00330515 0
-0.00625093 -0.00167623 0
-0.00599953 -0.00248325 0
