# vtk DataFile Version 2.0
CellBP Time: 5.88
ASCII
DATASET UNSTRUCTURED_GRID
POINTS 296 double
-8.98631 -3.68264 0
-8.42501 -4.83848 0
-9.38208 -2.45807 0
-9.65508 -1.22013 0
-8.1423 -2.7296 0
-7.70713 -5.90807 0
-6.85652 -6.87497 0
-7.70254 -3.75661 0
-7.13882 -4.73404 0
-5.92164 -7.74175 0
-4.88283 -8.47301 0
-9.75888 0.0396313 0
-9.69835 1.32096 0
-8.4574 -1.63157 0
-8.61091 -0.50941 0
-7.38506 -1.93037 0
-7.01493 -2.80398 0
-6.47433 -5.65102 0
-5.70075 -6.47036 0
-6.587 -3.76626 0
-6.04646 -4.55115 0
-3.72894 -9.04008 0
-2.4983 -9.44273 0
-4.81869 -7.18858 0
-3.86211 -7.76916 0
-8.62525 0.6305 0
-9.47181 2.59944 0
-8.47454 1.7363 0
-9.06037 3.81979 0
-7.55842 -0.89177 0
-7.62074 0.087908 0
-6.77343 -1.26409 0
-1.22427 -9.68347 0
-6.27575 -2.08262 0
-6.14817 -2.96243 0
-5.39896 -5.35437 0
-4.68958 -5.99935 0
-5.50675 -3.65616 0
-5.12484 -4.45168 0
-2.82827 -8.2348 0
-1.75241 -8.49619 0
-3.85662 -6.61117 0
-3.02025 -7.04382 0
0.054291 -9.74772 0
-7.54369 1.11944 0
-8.21446 2.87011 0
-7.40353 2.05908 0
-8.45287 4.94965 0
-7.73795 3.8971 0
-7.6997 5.99447 0
-6.61769 -0.37364 0
-6.79607 0.548919 0
-5.64727 -0.976148 0
-0.582278 -8.64792 0
0.546567 -8.58721 0
-5.18324 -2.41512 0
-4.37477 -4.98461 0
-3.816 -5.66703 0
-4.33755 -3.72524 0
-2.03146 -7.43977 0
-1.11835 -7.65181 0
-2.94085 -5.99562 0
-2.27894 -6.51365 0
1.31876 -9.63606 0
-6.54855 1.38732 0
-7.02171 3.04102 0
-6.52175 2.31724 0
-7.14264 4.87631 0
-6.57916 3.90759 0
-6.8544 6.94835 0
-6.4274 5.75972 0
-5.90384 7.80667 0
-4.38721 -1.16812 0
-5.7036 0.494679 0
-4.58857 -0.025252 0
-0.00251685 -7.68568 0
1.68962 -8.43773 0
0.911291 -7.58433 0
-3.97415 -2.36426 0
-3.46091 -1.3818 0
-3.23136 -4.71827 0
-3.22586 -3.21738 0
-1.36792 -6.5544 0
-0.519473 -6.88447 0
-1.95256 -5.45043 0
2.57425 -9.38801 0
-5.40337 1.99923 0
-5.96778 2.99852 0
-5.9779 4.75162 0
-5.63802 3.88897 0
-5.62842 6.55937 0
-5.33222 5.48181 0
-4.86434 8.55402 0
-4.72618 7.22512 0
-3.46688 -0.420645 0
-4.37888 1.23088 0
-3.66253 0.586038 0
-3.99481 2.29759 0
-3.71997 9.12467 0
2.77466 -8.10877 0
0.380604 -6.63788 0
1.94697 -7.32783 0
1.2451 -6.73054 0
-2.42793 -0.865067 0
-2.81563 -2.1113 0
-2.26962 -4.03768 0
-2.30153 -2.93553 0
-0.448988 -5.74666 0
-1.20504 -4.43444 0
3.79076 -8.99019 0
-4.69343 3.32039 0
-4.97924 4.48001 0
-4.54253 6.12119 0
-4.43989 5.22756 0
-3.76709 7.82552 0
-3.73248 6.66644 0
-2.72151 8.23374 0
-1.63852 -0.126234 0
-1.43825 -0.878562 0
-2.47387 0.515996 0
-3.21172 1.43644 0
-3.18612 3.27034 0
-2.87292 2.36162 0
-1.35025 0.636686 0
-2.49541 9.51542 0
3.81811 -7.67343 0
2.85835 -6.9432 0
0.908193 -5.6879 0
1.99581 -6.23892 0
-1.66629 -1.97807 0
-1.41879 -3.23976 0
0.081633 -4.66518 0
-0.556934 -3.64856 0
4.80098 -7.118 0
4.93952 -8.42841 0
-3.70067 4.45568 0
-3.65154 5.61449 0
-2.81268 7.10771 0
-2.94123 6.20108 0
-1.6277 8.55467 0
-1.89001 7.44878 0
-2.30558 3.9886 0
-0.722575 -1.31944 0
-0.831264 -0.247782 0
-1.93079 1.69005 0
-2.10618 2.85926 0
-1.29768 3.51321 0
-0.871968 1.36049 0
-0.285343 0.462875 0
-0.525899 8.70373 0
-1.23071 9.75551 0
1.07624 -4.47985 0
3.78025 -6.49845 0
2.88943 -5.9137 0
2.04891 -5.28129 0
4.65467 -6.01608 0
-0.54933 -2.45941 0
0.491109 -3.4209 0
0.0582474 -1.60345 0
1.45002 -3.61035 0
5.72849 -6.43965 0
6.00658 -7.71106 0
-2.42593 5.23799 0
-2.07413 6.38516 0
-0.876938 7.64948 0
-1.22887 6.78087 0
0.0938975 7.74118 0
-1.1304 4.43018 0
0.148629 -0.611397 0
-0.80652 2.49403 0
-0.342288 3.5797 0
0.0544253 1.51525 0
0.735229 0.475501 0
0.63248 8.72593 0
0.0437664 9.86079 0
2.31736 -4.18126 0
3.74781 -5.4667 0
2.91613 -5.06601 0
5.44918 -5.34119 0
4.5724 -5.11778 0
0.631312 -2.2849 0
1.24017 -2.91297 0
0.757795 -1.38838 0
2.12419 -3.07874 0
2.93422 -3.40046 0
6.03726 -4.67769 0
6.52155 -5.63755 0
6.96684 -6.85224 0
-0.99409 5.71148 0
-0.348801 6.74847 0
1.10761 7.64692 0
0.5634 6.95422 0
-0.0027734 4.66838 0
0.595739 3.79331 0
1.33253 -0.642506 0
0.525222 2.64089 0
0.952533 1.57646 0
1.89584 0.208697 0
1.60212 1.06106 0
2.10257 7.4692 0
1.77422 8.57532 0
1.32997 9.78783 0
3.73623 -4.23338 0
5.00676 -4.31694 0
5.74051 -3.83662 0
3.7158 -3.12581 0
1.79912 -1.87717 0
2.97597 -2.5337 0
6.6703 -3.86592 0
7.25355 -4.80431 0
7.83195 -5.91126 0
0.482464 5.78667 0
1.41412 6.63559 0
2.34561 6.57136 0
1.19216 4.5007 0
1.46872 3.36133 0
2.41357 -0.690285 0
2.80068 0.140904 0
1.77039 2.15203 0
2.59415 1.1427 0
3.03337 7.06669 0
2.86909 8.2497 0
2.60088 9.54172 0
4.82261 -3.24312 0
6.02045 -3.03988 0
4.11221 -2.23867 0
3.20704 -1.49064 0
6.63348 -2.27893 0
7.1277 -2.99402 0
7.84892 -3.85514 0
8.56721 -4.87387 0
2.00169 5.52294 0
3.02559 6.05416 0
2.33911 4.07458 0
2.39689 3.02633 0
3.48602 -0.454175 0
3.57809 0.613011 0
2.93079 2.26399 0
3.4983 1.50885 0
3.92249 5.79336 0
3.91372 6.68456 0
3.92276 7.82269 0
3.82855 9.13548 0
5.49023 -1.88588 0
4.45198 -1.1124 0
6.6115 -1.31455 0
7.48024 -2.00693 0
8.2695 -2.81981 0
9.13796 -3.724 0
3.34314 4.79154 0
3.28134 3.33184 0
4.62816 0.134371 0
4.44032 1.28536 0
3.98392 2.39617 0
4.44996 5.04551 0
4.73663 6.07937 0
4.89471 7.25018 0
4.97788 8.56427 0
5.78417 -0.435932 0
6.88855 -0.486401 0
7.6394 -1.06158 0
8.54724 -1.71539 0
9.54325 -2.49459 0
4.44077 3.74738 0
5.69541 1.05973 0
5.23797 2.47002 0
5.22747 4.51125 0
5.47085 5.40712 0
5.77683 6.54181 0
6.01568 7.8321 0
6.70364 0.436984 0
7.71167 -0.0273749 0
8.70966 -0.565434 0
9.78706 -1.22159 0
6.80034 1.29869 0
5.55922 3.68114 0
6.37454 2.12353 0
6.201 2.99623 0
6.11484 4.56817 0
6.52923 5.70809 0
6.96222 6.97375 0
7.62414 0.93631 0
8.6862 0.564288 0
9.85557 0.0612335 0
7.43367 1.94203 0
6.61946 3.78452 0
7.07005 2.85333 0
7.19368 4.7666 0
7.82083 6.01427 0
8.52818 1.6878 0
9.74104 1.32521 0
8.20629 2.75946 0
7.78402 3.81922 0
8.53875 4.94897 0
9.49527 2.58226 0
9.09897 3.7992 0
CELLS 542 2168
3 2 0 4
3 0 1 7
3 4 0 7
3 1 5 8
3 7 1 8
3 3 2 13
3 13 2 4
3 11 3 14
3 14 3 13
3 13 4 15
3 4 7 16
3 15 4 16
3 5 6 17
3 8 5 17
3 6 9 18
3 17 6 18
3 7 8 19
3 16 7 19
3 8 17 20
3 19 8 20
3 9 10 23
3 18 9 23
3 10 21 24
3 23 10 24
3 12 11 25
3 25 11 14
3 26 12 27
3 27 12 25
3 14 13 29
3 29 13 15
3 25 14 30
3 30 14 29
3 29 15 31
3 15 16 33
3 31 15 33
3 16 19 34
3 33 16 34
3 17 18 35
3 20 17 35
3 18 23 36
3 35 18 36
3 19 20 37
3 34 19 37
3 20 35 38
3 37 20 38
3 21 22 39
3 24 21 39
3 22 32 40
3 39 22 40
3 23 24 41
3 36 23 41
3 24 39 42
3 41 24 42
3 27 25 44
3 44 25 30
3 28 26 45
3 45 26 27
3 45 27 46
3 46 27 44
3 47 28 48
3 48 28 45
3 30 29 50
3 50 29 31
3 44 30 51
3 51 30 50
3 50 31 52
3 31 33 52
3 32 43 53
3 40 32 53
3 53 43 54
3 33 34 55
3 34 37 55
3 33 55 52
3 35 36 56
3 38 35 56
3 36 41 57
3 56 36 57
3 37 38 58
3 38 56 58
3 37 58 55
3 39 40 59
3 42 39 59
3 40 53 60
3 59 40 60
3 41 42 61
3 57 41 61
3 42 59 62
3 61 42 62
3 43 63 54
3 46 44 64
3 64 44 51
3 48 45 65
3 65 45 46
3 65 46 66
3 66 46 64
3 49 47 67
3 67 47 48
3 67 48 68
3 68 48 65
3 69 49 70
3 70 49 67
3 52 55 72
3 64 51 73
3 51 50 73
3 50 52 73
3 73 52 74
3 74 52 72
3 53 54 75
3 60 53 75
3 54 63 76
3 54 76 77
3 75 54 77
3 55 58 78
3 72 55 78
3 72 78 79
3 56 57 80
3 57 61 80
3 56 80 58
3 58 80 81
3 78 58 81
3 59 60 82
3 62 59 82
3 60 75 83
3 82 60 83
3 61 62 84
3 62 82 84
3 61 84 80
3 63 85 76
3 66 64 86
3 64 73 86
3 68 65 87
3 87 65 66
3 87 66 86
3 70 67 88
3 88 67 68
3 88 68 89
3 89 68 87
3 71 69 90
3 90 69 70
3 90 70 91
3 91 70 88
3 92 71 93
3 93 71 90
3 74 72 94
3 94 72 79
3 86 73 95
3 95 73 74
3 95 74 96
3 96 74 94
3 97 86 95
3 76 85 99
3 75 77 100
3 83 75 100
3 76 99 101
3 77 76 101
3 77 101 102
3 100 77 102
3 94 79 103
3 78 81 104
3 79 78 104
3 79 104 103
3 80 84 105
3 81 80 105
3 81 105 106
3 104 81 106
3 82 83 107
3 83 100 107
3 82 107 84
3 84 107 108
3 105 84 108
3 85 109 99
3 89 87 110
3 87 86 110
3 110 86 97
3 91 88 111
3 111 88 89
3 111 89 110
3 93 90 112
3 112 90 91
3 112 91 113
3 113 91 111
3 98 92 114
3 114 92 93
3 114 93 115
3 115 93 112
3 116 98 114
3 117 103 118
3 96 94 119
3 94 103 119
3 119 103 117
3 97 95 120
3 120 95 96
3 120 96 119
3 121 110 97
3 121 97 122
3 122 97 120
3 123 119 117
3 124 98 116
3 99 109 125
3 99 125 126
3 101 99 126
3 100 102 127
3 100 127 107
3 101 126 128
3 102 101 128
3 102 128 127
3 104 106 129
3 104 129 103
3 103 129 118
3 105 108 130
3 106 105 130
3 106 130 129
3 107 127 131
3 108 107 131
3 108 131 132
3 108 132 130
3 109 134 125
3 125 134 133
3 113 111 135
3 111 110 135
3 135 110 121
3 115 112 136
3 136 112 113
3 136 113 135
3 116 114 137
3 137 114 115
3 137 115 138
3 138 115 136
3 139 124 116
3 139 116 140
3 140 116 137
3 141 135 121
3 118 129 142
3 118 142 143
3 117 118 143
3 123 117 143
3 122 120 144
3 120 119 144
3 144 119 123
3 141 121 145
3 145 121 122
3 145 122 144
3 146 141 145
3 147 144 123
3 147 123 148
3 143 148 123
3 150 124 139
3 149 150 139
3 131 127 151
3 125 133 152
3 126 125 152
3 126 152 153
3 128 126 153
3 128 153 154
3 128 154 127
3 127 154 151
3 152 133 155
3 130 132 156
3 130 156 129
3 129 156 142
3 131 151 157
3 132 131 157
3 132 157 156
3 156 158 142
3 157 151 159
3 133 160 155
3 134 161 133
3 133 161 160
3 138 136 162
3 136 135 162
3 162 135 141
3 140 137 163
3 163 137 138
3 163 138 162
3 149 139 164
3 164 139 140
3 164 140 165
3 165 140 163
3 166 149 164
3 167 162 141
3 167 141 146
3 142 158 168
3 143 142 168
3 143 168 148
3 146 145 169
3 145 144 169
3 169 144 147
3 170 167 146
3 170 146 169
3 171 169 147
3 171 147 148
3 171 148 172
3 168 172 148
3 173 149 166
3 174 150 149
3 173 174 149
3 154 175 151
3 151 175 159
3 152 155 176
3 153 152 176
3 153 176 177
3 153 177 154
3 154 177 175
3 155 160 178
3 155 178 179
3 176 155 179
3 156 157 180
3 156 180 158
3 157 159 181
3 157 181 180
3 158 180 182
3 158 182 168
3 159 175 183
3 159 183 181
3 175 184 183
3 160 186 178
3 178 186 185
3 161 187 160
3 160 187 186
3 165 163 188
3 163 162 188
3 188 162 167
3 166 164 189
3 189 164 165
3 189 165 188
3 190 173 166
3 190 166 191
3 191 166 189
3 192 188 167
3 192 167 170
3 193 192 170
3 182 194 168
3 194 172 168
3 193 170 195
3 170 169 195
3 195 169 171
3 196 195 171
3 196 171 172
3 194 197 172
3 197 198 172
3 198 196 172
3 200 173 190
3 199 200 190
3 201 174 173
3 200 201 173
3 176 179 202
3 177 176 202
3 177 202 175
3 175 202 184
3 178 185 203
3 178 203 179
3 179 203 202
3 203 185 204
3 202 205 184
3 183 206 181
3 180 181 206
3 180 206 182
3 182 206 194
3 183 184 207
3 205 207 184
3 183 207 206
3 185 208 204
3 186 209 185
3 185 209 208
3 187 210 186
3 186 210 209
3 191 189 211
3 189 188 211
3 211 188 192
3 199 190 212
3 212 190 191
3 212 191 211
3 213 199 212
3 214 211 192
3 214 192 193
3 215 214 193
3 215 193 195
3 206 216 194
3 216 197 194
3 216 217 197
3 215 195 218
3 218 195 196
3 198 218 196
3 217 219 197
3 219 218 198
3 197 219 198
3 220 199 213
3 221 200 199
3 220 221 199
3 222 201 200
3 221 222 200
3 203 204 223
3 203 223 202
3 202 223 205
3 204 208 224
3 204 224 223
3 205 223 225
3 205 225 207
3 207 225 226
3 207 226 206
3 226 216 206
3 208 228 224
3 224 228 227
3 209 229 208
3 229 228 208
3 210 230 209
3 209 230 229
3 213 212 231
3 212 211 231
3 231 211 214
3 232 220 213
3 232 213 231
3 233 231 214
3 233 214 215
3 234 233 215
3 234 215 218
3 226 235 216
3 235 217 216
3 235 236 217
3 217 236 219
3 237 234 218
3 237 218 219
3 236 238 219
3 238 237 219
3 240 220 232
3 239 240 232
3 241 221 220
3 240 241 220
3 242 222 221
3 241 242 221
3 224 227 243
3 224 243 223
3 223 243 225
3 225 243 244
3 225 244 226
3 226 244 235
3 227 245 243
3 228 246 227
3 227 246 245
3 229 247 228
3 228 247 246
3 230 248 229
3 229 248 247
3 239 232 249
3 232 231 249
3 249 231 233
3 250 249 233
3 250 233 234
3 237 250 234
3 244 251 235
3 235 251 236
3 251 252 236
3 236 252 238
3 252 253 238
3 253 250 237
3 253 237 238
3 254 239 249
3 255 240 239
3 254 255 239
3 256 241 240
3 255 256 240
3 257 242 241
3 256 257 241
3 245 258 243
3 243 258 244
3 244 258 251
3 245 259 258
3 246 260 245
3 245 260 259
3 247 261 246
3 246 261 260
3 248 262 247
3 247 262 261
3 254 249 263
3 263 249 250
3 253 263 250
3 258 264 251
3 251 264 252
3 264 265 252
3 265 263 253
3 252 265 253
3 266 254 263
3 267 255 254
3 266 267 254
3 268 256 255
3 267 268 255
3 269 257 256
3 268 269 256
3 259 270 258
3 270 264 258
3 260 271 259
3 259 271 270
3 261 272 260
3 260 272 271
3 262 273 261
3 273 272 261
3 270 274 264
3 275 266 263
3 275 263 265
3 274 276 264
3 276 265 264
3 276 277 265
3 277 275 265
3 278 267 266
3 275 278 266
3 279 268 267
3 278 279 267
3 280 269 268
3 279 280 268
3 271 281 270
3 270 281 274
3 272 282 271
3 271 282 281
3 273 283 272
3 272 283 282
3 281 284 274
3 274 284 276
3 285 278 275
3 277 285 275
3 284 286 276
3 286 285 277
3 276 286 277
3 287 279 278
3 285 287 278
3 288 280 279
3 287 288 279
3 282 289 281
3 281 289 284
3 283 290 282
3 282 290 289
3 289 291 284
3 284 291 286
3 291 292 286
3 292 287 285
3 286 292 285
3 293 288 287
3 292 293 287
3 290 294 289
3 289 294 291
3 294 295 291
3 295 293 292
3 291 295 292
CELL_TYPES 542
5
5
5
5
5
5
5
5
5
5
5
5
5
5
5
5
5
5
5
5
5
5
5
5
5
5
5
5
5
5
5
5
5
5
5
5
5
5
5
5
5
5
5
5
5
5
5
5
5
5
5
5
5
5
5
5
5
5
5
5
5
5
5
5
5
5
5
5
5
5
5
5
5
5
5
5
5
5
5
5
5
5
5
5
5
5
5
5
5
5
5
5
5
5
5
5
5
5
5
5
5
5
5
5
5
5
5
5
5
5
5
5
5
5
5
5
5
5
5
5
5
5
5
5
5
5
5
5
5
5
5
5
5
5
5
5
5
5
5
5
5
5
5
5
5
5
5
5
5
5
5
5
5
5
5
5
5
5
5
5
5
5
5
5
5
5
5
5
5
5
5
5
5
5
5
5
5
5
5
5
5
5
5
5
5
5
5
5
5
5
5
5
5
5
5
5
5
5
5
5
5
5
5
5
5
5
5
5
5
5
5
5
5
5
5
5
5
5
5
5
5
5
5
5
5
5
5
5
5
5
5
5
5
5
5
5
5
5
5
5
5
5
5
5
5
5
5
5
5
5
5
5
5
5
5
5
5
5
5
5
5
5
5
5
5
5
5
5
5
5
5
5
5
5
5
5
5
5
5
5
5
5
5
5
5
5
5
5
5
5
5
5
5
5
5
5
5
5
5
5
5
5
5
5
5
5
5
5
5
5
5
5
5
5
5
5
5
5
5
5
5
5
5
5
5
5
5
5
5
5
5
5
5
5
5
5
5
5
5
5
5
5
5
5
5
5
5
5
5
5
5
5
5
5
5
5
5
5
5
5
5
5
5
5
5
5
5
5
5
5
5
5
5
5
5
5
5
5
5
5
5
5
5
5
5
5
5
5
5
5
5
5
5
5
5
5
5
5
5
5
5
5
5
5
5
5
5
5
5
5
5
5
5
5
5
5
5
5
5
5
5
5
5
5
5
5
5
5
5
5
5
5
5
5
5
5
5
5
5
5
5
5
5
5
5
5
5
5
5
5
5
5
5
5
5
5
5
5
5
5
5
5
5
5
5
5
5
5
5
5
5
5
5
5
5
5
5
5
5
5
5
5
5
5
5
5
5
5
5
5
5
5
5
5
5
5
5
5
5
5
5
5
5
5
5
5
5
5
5
5
5
5
5
5
5
5
5
5
5
5
5
5
5
5
5
5
5
5
5
5
5
5
5
5
5
5
5
5
5
5
5
5
POINT_DATA 296
SCALARS concentrations float 4
LOOKUP_TABLE default
0 0.961195 0.142488 15.8474
0 0.961289 0.139671 0.28
0 0.961132 0.141016 9.53988
0 0.961217 0.14411 9.73816
0 0.961177 0.0952853 0.21472
0 0.961233 0.140357 6.33989
0 0.961181 0.142912 11.071
0 0.961256 0.0966084 -0.516621
0 0.961258 0.0977464 -0.437231
0 0.961258 0.144385 5.94155
0 0.961308 0.141371 5.89863
0 0.961216 0.140292 8.65774
0 0.96123 0.140589 4.71967
0 0.961197 0.0948351 -0.0579311
0 0.961234 0.0939339 0.393809
0 0.961221 0.0960964 -0.491309
0 0.961231 0.0979964 -1.41777
0 0.961207 0.0938843 -0.233736
0 0.96122 0.0939701 0.0661227
0 0.961242 0.0964559 -0.255569
0 0.961219 0.0953445 0.439245
0 0.961226 0.142353 8.81441
0 0.961202 0.145708 12.5338
0 0.961269 0.0935589 0.47759
0 0.961249 0.0939401 -0.280983
0 0.961236 0.0949387 -0.911871
0 0.961262 0.141948 10.6045
0 0.96125 0.0950363 -0.687892
0 0.961302 0.139963 4.06991
0 0.961229 0.0940513 0.164863
0 0.961241 0.0943312 -0.543514
0 0.961222 0.0943132 -0.196292
0 0.961264 0.144975 4.04434
0 0.961209 0.095727 0.182456
0 0.96122 0.0990387 0.938568
0 0.961226 0.0946259 0.323202
0 0.961229 0.0942356 -0.772944
0 0.961222 0.096077 -0.245631
0 0.961217 0.0936006 -0.194795
0 0.961204 0.0937992 -0.951223
0 0.96123 0.0934051 -0.964801
0 0.961213 0.0935373 0.213103
0 0.961214 0.0964282 -1.37182
0 0.961297 0.142893 0.00659649
0 0.961255 0.0955729 -0.167917
0 0.961257 0.0974699 -0.986982
0 0.961217 0.10376 3.28147
0 0.961236 0.143186 10.4357
0 0.961258 0.0953898 -0.865925
0 0.961152 0.143298 7.9219
0 0.961233 0.0951536 -0.723442
0 0.961245 0.0980123 -0.707524
0 0.96123 0.0955809 -0.807182
0 0.961277 0.0937299 -1.08676
0 0.961282 0.0933476 -1.43037
0 0.961221 0.0960784 -1.73267
0 0.961224 0.0937268 0.401301
0 0.961212 0.0944262 -0.223811
0 0.961221 0.0934074 -0.050806
0 0.961212 0.0954559 -0.987907
0 0.961234 0.0939635 -0.870211
0 0.961222 0.100088 0.764841
0 0.961224 0.0975758 -0.18453
0 0.961279 0.141407 3.10619
0 0.961232 0.0969712 0.123852
0 0.961221 0.100889 2.43811
0 0.961211 0.102977 3.11388
0 0.9612 0.0944218 -0.323196
0 0.961244 0.10057 -0.179574
0 0.96118 0.14199 10.9457
0 0.961177 0.0945287 0.0188629
0 0.961284 0.139805 3.3188
0 0.961234 0.0942435 -0.649766
0 0.961243 0.0943623 -0.15458
0 0.961235 0.0948129 -0.211668
0 0.961257 0.0933541 1.30266
0 0.961258 0.093489 0.819798
0 0.96125 0.0942063 1.60434
0 0.961221 0.0946206 0.148367
0 0.961227 0.0945205 0.74133
0 0.961227 0.093631 -0.197186
0 0.961231 0.0926237 0.525498
0 0.961211 0.0955691 0.123128
0 0.961219 0.0936231 0.9971
0 0.961226 0.0948596 -0.162506
0 0.961268 0.142261 7.08474
0 0.961242 0.102137 -1.27047
0 0.961247 0.100874 0.280527
0 0.961227 0.0950634 0.124209
0 0.961243 0.0972573 -0.676038
0 0.961238 0.0945516 -0.173843
0 0.961231 0.0955751 -0.926902
0 0.961316 0.140234 8.61779
0 0.961285 0.0948453 0.548737
0 0.961235 0.094419 -0.00656334
0 0.961243 0.0978383 -0.229023
0 0.961228 0.0954214 -0.462957
0 0.961233 0.0999132 0.607325
0 0.96125 0.141664 5.69957
0 0.961265 0.0942505 1.57283
0 0.961223 0.0936332 1.06491
0 0.961236 0.0943718 1.75518
0 0.961228 0.0934238 1.29634
0 0.961239 0.0946973 0.427639
0 0.961228 0.0940046 0.689583
0 0.961231 0.0940844 -1.05207
0 0.961239 0.0934552 0.472031
0 0.96121 0.0946004 1.59106
0 0.961221 0.0939317 -1.35757
0 0.961283 0.139679 1.56391
0 0.961227 0.0946443 0.421353
0 0.96123 0.0954734 -0.248508
0 0.961243 0.0946171 0.882991
0 0.961229 0.0946491 0.310216
0 0.961272 0.0949631 0.755062
0 0.961251 0.0990689 -1.33138
0 0.96122 0.0951456 0.146753
0 0.961252 0.0938075 0.121837
0 0.961252 0.0936677 -0.324284
0 0.961243 0.0941296 0.956153
0 0.961239 0.0943589 0.517112
0 0.961216 0.0941022 0.273363
0 0.961231 0.0974555 -1.31898
0 0.961252 0.0940089 0.507758
0 0.961183 0.141293 10.9856
0 0.961276 0.094505 1.65831
0 0.961254 0.0949299 1.49027
0 0.961223 0.0931323 1.05922
0 0.961234 0.0942087 1.47052
0 0.961244 0.0935026 -0.130461
0 0.961239 0.0934493 -0.896678
0 0.961226 0.093642 -1.47542
0 0.961233 0.0939288 -0.849068
0 0.961283 0.0938285 0.670437
0 0.96129 0.140042 4.05418
0 0.961222 0.0945119 0.474054
0 0.961227 0.0960292 -0.412287
0 0.96125 0.100925 -1.74048
0 0.961247 0.0963352 1.803
0 0.961191 0.0938557 -0.349392
0 0.961234 0.0952002 1.1322
0 0.961223 0.0982208 0.97472
0 0.961252 0.0938875 -0.401065
0 0.961254 0.0937028 0.0400434
0 0.961247 0.0945331 0.0731337
0 0.961226 0.0952633 0.698249
0 0.96122 0.09482 -0.268686
0 0.96125 0.0960354 -0.934617
0 0.961257 0.093896 0.115554
0 0.961186 0.0932839 0.608936
0 0.961167 0.145222 11.6728
0 0.961239 0.0939369 -1.26887
0 0.96126 0.095165 1.79555
0 0.961249 0.0939646 1.19306
0 0.961239 0.0938592 1.43128
0 0.961252 0.0937278 0.617181
0 0.961245 0.0956618 0.838988
0 0.961235 0.0942918 -1.08425
0 0.961257 0.094332 -0.798944
0 0.96125 0.0940587 -0.820989
0 0.961285 0.0930089 -0.0434047
0 0.961307 0.141891 1.90704
0 0.961234 0.0981845 -1.20512
0 0.961245 0.0955263 0.87766
0 0.96121 0.093722 -0.779094
0 0.961235 0.0971229 0.786812
0 0.961203 0.0936609 -0.703432
0 0.961234 0.0932037 0.746234
0 0.961268 0.0943708 -0.500334
0 0.961238 0.0942045 -0.466682
0 0.961236 0.093462 -1.22747
0 0.961254 0.0941579 0.632826
0 0.961269 0.0940754 -0.222641
0 0.961218 0.0928345 -0.258173
0 0.961204 0.141179 11.4348
0 0.961246 0.0941478 -1.40673
0 0.961246 0.0940419 1.57316
0 0.961244 0.0939299 1.38673
0 0.961235 0.0930416 -0.241663
0 0.961231 0.0938696 1.42849
0 0.961235 0.0956184 0.658168
0 0.96123 0.0952478 0.313629
0 0.961263 0.0943716 -0.885935
0 0.961244 0.0949234 1.15103
0 0.961241 0.093287 -1.21932
0 0.961234 0.0932086 0.118722
0 0.961261 0.0924229 -0.65453
0 0.961295 0.138418 6.25111
0 0.96124 0.0934469 -0.819766
0 0.961222 0.0933957 0.318115
0 0.961207 0.0933281 -0.0972784
0 0.96122 0.093609 -0.0616711
0 0.961251 0.0933378 -1.05082
0 0.961249 0.0934405 0.824834
0 0.961272 0.0943058 -0.62806
0 0.961249 0.093558 0.873931
0 0.961258 0.0938823 -0.661723
0 0.961268 0.0947193 -0.433074
0 0.961259 0.0941131 -0.105055
0 0.961208 0.0940867 0.370117
0 0.961188 0.0937836 0.58976
0 0.961228 0.142023 8.33345
0 0.961238 0.0935095 -1.40071
0 0.96123 0.0934087 1.29604
0 0.961235 0.0933048 1.12281
0 0.96124 0.0934793 -1.12914
0 0.961241 0.0953585 -1.11264
0 0.961236 0.0950987 0.965349
0 0.961247 0.0928647 -1.05516
0 0.961275 0.0926845 -0.881419
0 0.961279 0.142417 9.21115
0 0.961249 0.0984188 -0.558534
0 0.961237 0.097644 -0.000927892
0 0.961234 0.0944764 0.225109
0 0.961256 0.101747 -0.259844
0 0.961244 0.0932672 0.68658
0 0.961256 0.0973472 -0.66004
0 0.961251 0.0944616 -0.49126
0 0.961254 0.0942578 -0.763087
0 0.961254 0.0951059 -0.26325
0 0.961209 0.0944104 -0.825159
0 0.961138 0.0928333 0.0579542
0 0.961121 0.1395 12.5672
0 0.961239 0.0931324 -1.30477
0 0.961241 0.0931016 -1.17285
0 0.961238 0.0949963 0.610463
0 0.961239 0.0937934 -0.757529
0 0.961244 0.0954435 1.08362
0 0.96125 0.0935725 1.26401
0 0.961282 0.0929523 -0.566598
0 0.961316 0.142479 1.21303
0 0.961252 0.0945618 0.377709
0 0.961243 0.0938359 0.353613
0 0.961242 0.0942731 -0.829109
0 0.961246 0.0934559 0.330247
0 0.961246 0.0937692 -0.71497
0 0.961243 0.0940933 -0.309786
0 0.961249 0.0940478 -0.0159109
0 0.961239 0.094532 -0.328646
0 0.961249 0.0947157 -0.0685553
0 0.961223 0.0937682 0.0156905
0 0.96117 0.09411 0.332983
0 0.961109 0.137761 12.2546
0 0.961243 0.0954105 -0.196223
0 0.961242 0.0941952 -0.602163
0 0.961249 0.0939074 1.04755
0 0.961254 0.0932452 -1.00005
0 0.961253 0.0931464 -0.145497
0 0.961274 0.140168 10.7941
0 0.961247 0.0949503 -0.675562
0 0.961241 0.094363 -0.352664
0 0.961241 0.0941065 -0.324378
0 0.961236 0.0934075 -0.512036
0 0.961236 0.0953408 0.267825
0 0.961249 0.094567 -0.168886
0 0.961236 0.0935743 0.26532
0 0.961227 0.0937628 0.0169448
0 0.961197 0.142017 11.1165
0 0.961244 0.0937166 -0.864281
0 0.961252 0.0931545 1.10668
0 0.961265 0.0931111 0.969027
0 0.961271 0.0929946 -0.919038
0 0.961256 0.14264 5.11841
0 0.961242 0.0946686 0.207706
0 0.961243 0.0936954 -0.82767
0 0.961241 0.095021 0.136577
0 0.961247 0.094441 0.38812
0 0.961252 0.0933709 0.281097
0 0.961227 0.0937667 0.435175
0 0.961235 0.139531 13.5195
0 0.961247 0.093559 1.16208
0 0.961263 0.0931964 -0.866843
0 0.96129 0.092974 -0.979757
0 0.961294 0.13987 1.35264
0 0.961242 0.0943933 1.18914
0 0.96125 0.0941449 0.111985
0 0.961236 0.0951585 1.54772
0 0.96125 0.0950532 0.842373
0 0.961253 0.0947016 -0.79066
0 0.96124 0.0945377 -0.425437
0 0.961204 0.138346 2.68034
0 0.961254 0.093357 -0.868824
0 0.961271 0.0933354 -0.25678
0 0.961289 0.140405 4.6936
0 0.961244 0.0938915 -0.885887
0 0.961257 0.10179 -0.978443
0 0.961246 0.0953964 0.952446
0 0.961246 0.0952822 -0.616802
0 0.961243 0.141577 6.29858
0 0.96127 0.0935349 0.603031
0 0.961266 0.142016 3.98914
0 0.961278 0.0943399 -0.68725
0 0.961258 0.0945473 1.08745
0 0.961247 0.13639 8.17838
0 0.961292 0.138844 9.81943
0 0.961288 0.139841 4.99838
VECTORS fa_u float
0.00699073 0.0028107 -0
0.00648714 0.00372882 -0
0.00344122 0.000934576 -0
0.0070756 0.00106742 -0
1e-08 0 0
0.00521011 0.00401278 -0
0.00288402 0.00280822 -0
1e-08 0 0
1e-08 0 0
0.00443939 0.00548294 -0
0.00486269 0.00821244 -0
0.00655197 0.000111561 -0
0.00630356 -0.000706922 0
1e-08 0 0
1e-08 0 0
1e-08 0 0
1e-08 0 0
1e-08 0 0
1e-08 0 0
1e-08 0 0
1e-08 0 0
0.00287256 0.0070636 -0
0.00160335 0.00624175 -0
1e-08 0 0
1e-08 0 0
1e-08 0 0
0.00836756 -0.00213633 0
1e-08 0 0
0.0100336 -0.0043501 0
1e-08 0 0
1e-08 0 0
1e-08 0 0
0.000855066 0.00715639 -0
1e-08 0 0
1e-08 0 0
1e-08 0 0
1e-08 0 0
1e-08 0 0
1e-08 0 0
1e-08 0 0
1e-08 0 0
1e-08 0 0
1e-08 0 0
-0.000139256 0.00747002 -0
1e-08 0 0
1e-08 0 0
1e-08 0 0
0.00565977 -0.00354125 0
1e-08 0 0
0.00307421 -0.00245861 0
1e-08 0 0
1e-08 0 0
1e-08 0 0
1e-08 0 0
1e-08 0 0
1e-08 0 0
1e-08 0 0
1e-08 0 0
1e-08 0 0
1e-08 0 0
1e-08 0 0
1e-08 0 0
1e-08 0 0
-0.00063296 0.00443418 0
1e-08 0 0
1e-08 0 0
1e-08 0 0
1e-08 0 0
1e-08 0 0
0.00342991 -0.003399 0
1e-08 0 0
0.00301937 -0.0037422 0
1e-08 0 0
1e-08 0 0
1e-08 0 0
1e-08 0 0
1e-08 0 0
1e-08 0 0
1e-08 0 0
1e-08 0 0
1e-08 0 0
1e-08 0 0
1e-08 0 0
1e-08 0 0
1e-08 0 0
-0.00144129 0.0055164 0
1e-08 0 0
1e-08 0 0
1e-08 0 0
1e-08 0 0
1e-08 0 0
1e-08 0 0
0.00519014 -0.00859981 0
1e-08 0 0
1e-08 0 0
1e-08 0 0
1e-08 0 0
1e-08 0 0
0.00344713 -0.00849379 0
1e-08 0 0
1e-08 0 0
1e-08 0 0
1e-08 0 0
1e-08 0 0
1e-08 0 0
1e-08 0 0
1e-08 0 0
1e-08 0 0
1e-08 0 0
-0.00281868 0.00694764 0
1e-08 0 0
1e-08 0 0
1e-08 0 0
1e-08 0 0
1e-08 0 0
1e-08 0 0
1e-08 0 0
1e-08 0 0
1e-08 0 0
1e-08 0 0
1e-08 0 0
1e-08 0 0
1e-08 0 0
1e-08 0 0
0.00140031 -0.00552555 0
1e-08 0 0
1e-08 0 0
1e-08 0 0
1e-08 0 0
1e-08 0 0
1e-08 0 0
1e-08 0 0
1e-08 0 0
1e-08 0 0
-0.00364633 0.00631649 0
1e-08 0 0
1e-08 0 0
1e-08 0 0
1e-08 0 0
1e-08 0 0
1e-08 0 0
1e-08 0 0
1e-08 0 0
1e-08 0 0
1e-08 0 0
1e-08 0 0
1e-08 0 0
1e-08 0 0
1e-08 0 0
1e-08 0 0
0.000579702 -0.00426209 0
1e-08 0 0
1e-08 0 0
1e-08 0 0
1e-08 0 0
1e-08 0 0
1e-08 0 0
1e-08 0 0
1e-08 0 0
1e-08 0 0
1e-08 0 0
-0.00451153 0.0058029 0
1e-08 0 0
1e-08 0 0
1e-08 0 0
1e-08 0 0
1e-08 0 0
1e-08 0 0
1e-08 0 0
1e-08 0 0
1e-08 0 0
1e-08 0 0
1e-08 0 0
1e-08 0 0
9.47221e-05 -0.00750459 0
1e-08 0 0
1e-08 0 0
1e-08 0 0
1e-08 0 0
1e-08 0 0
1e-08 0 0
1e-08 0 0
1e-08 0 0
1e-08 0 0
1e-08 0 0
1e-08 0 0
1e-08 0 0
-0.00260553 0.00264255 0
1e-08 0 0
1e-08 0 0
1e-08 0 0
1e-08 0 0
1e-08 0 0
1e-08 0 0
1e-08 0 0
1e-08 0 0
1e-08 0 0
1e-08 0 0
1e-08 0 0
1e-08 0 0
1e-08 0 0
-0.00086541 -0.00693573 0
1e-08 0 0
1e-08 0 0
1e-08 0 0
1e-08 0 0
1e-08 0 0
1e-08 0 0
1e-08 0 0
1e-08 0 0
-0.00488921 0.00395502 0
1e-08 0 0
1e-08 0 0
1e-08 0 0
1e-08 0 0
1e-08 0 0
1e-08 0 0
1e-08 0 0
1e-08 0 0
1e-08 0 0
1e-08 0 0
1e-08 0 0
-0.00160109 -0.00613241 0
1e-08 0 0
1e-08 0 0
1e-08 0 0
1e-08 0 0
1e-08 0 0
1e-08 0 0
1e-08 0 0
-0.00811942 0.00484807 0
1e-08 0 0
1e-08 0 0
1e-08 0 0
1e-08 0 0
1e-08 0 0
1e-08 0 0
1e-08 0 0
1e-08 0 0
1e-08 0 0
1e-08 0 0
1e-08 0 0
-0.00295056 -0.00717525 0
1e-08 0 0
1e-08 0 0
1e-08 0 0
1e-08 0 0
1e-08 0 0
-0.00723456 0.00296781 0
1e-08 0 0
1e-08 0 0
1e-08 0 0
1e-08 0 0
1e-08 0 0
1e-08 0 0
1e-08 0 0
1e-08 0 0
-0.00468017 -0.0078535 0
1e-08 0 0
1e-08 0 0
1e-08 0 0
1e-08 0 0
-0.00621653 0.00161251 0
1e-08 0 0
1e-08 0 0
1e-08 0 0
1e-08 0 0
1e-08 0 0
1e-08 0 0
-0.003652 -0.00455627 0
1e-08 0 0
1e-08 0 0
1e-08 0 0
-0.00707396 0.00086443 0
1e-08 0 0
1e-08 0 0
1e-08 0 0
1e-08 0 0
1e-08 0 0
1e-08 0 0
-0.00299939 -0.00297848 0
1e-08 0 0
1e-08 0 0
-0.00805152 -0.000145485 0
1e-08 0 0
1e-08 0 0
1e-08 0 0
1e-08 0 0
-0.00573278 -0.00446363 0
1e-08 0 0
-0.00408683 -0.000584076 0
1e-08 0 0
1e-08 0 0
-0.00655791 -0.00378406 0
-0.00558499 -0.00144945 0
-0.00693036 -0.00280095 0
