# vtk DataFile Version 2.0
CellBP Time: 2.04
ASCII
DATASET UNSTRUCTURED_GRID
POINTS 296 double
-9.12698 -3.74823 0
-8.55342 -4.91589 0
-9.53976 -2.51402 0
-9.80063 -1.24475 0
-8.29488 -2.79234 0
-7.82968 -5.99822 0
-6.97115 -6.97678 0
-7.85472 -3.83993 0
-7.28286 -4.82933 0
-6.0024 -7.84034 0
-4.92981 -8.56845 0
-9.89157 0.0466393 0
-9.8135 1.34472 0
-8.60052 -1.6674 0
-8.73423 -0.525063 0
-7.52996 -1.98173 0
-7.16431 -2.87573 0
-6.58962 -5.74188 0
-5.78643 -6.5612 0
-6.73066 -3.85258 0
-6.16975 -4.63918 0
-3.76263 -9.14419 0
-2.52621 -9.55919 0
-4.88234 -7.27537 0
-3.89834 -7.85255 0
-8.74357 0.638311 0
-9.5667 2.62619 0
-8.5792 1.76234 0
-9.14915 3.8594 0
-7.68881 -0.918479 0
-7.74334 0.082084 0
-6.89871 -1.30053 0
-1.24576 -9.80973 0
-6.39294 -2.13265 0
-6.26932 -3.02825 0
-5.49744 -5.43896 0
-4.76589 -6.08076 0
-5.61438 -3.72626 0
-5.22717 -4.52956 0
-2.85523 -8.32698 0
-1.77278 -8.59929 0
-3.90798 -6.68965 0
-3.04549 -7.12129 0
0.0514514 -9.88827 0
-7.65751 1.13633 0
-8.30204 2.90408 0
-7.50761 2.09486 0
-8.56267 5.01989 0
-7.83865 3.95443 0
-7.82706 6.0941 0
-6.73057 -0.390784 0
-6.90824 0.550012 0
-5.73338 -0.995939 0
-0.590715 -8.76424 0
0.558572 -8.71817 0
-5.2692 -2.46245 0
-4.45744 -5.06306 0
-3.87707 -5.74327 0
-4.41017 -3.78301 0
-2.05173 -7.52648 0
-1.12917 -7.74738 0
-2.97909 -6.07152 0
-2.29978 -6.58843 0
1.3441 -9.79515 0
-6.64738 1.41164 0
-7.12673 3.09494 0
-6.61892 2.35666 0
-7.25157 4.95485 0
-6.67759 3.97519 0
-6.97067 7.06899 0
-6.53089 5.85637 0
-5.99744 7.9304 0
-4.43323 -1.1776 0
-5.78177 0.506619 0
-4.63755 -0.0149948 0
0.00672047 -7.80151 0
1.72313 -8.5844 0
0.9383 -7.71136 0
-4.01955 -2.39442 0
-3.47777 -1.38757 0
-3.27552 -4.78114 0
-3.25433 -3.25403 0
-1.37504 -6.64101 0
-0.510216 -6.98395 0
-1.96978 -5.51174 0
2.61876 -9.54223 0
-5.47808 2.02522 0
-6.05691 3.05011 0
-6.06738 4.83611 0
-5.72386 3.95988 0
-5.72316 6.67158 0
-5.41762 5.57971 0
-4.92426 8.66319 0
-4.80628 7.3517 0
-3.49111 -0.422666 0
-4.42913 1.24355 0
-3.69702 0.590764 0
-4.04325 2.31338 0
-3.75967 9.23925 0
2.83602 -8.26776 0
0.408921 -6.74962 0
2 -7.46716 0
1.2888 -6.85367 0
-2.44005 -0.871437 0
-2.83165 -2.12576 0
-2.28683 -4.07982 0
-2.31873 -2.96286 0
-0.444356 -5.82821 0
-1.21804 -4.48071 0
3.85045 -9.12808 0
-4.76062 3.37233 0
-5.05639 4.56165 0
-4.61665 6.23402 0
-4.50985 5.32181 0
-3.82026 7.94487 0
-3.80011 6.79309 0
-2.76567 8.36751 0
-1.64556 -0.13453 0
-1.4466 -0.887423 0
-2.48425 0.510051 0
-3.24175 1.44284 0
-3.2243 3.30322 0
-2.90007 2.37004 0
-1.35388 0.630588 0
-2.5251 9.65029 0
3.89809 -7.82466 0
2.93303 -7.09479 0
0.940201 -5.78231 0
2.05002 -6.36327 0
-1.67792 -1.98848 0
-1.43011 -3.26731 0
0.0895632 -4.72456 0
-0.564125 -3.68166 0
4.89268 -7.25948 0
5.01616 -8.55473 0
-3.75428 4.5254 0
-3.71197 5.71247 0
-2.86558 7.2362 0
-2.99004 6.30996 0
-1.65369 8.68174 0
-1.92431 7.56897 0
-2.32815 4.03476 0
-0.727696 -1.32514 0
-0.835039 -0.254591 0
-1.93435 1.68455 0
-2.11945 2.87136 0
-1.30363 3.53588 0
-0.868944 1.35322 0
-0.282439 0.458919 0
-0.532011 8.82325 0
-1.24787 9.90147 0
1.10113 -4.54688 0
3.87151 -6.65265 0
2.95873 -6.04141 0
2.09577 -5.38212 0
4.7454 -6.1499 0
-0.555953 -2.47448 0
0.493823 -3.45149 0
0.0557218 -1.61006 0
1.47382 -3.66147 0
5.82699 -6.56249 0
6.09731 -7.8305 0
-2.4603 5.31592 0
-2.11472 6.48999 0
-0.89546 7.75814 0
-1.25974 6.88708 0
0.088519 7.84095 0
-1.13931 4.4762 0
0.150792 -0.617432 0
-0.80078 2.49084 0
-0.334751 3.5943 0
0.0611946 1.51475 0
0.740124 0.473654 0
0.642076 8.83192 0
0.0480625 9.99205 0
2.36282 -4.25444 0
3.82532 -5.58931 0
2.97469 -5.16962 0
5.53634 -5.44678 0
4.65562 -5.23424 0
0.629711 -2.29126 0
1.25105 -2.94029 0
0.758032 -1.3909 0
2.15121 -3.11864 0
2.9764 -3.45422 0
6.12173 -4.75795 0
6.61706 -5.73041 0
7.07384 -6.96963 0
-1.01253 5.78808 0
-0.365351 6.84471 0
1.11957 7.73438 0
0.559216 7.04411 0
-0.000675925 4.70954 0
0.603569 3.81855 0
1.3383 -0.642509 0
0.535897 2.64943 0
0.961411 1.57549 0
1.90635 0.21274 0
1.61162 1.06311 0
2.12237 7.55013 0
1.79262 8.67377 0
1.34749 9.91043 0
3.79817 -4.31667 0
5.08352 -4.40986 0
5.81521 -3.90545 0
3.76385 -3.17897 0
1.80911 -1.88159 0
3.00737 -2.56243 0
6.7509 -3.92411 0
7.34719 -4.86929 0
7.93756 -5.99942 0
0.483579 5.85358 0
1.42419 6.71132 0
2.36565 6.64135 0
1.20468 4.54094 0
1.48283 3.38698 0
2.43007 -0.691223 0
2.82002 0.14177 0
1.7843 2.16036 0
2.60649 1.14756 0
3.06211 7.13907 0
2.89339 8.34151 0
2.62677 9.65793 0
4.8856 -3.30258 0
6.09265 -3.08817 0
4.15517 -2.26509 0
3.23505 -1.50033 0
6.70291 -2.30372 0
7.20118 -3.0286 0
7.93329 -3.89566 0
8.66688 -4.92689 0
2.01714 5.57849 0
3.06904 6.12491 0
2.35624 4.11205 0
2.4138 3.05209 0
3.51504 -0.458914 0
3.60454 0.612762 0
2.95379 2.28178 0
3.53328 1.52199 0
3.98539 5.86759 0
3.96448 6.76241 0
3.95902 7.90606 0
3.86241 9.24204 0
5.54635 -1.90822 0
4.49377 -1.12508 0
6.68518 -1.32981 0
7.56176 -2.02825 0
8.36146 -2.85171 0
9.24272 -3.76068 0
3.39725 4.85242 0
3.32375 3.37043 0
4.67354 0.131311 0
4.49549 1.30278 0
4.04191 2.42902 0
4.53518 5.1216 0
4.81224 6.15907 0
4.95696 7.34405 0
5.02801 8.66527 0
5.85529 -0.434431 0
6.97527 -0.487641 0
7.72456 -1.07727 0
8.6475 -1.73618 0
9.65889 -2.5249 0
4.52007 3.80451 0
5.78261 1.08688 0
5.33204 2.51658 0
5.33451 4.58857 0
5.57119 5.48971 0
5.86313 6.63533 0
6.10048 7.937 0
6.80349 0.455364 0
7.81419 -0.0253514 0
8.81999 -0.579868 0
9.91081 -1.24489 0
6.91468 1.33399 0
5.67412 3.74967 0
6.49366 2.17488 0
6.32787 3.0606 0
6.24113 4.65324 0
6.6448 5.80233 0
7.07314 7.0762 0
7.73951 0.957566 0
8.8128 0.568966 0
9.99155 0.0536024 0
7.56387 1.98577 0
6.76822 3.86942 0
7.21228 2.91845 0
7.32494 4.85187 0
7.93398 6.09986 0
8.66851 1.71492 0
9.89683 1.34628 0
8.35929 2.81509 0
7.92552 3.88757 0
8.65803 5.01915 0
9.64391 2.62109 0
9.23088 3.85306 0
CELLS 542 2168
3 2 0 4
3 0 1 7
3 4 0 7
3 1 5 8
3 7 1 8
3 3 2 13
3 13 2 4
3 11 3 14
3 14 3 13
3 13 4 15
3 4 7 16
3 15 4 16
3 5 6 17
3 8 5 17
3 6 9 18
3 17 6 18
3 7 8 19
3 16 7 19
3 8 17 20
3 19 8 20
3 9 10 23
3 18 9 23
3 10 21 24
3 23 10 24
3 12 11 25
3 25 11 14
3 26 12 27
3 27 12 25
3 14 13 29
3 29 13 15
3 25 14 30
3 30 14 29
3 29 15 31
3 15 16 33
3 31 15 33
3 16 19 34
3 33 16 34
3 17 18 35
3 20 17 35
3 18 23 36
3 35 18 36
3 19 20 37
3 34 19 37
3 20 35 38
3 37 20 38
3 21 22 39
3 24 21 39
3 22 32 40
3 39 22 40
3 23 24 41
3 36 23 41
3 24 39 42
3 41 24 42
3 27 25 44
3 44 25 30
3 28 26 45
3 45 26 27
3 45 27 46
3 46 27 44
3 47 28 48
3 48 28 45
3 30 29 50
3 50 29 31
3 44 30 51
3 51 30 50
3 50 31 52
3 31 33 52
3 32 43 53
3 40 32 53
3 53 43 54
3 33 34 55
3 34 37 55
3 33 55 52
3 35 36 56
3 38 35 56
3 36 41 57
3 56 36 57
3 37 38 58
3 38 56 58
3 37 58 55
3 39 40 59
3 42 39 59
3 40 53 60
3 59 40 60
3 41 42 61
3 57 41 61
3 42 59 62
3 61 42 62
3 43 63 54
3 46 44 64
3 64 44 51
3 48 45 65
3 65 45 46
3 65 46 66
3 66 46 64
3 49 47 67
3 67 47 48
3 67 48 68
3 68 48 65
3 69 49 70
3 70 49 67
3 52 55 72
3 64 51 73
3 51 50 73
3 50 52 73
3 73 52 74
3 74 52 72
3 53 54 75
3 60 53 75
3 54 63 76
3 54 76 77
3 75 54 77
3 55 58 78
3 72 55 78
3 72 78 79
3 56 57 80
3 57 61 80
3 56 80 58
3 58 80 81
3 78 58 81
3 59 60 82
3 62 59 82
3 60 75 83
3 82 60 83
3 61 62 84
3 62 82 84
3 61 84 80
3 63 85 76
3 66 64 86
3 64 73 86
3 68 65 87
3 87 65 66
3 87 66 86
3 70 67 88
3 88 67 68
3 88 68 89
3 89 68 87
3 71 69 90
3 90 69 70
3 90 70 91
3 91 70 88
3 92 71 93
3 93 71 90
3 74 72 94
3 94 72 79
3 86 73 95
3 95 73 74
3 95 74 96
3 96 74 94
3 97 86 95
3 76 85 99
3 75 77 100
3 83 75 100
3 76 99 101
3 77 76 101
3 77 101 102
3 100 77 102
3 94 79 103
3 78 81 104
3 79 78 104
3 79 104 103
3 80 84 105
3 81 80 105
3 81 105 106
3 104 81 106
3 82 83 107
3 83 100 107
3 82 107 84
3 84 107 108
3 105 84 108
3 85 109 99
3 89 87 110
3 87 86 110
3 110 86 97
3 91 88 111
3 111 88 89
3 111 89 110
3 93 90 112
3 112 90 91
3 112 91 113
3 113 91 111
3 98 92 114
3 114 92 93
3 114 93 115
3 115 93 112
3 116 98 114
3 117 103 118
3 96 94 119
3 94 103 119
3 119 103 117
3 97 95 120
3 120 95 96
3 120 96 119
3 121 110 97
3 121 97 122
3 122 97 120
3 123 119 117
3 124 98 116
3 99 109 125
3 99 125 126
3 101 99 126
3 100 102 127
3 100 127 107
3 101 126 128
3 102 101 128
3 102 128 127
3 104 106 129
3 104 129 103
3 103 129 118
3 105 108 130
3 106 105 130
3 106 130 129
3 107 127 131
3 108 107 131
3 108 131 132
3 108 132 130
3 109 134 125
3 125 134 133
3 113 111 135
3 111 110 135
3 135 110 121
3 115 112 136
3 136 112 113
3 136 113 135
3 116 114 137
3 137 114 115
3 137 115 138
3 138 115 136
3 139 124 116
3 139 116 140
3 140 116 137
3 141 135 121
3 118 129 142
3 118 142 143
3 117 118 143
3 123 117 143
3 122 120 144
3 120 119 144
3 144 119 123
3 141 121 145
3 145 121 122
3 145 122 144
3 146 141 145
3 147 144 123
3 147 123 148
3 143 148 123
3 150 124 139
3 149 150 139
3 131 127 151
3 125 133 152
3 126 125 152
3 126 152 153
3 128 126 153
3 128 153 154
3 128 154 127
3 127 154 151
3 152 133 155
3 130 132 156
3 130 156 129
3 129 156 142
3 131 151 157
3 132 131 157
3 132 157 156
3 156 158 142
3 157 151 159
3 133 160 155
3 134 161 133
3 133 161 160
3 138 136 162
3 136 135 162
3 162 135 141
3 140 137 163
3 163 137 138
3 163 138 162
3 149 139 164
3 164 139 140
3 164 140 165
3 165 140 163
3 166 149 164
3 167 162 141
3 167 141 146
3 142 158 168
3 143 142 168
3 143 168 148
3 146 145 169
3 145 144 169
3 169 144 147
3 170 167 146
3 170 146 169
3 171 169 147
3 171 147 148
3 171 148 172
3 168 172 148
3 173 149 166
3 174 150 149
3 173 174 149
3 154 175 151
3 151 175 159
3 152 155 176
3 153 152 176
3 153 176 177
3 153 177 154
3 154 177 175
3 155 160 178
3 155 178 179
3 176 155 179
3 156 157 180
3 156 180 158
3 157 159 181
3 157 181 180
3 158 180 182
3 158 182 168
3 159 175 183
3 159 183 181
3 175 184 183
3 160 186 178
3 178 186 185
3 161 187 160
3 160 187 186
3 165 163 188
3 163 162 188
3 188 162 167
3 166 164 189
3 189 164 165
3 189 165 188
3 190 173 166
3 190 166 191
3 191 166 189
3 192 188 167
3 192 167 170
3 193 192 170
3 182 194 168
3 194 172 168
3 193 170 195
3 170 169 195
3 195 169 171
3 196 195 171
3 196 171 172
3 194 197 172
3 197 198 172
3 198 196 172
3 200 173 190
3 199 200 190
3 201 174 173
3 200 201 173
3 176 179 202
3 177 176 202
3 177 202 175
3 175 202 184
3 178 185 203
3 178 203 179
3 179 203 202
3 203 185 204
3 202 205 184
3 183 206 181
3 180 181 206
3 180 206 182
3 182 206 194
3 183 184 207
3 205 207 184
3 183 207 206
3 185 208 204
3 186 209 185
3 185 209 208
3 187 210 186
3 186 210 209
3 191 189 211
3 189 188 211
3 211 188 192
3 199 190 212
3 212 190 191
3 212 191 211
3 213 199 212
3 214 211 192
3 214 192 193
3 215 214 193
3 215 193 195
3 206 216 194
3 216 197 194
3 216 217 197
3 215 195 218
3 218 195 196
3 198 218 196
3 217 219 197
3 219 218 198
3 197 219 198
3 220 199 213
3 221 200 199
3 220 221 199
3 222 201 200
3 221 222 200
3 203 204 223
3 203 223 202
3 202 223 205
3 204 208 224
3 204 224 223
3 205 223 225
3 205 225 207
3 207 225 226
3 207 226 206
3 226 216 206
3 208 228 224
3 224 228 227
3 209 229 208
3 229 228 208
3 210 230 209
3 209 230 229
3 213 212 231
3 212 211 231
3 231 211 214
3 232 220 213
3 232 213 231
3 233 231 214
3 233 214 215
3 234 233 215
3 234 215 218
3 226 235 216
3 235 217 216
3 235 236 217
3 217 236 219
3 237 234 218
3 237 218 219
3 236 238 219
3 238 237 219
3 240 220 232
3 239 240 232
3 241 221 220
3 240 241 220
3 242 222 221
3 241 242 221
3 224 227 243
3 224 243 223
3 223 243 225
3 225 243 244
3 225 244 226
3 226 244 235
3 227 245 243
3 228 246 227
3 227 246 245
3 229 247 228
3 228 247 246
3 230 248 229
3 229 248 247
3 239 232 249
3 232 231 249
3 249 231 233
3 250 249 233
3 250 233 234
3 237 250 234
3 244 251 235
3 235 251 236
3 251 252 236
3 236 252 238
3 252 253 238
3 253 250 237
3 253 237 238
3 254 239 249
3 255 240 239
3 254 255 239
3 256 241 240
3 255 256 240
3 257 242 241
3 256 257 241
3 245 258 243
3 243 258 244
3 244 258 251
3 245 259 258
3 246 260 245
3 245 260 259
3 247 261 246
3 246 261 260
3 248 262 247
3 247 262 261
3 254 249 263
3 263 249 250
3 253 263 250
3 258 264 251
3 251 264 252
3 264 265 252
3 265 263 253
3 252 265 253
3 266 254 263
3 267 255 254
3 266 267 254
3 268 256 255
3 267 268 255
3 269 257 256
3 268 269 256
3 259 270 258
3 270 264 258
3 260 271 259
3 259 271 270
3 261 272 260
3 260 272 271
3 262 273 261
3 273 272 261
3 270 274 264
3 275 266 263
3 275 263 265
3 274 276 264
3 276 265 264
3 276 277 265
3 277 275 265
3 278 267 266
3 275 278 266
3 279 268 267
3 278 279 267
3 280 269 268
3 279 280 268
3 271 281 270
3 270 281 274
3 272 282 271
3 271 282 281
3 273 283 272
3 272 283 282
3 281 284 274
3 274 284 276
3 285 278 275
3 277 285 275
3 284 286 276
3 286 285 277
3 276 286 277
3 287 279 278
3 285 287 278
3 288 280 279
3 287 288 279
3 282 289 281
3 281 289 284
3 283 290 282
3 282 290 289
3 289 291 284
3 284 291 286
3 291 292 286
3 292 287 285
3 286 292 285
3 293 288 287
3 292 293 287
3 290 294 289
3 289 294 291
3 294 295 291
3 295 293 292
3 291 295 292
CELL_TYPES 542
5
5
5
5
5
5
5
5
5
5
5
5
5
5
5
5
5
5
5
5
5
5
5
5
5
5
5
5
5
5
5
5
5
5
5
5
5
5
5
5
5
5
5
5
5
5
5
5
5
5
5
5
5
5
5
5
5
5
5
5
5
5
5
5
5
5
5
5
5
5
5
5
5
5
5
5
5
5
5
5
5
5
5
5
5
5
5
5
5
5
5
5
5
5
5
5
5
5
5
5
5
5
5
5
5
5
5
5
5
5
5
5
5
5
5
5
5
5
5
5
5
5
5
5
5
5
5
5
5
5
5
5
5
5
5
5
5
5
5
5
5
5
5
5
5
5
5
5
5
5
5
5
5
5
5
5
5
5
5
5
5
5
5
5
5
5
5
5
5
5
5
5
5
5
5
5
5
5
5
5
5
5
5
5
5
5
5
5
5
5
5
5
5
5
5
5
5
5
5
5
5
5
5
5
5
5
5
5
5
5
5
5
5
5
5
5
5
5
5
5
5
5
5
5
5
5
5
5
5
5
5
5
5
5
5
5
5
5
5
5
5
5
5
5
5
5
5
5
5
5
5
5
5
5
5
5
5
5
5
5
5
5
5
5
5
5
5
5
5
5
5
5
5
5
5
5
5
5
5
5
5
5
5
5
5
5
5
5
5
5
5
5
5
5
5
5
5
5
5
5
5
5
5
5
5
5
5
5
5
5
5
5
5
5
5
5
5
5
5
5
5
5
5
5
5
5
5
5
5
5
5
5
5
5
5
5
5
5
5
5
5
5
5
5
5
5
5
5
5
5
5
5
5
5
5
5
5
5
5
5
5
5
5
5
5
5
5
5
5
5
5
5
5
5
5
5
5
5
5
5
5
5
5
5
5
5
5
5
5
5
5
5
5
5
5
5
5
5
5
5
5
5
5
5
5
5
5
5
5
5
5
5
5
5
5
5
5
5
5
5
5
5
5
5
5
5
5
5
5
5
5
5
5
5
5
5
5
5
5
5
5
5
5
5
5
5
5
5
5
5
5
5
5
5
5
5
5
5
5
5
5
5
5
5
5
5
5
5
5
5
5
5
5
5
5
5
5
5
5
5
5
5
5
5
5
5
5
5
5
5
5
5
5
5
5
5
5
5
5
5
5
5
5
5
5
5
5
5
5
5
5
5
5
5
5
5
5
5
5
5
5
5
5
5
5
5
5
5
5
5
5
5
5
5
5
5
5
5
5
5
5
5
POINT_DATA 296
SCALARS concentrations float 4
LOOKUP_TABLE default
0 0.988078 0.195487 22.7583
0 0.988142 0.198438 11.8024
0 0.987986 0.198085 19.4674
0 0.988016 0.198309 21.9873
0 0.988037 0.0965967 0.0416817
0 0.988102 0.203108 17.4995
0 0.988023 0.197518 14.1447
0 0.988112 0.0968243 -0.197965
0 0.98813 0.0963429 -0.323773
0 0.987962 0.198602 23.7345
0 0.987904 0.188454 19.7769
0 0.988062 0.19254 8.10371
0 0.988161 0.18407 21.8491
0 0.988023 0.0958158 0.144036
0 0.988056 0.0952132 0.38673
0 0.988067 0.0959975 0.0332756
0 0.988078 0.0965692 -0.161329
0 0.988084 0.0947746 -0.339549
0 0.988047 0.0946208 -0.196707
0 0.988103 0.0963707 -0.345687
0 0.988114 0.0958608 -0.201197
0 0.988039 0.191003 14.6382
0 0.988316 0.188442 8.07263
0 0.988004 0.0943764 -0.0795593
0 0.988025 0.0936589 0.2101
0 0.988116 0.0931808 0.0731542
0 0.988088 0.184413 18.8277
0 0.988109 0.0946344 0.234828
0 0.988192 0.191155 16.7254
0 0.988086 0.0954601 0.205202
0 0.988103 0.0952093 0.399925
0 0.988089 0.0953062 0.0133637
0 0.988321 0.187973 7.554
0 0.988079 0.0951002 -0.219282
0 0.98808 0.0955722 -0.409175
0 0.988113 0.0954058 -0.128366
0 0.988109 0.0952651 -0.104233
0 0.988087 0.0953132 -0.429919
0 0.988101 0.095575 -0.110712
0 0.988182 0.0939218 0.293103
0 0.988303 0.0946993 -0.547507
0 0.988118 0.0945972 0.0744192
0 0.988152 0.0944668 0.385643
0 0.988037 0.192221 22.0434
0 0.988089 0.0963275 -0.440504
0 0.98812 0.0946644 -0.0994438
0 0.988079 0.102849 0.689688
0 0.988192 0.192607 6.77724
0 0.988203 0.0945019 -0.0939701
0 0.988121 0.183807 23.9963
0 0.9881 0.0949157 0.177929
0 0.988103 0.0947517 0.314615
0 0.988085 0.0936891 0.178382
0 0.988169 0.0949161 -0.727523
0 0.988013 0.0946687 0.210347
0 0.98808 0.0936277 -0.679097
0 0.988115 0.0945901 -0.314645
0 0.988125 0.0949186 -0.178844
0 0.988092 0.094306 -0.204619
0 0.98818 0.095251 -0.341534
0 0.988163 0.0951326 -0.0812479
0 0.988138 0.095597 0.791581
0 0.988142 0.096077 -0.165445
0 0.987901 0.194753 21.069
0 0.988093 0.096178 0.0912909
0 0.988108 0.109284 0.231313
0 0.988081 0.0972513 0.684648
0 0.988129 0.0944445 0.616844
0 0.988114 0.107244 -0.889796
0 0.988232 0.187866 11.0095
0 0.988144 0.0935949 0.825951
0 0.988252 0.189705 2.76231
0 0.988088 0.0943096 -0.0722294
0 0.988097 0.0940784 -0.508938
0 0.988095 0.0997311 0.942272
0 0.988118 0.0947264 -0.198189
0 0.987988 0.0953838 -0.145975
0 0.988112 0.0956522 -0.40304
0 0.988093 0.0951433 0.108012
0 0.988108 0.0947711 0.549084
0 0.988117 0.0941814 0.680233
0 0.988102 0.0945436 0.433806
0 0.988121 0.0962935 -0.466285
0 0.988116 0.0957078 -0.273046
0 0.988115 0.0966054 0.257891
0 0.987891 0.179906 20.5462
0 0.98811 0.0940296 0.110884
0 0.988081 0.1037 -3.38726
0 0.988096 0.0943195 0.98287
0 0.98807 0.0967902 0.313861
0 0.988202 0.106829 -2.14085
0 0.988107 0.0944403 1.28588
0 0.988283 0.181105 16.6594
0 0.988197 0.0995503 1.04413
0 0.988111 0.0951006 1.25161
0 0.988107 0.0940322 -0.417276
0 0.988113 0.0932681 0.52329
0 0.988105 0.0940999 -0.237023
0 0.988266 0.180772 15.0746
0 0.988068 0.0968215 0.316327
0 0.98812 0.0955024 -0.641164
0 0.988131 0.101784 -1.08541
0 0.988116 0.0958074 0.0142742
0 0.988131 0.0939372 0.904423
0 0.988114 0.0939381 0.668698
0 0.988111 0.0931967 0.766437
0 0.988114 0.093154 0.720097
0 0.988103 0.095498 -0.0557057
0 0.988112 0.0941352 -0.103929
0 0.988074 0.197204 17.9392
0 0.988096 0.0935355 0.202753
0 0.988085 0.0956605 0.259187
0 0.988115 0.100696 -0.633791
0 0.988082 0.0958701 0.536763
0 0.988219 0.0970629 -0.488077
0 0.988113 0.0953559 1.12285
0 0.988169 0.0948653 0.335167
0 0.988153 0.0931236 0.769904
0 0.988148 0.093336 0.416801
0 0.988135 0.0938593 0.922984
0 0.988121 0.0942827 0.463127
0 0.988092 0.0938355 -0.172565
0 0.98811 0.0944366 -0.181861
0 0.988155 0.0941548 0.88805
0 0.988118 0.194376 14.9917
0 0.98817 0.100852 1.39114
0 0.98817 0.0992532 -0.245573
0 0.9881 0.0953281 0.0494679
0 0.988106 0.0957118 -0.706951
0 0.988133 0.0940364 0.332903
0 0.988119 0.0936709 0.0264938
0 0.988107 0.0937154 0.234915
0 0.988124 0.0968858 0.43362
0 0.988157 0.102552 -4.33644
0 0.988139 0.18335 9.30045
0 0.988092 0.0943952 0.424313
0 0.988097 0.0944666 1.02693
0 0.988132 0.095165 0.92449
0 0.988109 0.0946979 0.943109
0 0.988147 0.0952411 0.986709
0 0.988162 0.0969238 1.45806
0 0.988101 0.0948573 0.0916318
0 0.988147 0.0945724 0.173665
0 0.988161 0.0938894 0.21161
0 0.988134 0.0960769 0.649463
0 0.988114 0.09415 0.21123
0 0.988123 0.0978563 1.16451
0 0.988148 0.0948198 0.954828
0 0.98816 0.0946926 -0.415811
0 0.988172 0.095489 -0.752225
0 0.988147 0.184582 1.15115
0 0.988088 0.0945184 -0.357324
0 0.988192 0.0979252 0.749595
0 0.988128 0.102726 -3.27854
0 0.988094 0.0954868 0.0472923
0 0.988177 0.0988554 1.15898
0 0.988132 0.093274 -0.133528
0 0.98811 0.0984961 2.5943
0 0.988152 0.0969996 0.901282
0 0.988096 0.102301 3.09364
0 0.98814 0.098891 -0.409882
0 0.988116 0.192947 20.8603
0 0.988105 0.0989229 -1.58655
0 0.988124 0.0996844 -0.0699438
0 0.988178 0.0956527 0.841701
0 0.988143 0.097893 -1.27903
0 0.988175 0.0944998 -0.0172206
0 0.988112 0.0946047 0.758945
0 0.988159 0.0966558 1.47621
0 0.988139 0.0965094 -0.173554
0 0.988131 0.0938504 0.242389
0 0.988152 0.0934209 0.975356
0 0.98816 0.0944873 -0.63853
0 0.988127 0.0985641 -0.650962
0 0.988127 0.195829 20.9669
0 0.9881 0.0942546 0.031125
0 0.988133 0.0962389 1.14654
0 0.988092 0.0951979 0.255363
0 0.988173 0.100851 3.99949
0 0.988141 0.109308 -3.73701
0 0.988132 0.0981444 -0.736069
0 0.988106 0.0957507 -0.361814
0 0.988149 0.095806 0.384626
0 0.988108 0.0948391 -0.160823
0 0.988101 0.0956946 -0.392322
0 0.988164 0.0977942 0.410902
0 0.988109 0.0956384 0.751808
0 0.988092 0.193726 16.4906
0 0.988115 0.0959946 0.163564
0 0.988142 0.0950926 0.609875
0 0.988186 0.0955089 0.588977
0 0.988149 0.0952858 -0.305506
0 0.988113 0.0941864 0.454975
0 0.988126 0.0945447 -0.208049
0 0.988149 0.0944657 0.0951433
0 0.988145 0.0942586 1.2404
0 0.988157 0.0933211 -0.46952
0 0.98815 0.0948261 -0.774328
0 0.988158 0.095839 0.282134
0 0.988207 0.105459 0.48128
0 0.988152 0.0954952 -0.0412965
0 0.988063 0.18403 13.8643
0 0.988099 0.0993788 2.249
0 0.988134 0.0979224 -0.386419
0 0.988141 0.099554 1.18549
0 0.988092 0.0970028 -0.692903
0 0.988124 0.0963577 0.703841
0 0.988103 0.0963826 0.885524
0 0.988144 0.0964922 0.920528
0 0.988073 0.0961446 -0.738425
0 0.988026 0.193951 16.5345
0 0.988122 0.0964496 -0.260077
0 0.98816 0.100474 -1.5204
0 0.98818 0.0975519 -0.0460515
0 0.988117 0.0959249 -0.663536
0 0.988134 0.0949597 -1.23605
0 0.988135 0.0945774 0.578567
0 0.988147 0.0964515 -1.30028
0 0.988148 0.0945909 -0.724417
0 0.988147 0.097423 -0.0564849
0 0.988177 0.0994559 0.272179
0 0.988084 0.107882 -1.48941
0 0.9881 0.181757 6.48012
0 0.988102 0.0953304 0.248385
0 0.988123 0.0959756 1.37783
0 0.988098 0.0945333 -0.837568
0 0.988116 0.093965 1.15388
0 0.988138 0.0990254 1.6549
0 0.988144 0.0955205 -1.55989
0 0.988049 0.0947491 -1.68356
0 0.987987 0.184022 7.66878
0 0.988115 0.0959556 -0.394817
0 0.988148 0.103847 -2.52543
0 0.988111 0.0940373 -1.06878
0 0.98813 0.0949009 -1.27753
0 0.98813 0.0942903 1.13826
0 0.988135 0.0976361 -2.53057
0 0.988132 0.0961823 1.33331
0 0.988125 0.0985789 1.03801
0 0.988162 0.0955806 0.274713
0 0.988171 0.0952524 0.153056
0 0.988004 0.0961635 0.287904
0 0.987898 0.184914 24.638
0 0.988101 0.099265 -2.80202
0 0.988105 0.0959858 -0.361613
0 0.988123 0.0988205 0.246453
0 0.988183 0.0977248 2.274
0 0.988119 0.0944851 -0.163832
0 0.987999 0.186308 26.5683
0 0.988104 0.094951 -0.844263
0 0.988106 0.0968888 0.647315
0 0.988101 0.10511 -1.83009
0 0.988102 0.0948714 -1.3592
0 0.988112 0.0961272 0.103903
0 0.988147 0.0963993 0.49036
0 0.988188 0.0953907 0.636112
0 0.988086 0.0952756 0.0920488
0 0.987971 0.191508 24.6535
0 0.988088 0.0992818 -3.26148
0 0.988117 0.0958861 -2.41237
0 0.988207 0.0954728 -1.31683
0 0.988246 0.0949533 -1.76009
0 0.988175 0.189552 5.70977
0 0.98811 0.0979275 -2.4558
0 0.988091 0.0964474 2.64386
0 0.988105 0.0966056 -2.00964
0 0.988154 0.0969503 0.327283
0 0.988204 0.0972045 1.94029
0 0.988127 0.0956696 1.12799
0 0.988035 0.185893 11.8787
0 0.988106 0.0959871 -1.73326
0 0.988184 0.0952588 2.13064
0 0.988305 0.0955921 1.38723
0 0.98832 0.180324 -1.5366
0 0.988114 0.0972906 1.32812
0 0.988136 0.0972816 0.815097
0 0.988114 0.0969774 2.2147
0 0.988129 0.0974858 -0.272753
0 0.988201 0.0973416 0.810096
0 0.988166 0.0967087 1.92875
0 0.988087 0.191613 11.8186
0 0.988155 0.0961278 2.67801
0 0.988214 0.0950701 -0.618427
0 0.988317 0.187785 8.22132
0 0.988166 0.0972503 1.80687
0 0.988205 0.104748 3.51084
0 0.988198 0.0997838 -4.21492
0 0.988202 0.0973846 1.09711
0 0.988131 0.19089 8.98467
0 0.988163 0.095461 0.0243309
0 0.988155 0.192401 7.1585
0 0.988254 0.0979627 -1.79393
0 0.988295 0.0978438 1.76217
0 0.988251 0.192788 11.4988
0 0.988211 0.191686 11.5169
0 0.988333 0.186126 3.75402
VECTORS fa_u float
0.00634241 0.00260455 -0
0.00584961 0.00337276 -0
0.00534293 0.00143771 -0
0.00667937 0.00091768 -0
1e-08 0 0
0.00518923 0.00398408 -0
0.00409167 0.0040587 -0
1e-08 0 0
1e-08 0 0
0.00409494 0.00525183 -0
0.00367997 0.00632149 -0
0.00652701 3.24462e-05 -0
0.00643196 -0.00081005 0
1e-08 0 0
1e-08 0 0
1e-08 0 0
1e-08 0 0
1e-08 0 0
1e-08 0 0
1e-08 0 0
1e-08 0 0
0.00263282 0.0063874 -0
0.00166552 0.00629847 -0
1e-08 0 0
1e-08 0 0
1e-08 0 0
0.00685344 -0.00181059 0
1e-08 0 0
0.00706304 -0.00296256 0
1e-08 0 0
1e-08 0 0
1e-08 0 0
0.000853799 0.00668763 -0
1e-08 0 0
1e-08 0 0
1e-08 0 0
1e-08 0 0
1e-08 0 0
1e-08 0 0
1e-08 0 0
1e-08 0 0
1e-08 0 0
1e-08 0 0
-3.78738e-05 0.00672806 -0
1e-08 0 0
1e-08 0 0
1e-08 0 0
0.00578577 -0.00342297 0
1e-08 0 0
0.00438592 -0.00340755 0
1e-08 0 0
1e-08 0 0
1e-08 0 0
1e-08 0 0
1e-08 0 0
1e-08 0 0
1e-08 0 0
1e-08 0 0
1e-08 0 0
1e-08 0 0
1e-08 0 0
1e-08 0 0
1e-08 0 0
-0.000788306 0.00584849 0
1e-08 0 0
1e-08 0 0
1e-08 0 0
1e-08 0 0
1e-08 0 0
0.00428052 -0.00426495 0
1e-08 0 0
0.00370759 -0.00475929 0
1e-08 0 0
1e-08 0 0
1e-08 0 0
1e-08 0 0
1e-08 0 0
1e-08 0 0
1e-08 0 0
1e-08 0 0
1e-08 0 0
1e-08 0 0
1e-08 0 0
1e-08 0 0
1e-08 0 0
-0.00162843 0.00611836 0
1e-08 0 0
1e-08 0 0
1e-08 0 0
1e-08 0 0
1e-08 0 0
1e-08 0 0
0.0037785 -0.00646022 0
1e-08 0 0
1e-08 0 0
1e-08 0 0
1e-08 0 0
1e-08 0 0
0.00277361 -0.00674131 0
1e-08 0 0
1e-08 0 0
1e-08 0 0
1e-08 0 0
1e-08 0 0
1e-08 0 0
1e-08 0 0
1e-08 0 0
1e-08 0 0
1e-08 0 0
-0.0025723 0.00624491 0
1e-08 0 0
1e-08 0 0
1e-08 0 0
1e-08 0 0
1e-08 0 0
1e-08 0 0
1e-08 0 0
1e-08 0 0
1e-08 0 0
1e-08 0 0
1e-08 0 0
1e-08 0 0
1e-08 0 0
1e-08 0 0
0.00157972 -0.00599186 0
1e-08 0 0
1e-08 0 0
1e-08 0 0
1e-08 0 0
1e-08 0 0
1e-08 0 0
1e-08 0 0
1e-08 0 0
1e-08 0 0
-0.00339573 0.00588 0
1e-08 0 0
1e-08 0 0
1e-08 0 0
1e-08 0 0
1e-08 0 0
1e-08 0 0
1e-08 0 0
1e-08 0 0
1e-08 0 0
1e-08 0 0
1e-08 0 0
1e-08 0 0
1e-08 0 0
1e-08 0 0
1e-08 0 0
0.000780888 -0.00587931 0
1e-08 0 0
1e-08 0 0
1e-08 0 0
1e-08 0 0
1e-08 0 0
1e-08 0 0
1e-08 0 0
1e-08 0 0
1e-08 0 0
1e-08 0 0
-0.00408938 0.00530855 0
1e-08 0 0
1e-08 0 0
1e-08 0 0
1e-08 0 0
1e-08 0 0
1e-08 0 0
1e-08 0 0
1e-08 0 0
1e-08 0 0
1e-08 0 0
1e-08 0 0
1e-08 0 0
2.32195e-05 -0.00672693 0
1e-08 0 0
1e-08 0 0
1e-08 0 0
1e-08 0 0
1e-08 0 0
1e-08 0 0
1e-08 0 0
1e-08 0 0
1e-08 0 0
1e-08 0 0
1e-08 0 0
1e-08 0 0
-0.00394929 0.00396908 0
1e-08 0 0
1e-08 0 0
1e-08 0 0
1e-08 0 0
1e-08 0 0
1e-08 0 0
1e-08 0 0
1e-08 0 0
1e-08 0 0
1e-08 0 0
1e-08 0 0
1e-08 0 0
1e-08 0 0
-0.00085779 -0.00662028 0
1e-08 0 0
1e-08 0 0
1e-08 0 0
1e-08 0 0
1e-08 0 0
1e-08 0 0
1e-08 0 0
1e-08 0 0
-0.00513356 0.00400344 0
1e-08 0 0
1e-08 0 0
1e-08 0 0
1e-08 0 0
1e-08 0 0
1e-08 0 0
1e-08 0 0
1e-08 0 0
1e-08 0 0
1e-08 0 0
1e-08 0 0
-0.0016537 -0.0062223 0
1e-08 0 0
1e-08 0 0
1e-08 0 0
1e-08 0 0
1e-08 0 0
1e-08 0 0
1e-08 0 0
-0.00635613 0.00370553 0
1e-08 0 0
1e-08 0 0
1e-08 0 0
1e-08 0 0
1e-08 0 0
1e-08 0 0
1e-08 0 0
1e-08 0 0
1e-08 0 0
1e-08 0 0
1e-08 0 0
-0.00265668 -0.00642648 0
1e-08 0 0
1e-08 0 0
1e-08 0 0
1e-08 0 0
1e-08 0 0
-0.00633034 0.0026144 0
1e-08 0 0
1e-08 0 0
1e-08 0 0
1e-08 0 0
1e-08 0 0
1e-08 0 0
1e-08 0 0
1e-08 0 0
-0.00362839 -0.00622248 0
1e-08 0 0
1e-08 0 0
1e-08 0 0
1e-08 0 0
-0.00628891 0.00167007 0
1e-08 0 0
1e-08 0 0
1e-08 0 0
1e-08 0 0
1e-08 0 0
1e-08 0 0
-0.0038559 -0.00496253 0
1e-08 0 0
1e-08 0 0
1e-08 0 0
-0.00663081 0.000855451 0
1e-08 0 0
1e-08 0 0
1e-08 0 0
1e-08 0 0
1e-08 0 0
1e-08 0 0
-0.00415289 -0.00414468 0
1e-08 0 0
1e-08 0 0
-0.00701526 -3.78381e-05 0
1e-08 0 0
1e-08 0 0
1e-08 0 0
1e-08 0 0
-0.00531023 -0.00409136 0
1e-08 0 0
-0.00573122 -0.000776013 0
1e-08 0 0
1e-08 0 0
-0.00592907 -0.00342237 0
-0.00603637 -0.00160363 0
-0.00628619 -0.00258434 0
