# vtk DataFile Version 2.0
CellBP Time: 9.88
ASCII
DATASET UNSTRUCTURED_GRID
POINTS 296 double
-8.92895 -3.65571 0
-8.37187 -4.80608 0
-9.31809 -2.43519 0
-9.59577 -1.2095 0
-8.08471 -2.70682 0
-7.65667 -5.87037 0
-6.80947 -6.83286 0
-7.64651 -3.72613 0
-7.08608 -4.69856 0
-5.88718 -7.7004 0
-4.86154 -8.43264 0
-9.70463 0.0379145 0
-9.65034 1.31235 0
-8.40531 -1.6194 0
-8.56332 -0.503956 0
-7.334 -1.91379 0
-6.96005 -2.77547 0
-6.43291 -5.61667 0
-5.66674 -6.43432 0
-6.53337 -3.73604 0
-5.99976 -4.52119 0
-3.7135 -8.99631 0
-2.48633 -9.39453 0
-4.79387 -7.15179 0
-3.84594 -7.73628 0
-8.57939 0.630534 0
-9.43162 2.58868 0
-8.43724 1.72826 0
-9.02235 3.80328 0
-7.50991 -0.881689 0
-7.57959 0.0900365 0
-6.72705 -1.2512 0
-1.21538 -9.6311 0
-6.23368 -2.06438 0
-6.10082 -2.93599 0
-5.36229 -5.32093 0
-4.66561 -5.96666 0
-5.46701 -3.62742 0
-5.08627 -4.42408 0
-2.81642 -8.19728 0
-1.74494 -8.45607 0
-3.83705 -6.58171 0
-3.01049 -7.01461 0
0.0554708 -9.69007 0
-7.50507 1.11471 0
-8.1819 2.85726 0
-7.36863 2.04753 0
-8.4083 4.92136 0
-7.69753 3.87741 0
-7.64884 5.95509 0
-6.5781 -0.367331 0
-6.75702 0.548687 0
-5.6154 -0.967867 0
-0.580471 -8.60288 0
0.542707 -8.53345 0
-5.15117 -2.39798 0
-4.34157 -4.9562 0
-3.79236 -5.63762 0
-4.31199 -3.70261 0
-2.02453 -7.4057 0
-1.11415 -7.61381 0
-2.92666 -5.96954 0
-2.26858 -6.48385 0
1.30892 -9.57211 0
-6.5132 1.38043 0
-6.98365 3.02459 0
-6.489 2.30265 0
-7.10199 4.84646 0
-6.54135 3.88249 0
-6.80834 6.90073 0
-6.38778 5.72187 0
-5.86621 7.75718 0
-4.3711 -1.16612 0
-5.67405 0.490351 0
-4.56973 -0.0278 0
-0.00479742 -7.64769 0
1.67973 -8.38285 0
0.901566 -7.53805 0
-3.957 -2.35195 0
-3.45376 -1.37908 0
-3.21413 -4.6985 0
-3.2137 -3.20494 0
-1.3645 -6.52253 0
-0.51975 -6.84823 0
-1.94555 -5.42799 0
2.55689 -9.32593 0
-5.3769 1.98917 0
-5.93763 2.97866 0
-5.94184 4.72083 0
-5.60658 3.86214 0
-5.59445 6.51634 0
-5.30122 5.44572 0
-4.8396 8.50941 0
-4.69813 7.18056 0
-3.45866 -0.419162 0
-4.35931 1.22416 0
-3.64816 0.584802 0
-3.97859 2.29364 0
-3.70336 9.07713 0
2.75504 -8.05089 0
0.371581 -6.59598 0
1.92895 -7.27763 0
1.23178 -6.68669 0
-2.42452 -0.860636 0
-2.81018 -2.10377 0
-2.26216 -4.02044 0
-2.29691 -2.92504 0
-0.451752 -5.71567 0
-1.19997 -4.41702 0
3.76703 -8.93427 0
-4.66776 3.29981 0
-4.94899 4.44874 0
-4.51461 6.07917 0
-4.41304 5.19179 0
-3.74678 7.78254 0
-3.7074 6.62213 0
-2.70781 8.1864 0
-1.63404 -0.121987 0
-1.43367 -0.873421 0
-2.46942 0.517222 0
-3.2007 1.43454 0
-3.17287 3.25999 0
-2.86508 2.3574 0
-1.34985 0.638118 0
-2.4835 9.46033 0
3.78998 -7.62055 0
2.83289 -6.8903 0
0.896731 -5.65289 0
1.97665 -6.19226 0
-1.66093 -1.97327 0
-1.414 -3.23141 0
0.0778355 -4.64163 0
-0.552174 -3.63606 0
4.76884 -7.0644 0
4.90872 -8.37745 0
-3.68182 4.43018 0
-3.63204 5.58222 0
-2.79465 7.06139 0
-2.92543 6.16137 0
-1.61901 8.50651 0
-1.87826 7.40544 0
-2.29715 3.97428 0
-0.719869 -1.31452 0
-0.82811 -0.243484 0
-1.9303 1.69423 0
-2.10121 2.85402 0
-1.29635 3.50483 0
-0.871277 1.36107 0
-0.284942 0.4645 0
-0.521407 8.65829 0
-1.22417 9.69618 0
1.0667 -4.45394 0
3.74488 -6.44199 0
2.86303 -5.86669 0
2.03138 -5.24456 0
4.61971 -5.96526 0
-0.547281 -2.45462 0
0.488708 -3.40836 0
0.0609246 -1.60018 0
1.4428 -3.59248 0
5.69198 -6.39224 0
5.96998 -7.66289 0
-2.41393 5.20906 0
-2.05994 6.34728 0
-0.871123 7.60876 0
-1.21942 6.74078 0
0.0917498 7.7008 0
-1.12576 4.41309 0
0.148463 -0.611392 0
-0.810012 2.49415 0
-0.344998 3.57129 0
0.0512794 1.51571 0
0.731689 0.474603 0
0.629038 8.68613 0
0.0417384 9.80612 0
2.30247 -4.15443 0
3.72076 -5.4251 0
2.89513 -5.03019 0
5.41731 -5.305 0
4.5416 -5.07581 0
0.633387 -2.28281 0
1.23854 -2.9039 0
0.758894 -1.38731 0
2.11601 -3.06526 0
2.91922 -3.38084 0
6.00501 -4.64516 0
6.48353 -5.60035 0
6.9242 -6.80572 0
-0.989101 5.68231 0
-0.343068 6.71249 0
1.10246 7.61319 0
0.562797 6.92246 0
-0.00289808 4.65314 0
0.592118 3.78236 0
1.33181 -0.642085 0
0.521925 2.63693 0
0.949864 1.57677 0
1.89029 0.207992 0
1.59636 1.06037 0
2.09562 7.43736 0
1.76709 8.53773 0
1.32232 9.73608 0
3.71443 -4.20272 0
4.97908 -4.28354 0
5.70924 -3.80793 0
3.69984 -3.10764 0
1.79583 -1.87653 0
2.9656 -2.52352 0
6.63912 -3.84151 0
7.21687 -4.77598 0
7.78965 -5.87587 0
0.480291 5.76165 0
1.41061 6.6072 0
2.33805 6.54724 0
1.18784 4.48546 0
1.46269 3.35181 0
2.407 -0.689256 0
2.7916 0.138586 0
1.76562 2.14859 0
2.58828 1.13832 0
3.02437 7.03957 0
2.85804 8.21443 0
2.58921 9.49311 0
4.80067 -3.22208 0
5.99314 -3.02362 0
4.09714 -2.22856 0
3.19604 -1.48847 0
6.6089 -2.27308 0
7.09889 -2.98136 0
7.81631 -3.84015 0
8.52613 -4.85185 0
1.9957 5.50065 0
3.00871 6.02897 0
2.3333 4.06122 0
2.38899 3.01664 0
3.47662 -0.452453 0
3.56749 0.614067 0
2.92554 2.25788 0
3.48433 1.50439 0
3.89814 5.7644 0
3.89545 6.65354 0
3.90728 7.78731 0
3.81307 9.0901 0
5.47078 -1.87842 0
4.43684 -1.10726 0
6.58647 -1.30975 0
7.44931 -1.99882 0
8.23617 -2.80998 0
9.09461 -3.70928 0
3.32238 4.7705 0
3.26687 3.31622 0
4.61058 0.133244 0
4.4188 1.27792 0
3.96369 2.38259 0
4.41814 5.01719 0
4.70694 6.04932 0
4.86944 7.21957 0
4.95543 8.5217 0
5.75813 -0.435451 0
6.85566 -0.487086 0
7.60825 -1.05779 0
8.51036 -1.70637 0
9.49518 -2.48305 0
4.41174 3.72424 0
5.66144 1.05165 0
5.20448 2.4516 0
5.18739 4.48065 0
5.43169 5.3768 0
5.74459 6.50384 0
5.98042 7.78905 0
6.66823 0.428261 0
7.67411 -0.030567 0
8.66959 -0.559696 0
9.73555 -1.21324 0
6.76107 1.28512 0
5.51825 3.65515 0
6.33003 2.10127 0
6.15492 2.9691 0
6.06728 4.53668 0
6.48665 5.66941 0
6.91684 6.93199 0
7.57988 0.928922 0
8.63733 0.559941 0
9.7993 0.0630547 0
7.38909 1.9261 0
6.56557 3.75322 0
7.01543 2.82736 0
7.14592 4.734 0
7.77435 5.97957 0
8.48039 1.67666 0
9.67747 1.31618 0
8.14603 2.7411 0
7.73121 3.79255 0
8.48966 4.92065 0
9.4348 2.56622 0
9.04491 3.7774 0
CELLS 542 2168
3 2 0 4
3 0 1 7
3 4 0 7
3 1 5 8
3 7 1 8
3 3 2 13
3 13 2 4
3 11 3 14
3 14 3 13
3 13 4 15
3 4 7 16
3 15 4 16
3 5 6 17
3 8 5 17
3 6 9 18
3 17 6 18
3 7 8 19
3 16 7 19
3 8 17 20
3 19 8 20
3 9 10 23
3 18 9 23
3 10 21 24
3 23 10 24
3 12 11 25
3 25 11 14
3 26 12 27
3 27 12 25
3 14 13 29
3 29 13 15
3 25 14 30
3 30 14 29
3 29 15 31
3 15 16 33
3 31 15 33
3 16 19 34
3 33 16 34
3 17 18 35
3 20 17 35
3 18 23 36
3 35 18 36
3 19 20 37
3 34 19 37
3 20 35 38
3 37 20 38
3 21 22 39
3 24 21 39
3 22 32 40
3 39 22 40
3 23 24 41
3 36 23 41
3 24 39 42
3 41 24 42
3 27 25 44
3 44 25 30
3 28 26 45
3 45 26 27
3 45 27 46
3 46 27 44
3 47 28 48
3 48 28 45
3 30 29 50
3 50 29 31
3 44 30 51
3 51 30 50
3 50 31 52
3 31 33 52
3 32 43 53
3 40 32 53
3 53 43 54
3 33 34 55
3 34 37 55
3 33 55 52
3 35 36 56
3 38 35 56
3 36 41 57
3 56 36 57
3 37 38 58
3 38 56 58
3 37 58 55
3 39 40 59
3 42 39 59
3 40 53 60
3 59 40 60
3 41 42 61
3 57 41 61
3 42 59 62
3 61 42 62
3 43 63 54
3 46 44 64
3 64 44 51
3 48 45 65
3 65 45 46
3 65 46 66
3 66 46 64
3 49 47 67
3 67 47 48
3 67 48 68
3 68 48 65
3 69 49 70
3 70 49 67
3 52 55 72
3 64 51 73
3 51 50 73
3 50 52 73
3 73 52 74
3 74 52 72
3 53 54 75
3 60 53 75
3 54 63 76
3 54 76 77
3 75 54 77
3 55 58 78
3 72 55 78
3 72 78 79
3 56 57 80
3 57 61 80
3 56 80 58
3 58 80 81
3 78 58 81
3 59 60 82
3 62 59 82
3 60 75 83
3 82 60 83
3 61 62 84
3 62 82 84
3 61 84 80
3 63 85 76
3 66 64 86
3 64 73 86
3 68 65 87
3 87 65 66
3 87 66 86
3 70 67 88
3 88 67 68
3 88 68 89
3 89 68 87
3 71 69 90
3 90 69 70
3 90 70 91
3 91 70 88
3 92 71 93
3 93 71 90
3 74 72 94
3 94 72 79
3 86 73 95
3 95 73 74
3 95 74 96
3 96 74 94
3 97 86 95
3 76 85 99
3 75 77 100
3 83 75 100
3 76 99 101
3 77 76 101
3 77 101 102
3 100 77 102
3 94 79 103
3 78 81 104
3 79 78 104
3 79 104 103
3 80 84 105
3 81 80 105
3 81 105 106
3 104 81 106
3 82 83 107
3 83 100 107
3 82 107 84
3 84 107 108
3 105 84 108
3 85 109 99
3 89 87 110
3 87 86 110
3 110 86 97
3 91 88 111
3 111 88 89
3 111 89 110
3 93 90 112
3 112 90 91
3 112 91 113
3 113 91 111
3 98 92 114
3 114 92 93
3 114 93 115
3 115 93 112
3 116 98 114
3 117 103 118
3 96 94 119
3 94 103 119
3 119 103 117
3 97 95 120
3 120 95 96
3 120 96 119
3 121 110 97
3 121 97 122
3 122 97 120
3 123 119 117
3 124 98 116
3 99 109 125
3 99 125 126
3 101 99 126
3 100 102 127
3 100 127 107
3 101 126 128
3 102 101 128
3 102 128 127
3 104 106 129
3 104 129 103
3 103 129 118
3 105 108 130
3 106 105 130
3 106 130 129
3 107 127 131
3 108 107 131
3 108 131 132
3 108 132 130
3 109 134 125
3 125 134 133
3 113 111 135
3 111 110 135
3 135 110 121
3 115 112 136
3 136 112 113
3 136 113 135
3 116 114 137
3 137 114 115
3 137 115 138
3 138 115 136
3 139 124 116
3 139 116 140
3 140 116 137
3 141 135 121
3 118 129 142
3 118 142 143
3 117 118 143
3 123 117 143
3 122 120 144
3 120 119 144
3 144 119 123
3 141 121 145
3 145 121 122
3 145 122 144
3 146 141 145
3 147 144 123
3 147 123 148
3 143 148 123
3 150 124 139
3 149 150 139
3 131 127 151
3 125 133 152
3 126 125 152
3 126 152 153
3 128 126 153
3 128 153 154
3 128 154 127
3 127 154 151
3 152 133 155
3 130 132 156
3 130 156 129
3 129 156 142
3 131 151 157
3 132 131 157
3 132 157 156
3 156 158 142
3 157 151 159
3 133 160 155
3 134 161 133
3 133 161 160
3 138 136 162
3 136 135 162
3 162 135 141
3 140 137 163
3 163 137 138
3 163 138 162
3 149 139 164
3 164 139 140
3 164 140 165
3 165 140 163
3 166 149 164
3 167 162 141
3 167 141 146
3 142 158 168
3 143 142 168
3 143 168 148
3 146 145 169
3 145 144 169
3 169 144 147
3 170 167 146
3 170 146 169
3 171 169 147
3 171 147 148
3 171 148 172
3 168 172 148
3 173 149 166
3 174 150 149
3 173 174 149
3 154 175 151
3 151 175 159
3 152 155 176
3 153 152 176
3 153 176 177
3 153 177 154
3 154 177 175
3 155 160 178
3 155 178 179
3 176 155 179
3 156 157 180
3 156 180 158
3 157 159 181
3 157 181 180
3 158 180 182
3 158 182 168
3 159 175 183
3 159 183 181
3 175 184 183
3 160 186 178
3 178 186 185
3 161 187 160
3 160 187 186
3 165 163 188
3 163 162 188
3 188 162 167
3 166 164 189
3 189 164 165
3 189 165 188
3 190 173 166
3 190 166 191
3 191 166 189
3 192 188 167
3 192 167 170
3 193 192 170
3 182 194 168
3 194 172 168
3 193 170 195
3 170 169 195
3 195 169 171
3 196 195 171
3 196 171 172
3 194 197 172
3 197 198 172
3 198 196 172
3 200 173 190
3 199 200 190
3 201 174 173
3 200 201 173
3 176 179 202
3 177 176 202
3 177 202 175
3 175 202 184
3 178 185 203
3 178 203 179
3 179 203 202
3 203 185 204
3 202 205 184
3 183 206 181
3 180 181 206
3 180 206 182
3 182 206 194
3 183 184 207
3 205 207 184
3 183 207 206
3 185 208 204
3 186 209 185
3 185 209 208
3 187 210 186
3 186 210 209
3 191 189 211
3 189 188 211
3 211 188 192
3 199 190 212
3 212 190 191
3 212 191 211
3 213 199 212
3 214 211 192
3 214 192 193
3 215 214 193
3 215 193 195
3 206 216 194
3 216 197 194
3 216 217 197
3 215 195 218
3 218 195 196
3 198 218 196
3 217 219 197
3 219 218 198
3 197 219 198
3 220 199 213
3 221 200 199
3 220 221 199
3 222 201 200
3 221 222 200
3 203 204 223
3 203 223 202
3 202 223 205
3 204 208 224
3 204 224 223
3 205 223 225
3 205 225 207
3 207 225 226
3 207 226 206
3 226 216 206
3 208 228 224
3 224 228 227
3 209 229 208
3 229 228 208
3 210 230 209
3 209 230 229
3 213 212 231
3 212 211 231
3 231 211 214
3 232 220 213
3 232 213 231
3 233 231 214
3 233 214 215
3 234 233 215
3 234 215 218
3 226 235 216
3 235 217 216
3 235 236 217
3 217 236 219
3 237 234 218
3 237 218 219
3 236 238 219
3 238 237 219
3 240 220 232
3 239 240 232
3 241 221 220
3 240 241 220
3 242 222 221
3 241 242 221
3 224 227 243
3 224 243 223
3 223 243 225
3 225 243 244
3 225 244 226
3 226 244 235
3 227 245 243
3 228 246 227
3 227 246 245
3 229 247 228
3 228 247 246
3 230 248 229
3 229 248 247
3 239 232 249
3 232 231 249
3 249 231 233
3 250 249 233
3 250 233 234
3 237 250 234
3 244 251 235
3 235 251 236
3 251 252 236
3 236 252 238
3 252 253 238
3 253 250 237
3 253 237 238
3 254 239 249
3 255 240 239
3 254 255 239
3 256 241 240
3 255 256 240
3 257 242 241
3 256 257 241
3 245 258 243
3 243 258 244
3 244 258 251
3 245 259 258
3 246 260 245
3 245 260 259
3 247 261 246
3 246 261 260
3 248 262 247
3 247 262 261
3 254 249 263
3 263 249 250
3 253 263 250
3 258 264 251
3 251 264 252
3 264 265 252
3 265 263 253
3 252 265 253
3 266 254 263
3 267 255 254
3 266 267 254
3 268 256 255
3 267 268 255
3 269 257 256
3 268 269 256
3 259 270 258
3 270 264 258
3 260 271 259
3 259 271 270
3 261 272 260
3 260 272 271
3 262 273 261
3 273 272 261
3 270 274 264
3 275 266 263
3 275 263 265
3 274 276 264
3 276 265 264
3 276 277 265
3 277 275 265
3 278 267 266
3 275 278 266
3 279 268 267
3 278 279 267
3 280 269 268
3 279 280 268
3 271 281 270
3 270 281 274
3 272 282 271
3 271 282 281
3 273 283 272
3 272 283 282
3 281 284 274
3 274 284 276
3 285 278 275
3 277 285 275
3 284 286 276
3 286 285 277
3 276 286 277
3 287 279 278
3 285 287 278
3 288 280 279
3 287 288 279
3 282 289 281
3 281 289 284
3 283 290 282
3 282 290 289
3 289 291 284
3 284 291 286
3 291 292 286
3 292 287 285
3 286 292 285
3 293 288 287
3 292 293 287
3 290 294 289
3 289 294 291
3 294 295 291
3 295 293 292
3 291 295 292
CELL_TYPES 542
5
5
5
5
5
5
5
5
5
5
5
5
5
5
5
5
5
5
5
5
5
5
5
5
5
5
5
5
5
5
5
5
5
5
5
5
5
5
5
5
5
5
5
5
5
5
5
5
5
5
5
5
5
5
5
5
5
5
5
5
5
5
5
5
5
5
5
5
5
5
5
5
5
5
5
5
5
5
5
5
5
5
5
5
5
5
5
5
5
5
5
5
5
5
5
5
5
5
5
5
5
5
5
5
5
5
5
5
5
5
5
5
5
5
5
5
5
5
5
5
5
5
5
5
5
5
5
5
5
5
5
5
5
5
5
5
5
5
5
5
5
5
5
5
5
5
5
5
5
5
5
5
5
5
5
5
5
5
5
5
5
5
5
5
5
5
5
5
5
5
5
5
5
5
5
5
5
5
5
5
5
5
5
5
5
5
5
5
5
5
5
5
5
5
5
5
5
5
5
5
5
5
5
5
5
5
5
5
5
5
5
5
5
5
5
5
5
5
5
5
5
5
5
5
5
5
5
5
5
5
5
5
5
5
5
5
5
5
5
5
5
5
5
5
5
5
5
5
5
5
5
5
5
5
5
5
5
5
5
5
5
5
5
5
5
5
5
5
5
5
5
5
5
5
5
5
5
5
5
5
5
5
5
5
5
5
5
5
5
5
5
5
5
5
5
5
5
5
5
5
5
5
5
5
5
5
5
5
5
5
5
5
5
5
5
5
5
5
5
5
5
5
5
5
5
5
5
5
5
5
5
5
5
5
5
5
5
5
5
5
5
5
5
5
5
5
5
5
5
5
5
5
5
5
5
5
5
5
5
5
5
5
5
5
5
5
5
5
5
5
5
5
5
5
5
5
5
5
5
5
5
5
5
5
5
5
5
5
5
5
5
5
5
5
5
5
5
5
5
5
5
5
5
5
5
5
5
5
5
5
5
5
5
5
5
5
5
5
5
5
5
5
5
5
5
5
5
5
5
5
5
5
5
5
5
5
5
5
5
5
5
5
5
5
5
5
5
5
5
5
5
5
5
5
5
5
5
5
5
5
5
5
5
5
5
5
5
5
5
5
5
5
5
5
5
5
5
5
5
5
5
5
5
5
5
5
5
5
5
5
5
5
5
5
5
5
5
5
5
5
5
5
5
5
5
5
5
5
5
5
5
5
5
5
5
5
5
5
5
5
5
5
5
5
5
5
5
5
5
5
5
5
5
5
5
5
5
5
5
5
5
5
POINT_DATA 296
SCALARS concentrations float 4
LOOKUP_TABLE default
0 0.950305 0.111597 1.21873
0 0.950363 0.109984 -0.732194
0 0.95028 0.110236 4.99704
0 0.950338 0.109641 2.9829
0 0.950282 0.0935658 -0.279181
0 0.950329 0.110783 1.57512
0 0.950326 0.109713 3.14456
0 0.950332 0.0935642 -0.933592
0 0.95034 0.0930607 -0.768589
0 0.95037 0.11348 0.812375
0 0.950349 0.108983 3.63443
0 0.950335 0.109871 2.52991
0 0.950331 0.113366 3.19217
0 0.950308 0.0934615 -0.83538
0 0.950327 0.0938918 -1.08191
0 0.950301 0.094687 0.221631
0 0.950306 0.0934013 -0.951401
0 0.950316 0.0928947 -0.70812
0 0.950341 0.0925102 -0.55855
0 0.950318 0.0930994 -0.736333
0 0.950316 0.093063 0.681496
0 0.950325 0.11209 3.14729
0 0.950303 0.112879 1.44896
0 0.950345 0.092515 -0.37601
0 0.950331 0.0926031 0.209704
0 0.95032 0.0940406 0.863493
0 0.950318 0.112219 2.43659
0 0.950324 0.0940255 0.980155
0 0.950283 0.108458 4.04913
0 0.950307 0.0940841 0.326895
0 0.950301 0.0938793 0.687343
0 0.950304 0.0930067 0.0578952
0 0.950345 0.11106 4.58006
0 0.950306 0.0930734 0.920207
0 0.950306 0.0930109 0.837647
0 0.950316 0.0926904 -0.835817
0 0.950318 0.0929098 -0.784673
0 0.950306 0.093316 0.685626
0 0.950307 0.0928739 0.822735
0 0.950309 0.0928433 0.125894
0 0.950316 0.0929909 0.360999
0 0.950312 0.0935067 -0.96099
0 0.95031 0.0937931 -0.690104
0 0.950387 0.11127 -1.08173
0 0.950302 0.0943271 0.99721
0 0.950302 0.0949752 -0.720637
0 0.950308 0.0964653 0.996722
0 0.950307 0.109668 1.40336
0 0.950302 0.0939982 0.920565
0 0.950304 0.109633 2.62368
0 0.950294 0.0945689 0.576663
0 0.950291 0.0958866 -0.97702
0 0.950302 0.0923891 0.498786
0 0.95035 0.0923793 -0.105777
0 0.950362 0.0921527 -0.219843
0 0.950302 0.0936684 1.01755
0 0.950307 0.0933646 0.823868
0 0.950301 0.0939315 0.883364
0 0.950305 0.0934265 -0.972959
0 0.950312 0.0938768 -0.882641
0 0.950314 0.0929528 -0.430949
0 0.950302 0.0934135 0.0696135
0 0.950312 0.0942313 0.0985903
0 0.950347 0.112039 -0.304919
0 0.950299 0.0948431 0.595295
0 0.950304 0.095578 -2.16901
0 0.950295 0.0950855 -1.25058
0 0.950313 0.0927778 0.324409
0 0.950311 0.0937044 0.522895
0 0.950336 0.113608 1.29636
0 0.950312 0.0929297 0.13005
0 0.950343 0.111218 2.85347
0 0.950304 0.0931105 0.0657769
0 0.950302 0.094417 -0.230213
0 0.950308 0.0953642 1.25806
0 0.950329 0.0921285 -0.329823
0 0.950318 0.093074 -0.0678959
0 0.950323 0.0931331 -0.0918406
0 0.950305 0.0932424 -0.325766
0 0.950306 0.0967939 -2.42023
0 0.950309 0.093719 0.527779
0 0.95031 0.0940529 0.834543
0 0.95031 0.0980374 -2.48222
0 0.950311 0.0943003 -0.385963
0 0.950313 0.0945841 -0.490353
0 0.950291 0.110178 2.43399
0 0.950296 0.0937875 -1.44476
0 0.950296 0.0941931 0.637401
0 0.95031 0.0928378 0.424813
0 0.950303 0.0932987 0.620885
0 0.950326 0.0932395 0.145469
0 0.950301 0.0934855 0.0313524
0 0.950316 0.110887 1.07427
0 0.950326 0.0940739 -0.163501
0 0.950308 0.0951016 -1.11526
0 0.950303 0.092956 -0.945581
0 0.950307 0.0925614 -0.737374
0 0.950301 0.0946932 0.223156
0 0.950264 0.109136 6.86962
0 0.950294 0.0938498 0.545891
0 0.950313 0.0945324 -0.90521
0 0.950311 0.0937843 0.141659
0 0.950309 0.0928881 -0.221154
0 0.950306 0.0947833 0.152009
0 0.950305 0.0944084 -1.09186
0 0.95031 0.0941689 0.944541
0 0.950302 0.0939824 -1.10522
0 0.950309 0.0946942 1.0065
0 0.95031 0.0940886 0.227119
0 0.950274 0.11148 5.04919
0 0.950295 0.0937695 -0.274513
0 0.950298 0.0932968 0.47823
0 0.950311 0.0954869 0.787367
0 0.950302 0.0945958 0.658367
0 0.950296 0.0946094 -0.0394637
0 0.950313 0.0950233 -0.805938
0 0.950281 0.0944878 0.0824409
0 0.950309 0.0939829 0.0620971
0 0.950307 0.0940611 0.444386
0 0.950309 0.0955454 -1.12033
0 0.950306 0.094918 1.59708
0 0.9503 0.0948013 1.48538
0 0.95032 0.0950787 2.50002
0 0.950306 0.0938423 -0.166518
0 0.950303 0.110264 0.430072
0 0.950273 0.094809 -0.934304
0 0.950295 0.0945797 -0.594769
0 0.950308 0.0939882 0.11901
0 0.950303 0.0934047 0.0134605
0 0.950305 0.09454 -0.3078
0 0.950304 0.0939634 -1.01771
0 0.950311 0.0942796 0.516261
0 0.95031 0.094455 -0.185316
0 0.950289 0.0930475 0.235211
0 0.950269 0.110044 3.24685
0 0.950294 0.0946846 -0.336935
0 0.950305 0.0943627 -0.42348
0 0.950295 0.094894 0.274365
0 0.950302 0.095028 0.320584
0 0.950315 0.0940587 -0.184267
0 0.95029 0.0941222 -0.362473
0 0.95029 0.0952808 0.483803
0 0.950311 0.0943356 -0.286861
0 0.950314 0.0946258 0.0648012
0 0.950312 0.0956697 2.30611
0 0.950304 0.0957101 -1.76918
0 0.950286 0.0956006 -0.485536
0 0.95031 0.0948775 -0.68153
0 0.950327 0.0945435 -1.03659
0 0.950329 0.093409 0.194595
0 0.950339 0.112947 -0.318106
0 0.95032 0.0949226 0.384345
0 0.950286 0.095859 -1.10591
0 0.950303 0.0936945 0.374767
0 0.950312 0.0933466 -0.857343
0 0.950302 0.0942278 -0.551247
0 0.950309 0.0944666 0.60326
0 0.950323 0.0981249 0.577685
0 0.950314 0.0960854 1.04858
0 0.950325 0.0954749 -0.969736
0 0.950334 0.0942974 -1.03415
0 0.950318 0.109249 6.69191
0 0.950299 0.0953344 0.345825
0 0.950298 0.0950425 -0.36532
0 0.950301 0.0941956 0.328933
0 0.95029 0.0941015 0.297547
0 0.95032 0.0938984 0.420919
0 0.9503 0.0952755 -0.687029
0 0.950323 0.0953345 0.262216
0 0.950302 0.0947316 1.73713
0 0.95029 0.0964352 -0.148717
0 0.950333 0.0944783 -1.74626
0 0.950326 0.0943332 0.697067
0 0.950348 0.0935962 0.23356
0 0.950354 0.110159 2.68747
0 0.950316 0.0942285 1.00594
0 0.950303 0.0939114 -1.10477
0 0.950314 0.0955605 1.09552
0 0.950322 0.0930343 0.268432
0 0.950304 0.0935797 -0.226529
0 0.950319 0.0950458 0.28647
0 0.950326 0.0995763 -2.18868
0 0.950321 0.0951858 -0.534431
0 0.95032 0.0951215 -0.543487
0 0.950312 0.0942552 -0.700274
0 0.950332 0.093918 -0.524728
0 0.950376 0.0929825 -0.540463
0 0.950377 0.112213 -2.82362
0 0.950301 0.0945794 0.514204
0 0.950296 0.0954037 0.715844
0 0.950325 0.0936237 -0.256342
0 0.950305 0.0945249 -1.22287
0 0.950303 0.0954539 -0.697042
0 0.950289 0.0943848 -1.0119
0 0.950309 0.0951824 -0.301796
0 0.950302 0.0958127 -2.2532
0 0.950329 0.0953122 1.36385
0 0.950304 0.0952464 -0.596033
0 0.950307 0.0955688 1.42204
0 0.950312 0.094006 -0.536736
0 0.95034 0.0939732 0.397315
0 0.950365 0.112414 0.667525
0 0.950312 0.093961 -0.600872
0 0.950311 0.0950622 1.26179
0 0.950306 0.0942838 0.119333
0 0.950308 0.0937792 0.817175
0 0.950317 0.098535 -2.32785
0 0.95031 0.10022 -3.21805
0 0.950328 0.0944474 0.150606
0 0.950373 0.0933897 -0.381596
0 0.950416 0.110107 -1.95771
0 0.950297 0.0944408 -1.07897
0 0.950305 0.0954417 -0.977066
0 0.950303 0.094483 -1.29297
0 0.9503 0.0947483 -1.5755
0 0.950302 0.0941669 -1.24613
0 0.950298 0.101845 -1.90457
0 0.950322 0.094654 -0.480802
0 0.950305 0.0961722 -1.77055
0 0.950322 0.0963938 -1.21792
0 0.950287 0.0942693 -1.29998
0 0.950289 0.0936212 0.247213
0 0.950319 0.10986 0.261305
0 0.950316 0.0956006 -0.697802
0 0.950302 0.0955997 -0.782612
0 0.950314 0.0985423 1.5852
0 0.950303 0.101256 -1.34405
0 0.950303 0.0948611 -0.733759
0 0.950318 0.0943817 -0.0561447
0 0.950341 0.0927538 -0.00669865
0 0.950371 0.111395 2.6897
0 0.9503 0.0951604 -1.24501
0 0.950294 0.0949627 0.299654
0 0.950311 0.0954722 1.24843
0 0.95031 0.094711 0.972744
0 0.950317 0.0935327 0.380392
0 0.950338 0.0940648 0.0877268
0 0.95032 0.0959924 -0.876839
0 0.95034 0.0947729 1.16682
0 0.950294 0.094628 -0.587167
0 0.950282 0.0942883 0.37943
0 0.950263 0.0933658 0.484659
0 0.950254 0.111203 6.34846
0 0.950311 0.0961122 -0.638038
0 0.950316 0.0951919 -0.940083
0 0.950299 0.0974375 -0.763934
0 0.95031 0.0932852 0.375889
0 0.950329 0.0935238 -0.333159
0 0.950344 0.112106 -3.10928
0 0.950301 0.0935647 0.223591
0 0.950309 0.0947229 -0.04836
0 0.950327 0.0952269 -0.745721
0 0.950326 0.0948502 -0.374498
0 0.950314 0.0949191 -0.792722
0 0.950294 0.0941827 0.29989
0 0.950292 0.0943402 0.378283
0 0.950293 0.0937262 0.459033
0 0.950281 0.109883 4.53281
0 0.950305 0.0952946 -0.746711
0 0.950294 0.0943275 -0.823787
0 0.9503 0.0940771 -0.994188
0 0.950309 0.0939292 -0.0407188
0 0.950319 0.110402 3.45258
0 0.950295 0.0932614 0.130399
0 0.950309 0.0941325 -0.92299
0 0.9503 0.0955443 1.52394
0 0.950292 0.0938765 0.198678
0 0.950297 0.0936046 0.0370502
0 0.950289 0.0933497 0.0863972
0 0.950291 0.112792 4.70737
0 0.950297 0.0955597 -0.204693
0 0.950302 0.0943075 -1.352
0 0.950328 0.0934986 -0.0685286
0 0.950325 0.110318 2.43448
0 0.9503 0.0933486 0.463816
0 0.950288 0.0955793 0.561503
0 0.950302 0.0943349 -0.723261
0 0.950296 0.0945241 -0.387126
0 0.950297 0.0942369 0.0578075
0 0.950316 0.0943052 0.0513417
0 0.950303 0.113181 3.43009
0 0.9503 0.092935 -0.523138
0 0.950325 0.0934842 -0.968752
0 0.950354 0.112362 1.35134
0 0.9503 0.0936072 0.583149
0 0.950299 0.0972438 -0.255129
0 0.950303 0.0953362 0.260188
0 0.950301 0.0940244 0.178763
0 0.950323 0.11051 -0.933274
0 0.950297 0.0926517 0.255031
0 0.950318 0.113506 1.91414
0 0.950287 0.0939439 -0.642899
0 0.950292 0.0942383 -0.00876746
0 0.950287 0.110384 3.11485
0 0.950281 0.112176 2.08524
0 0.95028 0.110545 3.69311
VECTORS fa_u float
0.00732151 0.00292202 -0
0.00667685 0.00383573 -0
0.00279773 0.000762647 -0
0.0072287 0.00112983 -0
1e-08 0 0
0.00520844 0.00401507 -0
0.00249851 0.00241586 -0
1e-08 0 0
1e-08 0 0
0.00454773 0.00553741 -0
0.00536814 0.00900418 -0
0.00662212 0.000143278 -0
0.00623197 -0.000667021 0
1e-08 0 0
1e-08 0 0
1e-08 0 0
1e-08 0 0
1e-08 0 0
1e-08 0 0
1e-08 0 0
1e-08 0 0
0.00295961 0.00730818 -0
0.00159967 0.00629526 -0
1e-08 0 0
1e-08 0 0
1e-08 0 0
0.00902928 -0.00227636 0
1e-08 0 0
0.0111733 -0.00490157 0
1e-08 0 0
1e-08 0 0
1e-08 0 0
0.000849962 0.00731033 -0
1e-08 0 0
1e-08 0 0
1e-08 0 0
1e-08 0 0
1e-08 0 0
1e-08 0 0
1e-08 0 0
1e-08 0 0
1e-08 0 0
1e-08 0 0
-0.00018065 0.0077304 -0
1e-08 0 0
1e-08 0 0
1e-08 0 0
0.00566842 -0.00361818 0
1e-08 0 0
0.00263381 -0.00212896 0
1e-08 0 0
1e-08 0 0
1e-08 0 0
1e-08 0 0
1e-08 0 0
1e-08 0 0
1e-08 0 0
1e-08 0 0
1e-08 0 0
1e-08 0 0
1e-08 0 0
1e-08 0 0
1e-08 0 0
-0.000578702 0.00397535 0
1e-08 0 0
1e-08 0 0
1e-08 0 0
1e-08 0 0
1e-08 0 0
0.00316323 -0.00312908 0
1e-08 0 0
0.00275646 -0.00337344 0
1e-08 0 0
1e-08 0 0
1e-08 0 0
1e-08 0 0
1e-08 0 0
1e-08 0 0
1e-08 0 0
1e-08 0 0
1e-08 0 0
1e-08 0 0
1e-08 0 0
1e-08 0 0
1e-08 0 0
-0.00137629 0.00530394 0
1e-08 0 0
1e-08 0 0
1e-08 0 0
1e-08 0 0
1e-08 0 0
1e-08 0 0
0.00581574 -0.00952961 0
1e-08 0 0
1e-08 0 0
1e-08 0 0
1e-08 0 0
1e-08 0 0
0.00369224 -0.00914825 0
1e-08 0 0
1e-08 0 0
1e-08 0 0
1e-08 0 0
1e-08 0 0
1e-08 0 0
1e-08 0 0
1e-08 0 0
1e-08 0 0
1e-08 0 0
-0.00290318 0.00719868 0
1e-08 0 0
1e-08 0 0
1e-08 0 0
1e-08 0 0
1e-08 0 0
1e-08 0 0
1e-08 0 0
1e-08 0 0
1e-08 0 0
1e-08 0 0
1e-08 0 0
1e-08 0 0
1e-08 0 0
1e-08 0 0
0.00134154 -0.00537259 0
1e-08 0 0
1e-08 0 0
1e-08 0 0
1e-08 0 0
1e-08 0 0
1e-08 0 0
1e-08 0 0
1e-08 0 0
1e-08 0 0
-0.00376314 0.00652045 0
1e-08 0 0
1e-08 0 0
1e-08 0 0
1e-08 0 0
1e-08 0 0
1e-08 0 0
1e-08 0 0
1e-08 0 0
1e-08 0 0
1e-08 0 0
1e-08 0 0
1e-08 0 0
1e-08 0 0
1e-08 0 0
1e-08 0 0
0.000514921 -0.00376043 0
1e-08 0 0
1e-08 0 0
1e-08 0 0
1e-08 0 0
1e-08 0 0
1e-08 0 0
1e-08 0 0
1e-08 0 0
1e-08 0 0
1e-08 0 0
-0.00463681 0.00594594 0
1e-08 0 0
1e-08 0 0
1e-08 0 0
1e-08 0 0
1e-08 0 0
1e-08 0 0
1e-08 0 0
1e-08 0 0
1e-08 0 0
1e-08 0 0
1e-08 0 0
1e-08 0 0
0.000121928 -0.00778192 0
1e-08 0 0
1e-08 0 0
1e-08 0 0
1e-08 0 0
1e-08 0 0
1e-08 0 0
1e-08 0 0
1e-08 0 0
1e-08 0 0
1e-08 0 0
1e-08 0 0
1e-08 0 0
-0.0021893 0.00222931 0
1e-08 0 0
1e-08 0 0
1e-08 0 0
1e-08 0 0
1e-08 0 0
1e-08 0 0
1e-08 0 0
1e-08 0 0
1e-08 0 0
1e-08 0 0
1e-08 0 0
1e-08 0 0
1e-08 0 0
-0.000858786 -0.00698949 0
1e-08 0 0
1e-08 0 0
1e-08 0 0
1e-08 0 0
1e-08 0 0
1e-08 0 0
1e-08 0 0
1e-08 0 0
-0.00483684 0.0039656 0
1e-08 0 0
1e-08 0 0
1e-08 0 0
1e-08 0 0
1e-08 0 0
1e-08 0 0
1e-08 0 0
1e-08 0 0
1e-08 0 0
1e-08 0 0
1e-08 0 0
-0.00160522 -0.00618939 0
1e-08 0 0
1e-08 0 0
1e-08 0 0
1e-08 0 0
1e-08 0 0
1e-08 0 0
1e-08 0 0
-0.00879146 0.00529516 0
1e-08 0 0
1e-08 0 0
1e-08 0 0
1e-08 0 0
1e-08 0 0
1e-08 0 0
1e-08 0 0
1e-08 0 0
1e-08 0 0
1e-08 0 0
1e-08 0 0
-0.0030406 -0.00740644 0
1e-08 0 0
1e-08 0 0
1e-08 0 0
1e-08 0 0
1e-08 0 0
-0.00764759 0.00312854 0
1e-08 0 0
1e-08 0 0
1e-08 0 0
1e-08 0 0
1e-08 0 0
1e-08 0 0
1e-08 0 0
1e-08 0 0
-0.00509624 -0.00848949 0
1e-08 0 0
1e-08 0 0
1e-08 0 0
1e-08 0 0
-0.0061874 0.00158881 0
1e-08 0 0
1e-08 0 0
1e-08 0 0
1e-08 0 0
1e-08 0 0
1e-08 0 0
-0.00360926 -0.00445317 0
1e-08 0 0
1e-08 0 0
1e-08 0 0
-0.00723998 0.000864795 0
1e-08 0 0
1e-08 0 0
1e-08 0 0
1e-08 0 0
1e-08 0 0
1e-08 0 0
-0.00259346 -0.00257118 0
1e-08 0 0
1e-08 0 0
-0.00845834 -0.000194205 0
1e-08 0 0
1e-08 0 0
1e-08 0 0
1e-08 0 0
-0.00591505 -0.00462542 0
1e-08 0 0
-0.00350708 -0.000510694 0
1e-08 0 0
1e-08 0 0
-0.00682071 -0.00393527 0
-0.00543326 -0.00139639 0
-0.00719354 -0.0028877 0
