# vtk DataFile Version 2.0
CellBP Time: 8.32
ASCII
DATASET UNSTRUCTURED_GRID
POINTS 296 double
-8.94453 -3.66306 0
-8.38635 -4.81517 0
-9.33528 -2.44148 0
-9.61182 -1.21253 0
-8.101 -2.71258 0
-7.67034 -5.88087 0
-6.82222 -6.84485 0
-7.66035 -3.73436 0
-7.10037 -4.70753 0
-5.89689 -7.71205 0
-4.86762 -8.44415 0
-9.71939 0.0381892 0
-9.66331 1.31436 0
-8.41969 -1.6228 0
-8.57725 -0.505498 0
-7.34695 -1.91722 0
-6.97346 -2.78191 0
-6.4451 -5.6263 0
-5.6766 -6.44458 0
-6.54583 -3.74462 0
-6.01195 -4.52754 0
-3.71808 -9.0086 0
-2.48972 -9.40816 0
-4.79974 -7.16213 0
-3.84981 -7.74466 0
-8.59181 0.630493 0
-9.44292 2.59167 0
-8.44736 1.73078 0
-9.03312 3.80791 0
-7.52432 -0.883399 0
-7.59028 0.0894169 0
-6.74039 -1.25351 0
-1.21785 -9.64597 0
-6.24591 -2.06913 0
-6.11284 -2.9432 0
-5.3729 -5.33079 0
-4.67129 -5.97721 0
-5.47616 -3.63536 0
-5.09634 -4.4307 0
-2.8185 -8.20668 0
-1.74564 -8.46715 0
-3.84267 -6.58988 0
-3.01227 -7.02214 0
0.0551144 -9.70581 0
-7.51566 1.11556 0
-8.19021 2.86114 0
-7.37724 2.05014 0
-8.42069 4.92919 0
-7.70775 3.88248 0
-7.66294 5.96573 0
-6.58698 -0.368901 0
-6.76688 0.548656 0
-5.62447 -0.969943 0
-0.58156 -8.61416 0
0.543694 -8.54786 0
-5.15925 -2.40273 0
-4.35106 -4.96354 0
-3.8002 -5.6456 0
-4.31772 -3.70926 0
-2.02642 -7.41434 0
-1.1162 -7.62318 0
-2.93058 -5.97517 0
-2.27214 -6.4922 0
1.31164 -9.58932 0
-6.52197 1.38201 0
-6.99325 3.02822 0
-6.49781 2.30729 0
-7.11331 4.85381 0
-6.55119 3.88844 0
-6.82103 6.91381 0
-6.39852 5.73256 0
-5.87687 7.77088 0
-4.37566 -1.1669 0
-5.68134 0.492427 0
-4.57521 -0.0275284 0
-0.00532796 -7.65723 0
1.68124 -8.39675 0
0.904572 -7.54975 0
-3.96139 -2.35411 0
-3.45592 -1.37964 0
-3.21828 -4.70301 0
-3.2168 -3.20771 0
-1.36622 -6.53097 0
-0.519929 -6.85843 0
-1.9467 -5.4345 0
2.56151 -9.34281 0
-5.38421 1.99275 0
-5.94614 2.98445 0
-5.95215 4.73095 0
-5.61521 3.87046 0
-5.60396 6.52838 0
-5.30865 5.45508 0
-4.84668 8.52196 0
-4.70405 7.19153 0
-3.46157 -0.41867 0
-4.36476 1.22766 0
-3.65252 0.585598 0
-3.98293 2.29341 0
-3.70827 9.09065 0
2.75913 -8.06561 0
0.373764 -6.60728 0
1.93262 -7.28964 0
1.23456 -6.69704 0
-2.4256 -0.862869 0
-2.81171 -2.10592 0
-2.26439 -4.02552 0
-2.29709 -2.92807 0
-0.451978 -5.72321 0
-1.20178 -4.42179 0
3.77341 -8.94971 0
-4.67485 3.30618 0
-4.9571 4.45806 0
-4.52253 6.0909 0
-4.42035 5.20162 0
-3.75279 7.79376 0
-3.71445 6.63294 0
-2.71085 8.19929 0
-1.63383 -0.123689 0
-1.43547 -0.875221 0
-2.47098 0.517573 0
-3.20254 1.43444 0
-3.1757 3.26125 0
-2.86525 2.35841 0
-1.35055 0.6384 0
-2.4866 9.47581 0
3.79765 -7.63548 0
2.83914 -6.90391 0
0.89983 -5.66212 0
1.98158 -6.20309 0
-1.66241 -1.97484 0
-1.41419 -3.23286 0
0.0796886 -4.64828 0
-0.553507 -3.6384 0
4.77722 -7.07719 0
4.91745 -8.39137 0
-3.68594 4.43692 0
-3.63639 5.59003 0
-2.79977 7.07365 0
-2.92842 6.17191 0
-1.6219 8.52117 0
-1.88105 7.41676 0
-2.2989 3.97799 0
-0.720125 -1.31617 0
-0.828804 -0.243711 0
-1.93015 1.69461 0
-2.10204 2.85627 0
-1.29669 3.50634 0
-0.871076 1.36113 0
-0.285244 0.464137 0
-0.522056 8.66971 0
-1.22582 9.71263 0
1.07052 -4.4604 0
3.75306 -6.45723 0
2.86967 -5.87903 0
2.03579 -5.2548 0
4.62791 -5.97727 0
-0.54799 -2.45685 0
0.489594 -3.41234 0
0.0601353 -1.60099 0
1.44487 -3.59702 0
5.70246 -6.40599 0
5.98027 -7.67608 0
-2.41683 5.21582 0
-2.06354 6.35613 0
-0.87298 7.62024 0
-1.22237 6.75155 0
0.0917527 7.71279 0
-1.12698 4.41737 0
0.148811 -0.611107 0
-0.808293 2.49468 0
-0.344607 3.57317 0
0.0514224 1.51511 0
0.731891 0.474084 0
0.628856 8.69739 0
0.0424585 9.8215 0
2.30684 -4.16029 0
3.7281 -5.43526 0
2.89984 -5.03889 0
5.42591 -5.31361 0
4.54984 -5.08616 0
0.633305 -2.28332 0
1.23925 -2.90633 0
0.758443 -1.38794 0
2.1183 -3.06832 0
2.9229 -3.38577 0
6.01491 -4.65482 0
6.49454 -5.61057 0
6.93583 -6.81819 0
-0.989566 5.69043 0
-0.344166 6.72235 0
1.10338 7.62234 0
0.563289 6.93085 0
-0.00304189 4.65752 0
0.593569 3.78672 0
1.33314 -0.641482 0
0.52219 2.63882 0
0.950645 1.57672 0
1.89146 0.207893 0
1.59815 1.05998 0
2.09713 7.44613 0
1.76897 8.54977 0
1.32461 9.75078 0
3.72005 -4.2109 0
4.98591 -4.29179 0
5.71804 -3.81638 0
3.70345 -3.11077 0
1.79642 -1.8765 0
2.96823 -2.5264 0
6.64718 -3.84845 0
7.22676 -4.78402 0
7.80126 -5.8855 0
0.48093 5.76853 0
1.41133 6.61402 0
2.34078 6.55327 0
1.18922 4.49091 0
1.46406 3.35586 0
2.4081 -0.689458 0
2.79414 0.140063 0
1.76666 2.14955 0
2.58946 1.14003 0
3.02658 7.04739 0
2.86029 8.22377 0
2.59275 9.50704 0
4.80587 -3.22836 0
5.99963 -3.02799 0
4.10177 -2.23094 0
3.1988 -1.48852 0
6.61562 -2.27381 0
7.10685 -2.98544 0
7.82596 -3.84512 0
8.53755 -4.85793 0
1.99798 5.50599 0
3.01408 6.03593 0
2.33443 4.06391 0
2.39142 3.01957 0
3.47884 -0.452215 0
3.57076 0.613472 0
2.92729 2.25932 0
3.48841 1.50534 0
3.90443 5.77253 0
3.90157 6.66322 0
3.912 7.79839 0
3.8177 9.10319 0
5.47576 -1.87999 0
4.44135 -1.10842 0
6.59215 -1.31088 0
7.45755 -2.00014 0
8.24404 -2.81196 0
9.10658 -3.7132 0
3.32851 4.77481 0
3.2714 3.32098 0
4.61427 0.133491 0
4.42414 1.27988 0
3.96863 2.38685 0
4.42632 5.0256 0
4.71544 6.05597 0
4.87675 7.22609 0
4.96218 8.53379 0
5.76549 -0.435855 0
6.86559 -0.486223 0
7.61675 -1.0578 0
8.52093 -1.70913 0
9.50864 -2.4861 0
4.4191 3.73094 0
5.67011 1.05351 0
5.21233 2.45652 0
5.19834 4.48949 0
5.44263 5.38397 0
5.75352 6.51406 0
5.9906 7.80142 0
6.67687 0.431464 0
7.68452 -0.0272492 0
8.67956 -0.561753 0
9.75003 -1.21558 0
6.77061 1.2887 0
5.52873 3.66258 0
6.34226 2.10827 0
6.16652 2.97785 0
6.08062 4.54667 0
6.4995 5.6809 0
6.92949 6.94374 0
7.5929 0.931225 0
8.65122 0.560959 0
9.81493 0.0627285 0
7.39978 1.93149 0
6.58008 3.7614 0
7.0299 2.83405 0
7.15798 4.74242 0
7.78739 5.98931 0
8.49238 1.68001 0
9.69532 1.31887 0
8.16335 2.74516 0
7.74572 3.79923 0
8.50363 4.92863 0
9.45184 2.57078 0
9.05992 3.78358 0
CELLS 542 2168
3 2 0 4
3 0 1 7
3 4 0 7
3 1 5 8
3 7 1 8
3 3 2 13
3 13 2 4
3 11 3 14
3 14 3 13
3 13 4 15
3 4 7 16
3 15 4 16
3 5 6 17
3 8 5 17
3 6 9 18
3 17 6 18
3 7 8 19
3 16 7 19
3 8 17 20
3 19 8 20
3 9 10 23
3 18 9 23
3 10 21 24
3 23 10 24
3 12 11 25
3 25 11 14
3 26 12 27
3 27 12 25
3 14 13 29
3 29 13 15
3 25 14 30
3 30 14 29
3 29 15 31
3 15 16 33
3 31 15 33
3 16 19 34
3 33 16 34
3 17 18 35
3 20 17 35
3 18 23 36
3 35 18 36
3 19 20 37
3 34 19 37
3 20 35 38
3 37 20 38
3 21 22 39
3 24 21 39
3 22 32 40
3 39 22 40
3 23 24 41
3 36 23 41
3 24 39 42
3 41 24 42
3 27 25 44
3 44 25 30
3 28 26 45
3 45 26 27
3 45 27 46
3 46 27 44
3 47 28 48
3 48 28 45
3 30 29 50
3 50 29 31
3 44 30 51
3 51 30 50
3 50 31 52
3 31 33 52
3 32 43 53
3 40 32 53
3 53 43 54
3 33 34 55
3 34 37 55
3 33 55 52
3 35 36 56
3 38 35 56
3 36 41 57
3 56 36 57
3 37 38 58
3 38 56 58
3 37 58 55
3 39 40 59
3 42 39 59
3 40 53 60
3 59 40 60
3 41 42 61
3 57 41 61
3 42 59 62
3 61 42 62
3 43 63 54
3 46 44 64
3 64 44 51
3 48 45 65
3 65 45 46
3 65 46 66
3 66 46 64
3 49 47 67
3 67 47 48
3 67 48 68
3 68 48 65
3 69 49 70
3 70 49 67
3 52 55 72
3 64 51 73
3 51 50 73
3 50 52 73
3 73 52 74
3 74 52 72
3 53 54 75
3 60 53 75
3 54 63 76
3 54 76 77
3 75 54 77
3 55 58 78
3 72 55 78
3 72 78 79
3 56 57 80
3 57 61 80
3 56 80 58
3 58 80 81
3 78 58 81
3 59 60 82
3 62 59 82
3 60 75 83
3 82 60 83
3 61 62 84
3 62 82 84
3 61 84 80
3 63 85 76
3 66 64 86
3 64 73 86
3 68 65 87
3 87 65 66
3 87 66 86
3 70 67 88
3 88 67 68
3 88 68 89
3 89 68 87
3 71 69 90
3 90 69 70
3 90 70 91
3 91 70 88
3 92 71 93
3 93 71 90
3 74 72 94
3 94 72 79
3 86 73 95
3 95 73 74
3 95 74 96
3 96 74 94
3 97 86 95
3 76 85 99
3 75 77 100
3 83 75 100
3 76 99 101
3 77 76 101
3 77 101 102
3 100 77 102
3 94 79 103
3 78 81 104
3 79 78 104
3 79 104 103
3 80 84 105
3 81 80 105
3 81 105 106
3 104 81 106
3 82 83 107
3 83 100 107
3 82 107 84
3 84 107 108
3 105 84 108
3 85 109 99
3 89 87 110
3 87 86 110
3 110 86 97
3 91 88 111
3 111 88 89
3 111 89 110
3 93 90 112
3 112 90 91
3 112 91 113
3 113 91 111
3 98 92 114
3 114 92 93
3 114 93 115
3 115 93 112
3 116 98 114
3 117 103 118
3 96 94 119
3 94 103 119
3 119 103 117
3 97 95 120
3 120 95 96
3 120 96 119
3 121 110 97
3 121 97 122
3 122 97 120
3 123 119 117
3 124 98 116
3 99 109 125
3 99 125 126
3 101 99 126
3 100 102 127
3 100 127 107
3 101 126 128
3 102 101 128
3 102 128 127
3 104 106 129
3 104 129 103
3 103 129 118
3 105 108 130
3 106 105 130
3 106 130 129
3 107 127 131
3 108 107 131
3 108 131 132
3 108 132 130
3 109 134 125
3 125 134 133
3 113 111 135
3 111 110 135
3 135 110 121
3 115 112 136
3 136 112 113
3 136 113 135
3 116 114 137
3 137 114 115
3 137 115 138
3 138 115 136
3 139 124 116
3 139 116 140
3 140 116 137
3 141 135 121
3 118 129 142
3 118 142 143
3 117 118 143
3 123 117 143
3 122 120 144
3 120 119 144
3 144 119 123
3 141 121 145
3 145 121 122
3 145 122 144
3 146 141 145
3 147 144 123
3 147 123 148
3 143 148 123
3 150 124 139
3 149 150 139
3 131 127 151
3 125 133 152
3 126 125 152
3 126 152 153
3 128 126 153
3 128 153 154
3 128 154 127
3 127 154 151
3 152 133 155
3 130 132 156
3 130 156 129
3 129 156 142
3 131 151 157
3 132 131 157
3 132 157 156
3 156 158 142
3 157 151 159
3 133 160 155
3 134 161 133
3 133 161 160
3 138 136 162
3 136 135 162
3 162 135 141
3 140 137 163
3 163 137 138
3 163 138 162
3 149 139 164
3 164 139 140
3 164 140 165
3 165 140 163
3 166 149 164
3 167 162 141
3 167 141 146
3 142 158 168
3 143 142 168
3 143 168 148
3 146 145 169
3 145 144 169
3 169 144 147
3 170 167 146
3 170 146 169
3 171 169 147
3 171 147 148
3 171 148 172
3 168 172 148
3 173 149 166
3 174 150 149
3 173 174 149
3 154 175 151
3 151 175 159
3 152 155 176
3 153 152 176
3 153 176 177
3 153 177 154
3 154 177 175
3 155 160 178
3 155 178 179
3 176 155 179
3 156 157 180
3 156 180 158
3 157 159 181
3 157 181 180
3 158 180 182
3 158 182 168
3 159 175 183
3 159 183 181
3 175 184 183
3 160 186 178
3 178 186 185
3 161 187 160
3 160 187 186
3 165 163 188
3 163 162 188
3 188 162 167
3 166 164 189
3 189 164 165
3 189 165 188
3 190 173 166
3 190 166 191
3 191 166 189
3 192 188 167
3 192 167 170
3 193 192 170
3 182 194 168
3 194 172 168
3 193 170 195
3 170 169 195
3 195 169 171
3 196 195 171
3 196 171 172
3 194 197 172
3 197 198 172
3 198 196 172
3 200 173 190
3 199 200 190
3 201 174 173
3 200 201 173
3 176 179 202
3 177 176 202
3 177 202 175
3 175 202 184
3 178 185 203
3 178 203 179
3 179 203 202
3 203 185 204
3 202 205 184
3 183 206 181
3 180 181 206
3 180 206 182
3 182 206 194
3 183 184 207
3 205 207 184
3 183 207 206
3 185 208 204
3 186 209 185
3 185 209 208
3 187 210 186
3 186 210 209
3 191 189 211
3 189 188 211
3 211 188 192
3 199 190 212
3 212 190 191
3 212 191 211
3 213 199 212
3 214 211 192
3 214 192 193
3 215 214 193
3 215 193 195
3 206 216 194
3 216 197 194
3 216 217 197
3 215 195 218
3 218 195 196
3 198 218 196
3 217 219 197
3 219 218 198
3 197 219 198
3 220 199 213
3 221 200 199
3 220 221 199
3 222 201 200
3 221 222 200
3 203 204 223
3 203 223 202
3 202 223 205
3 204 208 224
3 204 224 223
3 205 223 225
3 205 225 207
3 207 225 226
3 207 226 206
3 226 216 206
3 208 228 224
3 224 228 227
3 209 229 208
3 229 228 208
3 210 230 209
3 209 230 229
3 213 212 231
3 212 211 231
3 231 211 214
3 232 220 213
3 232 213 231
3 233 231 214
3 233 214 215
3 234 233 215
3 234 215 218
3 226 235 216
3 235 217 216
3 235 236 217
3 217 236 219
3 237 234 218
3 237 218 219
3 236 238 219
3 238 237 219
3 240 220 232
3 239 240 232
3 241 221 220
3 240 241 220
3 242 222 221
3 241 242 221
3 224 227 243
3 224 243 223
3 223 243 225
3 225 243 244
3 225 244 226
3 226 244 235
3 227 245 243
3 228 246 227
3 227 246 245
3 229 247 228
3 228 247 246
3 230 248 229
3 229 248 247
3 239 232 249
3 232 231 249
3 249 231 233
3 250 249 233
3 250 233 234
3 237 250 234
3 244 251 235
3 235 251 236
3 251 252 236
3 236 252 238
3 252 253 238
3 253 250 237
3 253 237 238
3 254 239 249
3 255 240 239
3 254 255 239
3 256 241 240
3 255 256 240
3 257 242 241
3 256 257 241
3 245 258 243
3 243 258 244
3 244 258 251
3 245 259 258
3 246 260 245
3 245 260 259
3 247 261 246
3 246 261 260
3 248 262 247
3 247 262 261
3 254 249 263
3 263 249 250
3 253 263 250
3 258 264 251
3 251 264 252
3 264 265 252
3 265 263 253
3 252 265 253
3 266 254 263
3 267 255 254
3 266 267 254
3 268 256 255
3 267 268 255
3 269 257 256
3 268 269 256
3 259 270 258
3 270 264 258
3 260 271 259
3 259 271 270
3 261 272 260
3 260 272 271
3 262 273 261
3 273 272 261
3 270 274 264
3 275 266 263
3 275 263 265
3 274 276 264
3 276 265 264
3 276 277 265
3 277 275 265
3 278 267 266
3 275 278 266
3 279 268 267
3 278 279 267
3 280 269 268
3 279 280 268
3 271 281 270
3 270 281 274
3 272 282 271
3 271 282 281
3 273 283 272
3 272 283 282
3 281 284 274
3 274 284 276
3 285 278 275
3 277 285 275
3 284 286 276
3 286 285 277
3 276 286 277
3 287 279 278
3 285 287 278
3 288 280 279
3 287 288 279
3 282 289 281
3 281 289 284
3 283 290 282
3 282 290 289
3 289 291 284
3 284 291 286
3 291 292 286
3 292 287 285
3 286 292 285
3 293 288 287
3 292 293 287
3 290 294 289
3 289 294 291
3 294 295 291
3 295 293 292
3 291 295 292
CELL_TYPES 542
5
5
5
5
5
5
5
5
5
5
5
5
5
5
5
5
5
5
5
5
5
5
5
5
5
5
5
5
5
5
5
5
5
5
5
5
5
5
5
5
5
5
5
5
5
5
5
5
5
5
5
5
5
5
5
5
5
5
5
5
5
5
5
5
5
5
5
5
5
5
5
5
5
5
5
5
5
5
5
5
5
5
5
5
5
5
5
5
5
5
5
5
5
5
5
5
5
5
5
5
5
5
5
5
5
5
5
5
5
5
5
5
5
5
5
5
5
5
5
5
5
5
5
5
5
5
5
5
5
5
5
5
5
5
5
5
5
5
5
5
5
5
5
5
5
5
5
5
5
5
5
5
5
5
5
5
5
5
5
5
5
5
5
5
5
5
5
5
5
5
5
5
5
5
5
5
5
5
5
5
5
5
5
5
5
5
5
5
5
5
5
5
5
5
5
5
5
5
5
5
5
5
5
5
5
5
5
5
5
5
5
5
5
5
5
5
5
5
5
5
5
5
5
5
5
5
5
5
5
5
5
5
5
5
5
5
5
5
5
5
5
5
5
5
5
5
5
5
5
5
5
5
5
5
5
5
5
5
5
5
5
5
5
5
5
5
5
5
5
5
5
5
5
5
5
5
5
5
5
5
5
5
5
5
5
5
5
5
5
5
5
5
5
5
5
5
5
5
5
5
5
5
5
5
5
5
5
5
5
5
5
5
5
5
5
5
5
5
5
5
5
5
5
5
5
5
5
5
5
5
5
5
5
5
5
5
5
5
5
5
5
5
5
5
5
5
5
5
5
5
5
5
5
5
5
5
5
5
5
5
5
5
5
5
5
5
5
5
5
5
5
5
5
5
5
5
5
5
5
5
5
5
5
5
5
5
5
5
5
5
5
5
5
5
5
5
5
5
5
5
5
5
5
5
5
5
5
5
5
5
5
5
5
5
5
5
5
5
5
5
5
5
5
5
5
5
5
5
5
5
5
5
5
5
5
5
5
5
5
5
5
5
5
5
5
5
5
5
5
5
5
5
5
5
5
5
5
5
5
5
5
5
5
5
5
5
5
5
5
5
5
5
5
5
5
5
5
5
5
5
5
5
5
5
5
5
5
5
5
5
5
5
5
5
5
5
5
5
5
5
5
5
5
5
5
5
5
5
5
5
5
5
5
5
5
5
5
5
5
5
5
5
5
5
5
5
5
5
5
5
5
5
5
5
5
5
5
5
5
5
5
5
POINT_DATA 296
SCALARS concentrations float 4
LOOKUP_TABLE default
0 0.953346 0.120134 4.59032
0 0.953402 0.120337 -2.15668
0 0.953294 0.123647 6.36312
0 0.953286 0.120358 3.73056
0 0.953325 0.0940379 0.798381
0 0.953383 0.120193 5.03379
0 0.953386 0.121994 4.84423
0 0.953373 0.0935864 -0.183771
0 0.953386 0.0935724 -0.334435
0 0.953373 0.120293 1.76319
0 0.953304 0.119099 5.21141
0 0.953286 0.118821 5.81285
0 0.953275 0.118184 8.80112
0 0.953303 0.0935205 -0.494847
0 0.953307 0.0928158 -0.171209
0 0.953338 0.0930319 0.238095
0 0.953349 0.0940595 -0.52184
0 0.95337 0.0936546 0.900109
0 0.953376 0.0930723 -0.0135636
0 0.953356 0.0947814 -0.903337
0 0.953354 0.0929541 -0.377357
0 0.953308 0.120527 7.27493
0 0.953358 0.121609 3.55807
0 0.95334 0.0930722 0.0926221
0 0.95331 0.0938587 0.243938
0 0.953296 0.0931104 0.264299
0 0.953324 0.118008 4.38368
0 0.9533 0.0932223 0.295301
0 0.95338 0.120725 4.26517
0 0.953334 0.0932246 0.365273
0 0.953332 0.0928428 0.415501
0 0.953349 0.0926834 0.385349
0 0.953396 0.119731 -0.225396
0 0.953346 0.0936233 0.777339
0 0.953338 0.0928854 -0.763316
0 0.953358 0.0942344 1.01562
0 0.953352 0.0946338 0.629091
0 0.953338 0.0931061 -0.82726
0 0.953343 0.0943406 1.20743
0 0.953331 0.0933548 0.154643
0 0.953368 0.0945938 -1.23491
0 0.953339 0.0951351 0.21105
0 0.953343 0.0948676 0.312746
0 0.953337 0.120208 6.97521
0 0.953323 0.0931095 0.403333
0 0.953344 0.0941285 0.407311
0 0.953324 0.0942701 0.616809
0 0.953378 0.121496 2.93126
0 0.953364 0.0932658 0.290032
0 0.953351 0.119725 2.61188
0 0.953345 0.094123 -0.694439
0 0.953344 0.0938096 -0.63771
0 0.953344 0.0925541 -0.149412
0 0.953359 0.0940229 0.81573
0 0.953307 0.0937667 0.403182
0 0.953337 0.0941783 0.542214
0 0.953343 0.0952002 -1.50733
0 0.953335 0.0947018 0.752834
0 0.953339 0.0932571 -0.860129
0 0.953338 0.0958106 0.596821
0 0.953337 0.0938797 0.897158
0 0.953341 0.0949072 -1.35166
0 0.95335 0.0959079 0.715689
0 0.95327 0.122384 10.7368
0 0.953341 0.0937814 0.853009
0 0.953333 0.0943562 0.536421
0 0.95334 0.095359 1.08924
0 0.953347 0.0932009 -0.56785
0 0.953338 0.0935811 -0.66966
0 0.953401 0.119414 3.40764
0 0.95336 0.0930775 -0.890103
0 0.953405 0.120386 -0.7749
0 0.953342 0.0932666 -0.135531
0 0.953346 0.0940647 0.784577
0 0.953347 0.0935082 -0.6093
0 0.953337 0.093649 0.333264
0 0.953288 0.0927881 -0.114152
0 0.953322 0.0930279 -0.915931
0 0.953339 0.0947852 -0.249208
0 0.953344 0.095133 0.708748
0 0.95334 0.0977026 1.41233
0 0.953343 0.0933595 -0.419219
0 0.953337 0.09525 0.71539
0 0.953337 0.0944642 1.12075
0 0.953348 0.0965104 -0.259808
0 0.953282 0.118691 7.98711
0 0.953345 0.0933831 -0.179542
0 0.95334 0.0935795 0.74948
0 0.95334 0.0931063 -0.351595
0 0.95333 0.0932028 0.597717
0 0.953392 0.0929191 -0.416969
0 0.953357 0.0930848 0.531095
0 0.953401 0.117873 1.90702
0 0.953391 0.0934594 -0.275194
0 0.953351 0.0949049 0.873262
0 0.953345 0.0934845 -0.61306
0 0.953349 0.0930881 -0.537354
0 0.953341 0.093856 0.370048
0 0.953367 0.118384 1.35585
0 0.953313 0.0939388 -0.459239
0 0.953335 0.0942272 1.08638
0 0.95333 0.0934255 -0.510751
0 0.953331 0.0936346 -0.414565
0 0.953348 0.0937094 0.297383
0 0.95334 0.0951766 0.557892
0 0.953351 0.0939298 -0.516987
0 0.95334 0.092633 0.283832
0 0.953345 0.0943024 0.942326
0 0.953355 0.0940137 0.599959
0 0.953294 0.120152 4.22125
0 0.953332 0.0942773 0.613425
0 0.953338 0.100156 -0.267365
0 0.953365 0.0936141 0.576841
0 0.953353 0.0938039 0.641856
0 0.953382 0.0938968 -0.50141
0 0.95337 0.0962477 1.16847
0 0.953354 0.093549 0.628929
0 0.953351 0.0930482 0.0861891
0 0.953354 0.0928547 -0.0222007
0 0.95335 0.0934993 0.167215
0 0.953346 0.0927485 0.182809
0 0.95333 0.0942467 0.258518
0 0.953338 0.0955799 0.972197
0 0.953355 0.0962236 -0.226857
0 0.953343 0.118611 3.26271
0 0.953321 0.0940356 -0.920786
0 0.953343 0.0945566 -0.850144
0 0.953342 0.0928319 0.151457
0 0.953347 0.0938474 -0.470721
0 0.95335 0.09462 0.713397
0 0.953351 0.0937749 -0.78422
0 0.953343 0.093578 -0.748066
0 0.953345 0.0943811 -0.683813
0 0.953366 0.0955824 -0.574168
0 0.953339 0.117615 2.74474
0 0.953332 0.0937441 0.0604615
0 0.953348 0.0937307 0.288787
0 0.953359 0.0935646 -0.110863
0 0.95335 0.0934173 -0.324968
0 0.953339 0.0929387 -0.122532
0 0.953339 0.0934322 -0.0707141
0 0.953338 0.0940526 -0.0454103
0 0.953356 0.093705 -0.257836
0 0.953355 0.0929401 -0.617617
0 0.953347 0.0974631 0.580477
0 0.95334 0.0945351 0.338836
0 0.95335 0.0959097 -0.289939
0 0.953353 0.0944066 -0.116528
0 0.953356 0.0930765 -0.382883
0 0.953329 0.0926175 -0.22302
0 0.953344 0.120433 7.80933
0 0.953344 0.0940485 -0.221885
0 0.953346 0.0960103 1.33053
0 0.953348 0.0956803 1.29429
0 0.953349 0.0931334 0.351041
0 0.953362 0.094111 -0.0131031
0 0.953348 0.0947865 0.18711
0 0.953339 0.0940446 -0.866224
0 0.953349 0.0937087 0.0713224
0 0.953345 0.0945074 -1.28338
0 0.95336 0.0936092 -0.289649
0 0.953384 0.117419 3.87425
0 0.953339 0.0958865 0.35537
0 0.953333 0.0935645 0.0561666
0 0.953333 0.0930448 -0.366277
0 0.953333 0.0936346 -0.229124
0 0.953333 0.0933516 -0.240628
0 0.95335 0.0933045 0.193807
0 0.953355 0.0935854 -0.224995
0 0.953346 0.0979196 1.77359
0 0.953352 0.0960199 0.19934
0 0.953351 0.0932584 -0.0950381
0 0.953356 0.0926021 0.305905
0 0.953326 0.0933073 -0.061321
0 0.95332 0.118835 3.52541
0 0.953349 0.0936653 -0.476929
0 0.953354 0.0945187 0.0509656
0 0.953348 0.0943635 0.0753574
0 0.953354 0.0934715 -0.0994482
0 0.95336 0.0950736 -0.580627
0 0.953348 0.0969739 -1.11789
0 0.953348 0.0961 -0.897564
0 0.953354 0.0953083 -0.0520471
0 0.953347 0.096973 -0.187922
0 0.95335 0.0942197 -0.703916
0 0.953342 0.0939536 0.0716375
0 0.953337 0.0935571 -0.0852554
0 0.953339 0.120842 3.69568
0 0.953341 0.0939062 0.226824
0 0.95334 0.0946124 0.176549
0 0.953336 0.0930909 -0.371861
0 0.953334 0.0945984 -0.423157
0 0.953352 0.0940384 -0.135541
0 0.95335 0.0943118 0.74002
0 0.953358 0.0929077 -0.317764
0 0.95335 0.0933188 -0.206084
0 0.953355 0.0954736 0.366817
0 0.953357 0.0928056 0.51004
0 0.953357 0.0923755 0.132309
0 0.953347 0.0937419 -0.325669
0 0.953342 0.0926204 0.386719
0 0.953331 0.120802 2.8747
0 0.953349 0.093206 0.142335
0 0.953347 0.0943742 -0.576904
0 0.95334 0.0944047 -0.0878439
0 0.953341 0.0943959 -0.720884
0 0.953352 0.0996693 1.70699
0 0.953346 0.0945021 0.806451
0 0.953332 0.0940513 0.106462
0 0.953325 0.0931748 0.428932
0 0.953327 0.118802 5.98439
0 0.953352 0.0943081 -0.733233
0 0.953355 0.100305 -0.569312
0 0.95336 0.0988634 0.0192659
0 0.953344 0.0978634 0.332028
0 0.953349 0.0930462 -0.509588
0 0.953358 0.0938026 0.540583
0 0.953358 0.0928975 0.443904
0 0.953358 0.0929992 -0.452244
0 0.953356 0.0927913 0.0731488
0 0.953349 0.0954566 0.375158
0 0.953336 0.0926432 -0.465679
0 0.95334 0.120286 1.53847
0 0.953341 0.0948589 -0.981551
0 0.953331 0.0943341 0.850968
0 0.953351 0.0945043 0.51987
0 0.953355 0.094146 0.56658
0 0.953326 0.0939544 -0.387721
0 0.953328 0.0947445 0.403293
0 0.953314 0.0929673 0.51223
0 0.95331 0.119151 3.16965
0 0.953344 0.100435 1.28142
0 0.953342 0.0946562 -0.501139
0 0.953337 0.0935298 0.296484
0 0.953358 0.0931885 -0.295313
0 0.95336 0.0934664 -0.498846
0 0.953354 0.0931901 0.210863
0 0.953356 0.0929469 0.149171
0 0.95335 0.0928888 -0.13165
0 0.953341 0.0935131 -0.667904
0 0.953339 0.0934121 -0.29506
0 0.953326 0.0939038 -0.624563
0 0.953322 0.120401 7.13187
0 0.953347 0.100668 1.05008
0 0.953364 0.0947843 0.770033
0 0.953344 0.0945343 0.552189
0 0.953337 0.0945745 0.142534
0 0.95332 0.0932233 0.407946
0 0.953305 0.11954 7.58013
0 0.953338 0.0941322 -0.184378
0 0.95335 0.093714 -0.341816
0 0.953358 0.0930967 0.0765333
0 0.953352 0.0924511 -0.19075
0 0.95335 0.0926719 -0.292816
0 0.953343 0.0945592 0.308134
0 0.953332 0.0931194 -0.573163
0 0.953326 0.0930578 -0.255549
0 0.953319 0.119691 7.68566
0 0.953361 0.0928578 0.246413
0 0.953361 0.0947587 -0.330803
0 0.953352 0.0934464 -0.153888
0 0.953348 0.0934845 0.253515
0 0.953331 0.117071 5.29808
0 0.953348 0.0929448 -0.310067
0 0.953354 0.0921827 -0.113146
0 0.953349 0.0924905 0.361161
0 0.953342 0.093684 -0.815079
0 0.953331 0.0943977 1.09594
0 0.95333 0.0931679 -0.563206
0 0.953324 0.119804 2.44178
0 0.95336 0.0929218 0.0347112
0 0.953357 0.0924741 0.0696109
0 0.953352 0.0930643 -0.20176
0 0.953355 0.119412 0.230787
0 0.953355 0.0927141 0.120543
0 0.953341 0.093626 -0.694906
0 0.953351 0.0929338 -0.494884
0 0.953344 0.0936843 -0.806807
0 0.953329 0.0934874 -0.234368
0 0.953336 0.093391 0.253402
0 0.953343 0.117701 4.80839
0 0.953359 0.0926399 -0.119778
0 0.953361 0.0921272 0.000668927
0 0.953352 0.117496 7.0818
0 0.953359 0.0923481 0.335109
0 0.953336 0.0945415 -0.324028
0 0.95335 0.0931667 -0.537348
0 0.95333 0.0936587 -0.556881
0 0.953335 0.119409 6.16026
0 0.953374 0.0922178 0.306029
0 0.953373 0.120674 -0.690131
0 0.953376 0.0931365 -0.576854
0 0.953354 0.0930089 -0.582843
0 0.953342 0.117946 2.3938
0 0.953389 0.116943 0.646711
0 0.95338 0.118764 8.10951
VECTORS fa_u float
0.00723118 0.00289081 -0
0.00664245 0.00381627 -0
0.00295152 0.000803712 -0
0.00719096 0.00111389 -0
1e-08 0 0
0.00519068 0.0040001 -0
0.00260332 0.00252124 -0
1e-08 0 0
1e-08 0 0
0.00452413 0.00552922 -0
0.00523487 0.00879703 -0
0.0066175 0.000134852 -0
0.00620491 -0.000671801 0
1e-08 0 0
1e-08 0 0
1e-08 0 0
1e-08 0 0
1e-08 0 0
1e-08 0 0
1e-08 0 0
1e-08 0 0
0.00293118 0.00723027 -0
0.00159988 0.00627588 -0
1e-08 0 0
1e-08 0 0
1e-08 0 0
0.00888478 -0.00224543 0
1e-08 0 0
0.0108764 -0.00475642 0
1e-08 0 0
1e-08 0 0
1e-08 0 0
0.000856438 0.00732213 -0
1e-08 0 0
1e-08 0 0
1e-08 0 0
1e-08 0 0
1e-08 0 0
1e-08 0 0
1e-08 0 0
1e-08 0 0
1e-08 0 0
1e-08 0 0
-0.000170935 0.00763162 -0
1e-08 0 0
1e-08 0 0
1e-08 0 0
0.00566453 -0.00359689 0
1e-08 0 0
0.00274268 -0.00221068 0
1e-08 0 0
1e-08 0 0
1e-08 0 0
1e-08 0 0
1e-08 0 0
1e-08 0 0
1e-08 0 0
1e-08 0 0
1e-08 0 0
1e-08 0 0
1e-08 0 0
1e-08 0 0
1e-08 0 0
-0.000589984 0.00407358 0
1e-08 0 0
1e-08 0 0
1e-08 0 0
1e-08 0 0
1e-08 0 0
0.00322583 -0.00319175 0
1e-08 0 0
0.00283454 -0.00348001 0
1e-08 0 0
1e-08 0 0
1e-08 0 0
1e-08 0 0
1e-08 0 0
1e-08 0 0
1e-08 0 0
1e-08 0 0
1e-08 0 0
1e-08 0 0
1e-08 0 0
1e-08 0 0
1e-08 0 0
-0.00139185 0.00535706 0
1e-08 0 0
1e-08 0 0
1e-08 0 0
1e-08 0 0
1e-08 0 0
1e-08 0 0
0.00563726 -0.00926292 0
1e-08 0 0
1e-08 0 0
1e-08 0 0
1e-08 0 0
1e-08 0 0
0.00363878 -0.00900332 0
1e-08 0 0
1e-08 0 0
1e-08 0 0
1e-08 0 0
1e-08 0 0
1e-08 0 0
1e-08 0 0
1e-08 0 0
1e-08 0 0
1e-08 0 0
-0.00288528 0.00714447 0
1e-08 0 0
1e-08 0 0
1e-08 0 0
1e-08 0 0
1e-08 0 0
1e-08 0 0
1e-08 0 0
1e-08 0 0
1e-08 0 0
1e-08 0 0
1e-08 0 0
1e-08 0 0
1e-08 0 0
1e-08 0 0
0.00135496 -0.00540793 0
1e-08 0 0
1e-08 0 0
1e-08 0 0
1e-08 0 0
1e-08 0 0
1e-08 0 0
1e-08 0 0
1e-08 0 0
1e-08 0 0
-0.00373061 0.00646416 0
1e-08 0 0
1e-08 0 0
1e-08 0 0
1e-08 0 0
1e-08 0 0
1e-08 0 0
1e-08 0 0
1e-08 0 0
1e-08 0 0
1e-08 0 0
1e-08 0 0
1e-08 0 0
1e-08 0 0
1e-08 0 0
1e-08 0 0
0.000529244 -0.00387189 0
1e-08 0 0
1e-08 0 0
1e-08 0 0
1e-08 0 0
1e-08 0 0
1e-08 0 0
1e-08 0 0
1e-08 0 0
1e-08 0 0
1e-08 0 0
-0.00462533 0.0059343 0
1e-08 0 0
1e-08 0 0
1e-08 0 0
1e-08 0 0
1e-08 0 0
1e-08 0 0
1e-08 0 0
1e-08 0 0
1e-08 0 0
1e-08 0 0
1e-08 0 0
1e-08 0 0
0.000115373 -0.00771293 0
1e-08 0 0
1e-08 0 0
1e-08 0 0
1e-08 0 0
1e-08 0 0
1e-08 0 0
1e-08 0 0
1e-08 0 0
1e-08 0 0
1e-08 0 0
1e-08 0 0
1e-08 0 0
-0.00227719 0.00231587 0
1e-08 0 0
1e-08 0 0
1e-08 0 0
1e-08 0 0
1e-08 0 0
1e-08 0 0
1e-08 0 0
1e-08 0 0
1e-08 0 0
1e-08 0 0
1e-08 0 0
1e-08 0 0
1e-08 0 0
-0.000859975 -0.00697442 0
1e-08 0 0
1e-08 0 0
1e-08 0 0
1e-08 0 0
1e-08 0 0
1e-08 0 0
1e-08 0 0
1e-08 0 0
-0.00485115 0.00396386 0
1e-08 0 0
1e-08 0 0
1e-08 0 0
1e-08 0 0
1e-08 0 0
1e-08 0 0
1e-08 0 0
1e-08 0 0
1e-08 0 0
1e-08 0 0
1e-08 0 0
-0.00160474 -0.00617794 0
1e-08 0 0
1e-08 0 0
1e-08 0 0
1e-08 0 0
1e-08 0 0
1e-08 0 0
1e-08 0 0
-0.00863086 0.00518621 0
1e-08 0 0
1e-08 0 0
1e-08 0 0
1e-08 0 0
1e-08 0 0
1e-08 0 0
1e-08 0 0
1e-08 0 0
1e-08 0 0
1e-08 0 0
1e-08 0 0
-0.00302071 -0.00735409 0
1e-08 0 0
1e-08 0 0
1e-08 0 0
1e-08 0 0
1e-08 0 0
-0.0075058 0.00307305 0
1e-08 0 0
1e-08 0 0
1e-08 0 0
1e-08 0 0
1e-08 0 0
1e-08 0 0
1e-08 0 0
1e-08 0 0
-0.00497039 -0.00829651 0
1e-08 0 0
1e-08 0 0
1e-08 0 0
1e-08 0 0
-0.00620103 0.00159756 0
1e-08 0 0
1e-08 0 0
1e-08 0 0
1e-08 0 0
1e-08 0 0
1e-08 0 0
-0.00364425 -0.00450891 0
1e-08 0 0
1e-08 0 0
1e-08 0 0
-0.00721723 0.000867286 0
1e-08 0 0
1e-08 0 0
1e-08 0 0
1e-08 0 0
1e-08 0 0
1e-08 0 0
-0.00268547 -0.00266277 0
1e-08 0 0
1e-08 0 0
-0.0083081 -0.000179349 0
1e-08 0 0
1e-08 0 0
1e-08 0 0
1e-08 0 0
-0.00585276 -0.00457196 0
1e-08 0 0
-0.00367458 -0.000531962 0
1e-08 0 0
1e-08 0 0
-0.00678281 -0.00391317 0
-0.00549491 -0.00141657 0
-0.00707734 -0.00284617 0
