# vtk DataFile Version 2.0
CellBP Time: 2.36
ASCII
DATASET UNSTRUCTURED_GRID
POINTS 296 double
-9.11003 -3.74013 0
-8.53748 -4.90607 0
-9.52036 -2.50713 0
-9.783 -1.24171 0
-8.27568 -2.78458 0
-7.81462 -5.98703 0
-6.95695 -6.96404 0
-7.8354 -3.83009 0
-7.26514 -4.81707 0
-5.9924 -7.8281 0
-4.92433 -8.55723 0
-9.87487 0.0457319 0
-9.79919 1.34185 0
-8.58268 -1.66313 0
-8.71836 -0.522853 0
-7.51155 -1.97564 0
-7.14573 -2.86622 0
-6.57535 -5.72974 0
-5.77561 -6.54934 0
-6.7122 -3.84221 0
-6.15396 -4.62865 0
-3.75863 -9.13189 0
-2.52264 -9.5445 0
-4.8743 -7.26503 0
-3.89359 -7.84205 0
-8.72898 0.637266 0
-9.55555 2.6231 0
-8.56616 1.75918 0
-9.13855 3.85483 0
-7.67201 -0.915474 0
-7.72782 0.0822131 0
-6.88293 -1.29535 0
-1.24303 -9.79376 0
-6.37846 -2.12575 0
-6.25444 -3.01958 0
-5.48486 -5.4286 0
-4.7562 -6.07069 0
-5.60094 -3.71774 0
-5.21412 -4.51991 0
-2.85259 -8.31523 0
-1.77064 -8.58646 0
-3.90158 -6.67942 0
-3.04296 -7.11145 0
0.0518831 -9.87095 0
-7.64343 1.13467 0
-8.29134 2.8996 0
-7.49448 2.09087 0
-8.54903 5.01139 0
-7.8263 3.94706 0
-7.81195 6.08229 0
-6.71628 -0.388211 0
-6.89402 0.549207 0
-5.72306 -0.993873 0
-0.590343 -8.74994 0
0.557256 -8.70175 0
-5.25864 -2.45637 0
-4.44689 -5.05337 0
-3.86948 -5.73375 0
-4.40127 -3.77609 0
-2.04844 -7.51582 0
-1.12821 -7.73532 0
-2.97383 -6.06171 0
-2.29759 -6.57917 0
1.34112 -9.77562 0
-6.63511 1.40865 0
-7.11373 3.08915 0
-6.60685 2.35163 0
-7.23823 4.94534 0
-6.66485 3.9661 0
-6.95656 7.05431 0
-6.5176 5.84463 0
-5.98585 7.91501 0
-4.42713 -1.1762 0
-5.7719 0.505141 0
-4.6316 -0.016993 0
0.00577268 -7.78702 0
1.7187 -8.56585 0
0.935073 -7.69519 0
-4.01438 -2.39022 0
-3.47571 -1.38684 0
-3.27013 -4.77295 0
-3.25037 -3.24926 0
-1.37386 -6.63005 0
-0.51049 -6.97096 0
-1.96768 -5.50382 0
2.61319 -9.5238 0
-5.46884 2.02153 0
-6.04628 3.0439 0
-6.05601 4.82591 0
-5.71304 3.95137 0
-5.71145 6.65762 0
-5.40724 5.5677 0
-4.9171 8.65026 0
-4.7965 7.33594 0
-3.48862 -0.422014 0
-4.42277 1.24239 0
-3.69292 0.589977 0
-4.0372 2.3112 0
-3.75494 9.22562 0
2.82843 -8.2477 0
0.405738 -6.73524 0
1.99341 -7.44975 0
1.28322 -6.83819 0
-2.43849 -0.870212 0
-2.82959 -2.12354 0
-2.28442 -4.07403 0
-2.31664 -2.95906 0
-0.445654 -5.81819 0
-1.21609 -4.4742 0
3.84324 -9.11124 0
-4.7522 3.36573 0
-5.04684 4.55196 0
-4.60666 6.21952 0
-4.50142 5.31014 0
-3.81376 7.93003 0
-3.79137 6.77721 0
-2.76005 8.3503 0
-1.64545 -0.133395 0
-1.4459 -0.886475 0
-2.4831 0.511009 0
-3.23808 1.44181 0
-3.21905 3.29958 0
-2.89667 2.36909 0
-1.35414 0.631765 0
-2.52168 9.63457 0
3.88823 -7.80567 0
2.92422 -7.07537 0
0.935986 -5.77035 0
2.04273 -6.34802 0
-1.6769 -1.98707 0
-1.42817 -3.26317 0
0.0883983 -4.71745 0
-0.563343 -3.67795 0
4.8808 -7.24175 0
5.00706 -8.53958 0
-3.74758 4.51629 0
-3.70424 5.70045 0
-2.85882 7.22061 0
-2.98446 6.29685 0
-1.65051 8.66638 0
-1.92 7.55433 0
-2.32523 4.02922 0
-0.726937 -1.32402 0
-0.834931 -0.253674 0
-1.93401 1.68534 0
-2.11796 2.87002 0
-1.30323 3.5325 0
-0.869913 1.35412 0
-0.282298 0.460055 0
-0.531376 8.80858 0
-1.24575 9.88367 0
1.09792 -4.53869 0
3.85978 -6.63357 0
2.94966 -6.02514 0
2.08931 -5.37006 0
4.73382 -6.13329 0
-0.555015 -2.47276 0
0.493185 -3.44779 0
0.0562557 -1.60989 0
1.47094 -3.65511 0
5.81448 -6.54741 0
6.08636 -7.81602 0
-2.45636 5.30597 0
-2.10931 6.477 0
-0.892424 7.74493 0
-1.25594 6.87391 0
0.0896872 7.82911 0
-1.13838 4.47017 0
0.14996 -0.616799 0
-0.801287 2.49173 0
-0.335398 3.59245 0
0.0604218 1.51496 0
0.740174 0.47437 0
0.64048 8.81922 0
0.0475247 9.97646 0
2.35804 -4.24496 0
3.81577 -5.5741 0
2.9675 -5.1562 0
5.5254 -5.43343 0
4.64499 -5.21938 0
0.629469 -2.29034 0
1.24958 -2.93737 0
0.757923 -1.39091 0
2.14774 -3.11415 0
2.97093 -3.44778 0
6.11186 -4.74726 0
6.60609 -5.71818 0
7.06052 -6.95504 0
-1.00971 5.77852 0
-0.3627 6.83299 0
1.11827 7.7235 0
0.560042 7.03383 0
-0.00119336 4.70415 0
0.602546 3.81543 0
1.33777 -0.642842 0
0.535052 2.6487 0
0.960455 1.57611 0
1.90536 0.212293 0
1.61088 1.06262 0
2.1203 7.54059 0
1.78981 8.66227 0
1.34537 9.89565 0
3.79121 -4.30571 0
5.07382 -4.39827 0
5.80595 -3.89705 0
3.75793 -3.17335 0
1.80744 -1.88094 0
3.00389 -2.5593 0
6.74109 -3.91701 0
7.33582 -4.86145 0
7.92484 -5.98885 0
0.483525 5.84512 0
1.42325 6.70212 0
2.36352 6.63299 0
1.20272 4.53651 0
1.48138 3.38374 0
2.42791 -0.691377 0
2.81822 0.142119 0
1.78293 2.15991 0
2.60512 1.1472 0
3.05869 7.12998 0
2.89029 8.33069 0
2.62377 9.64408 0
4.87774 -3.295 0
6.08385 -3.08191 0
4.14957 -2.26212 0
3.23128 -1.49906 0
6.69403 -2.30023 0
7.19203 -3.02493 0
7.92264 -3.89126 0
8.65434 -4.92032 0
2.01552 5.5723 0
3.06413 6.11608 0
2.35449 4.10733 0
2.41172 3.04893 0
3.51157 -0.457929 0
3.60206 0.613576 0
2.95053 2.27994 0
3.52882 1.52088 0
3.97765 5.85869 0
3.95882 6.75264 0
3.95501 7.89654 0
3.8583 9.22952 0
5.5391 -1.90528 0
4.48836 -1.12358 0
6.67597 -1.32744 0
7.55174 -2.02452 0
8.35037 -2.8477 0
9.23096 -3.75641 0
3.39026 4.84513 0
3.31855 3.36566 0
4.66758 0.131483 0
4.48964 1.30104 0
4.0346 2.42493 0
4.52414 5.11205 0
4.80264 6.14888 0
4.94945 7.33272 0
5.02197 8.65311 0
5.847 -0.434197 0
6.9637 -0.487748 0
7.71467 -1.07467 0
8.63523 -1.73359 0
9.64487 -2.52096 0
4.51032 3.79708 0
5.77115 1.08352 0
5.3207 2.51074 0
5.32107 4.57858 0
5.55803 5.47899 0
5.85233 6.62362 0
6.09022 7.92444 0
6.79098 0.452876 0
7.80106 -0.0251069 0
8.80632 -0.57819 0
9.8956 -1.24179 0
6.89984 1.3292 0
5.65948 3.74098 0
6.47818 2.16835 0
6.31201 3.05232 0
6.22474 4.64244 0
6.62939 5.79091 0
7.05968 7.06396 0
7.72544 0.954765 0
8.7973 0.568195 0
9.97496 0.054711 0
7.54747 1.98006 0
6.74929 3.85815 0
7.1942 2.90987 0
7.30814 4.84122 0
7.91999 6.08952 0
8.65096 1.7113 0
9.87759 1.34395 0
8.34078 2.80791 0
7.90767 3.87839 0
8.64356 5.01069 0
9.62616 2.61665 0
9.21474 3.84667 0
CELLS 542 2168
3 2 0 4
3 0 1 7
3 4 0 7
3 1 5 8
3 7 1 8
3 3 2 13
3 13 2 4
3 11 3 14
3 14 3 13
3 13 4 15
3 4 7 16
3 15 4 16
3 5 6 17
3 8 5 17
3 6 9 18
3 17 6 18
3 7 8 19
3 16 7 19
3 8 17 20
3 19 8 20
3 9 10 23
3 18 9 23
3 10 21 24
3 23 10 24
3 12 11 25
3 25 11 14
3 26 12 27
3 27 12 25
3 14 13 29
3 29 13 15
3 25 14 30
3 30 14 29
3 29 15 31
3 15 16 33
3 31 15 33
3 16 19 34
3 33 16 34
3 17 18 35
3 20 17 35
3 18 23 36
3 35 18 36
3 19 20 37
3 34 19 37
3 20 35 38
3 37 20 38
3 21 22 39
3 24 21 39
3 22 32 40
3 39 22 40
3 23 24 41
3 36 23 41
3 24 39 42
3 41 24 42
3 27 25 44
3 44 25 30
3 28 26 45
3 45 26 27
3 45 27 46
3 46 27 44
3 47 28 48
3 48 28 45
3 30 29 50
3 50 29 31
3 44 30 51
3 51 30 50
3 50 31 52
3 31 33 52
3 32 43 53
3 40 32 53
3 53 43 54
3 33 34 55
3 34 37 55
3 33 55 52
3 35 36 56
3 38 35 56
3 36 41 57
3 56 36 57
3 37 38 58
3 38 56 58
3 37 58 55
3 39 40 59
3 42 39 59
3 40 53 60
3 59 40 60
3 41 42 61
3 57 41 61
3 42 59 62
3 61 42 62
3 43 63 54
3 46 44 64
3 64 44 51
3 48 45 65
3 65 45 46
3 65 46 66
3 66 46 64
3 49 47 67
3 67 47 48
3 67 48 68
3 68 48 65
3 69 49 70
3 70 49 67
3 52 55 72
3 64 51 73
3 51 50 73
3 50 52 73
3 73 52 74
3 74 52 72
3 53 54 75
3 60 53 75
3 54 63 76
3 54 76 77
3 75 54 77
3 55 58 78
3 72 55 78
3 72 78 79
3 56 57 80
3 57 61 80
3 56 80 58
3 58 80 81
3 78 58 81
3 59 60 82
3 62 59 82
3 60 75 83
3 82 60 83
3 61 62 84
3 62 82 84
3 61 84 80
3 63 85 76
3 66 64 86
3 64 73 86
3 68 65 87
3 87 65 66
3 87 66 86
3 70 67 88
3 88 67 68
3 88 68 89
3 89 68 87
3 71 69 90
3 90 69 70
3 90 70 91
3 91 70 88
3 92 71 93
3 93 71 90
3 74 72 94
3 94 72 79
3 86 73 95
3 95 73 74
3 95 74 96
3 96 74 94
3 97 86 95
3 76 85 99
3 75 77 100
3 83 75 100
3 76 99 101
3 77 76 101
3 77 101 102
3 100 77 102
3 94 79 103
3 78 81 104
3 79 78 104
3 79 104 103
3 80 84 105
3 81 80 105
3 81 105 106
3 104 81 106
3 82 83 107
3 83 100 107
3 82 107 84
3 84 107 108
3 105 84 108
3 85 109 99
3 89 87 110
3 87 86 110
3 110 86 97
3 91 88 111
3 111 88 89
3 111 89 110
3 93 90 112
3 112 90 91
3 112 91 113
3 113 91 111
3 98 92 114
3 114 92 93
3 114 93 115
3 115 93 112
3 116 98 114
3 117 103 118
3 96 94 119
3 94 103 119
3 119 103 117
3 97 95 120
3 120 95 96
3 120 96 119
3 121 110 97
3 121 97 122
3 122 97 120
3 123 119 117
3 124 98 116
3 99 109 125
3 99 125 126
3 101 99 126
3 100 102 127
3 100 127 107
3 101 126 128
3 102 101 128
3 102 128 127
3 104 106 129
3 104 129 103
3 103 129 118
3 105 108 130
3 106 105 130
3 106 130 129
3 107 127 131
3 108 107 131
3 108 131 132
3 108 132 130
3 109 134 125
3 125 134 133
3 113 111 135
3 111 110 135
3 135 110 121
3 115 112 136
3 136 112 113
3 136 113 135
3 116 114 137
3 137 114 115
3 137 115 138
3 138 115 136
3 139 124 116
3 139 116 140
3 140 116 137
3 141 135 121
3 118 129 142
3 118 142 143
3 117 118 143
3 123 117 143
3 122 120 144
3 120 119 144
3 144 119 123
3 141 121 145
3 145 121 122
3 145 122 144
3 146 141 145
3 147 144 123
3 147 123 148
3 143 148 123
3 150 124 139
3 149 150 139
3 131 127 151
3 125 133 152
3 126 125 152
3 126 152 153
3 128 126 153
3 128 153 154
3 128 154 127
3 127 154 151
3 152 133 155
3 130 132 156
3 130 156 129
3 129 156 142
3 131 151 157
3 132 131 157
3 132 157 156
3 156 158 142
3 157 151 159
3 133 160 155
3 134 161 133
3 133 161 160
3 138 136 162
3 136 135 162
3 162 135 141
3 140 137 163
3 163 137 138
3 163 138 162
3 149 139 164
3 164 139 140
3 164 140 165
3 165 140 163
3 166 149 164
3 167 162 141
3 167 141 146
3 142 158 168
3 143 142 168
3 143 168 148
3 146 145 169
3 145 144 169
3 169 144 147
3 170 167 146
3 170 146 169
3 171 169 147
3 171 147 148
3 171 148 172
3 168 172 148
3 173 149 166
3 174 150 149
3 173 174 149
3 154 175 151
3 151 175 159
3 152 155 176
3 153 152 176
3 153 176 177
3 153 177 154
3 154 177 175
3 155 160 178
3 155 178 179
3 176 155 179
3 156 157 180
3 156 180 158
3 157 159 181
3 157 181 180
3 158 180 182
3 158 182 168
3 159 175 183
3 159 183 181
3 175 184 183
3 160 186 178
3 178 186 185
3 161 187 160
3 160 187 186
3 165 163 188
3 163 162 188
3 188 162 167
3 166 164 189
3 189 164 165
3 189 165 188
3 190 173 166
3 190 166 191
3 191 166 189
3 192 188 167
3 192 167 170
3 193 192 170
3 182 194 168
3 194 172 168
3 193 170 195
3 170 169 195
3 195 169 171
3 196 195 171
3 196 171 172
3 194 197 172
3 197 198 172
3 198 196 172
3 200 173 190
3 199 200 190
3 201 174 173
3 200 201 173
3 176 179 202
3 177 176 202
3 177 202 175
3 175 202 184
3 178 185 203
3 178 203 179
3 179 203 202
3 203 185 204
3 202 205 184
3 183 206 181
3 180 181 206
3 180 206 182
3 182 206 194
3 183 184 207
3 205 207 184
3 183 207 206
3 185 208 204
3 186 209 185
3 185 209 208
3 187 210 186
3 186 210 209
3 191 189 211
3 189 188 211
3 211 188 192
3 199 190 212
3 212 190 191
3 212 191 211
3 213 199 212
3 214 211 192
3 214 192 193
3 215 214 193
3 215 193 195
3 206 216 194
3 216 197 194
3 216 217 197
3 215 195 218
3 218 195 196
3 198 218 196
3 217 219 197
3 219 218 198
3 197 219 198
3 220 199 213
3 221 200 199
3 220 221 199
3 222 201 200
3 221 222 200
3 203 204 223
3 203 223 202
3 202 223 205
3 204 208 224
3 204 224 223
3 205 223 225
3 205 225 207
3 207 225 226
3 207 226 206
3 226 216 206
3 208 228 224
3 224 228 227
3 209 229 208
3 229 228 208
3 210 230 209
3 209 230 229
3 213 212 231
3 212 211 231
3 231 211 214
3 232 220 213
3 232 213 231
3 233 231 214
3 233 214 215
3 234 233 215
3 234 215 218
3 226 235 216
3 235 217 216
3 235 236 217
3 217 236 219
3 237 234 218
3 237 218 219
3 236 238 219
3 238 237 219
3 240 220 232
3 239 240 232
3 241 221 220
3 240 241 220
3 242 222 221
3 241 242 221
3 224 227 243
3 224 243 223
3 223 243 225
3 225 243 244
3 225 244 226
3 226 244 235
3 227 245 243
3 228 246 227
3 227 246 245
3 229 247 228
3 228 247 246
3 230 248 229
3 229 248 247
3 239 232 249
3 232 231 249
3 249 231 233
3 250 249 233
3 250 233 234
3 237 250 234
3 244 251 235
3 235 251 236
3 251 252 236
3 236 252 238
3 252 253 238
3 253 250 237
3 253 237 238
3 254 239 249
3 255 240 239
3 254 255 239
3 256 241 240
3 255 256 240
3 257 242 241
3 256 257 241
3 245 258 243
3 243 258 244
3 244 258 251
3 245 259 258
3 246 260 245
3 245 260 259
3 247 261 246
3 246 261 260
3 248 262 247
3 247 262 261
3 254 249 263
3 263 249 250
3 253 263 250
3 258 264 251
3 251 264 252
3 264 265 252
3 265 263 253
3 252 265 253
3 266 254 263
3 267 255 254
3 266 267 254
3 268 256 255
3 267 268 255
3 269 257 256
3 268 269 256
3 259 270 258
3 270 264 258
3 260 271 259
3 259 271 270
3 261 272 260
3 260 272 271
3 262 273 261
3 273 272 261
3 270 274 264
3 275 266 263
3 275 263 265
3 274 276 264
3 276 265 264
3 276 277 265
3 277 275 265
3 278 267 266
3 275 278 266
3 279 268 267
3 278 279 267
3 280 269 268
3 279 280 268
3 271 281 270
3 270 281 274
3 272 282 271
3 271 282 281
3 273 283 272
3 272 283 282
3 281 284 274
3 274 284 276
3 285 278 275
3 277 285 275
3 284 286 276
3 286 285 277
3 276 286 277
3 287 279 278
3 285 287 278
3 288 280 279
3 287 288 279
3 282 289 281
3 281 289 284
3 283 290 282
3 282 290 289
3 289 291 284
3 284 291 286
3 291 292 286
3 292 287 285
3 286 292 285
3 293 288 287
3 292 293 287
3 290 294 289
3 289 294 291
3 294 295 291
3 295 293 292
3 291 295 292
CELL_TYPES 542
5
5
5
5
5
5
5
5
5
5
5
5
5
5
5
5
5
5
5
5
5
5
5
5
5
5
5
5
5
5
5
5
5
5
5
5
5
5
5
5
5
5
5
5
5
5
5
5
5
5
5
5
5
5
5
5
5
5
5
5
5
5
5
5
5
5
5
5
5
5
5
5
5
5
5
5
5
5
5
5
5
5
5
5
5
5
5
5
5
5
5
5
5
5
5
5
5
5
5
5
5
5
5
5
5
5
5
5
5
5
5
5
5
5
5
5
5
5
5
5
5
5
5
5
5
5
5
5
5
5
5
5
5
5
5
5
5
5
5
5
5
5
5
5
5
5
5
5
5
5
5
5
5
5
5
5
5
5
5
5
5
5
5
5
5
5
5
5
5
5
5
5
5
5
5
5
5
5
5
5
5
5
5
5
5
5
5
5
5
5
5
5
5
5
5
5
5
5
5
5
5
5
5
5
5
5
5
5
5
5
5
5
5
5
5
5
5
5
5
5
5
5
5
5
5
5
5
5
5
5
5
5
5
5
5
5
5
5
5
5
5
5
5
5
5
5
5
5
5
5
5
5
5
5
5
5
5
5
5
5
5
5
5
5
5
5
5
5
5
5
5
5
5
5
5
5
5
5
5
5
5
5
5
5
5
5
5
5
5
5
5
5
5
5
5
5
5
5
5
5
5
5
5
5
5
5
5
5
5
5
5
5
5
5
5
5
5
5
5
5
5
5
5
5
5
5
5
5
5
5
5
5
5
5
5
5
5
5
5
5
5
5
5
5
5
5
5
5
5
5
5
5
5
5
5
5
5
5
5
5
5
5
5
5
5
5
5
5
5
5
5
5
5
5
5
5
5
5
5
5
5
5
5
5
5
5
5
5
5
5
5
5
5
5
5
5
5
5
5
5
5
5
5
5
5
5
5
5
5
5
5
5
5
5
5
5
5
5
5
5
5
5
5
5
5
5
5
5
5
5
5
5
5
5
5
5
5
5
5
5
5
5
5
5
5
5
5
5
5
5
5
5
5
5
5
5
5
5
5
5
5
5
5
5
5
5
5
5
5
5
5
5
5
5
5
5
5
5
5
5
5
5
5
5
5
5
5
5
5
5
5
5
5
5
5
5
5
5
5
5
5
5
5
5
5
5
5
5
5
5
5
5
5
5
5
5
5
5
5
5
5
5
5
5
5
5
5
5
5
5
5
5
5
5
5
5
5
5
5
5
5
5
POINT_DATA 296
SCALARS concentrations float 4
LOOKUP_TABLE default
0 0.984676 0.19172 20.8037
0 0.984591 0.185505 27.7912
0 0.984705 0.18568 25.602
0 0.984616 0.18846 19.7256
0 0.984714 0.0964719 -0.988168
0 0.984688 0.185222 24.4265
0 0.984722 0.184451 24.779
0 0.984652 0.0957194 -1.14407
0 0.984666 0.0963572 1.01063
0 0.984801 0.187929 26.8643
0 0.985005 0.193076 -1.77768
0 0.984607 0.18721 26.2048
0 0.984676 0.182697 28.8871
0 0.984684 0.0943543 -0.882198
0 0.984655 0.0937392 0.472033
0 0.98474 0.0954748 -1.00246
0 0.984734 0.0961309 1.05593
0 0.984713 0.0942776 0.463401
0 0.984733 0.0941017 0.443417
0 0.984743 0.0952137 -1.16514
0 0.984749 0.0949684 -1.09769
0 0.985057 0.191828 -3.91934
0 0.984989 0.186532 17.7435
0 0.984856 0.0941617 -0.738967
0 0.984984 0.0947968 -0.0439932
0 0.984677 0.0932131 0.451649
0 0.98482 0.188217 8.96268
0 0.984785 0.0938863 0.381047
0 0.9848 0.18634 12.8227
0 0.984743 0.095188 -0.964128
0 0.98476 0.0945737 -0.796927
0 0.984791 0.0951128 0.748886
0 0.984891 0.183733 18.2302
0 0.984798 0.0946854 0.780436
0 0.984801 0.096335 0.966585
0 0.984747 0.0947463 -0.716076
0 0.984772 0.0949542 -0.504183
0 0.984801 0.0956557 -0.902524
0 0.984796 0.095697 -0.611899
0 0.984958 0.0953219 0.440871
0 0.984872 0.0943539 0.0877826
0 0.98483 0.095168 -0.62453
0 0.984875 0.0958755 -0.0801501
0 0.984743 0.18717 20.4275
0 0.9848 0.094313 0.359977
0 0.984833 0.0939221 0.116358
0 0.984847 0.0968281 -0.0483612
0 0.984892 0.195099 17.4626
0 0.984842 0.0939404 -0.0970647
0 0.984952 0.190146 6.36143
0 0.984805 0.094242 0.550473
0 0.984819 0.0948283 -0.360896
0 0.984808 0.0949867 -0.41202
0 0.984768 0.0946177 -0.0112459
0 0.984707 0.0950007 0.0545614
0 0.984806 0.095194 0.939107
0 0.9848 0.0954815 -0.47045
0 0.9848 0.0960377 -0.825329
0 0.984805 0.0943254 -0.725678
0 0.984827 0.0951661 0.25717
0 0.98476 0.0962382 0.00646745
0 0.984826 0.0963557 -0.732865
0 0.98484 0.0971412 0.0261123
0 0.984765 0.183849 18.0066
0 0.984839 0.0955875 0.182653
0 0.984851 0.0967227 0.653459
0 0.984846 0.0962009 0.250148
0 0.984908 0.0949716 0.850301
0 0.984849 0.0987197 -0.810613
0 0.984921 0.198142 9.48474
0 0.984912 0.0936864 0.91839
0 0.984887 0.193337 14.1193
0 0.9848 0.095333 -0.614992
0 0.984818 0.095327 -0.515004
0 0.98481 0.0945975 -0.371184
0 0.984738 0.0955805 -0.871974
0 0.984842 0.0948457 -0.481667
0 0.984756 0.0953499 -0.384693
0 0.984802 0.0955728 0.724601
0 0.984819 0.0977135 -0.45829
0 0.984811 0.0951147 -0.228256
0 0.984814 0.0945148 -0.252256
0 0.9848 0.100581 -1.69942
0 0.984788 0.095126 -0.781128
0 0.984812 0.0965184 0.625151
0 0.985056 0.187345 7.08929
0 0.984828 0.0943014 0.456325
0 0.984832 0.0963362 0.753971
0 0.984855 0.0948999 0.798681
0 0.984831 0.0947028 0.447314
0 0.984874 0.102999 0.725055
0 0.984848 0.0952712 0.954707
0 0.984951 0.194664 6.816
0 0.984891 0.096408 2.18711
0 0.984828 0.0942594 0.0776699
0 0.984821 0.0934583 0.119836
0 0.984832 0.0936467 -0.328331
0 0.984822 0.0940536 0.330252
0 0.984997 0.194179 7.00795
0 0.985002 0.0962475 -0.180187
0 0.984794 0.0964736 -0.848035
0 0.98481 0.10054 3.02509
0 0.984793 0.0967855 0.410648
0 0.984851 0.0942843 -0.0120361
0 0.984835 0.0953898 -0.723738
0 0.984818 0.0952811 0.385332
0 0.984837 0.0948008 0.260353
0 0.984804 0.096239 0.26895
0 0.984814 0.0960996 0.472153
0 0.985132 0.182022 14.1741
0 0.984822 0.0937101 -0.270918
0 0.98483 0.094836 0.566268
0 0.984847 0.10049 0.582993
0 0.984831 0.0954252 0.781509
0 0.984958 0.0971075 0.179516
0 0.984876 0.0967602 0.519353
0 0.984984 0.0964328 -1.93407
0 0.984864 0.0939943 -0.527022
0 0.984863 0.0936265 -0.206008
0 0.98485 0.0961216 0.699858
0 0.984832 0.0938805 -0.379648
0 0.984818 0.0946579 -0.12969
0 0.984823 0.0947775 -0.670575
0 0.98487 0.0947699 -0.964239
0 0.98502 0.189617 -2.47472
0 0.984991 0.0984904 0.539023
0 0.984833 0.0971883 -0.405465
0 0.984815 0.0953727 0.582743
0 0.984801 0.0963137 1.36556
0 0.984853 0.0943579 0.411753
0 0.984839 0.0950426 0.579472
0 0.984829 0.0953825 -0.186505
0 0.98484 0.0942177 0.117614
0 0.984953 0.102986 0.641439
0 0.985057 0.185811 -2.44353
0 0.984821 0.0942213 -0.00827859
0 0.984833 0.095774 1.81535
0 0.984911 0.101002 2.29195
0 0.984844 0.0956067 1.02057
0 0.984983 0.0952277 0.633647
0 0.984909 0.0959821 0.469144
0 0.984814 0.0946439 0.138276
0 0.984872 0.09509 0.535028
0 0.984878 0.0945049 -0.639446
0 0.984849 0.0969618 -0.982395
0 0.984829 0.0954061 -1.00627
0 0.984818 0.0949948 -0.234887
0 0.984881 0.0942624 -0.189469
0 0.984884 0.0941829 -0.497809
0 0.984955 0.0944187 0.272698
0 0.98505 0.192137 7.65627
0 0.984825 0.0936794 0.31701
0 0.984857 0.0987073 -0.411056
0 0.984825 0.106093 -5.31265
0 0.984824 0.0948962 0.59782
0 0.984848 0.098062 1.58443
0 0.984852 0.0946728 0.673597
0 0.984841 0.0947811 -0.290826
0 0.984858 0.097633 -1.06625
0 0.98482 0.0964731 -0.0976327
0 0.984812 0.0968845 1.67384
0 0.984928 0.18246 15.7222
0 0.984828 0.0986672 -0.100602
0 0.984853 0.0954221 0.366814
0 0.984864 0.0947432 0.440949
0 0.984846 0.0952559 1.92386
0 0.984813 0.0943877 0.695067
0 0.984815 0.0951442 0.126738
0 0.984887 0.0941258 -0.560326
0 0.984855 0.098228 -0.545155
0 0.984833 0.0989248 -0.984096
0 0.984884 0.0958292 0.909158
0 0.984887 0.0934595 0.0677762
0 0.984914 0.0943308 -0.622009
0 0.985031 0.181029 15.3403
0 0.984825 0.0944045 -0.347179
0 0.984853 0.0965912 1.62459
0 0.984846 0.0950364 -0.636388
0 0.984771 0.106123 3.80211
0 0.984831 0.107239 -4.94151
0 0.984842 0.0945401 0.0784755
0 0.984841 0.0944184 0.211223
0 0.984859 0.100226 -0.797023
0 0.984827 0.0940714 0.142794
0 0.984817 0.094815 0.137706
0 0.984757 0.0955754 0.0973288
0 0.98467 0.0951282 0.0656895
0 0.984699 0.18394 28.2575
0 0.984842 0.0944408 0.569866
0 0.98484 0.0950392 -0.24919
0 0.984809 0.09727 -1.75128
0 0.984836 0.0955604 0.38325
0 0.984849 0.101556 -2.37431
0 0.984861 0.0953243 -0.92544
0 0.984876 0.0935536 -0.142
0 0.984868 0.0953368 0.150817
0 0.984887 0.0941214 -0.53261
0 0.984872 0.0947259 -0.294632
0 0.984884 0.0946937 0.146055
0 0.98484 0.0991218 0.951128
0 0.984902 0.0945416 -0.640037
0 0.984985 0.183853 16.4258
0 0.984831 0.096317 -0.419851
0 0.984792 0.0969561 -0.83714
0 0.984786 0.0971849 -0.162204
0 0.984836 0.0949141 -0.062057
0 0.984856 0.0949719 -0.403805
0 0.984844 0.101135 2.70408
0 0.984799 0.0951405 -0.0504353
0 0.984755 0.0939661 0.273697
0 0.984656 0.186519 12.8657
0 0.984864 0.100751 -3.58036
0 0.984837 0.101246 0.911462
0 0.984845 0.105505 -1.6313
0 0.984864 0.0958376 -0.273434
0 0.984859 0.0950719 0.56741
0 0.984862 0.0939025 -0.671124
0 0.98487 0.094026 0.131421
0 0.984867 0.0953309 0.0144835
0 0.984862 0.0969128 0.490861
0 0.98484 0.103051 -3.38739
0 0.984852 0.0957791 -1.05338
0 0.984929 0.193376 6.64242
0 0.98482 0.103426 -3.20212
0 0.9848 0.0951964 -0.192167
0 0.984847 0.0949621 -0.283276
0 0.984861 0.0940922 -0.340781
0 0.984805 0.0958585 -0.227343
0 0.984847 0.105069 4.22238
0 0.98494 0.0945855 -0.234882
0 0.984903 0.181142 24.4667
0 0.98485 0.0982604 0.780898
0 0.984862 0.100187 -0.620454
0 0.984848 0.099441 1.56821
0 0.984846 0.0948655 -0.853268
0 0.984864 0.0950837 0.642036
0 0.984858 0.0963107 1.64478
0 0.984842 0.0962071 -0.503449
0 0.98484 0.0956149 -1.12105
0 0.984882 0.0959132 0.9884
0 0.984843 0.0949851 0.140668
0 0.984736 0.0961288 -0.479143
0 0.984773 0.188836 17.1617
0 0.984824 0.0964593 0.408817
0 0.984844 0.0947752 -0.237556
0 0.984826 0.0996328 -2.14102
0 0.984846 0.0960382 0.027764
0 0.985023 0.0956669 -0.752708
0 0.985111 0.181451 -0.63789
0 0.98485 0.0954612 -1.20038
0 0.984829 0.100995 0.359272
0 0.984843 0.0960063 -1.24558
0 0.984837 0.0952491 1.81161
0 0.98483 0.0983753 -0.889421
0 0.984875 0.0988287 1.56879
0 0.984889 0.0982885 2.04318
0 0.984746 0.0952148 0.307346
0 0.984641 0.181057 26.9968
0 0.984839 0.0967415 0.82981
0 0.984848 0.0956124 -0.549683
0 0.98483 0.0949222 0.372925
0 0.984943 0.0954629 0.000172272
0 0.985101 0.183762 13.3347
0 0.984828 0.098394 -1.40728
0 0.98483 0.0951852 -1.05865
0 0.984813 0.101705 -1.98051
0 0.984855 0.103258 -0.259556
0 0.98491 0.0981805 -2.30369
0 0.984827 0.094955 1.12209
0 0.984705 0.18027 11.2558
0 0.984843 0.0959939 -1.49471
0 0.98482 0.0955559 0.112127
0 0.984859 0.0951422 -0.526225
0 0.984952 0.193651 10.644
0 0.984857 0.0987081 -0.696732
0 0.984828 0.0985748 0.171755
0 0.984849 0.104658 -3.14689
0 0.984845 0.106108 -0.123238
0 0.984894 0.105255 2.06551
0 0.984879 0.0964909 -1.07103
0 0.984809 0.179832 8.95143
0 0.984838 0.0951459 0.970291
0 0.984762 0.0950867 -1.28234
0 0.984821 0.188363 16.4571
0 0.9849 0.0967204 1.20077
0 0.984898 0.103435 0.857895
0 0.984917 0.107404 -0.38863
0 0.98487 0.102151 -1.06103
0 0.984836 0.187515 19.5246
0 0.984816 0.0947389 0.210371
0 0.984698 0.183121 20.17
0 0.984952 0.0997547 2.01135
0 0.984918 0.0987378 -0.194338
0 0.984875 0.187992 15.934
0 0.984905 0.180669 3.93834
0 0.984974 0.184767 10.0848
VECTORS fa_u float
0.00648554 0.00265723 -0
0.00586971 0.00338408 -0
0.00505232 0.00136088 -0
0.00679873 0.000944126 -0
1e-08 0 0
0.0052167 0.00400646 -0
0.00392243 0.00388226 -0
1e-08 0 0
1e-08 0 0
0.00410727 0.00524013 -0
0.00384817 0.00659303 -0
0.00646148 4.04886e-05 -0
0.00638077 -0.000790538 0
1e-08 0 0
1e-08 0 0
1e-08 0 0
1e-08 0 0
1e-08 0 0
1e-08 0 0
1e-08 0 0
1e-08 0 0
0.0026843 0.00653003 -0
0.00163897 0.00622933 -0
1e-08 0 0
1e-08 0 0
1e-08 0 0
0.0070973 -0.00186582 0
1e-08 0 0
0.00741795 -0.00312621 0
1e-08 0 0
1e-08 0 0
1e-08 0 0
0.000850485 0.0067073 -0
1e-08 0 0
1e-08 0 0
1e-08 0 0
1e-08 0 0
1e-08 0 0
1e-08 0 0
1e-08 0 0
1e-08 0 0
1e-08 0 0
1e-08 0 0
-4.80082e-05 0.00683938 -0
1e-08 0 0
1e-08 0 0
1e-08 0 0
0.00569209 -0.00339002 0
1e-08 0 0
0.00427986 -0.0033362 0
1e-08 0 0
1e-08 0 0
1e-08 0 0
1e-08 0 0
1e-08 0 0
1e-08 0 0
1e-08 0 0
1e-08 0 0
1e-08 0 0
1e-08 0 0
1e-08 0 0
1e-08 0 0
1e-08 0 0
-0.000764974 0.00564405 0
1e-08 0 0
1e-08 0 0
1e-08 0 0
1e-08 0 0
1e-08 0 0
0.00417023 -0.00415514 0
1e-08 0 0
0.0035714 -0.00456386 0
1e-08 0 0
1e-08 0 0
1e-08 0 0
1e-08 0 0
1e-08 0 0
1e-08 0 0
1e-08 0 0
1e-08 0 0
1e-08 0 0
1e-08 0 0
1e-08 0 0
1e-08 0 0
1e-08 0 0
-0.00161958 0.0060995 0
1e-08 0 0
1e-08 0 0
1e-08 0 0
1e-08 0 0
1e-08 0 0
1e-08 0 0
0.00397026 -0.00675818 0
1e-08 0 0
1e-08 0 0
1e-08 0 0
1e-08 0 0
1e-08 0 0
0.00283789 -0.00690635 0
1e-08 0 0
1e-08 0 0
1e-08 0 0
1e-08 0 0
1e-08 0 0
1e-08 0 0
1e-08 0 0
1e-08 0 0
1e-08 0 0
1e-08 0 0
-0.00258238 0.00628101 0
1e-08 0 0
1e-08 0 0
1e-08 0 0
1e-08 0 0
1e-08 0 0
1e-08 0 0
1e-08 0 0
1e-08 0 0
1e-08 0 0
1e-08 0 0
1e-08 0 0
1e-08 0 0
1e-08 0 0
1e-08 0 0
0.00157821 -0.00601779 0
1e-08 0 0
1e-08 0 0
1e-08 0 0
1e-08 0 0
1e-08 0 0
1e-08 0 0
1e-08 0 0
1e-08 0 0
1e-08 0 0
-0.00344596 0.00596783 0
1e-08 0 0
1e-08 0 0
1e-08 0 0
1e-08 0 0
1e-08 0 0
1e-08 0 0
1e-08 0 0
1e-08 0 0
1e-08 0 0
1e-08 0 0
1e-08 0 0
1e-08 0 0
1e-08 0 0
1e-08 0 0
1e-08 0 0
0.000743772 -0.00558922 0
1e-08 0 0
1e-08 0 0
1e-08 0 0
1e-08 0 0
1e-08 0 0
1e-08 0 0
1e-08 0 0
1e-08 0 0
1e-08 0 0
1e-08 0 0
-0.00415515 0.00538481 0
1e-08 0 0
1e-08 0 0
1e-08 0 0
1e-08 0 0
1e-08 0 0
1e-08 0 0
1e-08 0 0
1e-08 0 0
1e-08 0 0
1e-08 0 0
1e-08 0 0
1e-08 0 0
3.17644e-05 -0.00686811 0
1e-08 0 0
1e-08 0 0
1e-08 0 0
1e-08 0 0
1e-08 0 0
1e-08 0 0
1e-08 0 0
1e-08 0 0
1e-08 0 0
1e-08 0 0
1e-08 0 0
1e-08 0 0
-0.00371815 0.00374118 0
1e-08 0 0
1e-08 0 0
1e-08 0 0
1e-08 0 0
1e-08 0 0
1e-08 0 0
1e-08 0 0
1e-08 0 0
1e-08 0 0
1e-08 0 0
1e-08 0 0
1e-08 0 0
1e-08 0 0
-0.00085492 -0.00662648 0
1e-08 0 0
1e-08 0 0
1e-08 0 0
1e-08 0 0
1e-08 0 0
1e-08 0 0
1e-08 0 0
1e-08 0 0
-0.00517905 0.00405682 0
1e-08 0 0
1e-08 0 0
1e-08 0 0
1e-08 0 0
1e-08 0 0
1e-08 0 0
1e-08 0 0
1e-08 0 0
1e-08 0 0
1e-08 0 0
1e-08 0 0
-0.00164808 -0.00621719 0
1e-08 0 0
1e-08 0 0
1e-08 0 0
1e-08 0 0
1e-08 0 0
1e-08 0 0
1e-08 0 0
-0.00641164 0.00375123 0
1e-08 0 0
1e-08 0 0
1e-08 0 0
1e-08 0 0
1e-08 0 0
1e-08 0 0
1e-08 0 0
1e-08 0 0
1e-08 0 0
1e-08 0 0
1e-08 0 0
-0.00270259 -0.0065404 0
1e-08 0 0
1e-08 0 0
1e-08 0 0
1e-08 0 0
1e-08 0 0
-0.00661255 0.00272987 0
1e-08 0 0
1e-08 0 0
1e-08 0 0
1e-08 0 0
1e-08 0 0
1e-08 0 0
1e-08 0 0
1e-08 0 0
-0.00373263 -0.00638348 0
1e-08 0 0
1e-08 0 0
1e-08 0 0
1e-08 0 0
-0.00622032 0.00164409 0
1e-08 0 0
1e-08 0 0
1e-08 0 0
1e-08 0 0
1e-08 0 0
1e-08 0 0
-0.00383503 -0.00491754 0
1e-08 0 0
1e-08 0 0
1e-08 0 0
-0.00665859 0.000853329 0
1e-08 0 0
1e-08 0 0
1e-08 0 0
1e-08 0 0
1e-08 0 0
1e-08 0 0
-0.00402169 -0.0040104 0
1e-08 0 0
1e-08 0 0
-0.00716267 -4.98923e-05 0
1e-08 0 0
1e-08 0 0
1e-08 0 0
1e-08 0 0
-0.00532753 -0.00410962 0
1e-08 0 0
-0.00546074 -0.000743452 0
1e-08 0 0
1e-08 0 0
-0.00602367 -0.00347734 0
-0.00606018 -0.00160504 0
-0.00632282 -0.00259512 0
