# vtk DataFile Version 2.0
CellBP Time: 1
ASCII
DATASET UNSTRUCTURED_GRID
POINTS 296 double
-9.17398 -3.76998 0
-8.59599 -4.94146 0
-9.5922 -2.53238 0
-9.84912 -1.25276 0
-8.34448 -2.81357 0
-7.87048 -6.02807 0
-7.00892 -7.01019 0
-7.90378 -3.86701 0
-7.32943 -4.86027 0
-6.02927 -7.87327 0
-4.94506 -8.60013 0
-9.93545 0.0491448 0
-9.85188 1.35282 0
-8.6457 -1.67987 0
-8.77565 -0.528911 0
-7.57708 -1.99914 0
-7.21303 -2.89939 0
-6.62707 -5.77212 0
-5.81397 -6.59071 0
-6.77777 -3.88115 0
-6.20973 -4.66799 0
-3.77364 -9.17872 0
-2.5353 -9.59728 0
-4.90061 -7.30297 0
-3.9107 -7.87903 0
-8.78286 0.642508 0
-9.5981 2.63509 0
-8.61411 1.77053 0
-9.17867 3.8726 0
-7.73225 -0.927465 0
-7.78366 0.0800892 0
-6.94127 -1.31306 0
-1.25294 -9.85118 0
-6.43137 -2.14931 0
-6.30872 -3.05065 0
-5.5291 -5.46672 0
-4.78978 -6.10781 0
-5.65011 -3.74979 0
-5.26018 -4.5553 0
-2.86445 -8.35677 0
-1.77808 -8.63247 0
-3.92474 -6.71585 0
-3.05413 -7.14618 0
0.0503946 -9.9354 0
-7.69468 1.14188 0
-8.33164 2.91284 0
-7.54188 2.10784 0
-8.59855 5.04274 0
-7.87177 3.97438 0
-7.86958 6.127 0
-6.76826 -0.395892 0
-6.94543 0.551517 0
-5.76395 -1.00255 0
-0.591621 -8.80117 0
0.562609 -8.76024 0
-5.29588 -2.47661 0
-4.48469 -5.08863 0
-3.89742 -5.76844 0
-4.43234 -3.80067 0
-2.05956 -7.55439 0
-1.13277 -7.77869 0
-2.99134 -6.09598 0
-2.30687 -6.61389 0
1.35259 -9.84813 0
-6.6807 1.41958 0
-7.16215 3.11281 0
-6.65077 2.36941 0
-7.28658 4.98179 0
-6.71043 3.99743 0
-7.00886 7.10843 0
-6.56473 5.88657 0
-6.02788 7.97055 0
-4.44941 -1.18122 0
-5.80758 0.511607 0
-4.65272 -0.0116936 0
0.00926402 -7.83903 0
1.73487 -8.63253 0
0.947561 -7.75331 0
-4.03463 -2.40454 0
-3.48407 -1.39015 0
-3.29093 -4.80097 0
-3.26355 -3.26645 0
-1.37671 -6.66882 0
-0.508274 -7.01614 0
-1.97461 -5.53192 0
2.63366 -9.59374 0
-5.50139 2.03419 0
-6.08706 3.06687 0
-6.09791 4.86262 0
-5.75317 3.98441 0
-5.75358 6.7085 0
-5.44582 5.61148 0
-4.9438 8.69899 0
-4.83244 7.3932 0
-3.49963 -0.42423 0
-4.44509 1.24833 0
-3.70857 0.592062 0
-4.05939 2.31933 0
-3.77268 9.27699 0
2.85729 -8.32002 0
0.41799 -6.78639 0
2.0179 -7.51372 0
1.30292 -6.89555 0
-2.44396 -0.87365 0
-2.83753 -2.13086 0
-2.29265 -4.09429 0
-2.32417 -2.97193 0
-0.442931 -5.85472 0
-1.22111 -4.49606 0
3.87047 -9.17417 0
-4.78328 3.38781 0
-5.08129 4.58772 0
-4.64087 6.27138 0
-4.53337 5.35257 0
-3.83861 7.98408 0
-3.82097 6.83499 0
-2.77968 8.41152 0
-1.64871 -0.137008 0
-1.44974 -0.8899 0
-2.48777 0.508535 0
-3.25062 1.44502 0
-3.23533 3.31366 0
-2.90881 2.37224 0
-1.35441 0.628009 0
-2.53483 9.69459 0
3.92533 -7.87471 0
2.95835 -7.14458 0
0.951298 -5.81413 0
2.06906 -6.405 0
-1.68256 -1.99252 0
-1.43398 -3.27658 0
0.090626 -4.74351 0
-0.566312 -3.69255 0
4.92426 -7.30638 0
5.04192 -8.59685 0
-3.7725 4.54708 0
-3.73042 5.74448 0
-2.88238 7.27834 0
-3.00631 6.34466 0
-1.66159 8.72347 0
-1.9358 7.60858 0
-2.33629 4.04913 0
-0.72978 -1.32664 0
-0.836947 -0.256842 0
-1.93597 1.6816 0
-2.12435 2.87551 0
-1.30571 3.54332 0
-0.868621 1.35147 0
-0.281674 0.456528 0
-0.534614 8.86188 0
-1.25339 9.94887 0
1.11025 -4.56981 0
3.90273 -6.70363 0
2.982 -6.08423 0
2.11281 -5.41622 0
4.77608 -6.19442 0
-0.557702 -2.4777 0
0.494625 -3.46182 0
0.0544322 -1.61102 0
1.48074 -3.6786 0
5.85979 -6.60414 0
6.12778 -7.87048 0
-2.47196 5.34196 0
-2.12774 6.52461 0
-0.902245 7.7951 0
-1.26889 6.92413 0
0.0873291 7.87335 0
-1.14303 4.49071 0
0.150236 -0.618041 0
-0.798371 2.48969 0
-0.331793 3.5999 0
0.0628003 1.51388 0
0.742155 0.472964 0
0.645039 8.86521 0
0.0495307 10.0354 0
2.37656 -4.27909 0
3.85277 -5.63039 0
2.99509 -5.20359 0
5.56543 -5.48246 0
4.68411 -5.27337 0
0.629443 -2.29339 0
1.25502 -2.94952 0
0.758662 -1.39235 0
2.16091 -3.13279 0
2.99006 -3.47262 0
6.14845 -4.78591 0
6.64829 -5.76136 0
7.10973 -7.00875 0
-1.01871 5.81431 0
-0.370159 6.87593 0
1.12231 7.76334 0
0.559141 7.07301 0
-0.000171509 4.72221 0
0.60657 3.82672 0
1.3396 -0.642521 0
0.538647 2.65211 0
0.965096 1.57584 0
1.91049 0.213282 0
1.61496 1.0639 0
2.12878 7.57688 0
1.79746 8.7046 0
1.35328 9.95047 0
3.81784 -4.34453 0
5.10977 -4.44136 0
5.84 -3.92992 0
3.77928 -3.19694 0
1.81206 -1.8836 0
3.01762 -2.57219 0
6.77703 -3.94325 0
7.3753 -4.89272 0
7.97273 -6.02856 0
0.483786 5.87573 0
1.42791 6.736 0
2.37285 6.66398 0
1.209 4.5534 0
1.48781 3.39549 0
2.43455 -0.691785 0
2.82716 0.141973 0
1.78907 2.16342 0
2.61132 1.14924 0
3.07001 7.16436 0
2.90215 8.37045 0
2.6352 9.69569 0
4.9071 -3.32384 0
6.11587 -3.10499 0
4.17012 -2.27362 0
3.243 -1.50305 0
6.72627 -2.31125 0
7.22598 -3.03985 0
7.96045 -3.9098 0
8.69989 -4.94435 0
2.02277 5.59613 0
3.08349 6.14819 0
2.36321 4.1251 0
2.41927 3.05991 0
3.52316 -0.461191 0
3.61412 0.613022 0
2.96018 2.28748 0
3.54337 1.52533 0
4.00675 5.89235 0
3.98028 6.78798 0
3.97034 7.9333 0
3.87331 9.27762 0
5.5652 -1.91537 0
4.50722 -1.12916 0
6.70955 -1.33523 0
7.5881 -2.03508 0
8.3916 -2.86074 0
9.27803 -3.77294 0
3.41522 4.87253 0
3.33633 3.38302 0
4.68872 0.129984 0
4.51553 1.30841 0
4.06049 2.44004 0
4.56386 5.14707 0
4.83765 6.18562 0
4.97637 7.37417 0
5.04446 8.6991 0
5.87855 -0.434447 0
7.00483 -0.488287 0
7.75296 -1.08359 0
8.67928 -1.7441 0
9.69684 -2.53482 0
4.5463 3.82458 0
5.8108 1.09538 0
5.36399 2.53145 0
5.37063 4.61472 0
5.60498 5.51688 0
5.89196 6.66604 0
6.12799 7.97142 0
6.83835 0.461409 0
7.84802 -0.0250454 0
8.85449 -0.582975 0
9.95144 -1.25275 0
6.9528 1.34584 0
5.71262 3.77325 0
6.5331 2.19298 0
6.37064 3.08247 0
6.2833 4.68099 0
6.68402 5.83199 0
7.10925 7.11 0
7.77781 0.965603 0
8.85301 0.572153 0
10.0363 0.0508775 0
7.60732 2.00115 0
6.81812 3.89806 0
7.2602 2.94155 0
7.36977 4.87907 0
7.97106 6.12805 0
8.7148 1.72459 0
9.94816 1.35304 0
8.41048 2.83391 0
7.97209 3.91144 0
8.69761 5.0426 0
9.69294 2.63388 0
9.27411 3.87078 0
CELLS 542 2168
3 2 0 4
3 0 1 7
3 4 0 7
3 1 5 8
3 7 1 8
3 3 2 13
3 13 2 4
3 11 3 14
3 14 3 13
3 13 4 15
3 4 7 16
3 15 4 16
3 5 6 17
3 8 5 17
3 6 9 18
3 17 6 18
3 7 8 19
3 16 7 19
3 8 17 20
3 19 8 20
3 9 10 23
3 18 9 23
3 10 21 24
3 23 10 24
3 12 11 25
3 25 11 14
3 26 12 27
3 27 12 25
3 14 13 29
3 29 13 15
3 25 14 30
3 30 14 29
3 29 15 31
3 15 16 33
3 31 15 33
3 16 19 34
3 33 16 34
3 17 18 35
3 20 17 35
3 18 23 36
3 35 18 36
3 19 20 37
3 34 19 37
3 20 35 38
3 37 20 38
3 21 22 39
3 24 21 39
3 22 32 40
3 39 22 40
3 23 24 41
3 36 23 41
3 24 39 42
3 41 24 42
3 27 25 44
3 44 25 30
3 28 26 45
3 45 26 27
3 45 27 46
3 46 27 44
3 47 28 48
3 48 28 45
3 30 29 50
3 50 29 31
3 44 30 51
3 51 30 50
3 50 31 52
3 31 33 52
3 32 43 53
3 40 32 53
3 53 43 54
3 33 34 55
3 34 37 55
3 33 55 52
3 35 36 56
3 38 35 56
3 36 41 57
3 56 36 57
3 37 38 58
3 38 56 58
3 37 58 55
3 39 40 59
3 42 39 59
3 40 53 60
3 59 40 60
3 41 42 61
3 57 41 61
3 42 59 62
3 61 42 62
3 43 63 54
3 46 44 64
3 64 44 51
3 48 45 65
3 65 45 46
3 65 46 66
3 66 46 64
3 49 47 67
3 67 47 48
3 67 48 68
3 68 48 65
3 69 49 70
3 70 49 67
3 52 55 72
3 64 51 73
3 51 50 73
3 50 52 73
3 73 52 74
3 74 52 72
3 53 54 75
3 60 53 75
3 54 63 76
3 54 76 77
3 75 54 77
3 55 58 78
3 72 55 78
3 72 78 79
3 56 57 80
3 57 61 80
3 56 80 58
3 58 80 81
3 78 58 81
3 59 60 82
3 62 59 82
3 60 75 83
3 82 60 83
3 61 62 84
3 62 82 84
3 61 84 80
3 63 85 76
3 66 64 86
3 64 73 86
3 68 65 87
3 87 65 66
3 87 66 86
3 70 67 88
3 88 67 68
3 88 68 89
3 89 68 87
3 71 69 90
3 90 69 70
3 90 70 91
3 91 70 88
3 92 71 93
3 93 71 90
3 74 72 94
3 94 72 79
3 86 73 95
3 95 73 74
3 95 74 96
3 96 74 94
3 97 86 95
3 76 85 99
3 75 77 100
3 83 75 100
3 76 99 101
3 77 76 101
3 77 101 102
3 100 77 102
3 94 79 103
3 78 81 104
3 79 78 104
3 79 104 103
3 80 84 105
3 81 80 105
3 81 105 106
3 104 81 106
3 82 83 107
3 83 100 107
3 82 107 84
3 84 107 108
3 105 84 108
3 85 109 99
3 89 87 110
3 87 86 110
3 110 86 97
3 91 88 111
3 111 88 89
3 111 89 110
3 93 90 112
3 112 90 91
3 112 91 113
3 113 91 111
3 98 92 114
3 114 92 93
3 114 93 115
3 115 93 112
3 116 98 114
3 117 103 118
3 96 94 119
3 94 103 119
3 119 103 117
3 97 95 120
3 120 95 96
3 120 96 119
3 121 110 97
3 121 97 122
3 122 97 120
3 123 119 117
3 124 98 116
3 99 109 125
3 99 125 126
3 101 99 126
3 100 102 127
3 100 127 107
3 101 126 128
3 102 101 128
3 102 128 127
3 104 106 129
3 104 129 103
3 103 129 118
3 105 108 130
3 106 105 130
3 106 130 129
3 107 127 131
3 108 107 131
3 108 131 132
3 108 132 130
3 109 134 125
3 125 134 133
3 113 111 135
3 111 110 135
3 135 110 121
3 115 112 136
3 136 112 113
3 136 113 135
3 116 114 137
3 137 114 115
3 137 115 138
3 138 115 136
3 139 124 116
3 139 116 140
3 140 116 137
3 141 135 121
3 118 129 142
3 118 142 143
3 117 118 143
3 123 117 143
3 122 120 144
3 120 119 144
3 144 119 123
3 141 121 145
3 145 121 122
3 145 122 144
3 146 141 145
3 147 144 123
3 147 123 148
3 143 148 123
3 150 124 139
3 149 150 139
3 131 127 151
3 125 133 152
3 126 125 152
3 126 152 153
3 128 126 153
3 128 153 154
3 128 154 127
3 127 154 151
3 152 133 155
3 130 132 156
3 130 156 129
3 129 156 142
3 131 151 157
3 132 131 157
3 132 157 156
3 156 158 142
3 157 151 159
3 133 160 155
3 134 161 133
3 133 161 160
3 138 136 162
3 136 135 162
3 162 135 141
3 140 137 163
3 163 137 138
3 163 138 162
3 149 139 164
3 164 139 140
3 164 140 165
3 165 140 163
3 166 149 164
3 167 162 141
3 167 141 146
3 142 158 168
3 143 142 168
3 143 168 148
3 146 145 169
3 145 144 169
3 169 144 147
3 170 167 146
3 170 146 169
3 171 169 147
3 171 147 148
3 171 148 172
3 168 172 148
3 173 149 166
3 174 150 149
3 173 174 149
3 154 175 151
3 151 175 159
3 152 155 176
3 153 152 176
3 153 176 177
3 153 177 154
3 154 177 175
3 155 160 178
3 155 178 179
3 176 155 179
3 156 157 180
3 156 180 158
3 157 159 181
3 157 181 180
3 158 180 182
3 158 182 168
3 159 175 183
3 159 183 181
3 175 184 183
3 160 186 178
3 178 186 185
3 161 187 160
3 160 187 186
3 165 163 188
3 163 162 188
3 188 162 167
3 166 164 189
3 189 164 165
3 189 165 188
3 190 173 166
3 190 166 191
3 191 166 189
3 192 188 167
3 192 167 170
3 193 192 170
3 182 194 168
3 194 172 168
3 193 170 195
3 170 169 195
3 195 169 171
3 196 195 171
3 196 171 172
3 194 197 172
3 197 198 172
3 198 196 172
3 200 173 190
3 199 200 190
3 201 174 173
3 200 201 173
3 176 179 202
3 177 176 202
3 177 202 175
3 175 202 184
3 178 185 203
3 178 203 179
3 179 203 202
3 203 185 204
3 202 205 184
3 183 206 181
3 180 181 206
3 180 206 182
3 182 206 194
3 183 184 207
3 205 207 184
3 183 207 206
3 185 208 204
3 186 209 185
3 185 209 208
3 187 210 186
3 186 210 209
3 191 189 211
3 189 188 211
3 211 188 192
3 199 190 212
3 212 190 191
3 212 191 211
3 213 199 212
3 214 211 192
3 214 192 193
3 215 214 193
3 215 193 195
3 206 216 194
3 216 197 194
3 216 217 197
3 215 195 218
3 218 195 196
3 198 218 196
3 217 219 197
3 219 218 198
3 197 219 198
3 220 199 213
3 221 200 199
3 220 221 199
3 222 201 200
3 221 222 200
3 203 204 223
3 203 223 202
3 202 223 205
3 204 208 224
3 204 224 223
3 205 223 225
3 205 225 207
3 207 225 226
3 207 226 206
3 226 216 206
3 208 228 224
3 224 228 227
3 209 229 208
3 229 228 208
3 210 230 209
3 209 230 229
3 213 212 231
3 212 211 231
3 231 211 214
3 232 220 213
3 232 213 231
3 233 231 214
3 233 214 215
3 234 233 215
3 234 215 218
3 226 235 216
3 235 217 216
3 235 236 217
3 217 236 219
3 237 234 218
3 237 218 219
3 236 238 219
3 238 237 219
3 240 220 232
3 239 240 232
3 241 221 220
3 240 241 220
3 242 222 221
3 241 242 221
3 224 227 243
3 224 243 223
3 223 243 225
3 225 243 244
3 225 244 226
3 226 244 235
3 227 245 243
3 228 246 227
3 227 246 245
3 229 247 228
3 228 247 246
3 230 248 229
3 229 248 247
3 239 232 249
3 232 231 249
3 249 231 233
3 250 249 233
3 250 233 234
3 237 250 234
3 244 251 235
3 235 251 236
3 251 252 236
3 236 252 238
3 252 253 238
3 253 250 237
3 253 237 238
3 254 239 249
3 255 240 239
3 254 255 239
3 256 241 240
3 255 256 240
3 257 242 241
3 256 257 241
3 245 258 243
3 243 258 244
3 244 258 251
3 245 259 258
3 246 260 245
3 245 260 259
3 247 261 246
3 246 261 260
3 248 262 247
3 247 262 261
3 254 249 263
3 263 249 250
3 253 263 250
3 258 264 251
3 251 264 252
3 264 265 252
3 265 263 253
3 252 265 253
3 266 254 263
3 267 255 254
3 266 267 254
3 268 256 255
3 267 268 255
3 269 257 256
3 268 269 256
3 259 270 258
3 270 264 258
3 260 271 259
3 259 271 270
3 261 272 260
3 260 272 271
3 262 273 261
3 273 272 261
3 270 274 264
3 275 266 263
3 275 263 265
3 274 276 264
3 276 265 264
3 276 277 265
3 277 275 265
3 278 267 266
3 275 278 266
3 279 268 267
3 278 279 267
3 280 269 268
3 279 280 268
3 271 281 270
3 270 281 274
3 272 282 271
3 271 282 281
3 273 283 272
3 272 283 282
3 281 284 274
3 274 284 276
3 285 278 275
3 277 285 275
3 284 286 276
3 286 285 277
3 276 286 277
3 287 279 278
3 285 287 278
3 288 280 279
3 287 288 279
3 282 289 281
3 281 289 284
3 283 290 282
3 282 290 289
3 289 291 284
3 284 291 286
3 291 292 286
3 292 287 285
3 286 292 285
3 293 288 287
3 292 293 287
3 290 294 289
3 289 294 291
3 294 295 291
3 295 293 292
3 291 295 292
CELL_TYPES 542
5
5
5
5
5
5
5
5
5
5
5
5
5
5
5
5
5
5
5
5
5
5
5
5
5
5
5
5
5
5
5
5
5
5
5
5
5
5
5
5
5
5
5
5
5
5
5
5
5
5
5
5
5
5
5
5
5
5
5
5
5
5
5
5
5
5
5
5
5
5
5
5
5
5
5
5
5
5
5
5
5
5
5
5
5
5
5
5
5
5
5
5
5
5
5
5
5
5
5
5
5
5
5
5
5
5
5
5
5
5
5
5
5
5
5
5
5
5
5
5
5
5
5
5
5
5
5
5
5
5
5
5
5
5
5
5
5
5
5
5
5
5
5
5
5
5
5
5
5
5
5
5
5
5
5
5
5
5
5
5
5
5
5
5
5
5
5
5
5
5
5
5
5
5
5
5
5
5
5
5
5
5
5
5
5
5
5
5
5
5
5
5
5
5
5
5
5
5
5
5
5
5
5
5
5
5
5
5
5
5
5
5
5
5
5
5
5
5
5
5
5
5
5
5
5
5
5
5
5
5
5
5
5
5
5
5
5
5
5
5
5
5
5
5
5
5
5
5
5
5
5
5
5
5
5
5
5
5
5
5
5
5
5
5
5
5
5
5
5
5
5
5
5
5
5
5
5
5
5
5
5
5
5
5
5
5
5
5
5
5
5
5
5
5
5
5
5
5
5
5
5
5
5
5
5
5
5
5
5
5
5
5
5
5
5
5
5
5
5
5
5
5
5
5
5
5
5
5
5
5
5
5
5
5
5
5
5
5
5
5
5
5
5
5
5
5
5
5
5
5
5
5
5
5
5
5
5
5
5
5
5
5
5
5
5
5
5
5
5
5
5
5
5
5
5
5
5
5
5
5
5
5
5
5
5
5
5
5
5
5
5
5
5
5
5
5
5
5
5
5
5
5
5
5
5
5
5
5
5
5
5
5
5
5
5
5
5
5
5
5
5
5
5
5
5
5
5
5
5
5
5
5
5
5
5
5
5
5
5
5
5
5
5
5
5
5
5
5
5
5
5
5
5
5
5
5
5
5
5
5
5
5
5
5
5
5
5
5
5
5
5
5
5
5
5
5
5
5
5
5
5
5
5
5
5
5
5
5
5
5
5
5
5
5
5
5
5
5
5
5
5
5
5
5
5
5
5
5
5
5
5
5
5
5
5
5
5
5
5
5
5
5
5
5
5
5
5
5
5
5
5
5
5
5
5
5
5
5
5
5
5
5
POINT_DATA 296
SCALARS concentrations float 4
LOOKUP_TABLE default
0 0.997131 0.149387 5.57154
0 0.99713 0.152351 10.8178
0 0.997085 0.151827 9.32247
0 0.997069 0.149473 7.49335
0 0.99712 0.0984348 2.01477
0 0.997161 0.148038 2.85165
0 0.997143 0.150628 10.5957
0 0.997124 0.102996 2.10941
0 0.99714 0.0975569 -0.128278
0 0.997086 0.150095 4.55293
0 0.99706 0.152463 11.9723
0 0.997097 0.149068 5.58439
0 0.997055 0.151122 12.8777
0 0.997105 0.0962983 -0.62359
0 0.997118 0.094555 0.272856
0 0.997123 0.100602 3.12292
0 0.997094 0.0972039 1.1744
0 0.997149 0.0952114 -0.452306
0 0.997121 0.0947224 0.191542
0 0.997112 0.102158 -2.62823
0 0.997119 0.0965209 -0.573929
0 0.997085 0.154745 5.05926
0 0.997052 0.152194 13.4333
0 0.997091 0.0940782 0.155636
0 0.997097 0.0933116 0.0575061
0 0.997116 0.0958678 0.785618
0 0.997074 0.151422 13.6686
0 0.997094 0.0955961 -0.248167
0 0.997069 0.148724 5.43898
0 0.997153 0.0985505 0.978642
0 0.99714 0.0966518 -0.907179
0 0.997095 0.100766 -2.77222
0 0.997054 0.151097 12.2884
0 0.997044 0.0993142 -2.71664
0 0.997053 0.104034 -2.34524
0 0.997116 0.0956396 -0.193297
0 0.997112 0.093683 -0.105114
0 0.997074 0.102169 -1.16195
0 0.997088 0.0963428 1.13854
0 0.997087 0.0946256 0.584477
0 0.997065 0.093425 -0.0527821
0 0.997114 0.0943491 -0.0757396
0 0.997097 0.0939804 -0.0792308
0 0.99705 0.151445 6.59849
0 0.997134 0.0998987 1.213
0 0.997116 0.096153 0.514696
0 0.997132 0.0994165 0.0402549
0 0.99706 0.152806 11.1909
0 0.997104 0.0945589 0.211217
0 0.997048 0.148534 7.54927
0 0.997091 0.100432 0.718145
0 0.997098 0.104866 3.01982
0 0.99705 0.0966768 -1.08355
0 0.997066 0.0933072 0.0441131
0 0.997064 0.0925635 -0.335366
0 0.997055 0.102136 1.53611
0 0.997087 0.0949896 -0.412325
0 0.997106 0.0955327 0.0554544
0 0.997079 0.0990317 -1.7447
0 0.997087 0.0956808 0.892779
0 0.997085 0.0937431 0.117951
0 0.997099 0.0946695 0.248411
0 0.997076 0.0947047 -0.477627
0 0.997056 0.150902 12.2881
0 0.997111 0.0963667 -0.93344
0 0.997152 0.0997505 3.726
0 0.997133 0.0977202 0.329969
0 0.997087 0.0940617 -0.127553
0 0.997124 0.0948452 -0.28569
0 0.99704 0.149661 12.5974
0 0.997055 0.0934946 0.0156169
0 0.997113 0.149622 12.2487
0 0.99708 0.101042 3.48103
0 0.997075 0.0968403 -0.949409
0 0.997071 0.0965221 -0.7487
0 0.99708 0.0933968 0.426817
0 0.997085 0.0937351 0.507282
0 0.997087 0.0934147 0.173176
0 0.997092 0.0990375 0.905118
0 0.997108 0.100645 -0.904705
0 0.997089 0.0943905 -0.270275
0 0.997089 0.0953048 -0.168152
0 0.997086 0.0980264 0.69116
0 0.997086 0.0935172 0.191484
0 0.997081 0.0972586 -0.818259
0 0.997101 0.153178 8.27028
0 0.997088 0.0996773 0.285542
0 0.997102 0.100715 -4.41177
0 0.997096 0.0940528 -0.00168224
0 0.997086 0.094912 -0.0393748
0 0.997074 0.094536 0.282524
0 0.997078 0.0937788 0.0751065
0 0.997123 0.150036 12.6515
0 0.99711 0.0945619 0.00274889
0 0.997097 0.0981517 0.0398776
0 0.997067 0.0992128 0.05523
0 0.997067 0.0952347 0.485224
0 0.997073 0.0952453 -0.349376
0 0.997151 0.150673 6.76701
0 0.997124 0.0943371 0.682318
0 0.99708 0.0933627 -0.379178
0 0.997101 0.0928568 -0.260268
0 0.997085 0.0931777 -0.143002
0 0.997119 0.0944396 0.841043
0 0.997098 0.101891 1.15097
0 0.997081 0.0955547 0.908988
0 0.997087 0.0951971 0.0576888
0 0.997077 0.0943332 -0.14654
0 0.997076 0.0953227 0.127228
0 0.997154 0.152226 6.26976
0 0.997078 0.0952897 -0.519752
0 0.997083 0.0941053 0.16418
0 0.997078 0.0955396 0.345819
0 0.99708 0.0942098 0.0784712
0 0.997116 0.0953363 0.0650994
0 0.997093 0.0974187 1.21888
0 0.997146 0.094755 0.322814
0 0.997141 0.0951011 0.911367
0 0.997133 0.095795 0.862441
0 0.997097 0.0977945 0.819799
0 0.997063 0.101873 -0.637463
0 0.997091 0.0947492 -0.0614972
0 0.997098 0.100629 -0.774058
0 0.997113 0.0996614 -0.472357
0 0.997197 0.153444 5.50919
0 0.997173 0.0947078 0.0851763
0 0.997122 0.0932769 -0.0362903
0 0.997077 0.0938217 0.313319
0 0.997091 0.0946986 0.314924
0 0.997113 0.0954941 -0.806018
0 0.997086 0.0950522 0.344532
0 0.997077 0.0941407 -0.039108
0 0.997085 0.0951347 0.0718601
0 0.997206 0.0944418 0.618917
0 0.997225 0.148173 0.406789
0 0.997078 0.093925 0.0704597
0 0.997083 0.0946707 0.143724
0 0.997083 0.0953559 1.08227
0 0.997076 0.0951718 -0.15227
0 0.997162 0.0939482 -0.12826
0 0.997095 0.095336 0.164081
0 0.997085 0.0946525 0.557288
0 0.997122 0.0953862 0.401973
0 0.997136 0.0949245 0.631508
0 0.997097 0.101018 -0.020182
0 0.997115 0.100529 -1.38437
0 0.997118 0.0957362 0.0840228
0 0.997094 0.0963894 0.16541
0 0.997123 0.0954449 0.282426
0 0.997132 0.0940346 -0.264484
0 0.997196 0.151234 9.841
0 0.997082 0.0943598 -0.106972
0 0.997136 0.0961573 -0.248365
0 0.997093 0.0941173 -0.101862
0 0.997083 0.0942418 -0.0341794
0 0.997141 0.0935851 0.13145
0 0.997107 0.0937654 -0.197599
0 0.997093 0.0951199 0.527968
0 0.997109 0.0965248 0.0362988
0 0.997092 0.0947834 -0.685514
0 0.997169 0.0944132 0.549914
0 0.997224 0.150148 8.29475
0 0.997077 0.0949598 -0.513328
0 0.997072 0.0964687 -0.710058
0 0.997092 0.0952392 -0.656085
0 0.997074 0.0958815 -0.410214
0 0.997074 0.0952534 -1.68377
0 0.997079 0.0985486 -2.70423
0 0.997124 0.094512 0.718688
0 0.997117 0.100007 2.58389
0 0.997102 0.0959126 1.11429
0 0.997123 0.0959681 -1.21277
0 0.997133 0.0933015 0.0939368
0 0.997054 0.0951477 -0.507401
0 0.997118 0.150301 10.2034
0 0.997089 0.0939477 -0.441069
0 0.997102 0.0945505 0.885051
0 0.997087 0.0941809 -0.108085
0 0.997125 0.0938753 0.644476
0 0.997113 0.0936534 0.250374
0 0.997101 0.0969331 -0.525215
0 0.997089 0.094656 0.249407
0 0.997111 0.0980043 -1.02335
0 0.997089 0.094458 0.405564
0 0.997097 0.0938645 0.051772
0 0.997104 0.0938953 0.563019
0 0.997103 0.0939393 0.749295
0 0.997134 0.151193 2.72774
0 0.997076 0.0949462 0.728064
0 0.997076 0.0957359 1.53703
0 0.997063 0.0945738 0.137461
0 0.997086 0.0962775 -1.51053
0 0.997077 0.0953846 -1.0152
0 0.997096 0.0957307 0.779856
0 0.997125 0.0939599 -0.056608
0 0.997114 0.0949142 -0.0666992
0 0.997136 0.0947617 -0.857912
0 0.997117 0.0981665 -0.622077
0 0.997123 0.0943483 -0.0908272
0 0.997058 0.0960519 2.04668
0 0.997024 0.094702 0.529043
0 0.99701 0.148066 17.0363
0 0.997099 0.0931702 0.25814
0 0.997104 0.100706 -1.89049
0 0.997096 0.094208 0.123352
0 0.997104 0.0938794 0.151056
0 0.997102 0.0948914 0.240163
0 0.997103 0.0934609 -0.416924
0 0.997092 0.0939215 -0.400993
0 0.997082 0.0932114 0.380235
0 0.997069 0.149415 12.481
0 0.997082 0.0954303 0.731356
0 0.997081 0.0968432 1.44971
0 0.997094 0.101252 1.73413
0 0.997093 0.0970713 -0.0179481
0 0.997106 0.0955809 0.904278
0 0.997109 0.0940066 0.513441
0 0.997109 0.0960504 1.03423
0 0.99711 0.0951694 -0.589684
0 0.997106 0.0988602 0.292565
0 0.997086 0.0965203 1.14468
0 0.99707 0.0949274 -1.04283
0 0.997028 0.148782 13.9296
0 0.997103 0.0945366 0.624174
0 0.997096 0.101315 -0.361498
0 0.9971 0.0933358 -0.262484
0 0.997102 0.0941667 0.055463
0 0.997082 0.0961307 -1.14382
0 0.997079 0.0944935 -0.230157
0 0.99711 0.093009 -0.168743
0 0.997091 0.151051 6.8934
0 0.997115 0.0977061 -0.245162
0 0.997119 0.0997278 -0.646084
0 0.997109 0.0968596 -3.04499
0 0.997089 0.0965233 0.105469
0 0.997094 0.0937703 0.0505512
0 0.997092 0.0947583 0.91641
0 0.997097 0.0952985 0.0436096
0 0.997112 0.100861 0.991183
0 0.997086 0.094793 0.351491
0 0.997085 0.0950769 -1.53017
0 0.997087 0.0948311 -1.01044
0 0.997095 0.149831 9.441
0 0.997094 0.0973951 -1.2056
0 0.997093 0.0938718 -0.399126
0 0.997075 0.105556 4.39336
0 0.997068 0.0939345 0.0203336
0 0.997093 0.0931981 -0.222612
0 0.997134 0.148862 9.35759
0 0.997102 0.0966943 1.11248
0 0.997088 0.0954527 0.0742702
0 0.997077 0.096594 -0.24989
0 0.997081 0.096123 -1.75287
0 0.997088 0.096815 1.11471
0 0.997081 0.102068 1.62042
0 0.997059 0.0949865 -1.56773
0 0.997014 0.0938899 -0.0939906
0 0.997033 0.149814 8.11751
0 0.997084 0.0945957 -0.770374
0 0.997077 0.0944367 0.332241
0 0.997071 0.0932489 0.0238069
0 0.997074 0.0933008 0.00661225
0 0.997081 0.148172 12.6129
0 0.997075 0.0957174 -0.815741
0 0.997082 0.0960877 1.45286
0 0.997074 0.0968201 0.217058
0 0.99709 0.0959006 0.922311
0 0.997062 0.094645 -0.0532894
0 0.996974 0.0944605 0.73628
0 0.996938 0.14836 19.7123
0 0.997087 0.0955529 0.112488
0 0.997081 0.0936245 0.0919954
0 0.99708 0.0931724 -0.0645566
0 0.997087 0.151928 6.74116
0 0.997097 0.0943901 0.202638
0 0.997089 0.101406 -0.0166398
0 0.997104 0.0957879 -0.570737
0 0.997109 0.0990616 3.16615
0 0.997093 0.0951498 -1.0608
0 0.997026 0.0954212 0.484253
0 0.996952 0.148758 19.9244
0 0.997089 0.0936319 -0.171481
0 0.99707 0.0933536 0.302132
0 0.997066 0.151162 10.2366
0 0.997102 0.0945784 -0.716813
0 0.997128 0.0952439 0.886854
0 0.997131 0.0954207 -0.285555
0 0.997117 0.0952143 0.726643
0 0.997063 0.150164 12.9361
0 0.997069 0.0939886 0.243132
0 0.997054 0.15205 9.95112
0 0.997069 0.0949433 -0.718027
0 0.997112 0.0950219 0.348175
0 0.997129 0.144875 2.72265
0 0.997042 0.149558 10.7732
0 0.997052 0.146262 12.1068
VECTORS fa_u float
0.00618366 0.00255707 -0
0.00561301 0.00324015 -0
0.00601344 0.00161286 -0
0.0065876 0.000875923 -0
1e-08 0 0
0.00522392 0.00400766 -0
0.00445691 0.00444727 -0
1e-08 0 0
1e-08 0 0
0.00403603 0.00523904 -0
0.00332025 0.00573693 -0
0.00647195 6.84858e-06 -0
0.00652475 -0.000851179 0
1e-08 0 0
1e-08 0 0
1e-08 0 0
1e-08 0 0
1e-08 0 0
1e-08 0 0
1e-08 0 0
1e-08 0 0
0.00257136 0.00621407 -0
0.00167265 0.00626985 -0
1e-08 0 0
1e-08 0 0
1e-08 0 0
0.00635856 -0.00169883 0
1e-08 0 0
0.00627397 -0.00260468 0
1e-08 0 0
1e-08 0 0
1e-08 0 0
0.000847618 0.00648202 -0
1e-08 0 0
1e-08 0 0
1e-08 0 0
1e-08 0 0
1e-08 0 0
1e-08 0 0
1e-08 0 0
1e-08 0 0
1e-08 0 0
1e-08 0 0
-7.72009e-06 0.00659295 -0
1e-08 0 0
1e-08 0 0
1e-08 0 0
0.00571597 -0.00331914 0
1e-08 0 0
0.00495945 -0.00381665 0
1e-08 0 0
1e-08 0 0
1e-08 0 0
1e-08 0 0
1e-08 0 0
1e-08 0 0
1e-08 0 0
1e-08 0 0
1e-08 0 0
1e-08 0 0
1e-08 0 0
1e-08 0 0
1e-08 0 0
-0.000834115 0.00630671 0
1e-08 0 0
1e-08 0 0
1e-08 0 0
1e-08 0 0
1e-08 0 0
0.0045503 -0.00454576 0
1e-08 0 0
0.00389515 -0.00505716 0
1e-08 0 0
1e-08 0 0
1e-08 0 0
1e-08 0 0
1e-08 0 0
1e-08 0 0
1e-08 0 0
1e-08 0 0
1e-08 0 0
1e-08 0 0
1e-08 0 0
1e-08 0 0
1e-08 0 0
-0.00169335 0.00632626 0
1e-08 0 0
1e-08 0 0
1e-08 0 0
1e-08 0 0
1e-08 0 0
1e-08 0 0
0.00339085 -0.00585333 0
1e-08 0 0
1e-08 0 0
1e-08 0 0
1e-08 0 0
1e-08 0 0
0.00258097 -0.00624498 0
1e-08 0 0
1e-08 0 0
1e-08 0 0
1e-08 0 0
1e-08 0 0
1e-08 0 0
1e-08 0 0
1e-08 0 0
1e-08 0 0
1e-08 0 0
-0.00249776 0.00603402 0
1e-08 0 0
1e-08 0 0
1e-08 0 0
1e-08 0 0
1e-08 0 0
1e-08 0 0
1e-08 0 0
1e-08 0 0
1e-08 0 0
1e-08 0 0
1e-08 0 0
1e-08 0 0
1e-08 0 0
1e-08 0 0
0.00164745 -0.00617728 0
1e-08 0 0
1e-08 0 0
1e-08 0 0
1e-08 0 0
1e-08 0 0
1e-08 0 0
1e-08 0 0
1e-08 0 0
1e-08 0 0
-0.0033073 0.00572654 0
1e-08 0 0
1e-08 0 0
1e-08 0 0
1e-08 0 0
1e-08 0 0
1e-08 0 0
1e-08 0 0
1e-08 0 0
1e-08 0 0
1e-08 0 0
1e-08 0 0
1e-08 0 0
1e-08 0 0
1e-08 0 0
1e-08 0 0
0.000837493 -0.00635067 0
1e-08 0 0
1e-08 0 0
1e-08 0 0
1e-08 0 0
1e-08 0 0
1e-08 0 0
1e-08 0 0
1e-08 0 0
1e-08 0 0
1e-08 0 0
-0.00396916 0.00516812 0
1e-08 0 0
1e-08 0 0
1e-08 0 0
1e-08 0 0
1e-08 0 0
1e-08 0 0
1e-08 0 0
1e-08 0 0
1e-08 0 0
1e-08 0 0
1e-08 0 0
1e-08 0 0
4.03916e-06 -0.00658163 0
1e-08 0 0
1e-08 0 0
1e-08 0 0
1e-08 0 0
1e-08 0 0
1e-08 0 0
1e-08 0 0
1e-08 0 0
1e-08 0 0
1e-08 0 0
1e-08 0 0
1e-08 0 0
-0.00445759 0.00446493 0
1e-08 0 0
1e-08 0 0
1e-08 0 0
1e-08 0 0
1e-08 0 0
1e-08 0 0
1e-08 0 0
1e-08 0 0
1e-08 0 0
1e-08 0 0
1e-08 0 0
1e-08 0 0
1e-08 0 0
-0.000854168 -0.00650146 0
1e-08 0 0
1e-08 0 0
1e-08 0 0
1e-08 0 0
1e-08 0 0
1e-08 0 0
1e-08 0 0
1e-08 0 0
-0.00519801 0.0040039 0
1e-08 0 0
1e-08 0 0
1e-08 0 0
1e-08 0 0
1e-08 0 0
1e-08 0 0
1e-08 0 0
1e-08 0 0
1e-08 0 0
1e-08 0 0
1e-08 0 0
-0.00164825 -0.00617315 0
1e-08 0 0
1e-08 0 0
1e-08 0 0
1e-08 0 0
1e-08 0 0
1e-08 0 0
1e-08 0 0
-0.00577983 0.0033447 0
1e-08 0 0
1e-08 0 0
1e-08 0 0
1e-08 0 0
1e-08 0 0
1e-08 0 0
1e-08 0 0
1e-08 0 0
1e-08 0 0
1e-08 0 0
1e-08 0 0
-0.00258444 -0.00624788 0
1e-08 0 0
1e-08 0 0
1e-08 0 0
1e-08 0 0
1e-08 0 0
-0.00616506 0.00255081 0
1e-08 0 0
1e-08 0 0
1e-08 0 0
1e-08 0 0
1e-08 0 0
1e-08 0 0
1e-08 0 0
1e-08 0 0
-0.00336203 -0.00580332 0
1e-08 0 0
1e-08 0 0
1e-08 0 0
1e-08 0 0
-0.00623739 0.00166668 0
1e-08 0 0
1e-08 0 0
1e-08 0 0
1e-08 0 0
1e-08 0 0
1e-08 0 0
-0.0038769 -0.00503743 0
1e-08 0 0
1e-08 0 0
1e-08 0 0
-0.0064881 0.000851872 0
1e-08 0 0
1e-08 0 0
1e-08 0 0
1e-08 0 0
1e-08 0 0
1e-08 0 0
-0.00456003 -0.0045593 0
1e-08 0 0
1e-08 0 0
-0.00671218 -8.45831e-06 0
1e-08 0 0
1e-08 0 0
1e-08 0 0
1e-08 0 0
-0.00514837 -0.00395542 0
1e-08 0 0
-0.00630227 -0.000837845 0
1e-08 0 0
1e-08 0 0
-0.00581264 -0.00335546 0
-0.00621037 -0.00166263 0
-0.00602454 -0.00248947 0
