# vtk DataFile Version 2.0
CellBP Time: 8.96
ASCII
DATASET UNSTRUCTURED_GRID
POINTS 296 double
-8.93746 -3.6595 0
-8.37964 -4.8109 0
-9.3277 -2.43868 0
-9.60452 -1.21084 0
-8.09372 -2.71045 0
-7.66415 -5.87592 0
-6.8165 -6.83913 0
-7.65443 -3.73127 0
-7.09344 -4.70395 0
-5.89247 -7.70654 0
-4.86504 -8.43883 0
-9.71259 0.0379959 0
-9.65721 1.31333 0
-8.41368 -1.62209 0
-8.57096 -0.505478 0
-7.3413 -1.91577 0
-6.9674 -2.77974 0
-6.43935 -5.62284 0
-5.67158 -6.44028 0
-6.54008 -3.74136 0
-6.00626 -4.52455 0
-3.71601 -9.00291 0
-2.48807 -9.40173 0
-4.79708 -7.15771 0
-3.84796 -7.74146 0
-8.58559 0.630811 0
-9.43752 2.59024 0
-8.44245 1.72971 0
-9.02807 3.80565 0
-7.51792 -0.882744 0
-7.58565 0.0895287 0
-6.73453 -1.25281 0
-1.2167 -9.63908 0
-6.23991 -2.0662 0
-6.10748 -2.93863 0
-5.36754 -5.32664 0
-4.66879 -5.97235 0
-5.4717 -3.63061 0
-5.09171 -4.42714 0
-2.81735 -8.2026 0
-1.74583 -8.46209 0
-3.83938 -6.58645 0
-3.01122 -7.01911 0
0.0552264 -9.69841 0
-7.51073 1.11548 0
-8.18593 2.85854 0
-7.37338 2.04871 0
-8.41469 4.92549 0
-7.70339 3.88043 0
-7.65627 5.96059 0
-6.58278 -0.368709 0
-6.76243 0.548321 0
-5.62 -0.968422 0
-0.581593 -8.60825 0
0.544085 -8.54117 0
-5.15506 -2.40049 0
-4.34716 -4.96002 0
-3.79683 -5.64171 0
-4.31467 -3.70671 0
-2.02514 -7.41065 0
-1.11501 -7.61869 0
-2.9292 -5.97256 0
-2.27051 -6.48822 0
1.3103 -9.58123 0
-6.51787 1.38146 0
-6.98884 3.02628 0
-6.4936 2.30513 0
-7.10824 4.85 0
-6.54669 3.88529 0
-6.81488 6.90759 0
-6.3939 5.72778 0
-5.87163 7.76465 0
-4.37384 -1.16665 0
-5.67795 0.491454 0
-4.57272 -0.0275321 0
-0.00481564 -7.65312 0
1.68044 -8.391 0
0.902824 -7.54278 0
-3.95978 -2.35283 0
-3.45466 -1.37969 0
-3.21619 -4.70008 0
-3.21586 -3.20645 0
-1.36495 -6.52672 0
-0.51965 -6.85385 0
-1.94623 -5.43141 0
2.55935 -9.33495 0
-5.38015 1.99062 0
-5.9425 2.98262 0
-5.947 4.7264 0
-5.61145 3.86719 0
-5.60029 6.52293 0
-5.30441 5.44999 0
-4.84334 8.51625 0
-4.70095 7.18596 0
-3.46013 -0.418727 0
-4.36267 1.22574 0
-3.65058 0.585758 0
-3.98038 2.29305 0
-3.706 9.08456 0
2.75723 -8.0586 0
0.373625 -6.60249 0
1.93073 -7.28423 0
1.23353 -6.69137 0
-2.4248 -0.861711 0
-2.81063 -2.10482 0
-2.26403 -4.02341 0
-2.29654 -2.92678 0
-0.45257 -5.7197 0
-1.20083 -4.41999 0
3.77046 -8.9428 0
-4.67199 3.30336 0
-4.95353 4.45416 0
-4.51897 6.08557 0
-4.41707 5.19696 0
-3.74993 7.78883 0
-3.7106 6.6273 0
-2.70785 8.19362 0
-1.63297 -0.123741 0
-1.43463 -0.874213 0
-2.47065 0.517836 0
-3.20125 1.43386 0
-3.17359 3.26059 0
-2.86472 2.35759 0
-1.35043 0.638181 0
-2.48507 9.4688 0
3.79429 -7.62883 0
2.83679 -6.89694 0
0.89797 -5.65807 0
1.97965 -6.19848 0
-1.66144 -1.97339 0
-1.41406 -3.23144 0
0.0789034 -4.64561 0
-0.552582 -3.63756 0
4.7728 -7.07079 0
4.91361 -8.385 0
-3.68375 4.43272 0
-3.63395 5.58616 0
-2.79733 7.06844 0
-2.92674 6.16703 0
-1.62064 8.51438 0
-1.87889 7.4107 0
-2.29763 3.97624 0
-0.719893 -1.315 0
-0.828279 -0.24264 0
-1.93003 1.69425 0
-2.10175 2.85501 0
-1.29634 3.50527 0
-0.871041 1.36108 0
-0.284746 0.464488 0
-0.522126 8.66455 0
-1.22509 9.70535 0
1.06868 -4.45687 0
3.74957 -6.44979 0
2.86585 -5.87269 0
2.03405 -5.25015 0
4.62465 -5.97202 0
-0.547306 -2.45649 0
0.489282 -3.41035 0
0.0597757 -1.60038 0
1.44451 -3.59488 0
5.69764 -6.39987 0
5.97571 -7.67023 0
-2.41488 5.21307 0
-2.06147 6.35146 0
-0.871357 7.61451 0
-1.22096 6.7476 0
0.0921626 7.70746 0
-1.12653 4.41607 0
0.148875 -0.610933 0
-0.808942 2.49476 0
-0.345152 3.57224 0
0.0509992 1.51543 0
0.731539 0.473688 0
0.62936 8.69218 0
0.0422522 9.81455 0
2.3048 -4.15728 0
3.72448 -5.43072 0
2.8977 -5.03438 0
5.42162 -5.3085 0
4.54638 -5.08166 0
0.633461 -2.28264 0
1.23917 -2.90499 0
0.759183 -1.38786 0
2.11728 -3.06593 0
2.92181 -3.38437 0
6.01056 -4.65037 0
6.48969 -5.60575 0
6.93055 -6.81227 0
-0.989263 5.68605 0
-0.343695 6.71786 0
1.10262 7.61805 0
0.563223 6.9268 0
-0.00322869 4.65611 0
0.592583 3.78455 0
1.33334 -0.641941 0
0.522118 2.63841 0
0.950458 1.57652 0
1.89107 0.207245 0
1.59768 1.05961 0
2.09599 7.4421 0
1.76878 8.54465 0
1.32356 9.74431 0
3.71845 -4.20807 0
4.98281 -4.28819 0
5.71381 -3.8127 0
3.70194 -3.10857 0
1.79619 -1.87675 0
2.96667 -2.52407 0
6.64301 -3.84524 0
7.22224 -4.78035 0
7.79608 -5.88136 0
0.48023 5.76528 0
1.41093 6.61081 0
2.33941 6.55088 0
1.188 4.48847 0
1.46397 3.35422 0
2.40723 -0.689844 0
2.79331 0.138821 0
1.76641 2.14913 0
2.58944 1.13913 0
3.02575 7.0439 0
2.85984 8.21941 0
2.59114 9.50087 0
4.80398 -3.22522 0
5.99669 -3.02612 0
4.09921 -2.23015 0
3.19727 -1.48829 0
6.61261 -2.27297 0
7.10317 -2.98311 0
7.82165 -3.84303 0
8.53249 -4.85526 0
1.99647 5.50377 0
3.01148 6.03308 0
2.33411 4.06265 0
2.39091 3.01773 0
3.47831 -0.452163 0
3.56913 0.613971 0
2.926 2.25911 0
3.48654 1.50498 0
3.90167 5.76928 0
3.89844 6.65899 0
3.91 7.79345 0
3.81568 9.09752 0
5.47396 -1.87943 0
4.43905 -1.10831 0
6.58948 -1.31034 0
7.45391 -1.99966 0
8.23964 -2.81025 0
9.10139 -3.7117 0
3.32634 4.77327 0
3.2691 3.31921 0
4.61228 0.133207 0
4.42118 1.27968 0
3.96633 2.38445 0
4.42273 5.02205 0
4.71209 6.0526 0
4.87367 7.22279 0
4.95924 8.52836 0
5.76224 -0.43514 0
6.86149 -0.486899 0
7.61344 -1.05853 0
8.51625 -1.70772 0
9.50278 -2.48475 0
4.41562 3.72794 0
5.66619 1.0521 0
5.20895 2.45338 0
5.19313 4.48598 0
5.43767 5.37998 0
5.74926 6.51034 0
5.98593 7.79582 0
6.67315 0.429656 0
7.68047 -0.0289405 0
8.67431 -0.560446 0
9.74357 -1.2143 0
6.76587 1.28693 0
5.52392 3.65925 0
6.33685 2.10582 0
6.16041 2.97407 0
6.07477 4.5423 0
6.49344 5.67583 0
6.92365 6.93844 0
7.58697 0.929812 0
8.64496 0.56121 0
9.80808 0.0630101 0
7.39492 1.9287 0
6.57341 3.75742 0
7.02296 2.83119 0
7.15242 4.73815 0
7.78142 5.98487 0
8.48729 1.67932 0
9.6872 1.31752 0
8.15554 2.74325 0
7.73933 3.79564 0
8.49731 4.92481 0
9.44404 2.56885 0
9.05326 3.78067 0
CELLS 542 2168
3 2 0 4
3 0 1 7
3 4 0 7
3 1 5 8
3 7 1 8
3 3 2 13
3 13 2 4
3 11 3 14
3 14 3 13
3 13 4 15
3 4 7 16
3 15 4 16
3 5 6 17
3 8 5 17
3 6 9 18
3 17 6 18
3 7 8 19
3 16 7 19
3 8 17 20
3 19 8 20
3 9 10 23
3 18 9 23
3 10 21 24
3 23 10 24
3 12 11 25
3 25 11 14
3 26 12 27
3 27 12 25
3 14 13 29
3 29 13 15
3 25 14 30
3 30 14 29
3 29 15 31
3 15 16 33
3 31 15 33
3 16 19 34
3 33 16 34
3 17 18 35
3 20 17 35
3 18 23 36
3 35 18 36
3 19 20 37
3 34 19 37
3 20 35 38
3 37 20 38
3 21 22 39
3 24 21 39
3 22 32 40
3 39 22 40
3 23 24 41
3 36 23 41
3 24 39 42
3 41 24 42
3 27 25 44
3 44 25 30
3 28 26 45
3 45 26 27
3 45 27 46
3 46 27 44
3 47 28 48
3 48 28 45
3 30 29 50
3 50 29 31
3 44 30 51
3 51 30 50
3 50 31 52
3 31 33 52
3 32 43 53
3 40 32 53
3 53 43 54
3 33 34 55
3 34 37 55
3 33 55 52
3 35 36 56
3 38 35 56
3 36 41 57
3 56 36 57
3 37 38 58
3 38 56 58
3 37 58 55
3 39 40 59
3 42 39 59
3 40 53 60
3 59 40 60
3 41 42 61
3 57 41 61
3 42 59 62
3 61 42 62
3 43 63 54
3 46 44 64
3 64 44 51
3 48 45 65
3 65 45 46
3 65 46 66
3 66 46 64
3 49 47 67
3 67 47 48
3 67 48 68
3 68 48 65
3 69 49 70
3 70 49 67
3 52 55 72
3 64 51 73
3 51 50 73
3 50 52 73
3 73 52 74
3 74 52 72
3 53 54 75
3 60 53 75
3 54 63 76
3 54 76 77
3 75 54 77
3 55 58 78
3 72 55 78
3 72 78 79
3 56 57 80
3 57 61 80
3 56 80 58
3 58 80 81
3 78 58 81
3 59 60 82
3 62 59 82
3 60 75 83
3 82 60 83
3 61 62 84
3 62 82 84
3 61 84 80
3 63 85 76
3 66 64 86
3 64 73 86
3 68 65 87
3 87 65 66
3 87 66 86
3 70 67 88
3 88 67 68
3 88 68 89
3 89 68 87
3 71 69 90
3 90 69 70
3 90 70 91
3 91 70 88
3 92 71 93
3 93 71 90
3 74 72 94
3 94 72 79
3 86 73 95
3 95 73 74
3 95 74 96
3 96 74 94
3 97 86 95
3 76 85 99
3 75 77 100
3 83 75 100
3 76 99 101
3 77 76 101
3 77 101 102
3 100 77 102
3 94 79 103
3 78 81 104
3 79 78 104
3 79 104 103
3 80 84 105
3 81 80 105
3 81 105 106
3 104 81 106
3 82 83 107
3 83 100 107
3 82 107 84
3 84 107 108
3 105 84 108
3 85 109 99
3 89 87 110
3 87 86 110
3 110 86 97
3 91 88 111
3 111 88 89
3 111 89 110
3 93 90 112
3 112 90 91
3 112 91 113
3 113 91 111
3 98 92 114
3 114 92 93
3 114 93 115
3 115 93 112
3 116 98 114
3 117 103 118
3 96 94 119
3 94 103 119
3 119 103 117
3 97 95 120
3 120 95 96
3 120 96 119
3 121 110 97
3 121 97 122
3 122 97 120
3 123 119 117
3 124 98 116
3 99 109 125
3 99 125 126
3 101 99 126
3 100 102 127
3 100 127 107
3 101 126 128
3 102 101 128
3 102 128 127
3 104 106 129
3 104 129 103
3 103 129 118
3 105 108 130
3 106 105 130
3 106 130 129
3 107 127 131
3 108 107 131
3 108 131 132
3 108 132 130
3 109 134 125
3 125 134 133
3 113 111 135
3 111 110 135
3 135 110 121
3 115 112 136
3 136 112 113
3 136 113 135
3 116 114 137
3 137 114 115
3 137 115 138
3 138 115 136
3 139 124 116
3 139 116 140
3 140 116 137
3 141 135 121
3 118 129 142
3 118 142 143
3 117 118 143
3 123 117 143
3 122 120 144
3 120 119 144
3 144 119 123
3 141 121 145
3 145 121 122
3 145 122 144
3 146 141 145
3 147 144 123
3 147 123 148
3 143 148 123
3 150 124 139
3 149 150 139
3 131 127 151
3 125 133 152
3 126 125 152
3 126 152 153
3 128 126 153
3 128 153 154
3 128 154 127
3 127 154 151
3 152 133 155
3 130 132 156
3 130 156 129
3 129 156 142
3 131 151 157
3 132 131 157
3 132 157 156
3 156 158 142
3 157 151 159
3 133 160 155
3 134 161 133
3 133 161 160
3 138 136 162
3 136 135 162
3 162 135 141
3 140 137 163
3 163 137 138
3 163 138 162
3 149 139 164
3 164 139 140
3 164 140 165
3 165 140 163
3 166 149 164
3 167 162 141
3 167 141 146
3 142 158 168
3 143 142 168
3 143 168 148
3 146 145 169
3 145 144 169
3 169 144 147
3 170 167 146
3 170 146 169
3 171 169 147
3 171 147 148
3 171 148 172
3 168 172 148
3 173 149 166
3 174 150 149
3 173 174 149
3 154 175 151
3 151 175 159
3 152 155 176
3 153 152 176
3 153 176 177
3 153 177 154
3 154 177 175
3 155 160 178
3 155 178 179
3 176 155 179
3 156 157 180
3 156 180 158
3 157 159 181
3 157 181 180
3 158 180 182
3 158 182 168
3 159 175 183
3 159 183 181
3 175 184 183
3 160 186 178
3 178 186 185
3 161 187 160
3 160 187 186
3 165 163 188
3 163 162 188
3 188 162 167
3 166 164 189
3 189 164 165
3 189 165 188
3 190 173 166
3 190 166 191
3 191 166 189
3 192 188 167
3 192 167 170
3 193 192 170
3 182 194 168
3 194 172 168
3 193 170 195
3 170 169 195
3 195 169 171
3 196 195 171
3 196 171 172
3 194 197 172
3 197 198 172
3 198 196 172
3 200 173 190
3 199 200 190
3 201 174 173
3 200 201 173
3 176 179 202
3 177 176 202
3 177 202 175
3 175 202 184
3 178 185 203
3 178 203 179
3 179 203 202
3 203 185 204
3 202 205 184
3 183 206 181
3 180 181 206
3 180 206 182
3 182 206 194
3 183 184 207
3 205 207 184
3 183 207 206
3 185 208 204
3 186 209 185
3 185 209 208
3 187 210 186
3 186 210 209
3 191 189 211
3 189 188 211
3 211 188 192
3 199 190 212
3 212 190 191
3 212 191 211
3 213 199 212
3 214 211 192
3 214 192 193
3 215 214 193
3 215 193 195
3 206 216 194
3 216 197 194
3 216 217 197
3 215 195 218
3 218 195 196
3 198 218 196
3 217 219 197
3 219 218 198
3 197 219 198
3 220 199 213
3 221 200 199
3 220 221 199
3 222 201 200
3 221 222 200
3 203 204 223
3 203 223 202
3 202 223 205
3 204 208 224
3 204 224 223
3 205 223 225
3 205 225 207
3 207 225 226
3 207 226 206
3 226 216 206
3 208 228 224
3 224 228 227
3 209 229 208
3 229 228 208
3 210 230 209
3 209 230 229
3 213 212 231
3 212 211 231
3 231 211 214
3 232 220 213
3 232 213 231
3 233 231 214
3 233 214 215
3 234 233 215
3 234 215 218
3 226 235 216
3 235 217 216
3 235 236 217
3 217 236 219
3 237 234 218
3 237 218 219
3 236 238 219
3 238 237 219
3 240 220 232
3 239 240 232
3 241 221 220
3 240 241 220
3 242 222 221
3 241 242 221
3 224 227 243
3 224 243 223
3 223 243 225
3 225 243 244
3 225 244 226
3 226 244 235
3 227 245 243
3 228 246 227
3 227 246 245
3 229 247 228
3 228 247 246
3 230 248 229
3 229 248 247
3 239 232 249
3 232 231 249
3 249 231 233
3 250 249 233
3 250 233 234
3 237 250 234
3 244 251 235
3 235 251 236
3 251 252 236
3 236 252 238
3 252 253 238
3 253 250 237
3 253 237 238
3 254 239 249
3 255 240 239
3 254 255 239
3 256 241 240
3 255 256 240
3 257 242 241
3 256 257 241
3 245 258 243
3 243 258 244
3 244 258 251
3 245 259 258
3 246 260 245
3 245 260 259
3 247 261 246
3 246 261 260
3 248 262 247
3 247 262 261
3 254 249 263
3 263 249 250
3 253 263 250
3 258 264 251
3 251 264 252
3 264 265 252
3 265 263 253
3 252 265 253
3 266 254 263
3 267 255 254
3 266 267 254
3 268 256 255
3 267 268 255
3 269 257 256
3 268 269 256
3 259 270 258
3 270 264 258
3 260 271 259
3 259 271 270
3 261 272 260
3 260 272 271
3 262 273 261
3 273 272 261
3 270 274 264
3 275 266 263
3 275 263 265
3 274 276 264
3 276 265 264
3 276 277 265
3 277 275 265
3 278 267 266
3 275 278 266
3 279 268 267
3 278 279 267
3 280 269 268
3 279 280 268
3 271 281 270
3 270 281 274
3 272 282 271
3 271 282 281
3 273 283 272
3 272 283 282
3 281 284 274
3 274 284 276
3 285 278 275
3 277 285 275
3 284 286 276
3 286 285 277
3 276 286 277
3 287 279 278
3 285 287 278
3 288 280 279
3 287 288 279
3 282 289 281
3 281 289 284
3 283 290 282
3 282 290 289
3 289 291 284
3 284 291 286
3 291 292 286
3 292 287 285
3 286 292 285
3 293 288 287
3 292 293 287
3 290 294 289
3 289 294 291
3 294 295 291
3 295 293 292
3 291 295 292
CELL_TYPES 542
5
5
5
5
5
5
5
5
5
5
5
5
5
5
5
5
5
5
5
5
5
5
5
5
5
5
5
5
5
5
5
5
5
5
5
5
5
5
5
5
5
5
5
5
5
5
5
5
5
5
5
5
5
5
5
5
5
5
5
5
5
5
5
5
5
5
5
5
5
5
5
5
5
5
5
5
5
5
5
5
5
5
5
5
5
5
5
5
5
5
5
5
5
5
5
5
5
5
5
5
5
5
5
5
5
5
5
5
5
5
5
5
5
5
5
5
5
5
5
5
5
5
5
5
5
5
5
5
5
5
5
5
5
5
5
5
5
5
5
5
5
5
5
5
5
5
5
5
5
5
5
5
5
5
5
5
5
5
5
5
5
5
5
5
5
5
5
5
5
5
5
5
5
5
5
5
5
5
5
5
5
5
5
5
5
5
5
5
5
5
5
5
5
5
5
5
5
5
5
5
5
5
5
5
5
5
5
5
5
5
5
5
5
5
5
5
5
5
5
5
5
5
5
5
5
5
5
5
5
5
5
5
5
5
5
5
5
5
5
5
5
5
5
5
5
5
5
5
5
5
5
5
5
5
5
5
5
5
5
5
5
5
5
5
5
5
5
5
5
5
5
5
5
5
5
5
5
5
5
5
5
5
5
5
5
5
5
5
5
5
5
5
5
5
5
5
5
5
5
5
5
5
5
5
5
5
5
5
5
5
5
5
5
5
5
5
5
5
5
5
5
5
5
5
5
5
5
5
5
5
5
5
5
5
5
5
5
5
5
5
5
5
5
5
5
5
5
5
5
5
5
5
5
5
5
5
5
5
5
5
5
5
5
5
5
5
5
5
5
5
5
5
5
5
5
5
5
5
5
5
5
5
5
5
5
5
5
5
5
5
5
5
5
5
5
5
5
5
5
5
5
5
5
5
5
5
5
5
5
5
5
5
5
5
5
5
5
5
5
5
5
5
5
5
5
5
5
5
5
5
5
5
5
5
5
5
5
5
5
5
5
5
5
5
5
5
5
5
5
5
5
5
5
5
5
5
5
5
5
5
5
5
5
5
5
5
5
5
5
5
5
5
5
5
5
5
5
5
5
5
5
5
5
5
5
5
5
5
5
5
5
5
5
5
5
5
5
5
5
5
5
5
5
5
5
5
5
5
5
5
5
5
5
5
5
5
5
5
5
5
5
5
5
5
5
5
5
5
5
5
5
5
5
5
5
5
5
5
5
5
5
5
POINT_DATA 296
SCALARS concentrations float 4
LOOKUP_TABLE default
0 0.951973 0.115125 5.75761
0 0.951937 0.117465 3.76995
0 0.951986 0.117727 -0.820017
0 0.951965 0.114719 5.45547
0 0.951971 0.0940512 -0.128577
0 0.951941 0.118396 4.4591
0 0.951935 0.116784 4.75492
0 0.951945 0.0954951 -0.961236
0 0.951941 0.0948687 0.0548253
0 0.951974 0.11629 3.34799
0 0.951988 0.115846 1.05444
0 0.951948 0.116443 4.52793
0 0.951949 0.1152 4.70753
0 0.951966 0.0927954 0.146976
0 0.951952 0.0928473 -0.193489
0 0.951955 0.0937927 0.0571796
0 0.951942 0.0937228 0.0244741
0 0.951941 0.0941712 -0.0372765
0 0.951945 0.0930599 -0.440859
0 0.951935 0.0949911 -0.350529
0 0.951945 0.0935667 0.282853
0 0.951946 0.117034 5.34766
0 0.951938 0.117877 4.10025
0 0.951978 0.0936259 -0.297339
0 0.951967 0.0928915 0.092416
0 0.951941 0.0933151 -0.321038
0 0.951961 0.115528 5.1173
0 0.951943 0.0956458 0.994503
0 0.951966 0.115075 3.42504
0 0.951953 0.0936716 -0.253899
0 0.951937 0.0925706 -0.138081
0 0.95195 0.0929395 0.147823
0 0.951981 0.117112 0.956964
0 0.951944 0.0941722 -0.138118
0 0.951935 0.0935619 -0.108479
0 0.951945 0.0942657 -0.750981
0 0.951951 0.0942718 -0.366181
0 0.95194 0.0936329 -0.0912067
0 0.951945 0.093226 0.330874
0 0.95195 0.092859 -0.118146
0 0.951964 0.093188 -0.198325
0 0.951961 0.093817 0.0624161
0 0.951965 0.0936261 -0.490511
0 0.951951 0.11504 3.67704
0 0.951927 0.0925386 -0.261089
0 0.951959 0.0945364 0.486153
0 0.951941 0.0983431 0.230541
0 0.951973 0.115344 3.32611
0 0.951965 0.0937951 -0.0398075
0 0.951976 0.115944 2.16698
0 0.951945 0.0930078 -0.0951703
0 0.951938 0.0927151 -0.228355
0 0.951947 0.0933649 -0.349744
0 0.951973 0.0935251 0.157428
0 0.951934 0.0930268 0.287089
0 0.951945 0.0937819 -0.384014
0 0.951941 0.093376 -0.288762
0 0.95195 0.0943006 0.357856
0 0.951942 0.0930601 0.35486
0 0.951961 0.0962866 0.106556
0 0.951964 0.0935153 -0.578365
0 0.951963 0.0941697 -0.263314
0 0.951955 0.0986173 0.302494
0 0.95193 0.115811 7.46788
0 0.951941 0.0938901 -0.329554
0 0.951961 0.0944603 -0.167929
0 0.951953 0.0948945 0.763727
0 0.95197 0.0935553 0.119945
0 0.951961 0.0931059 0.00764357
0 0.951979 0.115194 5.35983
0 0.951973 0.0932108 0.151816
0 0.951982 0.115104 0.772096
0 0.951954 0.0961432 0.858697
0 0.951947 0.0932811 -0.551557
0 0.951949 0.0938401 -0.112768
0 0.951957 0.0928081 0.411421
0 0.951943 0.0927678 0.311987
0 0.951946 0.0933869 0.0388016
0 0.951951 0.0949543 0.443306
0 0.951961 0.0959658 0.514896
0 0.951952 0.0936096 0.189635
0 0.951948 0.093672 0.169486
0 0.951945 0.0938987 -0.260448
0 0.951955 0.0927736 0.528187
0 0.951953 0.0981771 0.437387
0 0.951952 0.114519 4.60691
0 0.951953 0.0944921 -0.0449581
0 0.951955 0.094326 -0.00357765
0 0.951967 0.0938025 -0.222662
0 0.951959 0.0931455 0.0446187
0 0.95197 0.0931814 0.295599
0 0.95196 0.0964808 -1.23973
0 0.951958 0.111549 0.345611
0 0.951967 0.0938708 0.0885675
0 0.951958 0.0948248 0.489998
0 0.951952 0.0935296 0.293746
0 0.951957 0.0945665 0.770765
0 0.951957 0.0937515 -0.859414
0 0.95194 0.113386 2.73556
0 0.951961 0.0933737 0.725306
0 0.951955 0.0935856 -0.228312
0 0.951951 0.0928243 0.573843
0 0.951955 0.0936958 0.0398178
0 0.951957 0.0944302 0.0117929
0 0.951956 0.0936628 -0.768221
0 0.951958 0.0926104 -0.461535
0 0.951956 0.094211 -0.915062
0 0.951954 0.0938094 0.94409
0 0.95196 0.0932582 0.437273
0 0.951972 0.115986 2.35586
0 0.951953 0.0944998 -0.364249
0 0.951959 0.0933524 -0.0796296
0 0.951962 0.0964289 2.01753
0 0.951965 0.0940024 -0.0168364
0 0.951954 0.0947399 -0.328464
0 0.951965 0.0951415 -0.351302
0 0.951951 0.093766 -1.20878
0 0.95195 0.0950413 0.893484
0 0.951953 0.0942113 0.0580688
0 0.951958 0.0946663 -0.860945
0 0.951958 0.0950819 -0.828898
0 0.951952 0.0951026 0.183183
0 0.951954 0.0938317 -0.0929742
0 0.951954 0.0949681 0.589195
0 0.95196 0.116618 3.96759
0 0.951972 0.0944656 -1.31906
0 0.951965 0.0939552 1.15756
0 0.951963 0.092991 0.537522
0 0.951961 0.0934289 0.371559
0 0.951963 0.0945934 -0.708951
0 0.951964 0.0935916 -0.524667
0 0.951967 0.0932549 -0.889021
0 0.95197 0.0957469 0.681084
0 0.951964 0.0936292 -1.26649
0 0.951956 0.112234 1.12768
0 0.951955 0.094427 -0.554305
0 0.951968 0.0967235 -2.23391
0 0.951959 0.0948285 -1.33582
0 0.95196 0.0957261 0.323212
0 0.951957 0.0937282 -0.6907
0 0.951946 0.0954241 -0.486338
0 0.951959 0.0947668 0.678855
0 0.951965 0.0955051 -0.762465
0 0.951947 0.0945155 -0.043681
0 0.951953 0.0948005 0.676568
0 0.951955 0.0940927 -0.0157675
0 0.951963 0.0948538 0.219256
0 0.951967 0.0941907 0.123853
0 0.951961 0.0940195 -0.727359
0 0.951924 0.0943268 0.607829
0 0.951958 0.118131 2.618
0 0.951972 0.0935906 -1.0541
0 0.951968 0.0953349 -0.670739
0 0.951965 0.0938704 -1.10921
0 0.951967 0.0955402 0.276402
0 0.951964 0.093341 1.00537
0 0.951976 0.0957867 0.330061
0 0.951976 0.0978658 -0.326743
0 0.951988 0.100412 2.25906
0 0.951974 0.0954634 0.548631
0 0.951972 0.0933005 -0.944051
0 0.951972 0.11442 -0.136394
0 0.951962 0.0942682 0.370037
0 0.951952 0.0951155 -1.4876
0 0.951937 0.0957753 -0.392215
0 0.951942 0.0952139 -1.04581
0 0.951924 0.0948662 -1.20523
0 0.951966 0.0953975 -0.784019
0 0.951965 0.0961607 -0.86451
0 0.951966 0.0958815 1.42699
0 0.951972 0.102738 2.88254
0 0.951979 0.0940478 -0.762943
0 0.951964 0.0950068 0.464498
0 0.9519 0.0943695 -0.408712
0 0.95189 0.116378 9.01326
0 0.951971 0.096003 -0.921459
0 0.951961 0.0936909 0.685462
0 0.951964 0.0935362 -0.95123
0 0.951959 0.0929 -0.828937
0 0.951958 0.0938836 -1.19042
0 0.95199 0.100187 2.82014
0 0.951977 0.0972125 1.82757
0 0.951993 0.0967357 2.01852
0 0.951969 0.0956686 -1.19912
0 0.951968 0.0940063 0.813144
0 0.951962 0.0930689 -0.901702
0 0.951965 0.0926835 -0.879655
0 0.951974 0.115012 6.71279
0 0.951955 0.0952688 0.55399
0 0.951942 0.0954721 1.11867
0 0.951939 0.0947829 1.20461
0 0.951939 0.101621 -3.62225
0 0.951965 0.0948163 0.545983
0 0.951969 0.0939518 -0.539574
0 0.951974 0.0979552 0.846796
0 0.951977 0.0942038 0.271077
0 0.951981 0.0944363 0.415928
0 0.951958 0.097042 -0.100998
0 0.951964 0.0941709 0.607321
0 0.951963 0.0945629 1.13285
0 0.951941 0.0941147 -0.896889
0 0.951899 0.115111 2.06125
0 0.951958 0.0940563 1.12837
0 0.951954 0.0939992 -1.07246
0 0.951952 0.093685 -0.912352
0 0.951961 0.0938396 -0.590046
0 0.951977 0.098998 -0.741675
0 0.951965 0.0938746 -0.876992
0 0.951964 0.0933176 -0.722524
0 0.95198 0.0926567 -0.826236
0 0.951983 0.113174 0.96016
0 0.951954 0.0954494 0.710286
0 0.951958 0.0959566 -2.7602
0 0.951984 0.101205 4.04012
0 0.951962 0.0950223 0.215535
0 0.951971 0.0939818 -0.0478398
0 0.95197 0.0962285 -1.04403
0 0.951959 0.0940131 -0.417935
0 0.951975 0.0935488 0.0826549
0 0.951962 0.0963702 1.00098
0 0.951979 0.0949005 -1.40897
0 0.951967 0.0940134 -0.517001
0 0.951958 0.11118 2.23693
0 0.951952 0.0938462 -0.253883
0 0.951956 0.0953842 -0.0114109
0 0.951955 0.0942507 -0.938145
0 0.951965 0.0946824 -0.887449
0 0.95197 0.0964715 -0.742953
0 0.951963 0.0934133 -0.674779
0 0.951972 0.0933353 -0.780583
0 0.95199 0.113699 3.15982
0 0.951973 0.099412 3.06487
0 0.951986 0.0973503 1.87491
0 0.951969 0.0943813 1.01442
0 0.95197 0.0944164 -0.90886
0 0.951962 0.0943937 0.0818207
0 0.951965 0.0927708 -0.220764
0 0.951966 0.0932002 0.127536
0 0.951964 0.094928 0.451065
0 0.951965 0.0937075 -0.811855
0 0.951977 0.0943345 -0.412126
0 0.951958 0.0951998 -1.46255
0 0.951952 0.114133 2.19604
0 0.951959 0.0948692 0.226127
0 0.95196 0.0940171 -0.319361
0 0.95196 0.0994485 -1.09582
0 0.95197 0.09404 0.937417
0 0.951977 0.0932824 -0.895132
0 0.951973 0.11358 0.119365
0 0.95197 0.093669 -0.0639217
0 0.951964 0.0945419 -0.299737
0 0.951963 0.0937538 0.303005
0 0.951962 0.0944827 0.587799
0 0.951959 0.0947091 -1.20826
0 0.951958 0.0965561 -1.03507
0 0.951962 0.0930678 -0.247144
0 0.951956 0.0929326 0.231033
0 0.951939 0.116463 4.31728
0 0.951954 0.0935947 -0.509054
0 0.951948 0.0939132 0.480809
0 0.951965 0.0938039 0.434223
0 0.951983 0.0930246 -0.720375
0 0.951995 0.114976 2.08831
0 0.951961 0.0941528 -0.969756
0 0.951953 0.0936534 0.33839
0 0.951953 0.0933238 -0.0794464
0 0.951958 0.0951811 -0.872108
0 0.951957 0.0934503 0.130262
0 0.951945 0.0931736 0.119597
0 0.951932 0.11546 3.664
0 0.951951 0.0934748 0.155722
0 0.951958 0.0931839 0.261944
0 0.951971 0.093173 -0.729621
0 0.951976 0.116879 4.46054
0 0.951943 0.0945773 0.3574
0 0.951953 0.0936714 -0.122448
0 0.951943 0.097533 -0.691747
0 0.951945 0.0944904 -0.806072
0 0.951963 0.0946369 -0.150832
0 0.951971 0.0937762 -0.287827
0 0.951951 0.117799 2.83419
0 0.951953 0.0939759 -0.0970281
0 0.951969 0.0934033 -0.317731
0 0.951979 0.115063 2.78416
0 0.951948 0.0935526 -0.228148
0 0.951957 0.0955284 -0.345059
0 0.951949 0.0933647 -0.334883
0 0.951969 0.0951816 -0.159427
0 0.951978 0.113772 3.52549
0 0.951956 0.0932601 0.341104
0 0.951962 0.117258 4.27191
0 0.951959 0.0939427 0.436409
0 0.951962 0.0938889 -0.145149
0 0.951961 0.114123 3.78629
0 0.951962 0.118307 3.62507
0 0.951965 0.113796 1.75719
VECTORS fa_u float
0.00725696 0.00290023 -0
0.00664276 0.0038162 -0
0.00291234 0.000793362 -0
0.00718557 0.0011167 -0
1e-08 0 0
0.00520765 0.00401348 -0
0.00255515 0.00247288 -0
1e-08 0 0
1e-08 0 0
0.00452332 0.00551799 -0
0.00531069 0.00891608 -0
0.00662675 0.000138343 -0
0.00621201 -0.000669516 0
1e-08 0 0
1e-08 0 0
1e-08 0 0
1e-08 0 0
1e-08 0 0
1e-08 0 0
1e-08 0 0
1e-08 0 0
0.00294546 0.00727106 -0
0.0015943 0.00626352 -0
1e-08 0 0
1e-08 0 0
1e-08 0 0
0.00893869 -0.0022564 0
1e-08 0 0
0.0110357 -0.00483356 0
1e-08 0 0
1e-08 0 0
1e-08 0 0
0.000855739 0.00733571 -0
1e-08 0 0
1e-08 0 0
1e-08 0 0
1e-08 0 0
1e-08 0 0
1e-08 0 0
1e-08 0 0
1e-08 0 0
1e-08 0 0
1e-08 0 0
-0.000175577 0.00766979 -0
1e-08 0 0
1e-08 0 0
1e-08 0 0
0.00565512 -0.00359998 0
1e-08 0 0
0.00269519 -0.00217537 0
1e-08 0 0
1e-08 0 0
1e-08 0 0
1e-08 0 0
1e-08 0 0
1e-08 0 0
1e-08 0 0
1e-08 0 0
1e-08 0 0
1e-08 0 0
1e-08 0 0
1e-08 0 0
1e-08 0 0
-0.000583737 0.00402179 0
1e-08 0 0
1e-08 0 0
1e-08 0 0
1e-08 0 0
1e-08 0 0
0.00318508 -0.00315079 0
1e-08 0 0
0.00280114 -0.00343304 0
1e-08 0 0
1e-08 0 0
1e-08 0 0
1e-08 0 0
1e-08 0 0
1e-08 0 0
1e-08 0 0
1e-08 0 0
1e-08 0 0
1e-08 0 0
1e-08 0 0
1e-08 0 0
1e-08 0 0
-0.00138059 0.00532001 0
1e-08 0 0
1e-08 0 0
1e-08 0 0
1e-08 0 0
1e-08 0 0
1e-08 0 0
0.00572265 -0.0093894 0
1e-08 0 0
1e-08 0 0
1e-08 0 0
1e-08 0 0
1e-08 0 0
0.00366822 -0.00908154 0
1e-08 0 0
1e-08 0 0
1e-08 0 0
1e-08 0 0
1e-08 0 0
1e-08 0 0
1e-08 0 0
1e-08 0 0
1e-08 0 0
1e-08 0 0
-0.00290342 0.00719551 0
1e-08 0 0
1e-08 0 0
1e-08 0 0
1e-08 0 0
1e-08 0 0
1e-08 0 0
1e-08 0 0
1e-08 0 0
1e-08 0 0
1e-08 0 0
1e-08 0 0
1e-08 0 0
1e-08 0 0
1e-08 0 0
0.00134498 -0.00537503 0
1e-08 0 0
1e-08 0 0
1e-08 0 0
1e-08 0 0
1e-08 0 0
1e-08 0 0
1e-08 0 0
1e-08 0 0
1e-08 0 0
-0.00373601 0.00647419 0
1e-08 0 0
1e-08 0 0
1e-08 0 0
1e-08 0 0
1e-08 0 0
1e-08 0 0
1e-08 0 0
1e-08 0 0
1e-08 0 0
1e-08 0 0
1e-08 0 0
1e-08 0 0
1e-08 0 0
1e-08 0 0
1e-08 0 0
0.000525691 -0.00384267 0
1e-08 0 0
1e-08 0 0
1e-08 0 0
1e-08 0 0
1e-08 0 0
1e-08 0 0
1e-08 0 0
1e-08 0 0
1e-08 0 0
1e-08 0 0
-0.00465848 0.00597425 0
1e-08 0 0
1e-08 0 0
1e-08 0 0
1e-08 0 0
1e-08 0 0
1e-08 0 0
1e-08 0 0
1e-08 0 0
1e-08 0 0
1e-08 0 0
1e-08 0 0
1e-08 0 0
0.000117947 -0.00771577 0
1e-08 0 0
1e-08 0 0
1e-08 0 0
1e-08 0 0
1e-08 0 0
1e-08 0 0
1e-08 0 0
1e-08 0 0
1e-08 0 0
1e-08 0 0
1e-08 0 0
1e-08 0 0
-0.00220705 0.00224591 0
1e-08 0 0
1e-08 0 0
1e-08 0 0
1e-08 0 0
1e-08 0 0
1e-08 0 0
1e-08 0 0
1e-08 0 0
1e-08 0 0
1e-08 0 0
1e-08 0 0
1e-08 0 0
1e-08 0 0
-0.000861326 -0.00699893 0
1e-08 0 0
1e-08 0 0
1e-08 0 0
1e-08 0 0
1e-08 0 0
1e-08 0 0
1e-08 0 0
1e-08 0 0
-0.00487235 0.00398833 0
1e-08 0 0
1e-08 0 0
1e-08 0 0
1e-08 0 0
1e-08 0 0
1e-08 0 0
1e-08 0 0
1e-08 0 0
1e-08 0 0
1e-08 0 0
1e-08 0 0
-0.00160115 -0.00616926 0
1e-08 0 0
1e-08 0 0
1e-08 0 0
1e-08 0 0
1e-08 0 0
1e-08 0 0
1e-08 0 0
-0.00868138 0.0052229 0
1e-08 0 0
1e-08 0 0
1e-08 0 0
1e-08 0 0
1e-08 0 0
1e-08 0 0
1e-08 0 0
1e-08 0 0
1e-08 0 0
1e-08 0 0
1e-08 0 0
-0.00303931 -0.00740089 0
1e-08 0 0
1e-08 0 0
1e-08 0 0
1e-08 0 0
1e-08 0 0
-0.00759187 0.00310747 0
1e-08 0 0
1e-08 0 0
1e-08 0 0
1e-08 0 0
1e-08 0 0
1e-08 0 0
1e-08 0 0
1e-08 0 0
-0.00502717 -0.00838153 0
1e-08 0 0
1e-08 0 0
1e-08 0 0
1e-08 0 0
-0.00620142 0.00159463 0
1e-08 0 0
1e-08 0 0
1e-08 0 0
1e-08 0 0
1e-08 0 0
1e-08 0 0
-0.00362344 -0.00447689 0
1e-08 0 0
1e-08 0 0
1e-08 0 0
-0.00720147 0.000862976 0
1e-08 0 0
1e-08 0 0
1e-08 0 0
1e-08 0 0
1e-08 0 0
1e-08 0 0
-0.00264227 -0.00261972 0
1e-08 0 0
1e-08 0 0
-0.00841509 -0.000187351 0
1e-08 0 0
1e-08 0 0
1e-08 0 0
1e-08 0 0
-0.00588339 -0.0045979 0
1e-08 0 0
-0.00358126 -0.000520281 0
1e-08 0 0
1e-08 0 0
-0.006785 -0.003915 0
-0.00545762 -0.00140463 0
-0.00715345 -0.00287457 0
