# vtk DataFile Version 2.0
CellBP Time: 7.92
ASCII
DATASET UNSTRUCTURED_GRID
POINTS 296 double
-8.95019 -3.66565 0
-8.39126 -4.81811 0
-9.34131 -2.44364 0
-9.61744 -1.21353 0
-8.10578 -2.71476 0
-7.67516 -5.88448 0
-6.82681 -6.84869 0
-7.66595 -3.73757 0
-7.1052 -4.7106 0
-5.90009 -7.71583 0
-4.86984 -8.44778 0
-9.72455 0.0384842 0
-9.66793 1.31516 0
-8.42488 -1.62345 0
-8.58111 -0.505371 0
-7.35139 -1.91854 0
-6.97879 -2.78416 0
-6.44837 -5.62909 0
-5.67958 -6.44841 0
-6.55131 -3.74759 0
-6.01639 -4.53142 0
-3.71944 -9.01284 0
-2.49077 -9.41247 0
-4.80173 -7.1658 0
-3.85082 -7.7482 0
-8.59609 0.630024 0
-9.44669 2.59259 0
-8.45115 1.73087 0
-9.03667 3.80942 0
-7.5283 -0.884715 0
-7.59367 0.0891657 0
-6.74405 -1.25461 0
-1.21866 -9.65039 0
-6.24938 -2.07109 0
-6.11795 -2.94591 0
-5.37571 -5.3341 0
-4.67342 -5.97957 0
-5.48039 -3.6383 0
-5.09943 -4.4328 0
-2.81958 -8.21035 0
-1.74724 -8.46965 0
-3.84436 -6.59234 0
-3.01299 -7.02464 0
0.0550584 -9.71099 0
-7.51869 1.11597 0
-8.19343 2.86224 0
-7.38049 2.05052 0
-8.42484 4.93193 0
-7.71078 3.88445 0
-7.66757 5.96937 0
-6.59061 -0.36958 0
-6.77031 0.548969 0
-5.62743 -0.970626 0
-0.581023 -8.61761 0
0.544317 -8.55255 0
-5.16224 -2.40456 0
-4.35471 -4.96583 0
-3.80198 -5.64828 0
-4.32083 -3.71148 0
-2.02676 -7.4171 0
-1.11636 -7.62647 0
-2.93222 -5.97696 0
-2.27252 -6.49479 0
1.31244 -9.59536 0
-6.52578 1.38227 0
-6.99638 3.03009 0
-6.50079 2.30851 0
-7.11723 4.85666 0
-6.55434 3.89055 0
-6.82515 6.91798 0
-6.40209 5.73627 0
-5.88021 7.77511 0
-4.3768 -1.16664 0
-5.68369 0.492695 0
-4.57746 -0.0276687 0
-0.00478987 -7.6617 0
1.68253 -8.40236 0
0.905357 -7.55361 0
-3.96392 -2.35533 0
-3.45658 -1.38012 0
-3.21966 -4.7055 0
-3.21864 -3.20899 0
-1.36616 -6.53364 0
-0.519218 -6.86116 0
-1.94745 -5.43616 0
2.56312 -9.34857 0
-5.38714 1.99366 0
-5.94859 2.98561 0
-5.95606 4.73346 0
-5.61738 3.87223 0
-5.60645 6.53268 0
-5.3115 5.45799 0
-4.84874 8.52577 0
-4.70681 7.19562 0
-3.46174 -0.419511 0
-4.36671 1.22815 0
-3.65402 0.585536 0
-3.98474 2.29401 0
-3.70987 9.0948 0
2.76102 -8.06997 0
0.375039 -6.61139 0
1.93409 -7.29477 0
1.23555 -6.70171 0
-2.4263 -0.863804 0
-2.81207 -2.10705 0
-2.26551 -4.02654 0
-2.29719 -2.92811 0
-0.451563 -5.72612 0
-1.20202 -4.42246 0
3.77566 -8.95493 0
-4.67733 3.30773 0
-4.95988 4.46098 0
-4.52505 6.09433 0
-4.42295 5.20447 0
-3.75421 7.79742 0
-3.71693 6.63616 0
-2.71201 8.20264 0
-1.63468 -0.124218 0
-1.43648 -0.875839 0
-2.47189 0.517614 0
-3.20429 1.43478 0
-3.17699 3.26178 0
-2.86635 2.3593 0
-1.3507 0.637876 0
-2.48788 9.48057 0
3.79968 -7.63993 0
2.8411 -6.9085 0
0.901211 -5.66453 0
1.98341 -6.20802 0
-1.66313 -1.97525 0
-1.41514 -3.23349 0
0.0793207 -4.65052 0
-0.553795 -3.63964 0
4.77997 -7.08219 0
4.91995 -8.39599 0
-3.68815 4.43953 0
-3.63774 5.59222 0
-2.80066 7.07803 0
-2.92932 6.17584 0
-1.62269 8.52458 0
-1.8821 7.42117 0
-2.29922 3.97968 0
-0.720548 -1.31704 0
-0.829632 -0.244316 0
-1.93093 1.69368 0
-2.10269 2.85648 0
-1.2975 3.50658 0
-0.871996 1.36094 0
-0.285868 0.4641 0
-0.52204 8.67435 0
-1.22641 9.71822 0
1.07046 -4.46317 0
3.75649 -6.46219 0
2.87262 -5.88374 0
2.03742 -5.25774 0
4.63118 -5.98245 0
-0.548329 -2.45704 0
0.488999 -3.41334 0
0.0596643 -1.60172 0
1.44528 -3.59824 0
5.7057 -6.41075 0
5.9836 -7.68056 0
-2.41735 5.21903 0
-2.06512 6.35885 0
-0.87309 7.62443 0
-1.223 6.75574 0
0.0922698 7.71654 0
-1.12721 4.41849 0
0.148211 -0.611402 0
-0.808424 2.49434 0
-0.344684 3.57383 0
0.0521257 1.5151 0
0.732847 0.474052 0
0.629136 8.70011 0
0.0426174 9.82656 0
2.30766 -4.16324 0
3.73081 -5.43857 0
2.90223 -5.04192 0
5.42828 -5.31632 0
4.55233 -5.0896 0
0.632415 -2.28356 0
1.2395 -2.90717 0
0.758455 -1.38785 0
2.11896 -3.06921 0
2.92406 -3.38774 0
6.018 -4.65812 0
6.49781 -5.61435 0
6.93974 -6.82246 0
-0.990225 5.69259 0
-0.345198 6.72603 0
1.10451 7.62569 0
0.563606 6.93305 0
-0.00239158 4.6593 0
0.593207 3.7879 0
1.33277 -0.64175 0
0.522754 2.63937 0
0.950185 1.57655 0
1.89244 0.207948 0
1.59909 1.06022 0
2.09842 7.4488 0
1.76876 8.5528 0
1.32529 9.7556 0
3.72223 -4.21278 0
4.98812 -4.29441 0
5.72085 -3.81921 0
3.70472 -3.11192 0
1.79657 -1.87633 0
2.96968 -2.5268 0
6.65015 -3.85079 0
7.23019 -4.78667 0
7.80521 -5.88881 0
0.480865 5.7702 0
1.41161 6.61677 0
2.34145 6.55609 0
1.19009 4.49191 0
1.46473 3.35697 0
2.40909 -0.689777 0
2.79533 0.140024 0
1.7673 2.14996 0
2.5903 1.14051 0
3.02745 7.0495 0
2.86166 8.22721 0
2.59391 9.51138 0
4.80773 -3.2301 0
6.00252 -3.02972 0
4.10305 -2.23141 0
3.19941 -1.4882 0
6.61724 -2.27457 0
7.10976 -2.98593 0
7.82893 -3.84644 0
8.54124 -4.85991 0
1.99856 5.50857 0
3.01471 6.03857 0
2.33444 4.06511 0
2.39215 3.02097 0
3.47873 -0.45258 0
3.57169 0.61365 0
2.92688 2.25971 0
3.49009 1.50562 0
3.90698 5.77556 0
3.90364 6.66619 0
3.91348 7.80055 0
3.81927 9.10729 0
5.47679 -1.88086 0
4.44268 -1.10876 0
6.59391 -1.31091 0
7.46044 -2.00015 0
8.24704 -2.81286 0
9.11066 -3.71464 0
3.33041 4.77722 0
3.27306 3.32224 0
4.61627 0.133576 0
4.42649 1.28026 0
3.97095 2.38813 0
4.42881 5.02733 0
4.71822 6.05899 0
4.87937 7.22926 0
4.96416 8.53813 0
5.76808 -0.436225 0
6.86776 -0.486097 0
7.61893 -1.05757 0
8.52403 -1.70995 0
9.51291 -2.48706 0
4.42166 3.73279 0
5.67355 1.05416 0
5.21463 2.45779 0
5.20229 4.49218 0
5.44523 5.38702 0
5.75663 6.51769 0
5.99355 7.80507 0
6.67915 0.432217 0
7.68689 -0.0269552 0
8.68355 -0.562217 0
9.75433 -1.21618 0
6.77348 1.28957 0
5.53273 3.66491 0
6.34654 2.10977 0
6.17098 2.98002 0
6.08481 4.5495 0
6.50262 5.68441 0
6.9335 6.94748 0
7.59681 0.931573 0
8.65586 0.561176 0
9.81981 0.062494 0
7.40301 1.93278 0
6.58499 3.76427 0
7.03511 2.83633 0
7.16198 4.74546 0
7.79164 5.99244 0
8.49577 1.68089 0
9.7007 1.31959 0
8.16886 2.74736 0
7.74998 3.80226 0
8.50779 4.93099 0
9.45691 2.57212 0
9.06487 3.78533 0
CELLS 542 2168
3 2 0 4
3 0 1 7
3 4 0 7
3 1 5 8
3 7 1 8
3 3 2 13
3 13 2 4
3 11 3 14
3 14 3 13
3 13 4 15
3 4 7 16
3 15 4 16
3 5 6 17
3 8 5 17
3 6 9 18
3 17 6 18
3 7 8 19
3 16 7 19
3 8 17 20
3 19 8 20
3 9 10 23
3 18 9 23
3 10 21 24
3 23 10 24
3 12 11 25
3 25 11 14
3 26 12 27
3 27 12 25
3 14 13 29
3 29 13 15
3 25 14 30
3 30 14 29
3 29 15 31
3 15 16 33
3 31 15 33
3 16 19 34
3 33 16 34
3 17 18 35
3 20 17 35
3 18 23 36
3 35 18 36
3 19 20 37
3 34 19 37
3 20 35 38
3 37 20 38
3 21 22 39
3 24 21 39
3 22 32 40
3 39 22 40
3 23 24 41
3 36 23 41
3 24 39 42
3 41 24 42
3 27 25 44
3 44 25 30
3 28 26 45
3 45 26 27
3 45 27 46
3 46 27 44
3 47 28 48
3 48 28 45
3 30 29 50
3 50 29 31
3 44 30 51
3 51 30 50
3 50 31 52
3 31 33 52
3 32 43 53
3 40 32 53
3 53 43 54
3 33 34 55
3 34 37 55
3 33 55 52
3 35 36 56
3 38 35 56
3 36 41 57
3 56 36 57
3 37 38 58
3 38 56 58
3 37 58 55
3 39 40 59
3 42 39 59
3 40 53 60
3 59 40 60
3 41 42 61
3 57 41 61
3 42 59 62
3 61 42 62
3 43 63 54
3 46 44 64
3 64 44 51
3 48 45 65
3 65 45 46
3 65 46 66
3 66 46 64
3 49 47 67
3 67 47 48
3 67 48 68
3 68 48 65
3 69 49 70
3 70 49 67
3 52 55 72
3 64 51 73
3 51 50 73
3 50 52 73
3 73 52 74
3 74 52 72
3 53 54 75
3 60 53 75
3 54 63 76
3 54 76 77
3 75 54 77
3 55 58 78
3 72 55 78
3 72 78 79
3 56 57 80
3 57 61 80
3 56 80 58
3 58 80 81
3 78 58 81
3 59 60 82
3 62 59 82
3 60 75 83
3 82 60 83
3 61 62 84
3 62 82 84
3 61 84 80
3 63 85 76
3 66 64 86
3 64 73 86
3 68 65 87
3 87 65 66
3 87 66 86
3 70 67 88
3 88 67 68
3 88 68 89
3 89 68 87
3 71 69 90
3 90 69 70
3 90 70 91
3 91 70 88
3 92 71 93
3 93 71 90
3 74 72 94
3 94 72 79
3 86 73 95
3 95 73 74
3 95 74 96
3 96 74 94
3 97 86 95
3 76 85 99
3 75 77 100
3 83 75 100
3 76 99 101
3 77 76 101
3 77 101 102
3 100 77 102
3 94 79 103
3 78 81 104
3 79 78 104
3 79 104 103
3 80 84 105
3 81 80 105
3 81 105 106
3 104 81 106
3 82 83 107
3 83 100 107
3 82 107 84
3 84 107 108
3 105 84 108
3 85 109 99
3 89 87 110
3 87 86 110
3 110 86 97
3 91 88 111
3 111 88 89
3 111 89 110
3 93 90 112
3 112 90 91
3 112 91 113
3 113 91 111
3 98 92 114
3 114 92 93
3 114 93 115
3 115 93 112
3 116 98 114
3 117 103 118
3 96 94 119
3 94 103 119
3 119 103 117
3 97 95 120
3 120 95 96
3 120 96 119
3 121 110 97
3 121 97 122
3 122 97 120
3 123 119 117
3 124 98 116
3 99 109 125
3 99 125 126
3 101 99 126
3 100 102 127
3 100 127 107
3 101 126 128
3 102 101 128
3 102 128 127
3 104 106 129
3 104 129 103
3 103 129 118
3 105 108 130
3 106 105 130
3 106 130 129
3 107 127 131
3 108 107 131
3 108 131 132
3 108 132 130
3 109 134 125
3 125 134 133
3 113 111 135
3 111 110 135
3 135 110 121
3 115 112 136
3 136 112 113
3 136 113 135
3 116 114 137
3 137 114 115
3 137 115 138
3 138 115 136
3 139 124 116
3 139 116 140
3 140 116 137
3 141 135 121
3 118 129 142
3 118 142 143
3 117 118 143
3 123 117 143
3 122 120 144
3 120 119 144
3 144 119 123
3 141 121 145
3 145 121 122
3 145 122 144
3 146 141 145
3 147 144 123
3 147 123 148
3 143 148 123
3 150 124 139
3 149 150 139
3 131 127 151
3 125 133 152
3 126 125 152
3 126 152 153
3 128 126 153
3 128 153 154
3 128 154 127
3 127 154 151
3 152 133 155
3 130 132 156
3 130 156 129
3 129 156 142
3 131 151 157
3 132 131 157
3 132 157 156
3 156 158 142
3 157 151 159
3 133 160 155
3 134 161 133
3 133 161 160
3 138 136 162
3 136 135 162
3 162 135 141
3 140 137 163
3 163 137 138
3 163 138 162
3 149 139 164
3 164 139 140
3 164 140 165
3 165 140 163
3 166 149 164
3 167 162 141
3 167 141 146
3 142 158 168
3 143 142 168
3 143 168 148
3 146 145 169
3 145 144 169
3 169 144 147
3 170 167 146
3 170 146 169
3 171 169 147
3 171 147 148
3 171 148 172
3 168 172 148
3 173 149 166
3 174 150 149
3 173 174 149
3 154 175 151
3 151 175 159
3 152 155 176
3 153 152 176
3 153 176 177
3 153 177 154
3 154 177 175
3 155 160 178
3 155 178 179
3 176 155 179
3 156 157 180
3 156 180 158
3 157 159 181
3 157 181 180
3 158 180 182
3 158 182 168
3 159 175 183
3 159 183 181
3 175 184 183
3 160 186 178
3 178 186 185
3 161 187 160
3 160 187 186
3 165 163 188
3 163 162 188
3 188 162 167
3 166 164 189
3 189 164 165
3 189 165 188
3 190 173 166
3 190 166 191
3 191 166 189
3 192 188 167
3 192 167 170
3 193 192 170
3 182 194 168
3 194 172 168
3 193 170 195
3 170 169 195
3 195 169 171
3 196 195 171
3 196 171 172
3 194 197 172
3 197 198 172
3 198 196 172
3 200 173 190
3 199 200 190
3 201 174 173
3 200 201 173
3 176 179 202
3 177 176 202
3 177 202 175
3 175 202 184
3 178 185 203
3 178 203 179
3 179 203 202
3 203 185 204
3 202 205 184
3 183 206 181
3 180 181 206
3 180 206 182
3 182 206 194
3 183 184 207
3 205 207 184
3 183 207 206
3 185 208 204
3 186 209 185
3 185 209 208
3 187 210 186
3 186 210 209
3 191 189 211
3 189 188 211
3 211 188 192
3 199 190 212
3 212 190 191
3 212 191 211
3 213 199 212
3 214 211 192
3 214 192 193
3 215 214 193
3 215 193 195
3 206 216 194
3 216 197 194
3 216 217 197
3 215 195 218
3 218 195 196
3 198 218 196
3 217 219 197
3 219 218 198
3 197 219 198
3 220 199 213
3 221 200 199
3 220 221 199
3 222 201 200
3 221 222 200
3 203 204 223
3 203 223 202
3 202 223 205
3 204 208 224
3 204 224 223
3 205 223 225
3 205 225 207
3 207 225 226
3 207 226 206
3 226 216 206
3 208 228 224
3 224 228 227
3 209 229 208
3 229 228 208
3 210 230 209
3 209 230 229
3 213 212 231
3 212 211 231
3 231 211 214
3 232 220 213
3 232 213 231
3 233 231 214
3 233 214 215
3 234 233 215
3 234 215 218
3 226 235 216
3 235 217 216
3 235 236 217
3 217 236 219
3 237 234 218
3 237 218 219
3 236 238 219
3 238 237 219
3 240 220 232
3 239 240 232
3 241 221 220
3 240 241 220
3 242 222 221
3 241 242 221
3 224 227 243
3 224 243 223
3 223 243 225
3 225 243 244
3 225 244 226
3 226 244 235
3 227 245 243
3 228 246 227
3 227 246 245
3 229 247 228
3 228 247 246
3 230 248 229
3 229 248 247
3 239 232 249
3 232 231 249
3 249 231 233
3 250 249 233
3 250 233 234
3 237 250 234
3 244 251 235
3 235 251 236
3 251 252 236
3 236 252 238
3 252 253 238
3 253 250 237
3 253 237 238
3 254 239 249
3 255 240 239
3 254 255 239
3 256 241 240
3 255 256 240
3 257 242 241
3 256 257 241
3 245 258 243
3 243 258 244
3 244 258 251
3 245 259 258
3 246 260 245
3 245 260 259
3 247 261 246
3 246 261 260
3 248 262 247
3 247 262 261
3 254 249 263
3 263 249 250
3 253 263 250
3 258 264 251
3 251 264 252
3 264 265 252
3 265 263 253
3 252 265 253
3 266 254 263
3 267 255 254
3 266 267 254
3 268 256 255
3 267 268 255
3 269 257 256
3 268 269 256
3 259 270 258
3 270 264 258
3 260 271 259
3 259 271 270
3 261 272 260
3 260 272 271
3 262 273 261
3 273 272 261
3 270 274 264
3 275 266 263
3 275 263 265
3 274 276 264
3 276 265 264
3 276 277 265
3 277 275 265
3 278 267 266
3 275 278 266
3 279 268 267
3 278 279 267
3 280 269 268
3 279 280 268
3 271 281 270
3 270 281 274
3 272 282 271
3 271 282 281
3 273 283 272
3 272 283 282
3 281 284 274
3 274 284 276
3 285 278 275
3 277 285 275
3 284 286 276
3 286 285 277
3 276 286 277
3 287 279 278
3 285 287 278
3 288 280 279
3 287 288 279
3 282 289 281
3 281 289 284
3 283 290 282
3 282 290 289
3 289 291 284
3 284 291 286
3 291 292 286
3 292 287 285
3 286 292 285
3 293 288 287
3 292 293 287
3 290 294 289
3 289 294 291
3 294 295 291
3 295 293 292
3 291 295 292
CELL_TYPES 542
5
5
5
5
5
5
5
5
5
5
5
5
5
5
5
5
5
5
5
5
5
5
5
5
5
5
5
5
5
5
5
5
5
5
5
5
5
5
5
5
5
5
5
5
5
5
5
5
5
5
5
5
5
5
5
5
5
5
5
5
5
5
5
5
5
5
5
5
5
5
5
5
5
5
5
5
5
5
5
5
5
5
5
5
5
5
5
5
5
5
5
5
5
5
5
5
5
5
5
5
5
5
5
5
5
5
5
5
5
5
5
5
5
5
5
5
5
5
5
5
5
5
5
5
5
5
5
5
5
5
5
5
5
5
5
5
5
5
5
5
5
5
5
5
5
5
5
5
5
5
5
5
5
5
5
5
5
5
5
5
5
5
5
5
5
5
5
5
5
5
5
5
5
5
5
5
5
5
5
5
5
5
5
5
5
5
5
5
5
5
5
5
5
5
5
5
5
5
5
5
5
5
5
5
5
5
5
5
5
5
5
5
5
5
5
5
5
5
5
5
5
5
5
5
5
5
5
5
5
5
5
5
5
5
5
5
5
5
5
5
5
5
5
5
5
5
5
5
5
5
5
5
5
5
5
5
5
5
5
5
5
5
5
5
5
5
5
5
5
5
5
5
5
5
5
5
5
5
5
5
5
5
5
5
5
5
5
5
5
5
5
5
5
5
5
5
5
5
5
5
5
5
5
5
5
5
5
5
5
5
5
5
5
5
5
5
5
5
5
5
5
5
5
5
5
5
5
5
5
5
5
5
5
5
5
5
5
5
5
5
5
5
5
5
5
5
5
5
5
5
5
5
5
5
5
5
5
5
5
5
5
5
5
5
5
5
5
5
5
5
5
5
5
5
5
5
5
5
5
5
5
5
5
5
5
5
5
5
5
5
5
5
5
5
5
5
5
5
5
5
5
5
5
5
5
5
5
5
5
5
5
5
5
5
5
5
5
5
5
5
5
5
5
5
5
5
5
5
5
5
5
5
5
5
5
5
5
5
5
5
5
5
5
5
5
5
5
5
5
5
5
5
5
5
5
5
5
5
5
5
5
5
5
5
5
5
5
5
5
5
5
5
5
5
5
5
5
5
5
5
5
5
5
5
5
5
5
5
5
5
5
5
5
5
5
5
5
5
5
5
5
5
5
5
5
5
5
5
5
5
5
5
5
5
5
5
5
5
5
5
5
5
5
5
5
5
5
5
5
5
5
5
5
5
5
5
5
5
5
5
5
5
POINT_DATA 296
SCALARS concentrations float 4
LOOKUP_TABLE default
0 0.954351 0.122946 0.698716
0 0.954361 0.121256 6.01315
0 0.954328 0.124347 8.25888
0 0.954261 0.12222 5.30246
0 0.954339 0.0935377 0.0163163
0 0.954379 0.124333 2.94505
0 0.954399 0.124884 2.04191
0 0.954345 0.0938913 0.623735
0 0.954361 0.0935035 -0.207231
0 0.954414 0.125196 2.73863
0 0.954419 0.121762 1.04924
0 0.95427 0.124091 6.41241
0 0.9543 0.121091 7.32474
0 0.954302 0.0931634 0.269078
0 0.954283 0.0930787 0.338731
0 0.954322 0.0933657 0.033705
0 0.954335 0.0939896 -0.493966
0 0.954378 0.0927118 0.0265342
0 0.954387 0.0927475 0.264803
0 0.954339 0.0939363 0.355456
0 0.954349 0.0935683 0.0344547
0 0.954408 0.125387 1.25541
0 0.954385 0.124063 3.78325
0 0.954392 0.0931348 0.714314
0 0.954388 0.0943769 1.36059
0 0.954299 0.0925541 -0.113532
0 0.954295 0.125168 6.69147
0 0.95431 0.0942356 -0.86586
0 0.954306 0.11978 5.94816
0 0.95432 0.0937145 -0.487659
0 0.954321 0.09299 -0.179741
0 0.954322 0.0934201 0.0135011
0 0.954354 0.12411 4.69035
0 0.954325 0.0936069 -0.156955
0 0.954332 0.0950104 -0.161204
0 0.954356 0.0934341 0.546383
0 0.954346 0.09462 -0.930782
0 0.954328 0.0945987 0.790674
0 0.954337 0.0935157 -0.409609
0 0.954376 0.0941015 0.72435
0 0.954357 0.0935399 -1.26605
0 0.954348 0.0943525 0.0526046
0 0.954347 0.0949022 0.22718
0 0.954338 0.124829 3.96939
0 0.954319 0.0937167 0.400887
0 0.954307 0.0935568 0.00957264
0 0.954325 0.0940877 0.184254
0 0.954388 0.122152 1.63866
0 0.954342 0.0933352 -0.602897
0 0.954406 0.123811 1.67038
0 0.954325 0.0940054 0.154365
0 0.954325 0.0936293 -0.114416
0 0.954319 0.0940483 1.05273
0 0.954343 0.0939159 -1.46361
0 0.954354 0.0935292 -0.541058
0 0.954309 0.0958628 0.826197
0 0.954326 0.0944952 1.44569
0 0.954321 0.0934741 -0.0474948
0 0.954323 0.0940474 -1.65042
0 0.954345 0.0948594 -2.41286
0 0.954332 0.0935679 -1.58702
0 0.954315 0.0961403 -2.50963
0 0.954323 0.0968337 -1.59326
0 0.954359 0.120239 1.12053
0 0.954324 0.0963451 -0.071703
0 0.954337 0.0932295 0.374324
0 0.954328 0.0937661 -0.372259
0 0.954384 0.0930648 0.580159
0 0.954347 0.0937024 -0.666126
0 0.954342 0.124047 6.5744
0 0.95436 0.0933302 -0.0543063
0 0.954293 0.123315 3.5958
0 0.954327 0.0954511 0.0643101
0 0.954326 0.0961317 0.450339
0 0.954338 0.0972184 1.01248
0 0.954341 0.0935292 0.212182
0 0.954358 0.0930269 0.811129
0 0.954348 0.0939038 1.17379
0 0.954334 0.0976362 1.02827
0 0.954361 0.103613 -0.347494
0 0.954326 0.0959641 1.45682
0 0.954351 0.0952649 -0.253568
0 0.954328 0.0964765 -1.16796
0 0.954324 0.094202 -0.485984
0 0.954332 0.0966287 -0.94449
0 0.954347 0.123223 3.60855
0 0.954325 0.0950069 -0.740364
0 0.954334 0.0941621 -0.917216
0 0.954342 0.0938241 -0.222116
0 0.954333 0.0944488 -0.0900152
0 0.954315 0.0936132 0.0870007
0 0.954326 0.0942411 -0.543404
0 0.954306 0.122956 7.5817
0 0.954302 0.0952892 1.66467
0 0.954351 0.0960685 1.33031
0 0.954334 0.0951362 -0.733796
0 0.95435 0.0947125 2.04796
0 0.954329 0.0947001 -1.41507
0 0.954331 0.121612 3.49872
0 0.954359 0.0941587 1.20506
0 0.95433 0.0939491 0.0764234
0 0.95435 0.0937251 -0.422719
0 0.954329 0.0938186 -0.865211
0 0.954353 0.0965575 1.25387
0 0.954364 0.094773 1.48677
0 0.954351 0.095725 -1.04116
0 0.954355 0.0954673 -0.671837
0 0.954332 0.0950632 -1.98727
0 0.954353 0.0952359 -1.96852
0 0.95437 0.123227 -0.334779
0 0.954327 0.0942549 -1.45215
0 0.954324 0.095545 -1.69068
0 0.954316 0.0948217 -1.31672
0 0.954326 0.0960602 -1.49017
0 0.954336 0.0960531 2.18275
0 0.954333 0.0976645 1.68007
0 0.95434 0.0946676 0.936481
0 0.954367 0.0956158 0.0446113
0 0.95436 0.0959965 -0.471214
0 0.95435 0.0985716 2.41115
0 0.954342 0.0960806 1.29521
0 0.954335 0.0980558 1.80849
0 0.95433 0.0989668 -2.93903
0 0.954359 0.0987515 3.39887
0 0.954335 0.123945 7.33724
0 0.954361 0.0941439 1.35239
0 0.954353 0.094545 1.53403
0 0.954325 0.0942055 1.01776
0 0.954334 0.0942468 1.06453
0 0.954358 0.0962194 -0.871816
0 0.954358 0.0946673 0.120127
0 0.954336 0.0944506 -1.32644
0 0.954353 0.0939452 0.697425
0 0.954332 0.0939786 0.299227
0 0.954345 0.121301 8.79785
0 0.954321 0.0944227 -1.26048
0 0.954322 0.094774 0.285987
0 0.954359 0.0954885 -0.56423
0 0.954342 0.0962027 -1.81273
0 0.954358 0.0945193 -1.85678
0 0.954354 0.0936076 0.393765
0 0.95432 0.098028 1.94657
0 0.954354 0.0943843 0.147252
0 0.954367 0.0968825 0.490154
0 0.954336 0.0968961 2.65253
0 0.954335 0.0955722 0.679703
0 0.954338 0.0968369 2.33479
0 0.954364 0.0992211 -2.39548
0 0.954381 0.100856 0.683577
0 0.954375 0.0941153 1.14785
0 0.954386 0.123555 3.73112
0 0.954334 0.0951742 -1.14869
0 0.954346 0.0941964 -1.28723
0 0.954343 0.0946372 1.32862
0 0.954329 0.0945256 1.285
0 0.954345 0.0943074 -0.779309
0 0.954349 0.0950671 -0.431383
0 0.954344 0.0955336 -0.962521
0 0.954345 0.0969459 0.46353
0 0.954352 0.0942201 0.273412
0 0.954344 0.0932786 -0.875863
0 0.954322 0.122362 1.64515
0 0.954318 0.0965559 -2.6176
0 0.954348 0.0956474 0.641253
0 0.954349 0.0935058 -0.155311
0 0.954344 0.0949213 0.609572
0 0.954348 0.0940989 0.0548726
0 0.954319 0.0956601 1.79255
0 0.954359 0.10001 -0.229829
0 0.954354 0.0971467 -0.197919
0 0.954346 0.0964332 -1.14896
0 0.954382 0.0967938 -1.37916
0 0.954357 0.0947911 -1.22765
0 0.954346 0.0938002 0.0694024
0 0.954379 0.124917 5.22698
0 0.954341 0.0951054 1.46181
0 0.95434 0.0965897 1.24996
0 0.954335 0.0947232 1.44306
0 0.954351 0.0934952 0.08986
0 0.954331 0.0943888 0.420085
0 0.954345 0.0986319 -2.62588
0 0.954347 0.0965851 0.024329
0 0.954344 0.0945703 -1.05117
0 0.954348 0.094154 0.210904
0 0.954341 0.0941193 -0.969111
0 0.95435 0.0933615 -0.48644
0 0.95437 0.0929923 -0.620417
0 0.954356 0.122542 3.37295
0 0.954336 0.094618 0.589227
0 0.954343 0.0944897 0.808784
0 0.95434 0.0950025 0.510782
0 0.954342 0.0947075 0.139282
0 0.954335 0.0942446 0.548456
0 0.954338 0.0950222 -0.5833
0 0.954342 0.0949601 0.787821
0 0.954361 0.0949485 -0.765463
0 0.954359 0.102033 -2.08039
0 0.954336 0.0932041 -0.503913
0 0.954338 0.0937143 -0.46936
0 0.954316 0.0956104 0.226322
0 0.954298 0.0936233 0.0653849
0 0.954302 0.123014 4.80028
0 0.95433 0.0935687 0.201344
0 0.954334 0.0937554 -0.404928
0 0.954339 0.0940759 -0.193045
0 0.954334 0.0936148 0.241718
0 0.954335 0.0952757 -0.955066
0 0.954333 0.0945721 0.300207
0 0.954349 0.0942325 0.0324636
0 0.954377 0.0929486 -0.403041
0 0.954389 0.122329 2.41055
0 0.954334 0.0960476 -0.99596
0 0.954329 0.0954511 -0.0893489
0 0.954336 0.100415 -1.69266
0 0.954329 0.0938913 0.155601
0 0.954334 0.0937967 -0.24167
0 0.954337 0.093236 -0.566024
0 0.95434 0.0937717 0.00973683
0 0.954342 0.0938093 -0.300635
0 0.954335 0.0943956 -0.182635
0 0.954323 0.099749 -0.732905
0 0.95427 0.0946366 0.26074
0 0.954257 0.125786 8.03145
0 0.95433 0.0935676 -0.124312
0 0.954329 0.0938536 -0.435165
0 0.954331 0.0938882 0.362764
0 0.954331 0.0945854 -0.566204
0 0.954327 0.0954161 0.538549
0 0.95434 0.0937379 -0.176149
0 0.954381 0.0933102 -0.138976
0 0.9544 0.124746 4.22458
0 0.954335 0.0991633 0.583143
0 0.954348 0.0946287 -0.0375423
0 0.954334 0.0971575 -0.375497
0 0.954327 0.0941998 0.373602
0 0.954344 0.0935466 0.0410009
0 0.954342 0.0943497 0.13633
0 0.954333 0.0952627 -0.813604
0 0.954338 0.0948268 -0.550779
0 0.954331 0.0945061 -0.632359
0 0.954336 0.0964623 0.114988
0 0.954295 0.0941752 0.544334
0 0.954253 0.121709 9.37826
0 0.954334 0.101584 -2.06453
0 0.954342 0.0941031 -0.281067
0 0.954336 0.0944658 -0.203784
0 0.954324 0.0935033 -0.209944
0 0.954332 0.0934686 -0.1637
0 0.954381 0.123045 1.71279
0 0.954341 0.0945236 -0.031892
0 0.954339 0.0936893 -0.55466
0 0.954342 0.094215 -0.423671
0 0.95434 0.0934702 -0.170419
0 0.95434 0.0930525 -0.0506422
0 0.954329 0.0949167 0.958227
0 0.95433 0.0930877 -0.29354
0 0.954332 0.0930336 0.391316
0 0.954311 0.12363 2.18861
0 0.954345 0.0983554 0.1714
0 0.95434 0.093782 0.0610373
0 0.954311 0.0938458 -0.180211
0 0.95427 0.0933113 -0.125297
0 0.954278 0.122689 6.57715
0 0.954337 0.0941368 0.292364
0 0.954337 0.0940407 -0.247391
0 0.954335 0.093977 -0.690168
0 0.954333 0.0941641 0.0357865
0 0.954335 0.0931433 0.299025
0 0.954336 0.0934268 -0.294275
0 0.954333 0.123378 11.1815
0 0.954331 0.0942577 0.647885
0 0.954312 0.0933972 -0.290637
0 0.95427 0.0936653 0.154312
0 0.954232 0.124314 6.49289
0 0.954327 0.0935603 -0.0269369
0 0.954337 0.0930347 0.266731
0 0.954329 0.0940693 -0.775276
0 0.954328 0.0929177 0.257198
0 0.954351 0.0958258 -0.548883
0 0.954366 0.0940823 -0.568221
0 0.954362 0.121335 3.59553
0 0.954316 0.0930329 0.000736619
0 0.954299 0.0928328 -0.0685497
0 0.954269 0.122748 9.53676
0 0.954321 0.0928014 0.207336
0 0.954347 0.0945925 0.544841
0 0.954326 0.0930712 -0.439042
0 0.954367 0.0942703 -0.587181
0 0.954378 0.120571 -0.209091
0 0.954307 0.0931755 0.412024
0 0.954297 0.122926 4.54794
0 0.954332 0.0930861 0.0100502
0 0.954366 0.0932134 -0.389743
0 0.954384 0.121887 5.45602
0 0.954316 0.120887 6.88926
0 0.954371 0.12063 2.4555
VECTORS fa_u float
0.00725073 0.00290112 -0
0.00657787 0.00377989 -0
0.00299637 0.000815354 -0
0.00717787 0.00110826 -0
1e-08 0 0
0.00520979 0.00401383 -0
0.00264254 0.00256133 -0
1e-08 0 0
1e-08 0 0
0.00450158 0.00550907 -0
0.00518599 0.00871918 -0
0.00660887 0.00013195 -0
0.00622419 -0.000677135 0
1e-08 0 0
1e-08 0 0
1e-08 0 0
1e-08 0 0
1e-08 0 0
1e-08 0 0
1e-08 0 0
1e-08 0 0
0.00293626 0.00724124 -0
0.00159799 0.00626807 -0
1e-08 0 0
1e-08 0 0
1e-08 0 0
0.00881058 -0.00222985 0
1e-08 0 0
0.0107617 -0.0047008 0
1e-08 0 0
1e-08 0 0
1e-08 0 0
0.000851806 0.00726428 -0
1e-08 0 0
1e-08 0 0
1e-08 0 0
1e-08 0 0
1e-08 0 0
1e-08 0 0
1e-08 0 0
1e-08 0 0
1e-08 0 0
1e-08 0 0
-0.000165389 0.0076071 -0
1e-08 0 0
1e-08 0 0
1e-08 0 0
0.00567914 -0.00359974 0
1e-08 0 0
0.00278502 -0.00224325 0
1e-08 0 0
1e-08 0 0
1e-08 0 0
1e-08 0 0
1e-08 0 0
1e-08 0 0
1e-08 0 0
1e-08 0 0
1e-08 0 0
1e-08 0 0
1e-08 0 0
1e-08 0 0
1e-08 0 0
-0.00059807 0.00413878 0
1e-08 0 0
1e-08 0 0
1e-08 0 0
1e-08 0 0
1e-08 0 0
0.00324396 -0.00321094 0
1e-08 0 0
0.00285681 -0.00351178 0
1e-08 0 0
1e-08 0 0
1e-08 0 0
1e-08 0 0
1e-08 0 0
1e-08 0 0
1e-08 0 0
1e-08 0 0
1e-08 0 0
1e-08 0 0
1e-08 0 0
1e-08 0 0
1e-08 0 0
-0.00139531 0.0053666 0
1e-08 0 0
1e-08 0 0
1e-08 0 0
1e-08 0 0
1e-08 0 0
1e-08 0 0
0.0055682 -0.00915742 0
1e-08 0 0
1e-08 0 0
1e-08 0 0
1e-08 0 0
1e-08 0 0
0.00362495 -0.00896308 0
1e-08 0 0
1e-08 0 0
1e-08 0 0
1e-08 0 0
1e-08 0 0
1e-08 0 0
1e-08 0 0
1e-08 0 0
1e-08 0 0
1e-08 0 0
-0.00288937 0.00714882 0
1e-08 0 0
1e-08 0 0
1e-08 0 0
1e-08 0 0
1e-08 0 0
1e-08 0 0
1e-08 0 0
1e-08 0 0
1e-08 0 0
1e-08 0 0
1e-08 0 0
1e-08 0 0
1e-08 0 0
1e-08 0 0
0.00135346 -0.00539161 0
1e-08 0 0
1e-08 0 0
1e-08 0 0
1e-08 0 0
1e-08 0 0
1e-08 0 0
1e-08 0 0
1e-08 0 0
1e-08 0 0
-0.00369704 0.0064054 0
1e-08 0 0
1e-08 0 0
1e-08 0 0
1e-08 0 0
1e-08 0 0
1e-08 0 0
1e-08 0 0
1e-08 0 0
1e-08 0 0
1e-08 0 0
1e-08 0 0
1e-08 0 0
1e-08 0 0
1e-08 0 0
1e-08 0 0
0.000539671 -0.00394711 0
1e-08 0 0
1e-08 0 0
1e-08 0 0
1e-08 0 0
1e-08 0 0
1e-08 0 0
1e-08 0 0
1e-08 0 0
1e-08 0 0
1e-08 0 0
-0.00462756 0.00593992 0
1e-08 0 0
1e-08 0 0
1e-08 0 0
1e-08 0 0
1e-08 0 0
1e-08 0 0
1e-08 0 0
1e-08 0 0
1e-08 0 0
1e-08 0 0
1e-08 0 0
1e-08 0 0
0.000112439 -0.00767594 0
1e-08 0 0
1e-08 0 0
1e-08 0 0
1e-08 0 0
1e-08 0 0
1e-08 0 0
1e-08 0 0
1e-08 0 0
1e-08 0 0
1e-08 0 0
1e-08 0 0
1e-08 0 0
-0.00230909 0.00234759 0
1e-08 0 0
1e-08 0 0
1e-08 0 0
1e-08 0 0
1e-08 0 0
1e-08 0 0
1e-08 0 0
1e-08 0 0
1e-08 0 0
1e-08 0 0
1e-08 0 0
1e-08 0 0
1e-08 0 0
-0.000862825 -0.00698446 0
1e-08 0 0
1e-08 0 0
1e-08 0 0
1e-08 0 0
1e-08 0 0
1e-08 0 0
1e-08 0 0
1e-08 0 0
-0.00487405 0.00397739 0
1e-08 0 0
1e-08 0 0
1e-08 0 0
1e-08 0 0
1e-08 0 0
1e-08 0 0
1e-08 0 0
1e-08 0 0
1e-08 0 0
1e-08 0 0
1e-08 0 0
-0.00160009 -0.00615536 0
1e-08 0 0
1e-08 0 0
1e-08 0 0
1e-08 0 0
1e-08 0 0
1e-08 0 0
1e-08 0 0
-0.00853336 0.00512372 0
1e-08 0 0
1e-08 0 0
1e-08 0 0
1e-08 0 0
1e-08 0 0
1e-08 0 0
1e-08 0 0
1e-08 0 0
1e-08 0 0
1e-08 0 0
1e-08 0 0
-0.00300252 -0.00731226 0
1e-08 0 0
1e-08 0 0
1e-08 0 0
1e-08 0 0
1e-08 0 0
-0.00750958 0.00307514 0
1e-08 0 0
1e-08 0 0
1e-08 0 0
1e-08 0 0
1e-08 0 0
1e-08 0 0
1e-08 0 0
1e-08 0 0
-0.00498565 -0.0083244 0
1e-08 0 0
1e-08 0 0
1e-08 0 0
1e-08 0 0
-0.00620438 0.0015984 0
1e-08 0 0
1e-08 0 0
1e-08 0 0
1e-08 0 0
1e-08 0 0
1e-08 0 0
-0.00360412 -0.00446217 0
1e-08 0 0
1e-08 0 0
1e-08 0 0
-0.00716477 0.000862452 0
1e-08 0 0
1e-08 0 0
1e-08 0 0
1e-08 0 0
1e-08 0 0
1e-08 0 0
-0.00272598 -0.00270412 0
1e-08 0 0
1e-08 0 0
-0.00830129 -0.000175541 0
1e-08 0 0
1e-08 0 0
1e-08 0 0
1e-08 0 0
-0.00587003 -0.0045828 0
1e-08 0 0
-0.00371922 -0.000537812 0
1e-08 0 0
1e-08 0 0
-0.00670955 -0.00387058 0
-0.00547818 -0.00141265 0
-0.00710798 -0.00285997 0
