# vtk DataFile Version 2.0
CellBP Time: 0.68
ASCII
DATASET UNSTRUCTURED_GRID
POINTS 296 double
-9.18221 -3.7737 0
-8.60373 -4.94592 0
-9.60165 -2.53558 0
-9.85786 -1.25412 0
-8.35317 -2.81671 0
-7.87753 -6.03342 0
-7.01565 -7.01624 0
-7.91248 -3.87172 0
-7.33767 -4.8657 0
-6.03396 -7.87921 0
-4.9479 -8.60602 0
-9.94358 0.0496588 0
-9.859 1.35426 0
-8.65395 -1.682 0
-8.78293 -0.529386 0
-7.58571 -2.00208 0
-7.2215 -2.90368 0
-6.63361 -5.77712 0
-5.81927 -6.59535 0
-6.78586 -3.88592 0
-6.21715 -4.67244 0
-3.77558 -9.18492 0
-2.53705 -9.60432 0
-4.90382 -7.30715 0
-3.91254 -7.88402 0
-8.79003 0.643395 0
-9.60419 2.63679 0
-8.61958 1.77203 0
-9.18446 3.87506 0
-7.74032 -0.928986 0
-7.79109 0.0802833 0
-6.94902 -1.315 0
-1.25426 -9.85889 0
-6.43793 -2.15208 0
-6.31533 -3.05458 0
-5.5343 -5.47165 0
-4.79451 -6.11267 0
-5.65619 -3.75399 0
-5.266 -4.55925 0
-2.86674 -8.36161 0
-1.77915 -8.63729 0
-3.92767 -6.72114 0
-3.05527 -7.15137 0
0.050202 -9.94389 0
-7.7016 1.14289 0
-8.33657 2.91514 0
-7.54819 2.11033 0
-8.60538 5.04707 0
-7.87783 3.97712 0
-7.87733 6.13304 0
-6.7752 -0.396834 0
-6.95218 0.551711 0
-5.76909 -1.00335 0
-0.591962 -8.80684 0
0.564249 -8.76751 0
-5.30114 -2.47925 0
-4.48939 -5.09314 0
-3.90086 -5.77304 0
-4.43639 -3.804 0
-2.06125 -7.55986 0
-1.13346 -7.78367 0
-2.99341 -6.10097 0
-2.308 -6.61799 0
1.35413 -9.85763 0
-6.6861 1.42141 0
-7.1688 3.11579 0
-6.65609 2.372 0
-7.29251 4.98649 0
-6.71595 4.0012 0
-7.01608 7.11583 0
-6.57026 5.8919 0
-6.03367 7.97811 0
-4.45176 -1.18197 0
-5.81191 0.512426 0
-4.65472 -0.0106824 0
0.00947913 -7.84521 0
1.73687 -8.64049 0
0.949306 -7.76018 0
-4.03778 -2.40611 0
-3.48542 -1.39052 0
-3.29301 -4.80426 0
-3.26479 -3.26814 0
-1.37688 -6.67352 0
-0.507759 -7.02244 0
-1.97601 -5.53551 0
2.63631 -9.6029 0
-5.50592 2.0361 0
-6.09267 3.07015 0
-6.10322 4.86714 0
-5.75873 3.98929 0
-5.75862 6.71481 0
-5.45059 5.6169 0
-4.94773 8.70599 0
-4.83662 7.40046 0
-3.50058 -0.42378 0
-4.44823 1.24922 0
-3.7102 0.592274 0
-4.0618 2.31993 0
-3.7752 9.28398 0
2.86072 -8.32878 0
0.419855 -6.79262 0
2.02127 -7.52176 0
1.30572 -6.90244 0
-2.44357 -0.874046 0
-2.83847 -2.13186 0
-2.29436 -4.09686 0
-2.32568 -2.97347 0
-0.442314 -5.85987 0
-1.22259 -4.49835 0
3.87417 -9.18268 0
-4.78783 3.39062 0
-5.08538 4.59221 0
-4.64487 6.27779 0
-4.53717 5.3579 0
-3.84233 7.99072 0
-3.82468 6.84259 0
-2.78192 8.4192 0
-1.64855 -0.137777 0
-1.44974 -0.890673 0
-2.4881 0.507899 0
-3.25246 1.44522 0
-3.23766 3.31611 0
-2.91005 2.37299 0
-1.35444 0.627477 0
-2.53667 9.70263 0
3.92988 -7.88317 0
2.96299 -7.15323 0
0.952444 -5.81969 0
2.07185 -6.41213 0
-1.68323 -1.99309 0
-1.43468 -3.27833 0
0.0906238 -4.74637 0
-0.566295 -3.69446 0
4.92907 -7.31449 0
5.04655 -8.60442 0
-3.77537 4.55087 0
-3.73342 5.74989 0
-2.88564 7.28608 0
-3.00859 6.351 0
-1.66266 8.73073 0
-1.9378 7.61581 0
-2.33754 4.05144 0
-0.729811 -1.32734 0
-0.836545 -0.257493 0
-1.93542 1.68129 0
-2.12511 2.87634 0
-1.30593 3.54508 0
-0.868941 1.35172 0
-0.281829 0.456591 0
-0.53458 8.86842 0
-1.25447 9.95765 0
1.11148 -4.57373 0
3.9075 -6.71277 0
2.98608 -6.09134 0
2.11569 -5.42211 0
4.78155 -6.20205 0
-0.558088 -2.47793 0
0.495529 -3.46357 0
0.0543883 -1.61137 0
1.48131 -3.68162 0
5.86528 -6.61099 0
6.13333 -7.87779 0
-2.4746 5.34708 0
-2.12979 6.53076 0
-0.903055 7.8011 0
-1.27101 6.9298 0
0.0872015 7.87863 0
-1.1437 4.49391 0
0.150913 -0.618678 0
-0.797603 2.48965 0
-0.331303 3.6012 0
0.0631363 1.51388 0
0.741941 0.473528 0
0.646235 8.87115 0
0.0497808 10.0434 0
2.37923 -4.28349 0
3.85735 -5.63757 0
2.99876 -5.20998 0
5.57089 -5.48842 0
4.68848 -5.28019 0
0.629562 -2.29391 0
1.25637 -2.9512 0
0.75825 -1.39181 0
2.16309 -3.13509 0
2.99315 -3.47613 0
6.1535 -4.79024 0
6.65335 -5.76648 0
7.11608 -7.01572 0
-1.01927 5.81892 0
-0.37105 6.88162 0
1.12328 7.7681 0
0.558831 7.07736 0
0.000118551 4.72475 0
0.607326 3.8286 0
1.3394 -0.642433 0
0.539447 2.65218 0
0.965838 1.57544 0
1.91092 0.213569 0
1.61543 1.06459 0
2.13018 7.58235 0
1.79844 8.7106 0
1.35428 9.95811 0
3.8214 -4.34915 0
5.11475 -4.44676 0
5.84446 -3.93388 0
3.78224 -3.19943 0
1.8124 -1.88361 0
3.01879 -2.57328 0
6.78218 -3.9472 0
7.3798 -4.89655 0
7.9795 -6.03408 0
0.483388 5.88031 0
1.42855 6.74049 0
2.37365 6.66806 0
1.20985 4.55563 0
1.48822 3.39739 0
2.43564 -0.692002 0
2.82826 0.142026 0
1.78958 2.1638 0
2.61233 1.14995 0
3.07153 7.16916 0
2.9041 8.37521 0
2.63686 9.70305 0
4.9104 -3.327 0
6.11977 -3.10796 0
4.17256 -2.27553 0
3.24452 -1.50388 0
6.73059 -2.3123 0
7.23095 -3.04167 0
7.96455 -3.91216 0
8.70601 -4.94759 0
2.02351 5.59905 0
3.08562 6.15227 0
2.3636 4.12671 0
2.41995 3.06137 0
3.52487 -0.461802 0
3.61586 0.613536 0
2.96158 2.28845 0
3.5455 1.52591 0
4.01058 5.89665 0
3.98362 6.79217 0
3.97289 7.93792 0
3.87541 9.28423 0
5.56838 -1.91655 0
4.50916 -1.13023 0
6.71346 -1.33591 0
7.59248 -2.03633 0
8.3969 -2.86245 0
9.28457 -3.7753 0
3.41822 4.87656 0
3.33838 3.38506 0
4.69117 0.129526 0
4.51825 1.309 0
4.06372 2.44227 0
4.56875 5.15171 0
4.84232 6.18988 0
4.97962 7.37967 0
5.0476 8.70543 0
5.88306 -0.434782 0
7.00935 -0.488337 0
7.75853 -1.08442 0
8.68411 -1.7455 0
9.70402 -2.53673 0
4.55082 3.82736 0
5.81619 1.09727 0
5.36951 2.53429 0
5.37752 4.61952 0
5.61048 5.52219 0
5.89682 6.6717 0
6.13331 7.97817 0
6.84493 0.46238 0
7.85329 -0.0248602 0
8.85983 -0.583826 0
9.95881 -1.25415 0
6.95903 1.34791 0
5.71938 3.777 0
6.53985 2.19581 0
6.37848 3.08679 0
6.29037 4.68551 0
6.69081 5.83739 0
7.11625 7.11663 0
7.78391 0.966842 0
8.85931 0.572651 0
10.0447 0.0504087 0
7.61524 2.00308 0
6.82654 3.90313 0
7.26804 2.94574 0
7.37708 4.88413 0
7.97801 6.1335 0
8.72205 1.72661 0
9.95738 1.35427 0
8.41918 2.83703 0
7.97962 3.9159 0
8.7047 5.04672 0
9.70203 2.63629 0
9.28201 3.87402 0
CELLS 542 2168
3 2 0 4
3 0 1 7
3 4 0 7
3 1 5 8
3 7 1 8
3 3 2 13
3 13 2 4
3 11 3 14
3 14 3 13
3 13 4 15
3 4 7 16
3 15 4 16
3 5 6 17
3 8 5 17
3 6 9 18
3 17 6 18
3 7 8 19
3 16 7 19
3 8 17 20
3 19 8 20
3 9 10 23
3 18 9 23
3 10 21 24
3 23 10 24
3 12 11 25
3 25 11 14
3 26 12 27
3 27 12 25
3 14 13 29
3 29 13 15
3 25 14 30
3 30 14 29
3 29 15 31
3 15 16 33
3 31 15 33
3 16 19 34
3 33 16 34
3 17 18 35
3 20 17 35
3 18 23 36
3 35 18 36
3 19 20 37
3 34 19 37
3 20 35 38
3 37 20 38
3 21 22 39
3 24 21 39
3 22 32 40
3 39 22 40
3 23 24 41
3 36 23 41
3 24 39 42
3 41 24 42
3 27 25 44
3 44 25 30
3 28 26 45
3 45 26 27
3 45 27 46
3 46 27 44
3 47 28 48
3 48 28 45
3 30 29 50
3 50 29 31
3 44 30 51
3 51 30 50
3 50 31 52
3 31 33 52
3 32 43 53
3 40 32 53
3 53 43 54
3 33 34 55
3 34 37 55
3 33 55 52
3 35 36 56
3 38 35 56
3 36 41 57
3 56 36 57
3 37 38 58
3 38 56 58
3 37 58 55
3 39 40 59
3 42 39 59
3 40 53 60
3 59 40 60
3 41 42 61
3 57 41 61
3 42 59 62
3 61 42 62
3 43 63 54
3 46 44 64
3 64 44 51
3 48 45 65
3 65 45 46
3 65 46 66
3 66 46 64
3 49 47 67
3 67 47 48
3 67 48 68
3 68 48 65
3 69 49 70
3 70 49 67
3 52 55 72
3 64 51 73
3 51 50 73
3 50 52 73
3 73 52 74
3 74 52 72
3 53 54 75
3 60 53 75
3 54 63 76
3 54 76 77
3 75 54 77
3 55 58 78
3 72 55 78
3 72 78 79
3 56 57 80
3 57 61 80
3 56 80 58
3 58 80 81
3 78 58 81
3 59 60 82
3 62 59 82
3 60 75 83
3 82 60 83
3 61 62 84
3 62 82 84
3 61 84 80
3 63 85 76
3 66 64 86
3 64 73 86
3 68 65 87
3 87 65 66
3 87 66 86
3 70 67 88
3 88 67 68
3 88 68 89
3 89 68 87
3 71 69 90
3 90 69 70
3 90 70 91
3 91 70 88
3 92 71 93
3 93 71 90
3 74 72 94
3 94 72 79
3 86 73 95
3 95 73 74
3 95 74 96
3 96 74 94
3 97 86 95
3 76 85 99
3 75 77 100
3 83 75 100
3 76 99 101
3 77 76 101
3 77 101 102
3 100 77 102
3 94 79 103
3 78 81 104
3 79 78 104
3 79 104 103
3 80 84 105
3 81 80 105
3 81 105 106
3 104 81 106
3 82 83 107
3 83 100 107
3 82 107 84
3 84 107 108
3 105 84 108
3 85 109 99
3 89 87 110
3 87 86 110
3 110 86 97
3 91 88 111
3 111 88 89
3 111 89 110
3 93 90 112
3 112 90 91
3 112 91 113
3 113 91 111
3 98 92 114
3 114 92 93
3 114 93 115
3 115 93 112
3 116 98 114
3 117 103 118
3 96 94 119
3 94 103 119
3 119 103 117
3 97 95 120
3 120 95 96
3 120 96 119
3 121 110 97
3 121 97 122
3 122 97 120
3 123 119 117
3 124 98 116
3 99 109 125
3 99 125 126
3 101 99 126
3 100 102 127
3 100 127 107
3 101 126 128
3 102 101 128
3 102 128 127
3 104 106 129
3 104 129 103
3 103 129 118
3 105 108 130
3 106 105 130
3 106 130 129
3 107 127 131
3 108 107 131
3 108 131 132
3 108 132 130
3 109 134 125
3 125 134 133
3 113 111 135
3 111 110 135
3 135 110 121
3 115 112 136
3 136 112 113
3 136 113 135
3 116 114 137
3 137 114 115
3 137 115 138
3 138 115 136
3 139 124 116
3 139 116 140
3 140 116 137
3 141 135 121
3 118 129 142
3 118 142 143
3 117 118 143
3 123 117 143
3 122 120 144
3 120 119 144
3 144 119 123
3 141 121 145
3 145 121 122
3 145 122 144
3 146 141 145
3 147 144 123
3 147 123 148
3 143 148 123
3 150 124 139
3 149 150 139
3 131 127 151
3 125 133 152
3 126 125 152
3 126 152 153
3 128 126 153
3 128 153 154
3 128 154 127
3 127 154 151
3 152 133 155
3 130 132 156
3 130 156 129
3 129 156 142
3 131 151 157
3 132 131 157
3 132 157 156
3 156 158 142
3 157 151 159
3 133 160 155
3 134 161 133
3 133 161 160
3 138 136 162
3 136 135 162
3 162 135 141
3 140 137 163
3 163 137 138
3 163 138 162
3 149 139 164
3 164 139 140
3 164 140 165
3 165 140 163
3 166 149 164
3 167 162 141
3 167 141 146
3 142 158 168
3 143 142 168
3 143 168 148
3 146 145 169
3 145 144 169
3 169 144 147
3 170 167 146
3 170 146 169
3 171 169 147
3 171 147 148
3 171 148 172
3 168 172 148
3 173 149 166
3 174 150 149
3 173 174 149
3 154 175 151
3 151 175 159
3 152 155 176
3 153 152 176
3 153 176 177
3 153 177 154
3 154 177 175
3 155 160 178
3 155 178 179
3 176 155 179
3 156 157 180
3 156 180 158
3 157 159 181
3 157 181 180
3 158 180 182
3 158 182 168
3 159 175 183
3 159 183 181
3 175 184 183
3 160 186 178
3 178 186 185
3 161 187 160
3 160 187 186
3 165 163 188
3 163 162 188
3 188 162 167
3 166 164 189
3 189 164 165
3 189 165 188
3 190 173 166
3 190 166 191
3 191 166 189
3 192 188 167
3 192 167 170
3 193 192 170
3 182 194 168
3 194 172 168
3 193 170 195
3 170 169 195
3 195 169 171
3 196 195 171
3 196 171 172
3 194 197 172
3 197 198 172
3 198 196 172
3 200 173 190
3 199 200 190
3 201 174 173
3 200 201 173
3 176 179 202
3 177 176 202
3 177 202 175
3 175 202 184
3 178 185 203
3 178 203 179
3 179 203 202
3 203 185 204
3 202 205 184
3 183 206 181
3 180 181 206
3 180 206 182
3 182 206 194
3 183 184 207
3 205 207 184
3 183 207 206
3 185 208 204
3 186 209 185
3 185 209 208
3 187 210 186
3 186 210 209
3 191 189 211
3 189 188 211
3 211 188 192
3 199 190 212
3 212 190 191
3 212 191 211
3 213 199 212
3 214 211 192
3 214 192 193
3 215 214 193
3 215 193 195
3 206 216 194
3 216 197 194
3 216 217 197
3 215 195 218
3 218 195 196
3 198 218 196
3 217 219 197
3 219 218 198
3 197 219 198
3 220 199 213
3 221 200 199
3 220 221 199
3 222 201 200
3 221 222 200
3 203 204 223
3 203 223 202
3 202 223 205
3 204 208 224
3 204 224 223
3 205 223 225
3 205 225 207
3 207 225 226
3 207 226 206
3 226 216 206
3 208 228 224
3 224 228 227
3 209 229 208
3 229 228 208
3 210 230 209
3 209 230 229
3 213 212 231
3 212 211 231
3 231 211 214
3 232 220 213
3 232 213 231
3 233 231 214
3 233 214 215
3 234 233 215
3 234 215 218
3 226 235 216
3 235 217 216
3 235 236 217
3 217 236 219
3 237 234 218
3 237 218 219
3 236 238 219
3 238 237 219
3 240 220 232
3 239 240 232
3 241 221 220
3 240 241 220
3 242 222 221
3 241 242 221
3 224 227 243
3 224 243 223
3 223 243 225
3 225 243 244
3 225 244 226
3 226 244 235
3 227 245 243
3 228 246 227
3 227 246 245
3 229 247 228
3 228 247 246
3 230 248 229
3 229 248 247
3 239 232 249
3 232 231 249
3 249 231 233
3 250 249 233
3 250 233 234
3 237 250 234
3 244 251 235
3 235 251 236
3 251 252 236
3 236 252 238
3 252 253 238
3 253 250 237
3 253 237 238
3 254 239 249
3 255 240 239
3 254 255 239
3 256 241 240
3 255 256 240
3 257 242 241
3 256 257 241
3 245 258 243
3 243 258 244
3 244 258 251
3 245 259 258
3 246 260 245
3 245 260 259
3 247 261 246
3 246 261 260
3 248 262 247
3 247 262 261
3 254 249 263
3 263 249 250
3 253 263 250
3 258 264 251
3 251 264 252
3 264 265 252
3 265 263 253
3 252 265 253
3 266 254 263
3 267 255 254
3 266 267 254
3 268 256 255
3 267 268 255
3 269 257 256
3 268 269 256
3 259 270 258
3 270 264 258
3 260 271 259
3 259 271 270
3 261 272 260
3 260 272 271
3 262 273 261
3 273 272 261
3 270 274 264
3 275 266 263
3 275 263 265
3 274 276 264
3 276 265 264
3 276 277 265
3 277 275 265
3 278 267 266
3 275 278 266
3 279 268 267
3 278 279 267
3 280 269 268
3 279 280 268
3 271 281 270
3 270 281 274
3 272 282 271
3 271 282 281
3 273 283 272
3 272 283 282
3 281 284 274
3 274 284 276
3 285 278 275
3 277 285 275
3 284 286 276
3 286 285 277
3 276 286 277
3 287 279 278
3 285 287 278
3 288 280 279
3 287 288 279
3 282 289 281
3 281 289 284
3 283 290 282
3 282 290 289
3 289 291 284
3 284 291 286
3 291 292 286
3 292 287 285
3 286 292 285
3 293 288 287
3 292 293 287
3 290 294 289
3 289 294 291
3 294 295 291
3 295 293 292
3 291 295 292
CELL_TYPES 542
5
5
5
5
5
5
5
5
5
5
5
5
5
5
5
5
5
5
5
5
5
5
5
5
5
5
5
5
5
5
5
5
5
5
5
5
5
5
5
5
5
5
5
5
5
5
5
5
5
5
5
5
5
5
5
5
5
5
5
5
5
5
5
5
5
5
5
5
5
5
5
5
5
5
5
5
5
5
5
5
5
5
5
5
5
5
5
5
5
5
5
5
5
5
5
5
5
5
5
5
5
5
5
5
5
5
5
5
5
5
5
5
5
5
5
5
5
5
5
5
5
5
5
5
5
5
5
5
5
5
5
5
5
5
5
5
5
5
5
5
5
5
5
5
5
5
5
5
5
5
5
5
5
5
5
5
5
5
5
5
5
5
5
5
5
5
5
5
5
5
5
5
5
5
5
5
5
5
5
5
5
5
5
5
5
5
5
5
5
5
5
5
5
5
5
5
5
5
5
5
5
5
5
5
5
5
5
5
5
5
5
5
5
5
5
5
5
5
5
5
5
5
5
5
5
5
5
5
5
5
5
5
5
5
5
5
5
5
5
5
5
5
5
5
5
5
5
5
5
5
5
5
5
5
5
5
5
5
5
5
5
5
5
5
5
5
5
5
5
5
5
5
5
5
5
5
5
5
5
5
5
5
5
5
5
5
5
5
5
5
5
5
5
5
5
5
5
5
5
5
5
5
5
5
5
5
5
5
5
5
5
5
5
5
5
5
5
5
5
5
5
5
5
5
5
5
5
5
5
5
5
5
5
5
5
5
5
5
5
5
5
5
5
5
5
5
5
5
5
5
5
5
5
5
5
5
5
5
5
5
5
5
5
5
5
5
5
5
5
5
5
5
5
5
5
5
5
5
5
5
5
5
5
5
5
5
5
5
5
5
5
5
5
5
5
5
5
5
5
5
5
5
5
5
5
5
5
5
5
5
5
5
5
5
5
5
5
5
5
5
5
5
5
5
5
5
5
5
5
5
5
5
5
5
5
5
5
5
5
5
5
5
5
5
5
5
5
5
5
5
5
5
5
5
5
5
5
5
5
5
5
5
5
5
5
5
5
5
5
5
5
5
5
5
5
5
5
5
5
5
5
5
5
5
5
5
5
5
5
5
5
5
5
5
5
5
5
5
5
5
5
5
5
5
5
5
5
5
5
5
5
5
5
5
5
5
5
5
5
5
5
5
5
5
5
5
5
5
5
5
5
5
5
5
5
5
5
5
5
5
5
5
POINT_DATA 296
SCALARS concentrations float 4
LOOKUP_TABLE default
0 0.998778 0.134447 10.8778
0 0.998846 0.132986 9.00611
0 0.998763 0.13399 7.48915
0 0.998748 0.132073 9.3068
0 0.998738 0.0958753 -1.13043
0 0.998749 0.131668 7.98736
0 0.998722 0.134255 10.5877
0 0.998779 0.0963438 1.30687
0 0.998777 0.0947968 -0.698356
0 0.998728 0.131404 6.46744
0 0.998689 0.130936 8.71751
0 0.998743 0.133681 4.78245
0 0.998707 0.131896 15.2909
0 0.99874 0.0947063 -1.37888
0 0.998733 0.0943343 -1.28171
0 0.99871 0.0957199 -1.51075
0 0.998715 0.096934 -1.68674
0 0.998719 0.0942187 0.930814
0 0.998739 0.0941589 0.92565
0 0.998728 0.094759 -0.486945
0 0.998729 0.0956554 -1.24075
0 0.998699 0.135368 8.60444
0 0.998646 0.132991 10.9531
0 0.998721 0.0940768 0.558137
0 0.998722 0.0941628 -0.780439
0 0.998729 0.0946384 -0.402074
0 0.998717 0.132744 11.0494
0 0.998716 0.0947201 0.588309
0 0.998776 0.131172 2.21323
0 0.998716 0.0948176 -0.116123
0 0.998729 0.0965061 -0.378382
0 0.998732 0.0952782 -0.808114
0 0.99867 0.132846 6.31288
0 0.998731 0.0958464 -1.25336
0 0.99872 0.096235 0.828016
0 0.99874 0.0948066 -0.828319
0 0.998754 0.0943512 -0.766708
0 0.998721 0.0949607 -1.00567
0 0.998735 0.0943914 0.0501732
0 0.998707 0.0935404 -0.576696
0 0.998689 0.0933845 -0.485167
0 0.998748 0.0944906 -0.496949
0 0.998753 0.0942931 0.275276
0 0.998698 0.129719 3.96444
0 0.998742 0.0963285 -0.383085
0 0.998754 0.0950841 -0.874342
0 0.998739 0.0983197 0.448019
0 0.998749 0.133429 10.3902
0 0.998779 0.0947517 -1.29633
0 0.998702 0.132549 11.0586
0 0.998746 0.0946155 0.439853
0 0.998738 0.0957696 1.92486
0 0.998752 0.0957318 0.760627
0 0.998729 0.0936975 -0.12675
0 0.998723 0.0926816 -0.0304615
0 0.998735 0.0947096 -0.00444052
0 0.998738 0.0963978 -1.39959
0 0.998739 0.0959694 -1.46402
0 0.998724 0.0947033 0.837181
0 0.998743 0.0961667 -0.174372
0 0.998766 0.0946773 0.548169
0 0.998745 0.0959609 1.09392
0 0.998757 0.0953665 -0.87939
0 0.998686 0.131792 12.2607
0 0.998745 0.096033 -0.695354
0 0.998758 0.100738 -2.93469
0 0.99873 0.0962378 -0.708522
0 0.998739 0.0941706 -0.818569
0 0.998773 0.0953772 -1.11342
0 0.99867 0.13046 9.6415
0 0.998704 0.0938161 -0.523836
0 0.998709 0.133736 11.1096
0 0.99875 0.0952663 0.72615
0 0.998754 0.0949317 0.317735
0 0.998754 0.093886 0.159646
0 0.998768 0.0931047 -0.130699
0 0.99871 0.0930865 -0.067789
0 0.998755 0.0926314 -0.109915
0 0.998743 0.094964 0.021041
0 0.998771 0.0964591 -0.748551
0 0.998733 0.0969965 0.966628
0 0.99874 0.095106 0.346712
0 0.998762 0.097828 0.69274
0 0.998767 0.0935761 -0.117678
0 0.998762 0.094725 -0.652813
0 0.998684 0.133395 12.1268
0 0.99875 0.0963329 0.869253
0 0.998751 0.0961951 0.281102
0 0.998748 0.0941194 -0.467046
0 0.998761 0.0951127 1.00079
0 0.998705 0.0929803 0.410997
0 0.998737 0.0938599 -0.288849
0 0.998749 0.13211 2.21736
0 0.998749 0.0944522 0.273412
0 0.998768 0.0942002 -0.160477
0 0.998761 0.0946264 -0.685245
0 0.998761 0.0934901 0.0161137
0 0.99876 0.0949031 -0.637411
0 0.998713 0.132773 7.27753
0 0.998733 0.0934847 -0.469549
0 0.998754 0.0934527 -0.309665
0 0.998752 0.093002 -0.382755
0 0.998752 0.0940114 -0.0504369
0 0.998793 0.0941047 -0.358163
0 0.998768 0.0971926 -0.409898
0 0.998758 0.095458 -0.793253
0 0.998757 0.094279 -0.446079
0 0.99876 0.0933017 -0.230646
0 0.998761 0.0937204 0.0656663
0 0.998753 0.130176 3.01104
0 0.998751 0.093939 0.0300658
0 0.998748 0.0944476 0.650875
0 0.998749 0.0957705 -0.460483
0 0.998749 0.0933732 0.287868
0 0.998756 0.0943444 0.282932
0 0.99877 0.0946369 0.350012
0 0.99873 0.0933907 0.700097
0 0.998795 0.0933052 0.644819
0 0.998796 0.0930994 0.522742
0 0.998775 0.0958058 -0.398768
0 0.99877 0.0949259 -0.0620789
0 0.998756 0.0942169 -0.0022497
0 0.998779 0.0947479 1.18428
0 0.998779 0.0938062 1.13903
0 0.998714 0.130968 8.51964
0 0.998783 0.0935843 -0.254965
0 0.998759 0.0942159 -0.50009
0 0.998748 0.0934909 -0.764248
0 0.99875 0.0938541 -0.790993
0 0.998776 0.0939793 -0.081369
0 0.998758 0.0940852 -0.41119
0 0.998757 0.0934734 -0.638164
0 0.998762 0.0935223 -0.174967
0 0.998786 0.100543 1.41095
0 0.998809 0.132198 6.67152
0 0.998751 0.09406 0.76152
0 0.998756 0.0935945 0.340469
0 0.998767 0.0968652 0.12611
0 0.998758 0.0937513 0.357914
0 0.998747 0.092779 0.238865
0 0.99876 0.094414 -0.0349636
0 0.998755 0.0934187 0.981718
0 0.998773 0.0932561 0.698421
0 0.998787 0.0931773 1.07225
0 0.998778 0.10053 1.9987
0 0.998773 0.094785 0.802204
0 0.998764 0.0943767 0.767281
0 0.998764 0.0995627 1.47228
0 0.998775 0.0941877 1.2859
0 0.99875 0.0940462 0.1548
0 0.998744 0.131848 7.2345
0 0.998753 0.0945999 -0.969646
0 0.99876 0.0942448 -0.336031
0 0.998752 0.0945559 0.647439
0 0.998752 0.093812 -0.315851
0 0.998761 0.0935295 -0.400728
0 0.998777 0.0946041 -0.168604
0 0.998772 0.0940032 0.541952
0 0.99878 0.10235 -1.99105
0 0.998757 0.094433 -1.39831
0 0.998762 0.096189 -1.20321
0 0.998779 0.131553 8.66038
0 0.998754 0.0940035 0.732068
0 0.998756 0.0938986 -0.754408
0 0.998768 0.0931695 0.46303
0 0.998771 0.0940972 0.840482
0 0.998756 0.0940804 0.395247
0 0.99876 0.0943527 -0.556275
0 0.998781 0.0941643 -1.27904
0 0.998773 0.0961393 0.526667
0 0.998766 0.0953568 0.396868
0 0.998768 0.0943849 1.28219
0 0.998766 0.0932894 0.883534
0 0.998731 0.093904 -0.65076
0 0.998733 0.131426 5.14347
0 0.998757 0.0946442 0.991754
0 0.998755 0.0942361 -0.210071
0 0.99876 0.09365 0.454855
0 0.99877 0.0944669 0.533121
0 0.998755 0.0935915 -0.882306
0 0.998783 0.0947209 0.769185
0 0.998768 0.094288 1.30388
0 0.998785 0.0955889 1.43861
0 0.99876 0.0940738 0.541358
0 0.998759 0.0937536 -1.03593
0 0.998775 0.0943526 -0.868759
0 0.998767 0.0932425 -0.0463698
0 0.998748 0.132295 10.2231
0 0.998761 0.0936887 0.598562
0 0.998764 0.0950924 0.273334
0 0.998759 0.0946125 -0.420141
0 0.998754 0.0955123 -0.402615
0 0.998764 0.0950367 -0.334929
0 0.998764 0.0944974 0.86891
0 0.998768 0.0975569 -0.262287
0 0.998773 0.0940878 0.708199
0 0.998775 0.0949384 0.016756
0 0.998772 0.102416 1.06975
0 0.998774 0.0932025 -0.667125
0 0.998757 0.0956922 0.219969
0 0.998764 0.0947088 -0.786463
0 0.998723 0.132804 8.85576
0 0.998756 0.0934925 0.0687977
0 0.998758 0.0950862 -1.25208
0 0.998762 0.0946605 -0.800887
0 0.998755 0.0946266 1.00711
0 0.998766 0.094384 -0.461274
0 0.99876 0.0958103 1.95734
0 0.998769 0.0938137 -0.715704
0 0.998763 0.0934761 -0.536692
0 0.998762 0.131096 3.18794
0 0.998761 0.0950243 -0.0525216
0 0.998766 0.0972089 0.332534
0 0.998764 0.0984007 -0.594385
0 0.998762 0.0953865 -0.367984
0 0.998771 0.0944282 -0.505952
0 0.998765 0.0934656 0.321307
0 0.998792 0.0953432 -1.17043
0 0.998777 0.0943982 0.0250365
0 0.998786 0.0945842 0.890914
0 0.998757 0.101853 -0.92204
0 0.998791 0.0939861 -0.0743875
0 0.998794 0.130744 3.58757
0 0.998749 0.094596 -0.846089
0 0.998752 0.0945416 -0.957911
0 0.998748 0.0935929 -0.384005
0 0.998757 0.0941092 -0.459847
0 0.998749 0.0939228 0.263082
0 0.998755 0.0944158 0.629024
0 0.998765 0.0940324 0.581652
0 0.998743 0.131305 8.79982
0 0.998777 0.0982403 -0.45427
0 0.998783 0.098374 -2.82052
0 0.998757 0.0960466 0.166101
0 0.998761 0.0950401 -0.64402
0 0.99876 0.0939839 0.092698
0 0.99877 0.0955605 -0.341308
0 0.998761 0.0949436 -0.700375
0 0.998763 0.094097 0.59405
0 0.998758 0.0939021 -0.0903932
0 0.99877 0.0944091 0.188462
0 0.998772 0.094448 -0.475437
0 0.998794 0.133232 8.14177
0 0.998741 0.0948464 0.635245
0 0.998746 0.093605 -0.900709
0 0.998748 0.0991765 -1.54994
0 0.998752 0.0956422 -0.516099
0 0.998781 0.0935907 -0.412412
0 0.998804 0.131446 6.39045
0 0.998763 0.0948195 -0.306323
0 0.998745 0.0947516 -0.23157
0 0.998754 0.0955897 -1.16042
0 0.998758 0.093035 -0.467516
0 0.998746 0.0944431 -0.369356
0 0.998761 0.0975962 -1.2321
0 0.998763 0.0939815 0.034281
0 0.998758 0.0936161 -0.365807
0 0.998759 0.132737 6.04493
0 0.998744 0.0946171 0.0618764
0 0.998753 0.0954876 0.259482
0 0.998749 0.095309 0.436231
0 0.998746 0.0947426 -1.02435
0 0.998778 0.129871 7.93786
0 0.998748 0.0936505 -0.0228682
0 0.998757 0.0947325 -0.0266377
0 0.998752 0.101062 -0.349849
0 0.998772 0.0955884 0.340092
0 0.998784 0.0941719 0.119277
0 0.998768 0.0938417 0.00629957
0 0.998758 0.133041 9.48639
0 0.998747 0.0950898 -0.503711
0 0.998736 0.0947955 0.594534
0 0.998747 0.0949178 -1.15288
0 0.998749 0.13182 10.4636
0 0.998742 0.093773 -0.581721
0 0.998748 0.0950995 -0.523229
0 0.998763 0.0944899 -0.184119
0 0.99875 0.0956247 -0.868759
0 0.998781 0.0951322 0.161837
0 0.998784 0.0943565 0.223178
0 0.998769 0.131529 5.2939
0 0.998724 0.0940742 -0.616014
0 0.998744 0.094048 0.674113
0 0.998765 0.131913 4.05336
0 0.998741 0.0948775 -0.360612
0 0.998747 0.0946453 -0.153033
0 0.998747 0.0970841 -0.684283
0 0.998731 0.0957198 -0.608322
0 0.99874 0.130505 5.83265
0 0.998741 0.093403 0.224036
0 0.998754 0.131444 12.6734
0 0.99876 0.0945003 -0.149121
0 0.998724 0.0947723 -0.163669
0 0.998685 0.129008 8.52382
0 0.998771 0.132234 3.8512
0 0.998753 0.131778 13.0952
VECTORS fa_u float
0.0061165 0.00253233 -0
0.00560587 0.00323662 -0
0.00615566 0.0016507 -0
0.00655422 0.000866885 -0
1e-08 0 0
0.00520213 0.00399039 -0
0.00453954 0.0045341 -0
1e-08 0 0
1e-08 0 0
0.00400903 0.00521436 -0
0.00327839 0.00567036 -0
0.00648192 2.81894e-06 -0
0.00652121 -0.00085549 0
1e-08 0 0
1e-08 0 0
1e-08 0 0
1e-08 0 0
1e-08 0 0
1e-08 0 0
1e-08 0 0
1e-08 0 0
0.00254639 0.00614944 -0
0.00167813 0.0062778 -0
1e-08 0 0
1e-08 0 0
1e-08 0 0
0.00628628 -0.00168214 0
1e-08 0 0
0.00614315 -0.00254568 0
1e-08 0 0
1e-08 0 0
1e-08 0 0
0.000848926 0.00646815 -0
1e-08 0 0
1e-08 0 0
1e-08 0 0
1e-08 0 0
1e-08 0 0
1e-08 0 0
1e-08 0 0
1e-08 0 0
1e-08 0 0
1e-08 0 0
-3.17254e-06 0.00655343 -0
1e-08 0 0
1e-08 0 0
1e-08 0 0
0.00571905 -0.00331073 0
1e-08 0 0
0.00502972 -0.00386403 0
1e-08 0 0
1e-08 0 0
1e-08 0 0
1e-08 0 0
1e-08 0 0
1e-08 0 0
1e-08 0 0
1e-08 0 0
1e-08 0 0
1e-08 0 0
1e-08 0 0
1e-08 0 0
1e-08 0 0
-0.00084294 0.00639304 0
1e-08 0 0
1e-08 0 0
1e-08 0 0
1e-08 0 0
1e-08 0 0
0.00461656 -0.00461304 0
1e-08 0 0
0.003918 -0.00509621 0
1e-08 0 0
1e-08 0 0
1e-08 0 0
1e-08 0 0
1e-08 0 0
1e-08 0 0
1e-08 0 0
1e-08 0 0
1e-08 0 0
1e-08 0 0
1e-08 0 0
1e-08 0 0
1e-08 0 0
-0.00169603 0.00633239 0
1e-08 0 0
1e-08 0 0
1e-08 0 0
1e-08 0 0
1e-08 0 0
1e-08 0 0
0.00334974 -0.0057933 0
1e-08 0 0
1e-08 0 0
1e-08 0 0
1e-08 0 0
1e-08 0 0
0.00253725 -0.00613811 0
1e-08 0 0
1e-08 0 0
1e-08 0 0
1e-08 0 0
1e-08 0 0
1e-08 0 0
1e-08 0 0
1e-08 0 0
1e-08 0 0
1e-08 0 0
-0.00250147 0.00603829 0
1e-08 0 0
1e-08 0 0
1e-08 0 0
1e-08 0 0
1e-08 0 0
1e-08 0 0
1e-08 0 0
1e-08 0 0
1e-08 0 0
1e-08 0 0
1e-08 0 0
1e-08 0 0
1e-08 0 0
1e-08 0 0
0.00165363 -0.00618757 0
1e-08 0 0
1e-08 0 0
1e-08 0 0
1e-08 0 0
1e-08 0 0
1e-08 0 0
1e-08 0 0
1e-08 0 0
1e-08 0 0
-0.0032771 0.00567366 0
1e-08 0 0
1e-08 0 0
1e-08 0 0
1e-08 0 0
1e-08 0 0
1e-08 0 0
1e-08 0 0
1e-08 0 0
1e-08 0 0
1e-08 0 0
1e-08 0 0
1e-08 0 0
1e-08 0 0
1e-08 0 0
1e-08 0 0
0.000850216 -0.00645333 0
1e-08 0 0
1e-08 0 0
1e-08 0 0
1e-08 0 0
1e-08 0 0
1e-08 0 0
1e-08 0 0
1e-08 0 0
1e-08 0 0
1e-08 0 0
-0.00396648 0.00516697 0
1e-08 0 0
1e-08 0 0
1e-08 0 0
1e-08 0 0
1e-08 0 0
1e-08 0 0
1e-08 0 0
1e-08 0 0
1e-08 0 0
1e-08 0 0
1e-08 0 0
1e-08 0 0
1.16612e-06 -0.00653319 0
1e-08 0 0
1e-08 0 0
1e-08 0 0
1e-08 0 0
1e-08 0 0
1e-08 0 0
1e-08 0 0
1e-08 0 0
1e-08 0 0
1e-08 0 0
1e-08 0 0
1e-08 0 0
-0.00450272 0.00450875 0
1e-08 0 0
1e-08 0 0
1e-08 0 0
1e-08 0 0
1e-08 0 0
1e-08 0 0
1e-08 0 0
1e-08 0 0
1e-08 0 0
1e-08 0 0
1e-08 0 0
1e-08 0 0
1e-08 0 0
-0.000853216 -0.00648577 0
1e-08 0 0
1e-08 0 0
1e-08 0 0
1e-08 0 0
1e-08 0 0
1e-08 0 0
1e-08 0 0
1e-08 0 0
-0.00526687 0.00404907 0
1e-08 0 0
1e-08 0 0
1e-08 0 0
1e-08 0 0
1e-08 0 0
1e-08 0 0
1e-08 0 0
1e-08 0 0
1e-08 0 0
1e-08 0 0
1e-08 0 0
-0.00165731 -0.00620032 0
1e-08 0 0
1e-08 0 0
1e-08 0 0
1e-08 0 0
1e-08 0 0
1e-08 0 0
1e-08 0 0
-0.00565762 0.00326883 0
1e-08 0 0
1e-08 0 0
1e-08 0 0
1e-08 0 0
1e-08 0 0
1e-08 0 0
1e-08 0 0
1e-08 0 0
1e-08 0 0
1e-08 0 0
1e-08 0 0
-0.00256065 -0.00618781 0
1e-08 0 0
1e-08 0 0
1e-08 0 0
1e-08 0 0
1e-08 0 0
-0.00612762 0.0025366 0
1e-08 0 0
1e-08 0 0
1e-08 0 0
1e-08 0 0
1e-08 0 0
1e-08 0 0
1e-08 0 0
1e-08 0 0
-0.00330296 -0.00571011 0
1e-08 0 0
1e-08 0 0
1e-08 0 0
1e-08 0 0
-0.00626158 0.00167454 0
1e-08 0 0
1e-08 0 0
1e-08 0 0
1e-08 0 0
1e-08 0 0
1e-08 0 0
-0.00389248 -0.00506808 0
1e-08 0 0
1e-08 0 0
1e-08 0 0
-0.00641956 0.000845351 0
1e-08 0 0
1e-08 0 0
1e-08 0 0
1e-08 0 0
1e-08 0 0
1e-08 0 0
-0.00465437 -0.00465444 0
1e-08 0 0
1e-08 0 0
-0.00670284 -3.65641e-06 0
1e-08 0 0
1e-08 0 0
1e-08 0 0
1e-08 0 0
-0.00513452 -0.00394023 0
1e-08 0 0
-0.00636117 -0.000842958 0
1e-08 0 0
1e-08 0 0
-0.00574476 -0.00331544 0
-0.00627447 -0.00168176 0
-0.00598057 -0.0024745 0
