# vtk DataFile Version 2.0
CellBP Time: 10.88
ASCII
DATASET UNSTRUCTURED_GRID
POINTS 296 double
-8.92188 -3.65259 0
-8.36584 -4.80226 0
-9.3104 -2.43245 0
-9.58851 -1.20805 0
-8.07814 -2.70507 0
-7.65027 -5.86594 0
-6.80366 -6.82759 0
-7.64067 -3.72364 0
-7.07979 -4.69496 0
-5.88276 -7.69481 0
-4.85836 -8.42718 0
-9.69763 0.0378254 0
-9.6441 1.31109 0
-8.3988 -1.61925 0
-8.55639 -0.504424 0
-7.3278 -1.9105 0
-6.95455 -2.77311 0
-6.42798 -5.61111 0
-5.6618 -6.42951 0
-6.52772 -3.73307 0
-5.99492 -4.51705 0
-3.71127 -8.99057 0
-2.48466 -9.38809 0
-4.79094 -7.14693 0
-3.84392 -7.73131 0
-8.57334 0.629461 0
-9.4262 2.58749 0
-8.43119 1.72697 0
-9.01719 3.80115 0
-7.50291 -0.881355 0
-7.57315 0.0893951 0
-6.72096 -1.24824 0
-1.21398 -9.62425 0
-6.22951 -2.06216 0
-6.0965 -2.93254 0
-5.35885 -5.31606 0
-4.662 -5.96152 0
-5.46327 -3.62396 0
-5.08143 -4.42054 0
-2.81577 -8.19194 0
-1.74324 -8.4504 0
-3.83496 -6.57839 0
-3.0088 -7.01047 0
0.0558433 -9.68265 0
-7.50062 1.11454 0
-8.18014 2.85513 0
-7.36465 2.04734 0
-8.40236 4.91781 0
-7.69173 3.87446 0
-7.64285 5.94989 0
-6.57274 -0.366514 0
-6.75418 0.549007 0
-5.61091 -0.9672 0
-0.580921 -8.59679 0
0.54253 -8.52668 0
-5.14873 -2.39643 0
-4.3375 -4.95404 0
-3.78834 -5.63369 0
-4.30881 -3.7 0
-2.02342 -7.40144 0
-1.114 -7.61063 0
-2.92562 -5.96715 0
-2.26729 -6.48078 0
1.30781 -9.56397 0
-6.50838 1.38094 0
-6.97949 3.02136 0
-6.48568 2.30224 0
-7.09556 4.84304 0
-6.53559 3.88082 0
-6.80225 6.8948 0
-6.38239 5.71733 0
-5.86114 7.75109 0
-4.36988 -1.16549 0
-5.67282 0.490409 0
-4.56773 -0.0284467 0
-0.00619621 -7.64242 0
1.67939 -8.37712 0
0.900682 -7.53347 0
-3.95486 -2.35106 0
-3.45243 -1.37936 0
-3.21227 -4.6967 0
-3.21201 -3.20326 0
-1.36367 -6.51935 0
-0.520083 -6.84385 0
-1.94494 -5.42559 0
2.55458 -9.31835 0
-5.37394 1.9885 0
-5.93459 2.97717 0
-5.93615 4.71712 0
-5.6022 3.85956 0
-5.58872 6.51228 0
-5.298 5.44184 0
-4.83667 8.50379 0
-4.69594 7.17597 0
-3.457 -0.418987 0
-4.35707 1.22345 0
-3.64606 0.584711 0
-3.97672 2.29243 0
-3.70127 9.07098 0
2.75257 -8.04464 0
0.370743 -6.59048 0
1.9273 -7.27155 0
1.23033 -6.68126 0
-2.42299 -0.861426 0
-2.80939 -2.10267 0
-2.26139 -4.0177 0
-2.29675 -2.92349 0
-0.451594 -5.71218 0
-1.19941 -4.41587 0
3.76433 -8.92759 0
-4.66546 3.29821 0
-4.94565 4.44572 0
-4.51128 6.07503 0
-4.41068 5.18767 0
-3.74477 7.7762 0
-3.70361 6.6168 0
-2.70628 8.18025 0
-1.63438 -0.121879 0
-1.43346 -0.872198 0
-2.46851 0.517951 0
-3.19992 1.43439 0
-3.1702 3.25773 0
-2.8624 2.35732 0
-1.34829 0.638338 0
-2.48176 9.45364 0
3.78612 -7.61532 0
2.83046 -6.88494 0
0.894838 -5.64844 0
1.97528 -6.1875 0
-1.66053 -1.97292 0
-1.41345 -3.22974 0
0.0776721 -4.63939 0
-0.551705 -3.63534 0
4.76581 -7.05924 0
4.90532 -8.37104 0
-3.68078 4.42765 0
-3.62995 5.57762 0
-2.79221 7.05651 0
-2.9222 6.15653 0
-1.6195 8.50077 0
-1.87594 7.40106 0
-2.29613 3.97146 0
-0.72031 -1.31416 0
-0.829322 -0.243225 0
-1.92942 1.69402 0
-2.10121 2.85263 0
-1.29676 3.50278 0
-0.872499 1.36187 0
-0.285275 0.464656 0
-0.521879 8.65209 0
-1.22325 9.68879 0
1.06636 -4.45103 0
3.74221 -6.43724 0
2.86031 -5.8607 0
2.02876 -5.2423 0
4.61715 -5.96028 0
-0.547001 -2.45358 0
0.488025 -3.40687 0
0.0612207 -1.60005 0
1.44149 -3.59047 0
5.68773 -6.38631 0
5.96598 -7.65714 0
-2.41226 5.20542 0
-2.05912 6.34179 0
-0.869466 7.60499 0
-1.2187 6.738 0
0.0928019 7.69749 0
-1.12464 4.41133 0
0.148136 -0.611498 0
-0.810247 2.49415 0
-0.345689 3.57059 0
0.051619 1.5166 0
0.730836 0.474001 0
0.628213 8.68082 0
0.0416912 9.79941 0
2.30073 -4.15202 0
3.71778 -5.42103 0
2.89322 -5.02575 0
5.41575 -5.30129 0
4.53857 -5.07213 0
0.634091 -2.2815 0
1.23848 -2.90296 0
0.759946 -1.38714 0
2.11529 -3.06367 0
2.91781 -3.37841 0
6.001 -4.6414 0
6.48024 -5.59595 0
6.91876 -6.79984 0
-0.987832 5.67847 0
-0.342655 6.71006 0
1.10201 7.60945 0
0.563591 6.91979 0
-0.00343318 4.65059 0
0.591321 3.78125 0
1.33136 -0.64158 0
0.521003 2.63629 0
0.9492 1.57685 0
1.89036 0.207893 0
1.59595 1.05991 0
2.09574 7.4346 0
1.76648 8.5325 0
1.32136 9.72967 0
3.71152 -4.19877 0
4.97512 -4.27971 0
5.70588 -3.80528 0
3.69782 -3.10588 0
1.79568 -1.87654 0
2.9641 -2.5232 0
6.63434 -3.83922 0
7.2123 -4.77204 0
7.78397 -5.87163 0
0.479943 5.75984 0
1.40946 6.60315 0
2.33728 6.54322 0
1.18794 4.48493 0
1.46113 3.35061 0
2.40575 -0.690184 0
2.78924 0.1381 0
1.76464 2.14941 0
2.5876 1.13851 0
3.02165 7.03655 0
2.85786 8.21084 0
2.58753 9.48681 0
4.79758 -3.2205 0
5.99057 -3.02214 0
4.09417 -2.22703 0
3.1953 -1.48926 0
6.60643 -2.27234 0
7.0952 -2.98007 0
7.81228 -3.83829 0
8.52081 -4.8493 0
1.9936 5.49828 0
3.0066 6.0262 0
2.33231 4.05907 0
2.38875 3.01712 0
3.47438 -0.451933 0
3.56593 0.614437 0
2.92388 2.25555 0
3.48225 1.50328 0
3.89522 5.76142 0
3.8917 6.64992 0
3.90585 7.78259 0
3.81095 9.08452 0
5.46838 -1.87805 0
4.43512 -1.10634 0
6.58369 -1.3099 0
7.44563 -1.99798 0
8.23123 -2.80926 0
9.08886 -3.70724 0
3.32023 4.76814 0
3.26458 3.31395 0
4.60813 0.13346 0
4.41599 1.27703 0
3.96045 2.38155 0
4.41266 5.0143 0
4.7036 6.04456 0
4.86642 7.21437 0
4.95233 8.51608 0
5.75531 -0.436031 0
6.85171 -0.487151 0
7.60301 -1.05795 0
8.50506 -1.70427 0
9.48883 -2.48143 0
4.40776 3.72109 0
5.65851 1.05206 0
5.20062 2.44882 0
5.1834 4.47706 0
5.42573 5.37331 0
5.74058 6.49857 0
5.9756 7.78407 0
6.66317 0.426558 0
7.66859 -0.0315087 0
8.66351 -0.558625 0
9.72878 -1.21249 0
6.7548 1.28296 0
5.51274 3.65207 0
6.32434 2.09968 0
6.1492 2.96601 0
6.061 4.53285 0
6.48062 5.6641 0
6.91071 6.92674 0
7.5734 0.927517 0
8.63026 0.559395 0
9.792 0.0632789 0
7.38237 1.92329 0
6.55905 3.74879 0
7.0104 2.82476 0
7.14016 4.7293 0
7.76806 5.97474 0
8.4739 1.67346 0
9.66928 1.31513 0
8.13973 2.73831 0
7.72447 3.78924 0
8.48284 4.91687 0
9.42655 2.56419 0
9.03753 3.77438 0
CELLS 542 2168
3 2 0 4
3 0 1 7
3 4 0 7
3 1 5 8
3 7 1 8
3 3 2 13
3 13 2 4
3 11 3 14
3 14 3 13
3 13 4 15
3 4 7 16
3 15 4 16
3 5 6 17
3 8 5 17
3 6 9 18
3 17 6 18
3 7 8 19
3 16 7 19
3 8 17 20
3 19 8 20
3 9 10 23
3 18 9 23
3 10 21 24
3 23 10 24
3 12 11 25
3 25 11 14
3 26 12 27
3 27 12 25
3 14 13 29
3 29 13 15
3 25 14 30
3 30 14 29
3 29 15 31
3 15 16 33
3 31 15 33
3 16 19 34
3 33 16 34
3 17 18 35
3 20 17 35
3 18 23 36
3 35 18 36
3 19 20 37
3 34 19 37
3 20 35 38
3 37 20 38
3 21 22 39
3 24 21 39
3 22 32 40
3 39 22 40
3 23 24 41
3 36 23 41
3 24 39 42
3 41 24 42
3 27 25 44
3 44 25 30
3 28 26 45
3 45 26 27
3 45 27 46
3 46 27 44
3 47 28 48
3 48 28 45
3 30 29 50
3 50 29 31
3 44 30 51
3 51 30 50
3 50 31 52
3 31 33 52
3 32 43 53
3 40 32 53
3 53 43 54
3 33 34 55
3 34 37 55
3 33 55 52
3 35 36 56
3 38 35 56
3 36 41 57
3 56 36 57
3 37 38 58
3 38 56 58
3 37 58 55
3 39 40 59
3 42 39 59
3 40 53 60
3 59 40 60
3 41 42 61
3 57 41 61
3 42 59 62
3 61 42 62
3 43 63 54
3 46 44 64
3 64 44 51
3 48 45 65
3 65 45 46
3 65 46 66
3 66 46 64
3 49 47 67
3 67 47 48
3 67 48 68
3 68 48 65
3 69 49 70
3 70 49 67
3 52 55 72
3 64 51 73
3 51 50 73
3 50 52 73
3 73 52 74
3 74 52 72
3 53 54 75
3 60 53 75
3 54 63 76
3 54 76 77
3 75 54 77
3 55 58 78
3 72 55 78
3 72 78 79
3 56 57 80
3 57 61 80
3 56 80 58
3 58 80 81
3 78 58 81
3 59 60 82
3 62 59 82
3 60 75 83
3 82 60 83
3 61 62 84
3 62 82 84
3 61 84 80
3 63 85 76
3 66 64 86
3 64 73 86
3 68 65 87
3 87 65 66
3 87 66 86
3 70 67 88
3 88 67 68
3 88 68 89
3 89 68 87
3 71 69 90
3 90 69 70
3 90 70 91
3 91 70 88
3 92 71 93
3 93 71 90
3 74 72 94
3 94 72 79
3 86 73 95
3 95 73 74
3 95 74 96
3 96 74 94
3 97 86 95
3 76 85 99
3 75 77 100
3 83 75 100
3 76 99 101
3 77 76 101
3 77 101 102
3 100 77 102
3 94 79 103
3 78 81 104
3 79 78 104
3 79 104 103
3 80 84 105
3 81 80 105
3 81 105 106
3 104 81 106
3 82 83 107
3 83 100 107
3 82 107 84
3 84 107 108
3 105 84 108
3 85 109 99
3 89 87 110
3 87 86 110
3 110 86 97
3 91 88 111
3 111 88 89
3 111 89 110
3 93 90 112
3 112 90 91
3 112 91 113
3 113 91 111
3 98 92 114
3 114 92 93
3 114 93 115
3 115 93 112
3 116 98 114
3 117 103 118
3 96 94 119
3 94 103 119
3 119 103 117
3 97 95 120
3 120 95 96
3 120 96 119
3 121 110 97
3 121 97 122
3 122 97 120
3 123 119 117
3 124 98 116
3 99 109 125
3 99 125 126
3 101 99 126
3 100 102 127
3 100 127 107
3 101 126 128
3 102 101 128
3 102 128 127
3 104 106 129
3 104 129 103
3 103 129 118
3 105 108 130
3 106 105 130
3 106 130 129
3 107 127 131
3 108 107 131
3 108 131 132
3 108 132 130
3 109 134 125
3 125 134 133
3 113 111 135
3 111 110 135
3 135 110 121
3 115 112 136
3 136 112 113
3 136 113 135
3 116 114 137
3 137 114 115
3 137 115 138
3 138 115 136
3 139 124 116
3 139 116 140
3 140 116 137
3 141 135 121
3 118 129 142
3 118 142 143
3 117 118 143
3 123 117 143
3 122 120 144
3 120 119 144
3 144 119 123
3 141 121 145
3 145 121 122
3 145 122 144
3 146 141 145
3 147 144 123
3 147 123 148
3 143 148 123
3 150 124 139
3 149 150 139
3 131 127 151
3 125 133 152
3 126 125 152
3 126 152 153
3 128 126 153
3 128 153 154
3 128 154 127
3 127 154 151
3 152 133 155
3 130 132 156
3 130 156 129
3 129 156 142
3 131 151 157
3 132 131 157
3 132 157 156
3 156 158 142
3 157 151 159
3 133 160 155
3 134 161 133
3 133 161 160
3 138 136 162
3 136 135 162
3 162 135 141
3 140 137 163
3 163 137 138
3 163 138 162
3 149 139 164
3 164 139 140
3 164 140 165
3 165 140 163
3 166 149 164
3 167 162 141
3 167 141 146
3 142 158 168
3 143 142 168
3 143 168 148
3 146 145 169
3 145 144 169
3 169 144 147
3 170 167 146
3 170 146 169
3 171 169 147
3 171 147 148
3 171 148 172
3 168 172 148
3 173 149 166
3 174 150 149
3 173 174 149
3 154 175 151
3 151 175 159
3 152 155 176
3 153 152 176
3 153 176 177
3 153 177 154
3 154 177 175
3 155 160 178
3 155 178 179
3 176 155 179
3 156 157 180
3 156 180 158
3 157 159 181
3 157 181 180
3 158 180 182
3 158 182 168
3 159 175 183
3 159 183 181
3 175 184 183
3 160 186 178
3 178 186 185
3 161 187 160
3 160 187 186
3 165 163 188
3 163 162 188
3 188 162 167
3 166 164 189
3 189 164 165
3 189 165 188
3 190 173 166
3 190 166 191
3 191 166 189
3 192 188 167
3 192 167 170
3 193 192 170
3 182 194 168
3 194 172 168
3 193 170 195
3 170 169 195
3 195 169 171
3 196 195 171
3 196 171 172
3 194 197 172
3 197 198 172
3 198 196 172
3 200 173 190
3 199 200 190
3 201 174 173
3 200 201 173
3 176 179 202
3 177 176 202
3 177 202 175
3 175 202 184
3 178 185 203
3 178 203 179
3 179 203 202
3 203 185 204
3 202 205 184
3 183 206 181
3 180 181 206
3 180 206 182
3 182 206 194
3 183 184 207
3 205 207 184
3 183 207 206
3 185 208 204
3 186 209 185
3 185 209 208
3 187 210 186
3 186 210 209
3 191 189 211
3 189 188 211
3 211 188 192
3 199 190 212
3 212 190 191
3 212 191 211
3 213 199 212
3 214 211 192
3 214 192 193
3 215 214 193
3 215 193 195
3 206 216 194
3 216 197 194
3 216 217 197
3 215 195 218
3 218 195 196
3 198 218 196
3 217 219 197
3 219 218 198
3 197 219 198
3 220 199 213
3 221 200 199
3 220 221 199
3 222 201 200
3 221 222 200
3 203 204 223
3 203 223 202
3 202 223 205
3 204 208 224
3 204 224 223
3 205 223 225
3 205 225 207
3 207 225 226
3 207 226 206
3 226 216 206
3 208 228 224
3 224 228 227
3 209 229 208
3 229 228 208
3 210 230 209
3 209 230 229
3 213 212 231
3 212 211 231
3 231 211 214
3 232 220 213
3 232 213 231
3 233 231 214
3 233 214 215
3 234 233 215
3 234 215 218
3 226 235 216
3 235 217 216
3 235 236 217
3 217 236 219
3 237 234 218
3 237 218 219
3 236 238 219
3 238 237 219
3 240 220 232
3 239 240 232
3 241 221 220
3 240 241 220
3 242 222 221
3 241 242 221
3 224 227 243
3 224 243 223
3 223 243 225
3 225 243 244
3 225 244 226
3 226 244 235
3 227 245 243
3 228 246 227
3 227 246 245
3 229 247 228
3 228 247 246
3 230 248 229
3 229 248 247
3 239 232 249
3 232 231 249
3 249 231 233
3 250 249 233
3 250 233 234
3 237 250 234
3 244 251 235
3 235 251 236
3 251 252 236
3 236 252 238
3 252 253 238
3 253 250 237
3 253 237 238
3 254 239 249
3 255 240 239
3 254 255 239
3 256 241 240
3 255 256 240
3 257 242 241
3 256 257 241
3 245 258 243
3 243 258 244
3 244 258 251
3 245 259 258
3 246 260 245
3 245 260 259
3 247 261 246
3 246 261 260
3 248 262 247
3 247 262 261
3 254 249 263
3 263 249 250
3 253 263 250
3 258 264 251
3 251 264 252
3 264 265 252
3 265 263 253
3 252 265 253
3 266 254 263
3 267 255 254
3 266 267 254
3 268 256 255
3 267 268 255
3 269 257 256
3 268 269 256
3 259 270 258
3 270 264 258
3 260 271 259
3 259 271 270
3 261 272 260
3 260 272 271
3 262 273 261
3 273 272 261
3 270 274 264
3 275 266 263
3 275 263 265
3 274 276 264
3 276 265 264
3 276 277 265
3 277 275 265
3 278 267 266
3 275 278 266
3 279 268 267
3 278 279 267
3 280 269 268
3 279 280 268
3 271 281 270
3 270 281 274
3 272 282 271
3 271 282 281
3 273 283 272
3 272 283 282
3 281 284 274
3 274 284 276
3 285 278 275
3 277 285 275
3 284 286 276
3 286 285 277
3 276 286 277
3 287 279 278
3 285 287 278
3 288 280 279
3 287 288 279
3 282 289 281
3 281 289 284
3 283 290 282
3 282 290 289
3 289 291 284
3 284 291 286
3 291 292 286
3 292 287 285
3 286 292 285
3 293 288 287
3 292 293 287
3 290 294 289
3 289 294 291
3 294 295 291
3 295 293 292
3 291 295 292
CELL_TYPES 542
5
5
5
5
5
5
5
5
5
5
5
5
5
5
5
5
5
5
5
5
5
5
5
5
5
5
5
5
5
5
5
5
5
5
5
5
5
5
5
5
5
5
5
5
5
5
5
5
5
5
5
5
5
5
5
5
5
5
5
5
5
5
5
5
5
5
5
5
5
5
5
5
5
5
5
5
5
5
5
5
5
5
5
5
5
5
5
5
5
5
5
5
5
5
5
5
5
5
5
5
5
5
5
5
5
5
5
5
5
5
5
5
5
5
5
5
5
5
5
5
5
5
5
5
5
5
5
5
5
5
5
5
5
5
5
5
5
5
5
5
5
5
5
5
5
5
5
5
5
5
5
5
5
5
5
5
5
5
5
5
5
5
5
5
5
5
5
5
5
5
5
5
5
5
5
5
5
5
5
5
5
5
5
5
5
5
5
5
5
5
5
5
5
5
5
5
5
5
5
5
5
5
5
5
5
5
5
5
5
5
5
5
5
5
5
5
5
5
5
5
5
5
5
5
5
5
5
5
5
5
5
5
5
5
5
5
5
5
5
5
5
5
5
5
5
5
5
5
5
5
5
5
5
5
5
5
5
5
5
5
5
5
5
5
5
5
5
5
5
5
5
5
5
5
5
5
5
5
5
5
5
5
5
5
5
5
5
5
5
5
5
5
5
5
5
5
5
5
5
5
5
5
5
5
5
5
5
5
5
5
5
5
5
5
5
5
5
5
5
5
5
5
5
5
5
5
5
5
5
5
5
5
5
5
5
5
5
5
5
5
5
5
5
5
5
5
5
5
5
5
5
5
5
5
5
5
5
5
5
5
5
5
5
5
5
5
5
5
5
5
5
5
5
5
5
5
5
5
5
5
5
5
5
5
5
5
5
5
5
5
5
5
5
5
5
5
5
5
5
5
5
5
5
5
5
5
5
5
5
5
5
5
5
5
5
5
5
5
5
5
5
5
5
5
5
5
5
5
5
5
5
5
5
5
5
5
5
5
5
5
5
5
5
5
5
5
5
5
5
5
5
5
5
5
5
5
5
5
5
5
5
5
5
5
5
5
5
5
5
5
5
5
5
5
5
5
5
5
5
5
5
5
5
5
5
5
5
5
5
5
5
5
5
5
5
5
5
5
5
5
5
5
5
5
5
5
5
5
5
5
5
5
5
5
5
5
5
5
5
5
5
5
5
5
5
5
5
5
5
5
5
5
5
5
5
5
5
5
5
5
5
5
POINT_DATA 296
SCALARS concentrations float 4
LOOKUP_TABLE default
0 0.948967 0.107766 -2.2844
0 0.949047 0.110977 0.462038
0 0.948934 0.108595 3.58802
0 0.948903 0.104511 0.896435
0 0.948945 0.0930929 -0.295852
0 0.949055 0.109146 1.69712
0 0.948948 0.106724 0.777121
0 0.948978 0.0935087 0.778096
0 0.949026 0.0937608 -0.152849
0 0.948913 0.107392 -0.785677
0 0.948856 0.115621 6.92702
0 0.94893 0.107109 2.27596
0 0.948949 0.107043 2.02136
0 0.948915 0.092595 0.143445
0 0.948912 0.0921697 0.16385
0 0.948922 0.0932607 -0.664579
0 0.948938 0.0937742 0.0360322
0 0.948971 0.0932498 -0.783909
0 0.948914 0.0932456 -0.656295
0 0.948948 0.0949642 0.405845
0 0.948941 0.0936163 -0.572187
0 0.94884 0.107295 -0.959342
0 0.948889 0.111045 5.57134
0 0.948893 0.0937747 -0.962399
0 0.948851 0.0940347 -0.444427
0 0.948935 0.0920355 0.288665
0 0.948974 0.105953 -1.53519
0 0.948948 0.0922172 0.199062
0 0.948973 0.106255 -0.0781129
0 0.948912 0.0926133 0.325541
0 0.948918 0.0923629 -0.0484859
0 0.948913 0.0930265 -0.534263
0 0.948883 0.108093 1.32152
0 0.94892 0.0934274 -0.653125
0 0.948925 0.0935163 0.0636513
0 0.948918 0.0942229 -0.377822
0 0.9489 0.0938068 -0.886445
0 0.948923 0.0941781 -1.01308
0 0.948917 0.0946754 -1.11172
0 0.948882 0.093887 -0.0590896
0 0.948896 0.0941232 -0.160514
0 0.948887 0.0940413 -0.786289
0 0.948887 0.0938719 -0.18221
0 0.948894 0.109182 1.45807
0 0.948928 0.0924001 -0.363325
0 0.948965 0.0924631 0.238232
0 0.948933 0.0925669 -0.524518
0 0.948946 0.104732 0.231839
0 0.948946 0.0923676 0.416248
0 0.948945 0.10646 2.02969
0 0.948914 0.0930227 0.450539
0 0.948919 0.0925807 -0.33811
0 0.94892 0.0931696 0.286695
0 0.948899 0.0939393 -0.520566
0 0.948907 0.0934714 -0.659342
0 0.948922 0.0939105 0.580018
0 0.948912 0.0964177 2.6665
0 0.948906 0.0953565 -0.145365
0 0.948919 0.0958735 2.08971
0 0.948906 0.0947086 -0.783095
0 0.948918 0.0957406 0.478994
0 0.948906 0.0971224 2.87038
0 0.948912 0.0952143 -0.096234
0 0.948898 0.108346 3.12475
0 0.948918 0.0931972 -0.661346
0 0.948933 0.0924701 0.0351301
0 0.948914 0.0929357 -0.651316
0 0.948941 0.0921323 0.187517
0 0.948928 0.0924212 -0.405227
0 0.948964 0.108467 0.85989
0 0.948945 0.0919717 0.154036
0 0.948991 0.112444 2.10111
0 0.948925 0.0939339 0.0132898
0 0.948921 0.0931474 -0.516523
0 0.948927 0.0936825 0.305309
0 0.948914 0.0949601 1.31786
0 0.94889 0.0938489 1.13817
0 0.948904 0.093645 0.710857
0 0.948924 0.0951595 1.31681
0 0.948926 0.0960825 0.801062
0 0.948917 0.0950858 -0.206818
0 0.94892 0.0943854 1.00068
0 0.948924 0.0952634 0.661895
0 0.948916 0.097009 1.49007
0 0.948921 0.0948736 -0.0767659
0 0.948879 0.109038 4.36525
0 0.948915 0.0938572 -0.530455
0 0.948914 0.0930511 0.570185
0 0.948929 0.092738 0.586304
0 0.948918 0.0930582 0.589982
0 0.948962 0.0927871 0.555001
0 0.948932 0.0923677 -0.304003
0 0.94897 0.106768 1.09138
0 0.948964 0.0929719 -0.495249
0 0.948927 0.0943273 -0.524305
0 0.948926 0.0936483 0.624976
0 0.948929 0.093223 -0.282727
0 0.948919 0.0927542 0.614455
0 0.948911 0.104479 1.71334
0 0.948898 0.0951232 -1.16565
0 0.948906 0.093909 0.990346
0 0.948907 0.0941551 -1.64691
0 0.948909 0.0947032 -1.59736
0 0.948927 0.0945965 0.375178
0 0.948927 0.0944044 -0.118149
0 0.948919 0.095089 1.90277
0 0.948921 0.0946135 0.249646
0 0.948918 0.095611 -1.64273
0 0.948922 0.0937853 0.0982678
0 0.948909 0.105393 -2.51718
0 0.948915 0.0922895 -0.14765
0 0.94892 0.0924923 0.403634
0 0.948933 0.0927542 0.443033
0 0.94892 0.0922477 0.199222
0 0.948936 0.0935429 1.01471
0 0.948929 0.0929363 0.776751
0 0.948908 0.0920774 0.0641563
0 0.948929 0.093648 -0.434381
0 0.948918 0.0942263 0.256767
0 0.948929 0.094565 -0.872311
0 0.948921 0.0936372 -0.886715
0 0.948919 0.0932488 0.527074
0 0.94892 0.0928801 -0.389428
0 0.948929 0.0940878 -0.872244
0 0.948903 0.111356 4.31375
0 0.948923 0.0941702 -0.157548
0 0.948919 0.095116 -1.65231
0 0.948922 0.0964024 -1.14991
0 0.948921 0.0954737 -1.81474
0 0.948926 0.0948667 -0.0321061
0 0.948926 0.0941462 0.0892492
0 0.948923 0.0947523 -0.922148
0 0.948927 0.0949117 -0.236706
0 0.948935 0.0943347 1.27291
0 0.948935 0.102264 1.32158
0 0.948916 0.0921983 0.119078
0 0.948917 0.0927303 0.426765
0 0.948922 0.0934743 1.00297
0 0.948915 0.0933485 0.959352
0 0.948917 0.091807 -0.0922317
0 0.948915 0.0919363 0.307981
0 0.948916 0.0937648 0.989094
0 0.948927 0.0945131 0.281368
0 0.948927 0.0939948 0.0780047
0 0.948924 0.0930761 0.505947
0 0.948923 0.093965 0.791284
0 0.948919 0.0928532 0.417694
0 0.948932 0.0936401 -0.10033
0 0.948932 0.0943901 -0.832448
0 0.948914 0.0923687 0.34799
0 0.948923 0.106049 0.319293
0 0.948926 0.0949446 0.601539
0 0.948939 0.0945675 -1.31835
0 0.948936 0.0938897 -0.95265
0 0.948933 0.094357 1.29471
0 0.948931 0.0954676 -0.538683
0 0.948922 0.0970514 -0.980044
0 0.948913 0.0939815 0.0422539
0 0.948926 0.0949667 0.900649
0 0.948911 0.0949705 -0.272818
0 0.9489 0.0940055 0.626892
0 0.948908 0.108458 2.51216
0 0.948913 0.0932272 0.816033
0 0.948915 0.0932099 0.834509
0 0.948912 0.0918302 0.0546517
0 0.948915 0.0931147 -0.540413
0 0.948907 0.0921388 0.161062
0 0.948913 0.0930588 0.44069
0 0.948927 0.0946759 -0.679222
0 0.94893 0.094006 0.632605
0 0.948917 0.0931207 0.473326
0 0.948938 0.0929604 -0.0139829
0 0.948918 0.0947925 -1.05375
0 0.948916 0.093022 0.535824
0 0.948925 0.108195 2.84634
0 0.948923 0.0939317 -0.704883
0 0.948938 0.0949811 -0.915068
0 0.948931 0.0956859 1.15258
0 0.948916 0.094038 1.18332
0 0.948913 0.0934166 -0.170636
0 0.948908 0.0960512 -0.991915
0 0.948909 0.0965209 -0.943371
0 0.948923 0.0953008 -0.87409
0 0.948927 0.0950328 -0.0767924
0 0.948926 0.0938883 0.0877078
0 0.948933 0.0947239 -1.71255
0 0.948919 0.0934199 -1.22992
0 0.948883 0.103199 2.54644
0 0.948914 0.0929158 0.425194
0 0.948912 0.0932393 -0.541399
0 0.9489 0.0936134 0.634692
0 0.948906 0.0931065 -0.237609
0 0.948916 0.0923879 -0.147586
0 0.948922 0.0934536 0.64656
0 0.948915 0.0952196 -0.336493
0 0.948925 0.095121 1.22158
0 0.948931 0.0953504 0.993345
0 0.948909 0.0954501 -0.627629
0 0.948918 0.0946276 0.879132
0 0.948892 0.0936247 -0.545529
0 0.948891 0.0929306 0.411342
0 0.948917 0.108582 5.45871
0 0.948922 0.09437 1.12776
0 0.948929 0.0948964 -1.08797
0 0.948945 0.0962793 1.47138
0 0.948921 0.0932399 0.0926873
0 0.948919 0.0981408 1.908
0 0.948926 0.094744 0.85409
0 0.948939 0.0947801 -1.44756
0 0.948967 0.0939137 -1.54346
0 0.948966 0.104702 2.75079
0 0.948914 0.0939535 -1.14233
0 0.94891 0.0929018 -0.404394
0 0.948901 0.093611 0.821044
0 0.948919 0.0948527 -0.97164
0 0.94892 0.0934226 0.0806055
0 0.948922 0.0938015 0.000984083
0 0.948917 0.0942585 1.20236
0 0.948921 0.0964036 -1.52641
0 0.948918 0.0966177 -1.48137
0 0.948881 0.093285 -0.869125
0 0.948872 0.0925795 0.452752
0 0.948869 0.105429 2.11057
0 0.948928 0.09601 1.47651
0 0.948942 0.0936449 0.625019
0 0.948924 0.0934547 0.206491
0 0.948927 0.095079 0.631169
0 0.948941 0.0940264 1.19647
0 0.948933 0.0939794 0.289634
0 0.94894 0.0947074 -1.586
0 0.948983 0.111859 0.833555
0 0.948907 0.0941776 -1.07352
0 0.948894 0.0941707 -0.933162
0 0.948907 0.0942649 -0.0442708
0 0.948911 0.0953173 1.25493
0 0.948931 0.0936894 1.21298
0 0.948915 0.0953125 1.96018
0 0.948923 0.0943108 0.510037
0 0.948918 0.0938405 -0.094978
0 0.948898 0.0934714 0.00948146
0 0.948889 0.093594 0.217601
0 0.948882 0.092825 0.0324121
0 0.948871 0.106728 3.28738
0 0.948932 0.0963822 -1.93922
0 0.948931 0.0952697 -1.22197
0 0.948927 0.0954947 -0.419931
0 0.948917 0.0937272 0.152081
0 0.948904 0.094499 -1.47026
0 0.948909 0.105662 0.815291
0 0.948897 0.0944824 0.831584
0 0.948903 0.0936732 -0.769935
0 0.948922 0.0943144 1.31032
0 0.94891 0.0954466 1.27896
0 0.948903 0.0938393 -0.0326818
0 0.948898 0.0937875 -1.40738
0 0.948905 0.093388 0.286748
0 0.948918 0.0928178 0.205284
0 0.948903 0.104434 1.57994
0 0.948917 0.0956033 1.94904
0 0.948905 0.0943521 1.46741
0 0.948908 0.0954259 1.04248
0 0.948897 0.0942347 -1.36654
0 0.948884 0.105776 1.39047
0 0.948898 0.092804 -0.443638
0 0.94891 0.0940932 -0.684948
0 0.948908 0.0952135 0.994079
0 0.948896 0.0945565 1.36313
0 0.9489 0.0928607 -0.872792
0 0.948937 0.0931338 0.0963579
0 0.948967 0.111391 2.31493
0 0.948902 0.0946638 1.06606
0 0.948909 0.0946613 0.802341
0 0.948934 0.0940074 -1.34396
0 0.94893 0.108697 2.58387
0 0.948892 0.0942804 0.651241
0 0.9489 0.0933208 -0.439783
0 0.948907 0.0937281 -0.205588
0 0.948911 0.0938036 1.35701
0 0.948893 0.0929789 -0.840096
0 0.948898 0.0933598 0.317374
0 0.948932 0.106493 2.56557
0 0.948899 0.093876 0.457945
0 0.948912 0.092413 -0.23168
0 0.948944 0.112416 2.6195
0 0.948898 0.0936708 0.13866
0 0.948907 0.094037 0.000431615
0 0.948915 0.0944646 0.265237
0 0.948903 0.0938568 0.692211
0 0.94889 0.106924 4.54635
0 0.948899 0.0925146 -0.542786
0 0.9489 0.109431 0.483848
0 0.948912 0.0929188 0.630575
0 0.948946 0.0936487 0.0621117
0 0.948943 0.106282 0.470298
0 0.948897 0.104845 2.04709
0 0.948948 0.104825 1.28166
VECTORS fa_u float
0.00731463 0.00291547 -0
0.00677517 0.00389244 -0
0.00273908 0.000746957 -0
0.00726229 0.00113841 -0
1e-08 0 0
0.0051769 0.00399304 -0
0.00246671 0.00238395 -0
1e-08 0 0
1e-08 0 0
0.00454912 0.00553231 -0
0.00540986 0.00906605 -0
0.00660395 0.000145734 -0
0.00622891 -0.000663121 0
1e-08 0 0
1e-08 0 0
1e-08 0 0
1e-08 0 0
1e-08 0 0
1e-08 0 0
1e-08 0 0
1e-08 0 0
0.00298215 0.00736668 -0
0.00159535 0.00628717 -0
1e-08 0 0
1e-08 0 0
1e-08 0 0
0.00911153 -0.00229397 0
1e-08 0 0
0.0113084 -0.0049684 0
1e-08 0 0
1e-08 0 0
1e-08 0 0
0.000849773 0.00732907 -0
1e-08 0 0
1e-08 0 0
1e-08 0 0
1e-08 0 0
1e-08 0 0
1e-08 0 0
1e-08 0 0
1e-08 0 0
1e-08 0 0
1e-08 0 0
-0.000185706 0.00776859 -0
1e-08 0 0
1e-08 0 0
1e-08 0 0
0.00564558 -0.00361093 0
1e-08 0 0
0.00261439 -0.002116 0
1e-08 0 0
1e-08 0 0
1e-08 0 0
1e-08 0 0
1e-08 0 0
1e-08 0 0
1e-08 0 0
1e-08 0 0
1e-08 0 0
1e-08 0 0
1e-08 0 0
1e-08 0 0
1e-08 0 0
-0.000569435 0.00390577 0
1e-08 0 0
1e-08 0 0
1e-08 0 0
1e-08 0 0
1e-08 0 0
0.00311275 -0.00307908 0
1e-08 0 0
0.0027177 -0.00332002 0
1e-08 0 0
1e-08 0 0
1e-08 0 0
1e-08 0 0
1e-08 0 0
1e-08 0 0
1e-08 0 0
1e-08 0 0
1e-08 0 0
1e-08 0 0
1e-08 0 0
1e-08 0 0
1e-08 0 0
-0.00136772 0.0052796 0
1e-08 0 0
1e-08 0 0
1e-08 0 0
1e-08 0 0
1e-08 0 0
1e-08 0 0
0.00592098 -0.00968905 0
1e-08 0 0
1e-08 0 0
1e-08 0 0
1e-08 0 0
1e-08 0 0
0.00370396 -0.00918292 0
1e-08 0 0
1e-08 0 0
1e-08 0 0
1e-08 0 0
1e-08 0 0
1e-08 0 0
1e-08 0 0
1e-08 0 0
1e-08 0 0
1e-08 0 0
-0.00292871 0.00726759 0
1e-08 0 0
1e-08 0 0
1e-08 0 0
1e-08 0 0
1e-08 0 0
1e-08 0 0
1e-08 0 0
1e-08 0 0
1e-08 0 0
1e-08 0 0
1e-08 0 0
1e-08 0 0
1e-08 0 0
1e-08 0 0
0.00134274 -0.00538573 0
1e-08 0 0
1e-08 0 0
1e-08 0 0
1e-08 0 0
1e-08 0 0
1e-08 0 0
1e-08 0 0
1e-08 0 0
1e-08 0 0
-0.00375352 0.00650469 0
1e-08 0 0
1e-08 0 0
1e-08 0 0
1e-08 0 0
1e-08 0 0
1e-08 0 0
1e-08 0 0
1e-08 0 0
1e-08 0 0
1e-08 0 0
1e-08 0 0
1e-08 0 0
1e-08 0 0
1e-08 0 0
1e-08 0 0
0.000504854 -0.00368453 0
1e-08 0 0
1e-08 0 0
1e-08 0 0
1e-08 0 0
1e-08 0 0
1e-08 0 0
1e-08 0 0
1e-08 0 0
1e-08 0 0
1e-08 0 0
-0.00470841 0.00603364 0
1e-08 0 0
1e-08 0 0
1e-08 0 0
1e-08 0 0
1e-08 0 0
1e-08 0 0
1e-08 0 0
1e-08 0 0
1e-08 0 0
1e-08 0 0
1e-08 0 0
1e-08 0 0
0.000125855 -0.0078333 0
1e-08 0 0
1e-08 0 0
1e-08 0 0
1e-08 0 0
1e-08 0 0
1e-08 0 0
1e-08 0 0
1e-08 0 0
1e-08 0 0
1e-08 0 0
1e-08 0 0
1e-08 0 0
-0.00211493 0.00215341 0
1e-08 0 0
1e-08 0 0
1e-08 0 0
1e-08 0 0
1e-08 0 0
1e-08 0 0
1e-08 0 0
1e-08 0 0
1e-08 0 0
1e-08 0 0
1e-08 0 0
1e-08 0 0
1e-08 0 0
-0.00086142 -0.00701559 0
1e-08 0 0
1e-08 0 0
1e-08 0 0
1e-08 0 0
1e-08 0 0
1e-08 0 0
1e-08 0 0
1e-08 0 0
-0.00481777 0.00395701 0
1e-08 0 0
1e-08 0 0
1e-08 0 0
1e-08 0 0
1e-08 0 0
1e-08 0 0
1e-08 0 0
1e-08 0 0
1e-08 0 0
1e-08 0 0
1e-08 0 0
-0.00159405 -0.00615132 0
1e-08 0 0
1e-08 0 0
1e-08 0 0
1e-08 0 0
1e-08 0 0
1e-08 0 0
1e-08 0 0
-0.0089182 0.00537669 0
1e-08 0 0
1e-08 0 0
1e-08 0 0
1e-08 0 0
1e-08 0 0
1e-08 0 0
1e-08 0 0
1e-08 0 0
1e-08 0 0
1e-08 0 0
1e-08 0 0
-0.00307503 -0.00749108 0
1e-08 0 0
1e-08 0 0
1e-08 0 0
1e-08 0 0
1e-08 0 0
-0.00767497 0.00313767 0
1e-08 0 0
1e-08 0 0
1e-08 0 0
1e-08 0 0
1e-08 0 0
1e-08 0 0
1e-08 0 0
1e-08 0 0
-0.00510558 -0.00849848 0
1e-08 0 0
1e-08 0 0
1e-08 0 0
1e-08 0 0
-0.00617738 0.00158455 0
1e-08 0 0
1e-08 0 0
1e-08 0 0
1e-08 0 0
1e-08 0 0
1e-08 0 0
-0.00364477 -0.00449106 0
1e-08 0 0
1e-08 0 0
1e-08 0 0
-0.00726678 0.000865736 0
1e-08 0 0
1e-08 0 0
1e-08 0 0
1e-08 0 0
1e-08 0 0
1e-08 0 0
-0.00254245 -0.00251874 0
1e-08 0 0
1e-08 0 0
-0.00850907 -0.000200308 0
1e-08 0 0
1e-08 0 0
1e-08 0 0
1e-08 0 0
-0.00591951 -0.00463029 0
1e-08 0 0
-0.00346573 -0.000506442 0
1e-08 0 0
1e-08 0 0
-0.00685141 -0.00395281 0
-0.00538312 -0.00138287 0
-0.00722741 -0.00289904 0
