# vtk DataFile Version 2.0
CellBP Time: 6.4
ASCII
DATASET UNSTRUCTURED_GRID
POINTS 296 double
-8.97563 -3.67757 0
-8.41497 -4.83248 0
-9.3698 -2.45372 0
-9.64393 -1.21827 0
-8.1308 -2.72566 0
-7.69755 -5.90081 0
-6.8476 -6.86701 0
-7.69136 -3.75132 0
-7.12895 -4.72701 0
-5.9151 -7.73368 0
-4.8787 -8.46512 0
-9.74848 0.0390469 0
-9.68932 1.31912 0
-8.44675 -1.62966 0
-8.60236 -0.508094 0
-7.37471 -1.92692 0
-7.00409 -2.79783 0
-6.46636 -5.64492 0
-5.69479 -6.46303 0
-6.576 -3.76023 0
-6.03715 -4.5454 0
-3.72597 -9.03157 0
-2.49589 -9.43322 0
-4.81313 -7.18172 0
-3.85855 -7.76248 0
-8.61658 0.629965 0
-9.46447 2.59751 0
-8.46791 1.73456 0
-9.05328 3.81663 0
-7.5496 -0.889467 0
-7.61237 0.0883572 0
-6.76414 -1.26075 0
-1.22244 -9.67323 0
-6.26807 -2.0782 0
-6.13916 -2.95781 0
-5.39104 -5.34878 0
-4.68445 -5.99311 0
-5.49851 -3.65124 0
-5.11694 -4.44654 0
-2.82626 -8.22665 0
-1.75162 -8.48807 0
-3.8528 -6.60609 0
-3.01748 -7.03795 0
0.0545832 -9.73618 0
-7.53629 1.11867 0
-8.20779 2.86738 0
-7.39583 2.05686 0
-8.44439 4.94421 0
-7.72965 3.89371 0
-7.68989 5.98677 0
-6.60992 -0.372465 0
-6.78869 0.549178 0
-5.64189 -0.974346 0
-0.582312 -8.63844 0
0.54542 -8.57626 0
-5.17637 -2.41227 0
-4.36812 -4.97903 0
-3.81024 -5.66064 0
-4.33244 -3.71983 0
-2.03009 -7.43298 0
-1.11839 -7.64381 0
-2.93808 -5.98891 0
-2.27645 -6.50755 0
1.31675 -9.62316 0
-6.54161 1.38611 0
-7.01359 3.0372 0
-6.51588 2.31426 0
-7.13466 4.86938 0
-6.57134 3.9019 0
-6.84554 6.93914 0
-6.42107 5.75292 0
-5.89656 7.79697 0
-4.38354 -1.16804 0
-5.69712 0.493916 0
-4.58485 -0.0259222 0
-0.00338798 -7.678 0
1.6877 -8.42679 0
0.91001 -7.57521 0
-3.97108 -2.36126 0
-3.45995 -1.38069 0
-3.22729 -4.71353 0
-3.22411 -3.21517 0
-1.3684 -6.54745 0
-0.518981 -6.87726 0
-1.95059 -5.44496 0
2.57082 -9.37574 0
-5.39866 1.99748 0
-5.96163 2.99458 0
-5.97156 4.74568 0
-5.63143 3.88389 0
-5.62081 6.55086 0
-5.32675 5.47467 0
-4.85959 8.54579 0
-4.72016 7.21676 0
-3.46514 -0.419679 0
-4.37435 1.22993 0
-3.65948 0.586043 0
-3.99121 2.29576 0
-3.71696 9.11541 0
2.77094 -8.09649 0
0.379301 -6.63016 0
1.94366 -7.31788 0
1.24205 -6.72143 0
-2.42785 -0.864223 0
-2.81471 -2.11073 0
-2.2684 -4.03408 0
-2.30064 -2.93243 0
-0.450249 -5.73946 0
-1.20462 -4.43021 0
3.78609 -8.97908 0
-4.68816 3.31625 0
-4.97292 4.47381 0
-4.53728 6.11223 0
-4.43486 5.22032 0
-3.76336 7.81689 0
-3.72783 6.65693 0
-2.71853 8.22411 0
-1.63744 -0.125633 0
-1.43818 -0.87777 0
-2.47324 0.51655 0
-3.20954 1.43578 0
-3.18396 3.26825 0
-2.87071 2.3602 0
-1.3499 0.637263 0
-2.49308 9.50523 0
3.81259 -7.66304 0
2.85341 -6.93158 0
0.906371 -5.68096 0
1.99141 -6.22815 0
-1.66486 -1.97742 0
-1.41669 -3.23808 0
0.0803502 -4.66026 0
-0.556727 -3.64534 0
4.79479 -7.10691 0
4.93359 -8.41842 0
-3.69576 4.4505 0
-3.64756 5.60737 0
-2.8086 7.09862 0
-2.93814 6.19357 0
-1.6266 8.5459 0
-1.88756 7.44021 0
-2.30362 3.98521 0
-0.721599 -1.3185 0
-0.831549 -0.246511 0
-1.93055 1.69115 0
-2.10505 2.85815 0
-1.29749 3.51118 0
-0.871893 1.36017 0
-0.285137 0.463469 0
-0.52495 8.6942 0
-1.22949 9.74414 0
1.07399 -4.47404 0
3.77364 -6.48744 0
2.88435 -5.90449 0
2.04572 -5.27405 0
4.64675 -6.0055 0
-0.549273 -2.45779 0
0.490413 -3.41816 0
0.0587107 -1.60306 0
1.44805 -3.60625 0
5.72079 -6.43108 0
5.99943 -7.70149 0
-2.42369 5.23247 0
-2.07182 6.3767 0
-0.876061 7.64116 0
-1.22706 6.77305 0
0.0934483 7.73349 0
-1.12956 4.42733 0
0.148808 -0.61132 0
-0.80697 2.49406 0
-0.342852 3.57741 0
0.0540411 1.51523 0
0.734834 0.475228 0
0.631959 8.71812 0
0.0433884 9.85063 0
2.31413 -4.17595 0
3.74261 -5.45798 0
2.91213 -5.05857 0
5.44348 -5.33372 0
4.56696 -5.10947 0
0.631092 -2.28424 0
1.24044 -2.911 0
0.758313 -1.38844 0
2.12242 -3.07574 0
2.93162 -3.39667 0
6.03176 -4.6719 0
6.51452 -5.63141 0
6.95867 -6.84315 0
-0.993239 5.70569 0
-0.348197 6.74218 0
1.1069 7.64035 0
0.56344 6.94795 0
-0.00308935 4.66589 0
0.595594 3.79188 0
1.33215 -0.642194 0
0.524275 2.64086 0
0.951957 1.57657 0
1.89522 0.208703 0
1.6009 1.06083 0
2.10082 7.4638 0
1.77282 8.56834 0
1.32851 9.77819 0
3.73207 -4.22718 0
5.00068 -4.31029 0
5.73494 -3.83189 0
3.7116 -3.1213 0
1.79876 -1.87664 0
2.97377 -2.53115 0
6.66383 -3.86115 0
7.24657 -4.79865 0
7.82374 -5.9042 0
0.481788 5.78215 0
1.41305 6.62952 0
2.34386 6.56718 0
1.19155 4.49854 0
1.46807 3.36051 0
2.412 -0.690188 0
2.79908 0.140513 0
1.76921 2.1513 0
2.59312 1.14179 0
3.03188 7.06081 0
2.86639 8.24314 0
2.59893 9.53288 0
4.81813 -3.23821 0
6.01468 -3.03656 0
4.10913 -2.23663 0
3.20447 -1.49033 0
6.6287 -2.27694 0
7.12171 -2.9911 0
7.84209 -3.85191 0
8.55913 -4.86945 0
2.00096 5.51777 0
3.0222 6.04918 0
2.33719 4.07184 0
2.39608 3.02489 0
3.4834 -0.453908 0
3.57598 0.613083 0
2.92919 2.26299 0
3.49617 1.50842 0
3.91709 5.78754 0
3.91043 6.67821 0
3.91991 7.81621 0
3.82582 9.12721 0
5.48642 -1.88424 0
4.44894 -1.11157 0
6.60594 -1.31303 0
7.47442 -2.00428 0
8.26215 -2.8173 0
9.12968 -3.72112 0
3.33871 4.78762 0
3.27945 3.3291 0
4.62428 0.134281 0
4.43633 1.28411 0
3.98008 2.39384 0
4.44386 5.04045 0
4.73026 6.07249 0
4.89071 7.24386 0
4.97389 8.55651 0
5.77954 -0.436171 0
6.88247 -0.485866 0
7.63252 -1.06071 0
8.5403 -1.71429 0
9.53399 -2.49225 0
4.43397 3.74264 0
5.68886 1.05839 0
5.23038 2.46581 0
5.21907 4.50464 0
5.4637 5.40119 0
5.77069 6.5346 0
6.00928 7.82428 0
6.69574 0.43597 0
7.70385 -0.0271927 0
8.70195 -0.565059 0
9.77691 -1.21994 0
6.79219 1.29552 0
5.55043 3.67583 0
6.36583 2.11883 0
6.19128 2.99087 0
6.10582 4.56274 0
6.52124 5.70125 0
6.95342 6.96581 0
7.61581 0.934668 0
8.6767 0.563161 0
9.84483 0.0616968 0
7.42383 1.93913 0
6.60842 3.77803 0
7.05902 2.84757 0
7.18429 4.76042 0
7.81204 6.00775 0
8.51808 1.68506 0
9.7287 1.32355 0
8.19464 2.75629 0
7.77389 3.81337 0
8.52918 4.94346 0
9.48368 2.57932 0
9.08844 3.79512 0
CELLS 542 2168
3 2 0 4
3 0 1 7
3 4 0 7
3 1 5 8
3 7 1 8
3 3 2 13
3 13 2 4
3 11 3 14
3 14 3 13
3 13 4 15
3 4 7 16
3 15 4 16
3 5 6 17
3 8 5 17
3 6 9 18
3 17 6 18
3 7 8 19
3 16 7 19
3 8 17 20
3 19 8 20
3 9 10 23
3 18 9 23
3 10 21 24
3 23 10 24
3 12 11 25
3 25 11 14
3 26 12 27
3 27 12 25
3 14 13 29
3 29 13 15
3 25 14 30
3 30 14 29
3 29 15 31
3 15 16 33
3 31 15 33
3 16 19 34
3 33 16 34
3 17 18 35
3 20 17 35
3 18 23 36
3 35 18 36
3 19 20 37
3 34 19 37
3 20 35 38
3 37 20 38
3 21 22 39
3 24 21 39
3 22 32 40
3 39 22 40
3 23 24 41
3 36 23 41
3 24 39 42
3 41 24 42
3 27 25 44
3 44 25 30
3 28 26 45
3 45 26 27
3 45 27 46
3 46 27 44
3 47 28 48
3 48 28 45
3 30 29 50
3 50 29 31
3 44 30 51
3 51 30 50
3 50 31 52
3 31 33 52
3 32 43 53
3 40 32 53
3 53 43 54
3 33 34 55
3 34 37 55
3 33 55 52
3 35 36 56
3 38 35 56
3 36 41 57
3 56 36 57
3 37 38 58
3 38 56 58
3 37 58 55
3 39 40 59
3 42 39 59
3 40 53 60
3 59 40 60
3 41 42 61
3 57 41 61
3 42 59 62
3 61 42 62
3 43 63 54
3 46 44 64
3 64 44 51
3 48 45 65
3 65 45 46
3 65 46 66
3 66 46 64
3 49 47 67
3 67 47 48
3 67 48 68
3 68 48 65
3 69 49 70
3 70 49 67
3 52 55 72
3 64 51 73
3 51 50 73
3 50 52 73
3 73 52 74
3 74 52 72
3 53 54 75
3 60 53 75
3 54 63 76
3 54 76 77
3 75 54 77
3 55 58 78
3 72 55 78
3 72 78 79
3 56 57 80
3 57 61 80
3 56 80 58
3 58 80 81
3 78 58 81
3 59 60 82
3 62 59 82
3 60 75 83
3 82 60 83
3 61 62 84
3 62 82 84
3 61 84 80
3 63 85 76
3 66 64 86
3 64 73 86
3 68 65 87
3 87 65 66
3 87 66 86
3 70 67 88
3 88 67 68
3 88 68 89
3 89 68 87
3 71 69 90
3 90 69 70
3 90 70 91
3 91 70 88
3 92 71 93
3 93 71 90
3 74 72 94
3 94 72 79
3 86 73 95
3 95 73 74
3 95 74 96
3 96 74 94
3 97 86 95
3 76 85 99
3 75 77 100
3 83 75 100
3 76 99 101
3 77 76 101
3 77 101 102
3 100 77 102
3 94 79 103
3 78 81 104
3 79 78 104
3 79 104 103
3 80 84 105
3 81 80 105
3 81 105 106
3 104 81 106
3 82 83 107
3 83 100 107
3 82 107 84
3 84 107 108
3 105 84 108
3 85 109 99
3 89 87 110
3 87 86 110
3 110 86 97
3 91 88 111
3 111 88 89
3 111 89 110
3 93 90 112
3 112 90 91
3 112 91 113
3 113 91 111
3 98 92 114
3 114 92 93
3 114 93 115
3 115 93 112
3 116 98 114
3 117 103 118
3 96 94 119
3 94 103 119
3 119 103 117
3 97 95 120
3 120 95 96
3 120 96 119
3 121 110 97
3 121 97 122
3 122 97 120
3 123 119 117
3 124 98 116
3 99 109 125
3 99 125 126
3 101 99 126
3 100 102 127
3 100 127 107
3 101 126 128
3 102 101 128
3 102 128 127
3 104 106 129
3 104 129 103
3 103 129 118
3 105 108 130
3 106 105 130
3 106 130 129
3 107 127 131
3 108 107 131
3 108 131 132
3 108 132 130
3 109 134 125
3 125 134 133
3 113 111 135
3 111 110 135
3 135 110 121
3 115 112 136
3 136 112 113
3 136 113 135
3 116 114 137
3 137 114 115
3 137 115 138
3 138 115 136
3 139 124 116
3 139 116 140
3 140 116 137
3 141 135 121
3 118 129 142
3 118 142 143
3 117 118 143
3 123 117 143
3 122 120 144
3 120 119 144
3 144 119 123
3 141 121 145
3 145 121 122
3 145 122 144
3 146 141 145
3 147 144 123
3 147 123 148
3 143 148 123
3 150 124 139
3 149 150 139
3 131 127 151
3 125 133 152
3 126 125 152
3 126 152 153
3 128 126 153
3 128 153 154
3 128 154 127
3 127 154 151
3 152 133 155
3 130 132 156
3 130 156 129
3 129 156 142
3 131 151 157
3 132 131 157
3 132 157 156
3 156 158 142
3 157 151 159
3 133 160 155
3 134 161 133
3 133 161 160
3 138 136 162
3 136 135 162
3 162 135 141
3 140 137 163
3 163 137 138
3 163 138 162
3 149 139 164
3 164 139 140
3 164 140 165
3 165 140 163
3 166 149 164
3 167 162 141
3 167 141 146
3 142 158 168
3 143 142 168
3 143 168 148
3 146 145 169
3 145 144 169
3 169 144 147
3 170 167 146
3 170 146 169
3 171 169 147
3 171 147 148
3 171 148 172
3 168 172 148
3 173 149 166
3 174 150 149
3 173 174 149
3 154 175 151
3 151 175 159
3 152 155 176
3 153 152 176
3 153 176 177
3 153 177 154
3 154 177 175
3 155 160 178
3 155 178 179
3 176 155 179
3 156 157 180
3 156 180 158
3 157 159 181
3 157 181 180
3 158 180 182
3 158 182 168
3 159 175 183
3 159 183 181
3 175 184 183
3 160 186 178
3 178 186 185
3 161 187 160
3 160 187 186
3 165 163 188
3 163 162 188
3 188 162 167
3 166 164 189
3 189 164 165
3 189 165 188
3 190 173 166
3 190 166 191
3 191 166 189
3 192 188 167
3 192 167 170
3 193 192 170
3 182 194 168
3 194 172 168
3 193 170 195
3 170 169 195
3 195 169 171
3 196 195 171
3 196 171 172
3 194 197 172
3 197 198 172
3 198 196 172
3 200 173 190
3 199 200 190
3 201 174 173
3 200 201 173
3 176 179 202
3 177 176 202
3 177 202 175
3 175 202 184
3 178 185 203
3 178 203 179
3 179 203 202
3 203 185 204
3 202 205 184
3 183 206 181
3 180 181 206
3 180 206 182
3 182 206 194
3 183 184 207
3 205 207 184
3 183 207 206
3 185 208 204
3 186 209 185
3 185 209 208
3 187 210 186
3 186 210 209
3 191 189 211
3 189 188 211
3 211 188 192
3 199 190 212
3 212 190 191
3 212 191 211
3 213 199 212
3 214 211 192
3 214 192 193
3 215 214 193
3 215 193 195
3 206 216 194
3 216 197 194
3 216 217 197
3 215 195 218
3 218 195 196
3 198 218 196
3 217 219 197
3 219 218 198
3 197 219 198
3 220 199 213
3 221 200 199
3 220 221 199
3 222 201 200
3 221 222 200
3 203 204 223
3 203 223 202
3 202 223 205
3 204 208 224
3 204 224 223
3 205 223 225
3 205 225 207
3 207 225 226
3 207 226 206
3 226 216 206
3 208 228 224
3 224 228 227
3 209 229 208
3 229 228 208
3 210 230 209
3 209 230 229
3 213 212 231
3 212 211 231
3 231 211 214
3 232 220 213
3 232 213 231
3 233 231 214
3 233 214 215
3 234 233 215
3 234 215 218
3 226 235 216
3 235 217 216
3 235 236 217
3 217 236 219
3 237 234 218
3 237 218 219
3 236 238 219
3 238 237 219
3 240 220 232
3 239 240 232
3 241 221 220
3 240 241 220
3 242 222 221
3 241 242 221
3 224 227 243
3 224 243 223
3 223 243 225
3 225 243 244
3 225 244 226
3 226 244 235
3 227 245 243
3 228 246 227
3 227 246 245
3 229 247 228
3 228 247 246
3 230 248 229
3 229 248 247
3 239 232 249
3 232 231 249
3 249 231 233
3 250 249 233
3 250 233 234
3 237 250 234
3 244 251 235
3 235 251 236
3 251 252 236
3 236 252 238
3 252 253 238
3 253 250 237
3 253 237 238
3 254 239 249
3 255 240 239
3 254 255 239
3 256 241 240
3 255 256 240
3 257 242 241
3 256 257 241
3 245 258 243
3 243 258 244
3 244 258 251
3 245 259 258
3 246 260 245
3 245 260 259
3 247 261 246
3 246 261 260
3 248 262 247
3 247 262 261
3 254 249 263
3 263 249 250
3 253 263 250
3 258 264 251
3 251 264 252
3 264 265 252
3 265 263 253
3 252 265 253
3 266 254 263
3 267 255 254
3 266 267 254
3 268 256 255
3 267 268 255
3 269 257 256
3 268 269 256
3 259 270 258
3 270 264 258
3 260 271 259
3 259 271 270
3 261 272 260
3 260 272 271
3 262 273 261
3 273 272 261
3 270 274 264
3 275 266 263
3 275 263 265
3 274 276 264
3 276 265 264
3 276 277 265
3 277 275 265
3 278 267 266
3 275 278 266
3 279 268 267
3 278 279 267
3 280 269 268
3 279 280 268
3 271 281 270
3 270 281 274
3 272 282 271
3 271 282 281
3 273 283 272
3 272 283 282
3 281 284 274
3 274 284 276
3 285 278 275
3 277 285 275
3 284 286 276
3 286 285 277
3 276 286 277
3 287 279 278
3 285 287 278
3 288 280 279
3 287 288 279
3 282 289 281
3 281 289 284
3 283 290 282
3 282 290 289
3 289 291 284
3 284 291 286
3 291 292 286
3 292 287 285
3 286 292 285
3 293 288 287
3 292 293 287
3 290 294 289
3 289 294 291
3 294 295 291
3 295 293 292
3 291 295 292
CELL_TYPES 542
5
5
5
5
5
5
5
5
5
5
5
5
5
5
5
5
5
5
5
5
5
5
5
5
5
5
5
5
5
5
5
5
5
5
5
5
5
5
5
5
5
5
5
5
5
5
5
5
5
5
5
5
5
5
5
5
5
5
5
5
5
5
5
5
5
5
5
5
5
5
5
5
5
5
5
5
5
5
5
5
5
5
5
5
5
5
5
5
5
5
5
5
5
5
5
5
5
5
5
5
5
5
5
5
5
5
5
5
5
5
5
5
5
5
5
5
5
5
5
5
5
5
5
5
5
5
5
5
5
5
5
5
5
5
5
5
5
5
5
5
5
5
5
5
5
5
5
5
5
5
5
5
5
5
5
5
5
5
5
5
5
5
5
5
5
5
5
5
5
5
5
5
5
5
5
5
5
5
5
5
5
5
5
5
5
5
5
5
5
5
5
5
5
5
5
5
5
5
5
5
5
5
5
5
5
5
5
5
5
5
5
5
5
5
5
5
5
5
5
5
5
5
5
5
5
5
5
5
5
5
5
5
5
5
5
5
5
5
5
5
5
5
5
5
5
5
5
5
5
5
5
5
5
5
5
5
5
5
5
5
5
5
5
5
5
5
5
5
5
5
5
5
5
5
5
5
5
5
5
5
5
5
5
5
5
5
5
5
5
5
5
5
5
5
5
5
5
5
5
5
5
5
5
5
5
5
5
5
5
5
5
5
5
5
5
5
5
5
5
5
5
5
5
5
5
5
5
5
5
5
5
5
5
5
5
5
5
5
5
5
5
5
5
5
5
5
5
5
5
5
5
5
5
5
5
5
5
5
5
5
5
5
5
5
5
5
5
5
5
5
5
5
5
5
5
5
5
5
5
5
5
5
5
5
5
5
5
5
5
5
5
5
5
5
5
5
5
5
5
5
5
5
5
5
5
5
5
5
5
5
5
5
5
5
5
5
5
5
5
5
5
5
5
5
5
5
5
5
5
5
5
5
5
5
5
5
5
5
5
5
5
5
5
5
5
5
5
5
5
5
5
5
5
5
5
5
5
5
5
5
5
5
5
5
5
5
5
5
5
5
5
5
5
5
5
5
5
5
5
5
5
5
5
5
5
5
5
5
5
5
5
5
5
5
5
5
5
5
5
5
5
5
5
5
5
5
5
5
5
5
5
5
5
5
5
5
5
5
5
5
5
5
5
5
5
5
5
5
5
5
5
5
5
5
5
5
5
5
5
5
5
5
POINT_DATA 296
SCALARS concentrations float 4
LOOKUP_TABLE default
0 0.959066 0.13495 9.16482
0 0.959133 0.135889 2.46652
0 0.959102 0.136688 11.45
0 0.959081 0.137452 3.97567
0 0.959093 0.0935443 -0.21763
0 0.959184 0.13625 8.44313
0 0.959179 0.140534 5.49515
0 0.959111 0.0946817 1.24185
0 0.959159 0.0944701 0.581557
0 0.959194 0.138209 6.36138
0 0.959147 0.13976 5.02786
0 0.959078 0.135818 10.596
0 0.959168 0.134933 2.30632
0 0.959111 0.0945999 -0.887164
0 0.959092 0.0947464 1.1769
0 0.959121 0.094594 0.849024
0 0.959129 0.096302 0.793524
0 0.95916 0.0937253 0.214439
0 0.959157 0.09291 -0.0730284
0 0.959141 0.0955298 -1.58889
0 0.959133 0.0944907 0.867907
0 0.959067 0.136198 5.29223
0 0.959082 0.136489 12.6376
0 0.959163 0.0937419 -0.618952
0 0.959113 0.0947182 -0.789294
0 0.959132 0.095456 -0.196132
0 0.959212 0.135037 4.52605
0 0.959192 0.0937763 0.802366
0 0.959175 0.135979 5.07151
0 0.959124 0.0944288 0.781931
0 0.959131 0.0957311 -0.410768
0 0.959129 0.094586 -0.372907
0 0.959136 0.135234 3.84493
0 0.959136 0.0961054 1.63257
0 0.959139 0.0947325 0.836482
0 0.959125 0.0938915 0.449189
0 0.959129 0.093141 0.0362356
0 0.959133 0.0941997 0.708267
0 0.95913 0.0948011 0.500722
0 0.959094 0.0933038 -0.354471
0 0.959132 0.0940106 0.37273
0 0.959136 0.0931894 0.1534
0 0.959133 0.0940675 -0.159875
0 0.959083 0.137931 6.24853
0 0.959153 0.0940876 1.06942
0 0.959191 0.0952208 -1.00009
0 0.959165 0.096804 -1.14086
0 0.959129 0.135352 9.50015
0 0.959144 0.0958132 0.355537
0 0.959127 0.137763 8.20336
0 0.959129 0.0940781 0.0690984
0 0.959131 0.0943149 1.14704
0 0.959135 0.0945281 0.833515
0 0.959131 0.0928948 0.0380692
0 0.959085 0.0929839 -0.118085
0 0.959137 0.0959201 -0.799499
0 0.959135 0.0948777 0.74994
0 0.95913 0.0939165 -0.374158
0 0.959138 0.0949471 -1.1393
0 0.959147 0.09415 -0.0820718
0 0.959145 0.0945825 0.380276
0 0.959132 0.094062 -0.246347
0 0.959148 0.0942142 -0.201758
0 0.95906 0.137114 12.6574
0 0.959139 0.0947293 -0.335449
0 0.959141 0.100328 1.42866
0 0.959127 0.0951255 0.803072
0 0.959122 0.0953991 -1.55995
0 0.959115 0.0964287 -1.72702
0 0.959113 0.135336 7.15399
0 0.95912 0.0930235 0.709316
0 0.959146 0.134565 5.92668
0 0.959133 0.0937674 0.247732
0 0.959139 0.096141 -1.57999
0 0.95914 0.0967272 -0.0158167
0 0.95913 0.0930288 0.0277351
0 0.959088 0.0932319 -0.0612897
0 0.959129 0.0934337 -0.0841367
0 0.959135 0.0962093 -0.67833
0 0.959141 0.0962263 -0.340734
0 0.959128 0.0957419 -0.223
0 0.959127 0.095432 0.818696
0 0.959154 0.0950992 0.556979
0 0.95914 0.0946097 -0.409905
0 0.959131 0.0962206 -0.51684
0 0.95908 0.134739 9.13338
0 0.959138 0.0966939 1.52521
0 0.959115 0.0968677 1.36397
0 0.959123 0.0935717 -0.0479924
0 0.959124 0.0945495 -1.2018
0 0.959128 0.0934912 -0.337258
0 0.959132 0.0936104 0.335767
0 0.959214 0.135553 1.42906
0 0.959181 0.0939233 -0.00361134
0 0.959138 0.0960239 -0.749772
0 0.959147 0.0938921 -0.858258
0 0.959143 0.0942548 -0.832506
0 0.959151 0.0947657 -0.5344
0 0.959207 0.134801 9.7896
0 0.959106 0.09344 0.0845407
0 0.959148 0.0936572 -0.207331
0 0.95913 0.0938611 0.036368
0 0.959155 0.094037 -0.117991
0 0.959142 0.0950936 0.409992
0 0.959133 0.0948138 -0.129156
0 0.959124 0.0954395 0.474226
0 0.959136 0.0955299 -0.760612
0 0.959148 0.0941794 0.371021
0 0.959134 0.0934112 0.320127
0 0.959118 0.135685 7.77703
0 0.959142 0.0943217 -0.53426
0 0.959132 0.0958418 -1.70817
0 0.959157 0.0951586 0.381173
0 0.959134 0.094849 -0.128215
0 0.959197 0.0943457 -0.19012
0 0.959167 0.0955009 0.639095
0 0.959188 0.0942444 0.0162827
0 0.959145 0.0937335 -0.361691
0 0.959148 0.0943091 0.334779
0 0.959145 0.0952781 -0.299085
0 0.95915 0.0943402 -0.0494259
0 0.959142 0.0943629 -0.0493724
0 0.959148 0.0945858 1.02833
0 0.959153 0.0932873 0.0477542
0 0.959181 0.134513 0.0913663
0 0.959124 0.0938723 0.132523
0 0.959134 0.0938586 0.0858895
0 0.959145 0.0937217 -0.377213
0 0.959146 0.093565 0.00422878
0 0.959145 0.0949394 -0.136633
0 0.95914 0.093844 -0.623227
0 0.959142 0.093619 0.507182
0 0.959137 0.0930736 0.494446
0 0.95914 0.093574 0.108466
0 0.959113 0.133329 5.17003
0 0.959132 0.0943473 -0.740179
0 0.959141 0.0945567 -0.0397751
0 0.959162 0.0954894 -0.258204
0 0.959145 0.0950128 0.0304018
0 0.959129 0.093858 0.59373
0 0.959152 0.0939981 0.187382
0 0.959137 0.094778 0.724592
0 0.959153 0.094997 -0.689733
0 0.959157 0.0938205 -0.608786
0 0.959151 0.0953271 -1.13986
0 0.959148 0.0950899 1.08974
0 0.95915 0.093852 -0.419848
0 0.959153 0.0963749 1.88091
0 0.959164 0.094729 -0.146829
0 0.959084 0.0938976 -0.841283
0 0.959066 0.13701 12.1222
0 0.959135 0.092852 0.343637
0 0.95915 0.0939965 0.0770418
0 0.959152 0.0934367 -0.0143221
0 0.959135 0.0931917 -0.323489
0 0.959153 0.0935825 -0.0818692
0 0.959147 0.0940812 0.790371
0 0.959141 0.0941727 0.476629
0 0.959149 0.0947144 -0.162408
0 0.959139 0.0933969 0.343206
0 0.959178 0.0931968 -0.0347205
0 0.959161 0.134618 8.3674
0 0.959135 0.0945324 -0.348757
0 0.959143 0.0948997 -0.745375
0 0.959131 0.0942672 -0.507892
0 0.95914 0.0979753 -0.527449
0 0.959143 0.0975115 1.46442
0 0.959139 0.0952322 -0.63961
0 0.95916 0.0939825 -0.315283
0 0.959154 0.0972088 -0.368588
0 0.959148 0.0939903 0.0576614
0 0.959164 0.0953034 1.05582
0 0.959167 0.0940364 -0.408496
0 0.959124 0.0943325 0.681725
0 0.959076 0.136245 6.13776
0 0.959133 0.0940579 -0.439584
0 0.959146 0.0934501 -0.224104
0 0.959139 0.0933919 -0.242459
0 0.959151 0.093299 -0.463706
0 0.95914 0.0938509 -0.676435
0 0.959146 0.0960154 1.20708
0 0.959142 0.0944211 -0.385798
0 0.959151 0.0964041 0.0837812
0 0.959145 0.0938982 -0.125213
0 0.959141 0.0935308 -0.445892
0 0.959137 0.0936895 -0.753346
0 0.959159 0.0931092 -0.146152
0 0.959199 0.13445 0.450339
0 0.959133 0.0951061 -0.693489
0 0.959138 0.0942801 0.682968
0 0.959172 0.0952327 0.724007
0 0.959153 0.0953291 -0.863494
0 0.959136 0.0949012 -0.0773411
0 0.959153 0.0944477 -0.449653
0 0.959162 0.0946242 0.676436
0 0.959159 0.0950648 -0.178665
0 0.959168 0.0944439 -0.72949
0 0.959155 0.0953047 -0.670769
0 0.959152 0.0964964 0.657392
0 0.95917 0.0967515 -0.734408
0 0.959162 0.0944999 0.653709
0 0.959133 0.138654 8.69756
0 0.959139 0.0946942 -0.806792
0 0.959146 0.0934893 0.435478
0 0.959131 0.093338 -0.282895
0 0.959147 0.0942534 0.840073
0 0.959149 0.0939349 0.596709
0 0.959144 0.0945952 0.380607
0 0.959111 0.09413 0.89416
0 0.959076 0.093442 0.423082
0 0.95911 0.136095 10.793
0 0.959131 0.10081 2.37398
0 0.959164 0.100401 2.51166
0 0.959164 0.0999067 0.777737
0 0.95914 0.100695 -2.73398
0 0.959156 0.0948227 0.690328
0 0.959157 0.0951317 0.975521
0 0.959143 0.0942525 -0.291816
0 0.959154 0.0946533 -0.509646
0 0.959138 0.095074 -0.479413
0 0.959152 0.0949577 -0.404519
0 0.959158 0.0936534 -0.582055
0 0.959168 0.136153 3.40593
0 0.959152 0.0940974 -0.0149979
0 0.959131 0.0971968 1.1065
0 0.959158 0.102085 -1.22516
0 0.959146 0.0940005 -0.085157
0 0.95911 0.0984779 -1.81911
0 0.959099 0.096385 0.167449
0 0.959067 0.0944598 0.986689
0 0.959023 0.13308 9.85285
0 0.959142 0.0951461 -1.04176
0 0.95915 0.0982497 -2.0175
0 0.959155 0.0970035 1.76949
0 0.959159 0.103483 2.80154
0 0.959151 0.0942172 0.0517219
0 0.959147 0.102127 -1.08532
0 0.959145 0.0964303 -1.31531
0 0.959128 0.0976891 -0.235699
0 0.959144 0.09443 -1.14882
0 0.959157 0.0960382 -0.66069
0 0.959174 0.0951468 0.688335
0 0.959166 0.136005 7.26202
0 0.959139 0.0980884 1.40412
0 0.959141 0.0943451 -0.116249
0 0.959122 0.102547 -0.337041
0 0.959096 0.0939898 0.391607
0 0.959103 0.0946388 1.28116
0 0.959093 0.13743 8.54029
0 0.959147 0.0970024 -0.18958
0 0.959152 0.094731 -1.19064
0 0.959138 0.0941695 -0.32285
0 0.959133 0.0948733 -0.0553517
0 0.959128 0.0974921 -0.716839
0 0.959143 0.0938711 0.381677
0 0.959157 0.0943486 -0.105349
0 0.95919 0.0934644 0.0303084
0 0.959206 0.134901 5.06127
0 0.959127 0.0962919 -2.30595
0 0.959162 0.095583 0.423626
0 0.959131 0.0963679 1.40199
0 0.959081 0.0931836 -0.512996
0 0.959096 0.13695 8.29901
0 0.95914 0.0945417 0.527391
0 0.959123 0.0944038 -0.540595
0 0.95912 0.0956996 0.734143
0 0.959143 0.0960293 -0.200201
0 0.959148 0.0940468 0.148088
0 0.959193 0.0935859 -0.364357
0 0.959207 0.134631 1.68035
0 0.959141 0.0963733 1.55385
0 0.959151 0.0936028 0.588251
0 0.959103 0.0931267 -0.624743
0 0.959054 0.135119 11.5389
0 0.959141 0.0946994 -1.59028
0 0.959118 0.0997098 -0.172899
0 0.959129 0.0938791 -1.30725
0 0.959101 0.0973682 -0.752758
0 0.959137 0.0939561 0.263354
0 0.959203 0.0935047 -0.731012
0 0.959247 0.135435 5.74894
0 0.959156 0.0936743 0.267648
0 0.959159 0.0928368 -0.461027
0 0.959125 0.136781 3.67602
0 0.959152 0.0948657 -0.429034
0 0.959106 0.0935272 -0.469658
0 0.959117 0.0965368 -0.600449
0 0.959155 0.0945094 -0.653351
0 0.959218 0.133799 2.3122
0 0.959163 0.0930102 -0.550888
0 0.959181 0.138277 5.35188
0 0.959128 0.0939594 0.108928
0 0.95912 0.0974007 1.16474
0 0.959145 0.1332 12.6692
0 0.959145 0.136716 4.45288
0 0.959126 0.136356 6.56934
VECTORS fa_u float
0.00708677 0.0028446 -0
0.0065291 0.00375342 -0
0.00328154 0.000891739 -0
0.00714421 0.00108528 -0
1e-08 0 0
0.00519163 0.00399955 -0
0.00282292 0.00274527 -0
1e-08 0 0
1e-08 0 0
0.00445166 0.00548453 -0
0.00495081 0.0083504 -0
0.0065343 0.000116871 -0
0.00628339 -0.000697505 0
1e-08 0 0
1e-08 0 0
1e-08 0 0
1e-08 0 0
1e-08 0 0
1e-08 0 0
1e-08 0 0
1e-08 0 0
0.00289574 0.00712735 -0
0.00159777 0.00623393 -0
1e-08 0 0
1e-08 0 0
1e-08 0 0
0.00853108 -0.00217261 0
1e-08 0 0
0.0102379 -0.0044503 0
1e-08 0 0
1e-08 0 0
1e-08 0 0
0.000856976 0.00721449 -0
1e-08 0 0
1e-08 0 0
1e-08 0 0
1e-08 0 0
1e-08 0 0
1e-08 0 0
1e-08 0 0
1e-08 0 0
1e-08 0 0
1e-08 0 0
-0.00014808 0.00750994 -0
1e-08 0 0
1e-08 0 0
1e-08 0 0
0.00566467 -0.0035588 0
1e-08 0 0
0.00297623 -0.00238531 0
1e-08 0 0
1e-08 0 0
1e-08 0 0
1e-08 0 0
1e-08 0 0
1e-08 0 0
1e-08 0 0
1e-08 0 0
1e-08 0 0
1e-08 0 0
1e-08 0 0
1e-08 0 0
1e-08 0 0
-0.000618429 0.00431728 0
1e-08 0 0
1e-08 0 0
1e-08 0 0
1e-08 0 0
1e-08 0 0
0.00338711 -0.00335557 0
1e-08 0 0
0.00294411 -0.00363914 0
1e-08 0 0
1e-08 0 0
1e-08 0 0
1e-08 0 0
1e-08 0 0
1e-08 0 0
1e-08 0 0
1e-08 0 0
1e-08 0 0
1e-08 0 0
1e-08 0 0
1e-08 0 0
1e-08 0 0
-0.00143396 0.00549761 0
1e-08 0 0
1e-08 0 0
1e-08 0 0
1e-08 0 0
1e-08 0 0
1e-08 0 0
0.00534837 -0.00884171 0
1e-08 0 0
1e-08 0 0
1e-08 0 0
1e-08 0 0
1e-08 0 0
0.00346671 -0.00855081 0
1e-08 0 0
1e-08 0 0
1e-08 0 0
1e-08 0 0
1e-08 0 0
1e-08 0 0
1e-08 0 0
1e-08 0 0
1e-08 0 0
1e-08 0 0
-0.00282698 0.00697728 0
1e-08 0 0
1e-08 0 0
1e-08 0 0
1e-08 0 0
1e-08 0 0
1e-08 0 0
1e-08 0 0
1e-08 0 0
1e-08 0 0
1e-08 0 0
1e-08 0 0
1e-08 0 0
1e-08 0 0
1e-08 0 0
0.00140276 -0.00554981 0
1e-08 0 0
1e-08 0 0
1e-08 0 0
1e-08 0 0
1e-08 0 0
1e-08 0 0
1e-08 0 0
1e-08 0 0
1e-08 0 0
-0.00368308 0.0063807 0
1e-08 0 0
1e-08 0 0
1e-08 0 0
1e-08 0 0
1e-08 0 0
1e-08 0 0
1e-08 0 0
1e-08 0 0
1e-08 0 0
1e-08 0 0
1e-08 0 0
1e-08 0 0
1e-08 0 0
1e-08 0 0
1e-08 0 0
0.000561504 -0.00412345 0
1e-08 0 0
1e-08 0 0
1e-08 0 0
1e-08 0 0
1e-08 0 0
1e-08 0 0
1e-08 0 0
1e-08 0 0
1e-08 0 0
1e-08 0 0
-0.00451661 0.00580629 0
1e-08 0 0
1e-08 0 0
1e-08 0 0
1e-08 0 0
1e-08 0 0
1e-08 0 0
1e-08 0 0
1e-08 0 0
1e-08 0 0
1e-08 0 0
1e-08 0 0
1e-08 0 0
0.00010099 -0.00758697 0
1e-08 0 0
1e-08 0 0
1e-08 0 0
1e-08 0 0
1e-08 0 0
1e-08 0 0
1e-08 0 0
1e-08 0 0
1e-08 0 0
1e-08 0 0
1e-08 0 0
1e-08 0 0
-0.00253768 0.00257584 0
1e-08 0 0
1e-08 0 0
1e-08 0 0
1e-08 0 0
1e-08 0 0
1e-08 0 0
1e-08 0 0
1e-08 0 0
1e-08 0 0
1e-08 0 0
1e-08 0 0
1e-08 0 0
1e-08 0 0
-0.000860674 -0.00692214 0
1e-08 0 0
1e-08 0 0
1e-08 0 0
1e-08 0 0
1e-08 0 0
1e-08 0 0
1e-08 0 0
1e-08 0 0
-0.00487386 0.00395219 0
1e-08 0 0
1e-08 0 0
1e-08 0 0
1e-08 0 0
1e-08 0 0
1e-08 0 0
1e-08 0 0
1e-08 0 0
1e-08 0 0
1e-08 0 0
1e-08 0 0
-0.00160738 -0.0061663 0
1e-08 0 0
1e-08 0 0
1e-08 0 0
1e-08 0 0
1e-08 0 0
1e-08 0 0
1e-08 0 0
-0.00821938 0.00491691 0
1e-08 0 0
1e-08 0 0
1e-08 0 0
1e-08 0 0
1e-08 0 0
1e-08 0 0
1e-08 0 0
1e-08 0 0
1e-08 0 0
1e-08 0 0
1e-08 0 0
-0.00296515 -0.00721251 0
1e-08 0 0
1e-08 0 0
1e-08 0 0
1e-08 0 0
1e-08 0 0
-0.00734187 0.00301082 0
1e-08 0 0
1e-08 0 0
1e-08 0 0
1e-08 0 0
1e-08 0 0
1e-08 0 0
1e-08 0 0
1e-08 0 0
-0.00475553 -0.00796934 0
1e-08 0 0
1e-08 0 0
1e-08 0 0
1e-08 0 0
-0.00621969 0.00160947 0
1e-08 0 0
1e-08 0 0
1e-08 0 0
1e-08 0 0
1e-08 0 0
1e-08 0 0
-0.00367486 -0.00457314 0
1e-08 0 0
1e-08 0 0
1e-08 0 0
-0.00706268 0.000859608 0
1e-08 0 0
1e-08 0 0
1e-08 0 0
1e-08 0 0
1e-08 0 0
1e-08 0 0
-0.00288541 -0.00286353 0
1e-08 0 0
1e-08 0 0
-0.00817434 -0.000154941 0
1e-08 0 0
1e-08 0 0
1e-08 0 0
1e-08 0 0
-0.00580306 -0.00452159 0
1e-08 0 0
-0.00395058 -0.000566718 0
1e-08 0 0
1e-08 0 0
-0.00657874 -0.00379508 0
-0.00557997 -0.0014455 0
-0.00697126 -0.00281457 0
