# vtk DataFile Version 2.0
CellBP Time: 3.04
ASCII
DATASET UNSTRUCTURED_GRID
POINTS 296 double
-9.07766 -3.72506 0
-8.50811 -4.88842 0
-9.48438 -2.49428 0
-9.74946 -1.23608 0
-8.23956 -2.76939 0
-7.78649 -5.96626 0
-6.93082 -6.9408 0
-7.79982 -3.80967 0
-7.23099 -4.79543 0
-5.9742 -7.80573 0
-4.91325 -8.53465 0
-9.84548 0.0441654 0
-9.77371 1.33639 0
-8.54868 -1.65395 0
-8.68895 -0.518888 0
-7.47725 -1.96342 0
-7.11035 -2.84932 0
-6.5486 -5.70814 0
-5.75451 -6.52984 0
-6.67835 -3.82159 0
-6.12444 -4.60756 0
-3.75085 -9.1076 0
-2.5164 -9.5183 0
-4.85924 -7.24599 0
-3.88559 -7.82272 0
-8.70127 0.63518 0
-9.53461 2.61728 0
-8.54227 1.75311 0
-9.11863 3.8459 0
-7.64099 -0.909166 0
-7.69899 0.083209 0
-6.85321 -1.28639 0
-1.23801 -9.76494 0
-6.35009 -2.11392 0
-6.22582 -3.00378 0
-5.46125 -5.40845 0
-4.73873 -6.05217 0
-5.57615 -3.70109 0
-5.18993 -4.50094 0
-2.84627 -8.29464 0
-1.76599 -8.56201 0
-3.89029 -6.66107 0
-3.03712 -7.09312 0
0.0526572 -9.83885 0
-7.61727 1.13109 0
-8.27133 2.89153 0
-7.47076 2.08278 0
-8.52423 4.99546 0
-7.80309 3.93409 0
-7.78235 6.05921 0
-6.68997 -0.384255 0
-6.86799 0.54902 0
-5.7034 -0.988892 0
-0.589015 -8.72262 0
0.554481 -8.67174 0
-5.2383 -2.44607 0
-4.4276 -5.03451 0
-3.85503 -5.71606 0
-4.38423 -3.76262 0
-2.04431 -7.49554 0
-1.12566 -7.71332 0
-2.96462 -6.04337 0
-2.29274 -6.56169 0
1.33529 -9.73909 0
-6.61143 1.40337 0
-7.08987 3.07649 0
-6.58457 2.34322 0
-7.21359 4.92725 0
-6.64256 3.95047 0
-6.92999 7.02666 0
-6.49502 5.82189 0
-5.96457 7.88671 0
-4.41661 -1.17454 0
-5.75409 0.502047 0
-4.62032 -0.0183033 0
0.00331553 -7.75928 0
1.71038 -8.53205 0
0.928026 -7.66663 0
-4.00422 -2.38348 0
-3.47183 -1.38488 0
-3.26025 -4.75951 0
-3.24368 -3.24015 0
-1.37229 -6.6101 0
-0.512459 -6.94809 0
-1.96301 -5.48979 0
2.60316 -9.48822 0
-5.45151 2.0155 0
-6.02565 3.03101 0
-6.03522 4.80538 0
-5.69356 3.93444 0
-5.69036 6.63147 0
-5.38808 5.54469 0
-4.9032 8.62469 0
-4.77725 7.30602 0
-3.48293 -0.421765 0
-4.41089 1.239 0
-3.6851 0.58837 0
-4.02601 2.30744 0
-3.74585 9.19887 0
2.81375 -8.20986 0
0.399272 -6.7086 0
1.98077 -7.41655 0
1.27299 -6.80862 0
-2.43567 -0.86839 0
-2.82613 -2.12019 0
-2.28058 -4.06378 0
-2.31322 -2.95237 0
-0.44714 -5.79944 0
-1.2128 -4.46446 0
3.82957 -9.07977 0
-4.73619 3.3535 0
-5.02928 4.53325 0
-4.58941 6.19357 0
-4.48533 5.2882 0
-3.80123 7.90255 0
-3.7754 6.74702 0
-2.7496 8.31884 0
-1.64363 -0.13119 0
-1.44377 -0.884654 0
-2.48089 0.512288 0
-3.23124 1.44029 0
-3.21004 3.2909 0
-2.89044 2.36702 0
-1.35361 0.632901 0
-2.51474 9.60281 0
3.8692 -7.7702 0
2.90659 -7.04039 0
0.929472 -5.7472 0
2.02955 -6.31914 0
-1.674 -1.98487 0
-1.42609 -3.25748 0
0.0867872 -4.704 0
-0.56132 -3.66979 0
4.85904 -7.20884 0
4.98911 -8.51007 0
-3.73532 4.50009 0
-3.69044 5.67744 0
-2.84716 7.18971 0
-2.97248 6.27086 0
-1.64545 8.63582 0
-1.91153 7.52637 0
-2.32005 4.01902 0
-0.725324 -1.32266 0
-0.834154 -0.251441 0
-1.9331 1.68648 0
-2.11522 2.86766 0
-1.30196 3.52684 0
-0.870764 1.35529 0
-0.283242 0.460378 0
-0.530204 8.78126 0
-1.24181 9.84959 0
1.09274 -4.52221 0
3.83802 -6.59705 0
2.93354 -5.99498 0
2.07849 -5.3469 0
4.71197 -6.1013 0
-0.55368 -2.469 0
0.492601 -3.43999 0
0.0570563 -1.6083 0
1.46504 -3.64385 0
5.79173 -6.51824 0
6.06558 -7.78868 0
-2.44831 5.28798 0
-2.10043 6.45235 0
-0.888069 7.71977 0
-1.24894 6.84943 0
0.0904328 7.80649 0
-1.13661 4.45959 0
0.149452 -0.616399 0
-0.803 2.49246 0
-0.337611 3.58891 0
0.0583101 1.51457 0
0.738328 0.47328 0
0.638815 8.79322 0
0.0464987 9.94604 0
2.34815 -4.22747 0
3.79759 -5.54544 0
2.95361 -5.1321 0
5.5048 -5.4086 0
4.62464 -5.19146 0
0.629703 -2.28915 0
1.24695 -2.93094 0
0.757473 -1.38983 0
2.14123 -3.10431 0
2.96112 -3.43404 0
6.09154 -4.72815 0
6.58498 -5.6956 0
7.03613 -6.92826 0
-1.00624 5.76067 0
-0.359443 6.81077 0
1.11637 7.70224 0
0.560337 7.01387 0
-0.00173827 4.69489 0
0.600432 3.81007 0
1.33699 -0.642565 0
0.531931 2.64645 0
0.958638 1.57601 0
1.90301 0.21216 0
1.60814 1.06197 0
2.11557 7.52115 0
1.78501 8.63824 0
1.34139 9.86753 0
3.7767 -4.28667 0
5.05532 -4.37647 0
5.78719 -3.88081 0
3.74693 -3.16049 0
1.80553 -1.88046 0
2.99638 -2.55287 0
6.72258 -3.90313 0
7.3144 -4.84593 0
7.90074 -5.96856 0
0.483291 5.8293 0
1.42034 6.68446 0
2.35863 6.61683 0
1.20016 4.52754 0
1.47797 3.37794 0
2.4236 -0.691028 0
2.81409 0.14235 0
1.77945 2.15743 0
2.60176 1.14536 0
3.05283 7.11239 0
2.88491 8.30964 0
2.61789 9.61729 0
4.86364 -3.28118 0
6.06723 -3.07044 0
4.13951 -2.25615 0
3.2254 -1.4971 0
6.67833 -2.29457 0
7.17515 -3.01678 0
7.90389 -3.8824 0
8.63202 -4.90838 0
2.01161 5.55918 0
3.05334 6.0993 0
2.35093 4.09846 0
2.40798 3.04304 0
3.50474 -0.456815 0
3.59519 0.613357 0
2.94563 2.27572 0
3.52097 1.51801 0
3.96269 5.84066 0
3.9469 6.73411 0
3.94643 7.87679 0
3.85065 9.20506 0
5.52697 -1.89958 0
4.47916 -1.12077 0
6.65903 -1.32415 0
7.53391 -2.01931 0
8.32869 -2.84047 0
9.20619 -3.74787 0
3.37743 4.83048 0
3.30951 3.35714 0
4.65703 0.131953 0
4.47719 1.29679 0
4.02107 2.41717 0
4.5042 5.09363 0
4.78443 6.12929 0
4.9356 7.3113 0
5.01095 8.63035 0
5.8307 -0.434656 0
6.94269 -0.487332 0
7.69487 -1.07072 0
8.61165 -1.72809 0
9.61825 -2.51407 0
4.49178 3.78356 0
5.75094 1.07724 0
5.29835 2.49982 0
5.29579 4.56033 0
5.53396 5.45939 0
5.83161 6.60158 0
6.07098 7.90053 0
6.76702 0.448822 0
7.77572 -0.0260516 0
8.78146 -0.573929 0
9.86705 -1.23641 0
6.87233 1.32026 0
5.63301 3.72474 0
6.45041 2.15662 0
6.28094 3.03676 0
6.19539 4.6227 0
6.60252 5.76905 0
7.0341 7.04029 0
7.69853 0.949709 0
8.76747 0.566734 0
9.94377 0.0566245 0
7.51711 1.96986 0
6.71457 3.8384 0
7.16035 2.89482 0
7.27728 4.82086 0
7.89421 6.06998 0
8.61851 1.70449 0
9.84183 1.33918 0
8.3049 2.79518 0
7.87474 3.86191 0
8.61644 4.9948 0
9.59176 2.60769 0
9.18454 3.8344 0
CELLS 542 2168
3 2 0 4
3 0 1 7
3 4 0 7
3 1 5 8
3 7 1 8
3 3 2 13
3 13 2 4
3 11 3 14
3 14 3 13
3 13 4 15
3 4 7 16
3 15 4 16
3 5 6 17
3 8 5 17
3 6 9 18
3 17 6 18
3 7 8 19
3 16 7 19
3 8 17 20
3 19 8 20
3 9 10 23
3 18 9 23
3 10 21 24
3 23 10 24
3 12 11 25
3 25 11 14
3 26 12 27
3 27 12 25
3 14 13 29
3 29 13 15
3 25 14 30
3 30 14 29
3 29 15 31
3 15 16 33
3 31 15 33
3 16 19 34
3 33 16 34
3 17 18 35
3 20 17 35
3 18 23 36
3 35 18 36
3 19 20 37
3 34 19 37
3 20 35 38
3 37 20 38
3 21 22 39
3 24 21 39
3 22 32 40
3 39 22 40
3 23 24 41
3 36 23 41
3 24 39 42
3 41 24 42
3 27 25 44
3 44 25 30
3 28 26 45
3 45 26 27
3 45 27 46
3 46 27 44
3 47 28 48
3 48 28 45
3 30 29 50
3 50 29 31
3 44 30 51
3 51 30 50
3 50 31 52
3 31 33 52
3 32 43 53
3 40 32 53
3 53 43 54
3 33 34 55
3 34 37 55
3 33 55 52
3 35 36 56
3 38 35 56
3 36 41 57
3 56 36 57
3 37 38 58
3 38 56 58
3 37 58 55
3 39 40 59
3 42 39 59
3 40 53 60
3 59 40 60
3 41 42 61
3 57 41 61
3 42 59 62
3 61 42 62
3 43 63 54
3 46 44 64
3 64 44 51
3 48 45 65
3 65 45 46
3 65 46 66
3 66 46 64
3 49 47 67
3 67 47 48
3 67 48 68
3 68 48 65
3 69 49 70
3 70 49 67
3 52 55 72
3 64 51 73
3 51 50 73
3 50 52 73
3 73 52 74
3 74 52 72
3 53 54 75
3 60 53 75
3 54 63 76
3 54 76 77
3 75 54 77
3 55 58 78
3 72 55 78
3 72 78 79
3 56 57 80
3 57 61 80
3 56 80 58
3 58 80 81
3 78 58 81
3 59 60 82
3 62 59 82
3 60 75 83
3 82 60 83
3 61 62 84
3 62 82 84
3 61 84 80
3 63 85 76
3 66 64 86
3 64 73 86
3 68 65 87
3 87 65 66
3 87 66 86
3 70 67 88
3 88 67 68
3 88 68 89
3 89 68 87
3 71 69 90
3 90 69 70
3 90 70 91
3 91 70 88
3 92 71 93
3 93 71 90
3 74 72 94
3 94 72 79
3 86 73 95
3 95 73 74
3 95 74 96
3 96 74 94
3 97 86 95
3 76 85 99
3 75 77 100
3 83 75 100
3 76 99 101
3 77 76 101
3 77 101 102
3 100 77 102
3 94 79 103
3 78 81 104
3 79 78 104
3 79 104 103
3 80 84 105
3 81 80 105
3 81 105 106
3 104 81 106
3 82 83 107
3 83 100 107
3 82 107 84
3 84 107 108
3 105 84 108
3 85 109 99
3 89 87 110
3 87 86 110
3 110 86 97
3 91 88 111
3 111 88 89
3 111 89 110
3 93 90 112
3 112 90 91
3 112 91 113
3 113 91 111
3 98 92 114
3 114 92 93
3 114 93 115
3 115 93 112
3 116 98 114
3 117 103 118
3 96 94 119
3 94 103 119
3 119 103 117
3 97 95 120
3 120 95 96
3 120 96 119
3 121 110 97
3 121 97 122
3 122 97 120
3 123 119 117
3 124 98 116
3 99 109 125
3 99 125 126
3 101 99 126
3 100 102 127
3 100 127 107
3 101 126 128
3 102 101 128
3 102 128 127
3 104 106 129
3 104 129 103
3 103 129 118
3 105 108 130
3 106 105 130
3 106 130 129
3 107 127 131
3 108 107 131
3 108 131 132
3 108 132 130
3 109 134 125
3 125 134 133
3 113 111 135
3 111 110 135
3 135 110 121
3 115 112 136
3 136 112 113
3 136 113 135
3 116 114 137
3 137 114 115
3 137 115 138
3 138 115 136
3 139 124 116
3 139 116 140
3 140 116 137
3 141 135 121
3 118 129 142
3 118 142 143
3 117 118 143
3 123 117 143
3 122 120 144
3 120 119 144
3 144 119 123
3 141 121 145
3 145 121 122
3 145 122 144
3 146 141 145
3 147 144 123
3 147 123 148
3 143 148 123
3 150 124 139
3 149 150 139
3 131 127 151
3 125 133 152
3 126 125 152
3 126 152 153
3 128 126 153
3 128 153 154
3 128 154 127
3 127 154 151
3 152 133 155
3 130 132 156
3 130 156 129
3 129 156 142
3 131 151 157
3 132 131 157
3 132 157 156
3 156 158 142
3 157 151 159
3 133 160 155
3 134 161 133
3 133 161 160
3 138 136 162
3 136 135 162
3 162 135 141
3 140 137 163
3 163 137 138
3 163 138 162
3 149 139 164
3 164 139 140
3 164 140 165
3 165 140 163
3 166 149 164
3 167 162 141
3 167 141 146
3 142 158 168
3 143 142 168
3 143 168 148
3 146 145 169
3 145 144 169
3 169 144 147
3 170 167 146
3 170 146 169
3 171 169 147
3 171 147 148
3 171 148 172
3 168 172 148
3 173 149 166
3 174 150 149
3 173 174 149
3 154 175 151
3 151 175 159
3 152 155 176
3 153 152 176
3 153 176 177
3 153 177 154
3 154 177 175
3 155 160 178
3 155 178 179
3 176 155 179
3 156 157 180
3 156 180 158
3 157 159 181
3 157 181 180
3 158 180 182
3 158 182 168
3 159 175 183
3 159 183 181
3 175 184 183
3 160 186 178
3 178 186 185
3 161 187 160
3 160 187 186
3 165 163 188
3 163 162 188
3 188 162 167
3 166 164 189
3 189 164 165
3 189 165 188
3 190 173 166
3 190 166 191
3 191 166 189
3 192 188 167
3 192 167 170
3 193 192 170
3 182 194 168
3 194 172 168
3 193 170 195
3 170 169 195
3 195 169 171
3 196 195 171
3 196 171 172
3 194 197 172
3 197 198 172
3 198 196 172
3 200 173 190
3 199 200 190
3 201 174 173
3 200 201 173
3 176 179 202
3 177 176 202
3 177 202 175
3 175 202 184
3 178 185 203
3 178 203 179
3 179 203 202
3 203 185 204
3 202 205 184
3 183 206 181
3 180 181 206
3 180 206 182
3 182 206 194
3 183 184 207
3 205 207 184
3 183 207 206
3 185 208 204
3 186 209 185
3 185 209 208
3 187 210 186
3 186 210 209
3 191 189 211
3 189 188 211
3 211 188 192
3 199 190 212
3 212 190 191
3 212 191 211
3 213 199 212
3 214 211 192
3 214 192 193
3 215 214 193
3 215 193 195
3 206 216 194
3 216 197 194
3 216 217 197
3 215 195 218
3 218 195 196
3 198 218 196
3 217 219 197
3 219 218 198
3 197 219 198
3 220 199 213
3 221 200 199
3 220 221 199
3 222 201 200
3 221 222 200
3 203 204 223
3 203 223 202
3 202 223 205
3 204 208 224
3 204 224 223
3 205 223 225
3 205 225 207
3 207 225 226
3 207 226 206
3 226 216 206
3 208 228 224
3 224 228 227
3 209 229 208
3 229 228 208
3 210 230 209
3 209 230 229
3 213 212 231
3 212 211 231
3 231 211 214
3 232 220 213
3 232 213 231
3 233 231 214
3 233 214 215
3 234 233 215
3 234 215 218
3 226 235 216
3 235 217 216
3 235 236 217
3 217 236 219
3 237 234 218
3 237 218 219
3 236 238 219
3 238 237 219
3 240 220 232
3 239 240 232
3 241 221 220
3 240 241 220
3 242 222 221
3 241 242 221
3 224 227 243
3 224 243 223
3 223 243 225
3 225 243 244
3 225 244 226
3 226 244 235
3 227 245 243
3 228 246 227
3 227 246 245
3 229 247 228
3 228 247 246
3 230 248 229
3 229 248 247
3 239 232 249
3 232 231 249
3 249 231 233
3 250 249 233
3 250 233 234
3 237 250 234
3 244 251 235
3 235 251 236
3 251 252 236
3 236 252 238
3 252 253 238
3 253 250 237
3 253 237 238
3 254 239 249
3 255 240 239
3 254 255 239
3 256 241 240
3 255 256 240
3 257 242 241
3 256 257 241
3 245 258 243
3 243 258 244
3 244 258 251
3 245 259 258
3 246 260 245
3 245 260 259
3 247 261 246
3 246 261 260
3 248 262 247
3 247 262 261
3 254 249 263
3 263 249 250
3 253 263 250
3 258 264 251
3 251 264 252
3 264 265 252
3 265 263 253
3 252 265 253
3 266 254 263
3 267 255 254
3 266 267 254
3 268 256 255
3 267 268 255
3 269 257 256
3 268 269 256
3 259 270 258
3 270 264 258
3 260 271 259
3 259 271 270
3 261 272 260
3 260 272 271
3 262 273 261
3 273 272 261
3 270 274 264
3 275 266 263
3 275 263 265
3 274 276 264
3 276 265 264
3 276 277 265
3 277 275 265
3 278 267 266
3 275 278 266
3 279 268 267
3 278 279 267
3 280 269 268
3 279 280 268
3 271 281 270
3 270 281 274
3 272 282 271
3 271 282 281
3 273 283 272
3 272 283 282
3 281 284 274
3 274 284 276
3 285 278 275
3 277 285 275
3 284 286 276
3 286 285 277
3 276 286 277
3 287 279 278
3 285 287 278
3 288 280 279
3 287 288 279
3 282 289 281
3 281 289 284
3 283 290 282
3 282 290 289
3 289 291 284
3 284 291 286
3 291 292 286
3 292 287 285
3 286 292 285
3 293 288 287
3 292 293 287
3 290 294 289
3 289 294 291
3 294 295 291
3 295 293 292
3 291 295 292
CELL_TYPES 542
5
5
5
5
5
5
5
5
5
5
5
5
5
5
5
5
5
5
5
5
5
5
5
5
5
5
5
5
5
5
5
5
5
5
5
5
5
5
5
5
5
5
5
5
5
5
5
5
5
5
5
5
5
5
5
5
5
5
5
5
5
5
5
5
5
5
5
5
5
5
5
5
5
5
5
5
5
5
5
5
5
5
5
5
5
5
5
5
5
5
5
5
5
5
5
5
5
5
5
5
5
5
5
5
5
5
5
5
5
5
5
5
5
5
5
5
5
5
5
5
5
5
5
5
5
5
5
5
5
5
5
5
5
5
5
5
5
5
5
5
5
5
5
5
5
5
5
5
5
5
5
5
5
5
5
5
5
5
5
5
5
5
5
5
5
5
5
5
5
5
5
5
5
5
5
5
5
5
5
5
5
5
5
5
5
5
5
5
5
5
5
5
5
5
5
5
5
5
5
5
5
5
5
5
5
5
5
5
5
5
5
5
5
5
5
5
5
5
5
5
5
5
5
5
5
5
5
5
5
5
5
5
5
5
5
5
5
5
5
5
5
5
5
5
5
5
5
5
5
5
5
5
5
5
5
5
5
5
5
5
5
5
5
5
5
5
5
5
5
5
5
5
5
5
5
5
5
5
5
5
5
5
5
5
5
5
5
5
5
5
5
5
5
5
5
5
5
5
5
5
5
5
5
5
5
5
5
5
5
5
5
5
5
5
5
5
5
5
5
5
5
5
5
5
5
5
5
5
5
5
5
5
5
5
5
5
5
5
5
5
5
5
5
5
5
5
5
5
5
5
5
5
5
5
5
5
5
5
5
5
5
5
5
5
5
5
5
5
5
5
5
5
5
5
5
5
5
5
5
5
5
5
5
5
5
5
5
5
5
5
5
5
5
5
5
5
5
5
5
5
5
5
5
5
5
5
5
5
5
5
5
5
5
5
5
5
5
5
5
5
5
5
5
5
5
5
5
5
5
5
5
5
5
5
5
5
5
5
5
5
5
5
5
5
5
5
5
5
5
5
5
5
5
5
5
5
5
5
5
5
5
5
5
5
5
5
5
5
5
5
5
5
5
5
5
5
5
5
5
5
5
5
5
5
5
5
5
5
5
5
5
5
5
5
5
5
5
5
5
5
5
5
5
5
5
5
5
5
5
5
5
5
5
5
5
5
5
5
5
5
5
5
5
5
5
5
5
5
5
5
5
5
5
5
5
5
5
5
5
5
5
5
POINT_DATA 296
SCALARS concentrations float 4
LOOKUP_TABLE default
0 0.978613 0.184226 15.0882
0 0.978619 0.185925 12.8784
0 0.978658 0.177972 10.9728
0 0.978586 0.173749 21.0555
0 0.978628 0.0963735 0.25042
0 0.978639 0.185341 14.9954
0 0.978664 0.187083 9.98298
0 0.978605 0.105747 -1.25323
0 0.978617 0.0979411 0.184328
0 0.978615 0.184737 8.78474
0 0.978493 0.171537 25.2444
0 0.978672 0.181084 2.69494
0 0.978809 0.183713 10.5099
0 0.978612 0.0952573 0.0685333
0 0.978619 0.094758 -0.211154
0 0.978605 0.0954821 0.702231
0 0.978613 0.0992734 -0.514169
0 0.978649 0.0946658 -0.122632
0 0.978653 0.0938283 0.0815548
0 0.978597 0.102132 1.4851
0 0.978612 0.104706 -1.75675
0 0.978521 0.177558 13.3298
0 0.978677 0.182485 4.21679
0 0.978582 0.0943238 -0.50396
0 0.978539 0.0953395 -0.4808
0 0.978708 0.0948838 1.07272
0 0.978906 0.169792 -0.0309088
0 0.978798 0.0944001 0.245735
0 0.978786 0.172702 11.623
0 0.978615 0.0951129 -0.460539
0 0.978639 0.0940142 0.167246
0 0.978605 0.0949017 -0.689832
0 0.978645 0.183561 14.4253
0 0.978605 0.0949524 -0.490478
0 0.978615 0.0954429 1.03638
0 0.978646 0.104251 3.00108
0 0.978639 0.0943923 0.578139
0 0.978598 0.0950904 0.0161427
0 0.978623 0.101494 -0.281525
0 0.978624 0.0945998 -0.309142
0 0.978674 0.0939904 -0.187703
0 0.978633 0.0954248 0.818512
0 0.978637 0.0954225 1.75017
0 0.978632 0.184043 10.1984
0 0.978665 0.0953733 1.2551
0 0.978802 0.100406 0.985462
0 0.978683 0.097269 2.43935
0 0.978552 0.181457 17.5407
0 0.97865 0.0943885 0.767094
0 0.978475 0.174351 21.5469
0 0.978614 0.0954451 -0.265475
0 0.978617 0.096094 -0.566945
0 0.978599 0.0942706 -0.37729
0 0.978623 0.0942355 -0.971432
0 0.978683 0.0950257 -1.01282
0 0.978596 0.0958433 0.469232
0 0.978639 0.0977346 -1.679
0 0.978657 0.09421 0.525858
0 0.978607 0.0949044 -0.527725
0 0.978647 0.0951583 1.45916
0 0.97863 0.0942592 0.603056
0 0.97864 0.0956643 0.432551
0 0.978628 0.0951338 1.96078
0 0.978767 0.176794 7.11961
0 0.978621 0.0981105 0.482214
0 0.978662 0.0965488 -1.22622
0 0.978633 0.101436 -0.0811989
0 0.978528 0.0945581 0.497007
0 0.978605 0.0948786 0.168221
0 0.978573 0.185685 9.01519
0 0.97855 0.0942913 0.0875102
0 0.978655 0.178624 6.12915
0 0.978603 0.0946128 -0.262393
0 0.978609 0.095093 -0.0314156
0 0.978614 0.0952001 0.82964
0 0.978619 0.0951924 -0.883401
0 0.978764 0.0949759 -0.840748
0 0.978663 0.095835 -0.00831974
0 0.978604 0.0946646 -0.542519
0 0.978624 0.097755 0.995753
0 0.978622 0.0949043 -1.13653
0 0.97862 0.0941633 -0.713691
0 0.978617 0.097293 -1.56358
0 0.978592 0.0955407 1.24185
0 0.978613 0.0983 -1.40004
0 0.978806 0.182172 1.93091
0 0.978611 0.0946914 -0.478972
0 0.97862 0.0954725 -1.49523
0 0.978602 0.0953702 -0.368838
0 0.978623 0.0946305 1.26333
0 0.978653 0.0949113 1.11902
0 0.978641 0.0949997 1.44964
0 0.978545 0.17748 18.3065
0 0.97865 0.0959241 0.701431
0 0.978631 0.0952265 -0.682452
0 0.978616 0.0947495 0.431172
0 0.978628 0.0936519 0.328575
0 0.978618 0.0960643 0.976248
0 0.978536 0.178132 12.1939
0 0.978789 0.096286 0.273904
0 0.978605 0.0959202 -0.788576
0 0.978713 0.0962467 0.459942
0 0.978663 0.0955594 1.79124
0 0.978648 0.0941072 -0.812705
0 0.978641 0.0992102 -1.56317
0 0.978615 0.096196 1.51111
0 0.978636 0.0941287 -0.450768
0 0.978604 0.096903 -0.482876
0 0.978629 0.0955141 -1.6923
0 0.978813 0.177991 -1.39796
0 0.978619 0.0946746 -1.00381
0 0.978629 0.0949954 1.34174
0 0.978675 0.0960467 1.19712
0 0.978638 0.0954547 1.49933
0 0.978586 0.0961108 1.10251
0 0.97867 0.0971228 -0.98771
0 0.978634 0.0956526 0.0384649
0 0.97867 0.0937724 -0.250247
0 0.978684 0.0930559 -0.296076
0 0.978638 0.0948466 0.272194
0 0.978626 0.0995282 -0.540946
0 0.978622 0.0950071 -0.887826
0 0.978627 0.0961616 0.448789
0 0.978665 0.0942232 0.100808
0 0.978614 0.180614 9.3532
0 0.978799 0.0992111 4.43848
0 0.97875 0.0966036 -0.479885
0 0.978622 0.0959916 -0.485764
0 0.97867 0.0954082 -0.763228
0 0.978658 0.0951001 -0.922586
0 0.978641 0.0951328 -1.27456
0 0.978632 0.09357 0.322686
0 0.978656 0.0938627 0.752287
0 0.97877 0.0955948 1.0738
0 0.978784 0.178438 12.4602
0 0.978624 0.0941375 -0.805703
0 0.978646 0.0954477 1.18623
0 0.978665 0.0965974 0.137631
0 0.978643 0.095679 -1.75838
0 0.978641 0.0945658 -0.155262
0 0.978684 0.0945264 0.512813
0 0.97863 0.0943616 -0.0223111
0 0.978684 0.0928487 -0.0892958
0 0.97869 0.0929658 -0.0311255
0 0.978641 0.0964005 -0.694328
0 0.978641 0.0950041 0.0325119
0 0.978648 0.0945297 0.293874
0 0.97866 0.0951104 -0.124444
0 0.978683 0.0954112 0.207853
0 0.978667 0.094491 -0.508091
0 0.9786 0.183879 14.2774
0 0.978618 0.0953158 2.0541
0 0.97872 0.10148 1.45019
0 0.978653 0.0966161 0.892367
0 0.978621 0.0968179 0.00984552
0 0.978694 0.0970112 -0.327232
0 0.978666 0.0934651 0.0389761
0 0.978636 0.0955798 2.50803
0 0.978691 0.0932658 0.00787512
0 0.978589 0.0936115 0.107548
0 0.97875 0.0965887 2.47646
0 0.978766 0.175469 1.75421
0 0.978633 0.0957707 -0.0863672
0 0.97865 0.0949606 -0.356455
0 0.978671 0.0945639 1.06043
0 0.978658 0.0942104 0.244027
0 0.978676 0.0957522 1.4038
0 0.978631 0.0950761 0.165663
0 0.978686 0.0938772 0.163004
0 0.978655 0.098261 0.875461
0 0.978641 0.0958382 -0.254075
0 0.978671 0.0934958 -0.16431
0 0.978681 0.093011 -0.321591
0 0.978775 0.0954453 -1.24955
0 0.978744 0.177467 8.49958
0 0.978584 0.0965108 2.3994
0 0.978598 0.0962287 -1.42824
0 0.978586 0.0964387 -2.64026
0 0.978684 0.0957764 1.41113
0 0.978624 0.0977803 -0.715145
0 0.978674 0.0968347 2.84015
0 0.978614 0.0968591 2.8329
0 0.978691 0.0934421 0.277307
0 0.978594 0.0942582 -0.301145
0 0.97857 0.0938167 -0.397743
0 0.978681 0.0948675 1.2423
0 0.978739 0.0949273 1.45941
0 0.978756 0.177982 12.556
0 0.978634 0.0959189 -0.305648
0 0.97864 0.0962562 -1.42498
0 0.978681 0.0960673 0.631942
0 0.978647 0.0957063 0.368094
0 0.978623 0.0951955 0.388263
0 0.97863 0.0937984 0.900834
0 0.978678 0.0952168 -0.024304
0 0.978659 0.0956002 -1.24475
0 0.978684 0.0942313 0.368306
0 0.97866 0.0984199 0.768925
0 0.978671 0.0942479 -0.452158
0 0.978664 0.0954655 1.3311
0 0.978783 0.095255 -0.683993
0 0.97886 0.17495 3.55077
0 0.978581 0.0950952 -0.478311
0 0.97863 0.0963878 -0.142202
0 0.978634 0.0952862 0.167207
0 0.978596 0.0948617 -0.830245
0 0.978655 0.0954371 0.225013
0 0.978624 0.0944494 -0.584094
0 0.978675 0.0950124 -0.388449
0 0.978756 0.0945382 -0.598709
0 0.978792 0.176644 2.68786
0 0.978628 0.0995172 -0.720455
0 0.978623 0.0978226 1.66122
0 0.978631 0.101096 0.144058
0 0.978623 0.0951551 -0.296412
0 0.978645 0.0944479 -1.33651
0 0.978663 0.0948622 -0.353313
0 0.97864 0.10323 -2.91365
0 0.97867 0.0940223 -0.890382
0 0.978657 0.100299 0.426474
0 0.978698 0.0965043 -1.21817
0 0.978769 0.0945153 0.282099
0 0.978813 0.174107 -0.76019
0 0.978611 0.095784 0.0053239
0 0.978637 0.0950135 0.306527
0 0.978628 0.095078 -0.29516
0 0.978644 0.0958588 1.14602
0 0.978636 0.0957753 0.16461
0 0.978647 0.0952821 -0.304267
0 0.978685 0.0943064 0.17996
0 0.978762 0.181508 4.72144
0 0.97863 0.0974794 1.89912
0 0.978657 0.0962219 0.965457
0 0.978624 0.0969782 -0.0710418
0 0.978633 0.097075 1.22691
0 0.978638 0.0957283 0.304396
0 0.978627 0.0956518 -1.72655
0 0.978653 0.0968786 1.34427
0 0.978647 0.0963121 -0.800086
0 0.97865 0.0953606 -1.78883
0 0.978713 0.0956257 1.11296
0 0.978814 0.0960712 -1.78952
0 0.978843 0.176452 8.62192
0 0.978627 0.0957596 -0.0655887
0 0.97863 0.096017 -0.031808
0 0.978631 0.0957915 -0.504366
0 0.978627 0.0951563 0.252421
0 0.97858 0.0943866 -0.541368
0 0.978614 0.183361 17.0963
0 0.978629 0.0967097 0.91303
0 0.978613 0.0952795 0.343984
0 0.978625 0.096699 0.777346
0 0.978612 0.0970319 -1.40406
0 0.978616 0.0946614 -1.11253
0 0.978653 0.0954969 -1.91626
0 0.978712 0.0946021 0.485302
0 0.978803 0.0941523 -0.298791
0 0.978875 0.175416 -0.444188
0 0.978627 0.0958869 0.141563
0 0.97864 0.0950447 -0.317745
0 0.978642 0.0948544 0.499872
0 0.978575 0.0942503 -0.657699
0 0.978516 0.178552 13.3928
0 0.978621 0.0960697 1.37656
0 0.978622 0.095115 0.508349
0 0.978613 0.0965354 -0.57759
0 0.978652 0.0956081 0.865719
0 0.978704 0.0954003 0.990052
0 0.978739 0.0941331 -0.755316
0 0.978793 0.178164 -0.803986
0 0.978636 0.0954292 1.19438
0 0.978654 0.0946388 0.208192
0 0.978671 0.0943325 -0.396608
0 0.978605 0.183031 12.9983
0 0.978634 0.0955969 0.714181
0 0.978635 0.0955345 1.50308
0 0.978634 0.0956102 1.47283
0 0.978637 0.0951476 0.859818
0 0.978692 0.0961441 1.56116
0 0.978743 0.0950785 -1.00413
0 0.978734 0.177688 8.87777
0 0.978644 0.0946098 0.989986
0 0.978664 0.0939925 0.812298
0 0.978711 0.175891 9.35826
0 0.978659 0.0950569 1.36539
0 0.978691 0.0961474 0.13482
0 0.978683 0.0950133 0.7611
0 0.978741 0.0957135 -1.13258
0 0.978773 0.174342 7.5714
0 0.978664 0.0944169 1.32934
0 0.978638 0.180005 10.7342
0 0.978763 0.0950423 1.34553
0 0.978748 0.0958115 1.6294
0 0.978748 0.175346 4.24978
0 0.978753 0.176811 7.72269
0 0.97881 0.17379 5.72222
VECTORS fa_u float
0.00659404 0.00268888 -0
0.00604106 0.00348028 -0
0.00463713 0.00125162 -0
0.00676928 0.00096295 -0
1e-08 0 0
0.00519331 0.00399115 -0
0.00364174 0.00358793 -0
1e-08 0 0
1e-08 0 0
0.00424744 0.00537661 -0
0.00404035 0.00690017 -0
0.00656608 6.18772e-05 -0
0.00634439 -0.000766487 0
1e-08 0 0
1e-08 0 0
1e-08 0 0
1e-08 0 0
1e-08 0 0
1e-08 0 0
1e-08 0 0
1e-08 0 0
0.00272424 0.00663817 -0
0.0016521 0.00631553 -0
1e-08 0 0
1e-08 0 0
1e-08 0 0
0.00746369 -0.0019483 0
1e-08 0 0
0.0080334 -0.00341302 0
1e-08 0 0
1e-08 0 0
1e-08 0 0
0.000845905 0.00677948 -0
1e-08 0 0
1e-08 0 0
1e-08 0 0
1e-08 0 0
1e-08 0 0
1e-08 0 0
1e-08 0 0
1e-08 0 0
1e-08 0 0
1e-08 0 0
-7.05085e-05 0.00701983 -0
1e-08 0 0
1e-08 0 0
1e-08 0 0
0.0057175 -0.00345193 0
1e-08 0 0
0.00389012 -0.00305326 0
1e-08 0 0
1e-08 0 0
1e-08 0 0
1e-08 0 0
1e-08 0 0
1e-08 0 0
1e-08 0 0
1e-08 0 0
1e-08 0 0
1e-08 0 0
1e-08 0 0
1e-08 0 0
1e-08 0 0
-0.000729881 0.00530917 0
1e-08 0 0
1e-08 0 0
1e-08 0 0
1e-08 0 0
1e-08 0 0
0.00399567 -0.00397441 0
1e-08 0 0
0.00344724 -0.00437215 0
1e-08 0 0
1e-08 0 0
1e-08 0 0
1e-08 0 0
1e-08 0 0
1e-08 0 0
1e-08 0 0
1e-08 0 0
1e-08 0 0
1e-08 0 0
1e-08 0 0
1e-08 0 0
1e-08 0 0
-0.00156773 0.00593087 0
1e-08 0 0
1e-08 0 0
1e-08 0 0
1e-08 0 0
1e-08 0 0
1e-08 0 0
0.00423899 -0.00716766 0
1e-08 0 0
1e-08 0 0
1e-08 0 0
1e-08 0 0
1e-08 0 0
0.00300269 -0.00733229 0
1e-08 0 0
1e-08 0 0
1e-08 0 0
1e-08 0 0
1e-08 0 0
1e-08 0 0
1e-08 0 0
1e-08 0 0
1e-08 0 0
1e-08 0 0
-0.00267213 0.00651797 0
1e-08 0 0
1e-08 0 0
1e-08 0 0
1e-08 0 0
1e-08 0 0
1e-08 0 0
1e-08 0 0
1e-08 0 0
1e-08 0 0
1e-08 0 0
1e-08 0 0
1e-08 0 0
1e-08 0 0
1e-08 0 0
0.00152429 -0.00586569 0
1e-08 0 0
1e-08 0 0
1e-08 0 0
1e-08 0 0
1e-08 0 0
1e-08 0 0
1e-08 0 0
1e-08 0 0
1e-08 0 0
-0.00344263 0.00596221 0
1e-08 0 0
1e-08 0 0
1e-08 0 0
1e-08 0 0
1e-08 0 0
1e-08 0 0
1e-08 0 0
1e-08 0 0
1e-08 0 0
1e-08 0 0
1e-08 0 0
1e-08 0 0
1e-08 0 0
1e-08 0 0
1e-08 0 0
0.000697567 -0.00520535 0
1e-08 0 0
1e-08 0 0
1e-08 0 0
1e-08 0 0
1e-08 0 0
1e-08 0 0
1e-08 0 0
1e-08 0 0
1e-08 0 0
1e-08 0 0
-0.00427617 0.00553381 0
1e-08 0 0
1e-08 0 0
1e-08 0 0
1e-08 0 0
1e-08 0 0
1e-08 0 0
1e-08 0 0
1e-08 0 0
1e-08 0 0
1e-08 0 0
1e-08 0 0
1e-08 0 0
4.89053e-05 -0.00704173 0
1e-08 0 0
1e-08 0 0
1e-08 0 0
1e-08 0 0
1e-08 0 0
1e-08 0 0
1e-08 0 0
1e-08 0 0
1e-08 0 0
1e-08 0 0
1e-08 0 0
1e-08 0 0
-0.00341285 0.00344105 0
1e-08 0 0
1e-08 0 0
1e-08 0 0
1e-08 0 0
1e-08 0 0
1e-08 0 0
1e-08 0 0
1e-08 0 0
1e-08 0 0
1e-08 0 0
1e-08 0 0
1e-08 0 0
1e-08 0 0
-0.000860545 -0.00673093 0
1e-08 0 0
1e-08 0 0
1e-08 0 0
1e-08 0 0
1e-08 0 0
1e-08 0 0
1e-08 0 0
1e-08 0 0
-0.00508272 0.00401579 0
1e-08 0 0
1e-08 0 0
1e-08 0 0
1e-08 0 0
1e-08 0 0
1e-08 0 0
1e-08 0 0
1e-08 0 0
1e-08 0 0
1e-08 0 0
1e-08 0 0
-0.00163094 -0.00617757 0
1e-08 0 0
1e-08 0 0
1e-08 0 0
1e-08 0 0
1e-08 0 0
1e-08 0 0
1e-08 0 0
-0.00692777 0.00407254 0
1e-08 0 0
1e-08 0 0
1e-08 0 0
1e-08 0 0
1e-08 0 0
1e-08 0 0
1e-08 0 0
1e-08 0 0
1e-08 0 0
1e-08 0 0
1e-08 0 0
-0.00275445 -0.00667878 0
1e-08 0 0
1e-08 0 0
1e-08 0 0
1e-08 0 0
1e-08 0 0
-0.00667098 0.00274783 0
1e-08 0 0
1e-08 0 0
1e-08 0 0
1e-08 0 0
1e-08 0 0
1e-08 0 0
1e-08 0 0
1e-08 0 0
-0.00399891 -0.00680622 0
1e-08 0 0
1e-08 0 0
1e-08 0 0
1e-08 0 0
-0.00625919 0.00164703 0
1e-08 0 0
1e-08 0 0
1e-08 0 0
1e-08 0 0
1e-08 0 0
1e-08 0 0
-0.00379703 -0.00483126 0
1e-08 0 0
1e-08 0 0
1e-08 0 0
-0.006738 0.00085321 0
1e-08 0 0
1e-08 0 0
1e-08 0 0
1e-08 0 0
1e-08 0 0
1e-08 0 0
-0.00370493 -0.00369011 0
1e-08 0 0
1e-08 0 0
-0.00740878 -7.25575e-05 0
1e-08 0 0
1e-08 0 0
1e-08 0 0
1e-08 0 0
-0.00543988 -0.00420816 0
1e-08 0 0
-0.00509284 -0.000702749 0
1e-08 0 0
1e-08 0 0
-0.00618888 -0.0035721 0
-0.00590665 -0.00155592 0
-0.00647944 -0.00264735 0
