# vtk DataFile Version 2.0
CellBP Time: 3.4
ASCII
DATASET UNSTRUCTURED_GRID
POINTS 296 double
-9.06291 -3.7182 0
-8.49427 -4.88007 0
-9.46751 -2.48825 0
-9.73399 -1.23353 0
-8.22315 -2.76258 0
-7.77334 -5.95658 0
-6.91843 -6.92987 0
-7.78334 -3.80046 0
-7.21445 -4.78502 0
-5.96543 -7.79497 0
-4.90824 -8.52448 0
-9.83119 0.0432536 0
-9.7614 1.33383 0
-8.53342 -1.65036 0
-8.67524 -0.516879 0
-7.46172 -1.9578 0
-7.09446 -2.84149 0
-6.53649 -5.69792 0
-5.7453 -6.52006 0
-6.66291 -3.81213 0
-6.11053 -4.59767 0
-3.74715 -9.09625 0
-2.51338 -9.50531 0
-4.85193 -7.23619 0
-3.88156 -7.81407 0
-8.68854 0.634255 0
-9.52406 2.61408 0
-8.53043 1.7504 0
-9.10887 3.84151 0
-7.62686 -0.906343 0
-7.68529 0.0845475 0
-6.83976 -1.2825 0
-1.23574 -9.75152 0
-6.33787 -2.10852 0
-6.21286 -2.99631 0
-5.45089 -5.399 0
-4.73063 -6.04267 0
-5.56495 -3.69314 0
-5.17835 -4.4922 0
-2.84376 -8.28438 0
-1.763 -8.5515 0
-3.88461 -6.65218 0
-3.03447 -7.08503 0
0.0529364 -9.8235 0
-7.60504 1.12816 0
-8.26183 2.88766 0
-7.45979 2.07803 0
-8.51251 4.98791 0
-7.79188 3.92693 0
-7.76884 6.04861 0
-6.67783 -0.382875 0
-6.85538 0.549333 0
-5.69399 -0.987502 0
-0.587413 -8.70991 0
0.553437 -8.65731 0
-5.22877 -2.44096 0
-4.41873 -5.02532 0
-3.84838 -5.70771 0
-4.37602 -3.75607 0
-2.04143 -7.48557 0
-1.12519 -7.70258 0
-2.96033 -6.03546 0
-2.29045 -6.55338 0
1.33247 -9.72162 0
-6.60088 1.40123 0
-7.07805 3.07023 0
-6.574 2.33959 0
-7.20198 4.91789 0
-6.63126 3.94368 0
-6.91723 7.01354 0
-6.48366 5.8117 0
-5.95423 7.87316 0
-4.41156 -1.17352 0
-5.74535 0.50116 0
-4.61528 -0.0200601 0
0.00231507 -7.74671 0
1.70679 -8.51611 0
0.925235 -7.65291 0
-3.99912 -2.38052 0
-3.46992 -1.38473 0
-3.25525 -4.75216 0
-3.24062 -3.23592 0
-1.3711 -6.60019 0
-0.51345 -6.93729 0
-1.96121 -5.48338 0
2.59844 -9.47143 0
-5.44346 2.01341 0
-6.01556 3.02614 0
-6.02471 4.79691 0
-5.68393 3.92688 0
-5.67984 6.61947 0
-5.37846 5.53383 0
-4.89688 8.61314 0
-4.76839 7.29257 0
-3.48019 -0.421882 0
-4.40519 1.23817 0
-3.68094 0.587738 0
-4.02132 2.30487 0
-3.74159 9.18672 0
2.80673 -8.19249 0
0.396069 -6.69624 0
1.97422 -7.40158 0
1.26767 -6.79541 0
-2.43426 -0.867903 0
-2.82446 -2.11857 0
-2.2783 -4.05951 0
-2.31085 -2.94954 0
-0.447995 -5.79008 0
-1.21156 -4.45955 0
3.82311 -9.06498 0
-4.72904 3.34817 0
-5.02132 4.52371 0
-4.58118 6.18181 0
-4.47736 5.27768 0
-3.79602 7.88922 0
-3.76783 6.73379 0
-2.74506 8.3045 0
-1.64267 -0.130775 0
-1.44284 -0.88365 0
-2.47992 0.513175 0
-3.22802 1.44043 0
-3.2058 3.28743 0
-2.88766 2.36617 0
-1.35332 0.633894 0
-2.51148 9.58815 0
3.85992 -7.75339 0
2.8982 -7.02333 0
0.926189 -5.73685 0
2.02397 -6.30547 0
-1.67268 -1.98408 0
-1.42487 -3.25475 0
0.0858394 -4.69712 0
-0.560112 -3.66584 0
4.8491 -7.19364 0
4.98114 -8.49669 0
-3.72988 4.4931 0
-3.68374 5.66672 0
-2.84175 7.17622 0
-2.96694 6.25965 0
-1.64315 8.62214 0
-1.90726 7.51393 0
-2.31751 4.01411 0
-0.724687 -1.3217 0
-0.833688 -0.251177 0
-1.93301 1.68711 0
-2.11329 2.86668 0
-1.30067 3.52448 0
-0.87098 1.35585 0
-0.283671 0.461001 0
-0.529787 8.76828 0
-1.24003 9.83429 0
1.09046 -4.51481 0
3.82793 -6.58006 0
2.92574 -5.98108 0
2.07263 -5.33579 0
4.70204 -6.08672 0
-0.552587 -2.46713 0
0.49259 -3.43665 0
0.0574693 -1.60751 0
1.46284 -3.638 0
5.78072 -6.50462 0
6.05574 -7.77607 0
-2.44517 5.27977 0
-2.09652 6.44146 0
-0.885701 7.70843 0
-1.24533 6.83825 0
0.091397 7.79607 0
-1.13573 4.4539 0
0.148948 -0.615355 0
-0.803746 2.49278 0
-0.338257 3.58662 0
0.0574403 1.51528 0
0.737658 0.473524 0
0.637622 8.78161 0
0.0460005 9.93208 0
2.34349 -4.21991 0
3.78964 -5.53188 0
2.94759 -5.12072 0
5.496 -5.3968 0
4.61598 -5.17916 0
0.629832 -2.28815 0
1.24591 -2.92829 0
0.757282 -1.38946 0
2.13915 -3.09988 0
2.95744 -3.42809 0
6.08215 -4.71961 0
6.5745 -5.6857 0
7.02478 -6.91578 0
-1.00468 5.75186 0
-0.358381 6.80041 0
1.11533 7.69225 0
0.560096 7.00395 0
-0.00181784 4.68963 0
0.59912 3.80712 0
1.33589 -0.642368 0
0.530995 2.64547 0
0.958018 1.57606 0
1.9019 0.21178 0
1.60724 1.06131 0
2.1141 7.51313 0
1.78346 8.62864 0
1.33952 9.85427 0
3.76984 -4.27817 0
5.04714 -4.36666 0
5.77969 -3.87311 0
3.74243 -3.15476 0
1.80444 -1.87967 0
2.99309 -2.55025 0
6.71483 -3.89656 0
7.30446 -4.83839 0
7.8891 -5.9589 0
0.483002 5.82157 0
1.41884 6.67614 0
2.35571 6.60936 0
1.19821 4.52278 0
1.47596 3.37521 0
2.42165 -0.691442 0
2.81192 0.142268 0
1.77842 2.15663 0
2.60032 1.14512 0
3.05006 7.10478 0
2.88213 8.2992 0
2.61498 9.60442 0
4.85614 -3.27486 0
6.05918 -3.0657 0
4.13474 -2.25379 0
3.22219 -1.49608 0
6.67058 -2.29225 0
7.1671 -3.01277 0
7.89522 -3.8776 0
8.62101 -4.90259 0
2.00993 5.55309 0
3.04912 6.09227 0
2.34834 4.09411 0
2.40595 3.04021 0
3.50172 -0.456455 0
3.59254 0.613449 0
2.94325 2.27334 0
3.51713 1.51616 0
3.956 5.83281 0
3.94068 6.72485 0
3.94252 7.8676 0
3.84701 9.19341 0
5.52054 -1.89726 0
4.47432 -1.11927 0
6.65054 -1.32294 0
7.52466 -2.01746 0
8.31918 -2.83677 0
9.19502 -3.74412 0
3.37091 4.82402 0
3.30422 3.35262 0
4.65223 0.132414 0
4.47087 1.29513 0
4.01494 2.41378 0
4.49518 5.08561 0
4.77658 6.12068 0
4.92816 7.30117 0
5.00509 8.61882 0
5.82282 -0.43533 0
6.93377 -0.487038 0
7.68503 -1.06977 0
8.60107 -1.72615 0
9.60594 -2.51096 0
4.48319 3.77759 0
5.74199 1.07461 0
5.28771 2.49453 0
5.28404 4.55177 0
5.52316 5.45029 0
5.82226 6.59193 0
6.06158 7.88885 0
6.75658 0.446716 0
7.76509 -0.0264395 0
8.76939 -0.572114 0
9.85339 -1.23385 0
6.85997 1.31593 0
5.62072 3.71742 0
6.43734 2.15046 0
6.26742 3.02969 0
6.18175 4.61337 0
6.58992 5.75892 0
7.02208 7.02911 0
7.68604 0.94703 0
8.75454 0.566037 0
9.92871 0.0574424 0
7.50295 1.96484 0
6.69864 3.82917 0
7.14518 2.88757 0
7.26309 4.81174 0
7.88196 6.06063 0
8.60312 1.7014 0
9.82509 1.3368 0
8.28852 2.78902 0
7.85954 3.85387 0
8.60317 4.98705 0
9.57527 2.60337 0
9.17017 3.82853 0
CELLS 542 2168
3 2 0 4
3 0 1 7
3 4 0 7
3 1 5 8
3 7 1 8
3 3 2 13
3 13 2 4
3 11 3 14
3 14 3 13
3 13 4 15
3 4 7 16
3 15 4 16
3 5 6 17
3 8 5 17
3 6 9 18
3 17 6 18
3 7 8 19
3 16 7 19
3 8 17 20
3 19 8 20
3 9 10 23
3 18 9 23
3 10 21 24
3 23 10 24
3 12 11 25
3 25 11 14
3 26 12 27
3 27 12 25
3 14 13 29
3 29 13 15
3 25 14 30
3 30 14 29
3 29 15 31
3 15 16 33
3 31 15 33
3 16 19 34
3 33 16 34
3 17 18 35
3 20 17 35
3 18 23 36
3 35 18 36
3 19 20 37
3 34 19 37
3 20 35 38
3 37 20 38
3 21 22 39
3 24 21 39
3 22 32 40
3 39 22 40
3 23 24 41
3 36 23 41
3 24 39 42
3 41 24 42
3 27 25 44
3 44 25 30
3 28 26 45
3 45 26 27
3 45 27 46
3 46 27 44
3 47 28 48
3 48 28 45
3 30 29 50
3 50 29 31
3 44 30 51
3 51 30 50
3 50 31 52
3 31 33 52
3 32 43 53
3 40 32 53
3 53 43 54
3 33 34 55
3 34 37 55
3 33 55 52
3 35 36 56
3 38 35 56
3 36 41 57
3 56 36 57
3 37 38 58
3 38 56 58
3 37 58 55
3 39 40 59
3 42 39 59
3 40 53 60
3 59 40 60
3 41 42 61
3 57 41 61
3 42 59 62
3 61 42 62
3 43 63 54
3 46 44 64
3 64 44 51
3 48 45 65
3 65 45 46
3 65 46 66
3 66 46 64
3 49 47 67
3 67 47 48
3 67 48 68
3 68 48 65
3 69 49 70
3 70 49 67
3 52 55 72
3 64 51 73
3 51 50 73
3 50 52 73
3 73 52 74
3 74 52 72
3 53 54 75
3 60 53 75
3 54 63 76
3 54 76 77
3 75 54 77
3 55 58 78
3 72 55 78
3 72 78 79
3 56 57 80
3 57 61 80
3 56 80 58
3 58 80 81
3 78 58 81
3 59 60 82
3 62 59 82
3 60 75 83
3 82 60 83
3 61 62 84
3 62 82 84
3 61 84 80
3 63 85 76
3 66 64 86
3 64 73 86
3 68 65 87
3 87 65 66
3 87 66 86
3 70 67 88
3 88 67 68
3 88 68 89
3 89 68 87
3 71 69 90
3 90 69 70
3 90 70 91
3 91 70 88
3 92 71 93
3 93 71 90
3 74 72 94
3 94 72 79
3 86 73 95
3 95 73 74
3 95 74 96
3 96 74 94
3 97 86 95
3 76 85 99
3 75 77 100
3 83 75 100
3 76 99 101
3 77 76 101
3 77 101 102
3 100 77 102
3 94 79 103
3 78 81 104
3 79 78 104
3 79 104 103
3 80 84 105
3 81 80 105
3 81 105 106
3 104 81 106
3 82 83 107
3 83 100 107
3 82 107 84
3 84 107 108
3 105 84 108
3 85 109 99
3 89 87 110
3 87 86 110
3 110 86 97
3 91 88 111
3 111 88 89
3 111 89 110
3 93 90 112
3 112 90 91
3 112 91 113
3 113 91 111
3 98 92 114
3 114 92 93
3 114 93 115
3 115 93 112
3 116 98 114
3 117 103 118
3 96 94 119
3 94 103 119
3 119 103 117
3 97 95 120
3 120 95 96
3 120 96 119
3 121 110 97
3 121 97 122
3 122 97 120
3 123 119 117
3 124 98 116
3 99 109 125
3 99 125 126
3 101 99 126
3 100 102 127
3 100 127 107
3 101 126 128
3 102 101 128
3 102 128 127
3 104 106 129
3 104 129 103
3 103 129 118
3 105 108 130
3 106 105 130
3 106 130 129
3 107 127 131
3 108 107 131
3 108 131 132
3 108 132 130
3 109 134 125
3 125 134 133
3 113 111 135
3 111 110 135
3 135 110 121
3 115 112 136
3 136 112 113
3 136 113 135
3 116 114 137
3 137 114 115
3 137 115 138
3 138 115 136
3 139 124 116
3 139 116 140
3 140 116 137
3 141 135 121
3 118 129 142
3 118 142 143
3 117 118 143
3 123 117 143
3 122 120 144
3 120 119 144
3 144 119 123
3 141 121 145
3 145 121 122
3 145 122 144
3 146 141 145
3 147 144 123
3 147 123 148
3 143 148 123
3 150 124 139
3 149 150 139
3 131 127 151
3 125 133 152
3 126 125 152
3 126 152 153
3 128 126 153
3 128 153 154
3 128 154 127
3 127 154 151
3 152 133 155
3 130 132 156
3 130 156 129
3 129 156 142
3 131 151 157
3 132 131 157
3 132 157 156
3 156 158 142
3 157 151 159
3 133 160 155
3 134 161 133
3 133 161 160
3 138 136 162
3 136 135 162
3 162 135 141
3 140 137 163
3 163 137 138
3 163 138 162
3 149 139 164
3 164 139 140
3 164 140 165
3 165 140 163
3 166 149 164
3 167 162 141
3 167 141 146
3 142 158 168
3 143 142 168
3 143 168 148
3 146 145 169
3 145 144 169
3 169 144 147
3 170 167 146
3 170 146 169
3 171 169 147
3 171 147 148
3 171 148 172
3 168 172 148
3 173 149 166
3 174 150 149
3 173 174 149
3 154 175 151
3 151 175 159
3 152 155 176
3 153 152 176
3 153 176 177
3 153 177 154
3 154 177 175
3 155 160 178
3 155 178 179
3 176 155 179
3 156 157 180
3 156 180 158
3 157 159 181
3 157 181 180
3 158 180 182
3 158 182 168
3 159 175 183
3 159 183 181
3 175 184 183
3 160 186 178
3 178 186 185
3 161 187 160
3 160 187 186
3 165 163 188
3 163 162 188
3 188 162 167
3 166 164 189
3 189 164 165
3 189 165 188
3 190 173 166
3 190 166 191
3 191 166 189
3 192 188 167
3 192 167 170
3 193 192 170
3 182 194 168
3 194 172 168
3 193 170 195
3 170 169 195
3 195 169 171
3 196 195 171
3 196 171 172
3 194 197 172
3 197 198 172
3 198 196 172
3 200 173 190
3 199 200 190
3 201 174 173
3 200 201 173
3 176 179 202
3 177 176 202
3 177 202 175
3 175 202 184
3 178 185 203
3 178 203 179
3 179 203 202
3 203 185 204
3 202 205 184
3 183 206 181
3 180 181 206
3 180 206 182
3 182 206 194
3 183 184 207
3 205 207 184
3 183 207 206
3 185 208 204
3 186 209 185
3 185 209 208
3 187 210 186
3 186 210 209
3 191 189 211
3 189 188 211
3 211 188 192
3 199 190 212
3 212 190 191
3 212 191 211
3 213 199 212
3 214 211 192
3 214 192 193
3 215 214 193
3 215 193 195
3 206 216 194
3 216 197 194
3 216 217 197
3 215 195 218
3 218 195 196
3 198 218 196
3 217 219 197
3 219 218 198
3 197 219 198
3 220 199 213
3 221 200 199
3 220 221 199
3 222 201 200
3 221 222 200
3 203 204 223
3 203 223 202
3 202 223 205
3 204 208 224
3 204 224 223
3 205 223 225
3 205 225 207
3 207 225 226
3 207 226 206
3 226 216 206
3 208 228 224
3 224 228 227
3 209 229 208
3 229 228 208
3 210 230 209
3 209 230 229
3 213 212 231
3 212 211 231
3 231 211 214
3 232 220 213
3 232 213 231
3 233 231 214
3 233 214 215
3 234 233 215
3 234 215 218
3 226 235 216
3 235 217 216
3 235 236 217
3 217 236 219
3 237 234 218
3 237 218 219
3 236 238 219
3 238 237 219
3 240 220 232
3 239 240 232
3 241 221 220
3 240 241 220
3 242 222 221
3 241 242 221
3 224 227 243
3 224 243 223
3 223 243 225
3 225 243 244
3 225 244 226
3 226 244 235
3 227 245 243
3 228 246 227
3 227 246 245
3 229 247 228
3 228 247 246
3 230 248 229
3 229 248 247
3 239 232 249
3 232 231 249
3 249 231 233
3 250 249 233
3 250 233 234
3 237 250 234
3 244 251 235
3 235 251 236
3 251 252 236
3 236 252 238
3 252 253 238
3 253 250 237
3 253 237 238
3 254 239 249
3 255 240 239
3 254 255 239
3 256 241 240
3 255 256 240
3 257 242 241
3 256 257 241
3 245 258 243
3 243 258 244
3 244 258 251
3 245 259 258
3 246 260 245
3 245 260 259
3 247 261 246
3 246 261 260
3 248 262 247
3 247 262 261
3 254 249 263
3 263 249 250
3 253 263 250
3 258 264 251
3 251 264 252
3 264 265 252
3 265 263 253
3 252 265 253
3 266 254 263
3 267 255 254
3 266 267 254
3 268 256 255
3 267 268 255
3 269 257 256
3 268 269 256
3 259 270 258
3 270 264 258
3 260 271 259
3 259 271 270
3 261 272 260
3 260 272 271
3 262 273 261
3 273 272 261
3 270 274 264
3 275 266 263
3 275 263 265
3 274 276 264
3 276 265 264
3 276 277 265
3 277 275 265
3 278 267 266
3 275 278 266
3 279 268 267
3 278 279 267
3 280 269 268
3 279 280 268
3 271 281 270
3 270 281 274
3 272 282 271
3 271 282 281
3 273 283 272
3 272 283 282
3 281 284 274
3 274 284 276
3 285 278 275
3 277 285 275
3 284 286 276
3 286 285 277
3 276 286 277
3 287 279 278
3 285 287 278
3 288 280 279
3 287 288 279
3 282 289 281
3 281 289 284
3 283 290 282
3 282 290 289
3 289 291 284
3 284 291 286
3 291 292 286
3 292 287 285
3 286 292 285
3 293 288 287
3 292 293 287
3 290 294 289
3 289 294 291
3 294 295 291
3 295 293 292
3 291 295 292
CELL_TYPES 542
5
5
5
5
5
5
5
5
5
5
5
5
5
5
5
5
5
5
5
5
5
5
5
5
5
5
5
5
5
5
5
5
5
5
5
5
5
5
5
5
5
5
5
5
5
5
5
5
5
5
5
5
5
5
5
5
5
5
5
5
5
5
5
5
5
5
5
5
5
5
5
5
5
5
5
5
5
5
5
5
5
5
5
5
5
5
5
5
5
5
5
5
5
5
5
5
5
5
5
5
5
5
5
5
5
5
5
5
5
5
5
5
5
5
5
5
5
5
5
5
5
5
5
5
5
5
5
5
5
5
5
5
5
5
5
5
5
5
5
5
5
5
5
5
5
5
5
5
5
5
5
5
5
5
5
5
5
5
5
5
5
5
5
5
5
5
5
5
5
5
5
5
5
5
5
5
5
5
5
5
5
5
5
5
5
5
5
5
5
5
5
5
5
5
5
5
5
5
5
5
5
5
5
5
5
5
5
5
5
5
5
5
5
5
5
5
5
5
5
5
5
5
5
5
5
5
5
5
5
5
5
5
5
5
5
5
5
5
5
5
5
5
5
5
5
5
5
5
5
5
5
5
5
5
5
5
5
5
5
5
5
5
5
5
5
5
5
5
5
5
5
5
5
5
5
5
5
5
5
5
5
5
5
5
5
5
5
5
5
5
5
5
5
5
5
5
5
5
5
5
5
5
5
5
5
5
5
5
5
5
5
5
5
5
5
5
5
5
5
5
5
5
5
5
5
5
5
5
5
5
5
5
5
5
5
5
5
5
5
5
5
5
5
5
5
5
5
5
5
5
5
5
5
5
5
5
5
5
5
5
5
5
5
5
5
5
5
5
5
5
5
5
5
5
5
5
5
5
5
5
5
5
5
5
5
5
5
5
5
5
5
5
5
5
5
5
5
5
5
5
5
5
5
5
5
5
5
5
5
5
5
5
5
5
5
5
5
5
5
5
5
5
5
5
5
5
5
5
5
5
5
5
5
5
5
5
5
5
5
5
5
5
5
5
5
5
5
5
5
5
5
5
5
5
5
5
5
5
5
5
5
5
5
5
5
5
5
5
5
5
5
5
5
5
5
5
5
5
5
5
5
5
5
5
5
5
5
5
5
5
5
5
5
5
5
5
5
5
5
5
5
5
5
5
5
5
5
5
5
5
5
5
5
5
5
5
5
5
5
5
5
5
5
5
5
5
5
5
5
5
5
5
5
5
5
5
5
5
5
5
5
5
POINT_DATA 296
SCALARS concentrations float 4
LOOKUP_TABLE default
0 0.975937 0.177014 -1.72846
0 0.975887 0.176645 9.43807
0 0.975864 0.175743 3.23899
0 0.975733 0.168238 11.3776
0 0.97587 0.0950846 1.02893
0 0.975815 0.179724 9.18738
0 0.975792 0.18289 6.2419
0 0.975864 0.095502 1.21579
0 0.975806 0.095226 0.945302
0 0.975745 0.17629 7.7459
0 0.975751 0.172668 13.0702
0 0.975885 0.169262 1.28366
0 0.975934 0.167609 6.6372
0 0.975776 0.0939311 0.725924
0 0.975781 0.0937261 0.27753
0 0.975762 0.0946423 0.885363
0 0.97577 0.0955183 1.31303
0 0.975781 0.0943271 0.552544
0 0.975755 0.093851 -0.35109
0 0.97575 0.0957285 0.864978
0 0.975737 0.0966338 0.00297896
0 0.975702 0.176128 12.3147
0 0.975763 0.172994 15.9
0 0.975742 0.0947964 -0.347662
0 0.975719 0.094317 1.18073
0 0.975899 0.0932293 -0.343468
0 0.975714 0.168876 9.30025
0 0.975823 0.0935821 -0.501676
0 0.975609 0.170611 18.33
0 0.975753 0.0945542 1.21489
0 0.975776 0.0934764 -0.159354
0 0.975712 0.0948934 1.25557
0 0.975779 0.177626 5.36448
0 0.975704 0.0946435 1.12319
0 0.975706 0.0949248 0.620899
0 0.975742 0.095537 0.616236
0 0.97573 0.0939491 -0.961415
0 0.975698 0.0946355 0.418102
0 0.975712 0.0948671 0.500371
0 0.975716 0.09417 -0.527938
0 0.975759 0.0949986 1.59355
0 0.975722 0.0961396 -0.327846
0 0.975709 0.0965808 0.463393
0 0.975784 0.172437 12.3626
0 0.975795 0.0939829 0.803048
0 0.975698 0.0970805 -0.571867
0 0.975771 0.0950517 1.12566
0 0.975567 0.168273 14.3615
0 0.975658 0.0932673 0.0776919
0 0.975647 0.170487 8.53065
0 0.975715 0.0946052 1.21475
0 0.97573 0.0942878 -0.652284
0 0.975699 0.0941369 0.677078
0 0.975772 0.0944527 0.479484
0 0.975716 0.0945678 0.657382
0 0.975694 0.0955821 0.368594
0 0.975714 0.0952228 -1.36788
0 0.975712 0.0942521 1.09152
0 0.975697 0.094991 0.68837
0 0.975715 0.0979104 -1.11825
0 0.975735 0.0948983 -0.919622
0 0.975711 0.0963328 0.627214
0 0.975706 0.095714 -0.00564728
0 0.975634 0.170329 17.5655
0 0.975734 0.0943648 -0.0578551
0 0.975753 0.0984869 -0.632204
0 0.97574 0.0947572 -0.0465634
0 0.975656 0.0932735 0.352468
0 0.975753 0.0937246 -0.285268
0 0.975749 0.176368 14.8873
0 0.975719 0.0934119 -0.581294
0 0.975756 0.174101 16.2016
0 0.975711 0.0947399 0.553573
0 0.975712 0.094034 -0.815739
0 0.975717 0.0948164 0.570338
0 0.975729 0.0953287 0.677401
0 0.97568 0.0950614 1.19653
0 0.97573 0.0951806 0.897392
0 0.975699 0.0946725 0.54755
0 0.97572 0.100342 1.82703
0 0.975709 0.093997 -0.902019
0 0.975714 0.0951459 -0.629675
0 0.975718 0.10147 1.32748
0 0.97572 0.0949667 0.76073
0 0.975718 0.096655 0.171853
0 0.975702 0.169743 8.45971
0 0.975725 0.0942376 -0.555395
0 0.975748 0.0944799 -0.472866
0 0.975741 0.0934579 -0.209938
0 0.975753 0.0937495 0.142562
0 0.975728 0.0935253 -0.247027
0 0.975715 0.0933096 -0.693557
0 0.975794 0.171335 12.3089
0 0.975733 0.0951638 0.750409
0 0.975743 0.0945325 0.30536
0 0.975719 0.0943494 -0.662453
0 0.975735 0.0947722 -0.119103
0 0.975724 0.0948972 0.712167
0 0.97576 0.174168 9.46191
0 0.975795 0.0963138 -0.0633789
0 0.975721 0.101024 -1.73011
0 0.975772 0.0965065 -2.1551
0 0.975745 0.0952478 -0.576523
0 0.97574 0.0958601 0.100678
0 0.975713 0.0958398 0.394771
0 0.975731 0.0949634 1.17002
0 0.975735 0.0955759 0.806579
0 0.975719 0.095637 -0.651411
0 0.975723 0.0950299 -0.872712
0 0.975828 0.168675 0.984611
0 0.975733 0.0942269 0.106367
0 0.975729 0.0934186 0.788272
0 0.975691 0.0952836 1.09448
0 0.975705 0.093879 -0.57973
0 0.975756 0.0949033 0.201408
0 0.975699 0.0956659 -0.163447
0 0.975695 0.0943163 0.491567
0 0.975759 0.0945288 0.218443
0 0.975757 0.0948314 -0.669825
0 0.975744 0.0951404 -0.600006
0 0.975728 0.0947355 -0.253671
0 0.975736 0.0948491 -0.0830212
0 0.975733 0.0949732 0.219493
0 0.975757 0.0957613 0.0126585
0 0.975658 0.167957 17.8357
0 0.975865 0.101122 2.78069
0 0.975832 0.0986727 -2.91979
0 0.975724 0.0959566 -0.771518
0 0.975762 0.0963591 0.64625
0 0.975735 0.0946229 0.188128
0 0.975726 0.0950833 0.517732
0 0.975712 0.0950589 -0.638711
0 0.975717 0.0945595 -0.267157
0 0.975829 0.096931 1.58436
0 0.975859 0.168495 7.79422
0 0.975724 0.0941854 0.768741
0 0.975703 0.0939494 -0.485956
0 0.975709 0.0954693 1.36399
0 0.975713 0.0946897 -0.442303
0 0.975703 0.0940764 0.450983
0 0.975713 0.0947264 0.187337
0 0.975733 0.0947321 -0.937994
0 0.975755 0.0940771 -0.220599
0 0.975769 0.0950684 -0.177052
0 0.975751 0.0962126 1.76173
0 0.975749 0.095785 0.026747
0 0.975745 0.0956886 -0.333785
0 0.975771 0.0967718 1.93196
0 0.975777 0.0959507 0.453379
0 0.975817 0.0943709 -0.0526292
0 0.975797 0.174062 6.8993
0 0.975711 0.0954346 0.248881
0 0.975829 0.104229 -1.24974
0 0.97577 0.0982143 -1.66076
0 0.975725 0.098367 -1.9063
0 0.975816 0.0976457 0.0190352
0 0.975732 0.0946002 0.00649116
0 0.975719 0.0965406 0.621439
0 0.975747 0.0940571 -0.253301
0 0.975716 0.0948967 0.436503
0 0.9758 0.0972656 -1.86896
0 0.975796 0.168774 4.90992
0 0.97573 0.0942082 0.130319
0 0.975726 0.0947617 0.930795
0 0.97572 0.0943697 0.408141
0 0.975727 0.0948075 -0.696098
0 0.975721 0.0942742 -0.378472
0 0.975742 0.0942775 0.0558431
0 0.975769 0.0940438 0.0495666
0 0.975768 0.0987174 -0.889796
0 0.975753 0.093939 0.178888
0 0.975775 0.0960874 -0.0490157
0 0.975776 0.0944381 -0.0116148
0 0.975842 0.0942797 -0.0504267
0 0.975933 0.173225 8.32349
0 0.975715 0.0992447 1.97686
0 0.975772 0.0979695 1.19197
0 0.975721 0.0980531 1.03712
0 0.975797 0.0959008 1.53661
0 0.975783 0.0961412 0.566594
0 0.975749 0.0947991 -0.417369
0 0.975739 0.0954675 0.690536
0 0.975773 0.0981254 -0.372584
0 0.975728 0.0955983 0.529805
0 0.975702 0.0953753 0.303824
0 0.975768 0.095178 -1.21953
0 0.975716 0.0946547 -0.568202
0 0.975748 0.169446 10.6562
0 0.975747 0.0949859 0.657644
0 0.975734 0.0952197 0.573717
0 0.975713 0.0954072 -0.0482865
0 0.97573 0.094704 0.159618
0 0.975749 0.094936 0.611626
0 0.975739 0.095412 0.203819
0 0.975773 0.09491 0.252795
0 0.975745 0.0962518 0.290794
0 0.975761 0.0955555 0.0212628
0 0.975761 0.0962829 -0.604321
0 0.975759 0.095788 0.389931
0 0.975689 0.0948251 -0.202313
0 0.975773 0.0939574 -0.0536904
0 0.975894 0.176761 9.51494
0 0.975727 0.0959591 0.310999
0 0.975759 0.0968346 1.46483
0 0.975772 0.0956942 0.956768
0 0.975689 0.0949993 0.139279
0 0.975768 0.0948698 0.218743
0 0.975733 0.10235 0.890276
0 0.975751 0.0941019 0.342787
0 0.975621 0.0956408 -0.487582
0 0.975578 0.168611 18.494
0 0.975751 0.0996226 1.60708
0 0.975725 0.100197 -2.57134
0 0.975716 0.0964707 0.0122853
0 0.975745 0.0943126 0.446888
0 0.975737 0.0946678 0.29582
0 0.975758 0.0952831 0.304498
0 0.97577 0.100361 0.293456
0 0.975742 0.0986257 0.263657
0 0.975747 0.0969716 0.98319
0 0.975688 0.0954751 -0.100013
0 0.975656 0.0939 -0.0159489
0 0.975738 0.175439 14.1442
0 0.97572 0.0975679 -1.58105
0 0.975743 0.0960391 0.854099
0 0.975723 0.100465 -0.805881
0 0.975754 0.0945377 -0.137836
0 0.975746 0.101376 0.756429
0 0.975743 0.0964755 -0.852886
0 0.975603 0.0943683 -0.321068
0 0.975499 0.169938 20.4226
0 0.975746 0.0979083 1.04786
0 0.975741 0.0943702 -0.157468
0 0.975751 0.0961067 0.742322
0 0.975766 0.0965515 1.19603
0 0.975744 0.0968575 -1.56078
0 0.975758 0.0984347 -0.767295
0 0.975759 0.100081 3.24
0 0.975746 0.0965754 1.29358
0 0.975744 0.0939824 0.177048
0 0.975708 0.0941797 -0.247701
0 0.975619 0.0940654 0.00282584
0 0.975588 0.167636 12.4261
0 0.975732 0.0978878 -0.511821
0 0.975734 0.0948244 -0.472174
0 0.97575 0.0953195 -0.0485007
0 0.975739 0.0947615 0.358036
0 0.97568 0.094471 -0.724183
0 0.975546 0.16773 14.6825
0 0.975757 0.0947938 0.1667
0 0.975771 0.0951178 0.634029
0 0.97573 0.0958262 -0.201977
0 0.975738 0.0962774 -0.105311
0 0.975754 0.0965283 -0.976886
0 0.975752 0.0942372 0.368724
0 0.975738 0.0940844 0.465778
0 0.975689 0.0939986 -0.450021
0 0.975611 0.169947 21.6344
0 0.975734 0.0952905 0.791913
0 0.975732 0.0943196 0.0613001
0 0.975705 0.095172 0.555515
0 0.975669 0.0948721 0.62456
0 0.975676 0.173412 10.138
0 0.975753 0.0944213 0.0319356
0 0.975726 0.0941611 -0.23659
0 0.975734 0.0984273 -0.379003
0 0.975749 0.0946664 0.585368
0 0.97576 0.0945417 0.857739
0 0.975761 0.0939369 0.614329
0 0.975729 0.17688 10.9794
0 0.975728 0.094258 0.294409
0 0.975703 0.0942242 0.125876
0 0.97563 0.094716 -0.180851
0 0.975595 0.167573 22.9289
0 0.975728 0.0947666 0.245391
0 0.97574 0.0943114 0.320372
0 0.97572 0.0947044 -0.179848
0 0.975726 0.0949088 0.262085
0 0.975754 0.0951718 0.725542
0 0.975759 0.0945217 0.858673
0 0.975766 0.172437 8.29635
0 0.975734 0.0943777 0.372837
0 0.975717 0.0939939 0.0984079
0 0.975651 0.175196 17.9546
0 0.975733 0.0948305 0.42008
0 0.97574 0.0958327 0.605995
0 0.975728 0.0951481 0.527284
0 0.975764 0.0951538 0.727325
0 0.975758 0.172047 7.96419
0 0.975781 0.0931977 0.25208
0 0.97578 0.173063 3.69031
0 0.97576 0.0950379 0.620485
0 0.975767 0.0941413 0.121807
0 0.975792 0.170009 14.2313
0 0.975802 0.168178 17.6751
0 0.975784 0.174697 7.03304
VECTORS fa_u float
0.00672339 0.00273575 -0
0.00607192 0.00349814 -0
0.00440111 0.00118868 -0
0.00683563 0.000982013 -0
1e-08 0 0
0.00520343 0.00400029 -0
0.0035143 0.00345604 -0
1e-08 0 0
1e-08 0 0
0.00426352 0.00537465 -0
0.00418877 0.00714053 -0
0.00654501 6.98843e-05 -0
0.00637455 -0.000761542 0
1e-08 0 0
1e-08 0 0
1e-08 0 0
1e-08 0 0
1e-08 0 0
1e-08 0 0
1e-08 0 0
1e-08 0 0
0.00274892 0.00671196 -0
0.00162897 0.00624329 -0
1e-08 0 0
1e-08 0 0
1e-08 0 0
0.00757214 -0.00197038 0
1e-08 0 0
0.0083346 -0.00355159 0
1e-08 0 0
1e-08 0 0
1e-08 0 0
0.00085651 0.00690807 -0
1e-08 0 0
1e-08 0 0
1e-08 0 0
1e-08 0 0
1e-08 0 0
1e-08 0 0
1e-08 0 0
1e-08 0 0
1e-08 0 0
1e-08 0 0
-8.24251e-05 0.00707915 -0
1e-08 0 0
1e-08 0 0
1e-08 0 0
0.0057166 -0.00347078 0
1e-08 0 0
0.00378158 -0.00297818 0
1e-08 0 0
1e-08 0 0
1e-08 0 0
1e-08 0 0
1e-08 0 0
1e-08 0 0
1e-08 0 0
1e-08 0 0
1e-08 0 0
1e-08 0 0
1e-08 0 0
1e-08 0 0
1e-08 0 0
-0.00070996 0.00513306 0
1e-08 0 0
1e-08 0 0
1e-08 0 0
1e-08 0 0
1e-08 0 0
0.00388024 -0.00385911 0
1e-08 0 0
0.00334538 -0.00422531 0
1e-08 0 0
1e-08 0 0
1e-08 0 0
1e-08 0 0
1e-08 0 0
1e-08 0 0
1e-08 0 0
1e-08 0 0
1e-08 0 0
1e-08 0 0
1e-08 0 0
1e-08 0 0
1e-08 0 0
-0.0015465 0.00586597 0
1e-08 0 0
1e-08 0 0
1e-08 0 0
1e-08 0 0
1e-08 0 0
1e-08 0 0
0.00441807 -0.00744206 0
1e-08 0 0
1e-08 0 0
1e-08 0 0
1e-08 0 0
1e-08 0 0
0.00308183 -0.00753984 0
1e-08 0 0
1e-08 0 0
1e-08 0 0
1e-08 0 0
1e-08 0 0
1e-08 0 0
1e-08 0 0
1e-08 0 0
1e-08 0 0
1e-08 0 0
-0.00269446 0.00658651 0
1e-08 0 0
1e-08 0 0
1e-08 0 0
1e-08 0 0
1e-08 0 0
1e-08 0 0
1e-08 0 0
1e-08 0 0
1e-08 0 0
1e-08 0 0
1e-08 0 0
1e-08 0 0
1e-08 0 0
1e-08 0 0
0.00148862 -0.00575055 0
1e-08 0 0
1e-08 0 0
1e-08 0 0
1e-08 0 0
1e-08 0 0
1e-08 0 0
1e-08 0 0
1e-08 0 0
1e-08 0 0
-0.0034881 0.00604198 0
1e-08 0 0
1e-08 0 0
1e-08 0 0
1e-08 0 0
1e-08 0 0
1e-08 0 0
1e-08 0 0
1e-08 0 0
1e-08 0 0
1e-08 0 0
1e-08 0 0
1e-08 0 0
1e-08 0 0
1e-08 0 0
1e-08 0 0
0.000684016 -0.00508643 0
1e-08 0 0
1e-08 0 0
1e-08 0 0
1e-08 0 0
1e-08 0 0
1e-08 0 0
1e-08 0 0
1e-08 0 0
1e-08 0 0
1e-08 0 0
-0.00430855 0.0055696 0
1e-08 0 0
1e-08 0 0
1e-08 0 0
1e-08 0 0
1e-08 0 0
1e-08 0 0
1e-08 0 0
1e-08 0 0
1e-08 0 0
1e-08 0 0
1e-08 0 0
1e-08 0 0
5.51693e-05 -0.00712204 0
1e-08 0 0
1e-08 0 0
1e-08 0 0
1e-08 0 0
1e-08 0 0
1e-08 0 0
1e-08 0 0
1e-08 0 0
1e-08 0 0
1e-08 0 0
1e-08 0 0
1e-08 0 0
-0.00329547 0.00332485 0
1e-08 0 0
1e-08 0 0
1e-08 0 0
1e-08 0 0
1e-08 0 0
1e-08 0 0
1e-08 0 0
1e-08 0 0
1e-08 0 0
1e-08 0 0
1e-08 0 0
1e-08 0 0
1e-08 0 0
-0.00086379 -0.00677258 0
1e-08 0 0
1e-08 0 0
1e-08 0 0
1e-08 0 0
1e-08 0 0
1e-08 0 0
1e-08 0 0
1e-08 0 0
-0.00502263 0.0039824 0
1e-08 0 0
1e-08 0 0
1e-08 0 0
1e-08 0 0
1e-08 0 0
1e-08 0 0
1e-08 0 0
1e-08 0 0
1e-08 0 0
1e-08 0 0
1e-08 0 0
-0.00161526 -0.00612869 0
1e-08 0 0
1e-08 0 0
1e-08 0 0
1e-08 0 0
1e-08 0 0
1e-08 0 0
1e-08 0 0
-0.00708239 0.00417604 0
1e-08 0 0
1e-08 0 0
1e-08 0 0
1e-08 0 0
1e-08 0 0
1e-08 0 0
1e-08 0 0
1e-08 0 0
1e-08 0 0
1e-08 0 0
1e-08 0 0
-0.0028134 -0.00682259 0
1e-08 0 0
1e-08 0 0
1e-08 0 0
1e-08 0 0
1e-08 0 0
-0.00680181 0.00280113 0
1e-08 0 0
1e-08 0 0
1e-08 0 0
1e-08 0 0
1e-08 0 0
1e-08 0 0
1e-08 0 0
1e-08 0 0
-0.00406978 -0.00690867 0
1e-08 0 0
1e-08 0 0
1e-08 0 0
1e-08 0 0
-0.00628906 0.00164944 0
1e-08 0 0
1e-08 0 0
1e-08 0 0
1e-08 0 0
1e-08 0 0
1e-08 0 0
-0.00377442 -0.00478893 0
1e-08 0 0
1e-08 0 0
1e-08 0 0
-0.00675243 0.000848588 0
1e-08 0 0
1e-08 0 0
1e-08 0 0
1e-08 0 0
1e-08 0 0
1e-08 0 0
-0.00359375 -0.00357837 0
1e-08 0 0
1e-08 0 0
-0.00747643 -8.23201e-05 0
1e-08 0 0
1e-08 0 0
1e-08 0 0
1e-08 0 0
-0.00550873 -0.00426516 0
1e-08 0 0
-0.00497892 -0.000691208 0
1e-08 0 0
1e-08 0 0
-0.00621156 -0.00358486 0
-0.00579752 -0.00152379 0
-0.00659459 -0.00268939 0
