# vtk DataFile Version 2.0
CellBP Time: 9.6
ASCII
DATASET UNSTRUCTURED_GRID
POINTS 296 double
-8.93123 -3.6569 0
-8.37392 -4.8074 0
-9.32084 -2.43616 0
-9.59835 -1.20983 0
-8.08725 -2.70815 0
-7.65871 -5.87206 0
-6.8115 -6.83467 0
-7.64786 -3.72739 0
-7.08737 -4.69989 0
-5.88878 -7.70206 0
-4.86266 -8.43435 0
-9.70688 0.0379229 0
-9.65232 1.31232 0
-8.40754 -1.62046 0
-8.56529 -0.504707 0
-7.3365 -1.91507 0
-6.96139 -2.77665 0
-6.43418 -5.6185 0
-5.66764 -6.43603 0
-6.53464 -3.73713 0
-6.00218 -4.52232 0
-3.71446 -8.99809 0
-2.4866 -9.39652 0
-4.7944 -7.15343 0
-3.8465 -7.73796 0
-8.58074 0.631394 0
-9.43339 2.58944 0
-8.43854 1.72919 0
-9.02405 3.80409 0
-7.51192 -0.881476 0
-7.58185 0.0899501 0
-6.72926 -1.25133 0
-1.21577 -9.63348 0
-6.23589 -2.06485 0
-6.10299 -2.93661 0
-5.36318 -5.3225 0
-4.66615 -5.96805 0
-5.46837 -3.62785 0
-5.08828 -4.42487 0
-2.81673 -8.19906 0
-1.74563 -8.45798 0
-3.83709 -6.58261 0
-3.01033 -7.01613 0
0.0554837 -9.69235 0
-7.5067 1.11539 0
-8.18236 2.85756 0
-7.37016 2.04825 0
-8.41015 4.92236 0
-7.69868 3.87879 0
-7.65091 5.95643 0
-6.57958 -0.367112 0
-6.75908 0.548206 0
-5.6172 -0.968024 0
-0.581004 -8.60485 0
0.542901 -8.53577 0
-5.15289 -2.39854 0
-4.34324 -4.95694 0
-3.79369 -5.63811 0
-4.31262 -3.70389 0
-2.02428 -7.40639 0
-1.11467 -7.61573 0
-2.92711 -5.96985 0
-2.26931 -6.48558 0
1.30902 -9.57463 0
-6.51368 1.38064 0
-6.98479 3.02507 0
-6.49052 2.30323 0
-7.10353 4.84809 0
-6.54267 3.88405 0
-6.80998 6.90269 0
-6.38937 5.72362 0
-5.86779 7.75923 0
-4.37225 -1.16639 0
-5.67462 0.490938 0
-4.57072 -0.0278172 0
-0.00494487 -7.64987 0
1.67976 -8.38503 0
0.901726 -7.53915 0
-3.95784 -2.35246 0
-3.45363 -1.37907 0
-3.21468 -4.69863 0
-3.21478 -3.20539 0
-1.36437 -6.52322 0
-0.52017 -6.85011 0
-1.94554 -5.42935 0
2.5575 -9.32837 0
-5.37831 1.98947 0
-5.939 2.97972 0
-5.9432 4.72249 0
-5.60785 3.86361 0
-5.59592 6.51839 0
-5.30161 5.44707 0
-4.84055 8.51137 0
-4.69876 7.18185 0
-3.45874 -0.419311 0
-4.36045 1.22431 0
-3.64912 0.584808 0
-3.97892 2.2933 0
-3.70432 9.07914 0
2.75538 -8.05252 0
0.372377 -6.59776 0
1.92909 -7.27969 0
1.23231 -6.68772 0
-2.42493 -0.861297 0
-2.80971 -2.10433 0
-2.26319 -4.02116 0
-2.29656 -2.92551 0
-0.452002 -5.71728 0
-1.20016 -4.4184 0
3.76789 -8.93665 0
-4.66909 3.30072 0
-4.95014 4.45041 0
-4.51554 6.0814 0
-4.41386 5.19383 0
-3.74747 7.78459 0
-3.70796 6.62324 0
-2.70796 8.18865 0
-1.63347 -0.122317 0
-1.43431 -0.873552 0
-2.46944 0.517401 0
-3.20067 1.4345 0
-3.17295 3.26029 0
-2.8648 2.3575 0
-1.35028 0.638137 0
-2.48394 9.46267 0
3.79152 -7.62266 0
2.83423 -6.8919 0
0.896952 -5.65477 0
1.97773 -6.19336 0
-1.66053 -1.97294 0
-1.41357 -3.23148 0
0.0776434 -4.64298 0
-0.552631 -3.63696 0
4.76979 -7.06566 0
4.90991 -8.37959 0
-3.68188 4.43086 0
-3.63281 5.58291 0
-2.79535 7.06372 0
-2.92568 6.16334 0
-1.61914 8.50892 0
-1.87888 7.40647 0
-2.29685 3.97462 0
-0.719412 -1.31492 0
-0.828021 -0.242955 0
-1.92956 1.69433 0
-2.10188 2.85431 0
-1.29664 3.50462 0
-0.871444 1.3611 0
-0.285255 0.464736 0
-0.521008 8.66048 0
-1.22431 9.69873 0
1.06714 -4.45434 0
3.74625 -6.44367 0
2.86374 -5.86775 0
2.03227 -5.24641 0
4.62136 -5.9668 0
-0.547479 -2.45533 0
0.488863 -3.40922 0
0.0604246 -1.60027 0
1.44296 -3.59329 0
5.69382 -6.39415 0
5.97162 -7.66482 0
-2.41472 5.21042 0
-2.06079 6.34813 0
-0.871533 7.61091 0
-1.2199 6.74276 0
0.0924701 7.70252 0
-1.12593 4.41373 0
0.149068 -0.611927 0
-0.809285 2.49487 0
-0.344705 3.57147 0
0.0508721 1.51513 0
0.731387 0.474274 0
0.629961 8.68778 0
0.0419744 9.80842 0
2.30286 -4.1552 0
3.72164 -5.4271 0
2.89595 -5.03094 0
5.41822 -5.3058 0
4.54303 -5.07788 0
0.633528 -2.2829 0
1.23848 -2.90397 0
0.75885 -1.38697 0
2.1164 -3.06486 0
2.91997 -3.38212 0
6.00664 -4.64646 0
6.48504 -5.60207 0
6.92577 -6.80725 0
-0.989482 5.68383 0
-0.343804 6.71431 0
1.10311 7.6138 0
0.56225 6.92332 0
-0.00266243 4.65367 0
0.592221 3.78271 0
1.3326 -0.642003 0
0.521701 2.63713 0
0.949648 1.57608 0
1.89078 0.208132 0
1.59719 1.06035 0
2.09617 7.43785 0
1.76787 8.53964 0
1.32261 9.73822 0
3.71549 -4.20432 0
4.9794 -4.28475 0
5.7107 -3.80911 0
3.7003 -3.10797 0
1.79625 -1.87638 0
2.96599 -2.52352 0
6.64069 -3.84268 0
7.21857 -4.77727 0
7.79142 -5.87718 0
0.480747 5.76193 0
1.41014 6.60831 0
2.33836 6.54759 0
1.18766 4.48632 0
1.46291 3.3522 0
2.40705 -0.689562 0
2.79215 0.138701 0
1.76577 2.14942 0
2.58842 1.13854 0
3.02491 7.03996 0
2.85806 8.21642 0
2.58975 9.49523 0
4.80148 -3.22325 0
5.99384 -3.02389 0
4.09731 -2.22834 0
3.19692 -1.48844 0
6.60952 -2.27268 0
7.10045 -2.98183 0
7.81762 -3.84113 0
8.5278 -4.85272 0
1.99538 5.50132 0
3.00924 6.03051 0
2.33403 4.06133 0
2.38981 3.01718 0
3.47714 -0.452301 0
3.56816 0.614161 0
2.92552 2.25795 0
3.48476 1.5044 0
3.89938 5.76501 0
3.89708 6.65469 0
3.90776 7.78923 0
3.81399 9.09233 0
5.47183 -1.87903 0
4.43749 -1.10694 0
6.5873 -1.30953 0
7.45027 -1.99861 0
8.23706 -2.80967 0
9.09632 -3.71004 0
3.3233 4.77174 0
3.26823 3.31697 0
4.61101 0.133615 0
4.41909 1.27829 0
3.96382 2.38306 0
4.41955 5.01878 0
4.70868 6.05069 0
4.87102 7.22082 0
4.95672 8.52366 0
5.75929 -0.435019 0
6.85751 -0.486942 0
7.60943 -1.0573 0
8.51215 -1.70698 0
9.49735 -2.48354 0
4.41307 3.72545 0
5.66334 1.0523 0
5.20598 2.45172 0
5.18923 4.48248 0
5.43292 5.3776 0
5.7462 6.50578 0
5.98199 7.79119 0
6.67009 0.428405 0
7.67607 -0.0299054 0
8.67165 -0.560334 0
9.73789 -1.21376 0
6.7622 1.28599 0
5.5197 3.65583 0
6.33217 2.10261 0
6.15644 2.9705 0
6.06932 4.53846 0
6.48836 5.67134 0
6.9189 6.93376 0
7.58231 0.929043 0
8.63963 0.560368 0
9.80178 0.0628672 0
7.39042 1.92699 0
6.56803 3.75405 0
7.01724 2.82816 0
7.14729 4.73503 0
7.77642 5.98104 0
8.48184 1.67752 0
9.68015 1.31656 0
8.14882 2.74189 0
7.73342 3.79302 0
8.4919 4.92178 0
9.43759 2.56697 0
9.04762 3.77817 0
CELLS 542 2168
3 2 0 4
3 0 1 7
3 4 0 7
3 1 5 8
3 7 1 8
3 3 2 13
3 13 2 4
3 11 3 14
3 14 3 13
3 13 4 15
3 4 7 16
3 15 4 16
3 5 6 17
3 8 5 17
3 6 9 18
3 17 6 18
3 7 8 19
3 16 7 19
3 8 17 20
3 19 8 20
3 9 10 23
3 18 9 23
3 10 21 24
3 23 10 24
3 12 11 25
3 25 11 14
3 26 12 27
3 27 12 25
3 14 13 29
3 29 13 15
3 25 14 30
3 30 14 29
3 29 15 31
3 15 16 33
3 31 15 33
3 16 19 34
3 33 16 34
3 17 18 35
3 20 17 35
3 18 23 36
3 35 18 36
3 19 20 37
3 34 19 37
3 20 35 38
3 37 20 38
3 21 22 39
3 24 21 39
3 22 32 40
3 39 22 40
3 23 24 41
3 36 23 41
3 24 39 42
3 41 24 42
3 27 25 44
3 44 25 30
3 28 26 45
3 45 26 27
3 45 27 46
3 46 27 44
3 47 28 48
3 48 28 45
3 30 29 50
3 50 29 31
3 44 30 51
3 51 30 50
3 50 31 52
3 31 33 52
3 32 43 53
3 40 32 53
3 53 43 54
3 33 34 55
3 34 37 55
3 33 55 52
3 35 36 56
3 38 35 56
3 36 41 57
3 56 36 57
3 37 38 58
3 38 56 58
3 37 58 55
3 39 40 59
3 42 39 59
3 40 53 60
3 59 40 60
3 41 42 61
3 57 41 61
3 42 59 62
3 61 42 62
3 43 63 54
3 46 44 64
3 64 44 51
3 48 45 65
3 65 45 46
3 65 46 66
3 66 46 64
3 49 47 67
3 67 47 48
3 67 48 68
3 68 48 65
3 69 49 70
3 70 49 67
3 52 55 72
3 64 51 73
3 51 50 73
3 50 52 73
3 73 52 74
3 74 52 72
3 53 54 75
3 60 53 75
3 54 63 76
3 54 76 77
3 75 54 77
3 55 58 78
3 72 55 78
3 72 78 79
3 56 57 80
3 57 61 80
3 56 80 58
3 58 80 81
3 78 58 81
3 59 60 82
3 62 59 82
3 60 75 83
3 82 60 83
3 61 62 84
3 62 82 84
3 61 84 80
3 63 85 76
3 66 64 86
3 64 73 86
3 68 65 87
3 87 65 66
3 87 66 86
3 70 67 88
3 88 67 68
3 88 68 89
3 89 68 87
3 71 69 90
3 90 69 70
3 90 70 91
3 91 70 88
3 92 71 93
3 93 71 90
3 74 72 94
3 94 72 79
3 86 73 95
3 95 73 74
3 95 74 96
3 96 74 94
3 97 86 95
3 76 85 99
3 75 77 100
3 83 75 100
3 76 99 101
3 77 76 101
3 77 101 102
3 100 77 102
3 94 79 103
3 78 81 104
3 79 78 104
3 79 104 103
3 80 84 105
3 81 80 105
3 81 105 106
3 104 81 106
3 82 83 107
3 83 100 107
3 82 107 84
3 84 107 108
3 105 84 108
3 85 109 99
3 89 87 110
3 87 86 110
3 110 86 97
3 91 88 111
3 111 88 89
3 111 89 110
3 93 90 112
3 112 90 91
3 112 91 113
3 113 91 111
3 98 92 114
3 114 92 93
3 114 93 115
3 115 93 112
3 116 98 114
3 117 103 118
3 96 94 119
3 94 103 119
3 119 103 117
3 97 95 120
3 120 95 96
3 120 96 119
3 121 110 97
3 121 97 122
3 122 97 120
3 123 119 117
3 124 98 116
3 99 109 125
3 99 125 126
3 101 99 126
3 100 102 127
3 100 127 107
3 101 126 128
3 102 101 128
3 102 128 127
3 104 106 129
3 104 129 103
3 103 129 118
3 105 108 130
3 106 105 130
3 106 130 129
3 107 127 131
3 108 107 131
3 108 131 132
3 108 132 130
3 109 134 125
3 125 134 133
3 113 111 135
3 111 110 135
3 135 110 121
3 115 112 136
3 136 112 113
3 136 113 135
3 116 114 137
3 137 114 115
3 137 115 138
3 138 115 136
3 139 124 116
3 139 116 140
3 140 116 137
3 141 135 121
3 118 129 142
3 118 142 143
3 117 118 143
3 123 117 143
3 122 120 144
3 120 119 144
3 144 119 123
3 141 121 145
3 145 121 122
3 145 122 144
3 146 141 145
3 147 144 123
3 147 123 148
3 143 148 123
3 150 124 139
3 149 150 139
3 131 127 151
3 125 133 152
3 126 125 152
3 126 152 153
3 128 126 153
3 128 153 154
3 128 154 127
3 127 154 151
3 152 133 155
3 130 132 156
3 130 156 129
3 129 156 142
3 131 151 157
3 132 131 157
3 132 157 156
3 156 158 142
3 157 151 159
3 133 160 155
3 134 161 133
3 133 161 160
3 138 136 162
3 136 135 162
3 162 135 141
3 140 137 163
3 163 137 138
3 163 138 162
3 149 139 164
3 164 139 140
3 164 140 165
3 165 140 163
3 166 149 164
3 167 162 141
3 167 141 146
3 142 158 168
3 143 142 168
3 143 168 148
3 146 145 169
3 145 144 169
3 169 144 147
3 170 167 146
3 170 146 169
3 171 169 147
3 171 147 148
3 171 148 172
3 168 172 148
3 173 149 166
3 174 150 149
3 173 174 149
3 154 175 151
3 151 175 159
3 152 155 176
3 153 152 176
3 153 176 177
3 153 177 154
3 154 177 175
3 155 160 178
3 155 178 179
3 176 155 179
3 156 157 180
3 156 180 158
3 157 159 181
3 157 181 180
3 158 180 182
3 158 182 168
3 159 175 183
3 159 183 181
3 175 184 183
3 160 186 178
3 178 186 185
3 161 187 160
3 160 187 186
3 165 163 188
3 163 162 188
3 188 162 167
3 166 164 189
3 189 164 165
3 189 165 188
3 190 173 166
3 190 166 191
3 191 166 189
3 192 188 167
3 192 167 170
3 193 192 170
3 182 194 168
3 194 172 168
3 193 170 195
3 170 169 195
3 195 169 171
3 196 195 171
3 196 171 172
3 194 197 172
3 197 198 172
3 198 196 172
3 200 173 190
3 199 200 190
3 201 174 173
3 200 201 173
3 176 179 202
3 177 176 202
3 177 202 175
3 175 202 184
3 178 185 203
3 178 203 179
3 179 203 202
3 203 185 204
3 202 205 184
3 183 206 181
3 180 181 206
3 180 206 182
3 182 206 194
3 183 184 207
3 205 207 184
3 183 207 206
3 185 208 204
3 186 209 185
3 185 209 208
3 187 210 186
3 186 210 209
3 191 189 211
3 189 188 211
3 211 188 192
3 199 190 212
3 212 190 191
3 212 191 211
3 213 199 212
3 214 211 192
3 214 192 193
3 215 214 193
3 215 193 195
3 206 216 194
3 216 197 194
3 216 217 197
3 215 195 218
3 218 195 196
3 198 218 196
3 217 219 197
3 219 218 198
3 197 219 198
3 220 199 213
3 221 200 199
3 220 221 199
3 222 201 200
3 221 222 200
3 203 204 223
3 203 223 202
3 202 223 205
3 204 208 224
3 204 224 223
3 205 223 225
3 205 225 207
3 207 225 226
3 207 226 206
3 226 216 206
3 208 228 224
3 224 228 227
3 209 229 208
3 229 228 208
3 210 230 209
3 209 230 229
3 213 212 231
3 212 211 231
3 231 211 214
3 232 220 213
3 232 213 231
3 233 231 214
3 233 214 215
3 234 233 215
3 234 215 218
3 226 235 216
3 235 217 216
3 235 236 217
3 217 236 219
3 237 234 218
3 237 218 219
3 236 238 219
3 238 237 219
3 240 220 232
3 239 240 232
3 241 221 220
3 240 241 220
3 242 222 221
3 241 242 221
3 224 227 243
3 224 243 223
3 223 243 225
3 225 243 244
3 225 244 226
3 226 244 235
3 227 245 243
3 228 246 227
3 227 246 245
3 229 247 228
3 228 247 246
3 230 248 229
3 229 248 247
3 239 232 249
3 232 231 249
3 249 231 233
3 250 249 233
3 250 233 234
3 237 250 234
3 244 251 235
3 235 251 236
3 251 252 236
3 236 252 238
3 252 253 238
3 253 250 237
3 253 237 238
3 254 239 249
3 255 240 239
3 254 255 239
3 256 241 240
3 255 256 240
3 257 242 241
3 256 257 241
3 245 258 243
3 243 258 244
3 244 258 251
3 245 259 258
3 246 260 245
3 245 260 259
3 247 261 246
3 246 261 260
3 248 262 247
3 247 262 261
3 254 249 263
3 263 249 250
3 253 263 250
3 258 264 251
3 251 264 252
3 264 265 252
3 265 263 253
3 252 265 253
3 266 254 263
3 267 255 254
3 266 267 254
3 268 256 255
3 267 268 255
3 269 257 256
3 268 269 256
3 259 270 258
3 270 264 258
3 260 271 259
3 259 271 270
3 261 272 260
3 260 272 271
3 262 273 261
3 273 272 261
3 270 274 264
3 275 266 263
3 275 263 265
3 274 276 264
3 276 265 264
3 276 277 265
3 277 275 265
3 278 267 266
3 275 278 266
3 279 268 267
3 278 279 267
3 280 269 268
3 279 280 268
3 271 281 270
3 270 281 274
3 272 282 271
3 271 282 281
3 273 283 272
3 272 283 282
3 281 284 274
3 274 284 276
3 285 278 275
3 277 285 275
3 284 286 276
3 286 285 277
3 276 286 277
3 287 279 278
3 285 287 278
3 288 280 279
3 287 288 279
3 282 289 281
3 281 289 284
3 283 290 282
3 282 290 289
3 289 291 284
3 284 291 286
3 291 292 286
3 292 287 285
3 286 292 285
3 293 288 287
3 292 293 287
3 290 294 289
3 289 294 291
3 294 295 291
3 295 293 292
3 291 295 292
CELL_TYPES 542
5
5
5
5
5
5
5
5
5
5
5
5
5
5
5
5
5
5
5
5
5
5
5
5
5
5
5
5
5
5
5
5
5
5
5
5
5
5
5
5
5
5
5
5
5
5
5
5
5
5
5
5
5
5
5
5
5
5
5
5
5
5
5
5
5
5
5
5
5
5
5
5
5
5
5
5
5
5
5
5
5
5
5
5
5
5
5
5
5
5
5
5
5
5
5
5
5
5
5
5
5
5
5
5
5
5
5
5
5
5
5
5
5
5
5
5
5
5
5
5
5
5
5
5
5
5
5
5
5
5
5
5
5
5
5
5
5
5
5
5
5
5
5
5
5
5
5
5
5
5
5
5
5
5
5
5
5
5
5
5
5
5
5
5
5
5
5
5
5
5
5
5
5
5
5
5
5
5
5
5
5
5
5
5
5
5
5
5
5
5
5
5
5
5
5
5
5
5
5
5
5
5
5
5
5
5
5
5
5
5
5
5
5
5
5
5
5
5
5
5
5
5
5
5
5
5
5
5
5
5
5
5
5
5
5
5
5
5
5
5
5
5
5
5
5
5
5
5
5
5
5
5
5
5
5
5
5
5
5
5
5
5
5
5
5
5
5
5
5
5
5
5
5
5
5
5
5
5
5
5
5
5
5
5
5
5
5
5
5
5
5
5
5
5
5
5
5
5
5
5
5
5
5
5
5
5
5
5
5
5
5
5
5
5
5
5
5
5
5
5
5
5
5
5
5
5
5
5
5
5
5
5
5
5
5
5
5
5
5
5
5
5
5
5
5
5
5
5
5
5
5
5
5
5
5
5
5
5
5
5
5
5
5
5
5
5
5
5
5
5
5
5
5
5
5
5
5
5
5
5
5
5
5
5
5
5
5
5
5
5
5
5
5
5
5
5
5
5
5
5
5
5
5
5
5
5
5
5
5
5
5
5
5
5
5
5
5
5
5
5
5
5
5
5
5
5
5
5
5
5
5
5
5
5
5
5
5
5
5
5
5
5
5
5
5
5
5
5
5
5
5
5
5
5
5
5
5
5
5
5
5
5
5
5
5
5
5
5
5
5
5
5
5
5
5
5
5
5
5
5
5
5
5
5
5
5
5
5
5
5
5
5
5
5
5
5
5
5
5
5
5
5
5
5
5
5
5
5
5
5
5
5
5
5
5
5
5
5
5
5
5
5
5
5
5
5
5
5
5
5
5
5
5
5
5
5
5
5
5
5
5
5
POINT_DATA 296
SCALARS concentrations float 4
LOOKUP_TABLE default
0 0.95076 0.111631 2.72421
0 0.950789 0.112611 2.54936
0 0.950769 0.112421 1.98723
0 0.950805 0.108346 0.511736
0 0.950768 0.0941379 -1.00788
0 0.950744 0.112462 1.77028
0 0.950749 0.110938 1.61946
0 0.950777 0.0932735 -0.973257
0 0.950774 0.0932765 -0.579379
0 0.95076 0.109698 1.43978
0 0.950737 0.113013 3.64326
0 0.950801 0.11146 2.45038
0 0.950766 0.109799 1.33144
0 0.950788 0.092876 -0.566732
0 0.950806 0.0934081 -0.318741
0 0.950779 0.0933257 1.05665
0 0.950775 0.0932936 -0.860439
0 0.95075 0.0930536 -0.875281
0 0.950769 0.0929237 -0.556373
0 0.950773 0.0935658 -0.545761
0 0.95077 0.0933931 0.691264
0 0.950716 0.1102 4.09163
0 0.950721 0.11567 5.64353
0 0.950758 0.0935902 -0.585669
0 0.950743 0.0938684 0.107499
0 0.950788 0.0928068 -0.393666
0 0.950783 0.111602 2.04259
0 0.950786 0.093203 0.0891345
0 0.950804 0.111029 0.723649
0 0.950789 0.0935185 -0.708712
0 0.950791 0.0951387 0.39352
0 0.950775 0.0931088 -1.00204
0 0.950738 0.110844 0.807486
0 0.950767 0.0931548 0.681418
0 0.950767 0.0929521 0.0245637
0 0.950771 0.0935794 -0.694087
0 0.950776 0.0940907 -0.4583
0 0.950767 0.0945493 1.33972
0 0.950767 0.0928179 -0.347291
0 0.950737 0.0929525 0.0892108
0 0.950746 0.0929512 -0.00938658
0 0.950769 0.0945788 -0.582126
0 0.950772 0.094525 0.524458
0 0.950742 0.110544 2.60336
0 0.950801 0.0932833 -0.0563242
0 0.950794 0.095413 0.0551932
0 0.950802 0.094983 -0.492064
0 0.950811 0.111824 3.13073
0 0.950804 0.0942481 -0.718086
0 0.950792 0.112542 3.19114
0 0.950777 0.0944437 -0.581322
0 0.950783 0.0937957 0.433358
0 0.950766 0.0932926 0.511876
0 0.950747 0.0927977 -0.217046
0 0.950751 0.0923636 -0.0566625
0 0.950765 0.0941074 0.861384
0 0.95077 0.0944701 -0.726453
0 0.950778 0.0952028 -1.2068
0 0.950766 0.0929819 0.526028
0 0.950772 0.0948935 -0.491467
0 0.950772 0.0956794 0.932316
0 0.950784 0.0968332 -0.462681
0 0.950785 0.0988271 1.47097
0 0.950768 0.115962 6.08456
0 0.95079 0.0943482 -0.703598
0 0.95079 0.093223 0.0010288
0 0.950789 0.0957075 0.444448
0 0.950799 0.0931144 -0.868179
0 0.950785 0.0935842 -0.740659
0 0.950773 0.11357 2.85555
0 0.950779 0.0922281 -0.23648
0 0.950772 0.110754 1.15174
0 0.950762 0.0950182 0.171755
0 0.950772 0.0942374 -0.643128
0 0.950765 0.0946177 -0.0554316
0 0.950769 0.0940155 0.29693
0 0.950766 0.0937324 -0.849839
0 0.950761 0.0950328 1.19439
0 0.950762 0.0945728 -0.666168
0 0.950755 0.0958042 -1.16189
0 0.950773 0.0953105 -0.648502
0 0.950768 0.0953 0.664354
0 0.950766 0.102649 3.52032
0 0.950775 0.101903 2.05903
0 0.950781 0.0979638 0.544349
0 0.950754 0.112193 3.60346
0 0.950781 0.0934826 -0.178092
0 0.950778 0.0943987 0.153055
0 0.950778 0.0928748 -0.102063
0 0.95077 0.093949 0.0309049
0 0.950769 0.0926301 -0.720501
0 0.950776 0.0931449 -0.166324
0 0.950765 0.110915 3.76474
0 0.950768 0.093519 0.523835
0 0.950757 0.0949453 -0.28225
0 0.950776 0.0938063 0.304521
0 0.950763 0.0941241 0.260558
0 0.950776 0.0933247 -0.270522
0 0.950729 0.110859 5.47729
0 0.950756 0.0939864 0.162109
0 0.950772 0.0946381 -0.801469
0 0.950772 0.0931191 -0.089154
0 0.950767 0.0934277 0.103537
0 0.950765 0.0951195 1.21369
0 0.950767 0.0963385 -0.378119
0 0.950781 0.0951447 -0.161577
0 0.950776 0.0948344 0.924667
0 0.950765 0.096006 0.879824
0 0.950783 0.0982453 0.0567722
0 0.950758 0.110919 3.04518
0 0.950775 0.0936935 0.257537
0 0.950774 0.0933936 -0.0688608
0 0.950768 0.0944132 -0.866741
0 0.950769 0.0942932 -0.495228
0 0.950751 0.0938528 -0.630746
0 0.950762 0.0968828 -1.51033
0 0.950749 0.0934604 0.731337
0 0.950782 0.0944011 0.317455
0 0.950779 0.0956398 0.0425026
0 0.950768 0.0951001 -0.560076
0 0.950771 0.092921 -0.228301
0 0.950769 0.093592 -0.0951889
0 0.950773 0.0945537 0.298451
0 0.950783 0.0955775 1.51801
0 0.950769 0.111216 2.25691
0 0.950787 0.0944901 -0.802927
0 0.950786 0.0955287 1.21795
0 0.950767 0.0969321 -1.82411
0 0.950775 0.0943833 -0.277726
0 0.950776 0.0966119 -0.0866037
0 0.950789 0.0951489 0.912465
0 0.950774 0.095582 -1.39892
0 0.950785 0.0994002 1.14308
0 0.950774 0.0944835 0.603009
0 0.950782 0.111051 2.18071
0 0.950764 0.0931091 -0.314512
0 0.95076 0.0942082 0.196722
0 0.950765 0.0937164 -0.882555
0 0.950766 0.0941151 0.812442
0 0.950785 0.0928601 -0.433023
0 0.950771 0.0932683 0.495036
0 0.950765 0.0935909 0.239123
0 0.950785 0.0961954 -0.26424
0 0.950792 0.0958875 0.797647
0 0.950787 0.0952607 0.867553
0 0.950786 0.0955028 -0.704751
0 0.950779 0.0966065 0.87377
0 0.950799 0.0961182 0.559225
0 0.950795 0.0950838 0.75303
0 0.950769 0.0927756 -0.41347
0 0.950794 0.115878 0.572143
0 0.95079 0.100228 -0.868653
0 0.950783 0.0968009 0.835651
0 0.950785 0.0951091 0.420122
0 0.950771 0.0955174 -0.955966
0 0.950769 0.0956578 1.2542
0 0.95078 0.0956754 -1.25748
0 0.950784 0.0990832 0.542713
0 0.950794 0.0983305 -0.679003
0 0.950809 0.0972245 -0.384642
0 0.950753 0.094481 -1.28396
0 0.950754 0.111091 2.75292
0 0.950765 0.094425 0.13684
0 0.950763 0.0936394 0.490781
0 0.950771 0.0928364 0.614108
0 0.950769 0.0929833 0.00607257
0 0.950761 0.0930127 -0.178839
0 0.95077 0.0939372 -0.195253
0 0.950799 0.0955682 1.22216
0 0.950795 0.0945253 -0.508295
0 0.950781 0.0953553 -0.254276
0 0.950794 0.0953691 0.864057
0 0.950799 0.0954805 -1.2465
0 0.950757 0.0939044 -0.241346
0 0.950762 0.113196 3.54094
0 0.950794 0.0986877 0.511691
0 0.950784 0.0946078 0.44203
0 0.950787 0.0974313 -0.162085
0 0.950779 0.0946872 0.800827
0 0.950797 0.0962933 -1.12618
0 0.950775 0.0962439 0.971333
0 0.950777 0.099879 2.96638
0 0.950789 0.0973241 -0.641391
0 0.950789 0.0972062 0.350554
0 0.950786 0.0961487 1.40426
0 0.950767 0.0943829 -0.138782
0 0.950743 0.0937039 -0.233584
0 0.950732 0.113914 6.36159
0 0.950771 0.093493 0.645819
0 0.950776 0.0931477 0.731783
0 0.950761 0.0933577 -0.0220135
0 0.950781 0.094022 0.282422
0 0.950774 0.0936538 -0.370645
0 0.950779 0.0949546 0.157233
0 0.950784 0.0953101 -0.672492
0 0.950779 0.0952699 0.34788
0 0.950792 0.0954942 0.885708
0 0.950798 0.0973847 -0.32063
0 0.950801 0.094789 -0.974075
0 0.950764 0.0954741 -0.553312
0 0.950757 0.0952432 -0.375612
0 0.95076 0.114963 6.35519
0 0.950792 0.0952932 -0.946654
0 0.950788 0.0957339 -0.699185
0 0.95077 0.0937557 0.654147
0 0.950774 0.0949155 0.606978
0 0.95077 0.0975885 -0.456615
0 0.950769 0.0983689 1.61638
0 0.950766 0.0950045 -0.0879066
0 0.950737 0.0944288 -0.341099
0 0.950721 0.111657 2.69261
0 0.950776 0.0942561 -0.320418
0 0.950767 0.0952892 -0.248833
0 0.950759 0.0950955 0.0313219
0 0.950773 0.0949631 0.147032
0 0.950772 0.0933846 0.232153
0 0.950788 0.10023 0.230341
0 0.950805 0.0956482 -0.627265
0 0.950781 0.0958191 -0.12174
0 0.950792 0.0964843 1.1223
0 0.950782 0.0941385 -0.225155
0 0.950782 0.0929823 0.332116
0 0.950768 0.112402 2.93552
0 0.950774 0.0968073 2.48865
0 0.950773 0.0959704 -0.471357
0 0.950775 0.0967384 -0.994429
0 0.950777 0.0996767 2.70254
0 0.950779 0.0976674 2.30202
0 0.950766 0.0943082 1.14556
0 0.950743 0.0960903 -0.147327
0 0.950718 0.111753 6.51349
0 0.950766 0.0942938 -0.0267778
0 0.950766 0.0940986 -0.0017918
0 0.950771 0.0951955 -1.10528
0 0.95077 0.094742 -0.649452
0 0.950793 0.0964825 0.304011
0 0.950795 0.0960032 -0.438933
0 0.950775 0.0996424 0.883975
0 0.950791 0.0968381 1.3362
0 0.950765 0.0942059 -0.379374
0 0.950783 0.093576 -0.281296
0 0.950813 0.093245 0.0535715
0 0.950807 0.114398 1.17594
0 0.950781 0.096396 -1.21447
0 0.950774 0.0956364 -0.196677
0 0.950769 0.100249 2.7807
0 0.950764 0.0950309 1.35057
0 0.950758 0.0940215 -0.0695098
0 0.950739 0.113548 4.50658
0 0.950764 0.0935909 0.116532
0 0.950772 0.0947557 -0.578558
0 0.950772 0.0940641 -0.0606739
0 0.950788 0.0942703 -0.953568
0 0.950782 0.0967667 1.08288
0 0.950764 0.0939083 -0.4001
0 0.950775 0.0937031 0.26467
0 0.95081 0.093183 0.0495006
0 0.950833 0.112563 0.713545
0 0.950768 0.0943108 -0.804636
0 0.950743 0.0977111 1.88766
0 0.950744 0.0955518 0.11212
0 0.950765 0.0953736 -0.297144
0 0.950763 0.111767 3.03978
0 0.950769 0.0952935 0.881454
0 0.950768 0.0942904 0.715774
0 0.950774 0.0936255 -0.685088
0 0.950773 0.0939935 -0.429317
0 0.950772 0.0942093 0.500019
0 0.950782 0.0931218 0.0244284
0 0.95081 0.11173 3.06586
0 0.950751 0.0975581 -1.59621
0 0.950738 0.0954957 -0.850127
0 0.950767 0.0946278 -0.285593
0 0.950782 0.111751 -0.224056
0 0.950757 0.0965517 -1.43335
0 0.950778 0.0947708 0.383175
0 0.950767 0.0959473 -1.16884
0 0.950755 0.0941453 -0.223516
0 0.950781 0.0949937 1.04473
0 0.950783 0.0944837 1.02741
0 0.950784 0.111513 3.4664
0 0.950747 0.0959531 -0.899871
0 0.950759 0.0945191 0.481715
0 0.950779 0.110687 3.50713
0 0.950776 0.096082 -1.59423
0 0.950754 0.0969338 1.01817
0 0.950747 0.101507 1.63727
0 0.950782 0.0955284 0.729452
0 0.950801 0.109715 2.48646
0 0.950774 0.0938434 0.114649
0 0.950764 0.113035 6.84683
0 0.950774 0.0950037 0.71111
0 0.950715 0.0949423 0.486884
0 0.950745 0.110596 4.36644
0 0.950801 0.113843 0.206743
0 0.95073 0.114041 2.39208
VECTORS fa_u float
0.00730131 0.00291566 -0
0.00665008 0.00382022 -0
0.00283179 0.000771999 -0
0.00723026 0.00112817 -0
1e-08 0 0
0.00521591 0.00401993 -0
0.00251748 0.00243484 -0
1e-08 0 0
1e-08 0 0
0.00453668 0.00552688 -0
0.00535442 0.00898302 -0
0.00661399 0.000141541 -0
0.0062152 -0.00066619 0
1e-08 0 0
1e-08 0 0
1e-08 0 0
1e-08 0 0
1e-08 0 0
1e-08 0 0
1e-08 0 0
1e-08 0 0
0.00295848 0.00730595 -0
0.00159227 0.00626165 -0
1e-08 0 0
1e-08 0 0
1e-08 0 0
0.00902495 -0.00227556 0
1e-08 0 0
0.011145 -0.0048883 0
1e-08 0 0
1e-08 0 0
1e-08 0 0
0.000855524 0.00735138 -0
1e-08 0 0
1e-08 0 0
1e-08 0 0
1e-08 0 0
1e-08 0 0
1e-08 0 0
1e-08 0 0
1e-08 0 0
1e-08 0 0
1e-08 0 0
-0.000179449 0.00769924 -0
1e-08 0 0
1e-08 0 0
1e-08 0 0
0.00565794 -0.0036096 0
1e-08 0 0
0.00264665 -0.00213859 0
1e-08 0 0
1e-08 0 0
1e-08 0 0
1e-08 0 0
1e-08 0 0
1e-08 0 0
1e-08 0 0
1e-08 0 0
1e-08 0 0
1e-08 0 0
1e-08 0 0
1e-08 0 0
1e-08 0 0
-0.00058012 0.00398775 0
1e-08 0 0
1e-08 0 0
1e-08 0 0
1e-08 0 0
1e-08 0 0
0.00316471 -0.00313017 0
1e-08 0 0
0.00277499 -0.00339729 0
1e-08 0 0
1e-08 0 0
1e-08 0 0
1e-08 0 0
1e-08 0 0
1e-08 0 0
1e-08 0 0
1e-08 0 0
1e-08 0 0
1e-08 0 0
1e-08 0 0
1e-08 0 0
1e-08 0 0
-0.00137594 0.00530305 0
1e-08 0 0
1e-08 0 0
1e-08 0 0
1e-08 0 0
1e-08 0 0
1e-08 0 0
0.00578631 -0.00948435 0
1e-08 0 0
1e-08 0 0
1e-08 0 0
1e-08 0 0
1e-08 0 0
0.00368821 -0.00913654 0
1e-08 0 0
1e-08 0 0
1e-08 0 0
1e-08 0 0
1e-08 0 0
1e-08 0 0
1e-08 0 0
1e-08 0 0
1e-08 0 0
1e-08 0 0
-0.00290548 0.00720384 0
1e-08 0 0
1e-08 0 0
1e-08 0 0
1e-08 0 0
1e-08 0 0
1e-08 0 0
1e-08 0 0
1e-08 0 0
1e-08 0 0
1e-08 0 0
1e-08 0 0
1e-08 0 0
1e-08 0 0
1e-08 0 0
0.00134204 -0.00537175 0
1e-08 0 0
1e-08 0 0
1e-08 0 0
1e-08 0 0
1e-08 0 0
1e-08 0 0
1e-08 0 0
1e-08 0 0
1e-08 0 0
-0.00375523 0.00650677 0
1e-08 0 0
1e-08 0 0
1e-08 0 0
1e-08 0 0
1e-08 0 0
1e-08 0 0
1e-08 0 0
1e-08 0 0
1e-08 0 0
1e-08 0 0
1e-08 0 0
1e-08 0 0
1e-08 0 0
1e-08 0 0
1e-08 0 0
0.000517928 -0.00378377 0
1e-08 0 0
1e-08 0 0
1e-08 0 0
1e-08 0 0
1e-08 0 0
1e-08 0 0
1e-08 0 0
1e-08 0 0
1e-08 0 0
1e-08 0 0
-0.00465876 0.00597287 0
1e-08 0 0
1e-08 0 0
1e-08 0 0
1e-08 0 0
1e-08 0 0
1e-08 0 0
1e-08 0 0
1e-08 0 0
1e-08 0 0
1e-08 0 0
1e-08 0 0
1e-08 0 0
0.000120516 -0.00777239 0
1e-08 0 0
1e-08 0 0
1e-08 0 0
1e-08 0 0
1e-08 0 0
1e-08 0 0
1e-08 0 0
1e-08 0 0
1e-08 0 0
1e-08 0 0
1e-08 0 0
1e-08 0 0
-0.00217564 0.00221478 0
1e-08 0 0
1e-08 0 0
1e-08 0 0
1e-08 0 0
1e-08 0 0
1e-08 0 0
1e-08 0 0
1e-08 0 0
1e-08 0 0
1e-08 0 0
1e-08 0 0
1e-08 0 0
1e-08 0 0
-0.000857146 -0.00697265 0
1e-08 0 0
1e-08 0 0
1e-08 0 0
1e-08 0 0
1e-08 0 0
1e-08 0 0
1e-08 0 0
1e-08 0 0
-0.00485667 0.00398078 0
1e-08 0 0
1e-08 0 0
1e-08 0 0
1e-08 0 0
1e-08 0 0
1e-08 0 0
1e-08 0 0
1e-08 0 0
1e-08 0 0
1e-08 0 0
1e-08 0 0
-0.00160059 -0.00617391 0
1e-08 0 0
1e-08 0 0
1e-08 0 0
1e-08 0 0
1e-08 0 0
1e-08 0 0
1e-08 0 0
-0.00876298 0.00527644 0
1e-08 0 0
1e-08 0 0
1e-08 0 0
1e-08 0 0
1e-08 0 0
1e-08 0 0
1e-08 0 0
1e-08 0 0
1e-08 0 0
1e-08 0 0
1e-08 0 0
-0.00304854 -0.007427 0
1e-08 0 0
1e-08 0 0
1e-08 0 0
1e-08 0 0
1e-08 0 0
-0.00761605 0.00311675 0
1e-08 0 0
1e-08 0 0
1e-08 0 0
1e-08 0 0
1e-08 0 0
1e-08 0 0
1e-08 0 0
1e-08 0 0
-0.00507558 -0.00845709 0
1e-08 0 0
1e-08 0 0
1e-08 0 0
1e-08 0 0
-0.00619961 0.00159336 0
1e-08 0 0
1e-08 0 0
1e-08 0 0
1e-08 0 0
1e-08 0 0
1e-08 0 0
-0.0036193 -0.00446676 0
1e-08 0 0
1e-08 0 0
1e-08 0 0
-0.00724329 0.000865957 0
1e-08 0 0
1e-08 0 0
1e-08 0 0
1e-08 0 0
1e-08 0 0
1e-08 0 0
-0.00260348 -0.00258087 0
1e-08 0 0
1e-08 0 0
-0.00844285 -0.000192663 0
1e-08 0 0
1e-08 0 0
1e-08 0 0
1e-08 0 0
-0.00590378 -0.00461568 0
1e-08 0 0
-0.00351035 -0.000510541 0
1e-08 0 0
1e-08 0 0
-0.00679524 -0.00392132 0
-0.00545033 -0.00140049 0
-0.00720684 -0.00289424 0
