# vtk DataFile Version 2.0
CellBP Time: 9.48
ASCII
DATASET UNSTRUCTURED_GRID
POINTS 296 double
-8.93231 -3.65729 0
-8.37476 -4.80788 0
-9.32194 -2.43657 0
-9.59926 -1.21003 0
-8.08824 -2.70873 0
-7.6597 -5.87255 0
-6.81222 -6.83544 0
-7.64875 -3.72808 0
-7.08812 -4.70065 0
-5.88926 -7.70273 0
-4.86301 -8.43516 0
-9.7078 0.0379255 0
-9.65312 1.31276 0
-8.40845 -1.6209 0
-8.56609 -0.505069 0
-7.33699 -1.91516 0
-6.96232 -2.77726 0
-6.4349 -5.61925 0
-5.66806 -6.43677 0
-6.53538 -3.73785 0
-6.00288 -4.52251 0
-3.71479 -8.99901 0
-2.48703 -9.39743 0
-4.79464 -7.15416 0
-3.84639 -7.73855 0
-8.58158 0.631359 0
-9.43403 2.58943 0
-8.43935 1.72975 0
-9.02473 3.80434 0
-7.51284 -0.881796 0
-7.58271 0.0903824 0
-6.73018 -1.25164 0
-1.21601 -9.63434 0
-6.2365 -2.06482 0
-6.10384 -2.93675 0
-5.36366 -5.32322 0
-4.66641 -5.96876 0
-5.46876 -3.628 0
-5.0891 -4.42518 0
-2.81664 -8.19976 0
-1.74559 -8.45885 0
-3.83722 -6.58331 0
-3.01054 -7.01613 0
0.0555927 -9.6934 0
-7.50752 1.11596 0
-8.18254 2.85739 0
-7.37079 2.04828 0
-8.41069 4.92299 0
-7.69951 3.87898 0
-7.65194 5.95729 0
-6.58027 -0.367414 0
-6.75969 0.548554 0
-5.61769 -0.967811 0
-0.581314 -8.60541 0
0.543228 -8.53676 0
-5.15308 -2.39892 0
-4.34387 -4.95726 0
-3.79433 -5.63847 0
-4.31269 -3.70436 0
-2.02425 -7.40711 0
-1.11474 -7.61604 0
-2.92753 -5.97029 0
-2.2695 -6.48548 0
1.30942 -9.57583 0
-6.51444 1.38041 0
-6.98557 3.02576 0
-6.49082 2.30408 0
-7.10442 4.84864 0
-6.54348 3.8844 0
-6.81089 6.90345 0
-6.39014 5.72441 0
-5.86833 7.76025 0
-4.37249 -1.166 0
-5.67521 0.490602 0
-4.57087 -0.0282578 0
-0.00501691 -7.65038 0
1.67979 -8.38589 0
0.902094 -7.53969 0
-3.95828 -2.35248 0
-3.45398 -1.37924 0
-3.21527 -4.69901 0
-3.21488 -3.20512 0
-1.36414 -6.52425 0
-0.519567 -6.85093 0
-1.9453 -5.42929 0
2.55795 -9.32951 0
-5.3789 1.98992 0
-5.93964 2.98031 0
-5.94394 4.72321 0
-5.60856 3.86426 0
-5.59665 6.51925 0
-5.30198 5.44749 0
-4.84106 8.51221 0
-4.69903 7.18248 0
-3.45886 -0.419019 0
-4.36066 1.22473 0
-3.64921 0.585115 0
-3.9792 2.29318 0
-3.7046 9.08029 0
2.75571 -8.05317 0
0.372642 -6.59883 0
1.92918 -7.2805 0
1.23234 -6.6884 0
-2.42448 -0.861682 0
-2.80985 -2.10405 0
-2.26307 -4.02151 0
-2.29623 -2.92606 0
-0.452037 -5.7176 0
-1.20041 -4.41835 0
3.7686 -8.93768 0
-4.66953 3.30134 0
-4.95079 4.45112 0
-4.51618 6.08204 0
-4.41453 5.1945 0
-3.7476 7.78501 0
-3.70864 6.62402 0
-2.70791 8.18971 0
-1.63339 -0.122583 0
-1.43423 -0.873148 0
-2.46968 0.517445 0
-3.20083 1.43429 0
-3.17314 3.26026 0
-2.86457 2.35765 0
-1.34992 0.637833 0
-2.48417 9.46385 0
3.79229 -7.62379 0
2.83494 -6.89251 0
0.897151 -5.65578 0
1.97846 -6.19435 0
-1.6605 -1.9726 0
-1.41371 -3.23141 0
0.0779043 -4.64349 0
-0.552439 -3.63722 0
4.77039 -7.06616 0
4.91065 -8.38051 0
-3.68223 4.43109 0
-3.6329 5.58345 0
-2.79574 7.06433 0
-2.92567 6.16428 0
-1.61955 8.50987 0
-1.87885 7.40715 0
-2.29687 3.97446 0
-0.719413 -1.31538 0
-0.827987 -0.242755 0
-1.92947 1.69388 0
-2.10221 2.8548 0
-1.29643 3.50449 0
-0.871182 1.36076 0
-0.284925 0.464412 0
-0.521205 8.66158 0
-1.22452 9.69996 0
1.0674 -4.45435 0
3.74713 -6.44477 0
2.86406 -5.86823 0
2.03242 -5.2475 0
4.62221 -5.96724 0
-0.547318 -2.45557 0
0.488914 -3.40899 0
0.0604853 -1.59986 0
1.44348 -3.5933 0
5.69439 -6.39517 0
5.97231 -7.6658 0
-2.41471 5.21058 0
-2.06073 6.34879 0
-0.871369 7.61185 0
-1.22004 6.74379 0
0.092332 7.70352 0
-1.12601 4.41431 0
0.149175 -0.611745 0
-0.809526 2.49461 0
-0.344958 3.57161 0
0.0511243 1.5153 0
0.731439 0.474143 0
0.629904 8.68882 0
0.0418742 9.8097 0
2.30347 -4.1552 0
3.72195 -5.42773 0
2.89612 -5.03168 0
5.41887 -5.3062 0
4.54354 -5.07906 0
0.633222 -2.28273 0
1.23908 -2.90422 0
0.75912 -1.38691 0
2.11631 -3.06548 0
2.92042 -3.38201 0
6.00743 -4.64716 0
6.48578 -5.60295 0
6.92669 -6.80838 0
-0.989331 5.68461 0
-0.343662 6.71522 0
1.1029 7.61449 0
0.562505 6.924 0
-0.00271578 4.65424 0
0.592225 3.78317 0
1.33257 -0.642326 0
0.521795 2.63743 0
0.949811 1.57627 0
1.89051 0.207738 0
1.59723 1.0602 0
2.09601 7.43853 0
1.76784 8.54058 0
1.32279 9.73959 0
3.71602 -4.20501 0
4.9799 -4.28557 0
5.71144 -3.8098 0
3.7005 -3.10804 0
1.79609 -1.8767 0
2.96592 -2.52412 0
6.64102 -3.84322 0
7.21896 -4.77788 0
7.79216 -5.87797 0
0.480597 5.76265 0
1.41051 6.60883 0
2.33863 6.54834 0
1.188 4.4866 0
1.46295 3.35267 0
2.40745 -0.689135 0
2.79211 0.138253 0
1.76571 2.14931 0
2.58851 1.13888 0
3.025 7.04079 0
2.85847 8.21716 0
2.59028 9.49626 0
4.80223 -3.22346 0
5.99389 -3.02449 0
4.09757 -2.22862 0
3.1966 -1.48874 0
6.61022 -2.27299 0
7.10118 -2.98223 0
7.81814 -3.84164 0
8.52877 -4.85318 0
1.99574 5.50164 0
3.00965 6.03086 0
2.33387 4.06161 0
2.38991 3.01722 0
3.47733 -0.45282 0
3.56813 0.613772 0
2.92574 2.25819 0
3.48524 1.50421 0
3.89963 5.76576 0
3.89728 6.65549 0
3.90817 7.78998 0
3.81444 9.09328 0
5.47195 -1.8788 0
4.43776 -1.10717 0
6.58757 -1.30963 0
7.4508 -1.99925 0
8.23753 -2.81025 0
9.09734 -3.71001 0
3.32369 4.77194 0
3.26831 3.31746 0
4.61137 0.134134 0
4.41921 1.2786 0
3.96426 2.38288 0
4.41998 5.01954 0
4.70938 6.05112 0
4.87162 7.22125 0
4.95716 8.52459 0
5.75975 -0.434528 0
6.85825 -0.487404 0
7.60975 -1.05782 0
8.51296 -1.70704 0
9.49822 -2.48376 0
4.41379 3.72546 0
5.664 1.05226 0
5.20643 2.45156 0
5.18978 4.48321 0
5.43379 5.378 0
5.74679 6.5066 0
5.98262 7.79193 0
6.67059 0.428697 0
7.67638 -0.0297779 0
8.67221 -0.560061 0
9.73876 -1.21408 0
6.76255 1.2863 0
5.52021 3.65648 0
6.33271 2.10309 0
6.15712 2.97111 0
6.0703 4.53861 0
6.48938 5.67201 0
6.91957 6.93467 0
7.58273 0.929074 0
8.64063 0.560576 0
9.80294 0.0630701 0
7.39082 1.92732 0
6.56875 3.75486 0
7.01789 2.82888 0
7.14828 4.73587 0
7.77723 5.98168 0
8.48269 1.67797 0
9.68157 1.31667 0
8.15004 2.7422 0
7.7342 3.79385 0
8.49285 4.92225 0
9.43855 2.56713 0
9.0482 3.7787 0
CELLS 542 2168
3 2 0 4
3 0 1 7
3 4 0 7
3 1 5 8
3 7 1 8
3 3 2 13
3 13 2 4
3 11 3 14
3 14 3 13
3 13 4 15
3 4 7 16
3 15 4 16
3 5 6 17
3 8 5 17
3 6 9 18
3 17 6 18
3 7 8 19
3 16 7 19
3 8 17 20
3 19 8 20
3 9 10 23
3 18 9 23
3 10 21 24
3 23 10 24
3 12 11 25
3 25 11 14
3 26 12 27
3 27 12 25
3 14 13 29
3 29 13 15
3 25 14 30
3 30 14 29
3 29 15 31
3 15 16 33
3 31 15 33
3 16 19 34
3 33 16 34
3 17 18 35
3 20 17 35
3 18 23 36
3 35 18 36
3 19 20 37
3 34 19 37
3 20 35 38
3 37 20 38
3 21 22 39
3 24 21 39
3 22 32 40
3 39 22 40
3 23 24 41
3 36 23 41
3 24 39 42
3 41 24 42
3 27 25 44
3 44 25 30
3 28 26 45
3 45 26 27
3 45 27 46
3 46 27 44
3 47 28 48
3 48 28 45
3 30 29 50
3 50 29 31
3 44 30 51
3 51 30 50
3 50 31 52
3 31 33 52
3 32 43 53
3 40 32 53
3 53 43 54
3 33 34 55
3 34 37 55
3 33 55 52
3 35 36 56
3 38 35 56
3 36 41 57
3 56 36 57
3 37 38 58
3 38 56 58
3 37 58 55
3 39 40 59
3 42 39 59
3 40 53 60
3 59 40 60
3 41 42 61
3 57 41 61
3 42 59 62
3 61 42 62
3 43 63 54
3 46 44 64
3 64 44 51
3 48 45 65
3 65 45 46
3 65 46 66
3 66 46 64
3 49 47 67
3 67 47 48
3 67 48 68
3 68 48 65
3 69 49 70
3 70 49 67
3 52 55 72
3 64 51 73
3 51 50 73
3 50 52 73
3 73 52 74
3 74 52 72
3 53 54 75
3 60 53 75
3 54 63 76
3 54 76 77
3 75 54 77
3 55 58 78
3 72 55 78
3 72 78 79
3 56 57 80
3 57 61 80
3 56 80 58
3 58 80 81
3 78 58 81
3 59 60 82
3 62 59 82
3 60 75 83
3 82 60 83
3 61 62 84
3 62 82 84
3 61 84 80
3 63 85 76
3 66 64 86
3 64 73 86
3 68 65 87
3 87 65 66
3 87 66 86
3 70 67 88
3 88 67 68
3 88 68 89
3 89 68 87
3 71 69 90
3 90 69 70
3 90 70 91
3 91 70 88
3 92 71 93
3 93 71 90
3 74 72 94
3 94 72 79
3 86 73 95
3 95 73 74
3 95 74 96
3 96 74 94
3 97 86 95
3 76 85 99
3 75 77 100
3 83 75 100
3 76 99 101
3 77 76 101
3 77 101 102
3 100 77 102
3 94 79 103
3 78 81 104
3 79 78 104
3 79 104 103
3 80 84 105
3 81 80 105
3 81 105 106
3 104 81 106
3 82 83 107
3 83 100 107
3 82 107 84
3 84 107 108
3 105 84 108
3 85 109 99
3 89 87 110
3 87 86 110
3 110 86 97
3 91 88 111
3 111 88 89
3 111 89 110
3 93 90 112
3 112 90 91
3 112 91 113
3 113 91 111
3 98 92 114
3 114 92 93
3 114 93 115
3 115 93 112
3 116 98 114
3 117 103 118
3 96 94 119
3 94 103 119
3 119 103 117
3 97 95 120
3 120 95 96
3 120 96 119
3 121 110 97
3 121 97 122
3 122 97 120
3 123 119 117
3 124 98 116
3 99 109 125
3 99 125 126
3 101 99 126
3 100 102 127
3 100 127 107
3 101 126 128
3 102 101 128
3 102 128 127
3 104 106 129
3 104 129 103
3 103 129 118
3 105 108 130
3 106 105 130
3 106 130 129
3 107 127 131
3 108 107 131
3 108 131 132
3 108 132 130
3 109 134 125
3 125 134 133
3 113 111 135
3 111 110 135
3 135 110 121
3 115 112 136
3 136 112 113
3 136 113 135
3 116 114 137
3 137 114 115
3 137 115 138
3 138 115 136
3 139 124 116
3 139 116 140
3 140 116 137
3 141 135 121
3 118 129 142
3 118 142 143
3 117 118 143
3 123 117 143
3 122 120 144
3 120 119 144
3 144 119 123
3 141 121 145
3 145 121 122
3 145 122 144
3 146 141 145
3 147 144 123
3 147 123 148
3 143 148 123
3 150 124 139
3 149 150 139
3 131 127 151
3 125 133 152
3 126 125 152
3 126 152 153
3 128 126 153
3 128 153 154
3 128 154 127
3 127 154 151
3 152 133 155
3 130 132 156
3 130 156 129
3 129 156 142
3 131 151 157
3 132 131 157
3 132 157 156
3 156 158 142
3 157 151 159
3 133 160 155
3 134 161 133
3 133 161 160
3 138 136 162
3 136 135 162
3 162 135 141
3 140 137 163
3 163 137 138
3 163 138 162
3 149 139 164
3 164 139 140
3 164 140 165
3 165 140 163
3 166 149 164
3 167 162 141
3 167 141 146
3 142 158 168
3 143 142 168
3 143 168 148
3 146 145 169
3 145 144 169
3 169 144 147
3 170 167 146
3 170 146 169
3 171 169 147
3 171 147 148
3 171 148 172
3 168 172 148
3 173 149 166
3 174 150 149
3 173 174 149
3 154 175 151
3 151 175 159
3 152 155 176
3 153 152 176
3 153 176 177
3 153 177 154
3 154 177 175
3 155 160 178
3 155 178 179
3 176 155 179
3 156 157 180
3 156 180 158
3 157 159 181
3 157 181 180
3 158 180 182
3 158 182 168
3 159 175 183
3 159 183 181
3 175 184 183
3 160 186 178
3 178 186 185
3 161 187 160
3 160 187 186
3 165 163 188
3 163 162 188
3 188 162 167
3 166 164 189
3 189 164 165
3 189 165 188
3 190 173 166
3 190 166 191
3 191 166 189
3 192 188 167
3 192 167 170
3 193 192 170
3 182 194 168
3 194 172 168
3 193 170 195
3 170 169 195
3 195 169 171
3 196 195 171
3 196 171 172
3 194 197 172
3 197 198 172
3 198 196 172
3 200 173 190
3 199 200 190
3 201 174 173
3 200 201 173
3 176 179 202
3 177 176 202
3 177 202 175
3 175 202 184
3 178 185 203
3 178 203 179
3 179 203 202
3 203 185 204
3 202 205 184
3 183 206 181
3 180 181 206
3 180 206 182
3 182 206 194
3 183 184 207
3 205 207 184
3 183 207 206
3 185 208 204
3 186 209 185
3 185 209 208
3 187 210 186
3 186 210 209
3 191 189 211
3 189 188 211
3 211 188 192
3 199 190 212
3 212 190 191
3 212 191 211
3 213 199 212
3 214 211 192
3 214 192 193
3 215 214 193
3 215 193 195
3 206 216 194
3 216 197 194
3 216 217 197
3 215 195 218
3 218 195 196
3 198 218 196
3 217 219 197
3 219 218 198
3 197 219 198
3 220 199 213
3 221 200 199
3 220 221 199
3 222 201 200
3 221 222 200
3 203 204 223
3 203 223 202
3 202 223 205
3 204 208 224
3 204 224 223
3 205 223 225
3 205 225 207
3 207 225 226
3 207 226 206
3 226 216 206
3 208 228 224
3 224 228 227
3 209 229 208
3 229 228 208
3 210 230 209
3 209 230 229
3 213 212 231
3 212 211 231
3 231 211 214
3 232 220 213
3 232 213 231
3 233 231 214
3 233 214 215
3 234 233 215
3 234 215 218
3 226 235 216
3 235 217 216
3 235 236 217
3 217 236 219
3 237 234 218
3 237 218 219
3 236 238 219
3 238 237 219
3 240 220 232
3 239 240 232
3 241 221 220
3 240 241 220
3 242 222 221
3 241 242 221
3 224 227 243
3 224 243 223
3 223 243 225
3 225 243 244
3 225 244 226
3 226 244 235
3 227 245 243
3 228 246 227
3 227 246 245
3 229 247 228
3 228 247 246
3 230 248 229
3 229 248 247
3 239 232 249
3 232 231 249
3 249 231 233
3 250 249 233
3 250 233 234
3 237 250 234
3 244 251 235
3 235 251 236
3 251 252 236
3 236 252 238
3 252 253 238
3 253 250 237
3 253 237 238
3 254 239 249
3 255 240 239
3 254 255 239
3 256 241 240
3 255 256 240
3 257 242 241
3 256 257 241
3 245 258 243
3 243 258 244
3 244 258 251
3 245 259 258
3 246 260 245
3 245 260 259
3 247 261 246
3 246 261 260
3 248 262 247
3 247 262 261
3 254 249 263
3 263 249 250
3 253 263 250
3 258 264 251
3 251 264 252
3 264 265 252
3 265 263 253
3 252 265 253
3 266 254 263
3 267 255 254
3 266 267 254
3 268 256 255
3 267 268 255
3 269 257 256
3 268 269 256
3 259 270 258
3 270 264 258
3 260 271 259
3 259 271 270
3 261 272 260
3 260 272 271
3 262 273 261
3 273 272 261
3 270 274 264
3 275 266 263
3 275 263 265
3 274 276 264
3 276 265 264
3 276 277 265
3 277 275 265
3 278 267 266
3 275 278 266
3 279 268 267
3 278 279 267
3 280 269 268
3 279 280 268
3 271 281 270
3 270 281 274
3 272 282 271
3 271 282 281
3 273 283 272
3 272 283 282
3 281 284 274
3 274 284 276
3 285 278 275
3 277 285 275
3 284 286 276
3 286 285 277
3 276 286 277
3 287 279 278
3 285 287 278
3 288 280 279
3 287 288 279
3 282 289 281
3 281 289 284
3 283 290 282
3 282 290 289
3 289 291 284
3 284 291 286
3 291 292 286
3 292 287 285
3 286 292 285
3 293 288 287
3 292 293 287
3 290 294 289
3 289 294 291
3 294 295 291
3 295 293 292
3 291 295 292
CELL_TYPES 542
5
5
5
5
5
5
5
5
5
5
5
5
5
5
5
5
5
5
5
5
5
5
5
5
5
5
5
5
5
5
5
5
5
5
5
5
5
5
5
5
5
5
5
5
5
5
5
5
5
5
5
5
5
5
5
5
5
5
5
5
5
5
5
5
5
5
5
5
5
5
5
5
5
5
5
5
5
5
5
5
5
5
5
5
5
5
5
5
5
5
5
5
5
5
5
5
5
5
5
5
5
5
5
5
5
5
5
5
5
5
5
5
5
5
5
5
5
5
5
5
5
5
5
5
5
5
5
5
5
5
5
5
5
5
5
5
5
5
5
5
5
5
5
5
5
5
5
5
5
5
5
5
5
5
5
5
5
5
5
5
5
5
5
5
5
5
5
5
5
5
5
5
5
5
5
5
5
5
5
5
5
5
5
5
5
5
5
5
5
5
5
5
5
5
5
5
5
5
5
5
5
5
5
5
5
5
5
5
5
5
5
5
5
5
5
5
5
5
5
5
5
5
5
5
5
5
5
5
5
5
5
5
5
5
5
5
5
5
5
5
5
5
5
5
5
5
5
5
5
5
5
5
5
5
5
5
5
5
5
5
5
5
5
5
5
5
5
5
5
5
5
5
5
5
5
5
5
5
5
5
5
5
5
5
5
5
5
5
5
5
5
5
5
5
5
5
5
5
5
5
5
5
5
5
5
5
5
5
5
5
5
5
5
5
5
5
5
5
5
5
5
5
5
5
5
5
5
5
5
5
5
5
5
5
5
5
5
5
5
5
5
5
5
5
5
5
5
5
5
5
5
5
5
5
5
5
5
5
5
5
5
5
5
5
5
5
5
5
5
5
5
5
5
5
5
5
5
5
5
5
5
5
5
5
5
5
5
5
5
5
5
5
5
5
5
5
5
5
5
5
5
5
5
5
5
5
5
5
5
5
5
5
5
5
5
5
5
5
5
5
5
5
5
5
5
5
5
5
5
5
5
5
5
5
5
5
5
5
5
5
5
5
5
5
5
5
5
5
5
5
5
5
5
5
5
5
5
5
5
5
5
5
5
5
5
5
5
5
5
5
5
5
5
5
5
5
5
5
5
5
5
5
5
5
5
5
5
5
5
5
5
5
5
5
5
5
5
5
5
5
5
5
5
5
5
5
5
5
5
5
5
5
5
5
5
5
5
5
5
5
5
5
5
5
5
5
5
5
5
5
5
5
5
5
5
5
5
5
5
5
5
5
POINT_DATA 296
SCALARS concentrations float 4
LOOKUP_TABLE default
0 0.950945 0.113335 0.470936
0 0.950937 0.112435 6.67053
0 0.951012 0.114276 1.69481
0 0.951025 0.112673 2.48587
0 0.95097 0.0935777 -0.192106
0 0.950997 0.112503 2.03234
0 0.950991 0.11304 2.97666
0 0.950937 0.0934201 0.562735
0 0.950968 0.0931207 0.541784
0 0.950948 0.114325 5.56597
0 0.950953 0.112275 3.26597
0 0.951003 0.113847 2.96297
0 0.951005 0.110302 2.47443
0 0.951006 0.092906 -0.105987
0 0.950998 0.0929436 -0.669242
0 0.950969 0.0927112 -1.16853
0 0.950956 0.0928792 0.761225
0 0.950991 0.0931813 0.302039
0 0.950968 0.0926411 0.400617
0 0.950965 0.0935644 0.69357
0 0.950974 0.0930516 -0.928006
0 0.951012 0.11107 0.952463
0 0.951025 0.115782 3.88746
0 0.950956 0.0933799 0.441962
0 0.950982 0.0949536 0.50448
0 0.950992 0.0923943 0.229111
0 0.951001 0.110581 1.40176
0 0.951 0.0932824 0.630632
0 0.950984 0.113037 1.07746
0 0.950974 0.0932372 -0.359401
0 0.950975 0.0939316 1.15905
0 0.950968 0.0928804 0.720015
0 0.950964 0.113904 4.98954
0 0.950973 0.0926552 -1.02727
0 0.950975 0.0928259 -0.864986
0 0.950972 0.0931724 0.610443
0 0.950967 0.09422 0.273499
0 0.950976 0.0946241 -0.26176
0 0.950977 0.0930112 -0.930311
0 0.951017 0.0927214 0.0856893
0 0.950986 0.0936672 -0.354281
0 0.950976 0.0941189 0.341579
0 0.950989 0.0942839 0.891733
0 0.950959 0.115611 5.36331
0 0.950979 0.093435 0.849567
0 0.950991 0.0943114 -1.21299
0 0.950982 0.0952656 1.88153
0 0.950953 0.114294 7.04379
0 0.950971 0.0936958 -0.952898
0 0.950956 0.112093 -1.50745
0 0.950966 0.0942488 1.49127
0 0.950968 0.0934953 0.0889073
0 0.950979 0.0928501 -1.32283
0 0.950966 0.0930928 -0.140513
0 0.95096 0.0929776 0.0644047
0 0.950976 0.0949848 0.259917
0 0.950969 0.0954533 -0.16709
0 0.950966 0.0938953 0.998059
0 0.950976 0.0934478 0.423474
0 0.950988 0.0932131 0.571746
0 0.950982 0.0952021 -0.898419
0 0.950977 0.0977966 -0.0152197
0 0.950987 0.0973187 1.63155
0 0.950943 0.113597 4.91484
0 0.950965 0.0945186 -1.29153
0 0.950974 0.0928326 0.160234
0 0.950963 0.0979227 1.56934
0 0.950952 0.0932207 0.48996
0 0.950965 0.0932076 0.880105
0 0.950963 0.113571 4.44524
0 0.950966 0.0921518 -0.361663
0 0.950962 0.112072 3.40166
0 0.950987 0.0942878 0.483634
0 0.950968 0.0944415 -1.49608
0 0.950987 0.0957263 -2.07585
0 0.950982 0.0934672 -0.351397
0 0.950952 0.0928342 0.185128
0 0.950977 0.0939935 -0.34514
0 0.950979 0.0954172 -0.393762
0 0.950987 0.0948329 0.344637
0 0.950973 0.0949357 -0.300259
0 0.950986 0.0940938 -0.275458
0 0.950985 0.0992588 1.77502
0 0.950973 0.100514 0.344375
0 0.950984 0.0953451 0.929622
0 0.950923 0.113877 5.62507
0 0.950963 0.0937486 0.103698
0 0.950963 0.0939336 -1.62553
0 0.950965 0.0927288 -0.767319
0 0.950967 0.0931972 -1.26872
0 0.95096 0.0930999 0.235523
0 0.950965 0.0939795 0.226686
0 0.950959 0.111811 4.18124
0 0.950966 0.0947453 -0.49773
0 0.950999 0.0955341 -0.934406
0 0.950969 0.0944926 -1.42767
0 0.95099 0.0941566 -1.19513
0 0.950972 0.0936885 0.382432
0 0.95097 0.110902 1.22015
0 0.950937 0.0928486 0.504897
0 0.950975 0.0952658 -0.0946012
0 0.950973 0.0930945 -0.546205
0 0.950985 0.0932176 -0.468964
0 0.950992 0.0945313 0.329923
0 0.950998 0.0976197 -0.767413
0 0.950978 0.0944719 0.544314
0 0.950996 0.0944958 0.520903
0 0.950981 0.0962916 -0.950131
0 0.950981 0.0981661 0.155803
0 0.950925 0.112149 4.11991
0 0.95097 0.0933479 -1.14789
0 0.950967 0.0933319 -0.798812
0 0.950973 0.0960081 0.0829269
0 0.950968 0.0949115 -0.483447
0 0.950967 0.0945931 0.478048
0 0.950977 0.0965935 -0.0234691
0 0.950979 0.0940397 -0.695731
0 0.950989 0.0932718 0.239805
0 0.950988 0.0941218 0.171393
0 0.950992 0.0939476 0.203305
0 0.950982 0.092743 0.279777
0 0.950976 0.0933161 0.350323
0 0.95098 0.093603 0.0365166
0 0.950992 0.0934858 0.229187
0 0.950976 0.115189 1.53879
0 0.950961 0.095025 1.10519
0 0.950975 0.0946029 -0.0589547
0 0.950981 0.0949213 -1.21885
0 0.950988 0.0951498 0.361457
0 0.950992 0.0982704 1.23163
0 0.950979 0.0947523 -0.975927
0 0.950981 0.0948662 0.921963
0 0.950985 0.0948906 -0.863518
0 0.95098 0.0928961 0.34678
0 0.950968 0.112681 2.34527
0 0.950974 0.0938673 0.0665924
0 0.950978 0.0956208 0.0871788
0 0.950973 0.0939745 0.331652
0 0.950976 0.0950454 -0.548355
0 0.950992 0.092873 -0.255684
0 0.950979 0.093688 -0.403492
0 0.950978 0.0945724 0.381202
0 0.950991 0.0946505 -0.82159
0 0.950996 0.0947051 -0.760395
0 0.95099 0.0936036 -0.0863561
0 0.950987 0.0943051 -0.441228
0 0.950978 0.0981854 -0.289033
0 0.950989 0.0947876 -0.0757293
0 0.950989 0.0935538 0.177484
0 0.951019 0.0927634 0.162095
0 0.951019 0.11515 0.918926
0 0.950967 0.0942607 1.00587
0 0.950976 0.0939314 0.937645
0 0.950983 0.0938464 1.01498
0 0.950976 0.0933876 -0.601055
0 0.950981 0.0929117 0.398801
0 0.950998 0.0956401 0.430424
0 0.950988 0.0973641 0.149048
0 0.951 0.0968371 0.876076
0 0.950965 0.094245 0.709375
0 0.951 0.0939657 0.306044
0 0.950995 0.111636 4.14072
0 0.950974 0.0945714 0.21024
0 0.950974 0.0940547 -0.201821
0 0.950989 0.0923176 -0.040984
0 0.950976 0.0934827 0.128137
0 0.950997 0.092538 -0.264777
0 0.950971 0.0944389 0.157372
0 0.950995 0.0940489 -0.53359
0 0.950984 0.0954062 0.311354
0 0.950975 0.095474 0.466868
0 0.950988 0.0936768 -0.667319
0 0.950992 0.0943332 0.600929
0 0.951018 0.0926694 -0.429791
0 0.951034 0.114494 3.11453
0 0.950971 0.096555 0.945069
0 0.950978 0.0945582 -1.2941
0 0.950977 0.0941741 -0.997771
0 0.950987 0.0937094 -0.9223
0 0.950979 0.0934206 -0.784215
0 0.950996 0.0982094 -1.72187
0 0.950969 0.100202 2.50583
0 0.950994 0.0941708 0.693282
0 0.950973 0.0940489 -0.782108
0 0.950978 0.0942478 0.905584
0 0.95098 0.0939546 0.79257
0 0.951005 0.093753 0.388651
0 0.951018 0.112565 1.27131
0 0.950972 0.0932617 -0.130245
0 0.950975 0.0927327 0.0187652
0 0.950993 0.0936861 -0.229242
0 0.950976 0.0946074 0.33386
0 0.950978 0.0937924 0.133617
0 0.950985 0.0940276 0.190285
0 0.950994 0.0958264 -0.0203975
0 0.95099 0.093593 -0.213426
0 0.950999 0.094358 -0.824329
0 0.950992 0.0960163 -0.874666
0 0.950996 0.0948702 1.23466
0 0.950987 0.0954226 0.153535
0 0.951027 0.0944458 -0.45693
0 0.95104 0.113744 -0.646875
0 0.950972 0.0948409 0.923275
0 0.950973 0.0953724 0.952059
0 0.950966 0.0930837 0.0909191
0 0.950975 0.0936153 -0.369179
0 0.950982 0.0969539 -1.70044
0 0.950985 0.0941067 -0.827308
0 0.950963 0.0934131 0.183602
0 0.950987 0.0935689 0.463048
0 0.951005 0.111085 3.8964
0 0.950977 0.0939996 -0.119377
0 0.950977 0.0977626 1.30178
0 0.950975 0.0949575 -0.0033204
0 0.950984 0.0948505 0.380079
0 0.950997 0.0944673 -0.78153
0 0.95099 0.0956845 1.67525
0 0.950994 0.0946625 -1.52242
0 0.951007 0.0952036 0.682203
0 0.950984 0.0959951 -1.40521
0 0.950993 0.0943638 -0.566823
0 0.951021 0.0936513 -0.097564
0 0.951044 0.112939 1.31832
0 0.950971 0.0937973 0.243357
0 0.950969 0.0943133 0.561469
0 0.950984 0.0957751 1.24799
0 0.950984 0.0941791 -0.607091
0 0.950973 0.0954018 0.51885
0 0.950952 0.0936315 0.0163571
0 0.950959 0.0945151 0.615379
0 0.950985 0.113228 3.51428
0 0.950977 0.0951065 0.162317
0 0.950979 0.0949002 0.719128
0 0.950984 0.0953316 1.32536
0 0.951011 0.0970084 2.07004
0 0.950988 0.094224 -0.783579
0 0.950974 0.0947953 -1.44155
0 0.950986 0.102166 3.03447
0 0.950952 0.0954425 -1.11549
0 0.950983 0.0938015 0.042359
0 0.950994 0.0928184 -0.181083
0 0.951009 0.0941 -0.169078
0 0.951026 0.113627 1.4606
0 0.950982 0.0959819 -0.992075
0 0.950984 0.0936121 0.438574
0 0.950973 0.0960983 1.04498
0 0.950953 0.0938454 0.317643
0 0.950923 0.0931519 -0.0264493
0 0.950937 0.115093 3.47758
0 0.950975 0.0942672 0.473294
0 0.950981 0.094842 -0.72395
0 0.950976 0.0940519 0.89904
0 0.950967 0.0938138 -0.356474
0 0.950966 0.0960784 -0.0873422
0 0.950981 0.0931521 -0.0891129
0 0.950986 0.0929778 0.208346
0 0.950978 0.0929447 0.413165
0 0.95099 0.111804 -0.724163
0 0.950974 0.0939071 0.518062
0 0.950965 0.0947108 -0.718305
0 0.950976 0.0951044 0.935128
0 0.95096 0.0943485 0.476426
0 0.950916 0.112828 4.91856
0 0.950976 0.0944264 -0.44345
0 0.950972 0.0930963 0.480947
0 0.950977 0.0929164 -0.50992
0 0.950984 0.0930436 0.0818976
0 0.950987 0.0927763 -0.261582
0 0.950979 0.0922978 0.217706
0 0.950961 0.112198 5.34395
0 0.950974 0.0949723 -1.10738
0 0.950993 0.0950214 0.63028
0 0.951032 0.0943997 -0.188902
0 0.951019 0.115029 4.08513
0 0.950977 0.0943542 -0.295683
0 0.950985 0.0941407 0.176192
0 0.950982 0.0937171 0.344212
0 0.950992 0.0936818 0.145784
0 0.950994 0.0935362 0.261406
0 0.951005 0.0929466 0.133482
0 0.951003 0.113523 3.00241
0 0.950987 0.0944678 0.354575
0 0.951022 0.0929984 0.0713267
0 0.951064 0.114068 0.431986
0 0.950963 0.093673 0.0455014
0 0.950986 0.0949839 -1.06287
0 0.950964 0.0987142 -0.452577
0 0.950976 0.0933893 -0.407214
0 0.950994 0.110603 3.71297
0 0.95096 0.0932692 0.301596
0 0.951004 0.111615 -0.451091
0 0.950919 0.0933209 -0.299874
0 0.950945 0.0939448 -0.203547
0 0.950946 0.112342 3.68416
0 0.950912 0.112233 5.07307
0 0.950915 0.110053 6.49585
VECTORS fa_u float
0.0073118 0.0029206 -0
0.00662679 0.00380691 -0
0.00284566 0.000775533 -0
0.00721116 0.00112445 -0
1e-08 0 0
0.00522459 0.00402632 -0
0.00252656 0.00244409 -0
1e-08 0 0
1e-08 0 0
0.00452065 0.00550829 -0
0.0053518 0.00897751 -0
0.00661926 0.000141298 -0
0.00622459 -0.000667887 0
1e-08 0 0
1e-08 0 0
1e-08 0 0
1e-08 0 0
1e-08 0 0
1e-08 0 0
1e-08 0 0
1e-08 0 0
0.00296091 0.00731089 -0
0.00159421 0.0062701 -0
1e-08 0 0
1e-08 0 0
1e-08 0 0
0.0089928 -0.00226801 0
1e-08 0 0
0.0111503 -0.00488972 0
1e-08 0 0
1e-08 0 0
1e-08 0 0
0.000853075 0.00732863 -0
1e-08 0 0
1e-08 0 0
1e-08 0 0
1e-08 0 0
1e-08 0 0
1e-08 0 0
1e-08 0 0
1e-08 0 0
1e-08 0 0
1e-08 0 0
-0.00017831 0.00769634 -0
1e-08 0 0
1e-08 0 0
1e-08 0 0
0.00562637 -0.00358756 0
1e-08 0 0
0.00267716 -0.00216259 0
1e-08 0 0
1e-08 0 0
1e-08 0 0
1e-08 0 0
1e-08 0 0
1e-08 0 0
1e-08 0 0
1e-08 0 0
1e-08 0 0
1e-08 0 0
1e-08 0 0
1e-08 0 0
1e-08 0 0
-0.000581878 0.0040014 0
1e-08 0 0
1e-08 0 0
1e-08 0 0
1e-08 0 0
1e-08 0 0
0.00315959 -0.00312568 0
1e-08 0 0
0.00277843 -0.003402 0
1e-08 0 0
1e-08 0 0
1e-08 0 0
1e-08 0 0
1e-08 0 0
1e-08 0 0
1e-08 0 0
1e-08 0 0
1e-08 0 0
1e-08 0 0
1e-08 0 0
1e-08 0 0
1e-08 0 0
-0.00137541 0.00530033 0
1e-08 0 0
1e-08 0 0
1e-08 0 0
1e-08 0 0
1e-08 0 0
1e-08 0 0
0.0057682 -0.00945488 0
1e-08 0 0
1e-08 0 0
1e-08 0 0
1e-08 0 0
1e-08 0 0
0.00369427 -0.0091495 0
1e-08 0 0
1e-08 0 0
1e-08 0 0
1e-08 0 0
1e-08 0 0
1e-08 0 0
1e-08 0 0
1e-08 0 0
1e-08 0 0
1e-08 0 0
-0.00290765 0.00720842 0
1e-08 0 0
1e-08 0 0
1e-08 0 0
1e-08 0 0
1e-08 0 0
1e-08 0 0
1e-08 0 0
1e-08 0 0
1e-08 0 0
1e-08 0 0
1e-08 0 0
1e-08 0 0
1e-08 0 0
1e-08 0 0
0.00134127 -0.00536816 0
1e-08 0 0
1e-08 0 0
1e-08 0 0
1e-08 0 0
1e-08 0 0
1e-08 0 0
1e-08 0 0
1e-08 0 0
1e-08 0 0
-0.00375038 0.00649804 0
1e-08 0 0
1e-08 0 0
1e-08 0 0
1e-08 0 0
1e-08 0 0
1e-08 0 0
1e-08 0 0
1e-08 0 0
1e-08 0 0
1e-08 0 0
1e-08 0 0
1e-08 0 0
1e-08 0 0
1e-08 0 0
1e-08 0 0
0.000518213 -0.00378497 0
1e-08 0 0
1e-08 0 0
1e-08 0 0
1e-08 0 0
1e-08 0 0
1e-08 0 0
1e-08 0 0
1e-08 0 0
1e-08 0 0
1e-08 0 0
-0.0046455 0.00595724 0
1e-08 0 0
1e-08 0 0
1e-08 0 0
1e-08 0 0
1e-08 0 0
1e-08 0 0
1e-08 0 0
1e-08 0 0
1e-08 0 0
1e-08 0 0
1e-08 0 0
1e-08 0 0
0.000120797 -0.0077636 0
1e-08 0 0
1e-08 0 0
1e-08 0 0
1e-08 0 0
1e-08 0 0
1e-08 0 0
1e-08 0 0
1e-08 0 0
1e-08 0 0
1e-08 0 0
1e-08 0 0
1e-08 0 0
-0.00220006 0.00223947 0
1e-08 0 0
1e-08 0 0
1e-08 0 0
1e-08 0 0
1e-08 0 0
1e-08 0 0
1e-08 0 0
1e-08 0 0
1e-08 0 0
1e-08 0 0
1e-08 0 0
1e-08 0 0
1e-08 0 0
-0.000861195 -0.00700197 0
1e-08 0 0
1e-08 0 0
1e-08 0 0
1e-08 0 0
1e-08 0 0
1e-08 0 0
1e-08 0 0
1e-08 0 0
-0.00483443 0.00396129 0
1e-08 0 0
1e-08 0 0
1e-08 0 0
1e-08 0 0
1e-08 0 0
1e-08 0 0
1e-08 0 0
1e-08 0 0
1e-08 0 0
1e-08 0 0
1e-08 0 0
-0.0015978 -0.00615985 0
1e-08 0 0
1e-08 0 0
1e-08 0 0
1e-08 0 0
1e-08 0 0
1e-08 0 0
1e-08 0 0
-0.0087743 0.0052824 0
1e-08 0 0
1e-08 0 0
1e-08 0 0
1e-08 0 0
1e-08 0 0
1e-08 0 0
1e-08 0 0
1e-08 0 0
1e-08 0 0
1e-08 0 0
1e-08 0 0
-0.00304688 -0.00742186 0
1e-08 0 0
1e-08 0 0
1e-08 0 0
1e-08 0 0
1e-08 0 0
-0.00760712 0.00311246 0
1e-08 0 0
1e-08 0 0
1e-08 0 0
1e-08 0 0
1e-08 0 0
1e-08 0 0
1e-08 0 0
1e-08 0 0
-0.00507576 -0.0084567 0
1e-08 0 0
1e-08 0 0
1e-08 0 0
1e-08 0 0
-0.00619406 0.00159179 0
1e-08 0 0
1e-08 0 0
1e-08 0 0
1e-08 0 0
1e-08 0 0
1e-08 0 0
-0.00360988 -0.00445563 0
1e-08 0 0
1e-08 0 0
1e-08 0 0
-0.00722201 0.000864098 0
1e-08 0 0
1e-08 0 0
1e-08 0 0
1e-08 0 0
1e-08 0 0
1e-08 0 0
-0.00261287 -0.00259029 0
1e-08 0 0
1e-08 0 0
-0.00844222 -0.000190777 0
1e-08 0 0
1e-08 0 0
1e-08 0 0
1e-08 0 0
-0.00589627 -0.0046096 0
1e-08 0 0
-0.00355052 -0.000516666 0
1e-08 0 0
1e-08 0 0
-0.00682038 -0.0039349 0
-0.00543614 -0.00139848 0
-0.00716049 -0.00287531 0
