# vtk DataFile Version 2.0
CellBP Time: 6.48
ASCII
DATASET UNSTRUCTURED_GRID
POINTS 296 double
-8.97377 -3.67697 0
-8.41337 -4.83132 0
-9.36819 -2.45318 0
-9.64202 -1.21797 0
-8.12878 -2.72497 0
-7.69618 -5.89984 0
-6.84617 -6.86577 0
-7.68961 -3.75061 0
-7.1272 -4.72619 0
-5.91417 -7.73266 0
-4.87818 -8.46412 0
-9.74693 0.0390655 0
-9.68772 1.31888 0
-8.44525 -1.6294 0
-8.60086 -0.508186 0
-7.37319 -1.92634 0
-7.00253 -2.79721 0
-6.46494 -5.64414 0
-5.69378 -6.46197 0
-6.57416 -3.75921 0
-6.03585 -4.54457 0
-3.72557 -9.03033 0
-2.49553 -9.43204 0
-4.81264 -7.1807 0
-3.85812 -7.76152 0
-8.6156 0.629651 0
-9.46336 2.59711 0
-8.46688 1.73414 0
-9.0522 3.81622 0
-7.5482 -0.889086 0
-7.61116 0.0884712 0
-6.76298 -1.26052 0
-1.22223 -9.67181 0
-6.26681 -2.0777 0
-6.13738 -2.95708 0
-5.38992 -5.34809 0
-4.68343 -5.99241 0
-5.49691 -3.65047 0
-5.11556 -4.44588 0
-2.82602 -8.2256 0
-1.75122 -8.48678 0
-3.85205 -6.60543 0
-3.017 -7.03732 0
0.0546262 -9.73459 0
-7.53478 1.11864 0
-8.20665 2.86708 0
-7.39508 2.05637 0
-8.44324 4.94352 0
-7.72837 3.89295 0
-7.68862 5.98585 0
-6.60855 -0.372477 0
-6.78744 0.54929 0
-5.64098 -0.974234 0
-0.582142 -8.63715 0
0.545211 -8.57477 0
-5.1752 -2.4119 0
-4.36681 -4.97801 0
-3.80982 -5.65987 0
-4.33194 -3.71909 0
-2.02994 -7.432 0
-1.1179 -7.64263 0
-2.938 -5.98841 0
-2.27622 -6.50672 0
1.31666 -9.62167 0
-6.54082 1.38586 0
-7.01251 3.03677 0
-6.51491 2.31372 0
-7.13363 4.86835 0
-6.57008 3.90098 0
-6.8443 6.9379 0
-6.42005 5.75171 0
-5.89538 7.79556 0
-4.38284 -1.16808 0
-5.69659 0.493691 0
-4.58441 -0.0259752 0
-0.00348713 -7.67705 0
1.68726 -8.42503 0
0.909444 -7.57418 0
-3.97044 -2.36077 0
-3.45992 -1.38061 0
-3.22664 -4.71276 0
-3.22355 -3.21474 0
-1.36782 -6.54669 0
-0.519315 -6.87657 0
-1.95022 -5.44471 0
2.57039 -9.37413 0
-5.39732 1.99724 0
-5.96071 2.99413 0
-5.97072 4.74475 0
-5.63078 3.8831 0
-5.61969 6.54979 0
-5.32597 5.47361 0
-4.85899 8.54432 0
-4.71906 7.21547 0
-3.46501 -0.419395 0
-4.37416 1.22963 0
-3.65929 0.585701 0
-3.99097 2.29548 0
-3.71644 9.11402 0
2.77031 -8.09457 0
0.378689 -6.62915 0
1.94312 -7.31676 0
1.24125 -6.72037 0
-2.42724 -0.864171 0
-2.81427 -2.11048 0
-2.26808 -4.03329 0
-2.30066 -2.93213 0
-0.44979 -5.73872 0
-1.20414 -4.42973 0
3.78553 -8.97774 0
-4.68769 3.31589 0
-4.9718 4.47309 0
-4.5366 6.11139 0
-4.4338 5.21933 0
-3.76265 7.8155 0
-3.72662 6.65546 0
-2.71832 8.22288 0
-1.63753 -0.125821 0
-1.43759 -0.877747 0
-2.47313 0.516318 0
-3.20966 1.43568 0
-3.1833 3.26765 0
-2.8704 2.36002 0
-1.35015 0.637199 0
-2.49275 9.50363 0
3.8114 -7.66153 0
2.85223 -6.93008 0
0.906014 -5.67972 0
1.99047 -6.22701 0
-1.66504 -1.97759 0
-1.41651 -3.2376 0
0.0807661 -4.65953 0
-0.556216 -3.645 0
4.79351 -7.10561 0
4.93273 -8.417 0
-3.69533 4.45014 0
-3.64716 5.60645 0
-2.80806 7.09745 0
-2.93723 6.1923 0
-1.62643 8.54432 0
-1.8873 7.43901 0
-2.30361 3.98488 0
-0.721606 -1.31879 0
-0.831351 -0.246281 0
-1.93086 1.69146 0
-2.10483 2.85791 0
-1.2972 3.51098 0
-0.871709 1.36012 0
-0.285366 0.463146 0
-0.525096 8.69298 0
-1.22914 9.74264 0
1.07424 -4.47324 0
3.77228 -6.48575 0
2.88329 -5.90325 0
2.04484 -5.27315 0
4.64631 -6.00397 0
-0.548637 -2.45781 0
0.490884 -3.41785 0
0.058653 -1.6029 0
1.44792 -3.60603 0
5.72012 -6.43001 0
5.99849 -7.70028 0
-2.42304 5.23137 0
-2.07111 6.3756 0
-0.876051 7.64021 0
-1.22673 6.77168 0
0.0935545 7.7321 0
-1.12939 4.42667 0
0.148549 -0.611462 0
-0.807139 2.49393 0
-0.343002 3.57711 0
0.0540663 1.51514 0
0.734517 0.475047 0
0.631989 8.71717 0
0.0433697 9.84916 0
2.31379 -4.17493 0
3.74206 -5.4568 0
2.91114 -5.0576 0
5.44261 -5.33289 0
4.56589 -5.10848 0
0.631656 -2.28409 0
1.24017 -2.91104 0
0.758098 -1.38858 0
2.12207 -3.07554 0
2.93093 -3.39594 0
6.03111 -4.67121 0
6.51357 -5.63059 0
6.95749 -6.84191 0
-0.993279 5.70488 0
-0.347939 6.74085 0
1.10701 7.63951 0
0.563185 6.9471 0
-0.00272502 4.66542 0
0.595627 3.79144 0
1.33258 -0.642121 0
0.523815 2.64084 0
0.951492 1.57659 0
1.89477 0.208613 0
1.6012 1.06098 0
2.10057 7.46272 0
1.77272 8.56747 0
1.32836 9.77694 0
3.73159 -4.22609 0
5.00014 -4.3096 0
5.73406 -3.8313 0
3.7113 -3.12058 0
1.7989 -1.87647 0
2.97334 -2.53078 0
6.66302 -3.86046 0
7.24563 -4.79787 0
7.82278 -5.90337 0
0.481689 5.78136 0
1.41314 6.62925 0
2.34385 6.56651 0
1.19129 4.49833 0
1.46779 3.36035 0
2.41213 -0.689917 0
2.79906 0.140306 0
1.76878 2.15103 0
2.59309 1.14153 0
3.0316 7.06022 0
2.86603 8.24202 0
2.59843 9.53158 0
4.81746 -3.23743 0
6.01453 -3.03603 0
4.10889 -2.23669 0
3.20446 -1.49047 0
6.62802 -2.27628 0
7.12118 -2.99127 0
7.84116 -3.85164 0
8.55812 -4.8688 0
2.00054 5.51743 0
3.02145 6.04843 0
2.33743 4.07142 0
2.39535 3.02469 0
3.48339 -0.45408 0
3.57622 0.613198 0
2.92921 2.2628 0
3.49567 1.50843 0
3.9162 5.78653 0
3.91009 6.67741 0
3.91938 7.8153 0
3.8254 9.12592 0
5.48588 -1.8844 0
4.44865 -1.11104 0
6.60501 -1.31314 0
7.47394 -2.00416 0
8.26116 -2.81714 0
9.12879 -3.72087 0
3.33841 4.78701 0
3.27869 3.32854 0
4.62407 0.134118 0
4.43596 1.28374 0
3.97956 2.39314 0
4.44281 5.03977 0
4.72929 6.07152 0
4.8902 7.24298 0
4.97319 8.5552 0
5.77908 -0.436241 0
6.88127 -0.48588 0
7.63162 -1.06084 0
8.53909 -1.7138 0
9.53291 -2.49197 0
4.4334 3.74228 0
5.68787 1.05833 0
5.22925 2.46538 0
5.21816 4.50368 0
5.46263 5.40051 0
5.76984 6.53344 0
6.00814 7.82295 0
6.69457 0.435672 0
7.70296 -0.027147 0
8.7006 -0.564771 0
9.77559 -1.21955 0
6.79112 1.29492 0
5.54944 3.6748 0
6.36466 2.11807 0
6.19 2.98996 0
6.1041 4.56185 0
6.51981 5.7 0
6.95209 6.96469 0
7.6144 0.934545 0
8.67525 0.56296 0
9.8432 0.061797 0
7.42252 1.93882 0
6.60696 3.77697 0
7.05787 2.84695 0
7.18261 4.75923 0
7.81063 6.00681 0
8.51679 1.68455 0
9.72695 1.32333 0
8.19282 2.75586 0
7.77255 3.81294 0
8.52786 4.94277 0
9.48193 2.57873 0
9.08707 3.79451 0
CELLS 542 2168
3 2 0 4
3 0 1 7
3 4 0 7
3 1 5 8
3 7 1 8
3 3 2 13
3 13 2 4
3 11 3 14
3 14 3 13
3 13 4 15
3 4 7 16
3 15 4 16
3 5 6 17
3 8 5 17
3 6 9 18
3 17 6 18
3 7 8 19
3 16 7 19
3 8 17 20
3 19 8 20
3 9 10 23
3 18 9 23
3 10 21 24
3 23 10 24
3 12 11 25
3 25 11 14
3 26 12 27
3 27 12 25
3 14 13 29
3 29 13 15
3 25 14 30
3 30 14 29
3 29 15 31
3 15 16 33
3 31 15 33
3 16 19 34
3 33 16 34
3 17 18 35
3 20 17 35
3 18 23 36
3 35 18 36
3 19 20 37
3 34 19 37
3 20 35 38
3 37 20 38
3 21 22 39
3 24 21 39
3 22 32 40
3 39 22 40
3 23 24 41
3 36 23 41
3 24 39 42
3 41 24 42
3 27 25 44
3 44 25 30
3 28 26 45
3 45 26 27
3 45 27 46
3 46 27 44
3 47 28 48
3 48 28 45
3 30 29 50
3 50 29 31
3 44 30 51
3 51 30 50
3 50 31 52
3 31 33 52
3 32 43 53
3 40 32 53
3 53 43 54
3 33 34 55
3 34 37 55
3 33 55 52
3 35 36 56
3 38 35 56
3 36 41 57
3 56 36 57
3 37 38 58
3 38 56 58
3 37 58 55
3 39 40 59
3 42 39 59
3 40 53 60
3 59 40 60
3 41 42 61
3 57 41 61
3 42 59 62
3 61 42 62
3 43 63 54
3 46 44 64
3 64 44 51
3 48 45 65
3 65 45 46
3 65 46 66
3 66 46 64
3 49 47 67
3 67 47 48
3 67 48 68
3 68 48 65
3 69 49 70
3 70 49 67
3 52 55 72
3 64 51 73
3 51 50 73
3 50 52 73
3 73 52 74
3 74 52 72
3 53 54 75
3 60 53 75
3 54 63 76
3 54 76 77
3 75 54 77
3 55 58 78
3 72 55 78
3 72 78 79
3 56 57 80
3 57 61 80
3 56 80 58
3 58 80 81
3 78 58 81
3 59 60 82
3 62 59 82
3 60 75 83
3 82 60 83
3 61 62 84
3 62 82 84
3 61 84 80
3 63 85 76
3 66 64 86
3 64 73 86
3 68 65 87
3 87 65 66
3 87 66 86
3 70 67 88
3 88 67 68
3 88 68 89
3 89 68 87
3 71 69 90
3 90 69 70
3 90 70 91
3 91 70 88
3 92 71 93
3 93 71 90
3 74 72 94
3 94 72 79
3 86 73 95
3 95 73 74
3 95 74 96
3 96 74 94
3 97 86 95
3 76 85 99
3 75 77 100
3 83 75 100
3 76 99 101
3 77 76 101
3 77 101 102
3 100 77 102
3 94 79 103
3 78 81 104
3 79 78 104
3 79 104 103
3 80 84 105
3 81 80 105
3 81 105 106
3 104 81 106
3 82 83 107
3 83 100 107
3 82 107 84
3 84 107 108
3 105 84 108
3 85 109 99
3 89 87 110
3 87 86 110
3 110 86 97
3 91 88 111
3 111 88 89
3 111 89 110
3 93 90 112
3 112 90 91
3 112 91 113
3 113 91 111
3 98 92 114
3 114 92 93
3 114 93 115
3 115 93 112
3 116 98 114
3 117 103 118
3 96 94 119
3 94 103 119
3 119 103 117
3 97 95 120
3 120 95 96
3 120 96 119
3 121 110 97
3 121 97 122
3 122 97 120
3 123 119 117
3 124 98 116
3 99 109 125
3 99 125 126
3 101 99 126
3 100 102 127
3 100 127 107
3 101 126 128
3 102 101 128
3 102 128 127
3 104 106 129
3 104 129 103
3 103 129 118
3 105 108 130
3 106 105 130
3 106 130 129
3 107 127 131
3 108 107 131
3 108 131 132
3 108 132 130
3 109 134 125
3 125 134 133
3 113 111 135
3 111 110 135
3 135 110 121
3 115 112 136
3 136 112 113
3 136 113 135
3 116 114 137
3 137 114 115
3 137 115 138
3 138 115 136
3 139 124 116
3 139 116 140
3 140 116 137
3 141 135 121
3 118 129 142
3 118 142 143
3 117 118 143
3 123 117 143
3 122 120 144
3 120 119 144
3 144 119 123
3 141 121 145
3 145 121 122
3 145 122 144
3 146 141 145
3 147 144 123
3 147 123 148
3 143 148 123
3 150 124 139
3 149 150 139
3 131 127 151
3 125 133 152
3 126 125 152
3 126 152 153
3 128 126 153
3 128 153 154
3 128 154 127
3 127 154 151
3 152 133 155
3 130 132 156
3 130 156 129
3 129 156 142
3 131 151 157
3 132 131 157
3 132 157 156
3 156 158 142
3 157 151 159
3 133 160 155
3 134 161 133
3 133 161 160
3 138 136 162
3 136 135 162
3 162 135 141
3 140 137 163
3 163 137 138
3 163 138 162
3 149 139 164
3 164 139 140
3 164 140 165
3 165 140 163
3 166 149 164
3 167 162 141
3 167 141 146
3 142 158 168
3 143 142 168
3 143 168 148
3 146 145 169
3 145 144 169
3 169 144 147
3 170 167 146
3 170 146 169
3 171 169 147
3 171 147 148
3 171 148 172
3 168 172 148
3 173 149 166
3 174 150 149
3 173 174 149
3 154 175 151
3 151 175 159
3 152 155 176
3 153 152 176
3 153 176 177
3 153 177 154
3 154 177 175
3 155 160 178
3 155 178 179
3 176 155 179
3 156 157 180
3 156 180 158
3 157 159 181
3 157 181 180
3 158 180 182
3 158 182 168
3 159 175 183
3 159 183 181
3 175 184 183
3 160 186 178
3 178 186 185
3 161 187 160
3 160 187 186
3 165 163 188
3 163 162 188
3 188 162 167
3 166 164 189
3 189 164 165
3 189 165 188
3 190 173 166
3 190 166 191
3 191 166 189
3 192 188 167
3 192 167 170
3 193 192 170
3 182 194 168
3 194 172 168
3 193 170 195
3 170 169 195
3 195 169 171
3 196 195 171
3 196 171 172
3 194 197 172
3 197 198 172
3 198 196 172
3 200 173 190
3 199 200 190
3 201 174 173
3 200 201 173
3 176 179 202
3 177 176 202
3 177 202 175
3 175 202 184
3 178 185 203
3 178 203 179
3 179 203 202
3 203 185 204
3 202 205 184
3 183 206 181
3 180 181 206
3 180 206 182
3 182 206 194
3 183 184 207
3 205 207 184
3 183 207 206
3 185 208 204
3 186 209 185
3 185 209 208
3 187 210 186
3 186 210 209
3 191 189 211
3 189 188 211
3 211 188 192
3 199 190 212
3 212 190 191
3 212 191 211
3 213 199 212
3 214 211 192
3 214 192 193
3 215 214 193
3 215 193 195
3 206 216 194
3 216 197 194
3 216 217 197
3 215 195 218
3 218 195 196
3 198 218 196
3 217 219 197
3 219 218 198
3 197 219 198
3 220 199 213
3 221 200 199
3 220 221 199
3 222 201 200
3 221 222 200
3 203 204 223
3 203 223 202
3 202 223 205
3 204 208 224
3 204 224 223
3 205 223 225
3 205 225 207
3 207 225 226
3 207 226 206
3 226 216 206
3 208 228 224
3 224 228 227
3 209 229 208
3 229 228 208
3 210 230 209
3 209 230 229
3 213 212 231
3 212 211 231
3 231 211 214
3 232 220 213
3 232 213 231
3 233 231 214
3 233 214 215
3 234 233 215
3 234 215 218
3 226 235 216
3 235 217 216
3 235 236 217
3 217 236 219
3 237 234 218
3 237 218 219
3 236 238 219
3 238 237 219
3 240 220 232
3 239 240 232
3 241 221 220
3 240 241 220
3 242 222 221
3 241 242 221
3 224 227 243
3 224 243 223
3 223 243 225
3 225 243 244
3 225 244 226
3 226 244 235
3 227 245 243
3 228 246 227
3 227 246 245
3 229 247 228
3 228 247 246
3 230 248 229
3 229 248 247
3 239 232 249
3 232 231 249
3 249 231 233
3 250 249 233
3 250 233 234
3 237 250 234
3 244 251 235
3 235 251 236
3 251 252 236
3 236 252 238
3 252 253 238
3 253 250 237
3 253 237 238
3 254 239 249
3 255 240 239
3 254 255 239
3 256 241 240
3 255 256 240
3 257 242 241
3 256 257 241
3 245 258 243
3 243 258 244
3 244 258 251
3 245 259 258
3 246 260 245
3 245 260 259
3 247 261 246
3 246 261 260
3 248 262 247
3 247 262 261
3 254 249 263
3 263 249 250
3 253 263 250
3 258 264 251
3 251 264 252
3 264 265 252
3 265 263 253
3 252 265 253
3 266 254 263
3 267 255 254
3 266 267 254
3 268 256 255
3 267 268 255
3 269 257 256
3 268 269 256
3 259 270 258
3 270 264 258
3 260 271 259
3 259 271 270
3 261 272 260
3 260 272 271
3 262 273 261
3 273 272 261
3 270 274 264
3 275 266 263
3 275 263 265
3 274 276 264
3 276 265 264
3 276 277 265
3 277 275 265
3 278 267 266
3 275 278 266
3 279 268 267
3 278 279 267
3 280 269 268
3 279 280 268
3 271 281 270
3 270 281 274
3 272 282 271
3 271 282 281
3 273 283 272
3 272 283 282
3 281 284 274
3 274 284 276
3 285 278 275
3 277 285 275
3 284 286 276
3 286 285 277
3 276 286 277
3 287 279 278
3 285 287 278
3 288 280 279
3 287 288 279
3 282 289 281
3 281 289 284
3 283 290 282
3 282 290 289
3 289 291 284
3 284 291 286
3 291 292 286
3 292 287 285
3 286 292 285
3 293 288 287
3 292 293 287
3 290 294 289
3 289 294 291
3 294 295 291
3 295 293 292
3 291 295 292
CELL_TYPES 542
5
5
5
5
5
5
5
5
5
5
5
5
5
5
5
5
5
5
5
5
5
5
5
5
5
5
5
5
5
5
5
5
5
5
5
5
5
5
5
5
5
5
5
5
5
5
5
5
5
5
5
5
5
5
5
5
5
5
5
5
5
5
5
5
5
5
5
5
5
5
5
5
5
5
5
5
5
5
5
5
5
5
5
5
5
5
5
5
5
5
5
5
5
5
5
5
5
5
5
5
5
5
5
5
5
5
5
5
5
5
5
5
5
5
5
5
5
5
5
5
5
5
5
5
5
5
5
5
5
5
5
5
5
5
5
5
5
5
5
5
5
5
5
5
5
5
5
5
5
5
5
5
5
5
5
5
5
5
5
5
5
5
5
5
5
5
5
5
5
5
5
5
5
5
5
5
5
5
5
5
5
5
5
5
5
5
5
5
5
5
5
5
5
5
5
5
5
5
5
5
5
5
5
5
5
5
5
5
5
5
5
5
5
5
5
5
5
5
5
5
5
5
5
5
5
5
5
5
5
5
5
5
5
5
5
5
5
5
5
5
5
5
5
5
5
5
5
5
5
5
5
5
5
5
5
5
5
5
5
5
5
5
5
5
5
5
5
5
5
5
5
5
5
5
5
5
5
5
5
5
5
5
5
5
5
5
5
5
5
5
5
5
5
5
5
5
5
5
5
5
5
5
5
5
5
5
5
5
5
5
5
5
5
5
5
5
5
5
5
5
5
5
5
5
5
5
5
5
5
5
5
5
5
5
5
5
5
5
5
5
5
5
5
5
5
5
5
5
5
5
5
5
5
5
5
5
5
5
5
5
5
5
5
5
5
5
5
5
5
5
5
5
5
5
5
5
5
5
5
5
5
5
5
5
5
5
5
5
5
5
5
5
5
5
5
5
5
5
5
5
5
5
5
5
5
5
5
5
5
5
5
5
5
5
5
5
5
5
5
5
5
5
5
5
5
5
5
5
5
5
5
5
5
5
5
5
5
5
5
5
5
5
5
5
5
5
5
5
5
5
5
5
5
5
5
5
5
5
5
5
5
5
5
5
5
5
5
5
5
5
5
5
5
5
5
5
5
5
5
5
5
5
5
5
5
5
5
5
5
5
5
5
5
5
5
5
5
5
5
5
5
5
5
5
5
5
5
5
5
5
5
5
5
5
5
5
5
5
5
5
5
5
5
5
5
5
5
5
5
5
5
5
5
5
5
5
5
5
5
5
5
5
POINT_DATA 296
SCALARS concentrations float 4
LOOKUP_TABLE default
0 0.958742 0.136135 13.0242
0 0.958754 0.135366 7.81766
0 0.958836 0.136104 3.26363
0 0.958824 0.13836 10.0693
0 0.958804 0.0950369 1.46075
0 0.958788 0.135386 5.32875
0 0.958807 0.139741 10.0634
0 0.958769 0.095561 1.28799
0 0.958802 0.0953979 1.55849
0 0.958854 0.135503 4.82116
0 0.958878 0.138263 4.3562
0 0.95884 0.137601 9.64732
0 0.958864 0.134394 9.01773
0 0.958831 0.0949576 0.396522
0 0.958808 0.0951179 0.925775
0 0.958823 0.0945251 -1.12251
0 0.958817 0.0954092 -0.995138
0 0.958813 0.0943889 1.18697
0 0.958832 0.0933555 -0.736425
0 0.958826 0.0951194 -0.0996324
0 0.958836 0.0942957 0.0426646
0 0.958856 0.13582 8.8992
0 0.958812 0.134842 10.8021
0 0.958854 0.0937534 -0.902384
0 0.958846 0.0941342 0.331295
0 0.958841 0.0961614 1.63059
0 0.958832 0.134987 3.56715
0 0.958835 0.0938508 0.720107
0 0.958897 0.134285 4.25828
0 0.958818 0.0945005 -0.813056
0 0.958813 0.0957146 -0.0383133
0 0.958832 0.0946314 -0.925456
0 0.958783 0.136265 4.67082
0 0.958816 0.0954299 -0.802844
0 0.958823 0.0959294 2.01459
0 0.958839 0.0941566 0.696039
0 0.95884 0.0938308 1.07219
0 0.958836 0.0952565 1.65942
0 0.958842 0.0954565 1.32863
0 0.958821 0.0936471 -0.399733
0 0.958791 0.09433 -1.06658
0 0.95883 0.0940572 0.946184
0 0.958814 0.0946074 0.834973
0 0.958834 0.137851 7.03393
0 0.958816 0.0948302 -1.08392
0 0.958859 0.094813 -1.03061
0 0.958838 0.0954636 0.00142587
0 0.95896 0.13649 3.07515
0 0.958922 0.0970755 0.317893
0 0.958935 0.135002 -1.24288
0 0.958831 0.0950931 0.920516
0 0.958822 0.0953435 -0.819659
0 0.95882 0.0944845 -0.338095
0 0.95881 0.0931732 -0.61543
0 0.958846 0.0934207 -0.766939
0 0.958826 0.0959849 1.50539
0 0.958846 0.0950151 1.16083
0 0.958844 0.0945285 -1.24889
0 0.958844 0.0960684 -1.31083
0 0.958803 0.0949155 -0.49874
0 0.95881 0.0943929 -0.360705
0 0.958832 0.0950585 -0.334017
0 0.958822 0.0946221 -0.865163
0 0.958856 0.136433 3.5425
0 0.958833 0.0949136 -0.191529
0 0.95887 0.101421 -1.78832
0 0.958843 0.0947875 0.619599
0 0.958922 0.0947426 0.269253
0 0.958871 0.095826 -0.0940048
0 0.958902 0.135422 1.44764
0 0.958893 0.0925062 0.243013
0 0.958902 0.136797 7.19741
0 0.958834 0.0950452 0.951646
0 0.958833 0.0962428 -0.809024
0 0.95883 0.0971989 -1.32564
0 0.958827 0.0935173 0.86828
0 0.958851 0.0942353 -0.370409
0 0.958843 0.0940755 0.951393
0 0.958835 0.0957778 0.351113
0 0.958832 0.0996353 -0.528994
0 0.958831 0.096829 1.63651
0 0.958823 0.0988851 -0.606979
0 0.958827 0.0945449 1.22209
0 0.958828 0.0950284 1.08333
0 0.958831 0.0976149 2.49184
0 0.958842 0.136395 5.08467
0 0.958849 0.0961011 0.374298
0 0.958843 0.0963301 -0.0141596
0 0.958857 0.0934324 0.868512
0 0.95883 0.0942466 1.12206
0 0.958878 0.0938338 -0.825268
0 0.95885 0.0930024 0.610646
0 0.958844 0.134731 4.03288
0 0.95886 0.0944041 -0.889248
0 0.958855 0.0970157 -0.329145
0 0.958841 0.0941867 0.539873
0 0.958848 0.0946643 0.140423
0 0.95885 0.0944189 0.221535
0 0.958795 0.134427 14.1327
0 0.958853 0.0951847 -0.31214
0 0.958833 0.0932673 -0.227225
0 0.958858 0.0955802 2.1316
0 0.958842 0.0944953 0.315997
0 0.95885 0.0946351 1.19346
0 0.958816 0.0959301 0.918779
0 0.958816 0.0954716 -0.523986
0 0.958811 0.096148 -1.01602
0 0.958835 0.0944484 1.18347
0 0.958835 0.093678 1.06235
0 0.958843 0.131893 1.08653
0 0.958839 0.0946266 -0.046265
0 0.958825 0.0944614 -0.52527
0 0.958839 0.093977 0.31715
0 0.958829 0.0944687 -1.08106
0 0.958817 0.0955079 0.765946
0 0.958836 0.0966172 -1.2324
0 0.958821 0.0940828 0.584987
0 0.95887 0.094232 -0.473828
0 0.958859 0.0943045 1.17673
0 0.958858 0.0955169 0.356645
0 0.958849 0.0948701 0.293618
0 0.958845 0.095465 -1.28887
0 0.958852 0.0941465 -0.764408
0 0.958866 0.0943091 -0.915263
0 0.958823 0.133248 3.29972
0 0.958856 0.0948474 -0.334132
0 0.958861 0.0956643 -0.756995
0 0.958835 0.0954037 -0.372244
0 0.958847 0.0959139 -0.792256
0 0.958847 0.0960835 -0.64512
0 0.958838 0.0945751 0.527898
0 0.958836 0.0943153 0.957217
0 0.958841 0.0933955 1.38465
0 0.958867 0.0953069 -0.0512023
0 0.958855 0.132732 6.31259
0 0.958829 0.0944438 0.556435
0 0.958826 0.0934786 0.408775
0 0.958842 0.0968143 -1.02784
0 0.958841 0.0951014 -1.01746
0 0.95882 0.0933249 -0.330458
0 0.958843 0.0930889 -0.120413
0 0.958838 0.0939828 -0.241575
0 0.958865 0.0977862 -0.499327
0 0.95886 0.0938471 1.04061
0 0.958859 0.095843 0.121417
0 0.958848 0.0942988 -1.02737
0 0.958842 0.0948515 0.717223
0 0.958866 0.0949924 -0.859933
0 0.958864 0.0968933 -0.18299
0 0.958805 0.0928696 0.146917
0 0.958778 0.136783 10.3131
0 0.958829 0.0943792 1.16312
0 0.958857 0.0958932 -1.12258
0 0.95884 0.09476 -0.696551
0 0.958836 0.0952766 -0.991108
0 0.95886 0.0961473 2.10101
0 0.958856 0.0945843 1.67119
0 0.958837 0.0943109 1.49847
0 0.958865 0.0947168 0.422402
0 0.958824 0.0948492 -0.461256
0 0.958876 0.0953678 1.71925
0 0.958875 0.134773 5.19366
0 0.958833 0.0939589 -0.535044
0 0.958846 0.0950155 0.443534
0 0.958833 0.093036 0.0480935
0 0.958842 0.0958645 -0.708844
0 0.958836 0.0955206 0.482566
0 0.95884 0.0946063 -0.363464
0 0.95886 0.0945656 -1.33349
0 0.958853 0.097033 -1.33269
0 0.958843 0.0931794 -0.987018
0 0.958859 0.0938072 -0.648062
0 0.958861 0.0944006 -0.834813
0 0.958872 0.0931258 -0.268673
0 0.958833 0.137154 6.20257
0 0.958825 0.0956164 0.796658
0 0.958831 0.0954064 2.0035
0 0.958822 0.0963824 -1.50538
0 0.958857 0.0946069 1.52877
0 0.958831 0.0945544 0.731139
0 0.958841 0.0959481 2.04634
0 0.958833 0.0946076 -0.431426
0 0.958848 0.0951587 -1.19797
0 0.958831 0.0931631 -0.59341
0 0.958827 0.095791 -1.26598
0 0.958859 0.0941527 1.21574
0 0.958874 0.0933748 0.474439
0 0.958876 0.131906 0.794946
0 0.95884 0.0932838 -0.111627
0 0.958837 0.0942531 0.193304
0 0.958851 0.0935063 -0.323655
0 0.958833 0.0934987 0.279725
0 0.958839 0.0946609 -0.549756
0 0.958844 0.0943114 0.168524
0 0.958855 0.0944924 1.13927
0 0.958855 0.0944942 0.485518
0 0.958862 0.0939912 -0.172605
0 0.958862 0.0956589 -0.885191
0 0.958867 0.0954226 0.321372
0 0.958852 0.0950499 -0.29241
0 0.958877 0.0931256 -0.0851175
0 0.958911 0.136392 4.21031
0 0.958824 0.0954365 0.287682
0 0.958835 0.0951757 1.67527
0 0.958851 0.0941844 0.395216
0 0.958815 0.0943267 -0.649522
0 0.95884 0.09348 0.952734
0 0.958824 0.0947903 -0.225665
0 0.958861 0.0939288 -1.03179
0 0.958863 0.0933395 -1.08668
0 0.958865 0.13474 4.51783
0 0.958837 0.0979222 1.09482
0 0.95884 0.100016 0.48199
0 0.958845 0.0956172 -0.321179
0 0.958845 0.102234 2.78814
0 0.958858 0.093419 0.349179
0 0.958853 0.0945121 0.215016
0 0.958867 0.0936735 0.0783291
0 0.958865 0.0939487 -0.196672
0 0.958865 0.0937634 0.0426079
0 0.958843 0.0942582 -0.257738
0 0.95885 0.0929621 -0.0405192
0 0.958871 0.135394 4.42843
0 0.958838 0.0945185 -0.907215
0 0.958868 0.0980946 2.84604
0 0.958827 0.102214 2.67986
0 0.958843 0.094235 0.351718
0 0.958869 0.0995113 0.431475
0 0.958878 0.0961957 1.30224
0 0.95886 0.0940023 -0.195958
0 0.958852 0.134354 9.22366
0 0.958846 0.0949371 0.106937
0 0.958853 0.0969499 0.320311
0 0.958851 0.0961899 0.116721
0 0.958852 0.100593 -0.754762
0 0.958851 0.0942893 0.342409
0 0.958855 0.10181 2.23959
0 0.95885 0.0954493 0.576692
0 0.958851 0.0959671 -0.0911821
0 0.958861 0.0935857 0.118093
0 0.958849 0.0938489 -0.370386
0 0.958824 0.093273 0.217732
0 0.958843 0.136772 8.09224
0 0.958841 0.10032 -0.788283
0 0.958837 0.0958246 -1.19357
0 0.95884 0.102185 -2.11449
0 0.958864 0.0938386 -0.197469
0 0.958866 0.0943994 0.142572
0 0.958858 0.132157 0.492877
0 0.958856 0.0951145 -0.805948
0 0.958845 0.0950497 0.0516012
0 0.958838 0.0944213 0.504875
0 0.958839 0.0937027 0.0761043
0 0.958843 0.0966581 0.438181
0 0.958859 0.0934426 0.270394
0 0.958851 0.0937218 0.107304
0 0.958801 0.0929225 -0.144954
0 0.958774 0.135234 9.15189
0 0.958834 0.0959509 -0.647821
0 0.958839 0.0950191 -0.589791
0 0.958838 0.0963434 1.07106
0 0.95884 0.0930639 -0.434871
0 0.958855 0.134284 2.87349
0 0.958848 0.0946149 -0.638108
0 0.95884 0.0936333 -0.387179
0 0.958835 0.094774 -0.203281
0 0.958863 0.0945902 -0.563483
0 0.958855 0.0938688 0.153503
0 0.958827 0.0931352 -0.355774
0 0.958785 0.133831 7.39927
0 0.958844 0.0952016 0.692642
0 0.95883 0.0933315 -0.399207
0 0.958816 0.0930374 -0.166059
0 0.958819 0.13247 10.9914
0 0.958848 0.0936946 -0.408291
0 0.958847 0.100642 -0.178233
0 0.958841 0.093662 -0.437416
0 0.958833 0.0970559 -0.874614
0 0.95886 0.0944497 0.974919
0 0.958838 0.0936041 -0.0360113
0 0.958816 0.135486 7.0185
0 0.958838 0.0929398 -0.0761895
0 0.958814 0.0927733 0.183546
0 0.958806 0.137397 8.05659
0 0.958845 0.0938445 -0.408435
0 0.958846 0.0941746 -0.516305
0 0.958836 0.0962621 -1.47679
0 0.958855 0.094474 0.400823
0 0.958839 0.131958 5.11006
0 0.958825 0.0928037 -0.239283
0 0.958808 0.13747 7.16901
0 0.958821 0.0941193 0.621746
0 0.958834 0.0980617 -0.213357
0 0.958855 0.131608 11.6189
0 0.958817 0.134736 9.48447
0 0.958815 0.13213 4.89682
VECTORS fa_u float
0.00706957 0.00283843 -0
0.00650766 0.00374028 -0
0.00330922 0.000899302 -0
0.00709412 0.00107807 -0
1e-08 0 0
0.00522469 0.00402471 -0
0.00279187 0.00271447 -0
1e-08 0 0
1e-08 0 0
0.00446739 0.00550056 -0
0.00497216 0.00838584 -0
0.00657084 0.000118352 -0
0.00624591 -0.000692384 0
1e-08 0 0
1e-08 0 0
1e-08 0 0
1e-08 0 0
1e-08 0 0
1e-08 0 0
1e-08 0 0
1e-08 0 0
0.00288849 0.00711034 -0
0.00160278 0.00625476 -0
1e-08 0 0
1e-08 0 0
1e-08 0 0
0.00856858 -0.00218049 0
1e-08 0 0
0.0102605 -0.00446081 0
1e-08 0 0
1e-08 0 0
1e-08 0 0
0.00085567 0.00721229 -0
1e-08 0 0
1e-08 0 0
1e-08 0 0
1e-08 0 0
1e-08 0 0
1e-08 0 0
1e-08 0 0
1e-08 0 0
1e-08 0 0
1e-08 0 0
-0.000147911 0.00748975 -0
1e-08 0 0
1e-08 0 0
1e-08 0 0
0.00566761 -0.00356202 0
1e-08 0 0
0.00297332 -0.00238377 0
1e-08 0 0
1e-08 0 0
1e-08 0 0
1e-08 0 0
1e-08 0 0
1e-08 0 0
1e-08 0 0
1e-08 0 0
1e-08 0 0
1e-08 0 0
1e-08 0 0
1e-08 0 0
1e-08 0 0
-0.000621166 0.00433533 0
1e-08 0 0
1e-08 0 0
1e-08 0 0
1e-08 0 0
1e-08 0 0
0.0033828 -0.00335199 0
1e-08 0 0
0.00292991 -0.00362096 0
1e-08 0 0
1e-08 0 0
1e-08 0 0
1e-08 0 0
1e-08 0 0
1e-08 0 0
1e-08 0 0
1e-08 0 0
1e-08 0 0
1e-08 0 0
1e-08 0 0
1e-08 0 0
1e-08 0 0
-0.00142683 0.00547053 0
1e-08 0 0
1e-08 0 0
1e-08 0 0
1e-08 0 0
1e-08 0 0
1e-08 0 0
0.00535976 -0.00885781 0
1e-08 0 0
1e-08 0 0
1e-08 0 0
1e-08 0 0
1e-08 0 0
0.00347548 -0.00857262 0
1e-08 0 0
1e-08 0 0
1e-08 0 0
1e-08 0 0
1e-08 0 0
1e-08 0 0
1e-08 0 0
1e-08 0 0
1e-08 0 0
1e-08 0 0
-0.00284074 0.00701134 0
1e-08 0 0
1e-08 0 0
1e-08 0 0
1e-08 0 0
1e-08 0 0
1e-08 0 0
1e-08 0 0
1e-08 0 0
1e-08 0 0
1e-08 0 0
1e-08 0 0
1e-08 0 0
1e-08 0 0
1e-08 0 0
0.00139857 -0.00553377 0
1e-08 0 0
1e-08 0 0
1e-08 0 0
1e-08 0 0
1e-08 0 0
1e-08 0 0
1e-08 0 0
1e-08 0 0
1e-08 0 0
-0.0036701 0.00635774 0
1e-08 0 0
1e-08 0 0
1e-08 0 0
1e-08 0 0
1e-08 0 0
1e-08 0 0
1e-08 0 0
1e-08 0 0
1e-08 0 0
1e-08 0 0
1e-08 0 0
1e-08 0 0
1e-08 0 0
1e-08 0 0
1e-08 0 0
0.000562152 -0.00412608 0
1e-08 0 0
1e-08 0 0
1e-08 0 0
1e-08 0 0
1e-08 0 0
1e-08 0 0
1e-08 0 0
1e-08 0 0
1e-08 0 0
1e-08 0 0
-0.00453277 0.00582682 0
1e-08 0 0
1e-08 0 0
1e-08 0 0
1e-08 0 0
1e-08 0 0
1e-08 0 0
1e-08 0 0
1e-08 0 0
1e-08 0 0
1e-08 0 0
1e-08 0 0
1e-08 0 0
0.000101596 -0.00757586 0
1e-08 0 0
1e-08 0 0
1e-08 0 0
1e-08 0 0
1e-08 0 0
1e-08 0 0
1e-08 0 0
1e-08 0 0
1e-08 0 0
1e-08 0 0
1e-08 0 0
1e-08 0 0
-0.00251267 0.00255097 0
1e-08 0 0
1e-08 0 0
1e-08 0 0
1e-08 0 0
1e-08 0 0
1e-08 0 0
1e-08 0 0
1e-08 0 0
1e-08 0 0
1e-08 0 0
1e-08 0 0
1e-08 0 0
1e-08 0 0
-0.000863798 -0.00694961 0
1e-08 0 0
1e-08 0 0
1e-08 0 0
1e-08 0 0
1e-08 0 0
1e-08 0 0
1e-08 0 0
1e-08 0 0
-0.00489544 0.00397131 0
1e-08 0 0
1e-08 0 0
1e-08 0 0
1e-08 0 0
1e-08 0 0
1e-08 0 0
1e-08 0 0
1e-08 0 0
1e-08 0 0
1e-08 0 0
1e-08 0 0
-0.00160489 -0.00615567 0
1e-08 0 0
1e-08 0 0
1e-08 0 0
1e-08 0 0
1e-08 0 0
1e-08 0 0
1e-08 0 0
-0.00820365 0.00490908 0
1e-08 0 0
1e-08 0 0
1e-08 0 0
1e-08 0 0
1e-08 0 0
1e-08 0 0
1e-08 0 0
1e-08 0 0
1e-08 0 0
1e-08 0 0
1e-08 0 0
-0.00297109 -0.00722632 0
1e-08 0 0
1e-08 0 0
1e-08 0 0
1e-08 0 0
1e-08 0 0
-0.00737957 0.00302652 0
1e-08 0 0
1e-08 0 0
1e-08 0 0
1e-08 0 0
1e-08 0 0
1e-08 0 0
1e-08 0 0
1e-08 0 0
-0.00476465 -0.00798178 0
1e-08 0 0
1e-08 0 0
1e-08 0 0
1e-08 0 0
-0.00622533 0.00160977 0
1e-08 0 0
1e-08 0 0
1e-08 0 0
1e-08 0 0
1e-08 0 0
1e-08 0 0
-0.00366202 -0.00455623 0
1e-08 0 0
1e-08 0 0
1e-08 0 0
-0.00706669 0.000858622 0
1e-08 0 0
1e-08 0 0
1e-08 0 0
1e-08 0 0
1e-08 0 0
1e-08 0 0
-0.00288409 -0.00286242 0
1e-08 0 0
1e-08 0 0
-0.00816382 -0.000156176 0
1e-08 0 0
1e-08 0 0
1e-08 0 0
1e-08 0 0
-0.00579402 -0.00451554 0
1e-08 0 0
-0.00394647 -0.000566474 0
1e-08 0 0
1e-08 0 0
-0.0065948 -0.00380502 0
-0.00555023 -0.00143715 0
-0.00700035 -0.00282515 0
