# vtk DataFile Version 2.0
CellBP Time: 7.12
ASCII
DATASET UNSTRUCTURED_GRID
POINTS 296 double
-8.96223 -3.67148 0
-8.40262 -4.82494 0
-9.35519 -2.44857 0
-9.63012 -1.21582 0
-8.11765 -2.71915 0
-7.68592 -5.89238 0
-6.83671 -6.85753 0
-7.67824 -3.74422 0
-7.11683 -4.71785 0
-5.90736 -7.72449 0
-4.8742 -8.45627 0
-9.73603 0.0387721 0
-9.67796 1.31702 0
-8.43558 -1.62588 0
-8.59189 -0.506122 0
-7.36128 -1.92261 0
-6.99091 -2.79092 0
-6.45609 -5.63695 0
-5.68659 -6.45563 0
-6.56273 -3.75272 0
-6.02638 -4.53787 0
-3.72261 -9.02169 0
-2.49324 -9.42264 0
-4.80795 -7.17338 0
-3.85511 -7.75432 0
-8.60653 0.630258 0
-9.45536 2.59511 0
-8.45871 1.7323 0
-9.04467 3.81284 0
-7.53831 -0.887474 0
-7.60247 0.0891522 0
-6.75294 -1.25723 0
-1.2205 -9.66124 0
-6.25748 -2.07473 0
-6.12847 -2.9514 0
-5.38335 -5.34172 0
-4.67841 -5.98717 0
-5.48848 -3.64349 0
-5.10785 -4.43999 0
-2.82324 -8.21783 0
-1.74879 -8.47835 0
-3.84758 -6.59955 0
-3.01416 -7.03113 0
0.0547864 -9.72298 0
-7.52692 1.11711 0
-8.19976 2.8651 0
-7.38734 2.05342 0
-8.43423 4.93767 0
-7.71936 3.88868 0
-7.67832 5.97761 0
-6.60004 -0.37068 0
-6.77926 0.549752 0
-5.63404 -0.973344 0
-0.580887 -8.62754 0
0.544776 -8.56391 0
-5.1684 -2.40837 0
-4.36117 -4.97259 0
-3.8057 -5.65512 0
-4.32602 -3.71534 0
-2.02763 -7.4245 0
-1.11612 -7.63479 0
-2.9351 -5.98354 0
-2.27354 -6.50099 0
1.31451 -9.60856 0
-6.53359 1.38356 0
-7.00464 3.0333 0
-6.50778 2.31139 0
-7.12507 4.86351 0
-6.56237 3.8955 0
-6.83472 6.92798 0
-6.41145 5.74406 0
-5.88782 7.78563 0
-4.37999 -1.16697 0
-5.69045 0.493615 0
-4.58145 -0.0264669 0
-0.0050312 -7.66943 0
1.6842 -8.41311 0
0.906723 -7.56328 0
-3.96689 -2.35789 0
-3.45854 -1.38022 0
-3.22421 -4.70906 0
-3.22146 -3.21234 0
-1.36706 -6.54006 0
-0.519396 -6.86757 0
-1.94926 -5.44063 0
2.56675 -9.36137 0
-5.39227 1.99522 0
-5.95438 2.98941 0
-5.96409 4.73968 0
-5.62425 3.87862 0
-5.61294 6.54008 0
-5.31879 5.46558 0
-4.85408 8.53542 0
-4.71268 7.20554 0
-3.46328 -0.419649 0
-4.3703 1.22874 0
-3.6566 0.585185 0
-3.98793 2.29497 0
-3.7131 9.10493 0
2.7651 -8.0822 0
0.376667 -6.62147 0
1.93852 -7.30657 0
1.23812 -6.71124 0
-2.42633 -0.863933 0
-2.81368 -2.10904 0
-2.26739 -4.03003 0
-2.29902 -2.93053 0
-0.450546 -5.73255 0
-1.20275 -4.42595 0
3.78068 -8.96626 0
-4.68314 3.31147 0
-4.96585 4.46718 0
-4.53139 6.10251 0
-4.42799 5.21143 0
-3.75892 7.80684 0
-3.72176 6.64607 0
-2.71588 8.21308 0
-1.63621 -0.125341 0
-1.43763 -0.876952 0
-2.47249 0.517204 0
-3.2071 1.43544 0
-3.17961 3.2649 0
-2.86825 2.35984 0
-1.35062 0.637915 0
-2.49033 9.49249 0
3.80567 -7.65077 0
2.84655 -6.9189 0
0.903393 -5.6722 0
1.98711 -6.21686 0
-1.6633 -1.97696 0
-1.4163 -3.23545 0
0.0800071 -4.65468 0
-0.555763 -3.64231 0
4.78622 -7.09413 0
4.9265 -8.40668 0
-3.69182 4.44441 0
-3.64317 5.5993 0
-2.8047 7.08723 0
-2.93387 6.18392 0
-1.62381 8.53341 0
-1.88434 7.43075 0
-2.30153 3.98206 0
-0.721739 -1.31787 0
-0.830637 -0.24568 0
-1.93129 1.69236 0
-2.10361 2.85678 0
-1.29668 3.50884 0
-0.871826 1.3609 0
-0.285732 0.46349 0
-0.523731 8.68394 0
-1.2278 9.7309 0
1.07209 -4.46817 0
3.7648 -6.47396 0
2.87834 -5.89367 0
2.04088 -5.26578 0
4.63828 -5.99365 0
-0.549019 -2.4569 0
0.490164 -3.41532 0
0.059249 -1.60206 0
1.44613 -3.60251 0
5.71373 -6.42105 0
5.99106 -7.69045 0
-2.41939 5.22541 0
-2.06829 6.36735 0
-0.873966 7.63253 0
-1.22478 6.76424 0
0.0935804 7.72406 0
-1.12844 4.42252 0
0.148994 -0.611529 0
-0.80703 2.49439 0
-0.342582 3.57519 0
0.0538373 1.51551 0
0.734251 0.474367 0
0.63042 8.70928 0
0.0430236 9.83821 0
2.31063 -4.16932 0
3.73649 -5.4478 0
2.90644 -5.05013 0
5.43554 -5.32448 0
4.55857 -5.0994 0
0.631698 -2.28354 0
1.23989 -2.90971 0
0.758474 -1.38781 0
2.12021 -3.07286 0
2.92811 -3.3919 0
6.02505 -4.66475 0
6.50551 -5.62277 0
6.94865 -6.83216 0
-0.991799 5.6992 0
-0.347095 6.73302 0
1.10557 7.63266 0
0.563198 6.94039 0
-0.00357914 4.66187 0
0.593805 3.78969 0
1.3319 -0.641596 0
0.523338 2.63935 0
0.951163 1.57662 0
1.89353 0.208431 0
1.60062 1.06093 0
2.10017 7.45595 0
1.77032 8.56043 0
1.3269 9.76657 0
3.72715 -4.21992 0
4.99477 -4.30212 0
5.72722 -3.82541 0
3.70775 -3.11667 0
1.79768 -1.87665 0
2.97177 -2.52907 0
6.65643 -3.85605 0
7.23791 -4.79241 0
7.81407 -5.89611 0
0.48126 5.77565 0
1.41195 6.62329 0
2.34254 6.56176 0
1.19091 4.49515 0
1.46621 3.35874 0
2.41057 -0.68956 0
2.79709 0.140509 0
1.76845 2.14982 0
2.59147 1.14155 0
3.02955 7.0549 0
2.86363 8.23495 0
2.5965 9.52189 0
4.81239 -3.23324 0
6.00874 -3.03273 0
4.10546 -2.23434 0
3.20194 -1.48924 0
6.62276 -2.27525 0
7.11526 -2.9888 0
7.83491 -3.84943 0
8.54984 -4.86441 0
1.99946 5.51305 0
3.01783 6.04358 0
2.33533 4.06839 0
2.39372 3.02276 0
3.48064 -0.453422 0
3.57411 0.613113 0
2.9281 2.2614 0
3.49242 1.50711 0
3.91169 5.78109 0
3.90672 6.67195 0
3.91714 7.80807 0
3.82246 9.11694 0
5.48159 -1.88227 0
4.44565 -1.10976 0
6.59976 -1.31193 0
7.4671 -2.00213 0
8.25344 -2.81467 0
9.11959 -3.71769 0
3.33375 4.78234 0
3.27592 3.3258 0
4.62057 0.134111 0
4.43188 1.28258 0
3.97585 2.39152 0
4.43626 5.0339 0
4.7239 6.06516 0
4.88518 7.23682 0
4.96894 8.54688 0
5.77376 -0.435882 0
6.87442 -0.485837 0
7.6245 -1.05951 0
8.53112 -1.71141 0
9.52299 -2.48953 0
4.42798 3.73706 0
5.68145 1.05613 0
5.22156 2.46179 0
5.21035 4.49787 0
5.45393 5.39423 0
5.76359 6.52638 0
6.00129 7.81432 0
6.68654 0.433758 0
7.69452 -0.0271904 0
8.69179 -0.564434 0
9.76529 -1.21788 0
6.78182 1.29228 0
5.54079 3.66992 0
6.35545 2.11377 0
6.18052 2.98462 0
6.0943 4.55604 0
6.51167 5.6931 0
6.94307 6.95639 0
7.6052 0.933341 0
8.66644 0.56247 0
9.83182 0.0621891 0
7.41268 1.93597 0
6.59597 3.77076 0
7.0465 2.84223 0
7.17248 4.7528 0
7.80139 5.99993 0
8.50623 1.68207 0
9.71412 1.32155 0
8.18102 2.75168 0
7.76168 3.80798 0
8.51801 4.93707 0
9.46987 2.57571 0
9.07603 3.79016 0
CELLS 542 2168
3 2 0 4
3 0 1 7
3 4 0 7
3 1 5 8
3 7 1 8
3 3 2 13
3 13 2 4
3 11 3 14
3 14 3 13
3 13 4 15
3 4 7 16
3 15 4 16
3 5 6 17
3 8 5 17
3 6 9 18
3 17 6 18
3 7 8 19
3 16 7 19
3 8 17 20
3 19 8 20
3 9 10 23
3 18 9 23
3 10 21 24
3 23 10 24
3 12 11 25
3 25 11 14
3 26 12 27
3 27 12 25
3 14 13 29
3 29 13 15
3 25 14 30
3 30 14 29
3 29 15 31
3 15 16 33
3 31 15 33
3 16 19 34
3 33 16 34
3 17 18 35
3 20 17 35
3 18 23 36
3 35 18 36
3 19 20 37
3 34 19 37
3 20 35 38
3 37 20 38
3 21 22 39
3 24 21 39
3 22 32 40
3 39 22 40
3 23 24 41
3 36 23 41
3 24 39 42
3 41 24 42
3 27 25 44
3 44 25 30
3 28 26 45
3 45 26 27
3 45 27 46
3 46 27 44
3 47 28 48
3 48 28 45
3 30 29 50
3 50 29 31
3 44 30 51
3 51 30 50
3 50 31 52
3 31 33 52
3 32 43 53
3 40 32 53
3 53 43 54
3 33 34 55
3 34 37 55
3 33 55 52
3 35 36 56
3 38 35 56
3 36 41 57
3 56 36 57
3 37 38 58
3 38 56 58
3 37 58 55
3 39 40 59
3 42 39 59
3 40 53 60
3 59 40 60
3 41 42 61
3 57 41 61
3 42 59 62
3 61 42 62
3 43 63 54
3 46 44 64
3 64 44 51
3 48 45 65
3 65 45 46
3 65 46 66
3 66 46 64
3 49 47 67
3 67 47 48
3 67 48 68
3 68 48 65
3 69 49 70
3 70 49 67
3 52 55 72
3 64 51 73
3 51 50 73
3 50 52 73
3 73 52 74
3 74 52 72
3 53 54 75
3 60 53 75
3 54 63 76
3 54 76 77
3 75 54 77
3 55 58 78
3 72 55 78
3 72 78 79
3 56 57 80
3 57 61 80
3 56 80 58
3 58 80 81
3 78 58 81
3 59 60 82
3 62 59 82
3 60 75 83
3 82 60 83
3 61 62 84
3 62 82 84
3 61 84 80
3 63 85 76
3 66 64 86
3 64 73 86
3 68 65 87
3 87 65 66
3 87 66 86
3 70 67 88
3 88 67 68
3 88 68 89
3 89 68 87
3 71 69 90
3 90 69 70
3 90 70 91
3 91 70 88
3 92 71 93
3 93 71 90
3 74 72 94
3 94 72 79
3 86 73 95
3 95 73 74
3 95 74 96
3 96 74 94
3 97 86 95
3 76 85 99
3 75 77 100
3 83 75 100
3 76 99 101
3 77 76 101
3 77 101 102
3 100 77 102
3 94 79 103
3 78 81 104
3 79 78 104
3 79 104 103
3 80 84 105
3 81 80 105
3 81 105 106
3 104 81 106
3 82 83 107
3 83 100 107
3 82 107 84
3 84 107 108
3 105 84 108
3 85 109 99
3 89 87 110
3 87 86 110
3 110 86 97
3 91 88 111
3 111 88 89
3 111 89 110
3 93 90 112
3 112 90 91
3 112 91 113
3 113 91 111
3 98 92 114
3 114 92 93
3 114 93 115
3 115 93 112
3 116 98 114
3 117 103 118
3 96 94 119
3 94 103 119
3 119 103 117
3 97 95 120
3 120 95 96
3 120 96 119
3 121 110 97
3 121 97 122
3 122 97 120
3 123 119 117
3 124 98 116
3 99 109 125
3 99 125 126
3 101 99 126
3 100 102 127
3 100 127 107
3 101 126 128
3 102 101 128
3 102 128 127
3 104 106 129
3 104 129 103
3 103 129 118
3 105 108 130
3 106 105 130
3 106 130 129
3 107 127 131
3 108 107 131
3 108 131 132
3 108 132 130
3 109 134 125
3 125 134 133
3 113 111 135
3 111 110 135
3 135 110 121
3 115 112 136
3 136 112 113
3 136 113 135
3 116 114 137
3 137 114 115
3 137 115 138
3 138 115 136
3 139 124 116
3 139 116 140
3 140 116 137
3 141 135 121
3 118 129 142
3 118 142 143
3 117 118 143
3 123 117 143
3 122 120 144
3 120 119 144
3 144 119 123
3 141 121 145
3 145 121 122
3 145 122 144
3 146 141 145
3 147 144 123
3 147 123 148
3 143 148 123
3 150 124 139
3 149 150 139
3 131 127 151
3 125 133 152
3 126 125 152
3 126 152 153
3 128 126 153
3 128 153 154
3 128 154 127
3 127 154 151
3 152 133 155
3 130 132 156
3 130 156 129
3 129 156 142
3 131 151 157
3 132 131 157
3 132 157 156
3 156 158 142
3 157 151 159
3 133 160 155
3 134 161 133
3 133 161 160
3 138 136 162
3 136 135 162
3 162 135 141
3 140 137 163
3 163 137 138
3 163 138 162
3 149 139 164
3 164 139 140
3 164 140 165
3 165 140 163
3 166 149 164
3 167 162 141
3 167 141 146
3 142 158 168
3 143 142 168
3 143 168 148
3 146 145 169
3 145 144 169
3 169 144 147
3 170 167 146
3 170 146 169
3 171 169 147
3 171 147 148
3 171 148 172
3 168 172 148
3 173 149 166
3 174 150 149
3 173 174 149
3 154 175 151
3 151 175 159
3 152 155 176
3 153 152 176
3 153 176 177
3 153 177 154
3 154 177 175
3 155 160 178
3 155 178 179
3 176 155 179
3 156 157 180
3 156 180 158
3 157 159 181
3 157 181 180
3 158 180 182
3 158 182 168
3 159 175 183
3 159 183 181
3 175 184 183
3 160 186 178
3 178 186 185
3 161 187 160
3 160 187 186
3 165 163 188
3 163 162 188
3 188 162 167
3 166 164 189
3 189 164 165
3 189 165 188
3 190 173 166
3 190 166 191
3 191 166 189
3 192 188 167
3 192 167 170
3 193 192 170
3 182 194 168
3 194 172 168
3 193 170 195
3 170 169 195
3 195 169 171
3 196 195 171
3 196 171 172
3 194 197 172
3 197 198 172
3 198 196 172
3 200 173 190
3 199 200 190
3 201 174 173
3 200 201 173
3 176 179 202
3 177 176 202
3 177 202 175
3 175 202 184
3 178 185 203
3 178 203 179
3 179 203 202
3 203 185 204
3 202 205 184
3 183 206 181
3 180 181 206
3 180 206 182
3 182 206 194
3 183 184 207
3 205 207 184
3 183 207 206
3 185 208 204
3 186 209 185
3 185 209 208
3 187 210 186
3 186 210 209
3 191 189 211
3 189 188 211
3 211 188 192
3 199 190 212
3 212 190 191
3 212 191 211
3 213 199 212
3 214 211 192
3 214 192 193
3 215 214 193
3 215 193 195
3 206 216 194
3 216 197 194
3 216 217 197
3 215 195 218
3 218 195 196
3 198 218 196
3 217 219 197
3 219 218 198
3 197 219 198
3 220 199 213
3 221 200 199
3 220 221 199
3 222 201 200
3 221 222 200
3 203 204 223
3 203 223 202
3 202 223 205
3 204 208 224
3 204 224 223
3 205 223 225
3 205 225 207
3 207 225 226
3 207 226 206
3 226 216 206
3 208 228 224
3 224 228 227
3 209 229 208
3 229 228 208
3 210 230 209
3 209 230 229
3 213 212 231
3 212 211 231
3 231 211 214
3 232 220 213
3 232 213 231
3 233 231 214
3 233 214 215
3 234 233 215
3 234 215 218
3 226 235 216
3 235 217 216
3 235 236 217
3 217 236 219
3 237 234 218
3 237 218 219
3 236 238 219
3 238 237 219
3 240 220 232
3 239 240 232
3 241 221 220
3 240 241 220
3 242 222 221
3 241 242 221
3 224 227 243
3 224 243 223
3 223 243 225
3 225 243 244
3 225 244 226
3 226 244 235
3 227 245 243
3 228 246 227
3 227 246 245
3 229 247 228
3 228 247 246
3 230 248 229
3 229 248 247
3 239 232 249
3 232 231 249
3 249 231 233
3 250 249 233
3 250 233 234
3 237 250 234
3 244 251 235
3 235 251 236
3 251 252 236
3 236 252 238
3 252 253 238
3 253 250 237
3 253 237 238
3 254 239 249
3 255 240 239
3 254 255 239
3 256 241 240
3 255 256 240
3 257 242 241
3 256 257 241
3 245 258 243
3 243 258 244
3 244 258 251
3 245 259 258
3 246 260 245
3 245 260 259
3 247 261 246
3 246 261 260
3 248 262 247
3 247 262 261
3 254 249 263
3 263 249 250
3 253 263 250
3 258 264 251
3 251 264 252
3 264 265 252
3 265 263 253
3 252 265 253
3 266 254 263
3 267 255 254
3 266 267 254
3 268 256 255
3 267 268 255
3 269 257 256
3 268 269 256
3 259 270 258
3 270 264 258
3 260 271 259
3 259 271 270
3 261 272 260
3 260 272 271
3 262 273 261
3 273 272 261
3 270 274 264
3 275 266 263
3 275 263 265
3 274 276 264
3 276 265 264
3 276 277 265
3 277 275 265
3 278 267 266
3 275 278 266
3 279 268 267
3 278 279 267
3 280 269 268
3 279 280 268
3 271 281 270
3 270 281 274
3 272 282 271
3 271 282 281
3 273 283 272
3 272 283 282
3 281 284 274
3 274 284 276
3 285 278 275
3 277 285 275
3 284 286 276
3 286 285 277
3 276 286 277
3 287 279 278
3 285 287 278
3 288 280 279
3 287 288 279
3 282 289 281
3 281 289 284
3 283 290 282
3 282 290 289
3 289 291 284
3 284 291 286
3 291 292 286
3 292 287 285
3 286 292 285
3 293 288 287
3 292 293 287
3 290 294 289
3 289 294 291
3 294 295 291
3 295 293 292
3 291 295 292
CELL_TYPES 542
5
5
5
5
5
5
5
5
5
5
5
5
5
5
5
5
5
5
5
5
5
5
5
5
5
5
5
5
5
5
5
5
5
5
5
5
5
5
5
5
5
5
5
5
5
5
5
5
5
5
5
5
5
5
5
5
5
5
5
5
5
5
5
5
5
5
5
5
5
5
5
5
5
5
5
5
5
5
5
5
5
5
5
5
5
5
5
5
5
5
5
5
5
5
5
5
5
5
5
5
5
5
5
5
5
5
5
5
5
5
5
5
5
5
5
5
5
5
5
5
5
5
5
5
5
5
5
5
5
5
5
5
5
5
5
5
5
5
5
5
5
5
5
5
5
5
5
5
5
5
5
5
5
5
5
5
5
5
5
5
5
5
5
5
5
5
5
5
5
5
5
5
5
5
5
5
5
5
5
5
5
5
5
5
5
5
5
5
5
5
5
5
5
5
5
5
5
5
5
5
5
5
5
5
5
5
5
5
5
5
5
5
5
5
5
5
5
5
5
5
5
5
5
5
5
5
5
5
5
5
5
5
5
5
5
5
5
5
5
5
5
5
5
5
5
5
5
5
5
5
5
5
5
5
5
5
5
5
5
5
5
5
5
5
5
5
5
5
5
5
5
5
5
5
5
5
5
5
5
5
5
5
5
5
5
5
5
5
5
5
5
5
5
5
5
5
5
5
5
5
5
5
5
5
5
5
5
5
5
5
5
5
5
5
5
5
5
5
5
5
5
5
5
5
5
5
5
5
5
5
5
5
5
5
5
5
5
5
5
5
5
5
5
5
5
5
5
5
5
5
5
5
5
5
5
5
5
5
5
5
5
5
5
5
5
5
5
5
5
5
5
5
5
5
5
5
5
5
5
5
5
5
5
5
5
5
5
5
5
5
5
5
5
5
5
5
5
5
5
5
5
5
5
5
5
5
5
5
5
5
5
5
5
5
5
5
5
5
5
5
5
5
5
5
5
5
5
5
5
5
5
5
5
5
5
5
5
5
5
5
5
5
5
5
5
5
5
5
5
5
5
5
5
5
5
5
5
5
5
5
5
5
5
5
5
5
5
5
5
5
5
5
5
5
5
5
5
5
5
5
5
5
5
5
5
5
5
5
5
5
5
5
5
5
5
5
5
5
5
5
5
5
5
5
5
5
5
5
5
5
5
5
5
5
5
5
5
5
5
5
5
5
5
5
5
5
5
5
5
5
5
5
5
5
5
5
5
5
5
5
5
5
POINT_DATA 296
SCALARS concentrations float 4
LOOKUP_TABLE default
0 0.956623 0.130373 7.02788
0 0.956615 0.131426 5.79724
0 0.956618 0.129184 1.97923
0 0.956616 0.130544 4.887
0 0.95664 0.0935726 -0.806467
0 0.956602 0.129357 5.03229
0 0.956611 0.129791 7.24499
0 0.956629 0.0964354 1.02512
0 0.956619 0.0941141 -1.39044
0 0.956636 0.132553 6.56112
0 0.956631 0.133628 3.08254
0 0.956598 0.130489 7.31273
0 0.956577 0.12972 12.6452
0 0.956628 0.0945068 0.284252
0 0.956626 0.0931354 -0.911725
0 0.956645 0.0944409 1.00561
0 0.956654 0.0949165 -0.410136
0 0.956615 0.0943537 0.979818
0 0.956625 0.093661 0.576457
0 0.956629 0.0956103 -1.73098
0 0.956634 0.102572 -2.33413
0 0.956605 0.127389 10.638
0 0.95668 0.133012 3.77633
0 0.956638 0.0937709 -0.578974
0 0.95661 0.0928576 0.0440986
0 0.956602 0.0934418 -0.958709
0 0.956627 0.127129 2.39375
0 0.956609 0.0937134 -0.0583432
0 0.956682 0.1281 5.22288
0 0.95664 0.0942762 0.972238
0 0.956635 0.0938685 -0.483907
0 0.956627 0.0941922 -0.950062
0 0.956642 0.130715 8.16982
0 0.956635 0.0948844 0.744453
0 0.956629 0.103045 -0.151579
0 0.956628 0.0943977 0.877353
0 0.956625 0.0936609 0.24756
0 0.956619 0.094059 -1.2276
0 0.95663 0.0941817 0.252645
0 0.956634 0.0927412 0.0501325
0 0.956649 0.0927372 0.114477
0 0.956626 0.094335 0.263175
0 0.956622 0.0944417 -0.257602
0 0.956583 0.131243 6.82423
0 0.956626 0.0942089 -0.78941
0 0.956652 0.0936276 -0.995661
0 0.956637 0.0950094 -0.119897
0 0.956671 0.130611 6.3898
0 0.95667 0.0935583 0.77474
0 0.956561 0.128411 4.16681
0 0.956636 0.0935642 -0.988615
0 0.956636 0.0942593 -1.41163
0 0.956628 0.0944902 1.40653
0 0.956609 0.0928818 0.00743858
0 0.956571 0.0927355 0.0035148
0 0.956625 0.0950189 0.591885
0 0.956622 0.0945982 0.268794
0 0.956626 0.0933485 0.171297
0 0.95663 0.0944506 0.293487
0 0.956623 0.0942825 0.44391
0 0.956615 0.09309 0.183089
0 0.956625 0.0987848 -1.86251
0 0.956618 0.0961129 0.043311
0 0.956536 0.131228 7.45284
0 0.95664 0.0944752 1.33951
0 0.956645 0.094819 -0.955443
0 0.956642 0.0946469 0.119039
0 0.956635 0.0930133 -0.294783
0 0.956643 0.09399 0.889664
0 0.956503 0.129288 12.4669
0 0.956555 0.0929589 -0.168845
0 0.956626 0.130334 5.439
0 0.956635 0.0967599 -0.421881
0 0.956642 0.0935383 -1.18587
0 0.956641 0.0951043 -1.40756
0 0.95661 0.0929961 -0.0135613
0 0.956575 0.0929245 -0.106103
0 0.956612 0.092871 -0.0743627
0 0.95664 0.0962548 0.246786
0 0.956646 0.0979546 -1.09819
0 0.95663 0.0963937 1.24887
0 0.956641 0.0952354 0.131821
0 0.956617 0.0945775 -0.737717
0 0.956621 0.0924815 0.0765888
0 0.956625 0.0947406 -0.0791075
0 0.956584 0.127781 9.59298
0 0.956647 0.0936776 -0.256715
0 0.95664 0.0945687 0.282622
0 0.956632 0.0942115 -0.565955
0 0.956638 0.0953497 -0.973163
0 0.956581 0.0937426 -0.0962108
0 0.956621 0.0942349 0.221957
0 0.956759 0.128863 0.515448
0 0.956682 0.0947225 -0.163632
0 0.956644 0.0964654 0.540474
0 0.95665 0.0935702 0.903898
0 0.956648 0.0951136 1.76589
0 0.956655 0.094801 -0.819175
0 0.956796 0.127373 1.57882
0 0.956627 0.0930098 -0.186043
0 0.956629 0.0934498 0.215179
0 0.956626 0.0935 -0.19638
0 0.956633 0.0928899 0.224547
0 0.956653 0.0960259 0.931625
0 0.956654 0.0961851 -0.528206
0 0.956637 0.0972048 0.771775
0 0.956651 0.0951825 0.459153
0 0.956629 0.093652 -0.42513
0 0.956634 0.0939342 0.0933768
0 0.956646 0.128844 5.62623
0 0.956649 0.0940711 -0.425533
0 0.956644 0.0939921 0.425184
0 0.95663 0.0947539 0.0915173
0 0.956637 0.0942932 -0.332183
0 0.956752 0.0940393 -0.129999
0 0.956655 0.100167 1.33226
0 0.956735 0.0954383 0.372377
0 0.95665 0.0939486 1.18914
0 0.956651 0.0941147 -0.88019
0 0.956648 0.0973717 -2.42613
0 0.956656 0.0965113 0.619627
0 0.95665 0.0944397 1.76972
0 0.956647 0.102414 -1.9748
0 0.956643 0.0953193 -1.23808
0 0.956724 0.128204 1.99433
0 0.956653 0.0930658 0.209759
0 0.956644 0.0936148 -0.223782
0 0.956635 0.0929231 0.0347059
0 0.956637 0.0931222 0.105803
0 0.95665 0.097347 1.02664
0 0.956636 0.0940247 -0.418626
0 0.956638 0.0928697 0.00946381
0 0.956634 0.0935092 -0.061203
0 0.956658 0.0939999 0.0985189
0 0.956651 0.128368 4.14968
0 0.956648 0.0969962 -0.342679
0 0.956631 0.0949173 -0.0462559
0 0.956672 0.0980551 0.78813
0 0.956623 0.0957585 0.0133707
0 0.956683 0.0935429 -0.503978
0 0.956678 0.0941329 0.141786
0 0.956646 0.0949608 1.47793
0 0.956649 0.0949328 -0.6787
0 0.956654 0.0942508 0.676579
0 0.956642 0.0966114 -1.88208
0 0.956641 0.0963704 -0.809134
0 0.956649 0.0949754 0.788844
0 0.956646 0.0954146 -0.667422
0 0.956655 0.0940546 -0.829729
0 0.956654 0.0931367 0.415792
0 0.956657 0.128333 1.2435
0 0.956637 0.0935259 0.0537185
0 0.956652 0.0943956 -0.253643
0 0.956641 0.0929985 -0.0455296
0 0.956636 0.093301 -0.0244396
0 0.956645 0.0947992 -0.142071
0 0.956637 0.0943753 -0.0932157
0 0.95664 0.0940212 0.291728
0 0.956646 0.0949601 0.227659
0 0.956639 0.0941346 0.0171751
0 0.956647 0.0939562 0.051623
0 0.956662 0.130693 6.396
0 0.956639 0.0946394 0.715076
0 0.956643 0.094881 -0.0364464
0 0.956671 0.0935101 0.0459468
0 0.956655 0.0945286 0.239882
0 0.956668 0.0935359 0.241447
0 0.956645 0.0938689 -1.2291
0 0.956655 0.0940792 0.786598
0 0.956649 0.0997114 0.447334
0 0.956644 0.093659 0.786227
0 0.956654 0.0957056 1.10833
0 0.956659 0.0943906 -0.293623
0 0.956658 0.093185 -0.689173
0 0.956636 0.128696 4.92791
0 0.956632 0.0945552 -0.136188
0 0.95664 0.093013 -0.064739
0 0.956634 0.0934056 -0.20266
0 0.956645 0.0965452 -0.494783
0 0.956638 0.094474 -0.262813
0 0.956638 0.0945984 0.443316
0 0.956643 0.094975 -0.181796
0 0.956649 0.0944752 -0.117853
0 0.956637 0.0934895 -0.13913
0 0.956632 0.0931115 -0.0796098
0 0.956642 0.0935212 -0.0810673
0 0.956644 0.0938092 -0.0316847
0 0.956637 0.129849 6.08771
0 0.956647 0.0948382 -0.337504
0 0.956656 0.0942428 0.0452671
0 0.956663 0.0937668 -0.846104
0 0.956663 0.0941675 -0.592704
0 0.95665 0.0963636 0.0518326
0 0.956653 0.0967029 -0.582245
0 0.956656 0.094418 0.131066
0 0.956654 0.0948639 -0.719183
0 0.956667 0.0986998 -0.131808
0 0.956659 0.0925976 -0.31475
0 0.956673 0.0944387 0.559655
0 0.956649 0.0948554 -0.643888
0 0.956645 0.0931969 -0.561288
0 0.956652 0.131904 5.50936
0 0.956633 0.092768 -0.202867
0 0.956642 0.0934627 -0.210715
0 0.95664 0.0938746 -0.105089
0 0.956635 0.0933821 0.00500274
0 0.956649 0.0938189 0.0899175
0 0.956645 0.0943579 -0.295379
0 0.956621 0.0936472 0.053183
0 0.956636 0.093904 0.0674013
0 0.956655 0.129215 5.2179
0 0.956654 0.0940761 -0.930522
0 0.956661 0.0950305 -0.0949036
0 0.956654 0.097504 -0.28815
0 0.956657 0.0948806 0.269118
0 0.956662 0.0950383 -0.949525
0 0.956654 0.094773 0.166597
0 0.95665 0.0931601 -0.13645
0 0.956666 0.0950685 0.644376
0 0.956656 0.0948602 -0.116034
0 0.956631 0.101731 -0.664889
0 0.956615 0.0926839 -0.484381
0 0.956619 0.12941 3.00136
0 0.956641 0.0937347 -0.250729
0 0.956633 0.0968757 -0.996427
0 0.956637 0.094758 -0.0497849
0 0.956648 0.0940593 0.0276378
0 0.956625 0.0983928 -1.36992
0 0.956602 0.0950074 0.179544
0 0.956604 0.0947298 -0.115503
0 0.95663 0.12881 7.66928
0 0.95665 0.0943392 0.0367036
0 0.956645 0.0940835 -0.638713
0 0.956651 0.0943696 -0.599022
0 0.956656 0.0955897 -0.911294
0 0.956644 0.0938049 -0.123583
0 0.956643 0.0990188 -1.30888
0 0.956653 0.0948175 0.696238
0 0.956651 0.0956949 -0.434526
0 0.956641 0.0937813 0.545585
0 0.956636 0.093639 0.54167
0 0.95662 0.0931276 -0.61623
0 0.956614 0.129396 10.2455
0 0.956632 0.0988236 -0.860674
0 0.956636 0.0958164 -0.115938
0 0.956634 0.0972185 0.754608
0 0.956618 0.094638 0.214946
0 0.956584 0.09495 0.2129
0 0.956593 0.129611 12.236
0 0.956642 0.0948045 -0.894897
0 0.956644 0.0937888 0.737023
0 0.956644 0.0951455 0.355886
0 0.956645 0.0943708 0.178462
0 0.956643 0.0955782 0.943883
0 0.956639 0.0937103 -0.337878
0 0.956631 0.0926954 0.640496
0 0.956654 0.0931121 0.132481
0 0.956654 0.128237 6.54153
0 0.956641 0.101964 -2.07644
0 0.95665 0.094405 -0.289605
0 0.95664 0.0937556 0.190897
0 0.956609 0.0941775 -0.3012
0 0.956579 0.129476 8.58422
0 0.956639 0.0943144 1.0145
0 0.95665 0.0928923 -0.236601
0 0.95664 0.0928943 -0.473352
0 0.956628 0.0945198 0.723453
0 0.956626 0.0933773 -0.669175
0 0.956628 0.0925746 0.499193
0 0.956659 0.130047 7.48528
0 0.956655 0.0945568 0.0842584
0 0.956651 0.0932902 -0.120243
0 0.956627 0.0934106 0.068628
0 0.956607 0.130859 4.81898
0 0.956656 0.0949097 -0.178194
0 0.956628 0.0931446 0.777579
0 0.95665 0.0939445 0.0857046
0 0.95664 0.0943439 0.988821
0 0.956626 0.0968213 0.858044
0 0.956635 0.0934856 0.778773
0 0.956622 0.127191 4.50103
0 0.956666 0.0929212 0.2134
0 0.956653 0.0938514 0.785553
0 0.956621 0.13023 5.48335
0 0.956666 0.0930234 0.519485
0 0.956631 0.0951927 0.864744
0 0.956646 0.0968154 -0.139027
0 0.956631 0.0942352 0.993323
0 0.95664 0.127549 0.898062
0 0.956707 0.094196 0.0743301
0 0.956691 0.131771 3.09103
0 0.956679 0.0944986 -0.0893069
0 0.956628 0.0954263 1.10406
0 0.956618 0.128377 9.21348
0 0.956727 0.129058 -0.271573
0 0.95665 0.127996 7.05661
VECTORS fa_u float
0.00713906 0.00286171 -0
0.00655145 0.00376497 -0
0.0031646 0.000860712 -0
0.00713828 0.00109294 -0
1e-08 0 0
0.00521259 0.00401577 -0
0.0027197 0.00264023 -0
1e-08 0 0
1e-08 0 0
0.00447995 0.00549933 -0
0.0050914 0.00857495 -0
0.00659338 0.000124531 -0
0.00620467 -0.000681236 0
1e-08 0 0
1e-08 0 0
1e-08 0 0
1e-08 0 0
1e-08 0 0
1e-08 0 0
1e-08 0 0
1e-08 0 0
0.00289644 0.00713633 -0
0.00161009 0.00629911 -0
1e-08 0 0
1e-08 0 0
1e-08 0 0
0.00872491 -0.00221384 0
1e-08 0 0
0.0105019 -0.00457779 0
1e-08 0 0
1e-08 0 0
1e-08 0 0
0.000850365 0.00721432 -0
1e-08 0 0
1e-08 0 0
1e-08 0 0
1e-08 0 0
1e-08 0 0
1e-08 0 0
1e-08 0 0
1e-08 0 0
1e-08 0 0
1e-08 0 0
-0.000157183 0.00756405 -0
1e-08 0 0
1e-08 0 0
1e-08 0 0
0.00566352 -0.00357469 0
1e-08 0 0
0.00288801 -0.00232094 0
1e-08 0 0
1e-08 0 0
1e-08 0 0
1e-08 0 0
1e-08 0 0
1e-08 0 0
1e-08 0 0
1e-08 0 0
1e-08 0 0
1e-08 0 0
1e-08 0 0
1e-08 0 0
1e-08 0 0
-0.000608684 0.0042284 0
1e-08 0 0
1e-08 0 0
1e-08 0 0
1e-08 0 0
1e-08 0 0
0.00329587 -0.00326392 0
1e-08 0 0
0.00289536 -0.00356757 0
1e-08 0 0
1e-08 0 0
1e-08 0 0
1e-08 0 0
1e-08 0 0
1e-08 0 0
1e-08 0 0
1e-08 0 0
1e-08 0 0
1e-08 0 0
1e-08 0 0
1e-08 0 0
1e-08 0 0
-0.00141221 0.00542228 0
1e-08 0 0
1e-08 0 0
1e-08 0 0
1e-08 0 0
1e-08 0 0
1e-08 0 0
0.00547182 -0.00901975 0
1e-08 0 0
1e-08 0 0
1e-08 0 0
1e-08 0 0
1e-08 0 0
0.00355329 -0.00877577 0
1e-08 0 0
1e-08 0 0
1e-08 0 0
1e-08 0 0
1e-08 0 0
1e-08 0 0
1e-08 0 0
1e-08 0 0
1e-08 0 0
1e-08 0 0
-0.00285342 0.00705293 0
1e-08 0 0
1e-08 0 0
1e-08 0 0
1e-08 0 0
1e-08 0 0
1e-08 0 0
1e-08 0 0
1e-08 0 0
1e-08 0 0
1e-08 0 0
1e-08 0 0
1e-08 0 0
1e-08 0 0
1e-08 0 0
0.00137274 -0.00545019 0
1e-08 0 0
1e-08 0 0
1e-08 0 0
1e-08 0 0
1e-08 0 0
1e-08 0 0
1e-08 0 0
1e-08 0 0
1e-08 0 0
-0.0037036 0.00641662 0
1e-08 0 0
1e-08 0 0
1e-08 0 0
1e-08 0 0
1e-08 0 0
1e-08 0 0
1e-08 0 0
1e-08 0 0
1e-08 0 0
1e-08 0 0
1e-08 0 0
1e-08 0 0
1e-08 0 0
1e-08 0 0
1e-08 0 0
0.000552467 -0.0040484 0
1e-08 0 0
1e-08 0 0
1e-08 0 0
1e-08 0 0
1e-08 0 0
1e-08 0 0
1e-08 0 0
1e-08 0 0
1e-08 0 0
1e-08 0 0
-0.00457134 0.00587092 0
1e-08 0 0
1e-08 0 0
1e-08 0 0
1e-08 0 0
1e-08 0 0
1e-08 0 0
1e-08 0 0
1e-08 0 0
1e-08 0 0
1e-08 0 0
1e-08 0 0
1e-08 0 0
0.00010639 -0.00761873 0
1e-08 0 0
1e-08 0 0
1e-08 0 0
1e-08 0 0
1e-08 0 0
1e-08 0 0
1e-08 0 0
1e-08 0 0
1e-08 0 0
1e-08 0 0
1e-08 0 0
1e-08 0 0
-0.0024063 0.00244475 0
1e-08 0 0
1e-08 0 0
1e-08 0 0
1e-08 0 0
1e-08 0 0
1e-08 0 0
1e-08 0 0
1e-08 0 0
1e-08 0 0
1e-08 0 0
1e-08 0 0
1e-08 0 0
1e-08 0 0
-0.000861045 -0.0069508 0
1e-08 0 0
1e-08 0 0
1e-08 0 0
1e-08 0 0
1e-08 0 0
1e-08 0 0
1e-08 0 0
1e-08 0 0
-0.00488261 0.00397308 0
1e-08 0 0
1e-08 0 0
1e-08 0 0
1e-08 0 0
1e-08 0 0
1e-08 0 0
1e-08 0 0
1e-08 0 0
1e-08 0 0
1e-08 0 0
1e-08 0 0
-0.00160772 -0.00617606 0
1e-08 0 0
1e-08 0 0
1e-08 0 0
1e-08 0 0
1e-08 0 0
1e-08 0 0
1e-08 0 0
-0.00840187 0.0050352 0
1e-08 0 0
1e-08 0 0
1e-08 0 0
1e-08 0 0
1e-08 0 0
1e-08 0 0
1e-08 0 0
1e-08 0 0
1e-08 0 0
1e-08 0 0
1e-08 0 0
-0.00298494 -0.00726308 0
1e-08 0 0
1e-08 0 0
1e-08 0 0
1e-08 0 0
1e-08 0 0
-0.00740072 0.00303256 0
1e-08 0 0
1e-08 0 0
1e-08 0 0
1e-08 0 0
1e-08 0 0
1e-08 0 0
1e-08 0 0
1e-08 0 0
-0.00486162 -0.00813176 0
1e-08 0 0
1e-08 0 0
1e-08 0 0
1e-08 0 0
-0.00621262 0.00160473 0
1e-08 0 0
1e-08 0 0
1e-08 0 0
1e-08 0 0
1e-08 0 0
1e-08 0 0
-0.00364717 -0.00452691 0
1e-08 0 0
1e-08 0 0
1e-08 0 0
-0.00713721 0.000863818 0
1e-08 0 0
1e-08 0 0
1e-08 0 0
1e-08 0 0
1e-08 0 0
1e-08 0 0
-0.00280069 -0.00277863 0
1e-08 0 0
1e-08 0 0
-0.00823187 -0.000165894 0
1e-08 0 0
1e-08 0 0
1e-08 0 0
1e-08 0 0
-0.00583925 -0.00455422 0
1e-08 0 0
-0.0038188 -0.000549912 0
1e-08 0 0
1e-08 0 0
-0.00664944 -0.00383552 0
-0.00555594 -0.00143611 0
-0.00701581 -0.00282808 0
