# vtk DataFile Version 2.0
CellBP Time: 6.16
ASCII
DATASET UNSTRUCTURED_GRID
POINTS 296 double
-8.98052 -3.67994 0
-8.41936 -4.83497 0
-9.37528 -2.45569 0
-9.64883 -1.21913 0
-8.13565 -2.72743 0
-7.70172 -5.90394 0
-6.85152 -6.87053 0
-7.69585 -3.75388 0
-7.13326 -4.72972 0
-5.91791 -7.73723 0
-4.88038 -8.46846 0
-9.75319 0.0393509 0
-9.69313 1.31985 0
-8.45148 -1.63058 0
-8.60614 -0.508549 0
-7.37901 -1.92876 0
-7.0089 -2.80039 0
-6.46993 -5.64764 0
-5.69773 -6.46657 0
-6.58087 -3.76341 0
-6.04087 -4.54809 0
-3.72726 -9.03529 0
-2.49691 -9.4374 0
-4.81549 -7.18492 0
-3.86016 -7.7652 0
-8.62088 0.630493 0
-9.46778 2.59829 0
-8.47084 1.73551 0
-9.05635 3.81794 0
-7.5535 -0.890409 0
-7.61613 0.0885595 0
-6.76855 -1.26211 0
-1.22322 -9.67758 0
-6.2715 -2.08011 0
-6.14272 -2.95956 0
-5.39423 -5.35128 0
-4.68684 -5.99535 0
-5.50168 -3.65309 0
-5.12021 -4.44889 0
-2.82718 -8.23021 0
-1.75179 -8.49136 0
-3.85451 -6.60827 0
-3.01858 -7.03995 0
0.0544986 -9.74133 0
-7.5397 1.11887 0
-8.21079 2.86825 0
-7.3994 2.0579 0
-8.44829 4.94664 0
-7.73349 3.89532 0
-7.69431 5.99017 0
-6.61354 -0.372717 0
-6.79202 0.549016 0
-5.6442 -0.974888 0
-0.582361 -8.64269 0
0.545817 -8.58109 0
-5.17937 -2.41379 0
-4.37079 -4.98167 0
-3.81251 -5.66386 0
-4.33496 -3.72216 0
-2.0307 -7.43654 0
-1.11822 -7.64708 0
-2.93947 -5.99197 0
-2.27713 -6.51068 0
1.31769 -9.62891 0
-6.54494 1.38652 0
-7.01734 3.03871 0
-6.51863 2.31546 0
-7.13834 4.87235 0
-6.57479 3.90412 0
-6.84951 6.94332 0
-6.42383 5.75593 0
-5.89967 7.80115 0
-4.38498 -1.16822 0
-5.70006 0.494439 0
-4.58624 -0.0259219 0
-0.00313595 -7.68133 0
1.68857 -8.43164 0
0.910646 -7.57916 0
-3.97265 -2.36252 0
-3.46048 -1.38134 0
-3.22888 -4.71565 0
-3.22471 -3.21623 0
-1.36824 -6.55078 0
-0.519321 -6.88061 0
-1.95135 -5.44706 0
2.57247 -9.38138 0
-5.40097 1.99854 0
-5.96451 2.99598 0
-5.97436 4.74862 0
-5.63426 3.88651 0
-5.62409 6.55444 0
-5.32915 5.47811 0
-4.86165 8.54932 0
-4.72278 7.22046 0
-3.46619 -0.420035 0
-4.37642 1.23062 0
-3.66099 0.586392 0
-3.99299 2.29633 0
-3.7183 9.11953 0
2.77263 -8.10187 0
0.379798 -6.6336 0
1.94504 -7.32239 0
1.24294 -6.7255 0
-2.42754 -0.864649 0
-2.81537 -2.11116 0
-2.26887 -4.03525 0
-2.30109 -2.93381 0
-0.449488 -5.74244 0
-1.20468 -4.432 0
3.78823 -8.98402 0
-4.69065 3.31761 0
-4.9757 4.47691 0
-4.53978 6.11606 0
-4.43719 5.22306 0
-3.76489 7.82121 0
-3.72993 6.66104 0
-2.71957 8.22888 0
-1.63795 -0.125574 0
-1.43792 -0.878252 0
-2.47378 0.51641 0
-3.21093 1.43621 0
-3.18457 3.26935 0
-2.87163 2.36067 0
-1.3502 0.637317 0
-2.49414 9.5098 0
3.81496 -7.66764 0
2.85551 -6.93637 0
0.906852 -5.68425 0
1.99316 -6.23288 0
-1.66521 -1.9778 0
-1.41755 -3.23889 0
0.0810857 -4.66222 0
-0.556584 -3.6466 0
4.79738 -7.1115 0
4.93629 -8.42292 0
-3.69795 4.45288 0
-3.64904 5.61094 0
-2.81046 7.10229 0
-2.93952 6.19664 0
-1.62709 8.54976 0
-1.88859 7.44431 0
-2.30444 3.98699 0
-0.722198 -1.31913 0
-0.83129 -0.247035 0
-1.93065 1.69102 0
-2.10543 2.85886 0
-1.29777 3.51212 0
-0.871811 1.36012 0
-0.285371 0.463048 0
-0.525232 8.69853 0
-1.23001 9.74924 0
1.0754 -4.47627 0
3.77627 -6.49237 0
2.88622 -5.90861 0
2.04687 -5.27767 0
4.6503 -6.01 0
-0.548999 -2.45831 0
0.490652 -3.41951 0
0.0589669 -1.60338 0
1.44947 -3.60767 0
5.72437 -6.43493 0
6.00276 -7.70586 0
-2.4247 5.23481 0
-2.07308 6.38046 0
-0.876772 7.64505 0
-1.22776 6.77654 0
0.0935238 7.7366 0
-1.12972 4.42904 0
0.148636 -0.611286 0
-0.807013 2.49406 0
-0.3428 3.57833 0
0.0541293 1.51546 0
0.734838 0.475283 0
0.632 8.7211 0
0.0436703 9.85548 0
2.31511 -4.17815 0
3.74456 -5.46198 0
2.91364 -5.06222 0
5.44588 -5.33722 0
4.56934 -5.11323 0
0.631408 -2.28456 0
1.24039 -2.91157 0
0.758343 -1.38827 0
2.12346 -3.07665 0
2.93237 -3.39858 0
6.03402 -4.67467 0
6.51761 -5.63409 0
6.96219 -6.84706 0
-0.993858 5.70861 0
-0.348182 6.74532 0
1.1075 7.64278 0
0.563315 6.95126 0
-0.00245386 4.667 0
0.595185 3.79258 0
1.33298 -0.642259 0
0.524687 2.64076 0
0.952512 1.57647 0
1.89571 0.208578 0
1.60201 1.06099 0
2.10171 7.46664 0
1.77325 8.57102 0
1.32922 9.7827 0
3.73358 -4.23026 0
5.00396 -4.31314 0
5.73734 -3.83349 0
3.7138 -3.12311 0
1.79918 -1.87708 0
2.97511 -2.53238 0
6.66656 -3.86358 0
7.24945 -4.80142 0
7.82753 -5.90733 0
0.482032 5.78441 0
1.41326 6.63227 0
2.34429 6.56912 0
1.19199 4.49973 0
1.4683 3.36099 0
2.41273 -0.690484 0
2.79962 0.140711 0
1.76951 2.15189 0
2.59394 1.14248 0
3.03211 7.06327 0
2.86748 8.24621 0
2.59973 9.53685 0
4.81984 -3.24073 0
6.0178 -3.03784 0
4.11062 -2.23748 0
3.20557 -1.49047 0
6.63074 -2.27745 0
7.12416 -2.99243 0
7.84529 -3.8531 0
8.56259 -4.87125 0
2.00145 5.5201 0
3.02378 6.05182 0
2.33812 4.07268 0
2.3965 3.02591 0
3.48446 -0.453921 0
3.5771 0.612877 0
2.93008 2.26331 0
3.49725 1.50817 0
3.91926 5.79048 0
3.91198 6.68088 0
3.9215 7.81881 0
3.82709 9.13107 0
5.48769 -1.88531 0
4.45001 -1.11144 0
6.60826 -1.31337 0
7.47714 -2.00567 0
8.26552 -2.81833 0
9.13353 -3.72241 0
3.34049 4.78941 0
3.28036 3.33062 0
4.62604 0.134516 0
4.43837 1.28535 0
3.98167 2.39483 0
4.44655 5.04265 0
4.73336 6.07533 0
4.89234 7.24638 0
4.97565 8.56 0
5.78132 -0.436236 0
6.8851 -0.486185 0
7.63626 -1.06105 0
8.54312 -1.71441 0
9.53823 -2.49328 0
4.43708 3.74474 0
5.69119 1.05884 0
5.23411 2.46756 0
5.22328 4.50796 0
5.46703 5.4035 0
5.77319 6.53743 0
6.01207 7.8278 0
6.69983 0.436619 0
7.70764 -0.0276468 0
8.70517 -0.564826 0
9.78162 -1.2206 0
6.79546 1.29714 0
5.55486 3.67808 0
6.36954 2.12129 0
6.19597 2.99355 0
6.10998 4.56497 0
6.52488 5.70443 0
6.95767 6.96932 0
7.61961 0.934986 0
8.68086 0.564192 0
9.84972 0.0615521 0
7.42778 1.94051 0
6.61335 3.7813 0
7.06405 2.85037 0
7.18839 4.76318 0
7.81619 6.01067 0
8.52231 1.68671 0
9.73436 1.32436 0
8.19968 2.7577 0
7.7787 3.81625 0
8.53359 4.94601 0
9.48901 2.58059 0
9.09309 3.79697 0
CELLS 542 2168
3 2 0 4
3 0 1 7
3 4 0 7
3 1 5 8
3 7 1 8
3 3 2 13
3 13 2 4
3 11 3 14
3 14 3 13
3 13 4 15
3 4 7 16
3 15 4 16
3 5 6 17
3 8 5 17
3 6 9 18
3 17 6 18
3 7 8 19
3 16 7 19
3 8 17 20
3 19 8 20
3 9 10 23
3 18 9 23
3 10 21 24
3 23 10 24
3 12 11 25
3 25 11 14
3 26 12 27
3 27 12 25
3 14 13 29
3 29 13 15
3 25 14 30
3 30 14 29
3 29 15 31
3 15 16 33
3 31 15 33
3 16 19 34
3 33 16 34
3 17 18 35
3 20 17 35
3 18 23 36
3 35 18 36
3 19 20 37
3 34 19 37
3 20 35 38
3 37 20 38
3 21 22 39
3 24 21 39
3 22 32 40
3 39 22 40
3 23 24 41
3 36 23 41
3 24 39 42
3 41 24 42
3 27 25 44
3 44 25 30
3 28 26 45
3 45 26 27
3 45 27 46
3 46 27 44
3 47 28 48
3 48 28 45
3 30 29 50
3 50 29 31
3 44 30 51
3 51 30 50
3 50 31 52
3 31 33 52
3 32 43 53
3 40 32 53
3 53 43 54
3 33 34 55
3 34 37 55
3 33 55 52
3 35 36 56
3 38 35 56
3 36 41 57
3 56 36 57
3 37 38 58
3 38 56 58
3 37 58 55
3 39 40 59
3 42 39 59
3 40 53 60
3 59 40 60
3 41 42 61
3 57 41 61
3 42 59 62
3 61 42 62
3 43 63 54
3 46 44 64
3 64 44 51
3 48 45 65
3 65 45 46
3 65 46 66
3 66 46 64
3 49 47 67
3 67 47 48
3 67 48 68
3 68 48 65
3 69 49 70
3 70 49 67
3 52 55 72
3 64 51 73
3 51 50 73
3 50 52 73
3 73 52 74
3 74 52 72
3 53 54 75
3 60 53 75
3 54 63 76
3 54 76 77
3 75 54 77
3 55 58 78
3 72 55 78
3 72 78 79
3 56 57 80
3 57 61 80
3 56 80 58
3 58 80 81
3 78 58 81
3 59 60 82
3 62 59 82
3 60 75 83
3 82 60 83
3 61 62 84
3 62 82 84
3 61 84 80
3 63 85 76
3 66 64 86
3 64 73 86
3 68 65 87
3 87 65 66
3 87 66 86
3 70 67 88
3 88 67 68
3 88 68 89
3 89 68 87
3 71 69 90
3 90 69 70
3 90 70 91
3 91 70 88
3 92 71 93
3 93 71 90
3 74 72 94
3 94 72 79
3 86 73 95
3 95 73 74
3 95 74 96
3 96 74 94
3 97 86 95
3 76 85 99
3 75 77 100
3 83 75 100
3 76 99 101
3 77 76 101
3 77 101 102
3 100 77 102
3 94 79 103
3 78 81 104
3 79 78 104
3 79 104 103
3 80 84 105
3 81 80 105
3 81 105 106
3 104 81 106
3 82 83 107
3 83 100 107
3 82 107 84
3 84 107 108
3 105 84 108
3 85 109 99
3 89 87 110
3 87 86 110
3 110 86 97
3 91 88 111
3 111 88 89
3 111 89 110
3 93 90 112
3 112 90 91
3 112 91 113
3 113 91 111
3 98 92 114
3 114 92 93
3 114 93 115
3 115 93 112
3 116 98 114
3 117 103 118
3 96 94 119
3 94 103 119
3 119 103 117
3 97 95 120
3 120 95 96
3 120 96 119
3 121 110 97
3 121 97 122
3 122 97 120
3 123 119 117
3 124 98 116
3 99 109 125
3 99 125 126
3 101 99 126
3 100 102 127
3 100 127 107
3 101 126 128
3 102 101 128
3 102 128 127
3 104 106 129
3 104 129 103
3 103 129 118
3 105 108 130
3 106 105 130
3 106 130 129
3 107 127 131
3 108 107 131
3 108 131 132
3 108 132 130
3 109 134 125
3 125 134 133
3 113 111 135
3 111 110 135
3 135 110 121
3 115 112 136
3 136 112 113
3 136 113 135
3 116 114 137
3 137 114 115
3 137 115 138
3 138 115 136
3 139 124 116
3 139 116 140
3 140 116 137
3 141 135 121
3 118 129 142
3 118 142 143
3 117 118 143
3 123 117 143
3 122 120 144
3 120 119 144
3 144 119 123
3 141 121 145
3 145 121 122
3 145 122 144
3 146 141 145
3 147 144 123
3 147 123 148
3 143 148 123
3 150 124 139
3 149 150 139
3 131 127 151
3 125 133 152
3 126 125 152
3 126 152 153
3 128 126 153
3 128 153 154
3 128 154 127
3 127 154 151
3 152 133 155
3 130 132 156
3 130 156 129
3 129 156 142
3 131 151 157
3 132 131 157
3 132 157 156
3 156 158 142
3 157 151 159
3 133 160 155
3 134 161 133
3 133 161 160
3 138 136 162
3 136 135 162
3 162 135 141
3 140 137 163
3 163 137 138
3 163 138 162
3 149 139 164
3 164 139 140
3 164 140 165
3 165 140 163
3 166 149 164
3 167 162 141
3 167 141 146
3 142 158 168
3 143 142 168
3 143 168 148
3 146 145 169
3 145 144 169
3 169 144 147
3 170 167 146
3 170 146 169
3 171 169 147
3 171 147 148
3 171 148 172
3 168 172 148
3 173 149 166
3 174 150 149
3 173 174 149
3 154 175 151
3 151 175 159
3 152 155 176
3 153 152 176
3 153 176 177
3 153 177 154
3 154 177 175
3 155 160 178
3 155 178 179
3 176 155 179
3 156 157 180
3 156 180 158
3 157 159 181
3 157 181 180
3 158 180 182
3 158 182 168
3 159 175 183
3 159 183 181
3 175 184 183
3 160 186 178
3 178 186 185
3 161 187 160
3 160 187 186
3 165 163 188
3 163 162 188
3 188 162 167
3 166 164 189
3 189 164 165
3 189 165 188
3 190 173 166
3 190 166 191
3 191 166 189
3 192 188 167
3 192 167 170
3 193 192 170
3 182 194 168
3 194 172 168
3 193 170 195
3 170 169 195
3 195 169 171
3 196 195 171
3 196 171 172
3 194 197 172
3 197 198 172
3 198 196 172
3 200 173 190
3 199 200 190
3 201 174 173
3 200 201 173
3 176 179 202
3 177 176 202
3 177 202 175
3 175 202 184
3 178 185 203
3 178 203 179
3 179 203 202
3 203 185 204
3 202 205 184
3 183 206 181
3 180 181 206
3 180 206 182
3 182 206 194
3 183 184 207
3 205 207 184
3 183 207 206
3 185 208 204
3 186 209 185
3 185 209 208
3 187 210 186
3 186 210 209
3 191 189 211
3 189 188 211
3 211 188 192
3 199 190 212
3 212 190 191
3 212 191 211
3 213 199 212
3 214 211 192
3 214 192 193
3 215 214 193
3 215 193 195
3 206 216 194
3 216 197 194
3 216 217 197
3 215 195 218
3 218 195 196
3 198 218 196
3 217 219 197
3 219 218 198
3 197 219 198
3 220 199 213
3 221 200 199
3 220 221 199
3 222 201 200
3 221 222 200
3 203 204 223
3 203 223 202
3 202 223 205
3 204 208 224
3 204 224 223
3 205 223 225
3 205 225 207
3 207 225 226
3 207 226 206
3 226 216 206
3 208 228 224
3 224 228 227
3 209 229 208
3 229 228 208
3 210 230 209
3 209 230 229
3 213 212 231
3 212 211 231
3 231 211 214
3 232 220 213
3 232 213 231
3 233 231 214
3 233 214 215
3 234 233 215
3 234 215 218
3 226 235 216
3 235 217 216
3 235 236 217
3 217 236 219
3 237 234 218
3 237 218 219
3 236 238 219
3 238 237 219
3 240 220 232
3 239 240 232
3 241 221 220
3 240 241 220
3 242 222 221
3 241 242 221
3 224 227 243
3 224 243 223
3 223 243 225
3 225 243 244
3 225 244 226
3 226 244 235
3 227 245 243
3 228 246 227
3 227 246 245
3 229 247 228
3 228 247 246
3 230 248 229
3 229 248 247
3 239 232 249
3 232 231 249
3 249 231 233
3 250 249 233
3 250 233 234
3 237 250 234
3 244 251 235
3 235 251 236
3 251 252 236
3 236 252 238
3 252 253 238
3 253 250 237
3 253 237 238
3 254 239 249
3 255 240 239
3 254 255 239
3 256 241 240
3 255 256 240
3 257 242 241
3 256 257 241
3 245 258 243
3 243 258 244
3 244 258 251
3 245 259 258
3 246 260 245
3 245 260 259
3 247 261 246
3 246 261 260
3 248 262 247
3 247 262 261
3 254 249 263
3 263 249 250
3 253 263 250
3 258 264 251
3 251 264 252
3 264 265 252
3 265 263 253
3 252 265 253
3 266 254 263
3 267 255 254
3 266 267 254
3 268 256 255
3 267 268 255
3 269 257 256
3 268 269 256
3 259 270 258
3 270 264 258
3 260 271 259
3 259 271 270
3 261 272 260
3 260 272 271
3 262 273 261
3 273 272 261
3 270 274 264
3 275 266 263
3 275 263 265
3 274 276 264
3 276 265 264
3 276 277 265
3 277 275 265
3 278 267 266
3 275 278 266
3 279 268 267
3 278 279 267
3 280 269 268
3 279 280 268
3 271 281 270
3 270 281 274
3 272 282 271
3 271 282 281
3 273 283 272
3 272 283 282
3 281 284 274
3 274 284 276
3 285 278 275
3 277 285 275
3 284 286 276
3 286 285 277
3 276 286 277
3 287 279 278
3 285 287 278
3 288 280 279
3 287 288 279
3 282 289 281
3 281 289 284
3 283 290 282
3 282 290 289
3 289 291 284
3 284 291 286
3 291 292 286
3 292 287 285
3 286 292 285
3 293 288 287
3 292 293 287
3 290 294 289
3 289 294 291
3 294 295 291
3 295 293 292
3 291 295 292
CELL_TYPES 542
5
5
5
5
5
5
5
5
5
5
5
5
5
5
5
5
5
5
5
5
5
5
5
5
5
5
5
5
5
5
5
5
5
5
5
5
5
5
5
5
5
5
5
5
5
5
5
5
5
5
5
5
5
5
5
5
5
5
5
5
5
5
5
5
5
5
5
5
5
5
5
5
5
5
5
5
5
5
5
5
5
5
5
5
5
5
5
5
5
5
5
5
5
5
5
5
5
5
5
5
5
5
5
5
5
5
5
5
5
5
5
5
5
5
5
5
5
5
5
5
5
5
5
5
5
5
5
5
5
5
5
5
5
5
5
5
5
5
5
5
5
5
5
5
5
5
5
5
5
5
5
5
5
5
5
5
5
5
5
5
5
5
5
5
5
5
5
5
5
5
5
5
5
5
5
5
5
5
5
5
5
5
5
5
5
5
5
5
5
5
5
5
5
5
5
5
5
5
5
5
5
5
5
5
5
5
5
5
5
5
5
5
5
5
5
5
5
5
5
5
5
5
5
5
5
5
5
5
5
5
5
5
5
5
5
5
5
5
5
5
5
5
5
5
5
5
5
5
5
5
5
5
5
5
5
5
5
5
5
5
5
5
5
5
5
5
5
5
5
5
5
5
5
5
5
5
5
5
5
5
5
5
5
5
5
5
5
5
5
5
5
5
5
5
5
5
5
5
5
5
5
5
5
5
5
5
5
5
5
5
5
5
5
5
5
5
5
5
5
5
5
5
5
5
5
5
5
5
5
5
5
5
5
5
5
5
5
5
5
5
5
5
5
5
5
5
5
5
5
5
5
5
5
5
5
5
5
5
5
5
5
5
5
5
5
5
5
5
5
5
5
5
5
5
5
5
5
5
5
5
5
5
5
5
5
5
5
5
5
5
5
5
5
5
5
5
5
5
5
5
5
5
5
5
5
5
5
5
5
5
5
5
5
5
5
5
5
5
5
5
5
5
5
5
5
5
5
5
5
5
5
5
5
5
5
5
5
5
5
5
5
5
5
5
5
5
5
5
5
5
5
5
5
5
5
5
5
5
5
5
5
5
5
5
5
5
5
5
5
5
5
5
5
5
5
5
5
5
5
5
5
5
5
5
5
5
5
5
5
5
5
5
5
5
5
5
5
5
5
5
5
5
5
5
5
5
5
5
5
5
5
5
5
5
5
5
5
5
5
5
5
5
5
5
5
5
5
5
5
5
5
5
5
5
5
5
5
5
5
5
5
5
POINT_DATA 296
SCALARS concentrations float 4
LOOKUP_TABLE default
0 0.959978 0.134698 8.03521
0 0.959981 0.134735 7.25961
0 0.959992 0.141368 10.4851
0 0.959979 0.137463 10.2306
0 0.960025 0.0930345 -0.0854932
0 0.960013 0.14062 12.0186
0 0.960005 0.141633 10.1194
0 0.960016 0.0937739 0.0514004
0 0.960031 0.0931456 0.147932
0 0.960045 0.140557 8.56116
0 0.960035 0.140319 11.679
0 0.959994 0.141167 8.39954
0 0.959999 0.13647 12.8448
0 0.960019 0.0923813 -0.0469226
0 0.960016 0.0925654 0.085279
0 0.960072 0.0934002 -0.0395148
0 0.960079 0.0947271 -0.35705
0 0.96003 0.0938645 0.152736
0 0.960038 0.0929403 0.33789
0 0.960074 0.0932175 -0.181643
0 0.960066 0.092995 -0.42701
0 0.959978 0.14205 8.32516
0 0.959924 0.139615 14.0806
0 0.960053 0.0927024 0.0827873
0 0.960031 0.0930531 0.474492
0 0.960013 0.0929164 -0.260729
0 0.960039 0.137365 9.04233
0 0.960028 0.0933472 -0.357971
0 0.960065 0.136908 10.3354
0 0.960063 0.092966 0.177141
0 0.960054 0.0928983 -0.2191
0 0.960077 0.0926469 0.104175
0 0.960013 0.141144 10.3501
0 0.960087 0.0934097 0.500873
0 0.96009 0.0959941 -1.08582
0 0.960062 0.0928823 -0.62685
0 0.960064 0.0929384 0.61543
0 0.960071 0.0945612 -0.613488
0 0.960068 0.0930176 -0.62319
0 0.959979 0.0934142 0.657789
0 0.959993 0.0930181 0.583786
0 0.960064 0.0933787 -0.969649
0 0.960054 0.0936389 0.792521
0 0.960106 0.138423 2.36742
0 0.960047 0.0934269 -0.200412
0 0.96005 0.0938241 0.207508
0 0.960048 0.0965144 -0.646054
0 0.960097 0.138539 6.29387
0 0.960078 0.0933104 -0.324911
0 0.960066 0.140142 6.16134
0 0.960074 0.092758 0.0775662
0 0.960071 0.0929156 -0.00967098
0 0.960077 0.0931109 0.330605
0 0.960068 0.0925186 0.29693
0 0.960119 0.0928523 0.0689988
0 0.960076 0.0937679 -0.329475
0 0.960075 0.0931431 -0.772904
0 0.960073 0.0933679 -0.719325
0 0.960068 0.093559 0.601335
0 0.960046 0.0936767 -0.57493
0 0.960062 0.0931862 0.623969
0 0.960073 0.0952307 1.49281
0 0.960075 0.0942372 -0.0200797
0 0.960144 0.140183 7.63659
0 0.96007 0.0931201 -0.00627638
0 0.96006 0.0996867 1.44869
0 0.960065 0.0964632 0.119412
0 0.960086 0.0930244 0.113968
0 0.96008 0.0941998 0.172909
0 0.96006 0.13684 4.48817
0 0.960065 0.0930432 0.405964
0 0.960103 0.138464 7.91556
0 0.960072 0.0943946 0.000618935
0 0.960076 0.0936546 -0.612313
0 0.960074 0.0939598 -0.723404
0 0.960083 0.0929062 -0.429179
0 0.960119 0.092939 0.372207
0 0.960093 0.0927807 0.14854
0 0.96007 0.0941741 0.116533
0 0.960073 0.0967828 -1.66784
0 0.960071 0.0937939 -0.802175
0 0.960066 0.0941036 -0.273386
0 0.960076 0.0933376 -0.469658
0 0.960077 0.0930295 -0.466826
0 0.960074 0.0942282 1.42578
0 0.960124 0.137299 1.81283
0 0.960081 0.0934477 -0.166144
0 0.96008 0.0950308 0.304038
0 0.960083 0.0936273 0.099328
0 0.960083 0.0942966 -0.126988
0 0.960081 0.0932394 -0.537634
0 0.96008 0.0937209 0.529166
0 0.960072 0.13738 6.72493
0 0.960085 0.093606 0.263897
0 0.960069 0.0955895 -0.0635594
0 0.960078 0.0942528 -0.444023
0 0.960067 0.094861 -0.329564
0 0.96008 0.094604 0.162849
0 0.960086 0.138733 6.7492
0 0.96011 0.0933928 0.197249
0 0.960081 0.0929142 -0.291574
0 0.960092 0.0932078 0.475197
0 0.96008 0.0928538 -0.0505788
0 0.960088 0.0954521 -0.613301
0 0.960082 0.0956545 0.125943
0 0.960062 0.0938803 0.733523
0 0.960067 0.094164 0.519639
0 0.960076 0.0939208 0.670896
0 0.960067 0.0939037 1.29214
0 0.960148 0.138457 4.7107
0 0.960076 0.0939632 0.113962
0 0.960077 0.0939822 -0.00326596
0 0.960079 0.0947633 0.236375
0 0.96008 0.0946469 0.166622
0 0.960074 0.0934347 0.339722
0 0.960085 0.0961872 1.54829
0 0.960095 0.094309 0.0490475
0 0.960106 0.0953145 -0.137931
0 0.960091 0.0939542 -0.0536175
0 0.960089 0.0966623 -1.04651
0 0.960075 0.0939631 0.20552
0 0.960075 0.0946108 -0.0918801
0 0.960083 0.09581 0.730462
0 0.960108 0.0943678 0.179479
0 0.960097 0.138423 3.97878
0 0.960136 0.0936874 0.859136
0 0.960083 0.0935858 0.360222
0 0.960075 0.0928404 -0.353448
0 0.960077 0.0934643 -0.349548
0 0.960076 0.0955604 -0.839318
0 0.960061 0.0939565 -1.04161
0 0.960072 0.0936931 0.930376
0 0.960072 0.094256 1.02625
0 0.96015 0.0936623 -0.000349911
0 0.960192 0.135326 3.34408
0 0.960072 0.0941142 -0.213537
0 0.960084 0.0943063 -0.101415
0 0.960085 0.0945495 -0.841294
0 0.960085 0.094341 -0.788169
0 0.960088 0.0928786 0.597082
0 0.960094 0.09348 0.736831
0 0.960077 0.0947725 -0.0407682
0 0.960095 0.0942388 0.0351041
0 0.960107 0.0939641 0.10908
0 0.960098 0.0951714 0.194723
0 0.960094 0.0952838 0.793568
0 0.960095 0.0934812 -0.0385829
0 0.960103 0.0967496 0.750081
0 0.960109 0.0938761 0.454551
0 0.960074 0.0929807 -0.954671
0 0.960063 0.14008 12.107
0 0.960081 0.0936143 0.416294
0 0.960085 0.0941054 1.33751
0 0.960073 0.0930738 0.72319
0 0.960077 0.0931475 0.0113537
0 0.960078 0.0939552 -1.04949
0 0.960077 0.0945354 0.67132
0 0.960081 0.0947912 0.646825
0 0.960101 0.0967215 0.663568
0 0.960083 0.0949554 0.503951
0 0.96013 0.0933749 0.8458
0 0.960188 0.13891 0.22819
0 0.960079 0.0935812 0.542409
0 0.960089 0.0943091 0.320289
0 0.960093 0.0933773 0.738299
0 0.960097 0.0947868 0.104939
0 0.960095 0.0934124 -0.207604
0 0.960085 0.0942722 0.291118
0 0.960114 0.0956429 -0.340465
0 0.960098 0.100258 -2.0365
0 0.960098 0.0962722 0.513735
0 0.960093 0.0944591 0.344577
0 0.960101 0.0958413 0.0779427
0 0.960089 0.0935015 -1.13153
0 0.960056 0.136404 1.41391
0 0.960077 0.0952389 -0.622231
0 0.960071 0.0941436 0.475149
0 0.960072 0.0938782 0.344235
0 0.960068 0.0937815 1.39264
0 0.960067 0.0943828 1.67254
0 0.960094 0.095573 -1.6618
0 0.960085 0.0954922 0.53282
0 0.960112 0.0946043 0.370077
0 0.960064 0.0953403 0.537134
0 0.960052 0.0946701 0.310205
0 0.960062 0.0943959 1.7108
0 0.960089 0.0936534 0.839241
0 0.960152 0.138492 8.39982
0 0.960087 0.0940152 0.529821
0 0.960082 0.0936836 1.05482
0 0.960103 0.0941667 -1.20405
0 0.960079 0.0940872 1.31817
0 0.960096 0.0947745 -0.178879
0 0.960116 0.0940262 -0.338526
0 0.96011 0.0962274 1.14323
0 0.960092 0.0997085 0.194455
0 0.960092 0.0980449 1.76925
0 0.960098 0.097142 1.29477
0 0.960103 0.0984667 2.59796
0 0.960097 0.0939188 1.21054
0 0.96011 0.093756 -1.2053
0 0.960092 0.137029 2.9096
0 0.960072 0.0944201 1.19282
0 0.960077 0.0937455 0.0672933
0 0.960084 0.0956122 0.923937
0 0.960072 0.0954193 -0.715387
0 0.960098 0.0942593 -0.085259
0 0.960067 0.0953064 -0.280934
0 0.960065 0.0955734 0.0467977
0 0.960044 0.094056 -0.11469
0 0.960076 0.137113 6.38214
0 0.960084 0.0955196 0.877913
0 0.960082 0.0954265 0.76754
0 0.960079 0.0950181 1.09502
0 0.960103 0.0956584 0.865889
0 0.96011 0.0954358 -0.197623
0 0.960099 0.0955187 -0.0271004
0 0.960093 0.0952982 -0.36991
0 0.9601 0.0976621 -0.482094
0 0.960096 0.0982601 2.12731
0 0.960089 0.0941615 0.0490702
0 0.96011 0.093495 0.717603
0 0.960125 0.137518 7.34185
0 0.960083 0.0962484 0.289325
0 0.960079 0.0965206 3.22888
0 0.960069 0.095295 -2.40741
0 0.96008 0.095653 -0.544496
0 0.960094 0.0979855 -2.90628
0 0.96008 0.095824 -0.516452
0 0.960067 0.0950771 -2.02559
0 0.960042 0.138912 10.4334
0 0.96008 0.0955007 -1.45439
0 0.960066 0.0947462 1.12075
0 0.960091 0.0973131 -1.06655
0 0.960094 0.100908 1.94883
0 0.960072 0.0943625 0.251118
0 0.960076 0.0958717 -2.48306
0 0.960089 0.0964521 0.363354
0 0.960084 0.101558 0.14346
0 0.960067 0.0947705 0.72289
0 0.960085 0.0938705 -0.217748
0 0.960118 0.0938993 -1.17882
0 0.96012 0.13766 3.31241
0 0.960086 0.0978957 3.19818
0 0.960069 0.0946047 1.06234
0 0.96013 0.0959545 2.06251
0 0.96011 0.0964536 -0.946785
0 0.960109 0.0944866 -0.864047
0 0.960101 0.140315 3.91693
0 0.960067 0.0956107 1.13713
0 0.960074 0.0955924 0.989363
0 0.960068 0.0956465 -0.956408
0 0.960059 0.0959872 -0.115489
0 0.960064 0.0972128 -2.39456
0 0.96007 0.0947709 -0.594466
0 0.960097 0.0942542 -0.791599
0 0.960131 0.0932454 0.0117735
0 0.960151 0.136716 6.13495
0 0.960097 0.0972474 1.27516
0 0.960119 0.0967642 -2.57066
0 0.96012 0.096132 2.23487
0 0.960131 0.0947168 0.524245
0 0.960129 0.139138 4.2148
0 0.960055 0.0945999 -0.785006
0 0.960078 0.0959688 0.573106
0 0.96005 0.0958035 -0.802437
0 0.96006 0.0951298 2.42337
0 0.960087 0.0945707 1.42763
0 0.960143 0.0941801 -0.485384
0 0.960155 0.140064 6.47937
0 0.960095 0.0968826 -0.464641
0 0.960101 0.0958967 2.69176
0 0.960099 0.094438 0.645255
0 0.960137 0.135583 3.24543
0 0.960102 0.0960482 1.90913
0 0.960045 0.0960885 2.31573
0 0.960075 0.0960652 2.76463
0 0.960043 0.0964692 3.39198
0 0.960066 0.0943972 0.464189
0 0.960153 0.0942778 0.162131
0 0.960194 0.138617 1.46302
0 0.960106 0.0958119 2.2954
0 0.960071 0.0950923 -2.32845
0 0.960058 0.138308 3.73963
0 0.960094 0.0949558 0.855016
0 0.960046 0.0967768 -2.52431
0 0.960062 0.0961372 3.06576
0 0.960102 0.0935263 1.11725
0 0.960171 0.134341 2.16161
0 0.960078 0.0949573 -2.32945
0 0.960058 0.137249 3.36457
0 0.960071 0.0955438 -1.07928
0 0.960065 0.0950003 2.60677
0 0.960092 0.135685 7.84301
0 0.960055 0.139642 5.3967
0 0.960066 0.135592 10.1193
VECTORS fa_u float
0.00708 0.00284455 -0
0.00648362 0.00372807 -0
0.00334992 0.000909765 -0
0.00709357 0.00107442 -0
1e-08 0 0
0.00519799 0.00400363 -0
0.00285471 0.00277766 -0
1e-08 0 0
1e-08 0 0
0.00445152 0.00549118 -0
0.00489729 0.00826484 -0
0.00657738 0.000114779 -0
0.00625198 -0.00069733 0
1e-08 0 0
1e-08 0 0
1e-08 0 0
1e-08 0 0
1e-08 0 0
1e-08 0 0
1e-08 0 0
1e-08 0 0
0.00289069 0.0071108 -0
0.00160266 0.00624821 -0
1e-08 0 0
1e-08 0 0
1e-08 0 0
0.00848947 -0.00216402 0
1e-08 0 0
0.0101133 -0.00439043 0
1e-08 0 0
1e-08 0 0
1e-08 0 0
0.0008528 0.00715898 -0
1e-08 0 0
1e-08 0 0
1e-08 0 0
1e-08 0 0
1e-08 0 0
1e-08 0 0
1e-08 0 0
1e-08 0 0
1e-08 0 0
1e-08 0 0
-0.000143854 0.00751076 -0
1e-08 0 0
1e-08 0 0
1e-08 0 0
0.00568505 -0.00356467 0
1e-08 0 0
0.00301263 -0.00241229 0
1e-08 0 0
1e-08 0 0
1e-08 0 0
1e-08 0 0
1e-08 0 0
1e-08 0 0
1e-08 0 0
1e-08 0 0
1e-08 0 0
1e-08 0 0
1e-08 0 0
1e-08 0 0
1e-08 0 0
-0.000622862 0.00435718 0
1e-08 0 0
1e-08 0 0
1e-08 0 0
1e-08 0 0
1e-08 0 0
0.00342069 -0.00338981 0
1e-08 0 0
0.00296499 -0.00366998 0
1e-08 0 0
1e-08 0 0
1e-08 0 0
1e-08 0 0
1e-08 0 0
1e-08 0 0
1e-08 0 0
1e-08 0 0
1e-08 0 0
1e-08 0 0
1e-08 0 0
1e-08 0 0
1e-08 0 0
-0.0014442 0.00553267 0
1e-08 0 0
1e-08 0 0
1e-08 0 0
1e-08 0 0
1e-08 0 0
1e-08 0 0
0.00527263 -0.00872402 0
1e-08 0 0
1e-08 0 0
1e-08 0 0
1e-08 0 0
1e-08 0 0
0.00346241 -0.0085345 0
1e-08 0 0
1e-08 0 0
1e-08 0 0
1e-08 0 0
1e-08 0 0
1e-08 0 0
1e-08 0 0
1e-08 0 0
1e-08 0 0
1e-08 0 0
-0.00281607 0.00694517 0
1e-08 0 0
1e-08 0 0
1e-08 0 0
1e-08 0 0
1e-08 0 0
1e-08 0 0
1e-08 0 0
1e-08 0 0
1e-08 0 0
1e-08 0 0
1e-08 0 0
1e-08 0 0
1e-08 0 0
1e-08 0 0
0.00140245 -0.00554177 0
1e-08 0 0
1e-08 0 0
1e-08 0 0
1e-08 0 0
1e-08 0 0
1e-08 0 0
1e-08 0 0
1e-08 0 0
1e-08 0 0
-0.00366428 0.0063487 0
1e-08 0 0
1e-08 0 0
1e-08 0 0
1e-08 0 0
1e-08 0 0
1e-08 0 0
1e-08 0 0
1e-08 0 0
1e-08 0 0
1e-08 0 0
1e-08 0 0
1e-08 0 0
1e-08 0 0
1e-08 0 0
1e-08 0 0
0.000567606 -0.00416711 0
1e-08 0 0
1e-08 0 0
1e-08 0 0
1e-08 0 0
1e-08 0 0
1e-08 0 0
1e-08 0 0
1e-08 0 0
1e-08 0 0
1e-08 0 0
-0.0045382 0.00583424 0
1e-08 0 0
1e-08 0 0
1e-08 0 0
1e-08 0 0
1e-08 0 0
1e-08 0 0
1e-08 0 0
1e-08 0 0
1e-08 0 0
1e-08 0 0
1e-08 0 0
1e-08 0 0
9.91425e-05 -0.00758237 0
1e-08 0 0
1e-08 0 0
1e-08 0 0
1e-08 0 0
1e-08 0 0
1e-08 0 0
1e-08 0 0
1e-08 0 0
1e-08 0 0
1e-08 0 0
1e-08 0 0
1e-08 0 0
-0.00254214 0.00257922 0
1e-08 0 0
1e-08 0 0
1e-08 0 0
1e-08 0 0
1e-08 0 0
1e-08 0 0
1e-08 0 0
1e-08 0 0
1e-08 0 0
1e-08 0 0
1e-08 0 0
1e-08 0 0
1e-08 0 0
-0.000864793 -0.00693732 0
1e-08 0 0
1e-08 0 0
1e-08 0 0
1e-08 0 0
1e-08 0 0
1e-08 0 0
1e-08 0 0
1e-08 0 0
-0.00491519 0.00398128 0
1e-08 0 0
1e-08 0 0
1e-08 0 0
1e-08 0 0
1e-08 0 0
1e-08 0 0
1e-08 0 0
1e-08 0 0
1e-08 0 0
1e-08 0 0
1e-08 0 0
-0.00159702 -0.00612175 0
1e-08 0 0
1e-08 0 0
1e-08 0 0
1e-08 0 0
1e-08 0 0
1e-08 0 0
1e-08 0 0
-0.0081221 0.00485484 0
1e-08 0 0
1e-08 0 0
1e-08 0 0
1e-08 0 0
1e-08 0 0
1e-08 0 0
1e-08 0 0
1e-08 0 0
1e-08 0 0
1e-08 0 0
1e-08 0 0
-0.0029694 -0.0072223 0
1e-08 0 0
1e-08 0 0
1e-08 0 0
1e-08 0 0
1e-08 0 0
-0.00732456 0.00300514 0
1e-08 0 0
1e-08 0 0
1e-08 0 0
1e-08 0 0
1e-08 0 0
1e-08 0 0
1e-08 0 0
1e-08 0 0
-0.00471619 -0.00790686 0
1e-08 0 0
1e-08 0 0
1e-08 0 0
1e-08 0 0
-0.00620997 0.0016087 0
1e-08 0 0
1e-08 0 0
1e-08 0 0
1e-08 0 0
1e-08 0 0
1e-08 0 0
-0.00365264 -0.00455127 0
1e-08 0 0
1e-08 0 0
1e-08 0 0
-0.00707918 0.000863116 0
1e-08 0 0
1e-08 0 0
1e-08 0 0
1e-08 0 0
1e-08 0 0
1e-08 0 0
-0.00294709 -0.00292599 0
1e-08 0 0
1e-08 0 0
-0.00810764 -0.000150576 0
1e-08 0 0
1e-08 0 0
1e-08 0 0
1e-08 0 0
-0.00577126 -0.00449512 0
1e-08 0 0
-0.00401567 -0.000575033 0
1e-08 0 0
1e-08 0 0
-0.00658261 -0.00379696 0
-0.00559327 -0.00145062 0
-0.00692358 -0.0027965 0
