# vtk DataFile Version 2.0
CellBP Time: 11.76
ASCII
DATASET UNSTRUCTURED_GRID
POINTS 296 double
-8.91688 -3.65018 0
-8.36089 -4.79971 0
-9.30473 -2.43087 0
-9.58336 -1.20728 0
-8.07416 -2.70213 0
-7.64585 -5.86234 0
-6.79999 -6.82454 0
-7.63682 -3.72019 0
-7.07756 -4.69341 0
-5.87941 -7.69115 0
-4.85669 -8.42397 0
-9.69378 0.0378332 0
-9.63978 1.31075 0
-8.39553 -1.61643 0
-8.5536 -0.502315 0
-7.32476 -1.90849 0
-6.95137 -2.77073 0
-6.42475 -5.60715 0
-5.6594 -6.42561 0
-6.52405 -3.73053 0
-5.99168 -4.51429 0
-3.70984 -8.98618 0
-2.4834 -9.38412 0
-4.78875 -7.14332 0
-3.84243 -7.73013 0
-8.56972 0.628105 0
-9.42215 2.58625 0
-8.42712 1.72622 0
-9.01403 3.79959 0
-7.49981 -0.878693 0
-7.56915 0.0899905 0
-6.7178 -1.24884 0
-1.21327 -9.61964 0
-6.2275 -2.06084 0
-6.09223 -2.93108 0
-5.35513 -5.31448 0
-4.66009 -5.96136 0
-5.45992 -3.62312 0
-5.07757 -4.41921 0
-2.81498 -8.18793 0
-1.74331 -8.44641 0
-3.83391 -6.57649 0
-3.00877 -7.00912 0
0.0559267 -9.67809 0
-7.49801 1.11299 0
-8.17881 2.85439 0
-7.36149 2.04564 0
-8.39835 4.91517 0
-7.68882 3.87352 0
-7.63827 5.94644 0
-6.56887 -0.36683 0
-6.75027 0.549756 0
-5.60853 -0.966807 0
-0.580786 -8.59236 0
0.542726 -8.52194 0
-5.14585 -2.39465 0
-4.33346 -4.95125 0
-3.78686 -5.63183 0
-4.30609 -3.69875 0
-2.02298 -7.3992 0
-1.11282 -7.60835 0
-2.92431 -5.96324 0
-2.26738 -6.47971 0
1.30679 -9.5587 0
-6.50575 1.38082 0
-6.97707 3.02049 0
-6.48337 2.30116 0
-7.09254 4.84134 0
-6.53228 3.87909 0
-6.7981 6.89073 0
-6.37939 5.71353 0
-5.85782 7.7471 0
-4.3684 -1.16464 0
-5.67068 0.490214 0
-4.56651 -0.0273276 0
-0.00582923 -7.63799 0
1.67995 -8.37233 0
0.899812 -7.52825 0
-3.95334 -2.35012 0
-3.45162 -1.37902 0
-3.21121 -4.69481 0
-3.21209 -3.20169 0
-1.36343 -6.51534 0
-0.520172 -6.84261 0
-1.94468 -5.42373 0
2.55327 -9.31317 0
-5.37093 1.98797 0
-5.93168 2.9755 0
-5.93304 4.71424 0
-5.5994 3.85751 0
-5.58642 6.50783 0
-5.29515 5.43812 0
-4.83428 8.50031 0
-4.69398 7.17254 0
-3.45608 -0.419092 0
-4.3553 1.22258 0
-3.64545 0.583547 0
-3.97482 2.2921 0
-3.69985 9.06694 0
2.74924 -8.04003 0
0.37095 -6.58594 0
1.92748 -7.26779 0
1.23056 -6.67862 0
-2.42231 -0.860565 0
-2.80952 -2.10304 0
-2.26151 -4.01709 0
-2.29603 -2.92301 0
-0.4508 -5.71128 0
-1.19972 -4.41521 0
3.76239 -8.92283 0
-4.66422 3.2977 0
-4.94314 4.44412 0
-4.51024 6.073 0
-4.40872 5.18588 0
-3.74403 7.77342 0
-3.70065 6.6145 0
-2.7051 8.17653 0
-1.63336 -0.123195 0
-1.43305 -0.870951 0
-2.46827 0.518526 0
-3.19841 1.43366 0
-3.16866 3.2574 0
-2.86152 2.3578 0
-1.34775 0.637259 0
-2.4813 9.45023 0
3.78465 -7.61073 0
2.82879 -6.88084 0
0.894316 -5.64614 0
1.97232 -6.18409 0
-1.66066 -1.97246 0
-1.41357 -3.22902 0
0.0776716 -4.63867 0
-0.552136 -3.63499 0
4.76367 -7.05562 0
4.90238 -8.36676 0
-3.67942 4.42633 0
-3.62913 5.57554 0
-2.79051 7.05431 0
-2.91987 6.15485 0
-1.61724 8.49783 0
-1.87635 7.39785 0
-2.29635 3.97099 0
-0.71994 -1.31308 0
-0.828535 -0.242791 0
-1.92909 1.69437 0
-2.10061 2.85333 0
-1.29767 3.50317 0
-0.872212 1.36106 0
-0.285178 0.4655 0
-0.521154 8.64786 0
-1.22266 9.68392 0
1.06612 -4.44807 0
3.73887 -6.43279 0
2.85876 -5.85815 0
2.02799 -5.23851 0
4.61479 -5.95613 0
-0.546705 -2.45275 0
0.488774 -3.40567 0
0.0608644 -1.59976 0
1.44169 -3.58882 0
5.68358 -6.38277 0
5.96235 -7.65303 0
-2.41134 5.20407 0
-2.05705 6.33888 0
-0.869836 7.6009 0
-1.21787 6.73624 0
0.093295 7.69632 0
-1.12487 4.41137 0
0.148151 -0.611654 0
-0.810514 2.49513 0
-0.346357 3.57114 0
0.0513741 1.5167 0
0.729814 0.473688 0
0.629349 8.67814 0
0.041127 9.79526 0
2.29919 -4.15047 0
3.71516 -5.41748 0
2.89184 -5.02185 0
5.41219 -5.29781 0
4.53698 -5.06919 0
0.633772 -2.2808 0
1.23822 -2.90175 0
0.760228 -1.38805 0
2.11468 -3.06161 0
2.91637 -3.37508 0
5.998 -4.64018 0
6.4786 -5.59519 0
6.91537 -6.79631 0
-0.987318 5.67583 0
-0.342359 6.70833 0
1.10129 7.60655 0
0.563638 6.91662 0
-0.00304262 4.64866 0
0.5915 3.7798 0
1.33117 -0.641154 0
0.521341 2.63656 0
0.949002 1.57759 0
1.88962 0.20671 0
1.59599 1.06076 0
2.09463 7.43252 0
1.76714 8.53094 0
1.32036 9.7255 0
3.71058 -4.19582 0
4.97222 -4.27575 0
5.70457 -3.80362 0
3.69731 -3.10412 0
1.79561 -1.87554 0
2.96396 -2.52189 0
6.63159 -3.83709 0
7.20832 -4.76972 0
7.78014 -5.86822 0
0.479876 5.75705 0
1.40874 6.60128 0
2.33645 6.54054 0
1.18682 4.48507 0
1.46055 3.35126 0
2.40475 -0.690261 0
2.78842 0.13835 0
1.7647 2.14948 0
2.58711 1.13909 0
3.02066 7.03294 0
2.85654 8.20828 0
2.58647 9.48247 0
4.79654 -3.21768 0
5.98875 -3.0211 0
4.0925 -2.22567 0
3.19436 -1.48777 0
6.6049 -2.27162 0
7.09221 -2.97896 0
7.80876 -3.83724 0
8.51767 -4.84732 0
1.99317 5.49518 0
3.00512 6.02381 0
2.33134 4.05875 0
2.38843 3.01632 0
3.47469 -0.452275 0
3.56538 0.614155 0
2.92404 2.25596 0
3.4824 1.50322 0
3.89317 5.75903 0
3.88998 6.64709 0
3.90403 7.77949 0
3.80935 9.08124 0
5.46718 -1.87804 0
4.4346 -1.10561 0
6.58221 -1.30926 0
7.44352 -1.99677 0
8.22729 -2.80935 0
9.08456 -3.70567 0
3.31857 4.76548 0
3.26344 3.31313 0
4.60696 0.133312 0
4.41408 1.27687 0
3.95895 2.38096 0
4.4111 5.01148 0
4.70137 6.04147 0
4.86373 7.21175 0
4.95035 8.51265 0
5.75322 -0.435503 0
6.84906 -0.487315 0
7.60089 -1.05683 0
8.50244 -1.70501 0
9.48471 -2.48074 0
4.40555 3.71982 0
5.65565 1.05034 0
5.19862 2.4489 0
5.18129 4.47488 0
5.42294 5.37 0
5.73717 6.49512 0
5.97266 7.78004 0
6.66132 0.425897 0
7.66596 -0.0312481 0
8.66044 -0.558109 0
9.72458 -1.21193 0
6.75152 1.28393 0
5.50953 3.64986 0
6.32119 2.09765 0
6.14522 2.96425 0
6.05693 4.53057 0
6.47746 5.66227 0
6.90728 6.92312 0
7.57089 0.927579 0
8.62606 0.560295 0
9.78736 0.0633326 0
7.37938 1.92199 0
6.55603 3.74781 0
7.00705 2.82446 0
7.13691 4.7285 0
7.76414 5.97194 0
8.4697 1.67325 0
9.66533 1.31447 0
8.13548 2.73684 0
7.71978 3.78619 0
8.47857 4.91429 0
9.4216 2.56259 0
9.03312 3.77226 0
CELLS 542 2168
3 2 0 4
3 0 1 7
3 4 0 7
3 1 5 8
3 7 1 8
3 3 2 13
3 13 2 4
3 11 3 14
3 14 3 13
3 13 4 15
3 4 7 16
3 15 4 16
3 5 6 17
3 8 5 17
3 6 9 18
3 17 6 18
3 7 8 19
3 16 7 19
3 8 17 20
3 19 8 20
3 9 10 23
3 18 9 23
3 10 21 24
3 23 10 24
3 12 11 25
3 25 11 14
3 26 12 27
3 27 12 25
3 14 13 29
3 29 13 15
3 25 14 30
3 30 14 29
3 29 15 31
3 15 16 33
3 31 15 33
3 16 19 34
3 33 16 34
3 17 18 35
3 20 17 35
3 18 23 36
3 35 18 36
3 19 20 37
3 34 19 37
3 20 35 38
3 37 20 38
3 21 22 39
3 24 21 39
3 22 32 40
3 39 22 40
3 23 24 41
3 36 23 41
3 24 39 42
3 41 24 42
3 27 25 44
3 44 25 30
3 28 26 45
3 45 26 27
3 45 27 46
3 46 27 44
3 47 28 48
3 48 28 45
3 30 29 50
3 50 29 31
3 44 30 51
3 51 30 50
3 50 31 52
3 31 33 52
3 32 43 53
3 40 32 53
3 53 43 54
3 33 34 55
3 34 37 55
3 33 55 52
3 35 36 56
3 38 35 56
3 36 41 57
3 56 36 57
3 37 38 58
3 38 56 58
3 37 58 55
3 39 40 59
3 42 39 59
3 40 53 60
3 59 40 60
3 41 42 61
3 57 41 61
3 42 59 62
3 61 42 62
3 43 63 54
3 46 44 64
3 64 44 51
3 48 45 65
3 65 45 46
3 65 46 66
3 66 46 64
3 49 47 67
3 67 47 48
3 67 48 68
3 68 48 65
3 69 49 70
3 70 49 67
3 52 55 72
3 64 51 73
3 51 50 73
3 50 52 73
3 73 52 74
3 74 52 72
3 53 54 75
3 60 53 75
3 54 63 76
3 54 76 77
3 75 54 77
3 55 58 78
3 72 55 78
3 72 78 79
3 56 57 80
3 57 61 80
3 56 80 58
3 58 80 81
3 78 58 81
3 59 60 82
3 62 59 82
3 60 75 83
3 82 60 83
3 61 62 84
3 62 82 84
3 61 84 80
3 63 85 76
3 66 64 86
3 64 73 86
3 68 65 87
3 87 65 66
3 87 66 86
3 70 67 88
3 88 67 68
3 88 68 89
3 89 68 87
3 71 69 90
3 90 69 70
3 90 70 91
3 91 70 88
3 92 71 93
3 93 71 90
3 74 72 94
3 94 72 79
3 86 73 95
3 95 73 74
3 95 74 96
3 96 74 94
3 97 86 95
3 76 85 99
3 75 77 100
3 83 75 100
3 76 99 101
3 77 76 101
3 77 101 102
3 100 77 102
3 94 79 103
3 78 81 104
3 79 78 104
3 79 104 103
3 80 84 105
3 81 80 105
3 81 105 106
3 104 81 106
3 82 83 107
3 83 100 107
3 82 107 84
3 84 107 108
3 105 84 108
3 85 109 99
3 89 87 110
3 87 86 110
3 110 86 97
3 91 88 111
3 111 88 89
3 111 89 110
3 93 90 112
3 112 90 91
3 112 91 113
3 113 91 111
3 98 92 114
3 114 92 93
3 114 93 115
3 115 93 112
3 116 98 114
3 117 103 118
3 96 94 119
3 94 103 119
3 119 103 117
3 97 95 120
3 120 95 96
3 120 96 119
3 121 110 97
3 121 97 122
3 122 97 120
3 123 119 117
3 124 98 116
3 99 109 125
3 99 125 126
3 101 99 126
3 100 102 127
3 100 127 107
3 101 126 128
3 102 101 128
3 102 128 127
3 104 106 129
3 104 129 103
3 103 129 118
3 105 108 130
3 106 105 130
3 106 130 129
3 107 127 131
3 108 107 131
3 108 131 132
3 108 132 130
3 109 134 125
3 125 134 133
3 113 111 135
3 111 110 135
3 135 110 121
3 115 112 136
3 136 112 113
3 136 113 135
3 116 114 137
3 137 114 115
3 137 115 138
3 138 115 136
3 139 124 116
3 139 116 140
3 140 116 137
3 141 135 121
3 118 129 142
3 118 142 143
3 117 118 143
3 123 117 143
3 122 120 144
3 120 119 144
3 144 119 123
3 141 121 145
3 145 121 122
3 145 122 144
3 146 141 145
3 147 144 123
3 147 123 148
3 143 148 123
3 150 124 139
3 149 150 139
3 131 127 151
3 125 133 152
3 126 125 152
3 126 152 153
3 128 126 153
3 128 153 154
3 128 154 127
3 127 154 151
3 152 133 155
3 130 132 156
3 130 156 129
3 129 156 142
3 131 151 157
3 132 131 157
3 132 157 156
3 156 158 142
3 157 151 159
3 133 160 155
3 134 161 133
3 133 161 160
3 138 136 162
3 136 135 162
3 162 135 141
3 140 137 163
3 163 137 138
3 163 138 162
3 149 139 164
3 164 139 140
3 164 140 165
3 165 140 163
3 166 149 164
3 167 162 141
3 167 141 146
3 142 158 168
3 143 142 168
3 143 168 148
3 146 145 169
3 145 144 169
3 169 144 147
3 170 167 146
3 170 146 169
3 171 169 147
3 171 147 148
3 171 148 172
3 168 172 148
3 173 149 166
3 174 150 149
3 173 174 149
3 154 175 151
3 151 175 159
3 152 155 176
3 153 152 176
3 153 176 177
3 153 177 154
3 154 177 175
3 155 160 178
3 155 178 179
3 176 155 179
3 156 157 180
3 156 180 158
3 157 159 181
3 157 181 180
3 158 180 182
3 158 182 168
3 159 175 183
3 159 183 181
3 175 184 183
3 160 186 178
3 178 186 185
3 161 187 160
3 160 187 186
3 165 163 188
3 163 162 188
3 188 162 167
3 166 164 189
3 189 164 165
3 189 165 188
3 190 173 166
3 190 166 191
3 191 166 189
3 192 188 167
3 192 167 170
3 193 192 170
3 182 194 168
3 194 172 168
3 193 170 195
3 170 169 195
3 195 169 171
3 196 195 171
3 196 171 172
3 194 197 172
3 197 198 172
3 198 196 172
3 200 173 190
3 199 200 190
3 201 174 173
3 200 201 173
3 176 179 202
3 177 176 202
3 177 202 175
3 175 202 184
3 178 185 203
3 178 203 179
3 179 203 202
3 203 185 204
3 202 205 184
3 183 206 181
3 180 181 206
3 180 206 182
3 182 206 194
3 183 184 207
3 205 207 184
3 183 207 206
3 185 208 204
3 186 209 185
3 185 209 208
3 187 210 186
3 186 210 209
3 191 189 211
3 189 188 211
3 211 188 192
3 199 190 212
3 212 190 191
3 212 191 211
3 213 199 212
3 214 211 192
3 214 192 193
3 215 214 193
3 215 193 195
3 206 216 194
3 216 197 194
3 216 217 197
3 215 195 218
3 218 195 196
3 198 218 196
3 217 219 197
3 219 218 198
3 197 219 198
3 220 199 213
3 221 200 199
3 220 221 199
3 222 201 200
3 221 222 200
3 203 204 223
3 203 223 202
3 202 223 205
3 204 208 224
3 204 224 223
3 205 223 225
3 205 225 207
3 207 225 226
3 207 226 206
3 226 216 206
3 208 228 224
3 224 228 227
3 209 229 208
3 229 228 208
3 210 230 209
3 209 230 229
3 213 212 231
3 212 211 231
3 231 211 214
3 232 220 213
3 232 213 231
3 233 231 214
3 233 214 215
3 234 233 215
3 234 215 218
3 226 235 216
3 235 217 216
3 235 236 217
3 217 236 219
3 237 234 218
3 237 218 219
3 236 238 219
3 238 237 219
3 240 220 232
3 239 240 232
3 241 221 220
3 240 241 220
3 242 222 221
3 241 242 221
3 224 227 243
3 224 243 223
3 223 243 225
3 225 243 244
3 225 244 226
3 226 244 235
3 227 245 243
3 228 246 227
3 227 246 245
3 229 247 228
3 228 247 246
3 230 248 229
3 229 248 247
3 239 232 249
3 232 231 249
3 249 231 233
3 250 249 233
3 250 233 234
3 237 250 234
3 244 251 235
3 235 251 236
3 251 252 236
3 236 252 238
3 252 253 238
3 253 250 237
3 253 237 238
3 254 239 249
3 255 240 239
3 254 255 239
3 256 241 240
3 255 256 240
3 257 242 241
3 256 257 241
3 245 258 243
3 243 258 244
3 244 258 251
3 245 259 258
3 246 260 245
3 245 260 259
3 247 261 246
3 246 261 260
3 248 262 247
3 247 262 261
3 254 249 263
3 263 249 250
3 253 263 250
3 258 264 251
3 251 264 252
3 264 265 252
3 265 263 253
3 252 265 253
3 266 254 263
3 267 255 254
3 266 267 254
3 268 256 255
3 267 268 255
3 269 257 256
3 268 269 256
3 259 270 258
3 270 264 258
3 260 271 259
3 259 271 270
3 261 272 260
3 260 272 271
3 262 273 261
3 273 272 261
3 270 274 264
3 275 266 263
3 275 263 265
3 274 276 264
3 276 265 264
3 276 277 265
3 277 275 265
3 278 267 266
3 275 278 266
3 279 268 267
3 278 279 267
3 280 269 268
3 279 280 268
3 271 281 270
3 270 281 274
3 272 282 271
3 271 282 281
3 273 283 272
3 272 283 282
3 281 284 274
3 274 284 276
3 285 278 275
3 277 285 275
3 284 286 276
3 286 285 277
3 276 286 277
3 287 279 278
3 285 287 278
3 288 280 279
3 287 288 279
3 282 289 281
3 281 289 284
3 283 290 282
3 282 290 289
3 289 291 284
3 284 291 286
3 291 292 286
3 292 287 285
3 286 292 285
3 293 288 287
3 292 293 287
3 290 294 289
3 289 294 291
3 294 295 291
3 295 293 292
3 291 295 292
CELL_TYPES 542
5
5
5
5
5
5
5
5
5
5
5
5
5
5
5
5
5
5
5
5
5
5
5
5
5
5
5
5
5
5
5
5
5
5
5
5
5
5
5
5
5
5
5
5
5
5
5
5
5
5
5
5
5
5
5
5
5
5
5
5
5
5
5
5
5
5
5
5
5
5
5
5
5
5
5
5
5
5
5
5
5
5
5
5
5
5
5
5
5
5
5
5
5
5
5
5
5
5
5
5
5
5
5
5
5
5
5
5
5
5
5
5
5
5
5
5
5
5
5
5
5
5
5
5
5
5
5
5
5
5
5
5
5
5
5
5
5
5
5
5
5
5
5
5
5
5
5
5
5
5
5
5
5
5
5
5
5
5
5
5
5
5
5
5
5
5
5
5
5
5
5
5
5
5
5
5
5
5
5
5
5
5
5
5
5
5
5
5
5
5
5
5
5
5
5
5
5
5
5
5
5
5
5
5
5
5
5
5
5
5
5
5
5
5
5
5
5
5
5
5
5
5
5
5
5
5
5
5
5
5
5
5
5
5
5
5
5
5
5
5
5
5
5
5
5
5
5
5
5
5
5
5
5
5
5
5
5
5
5
5
5
5
5
5
5
5
5
5
5
5
5
5
5
5
5
5
5
5
5
5
5
5
5
5
5
5
5
5
5
5
5
5
5
5
5
5
5
5
5
5
5
5
5
5
5
5
5
5
5
5
5
5
5
5
5
5
5
5
5
5
5
5
5
5
5
5
5
5
5
5
5
5
5
5
5
5
5
5
5
5
5
5
5
5
5
5
5
5
5
5
5
5
5
5
5
5
5
5
5
5
5
5
5
5
5
5
5
5
5
5
5
5
5
5
5
5
5
5
5
5
5
5
5
5
5
5
5
5
5
5
5
5
5
5
5
5
5
5
5
5
5
5
5
5
5
5
5
5
5
5
5
5
5
5
5
5
5
5
5
5
5
5
5
5
5
5
5
5
5
5
5
5
5
5
5
5
5
5
5
5
5
5
5
5
5
5
5
5
5
5
5
5
5
5
5
5
5
5
5
5
5
5
5
5
5
5
5
5
5
5
5
5
5
5
5
5
5
5
5
5
5
5
5
5
5
5
5
5
5
5
5
5
5
5
5
5
5
5
5
5
5
5
5
5
5
5
5
5
5
5
5
5
5
5
5
5
5
5
5
5
5
5
5
5
5
5
5
5
5
5
5
5
5
5
5
5
5
5
5
5
5
5
POINT_DATA 296
SCALARS concentrations float 4
LOOKUP_TABLE default
0 0.947969 0.105835 4.32937
0 0.94803 0.103179 1.05447
0 0.947939 0.10716 2.83423
0 0.947982 0.101437 1.33414
0 0.947961 0.0927932 -0.0657781
0 0.948043 0.105518 3.52851
0 0.947989 0.111317 -0.719523
0 0.948006 0.0926954 0.428918
0 0.948039 0.0929651 -0.566362
0 0.947936 0.104679 -1.46671
0 0.947979 0.109619 6.36999
0 0.948042 0.105902 -1.46867
0 0.948029 0.107582 4.83591
0 0.947966 0.092363 0.180259
0 0.947997 0.092526 0.271817
0 0.947989 0.0928384 -0.00387666
0 0.948003 0.0932366 -0.258774
0 0.948027 0.0925552 -0.0286704
0 0.947983 0.0926787 -0.602409
0 0.948026 0.0934139 0.0907466
0 0.948034 0.0933531 -0.61384
0 0.948029 0.104735 1.7283
0 0.948073 0.103749 1.33623
0 0.947965 0.0927683 -0.363605
0 0.947998 0.0931003 1.29262
0 0.948025 0.0935629 0.62016
0 0.947953 0.102759 2.25854
0 0.947975 0.0938984 -0.402384
0 0.947957 0.105582 0.451436
0 0.947988 0.0928146 0.247379
0 0.947992 0.0927429 0.233167
0 0.948002 0.0929681 -0.0223092
0 0.948071 0.102699 0.591056
0 0.94801 0.0931359 -0.538357
0 0.948022 0.0932699 0.724088
0 0.948025 0.0925742 0.816692
0 0.948004 0.0931616 0.361282
0 0.948028 0.093837 0.185986
0 0.948029 0.0935328 0.580445
0 0.948022 0.0929298 -0.465537
0 0.94806 0.0928339 -0.187825
0 0.947991 0.0935068 -1.33218
0 0.947993 0.0945394 -1.81049
0 0.94803 0.10575 2.82548
0 0.947981 0.093968 -0.684523
0 0.947959 0.0929934 -0.275871
0 0.947967 0.0947071 -0.529421
0 0.947962 0.105541 3.86525
0 0.947967 0.0933688 0.568215
0 0.947997 0.102123 1.21517
0 0.947996 0.0929066 0.0248716
0 0.947992 0.0936824 0.408558
0 0.948005 0.0937148 0.740431
0 0.948047 0.0930394 -0.828046
0 0.94803 0.0928661 -0.301443
0 0.948016 0.0945056 1.00406
0 0.94802 0.0931182 1.14336
0 0.948008 0.0936748 -1.45865
0 0.948019 0.0934472 0.988112
0 0.948011 0.0938927 -1.49715
0 0.948034 0.0934488 0.896457
0 0.948003 0.0940659 -1.20834
0 0.948001 0.0942322 -1.42513
0 0.948014 0.103875 -2.16111
0 0.947984 0.0947357 0.965733
0 0.947974 0.0942246 -0.487815
0 0.947982 0.0937035 -0.270461
0 0.947977 0.0928562 0.548331
0 0.947979 0.0932753 -0.638308
0 0.948036 0.106198 2.39248
0 0.948012 0.0929858 -0.331078
0 0.948047 0.105573 0.256275
0 0.948002 0.0950253 1.36002
0 0.947995 0.0938777 0.848813
0 0.947997 0.0936576 1.04158
0 0.948039 0.0932192 -0.368419
0 0.94803 0.0925556 0.109058
0 0.948045 0.0931661 -0.187876
0 0.948013 0.0942209 1.15577
0 0.948004 0.0955439 0.100951
0 0.948014 0.0934544 -0.16998
0 0.948017 0.0945543 -1.11302
0 0.948015 0.0939819 -0.464871
0 0.948025 0.0938836 1.54143
0 0.94801 0.0947669 1.83106
0 0.948026 0.102857 1.31416
0 0.947991 0.0942168 0.0252013
0 0.947989 0.0940309 -0.686666
0 0.947992 0.0927543 0.0295629
0 0.947988 0.0935158 -0.89124
0 0.948032 0.0931481 -0.825498
0 0.94801 0.0934628 -0.606602
0 0.948066 0.107586 -4.58964
0 0.948046 0.0935032 -0.979236
0 0.947998 0.0937899 0.792772
0 0.947997 0.092896 -0.330911
0 0.947998 0.0935023 0.256028
0 0.947996 0.0975162 -0.110414
0 0.948048 0.102962 -0.30169
0 0.948037 0.0933589 -0.356522
0 0.948026 0.093014 0.685751
0 0.948037 0.0940297 1.02328
0 0.94803 0.0941316 1.08453
0 0.948004 0.0947022 1.00621
0 0.948013 0.0964277 -1.31289
0 0.948012 0.0940088 -1.78155
0 0.948009 0.0936737 1.39927
0 0.948007 0.0943714 1.26304
0 0.948 0.0947393 -1.58879
0 0.948037 0.104837 -1.37581
0 0.947989 0.0940234 0.54755
0 0.947993 0.0934549 0.857701
0 0.948017 0.0936236 0.900338
0 0.947999 0.0932097 0.782423
0 0.948051 0.0936844 -0.639644
0 0.948016 0.0941014 0.656156
0 0.948015 0.0938047 -1.06462
0 0.948007 0.0943007 0.805812
0 0.947998 0.0938834 1.08878
0 0.948007 0.0942401 -0.171016
0 0.948004 0.0945802 -0.916179
0 0.947988 0.0950015 0.974332
0 0.947997 0.093801 0.637479
0 0.948012 0.0945584 0.349382
0 0.947979 0.105569 2.33393
0 0.948039 0.093371 0.0359264
0 0.948035 0.0930821 0.427708
0 0.948009 0.0936867 -0.378955
0 0.948023 0.0932463 0.105152
0 0.948002 0.0942843 -1.25011
0 0.948002 0.0937531 -0.753244
0 0.947996 0.0936549 0.524337
0 0.947996 0.0949687 -1.33243
0 0.948039 0.0943466 -0.936165
0 0.94804 0.104574 1.22422
0 0.947982 0.0940707 0.798692
0 0.947993 0.093824 1.10454
0 0.948019 0.0951232 0.303546
0 0.948003 0.0937471 0.638974
0 0.947969 0.093297 0.836462
0 0.948014 0.094352 -1.11262
0 0.947984 0.0943218 -0.594257
0 0.947991 0.0941327 1.10012
0 0.947995 0.0942715 0.948481
0 0.948 0.0958082 1.04828
0 0.94799 0.0953049 0.629259
0 0.948004 0.0954984 -0.252669
0 0.948009 0.0950091 1.35042
0 0.94801 0.0940717 0.358255
0 0.94793 0.0931615 -0.851102
0 0.947926 0.105078 2.55434
0 0.948007 0.0941918 0.130421
0 0.948039 0.093712 0.20382
0 0.948029 0.0933686 -0.864452
0 0.948017 0.0934275 0.217702
0 0.94804 0.0940032 -0.699113
0 0.947997 0.0937754 1.0961
0 0.947992 0.0950274 1.13064
0 0.94799 0.0944009 0.475103
0 0.948005 0.0942472 0.434688
0 0.94802 0.0937531 -0.778717
0 0.948026 0.104455 4.30089
0 0.947993 0.0983949 -1.99703
0 0.948018 0.0943683 -1.29107
0 0.947989 0.0936052 -1.35201
0 0.948014 0.0937597 1.43362
0 0.94797 0.0937254 1.28245
0 0.948002 0.0944041 1.06383
0 0.947997 0.0946705 -1.40278
0 0.947995 0.0946488 0.303855
0 0.948008 0.0949737 -1.65011
0 0.947996 0.0987114 -2.41325
0 0.948006 0.0939547 -0.6921
0 0.947927 0.094109 0.0610321
0 0.947901 0.106303 6.02996
0 0.948013 0.0937795 0.36878
0 0.948032 0.0931861 0.375663
0 0.948021 0.0936415 0.491653
0 0.948025 0.0935757 -1.02239
0 0.948028 0.0939244 0.728885
0 0.947984 0.0975266 -1.88294
0 0.94799 0.0948354 -0.00513161
0 0.947978 0.094217 0.8889
0 0.948005 0.0945516 1.03493
0 0.948006 0.0934757 0.287624
0 0.948004 0.0927872 -0.868911
0 0.947999 0.0930661 0.34732
0 0.948005 0.103221 -2.24902
0 0.948005 0.0941902 -1.3803
0 0.948001 0.093876 1.55233
0 0.947972 0.0942029 -1.17719
0 0.947997 0.0940176 -1.74365
0 0.948003 0.0941938 -0.997391
0 0.947998 0.0945074 -1.59634
0 0.947994 0.103613 1.61257
0 0.947989 0.0951568 0.927363
0 0.947984 0.0940465 0.000749601
0 0.947997 0.0949381 -1.32471
0 0.947987 0.0953844 -0.228364
0 0.947982 0.0949221 -1.86095
0 0.947938 0.0936696 1.39992
0 0.947916 0.106854 3.75689
0 0.948012 0.0938889 0.799617
0 0.948013 0.093059 0.142497
0 0.948006 0.0931134 -0.964467
0 0.947997 0.0940534 1.10177
0 0.94799 0.0958203 0.922413
0 0.948002 0.0942594 0.907408
0 0.947983 0.0928324 -0.109111
0 0.947954 0.0924901 0.162167
0 0.947947 0.107803 4.78473
0 0.948006 0.0949471 -1.15163
0 0.948004 0.0948502 -1.85904
0 0.948 0.0945603 -1.92676
0 0.948008 0.0949418 -0.0463388
0 0.947994 0.0950877 0.559371
0 0.947998 0.0952908 0.780028
0 0.948005 0.0963751 0.854489
0 0.947987 0.0954822 -0.577697
0 0.947998 0.100168 1.73524
0 0.947996 0.0943402 -1.51665
0 0.947947 0.0938587 -1.32303
0 0.947909 0.104621 1.80508
0 0.948002 0.0934956 0.796009
0 0.948001 0.0932296 0.243921
0 0.948004 0.0928755 0.059951
0 0.948012 0.0934798 -0.0903615
0 0.947997 0.093695 1.07633
0 0.947979 0.0933508 -0.800312
0 0.947946 0.0923399 0.215213
0 0.947919 0.105945 3.58079
0 0.948018 0.0952026 -1.34088
0 0.94802 0.0950457 -1.05889
0 0.948013 0.0958369 0.0815853
0 0.947988 0.0950453 -0.402748
0 0.948012 0.0944426 -1.71345
0 0.948012 0.0971148 1.78045
0 0.947988 0.0941224 1.60194
0 0.948001 0.0952214 1.42163
0 0.948025 0.0937176 -1.639
0 0.948017 0.0938166 -1.41894
0 0.948 0.0937869 -1.32282
0 0.947957 0.108185 0.412702
0 0.948004 0.093698 -0.759995
0 0.948008 0.0941637 1.14274
0 0.947993 0.0937071 1.14483
0 0.947988 0.092605 0.545568
0 0.947986 0.0931782 -0.628462
0 0.94795 0.110726 7.91208
0 0.948028 0.0951305 -1.33681
0 0.948006 0.0951156 0.273223
0 0.948002 0.0949465 0.658642
0 0.948007 0.0960024 -1.3668
0 0.948003 0.0947035 0.63047
0 0.948018 0.0953603 -0.0267173
0 0.948017 0.0929921 -1.13352
0 0.948019 0.0933568 -0.592578
0 0.948016 0.103654 -0.835772
0 0.947998 0.093796 1.01269
0 0.947996 0.0926733 0.166809
0 0.94801 0.0926852 0.574736
0 0.948053 0.0923624 0.0481047
0 0.948061 0.106222 4.29264
0 0.948018 0.0932889 0.998617
0 0.948004 0.092782 -1.07906
0 0.948008 0.0965592 0.390245
0 0.948007 0.093833 -0.80421
0 0.948003 0.0929327 -1.13801
0 0.948008 0.0928842 -0.873653
0 0.948017 0.105047 1.58214
0 0.948008 0.0928932 0.0405343
0 0.948021 0.0924435 0.235798
0 0.948045 0.0931537 0.652713
0 0.948078 0.113358 3.52469
0 0.948012 0.0926064 0.882267
0 0.948001 0.093856 -0.871146
0 0.948005 0.0930034 -0.982791
0 0.948003 0.092909 -1.03222
0 0.947988 0.0943028 -0.833564
0 0.947981 0.0929048 0.314838
0 0.947991 0.102732 1.67775
0 0.948028 0.0926818 0.698274
0 0.948047 0.0923463 0.249173
0 0.948058 0.105158 -1.52123
0 0.948016 0.0929764 -0.563801
0 0.947997 0.0931587 0.91836
0 0.948008 0.0926334 0.684872
0 0.947974 0.0941083 -0.140797
0 0.947959 0.110947 4.40957
0 0.948023 0.0925844 0.532232
0 0.948037 0.11005 2.02577
0 0.94802 0.0929879 -0.817018
0 0.948013 0.0926111 -0.765767
0 0.947988 0.102277 2.53046
0 0.948018 0.101655 0.891094
0 0.948026 0.106094 2.10961
VECTORS fa_u float
0.00735059 0.00292876 -0
0.00678878 0.00390061 -0
0.0026863 0.00073289 -0
0.00720732 0.00113584 -0
1e-08 0 0
0.00511351 0.00394191 -0
0.00251597 0.00243017 -0
1e-08 0 0
1e-08 0 0
0.00447083 0.00543204 -0
0.00553529 0.00927326 -0
0.00675813 0.000151402 -0
0.00618422 -0.000659175 0
1e-08 0 0
1e-08 0 0
1e-08 0 0
1e-08 0 0
1e-08 0 0
1e-08 0 0
1e-08 0 0
1e-08 0 0
0.0029359 0.00725694 -0
0.00161446 0.00636286 -0
1e-08 0 0
1e-08 0 0
1e-08 0 0
0.00906197 -0.00227835 0
1e-08 0 0
0.0115117 -0.00506061 0
1e-08 0 0
1e-08 0 0
1e-08 0 0
0.000843082 0.0072825 -0
1e-08 0 0
1e-08 0 0
1e-08 0 0
1e-08 0 0
1e-08 0 0
1e-08 0 0
1e-08 0 0
1e-08 0 0
1e-08 0 0
1e-08 0 0
-0.000189867 0.00785198 -0
1e-08 0 0
1e-08 0 0
1e-08 0 0
0.00562107 -0.00360213 0
1e-08 0 0
0.00257831 -0.00208849 0
1e-08 0 0
1e-08 0 0
1e-08 0 0
1e-08 0 0
1e-08 0 0
1e-08 0 0
1e-08 0 0
1e-08 0 0
1e-08 0 0
1e-08 0 0
1e-08 0 0
1e-08 0 0
1e-08 0 0
-0.000563395 0.00385564 0
1e-08 0 0
1e-08 0 0
1e-08 0 0
1e-08 0 0
1e-08 0 0
0.00308138 -0.00304681 0
1e-08 0 0
0.00270719 -0.003303 0
1e-08 0 0
1e-08 0 0
1e-08 0 0
1e-08 0 0
1e-08 0 0
1e-08 0 0
1e-08 0 0
1e-08 0 0
1e-08 0 0
1e-08 0 0
1e-08 0 0
1e-08 0 0
1e-08 0 0
-0.00136463 0.00526989 0
1e-08 0 0
1e-08 0 0
1e-08 0 0
1e-08 0 0
1e-08 0 0
1e-08 0 0
0.00598478 -0.00978528 0
1e-08 0 0
1e-08 0 0
1e-08 0 0
1e-08 0 0
1e-08 0 0
0.00367446 -0.00910173 0
1e-08 0 0
1e-08 0 0
1e-08 0 0
1e-08 0 0
1e-08 0 0
1e-08 0 0
1e-08 0 0
1e-08 0 0
1e-08 0 0
1e-08 0 0
-0.0029372 0.00729045 0
1e-08 0 0
1e-08 0 0
1e-08 0 0
1e-08 0 0
1e-08 0 0
1e-08 0 0
1e-08 0 0
1e-08 0 0
1e-08 0 0
1e-08 0 0
1e-08 0 0
1e-08 0 0
1e-08 0 0
1e-08 0 0
0.00138329 -0.0055539 0
1e-08 0 0
1e-08 0 0
1e-08 0 0
1e-08 0 0
1e-08 0 0
1e-08 0 0
1e-08 0 0
1e-08 0 0
1e-08 0 0
-0.00376624 0.00652509 0
1e-08 0 0
1e-08 0 0
1e-08 0 0
1e-08 0 0
1e-08 0 0
1e-08 0 0
1e-08 0 0
1e-08 0 0
1e-08 0 0
1e-08 0 0
1e-08 0 0
1e-08 0 0
1e-08 0 0
1e-08 0 0
1e-08 0 0
0.000486077 -0.0035536 0
1e-08 0 0
1e-08 0 0
1e-08 0 0
1e-08 0 0
1e-08 0 0
1e-08 0 0
1e-08 0 0
1e-08 0 0
1e-08 0 0
1e-08 0 0
-0.00466612 0.00598102 0
1e-08 0 0
1e-08 0 0
1e-08 0 0
1e-08 0 0
1e-08 0 0
1e-08 0 0
1e-08 0 0
1e-08 0 0
1e-08 0 0
1e-08 0 0
1e-08 0 0
1e-08 0 0
0.000129379 -0.00791274 0
1e-08 0 0
1e-08 0 0
1e-08 0 0
1e-08 0 0
1e-08 0 0
1e-08 0 0
1e-08 0 0
1e-08 0 0
1e-08 0 0
1e-08 0 0
1e-08 0 0
1e-08 0 0
-0.00214695 0.00218662 0
1e-08 0 0
1e-08 0 0
1e-08 0 0
1e-08 0 0
1e-08 0 0
1e-08 0 0
1e-08 0 0
1e-08 0 0
1e-08 0 0
1e-08 0 0
1e-08 0 0
1e-08 0 0
1e-08 0 0
-0.000863696 -0.00702823 0
1e-08 0 0
1e-08 0 0
1e-08 0 0
1e-08 0 0
1e-08 0 0
1e-08 0 0
1e-08 0 0
1e-08 0 0
-0.00471847 0.00387914 0
1e-08 0 0
1e-08 0 0
1e-08 0 0
1e-08 0 0
1e-08 0 0
1e-08 0 0
1e-08 0 0
1e-08 0 0
1e-08 0 0
1e-08 0 0
1e-08 0 0
-0.00157307 -0.00607728 0
1e-08 0 0
1e-08 0 0
1e-08 0 0
1e-08 0 0
1e-08 0 0
1e-08 0 0
1e-08 0 0
-0.00911906 0.0055005 0
1e-08 0 0
1e-08 0 0
1e-08 0 0
1e-08 0 0
1e-08 0 0
1e-08 0 0
1e-08 0 0
1e-08 0 0
1e-08 0 0
1e-08 0 0
1e-08 0 0
-0.00311306 -0.00758793 0
1e-08 0 0
1e-08 0 0
1e-08 0 0
1e-08 0 0
1e-08 0 0
-0.00757407 0.00309494 0
1e-08 0 0
1e-08 0 0
1e-08 0 0
1e-08 0 0
1e-08 0 0
1e-08 0 0
1e-08 0 0
1e-08 0 0
-0.00514977 -0.00856174 0
1e-08 0 0
1e-08 0 0
1e-08 0 0
1e-08 0 0
-0.00621646 0.00159547 0
1e-08 0 0
1e-08 0 0
1e-08 0 0
1e-08 0 0
1e-08 0 0
1e-08 0 0
-0.00359936 -0.00443128 0
1e-08 0 0
1e-08 0 0
1e-08 0 0
-0.00729845 0.000868232 0
1e-08 0 0
1e-08 0 0
1e-08 0 0
1e-08 0 0
1e-08 0 0
1e-08 0 0
-0.00253551 -0.00251219 0
1e-08 0 0
1e-08 0 0
-0.00842045 -0.000197496 0
1e-08 0 0
1e-08 0 0
1e-08 0 0
1e-08 0 0
-0.005945 -0.00465014 0
1e-08 0 0
-0.00357035 -0.000522504 0
1e-08 0 0
1e-08 0 0
-0.00683522 -0.00394322 0
-0.00528001 -0.00135815 0
-0.00726606 -0.00291371 0
