# vtk DataFile Version 2.0
CellBP Time: 8.2
ASCII
DATASET UNSTRUCTURED_GRID
POINTS 296 double
-8.94595 -3.6637 0
-8.38759 -4.81598 0
-9.33704 -2.44211 0
-9.61352 -1.21284 0
-8.10223 -2.71322 0
-7.67166 -5.88181 0
-6.82361 -6.84585 0
-7.66192 -3.73542 0
-7.10188 -4.70811 0
-5.89779 -7.7131 0
-4.86825 -8.44508 0
-9.72091 0.0382275 0
-9.66481 1.31477 0
-8.42123 -1.62297 0
-8.57829 -0.505431 0
-7.34823 -1.9175 0
-6.97511 -2.78234 0
-6.44595 -5.62718 0
-5.67763 -6.44565 0
-6.54743 -3.74523 0
-6.01342 -4.52854 0
-3.71846 -9.00968 0
-2.48998 -9.40932 0
-4.80049 -7.16313 0
-3.85025 -7.74559 0
-8.59318 0.630447 0
-9.44398 2.59204 0
-8.44864 1.73096 0
-9.0343 3.80847 0
-7.52539 -0.883498 0
-7.59123 0.0893579 0
-6.74144 -1.2537 0
-1.21813 -9.6472 0
-6.24696 -2.0699 0
-6.11423 -2.94405 0
-5.37362 -5.33158 0
-4.67181 -5.97822 0
-5.47742 -3.63625 0
-5.0971 -4.43139 0
-2.81894 -8.20765 0
-1.74613 -8.46807 0
-3.84325 -6.59099 0
-3.01257 -7.0231 0
0.0550261 -9.70744 0
-7.51654 1.11561 0
-8.19135 2.86124 0
-7.37838 2.05027 0
-8.42185 4.93002 0
-7.70845 3.88284 0
-7.66421 5.96682 0
-6.5882 -0.368647 0
-6.76805 0.549047 0
-5.62583 -0.970231 0
-0.581416 -8.61536 0
0.543962 -8.54925 0
-5.15984 -2.40345 0
-4.35216 -4.96429 0
-3.80071 -5.64655 0
-4.31862 -3.71006 0
-2.02659 -7.41539 0
-1.11607 -7.62409 0
-2.93129 -5.97597 0
-2.27227 -6.49307 0
1.31193 -9.59109 0
-6.52278 1.38187 0
-6.99395 3.02856 0
-6.49823 2.30749 0
-7.11466 4.85456 0
-6.55207 3.88944 0
-6.82224 6.91483 0
-6.39957 5.73369 0
-5.87788 7.77211 0
-4.37594 -1.16678 0
-5.68165 0.492511 0
-4.57595 -0.0275152 0
-0.0053323 -7.65851 0
1.68147 -8.39833 0
0.904583 -7.55102 0
-3.96221 -2.35429 0
-3.4557 -1.37998 0
-3.21875 -4.70393 0
-3.21728 -3.20818 0
-1.36621 -6.53194 0
-0.519623 -6.85926 0
-1.94677 -5.43545 0
2.56194 -9.34469 0
-5.38544 1.9931 0
-5.9471 2.98459 0
-5.9533 4.73183 0
-5.61587 3.87093 0
-5.60463 6.5296 0
-5.30972 5.45567 0
-4.8474 8.52311 0
-4.70507 7.19253 0
-3.4618 -0.418962 0
-4.36519 1.22815 0
-3.65308 0.585774 0
-3.98382 2.29333 0
-3.70865 9.09174 0
2.75968 -8.06689 0
0.37431 -6.6083 0
1.93279 -7.29113 0
1.23473 -6.69837 0
-2.4255 -0.863336 0
-2.81141 -2.10628 0
-2.26486 -4.026 0
-2.29703 -2.92807 0
-0.45171 -5.72406 0
-1.2016 -4.42209 0
3.77411 -8.95112 0
-4.67575 3.30639 0
-4.9576 4.45905 0
-4.52347 6.09165 0
-4.42128 5.2022 0
-3.75301 7.79484 0
-3.71525 6.6336 0
-2.71132 8.20019 0
-1.63397 -0.124084 0
-1.43557 -0.875595 0
-2.47124 0.51725 0
-3.2031 1.43444 0
-3.17604 3.26122 0
-2.86588 2.35858 0
-1.35075 0.638017 0
-2.48693 9.47713 0
3.79813 -7.63695 0
2.8396 -6.90532 0
0.900361 -5.66283 0
1.98189 -6.20446 0
-1.6621 -1.97523 0
-1.41453 -3.23339 0
0.0793459 -4.64872 0
-0.554008 -3.63845 0
4.7779 -7.07872 0
4.9181 -8.39289 0
-3.68681 4.43789 0
-3.63681 5.59066 0
-2.80003 7.07452 0
-2.9286 6.17273 0
-1.6219 8.52215 0
-1.88156 7.41804 0
-2.29895 3.97867 0
-0.720595 -1.31626 0
-0.829069 -0.24381 0
-1.93065 1.69406 0
-2.10249 2.85613 0
-1.29712 3.50614 0
-0.871287 1.36097 0
-0.285478 0.46409 0
-0.521994 8.67098 0
-1.22601 9.71425 0
1.07062 -4.46131 0
3.75434 -6.45845 0
2.87066 -5.88033 0
2.03654 -5.25562 0
4.62876 -5.97885 0
-0.547724 -2.45734 0
0.489237 -3.413 0
0.0602207 -1.60142 0
1.44484 -3.59767 0
5.70315 -6.40743 0
5.9812 -7.67746 0
-2.41691 5.21673 0
-2.06422 6.35723 0
-0.872864 7.62119 0
-1.22251 6.75272 0
0.0920326 7.71357 0
-1.12711 4.41731 0
0.148784 -0.611635 0
-0.808418 2.49449 0
-0.344557 3.57283 0
0.0516793 1.51481 0
0.732179 0.473953 0
0.628748 8.69809 0
0.0424496 9.82275 0
2.30722 -4.16137 0
3.72898 -5.43622 0
2.90055 -5.03971 0
5.42663 -5.31439 0
4.55038 -5.08711 0
0.632754 -2.2835 0
1.2388 -2.90659 0
0.75831 -1.38749 0
2.11818 -3.06828 0
2.92292 -3.38628 0
6.01565 -4.65592 0
6.49533 -5.61177 0
6.93699 -6.81945 0
-0.989924 5.69082 0
-0.34444 6.72341 0
1.10377 7.62297 0
0.563449 6.93143 0
-0.00271594 4.65773 0
0.593352 3.78675 0
1.3331 -0.641954 0
0.522547 2.63884 0
0.950448 1.57655 0
1.89176 0.207852 0
1.59846 1.0599 0
2.09756 7.44689 0
1.76882 8.55081 0
1.32485 9.75221 0
3.72076 -4.21149 0
4.98634 -4.29269 0
5.71868 -3.81736 0
3.70358 -3.11129 0
1.79686 -1.87643 0
2.96893 -2.52686 0
6.64792 -3.84928 0
7.22783 -4.78477 0
7.80253 -5.88655 0
0.481154 5.76896 0
1.41128 6.61473 0
2.34106 6.55414 0
1.18977 4.49095 0
1.46435 3.35622 0
2.40834 -0.68974 0
2.7945 0.139998 0
1.76695 2.14963 0
2.58978 1.1399 0
3.02671 7.04756 0
2.86082 8.22445 0
2.59307 9.50813 0
4.80607 -3.22929 0
6.00056 -3.02817 0
4.10241 -2.231 0
3.19935 -1.48852 0
6.61612 -2.27456 0
7.10774 -2.98571 0
7.82688 -3.84522 0
8.53861 -4.85852 0
1.99784 5.50682 0
3.01434 6.037 0
2.33439 4.06397 0
2.39168 3.01998 0
3.47873 -0.452104 0
3.57117 0.613326 0
2.92711 2.2596 0
3.48885 1.50548 0
3.90527 5.7732 0
3.90233 6.66356 0
3.9126 7.79907 0
3.81834 9.10432 0
5.47597 -1.88001 0
4.44171 -1.10819 0
6.59282 -1.31071 0
7.45831 -2.00018 0
8.24499 -2.81194 0
9.1078 -3.71374 0
3.32906 4.77558 0
3.27198 3.32133 0
4.61484 0.133489 0
4.42484 1.28013 0
3.96936 2.38706 0
4.42694 5.02599 0
4.71644 6.0565 0
4.87736 7.22724 0
4.96287 8.53493 0
5.76633 -0.435727 0
6.86627 -0.485803 0
7.61729 -1.05779 0
8.52205 -1.70905 0
9.51001 -2.48646 0
4.42 3.73104 0
5.67112 1.05388 0
5.21286 2.45705 0
5.19949 4.49036 0
5.44326 5.38448 0
5.75463 6.51499 0
5.99133 7.80251 0
6.67743 0.431408 0
7.6852 -0.026977 0
8.68062 -0.562079 0
9.75096 -1.21553 0
6.77131 1.28926 0
5.52981 3.66351 0
6.34355 2.10886 0
6.16776 2.97873 0
6.08162 4.54775 0
6.50038 5.68183 0
6.93072 6.94495 0
7.59431 0.931542 0
8.65255 0.560968 0
9.81653 0.0626594 0
7.40065 1.93201 0
6.58167 3.76173 0
7.03144 2.83457 0
7.15913 4.74333 0
7.78866 5.99023 0
8.49336 1.68017 0
9.69666 1.31902 0
8.16498 2.74567 0
7.74696 3.80006 0
8.50495 4.9293 0
9.4533 2.5712 0
9.06149 3.78404 0
CELLS 542 2168
3 2 0 4
3 0 1 7
3 4 0 7
3 1 5 8
3 7 1 8
3 3 2 13
3 13 2 4
3 11 3 14
3 14 3 13
3 13 4 15
3 4 7 16
3 15 4 16
3 5 6 17
3 8 5 17
3 6 9 18
3 17 6 18
3 7 8 19
3 16 7 19
3 8 17 20
3 19 8 20
3 9 10 23
3 18 9 23
3 10 21 24
3 23 10 24
3 12 11 25
3 25 11 14
3 26 12 27
3 27 12 25
3 14 13 29
3 29 13 15
3 25 14 30
3 30 14 29
3 29 15 31
3 15 16 33
3 31 15 33
3 16 19 34
3 33 16 34
3 17 18 35
3 20 17 35
3 18 23 36
3 35 18 36
3 19 20 37
3 34 19 37
3 20 35 38
3 37 20 38
3 21 22 39
3 24 21 39
3 22 32 40
3 39 22 40
3 23 24 41
3 36 23 41
3 24 39 42
3 41 24 42
3 27 25 44
3 44 25 30
3 28 26 45
3 45 26 27
3 45 27 46
3 46 27 44
3 47 28 48
3 48 28 45
3 30 29 50
3 50 29 31
3 44 30 51
3 51 30 50
3 50 31 52
3 31 33 52
3 32 43 53
3 40 32 53
3 53 43 54
3 33 34 55
3 34 37 55
3 33 55 52
3 35 36 56
3 38 35 56
3 36 41 57
3 56 36 57
3 37 38 58
3 38 56 58
3 37 58 55
3 39 40 59
3 42 39 59
3 40 53 60
3 59 40 60
3 41 42 61
3 57 41 61
3 42 59 62
3 61 42 62
3 43 63 54
3 46 44 64
3 64 44 51
3 48 45 65
3 65 45 46
3 65 46 66
3 66 46 64
3 49 47 67
3 67 47 48
3 67 48 68
3 68 48 65
3 69 49 70
3 70 49 67
3 52 55 72
3 64 51 73
3 51 50 73
3 50 52 73
3 73 52 74
3 74 52 72
3 53 54 75
3 60 53 75
3 54 63 76
3 54 76 77
3 75 54 77
3 55 58 78
3 72 55 78
3 72 78 79
3 56 57 80
3 57 61 80
3 56 80 58
3 58 80 81
3 78 58 81
3 59 60 82
3 62 59 82
3 60 75 83
3 82 60 83
3 61 62 84
3 62 82 84
3 61 84 80
3 63 85 76
3 66 64 86
3 64 73 86
3 68 65 87
3 87 65 66
3 87 66 86
3 70 67 88
3 88 67 68
3 88 68 89
3 89 68 87
3 71 69 90
3 90 69 70
3 90 70 91
3 91 70 88
3 92 71 93
3 93 71 90
3 74 72 94
3 94 72 79
3 86 73 95
3 95 73 74
3 95 74 96
3 96 74 94
3 97 86 95
3 76 85 99
3 75 77 100
3 83 75 100
3 76 99 101
3 77 76 101
3 77 101 102
3 100 77 102
3 94 79 103
3 78 81 104
3 79 78 104
3 79 104 103
3 80 84 105
3 81 80 105
3 81 105 106
3 104 81 106
3 82 83 107
3 83 100 107
3 82 107 84
3 84 107 108
3 105 84 108
3 85 109 99
3 89 87 110
3 87 86 110
3 110 86 97
3 91 88 111
3 111 88 89
3 111 89 110
3 93 90 112
3 112 90 91
3 112 91 113
3 113 91 111
3 98 92 114
3 114 92 93
3 114 93 115
3 115 93 112
3 116 98 114
3 117 103 118
3 96 94 119
3 94 103 119
3 119 103 117
3 97 95 120
3 120 95 96
3 120 96 119
3 121 110 97
3 121 97 122
3 122 97 120
3 123 119 117
3 124 98 116
3 99 109 125
3 99 125 126
3 101 99 126
3 100 102 127
3 100 127 107
3 101 126 128
3 102 101 128
3 102 128 127
3 104 106 129
3 104 129 103
3 103 129 118
3 105 108 130
3 106 105 130
3 106 130 129
3 107 127 131
3 108 107 131
3 108 131 132
3 108 132 130
3 109 134 125
3 125 134 133
3 113 111 135
3 111 110 135
3 135 110 121
3 115 112 136
3 136 112 113
3 136 113 135
3 116 114 137
3 137 114 115
3 137 115 138
3 138 115 136
3 139 124 116
3 139 116 140
3 140 116 137
3 141 135 121
3 118 129 142
3 118 142 143
3 117 118 143
3 123 117 143
3 122 120 144
3 120 119 144
3 144 119 123
3 141 121 145
3 145 121 122
3 145 122 144
3 146 141 145
3 147 144 123
3 147 123 148
3 143 148 123
3 150 124 139
3 149 150 139
3 131 127 151
3 125 133 152
3 126 125 152
3 126 152 153
3 128 126 153
3 128 153 154
3 128 154 127
3 127 154 151
3 152 133 155
3 130 132 156
3 130 156 129
3 129 156 142
3 131 151 157
3 132 131 157
3 132 157 156
3 156 158 142
3 157 151 159
3 133 160 155
3 134 161 133
3 133 161 160
3 138 136 162
3 136 135 162
3 162 135 141
3 140 137 163
3 163 137 138
3 163 138 162
3 149 139 164
3 164 139 140
3 164 140 165
3 165 140 163
3 166 149 164
3 167 162 141
3 167 141 146
3 142 158 168
3 143 142 168
3 143 168 148
3 146 145 169
3 145 144 169
3 169 144 147
3 170 167 146
3 170 146 169
3 171 169 147
3 171 147 148
3 171 148 172
3 168 172 148
3 173 149 166
3 174 150 149
3 173 174 149
3 154 175 151
3 151 175 159
3 152 155 176
3 153 152 176
3 153 176 177
3 153 177 154
3 154 177 175
3 155 160 178
3 155 178 179
3 176 155 179
3 156 157 180
3 156 180 158
3 157 159 181
3 157 181 180
3 158 180 182
3 158 182 168
3 159 175 183
3 159 183 181
3 175 184 183
3 160 186 178
3 178 186 185
3 161 187 160
3 160 187 186
3 165 163 188
3 163 162 188
3 188 162 167
3 166 164 189
3 189 164 165
3 189 165 188
3 190 173 166
3 190 166 191
3 191 166 189
3 192 188 167
3 192 167 170
3 193 192 170
3 182 194 168
3 194 172 168
3 193 170 195
3 170 169 195
3 195 169 171
3 196 195 171
3 196 171 172
3 194 197 172
3 197 198 172
3 198 196 172
3 200 173 190
3 199 200 190
3 201 174 173
3 200 201 173
3 176 179 202
3 177 176 202
3 177 202 175
3 175 202 184
3 178 185 203
3 178 203 179
3 179 203 202
3 203 185 204
3 202 205 184
3 183 206 181
3 180 181 206
3 180 206 182
3 182 206 194
3 183 184 207
3 205 207 184
3 183 207 206
3 185 208 204
3 186 209 185
3 185 209 208
3 187 210 186
3 186 210 209
3 191 189 211
3 189 188 211
3 211 188 192
3 199 190 212
3 212 190 191
3 212 191 211
3 213 199 212
3 214 211 192
3 214 192 193
3 215 214 193
3 215 193 195
3 206 216 194
3 216 197 194
3 216 217 197
3 215 195 218
3 218 195 196
3 198 218 196
3 217 219 197
3 219 218 198
3 197 219 198
3 220 199 213
3 221 200 199
3 220 221 199
3 222 201 200
3 221 222 200
3 203 204 223
3 203 223 202
3 202 223 205
3 204 208 224
3 204 224 223
3 205 223 225
3 205 225 207
3 207 225 226
3 207 226 206
3 226 216 206
3 208 228 224
3 224 228 227
3 209 229 208
3 229 228 208
3 210 230 209
3 209 230 229
3 213 212 231
3 212 211 231
3 231 211 214
3 232 220 213
3 232 213 231
3 233 231 214
3 233 214 215
3 234 233 215
3 234 215 218
3 226 235 216
3 235 217 216
3 235 236 217
3 217 236 219
3 237 234 218
3 237 218 219
3 236 238 219
3 238 237 219
3 240 220 232
3 239 240 232
3 241 221 220
3 240 241 220
3 242 222 221
3 241 242 221
3 224 227 243
3 224 243 223
3 223 243 225
3 225 243 244
3 225 244 226
3 226 244 235
3 227 245 243
3 228 246 227
3 227 246 245
3 229 247 228
3 228 247 246
3 230 248 229
3 229 248 247
3 239 232 249
3 232 231 249
3 249 231 233
3 250 249 233
3 250 233 234
3 237 250 234
3 244 251 235
3 235 251 236
3 251 252 236
3 236 252 238
3 252 253 238
3 253 250 237
3 253 237 238
3 254 239 249
3 255 240 239
3 254 255 239
3 256 241 240
3 255 256 240
3 257 242 241
3 256 257 241
3 245 258 243
3 243 258 244
3 244 258 251
3 245 259 258
3 246 260 245
3 245 260 259
3 247 261 246
3 246 261 260
3 248 262 247
3 247 262 261
3 254 249 263
3 263 249 250
3 253 263 250
3 258 264 251
3 251 264 252
3 264 265 252
3 265 263 253
3 252 265 253
3 266 254 263
3 267 255 254
3 266 267 254
3 268 256 255
3 267 268 255
3 269 257 256
3 268 269 256
3 259 270 258
3 270 264 258
3 260 271 259
3 259 271 270
3 261 272 260
3 260 272 271
3 262 273 261
3 273 272 261
3 270 274 264
3 275 266 263
3 275 263 265
3 274 276 264
3 276 265 264
3 276 277 265
3 277 275 265
3 278 267 266
3 275 278 266
3 279 268 267
3 278 279 267
3 280 269 268
3 279 280 268
3 271 281 270
3 270 281 274
3 272 282 271
3 271 282 281
3 273 283 272
3 272 283 282
3 281 284 274
3 274 284 276
3 285 278 275
3 277 285 275
3 284 286 276
3 286 285 277
3 276 286 277
3 287 279 278
3 285 287 278
3 288 280 279
3 287 288 279
3 282 289 281
3 281 289 284
3 283 290 282
3 282 290 289
3 289 291 284
3 284 291 286
3 291 292 286
3 292 287 285
3 286 292 285
3 293 288 287
3 292 293 287
3 290 294 289
3 289 294 291
3 294 295 291
3 295 293 292
3 291 295 292
CELL_TYPES 542
5
5
5
5
5
5
5
5
5
5
5
5
5
5
5
5
5
5
5
5
5
5
5
5
5
5
5
5
5
5
5
5
5
5
5
5
5
5
5
5
5
5
5
5
5
5
5
5
5
5
5
5
5
5
5
5
5
5
5
5
5
5
5
5
5
5
5
5
5
5
5
5
5
5
5
5
5
5
5
5
5
5
5
5
5
5
5
5
5
5
5
5
5
5
5
5
5
5
5
5
5
5
5
5
5
5
5
5
5
5
5
5
5
5
5
5
5
5
5
5
5
5
5
5
5
5
5
5
5
5
5
5
5
5
5
5
5
5
5
5
5
5
5
5
5
5
5
5
5
5
5
5
5
5
5
5
5
5
5
5
5
5
5
5
5
5
5
5
5
5
5
5
5
5
5
5
5
5
5
5
5
5
5
5
5
5
5
5
5
5
5
5
5
5
5
5
5
5
5
5
5
5
5
5
5
5
5
5
5
5
5
5
5
5
5
5
5
5
5
5
5
5
5
5
5
5
5
5
5
5
5
5
5
5
5
5
5
5
5
5
5
5
5
5
5
5
5
5
5
5
5
5
5
5
5
5
5
5
5
5
5
5
5
5
5
5
5
5
5
5
5
5
5
5
5
5
5
5
5
5
5
5
5
5
5
5
5
5
5
5
5
5
5
5
5
5
5
5
5
5
5
5
5
5
5
5
5
5
5
5
5
5
5
5
5
5
5
5
5
5
5
5
5
5
5
5
5
5
5
5
5
5
5
5
5
5
5
5
5
5
5
5
5
5
5
5
5
5
5
5
5
5
5
5
5
5
5
5
5
5
5
5
5
5
5
5
5
5
5
5
5
5
5
5
5
5
5
5
5
5
5
5
5
5
5
5
5
5
5
5
5
5
5
5
5
5
5
5
5
5
5
5
5
5
5
5
5
5
5
5
5
5
5
5
5
5
5
5
5
5
5
5
5
5
5
5
5
5
5
5
5
5
5
5
5
5
5
5
5
5
5
5
5
5
5
5
5
5
5
5
5
5
5
5
5
5
5
5
5
5
5
5
5
5
5
5
5
5
5
5
5
5
5
5
5
5
5
5
5
5
5
5
5
5
5
5
5
5
5
5
5
5
5
5
5
5
5
5
5
5
5
5
5
5
5
5
5
5
5
5
5
5
5
5
5
5
5
5
5
5
5
5
5
5
5
5
5
5
5
5
5
5
5
5
5
5
5
5
5
5
5
5
POINT_DATA 296
SCALARS concentrations float 4
LOOKUP_TABLE default
0 0.95359 0.123924 8.87249
0 0.953605 0.123045 4.15385
0 0.953607 0.12182 5.35606
0 0.953624 0.122681 0.267197
0 0.953599 0.0938837 0.732113
0 0.953584 0.12154 6.85444
0 0.953622 0.124568 2.69474
0 0.953601 0.0946924 -0.178465
0 0.953602 0.0939092 0.362408
0 0.953662 0.122648 2.02
0 0.953648 0.122736 5.16999
0 0.953671 0.121526 3.74751
0 0.953671 0.120156 2.57017
0 0.95361 0.0941096 -0.515765
0 0.953631 0.0936804 -0.111657
0 0.953608 0.0937993 0.43592
0 0.953601 0.0944392 -0.339974
0 0.953602 0.0935379 0.261601
0 0.95363 0.0930918 0.151314
0 0.953607 0.0942542 -0.656126
0 0.953612 0.0938772 -0.241131
0 0.953591 0.124473 7.88125
0 0.953593 0.122523 5.52642
0 0.953641 0.0927876 -0.0614239
0 0.953608 0.0931799 -0.341897
0 0.953662 0.094431 0.818453
0 0.953629 0.119887 5.64169
0 0.953639 0.0944998 0.81289
0 0.953624 0.120956 -0.0196019
0 0.953611 0.0947241 0.808788
0 0.953622 0.0936329 0.559375
0 0.953619 0.0936282 0.433016
0 0.953624 0.119675 2.39392
0 0.953616 0.0936592 0.417439
0 0.953614 0.093728 -0.220437
0 0.953616 0.0936614 0.483377
0 0.953619 0.0935336 0.5923
0 0.953624 0.0942101 -0.304058
0 0.953624 0.0935667 0.736907
0 0.953593 0.0929018 -0.183074
0 0.953614 0.0939697 0.629602
0 0.953611 0.0944907 0.795059
0 0.953599 0.0949349 0.377275
0 0.95364 0.120901 2.34971
0 0.953634 0.0939177 0.774641
0 0.953623 0.095662 -1.49537
0 0.953624 0.0960288 1.39589
0 0.953594 0.120958 4.49231
0 0.953612 0.0939605 0.0965357
0 0.953569 0.120458 5.14054
0 0.95362 0.0949222 0.613608
0 0.953625 0.094771 0.0788968
0 0.953624 0.0940779 0.695826
0 0.953639 0.093676 0.004436
0 0.95363 0.0938221 0.366286
0 0.953627 0.0953501 0.766663
0 0.953634 0.0949426 0.450681
0 0.953633 0.0943475 0.34067
0 0.953632 0.0947446 -0.029102
0 0.953613 0.0966084 -0.0350592
0 0.953632 0.0931473 0.23626
0 0.953622 0.0946849 0.162341
0 0.953609 0.0974856 0.410494
0 0.953605 0.120558 7.14909
0 0.953635 0.0945823 -0.467064
0 0.953618 0.0949946 -0.169492
0 0.953631 0.095972 -1.11541
0 0.953588 0.0941073 -0.708331
0 0.953612 0.0952182 0.815225
0 0.95361 0.122754 9.66799
0 0.953592 0.0937273 0.0810979
0 0.953669 0.120543 1.43448
0 0.953624 0.0952163 -0.413254
0 0.953633 0.0949971 0.569743
0 0.953623 0.0934112 -0.401594
0 0.95364 0.093455 -0.322248
0 0.953618 0.0933205 -0.188515
0 0.953635 0.0933847 -0.367083
0 0.953629 0.0957297 -0.340467
0 0.953627 0.0971967 0.223822
0 0.953628 0.0981747 -0.560161
0 0.953624 0.094381 -0.00668845
0 0.953615 0.094912 0.0249739
0 0.953628 0.0946987 0.663067
0 0.953609 0.0965238 -0.50033
0 0.953623 0.118952 1.9467
0 0.953638 0.0940824 0.925286
0 0.953624 0.0944656 0.721643
0 0.953617 0.0944614 -0.160305
0 0.953625 0.0943554 0.176882
0 0.953637 0.0935719 0.125869
0 0.953619 0.0937694 0.0501437
0 0.953629 0.118527 2.18383
0 0.953652 0.0939945 0.371078
0 0.953621 0.0954493 0.349642
0 0.953637 0.0945245 -0.830359
0 0.953626 0.0941651 -0.46867
0 0.95363 0.0948778 0.272319
0 0.953597 0.119947 6.51846
0 0.953639 0.0936665 0.225801
0 0.953628 0.0940176 0.134456
0 0.953633 0.0944151 0.256139
0 0.953629 0.095639 0.154171
0 0.953623 0.0938887 0.234934
0 0.953625 0.0962839 0.858946
0 0.953615 0.0981637 -1.36748
0 0.953629 0.0945754 -0.00601427
0 0.953611 0.0939063 0.261439
0 0.953612 0.0949458 0.538487
0 0.953645 0.121192 5.71046
0 0.953616 0.0953839 -1.45069
0 0.953616 0.1016 0.392326
0 0.953634 0.0946629 -0.330291
0 0.953618 0.0955198 -0.450278
0 0.953614 0.0954876 0.384042
0 0.953628 0.0990061 -1.30444
0 0.953611 0.0942025 -1.06331
0 0.953625 0.093609 -0.578805
0 0.953632 0.0935855 -0.321104
0 0.953622 0.0942402 -0.280943
0 0.953628 0.0938946 -0.749826
0 0.953626 0.0964325 -0.990751
0 0.953634 0.0967861 -1.29787
0 0.95362 0.0986821 -1.73
0 0.953595 0.118953 4.96807
0 0.953644 0.0937558 -0.0606133
0 0.953634 0.0952291 -0.870925
0 0.953621 0.0932933 0.441452
0 0.953628 0.0951191 0.133714
0 0.95363 0.0950821 0.290419
0 0.953626 0.093986 -0.0544589
0 0.953622 0.0936876 -0.725412
0 0.953625 0.0937998 -0.73447
0 0.95365 0.0959138 -0.8718
0 0.953642 0.119031 2.67221
0 0.953615 0.0957262 -0.882322
0 0.953628 0.0951338 -0.530655
0 0.953628 0.0943761 0.0743252
0 0.95363 0.0943307 0.221883
0 0.953619 0.0943896 -0.637453
0 0.953632 0.0944635 1.09353
0 0.953639 0.0964287 -0.0464798
0 0.953647 0.0947285 0.0817765
0 0.953647 0.0932687 -0.0787878
0 0.953629 0.100292 2.73161
0 0.953637 0.0952261 -0.936303
0 0.953644 0.0991615 1.57077
0 0.953623 0.0961421 0.734705
0 0.953633 0.0937068 -0.241451
0 0.953647 0.0930985 0.543086
0 0.953643 0.124139 4.45333
0 0.953632 0.0960497 -1.08722
0 0.95364 0.0969216 -1.72404
0 0.953629 0.0965262 -0.347676
0 0.953629 0.0943634 0.462034
0 0.953648 0.0935664 -0.0374742
0 0.953636 0.094655 0.133155
0 0.953645 0.0938258 0.273118
0 0.953642 0.0959284 -0.551379
0 0.953636 0.0951941 -0.0744121
0 0.953663 0.0933961 -0.0666164
0 0.953661 0.121375 2.68373
0 0.953637 0.0975622 -0.785585
0 0.953638 0.0941297 -0.52436
0 0.953634 0.0934919 0.408878
0 0.953632 0.0938877 1.00005
0 0.953641 0.0936714 0.524405
0 0.953646 0.0937396 0.0169563
0 0.953651 0.0961856 -0.661824
0 0.953631 0.0967423 2.02465
0 0.95364 0.0954004 -0.52032
0 0.953624 0.0952388 -0.17832
0 0.953641 0.0928793 0.222318
0 0.953645 0.0935677 -0.936056
0 0.953647 0.121065 8.38228
0 0.953617 0.0954051 -0.131178
0 0.953636 0.0958204 0.133793
0 0.953629 0.0962315 0.154201
0 0.953651 0.0926554 -0.103593
0 0.953638 0.0957479 -1.2171
0 0.953654 0.0957064 -0.843367
0 0.953661 0.097101 0.619187
0 0.953643 0.0971339 -0.370941
0 0.953615 0.0965779 -1.26649
0 0.953604 0.0943895 -1.10525
0 0.953645 0.0935313 -0.373838
0 0.953666 0.0934448 -0.261129
0 0.953675 0.118507 4.41847
0 0.953633 0.0946326 -1.5251
0 0.953633 0.0957641 1.64168
0 0.95364 0.0935492 0.584818
0 0.953635 0.0949758 -1.4876
0 0.953629 0.0949224 0.00625915
0 0.953631 0.0947232 0.530102
0 0.953646 0.0948904 -0.0584561
0 0.953631 0.0950294 0.596594
0 0.953632 0.100765 -0.895825
0 0.95364 0.0929897 0.112453
0 0.953642 0.0933932 0.42059
0 0.953633 0.0946851 0.015284
0 0.953653 0.0928729 -0.512285
0 0.953657 0.122715 -0.0365354
0 0.953624 0.0931119 0.388905
0 0.953634 0.0943614 -0.370374
0 0.953627 0.0940395 -0.425055
0 0.953627 0.0944881 -0.690672
0 0.953638 0.098851 2.741
0 0.953621 0.0946923 0.373865
0 0.953634 0.0937484 -0.480256
0 0.953644 0.0929818 -0.429983
0 0.953667 0.119099 0.996407
0 0.95363 0.0939438 -1.23907
0 0.953641 0.0955834 1.06273
0 0.95363 0.102422 0.652524
0 0.953636 0.0966127 1.31188
0 0.953639 0.0938469 -0.0466118
0 0.953635 0.0943659 -0.508079
0 0.953637 0.0935187 0.236982
0 0.95364 0.0934903 0.484204
0 0.953639 0.0940156 0.746648
0 0.953612 0.0948735 1.47733
0 0.953615 0.0933576 0.551004
0 0.953636 0.120977 6.81609
0 0.953629 0.0956308 1.41031
0 0.95363 0.0943968 -1.16886
0 0.953636 0.0950392 0.352161
0 0.953634 0.0948685 0.293507
0 0.953641 0.0938207 0.919299
0 0.953639 0.0951847 1.35685
0 0.953619 0.0923608 -0.0202972
0 0.953622 0.117718 4.33741
0 0.953641 0.0968416 -0.999202
0 0.953624 0.0946733 -0.761756
0 0.953644 0.0961369 0.157225
0 0.95364 0.0940841 -0.0665513
0 0.953645 0.0943419 -1.06851
0 0.953641 0.0948553 0.79669
0 0.95364 0.0939347 -1.14904
0 0.95364 0.0941411 0.776117
0 0.953628 0.0939416 -0.0311069
0 0.953623 0.0941451 1.08098
0 0.953606 0.0941538 -1.15199
0 0.953595 0.12003 6.67044
0 0.953632 0.0984941 -1.98818
0 0.95364 0.0951109 0.283848
0 0.953642 0.0949851 -0.538637
0 0.953649 0.0953269 1.42842
0 0.953639 0.0929056 -0.106512
0 0.953613 0.118927 3.36526
0 0.953636 0.0939138 1.22146
0 0.953633 0.0941679 0.852143
0 0.953643 0.0933086 0.294386
0 0.953638 0.0935307 -0.0307668
0 0.953633 0.0933124 0.535134
0 0.953641 0.0950675 -1.51194
0 0.953638 0.0933366 0.553771
0 0.953624 0.0937907 -0.601395
0 0.95361 0.119852 5.56815
0 0.953637 0.0926841 -0.161581
0 0.953642 0.0946336 -1.29189
0 0.953639 0.0934629 1.16411
0 0.953635 0.0940167 -0.813802
0 0.953645 0.121322 0.111105
0 0.953637 0.0941038 0.786776
0 0.953637 0.0926674 -0.533538
0 0.953636 0.092967 -0.0656887
0 0.953649 0.0937631 0.142913
0 0.953653 0.0943821 1.22529
0 0.953642 0.0937039 0.629776
0 0.953627 0.121009 6.46191
0 0.953639 0.0933017 0.917272
0 0.953631 0.0933307 -0.534482
0 0.953618 0.093601 0.452592
0 0.953607 0.120676 10.6001
0 0.953634 0.0937928 -0.995919
0 0.953642 0.0938782 -0.558573
0 0.953636 0.0929383 -0.403055
0 0.953637 0.0935688 -0.717326
0 0.953656 0.0941737 -0.535973
0 0.953678 0.094225 1.01071
0 0.953662 0.117657 0.716025
0 0.95363 0.0934795 -1.11286
0 0.953623 0.0922901 -0.282476
0 0.953621 0.119745 0.603363
0 0.953634 0.0927655 -0.230042
0 0.953651 0.0953322 1.02816
0 0.953648 0.09306 -0.444117
0 0.953684 0.0948993 1.41343
0 0.953702 0.120792 3.26938
0 0.953618 0.0924299 0.367491
0 0.953609 0.119772 7.61765
0 0.953666 0.0930548 -0.307548
0 0.953685 0.0937663 0.998053
0 0.953698 0.118071 1.31561
0 0.953642 0.118037 2.31151
0 0.953706 0.119683 3.07126
VECTORS fa_u float
0.00721146 0.0028843 -0
0.0066245 0.00380572 -0
0.00297482 0.00081028 -0
0.00719516 0.00111355 -0
1e-08 0 0
0.00519469 0.00400243 -0
0.00261892 0.00253681 -0
1e-08 0 0
1e-08 0 0
0.00451981 0.00552633 -0
0.00521901 0.00877228 -0
0.00659953 0.000133942 -0
0.00623677 -0.000676289 0
1e-08 0 0
1e-08 0 0
1e-08 0 0
1e-08 0 0
1e-08 0 0
1e-08 0 0
1e-08 0 0
1e-08 0 0
0.00293026 0.00722737 -0
0.00159962 0.00627362 -0
1e-08 0 0
1e-08 0 0
1e-08 0 0
0.00882923 -0.00223239 0
1e-08 0 0
0.0108817 -0.00475732 0
1e-08 0 0
1e-08 0 0
1e-08 0 0
0.000854518 0.00729484 -0
1e-08 0 0
1e-08 0 0
1e-08 0 0
1e-08 0 0
1e-08 0 0
1e-08 0 0
1e-08 0 0
1e-08 0 0
1e-08 0 0
1e-08 0 0
-0.000169584 0.00764711 -0
1e-08 0 0
1e-08 0 0
1e-08 0 0
0.00565501 -0.00358971 0
1e-08 0 0
0.00275776 -0.00222254 0
1e-08 0 0
1e-08 0 0
1e-08 0 0
1e-08 0 0
1e-08 0 0
1e-08 0 0
1e-08 0 0
1e-08 0 0
1e-08 0 0
1e-08 0 0
1e-08 0 0
1e-08 0 0
1e-08 0 0
-0.000589841 0.00407634 0
1e-08 0 0
1e-08 0 0
1e-08 0 0
1e-08 0 0
1e-08 0 0
0.00322046 -0.00318665 0
1e-08 0 0
0.00284407 -0.00349231 0
1e-08 0 0
1e-08 0 0
1e-08 0 0
1e-08 0 0
1e-08 0 0
1e-08 0 0
1e-08 0 0
1e-08 0 0
1e-08 0 0
1e-08 0 0
1e-08 0 0
1e-08 0 0
1e-08 0 0
-0.00140132 0.0053913 0
1e-08 0 0
1e-08 0 0
1e-08 0 0
1e-08 0 0
1e-08 0 0
1e-08 0 0
0.00563355 -0.00926054 0
1e-08 0 0
1e-08 0 0
1e-08 0 0
1e-08 0 0
1e-08 0 0
0.00362295 -0.00896401 0
1e-08 0 0
1e-08 0 0
1e-08 0 0
1e-08 0 0
1e-08 0 0
1e-08 0 0
1e-08 0 0
1e-08 0 0
1e-08 0 0
1e-08 0 0
-0.00287106 0.00710724 0
1e-08 0 0
1e-08 0 0
1e-08 0 0
1e-08 0 0
1e-08 0 0
1e-08 0 0
1e-08 0 0
1e-08 0 0
1e-08 0 0
1e-08 0 0
1e-08 0 0
1e-08 0 0
1e-08 0 0
1e-08 0 0
0.0013549 -0.00540345 0
1e-08 0 0
1e-08 0 0
1e-08 0 0
1e-08 0 0
1e-08 0 0
1e-08 0 0
1e-08 0 0
1e-08 0 0
1e-08 0 0
-0.00373201 0.00646713 0
1e-08 0 0
1e-08 0 0
1e-08 0 0
1e-08 0 0
1e-08 0 0
1e-08 0 0
1e-08 0 0
1e-08 0 0
1e-08 0 0
1e-08 0 0
1e-08 0 0
1e-08 0 0
1e-08 0 0
1e-08 0 0
1e-08 0 0
0.0005344 -0.00391099 0
1e-08 0 0
1e-08 0 0
1e-08 0 0
1e-08 0 0
1e-08 0 0
1e-08 0 0
1e-08 0 0
1e-08 0 0
1e-08 0 0
1e-08 0 0
-0.00462317 0.005932 0
1e-08 0 0
1e-08 0 0
1e-08 0 0
1e-08 0 0
1e-08 0 0
1e-08 0 0
1e-08 0 0
1e-08 0 0
1e-08 0 0
1e-08 0 0
1e-08 0 0
1e-08 0 0
0.000114012 -0.00766209 0
1e-08 0 0
1e-08 0 0
1e-08 0 0
1e-08 0 0
1e-08 0 0
1e-08 0 0
1e-08 0 0
1e-08 0 0
1e-08 0 0
1e-08 0 0
1e-08 0 0
1e-08 0 0
-0.00228103 0.00231977 0
1e-08 0 0
1e-08 0 0
1e-08 0 0
1e-08 0 0
1e-08 0 0
1e-08 0 0
1e-08 0 0
1e-08 0 0
1e-08 0 0
1e-08 0 0
1e-08 0 0
1e-08 0 0
1e-08 0 0
-0.000865176 -0.00701407 0
1e-08 0 0
1e-08 0 0
1e-08 0 0
1e-08 0 0
1e-08 0 0
1e-08 0 0
1e-08 0 0
1e-08 0 0
-0.00487481 0.00398159 0
1e-08 0 0
1e-08 0 0
1e-08 0 0
1e-08 0 0
1e-08 0 0
1e-08 0 0
1e-08 0 0
1e-08 0 0
1e-08 0 0
1e-08 0 0
1e-08 0 0
-0.00159634 -0.00614371 0
1e-08 0 0
1e-08 0 0
1e-08 0 0
1e-08 0 0
1e-08 0 0
1e-08 0 0
1e-08 0 0
-0.00858169 0.00515527 0
1e-08 0 0
1e-08 0 0
1e-08 0 0
1e-08 0 0
1e-08 0 0
1e-08 0 0
1e-08 0 0
1e-08 0 0
1e-08 0 0
1e-08 0 0
1e-08 0 0
-0.00302278 -0.00736069 0
1e-08 0 0
1e-08 0 0
1e-08 0 0
1e-08 0 0
1e-08 0 0
-0.00750832 0.00307479 0
1e-08 0 0
1e-08 0 0
1e-08 0 0
1e-08 0 0
1e-08 0 0
1e-08 0 0
1e-08 0 0
1e-08 0 0
-0.00497307 -0.00830111 0
1e-08 0 0
1e-08 0 0
1e-08 0 0
1e-08 0 0
-0.00624446 0.00160762 0
1e-08 0 0
1e-08 0 0
1e-08 0 0
1e-08 0 0
1e-08 0 0
1e-08 0 0
-0.00362265 -0.00448356 0
1e-08 0 0
1e-08 0 0
1e-08 0 0
-0.00711888 0.000856033 0
1e-08 0 0
1e-08 0 0
1e-08 0 0
1e-08 0 0
1e-08 0 0
1e-08 0 0
-0.00270883 -0.00268648 0
1e-08 0 0
1e-08 0 0
-0.008391 -0.000179766 0
1e-08 0 0
1e-08 0 0
1e-08 0 0
1e-08 0 0
-0.00584871 -0.00456788 0
1e-08 0 0
-0.00364893 -0.000528357 0
1e-08 0 0
1e-08 0 0
-0.00676471 -0.0039028 0
-0.00549886 -0.0014169 0
-0.00709518 -0.00285345 0
