# vtk DataFile Version 2.0
CellBP Time: 6.04
ASCII
DATASET UNSTRUCTURED_GRID
POINTS 296 double
-8.9829 -3.68111 0
-8.42142 -4.83637 0
-9.37824 -2.45676 0
-9.65136 -1.21956 0
-8.13823 -2.72832 0
-7.70415 -5.90576 0
-6.85369 -6.87249 0
-7.69837 -3.75502 0
-7.13554 -4.73156 0
-5.91951 -7.73919 0
-4.88138 -8.47035 0
-9.75551 0.0394449 0
-9.69564 1.32023 0
-8.45397 -1.63105 0
-8.60812 -0.508999 0
-7.38137 -1.92941 0
-7.01116 -2.80178 0
-6.47169 -5.64908 0
-5.69898 -6.46824 0
-6.58337 -3.7647 0
-6.04298 -4.54936 0
-3.72792 -9.03717 0
-2.49748 -9.43958 0
-4.81681 -7.18653 0
-3.861 -7.76673 0
-8.62267 0.630528 0
-9.46955 2.59878 0
-8.47235 1.7359 0
-9.05807 3.81883 0
-7.55551 -0.891048 0
-7.61793 0.0883883 0
-6.77048 -1.2629 0
-1.22364 -9.68004 0
-6.27325 -2.0811 0
-6.14496 -2.96066 0
-5.39601 -5.35254 0
-4.68796 -5.99704 0
-5.50375 -3.65427 0
-5.12202 -4.45005 0
-2.82763 -8.23208 0
-1.75203 -8.49334 0
-3.85537 -6.60942 0
-3.01931 -7.04143 0
0.0544531 -9.74371 0
-7.54134 1.11923 0
-8.21224 2.86906 0
-7.40129 2.05839 0
-8.45026 4.94791 0
-7.73535 3.89607 0
-7.69645 5.99186 0
-6.61524 -0.373106 0
-6.79367 0.549005 0
-5.64549 -0.975414 0
-0.582338 -8.64491 0
0.546084 -8.58368 0
-5.18102 -2.41447 0
-4.37234 -4.98287 0
-3.81375 -5.66504 0
-4.33613 -3.72347 0
-2.03083 -7.43792 0
-1.11828 -7.64905 0
-2.94018 -5.99362 0
-2.27782 -6.51202 0
1.31807 -9.63192 0
-6.54632 1.38698 0
-7.01902 3.04028 0
-6.51994 2.31594 0
-7.14003 4.87394 0
-6.57667 3.9055 0
-6.85145 6.94527 0
-6.4253 5.75747 0
-5.90147 7.80352 0
-4.38602 -1.1683 0
-5.70167 0.494731 0
-4.58717 -0.0255453 0
-0.00295103 -7.6831 0
1.68905 -8.43409 0
0.910988 -7.58127 0
-3.97306 -2.36314 0
-3.46085 -1.38119 0
-3.22983 -4.71659 0
-3.22545 -3.21667 0
-1.36814 -6.55222 0
-0.519364 -6.8822 0
-1.95149 -5.44846 0
2.57318 -9.38403 0
-5.40188 1.99898 0
-5.96603 2.99732 0
-5.97583 4.74987 0
-5.63561 3.88744 0
-5.6259 6.55647 0
-5.33039 5.4797 0
-4.86298 8.55148 0
-4.7239 7.22242 0
-3.46679 -0.42024 0
-4.37743 1.2308 0
-3.66168 0.586318 0
-3.99415 2.29677 0
-3.71902 9.12162 0
2.77353 -8.10484 0
0.380208 -6.63538 0
1.94584 -7.32473 0
1.24369 -6.72743 0
-2.42804 -0.864772 0
-2.81561 -2.11111 0
-2.26932 -4.03625 0
-2.30108 -2.93447 0
-0.449439 -5.74418 0
-1.20493 -4.43314 0
3.78934 -8.98665 0
-4.69178 3.31873 0
-4.9774 4.47842 0
-4.54067 6.11809 0
-4.43804 5.22492 0
-3.76546 7.82307 0
-3.73057 6.6632 0
-2.72051 8.23101 0
-1.63818 -0.125831 0
-1.43762 -0.878669 0
-2.47415 0.516427 0
-3.21087 1.43624 0
-3.18492 3.26958 0
-2.87206 2.36108 0
-1.35056 0.637331 0
-2.49466 9.51216 0
3.81653 -7.67006 0
2.85648 -6.93903 0
0.907314 -5.68574 0
1.99411 -6.23544 0
-1.66558 -1.97809 0
-1.41788 -3.23915 0
0.0812511 -4.66363 0
-0.556715 -3.64743 0
4.79864 -7.11416 0
4.93764 -8.42515 0
-3.69908 4.45398 0
-3.65008 5.61246 0
-2.81183 7.10471 0
-2.94015 6.1982 0
-1.6274 8.55177 0
-1.88877 7.44622 0
-2.30517 3.98811 0
-0.721879 -1.31956 0
-0.830995 -0.247344 0
-1.93066 1.69071 0
-2.10589 2.8595 0
-1.29725 3.5124 0
-0.87172 1.36026 0
-0.285813 0.463155 0
-0.525386 8.70083 0
-1.23031 9.75214 0
1.07575 -4.47777 0
3.77762 -6.49481 0
2.88733 -5.91054 0
2.04779 -5.27924 0
4.65213 -6.0126 0
-0.548937 -2.45879 0
0.490822 -3.42034 0
0.0583476 -1.60326 0
1.44967 -3.60879 0
5.72609 -6.43693 0
6.00438 -7.70805 0
-2.42477 5.23612 0
-2.07345 6.3824 0
-0.876884 7.64685 0
-1.22796 6.77808 0
0.0935903 7.73861 0
-1.13002 4.42964 0
0.149249 -0.6115 0
-0.806457 2.49388 0
-0.342226 3.57883 0
0.053774 1.51557 0
0.735499 0.475117 0
0.632037 8.72314 0
0.0436255 9.85759 0
2.31613 -4.17931 0
3.74622 -5.46399 0
2.91482 -5.06386 0
5.44729 -5.33893 0
4.57075 -5.11507 0
0.631138 -2.28433 0
1.2402 -2.91202 0
0.757825 -1.38809 0
2.12351 -3.07745 0
2.93298 -3.39917 0
6.03532 -4.67599 0
6.51926 -5.63556 0
6.96427 -6.84938 0
-0.994021 5.70975 0
-0.348368 6.74674 0
1.1075 7.6444 0
0.563656 6.95255 0
-0.00272898 4.6678 0
0.595867 3.79301 0
1.33304 -0.642781 0
0.524646 2.64123 0
0.952493 1.57602 0
1.89557 0.208275 0
1.60194 1.06053 0
2.10194 7.46771 0
1.77346 8.57293 0
1.32946 9.78471 0
3.73448 -4.23141 0
5.00527 -4.31458 0
5.73886 -3.83518 0
3.7145 -3.12432 0
1.7989 -1.87685 0
2.97528 -2.5327 0
6.66814 -3.86468 0
7.25117 -4.80279 0
7.82955 -5.90913 0
0.482149 5.78532 0
1.41391 6.63339 0
2.34494 6.57028 0
1.19225 4.49995 0
1.46811 3.3613 0
2.41341 -0.690733 0
2.80036 0.140544 0
1.77024 2.15183 0
2.59383 1.14213 0
3.03304 7.06463 0
2.86817 8.24763 0
2.60028 9.53918 0
4.82131 -3.24203 0
6.01862 -3.03893 0
4.11127 -2.23771 0
3.20616 -1.49047 0
6.63207 -2.27799 0
7.12565 -2.99294 0
7.84682 -3.85388 0
8.56471 -4.87249 0
2.00175 5.52131 0
3.02437 6.05272 0
2.33891 4.07363 0
2.39635 3.02627 0
3.48518 -0.454232 0
3.5778 0.612791 0
2.93002 2.26379 0
3.49781 1.50866 0
3.92058 5.79155 0
3.9126 6.68222 0
3.92205 7.82046 0
3.8277 9.13294 0
5.48887 -1.88568 0
4.45077 -1.11192 0
6.60935 -1.31396 0
7.47825 -2.00586 0
8.26725 -2.81883 0
9.13544 -3.72311 0
3.34149 4.79012 0
3.28091 3.33095 0
4.62707 0.134076 0
4.43905 1.28549 0
3.98274 2.39529 0
4.44769 5.04394 0
4.73485 6.07696 0
4.89308 7.24785 0
4.97667 8.56194 0
5.78224 -0.435987 0
6.88668 -0.486097 0
7.63755 -1.06151 0
8.54485 -1.71515 0
9.54019 -2.4938 0
4.43884 3.74555 0
5.6929 1.05927 0
5.23599 2.46856 0
5.22511 4.50897 0
5.46858 5.4048 0
5.77471 6.53919 0
6.01385 7.82967 0
6.7016 0.436583 0
7.70895 -0.0276627 0
8.70703 -0.565418 0
9.78391 -1.22103 0
6.79772 1.29741 0
5.55665 3.67911 0
6.37169 2.12175 0
6.19837 2.99434 0
6.11193 4.56663 0
6.52674 5.70617 0
6.95944 6.9712 0
7.62132 0.935415 0
8.68311 0.564386 0
9.85208 0.0614196 0
7.43008 1.94097 0
6.6159 3.78299 0
7.06678 2.85121 0
7.19032 4.76437 0
7.81799 6.0122 0
8.52496 1.68735 0
9.73724 1.3247 0
8.20249 2.75855 0
7.78102 3.81718 0
8.53585 4.94737 0
9.4916 2.58122 0
9.09573 3.79804 0
CELLS 542 2168
3 2 0 4
3 0 1 7
3 4 0 7
3 1 5 8
3 7 1 8
3 3 2 13
3 13 2 4
3 11 3 14
3 14 3 13
3 13 4 15
3 4 7 16
3 15 4 16
3 5 6 17
3 8 5 17
3 6 9 18
3 17 6 18
3 7 8 19
3 16 7 19
3 8 17 20
3 19 8 20
3 9 10 23
3 18 9 23
3 10 21 24
3 23 10 24
3 12 11 25
3 25 11 14
3 26 12 27
3 27 12 25
3 14 13 29
3 29 13 15
3 25 14 30
3 30 14 29
3 29 15 31
3 15 16 33
3 31 15 33
3 16 19 34
3 33 16 34
3 17 18 35
3 20 17 35
3 18 23 36
3 35 18 36
3 19 20 37
3 34 19 37
3 20 35 38
3 37 20 38
3 21 22 39
3 24 21 39
3 22 32 40
3 39 22 40
3 23 24 41
3 36 23 41
3 24 39 42
3 41 24 42
3 27 25 44
3 44 25 30
3 28 26 45
3 45 26 27
3 45 27 46
3 46 27 44
3 47 28 48
3 48 28 45
3 30 29 50
3 50 29 31
3 44 30 51
3 51 30 50
3 50 31 52
3 31 33 52
3 32 43 53
3 40 32 53
3 53 43 54
3 33 34 55
3 34 37 55
3 33 55 52
3 35 36 56
3 38 35 56
3 36 41 57
3 56 36 57
3 37 38 58
3 38 56 58
3 37 58 55
3 39 40 59
3 42 39 59
3 40 53 60
3 59 40 60
3 41 42 61
3 57 41 61
3 42 59 62
3 61 42 62
3 43 63 54
3 46 44 64
3 64 44 51
3 48 45 65
3 65 45 46
3 65 46 66
3 66 46 64
3 49 47 67
3 67 47 48
3 67 48 68
3 68 48 65
3 69 49 70
3 70 49 67
3 52 55 72
3 64 51 73
3 51 50 73
3 50 52 73
3 73 52 74
3 74 52 72
3 53 54 75
3 60 53 75
3 54 63 76
3 54 76 77
3 75 54 77
3 55 58 78
3 72 55 78
3 72 78 79
3 56 57 80
3 57 61 80
3 56 80 58
3 58 80 81
3 78 58 81
3 59 60 82
3 62 59 82
3 60 75 83
3 82 60 83
3 61 62 84
3 62 82 84
3 61 84 80
3 63 85 76
3 66 64 86
3 64 73 86
3 68 65 87
3 87 65 66
3 87 66 86
3 70 67 88
3 88 67 68
3 88 68 89
3 89 68 87
3 71 69 90
3 90 69 70
3 90 70 91
3 91 70 88
3 92 71 93
3 93 71 90
3 74 72 94
3 94 72 79
3 86 73 95
3 95 73 74
3 95 74 96
3 96 74 94
3 97 86 95
3 76 85 99
3 75 77 100
3 83 75 100
3 76 99 101
3 77 76 101
3 77 101 102
3 100 77 102
3 94 79 103
3 78 81 104
3 79 78 104
3 79 104 103
3 80 84 105
3 81 80 105
3 81 105 106
3 104 81 106
3 82 83 107
3 83 100 107
3 82 107 84
3 84 107 108
3 105 84 108
3 85 109 99
3 89 87 110
3 87 86 110
3 110 86 97
3 91 88 111
3 111 88 89
3 111 89 110
3 93 90 112
3 112 90 91
3 112 91 113
3 113 91 111
3 98 92 114
3 114 92 93
3 114 93 115
3 115 93 112
3 116 98 114
3 117 103 118
3 96 94 119
3 94 103 119
3 119 103 117
3 97 95 120
3 120 95 96
3 120 96 119
3 121 110 97
3 121 97 122
3 122 97 120
3 123 119 117
3 124 98 116
3 99 109 125
3 99 125 126
3 101 99 126
3 100 102 127
3 100 127 107
3 101 126 128
3 102 101 128
3 102 128 127
3 104 106 129
3 104 129 103
3 103 129 118
3 105 108 130
3 106 105 130
3 106 130 129
3 107 127 131
3 108 107 131
3 108 131 132
3 108 132 130
3 109 134 125
3 125 134 133
3 113 111 135
3 111 110 135
3 135 110 121
3 115 112 136
3 136 112 113
3 136 113 135
3 116 114 137
3 137 114 115
3 137 115 138
3 138 115 136
3 139 124 116
3 139 116 140
3 140 116 137
3 141 135 121
3 118 129 142
3 118 142 143
3 117 118 143
3 123 117 143
3 122 120 144
3 120 119 144
3 144 119 123
3 141 121 145
3 145 121 122
3 145 122 144
3 146 141 145
3 147 144 123
3 147 123 148
3 143 148 123
3 150 124 139
3 149 150 139
3 131 127 151
3 125 133 152
3 126 125 152
3 126 152 153
3 128 126 153
3 128 153 154
3 128 154 127
3 127 154 151
3 152 133 155
3 130 132 156
3 130 156 129
3 129 156 142
3 131 151 157
3 132 131 157
3 132 157 156
3 156 158 142
3 157 151 159
3 133 160 155
3 134 161 133
3 133 161 160
3 138 136 162
3 136 135 162
3 162 135 141
3 140 137 163
3 163 137 138
3 163 138 162
3 149 139 164
3 164 139 140
3 164 140 165
3 165 140 163
3 166 149 164
3 167 162 141
3 167 141 146
3 142 158 168
3 143 142 168
3 143 168 148
3 146 145 169
3 145 144 169
3 169 144 147
3 170 167 146
3 170 146 169
3 171 169 147
3 171 147 148
3 171 148 172
3 168 172 148
3 173 149 166
3 174 150 149
3 173 174 149
3 154 175 151
3 151 175 159
3 152 155 176
3 153 152 176
3 153 176 177
3 153 177 154
3 154 177 175
3 155 160 178
3 155 178 179
3 176 155 179
3 156 157 180
3 156 180 158
3 157 159 181
3 157 181 180
3 158 180 182
3 158 182 168
3 159 175 183
3 159 183 181
3 175 184 183
3 160 186 178
3 178 186 185
3 161 187 160
3 160 187 186
3 165 163 188
3 163 162 188
3 188 162 167
3 166 164 189
3 189 164 165
3 189 165 188
3 190 173 166
3 190 166 191
3 191 166 189
3 192 188 167
3 192 167 170
3 193 192 170
3 182 194 168
3 194 172 168
3 193 170 195
3 170 169 195
3 195 169 171
3 196 195 171
3 196 171 172
3 194 197 172
3 197 198 172
3 198 196 172
3 200 173 190
3 199 200 190
3 201 174 173
3 200 201 173
3 176 179 202
3 177 176 202
3 177 202 175
3 175 202 184
3 178 185 203
3 178 203 179
3 179 203 202
3 203 185 204
3 202 205 184
3 183 206 181
3 180 181 206
3 180 206 182
3 182 206 194
3 183 184 207
3 205 207 184
3 183 207 206
3 185 208 204
3 186 209 185
3 185 209 208
3 187 210 186
3 186 210 209
3 191 189 211
3 189 188 211
3 211 188 192
3 199 190 212
3 212 190 191
3 212 191 211
3 213 199 212
3 214 211 192
3 214 192 193
3 215 214 193
3 215 193 195
3 206 216 194
3 216 197 194
3 216 217 197
3 215 195 218
3 218 195 196
3 198 218 196
3 217 219 197
3 219 218 198
3 197 219 198
3 220 199 213
3 221 200 199
3 220 221 199
3 222 201 200
3 221 222 200
3 203 204 223
3 203 223 202
3 202 223 205
3 204 208 224
3 204 224 223
3 205 223 225
3 205 225 207
3 207 225 226
3 207 226 206
3 226 216 206
3 208 228 224
3 224 228 227
3 209 229 208
3 229 228 208
3 210 230 209
3 209 230 229
3 213 212 231
3 212 211 231
3 231 211 214
3 232 220 213
3 232 213 231
3 233 231 214
3 233 214 215
3 234 233 215
3 234 215 218
3 226 235 216
3 235 217 216
3 235 236 217
3 217 236 219
3 237 234 218
3 237 218 219
3 236 238 219
3 238 237 219
3 240 220 232
3 239 240 232
3 241 221 220
3 240 241 220
3 242 222 221
3 241 242 221
3 224 227 243
3 224 243 223
3 223 243 225
3 225 243 244
3 225 244 226
3 226 244 235
3 227 245 243
3 228 246 227
3 227 246 245
3 229 247 228
3 228 247 246
3 230 248 229
3 229 248 247
3 239 232 249
3 232 231 249
3 249 231 233
3 250 249 233
3 250 233 234
3 237 250 234
3 244 251 235
3 235 251 236
3 251 252 236
3 236 252 238
3 252 253 238
3 253 250 237
3 253 237 238
3 254 239 249
3 255 240 239
3 254 255 239
3 256 241 240
3 255 256 240
3 257 242 241
3 256 257 241
3 245 258 243
3 243 258 244
3 244 258 251
3 245 259 258
3 246 260 245
3 245 260 259
3 247 261 246
3 246 261 260
3 248 262 247
3 247 262 261
3 254 249 263
3 263 249 250
3 253 263 250
3 258 264 251
3 251 264 252
3 264 265 252
3 265 263 253
3 252 265 253
3 266 254 263
3 267 255 254
3 266 267 254
3 268 256 255
3 267 268 255
3 269 257 256
3 268 269 256
3 259 270 258
3 270 264 258
3 260 271 259
3 259 271 270
3 261 272 260
3 260 272 271
3 262 273 261
3 273 272 261
3 270 274 264
3 275 266 263
3 275 263 265
3 274 276 264
3 276 265 264
3 276 277 265
3 277 275 265
3 278 267 266
3 275 278 266
3 279 268 267
3 278 279 267
3 280 269 268
3 279 280 268
3 271 281 270
3 270 281 274
3 272 282 271
3 271 282 281
3 273 283 272
3 272 283 282
3 281 284 274
3 274 284 276
3 285 278 275
3 277 285 275
3 284 286 276
3 286 285 277
3 276 286 277
3 287 279 278
3 285 287 278
3 288 280 279
3 287 288 279
3 282 289 281
3 281 289 284
3 283 290 282
3 282 290 289
3 289 291 284
3 284 291 286
3 291 292 286
3 292 287 285
3 286 292 285
3 293 288 287
3 292 293 287
3 290 294 289
3 289 294 291
3 294 295 291
3 295 293 292
3 291 295 292
CELL_TYPES 542
5
5
5
5
5
5
5
5
5
5
5
5
5
5
5
5
5
5
5
5
5
5
5
5
5
5
5
5
5
5
5
5
5
5
5
5
5
5
5
5
5
5
5
5
5
5
5
5
5
5
5
5
5
5
5
5
5
5
5
5
5
5
5
5
5
5
5
5
5
5
5
5
5
5
5
5
5
5
5
5
5
5
5
5
5
5
5
5
5
5
5
5
5
5
5
5
5
5
5
5
5
5
5
5
5
5
5
5
5
5
5
5
5
5
5
5
5
5
5
5
5
5
5
5
5
5
5
5
5
5
5
5
5
5
5
5
5
5
5
5
5
5
5
5
5
5
5
5
5
5
5
5
5
5
5
5
5
5
5
5
5
5
5
5
5
5
5
5
5
5
5
5
5
5
5
5
5
5
5
5
5
5
5
5
5
5
5
5
5
5
5
5
5
5
5
5
5
5
5
5
5
5
5
5
5
5
5
5
5
5
5
5
5
5
5
5
5
5
5
5
5
5
5
5
5
5
5
5
5
5
5
5
5
5
5
5
5
5
5
5
5
5
5
5
5
5
5
5
5
5
5
5
5
5
5
5
5
5
5
5
5
5
5
5
5
5
5
5
5
5
5
5
5
5
5
5
5
5
5
5
5
5
5
5
5
5
5
5
5
5
5
5
5
5
5
5
5
5
5
5
5
5
5
5
5
5
5
5
5
5
5
5
5
5
5
5
5
5
5
5
5
5
5
5
5
5
5
5
5
5
5
5
5
5
5
5
5
5
5
5
5
5
5
5
5
5
5
5
5
5
5
5
5
5
5
5
5
5
5
5
5
5
5
5
5
5
5
5
5
5
5
5
5
5
5
5
5
5
5
5
5
5
5
5
5
5
5
5
5
5
5
5
5
5
5
5
5
5
5
5
5
5
5
5
5
5
5
5
5
5
5
5
5
5
5
5
5
5
5
5
5
5
5
5
5
5
5
5
5
5
5
5
5
5
5
5
5
5
5
5
5
5
5
5
5
5
5
5
5
5
5
5
5
5
5
5
5
5
5
5
5
5
5
5
5
5
5
5
5
5
5
5
5
5
5
5
5
5
5
5
5
5
5
5
5
5
5
5
5
5
5
5
5
5
5
5
5
5
5
5
5
5
5
5
5
5
5
5
5
5
5
5
5
5
5
5
5
5
5
5
5
5
5
5
5
5
5
5
5
5
5
5
5
5
5
5
5
5
5
5
5
5
POINT_DATA 296
SCALARS concentrations float 4
LOOKUP_TABLE default
0 0.960514 0.140812 10.9308
0 0.960519 0.138541 13.1912
0 0.960504 0.142932 4.1552
0 0.960547 0.140869 10.8607
0 0.960517 0.0933731 -0.134609
0 0.960561 0.139134 3.17035
0 0.960583 0.142192 5.50761
0 0.960525 0.0949682 -0.472485
0 0.960545 0.0937545 0.00377159
0 0.96055 0.139539 4.26077
0 0.96057 0.142676 7.89508
0 0.96056 0.14253 8.69569
0 0.960611 0.138897 -1.05603
0 0.96053 0.0927574 0.00074359
0 0.960555 0.0932945 0.233633
0 0.960538 0.0939285 -0.164635
0 0.960539 0.0973631 0.661505
0 0.960585 0.093493 -0.00904176
0 0.960574 0.0929171 0.165178
0 0.96055 0.0937028 -0.0390028
0 0.960568 0.0927714 -0.0219204
0 0.960517 0.143539 10.9436
0 0.960489 0.141712 13.7521
0 0.960568 0.0925292 -0.21002
0 0.960552 0.0929783 0.158302
0 0.960581 0.0930739 0.562025
0 0.96063 0.139224 6.02058
0 0.960618 0.0936269 0.881493
0 0.96064 0.136676 5.17624
0 0.960547 0.094087 0.203621
0 0.960563 0.0935076 0.51641
0 0.96055 0.0934666 -0.0334349
0 0.960505 0.143846 6.82629
0 0.960544 0.0937822 0.29608
0 0.960542 0.0975628 -0.311331
0 0.960581 0.0927365 -0.116507
0 0.960577 0.0929563 0.100441
0 0.960546 0.0944331 -0.427652
0 0.960561 0.0927463 -0.32368
0 0.960507 0.0933234 0.27711
0 0.960515 0.0931398 0.24368
0 0.960563 0.0929625 -0.448595
0 0.960543 0.0939083 0.0472933
0 0.960486 0.139025 10.6856
0 0.960591 0.0943137 0.955115
0 0.960617 0.0950998 -0.456143
0 0.960592 0.100822 0.935038
0 0.960587 0.140785 4.95579
0 0.9606 0.0937261 0.018714
0 0.96053 0.141799 9.9893
0 0.960553 0.0934142 0.460585
0 0.960562 0.0938442 0.502006
0 0.960552 0.0932675 0.309386
0 0.960513 0.0926791 -0.0721622
0 0.960535 0.0930899 -0.263789
0 0.960543 0.0950985 0.173477
0 0.960561 0.0928657 -0.377738
0 0.960558 0.0932877 -0.197335
0 0.960548 0.092905 0.246971
0 0.960535 0.094268 -0.868051
0 0.960545 0.0932911 0.269158
0 0.960552 0.0983699 -0.212013
0 0.960551 0.0958236 -1.12527
0 0.960561 0.140462 6.98518
0 0.96057 0.0939081 0.833791
0 0.960571 0.103427 2.73095
0 0.960566 0.102015 1.49543
0 0.960549 0.0932308 -0.179534
0 0.960554 0.0959868 -1.09089
0 0.960546 0.141349 11.2098
0 0.960535 0.0936103 0.343141
0 0.960597 0.139513 2.96191
0 0.96056 0.0940665 0.69835
0 0.960556 0.0933252 -0.304968
0 0.960564 0.0951602 -0.690098
0 0.960554 0.092901 -0.217488
0 0.960566 0.0930375 0.598345
0 0.960563 0.0929679 0.391027
0 0.960553 0.0942335 -0.0385231
0 0.960569 0.0950675 -0.0223461
0 0.960552 0.0930857 0.00716036
0 0.960555 0.0931626 -0.00363652
0 0.960555 0.0936485 0.0386526
0 0.960561 0.0932011 -0.307082
0 0.960554 0.0936363 -0.0106577
0 0.960547 0.13927 9.8932
0 0.96056 0.095148 0.0200279
0 0.960555 0.0963931 0.518742
0 0.960541 0.0938582 0.43057
0 0.960549 0.094604 -0.524907
0 0.96058 0.0934524 -0.292016
0 0.960556 0.0941493 0.127779
0 0.960599 0.136709 -0.111992
0 0.960611 0.0938906 -0.284197
0 0.960579 0.094036 -0.0767428
0 0.960566 0.0945358 0.0221412
0 0.960584 0.0942126 -0.358816
0 0.960565 0.096382 0.130274
0 0.96057 0.13943 9.55416
0 0.960545 0.0940116 0.296836
0 0.960563 0.0932492 -0.0420632
0 0.960564 0.0935752 0.584949
0 0.960564 0.0928973 -0.34427
0 0.960584 0.0934246 -0.615655
0 0.960572 0.0942033 0.0184956
0 0.960558 0.0928816 0.0727788
0 0.960572 0.0936839 -0.210334
0 0.960556 0.0942226 0.411675
0 0.960553 0.0930683 -0.235394
0 0.96053 0.13719 4.28982
0 0.960561 0.0935962 -0.0808663
0 0.960555 0.0938715 -0.265845
0 0.960594 0.0941584 0.258324
0 0.960562 0.0937628 0.115103
0 0.960596 0.0938478 -0.127926
0 0.960603 0.096217 0.100861
0 0.960555 0.0936177 -0.0568083
0 0.960585 0.0936601 0.541546
0 0.960592 0.0932142 0.59614
0 0.960587 0.0938984 -1.15103
0 0.960579 0.0947867 -0.240924
0 0.960565 0.0935806 0.543323
0 0.960569 0.0944566 0.756418
0 0.960593 0.0951429 -1.32717
0 0.960553 0.139256 9.07113
0 0.960548 0.093739 0.944472
0 0.960567 0.0938212 -0.005035
0 0.960556 0.0928504 0.121999
0 0.960562 0.0936129 -0.480747
0 0.960582 0.0931096 0.295482
0 0.960562 0.0931895 0.108728
0 0.960552 0.0934222 -0.507206
0 0.960552 0.0936875 -0.628214
0 0.960564 0.0937644 -0.867874
0 0.960535 0.137655 8.93584
0 0.960567 0.0936791 0.289468
0 0.960572 0.0939678 -0.167275
0 0.960579 0.096705 -0.11852
0 0.960568 0.0946147 0.247257
0 0.960562 0.0933219 -0.0879928
0 0.960561 0.0941448 0.123707
0 0.960572 0.0949566 -1.00161
0 0.960592 0.0939785 0.909334
0 0.960593 0.0937588 -0.0375169
0 0.960589 0.0946514 -0.0387333
0 0.960585 0.0948463 -0.566981
0 0.960588 0.0943919 0.601215
0 0.960593 0.0949759 1.42378
0 0.960588 0.0940397 -1.44393
0 0.960549 0.0930193 0.293748
0 0.960583 0.140324 5.46737
0 0.960557 0.0933104 -0.799194
0 0.960567 0.0945311 -0.613358
0 0.960558 0.0937709 -0.760387
0 0.960557 0.093214 0.822643
0 0.960568 0.0938218 -1.02866
0 0.960566 0.0943598 -0.693755
0 0.960556 0.0949038 0.232568
0 0.960584 0.0974562 -0.351325
0 0.960558 0.0946862 -0.959641
0 0.960611 0.0930352 0.153595
0 0.960594 0.138839 3.56505
0 0.960567 0.0960169 -0.264289
0 0.960566 0.0939115 0.215044
0 0.960547 0.0937528 -0.223713
0 0.960564 0.0943656 0.289751
0 0.960534 0.0937445 -0.0792405
0 0.960574 0.0939125 -0.243799
0 0.960589 0.0958378 1.5652
0 0.960592 0.094285 1.81434
0 0.960587 0.0949092 1.11384
0 0.960582 0.0945888 -2.01221
0 0.96058 0.0942444 2.02013
0 0.960532 0.0935027 0.161699
0 0.960542 0.139135 10.716
0 0.960559 0.09401 -0.972252
0 0.960558 0.0938264 1.00762
0 0.960558 0.0935263 1.18516
0 0.960569 0.0931193 0.680868
0 0.960563 0.0939137 0.879268
0 0.960565 0.0946173 -1.32278
0 0.960562 0.0950706 -0.911268
0 0.960576 0.0957312 -0.233109
0 0.960559 0.0941471 -1.33745
0 0.960554 0.0939076 -0.521248
0 0.960574 0.093038 0.455301
0 0.960635 0.0926086 0.0393133
0 0.960661 0.140336 4.00639
0 0.960567 0.0940021 -0.535294
0 0.96056 0.0934015 -0.27553
0 0.960547 0.0942764 0.410558
0 0.960558 0.0939903 -0.195061
0 0.960581 0.0945045 -0.253508
0 0.960591 0.0941222 0.769993
0 0.96057 0.0948166 1.97084
0 0.960591 0.094343 -2.04912
0 0.960598 0.0944971 1.95499
0 0.960588 0.0957668 1.85204
0 0.960609 0.0941546 1.84943
0 0.960567 0.0936965 -0.503461
0 0.960564 0.0938739 0.106252
0 0.960549 0.138008 11.6382
0 0.960558 0.093705 -0.55444
0 0.960553 0.093906 0.56043
0 0.960555 0.0935347 0.293815
0 0.960554 0.0938824 -0.770498
0 0.960562 0.0960246 -0.112816
0 0.960559 0.0938475 -1.15598
0 0.960576 0.0934171 -0.245009
0 0.960642 0.0931326 -0.3989
0 0.960678 0.139501 2.56674
0 0.96057 0.0967602 -0.0934852
0 0.960563 0.0947802 0.640457
0 0.960559 0.0952712 -0.494864
0 0.960581 0.0966186 1.38903
0 0.96059 0.0939293 -1.92703
0 0.960561 0.0956927 2.01165
0 0.960599 0.0954479 2.09927
0 0.9606 0.0956573 0.235451
0 0.960621 0.0955355 1.96859
0 0.960572 0.0942256 0.393174
0 0.96061 0.0934293 -0.353865
0 0.960602 0.13616 1.75565
0 0.960556 0.0936927 0.554746
0 0.960562 0.0933194 0.0350538
0 0.960561 0.0936741 -0.609535
0 0.960558 0.0943442 -0.0482807
0 0.960555 0.0943822 -0.217691
0 0.960567 0.0940917 -0.270185
0 0.960622 0.0934833 -0.175164
0 0.960684 0.138711 0.754145
0 0.960555 0.0949599 0.736037
0 0.960545 0.0943693 -0.504944
0 0.960564 0.0961529 1.45313
0 0.960576 0.0944914 -2.09104
0 0.960568 0.0943583 0.672327
0 0.960602 0.0946031 1.47622
0 0.960587 0.0955937 -1.84312
0 0.960599 0.0959786 0.709197
0 0.96054 0.0943704 -0.579587
0 0.960566 0.0940405 0.159022
0 0.960643 0.0939367 0.157672
0 0.960668 0.137558 7.55151
0 0.960557 0.0949953 0.284681
0 0.96056 0.0943299 -0.693174
0 0.960553 0.0944279 -0.297396
0 0.960558 0.0937133 0.00115848
0 0.960583 0.0933659 -0.233192
0 0.960624 0.141788 5.34999
0 0.960544 0.0946126 -0.979057
0 0.96056 0.0949368 0.940178
0 0.960565 0.0945576 1.07438
0 0.960563 0.0939661 -0.900206
0 0.96056 0.0948355 1.50107
0 0.960549 0.0940913 0.0264452
0 0.960567 0.0927987 -0.140868
0 0.960649 0.0935839 -0.192729
0 0.960701 0.139061 3.51584
0 0.960557 0.0943491 -0.0135629
0 0.960561 0.0935135 -0.0373199
0 0.960566 0.0937746 -0.0303422
0 0.960576 0.0927838 -0.0742866
0 0.960585 0.141827 9.3103
0 0.960554 0.0935968 0.395055
0 0.960556 0.0943103 -0.737046
0 0.960553 0.0938094 0.692553
0 0.960562 0.0940905 0.039499
0 0.960577 0.0934286 -0.0658177
0 0.960635 0.0925443 -0.317923
0 0.960693 0.139528 4.06454
0 0.960555 0.0941935 0.338112
0 0.960571 0.0933765 -0.216172
0 0.960588 0.0927452 -0.147548
0 0.960588 0.138061 2.24095
0 0.960561 0.093936 -0.210134
0 0.960568 0.0938051 0.26024
0 0.96056 0.0937448 -0.36636
0 0.960564 0.0945206 0.604237
0 0.960582 0.0930898 0.953292
0 0.960615 0.0945433 0.802618
0 0.960651 0.139346 2.77496
0 0.960574 0.0929954 -0.315019
0 0.96059 0.093316 0.0849219
0 0.960602 0.140003 6.93738
0 0.960584 0.0940407 -0.748997
0 0.960584 0.0962934 1.63224
0 0.960585 0.0943907 -0.460855
0 0.960595 0.0939746 -0.835956
0 0.960618 0.13553 5.8025
0 0.9606 0.0925848 0.599821
0 0.960596 0.137317 0.915979
0 0.960623 0.0937041 0.745822
0 0.960606 0.0938659 0.259488
0 0.960603 0.137976 3.06042
0 0.960631 0.138916 8.57446
0 0.960637 0.139162 1.06831
VECTORS fa_u float
0.00705117 0.00283522 -0
0.00643078 0.00369645 -0
0.00340857 0.000925634 -0
0.00706708 0.0010681 -0
1e-08 0 0
0.00523704 0.00403227 -0
0.00286727 0.00279097 -0
1e-08 0 0
1e-08 0 0
0.00444796 0.00549033 -0
0.00488263 0.00824414 -0
0.00653875 0.000114001 -0
0.00631836 -0.000705947 0
1e-08 0 0
1e-08 0 0
1e-08 0 0
1e-08 0 0
1e-08 0 0
1e-08 0 0
1e-08 0 0
1e-08 0 0
0.00287687 0.00707593 -0
0.00160401 0.00624833 -0
1e-08 0 0
1e-08 0 0
1e-08 0 0
0.00842147 -0.00214891 0
1e-08 0 0
0.0100804 -0.00437391 0
1e-08 0 0
1e-08 0 0
1e-08 0 0
0.000856385 0.00718597 -0
1e-08 0 0
1e-08 0 0
1e-08 0 0
1e-08 0 0
1e-08 0 0
1e-08 0 0
1e-08 0 0
1e-08 0 0
1e-08 0 0
1e-08 0 0
-0.000140939 0.00744356 -0
1e-08 0 0
1e-08 0 0
1e-08 0 0
0.00568646 -0.00356314 0
1e-08 0 0
0.00302876 -0.00242441 0
1e-08 0 0
1e-08 0 0
1e-08 0 0
1e-08 0 0
1e-08 0 0
1e-08 0 0
1e-08 0 0
1e-08 0 0
1e-08 0 0
1e-08 0 0
1e-08 0 0
1e-08 0 0
1e-08 0 0
-0.000630744 0.00441701 0
1e-08 0 0
1e-08 0 0
1e-08 0 0
1e-08 0 0
1e-08 0 0
0.00341175 -0.00338033 0
1e-08 0 0
0.00299101 -0.00370284 0
1e-08 0 0
1e-08 0 0
1e-08 0 0
1e-08 0 0
1e-08 0 0
1e-08 0 0
1e-08 0 0
1e-08 0 0
1e-08 0 0
1e-08 0 0
1e-08 0 0
1e-08 0 0
1e-08 0 0
-0.0014372 0.00550421 0
1e-08 0 0
1e-08 0 0
1e-08 0 0
1e-08 0 0
1e-08 0 0
1e-08 0 0
0.00526356 -0.00871515 0
1e-08 0 0
1e-08 0 0
1e-08 0 0
1e-08 0 0
1e-08 0 0
0.00344233 -0.00848628 0
1e-08 0 0
1e-08 0 0
1e-08 0 0
1e-08 0 0
1e-08 0 0
1e-08 0 0
1e-08 0 0
1e-08 0 0
1e-08 0 0
1e-08 0 0
-0.00282638 0.00696941 0
1e-08 0 0
1e-08 0 0
1e-08 0 0
1e-08 0 0
1e-08 0 0
1e-08 0 0
1e-08 0 0
1e-08 0 0
1e-08 0 0
1e-08 0 0
1e-08 0 0
1e-08 0 0
1e-08 0 0
1e-08 0 0
0.00139806 -0.00551822 0
1e-08 0 0
1e-08 0 0
1e-08 0 0
1e-08 0 0
1e-08 0 0
1e-08 0 0
1e-08 0 0
1e-08 0 0
1e-08 0 0
-0.00364862 0.0063209 0
1e-08 0 0
1e-08 0 0
1e-08 0 0
1e-08 0 0
1e-08 0 0
1e-08 0 0
1e-08 0 0
1e-08 0 0
1e-08 0 0
1e-08 0 0
1e-08 0 0
1e-08 0 0
1e-08 0 0
1e-08 0 0
1e-08 0 0
0.000578227 -0.0042489 0
1e-08 0 0
1e-08 0 0
1e-08 0 0
1e-08 0 0
1e-08 0 0
1e-08 0 0
1e-08 0 0
1e-08 0 0
1e-08 0 0
1e-08 0 0
-0.00452138 0.00581507 0
1e-08 0 0
1e-08 0 0
1e-08 0 0
1e-08 0 0
1e-08 0 0
1e-08 0 0
1e-08 0 0
1e-08 0 0
1e-08 0 0
1e-08 0 0
1e-08 0 0
1e-08 0 0
9.56635e-05 -0.00751923 0
1e-08 0 0
1e-08 0 0
1e-08 0 0
1e-08 0 0
1e-08 0 0
1e-08 0 0
1e-08 0 0
1e-08 0 0
1e-08 0 0
1e-08 0 0
1e-08 0 0
1e-08 0 0
-0.00257487 0.00261243 0
1e-08 0 0
1e-08 0 0
1e-08 0 0
1e-08 0 0
1e-08 0 0
1e-08 0 0
1e-08 0 0
1e-08 0 0
1e-08 0 0
1e-08 0 0
1e-08 0 0
1e-08 0 0
1e-08 0 0
-0.000859193 -0.00689899 0
1e-08 0 0
1e-08 0 0
1e-08 0 0
1e-08 0 0
1e-08 0 0
1e-08 0 0
1e-08 0 0
1e-08 0 0
-0.0049051 0.00397102 0
1e-08 0 0
1e-08 0 0
1e-08 0 0
1e-08 0 0
1e-08 0 0
1e-08 0 0
1e-08 0 0
1e-08 0 0
1e-08 0 0
1e-08 0 0
1e-08 0 0
-0.0016124 -0.00618031 0
1e-08 0 0
1e-08 0 0
1e-08 0 0
1e-08 0 0
1e-08 0 0
1e-08 0 0
1e-08 0 0
-0.00813494 0.00485967 0
1e-08 0 0
1e-08 0 0
1e-08 0 0
1e-08 0 0
1e-08 0 0
1e-08 0 0
1e-08 0 0
1e-08 0 0
1e-08 0 0
1e-08 0 0
1e-08 0 0
-0.0029476 -0.00716779 0
1e-08 0 0
1e-08 0 0
1e-08 0 0
1e-08 0 0
1e-08 0 0
-0.00729016 0.00298965 0
1e-08 0 0
1e-08 0 0
1e-08 0 0
1e-08 0 0
1e-08 0 0
1e-08 0 0
1e-08 0 0
1e-08 0 0
-0.00470587 -0.00789382 0
1e-08 0 0
1e-08 0 0
1e-08 0 0
1e-08 0 0
-0.00618613 0.00160329 0
1e-08 0 0
1e-08 0 0
1e-08 0 0
1e-08 0 0
1e-08 0 0
1e-08 0 0
-0.0036691 -0.00457332 0
1e-08 0 0
1e-08 0 0
1e-08 0 0
-0.0070979 0.00086636 0
1e-08 0 0
1e-08 0 0
1e-08 0 0
1e-08 0 0
1e-08 0 0
1e-08 0 0
-0.00295614 -0.00293446 0
1e-08 0 0
1e-08 0 0
-0.00805942 -0.000147735 0
1e-08 0 0
1e-08 0 0
1e-08 0 0
1e-08 0 0
-0.00573757 -0.00446912 0
1e-08 0 0
-0.00406456 -0.000581473 0
1e-08 0 0
1e-08 0 0
-0.00658452 -0.00379977 0
-0.00556167 -0.00144254 0
-0.00695286 -0.00280843 0
