# vtk DataFile Version 2.0
CellBP Time: 4.44
ASCII
DATASET UNSTRUCTURED_GRID
POINTS 296 double
-9.02542 -3.70094 0
-8.46035 -4.85965 0
-9.42537 -2.4734 0
-9.69526 -1.22676 0
-8.18184 -2.74576 0
-7.74089 -5.93272 0
-6.88797 -6.90285 0
-7.74264 -3.77928 0
-7.17727 -4.75956 0
-5.94407 -7.76888 0
-4.89592 -8.49923 0
-9.79551 0.0415618 0
-9.73049 1.32741 0
-8.49631 -1.64119 0
-8.64277 -0.513274 0
-7.42422 -1.94344 0
-7.05501 -2.82207 0
-6.50699 -5.67306 0
-5.72325 -6.49511 0
-6.62483 -3.78952 0
-6.07872 -4.57459 0
-3.73842 -9.06873 0
-2.50609 -9.47478 0
-4.83561 -7.2121 0
-3.87158 -7.79251 0
-8.65747 0.631751 0
-9.49882 2.60704 0
-8.5025 1.74412 0
-9.08562 3.83109 0
-7.5923 -0.899253 0
-7.65303 0.0861797 0
-6.8064 -1.27296 0
-1.23014 -9.71788 0
-6.30681 -2.09573 0
-6.18055 -2.98007 0
-5.42425 -5.37753 0
-4.70973 -6.02213 0
-5.53617 -3.67575 0
-5.15124 -4.4721 0
-2.8352 -8.26026 0
-1.75734 -8.52431 0
-3.87062 -6.6316 0
-3.028 -7.06388 0
0.0535067 -9.78604 0
-7.57494 1.12408 0
-8.23818 2.87856 0
-7.43205 2.06933 0
-8.4833 4.96911 0
-7.76593 3.91091 0
-7.73506 6.02234 0
-6.64801 -0.37799 0
-6.82593 0.549647 0
-5.67175 -0.982143 0
-0.58447 -8.67833 0
0.550896 -8.62252 0
-5.20585 -2.42811 0
-4.39689 -5.00496 0
-3.83193 -5.68641 0
-4.35634 -3.74167 0
-2.03716 -7.462 0
-1.12202 -7.67854 0
-2.95138 -6.01598 0
-2.28429 -6.53394 0
1.32563 -9.67941 0
-6.57506 1.39487 0
-7.05028 3.05623 0
-6.54788 2.32877 0
-7.17253 4.89652 0
-6.60522 3.92569 0
-6.88655 6.98173 0
-6.45634 5.78583 0
-5.92947 7.8405 0
-4.39951 -1.17074 0
-5.72392 0.498079 0
-4.60207 -0.0231913 0
0.00106035 -7.71638 0
1.69779 -8.4771 0
0.918664 -7.61924 0
-3.98687 -2.37273 0
-3.46617 -1.38246 0
-3.24305 -4.7355 0
-3.23299 -3.22681 0
-1.37044 -6.57786 0
-0.51733 -6.9099 0
-1.95802 -5.46689 0
2.58634 -9.43011 0
-5.42383 2.00652 0
-5.99209 3.01319 0
-6.0012 4.77408 0
-5.66131 3.90833 0
-5.6556 6.58923 0
-5.35458 5.50761 0
-4.88092 8.58421 0
-4.74737 7.2584 0
-3.47303 -0.42097 0
-4.39253 1.23497 0
-3.67161 0.58697 0
-4.00761 2.30117 0
-3.73104 9.15624 0
2.79036 -8.15094 0
0.387951 -6.66695 0
1.9611 -7.36486 0
1.25671 -6.76289 0
-2.43147 -0.865727 0
-2.82009 -2.1141 0
-2.27388 -4.04899 0
-2.30663 -2.94229 0
-0.448408 -5.76825 0
-1.2082 -4.44688 0
3.80696 -9.02779 0
-4.71049 3.33463 0
-5.00068 4.50303 0
-4.56185 6.15172 0
-4.45804 5.25293 0
-3.78144 7.85712 0
-3.75061 6.70017 0
-2.73379 8.26898 0
-1.64107 -0.128726 0
-1.44134 -0.882005 0
-2.47701 0.514716 0
-3.22 1.43807 0
-3.19606 3.27822 0
-2.8802 2.36346 0
-1.35213 0.636113 0
-2.50358 9.55241 0
3.83821 -7.71382 0
2.8776 -6.98328 0
0.916935 -5.71263 0
2.00979 -6.27259 0
-1.66946 -1.98036 0
-1.42104 -3.2473 0
0.0847316 -4.68176 0
-0.558526 -3.65752 0
4.82443 -7.15623 0
4.96042 -8.46295 0
-3.71609 4.47497 0
-3.66746 5.64056 0
-2.82799 7.14182 0
-2.95418 6.23047 0
-1.63559 8.58815 0
-1.89902 7.482 0
-2.312 4.00164 0
-0.723726 -1.32101 0
-0.832615 -0.249921 0
-1.93225 1.68868 0
-2.11003 2.8636 0
-1.29973 3.51999 0
-0.872116 1.35842 0
-0.284544 0.462196 0
-0.526898 8.73669 0
-1.23533 9.79518 0
1.08303 -4.49707 0
3.80383 -6.53907 0
2.90812 -5.94741 0
2.06086 -5.30824 0
4.67838 -6.05106 0
-0.551716 -2.46321 0
0.492668 -3.42913 0
0.0572956 -1.60597 0
1.45695 -3.62382 0
5.75449 -6.47189 0
6.03136 -7.74374 0
-2.43508 5.258 0
-2.08586 6.41432 0
-0.8798 7.67882 0
-1.23626 6.81026 0
0.0932251 7.76862 0
-1.1331 4.44324 0
0.148292 -0.61373 0
-0.805457 2.49379 0
-0.341364 3.58257 0
0.0556457 1.51526 0
0.737163 0.474105 0
0.633696 8.75404 0
0.0449266 9.89688 0
2.33015 -4.20072 0
3.76857 -5.49905 0
2.93217 -5.09286 0
5.47225 -5.36976 0
4.59403 -5.14843 0
0.630455 -2.28645 0
1.24218 -2.92099 0
0.757372 -1.38984 0
2.1309 -3.08873 0
2.94499 -3.41458 0
6.05937 -4.69832 0
6.54806 -5.66127 0
6.99625 -6.88445 0
-0.999072 5.73165 0
-0.354132 6.77464 0
1.11141 7.67001 0
0.562046 6.97952 0
-0.00219641 4.67869 0
0.597086 3.80054 0
1.33439 -0.6428 0
0.527767 2.64424 0
0.954256 1.5765 0
1.89898 0.210339 0
1.60492 1.06051 0
2.10813 7.49154 0
1.779 8.60283 0
1.33485 9.82143 0
3.75333 -4.25674 0
5.02676 -4.34157 0
5.75925 -3.8541 0
3.72877 -3.14055 0
1.80107 -1.87828 0
2.98476 -2.54261 0
6.69261 -3.88197 0
7.2796 -4.82134 0
7.8609 -5.93538 0
0.482821 5.8045 0
1.41668 6.65603 0
2.35037 6.59041 0
1.19482 4.51189 0
1.47341 3.36885 0
2.41781 -0.690587 0
2.80664 0.141605 0
1.77446 2.15384 0
2.5973 1.14373 0
3.0419 7.08558 0
2.8759 8.27516 0
2.60826 9.57394 0
4.83907 -3.25807 0
6.03961 -3.0525 0
4.12288 -2.24638 0
3.21443 -1.49285 0
6.65165 -2.28583 0
7.14756 -3.0033 0
7.87231 -3.86621 0
8.59474 -4.88859 0
2.00622 5.53792 0
3.03784 6.07293 0
2.34333 4.08387 0
2.40212 3.0337 0
3.49341 -0.455027 0
3.58612 0.613242 0
2.93723 2.26896 0
3.50779 1.513 0
3.93902 5.8134 0
3.92798 6.70429 0
3.93232 7.84573 0
3.83821 9.16527 0
5.50578 -1.8913 0
4.4637 -1.11593 0
6.63135 -1.31986 0
7.50309 -2.01213 0
8.2945 -2.82829 0
9.16698 -3.73425 0
3.35762 4.80786 0
3.29228 3.3418 0
4.64079 0.133126 0
4.45546 1.29041 0
3.99938 2.4049 0
4.4726 5.0654 0
4.75707 6.09983 0
4.91072 7.27615 0
4.9921 8.59242 0
5.80439 -0.435685 0
6.91053 -0.485837 0
7.66154 -1.06471 0
8.57429 -1.72137 0
9.57469 -2.50283 0
4.46221 3.76175 0
5.71973 1.06658 0
5.26324 2.48224 0
5.25598 4.53155 0
5.49672 5.42884 0
5.79972 6.56736 0
6.03934 7.86131 0
6.73003 0.441439 0
7.7385 -0.0260608 0
8.73954 -0.569116 0
9.82095 -1.22783 0
6.82951 1.30721 0
5.59045 3.69954 0
6.40543 2.13666 0
6.23411 3.01311 0
6.14855 4.59147 0
6.55958 5.73419 0
6.99263 7.00193 0
7.65507 0.941895 0
8.7204 0.564762 0
9.8925 0.0593601 0
7.46854 1.95373 0
6.65945 3.8071 0
7.10775 2.87056 0
7.22869 4.78981 0
7.85176 6.03782 0
8.56563 1.69425 0
9.78333 1.33114 0
8.24737 2.77536 0
7.8217 3.83627 0
8.57129 4.96825 0
9.53601 2.59301 0
9.13508 3.81417 0
CELLS 542 2168
3 2 0 4
3 0 1 7
3 4 0 7
3 1 5 8
3 7 1 8
3 3 2 13
3 13 2 4
3 11 3 14
3 14 3 13
3 13 4 15
3 4 7 16
3 15 4 16
3 5 6 17
3 8 5 17
3 6 9 18
3 17 6 18
3 7 8 19
3 16 7 19
3 8 17 20
3 19 8 20
3 9 10 23
3 18 9 23
3 10 21 24
3 23 10 24
3 12 11 25
3 25 11 14
3 26 12 27
3 27 12 25
3 14 13 29
3 29 13 15
3 25 14 30
3 30 14 29
3 29 15 31
3 15 16 33
3 31 15 33
3 16 19 34
3 33 16 34
3 17 18 35
3 20 17 35
3 18 23 36
3 35 18 36
3 19 20 37
3 34 19 37
3 20 35 38
3 37 20 38
3 21 22 39
3 24 21 39
3 22 32 40
3 39 22 40
3 23 24 41
3 36 23 41
3 24 39 42
3 41 24 42
3 27 25 44
3 44 25 30
3 28 26 45
3 45 26 27
3 45 27 46
3 46 27 44
3 47 28 48
3 48 28 45
3 30 29 50
3 50 29 31
3 44 30 51
3 51 30 50
3 50 31 52
3 31 33 52
3 32 43 53
3 40 32 53
3 53 43 54
3 33 34 55
3 34 37 55
3 33 55 52
3 35 36 56
3 38 35 56
3 36 41 57
3 56 36 57
3 37 38 58
3 38 56 58
3 37 58 55
3 39 40 59
3 42 39 59
3 40 53 60
3 59 40 60
3 41 42 61
3 57 41 61
3 42 59 62
3 61 42 62
3 43 63 54
3 46 44 64
3 64 44 51
3 48 45 65
3 65 45 46
3 65 46 66
3 66 46 64
3 49 47 67
3 67 47 48
3 67 48 68
3 68 48 65
3 69 49 70
3 70 49 67
3 52 55 72
3 64 51 73
3 51 50 73
3 50 52 73
3 73 52 74
3 74 52 72
3 53 54 75
3 60 53 75
3 54 63 76
3 54 76 77
3 75 54 77
3 55 58 78
3 72 55 78
3 72 78 79
3 56 57 80
3 57 61 80
3 56 80 58
3 58 80 81
3 78 58 81
3 59 60 82
3 62 59 82
3 60 75 83
3 82 60 83
3 61 62 84
3 62 82 84
3 61 84 80
3 63 85 76
3 66 64 86
3 64 73 86
3 68 65 87
3 87 65 66
3 87 66 86
3 70 67 88
3 88 67 68
3 88 68 89
3 89 68 87
3 71 69 90
3 90 69 70
3 90 70 91
3 91 70 88
3 92 71 93
3 93 71 90
3 74 72 94
3 94 72 79
3 86 73 95
3 95 73 74
3 95 74 96
3 96 74 94
3 97 86 95
3 76 85 99
3 75 77 100
3 83 75 100
3 76 99 101
3 77 76 101
3 77 101 102
3 100 77 102
3 94 79 103
3 78 81 104
3 79 78 104
3 79 104 103
3 80 84 105
3 81 80 105
3 81 105 106
3 104 81 106
3 82 83 107
3 83 100 107
3 82 107 84
3 84 107 108
3 105 84 108
3 85 109 99
3 89 87 110
3 87 86 110
3 110 86 97
3 91 88 111
3 111 88 89
3 111 89 110
3 93 90 112
3 112 90 91
3 112 91 113
3 113 91 111
3 98 92 114
3 114 92 93
3 114 93 115
3 115 93 112
3 116 98 114
3 117 103 118
3 96 94 119
3 94 103 119
3 119 103 117
3 97 95 120
3 120 95 96
3 120 96 119
3 121 110 97
3 121 97 122
3 122 97 120
3 123 119 117
3 124 98 116
3 99 109 125
3 99 125 126
3 101 99 126
3 100 102 127
3 100 127 107
3 101 126 128
3 102 101 128
3 102 128 127
3 104 106 129
3 104 129 103
3 103 129 118
3 105 108 130
3 106 105 130
3 106 130 129
3 107 127 131
3 108 107 131
3 108 131 132
3 108 132 130
3 109 134 125
3 125 134 133
3 113 111 135
3 111 110 135
3 135 110 121
3 115 112 136
3 136 112 113
3 136 113 135
3 116 114 137
3 137 114 115
3 137 115 138
3 138 115 136
3 139 124 116
3 139 116 140
3 140 116 137
3 141 135 121
3 118 129 142
3 118 142 143
3 117 118 143
3 123 117 143
3 122 120 144
3 120 119 144
3 144 119 123
3 141 121 145
3 145 121 122
3 145 122 144
3 146 141 145
3 147 144 123
3 147 123 148
3 143 148 123
3 150 124 139
3 149 150 139
3 131 127 151
3 125 133 152
3 126 125 152
3 126 152 153
3 128 126 153
3 128 153 154
3 128 154 127
3 127 154 151
3 152 133 155
3 130 132 156
3 130 156 129
3 129 156 142
3 131 151 157
3 132 131 157
3 132 157 156
3 156 158 142
3 157 151 159
3 133 160 155
3 134 161 133
3 133 161 160
3 138 136 162
3 136 135 162
3 162 135 141
3 140 137 163
3 163 137 138
3 163 138 162
3 149 139 164
3 164 139 140
3 164 140 165
3 165 140 163
3 166 149 164
3 167 162 141
3 167 141 146
3 142 158 168
3 143 142 168
3 143 168 148
3 146 145 169
3 145 144 169
3 169 144 147
3 170 167 146
3 170 146 169
3 171 169 147
3 171 147 148
3 171 148 172
3 168 172 148
3 173 149 166
3 174 150 149
3 173 174 149
3 154 175 151
3 151 175 159
3 152 155 176
3 153 152 176
3 153 176 177
3 153 177 154
3 154 177 175
3 155 160 178
3 155 178 179
3 176 155 179
3 156 157 180
3 156 180 158
3 157 159 181
3 157 181 180
3 158 180 182
3 158 182 168
3 159 175 183
3 159 183 181
3 175 184 183
3 160 186 178
3 178 186 185
3 161 187 160
3 160 187 186
3 165 163 188
3 163 162 188
3 188 162 167
3 166 164 189
3 189 164 165
3 189 165 188
3 190 173 166
3 190 166 191
3 191 166 189
3 192 188 167
3 192 167 170
3 193 192 170
3 182 194 168
3 194 172 168
3 193 170 195
3 170 169 195
3 195 169 171
3 196 195 171
3 196 171 172
3 194 197 172
3 197 198 172
3 198 196 172
3 200 173 190
3 199 200 190
3 201 174 173
3 200 201 173
3 176 179 202
3 177 176 202
3 177 202 175
3 175 202 184
3 178 185 203
3 178 203 179
3 179 203 202
3 203 185 204
3 202 205 184
3 183 206 181
3 180 181 206
3 180 206 182
3 182 206 194
3 183 184 207
3 205 207 184
3 183 207 206
3 185 208 204
3 186 209 185
3 185 209 208
3 187 210 186
3 186 210 209
3 191 189 211
3 189 188 211
3 211 188 192
3 199 190 212
3 212 190 191
3 212 191 211
3 213 199 212
3 214 211 192
3 214 192 193
3 215 214 193
3 215 193 195
3 206 216 194
3 216 197 194
3 216 217 197
3 215 195 218
3 218 195 196
3 198 218 196
3 217 219 197
3 219 218 198
3 197 219 198
3 220 199 213
3 221 200 199
3 220 221 199
3 222 201 200
3 221 222 200
3 203 204 223
3 203 223 202
3 202 223 205
3 204 208 224
3 204 224 223
3 205 223 225
3 205 225 207
3 207 225 226
3 207 226 206
3 226 216 206
3 208 228 224
3 224 228 227
3 209 229 208
3 229 228 208
3 210 230 209
3 209 230 229
3 213 212 231
3 212 211 231
3 231 211 214
3 232 220 213
3 232 213 231
3 233 231 214
3 233 214 215
3 234 233 215
3 234 215 218
3 226 235 216
3 235 217 216
3 235 236 217
3 217 236 219
3 237 234 218
3 237 218 219
3 236 238 219
3 238 237 219
3 240 220 232
3 239 240 232
3 241 221 220
3 240 241 220
3 242 222 221
3 241 242 221
3 224 227 243
3 224 243 223
3 223 243 225
3 225 243 244
3 225 244 226
3 226 244 235
3 227 245 243
3 228 246 227
3 227 246 245
3 229 247 228
3 228 247 246
3 230 248 229
3 229 248 247
3 239 232 249
3 232 231 249
3 249 231 233
3 250 249 233
3 250 233 234
3 237 250 234
3 244 251 235
3 235 251 236
3 251 252 236
3 236 252 238
3 252 253 238
3 253 250 237
3 253 237 238
3 254 239 249
3 255 240 239
3 254 255 239
3 256 241 240
3 255 256 240
3 257 242 241
3 256 257 241
3 245 258 243
3 243 258 244
3 244 258 251
3 245 259 258
3 246 260 245
3 245 260 259
3 247 261 246
3 246 261 260
3 248 262 247
3 247 262 261
3 254 249 263
3 263 249 250
3 253 263 250
3 258 264 251
3 251 264 252
3 264 265 252
3 265 263 253
3 252 265 253
3 266 254 263
3 267 255 254
3 266 267 254
3 268 256 255
3 267 268 255
3 269 257 256
3 268 269 256
3 259 270 258
3 270 264 258
3 260 271 259
3 259 271 270
3 261 272 260
3 260 272 271
3 262 273 261
3 273 272 261
3 270 274 264
3 275 266 263
3 275 263 265
3 274 276 264
3 276 265 264
3 276 277 265
3 277 275 265
3 278 267 266
3 275 278 266
3 279 268 267
3 278 279 267
3 280 269 268
3 279 280 268
3 271 281 270
3 270 281 274
3 272 282 271
3 271 282 281
3 273 283 272
3 272 283 282
3 281 284 274
3 274 284 276
3 285 278 275
3 277 285 275
3 284 286 276
3 286 285 277
3 276 286 277
3 287 279 278
3 285 287 278
3 288 280 279
3 287 288 279
3 282 289 281
3 281 289 284
3 283 290 282
3 282 290 289
3 289 291 284
3 284 291 286
3 291 292 286
3 292 287 285
3 286 292 285
3 293 288 287
3 292 293 287
3 290 294 289
3 289 294 291
3 294 295 291
3 295 293 292
3 291 295 292
CELL_TYPES 542
5
5
5
5
5
5
5
5
5
5
5
5
5
5
5
5
5
5
5
5
5
5
5
5
5
5
5
5
5
5
5
5
5
5
5
5
5
5
5
5
5
5
5
5
5
5
5
5
5
5
5
5
5
5
5
5
5
5
5
5
5
5
5
5
5
5
5
5
5
5
5
5
5
5
5
5
5
5
5
5
5
5
5
5
5
5
5
5
5
5
5
5
5
5
5
5
5
5
5
5
5
5
5
5
5
5
5
5
5
5
5
5
5
5
5
5
5
5
5
5
5
5
5
5
5
5
5
5
5
5
5
5
5
5
5
5
5
5
5
5
5
5
5
5
5
5
5
5
5
5
5
5
5
5
5
5
5
5
5
5
5
5
5
5
5
5
5
5
5
5
5
5
5
5
5
5
5
5
5
5
5
5
5
5
5
5
5
5
5
5
5
5
5
5
5
5
5
5
5
5
5
5
5
5
5
5
5
5
5
5
5
5
5
5
5
5
5
5
5
5
5
5
5
5
5
5
5
5
5
5
5
5
5
5
5
5
5
5
5
5
5
5
5
5
5
5
5
5
5
5
5
5
5
5
5
5
5
5
5
5
5
5
5
5
5
5
5
5
5
5
5
5
5
5
5
5
5
5
5
5
5
5
5
5
5
5
5
5
5
5
5
5
5
5
5
5
5
5
5
5
5
5
5
5
5
5
5
5
5
5
5
5
5
5
5
5
5
5
5
5
5
5
5
5
5
5
5
5
5
5
5
5
5
5
5
5
5
5
5
5
5
5
5
5
5
5
5
5
5
5
5
5
5
5
5
5
5
5
5
5
5
5
5
5
5
5
5
5
5
5
5
5
5
5
5
5
5
5
5
5
5
5
5
5
5
5
5
5
5
5
5
5
5
5
5
5
5
5
5
5
5
5
5
5
5
5
5
5
5
5
5
5
5
5
5
5
5
5
5
5
5
5
5
5
5
5
5
5
5
5
5
5
5
5
5
5
5
5
5
5
5
5
5
5
5
5
5
5
5
5
5
5
5
5
5
5
5
5
5
5
5
5
5
5
5
5
5
5
5
5
5
5
5
5
5
5
5
5
5
5
5
5
5
5
5
5
5
5
5
5
5
5
5
5
5
5
5
5
5
5
5
5
5
5
5
5
5
5
5
5
5
5
5
5
5
5
5
5
5
5
5
5
5
5
5
5
5
5
5
5
5
5
5
5
5
5
5
5
5
5
5
5
POINT_DATA 296
SCALARS concentrations float 4
LOOKUP_TABLE default
0 0.968635 0.158181 2.22222
0 0.968662 0.155253 5.10146
0 0.968656 0.163926 8.5042
0 0.968771 0.156532 8.71778
0 0.968627 0.094579 -0.937193
0 0.96857 0.159357 9.39725
0 0.968489 0.159546 14.6565
0 0.96867 0.0944664 -1.02548
0 0.968652 0.0937611 1.14573
0 0.968492 0.161 8.74238
0 0.968499 0.156016 15.7102
0 0.968725 0.158795 9.60752
0 0.968689 0.157015 5.27973
0 0.968675 0.0948989 0.380914
0 0.968692 0.095125 0.890329
0 0.968608 0.0954649 1.21609
0 0.96864 0.0953491 1.29372
0 0.968571 0.0930092 0.833271
0 0.968542 0.0925816 0.44195
0 0.968666 0.0954031 -0.982293
0 0.968646 0.0945008 0.167317
0 0.968569 0.161553 13.3392
0 0.968555 0.158308 12.4553
0 0.968537 0.0931793 0.0245117
0 0.968556 0.0927406 0.128797
0 0.968648 0.094908 0.411857
0 0.96872 0.155764 1.81063
0 0.968662 0.0952034 0.427953
0 0.9687 0.159025 1.02873
0 0.968591 0.0955631 -0.58114
0 0.968565 0.0950859 1.02899
0 0.968576 0.0958105 1.09519
0 0.968558 0.160449 15.5479
0 0.968593 0.096751 -0.479713
0 0.968614 0.0956512 -0.655867
0 0.968617 0.0938155 -0.317396
0 0.968605 0.0929885 -0.459751
0 0.96861 0.0947605 -0.679098
0 0.968612 0.0942003 -0.421502
0 0.968568 0.0928811 0.187962
0 0.968561 0.0935392 0.0782872
0 0.968596 0.0929975 -0.0819408
0 0.968584 0.0932491 0.236659
0 0.968436 0.158462 13.3163
0 0.96857 0.0966057 -0.695374
0 0.968673 0.104061 -3.14702
0 0.968625 0.09817 0.35378
0 0.968695 0.155296 15.2675
0 0.968651 0.0960187 -0.0609291
0 0.968736 0.161243 -0.435224
0 0.968551 0.0950571 1.30046
0 0.968529 0.0950654 1.38613
0 0.968571 0.0950278 0.79924
0 0.968521 0.0930681 0.155666
0 0.968474 0.0926248 -0.0372686
0 0.968577 0.095872 -0.752291
0 0.968604 0.0937359 -0.386932
0 0.968606 0.0936852 -0.385
0 0.96858 0.093944 -0.787613
0 0.968576 0.0933598 -0.166697
0 0.968569 0.0931941 0.139587
0 0.9686 0.093379 0.343619
0 0.968598 0.0942464 0.10198
0 0.96849 0.158585 13.154
0 0.968577 0.103038 4.82466
0 0.968632 0.101774 4.36713
0 0.968623 0.097391 -1.31336
0 0.968666 0.0955178 -0.69217
0 0.968616 0.0953361 0.950355
0 0.968739 0.159827 4.69175
0 0.968692 0.0947571 -0.0909509
0 0.968649 0.157367 11.6189
0 0.968586 0.0961935 1.20743
0 0.968577 0.0990494 2.29773
0 0.968598 0.0965621 0.383985
0 0.968557 0.0926043 0.0044435
0 0.96855 0.0925593 -0.253258
0 0.968554 0.0924556 -0.143904
0 0.968574 0.0971814 -0.89091
0 0.968609 0.102574 -0.0652186
0 0.968591 0.093464 -0.144672
0 0.968594 0.094718 -0.423424
0 0.968594 0.0932484 -0.236445
0 0.968587 0.0930126 -0.155928
0 0.968594 0.0935131 0.0564376
0 0.96859 0.159979 15.5182
0 0.968588 0.101233 -0.011237
0 0.968605 0.0958925 -0.427429
0 0.968607 0.095735 -0.298536
0 0.968596 0.0963378 -0.790073
0 0.968652 0.0954993 0.177813
0 0.968593 0.0954121 0.129973
0 0.968641 0.15688 9.43161
0 0.968616 0.0980167 0.584918
0 0.968622 0.0956002 -0.48117
0 0.968597 0.0947776 0.0682832
0 0.968611 0.0950778 0.219555
0 0.96857 0.0954196 0.321172
0 0.968591 0.159105 8.30263
0 0.968587 0.0949303 0.327458
0 0.968582 0.0929032 -0.142341
0 0.968564 0.0931015 -0.327776
0 0.968578 0.0929468 -0.256997
0 0.968621 0.0963031 0.408484
0 0.9686 0.0947413 -0.037321
0 0.968597 0.0934114 -0.503793
0 0.968609 0.0938552 -0.413714
0 0.968591 0.0927798 -0.193842
0 0.968594 0.0931105 -0.211825
0 0.968603 0.156611 13.5475
0 0.968574 0.0956537 -0.284983
0 0.968568 0.0961949 -0.0670296
0 0.96857 0.0957601 -0.0731116
0 0.96855 0.0967735 -0.877509
0 0.968609 0.099325 -3.17692
0 0.968575 0.100548 -0.951134
0 0.968556 0.0971003 -0.428346
0 0.968633 0.093951 -0.112337
0 0.968625 0.0939685 -0.383119
0 0.968622 0.0953265 -0.37388
0 0.968596 0.0955204 0.655766
0 0.968564 0.0949217 0.7218
0 0.968574 0.0962953 -1.35208
0 0.968623 0.0947357 0.190336
0 0.968511 0.158644 13.9176
0 0.96858 0.0943817 0.691931
0 0.968576 0.0958571 0.194209
0 0.968583 0.092615 0.254911
0 0.968579 0.0933331 -0.426582
0 0.968608 0.0943198 -0.232638
0 0.968603 0.0933075 -0.491342
0 0.968585 0.0930304 -0.343943
0 0.968591 0.0934418 -0.43389
0 0.968597 0.0951132 0.112111
0 0.968584 0.156268 9.48935
0 0.968573 0.0953399 -0.406618
0 0.968557 0.104011 -0.839603
0 0.968572 0.0974235 1.09983
0 0.968559 0.104577 -3.44541
0 0.968499 0.0958863 -1.31747
0 0.968551 0.0964103 -0.300643
0 0.968593 0.095988 -0.583354
0 0.968615 0.0934599 -0.657985
0 0.968632 0.0936298 -0.243601
0 0.968612 0.0958999 -1.34037
0 0.9686 0.102074 -2.33671
0 0.968627 0.0940951 -0.00138295
0 0.968618 0.100542 -1.79461
0 0.968623 0.0953387 -0.313316
0 0.968501 0.0945229 -0.0798434
0 0.968452 0.156951 20.1243
0 0.968582 0.0929136 0.310654
0 0.968582 0.0954308 -0.968865
0 0.968582 0.0942809 -0.607494
0 0.968579 0.0939161 -0.162485
0 0.968582 0.0950132 0.167593
0 0.968591 0.0936487 -0.620225
0 0.96858 0.0943459 -0.269812
0 0.968597 0.0943622 -0.0744275
0 0.968588 0.0942159 -0.52572
0 0.96863 0.0943012 -0.0326519
0 0.968655 0.156981 10.95
0 0.968586 0.0972023 -1.63839
0 0.968571 0.0999253 2.14328
0 0.968571 0.0950544 0.0763128
0 0.968596 0.103664 -3.10743
0 0.968579 0.0947779 0.440416
0 0.968593 0.0942495 -0.423877
0 0.968618 0.0943121 -0.456047
0 0.968622 0.0998488 0.137509
0 0.968607 0.0948631 -1.49995
0 0.968615 0.0972557 -1.02244
0 0.968614 0.0933822 0.694015
0 0.968546 0.0934479 -0.595421
0 0.968495 0.160273 12.5386
0 0.968583 0.0936534 0.503055
0 0.968582 0.0953013 -0.540674
0 0.968576 0.0940126 -0.705925
0 0.96858 0.0946682 0.195463
0 0.96858 0.0943313 -0.68078
0 0.968587 0.10222 -2.50449
0 0.968599 0.0958052 0.792593
0 0.968602 0.0982022 1.50588
0 0.968597 0.0940137 0.365628
0 0.968588 0.0936389 0.349211
0 0.968578 0.0948667 0.163005
0 0.968601 0.0937931 0.0559694
0 0.968654 0.160649 6.65988
0 0.968595 0.0969138 -1.2948
0 0.968617 0.0949656 1.00043
0 0.968593 0.0934563 0.170572
0 0.968611 0.0973144 1.05615
0 0.968598 0.0947591 0.944063
0 0.968599 0.0943897 1.26888
0 0.968615 0.0998833 -0.233986
0 0.968609 0.0950267 -1.08462
0 0.968622 0.0952248 -0.999947
0 0.968605 0.0947822 0.877976
0 0.968614 0.10098 1.8329
0 0.968621 0.0944981 -0.307259
0 0.96861 0.0935305 -0.175506
0 0.96857 0.161203 14.7344
0 0.968584 0.0942351 0.486835
0 0.968581 0.0957146 -0.0339362
0 0.968583 0.0953382 -0.223751
0 0.968598 0.0940207 0.695662
0 0.968609 0.0948442 0.540994
0 0.968599 0.0944703 -0.785093
0 0.968582 0.0950607 0.160936
0 0.968597 0.0942206 0.0931958
0 0.968609 0.158349 16.7117
0 0.968606 0.0945085 -0.56818
0 0.968605 0.0963376 -1.59875
0 0.968609 0.0943993 -0.111372
0 0.968597 0.0937325 -0.168346
0 0.968597 0.0948226 1.14335
0 0.968609 0.0999386 0.982577
0 0.968598 0.0938222 -0.232572
0 0.968611 0.0964435 1.16177
0 0.968605 0.0977473 -0.152583
0 0.968648 0.0939989 0.0654102
0 0.968679 0.0935941 -0.547377
0 0.968659 0.159958 3.72355
0 0.968598 0.094965 0.0229177
0 0.968584 0.094904 -0.878281
0 0.968612 0.0948776 0.721497
0 0.968609 0.0940653 0.472537
0 0.968593 0.0945727 0.603038
0 0.968581 0.0947788 -0.295584
0 0.96859 0.0936756 0.305916
0 0.968621 0.16033 6.10839
0 0.968595 0.099362 2.37232
0 0.968605 0.0948731 -0.917118
0 0.968587 0.0955914 -0.103725
0 0.968591 0.0948538 -0.252841
0 0.968599 0.0934908 -0.6361
0 0.968597 0.0943204 0.153697
0 0.968599 0.0946682 0.773879
0 0.968598 0.0952792 -1.65402
0 0.96861 0.0951906 -1.51817
0 0.96866 0.0937751 0.49619
0 0.968721 0.0936272 -0.451719
0 0.968736 0.156519 3.5103
0 0.968592 0.104315 2.34097
0 0.968602 0.0948645 -0.270672
0 0.968584 0.099115 -0.6001
0 0.968594 0.0949086 0.0783409
0 0.968533 0.0936569 0.35295
0 0.968551 0.159929 13.77
0 0.968588 0.0948045 -0.543409
0 0.968592 0.0951143 -0.322317
0 0.968591 0.0941509 -0.363601
0 0.968587 0.0949011 -1.14762
0 0.968593 0.0937914 0.480084
0 0.968608 0.0945781 -1.04528
0 0.968662 0.0944762 -0.0183095
0 0.968731 0.0935948 -0.570085
0 0.968765 0.158298 3.3224
0 0.968583 0.0957934 0.27213
0 0.968593 0.09456 -0.679335
0 0.968605 0.0941438 -0.322119
0 0.968559 0.0936704 -0.0101388
0 0.968493 0.154134 19.4936
0 0.968595 0.0935151 -0.0551793
0 0.968587 0.0932571 -0.204238
0 0.968591 0.0951543 0.74862
0 0.968615 0.0943184 0.720785
0 0.968647 0.0948433 0.389025
0 0.968696 0.0940723 0.662257
0 0.968748 0.15607 -0.675146
0 0.968601 0.0942696 -0.596995
0 0.968616 0.0934141 -0.327586
0 0.968601 0.0934462 0.0223673
0 0.968577 0.156493 4.70569
0 0.968609 0.0937054 -0.356864
0 0.968608 0.0941649 0.0188275
0 0.968605 0.0940089 -0.214778
0 0.968611 0.0945021 0.631837
0 0.968625 0.0955244 1.80882
0 0.968612 0.0950079 0.38227
0 0.968652 0.158377 5.50598
0 0.968628 0.0934761 -0.284339
0 0.96859 0.0935205 -0.0825888
0 0.968575 0.15922 13.0905
0 0.968647 0.0938816 -0.157912
0 0.96863 0.0962441 2.1421
0 0.96865 0.0945002 0.385996
0 0.968562 0.0951058 0.280353
0 0.968539 0.157438 10.8627
0 0.968631 0.0941284 -0.219237
0 0.968581 0.158972 9.39245
0 0.968662 0.0946442 0.335533
0 0.96861 0.0948731 -0.841614
0 0.968531 0.157762 15.244
0 0.968648 0.156695 4.06069
0 0.968623 0.158472 4.84643
VECTORS fa_u float
0.0068905 0.0027866 -0
0.00626787 0.00360753 -0
0.00388695 0.00105233 -0
0.00698001 0.00102728 -0
1e-08 0 0
0.00521058 0.00400989 -0
0.00318494 0.00311671 -0
1e-08 0 0
1e-08 0 0
0.00436094 0.00544181 -0
0.00450775 0.00764897 -0
0.00651801 8.99008e-05 -0
0.00632473 -0.000731446 0
1e-08 0 0
1e-08 0 0
1e-08 0 0
1e-08 0 0
1e-08 0 0
1e-08 0 0
1e-08 0 0
1e-08 0 0
0.00280824 0.00687943 -0
0.00162573 0.00628175 -0
1e-08 0 0
1e-08 0 0
1e-08 0 0
0.00797627 -0.00205446 0
1e-08 0 0
0.00920765 -0.0039586 0
1e-08 0 0
1e-08 0 0
1e-08 0 0
0.00085079 0.00699628 -0
1e-08 0 0
1e-08 0 0
1e-08 0 0
1e-08 0 0
1e-08 0 0
1e-08 0 0
1e-08 0 0
1e-08 0 0
1e-08 0 0
1e-08 0 0
-0.000109302 0.00726204 -0
1e-08 0 0
1e-08 0 0
1e-08 0 0
0.00563496 -0.00347304 0
1e-08 0 0
0.00344308 -0.00273164 0
1e-08 0 0
1e-08 0 0
1e-08 0 0
1e-08 0 0
1e-08 0 0
1e-08 0 0
1e-08 0 0
1e-08 0 0
1e-08 0 0
1e-08 0 0
1e-08 0 0
1e-08 0 0
1e-08 0 0
-0.000674848 0.00480228 0
1e-08 0 0
1e-08 0 0
1e-08 0 0
1e-08 0 0
1e-08 0 0
0.00366701 -0.00364166 0
1e-08 0 0
0.00316803 -0.00396503 0
1e-08 0 0
1e-08 0 0
1e-08 0 0
1e-08 0 0
1e-08 0 0
1e-08 0 0
1e-08 0 0
1e-08 0 0
1e-08 0 0
1e-08 0 0
1e-08 0 0
1e-08 0 0
1e-08 0 0
-0.00149428 0.00569009 0
1e-08 0 0
1e-08 0 0
1e-08 0 0
1e-08 0 0
1e-08 0 0
1e-08 0 0
0.00479551 -0.0080127 0
1e-08 0 0
1e-08 0 0
1e-08 0 0
1e-08 0 0
1e-08 0 0
0.00325616 -0.00799522 0
1e-08 0 0
1e-08 0 0
1e-08 0 0
1e-08 0 0
1e-08 0 0
1e-08 0 0
1e-08 0 0
1e-08 0 0
1e-08 0 0
1e-08 0 0
-0.00274421 0.00673614 0
1e-08 0 0
1e-08 0 0
1e-08 0 0
1e-08 0 0
1e-08 0 0
1e-08 0 0
1e-08 0 0
1e-08 0 0
1e-08 0 0
1e-08 0 0
1e-08 0 0
1e-08 0 0
1e-08 0 0
1e-08 0 0
0.0014508 -0.00566679 0
1e-08 0 0
1e-08 0 0
1e-08 0 0
1e-08 0 0
1e-08 0 0
1e-08 0 0
1e-08 0 0
1e-08 0 0
1e-08 0 0
-0.00357879 0.00619965 0
1e-08 0 0
1e-08 0 0
1e-08 0 0
1e-08 0 0
1e-08 0 0
1e-08 0 0
1e-08 0 0
1e-08 0 0
1e-08 0 0
1e-08 0 0
1e-08 0 0
1e-08 0 0
1e-08 0 0
1e-08 0 0
1e-08 0 0
0.000626172 -0.00463268 0
1e-08 0 0
1e-08 0 0
1e-08 0 0
1e-08 0 0
1e-08 0 0
1e-08 0 0
1e-08 0 0
1e-08 0 0
1e-08 0 0
1e-08 0 0
-0.00438459 0.00565494 0
1e-08 0 0
1e-08 0 0
1e-08 0 0
1e-08 0 0
1e-08 0 0
1e-08 0 0
1e-08 0 0
1e-08 0 0
1e-08 0 0
1e-08 0 0
1e-08 0 0
1e-08 0 0
7.485e-05 -0.00732928 0
1e-08 0 0
1e-08 0 0
1e-08 0 0
1e-08 0 0
1e-08 0 0
1e-08 0 0
1e-08 0 0
1e-08 0 0
1e-08 0 0
1e-08 0 0
1e-08 0 0
1e-08 0 0
-0.00296399 0.0029987 0
1e-08 0 0
1e-08 0 0
1e-08 0 0
1e-08 0 0
1e-08 0 0
1e-08 0 0
1e-08 0 0
1e-08 0 0
1e-08 0 0
1e-08 0 0
1e-08 0 0
1e-08 0 0
1e-08 0 0
-0.000857622 -0.00680735 0
1e-08 0 0
1e-08 0 0
1e-08 0 0
1e-08 0 0
1e-08 0 0
1e-08 0 0
1e-08 0 0
1e-08 0 0
-0.00493246 0.00395043 0
1e-08 0 0
1e-08 0 0
1e-08 0 0
1e-08 0 0
1e-08 0 0
1e-08 0 0
1e-08 0 0
1e-08 0 0
1e-08 0 0
1e-08 0 0
1e-08 0 0
-0.00161691 -0.0061688 0
1e-08 0 0
1e-08 0 0
1e-08 0 0
1e-08 0 0
1e-08 0 0
1e-08 0 0
1e-08 0 0
-0.00762324 0.00452338 0
1e-08 0 0
1e-08 0 0
1e-08 0 0
1e-08 0 0
1e-08 0 0
1e-08 0 0
1e-08 0 0
1e-08 0 0
1e-08 0 0
1e-08 0 0
1e-08 0 0
-0.00287676 -0.00698687 0
1e-08 0 0
1e-08 0 0
1e-08 0 0
1e-08 0 0
1e-08 0 0
-0.00703308 0.00288881 0
1e-08 0 0
1e-08 0 0
1e-08 0 0
1e-08 0 0
1e-08 0 0
1e-08 0 0
1e-08 0 0
1e-08 0 0
-0.00437023 -0.0073771 0
1e-08 0 0
1e-08 0 0
1e-08 0 0
1e-08 0 0
-0.00617509 0.00161118 0
1e-08 0 0
1e-08 0 0
1e-08 0 0
1e-08 0 0
1e-08 0 0
1e-08 0 0
-0.0037352 -0.00469818 0
1e-08 0 0
1e-08 0 0
1e-08 0 0
-0.00698974 0.000867014 0
1e-08 0 0
1e-08 0 0
1e-08 0 0
1e-08 0 0
1e-08 0 0
1e-08 0 0
-0.00328121 -0.00326128 0
1e-08 0 0
1e-08 0 0
-0.00773391 -0.000113677 0
1e-08 0 0
1e-08 0 0
1e-08 0 0
1e-08 0 0
-0.00561467 -0.00435844 0
1e-08 0 0
-0.00448992 -0.000631754 0
1e-08 0 0
1e-08 0 0
-0.00636315 -0.00367232 0
-0.00573807 -0.00149806 0
-0.00675913 -0.00274524 0
