# vtk DataFile Version 2.0
CellBP Time: 10.32
ASCII
DATASET UNSTRUCTURED_GRID
POINTS 296 double
-8.92553 -3.65432 0
-8.36864 -4.80449 0
-9.3142 -2.43403 0
-9.59223 -1.20877 0
-8.08164 -2.70612 0
-7.65365 -5.86846 0
-6.80683 -6.83049 0
-7.64357 -3.72464 0
-7.08357 -4.69689 0
-5.88512 -7.69776 0
-4.86028 -8.43008 0
-9.70118 0.03784 0
-9.64711 1.31166 0
-8.40221 -1.61929 0
-8.56001 -0.504219 0
-7.33041 -1.91285 0
-6.95809 -2.77383 0
-6.43032 -5.61424 0
-5.66408 -6.43255 0
-6.53109 -3.73537 0
-5.99728 -4.51984 0
-3.71254 -8.99345 0
-2.48533 -9.39151 0
-4.79183 -7.14975 0
-3.84451 -7.73421 0
-8.57648 0.63031 0
-9.429 2.58795 0
-8.43427 1.72794 0
-9.01978 3.80234 0
-7.50655 -0.881296 0
-7.57665 0.0894316 0
-6.72384 -1.25023 0
-1.21466 -9.62777 0
-6.23096 -2.06401 0
-6.09851 -2.93477 0
-5.36014 -5.31843 0
-4.66384 -5.96425 0
-5.46545 -3.62566 0
-5.08345 -4.42256 0
-2.81572 -8.19467 0
-1.74375 -8.45357 0
-3.83625 -6.5801 0
-3.0096 -7.0122 0
0.055738 -9.68646 0
-7.5019 1.11445 0
-8.18103 2.85661 0
-7.36612 2.04713 0
-8.40538 4.91957 0
-7.69468 3.87627 0
-7.64594 5.9526 0
-6.57538 -0.36616 0
-6.75553 0.548778 0
-5.61327 -0.96677 0
-0.581118 -8.6002 0
0.543085 -8.53027 0
-5.15007 -2.3972 0
-4.33961 -4.95496 0
-3.79065 -5.63579 0
-4.31016 -3.70092 0
-2.02379 -7.40365 0
-1.11409 -7.61159 0
-2.92644 -5.96843 0
-2.26818 -6.48219 0
1.30834 -9.56813 0
-6.51057 1.38062 0
-6.98093 3.02292 0
-6.48741 2.30221 0
-7.09893 4.84474 0
-6.53863 3.88188 0
-6.80527 6.89799 0
-6.3854 5.71921 0
-5.86368 7.75409 0
-4.37058 -1.16639 0
-5.67346 0.489914 0
-4.56887 -0.0277283 0
-0.00595708 -7.64541 0
1.67917 -8.3792 0
0.900486 -7.53505 0
-3.95544 -2.35132 0
-3.45323 -1.37918 0
-3.21365 -4.69767 0
-3.21259 -3.20389 0
-1.36451 -6.52082 0
-0.520067 -6.84624 0
-1.94515 -5.4272 0
2.55575 -9.32247 0
-5.37545 1.98864 0
-5.93607 2.97871 0
-5.93899 4.71933 0
-5.60414 3.86143 0
-5.59168 6.5145 0
-5.29974 5.44295 0
-4.83815 8.50652 0
-4.69652 7.17816 0
-3.45832 -0.419219 0
-4.35792 1.22433 0
-3.64771 0.584876 0
-3.97793 2.29337 0
-3.70257 9.07428 0
2.75297 -8.04847 0
0.371409 -6.59348 0
1.92851 -7.27442 0
1.23155 -6.68387 0
-2.4241 -0.860869 0
-2.80955 -2.10368 0
-2.26144 -4.01909 0
-2.29661 -2.9249 0
-0.451296 -5.71471 0
-1.19986 -4.41625 0
3.76575 -8.93102 0
-4.66555 3.29911 0
-4.94644 4.4475 0
-4.513 6.07666 0
-4.41114 5.18998 0
-3.74561 7.77972 0
-3.7062 6.61925 0
-2.70635 8.1839 0
-1.6342 -0.122811 0
-1.43364 -0.872864 0
-2.46922 0.517871 0
-3.19958 1.43383 0
-3.17225 3.25881 0
-2.86388 2.35742 0
-1.34919 0.638032 0
-2.48255 9.45688 0
3.78862 -7.61756 0
2.8319 -6.88742 0
0.895155 -5.65095 0
1.97663 -6.18968 0
-1.66103 -1.97329 0
-1.41361 -3.23042 0
0.0775635 -4.64061 0
-0.552056 -3.63586 0
4.76735 -7.06173 0
4.90693 -8.37431 0
-3.68075 4.42933 0
-3.63085 5.58033 0
-2.7935 7.05941 0
-2.92459 6.15906 0
-1.6188 8.50352 0
-1.8778 7.40302 0
-2.29607 3.97291 0
-0.72068 -1.3149 0
-0.82829 -0.243762 0
-1.92961 1.69455 0
-2.10106 2.85322 0
-1.29718 3.50373 0
-0.871501 1.36145 0
-0.2853 0.464714 0
-0.521382 8.65548 0
-1.22369 9.69268 0
1.06682 -4.45205 0
3.74401 -6.43997 0
2.86177 -5.86445 0
2.0297 -5.24315 0
4.61879 -5.96309 0
-0.547193 -2.45413 0
0.487721 -3.40781 0
0.0612081 -1.60055 0
1.44161 -3.5916 0
5.68938 -6.38955 0
5.96788 -7.6601 0
-2.41333 5.20806 0
-2.05905 6.34458 0
-0.870873 7.60668 0
-1.21863 6.73935 0
0.0916608 7.69901 0
-1.12545 4.41177 0
0.147741 -0.612186 0
-0.810292 2.49456 0
-0.34536 3.5703 0
0.0517188 1.51568 0
0.730794 0.474168 0
0.628369 8.68418 0
0.0418035 9.8031 0
2.3019 -4.15293 0
3.71933 -5.42251 0
2.89367 -5.02745 0
5.41623 -5.30301 0
4.53985 -5.07338 0
0.633565 -2.28214 0
1.23847 -2.90368 0
0.759084 -1.3867 0
2.11594 -3.06379 0
2.91845 -3.37911 0
6.00293 -4.64341 0
6.48266 -5.59834 0
6.92142 -6.80259 0
-0.988753 5.68101 0
-0.342349 6.711 0
1.10242 7.61202 0
0.563694 6.92064 0
-0.0029453 4.6517 0
0.592083 3.78263 0
1.33135 -0.642665 0
0.522006 2.63689 0
0.949739 1.57704 0
1.89039 0.208253 0
1.59571 1.06008 0
2.09596 7.43556 0
1.76644 8.53538 0
1.3218 9.73321 0
3.71237 -4.20094 0
4.97715 -4.28175 0
5.70708 -3.80663 0
3.69833 -3.10664 0
1.7959 -1.87606 0
2.96442 -2.52291 0
6.63676 -3.84016 0
7.21432 -4.77433 0
7.78671 -5.87357 0
0.480076 5.76085 0
1.41009 6.60499 0
2.33728 6.54513 0
1.18805 4.48552 0
1.46177 3.3512 0
2.40636 -0.689372 0
2.79018 0.138057 0
1.76577 2.14899 0
2.58851 1.13819 0
3.02355 7.03818 0
2.85739 8.2123 0
2.58856 9.4902 0
4.7997 -3.2205 0
5.99152 -3.02344 0
4.09554 -2.22792 0
3.196 -1.48801 0
6.60735 -2.2731 0
7.09755 -2.97979 0
7.81387 -3.8396 0
8.52335 -4.85053 0
1.99504 5.49915 0
3.00754 6.02703 0
2.33289 4.06004 0
2.38938 3.01728 0
3.47558 -0.451861 0
3.56719 0.614546 0
2.92428 2.25683 0
3.48399 1.5043 0
3.89743 5.76369 0
3.89359 6.65257 0
3.90633 7.78536 0
3.81198 9.08759 0
5.46889 -1.8782 0
4.43561 -1.10737 0
6.58461 -1.31007 0
7.4481 -1.99745 0
8.2337 -2.81005 0
9.09158 -3.70834 0
3.32198 4.77029 0
3.26526 3.31538 0
4.60925 0.13359 0
4.41775 1.27783 0
3.96186 2.38169 0
4.41576 5.01552 0
4.70484 6.04732 0
4.86754 7.2174 0
4.95414 8.51916 0
5.75649 -0.435563 0
6.85307 -0.487258 0
7.60571 -1.05793 0
8.50769 -1.70527 0
9.49209 -2.48224 0
4.40921 3.72287 0
5.65976 1.0518 0
5.20328 2.45012 0
5.18455 4.47907 0
5.42899 5.37486 0
5.74216 6.50152 0
5.9781 7.78648 0
6.66552 0.42748 0
7.67123 -0.0311789 0
8.66666 -0.559214 0
9.73245 -1.21312 0
6.75782 1.28399 0
5.51496 3.6535 0
6.32705 2.09993 0
6.15187 2.96736 0
6.0652 4.53472 0
6.48339 5.6673 0
6.91402 6.92941 0
7.57664 0.928239 0
8.63398 0.559741 0
9.7957 0.062995 0
7.38615 1.92435 0
6.56208 3.7516 0
7.0133 2.82619 0
7.14281 4.73217 0
7.77135 5.97721 0
8.47771 1.67505 0
9.67359 1.31548 0
8.1422 2.73968 0
7.72861 3.79141 0
8.48658 4.91859 0
9.43087 2.56523 0
9.04147 3.77598 0
CELLS 542 2168
3 2 0 4
3 0 1 7
3 4 0 7
3 1 5 8
3 7 1 8
3 3 2 13
3 13 2 4
3 11 3 14
3 14 3 13
3 13 4 15
3 4 7 16
3 15 4 16
3 5 6 17
3 8 5 17
3 6 9 18
3 17 6 18
3 7 8 19
3 16 7 19
3 8 17 20
3 19 8 20
3 9 10 23
3 18 9 23
3 10 21 24
3 23 10 24
3 12 11 25
3 25 11 14
3 26 12 27
3 27 12 25
3 14 13 29
3 29 13 15
3 25 14 30
3 30 14 29
3 29 15 31
3 15 16 33
3 31 15 33
3 16 19 34
3 33 16 34
3 17 18 35
3 20 17 35
3 18 23 36
3 35 18 36
3 19 20 37
3 34 19 37
3 20 35 38
3 37 20 38
3 21 22 39
3 24 21 39
3 22 32 40
3 39 22 40
3 23 24 41
3 36 23 41
3 24 39 42
3 41 24 42
3 27 25 44
3 44 25 30
3 28 26 45
3 45 26 27
3 45 27 46
3 46 27 44
3 47 28 48
3 48 28 45
3 30 29 50
3 50 29 31
3 44 30 51
3 51 30 50
3 50 31 52
3 31 33 52
3 32 43 53
3 40 32 53
3 53 43 54
3 33 34 55
3 34 37 55
3 33 55 52
3 35 36 56
3 38 35 56
3 36 41 57
3 56 36 57
3 37 38 58
3 38 56 58
3 37 58 55
3 39 40 59
3 42 39 59
3 40 53 60
3 59 40 60
3 41 42 61
3 57 41 61
3 42 59 62
3 61 42 62
3 43 63 54
3 46 44 64
3 64 44 51
3 48 45 65
3 65 45 46
3 65 46 66
3 66 46 64
3 49 47 67
3 67 47 48
3 67 48 68
3 68 48 65
3 69 49 70
3 70 49 67
3 52 55 72
3 64 51 73
3 51 50 73
3 50 52 73
3 73 52 74
3 74 52 72
3 53 54 75
3 60 53 75
3 54 63 76
3 54 76 77
3 75 54 77
3 55 58 78
3 72 55 78
3 72 78 79
3 56 57 80
3 57 61 80
3 56 80 58
3 58 80 81
3 78 58 81
3 59 60 82
3 62 59 82
3 60 75 83
3 82 60 83
3 61 62 84
3 62 82 84
3 61 84 80
3 63 85 76
3 66 64 86
3 64 73 86
3 68 65 87
3 87 65 66
3 87 66 86
3 70 67 88
3 88 67 68
3 88 68 89
3 89 68 87
3 71 69 90
3 90 69 70
3 90 70 91
3 91 70 88
3 92 71 93
3 93 71 90
3 74 72 94
3 94 72 79
3 86 73 95
3 95 73 74
3 95 74 96
3 96 74 94
3 97 86 95
3 76 85 99
3 75 77 100
3 83 75 100
3 76 99 101
3 77 76 101
3 77 101 102
3 100 77 102
3 94 79 103
3 78 81 104
3 79 78 104
3 79 104 103
3 80 84 105
3 81 80 105
3 81 105 106
3 104 81 106
3 82 83 107
3 83 100 107
3 82 107 84
3 84 107 108
3 105 84 108
3 85 109 99
3 89 87 110
3 87 86 110
3 110 86 97
3 91 88 111
3 111 88 89
3 111 89 110
3 93 90 112
3 112 90 91
3 112 91 113
3 113 91 111
3 98 92 114
3 114 92 93
3 114 93 115
3 115 93 112
3 116 98 114
3 117 103 118
3 96 94 119
3 94 103 119
3 119 103 117
3 97 95 120
3 120 95 96
3 120 96 119
3 121 110 97
3 121 97 122
3 122 97 120
3 123 119 117
3 124 98 116
3 99 109 125
3 99 125 126
3 101 99 126
3 100 102 127
3 100 127 107
3 101 126 128
3 102 101 128
3 102 128 127
3 104 106 129
3 104 129 103
3 103 129 118
3 105 108 130
3 106 105 130
3 106 130 129
3 107 127 131
3 108 107 131
3 108 131 132
3 108 132 130
3 109 134 125
3 125 134 133
3 113 111 135
3 111 110 135
3 135 110 121
3 115 112 136
3 136 112 113
3 136 113 135
3 116 114 137
3 137 114 115
3 137 115 138
3 138 115 136
3 139 124 116
3 139 116 140
3 140 116 137
3 141 135 121
3 118 129 142
3 118 142 143
3 117 118 143
3 123 117 143
3 122 120 144
3 120 119 144
3 144 119 123
3 141 121 145
3 145 121 122
3 145 122 144
3 146 141 145
3 147 144 123
3 147 123 148
3 143 148 123
3 150 124 139
3 149 150 139
3 131 127 151
3 125 133 152
3 126 125 152
3 126 152 153
3 128 126 153
3 128 153 154
3 128 154 127
3 127 154 151
3 152 133 155
3 130 132 156
3 130 156 129
3 129 156 142
3 131 151 157
3 132 131 157
3 132 157 156
3 156 158 142
3 157 151 159
3 133 160 155
3 134 161 133
3 133 161 160
3 138 136 162
3 136 135 162
3 162 135 141
3 140 137 163
3 163 137 138
3 163 138 162
3 149 139 164
3 164 139 140
3 164 140 165
3 165 140 163
3 166 149 164
3 167 162 141
3 167 141 146
3 142 158 168
3 143 142 168
3 143 168 148
3 146 145 169
3 145 144 169
3 169 144 147
3 170 167 146
3 170 146 169
3 171 169 147
3 171 147 148
3 171 148 172
3 168 172 148
3 173 149 166
3 174 150 149
3 173 174 149
3 154 175 151
3 151 175 159
3 152 155 176
3 153 152 176
3 153 176 177
3 153 177 154
3 154 177 175
3 155 160 178
3 155 178 179
3 176 155 179
3 156 157 180
3 156 180 158
3 157 159 181
3 157 181 180
3 158 180 182
3 158 182 168
3 159 175 183
3 159 183 181
3 175 184 183
3 160 186 178
3 178 186 185
3 161 187 160
3 160 187 186
3 165 163 188
3 163 162 188
3 188 162 167
3 166 164 189
3 189 164 165
3 189 165 188
3 190 173 166
3 190 166 191
3 191 166 189
3 192 188 167
3 192 167 170
3 193 192 170
3 182 194 168
3 194 172 168
3 193 170 195
3 170 169 195
3 195 169 171
3 196 195 171
3 196 171 172
3 194 197 172
3 197 198 172
3 198 196 172
3 200 173 190
3 199 200 190
3 201 174 173
3 200 201 173
3 176 179 202
3 177 176 202
3 177 202 175
3 175 202 184
3 178 185 203
3 178 203 179
3 179 203 202
3 203 185 204
3 202 205 184
3 183 206 181
3 180 181 206
3 180 206 182
3 182 206 194
3 183 184 207
3 205 207 184
3 183 207 206
3 185 208 204
3 186 209 185
3 185 209 208
3 187 210 186
3 186 210 209
3 191 189 211
3 189 188 211
3 211 188 192
3 199 190 212
3 212 190 191
3 212 191 211
3 213 199 212
3 214 211 192
3 214 192 193
3 215 214 193
3 215 193 195
3 206 216 194
3 216 197 194
3 216 217 197
3 215 195 218
3 218 195 196
3 198 218 196
3 217 219 197
3 219 218 198
3 197 219 198
3 220 199 213
3 221 200 199
3 220 221 199
3 222 201 200
3 221 222 200
3 203 204 223
3 203 223 202
3 202 223 205
3 204 208 224
3 204 224 223
3 205 223 225
3 205 225 207
3 207 225 226
3 207 226 206
3 226 216 206
3 208 228 224
3 224 228 227
3 209 229 208
3 229 228 208
3 210 230 209
3 209 230 229
3 213 212 231
3 212 211 231
3 231 211 214
3 232 220 213
3 232 213 231
3 233 231 214
3 233 214 215
3 234 233 215
3 234 215 218
3 226 235 216
3 235 217 216
3 235 236 217
3 217 236 219
3 237 234 218
3 237 218 219
3 236 238 219
3 238 237 219
3 240 220 232
3 239 240 232
3 241 221 220
3 240 241 220
3 242 222 221
3 241 242 221
3 224 227 243
3 224 243 223
3 223 243 225
3 225 243 244
3 225 244 226
3 226 244 235
3 227 245 243
3 228 246 227
3 227 246 245
3 229 247 228
3 228 247 246
3 230 248 229
3 229 248 247
3 239 232 249
3 232 231 249
3 249 231 233
3 250 249 233
3 250 233 234
3 237 250 234
3 244 251 235
3 235 251 236
3 251 252 236
3 236 252 238
3 252 253 238
3 253 250 237
3 253 237 238
3 254 239 249
3 255 240 239
3 254 255 239
3 256 241 240
3 255 256 240
3 257 242 241
3 256 257 241
3 245 258 243
3 243 258 244
3 244 258 251
3 245 259 258
3 246 260 245
3 245 260 259
3 247 261 246
3 246 261 260
3 248 262 247
3 247 262 261
3 254 249 263
3 263 249 250
3 253 263 250
3 258 264 251
3 251 264 252
3 264 265 252
3 265 263 253
3 252 265 253
3 266 254 263
3 267 255 254
3 266 267 254
3 268 256 255
3 267 268 255
3 269 257 256
3 268 269 256
3 259 270 258
3 270 264 258
3 260 271 259
3 259 271 270
3 261 272 260
3 260 272 271
3 262 273 261
3 273 272 261
3 270 274 264
3 275 266 263
3 275 263 265
3 274 276 264
3 276 265 264
3 276 277 265
3 277 275 265
3 278 267 266
3 275 278 266
3 279 268 267
3 278 279 267
3 280 269 268
3 279 280 268
3 271 281 270
3 270 281 274
3 272 282 271
3 271 282 281
3 273 283 272
3 272 283 282
3 281 284 274
3 274 284 276
3 285 278 275
3 277 285 275
3 284 286 276
3 286 285 277
3 276 286 277
3 287 279 278
3 285 287 278
3 288 280 279
3 287 288 279
3 282 289 281
3 281 289 284
3 283 290 282
3 282 290 289
3 289 291 284
3 284 291 286
3 291 292 286
3 292 287 285
3 286 292 285
3 293 288 287
3 292 293 287
3 290 294 289
3 289 294 291
3 294 295 291
3 295 293 292
3 291 295 292
CELL_TYPES 542
5
5
5
5
5
5
5
5
5
5
5
5
5
5
5
5
5
5
5
5
5
5
5
5
5
5
5
5
5
5
5
5
5
5
5
5
5
5
5
5
5
5
5
5
5
5
5
5
5
5
5
5
5
5
5
5
5
5
5
5
5
5
5
5
5
5
5
5
5
5
5
5
5
5
5
5
5
5
5
5
5
5
5
5
5
5
5
5
5
5
5
5
5
5
5
5
5
5
5
5
5
5
5
5
5
5
5
5
5
5
5
5
5
5
5
5
5
5
5
5
5
5
5
5
5
5
5
5
5
5
5
5
5
5
5
5
5
5
5
5
5
5
5
5
5
5
5
5
5
5
5
5
5
5
5
5
5
5
5
5
5
5
5
5
5
5
5
5
5
5
5
5
5
5
5
5
5
5
5
5
5
5
5
5
5
5
5
5
5
5
5
5
5
5
5
5
5
5
5
5
5
5
5
5
5
5
5
5
5
5
5
5
5
5
5
5
5
5
5
5
5
5
5
5
5
5
5
5
5
5
5
5
5
5
5
5
5
5
5
5
5
5
5
5
5
5
5
5
5
5
5
5
5
5
5
5
5
5
5
5
5
5
5
5
5
5
5
5
5
5
5
5
5
5
5
5
5
5
5
5
5
5
5
5
5
5
5
5
5
5
5
5
5
5
5
5
5
5
5
5
5
5
5
5
5
5
5
5
5
5
5
5
5
5
5
5
5
5
5
5
5
5
5
5
5
5
5
5
5
5
5
5
5
5
5
5
5
5
5
5
5
5
5
5
5
5
5
5
5
5
5
5
5
5
5
5
5
5
5
5
5
5
5
5
5
5
5
5
5
5
5
5
5
5
5
5
5
5
5
5
5
5
5
5
5
5
5
5
5
5
5
5
5
5
5
5
5
5
5
5
5
5
5
5
5
5
5
5
5
5
5
5
5
5
5
5
5
5
5
5
5
5
5
5
5
5
5
5
5
5
5
5
5
5
5
5
5
5
5
5
5
5
5
5
5
5
5
5
5
5
5
5
5
5
5
5
5
5
5
5
5
5
5
5
5
5
5
5
5
5
5
5
5
5
5
5
5
5
5
5
5
5
5
5
5
5
5
5
5
5
5
5
5
5
5
5
5
5
5
5
5
5
5
5
5
5
5
5
5
5
5
5
5
5
5
5
5
5
5
5
5
5
5
5
5
5
5
5
5
5
5
5
5
5
5
5
5
5
5
5
5
5
POINT_DATA 296
SCALARS concentrations float 4
LOOKUP_TABLE default
0 0.949634 0.108296 1.66609
0 0.949668 0.109925 3.34235
0 0.949588 0.111154 5.03159
0 0.9496 0.111277 1.64103
0 0.949616 0.0928117 -0.111406
0 0.949634 0.106735 0.614528
0 0.949661 0.107937 1.86952
0 0.949651 0.0963494 0.611581
0 0.949643 0.095428 -0.308
0 0.949662 0.106741 2.62049
0 0.949642 0.109271 0.887962
0 0.949671 0.109426 1.3427
0 0.949676 0.111159 3.51211
0 0.949608 0.0927532 -0.158699
0 0.949632 0.0931518 -0.146696
0 0.949635 0.0946876 -0.112164
0 0.949635 0.0951526 -0.127196
0 0.949636 0.0939328 -0.22022
0 0.949664 0.0939452 -0.183813
0 0.949636 0.0939745 0.0922208
0 0.949632 0.0939129 -0.24095
0 0.949644 0.107477 2.9938
0 0.949582 0.11071 3.54271
0 0.949644 0.0938942 -0.265711
0 0.949646 0.0935393 -0.42986
0 0.949671 0.0923406 -0.217822
0 0.949645 0.111999 3.33383
0 0.949649 0.092478 -0.115988
0 0.949641 0.11058 5.74332
0 0.949635 0.0938997 -0.182345
0 0.94964 0.0932238 -0.124334
0 0.949641 0.0942415 -0.16375
0 0.949577 0.112216 3.50931
0 0.949635 0.093834 -0.0897096
0 0.949635 0.0945702 0.0990481
0 0.949638 0.0934862 -0.0450682
0 0.949644 0.0936566 -0.18763
0 0.94964 0.0944955 0.063624
0 0.949635 0.0949536 -0.171586
0 0.949621 0.0933123 -0.334406
0 0.949591 0.0936442 -0.431679
0 0.949644 0.0940696 0.0283588
0 0.949636 0.0941684 -0.393144
0 0.949615 0.108762 0.557375
0 0.94964 0.0927684 -0.202051
0 0.949642 0.0925238 0.117832
0 0.949639 0.0945604 -0.491069
0 0.949646 0.109746 2.81873
0 0.949642 0.0923467 -0.0355112
0 0.949639 0.108589 -0.415973
0 0.949637 0.0928577 -0.310923
0 0.949635 0.093647 -0.0284225
0 0.949636 0.0938588 -0.728119
0 0.949601 0.0928826 -0.0156997
0 0.94964 0.0933236 -0.825431
0 0.949639 0.0959489 -0.0182113
0 0.949636 0.0945856 -0.193769
0 0.949641 0.0942389 -0.391476
0 0.949638 0.0947684 -0.951785
0 0.949627 0.0940309 -0.134323
0 0.949616 0.0940379 -0.36709
0 0.94964 0.0945177 0.218747
0 0.949638 0.0944304 -0.318715
0 0.949662 0.110059 3.51292
0 0.949636 0.0927551 -0.292374
0 0.949642 0.0938192 0.0729016
0 0.949639 0.093882 -0.376328
0 0.949648 0.0926497 0.247034
0 0.949647 0.092312 0.109949
0 0.949589 0.107704 3.89841
0 0.949626 0.0928353 0.201694
0 0.94955 0.108208 8.92443
0 0.94964 0.0936845 0.652749
0 0.949638 0.0927927 0.421848
0 0.949644 0.0940635 -0.515158
0 0.94962 0.0930989 0.51712
0 0.949655 0.0939339 -0.648172
0 0.949635 0.0936207 -0.934625
0 0.949645 0.0949065 -1.61209
0 0.949642 0.0953323 0.0725029
0 0.949636 0.0938203 -0.166045
0 0.949643 0.094632 -1.13902
0 0.949634 0.0943543 0.562702
0 0.949623 0.0935782 -0.126647
0 0.949635 0.0945021 0.125503
0 0.949662 0.114006 -3.71638
0 0.949643 0.0928574 -0.251077
0 0.949644 0.0935878 -0.270323
0 0.949645 0.0927465 0.488936
0 0.949646 0.0927663 0.363404
0 0.949588 0.0931052 0.80391
0 0.949631 0.0929942 -0.112237
0 0.949604 0.111056 2.72485
0 0.949591 0.0949066 0.213125
0 0.949642 0.0935127 -0.396089
0 0.949647 0.093629 -0.842973
0 0.949652 0.0933098 0.384651
0 0.949648 0.0932652 -0.162038
0 0.949622 0.108061 1.55715
0 0.949655 0.094322 1.66651
0 0.949627 0.0939826 0.122612
0 0.949644 0.094132 -1.34926
0 0.949632 0.0942104 -0.852995
0 0.94964 0.0944955 -0.295198
0 0.949646 0.0968796 -1.95969
0 0.949641 0.0944652 -0.801057
0 0.94965 0.0944845 -0.469526
0 0.949629 0.0941917 -0.34031
0 0.949637 0.0942182 0.358757
0 0.949639 0.108954 2.22192
0 0.949644 0.0926357 0.0715491
0 0.949643 0.0931166 0.607784
0 0.949622 0.0934224 -0.257969
0 0.94963 0.0953682 0.924513
0 0.949636 0.0935266 0.875796
0 0.949641 0.09427 -1.05212
0 0.949614 0.0940091 1.2459
0 0.949649 0.0938633 0.822522
0 0.949644 0.0939437 -0.198534
0 0.949651 0.0941885 -0.744985
0 0.949651 0.0933671 -0.190206
0 0.949644 0.0943726 -0.12619
0 0.949649 0.0944987 0.456901
0 0.949653 0.093402 0.69355
0 0.949586 0.108011 7.15654
0 0.949623 0.0942873 -1.9859
0 0.949639 0.0953024 -2.01731
0 0.949628 0.0935754 0.678332
0 0.949637 0.0939398 -1.51165
0 0.949647 0.096557 1.71638
0 0.949651 0.0946772 -1.3473
0 0.94963 0.0944024 -0.485994
0 0.949637 0.0940276 -0.578096
0 0.949614 0.0941925 -0.146575
0 0.949618 0.10875 5.73249
0 0.949639 0.0937097 0.58845
0 0.949645 0.102114 -1.71976
0 0.949649 0.094102 1.04199
0 0.94966 0.0939358 -0.924396
0 0.949614 0.0927016 0.0579053
0 0.949644 0.0938788 -1.02958
0 0.949637 0.0934294 1.17861
0 0.949651 0.0951004 1.23709
0 0.949642 0.0932966 -0.14963
0 0.949652 0.095129 -0.000448994
0 0.949641 0.096463 2.11404
0 0.949631 0.0953287 0.677863
0 0.949658 0.0944018 -1.16426
0 0.949649 0.0938387 -0.855472
0 0.949617 0.092879 -0.327146
0 0.949613 0.109447 3.47056
0 0.949637 0.0942635 -1.49995
0 0.949624 0.0944341 -0.0782037
0 0.949638 0.0943313 1.39824
0 0.94964 0.093855 1.68335
0 0.949616 0.0932451 0.462568
0 0.949644 0.0984406 0.925304
0 0.949631 0.0956132 0.933187
0 0.949662 0.0951725 0.139305
0 0.94964 0.0953302 1.66444
0 0.949582 0.0947172 1.43767
0 0.949594 0.108669 2.60563
0 0.949649 0.095605 -1.64586
0 0.949656 0.0944974 1.18483
0 0.949634 0.0938401 -1.09535
0 0.949652 0.0944542 1.2657
0 0.94963 0.0939164 -1.10457
0 0.949641 0.0941122 1.07759
0 0.949663 0.0946537 1.8789
0 0.949643 0.0943735 -0.286228
0 0.94964 0.0937157 0.868286
0 0.949651 0.0938359 -0.171304
0 0.949661 0.0939006 0.741537
0 0.949611 0.0929998 -0.366959
0 0.949604 0.109474 3.48122
0 0.949644 0.0957298 -1.64982
0 0.949635 0.094414 -1.33095
0 0.949647 0.0945267 0.192409
0 0.949608 0.0940939 -1.90702
0 0.94963 0.0933624 -0.736439
0 0.949638 0.0961011 -2.14907
0 0.949625 0.0967742 -0.640126
0 0.949665 0.0958156 -0.658961
0 0.949627 0.0953652 -1.49459
0 0.94964 0.0945156 -1.99112
0 0.949614 0.0941716 1.65568
0 0.949592 0.0934934 -0.954075
0 0.949562 0.107722 4.83677
0 0.949649 0.0945069 -1.31516
0 0.949645 0.0944799 1.46753
0 0.949633 0.0933321 0.211174
0 0.949642 0.0944188 0.837202
0 0.949649 0.0943834 0.353795
0 0.949644 0.0941427 -0.799798
0 0.949666 0.095158 1.0004
0 0.94964 0.0962758 -0.110535
0 0.949647 0.0941036 -0.96784
0 0.949657 0.0943587 -0.706503
0 0.949659 0.0945249 0.857362
0 0.94963 0.094177 1.48161
0 0.949615 0.0933135 -0.512471
0 0.949604 0.106014 2.34551
0 0.949637 0.0940452 0.676199
0 0.949623 0.0940357 0.248332
0 0.94963 0.0935814 1.50152
0 0.949636 0.0945539 0.844259
0 0.949638 0.0968223 -2.04894
0 0.949637 0.0960826 1.47499
0 0.949636 0.0943194 1.53607
0 0.949622 0.0938268 0.966669
0 0.949602 0.107152 3.27087
0 0.949648 0.0939834 -0.771322
0 0.949645 0.0933445 0.186016
0 0.949642 0.0934365 -0.127122
0 0.949649 0.0944962 -0.361414
0 0.94964 0.0945549 -0.172928
0 0.949649 0.0994477 0.0572796
0 0.949647 0.0948882 1.07639
0 0.949647 0.0946104 -0.971284
0 0.949657 0.0943914 -0.383251
0 0.949622 0.093033 0.221938
0 0.949588 0.0935474 -0.624701
0 0.949592 0.106491 2.32938
0 0.949633 0.0943839 -1.70237
0 0.949643 0.0943835 1.23176
0 0.949635 0.0945959 1.7511
0 0.949642 0.0987851 -2.00444
0 0.949646 0.0940345 0.457863
0 0.949653 0.0942516 -1.11628
0 0.949653 0.0931436 0.708035
0 0.949641 0.114231 1.97875
0 0.949645 0.0944127 0.617005
0 0.949638 0.093242 -0.411532
0 0.949643 0.0944035 -0.0347749
0 0.949642 0.0938673 0.0730148
0 0.949648 0.095246 -1.53857
0 0.949652 0.0935796 -0.963232
0 0.949655 0.0938086 -0.0319687
0 0.94966 0.0950958 -0.944099
0 0.949643 0.0930746 0.230964
0 0.949629 0.0942228 -1.65559
0 0.949592 0.0939305 -0.835012
0 0.949557 0.115838 10.7117
0 0.949644 0.0946283 2.09896
0 0.949649 0.0961184 2.04107
0 0.949647 0.0939411 1.41285
0 0.949651 0.0942358 -1.11661
0 0.949664 0.093679 1.10645
0 0.94967 0.111244 2.75433
0 0.949642 0.0933233 1.16116
0 0.949647 0.0935726 -0.443893
0 0.949653 0.0960778 1.41248
0 0.949654 0.0941586 -0.587403
0 0.949656 0.0928954 -0.246003
0 0.949645 0.0937031 -1.61
0 0.949633 0.0943487 -1.15271
0 0.949629 0.0933572 -0.632988
0 0.949614 0.108645 0.698441
0 0.949651 0.0943313 1.21653
0 0.949648 0.0933714 1.23202
0 0.949649 0.0927535 1.28997
0 0.949646 0.0943532 1.11597
0 0.949665 0.110407 1.45952
0 0.949649 0.0933581 -0.771424
0 0.949649 0.0931807 -0.580931
0 0.949651 0.0939294 0.0671323
0 0.94964 0.0930219 -0.965834
0 0.94963 0.0932421 -1.19641
0 0.949609 0.0939109 -0.593391
0 0.949614 0.109975 5.45502
0 0.949651 0.0942615 0.473045
0 0.949662 0.0930925 0.913502
0 0.949659 0.0936744 1.01581
0 0.949641 0.111048 2.06966
0 0.949653 0.0921175 0.0764033
0 0.949639 0.0933062 -1.0308
0 0.949647 0.093212 -0.367443
0 0.949642 0.093828 -0.583136
0 0.949631 0.0934994 0.447286
0 0.949623 0.0934116 -0.911594
0 0.949598 0.108248 3.52849
0 0.949667 0.0927542 0.26098
0 0.949679 0.0925534 0.296821
0 0.949673 0.11069 3.57646
0 0.949653 0.0939201 -0.100348
0 0.949634 0.0933988 -0.986143
0 0.949638 0.0932028 0.629924
0 0.949643 0.0936573 -0.243554
0 0.949643 0.109945 3.48146
0 0.949681 0.0933769 0.134855
0 0.949689 0.110418 0.626154
0 0.949651 0.0939174 -0.685906
0 0.949631 0.0939386 0.349551
0 0.94964 0.107001 1.97304
0 0.949683 0.108581 3.27951
0 0.949636 0.106177 0.503799
VECTORS fa_u float
0.00734632 0.0029304 -0
0.00668603 0.00384069 -0
0.00275751 0.000751747 -0
0.00725418 0.00113565 -0
1e-08 0 0
0.00521135 0.00401737 -0
0.00249019 0.00240746 -0
1e-08 0 0
1e-08 0 0
0.00453451 0.00551806 -0
0.00540592 0.00906453 -0
0.00662334 0.000144215 -0
0.00620421 -0.000662197 0
1e-08 0 0
1e-08 0 0
1e-08 0 0
1e-08 0 0
1e-08 0 0
1e-08 0 0
1e-08 0 0
1e-08 0 0
0.0029601 0.00731212 -0
0.00160042 0.00630226 -0
1e-08 0 0
1e-08 0 0
1e-08 0 0
0.00908658 -0.00228865 0
1e-08 0 0
0.011243 -0.00493584 0
1e-08 0 0
1e-08 0 0
1e-08 0 0
0.000848885 0.00731321 -0
1e-08 0 0
1e-08 0 0
1e-08 0 0
1e-08 0 0
1e-08 0 0
1e-08 0 0
1e-08 0 0
1e-08 0 0
1e-08 0 0
1e-08 0 0
-0.000183275 0.00775288 -0
1e-08 0 0
1e-08 0 0
1e-08 0 0
0.00564833 -0.00360883 0
1e-08 0 0
0.00262918 -0.00212644 0
1e-08 0 0
1e-08 0 0
1e-08 0 0
1e-08 0 0
1e-08 0 0
1e-08 0 0
1e-08 0 0
1e-08 0 0
1e-08 0 0
1e-08 0 0
1e-08 0 0
1e-08 0 0
1e-08 0 0
-0.000571269 0.00392366 0
1e-08 0 0
1e-08 0 0
1e-08 0 0
1e-08 0 0
1e-08 0 0
0.00314499 -0.0031114 0
1e-08 0 0
0.00273113 -0.00333997 0
1e-08 0 0
1e-08 0 0
1e-08 0 0
1e-08 0 0
1e-08 0 0
1e-08 0 0
1e-08 0 0
1e-08 0 0
1e-08 0 0
1e-08 0 0
1e-08 0 0
1e-08 0 0
1e-08 0 0
-0.00138044 0.0053245 0
1e-08 0 0
1e-08 0 0
1e-08 0 0
1e-08 0 0
1e-08 0 0
1e-08 0 0
0.00584828 -0.0095735 0
1e-08 0 0
1e-08 0 0
1e-08 0 0
1e-08 0 0
1e-08 0 0
0.00372638 -0.00923636 0
1e-08 0 0
1e-08 0 0
1e-08 0 0
1e-08 0 0
1e-08 0 0
1e-08 0 0
1e-08 0 0
1e-08 0 0
1e-08 0 0
1e-08 0 0
-0.00291264 0.00722253 0
1e-08 0 0
1e-08 0 0
1e-08 0 0
1e-08 0 0
1e-08 0 0
1e-08 0 0
1e-08 0 0
1e-08 0 0
1e-08 0 0
1e-08 0 0
1e-08 0 0
1e-08 0 0
1e-08 0 0
1e-08 0 0
0.00132908 -0.00532761 0
1e-08 0 0
1e-08 0 0
1e-08 0 0
1e-08 0 0
1e-08 0 0
1e-08 0 0
1e-08 0 0
1e-08 0 0
1e-08 0 0
-0.00375417 0.00650488 0
1e-08 0 0
1e-08 0 0
1e-08 0 0
1e-08 0 0
1e-08 0 0
1e-08 0 0
1e-08 0 0
1e-08 0 0
1e-08 0 0
1e-08 0 0
1e-08 0 0
1e-08 0 0
1e-08 0 0
1e-08 0 0
1e-08 0 0
0.000511948 -0.00373267 0
1e-08 0 0
1e-08 0 0
1e-08 0 0
1e-08 0 0
1e-08 0 0
1e-08 0 0
1e-08 0 0
1e-08 0 0
1e-08 0 0
1e-08 0 0
-0.00468256 0.00600171 0
1e-08 0 0
1e-08 0 0
1e-08 0 0
1e-08 0 0
1e-08 0 0
1e-08 0 0
1e-08 0 0
1e-08 0 0
1e-08 0 0
1e-08 0 0
1e-08 0 0
1e-08 0 0
0.000124506 -0.00782076 0
1e-08 0 0
1e-08 0 0
1e-08 0 0
1e-08 0 0
1e-08 0 0
1e-08 0 0
1e-08 0 0
1e-08 0 0
1e-08 0 0
1e-08 0 0
1e-08 0 0
1e-08 0 0
-0.00214662 0.00218542 0
1e-08 0 0
1e-08 0 0
1e-08 0 0
1e-08 0 0
1e-08 0 0
1e-08 0 0
1e-08 0 0
1e-08 0 0
1e-08 0 0
1e-08 0 0
1e-08 0 0
1e-08 0 0
1e-08 0 0
-0.000860673 -0.00700509 0
1e-08 0 0
1e-08 0 0
1e-08 0 0
1e-08 0 0
1e-08 0 0
1e-08 0 0
1e-08 0 0
1e-08 0 0
-0.0048214 0.00395659 0
1e-08 0 0
1e-08 0 0
1e-08 0 0
1e-08 0 0
1e-08 0 0
1e-08 0 0
1e-08 0 0
1e-08 0 0
1e-08 0 0
1e-08 0 0
1e-08 0 0
-0.00159923 -0.00616834 0
1e-08 0 0
1e-08 0 0
1e-08 0 0
1e-08 0 0
1e-08 0 0
1e-08 0 0
1e-08 0 0
-0.00885897 0.00533886 0
1e-08 0 0
1e-08 0 0
1e-08 0 0
1e-08 0 0
1e-08 0 0
1e-08 0 0
1e-08 0 0
1e-08 0 0
1e-08 0 0
1e-08 0 0
1e-08 0 0
-0.00305274 -0.00743688 0
1e-08 0 0
1e-08 0 0
1e-08 0 0
1e-08 0 0
1e-08 0 0
-0.00764646 0.00312779 0
1e-08 0 0
1e-08 0 0
1e-08 0 0
1e-08 0 0
1e-08 0 0
1e-08 0 0
1e-08 0 0
1e-08 0 0
-0.00512649 -0.00853471 0
1e-08 0 0
1e-08 0 0
1e-08 0 0
1e-08 0 0
-0.00618003 0.00158726 0
1e-08 0 0
1e-08 0 0
1e-08 0 0
1e-08 0 0
1e-08 0 0
1e-08 0 0
-0.00359974 -0.00443784 0
1e-08 0 0
1e-08 0 0
1e-08 0 0
-0.007293 0.000869924 0
1e-08 0 0
1e-08 0 0
1e-08 0 0
1e-08 0 0
1e-08 0 0
1e-08 0 0
-0.00257913 -0.00255629 0
1e-08 0 0
1e-08 0 0
-0.00844635 -0.0001966 0
1e-08 0 0
1e-08 0 0
1e-08 0 0
1e-08 0 0
-0.00590995 -0.00462188 0
1e-08 0 0
-0.00349493 -0.000509564 0
1e-08 0 0
1e-08 0 0
-0.00683513 -0.00394391 0
-0.005404 -0.00138832 0
-0.00722028 -0.00289713 0
