# vtk DataFile Version 2.0
CellBP Time: 0.8
ASCII
DATASET UNSTRUCTURED_GRID
POINTS 296 double
-9.17935 -3.77251 0
-8.6013 -4.9445 0
-9.59846 -2.53445 0
-9.85507 -1.25371 0
-8.35015 -2.81576 0
-7.87509 -6.03146 0
-7.01342 -7.01422 0
-7.90955 -3.87002 0
-7.33482 -4.8642 0
-6.03227 -7.87699 0
-4.94691 -8.60394 0
-9.94072 0.0494688 0
-9.85712 1.35378 0
-8.65145 -1.68113 0
-8.78054 -0.528927 0
-7.58315 -2.00101 0
-7.21854 -2.90202 0
-6.6315 -5.77555 0
-5.81772 -6.59381 0
-6.78301 -3.88441 0
-6.21466 -4.67113 0
-3.77485 -9.18259 0
-2.53658 -9.60225 0
-4.90298 -7.30574 0
-3.91219 -7.88254 0
-8.78777 0.643379 0
-9.6024 2.63627 0
-8.61794 1.77174 0
-9.18227 3.8741 0
-7.73746 -0.928699 0
-7.789 0.0801843 0
-6.94609 -1.31445 0
-1.25379 -9.8562 0
-6.43599 -2.15114 0
-6.31325 -3.053 0
-5.53247 -5.46971 0
-4.7928 -6.11075 0
-5.65405 -3.7525 0
-5.26393 -4.55798 0
-2.86579 -8.36004 0
-1.7788 -8.63573 0
-3.92639 -6.7193 0
-3.05517 -7.14948 0
0.0502791 -9.94089 0
-7.69958 1.14267 0
-8.33503 2.91398 0
-7.54609 2.10932 0
-8.60322 5.04566 0
-7.87572 3.97626 0
-7.87474 6.13097 0
-6.77286 -0.396162 0
-6.9499 0.551747 0
-5.76708 -1.00318 0
-0.591846 -8.80498 0
0.563693 -8.76511 0
-5.29924 -2.4787 0
-4.48796 -5.09155 0
-3.89918 -5.7713 0
-4.43516 -3.80281 0
-2.06031 -7.55813 0
-1.1331 -7.78197 0
-2.99313 -6.09928 0
-2.30709 -6.61659 0
1.35364 -9.8547 0
-6.68448 1.42094 0
-7.16672 3.11487 0
-6.65446 2.37133 0
-7.29058 4.98509 0
-6.71419 4.00003 0
-7.01365 7.11333 0
-6.56853 5.89007 0
-6.03175 7.97558 0
-4.45117 -1.18154 0
-5.81093 0.512079 0
-4.6543 -0.0110572 0
0.00932664 -7.84324 0
1.73646 -8.63769 0
0.948987 -7.75779 0
-4.03657 -2.40523 0
-3.48494 -1.39019 0
-3.2925 -4.80323 0
-3.26453 -3.2676 0
-1.37713 -6.67185 0
-0.508284 -7.02045 0
-1.97527 -5.5343 0
2.63547 -9.59989 0
-5.50446 2.03573 0
-6.09085 3.06885 0
-6.10164 4.8656 0
-5.75693 3.98759 0
-5.75686 6.71276 0
-5.44911 5.61506 0
-4.94632 8.70346 0
-4.8353 7.39797 0
-3.50039 -0.424137 0
-4.4471 1.24912 0
-3.70976 0.591792 0
-4.06103 2.31985 0
-3.77437 9.28166 0
2.85969 -8.32585 0
0.419541 -6.79055 0
2.02057 -7.51902 0
1.30504 -6.90015 0
-2.44388 -0.87375 0
-2.83799 -2.13149 0
-2.29366 -4.09583 0
-2.32495 -2.97315 0
-0.442702 -5.85839 0
-1.22198 -4.49735 0
3.87281 -9.17953 0
-4.78647 3.38937 0
-5.0843 4.59057 0
-4.64372 6.2754 0
-4.53606 5.35606 0
-3.84097 7.9883 0
-3.82351 6.84025 0
-2.78146 8.41655 0
-1.64851 -0.137472 0
-1.44976 -0.890392 0
-2.48811 0.508217 0
-3.25195 1.44529 0
-3.23685 3.31516 0
-2.90982 2.37295 0
-1.35452 0.627757 0
-2.53603 9.6998 0
3.9287 -7.88024 0
2.96185 -7.15032 0
0.952212 -5.81775 0
2.07113 -6.40957 0
-1.68263 -1.99276 0
-1.43403 -3.27774 0
0.0907957 -4.74531 0
-0.566117 -3.69355 0
4.92744 -7.31213 0
5.04488 -8.60173 0
-3.77466 4.54951 0
-3.73244 5.74814 0
-2.8848 7.28339 0
-3.00787 6.34904 0
-1.66227 8.72847 0
-1.9375 7.61321 0
-2.33722 4.05069 0
-0.729843 -1.32708 0
-0.836627 -0.257221 0
-1.93605 1.6814 0
-2.12497 2.87622 0
-1.30597 3.54426 0
-0.868987 1.35128 0
-0.281707 0.456786 0
-0.534621 8.86631 0
-1.25411 9.95464 0
1.11079 -4.57259 0
3.90602 -6.70976 0
2.98457 -6.08926 0
2.11453 -5.41995 0
4.78014 -6.19948 0
-0.557895 -2.47802 0
0.495196 -3.46284 0
0.0542756 -1.61105 0
1.48127 -3.6808 0
5.86357 -6.60868 0
6.13147 -7.87536 0
-2.47368 5.34524 0
-2.12923 6.52841 0
-0.902713 7.79919 0
-1.27027 6.92792 0
0.0869391 7.87684 0
-1.1435 4.49266 0
0.150665 -0.618282 0
-0.797508 2.48931 0
-0.331672 3.60054 0
0.0629298 1.51413 0
0.742095 0.473343 0
0.645723 8.86899 0
0.0496852 10.0407 0
2.3781 -4.28205 0
3.85568 -5.63543 0
2.99727 -5.20805 0
5.56889 -5.48622 0
4.687 -5.27808 0
0.629528 -2.29361 0
1.25573 -2.95087 0
0.758362 -1.39237 0
2.16235 -3.13433 0
2.99215 -3.47472 0
6.15195 -4.78882 0
6.65149 -5.76489 0
7.11392 -7.01333 0
-1.01914 5.81757 0
-0.37051 6.87986 0
1.12312 7.76675 0
0.559187 7.07608 0
-8.34779e-05 4.72354 0
0.607066 3.8278 0
1.33942 -0.642005 0
0.539107 2.65172 0
0.965319 1.57543 0
1.91044 0.21361 0
1.61518 1.06429 0
2.12952 7.58045 0
1.79772 8.70849 0
1.354 9.9557 0
3.81996 -4.34785 0
5.11289 -4.44512 0
5.84286 -3.93268 0
3.7811 -3.19831 0
1.81247 -1.8831 0
3.01834 -2.57323 0
6.78021 -3.94599 0
7.37827 -4.89542 0
7.97716 -6.0322 0
0.483278 5.87853 0
1.42868 6.73923 0
2.37338 6.66665 0
1.20968 4.55465 0
1.4882 3.3968 0
2.43526 -0.692407 0
2.82821 0.142323 0
1.78926 2.16396 0
2.61198 1.1494 0
3.0711 7.16764 0
2.90338 8.37368 0
2.63631 9.70053 0
4.90929 -3.32597 0
6.11859 -3.10697 0
4.17195 -2.27456 0
3.24422 -1.50323 0
6.72903 -2.31223 0
7.22921 -3.04134 0
7.96324 -3.91158 0
8.70389 -4.9466 0
2.02332 5.59838 0
3.08465 6.15095 0
2.36366 4.12633 0
2.41945 3.06068 0
3.52458 -0.461315 0
3.61507 0.613364 0
2.96105 2.28787 0
3.54501 1.5258 0
4.00904 5.89523 0
3.98236 6.79073 0
3.97194 7.93633 0
3.87472 9.28205 0
5.56758 -1.91619 0
4.50848 -1.13021 0
6.71192 -1.33571 0
7.59089 -2.03608 0
8.39525 -2.86144 0
9.28232 -3.77446 0
3.41684 4.87509 0
3.33779 3.38469 0
4.69065 0.129667 0
4.51752 1.30873 0
4.0625 2.44138 0
4.5669 5.14988 0
4.84057 6.18847 0
4.97835 7.3777 0
5.04645 8.70316 0
5.88138 -0.435042 0
7.00785 -0.487996 0
7.75667 -1.08389 0
8.68249 -1.74525 0
9.70163 -2.5361 0
4.54935 3.82649 0
5.81454 1.09716 0
5.36745 2.53321 0
5.37495 4.6183 0
5.60846 5.52028 0
5.89525 6.67003 0
6.13174 7.97629 0
6.84274 0.462421 0
7.85152 -0.0247423 0
8.85802 -0.58375 0
9.95638 -1.25369 0
6.95686 1.34767 0
5.71688 3.77602 0
6.53753 2.19524 0
6.37578 3.08525 0
6.28821 4.68385 0
6.68844 5.83595 0
7.11397 7.11451 0
7.78193 0.966641 0
8.85719 0.572657 0
10.0417 0.0505653 0
7.61269 2.00268 0
6.82378 3.90164 0
7.26521 2.94411 0
7.37457 4.88278 0
7.97572 6.13174 0
8.71966 1.72584 0
9.95452 1.35388 0
8.41637 2.83559 0
7.97707 3.91463 0
8.70209 5.04525 0
9.69886 2.63547 0
9.27963 3.87309 0
CELLS 542 2168
3 2 0 4
3 0 1 7
3 4 0 7
3 1 5 8
3 7 1 8
3 3 2 13
3 13 2 4
3 11 3 14
3 14 3 13
3 13 4 15
3 4 7 16
3 15 4 16
3 5 6 17
3 8 5 17
3 6 9 18
3 17 6 18
3 7 8 19
3 16 7 19
3 8 17 20
3 19 8 20
3 9 10 23
3 18 9 23
3 10 21 24
3 23 10 24
3 12 11 25
3 25 11 14
3 26 12 27
3 27 12 25
3 14 13 29
3 29 13 15
3 25 14 30
3 30 14 29
3 29 15 31
3 15 16 33
3 31 15 33
3 16 19 34
3 33 16 34
3 17 18 35
3 20 17 35
3 18 23 36
3 35 18 36
3 19 20 37
3 34 19 37
3 20 35 38
3 37 20 38
3 21 22 39
3 24 21 39
3 22 32 40
3 39 22 40
3 23 24 41
3 36 23 41
3 24 39 42
3 41 24 42
3 27 25 44
3 44 25 30
3 28 26 45
3 45 26 27
3 45 27 46
3 46 27 44
3 47 28 48
3 48 28 45
3 30 29 50
3 50 29 31
3 44 30 51
3 51 30 50
3 50 31 52
3 31 33 52
3 32 43 53
3 40 32 53
3 53 43 54
3 33 34 55
3 34 37 55
3 33 55 52
3 35 36 56
3 38 35 56
3 36 41 57
3 56 36 57
3 37 38 58
3 38 56 58
3 37 58 55
3 39 40 59
3 42 39 59
3 40 53 60
3 59 40 60
3 41 42 61
3 57 41 61
3 42 59 62
3 61 42 62
3 43 63 54
3 46 44 64
3 64 44 51
3 48 45 65
3 65 45 46
3 65 46 66
3 66 46 64
3 49 47 67
3 67 47 48
3 67 48 68
3 68 48 65
3 69 49 70
3 70 49 67
3 52 55 72
3 64 51 73
3 51 50 73
3 50 52 73
3 73 52 74
3 74 52 72
3 53 54 75
3 60 53 75
3 54 63 76
3 54 76 77
3 75 54 77
3 55 58 78
3 72 55 78
3 72 78 79
3 56 57 80
3 57 61 80
3 56 80 58
3 58 80 81
3 78 58 81
3 59 60 82
3 62 59 82
3 60 75 83
3 82 60 83
3 61 62 84
3 62 82 84
3 61 84 80
3 63 85 76
3 66 64 86
3 64 73 86
3 68 65 87
3 87 65 66
3 87 66 86
3 70 67 88
3 88 67 68
3 88 68 89
3 89 68 87
3 71 69 90
3 90 69 70
3 90 70 91
3 91 70 88
3 92 71 93
3 93 71 90
3 74 72 94
3 94 72 79
3 86 73 95
3 95 73 74
3 95 74 96
3 96 74 94
3 97 86 95
3 76 85 99
3 75 77 100
3 83 75 100
3 76 99 101
3 77 76 101
3 77 101 102
3 100 77 102
3 94 79 103
3 78 81 104
3 79 78 104
3 79 104 103
3 80 84 105
3 81 80 105
3 81 105 106
3 104 81 106
3 82 83 107
3 83 100 107
3 82 107 84
3 84 107 108
3 105 84 108
3 85 109 99
3 89 87 110
3 87 86 110
3 110 86 97
3 91 88 111
3 111 88 89
3 111 89 110
3 93 90 112
3 112 90 91
3 112 91 113
3 113 91 111
3 98 92 114
3 114 92 93
3 114 93 115
3 115 93 112
3 116 98 114
3 117 103 118
3 96 94 119
3 94 103 119
3 119 103 117
3 97 95 120
3 120 95 96
3 120 96 119
3 121 110 97
3 121 97 122
3 122 97 120
3 123 119 117
3 124 98 116
3 99 109 125
3 99 125 126
3 101 99 126
3 100 102 127
3 100 127 107
3 101 126 128
3 102 101 128
3 102 128 127
3 104 106 129
3 104 129 103
3 103 129 118
3 105 108 130
3 106 105 130
3 106 130 129
3 107 127 131
3 108 107 131
3 108 131 132
3 108 132 130
3 109 134 125
3 125 134 133
3 113 111 135
3 111 110 135
3 135 110 121
3 115 112 136
3 136 112 113
3 136 113 135
3 116 114 137
3 137 114 115
3 137 115 138
3 138 115 136
3 139 124 116
3 139 116 140
3 140 116 137
3 141 135 121
3 118 129 142
3 118 142 143
3 117 118 143
3 123 117 143
3 122 120 144
3 120 119 144
3 144 119 123
3 141 121 145
3 145 121 122
3 145 122 144
3 146 141 145
3 147 144 123
3 147 123 148
3 143 148 123
3 150 124 139
3 149 150 139
3 131 127 151
3 125 133 152
3 126 125 152
3 126 152 153
3 128 126 153
3 128 153 154
3 128 154 127
3 127 154 151
3 152 133 155
3 130 132 156
3 130 156 129
3 129 156 142
3 131 151 157
3 132 131 157
3 132 157 156
3 156 158 142
3 157 151 159
3 133 160 155
3 134 161 133
3 133 161 160
3 138 136 162
3 136 135 162
3 162 135 141
3 140 137 163
3 163 137 138
3 163 138 162
3 149 139 164
3 164 139 140
3 164 140 165
3 165 140 163
3 166 149 164
3 167 162 141
3 167 141 146
3 142 158 168
3 143 142 168
3 143 168 148
3 146 145 169
3 145 144 169
3 169 144 147
3 170 167 146
3 170 146 169
3 171 169 147
3 171 147 148
3 171 148 172
3 168 172 148
3 173 149 166
3 174 150 149
3 173 174 149
3 154 175 151
3 151 175 159
3 152 155 176
3 153 152 176
3 153 176 177
3 153 177 154
3 154 177 175
3 155 160 178
3 155 178 179
3 176 155 179
3 156 157 180
3 156 180 158
3 157 159 181
3 157 181 180
3 158 180 182
3 158 182 168
3 159 175 183
3 159 183 181
3 175 184 183
3 160 186 178
3 178 186 185
3 161 187 160
3 160 187 186
3 165 163 188
3 163 162 188
3 188 162 167
3 166 164 189
3 189 164 165
3 189 165 188
3 190 173 166
3 190 166 191
3 191 166 189
3 192 188 167
3 192 167 170
3 193 192 170
3 182 194 168
3 194 172 168
3 193 170 195
3 170 169 195
3 195 169 171
3 196 195 171
3 196 171 172
3 194 197 172
3 197 198 172
3 198 196 172
3 200 173 190
3 199 200 190
3 201 174 173
3 200 201 173
3 176 179 202
3 177 176 202
3 177 202 175
3 175 202 184
3 178 185 203
3 178 203 179
3 179 203 202
3 203 185 204
3 202 205 184
3 183 206 181
3 180 181 206
3 180 206 182
3 182 206 194
3 183 184 207
3 205 207 184
3 183 207 206
3 185 208 204
3 186 209 185
3 185 209 208
3 187 210 186
3 186 210 209
3 191 189 211
3 189 188 211
3 211 188 192
3 199 190 212
3 212 190 191
3 212 191 211
3 213 199 212
3 214 211 192
3 214 192 193
3 215 214 193
3 215 193 195
3 206 216 194
3 216 197 194
3 216 217 197
3 215 195 218
3 218 195 196
3 198 218 196
3 217 219 197
3 219 218 198
3 197 219 198
3 220 199 213
3 221 200 199
3 220 221 199
3 222 201 200
3 221 222 200
3 203 204 223
3 203 223 202
3 202 223 205
3 204 208 224
3 204 224 223
3 205 223 225
3 205 225 207
3 207 225 226
3 207 226 206
3 226 216 206
3 208 228 224
3 224 228 227
3 209 229 208
3 229 228 208
3 210 230 209
3 209 230 229
3 213 212 231
3 212 211 231
3 231 211 214
3 232 220 213
3 232 213 231
3 233 231 214
3 233 214 215
3 234 233 215
3 234 215 218
3 226 235 216
3 235 217 216
3 235 236 217
3 217 236 219
3 237 234 218
3 237 218 219
3 236 238 219
3 238 237 219
3 240 220 232
3 239 240 232
3 241 221 220
3 240 241 220
3 242 222 221
3 241 242 221
3 224 227 243
3 224 243 223
3 223 243 225
3 225 243 244
3 225 244 226
3 226 244 235
3 227 245 243
3 228 246 227
3 227 246 245
3 229 247 228
3 228 247 246
3 230 248 229
3 229 248 247
3 239 232 249
3 232 231 249
3 249 231 233
3 250 249 233
3 250 233 234
3 237 250 234
3 244 251 235
3 235 251 236
3 251 252 236
3 236 252 238
3 252 253 238
3 253 250 237
3 253 237 238
3 254 239 249
3 255 240 239
3 254 255 239
3 256 241 240
3 255 256 240
3 257 242 241
3 256 257 241
3 245 258 243
3 243 258 244
3 244 258 251
3 245 259 258
3 246 260 245
3 245 260 259
3 247 261 246
3 246 261 260
3 248 262 247
3 247 262 261
3 254 249 263
3 263 249 250
3 253 263 250
3 258 264 251
3 251 264 252
3 264 265 252
3 265 263 253
3 252 265 253
3 266 254 263
3 267 255 254
3 266 267 254
3 268 256 255
3 267 268 255
3 269 257 256
3 268 269 256
3 259 270 258
3 270 264 258
3 260 271 259
3 259 271 270
3 261 272 260
3 260 272 271
3 262 273 261
3 273 272 261
3 270 274 264
3 275 266 263
3 275 263 265
3 274 276 264
3 276 265 264
3 276 277 265
3 277 275 265
3 278 267 266
3 275 278 266
3 279 268 267
3 278 279 267
3 280 269 268
3 279 280 268
3 271 281 270
3 270 281 274
3 272 282 271
3 271 282 281
3 273 283 272
3 272 283 282
3 281 284 274
3 274 284 276
3 285 278 275
3 277 285 275
3 284 286 276
3 286 285 277
3 276 286 277
3 287 279 278
3 285 287 278
3 288 280 279
3 287 288 279
3 282 289 281
3 281 289 284
3 283 290 282
3 282 290 289
3 289 291 284
3 284 291 286
3 291 292 286
3 292 287 285
3 286 292 285
3 293 288 287
3 292 293 287
3 290 294 289
3 289 294 291
3 294 295 291
3 295 293 292
3 291 295 292
CELL_TYPES 542
5
5
5
5
5
5
5
5
5
5
5
5
5
5
5
5
5
5
5
5
5
5
5
5
5
5
5
5
5
5
5
5
5
5
5
5
5
5
5
5
5
5
5
5
5
5
5
5
5
5
5
5
5
5
5
5
5
5
5
5
5
5
5
5
5
5
5
5
5
5
5
5
5
5
5
5
5
5
5
5
5
5
5
5
5
5
5
5
5
5
5
5
5
5
5
5
5
5
5
5
5
5
5
5
5
5
5
5
5
5
5
5
5
5
5
5
5
5
5
5
5
5
5
5
5
5
5
5
5
5
5
5
5
5
5
5
5
5
5
5
5
5
5
5
5
5
5
5
5
5
5
5
5
5
5
5
5
5
5
5
5
5
5
5
5
5
5
5
5
5
5
5
5
5
5
5
5
5
5
5
5
5
5
5
5
5
5
5
5
5
5
5
5
5
5
5
5
5
5
5
5
5
5
5
5
5
5
5
5
5
5
5
5
5
5
5
5
5
5
5
5
5
5
5
5
5
5
5
5
5
5
5
5
5
5
5
5
5
5
5
5
5
5
5
5
5
5
5
5
5
5
5
5
5
5
5
5
5
5
5
5
5
5
5
5
5
5
5
5
5
5
5
5
5
5
5
5
5
5
5
5
5
5
5
5
5
5
5
5
5
5
5
5
5
5
5
5
5
5
5
5
5
5
5
5
5
5
5
5
5
5
5
5
5
5
5
5
5
5
5
5
5
5
5
5
5
5
5
5
5
5
5
5
5
5
5
5
5
5
5
5
5
5
5
5
5
5
5
5
5
5
5
5
5
5
5
5
5
5
5
5
5
5
5
5
5
5
5
5
5
5
5
5
5
5
5
5
5
5
5
5
5
5
5
5
5
5
5
5
5
5
5
5
5
5
5
5
5
5
5
5
5
5
5
5
5
5
5
5
5
5
5
5
5
5
5
5
5
5
5
5
5
5
5
5
5
5
5
5
5
5
5
5
5
5
5
5
5
5
5
5
5
5
5
5
5
5
5
5
5
5
5
5
5
5
5
5
5
5
5
5
5
5
5
5
5
5
5
5
5
5
5
5
5
5
5
5
5
5
5
5
5
5
5
5
5
5
5
5
5
5
5
5
5
5
5
5
5
5
5
5
5
5
5
5
5
5
5
5
5
5
5
5
5
5
5
5
5
5
5
5
5
5
5
5
5
5
5
5
5
5
5
5
5
5
5
5
5
5
5
5
5
POINT_DATA 296
SCALARS concentrations float 4
LOOKUP_TABLE default
0 0.998177 0.139979 12.1027
0 0.998235 0.139826 4.10713
0 0.998212 0.13781 10.9035
0 0.998218 0.139356 6.37633
0 0.998161 0.0956793 0.503162
0 0.998278 0.140034 10.7212
0 0.99822 0.139221 8.57873
0 0.998165 0.100153 -1.41042
0 0.998228 0.0955698 0.659651
0 0.998158 0.139426 11.4977
0 0.998155 0.141435 10.3449
0 0.998226 0.138909 12.1515
0 0.998322 0.13987 1.28769
0 0.998191 0.0955863 -0.657633
0 0.998183 0.0947667 -0.611274
0 0.998153 0.0964959 -0.402559
0 0.998134 0.0994792 -2.5722
0 0.998215 0.0947597 0.292386
0 0.998165 0.0940299 -0.195194
0 0.998151 0.0969037 -0.0675195
0 0.99818 0.0969661 0.687113
0 0.998177 0.140995 13.3018
0 0.998248 0.141505 0.840327
0 0.99815 0.0941426 -0.448707
0 0.998165 0.0943165 -0.871151
0 0.998236 0.0941382 -1.01182
0 0.998256 0.139579 6.07312
0 0.998268 0.0948117 -0.374809
0 0.998167 0.137524 13.462
0 0.998161 0.0948953 0.757748
0 0.998176 0.0956581 0.227753
0 0.99817 0.0958622 0.221298
0 0.998173 0.139459 10.6164
0 0.998171 0.0967175 0.0601239
0 0.998143 0.100018 -2.9008
0 0.998164 0.0947981 -0.692584
0 0.998155 0.0945927 0.26248
0 0.998158 0.0987789 0.0642123
0 0.998178 0.0933299 0.431188
0 0.998211 0.0934739 -0.215228
0 0.998226 0.0947927 -1.19644
0 0.998175 0.0951394 0.593848
0 0.998189 0.0948438 0.209486
0 0.998164 0.139818 8.98888
0 0.998184 0.0956839 -0.728381
0 0.998202 0.0954148 1.08248
0 0.998195 0.0987267 1.80691
0 0.998214 0.140566 6.99296
0 0.998187 0.0944116 -0.408901
0 0.998193 0.142146 9.64116
0 0.998192 0.094698 -1.24816
0 0.99819 0.10215 -2.24721
0 0.998178 0.0958005 0.900057
0 0.998177 0.0944047 -0.896922
0 0.998203 0.0928958 -0.145014
0 0.998169 0.0947744 0.650531
0 0.998177 0.0990876 -1.64735
0 0.998189 0.0972819 0.878366
0 0.998177 0.100439 -2.96123
0 0.998213 0.0952254 -0.217806
0 0.998216 0.093986 -0.25179
0 0.998192 0.0966138 -0.834055
0 0.998191 0.0955269 -0.327577
0 0.9982 0.136095 4.6086
0 0.998183 0.0957099 -0.0113121
0 0.998175 0.10255 0.105515
0 0.998172 0.0956968 0.0626027
0 0.998204 0.0935553 -0.115509
0 0.998173 0.0942929 -0.254038
0 0.998122 0.139818 9.7401
0 0.998169 0.0932486 0.106283
0 0.998106 0.13777 9.87552
0 0.998173 0.100972 -2.67
0 0.998197 0.0949777 0.591027
0 0.99818 0.0948109 0.698524
0 0.998211 0.0937752 -0.508409
0 0.998191 0.0930399 -0.357104
0 0.998209 0.0929104 -0.172811
0 0.998176 0.0943315 0.194338
0 0.998185 0.0970702 0.782899
0 0.998188 0.0959876 -0.894666
0 0.998186 0.095005 0.333924
0 0.998202 0.0959513 -0.338664
0 0.998201 0.0944573 -0.532832
0 0.99819 0.0953274 -0.0947928
0 0.998146 0.138493 9.19196
0 0.998188 0.0992919 2.1302
0 0.998162 0.0951443 0.153781
0 0.998191 0.0934541 -0.158643
0 0.998181 0.0944443 0.432274
0 0.998133 0.0938094 -0.766555
0 0.998181 0.0937053 -0.182794
0 0.998185 0.141584 10.7906
0 0.998166 0.0939121 -0.185012
0 0.998187 0.0945082 0.339562
0 0.998197 0.094757 -1.10052
0 0.998195 0.0938949 0.712901
0 0.998183 0.0938699 -0.123996
0 0.998209 0.138178 5.00732
0 0.998152 0.0939566 -0.552627
0 0.998195 0.0941236 -0.483188
0 0.998191 0.0935653 -0.292777
0 0.99819 0.0932477 -0.464498
0 0.998214 0.0944443 0.0684264
0 0.998198 0.100468 -2.96365
0 0.998191 0.0965836 0.979485
0 0.998198 0.0960866 -0.659507
0 0.99819 0.094942 -1.05239
0 0.998192 0.094995 1.21275
0 0.998128 0.138443 14.9313
0 0.998173 0.0941756 0.618391
0 0.998183 0.0937209 -0.184416
0 0.998186 0.095718 0.762931
0 0.998183 0.0938468 -0.439438
0 0.99822 0.0952056 -0.259703
0 0.998211 0.0950945 -0.987035
0 0.998196 0.0942664 -0.227008
0 0.998213 0.0932713 -0.599611
0 0.998215 0.0931124 -0.327087
0 0.998208 0.0947322 0.0648358
0 0.998199 0.094953 -1.25563
0 0.998175 0.093463 0.0886902
0 0.998189 0.0933646 -0.68483
0 0.998222 0.0933395 -0.812347
0 0.998157 0.139363 10.1737
0 0.998148 0.0945678 -0.827205
0 0.998177 0.0946673 -0.43587
0 0.998185 0.0947505 -0.216295
0 0.99819 0.095173 -0.169083
0 0.998216 0.093937 0.602538
0 0.998201 0.0937529 0.359163
0 0.99818 0.0938362 -0.271323
0 0.998187 0.0937116 0.323952
0 0.998162 0.0968278 -0.393453
0 0.998125 0.139557 11.0067
0 0.998176 0.0937318 -0.0882124
0 0.998187 0.0942344 -1.05001
0 0.998219 0.0956489 0.621697
0 0.998198 0.0946213 -0.642639
0 0.99818 0.0934163 -0.0333731
0 0.998206 0.0939924 0.355656
0 0.998172 0.0937444 -0.902291
0 0.99822 0.09279 -0.0057272
0 0.99822 0.092513 -0.343202
0 0.998218 0.10006 1.10436
0 0.998194 0.0937863 -0.105203
0 0.998184 0.094995 -0.79884
0 0.998229 0.0974611 1.24685
0 0.998225 0.0939986 -0.733129
0 0.99822 0.0933897 0.10086
0 0.998188 0.142074 8.13515
0 0.998182 0.0951122 -0.558969
0 0.998182 0.0956866 -1.39546
0 0.998184 0.0942197 -0.520547
0 0.998187 0.0939625 0.492793
0 0.998185 0.0950046 -0.753521
0 0.998201 0.0936013 -0.159901
0 0.998182 0.0937854 0.495544
0 0.998212 0.101206 -1.65526
0 0.998181 0.0947567 -0.294939
0 0.998172 0.0961391 -0.793919
0 0.99816 0.141224 8.56382
0 0.998181 0.0949682 -0.261275
0 0.998199 0.094257 0.611523
0 0.99821 0.0933669 0.0229618
0 0.998205 0.0939505 -0.413796
0 0.998215 0.0939718 0.164735
0 0.998172 0.0934727 0.00486389
0 0.998226 0.094056 -0.259637
0 0.998213 0.0961809 2.06792
0 0.998179 0.0946877 -0.638322
0 0.998219 0.0931764 -0.258048
0 0.998236 0.0945411 -0.753858
0 0.998234 0.0935843 -0.216308
0 0.998237 0.138653 5.49995
0 0.998179 0.0947325 0.363088
0 0.998187 0.0947318 -0.113721
0 0.998182 0.0942903 0.663259
0 0.998173 0.0945874 1.04649
0 0.998179 0.0952207 -1.10827
0 0.998192 0.0944091 0.702427
0 0.998185 0.0952102 -0.0983667
0 0.998209 0.0995807 0.991396
0 0.998183 0.0944671 0.279463
0 0.998182 0.0945619 0.254785
0 0.998178 0.0941909 -0.525444
0 0.998197 0.0935606 0.0170255
0 0.998184 0.138873 9.84447
0 0.998191 0.0937122 -0.00239035
0 0.998206 0.0947286 -0.397527
0 0.998211 0.0941466 1.04112
0 0.998208 0.0945173 0.79342
0 0.998178 0.0935296 -0.214047
0 0.998187 0.0959178 -1.69402
0 0.998217 0.0949361 0.572409
0 0.998205 0.09556 -1.59525
0 0.998231 0.0954741 1.30561
0 0.998209 0.103299 -3.14263
0 0.998232 0.094054 -0.603444
0 0.998199 0.0943766 -1.1367
0 0.998222 0.0940827 -0.348111
0 0.998241 0.139109 5.39849
0 0.998181 0.0934796 -0.067614
0 0.998171 0.095566 0.764336
0 0.998178 0.094728 -0.170958
0 0.998185 0.095032 0.839311
0 0.998192 0.0935884 0.455207
0 0.998182 0.097371 -1.35079
0 0.998189 0.0954034 1.03988
0 0.998244 0.0938417 -0.660248
0 0.99825 0.139968 8.42675
0 0.998203 0.094679 -0.732633
0 0.99821 0.0950913 0.814788
0 0.998207 0.0988224 0.83256
0 0.998204 0.0948538 -0.637126
0 0.998208 0.0957293 -1.26153
0 0.998199 0.094113 -0.426606
0 0.99819 0.0951885 -0.561244
0 0.998215 0.0951611 1.48167
0 0.998198 0.0962329 -1.63363
0 0.998194 0.101352 -2.76215
0 0.998178 0.0942252 0.470961
0 0.998204 0.139392 7.62241
0 0.998186 0.0956599 -0.927593
0 0.998181 0.096933 -0.274902
0 0.998189 0.0929534 0.392933
0 0.998194 0.092982 0.274591
0 0.998184 0.0939332 -0.347613
0 0.998187 0.0957206 0.0164284
0 0.998235 0.0951438 -0.991285
0 0.998292 0.138803 7.69249
0 0.998207 0.097994 0.713968
0 0.998195 0.101559 0.0952992
0 0.998204 0.0946135 0.518335
0 0.998203 0.0955209 1.046
0 0.99821 0.0935068 0.129611
0 0.998199 0.0946067 -0.583966
0 0.998194 0.0944146 -0.658859
0 0.998184 0.0952812 -1.38618
0 0.998197 0.094799 0.223811
0 0.998207 0.0948849 0.294747
0 0.998175 0.094628 0.312379
0 0.998147 0.138202 6.96874
0 0.998191 0.0977422 -0.303628
0 0.998196 0.0953439 -1.32581
0 0.998201 0.101268 -2.76632
0 0.998191 0.0952946 -0.599362
0 0.998203 0.093979 0.338839
0 0.99823 0.139418 8.4628
0 0.998193 0.0947226 -0.707677
0 0.998196 0.0957763 1.78838
0 0.998198 0.0960632 -1.4635
0 0.998187 0.0954709 -0.911311
0 0.998186 0.0943501 -0.381048
0 0.998205 0.0987785 -2.10392
0 0.998235 0.0948762 0.507888
0 0.998235 0.093894 -0.658645
0 0.998193 0.140386 11.966
0 0.998198 0.0950006 0.389987
0 0.998206 0.0954157 0.807498
0 0.998195 0.0955593 0.840209
0 0.998197 0.0947632 -0.00660852
0 0.998209 0.139638 7.41715
0 0.99819 0.0939055 0.379139
0 0.998189 0.0966121 2.28435
0 0.998188 0.101761 -1.79721
0 0.998199 0.0979146 2.313
0 0.998236 0.0948692 -0.778898
0 0.998279 0.0938179 0.188973
0 0.998278 0.139705 -1.62096
0 0.998202 0.0977434 2.33489
0 0.998208 0.0945914 0.0787225
0 0.99819 0.0945951 -0.0692415
0 0.998184 0.139318 6.48912
0 0.998191 0.0952363 1.62514
0 0.998189 0.0962216 2.17388
0 0.998198 0.0966285 2.03817
0 0.998196 0.0969699 -2.87184
0 0.998217 0.0959697 0.443154
0 0.99826 0.0952274 1.64343
0 0.998292 0.140938 4.44198
0 0.998217 0.0945182 0.782192
0 0.998224 0.0941602 -0.0245123
0 0.998198 0.138371 10.3774
0 0.998212 0.0950666 1.4722
0 0.998209 0.0967349 1.73709
0 0.998222 0.0967939 -2.32393
0 0.998244 0.0945825 1.23807
0 0.998262 0.137464 3.63375
0 0.998239 0.094347 -0.442283
0 0.998245 0.139416 2.37409
0 0.998241 0.0953205 -1.37255
0 0.998247 0.0956253 0.429933
0 0.998265 0.136037 11.1242
0 0.998251 0.139062 7.58008
0 0.998254 0.136919 0.482998
VECTORS fa_u float
0.00611831 0.00253145 -0
0.00564756 0.00326076 -0
0.00609748 0.00163579 -0
0.00660042 0.000874287 -0
1e-08 0 0
0.00517612 0.00397108 -0
0.00453725 0.00453056 -0
1e-08 0 0
1e-08 0 0
0.00399836 0.00519757 -0
0.0033037 0.00571222 -0
0.00640939 5.02025e-06 -0
0.00658909 -0.000861781 0
1e-08 0 0
1e-08 0 0
1e-08 0 0
1e-08 0 0
1e-08 0 0
1e-08 0 0
1e-08 0 0
1e-08 0 0
0.00253431 0.00611887 -0
0.00169628 0.00634849 -0
1e-08 0 0
1e-08 0 0
1e-08 0 0
0.0063313 -0.00169529 0
1e-08 0 0
0.0061193 -0.00253769 0
1e-08 0 0
1e-08 0 0
1e-08 0 0
0.000843582 0.0064441 -0
1e-08 0 0
1e-08 0 0
1e-08 0 0
1e-08 0 0
1e-08 0 0
1e-08 0 0
1e-08 0 0
1e-08 0 0
1e-08 0 0
1e-08 0 0
-3.74707e-06 0.00653247 -0
1e-08 0 0
1e-08 0 0
1e-08 0 0
0.00575558 -0.00333451 0
1e-08 0 0
0.00499701 -0.00384156 0
1e-08 0 0
1e-08 0 0
1e-08 0 0
1e-08 0 0
1e-08 0 0
1e-08 0 0
1e-08 0 0
1e-08 0 0
1e-08 0 0
1e-08 0 0
1e-08 0 0
1e-08 0 0
1e-08 0 0
-0.000845339 0.00640874 0
1e-08 0 0
1e-08 0 0
1e-08 0 0
1e-08 0 0
1e-08 0 0
0.00459289 -0.00458888 0
1e-08 0 0
0.00392143 -0.00509825 0
1e-08 0 0
1e-08 0 0
1e-08 0 0
1e-08 0 0
1e-08 0 0
1e-08 0 0
1e-08 0 0
1e-08 0 0
1e-08 0 0
1e-08 0 0
1e-08 0 0
1e-08 0 0
1e-08 0 0
-0.00170054 0.00634498 0
1e-08 0 0
1e-08 0 0
1e-08 0 0
1e-08 0 0
1e-08 0 0
1e-08 0 0
0.00334647 -0.00578392 0
1e-08 0 0
1e-08 0 0
1e-08 0 0
1e-08 0 0
1e-08 0 0
0.00256335 -0.00620114 0
1e-08 0 0
1e-08 0 0
1e-08 0 0
1e-08 0 0
1e-08 0 0
1e-08 0 0
1e-08 0 0
1e-08 0 0
1e-08 0 0
1e-08 0 0
-0.00248578 0.00600028 0
1e-08 0 0
1e-08 0 0
1e-08 0 0
1e-08 0 0
1e-08 0 0
1e-08 0 0
1e-08 0 0
1e-08 0 0
1e-08 0 0
1e-08 0 0
1e-08 0 0
1e-08 0 0
1e-08 0 0
1e-08 0 0
0.00164682 -0.00616717 0
1e-08 0 0
1e-08 0 0
1e-08 0 0
1e-08 0 0
1e-08 0 0
1e-08 0 0
1e-08 0 0
1e-08 0 0
1e-08 0 0
-0.00328378 0.00568707 0
1e-08 0 0
1e-08 0 0
1e-08 0 0
1e-08 0 0
1e-08 0 0
1e-08 0 0
1e-08 0 0
1e-08 0 0
1e-08 0 0
1e-08 0 0
1e-08 0 0
1e-08 0 0
1e-08 0 0
1e-08 0 0
1e-08 0 0
0.000846472 -0.00642029 0
1e-08 0 0
1e-08 0 0
1e-08 0 0
1e-08 0 0
1e-08 0 0
1e-08 0 0
1e-08 0 0
1e-08 0 0
1e-08 0 0
1e-08 0 0
-0.00397952 0.00518371 0
1e-08 0 0
1e-08 0 0
1e-08 0 0
1e-08 0 0
1e-08 0 0
1e-08 0 0
1e-08 0 0
1e-08 0 0
1e-08 0 0
1e-08 0 0
1e-08 0 0
1e-08 0 0
2.65252e-06 -0.00654161 0
1e-08 0 0
1e-08 0 0
1e-08 0 0
1e-08 0 0
1e-08 0 0
1e-08 0 0
1e-08 0 0
1e-08 0 0
1e-08 0 0
1e-08 0 0
1e-08 0 0
1e-08 0 0
-0.00448568 0.00449183 0
1e-08 0 0
1e-08 0 0
1e-08 0 0
1e-08 0 0
1e-08 0 0
1e-08 0 0
1e-08 0 0
1e-08 0 0
1e-08 0 0
1e-08 0 0
1e-08 0 0
1e-08 0 0
1e-08 0 0
-0.000857357 -0.00651909 0
1e-08 0 0
1e-08 0 0
1e-08 0 0
1e-08 0 0
1e-08 0 0
1e-08 0 0
1e-08 0 0
1e-08 0 0
-0.00523763 0.00402938 0
1e-08 0 0
1e-08 0 0
1e-08 0 0
1e-08 0 0
1e-08 0 0
1e-08 0 0
1e-08 0 0
1e-08 0 0
1e-08 0 0
1e-08 0 0
1e-08 0 0
-0.00164867 -0.0061691 0
1e-08 0 0
1e-08 0 0
1e-08 0 0
1e-08 0 0
1e-08 0 0
1e-08 0 0
1e-08 0 0
-0.00570687 0.00329906 0
1e-08 0 0
1e-08 0 0
1e-08 0 0
1e-08 0 0
1e-08 0 0
1e-08 0 0
1e-08 0 0
1e-08 0 0
1e-08 0 0
1e-08 0 0
1e-08 0 0
-0.0025779 -0.00622951 0
1e-08 0 0
1e-08 0 0
1e-08 0 0
1e-08 0 0
1e-08 0 0
-0.00612961 0.00253714 0
1e-08 0 0
1e-08 0 0
1e-08 0 0
1e-08 0 0
1e-08 0 0
1e-08 0 0
1e-08 0 0
1e-08 0 0
-0.00328999 -0.0056868 0
1e-08 0 0
1e-08 0 0
1e-08 0 0
1e-08 0 0
-0.0062589 0.00167364 0
1e-08 0 0
1e-08 0 0
1e-08 0 0
1e-08 0 0
1e-08 0 0
1e-08 0 0
-0.00392917 -0.00511355 0
1e-08 0 0
1e-08 0 0
1e-08 0 0
-0.00646143 0.000849492 0
1e-08 0 0
1e-08 0 0
1e-08 0 0
1e-08 0 0
1e-08 0 0
1e-08 0 0
-0.00460872 -0.00460731 0
1e-08 0 0
1e-08 0 0
-0.00665597 -4.75449e-06 0
1e-08 0 0
1e-08 0 0
1e-08 0 0
1e-08 0 0
-0.0051563 -0.00395737 0
1e-08 0 0
-0.00639865 -0.000848672 0
1e-08 0 0
1e-08 0 0
-0.00570953 -0.00329607 0
-0.00619652 -0.00166003 0
-0.00606373 -0.00250817 0
