# vtk DataFile Version 2.0
CellBP Time: 9.28
ASCII
DATASET UNSTRUCTURED_GRID
POINTS 296 double
-8.93419 -3.6582 0
-8.37694 -4.80901 0
-9.32411 -2.43703 0
-9.60109 -1.21045 0
-8.09041 -2.70969 0
-7.66122 -5.87402 0
-6.81382 -6.83679 0
-7.65077 -3.72937 0
-7.08995 -4.70216 0
-5.89044 -7.70419 0
-4.86362 -8.43667 0
-9.70956 0.0379849 0
-9.65459 1.31296 0
-8.41038 -1.62166 0
-8.5679 -0.50527 0
-7.33857 -1.91538 0
-6.96412 -2.77867 0
-6.43668 -5.62051 0
-5.66923 -6.4382 0
-6.53707 -3.73931 0
-6.00451 -4.52293 0
-3.71513 -9.00055 0
-2.48726 -9.39927 0
-4.7957 -7.15545 0
-3.84684 -7.73986 0
-8.58312 0.631143 0
-9.43525 2.58954 0
-8.44046 1.72968 0
-9.02599 3.80473 0
-7.51473 -0.882228 0
-7.58349 0.0903359 0
-6.73183 -1.25258 0
-1.21622 -9.63618 0
-6.23782 -2.06493 0
-6.10529 -2.93708 0
-5.36497 -5.32463 0
-4.66756 -5.97012 0
-5.46952 -3.62865 0
-5.09036 -4.42551 0
-2.8166 -8.20124 0
-1.74539 -8.45992 0
-3.83821 -6.58451 0
-3.01067 -7.01747 0
0.0553869 -9.69532 0
-7.50874 1.11578 0
-8.18378 2.85773 0
-7.37159 2.04829 0
-8.41223 4.92401 0
-7.70094 3.8798 0
-7.6535 5.95829 0
-6.58114 -0.367849 0
-6.76048 0.548906 0
-5.6187 -0.967515 0
-0.581554 -8.60615 0
0.543713 -8.53843 0
-5.1536 -2.39943 0
-4.34539 -4.95807 0
-3.79502 -5.63993 0
-4.31351 -3.70547 0
-2.02449 -7.40854 0
-1.11505 -7.61664 0
-2.92808 -5.97079 0
-2.27007 -6.48645 0
1.3099 -9.57805 0
-6.51536 1.38108 0
-6.98675 3.02595 0
-6.49181 2.30449 0
-7.10589 4.84917 0
-6.54454 3.88462 0
-6.81243 6.90509 0
-6.39137 5.72588 0
-5.86951 7.76198 0
-4.37282 -1.16655 0
-5.67595 0.491056 0
-4.57135 -0.0279235 0
-0.0049391 -7.65118 0
1.67981 -8.38778 0
0.902696 -7.54063 0
-3.95851 -2.35254 0
-3.45442 -1.37885 0
-3.21554 -4.69928 0
-3.2151 -3.20589 0
-1.36445 -6.5249 0
-0.519895 -6.85226 0
-1.94525 -5.43018 0
2.55841 -9.33163 0
-5.37929 1.99043 0
-5.94077 2.98118 0
-5.94529 4.72425 0
-5.60974 3.86532 0
-5.59792 6.5208 0
-5.30299 5.44808 0
-4.84192 8.51369 0
-4.69964 7.18351 0
-3.45948 -0.4191 0
-4.36141 1.22507 0
-3.64967 0.585445 0
-3.97973 2.2928 0
-3.70519 9.08189 0
2.75596 -8.05523 0
0.373559 -6.60006 0
1.92964 -7.28143 0
1.23291 -6.68931 0
-2.42476 -0.861535 0
-2.80999 -2.10473 0
-2.26311 -4.0224 0
-2.29649 -2.926 0
-0.452157 -5.71817 0
-1.20031 -4.41937 0
3.769 -8.93968 0
-4.67057 3.30209 0
-4.95201 4.45222 0
-4.51725 6.0834 0
-4.41563 5.19533 0
-3.74844 7.78654 0
-3.7092 6.62478 0
-2.70799 8.19105 0
-1.63328 -0.12317 0
-1.43415 -0.873608 0
-2.47001 0.517567 0
-3.20096 1.43384 0
-3.17305 3.26046 0
-2.86467 2.35715 0
-1.35015 0.638125 0
-2.48453 9.46555 0
3.79346 -7.62585 0
2.8351 -6.89396 0
0.897475 -5.6564 0
1.97854 -6.19612 0
-1.66091 -1.97303 0
-1.41381 -3.23131 0
0.07805 -4.64466 0
-0.552266 -3.63716 0
4.77082 -7.068 0
4.91176 -8.38191 0
-3.68298 4.43134 0
-3.63267 5.5845 0
-2.7968 7.06564 0
-2.926 6.16516 0
-1.62015 8.51162 0
-1.87888 7.4082 0
-2.29727 3.97536 0
-0.719483 -1.31508 0
-0.828378 -0.242505 0
-1.92988 1.69397 0
-2.10206 2.85455 0
-1.29645 3.50491 0
-0.871531 1.36079 0
-0.28507 0.464731 0
-0.521757 8.6629 0
-1.22452 9.70198 0
1.06743 -4.45551 0
3.74773 -6.44669 0
2.86453 -5.87003 0
2.03336 -5.24817 0
4.62273 -5.96901 0
-0.547876 -2.45611 0
0.489113 -3.40969 0
0.0602969 -1.60036 0
1.44345 -3.5944 0
5.6953 -6.39687 0
5.97357 -7.66722 0
-2.41458 5.21193 0
-2.06084 6.34961 0
-0.871052 7.61301 0
-1.22051 6.74547 0
0.0920112 7.70494 0
-1.12596 4.41538 0
0.149159 -0.611356 0
-0.809128 2.4947 0
-0.344882 3.57225 0
0.0507528 1.51551 0
0.731338 0.473677 0
0.629779 8.69041 0
0.042356 9.81151 0
2.30353 -4.15623 0
3.7229 -5.42862 0
2.89699 -5.03234 0
5.41976 -5.3069 0
4.54465 -5.07985 0
0.633476 -2.28283 0
1.23883 -2.90459 0
0.758954 -1.38741 0
2.11677 -3.06555 0
2.92086 -3.38296 0
6.00843 -4.64839 0
6.48717 -5.60413 0
6.92793 -6.80983 0
-0.988975 5.68533 0
-0.343316 6.71619 0
1.10259 7.61548 0
0.56291 6.92518 0
-0.00273399 4.65506 0
0.592647 3.78376 0
1.33289 -0.642064 0
0.522144 2.6379 0
0.949888 1.57664 0
1.8911 0.207765 0
1.59736 1.05972 0
2.09617 7.43983 0
1.76792 8.54206 0
1.32308 9.74118 0
3.71697 -4.20627 0
4.98117 -4.28685 0
5.71213 -3.81089 0
3.70114 -3.10811 0
1.79602 -1.87646 0
2.96634 -2.52403 0
6.64159 -3.84436 0
7.21976 -4.77905 0
7.79364 -5.87919 0
0.480425 5.76384 0
1.41056 6.60956 0
2.33889 6.54962 0
1.18839 4.48723 0
1.46302 3.35328 0
2.40735 -0.689523 0
2.79252 0.138484 0
1.76615 2.14909 0
2.58873 1.13905 0
3.02494 7.04178 0
2.85924 8.2183 0
2.59074 9.49786 0
4.80267 -3.22461 0
5.9948 -3.02455 0
4.09817 -2.22921 0
3.19712 -1.48852 0
6.61096 -2.27264 0
7.10179 -2.9831 0
7.81938 -3.84206 0
8.52989 -4.85412 0
1.99614 5.50268 0
3.01054 6.03165 0
2.33408 4.06151 0
2.39027 3.01694 0
3.47783 -0.452475 0
3.56859 0.613986 0
2.92562 2.2584 0
3.48575 1.50464 0
3.90031 5.76704 0
3.89768 6.65675 0
3.90889 7.7912 0
3.81487 9.09468 0
5.47231 -1.87909 0
4.43805 -1.10765 0
6.58845 -1.31017 0
7.45162 -1.99898 0
8.23848 -2.81002 0
9.09868 -3.71066 0
3.32463 4.77239 0
3.26845 3.31809 0
4.61154 0.133847 0
4.42008 1.27908 0
3.96545 2.38384 0
4.42058 5.02083 0
4.71061 6.05175 0
4.87256 7.22181 0
4.95788 8.52578 0
5.76024 -0.434756 0
6.85901 -0.486863 0
7.61106 -1.05776 0
8.51427 -1.70691 0
9.49995 -2.484 0
4.41459 3.72648 0
5.66497 1.0521 0
5.20765 2.45253 0
5.19069 4.48464 0
5.43506 5.37853 0
5.7479 6.50807 0
5.98383 7.79338 0
6.67148 0.42869 0
7.67763 -0.029288 0
8.67288 -0.560285 0
9.74045 -1.21402 0
6.76381 1.28609 0
5.52178 3.65758 0
6.3343 2.10412 0
6.15831 2.97226 0
6.07204 4.53996 0
6.49091 5.67347 0
6.92104 6.93616 0
7.58414 0.928881 0
8.64203 0.56126 0
9.80462 0.0630311 0
7.39264 1.9274 0
6.57062 3.75525 0
7.01944 2.82972 0
7.15018 4.73631 0
7.77899 5.9828 0
8.48409 1.67897 0
9.68351 1.31706 0
8.15196 2.74251 0
7.73601 3.79436 0
8.49446 4.92339 0
9.4406 2.56788 0
9.05004 3.77941 0
CELLS 542 2168
3 2 0 4
3 0 1 7
3 4 0 7
3 1 5 8
3 7 1 8
3 3 2 13
3 13 2 4
3 11 3 14
3 14 3 13
3 13 4 15
3 4 7 16
3 15 4 16
3 5 6 17
3 8 5 17
3 6 9 18
3 17 6 18
3 7 8 19
3 16 7 19
3 8 17 20
3 19 8 20
3 9 10 23
3 18 9 23
3 10 21 24
3 23 10 24
3 12 11 25
3 25 11 14
3 26 12 27
3 27 12 25
3 14 13 29
3 29 13 15
3 25 14 30
3 30 14 29
3 29 15 31
3 15 16 33
3 31 15 33
3 16 19 34
3 33 16 34
3 17 18 35
3 20 17 35
3 18 23 36
3 35 18 36
3 19 20 37
3 34 19 37
3 20 35 38
3 37 20 38
3 21 22 39
3 24 21 39
3 22 32 40
3 39 22 40
3 23 24 41
3 36 23 41
3 24 39 42
3 41 24 42
3 27 25 44
3 44 25 30
3 28 26 45
3 45 26 27
3 45 27 46
3 46 27 44
3 47 28 48
3 48 28 45
3 30 29 50
3 50 29 31
3 44 30 51
3 51 30 50
3 50 31 52
3 31 33 52
3 32 43 53
3 40 32 53
3 53 43 54
3 33 34 55
3 34 37 55
3 33 55 52
3 35 36 56
3 38 35 56
3 36 41 57
3 56 36 57
3 37 38 58
3 38 56 58
3 37 58 55
3 39 40 59
3 42 39 59
3 40 53 60
3 59 40 60
3 41 42 61
3 57 41 61
3 42 59 62
3 61 42 62
3 43 63 54
3 46 44 64
3 64 44 51
3 48 45 65
3 65 45 46
3 65 46 66
3 66 46 64
3 49 47 67
3 67 47 48
3 67 48 68
3 68 48 65
3 69 49 70
3 70 49 67
3 52 55 72
3 64 51 73
3 51 50 73
3 50 52 73
3 73 52 74
3 74 52 72
3 53 54 75
3 60 53 75
3 54 63 76
3 54 76 77
3 75 54 77
3 55 58 78
3 72 55 78
3 72 78 79
3 56 57 80
3 57 61 80
3 56 80 58
3 58 80 81
3 78 58 81
3 59 60 82
3 62 59 82
3 60 75 83
3 82 60 83
3 61 62 84
3 62 82 84
3 61 84 80
3 63 85 76
3 66 64 86
3 64 73 86
3 68 65 87
3 87 65 66
3 87 66 86
3 70 67 88
3 88 67 68
3 88 68 89
3 89 68 87
3 71 69 90
3 90 69 70
3 90 70 91
3 91 70 88
3 92 71 93
3 93 71 90
3 74 72 94
3 94 72 79
3 86 73 95
3 95 73 74
3 95 74 96
3 96 74 94
3 97 86 95
3 76 85 99
3 75 77 100
3 83 75 100
3 76 99 101
3 77 76 101
3 77 101 102
3 100 77 102
3 94 79 103
3 78 81 104
3 79 78 104
3 79 104 103
3 80 84 105
3 81 80 105
3 81 105 106
3 104 81 106
3 82 83 107
3 83 100 107
3 82 107 84
3 84 107 108
3 105 84 108
3 85 109 99
3 89 87 110
3 87 86 110
3 110 86 97
3 91 88 111
3 111 88 89
3 111 89 110
3 93 90 112
3 112 90 91
3 112 91 113
3 113 91 111
3 98 92 114
3 114 92 93
3 114 93 115
3 115 93 112
3 116 98 114
3 117 103 118
3 96 94 119
3 94 103 119
3 119 103 117
3 97 95 120
3 120 95 96
3 120 96 119
3 121 110 97
3 121 97 122
3 122 97 120
3 123 119 117
3 124 98 116
3 99 109 125
3 99 125 126
3 101 99 126
3 100 102 127
3 100 127 107
3 101 126 128
3 102 101 128
3 102 128 127
3 104 106 129
3 104 129 103
3 103 129 118
3 105 108 130
3 106 105 130
3 106 130 129
3 107 127 131
3 108 107 131
3 108 131 132
3 108 132 130
3 109 134 125
3 125 134 133
3 113 111 135
3 111 110 135
3 135 110 121
3 115 112 136
3 136 112 113
3 136 113 135
3 116 114 137
3 137 114 115
3 137 115 138
3 138 115 136
3 139 124 116
3 139 116 140
3 140 116 137
3 141 135 121
3 118 129 142
3 118 142 143
3 117 118 143
3 123 117 143
3 122 120 144
3 120 119 144
3 144 119 123
3 141 121 145
3 145 121 122
3 145 122 144
3 146 141 145
3 147 144 123
3 147 123 148
3 143 148 123
3 150 124 139
3 149 150 139
3 131 127 151
3 125 133 152
3 126 125 152
3 126 152 153
3 128 126 153
3 128 153 154
3 128 154 127
3 127 154 151
3 152 133 155
3 130 132 156
3 130 156 129
3 129 156 142
3 131 151 157
3 132 131 157
3 132 157 156
3 156 158 142
3 157 151 159
3 133 160 155
3 134 161 133
3 133 161 160
3 138 136 162
3 136 135 162
3 162 135 141
3 140 137 163
3 163 137 138
3 163 138 162
3 149 139 164
3 164 139 140
3 164 140 165
3 165 140 163
3 166 149 164
3 167 162 141
3 167 141 146
3 142 158 168
3 143 142 168
3 143 168 148
3 146 145 169
3 145 144 169
3 169 144 147
3 170 167 146
3 170 146 169
3 171 169 147
3 171 147 148
3 171 148 172
3 168 172 148
3 173 149 166
3 174 150 149
3 173 174 149
3 154 175 151
3 151 175 159
3 152 155 176
3 153 152 176
3 153 176 177
3 153 177 154
3 154 177 175
3 155 160 178
3 155 178 179
3 176 155 179
3 156 157 180
3 156 180 158
3 157 159 181
3 157 181 180
3 158 180 182
3 158 182 168
3 159 175 183
3 159 183 181
3 175 184 183
3 160 186 178
3 178 186 185
3 161 187 160
3 160 187 186
3 165 163 188
3 163 162 188
3 188 162 167
3 166 164 189
3 189 164 165
3 189 165 188
3 190 173 166
3 190 166 191
3 191 166 189
3 192 188 167
3 192 167 170
3 193 192 170
3 182 194 168
3 194 172 168
3 193 170 195
3 170 169 195
3 195 169 171
3 196 195 171
3 196 171 172
3 194 197 172
3 197 198 172
3 198 196 172
3 200 173 190
3 199 200 190
3 201 174 173
3 200 201 173
3 176 179 202
3 177 176 202
3 177 202 175
3 175 202 184
3 178 185 203
3 178 203 179
3 179 203 202
3 203 185 204
3 202 205 184
3 183 206 181
3 180 181 206
3 180 206 182
3 182 206 194
3 183 184 207
3 205 207 184
3 183 207 206
3 185 208 204
3 186 209 185
3 185 209 208
3 187 210 186
3 186 210 209
3 191 189 211
3 189 188 211
3 211 188 192
3 199 190 212
3 212 190 191
3 212 191 211
3 213 199 212
3 214 211 192
3 214 192 193
3 215 214 193
3 215 193 195
3 206 216 194
3 216 197 194
3 216 217 197
3 215 195 218
3 218 195 196
3 198 218 196
3 217 219 197
3 219 218 198
3 197 219 198
3 220 199 213
3 221 200 199
3 220 221 199
3 222 201 200
3 221 222 200
3 203 204 223
3 203 223 202
3 202 223 205
3 204 208 224
3 204 224 223
3 205 223 225
3 205 225 207
3 207 225 226
3 207 226 206
3 226 216 206
3 208 228 224
3 224 228 227
3 209 229 208
3 229 228 208
3 210 230 209
3 209 230 229
3 213 212 231
3 212 211 231
3 231 211 214
3 232 220 213
3 232 213 231
3 233 231 214
3 233 214 215
3 234 233 215
3 234 215 218
3 226 235 216
3 235 217 216
3 235 236 217
3 217 236 219
3 237 234 218
3 237 218 219
3 236 238 219
3 238 237 219
3 240 220 232
3 239 240 232
3 241 221 220
3 240 241 220
3 242 222 221
3 241 242 221
3 224 227 243
3 224 243 223
3 223 243 225
3 225 243 244
3 225 244 226
3 226 244 235
3 227 245 243
3 228 246 227
3 227 246 245
3 229 247 228
3 228 247 246
3 230 248 229
3 229 248 247
3 239 232 249
3 232 231 249
3 249 231 233
3 250 249 233
3 250 233 234
3 237 250 234
3 244 251 235
3 235 251 236
3 251 252 236
3 236 252 238
3 252 253 238
3 253 250 237
3 253 237 238
3 254 239 249
3 255 240 239
3 254 255 239
3 256 241 240
3 255 256 240
3 257 242 241
3 256 257 241
3 245 258 243
3 243 258 244
3 244 258 251
3 245 259 258
3 246 260 245
3 245 260 259
3 247 261 246
3 246 261 260
3 248 262 247
3 247 262 261
3 254 249 263
3 263 249 250
3 253 263 250
3 258 264 251
3 251 264 252
3 264 265 252
3 265 263 253
3 252 265 253
3 266 254 263
3 267 255 254
3 266 267 254
3 268 256 255
3 267 268 255
3 269 257 256
3 268 269 256
3 259 270 258
3 270 264 258
3 260 271 259
3 259 271 270
3 261 272 260
3 260 272 271
3 262 273 261
3 273 272 261
3 270 274 264
3 275 266 263
3 275 263 265
3 274 276 264
3 276 265 264
3 276 277 265
3 277 275 265
3 278 267 266
3 275 278 266
3 279 268 267
3 278 279 267
3 280 269 268
3 279 280 268
3 271 281 270
3 270 281 274
3 272 282 271
3 271 282 281
3 273 283 272
3 272 283 282
3 281 284 274
3 274 284 276
3 285 278 275
3 277 285 275
3 284 286 276
3 286 285 277
3 276 286 277
3 287 279 278
3 285 287 278
3 288 280 279
3 287 288 279
3 282 289 281
3 281 289 284
3 283 290 282
3 282 290 289
3 289 291 284
3 284 291 286
3 291 292 286
3 292 287 285
3 286 292 285
3 293 288 287
3 292 293 287
3 290 294 289
3 289 294 291
3 294 295 291
3 295 293 292
3 291 295 292
CELL_TYPES 542
5
5
5
5
5
5
5
5
5
5
5
5
5
5
5
5
5
5
5
5
5
5
5
5
5
5
5
5
5
5
5
5
5
5
5
5
5
5
5
5
5
5
5
5
5
5
5
5
5
5
5
5
5
5
5
5
5
5
5
5
5
5
5
5
5
5
5
5
5
5
5
5
5
5
5
5
5
5
5
5
5
5
5
5
5
5
5
5
5
5
5
5
5
5
5
5
5
5
5
5
5
5
5
5
5
5
5
5
5
5
5
5
5
5
5
5
5
5
5
5
5
5
5
5
5
5
5
5
5
5
5
5
5
5
5
5
5
5
5
5
5
5
5
5
5
5
5
5
5
5
5
5
5
5
5
5
5
5
5
5
5
5
5
5
5
5
5
5
5
5
5
5
5
5
5
5
5
5
5
5
5
5
5
5
5
5
5
5
5
5
5
5
5
5
5
5
5
5
5
5
5
5
5
5
5
5
5
5
5
5
5
5
5
5
5
5
5
5
5
5
5
5
5
5
5
5
5
5
5
5
5
5
5
5
5
5
5
5
5
5
5
5
5
5
5
5
5
5
5
5
5
5
5
5
5
5
5
5
5
5
5
5
5
5
5
5
5
5
5
5
5
5
5
5
5
5
5
5
5
5
5
5
5
5
5
5
5
5
5
5
5
5
5
5
5
5
5
5
5
5
5
5
5
5
5
5
5
5
5
5
5
5
5
5
5
5
5
5
5
5
5
5
5
5
5
5
5
5
5
5
5
5
5
5
5
5
5
5
5
5
5
5
5
5
5
5
5
5
5
5
5
5
5
5
5
5
5
5
5
5
5
5
5
5
5
5
5
5
5
5
5
5
5
5
5
5
5
5
5
5
5
5
5
5
5
5
5
5
5
5
5
5
5
5
5
5
5
5
5
5
5
5
5
5
5
5
5
5
5
5
5
5
5
5
5
5
5
5
5
5
5
5
5
5
5
5
5
5
5
5
5
5
5
5
5
5
5
5
5
5
5
5
5
5
5
5
5
5
5
5
5
5
5
5
5
5
5
5
5
5
5
5
5
5
5
5
5
5
5
5
5
5
5
5
5
5
5
5
5
5
5
5
5
5
5
5
5
5
5
5
5
5
5
5
5
5
5
5
5
5
5
5
5
5
5
5
5
5
5
5
5
5
5
5
5
5
5
5
5
5
5
5
5
5
5
5
5
5
5
5
5
5
5
5
5
5
5
5
5
5
5
5
POINT_DATA 296
SCALARS concentrations float 4
LOOKUP_TABLE default
0 0.951335 0.114416 2.41505
0 0.95141 0.114994 -1.67504
0 0.951281 0.114275 5.39465
0 0.951265 0.113938 6.4862
0 0.951325 0.0942933 0.658679
0 0.951407 0.115048 3.56647
0 0.951357 0.116127 3.99778
0 0.951375 0.0947295 0.317902
0 0.951402 0.0946096 0.756223
0 0.95134 0.115431 4.58183
0 0.951359 0.116029 4.0942
0 0.951292 0.113024 4.99907
0 0.951294 0.113963 4.46611
0 0.951295 0.093289 0.542042
0 0.95129 0.0927228 -0.0735756
0 0.951338 0.0942509 0.764164
0 0.951361 0.0940711 0.255816
0 0.951366 0.094228 -0.524295
0 0.951338 0.0936482 0.310996
0 0.951367 0.0966385 -0.88482
0 0.951356 0.0945597 -1.15721
0 0.951342 0.114386 2.66361
0 0.951346 0.115596 1.28656
0 0.951347 0.0951311 -1.01542
0 0.951352 0.0957754 -0.565089
0 0.951307 0.093617 -1.077
0 0.951321 0.114836 5.86142
0 0.951304 0.0942993 -0.382092
0 0.951376 0.113343 1.44784
0 0.951322 0.09303 -0.0200894
0 0.951321 0.0936375 -0.363824
0 0.951335 0.0936589 0.269396
0 0.951371 0.114185 1.57213
0 0.951339 0.0932698 0.0274651
0 0.951343 0.0933242 -0.086331
0 0.951335 0.0945679 0.299476
0 0.951334 0.0958699 -0.746635
0 0.951341 0.0953564 -0.773547
0 0.95134 0.0953102 -1.39656
0 0.951346 0.0938947 0.339782
0 0.951362 0.0952893 -1.09319
0 0.951338 0.0960753 -1.08432
0 0.951351 0.0976896 0.989204
0 0.951371 0.114871 2.89377
0 0.95132 0.0936814 -0.204125
0 0.951351 0.0937186 -1.025
0 0.951334 0.0941834 0.887145
0 0.951355 0.114943 0.921707
0 0.951361 0.0936764 -1.29674
0 0.951328 0.113163 5.32819
0 0.951334 0.0931521 -0.0785945
0 0.951332 0.0935419 -0.0205528
0 0.951338 0.0934771 -0.218022
0 0.951372 0.094252 -0.448462
0 0.95136 0.0944938 -1.04297
0 0.951329 0.0942385 -0.645666
0 0.95133 0.096419 -1.30294
0 0.951319 0.0946031 0.560146
0 0.951333 0.0941008 -0.482678
0 0.951358 0.0962226 0.533335
0 0.95136 0.0956067 -0.70074
0 0.951342 0.0991801 1.86995
0 0.95136 0.099049 3.24549
0 0.951376 0.115689 0.718891
0 0.951341 0.0935848 -1.22932
0 0.951338 0.0944785 -0.703346
0 0.951336 0.0970615 1.89227
0 0.951346 0.0940452 -1.29107
0 0.951348 0.0945046 -1.36513
0 0.951328 0.111868 1.20647
0 0.951335 0.0927123 -0.531965
0 0.95134 0.113057 2.6326
0 0.951335 0.0935691 -0.0904173
0 0.951339 0.0933791 -0.405158
0 0.951344 0.0943442 -0.498723
0 0.951337 0.0940731 -0.202516
0 0.951361 0.0935462 -0.630218
0 0.951338 0.0955573 0.167891
0 0.95133 0.0953769 0.0452396
0 0.951342 0.0946735 0.316157
0 0.951338 0.0973383 -2.20161
0 0.951336 0.0942617 0.720086
0 0.951331 0.100014 0.236082
0 0.951317 0.0972151 -1.70595
0 0.951329 0.0996788 1.63864
0 0.95135 0.112473 1.24525
0 0.951337 0.0931021 1.14659
0 0.95133 0.0935371 -0.628251
0 0.951355 0.0934367 -0.105609
0 0.951345 0.0936879 -0.535331
0 0.951343 0.0932858 -0.656249
0 0.951361 0.0970008 1.24647
0 0.951333 0.11094 3.94857
0 0.951336 0.0950448 -0.23661
0 0.951346 0.0933629 -0.245543
0 0.951344 0.0924887 -0.211426
0 0.951345 0.0932591 -0.046991
0 0.951342 0.0951727 1.40251
0 0.951351 0.112842 1.5113
0 0.951333 0.0950961 -1.10446
0 0.951302 0.0947605 0.517153
0 0.951344 0.0961858 -2.02989
0 0.951335 0.0969196 -0.667745
0 0.951353 0.0946124 -0.246889
0 0.951351 0.0976396 -1.04249
0 0.951341 0.0955103 -0.171274
0 0.951353 0.095131 -1.14904
0 0.951294 0.100825 2.19686
0 0.951313 0.101014 -1.04691
0 0.951341 0.115321 4.06177
0 0.951338 0.0955252 1.23586
0 0.951362 0.096609 1.24822
0 0.951348 0.0998635 -0.00302653
0 0.951367 0.0966569 0.050255
0 0.951343 0.095041 -1.02807
0 0.951335 0.0967744 1.21044
0 0.951335 0.0947569 1.10422
0 0.951358 0.0931842 -0.144764
0 0.951342 0.095469 -0.236097
0 0.951351 0.0956573 0.305374
0 0.951348 0.0940549 0.381917
0 0.951349 0.0947222 -0.937306
0 0.951357 0.0957245 1.12342
0 0.951358 0.0939856 -0.126526
0 0.951314 0.113275 7.17835
0 0.951333 0.0948229 0.543148
0 0.95133 0.0955788 -1.7109
0 0.951321 0.0979578 -1.40253
0 0.951336 0.0957455 -1.56717
0 0.951349 0.0994706 -1.54066
0 0.951343 0.0961068 1.13439
0 0.951316 0.0956126 -0.647125
0 0.951319 0.0964878 1.92998
0 0.951299 0.0938735 -1.16354
0 0.951322 0.11389 6.44447
0 0.951348 0.0944404 0.784096
0 0.951339 0.0999524 2.15545
0 0.951334 0.094745 0.632859
0 0.951331 0.0960991 1.05182
0 0.95132 0.0926508 -0.503899
0 0.951334 0.0959587 0.687686
0 0.951352 0.0952811 -0.232644
0 0.951347 0.0953764 0.168278
0 0.951353 0.0955616 0.906608
0 0.951352 0.096379 0.519803
0 0.951358 0.0967722 -0.000405673
0 0.951348 0.0990672 -0.275911
0 0.95135 0.0954952 0.544424
0 0.951361 0.0942084 0.0608534
0 0.951329 0.0930262 -0.637089
0 0.951317 0.115263 2.8797
0 0.951355 0.0955843 -0.23438
0 0.951316 0.0959094 -0.538767
0 0.951325 0.095159 -0.903318
0 0.951349 0.0946645 -0.136293
0 0.951308 0.0940271 -0.842124
0 0.951334 0.0961038 0.671973
0 0.951337 0.0994402 -2.06106
0 0.951345 0.0990144 -0.324535
0 0.95135 0.0957415 0.596156
0 0.951296 0.0951615 0.408496
0 0.951285 0.11507 5.71917
0 0.951342 0.0951328 -1.09509
0 0.951339 0.0940424 -0.932492
0 0.951335 0.0937573 -0.359364
0 0.951333 0.0935509 -1.01349
0 0.951341 0.0930055 -0.169725
0 0.951346 0.0960444 -0.307576
0 0.951351 0.0947923 -0.306877
0 0.951345 0.0988922 0.846928
0 0.951343 0.097758 0.737095
0 0.951352 0.0937098 0.769378
0 0.951366 0.0949562 -0.505543
0 0.951335 0.0937977 -0.552361
0 0.951329 0.113701 6.14866
0 0.951354 0.0992909 0.171663
0 0.951326 0.0950846 1.10938
0 0.951347 0.0964692 0.00764214
0 0.951326 0.09381 0.528751
0 0.951341 0.0943182 1.08583
0 0.951342 0.0994356 0.679614
0 0.951352 0.10036 -2.71366
0 0.951329 0.0956972 -0.378543
0 0.951337 0.0949924 -0.64911
0 0.951339 0.0941778 1.10809
0 0.951345 0.0941945 0.821728
0 0.951335 0.0936308 -0.761682
0 0.95131 0.114387 4.77071
0 0.951344 0.0951014 -1.09237
0 0.951343 0.0955958 -0.775053
0 0.951346 0.0939514 -0.0597504
0 0.951349 0.0953448 0.162991
0 0.951346 0.0936602 0.400925
0 0.951342 0.093614 0.162856
0 0.95135 0.0997389 -0.871016
0 0.951341 0.0939159 0.205185
0 0.95135 0.0947427 0.635503
0 0.951367 0.10027 -2.19931
0 0.951354 0.0963795 0.0320961
0 0.951344 0.093692 -0.155371
0 0.951332 0.0931209 0.229222
0 0.951339 0.115985 4.29728
0 0.951348 0.0941644 -0.644401
0 0.951347 0.0949478 -1.06779
0 0.951333 0.0945361 1.40123
0 0.951345 0.0939093 -1.33825
0 0.951335 0.0992647 -2.44503
0 0.951334 0.0946444 -1.03945
0 0.951342 0.0948137 -1.74746
0 0.951353 0.0933802 -0.282103
0 0.951351 0.114279 -1.21454
0 0.951343 0.0947437 -0.520929
0 0.951347 0.100826 -2.19694
0 0.951345 0.0956607 -0.534201
0 0.95134 0.0937301 0.199876
0 0.951337 0.0960605 0.863522
0 0.951342 0.0980204 -0.767818
0 0.951357 0.0956284 1.14026
0 0.951344 0.0953315 -0.97584
0 0.951349 0.0982233 -1.3184
0 0.951337 0.0941157 -0.290837
0 0.951306 0.0932254 0.241877
0 0.951309 0.112246 3.81152
0 0.951336 0.094025 -1.34501
0 0.95132 0.0946987 0.575886
0 0.951332 0.0938558 1.07099
0 0.951328 0.0955909 -1.04277
0 0.951334 0.0972805 0.264651
0 0.951333 0.0955293 -1.27354
0 0.95136 0.0940534 0.0922391
0 0.951355 0.114742 5.09345
0 0.951337 0.0949483 -0.412855
0 0.951344 0.0952195 0.444978
0 0.951343 0.0945062 0.340043
0 0.951347 0.0977132 1.65108
0 0.951338 0.0938463 -0.679678
0 0.951339 0.0951732 0.309586
0 0.951338 0.0985593 -0.616782
0 0.951323 0.099041 1.42447
0 0.951348 0.094471 -0.0700395
0 0.951334 0.0935926 -0.225484
0 0.951288 0.0929973 -0.0711988
0 0.951266 0.114185 5.12701
0 0.951335 0.0968327 -0.115466
0 0.951332 0.0936816 0.809727
0 0.951344 0.0966702 0.181561
0 0.951343 0.0949935 -0.340493
0 0.951377 0.0946808 -1.0959
0 0.951383 0.113778 2.0449
0 0.951346 0.0941224 0.634153
0 0.951347 0.0959131 0.656636
0 0.951336 0.0948747 -0.20593
0 0.951331 0.0933155 -0.121861
0 0.951334 0.0992552 1.76851
0 0.951345 0.0933674 0.327692
0 0.951333 0.0935639 0.121117
0 0.951299 0.0928494 -0.0594409
0 0.951266 0.116315 6.90763
0 0.951338 0.0954451 0.540865
0 0.951337 0.0950339 -0.411756
0 0.951345 0.0950844 -0.0129587
0 0.951371 0.0951563 -0.381934
0 0.9514 0.112937 0.905022
0 0.951346 0.0946586 -0.804675
0 0.951338 0.0942653 -0.239655
0 0.951337 0.0948708 -0.450027
0 0.951334 0.0939533 0.662779
0 0.951331 0.093788 0.728143
0 0.951298 0.0926411 -0.444797
0 0.951277 0.113616 4.95269
0 0.951354 0.0954327 -0.604999
0 0.951349 0.0950661 0.369632
0 0.951345 0.0947184 -0.764384
0 0.951367 0.111997 2.80216
0 0.951346 0.0951148 -1.73798
0 0.951345 0.0938489 -0.167152
0 0.951329 0.0957765 -0.640367
0 0.951349 0.0941137 -0.727933
0 0.951338 0.0948147 -0.400577
0 0.951328 0.0941889 -0.325595
0 0.951292 0.1138 3.98493
0 0.951353 0.0956558 -0.620557
0 0.951329 0.0934722 -0.167163
0 0.951325 0.114241 5.31329
0 0.951341 0.0941613 -1.02238
0 0.951348 0.0958231 -0.564673
0 0.951338 0.095087 0.944014
0 0.951345 0.0942679 -1.06911
0 0.951346 0.111645 1.87032
0 0.951335 0.0935899 0.183904
0 0.951317 0.114836 2.4997
0 0.951333 0.0937975 0.358989
0 0.951324 0.0944358 0.894712
0 0.951331 0.11057 4.45799
0 0.951332 0.115915 1.85655
0 0.95132 0.112822 6.51985
VECTORS fa_u float
0.00727113 0.00290349 -0
0.00667778 0.00383633 -0
0.00286985 0.000781897 -0
0.00718995 0.00111973 -0
1e-08 0 0
0.00520245 0.00401032 -0
0.00253353 0.00245132 -0
1e-08 0 0
1e-08 0 0
0.00452262 0.0055129 -0
0.00533861 0.00895826 -0
0.00663115 0.00014061 -0
0.00622352 -0.000669076 0
1e-08 0 0
1e-08 0 0
1e-08 0 0
1e-08 0 0
1e-08 0 0
1e-08 0 0
1e-08 0 0
1e-08 0 0
0.00295014 0.00728301 -0
0.00159927 0.00628733 -0
1e-08 0 0
1e-08 0 0
1e-08 0 0
0.00895647 -0.00225947 0
1e-08 0 0
0.0111069 -0.00486726 0
1e-08 0 0
1e-08 0 0
1e-08 0 0
0.000852571 0.0073222 -0
1e-08 0 0
1e-08 0 0
1e-08 0 0
1e-08 0 0
1e-08 0 0
1e-08 0 0
1e-08 0 0
1e-08 0 0
1e-08 0 0
1e-08 0 0
-0.000176508 0.00767008 -0
1e-08 0 0
1e-08 0 0
1e-08 0 0
0.00566338 -0.00360934 0
1e-08 0 0
0.00265861 -0.00214694 0
1e-08 0 0
1e-08 0 0
1e-08 0 0
1e-08 0 0
1e-08 0 0
1e-08 0 0
1e-08 0 0
1e-08 0 0
1e-08 0 0
1e-08 0 0
1e-08 0 0
1e-08 0 0
1e-08 0 0
-0.00058549 0.00402944 0
1e-08 0 0
1e-08 0 0
1e-08 0 0
1e-08 0 0
1e-08 0 0
0.0031865 -0.00315171 0
1e-08 0 0
0.00278608 -0.00341292 0
1e-08 0 0
1e-08 0 0
1e-08 0 0
1e-08 0 0
1e-08 0 0
1e-08 0 0
1e-08 0 0
1e-08 0 0
1e-08 0 0
1e-08 0 0
1e-08 0 0
1e-08 0 0
1e-08 0 0
-0.00137631 0.0053018 0
1e-08 0 0
1e-08 0 0
1e-08 0 0
1e-08 0 0
1e-08 0 0
1e-08 0 0
0.00574497 -0.0094203 0
1e-08 0 0
1e-08 0 0
1e-08 0 0
1e-08 0 0
1e-08 0 0
0.00369206 -0.00914372 0
1e-08 0 0
1e-08 0 0
1e-08 0 0
1e-08 0 0
1e-08 0 0
1e-08 0 0
1e-08 0 0
1e-08 0 0
1e-08 0 0
1e-08 0 0
-0.00291121 0.00721379 0
1e-08 0 0
1e-08 0 0
1e-08 0 0
1e-08 0 0
1e-08 0 0
1e-08 0 0
1e-08 0 0
1e-08 0 0
1e-08 0 0
1e-08 0 0
1e-08 0 0
1e-08 0 0
1e-08 0 0
1e-08 0 0
0.00133781 -0.00535189 0
1e-08 0 0
1e-08 0 0
1e-08 0 0
1e-08 0 0
1e-08 0 0
1e-08 0 0
1e-08 0 0
1e-08 0 0
1e-08 0 0
-0.00373517 0.00647124 0
1e-08 0 0
1e-08 0 0
1e-08 0 0
1e-08 0 0
1e-08 0 0
1e-08 0 0
1e-08 0 0
1e-08 0 0
1e-08 0 0
1e-08 0 0
1e-08 0 0
1e-08 0 0
1e-08 0 0
1e-08 0 0
1e-08 0 0
0.000522087 -0.00381335 0
1e-08 0 0
1e-08 0 0
1e-08 0 0
1e-08 0 0
1e-08 0 0
1e-08 0 0
1e-08 0 0
1e-08 0 0
1e-08 0 0
1e-08 0 0
-0.00464952 0.00596297 0
1e-08 0 0
1e-08 0 0
1e-08 0 0
1e-08 0 0
1e-08 0 0
1e-08 0 0
1e-08 0 0
1e-08 0 0
1e-08 0 0
1e-08 0 0
1e-08 0 0
1e-08 0 0
0.00011943 -0.00776116 0
1e-08 0 0
1e-08 0 0
1e-08 0 0
1e-08 0 0
1e-08 0 0
1e-08 0 0
1e-08 0 0
1e-08 0 0
1e-08 0 0
1e-08 0 0
1e-08 0 0
1e-08 0 0
-0.00219958 0.00223899 0
1e-08 0 0
1e-08 0 0
1e-08 0 0
1e-08 0 0
1e-08 0 0
1e-08 0 0
1e-08 0 0
1e-08 0 0
1e-08 0 0
1e-08 0 0
1e-08 0 0
1e-08 0 0
1e-08 0 0
-0.000859041 -0.00697969 0
1e-08 0 0
1e-08 0 0
1e-08 0 0
1e-08 0 0
1e-08 0 0
1e-08 0 0
1e-08 0 0
1e-08 0 0
-0.00486325 0.00398357 0
1e-08 0 0
1e-08 0 0
1e-08 0 0
1e-08 0 0
1e-08 0 0
1e-08 0 0
1e-08 0 0
1e-08 0 0
1e-08 0 0
1e-08 0 0
1e-08 0 0
-0.00160288 -0.00617792 0
1e-08 0 0
1e-08 0 0
1e-08 0 0
1e-08 0 0
1e-08 0 0
1e-08 0 0
1e-08 0 0
-0.00872895 0.00525315 0
1e-08 0 0
1e-08 0 0
1e-08 0 0
1e-08 0 0
1e-08 0 0
1e-08 0 0
1e-08 0 0
1e-08 0 0
1e-08 0 0
1e-08 0 0
1e-08 0 0
-0.0030423 -0.00740836 0
1e-08 0 0
1e-08 0 0
1e-08 0 0
1e-08 0 0
1e-08 0 0
-0.00759007 0.00310653 0
1e-08 0 0
1e-08 0 0
1e-08 0 0
1e-08 0 0
1e-08 0 0
1e-08 0 0
1e-08 0 0
1e-08 0 0
-0.00504511 -0.00840901 0
1e-08 0 0
1e-08 0 0
1e-08 0 0
1e-08 0 0
-0.00621741 0.00159821 0
1e-08 0 0
1e-08 0 0
1e-08 0 0
1e-08 0 0
1e-08 0 0
1e-08 0 0
-0.00362201 -0.00447317 0
1e-08 0 0
1e-08 0 0
1e-08 0 0
-0.00721422 0.000862951 0
1e-08 0 0
1e-08 0 0
1e-08 0 0
1e-08 0 0
1e-08 0 0
1e-08 0 0
-0.00262194 -0.00259961 0
1e-08 0 0
1e-08 0 0
-0.0084134 -0.00018927 0
1e-08 0 0
1e-08 0 0
1e-08 0 0
1e-08 0 0
-0.00590193 -0.00461362 0
1e-08 0 0
-0.00355711 -0.000516939 0
1e-08 0 0
1e-08 0 0
-0.0068084 -0.00392749 0
-0.00546258 -0.00140531 0
-0.00714426 -0.00286966 0
