# vtk DataFile Version 2.0
CellBP Time: 6.44
ASCII
DATASET UNSTRUCTURED_GRID
POINTS 296 double
-8.97476 -3.67738 0
-8.4142 -4.83191 0
-9.36905 -2.45347 0
-9.6428 -1.21811 0
-8.12985 -2.7254 0
-7.69686 -5.9004 0
-6.84693 -6.86647 0
-7.69046 -3.75095 0
-7.12809 -4.7266 0
-5.91453 -7.73318 0
-4.87835 -8.46451 0
-9.74764 0.0390499 0
-9.6884 1.31897 0
-8.44601 -1.62957 0
-8.60159 -0.508143 0
-7.37391 -1.92655 0
-7.00329 -2.79743 0
-6.46564 -5.64456 0
-5.6943 -6.46254 0
-6.57505 -3.75968 0
-6.03649 -4.54499 0
-3.72574 -9.03086 0
-2.49576 -9.43265 0
-4.81293 -7.18124 0
-3.85836 -7.76203 0
-8.61604 0.629781 0
-9.46388 2.59733 0
-8.46736 1.7343 0
-9.05256 3.81634 0
-7.54888 -0.889239 0
-7.61178 0.0883172 0
-6.76358 -1.26053 0
-1.22233 -9.67256 0
-6.26736 -2.07787 0
-6.13831 -2.95754 0
-5.39046 -5.34848 0
-4.6839 -5.9928 0
-5.49769 -3.65094 0
-5.11621 -4.44627 0
-2.82619 -8.22619 0
-1.75147 -8.4874 0
-3.85236 -6.6058 0
-3.01719 -7.03769 0
0.0546168 -9.7353 0
-7.53552 1.11867 0
-8.20721 2.86728 0
-7.39552 2.05677 0
-8.44367 4.94378 0
-7.72904 3.89334 0
-7.68925 5.98626 0
-6.60923 -0.37249 0
-6.78799 0.549282 0
-5.64142 -0.974268 0
-0.582253 -8.63785 0
0.545272 -8.57557 0
-5.17578 -2.41216 0
-4.36738 -4.97859 0
-3.81003 -5.66027 0
-4.3322 -3.71946 0
-2.03008 -7.43258 0
-1.11818 -7.64313 0
-2.93805 -5.98862 0
-2.27641 -6.50722 0
1.31666 -9.62245 0
-6.54119 1.38605 0
-7.01337 3.037 0
-6.51538 2.31393 0
-7.13413 4.86879 0
-6.57069 3.90138 0
-6.84481 6.93841 0
-6.42056 5.75231 0
-5.89586 7.79611 0
-4.38313 -1.16808 0
-5.69686 0.493999 0
-4.58464 -0.0259728 0
-0.00334742 -7.67758 0
1.68746 -8.42594 0
0.909821 -7.57477 0
-3.97073 -2.36107 0
-3.46002 -1.38088 0
-3.22699 -4.71319 0
-3.2236 -3.21468 0
-1.36803 -6.54703 0
-0.519025 -6.877 0
-1.95076 -5.44486 0
2.57062 -9.375 0
-5.398 1.99711 0
-5.96113 2.99434 0
-5.97111 4.74517 0
-5.63108 3.88339 0
-5.62028 6.55035 0
-5.32634 5.47411 0
-4.85923 8.54493 0
-4.71962 7.21615 0
-3.46512 -0.419549 0
-4.37421 1.22965 0
-3.65932 0.585796 0
-3.99107 2.29555 0
-3.71653 9.11459 0
2.77063 -8.09558 0
0.379053 -6.62979 0
1.94344 -7.31732 0
1.24175 -6.72104 0
-2.42755 -0.864118 0
-2.81444 -2.11069 0
-2.26804 -4.03375 0
-2.30069 -2.93237 0
-0.449922 -5.73897 0
-1.20443 -4.43 0
3.78589 -8.97848 0
-4.68792 3.31609 0
-4.97232 4.47344 0
-4.53697 6.11181 0
-4.43431 5.21985 0
-3.76301 7.81619 0
-3.7271 6.65586 0
-2.71844 8.22345 0
-1.63745 -0.125796 0
-1.43784 -0.877657 0
-2.47313 0.516421 0
-3.2096 1.43561 0
-3.18375 3.26781 0
-2.87062 2.36013 0
-1.35002 0.637157 0
-2.49297 9.50435 0
3.812 -7.66239 0
2.85281 -6.93098 0
0.906193 -5.68037 0
1.99096 -6.22751 0
-1.66495 -1.9775 0
-1.41655 -3.23792 0
0.0805154 -4.65975 0
-0.556457 -3.64518 0
4.79425 -7.10639 0
4.93319 -8.41778 0
-3.69551 4.45032 0
-3.64737 5.60687 0
-2.80835 7.09805 0
-2.93761 6.19302 0
-1.62656 8.54512 0
-1.88743 7.43964 0
-2.30365 3.98505 0
-0.721803 -1.3185 0
-0.831457 -0.24643 0
-1.93062 1.69141 0
-2.10502 2.85804 0
-1.29737 3.51111 0
-0.871851 1.36012 0
-0.28541 0.463456 0
-0.525055 8.69357 0
-1.22921 9.74326 0
1.07404 -4.4735 0
3.77291 -6.48673 0
2.88381 -5.90397 0
2.04527 -5.27354 0
4.64644 -6.00506 0
-0.548877 -2.45763 0
0.490688 -3.41795 0
0.0586288 -1.60307 0
1.44788 -3.60611 0
5.72031 -6.43059 0
5.999 -7.70093 0
-2.42326 5.23193 0
-2.07147 6.37611 0
-0.876099 7.6407 0
-1.22697 6.77232 0
0.0935176 7.73277 0
-1.12945 4.42698 0
0.14868 -0.611482 0
-0.80698 2.49397 0
-0.342993 3.57726 0
0.0540116 1.51517 0
0.734716 0.475058 0
0.631977 8.71763 0
0.0433685 9.84983 0
2.314 -4.17552 0
3.74233 -5.45741 0
2.91165 -5.05796 0
5.44313 -5.33329 0
4.56652 -5.10905 0
0.631343 -2.28406 0
1.24039 -2.91108 0
0.758157 -1.38856 0
2.12229 -3.0757 0
2.93131 -3.39627 0
6.03148 -4.67152 0
6.514 -5.63101 0
6.95805 -6.8427 0
-0.993307 5.70527 0
-0.34808 6.74148 0
1.10698 7.63993 0
0.563266 6.94752 0
-0.0028883 4.66577 0
0.595609 3.79168 0
1.33241 -0.642093 0
0.524092 2.64088 0
0.951731 1.57664 0
1.89501 0.208738 0
1.60104 1.06101 0
2.10067 7.46324 0
1.77277 8.5679 0
1.32844 9.77751 0
3.73187 -4.22668 0
5.0003 -4.30995 0
5.73445 -3.83158 0
3.71142 -3.12096 0
1.79882 -1.8766 0
2.97356 -2.53103 0
6.66347 -3.86083 0
7.24612 -4.79829 0
7.82328 -5.90382 0
0.481831 5.78175 0
1.41294 6.62957 0
2.34386 6.56686 0
1.1915 4.49807 0
1.46796 3.3604 0
2.412 -0.690024 0
2.79909 0.140367 0
1.76901 2.15109 0
2.59313 1.14162 0
3.03173 7.06056 0
2.86621 8.24256 0
2.59871 9.53222 0
4.81783 -3.23785 0
6.01452 -3.03643 0
4.10917 -2.23627 0
3.20445 -1.49047 0
6.62858 -2.27662 0
7.12152 -2.99124 0
7.84166 -3.8518 0
8.55859 -4.8691 0
2.00064 5.51758 0
3.02175 6.04877 0
2.33737 4.07161 0
2.39554 3.02464 0
3.48339 -0.454059 0
3.576 0.613309 0
2.92919 2.26287 0
3.49599 1.5084 0
3.91664 5.78698 0
3.91026 6.67782 0
3.91966 7.81576 0
3.82559 9.12649 0
5.48595 -1.88422 0
4.44864 -1.11118 0
6.60581 -1.31319 0
7.4742 -2.00421 0
8.2617 -2.81724 0
9.12932 -3.72097 0
3.33857 4.78736 0
3.27903 3.32873 0
4.62415 0.134149 0
4.43614 1.28388 0
3.97984 2.39349 0
4.44332 5.0401 0
4.72974 6.072 0
4.89044 7.24343 0
4.97366 8.55597 0
5.77939 -0.436228 0
6.88186 -0.485827 0
7.63212 -1.06078 0
8.5396 -1.71406 0
9.53345 -2.49211 0
4.43367 3.74255 0
5.68838 1.05837 0
5.22977 2.46561 0
5.2186 4.50413 0
5.46314 5.40083 0
5.77026 6.534 0
6.0086 7.8238 0
6.69519 0.435788 0
7.70342 -0.0271993 0
8.7012 -0.564951 0
9.77629 -1.21978 0
6.79167 1.29517 0
5.55019 3.67565 0
6.36522 2.11839 0
6.19051 2.99037 0
6.10496 4.56235 0
6.52049 5.70057 0
6.95296 6.96532 0
7.6151 0.934608 0
8.67596 0.563031 0
9.84397 0.0617411 0
7.42316 1.93898 0
6.60761 3.77745 0
7.05846 2.84713 0
7.18346 4.75973 0
7.81126 6.0074 0
8.51742 1.68478 0
9.72778 1.32343 0
8.19373 2.75608 0
7.77317 3.81308 0
8.52849 4.94321 0
9.48283 2.57899 0
9.08787 3.79487 0
CELLS 542 2168
3 2 0 4
3 0 1 7
3 4 0 7
3 1 5 8
3 7 1 8
3 3 2 13
3 13 2 4
3 11 3 14
3 14 3 13
3 13 4 15
3 4 7 16
3 15 4 16
3 5 6 17
3 8 5 17
3 6 9 18
3 17 6 18
3 7 8 19
3 16 7 19
3 8 17 20
3 19 8 20
3 9 10 23
3 18 9 23
3 10 21 24
3 23 10 24
3 12 11 25
3 25 11 14
3 26 12 27
3 27 12 25
3 14 13 29
3 29 13 15
3 25 14 30
3 30 14 29
3 29 15 31
3 15 16 33
3 31 15 33
3 16 19 34
3 33 16 34
3 17 18 35
3 20 17 35
3 18 23 36
3 35 18 36
3 19 20 37
3 34 19 37
3 20 35 38
3 37 20 38
3 21 22 39
3 24 21 39
3 22 32 40
3 39 22 40
3 23 24 41
3 36 23 41
3 24 39 42
3 41 24 42
3 27 25 44
3 44 25 30
3 28 26 45
3 45 26 27
3 45 27 46
3 46 27 44
3 47 28 48
3 48 28 45
3 30 29 50
3 50 29 31
3 44 30 51
3 51 30 50
3 50 31 52
3 31 33 52
3 32 43 53
3 40 32 53
3 53 43 54
3 33 34 55
3 34 37 55
3 33 55 52
3 35 36 56
3 38 35 56
3 36 41 57
3 56 36 57
3 37 38 58
3 38 56 58
3 37 58 55
3 39 40 59
3 42 39 59
3 40 53 60
3 59 40 60
3 41 42 61
3 57 41 61
3 42 59 62
3 61 42 62
3 43 63 54
3 46 44 64
3 64 44 51
3 48 45 65
3 65 45 46
3 65 46 66
3 66 46 64
3 49 47 67
3 67 47 48
3 67 48 68
3 68 48 65
3 69 49 70
3 70 49 67
3 52 55 72
3 64 51 73
3 51 50 73
3 50 52 73
3 73 52 74
3 74 52 72
3 53 54 75
3 60 53 75
3 54 63 76
3 54 76 77
3 75 54 77
3 55 58 78
3 72 55 78
3 72 78 79
3 56 57 80
3 57 61 80
3 56 80 58
3 58 80 81
3 78 58 81
3 59 60 82
3 62 59 82
3 60 75 83
3 82 60 83
3 61 62 84
3 62 82 84
3 61 84 80
3 63 85 76
3 66 64 86
3 64 73 86
3 68 65 87
3 87 65 66
3 87 66 86
3 70 67 88
3 88 67 68
3 88 68 89
3 89 68 87
3 71 69 90
3 90 69 70
3 90 70 91
3 91 70 88
3 92 71 93
3 93 71 90
3 74 72 94
3 94 72 79
3 86 73 95
3 95 73 74
3 95 74 96
3 96 74 94
3 97 86 95
3 76 85 99
3 75 77 100
3 83 75 100
3 76 99 101
3 77 76 101
3 77 101 102
3 100 77 102
3 94 79 103
3 78 81 104
3 79 78 104
3 79 104 103
3 80 84 105
3 81 80 105
3 81 105 106
3 104 81 106
3 82 83 107
3 83 100 107
3 82 107 84
3 84 107 108
3 105 84 108
3 85 109 99
3 89 87 110
3 87 86 110
3 110 86 97
3 91 88 111
3 111 88 89
3 111 89 110
3 93 90 112
3 112 90 91
3 112 91 113
3 113 91 111
3 98 92 114
3 114 92 93
3 114 93 115
3 115 93 112
3 116 98 114
3 117 103 118
3 96 94 119
3 94 103 119
3 119 103 117
3 97 95 120
3 120 95 96
3 120 96 119
3 121 110 97
3 121 97 122
3 122 97 120
3 123 119 117
3 124 98 116
3 99 109 125
3 99 125 126
3 101 99 126
3 100 102 127
3 100 127 107
3 101 126 128
3 102 101 128
3 102 128 127
3 104 106 129
3 104 129 103
3 103 129 118
3 105 108 130
3 106 105 130
3 106 130 129
3 107 127 131
3 108 107 131
3 108 131 132
3 108 132 130
3 109 134 125
3 125 134 133
3 113 111 135
3 111 110 135
3 135 110 121
3 115 112 136
3 136 112 113
3 136 113 135
3 116 114 137
3 137 114 115
3 137 115 138
3 138 115 136
3 139 124 116
3 139 116 140
3 140 116 137
3 141 135 121
3 118 129 142
3 118 142 143
3 117 118 143
3 123 117 143
3 122 120 144
3 120 119 144
3 144 119 123
3 141 121 145
3 145 121 122
3 145 122 144
3 146 141 145
3 147 144 123
3 147 123 148
3 143 148 123
3 150 124 139
3 149 150 139
3 131 127 151
3 125 133 152
3 126 125 152
3 126 152 153
3 128 126 153
3 128 153 154
3 128 154 127
3 127 154 151
3 152 133 155
3 130 132 156
3 130 156 129
3 129 156 142
3 131 151 157
3 132 131 157
3 132 157 156
3 156 158 142
3 157 151 159
3 133 160 155
3 134 161 133
3 133 161 160
3 138 136 162
3 136 135 162
3 162 135 141
3 140 137 163
3 163 137 138
3 163 138 162
3 149 139 164
3 164 139 140
3 164 140 165
3 165 140 163
3 166 149 164
3 167 162 141
3 167 141 146
3 142 158 168
3 143 142 168
3 143 168 148
3 146 145 169
3 145 144 169
3 169 144 147
3 170 167 146
3 170 146 169
3 171 169 147
3 171 147 148
3 171 148 172
3 168 172 148
3 173 149 166
3 174 150 149
3 173 174 149
3 154 175 151
3 151 175 159
3 152 155 176
3 153 152 176
3 153 176 177
3 153 177 154
3 154 177 175
3 155 160 178
3 155 178 179
3 176 155 179
3 156 157 180
3 156 180 158
3 157 159 181
3 157 181 180
3 158 180 182
3 158 182 168
3 159 175 183
3 159 183 181
3 175 184 183
3 160 186 178
3 178 186 185
3 161 187 160
3 160 187 186
3 165 163 188
3 163 162 188
3 188 162 167
3 166 164 189
3 189 164 165
3 189 165 188
3 190 173 166
3 190 166 191
3 191 166 189
3 192 188 167
3 192 167 170
3 193 192 170
3 182 194 168
3 194 172 168
3 193 170 195
3 170 169 195
3 195 169 171
3 196 195 171
3 196 171 172
3 194 197 172
3 197 198 172
3 198 196 172
3 200 173 190
3 199 200 190
3 201 174 173
3 200 201 173
3 176 179 202
3 177 176 202
3 177 202 175
3 175 202 184
3 178 185 203
3 178 203 179
3 179 203 202
3 203 185 204
3 202 205 184
3 183 206 181
3 180 181 206
3 180 206 182
3 182 206 194
3 183 184 207
3 205 207 184
3 183 207 206
3 185 208 204
3 186 209 185
3 185 209 208
3 187 210 186
3 186 210 209
3 191 189 211
3 189 188 211
3 211 188 192
3 199 190 212
3 212 190 191
3 212 191 211
3 213 199 212
3 214 211 192
3 214 192 193
3 215 214 193
3 215 193 195
3 206 216 194
3 216 197 194
3 216 217 197
3 215 195 218
3 218 195 196
3 198 218 196
3 217 219 197
3 219 218 198
3 197 219 198
3 220 199 213
3 221 200 199
3 220 221 199
3 222 201 200
3 221 222 200
3 203 204 223
3 203 223 202
3 202 223 205
3 204 208 224
3 204 224 223
3 205 223 225
3 205 225 207
3 207 225 226
3 207 226 206
3 226 216 206
3 208 228 224
3 224 228 227
3 209 229 208
3 229 228 208
3 210 230 209
3 209 230 229
3 213 212 231
3 212 211 231
3 231 211 214
3 232 220 213
3 232 213 231
3 233 231 214
3 233 214 215
3 234 233 215
3 234 215 218
3 226 235 216
3 235 217 216
3 235 236 217
3 217 236 219
3 237 234 218
3 237 218 219
3 236 238 219
3 238 237 219
3 240 220 232
3 239 240 232
3 241 221 220
3 240 241 220
3 242 222 221
3 241 242 221
3 224 227 243
3 224 243 223
3 223 243 225
3 225 243 244
3 225 244 226
3 226 244 235
3 227 245 243
3 228 246 227
3 227 246 245
3 229 247 228
3 228 247 246
3 230 248 229
3 229 248 247
3 239 232 249
3 232 231 249
3 249 231 233
3 250 249 233
3 250 233 234
3 237 250 234
3 244 251 235
3 235 251 236
3 251 252 236
3 236 252 238
3 252 253 238
3 253 250 237
3 253 237 238
3 254 239 249
3 255 240 239
3 254 255 239
3 256 241 240
3 255 256 240
3 257 242 241
3 256 257 241
3 245 258 243
3 243 258 244
3 244 258 251
3 245 259 258
3 246 260 245
3 245 260 259
3 247 261 246
3 246 261 260
3 248 262 247
3 247 262 261
3 254 249 263
3 263 249 250
3 253 263 250
3 258 264 251
3 251 264 252
3 264 265 252
3 265 263 253
3 252 265 253
3 266 254 263
3 267 255 254
3 266 267 254
3 268 256 255
3 267 268 255
3 269 257 256
3 268 269 256
3 259 270 258
3 270 264 258
3 260 271 259
3 259 271 270
3 261 272 260
3 260 272 271
3 262 273 261
3 273 272 261
3 270 274 264
3 275 266 263
3 275 263 265
3 274 276 264
3 276 265 264
3 276 277 265
3 277 275 265
3 278 267 266
3 275 278 266
3 279 268 267
3 278 279 267
3 280 269 268
3 279 280 268
3 271 281 270
3 270 281 274
3 272 282 271
3 271 282 281
3 273 283 272
3 272 283 282
3 281 284 274
3 274 284 276
3 285 278 275
3 277 285 275
3 284 286 276
3 286 285 277
3 276 286 277
3 287 279 278
3 285 287 278
3 288 280 279
3 287 288 279
3 282 289 281
3 281 289 284
3 283 290 282
3 282 290 289
3 289 291 284
3 284 291 286
3 291 292 286
3 292 287 285
3 286 292 285
3 293 288 287
3 292 293 287
3 290 294 289
3 289 294 291
3 294 295 291
3 295 293 292
3 291 295 292
CELL_TYPES 542
5
5
5
5
5
5
5
5
5
5
5
5
5
5
5
5
5
5
5
5
5
5
5
5
5
5
5
5
5
5
5
5
5
5
5
5
5
5
5
5
5
5
5
5
5
5
5
5
5
5
5
5
5
5
5
5
5
5
5
5
5
5
5
5
5
5
5
5
5
5
5
5
5
5
5
5
5
5
5
5
5
5
5
5
5
5
5
5
5
5
5
5
5
5
5
5
5
5
5
5
5
5
5
5
5
5
5
5
5
5
5
5
5
5
5
5
5
5
5
5
5
5
5
5
5
5
5
5
5
5
5
5
5
5
5
5
5
5
5
5
5
5
5
5
5
5
5
5
5
5
5
5
5
5
5
5
5
5
5
5
5
5
5
5
5
5
5
5
5
5
5
5
5
5
5
5
5
5
5
5
5
5
5
5
5
5
5
5
5
5
5
5
5
5
5
5
5
5
5
5
5
5
5
5
5
5
5
5
5
5
5
5
5
5
5
5
5
5
5
5
5
5
5
5
5
5
5
5
5
5
5
5
5
5
5
5
5
5
5
5
5
5
5
5
5
5
5
5
5
5
5
5
5
5
5
5
5
5
5
5
5
5
5
5
5
5
5
5
5
5
5
5
5
5
5
5
5
5
5
5
5
5
5
5
5
5
5
5
5
5
5
5
5
5
5
5
5
5
5
5
5
5
5
5
5
5
5
5
5
5
5
5
5
5
5
5
5
5
5
5
5
5
5
5
5
5
5
5
5
5
5
5
5
5
5
5
5
5
5
5
5
5
5
5
5
5
5
5
5
5
5
5
5
5
5
5
5
5
5
5
5
5
5
5
5
5
5
5
5
5
5
5
5
5
5
5
5
5
5
5
5
5
5
5
5
5
5
5
5
5
5
5
5
5
5
5
5
5
5
5
5
5
5
5
5
5
5
5
5
5
5
5
5
5
5
5
5
5
5
5
5
5
5
5
5
5
5
5
5
5
5
5
5
5
5
5
5
5
5
5
5
5
5
5
5
5
5
5
5
5
5
5
5
5
5
5
5
5
5
5
5
5
5
5
5
5
5
5
5
5
5
5
5
5
5
5
5
5
5
5
5
5
5
5
5
5
5
5
5
5
5
5
5
5
5
5
5
5
5
5
5
5
5
5
5
5
5
5
5
5
5
5
5
5
5
5
5
5
5
5
5
5
5
5
5
5
5
5
5
5
5
5
5
5
5
5
5
5
5
5
5
5
POINT_DATA 296
SCALARS concentrations float 4
LOOKUP_TABLE default
0 0.958935 0.134976 7.43577
0 0.959006 0.136604 2.86875
0 0.958957 0.136985 4.44643
0 0.958904 0.138608 11.9777
0 0.958954 0.0938192 1.10148
0 0.959045 0.135314 5.25281
0 0.959012 0.139795 5.18528
0 0.958974 0.0943293 0.550282
0 0.959022 0.093995 0.707184
0 0.958991 0.136973 7.99257
0 0.958919 0.138324 10.2422
0 0.958882 0.137084 11.7195
0 0.95893 0.134367 9.24566
0 0.958958 0.0950404 1.20227
0 0.958912 0.0942579 0.112267
0 0.958979 0.0941014 -0.0521591
0 0.958983 0.0953966 -0.74524
0 0.95902 0.0934938 0.928921
0 0.958995 0.0932568 -1.02884
0 0.958992 0.0950358 -0.322963
0 0.958998 0.0943836 0.610732
0 0.95884 0.1355 11.2192
0 0.958879 0.135787 12.0187
0 0.958963 0.0934755 -0.993438
0 0.958902 0.0945825 -0.624909
0 0.958934 0.0951335 -0.65397
0 0.958951 0.135572 4.52496
0 0.958955 0.0941167 0.352587
0 0.958942 0.135961 10.6176
0 0.958969 0.0943641 0.25528
0 0.958969 0.0964696 1.33571
0 0.958989 0.0943774 -0.773905
0 0.958938 0.134498 4.37267
0 0.958985 0.0953864 -1.08256
0 0.95898 0.0943707 1.13383
0 0.958993 0.0941343 1.12756
0 0.958981 0.0929161 1.07547
0 0.958981 0.094057 1.24107
0 0.958986 0.094793 1.46098
0 0.958878 0.0936009 -1.19798
0 0.95893 0.0941815 -0.363746
0 0.958965 0.0933875 1.24775
0 0.958944 0.0939193 1.39353
0 0.958931 0.136725 10.7273
0 0.958973 0.0937729 -0.331699
0 0.958952 0.09512 -0.372584
0 0.958982 0.095632 -0.18236
0 0.958972 0.136601 11.2406
0 0.958944 0.0965462 -1.29161
0 0.959003 0.136394 4.35564
0 0.958984 0.0940022 0.794282
0 0.958979 0.0941973 -0.233664
0 0.958986 0.0949834 -0.0235205
0 0.958937 0.0928086 -0.965045
0 0.958947 0.0932525 -1.1286
0 0.958981 0.095573 1.13947
0 0.958989 0.0944714 0.719827
0 0.958992 0.0935975 -1.15729
0 0.958993 0.0955581 -1.92387
0 0.958951 0.0945619 -1.71103
0 0.958959 0.0947399 -0.390904
0 0.958997 0.0943969 -1.62692
0 0.958983 0.0941184 -1.40735
0 0.958985 0.138436 8.03438
0 0.958982 0.0941177 -0.765903
0 0.958963 0.10194 -2.34642
0 0.95899 0.0958979 0.739868
0 0.958978 0.0951397 0.793145
0 0.958954 0.0957106 0.117554
0 0.958974 0.137098 8.42511
0 0.958983 0.0930499 0.242733
0 0.958939 0.136572 11.6851
0 0.958987 0.0943114 1.54909
0 0.958983 0.0959468 -1.28067
0 0.958985 0.0970395 -0.613104
0 0.958953 0.0931881 1.12946
0 0.958989 0.0942205 -1.21877
0 0.958958 0.0943277 0.383715
0 0.958983 0.09667 -0.202504
0 0.958994 0.0974385 -3.6001
0 0.95901 0.0967179 -0.658421
0 0.958995 0.0965422 2.08549
0 0.95898 0.0947801 -0.404387
0 0.958973 0.0951246 0.530513
0 0.958997 0.0963211 -1.81186
0 0.959039 0.135986 6.37119
0 0.958973 0.0959944 0.775241
0 0.958969 0.0961807 -0.184312
0 0.958969 0.0931675 0.164875
0 0.958974 0.0940881 0.251463
0 0.958956 0.0933946 0.217677
0 0.958971 0.0931249 0.0869338
0 0.958932 0.136303 5.10014
0 0.958949 0.0941894 0.400775
0 0.958997 0.097245 -2.10562
0 0.958984 0.0940469 0.164251
0 0.958992 0.0947822 0.682863
0 0.958978 0.0942903 -0.117659
0 0.958941 0.134992 16.385
0 0.959016 0.0949444 -1.11247
0 0.958977 0.0938734 0.626744
0 0.958964 0.0954748 0.0712295
0 0.958982 0.0953053 0.250337
0 0.958996 0.0947673 -0.889565
0 0.958977 0.0955608 1.75403
0 0.958995 0.0955247 1.13535
0 0.95897 0.0962421 -1.92385
0 0.958979 0.0943758 0.30546
0 0.958986 0.0932175 -1.24425
0 0.959066 0.133257 2.85539
0 0.958975 0.0942383 -0.41362
0 0.958977 0.0955234 -0.0410283
0 0.958969 0.0943579 -0.293132
0 0.958976 0.0943011 0.198677
0 0.958947 0.0951346 -0.607845
0 0.958966 0.0967746 2.14099
0 0.958952 0.0943064 -0.521058
0 0.958996 0.0945566 0.605887
0 0.958998 0.0939721 -0.202542
0 0.959004 0.0962262 0.291319
0 0.959001 0.0947884 -0.525313
0 0.958988 0.0960666 1.63486
0 0.958989 0.0941983 0.124934
0 0.959023 0.0939637 0.0326043
0 0.958926 0.132834 2.75887
0 0.959032 0.0946646 -0.461459
0 0.958978 0.0952426 -0.411465
0 0.958977 0.0951408 -1.37241
0 0.95897 0.0945779 -2.43806
0 0.958983 0.0953334 -2.37249
0 0.958975 0.0950472 -0.180593
0 0.95898 0.0946131 -0.12175
0 0.958985 0.0928694 -0.785869
0 0.959044 0.0951604 -0.00915096
0 0.959042 0.132865 4.71755
0 0.958987 0.0947897 -1.01316
0 0.95898 0.0939397 -0.12264
0 0.958964 0.0963462 0.984877
0 0.958975 0.0953635 0.710491
0 0.958922 0.093879 0.24827
0 0.958967 0.093639 0.272208
0 0.958992 0.0943601 -0.300285
0 0.958996 0.09567 -2.74544
0 0.959009 0.0938439 -0.669865
0 0.959009 0.0962234 -1.33581
0 0.958997 0.0945867 0.184439
0 0.958999 0.0951048 -0.727212
0 0.959025 0.0958305 0.202263
0 0.959021 0.0956704 -2.42782
0 0.958919 0.0934278 0.0172381
0 0.95888 0.137192 14.8915
0 0.958988 0.0943242 -0.128624
0 0.959012 0.0949526 -1.11278
0 0.958984 0.0943244 -0.206414
0 0.958982 0.0941813 -2.19149
0 0.959014 0.0947287 1.53567
0 0.95898 0.0938962 -0.100901
0 0.958985 0.0938601 -0.0717491
0 0.959 0.0946257 -1.8697
0 0.958974 0.0951692 0.390914
0 0.959059 0.0944384 0.926378
0 0.959073 0.133981 5.96659
0 0.958988 0.0942289 0.299748
0 0.958979 0.0953745 -0.592711
0 0.958968 0.0936582 0.211416
0 0.958985 0.0972267 1.01943
0 0.958979 0.0963083 -0.652111
0 0.958991 0.0951948 -0.22144
0 0.959012 0.0943805 0.10675
0 0.959008 0.0970502 -0.231551
0 0.959007 0.0933575 0.0416698
0 0.959016 0.0944069 0.0552329
0 0.959018 0.094335 -0.267945
0 0.958966 0.0935774 0.226073
0 0.958921 0.135589 7.91665
0 0.958989 0.095735 -0.396139
0 0.959 0.0952108 -0.0120407
0 0.959007 0.0946213 -2.21253
0 0.959016 0.0941778 0.185127
0 0.959002 0.0942634 0.282572
0 0.958997 0.0959313 -0.500759
0 0.958981 0.0954554 0.455529
0 0.959018 0.0953898 -0.0894362
0 0.958971 0.0934712 0.731633
0 0.958979 0.0944961 -1.34292
0 0.958997 0.0940187 0.322559
0 0.959035 0.0932638 0.372101
0 0.959079 0.132613 0.165237
0 0.958988 0.0942645 0.127519
0 0.95899 0.0942167 -0.184987
0 0.958988 0.0942164 0.393904
0 0.958996 0.0944378 0.0369299
0 0.958998 0.0949878 0.939805
0 0.959019 0.0952442 -0.586009
0 0.959017 0.0943204 0.289801
0 0.959016 0.0950433 -1.00649
0 0.959024 0.0944857 -0.847936
0 0.959019 0.0956053 -1.062
0 0.959025 0.0960657 0.8459
0 0.958986 0.0959271 0.138301
0 0.959001 0.0937527 0.356285
0 0.958991 0.13896 7.45003
0 0.958998 0.0954226 -0.0585634
0 0.959013 0.094043 0.182328
0 0.959001 0.0939034 0.0634983
0 0.95898 0.0944815 -0.410884
0 0.959007 0.0936646 -0.690811
0 0.958997 0.094834 -1.4847
0 0.958983 0.0940357 -0.575025
0 0.958979 0.0932616 -0.473529
0 0.959023 0.135702 7.28213
0 0.958987 0.0991478 -1.32198
0 0.958986 0.100789 -1.8267
0 0.958975 0.0973165 0.675015
0 0.959003 0.102029 -2.48068
0 0.959023 0.0942045 -0.311099
0 0.959011 0.0952678 0.0847127
0 0.959007 0.094151 0.567331
0 0.959021 0.0944801 -0.736514
0 0.959022 0.094657 0.34828
0 0.958993 0.0946062 0.544247
0 0.958997 0.0931981 -0.227942
0 0.959004 0.136345 3.19721
0 0.958991 0.0941317 -0.399621
0 0.958985 0.096942 -1.05401
0 0.959006 0.101597 0.637612
0 0.959013 0.0940706 0.787574
0 0.958971 0.0990464 0.333071
0 0.958985 0.096497 -0.779625
0 0.958989 0.0942428 -0.628175
0 0.95897 0.133203 11.6636
0 0.958984 0.095155 0.319095
0 0.958979 0.0978517 0.273327
0 0.959007 0.0970404 -0.122634
0 0.959021 0.102072 -1.07881
0 0.958995 0.0944531 0.454693
0 0.959 0.101762 0.399849
0 0.959015 0.0963471 -0.0756303
0 0.959011 0.0976478 -0.326028
0 0.958986 0.0941439 -0.581509
0 0.959007 0.0948163 -0.0116964
0 0.959008 0.094109 0.0228844
0 0.958993 0.135651 9.84496
0 0.95899 0.100105 -2.10782
0 0.959008 0.0954629 1.02772
0 0.958976 0.102816 2.70525
0 0.958975 0.0939917 0.0864787
0 0.959014 0.0945492 -0.824823
0 0.959027 0.134414 2.84617
0 0.958979 0.095907 1.17761
0 0.959003 0.0954448 -0.562154
0 0.958992 0.0946299 0.0489107
0 0.958991 0.094884 -0.0118313
0 0.958993 0.0974995 -0.807293
0 0.958989 0.0935356 0.653187
0 0.959025 0.0942072 0.0565326
0 0.959027 0.0932864 0.172724
0 0.959012 0.134816 1.87305
0 0.95899 0.096324 1.2507
0 0.958979 0.0953645 0.14098
0 0.958961 0.0959148 -1.33053
0 0.958957 0.0934357 0.103414
0 0.959009 0.135371 5.71747
0 0.958987 0.095287 1.3551
0 0.958989 0.094361 0.483427
0 0.958986 0.0960092 0.108527
0 0.958992 0.0952475 -0.859246
0 0.959029 0.0939739 0.252183
0 0.959057 0.0938156 -0.32911
0 0.959041 0.1332 2.15619
0 0.958983 0.0956689 -0.925161
0 0.958975 0.093796 0.12928
0 0.958922 0.0934981 0.0490294
0 0.958905 0.133382 9.86206
0 0.958988 0.0943034 0.234569
0 0.958989 0.100661 3.32213
0 0.958992 0.0938899 -0.10889
0 0.958996 0.0976224 0.392538
0 0.95902 0.0938261 0.473586
0 0.959066 0.0938575 -0.90103
0 0.95908 0.134465 -1.05325
0 0.958993 0.0937318 0.234483
0 0.95898 0.0931038 -0.234274
0 0.958927 0.137446 6.92782
0 0.959 0.0944812 0.677243
0 0.959016 0.0938986 -0.939995
0 0.95901 0.0959161 0.135423
0 0.959051 0.0948913 -1.14806
0 0.959077 0.133443 1.81092
0 0.959005 0.0929855 -0.224168
0 0.959 0.137439 7.07736
0 0.959007 0.0938582 0.420917
0 0.959031 0.0979638 -1.26688
0 0.959049 0.131802 9.90723
0 0.959 0.136769 4.91294
0 0.95902 0.134026 0.220678
VECTORS fa_u float
0.00708473 0.00284424 -0
0.0065134 0.00374421 -0
0.00330744 0.00089844 -0
0.00708988 0.00107687 -0
1e-08 0 0
0.00520628 0.00401053 -0
0.00281535 0.00273786 -0
1e-08 0 0
1e-08 0 0
0.00445598 0.00548921 -0
0.00495487 0.00835733 -0
0.00656622 0.000118014 -0
0.00625336 -0.000693603 0
1e-08 0 0
1e-08 0 0
1e-08 0 0
1e-08 0 0
1e-08 0 0
1e-08 0 0
1e-08 0 0
1e-08 0 0
0.00289026 0.00711295 -0
0.00160263 0.0062522 -0
1e-08 0 0
1e-08 0 0
1e-08 0 0
0.0085734 -0.00218283 0
1e-08 0 0
0.0102299 -0.00444786 0
1e-08 0 0
1e-08 0 0
1e-08 0 0
0.000857395 0.00722506 -0
1e-08 0 0
1e-08 0 0
1e-08 0 0
1e-08 0 0
1e-08 0 0
1e-08 0 0
1e-08 0 0
1e-08 0 0
1e-08 0 0
1e-08 0 0
-0.000147609 0.00747925 -0
1e-08 0 0
1e-08 0 0
1e-08 0 0
0.00565987 -0.00355597 0
1e-08 0 0
0.00298618 -0.00239366 0
1e-08 0 0
1e-08 0 0
1e-08 0 0
1e-08 0 0
1e-08 0 0
1e-08 0 0
1e-08 0 0
1e-08 0 0
1e-08 0 0
1e-08 0 0
1e-08 0 0
1e-08 0 0
1e-08 0 0
-0.000620297 0.00433157 0
1e-08 0 0
1e-08 0 0
1e-08 0 0
1e-08 0 0
1e-08 0 0
0.00338098 -0.00335022 0
1e-08 0 0
0.00293358 -0.00362576 0
1e-08 0 0
1e-08 0 0
1e-08 0 0
1e-08 0 0
1e-08 0 0
1e-08 0 0
1e-08 0 0
1e-08 0 0
1e-08 0 0
1e-08 0 0
1e-08 0 0
1e-08 0 0
1e-08 0 0
-0.00143033 0.00548441 0
1e-08 0 0
1e-08 0 0
1e-08 0 0
1e-08 0 0
1e-08 0 0
1e-08 0 0
0.00535902 -0.00885802 0
1e-08 0 0
1e-08 0 0
1e-08 0 0
1e-08 0 0
1e-08 0 0
0.00346578 -0.00854775 0
1e-08 0 0
1e-08 0 0
1e-08 0 0
1e-08 0 0
1e-08 0 0
1e-08 0 0
1e-08 0 0
1e-08 0 0
1e-08 0 0
1e-08 0 0
-0.0028354 0.00699821 0
1e-08 0 0
1e-08 0 0
1e-08 0 0
1e-08 0 0
1e-08 0 0
1e-08 0 0
1e-08 0 0
1e-08 0 0
1e-08 0 0
1e-08 0 0
1e-08 0 0
1e-08 0 0
1e-08 0 0
1e-08 0 0
0.0014043 -0.0055561 0
1e-08 0 0
1e-08 0 0
1e-08 0 0
1e-08 0 0
1e-08 0 0
1e-08 0 0
1e-08 0 0
1e-08 0 0
1e-08 0 0
-0.00367619 0.00636832 0
1e-08 0 0
1e-08 0 0
1e-08 0 0
1e-08 0 0
1e-08 0 0
1e-08 0 0
1e-08 0 0
1e-08 0 0
1e-08 0 0
1e-08 0 0
1e-08 0 0
1e-08 0 0
1e-08 0 0
1e-08 0 0
1e-08 0 0
0.000560477 -0.00411483 0
1e-08 0 0
1e-08 0 0
1e-08 0 0
1e-08 0 0
1e-08 0 0
1e-08 0 0
1e-08 0 0
1e-08 0 0
1e-08 0 0
1e-08 0 0
-0.00452198 0.0058133 0
1e-08 0 0
1e-08 0 0
1e-08 0 0
1e-08 0 0
1e-08 0 0
1e-08 0 0
1e-08 0 0
1e-08 0 0
1e-08 0 0
1e-08 0 0
1e-08 0 0
1e-08 0 0
0.000101607 -0.00758644 0
1e-08 0 0
1e-08 0 0
1e-08 0 0
1e-08 0 0
1e-08 0 0
1e-08 0 0
1e-08 0 0
1e-08 0 0
1e-08 0 0
1e-08 0 0
1e-08 0 0
1e-08 0 0
-0.00252949 0.00256773 0
1e-08 0 0
1e-08 0 0
1e-08 0 0
1e-08 0 0
1e-08 0 0
1e-08 0 0
1e-08 0 0
1e-08 0 0
1e-08 0 0
1e-08 0 0
1e-08 0 0
1e-08 0 0
1e-08 0 0
-0.000861792 -0.00693368 0
1e-08 0 0
1e-08 0 0
1e-08 0 0
1e-08 0 0
1e-08 0 0
1e-08 0 0
1e-08 0 0
1e-08 0 0
-0.00488629 0.00396263 0
1e-08 0 0
1e-08 0 0
1e-08 0 0
1e-08 0 0
1e-08 0 0
1e-08 0 0
1e-08 0 0
1e-08 0 0
1e-08 0 0
1e-08 0 0
1e-08 0 0
-0.00160851 -0.00616982 0
1e-08 0 0
1e-08 0 0
1e-08 0 0
1e-08 0 0
1e-08 0 0
1e-08 0 0
1e-08 0 0
-0.00819521 0.00490332 0
1e-08 0 0
1e-08 0 0
1e-08 0 0
1e-08 0 0
1e-08 0 0
1e-08 0 0
1e-08 0 0
1e-08 0 0
1e-08 0 0
1e-08 0 0
1e-08 0 0
-0.00295791 -0.00719576 0
1e-08 0 0
1e-08 0 0
1e-08 0 0
1e-08 0 0
1e-08 0 0
-0.00737446 0.00302448 0
1e-08 0 0
1e-08 0 0
1e-08 0 0
1e-08 0 0
1e-08 0 0
1e-08 0 0
1e-08 0 0
1e-08 0 0
-0.00477406 -0.00800026 0
1e-08 0 0
1e-08 0 0
1e-08 0 0
1e-08 0 0
-0.00621471 0.00160754 0
1e-08 0 0
1e-08 0 0
1e-08 0 0
1e-08 0 0
1e-08 0 0
1e-08 0 0
-0.00365915 -0.00455322 0
1e-08 0 0
1e-08 0 0
1e-08 0 0
-0.00707518 0.000860261 0
1e-08 0 0
1e-08 0 0
1e-08 0 0
1e-08 0 0
1e-08 0 0
1e-08 0 0
-0.00289798 -0.00287606 0
1e-08 0 0
1e-08 0 0
-0.00816172 -0.0001557 0
1e-08 0 0
1e-08 0 0
1e-08 0 0
1e-08 0 0
-0.00578643 -0.0045085 0
1e-08 0 0
-0.00394405 -0.000565845 0
1e-08 0 0
1e-08 0 0
-0.00657936 -0.00379623 0
-0.00556245 -0.00144023 0
-0.00700281 -0.00282675 0
