# vtk DataFile Version 2.0
CellBP Time: 1.32
ASCII
DATASET UNSTRUCTURED_GRID
POINTS 296 double
-9.16247 -3.76462 0
-8.58592 -4.9353 0
-9.5794 -2.52784 0
-9.83711 -1.25075 0
-8.33278 -2.80838 0
-7.86044 -6.02066 0
-6.99974 -7.00199 0
-7.89237 -3.86035 0
-7.31836 -4.8528 0
-6.02269 -7.86511 0
-4.94133 -8.5923 0
-9.92447 0.0485844 0
-9.84217 1.35081 0
-8.63512 -1.67684 0
-8.76569 -0.528059 0
-7.56591 -1.99481 0
-7.20146 -2.8938 0
-6.6181 -5.76499 0
-5.80766 -6.58357 0
-6.76653 -3.87411 0
-6.20039 -4.66116 0
-3.77095 -9.17024 0
-2.53306 -9.58785 0
-4.89655 -7.29635 0
-3.90763 -7.87285 0
-8.77276 0.64095 0
-9.59011 2.63286 0
-8.60568 1.7687 0
-9.17115 3.86923 0
-7.72183 -0.925234 0
-7.77376 0.0809045 0
-6.93032 -1.30988 0
-1.25124 -9.84108 0
-6.42194 -2.14528 0
-6.29925 -3.04547 0
-5.52157 -5.46028 0
-4.78389 -6.10145 0
-5.64126 -3.74451 0
-5.25246 -4.54911 0
-2.86232 -8.34984 0
-1.77671 -8.62505 0
-3.92023 -6.70948 0
-3.05197 -7.14068 0
0.0506241 -9.92369 0
-7.68578 1.1405 0
-8.32399 2.91076 0
-7.5338 2.1047 0
-8.58944 5.03703 0
-7.86379 3.9697 0
-7.85894 6.11877 0
-6.75864 -0.394505 0
-6.93616 0.551071 0
-5.75662 -1.00039 0
-0.59109 -8.7927 0
0.561607 -8.7504 0
-5.28995 -2.47342 0
-4.47811 -5.08248 0
-3.89261 -5.76267 0
-4.42752 -3.79634 0
-2.05813 -7.54752 0
-1.13228 -7.77133 0
-2.98848 -6.09062 0
-2.30518 -6.60759 0
1.35049 -9.83505 0
-6.672 1.41779 0
-7.15397 3.10838 0
-6.64302 2.3666 0
-7.27825 4.97562 0
-6.7027 3.99202 0
-6.9993 7.09863 0
-6.55698 5.87929 0
-6.02032 7.96065 0
-4.44583 -1.1804 0
-5.80127 0.510309 0
-4.64897 -0.0126865 0
0.00830441 -7.83028 0
1.73199 -8.62126 0
0.945027 -7.74358 0
-4.03076 -2.40181 0
-3.48294 -1.38983 0
-3.28686 -4.79592 0
-3.26176 -3.26325 0
-1.37628 -6.66223 0
-0.509173 -7.00872 0
-1.97327 -5.52741 0
2.62992 -9.5809 0
-5.49579 2.03226 0
-6.07989 3.06271 0
-6.09095 4.85609 0
-5.74527 3.97846 0
-5.74636 6.70009 0
-5.43922 5.60402 0
-4.93891 8.69014 0
-4.82615 7.38347 0
-3.49719 -0.423739 0
-4.44086 1.24716 0
-3.70542 0.591206 0
-4.05603 2.31831 0
-3.76941 9.26773 0
2.85215 -8.30766 0
0.415627 -6.77779 0
2.01392 -7.50281 0
1.29925 -6.88583 0
-2.44268 -0.873241 0
-2.83617 -2.12949 0
-2.29143 -4.09052 0
-2.32257 -2.96972 0
-0.444006 -5.84857 0
-1.22045 -4.49197 0
3.8652 -9.16246 0
-4.77776 3.38325 0
-5.07547 4.58153 0
-4.63491 6.26283 0
-4.52804 5.34532 0
-3.83416 7.97469 0
-3.81552 6.82494 0
-2.77598 8.40127 0
-1.64765 -0.136524 0
-1.44859 -0.889907 0
-2.48704 0.508522 0
-3.24899 1.4448 0
-3.23289 3.3114 0
-2.90605 2.37171 0
-1.35442 0.628204 0
-2.53237 9.68373 0
3.91916 -7.86255 0
2.95215 -7.13283 0
0.94878 -5.80609 0
2.06449 -6.39525 0
-1.68123 -1.99125 0
-1.4331 -3.27481 0
0.0899339 -4.73929 0
-0.565457 -3.69011 0
4.91626 -7.29535 0
5.03545 -8.58617 0
-3.76794 4.54211 0
-3.72579 5.73697 0
-2.87837 7.26791 0
-3.00218 6.33676 0
-1.66007 8.71342 0
-1.93314 7.59914 0
-2.33465 4.04535 0
-0.729393 -1.3268 0
-0.836281 -0.256593 0
-1.93556 1.68213 0
-2.12334 2.87444 0
-1.30499 3.54153 0
-0.868876 1.35164 0
-0.281788 0.457363 0
-0.534373 8.85293 0
-1.252 9.93725 0
1.10825 -4.56409 0
3.89495 -6.69145 0
2.97645 -6.07423 0
2.10889 -5.40781 0
4.76849 -6.18383 0
-0.557683 -2.47717 0
0.4947 -3.45924 0
0.0543862 -1.6107 0
1.47899 -3.67416 0
5.85209 -6.59392 0
6.12025 -7.86062 0
-2.46898 5.336 0
-2.12464 6.51646 0
-0.900707 7.78574 0
-1.26685 6.91485 0
0.0876415 7.86557 0
-1.1419 4.48713 0
0.150306 -0.618201 0
-0.798757 2.49032 0
-0.332529 3.59872 0
0.0622884 1.51376 0
0.742352 0.472891 0
0.6441 8.85739 0
0.049186 10.025 0
2.37255 -4.27288 0
3.84645 -5.62042 0
2.99037 -5.19551 0
5.55875 -5.47355 0
4.67727 -5.26395 0
0.629312 -2.29278 0
1.25387 -2.94737 0
0.758214 -1.39188 0
2.15889 -3.12904 0
2.98689 -3.46818 0
6.14215 -4.77928 0
6.64086 -5.75416 0
7.10067 -6.99894 0
-1.01696 5.80752 0
-0.369056 6.86846 0
1.1219 7.75621 0
0.558954 7.0661 0
-0.000419815 4.71928 0
0.606373 3.82465 0
1.33937 -0.642317 0
0.537966 2.65139 0
0.964297 1.5753 0
1.90956 0.213393 0
1.61421 1.06375 0
2.12729 7.56997 0
1.79674 8.69724 0
1.35185 9.94085 0
3.81322 -4.33811 0
5.10316 -4.43342 0
5.83441 -3.92424 0
3.77564 -3.19222 0
1.81124 -1.88314 0
3.01475 -2.56962 0
6.77033 -3.93809 0
7.36897 -4.88748 0
7.96411 -6.02143 0
0.483561 5.87016 0
1.42707 6.73025 0
2.37079 6.6587 0
1.20803 4.55038 0
1.48657 3.39318 0
2.43368 -0.691368 0
2.82534 0.142331 0
1.78814 2.16254 0
2.61001 1.14861 0
3.06811 7.15817 0
2.89999 8.36375 0
2.63315 9.68638 0
4.90174 -3.31846 0
6.11048 -3.10121 0
4.16673 -2.27171 0
3.24102 -1.5022 0
6.72042 -2.30912 0
7.21953 -3.03754 0
7.95412 -3.90631 0
8.69174 -4.94009 0
2.02132 5.59167 0
3.07951 6.14244 0
2.36142 4.12192 0
2.41807 3.05792 0
3.52111 -0.460491 0
3.61182 0.612957 0
2.95902 2.28609 0
3.54082 1.52471 0
4.00144 5.88619 0
3.97653 6.78213 0
3.9677 7.92715 0
3.87061 9.26902 0
5.56083 -1.91331 0
4.50465 -1.12837 0
6.70313 -1.33327 0
7.58177 -2.0337 0
8.38405 -2.85837 0
9.26968 -3.77007 0
3.41144 4.86788 0
3.33345 3.3799 0
4.6846 0.130347 0
4.51044 1.30726 0
4.05596 2.43715 0
4.55658 5.14052 0
4.83174 6.1796 0
4.97174 7.36668 0
5.04049 8.69096 0
5.87314 -0.434534 0
6.99824 -0.488076 0
7.74644 -1.08232 0
8.67169 -1.74213 0
9.68763 -2.53244 0
4.54034 3.8192 0
5.80383 1.09295 0
5.35642 2.52771 0
5.36195 4.60842 0
5.59689 5.51064 0
5.88524 6.65857 0
6.12133 7.96315 0
6.83036 0.460124 0
7.83988 -0.0248993 0
8.84631 -0.582506 0
9.94137 -1.25084 0
6.94348 1.34351 0
5.70318 3.76788 0
6.52305 2.18817 0
6.36086 3.07712 0
6.27326 4.67414 0
6.67452 5.82527 0
7.10058 7.10195 0
7.76863 0.963046 0
8.8439 0.571261 0
10.0254 0.0515379 0
7.59712 1.99764 0
6.80618 3.89144 0
7.24839 2.936 0
7.35928 4.87259 0
7.96212 6.12133 0
8.70339 1.72219 0
9.9356 1.3514 0
8.39829 2.82913 0
7.96093 3.90604 0
8.6878 5.0368 0
9.68093 2.63075 0
9.26349 3.86642 0
CELLS 542 2168
3 2 0 4
3 0 1 7
3 4 0 7
3 1 5 8
3 7 1 8
3 3 2 13
3 13 2 4
3 11 3 14
3 14 3 13
3 13 4 15
3 4 7 16
3 15 4 16
3 5 6 17
3 8 5 17
3 6 9 18
3 17 6 18
3 7 8 19
3 16 7 19
3 8 17 20
3 19 8 20
3 9 10 23
3 18 9 23
3 10 21 24
3 23 10 24
3 12 11 25
3 25 11 14
3 26 12 27
3 27 12 25
3 14 13 29
3 29 13 15
3 25 14 30
3 30 14 29
3 29 15 31
3 15 16 33
3 31 15 33
3 16 19 34
3 33 16 34
3 17 18 35
3 20 17 35
3 18 23 36
3 35 18 36
3 19 20 37
3 34 19 37
3 20 35 38
3 37 20 38
3 21 22 39
3 24 21 39
3 22 32 40
3 39 22 40
3 23 24 41
3 36 23 41
3 24 39 42
3 41 24 42
3 27 25 44
3 44 25 30
3 28 26 45
3 45 26 27
3 45 27 46
3 46 27 44
3 47 28 48
3 48 28 45
3 30 29 50
3 50 29 31
3 44 30 51
3 51 30 50
3 50 31 52
3 31 33 52
3 32 43 53
3 40 32 53
3 53 43 54
3 33 34 55
3 34 37 55
3 33 55 52
3 35 36 56
3 38 35 56
3 36 41 57
3 56 36 57
3 37 38 58
3 38 56 58
3 37 58 55
3 39 40 59
3 42 39 59
3 40 53 60
3 59 40 60
3 41 42 61
3 57 41 61
3 42 59 62
3 61 42 62
3 43 63 54
3 46 44 64
3 64 44 51
3 48 45 65
3 65 45 46
3 65 46 66
3 66 46 64
3 49 47 67
3 67 47 48
3 67 48 68
3 68 48 65
3 69 49 70
3 70 49 67
3 52 55 72
3 64 51 73
3 51 50 73
3 50 52 73
3 73 52 74
3 74 52 72
3 53 54 75
3 60 53 75
3 54 63 76
3 54 76 77
3 75 54 77
3 55 58 78
3 72 55 78
3 72 78 79
3 56 57 80
3 57 61 80
3 56 80 58
3 58 80 81
3 78 58 81
3 59 60 82
3 62 59 82
3 60 75 83
3 82 60 83
3 61 62 84
3 62 82 84
3 61 84 80
3 63 85 76
3 66 64 86
3 64 73 86
3 68 65 87
3 87 65 66
3 87 66 86
3 70 67 88
3 88 67 68
3 88 68 89
3 89 68 87
3 71 69 90
3 90 69 70
3 90 70 91
3 91 70 88
3 92 71 93
3 93 71 90
3 74 72 94
3 94 72 79
3 86 73 95
3 95 73 74
3 95 74 96
3 96 74 94
3 97 86 95
3 76 85 99
3 75 77 100
3 83 75 100
3 76 99 101
3 77 76 101
3 77 101 102
3 100 77 102
3 94 79 103
3 78 81 104
3 79 78 104
3 79 104 103
3 80 84 105
3 81 80 105
3 81 105 106
3 104 81 106
3 82 83 107
3 83 100 107
3 82 107 84
3 84 107 108
3 105 84 108
3 85 109 99
3 89 87 110
3 87 86 110
3 110 86 97
3 91 88 111
3 111 88 89
3 111 89 110
3 93 90 112
3 112 90 91
3 112 91 113
3 113 91 111
3 98 92 114
3 114 92 93
3 114 93 115
3 115 93 112
3 116 98 114
3 117 103 118
3 96 94 119
3 94 103 119
3 119 103 117
3 97 95 120
3 120 95 96
3 120 96 119
3 121 110 97
3 121 97 122
3 122 97 120
3 123 119 117
3 124 98 116
3 99 109 125
3 99 125 126
3 101 99 126
3 100 102 127
3 100 127 107
3 101 126 128
3 102 101 128
3 102 128 127
3 104 106 129
3 104 129 103
3 103 129 118
3 105 108 130
3 106 105 130
3 106 130 129
3 107 127 131
3 108 107 131
3 108 131 132
3 108 132 130
3 109 134 125
3 125 134 133
3 113 111 135
3 111 110 135
3 135 110 121
3 115 112 136
3 136 112 113
3 136 113 135
3 116 114 137
3 137 114 115
3 137 115 138
3 138 115 136
3 139 124 116
3 139 116 140
3 140 116 137
3 141 135 121
3 118 129 142
3 118 142 143
3 117 118 143
3 123 117 143
3 122 120 144
3 120 119 144
3 144 119 123
3 141 121 145
3 145 121 122
3 145 122 144
3 146 141 145
3 147 144 123
3 147 123 148
3 143 148 123
3 150 124 139
3 149 150 139
3 131 127 151
3 125 133 152
3 126 125 152
3 126 152 153
3 128 126 153
3 128 153 154
3 128 154 127
3 127 154 151
3 152 133 155
3 130 132 156
3 130 156 129
3 129 156 142
3 131 151 157
3 132 131 157
3 132 157 156
3 156 158 142
3 157 151 159
3 133 160 155
3 134 161 133
3 133 161 160
3 138 136 162
3 136 135 162
3 162 135 141
3 140 137 163
3 163 137 138
3 163 138 162
3 149 139 164
3 164 139 140
3 164 140 165
3 165 140 163
3 166 149 164
3 167 162 141
3 167 141 146
3 142 158 168
3 143 142 168
3 143 168 148
3 146 145 169
3 145 144 169
3 169 144 147
3 170 167 146
3 170 146 169
3 171 169 147
3 171 147 148
3 171 148 172
3 168 172 148
3 173 149 166
3 174 150 149
3 173 174 149
3 154 175 151
3 151 175 159
3 152 155 176
3 153 152 176
3 153 176 177
3 153 177 154
3 154 177 175
3 155 160 178
3 155 178 179
3 176 155 179
3 156 157 180
3 156 180 158
3 157 159 181
3 157 181 180
3 158 180 182
3 158 182 168
3 159 175 183
3 159 183 181
3 175 184 183
3 160 186 178
3 178 186 185
3 161 187 160
3 160 187 186
3 165 163 188
3 163 162 188
3 188 162 167
3 166 164 189
3 189 164 165
3 189 165 188
3 190 173 166
3 190 166 191
3 191 166 189
3 192 188 167
3 192 167 170
3 193 192 170
3 182 194 168
3 194 172 168
3 193 170 195
3 170 169 195
3 195 169 171
3 196 195 171
3 196 171 172
3 194 197 172
3 197 198 172
3 198 196 172
3 200 173 190
3 199 200 190
3 201 174 173
3 200 201 173
3 176 179 202
3 177 176 202
3 177 202 175
3 175 202 184
3 178 185 203
3 178 203 179
3 179 203 202
3 203 185 204
3 202 205 184
3 183 206 181
3 180 181 206
3 180 206 182
3 182 206 194
3 183 184 207
3 205 207 184
3 183 207 206
3 185 208 204
3 186 209 185
3 185 209 208
3 187 210 186
3 186 210 209
3 191 189 211
3 189 188 211
3 211 188 192
3 199 190 212
3 212 190 191
3 212 191 211
3 213 199 212
3 214 211 192
3 214 192 193
3 215 214 193
3 215 193 195
3 206 216 194
3 216 197 194
3 216 217 197
3 215 195 218
3 218 195 196
3 198 218 196
3 217 219 197
3 219 218 198
3 197 219 198
3 220 199 213
3 221 200 199
3 220 221 199
3 222 201 200
3 221 222 200
3 203 204 223
3 203 223 202
3 202 223 205
3 204 208 224
3 204 224 223
3 205 223 225
3 205 225 207
3 207 225 226
3 207 226 206
3 226 216 206
3 208 228 224
3 224 228 227
3 209 229 208
3 229 228 208
3 210 230 209
3 209 230 229
3 213 212 231
3 212 211 231
3 231 211 214
3 232 220 213
3 232 213 231
3 233 231 214
3 233 214 215
3 234 233 215
3 234 215 218
3 226 235 216
3 235 217 216
3 235 236 217
3 217 236 219
3 237 234 218
3 237 218 219
3 236 238 219
3 238 237 219
3 240 220 232
3 239 240 232
3 241 221 220
3 240 241 220
3 242 222 221
3 241 242 221
3 224 227 243
3 224 243 223
3 223 243 225
3 225 243 244
3 225 244 226
3 226 244 235
3 227 245 243
3 228 246 227
3 227 246 245
3 229 247 228
3 228 247 246
3 230 248 229
3 229 248 247
3 239 232 249
3 232 231 249
3 249 231 233
3 250 249 233
3 250 233 234
3 237 250 234
3 244 251 235
3 235 251 236
3 251 252 236
3 236 252 238
3 252 253 238
3 253 250 237
3 253 237 238
3 254 239 249
3 255 240 239
3 254 255 239
3 256 241 240
3 255 256 240
3 257 242 241
3 256 257 241
3 245 258 243
3 243 258 244
3 244 258 251
3 245 259 258
3 246 260 245
3 245 260 259
3 247 261 246
3 246 261 260
3 248 262 247
3 247 262 261
3 254 249 263
3 263 249 250
3 253 263 250
3 258 264 251
3 251 264 252
3 264 265 252
3 265 263 253
3 252 265 253
3 266 254 263
3 267 255 254
3 266 267 254
3 268 256 255
3 267 268 255
3 269 257 256
3 268 269 256
3 259 270 258
3 270 264 258
3 260 271 259
3 259 271 270
3 261 272 260
3 260 272 271
3 262 273 261
3 273 272 261
3 270 274 264
3 275 266 263
3 275 263 265
3 274 276 264
3 276 265 264
3 276 277 265
3 277 275 265
3 278 267 266
3 275 278 266
3 279 268 267
3 278 279 267
3 280 269 268
3 279 280 268
3 271 281 270
3 270 281 274
3 272 282 271
3 271 282 281
3 273 283 272
3 272 283 282
3 281 284 274
3 274 284 276
3 285 278 275
3 277 285 275
3 284 286 276
3 286 285 277
3 276 286 277
3 287 279 278
3 285 287 278
3 288 280 279
3 287 288 279
3 282 289 281
3 281 289 284
3 283 290 282
3 282 290 289
3 289 291 284
3 284 291 286
3 291 292 286
3 292 287 285
3 286 292 285
3 293 288 287
3 292 293 287
3 290 294 289
3 289 294 291
3 294 295 291
3 295 293 292
3 291 295 292
CELL_TYPES 542
5
5
5
5
5
5
5
5
5
5
5
5
5
5
5
5
5
5
5
5
5
5
5
5
5
5
5
5
5
5
5
5
5
5
5
5
5
5
5
5
5
5
5
5
5
5
5
5
5
5
5
5
5
5
5
5
5
5
5
5
5
5
5
5
5
5
5
5
5
5
5
5
5
5
5
5
5
5
5
5
5
5
5
5
5
5
5
5
5
5
5
5
5
5
5
5
5
5
5
5
5
5
5
5
5
5
5
5
5
5
5
5
5
5
5
5
5
5
5
5
5
5
5
5
5
5
5
5
5
5
5
5
5
5
5
5
5
5
5
5
5
5
5
5
5
5
5
5
5
5
5
5
5
5
5
5
5
5
5
5
5
5
5
5
5
5
5
5
5
5
5
5
5
5
5
5
5
5
5
5
5
5
5
5
5
5
5
5
5
5
5
5
5
5
5
5
5
5
5
5
5
5
5
5
5
5
5
5
5
5
5
5
5
5
5
5
5
5
5
5
5
5
5
5
5
5
5
5
5
5
5
5
5
5
5
5
5
5
5
5
5
5
5
5
5
5
5
5
5
5
5
5
5
5
5
5
5
5
5
5
5
5
5
5
5
5
5
5
5
5
5
5
5
5
5
5
5
5
5
5
5
5
5
5
5
5
5
5
5
5
5
5
5
5
5
5
5
5
5
5
5
5
5
5
5
5
5
5
5
5
5
5
5
5
5
5
5
5
5
5
5
5
5
5
5
5
5
5
5
5
5
5
5
5
5
5
5
5
5
5
5
5
5
5
5
5
5
5
5
5
5
5
5
5
5
5
5
5
5
5
5
5
5
5
5
5
5
5
5
5
5
5
5
5
5
5
5
5
5
5
5
5
5
5
5
5
5
5
5
5
5
5
5
5
5
5
5
5
5
5
5
5
5
5
5
5
5
5
5
5
5
5
5
5
5
5
5
5
5
5
5
5
5
5
5
5
5
5
5
5
5
5
5
5
5
5
5
5
5
5
5
5
5
5
5
5
5
5
5
5
5
5
5
5
5
5
5
5
5
5
5
5
5
5
5
5
5
5
5
5
5
5
5
5
5
5
5
5
5
5
5
5
5
5
5
5
5
5
5
5
5
5
5
5
5
5
5
5
5
5
5
5
5
5
5
5
5
5
5
5
5
5
5
5
5
5
5
5
5
5
5
5
5
5
5
5
5
5
5
5
5
5
5
5
5
5
5
5
5
5
5
5
POINT_DATA 296
SCALARS concentrations float 4
LOOKUP_TABLE default
0 0.99492 0.171995 10.8114
0 0.994974 0.16419 0.79483
0 0.994824 0.172316 12.8424
0 0.994782 0.171066 14.8074
0 0.994883 0.0947556 0.565569
0 0.994926 0.170422 9.35489
0 0.994948 0.168666 9.8091
0 0.994949 0.0950816 0.692928
0 0.99494 0.0949534 1.09523
0 0.994977 0.166403 9.94649
0 0.994963 0.16407 12.7463
0 0.994824 0.169146 11.4685
0 0.994794 0.165299 21.0585
0 0.994821 0.0944357 0.258625
0 0.994819 0.0939354 0.0319845
0 0.994863 0.100589 -0.484752
0 0.994893 0.0949084 0.342777
0 0.99491 0.0944615 0.781553
0 0.994923 0.0936547 0.707254
0 0.994907 0.0950316 0.967781
0 0.994892 0.0944343 0.544237
0 0.994931 0.166073 4.98421
0 0.994994 0.167412 13.0295
0 0.994925 0.0939064 0.403522
0 0.994898 0.0939732 -0.730286
0 0.994824 0.0949513 0.0622493
0 0.994801 0.165856 19.7327
0 0.994808 0.0955402 -0.120715
0 0.994814 0.164894 12.5195
0 0.994845 0.094491 0.393076
0 0.994846 0.0949435 0.222077
0 0.994841 0.0962201 -0.648541
0 0.994932 0.168358 7.23139
0 0.994843 0.0970871 0.469829
0 0.994862 0.0955931 -0.0924244
0 0.994869 0.0941444 0.422544
0 0.994858 0.0936763 0.545037
0 0.994864 0.099336 0.228902
0 0.994862 0.094194 0.644186
0 0.994923 0.0937455 0.00176923
0 0.994934 0.0936306 -0.010612
0 0.994851 0.0949825 -0.842794
0 0.994862 0.0947792 -0.114712
0 0.994855 0.170073 14.9815
0 0.994852 0.0984268 -0.662774
0 0.994837 0.094736 0.26656
0 0.994867 0.0952679 -0.830444
0 0.994756 0.166153 16.3277
0 0.994818 0.0942026 -0.384295
0 0.994743 0.166515 17.4866
0 0.994866 0.101995 -2.04208
0 0.994884 0.0948971 -0.520723
0 0.99484 0.0972773 0.211819
0 0.994868 0.0935748 -0.00153874
0 0.994823 0.0939107 -0.489023
0 0.994846 0.0970324 1.30094
0 0.994856 0.0939879 0.658502
0 0.994851 0.0945576 0.852913
0 0.994861 0.0938827 0.129591
0 0.994871 0.0956279 -1.35419
0 0.994857 0.0936579 -0.149168
0 0.99486 0.0942876 0.461703
0 0.994862 0.095519 1.24959
0 0.994795 0.169279 17.6139
0 0.994898 0.0997676 2.36988
0 0.994873 0.10525 1.09705
0 0.994891 0.096732 1.03326
0 0.994785 0.0948463 -0.402469
0 0.994865 0.0950311 -0.45329
0 0.994782 0.168265 18.08
0 0.994783 0.0944849 0.197737
0 0.994866 0.16887 12.3828
0 0.994857 0.0981252 1.22583
0 0.994869 0.10271 -3.71792
0 0.99486 0.0997625 2.63591
0 0.994841 0.0934342 0.0366841
0 0.99479 0.0947239 -0.362933
0 0.994838 0.0940426 0.0233209
0 0.994856 0.0964085 -0.856245
0 0.994857 0.101287 2.54348
0 0.99487 0.0950623 0.000675862
0 0.994875 0.0969841 -2.42619
0 0.994858 0.0952364 0.96426
0 0.994856 0.0934273 0.0551565
0 0.994861 0.0968636 -2.34213
0 0.994731 0.167443 18.4552
0 0.994888 0.0952531 -0.45316
0 0.994885 0.0969292 0.374528
0 0.994844 0.0946826 -0.142269
0 0.994881 0.094584 0.571485
0 0.994828 0.0943321 0.427758
0 0.994838 0.0944012 0.575457
0 0.994863 0.164834 16.7235
0 0.994854 0.0946712 0.748725
0 0.99487 0.0954512 -0.183145
0 0.994869 0.0982661 3.16956
0 0.994876 0.0957586 0.149834
0 0.994877 0.0951939 -1.44909
0 0.994902 0.169009 10.0586
0 0.99476 0.0962808 -0.372277
0 0.994857 0.0942069 0.404585
0 0.99486 0.0948086 -0.472383
0 0.994881 0.094418 0.282887
0 0.994874 0.0976494 1.8229
0 0.99487 0.100196 -0.702682
0 0.994873 0.0983555 -3.25499
0 0.994882 0.0953435 -0.18853
0 0.994852 0.095369 0.822515
0 0.994849 0.097832 -2.13095
0 0.994655 0.163592 23.4156
0 0.994883 0.0950336 -0.449375
0 0.994869 0.0942771 -0.171134
0 0.994838 0.0947418 0.988891
0 0.99486 0.0944935 0.234083
0 0.994874 0.100968 0.0914387
0 0.99485 0.100247 -2.03182
0 0.99491 0.0961013 0.873978
0 0.994898 0.0953536 1.14849
0 0.994902 0.096144 -0.218197
0 0.994868 0.0974653 1.33374
0 0.99485 0.100627 -2.67713
0 0.994873 0.0952702 -0.912198
0 0.994841 0.0978899 2.63481
0 0.994904 0.0958973 0.336538
0 0.994949 0.168642 8.65946
0 0.994772 0.0955792 -0.213804
0 0.994898 0.0961403 -0.420739
0 0.994865 0.0977998 -1.72192
0 0.994899 0.0956878 -0.60061
0 0.994889 0.0948275 0.597547
0 0.994871 0.0969405 -0.273254
0 0.994845 0.0948048 -0.335652
0 0.994857 0.0962387 0.206566
0 0.994853 0.0958621 -0.125875
0 0.994715 0.162411 11.8122
0 0.994871 0.0950059 0.446244
0 0.994857 0.0950921 0.843022
0 0.994889 0.096336 0.0233295
0 0.994869 0.096048 1.46875
0 0.994941 0.0941094 0.370918
0 0.994903 0.107878 -0.630164
0 0.994885 0.103795 -2.04111
0 0.994908 0.0951409 -0.28071
0 0.994918 0.0942744 -0.0176694
0 0.994871 0.0971335 -0.443087
0 0.99488 0.10072 -0.913587
0 0.994914 0.0952505 1.2238
0 0.994917 0.0951819 -0.115036
0 0.994926 0.0942615 1.0124
0 0.994959 0.0944553 0.753162
0 0.994986 0.165927 8.79829
0 0.994864 0.098684 -1.1575
0 0.994939 0.0992667 1.40028
0 0.99493 0.0968376 -0.805917
0 0.994886 0.0981833 -1.56506
0 0.994928 0.0959401 -8.6254e-05
0 0.994885 0.0965237 0.470719
0 0.994864 0.0960015 0.205246
0 0.994912 0.0972789 0.610188
0 0.994872 0.0964401 -0.542428
0 0.99485 0.0960792 -0.241142
0 0.994812 0.164714 12.9993
0 0.99487 0.0953742 0.949506
0 0.994887 0.103606 2.31928
0 0.994914 0.0948671 -0.897914
0 0.994903 0.0954584 -1.22427
0 0.99491 0.0969863 0.422472
0 0.994892 0.0977719 -0.0584595
0 0.994921 0.0961691 0.691372
0 0.994909 0.0969383 -0.238311
0 0.994901 0.0947005 0.441631
0 0.994923 0.0946539 -0.765538
0 0.994923 0.0939859 0.252599
0 0.994932 0.0945879 0.826742
0 0.994961 0.167235 5.20515
0 0.99488 0.0960192 0.129887
0 0.99492 0.0971525 1.20457
0 0.994898 0.0956846 -0.460572
0 0.99491 0.096061 -0.969456
0 0.994901 0.0964706 -0.836419
0 0.994893 0.10692 3.37104
0 0.994886 0.0966482 0.671351
0 0.994896 0.0981323 -1.61354
0 0.99488 0.09596 -0.45378
0 0.994859 0.0988877 3.64489
0 0.994904 0.0953793 -1.2808
0 0.994822 0.0951387 0.450219
0 0.994766 0.164257 18.2183
0 0.994878 0.0945041 -0.171474
0 0.994884 0.0989119 -1.68002
0 0.994909 0.0957107 0.387873
0 0.994887 0.100169 0.483303
0 0.994886 0.0938476 -0.360855
0 0.994895 0.0935269 0.735604
0 0.9949 0.0988485 -1.31578
0 0.99491 0.0937616 0.792415
0 0.994921 0.0940994 -0.228993
0 0.994916 0.0967047 -1.0192
0 0.994916 0.0950946 0.387991
0 0.994902 0.0957106 -0.97439
0 0.994896 0.094973 0.463333
0 0.994905 0.167091 9.22042
0 0.994873 0.0955201 -0.312249
0 0.994899 0.0972786 -0.684424
0 0.994903 0.095778 -1.32488
0 0.994829 0.0971677 -0.335358
0 0.994891 0.0995052 -2.60041
0 0.994854 0.099408 2.18119
0 0.994916 0.0951387 0.00572288
0 0.99487 0.0942647 -0.334637
0 0.994796 0.166513 14.6836
0 0.994889 0.0954796 -0.531835
0 0.994889 0.0983104 -1.73478
0 0.994875 0.0971274 -0.78044
0 0.994908 0.101223 -1.23722
0 0.994901 0.0940888 -0.758445
0 0.994908 0.0970157 0.337622
0 0.994914 0.094652 -0.20881
0 0.994905 0.0944823 0.430061
0 0.994902 0.0955114 -0.965822
0 0.994914 0.0969113 -0.06848
0 0.994902 0.0945536 0.654089
0 0.994878 0.165175 13.1384
0 0.994862 0.0972513 -1.29719
0 0.994891 0.0982999 0.557906
0 0.994849 0.0995793 3.05169
0 0.994893 0.0968381 -1.95947
0 0.994885 0.0969283 0.261796
0 0.994924 0.0961791 0.912096
0 0.994918 0.0951615 -0.942199
0 0.994867 0.165381 11.1767
0 0.994895 0.10547 -4.1181
0 0.994889 0.100499 0.70589
0 0.994905 0.0956162 -1.08803
0 0.99489 0.0955978 0.333623
0 0.994912 0.0950036 0.188814
0 0.994905 0.0957284 -0.444799
0 0.994882 0.0991769 -1.53251
0 0.99489 0.10348 2.59342
0 0.994901 0.10131 -0.680053
0 0.994934 0.09577 0.858524
0 0.994921 0.0946478 0.974796
0 0.994903 0.167017 8.53468
0 0.994868 0.0993723 0.181153
0 0.994879 0.0990011 -0.920039
0 0.994893 0.101396 1.21527
0 0.994912 0.096029 1.10822
0 0.994931 0.0946577 0.178802
0 0.994919 0.162747 5.87595
0 0.99488 0.0954225 0.850724
0 0.994885 0.0948485 1.03398
0 0.994887 0.0957688 -0.696274
0 0.994889 0.0952918 -0.501469
0 0.994882 0.0973536 0.759117
0 0.994886 0.0989175 0.453466
0 0.994918 0.0961578 0.985462
0 0.994916 0.0946761 -0.255036
0 0.99491 0.165132 6.31917
0 0.994889 0.100376 -1.99968
0 0.994923 0.0979961 1.40909
0 0.994912 0.0995079 1.89657
0 0.994928 0.0949476 0.418542
0 0.994927 0.165464 9.65808
0 0.994884 0.094779 0.170661
0 0.994879 0.0959135 0.371108
0 0.994876 0.0949706 0.0485878
0 0.994889 0.10105 -3.14221
0 0.994927 0.0954203 0.551776
0 0.994932 0.0937261 -0.0235217
0 0.994916 0.16559 11.1116
0 0.994903 0.0980515 0.114162
0 0.994905 0.0954825 -0.830134
0 0.994899 0.0946529 0.854346
0 0.99492 0.165341 11.292
0 0.994874 0.0958243 -0.316981
0 0.994886 0.097041 1.00843
0 0.994899 0.0989739 -1.64779
0 0.994926 0.102365 1.62086
0 0.994941 0.097441 1.1681
0 0.994985 0.0952305 0.290381
0 0.994967 0.162819 7.94514
0 0.994895 0.0951057 0.024986
0 0.994883 0.0948934 0.509984
0 0.994864 0.166224 8.86466
0 0.99492 0.0960268 0.488281
0 0.994963 0.0971037 0.905373
0 0.994968 0.0960876 -0.319629
0 0.995014 0.0969589 2.083
0 0.995028 0.160532 2.67423
0 0.994878 0.0950603 -0.425145
0 0.994868 0.164966 9.44323
0 0.994877 0.0964186 0.661505
0 0.994958 0.096654 2.36482
0 0.995005 0.161827 4.47301
0 0.994816 0.164005 10.5014
0 0.994872 0.161559 9.01502
VECTORS fa_u float
0.00619371 0.00255594 -0
0.00572433 0.00330369 -0
0.00586167 0.00157306 -0
0.00660392 0.000884492 -0
1e-08 0 0
0.0051792 0.00397501 -0
0.00438005 0.00436414 -0
1e-08 0 0
1e-08 0 0
0.00404424 0.00523465 -0
0.00340496 0.00587457 -0
0.00648399 1.26199e-05 -0
0.0064959 -0.000840455 0
1e-08 0 0
1e-08 0 0
1e-08 0 0
1e-08 0 0
1e-08 0 0
1e-08 0 0
1e-08 0 0
1e-08 0 0
0.00259015 0.00626565 -0
0.00166631 0.00625871 -0
1e-08 0 0
1e-08 0 0
1e-08 0 0
0.00647953 -0.00172645 0
1e-08 0 0
0.00646217 -0.0026897 0
1e-08 0 0
1e-08 0 0
1e-08 0 0
0.000852858 0.00656125 -0
1e-08 0 0
1e-08 0 0
1e-08 0 0
1e-08 0 0
1e-08 0 0
1e-08 0 0
1e-08 0 0
1e-08 0 0
1e-08 0 0
1e-08 0 0
-1.53178e-05 0.0066038 -0
1e-08 0 0
1e-08 0 0
1e-08 0 0
0.0057297 -0.00334227 0
1e-08 0 0
0.004816 -0.00371465 0
1e-08 0 0
1e-08 0 0
1e-08 0 0
1e-08 0 0
1e-08 0 0
1e-08 0 0
1e-08 0 0
1e-08 0 0
1e-08 0 0
1e-08 0 0
1e-08 0 0
1e-08 0 0
1e-08 0 0
-0.000825078 0.00620818 0
1e-08 0 0
1e-08 0 0
1e-08 0 0
1e-08 0 0
1e-08 0 0
0.00448018 -0.00447224 0
1e-08 0 0
0.00385574 -0.00499169 0
1e-08 0 0
1e-08 0 0
1e-08 0 0
1e-08 0 0
1e-08 0 0
1e-08 0 0
1e-08 0 0
1e-08 0 0
1e-08 0 0
1e-08 0 0
1e-08 0 0
1e-08 0 0
1e-08 0 0
-0.00168119 0.00628576 0
1e-08 0 0
1e-08 0 0
1e-08 0 0
1e-08 0 0
1e-08 0 0
1e-08 0 0
0.00348014 -0.00599312 0
1e-08 0 0
1e-08 0 0
1e-08 0 0
1e-08 0 0
1e-08 0 0
0.00262924 -0.00636819 0
1e-08 0 0
1e-08 0 0
1e-08 0 0
1e-08 0 0
1e-08 0 0
1e-08 0 0
1e-08 0 0
1e-08 0 0
1e-08 0 0
1e-08 0 0
-0.00250425 0.00605599 0
1e-08 0 0
1e-08 0 0
1e-08 0 0
1e-08 0 0
1e-08 0 0
1e-08 0 0
1e-08 0 0
1e-08 0 0
1e-08 0 0
1e-08 0 0
1e-08 0 0
1e-08 0 0
1e-08 0 0
1e-08 0 0
0.00163109 -0.00613299 0
1e-08 0 0
1e-08 0 0
1e-08 0 0
1e-08 0 0
1e-08 0 0
1e-08 0 0
1e-08 0 0
1e-08 0 0
1e-08 0 0
-0.0033218 0.00575401 0
1e-08 0 0
1e-08 0 0
1e-08 0 0
1e-08 0 0
1e-08 0 0
1e-08 0 0
1e-08 0 0
1e-08 0 0
1e-08 0 0
1e-08 0 0
1e-08 0 0
1e-08 0 0
1e-08 0 0
1e-08 0 0
1e-08 0 0
0.000821821 -0.0062168 0
1e-08 0 0
1e-08 0 0
1e-08 0 0
1e-08 0 0
1e-08 0 0
1e-08 0 0
1e-08 0 0
1e-08 0 0
1e-08 0 0
1e-08 0 0
-0.00402415 0.00523598 0
1e-08 0 0
1e-08 0 0
1e-08 0 0
1e-08 0 0
1e-08 0 0
1e-08 0 0
1e-08 0 0
1e-08 0 0
1e-08 0 0
1e-08 0 0
1e-08 0 0
1e-08 0 0
9.18922e-06 -0.0066369 0
1e-08 0 0
1e-08 0 0
1e-08 0 0
1e-08 0 0
1e-08 0 0
1e-08 0 0
1e-08 0 0
1e-08 0 0
1e-08 0 0
1e-08 0 0
1e-08 0 0
1e-08 0 0
-0.00429909 0.00431 0
1e-08 0 0
1e-08 0 0
1e-08 0 0
1e-08 0 0
1e-08 0 0
1e-08 0 0
1e-08 0 0
1e-08 0 0
1e-08 0 0
1e-08 0 0
1e-08 0 0
1e-08 0 0
1e-08 0 0
-0.000857825 -0.00654604 0
1e-08 0 0
1e-08 0 0
1e-08 0 0
1e-08 0 0
1e-08 0 0
1e-08 0 0
1e-08 0 0
1e-08 0 0
-0.00520544 0.00402276 0
1e-08 0 0
1e-08 0 0
1e-08 0 0
1e-08 0 0
1e-08 0 0
1e-08 0 0
1e-08 0 0
1e-08 0 0
1e-08 0 0
1e-08 0 0
1e-08 0 0
-0.00164204 -0.00615622 0
1e-08 0 0
1e-08 0 0
1e-08 0 0
1e-08 0 0
1e-08 0 0
1e-08 0 0
1e-08 0 0
-0.00588978 0.00341549 0
1e-08 0 0
1e-08 0 0
1e-08 0 0
1e-08 0 0
1e-08 0 0
1e-08 0 0
1e-08 0 0
1e-08 0 0
1e-08 0 0
1e-08 0 0
1e-08 0 0
-0.00260422 -0.00629812 0
1e-08 0 0
1e-08 0 0
1e-08 0 0
1e-08 0 0
1e-08 0 0
-0.00624723 0.00258408 0
1e-08 0 0
1e-08 0 0
1e-08 0 0
1e-08 0 0
1e-08 0 0
1e-08 0 0
1e-08 0 0
1e-08 0 0
-0.00342733 -0.00590713 0
1e-08 0 0
1e-08 0 0
1e-08 0 0
1e-08 0 0
-0.00624958 0.00166631 0
1e-08 0 0
1e-08 0 0
1e-08 0 0
1e-08 0 0
1e-08 0 0
1e-08 0 0
-0.00386745 -0.00501397 0
1e-08 0 0
1e-08 0 0
1e-08 0 0
-0.00649189 0.000848696 0
1e-08 0 0
1e-08 0 0
1e-08 0 0
1e-08 0 0
1e-08 0 0
1e-08 0 0
-0.00446795 -0.00446543 0
1e-08 0 0
1e-08 0 0
-0.00680476 -1.50825e-05 0
1e-08 0 0
1e-08 0 0
1e-08 0 0
1e-08 0 0
-0.00520496 -0.00400042 0
1e-08 0 0
-0.00615787 -0.000822514 0
1e-08 0 0
1e-08 0 0
-0.00581313 -0.00335493 0
-0.00616944 -0.00164872 0
-0.00609062 -0.00251398 0
