# vtk DataFile Version 2.0
CellBP Time: 8.6
ASCII
DATASET UNSTRUCTURED_GRID
POINTS 296 double
-8.9413 -3.66182 0
-8.38333 -4.81332 0
-9.33191 -2.44031 0
-9.60841 -1.21199 0
-8.09802 -2.71188 0
-7.66771 -5.87873 0
-6.81981 -6.84232 0
-7.65765 -3.73325 0
-7.09766 -4.70623 0
-5.89503 -7.70961 0
-4.86658 -8.44186 0
-9.71629 0.0380707 0
-9.66063 1.31376 0
-8.41679 -1.62247 0
-8.57478 -0.505827 0
-7.3442 -1.91677 0
-6.97077 -2.78103 0
-6.44293 -5.6251 0
-5.67422 -6.44305 0
-6.54335 -3.74327 0
-6.00923 -4.52621 0
-3.71721 -9.00608 0
-2.48891 -9.40524 0
-4.79789 -7.16041 0
-3.84847 -7.74308 0
-8.58889 0.630491 0
-9.44049 2.59109 0
-8.44473 1.73052 0
-9.03072 3.80676 0
-7.52184 -0.88335 0
-7.58811 0.0890584 0
-6.73804 -1.25325 0
-1.21749 -9.64277 0
-6.24356 -2.06761 0
-6.11054 -2.94121 0
-5.37037 -5.32947 0
-4.67007 -5.97498 0
-5.47423 -3.63325 0
-5.09366 -4.42899 0
-2.81749 -8.20448 0
-1.7461 -8.46518 0
-3.84105 -6.58873 0
-3.01172 -7.02143 0
0.0553083 -9.70248 0
-7.51324 1.11554 0
-8.18808 2.85989 0
-7.37532 2.04968 0
-8.41778 4.9274 0
-7.70561 3.88169 0
-7.65994 5.96329 0
-6.58484 -0.369245 0
-6.76473 0.547954 0
-5.62212 -0.969658 0
-0.582025 -8.61185 0
0.543844 -8.54478 0
-5.15767 -2.40227 0
-4.34951 -4.96238 0
-3.7985 -5.64352 0
-4.31632 -3.70754 0
-2.02521 -7.41295 0
-1.11525 -7.62149 0
-2.93016 -5.97404 0
-2.27096 -6.49047 0
1.31103 -9.58576 0
-6.51983 1.38195 0
-6.99098 3.02748 0
-6.49553 2.30681 0
-7.11042 4.85184 0
-6.54893 3.8865 0
-6.81811 6.91091 0
-6.39599 5.72997 0
-5.87433 7.76798 0
-4.37483 -1.16653 0
-5.67985 0.491332 0
-4.57396 -0.0273733 0
-0.00486405 -7.65506 0
1.68091 -8.39374 0
0.90334 -7.54664 0
-3.96054 -2.35317 0
-3.45562 -1.37974 0
-3.21695 -4.70203 0
-3.21614 -3.20663 0
-1.36527 -6.52922 0
-0.519363 -6.85586 0
-1.94672 -5.43324 0
2.56047 -9.33913 0
-5.38262 1.99142 0
-5.9445 2.98379 0
-5.94988 4.72873 0
-5.6139 3.86891 0
-5.60199 6.52557 0
-5.30666 5.4524 0
-4.84508 8.51945 0
-4.70279 7.18898 0
-3.46088 -0.418429 0
-4.3637 1.22665 0
-3.65164 0.586046 0
-3.9817 2.29245 0
-3.70721 9.08793 0
2.75798 -8.06278 0
0.37402 -6.60536 0
1.93164 -7.28678 0
1.23394 -6.69458 0
-2.4253 -0.862396 0
-2.81126 -2.10578 0
-2.26479 -4.02494 0
-2.29627 -2.92793 0
-0.452711 -5.72149 0
-1.20097 -4.42059 0
3.77213 -8.94622 0
-4.67335 3.30443 0
-4.95495 4.45596 0
-4.52027 6.08832 0
-4.41858 5.19896 0
-3.75184 7.79151 0
-3.71314 6.62996 0
-2.70932 8.19675 0
-1.63361 -0.124237 0
-1.43518 -0.87485 0
-2.47052 0.516928 0
-3.2017 1.43365 0
-3.17493 3.26099 0
-2.86447 2.35797 0
-1.35069 0.637996 0
-2.48608 9.47227 0
3.79616 -7.63211 0
2.83794 -6.90054 0
0.898618 -5.66015 0
1.98069 -6.20067 0
-1.66186 -1.97426 0
-1.41465 -3.23248 0
0.0789978 -4.64722 0
-0.552877 -3.63735 0
4.77557 -7.07456 0
4.91562 -8.38845 0
-3.68459 4.43487 0
-3.63518 5.58837 0
-2.79894 7.07145 0
-2.9272 6.16978 0
-1.62122 8.51801 0
-1.87981 7.41393 0
-2.29829 3.97761 0
-0.719973 -1.31571 0
-0.828513 -0.243363 0
-1.92999 1.69452 0
-2.10163 2.85574 0
-1.29639 3.50552 0
-0.87128 1.36089 0
-0.284793 0.46439 0
-0.522486 8.66717 0
-1.22551 9.70915 0
1.06937 -4.45916 0
3.75153 -6.45372 0
2.86795 -5.87616 0
2.035 -5.25289 0
4.62628 -5.97449 0
-0.547256 -2.45639 0
0.489791 -3.41131 0
0.0600908 -1.60107 0
1.44468 -3.59591 0
5.70055 -6.40289 0
5.97808 -7.67352 0
-2.41614 5.21492 0
-2.06234 6.35452 0
-0.872594 7.61735 0
-1.22233 6.74981 0
0.0914024 7.71029 0
-1.1263 4.41677 0
0.148943 -0.610887 0
-0.808469 2.49506 0
-0.344604 3.5729 0
0.051294 1.51541 0
0.731813 0.473799 0
0.628695 8.69467 0
0.04222 9.81843 0
2.30586 -4.15875 0
3.72652 -5.43274 0
2.89931 -5.0367 0
5.42415 -5.31138 0
4.54878 -5.08392 0
0.63343 -2.28316 0
1.23851 -2.9059 0
0.758785 -1.38768 0
2.1183 -3.06745 0
2.92272 -3.38457 0
6.01267 -4.65295 0
6.4922 -5.6085 0
6.93337 -6.81553 0
-0.989381 5.68816 0
-0.343231 6.72021 0
1.1037 7.62047 0
0.562912 6.92895 0
-0.00295907 4.65622 0
0.593306 3.78568 0
1.33336 -0.641745 0
0.521989 2.63808 0
0.950278 1.57643 0
1.89092 0.207521 0
1.59761 1.05965 0
2.09729 7.44433 0
1.76908 8.54752 0
1.32411 9.74772 0
3.71931 -4.20925 0
4.98499 -4.29004 0
5.71593 -3.81474 0
3.7031 -3.10957 0
1.7965 -1.8762 0
2.96763 -2.52524 0
6.6451 -3.84703 0
7.22457 -4.78237 0
7.79867 -5.88346 0
0.480305 5.76702 0
1.41092 6.61231 0
2.33984 6.55221 0
1.18898 4.48952 0
1.46348 3.35487 0
2.40777 -0.689714 0
2.79362 0.139611 0
1.76673 2.14949 0
2.58916 1.13993 0
3.02583 7.0454 0
2.85956 8.22133 0
2.59202 9.50407 0
4.80478 -3.227 0
5.99813 -3.02679 0
4.10051 -2.23054 0
3.19791 -1.48849 0
6.61396 -2.27341 0
7.10499 -2.98432 0
7.8238 -3.84432 0
8.53513 -4.85658 0
1.9972 5.50497 0
3.01254 6.03456 0
2.33377 4.06288 0
2.39069 3.01888 0
3.47884 -0.452503 0
3.56988 0.613376 0
2.9267 2.25901 0
3.48765 1.50476 0
3.90263 5.77076 0
3.90004 6.66153 0
3.91086 7.79615 0
3.81687 9.10062 0
5.47513 -1.8792 0
4.44017 -1.10818 0
6.59062 -1.31049 0
7.45544 -1.99975 0
8.24179 -2.81149 0
9.10411 -3.7124 0
3.32707 4.7742 0
3.2706 3.32014 0
4.61295 0.133482 0
4.4226 1.27947 0
3.9679 2.38595 0
4.42443 5.02395 0
4.7133 6.05403 0
4.87485 7.22414 0
4.96091 8.53152 0
5.76362 -0.435753 0
6.86343 -0.486317 0
7.61551 -1.05788 0
8.51856 -1.70891 0
9.50608 -2.48554 0
4.41778 3.72986 0
5.66798 1.05302 0
5.21087 2.45525 0
5.19549 4.48783 0
5.44105 5.38221 0
5.75107 6.512 0
5.98849 7.79883 0
6.67545 0.431153 0
7.68276 -0.0278811 0
8.67693 -0.561317 0
9.74695 -1.21495 0
6.76893 1.28801 0
5.52585 3.66099 0
6.33995 2.10672 0
6.16335 2.97642 0
6.07803 4.54437 0
6.49718 5.67846 0
6.92683 6.9413 0
7.58999 0.93064 0
8.64819 0.560906 0
9.81178 0.0627696 0
7.3977 1.93072 0
6.5769 3.75977 0
7.0264 2.83287 0
7.15516 4.74032 0
7.78461 5.98737 0
8.49005 1.67967 0
9.69152 1.31825 0
8.15961 2.74403 0
7.74265 3.79732 0
8.50089 4.92671 0
9.44824 2.56984 0
9.05675 3.78232 0
CELLS 542 2168
3 2 0 4
3 0 1 7
3 4 0 7
3 1 5 8
3 7 1 8
3 3 2 13
3 13 2 4
3 11 3 14
3 14 3 13
3 13 4 15
3 4 7 16
3 15 4 16
3 5 6 17
3 8 5 17
3 6 9 18
3 17 6 18
3 7 8 19
3 16 7 19
3 8 17 20
3 19 8 20
3 9 10 23
3 18 9 23
3 10 21 24
3 23 10 24
3 12 11 25
3 25 11 14
3 26 12 27
3 27 12 25
3 14 13 29
3 29 13 15
3 25 14 30
3 30 14 29
3 29 15 31
3 15 16 33
3 31 15 33
3 16 19 34
3 33 16 34
3 17 18 35
3 20 17 35
3 18 23 36
3 35 18 36
3 19 20 37
3 34 19 37
3 20 35 38
3 37 20 38
3 21 22 39
3 24 21 39
3 22 32 40
3 39 22 40
3 23 24 41
3 36 23 41
3 24 39 42
3 41 24 42
3 27 25 44
3 44 25 30
3 28 26 45
3 45 26 27
3 45 27 46
3 46 27 44
3 47 28 48
3 48 28 45
3 30 29 50
3 50 29 31
3 44 30 51
3 51 30 50
3 50 31 52
3 31 33 52
3 32 43 53
3 40 32 53
3 53 43 54
3 33 34 55
3 34 37 55
3 33 55 52
3 35 36 56
3 38 35 56
3 36 41 57
3 56 36 57
3 37 38 58
3 38 56 58
3 37 58 55
3 39 40 59
3 42 39 59
3 40 53 60
3 59 40 60
3 41 42 61
3 57 41 61
3 42 59 62
3 61 42 62
3 43 63 54
3 46 44 64
3 64 44 51
3 48 45 65
3 65 45 46
3 65 46 66
3 66 46 64
3 49 47 67
3 67 47 48
3 67 48 68
3 68 48 65
3 69 49 70
3 70 49 67
3 52 55 72
3 64 51 73
3 51 50 73
3 50 52 73
3 73 52 74
3 74 52 72
3 53 54 75
3 60 53 75
3 54 63 76
3 54 76 77
3 75 54 77
3 55 58 78
3 72 55 78
3 72 78 79
3 56 57 80
3 57 61 80
3 56 80 58
3 58 80 81
3 78 58 81
3 59 60 82
3 62 59 82
3 60 75 83
3 82 60 83
3 61 62 84
3 62 82 84
3 61 84 80
3 63 85 76
3 66 64 86
3 64 73 86
3 68 65 87
3 87 65 66
3 87 66 86
3 70 67 88
3 88 67 68
3 88 68 89
3 89 68 87
3 71 69 90
3 90 69 70
3 90 70 91
3 91 70 88
3 92 71 93
3 93 71 90
3 74 72 94
3 94 72 79
3 86 73 95
3 95 73 74
3 95 74 96
3 96 74 94
3 97 86 95
3 76 85 99
3 75 77 100
3 83 75 100
3 76 99 101
3 77 76 101
3 77 101 102
3 100 77 102
3 94 79 103
3 78 81 104
3 79 78 104
3 79 104 103
3 80 84 105
3 81 80 105
3 81 105 106
3 104 81 106
3 82 83 107
3 83 100 107
3 82 107 84
3 84 107 108
3 105 84 108
3 85 109 99
3 89 87 110
3 87 86 110
3 110 86 97
3 91 88 111
3 111 88 89
3 111 89 110
3 93 90 112
3 112 90 91
3 112 91 113
3 113 91 111
3 98 92 114
3 114 92 93
3 114 93 115
3 115 93 112
3 116 98 114
3 117 103 118
3 96 94 119
3 94 103 119
3 119 103 117
3 97 95 120
3 120 95 96
3 120 96 119
3 121 110 97
3 121 97 122
3 122 97 120
3 123 119 117
3 124 98 116
3 99 109 125
3 99 125 126
3 101 99 126
3 100 102 127
3 100 127 107
3 101 126 128
3 102 101 128
3 102 128 127
3 104 106 129
3 104 129 103
3 103 129 118
3 105 108 130
3 106 105 130
3 106 130 129
3 107 127 131
3 108 107 131
3 108 131 132
3 108 132 130
3 109 134 125
3 125 134 133
3 113 111 135
3 111 110 135
3 135 110 121
3 115 112 136
3 136 112 113
3 136 113 135
3 116 114 137
3 137 114 115
3 137 115 138
3 138 115 136
3 139 124 116
3 139 116 140
3 140 116 137
3 141 135 121
3 118 129 142
3 118 142 143
3 117 118 143
3 123 117 143
3 122 120 144
3 120 119 144
3 144 119 123
3 141 121 145
3 145 121 122
3 145 122 144
3 146 141 145
3 147 144 123
3 147 123 148
3 143 148 123
3 150 124 139
3 149 150 139
3 131 127 151
3 125 133 152
3 126 125 152
3 126 152 153
3 128 126 153
3 128 153 154
3 128 154 127
3 127 154 151
3 152 133 155
3 130 132 156
3 130 156 129
3 129 156 142
3 131 151 157
3 132 131 157
3 132 157 156
3 156 158 142
3 157 151 159
3 133 160 155
3 134 161 133
3 133 161 160
3 138 136 162
3 136 135 162
3 162 135 141
3 140 137 163
3 163 137 138
3 163 138 162
3 149 139 164
3 164 139 140
3 164 140 165
3 165 140 163
3 166 149 164
3 167 162 141
3 167 141 146
3 142 158 168
3 143 142 168
3 143 168 148
3 146 145 169
3 145 144 169
3 169 144 147
3 170 167 146
3 170 146 169
3 171 169 147
3 171 147 148
3 171 148 172
3 168 172 148
3 173 149 166
3 174 150 149
3 173 174 149
3 154 175 151
3 151 175 159
3 152 155 176
3 153 152 176
3 153 176 177
3 153 177 154
3 154 177 175
3 155 160 178
3 155 178 179
3 176 155 179
3 156 157 180
3 156 180 158
3 157 159 181
3 157 181 180
3 158 180 182
3 158 182 168
3 159 175 183
3 159 183 181
3 175 184 183
3 160 186 178
3 178 186 185
3 161 187 160
3 160 187 186
3 165 163 188
3 163 162 188
3 188 162 167
3 166 164 189
3 189 164 165
3 189 165 188
3 190 173 166
3 190 166 191
3 191 166 189
3 192 188 167
3 192 167 170
3 193 192 170
3 182 194 168
3 194 172 168
3 193 170 195
3 170 169 195
3 195 169 171
3 196 195 171
3 196 171 172
3 194 197 172
3 197 198 172
3 198 196 172
3 200 173 190
3 199 200 190
3 201 174 173
3 200 201 173
3 176 179 202
3 177 176 202
3 177 202 175
3 175 202 184
3 178 185 203
3 178 203 179
3 179 203 202
3 203 185 204
3 202 205 184
3 183 206 181
3 180 181 206
3 180 206 182
3 182 206 194
3 183 184 207
3 205 207 184
3 183 207 206
3 185 208 204
3 186 209 185
3 185 209 208
3 187 210 186
3 186 210 209
3 191 189 211
3 189 188 211
3 211 188 192
3 199 190 212
3 212 190 191
3 212 191 211
3 213 199 212
3 214 211 192
3 214 192 193
3 215 214 193
3 215 193 195
3 206 216 194
3 216 197 194
3 216 217 197
3 215 195 218
3 218 195 196
3 198 218 196
3 217 219 197
3 219 218 198
3 197 219 198
3 220 199 213
3 221 200 199
3 220 221 199
3 222 201 200
3 221 222 200
3 203 204 223
3 203 223 202
3 202 223 205
3 204 208 224
3 204 224 223
3 205 223 225
3 205 225 207
3 207 225 226
3 207 226 206
3 226 216 206
3 208 228 224
3 224 228 227
3 209 229 208
3 229 228 208
3 210 230 209
3 209 230 229
3 213 212 231
3 212 211 231
3 231 211 214
3 232 220 213
3 232 213 231
3 233 231 214
3 233 214 215
3 234 233 215
3 234 215 218
3 226 235 216
3 235 217 216
3 235 236 217
3 217 236 219
3 237 234 218
3 237 218 219
3 236 238 219
3 238 237 219
3 240 220 232
3 239 240 232
3 241 221 220
3 240 241 220
3 242 222 221
3 241 242 221
3 224 227 243
3 224 243 223
3 223 243 225
3 225 243 244
3 225 244 226
3 226 244 235
3 227 245 243
3 228 246 227
3 227 246 245
3 229 247 228
3 228 247 246
3 230 248 229
3 229 248 247
3 239 232 249
3 232 231 249
3 249 231 233
3 250 249 233
3 250 233 234
3 237 250 234
3 244 251 235
3 235 251 236
3 251 252 236
3 236 252 238
3 252 253 238
3 253 250 237
3 253 237 238
3 254 239 249
3 255 240 239
3 254 255 239
3 256 241 240
3 255 256 240
3 257 242 241
3 256 257 241
3 245 258 243
3 243 258 244
3 244 258 251
3 245 259 258
3 246 260 245
3 245 260 259
3 247 261 246
3 246 261 260
3 248 262 247
3 247 262 261
3 254 249 263
3 263 249 250
3 253 263 250
3 258 264 251
3 251 264 252
3 264 265 252
3 265 263 253
3 252 265 253
3 266 254 263
3 267 255 254
3 266 267 254
3 268 256 255
3 267 268 255
3 269 257 256
3 268 269 256
3 259 270 258
3 270 264 258
3 260 271 259
3 259 271 270
3 261 272 260
3 260 272 271
3 262 273 261
3 273 272 261
3 270 274 264
3 275 266 263
3 275 263 265
3 274 276 264
3 276 265 264
3 276 277 265
3 277 275 265
3 278 267 266
3 275 278 266
3 279 268 267
3 278 279 267
3 280 269 268
3 279 280 268
3 271 281 270
3 270 281 274
3 272 282 271
3 271 282 281
3 273 283 272
3 272 283 282
3 281 284 274
3 274 284 276
3 285 278 275
3 277 285 275
3 284 286 276
3 286 285 277
3 276 286 277
3 287 279 278
3 285 287 278
3 288 280 279
3 287 288 279
3 282 289 281
3 281 289 284
3 283 290 282
3 282 290 289
3 289 291 284
3 284 291 286
3 291 292 286
3 292 287 285
3 286 292 285
3 293 288 287
3 292 293 287
3 290 294 289
3 289 294 291
3 294 295 291
3 295 293 292
3 291 295 292
CELL_TYPES 542
5
5
5
5
5
5
5
5
5
5
5
5
5
5
5
5
5
5
5
5
5
5
5
5
5
5
5
5
5
5
5
5
5
5
5
5
5
5
5
5
5
5
5
5
5
5
5
5
5
5
5
5
5
5
5
5
5
5
5
5
5
5
5
5
5
5
5
5
5
5
5
5
5
5
5
5
5
5
5
5
5
5
5
5
5
5
5
5
5
5
5
5
5
5
5
5
5
5
5
5
5
5
5
5
5
5
5
5
5
5
5
5
5
5
5
5
5
5
5
5
5
5
5
5
5
5
5
5
5
5
5
5
5
5
5
5
5
5
5
5
5
5
5
5
5
5
5
5
5
5
5
5
5
5
5
5
5
5
5
5
5
5
5
5
5
5
5
5
5
5
5
5
5
5
5
5
5
5
5
5
5
5
5
5
5
5
5
5
5
5
5
5
5
5
5
5
5
5
5
5
5
5
5
5
5
5
5
5
5
5
5
5
5
5
5
5
5
5
5
5
5
5
5
5
5
5
5
5
5
5
5
5
5
5
5
5
5
5
5
5
5
5
5
5
5
5
5
5
5
5
5
5
5
5
5
5
5
5
5
5
5
5
5
5
5
5
5
5
5
5
5
5
5
5
5
5
5
5
5
5
5
5
5
5
5
5
5
5
5
5
5
5
5
5
5
5
5
5
5
5
5
5
5
5
5
5
5
5
5
5
5
5
5
5
5
5
5
5
5
5
5
5
5
5
5
5
5
5
5
5
5
5
5
5
5
5
5
5
5
5
5
5
5
5
5
5
5
5
5
5
5
5
5
5
5
5
5
5
5
5
5
5
5
5
5
5
5
5
5
5
5
5
5
5
5
5
5
5
5
5
5
5
5
5
5
5
5
5
5
5
5
5
5
5
5
5
5
5
5
5
5
5
5
5
5
5
5
5
5
5
5
5
5
5
5
5
5
5
5
5
5
5
5
5
5
5
5
5
5
5
5
5
5
5
5
5
5
5
5
5
5
5
5
5
5
5
5
5
5
5
5
5
5
5
5
5
5
5
5
5
5
5
5
5
5
5
5
5
5
5
5
5
5
5
5
5
5
5
5
5
5
5
5
5
5
5
5
5
5
5
5
5
5
5
5
5
5
5
5
5
5
5
5
5
5
5
5
5
5
5
5
5
5
5
5
5
5
5
5
5
5
5
5
5
5
5
5
5
5
5
5
5
5
5
5
5
5
5
5
5
5
5
POINT_DATA 296
SCALARS concentrations float 4
LOOKUP_TABLE default
0 0.952684 0.11756 6.08577
0 0.9527 0.114336 5.68081
0 0.952665 0.117635 3.96472
0 0.952671 0.120538 7.15778
0 0.952682 0.0927751 -0.171959
0 0.952704 0.118224 3.02666
0 0.952746 0.118862 2.59301
0 0.952696 0.0938088 -0.793736
0 0.9527 0.092491 -0.138317
0 0.952769 0.119296 0.851967
0 0.952804 0.118884 -1.27783
0 0.952711 0.116057 4.87728
0 0.952769 0.117899 3.24314
0 0.952684 0.0926734 -0.348673
0 0.952696 0.0921786 0.118761
0 0.952705 0.092523 -0.0378448
0 0.952697 0.0929676 -0.127138
0 0.952722 0.0934343 0.154854
0 0.952746 0.0929953 0.288239
0 0.952698 0.0939823 -0.710675
0 0.952706 0.0936335 -0.314362
0 0.952754 0.119458 5.15293
0 0.952694 0.119565 4.46196
0 0.952763 0.0930834 0.338684
0 0.952762 0.093101 0.620799
0 0.952735 0.0928663 -0.194118
0 0.952767 0.116892 0.729073
0 0.952758 0.0929492 -0.211503
0 0.952741 0.11813 4.52106
0 0.952707 0.0933013 0.0147171
0 0.952713 0.0932496 0.0317524
0 0.952709 0.0937264 0.106955
0 0.952685 0.118226 2.83014
0 0.9527 0.0928004 -0.602385
0 0.952691 0.0932902 -0.835432
0 0.952717 0.0940658 0.629534
0 0.952725 0.0935972 0.0261846
0 0.952694 0.0931786 -0.572488
0 0.9527 0.0946835 0.414987
0 0.952713 0.093342 0.419593
0 0.952696 0.0934122 -0.654968
0 0.952726 0.0930102 0.908029
0 0.952713 0.0945516 0.544874
0 0.952688 0.119373 3.71495
0 0.952728 0.0929644 -0.54809
0 0.95274 0.0930608 0.464892
0 0.95273 0.0936318 0.119353
0 0.952721 0.118459 6.02852
0 0.952722 0.0934851 -0.777522
0 0.952728 0.119693 0.994585
0 0.952707 0.0921955 0.267903
0 0.952713 0.0923958 0.193533
0 0.952701 0.0937594 -0.0413726
0 0.952696 0.0931225 -0.75771
0 0.952691 0.0942913 0.566127
0 0.952697 0.0939401 0.262763
0 0.952705 0.0937861 0.644257
0 0.952711 0.0939134 0.434805
0 0.952701 0.0929141 -0.510099
0 0.952704 0.094168 1.18939
0 0.952707 0.0938335 0.872089
0 0.952707 0.0972353 0.630879
0 0.952705 0.0950871 0.852711
0 0.952672 0.119216 4.56756
0 0.952721 0.0932781 -0.743457
0 0.95272 0.0938145 -0.984958
0 0.952724 0.093392 -0.732369
0 0.952718 0.0945314 0.233647
0 0.952711 0.0932854 -0.185788
0 0.952743 0.118994 6.18081
0 0.952727 0.0925578 -0.014552
0 0.952774 0.116931 1.67301
0 0.952709 0.0950273 -1.72411
0 0.952711 0.0926007 0.650274
0 0.952714 0.0936733 -0.883271
0 0.952711 0.0934693 0.574605
0 0.952675 0.0944026 -0.0153463
0 0.952701 0.0948224 -0.89635
0 0.952712 0.0943275 -0.988045
0 0.952723 0.0943074 -0.407633
0 0.952706 0.0950159 1.37115
0 0.952714 0.0935661 -0.566834
0 0.952708 0.0952664 1.02769
0 0.952712 0.094591 0.586722
0 0.952705 0.0960518 -1.69123
0 0.952657 0.118844 8.33765
0 0.952721 0.0926809 0.860686
0 0.952719 0.0931412 -0.230748
0 0.952714 0.0934118 0.617643
0 0.952715 0.0941798 -0.0948067
0 0.952746 0.0938402 -0.361572
0 0.95272 0.0933961 0.715554
0 0.952774 0.1181 -0.775451
0 0.952765 0.0940923 1.19097
0 0.952729 0.0944159 -1.10983
0 0.952726 0.0928993 1.36311
0 0.952735 0.0933469 -1.7531
0 0.952719 0.0939219 1.04848
0 0.952696 0.116572 -0.253669
0 0.952663 0.0958075 0.616272
0 0.952715 0.0940147 0.699573
0 0.952694 0.096814 -2.1296
0 0.952707 0.0954668 -0.967882
0 0.952724 0.0938624 -1.4841
0 0.95272 0.0947496 -0.750504
0 0.95271 0.0935214 0.0718381
0 0.952713 0.0943785 0.705709
0 0.952706 0.094752 -1.03645
0 0.952704 0.0937591 -0.218284
0 0.952649 0.117783 10.0881
0 0.952712 0.0933798 0.854129
0 0.952712 0.0941204 -0.488312
0 0.952732 0.0946877 -0.23088
0 0.952715 0.0936999 0.773021
0 0.952735 0.0960959 -0.420336
0 0.952729 0.0945204 0.767741
0 0.95268 0.0946818 -0.795075
0 0.952731 0.0949293 2.43021
0 0.952725 0.0941348 -1.11255
0 0.952733 0.093791 2.02944
0 0.952736 0.0935899 1.87287
0 0.952693 0.0943571 -2.41095
0 0.952712 0.0946678 0.863227
0 0.952743 0.0941357 1.04089
0 0.952658 0.11736 10.1712
0 0.952645 0.0985671 -2.99204
0 0.952686 0.0986641 -2.35604
0 0.952706 0.093707 -0.650065
0 0.952713 0.0957336 -1.14976
0 0.952714 0.0934062 -0.787475
0 0.952705 0.0943187 -0.204932
0 0.952704 0.0946671 -0.250515
0 0.952707 0.0938691 0.314027
0 0.952683 0.0949153 -0.383974
0 0.952659 0.115198 2.01614
0 0.952703 0.093876 1.06573
0 0.952719 0.0940159 -1.16372
0 0.952713 0.0945645 -0.640817
0 0.952715 0.0956121 -1.14123
0 0.952661 0.0941174 -0.323331
0 0.952693 0.0937603 -0.622195
0 0.952685 0.093961 -1.43719
0 0.952726 0.0945532 -0.856311
0 0.952738 0.0950925 -0.98531
0 0.952719 0.0973232 1.64389
0 0.95269 0.0964451 1.35563
0 0.952687 0.0957625 1.07472
0 0.952736 0.093636 0.605581
0 0.952753 0.0955497 -0.792903
0 0.952644 0.0925972 0.249211
0 0.952636 0.119277 8.90224
0 0.952704 0.0946841 -0.195333
0 0.952686 0.100393 -0.129449
0 0.952724 0.0962048 0.592881
0 0.952709 0.0979386 2.75897
0 0.952718 0.0964048 1.65744
0 0.952714 0.09634 0.366787
0 0.952706 0.0956418 0.236511
0 0.952721 0.0965317 -0.751679
0 0.952727 0.0953208 0.0639367
0 0.952725 0.0959034 -0.364682
0 0.952706 0.113776 1.08435
0 0.952706 0.0946322 -1.51025
0 0.952709 0.0941897 -0.716959
0 0.952677 0.093606 0.134288
0 0.952701 0.0934542 0.389141
0 0.952682 0.0929701 0.504128
0 0.952696 0.0943663 -1.24717
0 0.952728 0.0949852 0.446799
0 0.952707 0.0958005 -0.0915017
0 0.952691 0.0976693 1.59057
0 0.952729 0.0946689 -0.918498
0 0.952726 0.0947248 0.463512
0 0.952671 0.0931488 0.445878
0 0.952635 0.117032 2.16978
0 0.952719 0.0952502 -0.0962439
0 0.952724 0.0957991 -0.472547
0 0.952717 0.0944111 0.552773
0 0.952715 0.0952084 -0.51318
0 0.952714 0.0954224 0.92571
0 0.952705 0.100971 -3.18636
0 0.95272 0.0977523 -0.906459
0 0.952706 0.096157 0.995446
0 0.952731 0.0968871 -0.875731
0 0.952714 0.0941995 0.591952
0 0.952704 0.0943362 -0.730118
0 0.952716 0.0937861 -0.46477
0 0.952724 0.116628 2.4918
0 0.952708 0.0932408 0.677429
0 0.952698 0.0934493 -0.725778
0 0.95269 0.0933312 -0.738552
0 0.952699 0.0935543 0.486486
0 0.9527 0.0962519 1.87087
0 0.952689 0.0941387 1.12238
0 0.952718 0.0955482 0.62896
0 0.952702 0.0953405 2.05483
0 0.95271 0.093527 -0.636222
0 0.952722 0.0958911 -0.358529
0 0.952717 0.0942533 -0.573187
0 0.952697 0.0934933 -0.669623
0 0.952703 0.0930332 -0.124831
0 0.952682 0.117135 6.14774
0 0.952716 0.0956168 0.806644
0 0.952713 0.0951908 1.14399
0 0.952703 0.0949381 -0.960703
0 0.952713 0.0948484 0.884389
0 0.95272 0.097508 -1.01745
0 0.952721 0.0964625 0.236052
0 0.952699 0.0941107 -0.59461
0 0.952699 0.0935393 -0.510389
0 0.95271 0.118491 8.37286
0 0.952704 0.0939947 0.483316
0 0.9527 0.0952444 0.280597
0 0.952701 0.0990379 -0.220236
0 0.952701 0.0955403 0.851345
0 0.952709 0.0935226 0.775909
0 0.952724 0.0961548 -0.520666
0 0.952727 0.0952581 -0.0883179
0 0.952712 0.0950195 -0.529996
0 0.952722 0.0959653 0.0217438
0 0.952709 0.0939173 0.20722
0 0.952743 0.0933748 0.340004
0 0.952748 0.118255 6.03288
0 0.952711 0.0961633 1.3306
0 0.952707 0.0980083 2.04727
0 0.952714 0.0943074 -0.791456
0 0.952727 0.0962876 -1.12495
0 0.952715 0.0969612 0.663101
0 0.952717 0.094056 -0.364684
0 0.952705 0.0934614 -0.939113
0 0.952697 0.118173 5.07534
0 0.952705 0.0976876 0.771579
0 0.952706 0.0939077 0.396555
0 0.952716 0.0937887 -0.441248
0 0.952718 0.0946867 0.0141699
0 0.952718 0.0953528 0.306846
0 0.952721 0.0947908 -0.856839
0 0.9527 0.095102 -0.475399
0 0.952706 0.0971386 -1.36902
0 0.952701 0.0934362 0.16242
0 0.952706 0.0930312 0.0337738
0 0.952722 0.093384 0.0616706
0 0.952761 0.118238 3.26306
0 0.952702 0.0963911 1.38023
0 0.952709 0.0946044 -0.678484
0 0.952706 0.0968919 0.832717
0 0.952724 0.0941665 -1.08521
0 0.952737 0.0936563 -1.15289
0 0.952732 0.117838 3.99673
0 0.952719 0.0946808 0.165532
0 0.952711 0.0967361 -1.19573
0 0.952707 0.0943423 -1.50418
0 0.952707 0.094108 -1.02349
0 0.952687 0.0951151 0.37962
0 0.95271 0.0940287 0.599475
0 0.952705 0.0934194 -0.0938947
0 0.952715 0.0928044 0.00831352
0 0.952712 0.118515 -0.0938298
0 0.952697 0.0945982 -1.47823
0 0.952703 0.0950716 -0.351454
0 0.952714 0.0941399 0.512541
0 0.952735 0.0938163 -1.03155
0 0.952749 0.118841 -2.24914
0 0.952702 0.0968891 -0.898517
0 0.952701 0.0944942 0.258976
0 0.952693 0.0964015 -0.620852
0 0.952712 0.0941317 -0.411418
0 0.952711 0.0942808 0.0404297
0 0.952714 0.0931193 -0.221885
0 0.952725 0.118892 3.53779
0 0.952697 0.0939891 0.862709
0 0.952706 0.0937556 -0.369985
0 0.952723 0.0930317 -0.529522
0 0.952743 0.117398 2.85599
0 0.952702 0.0941337 1.19415
0 0.952699 0.0951939 -1.23232
0 0.9527 0.0954704 -1.11129
0 0.952689 0.0943495 -0.823601
0 0.952716 0.096026 -1.26927
0 0.952697 0.0952742 -1.233
0 0.952693 0.119141 3.46248
0 0.952701 0.0934087 -0.546594
0 0.952699 0.0927623 -0.47051
0 0.952714 0.118982 3.62258
0 0.952701 0.093801 0.771999
0 0.952694 0.0952183 0.479792
0 0.952688 0.0949612 -0.568452
0 0.952678 0.0956569 -0.761974
0 0.952678 0.116086 5.89023
0 0.952704 0.0936448 0.577397
0 0.9527 0.117803 4.53329
0 0.952685 0.0940514 -0.565412
0 0.952658 0.0957791 -0.898085
0 0.952644 0.115556 5.17931
0 0.952696 0.118589 2.43289
0 0.952648 0.116594 8.67738
VECTORS fa_u float
0.00724823 0.00289739 -0
0.00662771 0.00380753 -0
0.00294119 0.000800914 -0
0.00717161 0.00111227 -0
1e-08 0 0
0.00520889 0.00401391 -0
0.00258184 0.00249978 -0
1e-08 0 0
1e-08 0 0
0.00451879 0.00551796 -0
0.00527668 0.00886384 -0
0.00661952 0.000136851 -0
0.0062173 -0.000671664 0
1e-08 0 0
1e-08 0 0
1e-08 0 0
1e-08 0 0
1e-08 0 0
1e-08 0 0
1e-08 0 0
1e-08 0 0
0.00293676 0.00724811 -0
0.00159607 0.0062663 -0
1e-08 0 0
1e-08 0 0
1e-08 0 0
0.00892207 -0.00225434 0
1e-08 0 0
0.0109367 -0.00478747 0
1e-08 0 0
1e-08 0 0
1e-08 0 0
0.000854957 0.00731784 -0
1e-08 0 0
1e-08 0 0
1e-08 0 0
1e-08 0 0
1e-08 0 0
1e-08 0 0
1e-08 0 0
1e-08 0 0
1e-08 0 0
1e-08 0 0
-0.000172483 0.0076501 -0
1e-08 0 0
1e-08 0 0
1e-08 0 0
0.00564546 -0.00358851 0
1e-08 0 0
0.002733 -0.00220414 0
1e-08 0 0
1e-08 0 0
1e-08 0 0
1e-08 0 0
1e-08 0 0
1e-08 0 0
1e-08 0 0
1e-08 0 0
1e-08 0 0
1e-08 0 0
1e-08 0 0
1e-08 0 0
1e-08 0 0
-0.000590251 0.00406948 0
1e-08 0 0
1e-08 0 0
1e-08 0 0
1e-08 0 0
1e-08 0 0
0.0032032 -0.00316933 0
1e-08 0 0
0.00281153 -0.0034486 0
1e-08 0 0
1e-08 0 0
1e-08 0 0
1e-08 0 0
1e-08 0 0
1e-08 0 0
1e-08 0 0
1e-08 0 0
1e-08 0 0
1e-08 0 0
1e-08 0 0
1e-08 0 0
1e-08 0 0
-0.00138666 0.00533618 0
1e-08 0 0
1e-08 0 0
1e-08 0 0
1e-08 0 0
1e-08 0 0
1e-08 0 0
0.00568673 -0.00933657 0
1e-08 0 0
1e-08 0 0
1e-08 0 0
1e-08 0 0
1e-08 0 0
0.0036625 -0.00906763 0
1e-08 0 0
1e-08 0 0
1e-08 0 0
1e-08 0 0
1e-08 0 0
1e-08 0 0
1e-08 0 0
1e-08 0 0
1e-08 0 0
1e-08 0 0
-0.00288002 0.00713477 0
1e-08 0 0
1e-08 0 0
1e-08 0 0
1e-08 0 0
1e-08 0 0
1e-08 0 0
1e-08 0 0
1e-08 0 0
1e-08 0 0
1e-08 0 0
1e-08 0 0
1e-08 0 0
1e-08 0 0
1e-08 0 0
0.00134185 -0.00536048 0
1e-08 0 0
1e-08 0 0
1e-08 0 0
1e-08 0 0
1e-08 0 0
1e-08 0 0
1e-08 0 0
1e-08 0 0
1e-08 0 0
-0.00373905 0.00648084 0
1e-08 0 0
1e-08 0 0
1e-08 0 0
1e-08 0 0
1e-08 0 0
1e-08 0 0
1e-08 0 0
1e-08 0 0
1e-08 0 0
1e-08 0 0
1e-08 0 0
1e-08 0 0
1e-08 0 0
1e-08 0 0
1e-08 0 0
0.000527296 -0.00385132 0
1e-08 0 0
1e-08 0 0
1e-08 0 0
1e-08 0 0
1e-08 0 0
1e-08 0 0
1e-08 0 0
1e-08 0 0
1e-08 0 0
1e-08 0 0
-0.00464536 0.00595908 0
1e-08 0 0
1e-08 0 0
1e-08 0 0
1e-08 0 0
1e-08 0 0
1e-08 0 0
1e-08 0 0
1e-08 0 0
1e-08 0 0
1e-08 0 0
1e-08 0 0
1e-08 0 0
0.000117282 -0.00775461 0
1e-08 0 0
1e-08 0 0
1e-08 0 0
1e-08 0 0
1e-08 0 0
1e-08 0 0
1e-08 0 0
1e-08 0 0
1e-08 0 0
1e-08 0 0
1e-08 0 0
1e-08 0 0
-0.00225435 0.0022928 0
1e-08 0 0
1e-08 0 0
1e-08 0 0
1e-08 0 0
1e-08 0 0
1e-08 0 0
1e-08 0 0
1e-08 0 0
1e-08 0 0
1e-08 0 0
1e-08 0 0
1e-08 0 0
1e-08 0 0
-0.00085952 -0.00697154 0
1e-08 0 0
1e-08 0 0
1e-08 0 0
1e-08 0 0
1e-08 0 0
1e-08 0 0
1e-08 0 0
1e-08 0 0
-0.00484001 0.00395749 0
1e-08 0 0
1e-08 0 0
1e-08 0 0
1e-08 0 0
1e-08 0 0
1e-08 0 0
1e-08 0 0
1e-08 0 0
1e-08 0 0
1e-08 0 0
1e-08 0 0
-0.00159818 -0.00615655 0
1e-08 0 0
1e-08 0 0
1e-08 0 0
1e-08 0 0
1e-08 0 0
1e-08 0 0
1e-08 0 0
-0.0086597 0.005207 0
1e-08 0 0
1e-08 0 0
1e-08 0 0
1e-08 0 0
1e-08 0 0
1e-08 0 0
1e-08 0 0
1e-08 0 0
1e-08 0 0
1e-08 0 0
1e-08 0 0
-0.00302949 -0.00737909 0
1e-08 0 0
1e-08 0 0
1e-08 0 0
1e-08 0 0
1e-08 0 0
-0.00752586 0.00308189 0
1e-08 0 0
1e-08 0 0
1e-08 0 0
1e-08 0 0
1e-08 0 0
1e-08 0 0
1e-08 0 0
1e-08 0 0
-0.00501503 -0.00836599 0
1e-08 0 0
1e-08 0 0
1e-08 0 0
1e-08 0 0
-0.00624046 0.00160629 0
1e-08 0 0
1e-08 0 0
1e-08 0 0
1e-08 0 0
1e-08 0 0
1e-08 0 0
-0.00362511 -0.00448157 0
1e-08 0 0
1e-08 0 0
1e-08 0 0
-0.00718004 0.000861309 0
1e-08 0 0
1e-08 0 0
1e-08 0 0
1e-08 0 0
1e-08 0 0
1e-08 0 0
-0.00266426 -0.00264169 0
1e-08 0 0
1e-08 0 0
-0.00837194 -0.000183205 0
1e-08 0 0
1e-08 0 0
1e-08 0 0
1e-08 0 0
-0.0058673 -0.00458428 0
1e-08 0 0
-0.00362544 -0.000525698 0
1e-08 0 0
1e-08 0 0
-0.00679561 -0.00392052 0
-0.00548494 -0.00141297 0
-0.00709715 -0.00285274 0
