# vtk DataFile Version 2.0
CellBP Time: 0.6
ASCII
DATASET UNSTRUCTURED_GRID
POINTS 296 double
-9.18386 -3.77468 0
-8.60524 -4.94701 0
-9.60367 -2.53635 0
-9.85977 -1.25443 0
-8.35483 -2.81733 0
-7.87917 -6.03444 0
-7.01709 -7.01748 0
-7.91424 -3.87249 0
-7.33931 -4.86659 0
-6.03504 -7.88039 0
-4.94864 -8.60724 0
-9.94507 0.049691 0
-9.8606 1.35462 0
-8.65546 -1.68261 0
-8.78434 -0.529736 0
-7.58722 -2.00274 0
-7.22303 -2.90464 0
-6.63491 -5.77795 0
-5.8202 -6.59613 0
-6.78757 -3.88673 0
-6.2185 -4.67362 0
-3.77598 -9.18622 0
-2.53733 -9.60599 0
-4.90457 -7.30785 0
-3.91273 -7.88496 0
-8.79107 0.643529 0
-9.60547 2.63718 0
-8.621 1.77227 0
-9.18554 3.87567 0
-7.74175 -0.929169 0
-7.79214 0.0802705 0
-6.95027 -1.31527 0
-1.25462 -9.86049 0
-6.43906 -2.15279 0
-6.31697 -3.05534 0
-5.53523 -5.47259 0
-4.79521 -6.11369 0
-5.65746 -3.75502 0
-5.26708 -4.56001 0
-2.86688 -8.3625 0
-1.77924 -8.63843 0
-3.92813 -6.72216 0
-3.05553 -7.15199 0
0.0501642 -9.94561 0
-7.70252 1.14306 0
-8.33782 2.91513 0
-7.54915 2.1111 0
-8.60684 5.04793 0
-7.87895 3.97736 0
-7.87904 6.13423 0
-6.77607 -0.396758 0
-6.95329 0.552123 0
-5.76991 -1.00312 0
-0.591933 -8.80799 0
0.564558 -8.76892 0
-5.3019 -2.47952 0
-4.49028 -5.09367 0
-3.90155 -5.77357 0
-4.43728 -3.80449 0
-2.06136 -7.56078 0
-1.1337 -7.78457 0
-2.994 -6.10169 0
-2.30821 -6.61871 0
1.35437 -9.85981 0
-6.68742 1.42139 0
-7.17036 3.1164 0
-6.65728 2.37217 0
-7.29357 4.98711 0
-6.71689 4.00167 0
-7.01763 7.11742 0
-6.57121 5.89297 0
-6.03488 7.97969 0
-4.45234 -1.18175 0
-5.81306 0.512451 0
-4.6555 -0.0106726 0
0.00960374 -7.84626 0
1.73716 -8.6419 0
0.949535 -7.76141 0
-4.03799 -2.40617 0
-3.48607 -1.39055 0
-3.2937 -4.80481 0
-3.26492 -3.26827 0
-1.37723 -6.67446 0
-0.507648 -7.02336 0
-1.97611 -5.53629 0
2.63694 -9.60493 0
-5.5063 2.03642 0
-6.0938 3.07086 0
-6.10406 4.86804 0
-5.75989 3.99014 0
-5.75963 6.71589 0
-5.45143 5.61788 0
-4.94836 8.70722 0
-4.83729 7.40191 0
-3.501 -0.423672 0
-4.44872 1.24903 0
-3.71075 0.592386 0
-4.06215 2.32006 0
-3.77567 9.28545 0
2.86132 -8.33035 0
0.420137 -6.79369 0
2.02182 -7.52313 0
1.30604 -6.90368 0
-2.44387 -0.87411 0
-2.83835 -2.13181 0
-2.29435 -4.09738 0
-2.32575 -2.97388 0
-0.442165 -5.86059 0
-1.22289 -4.49908 0
3.87482 -9.1842 0
-4.78856 3.39136 0
-5.08628 4.59283 0
-4.64573 6.27923 0
-4.53799 5.3588 0
-3.84304 7.99188 0
-3.82551 6.84387 0
-2.78243 8.42041 0
-1.64851 -0.137999 0
-1.44978 -0.890887 0
-2.4878 0.507906 0
-3.25307 1.44504 0
-3.23818 3.3168 0
-2.91032 2.37292 0
-1.35445 0.627271 0
-2.53703 9.70425 0
3.93073 -7.8846 0
2.96386 -7.15469 0
0.952765 -5.82054 0
2.07244 -6.41328 0
-1.6834 -1.99292 0
-1.43481 -3.27843 0
0.0907485 -4.74675 0
-0.566299 -3.69482 0
4.93042 -7.31589 0
5.04738 -8.60592 0
-3.77585 4.55147 0
-3.73418 5.75087 0
-2.88592 7.28771 0
-3.00918 6.35204 0
-1.66301 8.73197 0
-1.93817 7.61686 0
-2.33777 4.05179 0
-0.729931 -1.32753 0
-0.836646 -0.257688 0
-1.93572 1.68124 0
-2.12499 2.87627 0
-1.30613 3.54528 0
-0.869222 1.35158 0
-0.281974 0.456341 0
-0.534503 8.86975 0
-1.25468 9.95939 0
1.11176 -4.57427 0
3.90862 -6.71434 0
2.98664 -6.09281 0
2.11636 -5.42306 0
4.78247 -6.20329 0
-0.558352 -2.47791 0
0.495537 -3.46415 0
0.0543957 -1.61136 0
1.48138 -3.6819 0
5.86618 -6.61213 0
6.13435 -7.87912 0
-2.4753 5.34779 0
-2.13023 6.53214 0
-0.903274 7.80215 0
-1.27136 6.9308 0
0.0870113 7.87961 0
-1.14393 4.49465 0
0.15106 -0.618488 0
-0.797265 2.48941 0
-0.331529 3.60137 0
0.0630839 1.51367 0
0.741703 0.473446 0
0.646276 8.87246 0
0.0498318 10.0449 0
2.37966 -4.28448 0
3.85801 -5.63881 0
2.99955 -5.21116 0
5.572 -5.4897 0
4.68941 -5.28131 0
0.629357 -2.29418 0
1.25651 -2.95182 0
0.758388 -1.39217 0
2.16344 -3.13559 0
2.99368 -3.47651 0
6.1543 -4.79099 0
6.65442 -5.76736 0
7.11753 -7.0171 0
-1.01954 5.81966 0
-0.371524 6.88277 0
1.12348 7.76894 0
0.559158 7.07822 0
-4.48208e-05 4.72544 0
0.607158 3.82889 0
1.33974 -0.642368 0
0.539356 2.65226 0
0.966079 1.57557 0
1.91086 0.213645 0
1.61565 1.06478 0
2.13014 7.58341 0
1.79878 8.71142 0
1.35462 9.95952 0
3.82183 -4.35009 0
5.11557 -4.44763 0
5.84505 -3.93459 0
3.78262 -3.20019 0
1.81275 -1.88355 0
3.01926 -2.57389 0
6.78303 -3.94768 0
7.38063 -4.89713 0
7.98059 -6.03513 0
0.483522 5.88092 0
1.42892 6.74098 0
2.37397 6.66917 0
1.21008 4.55629 0
1.48833 3.39793 0
2.43545 -0.69208 0
2.82816 0.142292 0
1.78964 2.16377 0
2.6126 1.14964 0
3.072 7.16988 0
2.90463 8.37618 0
2.63725 9.70431 0
4.91091 -3.32754 0
6.12058 -3.10839 0
4.17324 -2.27571 0
3.245 -1.50382 0
6.73105 -2.31263 0
7.23159 -3.04219 0
7.96531 -3.91282 0
8.70714 -4.94829 0
2.02351 5.60013 0
3.08649 6.15312 0
2.36394 4.12699 0
2.42027 3.0618 0
3.52532 -0.461757 0
3.6158 0.613535 0
2.96187 2.28898 0
3.54566 1.52596 0
4.0116 5.89742 0
3.98443 6.79301 0
3.9736 7.93887 0
3.87592 9.28558 0
5.5692 -1.91678 0
4.50963 -1.13023 0
6.71425 -1.33595 0
7.59298 -2.03667 0
8.39794 -2.86264 0
9.28577 -3.77575 0
3.41861 4.87745 0
3.3391 3.38524 0
4.69153 0.129688 0
4.51883 1.30937 0
4.06449 2.44274 0
4.56969 5.15235 0
4.84347 6.19066 0
4.98053 7.38081 0
5.04821 8.7067 0
5.88363 -0.434906 0
7.01041 -0.488168 0
7.75952 -1.08477 0
8.68497 -1.74554 0
9.70525 -2.53711 0
4.55144 3.82808 0
5.81714 1.09776 0
5.37077 2.53467 0
5.3785 4.62086 0
5.61175 5.52333 0
5.89762 6.67268 0
6.13443 7.97945 0
6.84588 0.462722 0
7.8545 -0.0250043 0
8.8607 -0.583822 0
9.96027 -1.2545 0
6.96022 1.34848 0
5.72045 3.77785 0
6.54119 2.19662 0
6.37973 3.08729 0
6.29187 4.68667 0
6.69185 5.83869 0
7.11762 7.11789 0
7.78511 0.967263 0
8.86076 0.572579 0
10.0462 0.0502812 0
7.61664 2.00376 0
6.82846 3.90383 0
7.26946 2.94627 0
7.37834 4.88504 0
7.97944 6.13451 0
8.72347 1.72681 0
9.95925 1.35453 0
8.42072 2.83754 0
7.98126 3.91648 0
8.70611 5.0476 0
9.70367 2.63669 0
9.28377 3.87463 0
CELLS 542 2168
3 2 0 4
3 0 1 7
3 4 0 7
3 1 5 8
3 7 1 8
3 3 2 13
3 13 2 4
3 11 3 14
3 14 3 13
3 13 4 15
3 4 7 16
3 15 4 16
3 5 6 17
3 8 5 17
3 6 9 18
3 17 6 18
3 7 8 19
3 16 7 19
3 8 17 20
3 19 8 20
3 9 10 23
3 18 9 23
3 10 21 24
3 23 10 24
3 12 11 25
3 25 11 14
3 26 12 27
3 27 12 25
3 14 13 29
3 29 13 15
3 25 14 30
3 30 14 29
3 29 15 31
3 15 16 33
3 31 15 33
3 16 19 34
3 33 16 34
3 17 18 35
3 20 17 35
3 18 23 36
3 35 18 36
3 19 20 37
3 34 19 37
3 20 35 38
3 37 20 38
3 21 22 39
3 24 21 39
3 22 32 40
3 39 22 40
3 23 24 41
3 36 23 41
3 24 39 42
3 41 24 42
3 27 25 44
3 44 25 30
3 28 26 45
3 45 26 27
3 45 27 46
3 46 27 44
3 47 28 48
3 48 28 45
3 30 29 50
3 50 29 31
3 44 30 51
3 51 30 50
3 50 31 52
3 31 33 52
3 32 43 53
3 40 32 53
3 53 43 54
3 33 34 55
3 34 37 55
3 33 55 52
3 35 36 56
3 38 35 56
3 36 41 57
3 56 36 57
3 37 38 58
3 38 56 58
3 37 58 55
3 39 40 59
3 42 39 59
3 40 53 60
3 59 40 60
3 41 42 61
3 57 41 61
3 42 59 62
3 61 42 62
3 43 63 54
3 46 44 64
3 64 44 51
3 48 45 65
3 65 45 46
3 65 46 66
3 66 46 64
3 49 47 67
3 67 47 48
3 67 48 68
3 68 48 65
3 69 49 70
3 70 49 67
3 52 55 72
3 64 51 73
3 51 50 73
3 50 52 73
3 73 52 74
3 74 52 72
3 53 54 75
3 60 53 75
3 54 63 76
3 54 76 77
3 75 54 77
3 55 58 78
3 72 55 78
3 72 78 79
3 56 57 80
3 57 61 80
3 56 80 58
3 58 80 81
3 78 58 81
3 59 60 82
3 62 59 82
3 60 75 83
3 82 60 83
3 61 62 84
3 62 82 84
3 61 84 80
3 63 85 76
3 66 64 86
3 64 73 86
3 68 65 87
3 87 65 66
3 87 66 86
3 70 67 88
3 88 67 68
3 88 68 89
3 89 68 87
3 71 69 90
3 90 69 70
3 90 70 91
3 91 70 88
3 92 71 93
3 93 71 90
3 74 72 94
3 94 72 79
3 86 73 95
3 95 73 74
3 95 74 96
3 96 74 94
3 97 86 95
3 76 85 99
3 75 77 100
3 83 75 100
3 76 99 101
3 77 76 101
3 77 101 102
3 100 77 102
3 94 79 103
3 78 81 104
3 79 78 104
3 79 104 103
3 80 84 105
3 81 80 105
3 81 105 106
3 104 81 106
3 82 83 107
3 83 100 107
3 82 107 84
3 84 107 108
3 105 84 108
3 85 109 99
3 89 87 110
3 87 86 110
3 110 86 97
3 91 88 111
3 111 88 89
3 111 89 110
3 93 90 112
3 112 90 91
3 112 91 113
3 113 91 111
3 98 92 114
3 114 92 93
3 114 93 115
3 115 93 112
3 116 98 114
3 117 103 118
3 96 94 119
3 94 103 119
3 119 103 117
3 97 95 120
3 120 95 96
3 120 96 119
3 121 110 97
3 121 97 122
3 122 97 120
3 123 119 117
3 124 98 116
3 99 109 125
3 99 125 126
3 101 99 126
3 100 102 127
3 100 127 107
3 101 126 128
3 102 101 128
3 102 128 127
3 104 106 129
3 104 129 103
3 103 129 118
3 105 108 130
3 106 105 130
3 106 130 129
3 107 127 131
3 108 107 131
3 108 131 132
3 108 132 130
3 109 134 125
3 125 134 133
3 113 111 135
3 111 110 135
3 135 110 121
3 115 112 136
3 136 112 113
3 136 113 135
3 116 114 137
3 137 114 115
3 137 115 138
3 138 115 136
3 139 124 116
3 139 116 140
3 140 116 137
3 141 135 121
3 118 129 142
3 118 142 143
3 117 118 143
3 123 117 143
3 122 120 144
3 120 119 144
3 144 119 123
3 141 121 145
3 145 121 122
3 145 122 144
3 146 141 145
3 147 144 123
3 147 123 148
3 143 148 123
3 150 124 139
3 149 150 139
3 131 127 151
3 125 133 152
3 126 125 152
3 126 152 153
3 128 126 153
3 128 153 154
3 128 154 127
3 127 154 151
3 152 133 155
3 130 132 156
3 130 156 129
3 129 156 142
3 131 151 157
3 132 131 157
3 132 157 156
3 156 158 142
3 157 151 159
3 133 160 155
3 134 161 133
3 133 161 160
3 138 136 162
3 136 135 162
3 162 135 141
3 140 137 163
3 163 137 138
3 163 138 162
3 149 139 164
3 164 139 140
3 164 140 165
3 165 140 163
3 166 149 164
3 167 162 141
3 167 141 146
3 142 158 168
3 143 142 168
3 143 168 148
3 146 145 169
3 145 144 169
3 169 144 147
3 170 167 146
3 170 146 169
3 171 169 147
3 171 147 148
3 171 148 172
3 168 172 148
3 173 149 166
3 174 150 149
3 173 174 149
3 154 175 151
3 151 175 159
3 152 155 176
3 153 152 176
3 153 176 177
3 153 177 154
3 154 177 175
3 155 160 178
3 155 178 179
3 176 155 179
3 156 157 180
3 156 180 158
3 157 159 181
3 157 181 180
3 158 180 182
3 158 182 168
3 159 175 183
3 159 183 181
3 175 184 183
3 160 186 178
3 178 186 185
3 161 187 160
3 160 187 186
3 165 163 188
3 163 162 188
3 188 162 167
3 166 164 189
3 189 164 165
3 189 165 188
3 190 173 166
3 190 166 191
3 191 166 189
3 192 188 167
3 192 167 170
3 193 192 170
3 182 194 168
3 194 172 168
3 193 170 195
3 170 169 195
3 195 169 171
3 196 195 171
3 196 171 172
3 194 197 172
3 197 198 172
3 198 196 172
3 200 173 190
3 199 200 190
3 201 174 173
3 200 201 173
3 176 179 202
3 177 176 202
3 177 202 175
3 175 202 184
3 178 185 203
3 178 203 179
3 179 203 202
3 203 185 204
3 202 205 184
3 183 206 181
3 180 181 206
3 180 206 182
3 182 206 194
3 183 184 207
3 205 207 184
3 183 207 206
3 185 208 204
3 186 209 185
3 185 209 208
3 187 210 186
3 186 210 209
3 191 189 211
3 189 188 211
3 211 188 192
3 199 190 212
3 212 190 191
3 212 191 211
3 213 199 212
3 214 211 192
3 214 192 193
3 215 214 193
3 215 193 195
3 206 216 194
3 216 197 194
3 216 217 197
3 215 195 218
3 218 195 196
3 198 218 196
3 217 219 197
3 219 218 198
3 197 219 198
3 220 199 213
3 221 200 199
3 220 221 199
3 222 201 200
3 221 222 200
3 203 204 223
3 203 223 202
3 202 223 205
3 204 208 224
3 204 224 223
3 205 223 225
3 205 225 207
3 207 225 226
3 207 226 206
3 226 216 206
3 208 228 224
3 224 228 227
3 209 229 208
3 229 228 208
3 210 230 209
3 209 230 229
3 213 212 231
3 212 211 231
3 231 211 214
3 232 220 213
3 232 213 231
3 233 231 214
3 233 214 215
3 234 233 215
3 234 215 218
3 226 235 216
3 235 217 216
3 235 236 217
3 217 236 219
3 237 234 218
3 237 218 219
3 236 238 219
3 238 237 219
3 240 220 232
3 239 240 232
3 241 221 220
3 240 241 220
3 242 222 221
3 241 242 221
3 224 227 243
3 224 243 223
3 223 243 225
3 225 243 244
3 225 244 226
3 226 244 235
3 227 245 243
3 228 246 227
3 227 246 245
3 229 247 228
3 228 247 246
3 230 248 229
3 229 248 247
3 239 232 249
3 232 231 249
3 249 231 233
3 250 249 233
3 250 233 234
3 237 250 234
3 244 251 235
3 235 251 236
3 251 252 236
3 236 252 238
3 252 253 238
3 253 250 237
3 253 237 238
3 254 239 249
3 255 240 239
3 254 255 239
3 256 241 240
3 255 256 240
3 257 242 241
3 256 257 241
3 245 258 243
3 243 258 244
3 244 258 251
3 245 259 258
3 246 260 245
3 245 260 259
3 247 261 246
3 246 261 260
3 248 262 247
3 247 262 261
3 254 249 263
3 263 249 250
3 253 263 250
3 258 264 251
3 251 264 252
3 264 265 252
3 265 263 253
3 252 265 253
3 266 254 263
3 267 255 254
3 266 267 254
3 268 256 255
3 267 268 255
3 269 257 256
3 268 269 256
3 259 270 258
3 270 264 258
3 260 271 259
3 259 271 270
3 261 272 260
3 260 272 271
3 262 273 261
3 273 272 261
3 270 274 264
3 275 266 263
3 275 263 265
3 274 276 264
3 276 265 264
3 276 277 265
3 277 275 265
3 278 267 266
3 275 278 266
3 279 268 267
3 278 279 267
3 280 269 268
3 279 280 268
3 271 281 270
3 270 281 274
3 272 282 271
3 271 282 281
3 273 283 272
3 272 283 282
3 281 284 274
3 274 284 276
3 285 278 275
3 277 285 275
3 284 286 276
3 286 285 277
3 276 286 277
3 287 279 278
3 285 287 278
3 288 280 279
3 287 288 279
3 282 289 281
3 281 289 284
3 283 290 282
3 282 290 289
3 289 291 284
3 284 291 286
3 291 292 286
3 292 287 285
3 286 292 285
3 293 288 287
3 292 293 287
3 290 294 289
3 289 294 291
3 294 295 291
3 295 293 292
3 291 295 292
CELL_TYPES 542
5
5
5
5
5
5
5
5
5
5
5
5
5
5
5
5
5
5
5
5
5
5
5
5
5
5
5
5
5
5
5
5
5
5
5
5
5
5
5
5
5
5
5
5
5
5
5
5
5
5
5
5
5
5
5
5
5
5
5
5
5
5
5
5
5
5
5
5
5
5
5
5
5
5
5
5
5
5
5
5
5
5
5
5
5
5
5
5
5
5
5
5
5
5
5
5
5
5
5
5
5
5
5
5
5
5
5
5
5
5
5
5
5
5
5
5
5
5
5
5
5
5
5
5
5
5
5
5
5
5
5
5
5
5
5
5
5
5
5
5
5
5
5
5
5
5
5
5
5
5
5
5
5
5
5
5
5
5
5
5
5
5
5
5
5
5
5
5
5
5
5
5
5
5
5
5
5
5
5
5
5
5
5
5
5
5
5
5
5
5
5
5
5
5
5
5
5
5
5
5
5
5
5
5
5
5
5
5
5
5
5
5
5
5
5
5
5
5
5
5
5
5
5
5
5
5
5
5
5
5
5
5
5
5
5
5
5
5
5
5
5
5
5
5
5
5
5
5
5
5
5
5
5
5
5
5
5
5
5
5
5
5
5
5
5
5
5
5
5
5
5
5
5
5
5
5
5
5
5
5
5
5
5
5
5
5
5
5
5
5
5
5
5
5
5
5
5
5
5
5
5
5
5
5
5
5
5
5
5
5
5
5
5
5
5
5
5
5
5
5
5
5
5
5
5
5
5
5
5
5
5
5
5
5
5
5
5
5
5
5
5
5
5
5
5
5
5
5
5
5
5
5
5
5
5
5
5
5
5
5
5
5
5
5
5
5
5
5
5
5
5
5
5
5
5
5
5
5
5
5
5
5
5
5
5
5
5
5
5
5
5
5
5
5
5
5
5
5
5
5
5
5
5
5
5
5
5
5
5
5
5
5
5
5
5
5
5
5
5
5
5
5
5
5
5
5
5
5
5
5
5
5
5
5
5
5
5
5
5
5
5
5
5
5
5
5
5
5
5
5
5
5
5
5
5
5
5
5
5
5
5
5
5
5
5
5
5
5
5
5
5
5
5
5
5
5
5
5
5
5
5
5
5
5
5
5
5
5
5
5
5
5
5
5
5
5
5
5
5
5
5
5
5
5
5
5
5
5
5
5
5
5
5
5
5
5
5
5
5
5
5
5
5
5
5
5
5
5
5
5
5
5
5
5
5
5
5
5
5
5
5
5
POINT_DATA 296
SCALARS concentrations float 4
LOOKUP_TABLE default
0 0.999113 0.129564 8.80344
0 0.999057 0.127606 6.16463
0 0.999124 0.128685 1.23186
0 0.99911 0.125591 3.01529
0 0.999114 0.0943186 0.848129
0 0.999027 0.124465 3.62666
0 0.999055 0.129167 6.98462
0 0.999091 0.0944287 1.0263
0 0.999062 0.0940254 1.08931
0 0.999121 0.127595 2.95049
0 0.999117 0.127291 3.82781
0 0.999116 0.129719 6.53635
0 0.999082 0.127256 7.61741
0 0.999109 0.0937448 0.295284
0 0.999118 0.0939487 0.387963
0 0.999095 0.0946109 0.130533
0 0.999085 0.0945989 1.04194
0 0.999061 0.0933575 1.02211
0 0.999095 0.0937255 1.03709
0 0.999084 0.0945473 1.18583
0 0.999087 0.0942156 0.760744
0 0.999097 0.128739 7.67276
0 0.999096 0.128323 3.25814
0 0.999119 0.0933715 -0.404269
0 0.999095 0.0933163 -0.443558
0 0.999097 0.0943062 -0.235384
0 0.999125 0.128242 5.67148
0 0.999092 0.0950658 0.373101
0 0.999169 0.126187 0.56402
0 0.999103 0.0946856 1.21546
0 0.9991 0.0954559 -0.759035
0 0.999079 0.0947179 0.0250647
0 0.999168 0.127229 3.95046
0 0.999075 0.0940926 1.07939
0 0.999071 0.094811 0.905821
0 0.999092 0.0929961 -0.151661
0 0.999097 0.0927631 -0.358599
0 0.999081 0.093861 0.64316
0 0.999086 0.0951078 1.1997
0 0.999081 0.0936255 0.292204
0 0.999113 0.0926773 0.253076
0 0.999086 0.0936259 0.122566
0 0.999073 0.0934339 -0.273696
0 0.999195 0.125795 2.86581
0 0.999088 0.0945288 -0.840263
0 0.999125 0.0948558 1.20355
0 0.999078 0.0949175 -0.415906
0 0.999134 0.125991 5.44898
0 0.999127 0.0935605 0.694038
0 0.999142 0.125697 4.75862
0 0.999077 0.0948371 -0.972395
0 0.999082 0.0944818 -0.344193
0 0.999075 0.0945993 -0.420507
0 0.999155 0.0939919 0.736227
0 0.999146 0.0927592 0.420551
0 0.999077 0.0933422 0.224252
0 0.999083 0.0963814 -0.504687
0 0.999077 0.0967004 -0.238767
0 0.999081 0.0932536 0.688702
0 0.999083 0.0997073 0.850732
0 0.999096 0.0947576 0.0469532
0 0.999068 0.0948117 0.929558
0 0.999077 0.0959154 1.37121
0 0.99914 0.127461 2.60252
0 0.999078 0.0940406 1.26171
0 0.999079 0.0957519 2.10897
0 0.999076 0.0943634 1.28014
0 0.999104 0.0931259 0.648203
0 0.999077 0.0949014 1.06612
0 0.999165 0.126242 1.33198
0 0.99913 0.0936129 0.181052
0 0.999137 0.128955 6.13553
0 0.999077 0.0946229 -1.00238
0 0.999074 0.0951066 0.509887
0 0.999078 0.0933612 0.22361
0 0.999095 0.0928685 -0.109879
0 0.999105 0.0933038 0.539675
0 0.999095 0.0925135 0.112802
0 0.99908 0.0946924 -0.822038
0 0.999089 0.0948631 1.14665
0 0.999073 0.0982256 -0.562449
0 0.999078 0.0946434 -0.830858
0 0.999085 0.0993227 -0.499435
0 0.999074 0.0933879 -0.0107485
0 0.999077 0.0943233 0.706159
0 0.999096 0.128053 3.92531
0 0.999081 0.0949561 -1.1812
0 0.999077 0.0959396 0.96796
0 0.999077 0.0941263 0.975453
0 0.999071 0.0952611 -0.170893
0 0.999123 0.0937851 -0.0382004
0 0.999087 0.093921 0.500344
0 0.999129 0.128286 6.80283
0 0.999115 0.0949397 1.0491
0 0.999085 0.0940995 -1.13618
0 0.999075 0.0936669 0.980243
0 0.999081 0.0936782 -0.234078
0 0.999078 0.0950207 1.14558
0 0.99907 0.127153 5.63605
0 0.999098 0.0943057 0.55455
0 0.999073 0.0938634 0.101783
0 0.999095 0.0932169 0.243989
0 0.999079 0.0949897 0.0902178
0 0.999104 0.0944617 -0.998389
0 0.999095 0.0992898 -0.311507
0 0.999079 0.0950245 -0.96323
0 0.999087 0.0941782 -0.509127
0 0.999078 0.0937241 0.0626966
0 0.999083 0.0936141 0.872732
0 0.999116 0.125009 5.50401
0 0.999077 0.0952706 -0.0559919
0 0.999073 0.0944209 -0.288704
0 0.999085 0.096325 0.180068
0 0.999077 0.0950091 -0.499511
0 0.999101 0.0946896 -0.3984
0 0.999085 0.0971558 -0.140187
0 0.999064 0.0942338 0.180108
0 0.999111 0.0940112 -0.312286
0 0.999115 0.0940678 -0.166868
0 0.999089 0.0969398 -1.86769
0 0.999079 0.0949898 0.488088
0 0.999079 0.0941508 -0.484623
0 0.999086 0.0946175 -0.128612
0 0.999104 0.0945047 0.254363
0 0.999043 0.126006 8.08776
0 0.999107 0.0945682 -0.202555
0 0.999088 0.0949934 0.518545
0 0.999078 0.0944835 0.199939
0 0.999089 0.0945886 -0.29283
0 0.999105 0.0944602 0.959047
0 0.999091 0.0953116 0.581186
0 0.999085 0.0942286 -0.925363
0 0.999093 0.0932158 1.00623
0 0.99909 0.101589 -0.618634
0 0.99913 0.126143 5.95969
0 0.999075 0.0950257 -0.266475
0 0.99907 0.0940654 -0.760465
0 0.999085 0.0986248 1.18402
0 0.99907 0.0946375 -0.750245
0 0.999061 0.0930978 -0.00704643
0 0.999079 0.0951157 -0.640881
0 0.999079 0.0946739 -0.167395
0 0.999123 0.0946374 0.525858
0 0.999116 0.0937509 0.515569
0 0.999098 0.0998697 -1.6911
0 0.999093 0.0948105 -1.53415
0 0.999086 0.0950092 -0.449865
0 0.99911 0.101419 -1.24641
0 0.999115 0.093642 1.02831
0 0.999067 0.0934336 0.41064
0 0.999059 0.126862 6.15508
0 0.999084 0.0955659 0.12184
0 0.999083 0.0944986 0.230921
0 0.999095 0.0957923 0.666652
0 0.999087 0.0945203 0.0615086
0 0.999075 0.0944002 -0.166305
0 0.999106 0.0944462 -0.853889
0 0.999097 0.0953567 -1.19655
0 0.999111 0.10172 1.15938
0 0.999096 0.0945577 0.0873689
0 0.999076 0.0968806 -0.57529
0 0.999086 0.12527 9.81227
0 0.999077 0.0951254 0.359111
0 0.999079 0.0950017 -0.265515
0 0.99908 0.094106 0.266762
0 0.999084 0.0950556 0.527777
0 0.999071 0.0939033 0.394862
0 0.999086 0.0943213 -0.553257
0 0.999117 0.0945291 -1.3137
0 0.99911 0.0996115 -1.32234
0 0.999095 0.0964779 -0.733805
0 0.99911 0.0947787 1.43361
0 0.999119 0.0938054 1.07452
0 0.999042 0.0932768 -0.615653
0 0.99905 0.125657 5.83005
0 0.999089 0.0946434 0.616718
0 0.999093 0.0945841 0.648012
0 0.999091 0.0931042 0.404827
0 0.999099 0.0940929 -0.108856
0 0.999092 0.0933171 -0.254025
0 0.9991 0.0941054 0.980136
0 0.999105 0.0943406 -1.14328
0 0.999101 0.0948135 -1.10955
0 0.999105 0.0928769 0.787845
0 0.999093 0.0926331 -0.71835
0 0.999107 0.0937683 -0.209905
0 0.999109 0.0937238 0.0237411
0 0.999087 0.127711 4.10394
0 0.999087 0.094282 0.228514
0 0.99908 0.0949314 0.120402
0 0.999054 0.0958866 -0.218559
0 0.999056 0.0952741 -0.588048
0 0.999086 0.0948473 -0.588882
0 0.999083 0.093594 0.726442
0 0.999111 0.0984961 -0.425835
0 0.999103 0.094169 0.0723531
0 0.999108 0.0949962 1.73902
0 0.999107 0.101096 -1.6214
0 0.99912 0.0931108 -0.5418
0 0.999064 0.0947779 0.352569
0 0.999043 0.093211 -0.531463
0 0.99902 0.126354 10.6043
0 0.999091 0.0943292 -0.172889
0 0.999099 0.094597 -0.713008
0 0.999101 0.0928835 -0.269757
0 0.99909 0.0933226 0.552135
0 0.999105 0.0952664 -1.57366
0 0.999098 0.0947153 -0.0844664
0 0.999099 0.0927157 -0.336612
0 0.999075 0.0925115 -0.0441565
0 0.999095 0.126348 5.11703
0 0.999077 0.09553 0.10559
0 0.999058 0.0986074 -0.893261
0 0.999076 0.100708 -0.945984
0 0.999088 0.0951929 0.100849
0 0.999085 0.094116 0.0479229
0 0.999098 0.0932197 1.37087
0 0.999096 0.0966712 -0.246533
0 0.999098 0.0937401 0.452825
0 0.999107 0.0950588 -0.75227
0 0.999075 0.1008 -2.93692
0 0.999052 0.0931471 -0.0214797
0 0.999046 0.127407 7.58072
0 0.999091 0.0925114 -0.308752
0 0.999099 0.0936329 -0.712295
0 0.999089 0.0928702 -0.746318
0 0.999097 0.0932085 -1.03199
0 0.999112 0.093494 0.393573
0 0.999095 0.0929553 0.260972
0 0.999037 0.0937077 0.0412018
0 0.999007 0.125902 7.95578
0 0.999086 0.0997845 0.993621
0 0.999095 0.0974653 0.681833
0 0.999092 0.0967835 0.168986
0 0.999085 0.0944493 0.981244
0 0.999096 0.0943314 -0.344808
0 0.999097 0.0947928 1.54775
0 0.999093 0.0941285 1.58937
0 0.999096 0.0946513 0.904124
0 0.999093 0.0932437 -0.4326
0 0.999091 0.0934832 0.0218168
0 0.99906 0.0942987 -0.552991
0 0.999048 0.128569 6.70852
0 0.999095 0.0945972 -0.247086
0 0.999093 0.0929965 -0.793069
0 0.999109 0.0959622 1.71749
0 0.9991 0.0936774 -0.354767
0 0.999043 0.0934814 -0.107801
0 0.999005 0.126074 6.39173
0 0.999085 0.0941022 0.172448
0 0.999079 0.0946243 -1.37087
0 0.999091 0.0943232 -0.636752
0 0.999073 0.0931269 -0.701619
0 0.999069 0.09535 -0.919694
0 0.999087 0.0969358 -0.985327
0 0.999095 0.093853 -0.533423
0 0.999077 0.0938543 -0.779696
0 0.999059 0.127998 6.71315
0 0.999099 0.0942285 0.601803
0 0.999105 0.094449 0.397878
0 0.99909 0.0939999 0.117681
0 0.999037 0.0938204 -0.193615
0 0.999007 0.127017 10.2809
0 0.99907 0.0930876 0.490333
0 0.999088 0.0945413 -0.733865
0 0.999075 0.0987166 0.274018
0 0.999093 0.0952615 1.46598
0 0.999107 0.0947774 -0.72152
0 0.999099 0.0941762 0.711277
0 0.999078 0.125748 7.79285
0 0.999099 0.094215 -0.838256
0 0.999089 0.094104 0.553008
0 0.99903 0.0938423 -0.531988
0 0.998995 0.125311 8.65688
0 0.999094 0.092886 -1.05858
0 0.999091 0.0946177 -1.58833
0 0.999099 0.0944283 -1.49611
0 0.999102 0.0946485 -1.42242
0 0.999108 0.094837 -1.27031
0 0.99911 0.0940088 1.1775
0 0.999104 0.126169 3.15343
0 0.999091 0.0933241 -0.954777
0 0.999049 0.0938279 0.812286
0 0.999 0.126479 7.05611
0 0.999099 0.0943946 -1.4079
0 0.999105 0.0952451 0.426873
0 0.999096 0.0977955 -0.538116
0 0.999102 0.0961053 -1.41861
0 0.999102 0.126194 3.23955
0 0.999073 0.0928192 0.73199
0 0.999039 0.127243 9.7791
0 0.999058 0.0940558 0.861106
0 0.99906 0.0949027 0.711019
0 0.999064 0.125267 6.96517
0 0.99905 0.126445 6.26724
0 0.99901 0.126568 7.1295
VECTORS fa_u float
0.00610042 0.00252662 -0
0.0055966 0.00323124 -0
0.00618863 0.00165974 -0
0.00657096 0.000867492 -0
1e-08 0 0
0.00520595 0.00399321 -0
0.00455278 0.00454828 -0
1e-08 0 0
1e-08 0 0
0.00400196 0.00520698 -0
0.00327401 0.00566401 -0
0.00643755 2.03389e-06 -0
0.00655243 -0.000859991 0
1e-08 0 0
1e-08 0 0
1e-08 0 0
1e-08 0 0
1e-08 0 0
1e-08 0 0
1e-08 0 0
1e-08 0 0
0.00253465 0.00611945 -0
0.00168624 0.0063055 -0
1e-08 0 0
1e-08 0 0
1e-08 0 0
0.00627197 -0.00167942 0
1e-08 0 0
0.00610269 -0.00252799 0
1e-08 0 0
1e-08 0 0
1e-08 0 0
0.0008472 0.00645476 -0
1e-08 0 0
1e-08 0 0
1e-08 0 0
1e-08 0 0
1e-08 0 0
1e-08 0 0
1e-08 0 0
1e-08 0 0
1e-08 0 0
1e-08 0 0
-1.69499e-06 0.00652376 -0
1e-08 0 0
1e-08 0 0
1e-08 0 0
0.00572285 -0.00331047 0
1e-08 0 0
0.00504483 -0.00387405 0
1e-08 0 0
1e-08 0 0
1e-08 0 0
1e-08 0 0
1e-08 0 0
1e-08 0 0
1e-08 0 0
1e-08 0 0
1e-08 0 0
1e-08 0 0
1e-08 0 0
1e-08 0 0
1e-08 0 0
-0.000847126 0.00643234 0
1e-08 0 0
1e-08 0 0
1e-08 0 0
1e-08 0 0
1e-08 0 0
0.00463507 -0.00463181 0
1e-08 0 0
0.00393354 -0.00511987 0
1e-08 0 0
1e-08 0 0
1e-08 0 0
1e-08 0 0
1e-08 0 0
1e-08 0 0
1e-08 0 0
1e-08 0 0
1e-08 0 0
1e-08 0 0
1e-08 0 0
1e-08 0 0
1e-08 0 0
-0.00170504 0.00636089 0
1e-08 0 0
1e-08 0 0
1e-08 0 0
1e-08 0 0
1e-08 0 0
1e-08 0 0
0.00331831 -0.00574129 0
1e-08 0 0
1e-08 0 0
1e-08 0 0
1e-08 0 0
1e-08 0 0
0.00253889 -0.00614033 0
1e-08 0 0
1e-08 0 0
1e-08 0 0
1e-08 0 0
1e-08 0 0
1e-08 0 0
1e-08 0 0
1e-08 0 0
1e-08 0 0
1e-08 0 0
-0.0024864 0.00599921 0
1e-08 0 0
1e-08 0 0
1e-08 0 0
1e-08 0 0
1e-08 0 0
1e-08 0 0
1e-08 0 0
1e-08 0 0
1e-08 0 0
1e-08 0 0
1e-08 0 0
1e-08 0 0
1e-08 0 0
1e-08 0 0
0.00165413 -0.00618757 0
1e-08 0 0
1e-08 0 0
1e-08 0 0
1e-08 0 0
1e-08 0 0
1e-08 0 0
1e-08 0 0
1e-08 0 0
1e-08 0 0
-0.00328031 0.00567931 0
1e-08 0 0
1e-08 0 0
1e-08 0 0
1e-08 0 0
1e-08 0 0
1e-08 0 0
1e-08 0 0
1e-08 0 0
1e-08 0 0
1e-08 0 0
1e-08 0 0
1e-08 0 0
1e-08 0 0
1e-08 0 0
1e-08 0 0
0.000852889 -0.00647624 0
1e-08 0 0
1e-08 0 0
1e-08 0 0
1e-08 0 0
1e-08 0 0
1e-08 0 0
1e-08 0 0
1e-08 0 0
1e-08 0 0
1e-08 0 0
-0.00394866 0.00514489 0
1e-08 0 0
1e-08 0 0
1e-08 0 0
1e-08 0 0
1e-08 0 0
1e-08 0 0
1e-08 0 0
1e-08 0 0
1e-08 0 0
1e-08 0 0
1e-08 0 0
1e-08 0 0
3.21213e-07 -0.00652321 0
1e-08 0 0
1e-08 0 0
1e-08 0 0
1e-08 0 0
1e-08 0 0
1e-08 0 0
1e-08 0 0
1e-08 0 0
1e-08 0 0
1e-08 0 0
1e-08 0 0
1e-08 0 0
-0.00454554 0.00455108 0
1e-08 0 0
1e-08 0 0
1e-08 0 0
1e-08 0 0
1e-08 0 0
1e-08 0 0
1e-08 0 0
1e-08 0 0
1e-08 0 0
1e-08 0 0
1e-08 0 0
1e-08 0 0
1e-08 0 0
-0.00085395 -0.00648682 0
1e-08 0 0
1e-08 0 0
1e-08 0 0
1e-08 0 0
1e-08 0 0
1e-08 0 0
1e-08 0 0
1e-08 0 0
-0.00524707 0.0040317 0
1e-08 0 0
1e-08 0 0
1e-08 0 0
1e-08 0 0
1e-08 0 0
1e-08 0 0
1e-08 0 0
1e-08 0 0
1e-08 0 0
1e-08 0 0
1e-08 0 0
-0.00165213 -0.00618083 0
1e-08 0 0
1e-08 0 0
1e-08 0 0
1e-08 0 0
1e-08 0 0
1e-08 0 0
1e-08 0 0
-0.00564914 0.00326336 0
1e-08 0 0
1e-08 0 0
1e-08 0 0
1e-08 0 0
1e-08 0 0
1e-08 0 0
1e-08 0 0
1e-08 0 0
1e-08 0 0
1e-08 0 0
1e-08 0 0
-0.00256498 -0.00619884 0
1e-08 0 0
1e-08 0 0
1e-08 0 0
1e-08 0 0
1e-08 0 0
-0.00612327 0.00253472 0
1e-08 0 0
1e-08 0 0
1e-08 0 0
1e-08 0 0
1e-08 0 0
1e-08 0 0
1e-08 0 0
1e-08 0 0
-0.00328861 -0.00568656 0
1e-08 0 0
1e-08 0 0
1e-08 0 0
1e-08 0 0
-0.00624481 0.00167066 0
1e-08 0 0
1e-08 0 0
1e-08 0 0
1e-08 0 0
1e-08 0 0
1e-08 0 0
-0.00389807 -0.00507722 0
1e-08 0 0
1e-08 0 0
1e-08 0 0
-0.00643815 0.00084827 0
1e-08 0 0
1e-08 0 0
1e-08 0 0
1e-08 0 0
1e-08 0 0
1e-08 0 0
-0.00466762 -0.00466779 0
1e-08 0 0
1e-08 0 0
-0.00666531 -2.61663e-06 0
1e-08 0 0
1e-08 0 0
1e-08 0 0
1e-08 0 0
-0.00513247 -0.00393805 0
1e-08 0 0
-0.00640698 -0.000848378 0
1e-08 0 0
1e-08 0 0
-0.00572514 -0.00330436 0
-0.00624662 -0.00167432 0
-0.0060052 -0.00248476 0
