# vtk DataFile Version 2.0
CellBP Time: 4.64
ASCII
DATASET UNSTRUCTURED_GRID
POINTS 296 double
-9.01882 -3.69785 0
-8.45437 -4.85604 0
-9.41818 -2.47091 0
-9.6885 -1.22585 0
-8.17561 -2.74261 0
-7.73537 -5.92872 0
-6.88299 -6.89847 0
-7.73586 -3.77579 0
-7.17063 -4.75557 0
-5.94045 -7.76452 0
-4.89397 -8.49528 0
-9.78961 0.0411987 0
-9.72521 1.32642 0
-8.49041 -1.63904 0
-8.63746 -0.51282 0
-7.41719 -1.94141 0
-7.0479 -2.81924 0
-6.50168 -5.66971 0
-5.71953 -6.49088 0
-6.6187 -3.78566 0
-6.07357 -4.57039 0
-3.737 -9.06433 0
-2.50482 -9.46973 0
-4.83263 -7.2082 0
-3.86983 -7.78907 0
-8.65254 0.631456 0
-9.49434 2.60584 0
-8.49729 1.74295 0
-9.08142 3.82937 0
-7.5867 -0.897483 0
-7.64752 0.0867861 0
-6.80104 -1.27156 0
-1.22927 -9.71267 0
-6.30193 -2.0934 0
-6.17523 -2.9772 0
-5.42014 -5.37331 0
-4.70667 -6.01828 0
-5.53115 -3.67282 0
-5.14708 -4.46813 0
-2.83391 -8.25668 0
-1.75651 -8.5197 0
-3.8684 -6.6285 0
-3.02697 -7.06089 0
0.0537108 -9.78002 0
-7.56958 1.12368 0
-8.23419 2.87754 0
-7.42788 2.06767 0
-8.47848 4.9662 0
-7.76159 3.90821 0
-7.72921 6.01782 0
-6.64293 -0.376992 0
-6.82128 0.549366 0
-5.66747 -0.981342 0
-0.58372 -8.67365 0
0.550552 -8.61701 0
-5.20243 -2.42606 0
-4.39346 -5.00115 0
-3.82919 -5.6829 0
-4.35378 -3.7394 0
-2.03611 -7.45827 0
-1.12155 -7.67465 0
-2.94949 -6.01287 0
-2.28339 -6.53099 0
1.32455 -9.67257 0
-6.57045 1.39401 0
-7.04538 3.05375 0
-6.54383 2.32712 0
-7.16737 4.89341 0
-6.60121 3.92244 0
-6.88135 6.97633 0
-6.45144 5.78187 0
-5.92557 7.83532 0
-4.39707 -1.1706 0
-5.72041 0.497357 0
-4.59995 -0.0234145 0
0.000722555 -7.7117 0
1.69596 -8.47091 0
0.917352 -7.61389 0
-3.98492 -2.37094 0
-3.46513 -1.38257 0
-3.2411 -4.73314 0
-3.23176 -3.2249 0
-1.37 -6.57425 0
-0.517551 -6.90601 0
-1.95748 -5.464 0
2.58436 -9.42336 0
-5.42018 2.00519 0
-5.98796 3.01041 0
-5.99751 4.77042 0
-5.65757 3.90498 0
-5.65108 6.58446 0
-5.35061 5.50369 0
-4.8783 8.57934 0
-4.74363 7.25309 0
-3.47232 -0.420629 0
-4.39032 1.23442 0
-3.6703 0.586811 0
-4.00586 2.30053 0
-3.72928 9.15111 0
2.78749 -8.14376 0
0.386704 -6.66205 0
1.9588 -7.35857 0
1.25483 -6.75759 0
-2.43069 -0.865527 0
-2.81924 -2.11353 0
-2.27309 -4.04679 0
-2.30569 -2.94103 0
-0.448977 -5.76442 0
-1.20762 -4.44504 0
3.80439 -9.02184 0
-4.70758 3.33216 0
-4.99765 4.49914 0
-4.55907 6.14667 0
-4.45535 5.24833 0
-3.77948 7.85192 0
-3.74754 6.69488 0
-2.73168 8.2636 0
-1.64091 -0.129 0
-1.44094 -0.881328 0
-2.47637 0.515205 0
-3.21848 1.43761 0
-3.19475 3.27674 0
-2.87924 2.36298 0
-1.35174 0.636128 0
-2.50235 9.54677 0
3.83477 -7.70738 0
2.87466 -6.97637 0
0.915317 -5.7088 0
2.0071 -6.26714 0
-1.66846 -1.9801 0
-1.42044 -3.24584 0
0.0840789 -4.67936 0
-0.558216 -3.65611 0
4.82052 -7.14972 0
4.95713 -8.45759 0
-3.71334 4.47218 0
-3.66476 5.63645 0
-2.82533 7.13614 0
-2.95183 6.22592 0
-1.63494 8.58256 0
-1.89786 7.47665 0
-2.31119 3.99934 0
-0.723568 -1.3204 0
-0.832177 -0.249453 0
-1.93219 1.68881 0
-2.10926 2.86301 0
-1.29909 3.51923 0
-0.871815 1.35907 0
-0.28434 0.462712 0
-0.52682 8.73135 0
-1.23467 9.78929 0
1.08221 -4.49424 0
3.80008 -6.53245 0
2.90488 -5.94217 0
2.0585 -5.30419 0
4.67431 -6.04478 0
-0.55146 -2.46246 0
0.492123 -3.42801 0
0.0575232 -1.60557 0
1.45603 -3.62189 0
5.75044 -6.46624 0
6.02739 -7.7385 0
-2.43352 5.25505 0
-2.08357 6.40954 0
-0.879308 7.67382 0
-1.23531 6.80574 0
0.0935218 7.76388 0
-1.13222 4.44089 0
0.148526 -0.613343 0
-0.805391 2.49384 0
-0.341565 3.58229 0
0.0558773 1.5156 0
0.736335 0.474153 0
0.63333 8.74913 0
0.0447433 9.89124 0
2.32834 -4.19721 0
3.76516 -5.49401 0
2.92922 -5.08814 0
5.46832 -5.36479 0
4.59036 -5.14349 0
0.630324 -2.28616 0
1.24198 -2.91964 0
0.757289 -1.38956 0
2.13012 -3.087 0
2.94354 -3.41219 0
6.05537 -4.69429 0
6.54393 -5.65747 0
6.99156 -6.87932 0
-0.997869 5.72853 0
-0.353601 6.77069 0
1.1111 7.66658 0
0.562384 6.97539 0
-0.00229209 4.67648 0
0.59654 3.79912 0
1.33368 -0.643294 0
0.527787 2.64414 0
0.953809 1.57606 0
1.89898 0.21029 0
1.60399 1.06054 0
2.10689 7.48785 0
1.77865 8.59892 0
1.33405 9.81619 0
3.75078 -4.25299 0
5.02356 -4.33771 0
5.75619 -3.85105 0
3.72652 -3.13821 0
1.80121 -1.87822 0
2.98279 -2.54152 0
6.68968 -3.87941 0
7.27535 -4.81859 0
7.85642 -5.93171 0
0.482957 5.80144 0
1.41619 6.65245 0
2.34975 6.58736 0
1.19465 4.51006 0
1.47284 3.36805 0
2.41711 -0.690587 0
2.80627 0.14148 0
1.77351 2.15369 0
2.59688 1.14358 0
3.04111 7.08232 0
2.8746 8.27108 0
2.60702 9.56849 0
4.83643 -3.25531 0
6.03654 -3.0506 0
4.12099 -2.24507 0
3.21332 -1.49282 0
6.64829 -2.28497 0
7.14473 -3.00183 0
7.86835 -3.86475 0
8.59016 -4.88615 0
2.00538 5.53517 0
3.0356 6.06973 0
2.34261 4.08223 0
2.40171 3.03282 0
3.49263 -0.454926 0
3.58471 0.613405 0
2.93638 2.26806 0
3.50654 1.51208 0
3.93617 5.81022 0
3.92567 6.70053 0
3.93049 7.84239 0
3.83671 9.1605 0
5.50376 -1.88997 0
4.46154 -1.11576 0
6.62785 -1.31922 0
7.49921 -2.01097 0
8.29027 -2.82722 0
9.16255 -3.73273 0
3.35559 4.80562 0
3.29041 3.34011 0
4.63899 0.133582 0
4.45333 1.2896 0
3.99701 2.40323 0
4.46874 5.06225 0
4.75402 6.09655 0
4.90828 7.27199 0
4.98977 8.58778 0
5.80128 -0.43609 0
6.90693 -0.486076 0
7.65814 -1.06405 0
8.56971 -1.72038 0
9.56958 -2.50147 0
4.45856 3.75918 0
5.71574 1.06564 0
5.25886 2.4801 0
5.25127 4.52841 0
5.49219 5.42551 0
5.79603 6.56307 0
6.03534 7.85633 0
6.72587 0.440281 0
7.73437 -0.0262945 0
8.73451 -0.568497 0
9.81519 -1.22682 0
6.8245 1.30597 0
5.5854 3.6968 0
6.4 2.13405 0
6.2283 3.0104 0
6.1432 4.58733 0
6.55447 5.72966 0
6.98783 6.99738 0
7.65011 0.941173 0
8.71473 0.564634 0
9.88652 0.0596587 0
7.46245 1.95207 0
6.65284 3.80334 0
7.10146 2.86802 0
7.2228 4.78592 0
7.84669 6.03399 0
8.55942 1.69314 0
9.77662 1.33016 0
8.24059 2.77318 0
7.81552 3.83353 0
8.56627 4.96512 0
9.52924 2.59118 0
9.1293 3.81181 0
CELLS 542 2168
3 2 0 4
3 0 1 7
3 4 0 7
3 1 5 8
3 7 1 8
3 3 2 13
3 13 2 4
3 11 3 14
3 14 3 13
3 13 4 15
3 4 7 16
3 15 4 16
3 5 6 17
3 8 5 17
3 6 9 18
3 17 6 18
3 7 8 19
3 16 7 19
3 8 17 20
3 19 8 20
3 9 10 23
3 18 9 23
3 10 21 24
3 23 10 24
3 12 11 25
3 25 11 14
3 26 12 27
3 27 12 25
3 14 13 29
3 29 13 15
3 25 14 30
3 30 14 29
3 29 15 31
3 15 16 33
3 31 15 33
3 16 19 34
3 33 16 34
3 17 18 35
3 20 17 35
3 18 23 36
3 35 18 36
3 19 20 37
3 34 19 37
3 20 35 38
3 37 20 38
3 21 22 39
3 24 21 39
3 22 32 40
3 39 22 40
3 23 24 41
3 36 23 41
3 24 39 42
3 41 24 42
3 27 25 44
3 44 25 30
3 28 26 45
3 45 26 27
3 45 27 46
3 46 27 44
3 47 28 48
3 48 28 45
3 30 29 50
3 50 29 31
3 44 30 51
3 51 30 50
3 50 31 52
3 31 33 52
3 32 43 53
3 40 32 53
3 53 43 54
3 33 34 55
3 34 37 55
3 33 55 52
3 35 36 56
3 38 35 56
3 36 41 57
3 56 36 57
3 37 38 58
3 38 56 58
3 37 58 55
3 39 40 59
3 42 39 59
3 40 53 60
3 59 40 60
3 41 42 61
3 57 41 61
3 42 59 62
3 61 42 62
3 43 63 54
3 46 44 64
3 64 44 51
3 48 45 65
3 65 45 46
3 65 46 66
3 66 46 64
3 49 47 67
3 67 47 48
3 67 48 68
3 68 48 65
3 69 49 70
3 70 49 67
3 52 55 72
3 64 51 73
3 51 50 73
3 50 52 73
3 73 52 74
3 74 52 72
3 53 54 75
3 60 53 75
3 54 63 76
3 54 76 77
3 75 54 77
3 55 58 78
3 72 55 78
3 72 78 79
3 56 57 80
3 57 61 80
3 56 80 58
3 58 80 81
3 78 58 81
3 59 60 82
3 62 59 82
3 60 75 83
3 82 60 83
3 61 62 84
3 62 82 84
3 61 84 80
3 63 85 76
3 66 64 86
3 64 73 86
3 68 65 87
3 87 65 66
3 87 66 86
3 70 67 88
3 88 67 68
3 88 68 89
3 89 68 87
3 71 69 90
3 90 69 70
3 90 70 91
3 91 70 88
3 92 71 93
3 93 71 90
3 74 72 94
3 94 72 79
3 86 73 95
3 95 73 74
3 95 74 96
3 96 74 94
3 97 86 95
3 76 85 99
3 75 77 100
3 83 75 100
3 76 99 101
3 77 76 101
3 77 101 102
3 100 77 102
3 94 79 103
3 78 81 104
3 79 78 104
3 79 104 103
3 80 84 105
3 81 80 105
3 81 105 106
3 104 81 106
3 82 83 107
3 83 100 107
3 82 107 84
3 84 107 108
3 105 84 108
3 85 109 99
3 89 87 110
3 87 86 110
3 110 86 97
3 91 88 111
3 111 88 89
3 111 89 110
3 93 90 112
3 112 90 91
3 112 91 113
3 113 91 111
3 98 92 114
3 114 92 93
3 114 93 115
3 115 93 112
3 116 98 114
3 117 103 118
3 96 94 119
3 94 103 119
3 119 103 117
3 97 95 120
3 120 95 96
3 120 96 119
3 121 110 97
3 121 97 122
3 122 97 120
3 123 119 117
3 124 98 116
3 99 109 125
3 99 125 126
3 101 99 126
3 100 102 127
3 100 127 107
3 101 126 128
3 102 101 128
3 102 128 127
3 104 106 129
3 104 129 103
3 103 129 118
3 105 108 130
3 106 105 130
3 106 130 129
3 107 127 131
3 108 107 131
3 108 131 132
3 108 132 130
3 109 134 125
3 125 134 133
3 113 111 135
3 111 110 135
3 135 110 121
3 115 112 136
3 136 112 113
3 136 113 135
3 116 114 137
3 137 114 115
3 137 115 138
3 138 115 136
3 139 124 116
3 139 116 140
3 140 116 137
3 141 135 121
3 118 129 142
3 118 142 143
3 117 118 143
3 123 117 143
3 122 120 144
3 120 119 144
3 144 119 123
3 141 121 145
3 145 121 122
3 145 122 144
3 146 141 145
3 147 144 123
3 147 123 148
3 143 148 123
3 150 124 139
3 149 150 139
3 131 127 151
3 125 133 152
3 126 125 152
3 126 152 153
3 128 126 153
3 128 153 154
3 128 154 127
3 127 154 151
3 152 133 155
3 130 132 156
3 130 156 129
3 129 156 142
3 131 151 157
3 132 131 157
3 132 157 156
3 156 158 142
3 157 151 159
3 133 160 155
3 134 161 133
3 133 161 160
3 138 136 162
3 136 135 162
3 162 135 141
3 140 137 163
3 163 137 138
3 163 138 162
3 149 139 164
3 164 139 140
3 164 140 165
3 165 140 163
3 166 149 164
3 167 162 141
3 167 141 146
3 142 158 168
3 143 142 168
3 143 168 148
3 146 145 169
3 145 144 169
3 169 144 147
3 170 167 146
3 170 146 169
3 171 169 147
3 171 147 148
3 171 148 172
3 168 172 148
3 173 149 166
3 174 150 149
3 173 174 149
3 154 175 151
3 151 175 159
3 152 155 176
3 153 152 176
3 153 176 177
3 153 177 154
3 154 177 175
3 155 160 178
3 155 178 179
3 176 155 179
3 156 157 180
3 156 180 158
3 157 159 181
3 157 181 180
3 158 180 182
3 158 182 168
3 159 175 183
3 159 183 181
3 175 184 183
3 160 186 178
3 178 186 185
3 161 187 160
3 160 187 186
3 165 163 188
3 163 162 188
3 188 162 167
3 166 164 189
3 189 164 165
3 189 165 188
3 190 173 166
3 190 166 191
3 191 166 189
3 192 188 167
3 192 167 170
3 193 192 170
3 182 194 168
3 194 172 168
3 193 170 195
3 170 169 195
3 195 169 171
3 196 195 171
3 196 171 172
3 194 197 172
3 197 198 172
3 198 196 172
3 200 173 190
3 199 200 190
3 201 174 173
3 200 201 173
3 176 179 202
3 177 176 202
3 177 202 175
3 175 202 184
3 178 185 203
3 178 203 179
3 179 203 202
3 203 185 204
3 202 205 184
3 183 206 181
3 180 181 206
3 180 206 182
3 182 206 194
3 183 184 207
3 205 207 184
3 183 207 206
3 185 208 204
3 186 209 185
3 185 209 208
3 187 210 186
3 186 210 209
3 191 189 211
3 189 188 211
3 211 188 192
3 199 190 212
3 212 190 191
3 212 191 211
3 213 199 212
3 214 211 192
3 214 192 193
3 215 214 193
3 215 193 195
3 206 216 194
3 216 197 194
3 216 217 197
3 215 195 218
3 218 195 196
3 198 218 196
3 217 219 197
3 219 218 198
3 197 219 198
3 220 199 213
3 221 200 199
3 220 221 199
3 222 201 200
3 221 222 200
3 203 204 223
3 203 223 202
3 202 223 205
3 204 208 224
3 204 224 223
3 205 223 225
3 205 225 207
3 207 225 226
3 207 226 206
3 226 216 206
3 208 228 224
3 224 228 227
3 209 229 208
3 229 228 208
3 210 230 209
3 209 230 229
3 213 212 231
3 212 211 231
3 231 211 214
3 232 220 213
3 232 213 231
3 233 231 214
3 233 214 215
3 234 233 215
3 234 215 218
3 226 235 216
3 235 217 216
3 235 236 217
3 217 236 219
3 237 234 218
3 237 218 219
3 236 238 219
3 238 237 219
3 240 220 232
3 239 240 232
3 241 221 220
3 240 241 220
3 242 222 221
3 241 242 221
3 224 227 243
3 224 243 223
3 223 243 225
3 225 243 244
3 225 244 226
3 226 244 235
3 227 245 243
3 228 246 227
3 227 246 245
3 229 247 228
3 228 247 246
3 230 248 229
3 229 248 247
3 239 232 249
3 232 231 249
3 249 231 233
3 250 249 233
3 250 233 234
3 237 250 234
3 244 251 235
3 235 251 236
3 251 252 236
3 236 252 238
3 252 253 238
3 253 250 237
3 253 237 238
3 254 239 249
3 255 240 239
3 254 255 239
3 256 241 240
3 255 256 240
3 257 242 241
3 256 257 241
3 245 258 243
3 243 258 244
3 244 258 251
3 245 259 258
3 246 260 245
3 245 260 259
3 247 261 246
3 246 261 260
3 248 262 247
3 247 262 261
3 254 249 263
3 263 249 250
3 253 263 250
3 258 264 251
3 251 264 252
3 264 265 252
3 265 263 253
3 252 265 253
3 266 254 263
3 267 255 254
3 266 267 254
3 268 256 255
3 267 268 255
3 269 257 256
3 268 269 256
3 259 270 258
3 270 264 258
3 260 271 259
3 259 271 270
3 261 272 260
3 260 272 271
3 262 273 261
3 273 272 261
3 270 274 264
3 275 266 263
3 275 263 265
3 274 276 264
3 276 265 264
3 276 277 265
3 277 275 265
3 278 267 266
3 275 278 266
3 279 268 267
3 278 279 267
3 280 269 268
3 279 280 268
3 271 281 270
3 270 281 274
3 272 282 271
3 271 282 281
3 273 283 272
3 272 283 282
3 281 284 274
3 274 284 276
3 285 278 275
3 277 285 275
3 284 286 276
3 286 285 277
3 276 286 277
3 287 279 278
3 285 287 278
3 288 280 279
3 287 288 279
3 282 289 281
3 281 289 284
3 283 290 282
3 282 290 289
3 289 291 284
3 284 291 286
3 291 292 286
3 292 287 285
3 286 292 285
3 293 288 287
3 292 293 287
3 290 294 289
3 289 294 291
3 294 295 291
3 295 293 292
3 291 295 292
CELL_TYPES 542
5
5
5
5
5
5
5
5
5
5
5
5
5
5
5
5
5
5
5
5
5
5
5
5
5
5
5
5
5
5
5
5
5
5
5
5
5
5
5
5
5
5
5
5
5
5
5
5
5
5
5
5
5
5
5
5
5
5
5
5
5
5
5
5
5
5
5
5
5
5
5
5
5
5
5
5
5
5
5
5
5
5
5
5
5
5
5
5
5
5
5
5
5
5
5
5
5
5
5
5
5
5
5
5
5
5
5
5
5
5
5
5
5
5
5
5
5
5
5
5
5
5
5
5
5
5
5
5
5
5
5
5
5
5
5
5
5
5
5
5
5
5
5
5
5
5
5
5
5
5
5
5
5
5
5
5
5
5
5
5
5
5
5
5
5
5
5
5
5
5
5
5
5
5
5
5
5
5
5
5
5
5
5
5
5
5
5
5
5
5
5
5
5
5
5
5
5
5
5
5
5
5
5
5
5
5
5
5
5
5
5
5
5
5
5
5
5
5
5
5
5
5
5
5
5
5
5
5
5
5
5
5
5
5
5
5
5
5
5
5
5
5
5
5
5
5
5
5
5
5
5
5
5
5
5
5
5
5
5
5
5
5
5
5
5
5
5
5
5
5
5
5
5
5
5
5
5
5
5
5
5
5
5
5
5
5
5
5
5
5
5
5
5
5
5
5
5
5
5
5
5
5
5
5
5
5
5
5
5
5
5
5
5
5
5
5
5
5
5
5
5
5
5
5
5
5
5
5
5
5
5
5
5
5
5
5
5
5
5
5
5
5
5
5
5
5
5
5
5
5
5
5
5
5
5
5
5
5
5
5
5
5
5
5
5
5
5
5
5
5
5
5
5
5
5
5
5
5
5
5
5
5
5
5
5
5
5
5
5
5
5
5
5
5
5
5
5
5
5
5
5
5
5
5
5
5
5
5
5
5
5
5
5
5
5
5
5
5
5
5
5
5
5
5
5
5
5
5
5
5
5
5
5
5
5
5
5
5
5
5
5
5
5
5
5
5
5
5
5
5
5
5
5
5
5
5
5
5
5
5
5
5
5
5
5
5
5
5
5
5
5
5
5
5
5
5
5
5
5
5
5
5
5
5
5
5
5
5
5
5
5
5
5
5
5
5
5
5
5
5
5
5
5
5
5
5
5
5
5
5
5
5
5
5
5
5
5
5
5
5
5
5
5
5
5
5
5
5
5
5
5
5
5
5
5
5
5
5
5
5
5
5
POINT_DATA 296
SCALARS concentrations float 4
LOOKUP_TABLE default
0 0.967305 0.158295 12.9889
0 0.967311 0.155418 13.7572
0 0.967353 0.158397 12.8797
0 0.967418 0.155925 12.7383
0 0.967336 0.0954315 0.798002
0 0.967405 0.159337 10.7672
0 0.967462 0.158914 9.58469
0 0.967316 0.0956104 -0.25586
0 0.967367 0.102261 -3.57257
0 0.967525 0.159827 9.2112
0 0.967514 0.158829 6.53331
0 0.967402 0.155739 6.43683
0 0.967426 0.156857 6.29633
0 0.967388 0.0939801 1.09045
0 0.967414 0.093663 0.662122
0 0.967382 0.0965257 -0.353584
0 0.967364 0.0973509 -0.856904
0 0.967423 0.0943933 -0.866469
0 0.967453 0.094304 0.972094
0 0.967368 0.0968503 0.722267
0 0.967397 0.0950192 0.843498
0 0.967443 0.158392 7.76571
0 0.967448 0.156305 12.7758
0 0.967471 0.0945332 -0.332902
0 0.96743 0.0954053 -0.866853
0 0.967421 0.0945789 1.57949
0 0.967472 0.15603 5.66146
0 0.967457 0.0946508 0.0739468
0 0.967477 0.155969 4.47516
0 0.967403 0.093983 1.10946
0 0.967421 0.0948599 1.43904
0 0.967407 0.0951827 0.990182
0 0.967385 0.155737 7.19378
0 0.967405 0.0968095 0.962554
0 0.967397 0.0956757 -0.47822
0 0.967402 0.0947326 0.669475
0 0.9674 0.0952483 0.442608
0 0.967395 0.0956069 -0.630078
0 0.967398 0.0953631 0.818691
0 0.967418 0.095109 -0.577518
0 0.967406 0.0943399 0.34715
0 0.96739 0.0947601 -0.42912
0 0.967386 0.0953376 0.410401
0 0.967382 0.156189 10.5095
0 0.967437 0.0951907 0.223307
0 0.967464 0.0972958 0.277966
0 0.96744 0.0971652 -0.487541
0 0.967526 0.154675 9.36986
0 0.967471 0.0950383 0.825161
0 0.967465 0.157523 7.21918
0 0.967413 0.0947993 1.30143
0 0.96741 0.0945844 1.2363
0 0.967411 0.0959067 -1.13989
0 0.967368 0.0951881 -1.07372
0 0.967405 0.095429 -1.13848
0 0.967403 0.100681 -0.363476
0 0.967397 0.0956558 0.703773
0 0.9674 0.0951816 0.612961
0 0.967395 0.0946947 -0.0946851
0 0.967384 0.0944707 -0.184697
0 0.967383 0.0948775 -0.452634
0 0.967396 0.0961057 1.15283
0 0.967373 0.0975535 2.61402
0 0.967451 0.153306 10.5732
0 0.967419 0.0985717 0.377173
0 0.967412 0.103638 0.758805
0 0.967413 0.0968661 2.24909
0 0.96747 0.0939593 0.152837
0 0.967397 0.093987 0.456255
0 0.967437 0.158068 8.35728
0 0.967431 0.0934669 -0.456726
0 0.96744 0.155373 0.969777
0 0.967408 0.0949648 0.547479
0 0.967414 0.101285 -1.32581
0 0.967412 0.0962915 0.619573
0 0.967381 0.0963585 -0.947593
0 0.967421 0.0966121 -1.08812
0 0.967394 0.0969483 -1.31112
0 0.967409 0.0951315 0.104594
0 0.967419 0.102018 -2.12317
0 0.967407 0.0955894 -0.959239
0 0.967413 0.0943496 0.481289
0 0.967391 0.0969485 -2.48243
0 0.967401 0.0968139 -0.719208
0 0.967401 0.0956035 1.58756
0 0.967462 0.157148 16.6521
0 0.967413 0.0959239 -0.245718
0 0.967389 0.0985537 -1.01738
0 0.967409 0.0945659 1.20107
0 0.967386 0.0952255 1.85845
0 0.967439 0.0938893 -0.126492
0 0.967423 0.0941608 0.587246
0 0.967407 0.156023 10.5439
0 0.967428 0.0946172 -0.124128
0 0.967424 0.095144 0.39912
0 0.967416 0.0946638 1.86553
0 0.96743 0.094976 1.70649
0 0.967412 0.0944011 1.32129
0 0.96741 0.156819 10.7438
0 0.967436 0.0967645 -1.85139
0 0.967368 0.0975378 -2.01046
0 0.967375 0.0990597 -3.43301
0 0.967389 0.0987466 -2.28742
0 0.967421 0.0954145 -0.231997
0 0.96742 0.0959834 2.7701
0 0.967421 0.0949657 0.316206
0 0.967429 0.0943741 0.318083
0 0.967398 0.0970437 1.11859
0 0.967417 0.0962271 2.50464
0 0.967509 0.152423 10.4924
0 0.967402 0.0949746 -0.445042
0 0.967405 0.0954416 1.25859
0 0.967426 0.0959153 1.93578
0 0.96741 0.0949868 1.05767
0 0.967427 0.0996527 0.844656
0 0.967437 0.0971092 -0.785747
0 0.96744 0.0948849 0.665274
0 0.967427 0.0944223 -0.64366
0 0.96743 0.0943003 0.445401
0 0.967432 0.0960234 1.06284
0 0.967419 0.0956736 0.308559
0 0.967424 0.0948802 0.640395
0 0.967435 0.104639 4.19842
0 0.967443 0.094761 -0.0814887
0 0.967436 0.153526 4.64467
0 0.96745 0.103332 -2.20883
0 0.967373 0.0985262 -1.38441
0 0.967405 0.0974942 1.03917
0 0.967384 0.0973813 1.20106
0 0.967432 0.0956148 -0.371417
0 0.96743 0.0943318 0.432724
0 0.96742 0.0963875 2.20631
0 0.967401 0.0966954 2.68233
0 0.967403 0.101252 -2.03218
0 0.967446 0.157601 4.84148
0 0.967406 0.0978532 -0.245814
0 0.967415 0.0968626 -0.408291
0 0.96745 0.0959207 -1.51778
0 0.967429 0.101656 -1.55346
0 0.967483 0.094238 1.1423
0 0.967463 0.0946842 0.953883
0 0.967415 0.0948575 -1.16326
0 0.96745 0.0939482 0.735795
0 0.967449 0.0940507 0.634034
0 0.967444 0.0954723 -1.25238
0 0.967445 0.0982787 1.20153
0 0.967411 0.0935963 0.346132
0 0.967458 0.0964405 1.20342
0 0.967452 0.0940974 0.914485
0 0.96749 0.0936611 0.0897559
0 0.967497 0.154356 3.09792
0 0.967466 0.0961496 -0.571314
0 0.9674 0.103108 3.31456
0 0.967383 0.0961676 0.722077
0 0.967439 0.0972469 2.85383
0 0.967417 0.0989631 -0.613226
0 0.967423 0.0947003 0.267177
0 0.967423 0.0997088 3.28486
0 0.967459 0.0949696 0.0209152
0 0.967456 0.095971 -0.046122
0 0.967411 0.0964221 -1.2966
0 0.967418 0.151865 11.0386
0 0.967412 0.0968853 0.737135
0 0.96743 0.0997184 -2.31323
0 0.967479 0.0940862 0.428395
0 0.967443 0.0992167 0.720599
0 0.967458 0.0950467 -0.84142
0 0.967408 0.095552 -1.05399
0 0.967457 0.0945623 0.850589
0 0.967426 0.102996 1.55782
0 0.967397 0.0947099 0.25765
0 0.96743 0.0958137 0.977737
0 0.967448 0.093674 -0.243947
0 0.967407 0.0952756 -0.669285
0 0.967436 0.158773 7.88413
0 0.967443 0.0978968 -3.17661
0 0.967407 0.0959281 -0.323419
0 0.967422 0.099374 1.43567
0 0.967429 0.102354 -0.00746901
0 0.96744 0.100685 -3.21806
0 0.967424 0.0962326 0.178433
0 0.96742 0.0981868 2.51712
0 0.967444 0.0953783 -0.599757
0 0.967408 0.0961514 -0.306553
0 0.967398 0.0953586 0.653487
0 0.967428 0.0956832 0.606981
0 0.967465 0.0959012 0.541565
0 0.96747 0.154651 7.27834
0 0.967423 0.0950369 0.0114269
0 0.967436 0.0949038 0.583686
0 0.967429 0.0957437 0.444861
0 0.967421 0.0958548 -1.16184
0 0.967412 0.0954872 -0.577962
0 0.967413 0.0953153 -0.833027
0 0.967435 0.095102 -0.687098
0 0.967412 0.0937866 0.296368
0 0.967432 0.0945826 -1.24291
0 0.967454 0.0944358 -0.341965
0 0.967457 0.095094 -0.0938686
0 0.967435 0.0942737 0.637564
0 0.967378 0.0942892 0.192311
0 0.967334 0.153998 9.81051
0 0.967405 0.0970594 2.0469
0 0.967421 0.0980508 -1.89779
0 0.967402 0.0953215 -0.590169
0 0.967396 0.09531 1.13606
0 0.967405 0.0973828 3.40263
0 0.967389 0.0963195 1.24533
0 0.96741 0.0949594 -0.784063
0 0.967482 0.094666 0.353704
0 0.967545 0.155394 8.81326
0 0.967418 0.095602 -0.0960911
0 0.967438 0.0988216 -0.178321
0 0.967458 0.0977907 -2.49421
0 0.967411 0.0948817 -0.619959
0 0.967423 0.0954195 1.11977
0 0.967424 0.10323 -2.06196
0 0.967444 0.0939913 -0.288518
0 0.967433 0.0948998 0.184836
0 0.967435 0.10068 3.27206
0 0.967446 0.0967334 1.05281
0 0.967422 0.0944599 0.405778
0 0.967378 0.15744 14.6946
0 0.9674 0.0948464 0.0668508
0 0.967408 0.095385 -0.730552
0 0.967402 0.0954494 1.17507
0 0.967402 0.0947683 -0.421284
0 0.967422 0.0943529 0.216031
0 0.967404 0.0940437 -0.270641
0 0.967421 0.0935521 0.164942
0 0.967485 0.154369 12.2274
0 0.967421 0.0997521 0.331497
0 0.967445 0.0953698 0.691104
0 0.967402 0.095129 -0.18233
0 0.967419 0.0953487 0.413634
0 0.96742 0.0938267 -0.263006
0 0.967417 0.0946219 0.324281
0 0.967412 0.0958148 -0.0627009
0 0.967401 0.095248 -0.597763
0 0.967437 0.0953672 -0.269
0 0.967451 0.0943542 0.00518799
0 0.967432 0.0945073 0.436362
0 0.967422 0.155276 4.86666
0 0.967406 0.101263 -1.01145
0 0.967401 0.0947871 -0.0102475
0 0.967416 0.0951376 0.209039
0 0.967401 0.0957988 -0.135337
0 0.967365 0.0934414 -0.0375391
0 0.967391 0.158755 5.48621
0 0.967409 0.0937662 0.147438
0 0.9674 0.0953505 -0.650701
0 0.967408 0.093934 0.343525
0 0.967401 0.0949932 -0.272788
0 0.967397 0.0939515 -0.69427
0 0.967426 0.094466 0.238982
0 0.967432 0.0941698 0.183414
0 0.967397 0.0941538 -0.46351
0 0.967395 0.158365 9.73636
0 0.96741 0.0955612 -0.0575468
0 0.967431 0.0938683 -0.167253
0 0.967411 0.0941274 -0.194894
0 0.967348 0.0939743 -0.0391069
0 0.967322 0.152305 17.1279
0 0.967405 0.0954091 0.537895
0 0.967418 0.093949 0.362047
0 0.967403 0.0961943 0.207102
0 0.967428 0.0948868 0.238745
0 0.967436 0.0936922 0.381347
0 0.96741 0.0937985 -0.0971948
0 0.967361 0.155399 13.5345
0 0.967439 0.0940585 0.0487399
0 0.96744 0.0936206 0.234496
0 0.967392 0.0938155 -0.154308
0 0.967341 0.158299 11.1034
0 0.967455 0.0946187 0.0530613
0 0.96741 0.0947713 0.283894
0 0.967438 0.0954735 -1.06364
0 0.967418 0.0943684 0.34253
0 0.96743 0.0949477 0.172767
0 0.967424 0.0948804 -0.127899
0 0.967421 0.155113 4.97411
0 0.967462 0.0942868 0.328864
0 0.967425 0.0936897 -0.257374
0 0.967393 0.156402 9.73633
0 0.967473 0.0942595 -0.027126
0 0.967443 0.101415 -3.52364
0 0.967466 0.0950757 0.514098
0 0.967388 0.0955174 -0.792698
0 0.96737 0.154836 15.1328
0 0.967414 0.0936105 -0.0397748
0 0.967382 0.152174 3.97022
0 0.967424 0.0946255 0.0520773
0 0.967423 0.0940807 0.41163
0 0.967348 0.150503 11.7606
0 0.967363 0.152491 11.4648
0 0.967391 0.152538 4.94016
VECTORS fa_u float
0.00689813 0.00278747 -0
0.00628463 0.00361562 -0
0.00382293 0.00103566 -0
0.00697002 0.00103056 -0
1e-08 0 0
0.0052137 0.00401128 -0
0.00315178 0.00308159 -0
1e-08 0 0
1e-08 0 0
0.00435172 0.00542057 -0
0.00458183 0.00776716 -0
0.00655265 9.4246e-05 -0
0.00631494 -0.000727034 0
1e-08 0 0
1e-08 0 0
1e-08 0 0
1e-08 0 0
1e-08 0 0
1e-08 0 0
1e-08 0 0
1e-08 0 0
0.00281993 0.00691388 -0
0.00161527 0.00624778 -0
1e-08 0 0
1e-08 0 0
1e-08 0 0
0.00803581 -0.00206692 0
1e-08 0 0
0.00931649 -0.00400968 0
1e-08 0 0
1e-08 0 0
1e-08 0 0
0.000855625 0.00705511 -0
1e-08 0 0
1e-08 0 0
1e-08 0 0
1e-08 0 0
1e-08 0 0
1e-08 0 0
1e-08 0 0
1e-08 0 0
1e-08 0 0
1e-08 0 0
-0.000114302 0.00728034 -0
1e-08 0 0
1e-08 0 0
1e-08 0 0
0.00567888 -0.00350888 0
1e-08 0 0
0.00335975 -0.00266946 0
1e-08 0 0
1e-08 0 0
1e-08 0 0
1e-08 0 0
1e-08 0 0
1e-08 0 0
1e-08 0 0
1e-08 0 0
1e-08 0 0
1e-08 0 0
1e-08 0 0
1e-08 0 0
1e-08 0 0
-0.000669414 0.00474977 0
1e-08 0 0
1e-08 0 0
1e-08 0 0
1e-08 0 0
1e-08 0 0
0.00361597 -0.00358839 0
1e-08 0 0
0.00317497 -0.00396731 0
1e-08 0 0
1e-08 0 0
1e-08 0 0
1e-08 0 0
1e-08 0 0
1e-08 0 0
1e-08 0 0
1e-08 0 0
1e-08 0 0
1e-08 0 0
1e-08 0 0
1e-08 0 0
1e-08 0 0
-0.00148163 0.00564631 0
1e-08 0 0
1e-08 0 0
1e-08 0 0
1e-08 0 0
1e-08 0 0
1e-08 0 0
0.00484248 -0.00808301 0
1e-08 0 0
1e-08 0 0
1e-08 0 0
1e-08 0 0
1e-08 0 0
0.00327354 -0.00803958 0
1e-08 0 0
1e-08 0 0
1e-08 0 0
1e-08 0 0
1e-08 0 0
1e-08 0 0
1e-08 0 0
1e-08 0 0
1e-08 0 0
1e-08 0 0
-0.00275525 0.00676931 0
1e-08 0 0
1e-08 0 0
1e-08 0 0
1e-08 0 0
1e-08 0 0
1e-08 0 0
1e-08 0 0
1e-08 0 0
1e-08 0 0
1e-08 0 0
1e-08 0 0
1e-08 0 0
1e-08 0 0
1e-08 0 0
0.00144715 -0.00565678 0
1e-08 0 0
1e-08 0 0
1e-08 0 0
1e-08 0 0
1e-08 0 0
1e-08 0 0
1e-08 0 0
1e-08 0 0
1e-08 0 0
-0.00360187 0.00623912 0
1e-08 0 0
1e-08 0 0
1e-08 0 0
1e-08 0 0
1e-08 0 0
1e-08 0 0
1e-08 0 0
1e-08 0 0
1e-08 0 0
1e-08 0 0
1e-08 0 0
1e-08 0 0
1e-08 0 0
1e-08 0 0
1e-08 0 0
0.000622832 -0.00460538 0
1e-08 0 0
1e-08 0 0
1e-08 0 0
1e-08 0 0
1e-08 0 0
1e-08 0 0
1e-08 0 0
1e-08 0 0
1e-08 0 0
1e-08 0 0
-0.00439349 0.00566329 0
1e-08 0 0
1e-08 0 0
1e-08 0 0
1e-08 0 0
1e-08 0 0
1e-08 0 0
1e-08 0 0
1e-08 0 0
1e-08 0 0
1e-08 0 0
1e-08 0 0
1e-08 0 0
7.67505e-05 -0.00733013 0
1e-08 0 0
1e-08 0 0
1e-08 0 0
1e-08 0 0
1e-08 0 0
1e-08 0 0
1e-08 0 0
1e-08 0 0
1e-08 0 0
1e-08 0 0
1e-08 0 0
1e-08 0 0
-0.00289724 0.00293291 0
1e-08 0 0
1e-08 0 0
1e-08 0 0
1e-08 0 0
1e-08 0 0
1e-08 0 0
1e-08 0 0
1e-08 0 0
1e-08 0 0
1e-08 0 0
1e-08 0 0
1e-08 0 0
1e-08 0 0
-0.000864189 -0.00686074 0
1e-08 0 0
1e-08 0 0
1e-08 0 0
1e-08 0 0
1e-08 0 0
1e-08 0 0
1e-08 0 0
1e-08 0 0
-0.00496512 0.00398223 0
1e-08 0 0
1e-08 0 0
1e-08 0 0
1e-08 0 0
1e-08 0 0
1e-08 0 0
1e-08 0 0
1e-08 0 0
1e-08 0 0
1e-08 0 0
1e-08 0 0
-0.00160062 -0.00610934 0
1e-08 0 0
1e-08 0 0
1e-08 0 0
1e-08 0 0
1e-08 0 0
1e-08 0 0
1e-08 0 0
-0.00763286 0.00453367 0
1e-08 0 0
1e-08 0 0
1e-08 0 0
1e-08 0 0
1e-08 0 0
1e-08 0 0
1e-08 0 0
1e-08 0 0
1e-08 0 0
1e-08 0 0
1e-08 0 0
-0.00290281 -0.00705269 0
1e-08 0 0
1e-08 0 0
1e-08 0 0
1e-08 0 0
1e-08 0 0
-0.00712399 0.00292591 0
1e-08 0 0
1e-08 0 0
1e-08 0 0
1e-08 0 0
1e-08 0 0
1e-08 0 0
1e-08 0 0
1e-08 0 0
-0.00442336 -0.0074571 0
1e-08 0 0
1e-08 0 0
1e-08 0 0
1e-08 0 0
-0.00617663 0.00160864 0
1e-08 0 0
1e-08 0 0
1e-08 0 0
1e-08 0 0
1e-08 0 0
1e-08 0 0
-0.00369318 -0.00463983 0
1e-08 0 0
1e-08 0 0
1e-08 0 0
-0.00696213 0.000861568 0
1e-08 0 0
1e-08 0 0
1e-08 0 0
1e-08 0 0
1e-08 0 0
1e-08 0 0
-0.00325967 -0.00324002 0
1e-08 0 0
1e-08 0 0
-0.00779648 -0.000117602 0
1e-08 0 0
1e-08 0 0
1e-08 0 0
1e-08 0 0
-0.00560698 -0.00435492 0
1e-08 0 0
-0.00445203 -0.000628326 0
1e-08 0 0
1e-08 0 0
-0.00642265 -0.00370704 0
-0.00567223 -0.00147957 0
-0.00679689 -0.00275711 0
