# vtk DataFile Version 2.0
CellBP Time: 11.72
ASCII
DATASET UNSTRUCTURED_GRID
POINTS 296 double
-8.91709 -3.65052 0
-8.36114 -4.79993 0
-9.30501 -2.43101 0
-9.58369 -1.20717 0
-8.07428 -2.70229 0
-7.64601 -5.86257 0
-6.79952 -6.82443 0
-7.6371 -3.72035 0
-7.07767 -4.6935 0
-5.8795 -7.69146 0
-4.85683 -8.42405 0
-9.69387 0.0380211 0
-9.63984 1.31065 0
-8.39567 -1.61658 0
-8.55368 -0.502403 0
-7.32487 -1.90862 0
-6.95146 -2.77084 0
-6.42494 -5.60735 0
-5.65943 -6.42575 0
-6.52423 -3.73075 0
-5.99172 -4.51436 0
-3.70995 -8.98638 0
-2.48367 -9.38446 0
-4.78883 -7.14348 0
-3.8426 -7.73024 0
-8.56993 0.627979 0
-9.42233 2.58666 0
-8.42731 1.7263 0
-9.01428 3.79966 0
-7.49994 -0.878818 0
-7.5694 0.0899335 0
-6.71804 -1.24885 0
-1.21345 -9.61957 0
-6.22757 -2.06088 0
-6.09249 -2.93122 0
-5.35536 -5.3146 0
-4.6602 -5.96135 0
-5.46013 -3.62317 0
-5.0778 -4.41926 0
-2.81505 -8.18807 0
-1.74338 -8.44654 0
-3.83388 -6.57655 0
-3.00878 -7.00926 0
0.0555594 -9.67768 0
-7.49806 1.11307 0
-8.1788 2.85442 0
-7.36169 2.04571 0
-8.39873 4.91519 0
-7.689 3.8735 0
-7.63833 5.94682 0
-6.5691 -0.36682 0
-6.75049 0.549685 0
-5.60875 -0.96693 0
-0.580769 -8.59248 0
0.542715 -8.52209 0
-5.14608 -2.39474 0
-4.33368 -4.95135 0
-3.78683 -5.63184 0
-4.30629 -3.69891 0
-2.02297 -7.39929 0
-1.11293 -7.60845 0
-2.92432 -5.96334 0
-2.26732 -6.47977 0
1.30684 -9.55888 0
-6.50575 1.38068 0
-6.97703 3.02053 0
-6.4834 2.30118 0
-7.09276 4.84137 0
-6.5323 3.87917 0
-6.79836 6.89084 0
-6.37959 5.71368 0
-5.85822 7.74705 0
-4.36855 -1.16478 0
-5.67083 0.490065 0
-4.56662 -0.0274425 0
-0.00586064 -7.63814 0
1.67998 -8.3725 0
0.899786 -7.52842 0
-3.9535 -2.35026 0
-3.45153 -1.37929 0
-3.21122 -4.69479 0
-3.21204 -3.20171 0
-1.36349 -6.51547 0
-0.520326 -6.84277 0
-1.94491 -5.42375 0
2.55328 -9.31332 0
-5.37112 1.98802 0
-5.93182 2.97562 0
-5.93325 4.71435 0
-5.5994 3.85758 0
-5.58649 6.50801 0
-5.29531 5.43826 0
-4.83452 8.50034 0
-4.69401 7.17268 0
-3.45622 -0.419109 0
-4.35547 1.22262 0
-3.64562 0.5835 0
-3.97487 2.29232 0
-3.69996 9.06708 0
2.7493 -8.04023 0
0.370861 -6.58606 0
1.92743 -7.26796 0
1.23054 -6.67885 0
-2.42244 -0.860633 0
-2.80946 -2.10307 0
-2.26146 -4.01721 0
-2.2962 -2.92297 0
-0.450861 -5.71145 0
-1.19968 -4.41527 0
3.76226 -8.92315 0
-4.66424 3.29766 0
-4.94334 4.44412 0
-4.51044 6.07302 0
-4.40894 5.18592 0
-3.74402 7.77353 0
-3.70085 6.61458 0
-2.70516 8.17668 0
-1.63354 -0.123341 0
-1.43324 -0.870834 0
-2.46811 0.518455 0
-3.19851 1.43369 0
-3.16873 3.25728 0
-2.86165 2.3576 0
-1.34796 0.637221 0
-2.48125 9.45036 0
3.78467 -7.61094 0
2.82876 -6.88099 0
0.894314 -5.64629 0
1.9723 -6.18426 0
-1.66062 -1.97258 0
-1.41356 -3.22898 0
0.077644 -4.6388 0
-0.552067 -3.63498 0
4.76386 -7.05571 0
4.90274 -8.36669 0
-3.67958 4.4263 0
-3.62935 5.57554 0
-2.79043 7.05438 0
-2.92005 6.15493 0
-1.61737 8.49785 0
-1.87646 7.39802 0
-2.29635 3.97091 0
-0.720085 -1.31312 0
-0.828656 -0.242872 0
-1.92907 1.69389 0
-2.10082 2.85333 0
-1.29747 3.50319 0
-0.872275 1.36064 0
-0.285336 0.465714 0
-0.521143 8.64801 0
-1.2229 9.68422 0
1.06615 -4.44819 0
3.73888 -6.43302 0
2.85889 -5.85818 0
2.02807 -5.23868 0
4.61496 -5.95627 0
-0.546844 -2.4527 0
0.488734 -3.4058 0
0.0608608 -1.59986 0
1.44175 -3.58895 0
5.68377 -6.38288 0
5.96252 -7.65363 0
-2.41133 5.20442 0
-2.057 6.33898 0
-0.869837 7.60102 0
-1.21807 6.73625 0
0.0931915 7.69628 0
-1.12486 4.41125 0
0.14832 -0.611555 0
-0.810554 2.49498 0
-0.346207 3.57139 0
0.0514216 1.51701 0
0.729889 0.473722 0
0.629283 8.67832 0
0.0416542 9.79558 0
2.29922 -4.15061 0
3.71524 -5.41765 0
2.8919 -5.02201 0
5.41233 -5.29781 0
4.5371 -5.06944 0
0.633815 -2.28066 0
1.23833 -2.90184 0
0.760085 -1.38792 0
2.11465 -3.06172 0
2.91644 -3.37519 0
5.99814 -4.64019 0
6.47861 -5.59523 0
6.91543 -6.79635 0
-0.987278 5.67592 0
-0.342565 6.70835 0
1.10117 7.60665 0
0.563665 6.9167 0
-0.00316718 4.64871 0
0.591555 3.77981 0
1.33119 -0.64146 0
0.521153 2.6366 0
0.949236 1.57769 0
1.88974 0.206723 0
1.59592 1.06085 0
2.09458 7.43263 0
1.76708 8.53088 0
1.32034 9.72581 0
3.71066 -4.19605 0
4.97232 -4.2759 0
5.70469 -3.80361 0
3.69728 -3.10426 0
1.79571 -1.87567 0
2.96389 -2.52192 0
6.63173 -3.83718 0
7.20843 -4.76987 0
7.78052 -5.86842 0
0.480035 5.75698 0
1.40878 6.60132 0
2.33649 6.5406 0
1.18693 4.4851 0
1.4607 3.35127 0
2.40478 -0.690345 0
2.78862 0.138334 0
1.76463 2.14959 0
2.58705 1.13898 0
3.02075 7.03303 0
2.85653 8.20842 0
2.58647 9.48269 0
4.79662 -3.21783 0
5.98886 -3.02121 0
4.09261 -2.22574 0
3.1945 -1.48779 0
6.60495 -2.27179 0
7.09234 -2.97897 0
7.80888 -3.83735 0
8.51722 -4.84715 0
1.99302 5.49524 0
3.00495 6.02387 0
2.33143 4.05882 0
2.38862 3.01621 0
3.47478 -0.452238 0
3.56563 0.61417 0
2.92402 2.25586 0
3.48231 1.50317 0
3.89323 5.75911 0
3.89007 6.64719 0
3.90409 7.77958 0
3.80951 9.08136 0
5.46724 -1.87793 0
4.43465 -1.10578 0
6.5823 -1.30944 0
7.44363 -1.99687 0
8.22743 -2.80938 0
9.08481 -3.70586 0
3.31872 4.76557 0
3.26368 3.31332 0
4.60713 0.133091 0
4.41411 1.27708 0
3.95908 2.38082 0
4.41111 5.01167 0
4.70149 6.04152 0
4.86383 7.2118 0
4.95073 8.51271 0
5.75343 -0.435655 0
6.8492 -0.487356 0
7.60103 -1.05692 0
8.50245 -1.70493 0
9.48523 -2.48074 0
4.40546 3.71988 0
5.6558 1.05039 0
5.19856 2.44895 0
5.1814 4.47504 0
5.42307 5.3701 0
5.73728 6.49525 0
5.9728 7.78024 0
6.66131 0.425964 0
7.66595 -0.0311871 0
8.66052 -0.558228 0
9.72481 -1.21184 0
6.75162 1.28385 0
5.50967 3.65001 0
6.32137 2.09771 0
6.14534 2.96438 0
6.05708 4.53066 0
6.47757 5.66227 0
6.90719 6.92352 0
7.57087 0.927562 0
8.62622 0.560232 0
9.78744 0.0632824 0
7.37955 1.92214 0
6.55619 3.74774 0
7.00719 2.82442 0
7.13704 4.72851 0
7.76421 5.97206 0
8.46983 1.67318 0
9.66508 1.31444 0
8.13565 2.73692 0
7.71994 3.78631 0
8.47887 4.91417 0
9.42178 2.56282 0
9.0331 3.77267 0
CELLS 542 2168
3 2 0 4
3 0 1 7
3 4 0 7
3 1 5 8
3 7 1 8
3 3 2 13
3 13 2 4
3 11 3 14
3 14 3 13
3 13 4 15
3 4 7 16
3 15 4 16
3 5 6 17
3 8 5 17
3 6 9 18
3 17 6 18
3 7 8 19
3 16 7 19
3 8 17 20
3 19 8 20
3 9 10 23
3 18 9 23
3 10 21 24
3 23 10 24
3 12 11 25
3 25 11 14
3 26 12 27
3 27 12 25
3 14 13 29
3 29 13 15
3 25 14 30
3 30 14 29
3 29 15 31
3 15 16 33
3 31 15 33
3 16 19 34
3 33 16 34
3 17 18 35
3 20 17 35
3 18 23 36
3 35 18 36
3 19 20 37
3 34 19 37
3 20 35 38
3 37 20 38
3 21 22 39
3 24 21 39
3 22 32 40
3 39 22 40
3 23 24 41
3 36 23 41
3 24 39 42
3 41 24 42
3 27 25 44
3 44 25 30
3 28 26 45
3 45 26 27
3 45 27 46
3 46 27 44
3 47 28 48
3 48 28 45
3 30 29 50
3 50 29 31
3 44 30 51
3 51 30 50
3 50 31 52
3 31 33 52
3 32 43 53
3 40 32 53
3 53 43 54
3 33 34 55
3 34 37 55
3 33 55 52
3 35 36 56
3 38 35 56
3 36 41 57
3 56 36 57
3 37 38 58
3 38 56 58
3 37 58 55
3 39 40 59
3 42 39 59
3 40 53 60
3 59 40 60
3 41 42 61
3 57 41 61
3 42 59 62
3 61 42 62
3 43 63 54
3 46 44 64
3 64 44 51
3 48 45 65
3 65 45 46
3 65 46 66
3 66 46 64
3 49 47 67
3 67 47 48
3 67 48 68
3 68 48 65
3 69 49 70
3 70 49 67
3 52 55 72
3 64 51 73
3 51 50 73
3 50 52 73
3 73 52 74
3 74 52 72
3 53 54 75
3 60 53 75
3 54 63 76
3 54 76 77
3 75 54 77
3 55 58 78
3 72 55 78
3 72 78 79
3 56 57 80
3 57 61 80
3 56 80 58
3 58 80 81
3 78 58 81
3 59 60 82
3 62 59 82
3 60 75 83
3 82 60 83
3 61 62 84
3 62 82 84
3 61 84 80
3 63 85 76
3 66 64 86
3 64 73 86
3 68 65 87
3 87 65 66
3 87 66 86
3 70 67 88
3 88 67 68
3 88 68 89
3 89 68 87
3 71 69 90
3 90 69 70
3 90 70 91
3 91 70 88
3 92 71 93
3 93 71 90
3 74 72 94
3 94 72 79
3 86 73 95
3 95 73 74
3 95 74 96
3 96 74 94
3 97 86 95
3 76 85 99
3 75 77 100
3 83 75 100
3 76 99 101
3 77 76 101
3 77 101 102
3 100 77 102
3 94 79 103
3 78 81 104
3 79 78 104
3 79 104 103
3 80 84 105
3 81 80 105
3 81 105 106
3 104 81 106
3 82 83 107
3 83 100 107
3 82 107 84
3 84 107 108
3 105 84 108
3 85 109 99
3 89 87 110
3 87 86 110
3 110 86 97
3 91 88 111
3 111 88 89
3 111 89 110
3 93 90 112
3 112 90 91
3 112 91 113
3 113 91 111
3 98 92 114
3 114 92 93
3 114 93 115
3 115 93 112
3 116 98 114
3 117 103 118
3 96 94 119
3 94 103 119
3 119 103 117
3 97 95 120
3 120 95 96
3 120 96 119
3 121 110 97
3 121 97 122
3 122 97 120
3 123 119 117
3 124 98 116
3 99 109 125
3 99 125 126
3 101 99 126
3 100 102 127
3 100 127 107
3 101 126 128
3 102 101 128
3 102 128 127
3 104 106 129
3 104 129 103
3 103 129 118
3 105 108 130
3 106 105 130
3 106 130 129
3 107 127 131
3 108 107 131
3 108 131 132
3 108 132 130
3 109 134 125
3 125 134 133
3 113 111 135
3 111 110 135
3 135 110 121
3 115 112 136
3 136 112 113
3 136 113 135
3 116 114 137
3 137 114 115
3 137 115 138
3 138 115 136
3 139 124 116
3 139 116 140
3 140 116 137
3 141 135 121
3 118 129 142
3 118 142 143
3 117 118 143
3 123 117 143
3 122 120 144
3 120 119 144
3 144 119 123
3 141 121 145
3 145 121 122
3 145 122 144
3 146 141 145
3 147 144 123
3 147 123 148
3 143 148 123
3 150 124 139
3 149 150 139
3 131 127 151
3 125 133 152
3 126 125 152
3 126 152 153
3 128 126 153
3 128 153 154
3 128 154 127
3 127 154 151
3 152 133 155
3 130 132 156
3 130 156 129
3 129 156 142
3 131 151 157
3 132 131 157
3 132 157 156
3 156 158 142
3 157 151 159
3 133 160 155
3 134 161 133
3 133 161 160
3 138 136 162
3 136 135 162
3 162 135 141
3 140 137 163
3 163 137 138
3 163 138 162
3 149 139 164
3 164 139 140
3 164 140 165
3 165 140 163
3 166 149 164
3 167 162 141
3 167 141 146
3 142 158 168
3 143 142 168
3 143 168 148
3 146 145 169
3 145 144 169
3 169 144 147
3 170 167 146
3 170 146 169
3 171 169 147
3 171 147 148
3 171 148 172
3 168 172 148
3 173 149 166
3 174 150 149
3 173 174 149
3 154 175 151
3 151 175 159
3 152 155 176
3 153 152 176
3 153 176 177
3 153 177 154
3 154 177 175
3 155 160 178
3 155 178 179
3 176 155 179
3 156 157 180
3 156 180 158
3 157 159 181
3 157 181 180
3 158 180 182
3 158 182 168
3 159 175 183
3 159 183 181
3 175 184 183
3 160 186 178
3 178 186 185
3 161 187 160
3 160 187 186
3 165 163 188
3 163 162 188
3 188 162 167
3 166 164 189
3 189 164 165
3 189 165 188
3 190 173 166
3 190 166 191
3 191 166 189
3 192 188 167
3 192 167 170
3 193 192 170
3 182 194 168
3 194 172 168
3 193 170 195
3 170 169 195
3 195 169 171
3 196 195 171
3 196 171 172
3 194 197 172
3 197 198 172
3 198 196 172
3 200 173 190
3 199 200 190
3 201 174 173
3 200 201 173
3 176 179 202
3 177 176 202
3 177 202 175
3 175 202 184
3 178 185 203
3 178 203 179
3 179 203 202
3 203 185 204
3 202 205 184
3 183 206 181
3 180 181 206
3 180 206 182
3 182 206 194
3 183 184 207
3 205 207 184
3 183 207 206
3 185 208 204
3 186 209 185
3 185 209 208
3 187 210 186
3 186 210 209
3 191 189 211
3 189 188 211
3 211 188 192
3 199 190 212
3 212 190 191
3 212 191 211
3 213 199 212
3 214 211 192
3 214 192 193
3 215 214 193
3 215 193 195
3 206 216 194
3 216 197 194
3 216 217 197
3 215 195 218
3 218 195 196
3 198 218 196
3 217 219 197
3 219 218 198
3 197 219 198
3 220 199 213
3 221 200 199
3 220 221 199
3 222 201 200
3 221 222 200
3 203 204 223
3 203 223 202
3 202 223 205
3 204 208 224
3 204 224 223
3 205 223 225
3 205 225 207
3 207 225 226
3 207 226 206
3 226 216 206
3 208 228 224
3 224 228 227
3 209 229 208
3 229 228 208
3 210 230 209
3 209 230 229
3 213 212 231
3 212 211 231
3 231 211 214
3 232 220 213
3 232 213 231
3 233 231 214
3 233 214 215
3 234 233 215
3 234 215 218
3 226 235 216
3 235 217 216
3 235 236 217
3 217 236 219
3 237 234 218
3 237 218 219
3 236 238 219
3 238 237 219
3 240 220 232
3 239 240 232
3 241 221 220
3 240 241 220
3 242 222 221
3 241 242 221
3 224 227 243
3 224 243 223
3 223 243 225
3 225 243 244
3 225 244 226
3 226 244 235
3 227 245 243
3 228 246 227
3 227 246 245
3 229 247 228
3 228 247 246
3 230 248 229
3 229 248 247
3 239 232 249
3 232 231 249
3 249 231 233
3 250 249 233
3 250 233 234
3 237 250 234
3 244 251 235
3 235 251 236
3 251 252 236
3 236 252 238
3 252 253 238
3 253 250 237
3 253 237 238
3 254 239 249
3 255 240 239
3 254 255 239
3 256 241 240
3 255 256 240
3 257 242 241
3 256 257 241
3 245 258 243
3 243 258 244
3 244 258 251
3 245 259 258
3 246 260 245
3 245 260 259
3 247 261 246
3 246 261 260
3 248 262 247
3 247 262 261
3 254 249 263
3 263 249 250
3 253 263 250
3 258 264 251
3 251 264 252
3 264 265 252
3 265 263 253
3 252 265 253
3 266 254 263
3 267 255 254
3 266 267 254
3 268 256 255
3 267 268 255
3 269 257 256
3 268 269 256
3 259 270 258
3 270 264 258
3 260 271 259
3 259 271 270
3 261 272 260
3 260 272 271
3 262 273 261
3 273 272 261
3 270 274 264
3 275 266 263
3 275 263 265
3 274 276 264
3 276 265 264
3 276 277 265
3 277 275 265
3 278 267 266
3 275 278 266
3 279 268 267
3 278 279 267
3 280 269 268
3 279 280 268
3 271 281 270
3 270 281 274
3 272 282 271
3 271 282 281
3 273 283 272
3 272 283 282
3 281 284 274
3 274 284 276
3 285 278 275
3 277 285 275
3 284 286 276
3 286 285 277
3 276 286 277
3 287 279 278
3 285 287 278
3 288 280 279
3 287 288 279
3 282 289 281
3 281 289 284
3 283 290 282
3 282 290 289
3 289 291 284
3 284 291 286
3 291 292 286
3 292 287 285
3 286 292 285
3 293 288 287
3 292 293 287
3 290 294 289
3 289 294 291
3 294 295 291
3 295 293 292
3 291 295 292
CELL_TYPES 542
5
5
5
5
5
5
5
5
5
5
5
5
5
5
5
5
5
5
5
5
5
5
5
5
5
5
5
5
5
5
5
5
5
5
5
5
5
5
5
5
5
5
5
5
5
5
5
5
5
5
5
5
5
5
5
5
5
5
5
5
5
5
5
5
5
5
5
5
5
5
5
5
5
5
5
5
5
5
5
5
5
5
5
5
5
5
5
5
5
5
5
5
5
5
5
5
5
5
5
5
5
5
5
5
5
5
5
5
5
5
5
5
5
5
5
5
5
5
5
5
5
5
5
5
5
5
5
5
5
5
5
5
5
5
5
5
5
5
5
5
5
5
5
5
5
5
5
5
5
5
5
5
5
5
5
5
5
5
5
5
5
5
5
5
5
5
5
5
5
5
5
5
5
5
5
5
5
5
5
5
5
5
5
5
5
5
5
5
5
5
5
5
5
5
5
5
5
5
5
5
5
5
5
5
5
5
5
5
5
5
5
5
5
5
5
5
5
5
5
5
5
5
5
5
5
5
5
5
5
5
5
5
5
5
5
5
5
5
5
5
5
5
5
5
5
5
5
5
5
5
5
5
5
5
5
5
5
5
5
5
5
5
5
5
5
5
5
5
5
5
5
5
5
5
5
5
5
5
5
5
5
5
5
5
5
5
5
5
5
5
5
5
5
5
5
5
5
5
5
5
5
5
5
5
5
5
5
5
5
5
5
5
5
5
5
5
5
5
5
5
5
5
5
5
5
5
5
5
5
5
5
5
5
5
5
5
5
5
5
5
5
5
5
5
5
5
5
5
5
5
5
5
5
5
5
5
5
5
5
5
5
5
5
5
5
5
5
5
5
5
5
5
5
5
5
5
5
5
5
5
5
5
5
5
5
5
5
5
5
5
5
5
5
5
5
5
5
5
5
5
5
5
5
5
5
5
5
5
5
5
5
5
5
5
5
5
5
5
5
5
5
5
5
5
5
5
5
5
5
5
5
5
5
5
5
5
5
5
5
5
5
5
5
5
5
5
5
5
5
5
5
5
5
5
5
5
5
5
5
5
5
5
5
5
5
5
5
5
5
5
5
5
5
5
5
5
5
5
5
5
5
5
5
5
5
5
5
5
5
5
5
5
5
5
5
5
5
5
5
5
5
5
5
5
5
5
5
5
5
5
5
5
5
5
5
5
5
5
5
5
5
5
5
5
5
5
5
5
5
5
5
5
5
5
5
5
5
5
5
5
5
5
POINT_DATA 296
SCALARS concentrations float 4
LOOKUP_TABLE default
0 0.948062 0.105619 1.11691
0 0.948063 0.104232 -1.23725
0 0.948034 0.106775 1.75109
0 0.94806 0.101128 -0.344556
0 0.948044 0.0928628 -0.120948
0 0.948013 0.104808 3.28232
0 0.94796 0.111808 7.87728
0 0.948062 0.0928161 -0.462562
0 0.948036 0.0930733 0.297213
0 0.94795 0.104007 -2.37984
0 0.948002 0.110975 5.43878
0 0.948041 0.105975 0.996623
0 0.948012 0.107398 7.04757
0 0.948049 0.0927143 -0.0379595
0 0.948053 0.0927848 0.201071
0 0.94805 0.0929008 0.0409335
0 0.948047 0.0931265 0.00158746
0 0.947997 0.0927805 -0.454868
0 0.947973 0.0924357 -0.480587
0 0.948045 0.0933762 -0.683176
0 0.948025 0.0931833 -0.414318
0 0.948018 0.104181 0.215098
0 0.948002 0.103252 2.75659
0 0.947982 0.092674 -0.563707
0 0.948015 0.0924687 0.363083
0 0.948026 0.0940053 -0.778348
0 0.948024 0.103387 3.10203
0 0.948016 0.0940043 -0.765323
0 0.948066 0.109939 0.0140469
0 0.948051 0.0932132 0.210197
0 0.94804 0.0929979 -0.557855
0 0.948045 0.0931262 -0.216143
0 0.948023 0.104903 4.172
0 0.948042 0.0929164 0.147262
0 0.948048 0.0933256 -0.664149
0 0.94801 0.0926364 -0.156647
0 0.948005 0.0929801 0.663556
0 0.948044 0.0935897 0.852901
0 0.948027 0.0931876 0.727487
0 0.948011 0.0927999 -0.629735
0 0.948028 0.0928712 -0.671363
0 0.948003 0.0929083 -0.651274
0 0.948014 0.0935831 -0.465632
0 0.94801 0.105785 1.14452
0 0.948023 0.0938543 -0.530449
0 0.948042 0.0930494 -0.177179
0 0.948027 0.0948309 -0.872921
0 0.948056 0.105947 3.30729
0 0.948058 0.0932918 0.487471
0 0.948026 0.103101 0.796765
0 0.948043 0.0931061 -0.398916
0 0.948036 0.0941224 -0.291664
0 0.948033 0.0936933 -0.418994
0 0.94803 0.0925576 -0.680837
0 0.948031 0.0928068 -0.659976
0 0.948037 0.0946221 -0.509397
0 0.948025 0.0929552 0.118387
0 0.94802 0.0930661 -0.652588
0 0.948034 0.0929703 0.241661
0 0.948035 0.0929766 -0.757916
0 0.948048 0.0934509 -0.025661
0 0.948021 0.093519 -0.809706
0 0.948031 0.0942726 0.406743
0 0.948044 0.104705 -0.933072
0 0.948027 0.0952868 -0.0874937
0 0.948036 0.0942207 -0.48975
0 0.948026 0.0943332 0.344972
0 0.948033 0.0925898 0.298021
0 0.948033 0.0929513 -0.27189
0 0.948033 0.104442 2.91425
0 0.94803 0.0931156 -0.432702
0 0.948028 0.106158 -0.388471
0 0.948035 0.0954773 -1.35705
0 0.948031 0.0938124 -0.398507
0 0.94803 0.0934877 -0.779231
0 0.948051 0.0930066 -0.796691
0 0.948063 0.0928712 -0.145269
0 0.948056 0.0930721 -0.821586
0 0.948036 0.0944136 -1.13816
0 0.948036 0.0947729 0.343556
0 0.948032 0.0936511 0.853173
0 0.948035 0.0941265 -0.877887
0 0.948046 0.0938151 -0.899707
0 0.948053 0.0928677 0.809206
0 0.948041 0.094153 0.750586
0 0.948077 0.105332 1.70221
0 0.948032 0.0955508 -0.514031
0 0.948029 0.0939315 -0.751613
0 0.948032 0.0933086 -0.327679
0 0.948027 0.0931623 -0.0443541
0 0.948031 0.0926148 -0.21379
0 0.948039 0.0931495 -0.340045
0 0.948039 0.104846 -0.9815
0 0.948032 0.0930292 0.135139
0 0.948031 0.0932475 -0.0182025
0 0.948031 0.0930303 0.415221
0 0.948032 0.0940347 0.685569
0 0.948041 0.0971997 -1.39117
0 0.948064 0.103965 -0.0934919
0 0.948067 0.0930325 -0.899008
0 0.948053 0.0933217 -0.475571
0 0.948059 0.0930787 0.971014
0 0.948056 0.0932503 0.872075
0 0.948027 0.0944028 -0.00333632
0 0.948037 0.0969841 0.423094
0 0.948039 0.0936768 0.413292
0 0.948041 0.0930326 -0.187146
0 0.948047 0.0936846 0.7401
0 0.948042 0.0938686 -0.568824
0 0.948055 0.103892 -2.40215
0 0.948035 0.0936439 0.0933895
0 0.94803 0.0930846 -0.228835
0 0.948035 0.0929406 0.0217914
0 0.948035 0.0926438 -0.131286
0 0.948048 0.0937636 -0.0250735
0 0.948034 0.0939515 0.0755647
0 0.948066 0.0934925 0.301384
0 0.948027 0.0940335 1.32332
0 0.948024 0.093504 -0.787471
0 0.948031 0.0940597 -1.70361
0 0.948037 0.0945966 1.39037
0 0.948037 0.0951306 -1.14431
0 0.94804 0.0944185 0.349733
0 0.948034 0.0942639 1.55072
0 0.94808 0.104764 2.26824
0 0.948052 0.093198 -0.890853
0 0.948058 0.0933101 -0.361517
0 0.948049 0.0935262 -0.894737
0 0.948053 0.0930941 -0.896094
0 0.948037 0.0937877 0.352608
0 0.948042 0.0939723 1.11518
0 0.948039 0.0939246 -0.574099
0 0.948035 0.094902 -1.13584
0 0.948056 0.0937057 -1.05527
0 0.948046 0.105596 1.66336
0 0.948027 0.0936866 -0.378236
0 0.948024 0.0934666 -0.611881
0 0.948047 0.0946874 0.201061
0 0.948035 0.094471 -0.317222
0 0.948077 0.0932101 -0.328258
0 0.948048 0.0936857 0.126187
0 0.948032 0.0945954 0.762516
0 0.948033 0.0934899 -0.650454
0 0.948029 0.0937987 -1.08951
0 0.948036 0.0952897 1.73368
0 0.948035 0.0956695 -1.71157
0 0.948031 0.0952689 -1.47642
0 0.948027 0.094569 1.33393
0 0.948027 0.0943408 -0.99414
0 0.948102 0.0925433 0.157399
0 0.94811 0.106236 1.65113
0 0.948038 0.0942349 -0.289657
0 0.948059 0.0936947 -1.07984
0 0.948058 0.0932042 -0.0310393
0 0.948048 0.0934116 -0.314482
0 0.948057 0.093306 -1.03079
0 0.948037 0.0928187 0.157858
0 0.948026 0.0953902 -0.767437
0 0.948042 0.0940101 -0.756694
0 0.94803 0.0941018 -0.479136
0 0.948067 0.0930866 -0.919631
0 0.948065 0.104624 0.977977
0 0.948033 0.0989108 0.541596
0 0.948041 0.0936773 0.331866
0 0.948054 0.0928675 0.418706
0 0.948035 0.0929631 -0.572103
0 0.948061 0.0929681 -0.409508
0 0.948034 0.0937882 -1.39229
0 0.948041 0.0944921 -1.1658
0 0.948025 0.0945754 0.0662343
0 0.948029 0.094034 -1.14279
0 0.948019 0.0982556 -1.60066
0 0.948032 0.0942537 -0.143426
0 0.948107 0.0934929 -0.699279
0 0.948134 0.106069 3.16848
0 0.948038 0.093747 -0.710328
0 0.948055 0.0930303 -0.0131919
0 0.948048 0.09328 0.0229403
0 0.948051 0.0931364 -0.475396
0 0.948044 0.0934319 0.62614
0 0.948031 0.0986227 -0.432571
0 0.948027 0.095336 -1.42197
0 0.948049 0.0938088 -0.0993149
0 0.948036 0.0941128 -0.260519
0 0.948037 0.0932364 -0.346868
0 0.948054 0.0929681 0.303206
0 0.948067 0.0926102 0.66139
0 0.948077 0.103581 2.17084
0 0.948034 0.0933367 0.642612
0 0.948033 0.0931784 -0.76678
0 0.94807 0.0935497 0.515832
0 0.948034 0.0932806 0.790564
0 0.948028 0.0932918 1.06905
0 0.948029 0.0939308 1.46615
0 0.948034 0.102878 -3.19155
0 0.948026 0.0957574 -1.52257
0 0.94803 0.094909 -1.10613
0 0.948016 0.0946052 0.339412
0 0.948028 0.0968067 -0.275324
0 0.948071 0.0945276 0.88582
0 0.948119 0.0934712 -0.859519
0 0.948138 0.107909 2.88967
0 0.948038 0.0931685 0.522859
0 0.948037 0.0933473 -0.565086
0 0.948043 0.093109 -0.0726871
0 0.948029 0.0934463 0.483151
0 0.948031 0.0964215 -1.24689
0 0.948033 0.0937031 0.684476
0 0.948057 0.0929105 -0.436865
0 0.948069 0.0926128 -0.388217
0 0.948079 0.106688 -1.49913
0 0.948022 0.0948022 1.08565
0 0.948034 0.0945055 1.00147
0 0.948044 0.0939428 0.909253
0 0.948021 0.0942158 0.00771488
0 0.94803 0.0950774 -0.394059
0 0.948011 0.0948395 0.141832
0 0.948012 0.0972639 -0.421796
0 0.948035 0.0970223 -0.678523
0 0.948028 0.100544 1.55525
0 0.948067 0.0937097 0.416757
0 0.948095 0.093555 0.683622
0 0.94813 0.102905 1.68726
0 0.948031 0.0931637 0.196056
0 0.948042 0.0937814 -0.378281
0 0.948032 0.093171 -0.429339
0 0.948029 0.0937245 -0.3697
0 0.948044 0.0933381 0.321057
0 0.948055 0.0930785 -0.319268
0 0.948063 0.0928228 -0.0656314
0 0.948073 0.105954 0.40603
0 0.948021 0.094408 0.393681
0 0.948034 0.0945489 0.614367
0 0.948025 0.0969004 0.445824
0 0.94803 0.0950711 0.391302
0 0.948021 0.0943823 0.428132
0 0.948032 0.096606 -1.64192
0 0.948031 0.0932474 -0.2789
0 0.948047 0.0950691 -0.211727
0 0.948026 0.0933901 0.990894
0 0.948057 0.0934116 0.550588
0 0.948073 0.093734 0.89534
0 0.948085 0.110472 -1.84552
0 0.948039 0.0942607 0.338723
0 0.948037 0.0935727 0.174683
0 0.948043 0.093454 0.198822
0 0.948049 0.093041 -0.0946326
0 0.948057 0.0933461 -0.00901649
0 0.948065 0.111041 2.16133
0 0.948024 0.0946789 0.0283503
0 0.948029 0.0948117 -0.24435
0 0.948027 0.0946021 -0.374913
0 0.948031 0.0957165 -0.324012
0 0.948029 0.0946921 0.565679
0 0.948022 0.0946815 -1.16974
0 0.948042 0.0929096 0.998584
0 0.948068 0.0933894 0.8015
0 0.948079 0.103536 0.76891
0 0.948038 0.0936844 -0.0175557
0 0.948045 0.0932999 -0.12547
0 0.948053 0.0930568 -0.0744641
0 0.948036 0.0926289 -0.0196498
0 0.948024 0.105166 -1.30614
0 0.948023 0.0933273 -1.11947
0 0.948026 0.0924219 0.255706
0 0.948021 0.0969998 0.60613
0 0.948018 0.0934074 -0.105182
0 0.948024 0.0928109 0.935616
0 0.948037 0.0930375 0.686904
0 0.948061 0.104029 1.00663
0 0.948045 0.0934329 -0.0759335
0 0.948052 0.0929355 -0.0672582
0 0.948071 0.0930829 0.304973
0 0.94805 0.112214 -0.779658
0 0.948039 0.0924352 -0.27105
0 0.948019 0.0937966 -0.0637417
0 0.948029 0.0930901 0.53329
0 0.948026 0.0927873 0.512572
0 0.94802 0.094544 1.22077
0 0.948014 0.0927805 0.167995
0 0.948016 0.102259 3.09508
0 0.948046 0.0930284 -0.402334
0 0.948032 0.0923736 0.0334134
0 0.94806 0.106667 0.605191
0 0.948042 0.092928 -0.193749
0 0.948029 0.0931784 -0.820763
0 0.948036 0.0925352 -0.279965
0 0.948035 0.0938055 0.810281
0 0.948018 0.112106 5.6043
0 0.948038 0.0926163 -0.227369
0 0.948015 0.109313 -0.279149
0 0.948035 0.0930204 0.863139
0 0.948039 0.0926994 0.727263
0 0.948052 0.10203 1.29191
0 0.948037 0.102942 0.350362
0 0.948032 0.106589 0.638274
VECTORS fa_u float
0.00735101 0.00292892 -0
0.00679341 0.00390363 -0
0.00268663 0.000732972 -0
0.00722682 0.00113818 -0
1e-08 0 0
0.00514986 0.00397241 -0
0.00245844 0.00237457 -0
1e-08 0 0
1e-08 0 0
0.00451807 0.00548707 -0
0.00552136 0.00925068 -0
0.00674116 0.000150318 -0
0.00616556 -0.00065689 0
1e-08 0 0
1e-08 0 0
1e-08 0 0
1e-08 0 0
1e-08 0 0
1e-08 0 0
1e-08 0 0
1e-08 0 0
0.00293412 0.00725017 -0
0.00162544 0.00640874 -0
1e-08 0 0
1e-08 0 0
1e-08 0 0
0.0090845 -0.00228319 0
1e-08 0 0
0.0114995 -0.00505509 0
1e-08 0 0
1e-08 0 0
1e-08 0 0
0.000840216 0.00727601 -0
1e-08 0 0
1e-08 0 0
1e-08 0 0
1e-08 0 0
1e-08 0 0
1e-08 0 0
1e-08 0 0
1e-08 0 0
1e-08 0 0
1e-08 0 0
-0.000187053 0.00776826 -0
1e-08 0 0
1e-08 0 0
1e-08 0 0
0.00562984 -0.00360772 0
1e-08 0 0
0.00257711 -0.00208757 0
1e-08 0 0
1e-08 0 0
1e-08 0 0
1e-08 0 0
1e-08 0 0
1e-08 0 0
1e-08 0 0
1e-08 0 0
1e-08 0 0
1e-08 0 0
1e-08 0 0
1e-08 0 0
1e-08 0 0
-0.000568334 0.00389598 0
1e-08 0 0
1e-08 0 0
1e-08 0 0
1e-08 0 0
1e-08 0 0
0.00308223 -0.00304779 0
1e-08 0 0
0.00270707 -0.00330305 0
1e-08 0 0
1e-08 0 0
1e-08 0 0
1e-08 0 0
1e-08 0 0
1e-08 0 0
1e-08 0 0
1e-08 0 0
1e-08 0 0
1e-08 0 0
1e-08 0 0
1e-08 0 0
1e-08 0 0
-0.00136181 0.00525979 0
1e-08 0 0
1e-08 0 0
1e-08 0 0
1e-08 0 0
1e-08 0 0
1e-08 0 0
0.00598018 -0.00977764 0
1e-08 0 0
1e-08 0 0
1e-08 0 0
1e-08 0 0
1e-08 0 0
0.00367784 -0.0091103 0
1e-08 0 0
1e-08 0 0
1e-08 0 0
1e-08 0 0
1e-08 0 0
1e-08 0 0
1e-08 0 0
1e-08 0 0
1e-08 0 0
1e-08 0 0
-0.00294494 0.00730907 0
1e-08 0 0
1e-08 0 0
1e-08 0 0
1e-08 0 0
1e-08 0 0
1e-08 0 0
1e-08 0 0
1e-08 0 0
1e-08 0 0
1e-08 0 0
1e-08 0 0
1e-08 0 0
1e-08 0 0
1e-08 0 0
0.00137873 -0.00553398 0
1e-08 0 0
1e-08 0 0
1e-08 0 0
1e-08 0 0
1e-08 0 0
1e-08 0 0
1e-08 0 0
1e-08 0 0
1e-08 0 0
-0.0037406 0.00648301 0
1e-08 0 0
1e-08 0 0
1e-08 0 0
1e-08 0 0
1e-08 0 0
1e-08 0 0
1e-08 0 0
1e-08 0 0
1e-08 0 0
1e-08 0 0
1e-08 0 0
1e-08 0 0
1e-08 0 0
1e-08 0 0
1e-08 0 0
0.0004882 -0.00356782 0
1e-08 0 0
1e-08 0 0
1e-08 0 0
1e-08 0 0
1e-08 0 0
1e-08 0 0
1e-08 0 0
1e-08 0 0
1e-08 0 0
1e-08 0 0
-0.00471553 0.00604388 0
1e-08 0 0
1e-08 0 0
1e-08 0 0
1e-08 0 0
1e-08 0 0
1e-08 0 0
1e-08 0 0
1e-08 0 0
1e-08 0 0
1e-08 0 0
1e-08 0 0
1e-08 0 0
0.000129389 -0.00791227 0
1e-08 0 0
1e-08 0 0
1e-08 0 0
1e-08 0 0
1e-08 0 0
1e-08 0 0
1e-08 0 0
1e-08 0 0
1e-08 0 0
1e-08 0 0
1e-08 0 0
1e-08 0 0
-0.00211541 0.00215426 0
1e-08 0 0
1e-08 0 0
1e-08 0 0
1e-08 0 0
1e-08 0 0
1e-08 0 0
1e-08 0 0
1e-08 0 0
1e-08 0 0
1e-08 0 0
1e-08 0 0
1e-08 0 0
1e-08 0 0
-0.000864621 -0.00703213 0
1e-08 0 0
1e-08 0 0
1e-08 0 0
1e-08 0 0
1e-08 0 0
1e-08 0 0
1e-08 0 0
1e-08 0 0
-0.00479403 0.00393954 0
1e-08 0 0
1e-08 0 0
1e-08 0 0
1e-08 0 0
1e-08 0 0
1e-08 0 0
1e-08 0 0
1e-08 0 0
1e-08 0 0
1e-08 0 0
1e-08 0 0
-0.00157266 -0.00607439 0
1e-08 0 0
1e-08 0 0
1e-08 0 0
1e-08 0 0
1e-08 0 0
1e-08 0 0
1e-08 0 0
-0.00897377 0.00541227 0
1e-08 0 0
1e-08 0 0
1e-08 0 0
1e-08 0 0
1e-08 0 0
1e-08 0 0
1e-08 0 0
1e-08 0 0
1e-08 0 0
1e-08 0 0
1e-08 0 0
-0.00310961 -0.00757948 0
1e-08 0 0
1e-08 0 0
1e-08 0 0
1e-08 0 0
1e-08 0 0
-0.00762071 0.00311736 0
1e-08 0 0
1e-08 0 0
1e-08 0 0
1e-08 0 0
1e-08 0 0
1e-08 0 0
1e-08 0 0
1e-08 0 0
-0.00515284 -0.00856733 0
1e-08 0 0
1e-08 0 0
1e-08 0 0
1e-08 0 0
-0.00625305 0.00160463 0
1e-08 0 0
1e-08 0 0
1e-08 0 0
1e-08 0 0
1e-08 0 0
1e-08 0 0
-0.00359963 -0.00443153 0
1e-08 0 0
1e-08 0 0
1e-08 0 0
-0.00728576 0.000865497 0
1e-08 0 0
1e-08 0 0
1e-08 0 0
1e-08 0 0
1e-08 0 0
1e-08 0 0
-0.00253799 -0.00251445 0
1e-08 0 0
1e-08 0 0
-0.00843784 -0.000199498 0
1e-08 0 0
1e-08 0 0
1e-08 0 0
1e-08 0 0
-0.00593599 -0.00464302 0
1e-08 0 0
-0.00352362 -0.000515471 0
1e-08 0 0
1e-08 0 0
-0.00684415 -0.00394857 0
-0.00532181 -0.00136817 0
-0.00725125 -0.00290782 0
