# vtk DataFile Version 2.0
CellBP Time: 1.2
ASCII
DATASET UNSTRUCTURED_GRID
POINTS 296 double
-9.16712 -3.76676 0
-8.59 -4.93772 0
-9.58471 -2.52967 0
-9.84204 -1.25155 0
-8.33762 -2.81051 0
-7.8643 -6.02345 0
-7.00343 -7.0052 0
-7.89715 -3.86308 0
-7.32293 -4.85558 0
-6.02535 -7.86833 0
-4.94296 -8.59563 0
-9.9289 0.0488126 0
-9.84642 1.35165 0
-8.63961 -1.67803 0
-8.76981 -0.528274 0
-7.57026 -1.99624 0
-7.20627 -2.89611 0
-6.62172 -5.76795 0
-5.81033 -6.58649 0
-6.77098 -3.87703 0
-6.20444 -4.66376 0
-3.77187 -9.1732 0
-2.53398 -9.59171 0
-4.89831 -7.29902 0
-3.90893 -7.87551 0
-8.77692 0.641624 0
-9.59366 2.63381 0
-8.60904 1.76956 0
-9.1741 3.87053 0
-7.72608 -0.926279 0
-7.77758 0.0807818 0
-6.93491 -1.31119 0
-1.25193 -9.84509 0
-6.42545 -2.1469 0
-6.30324 -3.04737 0
-5.52472 -5.46293 0
-4.78597 -6.10409 0
-5.64516 -3.7466 0
-5.25564 -4.55169 0
-2.86293 -8.35254 0
-1.77731 -8.62814 0
-3.92204 -6.71187 0
-3.05269 -7.14297 0
0.0505184 -9.92835 0
-7.6896 1.14062 0
-8.32732 2.9119 0
-7.53723 2.10629 0
-8.59325 5.03942 0
-7.86711 3.9718 0
-7.86325 6.12207 0
-6.76283 -0.395194 0
-6.93983 0.551211 0
-5.75954 -1.00122 0
-0.591202 -8.7962 0
0.562007 -8.75447 0
-5.2925 -2.47497 0
-4.48053 -5.08504 0
-3.89431 -5.76517 0
-4.42957 -3.79823 0
-2.05902 -7.5501 0
-1.13259 -7.77435 0
-2.98957 -6.09298 0
-2.30567 -6.61052 0
1.35133 -9.84053 0
-6.67585 1.41861 0
-7.1574 3.11009 0
-6.64649 2.36759 0
-7.2817 4.97826 0
-6.7059 3.99418 0
-7.00329 7.10274 0
-6.56027 5.88218 0
-6.02353 7.96488 0
-4.4473 -1.18115 0
-5.80412 0.510968 0
-4.65098 -0.0123256 0
0.00887768 -7.83383 0
1.73307 -8.62595 0
0.946141 -7.74757 0
-4.03247 -2.4025 0
-3.48334 -1.38961 0
-3.28852 -4.79821 0
-3.26268 -3.26432 0
-1.3762 -6.66493 0
-0.508854 -7.01187 0
-1.97418 -5.52938 0
2.63143 -9.58626 0
-5.49812 2.03336 0
-6.08273 3.06409 0
-6.09392 4.85865 0
-5.74853 3.98074 0
-5.74938 6.70357 0
-5.44216 5.60694 0
-4.94099 8.69399 0
-4.82904 7.38733 0
-3.49828 -0.423666 0
-4.44276 1.24773 0
-3.70681 0.591253 0
-4.05744 2.31898 0
-3.77068 9.27142 0
2.85423 -8.31274 0
0.416818 -6.78132 0
2.01545 -7.50739 0
1.30091 -6.88982 0
-2.44328 -0.873809 0
-2.83662 -2.13028 0
-2.29212 -4.0919 0
-2.32342 -2.97042 0
-0.443631 -5.8511 0
-1.22095 -4.49342 0
3.86742 -9.16732 0
-4.77992 3.38509 0
-5.07783 4.58417 0
-4.63756 6.26623 0
-4.53021 5.34834 0
-3.83578 7.97836 0
-3.81792 6.82892 0
-2.77757 8.40544 0
-1.64809 -0.136883 0
-1.44908 -0.890128 0
-2.48727 0.508362 0
-3.24987 1.445 0
-3.23392 3.31238 0
-2.90722 2.37207 0
-1.35486 0.627969 0
-2.53331 9.68809 0
3.92158 -7.86775 0
2.95477 -7.13774 0
0.949403 -5.80912 0
2.06632 -6.39924 0
-1.68202 -1.99161 0
-1.43315 -3.27574 0
0.0899501 -4.74098 0
-0.565597 -3.69152 0
4.91952 -7.29996 0
5.03779 -8.59017 0
-3.76954 4.54409 0
-3.72807 5.73988 0
-2.87954 7.27219 0
-3.00365 6.33994 0
-1.66068 8.71743 0
-1.93414 7.60319 0
-2.33498 4.0468 0
-0.729181 -1.32689 0
-0.836623 -0.257063 0
-1.93559 1.68216 0
-2.12362 2.87505 0
-1.30537 3.54233 0
-0.868731 1.35161 0
-0.282124 0.457251 0
-0.53453 8.85644 0
-1.25254 9.94212 0
1.10927 -4.56664 0
3.89797 -6.69648 0
2.97855 -6.0784 0
2.11011 -5.41092 0
4.77184 -6.18837 0
-0.557739 -2.47746 0
0.494773 -3.46066 0
0.0546032 -1.6106 0
1.4793 -3.676 0
5.85503 -6.59844 0
6.12335 -7.86475 0
-2.4705 5.33816 0
-2.1258 6.51961 0
-0.901633 7.78966 0
-1.26775 6.91862 0
0.0880094 7.86897 0
-1.14254 4.48866 0
0.150303 -0.618257 0
-0.798325 2.48977 0
-0.332512 3.59956 0
0.0626438 1.51377 0
0.742155 0.472755 0
0.644261 8.86039 0
0.0493767 10.0293 0
2.37416 -4.27527 0
3.84899 -5.62474 0
2.9924 -5.19868 0
5.5615 -5.47747 0
4.68016 -5.26816 0
0.629583 -2.2935 0
1.25454 -2.948 0
0.758258 -1.39179 0
2.15948 -3.13056 0
2.98812 -3.47038 0
6.14458 -4.78227 0
6.64397 -5.7571 0
7.10438 -7.003 0
-1.01762 5.81032 0
-0.369522 6.8714 0
1.12201 7.75944 0
0.558811 7.06863 0
-0.000136946 4.72037 0
0.606534 3.8257 0
1.33943 -0.642352 0
0.537903 2.6519 0
0.96455 1.57549 0
1.91014 0.213312 0
1.61449 1.06432 0
2.12818 7.5729 0
1.79707 8.70024 0
1.35244 9.94487 0
3.81514 -4.34067 0
5.10599 -4.43641 0
5.83665 -3.92672 0
3.77708 -3.19413 0
1.81181 -1.88326 0
3.01576 -2.57054 0
6.77307 -3.94013 0
7.37151 -4.88958 0
7.96774 -6.02447 0
0.483809 5.87251 0
1.42757 6.73288 0
2.37149 6.66081 0
1.20854 4.5517 0
1.48705 3.39411 0
2.43374 -0.691502 0
2.82606 0.142212 0
1.78847 2.16321 0
2.6105 1.14918 0
3.06881 7.16085 0
2.90071 8.36626 0
2.63406 9.69042 0
4.90392 -3.32052 0
6.11263 -3.10265 0
4.16809 -2.27213 0
3.24175 -1.50239 0
6.72263 -2.31018 0
7.22204 -3.03853 0
7.95685 -3.90776 0
8.69508 -4.94187 0
2.02196 5.59378 0
3.08105 6.14463 0
2.36214 4.12331 0
2.41805 3.05896 0
3.52149 -0.460877 0
3.61285 0.612874 0
2.95951 2.28691 0
3.54223 1.52469 0
4.00385 5.8886 0
3.97773 6.78467 0
3.96848 7.92964 0
3.87167 9.27242 0
5.56211 -1.91401 0
4.5058 -1.12868 0
6.70534 -1.33401 0
7.58467 -2.03428 0
8.38704 -2.85929 0
9.27302 -3.77123 0
3.41287 4.86959 0
3.33445 3.38126 0
4.68624 0.130311 0
4.51238 1.30767 0
4.05759 2.43833 0
4.55917 5.14321 0
4.83391 6.18214 0
4.97368 7.36973 0
5.04206 8.69417 0
5.87535 -0.434816 0
7.00078 -0.488055 0
7.74898 -1.08308 0
8.67508 -1.74278 0
9.69151 -2.53345 0
4.54275 3.82118 0
5.80627 1.0939 0
5.35961 2.52886 0
5.36579 4.61119 0
5.60036 5.51309 0
5.88807 6.6617 0
6.12418 7.96672 0
6.8338 0.460646 0
7.84341 -0.0250304 0
8.84987 -0.582658 0
9.94558 -1.25164 0
6.94732 1.34452 0
5.70717 3.77013 0
6.52707 2.18986 0
6.36452 3.07941 0
6.27709 4.67724 0
6.67859 5.82799 0
7.10429 7.10538 0
7.77255 0.964189 0
8.84759 0.57172 0
10.0298 0.0512675 0
7.60116 1.99925 0
6.81122 3.89392 0
7.2532 2.93772 0
7.36353 4.87543 0
7.96564 6.12399 0
8.70826 1.72322 0
9.94087 1.35208 0
8.40288 2.83137 0
7.96536 3.90839 0
8.69176 5.03914 0
9.68573 2.63199 0
9.26773 3.86815 0
CELLS 542 2168
3 2 0 4
3 0 1 7
3 4 0 7
3 1 5 8
3 7 1 8
3 3 2 13
3 13 2 4
3 11 3 14
3 14 3 13
3 13 4 15
3 4 7 16
3 15 4 16
3 5 6 17
3 8 5 17
3 6 9 18
3 17 6 18
3 7 8 19
3 16 7 19
3 8 17 20
3 19 8 20
3 9 10 23
3 18 9 23
3 10 21 24
3 23 10 24
3 12 11 25
3 25 11 14
3 26 12 27
3 27 12 25
3 14 13 29
3 29 13 15
3 25 14 30
3 30 14 29
3 29 15 31
3 15 16 33
3 31 15 33
3 16 19 34
3 33 16 34
3 17 18 35
3 20 17 35
3 18 23 36
3 35 18 36
3 19 20 37
3 34 19 37
3 20 35 38
3 37 20 38
3 21 22 39
3 24 21 39
3 22 32 40
3 39 22 40
3 23 24 41
3 36 23 41
3 24 39 42
3 41 24 42
3 27 25 44
3 44 25 30
3 28 26 45
3 45 26 27
3 45 27 46
3 46 27 44
3 47 28 48
3 48 28 45
3 30 29 50
3 50 29 31
3 44 30 51
3 51 30 50
3 50 31 52
3 31 33 52
3 32 43 53
3 40 32 53
3 53 43 54
3 33 34 55
3 34 37 55
3 33 55 52
3 35 36 56
3 38 35 56
3 36 41 57
3 56 36 57
3 37 38 58
3 38 56 58
3 37 58 55
3 39 40 59
3 42 39 59
3 40 53 60
3 59 40 60
3 41 42 61
3 57 41 61
3 42 59 62
3 61 42 62
3 43 63 54
3 46 44 64
3 64 44 51
3 48 45 65
3 65 45 46
3 65 46 66
3 66 46 64
3 49 47 67
3 67 47 48
3 67 48 68
3 68 48 65
3 69 49 70
3 70 49 67
3 52 55 72
3 64 51 73
3 51 50 73
3 50 52 73
3 73 52 74
3 74 52 72
3 53 54 75
3 60 53 75
3 54 63 76
3 54 76 77
3 75 54 77
3 55 58 78
3 72 55 78
3 72 78 79
3 56 57 80
3 57 61 80
3 56 80 58
3 58 80 81
3 78 58 81
3 59 60 82
3 62 59 82
3 60 75 83
3 82 60 83
3 61 62 84
3 62 82 84
3 61 84 80
3 63 85 76
3 66 64 86
3 64 73 86
3 68 65 87
3 87 65 66
3 87 66 86
3 70 67 88
3 88 67 68
3 88 68 89
3 89 68 87
3 71 69 90
3 90 69 70
3 90 70 91
3 91 70 88
3 92 71 93
3 93 71 90
3 74 72 94
3 94 72 79
3 86 73 95
3 95 73 74
3 95 74 96
3 96 74 94
3 97 86 95
3 76 85 99
3 75 77 100
3 83 75 100
3 76 99 101
3 77 76 101
3 77 101 102
3 100 77 102
3 94 79 103
3 78 81 104
3 79 78 104
3 79 104 103
3 80 84 105
3 81 80 105
3 81 105 106
3 104 81 106
3 82 83 107
3 83 100 107
3 82 107 84
3 84 107 108
3 105 84 108
3 85 109 99
3 89 87 110
3 87 86 110
3 110 86 97
3 91 88 111
3 111 88 89
3 111 89 110
3 93 90 112
3 112 90 91
3 112 91 113
3 113 91 111
3 98 92 114
3 114 92 93
3 114 93 115
3 115 93 112
3 116 98 114
3 117 103 118
3 96 94 119
3 94 103 119
3 119 103 117
3 97 95 120
3 120 95 96
3 120 96 119
3 121 110 97
3 121 97 122
3 122 97 120
3 123 119 117
3 124 98 116
3 99 109 125
3 99 125 126
3 101 99 126
3 100 102 127
3 100 127 107
3 101 126 128
3 102 101 128
3 102 128 127
3 104 106 129
3 104 129 103
3 103 129 118
3 105 108 130
3 106 105 130
3 106 130 129
3 107 127 131
3 108 107 131
3 108 131 132
3 108 132 130
3 109 134 125
3 125 134 133
3 113 111 135
3 111 110 135
3 135 110 121
3 115 112 136
3 136 112 113
3 136 113 135
3 116 114 137
3 137 114 115
3 137 115 138
3 138 115 136
3 139 124 116
3 139 116 140
3 140 116 137
3 141 135 121
3 118 129 142
3 118 142 143
3 117 118 143
3 123 117 143
3 122 120 144
3 120 119 144
3 144 119 123
3 141 121 145
3 145 121 122
3 145 122 144
3 146 141 145
3 147 144 123
3 147 123 148
3 143 148 123
3 150 124 139
3 149 150 139
3 131 127 151
3 125 133 152
3 126 125 152
3 126 152 153
3 128 126 153
3 128 153 154
3 128 154 127
3 127 154 151
3 152 133 155
3 130 132 156
3 130 156 129
3 129 156 142
3 131 151 157
3 132 131 157
3 132 157 156
3 156 158 142
3 157 151 159
3 133 160 155
3 134 161 133
3 133 161 160
3 138 136 162
3 136 135 162
3 162 135 141
3 140 137 163
3 163 137 138
3 163 138 162
3 149 139 164
3 164 139 140
3 164 140 165
3 165 140 163
3 166 149 164
3 167 162 141
3 167 141 146
3 142 158 168
3 143 142 168
3 143 168 148
3 146 145 169
3 145 144 169
3 169 144 147
3 170 167 146
3 170 146 169
3 171 169 147
3 171 147 148
3 171 148 172
3 168 172 148
3 173 149 166
3 174 150 149
3 173 174 149
3 154 175 151
3 151 175 159
3 152 155 176
3 153 152 176
3 153 176 177
3 153 177 154
3 154 177 175
3 155 160 178
3 155 178 179
3 176 155 179
3 156 157 180
3 156 180 158
3 157 159 181
3 157 181 180
3 158 180 182
3 158 182 168
3 159 175 183
3 159 183 181
3 175 184 183
3 160 186 178
3 178 186 185
3 161 187 160
3 160 187 186
3 165 163 188
3 163 162 188
3 188 162 167
3 166 164 189
3 189 164 165
3 189 165 188
3 190 173 166
3 190 166 191
3 191 166 189
3 192 188 167
3 192 167 170
3 193 192 170
3 182 194 168
3 194 172 168
3 193 170 195
3 170 169 195
3 195 169 171
3 196 195 171
3 196 171 172
3 194 197 172
3 197 198 172
3 198 196 172
3 200 173 190
3 199 200 190
3 201 174 173
3 200 201 173
3 176 179 202
3 177 176 202
3 177 202 175
3 175 202 184
3 178 185 203
3 178 203 179
3 179 203 202
3 203 185 204
3 202 205 184
3 183 206 181
3 180 181 206
3 180 206 182
3 182 206 194
3 183 184 207
3 205 207 184
3 183 207 206
3 185 208 204
3 186 209 185
3 185 209 208
3 187 210 186
3 186 210 209
3 191 189 211
3 189 188 211
3 211 188 192
3 199 190 212
3 212 190 191
3 212 191 211
3 213 199 212
3 214 211 192
3 214 192 193
3 215 214 193
3 215 193 195
3 206 216 194
3 216 197 194
3 216 217 197
3 215 195 218
3 218 195 196
3 198 218 196
3 217 219 197
3 219 218 198
3 197 219 198
3 220 199 213
3 221 200 199
3 220 221 199
3 222 201 200
3 221 222 200
3 203 204 223
3 203 223 202
3 202 223 205
3 204 208 224
3 204 224 223
3 205 223 225
3 205 225 207
3 207 225 226
3 207 226 206
3 226 216 206
3 208 228 224
3 224 228 227
3 209 229 208
3 229 228 208
3 210 230 209
3 209 230 229
3 213 212 231
3 212 211 231
3 231 211 214
3 232 220 213
3 232 213 231
3 233 231 214
3 233 214 215
3 234 233 215
3 234 215 218
3 226 235 216
3 235 217 216
3 235 236 217
3 217 236 219
3 237 234 218
3 237 218 219
3 236 238 219
3 238 237 219
3 240 220 232
3 239 240 232
3 241 221 220
3 240 241 220
3 242 222 221
3 241 242 221
3 224 227 243
3 224 243 223
3 223 243 225
3 225 243 244
3 225 244 226
3 226 244 235
3 227 245 243
3 228 246 227
3 227 246 245
3 229 247 228
3 228 247 246
3 230 248 229
3 229 248 247
3 239 232 249
3 232 231 249
3 249 231 233
3 250 249 233
3 250 233 234
3 237 250 234
3 244 251 235
3 235 251 236
3 251 252 236
3 236 252 238
3 252 253 238
3 253 250 237
3 253 237 238
3 254 239 249
3 255 240 239
3 254 255 239
3 256 241 240
3 255 256 240
3 257 242 241
3 256 257 241
3 245 258 243
3 243 258 244
3 244 258 251
3 245 259 258
3 246 260 245
3 245 260 259
3 247 261 246
3 246 261 260
3 248 262 247
3 247 262 261
3 254 249 263
3 263 249 250
3 253 263 250
3 258 264 251
3 251 264 252
3 264 265 252
3 265 263 253
3 252 265 253
3 266 254 263
3 267 255 254
3 266 267 254
3 268 256 255
3 267 268 255
3 269 257 256
3 268 269 256
3 259 270 258
3 270 264 258
3 260 271 259
3 259 271 270
3 261 272 260
3 260 272 271
3 262 273 261
3 273 272 261
3 270 274 264
3 275 266 263
3 275 263 265
3 274 276 264
3 276 265 264
3 276 277 265
3 277 275 265
3 278 267 266
3 275 278 266
3 279 268 267
3 278 279 267
3 280 269 268
3 279 280 268
3 271 281 270
3 270 281 274
3 272 282 271
3 271 282 281
3 273 283 272
3 272 283 282
3 281 284 274
3 274 284 276
3 285 278 275
3 277 285 275
3 284 286 276
3 286 285 277
3 276 286 277
3 287 279 278
3 285 287 278
3 288 280 279
3 287 288 279
3 282 289 281
3 281 289 284
3 283 290 282
3 282 290 289
3 289 291 284
3 284 291 286
3 291 292 286
3 292 287 285
3 286 292 285
3 293 288 287
3 292 293 287
3 290 294 289
3 289 294 291
3 294 295 291
3 295 293 292
3 291 295 292
CELL_TYPES 542
5
5
5
5
5
5
5
5
5
5
5
5
5
5
5
5
5
5
5
5
5
5
5
5
5
5
5
5
5
5
5
5
5
5
5
5
5
5
5
5
5
5
5
5
5
5
5
5
5
5
5
5
5
5
5
5
5
5
5
5
5
5
5
5
5
5
5
5
5
5
5
5
5
5
5
5
5
5
5
5
5
5
5
5
5
5
5
5
5
5
5
5
5
5
5
5
5
5
5
5
5
5
5
5
5
5
5
5
5
5
5
5
5
5
5
5
5
5
5
5
5
5
5
5
5
5
5
5
5
5
5
5
5
5
5
5
5
5
5
5
5
5
5
5
5
5
5
5
5
5
5
5
5
5
5
5
5
5
5
5
5
5
5
5
5
5
5
5
5
5
5
5
5
5
5
5
5
5
5
5
5
5
5
5
5
5
5
5
5
5
5
5
5
5
5
5
5
5
5
5
5
5
5
5
5
5
5
5
5
5
5
5
5
5
5
5
5
5
5
5
5
5
5
5
5
5
5
5
5
5
5
5
5
5
5
5
5
5
5
5
5
5
5
5
5
5
5
5
5
5
5
5
5
5
5
5
5
5
5
5
5
5
5
5
5
5
5
5
5
5
5
5
5
5
5
5
5
5
5
5
5
5
5
5
5
5
5
5
5
5
5
5
5
5
5
5
5
5
5
5
5
5
5
5
5
5
5
5
5
5
5
5
5
5
5
5
5
5
5
5
5
5
5
5
5
5
5
5
5
5
5
5
5
5
5
5
5
5
5
5
5
5
5
5
5
5
5
5
5
5
5
5
5
5
5
5
5
5
5
5
5
5
5
5
5
5
5
5
5
5
5
5
5
5
5
5
5
5
5
5
5
5
5
5
5
5
5
5
5
5
5
5
5
5
5
5
5
5
5
5
5
5
5
5
5
5
5
5
5
5
5
5
5
5
5
5
5
5
5
5
5
5
5
5
5
5
5
5
5
5
5
5
5
5
5
5
5
5
5
5
5
5
5
5
5
5
5
5
5
5
5
5
5
5
5
5
5
5
5
5
5
5
5
5
5
5
5
5
5
5
5
5
5
5
5
5
5
5
5
5
5
5
5
5
5
5
5
5
5
5
5
5
5
5
5
5
5
5
5
5
5
5
5
5
5
5
5
5
5
5
5
5
5
5
5
5
5
5
5
5
5
5
5
5
5
5
5
5
5
5
5
5
5
5
5
5
5
5
5
5
5
5
POINT_DATA 296
SCALARS concentrations float 4
LOOKUP_TABLE default
0 0.995787 0.164051 10.9345
0 0.995789 0.166948 7.04037
0 0.995788 0.165011 9.43661
0 0.995749 0.16443 11.5617
0 0.995769 0.0949978 0.991159
0 0.995752 0.163484 17.0594
0 0.995769 0.16294 14.0853
0 0.995781 0.0957422 1.02052
0 0.99576 0.0950415 0.133566
0 0.995823 0.163059 10.7991
0 0.99578 0.161188 7.33002
0 0.995716 0.160711 11.2624
0 0.995829 0.160749 8.7177
0 0.995774 0.0947352 1.19313
0 0.995743 0.0941468 1.11341
0 0.995774 0.104588 0.384325
0 0.995754 0.0951876 1.32482
0 0.995735 0.0948525 0.127928
0 0.995766 0.0937581 0.0800768
0 0.995764 0.0962775 0.169389
0 0.995742 0.0945821 0.284553
0 0.995679 0.158282 21.8074
0 0.995718 0.165705 12.9454
0 0.995782 0.0936775 0.182387
0 0.995716 0.0927863 -0.305911
0 0.995776 0.0945769 -1.27479
0 0.995823 0.158691 7.96663
0 0.995838 0.095296 1.17065
0 0.995689 0.160759 13.5086
0 0.995792 0.0952861 0.404164
0 0.99579 0.0948891 -0.206616
0 0.995791 0.0972465 -1.02781
0 0.995693 0.160432 12.7669
0 0.995762 0.0998251 -0.00082473
0 0.995755 0.0984973 1.70393
0 0.99573 0.0943461 0.520189
0 0.99574 0.0932355 -0.092341
0 0.99575 0.102482 -1.38343
0 0.995743 0.0945291 0.575733
0 0.995703 0.0928995 -0.206119
0 0.995721 0.093915 0.100032
0 0.995736 0.0942727 -0.317293
0 0.995725 0.0941097 -0.448913
0 0.995723 0.161914 14.9877
0 0.995799 0.0997558 -1.71249
0 0.995779 0.0950174 0.667254
0 0.995812 0.0964542 2.12194
0 0.995643 0.160414 9.97639
0 0.995699 0.0943235 1.4604
0 0.995685 0.162515 13.449
0 0.995767 0.102966 1.03702
0 0.995772 0.0975423 0.96846
0 0.995752 0.0983502 1.59704
0 0.995717 0.0934636 0.287392
0 0.995748 0.0932716 0.882711
0 0.995747 0.0967359 0.997564
0 0.995745 0.0939237 -0.189351
0 0.995751 0.0940767 -0.272775
0 0.995746 0.0957294 0.158324
0 0.995744 0.0942823 -0.356883
0 0.995755 0.0941671 0.203643
0 0.995754 0.0942654 -0.200097
0 0.995761 0.0945091 -0.440186
0 0.995737 0.163377 9.59837
0 0.995768 0.0966379 3.02943
0 0.995784 0.105755 -3.11553
0 0.995785 0.0954056 1.52204
0 0.995706 0.0942921 1.69917
0 0.995763 0.0948991 1.04401
0 0.995797 0.163727 9.11713
0 0.99576 0.0938868 0.982291
0 0.995905 0.160299 3.67862
0 0.995753 0.0989614 -0.255082
0 0.995749 0.0969319 3.16125
0 0.995759 0.0952891 1.16105
0 0.995758 0.0935014 0.52981
0 0.995747 0.0943611 1.44798
0 0.99577 0.0936568 0.99772
0 0.995758 0.0947169 -0.216131
0 0.995767 0.100963 2.79591
0 0.995762 0.0943148 -1.02865
0 0.995764 0.096072 0.97984
0 0.995774 0.0946784 -0.318033
0 0.995772 0.093876 0.334185
0 0.995771 0.0943759 0.26217
0 0.995724 0.161778 8.73685
0 0.995756 0.0963824 0.995171
0 0.995772 0.0981393 -2.03983
0 0.995781 0.0943131 0.746883
0 0.995778 0.0944946 -1.35517
0 0.995838 0.0942994 1.13299
0 0.995795 0.0941714 0.664423
0 0.995962 0.15736 6.47994
0 0.995896 0.0954524 -0.0122134
0 0.995767 0.0949194 0.223101
0 0.99576 0.0960899 -0.35306
0 0.995773 0.0946212 -0.972101
0 0.99576 0.0942366 0.860902
0 0.995872 0.15922 11.7582
0 0.995754 0.0958072 2.66538
0 0.995768 0.0933111 0.772601
0 0.99577 0.0940462 1.36585
0 0.99577 0.0936697 1.03604
0 0.995781 0.0944855 -1.40592
0 0.995777 0.0983687 -2.19313
0 0.995778 0.0947279 0.16952
0 0.995788 0.0942998 -0.181934
0 0.995767 0.0945657 -0.325006
0 0.995774 0.0938321 0.0688306
0 0.995757 0.162004 9.71705
0 0.995772 0.0944798 -0.923048
0 0.995783 0.0942186 0.955771
0 0.995812 0.0951771 0.458955
0 0.995784 0.0948174 0.977183
0 0.995858 0.101327 1.61387
0 0.995798 0.0964356 -1.07003
0 0.9958 0.0972347 1.49643
0 0.995802 0.0951983 -0.965229
0 0.995798 0.094149 -0.602022
0 0.99579 0.096202 -1.22556
0 0.995776 0.102346 2.53353
0 0.995773 0.0945184 -0.578509
0 0.995772 0.100947 -0.919195
0 0.995812 0.0960703 -0.278162
0 0.995851 0.159754 9.9573
0 0.995768 0.0951436 1.60413
0 0.99577 0.0962559 2.92417
0 0.995763 0.0953059 -0.569335
0 0.99577 0.0958718 1.96178
0 0.995794 0.0971425 1.0728
0 0.995792 0.0948706 -0.934781
0 0.995769 0.0944137 0.701999
0 0.995774 0.0943711 -0.869553
0 0.995772 0.0964032 1.64628
0 0.995746 0.163486 17.0473
0 0.99579 0.0945406 0.656584
0 0.995787 0.0950683 -0.10681
0 0.995747 0.0971117 1.55052
0 0.995775 0.0961946 0.689311
0 0.995838 0.094709 -1.22146
0 0.995757 0.102109 4.67018
0 0.995774 0.101596 3.12515
0 0.995805 0.0939718 -0.511661
0 0.995819 0.0933025 -0.3753
0 0.995793 0.0982574 -0.95354
0 0.995769 0.104264 -1.871
0 0.995759 0.095059 0.786364
0 0.995807 0.0942313 0.496893
0 0.99582 0.0942399 -0.889175
0 0.995845 0.0949685 -1.12603
0 0.995907 0.158776 5.73404
0 0.995754 0.0982615 2.27768
0 0.995791 0.0974966 3.22526
0 0.99578 0.0964657 3.05174
0 0.995759 0.0947413 -1.61671
0 0.995814 0.0960408 3.29601
0 0.995786 0.0953877 1.065
0 0.995774 0.0946636 -0.89379
0 0.995781 0.0955253 -0.453766
0 0.995744 0.09493 -0.0541805
0 0.995814 0.0951566 1.96101
0 0.995758 0.157579 3.88058
0 0.995789 0.0953704 -0.766694
0 0.995763 0.102044 -4.5966
0 0.995765 0.0954976 -1.4457
0 0.995767 0.0961153 -1.5055
0 0.995751 0.0950203 1.13633
0 0.99578 0.100095 -1.23507
0 0.995814 0.0944619 0.0815614
0 0.995791 0.0977852 -0.624769
0 0.995794 0.0949745 -0.803855
0 0.995811 0.0946676 0.886899
0 0.995815 0.0936333 0.482574
0 0.995834 0.0958896 -1.06465
0 0.995891 0.161702 7.18738
0 0.995756 0.0949436 -0.0971934
0 0.995789 0.0956599 1.34694
0 0.995778 0.0952889 1.09702
0 0.995823 0.0948815 2.54691
0 0.995785 0.0953757 3.15512
0 0.995774 0.10248 3.12084
0 0.99577 0.0967493 -1.80284
0 0.995776 0.0982017 -1.45546
0 0.99576 0.0941302 -0.625751
0 0.995764 0.0957177 1.66566
0 0.995824 0.0942752 2.29543
0 0.995866 0.0943896 2.17352
0 0.995845 0.161711 5.3298
0 0.995794 0.0951201 -0.0271521
0 0.99577 0.100961 -1.20817
0 0.995756 0.095594 1.05583
0 0.995741 0.0975098 -1.51723
0 0.995799 0.0952196 -0.246416
0 0.995813 0.0941934 0.389574
0 0.995802 0.0950226 -0.779457
0 0.995805 0.094089 -0.949526
0 0.995809 0.095074 0.461379
0 0.995803 0.0953515 -0.323128
0 0.995804 0.0962603 -1.47518
0 0.995747 0.0976609 1.90738
0 0.995837 0.0954023 1.31737
0 0.995886 0.159265 9.60276
0 0.995771 0.0950665 2.05689
0 0.995784 0.096252 -2.24561
0 0.995787 0.0949997 2.33827
0 0.995763 0.095758 -2.26113
0 0.995779 0.0954037 -0.888506
0 0.99577 0.0948912 0.105401
0 0.995816 0.0945316 -2.42188
0 0.995865 0.0935037 0.965769
0 0.99589 0.15931 3.9466
0 0.995794 0.096079 1.66407
0 0.995762 0.098004 3.81086
0 0.995746 0.104035 -0.351429
0 0.995815 0.102706 -4.32834
0 0.99582 0.0953728 0.754748
0 0.9958 0.0951735 -1.41435
0 0.995795 0.0943556 -1.28151
0 0.995804 0.0953006 -0.378656
0 0.99579 0.0962237 -1.75008
0 0.995737 0.0961133 -0.708966
0 0.995793 0.0958574 -1.32525
0 0.995861 0.15873 5.47725
0 0.99577 0.0954091 -2.23906
0 0.995778 0.0992755 2.14337
0 0.995775 0.0950894 -1.58572
0 0.99579 0.0948904 -0.613289
0 0.995771 0.0960267 1.36104
0 0.995811 0.0950112 0.681611
0 0.995858 0.0941833 -1.59149
0 0.995878 0.161201 4.055
0 0.995801 0.101334 2.43917
0 0.995765 0.0996626 1.336
0 0.995816 0.0984186 -1.40497
0 0.995812 0.0966459 -2.33366
0 0.995793 0.0939741 -0.66924
0 0.995782 0.097412 0.0653102
0 0.995774 0.0983376 -2.92711
0 0.995769 0.100329 2.42673
0 0.99577 0.0959842 2.00034
0 0.995766 0.0965335 -0.303487
0 0.995777 0.095507 -0.25274
0 0.995797 0.15905 11.6975
0 0.995771 0.0956533 -0.872333
0 0.995786 0.0943565 -0.104019
0 0.995763 0.0985493 -0.819367
0 0.995799 0.0952029 1.50302
0 0.995883 0.0944961 -0.638864
0 0.995898 0.159646 5.19128
0 0.99579 0.0957888 2.2598
0 0.995784 0.0949819 0.505322
0 0.995776 0.0946181 -1.39506
0 0.995772 0.0957983 -0.869652
0 0.995764 0.0979682 1.63541
0 0.995775 0.10372 0.335483
0 0.995793 0.0958713 0.143309
0 0.995844 0.0949077 0.794415
0 0.995822 0.15991 9.27362
0 0.995765 0.0959304 2.1154
0 0.995757 0.0959039 -2.42991
0 0.995787 0.0954795 2.75716
0 0.995883 0.0948711 -1.5149
0 0.995948 0.157677 3.44079
0 0.995764 0.0958679 2.20979
0 0.995761 0.0965215 1.10095
0 0.995763 0.0951417 0.869145
0 0.995778 0.099102 1.68398
0 0.995811 0.0955399 0.662499
0 0.995893 0.0948952 1.31827
0 0.995933 0.1595 4.72982
0 0.995751 0.0949795 0.486632
0 0.995775 0.0952082 -0.718463
0 0.995856 0.0942354 1.1118
0 0.995927 0.160628 3.1151
0 0.995759 0.0953748 -0.717641
0 0.995776 0.0967922 1.27893
0 0.99575 0.0966554 1.32162
0 0.995763 0.100995 -0.0099405
0 0.995812 0.096133 0.51622
0 0.995863 0.0950703 0.637511
0 0.995929 0.160298 2.91497
0 0.995766 0.0950032 1.22505
0 0.995854 0.0948278 0.502514
0 0.995909 0.160847 10.0357
0 0.995767 0.0947375 0.793168
0 0.995795 0.0965984 1.59163
0 0.995767 0.0967161 1.28356
0 0.995852 0.0955252 0.174623
0 0.995876 0.159342 8.75871
0 0.995841 0.0950376 -1.00063
0 0.995914 0.16017 2.32137
0 0.995818 0.0951786 -0.60902
0 0.995838 0.0953134 -0.113555
0 0.995882 0.158773 2.36788
0 0.995874 0.158419 11.2163
0 0.995856 0.158158 10.5897
VECTORS fa_u float
0.00617938 0.00255256 -0
0.00569574 0.00328825 -0
0.00593816 0.00159341 -0
0.00659837 0.000880775 -0
1e-08 0 0
0.0051689 0.00396658 -0
0.00442106 0.00440682 -0
1e-08 0 0
1e-08 0 0
0.0040302 0.00522129 -0
0.0034074 0.00588453 -0
0.00644764 1.08544e-05 -0
0.00653276 -0.000847204 0
1e-08 0 0
1e-08 0 0
1e-08 0 0
1e-08 0 0
1e-08 0 0
1e-08 0 0
1e-08 0 0
1e-08 0 0
0.00254537 0.0061559 -0
0.00168301 0.00631219 -0
1e-08 0 0
1e-08 0 0
1e-08 0 0
0.00646137 -0.00172461 0
1e-08 0 0
0.00633712 -0.0026354 0
1e-08 0 0
1e-08 0 0
1e-08 0 0
0.000849154 0.00651913 -0
1e-08 0 0
1e-08 0 0
1e-08 0 0
1e-08 0 0
1e-08 0 0
1e-08 0 0
1e-08 0 0
1e-08 0 0
1e-08 0 0
1e-08 0 0
-1.15154e-05 0.00658007 -0
1e-08 0 0
1e-08 0 0
1e-08 0 0
0.00575079 -0.00334811 0
1e-08 0 0
0.00485294 -0.00373956 0
1e-08 0 0
1e-08 0 0
1e-08 0 0
1e-08 0 0
1e-08 0 0
1e-08 0 0
1e-08 0 0
1e-08 0 0
1e-08 0 0
1e-08 0 0
1e-08 0 0
1e-08 0 0
1e-08 0 0
-0.000830938 0.00626901 0
1e-08 0 0
1e-08 0 0
1e-08 0 0
1e-08 0 0
1e-08 0 0
0.00451598 -0.00450841 0
1e-08 0 0
0.00387444 -0.00502138 0
1e-08 0 0
1e-08 0 0
1e-08 0 0
1e-08 0 0
1e-08 0 0
1e-08 0 0
1e-08 0 0
1e-08 0 0
1e-08 0 0
1e-08 0 0
1e-08 0 0
1e-08 0 0
1e-08 0 0
-0.00168616 0.00630191 0
1e-08 0 0
1e-08 0 0
1e-08 0 0
1e-08 0 0
1e-08 0 0
1e-08 0 0
0.00345798 -0.00596257 0
1e-08 0 0
1e-08 0 0
1e-08 0 0
1e-08 0 0
1e-08 0 0
0.00259687 -0.00628953 0
1e-08 0 0
1e-08 0 0
1e-08 0 0
1e-08 0 0
1e-08 0 0
1e-08 0 0
1e-08 0 0
1e-08 0 0
1e-08 0 0
1e-08 0 0
-0.00251854 0.00608431 0
1e-08 0 0
1e-08 0 0
1e-08 0 0
1e-08 0 0
1e-08 0 0
1e-08 0 0
1e-08 0 0
1e-08 0 0
1e-08 0 0
1e-08 0 0
1e-08 0 0
1e-08 0 0
1e-08 0 0
1e-08 0 0
0.00163491 -0.00613821 0
1e-08 0 0
1e-08 0 0
1e-08 0 0
1e-08 0 0
1e-08 0 0
1e-08 0 0
1e-08 0 0
1e-08 0 0
1e-08 0 0
-0.0032733 0.00566906 0
1e-08 0 0
1e-08 0 0
1e-08 0 0
1e-08 0 0
1e-08 0 0
1e-08 0 0
1e-08 0 0
1e-08 0 0
1e-08 0 0
1e-08 0 0
1e-08 0 0
1e-08 0 0
1e-08 0 0
1e-08 0 0
1e-08 0 0
0.00083156 -0.00629514 0
1e-08 0 0
1e-08 0 0
1e-08 0 0
1e-08 0 0
1e-08 0 0
1e-08 0 0
1e-08 0 0
1e-08 0 0
1e-08 0 0
1e-08 0 0
-0.00402879 0.00524573 0
1e-08 0 0
1e-08 0 0
1e-08 0 0
1e-08 0 0
1e-08 0 0
1e-08 0 0
1e-08 0 0
1e-08 0 0
1e-08 0 0
1e-08 0 0
1e-08 0 0
1e-08 0 0
6.95386e-06 -0.00659972 0
1e-08 0 0
1e-08 0 0
1e-08 0 0
1e-08 0 0
1e-08 0 0
1e-08 0 0
1e-08 0 0
1e-08 0 0
1e-08 0 0
1e-08 0 0
1e-08 0 0
1e-08 0 0
-0.0043552 0.00436491 0
1e-08 0 0
1e-08 0 0
1e-08 0 0
1e-08 0 0
1e-08 0 0
1e-08 0 0
1e-08 0 0
1e-08 0 0
1e-08 0 0
1e-08 0 0
1e-08 0 0
1e-08 0 0
1e-08 0 0
-0.000854941 -0.00652155 0
1e-08 0 0
1e-08 0 0
1e-08 0 0
1e-08 0 0
1e-08 0 0
1e-08 0 0
1e-08 0 0
1e-08 0 0
-0.00521676 0.00402609 0
1e-08 0 0
1e-08 0 0
1e-08 0 0
1e-08 0 0
1e-08 0 0
1e-08 0 0
1e-08 0 0
1e-08 0 0
1e-08 0 0
1e-08 0 0
1e-08 0 0
-0.00165525 -0.00620114 0
1e-08 0 0
1e-08 0 0
1e-08 0 0
1e-08 0 0
1e-08 0 0
1e-08 0 0
1e-08 0 0
-0.00584278 0.00338469 0
1e-08 0 0
1e-08 0 0
1e-08 0 0
1e-08 0 0
1e-08 0 0
1e-08 0 0
1e-08 0 0
1e-08 0 0
1e-08 0 0
1e-08 0 0
1e-08 0 0
-0.00258616 -0.00625095 0
1e-08 0 0
1e-08 0 0
1e-08 0 0
1e-08 0 0
1e-08 0 0
-0.00619398 0.0025626 0
1e-08 0 0
1e-08 0 0
1e-08 0 0
1e-08 0 0
1e-08 0 0
1e-08 0 0
1e-08 0 0
1e-08 0 0
-0.00338572 -0.00584086 0
1e-08 0 0
1e-08 0 0
1e-08 0 0
1e-08 0 0
-0.00625888 0.0016707 0
1e-08 0 0
1e-08 0 0
1e-08 0 0
1e-08 0 0
1e-08 0 0
1e-08 0 0
-0.00388775 -0.00504624 0
1e-08 0 0
1e-08 0 0
1e-08 0 0
-0.00650616 0.000851459 0
1e-08 0 0
1e-08 0 0
1e-08 0 0
1e-08 0 0
1e-08 0 0
1e-08 0 0
-0.00452519 -0.00452206 0
1e-08 0 0
1e-08 0 0
-0.0067289 -1.21798e-05 0
1e-08 0 0
1e-08 0 0
1e-08 0 0
1e-08 0 0
-0.0051542 -0.00395991 0
1e-08 0 0
-0.00625541 -0.000833919 0
1e-08 0 0
1e-08 0 0
-0.00582261 -0.00336085 0
-0.00616701 -0.00164991 0
-0.00606028 -0.00250244 0
