# vtk DataFile Version 2.0
CellBP Time: 5.8
ASCII
DATASET UNSTRUCTURED_GRID
POINTS 296 double
-8.98836 -3.68355 0
-8.42644 -4.83924 0
-9.38407 -2.45875 0
-9.65715 -1.22046 0
-8.14397 -2.73035 0
-7.70848 -5.90897 0
-6.858 -6.87626 0
-7.70413 -3.75757 0
-7.14046 -4.73531 0
-5.92268 -7.74305 0
-4.88335 -8.47432 0
-9.76065 0.0397241 0
-9.69964 1.32124 0
-8.45928 -1.63197 0
-8.61231 -0.50956 0
-7.387 -1.93096 0
-7.01658 -2.80505 0
-6.47559 -5.65208 0
-5.70189 -6.47127 0
-6.58858 -3.76732 0
-6.04787 -4.55203 0
-3.72953 -9.04168 0
-2.49877 -9.44459 0
-4.81967 -7.18961 0
-3.86261 -7.77037 0
-8.62691 0.630665 0
-9.47337 2.59993 0
-8.4761 1.73674 0
-9.06149 3.82028 0
-7.55992 -0.892087 0
-7.62255 0.0879486 0
-6.77487 -1.26454 0
-1.22459 -9.68514 0
-6.27741 -2.08336 0
-6.14952 -2.96287 0
-5.40007 -5.35522 0
-4.69038 -6.0005 0
-5.508 -3.65723 0
-5.126 -4.45255 0
-2.82848 -8.23607 0
-1.75266 -8.49764 0
-3.85718 -6.61202 0
-3.02068 -7.04499 0
0.0542672 -9.7494 0
-7.54535 1.11954 0
-8.21575 2.87059 0
-7.40522 2.05953 0
-8.45457 4.95075 0
-7.7395 3.89794 0
-7.70131 5.99574 0
-6.61915 -0.374002 0
-6.7975 0.548622 0
-5.64867 -0.976456 0
-0.582224 -8.64947 0
0.546874 -8.58902 0
-5.18418 -2.41584 0
-4.3758 -4.98538 0
-3.81667 -5.66791 0
-4.33847 -3.72613 0
-2.03161 -7.44078 0
-1.11843 -7.65326 0
-2.94166 -5.99699 0
-2.27929 -6.5148 0
1.31902 -9.63792 0
-6.54937 1.38745 0
-7.02278 3.04215 0
-6.52341 2.31788 0
-7.14423 4.8775 0
-6.58096 3.90856 0
-6.85603 6.95001 0
-6.42846 5.76102 0
-5.90497 7.80809 0
-4.38772 -1.16839 0
-5.70437 0.494692 0
-4.58952 -0.0249088 0
-0.00251787 -7.68701 0
1.68996 -8.43969 0
0.911503 -7.58586 0
-3.97493 -2.36468 0
-3.46152 -1.38166 0
-3.23201 -4.71922 0
-3.22625 -3.2176 0
-1.36815 -6.55568 0
-0.51945 -6.88559 0
-1.95283 -5.45097 0
2.57486 -9.39016 0
-5.40425 1.99994 0
-5.96924 2.99903 0
-5.97911 4.7525 0
-5.63925 3.88999 0
-5.62975 6.56097 0
-5.33338 5.48288 0
-4.86529 8.55554 0
-4.72748 7.22698 0
-3.46735 -0.420719 0
-4.37968 1.23119 0
-3.66328 0.586201 0
-3.9954 2.29775 0
-3.72058 9.12603 0
2.77537 -8.11068 0
0.380898 -6.63915 0
1.94755 -7.32949 0
1.24564 -6.732 0
-2.42781 -0.865033 0
-2.81598 -2.11115 0
-2.26969 -4.03826 0
-2.30196 -2.93587 0
-0.449027 -5.74753 0
-1.20507 -4.43505 0
3.7915 -8.99193 0
-4.694 3.32107 0
-4.98005 4.48107 0
-4.54358 6.12282 0
-4.4409 5.22901 0
-3.76808 7.8272 0
-3.73345 6.66822 0
-2.72166 8.23529 0
-1.63876 -0.126399 0
-1.43826 -0.878903 0
-2.47392 0.51609 0
-3.21216 1.43663 0
-3.18675 3.27095 0
-2.8734 2.36156 0
-1.35045 0.636624 0
-2.4959 9.51738 0
3.81896 -7.6753 0
2.8593 -6.94494 0
0.908492 -5.68898 0
1.99648 -6.24034 0
-1.66641 -1.9784 0
-1.4189 -3.24029 0
0.0818297 -4.66603 0
-0.556985 -3.64908 0
4.80227 -7.11964 0
4.94054 -8.43012 0
-3.7015 4.45661 0
-3.65237 5.61547 0
-2.81336 7.10941 0
-2.94185 6.20262 0
-1.62785 8.55625 0
-1.8907 7.45033 0
-2.306 3.98927 0
-0.722403 -1.3197 0
-0.831452 -0.247978 0
-1.931 1.68995 0
-2.10648 2.85949 0
-1.2975 3.51347 0
-0.872068 1.36022 0
-0.285315 0.462947 0
-0.52614 8.70533 0
-1.23091 9.75747 0
1.07666 -4.48081 0
3.78133 -6.50026 0
2.89029 -5.91518 0
2.04939 -5.28245 0
4.65589 -6.01763 0
-0.549764 -2.45968 0
0.491254 -3.42137 0
0.0585678 -1.60345 0
1.45038 -3.6111 0
5.72985 -6.44114 0
6.00772 -7.71253 0
-2.42678 5.23885 0
-2.07448 6.38666 0
-0.877072 7.65072 0
-1.2293 6.78234 0
0.0939858 7.74231 0
-1.13068 4.43082 0
0.148994 -0.61149 0
-0.806721 2.49374 0
-0.342236 3.57969 0
0.0543426 1.51535 0
0.735348 0.475227 0
0.632749 8.72719 0
0.0438024 9.86265 0
2.31804 -4.18226 0
3.7486 -5.46828 0
2.91677 -5.06724 0
5.45037 -5.34245 0
4.57325 -5.11933 0
0.630994 -2.28472 0
1.24043 -2.91352 0
0.75808 -1.38817 0
2.12425 -3.07938 0
2.93486 -3.40117 0
6.03832 -4.67861 0
6.52284 -5.63871 0
6.96834 -6.85388 0
-0.994281 5.71225 0
-0.34921 6.74971 0
1.10793 7.64805 0
0.563124 6.95526 0
-0.00267817 4.66871 0
0.595688 3.7937 0
1.33292 -0.642364 0
0.5253 2.64113 0
0.952708 1.57624 0
1.89607 0.208659 0
1.60219 1.06085 0
2.10294 7.47021 0
1.77447 8.57668 0
1.33021 9.78947 0
3.73716 -4.23448 0
5.00753 -4.31822 0
5.74124 -3.83757 0
3.71652 -3.12648 0
1.79953 -1.87705 0
2.97627 -2.53428 0
6.67139 -3.8666 0
7.25478 -4.8051 0
7.83345 -5.91268 0
0.482805 5.78735 0
1.41391 6.63651 0
2.34563 6.57225 0
1.19199 4.50144 0
1.46892 3.36176 0
2.41379 -0.690363 0
2.80099 0.14087 0
1.77064 2.15198 0
2.59425 1.14258 0
3.03364 7.06744 0
2.86952 8.25079 0
2.60125 9.54336 0
4.82348 -3.24383 0
6.02142 -3.04047 0
4.11284 -2.23926 0
3.20744 -1.49078 0
6.63403 -2.27938 0
7.12845 -2.99462 0
7.85009 -3.8556 0
8.56839 -4.87443 0
2.0021 5.52382 0
3.02622 6.05507 0
2.33941 4.07491 0
2.39719 3.02672 0
3.48644 -0.45423 0
3.5785 0.612973 0
2.93116 2.26422 0
3.4988 1.50892 0
3.92344 5.79425 0
3.91454 6.68554 0
3.92315 7.82389 0
3.82904 9.13702 0
5.49102 -1.88601 0
4.45256 -1.11263 0
6.61227 -1.315 0
7.48132 -2.00724 0
8.27068 -2.82027 0
9.13969 -3.72467 0
3.34382 4.79215 0
3.28187 3.33211 0
4.62877 0.134196 0
4.44107 1.28565 0
3.98457 2.39681 0
4.45108 5.04632 0
4.73734 6.08031 0
4.89552 7.2514 0
4.97859 8.56571 0
5.7851 -0.435865 0
6.88943 -0.486604 0
7.64019 -1.06189 0
8.54845 -1.7156 0
9.54468 -2.49499 0
4.44148 3.74804 0
5.69652 1.06015 0
5.23926 2.47066 0
5.22861 4.51205 0
5.4719 5.40801 0
5.77775 6.54278 0
6.01688 7.83369 0
6.70467 0.437039 0
7.71299 -0.027225 0
8.71097 -0.565511 0
9.78847 -1.22188 0
6.80155 1.29893 0
5.5603 3.68202 0
6.37586 2.12397 0
6.20237 2.99684 0
6.11651 4.56928 0
6.53054 5.70932 0
6.9636 6.97504 0
7.62562 0.936734 0
8.68778 0.56432 0
9.8572 0.0611375 0
7.43535 1.94269 0
6.62068 3.78555 0
7.07145 2.85393 0
7.19533 4.76774 0
7.82223 6.01532 0
8.52981 1.68802 0
9.74275 1.32546 0
8.20822 2.76027 0
7.78553 3.81993 0
8.54036 4.94997 0
9.49693 2.58251 0
9.10035 3.79974 0
CELLS 542 2168
3 2 0 4
3 0 1 7
3 4 0 7
3 1 5 8
3 7 1 8
3 3 2 13
3 13 2 4
3 11 3 14
3 14 3 13
3 13 4 15
3 4 7 16
3 15 4 16
3 5 6 17
3 8 5 17
3 6 9 18
3 17 6 18
3 7 8 19
3 16 7 19
3 8 17 20
3 19 8 20
3 9 10 23
3 18 9 23
3 10 21 24
3 23 10 24
3 12 11 25
3 25 11 14
3 26 12 27
3 27 12 25
3 14 13 29
3 29 13 15
3 25 14 30
3 30 14 29
3 29 15 31
3 15 16 33
3 31 15 33
3 16 19 34
3 33 16 34
3 17 18 35
3 20 17 35
3 18 23 36
3 35 18 36
3 19 20 37
3 34 19 37
3 20 35 38
3 37 20 38
3 21 22 39
3 24 21 39
3 22 32 40
3 39 22 40
3 23 24 41
3 36 23 41
3 24 39 42
3 41 24 42
3 27 25 44
3 44 25 30
3 28 26 45
3 45 26 27
3 45 27 46
3 46 27 44
3 47 28 48
3 48 28 45
3 30 29 50
3 50 29 31
3 44 30 51
3 51 30 50
3 50 31 52
3 31 33 52
3 32 43 53
3 40 32 53
3 53 43 54
3 33 34 55
3 34 37 55
3 33 55 52
3 35 36 56
3 38 35 56
3 36 41 57
3 56 36 57
3 37 38 58
3 38 56 58
3 37 58 55
3 39 40 59
3 42 39 59
3 40 53 60
3 59 40 60
3 41 42 61
3 57 41 61
3 42 59 62
3 61 42 62
3 43 63 54
3 46 44 64
3 64 44 51
3 48 45 65
3 65 45 46
3 65 46 66
3 66 46 64
3 49 47 67
3 67 47 48
3 67 48 68
3 68 48 65
3 69 49 70
3 70 49 67
3 52 55 72
3 64 51 73
3 51 50 73
3 50 52 73
3 73 52 74
3 74 52 72
3 53 54 75
3 60 53 75
3 54 63 76
3 54 76 77
3 75 54 77
3 55 58 78
3 72 55 78
3 72 78 79
3 56 57 80
3 57 61 80
3 56 80 58
3 58 80 81
3 78 58 81
3 59 60 82
3 62 59 82
3 60 75 83
3 82 60 83
3 61 62 84
3 62 82 84
3 61 84 80
3 63 85 76
3 66 64 86
3 64 73 86
3 68 65 87
3 87 65 66
3 87 66 86
3 70 67 88
3 88 67 68
3 88 68 89
3 89 68 87
3 71 69 90
3 90 69 70
3 90 70 91
3 91 70 88
3 92 71 93
3 93 71 90
3 74 72 94
3 94 72 79
3 86 73 95
3 95 73 74
3 95 74 96
3 96 74 94
3 97 86 95
3 76 85 99
3 75 77 100
3 83 75 100
3 76 99 101
3 77 76 101
3 77 101 102
3 100 77 102
3 94 79 103
3 78 81 104
3 79 78 104
3 79 104 103
3 80 84 105
3 81 80 105
3 81 105 106
3 104 81 106
3 82 83 107
3 83 100 107
3 82 107 84
3 84 107 108
3 105 84 108
3 85 109 99
3 89 87 110
3 87 86 110
3 110 86 97
3 91 88 111
3 111 88 89
3 111 89 110
3 93 90 112
3 112 90 91
3 112 91 113
3 113 91 111
3 98 92 114
3 114 92 93
3 114 93 115
3 115 93 112
3 116 98 114
3 117 103 118
3 96 94 119
3 94 103 119
3 119 103 117
3 97 95 120
3 120 95 96
3 120 96 119
3 121 110 97
3 121 97 122
3 122 97 120
3 123 119 117
3 124 98 116
3 99 109 125
3 99 125 126
3 101 99 126
3 100 102 127
3 100 127 107
3 101 126 128
3 102 101 128
3 102 128 127
3 104 106 129
3 104 129 103
3 103 129 118
3 105 108 130
3 106 105 130
3 106 130 129
3 107 127 131
3 108 107 131
3 108 131 132
3 108 132 130
3 109 134 125
3 125 134 133
3 113 111 135
3 111 110 135
3 135 110 121
3 115 112 136
3 136 112 113
3 136 113 135
3 116 114 137
3 137 114 115
3 137 115 138
3 138 115 136
3 139 124 116
3 139 116 140
3 140 116 137
3 141 135 121
3 118 129 142
3 118 142 143
3 117 118 143
3 123 117 143
3 122 120 144
3 120 119 144
3 144 119 123
3 141 121 145
3 145 121 122
3 145 122 144
3 146 141 145
3 147 144 123
3 147 123 148
3 143 148 123
3 150 124 139
3 149 150 139
3 131 127 151
3 125 133 152
3 126 125 152
3 126 152 153
3 128 126 153
3 128 153 154
3 128 154 127
3 127 154 151
3 152 133 155
3 130 132 156
3 130 156 129
3 129 156 142
3 131 151 157
3 132 131 157
3 132 157 156
3 156 158 142
3 157 151 159
3 133 160 155
3 134 161 133
3 133 161 160
3 138 136 162
3 136 135 162
3 162 135 141
3 140 137 163
3 163 137 138
3 163 138 162
3 149 139 164
3 164 139 140
3 164 140 165
3 165 140 163
3 166 149 164
3 167 162 141
3 167 141 146
3 142 158 168
3 143 142 168
3 143 168 148
3 146 145 169
3 145 144 169
3 169 144 147
3 170 167 146
3 170 146 169
3 171 169 147
3 171 147 148
3 171 148 172
3 168 172 148
3 173 149 166
3 174 150 149
3 173 174 149
3 154 175 151
3 151 175 159
3 152 155 176
3 153 152 176
3 153 176 177
3 153 177 154
3 154 177 175
3 155 160 178
3 155 178 179
3 176 155 179
3 156 157 180
3 156 180 158
3 157 159 181
3 157 181 180
3 158 180 182
3 158 182 168
3 159 175 183
3 159 183 181
3 175 184 183
3 160 186 178
3 178 186 185
3 161 187 160
3 160 187 186
3 165 163 188
3 163 162 188
3 188 162 167
3 166 164 189
3 189 164 165
3 189 165 188
3 190 173 166
3 190 166 191
3 191 166 189
3 192 188 167
3 192 167 170
3 193 192 170
3 182 194 168
3 194 172 168
3 193 170 195
3 170 169 195
3 195 169 171
3 196 195 171
3 196 171 172
3 194 197 172
3 197 198 172
3 198 196 172
3 200 173 190
3 199 200 190
3 201 174 173
3 200 201 173
3 176 179 202
3 177 176 202
3 177 202 175
3 175 202 184
3 178 185 203
3 178 203 179
3 179 203 202
3 203 185 204
3 202 205 184
3 183 206 181
3 180 181 206
3 180 206 182
3 182 206 194
3 183 184 207
3 205 207 184
3 183 207 206
3 185 208 204
3 186 209 185
3 185 209 208
3 187 210 186
3 186 210 209
3 191 189 211
3 189 188 211
3 211 188 192
3 199 190 212
3 212 190 191
3 212 191 211
3 213 199 212
3 214 211 192
3 214 192 193
3 215 214 193
3 215 193 195
3 206 216 194
3 216 197 194
3 216 217 197
3 215 195 218
3 218 195 196
3 198 218 196
3 217 219 197
3 219 218 198
3 197 219 198
3 220 199 213
3 221 200 199
3 220 221 199
3 222 201 200
3 221 222 200
3 203 204 223
3 203 223 202
3 202 223 205
3 204 208 224
3 204 224 223
3 205 223 225
3 205 225 207
3 207 225 226
3 207 226 206
3 226 216 206
3 208 228 224
3 224 228 227
3 209 229 208
3 229 228 208
3 210 230 209
3 209 230 229
3 213 212 231
3 212 211 231
3 231 211 214
3 232 220 213
3 232 213 231
3 233 231 214
3 233 214 215
3 234 233 215
3 234 215 218
3 226 235 216
3 235 217 216
3 235 236 217
3 217 236 219
3 237 234 218
3 237 218 219
3 236 238 219
3 238 237 219
3 240 220 232
3 239 240 232
3 241 221 220
3 240 241 220
3 242 222 221
3 241 242 221
3 224 227 243
3 224 243 223
3 223 243 225
3 225 243 244
3 225 244 226
3 226 244 235
3 227 245 243
3 228 246 227
3 227 246 245
3 229 247 228
3 228 247 246
3 230 248 229
3 229 248 247
3 239 232 249
3 232 231 249
3 249 231 233
3 250 249 233
3 250 233 234
3 237 250 234
3 244 251 235
3 235 251 236
3 251 252 236
3 236 252 238
3 252 253 238
3 253 250 237
3 253 237 238
3 254 239 249
3 255 240 239
3 254 255 239
3 256 241 240
3 255 256 240
3 257 242 241
3 256 257 241
3 245 258 243
3 243 258 244
3 244 258 251
3 245 259 258
3 246 260 245
3 245 260 259
3 247 261 246
3 246 261 260
3 248 262 247
3 247 262 261
3 254 249 263
3 263 249 250
3 253 263 250
3 258 264 251
3 251 264 252
3 264 265 252
3 265 263 253
3 252 265 253
3 266 254 263
3 267 255 254
3 266 267 254
3 268 256 255
3 267 268 255
3 269 257 256
3 268 269 256
3 259 270 258
3 270 264 258
3 260 271 259
3 259 271 270
3 261 272 260
3 260 272 271
3 262 273 261
3 273 272 261
3 270 274 264
3 275 266 263
3 275 263 265
3 274 276 264
3 276 265 264
3 276 277 265
3 277 275 265
3 278 267 266
3 275 278 266
3 279 268 267
3 278 279 267
3 280 269 268
3 279 280 268
3 271 281 270
3 270 281 274
3 272 282 271
3 271 282 281
3 273 283 272
3 272 283 282
3 281 284 274
3 274 284 276
3 285 278 275
3 277 285 275
3 284 286 276
3 286 285 277
3 276 286 277
3 287 279 278
3 285 287 278
3 288 280 279
3 287 288 279
3 282 289 281
3 281 289 284
3 283 290 282
3 282 290 289
3 289 291 284
3 284 291 286
3 291 292 286
3 292 287 285
3 286 292 285
3 293 288 287
3 292 293 287
3 290 294 289
3 289 294 291
3 294 295 291
3 295 293 292
3 291 295 292
CELL_TYPES 542
5
5
5
5
5
5
5
5
5
5
5
5
5
5
5
5
5
5
5
5
5
5
5
5
5
5
5
5
5
5
5
5
5
5
5
5
5
5
5
5
5
5
5
5
5
5
5
5
5
5
5
5
5
5
5
5
5
5
5
5
5
5
5
5
5
5
5
5
5
5
5
5
5
5
5
5
5
5
5
5
5
5
5
5
5
5
5
5
5
5
5
5
5
5
5
5
5
5
5
5
5
5
5
5
5
5
5
5
5
5
5
5
5
5
5
5
5
5
5
5
5
5
5
5
5
5
5
5
5
5
5
5
5
5
5
5
5
5
5
5
5
5
5
5
5
5
5
5
5
5
5
5
5
5
5
5
5
5
5
5
5
5
5
5
5
5
5
5
5
5
5
5
5
5
5
5
5
5
5
5
5
5
5
5
5
5
5
5
5
5
5
5
5
5
5
5
5
5
5
5
5
5
5
5
5
5
5
5
5
5
5
5
5
5
5
5
5
5
5
5
5
5
5
5
5
5
5
5
5
5
5
5
5
5
5
5
5
5
5
5
5
5
5
5
5
5
5
5
5
5
5
5
5
5
5
5
5
5
5
5
5
5
5
5
5
5
5
5
5
5
5
5
5
5
5
5
5
5
5
5
5
5
5
5
5
5
5
5
5
5
5
5
5
5
5
5
5
5
5
5
5
5
5
5
5
5
5
5
5
5
5
5
5
5
5
5
5
5
5
5
5
5
5
5
5
5
5
5
5
5
5
5
5
5
5
5
5
5
5
5
5
5
5
5
5
5
5
5
5
5
5
5
5
5
5
5
5
5
5
5
5
5
5
5
5
5
5
5
5
5
5
5
5
5
5
5
5
5
5
5
5
5
5
5
5
5
5
5
5
5
5
5
5
5
5
5
5
5
5
5
5
5
5
5
5
5
5
5
5
5
5
5
5
5
5
5
5
5
5
5
5
5
5
5
5
5
5
5
5
5
5
5
5
5
5
5
5
5
5
5
5
5
5
5
5
5
5
5
5
5
5
5
5
5
5
5
5
5
5
5
5
5
5
5
5
5
5
5
5
5
5
5
5
5
5
5
5
5
5
5
5
5
5
5
5
5
5
5
5
5
5
5
5
5
5
5
5
5
5
5
5
5
5
5
5
5
5
5
5
5
5
5
5
5
5
5
5
5
5
5
5
5
5
5
5
5
5
5
5
5
5
5
5
5
5
5
5
5
5
5
5
5
POINT_DATA 296
SCALARS concentrations float 4
LOOKUP_TABLE default
0 0.961558 0.142412 8.07005
0 0.961522 0.142299 9.0013
0 0.961606 0.143932 10.9868
0 0.96156 0.141431 4.27965
0 0.961585 0.0951394 0.535464
0 0.961473 0.14202 16.1784
0 0.961496 0.145008 11.0994
0 0.96155 0.0952173 -0.503654
0 0.961511 0.0976938 -1.84561
0 0.961525 0.144062 6.41898
0 0.961569 0.140131 7.56992
0 0.961529 0.140643 7.65222
0 0.961549 0.140503 12.9013
0 0.961589 0.0953804 0.846602
0 0.961561 0.0929557 -0.589013
0 0.961584 0.0945246 0.769922
0 0.961567 0.0985834 1.04486
0 0.961508 0.094141 0.32693
0 0.961538 0.0935714 -0.045624
0 0.961551 0.0942763 -0.3909
0 0.961555 0.0946132 -0.680407
0 0.96167 0.143153 1.92034
0 0.961661 0.145546 3.10631
0 0.961565 0.0931618 0.115049
0 0.961625 0.0949267 -0.249014
0 0.961564 0.0954976 -1.09254
0 0.961612 0.139418 1.84745
0 0.961617 0.0953347 -1.39488
0 0.961569 0.141172 8.60928
0 0.961586 0.0934388 -0.21575
0 0.961592 0.0938488 -0.980916
0 0.961587 0.0942986 -0.40347
0 0.961611 0.145249 5.25865
0 0.961565 0.0964559 1.60711
0 0.961553 0.0982096 1.66903
0 0.961569 0.0942058 -0.0927278
0 0.961589 0.0938289 -0.561402
0 0.961567 0.0963087 1.08278
0 0.961583 0.094171 -0.267211
0 0.96166 0.0941017 -0.408999
0 0.961628 0.0942971 -0.394181
0 0.961606 0.0943177 0.0633577
0 0.961622 0.0970257 -1.06466
0 0.961577 0.146174 7.13984
0 0.961626 0.095964 1.92374
0 0.961617 0.0979032 0.0975148
0 0.961639 0.102827 -3.7444
0 0.961572 0.140679 2.54618
0 0.961598 0.0959855 -1.48643
0 0.961578 0.144835 11.7353
0 0.961581 0.0948475 0.135959
0 0.96158 0.0996405 1.68115
0 0.96157 0.0958635 -1.60138
0 0.961597 0.0932496 -0.261998
0 0.961576 0.0928945 -0.730509
0 0.96156 0.0970479 -1.47811
0 0.961587 0.0944653 -0.0549268
0 0.961586 0.0945599 -0.367003
0 0.961576 0.0942773 0.439182
0 0.961617 0.0950065 -0.671599
0 0.961604 0.0947137 -0.153543
0 0.961596 0.0994498 1.27198
0 0.961602 0.0978692 0.626612
0 0.961554 0.1417 12.2376
0 0.961596 0.0983924 1.38534
0 0.961636 0.098576 -0.908416
0 0.961605 0.10005 -2.77589
0 0.961587 0.0954607 -0.755674
0 0.961618 0.0995837 2.30296
0 0.961569 0.142466 7.04848
0 0.961567 0.0947918 -0.141947
0 0.961565 0.142564 9.26517
0 0.961566 0.0952883 -0.384716
0 0.961579 0.0946869 0.618423
0 0.961575 0.0951748 -0.86965
0 0.961595 0.0935246 0.521639
0 0.961561 0.0925725 0.405747
0 0.961587 0.0932462 0.689879
0 0.96157 0.0956558 0.477355
0 0.961572 0.0952713 0.135844
0 0.961586 0.0956625 -0.0938683
0 0.961579 0.0932495 -0.0391596
0 0.961594 0.0953224 -0.460169
0 0.961595 0.0937468 0.359343
0 0.961588 0.094932 -0.794157
0 0.961554 0.14084 4.58976
0 0.961568 0.102186 3.65323
0 0.96159 0.102275 -3.56174
0 0.96158 0.0953021 0.426827
0 0.961591 0.0990546 0.119873
0 0.961568 0.0960566 -1.62826
0 0.96157 0.0963646 -1.41095
0 0.961613 0.140153 3.05537
0 0.961576 0.0948169 1.45507
0 0.961578 0.095272 -0.133436
0 0.96157 0.0986696 -1.49989
0 0.961577 0.0962289 -1.27005
0 0.961557 0.0993612 -0.538802
0 0.961665 0.140475 7.2126
0 0.961589 0.0937114 0.968535
0 0.961591 0.0936698 0.33263
0 0.961589 0.0937354 1.20168
0 0.961593 0.0935597 0.940456
0 0.961586 0.0945636 -0.0531432
0 0.961576 0.0950022 0.0731514
0 0.961588 0.0945879 -0.177352
0 0.96159 0.0937159 0.0871976
0 0.961584 0.0941257 0.771056
0 0.961584 0.094709 -0.539732
0 0.961627 0.14089 5.65693
0 0.961566 0.0950812 -0.918449
0 0.961582 0.0957695 -0.259974
0 0.961568 0.0947515 -0.598383
0 0.961583 0.096296 -1.35008
0 0.961635 0.0951606 1.6837
0 0.961579 0.100248 -0.44352
0 0.961645 0.0957529 -0.498247
0 0.961594 0.093904 -0.141388
0 0.961595 0.0935111 -0.501833
0 0.96159 0.093901 0.333746
0 0.961574 0.0945455 0.661218
0 0.961576 0.09461 -0.74998
0 0.961586 0.100212 -2.80585
0 0.961593 0.0937578 0.524232
0 0.961622 0.141951 3.10791
0 0.961637 0.0936792 1.00986
0 0.961598 0.0943842 1.11091
0 0.96159 0.0929857 0.406431
0 0.961593 0.0933922 1.01821
0 0.961594 0.0933848 -0.209447
0 0.961597 0.0939414 -0.134767
0 0.961587 0.0938508 -0.611663
0 0.961594 0.0938708 -0.272047
0 0.961654 0.0945712 1.26492
0 0.961675 0.137505 4.02068
0 0.961572 0.0942752 -0.139067
0 0.961564 0.0953517 -0.593873
0 0.961615 0.100975 0.663734
0 0.961557 0.0952461 -0.107292
0 0.961606 0.0939047 0.239997
0 0.961609 0.0951043 0.624244
0 0.96158 0.101643 -0.256516
0 0.9616 0.0931665 -0.410616
0 0.961588 0.0934947 -0.386098
0 0.961595 0.094563 0.507006
0 0.96159 0.0958577 0.614426
0 0.961585 0.0957425 -1.0938
0 0.961599 0.0973347 -1.66303
0 0.961593 0.0931051 0.615254
0 0.961586 0.0932321 -0.184198
0 0.961592 0.143722 8.70815
0 0.961589 0.0933053 -0.315623
0 0.961606 0.0944894 1.13741
0 0.961589 0.0937243 0.949921
0 0.96159 0.0932986 0.844853
0 0.96161 0.093698 1.03788
0 0.961603 0.0961583 0.392695
0 0.961595 0.0937693 -0.414964
0 0.961604 0.0937961 -0.352813
0 0.961588 0.093558 -0.365851
0 0.961626 0.0931523 0.568027
0 0.96166 0.144161 6.30841
0 0.961568 0.0991102 1.26027
0 0.96157 0.096576 -0.274357
0 0.961579 0.0937429 -0.14469
0 0.961572 0.0995151 -0.0552601
0 0.961576 0.0936588 -0.18734
0 0.961585 0.0930015 0.542743
0 0.961595 0.0933268 -0.581858
0 0.961593 0.0933322 1.1812
0 0.961589 0.0932904 -0.970625
0 0.961598 0.0936451 0.899668
0 0.9616 0.0932735 -0.746681
0 0.961579 0.0931361 0.31731
0 0.961589 0.142634 6.07257
0 0.961582 0.093301 -0.365723
0 0.961585 0.0933011 0.739386
0 0.961581 0.0934737 0.768559
0 0.961614 0.0931247 0.490262
0 0.96159 0.0934498 0.66587
0 0.961599 0.094774 0.249455
0 0.961592 0.0941275 0.0535816
0 0.961599 0.0941232 -0.49988
0 0.961591 0.0937161 -0.149672
0 0.961584 0.0934198 -0.343619
0 0.961627 0.0932026 0.757894
0 0.961616 0.0922501 0.0128396
0 0.961605 0.138882 2.96406
0 0.96158 0.0948089 0.209534
0 0.961578 0.0942685 -0.32497
0 0.961571 0.0938243 0.1953
0 0.961582 0.0941237 -0.370393
0 0.961589 0.0934426 -0.754004
0 0.961585 0.0932708 0.597152
0 0.961603 0.0941341 -0.641169
0 0.961593 0.093168 0.765446
0 0.961598 0.0930836 -0.799721
0 0.961606 0.0940572 0.412642
0 0.961603 0.0938121 -0.516248
0 0.961568 0.0951759 0.349448
0 0.961583 0.0936832 -0.124132
0 0.961582 0.143079 6.69437
0 0.96158 0.0934099 -0.693188
0 0.961596 0.0933453 0.618819
0 0.961604 0.0934756 0.634823
0 0.961586 0.0936192 -0.528287
0 0.961595 0.0961769 -0.289426
0 0.96159 0.094382 -0.457563
0 0.961639 0.0931491 -0.214375
0 0.961647 0.0927654 -0.528313
0 0.961625 0.14099 3.70062
0 0.961595 0.09974 -2.26234
0 0.961582 0.0993605 -1.38501
0 0.961569 0.0944526 -0.128473
0 0.96159 0.101816 -2.3147
0 0.961579 0.0932723 0.455959
0 0.961599 0.0994837 1.05428
0 0.961595 0.0940211 0.397677
0 0.961593 0.0941765 -0.509677
0 0.961597 0.0952657 -0.238525
0 0.961571 0.0943616 -0.320787
0 0.961612 0.0942178 -0.0410626
0 0.961623 0.140584 8.03457
0 0.961587 0.0930851 -0.0716639
0 0.961605 0.0935022 0.0390259
0 0.961582 0.0951434 -0.323084
0 0.961585 0.0941501 0.20189
0 0.961602 0.0968125 -1.07132
0 0.961636 0.0938821 0.119342
0 0.961663 0.0931664 -0.482615
0 0.961657 0.144158 6.454
0 0.96159 0.0958988 -0.16332
0 0.961573 0.0952179 0.271402
0 0.961581 0.0942851 -0.433044
0 0.961584 0.0940881 0.392927
0 0.961587 0.0933081 0.492077
0 0.961588 0.0937555 0.437943
0 0.96159 0.0941007 0.380837
0 0.961586 0.0941092 0.237784
0 0.961575 0.0948854 0.361987
0 0.961573 0.0937082 0.310543
0 0.961614 0.0944332 -0.302124
0 0.961649 0.14029 6.77123
0 0.961588 0.0965725 1.05494
0 0.961583 0.094967 -0.00627624
0 0.961591 0.0946281 -0.674062
0 0.961615 0.0938711 0.500722
0 0.961659 0.0932245 -0.326964
0 0.961675 0.140729 -2.13708
0 0.96158 0.0948773 -0.284742
0 0.96158 0.0943701 -0.1671
0 0.961586 0.0941732 -0.020823
0 0.961581 0.0932783 0.208118
0 0.961575 0.0951717 -0.291137
0 0.961582 0.0941598 0.0898741
0 0.961585 0.093918 0.184276
0 0.961598 0.0935098 -0.419804
0 0.96163 0.1433 5.81858
0 0.961587 0.0942123 -0.0867159
0 0.96159 0.0931642 -0.379802
0 0.961603 0.0932806 -0.254148
0 0.96164 0.0933137 0.219791
0 0.961665 0.144771 5.73364
0 0.961576 0.0964964 0.158069
0 0.961591 0.0934474 0.121755
0 0.961578 0.0955692 0.637523
0 0.961586 0.093481 0.42812
0 0.961604 0.0942024 -0.138375
0 0.961646 0.0935359 0.356811
0 0.96163 0.140019 4.46642
0 0.961587 0.0934521 -0.257289
0 0.961587 0.0932886 0.0566116
0 0.961605 0.0931622 0.159322
0 0.96164 0.140441 5.64499
0 0.961588 0.0939733 0.247774
0 0.961582 0.0960021 0.249566
0 0.96159 0.0942264 0.490625
0 0.961585 0.0945779 0.746451
0 0.961608 0.0958323 -0.431247
0 0.961668 0.0939374 -0.448849
0 0.961713 0.140332 2.45091
0 0.961566 0.0929542 0.0538539
0 0.961554 0.092973 -0.002757
0 0.961572 0.141442 6.29578
0 0.961556 0.0938711 -0.05624
0 0.96159 0.104217 2.90881
0 0.961568 0.0952621 0.238298
0 0.961634 0.0958604 -0.0974573
0 0.961675 0.143362 6.4871
0 0.961504 0.0928755 0.308498
0 0.961507 0.142395 10.5564
0 0.961495 0.0946879 -0.0977048
0 0.961565 0.0939864 0.722217
0 0.96162 0.139104 2.07361
0 0.961454 0.140244 16.7632
0 0.961499 0.139862 13.8761
VECTORS fa_u float
0.00704784 0.0028352 -0
0.00643996 0.00370373 -0
0.0034329 0.000932119 -0
0.00710162 0.00107039 -0
1e-08 0 0
0.00518911 0.00399547 -0
0.00291164 0.00283499 -0
1e-08 0 0
1e-08 0 0
0.00443694 0.00548249 -0
0.00483401 0.00816382 -0
0.00656102 0.000109663 -0
0.0062427 -0.000700474 0
1e-08 0 0
1e-08 0 0
1e-08 0 0
1e-08 0 0
1e-08 0 0
1e-08 0 0
1e-08 0 0
1e-08 0 0
0.00287595 0.00706808 -0
0.0016113 0.0062726 -0
1e-08 0 0
1e-08 0 0
1e-08 0 0
0.00843077 -0.00215286 0
1e-08 0 0
0.00991865 -0.00429858 0
1e-08 0 0
1e-08 0 0
1e-08 0 0
0.000852341 0.00713909 -0
1e-08 0 0
1e-08 0 0
1e-08 0 0
1e-08 0 0
1e-08 0 0
1e-08 0 0
1e-08 0 0
1e-08 0 0
1e-08 0 0
1e-08 0 0
-0.00013831 0.00745023 -0
1e-08 0 0
1e-08 0 0
1e-08 0 0
0.00571296 -0.00357196 0
1e-08 0 0
0.00306137 -0.00244777 0
1e-08 0 0
1e-08 0 0
1e-08 0 0
1e-08 0 0
1e-08 0 0
1e-08 0 0
1e-08 0 0
1e-08 0 0
1e-08 0 0
1e-08 0 0
1e-08 0 0
1e-08 0 0
1e-08 0 0
-0.000630472 0.00442369 0
1e-08 0 0
1e-08 0 0
1e-08 0 0
1e-08 0 0
1e-08 0 0
0.00346696 -0.00343632 0
1e-08 0 0
0.00299779 -0.00371704 0
1e-08 0 0
1e-08 0 0
1e-08 0 0
1e-08 0 0
1e-08 0 0
1e-08 0 0
1e-08 0 0
1e-08 0 0
1e-08 0 0
1e-08 0 0
1e-08 0 0
1e-08 0 0
1e-08 0 0
-0.00145426 0.00556606 0
1e-08 0 0
1e-08 0 0
1e-08 0 0
1e-08 0 0
1e-08 0 0
1e-08 0 0
0.00520192 -0.00862183 0
1e-08 0 0
1e-08 0 0
1e-08 0 0
1e-08 0 0
1e-08 0 0
0.00341813 -0.00842017 0
1e-08 0 0
1e-08 0 0
1e-08 0 0
1e-08 0 0
1e-08 0 0
1e-08 0 0
1e-08 0 0
1e-08 0 0
1e-08 0 0
1e-08 0 0
-0.00280443 0.00691049 0
1e-08 0 0
1e-08 0 0
1e-08 0 0
1e-08 0 0
1e-08 0 0
1e-08 0 0
1e-08 0 0
1e-08 0 0
1e-08 0 0
1e-08 0 0
1e-08 0 0
1e-08 0 0
1e-08 0 0
1e-08 0 0
0.00141152 -0.00556535 0
1e-08 0 0
1e-08 0 0
1e-08 0 0
1e-08 0 0
1e-08 0 0
1e-08 0 0
1e-08 0 0
1e-08 0 0
1e-08 0 0
-0.00365525 0.00633176 0
1e-08 0 0
1e-08 0 0
1e-08 0 0
1e-08 0 0
1e-08 0 0
1e-08 0 0
1e-08 0 0
1e-08 0 0
1e-08 0 0
1e-08 0 0
1e-08 0 0
1e-08 0 0
1e-08 0 0
1e-08 0 0
1e-08 0 0
0.00057993 -0.0042658 0
1e-08 0 0
1e-08 0 0
1e-08 0 0
1e-08 0 0
1e-08 0 0
1e-08 0 0
1e-08 0 0
1e-08 0 0
1e-08 0 0
1e-08 0 0
-0.00448516 0.00577007 0
1e-08 0 0
1e-08 0 0
1e-08 0 0
1e-08 0 0
1e-08 0 0
1e-08 0 0
1e-08 0 0
1e-08 0 0
1e-08 0 0
1e-08 0 0
1e-08 0 0
1e-08 0 0
9.3832e-05 -0.00751124 0
1e-08 0 0
1e-08 0 0
1e-08 0 0
1e-08 0 0
1e-08 0 0
1e-08 0 0
1e-08 0 0
1e-08 0 0
1e-08 0 0
1e-08 0 0
1e-08 0 0
1e-08 0 0
-0.00262624 0.002664 0
1e-08 0 0
1e-08 0 0
1e-08 0 0
1e-08 0 0
1e-08 0 0
1e-08 0 0
1e-08 0 0
1e-08 0 0
1e-08 0 0
1e-08 0 0
1e-08 0 0
1e-08 0 0
1e-08 0 0
-0.000863398 -0.00691562 0
1e-08 0 0
1e-08 0 0
1e-08 0 0
1e-08 0 0
1e-08 0 0
1e-08 0 0
1e-08 0 0
1e-08 0 0
-0.00492569 0.0039816 0
1e-08 0 0
1e-08 0 0
1e-08 0 0
1e-08 0 0
1e-08 0 0
1e-08 0 0
1e-08 0 0
1e-08 0 0
1e-08 0 0
1e-08 0 0
1e-08 0 0
-0.00160263 -0.00613796 0
1e-08 0 0
1e-08 0 0
1e-08 0 0
1e-08 0 0
1e-08 0 0
1e-08 0 0
1e-08 0 0
-0.00801405 0.00478437 0
1e-08 0 0
1e-08 0 0
1e-08 0 0
1e-08 0 0
1e-08 0 0
1e-08 0 0
1e-08 0 0
1e-08 0 0
1e-08 0 0
1e-08 0 0
1e-08 0 0
-0.00294805 -0.00716871 0
1e-08 0 0
1e-08 0 0
1e-08 0 0
1e-08 0 0
1e-08 0 0
-0.00730424 0.00299695 0
1e-08 0 0
1e-08 0 0
1e-08 0 0
1e-08 0 0
1e-08 0 0
1e-08 0 0
1e-08 0 0
1e-08 0 0
-0.00465917 -0.0078211 0
1e-08 0 0
1e-08 0 0
1e-08 0 0
1e-08 0 0
-0.00619234 0.0016052 0
1e-08 0 0
1e-08 0 0
1e-08 0 0
1e-08 0 0
1e-08 0 0
1e-08 0 0
-0.00367426 -0.00458514 0
1e-08 0 0
1e-08 0 0
1e-08 0 0
-0.00705282 0.000862284 0
1e-08 0 0
1e-08 0 0
1e-08 0 0
1e-08 0 0
1e-08 0 0
1e-08 0 0
-0.0030008 -0.00297932 0
1e-08 0 0
1e-08 0 0
-0.00805769 -0.000144608 0
1e-08 0 0
1e-08 0 0
1e-08 0 0
1e-08 0 0
-0.00571283 -0.00444814 0
1e-08 0 0
-0.00409724 -0.000585443 0
1e-08 0 0
1e-08 0 0
-0.00659865 -0.00380663 0
-0.00559231 -0.00145195 0
-0.00688286 -0.00278099 0
