# vtk DataFile Version 2.0
CellBP Time: 8.8
ASCII
DATASET UNSTRUCTURED_GRID
POINTS 296 double
-8.93896 -3.66065 0
-8.38122 -4.81187 0
-9.32934 -2.43924 0
-9.60624 -1.21139 0
-8.09557 -2.71109 0
-7.66572 -5.87707 0
-6.81779 -6.8405 0
-7.65596 -3.73181 0
-7.09526 -4.70504 0
-5.89357 -7.70779 0
-4.86559 -8.4401 0
-9.71423 0.0379363 0
-9.6587 1.31368 0
-8.41492 -1.6222 0
-8.57262 -0.505704 0
-7.34246 -1.91616 0
-6.96874 -2.78021 0
-6.4409 -5.62394 0
-5.6725 -6.4417 0
-6.54174 -3.74192 0
-6.00724 -4.5252 0
-3.71662 -9.00431 0
-2.4884 -9.4033 0
-4.79743 -7.15882 0
-3.84851 -7.74183 0
-8.58707 0.630717 0
-9.43887 2.59062 0
-8.44316 1.73045 0
-9.02925 3.80626 0
-7.51968 -0.883091 0
-7.58672 0.0890045 0
-6.73599 -1.25289 0
-1.21687 -9.64074 0
-6.24141 -2.06698 0
-6.10898 -2.93964 0
-5.36854 -5.32803 0
-4.66929 -5.97344 0
-5.473 -3.63174 0
-5.09267 -4.42753 0
-2.81763 -8.20308 0
-1.74614 -8.46351 0
-3.84002 -6.58775 0
-3.01105 -7.02018 0
0.0552029 -9.70003 0
-7.51198 1.11517 0
-8.18692 2.85922 0
-7.37438 2.04924 0
-8.41612 4.9263 0
-7.7042 3.88058 0
-7.65765 5.96172 0
-6.58363 -0.369112 0
-6.76353 0.547894 0
-5.62065 -0.968911 0
-0.581877 -8.60973 0
0.543935 -8.54269 0
-5.15618 -2.40112 0
-4.34806 -4.9614 0
-3.79804 -5.64239 0
-4.31509 -3.70703 0
-2.02488 -7.41161 0
-1.11469 -7.62008 0
-2.92941 -5.97282 0
-2.27082 -6.48941 0
1.3104 -9.5833 0
-6.51877 1.38137 0
-6.98983 3.02644 0
-6.49453 2.30586 0
-7.109 4.85048 0
-6.54773 3.88541 0
-6.81625 6.90909 0
-6.39464 5.72831 0
-5.87281 7.76594 0
-4.37445 -1.16644 0
-5.67896 0.491102 0
-4.57358 -0.0277716 0
-0.00490244 -7.65395 0
1.68054 -8.39218 0
0.902935 -7.54436 0
-3.96009 -2.35264 0
-3.45517 -1.37939 0
-3.21666 -4.70107 0
-3.2159 -3.20654 0
-1.36494 -6.52813 0
-0.519948 -6.85444 0
-1.94628 -5.43189 0
2.5598 -9.33668 0
-5.38131 1.99096 0
-5.94341 2.9836 0
-5.94817 4.72746 0
-5.61242 3.86839 0
-5.60092 6.52368 0
-5.30501 5.45128 0
-4.84394 8.51752 0
-4.70152 7.18678 0
-3.46041 -0.418156 0
-4.36296 1.22622 0
-3.65097 0.586456 0
-3.98103 2.29293 0
-3.70645 9.08592 0
2.7575 -8.06028 0
0.373861 -6.60415 0
1.93104 -7.28531 0
1.23379 -6.6931 0
-2.42508 -0.861932 0
-2.81091 -2.10517 0
-2.26416 -4.02419 0
-2.2965 -2.92725 0
-0.453028 -5.72012 0
-1.20122 -4.41996 0
3.77122 -8.9441 0
-4.67235 3.30352 0
-4.95425 4.45457 0
-4.51963 6.08655 0
-4.41766 5.19743 0
-3.75074 7.79012 0
-3.71162 6.62873 0
-2.70849 8.19533 0
-1.63347 -0.123436 0
-1.43502 -0.874365 0
-2.47087 0.517353 0
-3.20141 1.43342 0
-3.17445 3.26106 0
-2.86485 2.35809 0
-1.35052 0.638773 0
-2.48542 9.47042 0
3.7953 -7.63069 0
2.83716 -6.89828 0
0.897973 -5.65858 0
1.98017 -6.19936 0
-1.66165 -1.97367 0
-1.41408 -3.23201 0
0.0793878 -4.64659 0
-0.552641 -3.63746 0
4.77391 -7.07236 0
4.91449 -8.3864 0
-3.68408 4.43368 0
-3.63454 5.58742 0
-2.79784 7.06999 0
-2.92687 6.16791 0
-1.62116 8.51597 0
-1.87973 7.41208 0
-2.29816 3.97713 0
-0.719964 -1.31528 0
-0.828614 -0.242862 0
-1.93006 1.69482 0
-2.10184 2.85563 0
-1.29662 3.50495 0
-0.870862 1.36157 0
-0.284578 0.463898 0
-0.522637 8.6654 0
-1.22532 9.70705 0
1.06897 -4.45777 0
3.75045 -6.45162 0
2.86667 -5.87416 0
2.03444 -5.25166 0
4.62514 -5.9732 0
-0.547572 -2.45608 0
0.489393 -3.41062 0
0.0596785 -1.60046 0
1.44455 -3.59585 0
5.69881 -6.40122 0
5.97673 -7.67147 0
-2.41544 5.21424 0
-2.06194 6.35275 0
-0.871786 7.61565 0
-1.2215 6.74878 0
0.0920065 7.70873 0
-1.12639 4.41631 0
0.149109 -0.611249 0
-0.80879 2.49524 0
-0.345163 3.57292 0
0.0511424 1.51481 0
0.731204 0.474277 0
0.62917 8.69324 0
0.0424787 9.8162 0
2.30559 -4.15824 0
3.72515 -5.43151 0
2.8985 -5.03583 0
5.42265 -5.30974 0
4.54756 -5.08294 0
0.633014 -2.28268 0
1.23847 -2.90517 0
0.758947 -1.38799 0
2.11753 -3.06662 0
2.92218 -3.38447 0
6.01156 -4.65136 0
6.49079 -5.60686 0
6.93182 -6.81388 0
-0.988952 5.68669 0
-0.343516 6.71873 0
1.10312 7.61899 0
0.563269 6.92779 0
-0.00311932 4.65619 0
0.592873 3.7851 0
1.33333 -0.642325 0
0.522385 2.63802 0
0.95026 1.57701 0
1.8911 0.207779 0
1.5974 1.06012 0
2.09658 7.44299 0
1.76856 8.54579 0
1.32394 9.74583 0
3.71878 -4.20858 0
4.98386 -4.28937 0
5.71476 -3.81349 0
3.7025 -3.10946 0
1.79618 -1.87625 0
2.96698 -2.52454 0
6.64389 -3.84599 0
7.22325 -4.78118 0
7.79726 -5.88211 0
0.480836 5.7659 0
1.41106 6.61171 0
2.3401 6.55131 0
1.18848 4.48893 0
1.4639 3.35486 0
2.40763 -0.689699 0
2.79349 0.139197 0
1.76623 2.14968 0
2.58944 1.13939 0
3.02577 7.04467 0
2.85983 8.2202 0
2.59159 9.5022 0
4.80441 -3.22607 0
5.99732 -3.02603 0
4.0998 -2.23008 0
3.19776 -1.48877 0
6.61312 -2.27355 0
7.10391 -2.98365 0
7.82259 -3.84353 0
8.53356 -4.85588 0
1.99705 5.50413 0
3.01192 6.03369 0
2.33417 4.06271 0
2.39107 3.01833 0
3.47849 -0.452694 0
3.56964 0.613816 0
2.92657 2.25917 0
3.48709 1.50492 0
3.902 5.77023 0
3.89942 6.65994 0
3.91024 7.79461 0
3.81622 9.09882 0
5.47447 -1.87908 0
4.43947 -1.10794 0
6.59046 -1.31071 0
7.45429 -1.99935 0
8.24055 -2.81075 0
9.10272 -3.71171 0
3.32662 4.77373 0
3.26988 3.31979 0
4.61229 0.133505 0
4.42177 1.27959 0
3.96697 2.38512 0
4.42346 5.0233 0
4.71263 6.0533 0
4.87408 7.22343 0
4.95989 8.52974 0
5.76305 -0.435347 0
6.86219 -0.48641 0
7.61435 -1.05829 0
8.5172 -1.70821 0
9.5041 -2.48498 0
4.41639 3.72891 0
5.66667 1.05268 0
5.20969 2.45411 0
5.19411 4.48727 0
5.43922 5.38082 0
5.74981 6.51126 0
5.98723 7.79713 0
6.67397 0.430246 0
7.68152 -0.0284755 0
8.67541 -0.560828 0
9.74516 -1.21454 0
6.76734 1.28696 0
5.52487 3.66 0
6.33839 2.10588 0
6.16194 2.97511 0
6.07652 4.54286 0
6.49507 5.67699 0
6.92493 6.93957 0
7.58834 0.930596 0
8.64639 0.561096 0
9.80977 0.0628447 0
7.3961 1.92951 0
6.57532 3.75803 0
7.02488 2.8316 0
7.15355 4.73875 0
7.78289 5.98588 0
8.4886 1.67942 0
9.68911 1.31787 0
8.15746 2.74365 0
7.74113 3.79601 0
8.49881 4.92577 0
9.44594 2.56911 0
9.05496 3.78149 0
CELLS 542 2168
3 2 0 4
3 0 1 7
3 4 0 7
3 1 5 8
3 7 1 8
3 3 2 13
3 13 2 4
3 11 3 14
3 14 3 13
3 13 4 15
3 4 7 16
3 15 4 16
3 5 6 17
3 8 5 17
3 6 9 18
3 17 6 18
3 7 8 19
3 16 7 19
3 8 17 20
3 19 8 20
3 9 10 23
3 18 9 23
3 10 21 24
3 23 10 24
3 12 11 25
3 25 11 14
3 26 12 27
3 27 12 25
3 14 13 29
3 29 13 15
3 25 14 30
3 30 14 29
3 29 15 31
3 15 16 33
3 31 15 33
3 16 19 34
3 33 16 34
3 17 18 35
3 20 17 35
3 18 23 36
3 35 18 36
3 19 20 37
3 34 19 37
3 20 35 38
3 37 20 38
3 21 22 39
3 24 21 39
3 22 32 40
3 39 22 40
3 23 24 41
3 36 23 41
3 24 39 42
3 41 24 42
3 27 25 44
3 44 25 30
3 28 26 45
3 45 26 27
3 45 27 46
3 46 27 44
3 47 28 48
3 48 28 45
3 30 29 50
3 50 29 31
3 44 30 51
3 51 30 50
3 50 31 52
3 31 33 52
3 32 43 53
3 40 32 53
3 53 43 54
3 33 34 55
3 34 37 55
3 33 55 52
3 35 36 56
3 38 35 56
3 36 41 57
3 56 36 57
3 37 38 58
3 38 56 58
3 37 58 55
3 39 40 59
3 42 39 59
3 40 53 60
3 59 40 60
3 41 42 61
3 57 41 61
3 42 59 62
3 61 42 62
3 43 63 54
3 46 44 64
3 64 44 51
3 48 45 65
3 65 45 46
3 65 46 66
3 66 46 64
3 49 47 67
3 67 47 48
3 67 48 68
3 68 48 65
3 69 49 70
3 70 49 67
3 52 55 72
3 64 51 73
3 51 50 73
3 50 52 73
3 73 52 74
3 74 52 72
3 53 54 75
3 60 53 75
3 54 63 76
3 54 76 77
3 75 54 77
3 55 58 78
3 72 55 78
3 72 78 79
3 56 57 80
3 57 61 80
3 56 80 58
3 58 80 81
3 78 58 81
3 59 60 82
3 62 59 82
3 60 75 83
3 82 60 83
3 61 62 84
3 62 82 84
3 61 84 80
3 63 85 76
3 66 64 86
3 64 73 86
3 68 65 87
3 87 65 66
3 87 66 86
3 70 67 88
3 88 67 68
3 88 68 89
3 89 68 87
3 71 69 90
3 90 69 70
3 90 70 91
3 91 70 88
3 92 71 93
3 93 71 90
3 74 72 94
3 94 72 79
3 86 73 95
3 95 73 74
3 95 74 96
3 96 74 94
3 97 86 95
3 76 85 99
3 75 77 100
3 83 75 100
3 76 99 101
3 77 76 101
3 77 101 102
3 100 77 102
3 94 79 103
3 78 81 104
3 79 78 104
3 79 104 103
3 80 84 105
3 81 80 105
3 81 105 106
3 104 81 106
3 82 83 107
3 83 100 107
3 82 107 84
3 84 107 108
3 105 84 108
3 85 109 99
3 89 87 110
3 87 86 110
3 110 86 97
3 91 88 111
3 111 88 89
3 111 89 110
3 93 90 112
3 112 90 91
3 112 91 113
3 113 91 111
3 98 92 114
3 114 92 93
3 114 93 115
3 115 93 112
3 116 98 114
3 117 103 118
3 96 94 119
3 94 103 119
3 119 103 117
3 97 95 120
3 120 95 96
3 120 96 119
3 121 110 97
3 121 97 122
3 122 97 120
3 123 119 117
3 124 98 116
3 99 109 125
3 99 125 126
3 101 99 126
3 100 102 127
3 100 127 107
3 101 126 128
3 102 101 128
3 102 128 127
3 104 106 129
3 104 129 103
3 103 129 118
3 105 108 130
3 106 105 130
3 106 130 129
3 107 127 131
3 108 107 131
3 108 131 132
3 108 132 130
3 109 134 125
3 125 134 133
3 113 111 135
3 111 110 135
3 135 110 121
3 115 112 136
3 136 112 113
3 136 113 135
3 116 114 137
3 137 114 115
3 137 115 138
3 138 115 136
3 139 124 116
3 139 116 140
3 140 116 137
3 141 135 121
3 118 129 142
3 118 142 143
3 117 118 143
3 123 117 143
3 122 120 144
3 120 119 144
3 144 119 123
3 141 121 145
3 145 121 122
3 145 122 144
3 146 141 145
3 147 144 123
3 147 123 148
3 143 148 123
3 150 124 139
3 149 150 139
3 131 127 151
3 125 133 152
3 126 125 152
3 126 152 153
3 128 126 153
3 128 153 154
3 128 154 127
3 127 154 151
3 152 133 155
3 130 132 156
3 130 156 129
3 129 156 142
3 131 151 157
3 132 131 157
3 132 157 156
3 156 158 142
3 157 151 159
3 133 160 155
3 134 161 133
3 133 161 160
3 138 136 162
3 136 135 162
3 162 135 141
3 140 137 163
3 163 137 138
3 163 138 162
3 149 139 164
3 164 139 140
3 164 140 165
3 165 140 163
3 166 149 164
3 167 162 141
3 167 141 146
3 142 158 168
3 143 142 168
3 143 168 148
3 146 145 169
3 145 144 169
3 169 144 147
3 170 167 146
3 170 146 169
3 171 169 147
3 171 147 148
3 171 148 172
3 168 172 148
3 173 149 166
3 174 150 149
3 173 174 149
3 154 175 151
3 151 175 159
3 152 155 176
3 153 152 176
3 153 176 177
3 153 177 154
3 154 177 175
3 155 160 178
3 155 178 179
3 176 155 179
3 156 157 180
3 156 180 158
3 157 159 181
3 157 181 180
3 158 180 182
3 158 182 168
3 159 175 183
3 159 183 181
3 175 184 183
3 160 186 178
3 178 186 185
3 161 187 160
3 160 187 186
3 165 163 188
3 163 162 188
3 188 162 167
3 166 164 189
3 189 164 165
3 189 165 188
3 190 173 166
3 190 166 191
3 191 166 189
3 192 188 167
3 192 167 170
3 193 192 170
3 182 194 168
3 194 172 168
3 193 170 195
3 170 169 195
3 195 169 171
3 196 195 171
3 196 171 172
3 194 197 172
3 197 198 172
3 198 196 172
3 200 173 190
3 199 200 190
3 201 174 173
3 200 201 173
3 176 179 202
3 177 176 202
3 177 202 175
3 175 202 184
3 178 185 203
3 178 203 179
3 179 203 202
3 203 185 204
3 202 205 184
3 183 206 181
3 180 181 206
3 180 206 182
3 182 206 194
3 183 184 207
3 205 207 184
3 183 207 206
3 185 208 204
3 186 209 185
3 185 209 208
3 187 210 186
3 186 210 209
3 191 189 211
3 189 188 211
3 211 188 192
3 199 190 212
3 212 190 191
3 212 191 211
3 213 199 212
3 214 211 192
3 214 192 193
3 215 214 193
3 215 193 195
3 206 216 194
3 216 197 194
3 216 217 197
3 215 195 218
3 218 195 196
3 198 218 196
3 217 219 197
3 219 218 198
3 197 219 198
3 220 199 213
3 221 200 199
3 220 221 199
3 222 201 200
3 221 222 200
3 203 204 223
3 203 223 202
3 202 223 205
3 204 208 224
3 204 224 223
3 205 223 225
3 205 225 207
3 207 225 226
3 207 226 206
3 226 216 206
3 208 228 224
3 224 228 227
3 209 229 208
3 229 228 208
3 210 230 209
3 209 230 229
3 213 212 231
3 212 211 231
3 231 211 214
3 232 220 213
3 232 213 231
3 233 231 214
3 233 214 215
3 234 233 215
3 234 215 218
3 226 235 216
3 235 217 216
3 235 236 217
3 217 236 219
3 237 234 218
3 237 218 219
3 236 238 219
3 238 237 219
3 240 220 232
3 239 240 232
3 241 221 220
3 240 241 220
3 242 222 221
3 241 242 221
3 224 227 243
3 224 243 223
3 223 243 225
3 225 243 244
3 225 244 226
3 226 244 235
3 227 245 243
3 228 246 227
3 227 246 245
3 229 247 228
3 228 247 246
3 230 248 229
3 229 248 247
3 239 232 249
3 232 231 249
3 249 231 233
3 250 249 233
3 250 233 234
3 237 250 234
3 244 251 235
3 235 251 236
3 251 252 236
3 236 252 238
3 252 253 238
3 253 250 237
3 253 237 238
3 254 239 249
3 255 240 239
3 254 255 239
3 256 241 240
3 255 256 240
3 257 242 241
3 256 257 241
3 245 258 243
3 243 258 244
3 244 258 251
3 245 259 258
3 246 260 245
3 245 260 259
3 247 261 246
3 246 261 260
3 248 262 247
3 247 262 261
3 254 249 263
3 263 249 250
3 253 263 250
3 258 264 251
3 251 264 252
3 264 265 252
3 265 263 253
3 252 265 253
3 266 254 263
3 267 255 254
3 266 267 254
3 268 256 255
3 267 268 255
3 269 257 256
3 268 269 256
3 259 270 258
3 270 264 258
3 260 271 259
3 259 271 270
3 261 272 260
3 260 272 271
3 262 273 261
3 273 272 261
3 270 274 264
3 275 266 263
3 275 263 265
3 274 276 264
3 276 265 264
3 276 277 265
3 277 275 265
3 278 267 266
3 275 278 266
3 279 268 267
3 278 279 267
3 280 269 268
3 279 280 268
3 271 281 270
3 270 281 274
3 272 282 271
3 271 282 281
3 273 283 272
3 272 283 282
3 281 284 274
3 274 284 276
3 285 278 275
3 277 285 275
3 284 286 276
3 286 285 277
3 276 286 277
3 287 279 278
3 285 287 278
3 288 280 279
3 287 288 279
3 282 289 281
3 281 289 284
3 283 290 282
3 282 290 289
3 289 291 284
3 284 291 286
3 291 292 286
3 292 287 285
3 286 292 285
3 293 288 287
3 292 293 287
3 290 294 289
3 289 294 291
3 294 295 291
3 295 293 292
3 291 295 292
CELL_TYPES 542
5
5
5
5
5
5
5
5
5
5
5
5
5
5
5
5
5
5
5
5
5
5
5
5
5
5
5
5
5
5
5
5
5
5
5
5
5
5
5
5
5
5
5
5
5
5
5
5
5
5
5
5
5
5
5
5
5
5
5
5
5
5
5
5
5
5
5
5
5
5
5
5
5
5
5
5
5
5
5
5
5
5
5
5
5
5
5
5
5
5
5
5
5
5
5
5
5
5
5
5
5
5
5
5
5
5
5
5
5
5
5
5
5
5
5
5
5
5
5
5
5
5
5
5
5
5
5
5
5
5
5
5
5
5
5
5
5
5
5
5
5
5
5
5
5
5
5
5
5
5
5
5
5
5
5
5
5
5
5
5
5
5
5
5
5
5
5
5
5
5
5
5
5
5
5
5
5
5
5
5
5
5
5
5
5
5
5
5
5
5
5
5
5
5
5
5
5
5
5
5
5
5
5
5
5
5
5
5
5
5
5
5
5
5
5
5
5
5
5
5
5
5
5
5
5
5
5
5
5
5
5
5
5
5
5
5
5
5
5
5
5
5
5
5
5
5
5
5
5
5
5
5
5
5
5
5
5
5
5
5
5
5
5
5
5
5
5
5
5
5
5
5
5
5
5
5
5
5
5
5
5
5
5
5
5
5
5
5
5
5
5
5
5
5
5
5
5
5
5
5
5
5
5
5
5
5
5
5
5
5
5
5
5
5
5
5
5
5
5
5
5
5
5
5
5
5
5
5
5
5
5
5
5
5
5
5
5
5
5
5
5
5
5
5
5
5
5
5
5
5
5
5
5
5
5
5
5
5
5
5
5
5
5
5
5
5
5
5
5
5
5
5
5
5
5
5
5
5
5
5
5
5
5
5
5
5
5
5
5
5
5
5
5
5
5
5
5
5
5
5
5
5
5
5
5
5
5
5
5
5
5
5
5
5
5
5
5
5
5
5
5
5
5
5
5
5
5
5
5
5
5
5
5
5
5
5
5
5
5
5
5
5
5
5
5
5
5
5
5
5
5
5
5
5
5
5
5
5
5
5
5
5
5
5
5
5
5
5
5
5
5
5
5
5
5
5
5
5
5
5
5
5
5
5
5
5
5
5
5
5
5
5
5
5
5
5
5
5
5
5
5
5
5
5
5
5
5
5
5
5
5
5
5
5
5
5
5
5
5
5
5
5
5
5
5
5
5
5
5
5
5
5
5
5
5
5
5
5
5
5
5
5
POINT_DATA 296
SCALARS concentrations float 4
LOOKUP_TABLE default
0 0.95225 0.116224 6.34777
0 0.952249 0.117085 2.7954
0 0.952277 0.119234 4.08088
0 0.952261 0.115712 1.94456
0 0.95227 0.0930943 -0.086496
0 0.952271 0.119217 2.0682
0 0.952291 0.121457 4.30529
0 0.952252 0.094617 0.0834935
0 0.952262 0.0932681 -0.02001
0 0.952263 0.117587 2.61069
0 0.952245 0.114628 3.12224
0 0.952264 0.118471 4.76758
0 0.952288 0.117766 4.32453
0 0.952276 0.093027 0.27995
0 0.952267 0.0933141 0.179337
0 0.952281 0.0936598 0.386291
0 0.952274 0.0939402 0.173412
0 0.952279 0.0932077 -0.371564
0 0.952283 0.0935645 -0.267863
0 0.95227 0.094777 0.489759
0 0.952272 0.0937406 -0.116504
0 0.952283 0.117317 2.67456
0 0.952347 0.120475 2.52332
0 0.952267 0.0940337 0.105479
0 0.95228 0.0945924 -0.149139
0 0.952283 0.0939345 -0.604585
0 0.952222 0.112266 3.89047
0 0.952271 0.0947669 -0.595186
0 0.952204 0.11724 3.49514
0 0.952283 0.0939657 0.350443
0 0.952283 0.0931418 0.254898
0 0.952283 0.0941602 0.298846
0 0.952336 0.115577 0.791578
0 0.952278 0.0946036 0.312474
0 0.952272 0.0938324 0.160001
0 0.952279 0.0946931 -0.647745
0 0.952287 0.0942264 0.2475
0 0.952278 0.0936874 0.308538
0 0.952284 0.0940174 0.35217
0 0.952326 0.0935053 0.107948
0 0.952326 0.0950112 -0.0203156
0 0.95229 0.0963108 -0.564501
0 0.95231 0.0932211 0.133311
0 0.952261 0.116786 7.28252
0 0.952283 0.0932654 -0.14818
0 0.952222 0.0946166 0.248345
0 0.952264 0.0956775 -0.642692
0 0.952274 0.117632 4.79255
0 0.952248 0.0948984 0.580355
0 0.952288 0.116445 7.7418
0 0.952279 0.0934069 0.0256709
0 0.95228 0.0930369 -0.0500034
0 0.952278 0.0941839 0.43015
0 0.952285 0.0939916 0.070125
0 0.952242 0.0934278 -0.335964
0 0.952279 0.0934865 -0.155141
0 0.952293 0.0952748 -0.642332
0 0.952285 0.0942092 -0.325619
0 0.952289 0.0950909 0.146094
0 0.952289 0.0998025 1.3214
0 0.952255 0.0947691 -0.296129
0 0.952283 0.0959098 0.79362
0 0.952287 0.0980849 -3.40062
0 0.952215 0.117556 4.00422
0 0.952268 0.0942363 0.0700556
0 0.952256 0.0943746 0.437932
0 0.952262 0.095345 0.984272
0 0.952278 0.0939627 0.453525
0 0.952267 0.094245 0.373563
0 0.95229 0.119341 3.91919
0 0.952279 0.093438 0.498352
0 0.952252 0.11796 2.80939
0 0.952286 0.0972951 -1.36504
0 0.952273 0.0943925 -0.803356
0 0.952277 0.094941 -1.33867
0 0.952261 0.0943718 -0.611584
0 0.952237 0.0936998 -0.595945
0 0.952261 0.0940378 0.45918
0 0.952295 0.0968843 0.137005
0 0.952294 0.0966069 1.17172
0 0.952287 0.0951687 -0.72653
0 0.952295 0.0940243 -0.558255
0 0.952261 0.098671 -0.188502
0 0.952258 0.0940047 -0.130123
0 0.952273 0.0968562 0.292636
0 0.952226 0.119281 7.33169
0 0.95227 0.0946727 0.129499
0 0.952271 0.0947254 -0.406366
0 0.952274 0.0948289 0.832957
0 0.952277 0.0934802 0.295453
0 0.952273 0.0927895 0.151804
0 0.952269 0.0946657 0.447952
0 0.952254 0.114827 3.86628
0 0.952254 0.0949646 0.454369
0 0.952283 0.0951526 1.2643
0 0.952275 0.094534 -1.12784
0 0.952274 0.0951673 1.86168
0 0.952276 0.0945383 0.356697
0 0.952304 0.117673 3.92585
0 0.952244 0.0931848 -0.0953697
0 0.952265 0.0944485 -0.632577
0 0.95227 0.0945365 -0.427482
0 0.952273 0.0940483 -0.670152
0 0.952286 0.0959091 1.50243
0 0.952295 0.094272 1.34423
0 0.952283 0.0939493 0.732926
0 0.952296 0.0946845 0.303664
0 0.952271 0.0953516 0.478269
0 0.952277 0.0936275 0.0483981
0 0.952226 0.116629 7.40269
0 0.952276 0.0939262 -0.120865
0 0.952276 0.0923629 -0.104188
0 0.952266 0.0938988 -0.590009
0 0.952274 0.0939084 0.294752
0 0.952288 0.0945961 0.51811
0 0.952277 0.0942495 -0.282421
0 0.952303 0.0939393 -0.877154
0 0.952282 0.0951502 1.73416
0 0.952286 0.0952627 1.95176
0 0.95228 0.0962918 -1.03551
0 0.95228 0.0955156 -1.42741
0 0.952274 0.095282 1.03719
0 0.952279 0.0968151 -0.145333
0 0.952287 0.0947481 1.93656
0 0.952292 0.115416 4.08723
0 0.952254 0.097016 -1.17488
0 0.952275 0.0947073 -0.411863
0 0.952286 0.0936338 0.445941
0 0.952286 0.0942641 -1.03759
0 0.952293 0.0964605 2.78531
0 0.952294 0.095005 0.594574
0 0.952289 0.0941054 -0.830301
0 0.952288 0.0964523 -1.51315
0 0.952291 0.094637 -0.0987327
0 0.952272 0.114237 3.09222
0 0.952278 0.0930705 -0.61852
0 0.952274 0.0961854 -0.402496
0 0.952296 0.0942788 0.430916
0 0.952284 0.0950573 0.0518792
0 0.952292 0.0931545 -0.122506
0 0.95229 0.0941811 -0.78777
0 0.952271 0.0940929 0.698636
0 0.952291 0.0963174 1.71082
0 0.952289 0.0948939 2.17659
0 0.952285 0.0952782 1.60167
0 0.952278 0.095772 -0.580025
0 0.952274 0.0999501 -1.78619
0 0.952286 0.0959944 1.86796
0 0.952291 0.0956458 -0.514809
0 0.952293 0.0933404 -0.54336
0 0.9523 0.118581 4.14089
0 0.952296 0.0938866 1.44655
0 0.952283 0.0985645 -0.562918
0 0.952292 0.0942335 0.859517
0 0.952293 0.0982193 -0.106028
0 0.952287 0.0954495 -0.0558626
0 0.952291 0.0945437 0.657323
0 0.95229 0.094797 1.67929
0 0.952302 0.0960808 2.19855
0 0.952301 0.095258 -1.88606
0 0.952302 0.0950264 0.401398
0 0.952309 0.114826 3.8884
0 0.952276 0.0933721 0.396738
0 0.952283 0.0968279 0.37345
0 0.952288 0.0957183 1.22946
0 0.952275 0.092505 0.041643
0 0.952281 0.0953629 0.542866
0 0.952271 0.0952687 0.683317
0 0.952299 0.0941902 -1.60624
0 0.952278 0.0959067 1.95868
0 0.952277 0.101172 3.83994
0 0.952281 0.0960788 -1.5727
0 0.952298 0.0952805 1.13958
0 0.952265 0.0957467 1.16488
0 0.95227 0.116613 7.19142
0 0.952293 0.0947701 -1.1238
0 0.952287 0.0950879 -0.181546
0 0.952291 0.0937392 -1.51085
0 0.952289 0.0940981 0.248238
0 0.952282 0.093846 -0.249693
0 0.952315 0.0990037 3.38887
0 0.952316 0.0982822 1.95358
0 0.952334 0.0952038 -1.21789
0 0.952296 0.0954216 0.494234
0 0.952288 0.0938697 -1.37737
0 0.95228 0.0933818 -0.0691391
0 0.952293 0.0934797 -0.15625
0 0.952303 0.11283 -0.0597575
0 0.952272 0.0949473 -0.0108473
0 0.952269 0.094787 -1.05327
0 0.952285 0.0945657 -0.815334
0 0.952281 0.100018 -2.17971
0 0.952277 0.0960453 0.942995
0 0.952282 0.0948584 -1.5936
0 0.952312 0.0958306 -1.84559
0 0.952276 0.0951985 -0.605273
0 0.952288 0.0948892 1.73852
0 0.952297 0.0973964 0.580225
0 0.952311 0.0943311 1.8456
0 0.952278 0.0945104 -0.791919
0 0.952267 0.0929686 -0.325196
0 0.952245 0.115448 2.26904
0 0.952286 0.0944531 -0.826878
0 0.952279 0.0938718 -0.212502
0 0.952271 0.0936491 -0.299925
0 0.95229 0.0947794 -0.853603
0 0.952312 0.102623 -1.49645
0 0.952281 0.0945909 1.47299
0 0.952278 0.0935708 -0.410186
0 0.95229 0.0930162 -0.230434
0 0.952288 0.117732 3.9577
0 0.952276 0.0957036 0.440289
0 0.952279 0.0980225 0.503192
0 0.952267 0.0953635 -0.0757106
0 0.952284 0.095073 -0.146803
0 0.952285 0.0951114 1.3743
0 0.952295 0.0965715 -1.90099
0 0.95228 0.0945708 -2.02407
0 0.952298 0.0943901 1.03488
0 0.952298 0.0989499 -0.290214
0 0.952298 0.0949172 -0.194595
0 0.952278 0.0955391 1.10893
0 0.952258 0.114705 3.71425
0 0.95228 0.0949439 0.388656
0 0.95228 0.096109 -0.0821219
0 0.952285 0.0936552 -0.367257
0 0.952285 0.0951489 -1.0039
0 0.952292 0.0989515 1.93983
0 0.952285 0.0938024 -0.687232
0 0.952293 0.0930565 -0.399259
0 0.952303 0.116139 4.57151
0 0.952282 0.0968497 -0.888859
0 0.952302 0.0974742 1.54664
0 0.952285 0.0945578 1.102
0 0.952284 0.0954495 -0.485136
0 0.952287 0.0954197 -1.37124
0 0.952282 0.0940687 1.44485
0 0.952298 0.0949564 1.97763
0 0.952285 0.0954412 -0.453607
0 0.952314 0.0933371 0.0177885
0 0.952314 0.0937577 -0.117016
0 0.952281 0.0945984 -1.09525
0 0.952264 0.115376 2.79112
0 0.952285 0.0957483 -0.829799
0 0.952285 0.0938474 -0.678652
0 0.952291 0.10021 2.4986
0 0.952291 0.0937298 -0.547986
0 0.952282 0.0932202 -0.640436
0 0.952288 0.115871 3.03903
0 0.952295 0.0934704 0.185072
0 0.952288 0.0950343 -0.0966438
0 0.952284 0.0947097 -1.3482
0 0.95229 0.0939498 -0.036018
0 0.952292 0.0949417 -1.49626
0 0.952294 0.0941591 -0.203463
0 0.952296 0.0923892 -0.014724
0 0.952286 0.0926059 -0.00456395
0 0.952265 0.116016 4.08469
0 0.952282 0.0954006 -0.00382
0 0.952281 0.0942327 0.105976
0 0.952288 0.0943748 0.567467
0 0.952304 0.0935909 -0.675738
0 0.9523 0.113962 5.01447
0 0.952294 0.0951795 -0.633353
0 0.952279 0.0939495 -0.594547
0 0.952296 0.0942598 -0.516997
0 0.952288 0.0937242 -0.165768
0 0.952279 0.0937277 0.0261216
0 0.952264 0.0930779 -0.385576
0 0.95226 0.118044 1.68925
0 0.95227 0.0948488 0.293328
0 0.952276 0.0941238 0.516104
0 0.952306 0.0933239 -0.647109
0 0.952325 0.116191 1.18115
0 0.952246 0.0942651 0.226684
0 0.952286 0.0936555 0.394345
0 0.952281 0.101446 1.08672
0 0.952304 0.0941801 0.121209
0 0.952275 0.093966 0.189181
0 0.952254 0.0942014 -0.287276
0 0.952239 0.119831 8.79143
0 0.952267 0.0935573 -0.444127
0 0.952293 0.0929931 -0.351935
0 0.952315 0.116454 0.978913
0 0.952262 0.0935877 0.1801
0 0.952285 0.0951531 0.620142
0 0.952284 0.0938275 0.177793
0 0.952261 0.094766 0.310404
0 0.952238 0.115359 5.27991
0 0.952274 0.0936034 0.0698013
0 0.952286 0.117163 4.70064
0 0.952282 0.0933044 -0.202106
0 0.952291 0.0943737 0.283376
0 0.952275 0.115005 5.28063
0 0.952276 0.116729 4.37014
0 0.952299 0.112679 0.593963
VECTORS fa_u float
0.00725926 0.00290083 -0
0.00663668 0.0038125 -0
0.00290493 0.000791427 -0
0.00720271 0.00111912 -0
1e-08 0 0
0.005216 0.00401989 -0
0.00256119 0.00247926 -0
1e-08 0 0
1e-08 0 0
0.0045253 0.00552284 -0
0.00528654 0.00887646 -0
0.00662394 0.000137595 -0
0.00620995 -0.000669861 0
1e-08 0 0
1e-08 0 0
1e-08 0 0
1e-08 0 0
1e-08 0 0
1e-08 0 0
1e-08 0 0
1e-08 0 0
0.00294794 0.00727554 -0
0.0015947 0.00626362 -0
1e-08 0 0
1e-08 0 0
1e-08 0 0
0.0089344 -0.00225616 0
1e-08 0 0
0.0109963 -0.00481509 0
1e-08 0 0
1e-08 0 0
1e-08 0 0
0.000856736 0.00734408 -0
1e-08 0 0
1e-08 0 0
1e-08 0 0
1e-08 0 0
1e-08 0 0
1e-08 0 0
1e-08 0 0
1e-08 0 0
1e-08 0 0
1e-08 0 0
-0.000173301 0.00762451 -0
1e-08 0 0
1e-08 0 0
1e-08 0 0
0.00566478 -0.00360471 0
1e-08 0 0
0.0026917 -0.00217186 0
1e-08 0 0
1e-08 0 0
1e-08 0 0
1e-08 0 0
1e-08 0 0
1e-08 0 0
1e-08 0 0
1e-08 0 0
1e-08 0 0
1e-08 0 0
1e-08 0 0
1e-08 0 0
1e-08 0 0
-0.000589915 0.00406641 0
1e-08 0 0
1e-08 0 0
1e-08 0 0
1e-08 0 0
1e-08 0 0
0.00320876 -0.0031743 0
1e-08 0 0
0.00280286 -0.00343696 0
1e-08 0 0
1e-08 0 0
1e-08 0 0
1e-08 0 0
1e-08 0 0
1e-08 0 0
1e-08 0 0
1e-08 0 0
1e-08 0 0
1e-08 0 0
1e-08 0 0
1e-08 0 0
1e-08 0 0
-0.00138212 0.005321 0
1e-08 0 0
1e-08 0 0
1e-08 0 0
1e-08 0 0
1e-08 0 0
1e-08 0 0
0.00570012 -0.00935505 0
1e-08 0 0
1e-08 0 0
1e-08 0 0
1e-08 0 0
1e-08 0 0
0.0036615 -0.00906251 0
1e-08 0 0
1e-08 0 0
1e-08 0 0
1e-08 0 0
1e-08 0 0
1e-08 0 0
1e-08 0 0
1e-08 0 0
1e-08 0 0
1e-08 0 0
-0.00288899 0.00715858 0
1e-08 0 0
1e-08 0 0
1e-08 0 0
1e-08 0 0
1e-08 0 0
1e-08 0 0
1e-08 0 0
1e-08 0 0
1e-08 0 0
1e-08 0 0
1e-08 0 0
1e-08 0 0
1e-08 0 0
1e-08 0 0
0.00134814 -0.00538521 0
1e-08 0 0
1e-08 0 0
1e-08 0 0
1e-08 0 0
1e-08 0 0
1e-08 0 0
1e-08 0 0
1e-08 0 0
1e-08 0 0
-0.0037439 0.00648824 0
1e-08 0 0
1e-08 0 0
1e-08 0 0
1e-08 0 0
1e-08 0 0
1e-08 0 0
1e-08 0 0
1e-08 0 0
1e-08 0 0
1e-08 0 0
1e-08 0 0
1e-08 0 0
1e-08 0 0
1e-08 0 0
1e-08 0 0
0.000526687 -0.00385046 0
1e-08 0 0
1e-08 0 0
1e-08 0 0
1e-08 0 0
1e-08 0 0
1e-08 0 0
1e-08 0 0
1e-08 0 0
1e-08 0 0
1e-08 0 0
-0.00463105 0.00594098 0
1e-08 0 0
1e-08 0 0
1e-08 0 0
1e-08 0 0
1e-08 0 0
1e-08 0 0
1e-08 0 0
1e-08 0 0
1e-08 0 0
1e-08 0 0
1e-08 0 0
1e-08 0 0
0.000117387 -0.00771766 0
1e-08 0 0
1e-08 0 0
1e-08 0 0
1e-08 0 0
1e-08 0 0
1e-08 0 0
1e-08 0 0
1e-08 0 0
1e-08 0 0
1e-08 0 0
1e-08 0 0
1e-08 0 0
-0.00224887 0.00228805 0
1e-08 0 0
1e-08 0 0
1e-08 0 0
1e-08 0 0
1e-08 0 0
1e-08 0 0
1e-08 0 0
1e-08 0 0
1e-08 0 0
1e-08 0 0
1e-08 0 0
1e-08 0 0
1e-08 0 0
-0.000862402 -0.00700105 0
1e-08 0 0
1e-08 0 0
1e-08 0 0
1e-08 0 0
1e-08 0 0
1e-08 0 0
1e-08 0 0
1e-08 0 0
-0.00484396 0.0039626 0
1e-08 0 0
1e-08 0 0
1e-08 0 0
1e-08 0 0
1e-08 0 0
1e-08 0 0
1e-08 0 0
1e-08 0 0
1e-08 0 0
1e-08 0 0
1e-08 0 0
-0.00159825 -0.00615644 0
1e-08 0 0
1e-08 0 0
1e-08 0 0
1e-08 0 0
1e-08 0 0
1e-08 0 0
1e-08 0 0
-0.00866833 0.00521384 0
1e-08 0 0
1e-08 0 0
1e-08 0 0
1e-08 0 0
1e-08 0 0
1e-08 0 0
1e-08 0 0
1e-08 0 0
1e-08 0 0
1e-08 0 0
1e-08 0 0
-0.0030351 -0.00739154 0
1e-08 0 0
1e-08 0 0
1e-08 0 0
1e-08 0 0
1e-08 0 0
-0.00758195 0.00310372 0
1e-08 0 0
1e-08 0 0
1e-08 0 0
1e-08 0 0
1e-08 0 0
1e-08 0 0
1e-08 0 0
1e-08 0 0
-0.0050133 -0.00836141 0
1e-08 0 0
1e-08 0 0
1e-08 0 0
1e-08 0 0
-0.00618723 0.00159177 0
1e-08 0 0
1e-08 0 0
1e-08 0 0
1e-08 0 0
1e-08 0 0
1e-08 0 0
-0.00364483 -0.00450409 0
1e-08 0 0
1e-08 0 0
1e-08 0 0
-0.00721463 0.000865544 0
1e-08 0 0
1e-08 0 0
1e-08 0 0
1e-08 0 0
1e-08 0 0
1e-08 0 0
-0.00263342 -0.00261075 0
1e-08 0 0
1e-08 0 0
-0.00839668 -0.000185844 0
1e-08 0 0
1e-08 0 0
1e-08 0 0
1e-08 0 0
-0.00588629 -0.00460042 0
1e-08 0 0
-0.00359838 -0.000522371 0
1e-08 0 0
1e-08 0 0
-0.00677519 -0.00390972 0
-0.00545568 -0.00140432 0
-0.00715945 -0.00287733 0
