# vtk DataFile Version 2.0
CellBP Time: 4.08
ASCII
DATASET UNSTRUCTURED_GRID
POINTS 296 double
-9.03717 -3.70628 0
-8.47103 -4.86608 0
-9.43873 -2.4781 0
-9.7077 -1.22905 0
-8.19519 -2.75111 0
-7.75111 -5.94031 0
-6.89782 -6.91158 0
-7.75559 -3.78567 0
-7.18871 -4.76811 0
-5.95079 -7.77706 0
-4.89997 -8.50737 0
-9.80664 0.0419313 0
-9.74055 1.32961 0
-8.50754 -1.64436 0
-8.65288 -0.514557 0
-7.4359 -1.94828 0
-7.06715 -2.82832 0
-6.51629 -5.68142 0
-5.73016 -6.50297 0
-6.63684 -3.79636 0
-6.08859 -4.58193 0
-3.74147 -9.07794 0
-2.50843 -9.48449 0
-4.84134 -7.21962 0
-3.87487 -7.79952 0
-8.66737 0.632438 0
-9.50693 2.60931 0
-8.51123 1.74589 0
-9.0931 3.83453 0
-7.60337 -0.901403 0
-7.66346 0.0855205 0
-6.81691 -1.27599 0
-1.232 -9.72874 0
-6.31701 -2.09945 0
-6.19066 -2.9852 0
-5.43259 -5.384 0
-4.71658 -6.02849 0
-5.54515 -3.68128 0
-5.15965 -4.47805 0
-2.83801 -8.26806 0
-1.75885 -8.53329 0
-3.8755 -6.63781 0
-3.03028 -7.07102 0
0.053313 -9.79801 0
-7.58443 1.12588 0
-8.24584 2.88086 0
-7.44101 2.07234 0
-8.49278 4.97526 0
-7.77404 3.91596 0
-7.74547 6.03083 0
-6.65757 -0.379694 0
-6.83552 0.548976 0
-5.67888 -0.984149 0
-0.58551 -8.68835 0
0.551696 -8.63366 0
-5.21336 -2.43219 0
-4.40342 -5.01099 0
-3.8377 -5.69285 0
-4.36272 -3.74577 0
-2.03809 -7.46928 0
-1.12337 -7.68629 0
-2.9541 -6.02302 0
-2.28662 -6.54018 0
1.32782 -9.69308 0
-6.58333 1.39686 0
-7.05903 3.06037 0
-6.55629 2.332 0
-7.18272 4.90316 0
-6.61373 3.93145 0
-6.89612 6.99181 0
-6.46408 5.79415 0
-5.93735 7.85099 0
-4.403 -1.17161 0
-5.73042 0.498762 0
-4.60599 -0.0221852 0
0.00132099 -7.72612 0
1.70052 -8.48947 0
0.920609 -7.62991 0
-3.99121 -2.37533 0
-3.46722 -1.38329 0
-3.24723 -4.74106 0
-3.23554 -3.2297 0
-1.37026 -6.58465 0
-0.516059 -6.91834 0
-1.9588 -5.47172 0
2.59016 -9.44335 0
-5.42999 2.00825 0
-5.99985 3.01747 0
-6.00876 4.78106 0
-5.66884 3.91426 0
-5.66264 6.59905 0
-5.36267 5.51541 0
-4.88599 8.5935 0
-4.75416 7.26921 0
-3.47522 -0.421408 0
-4.39658 1.23576 0
-3.67444 0.586462 0
-4.01228 2.3019 0
-3.7345 9.16611 0
2.79611 -8.16347 0
0.389664 -6.67629 0
1.96509 -7.37665 0
1.25986 -6.77343 0
-2.43237 -0.866739 0
-2.82129 -2.11561 0
-2.27561 -4.05253 0
-2.30805 -2.94453 0
-0.44857 -5.77502 0
-1.20997 -4.45084 0
3.81208 -9.03962 0
-4.71563 3.33966 0
-5.00748 4.50981 0
-4.56803 6.16125 0
-4.46377 5.26105 0
-3.78615 7.86726 0
-3.75617 6.71055 0
-2.7374 8.28038 0
-1.64162 -0.12945 0
-1.44221 -0.882804 0
-2.47836 0.514125 0
-3.22279 1.4392 0
-3.19936 3.28046 0
-2.88228 2.36451 0
-1.35265 0.635484 0
-2.50615 9.56412 0
3.84536 -7.72618 0
2.88453 -6.99566 0
0.920406 -5.72042 0
2.01378 -6.28319 0
-1.67025 -1.98156 0
-1.4224 -3.24969 0
0.0852971 -4.6873 0
-0.559366 -3.66036 0
4.83242 -7.16756 0
4.96699 -8.4738 0
-3.72067 4.48083 0
-3.67255 5.64907 0
-2.83238 7.1528 0
-2.95817 6.24012 0
-1.63817 8.59863 0
-1.90137 7.49266 0
-2.31378 4.00584 0
-0.724492 -1.32194 0
-0.833152 -0.250487 0
-1.93247 1.6884 0
-2.11095 2.86458 0
-1.29995 3.5214 0
-0.871565 1.35828 0
-0.284105 0.461028 0
-0.527967 8.74701 0
-1.23691 9.80786 0
1.08586 -4.5023 0
3.8111 -6.55217 0
2.91324 -5.95834 0
2.06471 -5.31671 0
4.68562 -6.06233 0
-0.551957 -2.46431 0
0.492495 -3.43188 0
0.0575991 -1.60653 0
1.45903 -3.62826 0
5.76317 -6.48202 0
6.03915 -7.754 0
-2.43826 5.26492 0
-2.08908 6.42312 0
-0.88113 7.68888 0
-1.23896 6.81908 0
0.0930068 7.77714 0
-1.13375 4.4466 0
0.148389 -0.614721 0
-0.804384 2.49366 0
-0.340355 3.58394 0
0.0564338 1.51577 0
0.737112 0.474175 0
0.634992 8.76257 0
0.0452765 9.90801 0
2.3345 -4.20681 0
3.77445 -5.50945 0
2.93653 -5.10172 0
5.4801 -5.37825 0
4.60057 -5.1586 0
0.629754 -2.28659 0
1.24362 -2.92274 0
0.757351 -1.38983 0
2.13351 -3.0924 0
2.94926 -3.41905 0
6.06691 -4.70526 0
6.55656 -5.66907 0
7.00534 -6.89447 0
-1.00086 5.73733 0
-0.355567 6.78282 0
1.11229 7.67675 0
0.561366 6.98685 0
-0.00209123 4.68233 0
0.597476 3.80274 0
1.33454 -0.64327 0
0.52866 2.64487 0
0.955223 1.57659 0
1.90022 0.210571 0
1.60578 1.06088 0
2.10967 7.49903 0
1.78095 8.61015 0
1.33631 9.83192 0
3.75868 -4.26339 0
5.03332 -4.34981 0
5.76568 -3.86047 0
3.73325 -3.1449 0
1.80239 -1.87857 0
2.98727 -2.54534 0
6.69972 -3.88673 0
7.2874 -4.82652 0
7.8701 -5.94305 0
0.482734 5.80973 0
1.41764 6.66211 0
2.35227 6.59622 0
1.19616 4.51556 0
1.47403 3.37078 0
2.41872 -0.690911 0
2.80895 0.141404 0
1.77582 2.1548 0
2.598 1.14389 0
3.04453 7.09109 0
2.87847 8.28195 0
2.61039 9.58363 0
4.84512 -3.26306 0
6.04561 -3.0568 0
4.12681 -2.24825 0
3.21716 -1.4938 0
6.65807 -2.28831 0
7.15317 -3.00653 0
7.87998 -3.86963 0
8.60314 -4.89309 0
2.00717 5.54256 0
3.04116 6.07887 0
2.34533 4.08737 0
2.40329 3.03602 0
3.49642 -0.455828 0
3.58783 0.613604 0
2.93966 2.27053 0
3.51111 1.51387 0
3.94434 5.82027 0
3.93204 6.71093 0
3.93578 7.85208 0
3.84101 9.17409 0
5.51078 -1.89278 0
4.46754 -1.11764 0
6.63745 -1.32113 0
7.51033 -2.01368 0
8.30255 -2.83094 0
9.17588 -3.73739 0
3.36201 4.81292 0
3.29651 3.34495 0
4.6442 0.132721 0
4.46065 1.29131 0
4.00465 2.40774 0
4.47989 5.07243 0
4.7638 6.10593 0
4.91651 7.28402 0
4.99614 8.60067 0
5.81046 -0.435652 0
6.9173 -0.485882 0
7.66824 -1.06604 0
8.58301 -1.72316 0
9.58505 -2.5055 0
4.46946 3.76675 0
5.72659 1.06884 0
5.27076 2.48675 0
5.26492 4.53778 0
5.50553 5.43519 0
5.80675 6.57478 0
6.04628 7.86985 0
6.73823 0.443259 0
7.74655 -0.0258433 0
8.7492 -0.570214 0
9.83113 -1.22979 0
6.83884 1.31025 0
5.59966 3.70521 0
6.41509 2.14104 0
6.24455 3.01836 0
6.15911 4.59836 0
6.56912 5.74207 0
7.00197 7.01051 0
7.66445 0.943834 0
8.73157 0.56544 0
9.90447 0.0587162 0
7.47928 1.95747 0
6.67194 3.81405 0
7.11948 2.876 0
7.23949 4.79694 0
7.86151 6.04513 0
8.57757 1.69645 0
9.79648 1.33292 0
8.26042 2.77964 0
7.83419 3.8419 0
8.5817 4.97433 0
9.54866 2.59632 0
9.14643 3.81876 0
CELLS 542 2168
3 2 0 4
3 0 1 7
3 4 0 7
3 1 5 8
3 7 1 8
3 3 2 13
3 13 2 4
3 11 3 14
3 14 3 13
3 13 4 15
3 4 7 16
3 15 4 16
3 5 6 17
3 8 5 17
3 6 9 18
3 17 6 18
3 7 8 19
3 16 7 19
3 8 17 20
3 19 8 20
3 9 10 23
3 18 9 23
3 10 21 24
3 23 10 24
3 12 11 25
3 25 11 14
3 26 12 27
3 27 12 25
3 14 13 29
3 29 13 15
3 25 14 30
3 30 14 29
3 29 15 31
3 15 16 33
3 31 15 33
3 16 19 34
3 33 16 34
3 17 18 35
3 20 17 35
3 18 23 36
3 35 18 36
3 19 20 37
3 34 19 37
3 20 35 38
3 37 20 38
3 21 22 39
3 24 21 39
3 22 32 40
3 39 22 40
3 23 24 41
3 36 23 41
3 24 39 42
3 41 24 42
3 27 25 44
3 44 25 30
3 28 26 45
3 45 26 27
3 45 27 46
3 46 27 44
3 47 28 48
3 48 28 45
3 30 29 50
3 50 29 31
3 44 30 51
3 51 30 50
3 50 31 52
3 31 33 52
3 32 43 53
3 40 32 53
3 53 43 54
3 33 34 55
3 34 37 55
3 33 55 52
3 35 36 56
3 38 35 56
3 36 41 57
3 56 36 57
3 37 38 58
3 38 56 58
3 37 58 55
3 39 40 59
3 42 39 59
3 40 53 60
3 59 40 60
3 41 42 61
3 57 41 61
3 42 59 62
3 61 42 62
3 43 63 54
3 46 44 64
3 64 44 51
3 48 45 65
3 65 45 46
3 65 46 66
3 66 46 64
3 49 47 67
3 67 47 48
3 67 48 68
3 68 48 65
3 69 49 70
3 70 49 67
3 52 55 72
3 64 51 73
3 51 50 73
3 50 52 73
3 73 52 74
3 74 52 72
3 53 54 75
3 60 53 75
3 54 63 76
3 54 76 77
3 75 54 77
3 55 58 78
3 72 55 78
3 72 78 79
3 56 57 80
3 57 61 80
3 56 80 58
3 58 80 81
3 78 58 81
3 59 60 82
3 62 59 82
3 60 75 83
3 82 60 83
3 61 62 84
3 62 82 84
3 61 84 80
3 63 85 76
3 66 64 86
3 64 73 86
3 68 65 87
3 87 65 66
3 87 66 86
3 70 67 88
3 88 67 68
3 88 68 89
3 89 68 87
3 71 69 90
3 90 69 70
3 90 70 91
3 91 70 88
3 92 71 93
3 93 71 90
3 74 72 94
3 94 72 79
3 86 73 95
3 95 73 74
3 95 74 96
3 96 74 94
3 97 86 95
3 76 85 99
3 75 77 100
3 83 75 100
3 76 99 101
3 77 76 101
3 77 101 102
3 100 77 102
3 94 79 103
3 78 81 104
3 79 78 104
3 79 104 103
3 80 84 105
3 81 80 105
3 81 105 106
3 104 81 106
3 82 83 107
3 83 100 107
3 82 107 84
3 84 107 108
3 105 84 108
3 85 109 99
3 89 87 110
3 87 86 110
3 110 86 97
3 91 88 111
3 111 88 89
3 111 89 110
3 93 90 112
3 112 90 91
3 112 91 113
3 113 91 111
3 98 92 114
3 114 92 93
3 114 93 115
3 115 93 112
3 116 98 114
3 117 103 118
3 96 94 119
3 94 103 119
3 119 103 117
3 97 95 120
3 120 95 96
3 120 96 119
3 121 110 97
3 121 97 122
3 122 97 120
3 123 119 117
3 124 98 116
3 99 109 125
3 99 125 126
3 101 99 126
3 100 102 127
3 100 127 107
3 101 126 128
3 102 101 128
3 102 128 127
3 104 106 129
3 104 129 103
3 103 129 118
3 105 108 130
3 106 105 130
3 106 130 129
3 107 127 131
3 108 107 131
3 108 131 132
3 108 132 130
3 109 134 125
3 125 134 133
3 113 111 135
3 111 110 135
3 135 110 121
3 115 112 136
3 136 112 113
3 136 113 135
3 116 114 137
3 137 114 115
3 137 115 138
3 138 115 136
3 139 124 116
3 139 116 140
3 140 116 137
3 141 135 121
3 118 129 142
3 118 142 143
3 117 118 143
3 123 117 143
3 122 120 144
3 120 119 144
3 144 119 123
3 141 121 145
3 145 121 122
3 145 122 144
3 146 141 145
3 147 144 123
3 147 123 148
3 143 148 123
3 150 124 139
3 149 150 139
3 131 127 151
3 125 133 152
3 126 125 152
3 126 152 153
3 128 126 153
3 128 153 154
3 128 154 127
3 127 154 151
3 152 133 155
3 130 132 156
3 130 156 129
3 129 156 142
3 131 151 157
3 132 131 157
3 132 157 156
3 156 158 142
3 157 151 159
3 133 160 155
3 134 161 133
3 133 161 160
3 138 136 162
3 136 135 162
3 162 135 141
3 140 137 163
3 163 137 138
3 163 138 162
3 149 139 164
3 164 139 140
3 164 140 165
3 165 140 163
3 166 149 164
3 167 162 141
3 167 141 146
3 142 158 168
3 143 142 168
3 143 168 148
3 146 145 169
3 145 144 169
3 169 144 147
3 170 167 146
3 170 146 169
3 171 169 147
3 171 147 148
3 171 148 172
3 168 172 148
3 173 149 166
3 174 150 149
3 173 174 149
3 154 175 151
3 151 175 159
3 152 155 176
3 153 152 176
3 153 176 177
3 153 177 154
3 154 177 175
3 155 160 178
3 155 178 179
3 176 155 179
3 156 157 180
3 156 180 158
3 157 159 181
3 157 181 180
3 158 180 182
3 158 182 168
3 159 175 183
3 159 183 181
3 175 184 183
3 160 186 178
3 178 186 185
3 161 187 160
3 160 187 186
3 165 163 188
3 163 162 188
3 188 162 167
3 166 164 189
3 189 164 165
3 189 165 188
3 190 173 166
3 190 166 191
3 191 166 189
3 192 188 167
3 192 167 170
3 193 192 170
3 182 194 168
3 194 172 168
3 193 170 195
3 170 169 195
3 195 169 171
3 196 195 171
3 196 171 172
3 194 197 172
3 197 198 172
3 198 196 172
3 200 173 190
3 199 200 190
3 201 174 173
3 200 201 173
3 176 179 202
3 177 176 202
3 177 202 175
3 175 202 184
3 178 185 203
3 178 203 179
3 179 203 202
3 203 185 204
3 202 205 184
3 183 206 181
3 180 181 206
3 180 206 182
3 182 206 194
3 183 184 207
3 205 207 184
3 183 207 206
3 185 208 204
3 186 209 185
3 185 209 208
3 187 210 186
3 186 210 209
3 191 189 211
3 189 188 211
3 211 188 192
3 199 190 212
3 212 190 191
3 212 191 211
3 213 199 212
3 214 211 192
3 214 192 193
3 215 214 193
3 215 193 195
3 206 216 194
3 216 197 194
3 216 217 197
3 215 195 218
3 218 195 196
3 198 218 196
3 217 219 197
3 219 218 198
3 197 219 198
3 220 199 213
3 221 200 199
3 220 221 199
3 222 201 200
3 221 222 200
3 203 204 223
3 203 223 202
3 202 223 205
3 204 208 224
3 204 224 223
3 205 223 225
3 205 225 207
3 207 225 226
3 207 226 206
3 226 216 206
3 208 228 224
3 224 228 227
3 209 229 208
3 229 228 208
3 210 230 209
3 209 230 229
3 213 212 231
3 212 211 231
3 231 211 214
3 232 220 213
3 232 213 231
3 233 231 214
3 233 214 215
3 234 233 215
3 234 215 218
3 226 235 216
3 235 217 216
3 235 236 217
3 217 236 219
3 237 234 218
3 237 218 219
3 236 238 219
3 238 237 219
3 240 220 232
3 239 240 232
3 241 221 220
3 240 241 220
3 242 222 221
3 241 242 221
3 224 227 243
3 224 243 223
3 223 243 225
3 225 243 244
3 225 244 226
3 226 244 235
3 227 245 243
3 228 246 227
3 227 246 245
3 229 247 228
3 228 247 246
3 230 248 229
3 229 248 247
3 239 232 249
3 232 231 249
3 249 231 233
3 250 249 233
3 250 233 234
3 237 250 234
3 244 251 235
3 235 251 236
3 251 252 236
3 236 252 238
3 252 253 238
3 253 250 237
3 253 237 238
3 254 239 249
3 255 240 239
3 254 255 239
3 256 241 240
3 255 256 240
3 257 242 241
3 256 257 241
3 245 258 243
3 243 258 244
3 244 258 251
3 245 259 258
3 246 260 245
3 245 260 259
3 247 261 246
3 246 261 260
3 248 262 247
3 247 262 261
3 254 249 263
3 263 249 250
3 253 263 250
3 258 264 251
3 251 264 252
3 264 265 252
3 265 263 253
3 252 265 253
3 266 254 263
3 267 255 254
3 266 267 254
3 268 256 255
3 267 268 255
3 269 257 256
3 268 269 256
3 259 270 258
3 270 264 258
3 260 271 259
3 259 271 270
3 261 272 260
3 260 272 271
3 262 273 261
3 273 272 261
3 270 274 264
3 275 266 263
3 275 263 265
3 274 276 264
3 276 265 264
3 276 277 265
3 277 275 265
3 278 267 266
3 275 278 266
3 279 268 267
3 278 279 267
3 280 269 268
3 279 280 268
3 271 281 270
3 270 281 274
3 272 282 271
3 271 282 281
3 273 283 272
3 272 283 282
3 281 284 274
3 274 284 276
3 285 278 275
3 277 285 275
3 284 286 276
3 286 285 277
3 276 286 277
3 287 279 278
3 285 287 278
3 288 280 279
3 287 288 279
3 282 289 281
3 281 289 284
3 283 290 282
3 282 290 289
3 289 291 284
3 284 291 286
3 291 292 286
3 292 287 285
3 286 292 285
3 293 288 287
3 292 293 287
3 290 294 289
3 289 294 291
3 294 295 291
3 295 293 292
3 291 295 292
CELL_TYPES 542
5
5
5
5
5
5
5
5
5
5
5
5
5
5
5
5
5
5
5
5
5
5
5
5
5
5
5
5
5
5
5
5
5
5
5
5
5
5
5
5
5
5
5
5
5
5
5
5
5
5
5
5
5
5
5
5
5
5
5
5
5
5
5
5
5
5
5
5
5
5
5
5
5
5
5
5
5
5
5
5
5
5
5
5
5
5
5
5
5
5
5
5
5
5
5
5
5
5
5
5
5
5
5
5
5
5
5
5
5
5
5
5
5
5
5
5
5
5
5
5
5
5
5
5
5
5
5
5
5
5
5
5
5
5
5
5
5
5
5
5
5
5
5
5
5
5
5
5
5
5
5
5
5
5
5
5
5
5
5
5
5
5
5
5
5
5
5
5
5
5
5
5
5
5
5
5
5
5
5
5
5
5
5
5
5
5
5
5
5
5
5
5
5
5
5
5
5
5
5
5
5
5
5
5
5
5
5
5
5
5
5
5
5
5
5
5
5
5
5
5
5
5
5
5
5
5
5
5
5
5
5
5
5
5
5
5
5
5
5
5
5
5
5
5
5
5
5
5
5
5
5
5
5
5
5
5
5
5
5
5
5
5
5
5
5
5
5
5
5
5
5
5
5
5
5
5
5
5
5
5
5
5
5
5
5
5
5
5
5
5
5
5
5
5
5
5
5
5
5
5
5
5
5
5
5
5
5
5
5
5
5
5
5
5
5
5
5
5
5
5
5
5
5
5
5
5
5
5
5
5
5
5
5
5
5
5
5
5
5
5
5
5
5
5
5
5
5
5
5
5
5
5
5
5
5
5
5
5
5
5
5
5
5
5
5
5
5
5
5
5
5
5
5
5
5
5
5
5
5
5
5
5
5
5
5
5
5
5
5
5
5
5
5
5
5
5
5
5
5
5
5
5
5
5
5
5
5
5
5
5
5
5
5
5
5
5
5
5
5
5
5
5
5
5
5
5
5
5
5
5
5
5
5
5
5
5
5
5
5
5
5
5
5
5
5
5
5
5
5
5
5
5
5
5
5
5
5
5
5
5
5
5
5
5
5
5
5
5
5
5
5
5
5
5
5
5
5
5
5
5
5
5
5
5
5
5
5
5
5
5
5
5
5
5
5
5
5
5
5
5
5
5
5
5
5
5
5
5
5
5
5
5
5
5
5
5
5
5
5
5
5
5
5
5
5
5
5
5
5
5
5
5
5
5
5
5
5
5
5
5
5
5
POINT_DATA 296
SCALARS concentrations float 4
LOOKUP_TABLE default
0 0.970819 0.163824 9.13274
0 0.970839 0.165904 12.662
0 0.970873 0.166712 10.1279
0 0.970875 0.164261 5.33706
0 0.970858 0.0974487 -3.3495
0 0.970882 0.16537 14.8253
0 0.97085 0.167171 8.29654
0 0.970836 0.0968689 -3.36417
0 0.970867 0.0954806 -0.870431
0 0.970817 0.164479 15.7325
0 0.970862 0.164563 12.5563
0 0.970957 0.162374 14.5185
0 0.970972 0.161848 0.574651
0 0.970877 0.0944828 0.637521
0 0.970901 0.0954301 -1.67758
0 0.970873 0.0945258 0.480619
0 0.970865 0.0950234 1.60606
0 0.970868 0.0949092 -0.184218
0 0.970829 0.0947524 0.424211
0 0.970864 0.0951897 0.856882
0 0.970866 0.0940155 0.0610018
0 0.970962 0.163344 -0.776783
0 0.970988 0.161729 14.2034
0 0.97083 0.0945514 0.372911
0 0.970894 0.0942999 -0.231899
0 0.970946 0.0948865 -1.8917
0 0.971004 0.159166 1.6284
0 0.970979 0.0952945 -0.0403995
0 0.970974 0.158855 2.45225
0 0.970873 0.0957343 -2.11738
0 0.970879 0.0965008 -3.15524
0 0.970849 0.0969712 -3.79379
0 0.970966 0.163719 6.32864
0 0.970845 0.0978065 -3.89874
0 0.970852 0.0950566 0.959283
0 0.970848 0.0976216 -1.38124
0 0.970835 0.0974301 -1.5884
0 0.970855 0.0945228 0.825844
0 0.970855 0.0985389 -0.863603
0 0.970944 0.0940713 -0.223443
0 0.970941 0.0945031 0.734324
0 0.970851 0.0959093 0.437062
0 0.970877 0.0951398 -0.697176
0 0.970907 0.163066 8.56438
0 0.970903 0.0958844 0.393397
0 0.970981 0.0959463 -1.38883
0 0.970953 0.0962563 1.95239
0 0.971078 0.16132 4.95269
0 0.970965 0.0956211 -0.649413
0 0.97103 0.164656 10.0139
0 0.970845 0.0954601 -0.145985
0 0.97084 0.0964162 -0.963547
0 0.970839 0.0950556 1.36755
0 0.970916 0.0938852 -0.605344
0 0.970893 0.0930945 -0.674605
0 0.970845 0.0980379 0.6746
0 0.970845 0.095653 -1.32911
0 0.970852 0.0975976 -0.564191
0 0.970851 0.0952424 1.55512
0 0.970881 0.0949191 0.758746
0 0.970875 0.0950277 -0.758937
0 0.970858 0.095188 -0.809341
0 0.970859 0.0955075 1.21528
0 0.970872 0.165304 4.25588
0 0.97086 0.0961487 -1.86291
0 0.970918 0.100093 -2.94209
0 0.970888 0.0993901 -0.919569
0 0.971008 0.0947691 -2.09687
0 0.970877 0.0968385 3.23774
0 0.970803 0.165474 11.3225
0 0.970876 0.0963946 1.82112
0 0.970836 0.164433 9.95118
0 0.970861 0.0962077 -1.4261
0 0.970836 0.0965178 -3.12686
0 0.970858 0.0955781 -0.265484
0 0.970883 0.0939409 -0.684248
0 0.970886 0.0931231 -0.787118
0 0.970893 0.0939312 -0.466521
0 0.970861 0.0993013 2.82299
0 0.970843 0.101255 1.55877
0 0.970851 0.0964526 -0.158752
0 0.970853 0.0956339 0.74188
0 0.970854 0.094927 0.841086
0 0.970858 0.0950174 0.494067
0 0.970853 0.0947926 0.649388
0 0.97087 0.165629 8.01128
0 0.970859 0.0974712 2.78506
0 0.97086 0.0965496 2.86289
0 0.970861 0.096574 -2.71118
0 0.970862 0.096848 3.11331
0 0.970796 0.0965266 3.30779
0 0.970822 0.0959062 -0.454149
0 0.970933 0.161376 8.26501
0 0.970878 0.0974864 -0.674008
0 0.970866 0.0969594 -0.240163
0 0.970858 0.0946959 -1.68412
0 0.970875 0.0948959 -1.11741
0 0.970876 0.0950222 -1.4489
0 0.970961 0.161771 3.11405
0 0.970903 0.0934955 -0.789108
0 0.970861 0.0938521 0.129109
0 0.970896 0.0944029 0.381288
0 0.970869 0.0939155 0.473226
0 0.970852 0.0992167 1.27061
0 0.970846 0.0992168 -1.71391
0 0.970852 0.0947369 -0.761735
0 0.970864 0.0949818 0.487
0 0.97085 0.0949987 0.828746
0 0.970853 0.0962557 0.743097
0 0.97094 0.163813 7.48281
0 0.970876 0.0958623 1.10011
0 0.970865 0.0968465 3.32885
0 0.970823 0.0963997 0.16769
0 0.970849 0.0970035 3.46091
0 0.970939 0.104064 -3.33044
0 0.970884 0.101708 2.06777
0 0.970973 0.0959002 2.03472
0 0.970895 0.0940213 0.420437
0 0.97088 0.0946104 -0.165678
0 0.970887 0.0952808 -0.303573
0 0.970883 0.0940121 0.711114
0 0.970877 0.0942704 -0.956672
0 0.97089 0.0951411 0.285949
0 0.970901 0.0948509 -0.29558
0 0.970994 0.161401 4.41956
0 0.970965 0.0944635 -1.16577
0 0.970899 0.0948078 -0.829478
0 0.97085 0.0937528 0.191717
0 0.970866 0.0938028 0.674103
0 0.970862 0.0968043 -0.947237
0 0.97086 0.0941815 0.943502
0 0.970846 0.094077 -0.769187
0 0.970851 0.0949943 1.21721
0 0.970959 0.094291 0.934139
0 0.971013 0.157732 4.03141
0 0.970873 0.0962937 1.29717
0 0.970864 0.100705 4.12226
0 0.970927 0.0974709 -1.59966
0 0.970888 0.103691 2.08835
0 0.970956 0.095196 1.57724
0 0.970927 0.0963079 2.41805
0 0.970875 0.0972644 1.65085
0 0.970881 0.0960022 -0.755394
0 0.970894 0.0945573 0.83552
0 0.970889 0.0974346 0.288551
0 0.970878 0.101356 -0.906452
0 0.97087 0.0943139 0.952105
0 0.970905 0.0948979 0.0669451
0 0.970908 0.0962267 -0.818782
0 0.970857 0.0946065 1.07603
0 0.970895 0.165884 7.71827
0 0.970843 0.0946641 0.590631
0 0.970908 0.0947406 1.47634
0 0.970867 0.0945504 1.0147
0 0.970853 0.0941367 -0.322858
0 0.970918 0.0941627 1.11723
0 0.970865 0.0959948 1.62986
0 0.970859 0.0950232 -1.10087
0 0.970875 0.0958544 1.29857
0 0.970866 0.0986172 1.25336
0 0.970937 0.093418 0.722853
0 0.970939 0.159386 7.5239
0 0.970879 0.0956225 -0.712191
0 0.970885 0.0965529 2.81563
0 0.970914 0.095899 1.60369
0 0.970891 0.100814 -0.293105
0 0.970898 0.0944976 -1.18154
0 0.970878 0.0959602 0.805154
0 0.970893 0.0956503 -0.722455
0 0.970885 0.0975836 0.763901
0 0.970885 0.0947981 -0.130135
0 0.970913 0.100946 1.74975
0 0.970911 0.0958934 0.140996
0 0.970818 0.0943737 -0.707878
0 0.970767 0.159454 13.2453
0 0.970855 0.0954629 0.77729
0 0.970877 0.0978557 1.45089
0 0.970863 0.0943252 0.653371
0 0.970917 0.0937846 0.728113
0 0.970887 0.0942681 0.419177
0 0.970878 0.0970857 1.06022
0 0.970901 0.096916 1.05942
0 0.97088 0.0969423 -0.740871
0 0.970871 0.0981675 0.312627
0 0.970852 0.0936494 -0.0910346
0 0.970904 0.0936217 0.217849
0 0.970917 0.0927576 0.485719
0 0.970946 0.163125 6.44876
0 0.97088 0.0946614 -1.4931
0 0.970895 0.0948683 -1.50386
0 0.970908 0.0941951 -1.12715
0 0.970902 0.0941063 -0.656179
0 0.970877 0.0965778 0.980252
0 0.970885 0.094084 0.670845
0 0.970894 0.0964926 0.446157
0 0.970895 0.100742 1.95349
0 0.970899 0.0979043 0.214738
0 0.97091 0.0967303 0.0411699
0 0.9709 0.0965456 -1.19276
0 0.970912 0.0939713 -0.963945
0 0.970878 0.0937458 -0.372599
0 0.970794 0.16248 11.3856
0 0.970867 0.0935022 0.463447
0 0.970884 0.093973 0.395217
0 0.970889 0.0937155 -0.157856
0 0.970866 0.0935093 -0.00838806
0 0.970872 0.0987097 -0.209999
0 0.970855 0.0944778 -0.408776
0 0.970893 0.0929194 -0.23511
0 0.970853 0.0930614 0.156764
0 0.970854 0.165447 10.1517
0 0.97088 0.0945442 -0.208613
0 0.9709 0.0945322 0.379202
0 0.970901 0.0940394 -0.117921
0 0.970876 0.0938875 -0.48887
0 0.970883 0.0940595 0.487457
0 0.970875 0.0957046 0.195578
0 0.970894 0.0949229 -0.582761
0 0.97088 0.0960051 -0.982016
0 0.970889 0.10062 -0.699218
0 0.970895 0.0943715 -0.879906
0 0.970876 0.0936778 -0.128894
0 0.970876 0.162592 7.35196
0 0.970876 0.0931876 -0.258986
0 0.970892 0.0937201 -0.656664
0 0.970869 0.0929948 0.533461
0 0.970861 0.0944667 0.472684
0 0.970897 0.0939295 -0.315266
0 0.970886 0.0931506 0.287334
0 0.970836 0.093125 0.104668
0 0.970803 0.167809 11.9896
0 0.970878 0.0953562 0.45276
0 0.970888 0.0940458 0.11329
0 0.97087 0.0981373 -0.271802
0 0.970871 0.094885 0.564622
0 0.97087 0.0943611 -0.715493
0 0.970878 0.0960321 0.304422
0 0.970869 0.0976645 -1.43896
0 0.970877 0.0949498 -0.281629
0 0.970883 0.0937577 0.780417
0 0.970874 0.093264 -0.702895
0 0.970824 0.0935975 -0.255603
0 0.970808 0.159094 10.655
0 0.970881 0.0952537 0.675977
0 0.970869 0.0936665 -0.713822
0 0.970893 0.09364 -0.607768
0 0.97089 0.0935738 0.186883
0 0.970818 0.0929765 0.181945
0 0.970782 0.165937 18.181
0 0.970873 0.0954679 -0.186241
0 0.970869 0.0938683 -0.385851
0 0.970869 0.0944562 -0.695967
0 0.970869 0.093678 -0.484014
0 0.970875 0.0940541 -0.221428
0 0.970878 0.093346 0.333295
0 0.97087 0.093535 1.0222
0 0.970844 0.0928587 -0.0320932
0 0.970798 0.164445 14.8029
0 0.970873 0.094291 -0.657584
0 0.970884 0.0930669 0.512643
0 0.970894 0.0936892 0.310991
0 0.970825 0.0929517 -0.331999
0 0.97076 0.155934 5.97967
0 0.970875 0.0932609 0.657738
0 0.970865 0.0928642 -0.5148
0 0.970871 0.093327 0.67517
0 0.970877 0.0941601 1.2317
0 0.970876 0.0932524 1.09463
0 0.970891 0.0926501 0.606864
0 0.970871 0.163258 11.7447
0 0.970871 0.0928123 0.30988
0 0.970887 0.0926277 0.452426
0 0.970865 0.0929192 -0.536969
0 0.970803 0.163393 17.1543
0 0.970868 0.0936099 0.70209
0 0.970878 0.0933258 0.534146
0 0.970872 0.0938293 -0.650663
0 0.970878 0.094021 1.00137
0 0.970883 0.0939971 1.2675
0 0.970896 0.0939637 1.07946
0 0.970921 0.165094 9.51211
0 0.970885 0.0930378 0.638987
0 0.970896 0.0923634 0.117268
0 0.970874 0.160275 1.82052
0 0.970895 0.0938556 0.873671
0 0.970892 0.0944782 1.39968
0 0.970901 0.0935313 0.84673
0 0.970899 0.0941922 0.986667
0 0.970898 0.163989 7.47808
0 0.970944 0.0924472 0.429439
0 0.970934 0.1666 12.6106
0 0.970965 0.0934282 0.800312
0 0.970929 0.0937739 0.917098
0 0.970927 0.163432 8.63783
0 0.97101 0.162237 5.11365
0 0.970974 0.164092 2.58565
VECTORS fa_u float
0.00681803 0.00276291 -0
0.00620916 0.00357444 -0
0.00404535 0.00109497 -0
0.00697721 0.00101864 -0
1e-08 0 0
0.00519277 0.00399379 -0
0.00331865 0.00325281 -0
1e-08 0 0
1e-08 0 0
0.00429738 0.00538013 -0
0.00440281 0.00747743 -0
0.00646339 8.29982e-05 -0
0.00638842 -0.000745773 0
1e-08 0 0
1e-08 0 0
1e-08 0 0
1e-08 0 0
1e-08 0 0
1e-08 0 0
1e-08 0 0
1e-08 0 0
0.00281639 0.00689318 -0
0.00161297 0.00621962 -0
1e-08 0 0
1e-08 0 0
1e-08 0 0
0.00782904 -0.00202358 0
1e-08 0 0
0.00891869 -0.00382294 0
1e-08 0 0
1e-08 0 0
1e-08 0 0
0.000855453 0.00698997 -0
1e-08 0 0
1e-08 0 0
1e-08 0 0
1e-08 0 0
1e-08 0 0
1e-08 0 0
1e-08 0 0
1e-08 0 0
1e-08 0 0
1e-08 0 0
-9.99987e-05 0.00717798 -0
1e-08 0 0
1e-08 0 0
1e-08 0 0
0.00569684 -0.00349552 0
1e-08 0 0
0.00352615 -0.00279193 0
1e-08 0 0
1e-08 0 0
1e-08 0 0
1e-08 0 0
1e-08 0 0
1e-08 0 0
1e-08 0 0
1e-08 0 0
1e-08 0 0
1e-08 0 0
1e-08 0 0
1e-08 0 0
1e-08 0 0
-0.000689223 0.00493001 0
1e-08 0 0
1e-08 0 0
1e-08 0 0
1e-08 0 0
1e-08 0 0
0.00372396 -0.00369934 0
1e-08 0 0
0.00323516 -0.00406014 0
1e-08 0 0
1e-08 0 0
1e-08 0 0
1e-08 0 0
1e-08 0 0
1e-08 0 0
1e-08 0 0
1e-08 0 0
1e-08 0 0
1e-08 0 0
1e-08 0 0
1e-08 0 0
1e-08 0 0
-0.00151032 0.00574177 0
1e-08 0 0
1e-08 0 0
1e-08 0 0
1e-08 0 0
1e-08 0 0
1e-08 0 0
0.00466709 -0.00781749 0
1e-08 0 0
1e-08 0 0
1e-08 0 0
1e-08 0 0
1e-08 0 0
0.00320006 -0.00784615 0
1e-08 0 0
1e-08 0 0
1e-08 0 0
1e-08 0 0
1e-08 0 0
1e-08 0 0
1e-08 0 0
1e-08 0 0
1e-08 0 0
1e-08 0 0
-0.00272217 0.00667329 0
1e-08 0 0
1e-08 0 0
1e-08 0 0
1e-08 0 0
1e-08 0 0
1e-08 0 0
1e-08 0 0
1e-08 0 0
1e-08 0 0
1e-08 0 0
1e-08 0 0
1e-08 0 0
1e-08 0 0
1e-08 0 0
0.00146721 -0.00571006 0
1e-08 0 0
1e-08 0 0
1e-08 0 0
1e-08 0 0
1e-08 0 0
1e-08 0 0
1e-08 0 0
1e-08 0 0
1e-08 0 0
-0.0035572 0.00616213 0
1e-08 0 0
1e-08 0 0
1e-08 0 0
1e-08 0 0
1e-08 0 0
1e-08 0 0
1e-08 0 0
1e-08 0 0
1e-08 0 0
1e-08 0 0
1e-08 0 0
1e-08 0 0
1e-08 0 0
1e-08 0 0
1e-08 0 0
0.000645618 -0.00478993 0
1e-08 0 0
1e-08 0 0
1e-08 0 0
1e-08 0 0
1e-08 0 0
1e-08 0 0
1e-08 0 0
1e-08 0 0
1e-08 0 0
1e-08 0 0
-0.00435379 0.00561921 0
1e-08 0 0
1e-08 0 0
1e-08 0 0
1e-08 0 0
1e-08 0 0
1e-08 0 0
1e-08 0 0
1e-08 0 0
1e-08 0 0
1e-08 0 0
1e-08 0 0
1e-08 0 0
6.75895e-05 -0.0072289 0
1e-08 0 0
1e-08 0 0
1e-08 0 0
1e-08 0 0
1e-08 0 0
1e-08 0 0
1e-08 0 0
1e-08 0 0
1e-08 0 0
1e-08 0 0
1e-08 0 0
1e-08 0 0
-0.00305871 0.00309249 0
1e-08 0 0
1e-08 0 0
1e-08 0 0
1e-08 0 0
1e-08 0 0
1e-08 0 0
1e-08 0 0
1e-08 0 0
1e-08 0 0
1e-08 0 0
1e-08 0 0
1e-08 0 0
1e-08 0 0
-0.000860992 -0.00680834 0
1e-08 0 0
1e-08 0 0
1e-08 0 0
1e-08 0 0
1e-08 0 0
1e-08 0 0
1e-08 0 0
1e-08 0 0
-0.00499013 0.00398386 0
1e-08 0 0
1e-08 0 0
1e-08 0 0
1e-08 0 0
1e-08 0 0
1e-08 0 0
1e-08 0 0
1e-08 0 0
1e-08 0 0
1e-08 0 0
1e-08 0 0
-0.00161799 -0.00616051 0
1e-08 0 0
1e-08 0 0
1e-08 0 0
1e-08 0 0
1e-08 0 0
1e-08 0 0
1e-08 0 0
-0.00743637 0.00440243 0
1e-08 0 0
1e-08 0 0
1e-08 0 0
1e-08 0 0
1e-08 0 0
1e-08 0 0
1e-08 0 0
1e-08 0 0
1e-08 0 0
1e-08 0 0
1e-08 0 0
-0.00285495 -0.00692934 0
1e-08 0 0
1e-08 0 0
1e-08 0 0
1e-08 0 0
1e-08 0 0
-0.00691843 0.00284525 0
1e-08 0 0
1e-08 0 0
1e-08 0 0
1e-08 0 0
1e-08 0 0
1e-08 0 0
1e-08 0 0
1e-08 0 0
-0.00427526 -0.00722879 0
1e-08 0 0
1e-08 0 0
1e-08 0 0
1e-08 0 0
-0.00628544 0.00164243 0
1e-08 0 0
1e-08 0 0
1e-08 0 0
1e-08 0 0
1e-08 0 0
1e-08 0 0
-0.00373468 -0.00471093 0
1e-08 0 0
1e-08 0 0
1e-08 0 0
-0.00682368 0.00085003 0
1e-08 0 0
1e-08 0 0
1e-08 0 0
1e-08 0 0
1e-08 0 0
1e-08 0 0
-0.00337809 -0.00336053 0
1e-08 0 0
1e-08 0 0
-0.00774993 -0.000104792 0
1e-08 0 0
1e-08 0 0
1e-08 0 0
1e-08 0 0
-0.00558509 -0.00433308 0
1e-08 0 0
-0.00458535 -0.000642942 0
1e-08 0 0
1e-08 0 0
-0.00633142 -0.00365409 0
-0.0057773 -0.00151078 0
-0.00669982 -0.00272431 0
