# vtk DataFile Version 2.0
CellBP Time: 7.68
ASCII
DATASET UNSTRUCTURED_GRID
POINTS 296 double
-8.95344 -3.66728 0
-8.39463 -4.81998 0
-9.34524 -2.44499 0
-9.62095 -1.21417 0
-8.10954 -2.71599 0
-7.67799 -5.88651 0
-6.82959 -6.85133 0
-7.66887 -3.73893 0
-7.10881 -4.71255 0
-5.90215 -7.7182 0
-4.87085 -8.44995 0
-9.72751 0.0384338 0
-9.6709 1.31566 0
-8.42816 -1.6239 0
-8.58363 -0.505159 0
-7.35396 -1.91954 0
-6.98201 -2.78633 0
-6.4504 -5.63099 0
-5.68205 -6.45043 0
-6.55439 -3.74902 0
-6.01963 -4.53337 0
-3.7204 -9.01519 0
-2.49147 -9.41518 0
-4.80352 -7.16775 0
-3.85205 -7.74991 0
-8.59904 0.630035 0
-9.44924 2.59323 0
-8.45296 1.73113 0
-9.03917 3.81028 0
-7.53084 -0.885742 0
-7.596 0.0893351 0
-6.74625 -1.25535 0
-1.21907 -9.65359 0
-6.25158 -2.07189 0
-6.12113 -2.94718 0
-5.37837 -5.3361 0
-4.67473 -5.98169 0
-5.4828 -3.63922 0
-5.10107 -4.43432 0
-2.82061 -8.21248 0
-1.74714 -8.47181 0
-3.84497 -6.59409 0
-3.01308 -7.02625 0
0.0549491 -9.71428 0
-7.52045 1.11655 0
-8.19461 2.86324 0
-7.38225 2.05147 0
-8.42745 4.9335 0
-7.71338 3.88531 0
-7.67059 5.97169 0
-6.59356 -0.369882 0
-6.77201 0.549226 0
-5.62972 -0.971058 0
-0.58081 -8.62027 0
0.544524 -8.55575 0
-5.16353 -2.4057 0
-4.35692 -4.96757 0
-3.80284 -5.64989 0
-4.32198 -3.71263 0
-2.02674 -7.41895 0
-1.11605 -7.6285 0
-2.93262 -5.97842 0
-2.27289 -6.49632 0
1.31319 -9.5991 0
-6.52806 1.38254 0
-6.9991 3.03113 0
-6.50211 2.30941 0
-7.11914 4.85862 0
-6.55677 3.89176 0
-6.82802 6.92097 0
-6.40477 5.73835 0
-5.88218 7.77826 0
-4.37747 -1.16648 0
-5.68531 0.493154 0
-4.57791 -0.0271481 0
-0.00495419 -7.66405 0
1.68283 -8.40546 0
0.905563 -7.55606 0
-3.96448 -2.35587 0
-3.45692 -1.37998 0
-3.2207 -4.70618 0
-3.21931 -3.21013 0
-1.36624 -6.5355 0
-0.518879 -6.86289 0
-1.94788 -5.43743 0
2.5642 -9.35217 0
-5.38862 1.99372 0
-5.94981 2.98669 0
-5.95848 4.73524 0
-5.61902 3.87399 0
-5.60797 6.53524 0
-5.31375 5.46015 0
-4.85027 8.52859 0
-4.70817 7.19886 0
-3.46227 -0.418868 0
-4.36762 1.22871 0
-3.65502 0.585806 0
-3.98568 2.29447 0
-3.71099 9.09782 0
2.76184 -8.07329 0
0.375422 -6.61414 0
1.93515 -7.2982 0
1.23684 -6.70395 0
-2.42581 -0.863964 0
-2.81289 -2.10743 0
-2.26577 -4.02787 0
-2.29745 -2.92906 0
-0.450911 -5.72755 0
-1.20207 -4.42314 0
3.7772 -8.95811 0
-4.67856 3.30886 0
-4.96112 4.46247 0
-4.52709 6.09681 0
-4.42428 5.20684 0
-3.75538 7.8007 0
-3.71833 6.63936 0
-2.71265 8.20586 0
-1.63533 -0.124119 0
-1.43681 -0.876239 0
-2.47212 0.517057 0
-3.20467 1.43478 0
-3.17762 3.26252 0
-2.86684 2.35944 0
-1.35113 0.63767 0
-2.48859 9.48424 0
3.80102 -7.64271 0
2.84227 -6.91136 0
0.901445 -5.66678 0
1.98456 -6.21011 0
-1.66274 -1.97561 0
-1.41483 -3.23385 0
0.0799853 -4.65162 0
-0.554497 -3.6404 0
4.78158 -7.08558 0
4.92195 -8.39902 0
-3.68906 4.44127 0
-3.63957 5.59439 0
-2.80192 7.08085 0
-2.93078 6.17826 0
-1.62325 8.52702 0
-1.88239 7.42398 0
-2.29979 3.98037 0
-0.721014 -1.31744 0
-0.829887 -0.244746 0
-1.93106 1.69376 0
-2.1026 2.85689 0
-1.2973 3.50725 0
-0.871791 1.36066 0
-0.285722 0.463776 0
-0.522244 8.67762 0
-1.22683 9.72185 0
1.07136 -4.46431 0
3.75895 -6.46542 0
2.87365 -5.88627 0
2.03793 -5.25987 0
4.63315 -5.98575 0
-0.547934 -2.45706 0
0.489291 -3.41393 0
0.0594571 -1.60212 0
1.44539 -3.59952 0
5.70826 -6.41342 0
5.98566 -7.68317 0
-2.4177 5.22057 0
-2.0665 6.36108 0
-0.873097 7.62688 0
-1.22332 6.75861 0
0.0926537 7.71899 0
-1.12748 4.4198 0
0.148599 -0.611661 0
-0.807669 2.49437 0
-0.344199 3.57388 0
0.05271 1.5152 0
0.73339 0.474021 0
0.629751 8.70239 0
0.0427471 9.82988 0
2.30798 -4.16456 0
3.73197 -5.44168 0
2.90303 -5.0438 0
5.43042 -5.31806 0
4.55375 -5.09248 0
0.632636 -2.28345 0
1.23969 -2.90792 0
0.759112 -1.38761 0
2.11919 -3.0703 0
2.92547 -3.38888 0
6.02035 -4.65975 0
6.50025 -5.61658 0
6.94223 -6.82512 0
-0.991095 5.6942 0
-0.346127 6.72848 0
1.10433 7.62816 0
0.563159 6.93516 0
-0.0028442 4.66038 0
0.593831 3.78834 0
1.33241 -0.641357 0
0.523156 2.63968 0
0.950497 1.57646 0
1.89311 0.20799 0
1.59977 1.06044 0
2.09841 7.45066 0
1.7694 8.55462 0
1.32573 9.75868 0
3.72334 -4.21498 0
4.99011 -4.2968 0
5.7231 -3.8207 0
3.7055 -3.11335 0
1.79706 -1.8764 0
2.96982 -2.52765 0
6.65248 -3.85196 0
7.23251 -4.78842 0
7.80777 -5.89089 0
0.480963 5.77146 0
1.41132 6.61879 0
2.34165 6.55762 0
1.18985 4.49286 0
1.46541 3.35752 0
2.4099 -0.689762 0
2.79608 0.140134 0
1.76761 2.1501 0
2.59094 1.14083 0
3.02781 7.05137 0
2.86219 8.22964 0
2.59469 9.51447 0
4.80927 -3.23072 0
6.00462 -3.03066 0
4.10365 -2.23218 0
3.20035 -1.48843 0
6.61854 -2.27482 0
7.11178 -2.98614 0
7.83025 -3.84741 0
8.54363 -4.86119 0
1.99866 5.50986 0
3.01567 6.03981 0
2.3343 4.06626 0
2.39316 3.02158 0
3.47975 -0.452601 0
3.57233 0.613618 0
2.92699 2.25989 0
3.49051 1.50611 0
3.90784 5.77721 0
3.90433 6.66824 0
3.9146 7.80217 0
3.82016 9.11016 0
5.4783 -1.88127 0
4.44395 -1.10877 0
6.59531 -1.31073 0
7.46266 -2.00028 0
8.24843 -2.81337 0
9.11319 -3.71555 0
3.33076 4.77881 0
3.27333 3.32333 0
4.6176 0.133799 0
4.42808 1.28068 0
3.97258 2.38878 0
4.43096 5.02876 0
4.71935 6.06093 0
4.88121 7.23094 0
4.96567 8.54041 0
5.76969 -0.435666 0
6.86919 -0.486025 0
7.62032 -1.05771 0
8.52559 -1.7104 0
9.51578 -2.4878 0
4.42277 3.73412 0
5.67595 1.05489 0
5.21642 2.45934 0
5.20408 4.49395 0
5.44789 5.38864 0
5.75862 6.52008 0
5.99567 7.80777 0
6.68104 0.431965 0
7.68869 -0.0264801 0
8.68634 -0.562738 0
9.75745 -1.2167 0
6.77544 1.29074 0
5.53451 3.66654 0
6.34886 2.11148 0
6.17304 2.98141 0
6.08714 4.55135 0
6.5052 5.6868 0
6.93621 6.9499 0
7.59878 0.932341 0
8.65912 0.561154 0
9.82332 0.0624099 0
7.40527 1.93371 0
6.58763 3.7657 0
7.03868 2.83749 0
7.16464 4.74769 0
7.79411 5.99441 0
8.49842 1.68115 0
9.70439 1.32008 0
8.17259 2.74826 0
7.75342 3.80348 0
8.51057 4.93267 0
9.4604 2.57298 0
9.06781 3.78659 0
CELLS 542 2168
3 2 0 4
3 0 1 7
3 4 0 7
3 1 5 8
3 7 1 8
3 3 2 13
3 13 2 4
3 11 3 14
3 14 3 13
3 13 4 15
3 4 7 16
3 15 4 16
3 5 6 17
3 8 5 17
3 6 9 18
3 17 6 18
3 7 8 19
3 16 7 19
3 8 17 20
3 19 8 20
3 9 10 23
3 18 9 23
3 10 21 24
3 23 10 24
3 12 11 25
3 25 11 14
3 26 12 27
3 27 12 25
3 14 13 29
3 29 13 15
3 25 14 30
3 30 14 29
3 29 15 31
3 15 16 33
3 31 15 33
3 16 19 34
3 33 16 34
3 17 18 35
3 20 17 35
3 18 23 36
3 35 18 36
3 19 20 37
3 34 19 37
3 20 35 38
3 37 20 38
3 21 22 39
3 24 21 39
3 22 32 40
3 39 22 40
3 23 24 41
3 36 23 41
3 24 39 42
3 41 24 42
3 27 25 44
3 44 25 30
3 28 26 45
3 45 26 27
3 45 27 46
3 46 27 44
3 47 28 48
3 48 28 45
3 30 29 50
3 50 29 31
3 44 30 51
3 51 30 50
3 50 31 52
3 31 33 52
3 32 43 53
3 40 32 53
3 53 43 54
3 33 34 55
3 34 37 55
3 33 55 52
3 35 36 56
3 38 35 56
3 36 41 57
3 56 36 57
3 37 38 58
3 38 56 58
3 37 58 55
3 39 40 59
3 42 39 59
3 40 53 60
3 59 40 60
3 41 42 61
3 57 41 61
3 42 59 62
3 61 42 62
3 43 63 54
3 46 44 64
3 64 44 51
3 48 45 65
3 65 45 46
3 65 46 66
3 66 46 64
3 49 47 67
3 67 47 48
3 67 48 68
3 68 48 65
3 69 49 70
3 70 49 67
3 52 55 72
3 64 51 73
3 51 50 73
3 50 52 73
3 73 52 74
3 74 52 72
3 53 54 75
3 60 53 75
3 54 63 76
3 54 76 77
3 75 54 77
3 55 58 78
3 72 55 78
3 72 78 79
3 56 57 80
3 57 61 80
3 56 80 58
3 58 80 81
3 78 58 81
3 59 60 82
3 62 59 82
3 60 75 83
3 82 60 83
3 61 62 84
3 62 82 84
3 61 84 80
3 63 85 76
3 66 64 86
3 64 73 86
3 68 65 87
3 87 65 66
3 87 66 86
3 70 67 88
3 88 67 68
3 88 68 89
3 89 68 87
3 71 69 90
3 90 69 70
3 90 70 91
3 91 70 88
3 92 71 93
3 93 71 90
3 74 72 94
3 94 72 79
3 86 73 95
3 95 73 74
3 95 74 96
3 96 74 94
3 97 86 95
3 76 85 99
3 75 77 100
3 83 75 100
3 76 99 101
3 77 76 101
3 77 101 102
3 100 77 102
3 94 79 103
3 78 81 104
3 79 78 104
3 79 104 103
3 80 84 105
3 81 80 105
3 81 105 106
3 104 81 106
3 82 83 107
3 83 100 107
3 82 107 84
3 84 107 108
3 105 84 108
3 85 109 99
3 89 87 110
3 87 86 110
3 110 86 97
3 91 88 111
3 111 88 89
3 111 89 110
3 93 90 112
3 112 90 91
3 112 91 113
3 113 91 111
3 98 92 114
3 114 92 93
3 114 93 115
3 115 93 112
3 116 98 114
3 117 103 118
3 96 94 119
3 94 103 119
3 119 103 117
3 97 95 120
3 120 95 96
3 120 96 119
3 121 110 97
3 121 97 122
3 122 97 120
3 123 119 117
3 124 98 116
3 99 109 125
3 99 125 126
3 101 99 126
3 100 102 127
3 100 127 107
3 101 126 128
3 102 101 128
3 102 128 127
3 104 106 129
3 104 129 103
3 103 129 118
3 105 108 130
3 106 105 130
3 106 130 129
3 107 127 131
3 108 107 131
3 108 131 132
3 108 132 130
3 109 134 125
3 125 134 133
3 113 111 135
3 111 110 135
3 135 110 121
3 115 112 136
3 136 112 113
3 136 113 135
3 116 114 137
3 137 114 115
3 137 115 138
3 138 115 136
3 139 124 116
3 139 116 140
3 140 116 137
3 141 135 121
3 118 129 142
3 118 142 143
3 117 118 143
3 123 117 143
3 122 120 144
3 120 119 144
3 144 119 123
3 141 121 145
3 145 121 122
3 145 122 144
3 146 141 145
3 147 144 123
3 147 123 148
3 143 148 123
3 150 124 139
3 149 150 139
3 131 127 151
3 125 133 152
3 126 125 152
3 126 152 153
3 128 126 153
3 128 153 154
3 128 154 127
3 127 154 151
3 152 133 155
3 130 132 156
3 130 156 129
3 129 156 142
3 131 151 157
3 132 131 157
3 132 157 156
3 156 158 142
3 157 151 159
3 133 160 155
3 134 161 133
3 133 161 160
3 138 136 162
3 136 135 162
3 162 135 141
3 140 137 163
3 163 137 138
3 163 138 162
3 149 139 164
3 164 139 140
3 164 140 165
3 165 140 163
3 166 149 164
3 167 162 141
3 167 141 146
3 142 158 168
3 143 142 168
3 143 168 148
3 146 145 169
3 145 144 169
3 169 144 147
3 170 167 146
3 170 146 169
3 171 169 147
3 171 147 148
3 171 148 172
3 168 172 148
3 173 149 166
3 174 150 149
3 173 174 149
3 154 175 151
3 151 175 159
3 152 155 176
3 153 152 176
3 153 176 177
3 153 177 154
3 154 177 175
3 155 160 178
3 155 178 179
3 176 155 179
3 156 157 180
3 156 180 158
3 157 159 181
3 157 181 180
3 158 180 182
3 158 182 168
3 159 175 183
3 159 183 181
3 175 184 183
3 160 186 178
3 178 186 185
3 161 187 160
3 160 187 186
3 165 163 188
3 163 162 188
3 188 162 167
3 166 164 189
3 189 164 165
3 189 165 188
3 190 173 166
3 190 166 191
3 191 166 189
3 192 188 167
3 192 167 170
3 193 192 170
3 182 194 168
3 194 172 168
3 193 170 195
3 170 169 195
3 195 169 171
3 196 195 171
3 196 171 172
3 194 197 172
3 197 198 172
3 198 196 172
3 200 173 190
3 199 200 190
3 201 174 173
3 200 201 173
3 176 179 202
3 177 176 202
3 177 202 175
3 175 202 184
3 178 185 203
3 178 203 179
3 179 203 202
3 203 185 204
3 202 205 184
3 183 206 181
3 180 181 206
3 180 206 182
3 182 206 194
3 183 184 207
3 205 207 184
3 183 207 206
3 185 208 204
3 186 209 185
3 185 209 208
3 187 210 186
3 186 210 209
3 191 189 211
3 189 188 211
3 211 188 192
3 199 190 212
3 212 190 191
3 212 191 211
3 213 199 212
3 214 211 192
3 214 192 193
3 215 214 193
3 215 193 195
3 206 216 194
3 216 197 194
3 216 217 197
3 215 195 218
3 218 195 196
3 198 218 196
3 217 219 197
3 219 218 198
3 197 219 198
3 220 199 213
3 221 200 199
3 220 221 199
3 222 201 200
3 221 222 200
3 203 204 223
3 203 223 202
3 202 223 205
3 204 208 224
3 204 224 223
3 205 223 225
3 205 225 207
3 207 225 226
3 207 226 206
3 226 216 206
3 208 228 224
3 224 228 227
3 209 229 208
3 229 228 208
3 210 230 209
3 209 230 229
3 213 212 231
3 212 211 231
3 231 211 214
3 232 220 213
3 232 213 231
3 233 231 214
3 233 214 215
3 234 233 215
3 234 215 218
3 226 235 216
3 235 217 216
3 235 236 217
3 217 236 219
3 237 234 218
3 237 218 219
3 236 238 219
3 238 237 219
3 240 220 232
3 239 240 232
3 241 221 220
3 240 241 220
3 242 222 221
3 241 242 221
3 224 227 243
3 224 243 223
3 223 243 225
3 225 243 244
3 225 244 226
3 226 244 235
3 227 245 243
3 228 246 227
3 227 246 245
3 229 247 228
3 228 247 246
3 230 248 229
3 229 248 247
3 239 232 249
3 232 231 249
3 249 231 233
3 250 249 233
3 250 233 234
3 237 250 234
3 244 251 235
3 235 251 236
3 251 252 236
3 236 252 238
3 252 253 238
3 253 250 237
3 253 237 238
3 254 239 249
3 255 240 239
3 254 255 239
3 256 241 240
3 255 256 240
3 257 242 241
3 256 257 241
3 245 258 243
3 243 258 244
3 244 258 251
3 245 259 258
3 246 260 245
3 245 260 259
3 247 261 246
3 246 261 260
3 248 262 247
3 247 262 261
3 254 249 263
3 263 249 250
3 253 263 250
3 258 264 251
3 251 264 252
3 264 265 252
3 265 263 253
3 252 265 253
3 266 254 263
3 267 255 254
3 266 267 254
3 268 256 255
3 267 268 255
3 269 257 256
3 268 269 256
3 259 270 258
3 270 264 258
3 260 271 259
3 259 271 270
3 261 272 260
3 260 272 271
3 262 273 261
3 273 272 261
3 270 274 264
3 275 266 263
3 275 263 265
3 274 276 264
3 276 265 264
3 276 277 265
3 277 275 265
3 278 267 266
3 275 278 266
3 279 268 267
3 278 279 267
3 280 269 268
3 279 280 268
3 271 281 270
3 270 281 274
3 272 282 271
3 271 282 281
3 273 283 272
3 272 283 282
3 281 284 274
3 274 284 276
3 285 278 275
3 277 285 275
3 284 286 276
3 286 285 277
3 276 286 277
3 287 279 278
3 285 287 278
3 288 280 279
3 287 288 279
3 282 289 281
3 281 289 284
3 283 290 282
3 282 290 289
3 289 291 284
3 284 291 286
3 291 292 286
3 292 287 285
3 286 292 285
3 293 288 287
3 292 293 287
3 290 294 289
3 289 294 291
3 294 295 291
3 295 293 292
3 291 295 292
CELL_TYPES 542
5
5
5
5
5
5
5
5
5
5
5
5
5
5
5
5
5
5
5
5
5
5
5
5
5
5
5
5
5
5
5
5
5
5
5
5
5
5
5
5
5
5
5
5
5
5
5
5
5
5
5
5
5
5
5
5
5
5
5
5
5
5
5
5
5
5
5
5
5
5
5
5
5
5
5
5
5
5
5
5
5
5
5
5
5
5
5
5
5
5
5
5
5
5
5
5
5
5
5
5
5
5
5
5
5
5
5
5
5
5
5
5
5
5
5
5
5
5
5
5
5
5
5
5
5
5
5
5
5
5
5
5
5
5
5
5
5
5
5
5
5
5
5
5
5
5
5
5
5
5
5
5
5
5
5
5
5
5
5
5
5
5
5
5
5
5
5
5
5
5
5
5
5
5
5
5
5
5
5
5
5
5
5
5
5
5
5
5
5
5
5
5
5
5
5
5
5
5
5
5
5
5
5
5
5
5
5
5
5
5
5
5
5
5
5
5
5
5
5
5
5
5
5
5
5
5
5
5
5
5
5
5
5
5
5
5
5
5
5
5
5
5
5
5
5
5
5
5
5
5
5
5
5
5
5
5
5
5
5
5
5
5
5
5
5
5
5
5
5
5
5
5
5
5
5
5
5
5
5
5
5
5
5
5
5
5
5
5
5
5
5
5
5
5
5
5
5
5
5
5
5
5
5
5
5
5
5
5
5
5
5
5
5
5
5
5
5
5
5
5
5
5
5
5
5
5
5
5
5
5
5
5
5
5
5
5
5
5
5
5
5
5
5
5
5
5
5
5
5
5
5
5
5
5
5
5
5
5
5
5
5
5
5
5
5
5
5
5
5
5
5
5
5
5
5
5
5
5
5
5
5
5
5
5
5
5
5
5
5
5
5
5
5
5
5
5
5
5
5
5
5
5
5
5
5
5
5
5
5
5
5
5
5
5
5
5
5
5
5
5
5
5
5
5
5
5
5
5
5
5
5
5
5
5
5
5
5
5
5
5
5
5
5
5
5
5
5
5
5
5
5
5
5
5
5
5
5
5
5
5
5
5
5
5
5
5
5
5
5
5
5
5
5
5
5
5
5
5
5
5
5
5
5
5
5
5
5
5
5
5
5
5
5
5
5
5
5
5
5
5
5
5
5
5
5
5
5
5
5
5
5
5
5
5
5
5
5
5
5
5
5
5
5
5
5
5
5
5
5
5
5
5
5
5
5
5
5
5
5
5
5
5
POINT_DATA 296
SCALARS concentrations float 4
LOOKUP_TABLE default
0 0.955052 0.124998 1.69447
0 0.95505 0.123012 0.673701
0 0.954988 0.126349 2.77523
0 0.954956 0.124228 4.04825
0 0.955019 0.0942497 -0.073617
0 0.955033 0.126068 8.62156
0 0.955038 0.126303 -0.905715
0 0.955048 0.0951083 0.75164
0 0.955029 0.0940447 -0.283765
0 0.954999 0.124622 3.96893
0 0.954976 0.12523 9.21857
0 0.954948 0.125975 10.4571
0 0.95502 0.123246 2.04207
0 0.954977 0.0937251 -0.107413
0 0.954958 0.0941464 -0.348271
0 0.954996 0.0945142 -0.271518
0 0.955014 0.0960412 -0.582139
0 0.95503 0.0940966 0.564749
0 0.955013 0.0926887 -0.27547
0 0.955012 0.0943439 0.26109
0 0.955008 0.0936608 -0.014939
0 0.954959 0.125853 4.74464
0 0.954992 0.127932 6.79534
0 0.954987 0.0932805 -0.560252
0 0.954971 0.0933702 -0.37072
0 0.954977 0.0939537 0.199785
0 0.955093 0.121682 1.13168
0 0.955036 0.0945633 0.0498145
0 0.955095 0.123129 -0.0270146
0 0.954979 0.095434 0.618984
0 0.954986 0.0948398 0.557424
0 0.954978 0.0939865 -0.495923
0 0.954989 0.124158 1.4091
0 0.954988 0.0944096 0.0433467
0 0.954992 0.0959063 -0.0687773
0 0.955001 0.0929814 0.00959226
0 0.954988 0.0926468 -0.127359
0 0.954985 0.0936968 -0.255896
0 0.954983 0.0932226 -0.231066
0 0.954978 0.0933644 -0.596097
0 0.954996 0.0932007 -0.721748
0 0.95498 0.0927344 -0.303513
0 0.954984 0.0935253 -0.420356
0 0.954995 0.125694 6.29245
0 0.954991 0.0939775 -0.352046
0 0.955066 0.0949933 0.794479
0 0.955003 0.0944867 -0.760049
0 0.955017 0.12395 3.39678
0 0.955045 0.0946084 -0.469827
0 0.954972 0.12377 3.01946
0 0.954986 0.095149 -0.160766
0 0.954984 0.0951841 -0.471974
0 0.954982 0.0955323 0.166824
0 0.954994 0.0925724 -0.525701
0 0.955003 0.093439 -0.673284
0 0.954981 0.0949282 0.218434
0 0.954978 0.0930944 -0.0597973
0 0.954973 0.0927682 -0.161927
0 0.954978 0.0937099 0.27431
0 0.954989 0.0933807 -0.346143
0 0.954999 0.0927319 -0.492456
0 0.954975 0.0947549 -0.0664312
0 0.954984 0.0937107 -0.280278
0 0.955014 0.12437 1.13294
0 0.954979 0.0955907 -1.51579
0 0.95501 0.0949702 0.373951
0 0.95499 0.0948786 -0.510054
0 0.954994 0.0939619 -0.186403
0 0.955008 0.0943538 0.528
0 0.955022 0.124861 2.75638
0 0.954996 0.0939647 -0.199629
0 0.954955 0.125126 6.39983
0 0.954991 0.0975482 -0.0171006
0 0.954976 0.0951781 -1.20577
0 0.954992 0.0959056 -1.14663
0 0.955001 0.0928162 0.275115
0 0.955019 0.0929917 0.279917
0 0.954998 0.092828 0.883173
0 0.954984 0.0949182 -0.0208951
0 0.955005 0.102341 0.944571
0 0.954977 0.094029 -0.471075
0 0.954982 0.0941906 -0.949406
0 0.954989 0.0967827 -0.792478
0 0.954998 0.0937524 0.501324
0 0.954984 0.0950857 -0.162254
0 0.955061 0.123236 3.28701
0 0.954978 0.0940079 -0.313824
0 0.954978 0.0944706 -0.052463
0 0.954999 0.093756 0.1925
0 0.954978 0.0960096 0.681788
0 0.954985 0.0935604 -0.367384
0 0.954973 0.0938967 0.241308
0 0.954963 0.124712 8.97657
0 0.954944 0.0942551 -0.616929
0 0.955007 0.0949666 -0.7865
0 0.954984 0.0939113 -0.295678
0 0.955 0.0945377 -1.01051
0 0.954986 0.094079 -0.502121
0 0.955038 0.122283 3.02617
0 0.955047 0.0951083 -0.461635
0 0.954996 0.0931743 -0.595005
0 0.954995 0.0943723 -1.01618
0 0.954988 0.0936576 0.384601
0 0.955008 0.0940071 0.342069
0 0.955 0.0944194 -0.932966
0 0.954993 0.0940988 -0.994424
0 0.954995 0.094613 -1.10827
0 0.954988 0.0937817 -0.639111
0 0.954994 0.0942948 0.0532047
0 0.955072 0.125784 -2.68074
0 0.954975 0.0945768 -0.273884
0 0.954974 0.094395 -0.375981
0 0.954957 0.0931028 -0.285502
0 0.954961 0.093737 0.303311
0 0.954991 0.0950629 0.579404
0 0.95496 0.0968974 -0.175215
0 0.955024 0.0940343 -1.02865
0 0.955004 0.0937444 -0.500332
0 0.955003 0.0935316 0.07815
0 0.955003 0.0927153 0.21034
0 0.954995 0.0926271 0.226762
0 0.954981 0.0950688 0.592544
0 0.954986 0.0974034 -1.67735
0 0.955006 0.094648 1.63744
0 0.955025 0.124638 1.70371
0 0.955024 0.0970938 1.1596
0 0.954994 0.0953275 1.46469
0 0.954988 0.0931602 -0.66715
0 0.95498 0.0937911 1.30933
0 0.955007 0.0942878 -0.427045
0 0.955004 0.0936618 -0.669994
0 0.954994 0.0946499 0.810982
0 0.955 0.0941968 0.148541
0 0.954998 0.0952098 -1.32759
0 0.955021 0.122594 2.92211
0 0.954974 0.0934366 -0.282277
0 0.954968 0.0949187 -1.19302
0 0.954973 0.0945082 -0.98907
0 0.954963 0.09435 0.14893
0 0.954987 0.0932662 -0.466297
0 0.954984 0.0943011 0.343177
0 0.954973 0.0948266 -1.22806
0 0.955007 0.0935051 0.358576
0 0.955003 0.0934227 0.814587
0 0.954995 0.0947614 -1.57514
0 0.954982 0.0952081 -1.49596
0 0.954977 0.0956726 -0.676654
0 0.955002 0.0946812 0.683196
0 0.954998 0.0969268 1.9958
0 0.954959 0.0934623 -0.536391
0 0.954967 0.125418 5.60449
0 0.95499 0.0938123 0.590193
0 0.954995 0.0951243 -1.0267
0 0.954985 0.0946959 -1.57998
0 0.95498 0.0937691 -1.144
0 0.954985 0.0973328 -0.620002
0 0.955007 0.0947724 0.671602
0 0.954998 0.0950329 -0.00834511
0 0.955015 0.0962275 2.3736
0 0.95498 0.0941569 1.02858
0 0.954967 0.0938776 -0.438628
0 0.954991 0.123157 7.95261
0 0.954971 0.0952094 1.36579
0 0.954966 0.0936995 0.0925784
0 0.954976 0.093283 -0.718521
0 0.954976 0.093291 -0.709863
0 0.954961 0.0944624 0.414765
0 0.954974 0.0946416 -0.571784
0 0.954999 0.0964939 1.58066
0 0.954989 0.0978598 1.51997
0 0.954983 0.094879 0.993381
0 0.955003 0.0945644 -0.986766
0 0.954994 0.0936985 -0.639206
0 0.954956 0.0933562 -0.174974
0 0.954952 0.124165 6.26282
0 0.954979 0.094062 -0.693383
0 0.954987 0.0984238 0.724005
0 0.954982 0.0948009 -0.742596
0 0.95498 0.0935198 -0.0864858
0 0.954985 0.0962083 -0.0955943
0 0.955005 0.0948873 1.2144
0 0.954984 0.0941186 1.38814
0 0.955008 0.0948275 -0.385247
0 0.954977 0.0939497 1.12037
0 0.954975 0.0948645 -0.604241
0 0.954977 0.0932334 -0.202678
0 0.954958 0.0932315 -0.198818
0 0.954941 0.122843 6.25247
0 0.954971 0.0945301 0.503427
0 0.954965 0.0943304 -0.930283
0 0.954953 0.0951495 1.15534
0 0.954954 0.094951 1.22948
0 0.954977 0.0943741 -1.27728
0 0.954986 0.0949316 -0.425345
0 0.954994 0.0947495 0.971865
0 0.954986 0.0939783 0.00662463
0 0.954985 0.102742 -2.83294
0 0.95499 0.0937963 -0.0818156
0 0.954972 0.0939333 -0.156541
0 0.954952 0.0945034 1.62067
0 0.954974 0.0940009 0.423954
0 0.95497 0.126341 6.22855
0 0.954977 0.0938949 -0.150558
0 0.954979 0.0934926 -0.0196985
0 0.954979 0.0935226 -0.115278
0 0.954976 0.093179 0.425356
0 0.954993 0.0951598 -0.730227
0 0.954986 0.0951224 -0.763417
0 0.954973 0.0932703 0.356697
0 0.954966 0.0935084 -0.322006
0 0.954961 0.124378 3.78697
0 0.954971 0.097247 1.43467
0 0.954958 0.0966679 2.4303
0 0.954971 0.0973795 -0.619103
0 0.95498 0.0940607 0.920927
0 0.954981 0.093801 -0.906165
0 0.954988 0.0928594 -0.0855729
0 0.954996 0.0940066 0.253275
0 0.954967 0.0937342 -0.472134
0 0.95498 0.0935298 0.689669
0 0.954975 0.0956041 -0.45389
0 0.955 0.0942927 1.03717
0 0.955002 0.124055 3.47379
0 0.954973 0.093658 0.404632
0 0.954981 0.0942738 -0.903687
0 0.954975 0.0934225 0.655604
0 0.954986 0.0963456 -0.937227
0 0.954988 0.0942987 -0.739602
0 0.954964 0.0939747 0.861062
0 0.954936 0.0928552 0.457667
0 0.954939 0.124758 9.0145
0 0.954991 0.0970333 -1.48111
0 0.954988 0.0943187 0.62316
0 0.954988 0.100874 -2.1532
0 0.954964 0.0949748 -0.829849
0 0.954978 0.093391 0.292162
0 0.95499 0.0940569 0.489393
0 0.954966 0.0954385 0.178178
0 0.954978 0.0975062 0.172543
0 0.954979 0.0948307 -0.628536
0 0.954988 0.0944806 -0.772286
0 0.955018 0.0943994 0.78173
0 0.955036 0.124926 3.67741
0 0.954983 0.103248 -1.81219
0 0.954968 0.0936404 0.755758
0 0.955 0.0948121 0.100153
0 0.954961 0.0943017 -0.319123
0 0.954923 0.0937296 0.404871
0 0.954904 0.125353 7.60419
0 0.954993 0.0945214 1.4447
0 0.954982 0.0961657 1.09433
0 0.954974 0.0950144 0.193756
0 0.954978 0.0939903 -0.59068
0 0.954976 0.0939995 0.0515204
0 0.954983 0.0950825 0.416989
0 0.954997 0.0939811 -0.289786
0 0.955014 0.0935599 -0.0286853
0 0.955029 0.12513 0.0395551
0 0.954984 0.0978398 2.64262
0 0.954989 0.0939956 1.06553
0 0.95496 0.0937544 0.895951
0 0.954921 0.0939329 0.437725
0 0.954909 0.124314 9.20641
0 0.954979 0.0950664 0.704732
0 0.954971 0.0936329 0.492741
0 0.954968 0.0934892 0.501834
0 0.954996 0.0952862 -0.23027
0 0.955011 0.0942448 -0.0515716
0 0.955013 0.0935745 -0.0922947
0 0.955022 0.126418 4.55719
0 0.954974 0.0948598 -0.69624
0 0.954953 0.0925933 0.64888
0 0.954907 0.0931194 0.679417
0 0.954896 0.12509 8.44607
0 0.954964 0.09401 0.515976
0 0.954973 0.093851 0.148228
0 0.954964 0.0933936 0.509146
0 0.954965 0.0938533 0.259017
0 0.954999 0.102603 -0.813489
0 0.955009 0.0934586 -0.0308432
0 0.955014 0.122577 0.614963
0 0.954954 0.0930382 0.659892
0 0.954925 0.0925386 -0.476754
0 0.954886 0.12416 6.52486
0 0.954955 0.093037 0.443215
0 0.954968 0.0965269 0.096144
0 0.954961 0.0935867 -0.802407
0 0.954981 0.0932703 -0.311842
0 0.954998 0.123734 4.20699
0 0.954955 0.0928675 0.335203
0 0.954941 0.125292 6.6554
0 0.954951 0.0934736 -0.520634
0 0.954952 0.0942997 -0.857105
0 0.954955 0.121744 4.59357
0 0.954956 0.124016 8.43417
0 0.954937 0.125073 5.34147
VECTORS fa_u float
0.00718809 0.00287707 -0
0.00661877 0.00380398 -0
0.00305398 0.00083101 -0
0.00717861 0.001105 -0
1e-08 0 0
0.00516248 0.00397742 -0
0.00268667 0.00260476 -0
1e-08 0 0
1e-08 0 0
0.00449998 0.00551367 -0
0.0051373 0.00864176 -0
0.00655438 0.000129422 -0
0.00625507 -0.000681305 0
1e-08 0 0
1e-08 0 0
1e-08 0 0
1e-08 0 0
1e-08 0 0
1e-08 0 0
1e-08 0 0
1e-08 0 0
0.00293274 0.0072295 -0
0.00159607 0.00625355 -0
1e-08 0 0
1e-08 0 0
1e-08 0 0
0.00877215 -0.00222146 0
1e-08 0 0
0.0107202 -0.0046806 0
1e-08 0 0
1e-08 0 0
1e-08 0 0
0.000856373 0.00729077 -0
1e-08 0 0
1e-08 0 0
1e-08 0 0
1e-08 0 0
1e-08 0 0
1e-08 0 0
1e-08 0 0
1e-08 0 0
1e-08 0 0
1e-08 0 0
-0.000162798 0.00756521 -0
1e-08 0 0
1e-08 0 0
1e-08 0 0
0.00565579 -0.00358118 0
1e-08 0 0
0.00280416 -0.00225666 0
1e-08 0 0
1e-08 0 0
1e-08 0 0
1e-08 0 0
1e-08 0 0
1e-08 0 0
1e-08 0 0
1e-08 0 0
1e-08 0 0
1e-08 0 0
1e-08 0 0
1e-08 0 0
1e-08 0 0
-0.000602455 0.00417468 0
1e-08 0 0
1e-08 0 0
1e-08 0 0
1e-08 0 0
1e-08 0 0
0.00328164 -0.00324864 0
1e-08 0 0
0.00285564 -0.00351311 0
1e-08 0 0
1e-08 0 0
1e-08 0 0
1e-08 0 0
1e-08 0 0
1e-08 0 0
1e-08 0 0
1e-08 0 0
1e-08 0 0
1e-08 0 0
1e-08 0 0
1e-08 0 0
1e-08 0 0
-0.00139898 0.00537776 0
1e-08 0 0
1e-08 0 0
1e-08 0 0
1e-08 0 0
1e-08 0 0
1e-08 0 0
0.00553744 -0.00911122 0
1e-08 0 0
1e-08 0 0
1e-08 0 0
1e-08 0 0
1e-08 0 0
0.0036078 -0.00891585 0
1e-08 0 0
1e-08 0 0
1e-08 0 0
1e-08 0 0
1e-08 0 0
1e-08 0 0
1e-08 0 0
1e-08 0 0
1e-08 0 0
1e-08 0 0
-0.00287826 0.00711983 0
1e-08 0 0
1e-08 0 0
1e-08 0 0
1e-08 0 0
1e-08 0 0
1e-08 0 0
1e-08 0 0
1e-08 0 0
1e-08 0 0
1e-08 0 0
1e-08 0 0
1e-08 0 0
1e-08 0 0
1e-08 0 0
0.00136415 -0.0054305 0
1e-08 0 0
1e-08 0 0
1e-08 0 0
1e-08 0 0
1e-08 0 0
1e-08 0 0
1e-08 0 0
1e-08 0 0
1e-08 0 0
-0.00371229 0.00643047 0
1e-08 0 0
1e-08 0 0
1e-08 0 0
1e-08 0 0
1e-08 0 0
1e-08 0 0
1e-08 0 0
1e-08 0 0
1e-08 0 0
1e-08 0 0
1e-08 0 0
1e-08 0 0
1e-08 0 0
1e-08 0 0
1e-08 0 0
0.000540905 -0.00396136 0
1e-08 0 0
1e-08 0 0
1e-08 0 0
1e-08 0 0
1e-08 0 0
1e-08 0 0
1e-08 0 0
1e-08 0 0
1e-08 0 0
1e-08 0 0
-0.00459384 0.00589669 0
1e-08 0 0
1e-08 0 0
1e-08 0 0
1e-08 0 0
1e-08 0 0
1e-08 0 0
1e-08 0 0
1e-08 0 0
1e-08 0 0
1e-08 0 0
1e-08 0 0
1e-08 0 0
0.000110573 -0.00766338 0
1e-08 0 0
1e-08 0 0
1e-08 0 0
1e-08 0 0
1e-08 0 0
1e-08 0 0
1e-08 0 0
1e-08 0 0
1e-08 0 0
1e-08 0 0
1e-08 0 0
1e-08 0 0
-0.00233516 0.00237402 0
1e-08 0 0
1e-08 0 0
1e-08 0 0
1e-08 0 0
1e-08 0 0
1e-08 0 0
1e-08 0 0
1e-08 0 0
1e-08 0 0
1e-08 0 0
1e-08 0 0
1e-08 0 0
1e-08 0 0
-0.00086008 -0.00695868 0
1e-08 0 0
1e-08 0 0
1e-08 0 0
1e-08 0 0
1e-08 0 0
1e-08 0 0
1e-08 0 0
1e-08 0 0
-0.004888 0.00398572 0
1e-08 0 0
1e-08 0 0
1e-08 0 0
1e-08 0 0
1e-08 0 0
1e-08 0 0
1e-08 0 0
1e-08 0 0
1e-08 0 0
1e-08 0 0
1e-08 0 0
-0.00160456 -0.00617166 0
1e-08 0 0
1e-08 0 0
1e-08 0 0
1e-08 0 0
1e-08 0 0
1e-08 0 0
1e-08 0 0
-0.00848571 0.00509228 0
1e-08 0 0
1e-08 0 0
1e-08 0 0
1e-08 0 0
1e-08 0 0
1e-08 0 0
1e-08 0 0
1e-08 0 0
1e-08 0 0
1e-08 0 0
1e-08 0 0
-0.00300547 -0.00731567 0
1e-08 0 0
1e-08 0 0
1e-08 0 0
1e-08 0 0
1e-08 0 0
-0.0074818 0.00306456 0
1e-08 0 0
1e-08 0 0
1e-08 0 0
1e-08 0 0
1e-08 0 0
1e-08 0 0
1e-08 0 0
1e-08 0 0
-0.00493551 -0.00824423 0
1e-08 0 0
1e-08 0 0
1e-08 0 0
1e-08 0 0
-0.00620806 0.00160057 0
1e-08 0 0
1e-08 0 0
1e-08 0 0
1e-08 0 0
1e-08 0 0
1e-08 0 0
-0.00362424 -0.00449022 0
1e-08 0 0
1e-08 0 0
1e-08 0 0
-0.0071487 0.000862097 0
1e-08 0 0
1e-08 0 0
1e-08 0 0
1e-08 0 0
1e-08 0 0
1e-08 0 0
-0.00275498 -0.00273232 0
1e-08 0 0
1e-08 0 0
-0.0083105 -0.000173806 0
1e-08 0 0
1e-08 0 0
1e-08 0 0
1e-08 0 0
-0.00583109 -0.00455092 0
1e-08 0 0
-0.00373875 -0.000540466 0
1e-08 0 0
1e-08 0 0
-0.00671739 -0.00387529 0
-0.00549575 -0.0014184 0
-0.00706989 -0.00284579 0
