# vtk DataFile Version 2.0
CellBP Time: 1.52
ASCII
DATASET UNSTRUCTURED_GRID
POINTS 296 double
-9.15426 -3.76085 0
-8.57782 -4.93049 0
-9.56995 -2.52461 0
-9.82839 -1.24934 0
-8.32364 -2.80487 0
-7.85337 -6.01548 0
-6.99306 -6.99606 0
-7.88336 -3.85582 0
-7.31003 -4.84705 0
-6.01785 -7.85918 0
-4.93859 -8.5867 0
-9.91633 0.0481066 0
-9.83538 1.34942 0
-8.62677 -1.67495 0
-8.75815 -0.527637 0
-7.55726 -1.99208 0
-7.19278 -2.88966 0
-6.61137 -5.75932 0
-5.80264 -6.57805 0
-6.75809 -3.86926 0
-6.19327 -4.65567 0
-3.7688 -9.1636 0
-2.53131 -9.5806 0
-4.89331 -7.29101 0
-3.90546 -7.86826 0
-8.76591 0.639755 0
-9.58442 2.63124 0
-8.59912 1.76728 0
-9.16572 3.86684 0
-7.71397 -0.923962 0
-7.76647 0.0811943 0
-6.92285 -1.30757 0
-1.24994 -9.83291 0
-6.4151 -2.14219 0
-6.29219 -3.04114 0
-5.51599 -5.4549 0
-4.77969 -6.09612 0
-5.63505 -3.7399 0
-5.2467 -4.54431 0
-2.86084 -8.34391 0
-1.77573 -8.61857 0
-3.91709 -6.705 0
-3.05045 -7.13563 0
0.0508295 -9.91486 0
-7.67898 1.13964 0
-8.31903 2.90924 0
-7.52756 2.1021 0
-8.58258 5.03279 0
-7.85772 3.96592 0
-7.85113 6.11275 0
-6.75216 -0.393707 0
-6.92953 0.550606 0
-5.75072 -0.999292 0
-0.591113 -8.78568 0
0.560881 -8.74278 0
-5.28477 -2.47126 0
-4.47351 -5.07752 0
-3.88914 -5.75755 0
-4.42363 -3.79324 0
-2.05656 -7.54255 0
-1.13169 -7.7652 0
-2.98648 -6.0858 0
-2.30427 -6.60287 0
1.34896 -9.82551 0
-6.66609 1.41628 0
-7.14741 3.10476 0
-6.63742 2.36406 0
-7.27176 4.97039 0
-6.69692 3.98778 0
-6.9924 7.09147 0
-6.5506 5.87384 0
-6.01488 7.95342 0
-4.4427 -1.1801 0
-5.7967 0.50924 0
-4.64663 -0.0135584 0
0.00800242 -7.82343 0
1.72991 -8.61229 0
0.943411 -7.73596 0
-4.02815 -2.40006 0
-3.48164 -1.3894 0
-3.28421 -4.79269 0
-3.25985 -3.2614 0
-1.37605 -6.65735 0
-0.509285 -7.00237 0
-1.97281 -5.52373 0
2.62724 -9.57169 0
-5.49113 2.03044 0
-6.07427 3.05992 0
-6.08556 4.85119 0
-5.74006 3.97377 0
-5.74068 6.69358 0
-5.43426 5.59829 0
-4.93549 8.68386 0
-4.82154 7.37608 0
-3.49642 -0.423193 0
-4.4382 1.24636 0
-3.70408 0.591297 0
-4.05275 2.31693 0
-3.76715 9.26102 0
2.84808 -8.29824 0
0.414259 -6.77123 0
2.01074 -7.4944 0
1.29688 -6.87827 0
-2.4426 -0.872679 0
-2.83524 -2.12894 0
-2.29086 -4.08823 0
-2.32184 -2.9682 0
-0.443814 -5.84353 0
-1.21978 -4.48919 0
3.86174 -9.15402 0
-4.77356 3.38054 0
-5.07079 4.57692 0
-4.63069 6.25611 0
-4.5238 5.33985 0
-3.83064 7.96739 0
-3.81204 6.81718 0
-2.77374 8.39293 0
-1.64713 -0.136351 0
-1.44841 -0.888998 0
-2.48659 0.508985 0
-3.2472 1.44435 0
-3.23071 3.30985 0
-2.90503 2.37158 0
-1.35449 0.628581 0
-2.53071 9.67586 0
3.91367 -7.85365 0
2.94771 -7.12348 0
0.946845 -5.80051 0
2.06111 -6.38765 0
-1.68041 -1.99066 0
-1.43199 -3.27344 0
0.0897856 -4.73591 0
-0.56518 -3.68799 0
4.91033 -7.28692 0
5.03074 -8.57851 0
-3.76488 4.53824 0
-3.72264 5.73126 0
-2.87507 7.2605 0
-2.99969 6.33022 0
-1.65869 8.70594 0
-1.93068 7.59158 0
-2.33328 4.04271 0
-0.729372 -1.32623 0
-0.835823 -0.256313 0
-1.93519 1.68264 0
-2.1221 2.87395 0
-1.30476 3.53985 0
-0.868773 1.35181 0
-0.281729 0.457635 0
-0.534007 8.84617 0
-1.25104 9.92872 0
1.10659 -4.55988 0
3.88968 -6.68207 0
2.97246 -6.06603 0
2.10614 -5.40188 0
4.76337 -6.17526 0
-0.55707 -2.47682 0
0.494172 -3.45711 0
0.0549567 -1.61052 0
1.47734 -3.67093 0
5.84626 -6.58671 0
6.11481 -7.85346 0
-2.46677 5.3309 0
-2.12209 6.50971 0
-0.899244 7.7787 0
-1.26507 6.90795 0
0.0877734 7.85986 0
-1.14141 4.48415 0
0.150668 -0.617881 0
-0.799251 2.49019 0
-0.332945 3.59749 0
0.0622936 1.51375 0
0.742116 0.472623 0
0.643515 8.85151 0
0.0489356 10.0169 0
2.37012 -4.26879 0
3.84121 -5.61261 0
2.98646 -5.18942 0
5.55328 -5.46743 0
4.6724 -5.25688 0
0.629415 -2.29299 0
1.25362 -2.94575 0
0.758605 -1.39175 0
2.15712 -3.12631 0
2.98435 -3.46544 0
6.13738 -4.77419 0
6.63487 -5.74849 0
7.09424 -6.99185 0
-1.01581 5.80245 0
-0.367835 6.86251 0
1.12128 7.75055 0
0.558822 7.06051 0
-0.00060055 4.71724 0
0.605872 3.82338 0
1.33943 -0.642561 0
0.537428 2.65062 0
0.963872 1.575 0
1.90862 0.213407 0
1.61371 1.06332 0
2.12583 7.56513 0
1.79611 8.69132 0
1.35082 9.93351 0
3.8098 -4.33279 0
5.09884 -4.42773 0
5.83009 -3.91973 0
3.77316 -3.18905 0
1.81068 -1.88247 0
3.01304 -2.56835 0
6.76567 -3.935 0
7.36396 -4.88302 0
7.95762 -6.01601 0
0.483936 5.86617 0
1.42652 6.72573 0
2.37004 6.65488 0
1.20745 4.54836 0
1.48603 3.39144 0
2.43308 -0.691633 0
2.82392 0.142511 0
1.7869 2.16202 0
2.60914 1.14798 0
3.0669 7.1541 0
2.8983 8.35875 0
2.63165 9.67945 0
4.89821 -3.3145 0
6.10645 -3.09769 0
4.16398 -2.27003 0
3.23963 -1.50134 0
6.71634 -2.30792 0
7.2154 -3.03505 0
7.94917 -3.90354 0
8.68533 -4.93665 0
2.02021 5.58815 0
3.07739 6.13854 0
2.36007 4.11973 0
2.41694 3.05628 0
3.51959 -0.459731 0
3.60993 0.613191 0
2.95759 2.28551 0
3.53906 1.52413 0
3.99748 5.88182 0
3.97385 6.77707 0
3.9657 7.92256 0
3.8686 9.26256 0
5.55685 -1.91238 0
4.50175 -1.12782 0
6.69921 -1.33234 0
7.57667 -2.03244 0
8.37847 -2.857 0
9.26274 -3.76756 0
3.40814 4.86454 0
3.33133 3.37734 0
4.68151 0.130427 0
4.50674 1.30645 0
4.05242 2.43489 0
4.55162 5.1363 0
4.82698 6.17507 0
4.96841 7.36128 0
5.0374 8.68475 0
5.86847 -0.434357 0
6.99236 -0.487488 0
7.74116 -1.0807 0
8.66636 -1.74104 0
9.68036 -2.53046 0
4.53583 3.81547 0
5.79863 1.09164 0
5.35085 2.52532 0
5.35522 4.60363 0
5.5906 5.50596 0
5.88009 6.65294 0
6.1163 7.95687 0
6.82433 0.458818 0
7.83391 -0.0246929 0
8.84028 -0.581925 0
9.9337 -1.24933 0
6.93691 1.34096 0
5.69603 3.76298 0
6.51637 2.18502 0
6.35278 3.07331 0
6.26532 4.66923 0
6.6673 5.82015 0
7.09388 7.09578 0
7.76182 0.961895 0
8.83674 0.570418 0
10.017 0.0520819 0
7.58942 1.99483 0
6.79724 3.88594 0
7.24018 2.93198 0
7.35068 4.86787 0
7.95512 6.11607 0
8.69537 1.72058 0
9.92609 1.35018 0
8.38887 2.82593 0
7.95217 3.90175 0
8.68038 5.0325 0
9.67176 2.62841 0
9.2552 3.8631 0
CELLS 542 2168
3 2 0 4
3 0 1 7
3 4 0 7
3 1 5 8
3 7 1 8
3 3 2 13
3 13 2 4
3 11 3 14
3 14 3 13
3 13 4 15
3 4 7 16
3 15 4 16
3 5 6 17
3 8 5 17
3 6 9 18
3 17 6 18
3 7 8 19
3 16 7 19
3 8 17 20
3 19 8 20
3 9 10 23
3 18 9 23
3 10 21 24
3 23 10 24
3 12 11 25
3 25 11 14
3 26 12 27
3 27 12 25
3 14 13 29
3 29 13 15
3 25 14 30
3 30 14 29
3 29 15 31
3 15 16 33
3 31 15 33
3 16 19 34
3 33 16 34
3 17 18 35
3 20 17 35
3 18 23 36
3 35 18 36
3 19 20 37
3 34 19 37
3 20 35 38
3 37 20 38
3 21 22 39
3 24 21 39
3 22 32 40
3 39 22 40
3 23 24 41
3 36 23 41
3 24 39 42
3 41 24 42
3 27 25 44
3 44 25 30
3 28 26 45
3 45 26 27
3 45 27 46
3 46 27 44
3 47 28 48
3 48 28 45
3 30 29 50
3 50 29 31
3 44 30 51
3 51 30 50
3 50 31 52
3 31 33 52
3 32 43 53
3 40 32 53
3 53 43 54
3 33 34 55
3 34 37 55
3 33 55 52
3 35 36 56
3 38 35 56
3 36 41 57
3 56 36 57
3 37 38 58
3 38 56 58
3 37 58 55
3 39 40 59
3 42 39 59
3 40 53 60
3 59 40 60
3 41 42 61
3 57 41 61
3 42 59 62
3 61 42 62
3 43 63 54
3 46 44 64
3 64 44 51
3 48 45 65
3 65 45 46
3 65 46 66
3 66 46 64
3 49 47 67
3 67 47 48
3 67 48 68
3 68 48 65
3 69 49 70
3 70 49 67
3 52 55 72
3 64 51 73
3 51 50 73
3 50 52 73
3 73 52 74
3 74 52 72
3 53 54 75
3 60 53 75
3 54 63 76
3 54 76 77
3 75 54 77
3 55 58 78
3 72 55 78
3 72 78 79
3 56 57 80
3 57 61 80
3 56 80 58
3 58 80 81
3 78 58 81
3 59 60 82
3 62 59 82
3 60 75 83
3 82 60 83
3 61 62 84
3 62 82 84
3 61 84 80
3 63 85 76
3 66 64 86
3 64 73 86
3 68 65 87
3 87 65 66
3 87 66 86
3 70 67 88
3 88 67 68
3 88 68 89
3 89 68 87
3 71 69 90
3 90 69 70
3 90 70 91
3 91 70 88
3 92 71 93
3 93 71 90
3 74 72 94
3 94 72 79
3 86 73 95
3 95 73 74
3 95 74 96
3 96 74 94
3 97 86 95
3 76 85 99
3 75 77 100
3 83 75 100
3 76 99 101
3 77 76 101
3 77 101 102
3 100 77 102
3 94 79 103
3 78 81 104
3 79 78 104
3 79 104 103
3 80 84 105
3 81 80 105
3 81 105 106
3 104 81 106
3 82 83 107
3 83 100 107
3 82 107 84
3 84 107 108
3 105 84 108
3 85 109 99
3 89 87 110
3 87 86 110
3 110 86 97
3 91 88 111
3 111 88 89
3 111 89 110
3 93 90 112
3 112 90 91
3 112 91 113
3 113 91 111
3 98 92 114
3 114 92 93
3 114 93 115
3 115 93 112
3 116 98 114
3 117 103 118
3 96 94 119
3 94 103 119
3 119 103 117
3 97 95 120
3 120 95 96
3 120 96 119
3 121 110 97
3 121 97 122
3 122 97 120
3 123 119 117
3 124 98 116
3 99 109 125
3 99 125 126
3 101 99 126
3 100 102 127
3 100 127 107
3 101 126 128
3 102 101 128
3 102 128 127
3 104 106 129
3 104 129 103
3 103 129 118
3 105 108 130
3 106 105 130
3 106 130 129
3 107 127 131
3 108 107 131
3 108 131 132
3 108 132 130
3 109 134 125
3 125 134 133
3 113 111 135
3 111 110 135
3 135 110 121
3 115 112 136
3 136 112 113
3 136 113 135
3 116 114 137
3 137 114 115
3 137 115 138
3 138 115 136
3 139 124 116
3 139 116 140
3 140 116 137
3 141 135 121
3 118 129 142
3 118 142 143
3 117 118 143
3 123 117 143
3 122 120 144
3 120 119 144
3 144 119 123
3 141 121 145
3 145 121 122
3 145 122 144
3 146 141 145
3 147 144 123
3 147 123 148
3 143 148 123
3 150 124 139
3 149 150 139
3 131 127 151
3 125 133 152
3 126 125 152
3 126 152 153
3 128 126 153
3 128 153 154
3 128 154 127
3 127 154 151
3 152 133 155
3 130 132 156
3 130 156 129
3 129 156 142
3 131 151 157
3 132 131 157
3 132 157 156
3 156 158 142
3 157 151 159
3 133 160 155
3 134 161 133
3 133 161 160
3 138 136 162
3 136 135 162
3 162 135 141
3 140 137 163
3 163 137 138
3 163 138 162
3 149 139 164
3 164 139 140
3 164 140 165
3 165 140 163
3 166 149 164
3 167 162 141
3 167 141 146
3 142 158 168
3 143 142 168
3 143 168 148
3 146 145 169
3 145 144 169
3 169 144 147
3 170 167 146
3 170 146 169
3 171 169 147
3 171 147 148
3 171 148 172
3 168 172 148
3 173 149 166
3 174 150 149
3 173 174 149
3 154 175 151
3 151 175 159
3 152 155 176
3 153 152 176
3 153 176 177
3 153 177 154
3 154 177 175
3 155 160 178
3 155 178 179
3 176 155 179
3 156 157 180
3 156 180 158
3 157 159 181
3 157 181 180
3 158 180 182
3 158 182 168
3 159 175 183
3 159 183 181
3 175 184 183
3 160 186 178
3 178 186 185
3 161 187 160
3 160 187 186
3 165 163 188
3 163 162 188
3 188 162 167
3 166 164 189
3 189 164 165
3 189 165 188
3 190 173 166
3 190 166 191
3 191 166 189
3 192 188 167
3 192 167 170
3 193 192 170
3 182 194 168
3 194 172 168
3 193 170 195
3 170 169 195
3 195 169 171
3 196 195 171
3 196 171 172
3 194 197 172
3 197 198 172
3 198 196 172
3 200 173 190
3 199 200 190
3 201 174 173
3 200 201 173
3 176 179 202
3 177 176 202
3 177 202 175
3 175 202 184
3 178 185 203
3 178 203 179
3 179 203 202
3 203 185 204
3 202 205 184
3 183 206 181
3 180 181 206
3 180 206 182
3 182 206 194
3 183 184 207
3 205 207 184
3 183 207 206
3 185 208 204
3 186 209 185
3 185 209 208
3 187 210 186
3 186 210 209
3 191 189 211
3 189 188 211
3 211 188 192
3 199 190 212
3 212 190 191
3 212 191 211
3 213 199 212
3 214 211 192
3 214 192 193
3 215 214 193
3 215 193 195
3 206 216 194
3 216 197 194
3 216 217 197
3 215 195 218
3 218 195 196
3 198 218 196
3 217 219 197
3 219 218 198
3 197 219 198
3 220 199 213
3 221 200 199
3 220 221 199
3 222 201 200
3 221 222 200
3 203 204 223
3 203 223 202
3 202 223 205
3 204 208 224
3 204 224 223
3 205 223 225
3 205 225 207
3 207 225 226
3 207 226 206
3 226 216 206
3 208 228 224
3 224 228 227
3 209 229 208
3 229 228 208
3 210 230 209
3 209 230 229
3 213 212 231
3 212 211 231
3 231 211 214
3 232 220 213
3 232 213 231
3 233 231 214
3 233 214 215
3 234 233 215
3 234 215 218
3 226 235 216
3 235 217 216
3 235 236 217
3 217 236 219
3 237 234 218
3 237 218 219
3 236 238 219
3 238 237 219
3 240 220 232
3 239 240 232
3 241 221 220
3 240 241 220
3 242 222 221
3 241 242 221
3 224 227 243
3 224 243 223
3 223 243 225
3 225 243 244
3 225 244 226
3 226 244 235
3 227 245 243
3 228 246 227
3 227 246 245
3 229 247 228
3 228 247 246
3 230 248 229
3 229 248 247
3 239 232 249
3 232 231 249
3 249 231 233
3 250 249 233
3 250 233 234
3 237 250 234
3 244 251 235
3 235 251 236
3 251 252 236
3 236 252 238
3 252 253 238
3 253 250 237
3 253 237 238
3 254 239 249
3 255 240 239
3 254 255 239
3 256 241 240
3 255 256 240
3 257 242 241
3 256 257 241
3 245 258 243
3 243 258 244
3 244 258 251
3 245 259 258
3 246 260 245
3 245 260 259
3 247 261 246
3 246 261 260
3 248 262 247
3 247 262 261
3 254 249 263
3 263 249 250
3 253 263 250
3 258 264 251
3 251 264 252
3 264 265 252
3 265 263 253
3 252 265 253
3 266 254 263
3 267 255 254
3 266 267 254
3 268 256 255
3 267 268 255
3 269 257 256
3 268 269 256
3 259 270 258
3 270 264 258
3 260 271 259
3 259 271 270
3 261 272 260
3 260 272 271
3 262 273 261
3 273 272 261
3 270 274 264
3 275 266 263
3 275 263 265
3 274 276 264
3 276 265 264
3 276 277 265
3 277 275 265
3 278 267 266
3 275 278 266
3 279 268 267
3 278 279 267
3 280 269 268
3 279 280 268
3 271 281 270
3 270 281 274
3 272 282 271
3 271 282 281
3 273 283 272
3 272 283 282
3 281 284 274
3 274 284 276
3 285 278 275
3 277 285 275
3 284 286 276
3 286 285 277
3 276 286 277
3 287 279 278
3 285 287 278
3 288 280 279
3 287 288 279
3 282 289 281
3 281 289 284
3 283 290 282
3 282 290 289
3 289 291 284
3 284 291 286
3 291 292 286
3 292 287 285
3 286 292 285
3 293 288 287
3 292 293 287
3 290 294 289
3 289 294 291
3 294 295 291
3 295 293 292
3 291 295 292
CELL_TYPES 542
5
5
5
5
5
5
5
5
5
5
5
5
5
5
5
5
5
5
5
5
5
5
5
5
5
5
5
5
5
5
5
5
5
5
5
5
5
5
5
5
5
5
5
5
5
5
5
5
5
5
5
5
5
5
5
5
5
5
5
5
5
5
5
5
5
5
5
5
5
5
5
5
5
5
5
5
5
5
5
5
5
5
5
5
5
5
5
5
5
5
5
5
5
5
5
5
5
5
5
5
5
5
5
5
5
5
5
5
5
5
5
5
5
5
5
5
5
5
5
5
5
5
5
5
5
5
5
5
5
5
5
5
5
5
5
5
5
5
5
5
5
5
5
5
5
5
5
5
5
5
5
5
5
5
5
5
5
5
5
5
5
5
5
5
5
5
5
5
5
5
5
5
5
5
5
5
5
5
5
5
5
5
5
5
5
5
5
5
5
5
5
5
5
5
5
5
5
5
5
5
5
5
5
5
5
5
5
5
5
5
5
5
5
5
5
5
5
5
5
5
5
5
5
5
5
5
5
5
5
5
5
5
5
5
5
5
5
5
5
5
5
5
5
5
5
5
5
5
5
5
5
5
5
5
5
5
5
5
5
5
5
5
5
5
5
5
5
5
5
5
5
5
5
5
5
5
5
5
5
5
5
5
5
5
5
5
5
5
5
5
5
5
5
5
5
5
5
5
5
5
5
5
5
5
5
5
5
5
5
5
5
5
5
5
5
5
5
5
5
5
5
5
5
5
5
5
5
5
5
5
5
5
5
5
5
5
5
5
5
5
5
5
5
5
5
5
5
5
5
5
5
5
5
5
5
5
5
5
5
5
5
5
5
5
5
5
5
5
5
5
5
5
5
5
5
5
5
5
5
5
5
5
5
5
5
5
5
5
5
5
5
5
5
5
5
5
5
5
5
5
5
5
5
5
5
5
5
5
5
5
5
5
5
5
5
5
5
5
5
5
5
5
5
5
5
5
5
5
5
5
5
5
5
5
5
5
5
5
5
5
5
5
5
5
5
5
5
5
5
5
5
5
5
5
5
5
5
5
5
5
5
5
5
5
5
5
5
5
5
5
5
5
5
5
5
5
5
5
5
5
5
5
5
5
5
5
5
5
5
5
5
5
5
5
5
5
5
5
5
5
5
5
5
5
5
5
5
5
5
5
5
5
5
5
5
5
5
5
5
5
5
5
5
5
5
5
5
5
5
5
5
5
5
5
5
5
5
5
5
5
5
5
POINT_DATA 296
SCALARS concentrations float 4
LOOKUP_TABLE default
0 0.993265 0.178253 4.91418
0 0.993291 0.175664 16.1025
0 0.993256 0.18287 12.3479
0 0.99325 0.180265 13.3874
0 0.993254 0.095029 1.2373
0 0.993333 0.176178 2.10283
0 0.993373 0.177187 5.85438
0 0.993267 0.0957487 1.62099
0 0.993284 0.0956756 1.52051
0 0.993388 0.173974 12.4863
0 0.993362 0.17488 9.80404
0 0.993176 0.17053 14.549
0 0.993222 0.176774 13.6913
0 0.993256 0.0944542 1.04488
0 0.993215 0.0942744 0.76913
0 0.993237 0.0959856 1.08656
0 0.993239 0.0962943 2.48971
0 0.993313 0.0948118 0.929782
0 0.993319 0.0940795 0.794943
0 0.993235 0.0961746 2.29025
0 0.993241 0.0956794 1.59105
0 0.993199 0.170367 18.4524
0 0.9931 0.172089 22.141
0 0.993311 0.0945551 0.934775
0 0.993234 0.0948007 -0.973689
0 0.993211 0.094649 0.419542
0 0.993168 0.171958 17.6265
0 0.993221 0.0949985 0.135852
0 0.993151 0.169886 14.085
0 0.993231 0.0950531 1.11831
0 0.99323 0.0950964 0.699948
0 0.993217 0.0950774 1.50845
0 0.99301 0.170352 25.912
0 0.993215 0.095887 1.27085
0 0.993209 0.0955274 0.748627
0 0.993236 0.0952594 1.45767
0 0.993217 0.0946238 1.06663
0 0.993201 0.095767 0.258011
0 0.993204 0.0956907 1.95615
0 0.993131 0.0949557 0.00317985
0 0.993061 0.0947133 0.518616
0 0.993197 0.0951195 -0.979419
0 0.993162 0.0959008 -0.16168
0 0.993098 0.170699 25.1543
0 0.993238 0.0969103 -0.148499
0 0.993171 0.0954346 0.0517463
0 0.993232 0.0954915 -1.41591
0 0.99315 0.172688 25.207
0 0.993165 0.0946984 -0.558502
0 0.993126 0.168121 22.2775
0 0.993223 0.0974031 1.02981
0 0.993224 0.0953494 0.455051
0 0.993213 0.0963814 -0.543143
0 0.993061 0.0942768 0.637208
0 0.993161 0.0941241 -0.481987
0 0.993207 0.0962392 0.0563319
0 0.993198 0.0956873 1.69037
0 0.993198 0.094933 1.10308
0 0.993206 0.0950637 0.727947
0 0.993134 0.0957612 -0.843372
0 0.993138 0.0958035 1.22246
0 0.993206 0.0962578 1.43509
0 0.993197 0.0955925 0.897113
0 0.993203 0.175407 14.0377
0 0.993232 0.10117 -2.1557
0 0.993218 0.0979805 -1.71616
0 0.993273 0.101874 4.1219
0 0.993132 0.0950049 -0.430209
0 0.993181 0.0954745 -0.205438
0 0.993231 0.16992 15.7156
0 0.99316 0.0945014 0.659604
0 0.993383 0.174232 5.46131
0 0.993209 0.100913 -2.83934
0 0.993205 0.10127 -0.93917
0 0.993192 0.106964 0.916625
0 0.993163 0.0944031 -0.553193
0 0.993198 0.0940186 -0.379426
0 0.993199 0.0942902 -0.280117
0 0.993233 0.0979772 -2.96298
0 0.99322 0.0978818 -1.65401
0 0.993208 0.09501 -0.320171
0 0.99323 0.100679 1.07656
0 0.993207 0.0963069 0.643162
0 0.99321 0.095316 0.147597
0 0.993223 0.097033 0.201021
0 0.993172 0.172639 12.676
0 0.993262 0.0956042 -0.743581
0 0.993273 0.0963254 0.45302
0 0.993167 0.0953307 0.459468
0 0.993236 0.0957828 -1.40288
0 0.993258 0.0948704 1.04699
0 0.993188 0.0950586 1.10911
0 0.993517 0.168215 6.9562
0 0.993379 0.0957186 1.67331
0 0.993214 0.0954969 0.121422
0 0.99322 0.103933 1.17273
0 0.993217 0.0957008 0.257689
0 0.993274 0.0951821 0.291964
0 0.993534 0.172335 3.64155
0 0.993192 0.0954282 0.181374
0 0.993219 0.0946713 -0.561177
0 0.993224 0.0953254 -0.315476
0 0.993232 0.094597 -0.226062
0 0.993243 0.095655 0.948088
0 0.993247 0.0960211 -1.38975
0 0.993226 0.0981003 1.3388
0 0.993244 0.0959521 -2.1274
0 0.993224 0.0954865 -0.878555
0 0.993232 0.0980355 -1.08989
0 0.993184 0.172866 20.2887
0 0.993265 0.0945016 0.699342
0 0.993232 0.0945223 1.33847
0 0.993231 0.0954591 1.39975
0 0.993218 0.095014 1.6873
0 0.993438 0.0961769 0.694781
0 0.993271 0.0978738 -1.11422
0 0.993446 0.0954579 -0.984454
0 0.993273 0.0951039 0.624443
0 0.993269 0.095505 -0.118807
0 0.993261 0.097395 0.277781
0 0.993253 0.0956475 -0.817097
0 0.993252 0.0941605 0.939815
0 0.993239 0.0964774 0.061389
0 0.993306 0.0949573 -0.108008
0 0.993524 0.169828 0.33568
0 0.993243 0.0962703 0.634537
0 0.993245 0.0953504 0.217129
0 0.993227 0.0948725 0.591649
0 0.993237 0.0948595 0.199469
0 0.993262 0.0957483 -0.35317
0 0.993252 0.0946145 0.00951077
0 0.993229 0.093741 -0.0543828
0 0.993244 0.0935252 -0.417787
0 0.993311 0.0945793 0.655919
0 0.99327 0.176155 9.12507
0 0.993237 0.0945745 1.26612
0 0.993221 0.0954179 1.6812
0 0.993291 0.0962629 1.75916
0 0.993224 0.095723 0.114737
0 0.993419 0.0947162 0.419391
0 0.993309 0.101003 0.0476917
0 0.993232 0.103135 -3.20807
0 0.993281 0.0942666 -0.660875
0 0.99329 0.0945895 0.896366
0 0.993268 0.100793 0.215046
0 0.993246 0.0996124 2.42553
0 0.993253 0.0939823 -0.812851
0 0.993292 0.0945905 0.842762
0 0.993285 0.0945269 0.294979
0 0.993355 0.094321 0.493353
0 0.993403 0.171662 1.31805
0 0.993221 0.0967213 -0.46732
0 0.993279 0.0966217 0.295876
0 0.993248 0.0945874 -0.018667
0 0.993229 0.0948336 0.833529
0 0.993295 0.0944088 -0.162777
0 0.993262 0.0951107 0.713568
0 0.993235 0.0944118 -1.20728
0 0.993265 0.0953217 0.0250515
0 0.993219 0.0949648 -0.66651
0 0.993309 0.0954784 0.277874
0 0.993329 0.168543 6.40452
0 0.99322 0.0951214 -1.27927
0 0.993236 0.099368 0.00914402
0 0.993327 0.0949777 -0.624237
0 0.993257 0.0955563 -1.08326
0 0.993318 0.0951304 -0.00125745
0 0.993224 0.0946945 -0.852207
0 0.993267 0.0956859 0.587136
0 0.993266 0.0981622 -2.39451
0 0.99325 0.093654 -0.272838
0 0.993263 0.0945818 0.940564
0 0.993272 0.0934994 0.951032
0 0.993295 0.0948132 0.534477
0 0.993297 0.174253 9.87316
0 0.993219 0.0948146 1.14749
0 0.993257 0.0975426 0.465655
0 0.99323 0.0946609 0.739194
0 0.993268 0.0954015 0.246056
0 0.993254 0.101124 2.66789
0 0.993261 0.102086 1.18849
0 0.993228 0.0948992 -0.261655
0 0.993268 0.0990087 2.04223
0 0.993217 0.095462 -0.853949
0 0.993217 0.0957101 0.754386
0 0.993229 0.0946758 -0.447032
0 0.993212 0.0936045 -0.202344
0 0.993267 0.176234 13.2183
0 0.993226 0.0941064 -0.942211
0 0.993248 0.0979895 1.25959
0 0.993304 0.0957765 0.248549
0 0.993237 0.0984351 -2.9995
0 0.993235 0.0933693 0.538898
0 0.993254 0.0947579 -0.394562
0 0.993268 0.095587 0.940246
0 0.993261 0.0937501 0.431576
0 0.993272 0.093951 0.762021
0 0.99327 0.0948872 -1.16511
0 0.993278 0.0941691 1.04051
0 0.9933 0.0961054 -1.29247
0 0.993245 0.0943818 0.555278
0 0.993201 0.170263 8.97695
0 0.993225 0.0941471 -0.244218
0 0.99324 0.0956899 -0.925938
0 0.993245 0.0945805 -0.748335
0 0.993218 0.0940923 -0.0277237
0 0.993249 0.0982518 -2.5123
0 0.993221 0.0965985 1.06317
0 0.993203 0.0947978 -0.720287
0 0.993113 0.0931681 -0.0537791
0 0.993107 0.172471 16.4246
0 0.993237 0.0948862 -0.147287
0 0.993255 0.100269 -2.14452
0 0.993298 0.0997743 -0.736403
0 0.993246 0.0964046 0.203077
0 0.993262 0.0941843 1.06458
0 0.993255 0.0949453 1.50763
0 0.993255 0.0945408 -1.30345
0 0.993264 0.0947608 0.133617
0 0.993261 0.0948285 1.12182
0 0.993321 0.0965436 0.155538
0 0.99322 0.0945022 -0.347679
0 0.99316 0.172591 13.1515
0 0.993228 0.0950266 -0.468857
0 0.993243 0.0949493 -0.853192
0 0.993222 0.0972593 0.0922921
0 0.993234 0.0965273 -0.816916
0 0.99325 0.095528 -0.569251
0 0.993196 0.0936995 0.00112698
0 0.993083 0.0947247 0.845121
0 0.993028 0.173107 24.0251
0 0.993259 0.100445 0.307549
0 0.993315 0.0998887 1.58506
0 0.993253 0.0953556 -0.71061
0 0.993255 0.0940801 0.149834
0 0.993237 0.0943394 -0.875415
0 0.993234 0.0950146 -1.01726
0 0.993251 0.0959218 -1.33358
0 0.993237 0.0988729 -1.91
0 0.993304 0.0994909 -0.344812
0 0.993323 0.0947579 0.377719
0 0.993208 0.0950263 -0.106907
0 0.993141 0.17115 11.9166
0 0.993235 0.0946759 0.25274
0 0.993224 0.09844 0.680888
0 0.993254 0.0976934 -0.638332
0 0.99321 0.0941878 -0.214353
0 0.993094 0.0934677 -0.304922
0 0.99302 0.173349 25.2914
0 0.99326 0.0963125 0.104715
0 0.993247 0.0949149 1.13223
0 0.99322 0.0945999 0.513568
0 0.993219 0.0946977 0.0241636
0 0.993234 0.0957217 1.22913
0 0.993275 0.0965271 -0.226222
0 0.993307 0.0952055 -0.039042
0 0.993216 0.0939354 0.452167
0 0.99312 0.16955 14.4466
0 0.993234 0.104819 3.31373
0 0.993248 0.096485 1.22382
0 0.99322 0.0964717 1.01693
0 0.993109 0.0944243 -0.993057
0 0.993048 0.176519 20.0016
0 0.993248 0.0947883 0.328171
0 0.99323 0.0945048 -0.753042
0 0.99323 0.0945082 -0.786317
0 0.993283 0.104673 -2.37897
0 0.993308 0.0949841 -0.392016
0 0.993261 0.0940013 0.219921
0 0.993175 0.172103 13.0989
0 0.993242 0.0978089 0.147767
0 0.99322 0.0939326 0.213937
0 0.993137 0.0943899 -0.910059
0 0.993055 0.172066 18.2533
0 0.993243 0.095035 -0.40604
0 0.993268 0.0982672 1.01475
0 0.993233 0.09638 -0.604865
0 0.993253 0.10063 -0.683898
0 0.993294 0.0952067 -0.564967
0 0.993255 0.095282 -0.307354
0 0.993223 0.171275 12.3901
0 0.993226 0.0943179 -0.339695
0 0.993173 0.0941867 -0.598576
0 0.993121 0.176404 16.698
0 0.993232 0.0954861 -0.488992
0 0.993273 0.0984058 1.53337
0 0.993239 0.0965648 -0.282408
0 0.993202 0.0954833 -0.1881
0 0.993172 0.168169 13.1507
0 0.993184 0.0949038 -0.271199
0 0.993142 0.175991 14.6372
0 0.993174 0.0942003 -0.318979
0 0.993168 0.0969423 -1.62871
0 0.993121 0.171416 15.4337
0 0.993153 0.173495 18.9436
0 0.993107 0.172186 22.2079
VECTORS fa_u float
0.0062952 0.002596 -0
0.00566276 0.00326734 -0
0.00572106 0.00153564 -0
0.00664059 0.000894062 -0
1e-08 0 0
0.00523402 0.00401568 -0
0.00431152 0.00429238 -0
1e-08 0 0
1e-08 0 0
0.00404327 0.0052223 -0
0.00349329 0.00602305 -0
0.00644677 1.73463e-05 -0
0.00651956 -0.000837705 0
1e-08 0 0
1e-08 0 0
1e-08 0 0
1e-08 0 0
1e-08 0 0
1e-08 0 0
1e-08 0 0
1e-08 0 0
0.00258234 0.00625455 -0
0.00167115 0.00628911 -0
1e-08 0 0
1e-08 0 0
1e-08 0 0
0.00656094 -0.00174529 0
1e-08 0 0
0.00661929 -0.00276134 0
1e-08 0 0
1e-08 0 0
1e-08 0 0
0.00084779 0.00654914 -0
1e-08 0 0
1e-08 0 0
1e-08 0 0
1e-08 0 0
1e-08 0 0
1e-08 0 0
1e-08 0 0
1e-08 0 0
1e-08 0 0
1e-08 0 0
-1.88917e-05 0.00662937 -0
1e-08 0 0
1e-08 0 0
1e-08 0 0
0.00570698 -0.00334046 0
1e-08 0 0
0.0047185 -0.00364468 0
1e-08 0 0
1e-08 0 0
1e-08 0 0
1e-08 0 0
1e-08 0 0
1e-08 0 0
1e-08 0 0
1e-08 0 0
1e-08 0 0
1e-08 0 0
1e-08 0 0
1e-08 0 0
1e-08 0 0
-0.00081863 0.00614595 0
1e-08 0 0
1e-08 0 0
1e-08 0 0
1e-08 0 0
1e-08 0 0
0.00443396 -0.00442329 0
1e-08 0 0
0.00381861 -0.00493255 0
1e-08 0 0
1e-08 0 0
1e-08 0 0
1e-08 0 0
1e-08 0 0
1e-08 0 0
1e-08 0 0
1e-08 0 0
1e-08 0 0
1e-08 0 0
1e-08 0 0
1e-08 0 0
1e-08 0 0
-0.00167371 0.00626327 0
1e-08 0 0
1e-08 0 0
1e-08 0 0
1e-08 0 0
1e-08 0 0
1e-08 0 0
0.00355916 -0.00611814 0
1e-08 0 0
1e-08 0 0
1e-08 0 0
1e-08 0 0
1e-08 0 0
0.00266016 -0.00644863 0
1e-08 0 0
1e-08 0 0
1e-08 0 0
1e-08 0 0
1e-08 0 0
1e-08 0 0
1e-08 0 0
1e-08 0 0
1e-08 0 0
1e-08 0 0
-0.00251494 0.00608619 0
1e-08 0 0
1e-08 0 0
1e-08 0 0
1e-08 0 0
1e-08 0 0
1e-08 0 0
1e-08 0 0
1e-08 0 0
1e-08 0 0
1e-08 0 0
1e-08 0 0
1e-08 0 0
1e-08 0 0
1e-08 0 0
0.00162147 -0.00611023 0
1e-08 0 0
1e-08 0 0
1e-08 0 0
1e-08 0 0
1e-08 0 0
1e-08 0 0
1e-08 0 0
1e-08 0 0
1e-08 0 0
-0.00332988 0.0057686 0
1e-08 0 0
1e-08 0 0
1e-08 0 0
1e-08 0 0
1e-08 0 0
1e-08 0 0
1e-08 0 0
1e-08 0 0
1e-08 0 0
1e-08 0 0
1e-08 0 0
1e-08 0 0
1e-08 0 0
1e-08 0 0
1e-08 0 0
0.000812123 -0.00614229 0
1e-08 0 0
1e-08 0 0
1e-08 0 0
1e-08 0 0
1e-08 0 0
1e-08 0 0
1e-08 0 0
1e-08 0 0
1e-08 0 0
1e-08 0 0
-0.00405598 0.00527493 0
1e-08 0 0
1e-08 0 0
1e-08 0 0
1e-08 0 0
1e-08 0 0
1e-08 0 0
1e-08 0 0
1e-08 0 0
1e-08 0 0
1e-08 0 0
1e-08 0 0
1e-08 0 0
1.2216e-05 -0.00663404 0
1e-08 0 0
1e-08 0 0
1e-08 0 0
1e-08 0 0
1e-08 0 0
1e-08 0 0
1e-08 0 0
1e-08 0 0
1e-08 0 0
1e-08 0 0
1e-08 0 0
1e-08 0 0
-0.00421603 0.00422835 0
1e-08 0 0
1e-08 0 0
1e-08 0 0
1e-08 0 0
1e-08 0 0
1e-08 0 0
1e-08 0 0
1e-08 0 0
1e-08 0 0
1e-08 0 0
1e-08 0 0
1e-08 0 0
1e-08 0 0
-0.000859378 -0.00657648 0
1e-08 0 0
1e-08 0 0
1e-08 0 0
1e-08 0 0
1e-08 0 0
1e-08 0 0
1e-08 0 0
1e-08 0 0
-0.005201 0.00402651 0
1e-08 0 0
1e-08 0 0
1e-08 0 0
1e-08 0 0
1e-08 0 0
1e-08 0 0
1e-08 0 0
1e-08 0 0
1e-08 0 0
1e-08 0 0
1e-08 0 0
-0.00164183 -0.0061611 0
1e-08 0 0
1e-08 0 0
1e-08 0 0
1e-08 0 0
1e-08 0 0
1e-08 0 0
1e-08 0 0
-0.00597779 0.00346982 0
1e-08 0 0
1e-08 0 0
1e-08 0 0
1e-08 0 0
1e-08 0 0
1e-08 0 0
1e-08 0 0
1e-08 0 0
1e-08 0 0
1e-08 0 0
1e-08 0 0
-0.00262184 -0.00634117 0
1e-08 0 0
1e-08 0 0
1e-08 0 0
1e-08 0 0
1e-08 0 0
-0.00625847 0.00258803 0
1e-08 0 0
1e-08 0 0
1e-08 0 0
1e-08 0 0
1e-08 0 0
1e-08 0 0
1e-08 0 0
1e-08 0 0
-0.00346879 -0.00597141 0
1e-08 0 0
1e-08 0 0
1e-08 0 0
1e-08 0 0
-0.00626243 0.00166857 0
1e-08 0 0
1e-08 0 0
1e-08 0 0
1e-08 0 0
1e-08 0 0
1e-08 0 0
-0.00387047 -0.00500923 0
1e-08 0 0
1e-08 0 0
1e-08 0 0
-0.00652686 0.000850834 0
1e-08 0 0
1e-08 0 0
1e-08 0 0
1e-08 0 0
1e-08 0 0
1e-08 0 0
-0.00439884 -0.0043941 0
1e-08 0 0
1e-08 0 0
-0.00685175 -2.00739e-05 0
1e-08 0 0
1e-08 0 0
1e-08 0 0
1e-08 0 0
-0.00522051 -0.00401414 0
1e-08 0 0
-0.00606675 -0.000813006 0
1e-08 0 0
1e-08 0 0
-0.0058525 -0.0033772 0
-0.00614549 -0.00164069 0
-0.00611072 -0.0025199 0
