# vtk DataFile Version 2.0
CellBP Time: 8.44
ASCII
DATASET UNSTRUCTURED_GRID
POINTS 296 double
-8.9431 -3.66251 0
-8.385 -4.81436 0
-9.33393 -2.44099 0
-9.61054 -1.21227 0
-8.09985 -2.71237 0
-7.6693 -5.87999 0
-6.8212 -6.84359 0
-7.65891 -3.73395 0
-7.09929 -4.70702 0
-5.89597 -7.71085 0
-4.86719 -8.44303 0
-9.71827 0.037916 0
-9.66225 1.31427 0
-8.4183 -1.62258 0
-8.57635 -0.50564 0
-7.34582 -1.91708 0
-6.97236 -2.78159 0
-6.44427 -5.62583 0
-5.67553 -6.44402 0
-6.54454 -3.74406 0
-6.01068 -4.52689 0
-3.71768 -9.00786 0
-2.48939 -9.40691 0
-4.79888 -7.16158 0
-3.84917 -7.74416 0
-8.59051 0.630334 0
-9.44183 2.59146 0
-8.44616 1.73049 0
-9.03202 3.80739 0
-7.52343 -0.883356 0
-7.58948 0.0893055 0
-6.73957 -1.25338 0
-1.21763 -9.64447 0
-6.24504 -2.06851 0
-6.11181 -2.94238 0
-5.37186 -5.33049 0
-4.67092 -5.97637 0
-5.47533 -3.63446 0
-5.09506 -4.43024 0
-2.81798 -8.20585 0
-1.74598 -8.46625 0
-3.84191 -6.58954 0
-3.01194 -7.02199 0
0.0551296 -9.70431 0
-7.5149 1.11539 0
-8.18914 2.86073 0
-7.3762 2.04996 0
-8.41944 4.92835 0
-7.70703 3.88194 0
-7.66153 5.96459 0
-6.58617 -0.369088 0
-6.76612 0.54835 0
-5.62349 -0.969846 0
-0.581758 -8.61329 0
0.543688 -8.54643 0
-5.15817 -2.40258 0
-4.35072 -4.96309 0
-3.79946 -5.64465 0
-4.31726 -3.70846 0
-2.02579 -7.41395 0
-1.11575 -7.62277 0
-2.9305 -5.97445 0
-2.27143 -6.49153 0
1.31123 -9.58775 0
-6.52117 1.38193 0
-6.9925 3.02768 0
-6.49712 2.30694 0
-7.11197 4.85307 0
-6.55049 3.8876 0
-6.81993 6.91246 0
-6.39741 5.73133 0
-5.87555 7.76934 0
-4.3756 -1.16684 0
-5.68083 0.491889 0
-4.57475 -0.0273841 0
-0.00504397 -7.65636 0
1.68109 -8.39528 0
0.904024 -7.54825 0
-3.96125 -2.35358 0
-3.45575 -1.3802 0
-3.21793 -4.70248 0
-3.21668 -3.20714 0
-1.36561 -6.5303 0
-0.519477 -6.85729 0
-1.94668 -5.43435 0
2.56109 -9.34127 0
-5.38352 1.99207 0
-5.94533 2.98414 0
-5.95097 4.73014 0
-5.61466 3.86958 0
-5.60334 6.52716 0
-5.30747 5.45396 0
-4.84586 8.52052 0
-4.70313 7.19054 0
-3.46105 -0.418679 0
-4.36416 1.22719 0
-3.65208 0.58577 0
-3.98242 2.29278 0
-3.70783 9.08933 0
2.75836 -8.06444 0
0.374026 -6.60662 0
1.93231 -7.28817 0
1.23436 -6.69574 0
-2.4253 -0.862724 0
-2.8116 -2.10637 0
-2.26476 -4.0251 0
-2.29688 -2.92826 0
-0.452288 -5.72246 0
-1.20114 -4.42158 0
3.7729 -8.94808 0
-4.67402 3.3054 0
-4.95621 4.457 0
-4.52146 6.08977 0
-4.41932 5.2005 0
-3.75245 7.79237 0
-3.71346 6.6316 0
-2.71011 8.19807 0
-1.63349 -0.123873 0
-1.43516 -0.875166 0
-2.47081 0.517113 0
-3.20215 1.43405 0
-3.1753 3.26107 0
-2.86492 2.35806 0
-1.35029 0.638117 0
-2.48636 9.47412 0
3.79715 -7.63389 0
2.83866 -6.90229 0
0.899317 -5.66139 0
1.98128 -6.20178 0
-1.66222 -1.97458 0
-1.41448 -3.23251 0
0.079238 -4.64754 0
-0.553243 -3.63788 0
4.77664 -7.07576 0
4.91667 -8.39002 0
-3.68524 4.43603 0
-3.6361 5.58907 0
-2.79951 7.07239 0
-2.92814 6.17059 0
-1.62187 8.5197 0
-1.88048 7.4154 0
-2.29892 3.97777 0
-0.719884 -1.31602 0
-0.828509 -0.243722 0
-1.93005 1.69419 0
-2.10184 2.85565 0
-1.29657 3.50566 0
-0.870861 1.361 0
-0.284988 0.464102 0
-0.52224 8.66853 0
-1.2258 9.71116 0
1.06993 -4.45993 0
3.75276 -6.45581 0
2.86885 -5.87789 0
2.03531 -5.25418 0
4.62708 -5.97583 0
-0.547517 -2.45664 0
0.489775 -3.41189 0
0.0598926 -1.60093 0
1.4445 -3.59691 0
5.70174 -6.40464 0
5.97946 -7.67487 0
-2.4166 5.21542 0
-2.06294 6.35532 0
-0.872922 7.61891 0
-1.22241 6.75065 0
0.091636 7.71158 0
-1.12666 4.41698 0
0.148679 -0.610902 0
-0.808711 2.49496 0
-0.344662 3.57315 0
0.0510948 1.51507 0
0.731628 0.473893 0
0.629037 8.69619 0
0.0423693 9.82013 0
2.3062 -4.16003 0
3.72742 -5.43445 0
2.89968 -5.03807 0
5.4251 -5.31294 0
4.54938 -5.08526 0
0.633045 -2.28323 0
1.23898 -2.9064 0
0.758655 -1.38764 0
2.11839 -3.06791 0
2.92286 -3.38525 0
6.01399 -4.65392 0
6.49363 -5.60949 0
6.93493 -6.81714 0
-0.989212 5.68923 0
-0.34374 6.7213 0
1.10336 7.62116 0
0.563257 6.93026 0
-0.00279395 4.65688 0
0.59359 3.78622 0
1.33284 -0.641877 0
0.522054 2.63841 0
0.950813 1.57656 0
1.89121 0.207686 0
1.59795 1.05964 0
2.09702 7.44503 0
1.76904 8.54881 0
1.32435 9.7494 0
3.71964 -4.21045 0
4.98555 -4.29099 0
5.71713 -3.81564 0
3.70338 -3.1104 0
1.79644 -1.87615 0
2.96795 -2.52591 0
6.64631 -3.84784 0
7.22587 -4.7833 0
7.80023 -5.88472 0
0.480634 5.76769 0
1.4115 6.61342 0
2.34026 6.55294 0
1.18915 4.49011 0
1.46375 3.3554 0
2.40778 -0.689541 0
2.79383 0.139872 0
1.76654 2.14909 0
2.58925 1.13967 0
3.0266 7.04644 0
2.85997 8.22262 0
2.59252 9.50566 0
4.8053 -3.2275 0
5.99888 -3.02765 0
4.1013 -2.23092 0
3.19839 -1.48836 0
6.61475 -2.27388 0
7.10606 -2.98498 0
7.82506 -3.84479 0
8.53648 -4.85738 0
1.9978 5.50543 0
3.01332 6.03556 0
2.33448 4.06326 0
2.39104 3.01926 0
3.47896 -0.452219 0
3.57042 0.613215 0
2.9274 2.25909 0
3.48803 1.50497 0
3.90372 5.77153 0
3.90096 6.66269 0
3.91154 7.79725 0
3.8173 9.1022 0
5.47558 -1.8798 0
4.44089 -1.10849 0
6.59151 -1.31099 0
7.45668 -2.00005 0
8.2431 -2.81177 0
9.10562 -3.71303 0
3.32776 4.77449 0
3.27097 3.32034 0
4.61374 0.13333 0
4.42349 1.27953 0
3.96799 2.38633 0
4.42581 5.02465 0
4.7145 6.05503 0
4.87594 7.22511 0
4.96156 8.53293 0
5.76471 -0.435872 0
6.86468 -0.486472 0
7.61618 -1.05793 0
8.51995 -1.70904 0
9.50745 -2.4858 0
4.41881 3.73047 0
5.66917 1.05311 0
5.21177 2.45611 0
5.19709 4.48867 0
5.44191 5.38319 0
5.75248 6.51303 0
5.98956 7.80022 0
6.67626 0.431426 0
7.68381 -0.0275317 0
8.67845 -0.561605 0
9.74854 -1.21523 0
6.76989 1.28838 0
5.52747 3.66181 0
6.34103 2.10758 0
6.16515 2.9771 0
6.07949 4.54565 0
6.49848 5.67981 0
6.92828 6.94262 0
7.59167 0.930842 0
8.64993 0.560871 0
9.81373 0.0627587 0
7.39887 1.93116 0
6.57917 3.76052 0
7.02835 2.83354 0
7.157 4.74149 0
7.78626 5.98846 0
8.49136 1.67989 0
9.69354 1.31867 0
8.16171 2.74462 0
7.74448 3.79832 0
8.50226 4.92781 0
9.45012 2.57039 0
9.05878 3.78291 0
CELLS 542 2168
3 2 0 4
3 0 1 7
3 4 0 7
3 1 5 8
3 7 1 8
3 3 2 13
3 13 2 4
3 11 3 14
3 14 3 13
3 13 4 15
3 4 7 16
3 15 4 16
3 5 6 17
3 8 5 17
3 6 9 18
3 17 6 18
3 7 8 19
3 16 7 19
3 8 17 20
3 19 8 20
3 9 10 23
3 18 9 23
3 10 21 24
3 23 10 24
3 12 11 25
3 25 11 14
3 26 12 27
3 27 12 25
3 14 13 29
3 29 13 15
3 25 14 30
3 30 14 29
3 29 15 31
3 15 16 33
3 31 15 33
3 16 19 34
3 33 16 34
3 17 18 35
3 20 17 35
3 18 23 36
3 35 18 36
3 19 20 37
3 34 19 37
3 20 35 38
3 37 20 38
3 21 22 39
3 24 21 39
3 22 32 40
3 39 22 40
3 23 24 41
3 36 23 41
3 24 39 42
3 41 24 42
3 27 25 44
3 44 25 30
3 28 26 45
3 45 26 27
3 45 27 46
3 46 27 44
3 47 28 48
3 48 28 45
3 30 29 50
3 50 29 31
3 44 30 51
3 51 30 50
3 50 31 52
3 31 33 52
3 32 43 53
3 40 32 53
3 53 43 54
3 33 34 55
3 34 37 55
3 33 55 52
3 35 36 56
3 38 35 56
3 36 41 57
3 56 36 57
3 37 38 58
3 38 56 58
3 37 58 55
3 39 40 59
3 42 39 59
3 40 53 60
3 59 40 60
3 41 42 61
3 57 41 61
3 42 59 62
3 61 42 62
3 43 63 54
3 46 44 64
3 64 44 51
3 48 45 65
3 65 45 46
3 65 46 66
3 66 46 64
3 49 47 67
3 67 47 48
3 67 48 68
3 68 48 65
3 69 49 70
3 70 49 67
3 52 55 72
3 64 51 73
3 51 50 73
3 50 52 73
3 73 52 74
3 74 52 72
3 53 54 75
3 60 53 75
3 54 63 76
3 54 76 77
3 75 54 77
3 55 58 78
3 72 55 78
3 72 78 79
3 56 57 80
3 57 61 80
3 56 80 58
3 58 80 81
3 78 58 81
3 59 60 82
3 62 59 82
3 60 75 83
3 82 60 83
3 61 62 84
3 62 82 84
3 61 84 80
3 63 85 76
3 66 64 86
3 64 73 86
3 68 65 87
3 87 65 66
3 87 66 86
3 70 67 88
3 88 67 68
3 88 68 89
3 89 68 87
3 71 69 90
3 90 69 70
3 90 70 91
3 91 70 88
3 92 71 93
3 93 71 90
3 74 72 94
3 94 72 79
3 86 73 95
3 95 73 74
3 95 74 96
3 96 74 94
3 97 86 95
3 76 85 99
3 75 77 100
3 83 75 100
3 76 99 101
3 77 76 101
3 77 101 102
3 100 77 102
3 94 79 103
3 78 81 104
3 79 78 104
3 79 104 103
3 80 84 105
3 81 80 105
3 81 105 106
3 104 81 106
3 82 83 107
3 83 100 107
3 82 107 84
3 84 107 108
3 105 84 108
3 85 109 99
3 89 87 110
3 87 86 110
3 110 86 97
3 91 88 111
3 111 88 89
3 111 89 110
3 93 90 112
3 112 90 91
3 112 91 113
3 113 91 111
3 98 92 114
3 114 92 93
3 114 93 115
3 115 93 112
3 116 98 114
3 117 103 118
3 96 94 119
3 94 103 119
3 119 103 117
3 97 95 120
3 120 95 96
3 120 96 119
3 121 110 97
3 121 97 122
3 122 97 120
3 123 119 117
3 124 98 116
3 99 109 125
3 99 125 126
3 101 99 126
3 100 102 127
3 100 127 107
3 101 126 128
3 102 101 128
3 102 128 127
3 104 106 129
3 104 129 103
3 103 129 118
3 105 108 130
3 106 105 130
3 106 130 129
3 107 127 131
3 108 107 131
3 108 131 132
3 108 132 130
3 109 134 125
3 125 134 133
3 113 111 135
3 111 110 135
3 135 110 121
3 115 112 136
3 136 112 113
3 136 113 135
3 116 114 137
3 137 114 115
3 137 115 138
3 138 115 136
3 139 124 116
3 139 116 140
3 140 116 137
3 141 135 121
3 118 129 142
3 118 142 143
3 117 118 143
3 123 117 143
3 122 120 144
3 120 119 144
3 144 119 123
3 141 121 145
3 145 121 122
3 145 122 144
3 146 141 145
3 147 144 123
3 147 123 148
3 143 148 123
3 150 124 139
3 149 150 139
3 131 127 151
3 125 133 152
3 126 125 152
3 126 152 153
3 128 126 153
3 128 153 154
3 128 154 127
3 127 154 151
3 152 133 155
3 130 132 156
3 130 156 129
3 129 156 142
3 131 151 157
3 132 131 157
3 132 157 156
3 156 158 142
3 157 151 159
3 133 160 155
3 134 161 133
3 133 161 160
3 138 136 162
3 136 135 162
3 162 135 141
3 140 137 163
3 163 137 138
3 163 138 162
3 149 139 164
3 164 139 140
3 164 140 165
3 165 140 163
3 166 149 164
3 167 162 141
3 167 141 146
3 142 158 168
3 143 142 168
3 143 168 148
3 146 145 169
3 145 144 169
3 169 144 147
3 170 167 146
3 170 146 169
3 171 169 147
3 171 147 148
3 171 148 172
3 168 172 148
3 173 149 166
3 174 150 149
3 173 174 149
3 154 175 151
3 151 175 159
3 152 155 176
3 153 152 176
3 153 176 177
3 153 177 154
3 154 177 175
3 155 160 178
3 155 178 179
3 176 155 179
3 156 157 180
3 156 180 158
3 157 159 181
3 157 181 180
3 158 180 182
3 158 182 168
3 159 175 183
3 159 183 181
3 175 184 183
3 160 186 178
3 178 186 185
3 161 187 160
3 160 187 186
3 165 163 188
3 163 162 188
3 188 162 167
3 166 164 189
3 189 164 165
3 189 165 188
3 190 173 166
3 190 166 191
3 191 166 189
3 192 188 167
3 192 167 170
3 193 192 170
3 182 194 168
3 194 172 168
3 193 170 195
3 170 169 195
3 195 169 171
3 196 195 171
3 196 171 172
3 194 197 172
3 197 198 172
3 198 196 172
3 200 173 190
3 199 200 190
3 201 174 173
3 200 201 173
3 176 179 202
3 177 176 202
3 177 202 175
3 175 202 184
3 178 185 203
3 178 203 179
3 179 203 202
3 203 185 204
3 202 205 184
3 183 206 181
3 180 181 206
3 180 206 182
3 182 206 194
3 183 184 207
3 205 207 184
3 183 207 206
3 185 208 204
3 186 209 185
3 185 209 208
3 187 210 186
3 186 210 209
3 191 189 211
3 189 188 211
3 211 188 192
3 199 190 212
3 212 190 191
3 212 191 211
3 213 199 212
3 214 211 192
3 214 192 193
3 215 214 193
3 215 193 195
3 206 216 194
3 216 197 194
3 216 217 197
3 215 195 218
3 218 195 196
3 198 218 196
3 217 219 197
3 219 218 198
3 197 219 198
3 220 199 213
3 221 200 199
3 220 221 199
3 222 201 200
3 221 222 200
3 203 204 223
3 203 223 202
3 202 223 205
3 204 208 224
3 204 224 223
3 205 223 225
3 205 225 207
3 207 225 226
3 207 226 206
3 226 216 206
3 208 228 224
3 224 228 227
3 209 229 208
3 229 228 208
3 210 230 209
3 209 230 229
3 213 212 231
3 212 211 231
3 231 211 214
3 232 220 213
3 232 213 231
3 233 231 214
3 233 214 215
3 234 233 215
3 234 215 218
3 226 235 216
3 235 217 216
3 235 236 217
3 217 236 219
3 237 234 218
3 237 218 219
3 236 238 219
3 238 237 219
3 240 220 232
3 239 240 232
3 241 221 220
3 240 241 220
3 242 222 221
3 241 242 221
3 224 227 243
3 224 243 223
3 223 243 225
3 225 243 244
3 225 244 226
3 226 244 235
3 227 245 243
3 228 246 227
3 227 246 245
3 229 247 228
3 228 247 246
3 230 248 229
3 229 248 247
3 239 232 249
3 232 231 249
3 249 231 233
3 250 249 233
3 250 233 234
3 237 250 234
3 244 251 235
3 235 251 236
3 251 252 236
3 236 252 238
3 252 253 238
3 253 250 237
3 253 237 238
3 254 239 249
3 255 240 239
3 254 255 239
3 256 241 240
3 255 256 240
3 257 242 241
3 256 257 241
3 245 258 243
3 243 258 244
3 244 258 251
3 245 259 258
3 246 260 245
3 245 260 259
3 247 261 246
3 246 261 260
3 248 262 247
3 247 262 261
3 254 249 263
3 263 249 250
3 253 263 250
3 258 264 251
3 251 264 252
3 264 265 252
3 265 263 253
3 252 265 253
3 266 254 263
3 267 255 254
3 266 267 254
3 268 256 255
3 267 268 255
3 269 257 256
3 268 269 256
3 259 270 258
3 270 264 258
3 260 271 259
3 259 271 270
3 261 272 260
3 260 272 271
3 262 273 261
3 273 272 261
3 270 274 264
3 275 266 263
3 275 263 265
3 274 276 264
3 276 265 264
3 276 277 265
3 277 275 265
3 278 267 266
3 275 278 266
3 279 268 267
3 278 279 267
3 280 269 268
3 279 280 268
3 271 281 270
3 270 281 274
3 272 282 271
3 271 282 281
3 273 283 272
3 272 283 282
3 281 284 274
3 274 284 276
3 285 278 275
3 277 285 275
3 284 286 276
3 286 285 277
3 276 286 277
3 287 279 278
3 285 287 278
3 288 280 279
3 287 288 279
3 282 289 281
3 281 289 284
3 283 290 282
3 282 290 289
3 289 291 284
3 284 291 286
3 291 292 286
3 292 287 285
3 286 292 285
3 293 288 287
3 292 293 287
3 290 294 289
3 289 294 291
3 294 295 291
3 295 293 292
3 291 295 292
CELL_TYPES 542
5
5
5
5
5
5
5
5
5
5
5
5
5
5
5
5
5
5
5
5
5
5
5
5
5
5
5
5
5
5
5
5
5
5
5
5
5
5
5
5
5
5
5
5
5
5
5
5
5
5
5
5
5
5
5
5
5
5
5
5
5
5
5
5
5
5
5
5
5
5
5
5
5
5
5
5
5
5
5
5
5
5
5
5
5
5
5
5
5
5
5
5
5
5
5
5
5
5
5
5
5
5
5
5
5
5
5
5
5
5
5
5
5
5
5
5
5
5
5
5
5
5
5
5
5
5
5
5
5
5
5
5
5
5
5
5
5
5
5
5
5
5
5
5
5
5
5
5
5
5
5
5
5
5
5
5
5
5
5
5
5
5
5
5
5
5
5
5
5
5
5
5
5
5
5
5
5
5
5
5
5
5
5
5
5
5
5
5
5
5
5
5
5
5
5
5
5
5
5
5
5
5
5
5
5
5
5
5
5
5
5
5
5
5
5
5
5
5
5
5
5
5
5
5
5
5
5
5
5
5
5
5
5
5
5
5
5
5
5
5
5
5
5
5
5
5
5
5
5
5
5
5
5
5
5
5
5
5
5
5
5
5
5
5
5
5
5
5
5
5
5
5
5
5
5
5
5
5
5
5
5
5
5
5
5
5
5
5
5
5
5
5
5
5
5
5
5
5
5
5
5
5
5
5
5
5
5
5
5
5
5
5
5
5
5
5
5
5
5
5
5
5
5
5
5
5
5
5
5
5
5
5
5
5
5
5
5
5
5
5
5
5
5
5
5
5
5
5
5
5
5
5
5
5
5
5
5
5
5
5
5
5
5
5
5
5
5
5
5
5
5
5
5
5
5
5
5
5
5
5
5
5
5
5
5
5
5
5
5
5
5
5
5
5
5
5
5
5
5
5
5
5
5
5
5
5
5
5
5
5
5
5
5
5
5
5
5
5
5
5
5
5
5
5
5
5
5
5
5
5
5
5
5
5
5
5
5
5
5
5
5
5
5
5
5
5
5
5
5
5
5
5
5
5
5
5
5
5
5
5
5
5
5
5
5
5
5
5
5
5
5
5
5
5
5
5
5
5
5
5
5
5
5
5
5
5
5
5
5
5
5
5
5
5
5
5
5
5
5
5
5
5
5
5
5
5
5
5
5
5
5
5
5
5
5
5
5
5
5
5
5
5
5
5
5
5
5
5
5
5
5
5
5
5
5
5
5
5
5
5
5
5
POINT_DATA 296
SCALARS concentrations float 4
LOOKUP_TABLE default
0 0.953017 0.118718 6.09531
0 0.953055 0.117902 3.63477
0 0.953072 0.118459 2.93548
0 0.953109 0.117839 0.0076847
0 0.953044 0.0940275 1.00008
0 0.953063 0.11856 1.50913
0 0.952996 0.120643 6.87766
0 0.953033 0.0931083 -0.960241
0 0.95307 0.0931553 0.68078
0 0.953013 0.120098 7.11347
0 0.953109 0.121128 4.81727
0 0.953135 0.117888 2.36412
0 0.95312 0.120852 3.07462
0 0.953085 0.0930604 -0.680568
0 0.953104 0.0926231 0.806009
0 0.953057 0.0931293 0.830544
0 0.953043 0.093491 0.700495
0 0.953037 0.0936532 0.84786
0 0.95301 0.0926017 -0.633993
0 0.953053 0.0943748 -0.716344
0 0.953064 0.0932787 -1.09188
0 0.953151 0.11876 -1.60058
0 0.953089 0.12123 3.27562
0 0.953053 0.0927946 -0.539009
0 0.953117 0.0932781 -0.338355
0 0.95312 0.0930073 -1.00354
0 0.953039 0.117988 3.6994
0 0.953077 0.0930723 -0.930465
0 0.953021 0.117018 5.85312
0 0.953072 0.0931609 1.06464
0 0.95309 0.0927957 1.01436
0 0.953056 0.0930433 1.13976
0 0.953034 0.120412 4.77121
0 0.953053 0.0931498 0.0248104
0 0.953054 0.0932123 -0.830751
0 0.953047 0.0945067 0.447735
0 0.953046 0.095137 0.858159
0 0.95306 0.0931132 -0.547545
0 0.953062 0.0939964 -0.350862
0 0.953105 0.0930815 -0.461257
0 0.95306 0.0943034 0.0807839
0 0.953067 0.0934495 -0.244549
0 0.953082 0.0948728 0.791105
0 0.952981 0.118008 7.86695
0 0.95309 0.0930337 0.989255
0 0.953034 0.093424 -0.998468
0 0.953065 0.0930153 -0.290363
0 0.953078 0.120989 3.37163
0 0.953052 0.0929849 0.946168
0 0.953086 0.121324 2.83597
0 0.953068 0.0933635 0.813814
0 0.953083 0.0933449 0.84931
0 0.953059 0.0931571 -0.922967
0 0.953019 0.0943515 0.281421
0 0.952986 0.0940062 0.234656
0 0.953059 0.0938632 -0.293203
0 0.953055 0.0955305 -0.100303
0 0.95306 0.0943918 -0.0741034
0 0.953057 0.0930457 -0.268925
0 0.953075 0.0960999 0.795689
0 0.953055 0.0943665 0.431553
0 0.95307 0.0992475 -2.22229
0 0.953077 0.0965119 0.53817
0 0.952959 0.119529 10.0977
0 0.953076 0.0931424 0.160239
0 0.953055 0.0936927 0.986571
0 0.953064 0.0943434 0.703655
0 0.953087 0.0932947 -0.792149
0 0.953067 0.0931338 0.800709
0 0.953057 0.118676 1.21311
0 0.953075 0.0926663 -0.241296
0 0.953064 0.120538 6.37702
0 0.953065 0.0933374 0.421305
0 0.953069 0.0933877 0.725142
0 0.953065 0.0931879 -0.393121
0 0.95304 0.0931662 -0.293446
0 0.952993 0.0922756 -0.149849
0 0.953029 0.0937962 0.139035
0 0.953063 0.094154 -0.952377
0 0.95307 0.0945705 0.751461
0 0.953058 0.0973002 0.935547
0 0.95306 0.0932418 -0.610299
0 0.953063 0.0963849 0.805278
0 0.953058 0.0940889 -0.0800286
0 0.953061 0.0978247 1.02388
0 0.952992 0.119375 6.28828
0 0.953067 0.0929586 0.204254
0 0.953061 0.0928116 0.00616214
0 0.953076 0.0931215 -1.02933
0 0.953063 0.0934896 0.957582
0 0.953068 0.0928535 0.820937
0 0.953078 0.0931025 -0.875354
0 0.953047 0.119106 7.69347
0 0.953067 0.0932517 -0.743674
0 0.95307 0.0944117 -0.615127
0 0.953068 0.0927943 0.0755188
0 0.95307 0.0933527 -0.770135
0 0.953066 0.0937638 -0.0543665
0 0.953048 0.117201 0.846097
0 0.953027 0.0935611 -0.166812
0 0.953056 0.0943472 0.274018
0 0.953039 0.0931792 -0.153776
0 0.953054 0.0930571 -0.13927
0 0.953074 0.0937468 -0.352167
0 0.953068 0.0945565 0.827891
0 0.953058 0.0936563 -0.308326
0 0.953066 0.0926665 0.483911
0 0.953057 0.0955582 0.514264
0 0.953059 0.093991 0.52152
0 0.95303 0.119141 8.48036
0 0.953062 0.0937553 -0.886262
0 0.953068 0.0959346 -0.442562
0 0.953078 0.0935349 -0.892236
0 0.953075 0.0936811 -0.904378
0 0.953062 0.0939454 0.903088
0 0.95308 0.0949005 -1.09798
0 0.953062 0.093747 -0.688807
0 0.953079 0.0930556 -0.189279
0 0.953077 0.0930674 -0.129079
0 0.953078 0.0934021 0.355754
0 0.953073 0.0932003 -0.328154
0 0.953068 0.093975 -0.708925
0 0.95307 0.094691 -0.752777
0 0.953086 0.0945498 0.0110144
0 0.95304 0.116517 7.4268
0 0.95305 0.0934937 -0.119087
0 0.95306 0.094566 -0.514644
0 0.95306 0.092624 0.00838345
0 0.95306 0.0931177 0.0208976
0 0.953074 0.0947004 -0.308042
0 0.953068 0.0936466 -0.370927
0 0.953067 0.0946809 -0.541498
0 0.953071 0.0939192 -0.037976
0 0.953058 0.0938347 0.198088
0 0.953036 0.117077 4.81733
0 0.95307 0.0936517 -0.68429
0 0.953074 0.0940873 0.635314
0 0.953078 0.0942928 0.700648
0 0.953074 0.0941835 0.985994
0 0.953056 0.0935206 0.662058
0 0.953074 0.0937389 -0.0787195
0 0.953074 0.0943603 0.709721
0 0.953067 0.0939365 0.117444
0 0.953073 0.0930488 0.038284
0 0.953081 0.0954153 -0.534729
0 0.95308 0.0941086 -0.137673
0 0.953085 0.094839 -0.0810752
0 0.953081 0.0941722 -0.508444
0 0.95308 0.0929755 -0.156966
0 0.95307 0.0932548 0.428761
0 0.953048 0.121533 5.30713
0 0.953066 0.0946852 -0.218858
0 0.95307 0.0958558 -0.653799
0 0.953065 0.0946858 0.0736109
0 0.953062 0.0936812 -0.31004
0 0.953076 0.0943098 0.187686
0 0.953062 0.0954183 0.981724
0 0.953071 0.0949078 0.634945
0 0.953049 0.0950849 -0.920445
0 0.953078 0.095871 0.786302
0 0.953091 0.0932651 0.109148
0 0.953066 0.114615 3.23007
0 0.953074 0.0949834 -0.00253212
0 0.953072 0.0941316 -1.07462
0 0.953078 0.0933438 0.647246
0 0.953076 0.0936996 0.429434
0 0.95309 0.0941245 0.452997
0 0.953085 0.0949523 -1.40642
0 0.953071 0.0944961 -0.509026
0 0.953083 0.0983166 0.145036
0 0.953089 0.0960055 -1.21966
0 0.953077 0.0939866 0.402865
0 0.953081 0.093007 -0.00850083
0 0.953093 0.0931573 0.190352
0 0.953074 0.116972 2.95612
0 0.953064 0.0939068 0.402463
0 0.953061 0.0939199 -0.181943
0 0.95306 0.0945638 0.209579
0 0.953085 0.0929771 -0.0592522
0 0.953068 0.0937215 0.0276896
0 0.953054 0.0988215 1.86825
0 0.953073 0.0972816 0.54653
0 0.953062 0.0947521 -0.129035
0 0.953062 0.096071 0.929081
0 0.953051 0.0940642 0.610148
0 0.95308 0.0929859 -0.381044
0 0.953089 0.0930357 -0.127783
0 0.953099 0.118323 -2.09698
0 0.95308 0.093413 0.18654
0 0.95308 0.0942836 0.0585049
0 0.953083 0.0952043 0.28454
0 0.953073 0.0953862 -0.720367
0 0.953079 0.0964081 -0.325296
0 0.953073 0.093797 -0.340258
0 0.953081 0.0939447 0.0907375
0 0.95308 0.0948065 0.506398
0 0.953077 0.0940911 -0.580949
0 0.953084 0.0931006 -0.315374
0 0.953078 0.0931884 0.131882
0 0.953064 0.0949691 0.271271
0 0.953094 0.0934444 0.324408
0 0.953098 0.117651 5.40135
0 0.953057 0.0934167 0.144086
0 0.953066 0.0929858 0.293788
0 0.953066 0.0932675 -0.558505
0 0.953052 0.0937063 0.669358
0 0.953069 0.0973967 -1.7717
0 0.953057 0.0944332 -0.864942
0 0.953071 0.093162 -0.740298
0 0.953065 0.0926379 -0.654048
0 0.953068 0.117542 3.57821
0 0.953076 0.0962311 0.799608
0 0.953053 0.101603 3.02174
0 0.953066 0.101267 2.51425
0 0.953081 0.0982823 2.12718
0 0.953076 0.0938313 0.700115
0 0.953082 0.0939333 -0.852246
0 0.953079 0.0930518 -0.396192
0 0.953075 0.0936518 0.540212
0 0.953071 0.0935646 -0.0101411
0 0.953083 0.0945856 -0.0129
0 0.953081 0.0943003 0.111262
0 0.953091 0.120543 3.87652
0 0.953058 0.0939279 -0.218331
0 0.953063 0.09341 -0.578754
0 0.953059 0.0934868 -0.2764
0 0.953068 0.0938714 -1.00735
0 0.95306 0.0934413 -0.489409
0 0.953065 0.0938457 -1.05273
0 0.953058 0.0928119 -0.680704
0 0.953047 0.118489 4.89671
0 0.953088 0.101587 3.11671
0 0.953086 0.0946967 0.281798
0 0.953087 0.0932639 0.063193
0 0.953076 0.0936878 0.305867
0 0.953069 0.0927372 0.632999
0 0.953069 0.093336 -0.168702
0 0.953069 0.0939978 -0.0475708
0 0.953063 0.0933889 0.020643
0 0.953076 0.0942759 0.0087272
0 0.953079 0.0942861 -0.292612
0 0.953077 0.0945756 0.201727
0 0.953076 0.117347 2.47871
0 0.953061 0.0963033 0.42075
0 0.953061 0.0934645 -0.33624
0 0.953062 0.0946341 0.482639
0 0.95306 0.0933957 -0.14962
0 0.953057 0.0927246 -0.617464
0 0.95305 0.118645 2.28662
0 0.953081 0.0934484 -0.0849411
0 0.953079 0.0938618 0.0484866
0 0.953064 0.0928315 -0.27818
0 0.953063 0.0928872 -0.162244
0 0.953069 0.0937914 -0.0861459
0 0.953071 0.0936268 0.165251
0 0.953078 0.0938506 -0.0894883
0 0.953076 0.0934638 0.209952
0 0.953071 0.118822 1.75579
0 0.953064 0.0925317 -0.739031
0 0.953069 0.0939877 0.231725
0 0.953062 0.0939584 0.829403
0 0.953036 0.0924972 -0.439297
0 0.953036 0.116878 5.71501
0 0.95307 0.0941818 0.435403
0 0.953064 0.0923056 -0.405631
0 0.953064 0.0937641 0.116787
0 0.953055 0.0937275 -0.3932
0 0.953062 0.0938093 0.109252
0 0.953077 0.0930646 -0.199324
0 0.95308 0.120504 5.76794
0 0.953069 0.0921065 0.52842
0 0.953069 0.0925194 0.47585
0 0.953044 0.0927607 -0.690647
0 0.953014 0.11681 7.31989
0 0.953064 0.0928273 0.435827
0 0.953059 0.0939789 -0.728357
0 0.953059 0.0924566 -0.54962
0 0.953054 0.093622 -0.797816
0 0.953058 0.0942464 -0.559972
0 0.953068 0.0940977 -0.47422
0 0.953078 0.118777 5.89736
0 0.953065 0.0923002 -0.59112
0 0.953055 0.0923888 -0.6249
0 0.953044 0.119267 1.1431
0 0.953054 0.092601 0.383929
0 0.953052 0.0946989 1.36996
0 0.953047 0.0939315 -0.141263
0 0.953069 0.094282 -0.177272
0 0.953077 0.116986 3.10189
0 0.953049 0.0922641 0.44322
0 0.95304 0.120682 6.14529
0 0.953055 0.0931242 -0.306349
0 0.953067 0.0939742 -0.66605
0 0.95308 0.117518 5.94967
0 0.953049 0.118991 5.95463
0 0.953074 0.117148 3.32008
VECTORS fa_u float
0.00722827 0.00289004 -0
0.00662394 0.00380501 -0
0.00295003 0.00080358 -0
0.0071856 0.00111408 -0
1e-08 0 0
0.00522099 0.00402349 -0
0.00258864 0.0025073 -0
1e-08 0 0
1e-08 0 0
0.00451305 0.00551352 -0
0.00523793 0.00879697 -0
0.00663008 0.000135697 -0
0.00621317 -0.000672608 0
1e-08 0 0
1e-08 0 0
1e-08 0 0
1e-08 0 0
1e-08 0 0
1e-08 0 0
1e-08 0 0
1e-08 0 0
0.00295699 0.00729462 -0
0.00159403 0.00625994 -0
1e-08 0 0
1e-08 0 0
1e-08 0 0
0.00889134 -0.00224761 0
1e-08 0 0
0.0108954 -0.00476677 0
1e-08 0 0
1e-08 0 0
1e-08 0 0
0.000853658 0.00730366 -0
1e-08 0 0
1e-08 0 0
1e-08 0 0
1e-08 0 0
1e-08 0 0
1e-08 0 0
1e-08 0 0
1e-08 0 0
1e-08 0 0
1e-08 0 0
-0.000171449 0.00764362 -0
1e-08 0 0
1e-08 0 0
1e-08 0 0
0.00566562 -0.00359943 0
1e-08 0 0
0.00272513 -0.0021969 0
1e-08 0 0
1e-08 0 0
1e-08 0 0
1e-08 0 0
1e-08 0 0
1e-08 0 0
1e-08 0 0
1e-08 0 0
1e-08 0 0
1e-08 0 0
1e-08 0 0
1e-08 0 0
1e-08 0 0
-0.000589014 0.00406576 0
1e-08 0 0
1e-08 0 0
1e-08 0 0
1e-08 0 0
1e-08 0 0
0.00324342 -0.00320968 0
1e-08 0 0
0.00280816 -0.0034473 0
1e-08 0 0
1e-08 0 0
1e-08 0 0
1e-08 0 0
1e-08 0 0
1e-08 0 0
1e-08 0 0
1e-08 0 0
1e-08 0 0
1e-08 0 0
1e-08 0 0
1e-08 0 0
1e-08 0 0
-0.00139473 0.00536739 0
1e-08 0 0
1e-08 0 0
1e-08 0 0
1e-08 0 0
1e-08 0 0
1e-08 0 0
0.00564601 -0.00927202 0
1e-08 0 0
1e-08 0 0
1e-08 0 0
1e-08 0 0
1e-08 0 0
0.00366011 -0.00905627 0
1e-08 0 0
1e-08 0 0
1e-08 0 0
1e-08 0 0
1e-08 0 0
1e-08 0 0
1e-08 0 0
1e-08 0 0
1e-08 0 0
1e-08 0 0
-0.00287753 0.00712561 0
1e-08 0 0
1e-08 0 0
1e-08 0 0
1e-08 0 0
1e-08 0 0
1e-08 0 0
1e-08 0 0
1e-08 0 0
1e-08 0 0
1e-08 0 0
1e-08 0 0
1e-08 0 0
1e-08 0 0
1e-08 0 0
0.00134545 -0.00537039 0
1e-08 0 0
1e-08 0 0
1e-08 0 0
1e-08 0 0
1e-08 0 0
1e-08 0 0
1e-08 0 0
1e-08 0 0
1e-08 0 0
-0.00373225 0.00646828 0
1e-08 0 0
1e-08 0 0
1e-08 0 0
1e-08 0 0
1e-08 0 0
1e-08 0 0
1e-08 0 0
1e-08 0 0
1e-08 0 0
1e-08 0 0
1e-08 0 0
1e-08 0 0
1e-08 0 0
1e-08 0 0
1e-08 0 0
0.000531048 -0.00388103 0
1e-08 0 0
1e-08 0 0
1e-08 0 0
1e-08 0 0
1e-08 0 0
1e-08 0 0
1e-08 0 0
1e-08 0 0
1e-08 0 0
1e-08 0 0
-0.0046282 0.00593871 0
1e-08 0 0
1e-08 0 0
1e-08 0 0
1e-08 0 0
1e-08 0 0
1e-08 0 0
1e-08 0 0
1e-08 0 0
1e-08 0 0
1e-08 0 0
1e-08 0 0
1e-08 0 0
0.000115836 -0.00772439 0
1e-08 0 0
1e-08 0 0
1e-08 0 0
1e-08 0 0
1e-08 0 0
1e-08 0 0
1e-08 0 0
1e-08 0 0
1e-08 0 0
1e-08 0 0
1e-08 0 0
1e-08 0 0
-0.00227546 0.00231438 0
1e-08 0 0
1e-08 0 0
1e-08 0 0
1e-08 0 0
1e-08 0 0
1e-08 0 0
1e-08 0 0
1e-08 0 0
1e-08 0 0
1e-08 0 0
1e-08 0 0
1e-08 0 0
1e-08 0 0
-0.000859835 -0.00697282 0
1e-08 0 0
1e-08 0 0
1e-08 0 0
1e-08 0 0
1e-08 0 0
1e-08 0 0
1e-08 0 0
1e-08 0 0
-0.00485198 0.00396514 0
1e-08 0 0
1e-08 0 0
1e-08 0 0
1e-08 0 0
1e-08 0 0
1e-08 0 0
1e-08 0 0
1e-08 0 0
1e-08 0 0
1e-08 0 0
1e-08 0 0
-0.00159831 -0.00615649 0
1e-08 0 0
1e-08 0 0
1e-08 0 0
1e-08 0 0
1e-08 0 0
1e-08 0 0
1e-08 0 0
-0.00861673 0.00517946 0
1e-08 0 0
1e-08 0 0
1e-08 0 0
1e-08 0 0
1e-08 0 0
1e-08 0 0
1e-08 0 0
1e-08 0 0
1e-08 0 0
1e-08 0 0
1e-08 0 0
-0.00302973 -0.00737874 0
1e-08 0 0
1e-08 0 0
1e-08 0 0
1e-08 0 0
1e-08 0 0
-0.00755009 0.00309114 0
1e-08 0 0
1e-08 0 0
1e-08 0 0
1e-08 0 0
1e-08 0 0
1e-08 0 0
1e-08 0 0
1e-08 0 0
-0.00499982 -0.00834187 0
1e-08 0 0
1e-08 0 0
1e-08 0 0
1e-08 0 0
-0.00620395 0.00159687 0
1e-08 0 0
1e-08 0 0
1e-08 0 0
1e-08 0 0
1e-08 0 0
1e-08 0 0
-0.00362416 -0.00448196 0
1e-08 0 0
1e-08 0 0
1e-08 0 0
-0.00716871 0.000861526 0
1e-08 0 0
1e-08 0 0
1e-08 0 0
1e-08 0 0
1e-08 0 0
1e-08 0 0
-0.00267225 -0.00265004 0
1e-08 0 0
1e-08 0 0
-0.00839081 -0.000182136 0
1e-08 0 0
1e-08 0 0
1e-08 0 0
1e-08 0 0
-0.00588166 -0.0045948 0
1e-08 0 0
-0.00363803 -0.000527513 0
1e-08 0 0
1e-08 0 0
-0.00675037 -0.00389471 0
-0.00546514 -0.00140776 0
-0.00713628 -0.00286931 0
