# vtk DataFile Version 2.0
CellBP Time: 0.2
ASCII
DATASET UNSTRUCTURED_GRID
POINTS 296 double
-9.18933 -3.77705 0
-8.61007 -4.95007 0
-9.60975 -2.53857 0
-9.86552 -1.25551 0
-8.35886 -2.8193 0
-7.88363 -6.0379 0
-7.02138 -7.02165 0
-7.9186 -3.87514 0
-7.3438 -4.86878 0
-6.03839 -7.88421 0
-4.95052 -8.61108 0
-9.94995 0.0501509 0
-9.86554 1.35559 0
-8.65906 -1.68415 0
-8.78762 -0.53002 0
-7.59102 -2.00456 0
-7.22706 -2.907 0
-6.63878 -5.77995 0
-5.82345 -6.59816 0
-6.79155 -3.88958 0
-6.22179 -4.67678 0
-3.77753 -9.1906 0
-2.53858 -9.61046 0
-4.90722 -7.31032 0
-3.91363 -7.88786 0
-8.79409 0.643481 0
-9.60901 2.6382 0
-8.6246 1.77399 0
-9.1892 3.87696 0
-7.7456 -0.929345 0
-7.79582 0.0800534 0
-6.95382 -1.3163 0
-1.25532 -9.86564 0
-6.44274 -2.15366 0
-6.32065 -3.05679 0
-5.53764 -5.47567 0
-4.7969 -6.11674 0
-5.66023 -3.7578 0
-5.27053 -4.56251 0
-2.86693 -8.36551 0
-1.77911 -8.64186 0
-3.92894 -6.72501 0
-3.05714 -7.15424 0
0.050102 -9.95046 0
-7.70681 1.14351 0
-8.33985 2.91595 0
-7.55318 2.11216 0
-8.61105 5.05071 0
-7.88139 3.9789 0
-7.8838 6.13808 0
-6.77995 -0.397183 0
-6.9578 0.552405 0
-5.77259 -1.00386 0
-0.591291 -8.81136 0
0.565718 -8.7726 0
-5.30425 -2.48104 0
-4.49299 -5.0968 0
-3.90339 -5.77659 0
-4.43992 -3.80575 0
-2.062 -7.56353 0
-1.13497 -7.78742 0
-2.99522 -6.10352 0
-2.30873 -6.62133 0
1.35503 -9.86565 0
-6.69071 1.4221 0
-7.17351 3.11852 0
-6.6605 2.37326 0
-7.29618 4.9894 0
-6.71941 4.00383 0
-7.02182 7.12212 0
-6.57367 5.89546 0
-6.03826 7.98443 0
-4.45426 -1.18161 0
-5.81583 0.513646 0
-4.6574 -0.0103152 0
0.0091391 -7.84966 0
1.73878 -8.64556 0
0.949686 -7.76494 0
-4.0394 -2.40736 0
-3.48654 -1.39099 0
-3.29527 -4.80662 0
-3.26651 -3.26901 0
-1.37813 -6.67696 0
-0.508187 -7.02644 0
-1.97608 -5.53845 0
2.63857 -9.61108 0
-5.50856 2.03724 0
-6.096 3.0728 0
-6.10642 4.87072 0
-5.76297 3.99244 0
-5.76256 6.71866 0
-5.4534 5.62071 0
-4.95085 8.71168 0
-4.83959 7.40631 0
-3.50235 -0.423738 0
-4.45047 1.24954 0
-3.7123 0.592801 0
-4.06315 2.32068 0
-3.77728 9.2903 0
2.86287 -8.33466 0
0.420305 -6.79692 0
2.02292 -7.52734 0
1.30678 -6.90707 0
-2.44396 -0.874433 0
-2.83903 -2.13227 0
-2.29484 -4.09876 0
-2.32609 -2.97487 0
-0.442571 -5.8627 0
-1.22301 -4.50055 0
3.87729 -9.18937 0
-4.79095 3.39272 0
-5.08915 4.59536 0
-4.64835 6.28306 0
-4.54002 5.36118 0
-3.84472 7.99533 0
-3.82773 6.84757 0
-2.78429 8.42476 0
-1.64823 -0.138269 0
-1.44957 -0.891226 0
-2.48818 0.50747 0
-3.2541 1.44523 0
-3.23963 3.31784 0
-2.91106 2.373 0
-1.35416 0.627117 0
-2.53831 9.70976 0
3.93334 -7.88879 0
2.96561 -7.15921 0
0.954208 -5.82357 0
2.07473 -6.41718 0
-1.6833 -1.99326 0
-1.43474 -3.27909 0
0.0902048 -4.74842 0
-0.566344 -3.69576 0
4.93308 -7.32054 0
5.05033 -8.61112 0
-3.77792 4.55297 0
-3.73582 5.75376 0
-2.88802 7.29186 0
-3.01066 6.3555 0
-1.66332 8.73567 0
-1.93998 7.62133 0
-2.33866 4.05311 0
-0.730115 -1.32799 0
-0.836105 -0.258059 0
-1.93559 1.68151 0
-2.12556 2.87705 0
-1.30636 3.54595 0
-0.868644 1.35135 0
-0.281388 0.456034 0
-0.533938 8.87367 0
-1.25558 9.96512 0
1.11299 -4.57598 0
3.91105 -6.71899 0
2.98855 -6.09641 0
2.11828 -5.42647 0
4.78553 -6.20701 0
-0.559053 -2.47804 0
0.49514 -3.46511 0
0.054143 -1.61124 0
1.48217 -3.6834 0
5.86865 -6.61625 0
6.13796 -7.88366 0
-2.47636 5.3501 0
-2.13124 6.53626 0
-0.903796 7.80529 0
-1.27219 6.93393 0
0.0867242 7.88232 0
-1.14448 4.49616 0
0.151093 -0.618135 0
-0.796926 2.4894 0
-0.331279 3.60189 0
0.0638608 1.51331 0
0.742453 0.473397 0
0.646594 8.87634 0
0.0498649 10.0502 0
2.38151 -4.28656 0
3.8601 -5.64205 0
3.00212 -5.21427 0
5.57512 -5.49346 0
4.69217 -5.28462 0
0.629608 -2.29453 0
1.25639 -2.95238 0
0.758124 -1.39214 0
2.16481 -3.13696 0
2.99445 -3.47777 0
6.15676 -4.79332 0
6.65751 -5.7707 0
7.12186 -7.02151 0
-1.02008 5.822 0
-0.372244 6.88546 0
1.12346 7.77151 0
0.558604 7.08167 0
-6.04416e-05 4.72634 0
0.60745 3.82903 0
1.33975 -0.642366 0
0.539602 2.65201 0
0.966872 1.57552 0
1.91114 0.213595 0
1.61583 1.06526 0
2.13044 7.58559 0
1.79919 8.71473 0
1.35555 9.96467 0
3.82376 -4.35299 0
5.1179 -4.4505 0
5.84735 -3.93652 0
3.78492 -3.2022 0
1.81289 -1.88346 0
3.0199 -2.5749 0
6.78535 -3.94925 0
7.38347 -4.8984 0
7.9842 -6.03833 0
0.483346 5.88326 0
1.42905 6.74378 0
2.37503 6.67119 0
1.21044 4.55761 0
1.48871 3.39883 0
2.4366 -0.692657 0
2.82895 0.142155 0
1.78948 2.16373 0
2.61304 1.15019 0
3.07296 7.17245 0
2.90527 8.37933 0
2.63835 9.709 0
4.91261 -3.32911 0
6.12255 -3.10988 0
4.174 -2.27621 0
3.24537 -1.50368 0
6.73362 -2.31394 0
7.23447 -3.04369 0
7.96742 -3.91366 0
8.71109 -4.95045 0
2.0242 5.6016 0
3.08754 6.15576 0
2.36458 4.12834 0
2.42072 3.06209 0
3.52673 -0.461431 0
3.61682 0.612982 0
2.96254 2.2891 0
3.5468 1.52593 0
4.01365 5.9004 0
3.98599 6.79585 0
3.97454 7.94176 0
3.87713 9.29018 0
5.57075 -1.91698 0
4.5106 -1.13031 0
6.71658 -1.33669 0
7.59553 -2.03729 0
8.40031 -2.86264 0
9.28958 -3.77742 0
3.42031 4.87885 0
3.33997 3.38672 0
4.69283 0.129719 0
4.52089 1.31043 0
4.06651 2.44485 0
4.57249 5.15479 0
4.84581 6.19362 0
4.98223 7.3838 0
5.05041 8.71089 0
5.88586 -0.435231 0
7.01406 -0.488542 0
7.76305 -1.08582 0
8.68859 -1.74665 0
9.70963 -2.53847 0
4.55418 3.82929 0
5.8203 1.09903 0
5.37347 2.53615 0
5.38268 4.62298 0
5.6149 5.52637 0
5.90012 6.67495 0
6.13791 7.98422 0
6.84955 0.463722 0
7.85731 -0.0257539 0
8.86462 -0.584472 0
9.96518 -1.25548 0
6.96418 1.35014 0
5.72396 3.78055 0
6.54492 2.19868 0
6.38362 3.08972 0
6.29577 4.68962 0
6.69621 5.84108 0
7.12161 7.12193 0
7.78858 0.968086 0
8.86393 0.572775 0
10.0516 0.0502772 0
7.62043 2.00542 0
6.83292 3.90655 0
7.27361 2.9485 0
7.38227 4.88826 0
7.98383 6.13759 0
8.72753 1.72749 0
9.96556 1.35505 0
8.42543 2.83895 0
7.98552 3.91872 0
8.7109 5.05077 0
9.70942 2.63803 0
9.28878 3.87696 0
CELLS 542 2168
3 2 0 4
3 0 1 7
3 4 0 7
3 1 5 8
3 7 1 8
3 3 2 13
3 13 2 4
3 11 3 14
3 14 3 13
3 13 4 15
3 4 7 16
3 15 4 16
3 5 6 17
3 8 5 17
3 6 9 18
3 17 6 18
3 7 8 19
3 16 7 19
3 8 17 20
3 19 8 20
3 9 10 23
3 18 9 23
3 10 21 24
3 23 10 24
3 12 11 25
3 25 11 14
3 26 12 27
3 27 12 25
3 14 13 29
3 29 13 15
3 25 14 30
3 30 14 29
3 29 15 31
3 15 16 33
3 31 15 33
3 16 19 34
3 33 16 34
3 17 18 35
3 20 17 35
3 18 23 36
3 35 18 36
3 19 20 37
3 34 19 37
3 20 35 38
3 37 20 38
3 21 22 39
3 24 21 39
3 22 32 40
3 39 22 40
3 23 24 41
3 36 23 41
3 24 39 42
3 41 24 42
3 27 25 44
3 44 25 30
3 28 26 45
3 45 26 27
3 45 27 46
3 46 27 44
3 47 28 48
3 48 28 45
3 30 29 50
3 50 29 31
3 44 30 51
3 51 30 50
3 50 31 52
3 31 33 52
3 32 43 53
3 40 32 53
3 53 43 54
3 33 34 55
3 34 37 55
3 33 55 52
3 35 36 56
3 38 35 56
3 36 41 57
3 56 36 57
3 37 38 58
3 38 56 58
3 37 58 55
3 39 40 59
3 42 39 59
3 40 53 60
3 59 40 60
3 41 42 61
3 57 41 61
3 42 59 62
3 61 42 62
3 43 63 54
3 46 44 64
3 64 44 51
3 48 45 65
3 65 45 46
3 65 46 66
3 66 46 64
3 49 47 67
3 67 47 48
3 67 48 68
3 68 48 65
3 69 49 70
3 70 49 67
3 52 55 72
3 64 51 73
3 51 50 73
3 50 52 73
3 73 52 74
3 74 52 72
3 53 54 75
3 60 53 75
3 54 63 76
3 54 76 77
3 75 54 77
3 55 58 78
3 72 55 78
3 72 78 79
3 56 57 80
3 57 61 80
3 56 80 58
3 58 80 81
3 78 58 81
3 59 60 82
3 62 59 82
3 60 75 83
3 82 60 83
3 61 62 84
3 62 82 84
3 61 84 80
3 63 85 76
3 66 64 86
3 64 73 86
3 68 65 87
3 87 65 66
3 87 66 86
3 70 67 88
3 88 67 68
3 88 68 89
3 89 68 87
3 71 69 90
3 90 69 70
3 90 70 91
3 91 70 88
3 92 71 93
3 93 71 90
3 74 72 94
3 94 72 79
3 86 73 95
3 95 73 74
3 95 74 96
3 96 74 94
3 97 86 95
3 76 85 99
3 75 77 100
3 83 75 100
3 76 99 101
3 77 76 101
3 77 101 102
3 100 77 102
3 94 79 103
3 78 81 104
3 79 78 104
3 79 104 103
3 80 84 105
3 81 80 105
3 81 105 106
3 104 81 106
3 82 83 107
3 83 100 107
3 82 107 84
3 84 107 108
3 105 84 108
3 85 109 99
3 89 87 110
3 87 86 110
3 110 86 97
3 91 88 111
3 111 88 89
3 111 89 110
3 93 90 112
3 112 90 91
3 112 91 113
3 113 91 111
3 98 92 114
3 114 92 93
3 114 93 115
3 115 93 112
3 116 98 114
3 117 103 118
3 96 94 119
3 94 103 119
3 119 103 117
3 97 95 120
3 120 95 96
3 120 96 119
3 121 110 97
3 121 97 122
3 122 97 120
3 123 119 117
3 124 98 116
3 99 109 125
3 99 125 126
3 101 99 126
3 100 102 127
3 100 127 107
3 101 126 128
3 102 101 128
3 102 128 127
3 104 106 129
3 104 129 103
3 103 129 118
3 105 108 130
3 106 105 130
3 106 130 129
3 107 127 131
3 108 107 131
3 108 131 132
3 108 132 130
3 109 134 125
3 125 134 133
3 113 111 135
3 111 110 135
3 135 110 121
3 115 112 136
3 136 112 113
3 136 113 135
3 116 114 137
3 137 114 115
3 137 115 138
3 138 115 136
3 139 124 116
3 139 116 140
3 140 116 137
3 141 135 121
3 118 129 142
3 118 142 143
3 117 118 143
3 123 117 143
3 122 120 144
3 120 119 144
3 144 119 123
3 141 121 145
3 145 121 122
3 145 122 144
3 146 141 145
3 147 144 123
3 147 123 148
3 143 148 123
3 150 124 139
3 149 150 139
3 131 127 151
3 125 133 152
3 126 125 152
3 126 152 153
3 128 126 153
3 128 153 154
3 128 154 127
3 127 154 151
3 152 133 155
3 130 132 156
3 130 156 129
3 129 156 142
3 131 151 157
3 132 131 157
3 132 157 156
3 156 158 142
3 157 151 159
3 133 160 155
3 134 161 133
3 133 161 160
3 138 136 162
3 136 135 162
3 162 135 141
3 140 137 163
3 163 137 138
3 163 138 162
3 149 139 164
3 164 139 140
3 164 140 165
3 165 140 163
3 166 149 164
3 167 162 141
3 167 141 146
3 142 158 168
3 143 142 168
3 143 168 148
3 146 145 169
3 145 144 169
3 169 144 147
3 170 167 146
3 170 146 169
3 171 169 147
3 171 147 148
3 171 148 172
3 168 172 148
3 173 149 166
3 174 150 149
3 173 174 149
3 154 175 151
3 151 175 159
3 152 155 176
3 153 152 176
3 153 176 177
3 153 177 154
3 154 177 175
3 155 160 178
3 155 178 179
3 176 155 179
3 156 157 180
3 156 180 158
3 157 159 181
3 157 181 180
3 158 180 182
3 158 182 168
3 159 175 183
3 159 183 181
3 175 184 183
3 160 186 178
3 178 186 185
3 161 187 160
3 160 187 186
3 165 163 188
3 163 162 188
3 188 162 167
3 166 164 189
3 189 164 165
3 189 165 188
3 190 173 166
3 190 166 191
3 191 166 189
3 192 188 167
3 192 167 170
3 193 192 170
3 182 194 168
3 194 172 168
3 193 170 195
3 170 169 195
3 195 169 171
3 196 195 171
3 196 171 172
3 194 197 172
3 197 198 172
3 198 196 172
3 200 173 190
3 199 200 190
3 201 174 173
3 200 201 173
3 176 179 202
3 177 176 202
3 177 202 175
3 175 202 184
3 178 185 203
3 178 203 179
3 179 203 202
3 203 185 204
3 202 205 184
3 183 206 181
3 180 181 206
3 180 206 182
3 182 206 194
3 183 184 207
3 205 207 184
3 183 207 206
3 185 208 204
3 186 209 185
3 185 209 208
3 187 210 186
3 186 210 209
3 191 189 211
3 189 188 211
3 211 188 192
3 199 190 212
3 212 190 191
3 212 191 211
3 213 199 212
3 214 211 192
3 214 192 193
3 215 214 193
3 215 193 195
3 206 216 194
3 216 197 194
3 216 217 197
3 215 195 218
3 218 195 196
3 198 218 196
3 217 219 197
3 219 218 198
3 197 219 198
3 220 199 213
3 221 200 199
3 220 221 199
3 222 201 200
3 221 222 200
3 203 204 223
3 203 223 202
3 202 223 205
3 204 208 224
3 204 224 223
3 205 223 225
3 205 225 207
3 207 225 226
3 207 226 206
3 226 216 206
3 208 228 224
3 224 228 227
3 209 229 208
3 229 228 208
3 210 230 209
3 209 230 229
3 213 212 231
3 212 211 231
3 231 211 214
3 232 220 213
3 232 213 231
3 233 231 214
3 233 214 215
3 234 233 215
3 234 215 218
3 226 235 216
3 235 217 216
3 235 236 217
3 217 236 219
3 237 234 218
3 237 218 219
3 236 238 219
3 238 237 219
3 240 220 232
3 239 240 232
3 241 221 220
3 240 241 220
3 242 222 221
3 241 242 221
3 224 227 243
3 224 243 223
3 223 243 225
3 225 243 244
3 225 244 226
3 226 244 235
3 227 245 243
3 228 246 227
3 227 246 245
3 229 247 228
3 228 247 246
3 230 248 229
3 229 248 247
3 239 232 249
3 232 231 249
3 249 231 233
3 250 249 233
3 250 233 234
3 237 250 234
3 244 251 235
3 235 251 236
3 251 252 236
3 236 252 238
3 252 253 238
3 253 250 237
3 253 237 238
3 254 239 249
3 255 240 239
3 254 255 239
3 256 241 240
3 255 256 240
3 257 242 241
3 256 257 241
3 245 258 243
3 243 258 244
3 244 258 251
3 245 259 258
3 246 260 245
3 245 260 259
3 247 261 246
3 246 261 260
3 248 262 247
3 247 262 261
3 254 249 263
3 263 249 250
3 253 263 250
3 258 264 251
3 251 264 252
3 264 265 252
3 265 263 253
3 252 265 253
3 266 254 263
3 267 255 254
3 266 267 254
3 268 256 255
3 267 268 255
3 269 257 256
3 268 269 256
3 259 270 258
3 270 264 258
3 260 271 259
3 259 271 270
3 261 272 260
3 260 272 271
3 262 273 261
3 273 272 261
3 270 274 264
3 275 266 263
3 275 263 265
3 274 276 264
3 276 265 264
3 276 277 265
3 277 275 265
3 278 267 266
3 275 278 266
3 279 268 267
3 278 279 267
3 280 269 268
3 279 280 268
3 271 281 270
3 270 281 274
3 272 282 271
3 271 282 281
3 273 283 272
3 272 283 282
3 281 284 274
3 274 284 276
3 285 278 275
3 277 285 275
3 284 286 276
3 286 285 277
3 276 286 277
3 287 279 278
3 285 287 278
3 288 280 279
3 287 288 279
3 282 289 281
3 281 289 284
3 283 290 282
3 282 290 289
3 289 291 284
3 284 291 286
3 291 292 286
3 292 287 285
3 286 292 285
3 293 288 287
3 292 293 287
3 290 294 289
3 289 294 291
3 294 295 291
3 295 293 292
3 291 295 292
CELL_TYPES 542
5
5
5
5
5
5
5
5
5
5
5
5
5
5
5
5
5
5
5
5
5
5
5
5
5
5
5
5
5
5
5
5
5
5
5
5
5
5
5
5
5
5
5
5
5
5
5
5
5
5
5
5
5
5
5
5
5
5
5
5
5
5
5
5
5
5
5
5
5
5
5
5
5
5
5
5
5
5
5
5
5
5
5
5
5
5
5
5
5
5
5
5
5
5
5
5
5
5
5
5
5
5
5
5
5
5
5
5
5
5
5
5
5
5
5
5
5
5
5
5
5
5
5
5
5
5
5
5
5
5
5
5
5
5
5
5
5
5
5
5
5
5
5
5
5
5
5
5
5
5
5
5
5
5
5
5
5
5
5
5
5
5
5
5
5
5
5
5
5
5
5
5
5
5
5
5
5
5
5
5
5
5
5
5
5
5
5
5
5
5
5
5
5
5
5
5
5
5
5
5
5
5
5
5
5
5
5
5
5
5
5
5
5
5
5
5
5
5
5
5
5
5
5
5
5
5
5
5
5
5
5
5
5
5
5
5
5
5
5
5
5
5
5
5
5
5
5
5
5
5
5
5
5
5
5
5
5
5
5
5
5
5
5
5
5
5
5
5
5
5
5
5
5
5
5
5
5
5
5
5
5
5
5
5
5
5
5
5
5
5
5
5
5
5
5
5
5
5
5
5
5
5
5
5
5
5
5
5
5
5
5
5
5
5
5
5
5
5
5
5
5
5
5
5
5
5
5
5
5
5
5
5
5
5
5
5
5
5
5
5
5
5
5
5
5
5
5
5
5
5
5
5
5
5
5
5
5
5
5
5
5
5
5
5
5
5
5
5
5
5
5
5
5
5
5
5
5
5
5
5
5
5
5
5
5
5
5
5
5
5
5
5
5
5
5
5
5
5
5
5
5
5
5
5
5
5
5
5
5
5
5
5
5
5
5
5
5
5
5
5
5
5
5
5
5
5
5
5
5
5
5
5
5
5
5
5
5
5
5
5
5
5
5
5
5
5
5
5
5
5
5
5
5
5
5
5
5
5
5
5
5
5
5
5
5
5
5
5
5
5
5
5
5
5
5
5
5
5
5
5
5
5
5
5
5
5
5
5
5
5
5
5
5
5
5
5
5
5
5
5
5
5
5
5
5
5
5
5
5
5
5
5
5
5
5
5
5
5
5
5
5
5
5
5
5
5
5
5
5
5
5
5
5
5
5
5
5
5
5
5
5
5
POINT_DATA 296
SCALARS concentrations float 4
LOOKUP_TABLE default
0 1.00009 0.0947599 2.31331
0 1.00008 0.0938071 6.62992
0 1.00013 0.0945092 1.68215
0 1.00015 0.0938148 -2.30724
0 1.00012 0.0820404 0.089917
0 1.00013 0.0918089 4.9111
0 1.00013 0.0916174 0.0906102
0 1.0001 0.0821402 0.100953
0 1.00011 0.0820759 0.0519501
0 1.00008 0.0933936 0.272123
0 1.00012 0.0921957 1.46196
0 1.00009 0.0927906 5.6767
0 1.00014 0.092298 -0.44722
0 1.00016 0.0820643 0.0536004
0 1.00012 0.0820482 0.0379793
0 1.00015 0.0822293 0.136984
0 1.00014 0.0823342 0.196475
0 1.00013 0.082008 0.0646174
0 1.00011 0.0819821 0.0709319
0 1.00012 0.0823645 0.236006
0 1.00013 0.0822861 0.210625
0 1.00021 0.0930248 -3.49709
0 1.00028 0.0945008 -4.47901
0 1.00011 0.0821026 0.10516
0 1.00016 0.0822845 0.230709
0 1.00011 0.0822368 -0.21072
0 1.00025 0.0959128 4.06583
0 1.00018 0.0823881 -0.126732
0 1.0003 0.0968289 -4.46383
0 1.00015 0.0822073 0.0839079
0 1.00014 0.0823012 0.00306036
0 1.00016 0.0824015 0.145254
0 1.00024 0.0983039 1.79101
0 1.00016 0.0825156 0.242164
0 1.00015 0.0825952 0.304358
0 1.00013 0.0822386 0.197342
0 1.00013 0.0822528 0.204822
0 1.00014 0.0825377 0.3168
0 1.00014 0.0824265 0.289936
0 1.00022 0.0822441 0.334181
0 1.00024 0.0821674 0.282758
0 1.00014 0.0823627 0.222149
0 1.00016 0.0825566 0.257949
0 1.00019 0.094864 6.37439
0 1.00014 0.0825266 -0.0897568
0 1.00024 0.0825952 -0.0494367
0 1.00016 0.0827993 -0.122191
0 1.00026 0.0997655 -1.96636
0 1.00025 0.0823936 -0.0286241
0 1.00022 0.0948443 -1.04948
0 1.00016 0.082465 0.117712
0 1.00015 0.082576 0.031442
0 1.00016 0.0826443 0.217186
0 1.00018 0.0819708 0.0444488
0 1.00019 0.0816529 -0.0352545
0 1.00016 0.082741 0.232699
0 1.00014 0.0824587 0.29303
0 1.00014 0.0824962 0.27239
0 1.00015 0.0826772 0.30909
0 1.00018 0.0822134 0.241108
0 1.00016 0.0820865 0.156526
0 1.00014 0.082727 0.273609
0 1.00015 0.0825482 0.238809
0 1.00022 0.0894421 2.6451
0 1.00015 0.0828061 -0.0137352
0 1.00018 0.0827974 -0.0675806
0 1.00015 0.0829177 -0.0329699
0 1.00021 0.0822879 -0.0860424
0 1.00019 0.0826055 -0.0873139
0 1.00016 0.0953025 1.63695
0 1.0002 0.0820944 -0.152989
0 1.0001 0.087315 3.86245
0 1.00016 0.0829965 0.314724
0 1.00016 0.0828078 0.16673
0 1.00016 0.0830321 0.439725
0 1.00014 0.0818126 0.013721
0 1.00019 0.0815108 -0.0298853
0 1.00015 0.0816873 -0.0715671
0 1.00016 0.0827701 0.10582
0 1.00016 0.0826655 0.344814
0 1.00014 0.082739 0.297549
0 1.00015 0.0826931 0.114379
0 1.00014 0.082273 0.139434
0 1.00013 0.0819878 0.03785
0 1.00014 0.0827764 0.297263
0 1.00023 0.0924665 1.34953
0 1.00015 0.0829011 0.236397
0 1.00016 0.0828097 -0.0427046
0 1.00019 0.0824797 -0.0638504
0 1.00017 0.0827181 -0.0614133
0 1.00014 0.0821507 -0.0785027
0 1.00017 0.0824528 -0.0131655
0 1.00006 0.0969661 -3.08864
0 1.0001 0.0822702 -0.0581458
0 1.00016 0.0825442 -0.0461993
0 1.00016 0.0830142 0.425418
0 1.00016 0.0823953 -0.0509248
0 1.00016 0.0829705 0.334844
0 1.00007 0.101106 -1.83393
0 1.00022 0.0814936 -0.075632
0 1.00013 0.0818283 -0.0696767
0 1.00017 0.0816316 -0.181397
0 1.00014 0.081685 -0.139687
0 1.00016 0.0828654 -0.609194
0 1.00016 0.0827563 0.0702965
0 1.00015 0.0825725 0.146608
0 1.00015 0.0824013 -0.0163581
0 1.00013 0.0823226 0.157211
0 1.00014 0.0822921 0.171314
0 1.00025 0.093592 0.802562
0 1.00016 0.0827058 0.204484
0 1.00017 0.0826547 0.0473553
0 1.00015 0.0825455 0.0676152
0 1.00016 0.0826755 0.125769
0 1.00009 0.0825125 0.100989
0 1.00013 0.0827121 0.226237
0 1.0001 0.0824236 0.134589
0 1.00016 0.0832014 -0.86503
0 1.00017 0.0826207 -0.56449
0 1.00016 0.0837303 -1.11282
0 1.00016 0.0822679 -0.307649
0 1.00016 0.0824287 0.167393
0 1.00016 0.0817475 -0.382126
0 1.00016 0.0836052 -1.32019
0 1.00012 0.0961792 -2.63924
0 1.0002 0.0817173 -0.282573
0 1.00017 0.0817313 -0.340297
0 1.00013 0.0818515 0.00529252
0 1.00014 0.0816977 -0.13086
0 1.00016 0.0820418 -0.290778
0 1.00015 0.0821377 0.0106015
0 1.00014 0.0818501 0.0455373
0 1.00015 0.0819133 0.0681232
0 1.00016 0.0818336 -0.476412
0 1.00018 0.0893485 0.476418
0 1.00016 0.0826521 0.286658
0 1.00015 0.0827439 0.27181
0 1.00012 0.0822741 0.189534
0 1.00014 0.0828118 0.364501
0 1.00014 0.0820206 0.31083
0 1.00012 0.0819585 0.190151
0 1.00016 0.0822423 0.0535519
0 1.00017 0.0822097 -0.392083
0 1.00016 0.0829784 -0.760937
0 1.00016 0.0826687 -0.248712
0 1.00016 0.0815099 -0.260363
0 1.00016 0.0815609 -0.145808
0 1.00016 0.0832375 -0.938183
0 1.00016 0.0835664 -1.47519
0 1.00016 0.0818193 0.350857
0 1.00017 0.095233 2.61166
0 1.00014 0.0815001 -0.072085
0 1.00016 0.0818999 -0.433981
0 1.00015 0.0817251 -0.294788
0 1.00014 0.0815667 -0.18818
0 1.00015 0.0819346 -0.492704
0 1.00016 0.0817943 -0.0614922
0 1.00015 0.0815548 0.0392705
0 1.00017 0.082055 -0.296584
0 1.00015 0.0813571 -0.0691853
0 1.00014 0.0819342 -0.581084
0 1.00015 0.0906919 1.22288
0 1.00015 0.082717 0.390942
0 1.00013 0.0826549 0.40717
0 1.00013 0.0817596 0.210723
0 1.00013 0.0819388 0.210356
0 1.00012 0.0815968 0.201152
0 1.00015 0.0819816 0.150003
0 1.00017 0.0828359 -0.693522
0 1.00017 0.0822436 0.107373
0 1.00016 0.081529 -0.0362084
0 1.00016 0.0832866 -0.695873
0 1.00016 0.0838078 -1.63495
0 1.00015 0.0816422 0.491439
0 1.00019 0.0941445 0.363386
0 1.00015 0.0816019 -0.244002
0 1.00015 0.0819311 -0.452314
0 1.00015 0.0817571 -0.333323
0 1.00014 0.0819449 -0.532894
0 1.00015 0.0820834 -0.489453
0 1.00016 0.0815703 0.078917
0 1.00016 0.0813907 0.044764
0 1.00017 0.0821687 -0.235018
0 1.00016 0.0815129 -0.103931
0 1.00015 0.0818202 -0.288376
0 1.00013 0.0822204 -0.600382
0 1.0001 0.0825387 -0.74379
0 1.00011 0.0951193 3.72915
0 1.00014 0.0824319 0.509737
0 1.00013 0.0817435 0.217881
0 1.00011 0.0815647 0.0630037
0 1.00012 0.0815986 0.175739
0 1.00015 0.0816369 -0.194807
0 1.00016 0.0815411 0.0353939
0 1.00017 0.0830116 -0.652482
0 1.00017 0.0819497 0.203114
0 1.00016 0.0835713 -0.8383
0 1.00017 0.0836525 -1.01309
0 1.00016 0.0842344 -1.93157
0 1.0001 0.0815822 0.042549
0 1.0001 0.0816675 0.501453
0 1.00014 0.0908423 3.48287
0 1.00015 0.082011 -0.455866
0 1.00015 0.0822944 -0.517271
0 1.00014 0.0825823 -0.636121
0 1.00016 0.0821874 -0.409055
0 1.00017 0.081854 -0.0493551
0 1.00016 0.0819988 -0.236047
0 1.00012 0.082681 -0.733567
0 1.00009 0.0828843 -0.736896
0 1.00007 0.102709 8.87985
0 1.00014 0.0821249 0.573996
0 1.00012 0.0816488 0.102882
0 1.00012 0.0818909 0.439035
0 1.00015 0.0816971 0.175209
0 1.00016 0.0816771 0.140695
0 1.00017 0.0823505 0.0516585
0 1.00017 0.0828645 0.100944
0 1.00017 0.0826265 0.550686
0 1.00016 0.0845272 -1.81319
0 1.00011 0.0816924 0.328962
0 1.00007 0.0816829 0.112559
0 1.00008 0.0914937 4.14668
0 1.00016 0.0826295 -0.577543
0 1.00015 0.0830879 -0.745438
0 1.00017 0.0827323 -0.533119
0 1.00017 0.0824209 -0.238877
0 1.00016 0.0836681 -0.882463
0 1.00012 0.0832125 -0.862152
0 1.00007 0.0830421 -0.923986
0 1.00008 0.0937277 2.21049
0 1.00014 0.0819194 0.415005
0 1.00015 0.081725 0.311906
0 1.00016 0.08176 0.211539
0 1.00017 0.0819359 0.354319
0 1.00017 0.0826662 -0.0632713
0 1.00017 0.0833419 -0.124044
0 1.00017 0.0825168 0.763734
0 1.00016 0.0840336 -1.15533
0 1.00016 0.0817405 0.202624
0 1.00015 0.0816117 0.213427
0 1.0001 0.0817108 0.295374
0 1.00005 0.0952314 3.91449
0 1.00017 0.0837769 -0.924148
0 1.00018 0.0831659 -0.570488
0 1.00017 0.0836876 -0.902974
0 1.00016 0.0832593 -0.901621
0 1.00012 0.0829657 -0.90802
0 1.00005 0.0946607 8.3734
0 1.00016 0.0817966 0.127938
0 1.00017 0.0821547 0.276779
0 1.00018 0.0835744 -0.740075
0 1.00018 0.083993 -1.56063
0 1.00017 0.0831509 0.0898788
0 1.00017 0.0820181 0.089601
0 1.00018 0.0818147 0.0912862
0 1.00017 0.0817463 0.352861
0 1.00013 0.0942658 -2.10781
0 1.00019 0.0837271 -1.01324
0 1.00018 0.0833448 -0.872995
0 1.00018 0.0831791 -0.931011
0 1.0002 0.0828436 -0.835515
0 1.00018 0.0978186 2.24469
0 1.00018 0.0824883 -0.11627
0 1.00019 0.0834676 -1.06065
0 1.00018 0.0834433 -0.844413
0 1.00018 0.0824336 -0.117681
0 1.00018 0.0822185 -0.123853
0 1.00019 0.0821947 -0.333134
0 1.0002 0.0941563 2.70958
0 1.00019 0.0831951 -0.788498
0 1.00019 0.0829686 -0.902708
0 1.0002 0.0828896 -1.00894
0 1.00021 0.093596 -2.38818
0 1.0002 0.0830554 -0.722235
0 1.00019 0.0829366 -0.405787
0 1.0002 0.0831671 -0.729148
0 1.00019 0.0832752 -0.722414
0 1.00017 0.0826749 -0.305693
0 1.00016 0.0823218 -0.193363
0 1.00017 0.0944027 3.41872
0 1.00021 0.0828334 -0.780673
0 1.0002 0.0828868 -1.07402
0 1.00021 0.101047 3.22773
0 1.0002 0.0828397 -0.684706
0 1.00018 0.0831156 -0.482968
0 1.00019 0.0829979 -0.591471
0 1.00014 0.0828026 -0.595533
0 1.00013 0.0937835 5.42988
0 1.00021 0.0827151 -0.918485
0 1.0002 0.0962111 4.30851
0 1.00018 0.0827422 -0.885334
0 1.00015 0.082603 -0.16274
0 1.00012 0.0913347 1.93442
0 1.0002 0.0901303 1.07134
0 1.00014 0.0936784 0.822294
VECTORS fa_u float
0.00607776 0.00251951 -0
0.00558198 0.00322376 -0
0.00626457 0.00167993 -0
0.00659704 0.000866946 -0
1e-08 0 0
0.00517787 0.00397092 -0
0.00461508 0.00461238 -0
1e-08 0 0
1e-08 0 0
0.00399229 0.00520152 -0
0.00322751 0.00558559 -0
0.00635202 3.76203e-08 -0
0.00666134 -0.000877528 0
1e-08 0 0
1e-08 0 0
1e-08 0 0
1e-08 0 0
1e-08 0 0
1e-08 0 0
1e-08 0 0
1e-08 0 0
0.00254536 0.00614308 -0
0.00167531 0.00625961 -0
1e-08 0 0
1e-08 0 0
1e-08 0 0
0.00615638 -0.0016514 0
1e-08 0 0
0.00603273 -0.0024955 0
1e-08 0 0
1e-08 0 0
1e-08 0 0
0.000856291 0.00651948 -0
1e-08 0 0
1e-08 0 0
1e-08 0 0
1e-08 0 0
1e-08 0 0
1e-08 0 0
1e-08 0 0
1e-08 0 0
1e-08 0 0
1e-08 0 0
2.26355e-08 0.00641758 -0
1e-08 0 0
1e-08 0 0
1e-08 0 0
0.00572935 -0.00330767 0
1e-08 0 0
0.00509844 -0.00391164 0
1e-08 0 0
1e-08 0 0
1e-08 0 0
1e-08 0 0
1e-08 0 0
1e-08 0 0
1e-08 0 0
1e-08 0 0
1e-08 0 0
1e-08 0 0
1e-08 0 0
1e-08 0 0
1e-08 0 0
-0.000848196 0.00646918 0
1e-08 0 0
1e-08 0 0
1e-08 0 0
1e-08 0 0
1e-08 0 0
0.00466585 -0.00466383 0
1e-08 0 0
0.00393938 -0.00513246 0
1e-08 0 0
1e-08 0 0
1e-08 0 0
1e-08 0 0
1e-08 0 0
1e-08 0 0
1e-08 0 0
1e-08 0 0
1e-08 0 0
1e-08 0 0
1e-08 0 0
1e-08 0 0
1e-08 0 0
-0.00172694 0.00644082 0
1e-08 0 0
1e-08 0 0
1e-08 0 0
1e-08 0 0
1e-08 0 0
1e-08 0 0
0.00328857 -0.00569382 0
1e-08 0 0
1e-08 0 0
1e-08 0 0
1e-08 0 0
1e-08 0 0
0.00252203 -0.0060962 0
1e-08 0 0
1e-08 0 0
1e-08 0 0
1e-08 0 0
1e-08 0 0
1e-08 0 0
1e-08 0 0
1e-08 0 0
1e-08 0 0
1e-08 0 0
-0.00245962 0.00593226 0
1e-08 0 0
1e-08 0 0
1e-08 0 0
1e-08 0 0
1e-08 0 0
1e-08 0 0
1e-08 0 0
1e-08 0 0
1e-08 0 0
1e-08 0 0
1e-08 0 0
1e-08 0 0
1e-08 0 0
1e-08 0 0
0.00166255 -0.00621264 0
1e-08 0 0
1e-08 0 0
1e-08 0 0
1e-08 0 0
1e-08 0 0
1e-08 0 0
1e-08 0 0
1e-08 0 0
1e-08 0 0
-0.00329494 0.00570481 0
1e-08 0 0
1e-08 0 0
1e-08 0 0
1e-08 0 0
1e-08 0 0
1e-08 0 0
1e-08 0 0
1e-08 0 0
1e-08 0 0
1e-08 0 0
1e-08 0 0
1e-08 0 0
1e-08 0 0
1e-08 0 0
1e-08 0 0
0.000857766 -0.0065205 0
1e-08 0 0
1e-08 0 0
1e-08 0 0
1e-08 0 0
1e-08 0 0
1e-08 0 0
1e-08 0 0
1e-08 0 0
1e-08 0 0
1e-08 0 0
-0.00392025 0.00510872 0
1e-08 0 0
1e-08 0 0
1e-08 0 0
1e-08 0 0
1e-08 0 0
1e-08 0 0
1e-08 0 0
1e-08 0 0
1e-08 0 0
1e-08 0 0
1e-08 0 0
1e-08 0 0
-1.11891e-06 -0.0064891 0
1e-08 0 0
1e-08 0 0
1e-08 0 0
1e-08 0 0
1e-08 0 0
1e-08 0 0
1e-08 0 0
1e-08 0 0
1e-08 0 0
1e-08 0 0
1e-08 0 0
1e-08 0 0
-0.00463742 0.0046397 0
1e-08 0 0
1e-08 0 0
1e-08 0 0
1e-08 0 0
1e-08 0 0
1e-08 0 0
1e-08 0 0
1e-08 0 0
1e-08 0 0
1e-08 0 0
1e-08 0 0
1e-08 0 0
1e-08 0 0
-0.000858028 -0.00650864 0
1e-08 0 0
1e-08 0 0
1e-08 0 0
1e-08 0 0
1e-08 0 0
1e-08 0 0
1e-08 0 0
1e-08 0 0
-0.0051833 0.00397741 0
1e-08 0 0
1e-08 0 0
1e-08 0 0
1e-08 0 0
1e-08 0 0
1e-08 0 0
1e-08 0 0
1e-08 0 0
1e-08 0 0
1e-08 0 0
1e-08 0 0
-0.00164548 -0.00615166 0
1e-08 0 0
1e-08 0 0
1e-08 0 0
1e-08 0 0
1e-08 0 0
1e-08 0 0
1e-08 0 0
-0.00564991 0.0032621 0
1e-08 0 0
1e-08 0 0
1e-08 0 0
1e-08 0 0
1e-08 0 0
1e-08 0 0
1e-08 0 0
1e-08 0 0
1e-08 0 0
1e-08 0 0
1e-08 0 0
-0.00256073 -0.00618834 0
1e-08 0 0
1e-08 0 0
1e-08 0 0
1e-08 0 0
1e-08 0 0
-0.00606603 0.00251128 0
1e-08 0 0
1e-08 0 0
1e-08 0 0
1e-08 0 0
1e-08 0 0
1e-08 0 0
1e-08 0 0
1e-08 0 0
-0.00324124 -0.00561094 0
1e-08 0 0
1e-08 0 0
1e-08 0 0
1e-08 0 0
-0.00624197 0.00167215 0
1e-08 0 0
1e-08 0 0
1e-08 0 0
1e-08 0 0
1e-08 0 0
1e-08 0 0
-0.0039578 -0.00515895 0
1e-08 0 0
1e-08 0 0
1e-08 0 0
-0.00643308 0.000849754 0
1e-08 0 0
1e-08 0 0
1e-08 0 0
1e-08 0 0
1e-08 0 0
1e-08 0 0
-0.00467128 -0.00466953 0
1e-08 0 0
1e-08 0 0
-0.00662649 9.52838e-07 0
1e-08 0 0
1e-08 0 0
1e-08 0 0
1e-08 0 0
-0.00508859 -0.00390471 0
1e-08 0 0
-0.00650149 -0.000859638 0
1e-08 0 0
1e-08 0 0
-0.00575896 -0.00332433 0
-0.00624099 -0.00167483 0
-0.00596135 -0.00246712 0
