# vtk DataFile Version 2.0
CellBP Time: 6.68
ASCII
DATASET UNSTRUCTURED_GRID
POINTS 296 double
-8.97 -3.67505 0
-8.40976 -4.82922 0
-9.36367 -2.45163 0
-9.63801 -1.21709 0
-8.12534 -2.72285 0
-7.69281 -5.8974 0
-6.84307 -6.86302 0
-7.68609 -3.748 0
-7.12378 -4.72324 0
-5.91198 -7.72973 0
-4.8771 -8.46147 0
-9.74353 0.0390851 0
-9.68455 1.31828 0
-8.44208 -1.62815 0
-8.59792 -0.507479 0
-7.36873 -1.92513 0
-6.99827 -2.79481 0
-6.46235 -5.64154 0
-5.6909 -6.45974 0
-6.57039 -3.75733 0
-6.03298 -4.54216 0
-3.72471 -9.02762 0
-2.49486 -9.42889 0
-4.81058 -7.17841 0
-3.85727 -7.75912 0
-8.61245 0.630082 0
-9.4606 2.59639 0
-8.46447 1.7338 0
-9.0498 3.81519 0
-7.54507 -0.888465 0
-7.60838 0.0887164 0
-6.75924 -1.25915 0
-1.22168 -9.66851 0
-6.26342 -2.07688 0
-6.13443 -2.95524 0
-5.38784 -5.34566 0
-4.68165 -5.99073 0
-5.49385 -3.64796 0
-5.1135 -4.44357 0
-2.82508 -8.22309 0
-1.75027 -8.48412 0
-3.85056 -6.60378 0
-3.016 -7.03554 0
0.0547039 -9.73065 0
-7.53193 1.11826 0
-8.20427 2.86659 0
-7.39253 2.05563 0
-8.44033 4.94162 0
-7.7254 3.89178 0
-7.68518 5.98313 0
-6.60603 -0.371586 0
-6.78492 0.549279 0
-5.63902 -0.973532 0
-0.58156 -8.63412 0
0.545283 -8.57138 0
-5.17331 -2.41061 0
-4.36502 -4.97626 0
-3.80844 -5.6583 0
-4.32951 -3.71779 0
-2.02902 -7.42967 0
-1.11719 -7.64049 0
-2.93685 -5.98712 0
-2.27516 -6.505 0
1.31586 -9.61724 0
-6.5384 1.38539 0
-7.00981 3.03519 0
-6.51276 2.31304 0
-7.13122 4.86676 0
-6.56774 3.89933 0
-6.84109 6.93457 0
-6.41753 5.74885 0
-5.89299 7.79236 0
-4.38211 -1.16732 0
-5.6946 0.493779 0
-4.58343 -0.0265201 0
-0.00434937 -7.67432 0
1.68671 -8.42129 0
0.908112 -7.57072 0
-3.9689 -2.35978 0
-3.45914 -1.38068 0
-3.22587 -4.71171 0
-3.22335 -3.21399 0
-1.36732 -6.54443 0
-0.519557 -6.87335 0
-1.94999 -5.44325 0
2.56919 -9.36997 0
-5.39601 1.99677 0
-5.95833 2.99296 0
-5.96866 4.74314 0
-5.6286 3.88155 0
-5.61719 6.54666 0
-5.32383 5.47154 0
-4.85738 8.54148 0
-4.7167 7.2122 0
-3.4645 -0.419448 0
-4.37326 1.22953 0
-3.65891 0.585578 0
-3.98991 2.29555 0
-3.71528 9.11112 0
2.76915 -8.09061 0
0.377508 -6.62646 0
1.94114 -7.31305 0
1.23962 -6.71718 0
-2.42709 -0.863941 0
-2.8144 -2.11025 0
-2.26807 -4.03258 0
-2.30043 -2.93171 0
-0.449657 -5.73664 0
-1.20435 -4.42843 0
3.7839 -8.97393 0
-4.68633 3.31434 0
-4.96971 4.47087 0
-4.53463 6.10868 0
-4.43164 5.21701 0
-3.76153 7.81296 0
-3.72472 6.65251 0
-2.71739 8.22004 0
-1.63715 -0.125322 0
-1.43752 -0.877504 0
-2.47256 0.51684 0
-3.20928 1.43574 0
-3.18208 3.26665 0
-2.86927 2.3601 0
-1.34986 0.637672 0
-2.49201 9.49998 0
3.80899 -7.65791 0
2.85057 -6.92675 0
0.905507 -5.67699 0
1.98952 -6.22375 0
-1.66461 -1.9773 0
-1.41677 -3.23727 0
0.0807193 -4.65771 0
-0.556667 -3.64446 0
4.7907 -7.10197 0
4.93063 -8.41351 0
-3.69417 4.44868 0
-3.64601 5.60445 0
-2.80717 7.09415 0
-2.93603 6.18971 0
-1.62548 8.54075 0
-1.88638 7.43631 0
-2.30306 3.9842 0
-0.72192 -1.3184 0
-0.831586 -0.245724 0
-1.93107 1.69147 0
-2.10399 2.85774 0
-1.29725 3.51065 0
-0.871827 1.36054 0
-0.284845 0.463518 0
-0.52484 8.68969 0
-1.22877 9.73898 0
1.07377 -4.47122 0
3.77041 -6.48203 0
2.88199 -5.90029 0
2.04407 -5.27056 0
4.64359 -6.00037 0
-0.549137 -2.45775 0
0.490701 -3.41666 0
0.0587141 -1.60248 0
1.4477 -3.60449 0
5.71811 -6.42682 0
5.99599 -7.69704 0
-2.42196 5.22919 0
-2.07048 6.3731 0
-0.875805 7.63788 0
-1.22601 6.76883 0
0.0939442 7.72919 0
-1.1288 4.42543 0
0.148448 -0.611833 0
-0.80683 2.49423 0
-0.342837 3.57649 0
0.054185 1.51503 0
0.734444 0.474647 0
0.631522 8.71493 0
0.0432312 9.84567 0
2.31206 -4.17304 0
3.74036 -5.45373 0
2.91015 -5.05515 0
5.43993 -5.32986 0
4.56324 -5.10536 0
0.631763 -2.28363 0
1.24018 -2.91017 0
0.758343 -1.38808 0
2.1219 -3.07474 0
2.93048 -3.39455 0
6.0294 -4.66889 0
6.51078 -5.62801 0
6.95438 -6.83852 0
-0.992689 5.70268 0
-0.347204 6.73813 0
1.10644 7.63762 0
0.563056 6.94535 0
-0.00265397 4.66421 0
0.59535 3.79094 0
1.33247 -0.641726 0
0.523826 2.64015 0
0.951579 1.57636 0
1.89419 0.208723 0
1.60083 1.06132 0
2.1003 7.46028 0
1.77205 8.56542 0
1.32787 9.77351 0
3.73038 -4.22394 0
4.99846 -4.30681 0
5.73173 -3.82921 0
3.71065 -3.11931 0
1.79816 -1.87686 0
2.97282 -2.52977 0
6.66054 -3.85905 0
7.24298 -4.79606 0
7.8198 -5.90091 0
0.481624 5.7793 0
1.41313 6.62695 0
2.34303 6.56508 0
1.19133 4.49688 0
1.46718 3.36007 0
2.41184 -0.689543 0
2.79847 0.140631 0
1.76862 2.15053 0
2.59265 1.14179 0
3.03055 7.05859 0
2.86555 8.23934 0
2.59794 9.52832 0
4.8163 -3.2362 0
6.01243 -3.03466 0
4.10772 -2.23607 0
3.20359 -1.49003 0
6.6263 -2.27639 0
7.11944 -2.99086 0
7.83871 -3.85082 0
8.55554 -4.86762 0
2.00012 5.51578 0
3.02036 6.04704 0
2.33666 4.07074 0
2.39468 3.02391 0
3.48259 -0.453623 0
3.57539 0.612971 0
2.92852 2.26269 0
3.49466 1.50766 0
3.91466 5.78424 0
3.90921 6.67547 0
3.91811 7.81293 0
3.82446 9.12295 0
5.48459 -1.88404 0
4.44809 -1.11054 0
6.60303 -1.31217 0
7.47214 -2.00326 0
8.25859 -2.81664 0
9.12582 -3.71976 0
3.3368 4.78575 0
3.27726 3.3277 0
4.62291 0.133738 0
4.43469 1.28333 0
3.978 2.39276 0
4.44067 5.03819 0
4.72716 6.06901 0
4.88897 7.24057 0
4.97184 8.55255 0
5.7772 -0.435777 0
6.87886 -0.486349 0
7.62905 -1.06022 0
8.53637 -1.71293 0
9.5297 -2.49117 0
4.43156 3.74046 0
5.68597 1.05742 0
5.2264 2.46418 0
5.21526 4.50192 0
5.4599 5.39872 0
5.76757 6.53065 0
6.00573 7.8201 0
6.69197 0.434804 0
7.70076 -0.0271146 0
8.69757 -0.564585 0
9.77234 -1.21906 0
6.78802 1.29418 0
5.54651 3.67306 0
6.36142 2.11689 0
6.18719 2.9881 0
6.10073 4.55999 0
6.5172 5.69757 0
6.94913 6.96176 0
7.61116 0.93428 0
8.67168 0.562867 0
9.83941 0.0618346 0
7.41946 1.93789 0
6.60293 3.77491 0
7.05418 2.84572 0
7.17924 4.75669 0
7.8075 6.00473 0
8.51367 1.68352 0
9.72285 1.32274 0
8.18891 2.75476 0
7.76873 3.81151 0
8.52482 4.941 0
9.47808 2.57768 0
9.0836 3.79302 0
CELLS 542 2168
3 2 0 4
3 0 1 7
3 4 0 7
3 1 5 8
3 7 1 8
3 3 2 13
3 13 2 4
3 11 3 14
3 14 3 13
3 13 4 15
3 4 7 16
3 15 4 16
3 5 6 17
3 8 5 17
3 6 9 18
3 17 6 18
3 7 8 19
3 16 7 19
3 8 17 20
3 19 8 20
3 9 10 23
3 18 9 23
3 10 21 24
3 23 10 24
3 12 11 25
3 25 11 14
3 26 12 27
3 27 12 25
3 14 13 29
3 29 13 15
3 25 14 30
3 30 14 29
3 29 15 31
3 15 16 33
3 31 15 33
3 16 19 34
3 33 16 34
3 17 18 35
3 20 17 35
3 18 23 36
3 35 18 36
3 19 20 37
3 34 19 37
3 20 35 38
3 37 20 38
3 21 22 39
3 24 21 39
3 22 32 40
3 39 22 40
3 23 24 41
3 36 23 41
3 24 39 42
3 41 24 42
3 27 25 44
3 44 25 30
3 28 26 45
3 45 26 27
3 45 27 46
3 46 27 44
3 47 28 48
3 48 28 45
3 30 29 50
3 50 29 31
3 44 30 51
3 51 30 50
3 50 31 52
3 31 33 52
3 32 43 53
3 40 32 53
3 53 43 54
3 33 34 55
3 34 37 55
3 33 55 52
3 35 36 56
3 38 35 56
3 36 41 57
3 56 36 57
3 37 38 58
3 38 56 58
3 37 58 55
3 39 40 59
3 42 39 59
3 40 53 60
3 59 40 60
3 41 42 61
3 57 41 61
3 42 59 62
3 61 42 62
3 43 63 54
3 46 44 64
3 64 44 51
3 48 45 65
3 65 45 46
3 65 46 66
3 66 46 64
3 49 47 67
3 67 47 48
3 67 48 68
3 68 48 65
3 69 49 70
3 70 49 67
3 52 55 72
3 64 51 73
3 51 50 73
3 50 52 73
3 73 52 74
3 74 52 72
3 53 54 75
3 60 53 75
3 54 63 76
3 54 76 77
3 75 54 77
3 55 58 78
3 72 55 78
3 72 78 79
3 56 57 80
3 57 61 80
3 56 80 58
3 58 80 81
3 78 58 81
3 59 60 82
3 62 59 82
3 60 75 83
3 82 60 83
3 61 62 84
3 62 82 84
3 61 84 80
3 63 85 76
3 66 64 86
3 64 73 86
3 68 65 87
3 87 65 66
3 87 66 86
3 70 67 88
3 88 67 68
3 88 68 89
3 89 68 87
3 71 69 90
3 90 69 70
3 90 70 91
3 91 70 88
3 92 71 93
3 93 71 90
3 74 72 94
3 94 72 79
3 86 73 95
3 95 73 74
3 95 74 96
3 96 74 94
3 97 86 95
3 76 85 99
3 75 77 100
3 83 75 100
3 76 99 101
3 77 76 101
3 77 101 102
3 100 77 102
3 94 79 103
3 78 81 104
3 79 78 104
3 79 104 103
3 80 84 105
3 81 80 105
3 81 105 106
3 104 81 106
3 82 83 107
3 83 100 107
3 82 107 84
3 84 107 108
3 105 84 108
3 85 109 99
3 89 87 110
3 87 86 110
3 110 86 97
3 91 88 111
3 111 88 89
3 111 89 110
3 93 90 112
3 112 90 91
3 112 91 113
3 113 91 111
3 98 92 114
3 114 92 93
3 114 93 115
3 115 93 112
3 116 98 114
3 117 103 118
3 96 94 119
3 94 103 119
3 119 103 117
3 97 95 120
3 120 95 96
3 120 96 119
3 121 110 97
3 121 97 122
3 122 97 120
3 123 119 117
3 124 98 116
3 99 109 125
3 99 125 126
3 101 99 126
3 100 102 127
3 100 127 107
3 101 126 128
3 102 101 128
3 102 128 127
3 104 106 129
3 104 129 103
3 103 129 118
3 105 108 130
3 106 105 130
3 106 130 129
3 107 127 131
3 108 107 131
3 108 131 132
3 108 132 130
3 109 134 125
3 125 134 133
3 113 111 135
3 111 110 135
3 135 110 121
3 115 112 136
3 136 112 113
3 136 113 135
3 116 114 137
3 137 114 115
3 137 115 138
3 138 115 136
3 139 124 116
3 139 116 140
3 140 116 137
3 141 135 121
3 118 129 142
3 118 142 143
3 117 118 143
3 123 117 143
3 122 120 144
3 120 119 144
3 144 119 123
3 141 121 145
3 145 121 122
3 145 122 144
3 146 141 145
3 147 144 123
3 147 123 148
3 143 148 123
3 150 124 139
3 149 150 139
3 131 127 151
3 125 133 152
3 126 125 152
3 126 152 153
3 128 126 153
3 128 153 154
3 128 154 127
3 127 154 151
3 152 133 155
3 130 132 156
3 130 156 129
3 129 156 142
3 131 151 157
3 132 131 157
3 132 157 156
3 156 158 142
3 157 151 159
3 133 160 155
3 134 161 133
3 133 161 160
3 138 136 162
3 136 135 162
3 162 135 141
3 140 137 163
3 163 137 138
3 163 138 162
3 149 139 164
3 164 139 140
3 164 140 165
3 165 140 163
3 166 149 164
3 167 162 141
3 167 141 146
3 142 158 168
3 143 142 168
3 143 168 148
3 146 145 169
3 145 144 169
3 169 144 147
3 170 167 146
3 170 146 169
3 171 169 147
3 171 147 148
3 171 148 172
3 168 172 148
3 173 149 166
3 174 150 149
3 173 174 149
3 154 175 151
3 151 175 159
3 152 155 176
3 153 152 176
3 153 176 177
3 153 177 154
3 154 177 175
3 155 160 178
3 155 178 179
3 176 155 179
3 156 157 180
3 156 180 158
3 157 159 181
3 157 181 180
3 158 180 182
3 158 182 168
3 159 175 183
3 159 183 181
3 175 184 183
3 160 186 178
3 178 186 185
3 161 187 160
3 160 187 186
3 165 163 188
3 163 162 188
3 188 162 167
3 166 164 189
3 189 164 165
3 189 165 188
3 190 173 166
3 190 166 191
3 191 166 189
3 192 188 167
3 192 167 170
3 193 192 170
3 182 194 168
3 194 172 168
3 193 170 195
3 170 169 195
3 195 169 171
3 196 195 171
3 196 171 172
3 194 197 172
3 197 198 172
3 198 196 172
3 200 173 190
3 199 200 190
3 201 174 173
3 200 201 173
3 176 179 202
3 177 176 202
3 177 202 175
3 175 202 184
3 178 185 203
3 178 203 179
3 179 203 202
3 203 185 204
3 202 205 184
3 183 206 181
3 180 181 206
3 180 206 182
3 182 206 194
3 183 184 207
3 205 207 184
3 183 207 206
3 185 208 204
3 186 209 185
3 185 209 208
3 187 210 186
3 186 210 209
3 191 189 211
3 189 188 211
3 211 188 192
3 199 190 212
3 212 190 191
3 212 191 211
3 213 199 212
3 214 211 192
3 214 192 193
3 215 214 193
3 215 193 195
3 206 216 194
3 216 197 194
3 216 217 197
3 215 195 218
3 218 195 196
3 198 218 196
3 217 219 197
3 219 218 198
3 197 219 198
3 220 199 213
3 221 200 199
3 220 221 199
3 222 201 200
3 221 222 200
3 203 204 223
3 203 223 202
3 202 223 205
3 204 208 224
3 204 224 223
3 205 223 225
3 205 225 207
3 207 225 226
3 207 226 206
3 226 216 206
3 208 228 224
3 224 228 227
3 209 229 208
3 229 228 208
3 210 230 209
3 209 230 229
3 213 212 231
3 212 211 231
3 231 211 214
3 232 220 213
3 232 213 231
3 233 231 214
3 233 214 215
3 234 233 215
3 234 215 218
3 226 235 216
3 235 217 216
3 235 236 217
3 217 236 219
3 237 234 218
3 237 218 219
3 236 238 219
3 238 237 219
3 240 220 232
3 239 240 232
3 241 221 220
3 240 241 220
3 242 222 221
3 241 242 221
3 224 227 243
3 224 243 223
3 223 243 225
3 225 243 244
3 225 244 226
3 226 244 235
3 227 245 243
3 228 246 227
3 227 246 245
3 229 247 228
3 228 247 246
3 230 248 229
3 229 248 247
3 239 232 249
3 232 231 249
3 249 231 233
3 250 249 233
3 250 233 234
3 237 250 234
3 244 251 235
3 235 251 236
3 251 252 236
3 236 252 238
3 252 253 238
3 253 250 237
3 253 237 238
3 254 239 249
3 255 240 239
3 254 255 239
3 256 241 240
3 255 256 240
3 257 242 241
3 256 257 241
3 245 258 243
3 243 258 244
3 244 258 251
3 245 259 258
3 246 260 245
3 245 260 259
3 247 261 246
3 246 261 260
3 248 262 247
3 247 262 261
3 254 249 263
3 263 249 250
3 253 263 250
3 258 264 251
3 251 264 252
3 264 265 252
3 265 263 253
3 252 265 253
3 266 254 263
3 267 255 254
3 266 267 254
3 268 256 255
3 267 268 255
3 269 257 256
3 268 269 256
3 259 270 258
3 270 264 258
3 260 271 259
3 259 271 270
3 261 272 260
3 260 272 271
3 262 273 261
3 273 272 261
3 270 274 264
3 275 266 263
3 275 263 265
3 274 276 264
3 276 265 264
3 276 277 265
3 277 275 265
3 278 267 266
3 275 278 266
3 279 268 267
3 278 279 267
3 280 269 268
3 279 280 268
3 271 281 270
3 270 281 274
3 272 282 271
3 271 282 281
3 273 283 272
3 272 283 282
3 281 284 274
3 274 284 276
3 285 278 275
3 277 285 275
3 284 286 276
3 286 285 277
3 276 286 277
3 287 279 278
3 285 287 278
3 288 280 279
3 287 288 279
3 282 289 281
3 281 289 284
3 283 290 282
3 282 290 289
3 289 291 284
3 284 291 286
3 291 292 286
3 292 287 285
3 286 292 285
3 293 288 287
3 292 293 287
3 290 294 289
3 289 294 291
3 294 295 291
3 295 293 292
3 291 295 292
CELL_TYPES 542
5
5
5
5
5
5
5
5
5
5
5
5
5
5
5
5
5
5
5
5
5
5
5
5
5
5
5
5
5
5
5
5
5
5
5
5
5
5
5
5
5
5
5
5
5
5
5
5
5
5
5
5
5
5
5
5
5
5
5
5
5
5
5
5
5
5
5
5
5
5
5
5
5
5
5
5
5
5
5
5
5
5
5
5
5
5
5
5
5
5
5
5
5
5
5
5
5
5
5
5
5
5
5
5
5
5
5
5
5
5
5
5
5
5
5
5
5
5
5
5
5
5
5
5
5
5
5
5
5
5
5
5
5
5
5
5
5
5
5
5
5
5
5
5
5
5
5
5
5
5
5
5
5
5
5
5
5
5
5
5
5
5
5
5
5
5
5
5
5
5
5
5
5
5
5
5
5
5
5
5
5
5
5
5
5
5
5
5
5
5
5
5
5
5
5
5
5
5
5
5
5
5
5
5
5
5
5
5
5
5
5
5
5
5
5
5
5
5
5
5
5
5
5
5
5
5
5
5
5
5
5
5
5
5
5
5
5
5
5
5
5
5
5
5
5
5
5
5
5
5
5
5
5
5
5
5
5
5
5
5
5
5
5
5
5
5
5
5
5
5
5
5
5
5
5
5
5
5
5
5
5
5
5
5
5
5
5
5
5
5
5
5
5
5
5
5
5
5
5
5
5
5
5
5
5
5
5
5
5
5
5
5
5
5
5
5
5
5
5
5
5
5
5
5
5
5
5
5
5
5
5
5
5
5
5
5
5
5
5
5
5
5
5
5
5
5
5
5
5
5
5
5
5
5
5
5
5
5
5
5
5
5
5
5
5
5
5
5
5
5
5
5
5
5
5
5
5
5
5
5
5
5
5
5
5
5
5
5
5
5
5
5
5
5
5
5
5
5
5
5
5
5
5
5
5
5
5
5
5
5
5
5
5
5
5
5
5
5
5
5
5
5
5
5
5
5
5
5
5
5
5
5
5
5
5
5
5
5
5
5
5
5
5
5
5
5
5
5
5
5
5
5
5
5
5
5
5
5
5
5
5
5
5
5
5
5
5
5
5
5
5
5
5
5
5
5
5
5
5
5
5
5
5
5
5
5
5
5
5
5
5
5
5
5
5
5
5
5
5
5
5
5
5
5
5
5
5
5
5
5
5
5
5
5
5
5
5
5
5
5
5
5
5
5
5
5
5
5
5
5
5
5
5
5
5
5
5
5
5
5
5
5
POINT_DATA 296
SCALARS concentrations float 4
LOOKUP_TABLE default
0 0.958134 0.135306 6.39912
0 0.95816 0.134336 3.18493
0 0.958091 0.135251 6.70227
0 0.958119 0.13518 9.55864
0 0.95811 0.095961 0.753652
0 0.958219 0.133496 0.549764
0 0.958134 0.138769 6.12236
0 0.958134 0.0935192 0.201402
0 0.95817 0.0933136 -0.603218
0 0.958021 0.131694 9.86231
0 0.958084 0.135854 4.9293
0 0.95811 0.130823 1.78626
0 0.958144 0.133707 7.90856
0 0.958104 0.0936913 0.323271
0 0.958105 0.0941945 0.0215241
0 0.958108 0.0942767 -0.559
0 0.958116 0.0954306 -1.24875
0 0.958168 0.0935708 -0.459669
0 0.95808 0.0926813 -0.0999782
0 0.958128 0.0948485 1.31951
0 0.958127 0.0929913 -0.0219442
0 0.958152 0.13548 5.13021
0 0.95813 0.135464 10.4882
0 0.958066 0.0927672 -0.226197
0 0.958132 0.092926 -0.174859
0 0.95811 0.0959345 -0.280522
0 0.95812 0.132455 7.15179
0 0.958113 0.0939962 0.201445
0 0.958145 0.130839 2.18787
0 0.958104 0.0941048 0.527489
0 0.958087 0.0941197 0.76987
0 0.958107 0.0949867 -1.00447
0 0.958119 0.133667 2.09989
0 0.958099 0.0947587 0.365646
0 0.958103 0.0974535 -0.414675
0 0.958118 0.092899 -0.0727154
0 0.958106 0.0931165 0.347349
0 0.958105 0.0945373 -0.238715
0 0.958113 0.0939073 0.211925
0 0.958141 0.0928858 -0.0915183
0 0.958124 0.0931225 0.11563
0 0.958117 0.0928744 0.347449
0 0.958131 0.093389 0.356853
0 0.958047 0.134922 12.2259
0 0.958093 0.0960553 -0.561467
0 0.958102 0.0959111 -0.867991
0 0.958093 0.09581 1.1655
0 0.958184 0.13431 3.37598
0 0.958144 0.0954861 -1.05155
0 0.958149 0.137024 3.04043
0 0.958104 0.0944376 0.437435
0 0.958096 0.0947297 0.607276
0 0.958102 0.0944982 0.335102
0 0.95809 0.0928729 0.163969
0 0.95806 0.0928642 0.373864
0 0.958102 0.100052 -0.479826
0 0.958115 0.0940193 0.813868
0 0.958115 0.0932142 0.515409
0 0.958106 0.0943143 -0.0525452
0 0.958128 0.0933793 0.0231365
0 0.958111 0.0932131 0.446485
0 0.958116 0.0930513 0.254918
0 0.958125 0.0937398 0.297244
0 0.958071 0.134832 9.88427
0 0.9581 0.0951836 0.0170761
0 0.958098 0.102628 0.414044
0 0.958098 0.095271 0.583911
0 0.958151 0.0941714 0.475682
0 0.95811 0.0961659 0.62229
0 0.958106 0.133993 10.0256
0 0.958113 0.0950333 0.258259
0 0.958079 0.132759 6.07037
0 0.958097 0.0968469 0.436594
0 0.958112 0.0963371 0.0783137
0 0.958101 0.0970189 1.65065
0 0.958093 0.0929569 -0.524753
0 0.9581 0.0931383 0.521071
0 0.958095 0.0931595 -0.765861
0 0.958104 0.0967702 0.286233
0 0.958099 0.100619 -1.39719
0 0.958107 0.0938895 0.448459
0 0.958106 0.0950716 -0.114695
0 0.958125 0.0936953 0.144728
0 0.958112 0.0936432 -0.209284
0 0.958113 0.101135 -2.36457
0 0.958118 0.13133 6.76745
0 0.958118 0.0973432 3.5228
0 0.95809 0.0980353 2.28294
0 0.958099 0.0949535 0.385199
0 0.958094 0.0956649 1.55402
0 0.958101 0.0946738 -0.200916
0 0.958093 0.0945746 -0.652978
0 0.958084 0.132801 3.58316
0 0.958099 0.0953533 -0.354341
0 0.958094 0.0996724 -0.0226089
0 0.95814 0.0950468 0.256057
0 0.958112 0.0944578 0.0988776
0 0.958139 0.0952839 -0.390204
0 0.958069 0.132215 11.4759
0 0.958123 0.0940223 0.902646
0 0.958108 0.0932744 -0.522443
0 0.958111 0.0942253 -0.829443
0 0.958109 0.0934485 -0.728688
0 0.958132 0.0979175 0.105142
0 0.958113 0.0986218 -0.608151
0 0.958106 0.0936499 0.388225
0 0.958124 0.0966002 -0.94491
0 0.958118 0.0936393 0.472793
0 0.958106 0.0942257 -0.978186
0 0.958143 0.133264 3.78016
0 0.958115 0.0963866 0.727571
0 0.958095 0.0951204 -0.0375789
0 0.958105 0.0962003 -1.39225
0 0.958081 0.0963451 -0.654089
0 0.958076 0.0982981 0.676629
0 0.958098 0.0990281 2.75501
0 0.958088 0.0965106 1.19401
0 0.958157 0.0946776 -0.177497
0 0.95817 0.0961802 1.56038
0 0.958127 0.0954242 -0.512112
0 0.958136 0.0950574 -0.335537
0 0.958129 0.0957993 0.559175
0 0.958135 0.0954078 0.134242
0 0.958134 0.0948498 0.346026
0 0.958109 0.132489 4.85711
0 0.958124 0.0945537 -0.687744
0 0.958113 0.0948602 0.798778
0 0.958117 0.0935016 0.546091
0 0.958118 0.0940697 0.598823
0 0.958151 0.0973406 -0.596353
0 0.958125 0.0933343 -0.298854
0 0.95811 0.0927232 0.268165
0 0.958108 0.0936785 -0.933827
0 0.958084 0.0943369 -0.75983
0 0.958113 0.131558 9.49504
0 0.958117 0.097983 2.97401
0 0.958097 0.0968491 0.462235
0 0.958097 0.0998499 -1.28325
0 0.958103 0.0991552 -1.70816
0 0.958119 0.0944184 -0.282767
0 0.958114 0.0945441 -0.596488
0 0.95813 0.0944745 -0.646116
0 0.958165 0.0997083 -2.42733
0 0.958153 0.0958526 -0.808847
0 0.958123 0.0963759 -0.647608
0 0.958127 0.0957356 0.792779
0 0.958122 0.0967097 -0.643655
0 0.958128 0.0974729 0.155709
0 0.958151 0.0955692 1.48863
0 0.958121 0.0937436 -0.497733
0 0.958123 0.134408 2.99595
0 0.958115 0.0928684 0.385295
0 0.958104 0.0961225 1.57505
0 0.958115 0.0949307 1.27762
0 0.958121 0.094214 0.8228
0 0.958101 0.0999471 3.19126
0 0.958138 0.0954282 -1.01506
0 0.958111 0.0937951 -0.436581
0 0.958143 0.0951453 -0.96005
0 0.958116 0.0933249 0.547675
0 0.958071 0.0943375 0.857743
0 0.958044 0.131113 6.59886
0 0.958119 0.0964524 0.513809
0 0.958119 0.096856 1.65609
0 0.958116 0.0938918 -0.0394374
0 0.958113 0.096174 0.612937
0 0.958122 0.0930996 -0.332347
0 0.958124 0.0941519 0.470199
0 0.958148 0.0952002 0.67124
0 0.958123 0.0959694 0.981871
0 0.958121 0.0948725 0.287174
0 0.958145 0.0962598 1.12717
0 0.958143 0.0952602 0.506248
0 0.958131 0.0925153 0.363753
0 0.958118 0.133415 3.25481
0 0.95812 0.0950887 -1.52496
0 0.958105 0.0943853 1.04542
0 0.958116 0.0953086 1.5743
0 0.958101 0.0941201 -0.183552
0 0.958101 0.0942441 -0.776304
0 0.958116 0.0948145 -0.406364
0 0.95811 0.0948362 1.34166
0 0.958138 0.0951126 -0.901428
0 0.95812 0.094822 1.63155
0 0.958124 0.0944172 1.63189
0 0.958119 0.0945555 1.22483
0 0.958089 0.092943 -0.664497
0 0.958066 0.131363 10.6198
0 0.958113 0.0960147 0.284115
0 0.958112 0.0940547 -0.0634567
0 0.958122 0.0929289 0.280073
0 0.958113 0.0937489 -0.0776573
0 0.958104 0.095999 0.822701
0 0.958108 0.0958656 0.596921
0 0.958143 0.0941458 0.0384204
0 0.958127 0.0943306 -0.391875
0 0.958133 0.0950852 0.278806
0 0.958135 0.0950584 -0.574067
0 0.958127 0.0946949 0.153642
0 0.95812 0.0936167 -0.591205
0 0.958125 0.0927621 0.367741
0 0.958136 0.134813 5.31646
0 0.958108 0.0945392 1.45847
0 0.958101 0.0957674 1.32582
0 0.958123 0.0933766 0.436565
0 0.958122 0.094292 1.75267
0 0.958124 0.0941747 -1.55433
0 0.958124 0.0941789 1.42936
0 0.958161 0.094655 -1.22307
0 0.958136 0.0935177 -0.800089
0 0.958091 0.134539 8.51854
0 0.958104 0.0972001 1.29932
0 0.958112 0.0955918 -0.382896
0 0.958113 0.0944848 -0.205758
0 0.958097 0.0963102 0.120307
0 0.958116 0.0943794 -0.103642
0 0.958137 0.0940108 0.592209
0 0.958128 0.0938524 1.25463
0 0.958124 0.0946186 -0.605339
0 0.95812 0.0943071 1.19797
0 0.958119 0.0932045 -0.00589352
0 0.958133 0.0931372 -0.663077
0 0.958121 0.132735 4.5033
0 0.958098 0.0936436 0.758241
0 0.958122 0.103012 -2.9957
0 0.958108 0.100593 -2.13634
0 0.958121 0.0934279 0.630606
0 0.958124 0.0981284 -1.75219
0 0.958163 0.0946406 -1.16725
0 0.958182 0.093912 -1.50631
0 0.958177 0.132292 0.662849
0 0.958107 0.0950084 0.397338
0 0.95811 0.0949841 0.0224483
0 0.958111 0.0947377 0.153991
0 0.958123 0.0966541 -0.455648
0 0.958119 0.0943196 1.66378
0 0.958105 0.0977667 -2.37036
0 0.958122 0.0953681 -0.0830838
0 0.958112 0.0964778 -0.188907
0 0.958105 0.0939852 -0.682395
0 0.958114 0.0946614 0.792184
0 0.958141 0.0942623 -0.802137
0 0.958158 0.13208 6.68792
0 0.958097 0.101094 2.17238
0 0.958103 0.0954043 2.13891
0 0.958121 0.0987043 2.58723
0 0.95814 0.0950572 2.03748
0 0.958147 0.0942487 -1.84688
0 0.958165 0.133 2.52745
0 0.95811 0.0940802 0.469617
0 0.958119 0.0950553 -0.158199
0 0.958091 0.0952761 -1.87516
0 0.958089 0.0962259 1.88958
0 0.958113 0.0963847 1.28749
0 0.958112 0.0947275 1.45806
0 0.95811 0.094319 -1.27127
0 0.958136 0.0940202 0.378048
0 0.958151 0.132658 1.88263
0 0.958101 0.0958659 1.75839
0 0.958121 0.0950737 -1.6822
0 0.958126 0.0941147 -0.0650234
0 0.958144 0.0937849 0.117498
0 0.958136 0.132919 2.92169
0 0.958116 0.095279 -0.542516
0 0.958087 0.0946382 0.0820306
0 0.9581 0.0952203 -0.829563
0 0.958133 0.0951111 0.924888
0 0.958124 0.0938638 1.00096
0 0.958121 0.0933629 -0.314871
0 0.958144 0.134004 6.04692
0 0.958109 0.094542 -1.12683
0 0.958118 0.094549 1.85051
0 0.958126 0.0946166 -1.59144
0 0.958156 0.132044 4.38328
0 0.958111 0.0943924 0.688963
0 0.958126 0.097519 0.552606
0 0.958118 0.0939742 0.0978248
0 0.958123 0.0967041 1.69406
0 0.958155 0.0955409 1.05804
0 0.958139 0.0948768 1.29973
0 0.958118 0.13187 6.60543
0 0.958132 0.0943675 1.1962
0 0.958108 0.0936102 -0.269817
0 0.958096 0.133657 8.67869
0 0.958161 0.0950631 2.13641
0 0.958174 0.0949192 0.0342561
0 0.95818 0.0957893 1.96613
0 0.958185 0.0942589 -0.533988
0 0.958165 0.131961 2.59875
0 0.95816 0.0941395 0.907902
0 0.958121 0.134679 1.32632
0 0.9582 0.0938709 0.753275
0 0.958213 0.0959853 1.0685
0 0.958208 0.129421 0.864721
0 0.958185 0.132068 1.17073
0 0.958216 0.131645 -0.511227
VECTORS fa_u float
0.00711349 0.00285399 -0
0.00651448 0.0037439 -0
0.00324277 0.000881297 -0
0.00709311 0.00108176 -0
1e-08 0 0
0.00522702 0.00402652 -0
0.0027719 0.002694 -0
1e-08 0 0
1e-08 0 0
0.00445335 0.0054773 -0
0.00501762 0.00845594 -0
0.00661328 0.0001214 -0
0.00623541 -0.000689866 0
1e-08 0 0
1e-08 0 0
1e-08 0 0
1e-08 0 0
1e-08 0 0
1e-08 0 0
1e-08 0 0
1e-08 0 0
0.00290112 0.00714393 -0
0.0015973 0.00623837 -0
1e-08 0 0
1e-08 0 0
1e-08 0 0
0.00858266 -0.00218183 0
1e-08 0 0
0.0103668 -0.00450997 0
1e-08 0 0
1e-08 0 0
1e-08 0 0
0.000858657 0.00725466 -0
1e-08 0 0
1e-08 0 0
1e-08 0 0
1e-08 0 0
1e-08 0 0
1e-08 0 0
1e-08 0 0
1e-08 0 0
1e-08 0 0
1e-08 0 0
-0.000151344 0.00749045 -0
1e-08 0 0
1e-08 0 0
1e-08 0 0
0.0056697 -0.00356883 0
1e-08 0 0
0.00294224 -0.00236099 0
1e-08 0 0
1e-08 0 0
1e-08 0 0
1e-08 0 0
1e-08 0 0
1e-08 0 0
1e-08 0 0
1e-08 0 0
1e-08 0 0
1e-08 0 0
1e-08 0 0
1e-08 0 0
1e-08 0 0
-0.000615196 0.00428879 0
1e-08 0 0
1e-08 0 0
1e-08 0 0
1e-08 0 0
1e-08 0 0
0.00334287 -0.00331138 0
1e-08 0 0
0.00292852 -0.00361524 0
1e-08 0 0
1e-08 0 0
1e-08 0 0
1e-08 0 0
1e-08 0 0
1e-08 0 0
1e-08 0 0
1e-08 0 0
1e-08 0 0
1e-08 0 0
1e-08 0 0
1e-08 0 0
1e-08 0 0
-0.00142598 0.0054708 0
1e-08 0 0
1e-08 0 0
1e-08 0 0
1e-08 0 0
1e-08 0 0
1e-08 0 0
0.00539524 -0.00890934 0
1e-08 0 0
1e-08 0 0
1e-08 0 0
1e-08 0 0
1e-08 0 0
0.00350157 -0.00864109 0
1e-08 0 0
1e-08 0 0
1e-08 0 0
1e-08 0 0
1e-08 0 0
1e-08 0 0
1e-08 0 0
1e-08 0 0
1e-08 0 0
1e-08 0 0
-0.0028456 0.00702562 0
1e-08 0 0
1e-08 0 0
1e-08 0 0
1e-08 0 0
1e-08 0 0
1e-08 0 0
1e-08 0 0
1e-08 0 0
1e-08 0 0
1e-08 0 0
1e-08 0 0
1e-08 0 0
1e-08 0 0
1e-08 0 0
0.00138621 -0.00548978 0
1e-08 0 0
1e-08 0 0
1e-08 0 0
1e-08 0 0
1e-08 0 0
1e-08 0 0
1e-08 0 0
1e-08 0 0
1e-08 0 0
-0.00367499 0.00636653 0
1e-08 0 0
1e-08 0 0
1e-08 0 0
1e-08 0 0
1e-08 0 0
1e-08 0 0
1e-08 0 0
1e-08 0 0
1e-08 0 0
1e-08 0 0
1e-08 0 0
1e-08 0 0
1e-08 0 0
1e-08 0 0
1e-08 0 0
0.000561595 -0.0041187 0
1e-08 0 0
1e-08 0 0
1e-08 0 0
1e-08 0 0
1e-08 0 0
1e-08 0 0
1e-08 0 0
1e-08 0 0
1e-08 0 0
1e-08 0 0
-0.00456128 0.00586093 0
1e-08 0 0
1e-08 0 0
1e-08 0 0
1e-08 0 0
1e-08 0 0
1e-08 0 0
1e-08 0 0
1e-08 0 0
1e-08 0 0
1e-08 0 0
1e-08 0 0
1e-08 0 0
0.000102512 -0.00759206 0
1e-08 0 0
1e-08 0 0
1e-08 0 0
1e-08 0 0
1e-08 0 0
1e-08 0 0
1e-08 0 0
1e-08 0 0
1e-08 0 0
1e-08 0 0
1e-08 0 0
1e-08 0 0
-0.00246303 0.00250098 0
1e-08 0 0
1e-08 0 0
1e-08 0 0
1e-08 0 0
1e-08 0 0
1e-08 0 0
1e-08 0 0
1e-08 0 0
1e-08 0 0
1e-08 0 0
1e-08 0 0
1e-08 0 0
1e-08 0 0
-0.000862161 -0.0069406 0
1e-08 0 0
1e-08 0 0
1e-08 0 0
1e-08 0 0
1e-08 0 0
1e-08 0 0
1e-08 0 0
1e-08 0 0
-0.00487413 0.00395975 0
1e-08 0 0
1e-08 0 0
1e-08 0 0
1e-08 0 0
1e-08 0 0
1e-08 0 0
1e-08 0 0
1e-08 0 0
1e-08 0 0
1e-08 0 0
1e-08 0 0
-0.00160505 -0.00615957 0
1e-08 0 0
1e-08 0 0
1e-08 0 0
1e-08 0 0
1e-08 0 0
1e-08 0 0
1e-08 0 0
-0.00831929 0.0049814 0
1e-08 0 0
1e-08 0 0
1e-08 0 0
1e-08 0 0
1e-08 0 0
1e-08 0 0
1e-08 0 0
1e-08 0 0
1e-08 0 0
1e-08 0 0
1e-08 0 0
-0.00297282 -0.00723243 0
1e-08 0 0
1e-08 0 0
1e-08 0 0
1e-08 0 0
1e-08 0 0
-0.0073678 0.0030202 0
1e-08 0 0
1e-08 0 0
1e-08 0 0
1e-08 0 0
1e-08 0 0
1e-08 0 0
1e-08 0 0
1e-08 0 0
-0.00481128 -0.0080552 0
1e-08 0 0
1e-08 0 0
1e-08 0 0
1e-08 0 0
-0.00621521 0.00160683 0
1e-08 0 0
1e-08 0 0
1e-08 0 0
1e-08 0 0
1e-08 0 0
1e-08 0 0
-0.00364961 -0.00453631 0
1e-08 0 0
1e-08 0 0
1e-08 0 0
-0.00711164 0.00086275 0
1e-08 0 0
1e-08 0 0
1e-08 0 0
1e-08 0 0
1e-08 0 0
1e-08 0 0
-0.00284694 -0.00282563 0
1e-08 0 0
1e-08 0 0
-0.00815511 -0.00015877 0
1e-08 0 0
1e-08 0 0
1e-08 0 0
1e-08 0 0
-0.00580796 -0.00452877 0
1e-08 0 0
-0.00391563 -0.000562368 0
1e-08 0 0
1e-08 0 0
-0.00663365 -0.00382745 0
-0.00554911 -0.00143597 0
-0.00699997 -0.00282349 0
