# vtk DataFile Version 2.0
CellBP Time: 5.56
ASCII
DATASET UNSTRUCTURED_GRID
POINTS 296 double
-8.99411 -3.68625 0
-8.43158 -4.84229 0
-9.39047 -2.46104 0
-9.66291 -1.22146 0
-8.14983 -2.7325 0
-7.71367 -5.91276 0
-6.8627 -6.8806 0
-7.70979 -3.7613 0
-7.14575 -4.73892 0
-5.92578 -7.74697 0
-4.88543 -8.47824 0
-9.76601 0.0399876 0
-9.70453 1.32216 0
-8.46505 -1.63318 0
-8.61681 -0.510273 0
-7.39285 -1.93271 0
-7.02231 -2.80765 0
-6.48004 -5.65512 0
-5.7051 -6.47429 0
-6.59382 -3.77112 0
-6.0521 -4.55563 0
-3.73086 -9.04586 0
-2.49997 -9.44952 0
-4.82192 -7.19254 0
-3.86357 -7.77403 0
-8.63176 0.630854 0
-9.47725 2.60096 0
-8.48024 1.73768 0
-9.06506 3.82192 0
-7.5646 -0.893 0
-7.62743 0.0873882 0
-6.77928 -1.26598 0
-1.22554 -9.69027 0
-6.28231 -2.0851 0
-6.15453 -2.96576 0
-5.40373 -5.35882 0
-4.6928 -6.00356 0
-5.51243 -3.66026 0
-5.12982 -4.45527 0
-2.82946 -8.24003 0
-1.75319 -8.50203 0
-3.85889 -6.61468 0
-3.02142 -7.04809 0
0.0541655 -9.75534 0
-7.54988 1.1208 0
-8.21914 2.87217 0
-7.40926 2.06111 0
-8.45882 4.9535 0
-7.7439 3.89989 0
-7.70652 5.99983 0
-6.62399 -0.374558 0
-6.80245 0.548986 0
-5.65186 -0.977356 0
-0.581998 -8.65384 0
0.547995 -8.59434 0
-5.1874 -2.41783 0
-4.37876 -4.98859 0
-3.81873 -5.67074 0
-4.34146 -3.72857 0
-2.03222 -7.44437 0
-1.11918 -7.65747 0
-2.94302 -5.99942 0
-2.27973 -6.51807 0
1.32009 -9.64454 0
-6.55363 1.38869 0
-7.02713 3.0441 0
-6.52706 2.31947 0
-7.14881 4.88046 0
-6.58459 3.91112 0
-6.86056 6.95473 0
-6.43209 5.76431 0
-5.90871 7.81301 0
-4.38925 -1.16885 0
-5.70733 0.495657 0
-4.59135 -0.0249982 0
-0.00189996 -7.6911 0
1.69101 -8.44554 0
0.912167 -7.59098 0
-3.97685 -2.36625 0
-3.46186 -1.3818 0
-3.23329 -4.72216 0
-3.22681 -3.21882 0
-1.36866 -6.55962 0
-0.51897 -6.88917 0
-1.95334 -5.45346 0
2.57638 -9.39651 0
-5.40735 2.00079 0
-5.97259 3.00099 0
-5.98234 4.75569 0
-5.64314 3.89307 0
-5.63379 6.56523 0
-5.33682 5.48642 0
-4.86757 8.55998 0
-4.72996 7.23172 0
-3.46842 -0.420777 0
-4.382 1.23174 0
-3.66451 0.58609 0
-3.99734 2.29839 0
-3.72218 9.13064 0
2.77761 -8.11661 0
0.382029 -6.64318 0
1.94914 -7.3349 0
1.24721 -6.73656 0
-2.42833 -0.864825 0
-2.81636 -2.11171 0
-2.27025 -4.04025 0
-2.30284 -2.93722 0
-0.449252 -5.75073 0
-1.20556 -4.43719 0
3.794 -8.99763 0
-4.69633 3.32252 0
-4.98267 4.484 0
-4.54712 6.1276 0
-4.44393 5.23259 0
-3.76936 7.83177 0
-3.73608 6.6732 0
-2.72383 8.24071 0
-1.63939 -0.126564 0
-1.43894 -0.879268 0
-2.47441 0.516131 0
-3.21357 1.43714 0
-3.18846 3.27169 0
-2.87477 2.36179 0
-1.35077 0.636676 0
-2.49694 9.52238 0
3.82157 -7.6812 0
2.86179 -6.95069 0
0.909846 -5.69236 0
1.9982 -6.24523 0
-1.66724 -1.97898 0
-1.41881 -3.24142 0
0.0824566 -4.66879 0
-0.557025 -3.65065 0
4.80554 -7.12483 0
4.94346 -8.43507 0
-3.70395 4.45953 0
-3.65492 5.61981 0
-2.81559 7.11445 0
-2.94393 6.20716 0
-1.62878 8.5607 0
-1.89203 7.45548 0
-2.30729 3.99146 0
-0.722917 -1.32027 0
-0.831997 -0.248267 0
-1.93162 1.68975 0
-2.10703 2.86025 0
-1.29731 3.51417 0
-0.871888 1.35987 0
-0.284933 0.463201 0
-0.526619 8.71031 0
-1.23161 9.76356 0
1.07814 -4.48337 0
3.78467 -6.50616 0
2.89265 -5.91991 0
2.05084 -5.28631 0
4.65931 -6.02253 0
-0.549438 -2.46052 0
0.491672 -3.423 0
0.0579429 -1.60383 0
1.45159 -3.6134 0
5.73364 -6.44564 0
6.01135 -7.71741 0
-2.42801 5.2415 0
-2.07645 6.39074 0
-0.87759 7.65463 0
-1.23061 6.78671 0
0.093925 7.7457 0
-1.13135 4.43307 0
0.148579 -0.61181 0
-0.806461 2.49403 0
-0.342057 3.57983 0
0.0548079 1.51577 0
0.73526 0.47466 0
0.633214 8.73069 0
0.0438889 9.86783 0
2.32013 -4.18491 0
3.75122 -5.47313 0
2.91879 -5.07126 0
5.45393 -5.34622 0
4.57613 -5.12383 0
0.631118 -2.28505 0
1.24056 -2.91494 0
0.757627 -1.38863 0
2.12552 -3.08134 0
2.93698 -3.40344 0
6.0414 -4.68153 0
6.52672 -5.64211 0
6.9726 -6.8586 0
-0.994805 5.71503 0
-0.350172 6.75387 0
1.10832 7.65085 0
0.562912 6.95906 0
-0.00250482 4.66978 0
0.596249 3.79513 0
1.33255 -0.642656 0
0.525755 2.6418 0
0.952859 1.57573 0
1.8969 0.208792 0
1.60211 1.06043 0
2.10412 7.4734 0
1.77501 8.5808 0
1.33089 9.79454 0
3.73994 -4.23823 0
5.01023 -4.32171 0
5.74389 -3.84023 0
3.71864 -3.12892 0
1.79965 -1.87738 0
2.97691 -2.53585 0
6.67491 -3.86873 0
7.25869 -4.80774 0
7.83776 -5.91604 0
0.482367 5.78997 0
1.41457 6.63941 0
2.34598 6.57548 0
1.19268 4.5028 0
1.46945 3.36314 0
2.41453 -0.690428 0
2.80219 0.140943 0
1.77133 2.15217 0
2.59472 1.14249 0
3.03463 7.06988 0
2.87108 8.25437 0
2.60227 9.54822 0
4.82631 -3.24592 0
6.02464 -3.04225 0
4.11382 -2.24027 0
3.2089 -1.49128 0
6.63652 -2.28056 0
7.13099 -2.99638 0
7.85355 -3.8575 0
8.57267 -4.87677 0
2.00263 5.52586 0
3.02811 6.05775 0
2.3398 4.07585 0
2.39787 3.02802 0
3.48793 -0.454349 0
3.57991 0.613178 0
2.93228 2.26513 0
3.50037 1.50962 0
3.92579 5.79683 0
3.91656 6.68806 0
3.92467 7.82763 0
3.83044 9.14132 0
5.49321 -1.88716 0
4.45414 -1.11297 0
6.61448 -1.31604 0
7.48462 -2.00772 0
8.27429 -2.82183 0
9.14377 -3.72613 0
3.34616 4.79416 0
3.2829 3.33315 0
4.63062 0.134047 0
4.44336 1.28676 0
3.98628 2.39828 0
4.4545 5.04886 0
4.73996 6.08285 0
4.89796 7.25532 0
4.98061 8.56973 0
5.7882 -0.436022 0
6.89246 -0.487157 0
7.64316 -1.06302 0
8.55243 -1.71612 0
9.5492 -2.49623 0
4.44424 3.74998 0
5.69993 1.06154 0
5.24296 2.47216 0
5.23281 4.51444 0
5.47556 5.41142 0
5.78094 6.54571 0
6.02023 7.83771 0
6.70867 0.437246 0
7.71738 -0.0272061 0
8.71525 -0.565601 0
9.79343 -1.22281 0
6.80548 1.30042 0
5.56449 3.68451 0
6.38007 2.1256 0
6.2073 2.99895 0
6.12179 4.57278 0
6.5349 5.71331 0
6.96787 6.97894 0
7.62999 0.938201 0
8.69284 0.564443 0
9.86256 0.060827 0
7.44045 1.94498 0
6.62682 3.78866 0
7.07732 2.85657 0
7.20069 4.77123 0
7.82651 6.01863 0
8.53502 1.68879 0
9.74909 1.32632 0
8.21416 2.76298 0
7.79067 3.82208 0
8.54488 4.9526 0
9.50326 2.58422 0
9.10573 3.80205 0
CELLS 542 2168
3 2 0 4
3 0 1 7
3 4 0 7
3 1 5 8
3 7 1 8
3 3 2 13
3 13 2 4
3 11 3 14
3 14 3 13
3 13 4 15
3 4 7 16
3 15 4 16
3 5 6 17
3 8 5 17
3 6 9 18
3 17 6 18
3 7 8 19
3 16 7 19
3 8 17 20
3 19 8 20
3 9 10 23
3 18 9 23
3 10 21 24
3 23 10 24
3 12 11 25
3 25 11 14
3 26 12 27
3 27 12 25
3 14 13 29
3 29 13 15
3 25 14 30
3 30 14 29
3 29 15 31
3 15 16 33
3 31 15 33
3 16 19 34
3 33 16 34
3 17 18 35
3 20 17 35
3 18 23 36
3 35 18 36
3 19 20 37
3 34 19 37
3 20 35 38
3 37 20 38
3 21 22 39
3 24 21 39
3 22 32 40
3 39 22 40
3 23 24 41
3 36 23 41
3 24 39 42
3 41 24 42
3 27 25 44
3 44 25 30
3 28 26 45
3 45 26 27
3 45 27 46
3 46 27 44
3 47 28 48
3 48 28 45
3 30 29 50
3 50 29 31
3 44 30 51
3 51 30 50
3 50 31 52
3 31 33 52
3 32 43 53
3 40 32 53
3 53 43 54
3 33 34 55
3 34 37 55
3 33 55 52
3 35 36 56
3 38 35 56
3 36 41 57
3 56 36 57
3 37 38 58
3 38 56 58
3 37 58 55
3 39 40 59
3 42 39 59
3 40 53 60
3 59 40 60
3 41 42 61
3 57 41 61
3 42 59 62
3 61 42 62
3 43 63 54
3 46 44 64
3 64 44 51
3 48 45 65
3 65 45 46
3 65 46 66
3 66 46 64
3 49 47 67
3 67 47 48
3 67 48 68
3 68 48 65
3 69 49 70
3 70 49 67
3 52 55 72
3 64 51 73
3 51 50 73
3 50 52 73
3 73 52 74
3 74 52 72
3 53 54 75
3 60 53 75
3 54 63 76
3 54 76 77
3 75 54 77
3 55 58 78
3 72 55 78
3 72 78 79
3 56 57 80
3 57 61 80
3 56 80 58
3 58 80 81
3 78 58 81
3 59 60 82
3 62 59 82
3 60 75 83
3 82 60 83
3 61 62 84
3 62 82 84
3 61 84 80
3 63 85 76
3 66 64 86
3 64 73 86
3 68 65 87
3 87 65 66
3 87 66 86
3 70 67 88
3 88 67 68
3 88 68 89
3 89 68 87
3 71 69 90
3 90 69 70
3 90 70 91
3 91 70 88
3 92 71 93
3 93 71 90
3 74 72 94
3 94 72 79
3 86 73 95
3 95 73 74
3 95 74 96
3 96 74 94
3 97 86 95
3 76 85 99
3 75 77 100
3 83 75 100
3 76 99 101
3 77 76 101
3 77 101 102
3 100 77 102
3 94 79 103
3 78 81 104
3 79 78 104
3 79 104 103
3 80 84 105
3 81 80 105
3 81 105 106
3 104 81 106
3 82 83 107
3 83 100 107
3 82 107 84
3 84 107 108
3 105 84 108
3 85 109 99
3 89 87 110
3 87 86 110
3 110 86 97
3 91 88 111
3 111 88 89
3 111 89 110
3 93 90 112
3 112 90 91
3 112 91 113
3 113 91 111
3 98 92 114
3 114 92 93
3 114 93 115
3 115 93 112
3 116 98 114
3 117 103 118
3 96 94 119
3 94 103 119
3 119 103 117
3 97 95 120
3 120 95 96
3 120 96 119
3 121 110 97
3 121 97 122
3 122 97 120
3 123 119 117
3 124 98 116
3 99 109 125
3 99 125 126
3 101 99 126
3 100 102 127
3 100 127 107
3 101 126 128
3 102 101 128
3 102 128 127
3 104 106 129
3 104 129 103
3 103 129 118
3 105 108 130
3 106 105 130
3 106 130 129
3 107 127 131
3 108 107 131
3 108 131 132
3 108 132 130
3 109 134 125
3 125 134 133
3 113 111 135
3 111 110 135
3 135 110 121
3 115 112 136
3 136 112 113
3 136 113 135
3 116 114 137
3 137 114 115
3 137 115 138
3 138 115 136
3 139 124 116
3 139 116 140
3 140 116 137
3 141 135 121
3 118 129 142
3 118 142 143
3 117 118 143
3 123 117 143
3 122 120 144
3 120 119 144
3 144 119 123
3 141 121 145
3 145 121 122
3 145 122 144
3 146 141 145
3 147 144 123
3 147 123 148
3 143 148 123
3 150 124 139
3 149 150 139
3 131 127 151
3 125 133 152
3 126 125 152
3 126 152 153
3 128 126 153
3 128 153 154
3 128 154 127
3 127 154 151
3 152 133 155
3 130 132 156
3 130 156 129
3 129 156 142
3 131 151 157
3 132 131 157
3 132 157 156
3 156 158 142
3 157 151 159
3 133 160 155
3 134 161 133
3 133 161 160
3 138 136 162
3 136 135 162
3 162 135 141
3 140 137 163
3 163 137 138
3 163 138 162
3 149 139 164
3 164 139 140
3 164 140 165
3 165 140 163
3 166 149 164
3 167 162 141
3 167 141 146
3 142 158 168
3 143 142 168
3 143 168 148
3 146 145 169
3 145 144 169
3 169 144 147
3 170 167 146
3 170 146 169
3 171 169 147
3 171 147 148
3 171 148 172
3 168 172 148
3 173 149 166
3 174 150 149
3 173 174 149
3 154 175 151
3 151 175 159
3 152 155 176
3 153 152 176
3 153 176 177
3 153 177 154
3 154 177 175
3 155 160 178
3 155 178 179
3 176 155 179
3 156 157 180
3 156 180 158
3 157 159 181
3 157 181 180
3 158 180 182
3 158 182 168
3 159 175 183
3 159 183 181
3 175 184 183
3 160 186 178
3 178 186 185
3 161 187 160
3 160 187 186
3 165 163 188
3 163 162 188
3 188 162 167
3 166 164 189
3 189 164 165
3 189 165 188
3 190 173 166
3 190 166 191
3 191 166 189
3 192 188 167
3 192 167 170
3 193 192 170
3 182 194 168
3 194 172 168
3 193 170 195
3 170 169 195
3 195 169 171
3 196 195 171
3 196 171 172
3 194 197 172
3 197 198 172
3 198 196 172
3 200 173 190
3 199 200 190
3 201 174 173
3 200 201 173
3 176 179 202
3 177 176 202
3 177 202 175
3 175 202 184
3 178 185 203
3 178 203 179
3 179 203 202
3 203 185 204
3 202 205 184
3 183 206 181
3 180 181 206
3 180 206 182
3 182 206 194
3 183 184 207
3 205 207 184
3 183 207 206
3 185 208 204
3 186 209 185
3 185 209 208
3 187 210 186
3 186 210 209
3 191 189 211
3 189 188 211
3 211 188 192
3 199 190 212
3 212 190 191
3 212 191 211
3 213 199 212
3 214 211 192
3 214 192 193
3 215 214 193
3 215 193 195
3 206 216 194
3 216 197 194
3 216 217 197
3 215 195 218
3 218 195 196
3 198 218 196
3 217 219 197
3 219 218 198
3 197 219 198
3 220 199 213
3 221 200 199
3 220 221 199
3 222 201 200
3 221 222 200
3 203 204 223
3 203 223 202
3 202 223 205
3 204 208 224
3 204 224 223
3 205 223 225
3 205 225 207
3 207 225 226
3 207 226 206
3 226 216 206
3 208 228 224
3 224 228 227
3 209 229 208
3 229 228 208
3 210 230 209
3 209 230 229
3 213 212 231
3 212 211 231
3 231 211 214
3 232 220 213
3 232 213 231
3 233 231 214
3 233 214 215
3 234 233 215
3 234 215 218
3 226 235 216
3 235 217 216
3 235 236 217
3 217 236 219
3 237 234 218
3 237 218 219
3 236 238 219
3 238 237 219
3 240 220 232
3 239 240 232
3 241 221 220
3 240 241 220
3 242 222 221
3 241 242 221
3 224 227 243
3 224 243 223
3 223 243 225
3 225 243 244
3 225 244 226
3 226 244 235
3 227 245 243
3 228 246 227
3 227 246 245
3 229 247 228
3 228 247 246
3 230 248 229
3 229 248 247
3 239 232 249
3 232 231 249
3 249 231 233
3 250 249 233
3 250 233 234
3 237 250 234
3 244 251 235
3 235 251 236
3 251 252 236
3 236 252 238
3 252 253 238
3 253 250 237
3 253 237 238
3 254 239 249
3 255 240 239
3 254 255 239
3 256 241 240
3 255 256 240
3 257 242 241
3 256 257 241
3 245 258 243
3 243 258 244
3 244 258 251
3 245 259 258
3 246 260 245
3 245 260 259
3 247 261 246
3 246 261 260
3 248 262 247
3 247 262 261
3 254 249 263
3 263 249 250
3 253 263 250
3 258 264 251
3 251 264 252
3 264 265 252
3 265 263 253
3 252 265 253
3 266 254 263
3 267 255 254
3 266 267 254
3 268 256 255
3 267 268 255
3 269 257 256
3 268 269 256
3 259 270 258
3 270 264 258
3 260 271 259
3 259 271 270
3 261 272 260
3 260 272 271
3 262 273 261
3 273 272 261
3 270 274 264
3 275 266 263
3 275 263 265
3 274 276 264
3 276 265 264
3 276 277 265
3 277 275 265
3 278 267 266
3 275 278 266
3 279 268 267
3 278 279 267
3 280 269 268
3 279 280 268
3 271 281 270
3 270 281 274
3 272 282 271
3 271 282 281
3 273 283 272
3 272 283 282
3 281 284 274
3 274 284 276
3 285 278 275
3 277 285 275
3 284 286 276
3 286 285 277
3 276 286 277
3 287 279 278
3 285 287 278
3 288 280 279
3 287 288 279
3 282 289 281
3 281 289 284
3 283 290 282
3 282 290 289
3 289 291 284
3 284 291 286
3 291 292 286
3 292 287 285
3 286 292 285
3 293 288 287
3 292 293 287
3 290 294 289
3 289 294 291
3 294 295 291
3 295 293 292
3 291 295 292
CELL_TYPES 542
5
5
5
5
5
5
5
5
5
5
5
5
5
5
5
5
5
5
5
5
5
5
5
5
5
5
5
5
5
5
5
5
5
5
5
5
5
5
5
5
5
5
5
5
5
5
5
5
5
5
5
5
5
5
5
5
5
5
5
5
5
5
5
5
5
5
5
5
5
5
5
5
5
5
5
5
5
5
5
5
5
5
5
5
5
5
5
5
5
5
5
5
5
5
5
5
5
5
5
5
5
5
5
5
5
5
5
5
5
5
5
5
5
5
5
5
5
5
5
5
5
5
5
5
5
5
5
5
5
5
5
5
5
5
5
5
5
5
5
5
5
5
5
5
5
5
5
5
5
5
5
5
5
5
5
5
5
5
5
5
5
5
5
5
5
5
5
5
5
5
5
5
5
5
5
5
5
5
5
5
5
5
5
5
5
5
5
5
5
5
5
5
5
5
5
5
5
5
5
5
5
5
5
5
5
5
5
5
5
5
5
5
5
5
5
5
5
5
5
5
5
5
5
5
5
5
5
5
5
5
5
5
5
5
5
5
5
5
5
5
5
5
5
5
5
5
5
5
5
5
5
5
5
5
5
5
5
5
5
5
5
5
5
5
5
5
5
5
5
5
5
5
5
5
5
5
5
5
5
5
5
5
5
5
5
5
5
5
5
5
5
5
5
5
5
5
5
5
5
5
5
5
5
5
5
5
5
5
5
5
5
5
5
5
5
5
5
5
5
5
5
5
5
5
5
5
5
5
5
5
5
5
5
5
5
5
5
5
5
5
5
5
5
5
5
5
5
5
5
5
5
5
5
5
5
5
5
5
5
5
5
5
5
5
5
5
5
5
5
5
5
5
5
5
5
5
5
5
5
5
5
5
5
5
5
5
5
5
5
5
5
5
5
5
5
5
5
5
5
5
5
5
5
5
5
5
5
5
5
5
5
5
5
5
5
5
5
5
5
5
5
5
5
5
5
5
5
5
5
5
5
5
5
5
5
5
5
5
5
5
5
5
5
5
5
5
5
5
5
5
5
5
5
5
5
5
5
5
5
5
5
5
5
5
5
5
5
5
5
5
5
5
5
5
5
5
5
5
5
5
5
5
5
5
5
5
5
5
5
5
5
5
5
5
5
5
5
5
5
5
5
5
5
5
5
5
5
5
5
5
5
5
5
5
5
5
5
5
5
5
5
5
5
5
5
5
5
5
5
5
5
5
5
5
5
5
5
5
5
5
5
5
POINT_DATA 296
SCALARS concentrations float 4
LOOKUP_TABLE default
0 0.962751 0.144018 0.987722
0 0.962798 0.144538 7.85912
0 0.962694 0.146514 4.08243
0 0.962687 0.14578 4.49533
0 0.962707 0.0937268 -0.416414
0 0.962698 0.146892 4.17704
0 0.962615 0.143719 3.52278
0 0.962758 0.0933349 -0.0993112
0 0.962741 0.0959445 0.454646
0 0.962605 0.144099 13.3158
0 0.962677 0.145837 7.2924
0 0.962759 0.144825 5.94021
0 0.96275 0.144113 6.52081
0 0.962679 0.093056 -0.191911
0 0.962704 0.0937027 0.108986
0 0.962674 0.0937594 0.153751
0 0.96269 0.0938228 -0.267265
0 0.962669 0.092601 0.267174
0 0.962631 0.092551 -0.403262
0 0.962698 0.0930027 0.132354
0 0.962693 0.0934611 0.457363
0 0.962738 0.147915 7.43973
0 0.962685 0.143158 0.710193
0 0.962647 0.0928949 -0.52926
0 0.962704 0.0936732 -0.555225
0 0.962724 0.0936783 -0.247914
0 0.962701 0.147146 3.85771
0 0.962691 0.0939248 -0.207716
0 0.962676 0.145246 12.7002
0 0.962667 0.093588 0.0123245
0 0.962663 0.0944772 -0.195807
0 0.962646 0.0934491 -0.0280296
0 0.962605 0.143825 9.94638
0 0.962652 0.0934592 0.0257556
0 0.962663 0.0936393 -0.126307
0 0.962675 0.0937129 0.237638
0 0.96266 0.0936761 0.0525156
0 0.962662 0.0936933 -0.146894
0 0.962661 0.0939083 0.0289585
0 0.962713 0.0931872 0.246022
0 0.962655 0.0933536 -1.04477
0 0.962669 0.0939716 0.620918
0 0.96269 0.0950296 1.15385
0 0.962633 0.147518 4.45285
0 0.962653 0.0938419 -0.151898
0 0.962666 0.0938843 0.04164
0 0.962644 0.0978481 0.657859
0 0.962641 0.146366 10.722
0 0.962643 0.0943743 -0.272116
0 0.962608 0.147727 9.43491
0 0.962641 0.0935908 -0.124386
0 0.962644 0.0938797 -0.181542
0 0.962642 0.093819 0.0800553
0 0.962629 0.0929293 -0.743229
0 0.962655 0.0928491 -0.806959
0 0.962652 0.0938036 -0.0971644
0 0.962646 0.0936237 0.239026
0 0.962649 0.0939698 0.310339
0 0.962644 0.0934634 0.0609259
0 0.962687 0.0946211 1.10953
0 0.96267 0.0943258 0.84862
0 0.962659 0.103346 2.25071
0 0.962672 0.0945941 -0.303966
0 0.962693 0.145958 10.2547
0 0.962648 0.0938134 -0.259194
0 0.962632 0.0953167 -0.683534
0 0.96264 0.0987244 -1.20497
0 0.962617 0.0937838 -0.205537
0 0.962622 0.0938849 -0.168128
0 0.962589 0.143703 14.2033
0 0.962597 0.0941335 -0.0604691
0 0.962596 0.145864 11.7901
0 0.962657 0.0954661 -0.263414
0 0.962648 0.0967725 -0.497473
0 0.962651 0.0941087 0.256433
0 0.962651 0.0931852 -0.786814
0 0.962693 0.093148 0.618865
0 0.962641 0.0932487 0.0470419
0 0.962658 0.0945039 0.27198
0 0.962677 0.0986801 -0.916127
0 0.962646 0.100343 -1.27166
0 0.962654 0.0949216 -0.447576
0 0.962664 0.0945553 0.261559
0 0.962655 0.0936624 0.488115
0 0.962655 0.0949983 -0.441781
0 0.962751 0.144553 8.33523
0 0.962651 0.0960134 0.456431
0 0.962639 0.0955159 -0.262649
0 0.962619 0.0937705 -0.15685
0 0.962637 0.0945739 -0.377497
0 0.962612 0.0938224 -0.729672
0 0.962629 0.0935947 -0.0255504
0 0.962552 0.143004 5.72886
0 0.962609 0.0949563 0.0877202
0 0.962668 0.0968271 -1.63747
0 0.962655 0.0945126 -1.04919
0 0.962662 0.0957569 -0.527651
0 0.962647 0.0964306 -0.314749
0 0.962599 0.142748 8.62706
0 0.962702 0.0943012 0.420092
0 0.962644 0.0935731 0.373895
0 0.962649 0.0958984 1.3136
0 0.96264 0.0935807 1.0682
0 0.962675 0.0970258 1.04219
0 0.962671 0.0968995 -2.10568
0 0.962664 0.0939739 0.820097
0 0.962666 0.0945446 0.132232
0 0.962648 0.0945371 0.816765
0 0.962658 0.0965072 -1.39528
0 0.962674 0.144169 4.13156
0 0.962639 0.0943322 -0.477641
0 0.962637 0.0947712 -0.501467
0 0.962644 0.094337 -0.0928166
0 0.962644 0.0946441 -1.00467
0 0.96261 0.0958529 -0.593694
0 0.962661 0.0948729 -1.03843
0 0.962645 0.0945924 -0.785117
0 0.962664 0.0944076 0.28446
0 0.962674 0.0936864 -0.00282573
0 0.962662 0.0962098 0.79367
0 0.962661 0.0948147 -0.909573
0 0.962645 0.0944316 0.0823994
0 0.962672 0.0995066 0.505224
0 0.962668 0.0951821 1.13631
0 0.962627 0.144492 16.7839
0 0.962631 0.0946886 1.77128
0 0.962659 0.0954752 -0.627035
0 0.962647 0.0925048 0.308259
0 0.962647 0.0942652 0.704601
0 0.962669 0.0951014 -0.186101
0 0.962669 0.0944056 0.488542
0 0.962654 0.094504 -1.32708
0 0.962672 0.0950751 -0.926461
0 0.962618 0.102321 1.64362
0 0.96258 0.14144 13.5895
0 0.962627 0.094877 1.43596
0 0.962639 0.0940343 -0.82495
0 0.962673 0.0954154 -0.815822
0 0.962658 0.0954196 1.74366
0 0.962647 0.0941174 -0.258099
0 0.962672 0.0957747 0.377917
0 0.962663 0.103571 3.54045
0 0.962679 0.094515 0.768631
0 0.962677 0.0945171 0.372276
0 0.96268 0.0982639 1.82018
0 0.962703 0.0990982 0.533226
0 0.962705 0.0953409 1.20628
0 0.962669 0.0991805 -0.419298
0 0.962679 0.093923 -0.497099
0 0.96266 0.0935936 -0.287795
0 0.96263 0.142974 0.808664
0 0.962654 0.0946321 0.592081
0 0.962655 0.0972621 2.59047
0 0.962657 0.0941281 -0.436237
0 0.962652 0.0948805 1.46551
0 0.962653 0.0941191 1.34085
0 0.962678 0.0996863 -1.84057
0 0.962672 0.0953062 -1.27976
0 0.962694 0.0959773 -1.27491
0 0.962657 0.0943278 -0.511275
0 0.96266 0.0939045 1.4083
0 0.962635 0.146801 7.58603
0 0.962644 0.0954698 1.4294
0 0.962662 0.0965889 1.10979
0 0.962671 0.0949476 0.159066
0 0.962665 0.0966156 -0.487369
0 0.962676 0.0941976 -0.110393
0 0.962667 0.0940745 -0.216615
0 0.96269 0.0945695 -0.40515
0 0.962684 0.095273 1.41874
0 0.962678 0.0964349 -0.0170876
0 0.962675 0.0954292 -0.418759
0 0.962686 0.0962438 -0.853337
0 0.962713 0.0945565 0.674667
0 0.962686 0.145734 9.15597
0 0.962658 0.0947565 -0.67494
0 0.962659 0.0945271 1.92739
0 0.962659 0.0947007 1.5598
0 0.962669 0.0949348 0.17484
0 0.962662 0.0948834 -0.255768
0 0.962692 0.0998557 -1.24434
0 0.962666 0.101078 1.37962
0 0.962701 0.0979786 -1.87631
0 0.962659 0.0938748 -0.0859334
0 0.962657 0.0937356 0.656259
0 0.962686 0.0941162 1.25752
0 0.962675 0.0933076 0.517525
0 0.962667 0.14581 6.47276
0 0.96266 0.0947757 -1.17996
0 0.962664 0.0949476 -0.115547
0 0.9627 0.0953824 -0.629715
0 0.962658 0.0957724 0.253018
0 0.962662 0.0949285 -0.235076
0 0.962671 0.0944323 0.961569
0 0.962689 0.101546 0.447629
0 0.962681 0.0942865 0.462174
0 0.962685 0.0939342 0.337315
0 0.962677 0.0955491 -0.371908
0 0.962688 0.0946862 -0.0817142
0 0.962713 0.0942948 -0.138837
0 0.962752 0.0946595 -0.709277
0 0.962765 0.143627 2.87369
0 0.962661 0.0946792 -0.849512
0 0.962669 0.0950344 1.03366
0 0.962671 0.0947108 1.30127
0 0.962652 0.0939464 -1.27321
0 0.962693 0.0965095 -2.13517
0 0.962674 0.097035 -2.48517
0 0.962692 0.0944052 -0.964084
0 0.962726 0.0934905 -0.20915
0 0.962701 0.145564 6.0879
0 0.962649 0.0972131 0.620373
0 0.962663 0.10149 -0.738477
0 0.962688 0.0961001 1.33282
0 0.962666 0.0952228 0.450672
0 0.962674 0.094186 -0.416306
0 0.962688 0.103238 0.841162
0 0.962667 0.0944549 -0.130309
0 0.962676 0.094324 0.452492
0 0.962672 0.100532 -0.0492178
0 0.962701 0.0953792 0.0511559
0 0.962704 0.0943566 -0.0608452
0 0.962756 0.144069 3.43961
0 0.962658 0.0952061 -1.68838
0 0.962661 0.0943573 -1.65048
0 0.962666 0.0981113 -0.94048
0 0.962702 0.0953143 -0.879935
0 0.962646 0.0958461 1.63237
0 0.962672 0.0943405 -1.04231
0 0.962739 0.0936439 -0.275099
0 0.962775 0.143467 0.171179
0 0.962658 0.100144 1.13833
0 0.962682 0.0955909 -0.213506
0 0.962665 0.0947987 -0.214395
0 0.96267 0.0949063 -0.298236
0 0.962681 0.0942224 -0.496503
0 0.962663 0.0945952 -0.124716
0 0.962664 0.0948561 0.0236537
0 0.962656 0.0942068 -0.141513
0 0.96269 0.0951705 -0.471637
0 0.962691 0.094358 0.0050427
0 0.962634 0.0944794 -0.606845
0 0.962632 0.142979 8.09934
0 0.96265 0.0952281 -2.18191
0 0.962674 0.0962855 -0.643318
0 0.962636 0.0981306 0.364161
0 0.96265 0.0942412 0.571304
0 0.962697 0.0936161 -0.720751
0 0.962746 0.146749 4.4955
0 0.962665 0.0970526 -1.3605
0 0.962663 0.0946022 -0.199764
0 0.962665 0.0942176 0.206461
0 0.962655 0.0933481 -0.382795
0 0.962662 0.0936408 -0.228084
0 0.962684 0.0947164 -0.11424
0 0.962696 0.0941807 -0.273512
0 0.962626 0.0934826 -0.221117
0 0.962572 0.143501 9.24921
0 0.96265 0.0947611 -1.21953
0 0.962642 0.0944237 -0.687056
0 0.962657 0.0938702 -0.14774
0 0.962703 0.0937231 -1.31545
0 0.96272 0.143514 8.80161
0 0.962661 0.0941404 -0.725934
0 0.962653 0.0933359 -0.635582
0 0.962656 0.0939686 0.446368
0 0.962669 0.0942182 0.544912
0 0.962689 0.0944998 0.0028898
0 0.962637 0.0935213 -0.226075
0 0.962583 0.145011 9.38161
0 0.962653 0.0937541 0.267716
0 0.962672 0.0936377 -0.61182
0 0.962736 0.0937386 -1.29037
0 0.96276 0.142116 3.35246
0 0.962662 0.0940445 1.01219
0 0.962655 0.0943992 -0.852047
0 0.962664 0.094146 0.846448
0 0.962652 0.09443 0.658867
0 0.962674 0.0943595 0.882028
0 0.962626 0.0942312 0.392302
0 0.962588 0.143357 9.3881
0 0.962687 0.0937538 0.642629
0 0.962739 0.0929865 -0.530002
0 0.962785 0.143811 4.56602
0 0.962699 0.0939928 0.607922
0 0.962675 0.104428 -3.81591
0 0.96269 0.0944491 0.534262
0 0.96263 0.0946014 0.406455
0 0.962583 0.141979 13.1887
0 0.962727 0.0931568 -0.314733
0 0.962753 0.144896 2.01465
0 0.962725 0.0941648 0.425009
0 0.962677 0.0938781 -0.531458
0 0.96261 0.140688 9.70571
0 0.962735 0.14151 -1.40478
0 0.962702 0.142204 5.93833
VECTORS fa_u float
0.00703597 0.00283327 -0
0.00637577 0.00366663 -0
0.00351089 0.000952639 -0
0.00706094 0.00106022 -0
1e-08 0 0
0.00521521 0.00401412 -0
0.00297125 0.00289623 -0
1e-08 0 0
1e-08 0 0
0.00438784 0.00543052 -0
0.00480434 0.00811856 -0
0.00655119 0.000107193 -0
0.00628054 -0.000708159 0
1e-08 0 0
1e-08 0 0
1e-08 0 0
1e-08 0 0
1e-08 0 0
1e-08 0 0
1e-08 0 0
1e-08 0 0
0.00285254 0.00700578 -0
0.00162301 0.00630993 -0
1e-08 0 0
1e-08 0 0
1e-08 0 0
0.00835046 -0.00213615 0
1e-08 0 0
0.00980406 -0.00424425 0
1e-08 0 0
1e-08 0 0
1e-08 0 0
0.000848249 0.00708445 -0
1e-08 0 0
1e-08 0 0
1e-08 0 0
1e-08 0 0
1e-08 0 0
1e-08 0 0
1e-08 0 0
1e-08 0 0
1e-08 0 0
1e-08 0 0
-0.0001337 0.00744313 -0
1e-08 0 0
1e-08 0 0
1e-08 0 0
0.00568462 -0.00354597 0
1e-08 0 0
0.0031401 -0.00250781 0
1e-08 0 0
1e-08 0 0
1e-08 0 0
1e-08 0 0
1e-08 0 0
1e-08 0 0
1e-08 0 0
1e-08 0 0
1e-08 0 0
1e-08 0 0
1e-08 0 0
1e-08 0 0
1e-08 0 0
-0.000637911 0.00448381 0
1e-08 0 0
1e-08 0 0
1e-08 0 0
1e-08 0 0
1e-08 0 0
0.00347783 -0.00344835 0
1e-08 0 0
0.00302989 -0.00376174 0
1e-08 0 0
1e-08 0 0
1e-08 0 0
1e-08 0 0
1e-08 0 0
1e-08 0 0
1e-08 0 0
1e-08 0 0
1e-08 0 0
1e-08 0 0
1e-08 0 0
1e-08 0 0
1e-08 0 0
-0.00145679 0.00557104 0
1e-08 0 0
1e-08 0 0
1e-08 0 0
1e-08 0 0
1e-08 0 0
1e-08 0 0
0.00513917 -0.00852812 0
1e-08 0 0
1e-08 0 0
1e-08 0 0
1e-08 0 0
1e-08 0 0
0.00340494 -0.00838718 0
1e-08 0 0
1e-08 0 0
1e-08 0 0
1e-08 0 0
1e-08 0 0
1e-08 0 0
1e-08 0 0
1e-08 0 0
1e-08 0 0
1e-08 0 0
-0.00281017 0.0069187 0
1e-08 0 0
1e-08 0 0
1e-08 0 0
1e-08 0 0
1e-08 0 0
1e-08 0 0
1e-08 0 0
1e-08 0 0
1e-08 0 0
1e-08 0 0
1e-08 0 0
1e-08 0 0
1e-08 0 0
1e-08 0 0
0.00139893 -0.00550491 0
1e-08 0 0
1e-08 0 0
1e-08 0 0
1e-08 0 0
1e-08 0 0
1e-08 0 0
1e-08 0 0
1e-08 0 0
1e-08 0 0
-0.00361954 0.0062691 0
1e-08 0 0
1e-08 0 0
1e-08 0 0
1e-08 0 0
1e-08 0 0
1e-08 0 0
1e-08 0 0
1e-08 0 0
1e-08 0 0
1e-08 0 0
1e-08 0 0
1e-08 0 0
1e-08 0 0
1e-08 0 0
1e-08 0 0
0.000596724 -0.00438905 0
1e-08 0 0
1e-08 0 0
1e-08 0 0
1e-08 0 0
1e-08 0 0
1e-08 0 0
1e-08 0 0
1e-08 0 0
1e-08 0 0
1e-08 0 0
-0.00448379 0.00577128 0
1e-08 0 0
1e-08 0 0
1e-08 0 0
1e-08 0 0
1e-08 0 0
1e-08 0 0
1e-08 0 0
1e-08 0 0
1e-08 0 0
1e-08 0 0
1e-08 0 0
1e-08 0 0
8.98482e-05 -0.00743163 0
1e-08 0 0
1e-08 0 0
1e-08 0 0
1e-08 0 0
1e-08 0 0
1e-08 0 0
1e-08 0 0
1e-08 0 0
1e-08 0 0
1e-08 0 0
1e-08 0 0
1e-08 0 0
-0.00267471 0.00271188 0
1e-08 0 0
1e-08 0 0
1e-08 0 0
1e-08 0 0
1e-08 0 0
1e-08 0 0
1e-08 0 0
1e-08 0 0
1e-08 0 0
1e-08 0 0
1e-08 0 0
1e-08 0 0
1e-08 0 0
-0.000864361 -0.00691903 0
1e-08 0 0
1e-08 0 0
1e-08 0 0
1e-08 0 0
1e-08 0 0
1e-08 0 0
1e-08 0 0
1e-08 0 0
-0.00490853 0.00396301 0
1e-08 0 0
1e-08 0 0
1e-08 0 0
1e-08 0 0
1e-08 0 0
1e-08 0 0
1e-08 0 0
1e-08 0 0
1e-08 0 0
1e-08 0 0
1e-08 0 0
-0.00160852 -0.00615501 0
1e-08 0 0
1e-08 0 0
1e-08 0 0
1e-08 0 0
1e-08 0 0
1e-08 0 0
1e-08 0 0
-0.00800674 0.00477504 0
1e-08 0 0
1e-08 0 0
1e-08 0 0
1e-08 0 0
1e-08 0 0
1e-08 0 0
1e-08 0 0
1e-08 0 0
1e-08 0 0
1e-08 0 0
1e-08 0 0
-0.00293381 -0.00713097 0
1e-08 0 0
1e-08 0 0
1e-08 0 0
1e-08 0 0
1e-08 0 0
-0.00723016 0.00296591 0
1e-08 0 0
1e-08 0 0
1e-08 0 0
1e-08 0 0
1e-08 0 0
1e-08 0 0
1e-08 0 0
1e-08 0 0
-0.00461793 -0.00775717 0
1e-08 0 0
1e-08 0 0
1e-08 0 0
1e-08 0 0
-0.00618766 0.00160582 0
1e-08 0 0
1e-08 0 0
1e-08 0 0
1e-08 0 0
1e-08 0 0
1e-08 0 0
-0.00368122 -0.0045987 0
1e-08 0 0
1e-08 0 0
1e-08 0 0
-0.00705074 0.000864029 0
1e-08 0 0
1e-08 0 0
1e-08 0 0
1e-08 0 0
1e-08 0 0
1e-08 0 0
-0.00304031 -0.0030189 0
1e-08 0 0
1e-08 0 0
-0.00798919 -0.000138972 0
1e-08 0 0
1e-08 0 0
1e-08 0 0
1e-08 0 0
-0.00569751 -0.00443412 0
1e-08 0 0
-0.00415229 -0.000591235 0
1e-08 0 0
1e-08 0 0
-0.00653546 -0.00377171 0
-0.00565146 -0.00146864 0
-0.00687001 -0.00277998 0
