# vtk DataFile Version 2.0
CellBP Time: 10.12
ASCII
DATASET UNSTRUCTURED_GRID
POINTS 296 double
-8.92709 -3.65513 0
-8.36993 -4.80506 0
-9.31607 -2.43461 0
-9.59385 -1.20937 0
-8.08271 -2.70616 0
-7.65488 -5.86925 0
-6.80798 -6.83161 0
-7.64522 -3.72479 0
-7.08468 -4.69704 0
-5.88601 -7.69874 0
-4.86089 -8.43109 0
-9.70287 0.037928 0
-9.64874 1.31174 0
-8.40336 -1.61912 0
-8.56148 -0.50393 0
-7.33211 -1.91307 0
-6.95896 -2.77437 0
-6.43132 -5.61528 0
-5.66522 -6.43315 0
-6.53234 -3.73558 0
-5.99807 -4.52013 0
-3.71296 -8.99449 0
-2.48556 -9.39282 0
-4.79268 -7.15046 0
-3.84498 -7.73512 0
-8.57795 0.630066 0
-9.43012 2.5884 0
-8.43563 1.72787 0
-9.02111 3.80294 0
-7.50809 -0.881147 0
-7.57793 0.089847 0
-6.72537 -1.25057 0
-1.2149 -9.62925 0
-6.23202 -2.06392 0
-6.09924 -2.93509 0
-5.36109 -5.31942 0
-4.6647 -5.96511 0
-5.4666 -3.62646 0
-5.08472 -4.42298 0
-2.81616 -8.19567 0
-1.74418 -8.45465 0
-3.83699 -6.58082 0
-3.00987 -7.01305 0
0.0555022 -9.68795 0
-7.5034 1.11447 0
-8.1815 2.85722 0
-7.36754 2.04725 0
-8.40679 4.92031 0
-7.69603 3.87657 0
-7.64718 5.95368 0
-6.57666 -0.36659 0
-6.75645 0.548416 0
-5.61434 -0.967115 0
-0.580787 -8.6013 0
0.542857 -8.53156 0
-5.15099 -2.39736 0
-4.34028 -4.95515 0
-3.79121 -5.63682 0
-4.31079 -3.70181 0
-2.02377 -7.40488 0
-1.11448 -7.61261 0
-2.92679 -5.96854 0
-2.26878 -6.48308 0
1.30861 -9.56988 0
-6.51183 1.38054 0
-6.98196 3.02382 0
-6.48861 2.3022 0
-7.10033 4.84545 0
-6.53997 3.88235 0
-6.8067 6.89907 0
-6.38637 5.72042 0
-5.86516 7.75547 0
-4.37042 -1.16626 0
-5.67387 0.49038 0
-4.56979 -0.02775 0
-0.00539832 -7.64634 0
1.67944 -8.38081 0
0.90077 -7.53645 0
-3.95613 -2.35192 0
-3.45328 -1.37905 0
-3.21426 -4.69766 0
-3.21311 -3.20447 0
-1.36479 -6.52141 0
-0.520318 -6.84711 0
-1.94548 -5.42713 0
2.55618 -9.32397 0
-5.3766 1.98902 0
-5.9368 2.97871 0
-5.94026 4.71989 0
-5.60538 3.86197 0
-5.59286 6.5153 0
-5.30026 5.44412 0
-4.83861 8.50777 0
-4.69752 7.17876 0
-3.45908 -0.419119 0
-4.35841 1.22396 0
-3.64746 0.584769 0
-3.97783 2.2933 0
-3.70285 9.07543 0
2.75375 -8.04933 0
0.371996 -6.59493 0
1.92882 -7.27605 0
1.23192 -6.68538 0
-2.42422 -0.860974 0
-2.80945 -2.10377 0
-2.2616 -4.01997 0
-2.29724 -2.9247 0
-0.451644 -5.71515 0
-1.20025 -4.41669 0
3.76611 -8.93274 0
-4.66656 3.29929 0
-4.94757 4.44804 0
-4.51335 6.07798 0
-4.41224 5.19043 0
-3.74633 7.78096 0
-3.70628 6.62043 0
-2.707 8.18535 0
-1.63451 -0.122356 0
-1.4332 -0.873386 0
-2.46895 0.517374 0
-3.20017 1.43404 0
-3.17204 3.25909 0
-2.86433 2.35767 0
-1.34952 0.638245 0
-2.48297 9.45835 0
3.7894 -7.61934 0
2.83211 -6.88841 0
0.895864 -5.65191 0
1.97671 -6.19082 0
-1.6608 -1.97296 0
-1.41419 -3.23082 0
0.0774228 -4.64133 0
-0.552568 -3.63561 0
4.76763 -7.06259 0
4.90789 -8.37576 0
-3.68169 4.42971 0
-3.63127 5.58111 0
-2.79439 7.06054 0
-2.92446 6.16005 0
-1.61907 8.50487 0
-1.87754 7.40417 0
-2.29644 3.97364 0
-0.720361 -1.31469 0
-0.828781 -0.24346 0
-1.92966 1.69455 0
-2.10136 2.85353 0
-1.29675 3.50398 0
-0.871025 1.36089 0
-0.284743 0.464306 0
-0.521201 8.65666 0
-1.22367 9.69419 0
1.06704 -4.45314 0
3.74443 -6.44103 0
2.86207 -5.86489 0
2.03038 -5.24356 0
4.61935 -5.96374 0
-0.547077 -2.4548 0
0.488195 -3.40785 0
0.0611584 -1.60063 0
1.44222 -3.59159 0
5.69072 -6.39046 0
5.96886 -7.6615 0
-2.41332 5.20813 0
-2.05959 6.34577 0
-0.870492 7.60765 0
-1.21947 6.73998 0
0.0922081 7.69982 0
-1.12524 4.41252 0
0.148014 -0.611806 0
-0.810124 2.49401 0
-0.34549 3.57093 0
0.0513063 1.51577 0
0.731454 0.473896 0
0.628458 8.68534 0
0.0417089 9.80424 0
2.30158 -4.15345 0
3.71999 -5.4242 0
2.89449 -5.02865 0
5.4166 -5.30427 0
4.54078 -5.07497 0
0.633639 -2.28269 0
1.23837 -2.90352 0
0.759281 -1.38706 0
2.11595 -3.06444 0
2.91851 -3.3799 0
6.00409 -4.64379 0
6.48302 -5.59905 0
6.92265 -6.80402 0
-0.988292 5.68162 0
-0.343118 6.71173 0
1.10258 7.61191 0
0.563458 6.92153 0
-0.0029649 4.65225 0
0.592316 3.78223 0
1.33123 -0.64212 0
0.521888 2.6367 0
0.949319 1.57706 0
1.89007 0.208164 0
1.5961 1.06043 0
2.09566 7.43604 0
1.76694 8.53629 0
1.32219 9.73437 0
3.71327 -4.20207 0
4.97821 -4.28311 0
5.70804 -3.80679 0
3.69923 -3.10751 0
1.79619 -1.87661 0
2.96515 -2.52334 0
6.63792 -3.84045 0
7.21557 -4.77481 0
7.7879 -5.8747 0
0.480469 5.76071 0
1.41005 6.60584 0
2.33746 6.54595 0
1.18815 4.48522 0
1.46245 3.35088 0
2.40694 -0.689535 0
2.79069 0.138422 0
1.76537 2.14906 0
2.58845 1.13802 0
3.02363 7.0392 0
2.85801 8.21311 0
2.58903 9.49129 0
4.79995 -3.22118 0
5.99245 -3.02361 0
4.09609 -2.22757 0
3.19599 -1.48828 0
6.60803 -2.27313 0
7.09789 -2.98046 0
7.81483 -3.83953 0
8.52463 -4.85113 0
1.9949 5.49991 0
3.008 6.02786 0
2.33267 4.06065 0
2.38943 3.01691 0
3.47567 -0.452264 0
3.56716 0.614207 0
2.92501 2.25697 0
3.48392 1.50428 0
3.89799 5.76367 0
3.89448 6.65317 0
3.90712 7.78602 0
3.8127 9.08884 0
5.46963 -1.87795 0
4.4365 -1.10749 0
6.58548 -1.30995 0
7.44849 -1.99801 0
8.23487 -2.81012 0
9.09298 -3.70843 0
3.322 4.77047 0
3.2659 3.31595 0
4.61028 0.133189 0
4.41795 1.27747 0
3.96288 2.38194 0
4.417 5.01597 0
4.70605 6.04797 0
4.86848 7.21823 0
4.95474 8.52013 0
5.75725 -0.43504 0
6.85414 -0.486812 0
7.60671 -1.05766 0
8.509 -1.70565 0
9.49342 -2.48263 0
4.41029 3.72352 0
5.66007 1.05188 0
5.20379 2.45062 0
5.18594 4.4793 0
5.43037 5.37533 0
5.74343 6.50239 0
5.97908 7.78769 0
6.66697 0.427362 0
7.67262 -0.0310897 0
8.66803 -0.559152 0
9.7337 -1.21306 0
6.75933 1.28428 0
5.51641 3.65402 0
6.32866 2.10014 0
6.15353 2.96785 0
6.0661 4.53558 0
6.4849 5.66808 0
6.91523 6.93066 0
7.57801 0.928858 0
8.63545 0.560147 0
9.79735 0.0630952 0
7.38767 1.92503 0
6.56391 3.75193 0
7.01413 2.82682 0
7.14397 4.7334 0
7.77265 5.97823 0
8.47901 1.67576 0
9.67525 1.31568 0
8.14375 2.74064 0
7.72948 3.79217 0
8.48782 4.91954 0
9.43267 2.56579 0
9.04292 3.77651 0
CELLS 542 2168
3 2 0 4
3 0 1 7
3 4 0 7
3 1 5 8
3 7 1 8
3 3 2 13
3 13 2 4
3 11 3 14
3 14 3 13
3 13 4 15
3 4 7 16
3 15 4 16
3 5 6 17
3 8 5 17
3 6 9 18
3 17 6 18
3 7 8 19
3 16 7 19
3 8 17 20
3 19 8 20
3 9 10 23
3 18 9 23
3 10 21 24
3 23 10 24
3 12 11 25
3 25 11 14
3 26 12 27
3 27 12 25
3 14 13 29
3 29 13 15
3 25 14 30
3 30 14 29
3 29 15 31
3 15 16 33
3 31 15 33
3 16 19 34
3 33 16 34
3 17 18 35
3 20 17 35
3 18 23 36
3 35 18 36
3 19 20 37
3 34 19 37
3 20 35 38
3 37 20 38
3 21 22 39
3 24 21 39
3 22 32 40
3 39 22 40
3 23 24 41
3 36 23 41
3 24 39 42
3 41 24 42
3 27 25 44
3 44 25 30
3 28 26 45
3 45 26 27
3 45 27 46
3 46 27 44
3 47 28 48
3 48 28 45
3 30 29 50
3 50 29 31
3 44 30 51
3 51 30 50
3 50 31 52
3 31 33 52
3 32 43 53
3 40 32 53
3 53 43 54
3 33 34 55
3 34 37 55
3 33 55 52
3 35 36 56
3 38 35 56
3 36 41 57
3 56 36 57
3 37 38 58
3 38 56 58
3 37 58 55
3 39 40 59
3 42 39 59
3 40 53 60
3 59 40 60
3 41 42 61
3 57 41 61
3 42 59 62
3 61 42 62
3 43 63 54
3 46 44 64
3 64 44 51
3 48 45 65
3 65 45 46
3 65 46 66
3 66 46 64
3 49 47 67
3 67 47 48
3 67 48 68
3 68 48 65
3 69 49 70
3 70 49 67
3 52 55 72
3 64 51 73
3 51 50 73
3 50 52 73
3 73 52 74
3 74 52 72
3 53 54 75
3 60 53 75
3 54 63 76
3 54 76 77
3 75 54 77
3 55 58 78
3 72 55 78
3 72 78 79
3 56 57 80
3 57 61 80
3 56 80 58
3 58 80 81
3 78 58 81
3 59 60 82
3 62 59 82
3 60 75 83
3 82 60 83
3 61 62 84
3 62 82 84
3 61 84 80
3 63 85 76
3 66 64 86
3 64 73 86
3 68 65 87
3 87 65 66
3 87 66 86
3 70 67 88
3 88 67 68
3 88 68 89
3 89 68 87
3 71 69 90
3 90 69 70
3 90 70 91
3 91 70 88
3 92 71 93
3 93 71 90
3 74 72 94
3 94 72 79
3 86 73 95
3 95 73 74
3 95 74 96
3 96 74 94
3 97 86 95
3 76 85 99
3 75 77 100
3 83 75 100
3 76 99 101
3 77 76 101
3 77 101 102
3 100 77 102
3 94 79 103
3 78 81 104
3 79 78 104
3 79 104 103
3 80 84 105
3 81 80 105
3 81 105 106
3 104 81 106
3 82 83 107
3 83 100 107
3 82 107 84
3 84 107 108
3 105 84 108
3 85 109 99
3 89 87 110
3 87 86 110
3 110 86 97
3 91 88 111
3 111 88 89
3 111 89 110
3 93 90 112
3 112 90 91
3 112 91 113
3 113 91 111
3 98 92 114
3 114 92 93
3 114 93 115
3 115 93 112
3 116 98 114
3 117 103 118
3 96 94 119
3 94 103 119
3 119 103 117
3 97 95 120
3 120 95 96
3 120 96 119
3 121 110 97
3 121 97 122
3 122 97 120
3 123 119 117
3 124 98 116
3 99 109 125
3 99 125 126
3 101 99 126
3 100 102 127
3 100 127 107
3 101 126 128
3 102 101 128
3 102 128 127
3 104 106 129
3 104 129 103
3 103 129 118
3 105 108 130
3 106 105 130
3 106 130 129
3 107 127 131
3 108 107 131
3 108 131 132
3 108 132 130
3 109 134 125
3 125 134 133
3 113 111 135
3 111 110 135
3 135 110 121
3 115 112 136
3 136 112 113
3 136 113 135
3 116 114 137
3 137 114 115
3 137 115 138
3 138 115 136
3 139 124 116
3 139 116 140
3 140 116 137
3 141 135 121
3 118 129 142
3 118 142 143
3 117 118 143
3 123 117 143
3 122 120 144
3 120 119 144
3 144 119 123
3 141 121 145
3 145 121 122
3 145 122 144
3 146 141 145
3 147 144 123
3 147 123 148
3 143 148 123
3 150 124 139
3 149 150 139
3 131 127 151
3 125 133 152
3 126 125 152
3 126 152 153
3 128 126 153
3 128 153 154
3 128 154 127
3 127 154 151
3 152 133 155
3 130 132 156
3 130 156 129
3 129 156 142
3 131 151 157
3 132 131 157
3 132 157 156
3 156 158 142
3 157 151 159
3 133 160 155
3 134 161 133
3 133 161 160
3 138 136 162
3 136 135 162
3 162 135 141
3 140 137 163
3 163 137 138
3 163 138 162
3 149 139 164
3 164 139 140
3 164 140 165
3 165 140 163
3 166 149 164
3 167 162 141
3 167 141 146
3 142 158 168
3 143 142 168
3 143 168 148
3 146 145 169
3 145 144 169
3 169 144 147
3 170 167 146
3 170 146 169
3 171 169 147
3 171 147 148
3 171 148 172
3 168 172 148
3 173 149 166
3 174 150 149
3 173 174 149
3 154 175 151
3 151 175 159
3 152 155 176
3 153 152 176
3 153 176 177
3 153 177 154
3 154 177 175
3 155 160 178
3 155 178 179
3 176 155 179
3 156 157 180
3 156 180 158
3 157 159 181
3 157 181 180
3 158 180 182
3 158 182 168
3 159 175 183
3 159 183 181
3 175 184 183
3 160 186 178
3 178 186 185
3 161 187 160
3 160 187 186
3 165 163 188
3 163 162 188
3 188 162 167
3 166 164 189
3 189 164 165
3 189 165 188
3 190 173 166
3 190 166 191
3 191 166 189
3 192 188 167
3 192 167 170
3 193 192 170
3 182 194 168
3 194 172 168
3 193 170 195
3 170 169 195
3 195 169 171
3 196 195 171
3 196 171 172
3 194 197 172
3 197 198 172
3 198 196 172
3 200 173 190
3 199 200 190
3 201 174 173
3 200 201 173
3 176 179 202
3 177 176 202
3 177 202 175
3 175 202 184
3 178 185 203
3 178 203 179
3 179 203 202
3 203 185 204
3 202 205 184
3 183 206 181
3 180 181 206
3 180 206 182
3 182 206 194
3 183 184 207
3 205 207 184
3 183 207 206
3 185 208 204
3 186 209 185
3 185 209 208
3 187 210 186
3 186 210 209
3 191 189 211
3 189 188 211
3 211 188 192
3 199 190 212
3 212 190 191
3 212 191 211
3 213 199 212
3 214 211 192
3 214 192 193
3 215 214 193
3 215 193 195
3 206 216 194
3 216 197 194
3 216 217 197
3 215 195 218
3 218 195 196
3 198 218 196
3 217 219 197
3 219 218 198
3 197 219 198
3 220 199 213
3 221 200 199
3 220 221 199
3 222 201 200
3 221 222 200
3 203 204 223
3 203 223 202
3 202 223 205
3 204 208 224
3 204 224 223
3 205 223 225
3 205 225 207
3 207 225 226
3 207 226 206
3 226 216 206
3 208 228 224
3 224 228 227
3 209 229 208
3 229 228 208
3 210 230 209
3 209 230 229
3 213 212 231
3 212 211 231
3 231 211 214
3 232 220 213
3 232 213 231
3 233 231 214
3 233 214 215
3 234 233 215
3 234 215 218
3 226 235 216
3 235 217 216
3 235 236 217
3 217 236 219
3 237 234 218
3 237 218 219
3 236 238 219
3 238 237 219
3 240 220 232
3 239 240 232
3 241 221 220
3 240 241 220
3 242 222 221
3 241 242 221
3 224 227 243
3 224 243 223
3 223 243 225
3 225 243 244
3 225 244 226
3 226 244 235
3 227 245 243
3 228 246 227
3 227 246 245
3 229 247 228
3 228 247 246
3 230 248 229
3 229 248 247
3 239 232 249
3 232 231 249
3 249 231 233
3 250 249 233
3 250 233 234
3 237 250 234
3 244 251 235
3 235 251 236
3 251 252 236
3 236 252 238
3 252 253 238
3 253 250 237
3 253 237 238
3 254 239 249
3 255 240 239
3 254 255 239
3 256 241 240
3 255 256 240
3 257 242 241
3 256 257 241
3 245 258 243
3 243 258 244
3 244 258 251
3 245 259 258
3 246 260 245
3 245 260 259
3 247 261 246
3 246 261 260
3 248 262 247
3 247 262 261
3 254 249 263
3 263 249 250
3 253 263 250
3 258 264 251
3 251 264 252
3 264 265 252
3 265 263 253
3 252 265 253
3 266 254 263
3 267 255 254
3 266 267 254
3 268 256 255
3 267 268 255
3 269 257 256
3 268 269 256
3 259 270 258
3 270 264 258
3 260 271 259
3 259 271 270
3 261 272 260
3 260 272 271
3 262 273 261
3 273 272 261
3 270 274 264
3 275 266 263
3 275 263 265
3 274 276 264
3 276 265 264
3 276 277 265
3 277 275 265
3 278 267 266
3 275 278 266
3 279 268 267
3 278 279 267
3 280 269 268
3 279 280 268
3 271 281 270
3 270 281 274
3 272 282 271
3 271 282 281
3 273 283 272
3 272 283 282
3 281 284 274
3 274 284 276
3 285 278 275
3 277 285 275
3 284 286 276
3 286 285 277
3 276 286 277
3 287 279 278
3 285 287 278
3 288 280 279
3 287 288 279
3 282 289 281
3 281 289 284
3 283 290 282
3 282 290 289
3 289 291 284
3 284 291 286
3 291 292 286
3 292 287 285
3 286 292 285
3 293 288 287
3 292 293 287
3 290 294 289
3 289 294 291
3 294 295 291
3 295 293 292
3 291 295 292
CELL_TYPES 542
5
5
5
5
5
5
5
5
5
5
5
5
5
5
5
5
5
5
5
5
5
5
5
5
5
5
5
5
5
5
5
5
5
5
5
5
5
5
5
5
5
5
5
5
5
5
5
5
5
5
5
5
5
5
5
5
5
5
5
5
5
5
5
5
5
5
5
5
5
5
5
5
5
5
5
5
5
5
5
5
5
5
5
5
5
5
5
5
5
5
5
5
5
5
5
5
5
5
5
5
5
5
5
5
5
5
5
5
5
5
5
5
5
5
5
5
5
5
5
5
5
5
5
5
5
5
5
5
5
5
5
5
5
5
5
5
5
5
5
5
5
5
5
5
5
5
5
5
5
5
5
5
5
5
5
5
5
5
5
5
5
5
5
5
5
5
5
5
5
5
5
5
5
5
5
5
5
5
5
5
5
5
5
5
5
5
5
5
5
5
5
5
5
5
5
5
5
5
5
5
5
5
5
5
5
5
5
5
5
5
5
5
5
5
5
5
5
5
5
5
5
5
5
5
5
5
5
5
5
5
5
5
5
5
5
5
5
5
5
5
5
5
5
5
5
5
5
5
5
5
5
5
5
5
5
5
5
5
5
5
5
5
5
5
5
5
5
5
5
5
5
5
5
5
5
5
5
5
5
5
5
5
5
5
5
5
5
5
5
5
5
5
5
5
5
5
5
5
5
5
5
5
5
5
5
5
5
5
5
5
5
5
5
5
5
5
5
5
5
5
5
5
5
5
5
5
5
5
5
5
5
5
5
5
5
5
5
5
5
5
5
5
5
5
5
5
5
5
5
5
5
5
5
5
5
5
5
5
5
5
5
5
5
5
5
5
5
5
5
5
5
5
5
5
5
5
5
5
5
5
5
5
5
5
5
5
5
5
5
5
5
5
5
5
5
5
5
5
5
5
5
5
5
5
5
5
5
5
5
5
5
5
5
5
5
5
5
5
5
5
5
5
5
5
5
5
5
5
5
5
5
5
5
5
5
5
5
5
5
5
5
5
5
5
5
5
5
5
5
5
5
5
5
5
5
5
5
5
5
5
5
5
5
5
5
5
5
5
5
5
5
5
5
5
5
5
5
5
5
5
5
5
5
5
5
5
5
5
5
5
5
5
5
5
5
5
5
5
5
5
5
5
5
5
5
5
5
5
5
5
5
5
5
5
5
5
5
5
5
5
5
5
5
5
5
5
5
5
5
5
5
5
5
5
5
5
5
5
5
5
5
5
POINT_DATA 296
SCALARS concentrations float 4
LOOKUP_TABLE default
0 0.94988 0.108562 2.39711
0 0.949879 0.111847 7.92818
0 0.949928 0.111285 3.68968
0 0.94997 0.110317 4.5522
0 0.949903 0.0933962 0.00159174
0 0.949906 0.111051 4.44519
0 0.949921 0.111254 -2.15773
0 0.949885 0.0942236 0.970891
0 0.949895 0.0941512 0.811838
0 0.949932 0.111275 3.03697
0 0.949934 0.110627 0.929122
0 0.949977 0.109454 1.11652
0 0.949938 0.110965 2.36592
0 0.949939 0.0929331 0.0101493
0 0.949962 0.0929098 -0.270595
0 0.949921 0.0937825 0.0693266
0 0.949913 0.0932837 0.481113
0 0.949921 0.0940121 0.411099
0 0.94993 0.0933188 0.143593
0 0.949909 0.0945586 -0.509372
0 0.949919 0.0936803 -0.330602
0 0.949937 0.11387 5.06741
0 0.949936 0.111352 -0.0544544
0 0.949934 0.0937056 0.441601
0 0.949934 0.0934567 0.078767
0 0.949955 0.0933824 0.036687
0 0.949919 0.110422 5.75431
0 0.949933 0.0928443 0.0896749
0 0.949939 0.109991 1.08284
0 0.949934 0.0933771 -0.0522352
0 0.949943 0.0926481 -0.0662238
0 0.949931 0.0933947 -0.0069676
0 0.949961 0.109505 2.98988
0 0.94993 0.093259 -0.0107988
0 0.949929 0.0935372 -0.00614361
0 0.949931 0.094811 1.01629
0 0.949929 0.0950579 1.1865
0 0.949928 0.0933937 0.247858
0 0.949933 0.093933 0.115858
0 0.949931 0.0949442 0.835042
0 0.949935 0.093868 0.363783
0 0.949928 0.0939403 0.0777367
0 0.949927 0.0962372 1.46523
0 0.949977 0.111771 2.09186
0 0.94994 0.0932118 -0.265345
0 0.949933 0.093703 -0.394746
0 0.949935 0.0981736 -1.61507
0 0.949953 0.108228 2.81163
0 0.949944 0.0938207 0.253178
0 0.949975 0.110957 3.61574
0 0.949937 0.0939924 0.250163
0 0.949941 0.0938467 0.228426
0 0.949938 0.093958 0.545191
0 0.949955 0.0940201 0.472169
0 0.949948 0.0937651 0.391476
0 0.949932 0.0942799 0.27454
0 0.949926 0.0939579 -0.327542
0 0.949917 0.0940975 -0.387336
0 0.94993 0.0939662 0.182573
0 0.949926 0.0953081 -0.599817
0 0.949928 0.0938479 0.11968
0 0.949921 0.095198 0.405588
0 0.949919 0.0953204 -0.83241
0 0.949943 0.110526 2.9471
0 0.949935 0.0941277 0.0500855
0 0.949936 0.0944791 0.422539
0 0.949928 0.0952575 0.4028
0 0.94995 0.0933296 0.513821
0 0.949937 0.0937118 0.133059
0 0.949967 0.110221 3.21565
0 0.94996 0.0934875 0.486372
0 0.949949 0.111871 2.28333
0 0.949938 0.0946781 -0.199271
0 0.949939 0.0934925 0.0161932
0 0.949945 0.0939531 -0.0343049
0 0.949929 0.0931482 0.160849
0 0.949939 0.0938514 0.146468
0 0.949935 0.0941865 0.163863
0 0.949933 0.0942353 -0.266563
0 0.949926 0.094184 0.792889
0 0.949926 0.0947281 -0.125377
0 0.949931 0.0951896 -0.329514
0 0.949921 0.095253 -0.801369
0 0.949921 0.0936692 -0.139705
0 0.949924 0.0976999 0.53007
0 0.94993 0.11031 0.703365
0 0.949933 0.0941305 0.230046
0 0.949935 0.0945665 -0.436155
0 0.949936 0.0939474 0.748029
0 0.949937 0.0941086 0.0425932
0 0.949946 0.0946869 0.798821
0 0.949938 0.0944326 -0.148729
0 0.949985 0.108869 2.26579
0 0.949959 0.0963052 1.00674
0 0.949942 0.0952155 -0.0846077
0 0.949933 0.0934592 0.0169521
0 0.94994 0.093654 -0.121032
0 0.949933 0.0935102 0.386932
0 0.949953 0.110565 4.01573
0 0.949926 0.0937096 -0.129004
0 0.949922 0.0949649 -0.657403
0 0.949935 0.0935008 -0.120028
0 0.94993 0.093326 -0.28303
0 0.949935 0.0947065 0.173908
0 0.949925 0.0947943 -0.200786
0 0.949925 0.0949833 -0.272814
0 0.949924 0.0950135 0.414448
0 0.949919 0.0971372 -1.10651
0 0.949917 0.0956361 -0.710041
0 0.94993 0.110846 2.82047
0 0.949934 0.0933013 0.384014
0 0.949932 0.0940638 0.584886
0 0.949942 0.0939265 0.607412
0 0.949927 0.0998837 3.14443
0 0.949967 0.0958984 0.614858
0 0.949951 0.0943758 0.362746
0 0.949934 0.0941186 0.0463395
0 0.949947 0.0935522 -0.279443
0 0.949941 0.0944059 0.572316
0 0.949941 0.094132 -0.0608393
0 0.949933 0.094868 0.587874
0 0.949931 0.0947665 0.553853
0 0.949931 0.0960173 -0.54839
0 0.949936 0.0941257 -0.417255
0 0.949919 0.111275 2.82802
0 0.949946 0.0948784 -0.321019
0 0.949934 0.0958299 0.463422
0 0.949925 0.0935692 -0.115758
0 0.949932 0.0933204 0.0408807
0 0.949928 0.0944248 0.862043
0 0.949918 0.0950709 0.201929
0 0.949924 0.095585 -0.436521
0 0.949921 0.0950514 0.357886
0 0.94995 0.094534 -0.112011
0 0.949969 0.10811 2.08467
0 0.949932 0.0939572 -0.898403
0 0.949939 0.10082 2.24333
0 0.949943 0.0949323 -0.456673
0 0.949945 0.0938843 0.683753
0 0.949939 0.0949428 -0.329365
0 0.949943 0.0944258 0.768768
0 0.94994 0.0941443 1.1378
0 0.94994 0.0947777 0.524175
0 0.949934 0.0936174 -0.443279
0 0.949931 0.0960483 0.754415
0 0.949937 0.10032 0.570556
0 0.949951 0.0953614 1.16183
0 0.949939 0.0950652 1.1446
0 0.94994 0.0942169 1.29936
0 0.949947 0.0935733 0.457138
0 0.949949 0.109322 2.075
0 0.949927 0.094082 -0.0720472
0 0.949942 0.0960792 0.0406463
0 0.949939 0.095726 0.322449
0 0.949932 0.0936331 -0.136231
0 0.949939 0.093954 0.0968258
0 0.949936 0.0958055 0.485453
0 0.949937 0.0958432 0.18369
0 0.949946 0.0955475 0.271912
0 0.949918 0.09556 -0.00247305
0 0.949926 0.0939155 -0.341499
0 0.949925 0.109007 1.45182
0 0.949938 0.0956349 0.716334
0 0.949935 0.0977031 -0.428133
0 0.949945 0.0933781 0.609386
0 0.949937 0.0939995 -0.0817199
0 0.949939 0.0934502 0.673332
0 0.949938 0.0933533 1.00519
0 0.949941 0.0942552 -0.513344
0 0.949947 0.0948866 1.59985
0 0.949943 0.0957103 -1.34332
0 0.949952 0.0935142 -0.817592
0 0.949944 0.0940136 0.355882
0 0.949926 0.0931688 -0.888215
0 0.949931 0.111794 4.61795
0 0.949918 0.0960569 0.194366
0 0.94993 0.095327 -0.232208
0 0.949935 0.0954902 -0.254891
0 0.94994 0.0937374 0.0680112
0 0.949929 0.0943348 0.0463326
0 0.949947 0.096492 0.193324
0 0.949941 0.0989396 -1.85639
0 0.949943 0.0968363 0.307146
0 0.949922 0.095765 -0.610104
0 0.949908 0.0942737 -0.376042
0 0.949953 0.094372 -0.346346
0 0.949936 0.0933105 -0.16339
0 0.949909 0.110674 0.124044
0 0.949932 0.0931765 1.20249
0 0.949936 0.0940311 0.191087
0 0.94993 0.0935965 0.55914
0 0.949931 0.0947487 1.31907
0 0.949934 0.0942268 1.27473
0 0.949924 0.093604 0.856854
0 0.949937 0.0944063 -0.295626
0 0.949936 0.100047 0.788271
0 0.949947 0.0937974 -0.571553
0 0.949946 0.0943015 -0.201146
0 0.94995 0.0958949 -0.622536
0 0.949931 0.0936889 0.608379
0 0.949932 0.0931923 0.335998
0 0.949926 0.108407 1.762
0 0.949922 0.0940464 -0.332893
0 0.949942 0.0948408 0.366255
0 0.949946 0.0938164 -0.500632
0 0.94992 0.0946592 0.159407
0 0.949931 0.0968056 -0.128105
0 0.949919 0.09706 -0.0601332
0 0.949963 0.0931919 -0.44779
0 0.949996 0.0928147 -0.32231
0 0.949971 0.108883 1.66135
0 0.94993 0.0934575 0.47071
0 0.949928 0.0944772 -0.480945
0 0.949927 0.0942369 -0.556866
0 0.949929 0.0932854 0.868621
0 0.949918 0.0938832 0.821232
0 0.949939 0.10179 2.35799
0 0.949945 0.0946862 -0.864934
0 0.949928 0.0965649 -0.128434
0 0.949936 0.095807 0.820191
0 0.949928 0.0937897 -0.973565
0 0.949936 0.0932203 0.4296
0 0.949941 0.108356 3.88499
0 0.94993 0.0943671 -0.249325
0 0.949939 0.0938428 0.455213
0 0.949922 0.0950463 -0.714234
0 0.949927 0.100946 -2.58463
0 0.949936 0.0946196 0.480548
0 0.94995 0.0931935 -0.652152
0 0.949973 0.093201 -0.470553
0 0.95002 0.113731 -3.39039
0 0.949925 0.0941934 -1.04768
0 0.949922 0.0938788 -0.250718
0 0.949923 0.0936101 -0.656285
0 0.949925 0.0936138 -0.0898109
0 0.949943 0.0943777 -0.824305
0 0.949935 0.0933179 -0.144044
0 0.949927 0.0944313 0.349705
0 0.94993 0.0989026 -1.85626
0 0.94992 0.093267 0.648936
0 0.949922 0.0931102 -0.841482
0 0.949921 0.0931376 0.236677
0 0.949932 0.112221 -1.4814
0 0.949925 0.0947356 -0.333809
0 0.949927 0.0948068 0.42841
0 0.949929 0.0943802 0.461155
0 0.949941 0.093956 -0.386646
0 0.949929 0.09313 0.103372
0 0.949938 0.113846 3.90166
0 0.949922 0.0927481 0.0283303
0 0.949927 0.0934069 -0.226494
0 0.949932 0.0947749 0.579952
0 0.949935 0.0936165 0.930202
0 0.949935 0.0930698 0.160366
0 0.949924 0.0926859 0.0214858
0 0.949923 0.0931238 0.506865
0 0.949928 0.0927266 0.108742
0 0.949916 0.109447 3.90051
0 0.949925 0.0941969 -0.794792
0 0.949927 0.0938147 -0.635996
0 0.949942 0.093675 -0.283731
0 0.94993 0.0927651 -0.467207
0 0.949913 0.109814 2.56686
0 0.94993 0.0929706 -0.159526
0 0.949928 0.0930622 -0.782247
0 0.949932 0.093941 0.953775
0 0.949937 0.0926212 0.241304
0 0.949935 0.092589 0.00123627
0 0.949952 0.0930102 0.3008
0 0.949951 0.109069 3.10472
0 0.949929 0.0939554 0.708306
0 0.94994 0.0933757 -0.00295849
0 0.949948 0.09265 -0.462845
0 0.949931 0.106439 -0.00178625
0 0.949931 0.0934871 -0.0320416
0 0.949935 0.0930854 -0.47878
0 0.949929 0.0936257 0.619908
0 0.949931 0.0934207 0.600178
0 0.949937 0.0960932 1.14051
0 0.949957 0.0930898 -0.473075
0 0.949979 0.110372 0.013221
0 0.94994 0.0927779 -0.610656
0 0.949942 0.0925075 -0.567812
0 0.949945 0.109864 0.55548
0 0.949935 0.0933639 0.68153
0 0.949926 0.093813 0.828578
0 0.949929 0.0953482 -0.46387
0 0.949921 0.0946991 -0.656064
0 0.949948 0.110968 1.32636
0 0.949942 0.0925431 0.51268
0 0.949944 0.109559 3.19711
0 0.949921 0.0934908 -0.494848
0 0.949915 0.0939397 -0.293932
0 0.949905 0.109028 3.5086
0 0.949926 0.108824 0.654043
0 0.949904 0.109326 5.06652
VECTORS fa_u float
0.00735658 0.0029363 -0
0.00665307 0.00382279 -0
0.00277988 0.000757847 -0
0.00723235 0.00113143 -0
1e-08 0 0
0.00520563 0.00401221 -0
0.00250838 0.00242528 -0
1e-08 0 0
1e-08 0 0
0.00452465 0.00550797 -0
0.0054005 0.00905692 -0
0.00662753 0.000144278 -0
0.00623086 -0.000666341 0
1e-08 0 0
1e-08 0 0
1e-08 0 0
1e-08 0 0
1e-08 0 0
1e-08 0 0
1e-08 0 0
1e-08 0 0
0.00295177 0.00729046 -0
0.0016017 0.00630337 -0
1e-08 0 0
1e-08 0 0
1e-08 0 0
0.00902298 -0.00227321 0
1e-08 0 0
0.0112543 -0.00493877 0
1e-08 0 0
1e-08 0 0
1e-08 0 0
0.000850971 0.00732683 -0
1e-08 0 0
1e-08 0 0
1e-08 0 0
1e-08 0 0
1e-08 0 0
1e-08 0 0
1e-08 0 0
1e-08 0 0
1e-08 0 0
1e-08 0 0
-0.000181745 0.00772448 -0
1e-08 0 0
1e-08 0 0
1e-08 0 0
0.00565209 -0.00361065 0
1e-08 0 0
0.00262585 -0.00212336 0
1e-08 0 0
1e-08 0 0
1e-08 0 0
1e-08 0 0
1e-08 0 0
1e-08 0 0
1e-08 0 0
1e-08 0 0
1e-08 0 0
1e-08 0 0
1e-08 0 0
1e-08 0 0
1e-08 0 0
-0.000575698 0.00395528 0
1e-08 0 0
1e-08 0 0
1e-08 0 0
1e-08 0 0
1e-08 0 0
0.00314048 -0.00310602 0
1e-08 0 0
0.00276868 -0.00338723 0
1e-08 0 0
1e-08 0 0
1e-08 0 0
1e-08 0 0
1e-08 0 0
1e-08 0 0
1e-08 0 0
1e-08 0 0
1e-08 0 0
1e-08 0 0
1e-08 0 0
1e-08 0 0
1e-08 0 0
-0.00137282 0.00529513 0
1e-08 0 0
1e-08 0 0
1e-08 0 0
1e-08 0 0
1e-08 0 0
1e-08 0 0
0.0058138 -0.00952395 0
1e-08 0 0
1e-08 0 0
1e-08 0 0
1e-08 0 0
1e-08 0 0
0.00370848 -0.00918995 0
1e-08 0 0
1e-08 0 0
1e-08 0 0
1e-08 0 0
1e-08 0 0
1e-08 0 0
1e-08 0 0
1e-08 0 0
1e-08 0 0
1e-08 0 0
-0.00291751 0.0072359 0
1e-08 0 0
1e-08 0 0
1e-08 0 0
1e-08 0 0
1e-08 0 0
1e-08 0 0
1e-08 0 0
1e-08 0 0
1e-08 0 0
1e-08 0 0
1e-08 0 0
1e-08 0 0
1e-08 0 0
1e-08 0 0
0.00133636 -0.0053544 0
1e-08 0 0
1e-08 0 0
1e-08 0 0
1e-08 0 0
1e-08 0 0
1e-08 0 0
1e-08 0 0
1e-08 0 0
1e-08 0 0
-0.00375533 0.00650701 0
1e-08 0 0
1e-08 0 0
1e-08 0 0
1e-08 0 0
1e-08 0 0
1e-08 0 0
1e-08 0 0
1e-08 0 0
1e-08 0 0
1e-08 0 0
1e-08 0 0
1e-08 0 0
1e-08 0 0
1e-08 0 0
1e-08 0 0
0.000513818 -0.00375038 0
1e-08 0 0
1e-08 0 0
1e-08 0 0
1e-08 0 0
1e-08 0 0
1e-08 0 0
1e-08 0 0
1e-08 0 0
1e-08 0 0
1e-08 0 0
-0.00467018 0.00598652 0
1e-08 0 0
1e-08 0 0
1e-08 0 0
1e-08 0 0
1e-08 0 0
1e-08 0 0
1e-08 0 0
1e-08 0 0
1e-08 0 0
1e-08 0 0
1e-08 0 0
1e-08 0 0
0.000122882 -0.00778517 0
1e-08 0 0
1e-08 0 0
1e-08 0 0
1e-08 0 0
1e-08 0 0
1e-08 0 0
1e-08 0 0
1e-08 0 0
1e-08 0 0
1e-08 0 0
1e-08 0 0
1e-08 0 0
-0.00216201 0.00220103 0
1e-08 0 0
1e-08 0 0
1e-08 0 0
1e-08 0 0
1e-08 0 0
1e-08 0 0
1e-08 0 0
1e-08 0 0
1e-08 0 0
1e-08 0 0
1e-08 0 0
1e-08 0 0
1e-08 0 0
-0.000861376 -0.00701139 0
1e-08 0 0
1e-08 0 0
1e-08 0 0
1e-08 0 0
1e-08 0 0
1e-08 0 0
1e-08 0 0
1e-08 0 0
-0.00482179 0.00395538 0
1e-08 0 0
1e-08 0 0
1e-08 0 0
1e-08 0 0
1e-08 0 0
1e-08 0 0
1e-08 0 0
1e-08 0 0
1e-08 0 0
1e-08 0 0
1e-08 0 0
-0.00159351 -0.00614789 0
1e-08 0 0
1e-08 0 0
1e-08 0 0
1e-08 0 0
1e-08 0 0
1e-08 0 0
1e-08 0 0
-0.00884617 0.00532943 0
1e-08 0 0
1e-08 0 0
1e-08 0 0
1e-08 0 0
1e-08 0 0
1e-08 0 0
1e-08 0 0
1e-08 0 0
1e-08 0 0
1e-08 0 0
1e-08 0 0
-0.00306957 -0.00747737 0
1e-08 0 0
1e-08 0 0
1e-08 0 0
1e-08 0 0
1e-08 0 0
-0.00763445 0.00312272 0
1e-08 0 0
1e-08 0 0
1e-08 0 0
1e-08 0 0
1e-08 0 0
1e-08 0 0
1e-08 0 0
1e-08 0 0
-0.00509058 -0.00847568 0
1e-08 0 0
1e-08 0 0
1e-08 0 0
1e-08 0 0
-0.00619272 0.00159005 0
1e-08 0 0
1e-08 0 0
1e-08 0 0
1e-08 0 0
1e-08 0 0
1e-08 0 0
-0.00360854 -0.00445083 0
1e-08 0 0
1e-08 0 0
1e-08 0 0
-0.00724551 0.000865044 0
1e-08 0 0
1e-08 0 0
1e-08 0 0
1e-08 0 0
1e-08 0 0
1e-08 0 0
-0.00259031 -0.00256757 0
1e-08 0 0
1e-08 0 0
-0.00848067 -0.000195999 0
1e-08 0 0
1e-08 0 0
1e-08 0 0
1e-08 0 0
-0.00590983 -0.00462117 0
1e-08 0 0
-0.00348339 -0.000507582 0
1e-08 0 0
1e-08 0 0
-0.00682658 -0.00393857 0
-0.00544249 -0.0013985 0
-0.00719105 -0.00288666 0
