# vtk DataFile Version 2.0
CellBP Time: 11.6
ASCII
DATASET UNSTRUCTURED_GRID
POINTS 320 double
-50.000000 -50.000000 0.000000
-50.000000 -43.332120 0.000000
-45.688693 -45.491397 0.000000
-43.331955 -50.000000 0.000000
-50.000000 -36.664168 0.000000
-36.664258 -50.000000 0.000000
-45.081449 -39.969959 0.000000
-40.027670 -44.152533 0.000000
-29.996474 -50.000000 0.000000
-50.000000 -29.996336 0.000000
-44.847409 -33.449061 0.000000
-33.145301 -44.675964 0.000000
-39.869536 -36.787176 0.000000
-35.129151 -39.801643 0.000000
-23.329176 -50.000000 0.000000
-26.539575 -44.666870 0.000000
-50.000000 -23.329054 0.000000
-44.665406 -26.804129 0.000000
-39.364538 -30.225881 0.000000
-29.606835 -39.359627 0.000000
-33.368801 -33.655755 0.000000
-50.000000 -16.662568 0.000000
-16.662773 -50.000000 0.000000
-9.997272 -50.000000 0.000000
-19.965385 -44.588696 0.000000
-23.216313 -39.114771 0.000000
-44.691800 -20.097117 0.000000
-39.367964 -23.528208 0.000000
-34.106470 -26.937154 0.000000
-26.384960 -33.577637 0.000000
-29.156747 -28.926943 0.000000
-50.000000 -9.996770 0.000000
-44.666283 -13.410362 0.000000
-50.000000 -3.331836 0.000000
-3.332501 -50.000000 0.000000
3.332101 -50.000000 0.000000
-13.344181 -44.598842 0.000000
-6.685051 -44.610427 0.000000
-16.694099 -39.153049 0.000000
-20.107267 -33.342593 0.000000
-39.338088 -16.804566 0.000000
-34.019113 -20.274449 0.000000
-28.781548 -23.449292 0.000000
-23.510935 -27.351201 0.000000
-44.635239 -6.705487 0.000000
-39.293123 -10.101656 0.000000
-50.000000 3.332660 0.000000
-44.626447 -0.015302 0.000000
9.997084 -50.000000 0.000000
16.662789 -50.000000 0.000000
-0.016218 -44.618535 0.000000
6.651819 -44.635312 0.000000
-10.045063 -39.222486 0.000000
-3.368352 -39.220148 0.000000
-13.484407 -33.798331 0.000000
-16.708725 -28.271598 0.000000
-33.947882 -13.513274 0.000000
-28.602981 -16.891877 0.000000
-23.293072 -20.313404 0.000000
-18.661237 -23.285043 0.000000
-39.267273 -3.392506 0.000000
-33.904454 -6.796692 0.000000
-50.000000 9.997331 0.000000
-44.606437 6.673933 0.000000
-39.260542 3.325891 0.000000
-50.000000 16.662809 0.000000
23.329223 -50.000000 0.000000
29.996397 -50.000000 0.000000
13.317891 -44.662916 0.000000
19.990058 -44.700091 0.000000
3.307602 -39.245095 0.000000
9.971908 -39.290411 0.000000
-6.735849 -33.791334 0.000000
-0.032149 -33.829390 0.000000
-10.096110 -28.292017 0.000000
-13.122687 -22.895301 0.000000
-28.531093 -10.213833 0.000000
-23.068161 -13.663879 0.000000
-16.979695 -17.213464 0.000000
-33.884010 -0.065492 0.000000
-28.562586 -3.580540 0.000000
-44.563902 13.381158 0.000000
-39.189789 10.015324 0.000000
-33.905354 6.616115 0.000000
-50.000000 23.328980 0.000000
-44.557237 20.138739 0.000000
-50.000000 29.996501 0.000000
36.664114 -50.000000 0.000000
43.332009 -50.000000 0.000000
26.663651 -44.745425 0.000000
33.315594 -44.876212 0.000000
16.631782 -39.357683 0.000000
23.328496 -39.437225 0.000000
6.642996 -33.879643 0.000000
13.290417 -33.965444 0.000000
-3.346679 -28.363987 0.000000
3.358656 -28.451204 0.000000
-6.626525 -22.844489 0.000000
-9.960162 -17.315217 0.000000
-23.179060 -7.013978 0.000000
-17.814682 -10.334926 0.000000
-12.837785 -12.613187 0.000000
-28.607258 3.088751 0.000000
-23.267156 -0.470389 0.000000
-39.038286 16.746361 0.000000
-28.719767 9.925643 0.000000
-33.760548 13.317882 0.000000
-44.521729 26.717504 0.000000
-38.467808 23.892873 0.000000
-44.632899 33.086169 0.000000
-50.000000 36.664724 0.000000
-50.000000 43.332314 0.000000
39.922632 -45.069835 0.000000
45.475013 -45.660727 0.000000
50.000000 -50.000000 0.000000
36.627007 -39.982165 0.000000
30.012667 -39.458795 0.000000
19.904231 -34.093078 0.000000
26.585204 -34.319722 0.000000
9.988331 -28.512511 0.000000
16.610435 -28.660687 0.000000
0.049888 -22.964358 0.000000
6.811987 -23.154379 0.000000
-3.397384 -17.296959 0.000000
-6.790144 -10.862096 0.000000
-17.872571 -3.810093 0.000000
-12.547426 -7.033083 0.000000
-23.307609 6.068580 0.000000
-18.033083 2.434671 0.000000
-23.124165 12.096480 0.000000
-33.572186 19.788979 0.000000
-27.941902 16.886656 0.000000
-33.293453 24.723202 0.000000
-39.474271 30.053577 0.000000
-35.161153 28.138014 0.000000
-39.816708 35.101980 0.000000
-43.992063 39.982892 0.000000
-45.431222 45.685595 0.000000
-50.000000 50.000000 0.000000
44.117530 -39.899397 0.000000
50.000000 -43.331567 0.000000
39.639730 -35.047690 0.000000
33.463106 -33.424779 0.000000
22.985081 -28.818333 0.000000
28.731164 -29.248041 0.000000
13.460861 -23.121964 0.000000
20.055027 -23.440124 0.000000
3.360689 -17.591728 0.000000
10.121897 -17.844239 0.000000
0.171454 -11.758421 0.000000
-2.120275 -6.144617 0.000000
-7.125221 -3.544488 0.000000
-12.415222 -0.808780 0.000000
-18.175975 8.573159 0.000000
-12.930262 5.196598 0.000000
-18.637694 13.750748 0.000000
-21.503508 17.493836 0.000000
-28.941261 23.159608 0.000000
-24.346548 21.554146 0.000000
-30.324230 28.635389 0.000000
-34.254054 33.375790 0.000000
-36.956243 39.578244 0.000000
-39.838812 45.103053 0.000000
-43.331946 50.000000 0.000000
44.585496 -32.972364 0.000000
50.000000 -36.663664 0.000000
39.129450 -29.582155 0.000000
33.500819 -26.367845 0.000000
27.183457 -23.322135 0.000000
23.067779 -18.648052 0.000000
16.993279 -16.983016 0.000000
6.696042 -12.188156 0.000000
12.377113 -12.738242 0.000000
-3.361340 -1.482720 0.000000
3.773096 -6.741878 0.000000
1.023955 -2.120669 0.000000
-6.835970 2.258715 0.000000
-8.218525 7.634696 0.000000
-12.840760 11.927176 0.000000
-15.690060 17.698625 0.000000
-19.287585 22.981010 0.000000
-24.171040 27.354284 0.000000
-27.286478 33.625736 0.000000
-30.406874 39.160981 0.000000
-33.448052 44.738903 0.000000
-36.663969 50.000000 0.000000
44.547779 -26.500256 0.000000
50.000000 -29.995832 0.000000
39.040026 -23.179398 0.000000
33.449500 -19.899999 0.000000
28.039598 -16.573071 0.000000
22.678917 -13.123496 0.000000
17.175911 -9.897882 0.000000
10.757850 -6.568208 0.000000
-1.360863 2.322855 0.000000
6.121432 -1.706559 0.000000
2.884338 1.590740 0.000000
-3.438068 6.957748 0.000000
-6.314369 12.424867 0.000000
-9.629295 17.714003 0.000000
-13.168351 23.115223 0.000000
-17.317062 28.185064 0.000000
-20.571193 33.474140 0.000000
-23.666247 39.063880 0.000000
-26.831412 44.585337 0.000000
-29.996468 50.000000 0.000000
44.528620 -19.931056 0.000000
50.000000 -23.328597 0.000000
39.036094 -16.594264 0.000000
33.575685 -13.281250 0.000000
28.148781 -9.965138 0.000000
22.724445 -6.604770 0.000000
17.265309 -3.334249 0.000000
11.767262 0.220007 0.000000
1.904015 6.185363 0.000000
6.769707 3.690995 0.000000
-0.229236 11.736479 0.000000
-3.243766 17.532077 0.000000
-6.698417 22.976048 0.000000
-10.566871 28.267153 0.000000
-13.724411 33.660805 0.000000
-16.946058 39.080059 0.000000
-20.141183 44.548305 0.000000
-23.329439 50.000000 0.000000
44.536087 -13.304188 0.000000
50.000000 -16.662238 0.000000
39.079713 -9.966944 0.000000
33.646502 -6.641525 0.000000
28.236909 -3.308217 0.000000
22.850798 0.017280 0.000000
17.538846 3.337432 0.000000
12.175286 6.578938 0.000000
6.644356 10.669937 0.000000
3.303020 17.200983 0.000000
-0.080279 22.855551 0.000000
-3.519242 28.313316 0.000000
-6.831864 33.774758 0.000000
-10.137938 39.170495 0.000000
-13.436393 44.563409 0.000000
-16.663156 50.000000 0.000000
44.554044 -6.655055 0.000000
50.000000 -9.996850 0.000000
39.123107 -3.321473 0.000000
33.713269 0.008871 0.000000
28.333339 3.345503 0.000000
22.998619 6.693996 0.000000
17.834919 10.017677 0.000000
12.658948 12.247376 0.000000
9.782818 17.232126 0.000000
6.480287 22.722402 0.000000
3.189688 28.270547 0.000000
-0.116059 33.735004 0.000000
-3.425388 39.168746 0.000000
-6.725904 44.581685 0.000000
-9.997551 50.000000 0.000000
44.575424 0.001788 0.000000
50.000000 -3.332232 0.000000
39.166883 3.331828 0.000000
33.779581 6.655714 0.000000
28.423719 9.994666 0.000000
23.046512 13.416070 0.000000
16.951601 17.024831 0.000000
12.901574 22.666213 0.000000
9.815723 28.231542 0.000000
6.604525 33.718830 0.000000
3.286575 39.164437 0.000000
-0.029978 44.584463 0.000000
-3.332496 50.000000 0.000000
44.586623 6.665734 0.000000
50.000000 3.332281 0.000000
39.198241 9.982106 0.000000
33.843522 13.276878 0.000000
28.542508 16.584186 0.000000
23.387949 20.084220 0.000000
18.532067 23.113747 0.000000
16.392401 28.298382 0.000000
13.329129 33.754711 0.000000
9.986814 39.181936 0.000000
6.666229 44.584187 0.000000
3.332371 50.000000 0.000000
44.608870 13.318430 0.000000
50.000000 9.997256 0.000000
39.251393 16.612681 0.000000
33.932096 19.862927 0.000000
28.612652 22.925991 0.000000
23.279705 27.207856 0.000000
19.901478 33.302761 0.000000
16.574224 39.040783 0.000000
13.268852 44.526585 0.000000
9.997327 50.000000 0.000000
44.632059 19.973543 0.000000
50.000000 16.662962 0.000000
39.298579 23.262457 0.000000
34.044007 26.514947 0.000000
28.966050 28.539515 0.000000
26.202665 33.410195 0.000000
23.067054 38.968777 0.000000
19.889119 44.506999 0.000000
16.662781 50.000000 0.000000
44.639920 26.643429 0.000000
50.000000 23.329366 0.000000
39.293558 29.967067 0.000000
33.212681 33.371520 0.000000
29.412528 39.045972 0.000000
26.422864 44.506018 0.000000
23.329087 50.000000 0.000000
44.775232 33.292176 0.000000
50.000000 29.996479 0.000000
39.738408 36.596577 0.000000
34.831393 39.525946 0.000000
32.834220 44.514548 0.000000
29.996182 50.000000 0.000000
44.978507 39.878170 0.000000
50.000000 36.664138 0.000000
39.735335 43.969340 0.000000
36.663877 50.000000 0.000000
45.621608 45.410143 0.000000
50.000000 43.332002 0.000000
43.331666 50.000000 0.000000
50.000000 50.000000 0.000000
CELLS 578 2312
3 1 0 2
3 0 3 2
3 4 1 6
3 6 1 2
3 3 5 7
3 3 7 2
3 6 2 7
3 9 4 10
3 10 4 6
3 5 8 11
3 7 5 11
3 10 6 12
3 12 6 7
3 7 11 13
3 7 13 12
3 8 14 15
3 11 8 15
3 16 9 17
3 17 9 10
3 17 10 18
3 18 10 12
3 11 15 19
3 13 11 19
3 18 12 20
3 13 19 20
3 20 12 13
3 14 22 24
3 15 14 24
3 15 24 25
3 19 15 25
3 21 16 26
3 26 16 17
3 26 17 27
3 27 17 18
3 27 18 28
3 28 18 20
3 19 25 29
3 19 29 20
3 28 20 30
3 30 20 29
3 31 21 32
3 32 21 26
3 22 23 36
3 24 22 36
3 23 34 37
3 36 23 37
3 24 36 38
3 25 24 38
3 25 38 39
3 29 25 39
3 32 26 40
3 40 26 27
3 40 27 41
3 41 27 28
3 41 28 42
3 42 28 30
3 29 39 43
3 29 43 30
3 42 30 43
3 33 31 44
3 44 31 32
3 44 32 45
3 45 32 40
3 46 33 47
3 47 33 44
3 34 35 50
3 37 34 50
3 35 48 51
3 50 35 51
3 36 37 52
3 38 36 52
3 37 50 53
3 52 37 53
3 38 52 54
3 39 38 54
3 39 54 55
3 43 39 55
3 45 40 56
3 56 40 41
3 56 41 57
3 57 41 42
3 57 42 58
3 58 42 43
3 43 55 59
3 43 59 58
3 47 44 60
3 60 44 45
3 60 45 61
3 61 45 56
3 62 46 63
3 63 46 47
3 63 47 64
3 64 47 60
3 48 49 68
3 51 48 68
3 49 66 69
3 68 49 69
3 50 51 70
3 53 50 70
3 51 68 71
3 70 51 71
3 52 53 72
3 54 52 72
3 53 70 73
3 72 53 73
3 54 72 74
3 55 54 74
3 55 74 75
3 59 55 75
3 61 56 76
3 76 56 57
3 76 57 77
3 77 57 58
3 77 58 78
3 59 75 78
3 78 58 59
3 64 60 79
3 79 60 61
3 79 61 80
3 80 61 76
3 65 62 81
3 81 62 63
3 81 63 82
3 82 63 64
3 82 64 83
3 83 64 79
3 84 65 85
3 85 65 81
3 66 67 89
3 69 66 89
3 67 87 90
3 89 67 90
3 68 69 91
3 71 68 91
3 69 89 92
3 91 69 92
3 70 71 93
3 73 70 93
3 71 91 94
3 93 71 94
3 72 73 95
3 74 72 95
3 73 93 96
3 95 73 96
3 74 95 97
3 75 74 97
3 75 97 98
3 78 75 98
3 80 76 99
3 99 76 77
3 99 77 100
3 100 77 78
3 100 78 101
3 98 101 78
3 83 79 102
3 102 79 80
3 102 80 103
3 103 80 99
3 85 81 104
3 104 81 82
3 105 83 102
3 104 82 106
3 106 82 83
3 106 83 105
3 86 84 107
3 107 84 85
3 107 85 108
3 108 85 104
3 109 86 107
3 110 86 109
3 87 88 112
3 90 87 112
3 112 88 113
3 88 114 113
3 90 112 115
3 89 90 116
3 92 89 116
3 116 90 115
3 91 92 117
3 94 91 117
3 92 116 118
3 117 92 118
3 93 94 119
3 96 93 119
3 94 117 120
3 119 94 120
3 95 96 121
3 97 95 121
3 96 119 122
3 121 96 122
3 97 121 123
3 98 97 123
3 98 123 124
3 98 124 101
3 103 99 125
3 125 99 100
3 125 100 126
3 126 100 101
3 126 101 124
3 105 102 127
3 127 102 103
3 127 103 128
3 128 103 125
3 129 105 127
3 108 104 130
3 130 104 106
3 130 106 131
3 131 106 105
3 131 105 129
3 108 130 132
3 109 107 133
3 133 107 108
3 133 108 134
3 108 132 134
3 135 109 133
3 111 110 136
3 136 110 109
3 136 109 135
3 137 111 136
3 138 111 137
3 112 113 139
3 115 112 139
3 114 140 113
3 140 139 113
3 139 141 115
3 116 115 142
3 118 116 142
3 142 115 141
3 117 118 143
3 120 117 143
3 118 142 144
3 143 118 144
3 119 120 145
3 122 119 145
3 120 143 146
3 145 120 146
3 121 122 147
3 123 121 147
3 122 145 148
3 147 122 148
3 123 147 149
3 124 123 149
3 124 149 150
3 151 126 124
3 124 150 151
3 128 125 152
3 152 125 126
3 152 126 151
3 129 127 153
3 153 127 128
3 128 152 154
3 153 128 154
3 155 129 153
3 131 129 156
3 156 129 155
3 132 130 157
3 130 131 157
3 157 131 158
3 131 156 158
3 132 157 159
3 132 159 134
3 135 133 160
3 160 133 134
3 160 134 159
3 136 135 161
3 135 160 161
3 162 137 136
3 161 162 136
3 163 138 137
3 162 163 137
3 139 164 141
3 140 165 139
3 139 165 164
3 141 164 166
3 141 166 142
3 166 167 142
3 144 142 167
3 167 168 144
3 143 144 168
3 146 143 168
3 168 169 146
3 145 146 170
3 148 145 170
3 170 146 169
3 147 148 171
3 149 147 171
3 148 170 172
3 171 148 172
3 173 151 150
3 149 171 174
3 150 149 174
3 150 174 175
3 150 175 173
3 154 152 176
3 152 151 176
3 176 151 173
3 154 176 177
3 155 153 178
3 177 178 154
3 154 178 153
3 156 155 179
3 155 178 179
3 180 158 156
3 179 180 156
3 181 159 157
3 180 181 158
3 181 157 158
3 182 160 159
3 181 182 159
3 183 161 160
3 182 183 160
3 184 162 161
3 184 161 183
3 185 163 162
3 184 185 162
3 164 186 166
3 165 187 164
3 164 187 186
3 166 186 188
3 166 188 167
3 167 188 189
3 167 189 168
3 168 189 190
3 168 190 169
3 169 190 191
3 169 191 170
3 192 172 170
3 170 191 192
3 192 193 172
3 171 172 193
3 174 171 193
3 194 173 175
3 176 173 194
3 175 174 195
3 193 195 174
3 195 196 175
3 175 196 194
3 197 177 176
3 194 197 176
3 198 178 177
3 197 198 177
3 199 179 178
3 198 199 178
3 200 180 179
3 199 200 179
3 201 181 180
3 200 201 180
3 202 182 181
3 201 202 181
3 203 183 182
3 202 203 182
3 204 184 183
3 203 204 183
3 205 185 184
3 204 205 184
3 186 206 188
3 187 207 186
3 186 207 206
3 188 206 208
3 188 208 189
3 189 208 209
3 189 209 190
3 190 209 210
3 190 210 191
3 191 210 211
3 191 211 192
3 192 211 212
3 192 212 193
3 193 212 213
3 193 213 195
3 214 197 194
3 214 194 196
3 195 213 215
3 195 215 196
3 196 215 214
3 216 198 197
3 214 216 197
3 217 199 198
3 216 217 198
3 218 200 199
3 217 218 199
3 219 201 200
3 218 219 200
3 220 202 201
3 219 220 201
3 221 203 202
3 220 221 202
3 222 204 203
3 221 222 203
3 223 205 204
3 222 223 204
3 206 224 208
3 207 225 206
3 206 225 224
3 208 224 226
3 208 226 209
3 209 226 227
3 209 227 210
3 210 227 228
3 210 228 211
3 211 228 229
3 211 229 212
3 212 229 230
3 212 230 213
3 213 230 231
3 213 231 215
3 232 216 214
3 215 231 232
3 232 214 215
3 233 217 216
3 232 233 216
3 234 218 217
3 233 234 217
3 235 219 218
3 234 235 218
3 236 220 219
3 235 236 219
3 237 221 220
3 236 237 220
3 238 222 221
3 237 238 221
3 239 223 222
3 238 239 222
3 224 240 226
3 225 241 224
3 224 241 240
3 226 240 242
3 226 242 227
3 227 242 243
3 227 243 228
3 228 243 244
3 228 244 229
3 244 245 229
3 229 245 230
3 230 245 246
3 230 246 231
3 231 246 247
3 231 247 232
3 248 233 232
3 248 232 247
3 249 234 233
3 248 249 233
3 250 235 234
3 249 250 234
3 251 236 235
3 250 251 235
3 252 237 236
3 251 252 236
3 253 238 237
3 252 253 237
3 254 239 238
3 253 254 238
3 240 255 242
3 241 256 240
3 240 256 255
3 242 255 257
3 242 257 243
3 243 257 258
3 243 258 244
3 244 258 259
3 244 259 245
3 245 259 260
3 245 260 246
3 246 260 261
3 246 261 247
3 248 247 261
3 262 249 248
3 261 262 248
3 263 250 249
3 262 263 249
3 264 251 250
3 263 264 250
3 265 252 251
3 264 265 251
3 266 253 252
3 265 266 252
3 267 254 253
3 266 267 253
3 255 268 257
3 256 269 255
3 255 269 268
3 257 268 270
3 257 270 258
3 258 270 271
3 258 271 259
3 259 271 272
3 259 272 260
3 260 272 273
3 260 273 261
3 274 262 261
3 261 273 274
3 275 263 262
3 274 275 262
3 276 264 263
3 275 276 263
3 277 265 264
3 276 277 264
3 278 266 265
3 277 278 265
3 279 267 266
3 278 279 266
3 268 280 270
3 269 281 268
3 268 281 280
3 270 280 282
3 270 282 271
3 271 282 283
3 271 283 272
3 283 284 272
3 272 284 273
3 285 275 274
3 273 284 285
3 285 274 273
3 286 276 275
3 285 286 275
3 287 277 276
3 286 287 276
3 288 278 277
3 287 288 277
3 289 279 278
3 288 289 278
3 280 290 282
3 281 291 280
3 280 291 290
3 282 290 292
3 282 292 283
3 283 292 293
3 283 293 284
3 284 293 294
3 284 294 285
3 295 286 285
3 295 285 294
3 296 287 286
3 295 296 286
3 297 288 287
3 296 297 287
3 298 289 288
3 297 298 288
3 290 299 292
3 291 300 290
3 290 300 299
3 292 299 301
3 292 301 293
3 293 301 302
3 293 302 294
3 294 302 295
3 303 296 295
3 303 295 302
3 304 297 296
3 303 304 296
3 305 298 297
3 304 305 297
3 299 306 301
3 300 307 299
3 299 307 306
3 301 306 308
3 301 308 302
3 309 303 302
3 302 308 309
3 310 304 303
3 309 310 303
3 311 305 304
3 310 311 304
3 306 312 308
3 307 313 306
3 306 313 312
3 314 310 309
3 308 312 314
3 314 309 308
3 315 311 310
3 314 315 310
3 312 316 314
3 313 317 312
3 312 317 316
3 318 315 314
3 318 314 316
3 317 319 316
3 319 318 316
CELL_TYPES 578
5
5
5
5
5
5
5
5
5
5
5
5
5
5
5
5
5
5
5
5
5
5
5
5
5
5
5
5
5
5
5
5
5
5
5
5
5
5
5
5
5
5
5
5
5
5
5
5
5
5
5
5
5
5
5
5
5
5
5
5
5
5
5
5
5
5
5
5
5
5
5
5
5
5
5
5
5
5
5
5
5
5
5
5
5
5
5
5
5
5
5
5
5
5
5
5
5
5
5
5
5
5
5
5
5
5
5
5
5
5
5
5
5
5
5
5
5
5
5
5
5
5
5
5
5
5
5
5
5
5
5
5
5
5
5
5
5
5
5
5
5
5
5
5
5
5
5
5
5
5
5
5
5
5
5
5
5
5
5
5
5
5
5
5
5
5
5
5
5
5
5
5
5
5
5
5
5
5
5
5
5
5
5
5
5
5
5
5
5
5
5
5
5
5
5
5
5
5
5
5
5
5
5
5
5
5
5
5
5
5
5
5
5
5
5
5
5
5
5
5
5
5
5
5
5
5
5
5
5
5
5
5
5
5
5
5
5
5
5
5
5
5
5
5
5
5
5
5
5
5
5
5
5
5
5
5
5
5
5
5
5
5
5
5
5
5
5
5
5
5
5
5
5
5
5
5
5
5
5
5
5
5
5
5
5
5
5
5
5
5
5
5
5
5
5
5
5
5
5
5
5
5
5
5
5
5
5
5
5
5
5
5
5
5
5
5
5
5
5
5
5
5
5
5
5
5
5
5
5
5
5
5
5
5
5
5
5
5
5
5
5
5
5
5
5
5
5
5
5
5
5
5
5
5
5
5
5
5
5
5
5
5
5
5
5
5
5
5
5
5
5
5
5
5
5
5
5
5
5
5
5
5
5
5
5
5
5
5
5
5
5
5
5
5
5
5
5
5
5
5
5
5
5
5
5
5
5
5
5
5
5
5
5
5
5
5
5
5
5
5
5
5
5
5
5
5
5
5
5
5
5
5
5
5
5
5
5
5
5
5
5
5
5
5
5
5
5
5
5
5
5
5
5
5
5
5
5
5
5
5
5
5
5
5
5
5
5
5
5
5
5
5
5
5
5
5
5
5
5
5
5
5
5
5
5
5
5
5
5
5
5
5
5
5
5
5
5
5
5
5
5
5
5
5
5
5
5
5
5
5
5
5
5
5
5
5
5
5
5
5
5
5
5
5
5
5
5
5
5
5
5
5
5
5
5
5
5
5
5
5
5
5
5
5
5
5
5
5
5
5
5
5
5
5
5
5
5
5
5
5
5
5
5
5
5
5
5
5
5
5
5
5
5
5
5
5
5
5
POINT_DATA 320
SCALARS theta_e float 1
LOOKUP_TABLE default
1.000000
1.000000
1.000000
1.000000
1.000000
1.000000
1.000000
1.000000
1.000000
1.000000
1.000000
1.000000
1.000000
1.000000
1.000000
1.000000
1.000000
1.000000
1.000000
1.000000
1.000000
1.000000
1.000000
1.000000
1.000000
1.000000
1.000000
1.000000
1.000000
1.000000
1.000000
1.000000
1.000000
1.000000
1.000000
1.000000
1.000000
1.000000
1.000000
1.000000
1.000000
1.000000
1.000000
1.000000
1.000000
1.000000
1.000000
1.000000
1.000000
1.000000
1.000000
1.000000
1.000000
1.000000
1.000000
1.000000
1.000000
1.000000
1.000000
1.000000
1.000000
1.000000
1.000000
1.000000
1.000000
1.000000
1.000000
1.000000
1.000000
1.000000
1.000000
1.000000
1.000000
1.000000
1.000000
1.000000
1.000000
1.000000
1.000000
1.000000
1.000000
1.000000
1.000000
1.000000
1.000000
1.000000
1.000000
1.000000
1.000000
1.000000
1.000000
1.000000
1.000000
1.000000
1.000000
1.000000
1.000000
1.000000
1.000000
1.000000
1.000000
1.000000
1.000000
1.000000
1.000000
1.000000
1.000000
1.000000
1.000000
1.000000
1.000000
1.000000
1.000000
1.000000
1.000000
1.000000
1.000000
1.000000
1.000000
1.000000
1.000000
1.000000
1.000000
1.000000
1.000000
1.000000
1.000000
1.000000
1.000000
1.000000
1.000000
1.000000
1.000000
1.000000
1.000000
1.000000
1.000000
1.000000
1.000000
1.000000
1.000000
1.000000
1.000000
1.000000
1.000000
1.000000
1.000000
1.000000
1.000000
0.999999
0.999998
0.999999
1.000000
1.000000
1.000000
1.000000
1.000000
1.000000
1.000000
1.000000
1.000000
1.000000
1.000000
1.000000
1.000000
1.000000
1.000000
1.000000
1.000000
1.000000
1.000000
1.000000
1.000000
0.999998
0.999999
0.999998
0.999999
0.999999
1.000000
1.000000
1.000000
1.000000
1.000000
1.000000
1.000000
1.000000
1.000000
1.000000
1.000000
1.000000
1.000000
1.000000
1.000000
1.000000
0.999998
0.999998
0.999997
0.999999
1.000000
1.000000
1.000000
1.000000
1.000000
1.000000
1.000000
1.000000
1.000000
1.000000
1.000000
1.000000
1.000000
1.000000
1.000000
1.000000
0.999998
0.999999
0.999999
1.000000
1.000000
1.000000
1.000000
1.000000
1.000000
1.000000
1.000000
1.000000
1.000000
1.000000
1.000000
1.000000
1.000000
1.000000
0.999999
1.000000
1.000000
1.000000
1.000000
1.000000
1.000000
1.000000
1.000000
1.000000
1.000000
1.000000
1.000000
1.000000
1.000000
1.000000
1.000000
1.000000
1.000000
1.000000
1.000000
1.000000
1.000000
1.000000
1.000000
1.000000
1.000000
1.000000
1.000000
1.000000
1.000000
1.000000
1.000000
1.000000
1.000000
1.000000
1.000000
1.000000
1.000000
1.000000
1.000000
1.000000
1.000000
1.000000
1.000000
1.000000
1.000000
1.000000
1.000000
1.000000
1.000000
1.000000
1.000000
1.000000
1.000000
1.000000
1.000000
1.000000
1.000000
1.000000
1.000000
1.000000
1.000000
1.000000
1.000000
1.000000
1.000000
1.000000
1.000000
1.000000
1.000000
1.000000
1.000000
1.000000
1.000000
1.000000
1.000000
1.000000
1.000000
1.000000
1.000000
1.000000
1.000000
1.000000
1.000000
1.000000
1.000000
1.000000
VECTORS fa_u float
0.000000 0.000000 0.000000
0.000000 0.000000 0.000000
0.000000 0.000000 0.000000
0.000000 0.000000 0.000000
0.000000 0.000000 0.000000
0.000000 0.000000 0.000000
0.000000 0.000000 0.000000
0.000000 0.000000 0.000000
0.000000 0.000000 0.000000
0.000000 0.000000 0.000000
0.000000 0.000000 0.000000
0.000000 0.000000 0.000000
0.000000 0.000000 0.000000
0.000000 0.000000 0.000000
0.000000 0.000000 0.000000
0.000000 0.000000 0.000000
0.000000 0.000000 0.000000
0.000000 0.000000 0.000000
0.000000 0.000000 0.000000
0.000000 0.000000 0.000000
0.000000 0.000000 0.000000
0.000000 0.000000 0.000000
0.000000 0.000000 0.000000
0.000000 0.000000 0.000000
0.000000 0.000000 0.000000
0.000000 0.000000 0.000000
0.000000 0.000000 0.000000
0.000000 0.000000 0.000000
0.000000 0.000000 0.000000
0.000000 0.000000 0.000000
0.000000 0.000000 0.000000
0.000000 0.000000 0.000000
0.000000 0.000000 0.000000
0.000000 0.000000 0.000000
0.000000 0.000000 0.000000
0.000000 0.000000 0.000000
0.000000 0.000000 0.000000
0.000000 0.000000 0.000000
0.000000 0.000000 0.000000
0.000000 0.000000 0.000000
0.000000 0.000000 0.000000
0.000000 0.000000 0.000000
0.000000 0.000000 0.000000
0.000000 0.000000 0.000000
0.000000 0.000000 0.000000
0.000000 0.000000 0.000000
0.000000 0.000000 0.000000
0.000000 0.000000 0.000000
0.000000 0.000000 0.000000
0.000000 0.000000 0.000000
0.000000 0.000000 0.000000
0.000000 0.000000 0.000000
0.000000 0.000000 0.000000
0.000000 0.000000 0.000000
0.000000 0.000000 0.000000
0.000000 0.000000 0.000000
0.000000 0.000000 0.000000
0.000000 0.000000 0.000000
0.000000 0.000000 0.000000
0.000000 0.000000 0.000000
0.000000 0.000000 0.000000
0.000000 0.000000 0.000000
0.000000 0.000000 0.000000
0.000000 0.000000 0.000000
0.000000 0.000000 0.000000
0.000000 0.000000 0.000000
0.000000 0.000000 0.000000
0.000000 0.000000 0.000000
0.000000 0.000000 0.000000
0.000000 0.000000 0.000000
0.000000 0.000000 0.000000
0.000000 0.000000 0.000000
0.000000 0.000000 0.000000
0.000000 0.000000 0.000000
0.000000 0.000000 0.000000
0.000000 0.000000 0.000000
0.000000 0.000000 0.000000
0.000000 0.000000 0.000000
0.000000 0.000000 0.000000
0.000000 0.000000 0.000000
0.000000 0.000000 0.000000
0.000000 0.000000 0.000000
0.000000 0.000000 0.000000
0.000000 0.000000 0.000000
0.000000 0.000000 0.000000
0.000000 0.000000 0.000000
0.000000 0.000000 0.000000
0.000000 0.000000 0.000000
0.000000 0.000000 0.000000
0.000000 0.000000 0.000000
0.000000 0.000000 0.000000
0.000000 0.000000 0.000000
0.000000 0.000000 0.000000
0.000000 0.000000 0.000000
0.000000 0.000000 0.000000
0.000000 0.000000 0.000000
0.000000 0.000000 0.000000
0.000000 0.000000 0.000000
0.000000 0.000000 0.000000
0.000000 0.000000 0.000000
0.000000 0.000000 0.000000
0.000000 0.000000 0.000000
0.000000 0.000000 0.000000
0.000000 0.000000 0.000000
0.000000 0.000000 0.000000
0.000000 0.000000 0.000000
0.000000 0.000000 0.000000
0.000000 0.000000 0.000000
0.000000 0.000000 0.000000
0.000000 0.000000 0.000000
0.000000 0.000000 0.000000
0.000000 0.000000 0.000000
0.000000 0.000000 0.000000
0.000000 0.000000 0.000000
0.000000 0.000000 0.000000
0.000000 0.000000 0.000000
0.000000 0.000000 0.000000
0.000000 0.000000 0.000000
0.000000 0.000000 0.000000
0.000000 0.000000 0.000000
0.000000 0.000000 0.000000
0.000000 0.000000 0.000000
0.000000 0.000000 0.000000
0.000000 0.000000 0.000000
0.000000 0.000000 0.000000
0.000000 0.000000 0.000000
0.000000 0.000000 0.000000
0.000000 0.000000 0.000000
0.000000 0.000000 0.000000
0.000000 0.000000 0.000000
0.000000 0.000000 0.000000
0.000000 0.000000 0.000000
0.000000 0.000000 0.000000
0.000000 0.000000 0.000000
0.000000 0.000000 0.000000
0.000000 0.000000 0.000000
0.000000 0.000000 0.000000
0.000000 0.000000 0.000000
0.000000 0.000000 0.000000
0.000000 0.000000 0.000000
0.000000 0.000000 0.000000
0.000000 0.000000 0.000000
0.000000 0.000000 0.000000
0.000000 0.000000 0.000000
0.000000 0.000000 0.000000
0.000000 0.000000 0.000000
0.000000 0.000000 0.000000
0.000000 0.000000 0.000000
0.000000 0.000000 0.000000
0.000000 0.000000 0.000000
0.000000 0.000000 0.000000
0.000000 0.000000 0.000000
0.000000 0.000000 0.000000
0.000000 0.000000 0.000000
0.000000 0.000000 0.000000
0.000000 0.000000 0.000000
0.000000 0.000000 0.000000
0.000000 0.000000 0.000000
0.000000 0.000000 0.000000
0.000000 0.000000 0.000000
0.000000 0.000000 0.000000
0.000000 0.000000 0.000000
0.000000 0.000000 0.000000
0.000000 0.000000 0.000000
0.000000 0.000000 0.000000
0.000000 0.000000 0.000000
0.000000 0.000000 0.000000
0.000000 0.000000 0.000000
0.000000 0.000000 0.000000
0.000000 0.000000 0.000000
0.000000 0.000000 0.000000
0.000000 0.000000 0.000000
0.000000 0.000000 0.000000
0.000000 0.000000 0.000000
0.000000 0.000000 0.000000
0.000000 0.000000 0.000000
0.000000 0.000000 0.000000
0.000000 0.000000 0.000000
0.000000 0.000000 0.000000
0.000000 0.000000 0.000000
0.000000 0.000000 0.000000
0.000000 0.000000 0.000000
0.000000 0.000000 0.000000
0.000000 0.000000 0.000000
0.000000 0.000000 0.000000
0.000000 0.000000 0.000000
0.000000 0.000000 0.000000
0.000000 0.000000 0.000000
0.000000 0.000000 0.000000
0.000000 0.000000 0.000000
0.000000 0.000000 0.000000
0.000000 0.000000 0.000000
0.000000 0.000000 0.000000
0.000000 0.000000 0.000000
0.000000 0.000000 0.000000
0.000000 0.000000 0.000000
0.000000 0.000000 0.000000
0.000000 0.000000 0.000000
0.000000 0.000000 0.000000
0.000000 0.000000 0.000000
0.000000 0.000000 0.000000
0.000000 0.000000 0.000000
0.000000 0.000000 0.000000
0.000000 0.000000 0.000000
0.000000 0.000000 0.000000
0.000000 0.000000 0.000000
0.000000 0.000000 0.000000
0.000000 0.000000 0.000000
0.000000 0.000000 0.000000
0.000000 0.000000 0.000000
0.000000 0.000000 0.000000
0.000000 0.000000 0.000000
0.000000 0.000000 0.000000
0.000000 0.000000 0.000000
0.000000 0.000000 0.000000
0.000000 0.000000 0.000000
0.000000 0.000000 0.000000
0.000000 0.000000 0.000000
0.000000 0.000000 0.000000
0.000000 0.000000 0.000000
0.000000 0.000000 0.000000
0.000000 0.000000 0.000000
0.000000 0.000000 0.000000
0.000000 0.000000 0.000000
0.000000 0.000000 0.000000
0.000000 0.000000 0.000000
0.000000 0.000000 0.000000
0.000000 0.000000 0.000000
0.000000 0.000000 0.000000
0.000000 0.000000 0.000000
0.000000 0.000000 0.000000
0.000000 0.000000 0.000000
0.000000 0.000000 0.000000
0.000000 0.000000 0.000000
0.000000 0.000000 0.000000
0.000000 0.000000 0.000000
0.000000 0.000000 0.000000
0.000000 0.000000 0.000000
0.000000 0.000000 0.000000
0.000000 0.000000 0.000000
0.000000 0.000000 0.000000
0.000000 0.000000 0.000000
0.000000 0.000000 0.000000
0.000000 0.000000 0.000000
0.000000 0.000000 0.000000
0.000000 0.000000 0.000000
0.000000 0.000000 0.000000
0.000000 0.000000 0.000000
0.000000 0.000000 0.000000
0.000000 0.000000 0.000000
0.000000 0.000000 0.000000
0.000000 0.000000 0.000000
0.000000 0.000000 0.000000
0.000000 0.000000 0.000000
0.000000 0.000000 0.000000
0.000000 0.000000 0.000000
0.000000 0.000000 0.000000
0.000000 0.000000 0.000000
0.000000 0.000000 0.000000
0.000000 0.000000 0.000000
0.000000 0.000000 0.000000
0.000000 0.000000 0.000000
0.000000 0.000000 0.000000
0.000000 0.000000 0.000000
0.000000 0.000000 0.000000
0.000000 0.000000 0.000000
0.000000 0.000000 0.000000
0.000000 0.000000 0.000000
0.000000 0.000000 0.000000
0.000000 0.000000 0.000000
0.000000 0.000000 0.000000
0.000000 0.000000 0.000000
0.000000 0.000000 0.000000
0.000000 0.000000 0.000000
0.000000 0.000000 0.000000
0.000000 0.000000 0.000000
0.000000 0.000000 0.000000
0.000000 0.000000 0.000000
0.000000 0.000000 0.000000
0.000000 0.000000 0.000000
0.000000 0.000000 0.000000
0.000000 0.000000 0.000000
0.000000 0.000000 0.000000
0.000000 0.000000 0.000000
0.000000 0.000000 0.000000
0.000000 0.000000 0.000000
0.000000 0.000000 0.000000
0.000000 0.000000 0.000000
0.000000 0.000000 0.000000
0.000000 0.000000 0.000000
0.000000 0.000000 0.000000
0.000000 0.000000 0.000000
0.000000 0.000000 0.000000
0.000000 0.000000 0.000000
0.000000 0.000000 0.000000
0.000000 0.000000 0.000000
0.000000 0.000000 -50.000000
-50.000000 0.000000 -50.000000
-43.332120 0.000000 -45.688693
-45.491397 0.000000 -43.331955
-50.000000 0.000000 -50.000000
-36.664168 0.000000 -36.664258
-50.000000 0.000000 -45.081449
-39.969959 0.000000 -40.027670
-44.152533 0.000000 -29.996474
-50.000000 0.000000 -50.000000
-29.996336 0.000000 -44.847409
-33.449061 0.000000 -33.145301
-44.675964 0.000000 -39.869536
-36.787176 0.000000 -35.129151
-39.801643 0.000000 -23.329176
-50.000000 0.000000 -26.539575
-44.666870 0.000000 -50.000000
-23.329054 0.000000 -44.665406
-26.804129 0.000000 -39.364538
-30.225881 0.000000 -29.606835
-39.359627 0.000000 -33.368801
-33.655755 0.000000 -50.000000
-16.662568 0.000000 -16.662773
-50.000000 0.000000 -9.997272
