# vtk DataFile Version 2.0
CellBP Time: 3.44
ASCII
DATASET UNSTRUCTURED_GRID
POINTS 320 double
-50.000000 -50.000000 0.000000
-50.000000 -43.332741 0.000000
-45.688471 -45.491216 0.000000
-43.332653 -50.000000 0.000000
-50.000000 -36.665447 0.000000
-36.665474 -50.000000 0.000000
-45.081210 -39.969834 0.000000
-40.027321 -44.152346 0.000000
-29.998250 -50.000000 0.000000
-50.000000 -29.998209 0.000000
-44.847176 -33.448955 0.000000
-33.145020 -44.675761 0.000000
-39.869238 -36.787041 0.000000
-35.128792 -39.801395 0.000000
-23.331262 -50.000000 0.000000
-26.539270 -44.666777 0.000000
-50.000000 -23.331238 0.000000
-44.665309 -26.803980 0.000000
-39.364322 -30.225734 0.000000
-29.606427 -39.359433 0.000000
-33.368390 -33.655528 0.000000
-50.000000 -16.664652 0.000000
-16.664715 -50.000000 0.000000
-9.998620 -50.000000 0.000000
-19.965026 -44.588745 0.000000
-23.216004 -39.114709 0.000000
-44.691860 -20.096969 0.000000
-39.367880 -23.528163 0.000000
-34.106224 -26.937051 0.000000
-26.384562 -33.577357 0.000000
-29.156347 -28.926707 0.000000
-50.000000 -9.998404 0.000000
-44.666334 -13.410234 0.000000
-50.000000 -3.332583 0.000000
-3.332895 -50.000000 0.000000
3.332738 -50.000000 0.000000
-13.343798 -44.598974 0.000000
-6.684811 -44.610622 0.000000
-16.693809 -39.153217 0.000000
-20.107052 -33.342648 0.000000
-39.338146 -16.804707 0.000000
-34.018811 -20.274602 0.000000
-28.781105 -23.449120 0.000000
-23.510613 -27.350548 0.000000
-44.635394 -6.705545 0.000000
-39.293091 -10.101779 0.000000
-50.000000 3.333017 0.000000
-44.626672 -0.015535 0.000000
9.998554 -50.000000 0.000000
16.664730 -50.000000 0.000000
-0.016139 -44.618702 0.000000
6.651678 -44.635411 0.000000
-10.044802 -39.222559 0.000000
-3.368257 -39.220314 0.000000
-13.484290 -33.798603 0.000000
-16.709275 -28.271516 0.000000
-33.948007 -13.513830 0.000000
-28.602155 -16.892230 0.000000
-23.292057 -20.313131 0.000000
-18.660630 -23.283612 0.000000
-39.267457 -3.392740 0.000000
-33.904522 -6.796745 0.000000
-50.000000 9.998698 0.000000
-44.606679 6.673553 0.000000
-39.260824 3.325724 0.000000
-50.000000 16.664771 0.000000
23.331274 -50.000000 0.000000
29.998190 -50.000000 0.000000
13.317563 -44.662953 0.000000
19.989701 -44.700105 0.000000
3.307650 -39.245123 0.000000
9.971823 -39.290331 0.000000
-6.735465 -33.791344 0.000000
-0.032239 -33.829520 0.000000
-10.095955 -28.292915 0.000000
-13.122713 -22.897162 0.000000
-28.532060 -10.214589 0.000000
-23.067228 -13.663519 0.000000
-16.978207 -17.210923 0.000000
-33.884497 -0.065465 0.000000
-28.562992 -3.579509 0.000000
-44.564066 13.380654 0.000000
-39.190005 10.015118 0.000000
-33.905643 6.616042 0.000000
-50.000000 23.331187 0.000000
-44.557522 20.138332 0.000000
-50.000000 29.998270 0.000000
36.665382 -50.000000 0.000000
43.332665 -50.000000 0.000000
26.663313 -44.745336 0.000000
33.315345 -44.876030 0.000000
16.631678 -39.357685 0.000000
23.328293 -39.437124 0.000000
6.642881 -33.879538 0.000000
13.290620 -33.965443 0.000000
-3.345994 -28.363304 0.000000
3.357713 -28.451217 0.000000
-6.626108 -22.845440 0.000000
-9.966092 -17.315105 0.000000
-23.182666 -7.014504 0.000000
-17.812324 -10.334848 0.000000
-12.837798 -12.600085 0.000000
-28.607428 3.088609 0.000000
-23.265804 -0.469096 0.000000
-39.038727 16.746413 0.000000
-28.720675 9.926096 0.000000
-33.761211 13.318214 0.000000
-44.521700 26.717075 0.000000
-38.467764 23.892620 0.000000
-44.632480 33.085725 0.000000
-50.000000 36.665701 0.000000
-50.000000 43.332825 0.000000
39.922426 -45.069656 0.000000
45.474770 -45.660527 0.000000
50.000000 -50.000000 0.000000
36.626822 -39.982013 0.000000
30.012409 -39.458654 0.000000
19.904185 -34.092865 0.000000
26.585051 -34.319545 0.000000
9.988613 -28.513083 0.000000
16.610725 -28.660166 0.000000
0.051209 -22.961290 0.000000
6.812123 -23.156615 0.000000
-3.399177 -17.296955 0.000000
-6.832701 -10.953182 0.000000
-17.875901 -3.820452 0.000000
-12.550768 -7.034695 0.000000
-23.309288 6.071389 0.000000
-18.035607 2.446215 0.000000
-23.122919 12.095975 0.000000
-33.572130 19.788938 0.000000
-27.941535 16.885896 0.000000
-33.293027 24.722842 0.000000
-39.473758 30.053014 0.000000
-35.160555 28.137635 0.000000
-39.816182 35.101558 0.000000
-43.991787 39.982399 0.000000
-45.431073 45.685283 0.000000
-50.000000 50.000000 0.000000
44.117311 -39.899110 0.000000
50.000000 -43.332452 0.000000
39.639491 -35.047479 0.000000
33.462924 -33.424600 0.000000
22.984909 -28.818052 0.000000
28.730999 -29.247854 0.000000
13.460737 -23.121780 0.000000
20.054865 -23.439324 0.000000
3.376373 -17.588826 0.000000
10.124822 -17.841731 0.000000
0.155418 -11.896437 0.000000
-2.139622 -6.212193 0.000000
-7.281012 -3.633453 0.000000
-12.532691 -0.805952 0.000000
-18.168295 8.573192 0.000000
-12.949576 5.196560 0.000000
-18.638545 13.751527 0.000000
-21.504162 17.494555 0.000000
-28.940896 23.158831 0.000000
-24.346343 21.554474 0.000000
-30.323730 28.634979 0.000000
-34.253601 33.375597 0.000000
-36.956009 39.578109 0.000000
-39.838709 45.102835 0.000000
-43.332644 50.000000 0.000000
44.585297 -32.972142 0.000000
50.000000 -36.665173 0.000000
39.129327 -29.581917 0.000000
33.500630 -26.367705 0.000000
27.182990 -23.322119 0.000000
23.066560 -18.647885 0.000000
16.990948 -16.981092 0.000000
6.704588 -12.202948 0.000000
12.363049 -12.735148 0.000000
-3.374984 -1.489198 0.000000
3.864445 -6.898494 0.000000
1.023041 -2.120784 0.000000
-6.935030 2.297619 0.000000
-8.339090 7.742783 0.000000
-12.843906 11.930311 0.000000
-15.691642 17.699645 0.000000
-19.287339 22.982084 0.000000
-24.170981 27.354636 0.000000
-27.286355 33.625938 0.000000
-30.406704 39.161141 0.000000
-33.447857 44.738869 0.000000
-36.665329 50.000000 0.000000
44.547735 -26.499980 0.000000
50.000000 -29.997932 0.000000
39.040014 -23.179302 0.000000
33.449657 -19.899988 0.000000
28.039870 -16.573862 0.000000
22.681528 -13.123967 0.000000
17.176113 -9.904774 0.000000
10.858206 -6.611710 0.000000
-1.355725 2.314133 0.000000
6.178720 -1.725343 0.000000
2.898264 1.596842 0.000000
-3.497096 7.084957 0.000000
-6.312888 12.435795 0.000000
-9.629370 17.706880 0.000000
-13.167429 23.113475 0.000000
-17.316728 28.185130 0.000000
-20.570825 33.474311 0.000000
-23.665992 39.063959 0.000000
-26.831023 44.585360 0.000000
-29.998252 50.000000 0.000000
44.528677 -19.930735 0.000000
50.000000 -23.330990 0.000000
39.036257 -16.594140 0.000000
33.576069 -13.281240 0.000000
28.149926 -9.965008 0.000000
22.725278 -6.604683 0.000000
17.264585 -3.336130 0.000000
11.905256 0.204868 0.000000
1.919312 6.247179 0.000000
6.919371 3.774627 0.000000
-0.219789 11.870161 0.000000
-3.258392 17.530597 0.000000
-6.699948 22.977227 0.000000
-10.567517 28.267377 0.000000
-13.724089 33.661228 0.000000
-16.945758 39.080272 0.000000
-20.140713 44.548410 0.000000
-23.331411 50.000000 0.000000
44.536233 -13.303855 0.000000
50.000000 -16.664487 0.000000
39.079860 -9.966774 0.000000
33.646674 -6.641204 0.000000
28.236333 -3.307783 0.000000
22.848080 0.017770 0.000000
17.536290 3.351251 0.000000
12.196922 6.589643 0.000000
6.690543 10.773394 0.000000
3.301819 17.197621 0.000000
-0.081067 22.852924 0.000000
-3.518774 28.312843 0.000000
-6.831489 33.774475 0.000000
-10.137528 39.170530 0.000000
-13.435893 44.563516 0.000000
-16.664940 50.000000 0.000000
44.554266 -6.654844 0.000000
50.000000 -9.998466 0.000000
39.123308 -3.321396 0.000000
33.713366 0.008765 0.000000
28.333256 3.344507 0.000000
23.000678 6.693844 0.000000
17.833382 10.020991 0.000000
12.656794 12.235423 0.000000
9.787494 17.233854 0.000000
6.478655 22.722395 0.000000
3.189008 28.269897 0.000000
-0.115976 33.734802 0.000000
-3.425249 39.168629 0.000000
-6.725560 44.581788 0.000000
-9.998805 50.000000 0.000000
44.575600 0.001842 0.000000
50.000000 -3.332821 0.000000
39.166869 3.331843 0.000000
33.779377 6.655587 0.000000
28.424034 9.994901 0.000000
23.046416 13.416341 0.000000
16.949538 17.023304 0.000000
12.901590 22.668946 0.000000
9.815053 28.231968 0.000000
6.604275 33.718759 0.000000
3.286534 39.164423 0.000000
-0.029921 44.584550 0.000000
-3.332939 50.000000 0.000000
44.586709 6.665547 0.000000
50.000000 3.332781 0.000000
39.198119 9.981957 0.000000
33.843443 13.276993 0.000000
28.542069 16.584589 0.000000
23.387171 20.084322 0.000000
18.531846 23.112777 0.000000
16.392949 28.298622 0.000000
13.328962 33.754763 0.000000
9.986604 39.181954 0.000000
6.666029 44.584314 0.000000
3.332838 50.000000 0.000000
44.608896 13.318039 0.000000
50.000000 9.998621 0.000000
39.251363 16.612491 0.000000
33.931926 19.862877 0.000000
28.612386 22.925998 0.000000
23.279637 27.207645 0.000000
19.901342 33.302997 0.000000
16.573891 39.040904 0.000000
13.268459 44.526715 0.000000
9.998667 50.000000 0.000000
44.632071 19.973112 0.000000
50.000000 16.664826 0.000000
39.298507 23.262208 0.000000
34.043843 26.514781 0.000000
28.965829 28.539475 0.000000
26.202440 33.410146 0.000000
23.066794 38.968818 0.000000
19.888706 44.507047 0.000000
16.664747 50.000000 0.000000
44.639834 26.643040 0.000000
50.000000 23.331377 0.000000
39.293411 29.966791 0.000000
33.212457 33.371336 0.000000
29.412221 39.045881 0.000000
26.422501 44.505984 0.000000
23.331245 50.000000 0.000000
44.775049 33.291889 0.000000
50.000000 29.998271 0.000000
39.738241 36.596374 0.000000
34.831137 39.525705 0.000000
32.833923 44.514357 0.000000
29.998130 50.000000 0.000000
44.978314 39.877939 0.000000
50.000000 36.665427 0.000000
39.734995 43.969110 0.000000
36.665304 50.000000 0.000000
45.621378 45.409892 0.000000
50.000000 43.332681 0.000000
43.332520 50.000000 0.000000
50.000000 50.000000 0.000000
CELLS 578 2312
3 1 0 2
3 0 3 2
3 4 1 6
3 6 1 2
3 3 5 7
3 3 7 2
3 6 2 7
3 9 4 10
3 10 4 6
3 5 8 11
3 7 5 11
3 10 6 12
3 12 6 7
3 7 11 13
3 7 13 12
3 8 14 15
3 11 8 15
3 16 9 17
3 17 9 10
3 17 10 18
3 18 10 12
3 11 15 19
3 13 11 19
3 18 12 20
3 13 19 20
3 20 12 13
3 14 22 24
3 15 14 24
3 15 24 25
3 19 15 25
3 21 16 26
3 26 16 17
3 26 17 27
3 27 17 18
3 27 18 28
3 28 18 20
3 19 25 29
3 19 29 20
3 28 20 30
3 30 20 29
3 31 21 32
3 32 21 26
3 22 23 36
3 24 22 36
3 23 34 37
3 36 23 37
3 24 36 38
3 25 24 38
3 25 38 39
3 29 25 39
3 32 26 40
3 40 26 27
3 40 27 41
3 41 27 28
3 41 28 42
3 42 28 30
3 29 39 43
3 29 43 30
3 42 30 43
3 33 31 44
3 44 31 32
3 44 32 45
3 45 32 40
3 46 33 47
3 47 33 44
3 34 35 50
3 37 34 50
3 35 48 51
3 50 35 51
3 36 37 52
3 38 36 52
3 37 50 53
3 52 37 53
3 38 52 54
3 39 38 54
3 39 54 55
3 43 39 55
3 45 40 56
3 56 40 41
3 56 41 57
3 57 41 42
3 57 42 58
3 58 42 43
3 43 55 59
3 43 59 58
3 47 44 60
3 60 44 45
3 60 45 61
3 61 45 56
3 62 46 63
3 63 46 47
3 63 47 64
3 64 47 60
3 48 49 68
3 51 48 68
3 49 66 69
3 68 49 69
3 50 51 70
3 53 50 70
3 51 68 71
3 70 51 71
3 52 53 72
3 54 52 72
3 53 70 73
3 72 53 73
3 54 72 74
3 55 54 74
3 55 74 75
3 59 55 75
3 61 56 76
3 76 56 57
3 76 57 77
3 77 57 58
3 77 58 78
3 59 75 78
3 78 58 59
3 64 60 79
3 79 60 61
3 79 61 80
3 80 61 76
3 65 62 81
3 81 62 63
3 81 63 82
3 82 63 64
3 82 64 83
3 83 64 79
3 84 65 85
3 85 65 81
3 66 67 89
3 69 66 89
3 67 87 90
3 89 67 90
3 68 69 91
3 71 68 91
3 69 89 92
3 91 69 92
3 70 71 93
3 73 70 93
3 71 91 94
3 93 71 94
3 72 73 95
3 74 72 95
3 73 93 96
3 95 73 96
3 74 95 97
3 75 74 97
3 75 97 98
3 78 75 98
3 80 76 99
3 99 76 77
3 99 77 100
3 100 77 78
3 100 78 101
3 98 101 78
3 83 79 102
3 102 79 80
3 102 80 103
3 103 80 99
3 85 81 104
3 104 81 82
3 105 83 102
3 104 82 106
3 106 82 83
3 106 83 105
3 86 84 107
3 107 84 85
3 107 85 108
3 108 85 104
3 109 86 107
3 110 86 109
3 87 88 112
3 90 87 112
3 112 88 113
3 88 114 113
3 90 112 115
3 89 90 116
3 92 89 116
3 116 90 115
3 91 92 117
3 94 91 117
3 92 116 118
3 117 92 118
3 93 94 119
3 96 93 119
3 94 117 120
3 119 94 120
3 95 96 121
3 97 95 121
3 96 119 122
3 121 96 122
3 97 121 123
3 98 97 123
3 98 123 124
3 98 124 101
3 103 99 125
3 125 99 100
3 125 100 126
3 126 100 101
3 126 101 124
3 105 102 127
3 127 102 103
3 127 103 128
3 128 103 125
3 129 105 127
3 108 104 130
3 130 104 106
3 130 106 131
3 131 106 105
3 131 105 129
3 108 130 132
3 109 107 133
3 133 107 108
3 133 108 134
3 108 132 134
3 135 109 133
3 111 110 136
3 136 110 109
3 136 109 135
3 137 111 136
3 138 111 137
3 112 113 139
3 115 112 139
3 114 140 113
3 140 139 113
3 139 141 115
3 116 115 142
3 118 116 142
3 142 115 141
3 117 118 143
3 120 117 143
3 118 142 144
3 143 118 144
3 119 120 145
3 122 119 145
3 120 143 146
3 145 120 146
3 121 122 147
3 123 121 147
3 122 145 148
3 147 122 148
3 123 147 149
3 124 123 149
3 124 149 150
3 151 126 124
3 124 150 151
3 128 125 152
3 152 125 126
3 152 126 151
3 129 127 153
3 153 127 128
3 128 152 154
3 153 128 154
3 155 129 153
3 131 129 156
3 156 129 155
3 132 130 157
3 130 131 157
3 157 131 158
3 131 156 158
3 132 157 159
3 132 159 134
3 135 133 160
3 160 133 134
3 160 134 159
3 136 135 161
3 135 160 161
3 162 137 136
3 161 162 136
3 163 138 137
3 162 163 137
3 139 164 141
3 140 165 139
3 139 165 164
3 141 164 166
3 141 166 142
3 166 167 142
3 144 142 167
3 167 168 144
3 143 144 168
3 146 143 168
3 168 169 146
3 145 146 170
3 148 145 170
3 170 146 169
3 147 148 171
3 149 147 171
3 148 170 172
3 171 148 172
3 173 151 150
3 149 171 174
3 150 149 174
3 150 174 175
3 150 175 173
3 154 152 176
3 152 151 176
3 176 151 173
3 154 176 177
3 155 153 178
3 177 178 154
3 154 178 153
3 156 155 179
3 155 178 179
3 180 158 156
3 179 180 156
3 181 159 157
3 180 181 158
3 181 157 158
3 182 160 159
3 181 182 159
3 183 161 160
3 182 183 160
3 184 162 161
3 184 161 183
3 185 163 162
3 184 185 162
3 164 186 166
3 165 187 164
3 164 187 186
3 166 186 188
3 166 188 167
3 167 188 189
3 167 189 168
3 168 189 190
3 168 190 169
3 169 190 191
3 169 191 170
3 192 172 170
3 170 191 192
3 192 193 172
3 171 172 193
3 174 171 193
3 194 173 175
3 176 173 194
3 175 174 195
3 193 195 174
3 195 196 175
3 175 196 194
3 197 177 176
3 194 197 176
3 198 178 177
3 197 198 177
3 199 179 178
3 198 199 178
3 200 180 179
3 199 200 179
3 201 181 180
3 200 201 180
3 202 182 181
3 201 202 181
3 203 183 182
3 202 203 182
3 204 184 183
3 203 204 183
3 205 185 184
3 204 205 184
3 186 206 188
3 187 207 186
3 186 207 206
3 188 206 208
3 188 208 189
3 189 208 209
3 189 209 190
3 190 209 210
3 190 210 191
3 191 210 211
3 191 211 192
3 192 211 212
3 192 212 193
3 193 212 213
3 193 213 195
3 214 197 194
3 214 194 196
3 195 213 215
3 195 215 196
3 196 215 214
3 216 198 197
3 214 216 197
3 217 199 198
3 216 217 198
3 218 200 199
3 217 218 199
3 219 201 200
3 218 219 200
3 220 202 201
3 219 220 201
3 221 203 202
3 220 221 202
3 222 204 203
3 221 222 203
3 223 205 204
3 222 223 204
3 206 224 208
3 207 225 206
3 206 225 224
3 208 224 226
3 208 226 209
3 209 226 227
3 209 227 210
3 210 227 228
3 210 228 211
3 211 228 229
3 211 229 212
3 212 229 230
3 212 230 213
3 213 230 231
3 213 231 215
3 232 216 214
3 215 231 232
3 232 214 215
3 233 217 216
3 232 233 216
3 234 218 217
3 233 234 217
3 235 219 218
3 234 235 218
3 236 220 219
3 235 236 219
3 237 221 220
3 236 237 220
3 238 222 221
3 237 238 221
3 239 223 222
3 238 239 222
3 224 240 226
3 225 241 224
3 224 241 240
3 226 240 242
3 226 242 227
3 227 242 243
3 227 243 228
3 228 243 244
3 228 244 229
3 244 245 229
3 229 245 230
3 230 245 246
3 230 246 231
3 231 246 247
3 231 247 232
3 248 233 232
3 248 232 247
3 249 234 233
3 248 249 233
3 250 235 234
3 249 250 234
3 251 236 235
3 250 251 235
3 252 237 236
3 251 252 236
3 253 238 237
3 252 253 237
3 254 239 238
3 253 254 238
3 240 255 242
3 241 256 240
3 240 256 255
3 242 255 257
3 242 257 243
3 243 257 258
3 243 258 244
3 244 258 259
3 244 259 245
3 245 259 260
3 245 260 246
3 246 260 261
3 246 261 247
3 248 247 261
3 262 249 248
3 261 262 248
3 263 250 249
3 262 263 249
3 264 251 250
3 263 264 250
3 265 252 251
3 264 265 251
3 266 253 252
3 265 266 252
3 267 254 253
3 266 267 253
3 255 268 257
3 256 269 255
3 255 269 268
3 257 268 270
3 257 270 258
3 258 270 271
3 258 271 259
3 259 271 272
3 259 272 260
3 260 272 273
3 260 273 261
3 274 262 261
3 261 273 274
3 275 263 262
3 274 275 262
3 276 264 263
3 275 276 263
3 277 265 264
3 276 277 264
3 278 266 265
3 277 278 265
3 279 267 266
3 278 279 266
3 268 280 270
3 269 281 268
3 268 281 280
3 270 280 282
3 270 282 271
3 271 282 283
3 271 283 272
3 283 284 272
3 272 284 273
3 285 275 274
3 273 284 285
3 285 274 273
3 286 276 275
3 285 286 275
3 287 277 276
3 286 287 276
3 288 278 277
3 287 288 277
3 289 279 278
3 288 289 278
3 280 290 282
3 281 291 280
3 280 291 290
3 282 290 292
3 282 292 283
3 283 292 293
3 283 293 284
3 284 293 294
3 284 294 285
3 295 286 285
3 295 285 294
3 296 287 286
3 295 296 286
3 297 288 287
3 296 297 287
3 298 289 288
3 297 298 288
3 290 299 292
3 291 300 290
3 290 300 299
3 292 299 301
3 292 301 293
3 293 301 302
3 293 302 294
3 294 302 295
3 303 296 295
3 303 295 302
3 304 297 296
3 303 304 296
3 305 298 297
3 304 305 297
3 299 306 301
3 300 307 299
3 299 307 306
3 301 306 308
3 301 308 302
3 309 303 302
3 302 308 309
3 310 304 303
3 309 310 303
3 311 305 304
3 310 311 304
3 306 312 308
3 307 313 306
3 306 313 312
3 314 310 309
3 308 312 314
3 314 309 308
3 315 311 310
3 314 315 310
3 312 316 314
3 313 317 312
3 312 317 316
3 318 315 314
3 318 314 316
3 317 319 316
3 319 318 316
CELL_TYPES 578
5
5
5
5
5
5
5
5
5
5
5
5
5
5
5
5
5
5
5
5
5
5
5
5
5
5
5
5
5
5
5
5
5
5
5
5
5
5
5
5
5
5
5
5
5
5
5
5
5
5
5
5
5
5
5
5
5
5
5
5
5
5
5
5
5
5
5
5
5
5
5
5
5
5
5
5
5
5
5
5
5
5
5
5
5
5
5
5
5
5
5
5
5
5
5
5
5
5
5
5
5
5
5
5
5
5
5
5
5
5
5
5
5
5
5
5
5
5
5
5
5
5
5
5
5
5
5
5
5
5
5
5
5
5
5
5
5
5
5
5
5
5
5
5
5
5
5
5
5
5
5
5
5
5
5
5
5
5
5
5
5
5
5
5
5
5
5
5
5
5
5
5
5
5
5
5
5
5
5
5
5
5
5
5
5
5
5
5
5
5
5
5
5
5
5
5
5
5
5
5
5
5
5
5
5
5
5
5
5
5
5
5
5
5
5
5
5
5
5
5
5
5
5
5
5
5
5
5
5
5
5
5
5
5
5
5
5
5
5
5
5
5
5
5
5
5
5
5
5
5
5
5
5
5
5
5
5
5
5
5
5
5
5
5
5
5
5
5
5
5
5
5
5
5
5
5
5
5
5
5
5
5
5
5
5
5
5
5
5
5
5
5
5
5
5
5
5
5
5
5
5
5
5
5
5
5
5
5
5
5
5
5
5
5
5
5
5
5
5
5
5
5
5
5
5
5
5
5
5
5
5
5
5
5
5
5
5
5
5
5
5
5
5
5
5
5
5
5
5
5
5
5
5
5
5
5
5
5
5
5
5
5
5
5
5
5
5
5
5
5
5
5
5
5
5
5
5
5
5
5
5
5
5
5
5
5
5
5
5
5
5
5
5
5
5
5
5
5
5
5
5
5
5
5
5
5
5
5
5
5
5
5
5
5
5
5
5
5
5
5
5
5
5
5
5
5
5
5
5
5
5
5
5
5
5
5
5
5
5
5
5
5
5
5
5
5
5
5
5
5
5
5
5
5
5
5
5
5
5
5
5
5
5
5
5
5
5
5
5
5
5
5
5
5
5
5
5
5
5
5
5
5
5
5
5
5
5
5
5
5
5
5
5
5
5
5
5
5
5
5
5
5
5
5
5
5
5
5
5
5
5
5
5
5
5
5
5
5
5
5
5
5
5
5
5
5
5
5
5
5
5
5
5
5
5
5
5
5
5
5
5
5
5
5
5
5
5
5
5
5
5
5
5
5
5
5
5
5
5
5
5
5
5
5
5
5
5
5
5
5
5
5
5
5
5
5
5
5
POINT_DATA 320
SCALARS theta_e float 1
LOOKUP_TABLE default
1.000001
1.000001
1.000001
1.000001
1.000001
1.000001
1.000001
1.000001
1.000001
1.000001
1.000001
1.000001
1.000001
1.000001
1.000001
1.000001
1.000001
1.000001
1.000001
1.000001
1.000001
1.000001
1.000001
1.000001
1.000001
1.000001
1.000001
1.000001
1.000001
1.000001
1.000001
1.000001
1.000001
1.000001
1.000001
1.000001
1.000001
1.000001
1.000001
1.000001
1.000001
1.000001
1.000001
1.000001
1.000001
1.000001
1.000001
1.000001
1.000001
1.000001
1.000001
1.000001
1.000001
1.000001
1.000001
1.000001
1.000001
1.000001
1.000001
1.000001
1.000001
1.000001
1.000001
1.000001
1.000001
1.000001
1.000001
1.000001
1.000001
1.000001
1.000001
1.000001
1.000001
1.000001
1.000001
1.000001
1.000001
1.000001
1.000001
1.000001
1.000001
1.000001
1.000001
1.000001
1.000001
1.000001
1.000001
1.000001
1.000001
1.000001
1.000001
1.000001
1.000001
1.000001
1.000001
1.000001
1.000001
1.000001
1.000001
1.000001
1.000001
1.000001
1.000001
1.000001
1.000001
1.000001
1.000001
1.000001
1.000001
1.000001
1.000001
1.000001
1.000001
1.000001
1.000001
1.000001
1.000001
1.000001
1.000001
1.000001
1.000001
1.000001
1.000001
1.000001
0.999996
1.000002
1.000000
1.000001
1.000001
1.000001
1.000001
1.000001
1.000001
1.000001
1.000001
1.000001
1.000001
1.000001
1.000001
1.000001
1.000001
1.000001
1.000001
1.000001
1.000001
1.000001
1.000001
1.000001
1.000001
0.999995
0.999980
0.999987
0.999997
1.000001
0.999998
1.000001
1.000001
1.000001
1.000001
1.000001
1.000001
1.000001
1.000001
1.000001
1.000001
1.000001
1.000001
1.000001
1.000001
1.000001
1.000001
0.999999
1.000001
0.999972
0.999985
0.999972
0.999983
0.999995
1.000001
1.000001
1.000001
1.000001
1.000001
1.000001
1.000001
1.000001
1.000001
1.000001
1.000001
1.000001
1.000001
1.000001
1.000001
0.999995
0.999972
0.999979
0.999972
0.999983
0.999998
1.000001
1.000001
1.000001
1.000001
1.000001
1.000001
1.000001
1.000001
1.000001
1.000001
1.000001
1.000001
1.000001
1.000001
0.999994
0.999979
0.999985
0.999994
1.000001
1.000001
1.000001
1.000001
1.000001
1.000001
1.000001
1.000001
1.000001
1.000001
1.000001
1.000001
1.000001
1.000001
0.999998
0.999995
1.000001
1.000000
1.000001
1.000001
1.000001
1.000001
1.000001
1.000001
1.000001
1.000001
1.000001
1.000001
1.000001
1.000001
1.000001
1.000001
1.000001
1.000001
1.000001
1.000001
1.000001
1.000001
1.000001
1.000001
1.000001
1.000001
1.000001
1.000001
1.000001
1.000001
1.000001
1.000001
1.000001
1.000001
1.000001
1.000001
1.000001
1.000001
1.000001
1.000001
1.000001
1.000001
1.000001
1.000001
1.000001
1.000001
1.000001
1.000001
1.000001
1.000001
1.000001
1.000001
1.000001
1.000001
1.000001
1.000001
1.000001
1.000001
1.000001
1.000001
1.000001
1.000001
1.000001
1.000001
1.000001
1.000001
1.000001
1.000001
1.000001
1.000001
1.000001
1.000001
1.000001
1.000001
1.000001
1.000001
1.000001
1.000001
1.000001
1.000001
1.000001
1.000001
1.000001
1.000001
1.000001
1.000001
1.000001
VECTORS fa_u float
0.000000 0.000000 0.000000
0.000000 0.000000 0.000000
0.000000 0.000000 0.000000
0.000000 0.000000 0.000000
0.000000 0.000000 0.000000
0.000000 0.000000 0.000000
0.000000 0.000000 0.000000
0.000000 0.000000 0.000000
0.000000 0.000000 0.000000
0.000000 0.000000 0.000000
0.000000 0.000000 0.000000
0.000000 0.000000 0.000000
0.000000 0.000000 0.000000
0.000000 0.000000 0.000000
0.000000 0.000000 0.000000
0.000000 0.000000 0.000000
0.000000 0.000000 0.000000
0.000000 0.000000 0.000000
0.000000 0.000000 0.000000
0.000000 0.000000 0.000000
0.000000 0.000000 0.000000
0.000000 0.000000 0.000000
0.000000 0.000000 0.000000
0.000000 0.000000 0.000000
0.000000 0.000000 0.000000
0.000000 0.000000 0.000000
0.000000 0.000000 0.000000
0.000000 0.000000 0.000000
0.000000 0.000000 0.000000
0.000000 0.000000 0.000000
0.000000 0.000000 0.000000
0.000000 0.000000 0.000000
0.000000 0.000000 0.000000
0.000000 0.000000 0.000000
0.000000 0.000000 0.000000
0.000000 0.000000 0.000000
0.000000 0.000000 0.000000
0.000000 0.000000 0.000000
0.000000 0.000000 0.000000
0.000000 0.000000 0.000000
0.000000 0.000000 0.000000
0.000000 0.000000 0.000000
0.000000 0.000000 0.000000
0.000000 0.000000 0.000000
0.000000 0.000000 0.000000
0.000000 0.000000 0.000000
0.000000 0.000000 0.000000
0.000000 0.000000 0.000000
0.000000 0.000000 0.000000
0.000000 0.000000 0.000000
0.000000 0.000000 0.000000
0.000000 0.000000 0.000000
0.000000 0.000000 0.000000
0.000000 0.000000 0.000000
0.000000 0.000000 0.000000
0.000000 0.000000 0.000000
0.000000 0.000000 0.000000
0.000000 0.000000 0.000000
0.000000 0.000000 0.000000
0.000000 0.000000 0.000000
0.000000 0.000000 0.000000
0.000000 0.000000 0.000000
0.000000 0.000000 0.000000
0.000000 0.000000 0.000000
0.000000 0.000000 0.000000
0.000000 0.000000 0.000000
0.000000 0.000000 0.000000
0.000000 0.000000 0.000000
0.000000 0.000000 0.000000
0.000000 0.000000 0.000000
0.000000 0.000000 0.000000
0.000000 0.000000 0.000000
0.000000 0.000000 0.000000
0.000000 0.000000 0.000000
0.000000 0.000000 0.000000
0.000000 0.000000 0.000000
0.000000 0.000000 0.000000
0.000000 0.000000 0.000000
0.000000 0.000000 0.000000
0.000000 0.000000 0.000000
0.000000 0.000000 0.000000
0.000000 0.000000 0.000000
0.000000 0.000000 0.000000
0.000000 0.000000 0.000000
0.000000 0.000000 0.000000
0.000000 0.000000 0.000000
0.000000 0.000000 0.000000
0.000000 0.000000 0.000000
0.000000 0.000000 0.000000
0.000000 0.000000 0.000000
0.000000 0.000000 0.000000
0.000000 0.000000 0.000000
0.000000 0.000000 0.000000
0.000000 0.000000 0.000000
0.000000 0.000000 0.000000
0.000000 0.000000 0.000000
0.000000 0.000000 0.000000
0.000000 0.000000 0.000000
0.000000 0.000000 0.000000
0.000000 0.000000 0.000000
0.000000 0.000000 0.000000
0.000000 0.000000 0.000000
0.000000 0.000000 0.000000
0.000000 0.000000 0.000000
0.000000 0.000000 0.000000
0.000000 0.000000 0.000000
0.000000 0.000000 0.000000
0.000000 0.000000 0.000000
0.000000 0.000000 0.000000
0.000000 0.000000 0.000000
0.000000 0.000000 0.000000
0.000000 0.000000 0.000000
0.000000 0.000000 0.000000
0.000000 0.000000 0.000000
0.000000 0.000000 0.000000
0.000000 0.000000 0.000000
0.000000 0.000000 0.000000
0.000000 0.000000 0.000000
0.000000 0.000000 0.000000
0.000000 0.000000 0.000000
0.000000 0.000000 0.000000
0.000000 0.000000 0.000000
0.000000 0.000000 0.000000
0.000000 0.000000 0.000000
0.000000 0.000000 0.000000
0.000000 0.000000 0.000000
0.000000 0.000000 0.000000
0.000000 0.000000 0.000000
0.000000 0.000000 0.000000
0.000000 0.000000 0.000000
0.000000 0.000000 0.000000
0.000000 0.000000 0.000000
0.000000 0.000000 0.000000
0.000000 0.000000 0.000000
0.000000 0.000000 0.000000
0.000000 0.000000 0.000000
0.000000 0.000000 0.000000
0.000000 0.000000 0.000000
0.000000 0.000000 0.000000
0.000000 0.000000 0.000000
0.000000 0.000000 0.000000
0.000000 0.000000 0.000000
0.000000 0.000000 0.000000
0.000000 0.000000 0.000000
0.000000 0.000000 0.000000
0.000000 0.000000 0.000000
0.000000 0.000000 0.000000
0.000000 0.000000 0.000000
0.000000 0.000000 0.000000
0.000000 0.000000 0.000000
0.000000 0.000000 0.000000
0.000000 0.000000 0.000000
0.000000 0.000000 0.000000
0.000000 0.000000 0.000000
0.000000 0.000000 0.000000
0.000000 0.000000 0.000000
0.000000 0.000000 0.000000
0.000000 0.000000 0.000000
0.000000 0.000000 0.000000
0.000000 0.000000 0.000000
0.000000 0.000000 0.000000
0.000000 0.000000 0.000000
0.000000 0.000000 0.000000
0.000000 0.000000 0.000000
0.000000 0.000000 0.000000
0.000000 0.000000 0.000000
0.000000 0.000000 0.000000
0.000000 0.000000 0.000000
0.000000 0.000000 0.000000
0.000000 0.000000 0.000000
0.000000 0.000000 0.000000
0.000000 0.000000 0.000000
0.000000 0.000000 0.000000
0.000000 0.000000 0.000000
0.000000 0.000000 0.000000
0.000000 0.000000 0.000000
0.000000 0.000000 0.000000
0.000000 0.000000 0.000000
0.000000 0.000000 0.000000
0.000000 0.000000 0.000000
0.000000 0.000000 0.000000
0.000000 0.000000 0.000000
0.000000 0.000000 0.000000
0.000000 0.000000 0.000000
0.000000 0.000000 0.000000
0.000000 0.000000 0.000000
0.000000 0.000000 0.000000
0.000000 0.000000 0.000000
0.000000 0.000000 0.000000
0.000000 0.000000 0.000000
0.000000 0.000000 0.000000
0.000000 0.000000 0.000000
0.000000 0.000000 0.000000
0.000000 0.000000 0.000000
0.000000 0.000000 0.000000
0.000000 0.000000 0.000000
0.000000 0.000000 0.000000
0.000000 0.000000 0.000000
0.000000 0.000000 0.000000
0.000000 0.000000 0.000000
0.000000 0.000000 0.000000
0.000000 0.000000 0.000000
0.000000 0.000000 0.000000
0.000000 0.000000 0.000000
0.000000 0.000000 0.000000
0.000000 0.000000 0.000000
0.000000 0.000000 0.000000
0.000000 0.000000 0.000000
0.000000 0.000000 0.000000
0.000000 0.000000 0.000000
0.000000 0.000000 0.000000
0.000000 0.000000 0.000000
0.000000 0.000000 0.000000
0.000000 0.000000 0.000000
0.000000 0.000000 0.000000
0.000000 0.000000 0.000000
0.000000 0.000000 0.000000
0.000000 0.000000 0.000000
0.000000 0.000000 0.000000
0.000000 0.000000 0.000000
0.000000 0.000000 0.000000
0.000000 0.000000 0.000000
0.000000 0.000000 0.000000
0.000000 0.000000 0.000000
0.000000 0.000000 0.000000
0.000000 0.000000 0.000000
0.000000 0.000000 0.000000
0.000000 0.000000 0.000000
0.000000 0.000000 0.000000
0.000000 0.000000 0.000000
0.000000 0.000000 0.000000
0.000000 0.000000 0.000000
0.000000 0.000000 0.000000
0.000000 0.000000 0.000000
0.000000 0.000000 0.000000
0.000000 0.000000 0.000000
0.000000 0.000000 0.000000
0.000000 0.000000 0.000000
0.000000 0.000000 0.000000
0.000000 0.000000 0.000000
0.000000 0.000000 0.000000
0.000000 0.000000 0.000000
0.000000 0.000000 0.000000
0.000000 0.000000 0.000000
0.000000 0.000000 0.000000
0.000000 0.000000 0.000000
0.000000 0.000000 0.000000
0.000000 0.000000 0.000000
0.000000 0.000000 0.000000
0.000000 0.000000 0.000000
0.000000 0.000000 0.000000
0.000000 0.000000 0.000000
0.000000 0.000000 0.000000
0.000000 0.000000 0.000000
0.000000 0.000000 0.000000
0.000000 0.000000 0.000000
0.000000 0.000000 0.000000
0.000000 0.000000 0.000000
0.000000 0.000000 0.000000
0.000000 0.000000 0.000000
0.000000 0.000000 0.000000
0.000000 0.000000 0.000000
0.000000 0.000000 0.000000
0.000000 0.000000 0.000000
0.000000 0.000000 0.000000
0.000000 0.000000 0.000000
0.000000 0.000000 0.000000
0.000000 0.000000 0.000000
0.000000 0.000000 0.000000
0.000000 0.000000 0.000000
0.000000 0.000000 0.000000
0.000000 0.000000 0.000000
0.000000 0.000000 0.000000
0.000000 0.000000 0.000000
0.000000 0.000000 0.000000
0.000000 0.000000 0.000000
0.000000 0.000000 0.000000
0.000000 0.000000 0.000000
0.000000 0.000000 0.000000
0.000000 0.000000 0.000000
0.000000 0.000000 0.000000
0.000000 0.000000 0.000000
0.000000 0.000000 0.000000
0.000000 0.000000 0.000000
0.000000 0.000000 0.000000
0.000000 0.000000 0.000000
0.000000 0.000000 0.000000
0.000000 0.000000 0.000000
0.000000 0.000000 0.000000
0.000000 0.000000 0.000000
0.000000 0.000000 0.000000
0.000000 0.000000 0.000000
0.000000 0.000000 0.000000
0.000000 0.000000 0.000000
0.000000 0.000000 0.000000
0.000000 0.000000 0.000000
0.000000 0.000000 -50.000000
-50.000000 0.000000 -50.000000
-43.332741 0.000000 -45.688471
-45.491216 0.000000 -43.332653
-50.000000 0.000000 -50.000000
-36.665447 0.000000 -36.665474
-50.000000 0.000000 -45.081210
-39.969834 0.000000 -40.027321
-44.152346 0.000000 -29.998250
-50.000000 0.000000 -50.000000
-29.998209 0.000000 -44.847176
-33.448955 0.000000 -33.145020
-44.675761 0.000000 -39.869238
-36.787041 0.000000 -35.128792
-39.801395 0.000000 -23.331262
-50.000000 0.000000 -26.539270
-44.666777 0.000000 -50.000000
-23.331238 0.000000 -44.665309
-26.803980 0.000000 -39.364322
-30.225734 0.000000 -29.606427
-39.359433 0.000000 -33.368390
-33.655528 0.000000 -50.000000
-16.664652 0.000000 -16.664715
-50.000000 0.000000 -9.998620
