# vtk DataFile Version 2.0
CellBP Time: 5.08
ASCII
DATASET UNSTRUCTURED_GRID
POINTS 320 double
-50.000000 -50.000000 0.000000
-50.000000 -43.332493 0.000000
-45.688559 -45.491288 0.000000
-43.332374 -50.000000 0.000000
-50.000000 -36.664934 0.000000
-36.664988 -50.000000 0.000000
-45.081306 -39.969882 0.000000
-40.027459 -44.152421 0.000000
-29.997536 -50.000000 0.000000
-50.000000 -29.997453 0.000000
-44.847271 -33.448995 0.000000
-33.145130 -44.675844 0.000000
-39.869359 -36.787094 0.000000
-35.128935 -39.801496 0.000000
-23.330417 -50.000000 0.000000
-26.539387 -44.666817 0.000000
-50.000000 -23.330350 0.000000
-44.665351 -26.804034 0.000000
-39.364412 -30.225791 0.000000
-29.606589 -39.359514 0.000000
-33.368557 -33.655621 0.000000
-50.000000 -16.663795 0.000000
-16.663921 -50.000000 0.000000
-9.998059 -50.000000 0.000000
-19.965161 -44.588729 0.000000
-23.216123 -39.114740 0.000000
-44.691839 -20.097020 0.000000
-39.367921 -23.528175 0.000000
-34.106331 -26.937093 0.000000
-26.384722 -33.577477 0.000000
-29.156514 -28.926806 0.000000
-50.000000 -9.997723 0.000000
-44.666316 -13.410273 0.000000
-50.000000 -3.332259 0.000000
-3.332716 -50.000000 0.000000
3.332497 -50.000000 0.000000
-13.343939 -44.598924 0.000000
-6.684891 -44.610544 0.000000
-16.693914 -39.153156 0.000000
-20.107134 -33.342639 0.000000
-39.338128 -16.804638 0.000000
-34.018947 -20.274534 0.000000
-28.781300 -23.449192 0.000000
-23.510750 -27.350826 0.000000
-44.635331 -6.705506 0.000000
-39.293108 -10.101712 0.000000
-50.000000 3.332887 0.000000
-44.626578 -0.015425 0.000000
9.997968 -50.000000 0.000000
16.663944 -50.000000 0.000000
-0.016152 -44.618634 0.000000
6.651754 -44.635368 0.000000
-10.044889 -39.222535 0.000000
-3.368273 -39.220248 0.000000
-13.484319 -33.798506 0.000000
-16.709047 -28.271577 0.000000
-33.947966 -13.513586 0.000000
-28.602516 -16.892079 0.000000
-23.292500 -20.313254 0.000000
-18.660889 -23.284225 0.000000
-39.267381 -3.392625 0.000000
-33.904499 -6.796700 0.000000
-50.000000 9.998149 0.000000
-44.606576 6.673722 0.000000
-39.260703 3.325810 0.000000
-50.000000 16.663970 0.000000
23.330435 -50.000000 0.000000
29.997452 -50.000000 0.000000
13.317713 -44.662934 0.000000
19.989859 -44.700096 0.000000
3.307654 -39.245109 0.000000
9.971878 -39.290357 0.000000
-6.735594 -33.791347 0.000000
-0.032171 -33.829467 0.000000
-10.095991 -28.292571 0.000000
-13.122702 -22.896457 0.000000
-28.531678 -10.214252 0.000000
-23.067654 -13.663656 0.000000
-16.978873 -17.212012 0.000000
-33.884293 -0.065449 0.000000
-28.562830 -3.579892 0.000000
-44.563994 13.380871 0.000000
-39.189908 10.015216 0.000000
-33.905510 6.616093 0.000000
-50.000000 23.330278 0.000000
-44.557400 20.138505 0.000000
-50.000000 29.997538 0.000000
36.664857 -50.000000 0.000000
43.332393 -50.000000 0.000000
26.663460 -44.745369 0.000000
33.315452 -44.876104 0.000000
16.631735 -39.357677 0.000000
23.328385 -39.437158 0.000000
6.642956 -33.879571 0.000000
13.290558 -33.965431 0.000000
-3.346226 -28.363590 0.000000
3.358138 -28.451201 0.000000
-6.626213 -22.845094 0.000000
-9.963638 -17.315286 0.000000
-23.181215 -7.014220 0.000000
-17.813426 -10.334819 0.000000
-12.838046 -12.605508 0.000000
-28.607342 3.088705 0.000000
-23.266348 -0.469556 0.000000
-39.038535 16.746398 0.000000
-28.720268 9.925923 0.000000
-33.760920 13.318085 0.000000
-44.521708 26.717255 0.000000
-38.467774 23.892726 0.000000
-44.632650 33.085910 0.000000
-50.000000 36.665293 0.000000
-50.000000 43.332611 0.000000
39.922514 -45.069729 0.000000
45.474872 -45.660610 0.000000
50.000000 -50.000000 0.000000
36.626901 -39.982074 0.000000
30.012520 -39.458708 0.000000
19.904213 -34.092938 0.000000
26.585118 -34.319609 0.000000
9.988532 -28.512831 0.000000
16.610618 -28.660351 0.000000
0.050752 -22.962527 0.000000
6.812131 -23.155679 0.000000
-3.398288 -17.296965 0.000000
-6.815911 -10.916230 0.000000
-17.874529 -3.816046 0.000000
-12.549511 -7.033936 0.000000
-23.308540 6.070255 0.000000
-18.034446 2.441507 0.000000
-23.123387 12.096191 0.000000
-33.572139 19.788956 0.000000
-27.941664 16.886208 0.000000
-33.293192 24.722989 0.000000
-39.473964 30.053246 0.000000
-35.160794 28.137790 0.000000
-39.816396 35.101732 0.000000
-43.991899 39.982603 0.000000
-45.431135 45.685412 0.000000
-50.000000 50.000000 0.000000
44.117403 -39.899228 0.000000
50.000000 -43.332083 0.000000
39.639591 -35.047564 0.000000
33.463000 -33.424669 0.000000
22.984983 -28.818151 0.000000
28.731068 -29.247922 0.000000
13.460801 -23.121801 0.000000
20.054929 -23.439625 0.000000
3.370195 -17.589943 0.000000
10.123673 -17.842623 0.000000
0.161811 -11.840383 0.000000
-2.132121 -6.184807 0.000000
-7.217406 -3.597493 0.000000
-12.484205 -0.807260 0.000000
-18.171398 8.573224 0.000000
-12.941664 5.196531 0.000000
-18.638116 13.751202 0.000000
-21.503861 17.494248 0.000000
-28.941031 23.159147 0.000000
-24.346406 21.554330 0.000000
-30.323927 28.635144 0.000000
-34.253783 33.375674 0.000000
-36.956103 39.578163 0.000000
-39.838750 45.102924 0.000000
-43.332352 50.000000 0.000000
44.585380 -32.972233 0.000000
50.000000 -36.664544 0.000000
39.129377 -29.582014 0.000000
33.500706 -26.367758 0.000000
27.183177 -23.322114 0.000000
23.067048 -18.647934 0.000000
16.991892 -16.981829 0.000000
6.701045 -12.196534 0.000000
12.368726 -12.736269 0.000000
-3.369426 -1.486667 0.000000
3.826776 -6.834500 0.000000
1.023280 -2.120882 0.000000
-6.894286 2.281458 0.000000
-8.289697 7.698399 0.000000
-12.842423 11.928907 0.000000
-15.690973 17.699180 0.000000
-19.287419 22.981624 0.000000
-24.170994 27.354481 0.000000
-27.286400 33.625849 0.000000
-30.406772 39.161071 0.000000
-33.447936 44.738882 0.000000
-36.664762 50.000000 0.000000
44.547752 -26.500095 0.000000
50.000000 -29.997059 0.000000
39.040016 -23.179341 0.000000
33.449584 -19.899990 0.000000
28.039740 -16.573529 0.000000
22.680415 -13.123756 0.000000
17.175885 -9.901943 0.000000
10.816792 -6.593495 0.000000
-1.357732 2.317728 0.000000
6.154803 -1.717311 0.000000
2.892202 1.594576 0.000000
-3.472768 7.032839 0.000000
-6.313362 12.430989 0.000000
-9.629356 17.709692 0.000000
-13.167796 23.114147 0.000000
-17.316858 28.185080 0.000000
-20.570974 33.474229 0.000000
-23.666096 39.063920 0.000000
-26.831183 44.585348 0.000000
-29.997511 50.000000 0.000000
44.528651 -19.930870 0.000000
50.000000 -23.329999 0.000000
39.036184 -16.594194 0.000000
33.575898 -13.281249 0.000000
28.149429 -9.965070 0.000000
22.724877 -6.604755 0.000000
17.264741 -3.335470 0.000000
11.848855 0.211394 0.000000
1.913368 6.222433 0.000000
6.858149 3.740143 0.000000
-0.223376 11.815782 0.000000
-3.252591 17.531139 0.000000
-6.699352 22.976731 0.000000
-10.567266 28.267269 0.000000
-13.724228 33.661045 0.000000
-16.945885 39.080179 0.000000
-20.140909 44.548364 0.000000
-23.330597 50.000000 0.000000
44.536170 -13.303998 0.000000
50.000000 -16.663561 0.000000
39.079792 -9.966852 0.000000
33.646589 -6.641351 0.000000
28.236545 -3.307993 0.000000
22.849162 0.017487 0.000000
17.537388 3.345538 0.000000
12.187965 6.585202 0.000000
6.672371 10.731367 0.000000
3.302175 17.198978 0.000000
-0.080794 22.853985 0.000000
-3.518985 28.313031 0.000000
-6.831656 33.774584 0.000000
-10.137704 39.170511 0.000000
-13.436103 44.563469 0.000000
-16.664208 50.000000 0.000000
44.554172 -6.654940 0.000000
50.000000 -9.997809 0.000000
39.123221 -3.321442 0.000000
33.713321 0.008784 0.000000
28.333292 3.344869 0.000000
22.999895 6.693861 0.000000
17.834100 10.019554 0.000000
12.657938 12.240368 0.000000
9.785545 17.233270 0.000000
6.479273 22.722433 0.000000
3.189258 28.270173 0.000000
-0.116026 33.734888 0.000000
-3.425317 39.168676 0.000000
-6.725708 44.581744 0.000000
-9.998298 50.000000 0.000000
44.575526 0.001809 0.000000
50.000000 -3.332594 0.000000
39.166873 3.331821 0.000000
33.779463 6.655616 0.000000
28.423929 9.994789 0.000000
23.046479 13.416217 0.000000
16.950446 17.023980 0.000000
12.901593 22.667880 0.000000
9.815313 28.231814 0.000000
6.604364 33.718796 0.000000
3.286541 39.164432 0.000000
-0.029951 44.584515 0.000000
-3.332768 50.000000 0.000000
44.586675 6.665611 0.000000
50.000000 3.332556 0.000000
39.198172 9.982003 0.000000
33.843489 13.276933 0.000000
28.542268 16.584415 0.000000
23.387524 20.084290 0.000000
18.531956 23.113203 0.000000
16.392730 28.298551 0.000000
13.329024 33.754755 0.000000
9.986682 39.181953 0.000000
6.666104 44.584265 0.000000
3.332637 50.000000 0.000000
44.608888 13.318188 0.000000
50.000000 9.998044 0.000000
39.251384 16.612559 0.000000
33.932007 19.862891 0.000000
28.612516 22.925998 0.000000
23.279678 27.207744 0.000000
19.901401 33.302914 0.000000
16.574024 39.040861 0.000000
13.268615 44.526665 0.000000
9.998114 50.000000 0.000000
44.632070 19.973280 0.000000
50.000000 16.664052 0.000000
39.298543 23.262304 0.000000
34.043921 26.514849 0.000000
28.965930 28.539496 0.000000
26.202538 33.410173 0.000000
23.066902 38.968808 0.000000
19.888873 44.507031 0.000000
16.663944 50.000000 0.000000
44.639872 26.643193 0.000000
50.000000 23.330551 0.000000
39.293477 29.966901 0.000000
33.212554 33.371413 0.000000
29.412349 39.045921 0.000000
26.422649 44.506000 0.000000
23.330370 50.000000 0.000000
44.775126 33.292003 0.000000
50.000000 29.997540 0.000000
39.738312 36.596456 0.000000
34.831244 39.525804 0.000000
32.834045 44.514436 0.000000
29.997344 50.000000 0.000000
44.978394 39.878031 0.000000
50.000000 36.664905 0.000000
39.735134 43.969203 0.000000
36.664730 50.000000 0.000000
45.621472 45.409993 0.000000
50.000000 43.332407 0.000000
43.332177 50.000000 0.000000
50.000000 50.000000 0.000000
CELLS 578 2312
3 1 0 2
3 0 3 2
3 4 1 6
3 6 1 2
3 3 5 7
3 3 7 2
3 6 2 7
3 9 4 10
3 10 4 6
3 5 8 11
3 7 5 11
3 10 6 12
3 12 6 7
3 7 11 13
3 7 13 12
3 8 14 15
3 11 8 15
3 16 9 17
3 17 9 10
3 17 10 18
3 18 10 12
3 11 15 19
3 13 11 19
3 18 12 20
3 13 19 20
3 20 12 13
3 14 22 24
3 15 14 24
3 15 24 25
3 19 15 25
3 21 16 26
3 26 16 17
3 26 17 27
3 27 17 18
3 27 18 28
3 28 18 20
3 19 25 29
3 19 29 20
3 28 20 30
3 30 20 29
3 31 21 32
3 32 21 26
3 22 23 36
3 24 22 36
3 23 34 37
3 36 23 37
3 24 36 38
3 25 24 38
3 25 38 39
3 29 25 39
3 32 26 40
3 40 26 27
3 40 27 41
3 41 27 28
3 41 28 42
3 42 28 30
3 29 39 43
3 29 43 30
3 42 30 43
3 33 31 44
3 44 31 32
3 44 32 45
3 45 32 40
3 46 33 47
3 47 33 44
3 34 35 50
3 37 34 50
3 35 48 51
3 50 35 51
3 36 37 52
3 38 36 52
3 37 50 53
3 52 37 53
3 38 52 54
3 39 38 54
3 39 54 55
3 43 39 55
3 45 40 56
3 56 40 41
3 56 41 57
3 57 41 42
3 57 42 58
3 58 42 43
3 43 55 59
3 43 59 58
3 47 44 60
3 60 44 45
3 60 45 61
3 61 45 56
3 62 46 63
3 63 46 47
3 63 47 64
3 64 47 60
3 48 49 68
3 51 48 68
3 49 66 69
3 68 49 69
3 50 51 70
3 53 50 70
3 51 68 71
3 70 51 71
3 52 53 72
3 54 52 72
3 53 70 73
3 72 53 73
3 54 72 74
3 55 54 74
3 55 74 75
3 59 55 75
3 61 56 76
3 76 56 57
3 76 57 77
3 77 57 58
3 77 58 78
3 59 75 78
3 78 58 59
3 64 60 79
3 79 60 61
3 79 61 80
3 80 61 76
3 65 62 81
3 81 62 63
3 81 63 82
3 82 63 64
3 82 64 83
3 83 64 79
3 84 65 85
3 85 65 81
3 66 67 89
3 69 66 89
3 67 87 90
3 89 67 90
3 68 69 91
3 71 68 91
3 69 89 92
3 91 69 92
3 70 71 93
3 73 70 93
3 71 91 94
3 93 71 94
3 72 73 95
3 74 72 95
3 73 93 96
3 95 73 96
3 74 95 97
3 75 74 97
3 75 97 98
3 78 75 98
3 80 76 99
3 99 76 77
3 99 77 100
3 100 77 78
3 100 78 101
3 98 101 78
3 83 79 102
3 102 79 80
3 102 80 103
3 103 80 99
3 85 81 104
3 104 81 82
3 105 83 102
3 104 82 106
3 106 82 83
3 106 83 105
3 86 84 107
3 107 84 85
3 107 85 108
3 108 85 104
3 109 86 107
3 110 86 109
3 87 88 112
3 90 87 112
3 112 88 113
3 88 114 113
3 90 112 115
3 89 90 116
3 92 89 116
3 116 90 115
3 91 92 117
3 94 91 117
3 92 116 118
3 117 92 118
3 93 94 119
3 96 93 119
3 94 117 120
3 119 94 120
3 95 96 121
3 97 95 121
3 96 119 122
3 121 96 122
3 97 121 123
3 98 97 123
3 98 123 124
3 98 124 101
3 103 99 125
3 125 99 100
3 125 100 126
3 126 100 101
3 126 101 124
3 105 102 127
3 127 102 103
3 127 103 128
3 128 103 125
3 129 105 127
3 108 104 130
3 130 104 106
3 130 106 131
3 131 106 105
3 131 105 129
3 108 130 132
3 109 107 133
3 133 107 108
3 133 108 134
3 108 132 134
3 135 109 133
3 111 110 136
3 136 110 109
3 136 109 135
3 137 111 136
3 138 111 137
3 112 113 139
3 115 112 139
3 114 140 113
3 140 139 113
3 139 141 115
3 116 115 142
3 118 116 142
3 142 115 141
3 117 118 143
3 120 117 143
3 118 142 144
3 143 118 144
3 119 120 145
3 122 119 145
3 120 143 146
3 145 120 146
3 121 122 147
3 123 121 147
3 122 145 148
3 147 122 148
3 123 147 149
3 124 123 149
3 124 149 150
3 151 126 124
3 124 150 151
3 128 125 152
3 152 125 126
3 152 126 151
3 129 127 153
3 153 127 128
3 128 152 154
3 153 128 154
3 155 129 153
3 131 129 156
3 156 129 155
3 132 130 157
3 130 131 157
3 157 131 158
3 131 156 158
3 132 157 159
3 132 159 134
3 135 133 160
3 160 133 134
3 160 134 159
3 136 135 161
3 135 160 161
3 162 137 136
3 161 162 136
3 163 138 137
3 162 163 137
3 139 164 141
3 140 165 139
3 139 165 164
3 141 164 166
3 141 166 142
3 166 167 142
3 144 142 167
3 167 168 144
3 143 144 168
3 146 143 168
3 168 169 146
3 145 146 170
3 148 145 170
3 170 146 169
3 147 148 171
3 149 147 171
3 148 170 172
3 171 148 172
3 173 151 150
3 149 171 174
3 150 149 174
3 150 174 175
3 150 175 173
3 154 152 176
3 152 151 176
3 176 151 173
3 154 176 177
3 155 153 178
3 177 178 154
3 154 178 153
3 156 155 179
3 155 178 179
3 180 158 156
3 179 180 156
3 181 159 157
3 180 181 158
3 181 157 158
3 182 160 159
3 181 182 159
3 183 161 160
3 182 183 160
3 184 162 161
3 184 161 183
3 185 163 162
3 184 185 162
3 164 186 166
3 165 187 164
3 164 187 186
3 166 186 188
3 166 188 167
3 167 188 189
3 167 189 168
3 168 189 190
3 168 190 169
3 169 190 191
3 169 191 170
3 192 172 170
3 170 191 192
3 192 193 172
3 171 172 193
3 174 171 193
3 194 173 175
3 176 173 194
3 175 174 195
3 193 195 174
3 195 196 175
3 175 196 194
3 197 177 176
3 194 197 176
3 198 178 177
3 197 198 177
3 199 179 178
3 198 199 178
3 200 180 179
3 199 200 179
3 201 181 180
3 200 201 180
3 202 182 181
3 201 202 181
3 203 183 182
3 202 203 182
3 204 184 183
3 203 204 183
3 205 185 184
3 204 205 184
3 186 206 188
3 187 207 186
3 186 207 206
3 188 206 208
3 188 208 189
3 189 208 209
3 189 209 190
3 190 209 210
3 190 210 191
3 191 210 211
3 191 211 192
3 192 211 212
3 192 212 193
3 193 212 213
3 193 213 195
3 214 197 194
3 214 194 196
3 195 213 215
3 195 215 196
3 196 215 214
3 216 198 197
3 214 216 197
3 217 199 198
3 216 217 198
3 218 200 199
3 217 218 199
3 219 201 200
3 218 219 200
3 220 202 201
3 219 220 201
3 221 203 202
3 220 221 202
3 222 204 203
3 221 222 203
3 223 205 204
3 222 223 204
3 206 224 208
3 207 225 206
3 206 225 224
3 208 224 226
3 208 226 209
3 209 226 227
3 209 227 210
3 210 227 228
3 210 228 211
3 211 228 229
3 211 229 212
3 212 229 230
3 212 230 213
3 213 230 231
3 213 231 215
3 232 216 214
3 215 231 232
3 232 214 215
3 233 217 216
3 232 233 216
3 234 218 217
3 233 234 217
3 235 219 218
3 234 235 218
3 236 220 219
3 235 236 219
3 237 221 220
3 236 237 220
3 238 222 221
3 237 238 221
3 239 223 222
3 238 239 222
3 224 240 226
3 225 241 224
3 224 241 240
3 226 240 242
3 226 242 227
3 227 242 243
3 227 243 228
3 228 243 244
3 228 244 229
3 244 245 229
3 229 245 230
3 230 245 246
3 230 246 231
3 231 246 247
3 231 247 232
3 248 233 232
3 248 232 247
3 249 234 233
3 248 249 233
3 250 235 234
3 249 250 234
3 251 236 235
3 250 251 235
3 252 237 236
3 251 252 236
3 253 238 237
3 252 253 237
3 254 239 238
3 253 254 238
3 240 255 242
3 241 256 240
3 240 256 255
3 242 255 257
3 242 257 243
3 243 257 258
3 243 258 244
3 244 258 259
3 244 259 245
3 245 259 260
3 245 260 246
3 246 260 261
3 246 261 247
3 248 247 261
3 262 249 248
3 261 262 248
3 263 250 249
3 262 263 249
3 264 251 250
3 263 264 250
3 265 252 251
3 264 265 251
3 266 253 252
3 265 266 252
3 267 254 253
3 266 267 253
3 255 268 257
3 256 269 255
3 255 269 268
3 257 268 270
3 257 270 258
3 258 270 271
3 258 271 259
3 259 271 272
3 259 272 260
3 260 272 273
3 260 273 261
3 274 262 261
3 261 273 274
3 275 263 262
3 274 275 262
3 276 264 263
3 275 276 263
3 277 265 264
3 276 277 264
3 278 266 265
3 277 278 265
3 279 267 266
3 278 279 266
3 268 280 270
3 269 281 268
3 268 281 280
3 270 280 282
3 270 282 271
3 271 282 283
3 271 283 272
3 283 284 272
3 272 284 273
3 285 275 274
3 273 284 285
3 285 274 273
3 286 276 275
3 285 286 275
3 287 277 276
3 286 287 276
3 288 278 277
3 287 288 277
3 289 279 278
3 288 289 278
3 280 290 282
3 281 291 280
3 280 291 290
3 282 290 292
3 282 292 283
3 283 292 293
3 283 293 284
3 284 293 294
3 284 294 285
3 295 286 285
3 295 285 294
3 296 287 286
3 295 296 286
3 297 288 287
3 296 297 287
3 298 289 288
3 297 298 288
3 290 299 292
3 291 300 290
3 290 300 299
3 292 299 301
3 292 301 293
3 293 301 302
3 293 302 294
3 294 302 295
3 303 296 295
3 303 295 302
3 304 297 296
3 303 304 296
3 305 298 297
3 304 305 297
3 299 306 301
3 300 307 299
3 299 307 306
3 301 306 308
3 301 308 302
3 309 303 302
3 302 308 309
3 310 304 303
3 309 310 303
3 311 305 304
3 310 311 304
3 306 312 308
3 307 313 306
3 306 313 312
3 314 310 309
3 308 312 314
3 314 309 308
3 315 311 310
3 314 315 310
3 312 316 314
3 313 317 312
3 312 317 316
3 318 315 314
3 318 314 316
3 317 319 316
3 319 318 316
CELL_TYPES 578
5
5
5
5
5
5
5
5
5
5
5
5
5
5
5
5
5
5
5
5
5
5
5
5
5
5
5
5
5
5
5
5
5
5
5
5
5
5
5
5
5
5
5
5
5
5
5
5
5
5
5
5
5
5
5
5
5
5
5
5
5
5
5
5
5
5
5
5
5
5
5
5
5
5
5
5
5
5
5
5
5
5
5
5
5
5
5
5
5
5
5
5
5
5
5
5
5
5
5
5
5
5
5
5
5
5
5
5
5
5
5
5
5
5
5
5
5
5
5
5
5
5
5
5
5
5
5
5
5
5
5
5
5
5
5
5
5
5
5
5
5
5
5
5
5
5
5
5
5
5
5
5
5
5
5
5
5
5
5
5
5
5
5
5
5
5
5
5
5
5
5
5
5
5
5
5
5
5
5
5
5
5
5
5
5
5
5
5
5
5
5
5
5
5
5
5
5
5
5
5
5
5
5
5
5
5
5
5
5
5
5
5
5
5
5
5
5
5
5
5
5
5
5
5
5
5
5
5
5
5
5
5
5
5
5
5
5
5
5
5
5
5
5
5
5
5
5
5
5
5
5
5
5
5
5
5
5
5
5
5
5
5
5
5
5
5
5
5
5
5
5
5
5
5
5
5
5
5
5
5
5
5
5
5
5
5
5
5
5
5
5
5
5
5
5
5
5
5
5
5
5
5
5
5
5
5
5
5
5
5
5
5
5
5
5
5
5
5
5
5
5
5
5
5
5
5
5
5
5
5
5
5
5
5
5
5
5
5
5
5
5
5
5
5
5
5
5
5
5
5
5
5
5
5
5
5
5
5
5
5
5
5
5
5
5
5
5
5
5
5
5
5
5
5
5
5
5
5
5
5
5
5
5
5
5
5
5
5
5
5
5
5
5
5
5
5
5
5
5
5
5
5
5
5
5
5
5
5
5
5
5
5
5
5
5
5
5
5
5
5
5
5
5
5
5
5
5
5
5
5
5
5
5
5
5
5
5
5
5
5
5
5
5
5
5
5
5
5
5
5
5
5
5
5
5
5
5
5
5
5
5
5
5
5
5
5
5
5
5
5
5
5
5
5
5
5
5
5
5
5
5
5
5
5
5
5
5
5
5
5
5
5
5
5
5
5
5
5
5
5
5
5
5
5
5
5
5
5
5
5
5
5
5
5
5
5
5
5
5
5
5
5
5
5
5
5
5
5
5
5
5
5
5
5
5
5
5
5
5
5
5
5
5
5
5
5
5
5
5
5
5
5
5
5
5
5
5
5
5
5
5
5
5
5
5
5
5
5
5
5
5
5
5
5
5
5
5
5
POINT_DATA 320
SCALARS theta_e float 1
LOOKUP_TABLE default
1.000001
1.000001
1.000001
1.000001
1.000001
1.000001
1.000001
1.000001
1.000001
1.000001
1.000001
1.000001
1.000001
1.000001
1.000001
1.000001
1.000001
1.000001
1.000001
1.000001
1.000001
1.000001
1.000001
1.000001
1.000001
1.000001
1.000001
1.000001
1.000001
1.000001
1.000001
1.000001
1.000001
1.000001
1.000001
1.000001
1.000001
1.000001
1.000001
1.000001
1.000001
1.000001
1.000001
1.000001
1.000001
1.000001
1.000001
1.000001
1.000001
1.000001
1.000001
1.000001
1.000001
1.000001
1.000001
1.000001
1.000001
1.000001
1.000001
1.000000
1.000001
1.000001
1.000001
1.000001
1.000001
1.000001
1.000001
1.000001
1.000001
1.000001
1.000001
1.000001
1.000001
1.000001
1.000000
1.000000
1.000001
1.000000
1.000000
1.000001
1.000001
1.000001
1.000001
1.000001
1.000001
1.000001
1.000001
1.000001
1.000001
1.000001
1.000001
1.000001
1.000001
1.000000
1.000000
1.000000
1.000000
1.000000
1.000001
1.000001
1.000000
1.000001
1.000001
1.000000
1.000001
1.000001
1.000001
1.000001
1.000001
1.000001
1.000001
1.000001
1.000001
1.000001
1.000001
1.000001
1.000001
1.000000
1.000001
1.000000
1.000000
1.000000
1.000000
1.000001
0.999998
1.000000
1.000000
1.000001
1.000000
1.000001
1.000001
1.000001
1.000001
1.000001
1.000001
1.000001
1.000001
1.000001
1.000001
1.000001
1.000001
1.000001
1.000001
1.000000
1.000000
1.000000
1.000000
1.000001
1.000001
0.999997
0.999987
0.999992
0.999997
1.000000
0.999998
1.000001
1.000001
1.000001
1.000001
1.000001
1.000001
1.000001
1.000001
1.000001
1.000001
1.000001
1.000001
1.000000
1.000000
1.000000
1.000001
1.000000
1.000001
0.999982
0.999990
0.999982
0.999988
0.999996
1.000000
1.000001
1.000001
1.000001
1.000001
1.000001
1.000001
1.000001
1.000001
1.000001
1.000000
1.000000
1.000000
1.000001
1.000001
0.999998
0.999982
0.999988
0.999983
0.999989
0.999999
1.000001
1.000001
1.000000
1.000000
1.000001
1.000001
1.000001
1.000000
1.000001
1.000000
1.000000
1.000000
1.000000
1.000000
0.999997
0.999987
0.999990
0.999996
1.000001
1.000001
1.000000
1.000000
1.000000
1.000001
1.000001
1.000000
1.000000
1.000000
1.000000
1.000000
1.000000
1.000000
0.999998
0.999997
1.000000
1.000001
1.000000
1.000000
1.000000
1.000000
1.000000
1.000000
1.000000
1.000000
1.000000
1.000000
1.000000
1.000000
1.000000
1.000000
1.000001
1.000000
1.000000
1.000000
1.000000
1.000000
1.000000
1.000000
1.000000
1.000000
1.000000
1.000000
1.000000
1.000001
1.000000
1.000000
1.000000
1.000000
1.000000
1.000000
1.000000
1.000000
1.000000
1.000000
1.000000
1.000000
1.000000
1.000000
1.000000
1.000000
1.000000
1.000000
1.000000
1.000000
1.000000
1.000000
1.000000
1.000000
1.000000
1.000000
1.000000
1.000000
1.000000
1.000000
1.000000
1.000000
1.000000
1.000000
1.000000
1.000000
1.000000
1.000000
1.000000
1.000000
1.000000
1.000000
1.000000
1.000000
1.000000
1.000000
1.000000
1.000000
1.000000
1.000000
1.000000
1.000000
1.000000
1.000000
1.000000
1.000000
1.000000
VECTORS fa_u float
0.000000 0.000000 0.000000
0.000000 0.000000 0.000000
0.000000 0.000000 0.000000
0.000000 0.000000 0.000000
0.000000 0.000000 0.000000
0.000000 0.000000 0.000000
0.000000 0.000000 0.000000
0.000000 0.000000 0.000000
0.000000 0.000000 0.000000
0.000000 0.000000 0.000000
0.000000 0.000000 0.000000
0.000000 0.000000 0.000000
0.000000 0.000000 0.000000
0.000000 0.000000 0.000000
0.000000 0.000000 0.000000
0.000000 0.000000 0.000000
0.000000 0.000000 0.000000
0.000000 0.000000 0.000000
0.000000 0.000000 0.000000
0.000000 0.000000 0.000000
0.000000 0.000000 0.000000
0.000000 0.000000 0.000000
0.000000 0.000000 0.000000
0.000000 0.000000 0.000000
0.000000 0.000000 0.000000
0.000000 0.000000 0.000000
0.000000 0.000000 0.000000
0.000000 0.000000 0.000000
0.000000 0.000000 0.000000
0.000000 0.000000 0.000000
0.000000 0.000000 0.000000
0.000000 0.000000 0.000000
0.000000 0.000000 0.000000
0.000000 0.000000 0.000000
0.000000 0.000000 0.000000
0.000000 0.000000 0.000000
0.000000 0.000000 0.000000
0.000000 0.000000 0.000000
0.000000 0.000000 0.000000
0.000000 0.000000 0.000000
0.000000 0.000000 0.000000
0.000000 0.000000 0.000000
0.000000 0.000000 0.000000
0.000000 0.000000 0.000000
0.000000 0.000000 0.000000
0.000000 0.000000 0.000000
0.000000 0.000000 0.000000
0.000000 0.000000 0.000000
0.000000 0.000000 0.000000
0.000000 0.000000 0.000000
0.000000 0.000000 0.000000
0.000000 0.000000 0.000000
0.000000 0.000000 0.000000
0.000000 0.000000 0.000000
0.000000 0.000000 0.000000
0.000000 0.000000 0.000000
0.000000 0.000000 0.000000
0.000000 0.000000 0.000000
0.000000 0.000000 0.000000
0.000000 0.000000 0.000000
0.000000 0.000000 0.000000
0.000000 0.000000 0.000000
0.000000 0.000000 0.000000
0.000000 0.000000 0.000000
0.000000 0.000000 0.000000
0.000000 0.000000 0.000000
0.000000 0.000000 0.000000
0.000000 0.000000 0.000000
0.000000 0.000000 0.000000
0.000000 0.000000 0.000000
0.000000 0.000000 0.000000
0.000000 0.000000 0.000000
0.000000 0.000000 0.000000
0.000000 0.000000 0.000000
0.000000 0.000000 0.000000
0.000000 0.000000 0.000000
0.000000 0.000000 0.000000
0.000000 0.000000 0.000000
0.000000 0.000000 0.000000
0.000000 0.000000 0.000000
0.000000 0.000000 0.000000
0.000000 0.000000 0.000000
0.000000 0.000000 0.000000
0.000000 0.000000 0.000000
0.000000 0.000000 0.000000
0.000000 0.000000 0.000000
0.000000 0.000000 0.000000
0.000000 0.000000 0.000000
0.000000 0.000000 0.000000
0.000000 0.000000 0.000000
0.000000 0.000000 0.000000
0.000000 0.000000 0.000000
0.000000 0.000000 0.000000
0.000000 0.000000 0.000000
0.000000 0.000000 0.000000
0.000000 0.000000 0.000000
0.000000 0.000000 0.000000
0.000000 0.000000 0.000000
0.000000 0.000000 0.000000
0.000000 0.000000 0.000000
0.000000 0.000000 0.000000
0.000000 0.000000 0.000000
0.000000 0.000000 0.000000
0.000000 0.000000 0.000000
0.000000 0.000000 0.000000
0.000000 0.000000 0.000000
0.000000 0.000000 0.000000
0.000000 0.000000 0.000000
0.000000 0.000000 0.000000
0.000000 0.000000 0.000000
0.000000 0.000000 0.000000
0.000000 0.000000 0.000000
0.000000 0.000000 0.000000
0.000000 0.000000 0.000000
0.000000 0.000000 0.000000
0.000000 0.000000 0.000000
0.000000 0.000000 0.000000
0.000000 0.000000 0.000000
0.000000 0.000000 0.000000
0.000000 0.000000 0.000000
0.000000 0.000000 0.000000
0.000000 0.000000 0.000000
0.000000 0.000000 0.000000
0.000000 0.000000 0.000000
0.000000 0.000000 0.000000
0.000000 0.000000 0.000000
0.000000 0.000000 0.000000
0.000000 0.000000 0.000000
0.000000 0.000000 0.000000
0.000000 0.000000 0.000000
0.000000 0.000000 0.000000
0.000000 0.000000 0.000000
0.000000 0.000000 0.000000
0.000000 0.000000 0.000000
0.000000 0.000000 0.000000
0.000000 0.000000 0.000000
0.000000 0.000000 0.000000
0.000000 0.000000 0.000000
0.000000 0.000000 0.000000
0.000000 0.000000 0.000000
0.000000 0.000000 0.000000
0.000000 0.000000 0.000000
0.000000 0.000000 0.000000
0.000000 0.000000 0.000000
0.000000 0.000000 0.000000
0.000000 0.000000 0.000000
0.000000 0.000000 0.000000
0.000000 0.000000 0.000000
0.000000 0.000000 0.000000
0.000000 0.000000 0.000000
0.000000 0.000000 0.000000
0.000000 0.000000 0.000000
0.000000 0.000000 0.000000
0.000000 0.000000 0.000000
0.000000 0.000000 0.000000
0.000000 0.000000 0.000000
0.000000 0.000000 0.000000
0.000000 0.000000 0.000000
0.000000 0.000000 0.000000
0.000000 0.000000 0.000000
0.000000 0.000000 0.000000
0.000000 0.000000 0.000000
0.000000 0.000000 0.000000
0.000000 0.000000 0.000000
0.000000 0.000000 0.000000
0.000000 0.000000 0.000000
0.000000 0.000000 0.000000
0.000000 0.000000 0.000000
0.000000 0.000000 0.000000
0.000000 0.000000 0.000000
0.000000 0.000000 0.000000
0.000000 0.000000 0.000000
0.000000 0.000000 0.000000
0.000000 0.000000 0.000000
0.000000 0.000000 0.000000
0.000000 0.000000 0.000000
0.000000 0.000000 0.000000
0.000000 0.000000 0.000000
0.000000 0.000000 0.000000
0.000000 0.000000 0.000000
0.000000 0.000000 0.000000
0.000000 0.000000 0.000000
0.000000 0.000000 0.000000
0.000000 0.000000 0.000000
0.000000 0.000000 0.000000
0.000000 0.000000 0.000000
0.000000 0.000000 0.000000
0.000000 0.000000 0.000000
0.000000 0.000000 0.000000
0.000000 0.000000 0.000000
0.000000 0.000000 0.000000
0.000000 0.000000 0.000000
0.000000 0.000000 0.000000
0.000000 0.000000 0.000000
0.000000 0.000000 0.000000
0.000000 0.000000 0.000000
0.000000 0.000000 0.000000
0.000000 0.000000 0.000000
0.000000 0.000000 0.000000
0.000000 0.000000 0.000000
0.000000 0.000000 0.000000
0.000000 0.000000 0.000000
0.000000 0.000000 0.000000
0.000000 0.000000 0.000000
0.000000 0.000000 0.000000
0.000000 0.000000 0.000000
0.000000 0.000000 0.000000
0.000000 0.000000 0.000000
0.000000 0.000000 0.000000
0.000000 0.000000 0.000000
0.000000 0.000000 0.000000
0.000000 0.000000 0.000000
0.000000 0.000000 0.000000
0.000000 0.000000 0.000000
0.000000 0.000000 0.000000
0.000000 0.000000 0.000000
0.000000 0.000000 0.000000
0.000000 0.000000 0.000000
0.000000 0.000000 0.000000
0.000000 0.000000 0.000000
0.000000 0.000000 0.000000
0.000000 0.000000 0.000000
0.000000 0.000000 0.000000
0.000000 0.000000 0.000000
0.000000 0.000000 0.000000
0.000000 0.000000 0.000000
0.000000 0.000000 0.000000
0.000000 0.000000 0.000000
0.000000 0.000000 0.000000
0.000000 0.000000 0.000000
0.000000 0.000000 0.000000
0.000000 0.000000 0.000000
0.000000 0.000000 0.000000
0.000000 0.000000 0.000000
0.000000 0.000000 0.000000
0.000000 0.000000 0.000000
0.000000 0.000000 0.000000
0.000000 0.000000 0.000000
0.000000 0.000000 0.000000
0.000000 0.000000 0.000000
0.000000 0.000000 0.000000
0.000000 0.000000 0.000000
0.000000 0.000000 0.000000
0.000000 0.000000 0.000000
0.000000 0.000000 0.000000
0.000000 0.000000 0.000000
0.000000 0.000000 0.000000
0.000000 0.000000 0.000000
0.000000 0.000000 0.000000
0.000000 0.000000 0.000000
0.000000 0.000000 0.000000
0.000000 0.000000 0.000000
0.000000 0.000000 0.000000
0.000000 0.000000 0.000000
0.000000 0.000000 0.000000
0.000000 0.000000 0.000000
0.000000 0.000000 0.000000
0.000000 0.000000 0.000000
0.000000 0.000000 0.000000
0.000000 0.000000 0.000000
0.000000 0.000000 0.000000
0.000000 0.000000 0.000000
0.000000 0.000000 0.000000
0.000000 0.000000 0.000000
0.000000 0.000000 0.000000
0.000000 0.000000 0.000000
0.000000 0.000000 0.000000
0.000000 0.000000 0.000000
0.000000 0.000000 0.000000
0.000000 0.000000 0.000000
0.000000 0.000000 0.000000
0.000000 0.000000 0.000000
0.000000 0.000000 0.000000
0.000000 0.000000 0.000000
0.000000 0.000000 0.000000
0.000000 0.000000 0.000000
0.000000 0.000000 0.000000
0.000000 0.000000 0.000000
0.000000 0.000000 0.000000
0.000000 0.000000 0.000000
0.000000 0.000000 0.000000
0.000000 0.000000 0.000000
0.000000 0.000000 0.000000
0.000000 0.000000 0.000000
0.000000 0.000000 0.000000
0.000000 0.000000 0.000000
0.000000 0.000000 0.000000
0.000000 0.000000 0.000000
0.000000 0.000000 0.000000
0.000000 0.000000 0.000000
0.000000 0.000000 0.000000
0.000000 0.000000 0.000000
0.000000 0.000000 0.000000
0.000000 0.000000 0.000000
0.000000 0.000000 0.000000
0.000000 0.000000 0.000000
0.000000 0.000000 -50.000000
-50.000000 0.000000 -50.000000
-43.332493 0.000000 -45.688559
-45.491288 0.000000 -43.332374
-50.000000 0.000000 -50.000000
-36.664934 0.000000 -36.664988
-50.000000 0.000000 -45.081306
-39.969882 0.000000 -40.027459
-44.152421 0.000000 -29.997536
-50.000000 0.000000 -50.000000
-29.997453 0.000000 -44.847271
-33.448995 0.000000 -33.145130
-44.675844 0.000000 -39.869359
-36.787094 0.000000 -35.128935
-39.801496 0.000000 -23.330417
-50.000000 0.000000 -26.539387
-44.666817 0.000000 -50.000000
-23.330350 0.000000 -44.665351
-26.804034 0.000000 -39.364412
-30.225791 0.000000 -29.606589
-39.359514 0.000000 -33.368557
-33.655621 0.000000 -50.000000
-16.663795 0.000000 -16.663921
-50.000000 0.000000 -9.998059
