# vtk DataFile Version 2.0
CellBP Time: 7.8
ASCII
DATASET UNSTRUCTURED_GRID
POINTS 320 double
-50.000000 -50.000000 0.000000
-50.000000 -43.332254 0.000000
-45.688645 -45.491359 0.000000
-43.332104 -50.000000 0.000000
-50.000000 -36.664442 0.000000
-36.664515 -50.000000 0.000000
-45.081398 -39.969933 0.000000
-40.027595 -44.152495 0.000000
-29.996846 -50.000000 0.000000
-50.000000 -29.996733 0.000000
-44.847361 -33.449040 0.000000
-33.145239 -44.675924 0.000000
-39.869474 -36.787150 0.000000
-35.129074 -39.801594 0.000000
-23.329607 -50.000000 0.000000
-26.539506 -44.666854 0.000000
-50.000000 -23.329512 0.000000
-44.665388 -26.804097 0.000000
-39.364496 -30.225853 0.000000
-29.606747 -39.359591 0.000000
-33.368716 -33.655712 0.000000
-50.000000 -16.662998 0.000000
-16.663168 -50.000000 0.000000
-9.997537 -50.000000 0.000000
-19.965303 -44.588710 0.000000
-23.216244 -39.114765 0.000000
-44.691816 -20.097083 0.000000
-39.367953 -23.528199 0.000000
-34.106425 -26.937138 0.000000
-26.384876 -33.577588 0.000000
-29.156668 -28.926902 0.000000
-50.000000 -9.997099 0.000000
-44.666297 -13.410329 0.000000
-50.000000 -3.331977 0.000000
-3.332565 -50.000000 0.000000
3.332247 -50.000000 0.000000
-13.344091 -44.598873 0.000000
-6.684990 -44.610469 0.000000
-16.694028 -39.153091 0.000000
-20.107217 -33.342619 0.000000
-39.338107 -16.804591 0.000000
-34.019062 -20.274482 0.000000
-28.781469 -23.449265 0.000000
-23.510873 -27.351081 0.000000
-44.635273 -6.705491 0.000000
-39.293122 -10.101672 0.000000
-50.000000 3.332746 0.000000
-44.626493 -0.015341 0.000000
9.997394 -50.000000 0.000000
16.663187 -50.000000 0.000000
-0.016190 -44.618569 0.000000
6.651801 -44.635330 0.000000
-10.044994 -39.222507 0.000000
-3.368316 -39.220183 0.000000
-13.484366 -33.798399 0.000000
-16.708834 -28.271611 0.000000
-33.947920 -13.513382 0.000000
-28.602832 -16.891952 0.000000
-23.292886 -20.313366 0.000000
-18.661120 -23.284779 0.000000
-39.267312 -3.392542 0.000000
-33.904476 -6.796689 0.000000
-50.000000 9.997621 0.000000
-44.606484 6.673863 0.000000
-39.260597 3.325869 0.000000
-50.000000 16.663213 0.000000
23.329637 -50.000000 0.000000
29.996755 -50.000000 0.000000
13.317831 -44.662921 0.000000
19.989990 -44.700091 0.000000
3.307627 -39.245098 0.000000
9.971901 -39.290389 0.000000
-6.735747 -33.791342 0.000000
-0.032144 -33.829416 0.000000
-10.096050 -28.292221 0.000000
-13.122687 -22.895743 0.000000
-28.531311 -10.213976 0.000000
-23.068009 -13.663809 0.000000
-16.979432 -17.212996 0.000000
-33.884110 -0.065467 0.000000
-28.562681 -3.580299 0.000000
-44.563931 13.381061 0.000000
-39.189827 10.015291 0.000000
-33.905403 6.616116 0.000000
-50.000000 23.329427 0.000000
-44.557291 20.138659 0.000000
-50.000000 29.996856 0.000000
36.664365 -50.000000 0.000000
43.332138 -50.000000 0.000000
26.663584 -44.745405 0.000000
33.315543 -44.876175 0.000000
16.631766 -39.357678 0.000000
23.328456 -39.437200 0.000000
6.642989 -33.879612 0.000000
13.290466 -33.965433 0.000000
-3.346498 -28.363850 0.000000
3.358490 -28.451193 0.000000
-6.626366 -22.844713 0.000000
-9.961339 -17.315339 0.000000
-23.179840 -7.014044 0.000000
-17.814314 -10.334878 0.000000
-12.838007 -12.610561 0.000000
-28.607282 3.088753 0.000000
-23.266881 -0.470067 0.000000
-39.038367 16.746375 0.000000
-28.719925 9.925746 0.000000
-33.760669 13.317955 0.000000
-44.521721 26.717418 0.000000
-38.467793 23.892820 0.000000
-44.632813 33.086079 0.000000
-50.000000 36.664916 0.000000
-50.000000 43.332413 0.000000
39.922590 -45.069800 0.000000
45.474964 -45.660689 0.000000
50.000000 -50.000000 0.000000
36.626968 -39.982136 0.000000
30.012614 -39.458765 0.000000
19.904221 -34.093025 0.000000
26.585169 -34.319683 0.000000
9.988404 -28.512610 0.000000
16.610492 -28.660560 0.000000
0.050228 -22.963703 0.000000
6.812046 -23.154805 0.000000
-3.397576 -17.296933 0.000000
-6.799533 -10.881253 0.000000
-17.873284 -3.812116 0.000000
-12.548236 -7.033360 0.000000
-23.307906 6.069181 0.000000
-18.033525 2.437081 0.000000
-23.123866 12.096381 0.000000
-33.572162 19.788969 0.000000
-27.941806 16.886496 0.000000
-33.293358 24.723124 0.000000
-39.474163 30.053461 0.000000
-35.161026 28.137933 0.000000
-39.816600 35.101892 0.000000
-43.992007 39.982792 0.000000
-45.431193 45.685532 0.000000
-50.000000 50.000000 0.000000
44.117485 -39.899342 0.000000
50.000000 -43.331745 0.000000
39.639680 -35.047651 0.000000
33.463065 -33.424744 0.000000
22.985039 -28.818267 0.000000
28.731123 -29.248002 0.000000
13.460826 -23.121886 0.000000
20.054977 -23.439945 0.000000
3.364078 -17.591029 0.000000
10.122508 -17.843612 0.000000
0.167970 -11.787039 0.000000
-2.124636 -6.158672 0.000000
-7.157422 -3.563298 0.000000
-12.439243 -0.808366 0.000000
-18.174336 8.573219 0.000000
-12.934286 5.196519 0.000000
-18.637788 13.750899 0.000000
-21.503610 17.493965 0.000000
-28.941174 23.159441 0.000000
-24.346486 21.554198 0.000000
-30.324122 28.635298 0.000000
-34.253959 33.375745 0.000000
-36.956195 39.578214 0.000000
-39.838792 45.103008 0.000000
-43.332085 50.000000 0.000000
44.585454 -32.972325 0.000000
50.000000 -36.663968 0.000000
39.129421 -29.582112 0.000000
33.500772 -26.367821 0.000000
27.183346 -23.322131 0.000000
23.067501 -18.648015 0.000000
16.992758 -16.982591 0.000000
6.697713 -12.190934 0.000000
12.374092 -12.737485 0.000000
-3.363909 -1.484039 0.000000
3.791792 -6.774090 0.000000
1.023736 -2.120734 0.000000
-6.856195 2.266250 0.000000
-8.243447 7.656714 0.000000
-12.841210 11.927735 0.000000
-15.690364 17.698786 0.000000
-19.287515 22.981206 0.000000
-24.171020 27.354340 0.000000
-27.286451 33.625768 0.000000
-30.406840 39.161008 0.000000
-33.448014 44.738894 0.000000
-36.664241 50.000000 0.000000
44.547767 -26.500208 0.000000
50.000000 -29.996259 0.000000
39.040017 -23.179388 0.000000
33.449519 -19.900007 0.000000
28.039626 -16.573242 0.000000
22.679400 -13.123599 0.000000
17.175793 -9.899342 0.000000
10.778243 -6.576792 0.000000
-1.359663 2.321296 0.000000
6.132807 -1.710112 0.000000
2.886963 1.592246 0.000000
-3.450180 6.983783 0.000000
-6.313886 12.426675 0.000000
-9.629310 17.712388 0.000000
-13.168148 23.114800 0.000000
-17.316989 28.185046 0.000000
-20.571120 33.474158 0.000000
-23.666199 39.063887 0.000000
-26.831337 44.585338 0.000000
-29.996827 50.000000 0.000000
44.528628 -19.931002 0.000000
50.000000 -23.329090 0.000000
39.036119 -16.594253 0.000000
33.575749 -13.281269 0.000000
28.148990 -9.965142 0.000000
22.724565 -6.604821 0.000000
17.265065 -3.334794 0.000000
11.795873 0.217131 0.000000
1.907682 6.198579 0.000000
6.800842 3.708270 0.000000
-0.227002 11.764249 0.000000
-3.247007 17.531639 0.000000
-6.698776 22.976248 0.000000
-10.567027 28.267168 0.000000
-13.724360 33.660875 0.000000
-16.946007 39.080093 0.000000
-20.141096 44.548322 0.000000
-23.329843 50.000000 0.000000
44.536113 -13.304136 0.000000
50.000000 -16.662709 0.000000
39.079735 -9.966930 0.000000
33.646524 -6.641489 0.000000
28.236771 -3.308177 0.000000
22.850220 0.017284 0.000000
17.538389 3.340198 0.000000
12.179746 6.581102 0.000000
6.654744 10.691974 0.000000
3.302517 17.200284 0.000000
-0.080534 22.854987 0.000000
-3.519185 28.313204 0.000000
-6.831814 33.774687 0.000000
-10.137871 39.170494 0.000000
-13.436303 44.563426 0.000000
-16.663529 50.000000 0.000000
44.554087 -6.655030 0.000000
50.000000 -9.997200 0.000000
39.123145 -3.321483 0.000000
33.713288 0.008813 0.000000
28.333333 3.345241 0.000000
22.999116 6.693907 0.000000
17.834721 10.018279 0.000000
12.658803 12.244971 0.000000
9.783747 17.232677 0.000000
6.479860 22.722436 0.000000
3.189497 28.270419 0.000000
-0.116074 33.734962 0.000000
-3.425382 39.168718 0.000000
-6.725850 44.581703 0.000000
-9.997824 50.000000 0.000000
44.575460 0.001779 0.000000
50.000000 -3.332377 0.000000
39.166881 3.331806 0.000000
33.779547 6.655658 0.000000
28.423813 9.994693 0.000000
23.046527 13.416114 0.000000
16.951242 17.024571 0.000000
12.901579 22.666857 0.000000
9.815549 28.231653 0.000000
6.604445 33.718824 0.000000
3.286544 39.164436 0.000000
-0.029984 44.584481 0.000000
-3.332608 50.000000 0.000000
44.586643 6.665675 0.000000
50.000000 3.332361 0.000000
39.198222 9.982054 0.000000
33.843522 13.276885 0.000000
28.542440 16.584260 0.000000
23.387823 20.084255 0.000000
18.532037 23.113579 0.000000
16.392513 28.298466 0.000000
13.329075 33.754737 0.000000
9.986752 39.181946 0.000000
6.666171 44.584216 0.000000
3.332448 50.000000 0.000000
44.608880 13.318332 0.000000
50.000000 9.997522 0.000000
39.251397 16.612628 0.000000
33.932074 19.862908 0.000000
28.612617 22.925996 0.000000
23.279700 27.207827 0.000000
19.901446 33.302827 0.000000
16.574142 39.040816 0.000000
13.268756 44.526616 0.000000
9.997592 50.000000 0.000000
44.632066 19.973441 0.000000
50.000000 16.663342 0.000000
39.298571 23.262397 0.000000
34.043982 26.514912 0.000000
28.966011 28.539511 0.000000
26.202619 33.410192 0.000000
23.066994 38.968793 0.000000
19.889022 44.507013 0.000000
16.663187 50.000000 0.000000
44.639905 26.643340 0.000000
50.000000 23.329787 0.000000
39.293531 29.967006 0.000000
33.212637 33.371483 0.000000
29.412461 39.045956 0.000000
26.422782 44.506014 0.000000
23.329542 50.000000 0.000000
44.775195 33.292111 0.000000
50.000000 29.996861 0.000000
39.738374 36.596533 0.000000
34.831338 39.525896 0.000000
32.834154 44.514508 0.000000
29.996599 50.000000 0.000000
44.978466 39.878119 0.000000
50.000000 36.664416 0.000000
39.735261 43.969290 0.000000
36.664185 50.000000 0.000000
45.621558 45.410088 0.000000
50.000000 43.332149 0.000000
43.331852 50.000000 0.000000
50.000000 50.000000 0.000000
CELLS 578 2312
3 1 0 2
3 0 3 2
3 4 1 6
3 6 1 2
3 3 5 7
3 3 7 2
3 6 2 7
3 9 4 10
3 10 4 6
3 5 8 11
3 7 5 11
3 10 6 12
3 12 6 7
3 7 11 13
3 7 13 12
3 8 14 15
3 11 8 15
3 16 9 17
3 17 9 10
3 17 10 18
3 18 10 12
3 11 15 19
3 13 11 19
3 18 12 20
3 13 19 20
3 20 12 13
3 14 22 24
3 15 14 24
3 15 24 25
3 19 15 25
3 21 16 26
3 26 16 17
3 26 17 27
3 27 17 18
3 27 18 28
3 28 18 20
3 19 25 29
3 19 29 20
3 28 20 30
3 30 20 29
3 31 21 32
3 32 21 26
3 22 23 36
3 24 22 36
3 23 34 37
3 36 23 37
3 24 36 38
3 25 24 38
3 25 38 39
3 29 25 39
3 32 26 40
3 40 26 27
3 40 27 41
3 41 27 28
3 41 28 42
3 42 28 30
3 29 39 43
3 29 43 30
3 42 30 43
3 33 31 44
3 44 31 32
3 44 32 45
3 45 32 40
3 46 33 47
3 47 33 44
3 34 35 50
3 37 34 50
3 35 48 51
3 50 35 51
3 36 37 52
3 38 36 52
3 37 50 53
3 52 37 53
3 38 52 54
3 39 38 54
3 39 54 55
3 43 39 55
3 45 40 56
3 56 40 41
3 56 41 57
3 57 41 42
3 57 42 58
3 58 42 43
3 43 55 59
3 43 59 58
3 47 44 60
3 60 44 45
3 60 45 61
3 61 45 56
3 62 46 63
3 63 46 47
3 63 47 64
3 64 47 60
3 48 49 68
3 51 48 68
3 49 66 69
3 68 49 69
3 50 51 70
3 53 50 70
3 51 68 71
3 70 51 71
3 52 53 72
3 54 52 72
3 53 70 73
3 72 53 73
3 54 72 74
3 55 54 74
3 55 74 75
3 59 55 75
3 61 56 76
3 76 56 57
3 76 57 77
3 77 57 58
3 77 58 78
3 59 75 78
3 78 58 59
3 64 60 79
3 79 60 61
3 79 61 80
3 80 61 76
3 65 62 81
3 81 62 63
3 81 63 82
3 82 63 64
3 82 64 83
3 83 64 79
3 84 65 85
3 85 65 81
3 66 67 89
3 69 66 89
3 67 87 90
3 89 67 90
3 68 69 91
3 71 68 91
3 69 89 92
3 91 69 92
3 70 71 93
3 73 70 93
3 71 91 94
3 93 71 94
3 72 73 95
3 74 72 95
3 73 93 96
3 95 73 96
3 74 95 97
3 75 74 97
3 75 97 98
3 78 75 98
3 80 76 99
3 99 76 77
3 99 77 100
3 100 77 78
3 100 78 101
3 98 101 78
3 83 79 102
3 102 79 80
3 102 80 103
3 103 80 99
3 85 81 104
3 104 81 82
3 105 83 102
3 104 82 106
3 106 82 83
3 106 83 105
3 86 84 107
3 107 84 85
3 107 85 108
3 108 85 104
3 109 86 107
3 110 86 109
3 87 88 112
3 90 87 112
3 112 88 113
3 88 114 113
3 90 112 115
3 89 90 116
3 92 89 116
3 116 90 115
3 91 92 117
3 94 91 117
3 92 116 118
3 117 92 118
3 93 94 119
3 96 93 119
3 94 117 120
3 119 94 120
3 95 96 121
3 97 95 121
3 96 119 122
3 121 96 122
3 97 121 123
3 98 97 123
3 98 123 124
3 98 124 101
3 103 99 125
3 125 99 100
3 125 100 126
3 126 100 101
3 126 101 124
3 105 102 127
3 127 102 103
3 127 103 128
3 128 103 125
3 129 105 127
3 108 104 130
3 130 104 106
3 130 106 131
3 131 106 105
3 131 105 129
3 108 130 132
3 109 107 133
3 133 107 108
3 133 108 134
3 108 132 134
3 135 109 133
3 111 110 136
3 136 110 109
3 136 109 135
3 137 111 136
3 138 111 137
3 112 113 139
3 115 112 139
3 114 140 113
3 140 139 113
3 139 141 115
3 116 115 142
3 118 116 142
3 142 115 141
3 117 118 143
3 120 117 143
3 118 142 144
3 143 118 144
3 119 120 145
3 122 119 145
3 120 143 146
3 145 120 146
3 121 122 147
3 123 121 147
3 122 145 148
3 147 122 148
3 123 147 149
3 124 123 149
3 124 149 150
3 151 126 124
3 124 150 151
3 128 125 152
3 152 125 126
3 152 126 151
3 129 127 153
3 153 127 128
3 128 152 154
3 153 128 154
3 155 129 153
3 131 129 156
3 156 129 155
3 132 130 157
3 130 131 157
3 157 131 158
3 131 156 158
3 132 157 159
3 132 159 134
3 135 133 160
3 160 133 134
3 160 134 159
3 136 135 161
3 135 160 161
3 162 137 136
3 161 162 136
3 163 138 137
3 162 163 137
3 139 164 141
3 140 165 139
3 139 165 164
3 141 164 166
3 141 166 142
3 166 167 142
3 144 142 167
3 167 168 144
3 143 144 168
3 146 143 168
3 168 169 146
3 145 146 170
3 148 145 170
3 170 146 169
3 147 148 171
3 149 147 171
3 148 170 172
3 171 148 172
3 173 151 150
3 149 171 174
3 150 149 174
3 150 174 175
3 150 175 173
3 154 152 176
3 152 151 176
3 176 151 173
3 154 176 177
3 155 153 178
3 177 178 154
3 154 178 153
3 156 155 179
3 155 178 179
3 180 158 156
3 179 180 156
3 181 159 157
3 180 181 158
3 181 157 158
3 182 160 159
3 181 182 159
3 183 161 160
3 182 183 160
3 184 162 161
3 184 161 183
3 185 163 162
3 184 185 162
3 164 186 166
3 165 187 164
3 164 187 186
3 166 186 188
3 166 188 167
3 167 188 189
3 167 189 168
3 168 189 190
3 168 190 169
3 169 190 191
3 169 191 170
3 192 172 170
3 170 191 192
3 192 193 172
3 171 172 193
3 174 171 193
3 194 173 175
3 176 173 194
3 175 174 195
3 193 195 174
3 195 196 175
3 175 196 194
3 197 177 176
3 194 197 176
3 198 178 177
3 197 198 177
3 199 179 178
3 198 199 178
3 200 180 179
3 199 200 179
3 201 181 180
3 200 201 180
3 202 182 181
3 201 202 181
3 203 183 182
3 202 203 182
3 204 184 183
3 203 204 183
3 205 185 184
3 204 205 184
3 186 206 188
3 187 207 186
3 186 207 206
3 188 206 208
3 188 208 189
3 189 208 209
3 189 209 190
3 190 209 210
3 190 210 191
3 191 210 211
3 191 211 192
3 192 211 212
3 192 212 193
3 193 212 213
3 193 213 195
3 214 197 194
3 214 194 196
3 195 213 215
3 195 215 196
3 196 215 214
3 216 198 197
3 214 216 197
3 217 199 198
3 216 217 198
3 218 200 199
3 217 218 199
3 219 201 200
3 218 219 200
3 220 202 201
3 219 220 201
3 221 203 202
3 220 221 202
3 222 204 203
3 221 222 203
3 223 205 204
3 222 223 204
3 206 224 208
3 207 225 206
3 206 225 224
3 208 224 226
3 208 226 209
3 209 226 227
3 209 227 210
3 210 227 228
3 210 228 211
3 211 228 229
3 211 229 212
3 212 229 230
3 212 230 213
3 213 230 231
3 213 231 215
3 232 216 214
3 215 231 232
3 232 214 215
3 233 217 216
3 232 233 216
3 234 218 217
3 233 234 217
3 235 219 218
3 234 235 218
3 236 220 219
3 235 236 219
3 237 221 220
3 236 237 220
3 238 222 221
3 237 238 221
3 239 223 222
3 238 239 222
3 224 240 226
3 225 241 224
3 224 241 240
3 226 240 242
3 226 242 227
3 227 242 243
3 227 243 228
3 228 243 244
3 228 244 229
3 244 245 229
3 229 245 230
3 230 245 246
3 230 246 231
3 231 246 247
3 231 247 232
3 248 233 232
3 248 232 247
3 249 234 233
3 248 249 233
3 250 235 234
3 249 250 234
3 251 236 235
3 250 251 235
3 252 237 236
3 251 252 236
3 253 238 237
3 252 253 237
3 254 239 238
3 253 254 238
3 240 255 242
3 241 256 240
3 240 256 255
3 242 255 257
3 242 257 243
3 243 257 258
3 243 258 244
3 244 258 259
3 244 259 245
3 245 259 260
3 245 260 246
3 246 260 261
3 246 261 247
3 248 247 261
3 262 249 248
3 261 262 248
3 263 250 249
3 262 263 249
3 264 251 250
3 263 264 250
3 265 252 251
3 264 265 251
3 266 253 252
3 265 266 252
3 267 254 253
3 266 267 253
3 255 268 257
3 256 269 255
3 255 269 268
3 257 268 270
3 257 270 258
3 258 270 271
3 258 271 259
3 259 271 272
3 259 272 260
3 260 272 273
3 260 273 261
3 274 262 261
3 261 273 274
3 275 263 262
3 274 275 262
3 276 264 263
3 275 276 263
3 277 265 264
3 276 277 264
3 278 266 265
3 277 278 265
3 279 267 266
3 278 279 266
3 268 280 270
3 269 281 268
3 268 281 280
3 270 280 282
3 270 282 271
3 271 282 283
3 271 283 272
3 283 284 272
3 272 284 273
3 285 275 274
3 273 284 285
3 285 274 273
3 286 276 275
3 285 286 275
3 287 277 276
3 286 287 276
3 288 278 277
3 287 288 277
3 289 279 278
3 288 289 278
3 280 290 282
3 281 291 280
3 280 291 290
3 282 290 292
3 282 292 283
3 283 292 293
3 283 293 284
3 284 293 294
3 284 294 285
3 295 286 285
3 295 285 294
3 296 287 286
3 295 296 286
3 297 288 287
3 296 297 287
3 298 289 288
3 297 298 288
3 290 299 292
3 291 300 290
3 290 300 299
3 292 299 301
3 292 301 293
3 293 301 302
3 293 302 294
3 294 302 295
3 303 296 295
3 303 295 302
3 304 297 296
3 303 304 296
3 305 298 297
3 304 305 297
3 299 306 301
3 300 307 299
3 299 307 306
3 301 306 308
3 301 308 302
3 309 303 302
3 302 308 309
3 310 304 303
3 309 310 303
3 311 305 304
3 310 311 304
3 306 312 308
3 307 313 306
3 306 313 312
3 314 310 309
3 308 312 314
3 314 309 308
3 315 311 310
3 314 315 310
3 312 316 314
3 313 317 312
3 312 317 316
3 318 315 314
3 318 314 316
3 317 319 316
3 319 318 316
CELL_TYPES 578
5
5
5
5
5
5
5
5
5
5
5
5
5
5
5
5
5
5
5
5
5
5
5
5
5
5
5
5
5
5
5
5
5
5
5
5
5
5
5
5
5
5
5
5
5
5
5
5
5
5
5
5
5
5
5
5
5
5
5
5
5
5
5
5
5
5
5
5
5
5
5
5
5
5
5
5
5
5
5
5
5
5
5
5
5
5
5
5
5
5
5
5
5
5
5
5
5
5
5
5
5
5
5
5
5
5
5
5
5
5
5
5
5
5
5
5
5
5
5
5
5
5
5
5
5
5
5
5
5
5
5
5
5
5
5
5
5
5
5
5
5
5
5
5
5
5
5
5
5
5
5
5
5
5
5
5
5
5
5
5
5
5
5
5
5
5
5
5
5
5
5
5
5
5
5
5
5
5
5
5
5
5
5
5
5
5
5
5
5
5
5
5
5
5
5
5
5
5
5
5
5
5
5
5
5
5
5
5
5
5
5
5
5
5
5
5
5
5
5
5
5
5
5
5
5
5
5
5
5
5
5
5
5
5
5
5
5
5
5
5
5
5
5
5
5
5
5
5
5
5
5
5
5
5
5
5
5
5
5
5
5
5
5
5
5
5
5
5
5
5
5
5
5
5
5
5
5
5
5
5
5
5
5
5
5
5
5
5
5
5
5
5
5
5
5
5
5
5
5
5
5
5
5
5
5
5
5
5
5
5
5
5
5
5
5
5
5
5
5
5
5
5
5
5
5
5
5
5
5
5
5
5
5
5
5
5
5
5
5
5
5
5
5
5
5
5
5
5
5
5
5
5
5
5
5
5
5
5
5
5
5
5
5
5
5
5
5
5
5
5
5
5
5
5
5
5
5
5
5
5
5
5
5
5
5
5
5
5
5
5
5
5
5
5
5
5
5
5
5
5
5
5
5
5
5
5
5
5
5
5
5
5
5
5
5
5
5
5
5
5
5
5
5
5
5
5
5
5
5
5
5
5
5
5
5
5
5
5
5
5
5
5
5
5
5
5
5
5
5
5
5
5
5
5
5
5
5
5
5
5
5
5
5
5
5
5
5
5
5
5
5
5
5
5
5
5
5
5
5
5
5
5
5
5
5
5
5
5
5
5
5
5
5
5
5
5
5
5
5
5
5
5
5
5
5
5
5
5
5
5
5
5
5
5
5
5
5
5
5
5
5
5
5
5
5
5
5
5
5
5
5
5
5
5
5
5
5
5
5
5
5
5
5
5
5
5
5
5
5
5
5
5
5
5
5
5
5
5
5
5
5
5
5
5
5
5
5
5
5
5
5
5
5
5
5
5
5
5
POINT_DATA 320
SCALARS theta_e float 1
LOOKUP_TABLE default
1.000000
1.000000
1.000000
1.000000
1.000000
1.000000
1.000000
1.000000
1.000000
1.000000
1.000000
1.000000
1.000000
1.000000
1.000000
1.000000
1.000000
1.000000
1.000000
1.000000
1.000000
1.000000
1.000000
1.000000
1.000000
1.000000
1.000000
1.000000
1.000000
1.000000
1.000000
1.000000
1.000000
1.000000
1.000000
1.000000
1.000000
1.000000
1.000000
1.000000
1.000000
1.000000
1.000000
1.000000
1.000000
1.000000
1.000000
1.000000
1.000000
1.000000
1.000000
1.000000
1.000000
1.000000
1.000000
1.000000
1.000000
1.000000
1.000000
1.000000
1.000000
1.000000
1.000000
1.000000
1.000000
1.000000
1.000000
1.000000
1.000000
1.000000
1.000000
1.000000
1.000000
1.000000
1.000000
1.000000
1.000000
1.000000
1.000000
1.000000
1.000000
1.000000
1.000000
1.000000
1.000000
1.000000
1.000000
1.000000
1.000000
1.000000
1.000000
1.000000
1.000000
1.000000
1.000000
1.000000
1.000000
1.000000
1.000000
1.000000
1.000000
1.000000
1.000000
1.000000
1.000000
1.000000
1.000000
1.000000
1.000000
1.000000
1.000000
1.000000
1.000000
1.000000
1.000000
1.000000
1.000000
1.000000
1.000000
1.000000
1.000000
1.000000
1.000000
1.000000
0.999999
1.000000
1.000000
1.000000
1.000001
1.000000
1.000000
1.000000
1.000000
1.000000
1.000000
1.000000
1.000000
1.000000
1.000000
1.000000
1.000000
1.000000
1.000000
1.000000
1.000000
1.000000
1.000000
1.000000
1.000000
0.999998
0.999994
0.999996
1.000000
1.000000
1.000000
1.000000
1.000000
1.000000
1.000000
1.000000
1.000000
1.000000
1.000000
1.000000
1.000000
1.000000
1.000000
1.000000
1.000000
1.000000
1.000000
0.999999
1.000000
0.999992
0.999995
0.999991
0.999995
0.999999
1.000001
1.000000
1.000000
1.000000
1.000000
1.000000
1.000000
1.000000
1.000000
1.000000
1.000000
1.000000
1.000000
1.000000
1.000000
0.999999
0.999992
0.999993
0.999991
0.999995
1.000000
1.000000
1.000000
1.000000
1.000000
1.000000
1.000000
1.000000
1.000000
1.000000
1.000000
1.000000
1.000000
1.000000
1.000000
0.999998
0.999994
0.999995
0.999999
1.000000
1.000000
1.000000
1.000000
1.000000
1.000000
1.000000
1.000000
1.000000
1.000000
1.000000
1.000000
1.000000
1.000000
0.999999
0.999999
1.000000
1.000000
1.000000
1.000000
1.000000
1.000000
1.000000
1.000000
1.000000
1.000000
1.000000
1.000000
1.000000
1.000000
1.000000
1.000000
1.000000
1.000000
1.000000
1.000000
1.000000
1.000000
1.000000
1.000000
1.000000
1.000000
1.000000
1.000000
1.000000
1.000000
1.000000
1.000000
1.000000
1.000000
1.000000
1.000000
1.000000
1.000000
1.000000
1.000000
1.000000
1.000000
1.000000
1.000000
1.000000
1.000000
1.000000
1.000000
1.000000
1.000000
1.000000
1.000000
1.000000
1.000000
1.000000
1.000000
1.000000
1.000000
1.000000
1.000000
1.000000
1.000000
1.000000
1.000000
1.000000
1.000000
1.000000
1.000000
1.000000
1.000000
1.000000
1.000000
1.000000
1.000000
1.000000
1.000000
1.000000
1.000000
1.000000
1.000000
1.000000
1.000000
1.000000
1.000000
1.000000
1.000000
1.000000
VECTORS fa_u float
0.000000 0.000000 0.000000
0.000000 0.000000 0.000000
0.000000 0.000000 0.000000
0.000000 0.000000 0.000000
0.000000 0.000000 0.000000
0.000000 0.000000 0.000000
0.000000 0.000000 0.000000
0.000000 0.000000 0.000000
0.000000 0.000000 0.000000
0.000000 0.000000 0.000000
0.000000 0.000000 0.000000
0.000000 0.000000 0.000000
0.000000 0.000000 0.000000
0.000000 0.000000 0.000000
0.000000 0.000000 0.000000
0.000000 0.000000 0.000000
0.000000 0.000000 0.000000
0.000000 0.000000 0.000000
0.000000 0.000000 0.000000
0.000000 0.000000 0.000000
0.000000 0.000000 0.000000
0.000000 0.000000 0.000000
0.000000 0.000000 0.000000
0.000000 0.000000 0.000000
0.000000 0.000000 0.000000
0.000000 0.000000 0.000000
0.000000 0.000000 0.000000
0.000000 0.000000 0.000000
0.000000 0.000000 0.000000
0.000000 0.000000 0.000000
0.000000 0.000000 0.000000
0.000000 0.000000 0.000000
0.000000 0.000000 0.000000
0.000000 0.000000 0.000000
0.000000 0.000000 0.000000
0.000000 0.000000 0.000000
0.000000 0.000000 0.000000
0.000000 0.000000 0.000000
0.000000 0.000000 0.000000
0.000000 0.000000 0.000000
0.000000 0.000000 0.000000
0.000000 0.000000 0.000000
0.000000 0.000000 0.000000
0.000000 0.000000 0.000000
0.000000 0.000000 0.000000
0.000000 0.000000 0.000000
0.000000 0.000000 0.000000
0.000000 0.000000 0.000000
0.000000 0.000000 0.000000
0.000000 0.000000 0.000000
0.000000 0.000000 0.000000
0.000000 0.000000 0.000000
0.000000 0.000000 0.000000
0.000000 0.000000 0.000000
0.000000 0.000000 0.000000
0.000000 0.000000 0.000000
0.000000 0.000000 0.000000
0.000000 0.000000 0.000000
0.000000 0.000000 0.000000
0.000000 0.000000 0.000000
0.000000 0.000000 0.000000
0.000000 0.000000 0.000000
0.000000 0.000000 0.000000
0.000000 0.000000 0.000000
0.000000 0.000000 0.000000
0.000000 0.000000 0.000000
0.000000 0.000000 0.000000
0.000000 0.000000 0.000000
0.000000 0.000000 0.000000
0.000000 0.000000 0.000000
0.000000 0.000000 0.000000
0.000000 0.000000 0.000000
0.000000 0.000000 0.000000
0.000000 0.000000 0.000000
0.000000 0.000000 0.000000
0.000000 0.000000 0.000000
0.000000 0.000000 0.000000
0.000000 0.000000 0.000000
0.000000 0.000000 0.000000
0.000000 0.000000 0.000000
0.000000 0.000000 0.000000
0.000000 0.000000 0.000000
0.000000 0.000000 0.000000
0.000000 0.000000 0.000000
0.000000 0.000000 0.000000
0.000000 0.000000 0.000000
0.000000 0.000000 0.000000
0.000000 0.000000 0.000000
0.000000 0.000000 0.000000
0.000000 0.000000 0.000000
0.000000 0.000000 0.000000
0.000000 0.000000 0.000000
0.000000 0.000000 0.000000
0.000000 0.000000 0.000000
0.000000 0.000000 0.000000
0.000000 0.000000 0.000000
0.000000 0.000000 0.000000
0.000000 0.000000 0.000000
0.000000 0.000000 0.000000
0.000000 0.000000 0.000000
0.000000 0.000000 0.000000
0.000000 0.000000 0.000000
0.000000 0.000000 0.000000
0.000000 0.000000 0.000000
0.000000 0.000000 0.000000
0.000000 0.000000 0.000000
0.000000 0.000000 0.000000
0.000000 0.000000 0.000000
0.000000 0.000000 0.000000
0.000000 0.000000 0.000000
0.000000 0.000000 0.000000
0.000000 0.000000 0.000000
0.000000 0.000000 0.000000
0.000000 0.000000 0.000000
0.000000 0.000000 0.000000
0.000000 0.000000 0.000000
0.000000 0.000000 0.000000
0.000000 0.000000 0.000000
0.000000 0.000000 0.000000
0.000000 0.000000 0.000000
0.000000 0.000000 0.000000
0.000000 0.000000 0.000000
0.000000 0.000000 0.000000
0.000000 0.000000 0.000000
0.000000 0.000000 0.000000
0.000000 0.000000 0.000000
0.000000 0.000000 0.000000
0.000000 0.000000 0.000000
0.000000 0.000000 0.000000
0.000000 0.000000 0.000000
0.000000 0.000000 0.000000
0.000000 0.000000 0.000000
0.000000 0.000000 0.000000
0.000000 0.000000 0.000000
0.000000 0.000000 0.000000
0.000000 0.000000 0.000000
0.000000 0.000000 0.000000
0.000000 0.000000 0.000000
0.000000 0.000000 0.000000
0.000000 0.000000 0.000000
0.000000 0.000000 0.000000
0.000000 0.000000 0.000000
0.000000 0.000000 0.000000
0.000000 0.000000 0.000000
0.000000 0.000000 0.000000
0.000000 0.000000 0.000000
0.000000 0.000000 0.000000
0.000000 0.000000 0.000000
0.000000 0.000000 0.000000
0.000000 0.000000 0.000000
0.000000 0.000000 0.000000
0.000000 0.000000 0.000000
0.000000 0.000000 0.000000
0.000000 0.000000 0.000000
0.000000 0.000000 0.000000
0.000000 0.000000 0.000000
0.000000 0.000000 0.000000
0.000000 0.000000 0.000000
0.000000 0.000000 0.000000
0.000000 0.000000 0.000000
0.000000 0.000000 0.000000
0.000000 0.000000 0.000000
0.000000 0.000000 0.000000
0.000000 0.000000 0.000000
0.000000 0.000000 0.000000
0.000000 0.000000 0.000000
0.000000 0.000000 0.000000
0.000000 0.000000 0.000000
0.000000 0.000000 0.000000
0.000000 0.000000 0.000000
0.000000 0.000000 0.000000
0.000000 0.000000 0.000000
0.000000 0.000000 0.000000
0.000000 0.000000 0.000000
0.000000 0.000000 0.000000
0.000000 0.000000 0.000000
0.000000 0.000000 0.000000
0.000000 0.000000 0.000000
0.000000 0.000000 0.000000
0.000000 0.000000 0.000000
0.000000 0.000000 0.000000
0.000000 0.000000 0.000000
0.000000 0.000000 0.000000
0.000000 0.000000 0.000000
0.000000 0.000000 0.000000
0.000000 0.000000 0.000000
0.000000 0.000000 0.000000
0.000000 0.000000 0.000000
0.000000 0.000000 0.000000
0.000000 0.000000 0.000000
0.000000 0.000000 0.000000
0.000000 0.000000 0.000000
0.000000 0.000000 0.000000
0.000000 0.000000 0.000000
0.000000 0.000000 0.000000
0.000000 0.000000 0.000000
0.000000 0.000000 0.000000
0.000000 0.000000 0.000000
0.000000 0.000000 0.000000
0.000000 0.000000 0.000000
0.000000 0.000000 0.000000
0.000000 0.000000 0.000000
0.000000 0.000000 0.000000
0.000000 0.000000 0.000000
0.000000 0.000000 0.000000
0.000000 0.000000 0.000000
0.000000 0.000000 0.000000
0.000000 0.000000 0.000000
0.000000 0.000000 0.000000
0.000000 0.000000 0.000000
0.000000 0.000000 0.000000
0.000000 0.000000 0.000000
0.000000 0.000000 0.000000
0.000000 0.000000 0.000000
0.000000 0.000000 0.000000
0.000000 0.000000 0.000000
0.000000 0.000000 0.000000
0.000000 0.000000 0.000000
0.000000 0.000000 0.000000
0.000000 0.000000 0.000000
0.000000 0.000000 0.000000
0.000000 0.000000 0.000000
0.000000 0.000000 0.000000
0.000000 0.000000 0.000000
0.000000 0.000000 0.000000
0.000000 0.000000 0.000000
0.000000 0.000000 0.000000
0.000000 0.000000 0.000000
0.000000 0.000000 0.000000
0.000000 0.000000 0.000000
0.000000 0.000000 0.000000
0.000000 0.000000 0.000000
0.000000 0.000000 0.000000
0.000000 0.000000 0.000000
0.000000 0.000000 0.000000
0.000000 0.000000 0.000000
0.000000 0.000000 0.000000
0.000000 0.000000 0.000000
0.000000 0.000000 0.000000
0.000000 0.000000 0.000000
0.000000 0.000000 0.000000
0.000000 0.000000 0.000000
0.000000 0.000000 0.000000
0.000000 0.000000 0.000000
0.000000 0.000000 0.000000
0.000000 0.000000 0.000000
0.000000 0.000000 0.000000
0.000000 0.000000 0.000000
0.000000 0.000000 0.000000
0.000000 0.000000 0.000000
0.000000 0.000000 0.000000
0.000000 0.000000 0.000000
0.000000 0.000000 0.000000
0.000000 0.000000 0.000000
0.000000 0.000000 0.000000
0.000000 0.000000 0.000000
0.000000 0.000000 0.000000
0.000000 0.000000 0.000000
0.000000 0.000000 0.000000
0.000000 0.000000 0.000000
0.000000 0.000000 0.000000
0.000000 0.000000 0.000000
0.000000 0.000000 0.000000
0.000000 0.000000 0.000000
0.000000 0.000000 0.000000
0.000000 0.000000 0.000000
0.000000 0.000000 0.000000
0.000000 0.000000 0.000000
0.000000 0.000000 0.000000
0.000000 0.000000 0.000000
0.000000 0.000000 0.000000
0.000000 0.000000 0.000000
0.000000 0.000000 0.000000
0.000000 0.000000 0.000000
0.000000 0.000000 0.000000
0.000000 0.000000 0.000000
0.000000 0.000000 0.000000
0.000000 0.000000 0.000000
0.000000 0.000000 0.000000
0.000000 0.000000 0.000000
0.000000 0.000000 0.000000
0.000000 0.000000 0.000000
0.000000 0.000000 0.000000
0.000000 0.000000 0.000000
0.000000 0.000000 0.000000
0.000000 0.000000 0.000000
0.000000 0.000000 0.000000
0.000000 0.000000 0.000000
0.000000 0.000000 0.000000
0.000000 0.000000 0.000000
0.000000 0.000000 0.000000
0.000000 0.000000 0.000000
0.000000 0.000000 0.000000
0.000000 0.000000 0.000000
0.000000 0.000000 0.000000
0.000000 0.000000 0.000000
0.000000 0.000000 -50.000000
-50.000000 0.000000 -50.000000
-43.332254 0.000000 -45.688645
-45.491359 0.000000 -43.332104
-50.000000 0.000000 -50.000000
-36.664442 0.000000 -36.664515
-50.000000 0.000000 -45.081398
-39.969933 0.000000 -40.027595
-44.152495 0.000000 -29.996846
-50.000000 0.000000 -50.000000
-29.996733 0.000000 -44.847361
-33.449040 0.000000 -33.145239
-44.675924 0.000000 -39.869474
-36.787150 0.000000 -35.129074
-39.801594 0.000000 -23.329607
-50.000000 0.000000 -26.539506
-44.666854 0.000000 -50.000000
-23.329512 0.000000 -44.665388
-26.804097 0.000000 -39.364496
-30.225853 0.000000 -29.606747
-39.359591 0.000000 -33.368716
-33.655712 0.000000 -50.000000
-16.662998 0.000000 -16.663168
-50.000000 0.000000 -9.997537
