# vtk DataFile Version 2.0
CellBP Time: 4.76
ASCII
DATASET UNSTRUCTURED_GRID
POINTS 320 double
-50.000000 -50.000000 0.000000
-50.000000 -43.332536 0.000000
-45.688544 -45.491276 0.000000
-43.332423 -50.000000 0.000000
-50.000000 -36.665022 0.000000
-36.665071 -50.000000 0.000000
-45.081290 -39.969875 0.000000
-40.027436 -44.152409 0.000000
-29.997657 -50.000000 0.000000
-50.000000 -29.997582 0.000000
-44.847256 -33.448989 0.000000
-33.145112 -44.675831 0.000000
-39.869339 -36.787086 0.000000
-35.128912 -39.801481 0.000000
-23.330559 -50.000000 0.000000
-26.539367 -44.666812 0.000000
-50.000000 -23.330500 0.000000
-44.665345 -26.804025 0.000000
-39.364398 -30.225783 0.000000
-29.606562 -39.359503 0.000000
-33.368531 -33.655608 0.000000
-50.000000 -16.663939 0.000000
-16.664053 -50.000000 0.000000
-9.998151 -50.000000 0.000000
-19.965138 -44.588733 0.000000
-23.216103 -39.114738 0.000000
-44.691843 -20.097010 0.000000
-39.367917 -23.528174 0.000000
-34.106316 -26.937088 0.000000
-26.384697 -33.577461 0.000000
-29.156488 -28.926793 0.000000
-50.000000 -9.997835 0.000000
-44.666321 -13.410265 0.000000
-50.000000 -3.332311 0.000000
-3.332743 -50.000000 0.000000
3.332540 -50.000000 0.000000
-13.343914 -44.598934 0.000000
-6.684875 -44.610559 0.000000
-16.693896 -39.153169 0.000000
-20.107121 -33.342645 0.000000
-39.338134 -16.804648 0.000000
-34.018929 -20.274547 0.000000
-28.781271 -23.449184 0.000000
-23.510730 -27.350786 0.000000
-44.635343 -6.705510 0.000000
-39.293108 -10.101721 0.000000
-50.000000 3.332912 0.000000
-44.626595 -0.015439 0.000000
9.998068 -50.000000 0.000000
16.664075 -50.000000 0.000000
-0.016146 -44.618646 0.000000
6.651747 -44.635376 0.000000
-10.044872 -39.222542 0.000000
-3.368266 -39.220262 0.000000
-13.484313 -33.798527 0.000000
-16.709085 -28.271575 0.000000
-33.947977 -13.513625 0.000000
-28.602464 -16.892107 0.000000
-23.292431 -20.313240 0.000000
-18.660849 -23.284134 0.000000
-39.267395 -3.392640 0.000000
-33.904506 -6.796705 0.000000
-50.000000 9.998243 0.000000
-44.606593 6.673698 0.000000
-39.260723 3.325800 0.000000
-50.000000 16.664105 0.000000
23.330575 -50.000000 0.000000
29.997574 -50.000000 0.000000
13.317693 -44.662938 0.000000
19.989838 -44.700097 0.000000
3.307659 -39.245113 0.000000
9.971874 -39.290354 0.000000
-6.735568 -33.791351 0.000000
-0.032176 -33.829480 0.000000
-10.095982 -28.292636 0.000000
-13.122703 -22.896585 0.000000
-28.531746 -10.214305 0.000000
-23.067600 -13.663641 0.000000
-16.978768 -17.211848 0.000000
-33.884328 -0.065448 0.000000
-28.562861 -3.579825 0.000000
-44.564005 13.380839 0.000000
-39.189923 10.015204 0.000000
-33.905532 6.616090 0.000000
-50.000000 23.330430 0.000000
-44.557419 20.138480 0.000000
-50.000000 29.997660 0.000000
36.664944 -50.000000 0.000000
43.332438 -50.000000 0.000000
26.663440 -44.745363 0.000000
33.315438 -44.876092 0.000000
16.631731 -39.357678 0.000000
23.328374 -39.437152 0.000000
6.642950 -33.879567 0.000000
13.290574 -33.965434 0.000000
-3.346181 -28.363549 0.000000
3.358077 -28.451207 0.000000
-6.626188 -22.845162 0.000000
-9.964035 -17.315277 0.000000
-23.181460 -7.014260 0.000000
-17.813278 -10.334839 0.000000
-12.838014 -12.604649 0.000000
-28.607358 3.088695 0.000000
-23.266265 -0.469472 0.000000
-39.038565 16.746404 0.000000
-28.720332 9.925955 0.000000
-33.760966 13.318110 0.000000
-44.521706 26.717228 0.000000
-38.467771 23.892711 0.000000
-44.632621 33.085882 0.000000
-50.000000 36.665361 0.000000
-50.000000 43.332646 0.000000
39.922501 -45.069717 0.000000
45.474856 -45.660596 0.000000
50.000000 -50.000000 0.000000
36.626890 -39.982063 0.000000
30.012505 -39.458698 0.000000
19.904213 -34.092925 0.000000
26.585110 -34.319598 0.000000
9.988553 -28.512873 0.000000
16.610640 -28.660319 0.000000
0.050837 -22.962330 0.000000
6.812142 -23.155834 0.000000
-3.398416 -17.296973 0.000000
-6.818655 -10.922317 0.000000
-17.874762 -3.816738 0.000000
-12.549803 -7.034106 0.000000
-23.308659 6.070444 0.000000
-18.034625 2.442278 0.000000
-23.123308 12.096160 0.000000
-33.572135 19.788956 0.000000
-27.941639 16.886160 0.000000
-33.293161 24.722967 0.000000
-39.473928 30.053211 0.000000
-35.160752 28.137767 0.000000
-39.816359 35.101705 0.000000
-43.991880 39.982571 0.000000
-45.431124 45.685392 0.000000
-50.000000 50.000000 0.000000
44.117389 -39.899209 0.000000
50.000000 -43.332141 0.000000
39.639576 -35.047550 0.000000
33.462990 -33.424657 0.000000
22.984975 -28.818133 0.000000
28.731059 -29.247910 0.000000
13.460797 -23.121792 0.000000
20.054922 -23.439573 0.000000
3.371230 -17.589765 0.000000
10.123871 -17.842464 0.000000
0.160799 -11.849574 0.000000
-2.133390 -6.189338 0.000000
-7.227979 -3.603495 0.000000
-12.492047 -0.807059 0.000000
-18.170890 8.573224 0.000000
-12.942939 5.196537 0.000000
-18.638181 13.751260 0.000000
-21.503904 17.494301 0.000000
-28.941005 23.159097 0.000000
-24.346390 21.554356 0.000000
-30.323891 28.635118 0.000000
-34.253750 33.375662 0.000000
-36.956085 39.578155 0.000000
-39.838742 45.102910 0.000000
-43.332398 50.000000 0.000000
44.585367 -32.972217 0.000000
50.000000 -36.664644 0.000000
39.129370 -29.581997 0.000000
33.500695 -26.367748 0.000000
27.183149 -23.322113 0.000000
23.066970 -18.647923 0.000000
16.991741 -16.981702 0.000000
6.701635 -12.197557 0.000000
12.367803 -12.736066 0.000000
-3.370468 -1.487155 0.000000
3.832870 -6.844941 0.000000
1.023201 -2.120895 0.000000
-6.900909 2.284128 0.000000
-8.297803 7.705736 0.000000
-12.842656 11.929150 0.000000
-15.691074 17.699261 0.000000
-19.287400 22.981701 0.000000
-24.170987 27.354507 0.000000
-27.286389 33.625864 0.000000
-30.406758 39.161083 0.000000
-33.447921 44.738880 0.000000
-36.664851 50.000000 0.000000
44.547750 -26.500075 0.000000
50.000000 -29.997197 0.000000
39.040016 -23.179333 0.000000
33.449596 -19.899988 0.000000
28.039760 -16.573581 0.000000
22.680590 -13.123786 0.000000
17.175905 -9.902395 0.000000
10.823466 -6.596405 0.000000
-1.357444 2.317032 0.000000
6.158606 -1.718614 0.000000
2.893208 1.594918 0.000000
-3.476783 7.041258 0.000000
-6.313232 12.431784 0.000000
-9.629339 17.709235 0.000000
-13.167727 23.114037 0.000000
-17.316831 28.185088 0.000000
-20.570945 33.474242 0.000000
-23.666075 39.063926 0.000000
-26.831154 44.585350 0.000000
-29.997627 50.000000 0.000000
44.528656 -19.930847 0.000000
50.000000 -23.330157 0.000000
39.036196 -16.594184 0.000000
33.575924 -13.281247 0.000000
28.149506 -9.965060 0.000000
22.724931 -6.604746 0.000000
17.264687 -3.335588 0.000000
11.857962 0.210331 0.000000
1.914372 6.226326 0.000000
6.868245 3.745876 0.000000
-0.222771 11.824447 0.000000
-3.253503 17.531016 0.000000
-6.699436 22.976797 0.000000
-10.567299 28.267280 0.000000
-13.724200 33.661072 0.000000
-16.945860 39.080192 0.000000
-20.140874 44.548371 0.000000
-23.330725 50.000000 0.000000
44.536180 -13.303973 0.000000
50.000000 -16.663709 0.000000
39.079802 -9.966839 0.000000
33.646601 -6.641329 0.000000
28.236507 -3.307963 0.000000
22.848982 0.017520 0.000000
17.537206 3.346428 0.000000
12.189513 6.585953 0.000000
6.675338 10.738261 0.000000
3.302071 17.198721 0.000000
-0.080838 22.853805 0.000000
-3.518949 28.312993 0.000000
-6.831626 33.774562 0.000000
-10.137672 39.170512 0.000000
-13.436066 44.563476 0.000000
-16.664323 50.000000 0.000000
44.554186 -6.654923 0.000000
50.000000 -9.997915 0.000000
39.123233 -3.321435 0.000000
33.713326 0.008779 0.000000
28.333283 3.344805 0.000000
23.000020 6.693846 0.000000
17.834006 10.019791 0.000000
12.657754 12.239573 0.000000
9.785844 17.233375 0.000000
6.479158 22.722411 0.000000
3.189217 28.270122 0.000000
-0.116018 33.734869 0.000000
-3.425304 39.168665 0.000000
-6.725682 44.581750 0.000000
-9.998378 50.000000 0.000000
44.575537 0.001814 0.000000
50.000000 -3.332632 0.000000
39.166871 3.331823 0.000000
33.779447 6.655609 0.000000
28.423944 9.994802 0.000000
23.046475 13.416238 0.000000
16.950292 17.023872 0.000000
12.901586 22.668055 0.000000
9.815264 28.231831 0.000000
6.604348 33.718786 0.000000
3.286539 39.164427 0.000000
-0.029946 44.584519 0.000000
-3.332796 50.000000 0.000000
44.586679 6.665600 0.000000
50.000000 3.332590 0.000000
39.198162 9.981994 0.000000
33.843480 13.276940 0.000000
28.542236 16.584442 0.000000
23.387463 20.084294 0.000000
18.531934 23.113133 0.000000
16.392762 28.298561 0.000000
13.329010 33.754753 0.000000
9.986668 39.181951 0.000000
6.666092 44.584271 0.000000
3.332667 50.000000 0.000000
44.608889 13.318163 0.000000
50.000000 9.998135 0.000000
39.251379 16.612547 0.000000
33.931993 19.862887 0.000000
28.612492 22.925997 0.000000
23.279668 27.207726 0.000000
19.901388 33.302926 0.000000
16.574000 39.040866 0.000000
13.268589 44.526672 0.000000
9.998199 50.000000 0.000000
44.632070 19.973252 0.000000
50.000000 16.664174 0.000000
39.298536 23.262287 0.000000
34.043906 26.514836 0.000000
28.965911 28.539490 0.000000
26.202520 33.410167 0.000000
23.066882 38.968808 0.000000
19.888844 44.507032 0.000000
16.664069 50.000000 0.000000
44.639866 26.643167 0.000000
50.000000 23.330682 0.000000
39.293465 29.966882 0.000000
33.212537 33.371399 0.000000
29.412326 39.045914 0.000000
26.422623 44.505997 0.000000
23.330507 50.000000 0.000000
44.775113 33.291984 0.000000
50.000000 29.997657 0.000000
39.738299 36.596442 0.000000
34.831225 39.525787 0.000000
32.834024 44.514423 0.000000
29.997467 50.000000 0.000000
44.978380 39.878016 0.000000
50.000000 36.664988 0.000000
39.735111 43.969188 0.000000
36.664820 50.000000 0.000000
45.621456 45.409977 0.000000
50.000000 43.332450 0.000000
43.332231 50.000000 0.000000
50.000000 50.000000 0.000000
CELLS 578 2312
3 1 0 2
3 0 3 2
3 4 1 6
3 6 1 2
3 3 5 7
3 3 7 2
3 6 2 7
3 9 4 10
3 10 4 6
3 5 8 11
3 7 5 11
3 10 6 12
3 12 6 7
3 7 11 13
3 7 13 12
3 8 14 15
3 11 8 15
3 16 9 17
3 17 9 10
3 17 10 18
3 18 10 12
3 11 15 19
3 13 11 19
3 18 12 20
3 13 19 20
3 20 12 13
3 14 22 24
3 15 14 24
3 15 24 25
3 19 15 25
3 21 16 26
3 26 16 17
3 26 17 27
3 27 17 18
3 27 18 28
3 28 18 20
3 19 25 29
3 19 29 20
3 28 20 30
3 30 20 29
3 31 21 32
3 32 21 26
3 22 23 36
3 24 22 36
3 23 34 37
3 36 23 37
3 24 36 38
3 25 24 38
3 25 38 39
3 29 25 39
3 32 26 40
3 40 26 27
3 40 27 41
3 41 27 28
3 41 28 42
3 42 28 30
3 29 39 43
3 29 43 30
3 42 30 43
3 33 31 44
3 44 31 32
3 44 32 45
3 45 32 40
3 46 33 47
3 47 33 44
3 34 35 50
3 37 34 50
3 35 48 51
3 50 35 51
3 36 37 52
3 38 36 52
3 37 50 53
3 52 37 53
3 38 52 54
3 39 38 54
3 39 54 55
3 43 39 55
3 45 40 56
3 56 40 41
3 56 41 57
3 57 41 42
3 57 42 58
3 58 42 43
3 43 55 59
3 43 59 58
3 47 44 60
3 60 44 45
3 60 45 61
3 61 45 56
3 62 46 63
3 63 46 47
3 63 47 64
3 64 47 60
3 48 49 68
3 51 48 68
3 49 66 69
3 68 49 69
3 50 51 70
3 53 50 70
3 51 68 71
3 70 51 71
3 52 53 72
3 54 52 72
3 53 70 73
3 72 53 73
3 54 72 74
3 55 54 74
3 55 74 75
3 59 55 75
3 61 56 76
3 76 56 57
3 76 57 77
3 77 57 58
3 77 58 78
3 59 75 78
3 78 58 59
3 64 60 79
3 79 60 61
3 79 61 80
3 80 61 76
3 65 62 81
3 81 62 63
3 81 63 82
3 82 63 64
3 82 64 83
3 83 64 79
3 84 65 85
3 85 65 81
3 66 67 89
3 69 66 89
3 67 87 90
3 89 67 90
3 68 69 91
3 71 68 91
3 69 89 92
3 91 69 92
3 70 71 93
3 73 70 93
3 71 91 94
3 93 71 94
3 72 73 95
3 74 72 95
3 73 93 96
3 95 73 96
3 74 95 97
3 75 74 97
3 75 97 98
3 78 75 98
3 80 76 99
3 99 76 77
3 99 77 100
3 100 77 78
3 100 78 101
3 98 101 78
3 83 79 102
3 102 79 80
3 102 80 103
3 103 80 99
3 85 81 104
3 104 81 82
3 105 83 102
3 104 82 106
3 106 82 83
3 106 83 105
3 86 84 107
3 107 84 85
3 107 85 108
3 108 85 104
3 109 86 107
3 110 86 109
3 87 88 112
3 90 87 112
3 112 88 113
3 88 114 113
3 90 112 115
3 89 90 116
3 92 89 116
3 116 90 115
3 91 92 117
3 94 91 117
3 92 116 118
3 117 92 118
3 93 94 119
3 96 93 119
3 94 117 120
3 119 94 120
3 95 96 121
3 97 95 121
3 96 119 122
3 121 96 122
3 97 121 123
3 98 97 123
3 98 123 124
3 98 124 101
3 103 99 125
3 125 99 100
3 125 100 126
3 126 100 101
3 126 101 124
3 105 102 127
3 127 102 103
3 127 103 128
3 128 103 125
3 129 105 127
3 108 104 130
3 130 104 106
3 130 106 131
3 131 106 105
3 131 105 129
3 108 130 132
3 109 107 133
3 133 107 108
3 133 108 134
3 108 132 134
3 135 109 133
3 111 110 136
3 136 110 109
3 136 109 135
3 137 111 136
3 138 111 137
3 112 113 139
3 115 112 139
3 114 140 113
3 140 139 113
3 139 141 115
3 116 115 142
3 118 116 142
3 142 115 141
3 117 118 143
3 120 117 143
3 118 142 144
3 143 118 144
3 119 120 145
3 122 119 145
3 120 143 146
3 145 120 146
3 121 122 147
3 123 121 147
3 122 145 148
3 147 122 148
3 123 147 149
3 124 123 149
3 124 149 150
3 151 126 124
3 124 150 151
3 128 125 152
3 152 125 126
3 152 126 151
3 129 127 153
3 153 127 128
3 128 152 154
3 153 128 154
3 155 129 153
3 131 129 156
3 156 129 155
3 132 130 157
3 130 131 157
3 157 131 158
3 131 156 158
3 132 157 159
3 132 159 134
3 135 133 160
3 160 133 134
3 160 134 159
3 136 135 161
3 135 160 161
3 162 137 136
3 161 162 136
3 163 138 137
3 162 163 137
3 139 164 141
3 140 165 139
3 139 165 164
3 141 164 166
3 141 166 142
3 166 167 142
3 144 142 167
3 167 168 144
3 143 144 168
3 146 143 168
3 168 169 146
3 145 146 170
3 148 145 170
3 170 146 169
3 147 148 171
3 149 147 171
3 148 170 172
3 171 148 172
3 173 151 150
3 149 171 174
3 150 149 174
3 150 174 175
3 150 175 173
3 154 152 176
3 152 151 176
3 176 151 173
3 154 176 177
3 155 153 178
3 177 178 154
3 154 178 153
3 156 155 179
3 155 178 179
3 180 158 156
3 179 180 156
3 181 159 157
3 180 181 158
3 181 157 158
3 182 160 159
3 181 182 159
3 183 161 160
3 182 183 160
3 184 162 161
3 184 161 183
3 185 163 162
3 184 185 162
3 164 186 166
3 165 187 164
3 164 187 186
3 166 186 188
3 166 188 167
3 167 188 189
3 167 189 168
3 168 189 190
3 168 190 169
3 169 190 191
3 169 191 170
3 192 172 170
3 170 191 192
3 192 193 172
3 171 172 193
3 174 171 193
3 194 173 175
3 176 173 194
3 175 174 195
3 193 195 174
3 195 196 175
3 175 196 194
3 197 177 176
3 194 197 176
3 198 178 177
3 197 198 177
3 199 179 178
3 198 199 178
3 200 180 179
3 199 200 179
3 201 181 180
3 200 201 180
3 202 182 181
3 201 202 181
3 203 183 182
3 202 203 182
3 204 184 183
3 203 204 183
3 205 185 184
3 204 205 184
3 186 206 188
3 187 207 186
3 186 207 206
3 188 206 208
3 188 208 189
3 189 208 209
3 189 209 190
3 190 209 210
3 190 210 191
3 191 210 211
3 191 211 192
3 192 211 212
3 192 212 193
3 193 212 213
3 193 213 195
3 214 197 194
3 214 194 196
3 195 213 215
3 195 215 196
3 196 215 214
3 216 198 197
3 214 216 197
3 217 199 198
3 216 217 198
3 218 200 199
3 217 218 199
3 219 201 200
3 218 219 200
3 220 202 201
3 219 220 201
3 221 203 202
3 220 221 202
3 222 204 203
3 221 222 203
3 223 205 204
3 222 223 204
3 206 224 208
3 207 225 206
3 206 225 224
3 208 224 226
3 208 226 209
3 209 226 227
3 209 227 210
3 210 227 228
3 210 228 211
3 211 228 229
3 211 229 212
3 212 229 230
3 212 230 213
3 213 230 231
3 213 231 215
3 232 216 214
3 215 231 232
3 232 214 215
3 233 217 216
3 232 233 216
3 234 218 217
3 233 234 217
3 235 219 218
3 234 235 218
3 236 220 219
3 235 236 219
3 237 221 220
3 236 237 220
3 238 222 221
3 237 238 221
3 239 223 222
3 238 239 222
3 224 240 226
3 225 241 224
3 224 241 240
3 226 240 242
3 226 242 227
3 227 242 243
3 227 243 228
3 228 243 244
3 228 244 229
3 244 245 229
3 229 245 230
3 230 245 246
3 230 246 231
3 231 246 247
3 231 247 232
3 248 233 232
3 248 232 247
3 249 234 233
3 248 249 233
3 250 235 234
3 249 250 234
3 251 236 235
3 250 251 235
3 252 237 236
3 251 252 236
3 253 238 237
3 252 253 237
3 254 239 238
3 253 254 238
3 240 255 242
3 241 256 240
3 240 256 255
3 242 255 257
3 242 257 243
3 243 257 258
3 243 258 244
3 244 258 259
3 244 259 245
3 245 259 260
3 245 260 246
3 246 260 261
3 246 261 247
3 248 247 261
3 262 249 248
3 261 262 248
3 263 250 249
3 262 263 249
3 264 251 250
3 263 264 250
3 265 252 251
3 264 265 251
3 266 253 252
3 265 266 252
3 267 254 253
3 266 267 253
3 255 268 257
3 256 269 255
3 255 269 268
3 257 268 270
3 257 270 258
3 258 270 271
3 258 271 259
3 259 271 272
3 259 272 260
3 260 272 273
3 260 273 261
3 274 262 261
3 261 273 274
3 275 263 262
3 274 275 262
3 276 264 263
3 275 276 263
3 277 265 264
3 276 277 264
3 278 266 265
3 277 278 265
3 279 267 266
3 278 279 266
3 268 280 270
3 269 281 268
3 268 281 280
3 270 280 282
3 270 282 271
3 271 282 283
3 271 283 272
3 283 284 272
3 272 284 273
3 285 275 274
3 273 284 285
3 285 274 273
3 286 276 275
3 285 286 275
3 287 277 276
3 286 287 276
3 288 278 277
3 287 288 277
3 289 279 278
3 288 289 278
3 280 290 282
3 281 291 280
3 280 291 290
3 282 290 292
3 282 292 283
3 283 292 293
3 283 293 284
3 284 293 294
3 284 294 285
3 295 286 285
3 295 285 294
3 296 287 286
3 295 296 286
3 297 288 287
3 296 297 287
3 298 289 288
3 297 298 288
3 290 299 292
3 291 300 290
3 290 300 299
3 292 299 301
3 292 301 293
3 293 301 302
3 293 302 294
3 294 302 295
3 303 296 295
3 303 295 302
3 304 297 296
3 303 304 296
3 305 298 297
3 304 305 297
3 299 306 301
3 300 307 299
3 299 307 306
3 301 306 308
3 301 308 302
3 309 303 302
3 302 308 309
3 310 304 303
3 309 310 303
3 311 305 304
3 310 311 304
3 306 312 308
3 307 313 306
3 306 313 312
3 314 310 309
3 308 312 314
3 314 309 308
3 315 311 310
3 314 315 310
3 312 316 314
3 313 317 312
3 312 317 316
3 318 315 314
3 318 314 316
3 317 319 316
3 319 318 316
CELL_TYPES 578
5
5
5
5
5
5
5
5
5
5
5
5
5
5
5
5
5
5
5
5
5
5
5
5
5
5
5
5
5
5
5
5
5
5
5
5
5
5
5
5
5
5
5
5
5
5
5
5
5
5
5
5
5
5
5
5
5
5
5
5
5
5
5
5
5
5
5
5
5
5
5
5
5
5
5
5
5
5
5
5
5
5
5
5
5
5
5
5
5
5
5
5
5
5
5
5
5
5
5
5
5
5
5
5
5
5
5
5
5
5
5
5
5
5
5
5
5
5
5
5
5
5
5
5
5
5
5
5
5
5
5
5
5
5
5
5
5
5
5
5
5
5
5
5
5
5
5
5
5
5
5
5
5
5
5
5
5
5
5
5
5
5
5
5
5
5
5
5
5
5
5
5
5
5
5
5
5
5
5
5
5
5
5
5
5
5
5
5
5
5
5
5
5
5
5
5
5
5
5
5
5
5
5
5
5
5
5
5
5
5
5
5
5
5
5
5
5
5
5
5
5
5
5
5
5
5
5
5
5
5
5
5
5
5
5
5
5
5
5
5
5
5
5
5
5
5
5
5
5
5
5
5
5
5
5
5
5
5
5
5
5
5
5
5
5
5
5
5
5
5
5
5
5
5
5
5
5
5
5
5
5
5
5
5
5
5
5
5
5
5
5
5
5
5
5
5
5
5
5
5
5
5
5
5
5
5
5
5
5
5
5
5
5
5
5
5
5
5
5
5
5
5
5
5
5
5
5
5
5
5
5
5
5
5
5
5
5
5
5
5
5
5
5
5
5
5
5
5
5
5
5
5
5
5
5
5
5
5
5
5
5
5
5
5
5
5
5
5
5
5
5
5
5
5
5
5
5
5
5
5
5
5
5
5
5
5
5
5
5
5
5
5
5
5
5
5
5
5
5
5
5
5
5
5
5
5
5
5
5
5
5
5
5
5
5
5
5
5
5
5
5
5
5
5
5
5
5
5
5
5
5
5
5
5
5
5
5
5
5
5
5
5
5
5
5
5
5
5
5
5
5
5
5
5
5
5
5
5
5
5
5
5
5
5
5
5
5
5
5
5
5
5
5
5
5
5
5
5
5
5
5
5
5
5
5
5
5
5
5
5
5
5
5
5
5
5
5
5
5
5
5
5
5
5
5
5
5
5
5
5
5
5
5
5
5
5
5
5
5
5
5
5
5
5
5
5
5
5
5
5
5
5
5
5
5
5
5
5
5
5
5
5
5
5
5
5
5
5
5
5
5
5
5
5
5
5
5
5
5
5
5
5
5
5
5
5
5
5
5
5
5
5
5
5
5
5
5
5
POINT_DATA 320
SCALARS theta_e float 1
LOOKUP_TABLE default
1.000001
1.000001
1.000001
1.000001
1.000001
1.000001
1.000001
1.000001
1.000001
1.000001
1.000001
1.000001
1.000001
1.000001
1.000001
1.000001
1.000001
1.000001
1.000001
1.000001
1.000001
1.000001
1.000001
1.000001
1.000001
1.000001
1.000001
1.000001
1.000001
1.000001
1.000001
1.000001
1.000001
1.000001
1.000000
1.000000
1.000001
1.000001
1.000001
1.000001
1.000001
1.000001
1.000001
1.000001
1.000001
1.000001
1.000001
1.000001
1.000000
1.000000
1.000001
1.000000
1.000001
1.000001
1.000001
1.000001
1.000001
1.000001
1.000001
1.000000
1.000001
1.000001
1.000001
1.000001
1.000001
1.000001
1.000000
1.000001
1.000000
1.000000
1.000001
1.000001
1.000001
1.000001
1.000000
1.000000
1.000001
1.000000
1.000000
1.000001
1.000001
1.000001
1.000001
1.000001
1.000001
1.000001
1.000001
1.000001
1.000001
1.000000
1.000001
1.000001
1.000001
1.000001
1.000001
1.000000
1.000000
1.000000
1.000000
1.000001
1.000000
1.000000
1.000001
1.000001
1.000001
1.000001
1.000001
1.000001
1.000001
1.000001
1.000001
1.000001
1.000001
1.000001
1.000001
1.000001
1.000001
1.000001
1.000001
1.000001
1.000001
1.000000
1.000000
1.000000
0.999997
1.000001
0.999999
1.000001
1.000001
1.000001
1.000001
1.000001
1.000001
1.000001
1.000001
1.000001
1.000001
1.000001
1.000001
1.000001
1.000001
1.000001
1.000001
1.000001
1.000001
1.000001
1.000001
1.000000
1.000000
0.999996
0.999986
0.999991
0.999998
1.000001
0.999999
1.000001
1.000001
1.000001
1.000001
1.000001
1.000001
1.000001
1.000001
1.000001
1.000001
1.000001
1.000001
1.000001
1.000001
1.000001
1.000001
0.999998
1.000000
0.999980
0.999989
0.999981
0.999988
0.999996
1.000001
1.000001
1.000001
1.000001
1.000001
1.000001
1.000001
1.000001
1.000001
1.000001
1.000001
1.000001
1.000001
1.000001
1.000000
0.999996
0.999982
0.999986
0.999982
0.999989
0.999998
1.000000
1.000001
1.000001
1.000001
1.000001
1.000001
1.000001
1.000001
1.000001
1.000001
1.000001
1.000001
1.000001
1.000000
0.999996
0.999987
0.999990
0.999996
1.000000
1.000000
1.000001
1.000001
1.000001
1.000001
1.000001
1.000001
1.000001
1.000001
1.000001
1.000001
1.000001
1.000000
0.999999
0.999997
1.000000
1.000000
1.000000
1.000000
1.000001
1.000001
1.000001
1.000001
1.000001
1.000001
1.000001
1.000001
1.000001
1.000001
1.000000
1.000001
1.000000
1.000000
1.000000
1.000000
1.000001
1.000001
1.000001
1.000000
1.000001
1.000001
1.000001
1.000001
1.000001
1.000001
1.000001
1.000000
1.000000
1.000001
1.000001
1.000001
1.000001
1.000001
1.000001
1.000001
1.000001
1.000001
1.000001
1.000001
1.000001
1.000001
1.000001
1.000001
1.000001
1.000001
1.000001
1.000001
1.000001
1.000001
1.000001
1.000001
1.000001
1.000001
1.000001
1.000001
1.000001
1.000001
1.000001
1.000001
1.000001
1.000001
1.000001
1.000001
1.000001
1.000001
1.000001
1.000001
1.000001
1.000001
1.000001
1.000001
1.000001
1.000001
1.000001
1.000001
1.000001
1.000001
1.000001
1.000001
1.000001
1.000001
1.000001
VECTORS fa_u float
0.000000 0.000000 0.000000
0.000000 0.000000 0.000000
0.000000 0.000000 0.000000
0.000000 0.000000 0.000000
0.000000 0.000000 0.000000
0.000000 0.000000 0.000000
0.000000 0.000000 0.000000
0.000000 0.000000 0.000000
0.000000 0.000000 0.000000
0.000000 0.000000 0.000000
0.000000 0.000000 0.000000
0.000000 0.000000 0.000000
0.000000 0.000000 0.000000
0.000000 0.000000 0.000000
0.000000 0.000000 0.000000
0.000000 0.000000 0.000000
0.000000 0.000000 0.000000
0.000000 0.000000 0.000000
0.000000 0.000000 0.000000
0.000000 0.000000 0.000000
0.000000 0.000000 0.000000
0.000000 0.000000 0.000000
0.000000 0.000000 0.000000
0.000000 0.000000 0.000000
0.000000 0.000000 0.000000
0.000000 0.000000 0.000000
0.000000 0.000000 0.000000
0.000000 0.000000 0.000000
0.000000 0.000000 0.000000
0.000000 0.000000 0.000000
0.000000 0.000000 0.000000
0.000000 0.000000 0.000000
0.000000 0.000000 0.000000
0.000000 0.000000 0.000000
0.000000 0.000000 0.000000
0.000000 0.000000 0.000000
0.000000 0.000000 0.000000
0.000000 0.000000 0.000000
0.000000 0.000000 0.000000
0.000000 0.000000 0.000000
0.000000 0.000000 0.000000
0.000000 0.000000 0.000000
0.000000 0.000000 0.000000
0.000000 0.000000 0.000000
0.000000 0.000000 0.000000
0.000000 0.000000 0.000000
0.000000 0.000000 0.000000
0.000000 0.000000 0.000000
0.000000 0.000000 0.000000
0.000000 0.000000 0.000000
0.000000 0.000000 0.000000
0.000000 0.000000 0.000000
0.000000 0.000000 0.000000
0.000000 0.000000 0.000000
0.000000 0.000000 0.000000
0.000000 0.000000 0.000000
0.000000 0.000000 0.000000
0.000000 0.000000 0.000000
0.000000 0.000000 0.000000
0.000000 0.000000 0.000000
0.000000 0.000000 0.000000
0.000000 0.000000 0.000000
0.000000 0.000000 0.000000
0.000000 0.000000 0.000000
0.000000 0.000000 0.000000
0.000000 0.000000 0.000000
0.000000 0.000000 0.000000
0.000000 0.000000 0.000000
0.000000 0.000000 0.000000
0.000000 0.000000 0.000000
0.000000 0.000000 0.000000
0.000000 0.000000 0.000000
0.000000 0.000000 0.000000
0.000000 0.000000 0.000000
0.000000 0.000000 0.000000
0.000000 0.000000 0.000000
0.000000 0.000000 0.000000
0.000000 0.000000 0.000000
0.000000 0.000000 0.000000
0.000000 0.000000 0.000000
0.000000 0.000000 0.000000
0.000000 0.000000 0.000000
0.000000 0.000000 0.000000
0.000000 0.000000 0.000000
0.000000 0.000000 0.000000
0.000000 0.000000 0.000000
0.000000 0.000000 0.000000
0.000000 0.000000 0.000000
0.000000 0.000000 0.000000
0.000000 0.000000 0.000000
0.000000 0.000000 0.000000
0.000000 0.000000 0.000000
0.000000 0.000000 0.000000
0.000000 0.000000 0.000000
0.000000 0.000000 0.000000
0.000000 0.000000 0.000000
0.000000 0.000000 0.000000
0.000000 0.000000 0.000000
0.000000 0.000000 0.000000
0.000000 0.000000 0.000000
0.000000 0.000000 0.000000
0.000000 0.000000 0.000000
0.000000 0.000000 0.000000
0.000000 0.000000 0.000000
0.000000 0.000000 0.000000
0.000000 0.000000 0.000000
0.000000 0.000000 0.000000
0.000000 0.000000 0.000000
0.000000 0.000000 0.000000
0.000000 0.000000 0.000000
0.000000 0.000000 0.000000
0.000000 0.000000 0.000000
0.000000 0.000000 0.000000
0.000000 0.000000 0.000000
0.000000 0.000000 0.000000
0.000000 0.000000 0.000000
0.000000 0.000000 0.000000
0.000000 0.000000 0.000000
0.000000 0.000000 0.000000
0.000000 0.000000 0.000000
0.000000 0.000000 0.000000
0.000000 0.000000 0.000000
0.000000 0.000000 0.000000
0.000000 0.000000 0.000000
0.000000 0.000000 0.000000
0.000000 0.000000 0.000000
0.000000 0.000000 0.000000
0.000000 0.000000 0.000000
0.000000 0.000000 0.000000
0.000000 0.000000 0.000000
0.000000 0.000000 0.000000
0.000000 0.000000 0.000000
0.000000 0.000000 0.000000
0.000000 0.000000 0.000000
0.000000 0.000000 0.000000
0.000000 0.000000 0.000000
0.000000 0.000000 0.000000
0.000000 0.000000 0.000000
0.000000 0.000000 0.000000
0.000000 0.000000 0.000000
0.000000 0.000000 0.000000
0.000000 0.000000 0.000000
0.000000 0.000000 0.000000
0.000000 0.000000 0.000000
0.000000 0.000000 0.000000
0.000000 0.000000 0.000000
0.000000 0.000000 0.000000
0.000000 0.000000 0.000000
0.000000 0.000000 0.000000
0.000000 0.000000 0.000000
0.000000 0.000000 0.000000
0.000000 0.000000 0.000000
0.000000 0.000000 0.000000
0.000000 0.000000 0.000000
0.000000 0.000000 0.000000
0.000000 0.000000 0.000000
0.000000 0.000000 0.000000
0.000000 0.000000 0.000000
0.000000 0.000000 0.000000
0.000000 0.000000 0.000000
0.000000 0.000000 0.000000
0.000000 0.000000 0.000000
0.000000 0.000000 0.000000
0.000000 0.000000 0.000000
0.000000 0.000000 0.000000
0.000000 0.000000 0.000000
0.000000 0.000000 0.000000
0.000000 0.000000 0.000000
0.000000 0.000000 0.000000
0.000000 0.000000 0.000000
0.000000 0.000000 0.000000
0.000000 0.000000 0.000000
0.000000 0.000000 0.000000
0.000000 0.000000 0.000000
0.000000 0.000000 0.000000
0.000000 0.000000 0.000000
0.000000 0.000000 0.000000
0.000000 0.000000 0.000000
0.000000 0.000000 0.000000
0.000000 0.000000 0.000000
0.000000 0.000000 0.000000
0.000000 0.000000 0.000000
0.000000 0.000000 0.000000
0.000000 0.000000 0.000000
0.000000 0.000000 0.000000
0.000000 0.000000 0.000000
0.000000 0.000000 0.000000
0.000000 0.000000 0.000000
0.000000 0.000000 0.000000
0.000000 0.000000 0.000000
0.000000 0.000000 0.000000
0.000000 0.000000 0.000000
0.000000 0.000000 0.000000
0.000000 0.000000 0.000000
0.000000 0.000000 0.000000
0.000000 0.000000 0.000000
0.000000 0.000000 0.000000
0.000000 0.000000 0.000000
0.000000 0.000000 0.000000
0.000000 0.000000 0.000000
0.000000 0.000000 0.000000
0.000000 0.000000 0.000000
0.000000 0.000000 0.000000
0.000000 0.000000 0.000000
0.000000 0.000000 0.000000
0.000000 0.000000 0.000000
0.000000 0.000000 0.000000
0.000000 0.000000 0.000000
0.000000 0.000000 0.000000
0.000000 0.000000 0.000000
0.000000 0.000000 0.000000
0.000000 0.000000 0.000000
0.000000 0.000000 0.000000
0.000000 0.000000 0.000000
0.000000 0.000000 0.000000
0.000000 0.000000 0.000000
0.000000 0.000000 0.000000
0.000000 0.000000 0.000000
0.000000 0.000000 0.000000
0.000000 0.000000 0.000000
0.000000 0.000000 0.000000
0.000000 0.000000 0.000000
0.000000 0.000000 0.000000
0.000000 0.000000 0.000000
0.000000 0.000000 0.000000
0.000000 0.000000 0.000000
0.000000 0.000000 0.000000
0.000000 0.000000 0.000000
0.000000 0.000000 0.000000
0.000000 0.000000 0.000000
0.000000 0.000000 0.000000
0.000000 0.000000 0.000000
0.000000 0.000000 0.000000
0.000000 0.000000 0.000000
0.000000 0.000000 0.000000
0.000000 0.000000 0.000000
0.000000 0.000000 0.000000
0.000000 0.000000 0.000000
0.000000 0.000000 0.000000
0.000000 0.000000 0.000000
0.000000 0.000000 0.000000
0.000000 0.000000 0.000000
0.000000 0.000000 0.000000
0.000000 0.000000 0.000000
0.000000 0.000000 0.000000
0.000000 0.000000 0.000000
0.000000 0.000000 0.000000
0.000000 0.000000 0.000000
0.000000 0.000000 0.000000
0.000000 0.000000 0.000000
0.000000 0.000000 0.000000
0.000000 0.000000 0.000000
0.000000 0.000000 0.000000
0.000000 0.000000 0.000000
0.000000 0.000000 0.000000
0.000000 0.000000 0.000000
0.000000 0.000000 0.000000
0.000000 0.000000 0.000000
0.000000 0.000000 0.000000
0.000000 0.000000 0.000000
0.000000 0.000000 0.000000
0.000000 0.000000 0.000000
0.000000 0.000000 0.000000
0.000000 0.000000 0.000000
0.000000 0.000000 0.000000
0.000000 0.000000 0.000000
0.000000 0.000000 0.000000
0.000000 0.000000 0.000000
0.000000 0.000000 0.000000
0.000000 0.000000 0.000000
0.000000 0.000000 0.000000
0.000000 0.000000 0.000000
0.000000 0.000000 0.000000
0.000000 0.000000 0.000000
0.000000 0.000000 0.000000
0.000000 0.000000 0.000000
0.000000 0.000000 0.000000
0.000000 0.000000 0.000000
0.000000 0.000000 0.000000
0.000000 0.000000 0.000000
0.000000 0.000000 0.000000
0.000000 0.000000 0.000000
0.000000 0.000000 0.000000
0.000000 0.000000 0.000000
0.000000 0.000000 0.000000
0.000000 0.000000 0.000000
0.000000 0.000000 0.000000
0.000000 0.000000 0.000000
0.000000 0.000000 0.000000
0.000000 0.000000 0.000000
0.000000 0.000000 0.000000
0.000000 0.000000 0.000000
0.000000 0.000000 0.000000
0.000000 0.000000 0.000000
0.000000 0.000000 0.000000
0.000000 0.000000 0.000000
0.000000 0.000000 -50.000000
-50.000000 0.000000 -50.000000
-43.332536 0.000000 -45.688544
-45.491276 0.000000 -43.332423
-50.000000 0.000000 -50.000000
-36.665022 0.000000 -36.665071
-50.000000 0.000000 -45.081290
-39.969875 0.000000 -40.027436
-44.152409 0.000000 -29.997657
-50.000000 0.000000 -50.000000
-29.997582 0.000000 -44.847256
-33.448989 0.000000 -33.145112
-44.675831 0.000000 -39.869339
-36.787086 0.000000 -35.128912
-39.801481 0.000000 -23.330559
-50.000000 0.000000 -26.539367
-44.666812 0.000000 -50.000000
-23.330500 0.000000 -44.665345
-26.804025 0.000000 -39.364398
-30.225783 0.000000 -29.606562
-39.359503 0.000000 -33.368531
-33.655608 0.000000 -50.000000
-16.663939 0.000000 -16.664053
-50.000000 0.000000 -9.998151
