# vtk DataFile Version 2.0
CellBP Time: 11.04
ASCII
DATASET UNSTRUCTURED_GRID
POINTS 320 double
-50.000000 -50.000000 0.000000
-50.000000 -43.332128 0.000000
-45.688691 -45.491393 0.000000
-43.331969 -50.000000 0.000000
-50.000000 -36.664185 0.000000
-36.664283 -50.000000 0.000000
-45.081446 -39.969954 0.000000
-40.027667 -44.152528 0.000000
-29.996512 -50.000000 0.000000
-50.000000 -29.996361 0.000000
-44.847407 -33.449054 0.000000
-33.145301 -44.675959 0.000000
-39.869534 -36.787170 0.000000
-35.129149 -39.801636 0.000000
-23.329222 -50.000000 0.000000
-26.539576 -44.666867 0.000000
-50.000000 -23.329083 0.000000
-44.665405 -26.804120 0.000000
-39.364537 -30.225873 0.000000
-29.606834 -39.359620 0.000000
-33.368798 -33.655746 0.000000
-50.000000 -16.662595 0.000000
-16.662817 -50.000000 0.000000
-9.997305 -50.000000 0.000000
-19.965387 -44.588696 0.000000
-23.216316 -39.114768 0.000000
-44.691801 -20.097107 0.000000
-39.367965 -23.528199 0.000000
-34.106470 -26.937146 0.000000
-26.384960 -33.577628 0.000000
-29.156746 -28.926933 0.000000
-50.000000 -9.996790 0.000000
-44.666284 -13.410351 0.000000
-50.000000 -3.331843 0.000000
-3.332516 -50.000000 0.000000
3.332108 -50.000000 0.000000
-13.344182 -44.598845 0.000000
-6.685055 -44.610431 0.000000
-16.694104 -39.153052 0.000000
-20.107273 -33.342591 0.000000
-39.338090 -16.804559 0.000000
-34.019110 -20.274443 0.000000
-28.781546 -23.449281 0.000000
-23.510938 -27.351185 0.000000
-44.635240 -6.705479 0.000000
-39.293121 -10.101649 0.000000
-50.000000 3.332669 0.000000
-44.626449 -0.015298 0.000000
9.997110 -50.000000 0.000000
16.662826 -50.000000 0.000000
-0.016223 -44.618540 0.000000
6.651811 -44.635316 0.000000
-10.045067 -39.222489 0.000000
-3.368359 -39.220154 0.000000
-13.484417 -33.798337 0.000000
-16.708746 -28.271592 0.000000
-33.947885 -13.513273 0.000000
-28.602969 -16.891872 0.000000
-23.293064 -20.313390 0.000000
-18.661239 -23.285012 0.000000
-39.267274 -3.392501 0.000000
-33.904453 -6.796683 0.000000
-50.000000 9.997354 0.000000
-44.606439 6.673933 0.000000
-39.260544 3.325895 0.000000
-50.000000 16.662838 0.000000
23.329265 -50.000000 0.000000
29.996434 -50.000000 0.000000
13.317881 -44.662918 0.000000
19.990049 -44.700092 0.000000
3.307597 -39.245099 0.000000
9.971903 -39.290412 0.000000
-6.735854 -33.791337 0.000000
-0.032159 -33.829398 0.000000
-10.096126 -28.292037 0.000000
-13.122703 -22.895321 0.000000
-28.531109 -10.213836 0.000000
-23.068145 -13.663859 0.000000
-16.979685 -17.213412 0.000000
-33.884014 -0.065483 0.000000
-28.562590 -3.580513 0.000000
-44.563902 13.381154 0.000000
-39.189789 10.015326 0.000000
-33.905353 6.616121 0.000000
-50.000000 23.329011 0.000000
-44.557240 20.138736 0.000000
-50.000000 29.996525 0.000000
36.664141 -50.000000 0.000000
43.332023 -50.000000 0.000000
26.663643 -44.745424 0.000000
33.315589 -44.876208 0.000000
16.631779 -39.357685 0.000000
23.328492 -39.437224 0.000000
6.642989 -33.879647 0.000000
13.290420 -33.965449 0.000000
-3.346679 -28.363982 0.000000
3.358630 -28.451214 0.000000
-6.626547 -22.844521 0.000000
-9.960284 -17.315191 0.000000
-23.179117 -7.013977 0.000000
-17.814634 -10.334902 0.000000
-12.837804 -12.612949 0.000000
-28.607253 3.088759 0.000000
-23.267128 -0.470359 0.000000
-39.038289 16.746365 0.000000
-28.719773 9.925657 0.000000
-33.760553 13.317892 0.000000
-44.521728 26.717499 0.000000
-38.467805 23.892871 0.000000
-44.632893 33.086163 0.000000
-50.000000 36.664736 0.000000
-50.000000 43.332320 0.000000
39.922628 -45.069831 0.000000
45.475008 -45.660723 0.000000
50.000000 -50.000000 0.000000
36.627004 -39.982162 0.000000
30.012663 -39.458792 0.000000
19.904231 -34.093076 0.000000
26.585203 -34.319719 0.000000
9.988337 -28.512532 0.000000
16.610444 -28.660681 0.000000
0.049893 -22.964316 0.000000
6.811992 -23.154443 0.000000
-3.397492 -17.296985 0.000000
-6.790915 -10.863535 0.000000
-17.872618 -3.810263 0.000000
-12.547431 -7.033070 0.000000
-23.307625 6.068636 0.000000
-18.033119 2.434863 0.000000
-23.124133 12.096482 0.000000
-33.572181 19.788981 0.000000
-27.941889 16.886648 0.000000
-33.293444 24.723197 0.000000
-39.474262 30.053570 0.000000
-35.161142 28.138009 0.000000
-39.816701 35.101974 0.000000
-43.992059 39.982885 0.000000
-45.431221 45.685591 0.000000
-50.000000 50.000000 0.000000
44.117526 -39.899390 0.000000
50.000000 -43.331585 0.000000
39.639726 -35.047684 0.000000
33.463103 -33.424775 0.000000
22.985082 -28.818328 0.000000
28.731164 -29.248036 0.000000
13.460869 -23.121968 0.000000
20.055032 -23.440110 0.000000
3.360968 -17.591729 0.000000
10.121966 -17.844215 0.000000
0.171128 -11.761015 0.000000
-2.120467 -6.145946 0.000000
-7.127599 -3.545800 0.000000
-12.417130 -0.808759 0.000000
-18.175839 8.573188 0.000000
-12.930621 5.196623 0.000000
-18.637683 13.750769 0.000000
-21.503505 17.493850 0.000000
-28.941251 23.159597 0.000000
-24.346537 21.554153 0.000000
-30.324221 28.635383 0.000000
-34.254046 33.375787 0.000000
-36.956240 39.578242 0.000000
-39.838811 45.103050 0.000000
-43.331955 50.000000 0.000000
44.585493 -32.972358 0.000000
50.000000 -36.663694 0.000000
39.129449 -29.582149 0.000000
33.500818 -26.367840 0.000000
27.183455 -23.322132 0.000000
23.067769 -18.648045 0.000000
16.993258 -16.982979 0.000000
6.696223 -12.188452 0.000000
12.376907 -12.738202 0.000000
-3.361464 -1.482852 0.000000
3.774783 -6.744730 0.000000
1.024008 -2.120786 0.000000
-6.837700 2.259346 0.000000
-8.220534 7.636460 0.000000
-12.840752 11.927262 0.000000
-15.690072 17.698649 0.000000
-19.287572 22.981030 0.000000
-24.171036 27.354289 0.000000
-27.286475 33.625739 0.000000
-30.406872 39.160983 0.000000
-33.448050 44.738902 0.000000
-36.663986 50.000000 0.000000
44.547779 -26.500248 0.000000
50.000000 -29.995872 0.000000
39.040028 -23.179393 0.000000
33.449508 -19.899994 0.000000
28.039614 -16.573078 0.000000
22.678985 -13.123494 0.000000
17.175967 -9.897975 0.000000
10.759690 -6.568974 0.000000
-1.360658 2.322618 0.000000
6.122348 -1.706981 0.000000
2.884608 1.590812 0.000000
-3.438949 6.959478 0.000000
-6.314225 12.424923 0.000000
-9.629262 17.713849 0.000000
-13.168321 23.115182 0.000000
-17.317051 28.185060 0.000000
-20.571187 33.474140 0.000000
-23.666244 39.063879 0.000000
-26.831407 44.585337 0.000000
-29.996490 50.000000 0.000000
44.528622 -19.931046 0.000000
50.000000 -23.328640 0.000000
39.036098 -16.594256 0.000000
33.575695 -13.281240 0.000000
28.148803 -9.965119 0.000000
22.724452 -6.604734 0.000000
17.265266 -3.334181 0.000000
11.769269 0.219782 0.000000
1.904354 6.186374 0.000000
6.772037 3.692466 0.000000
-0.229007 11.738473 0.000000
-3.244030 17.531993 0.000000
-6.698442 22.976046 0.000000
-10.566881 28.267147 0.000000
-13.724408 33.660807 0.000000
-16.946056 39.080060 0.000000
-20.141179 44.548305 0.000000
-23.329465 50.000000 0.000000
44.536091 -13.304177 0.000000
50.000000 -16.662276 0.000000
39.079719 -9.966934 0.000000
33.646509 -6.641511 0.000000
28.236903 -3.308198 0.000000
22.850756 0.017304 0.000000
17.538758 3.337642 0.000000
12.175625 6.579073 0.000000
6.645285 10.671825 0.000000
3.302896 17.200909 0.000000
-0.080317 22.855498 0.000000
-3.519244 28.313301 0.000000
-6.831864 33.774750 0.000000
-10.137936 39.170493 0.000000
-13.436390 44.563409 0.000000
-16.663180 50.000000 0.000000
44.554050 -6.655044 0.000000
50.000000 -9.996875 0.000000
39.123113 -3.321463 0.000000
33.713272 0.008880 0.000000
28.333340 3.345499 0.000000
22.998644 6.693989 0.000000
17.834911 10.017716 0.000000
12.658976 12.247185 0.000000
9.782877 17.232206 0.000000
6.480226 22.722395 0.000000
3.189663 28.270533 0.000000
-0.116067 33.734998 0.000000
-3.425392 39.168742 0.000000
-6.725905 44.581685 0.000000
-9.997571 50.000000 0.000000
44.575428 0.001798 0.000000
50.000000 -3.332238 0.000000
39.166884 3.331837 0.000000
33.779579 6.655723 0.000000
28.423719 9.994677 0.000000
23.046510 13.416080 0.000000
16.951572 17.024819 0.000000
12.901566 22.666279 0.000000
9.815695 28.231549 0.000000
6.604510 33.718829 0.000000
3.286566 39.164436 0.000000
-0.029983 44.584464 0.000000
-3.332506 50.000000 0.000000
44.586625 6.665740 0.000000
50.000000 3.332294 0.000000
39.198239 9.982113 0.000000
33.843519 13.276888 0.000000
28.542501 16.584200 0.000000
23.387937 20.084230 0.000000
18.532059 23.113740 0.000000
16.392403 28.298395 0.000000
13.329116 33.754714 0.000000
9.986803 39.181937 0.000000
6.666219 44.584189 0.000000
3.332372 50.000000 0.000000
44.608871 13.318433 0.000000
50.000000 9.997285 0.000000
39.251393 16.612686 0.000000
33.932093 19.862934 0.000000
28.612647 22.925999 0.000000
23.279700 27.207859 0.000000
19.901470 33.302770 0.000000
16.574211 39.040786 0.000000
13.268839 44.526587 0.000000
9.997341 50.000000 0.000000
44.632059 19.973544 0.000000
50.000000 16.662998 0.000000
39.298577 23.262460 0.000000
34.044003 26.514951 0.000000
28.966043 28.539521 0.000000
26.202657 33.410199 0.000000
23.067045 38.968781 0.000000
19.889106 44.507001 0.000000
16.662805 50.000000 0.000000
44.639919 26.643429 0.000000
50.000000 23.329404 0.000000
39.293554 29.967068 0.000000
33.212675 33.371522 0.000000
29.412519 39.045974 0.000000
26.422853 44.506019 0.000000
23.329115 50.000000 0.000000
44.775228 33.292176 0.000000
50.000000 29.996513 0.000000
39.738404 36.596578 0.000000
34.831386 39.525945 0.000000
32.834212 44.514547 0.000000
29.996208 50.000000 0.000000
44.978503 39.878169 0.000000
50.000000 36.664163 0.000000
39.735327 43.969338 0.000000
36.663897 50.000000 0.000000
45.621603 45.410141 0.000000
50.000000 43.332015 0.000000
43.331679 50.000000 0.000000
50.000000 50.000000 0.000000
CELLS 578 2312
3 1 0 2
3 0 3 2
3 4 1 6
3 6 1 2
3 3 5 7
3 3 7 2
3 6 2 7
3 9 4 10
3 10 4 6
3 5 8 11
3 7 5 11
3 10 6 12
3 12 6 7
3 7 11 13
3 7 13 12
3 8 14 15
3 11 8 15
3 16 9 17
3 17 9 10
3 17 10 18
3 18 10 12
3 11 15 19
3 13 11 19
3 18 12 20
3 13 19 20
3 20 12 13
3 14 22 24
3 15 14 24
3 15 24 25
3 19 15 25
3 21 16 26
3 26 16 17
3 26 17 27
3 27 17 18
3 27 18 28
3 28 18 20
3 19 25 29
3 19 29 20
3 28 20 30
3 30 20 29
3 31 21 32
3 32 21 26
3 22 23 36
3 24 22 36
3 23 34 37
3 36 23 37
3 24 36 38
3 25 24 38
3 25 38 39
3 29 25 39
3 32 26 40
3 40 26 27
3 40 27 41
3 41 27 28
3 41 28 42
3 42 28 30
3 29 39 43
3 29 43 30
3 42 30 43
3 33 31 44
3 44 31 32
3 44 32 45
3 45 32 40
3 46 33 47
3 47 33 44
3 34 35 50
3 37 34 50
3 35 48 51
3 50 35 51
3 36 37 52
3 38 36 52
3 37 50 53
3 52 37 53
3 38 52 54
3 39 38 54
3 39 54 55
3 43 39 55
3 45 40 56
3 56 40 41
3 56 41 57
3 57 41 42
3 57 42 58
3 58 42 43
3 43 55 59
3 43 59 58
3 47 44 60
3 60 44 45
3 60 45 61
3 61 45 56
3 62 46 63
3 63 46 47
3 63 47 64
3 64 47 60
3 48 49 68
3 51 48 68
3 49 66 69
3 68 49 69
3 50 51 70
3 53 50 70
3 51 68 71
3 70 51 71
3 52 53 72
3 54 52 72
3 53 70 73
3 72 53 73
3 54 72 74
3 55 54 74
3 55 74 75
3 59 55 75
3 61 56 76
3 76 56 57
3 76 57 77
3 77 57 58
3 77 58 78
3 59 75 78
3 78 58 59
3 64 60 79
3 79 60 61
3 79 61 80
3 80 61 76
3 65 62 81
3 81 62 63
3 81 63 82
3 82 63 64
3 82 64 83
3 83 64 79
3 84 65 85
3 85 65 81
3 66 67 89
3 69 66 89
3 67 87 90
3 89 67 90
3 68 69 91
3 71 68 91
3 69 89 92
3 91 69 92
3 70 71 93
3 73 70 93
3 71 91 94
3 93 71 94
3 72 73 95
3 74 72 95
3 73 93 96
3 95 73 96
3 74 95 97
3 75 74 97
3 75 97 98
3 78 75 98
3 80 76 99
3 99 76 77
3 99 77 100
3 100 77 78
3 100 78 101
3 98 101 78
3 83 79 102
3 102 79 80
3 102 80 103
3 103 80 99
3 85 81 104
3 104 81 82
3 105 83 102
3 104 82 106
3 106 82 83
3 106 83 105
3 86 84 107
3 107 84 85
3 107 85 108
3 108 85 104
3 109 86 107
3 110 86 109
3 87 88 112
3 90 87 112
3 112 88 113
3 88 114 113
3 90 112 115
3 89 90 116
3 92 89 116
3 116 90 115
3 91 92 117
3 94 91 117
3 92 116 118
3 117 92 118
3 93 94 119
3 96 93 119
3 94 117 120
3 119 94 120
3 95 96 121
3 97 95 121
3 96 119 122
3 121 96 122
3 97 121 123
3 98 97 123
3 98 123 124
3 98 124 101
3 103 99 125
3 125 99 100
3 125 100 126
3 126 100 101
3 126 101 124
3 105 102 127
3 127 102 103
3 127 103 128
3 128 103 125
3 129 105 127
3 108 104 130
3 130 104 106
3 130 106 131
3 131 106 105
3 131 105 129
3 108 130 132
3 109 107 133
3 133 107 108
3 133 108 134
3 108 132 134
3 135 109 133
3 111 110 136
3 136 110 109
3 136 109 135
3 137 111 136
3 138 111 137
3 112 113 139
3 115 112 139
3 114 140 113
3 140 139 113
3 139 141 115
3 116 115 142
3 118 116 142
3 142 115 141
3 117 118 143
3 120 117 143
3 118 142 144
3 143 118 144
3 119 120 145
3 122 119 145
3 120 143 146
3 145 120 146
3 121 122 147
3 123 121 147
3 122 145 148
3 147 122 148
3 123 147 149
3 124 123 149
3 124 149 150
3 151 126 124
3 124 150 151
3 128 125 152
3 152 125 126
3 152 126 151
3 129 127 153
3 153 127 128
3 128 152 154
3 153 128 154
3 155 129 153
3 131 129 156
3 156 129 155
3 132 130 157
3 130 131 157
3 157 131 158
3 131 156 158
3 132 157 159
3 132 159 134
3 135 133 160
3 160 133 134
3 160 134 159
3 136 135 161
3 135 160 161
3 162 137 136
3 161 162 136
3 163 138 137
3 162 163 137
3 139 164 141
3 140 165 139
3 139 165 164
3 141 164 166
3 141 166 142
3 166 167 142
3 144 142 167
3 167 168 144
3 143 144 168
3 146 143 168
3 168 169 146
3 145 146 170
3 148 145 170
3 170 146 169
3 147 148 171
3 149 147 171
3 148 170 172
3 171 148 172
3 173 151 150
3 149 171 174
3 150 149 174
3 150 174 175
3 150 175 173
3 154 152 176
3 152 151 176
3 176 151 173
3 154 176 177
3 155 153 178
3 177 178 154
3 154 178 153
3 156 155 179
3 155 178 179
3 180 158 156
3 179 180 156
3 181 159 157
3 180 181 158
3 181 157 158
3 182 160 159
3 181 182 159
3 183 161 160
3 182 183 160
3 184 162 161
3 184 161 183
3 185 163 162
3 184 185 162
3 164 186 166
3 165 187 164
3 164 187 186
3 166 186 188
3 166 188 167
3 167 188 189
3 167 189 168
3 168 189 190
3 168 190 169
3 169 190 191
3 169 191 170
3 192 172 170
3 170 191 192
3 192 193 172
3 171 172 193
3 174 171 193
3 194 173 175
3 176 173 194
3 175 174 195
3 193 195 174
3 195 196 175
3 175 196 194
3 197 177 176
3 194 197 176
3 198 178 177
3 197 198 177
3 199 179 178
3 198 199 178
3 200 180 179
3 199 200 179
3 201 181 180
3 200 201 180
3 202 182 181
3 201 202 181
3 203 183 182
3 202 203 182
3 204 184 183
3 203 204 183
3 205 185 184
3 204 205 184
3 186 206 188
3 187 207 186
3 186 207 206
3 188 206 208
3 188 208 189
3 189 208 209
3 189 209 190
3 190 209 210
3 190 210 191
3 191 210 211
3 191 211 192
3 192 211 212
3 192 212 193
3 193 212 213
3 193 213 195
3 214 197 194
3 214 194 196
3 195 213 215
3 195 215 196
3 196 215 214
3 216 198 197
3 214 216 197
3 217 199 198
3 216 217 198
3 218 200 199
3 217 218 199
3 219 201 200
3 218 219 200
3 220 202 201
3 219 220 201
3 221 203 202
3 220 221 202
3 222 204 203
3 221 222 203
3 223 205 204
3 222 223 204
3 206 224 208
3 207 225 206
3 206 225 224
3 208 224 226
3 208 226 209
3 209 226 227
3 209 227 210
3 210 227 228
3 210 228 211
3 211 228 229
3 211 229 212
3 212 229 230
3 212 230 213
3 213 230 231
3 213 231 215
3 232 216 214
3 215 231 232
3 232 214 215
3 233 217 216
3 232 233 216
3 234 218 217
3 233 234 217
3 235 219 218
3 234 235 218
3 236 220 219
3 235 236 219
3 237 221 220
3 236 237 220
3 238 222 221
3 237 238 221
3 239 223 222
3 238 239 222
3 224 240 226
3 225 241 224
3 224 241 240
3 226 240 242
3 226 242 227
3 227 242 243
3 227 243 228
3 228 243 244
3 228 244 229
3 244 245 229
3 229 245 230
3 230 245 246
3 230 246 231
3 231 246 247
3 231 247 232
3 248 233 232
3 248 232 247
3 249 234 233
3 248 249 233
3 250 235 234
3 249 250 234
3 251 236 235
3 250 251 235
3 252 237 236
3 251 252 236
3 253 238 237
3 252 253 237
3 254 239 238
3 253 254 238
3 240 255 242
3 241 256 240
3 240 256 255
3 242 255 257
3 242 257 243
3 243 257 258
3 243 258 244
3 244 258 259
3 244 259 245
3 245 259 260
3 245 260 246
3 246 260 261
3 246 261 247
3 248 247 261
3 262 249 248
3 261 262 248
3 263 250 249
3 262 263 249
3 264 251 250
3 263 264 250
3 265 252 251
3 264 265 251
3 266 253 252
3 265 266 252
3 267 254 253
3 266 267 253
3 255 268 257
3 256 269 255
3 255 269 268
3 257 268 270
3 257 270 258
3 258 270 271
3 258 271 259
3 259 271 272
3 259 272 260
3 260 272 273
3 260 273 261
3 274 262 261
3 261 273 274
3 275 263 262
3 274 275 262
3 276 264 263
3 275 276 263
3 277 265 264
3 276 277 264
3 278 266 265
3 277 278 265
3 279 267 266
3 278 279 266
3 268 280 270
3 269 281 268
3 268 281 280
3 270 280 282
3 270 282 271
3 271 282 283
3 271 283 272
3 283 284 272
3 272 284 273
3 285 275 274
3 273 284 285
3 285 274 273
3 286 276 275
3 285 286 275
3 287 277 276
3 286 287 276
3 288 278 277
3 287 288 277
3 289 279 278
3 288 289 278
3 280 290 282
3 281 291 280
3 280 291 290
3 282 290 292
3 282 292 283
3 283 292 293
3 283 293 284
3 284 293 294
3 284 294 285
3 295 286 285
3 295 285 294
3 296 287 286
3 295 296 286
3 297 288 287
3 296 297 287
3 298 289 288
3 297 298 288
3 290 299 292
3 291 300 290
3 290 300 299
3 292 299 301
3 292 301 293
3 293 301 302
3 293 302 294
3 294 302 295
3 303 296 295
3 303 295 302
3 304 297 296
3 303 304 296
3 305 298 297
3 304 305 297
3 299 306 301
3 300 307 299
3 299 307 306
3 301 306 308
3 301 308 302
3 309 303 302
3 302 308 309
3 310 304 303
3 309 310 303
3 311 305 304
3 310 311 304
3 306 312 308
3 307 313 306
3 306 313 312
3 314 310 309
3 308 312 314
3 314 309 308
3 315 311 310
3 314 315 310
3 312 316 314
3 313 317 312
3 312 317 316
3 318 315 314
3 318 314 316
3 317 319 316
3 319 318 316
CELL_TYPES 578
5
5
5
5
5
5
5
5
5
5
5
5
5
5
5
5
5
5
5
5
5
5
5
5
5
5
5
5
5
5
5
5
5
5
5
5
5
5
5
5
5
5
5
5
5
5
5
5
5
5
5
5
5
5
5
5
5
5
5
5
5
5
5
5
5
5
5
5
5
5
5
5
5
5
5
5
5
5
5
5
5
5
5
5
5
5
5
5
5
5
5
5
5
5
5
5
5
5
5
5
5
5
5
5
5
5
5
5
5
5
5
5
5
5
5
5
5
5
5
5
5
5
5
5
5
5
5
5
5
5
5
5
5
5
5
5
5
5
5
5
5
5
5
5
5
5
5
5
5
5
5
5
5
5
5
5
5
5
5
5
5
5
5
5
5
5
5
5
5
5
5
5
5
5
5
5
5
5
5
5
5
5
5
5
5
5
5
5
5
5
5
5
5
5
5
5
5
5
5
5
5
5
5
5
5
5
5
5
5
5
5
5
5
5
5
5
5
5
5
5
5
5
5
5
5
5
5
5
5
5
5
5
5
5
5
5
5
5
5
5
5
5
5
5
5
5
5
5
5
5
5
5
5
5
5
5
5
5
5
5
5
5
5
5
5
5
5
5
5
5
5
5
5
5
5
5
5
5
5
5
5
5
5
5
5
5
5
5
5
5
5
5
5
5
5
5
5
5
5
5
5
5
5
5
5
5
5
5
5
5
5
5
5
5
5
5
5
5
5
5
5
5
5
5
5
5
5
5
5
5
5
5
5
5
5
5
5
5
5
5
5
5
5
5
5
5
5
5
5
5
5
5
5
5
5
5
5
5
5
5
5
5
5
5
5
5
5
5
5
5
5
5
5
5
5
5
5
5
5
5
5
5
5
5
5
5
5
5
5
5
5
5
5
5
5
5
5
5
5
5
5
5
5
5
5
5
5
5
5
5
5
5
5
5
5
5
5
5
5
5
5
5
5
5
5
5
5
5
5
5
5
5
5
5
5
5
5
5
5
5
5
5
5
5
5
5
5
5
5
5
5
5
5
5
5
5
5
5
5
5
5
5
5
5
5
5
5
5
5
5
5
5
5
5
5
5
5
5
5
5
5
5
5
5
5
5
5
5
5
5
5
5
5
5
5
5
5
5
5
5
5
5
5
5
5
5
5
5
5
5
5
5
5
5
5
5
5
5
5
5
5
5
5
5
5
5
5
5
5
5
5
5
5
5
5
5
5
5
5
5
5
5
5
5
5
5
5
5
5
5
5
5
5
5
5
5
5
5
5
5
5
5
5
5
5
5
5
5
5
5
5
5
5
5
5
5
5
5
POINT_DATA 320
SCALARS theta_e float 1
LOOKUP_TABLE default
1.000000
1.000000
1.000000
1.000000
1.000000
1.000000
1.000000
1.000000
1.000000
1.000000
1.000000
1.000000
1.000000
1.000000
1.000000
1.000000
1.000000
1.000000
1.000000
1.000000
1.000000
1.000000
1.000000
1.000000
1.000000
1.000000
1.000000
1.000000
1.000000
1.000000
1.000000
1.000000
1.000000
1.000000
1.000000
1.000000
1.000000
1.000000
1.000000
1.000000
1.000000
1.000000
1.000000
1.000000
1.000000
1.000000
1.000000
1.000000
1.000000
1.000000
1.000000
1.000000
1.000000
1.000000
1.000000
1.000000
1.000000
1.000000
1.000000
1.000000
1.000000
1.000000
1.000000
1.000000
1.000000
1.000000
1.000000
1.000000
1.000000
1.000000
1.000000
1.000000
1.000000
1.000000
1.000000
1.000000
1.000000
1.000000
1.000000
1.000000
1.000000
1.000000
1.000000
1.000000
1.000000
1.000000
1.000000
1.000000
1.000000
1.000000
1.000000
1.000000
1.000000
1.000000
1.000000
1.000000
1.000000
1.000000
1.000000
1.000000
1.000000
1.000000
1.000000
1.000000
1.000000
1.000000
1.000000
1.000000
1.000000
1.000000
1.000000
1.000000
1.000000
1.000000
1.000000
1.000000
1.000000
1.000000
1.000000
1.000000
1.000000
1.000000
1.000000
1.000000
1.000000
1.000000
1.000000
1.000000
1.000000
1.000000
1.000000
1.000000
1.000000
1.000000
1.000000
1.000000
1.000000
1.000000
1.000000
1.000000
1.000000
1.000000
1.000000
1.000000
1.000000
1.000000
1.000000
1.000000
1.000000
0.999999
0.999998
0.999999
1.000000
1.000000
1.000000
1.000000
1.000000
1.000000
1.000000
1.000000
1.000000
1.000000
1.000000
1.000000
1.000000
1.000000
1.000000
1.000000
1.000000
1.000000
1.000000
1.000000
1.000000
0.999997
0.999998
0.999997
0.999998
0.999999
1.000000
1.000000
1.000000
1.000000
1.000000
1.000000
1.000000
1.000000
1.000000
1.000000
1.000000
1.000000
1.000000
1.000000
1.000000
0.999999
0.999998
0.999998
0.999998
0.999998
1.000000
1.000000
1.000000
1.000000
1.000000
1.000000
1.000000
1.000000
1.000000
1.000000
1.000000
1.000000
1.000000
1.000000
1.000000
0.999999
0.999998
0.999999
0.999999
1.000000
1.000000
1.000000
1.000000
1.000000
1.000000
1.000000
1.000000
1.000000
1.000000
1.000000
1.000000
1.000000
1.000000
1.000000
0.999999
1.000000
1.000000
1.000000
1.000000
1.000000
1.000000
1.000000
1.000000
1.000000
1.000000
1.000000
1.000000
1.000000
1.000000
1.000000
1.000000
1.000000
1.000000
1.000000
1.000000
1.000000
1.000000
1.000000
1.000000
1.000000
1.000000
1.000000
1.000000
1.000000
1.000000
1.000000
1.000000
1.000000
1.000000
1.000000
1.000000
1.000000
1.000000
1.000000
1.000000
1.000000
1.000000
1.000000
1.000000
1.000000
1.000000
1.000000
1.000000
1.000000
1.000000
1.000000
1.000000
1.000000
1.000000
1.000000
1.000000
1.000000
1.000000
1.000000
1.000000
1.000000
1.000000
1.000000
1.000000
1.000000
1.000000
1.000000
1.000000
1.000000
1.000000
1.000000
1.000000
1.000000
1.000000
1.000000
1.000000
1.000000
1.000000
1.000000
1.000000
1.000000
1.000000
1.000000
1.000000
1.000000
1.000000
1.000000
VECTORS fa_u float
0.000000 0.000000 0.000000
0.000000 0.000000 0.000000
0.000000 0.000000 0.000000
0.000000 0.000000 0.000000
0.000000 0.000000 0.000000
0.000000 0.000000 0.000000
0.000000 0.000000 0.000000
0.000000 0.000000 0.000000
0.000000 0.000000 0.000000
0.000000 0.000000 0.000000
0.000000 0.000000 0.000000
0.000000 0.000000 0.000000
0.000000 0.000000 0.000000
0.000000 0.000000 0.000000
0.000000 0.000000 0.000000
0.000000 0.000000 0.000000
0.000000 0.000000 0.000000
0.000000 0.000000 0.000000
0.000000 0.000000 0.000000
0.000000 0.000000 0.000000
0.000000 0.000000 0.000000
0.000000 0.000000 0.000000
0.000000 0.000000 0.000000
0.000000 0.000000 0.000000
0.000000 0.000000 0.000000
0.000000 0.000000 0.000000
0.000000 0.000000 0.000000
0.000000 0.000000 0.000000
0.000000 0.000000 0.000000
0.000000 0.000000 0.000000
0.000000 0.000000 0.000000
0.000000 0.000000 0.000000
0.000000 0.000000 0.000000
0.000000 0.000000 0.000000
0.000000 0.000000 0.000000
0.000000 0.000000 0.000000
0.000000 0.000000 0.000000
0.000000 0.000000 0.000000
0.000000 0.000000 0.000000
0.000000 0.000000 0.000000
0.000000 0.000000 0.000000
0.000000 0.000000 0.000000
0.000000 0.000000 0.000000
0.000000 0.000000 0.000000
0.000000 0.000000 0.000000
0.000000 0.000000 0.000000
0.000000 0.000000 0.000000
0.000000 0.000000 0.000000
0.000000 0.000000 0.000000
0.000000 0.000000 0.000000
0.000000 0.000000 0.000000
0.000000 0.000000 0.000000
0.000000 0.000000 0.000000
0.000000 0.000000 0.000000
0.000000 0.000000 0.000000
0.000000 0.000000 0.000000
0.000000 0.000000 0.000000
0.000000 0.000000 0.000000
0.000000 0.000000 0.000000
0.000000 0.000000 0.000000
0.000000 0.000000 0.000000
0.000000 0.000000 0.000000
0.000000 0.000000 0.000000
0.000000 0.000000 0.000000
0.000000 0.000000 0.000000
0.000000 0.000000 0.000000
0.000000 0.000000 0.000000
0.000000 0.000000 0.000000
0.000000 0.000000 0.000000
0.000000 0.000000 0.000000
0.000000 0.000000 0.000000
0.000000 0.000000 0.000000
0.000000 0.000000 0.000000
0.000000 0.000000 0.000000
0.000000 0.000000 0.000000
0.000000 0.000000 0.000000
0.000000 0.000000 0.000000
0.000000 0.000000 0.000000
0.000000 0.000000 0.000000
0.000000 0.000000 0.000000
0.000000 0.000000 0.000000
0.000000 0.000000 0.000000
0.000000 0.000000 0.000000
0.000000 0.000000 0.000000
0.000000 0.000000 0.000000
0.000000 0.000000 0.000000
0.000000 0.000000 0.000000
0.000000 0.000000 0.000000
0.000000 0.000000 0.000000
0.000000 0.000000 0.000000
0.000000 0.000000 0.000000
0.000000 0.000000 0.000000
0.000000 0.000000 0.000000
0.000000 0.000000 0.000000
0.000000 0.000000 0.000000
0.000000 0.000000 0.000000
0.000000 0.000000 0.000000
0.000000 0.000000 0.000000
0.000000 0.000000 0.000000
0.000000 0.000000 0.000000
0.000000 0.000000 0.000000
0.000000 0.000000 0.000000
0.000000 0.000000 0.000000
0.000000 0.000000 0.000000
0.000000 0.000000 0.000000
0.000000 0.000000 0.000000
0.000000 0.000000 0.000000
0.000000 0.000000 0.000000
0.000000 0.000000 0.000000
0.000000 0.000000 0.000000
0.000000 0.000000 0.000000
0.000000 0.000000 0.000000
0.000000 0.000000 0.000000
0.000000 0.000000 0.000000
0.000000 0.000000 0.000000
0.000000 0.000000 0.000000
0.000000 0.000000 0.000000
0.000000 0.000000 0.000000
0.000000 0.000000 0.000000
0.000000 0.000000 0.000000
0.000000 0.000000 0.000000
0.000000 0.000000 0.000000
0.000000 0.000000 0.000000
0.000000 0.000000 0.000000
0.000000 0.000000 0.000000
0.000000 0.000000 0.000000
0.000000 0.000000 0.000000
0.000000 0.000000 0.000000
0.000000 0.000000 0.000000
0.000000 0.000000 0.000000
0.000000 0.000000 0.000000
0.000000 0.000000 0.000000
0.000000 0.000000 0.000000
0.000000 0.000000 0.000000
0.000000 0.000000 0.000000
0.000000 0.000000 0.000000
0.000000 0.000000 0.000000
0.000000 0.000000 0.000000
0.000000 0.000000 0.000000
0.000000 0.000000 0.000000
0.000000 0.000000 0.000000
0.000000 0.000000 0.000000
0.000000 0.000000 0.000000
0.000000 0.000000 0.000000
0.000000 0.000000 0.000000
0.000000 0.000000 0.000000
0.000000 0.000000 0.000000
0.000000 0.000000 0.000000
0.000000 0.000000 0.000000
0.000000 0.000000 0.000000
0.000000 0.000000 0.000000
0.000000 0.000000 0.000000
0.000000 0.000000 0.000000
0.000000 0.000000 0.000000
0.000000 0.000000 0.000000
0.000000 0.000000 0.000000
0.000000 0.000000 0.000000
0.000000 0.000000 0.000000
0.000000 0.000000 0.000000
0.000000 0.000000 0.000000
0.000000 0.000000 0.000000
0.000000 0.000000 0.000000
0.000000 0.000000 0.000000
0.000000 0.000000 0.000000
0.000000 0.000000 0.000000
0.000000 0.000000 0.000000
0.000000 0.000000 0.000000
0.000000 0.000000 0.000000
0.000000 0.000000 0.000000
0.000000 0.000000 0.000000
0.000000 0.000000 0.000000
0.000000 0.000000 0.000000
0.000000 0.000000 0.000000
0.000000 0.000000 0.000000
0.000000 0.000000 0.000000
0.000000 0.000000 0.000000
0.000000 0.000000 0.000000
0.000000 0.000000 0.000000
0.000000 0.000000 0.000000
0.000000 0.000000 0.000000
0.000000 0.000000 0.000000
0.000000 0.000000 0.000000
0.000000 0.000000 0.000000
0.000000 0.000000 0.000000
0.000000 0.000000 0.000000
0.000000 0.000000 0.000000
0.000000 0.000000 0.000000
0.000000 0.000000 0.000000
0.000000 0.000000 0.000000
0.000000 0.000000 0.000000
0.000000 0.000000 0.000000
0.000000 0.000000 0.000000
0.000000 0.000000 0.000000
0.000000 0.000000 0.000000
0.000000 0.000000 0.000000
0.000000 0.000000 0.000000
0.000000 0.000000 0.000000
0.000000 0.000000 0.000000
0.000000 0.000000 0.000000
0.000000 0.000000 0.000000
0.000000 0.000000 0.000000
0.000000 0.000000 0.000000
0.000000 0.000000 0.000000
0.000000 0.000000 0.000000
0.000000 0.000000 0.000000
0.000000 0.000000 0.000000
0.000000 0.000000 0.000000
0.000000 0.000000 0.000000
0.000000 0.000000 0.000000
0.000000 0.000000 0.000000
0.000000 0.000000 0.000000
0.000000 0.000000 0.000000
0.000000 0.000000 0.000000
0.000000 0.000000 0.000000
0.000000 0.000000 0.000000
0.000000 0.000000 0.000000
0.000000 0.000000 0.000000
0.000000 0.000000 0.000000
0.000000 0.000000 0.000000
0.000000 0.000000 0.000000
0.000000 0.000000 0.000000
0.000000 0.000000 0.000000
0.000000 0.000000 0.000000
0.000000 0.000000 0.000000
0.000000 0.000000 0.000000
0.000000 0.000000 0.000000
0.000000 0.000000 0.000000
0.000000 0.000000 0.000000
0.000000 0.000000 0.000000
0.000000 0.000000 0.000000
0.000000 0.000000 0.000000
0.000000 0.000000 0.000000
0.000000 0.000000 0.000000
0.000000 0.000000 0.000000
0.000000 0.000000 0.000000
0.000000 0.000000 0.000000
0.000000 0.000000 0.000000
0.000000 0.000000 0.000000
0.000000 0.000000 0.000000
0.000000 0.000000 0.000000
0.000000 0.000000 0.000000
0.000000 0.000000 0.000000
0.000000 0.000000 0.000000
0.000000 0.000000 0.000000
0.000000 0.000000 0.000000
0.000000 0.000000 0.000000
0.000000 0.000000 0.000000
0.000000 0.000000 0.000000
0.000000 0.000000 0.000000
0.000000 0.000000 0.000000
0.000000 0.000000 0.000000
0.000000 0.000000 0.000000
0.000000 0.000000 0.000000
0.000000 0.000000 0.000000
0.000000 0.000000 0.000000
0.000000 0.000000 0.000000
0.000000 0.000000 0.000000
0.000000 0.000000 0.000000
0.000000 0.000000 0.000000
0.000000 0.000000 0.000000
0.000000 0.000000 0.000000
0.000000 0.000000 0.000000
0.000000 0.000000 0.000000
0.000000 0.000000 0.000000
0.000000 0.000000 0.000000
0.000000 0.000000 0.000000
0.000000 0.000000 0.000000
0.000000 0.000000 0.000000
0.000000 0.000000 0.000000
0.000000 0.000000 0.000000
0.000000 0.000000 0.000000
0.000000 0.000000 0.000000
0.000000 0.000000 0.000000
0.000000 0.000000 0.000000
0.000000 0.000000 0.000000
0.000000 0.000000 0.000000
0.000000 0.000000 0.000000
0.000000 0.000000 0.000000
0.000000 0.000000 0.000000
0.000000 0.000000 0.000000
0.000000 0.000000 0.000000
0.000000 0.000000 0.000000
0.000000 0.000000 0.000000
0.000000 0.000000 0.000000
0.000000 0.000000 0.000000
0.000000 0.000000 0.000000
0.000000 0.000000 0.000000
0.000000 0.000000 0.000000
0.000000 0.000000 0.000000
0.000000 0.000000 0.000000
0.000000 0.000000 0.000000
0.000000 0.000000 0.000000
0.000000 0.000000 0.000000
0.000000 0.000000 0.000000
0.000000 0.000000 0.000000
0.000000 0.000000 0.000000
0.000000 0.000000 -50.000000
-50.000000 0.000000 -50.000000
-43.332128 0.000000 -45.688691
-45.491393 0.000000 -43.331969
-50.000000 0.000000 -50.000000
-36.664185 0.000000 -36.664283
-50.000000 0.000000 -45.081446
-39.969954 0.000000 -40.027667
-44.152528 0.000000 -29.996512
-50.000000 0.000000 -50.000000
-29.996361 0.000000 -44.847407
-33.449054 0.000000 -33.145301
-44.675959 0.000000 -39.869534
-36.787170 0.000000 -35.129149
-39.801636 0.000000 -23.329222
-50.000000 0.000000 -26.539576
-44.666867 0.000000 -50.000000
-23.329083 0.000000 -44.665405
-26.804120 0.000000 -39.364537
-30.225873 0.000000 -29.606834
-39.359620 0.000000 -33.368798
-33.655746 0.000000 -50.000000
-16.662595 0.000000 -16.662817
-50.000000 0.000000 -9.997305
