# vtk DataFile Version 2.0
CellBP Time: 7.24
ASCII
DATASET UNSTRUCTURED_GRID
POINTS 320 double
-50.000000 -50.000000 0.000000
-50.000000 -43.332290 0.000000
-45.688632 -45.491350 0.000000
-43.332142 -50.000000 0.000000
-50.000000 -36.664517 0.000000
-36.664580 -50.000000 0.000000
-45.081384 -39.969928 0.000000
-40.027573 -44.152485 0.000000
-29.996940 -50.000000 0.000000
-50.000000 -29.996843 0.000000
-44.847347 -33.449036 0.000000
-33.145219 -44.675913 0.000000
-39.869455 -36.787144 0.000000
-35.129051 -39.801582 0.000000
-23.329716 -50.000000 0.000000
-26.539484 -44.666850 0.000000
-50.000000 -23.329640 0.000000
-44.665382 -26.804092 0.000000
-39.364482 -30.225847 0.000000
-29.606720 -39.359582 0.000000
-33.368689 -33.655702 0.000000
-50.000000 -16.663119 0.000000
-16.663266 -50.000000 0.000000
-9.997602 -50.000000 0.000000
-19.965277 -44.588712 0.000000
-23.216221 -39.114763 0.000000
-44.691820 -20.097078 0.000000
-39.367948 -23.528200 0.000000
-34.106409 -26.937136 0.000000
-26.384849 -33.577574 0.000000
-29.156641 -28.926892 0.000000
-50.000000 -9.997192 0.000000
-44.666301 -13.410325 0.000000
-50.000000 -3.332017 0.000000
-3.332580 -50.000000 0.000000
3.332285 -50.000000 0.000000
-13.344064 -44.598879 0.000000
-6.684971 -44.610478 0.000000
-16.694005 -39.153099 0.000000
-20.107198 -33.342624 0.000000
-39.338112 -16.804602 0.000000
-34.019045 -20.274496 0.000000
-28.781441 -23.449260 0.000000
-23.510849 -27.351049 0.000000
-44.635283 -6.705496 0.000000
-39.293122 -10.101682 0.000000
-50.000000 3.332770 0.000000
-44.626507 -0.015356 0.000000
9.997472 -50.000000 0.000000
16.663286 -50.000000 0.000000
-0.016182 -44.618576 0.000000
6.651794 -44.635332 0.000000
-10.044972 -39.222508 0.000000
-3.368305 -39.220188 0.000000
-13.484349 -33.798413 0.000000
-16.708855 -28.271610 0.000000
-33.947931 -13.513418 0.000000
-28.602787 -16.891980 0.000000
-23.292823 -20.313359 0.000000
-18.661076 -23.284707 0.000000
-39.267325 -3.392557 0.000000
-33.904484 -6.796693 0.000000
-50.000000 9.997703 0.000000
-44.606499 6.673840 0.000000
-39.260615 3.325859 0.000000
-50.000000 16.663328 0.000000
23.329740 -50.000000 0.000000
29.996844 -50.000000 0.000000
13.317812 -44.662920 0.000000
19.989968 -44.700090 0.000000
3.307633 -39.245093 0.000000
9.971896 -39.290378 0.000000
-6.735715 -33.791336 0.000000
-0.032142 -33.829413 0.000000
-10.096025 -28.292268 0.000000
-13.122671 -22.895855 0.000000
-28.531375 -10.214025 0.000000
-23.067961 -13.663803 0.000000
-16.979336 -17.212870 0.000000
-33.884142 -0.065465 0.000000
-28.562711 -3.580238 0.000000
-44.563941 13.381031 0.000000
-39.189841 10.015279 0.000000
-33.905422 6.616113 0.000000
-50.000000 23.329555 0.000000
-44.557308 20.138635 0.000000
-50.000000 29.996957 0.000000
36.664427 -50.000000 0.000000
43.332170 -50.000000 0.000000
26.663562 -44.745399 0.000000
33.315527 -44.876166 0.000000
16.631757 -39.357673 0.000000
23.328440 -39.437192 0.000000
6.642984 -33.879595 0.000000
13.290474 -33.965424 0.000000
-3.346444 -28.363799 0.000000
3.358443 -28.451176 0.000000
-6.626313 -22.844758 0.000000
-9.961641 -17.315351 0.000000
-23.180067 -7.014083 0.000000
-17.814194 -10.334902 0.000000
-12.837994 -12.609856 0.000000
-28.607297 3.088748 0.000000
-23.266811 -0.469981 0.000000
-39.038393 16.746378 0.000000
-28.719978 9.925777 0.000000
-33.760708 13.317975 0.000000
-44.521719 26.717393 0.000000
-38.467791 23.892805 0.000000
-44.632790 33.086053 0.000000
-50.000000 36.664972 0.000000
-50.000000 43.332443 0.000000
39.922577 -45.069791 0.000000
45.474950 -45.660679 0.000000
50.000000 -50.000000 0.000000
36.626955 -39.982129 0.000000
30.012595 -39.458757 0.000000
19.904211 -34.093007 0.000000
26.585154 -34.319672 0.000000
9.988417 -28.512626 0.000000
16.610497 -28.660518 0.000000
0.050323 -22.963502 0.000000
6.812056 -23.154903 0.000000
-3.397621 -17.296903 0.000000
-6.801921 -10.886440 0.000000
-17.873522 -3.812720 0.000000
-12.548463 -7.033516 0.000000
-23.308007 6.069352 0.000000
-18.033672 2.437794 0.000000
-23.123787 12.096352 0.000000
-33.572160 19.788966 0.000000
-27.941786 16.886451 0.000000
-33.293335 24.723103 0.000000
-39.474136 30.053428 0.000000
-35.160993 28.137910 0.000000
-39.816571 35.101868 0.000000
-43.991992 39.982764 0.000000
-45.431185 45.685514 0.000000
-50.000000 50.000000 0.000000
44.117472 -39.899329 0.000000
50.000000 -43.331791 0.000000
39.639663 -35.047641 0.000000
33.463050 -33.424735 0.000000
22.985019 -28.818248 0.000000
28.731106 -29.247992 0.000000
13.460799 -23.121849 0.000000
20.054951 -23.439895 0.000000
3.365001 -17.590809 0.000000
10.122638 -17.843411 0.000000
0.167099 -11.794803 0.000000
-2.125816 -6.162396 0.000000
-7.166593 -3.568458 0.000000
-12.446124 -0.808224 0.000000
-18.173877 8.573227 0.000000
-12.935270 5.196518 0.000000
-18.637827 13.750941 0.000000
-21.503647 17.494003 0.000000
-28.941155 23.159395 0.000000
-24.346476 21.554214 0.000000
-30.324095 28.635273 0.000000
-34.253935 33.375734 0.000000
-36.956184 39.578206 0.000000
-39.838787 45.102995 0.000000
-43.332125 50.000000 0.000000
44.585441 -32.972316 0.000000
50.000000 -36.664050 0.000000
39.129410 -29.582102 0.000000
33.500754 -26.367815 0.000000
27.183308 -23.322131 0.000000
23.067411 -18.648008 0.000000
16.992594 -16.982480 0.000000
6.698116 -12.191604 0.000000
12.373226 -12.737290 0.000000
-3.364845 -1.484377 0.000000
3.796714 -6.782539 0.000000
1.023641 -2.120611 0.000000
-6.861889 2.268371 0.000000
-8.250146 7.662775 0.000000
-12.841366 11.927875 0.000000
-15.690457 17.698832 0.000000
-19.287503 22.981263 0.000000
-24.171019 27.354358 0.000000
-27.286447 33.625779 0.000000
-30.406833 39.161017 0.000000
-33.448006 44.738892 0.000000
-36.664320 50.000000 0.000000
44.547762 -26.500198 0.000000
50.000000 -29.996374 0.000000
39.040011 -23.179387 0.000000
33.449519 -19.900012 0.000000
28.039625 -16.573294 0.000000
22.679519 -13.123637 0.000000
17.175735 -9.899764 0.000000
10.783794 -6.579194 0.000000
-1.359485 2.320886 0.000000
6.136230 -1.710898 0.000000
2.887681 1.592683 0.000000
-3.453384 6.991000 0.000000
-6.313805 12.427212 0.000000
-9.629334 17.711955 0.000000
-13.168102 23.114691 0.000000
-17.316976 28.185046 0.000000
-20.571104 33.474166 0.000000
-23.666188 39.063891 0.000000
-26.831319 44.585339 0.000000
-29.996933 50.000000 0.000000
44.528629 -19.930991 0.000000
50.000000 -23.329224 0.000000
39.036124 -16.594255 0.000000
33.575763 -13.281280 0.000000
28.149044 -9.965152 0.000000
22.724599 -6.604853 0.000000
17.265017 -3.334995 0.000000
11.803922 0.216298 0.000000
1.908685 6.202286 0.000000
6.809376 3.713101 0.000000
-0.226435 11.771948 0.000000
-3.247902 17.531551 0.000000
-6.698883 22.976316 0.000000
-10.567075 28.267181 0.000000
-13.724349 33.660900 0.000000
-16.945996 39.080106 0.000000
-20.141073 44.548328 0.000000
-23.329961 50.000000 0.000000
44.536119 -13.304125 0.000000
50.000000 -16.662838 0.000000
39.079740 -9.966931 0.000000
33.646529 -6.641486 0.000000
28.236734 -3.308174 0.000000
22.850069 0.017275 0.000000
17.538300 3.340970 0.000000
12.180989 6.581690 0.000000
6.657489 10.697996 0.000000
3.302410 17.200126 0.000000
-0.080603 22.854849 0.000000
-3.519171 28.313184 0.000000
-6.831801 33.774675 0.000000
-10.137854 39.170497 0.000000
-13.436280 44.563433 0.000000
-16.663638 50.000000 0.000000
44.554098 -6.655028 0.000000
50.000000 -9.997298 0.000000
39.123155 -3.321491 0.000000
33.713294 0.008791 0.000000
28.333336 3.345164 0.000000
22.999264 6.693886 0.000000
17.834666 10.018458 0.000000
12.658742 12.244299 0.000000
9.784025 17.232818 0.000000
6.479757 22.722456 0.000000
3.189449 28.270393 0.000000
-0.116077 33.734956 0.000000
-3.425380 39.168714 0.000000
-6.725835 44.581710 0.000000
-9.997904 50.000000 0.000000
44.575470 0.001772 0.000000
50.000000 -3.332418 0.000000
39.166882 3.331796 0.000000
33.779540 6.655638 0.000000
28.423846 9.994699 0.000000
23.046537 13.416128 0.000000
16.951145 17.024496 0.000000
12.901588 22.667036 0.000000
9.815508 28.231690 0.000000
6.604426 33.718827 0.000000
3.286537 39.164440 0.000000
-0.029985 44.584488 0.000000
-3.332640 50.000000 0.000000
44.586649 6.665656 0.000000
50.000000 3.332383 0.000000
39.198218 9.982036 0.000000
33.843526 13.276885 0.000000
28.542425 16.584281 0.000000
23.387791 20.084265 0.000000
18.532033 23.113533 0.000000
16.392549 28.298491 0.000000
13.329065 33.754747 0.000000
9.986737 39.181952 0.000000
6.666156 44.584226 0.000000
3.332471 50.000000 0.000000
44.608883 13.318302 0.000000
50.000000 9.997597 0.000000
39.251399 16.612611 0.000000
33.932070 19.862902 0.000000
28.612610 22.925998 0.000000
23.279702 27.207820 0.000000
19.901440 33.302846 0.000000
16.574122 39.040827 0.000000
13.268732 44.526626 0.000000
9.997670 50.000000 0.000000
44.632069 19.973411 0.000000
50.000000 16.663449 0.000000
39.298570 23.262379 0.000000
34.043977 26.514901 0.000000
28.966003 28.539511 0.000000
26.202609 33.410192 0.000000
23.066980 38.968798 0.000000
19.888998 44.507018 0.000000
16.663305 50.000000 0.000000
44.639902 26.643314 0.000000
50.000000 23.329906 0.000000
39.293525 29.966988 0.000000
33.212626 33.371472 0.000000
29.412444 39.045952 0.000000
26.422760 44.506013 0.000000
23.329674 50.000000 0.000000
44.775185 33.292093 0.000000
50.000000 29.996969 0.000000
39.738365 36.596520 0.000000
34.831324 39.525881 0.000000
32.834137 44.514497 0.000000
29.996719 50.000000 0.000000
44.978454 39.878104 0.000000
50.000000 36.664495 0.000000
39.735241 43.969276 0.000000
36.664274 50.000000 0.000000
45.621544 45.410073 0.000000
50.000000 43.332191 0.000000
43.331905 50.000000 0.000000
50.000000 50.000000 0.000000
CELLS 578 2312
3 1 0 2
3 0 3 2
3 4 1 6
3 6 1 2
3 3 5 7
3 3 7 2
3 6 2 7
3 9 4 10
3 10 4 6
3 5 8 11
3 7 5 11
3 10 6 12
3 12 6 7
3 7 11 13
3 7 13 12
3 8 14 15
3 11 8 15
3 16 9 17
3 17 9 10
3 17 10 18
3 18 10 12
3 11 15 19
3 13 11 19
3 18 12 20
3 13 19 20
3 20 12 13
3 14 22 24
3 15 14 24
3 15 24 25
3 19 15 25
3 21 16 26
3 26 16 17
3 26 17 27
3 27 17 18
3 27 18 28
3 28 18 20
3 19 25 29
3 19 29 20
3 28 20 30
3 30 20 29
3 31 21 32
3 32 21 26
3 22 23 36
3 24 22 36
3 23 34 37
3 36 23 37
3 24 36 38
3 25 24 38
3 25 38 39
3 29 25 39
3 32 26 40
3 40 26 27
3 40 27 41
3 41 27 28
3 41 28 42
3 42 28 30
3 29 39 43
3 29 43 30
3 42 30 43
3 33 31 44
3 44 31 32
3 44 32 45
3 45 32 40
3 46 33 47
3 47 33 44
3 34 35 50
3 37 34 50
3 35 48 51
3 50 35 51
3 36 37 52
3 38 36 52
3 37 50 53
3 52 37 53
3 38 52 54
3 39 38 54
3 39 54 55
3 43 39 55
3 45 40 56
3 56 40 41
3 56 41 57
3 57 41 42
3 57 42 58
3 58 42 43
3 43 55 59
3 43 59 58
3 47 44 60
3 60 44 45
3 60 45 61
3 61 45 56
3 62 46 63
3 63 46 47
3 63 47 64
3 64 47 60
3 48 49 68
3 51 48 68
3 49 66 69
3 68 49 69
3 50 51 70
3 53 50 70
3 51 68 71
3 70 51 71
3 52 53 72
3 54 52 72
3 53 70 73
3 72 53 73
3 54 72 74
3 55 54 74
3 55 74 75
3 59 55 75
3 61 56 76
3 76 56 57
3 76 57 77
3 77 57 58
3 77 58 78
3 59 75 78
3 78 58 59
3 64 60 79
3 79 60 61
3 79 61 80
3 80 61 76
3 65 62 81
3 81 62 63
3 81 63 82
3 82 63 64
3 82 64 83
3 83 64 79
3 84 65 85
3 85 65 81
3 66 67 89
3 69 66 89
3 67 87 90
3 89 67 90
3 68 69 91
3 71 68 91
3 69 89 92
3 91 69 92
3 70 71 93
3 73 70 93
3 71 91 94
3 93 71 94
3 72 73 95
3 74 72 95
3 73 93 96
3 95 73 96
3 74 95 97
3 75 74 97
3 75 97 98
3 78 75 98
3 80 76 99
3 99 76 77
3 99 77 100
3 100 77 78
3 100 78 101
3 98 101 78
3 83 79 102
3 102 79 80
3 102 80 103
3 103 80 99
3 85 81 104
3 104 81 82
3 105 83 102
3 104 82 106
3 106 82 83
3 106 83 105
3 86 84 107
3 107 84 85
3 107 85 108
3 108 85 104
3 109 86 107
3 110 86 109
3 87 88 112
3 90 87 112
3 112 88 113
3 88 114 113
3 90 112 115
3 89 90 116
3 92 89 116
3 116 90 115
3 91 92 117
3 94 91 117
3 92 116 118
3 117 92 118
3 93 94 119
3 96 93 119
3 94 117 120
3 119 94 120
3 95 96 121
3 97 95 121
3 96 119 122
3 121 96 122
3 97 121 123
3 98 97 123
3 98 123 124
3 98 124 101
3 103 99 125
3 125 99 100
3 125 100 126
3 126 100 101
3 126 101 124
3 105 102 127
3 127 102 103
3 127 103 128
3 128 103 125
3 129 105 127
3 108 104 130
3 130 104 106
3 130 106 131
3 131 106 105
3 131 105 129
3 108 130 132
3 109 107 133
3 133 107 108
3 133 108 134
3 108 132 134
3 135 109 133
3 111 110 136
3 136 110 109
3 136 109 135
3 137 111 136
3 138 111 137
3 112 113 139
3 115 112 139
3 114 140 113
3 140 139 113
3 139 141 115
3 116 115 142
3 118 116 142
3 142 115 141
3 117 118 143
3 120 117 143
3 118 142 144
3 143 118 144
3 119 120 145
3 122 119 145
3 120 143 146
3 145 120 146
3 121 122 147
3 123 121 147
3 122 145 148
3 147 122 148
3 123 147 149
3 124 123 149
3 124 149 150
3 151 126 124
3 124 150 151
3 128 125 152
3 152 125 126
3 152 126 151
3 129 127 153
3 153 127 128
3 128 152 154
3 153 128 154
3 155 129 153
3 131 129 156
3 156 129 155
3 132 130 157
3 130 131 157
3 157 131 158
3 131 156 158
3 132 157 159
3 132 159 134
3 135 133 160
3 160 133 134
3 160 134 159
3 136 135 161
3 135 160 161
3 162 137 136
3 161 162 136
3 163 138 137
3 162 163 137
3 139 164 141
3 140 165 139
3 139 165 164
3 141 164 166
3 141 166 142
3 166 167 142
3 144 142 167
3 167 168 144
3 143 144 168
3 146 143 168
3 168 169 146
3 145 146 170
3 148 145 170
3 170 146 169
3 147 148 171
3 149 147 171
3 148 170 172
3 171 148 172
3 173 151 150
3 149 171 174
3 150 149 174
3 150 174 175
3 150 175 173
3 154 152 176
3 152 151 176
3 176 151 173
3 154 176 177
3 155 153 178
3 177 178 154
3 154 178 153
3 156 155 179
3 155 178 179
3 180 158 156
3 179 180 156
3 181 159 157
3 180 181 158
3 181 157 158
3 182 160 159
3 181 182 159
3 183 161 160
3 182 183 160
3 184 162 161
3 184 161 183
3 185 163 162
3 184 185 162
3 164 186 166
3 165 187 164
3 164 187 186
3 166 186 188
3 166 188 167
3 167 188 189
3 167 189 168
3 168 189 190
3 168 190 169
3 169 190 191
3 169 191 170
3 192 172 170
3 170 191 192
3 192 193 172
3 171 172 193
3 174 171 193
3 194 173 175
3 176 173 194
3 175 174 195
3 193 195 174
3 195 196 175
3 175 196 194
3 197 177 176
3 194 197 176
3 198 178 177
3 197 198 177
3 199 179 178
3 198 199 178
3 200 180 179
3 199 200 179
3 201 181 180
3 200 201 180
3 202 182 181
3 201 202 181
3 203 183 182
3 202 203 182
3 204 184 183
3 203 204 183
3 205 185 184
3 204 205 184
3 186 206 188
3 187 207 186
3 186 207 206
3 188 206 208
3 188 208 189
3 189 208 209
3 189 209 190
3 190 209 210
3 190 210 191
3 191 210 211
3 191 211 192
3 192 211 212
3 192 212 193
3 193 212 213
3 193 213 195
3 214 197 194
3 214 194 196
3 195 213 215
3 195 215 196
3 196 215 214
3 216 198 197
3 214 216 197
3 217 199 198
3 216 217 198
3 218 200 199
3 217 218 199
3 219 201 200
3 218 219 200
3 220 202 201
3 219 220 201
3 221 203 202
3 220 221 202
3 222 204 203
3 221 222 203
3 223 205 204
3 222 223 204
3 206 224 208
3 207 225 206
3 206 225 224
3 208 224 226
3 208 226 209
3 209 226 227
3 209 227 210
3 210 227 228
3 210 228 211
3 211 228 229
3 211 229 212
3 212 229 230
3 212 230 213
3 213 230 231
3 213 231 215
3 232 216 214
3 215 231 232
3 232 214 215
3 233 217 216
3 232 233 216
3 234 218 217
3 233 234 217
3 235 219 218
3 234 235 218
3 236 220 219
3 235 236 219
3 237 221 220
3 236 237 220
3 238 222 221
3 237 238 221
3 239 223 222
3 238 239 222
3 224 240 226
3 225 241 224
3 224 241 240
3 226 240 242
3 226 242 227
3 227 242 243
3 227 243 228
3 228 243 244
3 228 244 229
3 244 245 229
3 229 245 230
3 230 245 246
3 230 246 231
3 231 246 247
3 231 247 232
3 248 233 232
3 248 232 247
3 249 234 233
3 248 249 233
3 250 235 234
3 249 250 234
3 251 236 235
3 250 251 235
3 252 237 236
3 251 252 236
3 253 238 237
3 252 253 237
3 254 239 238
3 253 254 238
3 240 255 242
3 241 256 240
3 240 256 255
3 242 255 257
3 242 257 243
3 243 257 258
3 243 258 244
3 244 258 259
3 244 259 245
3 245 259 260
3 245 260 246
3 246 260 261
3 246 261 247
3 248 247 261
3 262 249 248
3 261 262 248
3 263 250 249
3 262 263 249
3 264 251 250
3 263 264 250
3 265 252 251
3 264 265 251
3 266 253 252
3 265 266 252
3 267 254 253
3 266 267 253
3 255 268 257
3 256 269 255
3 255 269 268
3 257 268 270
3 257 270 258
3 258 270 271
3 258 271 259
3 259 271 272
3 259 272 260
3 260 272 273
3 260 273 261
3 274 262 261
3 261 273 274
3 275 263 262
3 274 275 262
3 276 264 263
3 275 276 263
3 277 265 264
3 276 277 264
3 278 266 265
3 277 278 265
3 279 267 266
3 278 279 266
3 268 280 270
3 269 281 268
3 268 281 280
3 270 280 282
3 270 282 271
3 271 282 283
3 271 283 272
3 283 284 272
3 272 284 273
3 285 275 274
3 273 284 285
3 285 274 273
3 286 276 275
3 285 286 275
3 287 277 276
3 286 287 276
3 288 278 277
3 287 288 277
3 289 279 278
3 288 289 278
3 280 290 282
3 281 291 280
3 280 291 290
3 282 290 292
3 282 292 283
3 283 292 293
3 283 293 284
3 284 293 294
3 284 294 285
3 295 286 285
3 295 285 294
3 296 287 286
3 295 296 286
3 297 288 287
3 296 297 287
3 298 289 288
3 297 298 288
3 290 299 292
3 291 300 290
3 290 300 299
3 292 299 301
3 292 301 293
3 293 301 302
3 293 302 294
3 294 302 295
3 303 296 295
3 303 295 302
3 304 297 296
3 303 304 296
3 305 298 297
3 304 305 297
3 299 306 301
3 300 307 299
3 299 307 306
3 301 306 308
3 301 308 302
3 309 303 302
3 302 308 309
3 310 304 303
3 309 310 303
3 311 305 304
3 310 311 304
3 306 312 308
3 307 313 306
3 306 313 312
3 314 310 309
3 308 312 314
3 314 309 308
3 315 311 310
3 314 315 310
3 312 316 314
3 313 317 312
3 312 317 316
3 318 315 314
3 318 314 316
3 317 319 316
3 319 318 316
CELL_TYPES 578
5
5
5
5
5
5
5
5
5
5
5
5
5
5
5
5
5
5
5
5
5
5
5
5
5
5
5
5
5
5
5
5
5
5
5
5
5
5
5
5
5
5
5
5
5
5
5
5
5
5
5
5
5
5
5
5
5
5
5
5
5
5
5
5
5
5
5
5
5
5
5
5
5
5
5
5
5
5
5
5
5
5
5
5
5
5
5
5
5
5
5
5
5
5
5
5
5
5
5
5
5
5
5
5
5
5
5
5
5
5
5
5
5
5
5
5
5
5
5
5
5
5
5
5
5
5
5
5
5
5
5
5
5
5
5
5
5
5
5
5
5
5
5
5
5
5
5
5
5
5
5
5
5
5
5
5
5
5
5
5
5
5
5
5
5
5
5
5
5
5
5
5
5
5
5
5
5
5
5
5
5
5
5
5
5
5
5
5
5
5
5
5
5
5
5
5
5
5
5
5
5
5
5
5
5
5
5
5
5
5
5
5
5
5
5
5
5
5
5
5
5
5
5
5
5
5
5
5
5
5
5
5
5
5
5
5
5
5
5
5
5
5
5
5
5
5
5
5
5
5
5
5
5
5
5
5
5
5
5
5
5
5
5
5
5
5
5
5
5
5
5
5
5
5
5
5
5
5
5
5
5
5
5
5
5
5
5
5
5
5
5
5
5
5
5
5
5
5
5
5
5
5
5
5
5
5
5
5
5
5
5
5
5
5
5
5
5
5
5
5
5
5
5
5
5
5
5
5
5
5
5
5
5
5
5
5
5
5
5
5
5
5
5
5
5
5
5
5
5
5
5
5
5
5
5
5
5
5
5
5
5
5
5
5
5
5
5
5
5
5
5
5
5
5
5
5
5
5
5
5
5
5
5
5
5
5
5
5
5
5
5
5
5
5
5
5
5
5
5
5
5
5
5
5
5
5
5
5
5
5
5
5
5
5
5
5
5
5
5
5
5
5
5
5
5
5
5
5
5
5
5
5
5
5
5
5
5
5
5
5
5
5
5
5
5
5
5
5
5
5
5
5
5
5
5
5
5
5
5
5
5
5
5
5
5
5
5
5
5
5
5
5
5
5
5
5
5
5
5
5
5
5
5
5
5
5
5
5
5
5
5
5
5
5
5
5
5
5
5
5
5
5
5
5
5
5
5
5
5
5
5
5
5
5
5
5
5
5
5
5
5
5
5
5
5
5
5
5
5
5
5
5
5
5
5
5
5
5
5
5
5
5
5
5
5
5
5
5
5
5
5
5
5
5
5
5
5
5
5
5
5
5
5
5
5
5
5
5
5
5
5
5
5
5
5
5
5
5
POINT_DATA 320
SCALARS theta_e float 1
LOOKUP_TABLE default
1.000000
1.000000
1.000000
1.000000
1.000000
1.000000
1.000000
1.000000
1.000000
1.000000
1.000000
1.000000
1.000000
1.000000
1.000000
1.000000
1.000000
1.000000
1.000000
1.000000
1.000000
1.000000
1.000000
1.000000
1.000000
1.000000
1.000000
1.000000
1.000000
1.000000
1.000000
1.000000
1.000000
1.000000
1.000000
1.000000
1.000000
1.000000
1.000000
1.000000
1.000000
1.000000
1.000000
1.000000
1.000000
1.000000
1.000000
1.000000
1.000000
1.000000
1.000000
1.000000
1.000000
1.000000
1.000000
1.000000
1.000000
1.000000
1.000000
1.000000
1.000000
1.000000
1.000000
1.000000
1.000000
1.000000
1.000000
1.000000
1.000000
1.000000
1.000000
1.000000
1.000000
1.000000
1.000000
1.000000
1.000000
1.000000
1.000000
1.000000
1.000000
1.000000
1.000000
1.000000
1.000000
1.000000
1.000000
1.000000
1.000000
1.000000
1.000000
1.000000
1.000000
1.000000
1.000000
1.000000
1.000000
1.000000
1.000000
1.000000
1.000000
1.000000
1.000000
1.000000
1.000000
1.000000
1.000000
1.000000
1.000000
1.000000
1.000000
1.000000
1.000000
1.000000
1.000000
1.000000
1.000000
1.000000
1.000000
1.000000
1.000000
1.000000
1.000000
1.000000
0.999998
1.000000
0.999999
1.000000
1.000000
1.000000
1.000000
1.000000
1.000000
1.000000
1.000000
1.000000
1.000000
1.000000
1.000000
1.000000
1.000000
1.000000
1.000000
1.000000
1.000000
1.000000
1.000000
1.000000
1.000000
0.999998
0.999993
0.999995
0.999998
1.000000
0.999999
1.000000
1.000000
1.000000
1.000000
1.000000
1.000000
1.000000
1.000000
1.000000
1.000000
1.000000
1.000000
1.000000
1.000000
1.000000
1.000000
1.000000
1.000000
0.999989
0.999995
0.999990
0.999993
0.999998
1.000000
1.000000
1.000000
1.000000
1.000000
1.000000
1.000000
1.000000
1.000000
1.000000
1.000000
1.000000
1.000000
1.000000
1.000001
0.999999
0.999989
0.999993
0.999989
0.999994
0.999999
1.000000
1.000000
1.000000
1.000000
1.000000
1.000000
1.000000
1.000000
1.000000
1.000000
1.000000
1.000000
1.000000
1.000001
0.999999
0.999993
0.999995
0.999998
1.000001
1.000000
1.000000
1.000000
1.000000
1.000000
1.000000
1.000000
1.000000
1.000000
1.000000
1.000000
1.000000
1.000001
1.000000
0.999999
1.000001
1.000000
1.000000
1.000000
1.000000
1.000000
1.000000
1.000000
1.000000
1.000000
1.000000
1.000000
1.000000
1.000001
1.000001
1.000001
1.000000
1.000000
1.000000
1.000000
1.000000
1.000000
1.000000
1.000000
1.000000
1.000000
1.000000
1.000000
1.000000
1.000000
1.000000
1.000000
1.000000
1.000000
1.000000
1.000000
1.000000
1.000000
1.000000
1.000000
1.000000
1.000000
1.000000
1.000000
1.000000
1.000000
1.000000
1.000000
1.000000
1.000000
1.000000
1.000000
1.000000
1.000000
1.000000
1.000000
1.000000
1.000000
1.000000
1.000000
1.000000
1.000000
1.000000
1.000000
1.000000
1.000000
1.000000
1.000000
1.000000
1.000000
1.000000
1.000000
1.000000
1.000000
1.000000
1.000000
1.000000
1.000000
1.000000
1.000000
1.000000
1.000000
1.000000
1.000000
1.000000
1.000000
1.000000
VECTORS fa_u float
0.000000 0.000000 0.000000
0.000000 0.000000 0.000000
0.000000 0.000000 0.000000
0.000000 0.000000 0.000000
0.000000 0.000000 0.000000
0.000000 0.000000 0.000000
0.000000 0.000000 0.000000
0.000000 0.000000 0.000000
0.000000 0.000000 0.000000
0.000000 0.000000 0.000000
0.000000 0.000000 0.000000
0.000000 0.000000 0.000000
0.000000 0.000000 0.000000
0.000000 0.000000 0.000000
0.000000 0.000000 0.000000
0.000000 0.000000 0.000000
0.000000 0.000000 0.000000
0.000000 0.000000 0.000000
0.000000 0.000000 0.000000
0.000000 0.000000 0.000000
0.000000 0.000000 0.000000
0.000000 0.000000 0.000000
0.000000 0.000000 0.000000
0.000000 0.000000 0.000000
0.000000 0.000000 0.000000
0.000000 0.000000 0.000000
0.000000 0.000000 0.000000
0.000000 0.000000 0.000000
0.000000 0.000000 0.000000
0.000000 0.000000 0.000000
0.000000 0.000000 0.000000
0.000000 0.000000 0.000000
0.000000 0.000000 0.000000
0.000000 0.000000 0.000000
0.000000 0.000000 0.000000
0.000000 0.000000 0.000000
0.000000 0.000000 0.000000
0.000000 0.000000 0.000000
0.000000 0.000000 0.000000
0.000000 0.000000 0.000000
0.000000 0.000000 0.000000
0.000000 0.000000 0.000000
0.000000 0.000000 0.000000
0.000000 0.000000 0.000000
0.000000 0.000000 0.000000
0.000000 0.000000 0.000000
0.000000 0.000000 0.000000
0.000000 0.000000 0.000000
0.000000 0.000000 0.000000
0.000000 0.000000 0.000000
0.000000 0.000000 0.000000
0.000000 0.000000 0.000000
0.000000 0.000000 0.000000
0.000000 0.000000 0.000000
0.000000 0.000000 0.000000
0.000000 0.000000 0.000000
0.000000 0.000000 0.000000
0.000000 0.000000 0.000000
0.000000 0.000000 0.000000
0.000000 0.000000 0.000000
0.000000 0.000000 0.000000
0.000000 0.000000 0.000000
0.000000 0.000000 0.000000
0.000000 0.000000 0.000000
0.000000 0.000000 0.000000
0.000000 0.000000 0.000000
0.000000 0.000000 0.000000
0.000000 0.000000 0.000000
0.000000 0.000000 0.000000
0.000000 0.000000 0.000000
0.000000 0.000000 0.000000
0.000000 0.000000 0.000000
0.000000 0.000000 0.000000
0.000000 0.000000 0.000000
0.000000 0.000000 0.000000
0.000000 0.000000 0.000000
0.000000 0.000000 0.000000
0.000000 0.000000 0.000000
0.000000 0.000000 0.000000
0.000000 0.000000 0.000000
0.000000 0.000000 0.000000
0.000000 0.000000 0.000000
0.000000 0.000000 0.000000
0.000000 0.000000 0.000000
0.000000 0.000000 0.000000
0.000000 0.000000 0.000000
0.000000 0.000000 0.000000
0.000000 0.000000 0.000000
0.000000 0.000000 0.000000
0.000000 0.000000 0.000000
0.000000 0.000000 0.000000
0.000000 0.000000 0.000000
0.000000 0.000000 0.000000
0.000000 0.000000 0.000000
0.000000 0.000000 0.000000
0.000000 0.000000 0.000000
0.000000 0.000000 0.000000
0.000000 0.000000 0.000000
0.000000 0.000000 0.000000
0.000000 0.000000 0.000000
0.000000 0.000000 0.000000
0.000000 0.000000 0.000000
0.000000 0.000000 0.000000
0.000000 0.000000 0.000000
0.000000 0.000000 0.000000
0.000000 0.000000 0.000000
0.000000 0.000000 0.000000
0.000000 0.000000 0.000000
0.000000 0.000000 0.000000
0.000000 0.000000 0.000000
0.000000 0.000000 0.000000
0.000000 0.000000 0.000000
0.000000 0.000000 0.000000
0.000000 0.000000 0.000000
0.000000 0.000000 0.000000
0.000000 0.000000 0.000000
0.000000 0.000000 0.000000
0.000000 0.000000 0.000000
0.000000 0.000000 0.000000
0.000000 0.000000 0.000000
0.000000 0.000000 0.000000
0.000000 0.000000 0.000000
0.000000 0.000000 0.000000
0.000000 0.000000 0.000000
0.000000 0.000000 0.000000
0.000000 0.000000 0.000000
0.000000 0.000000 0.000000
0.000000 0.000000 0.000000
0.000000 0.000000 0.000000
0.000000 0.000000 0.000000
0.000000 0.000000 0.000000
0.000000 0.000000 0.000000
0.000000 0.000000 0.000000
0.000000 0.000000 0.000000
0.000000 0.000000 0.000000
0.000000 0.000000 0.000000
0.000000 0.000000 0.000000
0.000000 0.000000 0.000000
0.000000 0.000000 0.000000
0.000000 0.000000 0.000000
0.000000 0.000000 0.000000
0.000000 0.000000 0.000000
0.000000 0.000000 0.000000
0.000000 0.000000 0.000000
0.000000 0.000000 0.000000
0.000000 0.000000 0.000000
0.000000 0.000000 0.000000
0.000000 0.000000 0.000000
0.000000 0.000000 0.000000
0.000000 0.000000 0.000000
0.000000 0.000000 0.000000
0.000000 0.000000 0.000000
0.000000 0.000000 0.000000
0.000000 0.000000 0.000000
0.000000 0.000000 0.000000
0.000000 0.000000 0.000000
0.000000 0.000000 0.000000
0.000000 0.000000 0.000000
0.000000 0.000000 0.000000
0.000000 0.000000 0.000000
0.000000 0.000000 0.000000
0.000000 0.000000 0.000000
0.000000 0.000000 0.000000
0.000000 0.000000 0.000000
0.000000 0.000000 0.000000
0.000000 0.000000 0.000000
0.000000 0.000000 0.000000
0.000000 0.000000 0.000000
0.000000 0.000000 0.000000
0.000000 0.000000 0.000000
0.000000 0.000000 0.000000
0.000000 0.000000 0.000000
0.000000 0.000000 0.000000
0.000000 0.000000 0.000000
0.000000 0.000000 0.000000
0.000000 0.000000 0.000000
0.000000 0.000000 0.000000
0.000000 0.000000 0.000000
0.000000 0.000000 0.000000
0.000000 0.000000 0.000000
0.000000 0.000000 0.000000
0.000000 0.000000 0.000000
0.000000 0.000000 0.000000
0.000000 0.000000 0.000000
0.000000 0.000000 0.000000
0.000000 0.000000 0.000000
0.000000 0.000000 0.000000
0.000000 0.000000 0.000000
0.000000 0.000000 0.000000
0.000000 0.000000 0.000000
0.000000 0.000000 0.000000
0.000000 0.000000 0.000000
0.000000 0.000000 0.000000
0.000000 0.000000 0.000000
0.000000 0.000000 0.000000
0.000000 0.000000 0.000000
0.000000 0.000000 0.000000
0.000000 0.000000 0.000000
0.000000 0.000000 0.000000
0.000000 0.000000 0.000000
0.000000 0.000000 0.000000
0.000000 0.000000 0.000000
0.000000 0.000000 0.000000
0.000000 0.000000 0.000000
0.000000 0.000000 0.000000
0.000000 0.000000 0.000000
0.000000 0.000000 0.000000
0.000000 0.000000 0.000000
0.000000 0.000000 0.000000
0.000000 0.000000 0.000000
0.000000 0.000000 0.000000
0.000000 0.000000 0.000000
0.000000 0.000000 0.000000
0.000000 0.000000 0.000000
0.000000 0.000000 0.000000
0.000000 0.000000 0.000000
0.000000 0.000000 0.000000
0.000000 0.000000 0.000000
0.000000 0.000000 0.000000
0.000000 0.000000 0.000000
0.000000 0.000000 0.000000
0.000000 0.000000 0.000000
0.000000 0.000000 0.000000
0.000000 0.000000 0.000000
0.000000 0.000000 0.000000
0.000000 0.000000 0.000000
0.000000 0.000000 0.000000
0.000000 0.000000 0.000000
0.000000 0.000000 0.000000
0.000000 0.000000 0.000000
0.000000 0.000000 0.000000
0.000000 0.000000 0.000000
0.000000 0.000000 0.000000
0.000000 0.000000 0.000000
0.000000 0.000000 0.000000
0.000000 0.000000 0.000000
0.000000 0.000000 0.000000
0.000000 0.000000 0.000000
0.000000 0.000000 0.000000
0.000000 0.000000 0.000000
0.000000 0.000000 0.000000
0.000000 0.000000 0.000000
0.000000 0.000000 0.000000
0.000000 0.000000 0.000000
0.000000 0.000000 0.000000
0.000000 0.000000 0.000000
0.000000 0.000000 0.000000
0.000000 0.000000 0.000000
0.000000 0.000000 0.000000
0.000000 0.000000 0.000000
0.000000 0.000000 0.000000
0.000000 0.000000 0.000000
0.000000 0.000000 0.000000
0.000000 0.000000 0.000000
0.000000 0.000000 0.000000
0.000000 0.000000 0.000000
0.000000 0.000000 0.000000
0.000000 0.000000 0.000000
0.000000 0.000000 0.000000
0.000000 0.000000 0.000000
0.000000 0.000000 0.000000
0.000000 0.000000 0.000000
0.000000 0.000000 0.000000
0.000000 0.000000 0.000000
0.000000 0.000000 0.000000
0.000000 0.000000 0.000000
0.000000 0.000000 0.000000
0.000000 0.000000 0.000000
0.000000 0.000000 0.000000
0.000000 0.000000 0.000000
0.000000 0.000000 0.000000
0.000000 0.000000 0.000000
0.000000 0.000000 0.000000
0.000000 0.000000 0.000000
0.000000 0.000000 0.000000
0.000000 0.000000 0.000000
0.000000 0.000000 0.000000
0.000000 0.000000 0.000000
0.000000 0.000000 0.000000
0.000000 0.000000 0.000000
0.000000 0.000000 0.000000
0.000000 0.000000 0.000000
0.000000 0.000000 0.000000
0.000000 0.000000 0.000000
0.000000 0.000000 0.000000
0.000000 0.000000 0.000000
0.000000 0.000000 0.000000
0.000000 0.000000 0.000000
0.000000 0.000000 0.000000
0.000000 0.000000 0.000000
0.000000 0.000000 0.000000
0.000000 0.000000 0.000000
0.000000 0.000000 0.000000
0.000000 0.000000 0.000000
0.000000 0.000000 0.000000
0.000000 0.000000 0.000000
0.000000 0.000000 -50.000000
-50.000000 0.000000 -50.000000
-43.332290 0.000000 -45.688632
-45.491350 0.000000 -43.332142
-50.000000 0.000000 -50.000000
-36.664517 0.000000 -36.664580
-50.000000 0.000000 -45.081384
-39.969928 0.000000 -40.027573
-44.152485 0.000000 -29.996940
-50.000000 0.000000 -50.000000
-29.996843 0.000000 -44.847347
-33.449036 0.000000 -33.145219
-44.675913 0.000000 -39.869455
-36.787144 0.000000 -35.129051
-39.801582 0.000000 -23.329716
-50.000000 0.000000 -26.539484
-44.666850 0.000000 -50.000000
-23.329640 0.000000 -44.665382
-26.804092 0.000000 -39.364482
-30.225847 0.000000 -29.606720
-39.359582 0.000000 -33.368689
-33.655702 0.000000 -50.000000
-16.663119 0.000000 -16.663266
-50.000000 0.000000 -9.997602
