# vtk DataFile Version 2.0
CellBP Time: 1.08
ASCII
DATASET UNSTRUCTURED_GRID
POINTS 320 double
-50.000000 -50.000000 0.000000
-50.000000 -43.333255 0.000000
-45.688291 -45.491061 0.000000
-43.333248 -50.000000 0.000000
-50.000000 -36.666507 0.000000
-36.666518 -50.000000 0.000000
-45.081017 -39.969721 0.000000
-40.027043 -44.152182 0.000000
-29.999782 -50.000000 0.000000
-50.000000 -29.999765 0.000000
-44.846986 -33.448856 0.000000
-33.144810 -44.675583 0.000000
-39.869002 -36.786917 0.000000
-35.128511 -39.801177 0.000000
-23.333075 -50.000000 0.000000
-26.539048 -44.666691 0.000000
-50.000000 -23.333057 0.000000
-44.665231 -26.803843 0.000000
-39.364148 -30.225595 0.000000
-29.606113 -39.359258 0.000000
-33.368065 -33.655322 0.000000
-50.000000 -16.666397 0.000000
-16.666423 -50.000000 0.000000
-9.999826 -50.000000 0.000000
-19.964766 -44.588785 0.000000
-23.215786 -39.114646 0.000000
-44.691909 -20.096834 0.000000
-39.367813 -23.528111 0.000000
-34.106027 -26.936942 0.000000
-26.384259 -33.577100 0.000000
-29.156032 -28.926483 0.000000
-50.000000 -9.999783 0.000000
-44.666376 -13.410120 0.000000
-50.000000 -3.333226 0.000000
-3.333276 -50.000000 0.000000
3.333262 -50.000000 0.000000
-13.343518 -44.599091 0.000000
-6.684648 -44.610799 0.000000
-16.693622 -39.153362 0.000000
-20.106925 -33.342671 0.000000
-39.338191 -16.804814 0.000000
-34.018559 -20.274712 0.000000
-28.780737 -23.448941 0.000000
-23.510375 -27.349954 0.000000
-44.635524 -6.705588 0.000000
-39.293065 -10.101878 0.000000
-50.000000 3.333300 0.000000
-44.626864 -0.015727 0.000000
9.999822 -50.000000 0.000000
16.666425 -50.000000 0.000000
-0.016102 -44.618863 0.000000
6.651544 -44.635515 0.000000
-10.044641 -39.222638 0.000000
-3.368222 -39.220486 0.000000
-13.484276 -33.798842 0.000000
-16.709816 -28.271391 0.000000
-33.948102 -13.514282 0.000000
-28.601460 -16.892503 0.000000
-23.291198 -20.312841 0.000000
-18.660168 -23.282305 0.000000
-39.267614 -3.392935 0.000000
-33.904581 -6.796793 0.000000
-50.000000 9.999834 0.000000
-44.606887 6.673239 0.000000
-39.261068 3.325580 0.000000
-50.000000 16.666418 0.000000
23.333075 -50.000000 0.000000
29.999771 -50.000000 0.000000
13.317284 -44.663003 0.000000
19.989406 -44.700129 0.000000
3.307664 -39.245187 0.000000
9.971750 -39.290305 0.000000
-6.735216 -33.791399 0.000000
-0.032363 -33.829691 0.000000
-10.095959 -28.293712 0.000000
-13.122859 -22.898637 0.000000
-28.532845 -10.215202 0.000000
-23.066444 -13.663171 0.000000
-16.976929 -17.208564 0.000000
-33.884908 -0.065453 0.000000
-28.563326 -3.578681 0.000000
-44.564211 13.380236 0.000000
-39.190200 10.014946 0.000000
-33.905909 6.615969 0.000000
-50.000000 23.333049 0.000000
-44.557769 20.137996 0.000000
-50.000000 29.999769 0.000000
36.666503 -50.000000 0.000000
43.333247 -50.000000 0.000000
26.663042 -44.745265 0.000000
33.315148 -44.875874 0.000000
16.631601 -39.357712 0.000000
23.328142 -39.437056 0.000000
6.642776 -33.879525 0.000000
13.290802 -33.965490 0.000000
-3.345520 -28.362822 0.000000
3.356910 -28.451348 0.000000
-6.626037 -22.846358 0.000000
-9.971450 -17.314797 0.000000
-23.185588 -7.014964 0.000000
-17.810182 -10.334839 0.000000
-12.837316 -12.588759 0.000000
-28.607588 3.088457 0.000000
-23.264693 -0.468121 0.000000
-39.039115 16.746464 0.000000
-28.721498 9.926479 0.000000
-33.761798 13.318501 0.000000
-44.521679 26.716720 0.000000
-38.467738 23.892417 0.000000
-44.632130 33.085358 0.000000
-50.000000 36.666535 0.000000
-50.000000 43.333263 0.000000
39.922260 -45.069498 0.000000
45.474565 -45.660350 0.000000
50.000000 -50.000000 0.000000
36.626680 -39.981878 0.000000
30.012209 -39.458537 0.000000
19.904179 -34.092722 0.000000
26.584951 -34.319403 0.000000
9.988849 -28.513642 0.000000
16.611020 -28.659802 0.000000
0.052251 -22.958953 0.000000
6.812240 -23.158586 0.000000
-3.401260 -17.297631 0.000000
-6.867407 -11.030065 0.000000
-17.878634 -3.829240 0.000000
-12.554059 -7.036171 0.000000
-23.310792 6.073759 0.000000
-18.038071 2.455901 0.000000
-23.121942 12.095526 0.000000
-33.572103 19.788915 0.000000
-27.941255 16.885272 0.000000
-33.292685 24.722555 0.000000
-39.473332 30.052551 0.000000
-35.160063 28.137331 0.000000
-39.815743 35.101212 0.000000
-43.991556 39.981988 0.000000
-45.430947 45.685022 0.000000
-50.000000 50.000000 0.000000
44.117132 -39.898854 0.000000
50.000000 -43.333218 0.000000
39.639302 -35.047288 0.000000
33.462793 -33.424442 0.000000
22.984809 -28.817834 0.000000
28.730896 -29.247697 0.000000
13.460725 -23.121780 0.000000
20.054801 -23.438672 0.000000
3.389192 -17.586788 0.000000
10.127472 -17.839908 0.000000
0.141756 -12.013093 0.000000
-2.155690 -6.270238 0.000000
-7.412149 -3.708016 0.000000
-12.632023 -0.802276 0.000000
-18.161826 8.573041 0.000000
-12.965944 5.196832 0.000000
-18.639484 13.752172 0.000000
-21.504777 17.495197 0.000000
-28.940614 23.158200 0.000000
-24.346210 21.554786 0.000000
-30.323322 28.634654 0.000000
-34.253228 33.375448 0.000000
-36.955813 39.578004 0.000000
-39.838621 45.102654 0.000000
-43.333237 50.000000 0.000000
44.585136 -32.971935 0.000000
50.000000 -36.666471 0.000000
39.129243 -29.581699 0.000000
33.500506 -26.367575 0.000000
27.182651 -23.322104 0.000000
23.065608 -18.647746 0.000000
16.989076 -16.979494 0.000000
6.712545 -12.216991 0.000000
12.351666 -12.732485 0.000000
-3.385832 -1.495026 0.000000
3.942124 -7.031138 0.000000
1.022308 -2.121344 0.000000
-7.018026 2.330607 0.000000
-8.440671 7.833427 0.000000
-12.847246 11.933527 0.000000
-15.693000 17.700665 0.000000
-19.287179 22.983051 0.000000
-24.170950 27.354970 0.000000
-27.286260 33.626130 0.000000
-30.406563 39.161289 0.000000
-33.447691 44.738845 0.000000
-36.666481 50.000000 0.000000
44.547709 -26.499721 0.000000
50.000000 -29.999729 0.000000
39.040027 -23.179195 0.000000
33.449831 -19.899950 0.000000
28.040169 -16.574504 0.000000
22.683843 -13.124348 0.000000
17.176685 -9.910499 0.000000
10.943512 -6.648722 0.000000
-1.351481 2.306556 0.000000
6.227692 -1.742108 0.000000
2.910065 1.601129 0.000000
-3.546812 7.192728 0.000000
-6.312175 12.445779 0.000000
-9.629319 17.701114 0.000000
-13.166664 23.112114 0.000000
-17.316457 28.185244 0.000000
-20.570516 33.474490 0.000000
-23.665775 39.064045 0.000000
-26.830693 44.585387 0.000000
-29.999758 50.000000 0.000000
44.528741 -19.930429 0.000000
50.000000 -23.333026 0.000000
39.036430 -16.593998 0.000000
33.576460 -13.281186 0.000000
28.151015 -9.964847 0.000000
22.726250 -6.604498 0.000000
17.264739 -3.337508 0.000000
12.021256 0.190690 0.000000
1.931748 6.298710 0.000000
7.045026 3.845056 0.000000
-0.212289 11.982459 0.000000
-3.270324 17.529503 0.000000
-6.701174 22.978257 0.000000
-10.568031 28.267614 0.000000
-13.723802 33.661613 0.000000
-16.945495 39.080470 0.000000
-20.140310 44.548508 0.000000
-23.333068 50.000000 0.000000
44.536374 -13.303527 0.000000
50.000000 -16.666380 0.000000
39.080019 -9.966571 0.000000
33.646874 -6.640846 0.000000
28.235930 -3.307262 0.000000
22.845889 0.018542 0.000000
17.533892 3.363016 0.000000
12.215536 6.598861 0.000000
6.727979 10.860646 0.000000
3.301233 17.195242 0.000000
-0.081691 22.850805 0.000000
-3.518353 28.312501 0.000000
-6.831151 33.774275 0.000000
-10.137168 39.170582 0.000000
-13.435461 44.563618 0.000000
-16.666428 50.000000 0.000000
44.554468 -6.654610 0.000000
50.000000 -9.999796 0.000000
39.123502 -3.321256 0.000000
33.713474 0.008783 0.000000
28.333192 3.343852 0.000000
23.002184 6.693864 0.000000
17.831822 10.023926 0.000000
12.654369 12.225227 0.000000
9.791700 17.235145 0.000000
6.477446 22.722415 0.000000
3.188495 28.269367 0.000000
-0.115867 33.734652 0.000000
-3.425105 39.168548 0.000000
-6.725252 44.581884 0.000000
-9.999836 50.000000 0.000000
44.575757 0.001950 0.000000
50.000000 -3.333263 0.000000
39.166867 3.331933 0.000000
33.779206 6.655578 0.000000
28.424223 9.995161 0.000000
23.046273 13.416596 0.000000
16.947712 17.021848 0.000000
12.901646 22.671165 0.000000
9.814550 28.232333 0.000000
6.604102 33.718706 0.000000
3.286528 39.164419 0.000000
-0.029851 44.584629 0.000000
-3.333280 50.000000 0.000000
44.586783 6.665452 0.000000
50.000000 3.333264 0.000000
39.198011 9.981902 0.000000
33.843340 13.277145 0.000000
28.541661 16.584964 0.000000
23.386459 20.084396 0.000000
18.531646 23.111888 0.000000
16.393429 28.298780 0.000000
13.328857 33.754801 0.000000
9.986455 39.181968 0.000000
6.665884 44.584422 0.000000
3.333263 50.000000 0.000000
44.608912 13.317767 0.000000
50.000000 9.999821 0.000000
39.251320 16.612380 0.000000
33.931761 19.862870 0.000000
28.612130 22.926012 0.000000
23.279566 27.207448 0.000000
19.901239 33.303180 0.000000
16.573631 39.041002 0.000000
13.268149 44.526821 0.000000
9.999814 50.000000 0.000000
44.632072 19.972795 0.000000
50.000000 16.666425 0.000000
39.298435 23.262033 0.000000
34.043688 26.514659 0.000000
28.965631 28.539445 0.000000
26.202250 33.410100 0.000000
23.066585 38.968848 0.000000
19.888376 44.507084 0.000000
16.666401 50.000000 0.000000
44.639756 26.642747 0.000000
50.000000 23.333075 0.000000
39.293280 29.966582 0.000000
33.212265 33.371193 0.000000
29.411967 39.045806 0.000000
26.422207 44.505953 0.000000
23.333045 50.000000 0.000000
44.774893 33.291671 0.000000
50.000000 29.999770 0.000000
39.738099 36.596219 0.000000
34.830925 39.525512 0.000000
32.833679 44.514201 0.000000
29.999742 50.000000 0.000000
44.978155 39.877759 0.000000
50.000000 36.666500 0.000000
39.734716 43.968925 0.000000
36.666478 50.000000 0.000000
45.621190 45.409691 0.000000
50.000000 43.333245 0.000000
43.333221 50.000000 0.000000
50.000000 50.000000 0.000000
CELLS 578 2312
3 1 0 2
3 0 3 2
3 4 1 6
3 6 1 2
3 3 5 7
3 3 7 2
3 6 2 7
3 9 4 10
3 10 4 6
3 5 8 11
3 7 5 11
3 10 6 12
3 12 6 7
3 7 11 13
3 7 13 12
3 8 14 15
3 11 8 15
3 16 9 17
3 17 9 10
3 17 10 18
3 18 10 12
3 11 15 19
3 13 11 19
3 18 12 20
3 13 19 20
3 20 12 13
3 14 22 24
3 15 14 24
3 15 24 25
3 19 15 25
3 21 16 26
3 26 16 17
3 26 17 27
3 27 17 18
3 27 18 28
3 28 18 20
3 19 25 29
3 19 29 20
3 28 20 30
3 30 20 29
3 31 21 32
3 32 21 26
3 22 23 36
3 24 22 36
3 23 34 37
3 36 23 37
3 24 36 38
3 25 24 38
3 25 38 39
3 29 25 39
3 32 26 40
3 40 26 27
3 40 27 41
3 41 27 28
3 41 28 42
3 42 28 30
3 29 39 43
3 29 43 30
3 42 30 43
3 33 31 44
3 44 31 32
3 44 32 45
3 45 32 40
3 46 33 47
3 47 33 44
3 34 35 50
3 37 34 50
3 35 48 51
3 50 35 51
3 36 37 52
3 38 36 52
3 37 50 53
3 52 37 53
3 38 52 54
3 39 38 54
3 39 54 55
3 43 39 55
3 45 40 56
3 56 40 41
3 56 41 57
3 57 41 42
3 57 42 58
3 58 42 43
3 43 55 59
3 43 59 58
3 47 44 60
3 60 44 45
3 60 45 61
3 61 45 56
3 62 46 63
3 63 46 47
3 63 47 64
3 64 47 60
3 48 49 68
3 51 48 68
3 49 66 69
3 68 49 69
3 50 51 70
3 53 50 70
3 51 68 71
3 70 51 71
3 52 53 72
3 54 52 72
3 53 70 73
3 72 53 73
3 54 72 74
3 55 54 74
3 55 74 75
3 59 55 75
3 61 56 76
3 76 56 57
3 76 57 77
3 77 57 58
3 77 58 78
3 59 75 78
3 78 58 59
3 64 60 79
3 79 60 61
3 79 61 80
3 80 61 76
3 65 62 81
3 81 62 63
3 81 63 82
3 82 63 64
3 82 64 83
3 83 64 79
3 84 65 85
3 85 65 81
3 66 67 89
3 69 66 89
3 67 87 90
3 89 67 90
3 68 69 91
3 71 68 91
3 69 89 92
3 91 69 92
3 70 71 93
3 73 70 93
3 71 91 94
3 93 71 94
3 72 73 95
3 74 72 95
3 73 93 96
3 95 73 96
3 74 95 97
3 75 74 97
3 75 97 98
3 78 75 98
3 80 76 99
3 99 76 77
3 99 77 100
3 100 77 78
3 100 78 101
3 98 101 78
3 83 79 102
3 102 79 80
3 102 80 103
3 103 80 99
3 85 81 104
3 104 81 82
3 105 83 102
3 104 82 106
3 106 82 83
3 106 83 105
3 86 84 107
3 107 84 85
3 107 85 108
3 108 85 104
3 109 86 107
3 110 86 109
3 87 88 112
3 90 87 112
3 112 88 113
3 88 114 113
3 90 112 115
3 89 90 116
3 92 89 116
3 116 90 115
3 91 92 117
3 94 91 117
3 92 116 118
3 117 92 118
3 93 94 119
3 96 93 119
3 94 117 120
3 119 94 120
3 95 96 121
3 97 95 121
3 96 119 122
3 121 96 122
3 97 121 123
3 98 97 123
3 98 123 124
3 98 124 101
3 103 99 125
3 125 99 100
3 125 100 126
3 126 100 101
3 126 101 124
3 105 102 127
3 127 102 103
3 127 103 128
3 128 103 125
3 129 105 127
3 108 104 130
3 130 104 106
3 130 106 131
3 131 106 105
3 131 105 129
3 108 130 132
3 109 107 133
3 133 107 108
3 133 108 134
3 108 132 134
3 135 109 133
3 111 110 136
3 136 110 109
3 136 109 135
3 137 111 136
3 138 111 137
3 112 113 139
3 115 112 139
3 114 140 113
3 140 139 113
3 139 141 115
3 116 115 142
3 118 116 142
3 142 115 141
3 117 118 143
3 120 117 143
3 118 142 144
3 143 118 144
3 119 120 145
3 122 119 145
3 120 143 146
3 145 120 146
3 121 122 147
3 123 121 147
3 122 145 148
3 147 122 148
3 123 147 149
3 124 123 149
3 124 149 150
3 151 126 124
3 124 150 151
3 128 125 152
3 152 125 126
3 152 126 151
3 129 127 153
3 153 127 128
3 128 152 154
3 153 128 154
3 155 129 153
3 131 129 156
3 156 129 155
3 132 130 157
3 130 131 157
3 157 131 158
3 131 156 158
3 132 157 159
3 132 159 134
3 135 133 160
3 160 133 134
3 160 134 159
3 136 135 161
3 135 160 161
3 162 137 136
3 161 162 136
3 163 138 137
3 162 163 137
3 139 164 141
3 140 165 139
3 139 165 164
3 141 164 166
3 141 166 142
3 166 167 142
3 144 142 167
3 167 168 144
3 143 144 168
3 146 143 168
3 168 169 146
3 145 146 170
3 148 145 170
3 170 146 169
3 147 148 171
3 149 147 171
3 148 170 172
3 171 148 172
3 173 151 150
3 149 171 174
3 150 149 174
3 150 174 175
3 150 175 173
3 154 152 176
3 152 151 176
3 176 151 173
3 154 176 177
3 155 153 178
3 177 178 154
3 154 178 153
3 156 155 179
3 155 178 179
3 180 158 156
3 179 180 156
3 181 159 157
3 180 181 158
3 181 157 158
3 182 160 159
3 181 182 159
3 183 161 160
3 182 183 160
3 184 162 161
3 184 161 183
3 185 163 162
3 184 185 162
3 164 186 166
3 165 187 164
3 164 187 186
3 166 186 188
3 166 188 167
3 167 188 189
3 167 189 168
3 168 189 190
3 168 190 169
3 169 190 191
3 169 191 170
3 192 172 170
3 170 191 192
3 192 193 172
3 171 172 193
3 174 171 193
3 194 173 175
3 176 173 194
3 175 174 195
3 193 195 174
3 195 196 175
3 175 196 194
3 197 177 176
3 194 197 176
3 198 178 177
3 197 198 177
3 199 179 178
3 198 199 178
3 200 180 179
3 199 200 179
3 201 181 180
3 200 201 180
3 202 182 181
3 201 202 181
3 203 183 182
3 202 203 182
3 204 184 183
3 203 204 183
3 205 185 184
3 204 205 184
3 186 206 188
3 187 207 186
3 186 207 206
3 188 206 208
3 188 208 189
3 189 208 209
3 189 209 190
3 190 209 210
3 190 210 191
3 191 210 211
3 191 211 192
3 192 211 212
3 192 212 193
3 193 212 213
3 193 213 195
3 214 197 194
3 214 194 196
3 195 213 215
3 195 215 196
3 196 215 214
3 216 198 197
3 214 216 197
3 217 199 198
3 216 217 198
3 218 200 199
3 217 218 199
3 219 201 200
3 218 219 200
3 220 202 201
3 219 220 201
3 221 203 202
3 220 221 202
3 222 204 203
3 221 222 203
3 223 205 204
3 222 223 204
3 206 224 208
3 207 225 206
3 206 225 224
3 208 224 226
3 208 226 209
3 209 226 227
3 209 227 210
3 210 227 228
3 210 228 211
3 211 228 229
3 211 229 212
3 212 229 230
3 212 230 213
3 213 230 231
3 213 231 215
3 232 216 214
3 215 231 232
3 232 214 215
3 233 217 216
3 232 233 216
3 234 218 217
3 233 234 217
3 235 219 218
3 234 235 218
3 236 220 219
3 235 236 219
3 237 221 220
3 236 237 220
3 238 222 221
3 237 238 221
3 239 223 222
3 238 239 222
3 224 240 226
3 225 241 224
3 224 241 240
3 226 240 242
3 226 242 227
3 227 242 243
3 227 243 228
3 228 243 244
3 228 244 229
3 244 245 229
3 229 245 230
3 230 245 246
3 230 246 231
3 231 246 247
3 231 247 232
3 248 233 232
3 248 232 247
3 249 234 233
3 248 249 233
3 250 235 234
3 249 250 234
3 251 236 235
3 250 251 235
3 252 237 236
3 251 252 236
3 253 238 237
3 252 253 237
3 254 239 238
3 253 254 238
3 240 255 242
3 241 256 240
3 240 256 255
3 242 255 257
3 242 257 243
3 243 257 258
3 243 258 244
3 244 258 259
3 244 259 245
3 245 259 260
3 245 260 246
3 246 260 261
3 246 261 247
3 248 247 261
3 262 249 248
3 261 262 248
3 263 250 249
3 262 263 249
3 264 251 250
3 263 264 250
3 265 252 251
3 264 265 251
3 266 253 252
3 265 266 252
3 267 254 253
3 266 267 253
3 255 268 257
3 256 269 255
3 255 269 268
3 257 268 270
3 257 270 258
3 258 270 271
3 258 271 259
3 259 271 272
3 259 272 260
3 260 272 273
3 260 273 261
3 274 262 261
3 261 273 274
3 275 263 262
3 274 275 262
3 276 264 263
3 275 276 263
3 277 265 264
3 276 277 264
3 278 266 265
3 277 278 265
3 279 267 266
3 278 279 266
3 268 280 270
3 269 281 268
3 268 281 280
3 270 280 282
3 270 282 271
3 271 282 283
3 271 283 272
3 283 284 272
3 272 284 273
3 285 275 274
3 273 284 285
3 285 274 273
3 286 276 275
3 285 286 275
3 287 277 276
3 286 287 276
3 288 278 277
3 287 288 277
3 289 279 278
3 288 289 278
3 280 290 282
3 281 291 280
3 280 291 290
3 282 290 292
3 282 292 283
3 283 292 293
3 283 293 284
3 284 293 294
3 284 294 285
3 295 286 285
3 295 285 294
3 296 287 286
3 295 296 286
3 297 288 287
3 296 297 287
3 298 289 288
3 297 298 288
3 290 299 292
3 291 300 290
3 290 300 299
3 292 299 301
3 292 301 293
3 293 301 302
3 293 302 294
3 294 302 295
3 303 296 295
3 303 295 302
3 304 297 296
3 303 304 296
3 305 298 297
3 304 305 297
3 299 306 301
3 300 307 299
3 299 307 306
3 301 306 308
3 301 308 302
3 309 303 302
3 302 308 309
3 310 304 303
3 309 310 303
3 311 305 304
3 310 311 304
3 306 312 308
3 307 313 306
3 306 313 312
3 314 310 309
3 308 312 314
3 314 309 308
3 315 311 310
3 314 315 310
3 312 316 314
3 313 317 312
3 312 317 316
3 318 315 314
3 318 314 316
3 317 319 316
3 319 318 316
CELL_TYPES 578
5
5
5
5
5
5
5
5
5
5
5
5
5
5
5
5
5
5
5
5
5
5
5
5
5
5
5
5
5
5
5
5
5
5
5
5
5
5
5
5
5
5
5
5
5
5
5
5
5
5
5
5
5
5
5
5
5
5
5
5
5
5
5
5
5
5
5
5
5
5
5
5
5
5
5
5
5
5
5
5
5
5
5
5
5
5
5
5
5
5
5
5
5
5
5
5
5
5
5
5
5
5
5
5
5
5
5
5
5
5
5
5
5
5
5
5
5
5
5
5
5
5
5
5
5
5
5
5
5
5
5
5
5
5
5
5
5
5
5
5
5
5
5
5
5
5
5
5
5
5
5
5
5
5
5
5
5
5
5
5
5
5
5
5
5
5
5
5
5
5
5
5
5
5
5
5
5
5
5
5
5
5
5
5
5
5
5
5
5
5
5
5
5
5
5
5
5
5
5
5
5
5
5
5
5
5
5
5
5
5
5
5
5
5
5
5
5
5
5
5
5
5
5
5
5
5
5
5
5
5
5
5
5
5
5
5
5
5
5
5
5
5
5
5
5
5
5
5
5
5
5
5
5
5
5
5
5
5
5
5
5
5
5
5
5
5
5
5
5
5
5
5
5
5
5
5
5
5
5
5
5
5
5
5
5
5
5
5
5
5
5
5
5
5
5
5
5
5
5
5
5
5
5
5
5
5
5
5
5
5
5
5
5
5
5
5
5
5
5
5
5
5
5
5
5
5
5
5
5
5
5
5
5
5
5
5
5
5
5
5
5
5
5
5
5
5
5
5
5
5
5
5
5
5
5
5
5
5
5
5
5
5
5
5
5
5
5
5
5
5
5
5
5
5
5
5
5
5
5
5
5
5
5
5
5
5
5
5
5
5
5
5
5
5
5
5
5
5
5
5
5
5
5
5
5
5
5
5
5
5
5
5
5
5
5
5
5
5
5
5
5
5
5
5
5
5
5
5
5
5
5
5
5
5
5
5
5
5
5
5
5
5
5
5
5
5
5
5
5
5
5
5
5
5
5
5
5
5
5
5
5
5
5
5
5
5
5
5
5
5
5
5
5
5
5
5
5
5
5
5
5
5
5
5
5
5
5
5
5
5
5
5
5
5
5
5
5
5
5
5
5
5
5
5
5
5
5
5
5
5
5
5
5
5
5
5
5
5
5
5
5
5
5
5
5
5
5
5
5
5
5
5
5
5
5
5
5
5
5
5
5
5
5
5
5
5
5
5
5
5
5
5
5
5
5
5
5
5
5
5
5
5
5
5
5
5
5
5
5
5
5
5
5
5
5
5
5
5
POINT_DATA 320
SCALARS theta_e float 1
LOOKUP_TABLE default
1.000001
1.000001
1.000001
1.000001
1.000001
1.000001
1.000001
1.000001
1.000001
1.000001
1.000001
1.000001
1.000001
1.000001
1.000001
1.000001
1.000001
1.000001
1.000001
1.000001
1.000001
1.000001
1.000001
1.000001
1.000001
1.000001
1.000001
1.000001
1.000001
1.000001
1.000001
1.000001
1.000001
1.000001
1.000001
1.000001
1.000001
1.000001
1.000001
1.000001
1.000001
1.000001
1.000001
1.000001
1.000001
1.000001
1.000001
1.000001
1.000001
1.000001
1.000001
1.000001
1.000001
1.000001
1.000001
1.000001
1.000001
1.000001
1.000001
1.000001
1.000001
1.000001
1.000001
1.000001
1.000001
1.000001
1.000001
1.000001
1.000001
1.000001
1.000001
1.000001
1.000001
1.000001
1.000001
1.000001
1.000001
1.000001
1.000001
1.000001
1.000001
1.000001
1.000001
1.000001
1.000001
1.000001
1.000001
1.000001
1.000001
1.000001
1.000001
1.000001
1.000001
1.000001
1.000001
1.000001
1.000001
1.000001
1.000001
1.000000
1.000000
1.000000
1.000001
1.000000
1.000001
1.000001
1.000001
1.000001
1.000001
1.000001
1.000001
1.000001
1.000001
1.000001
1.000001
1.000001
1.000001
1.000001
1.000001
1.000001
1.000001
1.000000
1.000001
1.000001
0.999997
1.000000
0.999999
1.000000
1.000000
1.000000
1.000001
1.000001
1.000001
1.000001
1.000001
1.000001
1.000001
1.000001
1.000001
1.000001
1.000001
1.000001
1.000001
1.000001
1.000001
1.000001
1.000001
1.000000
1.000001
0.999996
0.999984
0.999989
0.999996
1.000000
0.999998
1.000001
1.000001
1.000001
1.000001
1.000001
1.000001
1.000001
1.000001
1.000001
1.000001
1.000001
1.000001
1.000001
1.000001
1.000001
1.000001
0.999999
1.000001
0.999977
0.999988
0.999977
0.999986
0.999995
1.000001
1.000001
1.000001
1.000001
1.000001
1.000001
1.000001
1.000001
1.000001
1.000001
1.000001
1.000001
1.000001
1.000001
1.000001
0.999997
0.999977
0.999984
0.999976
0.999986
0.999999
1.000001
1.000001
1.000001
1.000001
1.000001
1.000001
1.000001
1.000001
1.000001
1.000001
1.000001
1.000001
1.000001
1.000001
0.999997
0.999983
0.999988
0.999996
1.000001
1.000001
1.000001
1.000001
1.000001
1.000001
1.000001
1.000001
1.000001
1.000001
1.000001
1.000001
1.000001
1.000001
1.000000
0.999997
1.000001
1.000001
1.000001
1.000001
1.000001
1.000001
1.000001
1.000001
1.000001
1.000001
1.000001
1.000001
1.000001
1.000001
1.000001
1.000001
1.000001
1.000001
1.000001
1.000001
1.000001
1.000001
1.000001
1.000001
1.000001
1.000001
1.000001
1.000001
1.000001
1.000001
1.000001
1.000001
1.000001
1.000001
1.000001
1.000001
1.000001
1.000001
1.000001
1.000001
1.000001
1.000001
1.000001
1.000001
1.000001
1.000001
1.000001
1.000001
1.000001
1.000001
1.000001
1.000001
1.000001
1.000001
1.000001
1.000001
1.000001
1.000001
1.000001
1.000001
1.000001
1.000001
1.000001
1.000001
1.000001
1.000001
1.000001
1.000001
1.000001
1.000001
1.000001
1.000001
1.000001
1.000001
1.000001
1.000001
1.000001
1.000001
1.000001
1.000001
1.000001
1.000001
1.000001
1.000001
1.000001
1.000001
1.000001
VECTORS fa_u float
0.000000 0.000000 0.000000
0.000000 0.000000 0.000000
0.000000 0.000000 0.000000
0.000000 0.000000 0.000000
0.000000 0.000000 0.000000
0.000000 0.000000 0.000000
0.000000 0.000000 0.000000
0.000000 0.000000 0.000000
0.000000 0.000000 0.000000
0.000000 0.000000 0.000000
0.000000 0.000000 0.000000
0.000000 0.000000 0.000000
0.000000 0.000000 0.000000
0.000000 0.000000 0.000000
0.000000 0.000000 0.000000
0.000000 0.000000 0.000000
0.000000 0.000000 0.000000
0.000000 0.000000 0.000000
0.000000 0.000000 0.000000
0.000000 0.000000 0.000000
0.000000 0.000000 0.000000
0.000000 0.000000 0.000000
0.000000 0.000000 0.000000
0.000000 0.000000 0.000000
0.000000 0.000000 0.000000
0.000000 0.000000 0.000000
0.000000 0.000000 0.000000
0.000000 0.000000 0.000000
0.000000 0.000000 0.000000
0.000000 0.000000 0.000000
0.000000 0.000000 0.000000
0.000000 0.000000 0.000000
0.000000 0.000000 0.000000
0.000000 0.000000 0.000000
0.000000 0.000000 0.000000
0.000000 0.000000 0.000000
0.000000 0.000000 0.000000
0.000000 0.000000 0.000000
0.000000 0.000000 0.000000
0.000000 0.000000 0.000000
0.000000 0.000000 0.000000
0.000000 0.000000 0.000000
0.000000 0.000000 0.000000
0.000000 0.000000 0.000000
0.000000 0.000000 0.000000
0.000000 0.000000 0.000000
0.000000 0.000000 0.000000
0.000000 0.000000 0.000000
0.000000 0.000000 0.000000
0.000000 0.000000 0.000000
0.000000 0.000000 0.000000
0.000000 0.000000 0.000000
0.000000 0.000000 0.000000
0.000000 0.000000 0.000000
0.000000 0.000000 0.000000
0.000000 0.000000 0.000000
0.000000 0.000000 0.000000
0.000000 0.000000 0.000000
0.000000 0.000000 0.000000
0.000000 0.000000 0.000000
0.000000 0.000000 0.000000
0.000000 0.000000 0.000000
0.000000 0.000000 0.000000
0.000000 0.000000 0.000000
0.000000 0.000000 0.000000
0.000000 0.000000 0.000000
0.000000 0.000000 0.000000
0.000000 0.000000 0.000000
0.000000 0.000000 0.000000
0.000000 0.000000 0.000000
0.000000 0.000000 0.000000
0.000000 0.000000 0.000000
0.000000 0.000000 0.000000
0.000000 0.000000 0.000000
0.000000 0.000000 0.000000
0.000000 0.000000 0.000000
0.000000 0.000000 0.000000
0.000000 0.000000 0.000000
0.000000 0.000000 0.000000
0.000000 0.000000 0.000000
0.000000 0.000000 0.000000
0.000000 0.000000 0.000000
0.000000 0.000000 0.000000
0.000000 0.000000 0.000000
0.000000 0.000000 0.000000
0.000000 0.000000 0.000000
0.000000 0.000000 0.000000
0.000000 0.000000 0.000000
0.000000 0.000000 0.000000
0.000000 0.000000 0.000000
0.000000 0.000000 0.000000
0.000000 0.000000 0.000000
0.000000 0.000000 0.000000
0.000000 0.000000 0.000000
0.000000 0.000000 0.000000
0.000000 0.000000 0.000000
0.000000 0.000000 0.000000
0.000000 0.000000 0.000000
0.000000 0.000000 0.000000
0.000000 0.000000 0.000000
0.000000 0.000000 0.000000
0.000000 0.000000 0.000000
0.000000 0.000000 0.000000
0.000000 0.000000 0.000000
0.000000 0.000000 0.000000
0.000000 0.000000 0.000000
0.000000 0.000000 0.000000
0.000000 0.000000 0.000000
0.000000 0.000000 0.000000
0.000000 0.000000 0.000000
0.000000 0.000000 0.000000
0.000000 0.000000 0.000000
0.000000 0.000000 0.000000
0.000000 0.000000 0.000000
0.000000 0.000000 0.000000
0.000000 0.000000 0.000000
0.000000 0.000000 0.000000
0.000000 0.000000 0.000000
0.000000 0.000000 0.000000
0.000000 0.000000 0.000000
0.000000 0.000000 0.000000
0.000000 0.000000 0.000000
0.000000 0.000000 0.000000
0.000000 0.000000 0.000000
0.000000 0.000000 0.000000
0.000000 0.000000 0.000000
0.000000 0.000000 0.000000
0.000000 0.000000 0.000000
0.000000 0.000000 0.000000
0.000000 0.000000 0.000000
0.000000 0.000000 0.000000
0.000000 0.000000 0.000000
0.000000 0.000000 0.000000
0.000000 0.000000 0.000000
0.000000 0.000000 0.000000
0.000000 0.000000 0.000000
0.000000 0.000000 0.000000
0.000000 0.000000 0.000000
0.000000 0.000000 0.000000
0.000000 0.000000 0.000000
0.000000 0.000000 0.000000
0.000000 0.000000 0.000000
0.000000 0.000000 0.000000
0.000000 0.000000 0.000000
0.000000 0.000000 0.000000
0.000000 0.000000 0.000000
0.000000 0.000000 0.000000
0.000000 0.000000 0.000000
0.000000 0.000000 0.000000
0.000000 0.000000 0.000000
0.000000 0.000000 0.000000
0.000000 0.000000 0.000000
0.000000 0.000000 0.000000
0.000000 0.000000 0.000000
0.000000 0.000000 0.000000
0.000000 0.000000 0.000000
0.000000 0.000000 0.000000
0.000000 0.000000 0.000000
0.000000 0.000000 0.000000
0.000000 0.000000 0.000000
0.000000 0.000000 0.000000
0.000000 0.000000 0.000000
0.000000 0.000000 0.000000
0.000000 0.000000 0.000000
0.000000 0.000000 0.000000
0.000000 0.000000 0.000000
0.000000 0.000000 0.000000
0.000000 0.000000 0.000000
0.000000 0.000000 0.000000
0.000000 0.000000 0.000000
0.000000 0.000000 0.000000
0.000000 0.000000 0.000000
0.000000 0.000000 0.000000
0.000000 0.000000 0.000000
0.000000 0.000000 0.000000
0.000000 0.000000 0.000000
0.000000 0.000000 0.000000
0.000000 0.000000 0.000000
0.000000 0.000000 0.000000
0.000000 0.000000 0.000000
0.000000 0.000000 0.000000
0.000000 0.000000 0.000000
0.000000 0.000000 0.000000
0.000000 0.000000 0.000000
0.000000 0.000000 0.000000
0.000000 0.000000 0.000000
0.000000 0.000000 0.000000
0.000000 0.000000 0.000000
0.000000 0.000000 0.000000
0.000000 0.000000 0.000000
0.000000 0.000000 0.000000
0.000000 0.000000 0.000000
0.000000 0.000000 0.000000
0.000000 0.000000 0.000000
0.000000 0.000000 0.000000
0.000000 0.000000 0.000000
0.000000 0.000000 0.000000
0.000000 0.000000 0.000000
0.000000 0.000000 0.000000
0.000000 0.000000 0.000000
0.000000 0.000000 0.000000
0.000000 0.000000 0.000000
0.000000 0.000000 0.000000
0.000000 0.000000 0.000000
0.000000 0.000000 0.000000
0.000000 0.000000 0.000000
0.000000 0.000000 0.000000
0.000000 0.000000 0.000000
0.000000 0.000000 0.000000
0.000000 0.000000 0.000000
0.000000 0.000000 0.000000
0.000000 0.000000 0.000000
0.000000 0.000000 0.000000
0.000000 0.000000 0.000000
0.000000 0.000000 0.000000
0.000000 0.000000 0.000000
0.000000 0.000000 0.000000
0.000000 0.000000 0.000000
0.000000 0.000000 0.000000
0.000000 0.000000 0.000000
0.000000 0.000000 0.000000
0.000000 0.000000 0.000000
0.000000 0.000000 0.000000
0.000000 0.000000 0.000000
0.000000 0.000000 0.000000
0.000000 0.000000 0.000000
0.000000 0.000000 0.000000
0.000000 0.000000 0.000000
0.000000 0.000000 0.000000
0.000000 0.000000 0.000000
0.000000 0.000000 0.000000
0.000000 0.000000 0.000000
0.000000 0.000000 0.000000
0.000000 0.000000 0.000000
0.000000 0.000000 0.000000
0.000000 0.000000 0.000000
0.000000 0.000000 0.000000
0.000000 0.000000 0.000000
0.000000 0.000000 0.000000
0.000000 0.000000 0.000000
0.000000 0.000000 0.000000
0.000000 0.000000 0.000000
0.000000 0.000000 0.000000
0.000000 0.000000 0.000000
0.000000 0.000000 0.000000
0.000000 0.000000 0.000000
0.000000 0.000000 0.000000
0.000000 0.000000 0.000000
0.000000 0.000000 0.000000
0.000000 0.000000 0.000000
0.000000 0.000000 0.000000
0.000000 0.000000 0.000000
0.000000 0.000000 0.000000
0.000000 0.000000 0.000000
0.000000 0.000000 0.000000
0.000000 0.000000 0.000000
0.000000 0.000000 0.000000
0.000000 0.000000 0.000000
0.000000 0.000000 0.000000
0.000000 0.000000 0.000000
0.000000 0.000000 0.000000
0.000000 0.000000 0.000000
0.000000 0.000000 0.000000
0.000000 0.000000 0.000000
0.000000 0.000000 0.000000
0.000000 0.000000 0.000000
0.000000 0.000000 0.000000
0.000000 0.000000 0.000000
0.000000 0.000000 0.000000
0.000000 0.000000 0.000000
0.000000 0.000000 0.000000
0.000000 0.000000 0.000000
0.000000 0.000000 0.000000
0.000000 0.000000 0.000000
0.000000 0.000000 0.000000
0.000000 0.000000 0.000000
0.000000 0.000000 0.000000
0.000000 0.000000 0.000000
0.000000 0.000000 0.000000
0.000000 0.000000 0.000000
0.000000 0.000000 0.000000
0.000000 0.000000 0.000000
0.000000 0.000000 0.000000
0.000000 0.000000 0.000000
0.000000 0.000000 0.000000
0.000000 0.000000 0.000000
0.000000 0.000000 0.000000
0.000000 0.000000 0.000000
0.000000 0.000000 0.000000
0.000000 0.000000 0.000000
0.000000 0.000000 0.000000
0.000000 0.000000 0.000000
0.000000 0.000000 0.000000
0.000000 0.000000 0.000000
0.000000 0.000000 0.000000
0.000000 0.000000 0.000000
0.000000 0.000000 -50.000000
-50.000000 0.000000 -50.000000
-43.333255 0.000000 -45.688291
-45.491061 0.000000 -43.333248
-50.000000 0.000000 -50.000000
-36.666507 0.000000 -36.666518
-50.000000 0.000000 -45.081017
-39.969721 0.000000 -40.027043
-44.152182 0.000000 -29.999782
-50.000000 0.000000 -50.000000
-29.999765 0.000000 -44.846986
-33.448856 0.000000 -33.144810
-44.675583 0.000000 -39.869002
-36.786917 0.000000 -35.128511
-39.801177 0.000000 -23.333075
-50.000000 0.000000 -26.539048
-44.666691 0.000000 -50.000000
-23.333057 0.000000 -44.665231
-26.803843 0.000000 -39.364148
-30.225595 0.000000 -29.606113
-39.359258 0.000000 -33.368065
-33.655322 0.000000 -50.000000
-16.666397 0.000000 -16.666423
-50.000000 0.000000 -9.999826
