# vtk DataFile Version 2.0
CellBP Time: 4.52
ASCII
DATASET UNSTRUCTURED_GRID
POINTS 320 double
-50.000000 -50.000000 0.000000
-50.000000 -43.332568 0.000000
-45.688533 -45.491267 0.000000
-43.332457 -50.000000 0.000000
-50.000000 -36.665088 0.000000
-36.665132 -50.000000 0.000000
-45.081277 -39.969869 0.000000
-40.027418 -44.152399 0.000000
-29.997747 -50.000000 0.000000
-50.000000 -29.997680 0.000000
-44.847243 -33.448984 0.000000
-33.145097 -44.675820 0.000000
-39.869323 -36.787080 0.000000
-35.128892 -39.801468 0.000000
-23.330665 -50.000000 0.000000
-26.539351 -44.666806 0.000000
-50.000000 -23.330615 0.000000
-44.665339 -26.804019 0.000000
-39.364386 -30.225776 0.000000
-29.606540 -39.359492 0.000000
-33.368507 -33.655596 0.000000
-50.000000 -16.664050 0.000000
-16.664153 -50.000000 0.000000
-9.998221 -50.000000 0.000000
-19.965119 -44.588734 0.000000
-23.216086 -39.114733 0.000000
-44.691846 -20.097005 0.000000
-39.367910 -23.528173 0.000000
-34.106300 -26.937083 0.000000
-26.384674 -33.577445 0.000000
-29.156464 -28.926780 0.000000
-50.000000 -9.997924 0.000000
-44.666323 -13.410262 0.000000
-50.000000 -3.332353 0.000000
-3.332765 -50.000000 0.000000
3.332570 -50.000000 0.000000
-13.343895 -44.598939 0.000000
-6.684865 -44.610567 0.000000
-16.693880 -39.153175 0.000000
-20.107108 -33.342645 0.000000
-39.338135 -16.804659 0.000000
-34.018909 -20.274557 0.000000
-28.781244 -23.449175 0.000000
-23.510709 -27.350749 0.000000
-44.635351 -6.705517 0.000000
-39.293105 -10.101731 0.000000
-50.000000 3.332929 0.000000
-44.626607 -0.015456 0.000000
9.998141 -50.000000 0.000000
16.664174 -50.000000 0.000000
-0.016146 -44.618654 0.000000
6.651734 -44.635380 0.000000
-10.044860 -39.222543 0.000000
-3.368265 -39.220268 0.000000
-13.484306 -33.798536 0.000000
-16.709111 -28.271567 0.000000
-33.947981 -13.513659 0.000000
-28.602414 -16.892128 0.000000
-23.292370 -20.313225 0.000000
-18.660811 -23.284053 0.000000
-39.267405 -3.392657 0.000000
-33.904508 -6.796712 0.000000
-50.000000 9.998315 0.000000
-44.606607 6.673674 0.000000
-39.260739 3.325787 0.000000
-50.000000 16.664210 0.000000
23.330680 -50.000000 0.000000
29.997667 -50.000000 0.000000
13.317670 -44.662940 0.000000
19.989814 -44.700098 0.000000
3.307656 -39.245112 0.000000
9.971864 -39.290349 0.000000
-6.735550 -33.791347 0.000000
-0.032186 -33.829482 0.000000
-10.095972 -28.292675 0.000000
-13.122699 -22.896679 0.000000
-28.531796 -10.214351 0.000000
-23.067539 -13.663623 0.000000
-16.978677 -17.211706 0.000000
-33.884355 -0.065451 0.000000
-28.562882 -3.579775 0.000000
-44.564015 13.380809 0.000000
-39.189936 10.015190 0.000000
-33.905550 6.616082 0.000000
-50.000000 23.330549 0.000000
-44.557436 20.138456 0.000000
-50.000000 29.997756 0.000000
36.665010 -50.000000 0.000000
43.332472 -50.000000 0.000000
26.663418 -44.745359 0.000000
33.315421 -44.876083 0.000000
16.631719 -39.357678 0.000000
23.328359 -39.437148 0.000000
6.642937 -33.879559 0.000000
13.290577 -33.965433 0.000000
-3.346150 -28.363505 0.000000
3.358018 -28.451203 0.000000
-6.626163 -22.845194 0.000000
-9.964346 -17.315262 0.000000
-23.181653 -7.014300 0.000000
-17.813129 -10.334841 0.000000
-12.837986 -12.603937 0.000000
-28.607369 3.088681 0.000000
-23.266191 -0.469410 0.000000
-39.038591 16.746404 0.000000
-28.720386 9.925978 0.000000
-33.761005 13.318126 0.000000
-44.521705 26.717203 0.000000
-38.467770 23.892696 0.000000
-44.632600 33.085857 0.000000
-50.000000 36.665415 0.000000
-50.000000 43.332674 0.000000
39.922488 -45.069708 0.000000
45.474842 -45.660586 0.000000
50.000000 -50.000000 0.000000
36.626878 -39.982056 0.000000
30.012488 -39.458692 0.000000
19.904205 -34.092916 0.000000
26.585098 -34.319591 0.000000
9.988557 -28.512901 0.000000
16.610648 -28.660295 0.000000
0.050899 -22.962158 0.000000
6.812128 -23.155946 0.000000
-3.398496 -17.296943 0.000000
-6.820883 -10.927214 0.000000
-17.874948 -3.817328 0.000000
-12.549944 -7.034203 0.000000
-23.308758 6.070594 0.000000
-18.034777 2.442912 0.000000
-23.123245 12.096129 0.000000
-33.572135 19.788953 0.000000
-27.941623 16.886118 0.000000
-33.293142 24.722947 0.000000
-39.473903 30.053179 0.000000
-35.160722 28.137745 0.000000
-39.816332 35.101682 0.000000
-43.991866 39.982544 0.000000
-45.431116 45.685375 0.000000
-50.000000 50.000000 0.000000
44.117376 -39.899194 0.000000
50.000000 -43.332191 0.000000
39.639562 -35.047540 0.000000
33.462978 -33.424649 0.000000
22.984961 -28.818122 0.000000
28.731047 -29.247903 0.000000
13.460778 -23.121790 0.000000
20.054908 -23.439538 0.000000
3.372024 -17.589582 0.000000
10.123999 -17.842350 0.000000
0.159945 -11.856795 0.000000
-2.134457 -6.192838 0.000000
-7.236419 -3.608193 0.000000
-12.498510 -0.806886 0.000000
-18.170473 8.573214 0.000000
-12.943944 5.196532 0.000000
-18.638240 13.751300 0.000000
-21.503947 17.494340 0.000000
-28.940989 23.159055 0.000000
-24.346384 21.554374 0.000000
-30.323867 28.635096 0.000000
-34.253728 33.375652 0.000000
-36.956074 39.578148 0.000000
-39.838738 45.102898 0.000000
-43.332437 50.000000 0.000000
44.585355 -32.972207 0.000000
50.000000 -36.664728 0.000000
39.129362 -29.581987 0.000000
33.500683 -26.367744 0.000000
27.183120 -23.322117 0.000000
23.066901 -18.647922 0.000000
16.991608 -16.981616 0.000000
6.702058 -12.198374 0.000000
12.367032 -12.735949 0.000000
-3.371221 -1.487416 0.000000
3.837792 -6.853218 0.000000
1.023204 -2.120877 0.000000
-6.906281 2.286262 0.000000
-8.304288 7.711596 0.000000
-12.842857 11.929327 0.000000
-15.691166 17.699321 0.000000
-19.287392 22.981762 0.000000
-24.170988 27.354527 0.000000
-27.286386 33.625876 0.000000
-30.406751 39.161092 0.000000
-33.447912 44.738878 0.000000
-36.664928 50.000000 0.000000
44.547747 -26.500062 0.000000
50.000000 -29.997316 0.000000
39.040015 -23.179331 0.000000
33.449604 -19.899991 0.000000
28.039775 -16.573630 0.000000
22.680738 -13.123823 0.000000
17.175937 -9.902789 0.000000
10.828980 -6.598867 0.000000
-1.357119 2.316583 0.000000
6.161944 -1.719695 0.000000
2.894028 1.595179 0.000000
-3.479982 7.048102 0.000000
-6.313165 12.432414 0.000000
-9.629347 17.708861 0.000000
-13.167681 23.113948 0.000000
-17.316816 28.185095 0.000000
-20.570928 33.474253 0.000000
-23.666064 39.063932 0.000000
-26.831135 44.585351 0.000000
-29.997727 50.000000 0.000000
44.528659 -19.930832 0.000000
50.000000 -23.330291 0.000000
39.036205 -16.594180 0.000000
33.575947 -13.281250 0.000000
28.149573 -9.965057 0.000000
22.724989 -6.604743 0.000000
17.264681 -3.335683 0.000000
11.865526 0.209480 0.000000
1.915187 6.229629 0.000000
6.876258 3.750440 0.000000
-0.222292 11.831604 0.000000
-3.254276 17.530946 0.000000
-6.699519 22.976863 0.000000
-10.567336 28.267296 0.000000
-13.724185 33.661097 0.000000
-16.945846 39.080205 0.000000
-20.140851 44.548377 0.000000
-23.330834 50.000000 0.000000
44.536188 -13.303957 0.000000
50.000000 -16.663835 0.000000
39.079811 -9.966832 0.000000
33.646613 -6.641312 0.000000
28.236481 -3.307938 0.000000
22.848843 0.017556 0.000000
17.537078 3.347212 0.000000
12.190645 6.586522 0.000000
6.677812 10.743873 0.000000
3.302006 17.198539 0.000000
-0.080877 22.853669 0.000000
-3.518924 28.312971 0.000000
-6.831607 33.774550 0.000000
-10.137652 39.170515 0.000000
-13.436041 44.563483 0.000000
-16.664421 50.000000 0.000000
44.554199 -6.654914 0.000000
50.000000 -9.998005 0.000000
39.123246 -3.321431 0.000000
33.713334 0.008774 0.000000
28.333283 3.344755 0.000000
23.000136 6.693850 0.000000
17.833907 10.019978 0.000000
12.657628 12.238919 0.000000
9.786104 17.233470 0.000000
6.479071 22.722409 0.000000
3.189182 28.270089 0.000000
-0.116013 33.734860 0.000000
-3.425297 39.168661 0.000000
-6.725665 44.581757 0.000000
-9.998446 50.000000 0.000000
44.575548 0.001817 0.000000
50.000000 -3.332664 0.000000
39.166872 3.331825 0.000000
33.779439 6.655604 0.000000
28.423963 9.994820 0.000000
23.046466 13.416256 0.000000
16.950179 17.023789 0.000000
12.901588 22.668205 0.000000
9.815228 28.231855 0.000000
6.604336 33.718784 0.000000
3.286537 39.164428 0.000000
-0.029943 44.584525 0.000000
-3.332818 50.000000 0.000000
44.586685 6.665590 0.000000
50.000000 3.332620 0.000000
39.198157 9.981987 0.000000
33.843477 13.276949 0.000000
28.542211 16.584467 0.000000
23.387421 20.084302 0.000000
18.531923 23.113081 0.000000
16.392792 28.298576 0.000000
13.329002 33.754757 0.000000
9.986658 39.181953 0.000000
6.666081 44.584279 0.000000
3.332695 50.000000 0.000000
44.608891 13.318142 0.000000
50.000000 9.998213 0.000000
39.251378 16.612538 0.000000
33.931984 19.862887 0.000000
28.612478 22.925999 0.000000
23.279665 27.207716 0.000000
19.901382 33.302940 0.000000
16.573982 39.040873 0.000000
13.268568 44.526680 0.000000
9.998275 50.000000 0.000000
44.632071 19.973229 0.000000
50.000000 16.664280 0.000000
39.298533 23.262275 0.000000
34.043897 26.514829 0.000000
28.965899 28.539490 0.000000
26.202508 33.410166 0.000000
23.066868 38.968811 0.000000
19.888822 44.507035 0.000000
16.664179 50.000000 0.000000
44.639861 26.643147 0.000000
50.000000 23.330796 0.000000
39.293457 29.966869 0.000000
33.212525 33.371390 0.000000
29.412310 39.045909 0.000000
26.422604 44.505996 0.000000
23.330627 50.000000 0.000000
44.775103 33.291969 0.000000
50.000000 29.997757 0.000000
39.738291 36.596432 0.000000
34.831212 39.525775 0.000000
32.834008 44.514413 0.000000
29.997576 50.000000 0.000000
44.978370 39.878004 0.000000
50.000000 36.665060 0.000000
39.735093 43.969176 0.000000
36.664900 50.000000 0.000000
45.621444 45.409963 0.000000
50.000000 43.332488 0.000000
43.332279 50.000000 0.000000
50.000000 50.000000 0.000000
CELLS 578 2312
3 1 0 2
3 0 3 2
3 4 1 6
3 6 1 2
3 3 5 7
3 3 7 2
3 6 2 7
3 9 4 10
3 10 4 6
3 5 8 11
3 7 5 11
3 10 6 12
3 12 6 7
3 7 11 13
3 7 13 12
3 8 14 15
3 11 8 15
3 16 9 17
3 17 9 10
3 17 10 18
3 18 10 12
3 11 15 19
3 13 11 19
3 18 12 20
3 13 19 20
3 20 12 13
3 14 22 24
3 15 14 24
3 15 24 25
3 19 15 25
3 21 16 26
3 26 16 17
3 26 17 27
3 27 17 18
3 27 18 28
3 28 18 20
3 19 25 29
3 19 29 20
3 28 20 30
3 30 20 29
3 31 21 32
3 32 21 26
3 22 23 36
3 24 22 36
3 23 34 37
3 36 23 37
3 24 36 38
3 25 24 38
3 25 38 39
3 29 25 39
3 32 26 40
3 40 26 27
3 40 27 41
3 41 27 28
3 41 28 42
3 42 28 30
3 29 39 43
3 29 43 30
3 42 30 43
3 33 31 44
3 44 31 32
3 44 32 45
3 45 32 40
3 46 33 47
3 47 33 44
3 34 35 50
3 37 34 50
3 35 48 51
3 50 35 51
3 36 37 52
3 38 36 52
3 37 50 53
3 52 37 53
3 38 52 54
3 39 38 54
3 39 54 55
3 43 39 55
3 45 40 56
3 56 40 41
3 56 41 57
3 57 41 42
3 57 42 58
3 58 42 43
3 43 55 59
3 43 59 58
3 47 44 60
3 60 44 45
3 60 45 61
3 61 45 56
3 62 46 63
3 63 46 47
3 63 47 64
3 64 47 60
3 48 49 68
3 51 48 68
3 49 66 69
3 68 49 69
3 50 51 70
3 53 50 70
3 51 68 71
3 70 51 71
3 52 53 72
3 54 52 72
3 53 70 73
3 72 53 73
3 54 72 74
3 55 54 74
3 55 74 75
3 59 55 75
3 61 56 76
3 76 56 57
3 76 57 77
3 77 57 58
3 77 58 78
3 59 75 78
3 78 58 59
3 64 60 79
3 79 60 61
3 79 61 80
3 80 61 76
3 65 62 81
3 81 62 63
3 81 63 82
3 82 63 64
3 82 64 83
3 83 64 79
3 84 65 85
3 85 65 81
3 66 67 89
3 69 66 89
3 67 87 90
3 89 67 90
3 68 69 91
3 71 68 91
3 69 89 92
3 91 69 92
3 70 71 93
3 73 70 93
3 71 91 94
3 93 71 94
3 72 73 95
3 74 72 95
3 73 93 96
3 95 73 96
3 74 95 97
3 75 74 97
3 75 97 98
3 78 75 98
3 80 76 99
3 99 76 77
3 99 77 100
3 100 77 78
3 100 78 101
3 98 101 78
3 83 79 102
3 102 79 80
3 102 80 103
3 103 80 99
3 85 81 104
3 104 81 82
3 105 83 102
3 104 82 106
3 106 82 83
3 106 83 105
3 86 84 107
3 107 84 85
3 107 85 108
3 108 85 104
3 109 86 107
3 110 86 109
3 87 88 112
3 90 87 112
3 112 88 113
3 88 114 113
3 90 112 115
3 89 90 116
3 92 89 116
3 116 90 115
3 91 92 117
3 94 91 117
3 92 116 118
3 117 92 118
3 93 94 119
3 96 93 119
3 94 117 120
3 119 94 120
3 95 96 121
3 97 95 121
3 96 119 122
3 121 96 122
3 97 121 123
3 98 97 123
3 98 123 124
3 98 124 101
3 103 99 125
3 125 99 100
3 125 100 126
3 126 100 101
3 126 101 124
3 105 102 127
3 127 102 103
3 127 103 128
3 128 103 125
3 129 105 127
3 108 104 130
3 130 104 106
3 130 106 131
3 131 106 105
3 131 105 129
3 108 130 132
3 109 107 133
3 133 107 108
3 133 108 134
3 108 132 134
3 135 109 133
3 111 110 136
3 136 110 109
3 136 109 135
3 137 111 136
3 138 111 137
3 112 113 139
3 115 112 139
3 114 140 113
3 140 139 113
3 139 141 115
3 116 115 142
3 118 116 142
3 142 115 141
3 117 118 143
3 120 117 143
3 118 142 144
3 143 118 144
3 119 120 145
3 122 119 145
3 120 143 146
3 145 120 146
3 121 122 147
3 123 121 147
3 122 145 148
3 147 122 148
3 123 147 149
3 124 123 149
3 124 149 150
3 151 126 124
3 124 150 151
3 128 125 152
3 152 125 126
3 152 126 151
3 129 127 153
3 153 127 128
3 128 152 154
3 153 128 154
3 155 129 153
3 131 129 156
3 156 129 155
3 132 130 157
3 130 131 157
3 157 131 158
3 131 156 158
3 132 157 159
3 132 159 134
3 135 133 160
3 160 133 134
3 160 134 159
3 136 135 161
3 135 160 161
3 162 137 136
3 161 162 136
3 163 138 137
3 162 163 137
3 139 164 141
3 140 165 139
3 139 165 164
3 141 164 166
3 141 166 142
3 166 167 142
3 144 142 167
3 167 168 144
3 143 144 168
3 146 143 168
3 168 169 146
3 145 146 170
3 148 145 170
3 170 146 169
3 147 148 171
3 149 147 171
3 148 170 172
3 171 148 172
3 173 151 150
3 149 171 174
3 150 149 174
3 150 174 175
3 150 175 173
3 154 152 176
3 152 151 176
3 176 151 173
3 154 176 177
3 155 153 178
3 177 178 154
3 154 178 153
3 156 155 179
3 155 178 179
3 180 158 156
3 179 180 156
3 181 159 157
3 180 181 158
3 181 157 158
3 182 160 159
3 181 182 159
3 183 161 160
3 182 183 160
3 184 162 161
3 184 161 183
3 185 163 162
3 184 185 162
3 164 186 166
3 165 187 164
3 164 187 186
3 166 186 188
3 166 188 167
3 167 188 189
3 167 189 168
3 168 189 190
3 168 190 169
3 169 190 191
3 169 191 170
3 192 172 170
3 170 191 192
3 192 193 172
3 171 172 193
3 174 171 193
3 194 173 175
3 176 173 194
3 175 174 195
3 193 195 174
3 195 196 175
3 175 196 194
3 197 177 176
3 194 197 176
3 198 178 177
3 197 198 177
3 199 179 178
3 198 199 178
3 200 180 179
3 199 200 179
3 201 181 180
3 200 201 180
3 202 182 181
3 201 202 181
3 203 183 182
3 202 203 182
3 204 184 183
3 203 204 183
3 205 185 184
3 204 205 184
3 186 206 188
3 187 207 186
3 186 207 206
3 188 206 208
3 188 208 189
3 189 208 209
3 189 209 190
3 190 209 210
3 190 210 191
3 191 210 211
3 191 211 192
3 192 211 212
3 192 212 193
3 193 212 213
3 193 213 195
3 214 197 194
3 214 194 196
3 195 213 215
3 195 215 196
3 196 215 214
3 216 198 197
3 214 216 197
3 217 199 198
3 216 217 198
3 218 200 199
3 217 218 199
3 219 201 200
3 218 219 200
3 220 202 201
3 219 220 201
3 221 203 202
3 220 221 202
3 222 204 203
3 221 222 203
3 223 205 204
3 222 223 204
3 206 224 208
3 207 225 206
3 206 225 224
3 208 224 226
3 208 226 209
3 209 226 227
3 209 227 210
3 210 227 228
3 210 228 211
3 211 228 229
3 211 229 212
3 212 229 230
3 212 230 213
3 213 230 231
3 213 231 215
3 232 216 214
3 215 231 232
3 232 214 215
3 233 217 216
3 232 233 216
3 234 218 217
3 233 234 217
3 235 219 218
3 234 235 218
3 236 220 219
3 235 236 219
3 237 221 220
3 236 237 220
3 238 222 221
3 237 238 221
3 239 223 222
3 238 239 222
3 224 240 226
3 225 241 224
3 224 241 240
3 226 240 242
3 226 242 227
3 227 242 243
3 227 243 228
3 228 243 244
3 228 244 229
3 244 245 229
3 229 245 230
3 230 245 246
3 230 246 231
3 231 246 247
3 231 247 232
3 248 233 232
3 248 232 247
3 249 234 233
3 248 249 233
3 250 235 234
3 249 250 234
3 251 236 235
3 250 251 235
3 252 237 236
3 251 252 236
3 253 238 237
3 252 253 237
3 254 239 238
3 253 254 238
3 240 255 242
3 241 256 240
3 240 256 255
3 242 255 257
3 242 257 243
3 243 257 258
3 243 258 244
3 244 258 259
3 244 259 245
3 245 259 260
3 245 260 246
3 246 260 261
3 246 261 247
3 248 247 261
3 262 249 248
3 261 262 248
3 263 250 249
3 262 263 249
3 264 251 250
3 263 264 250
3 265 252 251
3 264 265 251
3 266 253 252
3 265 266 252
3 267 254 253
3 266 267 253
3 255 268 257
3 256 269 255
3 255 269 268
3 257 268 270
3 257 270 258
3 258 270 271
3 258 271 259
3 259 271 272
3 259 272 260
3 260 272 273
3 260 273 261
3 274 262 261
3 261 273 274
3 275 263 262
3 274 275 262
3 276 264 263
3 275 276 263
3 277 265 264
3 276 277 264
3 278 266 265
3 277 278 265
3 279 267 266
3 278 279 266
3 268 280 270
3 269 281 268
3 268 281 280
3 270 280 282
3 270 282 271
3 271 282 283
3 271 283 272
3 283 284 272
3 272 284 273
3 285 275 274
3 273 284 285
3 285 274 273
3 286 276 275
3 285 286 275
3 287 277 276
3 286 287 276
3 288 278 277
3 287 288 277
3 289 279 278
3 288 289 278
3 280 290 282
3 281 291 280
3 280 291 290
3 282 290 292
3 282 292 283
3 283 292 293
3 283 293 284
3 284 293 294
3 284 294 285
3 295 286 285
3 295 285 294
3 296 287 286
3 295 296 286
3 297 288 287
3 296 297 287
3 298 289 288
3 297 298 288
3 290 299 292
3 291 300 290
3 290 300 299
3 292 299 301
3 292 301 293
3 293 301 302
3 293 302 294
3 294 302 295
3 303 296 295
3 303 295 302
3 304 297 296
3 303 304 296
3 305 298 297
3 304 305 297
3 299 306 301
3 300 307 299
3 299 307 306
3 301 306 308
3 301 308 302
3 309 303 302
3 302 308 309
3 310 304 303
3 309 310 303
3 311 305 304
3 310 311 304
3 306 312 308
3 307 313 306
3 306 313 312
3 314 310 309
3 308 312 314
3 314 309 308
3 315 311 310
3 314 315 310
3 312 316 314
3 313 317 312
3 312 317 316
3 318 315 314
3 318 314 316
3 317 319 316
3 319 318 316
CELL_TYPES 578
5
5
5
5
5
5
5
5
5
5
5
5
5
5
5
5
5
5
5
5
5
5
5
5
5
5
5
5
5
5
5
5
5
5
5
5
5
5
5
5
5
5
5
5
5
5
5
5
5
5
5
5
5
5
5
5
5
5
5
5
5
5
5
5
5
5
5
5
5
5
5
5
5
5
5
5
5
5
5
5
5
5
5
5
5
5
5
5
5
5
5
5
5
5
5
5
5
5
5
5
5
5
5
5
5
5
5
5
5
5
5
5
5
5
5
5
5
5
5
5
5
5
5
5
5
5
5
5
5
5
5
5
5
5
5
5
5
5
5
5
5
5
5
5
5
5
5
5
5
5
5
5
5
5
5
5
5
5
5
5
5
5
5
5
5
5
5
5
5
5
5
5
5
5
5
5
5
5
5
5
5
5
5
5
5
5
5
5
5
5
5
5
5
5
5
5
5
5
5
5
5
5
5
5
5
5
5
5
5
5
5
5
5
5
5
5
5
5
5
5
5
5
5
5
5
5
5
5
5
5
5
5
5
5
5
5
5
5
5
5
5
5
5
5
5
5
5
5
5
5
5
5
5
5
5
5
5
5
5
5
5
5
5
5
5
5
5
5
5
5
5
5
5
5
5
5
5
5
5
5
5
5
5
5
5
5
5
5
5
5
5
5
5
5
5
5
5
5
5
5
5
5
5
5
5
5
5
5
5
5
5
5
5
5
5
5
5
5
5
5
5
5
5
5
5
5
5
5
5
5
5
5
5
5
5
5
5
5
5
5
5
5
5
5
5
5
5
5
5
5
5
5
5
5
5
5
5
5
5
5
5
5
5
5
5
5
5
5
5
5
5
5
5
5
5
5
5
5
5
5
5
5
5
5
5
5
5
5
5
5
5
5
5
5
5
5
5
5
5
5
5
5
5
5
5
5
5
5
5
5
5
5
5
5
5
5
5
5
5
5
5
5
5
5
5
5
5
5
5
5
5
5
5
5
5
5
5
5
5
5
5
5
5
5
5
5
5
5
5
5
5
5
5
5
5
5
5
5
5
5
5
5
5
5
5
5
5
5
5
5
5
5
5
5
5
5
5
5
5
5
5
5
5
5
5
5
5
5
5
5
5
5
5
5
5
5
5
5
5
5
5
5
5
5
5
5
5
5
5
5
5
5
5
5
5
5
5
5
5
5
5
5
5
5
5
5
5
5
5
5
5
5
5
5
5
5
5
5
5
5
5
5
5
5
5
5
5
5
5
5
5
5
5
5
5
5
5
5
5
5
5
5
5
5
5
5
5
5
5
5
5
5
5
5
5
5
5
5
POINT_DATA 320
SCALARS theta_e float 1
LOOKUP_TABLE default
1.000001
1.000001
1.000001
1.000001
1.000001
1.000001
1.000001
1.000001
1.000001
1.000001
1.000001
1.000001
1.000001
1.000001
1.000001
1.000001
1.000001
1.000001
1.000001
1.000001
1.000001
1.000001
1.000001
1.000001
1.000001
1.000001
1.000001
1.000001
1.000001
1.000001
1.000001
1.000001
1.000001
1.000001
1.000001
1.000001
1.000001
1.000001
1.000001
1.000001
1.000001
1.000001
1.000001
1.000001
1.000001
1.000001
1.000001
1.000001
1.000001
1.000001
1.000001
1.000001
1.000001
1.000001
1.000001
1.000001
1.000001
1.000001
1.000001
1.000001
1.000001
1.000001
1.000001
1.000001
1.000001
1.000001
1.000001
1.000001
1.000001
1.000001
1.000001
1.000001
1.000001
1.000001
1.000001
1.000001
1.000001
1.000001
1.000001
1.000001
1.000001
1.000001
1.000001
1.000001
1.000001
1.000001
1.000001
1.000001
1.000001
1.000001
1.000001
1.000001
1.000001
1.000000
1.000001
1.000001
1.000001
1.000001
1.000001
1.000001
1.000000
1.000000
1.000001
1.000000
1.000001
1.000001
1.000001
1.000001
1.000001
1.000001
1.000001
1.000001
1.000001
1.000001
1.000001
1.000001
1.000001
1.000001
1.000001
1.000001
1.000001
1.000001
1.000001
1.000001
0.999997
1.000000
0.999999
1.000001
1.000000
1.000001
1.000001
1.000001
1.000001
1.000001
1.000001
1.000001
1.000001
1.000001
1.000001
1.000001
1.000001
1.000001
1.000001
1.000001
1.000001
1.000001
1.000001
1.000001
1.000001
0.999997
0.999985
0.999989
0.999997
1.000000
0.999998
1.000001
1.000001
1.000001
1.000001
1.000001
1.000001
1.000001
1.000001
1.000001
1.000001
1.000001
1.000001
1.000001
1.000001
1.000001
1.000001
1.000000
1.000001
0.999978
0.999989
0.999979
0.999986
0.999996
1.000001
1.000001
1.000001
1.000001
1.000001
1.000001
1.000001
1.000001
1.000001
1.000001
1.000001
1.000001
1.000001
1.000001
1.000001
0.999998
0.999979
0.999986
0.999979
0.999987
0.999999
1.000001
1.000001
1.000001
1.000001
1.000001
1.000001
1.000001
1.000001
1.000001
1.000001
1.000001
1.000001
1.000000
1.000001
0.999996
0.999985
0.999989
0.999996
1.000001
1.000001
1.000001
1.000001
1.000001
1.000001
1.000001
1.000001
1.000001
1.000001
1.000001
1.000000
1.000000
1.000000
0.999998
0.999996
1.000001
1.000001
1.000001
1.000001
1.000001
1.000001
1.000001
1.000001
1.000001
1.000001
1.000001
1.000000
1.000000
1.000000
1.000000
1.000000
1.000001
1.000001
1.000001
1.000001
1.000001
1.000001
1.000001
1.000001
1.000001
1.000001
1.000001
1.000000
1.000000
1.000001
1.000001
1.000001
1.000001
1.000001
1.000001
1.000001
1.000001
1.000001
1.000001
1.000001
1.000001
1.000001
1.000001
1.000001
1.000001
1.000001
1.000001
1.000001
1.000001
1.000001
1.000001
1.000001
1.000001
1.000001
1.000001
1.000001
1.000001
1.000001
1.000001
1.000001
1.000001
1.000001
1.000001
1.000001
1.000001
1.000001
1.000001
1.000001
1.000001
1.000001
1.000001
1.000001
1.000001
1.000001
1.000001
1.000001
1.000001
1.000001
1.000001
1.000001
1.000001
1.000001
1.000001
1.000001
1.000001
1.000001
1.000001
VECTORS fa_u float
0.000000 0.000000 0.000000
0.000000 0.000000 0.000000
0.000000 0.000000 0.000000
0.000000 0.000000 0.000000
0.000000 0.000000 0.000000
0.000000 0.000000 0.000000
0.000000 0.000000 0.000000
0.000000 0.000000 0.000000
0.000000 0.000000 0.000000
0.000000 0.000000 0.000000
0.000000 0.000000 0.000000
0.000000 0.000000 0.000000
0.000000 0.000000 0.000000
0.000000 0.000000 0.000000
0.000000 0.000000 0.000000
0.000000 0.000000 0.000000
0.000000 0.000000 0.000000
0.000000 0.000000 0.000000
0.000000 0.000000 0.000000
0.000000 0.000000 0.000000
0.000000 0.000000 0.000000
0.000000 0.000000 0.000000
0.000000 0.000000 0.000000
0.000000 0.000000 0.000000
0.000000 0.000000 0.000000
0.000000 0.000000 0.000000
0.000000 0.000000 0.000000
0.000000 0.000000 0.000000
0.000000 0.000000 0.000000
0.000000 0.000000 0.000000
0.000000 0.000000 0.000000
0.000000 0.000000 0.000000
0.000000 0.000000 0.000000
0.000000 0.000000 0.000000
0.000000 0.000000 0.000000
0.000000 0.000000 0.000000
0.000000 0.000000 0.000000
0.000000 0.000000 0.000000
0.000000 0.000000 0.000000
0.000000 0.000000 0.000000
0.000000 0.000000 0.000000
0.000000 0.000000 0.000000
0.000000 0.000000 0.000000
0.000000 0.000000 0.000000
0.000000 0.000000 0.000000
0.000000 0.000000 0.000000
0.000000 0.000000 0.000000
0.000000 0.000000 0.000000
0.000000 0.000000 0.000000
0.000000 0.000000 0.000000
0.000000 0.000000 0.000000
0.000000 0.000000 0.000000
0.000000 0.000000 0.000000
0.000000 0.000000 0.000000
0.000000 0.000000 0.000000
0.000000 0.000000 0.000000
0.000000 0.000000 0.000000
0.000000 0.000000 0.000000
0.000000 0.000000 0.000000
0.000000 0.000000 0.000000
0.000000 0.000000 0.000000
0.000000 0.000000 0.000000
0.000000 0.000000 0.000000
0.000000 0.000000 0.000000
0.000000 0.000000 0.000000
0.000000 0.000000 0.000000
0.000000 0.000000 0.000000
0.000000 0.000000 0.000000
0.000000 0.000000 0.000000
0.000000 0.000000 0.000000
0.000000 0.000000 0.000000
0.000000 0.000000 0.000000
0.000000 0.000000 0.000000
0.000000 0.000000 0.000000
0.000000 0.000000 0.000000
0.000000 0.000000 0.000000
0.000000 0.000000 0.000000
0.000000 0.000000 0.000000
0.000000 0.000000 0.000000
0.000000 0.000000 0.000000
0.000000 0.000000 0.000000
0.000000 0.000000 0.000000
0.000000 0.000000 0.000000
0.000000 0.000000 0.000000
0.000000 0.000000 0.000000
0.000000 0.000000 0.000000
0.000000 0.000000 0.000000
0.000000 0.000000 0.000000
0.000000 0.000000 0.000000
0.000000 0.000000 0.000000
0.000000 0.000000 0.000000
0.000000 0.000000 0.000000
0.000000 0.000000 0.000000
0.000000 0.000000 0.000000
0.000000 0.000000 0.000000
0.000000 0.000000 0.000000
0.000000 0.000000 0.000000
0.000000 0.000000 0.000000
0.000000 0.000000 0.000000
0.000000 0.000000 0.000000
0.000000 0.000000 0.000000
0.000000 0.000000 0.000000
0.000000 0.000000 0.000000
0.000000 0.000000 0.000000
0.000000 0.000000 0.000000
0.000000 0.000000 0.000000
0.000000 0.000000 0.000000
0.000000 0.000000 0.000000
0.000000 0.000000 0.000000
0.000000 0.000000 0.000000
0.000000 0.000000 0.000000
0.000000 0.000000 0.000000
0.000000 0.000000 0.000000
0.000000 0.000000 0.000000
0.000000 0.000000 0.000000
0.000000 0.000000 0.000000
0.000000 0.000000 0.000000
0.000000 0.000000 0.000000
0.000000 0.000000 0.000000
0.000000 0.000000 0.000000
0.000000 0.000000 0.000000
0.000000 0.000000 0.000000
0.000000 0.000000 0.000000
0.000000 0.000000 0.000000
0.000000 0.000000 0.000000
0.000000 0.000000 0.000000
0.000000 0.000000 0.000000
0.000000 0.000000 0.000000
0.000000 0.000000 0.000000
0.000000 0.000000 0.000000
0.000000 0.000000 0.000000
0.000000 0.000000 0.000000
0.000000 0.000000 0.000000
0.000000 0.000000 0.000000
0.000000 0.000000 0.000000
0.000000 0.000000 0.000000
0.000000 0.000000 0.000000
0.000000 0.000000 0.000000
0.000000 0.000000 0.000000
0.000000 0.000000 0.000000
0.000000 0.000000 0.000000
0.000000 0.000000 0.000000
0.000000 0.000000 0.000000
0.000000 0.000000 0.000000
0.000000 0.000000 0.000000
0.000000 0.000000 0.000000
0.000000 0.000000 0.000000
0.000000 0.000000 0.000000
0.000000 0.000000 0.000000
0.000000 0.000000 0.000000
0.000000 0.000000 0.000000
0.000000 0.000000 0.000000
0.000000 0.000000 0.000000
0.000000 0.000000 0.000000
0.000000 0.000000 0.000000
0.000000 0.000000 0.000000
0.000000 0.000000 0.000000
0.000000 0.000000 0.000000
0.000000 0.000000 0.000000
0.000000 0.000000 0.000000
0.000000 0.000000 0.000000
0.000000 0.000000 0.000000
0.000000 0.000000 0.000000
0.000000 0.000000 0.000000
0.000000 0.000000 0.000000
0.000000 0.000000 0.000000
0.000000 0.000000 0.000000
0.000000 0.000000 0.000000
0.000000 0.000000 0.000000
0.000000 0.000000 0.000000
0.000000 0.000000 0.000000
0.000000 0.000000 0.000000
0.000000 0.000000 0.000000
0.000000 0.000000 0.000000
0.000000 0.000000 0.000000
0.000000 0.000000 0.000000
0.000000 0.000000 0.000000
0.000000 0.000000 0.000000
0.000000 0.000000 0.000000
0.000000 0.000000 0.000000
0.000000 0.000000 0.000000
0.000000 0.000000 0.000000
0.000000 0.000000 0.000000
0.000000 0.000000 0.000000
0.000000 0.000000 0.000000
0.000000 0.000000 0.000000
0.000000 0.000000 0.000000
0.000000 0.000000 0.000000
0.000000 0.000000 0.000000
0.000000 0.000000 0.000000
0.000000 0.000000 0.000000
0.000000 0.000000 0.000000
0.000000 0.000000 0.000000
0.000000 0.000000 0.000000
0.000000 0.000000 0.000000
0.000000 0.000000 0.000000
0.000000 0.000000 0.000000
0.000000 0.000000 0.000000
0.000000 0.000000 0.000000
0.000000 0.000000 0.000000
0.000000 0.000000 0.000000
0.000000 0.000000 0.000000
0.000000 0.000000 0.000000
0.000000 0.000000 0.000000
0.000000 0.000000 0.000000
0.000000 0.000000 0.000000
0.000000 0.000000 0.000000
0.000000 0.000000 0.000000
0.000000 0.000000 0.000000
0.000000 0.000000 0.000000
0.000000 0.000000 0.000000
0.000000 0.000000 0.000000
0.000000 0.000000 0.000000
0.000000 0.000000 0.000000
0.000000 0.000000 0.000000
0.000000 0.000000 0.000000
0.000000 0.000000 0.000000
0.000000 0.000000 0.000000
0.000000 0.000000 0.000000
0.000000 0.000000 0.000000
0.000000 0.000000 0.000000
0.000000 0.000000 0.000000
0.000000 0.000000 0.000000
0.000000 0.000000 0.000000
0.000000 0.000000 0.000000
0.000000 0.000000 0.000000
0.000000 0.000000 0.000000
0.000000 0.000000 0.000000
0.000000 0.000000 0.000000
0.000000 0.000000 0.000000
0.000000 0.000000 0.000000
0.000000 0.000000 0.000000
0.000000 0.000000 0.000000
0.000000 0.000000 0.000000
0.000000 0.000000 0.000000
0.000000 0.000000 0.000000
0.000000 0.000000 0.000000
0.000000 0.000000 0.000000
0.000000 0.000000 0.000000
0.000000 0.000000 0.000000
0.000000 0.000000 0.000000
0.000000 0.000000 0.000000
0.000000 0.000000 0.000000
0.000000 0.000000 0.000000
0.000000 0.000000 0.000000
0.000000 0.000000 0.000000
0.000000 0.000000 0.000000
0.000000 0.000000 0.000000
0.000000 0.000000 0.000000
0.000000 0.000000 0.000000
0.000000 0.000000 0.000000
0.000000 0.000000 0.000000
0.000000 0.000000 0.000000
0.000000 0.000000 0.000000
0.000000 0.000000 0.000000
0.000000 0.000000 0.000000
0.000000 0.000000 0.000000
0.000000 0.000000 0.000000
0.000000 0.000000 0.000000
0.000000 0.000000 0.000000
0.000000 0.000000 0.000000
0.000000 0.000000 0.000000
0.000000 0.000000 0.000000
0.000000 0.000000 0.000000
0.000000 0.000000 0.000000
0.000000 0.000000 0.000000
0.000000 0.000000 0.000000
0.000000 0.000000 0.000000
0.000000 0.000000 0.000000
0.000000 0.000000 0.000000
0.000000 0.000000 0.000000
0.000000 0.000000 0.000000
0.000000 0.000000 0.000000
0.000000 0.000000 0.000000
0.000000 0.000000 0.000000
0.000000 0.000000 0.000000
0.000000 0.000000 0.000000
0.000000 0.000000 0.000000
0.000000 0.000000 0.000000
0.000000 0.000000 0.000000
0.000000 0.000000 0.000000
0.000000 0.000000 0.000000
0.000000 0.000000 0.000000
0.000000 0.000000 0.000000
0.000000 0.000000 0.000000
0.000000 0.000000 0.000000
0.000000 0.000000 0.000000
0.000000 0.000000 0.000000
0.000000 0.000000 0.000000
0.000000 0.000000 0.000000
0.000000 0.000000 0.000000
0.000000 0.000000 0.000000
0.000000 0.000000 0.000000
0.000000 0.000000 0.000000
0.000000 0.000000 0.000000
0.000000 0.000000 0.000000
0.000000 0.000000 -50.000000
-50.000000 0.000000 -50.000000
-43.332568 0.000000 -45.688533
-45.491267 0.000000 -43.332457
-50.000000 0.000000 -50.000000
-36.665088 0.000000 -36.665132
-50.000000 0.000000 -45.081277
-39.969869 0.000000 -40.027418
-44.152399 0.000000 -29.997747
-50.000000 0.000000 -50.000000
-29.997680 0.000000 -44.847243
-33.448984 0.000000 -33.145097
-44.675820 0.000000 -39.869323
-36.787080 0.000000 -35.128892
-39.801468 0.000000 -23.330665
-50.000000 0.000000 -26.539351
-44.666806 0.000000 -50.000000
-23.330615 0.000000 -44.665339
-26.804019 0.000000 -39.364386
-30.225776 0.000000 -29.606540
-39.359492 0.000000 -33.368507
-33.655596 0.000000 -50.000000
-16.664050 0.000000 -16.664153
-50.000000 0.000000 -9.998221
