# vtk DataFile Version 2.0
CellBP Time: 8.88
ASCII
DATASET UNSTRUCTURED_GRID
POINTS 320 double
-50.000000 -50.000000 0.000000
-50.000000 -43.332194 0.000000
-45.688668 -45.491375 0.000000
-43.332040 -50.000000 0.000000
-50.000000 -36.664319 0.000000
-36.664405 -50.000000 0.000000
-45.081422 -39.969943 0.000000
-40.027630 -44.152511 0.000000
-29.996687 -50.000000 0.000000
-50.000000 -29.996555 0.000000
-44.847383 -33.449047 0.000000
-33.145270 -44.675940 0.000000
-39.869503 -36.787159 0.000000
-35.129111 -39.801614 0.000000
-23.329424 -50.000000 0.000000
-26.539542 -44.666860 0.000000
-50.000000 -23.329307 0.000000
-44.665396 -26.804109 0.000000
-39.364516 -30.225862 0.000000
-29.606791 -39.359604 0.000000
-33.368756 -33.655728 0.000000
-50.000000 -16.662804 0.000000
-16.663002 -50.000000 0.000000
-9.997428 -50.000000 0.000000
-19.965346 -44.588702 0.000000
-23.216281 -39.114765 0.000000
-44.691809 -20.097096 0.000000
-39.367958 -23.528199 0.000000
-34.106447 -26.937141 0.000000
-26.384918 -33.577605 0.000000
-29.156706 -28.926915 0.000000
-50.000000 -9.996950 0.000000
-44.666291 -13.410341 0.000000
-50.000000 -3.331911 0.000000
-3.332544 -50.000000 0.000000
3.332177 -50.000000 0.000000
-13.344140 -44.598858 0.000000
-6.685029 -44.610449 0.000000
-16.694068 -39.153070 0.000000
-20.107246 -33.342603 0.000000
-39.338099 -16.804577 0.000000
-34.019084 -20.274463 0.000000
-28.781506 -23.449271 0.000000
-23.510904 -27.351126 0.000000
-44.635257 -6.705488 0.000000
-39.293121 -10.101662 0.000000
-50.000000 3.332710 0.000000
-44.626471 -0.015325 0.000000
9.997253 -50.000000 0.000000
16.663010 -50.000000 0.000000
-0.016217 -44.618553 0.000000
6.651793 -44.635322 0.000000
-10.045035 -39.222494 0.000000
-3.368346 -39.220165 0.000000
-13.484393 -33.798364 0.000000
-16.708796 -28.271598 0.000000
-33.947903 -13.513331 0.000000
-28.602894 -16.891913 0.000000
-23.292970 -20.313374 0.000000
-18.661176 -23.284882 0.000000
-39.267293 -3.392525 0.000000
-33.904463 -6.796687 0.000000
-50.000000 9.997493 0.000000
-44.606462 6.673891 0.000000
-39.260570 3.325878 0.000000
-50.000000 16.663031 0.000000
23.329455 -50.000000 0.000000
29.996600 -50.000000 0.000000
13.317841 -44.662919 0.000000
19.990004 -44.700092 0.000000
3.307600 -39.245094 0.000000
9.971887 -39.290398 0.000000
-6.735804 -33.791331 0.000000
-0.032164 -33.829400 0.000000
-10.096086 -28.292125 0.000000
-13.122695 -22.895546 0.000000
-28.531216 -10.213911 0.000000
-23.068066 -13.663826 0.000000
-16.979551 -17.213184 0.000000
-33.884062 -0.065476 0.000000
-28.562635 -3.580396 0.000000
-44.563917 13.381099 0.000000
-39.189807 10.015302 0.000000
-33.905375 6.616112 0.000000
-50.000000 23.329224 0.000000
-44.557267 20.138690 0.000000
-50.000000 29.996693 0.000000
36.664257 -50.000000 0.000000
43.332083 -50.000000 0.000000
26.663600 -44.745415 0.000000
33.315555 -44.876193 0.000000
16.631756 -39.357682 0.000000
23.328459 -39.437214 0.000000
6.642972 -33.879623 0.000000
13.290426 -33.965440 0.000000
-3.346588 -28.363896 0.000000
3.358534 -28.451191 0.000000
-6.626440 -22.844605 0.000000
-9.960841 -17.315277 0.000000
-23.179507 -7.014009 0.000000
-17.814457 -10.334870 0.000000
-12.837948 -12.611645 0.000000
-28.607261 3.088751 0.000000
-23.266981 -0.470203 0.000000
-39.038329 16.746363 0.000000
-28.719848 9.925697 0.000000
-33.760612 13.317917 0.000000
-44.521724 26.717451 0.000000
-38.467799 23.892837 0.000000
-44.632852 33.086114 0.000000
-50.000000 36.664825 0.000000
-50.000000 43.332366 0.000000
39.922602 -45.069817 0.000000
45.474981 -45.660706 0.000000
50.000000 -50.000000 0.000000
36.626977 -39.982152 0.000000
30.012626 -39.458782 0.000000
19.904208 -34.093052 0.000000
26.585172 -34.319707 0.000000
9.988350 -28.512570 0.000000
16.610446 -28.660618 0.000000
0.050062 -22.963953 0.000000
6.811986 -23.154627 0.000000
-3.397513 -17.296901 0.000000
-6.795760 -10.873176 0.000000
-17.872963 -3.811272 0.000000
-12.547850 -7.033189 0.000000
-23.307766 6.068923 0.000000
-18.033323 2.436068 0.000000
-23.123976 12.096410 0.000000
-33.572170 19.788965 0.000000
-27.941843 16.886552 0.000000
-33.293400 24.723150 0.000000
-39.474212 30.053506 0.000000
-35.161083 28.137961 0.000000
-39.816650 35.101926 0.000000
-43.992033 39.982834 0.000000
-45.431208 45.685559 0.000000
-50.000000 50.000000 0.000000
44.117500 -39.899368 0.000000
50.000000 -43.331677 0.000000
39.639695 -35.047673 0.000000
33.463074 -33.424766 0.000000
22.985041 -28.818306 0.000000
28.731129 -29.248028 0.000000
13.460805 -23.121923 0.000000
20.054978 -23.440038 0.000000
3.362637 -17.591293 0.000000
10.122189 -17.843877 0.000000
0.169330 -11.775068 0.000000
-2.122840 -6.152886 0.000000
-7.143792 -3.555102 0.000000
-12.429197 -0.808522 0.000000
-18.175003 8.573188 0.000000
-12.932594 5.196520 0.000000
-18.637725 13.750815 0.000000
-21.503561 17.493891 0.000000
-28.941213 23.159502 0.000000
-24.346512 21.554161 0.000000
-30.324171 28.635328 0.000000
-34.254003 33.375758 0.000000
-36.956219 39.578223 0.000000
-39.838804 45.103026 0.000000
-43.332024 50.000000 0.000000
44.585468 -32.972348 0.000000
50.000000 -36.663854 0.000000
39.129428 -29.582138 0.000000
33.500783 -26.367841 0.000000
27.183380 -23.322147 0.000000
23.067599 -18.648053 0.000000
16.992941 -16.982804 0.000000
6.696912 -12.189701 0.000000
12.375275 -12.737865 0.000000
-3.362635 -1.483548 0.000000
3.784040 -6.760501 0.000000
1.023905 -2.120656 0.000000
-6.847519 2.263140 0.000000
-8.232849 7.647371 0.000000
-12.840978 11.927428 0.000000
-15.690236 17.698683 0.000000
-19.287546 22.981102 0.000000
-24.171032 27.354302 0.000000
-27.286467 33.625746 0.000000
-30.406860 39.160991 0.000000
-33.448036 44.738896 0.000000
-36.664122 50.000000 0.000000
44.547770 -26.500236 0.000000
50.000000 -29.996099 0.000000
39.040017 -23.179403 0.000000
33.449507 -19.900019 0.000000
28.039608 -16.573194 0.000000
22.679197 -13.123591 0.000000
17.175829 -9.898811 0.000000
10.769879 -6.573336 0.000000
-1.359886 2.321847 0.000000
6.128215 -1.708568 0.000000
2.886263 1.591701 0.000000
-3.444907 6.972780 0.000000
-6.314096 12.425819 0.000000
-9.629330 17.713011 0.000000
-13.168244 23.114949 0.000000
-17.317029 28.185035 0.000000
-20.571161 33.474139 0.000000
-23.666228 39.063877 0.000000
-26.831378 44.585335 0.000000
-29.996672 50.000000 0.000000
44.528624 -19.931034 0.000000
50.000000 -23.328907 0.000000
39.036108 -16.594270 0.000000
33.575723 -13.281278 0.000000
28.148909 -9.965165 0.000000
22.724528 -6.604840 0.000000
17.265207 -3.334633 0.000000
11.784249 0.218284 0.000000
1.906362 6.192950 0.000000
6.788415 3.701329 0.000000
-0.227920 11.752566 0.000000
-3.245725 17.531758 0.000000
-6.698654 22.976133 0.000000
-10.566980 28.267143 0.000000
-13.724398 33.660834 0.000000
-16.946043 39.080072 0.000000
-20.141145 44.548311 0.000000
-23.329672 50.000000 0.000000
44.536103 -13.304167 0.000000
50.000000 -16.662537 0.000000
39.079729 -9.966948 0.000000
33.646522 -6.641520 0.000000
28.236844 -3.308215 0.000000
22.850497 0.017258 0.000000
17.538655 3.339041 0.000000
12.178113 6.580321 0.000000
6.650505 10.682955 0.000000
3.302609 17.200573 0.000000
-0.080482 22.855210 0.000000
-3.519241 28.313239 0.000000
-6.831858 33.774709 0.000000
-10.137918 39.170488 0.000000
-13.436357 44.563416 0.000000
-16.663375 50.000000 0.000000
44.554072 -6.655048 0.000000
50.000000 -9.997076 0.000000
39.123135 -3.321488 0.000000
33.713291 0.008827 0.000000
28.333359 3.345343 0.000000
22.998949 6.693950 0.000000
17.834867 10.018094 0.000000
12.658875 12.246060 0.000000
9.783301 17.232525 0.000000
6.479981 22.722438 0.000000
3.189539 28.270475 0.000000
-0.116096 33.734978 0.000000
-3.425407 39.168727 0.000000
-6.725892 44.581693 0.000000
-9.997718 50.000000 0.000000
44.575449 0.001777 0.000000
50.000000 -3.332330 0.000000
39.166889 3.331810 0.000000
33.779574 6.655680 0.000000
28.423793 9.994689 0.000000
23.046549 13.416128 0.000000
16.951381 17.024729 0.000000
12.901551 22.666626 0.000000
9.815590 28.231620 0.000000
6.604451 33.718832 0.000000
3.286533 39.164438 0.000000
-0.030002 44.584473 0.000000
-3.332572 50.000000 0.000000
44.586639 6.665696 0.000000
50.000000 3.332326 0.000000
39.198237 9.982076 0.000000
33.843532 13.276888 0.000000
28.542481 16.584247 0.000000
23.387874 20.084264 0.000000
18.532038 23.113679 0.000000
16.392449 28.298453 0.000000
13.329075 33.754737 0.000000
9.986756 39.181947 0.000000
6.666175 44.584205 0.000000
3.332404 50.000000 0.000000
44.608879 13.318372 0.000000
50.000000 9.997422 0.000000
39.251400 16.612653 0.000000
33.932088 19.862926 0.000000
28.612631 22.926009 0.000000
23.279695 27.207857 0.000000
19.901445 33.302812 0.000000
16.574159 39.040809 0.000000
13.268778 44.526606 0.000000
9.997473 50.000000 0.000000
44.632065 19.973485 0.000000
50.000000 16.663202 0.000000
39.298576 23.262428 0.000000
34.043991 26.514935 0.000000
28.966022 28.539525 0.000000
26.202629 33.410204 0.000000
23.067006 38.968793 0.000000
19.889047 44.507011 0.000000
16.663015 50.000000 0.000000
44.639911 26.643379 0.000000
50.000000 23.329634 0.000000
39.293540 29.967036 0.000000
33.212650 33.371505 0.000000
29.412480 39.045969 0.000000
26.422804 44.506019 0.000000
23.329355 50.000000 0.000000
44.775208 33.292141 0.000000
50.000000 29.996724 0.000000
39.738384 36.596555 0.000000
34.831354 39.525920 0.000000
32.834173 44.514527 0.000000
29.996431 50.000000 0.000000
44.978480 39.878142 0.000000
50.000000 36.664317 0.000000
39.735285 43.969312 0.000000
36.664063 50.000000 0.000000
45.621575 45.410111 0.000000
50.000000 43.332097 0.000000
43.331780 50.000000 0.000000
50.000000 50.000000 0.000000
CELLS 578 2312
3 1 0 2
3 0 3 2
3 4 1 6
3 6 1 2
3 3 5 7
3 3 7 2
3 6 2 7
3 9 4 10
3 10 4 6
3 5 8 11
3 7 5 11
3 10 6 12
3 12 6 7
3 7 11 13
3 7 13 12
3 8 14 15
3 11 8 15
3 16 9 17
3 17 9 10
3 17 10 18
3 18 10 12
3 11 15 19
3 13 11 19
3 18 12 20
3 13 19 20
3 20 12 13
3 14 22 24
3 15 14 24
3 15 24 25
3 19 15 25
3 21 16 26
3 26 16 17
3 26 17 27
3 27 17 18
3 27 18 28
3 28 18 20
3 19 25 29
3 19 29 20
3 28 20 30
3 30 20 29
3 31 21 32
3 32 21 26
3 22 23 36
3 24 22 36
3 23 34 37
3 36 23 37
3 24 36 38
3 25 24 38
3 25 38 39
3 29 25 39
3 32 26 40
3 40 26 27
3 40 27 41
3 41 27 28
3 41 28 42
3 42 28 30
3 29 39 43
3 29 43 30
3 42 30 43
3 33 31 44
3 44 31 32
3 44 32 45
3 45 32 40
3 46 33 47
3 47 33 44
3 34 35 50
3 37 34 50
3 35 48 51
3 50 35 51
3 36 37 52
3 38 36 52
3 37 50 53
3 52 37 53
3 38 52 54
3 39 38 54
3 39 54 55
3 43 39 55
3 45 40 56
3 56 40 41
3 56 41 57
3 57 41 42
3 57 42 58
3 58 42 43
3 43 55 59
3 43 59 58
3 47 44 60
3 60 44 45
3 60 45 61
3 61 45 56
3 62 46 63
3 63 46 47
3 63 47 64
3 64 47 60
3 48 49 68
3 51 48 68
3 49 66 69
3 68 49 69
3 50 51 70
3 53 50 70
3 51 68 71
3 70 51 71
3 52 53 72
3 54 52 72
3 53 70 73
3 72 53 73
3 54 72 74
3 55 54 74
3 55 74 75
3 59 55 75
3 61 56 76
3 76 56 57
3 76 57 77
3 77 57 58
3 77 58 78
3 59 75 78
3 78 58 59
3 64 60 79
3 79 60 61
3 79 61 80
3 80 61 76
3 65 62 81
3 81 62 63
3 81 63 82
3 82 63 64
3 82 64 83
3 83 64 79
3 84 65 85
3 85 65 81
3 66 67 89
3 69 66 89
3 67 87 90
3 89 67 90
3 68 69 91
3 71 68 91
3 69 89 92
3 91 69 92
3 70 71 93
3 73 70 93
3 71 91 94
3 93 71 94
3 72 73 95
3 74 72 95
3 73 93 96
3 95 73 96
3 74 95 97
3 75 74 97
3 75 97 98
3 78 75 98
3 80 76 99
3 99 76 77
3 99 77 100
3 100 77 78
3 100 78 101
3 98 101 78
3 83 79 102
3 102 79 80
3 102 80 103
3 103 80 99
3 85 81 104
3 104 81 82
3 105 83 102
3 104 82 106
3 106 82 83
3 106 83 105
3 86 84 107
3 107 84 85
3 107 85 108
3 108 85 104
3 109 86 107
3 110 86 109
3 87 88 112
3 90 87 112
3 112 88 113
3 88 114 113
3 90 112 115
3 89 90 116
3 92 89 116
3 116 90 115
3 91 92 117
3 94 91 117
3 92 116 118
3 117 92 118
3 93 94 119
3 96 93 119
3 94 117 120
3 119 94 120
3 95 96 121
3 97 95 121
3 96 119 122
3 121 96 122
3 97 121 123
3 98 97 123
3 98 123 124
3 98 124 101
3 103 99 125
3 125 99 100
3 125 100 126
3 126 100 101
3 126 101 124
3 105 102 127
3 127 102 103
3 127 103 128
3 128 103 125
3 129 105 127
3 108 104 130
3 130 104 106
3 130 106 131
3 131 106 105
3 131 105 129
3 108 130 132
3 109 107 133
3 133 107 108
3 133 108 134
3 108 132 134
3 135 109 133
3 111 110 136
3 136 110 109
3 136 109 135
3 137 111 136
3 138 111 137
3 112 113 139
3 115 112 139
3 114 140 113
3 140 139 113
3 139 141 115
3 116 115 142
3 118 116 142
3 142 115 141
3 117 118 143
3 120 117 143
3 118 142 144
3 143 118 144
3 119 120 145
3 122 119 145
3 120 143 146
3 145 120 146
3 121 122 147
3 123 121 147
3 122 145 148
3 147 122 148
3 123 147 149
3 124 123 149
3 124 149 150
3 151 126 124
3 124 150 151
3 128 125 152
3 152 125 126
3 152 126 151
3 129 127 153
3 153 127 128
3 128 152 154
3 153 128 154
3 155 129 153
3 131 129 156
3 156 129 155
3 132 130 157
3 130 131 157
3 157 131 158
3 131 156 158
3 132 157 159
3 132 159 134
3 135 133 160
3 160 133 134
3 160 134 159
3 136 135 161
3 135 160 161
3 162 137 136
3 161 162 136
3 163 138 137
3 162 163 137
3 139 164 141
3 140 165 139
3 139 165 164
3 141 164 166
3 141 166 142
3 166 167 142
3 144 142 167
3 167 168 144
3 143 144 168
3 146 143 168
3 168 169 146
3 145 146 170
3 148 145 170
3 170 146 169
3 147 148 171
3 149 147 171
3 148 170 172
3 171 148 172
3 173 151 150
3 149 171 174
3 150 149 174
3 150 174 175
3 150 175 173
3 154 152 176
3 152 151 176
3 176 151 173
3 154 176 177
3 155 153 178
3 177 178 154
3 154 178 153
3 156 155 179
3 155 178 179
3 180 158 156
3 179 180 156
3 181 159 157
3 180 181 158
3 181 157 158
3 182 160 159
3 181 182 159
3 183 161 160
3 182 183 160
3 184 162 161
3 184 161 183
3 185 163 162
3 184 185 162
3 164 186 166
3 165 187 164
3 164 187 186
3 166 186 188
3 166 188 167
3 167 188 189
3 167 189 168
3 168 189 190
3 168 190 169
3 169 190 191
3 169 191 170
3 192 172 170
3 170 191 192
3 192 193 172
3 171 172 193
3 174 171 193
3 194 173 175
3 176 173 194
3 175 174 195
3 193 195 174
3 195 196 175
3 175 196 194
3 197 177 176
3 194 197 176
3 198 178 177
3 197 198 177
3 199 179 178
3 198 199 178
3 200 180 179
3 199 200 179
3 201 181 180
3 200 201 180
3 202 182 181
3 201 202 181
3 203 183 182
3 202 203 182
3 204 184 183
3 203 204 183
3 205 185 184
3 204 205 184
3 186 206 188
3 187 207 186
3 186 207 206
3 188 206 208
3 188 208 189
3 189 208 209
3 189 209 190
3 190 209 210
3 190 210 191
3 191 210 211
3 191 211 192
3 192 211 212
3 192 212 193
3 193 212 213
3 193 213 195
3 214 197 194
3 214 194 196
3 195 213 215
3 195 215 196
3 196 215 214
3 216 198 197
3 214 216 197
3 217 199 198
3 216 217 198
3 218 200 199
3 217 218 199
3 219 201 200
3 218 219 200
3 220 202 201
3 219 220 201
3 221 203 202
3 220 221 202
3 222 204 203
3 221 222 203
3 223 205 204
3 222 223 204
3 206 224 208
3 207 225 206
3 206 225 224
3 208 224 226
3 208 226 209
3 209 226 227
3 209 227 210
3 210 227 228
3 210 228 211
3 211 228 229
3 211 229 212
3 212 229 230
3 212 230 213
3 213 230 231
3 213 231 215
3 232 216 214
3 215 231 232
3 232 214 215
3 233 217 216
3 232 233 216
3 234 218 217
3 233 234 217
3 235 219 218
3 234 235 218
3 236 220 219
3 235 236 219
3 237 221 220
3 236 237 220
3 238 222 221
3 237 238 221
3 239 223 222
3 238 239 222
3 224 240 226
3 225 241 224
3 224 241 240
3 226 240 242
3 226 242 227
3 227 242 243
3 227 243 228
3 228 243 244
3 228 244 229
3 244 245 229
3 229 245 230
3 230 245 246
3 230 246 231
3 231 246 247
3 231 247 232
3 248 233 232
3 248 232 247
3 249 234 233
3 248 249 233
3 250 235 234
3 249 250 234
3 251 236 235
3 250 251 235
3 252 237 236
3 251 252 236
3 253 238 237
3 252 253 237
3 254 239 238
3 253 254 238
3 240 255 242
3 241 256 240
3 240 256 255
3 242 255 257
3 242 257 243
3 243 257 258
3 243 258 244
3 244 258 259
3 244 259 245
3 245 259 260
3 245 260 246
3 246 260 261
3 246 261 247
3 248 247 261
3 262 249 248
3 261 262 248
3 263 250 249
3 262 263 249
3 264 251 250
3 263 264 250
3 265 252 251
3 264 265 251
3 266 253 252
3 265 266 252
3 267 254 253
3 266 267 253
3 255 268 257
3 256 269 255
3 255 269 268
3 257 268 270
3 257 270 258
3 258 270 271
3 258 271 259
3 259 271 272
3 259 272 260
3 260 272 273
3 260 273 261
3 274 262 261
3 261 273 274
3 275 263 262
3 274 275 262
3 276 264 263
3 275 276 263
3 277 265 264
3 276 277 264
3 278 266 265
3 277 278 265
3 279 267 266
3 278 279 266
3 268 280 270
3 269 281 268
3 268 281 280
3 270 280 282
3 270 282 271
3 271 282 283
3 271 283 272
3 283 284 272
3 272 284 273
3 285 275 274
3 273 284 285
3 285 274 273
3 286 276 275
3 285 286 275
3 287 277 276
3 286 287 276
3 288 278 277
3 287 288 277
3 289 279 278
3 288 289 278
3 280 290 282
3 281 291 280
3 280 291 290
3 282 290 292
3 282 292 283
3 283 292 293
3 283 293 284
3 284 293 294
3 284 294 285
3 295 286 285
3 295 285 294
3 296 287 286
3 295 296 286
3 297 288 287
3 296 297 287
3 298 289 288
3 297 298 288
3 290 299 292
3 291 300 290
3 290 300 299
3 292 299 301
3 292 301 293
3 293 301 302
3 293 302 294
3 294 302 295
3 303 296 295
3 303 295 302
3 304 297 296
3 303 304 296
3 305 298 297
3 304 305 297
3 299 306 301
3 300 307 299
3 299 307 306
3 301 306 308
3 301 308 302
3 309 303 302
3 302 308 309
3 310 304 303
3 309 310 303
3 311 305 304
3 310 311 304
3 306 312 308
3 307 313 306
3 306 313 312
3 314 310 309
3 308 312 314
3 314 309 308
3 315 311 310
3 314 315 310
3 312 316 314
3 313 317 312
3 312 317 316
3 318 315 314
3 318 314 316
3 317 319 316
3 319 318 316
CELL_TYPES 578
5
5
5
5
5
5
5
5
5
5
5
5
5
5
5
5
5
5
5
5
5
5
5
5
5
5
5
5
5
5
5
5
5
5
5
5
5
5
5
5
5
5
5
5
5
5
5
5
5
5
5
5
5
5
5
5
5
5
5
5
5
5
5
5
5
5
5
5
5
5
5
5
5
5
5
5
5
5
5
5
5
5
5
5
5
5
5
5
5
5
5
5
5
5
5
5
5
5
5
5
5
5
5
5
5
5
5
5
5
5
5
5
5
5
5
5
5
5
5
5
5
5
5
5
5
5
5
5
5
5
5
5
5
5
5
5
5
5
5
5
5
5
5
5
5
5
5
5
5
5
5
5
5
5
5
5
5
5
5
5
5
5
5
5
5
5
5
5
5
5
5
5
5
5
5
5
5
5
5
5
5
5
5
5
5
5
5
5
5
5
5
5
5
5
5
5
5
5
5
5
5
5
5
5
5
5
5
5
5
5
5
5
5
5
5
5
5
5
5
5
5
5
5
5
5
5
5
5
5
5
5
5
5
5
5
5
5
5
5
5
5
5
5
5
5
5
5
5
5
5
5
5
5
5
5
5
5
5
5
5
5
5
5
5
5
5
5
5
5
5
5
5
5
5
5
5
5
5
5
5
5
5
5
5
5
5
5
5
5
5
5
5
5
5
5
5
5
5
5
5
5
5
5
5
5
5
5
5
5
5
5
5
5
5
5
5
5
5
5
5
5
5
5
5
5
5
5
5
5
5
5
5
5
5
5
5
5
5
5
5
5
5
5
5
5
5
5
5
5
5
5
5
5
5
5
5
5
5
5
5
5
5
5
5
5
5
5
5
5
5
5
5
5
5
5
5
5
5
5
5
5
5
5
5
5
5
5
5
5
5
5
5
5
5
5
5
5
5
5
5
5
5
5
5
5
5
5
5
5
5
5
5
5
5
5
5
5
5
5
5
5
5
5
5
5
5
5
5
5
5
5
5
5
5
5
5
5
5
5
5
5
5
5
5
5
5
5
5
5
5
5
5
5
5
5
5
5
5
5
5
5
5
5
5
5
5
5
5
5
5
5
5
5
5
5
5
5
5
5
5
5
5
5
5
5
5
5
5
5
5
5
5
5
5
5
5
5
5
5
5
5
5
5
5
5
5
5
5
5
5
5
5
5
5
5
5
5
5
5
5
5
5
5
5
5
5
5
5
5
5
5
5
5
5
5
5
5
5
5
5
5
5
5
5
5
5
5
5
5
5
5
5
5
5
5
5
5
5
5
5
5
5
5
5
5
5
5
5
5
5
5
5
5
5
5
5
5
5
POINT_DATA 320
SCALARS theta_e float 1
LOOKUP_TABLE default
1.000000
1.000000
1.000000
1.000000
1.000000
1.000000
1.000000
1.000000
1.000000
1.000000
1.000000
1.000000
1.000000
1.000000
1.000000
1.000000
1.000000
1.000000
1.000000
1.000000
1.000000
1.000000
1.000000
1.000000
1.000000
1.000000
1.000000
1.000000
1.000000
1.000000
1.000000
1.000000
1.000000
1.000000
1.000000
1.000000
1.000000
1.000000
1.000000
1.000000
1.000000
1.000000
1.000000
1.000000
1.000000
1.000000
1.000000
1.000000
1.000000
1.000000
1.000000
1.000000
1.000000
1.000000
1.000000
1.000000
1.000000
1.000000
1.000000
1.000000
1.000000
1.000000
1.000000
1.000000
1.000000
1.000000
1.000000
1.000000
1.000000
1.000000
1.000000
1.000000
1.000000
1.000000
1.000000
1.000000
1.000000
1.000000
1.000000
1.000000
1.000000
1.000000
1.000000
1.000000
1.000000
1.000000
1.000000
1.000000
1.000000
1.000000
1.000000
1.000000
1.000000
1.000000
1.000000
1.000000
1.000000
1.000000
1.000000
1.000000
1.000000
1.000000
1.000000
1.000000
1.000000
1.000000
1.000000
1.000000
1.000000
1.000000
1.000000
1.000000
1.000000
1.000000
1.000000
1.000000
1.000000
1.000000
1.000000
1.000000
1.000000
1.000000
1.000000
1.000000
0.999999
1.000000
1.000000
1.000000
1.000000
1.000000
1.000000
1.000000
1.000000
1.000000
1.000000
1.000000
1.000000
1.000000
1.000000
1.000000
1.000000
1.000000
1.000000
1.000000
1.000000
1.000000
1.000000
1.000000
1.000000
0.999999
0.999995
0.999997
0.999999
1.000000
0.999999
1.000000
1.000000
1.000000
1.000000
1.000000
1.000000
1.000000
1.000000
1.000000
1.000000
1.000000
1.000000
1.000000
1.000000
1.000000
1.000000
0.999999
1.000000
0.999994
0.999997
0.999994
0.999996
0.999998
1.000000
1.000000
1.000000
1.000000
1.000000
1.000000
1.000000
1.000000
1.000000
1.000000
1.000000
1.000000
1.000000
1.000000
1.000000
0.999999
0.999994
0.999996
0.999994
0.999996
0.999999
1.000000
1.000000
1.000000
1.000000
1.000000
1.000000
1.000000
1.000000
1.000000
1.000000
1.000000
1.000000
1.000000
1.000000
1.000000
0.999996
0.999998
0.999999
1.000000
1.000000
1.000000
1.000000
1.000000
1.000000
1.000000
1.000000
1.000000
1.000000
1.000000
1.000000
1.000000
1.000000
1.000000
0.999999
1.000000
1.000000
1.000000
1.000000
1.000000
1.000000
1.000000
1.000000
1.000000
1.000000
1.000000
1.000000
1.000000
1.000000
1.000000
1.000000
1.000000
1.000000
1.000000
1.000000
1.000000
1.000000
1.000000
1.000000
1.000000
1.000000
1.000000
1.000000
1.000000
1.000000
1.000000
1.000000
1.000000
1.000000
1.000000
1.000000
1.000000
1.000000
1.000000
1.000000
1.000000
1.000000
1.000000
1.000000
1.000000
1.000000
1.000000
1.000000
1.000000
1.000000
1.000000
1.000000
1.000000
1.000000
1.000000
1.000000
1.000000
1.000000
1.000000
1.000000
1.000000
1.000000
1.000000
1.000000
1.000000
1.000000
1.000000
1.000000
1.000000
1.000000
1.000000
1.000000
1.000000
1.000000
1.000000
1.000000
1.000000
1.000000
1.000000
1.000000
1.000000
1.000000
1.000000
1.000000
1.000000
1.000000
1.000000
VECTORS fa_u float
0.000000 0.000000 0.000000
0.000000 0.000000 0.000000
0.000000 0.000000 0.000000
0.000000 0.000000 0.000000
0.000000 0.000000 0.000000
0.000000 0.000000 0.000000
0.000000 0.000000 0.000000
0.000000 0.000000 0.000000
0.000000 0.000000 0.000000
0.000000 0.000000 0.000000
0.000000 0.000000 0.000000
0.000000 0.000000 0.000000
0.000000 0.000000 0.000000
0.000000 0.000000 0.000000
0.000000 0.000000 0.000000
0.000000 0.000000 0.000000
0.000000 0.000000 0.000000
0.000000 0.000000 0.000000
0.000000 0.000000 0.000000
0.000000 0.000000 0.000000
0.000000 0.000000 0.000000
0.000000 0.000000 0.000000
0.000000 0.000000 0.000000
0.000000 0.000000 0.000000
0.000000 0.000000 0.000000
0.000000 0.000000 0.000000
0.000000 0.000000 0.000000
0.000000 0.000000 0.000000
0.000000 0.000000 0.000000
0.000000 0.000000 0.000000
0.000000 0.000000 0.000000
0.000000 0.000000 0.000000
0.000000 0.000000 0.000000
0.000000 0.000000 0.000000
0.000000 0.000000 0.000000
0.000000 0.000000 0.000000
0.000000 0.000000 0.000000
0.000000 0.000000 0.000000
0.000000 0.000000 0.000000
0.000000 0.000000 0.000000
0.000000 0.000000 0.000000
0.000000 0.000000 0.000000
0.000000 0.000000 0.000000
0.000000 0.000000 0.000000
0.000000 0.000000 0.000000
0.000000 0.000000 0.000000
0.000000 0.000000 0.000000
0.000000 0.000000 0.000000
0.000000 0.000000 0.000000
0.000000 0.000000 0.000000
0.000000 0.000000 0.000000
0.000000 0.000000 0.000000
0.000000 0.000000 0.000000
0.000000 0.000000 0.000000
0.000000 0.000000 0.000000
0.000000 0.000000 0.000000
0.000000 0.000000 0.000000
0.000000 0.000000 0.000000
0.000000 0.000000 0.000000
0.000000 0.000000 0.000000
0.000000 0.000000 0.000000
0.000000 0.000000 0.000000
0.000000 0.000000 0.000000
0.000000 0.000000 0.000000
0.000000 0.000000 0.000000
0.000000 0.000000 0.000000
0.000000 0.000000 0.000000
0.000000 0.000000 0.000000
0.000000 0.000000 0.000000
0.000000 0.000000 0.000000
0.000000 0.000000 0.000000
0.000000 0.000000 0.000000
0.000000 0.000000 0.000000
0.000000 0.000000 0.000000
0.000000 0.000000 0.000000
0.000000 0.000000 0.000000
0.000000 0.000000 0.000000
0.000000 0.000000 0.000000
0.000000 0.000000 0.000000
0.000000 0.000000 0.000000
0.000000 0.000000 0.000000
0.000000 0.000000 0.000000
0.000000 0.000000 0.000000
0.000000 0.000000 0.000000
0.000000 0.000000 0.000000
0.000000 0.000000 0.000000
0.000000 0.000000 0.000000
0.000000 0.000000 0.000000
0.000000 0.000000 0.000000
0.000000 0.000000 0.000000
0.000000 0.000000 0.000000
0.000000 0.000000 0.000000
0.000000 0.000000 0.000000
0.000000 0.000000 0.000000
0.000000 0.000000 0.000000
0.000000 0.000000 0.000000
0.000000 0.000000 0.000000
0.000000 0.000000 0.000000
0.000000 0.000000 0.000000
0.000000 0.000000 0.000000
0.000000 0.000000 0.000000
0.000000 0.000000 0.000000
0.000000 0.000000 0.000000
0.000000 0.000000 0.000000
0.000000 0.000000 0.000000
0.000000 0.000000 0.000000
0.000000 0.000000 0.000000
0.000000 0.000000 0.000000
0.000000 0.000000 0.000000
0.000000 0.000000 0.000000
0.000000 0.000000 0.000000
0.000000 0.000000 0.000000
0.000000 0.000000 0.000000
0.000000 0.000000 0.000000
0.000000 0.000000 0.000000
0.000000 0.000000 0.000000
0.000000 0.000000 0.000000
0.000000 0.000000 0.000000
0.000000 0.000000 0.000000
0.000000 0.000000 0.000000
0.000000 0.000000 0.000000
0.000000 0.000000 0.000000
0.000000 0.000000 0.000000
0.000000 0.000000 0.000000
0.000000 0.000000 0.000000
0.000000 0.000000 0.000000
0.000000 0.000000 0.000000
0.000000 0.000000 0.000000
0.000000 0.000000 0.000000
0.000000 0.000000 0.000000
0.000000 0.000000 0.000000
0.000000 0.000000 0.000000
0.000000 0.000000 0.000000
0.000000 0.000000 0.000000
0.000000 0.000000 0.000000
0.000000 0.000000 0.000000
0.000000 0.000000 0.000000
0.000000 0.000000 0.000000
0.000000 0.000000 0.000000
0.000000 0.000000 0.000000
0.000000 0.000000 0.000000
0.000000 0.000000 0.000000
0.000000 0.000000 0.000000
0.000000 0.000000 0.000000
0.000000 0.000000 0.000000
0.000000 0.000000 0.000000
0.000000 0.000000 0.000000
0.000000 0.000000 0.000000
0.000000 0.000000 0.000000
0.000000 0.000000 0.000000
0.000000 0.000000 0.000000
0.000000 0.000000 0.000000
0.000000 0.000000 0.000000
0.000000 0.000000 0.000000
0.000000 0.000000 0.000000
0.000000 0.000000 0.000000
0.000000 0.000000 0.000000
0.000000 0.000000 0.000000
0.000000 0.000000 0.000000
0.000000 0.000000 0.000000
0.000000 0.000000 0.000000
0.000000 0.000000 0.000000
0.000000 0.000000 0.000000
0.000000 0.000000 0.000000
0.000000 0.000000 0.000000
0.000000 0.000000 0.000000
0.000000 0.000000 0.000000
0.000000 0.000000 0.000000
0.000000 0.000000 0.000000
0.000000 0.000000 0.000000
0.000000 0.000000 0.000000
0.000000 0.000000 0.000000
0.000000 0.000000 0.000000
0.000000 0.000000 0.000000
0.000000 0.000000 0.000000
0.000000 0.000000 0.000000
0.000000 0.000000 0.000000
0.000000 0.000000 0.000000
0.000000 0.000000 0.000000
0.000000 0.000000 0.000000
0.000000 0.000000 0.000000
0.000000 0.000000 0.000000
0.000000 0.000000 0.000000
0.000000 0.000000 0.000000
0.000000 0.000000 0.000000
0.000000 0.000000 0.000000
0.000000 0.000000 0.000000
0.000000 0.000000 0.000000
0.000000 0.000000 0.000000
0.000000 0.000000 0.000000
0.000000 0.000000 0.000000
0.000000 0.000000 0.000000
0.000000 0.000000 0.000000
0.000000 0.000000 0.000000
0.000000 0.000000 0.000000
0.000000 0.000000 0.000000
0.000000 0.000000 0.000000
0.000000 0.000000 0.000000
0.000000 0.000000 0.000000
0.000000 0.000000 0.000000
0.000000 0.000000 0.000000
0.000000 0.000000 0.000000
0.000000 0.000000 0.000000
0.000000 0.000000 0.000000
0.000000 0.000000 0.000000
0.000000 0.000000 0.000000
0.000000 0.000000 0.000000
0.000000 0.000000 0.000000
0.000000 0.000000 0.000000
0.000000 0.000000 0.000000
0.000000 0.000000 0.000000
0.000000 0.000000 0.000000
0.000000 0.000000 0.000000
0.000000 0.000000 0.000000
0.000000 0.000000 0.000000
0.000000 0.000000 0.000000
0.000000 0.000000 0.000000
0.000000 0.000000 0.000000
0.000000 0.000000 0.000000
0.000000 0.000000 0.000000
0.000000 0.000000 0.000000
0.000000 0.000000 0.000000
0.000000 0.000000 0.000000
0.000000 0.000000 0.000000
0.000000 0.000000 0.000000
0.000000 0.000000 0.000000
0.000000 0.000000 0.000000
0.000000 0.000000 0.000000
0.000000 0.000000 0.000000
0.000000 0.000000 0.000000
0.000000 0.000000 0.000000
0.000000 0.000000 0.000000
0.000000 0.000000 0.000000
0.000000 0.000000 0.000000
0.000000 0.000000 0.000000
0.000000 0.000000 0.000000
0.000000 0.000000 0.000000
0.000000 0.000000 0.000000
0.000000 0.000000 0.000000
0.000000 0.000000 0.000000
0.000000 0.000000 0.000000
0.000000 0.000000 0.000000
0.000000 0.000000 0.000000
0.000000 0.000000 0.000000
0.000000 0.000000 0.000000
0.000000 0.000000 0.000000
0.000000 0.000000 0.000000
0.000000 0.000000 0.000000
0.000000 0.000000 0.000000
0.000000 0.000000 0.000000
0.000000 0.000000 0.000000
0.000000 0.000000 0.000000
0.000000 0.000000 0.000000
0.000000 0.000000 0.000000
0.000000 0.000000 0.000000
0.000000 0.000000 0.000000
0.000000 0.000000 0.000000
0.000000 0.000000 0.000000
0.000000 0.000000 0.000000
0.000000 0.000000 0.000000
0.000000 0.000000 0.000000
0.000000 0.000000 0.000000
0.000000 0.000000 0.000000
0.000000 0.000000 0.000000
0.000000 0.000000 0.000000
0.000000 0.000000 0.000000
0.000000 0.000000 0.000000
0.000000 0.000000 0.000000
0.000000 0.000000 0.000000
0.000000 0.000000 0.000000
0.000000 0.000000 0.000000
0.000000 0.000000 0.000000
0.000000 0.000000 0.000000
0.000000 0.000000 0.000000
0.000000 0.000000 0.000000
0.000000 0.000000 0.000000
0.000000 0.000000 0.000000
0.000000 0.000000 0.000000
0.000000 0.000000 0.000000
0.000000 0.000000 0.000000
0.000000 0.000000 0.000000
0.000000 0.000000 0.000000
0.000000 0.000000 0.000000
0.000000 0.000000 0.000000
0.000000 0.000000 0.000000
0.000000 0.000000 0.000000
0.000000 0.000000 0.000000
0.000000 0.000000 0.000000
0.000000 0.000000 0.000000
0.000000 0.000000 0.000000
0.000000 0.000000 0.000000
0.000000 0.000000 0.000000
0.000000 0.000000 0.000000
0.000000 0.000000 0.000000
0.000000 0.000000 0.000000
0.000000 0.000000 0.000000
0.000000 0.000000 -50.000000
-50.000000 0.000000 -50.000000
-43.332194 0.000000 -45.688668
-45.491375 0.000000 -43.332040
-50.000000 0.000000 -50.000000
-36.664319 0.000000 -36.664405
-50.000000 0.000000 -45.081422
-39.969943 0.000000 -40.027630
-44.152511 0.000000 -29.996687
-50.000000 0.000000 -50.000000
-29.996555 0.000000 -44.847383
-33.449047 0.000000 -33.145270
-44.675940 0.000000 -39.869503
-36.787159 0.000000 -35.129111
-39.801614 0.000000 -23.329424
-50.000000 0.000000 -26.539542
-44.666860 0.000000 -50.000000
-23.329307 0.000000 -44.665396
-26.804109 0.000000 -39.364516
-30.225862 0.000000 -29.606791
-39.359604 0.000000 -33.368756
-33.655728 0.000000 -50.000000
-16.662804 0.000000 -16.663002
-50.000000 0.000000 -9.997428
