# vtk DataFile Version 2.0
CellBP Time: 2.12
ASCII
DATASET UNSTRUCTURED_GRID
POINTS 320 double
-50.000000 -50.000000 0.000000
-50.000000 -43.333029 0.000000
-45.688368 -45.491128 0.000000
-43.332986 -50.000000 0.000000
-50.000000 -36.666042 0.000000
-36.666058 -50.000000 0.000000
-45.081100 -39.969769 0.000000
-40.027160 -44.152252 0.000000
-29.999108 -50.000000 0.000000
-50.000000 -29.999084 0.000000
-44.847067 -33.448898 0.000000
-33.144896 -44.675660 0.000000
-39.869101 -36.786969 0.000000
-35.128628 -39.801270 0.000000
-23.332277 -50.000000 0.000000
-26.539138 -44.666727 0.000000
-50.000000 -23.332260 0.000000
-44.665262 -26.803901 0.000000
-39.364219 -30.225654 0.000000
-29.606243 -39.359332 0.000000
-33.368200 -33.655409 0.000000
-50.000000 -16.665632 0.000000
-16.665669 -50.000000 0.000000
-9.999292 -50.000000 0.000000
-19.964871 -44.588766 0.000000
-23.215873 -39.114671 0.000000
-44.691884 -20.096892 0.000000
-39.367837 -23.528131 0.000000
-34.106107 -26.936986 0.000000
-26.384383 -33.577208 0.000000
-29.156161 -28.926576 0.000000
-50.000000 -9.999179 0.000000
-44.666354 -13.410170 0.000000
-50.000000 -3.332946 0.000000
-3.333102 -50.000000 0.000000
3.333038 -50.000000 0.000000
-13.343632 -44.599038 0.000000
-6.684712 -44.610719 0.000000
-16.693693 -39.153294 0.000000
-20.106971 -33.342658 0.000000
-39.338164 -16.804765 0.000000
-34.018660 -20.274659 0.000000
-28.780890 -23.449013 0.000000
-23.510469 -27.350206 0.000000
-44.635463 -6.705572 0.000000
-39.293066 -10.101835 0.000000
-50.000000 3.333172 0.000000
-44.626776 -0.015649 0.000000
9.999270 -50.000000 0.000000
16.665683 -50.000000 0.000000
-0.016113 -44.618789 0.000000
6.651606 -44.635465 0.000000
-10.044702 -39.222597 0.000000
-3.368229 -39.220404 0.000000
-13.484269 -33.798730 0.000000
-16.709571 -28.271443 0.000000
-33.948049 -13.514082 0.000000
-28.601748 -16.892375 0.000000
-23.291565 -20.312960 0.000000
-18.660358 -23.282866 0.000000
-39.267535 -3.392854 0.000000
-33.904538 -6.796772 0.000000
-50.000000 9.999332 0.000000
-44.606792 6.673367 0.000000
-39.260952 3.325635 0.000000
-50.000000 16.665693 0.000000
23.332284 -50.000000 0.000000
29.999075 -50.000000 0.000000
13.317407 -44.662978 0.000000
19.989535 -44.700115 0.000000
3.307664 -39.245150 0.000000
9.971785 -39.290308 0.000000
-6.735311 -33.791363 0.000000
-0.032301 -33.829604 0.000000
-10.095936 -28.293352 0.000000
-13.122783 -22.898004 0.000000
-28.532484 -10.214929 0.000000
-23.066763 -13.663304 0.000000
-16.977488 -17.209582 0.000000
-33.884712 -0.065463 0.000000
-28.563154 -3.579038 0.000000
-44.564144 13.380408 0.000000
-39.190106 10.015010 0.000000
-33.905776 6.615989 0.000000
-50.000000 23.332232 0.000000
-44.557660 20.138132 0.000000
-50.000000 29.999111 0.000000
36.666008 -50.000000 0.000000
43.332990 -50.000000 0.000000
26.663160 -44.745293 0.000000
33.315234 -44.875940 0.000000
16.631635 -39.357694 0.000000
23.328207 -39.437080 0.000000
6.642826 -33.879516 0.000000
13.290725 -33.965459 0.000000
-3.345711 -28.363010 0.000000
3.357264 -28.451272 0.000000
-6.626033 -22.845928 0.000000
-9.969114 -17.314950 0.000000
-23.184289 -7.014741 0.000000
-17.811105 -10.334780 0.000000
-12.837609 -12.593643 0.000000
-28.607490 3.088511 0.000000
-23.265127 -0.468546 0.000000
-39.038941 16.746430 0.000000
-28.721121 9.926291 0.000000
-33.761532 13.318361 0.000000
-44.521686 26.716865 0.000000
-38.467746 23.892494 0.000000
-44.632280 33.085510 0.000000
-50.000000 36.666167 0.000000
-50.000000 43.333070 0.000000
39.922332 -45.069566 0.000000
45.474655 -45.660427 0.000000
50.000000 -50.000000 0.000000
36.626741 -39.981934 0.000000
30.012295 -39.458584 0.000000
19.904179 -34.092773 0.000000
26.584991 -34.319458 0.000000
9.988753 -28.513384 0.000000
16.610888 -28.659942 0.000000
0.051816 -22.959932 0.000000
6.812202 -23.157714 0.000000
-3.400257 -17.297259 0.000000
-6.852472 -10.996730 0.000000
-17.877358 -3.825376 0.000000
-12.552482 -7.035397 0.000000
-23.310099 6.072700 0.000000
-18.036905 2.451642 0.000000
-23.122351 12.095688 0.000000
-33.572108 19.788911 0.000000
-27.941369 16.885521 0.000000
-33.292829 24.722667 0.000000
-39.473514 30.052743 0.000000
-35.160274 28.137453 0.000000
-39.815932 35.101356 0.000000
-43.991655 39.982161 0.000000
-45.431001 45.685133 0.000000
-50.000000 50.000000 0.000000
44.117210 -39.898964 0.000000
50.000000 -43.332878 0.000000
39.639383 -35.047368 0.000000
33.462847 -33.424506 0.000000
22.984848 -28.817918 0.000000
28.730937 -29.247758 0.000000
13.460725 -23.121746 0.000000
20.054820 -23.438940 0.000000
3.383699 -17.587624 0.000000
10.126310 -17.840642 0.000000
0.147792 -11.962224 0.000000
-2.148694 -6.244917 0.000000
-7.354737 -3.675539 0.000000
-12.588413 -0.803957 0.000000
-18.164606 8.573048 0.000000
-12.958651 5.196529 0.000000
-18.639075 13.751857 0.000000
-21.504511 17.494894 0.000000
-28.940732 23.158458 0.000000
-24.346265 21.554633 0.000000
-30.323496 28.634784 0.000000
-34.253388 33.375505 0.000000
-36.955897 39.578045 0.000000
-39.838659 45.102730 0.000000
-43.332980 50.000000 0.000000
44.585205 -32.972023 0.000000
50.000000 -36.665896 0.000000
39.129277 -29.581790 0.000000
33.500555 -26.367625 0.000000
27.182790 -23.322100 0.000000
23.066011 -18.647792 0.000000
16.989882 -16.980165 0.000000
6.708995 -12.210635 0.000000
12.356574 -12.733624 0.000000
-3.381080 -1.492438 0.000000
3.908103 -6.973143 0.000000
1.022500 -2.121001 0.000000
-6.981402 2.316226 0.000000
-8.396453 7.793968 0.000000
-12.845795 11.932012 0.000000
-15.692419 17.700181 0.000000
-19.287249 22.982610 0.000000
-24.170962 27.354812 0.000000
-27.286300 33.626039 0.000000
-30.406623 39.161220 0.000000
-33.447762 44.738853 0.000000
-36.665984 50.000000 0.000000
44.547718 -26.499832 0.000000
50.000000 -29.998934 0.000000
39.040017 -23.179238 0.000000
33.449746 -19.899961 0.000000
28.040025 -16.574215 0.000000
22.682813 -13.124166 0.000000
17.176378 -9.907980 0.000000
10.906155 -6.632538 0.000000
-1.353274 2.310063 0.000000
6.206069 -1.734739 0.000000
2.904936 1.599425 0.000000
-3.525286 7.146082 0.000000
-6.312530 12.441439 0.000000
-9.629386 17.703618 0.000000
-13.167007 23.112694 0.000000
-17.316577 28.185184 0.000000
-20.570650 33.474405 0.000000
-23.665868 39.064003 0.000000
-26.830835 44.585373 0.000000
-29.999108 50.000000 0.000000
44.528710 -19.930560 0.000000
50.000000 -23.332126 0.000000
39.036347 -16.594057 0.000000
33.576275 -13.281206 0.000000
28.150515 -9.964911 0.000000
22.725775 -6.604575 0.000000
17.264548 -3.336908 0.000000
11.970571 0.196967 0.000000
1.926249 6.276406 0.000000
6.990221 3.814277 0.000000
-0.215549 11.933718 0.000000
-3.265160 17.530013 0.000000
-6.700648 22.977821 0.000000
-10.567812 28.267510 0.000000
-13.723926 33.661443 0.000000
-16.945608 39.080381 0.000000
-20.140483 44.548464 0.000000
-23.332354 50.000000 0.000000
44.536308 -13.303670 0.000000
50.000000 -16.665544 0.000000
39.079939 -9.966660 0.000000
33.646769 -6.641005 0.000000
28.236075 -3.307498 0.000000
22.846795 0.018172 0.000000
17.534901 3.357872 0.000000
12.207312 6.594755 0.000000
6.711723 10.822497 0.000000
3.301527 17.196241 0.000000
-0.081399 22.851723 0.000000
-3.518528 28.312648 0.000000
-6.831294 33.774358 0.000000
-10.137321 39.170557 0.000000
-13.435645 44.563572 0.000000
-16.665787 50.000000 0.000000
44.554375 -6.654716 0.000000
50.000000 -9.999211 0.000000
39.123407 -3.321323 0.000000
33.713411 0.008764 0.000000
28.333198 3.344112 0.000000
23.001524 6.693824 0.000000
17.832497 10.022603 0.000000
12.655460 12.229613 0.000000
9.789883 17.234543 0.000000
6.477989 22.722396 0.000000
3.188728 28.269593 0.000000
-0.115908 33.734714 0.000000
-3.425164 39.168581 0.000000
-6.725382 44.581841 0.000000
-9.999392 50.000000 0.000000
44.575684 0.001896 0.000000
50.000000 -3.333071 0.000000
39.166858 3.331884 0.000000
33.779268 6.655565 0.000000
28.424133 9.995029 0.000000
23.046328 13.416459 0.000000
16.948513 17.022465 0.000000
12.901631 22.670188 0.000000
9.814778 28.232167 0.000000
6.604184 33.718725 0.000000
3.286536 39.164418 0.000000
-0.029877 44.584594 0.000000
-3.333132 50.000000 0.000000
44.586747 6.665483 0.000000
50.000000 3.333046 0.000000
39.198051 9.981913 0.000000
33.843380 13.277063 0.000000
28.541835 16.584783 0.000000
23.386772 20.084347 0.000000
18.531739 23.112261 0.000000
16.393229 28.298702 0.000000
13.328910 33.754779 0.000000
9.986525 39.181959 0.000000
6.665951 44.584374 0.000000
3.333082 50.000000 0.000000
44.608903 13.317874 0.000000
50.000000 9.999286 0.000000
39.251336 16.612415 0.000000
33.931830 19.862859 0.000000
28.612243 22.925993 0.000000
23.279601 27.207523 0.000000
19.901289 33.303094 0.000000
16.573749 39.040956 0.000000
13.268288 44.526774 0.000000
9.999322 50.000000 0.000000
44.632071 19.972922 0.000000
50.000000 16.665715 0.000000
39.298465 23.262097 0.000000
34.043757 26.514701 0.000000
28.965719 28.539448 0.000000
26.202336 33.410113 0.000000
23.066680 38.968831 0.000000
19.888524 44.507065 0.000000
16.665689 50.000000 0.000000
44.639790 26.642865 0.000000
50.000000 23.332323 0.000000
39.293338 29.966663 0.000000
33.212351 33.371247 0.000000
29.412081 39.045833 0.000000
26.422339 44.505964 0.000000
23.332269 50.000000 0.000000
44.774962 33.291758 0.000000
50.000000 29.999107 0.000000
39.738162 36.596280 0.000000
34.831020 39.525591 0.000000
32.833788 44.514266 0.000000
29.999046 50.000000 0.000000
44.978225 39.877832 0.000000
50.000000 36.666026 0.000000
39.734839 43.969002 0.000000
36.665971 50.000000 0.000000
45.621273 45.409776 0.000000
50.000000 43.332996 0.000000
43.332917 50.000000 0.000000
50.000000 50.000000 0.000000
CELLS 578 2312
3 1 0 2
3 0 3 2
3 4 1 6
3 6 1 2
3 3 5 7
3 3 7 2
3 6 2 7
3 9 4 10
3 10 4 6
3 5 8 11
3 7 5 11
3 10 6 12
3 12 6 7
3 7 11 13
3 7 13 12
3 8 14 15
3 11 8 15
3 16 9 17
3 17 9 10
3 17 10 18
3 18 10 12
3 11 15 19
3 13 11 19
3 18 12 20
3 13 19 20
3 20 12 13
3 14 22 24
3 15 14 24
3 15 24 25
3 19 15 25
3 21 16 26
3 26 16 17
3 26 17 27
3 27 17 18
3 27 18 28
3 28 18 20
3 19 25 29
3 19 29 20
3 28 20 30
3 30 20 29
3 31 21 32
3 32 21 26
3 22 23 36
3 24 22 36
3 23 34 37
3 36 23 37
3 24 36 38
3 25 24 38
3 25 38 39
3 29 25 39
3 32 26 40
3 40 26 27
3 40 27 41
3 41 27 28
3 41 28 42
3 42 28 30
3 29 39 43
3 29 43 30
3 42 30 43
3 33 31 44
3 44 31 32
3 44 32 45
3 45 32 40
3 46 33 47
3 47 33 44
3 34 35 50
3 37 34 50
3 35 48 51
3 50 35 51
3 36 37 52
3 38 36 52
3 37 50 53
3 52 37 53
3 38 52 54
3 39 38 54
3 39 54 55
3 43 39 55
3 45 40 56
3 56 40 41
3 56 41 57
3 57 41 42
3 57 42 58
3 58 42 43
3 43 55 59
3 43 59 58
3 47 44 60
3 60 44 45
3 60 45 61
3 61 45 56
3 62 46 63
3 63 46 47
3 63 47 64
3 64 47 60
3 48 49 68
3 51 48 68
3 49 66 69
3 68 49 69
3 50 51 70
3 53 50 70
3 51 68 71
3 70 51 71
3 52 53 72
3 54 52 72
3 53 70 73
3 72 53 73
3 54 72 74
3 55 54 74
3 55 74 75
3 59 55 75
3 61 56 76
3 76 56 57
3 76 57 77
3 77 57 58
3 77 58 78
3 59 75 78
3 78 58 59
3 64 60 79
3 79 60 61
3 79 61 80
3 80 61 76
3 65 62 81
3 81 62 63
3 81 63 82
3 82 63 64
3 82 64 83
3 83 64 79
3 84 65 85
3 85 65 81
3 66 67 89
3 69 66 89
3 67 87 90
3 89 67 90
3 68 69 91
3 71 68 91
3 69 89 92
3 91 69 92
3 70 71 93
3 73 70 93
3 71 91 94
3 93 71 94
3 72 73 95
3 74 72 95
3 73 93 96
3 95 73 96
3 74 95 97
3 75 74 97
3 75 97 98
3 78 75 98
3 80 76 99
3 99 76 77
3 99 77 100
3 100 77 78
3 100 78 101
3 98 101 78
3 83 79 102
3 102 79 80
3 102 80 103
3 103 80 99
3 85 81 104
3 104 81 82
3 105 83 102
3 104 82 106
3 106 82 83
3 106 83 105
3 86 84 107
3 107 84 85
3 107 85 108
3 108 85 104
3 109 86 107
3 110 86 109
3 87 88 112
3 90 87 112
3 112 88 113
3 88 114 113
3 90 112 115
3 89 90 116
3 92 89 116
3 116 90 115
3 91 92 117
3 94 91 117
3 92 116 118
3 117 92 118
3 93 94 119
3 96 93 119
3 94 117 120
3 119 94 120
3 95 96 121
3 97 95 121
3 96 119 122
3 121 96 122
3 97 121 123
3 98 97 123
3 98 123 124
3 98 124 101
3 103 99 125
3 125 99 100
3 125 100 126
3 126 100 101
3 126 101 124
3 105 102 127
3 127 102 103
3 127 103 128
3 128 103 125
3 129 105 127
3 108 104 130
3 130 104 106
3 130 106 131
3 131 106 105
3 131 105 129
3 108 130 132
3 109 107 133
3 133 107 108
3 133 108 134
3 108 132 134
3 135 109 133
3 111 110 136
3 136 110 109
3 136 109 135
3 137 111 136
3 138 111 137
3 112 113 139
3 115 112 139
3 114 140 113
3 140 139 113
3 139 141 115
3 116 115 142
3 118 116 142
3 142 115 141
3 117 118 143
3 120 117 143
3 118 142 144
3 143 118 144
3 119 120 145
3 122 119 145
3 120 143 146
3 145 120 146
3 121 122 147
3 123 121 147
3 122 145 148
3 147 122 148
3 123 147 149
3 124 123 149
3 124 149 150
3 151 126 124
3 124 150 151
3 128 125 152
3 152 125 126
3 152 126 151
3 129 127 153
3 153 127 128
3 128 152 154
3 153 128 154
3 155 129 153
3 131 129 156
3 156 129 155
3 132 130 157
3 130 131 157
3 157 131 158
3 131 156 158
3 132 157 159
3 132 159 134
3 135 133 160
3 160 133 134
3 160 134 159
3 136 135 161
3 135 160 161
3 162 137 136
3 161 162 136
3 163 138 137
3 162 163 137
3 139 164 141
3 140 165 139
3 139 165 164
3 141 164 166
3 141 166 142
3 166 167 142
3 144 142 167
3 167 168 144
3 143 144 168
3 146 143 168
3 168 169 146
3 145 146 170
3 148 145 170
3 170 146 169
3 147 148 171
3 149 147 171
3 148 170 172
3 171 148 172
3 173 151 150
3 149 171 174
3 150 149 174
3 150 174 175
3 150 175 173
3 154 152 176
3 152 151 176
3 176 151 173
3 154 176 177
3 155 153 178
3 177 178 154
3 154 178 153
3 156 155 179
3 155 178 179
3 180 158 156
3 179 180 156
3 181 159 157
3 180 181 158
3 181 157 158
3 182 160 159
3 181 182 159
3 183 161 160
3 182 183 160
3 184 162 161
3 184 161 183
3 185 163 162
3 184 185 162
3 164 186 166
3 165 187 164
3 164 187 186
3 166 186 188
3 166 188 167
3 167 188 189
3 167 189 168
3 168 189 190
3 168 190 169
3 169 190 191
3 169 191 170
3 192 172 170
3 170 191 192
3 192 193 172
3 171 172 193
3 174 171 193
3 194 173 175
3 176 173 194
3 175 174 195
3 193 195 174
3 195 196 175
3 175 196 194
3 197 177 176
3 194 197 176
3 198 178 177
3 197 198 177
3 199 179 178
3 198 199 178
3 200 180 179
3 199 200 179
3 201 181 180
3 200 201 180
3 202 182 181
3 201 202 181
3 203 183 182
3 202 203 182
3 204 184 183
3 203 204 183
3 205 185 184
3 204 205 184
3 186 206 188
3 187 207 186
3 186 207 206
3 188 206 208
3 188 208 189
3 189 208 209
3 189 209 190
3 190 209 210
3 190 210 191
3 191 210 211
3 191 211 192
3 192 211 212
3 192 212 193
3 193 212 213
3 193 213 195
3 214 197 194
3 214 194 196
3 195 213 215
3 195 215 196
3 196 215 214
3 216 198 197
3 214 216 197
3 217 199 198
3 216 217 198
3 218 200 199
3 217 218 199
3 219 201 200
3 218 219 200
3 220 202 201
3 219 220 201
3 221 203 202
3 220 221 202
3 222 204 203
3 221 222 203
3 223 205 204
3 222 223 204
3 206 224 208
3 207 225 206
3 206 225 224
3 208 224 226
3 208 226 209
3 209 226 227
3 209 227 210
3 210 227 228
3 210 228 211
3 211 228 229
3 211 229 212
3 212 229 230
3 212 230 213
3 213 230 231
3 213 231 215
3 232 216 214
3 215 231 232
3 232 214 215
3 233 217 216
3 232 233 216
3 234 218 217
3 233 234 217
3 235 219 218
3 234 235 218
3 236 220 219
3 235 236 219
3 237 221 220
3 236 237 220
3 238 222 221
3 237 238 221
3 239 223 222
3 238 239 222
3 224 240 226
3 225 241 224
3 224 241 240
3 226 240 242
3 226 242 227
3 227 242 243
3 227 243 228
3 228 243 244
3 228 244 229
3 244 245 229
3 229 245 230
3 230 245 246
3 230 246 231
3 231 246 247
3 231 247 232
3 248 233 232
3 248 232 247
3 249 234 233
3 248 249 233
3 250 235 234
3 249 250 234
3 251 236 235
3 250 251 235
3 252 237 236
3 251 252 236
3 253 238 237
3 252 253 237
3 254 239 238
3 253 254 238
3 240 255 242
3 241 256 240
3 240 256 255
3 242 255 257
3 242 257 243
3 243 257 258
3 243 258 244
3 244 258 259
3 244 259 245
3 245 259 260
3 245 260 246
3 246 260 261
3 246 261 247
3 248 247 261
3 262 249 248
3 261 262 248
3 263 250 249
3 262 263 249
3 264 251 250
3 263 264 250
3 265 252 251
3 264 265 251
3 266 253 252
3 265 266 252
3 267 254 253
3 266 267 253
3 255 268 257
3 256 269 255
3 255 269 268
3 257 268 270
3 257 270 258
3 258 270 271
3 258 271 259
3 259 271 272
3 259 272 260
3 260 272 273
3 260 273 261
3 274 262 261
3 261 273 274
3 275 263 262
3 274 275 262
3 276 264 263
3 275 276 263
3 277 265 264
3 276 277 264
3 278 266 265
3 277 278 265
3 279 267 266
3 278 279 266
3 268 280 270
3 269 281 268
3 268 281 280
3 270 280 282
3 270 282 271
3 271 282 283
3 271 283 272
3 283 284 272
3 272 284 273
3 285 275 274
3 273 284 285
3 285 274 273
3 286 276 275
3 285 286 275
3 287 277 276
3 286 287 276
3 288 278 277
3 287 288 277
3 289 279 278
3 288 289 278
3 280 290 282
3 281 291 280
3 280 291 290
3 282 290 292
3 282 292 283
3 283 292 293
3 283 293 284
3 284 293 294
3 284 294 285
3 295 286 285
3 295 285 294
3 296 287 286
3 295 296 286
3 297 288 287
3 296 297 287
3 298 289 288
3 297 298 288
3 290 299 292
3 291 300 290
3 290 300 299
3 292 299 301
3 292 301 293
3 293 301 302
3 293 302 294
3 294 302 295
3 303 296 295
3 303 295 302
3 304 297 296
3 303 304 296
3 305 298 297
3 304 305 297
3 299 306 301
3 300 307 299
3 299 307 306
3 301 306 308
3 301 308 302
3 309 303 302
3 302 308 309
3 310 304 303
3 309 310 303
3 311 305 304
3 310 311 304
3 306 312 308
3 307 313 306
3 306 313 312
3 314 310 309
3 308 312 314
3 314 309 308
3 315 311 310
3 314 315 310
3 312 316 314
3 313 317 312
3 312 317 316
3 318 315 314
3 318 314 316
3 317 319 316
3 319 318 316
CELL_TYPES 578
5
5
5
5
5
5
5
5
5
5
5
5
5
5
5
5
5
5
5
5
5
5
5
5
5
5
5
5
5
5
5
5
5
5
5
5
5
5
5
5
5
5
5
5
5
5
5
5
5
5
5
5
5
5
5
5
5
5
5
5
5
5
5
5
5
5
5
5
5
5
5
5
5
5
5
5
5
5
5
5
5
5
5
5
5
5
5
5
5
5
5
5
5
5
5
5
5
5
5
5
5
5
5
5
5
5
5
5
5
5
5
5
5
5
5
5
5
5
5
5
5
5
5
5
5
5
5
5
5
5
5
5
5
5
5
5
5
5
5
5
5
5
5
5
5
5
5
5
5
5
5
5
5
5
5
5
5
5
5
5
5
5
5
5
5
5
5
5
5
5
5
5
5
5
5
5
5
5
5
5
5
5
5
5
5
5
5
5
5
5
5
5
5
5
5
5
5
5
5
5
5
5
5
5
5
5
5
5
5
5
5
5
5
5
5
5
5
5
5
5
5
5
5
5
5
5
5
5
5
5
5
5
5
5
5
5
5
5
5
5
5
5
5
5
5
5
5
5
5
5
5
5
5
5
5
5
5
5
5
5
5
5
5
5
5
5
5
5
5
5
5
5
5
5
5
5
5
5
5
5
5
5
5
5
5
5
5
5
5
5
5
5
5
5
5
5
5
5
5
5
5
5
5
5
5
5
5
5
5
5
5
5
5
5
5
5
5
5
5
5
5
5
5
5
5
5
5
5
5
5
5
5
5
5
5
5
5
5
5
5
5
5
5
5
5
5
5
5
5
5
5
5
5
5
5
5
5
5
5
5
5
5
5
5
5
5
5
5
5
5
5
5
5
5
5
5
5
5
5
5
5
5
5
5
5
5
5
5
5
5
5
5
5
5
5
5
5
5
5
5
5
5
5
5
5
5
5
5
5
5
5
5
5
5
5
5
5
5
5
5
5
5
5
5
5
5
5
5
5
5
5
5
5
5
5
5
5
5
5
5
5
5
5
5
5
5
5
5
5
5
5
5
5
5
5
5
5
5
5
5
5
5
5
5
5
5
5
5
5
5
5
5
5
5
5
5
5
5
5
5
5
5
5
5
5
5
5
5
5
5
5
5
5
5
5
5
5
5
5
5
5
5
5
5
5
5
5
5
5
5
5
5
5
5
5
5
5
5
5
5
5
5
5
5
5
5
5
5
5
5
5
5
5
5
5
5
5
5
5
5
5
5
5
5
5
5
5
5
5
5
5
5
5
5
5
5
5
5
5
5
5
5
5
5
5
5
5
5
5
5
5
5
5
5
5
5
5
5
POINT_DATA 320
SCALARS theta_e float 1
LOOKUP_TABLE default
1.000001
1.000001
1.000001
1.000001
1.000001
1.000001
1.000001
1.000001
1.000001
1.000001
1.000001
1.000001
1.000001
1.000001
1.000001
1.000001
1.000001
1.000001
1.000001
1.000001
1.000001
1.000001
1.000001
1.000001
1.000001
1.000001
1.000001
1.000001
1.000001
1.000001
1.000001
1.000001
1.000001
1.000001
1.000001
1.000001
1.000001
1.000001
1.000001
1.000001
1.000001
1.000001
1.000001
1.000001
1.000001
1.000001
1.000001
1.000001
1.000001
1.000001
1.000001
1.000001
1.000001
1.000001
1.000001
1.000001
1.000001
1.000001
1.000001
1.000001
1.000001
1.000001
1.000001
1.000001
1.000001
1.000001
1.000001
1.000001
1.000001
1.000001
1.000001
1.000001
1.000001
1.000001
1.000001
1.000001
1.000001
1.000001
1.000001
1.000001
1.000001
1.000001
1.000001
1.000001
1.000001
1.000001
1.000001
1.000001
1.000001
1.000001
1.000001
1.000001
1.000001
1.000001
1.000001
1.000001
1.000001
1.000001
1.000001
1.000001
1.000001
1.000001
1.000001
1.000001
1.000001
1.000001
1.000001
1.000001
1.000001
1.000001
1.000001
1.000001
1.000001
1.000001
1.000001
1.000001
1.000001
1.000001
1.000001
1.000001
1.000001
1.000001
1.000001
1.000001
0.999994
1.000002
0.999999
1.000001
1.000002
1.000001
1.000001
1.000001
1.000001
1.000001
1.000001
1.000001
1.000001
1.000001
1.000001
1.000001
1.000001
1.000001
1.000001
1.000001
1.000001
1.000001
1.000001
1.000001
1.000001
0.999993
0.999972
0.999981
0.999996
1.000001
0.999998
1.000001
1.000001
1.000001
1.000001
1.000001
1.000001
1.000001
1.000001
1.000001
1.000001
1.000001
1.000001
1.000001
1.000001
1.000001
1.000001
0.999998
1.000001
0.999961
0.999979
0.999962
0.999976
0.999994
1.000002
1.000001
1.000001
1.000001
1.000001
1.000001
1.000001
1.000001
1.000001
1.000001
1.000001
1.000001
1.000001
1.000001
1.000001
0.999994
0.999962
0.999973
0.999964
0.999977
0.999999
1.000001
1.000001
1.000001
1.000001
1.000001
1.000001
1.000001
1.000001
1.000001
1.000001
1.000001
1.000001
1.000001
1.000001
0.999992
0.999973
0.999980
0.999993
1.000001
1.000001
1.000001
1.000001
1.000001
1.000001
1.000001
1.000001
1.000001
1.000001
1.000001
1.000001
1.000001
1.000001
0.999997
0.999993
1.000001
1.000001
1.000001
1.000001
1.000001
1.000001
1.000001
1.000001
1.000001
1.000001
1.000001
1.000001
1.000001
1.000001
1.000000
1.000001
1.000001
1.000001
1.000001
1.000001
1.000001
1.000001
1.000001
1.000001
1.000001
1.000001
1.000001
1.000001
1.000001
1.000001
1.000001
1.000001
1.000001
1.000001
1.000001
1.000001
1.000001
1.000001
1.000001
1.000001
1.000001
1.000001
1.000001
1.000001
1.000001
1.000001
1.000001
1.000001
1.000001
1.000001
1.000001
1.000001
1.000001
1.000001
1.000001
1.000001
1.000001
1.000001
1.000001
1.000001
1.000001
1.000001
1.000001
1.000001
1.000001
1.000001
1.000001
1.000001
1.000001
1.000001
1.000001
1.000001
1.000001
1.000001
1.000001
1.000001
1.000001
1.000001
1.000001
1.000001
1.000001
1.000001
1.000001
1.000001
1.000001
1.000001
1.000001
VECTORS fa_u float
0.000000 0.000000 0.000000
0.000000 0.000000 0.000000
0.000000 0.000000 0.000000
0.000000 0.000000 0.000000
0.000000 0.000000 0.000000
0.000000 0.000000 0.000000
0.000000 0.000000 0.000000
0.000000 0.000000 0.000000
0.000000 0.000000 0.000000
0.000000 0.000000 0.000000
0.000000 0.000000 0.000000
0.000000 0.000000 0.000000
0.000000 0.000000 0.000000
0.000000 0.000000 0.000000
0.000000 0.000000 0.000000
0.000000 0.000000 0.000000
0.000000 0.000000 0.000000
0.000000 0.000000 0.000000
0.000000 0.000000 0.000000
0.000000 0.000000 0.000000
0.000000 0.000000 0.000000
0.000000 0.000000 0.000000
0.000000 0.000000 0.000000
0.000000 0.000000 0.000000
0.000000 0.000000 0.000000
0.000000 0.000000 0.000000
0.000000 0.000000 0.000000
0.000000 0.000000 0.000000
0.000000 0.000000 0.000000
0.000000 0.000000 0.000000
0.000000 0.000000 0.000000
0.000000 0.000000 0.000000
0.000000 0.000000 0.000000
0.000000 0.000000 0.000000
0.000000 0.000000 0.000000
0.000000 0.000000 0.000000
0.000000 0.000000 0.000000
0.000000 0.000000 0.000000
0.000000 0.000000 0.000000
0.000000 0.000000 0.000000
0.000000 0.000000 0.000000
0.000000 0.000000 0.000000
0.000000 0.000000 0.000000
0.000000 0.000000 0.000000
0.000000 0.000000 0.000000
0.000000 0.000000 0.000000
0.000000 0.000000 0.000000
0.000000 0.000000 0.000000
0.000000 0.000000 0.000000
0.000000 0.000000 0.000000
0.000000 0.000000 0.000000
0.000000 0.000000 0.000000
0.000000 0.000000 0.000000
0.000000 0.000000 0.000000
0.000000 0.000000 0.000000
0.000000 0.000000 0.000000
0.000000 0.000000 0.000000
0.000000 0.000000 0.000000
0.000000 0.000000 0.000000
0.000000 0.000000 0.000000
0.000000 0.000000 0.000000
0.000000 0.000000 0.000000
0.000000 0.000000 0.000000
0.000000 0.000000 0.000000
0.000000 0.000000 0.000000
0.000000 0.000000 0.000000
0.000000 0.000000 0.000000
0.000000 0.000000 0.000000
0.000000 0.000000 0.000000
0.000000 0.000000 0.000000
0.000000 0.000000 0.000000
0.000000 0.000000 0.000000
0.000000 0.000000 0.000000
0.000000 0.000000 0.000000
0.000000 0.000000 0.000000
0.000000 0.000000 0.000000
0.000000 0.000000 0.000000
0.000000 0.000000 0.000000
0.000000 0.000000 0.000000
0.000000 0.000000 0.000000
0.000000 0.000000 0.000000
0.000000 0.000000 0.000000
0.000000 0.000000 0.000000
0.000000 0.000000 0.000000
0.000000 0.000000 0.000000
0.000000 0.000000 0.000000
0.000000 0.000000 0.000000
0.000000 0.000000 0.000000
0.000000 0.000000 0.000000
0.000000 0.000000 0.000000
0.000000 0.000000 0.000000
0.000000 0.000000 0.000000
0.000000 0.000000 0.000000
0.000000 0.000000 0.000000
0.000000 0.000000 0.000000
0.000000 0.000000 0.000000
0.000000 0.000000 0.000000
0.000000 0.000000 0.000000
0.000000 0.000000 0.000000
0.000000 0.000000 0.000000
0.000000 0.000000 0.000000
0.000000 0.000000 0.000000
0.000000 0.000000 0.000000
0.000000 0.000000 0.000000
0.000000 0.000000 0.000000
0.000000 0.000000 0.000000
0.000000 0.000000 0.000000
0.000000 0.000000 0.000000
0.000000 0.000000 0.000000
0.000000 0.000000 0.000000
0.000000 0.000000 0.000000
0.000000 0.000000 0.000000
0.000000 0.000000 0.000000
0.000000 0.000000 0.000000
0.000000 0.000000 0.000000
0.000000 0.000000 0.000000
0.000000 0.000000 0.000000
0.000000 0.000000 0.000000
0.000000 0.000000 0.000000
0.000000 0.000000 0.000000
0.000000 0.000000 0.000000
0.000000 0.000000 0.000000
0.000000 0.000000 0.000000
0.000000 0.000000 0.000000
0.000000 0.000000 0.000000
0.000000 0.000000 0.000000
0.000000 0.000000 0.000000
0.000000 0.000000 0.000000
0.000000 0.000000 0.000000
0.000000 0.000000 0.000000
0.000000 0.000000 0.000000
0.000000 0.000000 0.000000
0.000000 0.000000 0.000000
0.000000 0.000000 0.000000
0.000000 0.000000 0.000000
0.000000 0.000000 0.000000
0.000000 0.000000 0.000000
0.000000 0.000000 0.000000
0.000000 0.000000 0.000000
0.000000 0.000000 0.000000
0.000000 0.000000 0.000000
0.000000 0.000000 0.000000
0.000000 0.000000 0.000000
0.000000 0.000000 0.000000
0.000000 0.000000 0.000000
0.000000 0.000000 0.000000
0.000000 0.000000 0.000000
0.000000 0.000000 0.000000
0.000000 0.000000 0.000000
0.000000 0.000000 0.000000
0.000000 0.000000 0.000000
0.000000 0.000000 0.000000
0.000000 0.000000 0.000000
0.000000 0.000000 0.000000
0.000000 0.000000 0.000000
0.000000 0.000000 0.000000
0.000000 0.000000 0.000000
0.000000 0.000000 0.000000
0.000000 0.000000 0.000000
0.000000 0.000000 0.000000
0.000000 0.000000 0.000000
0.000000 0.000000 0.000000
0.000000 0.000000 0.000000
0.000000 0.000000 0.000000
0.000000 0.000000 0.000000
0.000000 0.000000 0.000000
0.000000 0.000000 0.000000
0.000000 0.000000 0.000000
0.000000 0.000000 0.000000
0.000000 0.000000 0.000000
0.000000 0.000000 0.000000
0.000000 0.000000 0.000000
0.000000 0.000000 0.000000
0.000000 0.000000 0.000000
0.000000 0.000000 0.000000
0.000000 0.000000 0.000000
0.000000 0.000000 0.000000
0.000000 0.000000 0.000000
0.000000 0.000000 0.000000
0.000000 0.000000 0.000000
0.000000 0.000000 0.000000
0.000000 0.000000 0.000000
0.000000 0.000000 0.000000
0.000000 0.000000 0.000000
0.000000 0.000000 0.000000
0.000000 0.000000 0.000000
0.000000 0.000000 0.000000
0.000000 0.000000 0.000000
0.000000 0.000000 0.000000
0.000000 0.000000 0.000000
0.000000 0.000000 0.000000
0.000000 0.000000 0.000000
0.000000 0.000000 0.000000
0.000000 0.000000 0.000000
0.000000 0.000000 0.000000
0.000000 0.000000 0.000000
0.000000 0.000000 0.000000
0.000000 0.000000 0.000000
0.000000 0.000000 0.000000
0.000000 0.000000 0.000000
0.000000 0.000000 0.000000
0.000000 0.000000 0.000000
0.000000 0.000000 0.000000
0.000000 0.000000 0.000000
0.000000 0.000000 0.000000
0.000000 0.000000 0.000000
0.000000 0.000000 0.000000
0.000000 0.000000 0.000000
0.000000 0.000000 0.000000
0.000000 0.000000 0.000000
0.000000 0.000000 0.000000
0.000000 0.000000 0.000000
0.000000 0.000000 0.000000
0.000000 0.000000 0.000000
0.000000 0.000000 0.000000
0.000000 0.000000 0.000000
0.000000 0.000000 0.000000
0.000000 0.000000 0.000000
0.000000 0.000000 0.000000
0.000000 0.000000 0.000000
0.000000 0.000000 0.000000
0.000000 0.000000 0.000000
0.000000 0.000000 0.000000
0.000000 0.000000 0.000000
0.000000 0.000000 0.000000
0.000000 0.000000 0.000000
0.000000 0.000000 0.000000
0.000000 0.000000 0.000000
0.000000 0.000000 0.000000
0.000000 0.000000 0.000000
0.000000 0.000000 0.000000
0.000000 0.000000 0.000000
0.000000 0.000000 0.000000
0.000000 0.000000 0.000000
0.000000 0.000000 0.000000
0.000000 0.000000 0.000000
0.000000 0.000000 0.000000
0.000000 0.000000 0.000000
0.000000 0.000000 0.000000
0.000000 0.000000 0.000000
0.000000 0.000000 0.000000
0.000000 0.000000 0.000000
0.000000 0.000000 0.000000
0.000000 0.000000 0.000000
0.000000 0.000000 0.000000
0.000000 0.000000 0.000000
0.000000 0.000000 0.000000
0.000000 0.000000 0.000000
0.000000 0.000000 0.000000
0.000000 0.000000 0.000000
0.000000 0.000000 0.000000
0.000000 0.000000 0.000000
0.000000 0.000000 0.000000
0.000000 0.000000 0.000000
0.000000 0.000000 0.000000
0.000000 0.000000 0.000000
0.000000 0.000000 0.000000
0.000000 0.000000 0.000000
0.000000 0.000000 0.000000
0.000000 0.000000 0.000000
0.000000 0.000000 0.000000
0.000000 0.000000 0.000000
0.000000 0.000000 0.000000
0.000000 0.000000 0.000000
0.000000 0.000000 0.000000
0.000000 0.000000 0.000000
0.000000 0.000000 0.000000
0.000000 0.000000 0.000000
0.000000 0.000000 0.000000
0.000000 0.000000 0.000000
0.000000 0.000000 0.000000
0.000000 0.000000 0.000000
0.000000 0.000000 0.000000
0.000000 0.000000 0.000000
0.000000 0.000000 0.000000
0.000000 0.000000 0.000000
0.000000 0.000000 0.000000
0.000000 0.000000 0.000000
0.000000 0.000000 0.000000
0.000000 0.000000 0.000000
0.000000 0.000000 0.000000
0.000000 0.000000 0.000000
0.000000 0.000000 0.000000
0.000000 0.000000 0.000000
0.000000 0.000000 0.000000
0.000000 0.000000 0.000000
0.000000 0.000000 0.000000
0.000000 0.000000 0.000000
0.000000 0.000000 0.000000
0.000000 0.000000 0.000000
0.000000 0.000000 0.000000
0.000000 0.000000 0.000000
0.000000 0.000000 0.000000
0.000000 0.000000 0.000000
0.000000 0.000000 0.000000
0.000000 0.000000 0.000000
0.000000 0.000000 -50.000000
-50.000000 0.000000 -50.000000
-43.333029 0.000000 -45.688368
-45.491128 0.000000 -43.332986
-50.000000 0.000000 -50.000000
-36.666042 0.000000 -36.666058
-50.000000 0.000000 -45.081100
-39.969769 0.000000 -40.027160
-44.152252 0.000000 -29.999108
-50.000000 0.000000 -50.000000
-29.999084 0.000000 -44.847067
-33.448898 0.000000 -33.144896
-44.675660 0.000000 -39.869101
-36.786969 0.000000 -35.128628
-39.801270 0.000000 -23.332277
-50.000000 0.000000 -26.539138
-44.666727 0.000000 -50.000000
-23.332260 0.000000 -44.665262
-26.803901 0.000000 -39.364219
-30.225654 0.000000 -29.606243
-39.359332 0.000000 -33.368200
-33.655409 0.000000 -50.000000
-16.665632 0.000000 -16.665669
-50.000000 0.000000 -9.999292
