# vtk DataFile Version 2.0
CellBP Time: 6.28
ASCII
DATASET UNSTRUCTURED_GRID
POINTS 320 double
-50.000000 -50.000000 0.000000
-50.000000 -43.332369 0.000000
-45.688604 -45.491327 0.000000
-43.332230 -50.000000 0.000000
-50.000000 -36.664677 0.000000
-36.664733 -50.000000 0.000000
-45.081354 -39.969912 0.000000
-40.027530 -44.152462 0.000000
-29.997163 -50.000000 0.000000
-50.000000 -29.997077 0.000000
-44.847318 -33.449022 0.000000
-33.145185 -44.675889 0.000000
-39.869418 -36.787127 0.000000
-35.129007 -39.801552 0.000000
-23.329976 -50.000000 0.000000
-26.539446 -44.666839 0.000000
-50.000000 -23.329911 0.000000
-44.665371 -26.804071 0.000000
-39.364456 -30.225828 0.000000
-29.606670 -39.359559 0.000000
-33.368640 -33.655674 0.000000
-50.000000 -16.663376 0.000000
-16.663507 -50.000000 0.000000
-9.997767 -50.000000 0.000000
-19.965231 -44.588720 0.000000
-23.216182 -39.114756 0.000000
-44.691828 -20.097056 0.000000
-39.367940 -23.528193 0.000000
-34.106380 -26.937123 0.000000
-26.384800 -33.577542 0.000000
-29.156593 -28.926864 0.000000
-50.000000 -9.997391 0.000000
-44.666308 -13.410304 0.000000
-50.000000 -3.332105 0.000000
-3.332626 -50.000000 0.000000
3.332368 -50.000000 0.000000
-13.344014 -44.598897 0.000000
-6.684938 -44.610503 0.000000
-16.693968 -39.153122 0.000000
-20.107170 -33.342632 0.000000
-39.338121 -16.804616 0.000000
-34.019013 -20.274515 0.000000
-28.781388 -23.449240 0.000000
-23.510811 -27.350973 0.000000
-44.635302 -6.705497 0.000000
-39.293120 -10.101691 0.000000
-50.000000 3.332820 0.000000
-44.626535 -0.015377 0.000000
9.997659 -50.000000 0.000000
16.663531 -50.000000 0.000000
-0.016168 -44.618597 0.000000
6.651782 -44.635345 0.000000
-10.044937 -39.222519 0.000000
-3.368289 -39.220210 0.000000
-13.484333 -33.798450 0.000000
-16.708920 -28.271604 0.000000
-33.947949 -13.513481 0.000000
-28.602695 -16.892025 0.000000
-23.292698 -20.313328 0.000000
-18.661001 -23.284539 0.000000
-39.267349 -3.392577 0.000000
-33.904495 -6.796692 0.000000
-50.000000 9.997876 0.000000
-44.606528 6.673802 0.000000
-39.260649 3.325847 0.000000
-50.000000 16.663572 0.000000
23.329998 -50.000000 0.000000
29.997069 -50.000000 0.000000
13.317777 -44.662924 0.000000
19.989928 -44.700091 0.000000
3.307644 -39.245098 0.000000
9.971891 -39.290368 0.000000
-6.735665 -33.791341 0.000000
-0.032148 -33.829432 0.000000
-10.096005 -28.292383 0.000000
-13.122669 -22.896084 0.000000
-28.531498 -10.214108 0.000000
-23.067870 -13.663766 0.000000
-16.979149 -17.212572 0.000000
-33.884201 -0.065451 0.000000
-28.562763 -3.580100 0.000000
-44.563960 13.380977 0.000000
-39.189864 10.015262 0.000000
-33.905454 6.616115 0.000000
-50.000000 23.329827 0.000000
-44.557341 20.138592 0.000000
-50.000000 29.997175 0.000000
36.664586 -50.000000 0.000000
43.332252 -50.000000 0.000000
26.663524 -44.745388 0.000000
33.315499 -44.876143 0.000000
16.631750 -39.357673 0.000000
23.328419 -39.437179 0.000000
6.642976 -33.879583 0.000000
13.290506 -33.965424 0.000000
-3.346356 -28.363721 0.000000
3.358333 -28.451179 0.000000
-6.626260 -22.844883 0.000000
-9.962348 -17.315334 0.000000
-23.180512 -7.014130 0.000000
-17.813956 -10.334924 0.000000
-12.837971 -12.608292 0.000000
-28.607317 3.088746 0.000000
-23.266650 -0.469800 0.000000
-39.038443 16.746391 0.000000
-28.720080 9.925843 0.000000
-33.760783 13.318024 0.000000
-44.521714 26.717345 0.000000
-38.467782 23.892780 0.000000
-44.632737 33.086003 0.000000
-50.000000 36.665092 0.000000
-50.000000 43.332505 0.000000
39.922553 -45.069769 0.000000
45.474921 -45.660654 0.000000
50.000000 -50.000000 0.000000
36.626934 -39.982108 0.000000
30.012567 -39.458738 0.000000
19.904211 -34.092980 0.000000
26.585140 -34.319648 0.000000
9.988460 -28.512698 0.000000
16.610541 -28.660454 0.000000
0.050486 -22.963131 0.000000
6.812084 -23.155181 0.000000
-3.397853 -17.296897 0.000000
-6.807037 -10.897490 0.000000
-17.873939 -3.813926 0.000000
-12.549052 -7.033805 0.000000
-23.308200 6.069710 0.000000
-18.033958 2.439234 0.000000
-23.123620 12.096299 0.000000
-33.572146 19.788967 0.000000
-27.941730 16.886366 0.000000
-33.293277 24.723063 0.000000
-39.474070 30.053363 0.000000
-35.160915 28.137868 0.000000
-39.816504 35.101819 0.000000
-43.991956 39.982706 0.000000
-45.431166 45.685478 0.000000
-50.000000 50.000000 0.000000
44.117446 -39.899292 0.000000
50.000000 -43.331900 0.000000
39.639636 -35.047613 0.000000
33.463030 -33.424711 0.000000
22.985004 -28.818210 0.000000
28.731090 -29.247966 0.000000
13.460797 -23.121827 0.000000
20.054939 -23.439792 0.000000
3.366922 -17.590472 0.000000
10.123024 -17.843108 0.000000
0.165179 -11.811689 0.000000
-2.128080 -6.170572 0.000000
-7.186039 -3.579550 0.000000
-12.460381 -0.807837 0.000000
-18.172921 8.573246 0.000000
-12.937566 5.196537 0.000000
-18.637910 13.751043 0.000000
-21.503711 17.494095 0.000000
-28.941102 23.159305 0.000000
-24.346440 21.554258 0.000000
-30.324028 28.635227 0.000000
-34.253875 33.375712 0.000000
-36.956151 39.578191 0.000000
-39.838772 45.102970 0.000000
-43.332206 50.000000 0.000000
44.585418 -32.972286 0.000000
50.000000 -36.664234 0.000000
39.129397 -29.582070 0.000000
33.500734 -26.367795 0.000000
27.183256 -23.322125 0.000000
23.067271 -18.647981 0.000000
16.992325 -16.982232 0.000000
6.699202 -12.193447 0.000000
12.371537 -12.736879 0.000000
-3.366770 -1.485436 0.000000
3.807969 -6.801856 0.000000
1.023616 -2.120684 0.000000
-6.873890 2.273104 0.000000
-8.264809 7.675975 0.000000
-12.841712 11.928262 0.000000
-15.690631 17.698959 0.000000
-19.287460 22.981394 0.000000
-24.171002 27.354402 0.000000
-27.286424 33.625804 0.000000
-30.406807 39.161037 0.000000
-33.447977 44.738888 0.000000
-36.664479 50.000000 0.000000
44.547758 -26.500161 0.000000
50.000000 -29.996630 0.000000
39.040012 -23.179372 0.000000
33.449540 -19.900006 0.000000
28.039661 -16.573384 0.000000
22.679835 -13.123683 0.000000
17.175744 -9.900579 0.000000
10.795904 -6.584444 0.000000
-1.358817 2.319422 0.000000
6.143185 -1.713049 0.000000
2.889497 1.593501 0.000000
-3.460545 7.006249 0.000000
-6.313559 12.428446 0.000000
-9.629316 17.711059 0.000000
-13.167972 23.114468 0.000000
-17.316923 28.185050 0.000000
-20.571050 33.474184 0.000000
-23.666150 39.063900 0.000000
-26.831266 44.585341 0.000000
-29.997141 50.000000 0.000000
44.528637 -19.930948 0.000000
50.000000 -23.329515 0.000000
39.036146 -16.594235 0.000000
33.575813 -13.281274 0.000000
28.149188 -9.965133 0.000000
22.724711 -6.604840 0.000000
17.264921 -3.335261 0.000000
11.820945 0.214524 0.000000
1.910371 6.209816 0.000000
6.827792 3.723287 0.000000
-0.225327 11.788329 0.000000
-3.249687 17.531379 0.000000
-6.699064 22.976457 0.000000
-10.567144 28.267204 0.000000
-13.724302 33.660948 0.000000
-16.945952 39.080130 0.000000
-20.141011 44.548340 0.000000
-23.330191 50.000000 0.000000
44.536138 -13.304080 0.000000
50.000000 -16.663111 0.000000
39.079759 -9.966905 0.000000
33.646552 -6.641441 0.000000
28.236667 -3.308113 0.000000
22.849735 0.017335 0.000000
17.538026 3.342689 0.000000
12.183650 6.583089 0.000000
6.662960 10.710366 0.000000
3.302317 17.199693 0.000000
-0.080685 22.854510 0.000000
-3.519104 28.313116 0.000000
-6.831748 33.774634 0.000000
-10.137797 39.170498 0.000000
-13.436213 44.563444 0.000000
-16.663845 50.000000 0.000000
44.554126 -6.654997 0.000000
50.000000 -9.997492 0.000000
39.123181 -3.321476 0.000000
33.713308 0.008785 0.000000
28.333325 3.345047 0.000000
22.999526 6.693887 0.000000
17.834467 10.018898 0.000000
12.658415 12.242873 0.000000
9.784565 17.232986 0.000000
6.479566 22.722451 0.000000
3.189368 28.270305 0.000000
-0.116062 33.734926 0.000000
-3.425358 39.168696 0.000000
-6.725788 44.581721 0.000000
-9.998049 50.000000 0.000000
44.575492 0.001784 0.000000
50.000000 -3.332487 0.000000
39.166881 3.331804 0.000000
33.779516 6.655628 0.000000
28.423889 9.994737 0.000000
23.046522 13.416174 0.000000
16.950876 17.024319 0.000000
12.901578 22.667350 0.000000
9.815429 28.231737 0.000000
6.604397 33.718813 0.000000
3.286535 39.164434 0.000000
-0.029974 44.584496 0.000000
-3.332690 50.000000 0.000000
44.586660 6.665639 0.000000
50.000000 3.332447 0.000000
39.198204 9.982024 0.000000
33.843518 13.276906 0.000000
28.542369 16.584337 0.000000
23.387689 20.084281 0.000000
18.531999 23.113418 0.000000
16.392610 28.298516 0.000000
13.329045 33.754751 0.000000
9.986712 39.181951 0.000000
6.666134 44.584239 0.000000
3.332528 50.000000 0.000000
44.608886 13.318260 0.000000
50.000000 9.997766 0.000000
39.251396 16.612594 0.000000
33.932048 19.862902 0.000000
28.612574 22.926003 0.000000
23.279691 27.207796 0.000000
19.901421 33.302873 0.000000
16.574082 39.040840 0.000000
13.268685 44.526640 0.000000
9.997830 50.000000 0.000000
44.632070 19.973364 0.000000
50.000000 16.663678 0.000000
39.298561 23.262354 0.000000
34.043956 26.514885 0.000000
28.965974 28.539508 0.000000
26.202580 33.410188 0.000000
23.066948 38.968803 0.000000
19.888948 44.507023 0.000000
16.663538 50.000000 0.000000
44.639891 26.643270 0.000000
50.000000 23.330152 0.000000
39.293507 29.966958 0.000000
33.212598 33.371452 0.000000
29.412407 39.045942 0.000000
26.422717 44.506009 0.000000
23.329930 50.000000 0.000000
44.775162 33.292061 0.000000
50.000000 29.997187 0.000000
39.738345 36.596498 0.000000
34.831293 39.525854 0.000000
32.834101 44.514475 0.000000
29.996950 50.000000 0.000000
44.978431 39.878078 0.000000
50.000000 36.664651 0.000000
39.735200 43.969250 0.000000
36.664443 50.000000 0.000000
45.621516 45.410044 0.000000
50.000000 43.332273 0.000000
43.332007 50.000000 0.000000
50.000000 50.000000 0.000000
CELLS 578 2312
3 1 0 2
3 0 3 2
3 4 1 6
3 6 1 2
3 3 5 7
3 3 7 2
3 6 2 7
3 9 4 10
3 10 4 6
3 5 8 11
3 7 5 11
3 10 6 12
3 12 6 7
3 7 11 13
3 7 13 12
3 8 14 15
3 11 8 15
3 16 9 17
3 17 9 10
3 17 10 18
3 18 10 12
3 11 15 19
3 13 11 19
3 18 12 20
3 13 19 20
3 20 12 13
3 14 22 24
3 15 14 24
3 15 24 25
3 19 15 25
3 21 16 26
3 26 16 17
3 26 17 27
3 27 17 18
3 27 18 28
3 28 18 20
3 19 25 29
3 19 29 20
3 28 20 30
3 30 20 29
3 31 21 32
3 32 21 26
3 22 23 36
3 24 22 36
3 23 34 37
3 36 23 37
3 24 36 38
3 25 24 38
3 25 38 39
3 29 25 39
3 32 26 40
3 40 26 27
3 40 27 41
3 41 27 28
3 41 28 42
3 42 28 30
3 29 39 43
3 29 43 30
3 42 30 43
3 33 31 44
3 44 31 32
3 44 32 45
3 45 32 40
3 46 33 47
3 47 33 44
3 34 35 50
3 37 34 50
3 35 48 51
3 50 35 51
3 36 37 52
3 38 36 52
3 37 50 53
3 52 37 53
3 38 52 54
3 39 38 54
3 39 54 55
3 43 39 55
3 45 40 56
3 56 40 41
3 56 41 57
3 57 41 42
3 57 42 58
3 58 42 43
3 43 55 59
3 43 59 58
3 47 44 60
3 60 44 45
3 60 45 61
3 61 45 56
3 62 46 63
3 63 46 47
3 63 47 64
3 64 47 60
3 48 49 68
3 51 48 68
3 49 66 69
3 68 49 69
3 50 51 70
3 53 50 70
3 51 68 71
3 70 51 71
3 52 53 72
3 54 52 72
3 53 70 73
3 72 53 73
3 54 72 74
3 55 54 74
3 55 74 75
3 59 55 75
3 61 56 76
3 76 56 57
3 76 57 77
3 77 57 58
3 77 58 78
3 59 75 78
3 78 58 59
3 64 60 79
3 79 60 61
3 79 61 80
3 80 61 76
3 65 62 81
3 81 62 63
3 81 63 82
3 82 63 64
3 82 64 83
3 83 64 79
3 84 65 85
3 85 65 81
3 66 67 89
3 69 66 89
3 67 87 90
3 89 67 90
3 68 69 91
3 71 68 91
3 69 89 92
3 91 69 92
3 70 71 93
3 73 70 93
3 71 91 94
3 93 71 94
3 72 73 95
3 74 72 95
3 73 93 96
3 95 73 96
3 74 95 97
3 75 74 97
3 75 97 98
3 78 75 98
3 80 76 99
3 99 76 77
3 99 77 100
3 100 77 78
3 100 78 101
3 98 101 78
3 83 79 102
3 102 79 80
3 102 80 103
3 103 80 99
3 85 81 104
3 104 81 82
3 105 83 102
3 104 82 106
3 106 82 83
3 106 83 105
3 86 84 107
3 107 84 85
3 107 85 108
3 108 85 104
3 109 86 107
3 110 86 109
3 87 88 112
3 90 87 112
3 112 88 113
3 88 114 113
3 90 112 115
3 89 90 116
3 92 89 116
3 116 90 115
3 91 92 117
3 94 91 117
3 92 116 118
3 117 92 118
3 93 94 119
3 96 93 119
3 94 117 120
3 119 94 120
3 95 96 121
3 97 95 121
3 96 119 122
3 121 96 122
3 97 121 123
3 98 97 123
3 98 123 124
3 98 124 101
3 103 99 125
3 125 99 100
3 125 100 126
3 126 100 101
3 126 101 124
3 105 102 127
3 127 102 103
3 127 103 128
3 128 103 125
3 129 105 127
3 108 104 130
3 130 104 106
3 130 106 131
3 131 106 105
3 131 105 129
3 108 130 132
3 109 107 133
3 133 107 108
3 133 108 134
3 108 132 134
3 135 109 133
3 111 110 136
3 136 110 109
3 136 109 135
3 137 111 136
3 138 111 137
3 112 113 139
3 115 112 139
3 114 140 113
3 140 139 113
3 139 141 115
3 116 115 142
3 118 116 142
3 142 115 141
3 117 118 143
3 120 117 143
3 118 142 144
3 143 118 144
3 119 120 145
3 122 119 145
3 120 143 146
3 145 120 146
3 121 122 147
3 123 121 147
3 122 145 148
3 147 122 148
3 123 147 149
3 124 123 149
3 124 149 150
3 151 126 124
3 124 150 151
3 128 125 152
3 152 125 126
3 152 126 151
3 129 127 153
3 153 127 128
3 128 152 154
3 153 128 154
3 155 129 153
3 131 129 156
3 156 129 155
3 132 130 157
3 130 131 157
3 157 131 158
3 131 156 158
3 132 157 159
3 132 159 134
3 135 133 160
3 160 133 134
3 160 134 159
3 136 135 161
3 135 160 161
3 162 137 136
3 161 162 136
3 163 138 137
3 162 163 137
3 139 164 141
3 140 165 139
3 139 165 164
3 141 164 166
3 141 166 142
3 166 167 142
3 144 142 167
3 167 168 144
3 143 144 168
3 146 143 168
3 168 169 146
3 145 146 170
3 148 145 170
3 170 146 169
3 147 148 171
3 149 147 171
3 148 170 172
3 171 148 172
3 173 151 150
3 149 171 174
3 150 149 174
3 150 174 175
3 150 175 173
3 154 152 176
3 152 151 176
3 176 151 173
3 154 176 177
3 155 153 178
3 177 178 154
3 154 178 153
3 156 155 179
3 155 178 179
3 180 158 156
3 179 180 156
3 181 159 157
3 180 181 158
3 181 157 158
3 182 160 159
3 181 182 159
3 183 161 160
3 182 183 160
3 184 162 161
3 184 161 183
3 185 163 162
3 184 185 162
3 164 186 166
3 165 187 164
3 164 187 186
3 166 186 188
3 166 188 167
3 167 188 189
3 167 189 168
3 168 189 190
3 168 190 169
3 169 190 191
3 169 191 170
3 192 172 170
3 170 191 192
3 192 193 172
3 171 172 193
3 174 171 193
3 194 173 175
3 176 173 194
3 175 174 195
3 193 195 174
3 195 196 175
3 175 196 194
3 197 177 176
3 194 197 176
3 198 178 177
3 197 198 177
3 199 179 178
3 198 199 178
3 200 180 179
3 199 200 179
3 201 181 180
3 200 201 180
3 202 182 181
3 201 202 181
3 203 183 182
3 202 203 182
3 204 184 183
3 203 204 183
3 205 185 184
3 204 205 184
3 186 206 188
3 187 207 186
3 186 207 206
3 188 206 208
3 188 208 189
3 189 208 209
3 189 209 190
3 190 209 210
3 190 210 191
3 191 210 211
3 191 211 192
3 192 211 212
3 192 212 193
3 193 212 213
3 193 213 195
3 214 197 194
3 214 194 196
3 195 213 215
3 195 215 196
3 196 215 214
3 216 198 197
3 214 216 197
3 217 199 198
3 216 217 198
3 218 200 199
3 217 218 199
3 219 201 200
3 218 219 200
3 220 202 201
3 219 220 201
3 221 203 202
3 220 221 202
3 222 204 203
3 221 222 203
3 223 205 204
3 222 223 204
3 206 224 208
3 207 225 206
3 206 225 224
3 208 224 226
3 208 226 209
3 209 226 227
3 209 227 210
3 210 227 228
3 210 228 211
3 211 228 229
3 211 229 212
3 212 229 230
3 212 230 213
3 213 230 231
3 213 231 215
3 232 216 214
3 215 231 232
3 232 214 215
3 233 217 216
3 232 233 216
3 234 218 217
3 233 234 217
3 235 219 218
3 234 235 218
3 236 220 219
3 235 236 219
3 237 221 220
3 236 237 220
3 238 222 221
3 237 238 221
3 239 223 222
3 238 239 222
3 224 240 226
3 225 241 224
3 224 241 240
3 226 240 242
3 226 242 227
3 227 242 243
3 227 243 228
3 228 243 244
3 228 244 229
3 244 245 229
3 229 245 230
3 230 245 246
3 230 246 231
3 231 246 247
3 231 247 232
3 248 233 232
3 248 232 247
3 249 234 233
3 248 249 233
3 250 235 234
3 249 250 234
3 251 236 235
3 250 251 235
3 252 237 236
3 251 252 236
3 253 238 237
3 252 253 237
3 254 239 238
3 253 254 238
3 240 255 242
3 241 256 240
3 240 256 255
3 242 255 257
3 242 257 243
3 243 257 258
3 243 258 244
3 244 258 259
3 244 259 245
3 245 259 260
3 245 260 246
3 246 260 261
3 246 261 247
3 248 247 261
3 262 249 248
3 261 262 248
3 263 250 249
3 262 263 249
3 264 251 250
3 263 264 250
3 265 252 251
3 264 265 251
3 266 253 252
3 265 266 252
3 267 254 253
3 266 267 253
3 255 268 257
3 256 269 255
3 255 269 268
3 257 268 270
3 257 270 258
3 258 270 271
3 258 271 259
3 259 271 272
3 259 272 260
3 260 272 273
3 260 273 261
3 274 262 261
3 261 273 274
3 275 263 262
3 274 275 262
3 276 264 263
3 275 276 263
3 277 265 264
3 276 277 264
3 278 266 265
3 277 278 265
3 279 267 266
3 278 279 266
3 268 280 270
3 269 281 268
3 268 281 280
3 270 280 282
3 270 282 271
3 271 282 283
3 271 283 272
3 283 284 272
3 272 284 273
3 285 275 274
3 273 284 285
3 285 274 273
3 286 276 275
3 285 286 275
3 287 277 276
3 286 287 276
3 288 278 277
3 287 288 277
3 289 279 278
3 288 289 278
3 280 290 282
3 281 291 280
3 280 291 290
3 282 290 292
3 282 292 283
3 283 292 293
3 283 293 284
3 284 293 294
3 284 294 285
3 295 286 285
3 295 285 294
3 296 287 286
3 295 296 286
3 297 288 287
3 296 297 287
3 298 289 288
3 297 298 288
3 290 299 292
3 291 300 290
3 290 300 299
3 292 299 301
3 292 301 293
3 293 301 302
3 293 302 294
3 294 302 295
3 303 296 295
3 303 295 302
3 304 297 296
3 303 304 296
3 305 298 297
3 304 305 297
3 299 306 301
3 300 307 299
3 299 307 306
3 301 306 308
3 301 308 302
3 309 303 302
3 302 308 309
3 310 304 303
3 309 310 303
3 311 305 304
3 310 311 304
3 306 312 308
3 307 313 306
3 306 313 312
3 314 310 309
3 308 312 314
3 314 309 308
3 315 311 310
3 314 315 310
3 312 316 314
3 313 317 312
3 312 317 316
3 318 315 314
3 318 314 316
3 317 319 316
3 319 318 316
CELL_TYPES 578
5
5
5
5
5
5
5
5
5
5
5
5
5
5
5
5
5
5
5
5
5
5
5
5
5
5
5
5
5
5
5
5
5
5
5
5
5
5
5
5
5
5
5
5
5
5
5
5
5
5
5
5
5
5
5
5
5
5
5
5
5
5
5
5
5
5
5
5
5
5
5
5
5
5
5
5
5
5
5
5
5
5
5
5
5
5
5
5
5
5
5
5
5
5
5
5
5
5
5
5
5
5
5
5
5
5
5
5
5
5
5
5
5
5
5
5
5
5
5
5
5
5
5
5
5
5
5
5
5
5
5
5
5
5
5
5
5
5
5
5
5
5
5
5
5
5
5
5
5
5
5
5
5
5
5
5
5
5
5
5
5
5
5
5
5
5
5
5
5
5
5
5
5
5
5
5
5
5
5
5
5
5
5
5
5
5
5
5
5
5
5
5
5
5
5
5
5
5
5
5
5
5
5
5
5
5
5
5
5
5
5
5
5
5
5
5
5
5
5
5
5
5
5
5
5
5
5
5
5
5
5
5
5
5
5
5
5
5
5
5
5
5
5
5
5
5
5
5
5
5
5
5
5
5
5
5
5
5
5
5
5
5
5
5
5
5
5
5
5
5
5
5
5
5
5
5
5
5
5
5
5
5
5
5
5
5
5
5
5
5
5
5
5
5
5
5
5
5
5
5
5
5
5
5
5
5
5
5
5
5
5
5
5
5
5
5
5
5
5
5
5
5
5
5
5
5
5
5
5
5
5
5
5
5
5
5
5
5
5
5
5
5
5
5
5
5
5
5
5
5
5
5
5
5
5
5
5
5
5
5
5
5
5
5
5
5
5
5
5
5
5
5
5
5
5
5
5
5
5
5
5
5
5
5
5
5
5
5
5
5
5
5
5
5
5
5
5
5
5
5
5
5
5
5
5
5
5
5
5
5
5
5
5
5
5
5
5
5
5
5
5
5
5
5
5
5
5
5
5
5
5
5
5
5
5
5
5
5
5
5
5
5
5
5
5
5
5
5
5
5
5
5
5
5
5
5
5
5
5
5
5
5
5
5
5
5
5
5
5
5
5
5
5
5
5
5
5
5
5
5
5
5
5
5
5
5
5
5
5
5
5
5
5
5
5
5
5
5
5
5
5
5
5
5
5
5
5
5
5
5
5
5
5
5
5
5
5
5
5
5
5
5
5
5
5
5
5
5
5
5
5
5
5
5
5
5
5
5
5
5
5
5
5
5
5
5
5
5
5
5
5
5
5
5
5
5
5
5
5
5
5
5
5
5
5
5
5
5
5
5
5
5
5
5
5
5
5
5
POINT_DATA 320
SCALARS theta_e float 1
LOOKUP_TABLE default
1.000000
1.000000
1.000000
1.000000
1.000000
1.000000
1.000000
1.000000
1.000000
1.000000
1.000000
1.000000
1.000000
1.000000
1.000000
1.000000
1.000000
1.000000
1.000000
1.000000
1.000000
1.000000
1.000000
1.000000
1.000000
1.000000
1.000000
1.000000
1.000000
1.000000
1.000000
1.000000
1.000000
1.000000
1.000000
1.000000
1.000000
1.000000
1.000000
1.000000
1.000000
1.000000
1.000000
1.000000
1.000000
1.000000
1.000000
1.000000
1.000000
1.000000
1.000000
1.000000
1.000000
1.000000
1.000000
1.000000
1.000000
1.000000
1.000000
1.000000
1.000000
1.000000
1.000000
1.000000
1.000000
1.000000
1.000000
1.000000
1.000000
1.000000
1.000000
1.000000
1.000000
1.000000
1.000000
1.000000
1.000000
1.000000
1.000000
1.000000
1.000000
1.000000
1.000000
1.000000
1.000000
1.000000
1.000000
1.000000
1.000000
1.000000
1.000000
1.000000
1.000000
1.000000
1.000000
1.000000
1.000000
1.000000
1.000000
1.000000
1.000000
1.000000
1.000000
1.000000
1.000000
1.000000
1.000000
1.000000
1.000000
1.000000
1.000000
1.000000
1.000000
1.000000
1.000000
1.000000
1.000000
1.000000
1.000000
1.000000
1.000000
1.000000
1.000001
1.000000
0.999998
1.000000
0.999999
1.000000
1.000000
1.000000
1.000000
1.000000
1.000000
1.000000
1.000000
1.000000
1.000000
1.000000
1.000000
1.000000
1.000000
1.000000
1.000000
1.000000
1.000000
1.000000
1.000000
1.000000
1.000000
0.999997
0.999990
0.999993
0.999998
1.000000
0.999999
1.000001
1.000000
1.000000
1.000000
1.000000
1.000000
1.000000
1.000000
1.000000
1.000000
1.000000
1.000000
1.000000
1.000000
1.000000
1.000000
0.999999
1.000000
0.999986
0.999992
0.999987
0.999992
0.999997
1.000001
1.000001
1.000000
1.000000
1.000000
1.000000
1.000000
1.000000
1.000000
1.000000
1.000000
1.000000
1.000000
1.000000
1.000000
0.999998
0.999988
0.999990
0.999988
0.999992
0.999999
1.000001
1.000000
1.000000
1.000000
1.000000
1.000000
1.000000
1.000000
1.000000
1.000000
1.000000
1.000000
1.000000
1.000000
0.999997
0.999991
0.999993
0.999998
1.000001
1.000000
1.000000
1.000000
1.000000
1.000000
1.000000
1.000000
1.000000
1.000000
1.000000
1.000000
1.000000
1.000000
0.999999
0.999998
1.000001
1.000000
1.000000
1.000000
1.000000
1.000000
1.000000
1.000000
1.000000
1.000000
1.000000
1.000000
1.000000
1.000000
1.000000
1.000000
1.000000
1.000000
1.000000
1.000000
1.000000
1.000000
1.000000
1.000000
1.000000
1.000000
1.000000
1.000000
1.000000
1.000000
1.000000
1.000000
1.000000
1.000000
1.000000
1.000000
1.000000
1.000000
1.000000
1.000000
1.000000
1.000000
1.000000
1.000000
1.000000
1.000000
1.000000
1.000000
1.000000
1.000000
1.000000
1.000000
1.000000
1.000000
1.000000
1.000000
1.000000
1.000000
1.000000
1.000000
1.000000
1.000000
1.000000
1.000000
1.000000
1.000000
1.000000
1.000000
1.000000
1.000000
1.000000
1.000000
1.000000
1.000000
1.000000
1.000000
1.000000
1.000000
1.000000
1.000000
1.000000
1.000000
1.000000
1.000000
1.000000
1.000000
1.000000
VECTORS fa_u float
0.000000 0.000000 0.000000
0.000000 0.000000 0.000000
0.000000 0.000000 0.000000
0.000000 0.000000 0.000000
0.000000 0.000000 0.000000
0.000000 0.000000 0.000000
0.000000 0.000000 0.000000
0.000000 0.000000 0.000000
0.000000 0.000000 0.000000
0.000000 0.000000 0.000000
0.000000 0.000000 0.000000
0.000000 0.000000 0.000000
0.000000 0.000000 0.000000
0.000000 0.000000 0.000000
0.000000 0.000000 0.000000
0.000000 0.000000 0.000000
0.000000 0.000000 0.000000
0.000000 0.000000 0.000000
0.000000 0.000000 0.000000
0.000000 0.000000 0.000000
0.000000 0.000000 0.000000
0.000000 0.000000 0.000000
0.000000 0.000000 0.000000
0.000000 0.000000 0.000000
0.000000 0.000000 0.000000
0.000000 0.000000 0.000000
0.000000 0.000000 0.000000
0.000000 0.000000 0.000000
0.000000 0.000000 0.000000
0.000000 0.000000 0.000000
0.000000 0.000000 0.000000
0.000000 0.000000 0.000000
0.000000 0.000000 0.000000
0.000000 0.000000 0.000000
0.000000 0.000000 0.000000
0.000000 0.000000 0.000000
0.000000 0.000000 0.000000
0.000000 0.000000 0.000000
0.000000 0.000000 0.000000
0.000000 0.000000 0.000000
0.000000 0.000000 0.000000
0.000000 0.000000 0.000000
0.000000 0.000000 0.000000
0.000000 0.000000 0.000000
0.000000 0.000000 0.000000
0.000000 0.000000 0.000000
0.000000 0.000000 0.000000
0.000000 0.000000 0.000000
0.000000 0.000000 0.000000
0.000000 0.000000 0.000000
0.000000 0.000000 0.000000
0.000000 0.000000 0.000000
0.000000 0.000000 0.000000
0.000000 0.000000 0.000000
0.000000 0.000000 0.000000
0.000000 0.000000 0.000000
0.000000 0.000000 0.000000
0.000000 0.000000 0.000000
0.000000 0.000000 0.000000
0.000000 0.000000 0.000000
0.000000 0.000000 0.000000
0.000000 0.000000 0.000000
0.000000 0.000000 0.000000
0.000000 0.000000 0.000000
0.000000 0.000000 0.000000
0.000000 0.000000 0.000000
0.000000 0.000000 0.000000
0.000000 0.000000 0.000000
0.000000 0.000000 0.000000
0.000000 0.000000 0.000000
0.000000 0.000000 0.000000
0.000000 0.000000 0.000000
0.000000 0.000000 0.000000
0.000000 0.000000 0.000000
0.000000 0.000000 0.000000
0.000000 0.000000 0.000000
0.000000 0.000000 0.000000
0.000000 0.000000 0.000000
0.000000 0.000000 0.000000
0.000000 0.000000 0.000000
0.000000 0.000000 0.000000
0.000000 0.000000 0.000000
0.000000 0.000000 0.000000
0.000000 0.000000 0.000000
0.000000 0.000000 0.000000
0.000000 0.000000 0.000000
0.000000 0.000000 0.000000
0.000000 0.000000 0.000000
0.000000 0.000000 0.000000
0.000000 0.000000 0.000000
0.000000 0.000000 0.000000
0.000000 0.000000 0.000000
0.000000 0.000000 0.000000
0.000000 0.000000 0.000000
0.000000 0.000000 0.000000
0.000000 0.000000 0.000000
0.000000 0.000000 0.000000
0.000000 0.000000 0.000000
0.000000 0.000000 0.000000
0.000000 0.000000 0.000000
0.000000 0.000000 0.000000
0.000000 0.000000 0.000000
0.000000 0.000000 0.000000
0.000000 0.000000 0.000000
0.000000 0.000000 0.000000
0.000000 0.000000 0.000000
0.000000 0.000000 0.000000
0.000000 0.000000 0.000000
0.000000 0.000000 0.000000
0.000000 0.000000 0.000000
0.000000 0.000000 0.000000
0.000000 0.000000 0.000000
0.000000 0.000000 0.000000
0.000000 0.000000 0.000000
0.000000 0.000000 0.000000
0.000000 0.000000 0.000000
0.000000 0.000000 0.000000
0.000000 0.000000 0.000000
0.000000 0.000000 0.000000
0.000000 0.000000 0.000000
0.000000 0.000000 0.000000
0.000000 0.000000 0.000000
0.000000 0.000000 0.000000
0.000000 0.000000 0.000000
0.000000 0.000000 0.000000
0.000000 0.000000 0.000000
0.000000 0.000000 0.000000
0.000000 0.000000 0.000000
0.000000 0.000000 0.000000
0.000000 0.000000 0.000000
0.000000 0.000000 0.000000
0.000000 0.000000 0.000000
0.000000 0.000000 0.000000
0.000000 0.000000 0.000000
0.000000 0.000000 0.000000
0.000000 0.000000 0.000000
0.000000 0.000000 0.000000
0.000000 0.000000 0.000000
0.000000 0.000000 0.000000
0.000000 0.000000 0.000000
0.000000 0.000000 0.000000
0.000000 0.000000 0.000000
0.000000 0.000000 0.000000
0.000000 0.000000 0.000000
0.000000 0.000000 0.000000
0.000000 0.000000 0.000000
0.000000 0.000000 0.000000
0.000000 0.000000 0.000000
0.000000 0.000000 0.000000
0.000000 0.000000 0.000000
0.000000 0.000000 0.000000
0.000000 0.000000 0.000000
0.000000 0.000000 0.000000
0.000000 0.000000 0.000000
0.000000 0.000000 0.000000
0.000000 0.000000 0.000000
0.000000 0.000000 0.000000
0.000000 0.000000 0.000000
0.000000 0.000000 0.000000
0.000000 0.000000 0.000000
0.000000 0.000000 0.000000
0.000000 0.000000 0.000000
0.000000 0.000000 0.000000
0.000000 0.000000 0.000000
0.000000 0.000000 0.000000
0.000000 0.000000 0.000000
0.000000 0.000000 0.000000
0.000000 0.000000 0.000000
0.000000 0.000000 0.000000
0.000000 0.000000 0.000000
0.000000 0.000000 0.000000
0.000000 0.000000 0.000000
0.000000 0.000000 0.000000
0.000000 0.000000 0.000000
0.000000 0.000000 0.000000
0.000000 0.000000 0.000000
0.000000 0.000000 0.000000
0.000000 0.000000 0.000000
0.000000 0.000000 0.000000
0.000000 0.000000 0.000000
0.000000 0.000000 0.000000
0.000000 0.000000 0.000000
0.000000 0.000000 0.000000
0.000000 0.000000 0.000000
0.000000 0.000000 0.000000
0.000000 0.000000 0.000000
0.000000 0.000000 0.000000
0.000000 0.000000 0.000000
0.000000 0.000000 0.000000
0.000000 0.000000 0.000000
0.000000 0.000000 0.000000
0.000000 0.000000 0.000000
0.000000 0.000000 0.000000
0.000000 0.000000 0.000000
0.000000 0.000000 0.000000
0.000000 0.000000 0.000000
0.000000 0.000000 0.000000
0.000000 0.000000 0.000000
0.000000 0.000000 0.000000
0.000000 0.000000 0.000000
0.000000 0.000000 0.000000
0.000000 0.000000 0.000000
0.000000 0.000000 0.000000
0.000000 0.000000 0.000000
0.000000 0.000000 0.000000
0.000000 0.000000 0.000000
0.000000 0.000000 0.000000
0.000000 0.000000 0.000000
0.000000 0.000000 0.000000
0.000000 0.000000 0.000000
0.000000 0.000000 0.000000
0.000000 0.000000 0.000000
0.000000 0.000000 0.000000
0.000000 0.000000 0.000000
0.000000 0.000000 0.000000
0.000000 0.000000 0.000000
0.000000 0.000000 0.000000
0.000000 0.000000 0.000000
0.000000 0.000000 0.000000
0.000000 0.000000 0.000000
0.000000 0.000000 0.000000
0.000000 0.000000 0.000000
0.000000 0.000000 0.000000
0.000000 0.000000 0.000000
0.000000 0.000000 0.000000
0.000000 0.000000 0.000000
0.000000 0.000000 0.000000
0.000000 0.000000 0.000000
0.000000 0.000000 0.000000
0.000000 0.000000 0.000000
0.000000 0.000000 0.000000
0.000000 0.000000 0.000000
0.000000 0.000000 0.000000
0.000000 0.000000 0.000000
0.000000 0.000000 0.000000
0.000000 0.000000 0.000000
0.000000 0.000000 0.000000
0.000000 0.000000 0.000000
0.000000 0.000000 0.000000
0.000000 0.000000 0.000000
0.000000 0.000000 0.000000
0.000000 0.000000 0.000000
0.000000 0.000000 0.000000
0.000000 0.000000 0.000000
0.000000 0.000000 0.000000
0.000000 0.000000 0.000000
0.000000 0.000000 0.000000
0.000000 0.000000 0.000000
0.000000 0.000000 0.000000
0.000000 0.000000 0.000000
0.000000 0.000000 0.000000
0.000000 0.000000 0.000000
0.000000 0.000000 0.000000
0.000000 0.000000 0.000000
0.000000 0.000000 0.000000
0.000000 0.000000 0.000000
0.000000 0.000000 0.000000
0.000000 0.000000 0.000000
0.000000 0.000000 0.000000
0.000000 0.000000 0.000000
0.000000 0.000000 0.000000
0.000000 0.000000 0.000000
0.000000 0.000000 0.000000
0.000000 0.000000 0.000000
0.000000 0.000000 0.000000
0.000000 0.000000 0.000000
0.000000 0.000000 0.000000
0.000000 0.000000 0.000000
0.000000 0.000000 0.000000
0.000000 0.000000 0.000000
0.000000 0.000000 0.000000
0.000000 0.000000 0.000000
0.000000 0.000000 0.000000
0.000000 0.000000 0.000000
0.000000 0.000000 0.000000
0.000000 0.000000 0.000000
0.000000 0.000000 0.000000
0.000000 0.000000 0.000000
0.000000 0.000000 0.000000
0.000000 0.000000 0.000000
0.000000 0.000000 0.000000
0.000000 0.000000 0.000000
0.000000 0.000000 0.000000
0.000000 0.000000 0.000000
0.000000 0.000000 0.000000
0.000000 0.000000 0.000000
0.000000 0.000000 0.000000
0.000000 0.000000 0.000000
0.000000 0.000000 0.000000
0.000000 0.000000 0.000000
0.000000 0.000000 0.000000
0.000000 0.000000 0.000000
0.000000 0.000000 0.000000
0.000000 0.000000 0.000000
0.000000 0.000000 0.000000
0.000000 0.000000 0.000000
0.000000 0.000000 -50.000000
-50.000000 0.000000 -50.000000
-43.332369 0.000000 -45.688604
-45.491327 0.000000 -43.332230
-50.000000 0.000000 -50.000000
-36.664677 0.000000 -36.664733
-50.000000 0.000000 -45.081354
-39.969912 0.000000 -40.027530
-44.152462 0.000000 -29.997163
-50.000000 0.000000 -50.000000
-29.997077 0.000000 -44.847318
-33.449022 0.000000 -33.145185
-44.675889 0.000000 -39.869418
-36.787127 0.000000 -35.129007
-39.801552 0.000000 -23.329976
-50.000000 0.000000 -26.539446
-44.666839 0.000000 -50.000000
-23.329911 0.000000 -44.665371
-26.804071 0.000000 -39.364456
-30.225828 0.000000 -29.606670
-39.359559 0.000000 -33.368640
-33.655674 0.000000 -50.000000
-16.663376 0.000000 -16.663507
-50.000000 0.000000 -9.997767
