# vtk DataFile Version 2.0
CellBP Time: 6.12
ASCII
DATASET UNSTRUCTURED_GRID
POINTS 320 double
-50.000000 -50.000000 0.000000
-50.000000 -43.332381 0.000000
-45.688599 -45.491323 0.000000
-43.332245 -50.000000 0.000000
-50.000000 -36.664704 0.000000
-36.664760 -50.000000 0.000000
-45.081349 -39.969909 0.000000
-40.027522 -44.152457 0.000000
-29.997203 -50.000000 0.000000
-50.000000 -29.997117 0.000000
-44.847313 -33.449019 0.000000
-33.145179 -44.675883 0.000000
-39.869412 -36.787123 0.000000
-35.128999 -39.801545 0.000000
-23.330025 -50.000000 0.000000
-26.539440 -44.666836 0.000000
-50.000000 -23.329958 0.000000
-44.665369 -26.804068 0.000000
-39.364451 -30.225824 0.000000
-29.606661 -39.359553 0.000000
-33.368631 -33.655668 0.000000
-50.000000 -16.663422 0.000000
-16.663554 -50.000000 0.000000
-9.997802 -50.000000 0.000000
-19.965225 -44.588720 0.000000
-23.216177 -39.114754 0.000000
-44.691829 -20.097053 0.000000
-39.367937 -23.528191 0.000000
-34.106375 -26.937119 0.000000
-26.384793 -33.577533 0.000000
-29.156585 -28.926857 0.000000
-50.000000 -9.997429 0.000000
-44.666309 -13.410303 0.000000
-50.000000 -3.332124 0.000000
-3.332638 -50.000000 0.000000
3.332380 -50.000000 0.000000
-13.344008 -44.598899 0.000000
-6.684937 -44.610507 0.000000
-16.693964 -39.153125 0.000000
-20.107168 -33.342632 0.000000
-39.338121 -16.804620 0.000000
-34.019004 -20.274517 0.000000
-28.781379 -23.449234 0.000000
-23.510805 -27.350954 0.000000
-44.635306 -6.705501 0.000000
-39.293118 -10.101696 0.000000
-50.000000 3.332824 0.000000
-44.626540 -0.015386 0.000000
9.997691 -50.000000 0.000000
16.663575 -50.000000 0.000000
-0.016170 -44.618601 0.000000
6.651774 -44.635348 0.000000
-10.044935 -39.222520 0.000000
-3.368291 -39.220214 0.000000
-13.484334 -33.798454 0.000000
-16.708938 -28.271598 0.000000
-33.947951 -13.513495 0.000000
-28.602671 -16.892030 0.000000
-23.292678 -20.313318 0.000000
-18.660991 -23.284499 0.000000
-39.267353 -3.392586 0.000000
-33.904495 -6.796695 0.000000
-50.000000 9.997903 0.000000
-44.606534 6.673789 0.000000
-39.260656 3.325840 0.000000
-50.000000 16.663614 0.000000
23.330045 -50.000000 0.000000
29.997110 -50.000000 0.000000
13.317765 -44.662926 0.000000
19.989917 -44.700092 0.000000
3.307641 -39.245099 0.000000
9.971885 -39.290368 0.000000
-6.735661 -33.791340 0.000000
-0.032156 -33.829436 0.000000
-10.096008 -28.292402 0.000000
-13.122678 -22.896124 0.000000
-28.531520 -10.214129 0.000000
-23.067836 -13.663750 0.000000
-16.979123 -17.212501 0.000000
-33.884213 -0.065455 0.000000
-28.562771 -3.580079 0.000000
-44.563965 13.380962 0.000000
-39.189871 10.015253 0.000000
-33.905462 6.616108 0.000000
-50.000000 23.329875 0.000000
-44.557349 20.138579 0.000000
-50.000000 29.997213 0.000000
36.664615 -50.000000 0.000000
43.332268 -50.000000 0.000000
26.663514 -44.745386 0.000000
33.315491 -44.876139 0.000000
16.631744 -39.357674 0.000000
23.328412 -39.437177 0.000000
6.642968 -33.879582 0.000000
13.290507 -33.965426 0.000000
-3.346348 -28.363705 0.000000
3.358305 -28.451182 0.000000
-6.626263 -22.844903 0.000000
-9.962508 -17.315321 0.000000
-23.180597 -7.014149 0.000000
-17.813872 -10.334897 0.000000
-12.837993 -12.607951 0.000000
-28.607321 3.088736 0.000000
-23.266613 -0.469778 0.000000
-39.038456 16.746388 0.000000
-28.720105 9.925848 0.000000
-33.760802 13.318026 0.000000
-44.521715 26.717333 0.000000
-38.467783 23.892771 0.000000
-44.632728 33.085990 0.000000
-50.000000 36.665113 0.000000
-50.000000 43.332516 0.000000
39.922547 -45.069765 0.000000
45.474915 -45.660649 0.000000
50.000000 -50.000000 0.000000
36.626929 -39.982106 0.000000
30.012559 -39.458736 0.000000
19.904208 -34.092977 0.000000
26.585134 -34.319645 0.000000
9.988462 -28.512715 0.000000
16.610545 -28.660445 0.000000
0.050506 -22.963063 0.000000
6.812083 -23.155240 0.000000
-3.397919 -17.296899 0.000000
-6.808088 -10.899641 0.000000
-17.874013 -3.814201 0.000000
-12.549008 -7.033769 0.000000
-23.308245 6.069767 0.000000
-18.034020 2.439498 0.000000
-23.123598 12.096284 0.000000
-33.572149 19.788962 0.000000
-27.941728 16.886343 0.000000
-33.293271 24.723052 0.000000
-39.474060 30.053348 0.000000
-35.160905 28.137857 0.000000
-39.816495 35.101808 0.000000
-43.991952 39.982693 0.000000
-45.431163 45.685470 0.000000
-50.000000 50.000000 0.000000
44.117440 -39.899286 0.000000
50.000000 -43.331921 0.000000
39.639629 -35.047610 0.000000
33.463025 -33.424708 0.000000
22.984997 -28.818205 0.000000
28.731085 -29.247964 0.000000
13.460793 -23.121829 0.000000
20.054932 -23.439775 0.000000
3.367287 -17.590418 0.000000
10.123101 -17.843057 0.000000
0.164774 -11.815038 0.000000
-2.128483 -6.172184 0.000000
-7.189483 -3.581555 0.000000
-12.463215 -0.807789 0.000000
-18.172755 8.573247 0.000000
-12.938047 5.196555 0.000000
-18.637931 13.751054 0.000000
-21.503735 17.494106 0.000000
-28.941099 23.159284 0.000000
-24.346442 21.554261 0.000000
-30.324021 28.635215 0.000000
-34.253868 33.375706 0.000000
-36.956149 39.578187 0.000000
-39.838772 45.102964 0.000000
-43.332225 50.000000 0.000000
44.585413 -32.972282 0.000000
50.000000 -36.664271 0.000000
39.129393 -29.582067 0.000000
33.500729 -26.367794 0.000000
27.183244 -23.322127 0.000000
23.067240 -18.647979 0.000000
16.992268 -16.982187 0.000000
6.699414 -12.193837 0.000000
12.371204 -12.736797 0.000000
-3.366956 -1.485498 0.000000
3.810203 -6.805695 0.000000
1.023658 -2.120686 0.000000
-6.876332 2.273990 0.000000
-8.267546 7.678405 0.000000
-12.841775 11.928291 0.000000
-15.690681 17.698965 0.000000
-19.287463 22.981413 0.000000
-24.171007 27.354407 0.000000
-27.286427 33.625807 0.000000
-30.406808 39.161039 0.000000
-33.447977 44.738887 0.000000
-36.664515 50.000000 0.000000
44.547756 -26.500156 0.000000
50.000000 -29.996682 0.000000
39.040010 -23.179372 0.000000
33.449542 -19.900009 0.000000
28.039665 -16.573405 0.000000
22.679891 -13.123696 0.000000
17.175737 -9.900743 0.000000
10.798250 -6.585461 0.000000
-1.358696 2.319324 0.000000
6.144553 -1.713477 0.000000
2.889788 1.593701 0.000000
-3.461931 7.009439 0.000000
-6.313603 12.428728 0.000000
-9.629355 17.710895 0.000000
-13.167968 23.114426 0.000000
-17.316925 28.185050 0.000000
-20.571049 33.474188 0.000000
-23.666150 39.063901 0.000000
-26.831262 44.585342 0.000000
-29.997189 50.000000 0.000000
44.528638 -19.930943 0.000000
50.000000 -23.329574 0.000000
39.036149 -16.594235 0.000000
33.575821 -13.281277 0.000000
28.149215 -9.965134 0.000000
22.724732 -6.604845 0.000000
17.264906 -3.335328 0.000000
11.824297 0.214171 0.000000
1.910733 6.211398 0.000000
6.831333 3.725217 0.000000
-0.225122 11.791672 0.000000
-3.250069 17.531366 0.000000
-6.699117 22.976495 0.000000
-10.567172 28.267212 0.000000
-13.724303 33.660960 0.000000
-16.945952 39.080135 0.000000
-20.141005 44.548343 0.000000
-23.330245 50.000000 0.000000
44.536141 -13.304075 0.000000
50.000000 -16.663167 0.000000
39.079762 -9.966904 0.000000
33.646555 -6.641436 0.000000
28.236652 -3.308105 0.000000
22.849666 0.017342 0.000000
17.537971 3.343028 0.000000
12.184126 6.583330 0.000000
6.664048 10.712809 0.000000
3.302313 17.199636 0.000000
-0.080711 22.854452 0.000000
-3.519100 28.313109 0.000000
-6.831746 33.774629 0.000000
-10.137794 39.170500 0.000000
-13.436207 44.563447 0.000000
-16.663895 50.000000 0.000000
44.554131 -6.654995 0.000000
50.000000 -9.997534 0.000000
39.123185 -3.321477 0.000000
33.713309 0.008779 0.000000
28.333321 3.345019 0.000000
22.999575 6.693884 0.000000
17.834420 10.018973 0.000000
12.658358 12.242582 0.000000
9.784682 17.233019 0.000000
6.479532 22.722462 0.000000
3.189347 28.270293 0.000000
-0.116066 33.734924 0.000000
-3.425361 39.168695 0.000000
-6.725785 44.581724 0.000000
-9.998085 50.000000 0.000000
44.575495 0.001782 0.000000
50.000000 -3.332503 0.000000
39.166880 3.331801 0.000000
33.779509 6.655621 0.000000
28.423895 9.994741 0.000000
23.046515 13.416177 0.000000
16.950827 17.024281 0.000000
12.901579 22.667413 0.000000
9.815413 28.231751 0.000000
6.604387 33.718813 0.000000
3.286530 39.164436 0.000000
-0.029978 44.584499 0.000000
-3.332705 50.000000 0.000000
44.586662 6.665631 0.000000
50.000000 3.332457 0.000000
39.198200 9.982017 0.000000
33.843515 13.276906 0.000000
28.542356 16.584344 0.000000
23.387669 20.084282 0.000000
18.531994 23.113394 0.000000
16.392622 28.298521 0.000000
13.329039 33.754754 0.000000
9.986704 39.181953 0.000000
6.666126 44.584243 0.000000
3.332537 50.000000 0.000000
44.608886 13.318247 0.000000
50.000000 9.997797 0.000000
39.251394 16.612586 0.000000
33.932043 19.862898 0.000000
28.612567 22.926000 0.000000
23.279688 27.207790 0.000000
19.901417 33.302878 0.000000
16.574072 39.040844 0.000000
13.268673 44.526644 0.000000
9.997861 50.000000 0.000000
44.632070 19.973350 0.000000
50.000000 16.663722 0.000000
39.298558 23.262345 0.000000
34.043951 26.514878 0.000000
28.965968 28.539505 0.000000
26.202574 33.410186 0.000000
23.066940 38.968804 0.000000
19.888936 44.507024 0.000000
16.663586 50.000000 0.000000
44.639888 26.643258 0.000000
50.000000 23.330199 0.000000
39.293503 29.966949 0.000000
33.212592 33.371446 0.000000
29.412398 39.045939 0.000000
26.422706 44.506008 0.000000
23.329984 50.000000 0.000000
44.775157 33.292052 0.000000
50.000000 29.997229 0.000000
39.738340 36.596491 0.000000
34.831286 39.525847 0.000000
32.834093 44.514470 0.000000
29.996999 50.000000 0.000000
44.978426 39.878071 0.000000
50.000000 36.664682 0.000000
39.735191 43.969243 0.000000
36.664479 50.000000 0.000000
45.621511 45.410037 0.000000
50.000000 43.332290 0.000000
43.332028 50.000000 0.000000
50.000000 50.000000 0.000000
CELLS 578 2312
3 1 0 2
3 0 3 2
3 4 1 6
3 6 1 2
3 3 5 7
3 3 7 2
3 6 2 7
3 9 4 10
3 10 4 6
3 5 8 11
3 7 5 11
3 10 6 12
3 12 6 7
3 7 11 13
3 7 13 12
3 8 14 15
3 11 8 15
3 16 9 17
3 17 9 10
3 17 10 18
3 18 10 12
3 11 15 19
3 13 11 19
3 18 12 20
3 13 19 20
3 20 12 13
3 14 22 24
3 15 14 24
3 15 24 25
3 19 15 25
3 21 16 26
3 26 16 17
3 26 17 27
3 27 17 18
3 27 18 28
3 28 18 20
3 19 25 29
3 19 29 20
3 28 20 30
3 30 20 29
3 31 21 32
3 32 21 26
3 22 23 36
3 24 22 36
3 23 34 37
3 36 23 37
3 24 36 38
3 25 24 38
3 25 38 39
3 29 25 39
3 32 26 40
3 40 26 27
3 40 27 41
3 41 27 28
3 41 28 42
3 42 28 30
3 29 39 43
3 29 43 30
3 42 30 43
3 33 31 44
3 44 31 32
3 44 32 45
3 45 32 40
3 46 33 47
3 47 33 44
3 34 35 50
3 37 34 50
3 35 48 51
3 50 35 51
3 36 37 52
3 38 36 52
3 37 50 53
3 52 37 53
3 38 52 54
3 39 38 54
3 39 54 55
3 43 39 55
3 45 40 56
3 56 40 41
3 56 41 57
3 57 41 42
3 57 42 58
3 58 42 43
3 43 55 59
3 43 59 58
3 47 44 60
3 60 44 45
3 60 45 61
3 61 45 56
3 62 46 63
3 63 46 47
3 63 47 64
3 64 47 60
3 48 49 68
3 51 48 68
3 49 66 69
3 68 49 69
3 50 51 70
3 53 50 70
3 51 68 71
3 70 51 71
3 52 53 72
3 54 52 72
3 53 70 73
3 72 53 73
3 54 72 74
3 55 54 74
3 55 74 75
3 59 55 75
3 61 56 76
3 76 56 57
3 76 57 77
3 77 57 58
3 77 58 78
3 59 75 78
3 78 58 59
3 64 60 79
3 79 60 61
3 79 61 80
3 80 61 76
3 65 62 81
3 81 62 63
3 81 63 82
3 82 63 64
3 82 64 83
3 83 64 79
3 84 65 85
3 85 65 81
3 66 67 89
3 69 66 89
3 67 87 90
3 89 67 90
3 68 69 91
3 71 68 91
3 69 89 92
3 91 69 92
3 70 71 93
3 73 70 93
3 71 91 94
3 93 71 94
3 72 73 95
3 74 72 95
3 73 93 96
3 95 73 96
3 74 95 97
3 75 74 97
3 75 97 98
3 78 75 98
3 80 76 99
3 99 76 77
3 99 77 100
3 100 77 78
3 100 78 101
3 98 101 78
3 83 79 102
3 102 79 80
3 102 80 103
3 103 80 99
3 85 81 104
3 104 81 82
3 105 83 102
3 104 82 106
3 106 82 83
3 106 83 105
3 86 84 107
3 107 84 85
3 107 85 108
3 108 85 104
3 109 86 107
3 110 86 109
3 87 88 112
3 90 87 112
3 112 88 113
3 88 114 113
3 90 112 115
3 89 90 116
3 92 89 116
3 116 90 115
3 91 92 117
3 94 91 117
3 92 116 118
3 117 92 118
3 93 94 119
3 96 93 119
3 94 117 120
3 119 94 120
3 95 96 121
3 97 95 121
3 96 119 122
3 121 96 122
3 97 121 123
3 98 97 123
3 98 123 124
3 98 124 101
3 103 99 125
3 125 99 100
3 125 100 126
3 126 100 101
3 126 101 124
3 105 102 127
3 127 102 103
3 127 103 128
3 128 103 125
3 129 105 127
3 108 104 130
3 130 104 106
3 130 106 131
3 131 106 105
3 131 105 129
3 108 130 132
3 109 107 133
3 133 107 108
3 133 108 134
3 108 132 134
3 135 109 133
3 111 110 136
3 136 110 109
3 136 109 135
3 137 111 136
3 138 111 137
3 112 113 139
3 115 112 139
3 114 140 113
3 140 139 113
3 139 141 115
3 116 115 142
3 118 116 142
3 142 115 141
3 117 118 143
3 120 117 143
3 118 142 144
3 143 118 144
3 119 120 145
3 122 119 145
3 120 143 146
3 145 120 146
3 121 122 147
3 123 121 147
3 122 145 148
3 147 122 148
3 123 147 149
3 124 123 149
3 124 149 150
3 151 126 124
3 124 150 151
3 128 125 152
3 152 125 126
3 152 126 151
3 129 127 153
3 153 127 128
3 128 152 154
3 153 128 154
3 155 129 153
3 131 129 156
3 156 129 155
3 132 130 157
3 130 131 157
3 157 131 158
3 131 156 158
3 132 157 159
3 132 159 134
3 135 133 160
3 160 133 134
3 160 134 159
3 136 135 161
3 135 160 161
3 162 137 136
3 161 162 136
3 163 138 137
3 162 163 137
3 139 164 141
3 140 165 139
3 139 165 164
3 141 164 166
3 141 166 142
3 166 167 142
3 144 142 167
3 167 168 144
3 143 144 168
3 146 143 168
3 168 169 146
3 145 146 170
3 148 145 170
3 170 146 169
3 147 148 171
3 149 147 171
3 148 170 172
3 171 148 172
3 173 151 150
3 149 171 174
3 150 149 174
3 150 174 175
3 150 175 173
3 154 152 176
3 152 151 176
3 176 151 173
3 154 176 177
3 155 153 178
3 177 178 154
3 154 178 153
3 156 155 179
3 155 178 179
3 180 158 156
3 179 180 156
3 181 159 157
3 180 181 158
3 181 157 158
3 182 160 159
3 181 182 159
3 183 161 160
3 182 183 160
3 184 162 161
3 184 161 183
3 185 163 162
3 184 185 162
3 164 186 166
3 165 187 164
3 164 187 186
3 166 186 188
3 166 188 167
3 167 188 189
3 167 189 168
3 168 189 190
3 168 190 169
3 169 190 191
3 169 191 170
3 192 172 170
3 170 191 192
3 192 193 172
3 171 172 193
3 174 171 193
3 194 173 175
3 176 173 194
3 175 174 195
3 193 195 174
3 195 196 175
3 175 196 194
3 197 177 176
3 194 197 176
3 198 178 177
3 197 198 177
3 199 179 178
3 198 199 178
3 200 180 179
3 199 200 179
3 201 181 180
3 200 201 180
3 202 182 181
3 201 202 181
3 203 183 182
3 202 203 182
3 204 184 183
3 203 204 183
3 205 185 184
3 204 205 184
3 186 206 188
3 187 207 186
3 186 207 206
3 188 206 208
3 188 208 189
3 189 208 209
3 189 209 190
3 190 209 210
3 190 210 191
3 191 210 211
3 191 211 192
3 192 211 212
3 192 212 193
3 193 212 213
3 193 213 195
3 214 197 194
3 214 194 196
3 195 213 215
3 195 215 196
3 196 215 214
3 216 198 197
3 214 216 197
3 217 199 198
3 216 217 198
3 218 200 199
3 217 218 199
3 219 201 200
3 218 219 200
3 220 202 201
3 219 220 201
3 221 203 202
3 220 221 202
3 222 204 203
3 221 222 203
3 223 205 204
3 222 223 204
3 206 224 208
3 207 225 206
3 206 225 224
3 208 224 226
3 208 226 209
3 209 226 227
3 209 227 210
3 210 227 228
3 210 228 211
3 211 228 229
3 211 229 212
3 212 229 230
3 212 230 213
3 213 230 231
3 213 231 215
3 232 216 214
3 215 231 232
3 232 214 215
3 233 217 216
3 232 233 216
3 234 218 217
3 233 234 217
3 235 219 218
3 234 235 218
3 236 220 219
3 235 236 219
3 237 221 220
3 236 237 220
3 238 222 221
3 237 238 221
3 239 223 222
3 238 239 222
3 224 240 226
3 225 241 224
3 224 241 240
3 226 240 242
3 226 242 227
3 227 242 243
3 227 243 228
3 228 243 244
3 228 244 229
3 244 245 229
3 229 245 230
3 230 245 246
3 230 246 231
3 231 246 247
3 231 247 232
3 248 233 232
3 248 232 247
3 249 234 233
3 248 249 233
3 250 235 234
3 249 250 234
3 251 236 235
3 250 251 235
3 252 237 236
3 251 252 236
3 253 238 237
3 252 253 237
3 254 239 238
3 253 254 238
3 240 255 242
3 241 256 240
3 240 256 255
3 242 255 257
3 242 257 243
3 243 257 258
3 243 258 244
3 244 258 259
3 244 259 245
3 245 259 260
3 245 260 246
3 246 260 261
3 246 261 247
3 248 247 261
3 262 249 248
3 261 262 248
3 263 250 249
3 262 263 249
3 264 251 250
3 263 264 250
3 265 252 251
3 264 265 251
3 266 253 252
3 265 266 252
3 267 254 253
3 266 267 253
3 255 268 257
3 256 269 255
3 255 269 268
3 257 268 270
3 257 270 258
3 258 270 271
3 258 271 259
3 259 271 272
3 259 272 260
3 260 272 273
3 260 273 261
3 274 262 261
3 261 273 274
3 275 263 262
3 274 275 262
3 276 264 263
3 275 276 263
3 277 265 264
3 276 277 264
3 278 266 265
3 277 278 265
3 279 267 266
3 278 279 266
3 268 280 270
3 269 281 268
3 268 281 280
3 270 280 282
3 270 282 271
3 271 282 283
3 271 283 272
3 283 284 272
3 272 284 273
3 285 275 274
3 273 284 285
3 285 274 273
3 286 276 275
3 285 286 275
3 287 277 276
3 286 287 276
3 288 278 277
3 287 288 277
3 289 279 278
3 288 289 278
3 280 290 282
3 281 291 280
3 280 291 290
3 282 290 292
3 282 292 283
3 283 292 293
3 283 293 284
3 284 293 294
3 284 294 285
3 295 286 285
3 295 285 294
3 296 287 286
3 295 296 286
3 297 288 287
3 296 297 287
3 298 289 288
3 297 298 288
3 290 299 292
3 291 300 290
3 290 300 299
3 292 299 301
3 292 301 293
3 293 301 302
3 293 302 294
3 294 302 295
3 303 296 295
3 303 295 302
3 304 297 296
3 303 304 296
3 305 298 297
3 304 305 297
3 299 306 301
3 300 307 299
3 299 307 306
3 301 306 308
3 301 308 302
3 309 303 302
3 302 308 309
3 310 304 303
3 309 310 303
3 311 305 304
3 310 311 304
3 306 312 308
3 307 313 306
3 306 313 312
3 314 310 309
3 308 312 314
3 314 309 308
3 315 311 310
3 314 315 310
3 312 316 314
3 313 317 312
3 312 317 316
3 318 315 314
3 318 314 316
3 317 319 316
3 319 318 316
CELL_TYPES 578
5
5
5
5
5
5
5
5
5
5
5
5
5
5
5
5
5
5
5
5
5
5
5
5
5
5
5
5
5
5
5
5
5
5
5
5
5
5
5
5
5
5
5
5
5
5
5
5
5
5
5
5
5
5
5
5
5
5
5
5
5
5
5
5
5
5
5
5
5
5
5
5
5
5
5
5
5
5
5
5
5
5
5
5
5
5
5
5
5
5
5
5
5
5
5
5
5
5
5
5
5
5
5
5
5
5
5
5
5
5
5
5
5
5
5
5
5
5
5
5
5
5
5
5
5
5
5
5
5
5
5
5
5
5
5
5
5
5
5
5
5
5
5
5
5
5
5
5
5
5
5
5
5
5
5
5
5
5
5
5
5
5
5
5
5
5
5
5
5
5
5
5
5
5
5
5
5
5
5
5
5
5
5
5
5
5
5
5
5
5
5
5
5
5
5
5
5
5
5
5
5
5
5
5
5
5
5
5
5
5
5
5
5
5
5
5
5
5
5
5
5
5
5
5
5
5
5
5
5
5
5
5
5
5
5
5
5
5
5
5
5
5
5
5
5
5
5
5
5
5
5
5
5
5
5
5
5
5
5
5
5
5
5
5
5
5
5
5
5
5
5
5
5
5
5
5
5
5
5
5
5
5
5
5
5
5
5
5
5
5
5
5
5
5
5
5
5
5
5
5
5
5
5
5
5
5
5
5
5
5
5
5
5
5
5
5
5
5
5
5
5
5
5
5
5
5
5
5
5
5
5
5
5
5
5
5
5
5
5
5
5
5
5
5
5
5
5
5
5
5
5
5
5
5
5
5
5
5
5
5
5
5
5
5
5
5
5
5
5
5
5
5
5
5
5
5
5
5
5
5
5
5
5
5
5
5
5
5
5
5
5
5
5
5
5
5
5
5
5
5
5
5
5
5
5
5
5
5
5
5
5
5
5
5
5
5
5
5
5
5
5
5
5
5
5
5
5
5
5
5
5
5
5
5
5
5
5
5
5
5
5
5
5
5
5
5
5
5
5
5
5
5
5
5
5
5
5
5
5
5
5
5
5
5
5
5
5
5
5
5
5
5
5
5
5
5
5
5
5
5
5
5
5
5
5
5
5
5
5
5
5
5
5
5
5
5
5
5
5
5
5
5
5
5
5
5
5
5
5
5
5
5
5
5
5
5
5
5
5
5
5
5
5
5
5
5
5
5
5
5
5
5
5
5
5
5
5
5
5
5
5
5
5
5
5
5
5
5
5
5
5
5
5
5
5
5
5
5
5
5
5
5
5
5
5
5
5
5
5
5
5
5
5
5
5
5
5
5
POINT_DATA 320
SCALARS theta_e float 1
LOOKUP_TABLE default
1.000000
1.000000
1.000000
1.000000
1.000000
1.000000
1.000000
1.000000
1.000000
1.000000
1.000000
1.000000
1.000000
1.000000
1.000000
1.000000
1.000000
1.000000
1.000000
1.000000
1.000000
1.000000
1.000000
1.000000
1.000000
1.000000
1.000000
1.000000
1.000000
1.000000
1.000000
1.000000
1.000000
1.000000
1.000000
1.000000
1.000000
1.000000
1.000000
1.000000
1.000000
1.000000
1.000000
1.000000
1.000000
1.000000
1.000000
1.000000
1.000000
1.000000
1.000000
1.000000
1.000000
1.000000
1.000000
1.000000
1.000000
1.000000
1.000000
1.000000
1.000000
1.000000
1.000000
1.000000
1.000000
1.000000
1.000000
1.000000
1.000000
1.000000
1.000000
1.000000
1.000000
1.000000
1.000000
1.000000
1.000000
1.000000
1.000000
1.000000
1.000000
1.000000
1.000000
1.000000
1.000000
1.000000
1.000000
1.000000
1.000000
1.000000
1.000000
1.000000
1.000000
1.000000
1.000000
1.000000
1.000000
1.000001
1.000001
1.000000
1.000001
1.000001
1.000000
1.000000
1.000000
1.000000
1.000000
1.000000
1.000000
1.000000
1.000000
1.000000
1.000000
1.000000
1.000000
1.000000
1.000000
1.000000
1.000000
1.000000
1.000000
1.000000
1.000000
1.000001
0.999998
1.000001
1.000000
1.000000
1.000000
1.000000
1.000000
1.000000
1.000000
1.000000
1.000000
1.000000
1.000000
1.000000
1.000000
1.000000
1.000000
1.000000
1.000000
1.000000
1.000000
1.000000
1.000000
1.000001
1.000000
0.999997
0.999990
0.999994
0.999999
1.000000
0.999999
1.000000
1.000000
1.000000
1.000000
1.000000
1.000000
1.000000
1.000000
1.000000
1.000000
1.000000
1.000000
1.000000
1.000000
1.000000
1.000000
0.999999
1.000000
0.999987
0.999991
0.999986
0.999992
0.999997
1.000000
1.000000
1.000000
1.000000
1.000000
1.000000
1.000000
1.000000
1.000000
1.000000
1.000000
1.000000
1.000000
1.000000
1.000000
0.999997
0.999987
0.999989
0.999986
0.999992
0.999999
1.000000
1.000000
1.000000
1.000000
1.000000
1.000000
1.000000
1.000000
1.000000
1.000000
1.000000
1.000000
1.000000
1.000000
0.999998
0.999990
0.999993
0.999997
1.000000
1.000000
1.000000
1.000000
1.000000
1.000000
1.000000
1.000000
1.000000
1.000000
1.000000
1.000000
1.000000
1.000001
1.000000
0.999998
1.000000
1.000000
1.000000
1.000000
1.000000
1.000000
1.000000
1.000000
1.000000
1.000000
1.000000
1.000000
1.000000
1.000000
1.000000
1.000000
1.000000
1.000000
1.000000
1.000000
1.000000
1.000000
1.000000
1.000000
1.000000
1.000000
1.000000
1.000000
1.000000
1.000000
1.000000
1.000000
1.000000
1.000000
1.000000
1.000000
1.000000
1.000000
1.000000
1.000000
1.000000
1.000000
1.000000
1.000000
1.000000
1.000000
1.000000
1.000000
1.000000
1.000000
1.000000
1.000000
1.000000
1.000000
1.000000
1.000000
1.000000
1.000000
1.000000
1.000000
1.000000
1.000000
1.000000
1.000000
1.000000
1.000000
1.000000
1.000000
1.000001
1.000001
1.000000
1.000000
1.000000
1.000001
1.000001
1.000001
1.000001
1.000000
1.000000
1.000001
1.000001
1.000001
1.000001
1.000001
1.000001
1.000001
1.000001
VECTORS fa_u float
0.000000 0.000000 0.000000
0.000000 0.000000 0.000000
0.000000 0.000000 0.000000
0.000000 0.000000 0.000000
0.000000 0.000000 0.000000
0.000000 0.000000 0.000000
0.000000 0.000000 0.000000
0.000000 0.000000 0.000000
0.000000 0.000000 0.000000
0.000000 0.000000 0.000000
0.000000 0.000000 0.000000
0.000000 0.000000 0.000000
0.000000 0.000000 0.000000
0.000000 0.000000 0.000000
0.000000 0.000000 0.000000
0.000000 0.000000 0.000000
0.000000 0.000000 0.000000
0.000000 0.000000 0.000000
0.000000 0.000000 0.000000
0.000000 0.000000 0.000000
0.000000 0.000000 0.000000
0.000000 0.000000 0.000000
0.000000 0.000000 0.000000
0.000000 0.000000 0.000000
0.000000 0.000000 0.000000
0.000000 0.000000 0.000000
0.000000 0.000000 0.000000
0.000000 0.000000 0.000000
0.000000 0.000000 0.000000
0.000000 0.000000 0.000000
0.000000 0.000000 0.000000
0.000000 0.000000 0.000000
0.000000 0.000000 0.000000
0.000000 0.000000 0.000000
0.000000 0.000000 0.000000
0.000000 0.000000 0.000000
0.000000 0.000000 0.000000
0.000000 0.000000 0.000000
0.000000 0.000000 0.000000
0.000000 0.000000 0.000000
0.000000 0.000000 0.000000
0.000000 0.000000 0.000000
0.000000 0.000000 0.000000
0.000000 0.000000 0.000000
0.000000 0.000000 0.000000
0.000000 0.000000 0.000000
0.000000 0.000000 0.000000
0.000000 0.000000 0.000000
0.000000 0.000000 0.000000
0.000000 0.000000 0.000000
0.000000 0.000000 0.000000
0.000000 0.000000 0.000000
0.000000 0.000000 0.000000
0.000000 0.000000 0.000000
0.000000 0.000000 0.000000
0.000000 0.000000 0.000000
0.000000 0.000000 0.000000
0.000000 0.000000 0.000000
0.000000 0.000000 0.000000
0.000000 0.000000 0.000000
0.000000 0.000000 0.000000
0.000000 0.000000 0.000000
0.000000 0.000000 0.000000
0.000000 0.000000 0.000000
0.000000 0.000000 0.000000
0.000000 0.000000 0.000000
0.000000 0.000000 0.000000
0.000000 0.000000 0.000000
0.000000 0.000000 0.000000
0.000000 0.000000 0.000000
0.000000 0.000000 0.000000
0.000000 0.000000 0.000000
0.000000 0.000000 0.000000
0.000000 0.000000 0.000000
0.000000 0.000000 0.000000
0.000000 0.000000 0.000000
0.000000 0.000000 0.000000
0.000000 0.000000 0.000000
0.000000 0.000000 0.000000
0.000000 0.000000 0.000000
0.000000 0.000000 0.000000
0.000000 0.000000 0.000000
0.000000 0.000000 0.000000
0.000000 0.000000 0.000000
0.000000 0.000000 0.000000
0.000000 0.000000 0.000000
0.000000 0.000000 0.000000
0.000000 0.000000 0.000000
0.000000 0.000000 0.000000
0.000000 0.000000 0.000000
0.000000 0.000000 0.000000
0.000000 0.000000 0.000000
0.000000 0.000000 0.000000
0.000000 0.000000 0.000000
0.000000 0.000000 0.000000
0.000000 0.000000 0.000000
0.000000 0.000000 0.000000
0.000000 0.000000 0.000000
0.000000 0.000000 0.000000
0.000000 0.000000 0.000000
0.000000 0.000000 0.000000
0.000000 0.000000 0.000000
0.000000 0.000000 0.000000
0.000000 0.000000 0.000000
0.000000 0.000000 0.000000
0.000000 0.000000 0.000000
0.000000 0.000000 0.000000
0.000000 0.000000 0.000000
0.000000 0.000000 0.000000
0.000000 0.000000 0.000000
0.000000 0.000000 0.000000
0.000000 0.000000 0.000000
0.000000 0.000000 0.000000
0.000000 0.000000 0.000000
0.000000 0.000000 0.000000
0.000000 0.000000 0.000000
0.000000 0.000000 0.000000
0.000000 0.000000 0.000000
0.000000 0.000000 0.000000
0.000000 0.000000 0.000000
0.000000 0.000000 0.000000
0.000000 0.000000 0.000000
0.000000 0.000000 0.000000
0.000000 0.000000 0.000000
0.000000 0.000000 0.000000
0.000000 0.000000 0.000000
0.000000 0.000000 0.000000
0.000000 0.000000 0.000000
0.000000 0.000000 0.000000
0.000000 0.000000 0.000000
0.000000 0.000000 0.000000
0.000000 0.000000 0.000000
0.000000 0.000000 0.000000
0.000000 0.000000 0.000000
0.000000 0.000000 0.000000
0.000000 0.000000 0.000000
0.000000 0.000000 0.000000
0.000000 0.000000 0.000000
0.000000 0.000000 0.000000
0.000000 0.000000 0.000000
0.000000 0.000000 0.000000
0.000000 0.000000 0.000000
0.000000 0.000000 0.000000
0.000000 0.000000 0.000000
0.000000 0.000000 0.000000
0.000000 0.000000 0.000000
0.000000 0.000000 0.000000
0.000000 0.000000 0.000000
0.000000 0.000000 0.000000
0.000000 0.000000 0.000000
0.000000 0.000000 0.000000
0.000000 0.000000 0.000000
0.000000 0.000000 0.000000
0.000000 0.000000 0.000000
0.000000 0.000000 0.000000
0.000000 0.000000 0.000000
0.000000 0.000000 0.000000
0.000000 0.000000 0.000000
0.000000 0.000000 0.000000
0.000000 0.000000 0.000000
0.000000 0.000000 0.000000
0.000000 0.000000 0.000000
0.000000 0.000000 0.000000
0.000000 0.000000 0.000000
0.000000 0.000000 0.000000
0.000000 0.000000 0.000000
0.000000 0.000000 0.000000
0.000000 0.000000 0.000000
0.000000 0.000000 0.000000
0.000000 0.000000 0.000000
0.000000 0.000000 0.000000
0.000000 0.000000 0.000000
0.000000 0.000000 0.000000
0.000000 0.000000 0.000000
0.000000 0.000000 0.000000
0.000000 0.000000 0.000000
0.000000 0.000000 0.000000
0.000000 0.000000 0.000000
0.000000 0.000000 0.000000
0.000000 0.000000 0.000000
0.000000 0.000000 0.000000
0.000000 0.000000 0.000000
0.000000 0.000000 0.000000
0.000000 0.000000 0.000000
0.000000 0.000000 0.000000
0.000000 0.000000 0.000000
0.000000 0.000000 0.000000
0.000000 0.000000 0.000000
0.000000 0.000000 0.000000
0.000000 0.000000 0.000000
0.000000 0.000000 0.000000
0.000000 0.000000 0.000000
0.000000 0.000000 0.000000
0.000000 0.000000 0.000000
0.000000 0.000000 0.000000
0.000000 0.000000 0.000000
0.000000 0.000000 0.000000
0.000000 0.000000 0.000000
0.000000 0.000000 0.000000
0.000000 0.000000 0.000000
0.000000 0.000000 0.000000
0.000000 0.000000 0.000000
0.000000 0.000000 0.000000
0.000000 0.000000 0.000000
0.000000 0.000000 0.000000
0.000000 0.000000 0.000000
0.000000 0.000000 0.000000
0.000000 0.000000 0.000000
0.000000 0.000000 0.000000
0.000000 0.000000 0.000000
0.000000 0.000000 0.000000
0.000000 0.000000 0.000000
0.000000 0.000000 0.000000
0.000000 0.000000 0.000000
0.000000 0.000000 0.000000
0.000000 0.000000 0.000000
0.000000 0.000000 0.000000
0.000000 0.000000 0.000000
0.000000 0.000000 0.000000
0.000000 0.000000 0.000000
0.000000 0.000000 0.000000
0.000000 0.000000 0.000000
0.000000 0.000000 0.000000
0.000000 0.000000 0.000000
0.000000 0.000000 0.000000
0.000000 0.000000 0.000000
0.000000 0.000000 0.000000
0.000000 0.000000 0.000000
0.000000 0.000000 0.000000
0.000000 0.000000 0.000000
0.000000 0.000000 0.000000
0.000000 0.000000 0.000000
0.000000 0.000000 0.000000
0.000000 0.000000 0.000000
0.000000 0.000000 0.000000
0.000000 0.000000 0.000000
0.000000 0.000000 0.000000
0.000000 0.000000 0.000000
0.000000 0.000000 0.000000
0.000000 0.000000 0.000000
0.000000 0.000000 0.000000
0.000000 0.000000 0.000000
0.000000 0.000000 0.000000
0.000000 0.000000 0.000000
0.000000 0.000000 0.000000
0.000000 0.000000 0.000000
0.000000 0.000000 0.000000
0.000000 0.000000 0.000000
0.000000 0.000000 0.000000
0.000000 0.000000 0.000000
0.000000 0.000000 0.000000
0.000000 0.000000 0.000000
0.000000 0.000000 0.000000
0.000000 0.000000 0.000000
0.000000 0.000000 0.000000
0.000000 0.000000 0.000000
0.000000 0.000000 0.000000
0.000000 0.000000 0.000000
0.000000 0.000000 0.000000
0.000000 0.000000 0.000000
0.000000 0.000000 0.000000
0.000000 0.000000 0.000000
0.000000 0.000000 0.000000
0.000000 0.000000 0.000000
0.000000 0.000000 0.000000
0.000000 0.000000 0.000000
0.000000 0.000000 0.000000
0.000000 0.000000 0.000000
0.000000 0.000000 0.000000
0.000000 0.000000 0.000000
0.000000 0.000000 0.000000
0.000000 0.000000 0.000000
0.000000 0.000000 0.000000
0.000000 0.000000 0.000000
0.000000 0.000000 0.000000
0.000000 0.000000 0.000000
0.000000 0.000000 0.000000
0.000000 0.000000 0.000000
0.000000 0.000000 0.000000
0.000000 0.000000 0.000000
0.000000 0.000000 0.000000
0.000000 0.000000 0.000000
0.000000 0.000000 0.000000
0.000000 0.000000 0.000000
0.000000 0.000000 0.000000
0.000000 0.000000 0.000000
0.000000 0.000000 0.000000
0.000000 0.000000 0.000000
0.000000 0.000000 0.000000
0.000000 0.000000 0.000000
0.000000 0.000000 0.000000
0.000000 0.000000 0.000000
0.000000 0.000000 0.000000
0.000000 0.000000 0.000000
0.000000 0.000000 0.000000
0.000000 0.000000 0.000000
0.000000 0.000000 -50.000000
-50.000000 0.000000 -50.000000
-43.332381 0.000000 -45.688599
-45.491323 0.000000 -43.332245
-50.000000 0.000000 -50.000000
-36.664704 0.000000 -36.664760
-50.000000 0.000000 -45.081349
-39.969909 0.000000 -40.027522
-44.152457 0.000000 -29.997203
-50.000000 0.000000 -50.000000
-29.997117 0.000000 -44.847313
-33.449019 0.000000 -33.145179
-44.675883 0.000000 -39.869412
-36.787123 0.000000 -35.128999
-39.801545 0.000000 -23.330025
-50.000000 0.000000 -26.539440
-44.666836 0.000000 -50.000000
-23.329958 0.000000 -44.665369
-26.804068 0.000000 -39.364451
-30.225824 0.000000 -29.606661
-39.359553 0.000000 -33.368631
-33.655668 0.000000 -50.000000
-16.663422 0.000000 -16.663554
-50.000000 0.000000 -9.997802
