# vtk DataFile Version 2.0
CellBP Time: 4.44
ASCII
DATASET UNSTRUCTURED_GRID
POINTS 320 double
-50.000000 -50.000000 0.000000
-50.000000 -43.332580 0.000000
-45.688529 -45.491264 0.000000
-43.332471 -50.000000 0.000000
-50.000000 -36.665114 0.000000
-36.665156 -50.000000 0.000000
-45.081273 -39.969867 0.000000
-40.027412 -44.152396 0.000000
-29.997782 -50.000000 0.000000
-50.000000 -29.997717 0.000000
-44.847239 -33.448983 0.000000
-33.145092 -44.675817 0.000000
-39.869318 -36.787078 0.000000
-35.128886 -39.801464 0.000000
-23.330706 -50.000000 0.000000
-26.539346 -44.666805 0.000000
-50.000000 -23.330659 0.000000
-44.665338 -26.804018 0.000000
-39.364382 -30.225774 0.000000
-29.606533 -39.359489 0.000000
-33.368500 -33.655593 0.000000
-50.000000 -16.664092 0.000000
-16.664191 -50.000000 0.000000
-9.998247 -50.000000 0.000000
-19.965113 -44.588736 0.000000
-23.216081 -39.114733 0.000000
-44.691847 -20.097004 0.000000
-39.367909 -23.528174 0.000000
-34.106297 -26.937083 0.000000
-26.384668 -33.577441 0.000000
-29.156458 -28.926778 0.000000
-50.000000 -9.997957 0.000000
-44.666324 -13.410261 0.000000
-50.000000 -3.332369 0.000000
-3.332774 -50.000000 0.000000
3.332580 -50.000000 0.000000
-13.343888 -44.598942 0.000000
-6.684861 -44.610571 0.000000
-16.693876 -39.153179 0.000000
-20.107104 -33.342648 0.000000
-39.338137 -16.804664 0.000000
-34.018904 -20.274562 0.000000
-28.781237 -23.449174 0.000000
-23.510704 -27.350739 0.000000
-44.635355 -6.705520 0.000000
-39.293105 -10.101736 0.000000
-50.000000 3.332935 0.000000
-44.626612 -0.015462 0.000000
9.998167 -50.000000 0.000000
16.664209 -50.000000 0.000000
-0.016144 -44.618657 0.000000
6.651732 -44.635382 0.000000
-10.044855 -39.222545 0.000000
-3.368263 -39.220271 0.000000
-13.484304 -33.798543 0.000000
-16.709122 -28.271567 0.000000
-33.947985 -13.513673 0.000000
-28.602399 -16.892138 0.000000
-23.292352 -20.313223 0.000000
-18.660801 -23.284029 0.000000
-39.267410 -3.392664 0.000000
-33.904512 -6.796717 0.000000
-50.000000 9.998341 0.000000
-44.606612 6.673665 0.000000
-39.260746 3.325782 0.000000
-50.000000 16.664249 0.000000
23.330717 -50.000000 0.000000
29.997699 -50.000000 0.000000
13.317664 -44.662940 0.000000
19.989807 -44.700098 0.000000
3.307657 -39.245112 0.000000
9.971862 -39.290347 0.000000
-6.735543 -33.791348 0.000000
-0.032188 -33.829485 0.000000
-10.095969 -28.292694 0.000000
-13.122700 -22.896716 0.000000
-28.531817 -10.214371 0.000000
-23.067521 -13.663621 0.000000
-16.978649 -17.211661 0.000000
-33.884367 -0.065454 0.000000
-28.562893 -3.579760 0.000000
-44.564018 13.380798 0.000000
-39.189942 10.015184 0.000000
-33.905558 6.616078 0.000000
-50.000000 23.330593 0.000000
-44.557442 20.138447 0.000000
-50.000000 29.997791 0.000000
36.665033 -50.000000 0.000000
43.332484 -50.000000 0.000000
26.663412 -44.745357 0.000000
33.315417 -44.876079 0.000000
16.631717 -39.357678 0.000000
23.328355 -39.437146 0.000000
6.642935 -33.879557 0.000000
13.290580 -33.965432 0.000000
-3.346137 -28.363493 0.000000
3.358002 -28.451202 0.000000
-6.626155 -22.845214 0.000000
-9.964461 -17.315262 0.000000
-23.181725 -7.014319 0.000000
-17.813077 -10.334847 0.000000
-12.837980 -12.603692 0.000000
-28.607376 3.088675 0.000000
-23.266171 -0.469393 0.000000
-39.038601 16.746404 0.000000
-28.720407 9.925985 0.000000
-33.761020 13.318131 0.000000
-44.521705 26.717194 0.000000
-38.467770 23.892691 0.000000
-44.632591 33.085847 0.000000
-50.000000 36.665434 0.000000
-50.000000 43.332684 0.000000
39.922484 -45.069705 0.000000
45.474838 -45.660582 0.000000
50.000000 -50.000000 0.000000
36.626875 -39.982053 0.000000
30.012483 -39.458689 0.000000
19.904204 -34.092911 0.000000
26.585095 -34.319586 0.000000
9.988562 -28.512910 0.000000
16.610653 -28.660284 0.000000
0.050925 -22.962101 0.000000
6.812132 -23.155984 0.000000
-3.398528 -17.296949 0.000000
-6.821670 -10.928957 0.000000
-17.875018 -3.817547 0.000000
-12.549989 -7.034244 0.000000
-23.308798 6.070646 0.000000
-18.034841 2.443126 0.000000
-23.123225 12.096121 0.000000
-33.572135 19.788951 0.000000
-27.941618 16.886102 0.000000
-33.293134 24.722939 0.000000
-39.473892 30.053167 0.000000
-35.160711 28.137737 0.000000
-39.816322 35.101673 0.000000
-43.991860 39.982533 0.000000
-45.431113 45.685368 0.000000
-50.000000 50.000000 0.000000
44.117372 -39.899189 0.000000
50.000000 -43.332206 0.000000
39.639557 -35.047536 0.000000
33.462974 -33.424645 0.000000
22.984957 -28.818115 0.000000
28.731043 -29.247899 0.000000
13.460775 -23.121784 0.000000
20.054903 -23.439520 0.000000
3.372317 -17.589528 0.000000
10.124054 -17.842299 0.000000
0.159651 -11.859384 0.000000
-2.134842 -6.194133 0.000000
-7.239320 -3.609844 0.000000
-12.500773 -0.806840 0.000000
-18.170340 8.573220 0.000000
-12.944338 5.196554 0.000000
-18.638256 13.751316 0.000000
-21.503959 17.494353 0.000000
-28.940982 23.159039 0.000000
-24.346380 21.554379 0.000000
-30.323857 28.635087 0.000000
-34.253719 33.375647 0.000000
-36.956069 39.578145 0.000000
-39.838735 45.102894 0.000000
-43.332451 50.000000 0.000000
44.585352 -32.972203 0.000000
50.000000 -36.664755 0.000000
39.129360 -29.581982 0.000000
33.500678 -26.367740 0.000000
27.183110 -23.322115 0.000000
23.066876 -18.647917 0.000000
16.991562 -16.981575 0.000000
6.702219 -12.198653 0.000000
12.366770 -12.735883 0.000000
-3.371443 -1.487518 0.000000
3.839462 -6.856136 0.000000
1.023191 -2.120859 0.000000
-6.908209 2.286999 0.000000
-8.306518 7.713596 0.000000
-12.842912 11.929384 0.000000
-15.691196 17.699338 0.000000
-19.287387 22.981780 0.000000
-24.170986 27.354533 0.000000
-27.286383 33.625879 0.000000
-30.406747 39.161095 0.000000
-33.447908 44.738877 0.000000
-36.664955 50.000000 0.000000
44.547746 -26.500057 0.000000
50.000000 -29.997352 0.000000
39.040014 -23.179329 0.000000
33.449606 -19.899991 0.000000
28.039778 -16.573643 0.000000
22.680782 -13.123829 0.000000
17.175935 -9.902911 0.000000
10.830820 -6.599679 0.000000
-1.357043 2.316433 0.000000
6.163006 -1.720040 0.000000
2.894274 1.595296 0.000000
-3.481076 7.050498 0.000000
-6.313147 12.432622 0.000000
-9.629351 17.708729 0.000000
-13.167665 23.113914 0.000000
-17.316810 28.185095 0.000000
-20.570921 33.474256 0.000000
-23.666058 39.063933 0.000000
-26.831127 44.585352 0.000000
-29.997763 50.000000 0.000000
44.528659 -19.930826 0.000000
50.000000 -23.330333 0.000000
39.036207 -16.594178 0.000000
33.575952 -13.281249 0.000000
28.149590 -9.965054 0.000000
22.724999 -6.604741 0.000000
17.264660 -3.335720 0.000000
11.868079 0.209181 0.000000
1.915417 6.230794 0.000000
6.878991 3.751987 0.000000
-0.222142 11.834164 0.000000
-3.254550 17.530929 0.000000
-6.699548 22.976888 0.000000
-10.567348 28.267300 0.000000
-13.724178 33.661105 0.000000
-16.945840 39.080209 0.000000
-20.140841 44.548379 0.000000
-23.330874 50.000000 0.000000
44.536190 -13.303952 0.000000
50.000000 -16.663874 0.000000
39.079813 -9.966829 0.000000
33.646614 -6.641307 0.000000
28.236467 -3.307931 0.000000
22.848788 0.017564 0.000000
17.537022 3.347462 0.000000
12.191027 6.586695 0.000000
6.678636 10.745765 0.000000
3.302005 17.198479 0.000000
-0.080886 22.853619 0.000000
-3.518913 28.312961 0.000000
-6.831598 33.774544 0.000000
-10.137643 39.170516 0.000000
-13.436031 44.563484 0.000000
-16.664458 50.000000 0.000000
44.554203 -6.654910 0.000000
50.000000 -9.998034 0.000000
39.123248 -3.321431 0.000000
33.713334 0.008771 0.000000
28.333279 3.344735 0.000000
23.000168 6.693842 0.000000
17.833871 10.020031 0.000000
12.657581 12.238678 0.000000
9.786202 17.233486 0.000000
6.479049 22.722407 0.000000
3.189172 28.270075 0.000000
-0.116010 33.734855 0.000000
-3.425293 39.168658 0.000000
-6.725657 44.581758 0.000000
-9.998471 50.000000 0.000000
44.575550 0.001817 0.000000
50.000000 -3.332674 0.000000
39.166870 3.331824 0.000000
33.779433 6.655600 0.000000
28.423966 9.994821 0.000000
23.046462 13.416255 0.000000
16.950141 17.023750 0.000000
12.901591 22.668249 0.000000
9.815219 28.231861 0.000000
6.604333 33.718781 0.000000
3.286537 39.164427 0.000000
-0.029941 44.584526 0.000000
-3.332828 50.000000 0.000000
44.586686 6.665586 0.000000
50.000000 3.332629 0.000000
39.198154 9.981983 0.000000
33.843474 13.276949 0.000000
28.542202 16.584471 0.000000
23.387406 20.084299 0.000000
18.531919 23.113057 0.000000
16.392804 28.298576 0.000000
13.329001 33.754756 0.000000
9.986655 39.181952 0.000000
6.666078 44.584281 0.000000
3.332704 50.000000 0.000000
44.608891 13.318134 0.000000
50.000000 9.998236 0.000000
39.251377 16.612533 0.000000
33.931980 19.862883 0.000000
28.612472 22.925996 0.000000
23.279664 27.207709 0.000000
19.901380 33.302942 0.000000
16.573977 39.040875 0.000000
13.268561 44.526682 0.000000
9.998300 50.000000 0.000000
44.632071 19.973220 0.000000
50.000000 16.664312 0.000000
39.298531 23.262269 0.000000
34.043894 26.514824 0.000000
28.965895 28.539487 0.000000
26.202504 33.410163 0.000000
23.066864 38.968811 0.000000
19.888815 44.507036 0.000000
16.664216 50.000000 0.000000
44.639859 26.643139 0.000000
50.000000 23.330830 0.000000
39.293454 29.966862 0.000000
33.212521 33.371386 0.000000
29.412305 39.045907 0.000000
26.422598 44.505994 0.000000
23.330667 50.000000 0.000000
44.775099 33.291963 0.000000
50.000000 29.997788 0.000000
39.738288 36.596427 0.000000
34.831207 39.525770 0.000000
32.834003 44.514409 0.000000
29.997611 50.000000 0.000000
44.978366 39.877999 0.000000
50.000000 36.665083 0.000000
39.735087 43.969171 0.000000
36.664925 50.000000 0.000000
45.621440 45.409959 0.000000
50.000000 43.332500 0.000000
43.332294 50.000000 0.000000
50.000000 50.000000 0.000000
CELLS 578 2312
3 1 0 2
3 0 3 2
3 4 1 6
3 6 1 2
3 3 5 7
3 3 7 2
3 6 2 7
3 9 4 10
3 10 4 6
3 5 8 11
3 7 5 11
3 10 6 12
3 12 6 7
3 7 11 13
3 7 13 12
3 8 14 15
3 11 8 15
3 16 9 17
3 17 9 10
3 17 10 18
3 18 10 12
3 11 15 19
3 13 11 19
3 18 12 20
3 13 19 20
3 20 12 13
3 14 22 24
3 15 14 24
3 15 24 25
3 19 15 25
3 21 16 26
3 26 16 17
3 26 17 27
3 27 17 18
3 27 18 28
3 28 18 20
3 19 25 29
3 19 29 20
3 28 20 30
3 30 20 29
3 31 21 32
3 32 21 26
3 22 23 36
3 24 22 36
3 23 34 37
3 36 23 37
3 24 36 38
3 25 24 38
3 25 38 39
3 29 25 39
3 32 26 40
3 40 26 27
3 40 27 41
3 41 27 28
3 41 28 42
3 42 28 30
3 29 39 43
3 29 43 30
3 42 30 43
3 33 31 44
3 44 31 32
3 44 32 45
3 45 32 40
3 46 33 47
3 47 33 44
3 34 35 50
3 37 34 50
3 35 48 51
3 50 35 51
3 36 37 52
3 38 36 52
3 37 50 53
3 52 37 53
3 38 52 54
3 39 38 54
3 39 54 55
3 43 39 55
3 45 40 56
3 56 40 41
3 56 41 57
3 57 41 42
3 57 42 58
3 58 42 43
3 43 55 59
3 43 59 58
3 47 44 60
3 60 44 45
3 60 45 61
3 61 45 56
3 62 46 63
3 63 46 47
3 63 47 64
3 64 47 60
3 48 49 68
3 51 48 68
3 49 66 69
3 68 49 69
3 50 51 70
3 53 50 70
3 51 68 71
3 70 51 71
3 52 53 72
3 54 52 72
3 53 70 73
3 72 53 73
3 54 72 74
3 55 54 74
3 55 74 75
3 59 55 75
3 61 56 76
3 76 56 57
3 76 57 77
3 77 57 58
3 77 58 78
3 59 75 78
3 78 58 59
3 64 60 79
3 79 60 61
3 79 61 80
3 80 61 76
3 65 62 81
3 81 62 63
3 81 63 82
3 82 63 64
3 82 64 83
3 83 64 79
3 84 65 85
3 85 65 81
3 66 67 89
3 69 66 89
3 67 87 90
3 89 67 90
3 68 69 91
3 71 68 91
3 69 89 92
3 91 69 92
3 70 71 93
3 73 70 93
3 71 91 94
3 93 71 94
3 72 73 95
3 74 72 95
3 73 93 96
3 95 73 96
3 74 95 97
3 75 74 97
3 75 97 98
3 78 75 98
3 80 76 99
3 99 76 77
3 99 77 100
3 100 77 78
3 100 78 101
3 98 101 78
3 83 79 102
3 102 79 80
3 102 80 103
3 103 80 99
3 85 81 104
3 104 81 82
3 105 83 102
3 104 82 106
3 106 82 83
3 106 83 105
3 86 84 107
3 107 84 85
3 107 85 108
3 108 85 104
3 109 86 107
3 110 86 109
3 87 88 112
3 90 87 112
3 112 88 113
3 88 114 113
3 90 112 115
3 89 90 116
3 92 89 116
3 116 90 115
3 91 92 117
3 94 91 117
3 92 116 118
3 117 92 118
3 93 94 119
3 96 93 119
3 94 117 120
3 119 94 120
3 95 96 121
3 97 95 121
3 96 119 122
3 121 96 122
3 97 121 123
3 98 97 123
3 98 123 124
3 98 124 101
3 103 99 125
3 125 99 100
3 125 100 126
3 126 100 101
3 126 101 124
3 105 102 127
3 127 102 103
3 127 103 128
3 128 103 125
3 129 105 127
3 108 104 130
3 130 104 106
3 130 106 131
3 131 106 105
3 131 105 129
3 108 130 132
3 109 107 133
3 133 107 108
3 133 108 134
3 108 132 134
3 135 109 133
3 111 110 136
3 136 110 109
3 136 109 135
3 137 111 136
3 138 111 137
3 112 113 139
3 115 112 139
3 114 140 113
3 140 139 113
3 139 141 115
3 116 115 142
3 118 116 142
3 142 115 141
3 117 118 143
3 120 117 143
3 118 142 144
3 143 118 144
3 119 120 145
3 122 119 145
3 120 143 146
3 145 120 146
3 121 122 147
3 123 121 147
3 122 145 148
3 147 122 148
3 123 147 149
3 124 123 149
3 124 149 150
3 151 126 124
3 124 150 151
3 128 125 152
3 152 125 126
3 152 126 151
3 129 127 153
3 153 127 128
3 128 152 154
3 153 128 154
3 155 129 153
3 131 129 156
3 156 129 155
3 132 130 157
3 130 131 157
3 157 131 158
3 131 156 158
3 132 157 159
3 132 159 134
3 135 133 160
3 160 133 134
3 160 134 159
3 136 135 161
3 135 160 161
3 162 137 136
3 161 162 136
3 163 138 137
3 162 163 137
3 139 164 141
3 140 165 139
3 139 165 164
3 141 164 166
3 141 166 142
3 166 167 142
3 144 142 167
3 167 168 144
3 143 144 168
3 146 143 168
3 168 169 146
3 145 146 170
3 148 145 170
3 170 146 169
3 147 148 171
3 149 147 171
3 148 170 172
3 171 148 172
3 173 151 150
3 149 171 174
3 150 149 174
3 150 174 175
3 150 175 173
3 154 152 176
3 152 151 176
3 176 151 173
3 154 176 177
3 155 153 178
3 177 178 154
3 154 178 153
3 156 155 179
3 155 178 179
3 180 158 156
3 179 180 156
3 181 159 157
3 180 181 158
3 181 157 158
3 182 160 159
3 181 182 159
3 183 161 160
3 182 183 160
3 184 162 161
3 184 161 183
3 185 163 162
3 184 185 162
3 164 186 166
3 165 187 164
3 164 187 186
3 166 186 188
3 166 188 167
3 167 188 189
3 167 189 168
3 168 189 190
3 168 190 169
3 169 190 191
3 169 191 170
3 192 172 170
3 170 191 192
3 192 193 172
3 171 172 193
3 174 171 193
3 194 173 175
3 176 173 194
3 175 174 195
3 193 195 174
3 195 196 175
3 175 196 194
3 197 177 176
3 194 197 176
3 198 178 177
3 197 198 177
3 199 179 178
3 198 199 178
3 200 180 179
3 199 200 179
3 201 181 180
3 200 201 180
3 202 182 181
3 201 202 181
3 203 183 182
3 202 203 182
3 204 184 183
3 203 204 183
3 205 185 184
3 204 205 184
3 186 206 188
3 187 207 186
3 186 207 206
3 188 206 208
3 188 208 189
3 189 208 209
3 189 209 190
3 190 209 210
3 190 210 191
3 191 210 211
3 191 211 192
3 192 211 212
3 192 212 193
3 193 212 213
3 193 213 195
3 214 197 194
3 214 194 196
3 195 213 215
3 195 215 196
3 196 215 214
3 216 198 197
3 214 216 197
3 217 199 198
3 216 217 198
3 218 200 199
3 217 218 199
3 219 201 200
3 218 219 200
3 220 202 201
3 219 220 201
3 221 203 202
3 220 221 202
3 222 204 203
3 221 222 203
3 223 205 204
3 222 223 204
3 206 224 208
3 207 225 206
3 206 225 224
3 208 224 226
3 208 226 209
3 209 226 227
3 209 227 210
3 210 227 228
3 210 228 211
3 211 228 229
3 211 229 212
3 212 229 230
3 212 230 213
3 213 230 231
3 213 231 215
3 232 216 214
3 215 231 232
3 232 214 215
3 233 217 216
3 232 233 216
3 234 218 217
3 233 234 217
3 235 219 218
3 234 235 218
3 236 220 219
3 235 236 219
3 237 221 220
3 236 237 220
3 238 222 221
3 237 238 221
3 239 223 222
3 238 239 222
3 224 240 226
3 225 241 224
3 224 241 240
3 226 240 242
3 226 242 227
3 227 242 243
3 227 243 228
3 228 243 244
3 228 244 229
3 244 245 229
3 229 245 230
3 230 245 246
3 230 246 231
3 231 246 247
3 231 247 232
3 248 233 232
3 248 232 247
3 249 234 233
3 248 249 233
3 250 235 234
3 249 250 234
3 251 236 235
3 250 251 235
3 252 237 236
3 251 252 236
3 253 238 237
3 252 253 237
3 254 239 238
3 253 254 238
3 240 255 242
3 241 256 240
3 240 256 255
3 242 255 257
3 242 257 243
3 243 257 258
3 243 258 244
3 244 258 259
3 244 259 245
3 245 259 260
3 245 260 246
3 246 260 261
3 246 261 247
3 248 247 261
3 262 249 248
3 261 262 248
3 263 250 249
3 262 263 249
3 264 251 250
3 263 264 250
3 265 252 251
3 264 265 251
3 266 253 252
3 265 266 252
3 267 254 253
3 266 267 253
3 255 268 257
3 256 269 255
3 255 269 268
3 257 268 270
3 257 270 258
3 258 270 271
3 258 271 259
3 259 271 272
3 259 272 260
3 260 272 273
3 260 273 261
3 274 262 261
3 261 273 274
3 275 263 262
3 274 275 262
3 276 264 263
3 275 276 263
3 277 265 264
3 276 277 264
3 278 266 265
3 277 278 265
3 279 267 266
3 278 279 266
3 268 280 270
3 269 281 268
3 268 281 280
3 270 280 282
3 270 282 271
3 271 282 283
3 271 283 272
3 283 284 272
3 272 284 273
3 285 275 274
3 273 284 285
3 285 274 273
3 286 276 275
3 285 286 275
3 287 277 276
3 286 287 276
3 288 278 277
3 287 288 277
3 289 279 278
3 288 289 278
3 280 290 282
3 281 291 280
3 280 291 290
3 282 290 292
3 282 292 283
3 283 292 293
3 283 293 284
3 284 293 294
3 284 294 285
3 295 286 285
3 295 285 294
3 296 287 286
3 295 296 286
3 297 288 287
3 296 297 287
3 298 289 288
3 297 298 288
3 290 299 292
3 291 300 290
3 290 300 299
3 292 299 301
3 292 301 293
3 293 301 302
3 293 302 294
3 294 302 295
3 303 296 295
3 303 295 302
3 304 297 296
3 303 304 296
3 305 298 297
3 304 305 297
3 299 306 301
3 300 307 299
3 299 307 306
3 301 306 308
3 301 308 302
3 309 303 302
3 302 308 309
3 310 304 303
3 309 310 303
3 311 305 304
3 310 311 304
3 306 312 308
3 307 313 306
3 306 313 312
3 314 310 309
3 308 312 314
3 314 309 308
3 315 311 310
3 314 315 310
3 312 316 314
3 313 317 312
3 312 317 316
3 318 315 314
3 318 314 316
3 317 319 316
3 319 318 316
CELL_TYPES 578
5
5
5
5
5
5
5
5
5
5
5
5
5
5
5
5
5
5
5
5
5
5
5
5
5
5
5
5
5
5
5
5
5
5
5
5
5
5
5
5
5
5
5
5
5
5
5
5
5
5
5
5
5
5
5
5
5
5
5
5
5
5
5
5
5
5
5
5
5
5
5
5
5
5
5
5
5
5
5
5
5
5
5
5
5
5
5
5
5
5
5
5
5
5
5
5
5
5
5
5
5
5
5
5
5
5
5
5
5
5
5
5
5
5
5
5
5
5
5
5
5
5
5
5
5
5
5
5
5
5
5
5
5
5
5
5
5
5
5
5
5
5
5
5
5
5
5
5
5
5
5
5
5
5
5
5
5
5
5
5
5
5
5
5
5
5
5
5
5
5
5
5
5
5
5
5
5
5
5
5
5
5
5
5
5
5
5
5
5
5
5
5
5
5
5
5
5
5
5
5
5
5
5
5
5
5
5
5
5
5
5
5
5
5
5
5
5
5
5
5
5
5
5
5
5
5
5
5
5
5
5
5
5
5
5
5
5
5
5
5
5
5
5
5
5
5
5
5
5
5
5
5
5
5
5
5
5
5
5
5
5
5
5
5
5
5
5
5
5
5
5
5
5
5
5
5
5
5
5
5
5
5
5
5
5
5
5
5
5
5
5
5
5
5
5
5
5
5
5
5
5
5
5
5
5
5
5
5
5
5
5
5
5
5
5
5
5
5
5
5
5
5
5
5
5
5
5
5
5
5
5
5
5
5
5
5
5
5
5
5
5
5
5
5
5
5
5
5
5
5
5
5
5
5
5
5
5
5
5
5
5
5
5
5
5
5
5
5
5
5
5
5
5
5
5
5
5
5
5
5
5
5
5
5
5
5
5
5
5
5
5
5
5
5
5
5
5
5
5
5
5
5
5
5
5
5
5
5
5
5
5
5
5
5
5
5
5
5
5
5
5
5
5
5
5
5
5
5
5
5
5
5
5
5
5
5
5
5
5
5
5
5
5
5
5
5
5
5
5
5
5
5
5
5
5
5
5
5
5
5
5
5
5
5
5
5
5
5
5
5
5
5
5
5
5
5
5
5
5
5
5
5
5
5
5
5
5
5
5
5
5
5
5
5
5
5
5
5
5
5
5
5
5
5
5
5
5
5
5
5
5
5
5
5
5
5
5
5
5
5
5
5
5
5
5
5
5
5
5
5
5
5
5
5
5
5
5
5
5
5
5
5
5
5
5
5
5
5
5
5
5
5
5
5
5
5
5
5
5
5
5
5
5
5
5
5
5
5
5
5
5
5
5
5
5
5
5
5
POINT_DATA 320
SCALARS theta_e float 1
LOOKUP_TABLE default
1.000000
1.000000
1.000000
1.000000
1.000000
1.000000
1.000000
1.000000
1.000000
1.000000
1.000000
1.000000
1.000000
1.000000
1.000001
1.000001
1.000000
1.000000
1.000000
1.000000
1.000000
1.000000
1.000001
1.000001
1.000001
1.000001
1.000000
1.000000
1.000000
1.000001
1.000000
1.000001
1.000001
1.000001
1.000001
1.000001
1.000001
1.000001
1.000001
1.000001
1.000000
1.000000
1.000001
1.000001
1.000001
1.000001
1.000001
1.000001
1.000001
1.000001
1.000001
1.000001
1.000001
1.000001
1.000001
1.000001
1.000001
1.000000
1.000000
1.000000
1.000001
1.000001
1.000001
1.000001
1.000001
1.000001
1.000001
1.000001
1.000001
1.000001
1.000001
1.000001
1.000001
1.000001
1.000001
1.000000
1.000001
1.000000
1.000000
1.000001
1.000001
1.000001
1.000001
1.000001
1.000001
1.000001
1.000001
1.000001
1.000001
1.000001
1.000001
1.000001
1.000001
1.000001
1.000001
1.000000
1.000000
1.000000
1.000000
1.000001
1.000000
1.000000
1.000001
1.000001
1.000001
1.000001
1.000001
1.000001
1.000001
1.000001
1.000001
1.000001
1.000001
1.000001
1.000001
1.000001
1.000001
1.000001
1.000001
1.000001
1.000001
1.000000
1.000000
1.000000
0.999996
1.000001
0.999999
1.000001
1.000001
1.000001
1.000001
1.000001
1.000001
1.000001
1.000001
1.000001
1.000001
1.000001
1.000001
1.000001
1.000001
1.000001
1.000001
1.000001
1.000001
1.000000
1.000001
1.000001
1.000001
0.999996
0.999984
0.999990
0.999998
1.000001
0.999999
1.000001
1.000001
1.000001
1.000001
1.000001
1.000001
1.000001
1.000001
1.000001
1.000001
1.000001
1.000001
1.000001
1.000001
1.000001
1.000000
0.999999
1.000001
0.999979
0.999988
0.999977
0.999987
0.999997
1.000001
1.000001
1.000001
1.000001
1.000001
1.000001
1.000001
1.000001
1.000001
1.000001
1.000001
1.000001
1.000001
1.000001
1.000001
0.999997
0.999978
0.999984
0.999978
0.999987
0.999999
1.000000
1.000000
1.000001
1.000001
1.000001
1.000001
1.000001
1.000001
1.000001
1.000001
1.000001
1.000001
1.000001
1.000001
0.999996
0.999984
0.999988
0.999996
1.000001
1.000000
1.000001
1.000001
1.000001
1.000001
1.000001
1.000001
1.000001
1.000001
1.000001
1.000001
1.000001
1.000001
0.999998
0.999996
1.000001
1.000000
1.000001
1.000001
1.000001
1.000001
1.000001
1.000001
1.000001
1.000001
1.000001
1.000001
1.000001
1.000001
1.000000
1.000001
1.000001
1.000001
1.000001
1.000001
1.000001
1.000001
1.000001
1.000001
1.000001
1.000001
1.000001
1.000001
1.000001
1.000001
1.000001
1.000001
1.000001
1.000001
1.000001
1.000001
1.000001
1.000001
1.000001
1.000001
1.000001
1.000001
1.000001
1.000001
1.000001
1.000001
1.000001
1.000001
1.000001
1.000001
1.000001
1.000001
1.000001
1.000001
1.000001
1.000001
1.000001
1.000001
1.000001
1.000001
1.000001
1.000001
1.000001
1.000001
1.000001
1.000001
1.000001
1.000001
1.000001
1.000001
1.000001
1.000001
1.000001
1.000001
1.000001
1.000001
1.000001
1.000001
1.000001
1.000001
1.000001
1.000001
1.000001
1.000001
1.000001
1.000001
1.000001
VECTORS fa_u float
0.000000 0.000000 0.000000
0.000000 0.000000 0.000000
0.000000 0.000000 0.000000
0.000000 0.000000 0.000000
0.000000 0.000000 0.000000
0.000000 0.000000 0.000000
0.000000 0.000000 0.000000
0.000000 0.000000 0.000000
0.000000 0.000000 0.000000
0.000000 0.000000 0.000000
0.000000 0.000000 0.000000
0.000000 0.000000 0.000000
0.000000 0.000000 0.000000
0.000000 0.000000 0.000000
0.000000 0.000000 0.000000
0.000000 0.000000 0.000000
0.000000 0.000000 0.000000
0.000000 0.000000 0.000000
0.000000 0.000000 0.000000
0.000000 0.000000 0.000000
0.000000 0.000000 0.000000
0.000000 0.000000 0.000000
0.000000 0.000000 0.000000
0.000000 0.000000 0.000000
0.000000 0.000000 0.000000
0.000000 0.000000 0.000000
0.000000 0.000000 0.000000
0.000000 0.000000 0.000000
0.000000 0.000000 0.000000
0.000000 0.000000 0.000000
0.000000 0.000000 0.000000
0.000000 0.000000 0.000000
0.000000 0.000000 0.000000
0.000000 0.000000 0.000000
0.000000 0.000000 0.000000
0.000000 0.000000 0.000000
0.000000 0.000000 0.000000
0.000000 0.000000 0.000000
0.000000 0.000000 0.000000
0.000000 0.000000 0.000000
0.000000 0.000000 0.000000
0.000000 0.000000 0.000000
0.000000 0.000000 0.000000
0.000000 0.000000 0.000000
0.000000 0.000000 0.000000
0.000000 0.000000 0.000000
0.000000 0.000000 0.000000
0.000000 0.000000 0.000000
0.000000 0.000000 0.000000
0.000000 0.000000 0.000000
0.000000 0.000000 0.000000
0.000000 0.000000 0.000000
0.000000 0.000000 0.000000
0.000000 0.000000 0.000000
0.000000 0.000000 0.000000
0.000000 0.000000 0.000000
0.000000 0.000000 0.000000
0.000000 0.000000 0.000000
0.000000 0.000000 0.000000
0.000000 0.000000 0.000000
0.000000 0.000000 0.000000
0.000000 0.000000 0.000000
0.000000 0.000000 0.000000
0.000000 0.000000 0.000000
0.000000 0.000000 0.000000
0.000000 0.000000 0.000000
0.000000 0.000000 0.000000
0.000000 0.000000 0.000000
0.000000 0.000000 0.000000
0.000000 0.000000 0.000000
0.000000 0.000000 0.000000
0.000000 0.000000 0.000000
0.000000 0.000000 0.000000
0.000000 0.000000 0.000000
0.000000 0.000000 0.000000
0.000000 0.000000 0.000000
0.000000 0.000000 0.000000
0.000000 0.000000 0.000000
0.000000 0.000000 0.000000
0.000000 0.000000 0.000000
0.000000 0.000000 0.000000
0.000000 0.000000 0.000000
0.000000 0.000000 0.000000
0.000000 0.000000 0.000000
0.000000 0.000000 0.000000
0.000000 0.000000 0.000000
0.000000 0.000000 0.000000
0.000000 0.000000 0.000000
0.000000 0.000000 0.000000
0.000000 0.000000 0.000000
0.000000 0.000000 0.000000
0.000000 0.000000 0.000000
0.000000 0.000000 0.000000
0.000000 0.000000 0.000000
0.000000 0.000000 0.000000
0.000000 0.000000 0.000000
0.000000 0.000000 0.000000
0.000000 0.000000 0.000000
0.000000 0.000000 0.000000
0.000000 0.000000 0.000000
0.000000 0.000000 0.000000
0.000000 0.000000 0.000000
0.000000 0.000000 0.000000
0.000000 0.000000 0.000000
0.000000 0.000000 0.000000
0.000000 0.000000 0.000000
0.000000 0.000000 0.000000
0.000000 0.000000 0.000000
0.000000 0.000000 0.000000
0.000000 0.000000 0.000000
0.000000 0.000000 0.000000
0.000000 0.000000 0.000000
0.000000 0.000000 0.000000
0.000000 0.000000 0.000000
0.000000 0.000000 0.000000
0.000000 0.000000 0.000000
0.000000 0.000000 0.000000
0.000000 0.000000 0.000000
0.000000 0.000000 0.000000
0.000000 0.000000 0.000000
0.000000 0.000000 0.000000
0.000000 0.000000 0.000000
0.000000 0.000000 0.000000
0.000000 0.000000 0.000000
0.000000 0.000000 0.000000
0.000000 0.000000 0.000000
0.000000 0.000000 0.000000
0.000000 0.000000 0.000000
0.000000 0.000000 0.000000
0.000000 0.000000 0.000000
0.000000 0.000000 0.000000
0.000000 0.000000 0.000000
0.000000 0.000000 0.000000
0.000000 0.000000 0.000000
0.000000 0.000000 0.000000
0.000000 0.000000 0.000000
0.000000 0.000000 0.000000
0.000000 0.000000 0.000000
0.000000 0.000000 0.000000
0.000000 0.000000 0.000000
0.000000 0.000000 0.000000
0.000000 0.000000 0.000000
0.000000 0.000000 0.000000
0.000000 0.000000 0.000000
0.000000 0.000000 0.000000
0.000000 0.000000 0.000000
0.000000 0.000000 0.000000
0.000000 0.000000 0.000000
0.000000 0.000000 0.000000
0.000000 0.000000 0.000000
0.000000 0.000000 0.000000
0.000000 0.000000 0.000000
0.000000 0.000000 0.000000
0.000000 0.000000 0.000000
0.000000 0.000000 0.000000
0.000000 0.000000 0.000000
0.000000 0.000000 0.000000
0.000000 0.000000 0.000000
0.000000 0.000000 0.000000
0.000000 0.000000 0.000000
0.000000 0.000000 0.000000
0.000000 0.000000 0.000000
0.000000 0.000000 0.000000
0.000000 0.000000 0.000000
0.000000 0.000000 0.000000
0.000000 0.000000 0.000000
0.000000 0.000000 0.000000
0.000000 0.000000 0.000000
0.000000 0.000000 0.000000
0.000000 0.000000 0.000000
0.000000 0.000000 0.000000
0.000000 0.000000 0.000000
0.000000 0.000000 0.000000
0.000000 0.000000 0.000000
0.000000 0.000000 0.000000
0.000000 0.000000 0.000000
0.000000 0.000000 0.000000
0.000000 0.000000 0.000000
0.000000 0.000000 0.000000
0.000000 0.000000 0.000000
0.000000 0.000000 0.000000
0.000000 0.000000 0.000000
0.000000 0.000000 0.000000
0.000000 0.000000 0.000000
0.000000 0.000000 0.000000
0.000000 0.000000 0.000000
0.000000 0.000000 0.000000
0.000000 0.000000 0.000000
0.000000 0.000000 0.000000
0.000000 0.000000 0.000000
0.000000 0.000000 0.000000
0.000000 0.000000 0.000000
0.000000 0.000000 0.000000
0.000000 0.000000 0.000000
0.000000 0.000000 0.000000
0.000000 0.000000 0.000000
0.000000 0.000000 0.000000
0.000000 0.000000 0.000000
0.000000 0.000000 0.000000
0.000000 0.000000 0.000000
0.000000 0.000000 0.000000
0.000000 0.000000 0.000000
0.000000 0.000000 0.000000
0.000000 0.000000 0.000000
0.000000 0.000000 0.000000
0.000000 0.000000 0.000000
0.000000 0.000000 0.000000
0.000000 0.000000 0.000000
0.000000 0.000000 0.000000
0.000000 0.000000 0.000000
0.000000 0.000000 0.000000
0.000000 0.000000 0.000000
0.000000 0.000000 0.000000
0.000000 0.000000 0.000000
0.000000 0.000000 0.000000
0.000000 0.000000 0.000000
0.000000 0.000000 0.000000
0.000000 0.000000 0.000000
0.000000 0.000000 0.000000
0.000000 0.000000 0.000000
0.000000 0.000000 0.000000
0.000000 0.000000 0.000000
0.000000 0.000000 0.000000
0.000000 0.000000 0.000000
0.000000 0.000000 0.000000
0.000000 0.000000 0.000000
0.000000 0.000000 0.000000
0.000000 0.000000 0.000000
0.000000 0.000000 0.000000
0.000000 0.000000 0.000000
0.000000 0.000000 0.000000
0.000000 0.000000 0.000000
0.000000 0.000000 0.000000
0.000000 0.000000 0.000000
0.000000 0.000000 0.000000
0.000000 0.000000 0.000000
0.000000 0.000000 0.000000
0.000000 0.000000 0.000000
0.000000 0.000000 0.000000
0.000000 0.000000 0.000000
0.000000 0.000000 0.000000
0.000000 0.000000 0.000000
0.000000 0.000000 0.000000
0.000000 0.000000 0.000000
0.000000 0.000000 0.000000
0.000000 0.000000 0.000000
0.000000 0.000000 0.000000
0.000000 0.000000 0.000000
0.000000 0.000000 0.000000
0.000000 0.000000 0.000000
0.000000 0.000000 0.000000
0.000000 0.000000 0.000000
0.000000 0.000000 0.000000
0.000000 0.000000 0.000000
0.000000 0.000000 0.000000
0.000000 0.000000 0.000000
0.000000 0.000000 0.000000
0.000000 0.000000 0.000000
0.000000 0.000000 0.000000
0.000000 0.000000 0.000000
0.000000 0.000000 0.000000
0.000000 0.000000 0.000000
0.000000 0.000000 0.000000
0.000000 0.000000 0.000000
0.000000 0.000000 0.000000
0.000000 0.000000 0.000000
0.000000 0.000000 0.000000
0.000000 0.000000 0.000000
0.000000 0.000000 0.000000
0.000000 0.000000 0.000000
0.000000 0.000000 0.000000
0.000000 0.000000 0.000000
0.000000 0.000000 0.000000
0.000000 0.000000 0.000000
0.000000 0.000000 0.000000
0.000000 0.000000 0.000000
0.000000 0.000000 0.000000
0.000000 0.000000 0.000000
0.000000 0.000000 0.000000
0.000000 0.000000 0.000000
0.000000 0.000000 0.000000
0.000000 0.000000 0.000000
0.000000 0.000000 0.000000
0.000000 0.000000 0.000000
0.000000 0.000000 0.000000
0.000000 0.000000 0.000000
0.000000 0.000000 0.000000
0.000000 0.000000 0.000000
0.000000 0.000000 0.000000
0.000000 0.000000 0.000000
0.000000 0.000000 0.000000
0.000000 0.000000 0.000000
0.000000 0.000000 0.000000
0.000000 0.000000 0.000000
0.000000 0.000000 0.000000
0.000000 0.000000 0.000000
0.000000 0.000000 -50.000000
-50.000000 0.000000 -50.000000
-43.332580 0.000000 -45.688529
-45.491264 0.000000 -43.332471
-50.000000 0.000000 -50.000000
-36.665114 0.000000 -36.665156
-50.000000 0.000000 -45.081273
-39.969867 0.000000 -40.027412
-44.152396 0.000000 -29.997782
-50.000000 0.000000 -50.000000
-29.997717 0.000000 -44.847239
-33.448983 0.000000 -33.145092
-44.675817 0.000000 -39.869318
-36.787078 0.000000 -35.128886
-39.801464 0.000000 -23.330706
-50.000000 0.000000 -26.539346
-44.666805 0.000000 -50.000000
-23.330659 0.000000 -44.665338
-26.804018 0.000000 -39.364382
-30.225774 0.000000 -29.606533
-39.359489 0.000000 -33.368500
-33.655593 0.000000 -50.000000
-16.664092 0.000000 -16.664191
-50.000000 0.000000 -9.998247
