# vtk DataFile Version 2.0
CellBP Time: 3.08
ASCII
DATASET UNSTRUCTURED_GRID
POINTS 320 double
-50.000000 -50.000000 0.000000
-50.000000 -43.332812 0.000000
-45.688445 -45.491195 0.000000
-43.332733 -50.000000 0.000000
-50.000000 -36.665594 0.000000
-36.665615 -50.000000 0.000000
-45.081182 -39.969819 0.000000
-40.027280 -44.152323 0.000000
-29.998456 -50.000000 0.000000
-50.000000 -29.998424 0.000000
-44.847149 -33.448942 0.000000
-33.144987 -44.675737 0.000000
-39.869204 -36.787024 0.000000
-35.128750 -39.801366 0.000000
-23.331504 -50.000000 0.000000
-26.539234 -44.666766 0.000000
-50.000000 -23.331488 0.000000
-44.665298 -26.803961 0.000000
-39.364296 -30.225716 0.000000
-29.606379 -39.359410 0.000000
-33.368342 -33.655501 0.000000
-50.000000 -16.664891 0.000000
-16.664941 -50.000000 0.000000
-9.998776 -50.000000 0.000000
-19.964984 -44.588751 0.000000
-23.215969 -39.114702 0.000000
-44.691866 -20.096951 0.000000
-39.367870 -23.528156 0.000000
-34.106195 -26.937037 0.000000
-26.384516 -33.577323 0.000000
-29.156300 -28.926677 0.000000
-50.000000 -9.998593 0.000000
-44.666339 -13.410218 0.000000
-50.000000 -3.332670 0.000000
-3.332939 -50.000000 0.000000
3.332815 -50.000000 0.000000
-13.343752 -44.598990 0.000000
-6.684782 -44.610645 0.000000
-16.693776 -39.153237 0.000000
-20.107029 -33.342653 0.000000
-39.338151 -16.804722 0.000000
-34.018774 -20.274618 0.000000
-28.781053 -23.449097 0.000000
-23.510576 -27.350469 0.000000
-44.635411 -6.705550 0.000000
-39.293085 -10.101792 0.000000
-50.000000 3.333056 0.000000
-44.626697 -0.015561 0.000000
9.998730 -50.000000 0.000000
16.664960 -50.000000 0.000000
-0.016127 -44.618723 0.000000
6.651666 -44.635423 0.000000
-10.044772 -39.222568 0.000000
-3.368244 -39.220335 0.000000
-13.484278 -33.798635 0.000000
-16.709342 -28.271504 0.000000
-33.948018 -13.513892 0.000000
-28.602056 -16.892267 0.000000
-23.291939 -20.313094 0.000000
-18.660562 -23.283439 0.000000
-39.267476 -3.392766 0.000000
-33.904527 -6.796751 0.000000
-50.000000 9.998854 0.000000
-44.606706 6.673511 0.000000
-39.260855 3.325705 0.000000
-50.000000 16.664997 0.000000
23.331517 -50.000000 0.000000
29.998402 -50.000000 0.000000
13.317530 -44.662958 0.000000
19.989664 -44.700107 0.000000
3.307660 -39.245128 0.000000
9.971819 -39.290324 0.000000
-6.735420 -33.791349 0.000000
-0.032246 -33.829539 0.000000
-10.095941 -28.293022 0.000000
-13.122725 -22.897376 0.000000
-28.532165 -10.214673 0.000000
-23.067115 -13.663469 0.000000
-16.978037 -17.210609 0.000000
-33.884550 -0.065462 0.000000
-28.563033 -3.579393 0.000000
-44.564084 13.380597 0.000000
-39.190028 10.015095 0.000000
-33.905675 6.616032 0.000000
-50.000000 23.331441 0.000000
-44.557555 20.138286 0.000000
-50.000000 29.998474 0.000000
36.665531 -50.000000 0.000000
43.332742 -50.000000 0.000000
26.663279 -44.745325 0.000000
33.315320 -44.876009 0.000000
16.631671 -39.357686 0.000000
23.328275 -39.437113 0.000000
6.642874 -33.879530 0.000000
13.290650 -33.965445 0.000000
-3.345915 -28.363232 0.000000
3.357613 -28.451226 0.000000
-6.626073 -22.845558 0.000000
-9.966813 -17.315091 0.000000
-23.183065 -7.014563 0.000000
-17.812033 -10.334827 0.000000
-12.837783 -12.598539 0.000000
-28.607443 3.088588 0.000000
-23.265642 -0.468960 0.000000
-39.038777 16.746420 0.000000
-28.720780 9.926147 0.000000
-33.761287 13.318253 0.000000
-44.521695 26.717026 0.000000
-38.467758 23.892592 0.000000
-44.632430 33.085675 0.000000
-50.000000 36.665814 0.000000
-50.000000 43.332884 0.000000
39.922404 -45.069634 0.000000
45.474743 -45.660504 0.000000
50.000000 -50.000000 0.000000
36.626804 -39.981994 0.000000
30.012383 -39.458637 0.000000
19.904186 -34.092841 0.000000
26.585038 -34.319523 0.000000
9.988654 -28.513152 0.000000
16.610766 -28.660108 0.000000
0.051369 -22.960957 0.000000
6.812154 -23.156875 0.000000
-3.399400 -17.297013 0.000000
-6.837544 -10.963745 0.000000
-17.876261 -3.821649 0.000000
-12.551141 -7.034844 0.000000
-23.309482 6.071709 0.000000
-18.035918 2.447528 0.000000
-23.122779 12.095911 0.000000
-33.572122 19.788934 0.000000
-27.941491 16.885809 0.000000
-33.292976 24.722802 0.000000
-39.473697 30.052950 0.000000
-35.160485 28.137593 0.000000
-39.816120 35.101511 0.000000
-43.991754 39.982342 0.000000
-45.431055 45.685247 0.000000
-50.000000 50.000000 0.000000
44.117288 -39.899075 0.000000
50.000000 -43.332553 0.000000
39.639466 -35.047453 0.000000
33.462907 -33.424577 0.000000
22.984896 -28.818018 0.000000
28.730985 -29.247831 0.000000
13.460735 -23.121760 0.000000
20.054854 -23.439230 0.000000
3.378177 -17.588525 0.000000
10.125182 -17.841441 0.000000
0.153618 -11.912308 0.000000
-2.141853 -6.220194 0.000000
-7.298823 -3.643616 0.000000
-12.546158 -0.805510 0.000000
-18.167403 8.573165 0.000000
-12.951762 5.196559 0.000000
-18.638666 13.751613 0.000000
-21.504239 17.494641 0.000000
-28.940852 23.158744 0.000000
-24.346318 21.554516 0.000000
-30.323670 28.634933 0.000000
-34.253547 33.375576 0.000000
-36.955979 39.578094 0.000000
-39.838695 45.102810 0.000000
-43.332723 50.000000 0.000000
44.585276 -32.972114 0.000000
50.000000 -36.665345 0.000000
39.129316 -29.581887 0.000000
33.500613 -26.367686 0.000000
27.182942 -23.322114 0.000000
23.066427 -18.647862 0.000000
16.990691 -16.980866 0.000000
6.705631 -12.204710 0.000000
12.361480 -12.734766 0.000000
-3.376500 -1.490049 0.000000
3.874890 -6.916291 0.000000
1.022904 -2.120805 0.000000
-6.946353 2.302144 0.000000
-8.353000 7.755256 0.000000
-12.844346 11.930747 0.000000
-15.691819 17.699786 0.000000
-19.287310 22.982216 0.000000
-24.170971 27.354680 0.000000
-27.286338 33.625963 0.000000
-30.406682 39.161161 0.000000
-33.447831 44.738865 0.000000
-36.665483 50.000000 0.000000
44.547731 -26.499946 0.000000
50.000000 -29.998171 0.000000
39.040015 -23.179287 0.000000
33.449677 -19.899983 0.000000
28.039903 -16.573948 0.000000
22.681825 -13.124016 0.000000
17.176140 -9.905546 0.000000
10.869600 -6.616691 0.000000
-1.355183 2.313061 0.000000
6.185290 -1.727414 0.000000
2.899881 1.597512 0.000000
-3.503899 7.099444 0.000000
-6.312712 12.437110 0.000000
-9.629344 17.706083 0.000000
-13.167314 23.113285 0.000000
-17.316684 28.185143 0.000000
-20.570778 33.474334 0.000000
-23.665958 39.063970 0.000000
-26.830975 44.585363 0.000000
-29.998453 50.000000 0.000000
44.528685 -19.930694 0.000000
50.000000 -23.331262 0.000000
39.036279 -16.594122 0.000000
33.576119 -13.281236 0.000000
28.150067 -9.964993 0.000000
22.725400 -6.604676 0.000000
17.264569 -3.336383 0.000000
11.921141 0.202972 0.000000
1.921012 6.254118 0.000000
6.936646 3.784271 0.000000
-0.218770 11.885248 0.000000
-3.259999 17.530422 0.000000
-6.700105 22.977358 0.000000
-10.567581 28.267405 0.000000
-13.724044 33.661278 0.000000
-16.945718 39.080298 0.000000
-20.140655 44.548423 0.000000
-23.331633 50.000000 0.000000
44.536251 -13.303812 0.000000
50.000000 -16.664741 0.000000
39.079880 -9.966749 0.000000
33.646697 -6.641161 0.000000
28.236272 -3.307722 0.000000
22.847772 0.017846 0.000000
17.535999 3.352842 0.000000
12.199482 6.590914 0.000000
6.695643 10.785276 0.000000
3.301691 17.197251 0.000000
-0.081147 22.852632 0.000000
-3.518713 28.312792 0.000000
-6.831439 33.774445 0.000000
-10.137475 39.170536 0.000000
-13.435831 44.563529 0.000000
-16.665139 50.000000 0.000000
44.554293 -6.654815 0.000000
50.000000 -9.998647 0.000000
39.123333 -3.321382 0.000000
33.713380 0.008759 0.000000
28.333247 3.344402 0.000000
23.000904 6.693838 0.000000
17.833191 10.021393 0.000000
12.656482 12.234047 0.000000
9.788052 17.234045 0.000000
6.478479 22.722384 0.000000
3.188941 28.269822 0.000000
-0.115958 33.734779 0.000000
-3.425226 39.168617 0.000000
-6.725514 44.581800 0.000000
-9.998943 50.000000 0.000000
44.575621 0.001853 0.000000
50.000000 -3.332884 0.000000
39.166868 3.331850 0.000000
33.779354 6.655578 0.000000
28.424068 9.994931 0.000000
23.046404 13.416376 0.000000
16.949291 17.023115 0.000000
12.901596 22.669256 0.000000
9.814981 28.232014 0.000000
6.604253 33.718751 0.000000
3.286535 39.164421 0.000000
-0.029908 44.584560 0.000000
-3.332984 50.000000 0.000000
44.586719 6.665530 0.000000
50.000000 3.332842 0.000000
39.198104 9.981944 0.000000
33.843432 13.277010 0.000000
28.542017 16.584638 0.000000
23.387077 20.084332 0.000000
18.531821 23.112659 0.000000
16.393016 28.298647 0.000000
13.328948 33.754767 0.000000
9.986586 39.181955 0.000000
6.666012 44.584328 0.000000
3.332897 50.000000 0.000000
44.608898 13.317998 0.000000
50.000000 9.998779 0.000000
39.251359 16.612472 0.000000
33.931905 19.862873 0.000000
28.612354 22.925999 0.000000
23.279629 27.207619 0.000000
19.901329 33.303023 0.000000
16.573857 39.040916 0.000000
13.268419 44.526729 0.000000
9.998824 50.000000 0.000000
44.632072 19.973065 0.000000
50.000000 16.665040 0.000000
39.298498 23.262181 0.000000
34.043823 26.514762 0.000000
28.965804 28.539470 0.000000
26.202416 33.410140 0.000000
23.066767 38.968822 0.000000
19.888663 44.507051 0.000000
16.664972 50.000000 0.000000
44.639824 26.642997 0.000000
50.000000 23.331606 0.000000
39.293394 29.966760 0.000000
33.212432 33.371316 0.000000
29.412188 39.045870 0.000000
26.422463 44.505980 0.000000
23.331492 50.000000 0.000000
44.775028 33.291858 0.000000
50.000000 29.998474 0.000000
39.738222 36.596352 0.000000
34.831110 39.525678 0.000000
32.833891 44.514336 0.000000
29.998351 50.000000 0.000000
44.978293 39.877913 0.000000
50.000000 36.665573 0.000000
39.734958 43.969084 0.000000
36.665465 50.000000 0.000000
45.621353 45.409864 0.000000
50.000000 43.332757 0.000000
43.332616 50.000000 0.000000
50.000000 50.000000 0.000000
CELLS 578 2312
3 1 0 2
3 0 3 2
3 4 1 6
3 6 1 2
3 3 5 7
3 3 7 2
3 6 2 7
3 9 4 10
3 10 4 6
3 5 8 11
3 7 5 11
3 10 6 12
3 12 6 7
3 7 11 13
3 7 13 12
3 8 14 15
3 11 8 15
3 16 9 17
3 17 9 10
3 17 10 18
3 18 10 12
3 11 15 19
3 13 11 19
3 18 12 20
3 13 19 20
3 20 12 13
3 14 22 24
3 15 14 24
3 15 24 25
3 19 15 25
3 21 16 26
3 26 16 17
3 26 17 27
3 27 17 18
3 27 18 28
3 28 18 20
3 19 25 29
3 19 29 20
3 28 20 30
3 30 20 29
3 31 21 32
3 32 21 26
3 22 23 36
3 24 22 36
3 23 34 37
3 36 23 37
3 24 36 38
3 25 24 38
3 25 38 39
3 29 25 39
3 32 26 40
3 40 26 27
3 40 27 41
3 41 27 28
3 41 28 42
3 42 28 30
3 29 39 43
3 29 43 30
3 42 30 43
3 33 31 44
3 44 31 32
3 44 32 45
3 45 32 40
3 46 33 47
3 47 33 44
3 34 35 50
3 37 34 50
3 35 48 51
3 50 35 51
3 36 37 52
3 38 36 52
3 37 50 53
3 52 37 53
3 38 52 54
3 39 38 54
3 39 54 55
3 43 39 55
3 45 40 56
3 56 40 41
3 56 41 57
3 57 41 42
3 57 42 58
3 58 42 43
3 43 55 59
3 43 59 58
3 47 44 60
3 60 44 45
3 60 45 61
3 61 45 56
3 62 46 63
3 63 46 47
3 63 47 64
3 64 47 60
3 48 49 68
3 51 48 68
3 49 66 69
3 68 49 69
3 50 51 70
3 53 50 70
3 51 68 71
3 70 51 71
3 52 53 72
3 54 52 72
3 53 70 73
3 72 53 73
3 54 72 74
3 55 54 74
3 55 74 75
3 59 55 75
3 61 56 76
3 76 56 57
3 76 57 77
3 77 57 58
3 77 58 78
3 59 75 78
3 78 58 59
3 64 60 79
3 79 60 61
3 79 61 80
3 80 61 76
3 65 62 81
3 81 62 63
3 81 63 82
3 82 63 64
3 82 64 83
3 83 64 79
3 84 65 85
3 85 65 81
3 66 67 89
3 69 66 89
3 67 87 90
3 89 67 90
3 68 69 91
3 71 68 91
3 69 89 92
3 91 69 92
3 70 71 93
3 73 70 93
3 71 91 94
3 93 71 94
3 72 73 95
3 74 72 95
3 73 93 96
3 95 73 96
3 74 95 97
3 75 74 97
3 75 97 98
3 78 75 98
3 80 76 99
3 99 76 77
3 99 77 100
3 100 77 78
3 100 78 101
3 98 101 78
3 83 79 102
3 102 79 80
3 102 80 103
3 103 80 99
3 85 81 104
3 104 81 82
3 105 83 102
3 104 82 106
3 106 82 83
3 106 83 105
3 86 84 107
3 107 84 85
3 107 85 108
3 108 85 104
3 109 86 107
3 110 86 109
3 87 88 112
3 90 87 112
3 112 88 113
3 88 114 113
3 90 112 115
3 89 90 116
3 92 89 116
3 116 90 115
3 91 92 117
3 94 91 117
3 92 116 118
3 117 92 118
3 93 94 119
3 96 93 119
3 94 117 120
3 119 94 120
3 95 96 121
3 97 95 121
3 96 119 122
3 121 96 122
3 97 121 123
3 98 97 123
3 98 123 124
3 98 124 101
3 103 99 125
3 125 99 100
3 125 100 126
3 126 100 101
3 126 101 124
3 105 102 127
3 127 102 103
3 127 103 128
3 128 103 125
3 129 105 127
3 108 104 130
3 130 104 106
3 130 106 131
3 131 106 105
3 131 105 129
3 108 130 132
3 109 107 133
3 133 107 108
3 133 108 134
3 108 132 134
3 135 109 133
3 111 110 136
3 136 110 109
3 136 109 135
3 137 111 136
3 138 111 137
3 112 113 139
3 115 112 139
3 114 140 113
3 140 139 113
3 139 141 115
3 116 115 142
3 118 116 142
3 142 115 141
3 117 118 143
3 120 117 143
3 118 142 144
3 143 118 144
3 119 120 145
3 122 119 145
3 120 143 146
3 145 120 146
3 121 122 147
3 123 121 147
3 122 145 148
3 147 122 148
3 123 147 149
3 124 123 149
3 124 149 150
3 151 126 124
3 124 150 151
3 128 125 152
3 152 125 126
3 152 126 151
3 129 127 153
3 153 127 128
3 128 152 154
3 153 128 154
3 155 129 153
3 131 129 156
3 156 129 155
3 132 130 157
3 130 131 157
3 157 131 158
3 131 156 158
3 132 157 159
3 132 159 134
3 135 133 160
3 160 133 134
3 160 134 159
3 136 135 161
3 135 160 161
3 162 137 136
3 161 162 136
3 163 138 137
3 162 163 137
3 139 164 141
3 140 165 139
3 139 165 164
3 141 164 166
3 141 166 142
3 166 167 142
3 144 142 167
3 167 168 144
3 143 144 168
3 146 143 168
3 168 169 146
3 145 146 170
3 148 145 170
3 170 146 169
3 147 148 171
3 149 147 171
3 148 170 172
3 171 148 172
3 173 151 150
3 149 171 174
3 150 149 174
3 150 174 175
3 150 175 173
3 154 152 176
3 152 151 176
3 176 151 173
3 154 176 177
3 155 153 178
3 177 178 154
3 154 178 153
3 156 155 179
3 155 178 179
3 180 158 156
3 179 180 156
3 181 159 157
3 180 181 158
3 181 157 158
3 182 160 159
3 181 182 159
3 183 161 160
3 182 183 160
3 184 162 161
3 184 161 183
3 185 163 162
3 184 185 162
3 164 186 166
3 165 187 164
3 164 187 186
3 166 186 188
3 166 188 167
3 167 188 189
3 167 189 168
3 168 189 190
3 168 190 169
3 169 190 191
3 169 191 170
3 192 172 170
3 170 191 192
3 192 193 172
3 171 172 193
3 174 171 193
3 194 173 175
3 176 173 194
3 175 174 195
3 193 195 174
3 195 196 175
3 175 196 194
3 197 177 176
3 194 197 176
3 198 178 177
3 197 198 177
3 199 179 178
3 198 199 178
3 200 180 179
3 199 200 179
3 201 181 180
3 200 201 180
3 202 182 181
3 201 202 181
3 203 183 182
3 202 203 182
3 204 184 183
3 203 204 183
3 205 185 184
3 204 205 184
3 186 206 188
3 187 207 186
3 186 207 206
3 188 206 208
3 188 208 189
3 189 208 209
3 189 209 190
3 190 209 210
3 190 210 191
3 191 210 211
3 191 211 192
3 192 211 212
3 192 212 193
3 193 212 213
3 193 213 195
3 214 197 194
3 214 194 196
3 195 213 215
3 195 215 196
3 196 215 214
3 216 198 197
3 214 216 197
3 217 199 198
3 216 217 198
3 218 200 199
3 217 218 199
3 219 201 200
3 218 219 200
3 220 202 201
3 219 220 201
3 221 203 202
3 220 221 202
3 222 204 203
3 221 222 203
3 223 205 204
3 222 223 204
3 206 224 208
3 207 225 206
3 206 225 224
3 208 224 226
3 208 226 209
3 209 226 227
3 209 227 210
3 210 227 228
3 210 228 211
3 211 228 229
3 211 229 212
3 212 229 230
3 212 230 213
3 213 230 231
3 213 231 215
3 232 216 214
3 215 231 232
3 232 214 215
3 233 217 216
3 232 233 216
3 234 218 217
3 233 234 217
3 235 219 218
3 234 235 218
3 236 220 219
3 235 236 219
3 237 221 220
3 236 237 220
3 238 222 221
3 237 238 221
3 239 223 222
3 238 239 222
3 224 240 226
3 225 241 224
3 224 241 240
3 226 240 242
3 226 242 227
3 227 242 243
3 227 243 228
3 228 243 244
3 228 244 229
3 244 245 229
3 229 245 230
3 230 245 246
3 230 246 231
3 231 246 247
3 231 247 232
3 248 233 232
3 248 232 247
3 249 234 233
3 248 249 233
3 250 235 234
3 249 250 234
3 251 236 235
3 250 251 235
3 252 237 236
3 251 252 236
3 253 238 237
3 252 253 237
3 254 239 238
3 253 254 238
3 240 255 242
3 241 256 240
3 240 256 255
3 242 255 257
3 242 257 243
3 243 257 258
3 243 258 244
3 244 258 259
3 244 259 245
3 245 259 260
3 245 260 246
3 246 260 261
3 246 261 247
3 248 247 261
3 262 249 248
3 261 262 248
3 263 250 249
3 262 263 249
3 264 251 250
3 263 264 250
3 265 252 251
3 264 265 251
3 266 253 252
3 265 266 252
3 267 254 253
3 266 267 253
3 255 268 257
3 256 269 255
3 255 269 268
3 257 268 270
3 257 270 258
3 258 270 271
3 258 271 259
3 259 271 272
3 259 272 260
3 260 272 273
3 260 273 261
3 274 262 261
3 261 273 274
3 275 263 262
3 274 275 262
3 276 264 263
3 275 276 263
3 277 265 264
3 276 277 264
3 278 266 265
3 277 278 265
3 279 267 266
3 278 279 266
3 268 280 270
3 269 281 268
3 268 281 280
3 270 280 282
3 270 282 271
3 271 282 283
3 271 283 272
3 283 284 272
3 272 284 273
3 285 275 274
3 273 284 285
3 285 274 273
3 286 276 275
3 285 286 275
3 287 277 276
3 286 287 276
3 288 278 277
3 287 288 277
3 289 279 278
3 288 289 278
3 280 290 282
3 281 291 280
3 280 291 290
3 282 290 292
3 282 292 283
3 283 292 293
3 283 293 284
3 284 293 294
3 284 294 285
3 295 286 285
3 295 285 294
3 296 287 286
3 295 296 286
3 297 288 287
3 296 297 287
3 298 289 288
3 297 298 288
3 290 299 292
3 291 300 290
3 290 300 299
3 292 299 301
3 292 301 293
3 293 301 302
3 293 302 294
3 294 302 295
3 303 296 295
3 303 295 302
3 304 297 296
3 303 304 296
3 305 298 297
3 304 305 297
3 299 306 301
3 300 307 299
3 299 307 306
3 301 306 308
3 301 308 302
3 309 303 302
3 302 308 309
3 310 304 303
3 309 310 303
3 311 305 304
3 310 311 304
3 306 312 308
3 307 313 306
3 306 313 312
3 314 310 309
3 308 312 314
3 314 309 308
3 315 311 310
3 314 315 310
3 312 316 314
3 313 317 312
3 312 317 316
3 318 315 314
3 318 314 316
3 317 319 316
3 319 318 316
CELL_TYPES 578
5
5
5
5
5
5
5
5
5
5
5
5
5
5
5
5
5
5
5
5
5
5
5
5
5
5
5
5
5
5
5
5
5
5
5
5
5
5
5
5
5
5
5
5
5
5
5
5
5
5
5
5
5
5
5
5
5
5
5
5
5
5
5
5
5
5
5
5
5
5
5
5
5
5
5
5
5
5
5
5
5
5
5
5
5
5
5
5
5
5
5
5
5
5
5
5
5
5
5
5
5
5
5
5
5
5
5
5
5
5
5
5
5
5
5
5
5
5
5
5
5
5
5
5
5
5
5
5
5
5
5
5
5
5
5
5
5
5
5
5
5
5
5
5
5
5
5
5
5
5
5
5
5
5
5
5
5
5
5
5
5
5
5
5
5
5
5
5
5
5
5
5
5
5
5
5
5
5
5
5
5
5
5
5
5
5
5
5
5
5
5
5
5
5
5
5
5
5
5
5
5
5
5
5
5
5
5
5
5
5
5
5
5
5
5
5
5
5
5
5
5
5
5
5
5
5
5
5
5
5
5
5
5
5
5
5
5
5
5
5
5
5
5
5
5
5
5
5
5
5
5
5
5
5
5
5
5
5
5
5
5
5
5
5
5
5
5
5
5
5
5
5
5
5
5
5
5
5
5
5
5
5
5
5
5
5
5
5
5
5
5
5
5
5
5
5
5
5
5
5
5
5
5
5
5
5
5
5
5
5
5
5
5
5
5
5
5
5
5
5
5
5
5
5
5
5
5
5
5
5
5
5
5
5
5
5
5
5
5
5
5
5
5
5
5
5
5
5
5
5
5
5
5
5
5
5
5
5
5
5
5
5
5
5
5
5
5
5
5
5
5
5
5
5
5
5
5
5
5
5
5
5
5
5
5
5
5
5
5
5
5
5
5
5
5
5
5
5
5
5
5
5
5
5
5
5
5
5
5
5
5
5
5
5
5
5
5
5
5
5
5
5
5
5
5
5
5
5
5
5
5
5
5
5
5
5
5
5
5
5
5
5
5
5
5
5
5
5
5
5
5
5
5
5
5
5
5
5
5
5
5
5
5
5
5
5
5
5
5
5
5
5
5
5
5
5
5
5
5
5
5
5
5
5
5
5
5
5
5
5
5
5
5
5
5
5
5
5
5
5
5
5
5
5
5
5
5
5
5
5
5
5
5
5
5
5
5
5
5
5
5
5
5
5
5
5
5
5
5
5
5
5
5
5
5
5
5
5
5
5
5
5
5
5
5
5
5
5
5
5
5
5
5
5
5
5
5
5
5
5
5
5
5
5
5
5
5
5
5
5
5
5
5
5
5
5
5
5
POINT_DATA 320
SCALARS theta_e float 1
LOOKUP_TABLE default
1.000001
1.000001
1.000001
1.000001
1.000001
1.000001
1.000001
1.000001
1.000001
1.000001
1.000001
1.000001
1.000001
1.000001
1.000001
1.000001
1.000001
1.000001
1.000001
1.000001
1.000001
1.000001
1.000001
1.000001
1.000001
1.000001
1.000001
1.000001
1.000001
1.000001
1.000001
1.000001
1.000001
1.000001
1.000001
1.000001
1.000001
1.000001
1.000001
1.000001
1.000001
1.000001
1.000001
1.000001
1.000001
1.000001
1.000001
1.000001
1.000001
1.000001
1.000001
1.000001
1.000001
1.000001
1.000001
1.000001
1.000001
1.000001
1.000001
1.000001
1.000001
1.000001
1.000001
1.000001
1.000001
1.000001
1.000001
1.000001
1.000001
1.000001
1.000001
1.000001
1.000001
1.000001
1.000001
1.000001
1.000001
1.000001
1.000001
1.000001
1.000001
1.000001
1.000001
1.000001
1.000001
1.000001
1.000001
1.000001
1.000001
1.000001
1.000001
1.000001
1.000001
1.000001
1.000001
1.000001
1.000001
1.000001
1.000001
1.000001
1.000001
1.000000
1.000001
1.000001
1.000001
1.000001
1.000001
1.000001
1.000001
1.000001
1.000001
1.000001
1.000001
1.000001
1.000001
1.000001
1.000001
1.000001
1.000001
1.000001
1.000001
1.000001
1.000001
1.000001
0.999996
1.000001
0.999999
1.000001
1.000001
1.000001
1.000001
1.000001
1.000001
1.000001
1.000001
1.000001
1.000001
1.000001
1.000001
1.000001
1.000001
1.000001
1.000001
1.000001
1.000001
1.000001
1.000001
1.000001
1.000001
0.999995
0.999979
0.999985
0.999996
1.000001
0.999998
1.000001
1.000001
1.000001
1.000001
1.000001
1.000001
1.000001
1.000001
1.000001
1.000001
1.000001
1.000001
1.000001
1.000001
1.000001
1.000001
0.999999
1.000001
0.999969
0.999984
0.999970
0.999980
0.999993
1.000001
1.000001
1.000001
1.000001
1.000001
1.000001
1.000001
1.000001
1.000001
1.000001
1.000001
1.000001
1.000001
1.000001
1.000001
0.999996
0.999969
0.999979
0.999970
0.999980
0.999997
1.000001
1.000001
1.000001
1.000001
1.000001
1.000001
1.000001
1.000001
1.000001
1.000001
1.000001
1.000001
1.000001
1.000001
0.999995
0.999978
0.999984
0.999994
1.000001
1.000001
1.000001
1.000001
1.000001
1.000001
1.000001
1.000001
1.000001
1.000001
1.000001
1.000001
1.000001
1.000001
0.999999
0.999996
1.000001
1.000001
1.000001
1.000001
1.000001
1.000001
1.000001
1.000001
1.000001
1.000001
1.000001
1.000001
1.000001
1.000001
1.000001
1.000002
1.000001
1.000001
1.000001
1.000001
1.000001
1.000001
1.000001
1.000001
1.000001
1.000001
1.000001
1.000001
1.000001
1.000001
1.000001
1.000001
1.000001
1.000001
1.000001
1.000001
1.000001
1.000001
1.000001
1.000001
1.000001
1.000001
1.000001
1.000001
1.000001
1.000001
1.000001
1.000001
1.000001
1.000001
1.000001
1.000001
1.000001
1.000001
1.000001
1.000001
1.000001
1.000001
1.000001
1.000001
1.000001
1.000001
1.000001
1.000001
1.000001
1.000001
1.000001
1.000001
1.000001
1.000001
1.000001
1.000001
1.000001
1.000001
1.000001
1.000001
1.000001
1.000001
1.000001
1.000001
1.000001
1.000001
1.000001
1.000001
1.000001
1.000001
1.000001
VECTORS fa_u float
0.000000 0.000000 0.000000
0.000000 0.000000 0.000000
0.000000 0.000000 0.000000
0.000000 0.000000 0.000000
0.000000 0.000000 0.000000
0.000000 0.000000 0.000000
0.000000 0.000000 0.000000
0.000000 0.000000 0.000000
0.000000 0.000000 0.000000
0.000000 0.000000 0.000000
0.000000 0.000000 0.000000
0.000000 0.000000 0.000000
0.000000 0.000000 0.000000
0.000000 0.000000 0.000000
0.000000 0.000000 0.000000
0.000000 0.000000 0.000000
0.000000 0.000000 0.000000
0.000000 0.000000 0.000000
0.000000 0.000000 0.000000
0.000000 0.000000 0.000000
0.000000 0.000000 0.000000
0.000000 0.000000 0.000000
0.000000 0.000000 0.000000
0.000000 0.000000 0.000000
0.000000 0.000000 0.000000
0.000000 0.000000 0.000000
0.000000 0.000000 0.000000
0.000000 0.000000 0.000000
0.000000 0.000000 0.000000
0.000000 0.000000 0.000000
0.000000 0.000000 0.000000
0.000000 0.000000 0.000000
0.000000 0.000000 0.000000
0.000000 0.000000 0.000000
0.000000 0.000000 0.000000
0.000000 0.000000 0.000000
0.000000 0.000000 0.000000
0.000000 0.000000 0.000000
0.000000 0.000000 0.000000
0.000000 0.000000 0.000000
0.000000 0.000000 0.000000
0.000000 0.000000 0.000000
0.000000 0.000000 0.000000
0.000000 0.000000 0.000000
0.000000 0.000000 0.000000
0.000000 0.000000 0.000000
0.000000 0.000000 0.000000
0.000000 0.000000 0.000000
0.000000 0.000000 0.000000
0.000000 0.000000 0.000000
0.000000 0.000000 0.000000
0.000000 0.000000 0.000000
0.000000 0.000000 0.000000
0.000000 0.000000 0.000000
0.000000 0.000000 0.000000
0.000000 0.000000 0.000000
0.000000 0.000000 0.000000
0.000000 0.000000 0.000000
0.000000 0.000000 0.000000
0.000000 0.000000 0.000000
0.000000 0.000000 0.000000
0.000000 0.000000 0.000000
0.000000 0.000000 0.000000
0.000000 0.000000 0.000000
0.000000 0.000000 0.000000
0.000000 0.000000 0.000000
0.000000 0.000000 0.000000
0.000000 0.000000 0.000000
0.000000 0.000000 0.000000
0.000000 0.000000 0.000000
0.000000 0.000000 0.000000
0.000000 0.000000 0.000000
0.000000 0.000000 0.000000
0.000000 0.000000 0.000000
0.000000 0.000000 0.000000
0.000000 0.000000 0.000000
0.000000 0.000000 0.000000
0.000000 0.000000 0.000000
0.000000 0.000000 0.000000
0.000000 0.000000 0.000000
0.000000 0.000000 0.000000
0.000000 0.000000 0.000000
0.000000 0.000000 0.000000
0.000000 0.000000 0.000000
0.000000 0.000000 0.000000
0.000000 0.000000 0.000000
0.000000 0.000000 0.000000
0.000000 0.000000 0.000000
0.000000 0.000000 0.000000
0.000000 0.000000 0.000000
0.000000 0.000000 0.000000
0.000000 0.000000 0.000000
0.000000 0.000000 0.000000
0.000000 0.000000 0.000000
0.000000 0.000000 0.000000
0.000000 0.000000 0.000000
0.000000 0.000000 0.000000
0.000000 0.000000 0.000000
0.000000 0.000000 0.000000
0.000000 0.000000 0.000000
0.000000 0.000000 0.000000
0.000000 0.000000 0.000000
0.000000 0.000000 0.000000
0.000000 0.000000 0.000000
0.000000 0.000000 0.000000
0.000000 0.000000 0.000000
0.000000 0.000000 0.000000
0.000000 0.000000 0.000000
0.000000 0.000000 0.000000
0.000000 0.000000 0.000000
0.000000 0.000000 0.000000
0.000000 0.000000 0.000000
0.000000 0.000000 0.000000
0.000000 0.000000 0.000000
0.000000 0.000000 0.000000
0.000000 0.000000 0.000000
0.000000 0.000000 0.000000
0.000000 0.000000 0.000000
0.000000 0.000000 0.000000
0.000000 0.000000 0.000000
0.000000 0.000000 0.000000
0.000000 0.000000 0.000000
0.000000 0.000000 0.000000
0.000000 0.000000 0.000000
0.000000 0.000000 0.000000
0.000000 0.000000 0.000000
0.000000 0.000000 0.000000
0.000000 0.000000 0.000000
0.000000 0.000000 0.000000
0.000000 0.000000 0.000000
0.000000 0.000000 0.000000
0.000000 0.000000 0.000000
0.000000 0.000000 0.000000
0.000000 0.000000 0.000000
0.000000 0.000000 0.000000
0.000000 0.000000 0.000000
0.000000 0.000000 0.000000
0.000000 0.000000 0.000000
0.000000 0.000000 0.000000
0.000000 0.000000 0.000000
0.000000 0.000000 0.000000
0.000000 0.000000 0.000000
0.000000 0.000000 0.000000
0.000000 0.000000 0.000000
0.000000 0.000000 0.000000
0.000000 0.000000 0.000000
0.000000 0.000000 0.000000
0.000000 0.000000 0.000000
0.000000 0.000000 0.000000
0.000000 0.000000 0.000000
0.000000 0.000000 0.000000
0.000000 0.000000 0.000000
0.000000 0.000000 0.000000
0.000000 0.000000 0.000000
0.000000 0.000000 0.000000
0.000000 0.000000 0.000000
0.000000 0.000000 0.000000
0.000000 0.000000 0.000000
0.000000 0.000000 0.000000
0.000000 0.000000 0.000000
0.000000 0.000000 0.000000
0.000000 0.000000 0.000000
0.000000 0.000000 0.000000
0.000000 0.000000 0.000000
0.000000 0.000000 0.000000
0.000000 0.000000 0.000000
0.000000 0.000000 0.000000
0.000000 0.000000 0.000000
0.000000 0.000000 0.000000
0.000000 0.000000 0.000000
0.000000 0.000000 0.000000
0.000000 0.000000 0.000000
0.000000 0.000000 0.000000
0.000000 0.000000 0.000000
0.000000 0.000000 0.000000
0.000000 0.000000 0.000000
0.000000 0.000000 0.000000
0.000000 0.000000 0.000000
0.000000 0.000000 0.000000
0.000000 0.000000 0.000000
0.000000 0.000000 0.000000
0.000000 0.000000 0.000000
0.000000 0.000000 0.000000
0.000000 0.000000 0.000000
0.000000 0.000000 0.000000
0.000000 0.000000 0.000000
0.000000 0.000000 0.000000
0.000000 0.000000 0.000000
0.000000 0.000000 0.000000
0.000000 0.000000 0.000000
0.000000 0.000000 0.000000
0.000000 0.000000 0.000000
0.000000 0.000000 0.000000
0.000000 0.000000 0.000000
0.000000 0.000000 0.000000
0.000000 0.000000 0.000000
0.000000 0.000000 0.000000
0.000000 0.000000 0.000000
0.000000 0.000000 0.000000
0.000000 0.000000 0.000000
0.000000 0.000000 0.000000
0.000000 0.000000 0.000000
0.000000 0.000000 0.000000
0.000000 0.000000 0.000000
0.000000 0.000000 0.000000
0.000000 0.000000 0.000000
0.000000 0.000000 0.000000
0.000000 0.000000 0.000000
0.000000 0.000000 0.000000
0.000000 0.000000 0.000000
0.000000 0.000000 0.000000
0.000000 0.000000 0.000000
0.000000 0.000000 0.000000
0.000000 0.000000 0.000000
0.000000 0.000000 0.000000
0.000000 0.000000 0.000000
0.000000 0.000000 0.000000
0.000000 0.000000 0.000000
0.000000 0.000000 0.000000
0.000000 0.000000 0.000000
0.000000 0.000000 0.000000
0.000000 0.000000 0.000000
0.000000 0.000000 0.000000
0.000000 0.000000 0.000000
0.000000 0.000000 0.000000
0.000000 0.000000 0.000000
0.000000 0.000000 0.000000
0.000000 0.000000 0.000000
0.000000 0.000000 0.000000
0.000000 0.000000 0.000000
0.000000 0.000000 0.000000
0.000000 0.000000 0.000000
0.000000 0.000000 0.000000
0.000000 0.000000 0.000000
0.000000 0.000000 0.000000
0.000000 0.000000 0.000000
0.000000 0.000000 0.000000
0.000000 0.000000 0.000000
0.000000 0.000000 0.000000
0.000000 0.000000 0.000000
0.000000 0.000000 0.000000
0.000000 0.000000 0.000000
0.000000 0.000000 0.000000
0.000000 0.000000 0.000000
0.000000 0.000000 0.000000
0.000000 0.000000 0.000000
0.000000 0.000000 0.000000
0.000000 0.000000 0.000000
0.000000 0.000000 0.000000
0.000000 0.000000 0.000000
0.000000 0.000000 0.000000
0.000000 0.000000 0.000000
0.000000 0.000000 0.000000
0.000000 0.000000 0.000000
0.000000 0.000000 0.000000
0.000000 0.000000 0.000000
0.000000 0.000000 0.000000
0.000000 0.000000 0.000000
0.000000 0.000000 0.000000
0.000000 0.000000 0.000000
0.000000 0.000000 0.000000
0.000000 0.000000 0.000000
0.000000 0.000000 0.000000
0.000000 0.000000 0.000000
0.000000 0.000000 0.000000
0.000000 0.000000 0.000000
0.000000 0.000000 0.000000
0.000000 0.000000 0.000000
0.000000 0.000000 0.000000
0.000000 0.000000 0.000000
0.000000 0.000000 0.000000
0.000000 0.000000 0.000000
0.000000 0.000000 0.000000
0.000000 0.000000 0.000000
0.000000 0.000000 0.000000
0.000000 0.000000 0.000000
0.000000 0.000000 0.000000
0.000000 0.000000 0.000000
0.000000 0.000000 0.000000
0.000000 0.000000 0.000000
0.000000 0.000000 0.000000
0.000000 0.000000 0.000000
0.000000 0.000000 0.000000
0.000000 0.000000 0.000000
0.000000 0.000000 0.000000
0.000000 0.000000 0.000000
0.000000 0.000000 0.000000
0.000000 0.000000 0.000000
0.000000 0.000000 0.000000
0.000000 0.000000 0.000000
0.000000 0.000000 0.000000
0.000000 0.000000 0.000000
0.000000 0.000000 0.000000
0.000000 0.000000 0.000000
0.000000 0.000000 0.000000
0.000000 0.000000 0.000000
0.000000 0.000000 -50.000000
-50.000000 0.000000 -50.000000
-43.332812 0.000000 -45.688445
-45.491195 0.000000 -43.332733
-50.000000 0.000000 -50.000000
-36.665594 0.000000 -36.665615
-50.000000 0.000000 -45.081182
-39.969819 0.000000 -40.027280
-44.152323 0.000000 -29.998456
-50.000000 0.000000 -50.000000
-29.998424 0.000000 -44.847149
-33.448942 0.000000 -33.144987
-44.675737 0.000000 -39.869204
-36.787024 0.000000 -35.128750
-39.801366 0.000000 -23.331504
-50.000000 0.000000 -26.539234
-44.666766 0.000000 -50.000000
-23.331488 0.000000 -44.665298
-26.803961 0.000000 -39.364296
-30.225716 0.000000 -29.606379
-39.359410 0.000000 -33.368342
-33.655501 0.000000 -50.000000
-16.664891 0.000000 -16.664941
-50.000000 0.000000 -9.998776
