# vtk DataFile Version 2.0
CellBP Time: 8.96
ASCII
DATASET UNSTRUCTURED_GRID
POINTS 320 double
-50.000000 -50.000000 0.000000
-50.000000 -43.332190 0.000000
-45.688668 -45.491376 0.000000
-43.332035 -50.000000 0.000000
-50.000000 -36.664312 0.000000
-36.664398 -50.000000 0.000000
-45.081422 -39.969944 0.000000
-40.027631 -44.152512 0.000000
-29.996677 -50.000000 0.000000
-50.000000 -29.996545 0.000000
-44.847384 -33.449047 0.000000
-33.145270 -44.675941 0.000000
-39.869504 -36.787159 0.000000
-35.129112 -39.801615 0.000000
-23.329412 -50.000000 0.000000
-26.539542 -44.666860 0.000000
-50.000000 -23.329296 0.000000
-44.665396 -26.804109 0.000000
-39.364515 -30.225863 0.000000
-29.606791 -39.359605 0.000000
-33.368756 -33.655728 0.000000
-50.000000 -16.662795 0.000000
-16.662991 -50.000000 0.000000
-9.997421 -50.000000 0.000000
-19.965347 -44.588702 0.000000
-23.216281 -39.114764 0.000000
-44.691808 -20.097096 0.000000
-39.367957 -23.528199 0.000000
-34.106446 -26.937141 0.000000
-26.384918 -33.577605 0.000000
-29.156705 -28.926915 0.000000
-50.000000 -9.996943 0.000000
-44.666290 -13.410342 0.000000
-50.000000 -3.331909 0.000000
-3.332542 -50.000000 0.000000
3.332174 -50.000000 0.000000
-13.344140 -44.598857 0.000000
-6.685029 -44.610448 0.000000
-16.694068 -39.153068 0.000000
-20.107245 -33.342601 0.000000
-39.338097 -16.804576 0.000000
-34.019083 -20.274462 0.000000
-28.781505 -23.449271 0.000000
-23.510903 -27.351128 0.000000
-44.635255 -6.705488 0.000000
-39.293119 -10.101662 0.000000
-50.000000 3.332707 0.000000
-44.626470 -0.015324 0.000000
9.997247 -50.000000 0.000000
16.663002 -50.000000 0.000000
-0.016215 -44.618553 0.000000
6.651795 -44.635322 0.000000
-10.045035 -39.222493 0.000000
-3.368345 -39.220164 0.000000
-13.484393 -33.798362 0.000000
-16.708790 -28.271596 0.000000
-33.947900 -13.513329 0.000000
-28.602893 -16.891911 0.000000
-23.292970 -20.313374 0.000000
-18.661175 -23.284887 0.000000
-39.267291 -3.392525 0.000000
-33.904461 -6.796687 0.000000
-50.000000 9.997485 0.000000
-44.606461 6.673893 0.000000
-39.260568 3.325878 0.000000
-50.000000 16.663022 0.000000
23.329447 -50.000000 0.000000
29.996593 -50.000000 0.000000
13.317844 -44.662919 0.000000
19.990008 -44.700093 0.000000
3.307601 -39.245095 0.000000
9.971889 -39.290399 0.000000
-6.735805 -33.791331 0.000000
-0.032163 -33.829400 0.000000
-10.096087 -28.292120 0.000000
-13.122692 -22.895530 0.000000
-28.531209 -10.213909 0.000000
-23.068063 -13.663828 0.000000
-16.979550 -17.213193 0.000000
-33.884058 -0.065477 0.000000
-28.562629 -3.580402 0.000000
-44.563916 13.381101 0.000000
-39.189806 10.015302 0.000000
-33.905373 6.616112 0.000000
-50.000000 23.329214 0.000000
-44.557265 20.138691 0.000000
-50.000000 29.996685 0.000000
36.664252 -50.000000 0.000000
43.332081 -50.000000 0.000000
26.663603 -44.745416 0.000000
33.315558 -44.876194 0.000000
16.631759 -39.357683 0.000000
23.328462 -39.437215 0.000000
6.642974 -33.879624 0.000000
13.290427 -33.965442 0.000000
-3.346592 -28.363900 0.000000
3.358539 -28.451193 0.000000
-6.626447 -22.844600 0.000000
-9.960808 -17.315261 0.000000
-23.179487 -7.014013 0.000000
-17.814451 -10.334875 0.000000
-12.837922 -12.611708 0.000000
-28.607259 3.088751 0.000000
-23.266985 -0.470210 0.000000
-39.038327 16.746363 0.000000
-28.719844 9.925696 0.000000
-33.760609 13.317916 0.000000
-44.521724 26.717453 0.000000
-38.467799 23.892839 0.000000
-44.632854 33.086117 0.000000
-50.000000 36.664821 0.000000
-50.000000 43.332364 0.000000
39.922604 -45.069818 0.000000
45.474983 -45.660707 0.000000
50.000000 -50.000000 0.000000
36.626979 -39.982153 0.000000
30.012629 -39.458783 0.000000
19.904210 -34.093054 0.000000
26.585175 -34.319708 0.000000
9.988351 -28.512570 0.000000
16.610447 -28.660623 0.000000
0.050053 -22.963971 0.000000
6.811987 -23.154622 0.000000
-3.397523 -17.296908 0.000000
-6.795482 -10.872644 0.000000
-17.872953 -3.811238 0.000000
-12.547799 -7.033183 0.000000
-23.307760 6.068913 0.000000
-18.033318 2.436025 0.000000
-23.123981 12.096412 0.000000
-33.572170 19.788966 0.000000
-27.941844 16.886557 0.000000
-33.293402 24.723152 0.000000
-39.474214 30.053509 0.000000
-35.161086 28.137963 0.000000
-39.816652 35.101929 0.000000
-43.992034 39.982836 0.000000
-45.431208 45.685561 0.000000
-50.000000 50.000000 0.000000
44.117502 -39.899370 0.000000
50.000000 -43.331673 0.000000
39.639697 -35.047674 0.000000
33.463076 -33.424767 0.000000
22.985045 -28.818308 0.000000
28.731132 -29.248029 0.000000
13.460810 -23.121927 0.000000
20.054983 -23.440044 0.000000
3.362556 -17.591320 0.000000
10.122176 -17.843898 0.000000
0.169419 -11.774393 0.000000
-2.122710 -6.152522 0.000000
-7.142973 -3.554564 0.000000
-12.428663 -0.808536 0.000000
-18.175033 8.573186 0.000000
-12.932462 5.196513 0.000000
-18.637724 13.750813 0.000000
-21.503559 17.493889 0.000000
-28.941214 23.159506 0.000000
-24.346514 21.554161 0.000000
-30.324173 28.635331 0.000000
-34.254005 33.375760 0.000000
-36.956220 39.578224 0.000000
-39.838804 45.103027 0.000000
-43.332021 50.000000 0.000000
44.585470 -32.972349 0.000000
50.000000 -36.663846 0.000000
39.129430 -29.582139 0.000000
33.500786 -26.367842 0.000000
27.183386 -23.322148 0.000000
23.067610 -18.648054 0.000000
16.992960 -16.982817 0.000000
6.696875 -12.189637 0.000000
12.375358 -12.737897 0.000000
-3.362541 -1.483522 0.000000
3.783592 -6.759741 0.000000
1.023919 -2.120660 0.000000
-6.846975 2.262921 0.000000
-8.232229 7.646832 0.000000
-12.840973 11.927417 0.000000
-15.690228 17.698682 0.000000
-19.287547 22.981099 0.000000
-24.171032 27.354302 0.000000
-27.286467 33.625746 0.000000
-30.406861 39.160991 0.000000
-33.448036 44.738896 0.000000
-36.664116 50.000000 0.000000
44.547771 -26.500237 0.000000
50.000000 -29.996089 0.000000
39.040019 -23.179403 0.000000
33.449509 -19.900018 0.000000
28.039612 -16.573189 0.000000
22.679194 -13.123588 0.000000
17.175852 -9.898773 0.000000
10.769450 -6.573161 0.000000
-1.359901 2.321897 0.000000
6.127959 -1.708531 0.000000
2.886187 1.591651 0.000000
-3.444639 6.972127 0.000000
-6.314109 12.425791 0.000000
-9.629329 17.713056 0.000000
-13.168248 23.114963 0.000000
-17.317030 28.185037 0.000000
-20.571162 33.474139 0.000000
-23.666229 39.063878 0.000000
-26.831379 44.585335 0.000000
-29.996664 50.000000 0.000000
44.528624 -19.931035 0.000000
50.000000 -23.328894 0.000000
39.036108 -16.594270 0.000000
33.575723 -13.281276 0.000000
28.148906 -9.965162 0.000000
22.724525 -6.604830 0.000000
17.265209 -3.334589 0.000000
11.783451 0.218353 0.000000
1.906270 6.192634 0.000000
6.787548 3.700871 0.000000
-0.227959 11.751876 0.000000
-3.245638 17.531773 0.000000
-6.698642 22.976130 0.000000
-10.566974 28.267144 0.000000
-13.724398 33.660833 0.000000
-16.946043 39.080071 0.000000
-20.141147 44.548311 0.000000
-23.329662 50.000000 0.000000
44.536103 -13.304168 0.000000
50.000000 -16.662525 0.000000
39.079729 -9.966947 0.000000
33.646523 -6.641520 0.000000
28.236848 -3.308213 0.000000
22.850511 0.017264 0.000000
17.538648 3.338972 0.000000
12.177977 6.580251 0.000000
6.650261 10.682402 0.000000
3.302626 17.200588 0.000000
-0.080471 22.855226 0.000000
-3.519239 28.313243 0.000000
-6.831857 33.774711 0.000000
-10.137918 39.170489 0.000000
-13.436358 44.563415 0.000000
-16.663365 50.000000 0.000000
44.554071 -6.655049 0.000000
50.000000 -9.997066 0.000000
39.123135 -3.321487 0.000000
33.713291 0.008830 0.000000
28.333358 3.345351 0.000000
22.998931 6.693949 0.000000
17.834868 10.018069 0.000000
12.658886 12.246110 0.000000
9.783283 17.232507 0.000000
6.479996 22.722434 0.000000
3.189548 28.270479 0.000000
-0.116093 33.734979 0.000000
-3.425405 39.168728 0.000000
-6.725891 44.581693 0.000000
-9.997709 50.000000 0.000000
44.575448 0.001777 0.000000
50.000000 -3.332326 0.000000
39.166889 3.331811 0.000000
33.779575 6.655682 0.000000
28.423789 9.994687 0.000000
23.046547 13.416123 0.000000
16.951392 17.024731 0.000000
12.901554 22.666608 0.000000
9.815597 28.231616 0.000000
6.604456 33.718831 0.000000
3.286537 39.164438 0.000000
-0.030000 44.584473 0.000000
-3.332568 50.000000 0.000000
44.586638 6.665698 0.000000
50.000000 3.332323 0.000000
39.198237 9.982077 0.000000
33.843531 13.276887 0.000000
28.542482 16.584243 0.000000
23.387878 20.084261 0.000000
18.532041 23.113680 0.000000
16.392448 28.298449 0.000000
13.329079 33.754734 0.000000
9.986760 39.181946 0.000000
6.666179 44.584204 0.000000
3.332404 50.000000 0.000000
44.608879 13.318374 0.000000
50.000000 9.997414 0.000000
39.251400 16.612654 0.000000
33.932089 19.862925 0.000000
28.612633 22.926007 0.000000
23.279697 27.207855 0.000000
19.901448 33.302809 0.000000
16.574163 39.040807 0.000000
13.268783 44.526605 0.000000
9.997468 50.000000 0.000000
44.632065 19.973487 0.000000
50.000000 16.663191 0.000000
39.298577 23.262428 0.000000
34.043992 26.514935 0.000000
28.966025 28.539523 0.000000
26.202632 33.410203 0.000000
23.067010 38.968792 0.000000
19.889052 44.507010 0.000000
16.663006 50.000000 0.000000
44.639912 26.643381 0.000000
50.000000 23.329621 0.000000
39.293542 29.967037 0.000000
33.212652 33.371505 0.000000
29.412483 39.045968 0.000000
26.422808 44.506018 0.000000
23.329344 50.000000 0.000000
44.775209 33.292142 0.000000
50.000000 29.996712 0.000000
39.738386 36.596555 0.000000
34.831356 39.525920 0.000000
32.834176 44.514527 0.000000
29.996421 50.000000 0.000000
44.978481 39.878143 0.000000
50.000000 36.664308 0.000000
39.735288 43.969313 0.000000
36.664055 50.000000 0.000000
45.621577 45.410112 0.000000
50.000000 43.332092 0.000000
43.331775 50.000000 0.000000
50.000000 50.000000 0.000000
CELLS 578 2312
3 1 0 2
3 0 3 2
3 4 1 6
3 6 1 2
3 3 5 7
3 3 7 2
3 6 2 7
3 9 4 10
3 10 4 6
3 5 8 11
3 7 5 11
3 10 6 12
3 12 6 7
3 7 11 13
3 7 13 12
3 8 14 15
3 11 8 15
3 16 9 17
3 17 9 10
3 17 10 18
3 18 10 12
3 11 15 19
3 13 11 19
3 18 12 20
3 13 19 20
3 20 12 13
3 14 22 24
3 15 14 24
3 15 24 25
3 19 15 25
3 21 16 26
3 26 16 17
3 26 17 27
3 27 17 18
3 27 18 28
3 28 18 20
3 19 25 29
3 19 29 20
3 28 20 30
3 30 20 29
3 31 21 32
3 32 21 26
3 22 23 36
3 24 22 36
3 23 34 37
3 36 23 37
3 24 36 38
3 25 24 38
3 25 38 39
3 29 25 39
3 32 26 40
3 40 26 27
3 40 27 41
3 41 27 28
3 41 28 42
3 42 28 30
3 29 39 43
3 29 43 30
3 42 30 43
3 33 31 44
3 44 31 32
3 44 32 45
3 45 32 40
3 46 33 47
3 47 33 44
3 34 35 50
3 37 34 50
3 35 48 51
3 50 35 51
3 36 37 52
3 38 36 52
3 37 50 53
3 52 37 53
3 38 52 54
3 39 38 54
3 39 54 55
3 43 39 55
3 45 40 56
3 56 40 41
3 56 41 57
3 57 41 42
3 57 42 58
3 58 42 43
3 43 55 59
3 43 59 58
3 47 44 60
3 60 44 45
3 60 45 61
3 61 45 56
3 62 46 63
3 63 46 47
3 63 47 64
3 64 47 60
3 48 49 68
3 51 48 68
3 49 66 69
3 68 49 69
3 50 51 70
3 53 50 70
3 51 68 71
3 70 51 71
3 52 53 72
3 54 52 72
3 53 70 73
3 72 53 73
3 54 72 74
3 55 54 74
3 55 74 75
3 59 55 75
3 61 56 76
3 76 56 57
3 76 57 77
3 77 57 58
3 77 58 78
3 59 75 78
3 78 58 59
3 64 60 79
3 79 60 61
3 79 61 80
3 80 61 76
3 65 62 81
3 81 62 63
3 81 63 82
3 82 63 64
3 82 64 83
3 83 64 79
3 84 65 85
3 85 65 81
3 66 67 89
3 69 66 89
3 67 87 90
3 89 67 90
3 68 69 91
3 71 68 91
3 69 89 92
3 91 69 92
3 70 71 93
3 73 70 93
3 71 91 94
3 93 71 94
3 72 73 95
3 74 72 95
3 73 93 96
3 95 73 96
3 74 95 97
3 75 74 97
3 75 97 98
3 78 75 98
3 80 76 99
3 99 76 77
3 99 77 100
3 100 77 78
3 100 78 101
3 98 101 78
3 83 79 102
3 102 79 80
3 102 80 103
3 103 80 99
3 85 81 104
3 104 81 82
3 105 83 102
3 104 82 106
3 106 82 83
3 106 83 105
3 86 84 107
3 107 84 85
3 107 85 108
3 108 85 104
3 109 86 107
3 110 86 109
3 87 88 112
3 90 87 112
3 112 88 113
3 88 114 113
3 90 112 115
3 89 90 116
3 92 89 116
3 116 90 115
3 91 92 117
3 94 91 117
3 92 116 118
3 117 92 118
3 93 94 119
3 96 93 119
3 94 117 120
3 119 94 120
3 95 96 121
3 97 95 121
3 96 119 122
3 121 96 122
3 97 121 123
3 98 97 123
3 98 123 124
3 98 124 101
3 103 99 125
3 125 99 100
3 125 100 126
3 126 100 101
3 126 101 124
3 105 102 127
3 127 102 103
3 127 103 128
3 128 103 125
3 129 105 127
3 108 104 130
3 130 104 106
3 130 106 131
3 131 106 105
3 131 105 129
3 108 130 132
3 109 107 133
3 133 107 108
3 133 108 134
3 108 132 134
3 135 109 133
3 111 110 136
3 136 110 109
3 136 109 135
3 137 111 136
3 138 111 137
3 112 113 139
3 115 112 139
3 114 140 113
3 140 139 113
3 139 141 115
3 116 115 142
3 118 116 142
3 142 115 141
3 117 118 143
3 120 117 143
3 118 142 144
3 143 118 144
3 119 120 145
3 122 119 145
3 120 143 146
3 145 120 146
3 121 122 147
3 123 121 147
3 122 145 148
3 147 122 148
3 123 147 149
3 124 123 149
3 124 149 150
3 151 126 124
3 124 150 151
3 128 125 152
3 152 125 126
3 152 126 151
3 129 127 153
3 153 127 128
3 128 152 154
3 153 128 154
3 155 129 153
3 131 129 156
3 156 129 155
3 132 130 157
3 130 131 157
3 157 131 158
3 131 156 158
3 132 157 159
3 132 159 134
3 135 133 160
3 160 133 134
3 160 134 159
3 136 135 161
3 135 160 161
3 162 137 136
3 161 162 136
3 163 138 137
3 162 163 137
3 139 164 141
3 140 165 139
3 139 165 164
3 141 164 166
3 141 166 142
3 166 167 142
3 144 142 167
3 167 168 144
3 143 144 168
3 146 143 168
3 168 169 146
3 145 146 170
3 148 145 170
3 170 146 169
3 147 148 171
3 149 147 171
3 148 170 172
3 171 148 172
3 173 151 150
3 149 171 174
3 150 149 174
3 150 174 175
3 150 175 173
3 154 152 176
3 152 151 176
3 176 151 173
3 154 176 177
3 155 153 178
3 177 178 154
3 154 178 153
3 156 155 179
3 155 178 179
3 180 158 156
3 179 180 156
3 181 159 157
3 180 181 158
3 181 157 158
3 182 160 159
3 181 182 159
3 183 161 160
3 182 183 160
3 184 162 161
3 184 161 183
3 185 163 162
3 184 185 162
3 164 186 166
3 165 187 164
3 164 187 186
3 166 186 188
3 166 188 167
3 167 188 189
3 167 189 168
3 168 189 190
3 168 190 169
3 169 190 191
3 169 191 170
3 192 172 170
3 170 191 192
3 192 193 172
3 171 172 193
3 174 171 193
3 194 173 175
3 176 173 194
3 175 174 195
3 193 195 174
3 195 196 175
3 175 196 194
3 197 177 176
3 194 197 176
3 198 178 177
3 197 198 177
3 199 179 178
3 198 199 178
3 200 180 179
3 199 200 179
3 201 181 180
3 200 201 180
3 202 182 181
3 201 202 181
3 203 183 182
3 202 203 182
3 204 184 183
3 203 204 183
3 205 185 184
3 204 205 184
3 186 206 188
3 187 207 186
3 186 207 206
3 188 206 208
3 188 208 189
3 189 208 209
3 189 209 190
3 190 209 210
3 190 210 191
3 191 210 211
3 191 211 192
3 192 211 212
3 192 212 193
3 193 212 213
3 193 213 195
3 214 197 194
3 214 194 196
3 195 213 215
3 195 215 196
3 196 215 214
3 216 198 197
3 214 216 197
3 217 199 198
3 216 217 198
3 218 200 199
3 217 218 199
3 219 201 200
3 218 219 200
3 220 202 201
3 219 220 201
3 221 203 202
3 220 221 202
3 222 204 203
3 221 222 203
3 223 205 204
3 222 223 204
3 206 224 208
3 207 225 206
3 206 225 224
3 208 224 226
3 208 226 209
3 209 226 227
3 209 227 210
3 210 227 228
3 210 228 211
3 211 228 229
3 211 229 212
3 212 229 230
3 212 230 213
3 213 230 231
3 213 231 215
3 232 216 214
3 215 231 232
3 232 214 215
3 233 217 216
3 232 233 216
3 234 218 217
3 233 234 217
3 235 219 218
3 234 235 218
3 236 220 219
3 235 236 219
3 237 221 220
3 236 237 220
3 238 222 221
3 237 238 221
3 239 223 222
3 238 239 222
3 224 240 226
3 225 241 224
3 224 241 240
3 226 240 242
3 226 242 227
3 227 242 243
3 227 243 228
3 228 243 244
3 228 244 229
3 244 245 229
3 229 245 230
3 230 245 246
3 230 246 231
3 231 246 247
3 231 247 232
3 248 233 232
3 248 232 247
3 249 234 233
3 248 249 233
3 250 235 234
3 249 250 234
3 251 236 235
3 250 251 235
3 252 237 236
3 251 252 236
3 253 238 237
3 252 253 237
3 254 239 238
3 253 254 238
3 240 255 242
3 241 256 240
3 240 256 255
3 242 255 257
3 242 257 243
3 243 257 258
3 243 258 244
3 244 258 259
3 244 259 245
3 245 259 260
3 245 260 246
3 246 260 261
3 246 261 247
3 248 247 261
3 262 249 248
3 261 262 248
3 263 250 249
3 262 263 249
3 264 251 250
3 263 264 250
3 265 252 251
3 264 265 251
3 266 253 252
3 265 266 252
3 267 254 253
3 266 267 253
3 255 268 257
3 256 269 255
3 255 269 268
3 257 268 270
3 257 270 258
3 258 270 271
3 258 271 259
3 259 271 272
3 259 272 260
3 260 272 273
3 260 273 261
3 274 262 261
3 261 273 274
3 275 263 262
3 274 275 262
3 276 264 263
3 275 276 263
3 277 265 264
3 276 277 264
3 278 266 265
3 277 278 265
3 279 267 266
3 278 279 266
3 268 280 270
3 269 281 268
3 268 281 280
3 270 280 282
3 270 282 271
3 271 282 283
3 271 283 272
3 283 284 272
3 272 284 273
3 285 275 274
3 273 284 285
3 285 274 273
3 286 276 275
3 285 286 275
3 287 277 276
3 286 287 276
3 288 278 277
3 287 288 277
3 289 279 278
3 288 289 278
3 280 290 282
3 281 291 280
3 280 291 290
3 282 290 292
3 282 292 283
3 283 292 293
3 283 293 284
3 284 293 294
3 284 294 285
3 295 286 285
3 295 285 294
3 296 287 286
3 295 296 286
3 297 288 287
3 296 297 287
3 298 289 288
3 297 298 288
3 290 299 292
3 291 300 290
3 290 300 299
3 292 299 301
3 292 301 293
3 293 301 302
3 293 302 294
3 294 302 295
3 303 296 295
3 303 295 302
3 304 297 296
3 303 304 296
3 305 298 297
3 304 305 297
3 299 306 301
3 300 307 299
3 299 307 306
3 301 306 308
3 301 308 302
3 309 303 302
3 302 308 309
3 310 304 303
3 309 310 303
3 311 305 304
3 310 311 304
3 306 312 308
3 307 313 306
3 306 313 312
3 314 310 309
3 308 312 314
3 314 309 308
3 315 311 310
3 314 315 310
3 312 316 314
3 313 317 312
3 312 317 316
3 318 315 314
3 318 314 316
3 317 319 316
3 319 318 316
CELL_TYPES 578
5
5
5
5
5
5
5
5
5
5
5
5
5
5
5
5
5
5
5
5
5
5
5
5
5
5
5
5
5
5
5
5
5
5
5
5
5
5
5
5
5
5
5
5
5
5
5
5
5
5
5
5
5
5
5
5
5
5
5
5
5
5
5
5
5
5
5
5
5
5
5
5
5
5
5
5
5
5
5
5
5
5
5
5
5
5
5
5
5
5
5
5
5
5
5
5
5
5
5
5
5
5
5
5
5
5
5
5
5
5
5
5
5
5
5
5
5
5
5
5
5
5
5
5
5
5
5
5
5
5
5
5
5
5
5
5
5
5
5
5
5
5
5
5
5
5
5
5
5
5
5
5
5
5
5
5
5
5
5
5
5
5
5
5
5
5
5
5
5
5
5
5
5
5
5
5
5
5
5
5
5
5
5
5
5
5
5
5
5
5
5
5
5
5
5
5
5
5
5
5
5
5
5
5
5
5
5
5
5
5
5
5
5
5
5
5
5
5
5
5
5
5
5
5
5
5
5
5
5
5
5
5
5
5
5
5
5
5
5
5
5
5
5
5
5
5
5
5
5
5
5
5
5
5
5
5
5
5
5
5
5
5
5
5
5
5
5
5
5
5
5
5
5
5
5
5
5
5
5
5
5
5
5
5
5
5
5
5
5
5
5
5
5
5
5
5
5
5
5
5
5
5
5
5
5
5
5
5
5
5
5
5
5
5
5
5
5
5
5
5
5
5
5
5
5
5
5
5
5
5
5
5
5
5
5
5
5
5
5
5
5
5
5
5
5
5
5
5
5
5
5
5
5
5
5
5
5
5
5
5
5
5
5
5
5
5
5
5
5
5
5
5
5
5
5
5
5
5
5
5
5
5
5
5
5
5
5
5
5
5
5
5
5
5
5
5
5
5
5
5
5
5
5
5
5
5
5
5
5
5
5
5
5
5
5
5
5
5
5
5
5
5
5
5
5
5
5
5
5
5
5
5
5
5
5
5
5
5
5
5
5
5
5
5
5
5
5
5
5
5
5
5
5
5
5
5
5
5
5
5
5
5
5
5
5
5
5
5
5
5
5
5
5
5
5
5
5
5
5
5
5
5
5
5
5
5
5
5
5
5
5
5
5
5
5
5
5
5
5
5
5
5
5
5
5
5
5
5
5
5
5
5
5
5
5
5
5
5
5
5
5
5
5
5
5
5
5
5
5
5
5
5
5
5
5
5
5
5
5
5
5
5
5
5
5
5
5
5
5
5
5
5
5
5
5
5
5
5
5
5
5
5
5
5
5
5
5
5
5
5
5
5
5
5
5
5
5
5
POINT_DATA 320
SCALARS theta_e float 1
LOOKUP_TABLE default
1.000000
1.000000
1.000000
1.000000
1.000000
1.000000
1.000000
1.000000
1.000000
1.000000
1.000000
1.000000
1.000000
1.000000
1.000000
1.000000
1.000000
1.000000
1.000000
1.000000
1.000000
1.000000
1.000000
1.000000
1.000000
1.000000
1.000000
1.000000
1.000000
1.000000
1.000000
1.000000
1.000000
1.000000
1.000000
1.000000
1.000000
1.000000
1.000000
1.000000
1.000000
1.000000
1.000000
1.000000
1.000000
1.000000
1.000000
1.000000
1.000000
1.000000
1.000000
1.000000
1.000000
1.000000
1.000000
1.000000
1.000000
1.000000
1.000000
1.000000
1.000000
1.000000
1.000000
1.000000
1.000000
1.000000
1.000000
1.000000
1.000000
1.000000
1.000000
1.000000
1.000000
1.000000
1.000000
1.000000
1.000000
1.000000
1.000000
1.000000
1.000000
1.000000
1.000000
1.000000
1.000000
1.000000
1.000000
1.000000
1.000000
1.000000
1.000000
1.000000
1.000000
1.000000
1.000000
1.000000
1.000000
1.000000
1.000000
1.000000
1.000000
1.000000
1.000000
1.000000
1.000000
1.000000
1.000000
1.000000
1.000000
1.000000
1.000000
1.000000
1.000000
1.000000
1.000000
1.000000
1.000000
1.000000
1.000000
1.000000
1.000000
1.000000
1.000000
1.000000
0.999999
1.000000
1.000000
1.000000
1.000000
1.000000
1.000000
1.000000
1.000000
1.000000
1.000000
1.000000
1.000000
1.000000
1.000000
1.000000
1.000000
1.000000
1.000000
1.000000
1.000000
1.000000
1.000000
1.000000
1.000000
0.999999
0.999995
0.999997
0.999999
1.000000
1.000000
1.000000
1.000000
1.000000
1.000000
1.000000
1.000000
1.000000
1.000000
1.000000
1.000000
1.000000
1.000000
1.000000
1.000000
1.000000
1.000000
1.000000
1.000000
0.999993
0.999996
0.999993
0.999996
0.999999
1.000000
1.000000
1.000000
1.000000
1.000000
1.000000
1.000000
1.000000
1.000000
1.000000
1.000000
1.000000
1.000000
1.000000
1.000000
0.999999
0.999994
0.999995
0.999993
0.999997
1.000000
1.000000
1.000000
1.000000
1.000000
1.000000
1.000000
1.000000
1.000000
1.000000
1.000000
1.000000
1.000000
1.000000
1.000000
0.999999
0.999995
0.999996
0.999999
1.000000
1.000000
1.000000
1.000000
1.000000
1.000000
1.000000
1.000000
1.000000
1.000000
1.000000
1.000000
1.000000
1.000000
0.999999
0.999999
1.000000
1.000000
1.000000
1.000000
1.000000
1.000000
1.000000
1.000000
1.000000
1.000000
1.000000
1.000000
1.000000
1.000000
1.000000
1.000000
1.000000
1.000000
1.000000
1.000000
1.000000
1.000000
1.000000
1.000000
1.000000
1.000000
1.000000
1.000000
1.000000
1.000000
1.000000
1.000000
1.000000
1.000000
1.000000
1.000000
1.000000
1.000000
1.000000
1.000000
1.000000
1.000000
1.000000
1.000000
1.000000
1.000000
1.000000
1.000000
1.000000
1.000000
1.000000
1.000000
1.000000
1.000000
1.000000
1.000000
1.000000
1.000000
1.000000
1.000000
1.000000
1.000000
1.000000
1.000000
1.000000
1.000000
1.000000
1.000000
1.000000
1.000000
1.000000
1.000000
1.000000
1.000000
1.000000
1.000000
1.000000
1.000000
1.000000
1.000000
1.000000
1.000000
1.000000
1.000000
1.000000
1.000000
1.000000
VECTORS fa_u float
0.000000 0.000000 0.000000
0.000000 0.000000 0.000000
0.000000 0.000000 0.000000
0.000000 0.000000 0.000000
0.000000 0.000000 0.000000
0.000000 0.000000 0.000000
0.000000 0.000000 0.000000
0.000000 0.000000 0.000000
0.000000 0.000000 0.000000
0.000000 0.000000 0.000000
0.000000 0.000000 0.000000
0.000000 0.000000 0.000000
0.000000 0.000000 0.000000
0.000000 0.000000 0.000000
0.000000 0.000000 0.000000
0.000000 0.000000 0.000000
0.000000 0.000000 0.000000
0.000000 0.000000 0.000000
0.000000 0.000000 0.000000
0.000000 0.000000 0.000000
0.000000 0.000000 0.000000
0.000000 0.000000 0.000000
0.000000 0.000000 0.000000
0.000000 0.000000 0.000000
0.000000 0.000000 0.000000
0.000000 0.000000 0.000000
0.000000 0.000000 0.000000
0.000000 0.000000 0.000000
0.000000 0.000000 0.000000
0.000000 0.000000 0.000000
0.000000 0.000000 0.000000
0.000000 0.000000 0.000000
0.000000 0.000000 0.000000
0.000000 0.000000 0.000000
0.000000 0.000000 0.000000
0.000000 0.000000 0.000000
0.000000 0.000000 0.000000
0.000000 0.000000 0.000000
0.000000 0.000000 0.000000
0.000000 0.000000 0.000000
0.000000 0.000000 0.000000
0.000000 0.000000 0.000000
0.000000 0.000000 0.000000
0.000000 0.000000 0.000000
0.000000 0.000000 0.000000
0.000000 0.000000 0.000000
0.000000 0.000000 0.000000
0.000000 0.000000 0.000000
0.000000 0.000000 0.000000
0.000000 0.000000 0.000000
0.000000 0.000000 0.000000
0.000000 0.000000 0.000000
0.000000 0.000000 0.000000
0.000000 0.000000 0.000000
0.000000 0.000000 0.000000
0.000000 0.000000 0.000000
0.000000 0.000000 0.000000
0.000000 0.000000 0.000000
0.000000 0.000000 0.000000
0.000000 0.000000 0.000000
0.000000 0.000000 0.000000
0.000000 0.000000 0.000000
0.000000 0.000000 0.000000
0.000000 0.000000 0.000000
0.000000 0.000000 0.000000
0.000000 0.000000 0.000000
0.000000 0.000000 0.000000
0.000000 0.000000 0.000000
0.000000 0.000000 0.000000
0.000000 0.000000 0.000000
0.000000 0.000000 0.000000
0.000000 0.000000 0.000000
0.000000 0.000000 0.000000
0.000000 0.000000 0.000000
0.000000 0.000000 0.000000
0.000000 0.000000 0.000000
0.000000 0.000000 0.000000
0.000000 0.000000 0.000000
0.000000 0.000000 0.000000
0.000000 0.000000 0.000000
0.000000 0.000000 0.000000
0.000000 0.000000 0.000000
0.000000 0.000000 0.000000
0.000000 0.000000 0.000000
0.000000 0.000000 0.000000
0.000000 0.000000 0.000000
0.000000 0.000000 0.000000
0.000000 0.000000 0.000000
0.000000 0.000000 0.000000
0.000000 0.000000 0.000000
0.000000 0.000000 0.000000
0.000000 0.000000 0.000000
0.000000 0.000000 0.000000
0.000000 0.000000 0.000000
0.000000 0.000000 0.000000
0.000000 0.000000 0.000000
0.000000 0.000000 0.000000
0.000000 0.000000 0.000000
0.000000 0.000000 0.000000
0.000000 0.000000 0.000000
0.000000 0.000000 0.000000
0.000000 0.000000 0.000000
0.000000 0.000000 0.000000
0.000000 0.000000 0.000000
0.000000 0.000000 0.000000
0.000000 0.000000 0.000000
0.000000 0.000000 0.000000
0.000000 0.000000 0.000000
0.000000 0.000000 0.000000
0.000000 0.000000 0.000000
0.000000 0.000000 0.000000
0.000000 0.000000 0.000000
0.000000 0.000000 0.000000
0.000000 0.000000 0.000000
0.000000 0.000000 0.000000
0.000000 0.000000 0.000000
0.000000 0.000000 0.000000
0.000000 0.000000 0.000000
0.000000 0.000000 0.000000
0.000000 0.000000 0.000000
0.000000 0.000000 0.000000
0.000000 0.000000 0.000000
0.000000 0.000000 0.000000
0.000000 0.000000 0.000000
0.000000 0.000000 0.000000
0.000000 0.000000 0.000000
0.000000 0.000000 0.000000
0.000000 0.000000 0.000000
0.000000 0.000000 0.000000
0.000000 0.000000 0.000000
0.000000 0.000000 0.000000
0.000000 0.000000 0.000000
0.000000 0.000000 0.000000
0.000000 0.000000 0.000000
0.000000 0.000000 0.000000
0.000000 0.000000 0.000000
0.000000 0.000000 0.000000
0.000000 0.000000 0.000000
0.000000 0.000000 0.000000
0.000000 0.000000 0.000000
0.000000 0.000000 0.000000
0.000000 0.000000 0.000000
0.000000 0.000000 0.000000
0.000000 0.000000 0.000000
0.000000 0.000000 0.000000
0.000000 0.000000 0.000000
0.000000 0.000000 0.000000
0.000000 0.000000 0.000000
0.000000 0.000000 0.000000
0.000000 0.000000 0.000000
0.000000 0.000000 0.000000
0.000000 0.000000 0.000000
0.000000 0.000000 0.000000
0.000000 0.000000 0.000000
0.000000 0.000000 0.000000
0.000000 0.000000 0.000000
0.000000 0.000000 0.000000
0.000000 0.000000 0.000000
0.000000 0.000000 0.000000
0.000000 0.000000 0.000000
0.000000 0.000000 0.000000
0.000000 0.000000 0.000000
0.000000 0.000000 0.000000
0.000000 0.000000 0.000000
0.000000 0.000000 0.000000
0.000000 0.000000 0.000000
0.000000 0.000000 0.000000
0.000000 0.000000 0.000000
0.000000 0.000000 0.000000
0.000000 0.000000 0.000000
0.000000 0.000000 0.000000
0.000000 0.000000 0.000000
0.000000 0.000000 0.000000
0.000000 0.000000 0.000000
0.000000 0.000000 0.000000
0.000000 0.000000 0.000000
0.000000 0.000000 0.000000
0.000000 0.000000 0.000000
0.000000 0.000000 0.000000
0.000000 0.000000 0.000000
0.000000 0.000000 0.000000
0.000000 0.000000 0.000000
0.000000 0.000000 0.000000
0.000000 0.000000 0.000000
0.000000 0.000000 0.000000
0.000000 0.000000 0.000000
0.000000 0.000000 0.000000
0.000000 0.000000 0.000000
0.000000 0.000000 0.000000
0.000000 0.000000 0.000000
0.000000 0.000000 0.000000
0.000000 0.000000 0.000000
0.000000 0.000000 0.000000
0.000000 0.000000 0.000000
0.000000 0.000000 0.000000
0.000000 0.000000 0.000000
0.000000 0.000000 0.000000
0.000000 0.000000 0.000000
0.000000 0.000000 0.000000
0.000000 0.000000 0.000000
0.000000 0.000000 0.000000
0.000000 0.000000 0.000000
0.000000 0.000000 0.000000
0.000000 0.000000 0.000000
0.000000 0.000000 0.000000
0.000000 0.000000 0.000000
0.000000 0.000000 0.000000
0.000000 0.000000 0.000000
0.000000 0.000000 0.000000
0.000000 0.000000 0.000000
0.000000 0.000000 0.000000
0.000000 0.000000 0.000000
0.000000 0.000000 0.000000
0.000000 0.000000 0.000000
0.000000 0.000000 0.000000
0.000000 0.000000 0.000000
0.000000 0.000000 0.000000
0.000000 0.000000 0.000000
0.000000 0.000000 0.000000
0.000000 0.000000 0.000000
0.000000 0.000000 0.000000
0.000000 0.000000 0.000000
0.000000 0.000000 0.000000
0.000000 0.000000 0.000000
0.000000 0.000000 0.000000
0.000000 0.000000 0.000000
0.000000 0.000000 0.000000
0.000000 0.000000 0.000000
0.000000 0.000000 0.000000
0.000000 0.000000 0.000000
0.000000 0.000000 0.000000
0.000000 0.000000 0.000000
0.000000 0.000000 0.000000
0.000000 0.000000 0.000000
0.000000 0.000000 0.000000
0.000000 0.000000 0.000000
0.000000 0.000000 0.000000
0.000000 0.000000 0.000000
0.000000 0.000000 0.000000
0.000000 0.000000 0.000000
0.000000 0.000000 0.000000
0.000000 0.000000 0.000000
0.000000 0.000000 0.000000
0.000000 0.000000 0.000000
0.000000 0.000000 0.000000
0.000000 0.000000 0.000000
0.000000 0.000000 0.000000
0.000000 0.000000 0.000000
0.000000 0.000000 0.000000
0.000000 0.000000 0.000000
0.000000 0.000000 0.000000
0.000000 0.000000 0.000000
0.000000 0.000000 0.000000
0.000000 0.000000 0.000000
0.000000 0.000000 0.000000
0.000000 0.000000 0.000000
0.000000 0.000000 0.000000
0.000000 0.000000 0.000000
0.000000 0.000000 0.000000
0.000000 0.000000 0.000000
0.000000 0.000000 0.000000
0.000000 0.000000 0.000000
0.000000 0.000000 0.000000
0.000000 0.000000 0.000000
0.000000 0.000000 0.000000
0.000000 0.000000 0.000000
0.000000 0.000000 0.000000
0.000000 0.000000 0.000000
0.000000 0.000000 0.000000
0.000000 0.000000 0.000000
0.000000 0.000000 0.000000
0.000000 0.000000 0.000000
0.000000 0.000000 0.000000
0.000000 0.000000 0.000000
0.000000 0.000000 0.000000
0.000000 0.000000 0.000000
0.000000 0.000000 0.000000
0.000000 0.000000 0.000000
0.000000 0.000000 0.000000
0.000000 0.000000 0.000000
0.000000 0.000000 0.000000
0.000000 0.000000 0.000000
0.000000 0.000000 0.000000
0.000000 0.000000 0.000000
0.000000 0.000000 0.000000
0.000000 0.000000 0.000000
0.000000 0.000000 0.000000
0.000000 0.000000 0.000000
0.000000 0.000000 0.000000
0.000000 0.000000 0.000000
0.000000 0.000000 0.000000
0.000000 0.000000 0.000000
0.000000 0.000000 0.000000
0.000000 0.000000 0.000000
0.000000 0.000000 0.000000
0.000000 0.000000 0.000000
0.000000 0.000000 -50.000000
-50.000000 0.000000 -50.000000
-43.332190 0.000000 -45.688668
-45.491376 0.000000 -43.332035
-50.000000 0.000000 -50.000000
-36.664312 0.000000 -36.664398
-50.000000 0.000000 -45.081422
-39.969944 0.000000 -40.027631
-44.152512 0.000000 -29.996677
-50.000000 0.000000 -50.000000
-29.996545 0.000000 -44.847384
-33.449047 0.000000 -33.145270
-44.675941 0.000000 -39.869504
-36.787159 0.000000 -35.129112
-39.801615 0.000000 -23.329412
-50.000000 0.000000 -26.539542
-44.666860 0.000000 -50.000000
-23.329296 0.000000 -44.665396
-26.804109 0.000000 -39.364515
-30.225863 0.000000 -29.606791
-39.359605 0.000000 -33.368756
-33.655728 0.000000 -50.000000
-16.662795 0.000000 -16.662991
-50.000000 0.000000 -9.997421
