# vtk DataFile Version 2.0
CellBP Time: 6.96
ASCII
DATASET UNSTRUCTURED_GRID
POINTS 320 double
-50.000000 -50.000000 0.000000
-50.000000 -43.332309 0.000000
-45.688625 -45.491343 0.000000
-43.332165 -50.000000 0.000000
-50.000000 -36.664556 0.000000
-36.664621 -50.000000 0.000000
-45.081376 -39.969922 0.000000
-40.027561 -44.152478 0.000000
-29.996999 -50.000000 0.000000
-50.000000 -29.996901 0.000000
-44.847339 -33.449029 0.000000
-33.145210 -44.675906 0.000000
-39.869445 -36.787137 0.000000
-35.129039 -39.801572 0.000000
-23.329786 -50.000000 0.000000
-26.539474 -44.666846 0.000000
-50.000000 -23.329707 0.000000
-44.665379 -26.804083 0.000000
-39.364475 -30.225839 0.000000
-29.606707 -39.359574 0.000000
-33.368676 -33.655692 0.000000
-50.000000 -16.663182 0.000000
-16.663331 -50.000000 0.000000
-9.997647 -50.000000 0.000000
-19.965265 -44.588714 0.000000
-23.216211 -39.114759 0.000000
-44.691821 -20.097068 0.000000
-39.367945 -23.528194 0.000000
-34.106401 -26.937128 0.000000
-26.384836 -33.577563 0.000000
-29.156629 -28.926881 0.000000
-50.000000 -9.997241 0.000000
-44.666302 -13.410315 0.000000
-50.000000 -3.332037 0.000000
-3.332592 -50.000000 0.000000
3.332308 -50.000000 0.000000
-13.344051 -44.598883 0.000000
-6.684963 -44.610484 0.000000
-16.693996 -39.153104 0.000000
-20.107191 -33.342624 0.000000
-39.338113 -16.804602 0.000000
-34.019035 -20.274496 0.000000
-28.781427 -23.449250 0.000000
-23.510839 -27.351025 0.000000
-44.635287 -6.705493 0.000000
-39.293120 -10.101680 0.000000
-50.000000 3.332785 0.000000
-44.626513 -0.015359 0.000000
9.997524 -50.000000 0.000000
16.663354 -50.000000 0.000000
-0.016179 -44.618581 0.000000
6.651791 -44.635336 0.000000
-10.044963 -39.222510 0.000000
-3.368301 -39.220193 0.000000
-13.484346 -33.798421 0.000000
-16.708874 -28.271605 0.000000
-33.947933 -13.513430 0.000000
-28.602760 -16.891986 0.000000
-23.292792 -20.313345 0.000000
-18.661058 -23.284657 0.000000
-39.267330 -3.392559 0.000000
-33.904484 -6.796689 0.000000
-50.000000 9.997748 0.000000
-44.606506 6.673833 0.000000
-39.260622 3.325858 0.000000
-50.000000 16.663392 0.000000
23.329812 -50.000000 0.000000
29.996906 -50.000000 0.000000
13.317802 -44.662921 0.000000
19.989957 -44.700090 0.000000
3.307636 -39.245094 0.000000
9.971895 -39.290375 0.000000
-6.735703 -33.791337 0.000000
-0.032145 -33.829418 0.000000
-10.096022 -28.292297 0.000000
-13.122675 -22.895914 0.000000
-28.531404 -10.214042 0.000000
-23.067931 -13.663783 0.000000
-16.979293 -17.212782 0.000000
-33.884154 -0.065459 0.000000
-28.562720 -3.580197 0.000000
-44.563945 13.381019 0.000000
-39.189845 10.015276 0.000000
-33.905428 6.616115 0.000000
-50.000000 23.329625 0.000000
-44.557316 20.138625 0.000000
-50.000000 29.997013 0.000000
36.664471 -50.000000 0.000000
43.332193 -50.000000 0.000000
26.663552 -44.745396 0.000000
33.315519 -44.876159 0.000000
16.631755 -39.357673 0.000000
23.328435 -39.437188 0.000000
6.642981 -33.879592 0.000000
13.290483 -33.965425 0.000000
-3.346423 -28.363778 0.000000
3.358412 -28.451178 0.000000
-6.626303 -22.844790 0.000000
-9.961840 -17.315345 0.000000
-23.180179 -7.014089 0.000000
-17.814122 -10.334886 0.000000
-12.838010 -12.609422 0.000000
-28.607298 3.088749 0.000000
-23.266760 -0.469932 0.000000
-39.038405 16.746382 0.000000
-28.720002 9.925795 0.000000
-33.760726 13.317989 0.000000
-44.521718 26.717381 0.000000
-38.467788 23.892800 0.000000
-44.632776 33.086041 0.000000
-50.000000 36.665003 0.000000
-50.000000 43.332459 0.000000
39.922570 -45.069785 0.000000
45.474942 -45.660672 0.000000
50.000000 -50.000000 0.000000
36.626950 -39.982123 0.000000
30.012588 -39.458752 0.000000
19.904212 -34.093000 0.000000
26.585152 -34.319665 0.000000
9.988429 -28.512647 0.000000
16.610511 -28.660502 0.000000
0.050363 -22.963405 0.000000
6.812064 -23.154982 0.000000
-3.397690 -17.296900 0.000000
-6.803341 -10.889401 0.000000
-17.873615 -3.813036 0.000000
-12.548572 -7.033545 0.000000
-23.308053 6.069445 0.000000
-18.033739 2.438166 0.000000
-23.123742 12.096339 0.000000
-33.572156 19.788967 0.000000
-27.941770 16.886430 0.000000
-33.293320 24.723093 0.000000
-39.474118 30.053412 0.000000
-35.160973 28.137900 0.000000
-39.816554 35.101856 0.000000
-43.991983 39.982749 0.000000
-45.431180 45.685505 0.000000
-50.000000 50.000000 0.000000
44.117465 -39.899318 0.000000
50.000000 -43.331821 0.000000
39.639656 -35.047633 0.000000
33.463045 -33.424728 0.000000
22.985017 -28.818237 0.000000
28.731103 -29.247984 0.000000
13.460804 -23.121847 0.000000
20.054952 -23.439867 0.000000
3.365512 -17.590728 0.000000
10.122751 -17.843342 0.000000
0.166589 -11.799331 0.000000
-2.126401 -6.164626 0.000000
-7.171622 -3.571351 0.000000
-12.449842 -0.808116 0.000000
-18.173626 8.573232 0.000000
-12.935888 5.196528 0.000000
-18.637847 13.750968 0.000000
-21.503664 17.494028 0.000000
-28.941141 23.159373 0.000000
-24.346466 21.554226 0.000000
-30.324078 28.635262 0.000000
-34.253919 33.375729 0.000000
-36.956175 39.578202 0.000000
-39.838784 45.102989 0.000000
-43.332146 50.000000 0.000000
44.585435 -32.972307 0.000000
50.000000 -36.664100 0.000000
39.129407 -29.582093 0.000000
33.500750 -26.367809 0.000000
27.183297 -23.322129 0.000000
23.067379 -18.647999 0.000000
16.992530 -16.982412 0.000000
6.698447 -12.192136 0.000000
12.372794 -12.737178 0.000000
-3.365284 -1.484677 0.000000
3.799741 -6.787807 0.000000
1.023641 -2.120641 0.000000
-6.865036 2.269655 0.000000
-8.254029 7.666284 0.000000
-12.841454 11.927978 0.000000
-15.690503 17.698866 0.000000
-19.287492 22.981298 0.000000
-24.171014 27.354370 0.000000
-27.286441 33.625786 0.000000
-30.406827 39.161022 0.000000
-33.447999 44.738891 0.000000
-36.664362 50.000000 0.000000
44.547761 -26.500187 0.000000
50.000000 -29.996444 0.000000
39.040013 -23.179382 0.000000
33.449527 -19.900009 0.000000
28.039639 -16.573316 0.000000
22.679610 -13.123646 0.000000
17.175752 -9.899973 0.000000
10.787072 -6.580596 0.000000
-1.359291 2.320500 0.000000
6.138059 -1.711521 0.000000
2.888200 1.592909 0.000000
-3.455272 6.995027 0.000000
-6.313730 12.427527 0.000000
-9.629330 17.711715 0.000000
-13.168068 23.114632 0.000000
-17.316962 28.185047 0.000000
-20.571090 33.474171 0.000000
-23.666179 39.063893 0.000000
-26.831305 44.585340 0.000000
-29.996987 50.000000 0.000000
44.528632 -19.930978 0.000000
50.000000 -23.329302 0.000000
39.036131 -16.594247 0.000000
33.575779 -13.281275 0.000000
28.149086 -9.965143 0.000000
22.724633 -6.604841 0.000000
17.264993 -3.335044 0.000000
11.808407 0.215817 0.000000
1.909129 6.204250 0.000000
6.814293 3.715849 0.000000
-0.226131 11.776308 0.000000
-3.248380 17.531511 0.000000
-6.698933 22.976356 0.000000
-10.567094 28.267188 0.000000
-13.724338 33.660914 0.000000
-16.945985 39.080112 0.000000
-20.141058 44.548331 0.000000
-23.330021 50.000000 0.000000
44.536125 -13.304111 0.000000
50.000000 -16.662911 0.000000
39.079747 -9.966921 0.000000
33.646538 -6.641470 0.000000
28.236720 -3.308153 0.000000
22.849983 0.017299 0.000000
17.538219 3.341429 0.000000
12.181705 6.582061 0.000000
6.658926 10.701267 0.000000
3.302396 17.200021 0.000000
-0.080625 22.854760 0.000000
-3.519153 28.313167 0.000000
-6.831787 33.774664 0.000000
-10.137840 39.170498 0.000000
-13.436263 44.563436 0.000000
-16.663692 50.000000 0.000000
44.554107 -6.655017 0.000000
50.000000 -9.997349 0.000000
39.123164 -3.321483 0.000000
33.713300 0.008794 0.000000
28.333335 3.345139 0.000000
22.999330 6.693891 0.000000
17.834613 10.018582 0.000000
12.658649 12.243920 0.000000
9.784171 17.232858 0.000000
6.479711 22.722460 0.000000
3.189427 28.270371 0.000000
-0.116073 33.734949 0.000000
-3.425375 39.168710 0.000000
-6.725823 44.581713 0.000000
-9.997942 50.000000 0.000000
44.575476 0.001779 0.000000
50.000000 -3.332434 0.000000
39.166883 3.331801 0.000000
33.779535 6.655640 0.000000
28.423858 9.994713 0.000000
23.046535 13.416144 0.000000
16.951073 17.024452 0.000000
12.901586 22.667119 0.000000
9.815489 28.231706 0.000000
6.604418 33.718825 0.000000
3.286536 39.164439 0.000000
-0.029983 44.584490 0.000000
-3.332653 50.000000 0.000000
44.586653 6.665655 0.000000
50.000000 3.332402 0.000000
39.198216 9.982037 0.000000
33.843525 13.276895 0.000000
28.542412 16.584300 0.000000
23.387765 20.084273 0.000000
18.532025 23.113505 0.000000
16.392565 28.298499 0.000000
13.329060 33.754751 0.000000
9.986730 39.181953 0.000000
6.666150 44.584230 0.000000
3.332487 50.000000 0.000000
44.608884 13.318294 0.000000
50.000000 9.997645 0.000000
39.251399 16.612610 0.000000
33.932066 19.862906 0.000000
28.612602 22.926002 0.000000
23.279700 27.207816 0.000000
19.901436 33.302855 0.000000
16.574112 39.040832 0.000000
13.268719 44.526630 0.000000
9.997713 50.000000 0.000000
44.632070 19.973402 0.000000
50.000000 16.663513 0.000000
39.298569 23.262376 0.000000
34.043973 26.514900 0.000000
28.965996 28.539513 0.000000
26.202602 33.410193 0.000000
23.066972 38.968801 0.000000
19.888985 44.507020 0.000000
16.663367 50.000000 0.000000
44.639899 26.643305 0.000000
50.000000 23.329974 0.000000
39.293521 29.966983 0.000000
33.212620 33.371469 0.000000
29.412435 39.045951 0.000000
26.422749 44.506013 0.000000
23.329742 50.000000 0.000000
44.775179 33.292087 0.000000
50.000000 29.997029 0.000000
39.738360 36.596516 0.000000
34.831316 39.525876 0.000000
32.834128 44.514492 0.000000
29.996781 50.000000 0.000000
44.978449 39.878099 0.000000
50.000000 36.664538 0.000000
39.735231 43.969270 0.000000
36.664320 50.000000 0.000000
45.621537 45.410066 0.000000
50.000000 43.332214 0.000000
43.331933 50.000000 0.000000
50.000000 50.000000 0.000000
CELLS 578 2312
3 1 0 2
3 0 3 2
3 4 1 6
3 6 1 2
3 3 5 7
3 3 7 2
3 6 2 7
3 9 4 10
3 10 4 6
3 5 8 11
3 7 5 11
3 10 6 12
3 12 6 7
3 7 11 13
3 7 13 12
3 8 14 15
3 11 8 15
3 16 9 17
3 17 9 10
3 17 10 18
3 18 10 12
3 11 15 19
3 13 11 19
3 18 12 20
3 13 19 20
3 20 12 13
3 14 22 24
3 15 14 24
3 15 24 25
3 19 15 25
3 21 16 26
3 26 16 17
3 26 17 27
3 27 17 18
3 27 18 28
3 28 18 20
3 19 25 29
3 19 29 20
3 28 20 30
3 30 20 29
3 31 21 32
3 32 21 26
3 22 23 36
3 24 22 36
3 23 34 37
3 36 23 37
3 24 36 38
3 25 24 38
3 25 38 39
3 29 25 39
3 32 26 40
3 40 26 27
3 40 27 41
3 41 27 28
3 41 28 42
3 42 28 30
3 29 39 43
3 29 43 30
3 42 30 43
3 33 31 44
3 44 31 32
3 44 32 45
3 45 32 40
3 46 33 47
3 47 33 44
3 34 35 50
3 37 34 50
3 35 48 51
3 50 35 51
3 36 37 52
3 38 36 52
3 37 50 53
3 52 37 53
3 38 52 54
3 39 38 54
3 39 54 55
3 43 39 55
3 45 40 56
3 56 40 41
3 56 41 57
3 57 41 42
3 57 42 58
3 58 42 43
3 43 55 59
3 43 59 58
3 47 44 60
3 60 44 45
3 60 45 61
3 61 45 56
3 62 46 63
3 63 46 47
3 63 47 64
3 64 47 60
3 48 49 68
3 51 48 68
3 49 66 69
3 68 49 69
3 50 51 70
3 53 50 70
3 51 68 71
3 70 51 71
3 52 53 72
3 54 52 72
3 53 70 73
3 72 53 73
3 54 72 74
3 55 54 74
3 55 74 75
3 59 55 75
3 61 56 76
3 76 56 57
3 76 57 77
3 77 57 58
3 77 58 78
3 59 75 78
3 78 58 59
3 64 60 79
3 79 60 61
3 79 61 80
3 80 61 76
3 65 62 81
3 81 62 63
3 81 63 82
3 82 63 64
3 82 64 83
3 83 64 79
3 84 65 85
3 85 65 81
3 66 67 89
3 69 66 89
3 67 87 90
3 89 67 90
3 68 69 91
3 71 68 91
3 69 89 92
3 91 69 92
3 70 71 93
3 73 70 93
3 71 91 94
3 93 71 94
3 72 73 95
3 74 72 95
3 73 93 96
3 95 73 96
3 74 95 97
3 75 74 97
3 75 97 98
3 78 75 98
3 80 76 99
3 99 76 77
3 99 77 100
3 100 77 78
3 100 78 101
3 98 101 78
3 83 79 102
3 102 79 80
3 102 80 103
3 103 80 99
3 85 81 104
3 104 81 82
3 105 83 102
3 104 82 106
3 106 82 83
3 106 83 105
3 86 84 107
3 107 84 85
3 107 85 108
3 108 85 104
3 109 86 107
3 110 86 109
3 87 88 112
3 90 87 112
3 112 88 113
3 88 114 113
3 90 112 115
3 89 90 116
3 92 89 116
3 116 90 115
3 91 92 117
3 94 91 117
3 92 116 118
3 117 92 118
3 93 94 119
3 96 93 119
3 94 117 120
3 119 94 120
3 95 96 121
3 97 95 121
3 96 119 122
3 121 96 122
3 97 121 123
3 98 97 123
3 98 123 124
3 98 124 101
3 103 99 125
3 125 99 100
3 125 100 126
3 126 100 101
3 126 101 124
3 105 102 127
3 127 102 103
3 127 103 128
3 128 103 125
3 129 105 127
3 108 104 130
3 130 104 106
3 130 106 131
3 131 106 105
3 131 105 129
3 108 130 132
3 109 107 133
3 133 107 108
3 133 108 134
3 108 132 134
3 135 109 133
3 111 110 136
3 136 110 109
3 136 109 135
3 137 111 136
3 138 111 137
3 112 113 139
3 115 112 139
3 114 140 113
3 140 139 113
3 139 141 115
3 116 115 142
3 118 116 142
3 142 115 141
3 117 118 143
3 120 117 143
3 118 142 144
3 143 118 144
3 119 120 145
3 122 119 145
3 120 143 146
3 145 120 146
3 121 122 147
3 123 121 147
3 122 145 148
3 147 122 148
3 123 147 149
3 124 123 149
3 124 149 150
3 151 126 124
3 124 150 151
3 128 125 152
3 152 125 126
3 152 126 151
3 129 127 153
3 153 127 128
3 128 152 154
3 153 128 154
3 155 129 153
3 131 129 156
3 156 129 155
3 132 130 157
3 130 131 157
3 157 131 158
3 131 156 158
3 132 157 159
3 132 159 134
3 135 133 160
3 160 133 134
3 160 134 159
3 136 135 161
3 135 160 161
3 162 137 136
3 161 162 136
3 163 138 137
3 162 163 137
3 139 164 141
3 140 165 139
3 139 165 164
3 141 164 166
3 141 166 142
3 166 167 142
3 144 142 167
3 167 168 144
3 143 144 168
3 146 143 168
3 168 169 146
3 145 146 170
3 148 145 170
3 170 146 169
3 147 148 171
3 149 147 171
3 148 170 172
3 171 148 172
3 173 151 150
3 149 171 174
3 150 149 174
3 150 174 175
3 150 175 173
3 154 152 176
3 152 151 176
3 176 151 173
3 154 176 177
3 155 153 178
3 177 178 154
3 154 178 153
3 156 155 179
3 155 178 179
3 180 158 156
3 179 180 156
3 181 159 157
3 180 181 158
3 181 157 158
3 182 160 159
3 181 182 159
3 183 161 160
3 182 183 160
3 184 162 161
3 184 161 183
3 185 163 162
3 184 185 162
3 164 186 166
3 165 187 164
3 164 187 186
3 166 186 188
3 166 188 167
3 167 188 189
3 167 189 168
3 168 189 190
3 168 190 169
3 169 190 191
3 169 191 170
3 192 172 170
3 170 191 192
3 192 193 172
3 171 172 193
3 174 171 193
3 194 173 175
3 176 173 194
3 175 174 195
3 193 195 174
3 195 196 175
3 175 196 194
3 197 177 176
3 194 197 176
3 198 178 177
3 197 198 177
3 199 179 178
3 198 199 178
3 200 180 179
3 199 200 179
3 201 181 180
3 200 201 180
3 202 182 181
3 201 202 181
3 203 183 182
3 202 203 182
3 204 184 183
3 203 204 183
3 205 185 184
3 204 205 184
3 186 206 188
3 187 207 186
3 186 207 206
3 188 206 208
3 188 208 189
3 189 208 209
3 189 209 190
3 190 209 210
3 190 210 191
3 191 210 211
3 191 211 192
3 192 211 212
3 192 212 193
3 193 212 213
3 193 213 195
3 214 197 194
3 214 194 196
3 195 213 215
3 195 215 196
3 196 215 214
3 216 198 197
3 214 216 197
3 217 199 198
3 216 217 198
3 218 200 199
3 217 218 199
3 219 201 200
3 218 219 200
3 220 202 201
3 219 220 201
3 221 203 202
3 220 221 202
3 222 204 203
3 221 222 203
3 223 205 204
3 222 223 204
3 206 224 208
3 207 225 206
3 206 225 224
3 208 224 226
3 208 226 209
3 209 226 227
3 209 227 210
3 210 227 228
3 210 228 211
3 211 228 229
3 211 229 212
3 212 229 230
3 212 230 213
3 213 230 231
3 213 231 215
3 232 216 214
3 215 231 232
3 232 214 215
3 233 217 216
3 232 233 216
3 234 218 217
3 233 234 217
3 235 219 218
3 234 235 218
3 236 220 219
3 235 236 219
3 237 221 220
3 236 237 220
3 238 222 221
3 237 238 221
3 239 223 222
3 238 239 222
3 224 240 226
3 225 241 224
3 224 241 240
3 226 240 242
3 226 242 227
3 227 242 243
3 227 243 228
3 228 243 244
3 228 244 229
3 244 245 229
3 229 245 230
3 230 245 246
3 230 246 231
3 231 246 247
3 231 247 232
3 248 233 232
3 248 232 247
3 249 234 233
3 248 249 233
3 250 235 234
3 249 250 234
3 251 236 235
3 250 251 235
3 252 237 236
3 251 252 236
3 253 238 237
3 252 253 237
3 254 239 238
3 253 254 238
3 240 255 242
3 241 256 240
3 240 256 255
3 242 255 257
3 242 257 243
3 243 257 258
3 243 258 244
3 244 258 259
3 244 259 245
3 245 259 260
3 245 260 246
3 246 260 261
3 246 261 247
3 248 247 261
3 262 249 248
3 261 262 248
3 263 250 249
3 262 263 249
3 264 251 250
3 263 264 250
3 265 252 251
3 264 265 251
3 266 253 252
3 265 266 252
3 267 254 253
3 266 267 253
3 255 268 257
3 256 269 255
3 255 269 268
3 257 268 270
3 257 270 258
3 258 270 271
3 258 271 259
3 259 271 272
3 259 272 260
3 260 272 273
3 260 273 261
3 274 262 261
3 261 273 274
3 275 263 262
3 274 275 262
3 276 264 263
3 275 276 263
3 277 265 264
3 276 277 264
3 278 266 265
3 277 278 265
3 279 267 266
3 278 279 266
3 268 280 270
3 269 281 268
3 268 281 280
3 270 280 282
3 270 282 271
3 271 282 283
3 271 283 272
3 283 284 272
3 272 284 273
3 285 275 274
3 273 284 285
3 285 274 273
3 286 276 275
3 285 286 275
3 287 277 276
3 286 287 276
3 288 278 277
3 287 288 277
3 289 279 278
3 288 289 278
3 280 290 282
3 281 291 280
3 280 291 290
3 282 290 292
3 282 292 283
3 283 292 293
3 283 293 284
3 284 293 294
3 284 294 285
3 295 286 285
3 295 285 294
3 296 287 286
3 295 296 286
3 297 288 287
3 296 297 287
3 298 289 288
3 297 298 288
3 290 299 292
3 291 300 290
3 290 300 299
3 292 299 301
3 292 301 293
3 293 301 302
3 293 302 294
3 294 302 295
3 303 296 295
3 303 295 302
3 304 297 296
3 303 304 296
3 305 298 297
3 304 305 297
3 299 306 301
3 300 307 299
3 299 307 306
3 301 306 308
3 301 308 302
3 309 303 302
3 302 308 309
3 310 304 303
3 309 310 303
3 311 305 304
3 310 311 304
3 306 312 308
3 307 313 306
3 306 313 312
3 314 310 309
3 308 312 314
3 314 309 308
3 315 311 310
3 314 315 310
3 312 316 314
3 313 317 312
3 312 317 316
3 318 315 314
3 318 314 316
3 317 319 316
3 319 318 316
CELL_TYPES 578
5
5
5
5
5
5
5
5
5
5
5
5
5
5
5
5
5
5
5
5
5
5
5
5
5
5
5
5
5
5
5
5
5
5
5
5
5
5
5
5
5
5
5
5
5
5
5
5
5
5
5
5
5
5
5
5
5
5
5
5
5
5
5
5
5
5
5
5
5
5
5
5
5
5
5
5
5
5
5
5
5
5
5
5
5
5
5
5
5
5
5
5
5
5
5
5
5
5
5
5
5
5
5
5
5
5
5
5
5
5
5
5
5
5
5
5
5
5
5
5
5
5
5
5
5
5
5
5
5
5
5
5
5
5
5
5
5
5
5
5
5
5
5
5
5
5
5
5
5
5
5
5
5
5
5
5
5
5
5
5
5
5
5
5
5
5
5
5
5
5
5
5
5
5
5
5
5
5
5
5
5
5
5
5
5
5
5
5
5
5
5
5
5
5
5
5
5
5
5
5
5
5
5
5
5
5
5
5
5
5
5
5
5
5
5
5
5
5
5
5
5
5
5
5
5
5
5
5
5
5
5
5
5
5
5
5
5
5
5
5
5
5
5
5
5
5
5
5
5
5
5
5
5
5
5
5
5
5
5
5
5
5
5
5
5
5
5
5
5
5
5
5
5
5
5
5
5
5
5
5
5
5
5
5
5
5
5
5
5
5
5
5
5
5
5
5
5
5
5
5
5
5
5
5
5
5
5
5
5
5
5
5
5
5
5
5
5
5
5
5
5
5
5
5
5
5
5
5
5
5
5
5
5
5
5
5
5
5
5
5
5
5
5
5
5
5
5
5
5
5
5
5
5
5
5
5
5
5
5
5
5
5
5
5
5
5
5
5
5
5
5
5
5
5
5
5
5
5
5
5
5
5
5
5
5
5
5
5
5
5
5
5
5
5
5
5
5
5
5
5
5
5
5
5
5
5
5
5
5
5
5
5
5
5
5
5
5
5
5
5
5
5
5
5
5
5
5
5
5
5
5
5
5
5
5
5
5
5
5
5
5
5
5
5
5
5
5
5
5
5
5
5
5
5
5
5
5
5
5
5
5
5
5
5
5
5
5
5
5
5
5
5
5
5
5
5
5
5
5
5
5
5
5
5
5
5
5
5
5
5
5
5
5
5
5
5
5
5
5
5
5
5
5
5
5
5
5
5
5
5
5
5
5
5
5
5
5
5
5
5
5
5
5
5
5
5
5
5
5
5
5
5
5
5
5
5
5
5
5
5
5
5
5
5
5
5
5
5
5
5
5
5
5
5
5
5
5
5
5
5
5
5
5
5
5
5
5
5
5
5
5
5
5
5
5
5
5
5
POINT_DATA 320
SCALARS theta_e float 1
LOOKUP_TABLE default
1.000000
1.000000
1.000000
1.000000
1.000000
1.000000
1.000000
1.000000
1.000000
1.000000
1.000000
1.000000
1.000000
1.000000
1.000000
1.000000
1.000000
1.000000
1.000000
1.000000
1.000000
1.000000
1.000000
1.000000
1.000000
1.000000
1.000000
1.000000
1.000000
1.000000
1.000000
1.000000
1.000000
1.000000
1.000000
1.000000
1.000000
1.000000
1.000000
1.000000
1.000000
1.000000
1.000000
1.000000
1.000000
1.000000
1.000000
1.000000
1.000000
1.000000
1.000000
1.000000
1.000000
1.000000
1.000000
1.000000
1.000000
1.000000
1.000000
1.000000
1.000000
1.000000
1.000000
1.000000
1.000000
1.000000
1.000000
1.000000
1.000000
1.000000
1.000000
1.000000
1.000000
1.000000
1.000000
1.000000
1.000000
1.000000
1.000000
1.000000
1.000000
1.000000
1.000000
1.000000
1.000000
1.000000
1.000000
1.000000
1.000000
1.000000
1.000000
1.000000
1.000000
1.000000
1.000000
1.000000
1.000000
1.000000
1.000000
1.000000
1.000000
1.000000
1.000000
1.000000
1.000000
1.000000
1.000000
1.000000
1.000000
1.000000
1.000000
1.000000
1.000000
1.000000
1.000000
1.000000
1.000000
1.000000
1.000000
1.000000
1.000000
1.000000
1.000000
1.000000
0.999998
1.000001
1.000000
1.000000
1.000001
1.000000
1.000000
1.000000
1.000000
1.000000
1.000000
1.000000
1.000000
1.000000
1.000000
1.000000
1.000000
1.000000
1.000000
1.000000
1.000000
1.000000
1.000000
1.000000
1.000000
0.999998
0.999992
0.999995
0.999999
1.000001
0.999999
1.000001
1.000000
1.000000
1.000000
1.000000
1.000000
1.000000
1.000000
1.000000
1.000000
1.000000
1.000000
1.000000
1.000000
1.000000
1.000000
0.999999
1.000000
0.999989
0.999994
0.999989
0.999993
0.999998
1.000001
1.000000
1.000000
1.000000
1.000000
1.000000
1.000000
1.000000
1.000000
1.000000
1.000000
1.000000
1.000000
1.000000
1.000000
0.999998
0.999990
0.999992
0.999990
0.999994
1.000000
1.000001
1.000000
1.000000
1.000000
1.000000
1.000000
1.000000
1.000000
1.000000
1.000000
1.000000
1.000000
1.000000
1.000000
0.999998
0.999992
0.999994
0.999998
1.000001
1.000000
1.000000
1.000000
1.000000
1.000000
1.000000
1.000000
1.000000
1.000000
1.000000
1.000000
1.000000
1.000000
0.999999
0.999998
1.000001
1.000000
1.000000
1.000000
1.000000
1.000000
1.000000
1.000000
1.000000
1.000000
1.000000
1.000000
1.000000
1.000000
1.000000
1.000000
1.000000
1.000000
1.000000
1.000000
1.000000
1.000000
1.000000
1.000000
1.000000
1.000000
1.000000
1.000000
1.000000
1.000000
1.000000
1.000000
1.000000
1.000000
1.000000
1.000000
1.000000
1.000000
1.000000
1.000000
1.000000
1.000000
1.000000
1.000000
1.000000
1.000000
1.000000
1.000000
1.000000
1.000000
1.000000
1.000000
1.000000
1.000000
1.000000
1.000000
1.000000
1.000000
1.000000
1.000000
1.000000
1.000000
1.000000
1.000000
1.000000
1.000000
1.000000
1.000000
1.000000
1.000000
1.000000
1.000000
1.000000
1.000000
1.000000
1.000000
1.000000
1.000000
1.000000
1.000000
1.000000
1.000000
1.000000
1.000000
1.000000
1.000000
1.000000
VECTORS fa_u float
0.000000 0.000000 0.000000
0.000000 0.000000 0.000000
0.000000 0.000000 0.000000
0.000000 0.000000 0.000000
0.000000 0.000000 0.000000
0.000000 0.000000 0.000000
0.000000 0.000000 0.000000
0.000000 0.000000 0.000000
0.000000 0.000000 0.000000
0.000000 0.000000 0.000000
0.000000 0.000000 0.000000
0.000000 0.000000 0.000000
0.000000 0.000000 0.000000
0.000000 0.000000 0.000000
0.000000 0.000000 0.000000
0.000000 0.000000 0.000000
0.000000 0.000000 0.000000
0.000000 0.000000 0.000000
0.000000 0.000000 0.000000
0.000000 0.000000 0.000000
0.000000 0.000000 0.000000
0.000000 0.000000 0.000000
0.000000 0.000000 0.000000
0.000000 0.000000 0.000000
0.000000 0.000000 0.000000
0.000000 0.000000 0.000000
0.000000 0.000000 0.000000
0.000000 0.000000 0.000000
0.000000 0.000000 0.000000
0.000000 0.000000 0.000000
0.000000 0.000000 0.000000
0.000000 0.000000 0.000000
0.000000 0.000000 0.000000
0.000000 0.000000 0.000000
0.000000 0.000000 0.000000
0.000000 0.000000 0.000000
0.000000 0.000000 0.000000
0.000000 0.000000 0.000000
0.000000 0.000000 0.000000
0.000000 0.000000 0.000000
0.000000 0.000000 0.000000
0.000000 0.000000 0.000000
0.000000 0.000000 0.000000
0.000000 0.000000 0.000000
0.000000 0.000000 0.000000
0.000000 0.000000 0.000000
0.000000 0.000000 0.000000
0.000000 0.000000 0.000000
0.000000 0.000000 0.000000
0.000000 0.000000 0.000000
0.000000 0.000000 0.000000
0.000000 0.000000 0.000000
0.000000 0.000000 0.000000
0.000000 0.000000 0.000000
0.000000 0.000000 0.000000
0.000000 0.000000 0.000000
0.000000 0.000000 0.000000
0.000000 0.000000 0.000000
0.000000 0.000000 0.000000
0.000000 0.000000 0.000000
0.000000 0.000000 0.000000
0.000000 0.000000 0.000000
0.000000 0.000000 0.000000
0.000000 0.000000 0.000000
0.000000 0.000000 0.000000
0.000000 0.000000 0.000000
0.000000 0.000000 0.000000
0.000000 0.000000 0.000000
0.000000 0.000000 0.000000
0.000000 0.000000 0.000000
0.000000 0.000000 0.000000
0.000000 0.000000 0.000000
0.000000 0.000000 0.000000
0.000000 0.000000 0.000000
0.000000 0.000000 0.000000
0.000000 0.000000 0.000000
0.000000 0.000000 0.000000
0.000000 0.000000 0.000000
0.000000 0.000000 0.000000
0.000000 0.000000 0.000000
0.000000 0.000000 0.000000
0.000000 0.000000 0.000000
0.000000 0.000000 0.000000
0.000000 0.000000 0.000000
0.000000 0.000000 0.000000
0.000000 0.000000 0.000000
0.000000 0.000000 0.000000
0.000000 0.000000 0.000000
0.000000 0.000000 0.000000
0.000000 0.000000 0.000000
0.000000 0.000000 0.000000
0.000000 0.000000 0.000000
0.000000 0.000000 0.000000
0.000000 0.000000 0.000000
0.000000 0.000000 0.000000
0.000000 0.000000 0.000000
0.000000 0.000000 0.000000
0.000000 0.000000 0.000000
0.000000 0.000000 0.000000
0.000000 0.000000 0.000000
0.000000 0.000000 0.000000
0.000000 0.000000 0.000000
0.000000 0.000000 0.000000
0.000000 0.000000 0.000000
0.000000 0.000000 0.000000
0.000000 0.000000 0.000000
0.000000 0.000000 0.000000
0.000000 0.000000 0.000000
0.000000 0.000000 0.000000
0.000000 0.000000 0.000000
0.000000 0.000000 0.000000
0.000000 0.000000 0.000000
0.000000 0.000000 0.000000
0.000000 0.000000 0.000000
0.000000 0.000000 0.000000
0.000000 0.000000 0.000000
0.000000 0.000000 0.000000
0.000000 0.000000 0.000000
0.000000 0.000000 0.000000
0.000000 0.000000 0.000000
0.000000 0.000000 0.000000
0.000000 0.000000 0.000000
0.000000 0.000000 0.000000
0.000000 0.000000 0.000000
0.000000 0.000000 0.000000
0.000000 0.000000 0.000000
0.000000 0.000000 0.000000
0.000000 0.000000 0.000000
0.000000 0.000000 0.000000
0.000000 0.000000 0.000000
0.000000 0.000000 0.000000
0.000000 0.000000 0.000000
0.000000 0.000000 0.000000
0.000000 0.000000 0.000000
0.000000 0.000000 0.000000
0.000000 0.000000 0.000000
0.000000 0.000000 0.000000
0.000000 0.000000 0.000000
0.000000 0.000000 0.000000
0.000000 0.000000 0.000000
0.000000 0.000000 0.000000
0.000000 0.000000 0.000000
0.000000 0.000000 0.000000
0.000000 0.000000 0.000000
0.000000 0.000000 0.000000
0.000000 0.000000 0.000000
0.000000 0.000000 0.000000
0.000000 0.000000 0.000000
0.000000 0.000000 0.000000
0.000000 0.000000 0.000000
0.000000 0.000000 0.000000
0.000000 0.000000 0.000000
0.000000 0.000000 0.000000
0.000000 0.000000 0.000000
0.000000 0.000000 0.000000
0.000000 0.000000 0.000000
0.000000 0.000000 0.000000
0.000000 0.000000 0.000000
0.000000 0.000000 0.000000
0.000000 0.000000 0.000000
0.000000 0.000000 0.000000
0.000000 0.000000 0.000000
0.000000 0.000000 0.000000
0.000000 0.000000 0.000000
0.000000 0.000000 0.000000
0.000000 0.000000 0.000000
0.000000 0.000000 0.000000
0.000000 0.000000 0.000000
0.000000 0.000000 0.000000
0.000000 0.000000 0.000000
0.000000 0.000000 0.000000
0.000000 0.000000 0.000000
0.000000 0.000000 0.000000
0.000000 0.000000 0.000000
0.000000 0.000000 0.000000
0.000000 0.000000 0.000000
0.000000 0.000000 0.000000
0.000000 0.000000 0.000000
0.000000 0.000000 0.000000
0.000000 0.000000 0.000000
0.000000 0.000000 0.000000
0.000000 0.000000 0.000000
0.000000 0.000000 0.000000
0.000000 0.000000 0.000000
0.000000 0.000000 0.000000
0.000000 0.000000 0.000000
0.000000 0.000000 0.000000
0.000000 0.000000 0.000000
0.000000 0.000000 0.000000
0.000000 0.000000 0.000000
0.000000 0.000000 0.000000
0.000000 0.000000 0.000000
0.000000 0.000000 0.000000
0.000000 0.000000 0.000000
0.000000 0.000000 0.000000
0.000000 0.000000 0.000000
0.000000 0.000000 0.000000
0.000000 0.000000 0.000000
0.000000 0.000000 0.000000
0.000000 0.000000 0.000000
0.000000 0.000000 0.000000
0.000000 0.000000 0.000000
0.000000 0.000000 0.000000
0.000000 0.000000 0.000000
0.000000 0.000000 0.000000
0.000000 0.000000 0.000000
0.000000 0.000000 0.000000
0.000000 0.000000 0.000000
0.000000 0.000000 0.000000
0.000000 0.000000 0.000000
0.000000 0.000000 0.000000
0.000000 0.000000 0.000000
0.000000 0.000000 0.000000
0.000000 0.000000 0.000000
0.000000 0.000000 0.000000
0.000000 0.000000 0.000000
0.000000 0.000000 0.000000
0.000000 0.000000 0.000000
0.000000 0.000000 0.000000
0.000000 0.000000 0.000000
0.000000 0.000000 0.000000
0.000000 0.000000 0.000000
0.000000 0.000000 0.000000
0.000000 0.000000 0.000000
0.000000 0.000000 0.000000
0.000000 0.000000 0.000000
0.000000 0.000000 0.000000
0.000000 0.000000 0.000000
0.000000 0.000000 0.000000
0.000000 0.000000 0.000000
0.000000 0.000000 0.000000
0.000000 0.000000 0.000000
0.000000 0.000000 0.000000
0.000000 0.000000 0.000000
0.000000 0.000000 0.000000
0.000000 0.000000 0.000000
0.000000 0.000000 0.000000
0.000000 0.000000 0.000000
0.000000 0.000000 0.000000
0.000000 0.000000 0.000000
0.000000 0.000000 0.000000
0.000000 0.000000 0.000000
0.000000 0.000000 0.000000
0.000000 0.000000 0.000000
0.000000 0.000000 0.000000
0.000000 0.000000 0.000000
0.000000 0.000000 0.000000
0.000000 0.000000 0.000000
0.000000 0.000000 0.000000
0.000000 0.000000 0.000000
0.000000 0.000000 0.000000
0.000000 0.000000 0.000000
0.000000 0.000000 0.000000
0.000000 0.000000 0.000000
0.000000 0.000000 0.000000
0.000000 0.000000 0.000000
0.000000 0.000000 0.000000
0.000000 0.000000 0.000000
0.000000 0.000000 0.000000
0.000000 0.000000 0.000000
0.000000 0.000000 0.000000
0.000000 0.000000 0.000000
0.000000 0.000000 0.000000
0.000000 0.000000 0.000000
0.000000 0.000000 0.000000
0.000000 0.000000 0.000000
0.000000 0.000000 0.000000
0.000000 0.000000 0.000000
0.000000 0.000000 0.000000
0.000000 0.000000 0.000000
0.000000 0.000000 0.000000
0.000000 0.000000 0.000000
0.000000 0.000000 0.000000
0.000000 0.000000 0.000000
0.000000 0.000000 0.000000
0.000000 0.000000 0.000000
0.000000 0.000000 0.000000
0.000000 0.000000 0.000000
0.000000 0.000000 0.000000
0.000000 0.000000 0.000000
0.000000 0.000000 0.000000
0.000000 0.000000 0.000000
0.000000 0.000000 0.000000
0.000000 0.000000 0.000000
0.000000 0.000000 0.000000
0.000000 0.000000 0.000000
0.000000 0.000000 0.000000
0.000000 0.000000 0.000000
0.000000 0.000000 0.000000
0.000000 0.000000 0.000000
0.000000 0.000000 0.000000
0.000000 0.000000 0.000000
0.000000 0.000000 0.000000
0.000000 0.000000 0.000000
0.000000 0.000000 0.000000
0.000000 0.000000 0.000000
0.000000 0.000000 -50.000000
-50.000000 0.000000 -50.000000
-43.332309 0.000000 -45.688625
-45.491343 0.000000 -43.332165
-50.000000 0.000000 -50.000000
-36.664556 0.000000 -36.664621
-50.000000 0.000000 -45.081376
-39.969922 0.000000 -40.027561
-44.152478 0.000000 -29.996999
-50.000000 0.000000 -50.000000
-29.996901 0.000000 -44.847339
-33.449029 0.000000 -33.145210
-44.675906 0.000000 -39.869445
-36.787137 0.000000 -35.129039
-39.801572 0.000000 -23.329786
-50.000000 0.000000 -26.539474
-44.666846 0.000000 -50.000000
-23.329707 0.000000 -44.665379
-26.804083 0.000000 -39.364475
-30.225839 0.000000 -29.606707
-39.359574 0.000000 -33.368676
-33.655692 0.000000 -50.000000
-16.663182 0.000000 -16.663331
-50.000000 0.000000 -9.997647
