# vtk DataFile Version 2.0
CellBP Time: 11.96
ASCII
DATASET UNSTRUCTURED_GRID
POINTS 320 double
-50.000000 -50.000000 0.000000
-50.000000 -43.332115 0.000000
-45.688696 -45.491398 0.000000
-43.331951 -50.000000 0.000000
-50.000000 -36.664158 0.000000
-36.664252 -50.000000 0.000000
-45.081452 -39.969959 0.000000
-40.027675 -44.152534 0.000000
-29.996466 -50.000000 0.000000
-50.000000 -29.996320 0.000000
-44.847412 -33.449061 0.000000
-33.145306 -44.675966 0.000000
-39.869541 -36.787176 0.000000
-35.129157 -39.801645 0.000000
-23.329168 -50.000000 0.000000
-26.539581 -44.666871 0.000000
-50.000000 -23.329037 0.000000
-44.665407 -26.804129 0.000000
-39.364542 -30.225882 0.000000
-29.606842 -39.359628 0.000000
-33.368807 -33.655756 0.000000
-50.000000 -16.662551 0.000000
-16.662767 -50.000000 0.000000
-9.997269 -50.000000 0.000000
-19.965392 -44.588696 0.000000
-23.216320 -39.114771 0.000000
-44.691800 -20.097117 0.000000
-39.367967 -23.528207 0.000000
-34.106475 -26.937154 0.000000
-26.384968 -33.577639 0.000000
-29.156755 -28.926944 0.000000
-50.000000 -9.996757 0.000000
-44.666284 -13.410361 0.000000
-50.000000 -3.331830 0.000000
-3.332503 -50.000000 0.000000
3.332094 -50.000000 0.000000
-13.344187 -44.598842 0.000000
-6.685055 -44.610426 0.000000
-16.694107 -39.153050 0.000000
-20.107275 -33.342592 0.000000
-39.338090 -16.804563 0.000000
-34.019118 -20.274446 0.000000
-28.781556 -23.449292 0.000000
-23.510943 -27.351206 0.000000
-44.635238 -6.705484 0.000000
-39.293125 -10.101652 0.000000
-50.000000 3.332657 0.000000
-44.626446 -0.015297 0.000000
9.997073 -50.000000 0.000000
16.662777 -50.000000 0.000000
-0.016219 -44.618535 0.000000
6.651821 -44.635313 0.000000
-10.045069 -39.222488 0.000000
-3.368356 -39.220150 0.000000
-13.484417 -33.798333 0.000000
-16.708728 -28.271596 0.000000
-33.947884 -13.513267 0.000000
-28.602991 -16.891872 0.000000
-23.293087 -20.313404 0.000000
-18.661251 -23.285053 0.000000
-39.267273 -3.392501 0.000000
-33.904456 -6.796690 0.000000
-50.000000 9.997321 0.000000
-44.606436 6.673940 0.000000
-39.260541 3.325895 0.000000
-50.000000 16.662795 0.000000
23.329211 -50.000000 0.000000
29.996386 -50.000000 0.000000
13.317895 -44.662917 0.000000
19.990063 -44.700090 0.000000
3.307601 -39.245097 0.000000
9.971911 -39.290413 0.000000
-6.735859 -33.791338 0.000000
-0.032151 -33.829395 0.000000
-10.096129 -28.292019 0.000000
-13.122700 -22.895272 0.000000
-28.531088 -10.213826 0.000000
-23.068170 -13.663879 0.000000
-16.979716 -17.213480 0.000000
-33.884008 -0.065491 0.000000
-28.562585 -3.580549 0.000000
-44.563901 13.381166 0.000000
-39.189788 10.015330 0.000000
-33.905354 6.616119 0.000000
-50.000000 23.328963 0.000000
-44.557235 20.138746 0.000000
-50.000000 29.996489 0.000000
36.664106 -50.000000 0.000000
43.332005 -50.000000 0.000000
26.663655 -44.745425 0.000000
33.315597 -44.876212 0.000000
16.631786 -39.357683 0.000000
23.328501 -39.437224 0.000000
6.642998 -33.879648 0.000000
13.290420 -33.965447 0.000000
-3.346691 -28.364002 0.000000
3.358663 -28.451213 0.000000
-6.626566 -22.844508 0.000000
-9.960141 -17.315177 0.000000
-23.179030 -7.013978 0.000000
-17.814688 -10.334927 0.000000
-12.837766 -12.613287 0.000000
-28.607261 3.088755 0.000000
-23.267173 -0.470401 0.000000
-39.038283 16.746364 0.000000
-28.719763 9.925643 0.000000
-33.760544 13.317883 0.000000
-44.521730 26.717511 0.000000
-38.467809 23.892879 0.000000
-44.632903 33.086175 0.000000
-50.000000 36.664717 0.000000
-50.000000 43.332311 0.000000
39.922635 -45.069835 0.000000
45.475015 -45.660728 0.000000
50.000000 -50.000000 0.000000
36.627010 -39.982164 0.000000
30.012672 -39.458794 0.000000
19.904235 -34.093078 0.000000
26.585209 -34.319721 0.000000
9.988338 -28.512516 0.000000
16.610440 -28.660689 0.000000
0.049871 -22.964401 0.000000
6.812008 -23.154384 0.000000
-3.397473 -17.297030 0.000000
-6.789671 -10.861136 0.000000
-17.872551 -3.810016 0.000000
-12.547359 -7.033058 0.000000
-23.307601 6.068556 0.000000
-18.033067 2.434560 0.000000
-23.124183 12.096497 0.000000
-33.572188 19.788984 0.000000
-27.941907 16.886670 0.000000
-33.293457 24.723209 0.000000
-39.474275 30.053585 0.000000
-35.161158 28.138021 0.000000
-39.816713 35.101986 0.000000
-43.992065 39.982898 0.000000
-45.431223 45.685599 0.000000
-50.000000 50.000000 0.000000
44.117533 -39.899397 0.000000
50.000000 -43.331559 0.000000
39.639733 -35.047688 0.000000
33.463109 -33.424777 0.000000
22.985088 -28.818330 0.000000
28.731168 -29.248037 0.000000
13.460878 -23.121962 0.000000
20.055036 -23.440123 0.000000
3.360597 -17.591826 0.000000
10.121908 -17.844251 0.000000
0.171601 -11.757556 0.000000
-2.120054 -6.144144 0.000000
-7.123629 -3.543646 0.000000
-12.414187 -0.808849 0.000000
-18.176066 8.573180 0.000000
-12.930155 5.196654 0.000000
-18.637684 13.750755 0.000000
-21.503501 17.493839 0.000000
-28.941264 23.159620 0.000000
-24.346549 21.554150 0.000000
-30.324235 28.635396 0.000000
-34.254057 33.375794 0.000000
-36.956244 39.578247 0.000000
-39.838812 45.103056 0.000000
-43.331940 50.000000 0.000000
44.585499 -32.972362 0.000000
50.000000 -36.663649 0.000000
39.129452 -29.582153 0.000000
33.500823 -26.367841 0.000000
27.183466 -23.322128 0.000000
23.067798 -18.648043 0.000000
16.993317 -16.983016 0.000000
6.696039 -12.188021 0.000000
12.377284 -12.738226 0.000000
-3.361260 -1.482570 0.000000
3.772163 -6.740731 0.000000
1.023881 -2.120762 0.000000
-6.835322 2.258491 0.000000
-8.217419 7.633758 0.000000
-12.840720 11.927187 0.000000
-15.690044 17.698634 0.000000
-19.287586 22.981011 0.000000
-24.171040 27.354286 0.000000
-27.286478 33.625738 0.000000
-30.406875 39.160981 0.000000
-33.448052 44.738904 0.000000
-36.663956 50.000000 0.000000
44.547780 -26.500253 0.000000
50.000000 -29.995810 0.000000
39.040027 -23.179393 0.000000
33.449499 -19.899991 0.000000
28.039598 -16.573052 0.000000
22.678894 -13.123474 0.000000
17.175915 -9.897780 0.000000
10.756885 -6.567722 0.000000
-1.360918 2.322878 0.000000
6.120670 -1.706535 0.000000
2.884133 1.590679 0.000000
-3.437444 6.956398 0.000000
-6.314329 12.424709 0.000000
-9.629275 17.714060 0.000000
-13.168353 23.115242 0.000000
-17.317062 28.185067 0.000000
-20.571195 33.474141 0.000000
-23.666248 39.063881 0.000000
-26.831414 44.585338 0.000000
-29.996450 50.000000 0.000000
44.528620 -19.931053 0.000000
50.000000 -23.328570 0.000000
39.036092 -16.594258 0.000000
33.575681 -13.281240 0.000000
28.148769 -9.965127 0.000000
22.724433 -6.604752 0.000000
17.265308 -3.334193 0.000000
11.765821 0.220075 0.000000
1.903911 6.184933 0.000000
6.768234 3.690139 0.000000
-0.229412 11.735278 0.000000
-3.243634 17.532116 0.000000
-6.698404 22.976046 0.000000
-10.566863 28.267157 0.000000
-13.724412 33.660805 0.000000
-16.946059 39.080059 0.000000
-20.141186 44.548305 0.000000
-23.329419 50.000000 0.000000
44.536085 -13.304185 0.000000
50.000000 -16.662211 0.000000
39.079710 -9.966938 0.000000
33.646496 -6.641518 0.000000
28.236906 -3.308208 0.000000
22.850807 0.017294 0.000000
17.538812 3.337292 0.000000
12.175045 6.578784 0.000000
6.643967 10.668984 0.000000
3.303035 17.200988 0.000000
-0.080260 22.855573 0.000000
-3.519241 28.313320 0.000000
-6.831863 33.774762 0.000000
-10.137939 39.170495 0.000000
-13.436395 44.563408 0.000000
-16.663137 50.000000 0.000000
44.554041 -6.655050 0.000000
50.000000 -9.996829 0.000000
39.123102 -3.321467 0.000000
33.713261 0.008880 0.000000
28.333329 3.345520 0.000000
22.998573 6.693992 0.000000
17.834916 10.017628 0.000000
12.658971 12.247461 0.000000
9.782776 17.232101 0.000000
6.480300 22.722390 0.000000
3.189698 28.270551 0.000000
-0.116057 33.735005 0.000000
-3.425386 39.168747 0.000000
-6.725905 44.581684 0.000000
-9.997537 50.000000 0.000000
44.575420 0.001794 0.000000
50.000000 -3.332222 0.000000
39.166878 3.331833 0.000000
33.779575 6.655720 0.000000
28.423702 9.994663 0.000000
23.046500 13.416060 0.000000
16.951615 17.024834 0.000000
12.901572 22.666182 0.000000
9.815729 28.231531 0.000000
6.604529 33.718828 0.000000
3.286577 39.164436 0.000000
-0.029976 44.584462 0.000000
-3.332490 50.000000 0.000000
44.586619 6.665741 0.000000
50.000000 3.332277 0.000000
39.198237 9.982111 0.000000
33.843514 13.276878 0.000000
28.542505 16.584179 0.000000
23.387951 20.084213 0.000000
18.532065 23.113749 0.000000
16.392394 28.298374 0.000000
13.329131 33.754707 0.000000
9.986817 39.181934 0.000000
6.666233 44.584185 0.000000
3.332367 50.000000 0.000000
44.608868 13.318438 0.000000
50.000000 9.997241 0.000000
39.251389 16.612684 0.000000
33.932092 19.862927 0.000000
28.612650 22.925988 0.000000
23.279702 27.207853 0.000000
19.901478 33.302756 0.000000
16.574227 39.040779 0.000000
13.268857 44.526583 0.000000
9.997312 50.000000 0.000000
44.632057 19.973549 0.000000
50.000000 16.662939 0.000000
39.298576 23.262460 0.000000
34.044005 26.514947 0.000000
28.966049 28.539513 0.000000
26.202665 33.410193 0.000000
23.067056 38.968775 0.000000
19.889123 44.506997 0.000000
16.662758 50.000000 0.000000
44.639920 26.643433 0.000000
50.000000 23.329340 0.000000
39.293557 29.967069 0.000000
33.212682 33.371521 0.000000
29.412530 39.045972 0.000000
26.422867 44.506018 0.000000
23.329060 50.000000 0.000000
44.775233 33.292179 0.000000
50.000000 29.996456 0.000000
39.738409 36.596578 0.000000
34.831394 39.525948 0.000000
32.834222 44.514549 0.000000
29.996157 50.000000 0.000000
44.978509 39.878172 0.000000
50.000000 36.664121 0.000000
39.735338 43.969342 0.000000
36.663858 50.000000 0.000000
45.621610 45.410146 0.000000
50.000000 43.331993 0.000000
43.331655 50.000000 0.000000
50.000000 50.000000 0.000000
CELLS 578 2312
3 1 0 2
3 0 3 2
3 4 1 6
3 6 1 2
3 3 5 7
3 3 7 2
3 6 2 7
3 9 4 10
3 10 4 6
3 5 8 11
3 7 5 11
3 10 6 12
3 12 6 7
3 7 11 13
3 7 13 12
3 8 14 15
3 11 8 15
3 16 9 17
3 17 9 10
3 17 10 18
3 18 10 12
3 11 15 19
3 13 11 19
3 18 12 20
3 13 19 20
3 20 12 13
3 14 22 24
3 15 14 24
3 15 24 25
3 19 15 25
3 21 16 26
3 26 16 17
3 26 17 27
3 27 17 18
3 27 18 28
3 28 18 20
3 19 25 29
3 19 29 20
3 28 20 30
3 30 20 29
3 31 21 32
3 32 21 26
3 22 23 36
3 24 22 36
3 23 34 37
3 36 23 37
3 24 36 38
3 25 24 38
3 25 38 39
3 29 25 39
3 32 26 40
3 40 26 27
3 40 27 41
3 41 27 28
3 41 28 42
3 42 28 30
3 29 39 43
3 29 43 30
3 42 30 43
3 33 31 44
3 44 31 32
3 44 32 45
3 45 32 40
3 46 33 47
3 47 33 44
3 34 35 50
3 37 34 50
3 35 48 51
3 50 35 51
3 36 37 52
3 38 36 52
3 37 50 53
3 52 37 53
3 38 52 54
3 39 38 54
3 39 54 55
3 43 39 55
3 45 40 56
3 56 40 41
3 56 41 57
3 57 41 42
3 57 42 58
3 58 42 43
3 43 55 59
3 43 59 58
3 47 44 60
3 60 44 45
3 60 45 61
3 61 45 56
3 62 46 63
3 63 46 47
3 63 47 64
3 64 47 60
3 48 49 68
3 51 48 68
3 49 66 69
3 68 49 69
3 50 51 70
3 53 50 70
3 51 68 71
3 70 51 71
3 52 53 72
3 54 52 72
3 53 70 73
3 72 53 73
3 54 72 74
3 55 54 74
3 55 74 75
3 59 55 75
3 61 56 76
3 76 56 57
3 76 57 77
3 77 57 58
3 77 58 78
3 59 75 78
3 78 58 59
3 64 60 79
3 79 60 61
3 79 61 80
3 80 61 76
3 65 62 81
3 81 62 63
3 81 63 82
3 82 63 64
3 82 64 83
3 83 64 79
3 84 65 85
3 85 65 81
3 66 67 89
3 69 66 89
3 67 87 90
3 89 67 90
3 68 69 91
3 71 68 91
3 69 89 92
3 91 69 92
3 70 71 93
3 73 70 93
3 71 91 94
3 93 71 94
3 72 73 95
3 74 72 95
3 73 93 96
3 95 73 96
3 74 95 97
3 75 74 97
3 75 97 98
3 78 75 98
3 80 76 99
3 99 76 77
3 99 77 100
3 100 77 78
3 100 78 101
3 98 101 78
3 83 79 102
3 102 79 80
3 102 80 103
3 103 80 99
3 85 81 104
3 104 81 82
3 105 83 102
3 104 82 106
3 106 82 83
3 106 83 105
3 86 84 107
3 107 84 85
3 107 85 108
3 108 85 104
3 109 86 107
3 110 86 109
3 87 88 112
3 90 87 112
3 112 88 113
3 88 114 113
3 90 112 115
3 89 90 116
3 92 89 116
3 116 90 115
3 91 92 117
3 94 91 117
3 92 116 118
3 117 92 118
3 93 94 119
3 96 93 119
3 94 117 120
3 119 94 120
3 95 96 121
3 97 95 121
3 96 119 122
3 121 96 122
3 97 121 123
3 98 97 123
3 98 123 124
3 98 124 101
3 103 99 125
3 125 99 100
3 125 100 126
3 126 100 101
3 126 101 124
3 105 102 127
3 127 102 103
3 127 103 128
3 128 103 125
3 129 105 127
3 108 104 130
3 130 104 106
3 130 106 131
3 131 106 105
3 131 105 129
3 108 130 132
3 109 107 133
3 133 107 108
3 133 108 134
3 108 132 134
3 135 109 133
3 111 110 136
3 136 110 109
3 136 109 135
3 137 111 136
3 138 111 137
3 112 113 139
3 115 112 139
3 114 140 113
3 140 139 113
3 139 141 115
3 116 115 142
3 118 116 142
3 142 115 141
3 117 118 143
3 120 117 143
3 118 142 144
3 143 118 144
3 119 120 145
3 122 119 145
3 120 143 146
3 145 120 146
3 121 122 147
3 123 121 147
3 122 145 148
3 147 122 148
3 123 147 149
3 124 123 149
3 124 149 150
3 151 126 124
3 124 150 151
3 128 125 152
3 152 125 126
3 152 126 151
3 129 127 153
3 153 127 128
3 128 152 154
3 153 128 154
3 155 129 153
3 131 129 156
3 156 129 155
3 132 130 157
3 130 131 157
3 157 131 158
3 131 156 158
3 132 157 159
3 132 159 134
3 135 133 160
3 160 133 134
3 160 134 159
3 136 135 161
3 135 160 161
3 162 137 136
3 161 162 136
3 163 138 137
3 162 163 137
3 139 164 141
3 140 165 139
3 139 165 164
3 141 164 166
3 141 166 142
3 166 167 142
3 144 142 167
3 167 168 144
3 143 144 168
3 146 143 168
3 168 169 146
3 145 146 170
3 148 145 170
3 170 146 169
3 147 148 171
3 149 147 171
3 148 170 172
3 171 148 172
3 173 151 150
3 149 171 174
3 150 149 174
3 150 174 175
3 150 175 173
3 154 152 176
3 152 151 176
3 176 151 173
3 154 176 177
3 155 153 178
3 177 178 154
3 154 178 153
3 156 155 179
3 155 178 179
3 180 158 156
3 179 180 156
3 181 159 157
3 180 181 158
3 181 157 158
3 182 160 159
3 181 182 159
3 183 161 160
3 182 183 160
3 184 162 161
3 184 161 183
3 185 163 162
3 184 185 162
3 164 186 166
3 165 187 164
3 164 187 186
3 166 186 188
3 166 188 167
3 167 188 189
3 167 189 168
3 168 189 190
3 168 190 169
3 169 190 191
3 169 191 170
3 192 172 170
3 170 191 192
3 192 193 172
3 171 172 193
3 174 171 193
3 194 173 175
3 176 173 194
3 175 174 195
3 193 195 174
3 195 196 175
3 175 196 194
3 197 177 176
3 194 197 176
3 198 178 177
3 197 198 177
3 199 179 178
3 198 199 178
3 200 180 179
3 199 200 179
3 201 181 180
3 200 201 180
3 202 182 181
3 201 202 181
3 203 183 182
3 202 203 182
3 204 184 183
3 203 204 183
3 205 185 184
3 204 205 184
3 186 206 188
3 187 207 186
3 186 207 206
3 188 206 208
3 188 208 189
3 189 208 209
3 189 209 190
3 190 209 210
3 190 210 191
3 191 210 211
3 191 211 192
3 192 211 212
3 192 212 193
3 193 212 213
3 193 213 195
3 214 197 194
3 214 194 196
3 195 213 215
3 195 215 196
3 196 215 214
3 216 198 197
3 214 216 197
3 217 199 198
3 216 217 198
3 218 200 199
3 217 218 199
3 219 201 200
3 218 219 200
3 220 202 201
3 219 220 201
3 221 203 202
3 220 221 202
3 222 204 203
3 221 222 203
3 223 205 204
3 222 223 204
3 206 224 208
3 207 225 206
3 206 225 224
3 208 224 226
3 208 226 209
3 209 226 227
3 209 227 210
3 210 227 228
3 210 228 211
3 211 228 229
3 211 229 212
3 212 229 230
3 212 230 213
3 213 230 231
3 213 231 215
3 232 216 214
3 215 231 232
3 232 214 215
3 233 217 216
3 232 233 216
3 234 218 217
3 233 234 217
3 235 219 218
3 234 235 218
3 236 220 219
3 235 236 219
3 237 221 220
3 236 237 220
3 238 222 221
3 237 238 221
3 239 223 222
3 238 239 222
3 224 240 226
3 225 241 224
3 224 241 240
3 226 240 242
3 226 242 227
3 227 242 243
3 227 243 228
3 228 243 244
3 228 244 229
3 244 245 229
3 229 245 230
3 230 245 246
3 230 246 231
3 231 246 247
3 231 247 232
3 248 233 232
3 248 232 247
3 249 234 233
3 248 249 233
3 250 235 234
3 249 250 234
3 251 236 235
3 250 251 235
3 252 237 236
3 251 252 236
3 253 238 237
3 252 253 237
3 254 239 238
3 253 254 238
3 240 255 242
3 241 256 240
3 240 256 255
3 242 255 257
3 242 257 243
3 243 257 258
3 243 258 244
3 244 258 259
3 244 259 245
3 245 259 260
3 245 260 246
3 246 260 261
3 246 261 247
3 248 247 261
3 262 249 248
3 261 262 248
3 263 250 249
3 262 263 249
3 264 251 250
3 263 264 250
3 265 252 251
3 264 265 251
3 266 253 252
3 265 266 252
3 267 254 253
3 266 267 253
3 255 268 257
3 256 269 255
3 255 269 268
3 257 268 270
3 257 270 258
3 258 270 271
3 258 271 259
3 259 271 272
3 259 272 260
3 260 272 273
3 260 273 261
3 274 262 261
3 261 273 274
3 275 263 262
3 274 275 262
3 276 264 263
3 275 276 263
3 277 265 264
3 276 277 264
3 278 266 265
3 277 278 265
3 279 267 266
3 278 279 266
3 268 280 270
3 269 281 268
3 268 281 280
3 270 280 282
3 270 282 271
3 271 282 283
3 271 283 272
3 283 284 272
3 272 284 273
3 285 275 274
3 273 284 285
3 285 274 273
3 286 276 275
3 285 286 275
3 287 277 276
3 286 287 276
3 288 278 277
3 287 288 277
3 289 279 278
3 288 289 278
3 280 290 282
3 281 291 280
3 280 291 290
3 282 290 292
3 282 292 283
3 283 292 293
3 283 293 284
3 284 293 294
3 284 294 285
3 295 286 285
3 295 285 294
3 296 287 286
3 295 296 286
3 297 288 287
3 296 297 287
3 298 289 288
3 297 298 288
3 290 299 292
3 291 300 290
3 290 300 299
3 292 299 301
3 292 301 293
3 293 301 302
3 293 302 294
3 294 302 295
3 303 296 295
3 303 295 302
3 304 297 296
3 303 304 296
3 305 298 297
3 304 305 297
3 299 306 301
3 300 307 299
3 299 307 306
3 301 306 308
3 301 308 302
3 309 303 302
3 302 308 309
3 310 304 303
3 309 310 303
3 311 305 304
3 310 311 304
3 306 312 308
3 307 313 306
3 306 313 312
3 314 310 309
3 308 312 314
3 314 309 308
3 315 311 310
3 314 315 310
3 312 316 314
3 313 317 312
3 312 317 316
3 318 315 314
3 318 314 316
3 317 319 316
3 319 318 316
CELL_TYPES 578
5
5
5
5
5
5
5
5
5
5
5
5
5
5
5
5
5
5
5
5
5
5
5
5
5
5
5
5
5
5
5
5
5
5
5
5
5
5
5
5
5
5
5
5
5
5
5
5
5
5
5
5
5
5
5
5
5
5
5
5
5
5
5
5
5
5
5
5
5
5
5
5
5
5
5
5
5
5
5
5
5
5
5
5
5
5
5
5
5
5
5
5
5
5
5
5
5
5
5
5
5
5
5
5
5
5
5
5
5
5
5
5
5
5
5
5
5
5
5
5
5
5
5
5
5
5
5
5
5
5
5
5
5
5
5
5
5
5
5
5
5
5
5
5
5
5
5
5
5
5
5
5
5
5
5
5
5
5
5
5
5
5
5
5
5
5
5
5
5
5
5
5
5
5
5
5
5
5
5
5
5
5
5
5
5
5
5
5
5
5
5
5
5
5
5
5
5
5
5
5
5
5
5
5
5
5
5
5
5
5
5
5
5
5
5
5
5
5
5
5
5
5
5
5
5
5
5
5
5
5
5
5
5
5
5
5
5
5
5
5
5
5
5
5
5
5
5
5
5
5
5
5
5
5
5
5
5
5
5
5
5
5
5
5
5
5
5
5
5
5
5
5
5
5
5
5
5
5
5
5
5
5
5
5
5
5
5
5
5
5
5
5
5
5
5
5
5
5
5
5
5
5
5
5
5
5
5
5
5
5
5
5
5
5
5
5
5
5
5
5
5
5
5
5
5
5
5
5
5
5
5
5
5
5
5
5
5
5
5
5
5
5
5
5
5
5
5
5
5
5
5
5
5
5
5
5
5
5
5
5
5
5
5
5
5
5
5
5
5
5
5
5
5
5
5
5
5
5
5
5
5
5
5
5
5
5
5
5
5
5
5
5
5
5
5
5
5
5
5
5
5
5
5
5
5
5
5
5
5
5
5
5
5
5
5
5
5
5
5
5
5
5
5
5
5
5
5
5
5
5
5
5
5
5
5
5
5
5
5
5
5
5
5
5
5
5
5
5
5
5
5
5
5
5
5
5
5
5
5
5
5
5
5
5
5
5
5
5
5
5
5
5
5
5
5
5
5
5
5
5
5
5
5
5
5
5
5
5
5
5
5
5
5
5
5
5
5
5
5
5
5
5
5
5
5
5
5
5
5
5
5
5
5
5
5
5
5
5
5
5
5
5
5
5
5
5
5
5
5
5
5
5
5
5
5
5
5
5
5
5
5
5
5
5
5
5
5
5
5
5
5
5
5
5
5
5
5
5
5
5
5
5
5
5
5
5
5
5
5
5
5
5
5
5
5
5
5
5
POINT_DATA 320
SCALARS theta_e float 1
LOOKUP_TABLE default
1.000000
1.000000
1.000000
1.000000
1.000000
1.000000
1.000000
1.000000
1.000000
1.000000
1.000000
1.000000
1.000000
1.000000
1.000000
1.000000
1.000000
1.000000
1.000000
1.000000
1.000000
1.000000
1.000000
1.000000
1.000000
1.000000
1.000000
1.000000
1.000000
1.000000
1.000000
1.000000
1.000000
1.000000
1.000000
1.000000
1.000000
1.000000
1.000000
1.000000
1.000000
1.000000
1.000000
1.000000
1.000000
1.000000
1.000000
1.000000
1.000000
1.000000
1.000000
1.000000
1.000000
1.000000
1.000000
1.000000
1.000000
1.000000
1.000000
1.000000
1.000000
1.000000
1.000000
1.000000
1.000000
1.000000
1.000000
1.000000
1.000000
1.000000
1.000000
1.000000
1.000000
1.000000
1.000000
1.000000
1.000000
1.000000
1.000000
1.000000
1.000000
1.000000
1.000000
1.000000
1.000000
1.000000
1.000000
1.000000
1.000000
1.000000
1.000000
1.000000
1.000000
1.000000
1.000000
1.000000
1.000000
1.000000
1.000000
1.000000
1.000000
1.000000
1.000000
1.000000
1.000000
1.000000
1.000000
1.000000
1.000000
1.000000
1.000000
1.000000
1.000000
1.000000
1.000000
1.000000
1.000000
1.000000
1.000000
1.000000
1.000000
1.000000
1.000000
1.000000
1.000000
1.000000
1.000000
1.000000
1.000000
1.000000
1.000000
1.000000
1.000000
1.000000
1.000000
1.000000
1.000000
1.000000
1.000000
1.000000
1.000000
1.000000
1.000000
1.000000
1.000000
1.000000
1.000000
1.000000
1.000000
0.999999
0.999998
0.999999
0.999999
1.000000
1.000000
1.000000
1.000000
1.000000
1.000000
1.000000
1.000000
1.000000
1.000000
1.000000
1.000000
1.000000
1.000000
1.000000
1.000000
1.000000
1.000000
1.000000
1.000000
0.999997
0.999999
0.999997
0.999998
1.000000
1.000000
1.000000
1.000000
1.000000
1.000000
1.000000
1.000000
1.000000
1.000000
1.000000
1.000000
1.000000
1.000000
1.000000
1.000000
1.000000
0.999998
0.999998
0.999997
0.999999
1.000000
1.000000
1.000000
1.000000
1.000000
1.000000
1.000000
1.000000
1.000000
1.000000
1.000000
1.000000
1.000000
1.000000
1.000000
1.000000
0.999998
0.999999
1.000000
1.000000
1.000000
1.000000
1.000000
1.000000
1.000000
1.000000
1.000000
1.000000
1.000000
1.000000
1.000000
1.000000
1.000000
1.000000
1.000000
1.000000
1.000000
1.000000
1.000000
1.000000
1.000000
1.000000
1.000000
1.000000
1.000000
1.000000
1.000000
1.000000
1.000000
1.000000
1.000000
1.000000
1.000000
1.000000
1.000000
1.000000
1.000000
1.000000
1.000000
1.000000
1.000000
1.000000
1.000000
1.000000
1.000000
1.000000
1.000000
1.000000
1.000000
1.000000
1.000000
1.000000
1.000000
1.000000
1.000000
1.000000
1.000000
1.000000
1.000000
1.000000
1.000000
1.000000
1.000000
1.000000
1.000000
1.000000
1.000000
1.000000
1.000000
1.000000
1.000000
1.000000
1.000000
1.000000
1.000000
1.000000
1.000000
1.000000
1.000000
1.000000
1.000000
1.000000
1.000000
1.000000
1.000000
1.000000
1.000000
1.000000
1.000000
1.000000
1.000000
1.000000
1.000000
1.000000
1.000000
1.000000
1.000000
1.000000
1.000000
1.000000
1.000000
1.000000
VECTORS fa_u float
0.000000 0.000000 0.000000
0.000000 0.000000 0.000000
0.000000 0.000000 0.000000
0.000000 0.000000 0.000000
0.000000 0.000000 0.000000
0.000000 0.000000 0.000000
0.000000 0.000000 0.000000
0.000000 0.000000 0.000000
0.000000 0.000000 0.000000
0.000000 0.000000 0.000000
0.000000 0.000000 0.000000
0.000000 0.000000 0.000000
0.000000 0.000000 0.000000
0.000000 0.000000 0.000000
0.000000 0.000000 0.000000
0.000000 0.000000 0.000000
0.000000 0.000000 0.000000
0.000000 0.000000 0.000000
0.000000 0.000000 0.000000
0.000000 0.000000 0.000000
0.000000 0.000000 0.000000
0.000000 0.000000 0.000000
0.000000 0.000000 0.000000
0.000000 0.000000 0.000000
0.000000 0.000000 0.000000
0.000000 0.000000 0.000000
0.000000 0.000000 0.000000
0.000000 0.000000 0.000000
0.000000 0.000000 0.000000
0.000000 0.000000 0.000000
0.000000 0.000000 0.000000
0.000000 0.000000 0.000000
0.000000 0.000000 0.000000
0.000000 0.000000 0.000000
0.000000 0.000000 0.000000
0.000000 0.000000 0.000000
0.000000 0.000000 0.000000
0.000000 0.000000 0.000000
0.000000 0.000000 0.000000
0.000000 0.000000 0.000000
0.000000 0.000000 0.000000
0.000000 0.000000 0.000000
0.000000 0.000000 0.000000
0.000000 0.000000 0.000000
0.000000 0.000000 0.000000
0.000000 0.000000 0.000000
0.000000 0.000000 0.000000
0.000000 0.000000 0.000000
0.000000 0.000000 0.000000
0.000000 0.000000 0.000000
0.000000 0.000000 0.000000
0.000000 0.000000 0.000000
0.000000 0.000000 0.000000
0.000000 0.000000 0.000000
0.000000 0.000000 0.000000
0.000000 0.000000 0.000000
0.000000 0.000000 0.000000
0.000000 0.000000 0.000000
0.000000 0.000000 0.000000
0.000000 0.000000 0.000000
0.000000 0.000000 0.000000
0.000000 0.000000 0.000000
0.000000 0.000000 0.000000
0.000000 0.000000 0.000000
0.000000 0.000000 0.000000
0.000000 0.000000 0.000000
0.000000 0.000000 0.000000
0.000000 0.000000 0.000000
0.000000 0.000000 0.000000
0.000000 0.000000 0.000000
0.000000 0.000000 0.000000
0.000000 0.000000 0.000000
0.000000 0.000000 0.000000
0.000000 0.000000 0.000000
0.000000 0.000000 0.000000
0.000000 0.000000 0.000000
0.000000 0.000000 0.000000
0.000000 0.000000 0.000000
0.000000 0.000000 0.000000
0.000000 0.000000 0.000000
0.000000 0.000000 0.000000
0.000000 0.000000 0.000000
0.000000 0.000000 0.000000
0.000000 0.000000 0.000000
0.000000 0.000000 0.000000
0.000000 0.000000 0.000000
0.000000 0.000000 0.000000
0.000000 0.000000 0.000000
0.000000 0.000000 0.000000
0.000000 0.000000 0.000000
0.000000 0.000000 0.000000
0.000000 0.000000 0.000000
0.000000 0.000000 0.000000
0.000000 0.000000 0.000000
0.000000 0.000000 0.000000
0.000000 0.000000 0.000000
0.000000 0.000000 0.000000
0.000000 0.000000 0.000000
0.000000 0.000000 0.000000
0.000000 0.000000 0.000000
0.000000 0.000000 0.000000
0.000000 0.000000 0.000000
0.000000 0.000000 0.000000
0.000000 0.000000 0.000000
0.000000 0.000000 0.000000
0.000000 0.000000 0.000000
0.000000 0.000000 0.000000
0.000000 0.000000 0.000000
0.000000 0.000000 0.000000
0.000000 0.000000 0.000000
0.000000 0.000000 0.000000
0.000000 0.000000 0.000000
0.000000 0.000000 0.000000
0.000000 0.000000 0.000000
0.000000 0.000000 0.000000
0.000000 0.000000 0.000000
0.000000 0.000000 0.000000
0.000000 0.000000 0.000000
0.000000 0.000000 0.000000
0.000000 0.000000 0.000000
0.000000 0.000000 0.000000
0.000000 0.000000 0.000000
0.000000 0.000000 0.000000
0.000000 0.000000 0.000000
0.000000 0.000000 0.000000
0.000000 0.000000 0.000000
0.000000 0.000000 0.000000
0.000000 0.000000 0.000000
0.000000 0.000000 0.000000
0.000000 0.000000 0.000000
0.000000 0.000000 0.000000
0.000000 0.000000 0.000000
0.000000 0.000000 0.000000
0.000000 0.000000 0.000000
0.000000 0.000000 0.000000
0.000000 0.000000 0.000000
0.000000 0.000000 0.000000
0.000000 0.000000 0.000000
0.000000 0.000000 0.000000
0.000000 0.000000 0.000000
0.000000 0.000000 0.000000
0.000000 0.000000 0.000000
0.000000 0.000000 0.000000
0.000000 0.000000 0.000000
0.000000 0.000000 0.000000
0.000000 0.000000 0.000000
0.000000 0.000000 0.000000
0.000000 0.000000 0.000000
0.000000 0.000000 0.000000
0.000000 0.000000 0.000000
0.000000 0.000000 0.000000
0.000000 0.000000 0.000000
0.000000 0.000000 0.000000
0.000000 0.000000 0.000000
0.000000 0.000000 0.000000
0.000000 0.000000 0.000000
0.000000 0.000000 0.000000
0.000000 0.000000 0.000000
0.000000 0.000000 0.000000
0.000000 0.000000 0.000000
0.000000 0.000000 0.000000
0.000000 0.000000 0.000000
0.000000 0.000000 0.000000
0.000000 0.000000 0.000000
0.000000 0.000000 0.000000
0.000000 0.000000 0.000000
0.000000 0.000000 0.000000
0.000000 0.000000 0.000000
0.000000 0.000000 0.000000
0.000000 0.000000 0.000000
0.000000 0.000000 0.000000
0.000000 0.000000 0.000000
0.000000 0.000000 0.000000
0.000000 0.000000 0.000000
0.000000 0.000000 0.000000
0.000000 0.000000 0.000000
0.000000 0.000000 0.000000
0.000000 0.000000 0.000000
0.000000 0.000000 0.000000
0.000000 0.000000 0.000000
0.000000 0.000000 0.000000
0.000000 0.000000 0.000000
0.000000 0.000000 0.000000
0.000000 0.000000 0.000000
0.000000 0.000000 0.000000
0.000000 0.000000 0.000000
0.000000 0.000000 0.000000
0.000000 0.000000 0.000000
0.000000 0.000000 0.000000
0.000000 0.000000 0.000000
0.000000 0.000000 0.000000
0.000000 0.000000 0.000000
0.000000 0.000000 0.000000
0.000000 0.000000 0.000000
0.000000 0.000000 0.000000
0.000000 0.000000 0.000000
0.000000 0.000000 0.000000
0.000000 0.000000 0.000000
0.000000 0.000000 0.000000
0.000000 0.000000 0.000000
0.000000 0.000000 0.000000
0.000000 0.000000 0.000000
0.000000 0.000000 0.000000
0.000000 0.000000 0.000000
0.000000 0.000000 0.000000
0.000000 0.000000 0.000000
0.000000 0.000000 0.000000
0.000000 0.000000 0.000000
0.000000 0.000000 0.000000
0.000000 0.000000 0.000000
0.000000 0.000000 0.000000
0.000000 0.000000 0.000000
0.000000 0.000000 0.000000
0.000000 0.000000 0.000000
0.000000 0.000000 0.000000
0.000000 0.000000 0.000000
0.000000 0.000000 0.000000
0.000000 0.000000 0.000000
0.000000 0.000000 0.000000
0.000000 0.000000 0.000000
0.000000 0.000000 0.000000
0.000000 0.000000 0.000000
0.000000 0.000000 0.000000
0.000000 0.000000 0.000000
0.000000 0.000000 0.000000
0.000000 0.000000 0.000000
0.000000 0.000000 0.000000
0.000000 0.000000 0.000000
0.000000 0.000000 0.000000
0.000000 0.000000 0.000000
0.000000 0.000000 0.000000
0.000000 0.000000 0.000000
0.000000 0.000000 0.000000
0.000000 0.000000 0.000000
0.000000 0.000000 0.000000
0.000000 0.000000 0.000000
0.000000 0.000000 0.000000
0.000000 0.000000 0.000000
0.000000 0.000000 0.000000
0.000000 0.000000 0.000000
0.000000 0.000000 0.000000
0.000000 0.000000 0.000000
0.000000 0.000000 0.000000
0.000000 0.000000 0.000000
0.000000 0.000000 0.000000
0.000000 0.000000 0.000000
0.000000 0.000000 0.000000
0.000000 0.000000 0.000000
0.000000 0.000000 0.000000
0.000000 0.000000 0.000000
0.000000 0.000000 0.000000
0.000000 0.000000 0.000000
0.000000 0.000000 0.000000
0.000000 0.000000 0.000000
0.000000 0.000000 0.000000
0.000000 0.000000 0.000000
0.000000 0.000000 0.000000
0.000000 0.000000 0.000000
0.000000 0.000000 0.000000
0.000000 0.000000 0.000000
0.000000 0.000000 0.000000
0.000000 0.000000 0.000000
0.000000 0.000000 0.000000
0.000000 0.000000 0.000000
0.000000 0.000000 0.000000
0.000000 0.000000 0.000000
0.000000 0.000000 0.000000
0.000000 0.000000 0.000000
0.000000 0.000000 0.000000
0.000000 0.000000 0.000000
0.000000 0.000000 0.000000
0.000000 0.000000 0.000000
0.000000 0.000000 0.000000
0.000000 0.000000 0.000000
0.000000 0.000000 0.000000
0.000000 0.000000 0.000000
0.000000 0.000000 0.000000
0.000000 0.000000 0.000000
0.000000 0.000000 0.000000
0.000000 0.000000 0.000000
0.000000 0.000000 0.000000
0.000000 0.000000 0.000000
0.000000 0.000000 0.000000
0.000000 0.000000 0.000000
0.000000 0.000000 0.000000
0.000000 0.000000 0.000000
0.000000 0.000000 0.000000
0.000000 0.000000 0.000000
0.000000 0.000000 0.000000
0.000000 0.000000 0.000000
0.000000 0.000000 0.000000
0.000000 0.000000 0.000000
0.000000 0.000000 0.000000
0.000000 0.000000 0.000000
0.000000 0.000000 0.000000
0.000000 0.000000 0.000000
0.000000 0.000000 -50.000000
-50.000000 0.000000 -50.000000
-43.332115 0.000000 -45.688696
-45.491398 0.000000 -43.331951
-50.000000 0.000000 -50.000000
-36.664158 0.000000 -36.664252
-50.000000 0.000000 -45.081452
-39.969959 0.000000 -40.027675
-44.152534 0.000000 -29.996466
-50.000000 0.000000 -50.000000
-29.996320 0.000000 -44.847412
-33.449061 0.000000 -33.145306
-44.675966 0.000000 -39.869541
-36.787176 0.000000 -35.129157
-39.801645 0.000000 -23.329168
-50.000000 0.000000 -26.539581
-44.666871 0.000000 -50.000000
-23.329037 0.000000 -44.665407
-26.804129 0.000000 -39.364542
-30.225882 0.000000 -29.606842
-39.359628 0.000000 -33.368807
-33.655756 0.000000 -50.000000
-16.662551 0.000000 -16.662767
-50.000000 0.000000 -9.997269
