# vtk DataFile Version 2.0
CellBP Time: 2.52
ASCII
DATASET UNSTRUCTURED_GRID
POINTS 320 double
-50.000000 -50.000000 0.000000
-50.000000 -43.332930 0.000000
-45.688403 -45.491159 0.000000
-43.332870 -50.000000 0.000000
-50.000000 -36.665837 0.000000
-36.665856 -50.000000 0.000000
-45.081138 -39.969792 0.000000
-40.027216 -44.152285 0.000000
-29.998811 -50.000000 0.000000
-50.000000 -29.998783 0.000000
-44.847104 -33.448919 0.000000
-33.144939 -44.675695 0.000000
-39.869148 -36.786994 0.000000
-35.128685 -39.801313 0.000000
-23.331925 -50.000000 0.000000
-26.539184 -44.666744 0.000000
-50.000000 -23.331909 0.000000
-44.665278 -26.803929 0.000000
-39.364254 -30.225682 0.000000
-29.606306 -39.359366 0.000000
-33.368265 -33.655450 0.000000
-50.000000 -16.665296 0.000000
-16.665339 -50.000000 0.000000
-9.999060 -50.000000 0.000000
-19.964926 -44.588758 0.000000
-23.215919 -39.114683 0.000000
-44.691875 -20.096920 0.000000
-39.367851 -23.528144 0.000000
-34.106145 -26.937009 0.000000
-26.384444 -33.577258 0.000000
-29.156223 -28.926620 0.000000
-50.000000 -9.998915 0.000000
-44.666347 -13.410195 0.000000
-50.000000 -3.332823 0.000000
-3.333033 -50.000000 0.000000
3.332931 -50.000000 0.000000
-13.343693 -44.599014 0.000000
-6.684752 -44.610684 0.000000
-16.693735 -39.153265 0.000000
-20.106999 -33.342651 0.000000
-39.338157 -16.804748 0.000000
-34.018711 -20.274642 0.000000
-28.780960 -23.449050 0.000000
-23.510517 -27.350322 0.000000
-44.635439 -6.705566 0.000000
-39.293074 -10.101818 0.000000
-50.000000 3.333117 0.000000
-44.626740 -0.015614 0.000000
9.999018 -50.000000 0.000000
16.665349 -50.000000 0.000000
-0.016130 -44.618758 0.000000
6.651622 -44.635446 0.000000
-10.044740 -39.222581 0.000000
-3.368246 -39.220370 0.000000
-13.484277 -33.798681 0.000000
-16.709467 -28.271464 0.000000
-33.948033 -13.513998 0.000000
-28.601887 -16.892329 0.000000
-23.291726 -20.313019 0.000000
-18.660445 -23.283120 0.000000
-39.267508 -3.392819 0.000000
-33.904532 -6.796765 0.000000
-50.000000 9.999113 0.000000
-44.606753 6.673427 0.000000
-39.260908 3.325661 0.000000
-50.000000 16.665375 0.000000
23.331932 -50.000000 0.000000
29.998768 -50.000000 0.000000
13.317451 -44.662969 0.000000
19.989582 -44.700113 0.000000
3.307650 -39.245138 0.000000
9.971787 -39.290315 0.000000
-6.735368 -33.791350 0.000000
-0.032289 -33.829570 0.000000
-10.095941 -28.293193 0.000000
-13.122750 -22.897709 0.000000
-28.532338 -10.214813 0.000000
-23.066927 -13.663384 0.000000
-16.977717 -17.210042 0.000000
-33.884638 -0.065467 0.000000
-28.563097 -3.579201 0.000000
-44.564118 13.380488 0.000000
-39.190072 10.015042 0.000000
-33.905731 6.616002 0.000000
-50.000000 23.331871 0.000000
-44.557613 20.138196 0.000000
-50.000000 29.998820 0.000000
36.665791 -50.000000 0.000000
43.332877 -50.000000 0.000000
26.663204 -44.745309 0.000000
33.315266 -44.875972 0.000000
16.631639 -39.357691 0.000000
23.328227 -39.437097 0.000000
6.642832 -33.879520 0.000000
13.290676 -33.965453 0.000000
-3.345814 -28.363099 0.000000
3.357401 -28.451244 0.000000
-6.626051 -22.845741 0.000000
-9.968056 -17.314988 0.000000
-23.183732 -7.014657 0.000000
-17.811535 -10.334824 0.000000
-12.837646 -12.595845 0.000000
-28.607467 3.088540 0.000000
-23.265355 -0.468733 0.000000
-39.038869 16.746419 0.000000
-28.720968 9.926218 0.000000
-33.761424 13.318305 0.000000
-44.521692 26.716933 0.000000
-38.467754 23.892533 0.000000
-44.632350 33.085581 0.000000
-50.000000 36.666005 0.000000
-50.000000 43.332985 0.000000
39.922360 -45.069598 0.000000
45.474692 -45.660462 0.000000
50.000000 -50.000000 0.000000
36.626764 -39.981964 0.000000
30.012327 -39.458610 0.000000
19.904169 -34.092807 0.000000
26.585003 -34.319491 0.000000
9.988687 -28.513278 0.000000
16.610817 -28.660021 0.000000
0.051592 -22.960372 0.000000
6.812143 -23.157332 0.000000
-3.399878 -17.297089 0.000000
-6.845725 -10.981901 0.000000
-17.876853 -3.823683 0.000000
-12.551989 -7.035217 0.000000
-23.309818 6.072246 0.000000
-18.036443 2.449795 0.000000
-23.122544 12.095774 0.000000
-33.572119 19.788915 0.000000
-27.941429 16.885640 0.000000
-33.292901 24.722722 0.000000
-39.473600 30.052832 0.000000
-35.160373 28.137511 0.000000
-39.816020 35.101422 0.000000
-43.991702 39.982240 0.000000
-45.431027 45.685183 0.000000
-50.000000 50.000000 0.000000
44.117242 -39.899016 0.000000
50.000000 -43.332736 0.000000
39.639416 -35.047410 0.000000
33.462867 -33.424542 0.000000
22.984857 -28.817970 0.000000
28.730949 -29.247797 0.000000
13.460703 -23.121762 0.000000
20.054820 -23.439080 0.000000
3.381165 -17.587993 0.000000
10.125758 -17.841021 0.000000
0.150368 -11.939783 0.000000
-2.145456 -6.233555 0.000000
-7.330030 -3.661483 0.000000
-12.569495 -0.804646 0.000000
-18.165852 8.573083 0.000000
-12.955553 5.196506 0.000000
-18.638899 13.751733 0.000000
-21.504400 17.494769 0.000000
-28.940793 23.158579 0.000000
-24.346298 21.554571 0.000000
-30.323580 28.634846 0.000000
-34.253464 33.375533 0.000000
-36.955938 39.578065 0.000000
-39.838679 45.102764 0.000000
-43.332867 50.000000 0.000000
44.585234 -32.972068 0.000000
50.000000 -36.665656 0.000000
39.129290 -29.581839 0.000000
33.500574 -26.367659 0.000000
27.182847 -23.322116 0.000000
23.066182 -18.647837 0.000000
16.990219 -16.980500 0.000000
6.707415 -12.208009 0.000000
12.358713 -12.734185 0.000000
-3.379042 -1.491366 0.000000
3.893353 -6.947785 0.000000
1.022874 -2.120729 0.000000
-6.965609 2.309911 0.000000
-8.377130 7.776687 0.000000
-12.845152 11.931410 0.000000
-15.692168 17.699987 0.000000
-19.287288 22.982424 0.000000
-24.170975 27.354746 0.000000
-27.286324 33.626001 0.000000
-30.406656 39.161191 0.000000
-33.447799 44.738857 0.000000
-36.665764 50.000000 0.000000
44.547722 -26.499888 0.000000
50.000000 -29.998603 0.000000
39.040012 -23.179267 0.000000
33.449710 -19.899980 0.000000
28.039963 -16.574110 0.000000
22.682367 -13.124119 0.000000
17.176264 -9.906934 0.000000
10.889930 -6.625580 0.000000
-1.354015 2.311463 0.000000
6.197101 -1.731482 0.000000
2.902821 1.598660 0.000000
-3.515778 7.125322 0.000000
-6.312645 12.439450 0.000000
-9.629399 17.704690 0.000000
-13.167160 23.112944 0.000000
-17.316638 28.185157 0.000000
-20.570717 33.474369 0.000000
-23.665917 39.063986 0.000000
-26.830905 44.585367 0.000000
-29.998821 50.000000 0.000000
44.528697 -19.930627 0.000000
50.000000 -23.331752 0.000000
39.036314 -16.594095 0.000000
33.576203 -13.281230 0.000000
28.150314 -9.964961 0.000000
22.725608 -6.604639 0.000000
17.264562 -3.336700 0.000000
11.948728 0.199672 0.000000
1.924010 6.266711 0.000000
6.966411 3.800964 0.000000
-0.217008 11.912249 0.000000
-3.262930 17.530190 0.000000
-6.700435 22.977613 0.000000
-10.567728 28.267459 0.000000
-13.723993 33.661367 0.000000
-16.945668 39.080342 0.000000
-20.140569 44.548444 0.000000
-23.332040 50.000000 0.000000
44.536282 -13.303741 0.000000
50.000000 -16.665198 0.000000
39.079912 -9.966709 0.000000
33.646737 -6.641085 0.000000
28.236164 -3.307610 0.000000
22.847235 0.018012 0.000000
17.535422 3.355657 0.000000
12.203783 6.593036 0.000000
6.704646 10.806115 0.000000
3.301553 17.196716 0.000000
-0.081316 22.852134 0.000000
-3.518630 28.312714 0.000000
-6.831375 33.774397 0.000000
-10.137403 39.170547 0.000000
-13.435739 44.563552 0.000000
-16.665508 50.000000 0.000000
44.554338 -6.654768 0.000000
50.000000 -9.998970 0.000000
39.123375 -3.321358 0.000000
33.713399 0.008753 0.000000
28.333226 3.344232 0.000000
23.001268 6.693831 0.000000
17.832814 10.022066 0.000000
12.655949 12.231592 0.000000
9.789073 17.234361 0.000000
6.478189 22.722408 0.000000
3.188805 28.269702 0.000000
-0.115946 33.734746 0.000000
-3.425205 39.168597 0.000000
-6.725453 44.581823 0.000000
-9.999202 50.000000 0.000000
44.575657 0.001870 0.000000
50.000000 -3.332994 0.000000
39.166864 3.331862 0.000000
33.779309 6.655565 0.000000
28.424112 9.994986 0.000000
23.046366 13.416426 0.000000
16.948867 17.022767 0.000000
12.901613 22.669795 0.000000
9.814856 28.232110 0.000000
6.604202 33.718741 0.000000
3.286523 39.164422 0.000000
-0.029903 44.584580 0.000000
-3.333077 50.000000 0.000000
44.586736 6.665498 0.000000
50.000000 3.332953 0.000000
39.198077 9.981922 0.000000
33.843407 13.277038 0.000000
28.541918 16.584720 0.000000
23.386911 20.084347 0.000000
18.531775 23.112448 0.000000
16.393130 28.298688 0.000000
13.328918 33.754780 0.000000
9.986541 39.181961 0.000000
6.665967 44.584355 0.000000
3.332992 50.000000 0.000000
44.608902 13.317924 0.000000
50.000000 9.999064 0.000000
39.251348 16.612438 0.000000
33.931865 19.862865 0.000000
28.612294 22.925998 0.000000
23.279613 27.207571 0.000000
19.901302 33.303068 0.000000
16.573788 39.040942 0.000000
13.268336 44.526756 0.000000
9.999097 50.000000 0.000000
44.632072 19.972982 0.000000
50.000000 16.665422 0.000000
39.298481 23.262133 0.000000
34.043786 26.514729 0.000000
28.965755 28.539460 0.000000
26.202368 33.410128 0.000000
23.066713 38.968830 0.000000
19.888578 44.507061 0.000000
16.665371 50.000000 0.000000
44.639805 26.642922 0.000000
50.000000 23.332014 0.000000
39.293362 29.966706 0.000000
33.212385 33.371279 0.000000
29.412124 39.045851 0.000000
26.422388 44.505972 0.000000
23.331928 50.000000 0.000000
44.774990 33.291801 0.000000
50.000000 29.998835 0.000000
39.738187 36.596312 0.000000
34.831056 39.525630 0.000000
32.833829 44.514297 0.000000
29.998743 50.000000 0.000000
44.978253 39.877868 0.000000
50.000000 36.665832 0.000000
39.734889 43.969038 0.000000
36.665751 50.000000 0.000000
45.621307 45.409814 0.000000
50.000000 43.332893 0.000000
43.332787 50.000000 0.000000
50.000000 50.000000 0.000000
CELLS 578 2312
3 1 0 2
3 0 3 2
3 4 1 6
3 6 1 2
3 3 5 7
3 3 7 2
3 6 2 7
3 9 4 10
3 10 4 6
3 5 8 11
3 7 5 11
3 10 6 12
3 12 6 7
3 7 11 13
3 7 13 12
3 8 14 15
3 11 8 15
3 16 9 17
3 17 9 10
3 17 10 18
3 18 10 12
3 11 15 19
3 13 11 19
3 18 12 20
3 13 19 20
3 20 12 13
3 14 22 24
3 15 14 24
3 15 24 25
3 19 15 25
3 21 16 26
3 26 16 17
3 26 17 27
3 27 17 18
3 27 18 28
3 28 18 20
3 19 25 29
3 19 29 20
3 28 20 30
3 30 20 29
3 31 21 32
3 32 21 26
3 22 23 36
3 24 22 36
3 23 34 37
3 36 23 37
3 24 36 38
3 25 24 38
3 25 38 39
3 29 25 39
3 32 26 40
3 40 26 27
3 40 27 41
3 41 27 28
3 41 28 42
3 42 28 30
3 29 39 43
3 29 43 30
3 42 30 43
3 33 31 44
3 44 31 32
3 44 32 45
3 45 32 40
3 46 33 47
3 47 33 44
3 34 35 50
3 37 34 50
3 35 48 51
3 50 35 51
3 36 37 52
3 38 36 52
3 37 50 53
3 52 37 53
3 38 52 54
3 39 38 54
3 39 54 55
3 43 39 55
3 45 40 56
3 56 40 41
3 56 41 57
3 57 41 42
3 57 42 58
3 58 42 43
3 43 55 59
3 43 59 58
3 47 44 60
3 60 44 45
3 60 45 61
3 61 45 56
3 62 46 63
3 63 46 47
3 63 47 64
3 64 47 60
3 48 49 68
3 51 48 68
3 49 66 69
3 68 49 69
3 50 51 70
3 53 50 70
3 51 68 71
3 70 51 71
3 52 53 72
3 54 52 72
3 53 70 73
3 72 53 73
3 54 72 74
3 55 54 74
3 55 74 75
3 59 55 75
3 61 56 76
3 76 56 57
3 76 57 77
3 77 57 58
3 77 58 78
3 59 75 78
3 78 58 59
3 64 60 79
3 79 60 61
3 79 61 80
3 80 61 76
3 65 62 81
3 81 62 63
3 81 63 82
3 82 63 64
3 82 64 83
3 83 64 79
3 84 65 85
3 85 65 81
3 66 67 89
3 69 66 89
3 67 87 90
3 89 67 90
3 68 69 91
3 71 68 91
3 69 89 92
3 91 69 92
3 70 71 93
3 73 70 93
3 71 91 94
3 93 71 94
3 72 73 95
3 74 72 95
3 73 93 96
3 95 73 96
3 74 95 97
3 75 74 97
3 75 97 98
3 78 75 98
3 80 76 99
3 99 76 77
3 99 77 100
3 100 77 78
3 100 78 101
3 98 101 78
3 83 79 102
3 102 79 80
3 102 80 103
3 103 80 99
3 85 81 104
3 104 81 82
3 105 83 102
3 104 82 106
3 106 82 83
3 106 83 105
3 86 84 107
3 107 84 85
3 107 85 108
3 108 85 104
3 109 86 107
3 110 86 109
3 87 88 112
3 90 87 112
3 112 88 113
3 88 114 113
3 90 112 115
3 89 90 116
3 92 89 116
3 116 90 115
3 91 92 117
3 94 91 117
3 92 116 118
3 117 92 118
3 93 94 119
3 96 93 119
3 94 117 120
3 119 94 120
3 95 96 121
3 97 95 121
3 96 119 122
3 121 96 122
3 97 121 123
3 98 97 123
3 98 123 124
3 98 124 101
3 103 99 125
3 125 99 100
3 125 100 126
3 126 100 101
3 126 101 124
3 105 102 127
3 127 102 103
3 127 103 128
3 128 103 125
3 129 105 127
3 108 104 130
3 130 104 106
3 130 106 131
3 131 106 105
3 131 105 129
3 108 130 132
3 109 107 133
3 133 107 108
3 133 108 134
3 108 132 134
3 135 109 133
3 111 110 136
3 136 110 109
3 136 109 135
3 137 111 136
3 138 111 137
3 112 113 139
3 115 112 139
3 114 140 113
3 140 139 113
3 139 141 115
3 116 115 142
3 118 116 142
3 142 115 141
3 117 118 143
3 120 117 143
3 118 142 144
3 143 118 144
3 119 120 145
3 122 119 145
3 120 143 146
3 145 120 146
3 121 122 147
3 123 121 147
3 122 145 148
3 147 122 148
3 123 147 149
3 124 123 149
3 124 149 150
3 151 126 124
3 124 150 151
3 128 125 152
3 152 125 126
3 152 126 151
3 129 127 153
3 153 127 128
3 128 152 154
3 153 128 154
3 155 129 153
3 131 129 156
3 156 129 155
3 132 130 157
3 130 131 157
3 157 131 158
3 131 156 158
3 132 157 159
3 132 159 134
3 135 133 160
3 160 133 134
3 160 134 159
3 136 135 161
3 135 160 161
3 162 137 136
3 161 162 136
3 163 138 137
3 162 163 137
3 139 164 141
3 140 165 139
3 139 165 164
3 141 164 166
3 141 166 142
3 166 167 142
3 144 142 167
3 167 168 144
3 143 144 168
3 146 143 168
3 168 169 146
3 145 146 170
3 148 145 170
3 170 146 169
3 147 148 171
3 149 147 171
3 148 170 172
3 171 148 172
3 173 151 150
3 149 171 174
3 150 149 174
3 150 174 175
3 150 175 173
3 154 152 176
3 152 151 176
3 176 151 173
3 154 176 177
3 155 153 178
3 177 178 154
3 154 178 153
3 156 155 179
3 155 178 179
3 180 158 156
3 179 180 156
3 181 159 157
3 180 181 158
3 181 157 158
3 182 160 159
3 181 182 159
3 183 161 160
3 182 183 160
3 184 162 161
3 184 161 183
3 185 163 162
3 184 185 162
3 164 186 166
3 165 187 164
3 164 187 186
3 166 186 188
3 166 188 167
3 167 188 189
3 167 189 168
3 168 189 190
3 168 190 169
3 169 190 191
3 169 191 170
3 192 172 170
3 170 191 192
3 192 193 172
3 171 172 193
3 174 171 193
3 194 173 175
3 176 173 194
3 175 174 195
3 193 195 174
3 195 196 175
3 175 196 194
3 197 177 176
3 194 197 176
3 198 178 177
3 197 198 177
3 199 179 178
3 198 199 178
3 200 180 179
3 199 200 179
3 201 181 180
3 200 201 180
3 202 182 181
3 201 202 181
3 203 183 182
3 202 203 182
3 204 184 183
3 203 204 183
3 205 185 184
3 204 205 184
3 186 206 188
3 187 207 186
3 186 207 206
3 188 206 208
3 188 208 189
3 189 208 209
3 189 209 190
3 190 209 210
3 190 210 191
3 191 210 211
3 191 211 192
3 192 211 212
3 192 212 193
3 193 212 213
3 193 213 195
3 214 197 194
3 214 194 196
3 195 213 215
3 195 215 196
3 196 215 214
3 216 198 197
3 214 216 197
3 217 199 198
3 216 217 198
3 218 200 199
3 217 218 199
3 219 201 200
3 218 219 200
3 220 202 201
3 219 220 201
3 221 203 202
3 220 221 202
3 222 204 203
3 221 222 203
3 223 205 204
3 222 223 204
3 206 224 208
3 207 225 206
3 206 225 224
3 208 224 226
3 208 226 209
3 209 226 227
3 209 227 210
3 210 227 228
3 210 228 211
3 211 228 229
3 211 229 212
3 212 229 230
3 212 230 213
3 213 230 231
3 213 231 215
3 232 216 214
3 215 231 232
3 232 214 215
3 233 217 216
3 232 233 216
3 234 218 217
3 233 234 217
3 235 219 218
3 234 235 218
3 236 220 219
3 235 236 219
3 237 221 220
3 236 237 220
3 238 222 221
3 237 238 221
3 239 223 222
3 238 239 222
3 224 240 226
3 225 241 224
3 224 241 240
3 226 240 242
3 226 242 227
3 227 242 243
3 227 243 228
3 228 243 244
3 228 244 229
3 244 245 229
3 229 245 230
3 230 245 246
3 230 246 231
3 231 246 247
3 231 247 232
3 248 233 232
3 248 232 247
3 249 234 233
3 248 249 233
3 250 235 234
3 249 250 234
3 251 236 235
3 250 251 235
3 252 237 236
3 251 252 236
3 253 238 237
3 252 253 237
3 254 239 238
3 253 254 238
3 240 255 242
3 241 256 240
3 240 256 255
3 242 255 257
3 242 257 243
3 243 257 258
3 243 258 244
3 244 258 259
3 244 259 245
3 245 259 260
3 245 260 246
3 246 260 261
3 246 261 247
3 248 247 261
3 262 249 248
3 261 262 248
3 263 250 249
3 262 263 249
3 264 251 250
3 263 264 250
3 265 252 251
3 264 265 251
3 266 253 252
3 265 266 252
3 267 254 253
3 266 267 253
3 255 268 257
3 256 269 255
3 255 269 268
3 257 268 270
3 257 270 258
3 258 270 271
3 258 271 259
3 259 271 272
3 259 272 260
3 260 272 273
3 260 273 261
3 274 262 261
3 261 273 274
3 275 263 262
3 274 275 262
3 276 264 263
3 275 276 263
3 277 265 264
3 276 277 264
3 278 266 265
3 277 278 265
3 279 267 266
3 278 279 266
3 268 280 270
3 269 281 268
3 268 281 280
3 270 280 282
3 270 282 271
3 271 282 283
3 271 283 272
3 283 284 272
3 272 284 273
3 285 275 274
3 273 284 285
3 285 274 273
3 286 276 275
3 285 286 275
3 287 277 276
3 286 287 276
3 288 278 277
3 287 288 277
3 289 279 278
3 288 289 278
3 280 290 282
3 281 291 280
3 280 291 290
3 282 290 292
3 282 292 283
3 283 292 293
3 283 293 284
3 284 293 294
3 284 294 285
3 295 286 285
3 295 285 294
3 296 287 286
3 295 296 286
3 297 288 287
3 296 297 287
3 298 289 288
3 297 298 288
3 290 299 292
3 291 300 290
3 290 300 299
3 292 299 301
3 292 301 293
3 293 301 302
3 293 302 294
3 294 302 295
3 303 296 295
3 303 295 302
3 304 297 296
3 303 304 296
3 305 298 297
3 304 305 297
3 299 306 301
3 300 307 299
3 299 307 306
3 301 306 308
3 301 308 302
3 309 303 302
3 302 308 309
3 310 304 303
3 309 310 303
3 311 305 304
3 310 311 304
3 306 312 308
3 307 313 306
3 306 313 312
3 314 310 309
3 308 312 314
3 314 309 308
3 315 311 310
3 314 315 310
3 312 316 314
3 313 317 312
3 312 317 316
3 318 315 314
3 318 314 316
3 317 319 316
3 319 318 316
CELL_TYPES 578
5
5
5
5
5
5
5
5
5
5
5
5
5
5
5
5
5
5
5
5
5
5
5
5
5
5
5
5
5
5
5
5
5
5
5
5
5
5
5
5
5
5
5
5
5
5
5
5
5
5
5
5
5
5
5
5
5
5
5
5
5
5
5
5
5
5
5
5
5
5
5
5
5
5
5
5
5
5
5
5
5
5
5
5
5
5
5
5
5
5
5
5
5
5
5
5
5
5
5
5
5
5
5
5
5
5
5
5
5
5
5
5
5
5
5
5
5
5
5
5
5
5
5
5
5
5
5
5
5
5
5
5
5
5
5
5
5
5
5
5
5
5
5
5
5
5
5
5
5
5
5
5
5
5
5
5
5
5
5
5
5
5
5
5
5
5
5
5
5
5
5
5
5
5
5
5
5
5
5
5
5
5
5
5
5
5
5
5
5
5
5
5
5
5
5
5
5
5
5
5
5
5
5
5
5
5
5
5
5
5
5
5
5
5
5
5
5
5
5
5
5
5
5
5
5
5
5
5
5
5
5
5
5
5
5
5
5
5
5
5
5
5
5
5
5
5
5
5
5
5
5
5
5
5
5
5
5
5
5
5
5
5
5
5
5
5
5
5
5
5
5
5
5
5
5
5
5
5
5
5
5
5
5
5
5
5
5
5
5
5
5
5
5
5
5
5
5
5
5
5
5
5
5
5
5
5
5
5
5
5
5
5
5
5
5
5
5
5
5
5
5
5
5
5
5
5
5
5
5
5
5
5
5
5
5
5
5
5
5
5
5
5
5
5
5
5
5
5
5
5
5
5
5
5
5
5
5
5
5
5
5
5
5
5
5
5
5
5
5
5
5
5
5
5
5
5
5
5
5
5
5
5
5
5
5
5
5
5
5
5
5
5
5
5
5
5
5
5
5
5
5
5
5
5
5
5
5
5
5
5
5
5
5
5
5
5
5
5
5
5
5
5
5
5
5
5
5
5
5
5
5
5
5
5
5
5
5
5
5
5
5
5
5
5
5
5
5
5
5
5
5
5
5
5
5
5
5
5
5
5
5
5
5
5
5
5
5
5
5
5
5
5
5
5
5
5
5
5
5
5
5
5
5
5
5
5
5
5
5
5
5
5
5
5
5
5
5
5
5
5
5
5
5
5
5
5
5
5
5
5
5
5
5
5
5
5
5
5
5
5
5
5
5
5
5
5
5
5
5
5
5
5
5
5
5
5
5
5
5
5
5
5
5
5
5
5
5
5
5
5
5
5
5
5
5
5
5
5
5
5
5
5
5
5
5
5
5
5
5
5
5
5
5
5
5
5
5
5
POINT_DATA 320
SCALARS theta_e float 1
LOOKUP_TABLE default
1.000001
1.000001
1.000001
1.000001
1.000001
1.000001
1.000001
1.000001
1.000001
1.000001
1.000001
1.000001
1.000001
1.000001
1.000001
1.000001
1.000001
1.000001
1.000001
1.000001
1.000001
1.000001
1.000001
1.000001
1.000001
1.000001
1.000001
1.000001
1.000001
1.000001
1.000001
1.000001
1.000001
1.000001
1.000001
1.000001
1.000001
1.000001
1.000001
1.000001
1.000001
1.000001
1.000001
1.000001
1.000001
1.000001
1.000001
1.000001
1.000001
1.000001
1.000001
1.000001
1.000001
1.000001
1.000001
1.000001
1.000001
1.000001
1.000001
1.000001
1.000001
1.000001
1.000001
1.000001
1.000001
1.000001
1.000001
1.000001
1.000001
1.000001
1.000001
1.000001
1.000001
1.000001
1.000001
1.000001
1.000001
1.000001
1.000001
1.000001
1.000001
1.000001
1.000001
1.000001
1.000001
1.000001
1.000001
1.000001
1.000001
1.000001
1.000001
1.000001
1.000001
1.000001
1.000001
1.000001
1.000001
1.000001
1.000001
1.000001
1.000001
1.000000
1.000001
1.000001
1.000001
1.000001
1.000001
1.000001
1.000001
1.000001
1.000001
1.000001
1.000001
1.000001
1.000001
1.000001
1.000001
1.000001
1.000001
1.000001
1.000001
1.000001
1.000001
1.000001
0.999994
1.000000
0.999997
1.000001
1.000001
1.000001
1.000001
1.000001
1.000001
1.000001
1.000001
1.000001
1.000001
1.000001
1.000001
1.000001
1.000001
1.000001
1.000001
1.000001
1.000001
1.000001
1.000001
1.000001
1.000001
0.999993
0.999977
0.999984
0.999995
1.000001
0.999998
1.000001
1.000001
1.000001
1.000001
1.000001
1.000001
1.000001
1.000001
1.000001
1.000001
1.000001
1.000001
1.000001
1.000001
1.000001
1.000001
0.999998
1.000001
0.999969
0.999981
0.999968
0.999980
0.999993
1.000001
1.000001
1.000001
1.000001
1.000001
1.000001
1.000001
1.000001
1.000001
1.000001
1.000001
1.000001
1.000001
1.000001
1.000001
0.999994
0.999968
0.999975
0.999966
0.999979
0.999997
1.000000
1.000001
1.000001
1.000001
1.000001
1.000001
1.000001
1.000001
1.000001
1.000001
1.000001
1.000001
1.000001
1.000001
0.999993
0.999975
0.999981
0.999993
1.000000
1.000001
1.000001
1.000001
1.000001
1.000001
1.000001
1.000001
1.000001
1.000001
1.000001
1.000001
1.000001
1.000001
0.999998
0.999994
1.000001
1.000001
1.000001
1.000001
1.000001
1.000001
1.000001
1.000001
1.000001
1.000001
1.000001
1.000001
1.000001
1.000001
1.000001
1.000001
1.000001
1.000001
1.000001
1.000001
1.000001
1.000001
1.000001
1.000001
1.000001
1.000001
1.000001
1.000001
1.000001
1.000001
1.000001
1.000001
1.000001
1.000001
1.000001
1.000001
1.000001
1.000001
1.000001
1.000001
1.000001
1.000001
1.000001
1.000001
1.000001
1.000001
1.000001
1.000001
1.000001
1.000001
1.000001
1.000001
1.000001
1.000001
1.000001
1.000001
1.000001
1.000001
1.000001
1.000001
1.000001
1.000001
1.000001
1.000001
1.000001
1.000001
1.000001
1.000001
1.000001
1.000001
1.000001
1.000001
1.000001
1.000001
1.000001
1.000001
1.000001
1.000001
1.000001
1.000001
1.000001
1.000001
1.000001
1.000001
1.000001
1.000001
1.000001
VECTORS fa_u float
0.000000 0.000000 0.000000
0.000000 0.000000 0.000000
0.000000 0.000000 0.000000
0.000000 0.000000 0.000000
0.000000 0.000000 0.000000
0.000000 0.000000 0.000000
0.000000 0.000000 0.000000
0.000000 0.000000 0.000000
0.000000 0.000000 0.000000
0.000000 0.000000 0.000000
0.000000 0.000000 0.000000
0.000000 0.000000 0.000000
0.000000 0.000000 0.000000
0.000000 0.000000 0.000000
0.000000 0.000000 0.000000
0.000000 0.000000 0.000000
0.000000 0.000000 0.000000
0.000000 0.000000 0.000000
0.000000 0.000000 0.000000
0.000000 0.000000 0.000000
0.000000 0.000000 0.000000
0.000000 0.000000 0.000000
0.000000 0.000000 0.000000
0.000000 0.000000 0.000000
0.000000 0.000000 0.000000
0.000000 0.000000 0.000000
0.000000 0.000000 0.000000
0.000000 0.000000 0.000000
0.000000 0.000000 0.000000
0.000000 0.000000 0.000000
0.000000 0.000000 0.000000
0.000000 0.000000 0.000000
0.000000 0.000000 0.000000
0.000000 0.000000 0.000000
0.000000 0.000000 0.000000
0.000000 0.000000 0.000000
0.000000 0.000000 0.000000
0.000000 0.000000 0.000000
0.000000 0.000000 0.000000
0.000000 0.000000 0.000000
0.000000 0.000000 0.000000
0.000000 0.000000 0.000000
0.000000 0.000000 0.000000
0.000000 0.000000 0.000000
0.000000 0.000000 0.000000
0.000000 0.000000 0.000000
0.000000 0.000000 0.000000
0.000000 0.000000 0.000000
0.000000 0.000000 0.000000
0.000000 0.000000 0.000000
0.000000 0.000000 0.000000
0.000000 0.000000 0.000000
0.000000 0.000000 0.000000
0.000000 0.000000 0.000000
0.000000 0.000000 0.000000
0.000000 0.000000 0.000000
0.000000 0.000000 0.000000
0.000000 0.000000 0.000000
0.000000 0.000000 0.000000
0.000000 0.000000 0.000000
0.000000 0.000000 0.000000
0.000000 0.000000 0.000000
0.000000 0.000000 0.000000
0.000000 0.000000 0.000000
0.000000 0.000000 0.000000
0.000000 0.000000 0.000000
0.000000 0.000000 0.000000
0.000000 0.000000 0.000000
0.000000 0.000000 0.000000
0.000000 0.000000 0.000000
0.000000 0.000000 0.000000
0.000000 0.000000 0.000000
0.000000 0.000000 0.000000
0.000000 0.000000 0.000000
0.000000 0.000000 0.000000
0.000000 0.000000 0.000000
0.000000 0.000000 0.000000
0.000000 0.000000 0.000000
0.000000 0.000000 0.000000
0.000000 0.000000 0.000000
0.000000 0.000000 0.000000
0.000000 0.000000 0.000000
0.000000 0.000000 0.000000
0.000000 0.000000 0.000000
0.000000 0.000000 0.000000
0.000000 0.000000 0.000000
0.000000 0.000000 0.000000
0.000000 0.000000 0.000000
0.000000 0.000000 0.000000
0.000000 0.000000 0.000000
0.000000 0.000000 0.000000
0.000000 0.000000 0.000000
0.000000 0.000000 0.000000
0.000000 0.000000 0.000000
0.000000 0.000000 0.000000
0.000000 0.000000 0.000000
0.000000 0.000000 0.000000
0.000000 0.000000 0.000000
0.000000 0.000000 0.000000
0.000000 0.000000 0.000000
0.000000 0.000000 0.000000
0.000000 0.000000 0.000000
0.000000 0.000000 0.000000
0.000000 0.000000 0.000000
0.000000 0.000000 0.000000
0.000000 0.000000 0.000000
0.000000 0.000000 0.000000
0.000000 0.000000 0.000000
0.000000 0.000000 0.000000
0.000000 0.000000 0.000000
0.000000 0.000000 0.000000
0.000000 0.000000 0.000000
0.000000 0.000000 0.000000
0.000000 0.000000 0.000000
0.000000 0.000000 0.000000
0.000000 0.000000 0.000000
0.000000 0.000000 0.000000
0.000000 0.000000 0.000000
0.000000 0.000000 0.000000
0.000000 0.000000 0.000000
0.000000 0.000000 0.000000
0.000000 0.000000 0.000000
0.000000 0.000000 0.000000
0.000000 0.000000 0.000000
0.000000 0.000000 0.000000
0.000000 0.000000 0.000000
0.000000 0.000000 0.000000
0.000000 0.000000 0.000000
0.000000 0.000000 0.000000
0.000000 0.000000 0.000000
0.000000 0.000000 0.000000
0.000000 0.000000 0.000000
0.000000 0.000000 0.000000
0.000000 0.000000 0.000000
0.000000 0.000000 0.000000
0.000000 0.000000 0.000000
0.000000 0.000000 0.000000
0.000000 0.000000 0.000000
0.000000 0.000000 0.000000
0.000000 0.000000 0.000000
0.000000 0.000000 0.000000
0.000000 0.000000 0.000000
0.000000 0.000000 0.000000
0.000000 0.000000 0.000000
0.000000 0.000000 0.000000
0.000000 0.000000 0.000000
0.000000 0.000000 0.000000
0.000000 0.000000 0.000000
0.000000 0.000000 0.000000
0.000000 0.000000 0.000000
0.000000 0.000000 0.000000
0.000000 0.000000 0.000000
0.000000 0.000000 0.000000
0.000000 0.000000 0.000000
0.000000 0.000000 0.000000
0.000000 0.000000 0.000000
0.000000 0.000000 0.000000
0.000000 0.000000 0.000000
0.000000 0.000000 0.000000
0.000000 0.000000 0.000000
0.000000 0.000000 0.000000
0.000000 0.000000 0.000000
0.000000 0.000000 0.000000
0.000000 0.000000 0.000000
0.000000 0.000000 0.000000
0.000000 0.000000 0.000000
0.000000 0.000000 0.000000
0.000000 0.000000 0.000000
0.000000 0.000000 0.000000
0.000000 0.000000 0.000000
0.000000 0.000000 0.000000
0.000000 0.000000 0.000000
0.000000 0.000000 0.000000
0.000000 0.000000 0.000000
0.000000 0.000000 0.000000
0.000000 0.000000 0.000000
0.000000 0.000000 0.000000
0.000000 0.000000 0.000000
0.000000 0.000000 0.000000
0.000000 0.000000 0.000000
0.000000 0.000000 0.000000
0.000000 0.000000 0.000000
0.000000 0.000000 0.000000
0.000000 0.000000 0.000000
0.000000 0.000000 0.000000
0.000000 0.000000 0.000000
0.000000 0.000000 0.000000
0.000000 0.000000 0.000000
0.000000 0.000000 0.000000
0.000000 0.000000 0.000000
0.000000 0.000000 0.000000
0.000000 0.000000 0.000000
0.000000 0.000000 0.000000
0.000000 0.000000 0.000000
0.000000 0.000000 0.000000
0.000000 0.000000 0.000000
0.000000 0.000000 0.000000
0.000000 0.000000 0.000000
0.000000 0.000000 0.000000
0.000000 0.000000 0.000000
0.000000 0.000000 0.000000
0.000000 0.000000 0.000000
0.000000 0.000000 0.000000
0.000000 0.000000 0.000000
0.000000 0.000000 0.000000
0.000000 0.000000 0.000000
0.000000 0.000000 0.000000
0.000000 0.000000 0.000000
0.000000 0.000000 0.000000
0.000000 0.000000 0.000000
0.000000 0.000000 0.000000
0.000000 0.000000 0.000000
0.000000 0.000000 0.000000
0.000000 0.000000 0.000000
0.000000 0.000000 0.000000
0.000000 0.000000 0.000000
0.000000 0.000000 0.000000
0.000000 0.000000 0.000000
0.000000 0.000000 0.000000
0.000000 0.000000 0.000000
0.000000 0.000000 0.000000
0.000000 0.000000 0.000000
0.000000 0.000000 0.000000
0.000000 0.000000 0.000000
0.000000 0.000000 0.000000
0.000000 0.000000 0.000000
0.000000 0.000000 0.000000
0.000000 0.000000 0.000000
0.000000 0.000000 0.000000
0.000000 0.000000 0.000000
0.000000 0.000000 0.000000
0.000000 0.000000 0.000000
0.000000 0.000000 0.000000
0.000000 0.000000 0.000000
0.000000 0.000000 0.000000
0.000000 0.000000 0.000000
0.000000 0.000000 0.000000
0.000000 0.000000 0.000000
0.000000 0.000000 0.000000
0.000000 0.000000 0.000000
0.000000 0.000000 0.000000
0.000000 0.000000 0.000000
0.000000 0.000000 0.000000
0.000000 0.000000 0.000000
0.000000 0.000000 0.000000
0.000000 0.000000 0.000000
0.000000 0.000000 0.000000
0.000000 0.000000 0.000000
0.000000 0.000000 0.000000
0.000000 0.000000 0.000000
0.000000 0.000000 0.000000
0.000000 0.000000 0.000000
0.000000 0.000000 0.000000
0.000000 0.000000 0.000000
0.000000 0.000000 0.000000
0.000000 0.000000 0.000000
0.000000 0.000000 0.000000
0.000000 0.000000 0.000000
0.000000 0.000000 0.000000
0.000000 0.000000 0.000000
0.000000 0.000000 0.000000
0.000000 0.000000 0.000000
0.000000 0.000000 0.000000
0.000000 0.000000 0.000000
0.000000 0.000000 0.000000
0.000000 0.000000 0.000000
0.000000 0.000000 0.000000
0.000000 0.000000 0.000000
0.000000 0.000000 0.000000
0.000000 0.000000 0.000000
0.000000 0.000000 0.000000
0.000000 0.000000 0.000000
0.000000 0.000000 0.000000
0.000000 0.000000 0.000000
0.000000 0.000000 0.000000
0.000000 0.000000 0.000000
0.000000 0.000000 0.000000
0.000000 0.000000 0.000000
0.000000 0.000000 0.000000
0.000000 0.000000 0.000000
0.000000 0.000000 0.000000
0.000000 0.000000 0.000000
0.000000 0.000000 0.000000
0.000000 0.000000 0.000000
0.000000 0.000000 0.000000
0.000000 0.000000 0.000000
0.000000 0.000000 0.000000
0.000000 0.000000 0.000000
0.000000 0.000000 0.000000
0.000000 0.000000 0.000000
0.000000 0.000000 0.000000
0.000000 0.000000 0.000000
0.000000 0.000000 0.000000
0.000000 0.000000 0.000000
0.000000 0.000000 0.000000
0.000000 0.000000 0.000000
0.000000 0.000000 -50.000000
-50.000000 0.000000 -50.000000
-43.332930 0.000000 -45.688403
-45.491159 0.000000 -43.332870
-50.000000 0.000000 -50.000000
-36.665837 0.000000 -36.665856
-50.000000 0.000000 -45.081138
-39.969792 0.000000 -40.027216
-44.152285 0.000000 -29.998811
-50.000000 0.000000 -50.000000
-29.998783 0.000000 -44.847104
-33.448919 0.000000 -33.144939
-44.675695 0.000000 -39.869148
-36.786994 0.000000 -35.128685
-39.801313 0.000000 -23.331925
-50.000000 0.000000 -26.539184
-44.666744 0.000000 -50.000000
-23.331909 0.000000 -44.665278
-26.803929 0.000000 -39.364254
-30.225682 0.000000 -29.606306
-39.359366 0.000000 -33.368265
-33.655450 0.000000 -50.000000
-16.665296 0.000000 -16.665339
-50.000000 0.000000 -9.999060
