# vtk DataFile Version 2.0
CellBP Time: 0.88
ASCII
DATASET UNSTRUCTURED_GRID
POINTS 320 double
-50.000000 -50.000000 0.000000
-50.000000 -43.333281 0.000000
-45.688282 -45.491053 0.000000
-43.333278 -50.000000 0.000000
-50.000000 -36.666560 0.000000
-36.666571 -50.000000 0.000000
-45.081008 -39.969715 0.000000
-40.027029 -44.152173 0.000000
-29.999861 -50.000000 0.000000
-50.000000 -29.999844 0.000000
-44.846976 -33.448851 0.000000
-33.144800 -44.675574 0.000000
-39.868990 -36.786910 0.000000
-35.128497 -39.801165 0.000000
-23.333169 -50.000000 0.000000
-26.539038 -44.666686 0.000000
-50.000000 -23.333150 0.000000
-44.665226 -26.803836 0.000000
-39.364138 -30.225588 0.000000
-29.606097 -39.359249 0.000000
-33.368048 -33.655311 0.000000
-50.000000 -16.666489 0.000000
-16.666512 -50.000000 0.000000
-9.999891 -50.000000 0.000000
-19.964754 -44.588787 0.000000
-23.215776 -39.114642 0.000000
-44.691910 -20.096828 0.000000
-39.367808 -23.528108 0.000000
-34.106015 -26.936936 0.000000
-26.384244 -33.577086 0.000000
-29.156015 -28.926470 0.000000
-50.000000 -9.999858 0.000000
-44.666378 -13.410116 0.000000
-50.000000 -3.333263 0.000000
-3.333299 -50.000000 0.000000
3.333286 -50.000000 0.000000
-13.343507 -44.599097 0.000000
-6.684643 -44.610809 0.000000
-16.693614 -39.153369 0.000000
-20.106919 -33.342671 0.000000
-39.338191 -16.804821 0.000000
-34.018543 -20.274718 0.000000
-28.780715 -23.448931 0.000000
-23.510362 -27.349922 0.000000
-44.635531 -6.705593 0.000000
-39.293062 -10.101886 0.000000
-50.000000 3.333311 0.000000
-44.626874 -0.015740 0.000000
9.999886 -50.000000 0.000000
16.666514 -50.000000 0.000000
-0.016103 -44.618873 0.000000
6.651535 -44.635522 0.000000
-10.044635 -39.222643 0.000000
-3.368223 -39.220496 0.000000
-13.484278 -33.798854 0.000000
-16.709844 -28.271381 0.000000
-33.948104 -13.514309 0.000000
-28.601417 -16.892518 0.000000
-23.291149 -20.312825 0.000000
-18.660142 -23.282233 0.000000
-39.267621 -3.392949 0.000000
-33.904581 -6.796801 0.000000
-50.000000 9.999893 0.000000
-44.606898 6.673219 0.000000
-39.261081 3.325569 0.000000
-50.000000 16.666507 0.000000
23.333171 -50.000000 0.000000
29.999857 -50.000000 0.000000
13.317268 -44.663008 0.000000
19.989390 -44.700131 0.000000
3.307662 -39.245193 0.000000
9.971745 -39.290307 0.000000
-6.735207 -33.791403 0.000000
-0.032373 -33.829703 0.000000
-10.095964 -28.293752 0.000000
-13.122867 -22.898709 0.000000
-28.532881 -10.215241 0.000000
-23.066389 -13.663154 0.000000
-16.976855 -17.208434 0.000000
-33.884929 -0.065459 0.000000
-28.563341 -3.578649 0.000000
-44.564220 13.380212 0.000000
-39.190211 10.014934 0.000000
-33.905925 6.615961 0.000000
-50.000000 23.333151 0.000000
-44.557783 20.137977 0.000000
-50.000000 29.999852 0.000000
36.666564 -50.000000 0.000000
43.333280 -50.000000 0.000000
26.663028 -44.745263 0.000000
33.315139 -44.875866 0.000000
16.631596 -39.357717 0.000000
23.328135 -39.437056 0.000000
6.642768 -33.879529 0.000000
13.290810 -33.965497 0.000000
-3.345502 -28.362801 0.000000
3.356865 -28.451362 0.000000
-6.626042 -22.846404 0.000000
-9.971733 -17.314769 0.000000
-23.185732 -7.015005 0.000000
-17.810036 -10.334842 0.000000
-12.837263 -12.588155 0.000000
-28.607599 3.088441 0.000000
-23.264637 -0.468089 0.000000
-39.039137 16.746465 0.000000
-28.721547 9.926494 0.000000
-33.761832 13.318514 0.000000
-44.521679 26.716700 0.000000
-38.467739 23.892406 0.000000
-44.632111 33.085338 0.000000
-50.000000 36.666582 0.000000
-50.000000 43.333288 0.000000
39.922252 -45.069490 0.000000
45.474554 -45.660341 0.000000
50.000000 -50.000000 0.000000
36.626674 -39.981872 0.000000
30.012200 -39.458533 0.000000
19.904180 -34.092720 0.000000
26.584947 -34.319399 0.000000
9.988857 -28.513678 0.000000
16.611039 -28.659794 0.000000
0.052296 -22.958842 0.000000
6.812236 -23.158694 0.000000
-3.401387 -17.297668 0.000000
-6.869203 -11.034106 0.000000
-17.878770 -3.829739 0.000000
-12.554182 -7.036254 0.000000
-23.310880 6.073874 0.000000
-18.038219 2.456376 0.000000
-23.121904 12.095504 0.000000
-33.572105 19.788914 0.000000
-27.941246 16.885240 0.000000
-33.292669 24.722540 0.000000
-39.473310 30.052526 0.000000
-35.160038 28.137315 0.000000
-39.815720 35.101194 0.000000
-43.991543 39.981965 0.000000
-45.430940 45.685007 0.000000
-50.000000 50.000000 0.000000
44.117123 -39.898841 0.000000
50.000000 -43.333260 0.000000
39.639294 -35.047280 0.000000
33.462789 -33.424437 0.000000
22.984808 -28.817828 0.000000
28.730894 -29.247693 0.000000
13.460731 -23.121801 0.000000
20.054804 -23.438645 0.000000
3.389814 -17.586691 0.000000
10.127625 -17.839855 0.000000
0.140997 -12.019170 0.000000
-2.156435 -6.273252 0.000000
-7.418889 -3.711886 0.000000
-12.637275 -0.802132 0.000000
-18.161511 8.573031 0.000000
-12.966899 5.196852 0.000000
-18.639548 13.752211 0.000000
-21.504815 17.495236 0.000000
-28.940601 23.158167 0.000000
-24.346206 21.554806 0.000000
-30.323302 28.634638 0.000000
-34.253209 33.375441 0.000000
-36.955803 39.577999 0.000000
-39.838617 45.102644 0.000000
-43.333270 50.000000 0.000000
44.585128 -32.971926 0.000000
50.000000 -36.666543 0.000000
39.129240 -29.581690 0.000000
33.500503 -26.367571 0.000000
27.182639 -23.322108 0.000000
23.065567 -18.647746 0.000000
16.988988 -16.979421 0.000000
6.713023 -12.217900 0.000000
12.351093 -12.732358 0.000000
-3.386358 -1.495219 0.000000
3.946448 -7.038338 0.000000
1.022317 -2.121384 0.000000
-7.022601 2.332439 0.000000
-8.446184 7.838344 0.000000
-12.847453 11.933748 0.000000
-15.693075 17.700736 0.000000
-19.287174 22.983110 0.000000
-24.170950 27.354991 0.000000
-27.286256 33.626142 0.000000
-30.406557 39.161298 0.000000
-33.447683 44.738845 0.000000
-36.666546 50.000000 0.000000
44.547709 -26.499709 0.000000
50.000000 -29.999828 0.000000
39.040031 -23.179192 0.000000
33.449846 -19.899951 0.000000
28.040194 -16.574543 0.000000
22.683982 -13.124375 0.000000
17.176749 -9.910809 0.000000
10.948156 -6.650714 0.000000
-1.351288 2.306242 0.000000
6.230339 -1.743047 0.000000
2.910672 1.601347 0.000000
-3.549536 7.198458 0.000000
-6.312115 12.446366 0.000000
-9.629299 17.700830 0.000000
-13.166622 23.112054 0.000000
-17.316442 28.185258 0.000000
-20.570500 33.474504 0.000000
-23.665764 39.064052 0.000000
-26.830675 44.585389 0.000000
-29.999842 50.000000 0.000000
44.528746 -19.930414 0.000000
50.000000 -23.333137 0.000000
39.036443 -16.593992 0.000000
33.576488 -13.281184 0.000000
28.151084 -9.964839 0.000000
22.726320 -6.604486 0.000000
17.264781 -3.337564 0.000000
12.027407 0.189913 0.000000
1.932432 6.301463 0.000000
7.051732 3.848800 0.000000
-0.211891 11.988336 0.000000
-3.270916 17.529445 0.000000
-6.701228 22.978314 0.000000
-10.568054 28.267631 0.000000
-13.723784 33.661637 0.000000
-16.945480 39.080482 0.000000
-20.140288 44.548514 0.000000
-23.333159 50.000000 0.000000
44.536383 -13.303510 0.000000
50.000000 -16.666481 0.000000
39.080032 -9.966560 0.000000
33.646894 -6.640827 0.000000
28.235922 -3.307232 0.000000
22.845792 0.018591 0.000000
17.533766 3.363633 0.000000
12.216552 6.599355 0.000000
6.730000 10.865333 0.000000
3.301192 17.195107 0.000000
-0.081714 22.850701 0.000000
-3.518326 28.312488 0.000000
-6.831130 33.774269 0.000000
-10.137147 39.170588 0.000000
-13.435437 44.563624 0.000000
-16.666509 50.000000 0.000000
44.554481 -6.654597 0.000000
50.000000 -9.999866 0.000000
39.123517 -3.321247 0.000000
33.713487 0.008787 0.000000
28.333199 3.343824 0.000000
23.002267 6.693867 0.000000
17.831748 10.024078 0.000000
12.654252 12.224692 0.000000
9.791931 17.235228 0.000000
6.477383 22.722412 0.000000
3.188475 28.269343 0.000000
-0.115857 33.734646 0.000000
-3.425095 39.168546 0.000000
-6.725234 44.581890 0.000000
-9.999890 50.000000 0.000000
44.575768 0.001958 0.000000
50.000000 -3.333283 0.000000
39.166872 3.331941 0.000000
33.779204 6.655583 0.000000
28.424237 9.995179 0.000000
23.046272 13.416612 0.000000
16.947623 17.021770 0.000000
12.901655 22.671287 0.000000
9.814527 28.232352 0.000000
6.604097 33.718705 0.000000
3.286531 39.164421 0.000000
-0.029845 44.584634 0.000000
-3.333296 50.000000 0.000000
44.586789 6.665450 0.000000
50.000000 3.333295 0.000000
39.198009 9.981904 0.000000
33.843338 13.277157 0.000000
28.541644 16.584987 0.000000
23.386426 20.084403 0.000000
18.531640 23.111842 0.000000
16.393459 28.298791 0.000000
13.328854 33.754803 0.000000
9.986450 39.181970 0.000000
6.665879 44.584428 0.000000
3.333289 50.000000 0.000000
44.608914 13.317757 0.000000
50.000000 9.999890 0.000000
39.251320 16.612378 0.000000
33.931754 19.862873 0.000000
28.612120 22.926016 0.000000
23.279565 27.207440 0.000000
19.901236 33.303191 0.000000
16.573620 39.041008 0.000000
13.268135 44.526828 0.000000
9.999879 50.000000 0.000000
44.632073 19.972782 0.000000
50.000000 16.666515 0.000000
39.298432 23.262027 0.000000
34.043682 26.514656 0.000000
28.965622 28.539446 0.000000
26.202242 33.410100 0.000000
23.066576 38.968851 0.000000
19.888361 44.507086 0.000000
16.666491 50.000000 0.000000
44.639753 26.642735 0.000000
50.000000 23.333169 0.000000
39.293275 29.966573 0.000000
33.212256 33.371187 0.000000
29.411955 39.045803 0.000000
26.422193 44.505952 0.000000
23.333143 50.000000 0.000000
44.774886 33.291662 0.000000
50.000000 29.999852 0.000000
39.738093 36.596212 0.000000
34.830915 39.525503 0.000000
32.833667 44.514194 0.000000
29.999829 50.000000 0.000000
44.978147 39.877751 0.000000
50.000000 36.666559 0.000000
39.734702 43.968916 0.000000
36.666541 50.000000 0.000000
45.621180 45.409681 0.000000
50.000000 43.333276 0.000000
43.333258 50.000000 0.000000
50.000000 50.000000 0.000000
CELLS 578 2312
3 1 0 2
3 0 3 2
3 4 1 6
3 6 1 2
3 3 5 7
3 3 7 2
3 6 2 7
3 9 4 10
3 10 4 6
3 5 8 11
3 7 5 11
3 10 6 12
3 12 6 7
3 7 11 13
3 7 13 12
3 8 14 15
3 11 8 15
3 16 9 17
3 17 9 10
3 17 10 18
3 18 10 12
3 11 15 19
3 13 11 19
3 18 12 20
3 13 19 20
3 20 12 13
3 14 22 24
3 15 14 24
3 15 24 25
3 19 15 25
3 21 16 26
3 26 16 17
3 26 17 27
3 27 17 18
3 27 18 28
3 28 18 20
3 19 25 29
3 19 29 20
3 28 20 30
3 30 20 29
3 31 21 32
3 32 21 26
3 22 23 36
3 24 22 36
3 23 34 37
3 36 23 37
3 24 36 38
3 25 24 38
3 25 38 39
3 29 25 39
3 32 26 40
3 40 26 27
3 40 27 41
3 41 27 28
3 41 28 42
3 42 28 30
3 29 39 43
3 29 43 30
3 42 30 43
3 33 31 44
3 44 31 32
3 44 32 45
3 45 32 40
3 46 33 47
3 47 33 44
3 34 35 50
3 37 34 50
3 35 48 51
3 50 35 51
3 36 37 52
3 38 36 52
3 37 50 53
3 52 37 53
3 38 52 54
3 39 38 54
3 39 54 55
3 43 39 55
3 45 40 56
3 56 40 41
3 56 41 57
3 57 41 42
3 57 42 58
3 58 42 43
3 43 55 59
3 43 59 58
3 47 44 60
3 60 44 45
3 60 45 61
3 61 45 56
3 62 46 63
3 63 46 47
3 63 47 64
3 64 47 60
3 48 49 68
3 51 48 68
3 49 66 69
3 68 49 69
3 50 51 70
3 53 50 70
3 51 68 71
3 70 51 71
3 52 53 72
3 54 52 72
3 53 70 73
3 72 53 73
3 54 72 74
3 55 54 74
3 55 74 75
3 59 55 75
3 61 56 76
3 76 56 57
3 76 57 77
3 77 57 58
3 77 58 78
3 59 75 78
3 78 58 59
3 64 60 79
3 79 60 61
3 79 61 80
3 80 61 76
3 65 62 81
3 81 62 63
3 81 63 82
3 82 63 64
3 82 64 83
3 83 64 79
3 84 65 85
3 85 65 81
3 66 67 89
3 69 66 89
3 67 87 90
3 89 67 90
3 68 69 91
3 71 68 91
3 69 89 92
3 91 69 92
3 70 71 93
3 73 70 93
3 71 91 94
3 93 71 94
3 72 73 95
3 74 72 95
3 73 93 96
3 95 73 96
3 74 95 97
3 75 74 97
3 75 97 98
3 78 75 98
3 80 76 99
3 99 76 77
3 99 77 100
3 100 77 78
3 100 78 101
3 98 101 78
3 83 79 102
3 102 79 80
3 102 80 103
3 103 80 99
3 85 81 104
3 104 81 82
3 105 83 102
3 104 82 106
3 106 82 83
3 106 83 105
3 86 84 107
3 107 84 85
3 107 85 108
3 108 85 104
3 109 86 107
3 110 86 109
3 87 88 112
3 90 87 112
3 112 88 113
3 88 114 113
3 90 112 115
3 89 90 116
3 92 89 116
3 116 90 115
3 91 92 117
3 94 91 117
3 92 116 118
3 117 92 118
3 93 94 119
3 96 93 119
3 94 117 120
3 119 94 120
3 95 96 121
3 97 95 121
3 96 119 122
3 121 96 122
3 97 121 123
3 98 97 123
3 98 123 124
3 98 124 101
3 103 99 125
3 125 99 100
3 125 100 126
3 126 100 101
3 126 101 124
3 105 102 127
3 127 102 103
3 127 103 128
3 128 103 125
3 129 105 127
3 108 104 130
3 130 104 106
3 130 106 131
3 131 106 105
3 131 105 129
3 108 130 132
3 109 107 133
3 133 107 108
3 133 108 134
3 108 132 134
3 135 109 133
3 111 110 136
3 136 110 109
3 136 109 135
3 137 111 136
3 138 111 137
3 112 113 139
3 115 112 139
3 114 140 113
3 140 139 113
3 139 141 115
3 116 115 142
3 118 116 142
3 142 115 141
3 117 118 143
3 120 117 143
3 118 142 144
3 143 118 144
3 119 120 145
3 122 119 145
3 120 143 146
3 145 120 146
3 121 122 147
3 123 121 147
3 122 145 148
3 147 122 148
3 123 147 149
3 124 123 149
3 124 149 150
3 151 126 124
3 124 150 151
3 128 125 152
3 152 125 126
3 152 126 151
3 129 127 153
3 153 127 128
3 128 152 154
3 153 128 154
3 155 129 153
3 131 129 156
3 156 129 155
3 132 130 157
3 130 131 157
3 157 131 158
3 131 156 158
3 132 157 159
3 132 159 134
3 135 133 160
3 160 133 134
3 160 134 159
3 136 135 161
3 135 160 161
3 162 137 136
3 161 162 136
3 163 138 137
3 162 163 137
3 139 164 141
3 140 165 139
3 139 165 164
3 141 164 166
3 141 166 142
3 166 167 142
3 144 142 167
3 167 168 144
3 143 144 168
3 146 143 168
3 168 169 146
3 145 146 170
3 148 145 170
3 170 146 169
3 147 148 171
3 149 147 171
3 148 170 172
3 171 148 172
3 173 151 150
3 149 171 174
3 150 149 174
3 150 174 175
3 150 175 173
3 154 152 176
3 152 151 176
3 176 151 173
3 154 176 177
3 155 153 178
3 177 178 154
3 154 178 153
3 156 155 179
3 155 178 179
3 180 158 156
3 179 180 156
3 181 159 157
3 180 181 158
3 181 157 158
3 182 160 159
3 181 182 159
3 183 161 160
3 182 183 160
3 184 162 161
3 184 161 183
3 185 163 162
3 184 185 162
3 164 186 166
3 165 187 164
3 164 187 186
3 166 186 188
3 166 188 167
3 167 188 189
3 167 189 168
3 168 189 190
3 168 190 169
3 169 190 191
3 169 191 170
3 192 172 170
3 170 191 192
3 192 193 172
3 171 172 193
3 174 171 193
3 194 173 175
3 176 173 194
3 175 174 195
3 193 195 174
3 195 196 175
3 175 196 194
3 197 177 176
3 194 197 176
3 198 178 177
3 197 198 177
3 199 179 178
3 198 199 178
3 200 180 179
3 199 200 179
3 201 181 180
3 200 201 180
3 202 182 181
3 201 202 181
3 203 183 182
3 202 203 182
3 204 184 183
3 203 204 183
3 205 185 184
3 204 205 184
3 186 206 188
3 187 207 186
3 186 207 206
3 188 206 208
3 188 208 189
3 189 208 209
3 189 209 190
3 190 209 210
3 190 210 191
3 191 210 211
3 191 211 192
3 192 211 212
3 192 212 193
3 193 212 213
3 193 213 195
3 214 197 194
3 214 194 196
3 195 213 215
3 195 215 196
3 196 215 214
3 216 198 197
3 214 216 197
3 217 199 198
3 216 217 198
3 218 200 199
3 217 218 199
3 219 201 200
3 218 219 200
3 220 202 201
3 219 220 201
3 221 203 202
3 220 221 202
3 222 204 203
3 221 222 203
3 223 205 204
3 222 223 204
3 206 224 208
3 207 225 206
3 206 225 224
3 208 224 226
3 208 226 209
3 209 226 227
3 209 227 210
3 210 227 228
3 210 228 211
3 211 228 229
3 211 229 212
3 212 229 230
3 212 230 213
3 213 230 231
3 213 231 215
3 232 216 214
3 215 231 232
3 232 214 215
3 233 217 216
3 232 233 216
3 234 218 217
3 233 234 217
3 235 219 218
3 234 235 218
3 236 220 219
3 235 236 219
3 237 221 220
3 236 237 220
3 238 222 221
3 237 238 221
3 239 223 222
3 238 239 222
3 224 240 226
3 225 241 224
3 224 241 240
3 226 240 242
3 226 242 227
3 227 242 243
3 227 243 228
3 228 243 244
3 228 244 229
3 244 245 229
3 229 245 230
3 230 245 246
3 230 246 231
3 231 246 247
3 231 247 232
3 248 233 232
3 248 232 247
3 249 234 233
3 248 249 233
3 250 235 234
3 249 250 234
3 251 236 235
3 250 251 235
3 252 237 236
3 251 252 236
3 253 238 237
3 252 253 237
3 254 239 238
3 253 254 238
3 240 255 242
3 241 256 240
3 240 256 255
3 242 255 257
3 242 257 243
3 243 257 258
3 243 258 244
3 244 258 259
3 244 259 245
3 245 259 260
3 245 260 246
3 246 260 261
3 246 261 247
3 248 247 261
3 262 249 248
3 261 262 248
3 263 250 249
3 262 263 249
3 264 251 250
3 263 264 250
3 265 252 251
3 264 265 251
3 266 253 252
3 265 266 252
3 267 254 253
3 266 267 253
3 255 268 257
3 256 269 255
3 255 269 268
3 257 268 270
3 257 270 258
3 258 270 271
3 258 271 259
3 259 271 272
3 259 272 260
3 260 272 273
3 260 273 261
3 274 262 261
3 261 273 274
3 275 263 262
3 274 275 262
3 276 264 263
3 275 276 263
3 277 265 264
3 276 277 264
3 278 266 265
3 277 278 265
3 279 267 266
3 278 279 266
3 268 280 270
3 269 281 268
3 268 281 280
3 270 280 282
3 270 282 271
3 271 282 283
3 271 283 272
3 283 284 272
3 272 284 273
3 285 275 274
3 273 284 285
3 285 274 273
3 286 276 275
3 285 286 275
3 287 277 276
3 286 287 276
3 288 278 277
3 287 288 277
3 289 279 278
3 288 289 278
3 280 290 282
3 281 291 280
3 280 291 290
3 282 290 292
3 282 292 283
3 283 292 293
3 283 293 284
3 284 293 294
3 284 294 285
3 295 286 285
3 295 285 294
3 296 287 286
3 295 296 286
3 297 288 287
3 296 297 287
3 298 289 288
3 297 298 288
3 290 299 292
3 291 300 290
3 290 300 299
3 292 299 301
3 292 301 293
3 293 301 302
3 293 302 294
3 294 302 295
3 303 296 295
3 303 295 302
3 304 297 296
3 303 304 296
3 305 298 297
3 304 305 297
3 299 306 301
3 300 307 299
3 299 307 306
3 301 306 308
3 301 308 302
3 309 303 302
3 302 308 309
3 310 304 303
3 309 310 303
3 311 305 304
3 310 311 304
3 306 312 308
3 307 313 306
3 306 313 312
3 314 310 309
3 308 312 314
3 314 309 308
3 315 311 310
3 314 315 310
3 312 316 314
3 313 317 312
3 312 317 316
3 318 315 314
3 318 314 316
3 317 319 316
3 319 318 316
CELL_TYPES 578
5
5
5
5
5
5
5
5
5
5
5
5
5
5
5
5
5
5
5
5
5
5
5
5
5
5
5
5
5
5
5
5
5
5
5
5
5
5
5
5
5
5
5
5
5
5
5
5
5
5
5
5
5
5
5
5
5
5
5
5
5
5
5
5
5
5
5
5
5
5
5
5
5
5
5
5
5
5
5
5
5
5
5
5
5
5
5
5
5
5
5
5
5
5
5
5
5
5
5
5
5
5
5
5
5
5
5
5
5
5
5
5
5
5
5
5
5
5
5
5
5
5
5
5
5
5
5
5
5
5
5
5
5
5
5
5
5
5
5
5
5
5
5
5
5
5
5
5
5
5
5
5
5
5
5
5
5
5
5
5
5
5
5
5
5
5
5
5
5
5
5
5
5
5
5
5
5
5
5
5
5
5
5
5
5
5
5
5
5
5
5
5
5
5
5
5
5
5
5
5
5
5
5
5
5
5
5
5
5
5
5
5
5
5
5
5
5
5
5
5
5
5
5
5
5
5
5
5
5
5
5
5
5
5
5
5
5
5
5
5
5
5
5
5
5
5
5
5
5
5
5
5
5
5
5
5
5
5
5
5
5
5
5
5
5
5
5
5
5
5
5
5
5
5
5
5
5
5
5
5
5
5
5
5
5
5
5
5
5
5
5
5
5
5
5
5
5
5
5
5
5
5
5
5
5
5
5
5
5
5
5
5
5
5
5
5
5
5
5
5
5
5
5
5
5
5
5
5
5
5
5
5
5
5
5
5
5
5
5
5
5
5
5
5
5
5
5
5
5
5
5
5
5
5
5
5
5
5
5
5
5
5
5
5
5
5
5
5
5
5
5
5
5
5
5
5
5
5
5
5
5
5
5
5
5
5
5
5
5
5
5
5
5
5
5
5
5
5
5
5
5
5
5
5
5
5
5
5
5
5
5
5
5
5
5
5
5
5
5
5
5
5
5
5
5
5
5
5
5
5
5
5
5
5
5
5
5
5
5
5
5
5
5
5
5
5
5
5
5
5
5
5
5
5
5
5
5
5
5
5
5
5
5
5
5
5
5
5
5
5
5
5
5
5
5
5
5
5
5
5
5
5
5
5
5
5
5
5
5
5
5
5
5
5
5
5
5
5
5
5
5
5
5
5
5
5
5
5
5
5
5
5
5
5
5
5
5
5
5
5
5
5
5
5
5
5
5
5
5
5
5
5
5
5
5
5
5
5
5
5
5
5
5
5
5
5
5
5
5
5
5
5
5
5
5
5
5
5
5
5
5
5
5
5
5
5
5
5
5
5
5
5
5
5
5
5
5
5
POINT_DATA 320
SCALARS theta_e float 1
LOOKUP_TABLE default
1.000001
1.000001
1.000001
1.000001
1.000001
1.000001
1.000001
1.000001
1.000001
1.000001
1.000001
1.000001
1.000001
1.000001
1.000001
1.000001
1.000001
1.000001
1.000001
1.000001
1.000001
1.000001
1.000001
1.000001
1.000001
1.000001
1.000001
1.000001
1.000001
1.000001
1.000001
1.000001
1.000001
1.000001
1.000001
1.000001
1.000001
1.000001
1.000001
1.000001
1.000001
1.000001
1.000001
1.000001
1.000001
1.000001
1.000001
1.000001
1.000001
1.000001
1.000001
1.000001
1.000001
1.000001
1.000001
1.000001
1.000001
1.000000
1.000000
1.000000
1.000001
1.000001
1.000001
1.000001
1.000001
1.000001
1.000001
1.000001
1.000001
1.000001
1.000001
1.000001
1.000001
1.000001
1.000001
1.000000
1.000000
1.000000
1.000000
1.000001
1.000000
1.000001
1.000001
1.000001
1.000001
1.000001
1.000001
1.000001
1.000001
1.000001
1.000001
1.000001
1.000001
1.000001
1.000001
1.000001
1.000001
1.000001
1.000001
1.000000
1.000000
1.000000
1.000000
1.000000
1.000001
1.000001
1.000001
1.000001
1.000001
1.000001
1.000001
1.000001
1.000001
1.000001
1.000001
1.000001
1.000001
1.000001
1.000001
1.000001
1.000001
1.000001
1.000001
1.000001
0.999998
1.000000
1.000000
1.000000
1.000001
1.000001
1.000001
1.000001
1.000001
1.000001
1.000001
1.000001
1.000001
1.000001
1.000001
1.000001
1.000001
1.000001
1.000001
1.000001
1.000001
1.000001
1.000001
1.000000
1.000000
0.999997
0.999988
0.999992
0.999998
1.000000
0.999999
1.000001
1.000001
1.000001
1.000001
1.000001
1.000001
1.000001
1.000001
1.000001
1.000001
1.000001
1.000001
1.000001
1.000001
1.000001
1.000000
0.999998
1.000000
0.999983
0.999990
0.999983
0.999990
0.999996
1.000000
1.000001
1.000001
1.000001
1.000001
1.000001
1.000001
1.000001
1.000001
1.000001
1.000001
1.000001
1.000001
1.000001
1.000000
0.999997
0.999983
0.999987
0.999983
0.999989
0.999998
1.000000
1.000001
1.000001
1.000001
1.000001
1.000001
1.000001
1.000001
1.000001
1.000001
1.000001
1.000001
1.000000
1.000000
0.999997
0.999987
0.999991
0.999996
1.000000
1.000001
1.000001
1.000001
1.000001
1.000001
1.000001
1.000001
1.000001
1.000001
1.000001
1.000001
1.000000
1.000001
0.999999
0.999997
1.000000
1.000000
1.000001
1.000001
1.000001
1.000001
1.000001
1.000001
1.000001
1.000001
1.000001
1.000001
1.000001
1.000001
1.000000
1.000001
1.000000
1.000001
1.000001
1.000001
1.000001
1.000001
1.000001
1.000001
1.000001
1.000001
1.000001
1.000001
1.000001
1.000001
1.000001
1.000001
1.000001
1.000001
1.000001
1.000001
1.000001
1.000001
1.000001
1.000001
1.000001
1.000001
1.000001
1.000001
1.000001
1.000001
1.000000
1.000001
1.000001
1.000001
1.000001
1.000001
1.000000
1.000001
1.000001
1.000001
1.000000
1.000001
1.000001
1.000001
1.000001
1.000001
1.000001
1.000001
1.000001
1.000001
1.000001
1.000001
1.000001
1.000001
1.000001
1.000001
1.000001
1.000001
1.000001
1.000001
1.000001
1.000001
1.000001
1.000001
1.000001
1.000001
1.000001
1.000001
1.000001
1.000001
1.000001
VECTORS fa_u float
0.000000 0.000000 0.000000
0.000000 0.000000 0.000000
0.000000 0.000000 0.000000
0.000000 0.000000 0.000000
0.000000 0.000000 0.000000
0.000000 0.000000 0.000000
0.000000 0.000000 0.000000
0.000000 0.000000 0.000000
0.000000 0.000000 0.000000
0.000000 0.000000 0.000000
0.000000 0.000000 0.000000
0.000000 0.000000 0.000000
0.000000 0.000000 0.000000
0.000000 0.000000 0.000000
0.000000 0.000000 0.000000
0.000000 0.000000 0.000000
0.000000 0.000000 0.000000
0.000000 0.000000 0.000000
0.000000 0.000000 0.000000
0.000000 0.000000 0.000000
0.000000 0.000000 0.000000
0.000000 0.000000 0.000000
0.000000 0.000000 0.000000
0.000000 0.000000 0.000000
0.000000 0.000000 0.000000
0.000000 0.000000 0.000000
0.000000 0.000000 0.000000
0.000000 0.000000 0.000000
0.000000 0.000000 0.000000
0.000000 0.000000 0.000000
0.000000 0.000000 0.000000
0.000000 0.000000 0.000000
0.000000 0.000000 0.000000
0.000000 0.000000 0.000000
0.000000 0.000000 0.000000
0.000000 0.000000 0.000000
0.000000 0.000000 0.000000
0.000000 0.000000 0.000000
0.000000 0.000000 0.000000
0.000000 0.000000 0.000000
0.000000 0.000000 0.000000
0.000000 0.000000 0.000000
0.000000 0.000000 0.000000
0.000000 0.000000 0.000000
0.000000 0.000000 0.000000
0.000000 0.000000 0.000000
0.000000 0.000000 0.000000
0.000000 0.000000 0.000000
0.000000 0.000000 0.000000
0.000000 0.000000 0.000000
0.000000 0.000000 0.000000
0.000000 0.000000 0.000000
0.000000 0.000000 0.000000
0.000000 0.000000 0.000000
0.000000 0.000000 0.000000
0.000000 0.000000 0.000000
0.000000 0.000000 0.000000
0.000000 0.000000 0.000000
0.000000 0.000000 0.000000
0.000000 0.000000 0.000000
0.000000 0.000000 0.000000
0.000000 0.000000 0.000000
0.000000 0.000000 0.000000
0.000000 0.000000 0.000000
0.000000 0.000000 0.000000
0.000000 0.000000 0.000000
0.000000 0.000000 0.000000
0.000000 0.000000 0.000000
0.000000 0.000000 0.000000
0.000000 0.000000 0.000000
0.000000 0.000000 0.000000
0.000000 0.000000 0.000000
0.000000 0.000000 0.000000
0.000000 0.000000 0.000000
0.000000 0.000000 0.000000
0.000000 0.000000 0.000000
0.000000 0.000000 0.000000
0.000000 0.000000 0.000000
0.000000 0.000000 0.000000
0.000000 0.000000 0.000000
0.000000 0.000000 0.000000
0.000000 0.000000 0.000000
0.000000 0.000000 0.000000
0.000000 0.000000 0.000000
0.000000 0.000000 0.000000
0.000000 0.000000 0.000000
0.000000 0.000000 0.000000
0.000000 0.000000 0.000000
0.000000 0.000000 0.000000
0.000000 0.000000 0.000000
0.000000 0.000000 0.000000
0.000000 0.000000 0.000000
0.000000 0.000000 0.000000
0.000000 0.000000 0.000000
0.000000 0.000000 0.000000
0.000000 0.000000 0.000000
0.000000 0.000000 0.000000
0.000000 0.000000 0.000000
0.000000 0.000000 0.000000
0.000000 0.000000 0.000000
0.000000 0.000000 0.000000
0.000000 0.000000 0.000000
0.000000 0.000000 0.000000
0.000000 0.000000 0.000000
0.000000 0.000000 0.000000
0.000000 0.000000 0.000000
0.000000 0.000000 0.000000
0.000000 0.000000 0.000000
0.000000 0.000000 0.000000
0.000000 0.000000 0.000000
0.000000 0.000000 0.000000
0.000000 0.000000 0.000000
0.000000 0.000000 0.000000
0.000000 0.000000 0.000000
0.000000 0.000000 0.000000
0.000000 0.000000 0.000000
0.000000 0.000000 0.000000
0.000000 0.000000 0.000000
0.000000 0.000000 0.000000
0.000000 0.000000 0.000000
0.000000 0.000000 0.000000
0.000000 0.000000 0.000000
0.000000 0.000000 0.000000
0.000000 0.000000 0.000000
0.000000 0.000000 0.000000
0.000000 0.000000 0.000000
0.000000 0.000000 0.000000
0.000000 0.000000 0.000000
0.000000 0.000000 0.000000
0.000000 0.000000 0.000000
0.000000 0.000000 0.000000
0.000000 0.000000 0.000000
0.000000 0.000000 0.000000
0.000000 0.000000 0.000000
0.000000 0.000000 0.000000
0.000000 0.000000 0.000000
0.000000 0.000000 0.000000
0.000000 0.000000 0.000000
0.000000 0.000000 0.000000
0.000000 0.000000 0.000000
0.000000 0.000000 0.000000
0.000000 0.000000 0.000000
0.000000 0.000000 0.000000
0.000000 0.000000 0.000000
0.000000 0.000000 0.000000
0.000000 0.000000 0.000000
0.000000 0.000000 0.000000
0.000000 0.000000 0.000000
0.000000 0.000000 0.000000
0.000000 0.000000 0.000000
0.000000 0.000000 0.000000
0.000000 0.000000 0.000000
0.000000 0.000000 0.000000
0.000000 0.000000 0.000000
0.000000 0.000000 0.000000
0.000000 0.000000 0.000000
0.000000 0.000000 0.000000
0.000000 0.000000 0.000000
0.000000 0.000000 0.000000
0.000000 0.000000 0.000000
0.000000 0.000000 0.000000
0.000000 0.000000 0.000000
0.000000 0.000000 0.000000
0.000000 0.000000 0.000000
0.000000 0.000000 0.000000
0.000000 0.000000 0.000000
0.000000 0.000000 0.000000
0.000000 0.000000 0.000000
0.000000 0.000000 0.000000
0.000000 0.000000 0.000000
0.000000 0.000000 0.000000
0.000000 0.000000 0.000000
0.000000 0.000000 0.000000
0.000000 0.000000 0.000000
0.000000 0.000000 0.000000
0.000000 0.000000 0.000000
0.000000 0.000000 0.000000
0.000000 0.000000 0.000000
0.000000 0.000000 0.000000
0.000000 0.000000 0.000000
0.000000 0.000000 0.000000
0.000000 0.000000 0.000000
0.000000 0.000000 0.000000
0.000000 0.000000 0.000000
0.000000 0.000000 0.000000
0.000000 0.000000 0.000000
0.000000 0.000000 0.000000
0.000000 0.000000 0.000000
0.000000 0.000000 0.000000
0.000000 0.000000 0.000000
0.000000 0.000000 0.000000
0.000000 0.000000 0.000000
0.000000 0.000000 0.000000
0.000000 0.000000 0.000000
0.000000 0.000000 0.000000
0.000000 0.000000 0.000000
0.000000 0.000000 0.000000
0.000000 0.000000 0.000000
0.000000 0.000000 0.000000
0.000000 0.000000 0.000000
0.000000 0.000000 0.000000
0.000000 0.000000 0.000000
0.000000 0.000000 0.000000
0.000000 0.000000 0.000000
0.000000 0.000000 0.000000
0.000000 0.000000 0.000000
0.000000 0.000000 0.000000
0.000000 0.000000 0.000000
0.000000 0.000000 0.000000
0.000000 0.000000 0.000000
0.000000 0.000000 0.000000
0.000000 0.000000 0.000000
0.000000 0.000000 0.000000
0.000000 0.000000 0.000000
0.000000 0.000000 0.000000
0.000000 0.000000 0.000000
0.000000 0.000000 0.000000
0.000000 0.000000 0.000000
0.000000 0.000000 0.000000
0.000000 0.000000 0.000000
0.000000 0.000000 0.000000
0.000000 0.000000 0.000000
0.000000 0.000000 0.000000
0.000000 0.000000 0.000000
0.000000 0.000000 0.000000
0.000000 0.000000 0.000000
0.000000 0.000000 0.000000
0.000000 0.000000 0.000000
0.000000 0.000000 0.000000
0.000000 0.000000 0.000000
0.000000 0.000000 0.000000
0.000000 0.000000 0.000000
0.000000 0.000000 0.000000
0.000000 0.000000 0.000000
0.000000 0.000000 0.000000
0.000000 0.000000 0.000000
0.000000 0.000000 0.000000
0.000000 0.000000 0.000000
0.000000 0.000000 0.000000
0.000000 0.000000 0.000000
0.000000 0.000000 0.000000
0.000000 0.000000 0.000000
0.000000 0.000000 0.000000
0.000000 0.000000 0.000000
0.000000 0.000000 0.000000
0.000000 0.000000 0.000000
0.000000 0.000000 0.000000
0.000000 0.000000 0.000000
0.000000 0.000000 0.000000
0.000000 0.000000 0.000000
0.000000 0.000000 0.000000
0.000000 0.000000 0.000000
0.000000 0.000000 0.000000
0.000000 0.000000 0.000000
0.000000 0.000000 0.000000
0.000000 0.000000 0.000000
0.000000 0.000000 0.000000
0.000000 0.000000 0.000000
0.000000 0.000000 0.000000
0.000000 0.000000 0.000000
0.000000 0.000000 0.000000
0.000000 0.000000 0.000000
0.000000 0.000000 0.000000
0.000000 0.000000 0.000000
0.000000 0.000000 0.000000
0.000000 0.000000 0.000000
0.000000 0.000000 0.000000
0.000000 0.000000 0.000000
0.000000 0.000000 0.000000
0.000000 0.000000 0.000000
0.000000 0.000000 0.000000
0.000000 0.000000 0.000000
0.000000 0.000000 0.000000
0.000000 0.000000 0.000000
0.000000 0.000000 0.000000
0.000000 0.000000 0.000000
0.000000 0.000000 0.000000
0.000000 0.000000 0.000000
0.000000 0.000000 0.000000
0.000000 0.000000 0.000000
0.000000 0.000000 0.000000
0.000000 0.000000 0.000000
0.000000 0.000000 0.000000
0.000000 0.000000 0.000000
0.000000 0.000000 0.000000
0.000000 0.000000 0.000000
0.000000 0.000000 0.000000
0.000000 0.000000 0.000000
0.000000 0.000000 0.000000
0.000000 0.000000 0.000000
0.000000 0.000000 0.000000
0.000000 0.000000 0.000000
0.000000 0.000000 0.000000
0.000000 0.000000 0.000000
0.000000 0.000000 0.000000
0.000000 0.000000 0.000000
0.000000 0.000000 -50.000000
-50.000000 0.000000 -50.000000
-43.333281 0.000000 -45.688282
-45.491053 0.000000 -43.333278
-50.000000 0.000000 -50.000000
-36.666560 0.000000 -36.666571
-50.000000 0.000000 -45.081008
-39.969715 0.000000 -40.027029
-44.152173 0.000000 -29.999861
-50.000000 0.000000 -50.000000
-29.999844 0.000000 -44.846976
-33.448851 0.000000 -33.144800
-44.675574 0.000000 -39.868990
-36.786910 0.000000 -35.128497
-39.801165 0.000000 -23.333169
-50.000000 0.000000 -26.539038
-44.666686 0.000000 -50.000000
-23.333150 0.000000 -44.665226
-26.803836 0.000000 -39.364138
-30.225588 0.000000 -29.606097
-39.359249 0.000000 -33.368048
-33.655311 0.000000 -50.000000
-16.666489 0.000000 -16.666512
-50.000000 0.000000 -9.999891
