# vtk DataFile Version 2.0
CellBP Time: 6.4
ASCII
DATASET UNSTRUCTURED_GRID
POINTS 320 double
-50.000000 -50.000000 0.000000
-50.000000 -43.332357 0.000000
-45.688608 -45.491331 0.000000
-43.332215 -50.000000 0.000000
-50.000000 -36.664654 0.000000
-36.664708 -50.000000 0.000000
-45.081358 -39.969916 0.000000
-40.027535 -44.152466 0.000000
-29.997127 -50.000000 0.000000
-50.000000 -29.997044 0.000000
-44.847322 -33.449026 0.000000
-33.145189 -44.675893 0.000000
-39.869423 -36.787131 0.000000
-35.129012 -39.801557 0.000000
-23.329935 -50.000000 0.000000
-26.539451 -44.666840 0.000000
-50.000000 -23.329874 0.000000
-44.665372 -26.804078 0.000000
-39.364458 -30.225833 0.000000
-29.606676 -39.359562 0.000000
-33.368645 -33.655679 0.000000
-50.000000 -16.663342 0.000000
-16.663469 -50.000000 0.000000
-9.997742 -50.000000 0.000000
-19.965237 -44.588718 0.000000
-23.216186 -39.114757 0.000000
-44.691826 -20.097063 0.000000
-39.367939 -23.528197 0.000000
-34.106382 -26.937127 0.000000
-26.384805 -33.577547 0.000000
-29.156597 -28.926869 0.000000
-50.000000 -9.997367 0.000000
-44.666307 -13.410312 0.000000
-50.000000 -3.332097 0.000000
-3.332620 -50.000000 0.000000
3.332353 -50.000000 0.000000
-13.344021 -44.598893 0.000000
-6.684944 -44.610498 0.000000
-16.693972 -39.153118 0.000000
-20.107172 -33.342630 0.000000
-39.338118 -16.804619 0.000000
-34.019014 -20.274516 0.000000
-28.781391 -23.449245 0.000000
-23.510813 -27.350984 0.000000
-44.635299 -6.705503 0.000000
-39.293119 -10.101696 0.000000
-50.000000 3.332809 0.000000
-44.626531 -0.015380 0.000000
9.997629 -50.000000 0.000000
16.663492 -50.000000 0.000000
-0.016171 -44.618593 0.000000
6.651782 -44.635343 0.000000
-10.044942 -39.222516 0.000000
-3.368292 -39.220206 0.000000
-13.484334 -33.798443 0.000000
-16.708907 -28.271602 0.000000
-33.947944 -13.513478 0.000000
-28.602703 -16.892024 0.000000
-23.292709 -20.313335 0.000000
-18.661006 -23.284563 0.000000
-39.267345 -3.392581 0.000000
-33.904492 -6.796699 0.000000
-50.000000 9.997848 0.000000
-44.606524 6.673801 0.000000
-39.260645 3.325842 0.000000
-50.000000 16.663537 0.000000
23.329957 -50.000000 0.000000
29.997033 -50.000000 0.000000
13.317781 -44.662924 0.000000
19.989933 -44.700091 0.000000
3.307641 -39.245097 0.000000
9.971890 -39.290370 0.000000
-6.735672 -33.791338 0.000000
-0.032149 -33.829428 0.000000
-10.096007 -28.292363 0.000000
-13.122663 -22.896044 0.000000
-28.531477 -10.214103 0.000000
-23.067876 -13.663778 0.000000
-16.979163 -17.212616 0.000000
-33.884193 -0.065461 0.000000
-28.562754 -3.580129 0.000000
-44.563958 13.380979 0.000000
-39.189863 10.015259 0.000000
-33.905452 6.616108 0.000000
-50.000000 23.329789 0.000000
-44.557338 20.138593 0.000000
-50.000000 29.997145 0.000000
36.664561 -50.000000 0.000000
43.332240 -50.000000 0.000000
26.663529 -44.745390 0.000000
33.315502 -44.876146 0.000000
16.631749 -39.357673 0.000000
23.328421 -39.437181 0.000000
6.642974 -33.879584 0.000000
13.290498 -33.965425 0.000000
-3.346370 -28.363729 0.000000
3.358345 -28.451177 0.000000
-6.626269 -22.844860 0.000000
-9.962232 -17.315319 0.000000
-23.180444 -7.014134 0.000000
-17.813976 -10.334935 0.000000
-12.837943 -12.608520 0.000000
-28.607317 3.088737 0.000000
-23.266674 -0.469838 0.000000
-39.038438 16.746385 0.000000
-28.720071 9.925827 0.000000
-33.760776 13.318012 0.000000
-44.521716 26.717349 0.000000
-38.467785 23.892780 0.000000
-44.632745 33.086007 0.000000
-50.000000 36.665076 0.000000
-50.000000 43.332497 0.000000
39.922556 -45.069772 0.000000
45.474925 -45.660658 0.000000
50.000000 -50.000000 0.000000
36.626937 -39.982112 0.000000
30.012570 -39.458742 0.000000
19.904210 -34.092985 0.000000
26.585141 -34.319652 0.000000
9.988450 -28.512688 0.000000
16.610532 -28.660465 0.000000
0.050456 -22.963180 0.000000
6.812073 -23.155142 0.000000
-3.397836 -17.296886 0.000000
-6.806248 -10.895834 0.000000
-17.873877 -3.813773 0.000000
-12.548959 -7.033785 0.000000
-23.308180 6.069651 0.000000
-18.033926 2.439018 0.000000
-23.123653 12.096302 0.000000
-33.572152 19.788963 0.000000
-27.941744 16.886373 0.000000
-33.293288 24.723066 0.000000
-39.474080 30.053370 0.000000
-35.160928 28.137872 0.000000
-39.816515 35.101824 0.000000
-43.991962 39.982712 0.000000
-45.431169 45.685482 0.000000
-50.000000 50.000000 0.000000
44.117450 -39.899298 0.000000
50.000000 -43.331883 0.000000
39.639639 -35.047618 0.000000
33.463032 -33.424715 0.000000
22.985004 -28.818217 0.000000
28.731091 -29.247971 0.000000
13.460794 -23.121834 0.000000
20.054938 -23.439809 0.000000
3.366633 -17.590520 0.000000
10.122964 -17.843160 0.000000
0.165452 -11.809304 0.000000
-2.127670 -6.169307 0.000000
-7.183273 -3.577940 0.000000
-12.458393 -0.807904 0.000000
-18.173067 8.573235 0.000000
-12.937260 5.196523 0.000000
-18.637910 13.751025 0.000000
-21.503711 17.494080 0.000000
-28.941114 23.159315 0.000000
-24.346451 21.554250 0.000000
-30.324040 28.635231 0.000000
-34.253885 33.375714 0.000000
-36.956157 39.578192 0.000000
-39.838775 45.102973 0.000000
-43.332198 50.000000 0.000000
44.585421 -32.972291 0.000000
50.000000 -36.664206 0.000000
39.129398 -29.582076 0.000000
33.500736 -26.367800 0.000000
27.183262 -23.322128 0.000000
23.067289 -18.647987 0.000000
16.992360 -16.982271 0.000000
6.699054 -12.193216 0.000000
12.371775 -12.736945 0.000000
-3.366493 -1.485224 0.000000
3.806375 -6.799172 0.000000
1.023666 -2.120608 0.000000
-6.872228 2.272482 0.000000
-8.262774 7.674153 0.000000
-12.841681 11.928196 0.000000
-15.690617 17.698938 0.000000
-19.287473 22.981375 0.000000
-24.171009 27.354395 0.000000
-27.286431 33.625800 0.000000
-30.406813 39.161034 0.000000
-33.447983 44.738888 0.000000
-36.664462 50.000000 0.000000
44.547758 -26.500168 0.000000
50.000000 -29.996592 0.000000
39.040011 -23.179376 0.000000
33.449535 -19.900009 0.000000
28.039654 -16.573374 0.000000
22.679787 -13.123680 0.000000
17.175741 -9.900465 0.000000
10.794205 -6.583727 0.000000
-1.358942 2.319703 0.000000
6.142226 -1.712744 0.000000
2.889225 1.593438 0.000000
-3.459571 7.004230 0.000000
-6.313629 12.428327 0.000000
-9.629336 17.711200 0.000000
-13.168000 23.114505 0.000000
-17.316936 28.185052 0.000000
-20.571061 33.474183 0.000000
-23.666158 39.063899 0.000000
-26.831275 44.585341 0.000000
-29.997118 50.000000 0.000000
44.528635 -19.930956 0.000000
50.000000 -23.329472 0.000000
39.036142 -16.594241 0.000000
33.575804 -13.281278 0.000000
28.149165 -9.965139 0.000000
22.724689 -6.604844 0.000000
17.264922 -3.335224 0.000000
11.818518 0.214776 0.000000
1.910144 6.208838 0.000000
6.825108 3.721864 0.000000
-0.225478 11.786051 0.000000
-3.249435 17.531414 0.000000
-6.699042 22.976444 0.000000
-10.567139 28.267205 0.000000
-13.724311 33.660944 0.000000
-16.945960 39.080128 0.000000
-20.141021 44.548339 0.000000
-23.330166 50.000000 0.000000
44.536135 -13.304089 0.000000
50.000000 -16.663072 0.000000
39.079755 -9.966912 0.000000
33.646547 -6.641451 0.000000
28.236674 -3.308127 0.000000
22.849776 0.017319 0.000000
17.538058 3.342437 0.000000
12.183233 6.582849 0.000000
6.662238 10.708696 0.000000
3.302330 17.199762 0.000000
-0.080672 22.854566 0.000000
-3.519115 28.313131 0.000000
-6.831756 33.774643 0.000000
-10.137806 39.170500 0.000000
-13.436223 44.563444 0.000000
-16.663823 50.000000 0.000000
44.554122 -6.655006 0.000000
50.000000 -9.997465 0.000000
39.123176 -3.321482 0.000000
33.713305 0.008780 0.000000
28.333325 3.345056 0.000000
22.999488 6.693877 0.000000
17.834495 10.018815 0.000000
12.658486 12.243053 0.000000
9.784508 17.232968 0.000000
6.479599 22.722455 0.000000
3.189382 28.270321 0.000000
-0.116063 33.734933 0.000000
-3.425361 39.168701 0.000000
-6.725795 44.581721 0.000000
-9.998033 50.000000 0.000000
44.575488 0.001778 0.000000
50.000000 -3.332478 0.000000
39.166880 3.331797 0.000000
33.779518 6.655623 0.000000
28.423883 9.994725 0.000000
23.046525 13.416157 0.000000
16.950924 17.024336 0.000000
12.901588 22.667308 0.000000
9.815444 28.231732 0.000000
6.604404 33.718817 0.000000
3.286537 39.164437 0.000000
-0.029975 44.584496 0.000000
-3.332684 50.000000 0.000000
44.586658 6.665636 0.000000
50.000000 3.332435 0.000000
39.198206 9.982020 0.000000
33.843519 13.276898 0.000000
28.542378 16.584323 0.000000
23.387708 20.084274 0.000000
18.532010 23.113430 0.000000
16.392607 28.298511 0.000000
13.329051 33.754751 0.000000
9.986718 39.181953 0.000000
6.666139 44.584238 0.000000
3.332522 50.000000 0.000000
44.608886 13.318261 0.000000
50.000000 9.997739 0.000000
39.251397 16.612591 0.000000
33.932053 19.862897 0.000000
28.612582 22.925997 0.000000
23.279696 27.207797 0.000000
19.901428 33.302868 0.000000
16.574090 39.040838 0.000000
13.268694 44.526639 0.000000
9.997811 50.000000 0.000000
44.632071 19.973366 0.000000
50.000000 16.663643 0.000000
39.298563 23.262353 0.000000
34.043961 26.514883 0.000000
28.965981 28.539505 0.000000
26.202587 33.410186 0.000000
23.066955 38.968801 0.000000
19.888958 44.507022 0.000000
16.663511 50.000000 0.000000
44.639893 26.643273 0.000000
50.000000 23.330114 0.000000
39.293511 29.966959 0.000000
33.212604 33.371452 0.000000
29.412414 39.045942 0.000000
26.422725 44.506009 0.000000
23.329899 50.000000 0.000000
44.775166 33.292062 0.000000
50.000000 29.997154 0.000000
39.738349 36.596499 0.000000
34.831299 39.525856 0.000000
32.834108 44.514477 0.000000
29.996922 50.000000 0.000000
44.978435 39.878080 0.000000
50.000000 36.664628 0.000000
39.735207 43.969252 0.000000
36.664423 50.000000 0.000000
45.621521 45.410047 0.000000
50.000000 43.332261 0.000000
43.331994 50.000000 0.000000
50.000000 50.000000 0.000000
CELLS 578 2312
3 1 0 2
3 0 3 2
3 4 1 6
3 6 1 2
3 3 5 7
3 3 7 2
3 6 2 7
3 9 4 10
3 10 4 6
3 5 8 11
3 7 5 11
3 10 6 12
3 12 6 7
3 7 11 13
3 7 13 12
3 8 14 15
3 11 8 15
3 16 9 17
3 17 9 10
3 17 10 18
3 18 10 12
3 11 15 19
3 13 11 19
3 18 12 20
3 13 19 20
3 20 12 13
3 14 22 24
3 15 14 24
3 15 24 25
3 19 15 25
3 21 16 26
3 26 16 17
3 26 17 27
3 27 17 18
3 27 18 28
3 28 18 20
3 19 25 29
3 19 29 20
3 28 20 30
3 30 20 29
3 31 21 32
3 32 21 26
3 22 23 36
3 24 22 36
3 23 34 37
3 36 23 37
3 24 36 38
3 25 24 38
3 25 38 39
3 29 25 39
3 32 26 40
3 40 26 27
3 40 27 41
3 41 27 28
3 41 28 42
3 42 28 30
3 29 39 43
3 29 43 30
3 42 30 43
3 33 31 44
3 44 31 32
3 44 32 45
3 45 32 40
3 46 33 47
3 47 33 44
3 34 35 50
3 37 34 50
3 35 48 51
3 50 35 51
3 36 37 52
3 38 36 52
3 37 50 53
3 52 37 53
3 38 52 54
3 39 38 54
3 39 54 55
3 43 39 55
3 45 40 56
3 56 40 41
3 56 41 57
3 57 41 42
3 57 42 58
3 58 42 43
3 43 55 59
3 43 59 58
3 47 44 60
3 60 44 45
3 60 45 61
3 61 45 56
3 62 46 63
3 63 46 47
3 63 47 64
3 64 47 60
3 48 49 68
3 51 48 68
3 49 66 69
3 68 49 69
3 50 51 70
3 53 50 70
3 51 68 71
3 70 51 71
3 52 53 72
3 54 52 72
3 53 70 73
3 72 53 73
3 54 72 74
3 55 54 74
3 55 74 75
3 59 55 75
3 61 56 76
3 76 56 57
3 76 57 77
3 77 57 58
3 77 58 78
3 59 75 78
3 78 58 59
3 64 60 79
3 79 60 61
3 79 61 80
3 80 61 76
3 65 62 81
3 81 62 63
3 81 63 82
3 82 63 64
3 82 64 83
3 83 64 79
3 84 65 85
3 85 65 81
3 66 67 89
3 69 66 89
3 67 87 90
3 89 67 90
3 68 69 91
3 71 68 91
3 69 89 92
3 91 69 92
3 70 71 93
3 73 70 93
3 71 91 94
3 93 71 94
3 72 73 95
3 74 72 95
3 73 93 96
3 95 73 96
3 74 95 97
3 75 74 97
3 75 97 98
3 78 75 98
3 80 76 99
3 99 76 77
3 99 77 100
3 100 77 78
3 100 78 101
3 98 101 78
3 83 79 102
3 102 79 80
3 102 80 103
3 103 80 99
3 85 81 104
3 104 81 82
3 105 83 102
3 104 82 106
3 106 82 83
3 106 83 105
3 86 84 107
3 107 84 85
3 107 85 108
3 108 85 104
3 109 86 107
3 110 86 109
3 87 88 112
3 90 87 112
3 112 88 113
3 88 114 113
3 90 112 115
3 89 90 116
3 92 89 116
3 116 90 115
3 91 92 117
3 94 91 117
3 92 116 118
3 117 92 118
3 93 94 119
3 96 93 119
3 94 117 120
3 119 94 120
3 95 96 121
3 97 95 121
3 96 119 122
3 121 96 122
3 97 121 123
3 98 97 123
3 98 123 124
3 98 124 101
3 103 99 125
3 125 99 100
3 125 100 126
3 126 100 101
3 126 101 124
3 105 102 127
3 127 102 103
3 127 103 128
3 128 103 125
3 129 105 127
3 108 104 130
3 130 104 106
3 130 106 131
3 131 106 105
3 131 105 129
3 108 130 132
3 109 107 133
3 133 107 108
3 133 108 134
3 108 132 134
3 135 109 133
3 111 110 136
3 136 110 109
3 136 109 135
3 137 111 136
3 138 111 137
3 112 113 139
3 115 112 139
3 114 140 113
3 140 139 113
3 139 141 115
3 116 115 142
3 118 116 142
3 142 115 141
3 117 118 143
3 120 117 143
3 118 142 144
3 143 118 144
3 119 120 145
3 122 119 145
3 120 143 146
3 145 120 146
3 121 122 147
3 123 121 147
3 122 145 148
3 147 122 148
3 123 147 149
3 124 123 149
3 124 149 150
3 151 126 124
3 124 150 151
3 128 125 152
3 152 125 126
3 152 126 151
3 129 127 153
3 153 127 128
3 128 152 154
3 153 128 154
3 155 129 153
3 131 129 156
3 156 129 155
3 132 130 157
3 130 131 157
3 157 131 158
3 131 156 158
3 132 157 159
3 132 159 134
3 135 133 160
3 160 133 134
3 160 134 159
3 136 135 161
3 135 160 161
3 162 137 136
3 161 162 136
3 163 138 137
3 162 163 137
3 139 164 141
3 140 165 139
3 139 165 164
3 141 164 166
3 141 166 142
3 166 167 142
3 144 142 167
3 167 168 144
3 143 144 168
3 146 143 168
3 168 169 146
3 145 146 170
3 148 145 170
3 170 146 169
3 147 148 171
3 149 147 171
3 148 170 172
3 171 148 172
3 173 151 150
3 149 171 174
3 150 149 174
3 150 174 175
3 150 175 173
3 154 152 176
3 152 151 176
3 176 151 173
3 154 176 177
3 155 153 178
3 177 178 154
3 154 178 153
3 156 155 179
3 155 178 179
3 180 158 156
3 179 180 156
3 181 159 157
3 180 181 158
3 181 157 158
3 182 160 159
3 181 182 159
3 183 161 160
3 182 183 160
3 184 162 161
3 184 161 183
3 185 163 162
3 184 185 162
3 164 186 166
3 165 187 164
3 164 187 186
3 166 186 188
3 166 188 167
3 167 188 189
3 167 189 168
3 168 189 190
3 168 190 169
3 169 190 191
3 169 191 170
3 192 172 170
3 170 191 192
3 192 193 172
3 171 172 193
3 174 171 193
3 194 173 175
3 176 173 194
3 175 174 195
3 193 195 174
3 195 196 175
3 175 196 194
3 197 177 176
3 194 197 176
3 198 178 177
3 197 198 177
3 199 179 178
3 198 199 178
3 200 180 179
3 199 200 179
3 201 181 180
3 200 201 180
3 202 182 181
3 201 202 181
3 203 183 182
3 202 203 182
3 204 184 183
3 203 204 183
3 205 185 184
3 204 205 184
3 186 206 188
3 187 207 186
3 186 207 206
3 188 206 208
3 188 208 189
3 189 208 209
3 189 209 190
3 190 209 210
3 190 210 191
3 191 210 211
3 191 211 192
3 192 211 212
3 192 212 193
3 193 212 213
3 193 213 195
3 214 197 194
3 214 194 196
3 195 213 215
3 195 215 196
3 196 215 214
3 216 198 197
3 214 216 197
3 217 199 198
3 216 217 198
3 218 200 199
3 217 218 199
3 219 201 200
3 218 219 200
3 220 202 201
3 219 220 201
3 221 203 202
3 220 221 202
3 222 204 203
3 221 222 203
3 223 205 204
3 222 223 204
3 206 224 208
3 207 225 206
3 206 225 224
3 208 224 226
3 208 226 209
3 209 226 227
3 209 227 210
3 210 227 228
3 210 228 211
3 211 228 229
3 211 229 212
3 212 229 230
3 212 230 213
3 213 230 231
3 213 231 215
3 232 216 214
3 215 231 232
3 232 214 215
3 233 217 216
3 232 233 216
3 234 218 217
3 233 234 217
3 235 219 218
3 234 235 218
3 236 220 219
3 235 236 219
3 237 221 220
3 236 237 220
3 238 222 221
3 237 238 221
3 239 223 222
3 238 239 222
3 224 240 226
3 225 241 224
3 224 241 240
3 226 240 242
3 226 242 227
3 227 242 243
3 227 243 228
3 228 243 244
3 228 244 229
3 244 245 229
3 229 245 230
3 230 245 246
3 230 246 231
3 231 246 247
3 231 247 232
3 248 233 232
3 248 232 247
3 249 234 233
3 248 249 233
3 250 235 234
3 249 250 234
3 251 236 235
3 250 251 235
3 252 237 236
3 251 252 236
3 253 238 237
3 252 253 237
3 254 239 238
3 253 254 238
3 240 255 242
3 241 256 240
3 240 256 255
3 242 255 257
3 242 257 243
3 243 257 258
3 243 258 244
3 244 258 259
3 244 259 245
3 245 259 260
3 245 260 246
3 246 260 261
3 246 261 247
3 248 247 261
3 262 249 248
3 261 262 248
3 263 250 249
3 262 263 249
3 264 251 250
3 263 264 250
3 265 252 251
3 264 265 251
3 266 253 252
3 265 266 252
3 267 254 253
3 266 267 253
3 255 268 257
3 256 269 255
3 255 269 268
3 257 268 270
3 257 270 258
3 258 270 271
3 258 271 259
3 259 271 272
3 259 272 260
3 260 272 273
3 260 273 261
3 274 262 261
3 261 273 274
3 275 263 262
3 274 275 262
3 276 264 263
3 275 276 263
3 277 265 264
3 276 277 264
3 278 266 265
3 277 278 265
3 279 267 266
3 278 279 266
3 268 280 270
3 269 281 268
3 268 281 280
3 270 280 282
3 270 282 271
3 271 282 283
3 271 283 272
3 283 284 272
3 272 284 273
3 285 275 274
3 273 284 285
3 285 274 273
3 286 276 275
3 285 286 275
3 287 277 276
3 286 287 276
3 288 278 277
3 287 288 277
3 289 279 278
3 288 289 278
3 280 290 282
3 281 291 280
3 280 291 290
3 282 290 292
3 282 292 283
3 283 292 293
3 283 293 284
3 284 293 294
3 284 294 285
3 295 286 285
3 295 285 294
3 296 287 286
3 295 296 286
3 297 288 287
3 296 297 287
3 298 289 288
3 297 298 288
3 290 299 292
3 291 300 290
3 290 300 299
3 292 299 301
3 292 301 293
3 293 301 302
3 293 302 294
3 294 302 295
3 303 296 295
3 303 295 302
3 304 297 296
3 303 304 296
3 305 298 297
3 304 305 297
3 299 306 301
3 300 307 299
3 299 307 306
3 301 306 308
3 301 308 302
3 309 303 302
3 302 308 309
3 310 304 303
3 309 310 303
3 311 305 304
3 310 311 304
3 306 312 308
3 307 313 306
3 306 313 312
3 314 310 309
3 308 312 314
3 314 309 308
3 315 311 310
3 314 315 310
3 312 316 314
3 313 317 312
3 312 317 316
3 318 315 314
3 318 314 316
3 317 319 316
3 319 318 316
CELL_TYPES 578
5
5
5
5
5
5
5
5
5
5
5
5
5
5
5
5
5
5
5
5
5
5
5
5
5
5
5
5
5
5
5
5
5
5
5
5
5
5
5
5
5
5
5
5
5
5
5
5
5
5
5
5
5
5
5
5
5
5
5
5
5
5
5
5
5
5
5
5
5
5
5
5
5
5
5
5
5
5
5
5
5
5
5
5
5
5
5
5
5
5
5
5
5
5
5
5
5
5
5
5
5
5
5
5
5
5
5
5
5
5
5
5
5
5
5
5
5
5
5
5
5
5
5
5
5
5
5
5
5
5
5
5
5
5
5
5
5
5
5
5
5
5
5
5
5
5
5
5
5
5
5
5
5
5
5
5
5
5
5
5
5
5
5
5
5
5
5
5
5
5
5
5
5
5
5
5
5
5
5
5
5
5
5
5
5
5
5
5
5
5
5
5
5
5
5
5
5
5
5
5
5
5
5
5
5
5
5
5
5
5
5
5
5
5
5
5
5
5
5
5
5
5
5
5
5
5
5
5
5
5
5
5
5
5
5
5
5
5
5
5
5
5
5
5
5
5
5
5
5
5
5
5
5
5
5
5
5
5
5
5
5
5
5
5
5
5
5
5
5
5
5
5
5
5
5
5
5
5
5
5
5
5
5
5
5
5
5
5
5
5
5
5
5
5
5
5
5
5
5
5
5
5
5
5
5
5
5
5
5
5
5
5
5
5
5
5
5
5
5
5
5
5
5
5
5
5
5
5
5
5
5
5
5
5
5
5
5
5
5
5
5
5
5
5
5
5
5
5
5
5
5
5
5
5
5
5
5
5
5
5
5
5
5
5
5
5
5
5
5
5
5
5
5
5
5
5
5
5
5
5
5
5
5
5
5
5
5
5
5
5
5
5
5
5
5
5
5
5
5
5
5
5
5
5
5
5
5
5
5
5
5
5
5
5
5
5
5
5
5
5
5
5
5
5
5
5
5
5
5
5
5
5
5
5
5
5
5
5
5
5
5
5
5
5
5
5
5
5
5
5
5
5
5
5
5
5
5
5
5
5
5
5
5
5
5
5
5
5
5
5
5
5
5
5
5
5
5
5
5
5
5
5
5
5
5
5
5
5
5
5
5
5
5
5
5
5
5
5
5
5
5
5
5
5
5
5
5
5
5
5
5
5
5
5
5
5
5
5
5
5
5
5
5
5
5
5
5
5
5
5
5
5
5
5
5
5
5
5
5
5
5
5
5
5
5
5
5
5
5
5
5
5
5
5
5
5
5
5
5
5
5
5
5
5
5
5
5
5
5
5
5
5
5
5
5
5
5
5
POINT_DATA 320
SCALARS theta_e float 1
LOOKUP_TABLE default
1.000000
1.000000
1.000000
1.000000
1.000000
1.000000
1.000000
1.000000
1.000000
1.000000
1.000000
1.000000
1.000000
1.000000
1.000000
1.000000
1.000000
1.000000
1.000000
1.000000
1.000000
1.000000
1.000000
1.000000
1.000000
1.000000
1.000000
1.000000
1.000000
1.000000
1.000000
1.000000
1.000000
1.000000
1.000000
1.000000
1.000000
1.000000
1.000000
1.000000
1.000000
1.000000
1.000000
1.000000
1.000000
1.000000
1.000000
1.000000
1.000000
1.000000
1.000000
1.000000
1.000000
1.000000
1.000000
1.000000
1.000000
1.000000
1.000000
1.000000
1.000000
1.000000
1.000000
1.000000
1.000000
1.000000
1.000000
1.000000
1.000000
1.000000
1.000000
1.000000
1.000000
1.000000
1.000000
1.000000
1.000000
1.000000
1.000000
1.000000
1.000000
1.000000
1.000000
1.000000
1.000000
1.000000
1.000000
1.000000
1.000000
1.000000
1.000000
1.000000
1.000000
1.000000
1.000000
1.000000
1.000000
1.000000
1.000000
1.000000
1.000001
1.000000
1.000000
1.000000
1.000000
1.000000
1.000000
1.000000
1.000000
1.000000
1.000000
1.000000
1.000000
1.000000
1.000000
1.000000
1.000000
1.000000
1.000000
1.000000
1.000000
1.000000
1.000000
1.000000
0.999998
1.000001
1.000000
1.000001
1.000001
1.000000
1.000000
1.000000
1.000000
1.000000
1.000000
1.000000
1.000000
1.000000
1.000000
1.000000
1.000000
1.000000
1.000000
1.000000
1.000000
1.000000
1.000000
1.000000
1.000000
0.999997
0.999991
0.999994
0.999998
1.000001
0.999999
1.000001
1.000000
1.000000
1.000000
1.000000
1.000000
1.000000
1.000000
1.000000
1.000000
1.000000
1.000000
1.000000
1.000000
1.000000
1.000000
0.999999
1.000000
0.999988
0.999993
0.999988
0.999992
0.999997
1.000000
1.000001
1.000000
1.000000
1.000000
1.000000
1.000000
1.000000
1.000000
1.000000
1.000000
1.000000
1.000000
1.000000
1.000000
0.999998
0.999989
0.999991
0.999988
0.999992
0.999999
1.000000
1.000000
1.000000
1.000000
1.000000
1.000000
1.000000
1.000000
1.000000
1.000000
1.000000
1.000000
1.000000
1.000000
0.999997
0.999991
0.999994
0.999997
1.000000
1.000000
1.000000
1.000000
1.000000
1.000000
1.000000
1.000000
1.000000
1.000000
1.000000
1.000000
1.000000
1.000000
1.000000
0.999998
1.000000
1.000000
1.000000
1.000000
1.000000
1.000000
1.000000
1.000000
1.000000
1.000000
1.000000
1.000000
1.000000
1.000000
1.000000
1.000000
1.000000
1.000000
1.000000
1.000000
1.000000
1.000000
1.000000
1.000000
1.000000
1.000000
1.000000
1.000000
1.000000
1.000000
1.000000
1.000000
1.000000
1.000000
1.000000
1.000000
1.000000
1.000000
1.000000
1.000000
1.000000
1.000000
1.000000
1.000000
1.000000
1.000000
1.000000
1.000000
1.000000
1.000000
1.000000
1.000000
1.000000
1.000000
1.000000
1.000000
1.000000
1.000000
1.000000
1.000000
1.000000
1.000000
1.000000
1.000000
1.000000
1.000000
1.000000
1.000000
1.000000
1.000000
1.000000
1.000000
1.000000
1.000000
1.000000
1.000000
1.000000
1.000000
1.000000
1.000000
1.000000
1.000000
1.000000
1.000000
1.000000
1.000000
1.000000
VECTORS fa_u float
0.000000 0.000000 0.000000
0.000000 0.000000 0.000000
0.000000 0.000000 0.000000
0.000000 0.000000 0.000000
0.000000 0.000000 0.000000
0.000000 0.000000 0.000000
0.000000 0.000000 0.000000
0.000000 0.000000 0.000000
0.000000 0.000000 0.000000
0.000000 0.000000 0.000000
0.000000 0.000000 0.000000
0.000000 0.000000 0.000000
0.000000 0.000000 0.000000
0.000000 0.000000 0.000000
0.000000 0.000000 0.000000
0.000000 0.000000 0.000000
0.000000 0.000000 0.000000
0.000000 0.000000 0.000000
0.000000 0.000000 0.000000
0.000000 0.000000 0.000000
0.000000 0.000000 0.000000
0.000000 0.000000 0.000000
0.000000 0.000000 0.000000
0.000000 0.000000 0.000000
0.000000 0.000000 0.000000
0.000000 0.000000 0.000000
0.000000 0.000000 0.000000
0.000000 0.000000 0.000000
0.000000 0.000000 0.000000
0.000000 0.000000 0.000000
0.000000 0.000000 0.000000
0.000000 0.000000 0.000000
0.000000 0.000000 0.000000
0.000000 0.000000 0.000000
0.000000 0.000000 0.000000
0.000000 0.000000 0.000000
0.000000 0.000000 0.000000
0.000000 0.000000 0.000000
0.000000 0.000000 0.000000
0.000000 0.000000 0.000000
0.000000 0.000000 0.000000
0.000000 0.000000 0.000000
0.000000 0.000000 0.000000
0.000000 0.000000 0.000000
0.000000 0.000000 0.000000
0.000000 0.000000 0.000000
0.000000 0.000000 0.000000
0.000000 0.000000 0.000000
0.000000 0.000000 0.000000
0.000000 0.000000 0.000000
0.000000 0.000000 0.000000
0.000000 0.000000 0.000000
0.000000 0.000000 0.000000
0.000000 0.000000 0.000000
0.000000 0.000000 0.000000
0.000000 0.000000 0.000000
0.000000 0.000000 0.000000
0.000000 0.000000 0.000000
0.000000 0.000000 0.000000
0.000000 0.000000 0.000000
0.000000 0.000000 0.000000
0.000000 0.000000 0.000000
0.000000 0.000000 0.000000
0.000000 0.000000 0.000000
0.000000 0.000000 0.000000
0.000000 0.000000 0.000000
0.000000 0.000000 0.000000
0.000000 0.000000 0.000000
0.000000 0.000000 0.000000
0.000000 0.000000 0.000000
0.000000 0.000000 0.000000
0.000000 0.000000 0.000000
0.000000 0.000000 0.000000
0.000000 0.000000 0.000000
0.000000 0.000000 0.000000
0.000000 0.000000 0.000000
0.000000 0.000000 0.000000
0.000000 0.000000 0.000000
0.000000 0.000000 0.000000
0.000000 0.000000 0.000000
0.000000 0.000000 0.000000
0.000000 0.000000 0.000000
0.000000 0.000000 0.000000
0.000000 0.000000 0.000000
0.000000 0.000000 0.000000
0.000000 0.000000 0.000000
0.000000 0.000000 0.000000
0.000000 0.000000 0.000000
0.000000 0.000000 0.000000
0.000000 0.000000 0.000000
0.000000 0.000000 0.000000
0.000000 0.000000 0.000000
0.000000 0.000000 0.000000
0.000000 0.000000 0.000000
0.000000 0.000000 0.000000
0.000000 0.000000 0.000000
0.000000 0.000000 0.000000
0.000000 0.000000 0.000000
0.000000 0.000000 0.000000
0.000000 0.000000 0.000000
0.000000 0.000000 0.000000
0.000000 0.000000 0.000000
0.000000 0.000000 0.000000
0.000000 0.000000 0.000000
0.000000 0.000000 0.000000
0.000000 0.000000 0.000000
0.000000 0.000000 0.000000
0.000000 0.000000 0.000000
0.000000 0.000000 0.000000
0.000000 0.000000 0.000000
0.000000 0.000000 0.000000
0.000000 0.000000 0.000000
0.000000 0.000000 0.000000
0.000000 0.000000 0.000000
0.000000 0.000000 0.000000
0.000000 0.000000 0.000000
0.000000 0.000000 0.000000
0.000000 0.000000 0.000000
0.000000 0.000000 0.000000
0.000000 0.000000 0.000000
0.000000 0.000000 0.000000
0.000000 0.000000 0.000000
0.000000 0.000000 0.000000
0.000000 0.000000 0.000000
0.000000 0.000000 0.000000
0.000000 0.000000 0.000000
0.000000 0.000000 0.000000
0.000000 0.000000 0.000000
0.000000 0.000000 0.000000
0.000000 0.000000 0.000000
0.000000 0.000000 0.000000
0.000000 0.000000 0.000000
0.000000 0.000000 0.000000
0.000000 0.000000 0.000000
0.000000 0.000000 0.000000
0.000000 0.000000 0.000000
0.000000 0.000000 0.000000
0.000000 0.000000 0.000000
0.000000 0.000000 0.000000
0.000000 0.000000 0.000000
0.000000 0.000000 0.000000
0.000000 0.000000 0.000000
0.000000 0.000000 0.000000
0.000000 0.000000 0.000000
0.000000 0.000000 0.000000
0.000000 0.000000 0.000000
0.000000 0.000000 0.000000
0.000000 0.000000 0.000000
0.000000 0.000000 0.000000
0.000000 0.000000 0.000000
0.000000 0.000000 0.000000
0.000000 0.000000 0.000000
0.000000 0.000000 0.000000
0.000000 0.000000 0.000000
0.000000 0.000000 0.000000
0.000000 0.000000 0.000000
0.000000 0.000000 0.000000
0.000000 0.000000 0.000000
0.000000 0.000000 0.000000
0.000000 0.000000 0.000000
0.000000 0.000000 0.000000
0.000000 0.000000 0.000000
0.000000 0.000000 0.000000
0.000000 0.000000 0.000000
0.000000 0.000000 0.000000
0.000000 0.000000 0.000000
0.000000 0.000000 0.000000
0.000000 0.000000 0.000000
0.000000 0.000000 0.000000
0.000000 0.000000 0.000000
0.000000 0.000000 0.000000
0.000000 0.000000 0.000000
0.000000 0.000000 0.000000
0.000000 0.000000 0.000000
0.000000 0.000000 0.000000
0.000000 0.000000 0.000000
0.000000 0.000000 0.000000
0.000000 0.000000 0.000000
0.000000 0.000000 0.000000
0.000000 0.000000 0.000000
0.000000 0.000000 0.000000
0.000000 0.000000 0.000000
0.000000 0.000000 0.000000
0.000000 0.000000 0.000000
0.000000 0.000000 0.000000
0.000000 0.000000 0.000000
0.000000 0.000000 0.000000
0.000000 0.000000 0.000000
0.000000 0.000000 0.000000
0.000000 0.000000 0.000000
0.000000 0.000000 0.000000
0.000000 0.000000 0.000000
0.000000 0.000000 0.000000
0.000000 0.000000 0.000000
0.000000 0.000000 0.000000
0.000000 0.000000 0.000000
0.000000 0.000000 0.000000
0.000000 0.000000 0.000000
0.000000 0.000000 0.000000
0.000000 0.000000 0.000000
0.000000 0.000000 0.000000
0.000000 0.000000 0.000000
0.000000 0.000000 0.000000
0.000000 0.000000 0.000000
0.000000 0.000000 0.000000
0.000000 0.000000 0.000000
0.000000 0.000000 0.000000
0.000000 0.000000 0.000000
0.000000 0.000000 0.000000
0.000000 0.000000 0.000000
0.000000 0.000000 0.000000
0.000000 0.000000 0.000000
0.000000 0.000000 0.000000
0.000000 0.000000 0.000000
0.000000 0.000000 0.000000
0.000000 0.000000 0.000000
0.000000 0.000000 0.000000
0.000000 0.000000 0.000000
0.000000 0.000000 0.000000
0.000000 0.000000 0.000000
0.000000 0.000000 0.000000
0.000000 0.000000 0.000000
0.000000 0.000000 0.000000
0.000000 0.000000 0.000000
0.000000 0.000000 0.000000
0.000000 0.000000 0.000000
0.000000 0.000000 0.000000
0.000000 0.000000 0.000000
0.000000 0.000000 0.000000
0.000000 0.000000 0.000000
0.000000 0.000000 0.000000
0.000000 0.000000 0.000000
0.000000 0.000000 0.000000
0.000000 0.000000 0.000000
0.000000 0.000000 0.000000
0.000000 0.000000 0.000000
0.000000 0.000000 0.000000
0.000000 0.000000 0.000000
0.000000 0.000000 0.000000
0.000000 0.000000 0.000000
0.000000 0.000000 0.000000
0.000000 0.000000 0.000000
0.000000 0.000000 0.000000
0.000000 0.000000 0.000000
0.000000 0.000000 0.000000
0.000000 0.000000 0.000000
0.000000 0.000000 0.000000
0.000000 0.000000 0.000000
0.000000 0.000000 0.000000
0.000000 0.000000 0.000000
0.000000 0.000000 0.000000
0.000000 0.000000 0.000000
0.000000 0.000000 0.000000
0.000000 0.000000 0.000000
0.000000 0.000000 0.000000
0.000000 0.000000 0.000000
0.000000 0.000000 0.000000
0.000000 0.000000 0.000000
0.000000 0.000000 0.000000
0.000000 0.000000 0.000000
0.000000 0.000000 0.000000
0.000000 0.000000 0.000000
0.000000 0.000000 0.000000
0.000000 0.000000 0.000000
0.000000 0.000000 0.000000
0.000000 0.000000 0.000000
0.000000 0.000000 0.000000
0.000000 0.000000 0.000000
0.000000 0.000000 0.000000
0.000000 0.000000 0.000000
0.000000 0.000000 0.000000
0.000000 0.000000 0.000000
0.000000 0.000000 0.000000
0.000000 0.000000 0.000000
0.000000 0.000000 0.000000
0.000000 0.000000 0.000000
0.000000 0.000000 0.000000
0.000000 0.000000 0.000000
0.000000 0.000000 0.000000
0.000000 0.000000 0.000000
0.000000 0.000000 0.000000
0.000000 0.000000 0.000000
0.000000 0.000000 0.000000
0.000000 0.000000 0.000000
0.000000 0.000000 0.000000
0.000000 0.000000 0.000000
0.000000 0.000000 0.000000
0.000000 0.000000 0.000000
0.000000 0.000000 0.000000
0.000000 0.000000 0.000000
0.000000 0.000000 0.000000
0.000000 0.000000 0.000000
0.000000 0.000000 0.000000
0.000000 0.000000 0.000000
0.000000 0.000000 0.000000
0.000000 0.000000 0.000000
0.000000 0.000000 -50.000000
-50.000000 0.000000 -50.000000
-43.332357 0.000000 -45.688608
-45.491331 0.000000 -43.332215
-50.000000 0.000000 -50.000000
-36.664654 0.000000 -36.664708
-50.000000 0.000000 -45.081358
-39.969916 0.000000 -40.027535
-44.152466 0.000000 -29.997127
-50.000000 0.000000 -50.000000
-29.997044 0.000000 -44.847322
-33.449026 0.000000 -33.145189
-44.675893 0.000000 -39.869423
-36.787131 0.000000 -35.129012
-39.801557 0.000000 -23.329935
-50.000000 0.000000 -26.539451
-44.666840 0.000000 -50.000000
-23.329874 0.000000 -44.665372
-26.804078 0.000000 -39.364458
-30.225833 0.000000 -29.606676
-39.359562 0.000000 -33.368645
-33.655679 0.000000 -50.000000
-16.663342 0.000000 -16.663469
-50.000000 0.000000 -9.997742
