# vtk DataFile Version 2.0
CellBP Time: 1.36
ASCII
DATASET UNSTRUCTURED_GRID
POINTS 320 double
-50.000000 -50.000000 0.000000
-50.000000 -43.333204 0.000000
-45.688308 -45.491075 0.000000
-43.333190 -50.000000 0.000000
-50.000000 -36.666403 0.000000
-36.666417 -50.000000 0.000000
-45.081035 -39.969730 0.000000
-40.027068 -44.152196 0.000000
-29.999635 -50.000000 0.000000
-50.000000 -29.999613 0.000000
-44.847003 -33.448863 0.000000
-33.144828 -44.675599 0.000000
-39.869023 -36.786926 0.000000
-35.128536 -39.801194 0.000000
-23.332902 -50.000000 0.000000
-26.539068 -44.666697 0.000000
-50.000000 -23.332880 0.000000
-44.665237 -26.803852 0.000000
-39.364162 -30.225604 0.000000
-29.606140 -39.359271 0.000000
-33.368093 -33.655337 0.000000
-50.000000 -16.666227 0.000000
-16.666260 -50.000000 0.000000
-9.999712 -50.000000 0.000000
-19.964789 -44.588779 0.000000
-23.215805 -39.114648 0.000000
-44.691902 -20.096843 0.000000
-39.367816 -23.528111 0.000000
-34.106042 -26.936947 0.000000
-26.384285 -33.577118 0.000000
-29.156057 -28.926498 0.000000
-50.000000 -9.999649 0.000000
-44.666370 -13.410128 0.000000
-50.000000 -3.333163 0.000000
-3.333240 -50.000000 0.000000
3.333211 -50.000000 0.000000
-13.343545 -44.599078 0.000000
-6.684666 -44.610780 0.000000
-16.693638 -39.153343 0.000000
-20.106934 -33.342663 0.000000
-39.338183 -16.804800 0.000000
-34.018578 -20.274696 0.000000
-28.780767 -23.448951 0.000000
-23.510393 -27.350001 0.000000
-44.635510 -6.705583 0.000000
-39.293062 -10.101866 0.000000
-50.000000 3.333274 0.000000
-44.626844 -0.015709 0.000000
9.999700 -50.000000 0.000000
16.666263 -50.000000 0.000000
-0.016109 -44.618846 0.000000
6.651552 -44.635503 0.000000
-10.044656 -39.222625 0.000000
-3.368228 -39.220465 0.000000
-13.484275 -33.798812 0.000000
-16.709763 -28.271394 0.000000
-33.948087 -13.514235 0.000000
-28.601517 -16.892469 0.000000
-23.291272 -20.312859 0.000000
-18.660205 -23.282415 0.000000
-39.267594 -3.392916 0.000000
-33.904566 -6.796785 0.000000
-50.000000 9.999726 0.000000
-44.606865 6.673267 0.000000
-39.261041 3.325593 0.000000
-50.000000 16.666262 0.000000
23.332904 -50.000000 0.000000
29.999621 -50.000000 0.000000
13.317304 -44.662997 0.000000
19.989428 -44.700126 0.000000
3.307658 -39.245176 0.000000
9.971751 -39.290303 0.000000
-6.735239 -33.791384 0.000000
-0.032356 -33.829667 0.000000
-10.095954 -28.293625 0.000000
-13.122840 -22.898494 0.000000
-28.532762 -10.215138 0.000000
-23.066505 -13.663191 0.000000
-16.977043 -17.208770 0.000000
-33.884862 -0.065454 0.000000
-28.563282 -3.578753 0.000000
-44.564196 13.380273 0.000000
-39.190178 10.014959 0.000000
-33.905876 6.615973 0.000000
-50.000000 23.332873 0.000000
-44.557745 20.138025 0.000000
-50.000000 29.999626 0.000000
36.666397 -50.000000 0.000000
43.333192 -50.000000 0.000000
26.663062 -44.745271 0.000000
33.315163 -44.875888 0.000000
16.631602 -39.357708 0.000000
23.328151 -39.437061 0.000000
6.642779 -33.879518 0.000000
13.290778 -33.965481 0.000000
-3.345564 -28.362851 0.000000
3.356975 -28.451325 0.000000
-6.626034 -22.846249 0.000000
-9.970946 -17.314818 0.000000
-23.185302 -7.014908 0.000000
-17.810371 -10.334813 0.000000
-12.837377 -12.589782 0.000000
-28.607560 3.088468 0.000000
-23.264771 -0.468210 0.000000
-39.039077 16.746455 0.000000
-28.721413 9.926436 0.000000
-33.761739 13.318470 0.000000
-44.521680 26.716751 0.000000
-38.467740 23.892433 0.000000
-44.632162 33.085390 0.000000
-50.000000 36.666455 0.000000
-50.000000 43.333221 0.000000
39.922273 -45.069512 0.000000
45.474582 -45.660366 0.000000
50.000000 -50.000000 0.000000
36.626691 -39.981890 0.000000
30.012224 -39.458547 0.000000
19.904172 -34.092732 0.000000
26.584955 -34.319415 0.000000
9.988819 -28.513584 0.000000
16.610983 -28.659831 0.000000
0.052151 -22.959143 0.000000
6.812215 -23.158396 0.000000
-3.401034 -17.297517 0.000000
-6.864247 -11.022980 0.000000
-17.878340 -3.828408 0.000000
-12.553708 -7.035987 0.000000
-23.310636 6.073531 0.000000
-18.037803 2.454996 0.000000
-23.122023 12.095553 0.000000
-33.572104 19.788912 0.000000
-27.941278 16.885321 0.000000
-33.292717 24.722577 0.000000
-39.473372 30.052591 0.000000
-35.160109 28.137356 0.000000
-39.815784 35.101242 0.000000
-43.991577 39.982025 0.000000
-45.430959 45.685045 0.000000
-50.000000 50.000000 0.000000
44.117147 -39.898877 0.000000
50.000000 -43.333147 0.000000
39.639317 -35.047305 0.000000
33.462802 -33.424456 0.000000
22.984812 -28.817854 0.000000
28.730901 -29.247711 0.000000
13.460709 -23.121770 0.000000
20.054798 -23.438734 0.000000
3.388013 -17.586936 0.000000
10.127187 -17.840064 0.000000
0.143030 -12.002211 0.000000
-2.154205 -6.264748 0.000000
-7.399950 -3.701120 0.000000
-12.622695 -0.802610 0.000000
-18.162403 8.573031 0.000000
-12.964342 5.196742 0.000000
-18.639392 13.752095 0.000000
-21.504721 17.495126 0.000000
-28.940640 23.158252 0.000000
-24.346223 21.554749 0.000000
-30.323360 28.634680 0.000000
-34.253263 33.375459 0.000000
-36.955832 39.578012 0.000000
-39.838630 45.102670 0.000000
-43.333182 50.000000 0.000000
44.585150 -32.971954 0.000000
50.000000 -36.666352 0.000000
39.129248 -29.581718 0.000000
33.500514 -26.367586 0.000000
27.182677 -23.322105 0.000000
23.065688 -18.647761 0.000000
16.989235 -16.979652 0.000000
6.711708 -12.215569 0.000000
12.352667 -12.732781 0.000000
-3.384771 -1.494434 0.000000
3.934889 -7.018698 0.000000
1.022416 -2.121230 0.000000
-7.010101 2.327528 0.000000
-8.431217 7.825005 0.000000
-12.846929 11.933164 0.000000
-15.692879 17.700546 0.000000
-19.287196 22.982950 0.000000
-24.170954 27.354933 0.000000
-27.286270 33.626108 0.000000
-30.406578 39.161273 0.000000
-33.447708 44.738847 0.000000
-36.666376 50.000000 0.000000
44.547710 -26.499744 0.000000
50.000000 -29.999564 0.000000
39.040024 -23.179204 0.000000
33.449813 -19.899954 0.000000
28.040140 -16.574448 0.000000
22.683636 -13.124319 0.000000
17.176641 -9.909994 0.000000
10.935764 -6.645420 0.000000
-1.351771 2.307365 0.000000
6.223333 -1.740625 0.000000
2.909049 1.600731 0.000000
-3.542232 7.182900 0.000000
-6.312278 12.444871 0.000000
-9.629352 17.701643 0.000000
-13.166744 23.112233 0.000000
-17.316486 28.185228 0.000000
-20.570548 33.474470 0.000000
-23.665797 39.064035 0.000000
-26.830725 44.585384 0.000000
-29.999620 50.000000 0.000000
44.528734 -19.930456 0.000000
50.000000 -23.332839 0.000000
39.036412 -16.594010 0.000000
33.576422 -13.281190 0.000000
28.150912 -9.964860 0.000000
22.726152 -6.604512 0.000000
17.264707 -3.337353 0.000000
12.010576 0.192047 0.000000
1.930616 6.293985 0.000000
7.033351 3.838510 0.000000
-0.212962 11.972072 0.000000
-3.269241 17.529597 0.000000
-6.701068 22.978159 0.000000
-10.567990 28.267589 0.000000
-13.723833 33.661575 0.000000
-16.945523 39.080450 0.000000
-20.140350 44.548498 0.000000
-23.332917 50.000000 0.000000
44.536360 -13.303556 0.000000
50.000000 -16.666206 0.000000
39.080002 -9.966589 0.000000
33.646854 -6.640879 0.000000
28.235963 -3.307310 0.000000
22.846086 0.018470 0.000000
17.534112 3.361968 0.000000
12.213710 6.597957 0.000000
6.724576 10.852610 0.000000
3.301269 17.195451 0.000000
-0.081639 22.850998 0.000000
-3.518396 28.312531 0.000000
-6.831187 33.774292 0.000000
-10.137205 39.170576 0.000000
-13.435504 44.563608 0.000000
-16.666294 50.000000 0.000000
44.554449 -6.654631 0.000000
50.000000 -9.999674 0.000000
39.123483 -3.321269 0.000000
33.713462 0.008781 0.000000
28.333197 3.343911 0.000000
23.002053 6.693866 0.000000
17.831954 10.023646 0.000000
12.654617 12.226151 0.000000
9.791316 17.235032 0.000000
6.477552 22.722412 0.000000
3.188538 28.269415 0.000000
-0.115881 33.734665 0.000000
-3.425123 39.168555 0.000000
-6.725284 44.581874 0.000000
-9.999744 50.000000 0.000000
44.575742 0.001940 0.000000
50.000000 -3.333221 0.000000
39.166866 3.331925 0.000000
33.779221 6.655579 0.000000
28.424207 9.995141 0.000000
23.046280 13.416572 0.000000
16.947883 17.021986 0.000000
12.901641 22.670968 0.000000
9.814592 28.232301 0.000000
6.604114 33.718711 0.000000
3.286524 39.164420 0.000000
-0.029861 44.584622 0.000000
-3.333251 50.000000 0.000000
44.586776 6.665460 0.000000
50.000000 3.333222 0.000000
39.198020 9.981907 0.000000
33.843349 13.277132 0.000000
28.541696 16.584930 0.000000
23.386526 20.084391 0.000000
18.531665 23.111972 0.000000
16.393384 28.298769 0.000000
13.328864 33.754799 0.000000
9.986465 39.181967 0.000000
6.665893 44.584412 0.000000
3.333223 50.000000 0.000000
44.608911 13.317792 0.000000
50.000000 9.999713 0.000000
39.251324 16.612391 0.000000
33.931775 19.862871 0.000000
28.612154 22.926012 0.000000
23.279572 27.207468 0.000000
19.901247 33.303165 0.000000
16.573652 39.040994 0.000000
13.268174 44.526812 0.000000
9.999709 50.000000 0.000000
44.632072 19.972824 0.000000
50.000000 16.666281 0.000000
39.298441 23.262049 0.000000
34.043702 26.514671 0.000000
28.965648 28.539449 0.000000
26.202266 33.410106 0.000000
23.066602 38.968846 0.000000
19.888404 44.507081 0.000000
16.666250 50.000000 0.000000
44.639763 26.642774 0.000000
50.000000 23.332922 0.000000
39.293292 29.966601 0.000000
33.212281 33.371207 0.000000
29.411989 39.045813 0.000000
26.422232 44.505957 0.000000
23.332882 50.000000 0.000000
44.774907 33.291691 0.000000
50.000000 29.999635 0.000000
39.738112 36.596233 0.000000
34.830944 39.525530 0.000000
32.833700 44.514216 0.000000
29.999596 50.000000 0.000000
44.978169 39.877775 0.000000
50.000000 36.666404 0.000000
39.734741 43.968942 0.000000
36.666372 50.000000 0.000000
45.621207 45.409709 0.000000
50.000000 43.333194 0.000000
43.333157 50.000000 0.000000
50.000000 50.000000 0.000000
CELLS 578 2312
3 1 0 2
3 0 3 2
3 4 1 6
3 6 1 2
3 3 5 7
3 3 7 2
3 6 2 7
3 9 4 10
3 10 4 6
3 5 8 11
3 7 5 11
3 10 6 12
3 12 6 7
3 7 11 13
3 7 13 12
3 8 14 15
3 11 8 15
3 16 9 17
3 17 9 10
3 17 10 18
3 18 10 12
3 11 15 19
3 13 11 19
3 18 12 20
3 13 19 20
3 20 12 13
3 14 22 24
3 15 14 24
3 15 24 25
3 19 15 25
3 21 16 26
3 26 16 17
3 26 17 27
3 27 17 18
3 27 18 28
3 28 18 20
3 19 25 29
3 19 29 20
3 28 20 30
3 30 20 29
3 31 21 32
3 32 21 26
3 22 23 36
3 24 22 36
3 23 34 37
3 36 23 37
3 24 36 38
3 25 24 38
3 25 38 39
3 29 25 39
3 32 26 40
3 40 26 27
3 40 27 41
3 41 27 28
3 41 28 42
3 42 28 30
3 29 39 43
3 29 43 30
3 42 30 43
3 33 31 44
3 44 31 32
3 44 32 45
3 45 32 40
3 46 33 47
3 47 33 44
3 34 35 50
3 37 34 50
3 35 48 51
3 50 35 51
3 36 37 52
3 38 36 52
3 37 50 53
3 52 37 53
3 38 52 54
3 39 38 54
3 39 54 55
3 43 39 55
3 45 40 56
3 56 40 41
3 56 41 57
3 57 41 42
3 57 42 58
3 58 42 43
3 43 55 59
3 43 59 58
3 47 44 60
3 60 44 45
3 60 45 61
3 61 45 56
3 62 46 63
3 63 46 47
3 63 47 64
3 64 47 60
3 48 49 68
3 51 48 68
3 49 66 69
3 68 49 69
3 50 51 70
3 53 50 70
3 51 68 71
3 70 51 71
3 52 53 72
3 54 52 72
3 53 70 73
3 72 53 73
3 54 72 74
3 55 54 74
3 55 74 75
3 59 55 75
3 61 56 76
3 76 56 57
3 76 57 77
3 77 57 58
3 77 58 78
3 59 75 78
3 78 58 59
3 64 60 79
3 79 60 61
3 79 61 80
3 80 61 76
3 65 62 81
3 81 62 63
3 81 63 82
3 82 63 64
3 82 64 83
3 83 64 79
3 84 65 85
3 85 65 81
3 66 67 89
3 69 66 89
3 67 87 90
3 89 67 90
3 68 69 91
3 71 68 91
3 69 89 92
3 91 69 92
3 70 71 93
3 73 70 93
3 71 91 94
3 93 71 94
3 72 73 95
3 74 72 95
3 73 93 96
3 95 73 96
3 74 95 97
3 75 74 97
3 75 97 98
3 78 75 98
3 80 76 99
3 99 76 77
3 99 77 100
3 100 77 78
3 100 78 101
3 98 101 78
3 83 79 102
3 102 79 80
3 102 80 103
3 103 80 99
3 85 81 104
3 104 81 82
3 105 83 102
3 104 82 106
3 106 82 83
3 106 83 105
3 86 84 107
3 107 84 85
3 107 85 108
3 108 85 104
3 109 86 107
3 110 86 109
3 87 88 112
3 90 87 112
3 112 88 113
3 88 114 113
3 90 112 115
3 89 90 116
3 92 89 116
3 116 90 115
3 91 92 117
3 94 91 117
3 92 116 118
3 117 92 118
3 93 94 119
3 96 93 119
3 94 117 120
3 119 94 120
3 95 96 121
3 97 95 121
3 96 119 122
3 121 96 122
3 97 121 123
3 98 97 123
3 98 123 124
3 98 124 101
3 103 99 125
3 125 99 100
3 125 100 126
3 126 100 101
3 126 101 124
3 105 102 127
3 127 102 103
3 127 103 128
3 128 103 125
3 129 105 127
3 108 104 130
3 130 104 106
3 130 106 131
3 131 106 105
3 131 105 129
3 108 130 132
3 109 107 133
3 133 107 108
3 133 108 134
3 108 132 134
3 135 109 133
3 111 110 136
3 136 110 109
3 136 109 135
3 137 111 136
3 138 111 137
3 112 113 139
3 115 112 139
3 114 140 113
3 140 139 113
3 139 141 115
3 116 115 142
3 118 116 142
3 142 115 141
3 117 118 143
3 120 117 143
3 118 142 144
3 143 118 144
3 119 120 145
3 122 119 145
3 120 143 146
3 145 120 146
3 121 122 147
3 123 121 147
3 122 145 148
3 147 122 148
3 123 147 149
3 124 123 149
3 124 149 150
3 151 126 124
3 124 150 151
3 128 125 152
3 152 125 126
3 152 126 151
3 129 127 153
3 153 127 128
3 128 152 154
3 153 128 154
3 155 129 153
3 131 129 156
3 156 129 155
3 132 130 157
3 130 131 157
3 157 131 158
3 131 156 158
3 132 157 159
3 132 159 134
3 135 133 160
3 160 133 134
3 160 134 159
3 136 135 161
3 135 160 161
3 162 137 136
3 161 162 136
3 163 138 137
3 162 163 137
3 139 164 141
3 140 165 139
3 139 165 164
3 141 164 166
3 141 166 142
3 166 167 142
3 144 142 167
3 167 168 144
3 143 144 168
3 146 143 168
3 168 169 146
3 145 146 170
3 148 145 170
3 170 146 169
3 147 148 171
3 149 147 171
3 148 170 172
3 171 148 172
3 173 151 150
3 149 171 174
3 150 149 174
3 150 174 175
3 150 175 173
3 154 152 176
3 152 151 176
3 176 151 173
3 154 176 177
3 155 153 178
3 177 178 154
3 154 178 153
3 156 155 179
3 155 178 179
3 180 158 156
3 179 180 156
3 181 159 157
3 180 181 158
3 181 157 158
3 182 160 159
3 181 182 159
3 183 161 160
3 182 183 160
3 184 162 161
3 184 161 183
3 185 163 162
3 184 185 162
3 164 186 166
3 165 187 164
3 164 187 186
3 166 186 188
3 166 188 167
3 167 188 189
3 167 189 168
3 168 189 190
3 168 190 169
3 169 190 191
3 169 191 170
3 192 172 170
3 170 191 192
3 192 193 172
3 171 172 193
3 174 171 193
3 194 173 175
3 176 173 194
3 175 174 195
3 193 195 174
3 195 196 175
3 175 196 194
3 197 177 176
3 194 197 176
3 198 178 177
3 197 198 177
3 199 179 178
3 198 199 178
3 200 180 179
3 199 200 179
3 201 181 180
3 200 201 180
3 202 182 181
3 201 202 181
3 203 183 182
3 202 203 182
3 204 184 183
3 203 204 183
3 205 185 184
3 204 205 184
3 186 206 188
3 187 207 186
3 186 207 206
3 188 206 208
3 188 208 189
3 189 208 209
3 189 209 190
3 190 209 210
3 190 210 191
3 191 210 211
3 191 211 192
3 192 211 212
3 192 212 193
3 193 212 213
3 193 213 195
3 214 197 194
3 214 194 196
3 195 213 215
3 195 215 196
3 196 215 214
3 216 198 197
3 214 216 197
3 217 199 198
3 216 217 198
3 218 200 199
3 217 218 199
3 219 201 200
3 218 219 200
3 220 202 201
3 219 220 201
3 221 203 202
3 220 221 202
3 222 204 203
3 221 222 203
3 223 205 204
3 222 223 204
3 206 224 208
3 207 225 206
3 206 225 224
3 208 224 226
3 208 226 209
3 209 226 227
3 209 227 210
3 210 227 228
3 210 228 211
3 211 228 229
3 211 229 212
3 212 229 230
3 212 230 213
3 213 230 231
3 213 231 215
3 232 216 214
3 215 231 232
3 232 214 215
3 233 217 216
3 232 233 216
3 234 218 217
3 233 234 217
3 235 219 218
3 234 235 218
3 236 220 219
3 235 236 219
3 237 221 220
3 236 237 220
3 238 222 221
3 237 238 221
3 239 223 222
3 238 239 222
3 224 240 226
3 225 241 224
3 224 241 240
3 226 240 242
3 226 242 227
3 227 242 243
3 227 243 228
3 228 243 244
3 228 244 229
3 244 245 229
3 229 245 230
3 230 245 246
3 230 246 231
3 231 246 247
3 231 247 232
3 248 233 232
3 248 232 247
3 249 234 233
3 248 249 233
3 250 235 234
3 249 250 234
3 251 236 235
3 250 251 235
3 252 237 236
3 251 252 236
3 253 238 237
3 252 253 237
3 254 239 238
3 253 254 238
3 240 255 242
3 241 256 240
3 240 256 255
3 242 255 257
3 242 257 243
3 243 257 258
3 243 258 244
3 244 258 259
3 244 259 245
3 245 259 260
3 245 260 246
3 246 260 261
3 246 261 247
3 248 247 261
3 262 249 248
3 261 262 248
3 263 250 249
3 262 263 249
3 264 251 250
3 263 264 250
3 265 252 251
3 264 265 251
3 266 253 252
3 265 266 252
3 267 254 253
3 266 267 253
3 255 268 257
3 256 269 255
3 255 269 268
3 257 268 270
3 257 270 258
3 258 270 271
3 258 271 259
3 259 271 272
3 259 272 260
3 260 272 273
3 260 273 261
3 274 262 261
3 261 273 274
3 275 263 262
3 274 275 262
3 276 264 263
3 275 276 263
3 277 265 264
3 276 277 264
3 278 266 265
3 277 278 265
3 279 267 266
3 278 279 266
3 268 280 270
3 269 281 268
3 268 281 280
3 270 280 282
3 270 282 271
3 271 282 283
3 271 283 272
3 283 284 272
3 272 284 273
3 285 275 274
3 273 284 285
3 285 274 273
3 286 276 275
3 285 286 275
3 287 277 276
3 286 287 276
3 288 278 277
3 287 288 277
3 289 279 278
3 288 289 278
3 280 290 282
3 281 291 280
3 280 291 290
3 282 290 292
3 282 292 283
3 283 292 293
3 283 293 284
3 284 293 294
3 284 294 285
3 295 286 285
3 295 285 294
3 296 287 286
3 295 296 286
3 297 288 287
3 296 297 287
3 298 289 288
3 297 298 288
3 290 299 292
3 291 300 290
3 290 300 299
3 292 299 301
3 292 301 293
3 293 301 302
3 293 302 294
3 294 302 295
3 303 296 295
3 303 295 302
3 304 297 296
3 303 304 296
3 305 298 297
3 304 305 297
3 299 306 301
3 300 307 299
3 299 307 306
3 301 306 308
3 301 308 302
3 309 303 302
3 302 308 309
3 310 304 303
3 309 310 303
3 311 305 304
3 310 311 304
3 306 312 308
3 307 313 306
3 306 313 312
3 314 310 309
3 308 312 314
3 314 309 308
3 315 311 310
3 314 315 310
3 312 316 314
3 313 317 312
3 312 317 316
3 318 315 314
3 318 314 316
3 317 319 316
3 319 318 316
CELL_TYPES 578
5
5
5
5
5
5
5
5
5
5
5
5
5
5
5
5
5
5
5
5
5
5
5
5
5
5
5
5
5
5
5
5
5
5
5
5
5
5
5
5
5
5
5
5
5
5
5
5
5
5
5
5
5
5
5
5
5
5
5
5
5
5
5
5
5
5
5
5
5
5
5
5
5
5
5
5
5
5
5
5
5
5
5
5
5
5
5
5
5
5
5
5
5
5
5
5
5
5
5
5
5
5
5
5
5
5
5
5
5
5
5
5
5
5
5
5
5
5
5
5
5
5
5
5
5
5
5
5
5
5
5
5
5
5
5
5
5
5
5
5
5
5
5
5
5
5
5
5
5
5
5
5
5
5
5
5
5
5
5
5
5
5
5
5
5
5
5
5
5
5
5
5
5
5
5
5
5
5
5
5
5
5
5
5
5
5
5
5
5
5
5
5
5
5
5
5
5
5
5
5
5
5
5
5
5
5
5
5
5
5
5
5
5
5
5
5
5
5
5
5
5
5
5
5
5
5
5
5
5
5
5
5
5
5
5
5
5
5
5
5
5
5
5
5
5
5
5
5
5
5
5
5
5
5
5
5
5
5
5
5
5
5
5
5
5
5
5
5
5
5
5
5
5
5
5
5
5
5
5
5
5
5
5
5
5
5
5
5
5
5
5
5
5
5
5
5
5
5
5
5
5
5
5
5
5
5
5
5
5
5
5
5
5
5
5
5
5
5
5
5
5
5
5
5
5
5
5
5
5
5
5
5
5
5
5
5
5
5
5
5
5
5
5
5
5
5
5
5
5
5
5
5
5
5
5
5
5
5
5
5
5
5
5
5
5
5
5
5
5
5
5
5
5
5
5
5
5
5
5
5
5
5
5
5
5
5
5
5
5
5
5
5
5
5
5
5
5
5
5
5
5
5
5
5
5
5
5
5
5
5
5
5
5
5
5
5
5
5
5
5
5
5
5
5
5
5
5
5
5
5
5
5
5
5
5
5
5
5
5
5
5
5
5
5
5
5
5
5
5
5
5
5
5
5
5
5
5
5
5
5
5
5
5
5
5
5
5
5
5
5
5
5
5
5
5
5
5
5
5
5
5
5
5
5
5
5
5
5
5
5
5
5
5
5
5
5
5
5
5
5
5
5
5
5
5
5
5
5
5
5
5
5
5
5
5
5
5
5
5
5
5
5
5
5
5
5
5
5
5
5
5
5
5
5
5
5
5
5
5
5
5
5
5
5
5
5
5
5
5
5
5
5
5
5
5
5
5
5
5
5
5
5
5
5
5
5
5
5
5
5
5
5
5
5
5
5
5
5
POINT_DATA 320
SCALARS theta_e float 1
LOOKUP_TABLE default
1.000001
1.000001
1.000001
1.000001
1.000001
1.000001
1.000001
1.000001
1.000001
1.000001
1.000001
1.000001
1.000001
1.000001
1.000001
1.000001
1.000001
1.000001
1.000001
1.000001
1.000001
1.000001
1.000001
1.000001
1.000001
1.000001
1.000001
1.000001
1.000001
1.000001
1.000001
1.000001
1.000001
1.000001
1.000001
1.000001
1.000001
1.000001
1.000001
1.000001
1.000001
1.000001
1.000001
1.000001
1.000001
1.000001
1.000001
1.000001
1.000001
1.000001
1.000001
1.000001
1.000001
1.000001
1.000001
1.000001
1.000001
1.000001
1.000001
1.000001
1.000001
1.000001
1.000001
1.000001
1.000001
1.000001
1.000001
1.000001
1.000001
1.000001
1.000001
1.000001
1.000001
1.000001
1.000001
1.000001
1.000001
1.000001
1.000001
1.000001
1.000001
1.000001
1.000001
1.000001
1.000001
1.000001
1.000001
1.000001
1.000001
1.000001
1.000001
1.000001
1.000001
1.000001
1.000001
1.000001
1.000001
1.000001
1.000001
1.000001
1.000001
1.000001
1.000001
1.000001
1.000001
1.000001
1.000001
1.000001
1.000001
1.000001
1.000001
1.000001
1.000001
1.000001
1.000001
1.000001
1.000001
1.000001
1.000001
1.000001
1.000001
1.000001
1.000001
1.000001
0.999996
1.000001
0.999999
1.000001
1.000001
1.000001
1.000001
1.000001
1.000001
1.000001
1.000001
1.000001
1.000001
1.000001
1.000001
1.000001
1.000001
1.000001
1.000001
1.000001
1.000001
1.000001
1.000001
1.000001
1.000001
0.999994
0.999981
0.999987
0.999996
1.000000
0.999997
1.000001
1.000001
1.000001
1.000001
1.000001
1.000001
1.000001
1.000001
1.000001
1.000001
1.000001
1.000001
1.000001
1.000001
1.000001
1.000001
0.999998
1.000001
0.999973
0.999984
0.999973
0.999983
0.999994
1.000000
1.000001
1.000001
1.000001
1.000001
1.000001
1.000001
1.000001
1.000001
1.000001
1.000001
1.000001
1.000001
1.000001
1.000001
0.999995
0.999972
0.999980
0.999972
0.999982
0.999998
1.000001
1.000001
1.000001
1.000001
1.000001
1.000001
1.000001
1.000001
1.000001
1.000001
1.000001
1.000001
1.000001
1.000001
0.999994
0.999979
0.999984
0.999994
1.000001
1.000001
1.000001
1.000001
1.000001
1.000001
1.000001
1.000001
1.000001
1.000001
1.000001
1.000001
1.000001
1.000001
0.999998
0.999995
1.000001
1.000001
1.000001
1.000001
1.000001
1.000001
1.000001
1.000001
1.000001
1.000001
1.000001
1.000001
1.000001
1.000001
1.000001
1.000001
1.000001
1.000001
1.000001
1.000001
1.000001
1.000001
1.000001
1.000001
1.000001
1.000001
1.000001
1.000001
1.000001
1.000001
1.000001
1.000001
1.000001
1.000001
1.000001
1.000001
1.000001
1.000001
1.000001
1.000001
1.000001
1.000001
1.000001
1.000001
1.000001
1.000001
1.000001
1.000001
1.000001
1.000001
1.000001
1.000001
1.000001
1.000001
1.000001
1.000001
1.000001
1.000001
1.000001
1.000001
1.000001
1.000001
1.000001
1.000001
1.000001
1.000001
1.000001
1.000001
1.000001
1.000001
1.000001
1.000001
1.000001
1.000001
1.000001
1.000001
1.000001
1.000001
1.000001
1.000001
1.000001
1.000001
1.000001
1.000001
1.000001
1.000001
1.000001
VECTORS fa_u float
0.000000 0.000000 0.000000
0.000000 0.000000 0.000000
0.000000 0.000000 0.000000
0.000000 0.000000 0.000000
0.000000 0.000000 0.000000
0.000000 0.000000 0.000000
0.000000 0.000000 0.000000
0.000000 0.000000 0.000000
0.000000 0.000000 0.000000
0.000000 0.000000 0.000000
0.000000 0.000000 0.000000
0.000000 0.000000 0.000000
0.000000 0.000000 0.000000
0.000000 0.000000 0.000000
0.000000 0.000000 0.000000
0.000000 0.000000 0.000000
0.000000 0.000000 0.000000
0.000000 0.000000 0.000000
0.000000 0.000000 0.000000
0.000000 0.000000 0.000000
0.000000 0.000000 0.000000
0.000000 0.000000 0.000000
0.000000 0.000000 0.000000
0.000000 0.000000 0.000000
0.000000 0.000000 0.000000
0.000000 0.000000 0.000000
0.000000 0.000000 0.000000
0.000000 0.000000 0.000000
0.000000 0.000000 0.000000
0.000000 0.000000 0.000000
0.000000 0.000000 0.000000
0.000000 0.000000 0.000000
0.000000 0.000000 0.000000
0.000000 0.000000 0.000000
0.000000 0.000000 0.000000
0.000000 0.000000 0.000000
0.000000 0.000000 0.000000
0.000000 0.000000 0.000000
0.000000 0.000000 0.000000
0.000000 0.000000 0.000000
0.000000 0.000000 0.000000
0.000000 0.000000 0.000000
0.000000 0.000000 0.000000
0.000000 0.000000 0.000000
0.000000 0.000000 0.000000
0.000000 0.000000 0.000000
0.000000 0.000000 0.000000
0.000000 0.000000 0.000000
0.000000 0.000000 0.000000
0.000000 0.000000 0.000000
0.000000 0.000000 0.000000
0.000000 0.000000 0.000000
0.000000 0.000000 0.000000
0.000000 0.000000 0.000000
0.000000 0.000000 0.000000
0.000000 0.000000 0.000000
0.000000 0.000000 0.000000
0.000000 0.000000 0.000000
0.000000 0.000000 0.000000
0.000000 0.000000 0.000000
0.000000 0.000000 0.000000
0.000000 0.000000 0.000000
0.000000 0.000000 0.000000
0.000000 0.000000 0.000000
0.000000 0.000000 0.000000
0.000000 0.000000 0.000000
0.000000 0.000000 0.000000
0.000000 0.000000 0.000000
0.000000 0.000000 0.000000
0.000000 0.000000 0.000000
0.000000 0.000000 0.000000
0.000000 0.000000 0.000000
0.000000 0.000000 0.000000
0.000000 0.000000 0.000000
0.000000 0.000000 0.000000
0.000000 0.000000 0.000000
0.000000 0.000000 0.000000
0.000000 0.000000 0.000000
0.000000 0.000000 0.000000
0.000000 0.000000 0.000000
0.000000 0.000000 0.000000
0.000000 0.000000 0.000000
0.000000 0.000000 0.000000
0.000000 0.000000 0.000000
0.000000 0.000000 0.000000
0.000000 0.000000 0.000000
0.000000 0.000000 0.000000
0.000000 0.000000 0.000000
0.000000 0.000000 0.000000
0.000000 0.000000 0.000000
0.000000 0.000000 0.000000
0.000000 0.000000 0.000000
0.000000 0.000000 0.000000
0.000000 0.000000 0.000000
0.000000 0.000000 0.000000
0.000000 0.000000 0.000000
0.000000 0.000000 0.000000
0.000000 0.000000 0.000000
0.000000 0.000000 0.000000
0.000000 0.000000 0.000000
0.000000 0.000000 0.000000
0.000000 0.000000 0.000000
0.000000 0.000000 0.000000
0.000000 0.000000 0.000000
0.000000 0.000000 0.000000
0.000000 0.000000 0.000000
0.000000 0.000000 0.000000
0.000000 0.000000 0.000000
0.000000 0.000000 0.000000
0.000000 0.000000 0.000000
0.000000 0.000000 0.000000
0.000000 0.000000 0.000000
0.000000 0.000000 0.000000
0.000000 0.000000 0.000000
0.000000 0.000000 0.000000
0.000000 0.000000 0.000000
0.000000 0.000000 0.000000
0.000000 0.000000 0.000000
0.000000 0.000000 0.000000
0.000000 0.000000 0.000000
0.000000 0.000000 0.000000
0.000000 0.000000 0.000000
0.000000 0.000000 0.000000
0.000000 0.000000 0.000000
0.000000 0.000000 0.000000
0.000000 0.000000 0.000000
0.000000 0.000000 0.000000
0.000000 0.000000 0.000000
0.000000 0.000000 0.000000
0.000000 0.000000 0.000000
0.000000 0.000000 0.000000
0.000000 0.000000 0.000000
0.000000 0.000000 0.000000
0.000000 0.000000 0.000000
0.000000 0.000000 0.000000
0.000000 0.000000 0.000000
0.000000 0.000000 0.000000
0.000000 0.000000 0.000000
0.000000 0.000000 0.000000
0.000000 0.000000 0.000000
0.000000 0.000000 0.000000
0.000000 0.000000 0.000000
0.000000 0.000000 0.000000
0.000000 0.000000 0.000000
0.000000 0.000000 0.000000
0.000000 0.000000 0.000000
0.000000 0.000000 0.000000
0.000000 0.000000 0.000000
0.000000 0.000000 0.000000
0.000000 0.000000 0.000000
0.000000 0.000000 0.000000
0.000000 0.000000 0.000000
0.000000 0.000000 0.000000
0.000000 0.000000 0.000000
0.000000 0.000000 0.000000
0.000000 0.000000 0.000000
0.000000 0.000000 0.000000
0.000000 0.000000 0.000000
0.000000 0.000000 0.000000
0.000000 0.000000 0.000000
0.000000 0.000000 0.000000
0.000000 0.000000 0.000000
0.000000 0.000000 0.000000
0.000000 0.000000 0.000000
0.000000 0.000000 0.000000
0.000000 0.000000 0.000000
0.000000 0.000000 0.000000
0.000000 0.000000 0.000000
0.000000 0.000000 0.000000
0.000000 0.000000 0.000000
0.000000 0.000000 0.000000
0.000000 0.000000 0.000000
0.000000 0.000000 0.000000
0.000000 0.000000 0.000000
0.000000 0.000000 0.000000
0.000000 0.000000 0.000000
0.000000 0.000000 0.000000
0.000000 0.000000 0.000000
0.000000 0.000000 0.000000
0.000000 0.000000 0.000000
0.000000 0.000000 0.000000
0.000000 0.000000 0.000000
0.000000 0.000000 0.000000
0.000000 0.000000 0.000000
0.000000 0.000000 0.000000
0.000000 0.000000 0.000000
0.000000 0.000000 0.000000
0.000000 0.000000 0.000000
0.000000 0.000000 0.000000
0.000000 0.000000 0.000000
0.000000 0.000000 0.000000
0.000000 0.000000 0.000000
0.000000 0.000000 0.000000
0.000000 0.000000 0.000000
0.000000 0.000000 0.000000
0.000000 0.000000 0.000000
0.000000 0.000000 0.000000
0.000000 0.000000 0.000000
0.000000 0.000000 0.000000
0.000000 0.000000 0.000000
0.000000 0.000000 0.000000
0.000000 0.000000 0.000000
0.000000 0.000000 0.000000
0.000000 0.000000 0.000000
0.000000 0.000000 0.000000
0.000000 0.000000 0.000000
0.000000 0.000000 0.000000
0.000000 0.000000 0.000000
0.000000 0.000000 0.000000
0.000000 0.000000 0.000000
0.000000 0.000000 0.000000
0.000000 0.000000 0.000000
0.000000 0.000000 0.000000
0.000000 0.000000 0.000000
0.000000 0.000000 0.000000
0.000000 0.000000 0.000000
0.000000 0.000000 0.000000
0.000000 0.000000 0.000000
0.000000 0.000000 0.000000
0.000000 0.000000 0.000000
0.000000 0.000000 0.000000
0.000000 0.000000 0.000000
0.000000 0.000000 0.000000
0.000000 0.000000 0.000000
0.000000 0.000000 0.000000
0.000000 0.000000 0.000000
0.000000 0.000000 0.000000
0.000000 0.000000 0.000000
0.000000 0.000000 0.000000
0.000000 0.000000 0.000000
0.000000 0.000000 0.000000
0.000000 0.000000 0.000000
0.000000 0.000000 0.000000
0.000000 0.000000 0.000000
0.000000 0.000000 0.000000
0.000000 0.000000 0.000000
0.000000 0.000000 0.000000
0.000000 0.000000 0.000000
0.000000 0.000000 0.000000
0.000000 0.000000 0.000000
0.000000 0.000000 0.000000
0.000000 0.000000 0.000000
0.000000 0.000000 0.000000
0.000000 0.000000 0.000000
0.000000 0.000000 0.000000
0.000000 0.000000 0.000000
0.000000 0.000000 0.000000
0.000000 0.000000 0.000000
0.000000 0.000000 0.000000
0.000000 0.000000 0.000000
0.000000 0.000000 0.000000
0.000000 0.000000 0.000000
0.000000 0.000000 0.000000
0.000000 0.000000 0.000000
0.000000 0.000000 0.000000
0.000000 0.000000 0.000000
0.000000 0.000000 0.000000
0.000000 0.000000 0.000000
0.000000 0.000000 0.000000
0.000000 0.000000 0.000000
0.000000 0.000000 0.000000
0.000000 0.000000 0.000000
0.000000 0.000000 0.000000
0.000000 0.000000 0.000000
0.000000 0.000000 0.000000
0.000000 0.000000 0.000000
0.000000 0.000000 0.000000
0.000000 0.000000 0.000000
0.000000 0.000000 0.000000
0.000000 0.000000 0.000000
0.000000 0.000000 0.000000
0.000000 0.000000 0.000000
0.000000 0.000000 0.000000
0.000000 0.000000 0.000000
0.000000 0.000000 0.000000
0.000000 0.000000 0.000000
0.000000 0.000000 0.000000
0.000000 0.000000 0.000000
0.000000 0.000000 0.000000
0.000000 0.000000 0.000000
0.000000 0.000000 0.000000
0.000000 0.000000 0.000000
0.000000 0.000000 0.000000
0.000000 0.000000 0.000000
0.000000 0.000000 0.000000
0.000000 0.000000 0.000000
0.000000 0.000000 0.000000
0.000000 0.000000 0.000000
0.000000 0.000000 0.000000
0.000000 0.000000 0.000000
0.000000 0.000000 0.000000
0.000000 0.000000 0.000000
0.000000 0.000000 0.000000
0.000000 0.000000 0.000000
0.000000 0.000000 0.000000
0.000000 0.000000 0.000000
0.000000 0.000000 -50.000000
-50.000000 0.000000 -50.000000
-43.333204 0.000000 -45.688308
-45.491075 0.000000 -43.333190
-50.000000 0.000000 -50.000000
-36.666403 0.000000 -36.666417
-50.000000 0.000000 -45.081035
-39.969730 0.000000 -40.027068
-44.152196 0.000000 -29.999635
-50.000000 0.000000 -50.000000
-29.999613 0.000000 -44.847003
-33.448863 0.000000 -33.144828
-44.675599 0.000000 -39.869023
-36.786926 0.000000 -35.128536
-39.801194 0.000000 -23.332902
-50.000000 0.000000 -26.539068
-44.666697 0.000000 -50.000000
-23.332880 0.000000 -44.665237
-26.803852 0.000000 -39.364162
-30.225604 0.000000 -29.606140
-39.359271 0.000000 -33.368093
-33.655337 0.000000 -50.000000
-16.666227 0.000000 -16.666260
-50.000000 0.000000 -9.999712
