# vtk DataFile Version 2.0
CellBP Time: 4.16
ASCII
DATASET UNSTRUCTURED_GRID
POINTS 320 double
-50.000000 -50.000000 0.000000
-50.000000 -43.332621 0.000000
-45.688513 -45.491251 0.000000
-43.332517 -50.000000 0.000000
-50.000000 -36.665198 0.000000
-36.665236 -50.000000 0.000000
-45.081256 -39.969858 0.000000
-40.027387 -44.152383 0.000000
-29.997899 -50.000000 0.000000
-50.000000 -29.997842 0.000000
-44.847222 -33.448976 0.000000
-33.145072 -44.675802 0.000000
-39.869296 -36.787068 0.000000
-35.128860 -39.801446 0.000000
-23.330845 -50.000000 0.000000
-26.539324 -44.666797 0.000000
-50.000000 -23.330805 0.000000
-44.665330 -26.804007 0.000000
-39.364365 -30.225763 0.000000
-29.606504 -39.359474 0.000000
-33.368470 -33.655575 0.000000
-50.000000 -16.664234 0.000000
-16.664322 -50.000000 0.000000
-9.998340 -50.000000 0.000000
-19.965088 -44.588737 0.000000
-23.216060 -39.114726 0.000000
-44.691850 -20.096994 0.000000
-39.367900 -23.528170 0.000000
-34.106276 -26.937073 0.000000
-26.384638 -33.577418 0.000000
-29.156427 -28.926757 0.000000
-50.000000 -9.998070 0.000000
-44.666326 -13.410254 0.000000
-50.000000 -3.332423 0.000000
-3.332803 -50.000000 0.000000
3.332623 -50.000000 0.000000
-13.343863 -44.598950 0.000000
-6.684846 -44.610584 0.000000
-16.693856 -39.153187 0.000000
-20.107089 -33.342646 0.000000
-39.338138 -16.804674 0.000000
-34.018878 -20.274570 0.000000
-28.781201 -23.449158 0.000000
-23.510678 -27.350687 0.000000
-44.635364 -6.705526 0.000000
-39.293100 -10.101746 0.000000
-50.000000 3.332956 0.000000
-44.626627 -0.015480 0.000000
9.998268 -50.000000 0.000000
16.664344 -50.000000 0.000000
-0.016141 -44.618668 0.000000
6.651720 -44.635389 0.000000
-10.044840 -39.222547 0.000000
-3.368259 -39.220281 0.000000
-13.484298 -33.798556 0.000000
-16.709159 -28.271552 0.000000
-33.947988 -13.513712 0.000000
-28.602332 -16.892158 0.000000
-23.292275 -20.313196 0.000000
-18.660755 -23.283918 0.000000
-39.267421 -3.392683 0.000000
-33.904512 -6.796723 0.000000
-50.000000 9.998433 0.000000
-44.606629 6.673637 0.000000
-39.260765 3.325768 0.000000
-50.000000 16.664383 0.000000
23.330861 -50.000000 0.000000
29.997826 -50.000000 0.000000
13.317641 -44.662943 0.000000
19.989782 -44.700100 0.000000
3.307658 -39.245114 0.000000
9.971855 -39.290343 0.000000
-6.735521 -33.791345 0.000000
-0.032199 -33.829493 0.000000
-10.095962 -28.292747 0.000000
-13.122703 -22.896828 0.000000
-28.531875 -10.214425 0.000000
-23.067437 -13.663588 0.000000
-16.978537 -17.211466 0.000000
-33.884399 -0.065456 0.000000
-28.562915 -3.579695 0.000000
-44.564030 13.380762 0.000000
-39.189958 10.015168 0.000000
-33.905579 6.616070 0.000000
-50.000000 23.330745 0.000000
-44.557462 20.138419 0.000000
-50.000000 29.997914 0.000000
36.665123 -50.000000 0.000000
43.332531 -50.000000 0.000000
26.663388 -44.745352 0.000000
33.315400 -44.876066 0.000000
16.631710 -39.357679 0.000000
23.328341 -39.437140 0.000000
6.642924 -33.879551 0.000000
13.290593 -33.965435 0.000000
-3.346098 -28.363442 0.000000
3.357931 -28.451206 0.000000
-6.626140 -22.845266 0.000000
-9.964879 -17.315221 0.000000
-23.181962 -7.014365 0.000000
-17.812871 -10.334828 0.000000
-12.837948 -12.602756 0.000000
-28.607388 3.088658 0.000000
-23.266073 -0.469319 0.000000
-39.038633 16.746408 0.000000
-28.720476 9.926015 0.000000
-33.761069 13.318154 0.000000
-44.521704 26.717165 0.000000
-38.467769 23.892674 0.000000
-44.632563 33.085817 0.000000
-50.000000 36.665503 0.000000
-50.000000 43.332721 0.000000
39.922470 -45.069692 0.000000
45.474821 -45.660568 0.000000
50.000000 -50.000000 0.000000
36.626862 -39.982042 0.000000
30.012466 -39.458680 0.000000
19.904201 -34.092899 0.000000
26.585086 -34.319575 0.000000
9.988579 -28.512953 0.000000
16.610673 -28.660253 0.000000
0.051001 -22.961893 0.000000
6.812132 -23.156145 0.000000
-3.398682 -17.296946 0.000000
-6.824503 -10.935132 0.000000
-17.875233 -3.818295 0.000000
-12.550114 -7.034314 0.000000
-23.308924 6.070835 0.000000
-18.035036 2.443907 0.000000
-23.123150 12.096088 0.000000
-33.572134 19.788950 0.000000
-27.941598 16.886052 0.000000
-33.293107 24.722916 0.000000
-39.473858 30.053130 0.000000
-35.160671 28.137713 0.000000
-39.816286 35.101645 0.000000
-43.991841 39.982500 0.000000
-45.431103 45.685347 0.000000
-50.000000 50.000000 0.000000
44.117357 -39.899168 0.000000
50.000000 -43.332269 0.000000
39.639541 -35.047520 0.000000
33.462963 -33.424633 0.000000
22.984947 -28.818099 0.000000
28.731034 -29.247886 0.000000
13.460768 -23.121780 0.000000
20.054897 -23.439470 0.000000
3.373360 -17.589342 0.000000
10.124252 -17.842153 0.000000
0.158555 -11.868827 0.000000
-2.136026 -6.198684 0.000000
-7.249835 -3.615816 0.000000
-12.508906 -0.806629 0.000000
-18.169827 8.573218 0.000000
-12.945700 5.196560 0.000000
-18.638331 13.751375 0.000000
-21.504012 17.494409 0.000000
-28.940961 23.158989 0.000000
-24.346372 21.554407 0.000000
-30.323825 28.635062 0.000000
-34.253689 33.375636 0.000000
-36.956053 39.578137 0.000000
-39.838728 45.102879 0.000000
-43.332501 50.000000 0.000000
44.585338 -32.972186 0.000000
50.000000 -36.664861 0.000000
39.129352 -29.581964 0.000000
33.500668 -26.367730 0.000000
27.183082 -23.322114 0.000000
23.066799 -18.647907 0.000000
16.991411 -16.981452 0.000000
6.702820 -12.199743 0.000000
12.365826 -12.735702 0.000000
-3.372304 -1.487868 0.000000
3.845824 -6.866978 0.000000
1.023147 -2.120785 0.000000
-6.915088 2.289707 0.000000
-8.314843 7.721048 0.000000
-12.843165 11.929620 0.000000
-15.691311 17.699421 0.000000
-19.287376 22.981862 0.000000
-24.170985 27.354562 0.000000
-27.286376 33.625896 0.000000
-30.406736 39.161108 0.000000
-33.447894 44.738876 0.000000
-36.665050 50.000000 0.000000
44.547743 -26.500036 0.000000
50.000000 -29.997499 0.000000
39.040015 -23.179320 0.000000
33.449620 -19.899988 0.000000
28.039803 -16.573696 0.000000
22.680975 -13.123861 0.000000
17.175984 -9.903380 0.000000
10.837796 -6.602769 0.000000
-1.356698 2.315919 0.000000
6.166975 -1.721390 0.000000
2.895316 1.595721 0.000000
-3.485213 7.059353 0.000000
-6.313091 12.433461 0.000000
-9.629360 17.708275 0.000000
-13.167607 23.113812 0.000000
-17.316789 28.185109 0.000000
-20.570895 33.474273 0.000000
-23.666040 39.063942 0.000000
-26.831100 44.585354 0.000000
-29.997887 50.000000 0.000000
44.528664 -19.930800 0.000000
50.000000 -23.330499 0.000000
39.036220 -16.594166 0.000000
33.575983 -13.281244 0.000000
28.149676 -9.965039 0.000000
22.725070 -6.604722 0.000000
17.264631 -3.335820 0.000000
11.877533 0.208078 0.000000
1.916380 6.234966 0.000000
6.889379 3.757781 0.000000
-0.221555 11.843368 0.000000
-3.255518 17.530862 0.000000
-6.699646 22.976984 0.000000
-10.567389 28.267326 0.000000
-13.724153 33.661140 0.000000
-16.945817 39.080227 0.000000
-20.140807 44.548388 0.000000
-23.331010 50.000000 0.000000
44.536201 -13.303925 0.000000
50.000000 -16.664029 0.000000
39.079825 -9.966812 0.000000
33.646629 -6.641278 0.000000
28.236433 -3.307891 0.000000
22.848607 0.017617 0.000000
17.536837 3.348423 0.000000
12.192594 6.587491 0.000000
6.681640 10.752755 0.000000
3.301978 17.198260 0.000000
-0.080923 22.853449 0.000000
-3.518873 28.312937 0.000000
-6.831567 33.774530 0.000000
-10.137611 39.170522 0.000000
-13.435993 44.563494 0.000000
-16.664578 50.000000 0.000000
44.554219 -6.654891 0.000000
50.000000 -9.998141 0.000000
39.123264 -3.321420 0.000000
33.713342 0.008772 0.000000
28.333272 3.344679 0.000000
23.000299 6.693845 0.000000
17.833755 10.020293 0.000000
12.657364 12.237866 0.000000
9.786525 17.233576 0.000000
6.478955 22.722409 0.000000
3.189135 28.270035 0.000000
-0.115997 33.734846 0.000000
-3.425279 39.168653 0.000000
-6.725629 44.581767 0.000000
-9.998553 50.000000 0.000000
44.575563 0.001825 0.000000
50.000000 -3.332710 0.000000
39.166870 3.331831 0.000000
33.779419 6.655598 0.000000
28.423985 9.994843 0.000000
23.046455 13.416282 0.000000
16.949984 17.023644 0.000000
12.901592 22.668427 0.000000
9.815181 28.231892 0.000000
6.604323 33.718779 0.000000
3.286540 39.164428 0.000000
-0.029932 44.584533 0.000000
-3.332853 50.000000 0.000000
44.586692 6.665577 0.000000
50.000000 3.332669 0.000000
39.198145 9.981978 0.000000
33.843467 13.276962 0.000000
28.542170 16.584504 0.000000
23.387347 20.084308 0.000000
18.531903 23.112990 0.000000
16.392843 28.298590 0.000000
13.328995 33.754760 0.000000
9.986646 39.181955 0.000000
6.666069 44.584290 0.000000
3.332742 50.000000 0.000000
44.608892 13.318111 0.000000
50.000000 9.998336 0.000000
39.251374 16.612524 0.000000
33.931968 19.862884 0.000000
28.612452 22.925999 0.000000
23.279660 27.207695 0.000000
19.901373 33.302958 0.000000
16.573959 39.040883 0.000000
13.268539 44.526691 0.000000
9.998398 50.000000 0.000000
44.632071 19.973194 0.000000
50.000000 16.664444 0.000000
39.298526 23.262255 0.000000
34.043882 26.514814 0.000000
28.965880 28.539485 0.000000
26.202491 33.410160 0.000000
23.066849 38.968814 0.000000
19.888791 44.507039 0.000000
16.664355 50.000000 0.000000
44.639853 26.643115 0.000000
50.000000 23.330970 0.000000
39.293444 29.966845 0.000000
33.212507 33.371374 0.000000
29.412286 39.045901 0.000000
26.422576 44.505992 0.000000
23.330818 50.000000 0.000000
44.775087 33.291945 0.000000
50.000000 29.997912 0.000000
39.738277 36.596414 0.000000
34.831191 39.525754 0.000000
32.833985 44.514396 0.000000
29.997746 50.000000 0.000000
44.978354 39.877984 0.000000
50.000000 36.665171 0.000000
39.735065 43.969156 0.000000
36.665023 50.000000 0.000000
45.621425 45.409942 0.000000
50.000000 43.332546 0.000000
43.332352 50.000000 0.000000
50.000000 50.000000 0.000000
CELLS 578 2312
3 1 0 2
3 0 3 2
3 4 1 6
3 6 1 2
3 3 5 7
3 3 7 2
3 6 2 7
3 9 4 10
3 10 4 6
3 5 8 11
3 7 5 11
3 10 6 12
3 12 6 7
3 7 11 13
3 7 13 12
3 8 14 15
3 11 8 15
3 16 9 17
3 17 9 10
3 17 10 18
3 18 10 12
3 11 15 19
3 13 11 19
3 18 12 20
3 13 19 20
3 20 12 13
3 14 22 24
3 15 14 24
3 15 24 25
3 19 15 25
3 21 16 26
3 26 16 17
3 26 17 27
3 27 17 18
3 27 18 28
3 28 18 20
3 19 25 29
3 19 29 20
3 28 20 30
3 30 20 29
3 31 21 32
3 32 21 26
3 22 23 36
3 24 22 36
3 23 34 37
3 36 23 37
3 24 36 38
3 25 24 38
3 25 38 39
3 29 25 39
3 32 26 40
3 40 26 27
3 40 27 41
3 41 27 28
3 41 28 42
3 42 28 30
3 29 39 43
3 29 43 30
3 42 30 43
3 33 31 44
3 44 31 32
3 44 32 45
3 45 32 40
3 46 33 47
3 47 33 44
3 34 35 50
3 37 34 50
3 35 48 51
3 50 35 51
3 36 37 52
3 38 36 52
3 37 50 53
3 52 37 53
3 38 52 54
3 39 38 54
3 39 54 55
3 43 39 55
3 45 40 56
3 56 40 41
3 56 41 57
3 57 41 42
3 57 42 58
3 58 42 43
3 43 55 59
3 43 59 58
3 47 44 60
3 60 44 45
3 60 45 61
3 61 45 56
3 62 46 63
3 63 46 47
3 63 47 64
3 64 47 60
3 48 49 68
3 51 48 68
3 49 66 69
3 68 49 69
3 50 51 70
3 53 50 70
3 51 68 71
3 70 51 71
3 52 53 72
3 54 52 72
3 53 70 73
3 72 53 73
3 54 72 74
3 55 54 74
3 55 74 75
3 59 55 75
3 61 56 76
3 76 56 57
3 76 57 77
3 77 57 58
3 77 58 78
3 59 75 78
3 78 58 59
3 64 60 79
3 79 60 61
3 79 61 80
3 80 61 76
3 65 62 81
3 81 62 63
3 81 63 82
3 82 63 64
3 82 64 83
3 83 64 79
3 84 65 85
3 85 65 81
3 66 67 89
3 69 66 89
3 67 87 90
3 89 67 90
3 68 69 91
3 71 68 91
3 69 89 92
3 91 69 92
3 70 71 93
3 73 70 93
3 71 91 94
3 93 71 94
3 72 73 95
3 74 72 95
3 73 93 96
3 95 73 96
3 74 95 97
3 75 74 97
3 75 97 98
3 78 75 98
3 80 76 99
3 99 76 77
3 99 77 100
3 100 77 78
3 100 78 101
3 98 101 78
3 83 79 102
3 102 79 80
3 102 80 103
3 103 80 99
3 85 81 104
3 104 81 82
3 105 83 102
3 104 82 106
3 106 82 83
3 106 83 105
3 86 84 107
3 107 84 85
3 107 85 108
3 108 85 104
3 109 86 107
3 110 86 109
3 87 88 112
3 90 87 112
3 112 88 113
3 88 114 113
3 90 112 115
3 89 90 116
3 92 89 116
3 116 90 115
3 91 92 117
3 94 91 117
3 92 116 118
3 117 92 118
3 93 94 119
3 96 93 119
3 94 117 120
3 119 94 120
3 95 96 121
3 97 95 121
3 96 119 122
3 121 96 122
3 97 121 123
3 98 97 123
3 98 123 124
3 98 124 101
3 103 99 125
3 125 99 100
3 125 100 126
3 126 100 101
3 126 101 124
3 105 102 127
3 127 102 103
3 127 103 128
3 128 103 125
3 129 105 127
3 108 104 130
3 130 104 106
3 130 106 131
3 131 106 105
3 131 105 129
3 108 130 132
3 109 107 133
3 133 107 108
3 133 108 134
3 108 132 134
3 135 109 133
3 111 110 136
3 136 110 109
3 136 109 135
3 137 111 136
3 138 111 137
3 112 113 139
3 115 112 139
3 114 140 113
3 140 139 113
3 139 141 115
3 116 115 142
3 118 116 142
3 142 115 141
3 117 118 143
3 120 117 143
3 118 142 144
3 143 118 144
3 119 120 145
3 122 119 145
3 120 143 146
3 145 120 146
3 121 122 147
3 123 121 147
3 122 145 148
3 147 122 148
3 123 147 149
3 124 123 149
3 124 149 150
3 151 126 124
3 124 150 151
3 128 125 152
3 152 125 126
3 152 126 151
3 129 127 153
3 153 127 128
3 128 152 154
3 153 128 154
3 155 129 153
3 131 129 156
3 156 129 155
3 132 130 157
3 130 131 157
3 157 131 158
3 131 156 158
3 132 157 159
3 132 159 134
3 135 133 160
3 160 133 134
3 160 134 159
3 136 135 161
3 135 160 161
3 162 137 136
3 161 162 136
3 163 138 137
3 162 163 137
3 139 164 141
3 140 165 139
3 139 165 164
3 141 164 166
3 141 166 142
3 166 167 142
3 144 142 167
3 167 168 144
3 143 144 168
3 146 143 168
3 168 169 146
3 145 146 170
3 148 145 170
3 170 146 169
3 147 148 171
3 149 147 171
3 148 170 172
3 171 148 172
3 173 151 150
3 149 171 174
3 150 149 174
3 150 174 175
3 150 175 173
3 154 152 176
3 152 151 176
3 176 151 173
3 154 176 177
3 155 153 178
3 177 178 154
3 154 178 153
3 156 155 179
3 155 178 179
3 180 158 156
3 179 180 156
3 181 159 157
3 180 181 158
3 181 157 158
3 182 160 159
3 181 182 159
3 183 161 160
3 182 183 160
3 184 162 161
3 184 161 183
3 185 163 162
3 184 185 162
3 164 186 166
3 165 187 164
3 164 187 186
3 166 186 188
3 166 188 167
3 167 188 189
3 167 189 168
3 168 189 190
3 168 190 169
3 169 190 191
3 169 191 170
3 192 172 170
3 170 191 192
3 192 193 172
3 171 172 193
3 174 171 193
3 194 173 175
3 176 173 194
3 175 174 195
3 193 195 174
3 195 196 175
3 175 196 194
3 197 177 176
3 194 197 176
3 198 178 177
3 197 198 177
3 199 179 178
3 198 199 178
3 200 180 179
3 199 200 179
3 201 181 180
3 200 201 180
3 202 182 181
3 201 202 181
3 203 183 182
3 202 203 182
3 204 184 183
3 203 204 183
3 205 185 184
3 204 205 184
3 186 206 188
3 187 207 186
3 186 207 206
3 188 206 208
3 188 208 189
3 189 208 209
3 189 209 190
3 190 209 210
3 190 210 191
3 191 210 211
3 191 211 192
3 192 211 212
3 192 212 193
3 193 212 213
3 193 213 195
3 214 197 194
3 214 194 196
3 195 213 215
3 195 215 196
3 196 215 214
3 216 198 197
3 214 216 197
3 217 199 198
3 216 217 198
3 218 200 199
3 217 218 199
3 219 201 200
3 218 219 200
3 220 202 201
3 219 220 201
3 221 203 202
3 220 221 202
3 222 204 203
3 221 222 203
3 223 205 204
3 222 223 204
3 206 224 208
3 207 225 206
3 206 225 224
3 208 224 226
3 208 226 209
3 209 226 227
3 209 227 210
3 210 227 228
3 210 228 211
3 211 228 229
3 211 229 212
3 212 229 230
3 212 230 213
3 213 230 231
3 213 231 215
3 232 216 214
3 215 231 232
3 232 214 215
3 233 217 216
3 232 233 216
3 234 218 217
3 233 234 217
3 235 219 218
3 234 235 218
3 236 220 219
3 235 236 219
3 237 221 220
3 236 237 220
3 238 222 221
3 237 238 221
3 239 223 222
3 238 239 222
3 224 240 226
3 225 241 224
3 224 241 240
3 226 240 242
3 226 242 227
3 227 242 243
3 227 243 228
3 228 243 244
3 228 244 229
3 244 245 229
3 229 245 230
3 230 245 246
3 230 246 231
3 231 246 247
3 231 247 232
3 248 233 232
3 248 232 247
3 249 234 233
3 248 249 233
3 250 235 234
3 249 250 234
3 251 236 235
3 250 251 235
3 252 237 236
3 251 252 236
3 253 238 237
3 252 253 237
3 254 239 238
3 253 254 238
3 240 255 242
3 241 256 240
3 240 256 255
3 242 255 257
3 242 257 243
3 243 257 258
3 243 258 244
3 244 258 259
3 244 259 245
3 245 259 260
3 245 260 246
3 246 260 261
3 246 261 247
3 248 247 261
3 262 249 248
3 261 262 248
3 263 250 249
3 262 263 249
3 264 251 250
3 263 264 250
3 265 252 251
3 264 265 251
3 266 253 252
3 265 266 252
3 267 254 253
3 266 267 253
3 255 268 257
3 256 269 255
3 255 269 268
3 257 268 270
3 257 270 258
3 258 270 271
3 258 271 259
3 259 271 272
3 259 272 260
3 260 272 273
3 260 273 261
3 274 262 261
3 261 273 274
3 275 263 262
3 274 275 262
3 276 264 263
3 275 276 263
3 277 265 264
3 276 277 264
3 278 266 265
3 277 278 265
3 279 267 266
3 278 279 266
3 268 280 270
3 269 281 268
3 268 281 280
3 270 280 282
3 270 282 271
3 271 282 283
3 271 283 272
3 283 284 272
3 272 284 273
3 285 275 274
3 273 284 285
3 285 274 273
3 286 276 275
3 285 286 275
3 287 277 276
3 286 287 276
3 288 278 277
3 287 288 277
3 289 279 278
3 288 289 278
3 280 290 282
3 281 291 280
3 280 291 290
3 282 290 292
3 282 292 283
3 283 292 293
3 283 293 284
3 284 293 294
3 284 294 285
3 295 286 285
3 295 285 294
3 296 287 286
3 295 296 286
3 297 288 287
3 296 297 287
3 298 289 288
3 297 298 288
3 290 299 292
3 291 300 290
3 290 300 299
3 292 299 301
3 292 301 293
3 293 301 302
3 293 302 294
3 294 302 295
3 303 296 295
3 303 295 302
3 304 297 296
3 303 304 296
3 305 298 297
3 304 305 297
3 299 306 301
3 300 307 299
3 299 307 306
3 301 306 308
3 301 308 302
3 309 303 302
3 302 308 309
3 310 304 303
3 309 310 303
3 311 305 304
3 310 311 304
3 306 312 308
3 307 313 306
3 306 313 312
3 314 310 309
3 308 312 314
3 314 309 308
3 315 311 310
3 314 315 310
3 312 316 314
3 313 317 312
3 312 317 316
3 318 315 314
3 318 314 316
3 317 319 316
3 319 318 316
CELL_TYPES 578
5
5
5
5
5
5
5
5
5
5
5
5
5
5
5
5
5
5
5
5
5
5
5
5
5
5
5
5
5
5
5
5
5
5
5
5
5
5
5
5
5
5
5
5
5
5
5
5
5
5
5
5
5
5
5
5
5
5
5
5
5
5
5
5
5
5
5
5
5
5
5
5
5
5
5
5
5
5
5
5
5
5
5
5
5
5
5
5
5
5
5
5
5
5
5
5
5
5
5
5
5
5
5
5
5
5
5
5
5
5
5
5
5
5
5
5
5
5
5
5
5
5
5
5
5
5
5
5
5
5
5
5
5
5
5
5
5
5
5
5
5
5
5
5
5
5
5
5
5
5
5
5
5
5
5
5
5
5
5
5
5
5
5
5
5
5
5
5
5
5
5
5
5
5
5
5
5
5
5
5
5
5
5
5
5
5
5
5
5
5
5
5
5
5
5
5
5
5
5
5
5
5
5
5
5
5
5
5
5
5
5
5
5
5
5
5
5
5
5
5
5
5
5
5
5
5
5
5
5
5
5
5
5
5
5
5
5
5
5
5
5
5
5
5
5
5
5
5
5
5
5
5
5
5
5
5
5
5
5
5
5
5
5
5
5
5
5
5
5
5
5
5
5
5
5
5
5
5
5
5
5
5
5
5
5
5
5
5
5
5
5
5
5
5
5
5
5
5
5
5
5
5
5
5
5
5
5
5
5
5
5
5
5
5
5
5
5
5
5
5
5
5
5
5
5
5
5
5
5
5
5
5
5
5
5
5
5
5
5
5
5
5
5
5
5
5
5
5
5
5
5
5
5
5
5
5
5
5
5
5
5
5
5
5
5
5
5
5
5
5
5
5
5
5
5
5
5
5
5
5
5
5
5
5
5
5
5
5
5
5
5
5
5
5
5
5
5
5
5
5
5
5
5
5
5
5
5
5
5
5
5
5
5
5
5
5
5
5
5
5
5
5
5
5
5
5
5
5
5
5
5
5
5
5
5
5
5
5
5
5
5
5
5
5
5
5
5
5
5
5
5
5
5
5
5
5
5
5
5
5
5
5
5
5
5
5
5
5
5
5
5
5
5
5
5
5
5
5
5
5
5
5
5
5
5
5
5
5
5
5
5
5
5
5
5
5
5
5
5
5
5
5
5
5
5
5
5
5
5
5
5
5
5
5
5
5
5
5
5
5
5
5
5
5
5
5
5
5
5
5
5
5
5
5
5
5
5
5
5
5
5
5
5
5
5
5
5
5
5
5
5
5
5
5
5
5
5
5
5
5
5
5
5
5
5
5
5
5
5
5
5
5
5
5
5
5
5
5
POINT_DATA 320
SCALARS theta_e float 1
LOOKUP_TABLE default
1.000001
1.000001
1.000001
1.000001
1.000001
1.000001
1.000001
1.000001
1.000001
1.000001
1.000001
1.000001
1.000001
1.000001
1.000001
1.000001
1.000001
1.000001
1.000001
1.000001
1.000001
1.000001
1.000001
1.000001
1.000001
1.000001
1.000001
1.000001
1.000001
1.000001
1.000001
1.000001
1.000001
1.000001
1.000001
1.000001
1.000001
1.000001
1.000001
1.000001
1.000001
1.000001
1.000001
1.000001
1.000001
1.000001
1.000001
1.000001
1.000001
1.000001
1.000001
1.000001
1.000001
1.000001
1.000001
1.000001
1.000001
1.000001
1.000001
1.000001
1.000001
1.000001
1.000001
1.000001
1.000001
1.000001
1.000001
1.000001
1.000001
1.000001
1.000001
1.000001
1.000001
1.000001
1.000001
1.000001
1.000001
1.000001
1.000001
1.000001
1.000001
1.000001
1.000001
1.000001
1.000001
1.000001
1.000001
1.000001
1.000001
1.000001
1.000001
1.000001
1.000001
1.000001
1.000001
1.000001
1.000001
1.000001
1.000001
1.000001
1.000001
1.000001
1.000001
1.000001
1.000001
1.000001
1.000001
1.000001
1.000001
1.000001
1.000001
1.000001
1.000001
1.000001
1.000001
1.000001
1.000001
1.000001
1.000001
1.000001
1.000001
1.000001
1.000001
1.000001
0.999997
1.000001
0.999999
1.000001
1.000001
1.000001
1.000001
1.000001
1.000001
1.000001
1.000001
1.000001
1.000001
1.000001
1.000001
1.000001
1.000001
1.000001
1.000001
1.000001
1.000001
1.000001
1.000001
1.000001
1.000001
0.999996
0.999983
0.999989
0.999997
1.000001
0.999999
1.000001
1.000001
1.000001
1.000001
1.000001
1.000001
1.000001
1.000001
1.000001
1.000001
1.000001
1.000001
1.000001
1.000001
1.000001
1.000001
0.999999
1.000001
0.999976
0.999987
0.999975
0.999985
0.999996
1.000001
1.000001
1.000001
1.000001
1.000001
1.000001
1.000001
1.000001
1.000001
1.000001
1.000001
1.000001
1.000001
1.000001
1.000001
0.999997
0.999976
0.999983
0.999976
0.999985
0.999999
1.000001
1.000001
1.000001
1.000001
1.000001
1.000001
1.000001
1.000001
1.000001
1.000001
1.000001
1.000001
1.000001
1.000001
0.999996
0.999982
0.999988
0.999995
1.000001
1.000001
1.000001
1.000001
1.000001
1.000001
1.000001
1.000001
1.000001
1.000001
1.000001
1.000001
1.000000
1.000001
0.999999
0.999996
1.000001
1.000000
1.000000
1.000001
1.000001
1.000001
1.000001
1.000001
1.000001
1.000001
1.000001
1.000001
1.000001
1.000001
1.000000
1.000001
1.000000
1.000000
1.000001
1.000001
1.000001
1.000001
1.000001
1.000001
1.000001
1.000001
1.000001
1.000001
1.000001
1.000001
1.000001
1.000001
1.000001
1.000001
1.000001
1.000001
1.000001
1.000001
1.000001
1.000001
1.000001
1.000001
1.000001
1.000001
1.000001
1.000001
1.000001
1.000001
1.000001
1.000001
1.000001
1.000001
1.000001
1.000001
1.000001
1.000001
1.000001
1.000001
1.000001
1.000001
1.000001
1.000001
1.000001
1.000001
1.000001
1.000001
1.000001
1.000001
1.000001
1.000001
1.000001
1.000001
1.000001
1.000001
1.000001
1.000001
1.000001
1.000001
1.000001
1.000001
1.000001
1.000001
1.000001
1.000001
1.000001
1.000001
1.000001
VECTORS fa_u float
0.000000 0.000000 0.000000
0.000000 0.000000 0.000000
0.000000 0.000000 0.000000
0.000000 0.000000 0.000000
0.000000 0.000000 0.000000
0.000000 0.000000 0.000000
0.000000 0.000000 0.000000
0.000000 0.000000 0.000000
0.000000 0.000000 0.000000
0.000000 0.000000 0.000000
0.000000 0.000000 0.000000
0.000000 0.000000 0.000000
0.000000 0.000000 0.000000
0.000000 0.000000 0.000000
0.000000 0.000000 0.000000
0.000000 0.000000 0.000000
0.000000 0.000000 0.000000
0.000000 0.000000 0.000000
0.000000 0.000000 0.000000
0.000000 0.000000 0.000000
0.000000 0.000000 0.000000
0.000000 0.000000 0.000000
0.000000 0.000000 0.000000
0.000000 0.000000 0.000000
0.000000 0.000000 0.000000
0.000000 0.000000 0.000000
0.000000 0.000000 0.000000
0.000000 0.000000 0.000000
0.000000 0.000000 0.000000
0.000000 0.000000 0.000000
0.000000 0.000000 0.000000
0.000000 0.000000 0.000000
0.000000 0.000000 0.000000
0.000000 0.000000 0.000000
0.000000 0.000000 0.000000
0.000000 0.000000 0.000000
0.000000 0.000000 0.000000
0.000000 0.000000 0.000000
0.000000 0.000000 0.000000
0.000000 0.000000 0.000000
0.000000 0.000000 0.000000
0.000000 0.000000 0.000000
0.000000 0.000000 0.000000
0.000000 0.000000 0.000000
0.000000 0.000000 0.000000
0.000000 0.000000 0.000000
0.000000 0.000000 0.000000
0.000000 0.000000 0.000000
0.000000 0.000000 0.000000
0.000000 0.000000 0.000000
0.000000 0.000000 0.000000
0.000000 0.000000 0.000000
0.000000 0.000000 0.000000
0.000000 0.000000 0.000000
0.000000 0.000000 0.000000
0.000000 0.000000 0.000000
0.000000 0.000000 0.000000
0.000000 0.000000 0.000000
0.000000 0.000000 0.000000
0.000000 0.000000 0.000000
0.000000 0.000000 0.000000
0.000000 0.000000 0.000000
0.000000 0.000000 0.000000
0.000000 0.000000 0.000000
0.000000 0.000000 0.000000
0.000000 0.000000 0.000000
0.000000 0.000000 0.000000
0.000000 0.000000 0.000000
0.000000 0.000000 0.000000
0.000000 0.000000 0.000000
0.000000 0.000000 0.000000
0.000000 0.000000 0.000000
0.000000 0.000000 0.000000
0.000000 0.000000 0.000000
0.000000 0.000000 0.000000
0.000000 0.000000 0.000000
0.000000 0.000000 0.000000
0.000000 0.000000 0.000000
0.000000 0.000000 0.000000
0.000000 0.000000 0.000000
0.000000 0.000000 0.000000
0.000000 0.000000 0.000000
0.000000 0.000000 0.000000
0.000000 0.000000 0.000000
0.000000 0.000000 0.000000
0.000000 0.000000 0.000000
0.000000 0.000000 0.000000
0.000000 0.000000 0.000000
0.000000 0.000000 0.000000
0.000000 0.000000 0.000000
0.000000 0.000000 0.000000
0.000000 0.000000 0.000000
0.000000 0.000000 0.000000
0.000000 0.000000 0.000000
0.000000 0.000000 0.000000
0.000000 0.000000 0.000000
0.000000 0.000000 0.000000
0.000000 0.000000 0.000000
0.000000 0.000000 0.000000
0.000000 0.000000 0.000000
0.000000 0.000000 0.000000
0.000000 0.000000 0.000000
0.000000 0.000000 0.000000
0.000000 0.000000 0.000000
0.000000 0.000000 0.000000
0.000000 0.000000 0.000000
0.000000 0.000000 0.000000
0.000000 0.000000 0.000000
0.000000 0.000000 0.000000
0.000000 0.000000 0.000000
0.000000 0.000000 0.000000
0.000000 0.000000 0.000000
0.000000 0.000000 0.000000
0.000000 0.000000 0.000000
0.000000 0.000000 0.000000
0.000000 0.000000 0.000000
0.000000 0.000000 0.000000
0.000000 0.000000 0.000000
0.000000 0.000000 0.000000
0.000000 0.000000 0.000000
0.000000 0.000000 0.000000
0.000000 0.000000 0.000000
0.000000 0.000000 0.000000
0.000000 0.000000 0.000000
0.000000 0.000000 0.000000
0.000000 0.000000 0.000000
0.000000 0.000000 0.000000
0.000000 0.000000 0.000000
0.000000 0.000000 0.000000
0.000000 0.000000 0.000000
0.000000 0.000000 0.000000
0.000000 0.000000 0.000000
0.000000 0.000000 0.000000
0.000000 0.000000 0.000000
0.000000 0.000000 0.000000
0.000000 0.000000 0.000000
0.000000 0.000000 0.000000
0.000000 0.000000 0.000000
0.000000 0.000000 0.000000
0.000000 0.000000 0.000000
0.000000 0.000000 0.000000
0.000000 0.000000 0.000000
0.000000 0.000000 0.000000
0.000000 0.000000 0.000000
0.000000 0.000000 0.000000
0.000000 0.000000 0.000000
0.000000 0.000000 0.000000
0.000000 0.000000 0.000000
0.000000 0.000000 0.000000
0.000000 0.000000 0.000000
0.000000 0.000000 0.000000
0.000000 0.000000 0.000000
0.000000 0.000000 0.000000
0.000000 0.000000 0.000000
0.000000 0.000000 0.000000
0.000000 0.000000 0.000000
0.000000 0.000000 0.000000
0.000000 0.000000 0.000000
0.000000 0.000000 0.000000
0.000000 0.000000 0.000000
0.000000 0.000000 0.000000
0.000000 0.000000 0.000000
0.000000 0.000000 0.000000
0.000000 0.000000 0.000000
0.000000 0.000000 0.000000
0.000000 0.000000 0.000000
0.000000 0.000000 0.000000
0.000000 0.000000 0.000000
0.000000 0.000000 0.000000
0.000000 0.000000 0.000000
0.000000 0.000000 0.000000
0.000000 0.000000 0.000000
0.000000 0.000000 0.000000
0.000000 0.000000 0.000000
0.000000 0.000000 0.000000
0.000000 0.000000 0.000000
0.000000 0.000000 0.000000
0.000000 0.000000 0.000000
0.000000 0.000000 0.000000
0.000000 0.000000 0.000000
0.000000 0.000000 0.000000
0.000000 0.000000 0.000000
0.000000 0.000000 0.000000
0.000000 0.000000 0.000000
0.000000 0.000000 0.000000
0.000000 0.000000 0.000000
0.000000 0.000000 0.000000
0.000000 0.000000 0.000000
0.000000 0.000000 0.000000
0.000000 0.000000 0.000000
0.000000 0.000000 0.000000
0.000000 0.000000 0.000000
0.000000 0.000000 0.000000
0.000000 0.000000 0.000000
0.000000 0.000000 0.000000
0.000000 0.000000 0.000000
0.000000 0.000000 0.000000
0.000000 0.000000 0.000000
0.000000 0.000000 0.000000
0.000000 0.000000 0.000000
0.000000 0.000000 0.000000
0.000000 0.000000 0.000000
0.000000 0.000000 0.000000
0.000000 0.000000 0.000000
0.000000 0.000000 0.000000
0.000000 0.000000 0.000000
0.000000 0.000000 0.000000
0.000000 0.000000 0.000000
0.000000 0.000000 0.000000
0.000000 0.000000 0.000000
0.000000 0.000000 0.000000
0.000000 0.000000 0.000000
0.000000 0.000000 0.000000
0.000000 0.000000 0.000000
0.000000 0.000000 0.000000
0.000000 0.000000 0.000000
0.000000 0.000000 0.000000
0.000000 0.000000 0.000000
0.000000 0.000000 0.000000
0.000000 0.000000 0.000000
0.000000 0.000000 0.000000
0.000000 0.000000 0.000000
0.000000 0.000000 0.000000
0.000000 0.000000 0.000000
0.000000 0.000000 0.000000
0.000000 0.000000 0.000000
0.000000 0.000000 0.000000
0.000000 0.000000 0.000000
0.000000 0.000000 0.000000
0.000000 0.000000 0.000000
0.000000 0.000000 0.000000
0.000000 0.000000 0.000000
0.000000 0.000000 0.000000
0.000000 0.000000 0.000000
0.000000 0.000000 0.000000
0.000000 0.000000 0.000000
0.000000 0.000000 0.000000
0.000000 0.000000 0.000000
0.000000 0.000000 0.000000
0.000000 0.000000 0.000000
0.000000 0.000000 0.000000
0.000000 0.000000 0.000000
0.000000 0.000000 0.000000
0.000000 0.000000 0.000000
0.000000 0.000000 0.000000
0.000000 0.000000 0.000000
0.000000 0.000000 0.000000
0.000000 0.000000 0.000000
0.000000 0.000000 0.000000
0.000000 0.000000 0.000000
0.000000 0.000000 0.000000
0.000000 0.000000 0.000000
0.000000 0.000000 0.000000
0.000000 0.000000 0.000000
0.000000 0.000000 0.000000
0.000000 0.000000 0.000000
0.000000 0.000000 0.000000
0.000000 0.000000 0.000000
0.000000 0.000000 0.000000
0.000000 0.000000 0.000000
0.000000 0.000000 0.000000
0.000000 0.000000 0.000000
0.000000 0.000000 0.000000
0.000000 0.000000 0.000000
0.000000 0.000000 0.000000
0.000000 0.000000 0.000000
0.000000 0.000000 0.000000
0.000000 0.000000 0.000000
0.000000 0.000000 0.000000
0.000000 0.000000 0.000000
0.000000 0.000000 0.000000
0.000000 0.000000 0.000000
0.000000 0.000000 0.000000
0.000000 0.000000 0.000000
0.000000 0.000000 0.000000
0.000000 0.000000 0.000000
0.000000 0.000000 0.000000
0.000000 0.000000 0.000000
0.000000 0.000000 0.000000
0.000000 0.000000 0.000000
0.000000 0.000000 0.000000
0.000000 0.000000 0.000000
0.000000 0.000000 0.000000
0.000000 0.000000 0.000000
0.000000 0.000000 0.000000
0.000000 0.000000 0.000000
0.000000 0.000000 0.000000
0.000000 0.000000 0.000000
0.000000 0.000000 0.000000
0.000000 0.000000 0.000000
0.000000 0.000000 0.000000
0.000000 0.000000 0.000000
0.000000 0.000000 0.000000
0.000000 0.000000 0.000000
0.000000 0.000000 0.000000
0.000000 0.000000 0.000000
0.000000 0.000000 -50.000000
-50.000000 0.000000 -50.000000
-43.332621 0.000000 -45.688513
-45.491251 0.000000 -43.332517
-50.000000 0.000000 -50.000000
-36.665198 0.000000 -36.665236
-50.000000 0.000000 -45.081256
-39.969858 0.000000 -40.027387
-44.152383 0.000000 -29.997899
-50.000000 0.000000 -50.000000
-29.997842 0.000000 -44.847222
-33.448976 0.000000 -33.145072
-44.675802 0.000000 -39.869296
-36.787068 0.000000 -35.128860
-39.801446 0.000000 -23.330845
-50.000000 0.000000 -26.539324
-44.666797 0.000000 -50.000000
-23.330805 0.000000 -44.665330
-26.804007 0.000000 -39.364365
-30.225763 0.000000 -29.606504
-39.359474 0.000000 -33.368470
-33.655575 0.000000 -50.000000
-16.664234 0.000000 -16.664322
-50.000000 0.000000 -9.998340
