# vtk DataFile Version 2.0
CellBP Time: 9.16
ASCII
DATASET UNSTRUCTURED_GRID
POINTS 320 double
-50.000000 -50.000000 0.000000
-50.000000 -43.332183 0.000000
-45.688671 -45.491379 0.000000
-43.332026 -50.000000 0.000000
-50.000000 -36.664296 0.000000
-36.664382 -50.000000 0.000000
-45.081425 -39.969946 0.000000
-40.027636 -44.152514 0.000000
-29.996655 -50.000000 0.000000
-50.000000 -29.996522 0.000000
-44.847387 -33.449049 0.000000
-33.145274 -44.675944 0.000000
-39.869508 -36.787162 0.000000
-35.129117 -39.801618 0.000000
-23.329387 -50.000000 0.000000
-26.539546 -44.666861 0.000000
-50.000000 -23.329270 0.000000
-44.665397 -26.804112 0.000000
-39.364518 -30.225866 0.000000
-29.606796 -39.359607 0.000000
-33.368762 -33.655732 0.000000
-50.000000 -16.662770 0.000000
-16.662968 -50.000000 0.000000
-9.997405 -50.000000 0.000000
-19.965351 -44.588701 0.000000
-23.216284 -39.114765 0.000000
-44.691807 -20.097100 0.000000
-39.367958 -23.528201 0.000000
-34.106449 -26.937143 0.000000
-26.384923 -33.577609 0.000000
-29.156711 -28.926919 0.000000
-50.000000 -9.996924 0.000000
-44.666289 -13.410345 0.000000
-50.000000 -3.331901 0.000000
-3.332538 -50.000000 0.000000
3.332165 -50.000000 0.000000
-13.344144 -44.598855 0.000000
-6.685031 -44.610445 0.000000
-16.694072 -39.153067 0.000000
-20.107249 -33.342601 0.000000
-39.338097 -16.804576 0.000000
-34.019086 -20.274461 0.000000
-28.781511 -23.449274 0.000000
-23.510908 -27.351137 0.000000
-44.635254 -6.705489 0.000000
-39.293120 -10.101663 0.000000
-50.000000 3.332702 0.000000
-44.626468 -0.015323 0.000000
9.997228 -50.000000 0.000000
16.662977 -50.000000 0.000000
-0.016215 -44.618550 0.000000
6.651798 -44.635320 0.000000
-10.045038 -39.222492 0.000000
-3.368346 -39.220162 0.000000
-13.484396 -33.798359 0.000000
-16.708784 -28.271595 0.000000
-33.947899 -13.513325 0.000000
-28.602902 -16.891907 0.000000
-23.292984 -20.313377 0.000000
-18.661185 -23.284904 0.000000
-39.267290 -3.392524 0.000000
-33.904461 -6.796689 0.000000
-50.000000 9.997469 0.000000
-44.606459 6.673896 0.000000
-39.260567 3.325878 0.000000
-50.000000 16.663000 0.000000
23.329421 -50.000000 0.000000
29.996569 -50.000000 0.000000
13.317849 -44.662918 0.000000
19.990013 -44.700091 0.000000
3.307602 -39.245093 0.000000
9.971891 -39.290398 0.000000
-6.735810 -33.791330 0.000000
-0.032161 -33.829398 0.000000
-10.096093 -28.292110 0.000000
-13.122695 -22.895502 0.000000
-28.531198 -10.213904 0.000000
-23.068069 -13.663832 0.000000
-16.979572 -17.213223 0.000000
-33.884055 -0.065480 0.000000
-28.562627 -3.580419 0.000000
-44.563915 13.381107 0.000000
-39.189805 10.015304 0.000000
-33.905374 6.616112 0.000000
-50.000000 23.329190 0.000000
-44.557263 20.138697 0.000000
-50.000000 29.996667 0.000000
36.664235 -50.000000 0.000000
43.332072 -50.000000 0.000000
26.663608 -44.745416 0.000000
33.315561 -44.876195 0.000000
16.631761 -39.357681 0.000000
23.328465 -39.437214 0.000000
6.642977 -33.879624 0.000000
13.290427 -33.965439 0.000000
-3.346601 -28.363908 0.000000
3.358551 -28.451192 0.000000
-6.626463 -22.844594 0.000000
-9.960744 -17.315249 0.000000
-23.179445 -7.014016 0.000000
-17.814463 -10.334873 0.000000
-12.837919 -12.611865 0.000000
-28.607262 3.088749 0.000000
-23.267007 -0.470234 0.000000
-39.038324 16.746363 0.000000
-28.719841 9.925691 0.000000
-33.760605 13.317913 0.000000
-44.521726 26.717459 0.000000
-38.467802 23.892843 0.000000
-44.632859 33.086123 0.000000
-50.000000 36.664812 0.000000
-50.000000 43.332360 0.000000
39.922607 -45.069819 0.000000
45.474986 -45.660709 0.000000
50.000000 -50.000000 0.000000
36.626982 -39.982153 0.000000
30.012632 -39.458783 0.000000
19.904212 -34.093053 0.000000
26.585177 -34.319707 0.000000
9.988350 -28.512561 0.000000
16.610445 -28.660623 0.000000
0.050036 -22.964009 0.000000
6.811992 -23.154595 0.000000
-3.397532 -17.296930 0.000000
-6.794926 -10.871451 0.000000
-17.872918 -3.811135 0.000000
-12.547696 -7.033146 0.000000
-23.307751 6.068877 0.000000
-18.033307 2.435875 0.000000
-23.124007 12.096423 0.000000
-33.572175 19.788968 0.000000
-27.941855 16.886569 0.000000
-33.293410 24.723159 0.000000
-39.474221 30.053517 0.000000
-35.161094 28.137970 0.000000
-39.816659 35.101935 0.000000
-43.992038 39.982842 0.000000
-45.431210 45.685564 0.000000
-50.000000 50.000000 0.000000
44.117505 -39.899372 0.000000
50.000000 -43.331659 0.000000
39.639700 -35.047674 0.000000
33.463078 -33.424766 0.000000
22.985047 -28.818306 0.000000
28.731134 -29.248027 0.000000
13.460815 -23.121919 0.000000
20.054986 -23.440046 0.000000
3.362376 -17.591372 0.000000
10.122141 -17.843916 0.000000
0.169615 -11.772753 0.000000
-2.122482 -6.151722 0.000000
-7.140908 -3.553311 0.000000
-12.427232 -0.808579 0.000000
-18.175148 8.573190 0.000000
-12.932244 5.196529 0.000000
-18.637724 13.750810 0.000000
-21.503558 17.493887 0.000000
-28.941222 23.159519 0.000000
-24.346521 21.554162 0.000000
-30.324181 28.635339 0.000000
-34.254011 33.375764 0.000000
-36.956223 39.578227 0.000000
-39.838805 45.103030 0.000000
-43.332014 50.000000 0.000000
44.585472 -32.972349 0.000000
50.000000 -36.663823 0.000000
39.129431 -29.582139 0.000000
33.500788 -26.367839 0.000000
27.183391 -23.322141 0.000000
23.067625 -18.648047 0.000000
16.992992 -16.982828 0.000000
6.696754 -12.189398 0.000000
12.375544 -12.737931 0.000000
-3.362374 -1.483386 0.000000
3.782336 -6.757792 0.000000
1.023886 -2.120637 0.000000
-6.845850 2.262428 0.000000
-8.230715 7.645478 0.000000
-12.840949 11.927385 0.000000
-15.690215 17.698677 0.000000
-19.287555 22.981092 0.000000
-24.171036 27.354302 0.000000
-27.286470 33.625747 0.000000
-30.406863 39.160991 0.000000
-33.448039 44.738897 0.000000
-36.664102 50.000000 0.000000
44.547771 -26.500238 0.000000
50.000000 -29.996056 0.000000
39.040018 -23.179400 0.000000
33.449506 -19.900012 0.000000
28.039608 -16.573171 0.000000
22.679162 -13.123569 0.000000
17.175865 -9.898658 0.000000
10.768223 -6.572635 0.000000
-1.360042 2.322115 0.000000
6.127085 -1.708375 0.000000
2.885927 1.591622 0.000000
-3.443988 6.970621 0.000000
-6.314168 12.425758 0.000000
-9.629337 17.713185 0.000000
-13.168265 23.115002 0.000000
-17.317037 28.185045 0.000000
-20.571167 33.474143 0.000000
-23.666232 39.063880 0.000000
-26.831383 44.585336 0.000000
-29.996645 50.000000 0.000000
44.528623 -19.931035 0.000000
50.000000 -23.328857 0.000000
39.036104 -16.594266 0.000000
33.575714 -13.281269 0.000000
28.148882 -9.965150 0.000000
22.724495 -6.604807 0.000000
17.265181 -3.334500 0.000000
11.781415 0.218502 0.000000
1.906049 6.191893 0.000000
6.785531 3.699854 0.000000
-0.228084 11.750098 0.000000
-3.245420 17.531801 0.000000
-6.698614 22.976125 0.000000
-10.566964 28.267150 0.000000
-13.724400 33.660834 0.000000
-16.946045 39.080072 0.000000
-20.141151 44.548311 0.000000
-23.329640 50.000000 0.000000
44.536100 -13.304169 0.000000
50.000000 -16.662488 0.000000
39.079724 -9.966945 0.000000
33.646515 -6.641518 0.000000
28.236845 -3.308212 0.000000
22.850530 0.017267 0.000000
17.538620 3.338759 0.000000
12.177696 6.580066 0.000000
6.649720 10.681163 0.000000
3.302633 17.200627 0.000000
-0.080451 22.855272 0.000000
-3.519241 28.313258 0.000000
-6.831859 33.774721 0.000000
-10.137920 39.170492 0.000000
-13.436362 44.563416 0.000000
-16.663345 50.000000 0.000000
44.554067 -6.655049 0.000000
50.000000 -9.997039 0.000000
39.123129 -3.321485 0.000000
33.713283 0.008834 0.000000
28.333349 3.345366 0.000000
22.998880 6.693935 0.000000
17.834890 10.018000 0.000000
12.658936 12.246236 0.000000
9.783243 17.232491 0.000000
6.480022 22.722430 0.000000
3.189565 28.270491 0.000000
-0.116088 33.734985 0.000000
-3.425402 39.168732 0.000000
-6.725892 44.581693 0.000000
-9.997694 50.000000 0.000000
44.575444 0.001779 0.000000
50.000000 -3.332314 0.000000
39.166885 3.331812 0.000000
33.779571 6.655684 0.000000
28.423774 9.994677 0.000000
23.046546 13.416109 0.000000
16.951426 17.024738 0.000000
12.901563 22.666575 0.000000
9.815611 28.231609 0.000000
6.604465 33.718834 0.000000
3.286542 39.164440 0.000000
-0.029996 44.584473 0.000000
-3.332560 50.000000 0.000000
44.586635 6.665701 0.000000
50.000000 3.332318 0.000000
39.198235 9.982078 0.000000
33.843527 13.276882 0.000000
28.542486 16.584232 0.000000
23.387890 20.084254 0.000000
18.532048 23.113686 0.000000
16.392447 28.298444 0.000000
13.329086 33.754733 0.000000
9.986768 39.181947 0.000000
6.666186 44.584203 0.000000
3.332401 50.000000 0.000000
44.608877 13.318379 0.000000
50.000000 9.997393 0.000000
39.251398 16.612654 0.000000
33.932090 19.862923 0.000000
28.612637 22.926003 0.000000
23.279700 27.207854 0.000000
19.901453 33.302805 0.000000
16.574171 39.040805 0.000000
13.268792 44.526603 0.000000
9.997454 50.000000 0.000000
44.632064 19.973491 0.000000
50.000000 16.663162 0.000000
39.298577 23.262430 0.000000
34.043995 26.514934 0.000000
28.966029 28.539521 0.000000
26.202637 33.410201 0.000000
23.067016 38.968791 0.000000
19.889060 44.507009 0.000000
16.662983 50.000000 0.000000
44.639913 26.643385 0.000000
50.000000 23.329590 0.000000
39.293544 29.967039 0.000000
33.212656 33.371505 0.000000
29.412489 39.045968 0.000000
26.422815 44.506018 0.000000
23.329318 50.000000 0.000000
44.775212 33.292144 0.000000
50.000000 29.996684 0.000000
39.738389 36.596557 0.000000
34.831361 39.525923 0.000000
32.834182 44.514529 0.000000
29.996396 50.000000 0.000000
44.978484 39.878145 0.000000
50.000000 36.664288 0.000000
39.735294 43.969316 0.000000
36.664037 50.000000 0.000000
45.621580 45.410115 0.000000
50.000000 43.332082 0.000000
43.331763 50.000000 0.000000
50.000000 50.000000 0.000000
CELLS 578 2312
3 1 0 2
3 0 3 2
3 4 1 6
3 6 1 2
3 3 5 7
3 3 7 2
3 6 2 7
3 9 4 10
3 10 4 6
3 5 8 11
3 7 5 11
3 10 6 12
3 12 6 7
3 7 11 13
3 7 13 12
3 8 14 15
3 11 8 15
3 16 9 17
3 17 9 10
3 17 10 18
3 18 10 12
3 11 15 19
3 13 11 19
3 18 12 20
3 13 19 20
3 20 12 13
3 14 22 24
3 15 14 24
3 15 24 25
3 19 15 25
3 21 16 26
3 26 16 17
3 26 17 27
3 27 17 18
3 27 18 28
3 28 18 20
3 19 25 29
3 19 29 20
3 28 20 30
3 30 20 29
3 31 21 32
3 32 21 26
3 22 23 36
3 24 22 36
3 23 34 37
3 36 23 37
3 24 36 38
3 25 24 38
3 25 38 39
3 29 25 39
3 32 26 40
3 40 26 27
3 40 27 41
3 41 27 28
3 41 28 42
3 42 28 30
3 29 39 43
3 29 43 30
3 42 30 43
3 33 31 44
3 44 31 32
3 44 32 45
3 45 32 40
3 46 33 47
3 47 33 44
3 34 35 50
3 37 34 50
3 35 48 51
3 50 35 51
3 36 37 52
3 38 36 52
3 37 50 53
3 52 37 53
3 38 52 54
3 39 38 54
3 39 54 55
3 43 39 55
3 45 40 56
3 56 40 41
3 56 41 57
3 57 41 42
3 57 42 58
3 58 42 43
3 43 55 59
3 43 59 58
3 47 44 60
3 60 44 45
3 60 45 61
3 61 45 56
3 62 46 63
3 63 46 47
3 63 47 64
3 64 47 60
3 48 49 68
3 51 48 68
3 49 66 69
3 68 49 69
3 50 51 70
3 53 50 70
3 51 68 71
3 70 51 71
3 52 53 72
3 54 52 72
3 53 70 73
3 72 53 73
3 54 72 74
3 55 54 74
3 55 74 75
3 59 55 75
3 61 56 76
3 76 56 57
3 76 57 77
3 77 57 58
3 77 58 78
3 59 75 78
3 78 58 59
3 64 60 79
3 79 60 61
3 79 61 80
3 80 61 76
3 65 62 81
3 81 62 63
3 81 63 82
3 82 63 64
3 82 64 83
3 83 64 79
3 84 65 85
3 85 65 81
3 66 67 89
3 69 66 89
3 67 87 90
3 89 67 90
3 68 69 91
3 71 68 91
3 69 89 92
3 91 69 92
3 70 71 93
3 73 70 93
3 71 91 94
3 93 71 94
3 72 73 95
3 74 72 95
3 73 93 96
3 95 73 96
3 74 95 97
3 75 74 97
3 75 97 98
3 78 75 98
3 80 76 99
3 99 76 77
3 99 77 100
3 100 77 78
3 100 78 101
3 98 101 78
3 83 79 102
3 102 79 80
3 102 80 103
3 103 80 99
3 85 81 104
3 104 81 82
3 105 83 102
3 104 82 106
3 106 82 83
3 106 83 105
3 86 84 107
3 107 84 85
3 107 85 108
3 108 85 104
3 109 86 107
3 110 86 109
3 87 88 112
3 90 87 112
3 112 88 113
3 88 114 113
3 90 112 115
3 89 90 116
3 92 89 116
3 116 90 115
3 91 92 117
3 94 91 117
3 92 116 118
3 117 92 118
3 93 94 119
3 96 93 119
3 94 117 120
3 119 94 120
3 95 96 121
3 97 95 121
3 96 119 122
3 121 96 122
3 97 121 123
3 98 97 123
3 98 123 124
3 98 124 101
3 103 99 125
3 125 99 100
3 125 100 126
3 126 100 101
3 126 101 124
3 105 102 127
3 127 102 103
3 127 103 128
3 128 103 125
3 129 105 127
3 108 104 130
3 130 104 106
3 130 106 131
3 131 106 105
3 131 105 129
3 108 130 132
3 109 107 133
3 133 107 108
3 133 108 134
3 108 132 134
3 135 109 133
3 111 110 136
3 136 110 109
3 136 109 135
3 137 111 136
3 138 111 137
3 112 113 139
3 115 112 139
3 114 140 113
3 140 139 113
3 139 141 115
3 116 115 142
3 118 116 142
3 142 115 141
3 117 118 143
3 120 117 143
3 118 142 144
3 143 118 144
3 119 120 145
3 122 119 145
3 120 143 146
3 145 120 146
3 121 122 147
3 123 121 147
3 122 145 148
3 147 122 148
3 123 147 149
3 124 123 149
3 124 149 150
3 151 126 124
3 124 150 151
3 128 125 152
3 152 125 126
3 152 126 151
3 129 127 153
3 153 127 128
3 128 152 154
3 153 128 154
3 155 129 153
3 131 129 156
3 156 129 155
3 132 130 157
3 130 131 157
3 157 131 158
3 131 156 158
3 132 157 159
3 132 159 134
3 135 133 160
3 160 133 134
3 160 134 159
3 136 135 161
3 135 160 161
3 162 137 136
3 161 162 136
3 163 138 137
3 162 163 137
3 139 164 141
3 140 165 139
3 139 165 164
3 141 164 166
3 141 166 142
3 166 167 142
3 144 142 167
3 167 168 144
3 143 144 168
3 146 143 168
3 168 169 146
3 145 146 170
3 148 145 170
3 170 146 169
3 147 148 171
3 149 147 171
3 148 170 172
3 171 148 172
3 173 151 150
3 149 171 174
3 150 149 174
3 150 174 175
3 150 175 173
3 154 152 176
3 152 151 176
3 176 151 173
3 154 176 177
3 155 153 178
3 177 178 154
3 154 178 153
3 156 155 179
3 155 178 179
3 180 158 156
3 179 180 156
3 181 159 157
3 180 181 158
3 181 157 158
3 182 160 159
3 181 182 159
3 183 161 160
3 182 183 160
3 184 162 161
3 184 161 183
3 185 163 162
3 184 185 162
3 164 186 166
3 165 187 164
3 164 187 186
3 166 186 188
3 166 188 167
3 167 188 189
3 167 189 168
3 168 189 190
3 168 190 169
3 169 190 191
3 169 191 170
3 192 172 170
3 170 191 192
3 192 193 172
3 171 172 193
3 174 171 193
3 194 173 175
3 176 173 194
3 175 174 195
3 193 195 174
3 195 196 175
3 175 196 194
3 197 177 176
3 194 197 176
3 198 178 177
3 197 198 177
3 199 179 178
3 198 199 178
3 200 180 179
3 199 200 179
3 201 181 180
3 200 201 180
3 202 182 181
3 201 202 181
3 203 183 182
3 202 203 182
3 204 184 183
3 203 204 183
3 205 185 184
3 204 205 184
3 186 206 188
3 187 207 186
3 186 207 206
3 188 206 208
3 188 208 189
3 189 208 209
3 189 209 190
3 190 209 210
3 190 210 191
3 191 210 211
3 191 211 192
3 192 211 212
3 192 212 193
3 193 212 213
3 193 213 195
3 214 197 194
3 214 194 196
3 195 213 215
3 195 215 196
3 196 215 214
3 216 198 197
3 214 216 197
3 217 199 198
3 216 217 198
3 218 200 199
3 217 218 199
3 219 201 200
3 218 219 200
3 220 202 201
3 219 220 201
3 221 203 202
3 220 221 202
3 222 204 203
3 221 222 203
3 223 205 204
3 222 223 204
3 206 224 208
3 207 225 206
3 206 225 224
3 208 224 226
3 208 226 209
3 209 226 227
3 209 227 210
3 210 227 228
3 210 228 211
3 211 228 229
3 211 229 212
3 212 229 230
3 212 230 213
3 213 230 231
3 213 231 215
3 232 216 214
3 215 231 232
3 232 214 215
3 233 217 216
3 232 233 216
3 234 218 217
3 233 234 217
3 235 219 218
3 234 235 218
3 236 220 219
3 235 236 219
3 237 221 220
3 236 237 220
3 238 222 221
3 237 238 221
3 239 223 222
3 238 239 222
3 224 240 226
3 225 241 224
3 224 241 240
3 226 240 242
3 226 242 227
3 227 242 243
3 227 243 228
3 228 243 244
3 228 244 229
3 244 245 229
3 229 245 230
3 230 245 246
3 230 246 231
3 231 246 247
3 231 247 232
3 248 233 232
3 248 232 247
3 249 234 233
3 248 249 233
3 250 235 234
3 249 250 234
3 251 236 235
3 250 251 235
3 252 237 236
3 251 252 236
3 253 238 237
3 252 253 237
3 254 239 238
3 253 254 238
3 240 255 242
3 241 256 240
3 240 256 255
3 242 255 257
3 242 257 243
3 243 257 258
3 243 258 244
3 244 258 259
3 244 259 245
3 245 259 260
3 245 260 246
3 246 260 261
3 246 261 247
3 248 247 261
3 262 249 248
3 261 262 248
3 263 250 249
3 262 263 249
3 264 251 250
3 263 264 250
3 265 252 251
3 264 265 251
3 266 253 252
3 265 266 252
3 267 254 253
3 266 267 253
3 255 268 257
3 256 269 255
3 255 269 268
3 257 268 270
3 257 270 258
3 258 270 271
3 258 271 259
3 259 271 272
3 259 272 260
3 260 272 273
3 260 273 261
3 274 262 261
3 261 273 274
3 275 263 262
3 274 275 262
3 276 264 263
3 275 276 263
3 277 265 264
3 276 277 264
3 278 266 265
3 277 278 265
3 279 267 266
3 278 279 266
3 268 280 270
3 269 281 268
3 268 281 280
3 270 280 282
3 270 282 271
3 271 282 283
3 271 283 272
3 283 284 272
3 272 284 273
3 285 275 274
3 273 284 285
3 285 274 273
3 286 276 275
3 285 286 275
3 287 277 276
3 286 287 276
3 288 278 277
3 287 288 277
3 289 279 278
3 288 289 278
3 280 290 282
3 281 291 280
3 280 291 290
3 282 290 292
3 282 292 283
3 283 292 293
3 283 293 284
3 284 293 294
3 284 294 285
3 295 286 285
3 295 285 294
3 296 287 286
3 295 296 286
3 297 288 287
3 296 297 287
3 298 289 288
3 297 298 288
3 290 299 292
3 291 300 290
3 290 300 299
3 292 299 301
3 292 301 293
3 293 301 302
3 293 302 294
3 294 302 295
3 303 296 295
3 303 295 302
3 304 297 296
3 303 304 296
3 305 298 297
3 304 305 297
3 299 306 301
3 300 307 299
3 299 307 306
3 301 306 308
3 301 308 302
3 309 303 302
3 302 308 309
3 310 304 303
3 309 310 303
3 311 305 304
3 310 311 304
3 306 312 308
3 307 313 306
3 306 313 312
3 314 310 309
3 308 312 314
3 314 309 308
3 315 311 310
3 314 315 310
3 312 316 314
3 313 317 312
3 312 317 316
3 318 315 314
3 318 314 316
3 317 319 316
3 319 318 316
CELL_TYPES 578
5
5
5
5
5
5
5
5
5
5
5
5
5
5
5
5
5
5
5
5
5
5
5
5
5
5
5
5
5
5
5
5
5
5
5
5
5
5
5
5
5
5
5
5
5
5
5
5
5
5
5
5
5
5
5
5
5
5
5
5
5
5
5
5
5
5
5
5
5
5
5
5
5
5
5
5
5
5
5
5
5
5
5
5
5
5
5
5
5
5
5
5
5
5
5
5
5
5
5
5
5
5
5
5
5
5
5
5
5
5
5
5
5
5
5
5
5
5
5
5
5
5
5
5
5
5
5
5
5
5
5
5
5
5
5
5
5
5
5
5
5
5
5
5
5
5
5
5
5
5
5
5
5
5
5
5
5
5
5
5
5
5
5
5
5
5
5
5
5
5
5
5
5
5
5
5
5
5
5
5
5
5
5
5
5
5
5
5
5
5
5
5
5
5
5
5
5
5
5
5
5
5
5
5
5
5
5
5
5
5
5
5
5
5
5
5
5
5
5
5
5
5
5
5
5
5
5
5
5
5
5
5
5
5
5
5
5
5
5
5
5
5
5
5
5
5
5
5
5
5
5
5
5
5
5
5
5
5
5
5
5
5
5
5
5
5
5
5
5
5
5
5
5
5
5
5
5
5
5
5
5
5
5
5
5
5
5
5
5
5
5
5
5
5
5
5
5
5
5
5
5
5
5
5
5
5
5
5
5
5
5
5
5
5
5
5
5
5
5
5
5
5
5
5
5
5
5
5
5
5
5
5
5
5
5
5
5
5
5
5
5
5
5
5
5
5
5
5
5
5
5
5
5
5
5
5
5
5
5
5
5
5
5
5
5
5
5
5
5
5
5
5
5
5
5
5
5
5
5
5
5
5
5
5
5
5
5
5
5
5
5
5
5
5
5
5
5
5
5
5
5
5
5
5
5
5
5
5
5
5
5
5
5
5
5
5
5
5
5
5
5
5
5
5
5
5
5
5
5
5
5
5
5
5
5
5
5
5
5
5
5
5
5
5
5
5
5
5
5
5
5
5
5
5
5
5
5
5
5
5
5
5
5
5
5
5
5
5
5
5
5
5
5
5
5
5
5
5
5
5
5
5
5
5
5
5
5
5
5
5
5
5
5
5
5
5
5
5
5
5
5
5
5
5
5
5
5
5
5
5
5
5
5
5
5
5
5
5
5
5
5
5
5
5
5
5
5
5
5
5
5
5
5
5
5
5
5
5
5
5
5
5
5
5
5
5
5
5
5
5
5
5
5
5
5
5
5
5
5
5
5
5
5
5
5
5
5
5
5
5
5
5
5
5
5
5
5
5
POINT_DATA 320
SCALARS theta_e float 1
LOOKUP_TABLE default
1.000000
1.000000
1.000000
1.000000
1.000000
1.000000
1.000000
1.000000
1.000000
1.000000
1.000000
1.000000
1.000000
1.000000
1.000000
1.000000
1.000000
1.000000
1.000000
1.000000
1.000000
1.000000
1.000000
1.000000
1.000000
1.000000
1.000000
1.000000
1.000000
1.000000
1.000000
1.000000
1.000000
1.000000
1.000000
1.000000
1.000000
1.000000
1.000000
1.000000
1.000000
1.000000
1.000000
1.000000
1.000000
1.000000
1.000000
1.000000
1.000000
1.000000
1.000000
1.000000
1.000000
1.000000
1.000000
1.000000
1.000000
1.000000
1.000000
1.000000
1.000000
1.000000
1.000000
1.000000
1.000000
1.000000
1.000000
1.000000
1.000000
1.000000
1.000000
1.000000
1.000000
1.000000
1.000000
1.000000
1.000000
1.000000
1.000000
1.000000
1.000000
1.000000
1.000000
1.000000
1.000000
1.000000
1.000000
1.000000
1.000000
1.000000
1.000000
1.000000
1.000000
1.000000
1.000000
1.000000
1.000000
1.000000
1.000000
1.000000
1.000000
1.000000
1.000000
1.000000
1.000000
1.000000
1.000000
1.000000
1.000000
1.000000
1.000000
1.000000
1.000000
1.000000
1.000000
1.000000
1.000000
1.000000
1.000000
1.000000
1.000000
1.000000
1.000000
1.000000
1.000000
1.000000
1.000000
1.000000
1.000000
1.000000
1.000000
1.000000
1.000000
1.000000
1.000000
1.000000
1.000000
1.000000
1.000000
1.000000
1.000000
1.000000
1.000000
1.000000
1.000000
1.000000
1.000000
1.000000
1.000000
0.999999
0.999998
0.999999
0.999999
1.000000
0.999999
1.000000
1.000000
1.000000
1.000000
1.000000
1.000000
1.000000
1.000000
1.000000
1.000000
1.000000
1.000000
1.000000
1.000000
1.000000
1.000000
0.999999
1.000000
0.999996
0.999997
0.999995
0.999997
0.999999
1.000000
1.000000
1.000000
1.000000
1.000000
1.000000
1.000000
1.000000
1.000000
1.000000
1.000000
1.000000
1.000000
1.000000
1.000000
0.999998
0.999995
0.999995
0.999994
0.999996
0.999999
1.000000
1.000000
1.000000
1.000000
1.000000
1.000000
1.000000
1.000000
1.000000
1.000000
1.000000
1.000000
1.000000
1.000000
0.999998
0.999995
0.999996
0.999998
1.000000
1.000000
1.000000
1.000000
1.000000
1.000000
1.000000
1.000000
1.000000
1.000000
1.000000
1.000000
1.000000
1.000000
1.000000
0.999999
1.000000
1.000000
1.000000
1.000000
1.000000
1.000000
1.000000
1.000000
1.000000
1.000000
1.000000
1.000000
1.000000
1.000000
1.000000
1.000000
1.000000
1.000000
1.000000
1.000000
1.000000
1.000000
1.000000
1.000000
1.000000
1.000000
1.000000
1.000000
1.000000
1.000000
1.000000
1.000000
1.000000
1.000000
1.000000
1.000000
1.000000
1.000000
1.000000
1.000000
1.000000
1.000000
1.000000
1.000000
1.000000
1.000000
1.000000
1.000000
1.000000
1.000000
1.000000
1.000000
1.000000
1.000000
1.000000
1.000000
1.000000
1.000000
1.000000
1.000000
1.000000
1.000000
1.000000
1.000000
1.000000
1.000000
1.000000
1.000000
1.000000
1.000000
1.000000
1.000000
1.000000
1.000000
1.000000
1.000000
1.000000
1.000000
1.000000
1.000000
1.000000
1.000000
1.000000
1.000000
1.000000
1.000000
1.000000
VECTORS fa_u float
0.000000 0.000000 0.000000
0.000000 0.000000 0.000000
0.000000 0.000000 0.000000
0.000000 0.000000 0.000000
0.000000 0.000000 0.000000
0.000000 0.000000 0.000000
0.000000 0.000000 0.000000
0.000000 0.000000 0.000000
0.000000 0.000000 0.000000
0.000000 0.000000 0.000000
0.000000 0.000000 0.000000
0.000000 0.000000 0.000000
0.000000 0.000000 0.000000
0.000000 0.000000 0.000000
0.000000 0.000000 0.000000
0.000000 0.000000 0.000000
0.000000 0.000000 0.000000
0.000000 0.000000 0.000000
0.000000 0.000000 0.000000
0.000000 0.000000 0.000000
0.000000 0.000000 0.000000
0.000000 0.000000 0.000000
0.000000 0.000000 0.000000
0.000000 0.000000 0.000000
0.000000 0.000000 0.000000
0.000000 0.000000 0.000000
0.000000 0.000000 0.000000
0.000000 0.000000 0.000000
0.000000 0.000000 0.000000
0.000000 0.000000 0.000000
0.000000 0.000000 0.000000
0.000000 0.000000 0.000000
0.000000 0.000000 0.000000
0.000000 0.000000 0.000000
0.000000 0.000000 0.000000
0.000000 0.000000 0.000000
0.000000 0.000000 0.000000
0.000000 0.000000 0.000000
0.000000 0.000000 0.000000
0.000000 0.000000 0.000000
0.000000 0.000000 0.000000
0.000000 0.000000 0.000000
0.000000 0.000000 0.000000
0.000000 0.000000 0.000000
0.000000 0.000000 0.000000
0.000000 0.000000 0.000000
0.000000 0.000000 0.000000
0.000000 0.000000 0.000000
0.000000 0.000000 0.000000
0.000000 0.000000 0.000000
0.000000 0.000000 0.000000
0.000000 0.000000 0.000000
0.000000 0.000000 0.000000
0.000000 0.000000 0.000000
0.000000 0.000000 0.000000
0.000000 0.000000 0.000000
0.000000 0.000000 0.000000
0.000000 0.000000 0.000000
0.000000 0.000000 0.000000
0.000000 0.000000 0.000000
0.000000 0.000000 0.000000
0.000000 0.000000 0.000000
0.000000 0.000000 0.000000
0.000000 0.000000 0.000000
0.000000 0.000000 0.000000
0.000000 0.000000 0.000000
0.000000 0.000000 0.000000
0.000000 0.000000 0.000000
0.000000 0.000000 0.000000
0.000000 0.000000 0.000000
0.000000 0.000000 0.000000
0.000000 0.000000 0.000000
0.000000 0.000000 0.000000
0.000000 0.000000 0.000000
0.000000 0.000000 0.000000
0.000000 0.000000 0.000000
0.000000 0.000000 0.000000
0.000000 0.000000 0.000000
0.000000 0.000000 0.000000
0.000000 0.000000 0.000000
0.000000 0.000000 0.000000
0.000000 0.000000 0.000000
0.000000 0.000000 0.000000
0.000000 0.000000 0.000000
0.000000 0.000000 0.000000
0.000000 0.000000 0.000000
0.000000 0.000000 0.000000
0.000000 0.000000 0.000000
0.000000 0.000000 0.000000
0.000000 0.000000 0.000000
0.000000 0.000000 0.000000
0.000000 0.000000 0.000000
0.000000 0.000000 0.000000
0.000000 0.000000 0.000000
0.000000 0.000000 0.000000
0.000000 0.000000 0.000000
0.000000 0.000000 0.000000
0.000000 0.000000 0.000000
0.000000 0.000000 0.000000
0.000000 0.000000 0.000000
0.000000 0.000000 0.000000
0.000000 0.000000 0.000000
0.000000 0.000000 0.000000
0.000000 0.000000 0.000000
0.000000 0.000000 0.000000
0.000000 0.000000 0.000000
0.000000 0.000000 0.000000
0.000000 0.000000 0.000000
0.000000 0.000000 0.000000
0.000000 0.000000 0.000000
0.000000 0.000000 0.000000
0.000000 0.000000 0.000000
0.000000 0.000000 0.000000
0.000000 0.000000 0.000000
0.000000 0.000000 0.000000
0.000000 0.000000 0.000000
0.000000 0.000000 0.000000
0.000000 0.000000 0.000000
0.000000 0.000000 0.000000
0.000000 0.000000 0.000000
0.000000 0.000000 0.000000
0.000000 0.000000 0.000000
0.000000 0.000000 0.000000
0.000000 0.000000 0.000000
0.000000 0.000000 0.000000
0.000000 0.000000 0.000000
0.000000 0.000000 0.000000
0.000000 0.000000 0.000000
0.000000 0.000000 0.000000
0.000000 0.000000 0.000000
0.000000 0.000000 0.000000
0.000000 0.000000 0.000000
0.000000 0.000000 0.000000
0.000000 0.000000 0.000000
0.000000 0.000000 0.000000
0.000000 0.000000 0.000000
0.000000 0.000000 0.000000
0.000000 0.000000 0.000000
0.000000 0.000000 0.000000
0.000000 0.000000 0.000000
0.000000 0.000000 0.000000
0.000000 0.000000 0.000000
0.000000 0.000000 0.000000
0.000000 0.000000 0.000000
0.000000 0.000000 0.000000
0.000000 0.000000 0.000000
0.000000 0.000000 0.000000
0.000000 0.000000 0.000000
0.000000 0.000000 0.000000
0.000000 0.000000 0.000000
0.000000 0.000000 0.000000
0.000000 0.000000 0.000000
0.000000 0.000000 0.000000
0.000000 0.000000 0.000000
0.000000 0.000000 0.000000
0.000000 0.000000 0.000000
0.000000 0.000000 0.000000
0.000000 0.000000 0.000000
0.000000 0.000000 0.000000
0.000000 0.000000 0.000000
0.000000 0.000000 0.000000
0.000000 0.000000 0.000000
0.000000 0.000000 0.000000
0.000000 0.000000 0.000000
0.000000 0.000000 0.000000
0.000000 0.000000 0.000000
0.000000 0.000000 0.000000
0.000000 0.000000 0.000000
0.000000 0.000000 0.000000
0.000000 0.000000 0.000000
0.000000 0.000000 0.000000
0.000000 0.000000 0.000000
0.000000 0.000000 0.000000
0.000000 0.000000 0.000000
0.000000 0.000000 0.000000
0.000000 0.000000 0.000000
0.000000 0.000000 0.000000
0.000000 0.000000 0.000000
0.000000 0.000000 0.000000
0.000000 0.000000 0.000000
0.000000 0.000000 0.000000
0.000000 0.000000 0.000000
0.000000 0.000000 0.000000
0.000000 0.000000 0.000000
0.000000 0.000000 0.000000
0.000000 0.000000 0.000000
0.000000 0.000000 0.000000
0.000000 0.000000 0.000000
0.000000 0.000000 0.000000
0.000000 0.000000 0.000000
0.000000 0.000000 0.000000
0.000000 0.000000 0.000000
0.000000 0.000000 0.000000
0.000000 0.000000 0.000000
0.000000 0.000000 0.000000
0.000000 0.000000 0.000000
0.000000 0.000000 0.000000
0.000000 0.000000 0.000000
0.000000 0.000000 0.000000
0.000000 0.000000 0.000000
0.000000 0.000000 0.000000
0.000000 0.000000 0.000000
0.000000 0.000000 0.000000
0.000000 0.000000 0.000000
0.000000 0.000000 0.000000
0.000000 0.000000 0.000000
0.000000 0.000000 0.000000
0.000000 0.000000 0.000000
0.000000 0.000000 0.000000
0.000000 0.000000 0.000000
0.000000 0.000000 0.000000
0.000000 0.000000 0.000000
0.000000 0.000000 0.000000
0.000000 0.000000 0.000000
0.000000 0.000000 0.000000
0.000000 0.000000 0.000000
0.000000 0.000000 0.000000
0.000000 0.000000 0.000000
0.000000 0.000000 0.000000
0.000000 0.000000 0.000000
0.000000 0.000000 0.000000
0.000000 0.000000 0.000000
0.000000 0.000000 0.000000
0.000000 0.000000 0.000000
0.000000 0.000000 0.000000
0.000000 0.000000 0.000000
0.000000 0.000000 0.000000
0.000000 0.000000 0.000000
0.000000 0.000000 0.000000
0.000000 0.000000 0.000000
0.000000 0.000000 0.000000
0.000000 0.000000 0.000000
0.000000 0.000000 0.000000
0.000000 0.000000 0.000000
0.000000 0.000000 0.000000
0.000000 0.000000 0.000000
0.000000 0.000000 0.000000
0.000000 0.000000 0.000000
0.000000 0.000000 0.000000
0.000000 0.000000 0.000000
0.000000 0.000000 0.000000
0.000000 0.000000 0.000000
0.000000 0.000000 0.000000
0.000000 0.000000 0.000000
0.000000 0.000000 0.000000
0.000000 0.000000 0.000000
0.000000 0.000000 0.000000
0.000000 0.000000 0.000000
0.000000 0.000000 0.000000
0.000000 0.000000 0.000000
0.000000 0.000000 0.000000
0.000000 0.000000 0.000000
0.000000 0.000000 0.000000
0.000000 0.000000 0.000000
0.000000 0.000000 0.000000
0.000000 0.000000 0.000000
0.000000 0.000000 0.000000
0.000000 0.000000 0.000000
0.000000 0.000000 0.000000
0.000000 0.000000 0.000000
0.000000 0.000000 0.000000
0.000000 0.000000 0.000000
0.000000 0.000000 0.000000
0.000000 0.000000 0.000000
0.000000 0.000000 0.000000
0.000000 0.000000 0.000000
0.000000 0.000000 0.000000
0.000000 0.000000 0.000000
0.000000 0.000000 0.000000
0.000000 0.000000 0.000000
0.000000 0.000000 0.000000
0.000000 0.000000 0.000000
0.000000 0.000000 0.000000
0.000000 0.000000 0.000000
0.000000 0.000000 0.000000
0.000000 0.000000 0.000000
0.000000 0.000000 0.000000
0.000000 0.000000 0.000000
0.000000 0.000000 0.000000
0.000000 0.000000 0.000000
0.000000 0.000000 0.000000
0.000000 0.000000 0.000000
0.000000 0.000000 0.000000
0.000000 0.000000 0.000000
0.000000 0.000000 0.000000
0.000000 0.000000 0.000000
0.000000 0.000000 0.000000
0.000000 0.000000 0.000000
0.000000 0.000000 0.000000
0.000000 0.000000 0.000000
0.000000 0.000000 0.000000
0.000000 0.000000 0.000000
0.000000 0.000000 0.000000
0.000000 0.000000 0.000000
0.000000 0.000000 0.000000
0.000000 0.000000 0.000000
0.000000 0.000000 -50.000000
-50.000000 0.000000 -50.000000
-43.332183 0.000000 -45.688671
-45.491379 0.000000 -43.332026
-50.000000 0.000000 -50.000000
-36.664296 0.000000 -36.664382
-50.000000 0.000000 -45.081425
-39.969946 0.000000 -40.027636
-44.152514 0.000000 -29.996655
-50.000000 0.000000 -50.000000
-29.996522 0.000000 -44.847387
-33.449049 0.000000 -33.145274
-44.675944 0.000000 -39.869508
-36.787162 0.000000 -35.129117
-39.801618 0.000000 -23.329387
-50.000000 0.000000 -26.539546
-44.666861 0.000000 -50.000000
-23.329270 0.000000 -44.665397
-26.804112 0.000000 -39.364518
-30.225866 0.000000 -29.606796
-39.359607 0.000000 -33.368762
-33.655732 0.000000 -50.000000
-16.662770 0.000000 -16.662968
-50.000000 0.000000 -9.997405
