# vtk DataFile Version 2.0
CellBP Time: 11.68
ASCII
DATASET UNSTRUCTURED_GRID
POINTS 320 double
-50.000000 -50.000000 0.000000
-50.000000 -43.332118 0.000000
-45.688694 -45.491398 0.000000
-43.331952 -50.000000 0.000000
-50.000000 -36.664164 0.000000
-36.664253 -50.000000 0.000000
-45.081449 -39.969960 0.000000
-40.027671 -44.152534 0.000000
-29.996467 -50.000000 0.000000
-50.000000 -29.996331 0.000000
-44.847409 -33.449062 0.000000
-33.145301 -44.675965 0.000000
-39.869537 -36.787177 0.000000
-35.129152 -39.801645 0.000000
-23.329169 -50.000000 0.000000
-26.539576 -44.666871 0.000000
-50.000000 -23.329049 0.000000
-44.665406 -26.804132 0.000000
-39.364538 -30.225883 0.000000
-29.606836 -39.359627 0.000000
-33.368801 -33.655756 0.000000
-50.000000 -16.662564 0.000000
-16.662767 -50.000000 0.000000
-9.997268 -50.000000 0.000000
-19.965387 -44.588695 0.000000
-23.216314 -39.114771 0.000000
-44.691799 -20.097120 0.000000
-39.367964 -23.528210 0.000000
-34.106470 -26.937156 0.000000
-26.384960 -33.577638 0.000000
-29.156747 -28.926944 0.000000
-50.000000 -9.996768 0.000000
-44.666283 -13.410365 0.000000
-50.000000 -3.331837 0.000000
-3.332502 -50.000000 0.000000
3.332097 -50.000000 0.000000
-13.344183 -44.598841 0.000000
-6.685053 -44.610425 0.000000
-16.694101 -39.153048 0.000000
-20.107268 -33.342592 0.000000
-39.338088 -16.804568 0.000000
-34.019113 -20.274451 0.000000
-28.781548 -23.449294 0.000000
-23.510935 -27.351203 0.000000
-44.635238 -6.705490 0.000000
-39.293122 -10.101659 0.000000
-50.000000 3.332656 0.000000
-44.626447 -0.015305 0.000000
9.997075 -50.000000 0.000000
16.662778 -50.000000 0.000000
-0.016220 -44.618534 0.000000
6.651817 -44.635311 0.000000
-10.045064 -39.222485 0.000000
-3.368354 -39.220146 0.000000
-13.484408 -33.798329 0.000000
-16.708723 -28.271597 0.000000
-33.947881 -13.513276 0.000000
-28.602981 -16.891879 0.000000
-23.293072 -20.313406 0.000000
-18.661238 -23.285046 0.000000
-39.267273 -3.392509 0.000000
-33.904454 -6.796696 0.000000
-50.000000 9.997327 0.000000
-44.606437 6.673930 0.000000
-39.260542 3.325887 0.000000
-50.000000 16.662804 0.000000
23.329213 -50.000000 0.000000
29.996388 -50.000000 0.000000
13.317888 -44.662916 0.000000
19.990056 -44.700090 0.000000
3.307599 -39.245093 0.000000
9.971905 -39.290410 0.000000
-6.735852 -33.791332 0.000000
-0.032152 -33.829388 0.000000
-10.096112 -28.292014 0.000000
-13.122686 -22.895293 0.000000
-28.531090 -10.213836 0.000000
-23.068160 -13.663883 0.000000
-16.979694 -17.213471 0.000000
-33.884010 -0.065497 0.000000
-28.562586 -3.580548 0.000000
-44.563902 13.381155 0.000000
-39.189790 10.015321 0.000000
-33.905356 6.616111 0.000000
-50.000000 23.328975 0.000000
-44.557237 20.138737 0.000000
-50.000000 29.996497 0.000000
36.664108 -50.000000 0.000000
43.332006 -50.000000 0.000000
26.663648 -44.745425 0.000000
33.315592 -44.876212 0.000000
16.631779 -39.357682 0.000000
23.328493 -39.437225 0.000000
6.642993 -33.879641 0.000000
13.290412 -33.965443 0.000000
-3.346683 -28.363986 0.000000
3.358654 -28.451202 0.000000
-6.626530 -22.844486 0.000000
-9.960146 -17.315208 0.000000
-23.179050 -7.013984 0.000000
-17.814680 -10.334933 0.000000
-12.837771 -12.613219 0.000000
-28.607260 3.088746 0.000000
-23.267162 -0.470400 0.000000
-39.038286 16.746358 0.000000
-28.719769 9.925638 0.000000
-33.760549 13.317879 0.000000
-44.521730 26.717503 0.000000
-38.467810 23.892872 0.000000
-44.632901 33.086168 0.000000
-50.000000 36.664721 0.000000
-50.000000 43.332313 0.000000
39.922631 -45.069836 0.000000
45.475013 -45.660728 0.000000
50.000000 -50.000000 0.000000
36.627005 -39.982166 0.000000
30.012665 -39.458795 0.000000
19.904227 -34.093078 0.000000
26.585201 -34.319722 0.000000
9.988326 -28.512508 0.000000
16.610430 -28.660686 0.000000
0.049881 -22.964362 0.000000
6.811982 -23.154372 0.000000
-3.397392 -17.296959 0.000000
-6.790013 -10.861855 0.000000
-17.872562 -3.810081 0.000000
-12.547414 -7.033091 0.000000
-23.307611 6.068567 0.000000
-18.033083 2.434627 0.000000
-23.124175 12.096482 0.000000
-33.572189 19.788977 0.000000
-27.941907 16.886656 0.000000
-33.293457 24.723201 0.000000
-39.474273 30.053576 0.000000
-35.161156 28.138013 0.000000
-39.816711 35.101980 0.000000
-43.992064 39.982892 0.000000
-45.431223 45.685595 0.000000
-50.000000 50.000000 0.000000
44.117530 -39.899398 0.000000
50.000000 -43.331564 0.000000
39.639729 -35.047690 0.000000
33.463103 -33.424779 0.000000
22.985078 -28.818332 0.000000
28.731160 -29.248040 0.000000
13.460857 -23.121962 0.000000
20.055022 -23.440124 0.000000
3.360643 -17.591734 0.000000
10.121886 -17.844245 0.000000
0.171483 -11.758099 0.000000
-2.120199 -6.144442 0.000000
-7.124826 -3.544273 0.000000
-12.414945 -0.808808 0.000000
-18.176010 8.573163 0.000000
-12.930276 5.196618 0.000000
-18.637696 13.750748 0.000000
-21.503510 17.493835 0.000000
-28.941265 23.159608 0.000000
-24.346552 21.554145 0.000000
-30.324234 28.635388 0.000000
-34.254056 33.375789 0.000000
-36.956245 39.578244 0.000000
-39.838813 45.103053 0.000000
-43.331947 50.000000 0.000000
44.585496 -32.972365 0.000000
50.000000 -36.663659 0.000000
39.129448 -29.582156 0.000000
33.500816 -26.367845 0.000000
27.183454 -23.322134 0.000000
23.067776 -18.648051 0.000000
16.993278 -16.983017 0.000000
6.696028 -12.188140 0.000000
12.377143 -12.738243 0.000000
-3.361345 -1.482627 0.000000
3.772929 -6.741549 0.000000
1.023904 -2.120684 0.000000
-6.835855 2.258699 0.000000
-8.218271 7.634489 0.000000
-12.840753 11.927183 0.000000
-15.690062 17.698628 0.000000
-19.287589 22.981010 0.000000
-24.171044 27.354283 0.000000
-27.286481 33.625736 0.000000
-30.406877 39.160980 0.000000
-33.448054 44.738903 0.000000
-36.663969 50.000000 0.000000
44.547778 -26.500257 0.000000
50.000000 -29.995826 0.000000
39.040024 -23.179399 0.000000
33.449496 -19.900000 0.000000
28.039592 -16.573069 0.000000
22.678904 -13.123493 0.000000
17.175903 -9.897860 0.000000
10.757605 -6.568092 0.000000
-1.360860 2.322891 0.000000
6.121176 -1.706489 0.000000
2.884274 1.590762 0.000000
-3.437905 6.957382 0.000000
-6.314349 12.424821 0.000000
-9.629293 17.714014 0.000000
-13.168356 23.115227 0.000000
-17.317066 28.185064 0.000000
-20.571197 33.474140 0.000000
-23.666251 39.063880 0.000000
-26.831415 44.585337 0.000000
-29.996468 50.000000 0.000000
44.528619 -19.931058 0.000000
50.000000 -23.328590 0.000000
39.036090 -16.594266 0.000000
33.575680 -13.281251 0.000000
28.148772 -9.965139 0.000000
22.724432 -6.604770 0.000000
17.265294 -3.334237 0.000000
11.766833 0.220006 0.000000
1.904054 6.185316 0.000000
6.769392 3.690875 0.000000
-0.229271 11.736142 0.000000
-3.243745 17.532080 0.000000
-6.698420 22.976047 0.000000
-10.566874 28.267155 0.000000
-13.724416 33.660806 0.000000
-16.946062 39.080059 0.000000
-20.141187 44.548305 0.000000
-23.329440 50.000000 0.000000
44.536086 -13.304191 0.000000
50.000000 -16.662232 0.000000
39.079710 -9.966947 0.000000
33.646497 -6.641529 0.000000
28.236904 -3.308221 0.000000
22.850796 0.017274 0.000000
17.538830 3.337374 0.000000
12.175247 6.578883 0.000000
6.644341 10.669838 0.000000
3.302988 17.200989 0.000000
-0.080283 22.855563 0.000000
-3.519247 28.313320 0.000000
-6.831868 33.774761 0.000000
-10.137942 39.170496 0.000000
-13.436397 44.563409 0.000000
-16.663157 50.000000 0.000000
44.554043 -6.655058 0.000000
50.000000 -9.996848 0.000000
39.123105 -3.321477 0.000000
33.713265 0.008867 0.000000
28.333336 3.345499 0.000000
22.998610 6.693982 0.000000
17.834935 10.017651 0.000000
12.658989 12.247393 0.000000
9.782817 17.232148 0.000000
6.480282 22.722405 0.000000
3.189687 28.270553 0.000000
-0.116062 33.735007 0.000000
-3.425391 39.168748 0.000000
-6.725907 44.581685 0.000000
-9.997553 50.000000 0.000000
44.575423 0.001785 0.000000
50.000000 -3.332233 0.000000
39.166881 3.331824 0.000000
33.779580 6.655710 0.000000
28.423717 9.994659 0.000000
23.046515 13.416062 0.000000
16.951616 17.024833 0.000000
12.901578 22.666219 0.000000
9.815722 28.231544 0.000000
6.604524 33.718833 0.000000
3.286573 39.164439 0.000000
-0.029980 44.584464 0.000000
-3.332498 50.000000 0.000000
44.586622 6.665731 0.000000
50.000000 3.332277 0.000000
39.198241 9.982102 0.000000
33.843522 13.276873 0.000000
28.542511 16.584181 0.000000
23.387955 20.084218 0.000000
18.532071 23.113750 0.000000
16.392402 28.298385 0.000000
13.329129 33.754713 0.000000
9.986814 39.181938 0.000000
6.666228 44.584188 0.000000
3.332369 50.000000 0.000000
44.608870 13.318428 0.000000
50.000000 9.997251 0.000000
39.251394 16.612678 0.000000
33.932098 19.862924 0.000000
28.612656 22.925990 0.000000
23.279707 27.207856 0.000000
19.901480 33.302762 0.000000
16.574225 39.040784 0.000000
13.268852 44.526585 0.000000
9.997326 50.000000 0.000000
44.632059 19.973541 0.000000
50.000000 16.662955 0.000000
39.298580 23.262455 0.000000
34.044009 26.514946 0.000000
28.966052 28.539514 0.000000
26.202667 33.410195 0.000000
23.067056 38.968778 0.000000
19.889120 44.507000 0.000000
16.662780 50.000000 0.000000
44.639921 26.643427 0.000000
50.000000 23.329360 0.000000
39.293559 29.967066 0.000000
33.212683 33.371520 0.000000
29.412530 39.045972 0.000000
26.422865 44.506018 0.000000
23.329086 50.000000 0.000000
44.775233 33.292175 0.000000
50.000000 29.996475 0.000000
39.738409 36.596576 0.000000
34.831394 39.525946 0.000000
32.834221 44.514548 0.000000
29.996181 50.000000 0.000000
44.978508 39.878169 0.000000
50.000000 36.664136 0.000000
39.735336 43.969340 0.000000
36.663876 50.000000 0.000000
45.621608 45.410143 0.000000
50.000000 43.332001 0.000000
43.331666 50.000000 0.000000
50.000000 50.000000 0.000000
CELLS 578 2312
3 1 0 2
3 0 3 2
3 4 1 6
3 6 1 2
3 3 5 7
3 3 7 2
3 6 2 7
3 9 4 10
3 10 4 6
3 5 8 11
3 7 5 11
3 10 6 12
3 12 6 7
3 7 11 13
3 7 13 12
3 8 14 15
3 11 8 15
3 16 9 17
3 17 9 10
3 17 10 18
3 18 10 12
3 11 15 19
3 13 11 19
3 18 12 20
3 13 19 20
3 20 12 13
3 14 22 24
3 15 14 24
3 15 24 25
3 19 15 25
3 21 16 26
3 26 16 17
3 26 17 27
3 27 17 18
3 27 18 28
3 28 18 20
3 19 25 29
3 19 29 20
3 28 20 30
3 30 20 29
3 31 21 32
3 32 21 26
3 22 23 36
3 24 22 36
3 23 34 37
3 36 23 37
3 24 36 38
3 25 24 38
3 25 38 39
3 29 25 39
3 32 26 40
3 40 26 27
3 40 27 41
3 41 27 28
3 41 28 42
3 42 28 30
3 29 39 43
3 29 43 30
3 42 30 43
3 33 31 44
3 44 31 32
3 44 32 45
3 45 32 40
3 46 33 47
3 47 33 44
3 34 35 50
3 37 34 50
3 35 48 51
3 50 35 51
3 36 37 52
3 38 36 52
3 37 50 53
3 52 37 53
3 38 52 54
3 39 38 54
3 39 54 55
3 43 39 55
3 45 40 56
3 56 40 41
3 56 41 57
3 57 41 42
3 57 42 58
3 58 42 43
3 43 55 59
3 43 59 58
3 47 44 60
3 60 44 45
3 60 45 61
3 61 45 56
3 62 46 63
3 63 46 47
3 63 47 64
3 64 47 60
3 48 49 68
3 51 48 68
3 49 66 69
3 68 49 69
3 50 51 70
3 53 50 70
3 51 68 71
3 70 51 71
3 52 53 72
3 54 52 72
3 53 70 73
3 72 53 73
3 54 72 74
3 55 54 74
3 55 74 75
3 59 55 75
3 61 56 76
3 76 56 57
3 76 57 77
3 77 57 58
3 77 58 78
3 59 75 78
3 78 58 59
3 64 60 79
3 79 60 61
3 79 61 80
3 80 61 76
3 65 62 81
3 81 62 63
3 81 63 82
3 82 63 64
3 82 64 83
3 83 64 79
3 84 65 85
3 85 65 81
3 66 67 89
3 69 66 89
3 67 87 90
3 89 67 90
3 68 69 91
3 71 68 91
3 69 89 92
3 91 69 92
3 70 71 93
3 73 70 93
3 71 91 94
3 93 71 94
3 72 73 95
3 74 72 95
3 73 93 96
3 95 73 96
3 74 95 97
3 75 74 97
3 75 97 98
3 78 75 98
3 80 76 99
3 99 76 77
3 99 77 100
3 100 77 78
3 100 78 101
3 98 101 78
3 83 79 102
3 102 79 80
3 102 80 103
3 103 80 99
3 85 81 104
3 104 81 82
3 105 83 102
3 104 82 106
3 106 82 83
3 106 83 105
3 86 84 107
3 107 84 85
3 107 85 108
3 108 85 104
3 109 86 107
3 110 86 109
3 87 88 112
3 90 87 112
3 112 88 113
3 88 114 113
3 90 112 115
3 89 90 116
3 92 89 116
3 116 90 115
3 91 92 117
3 94 91 117
3 92 116 118
3 117 92 118
3 93 94 119
3 96 93 119
3 94 117 120
3 119 94 120
3 95 96 121
3 97 95 121
3 96 119 122
3 121 96 122
3 97 121 123
3 98 97 123
3 98 123 124
3 98 124 101
3 103 99 125
3 125 99 100
3 125 100 126
3 126 100 101
3 126 101 124
3 105 102 127
3 127 102 103
3 127 103 128
3 128 103 125
3 129 105 127
3 108 104 130
3 130 104 106
3 130 106 131
3 131 106 105
3 131 105 129
3 108 130 132
3 109 107 133
3 133 107 108
3 133 108 134
3 108 132 134
3 135 109 133
3 111 110 136
3 136 110 109
3 136 109 135
3 137 111 136
3 138 111 137
3 112 113 139
3 115 112 139
3 114 140 113
3 140 139 113
3 139 141 115
3 116 115 142
3 118 116 142
3 142 115 141
3 117 118 143
3 120 117 143
3 118 142 144
3 143 118 144
3 119 120 145
3 122 119 145
3 120 143 146
3 145 120 146
3 121 122 147
3 123 121 147
3 122 145 148
3 147 122 148
3 123 147 149
3 124 123 149
3 124 149 150
3 151 126 124
3 124 150 151
3 128 125 152
3 152 125 126
3 152 126 151
3 129 127 153
3 153 127 128
3 128 152 154
3 153 128 154
3 155 129 153
3 131 129 156
3 156 129 155
3 132 130 157
3 130 131 157
3 157 131 158
3 131 156 158
3 132 157 159
3 132 159 134
3 135 133 160
3 160 133 134
3 160 134 159
3 136 135 161
3 135 160 161
3 162 137 136
3 161 162 136
3 163 138 137
3 162 163 137
3 139 164 141
3 140 165 139
3 139 165 164
3 141 164 166
3 141 166 142
3 166 167 142
3 144 142 167
3 167 168 144
3 143 144 168
3 146 143 168
3 168 169 146
3 145 146 170
3 148 145 170
3 170 146 169
3 147 148 171
3 149 147 171
3 148 170 172
3 171 148 172
3 173 151 150
3 149 171 174
3 150 149 174
3 150 174 175
3 150 175 173
3 154 152 176
3 152 151 176
3 176 151 173
3 154 176 177
3 155 153 178
3 177 178 154
3 154 178 153
3 156 155 179
3 155 178 179
3 180 158 156
3 179 180 156
3 181 159 157
3 180 181 158
3 181 157 158
3 182 160 159
3 181 182 159
3 183 161 160
3 182 183 160
3 184 162 161
3 184 161 183
3 185 163 162
3 184 185 162
3 164 186 166
3 165 187 164
3 164 187 186
3 166 186 188
3 166 188 167
3 167 188 189
3 167 189 168
3 168 189 190
3 168 190 169
3 169 190 191
3 169 191 170
3 192 172 170
3 170 191 192
3 192 193 172
3 171 172 193
3 174 171 193
3 194 173 175
3 176 173 194
3 175 174 195
3 193 195 174
3 195 196 175
3 175 196 194
3 197 177 176
3 194 197 176
3 198 178 177
3 197 198 177
3 199 179 178
3 198 199 178
3 200 180 179
3 199 200 179
3 201 181 180
3 200 201 180
3 202 182 181
3 201 202 181
3 203 183 182
3 202 203 182
3 204 184 183
3 203 204 183
3 205 185 184
3 204 205 184
3 186 206 188
3 187 207 186
3 186 207 206
3 188 206 208
3 188 208 189
3 189 208 209
3 189 209 190
3 190 209 210
3 190 210 191
3 191 210 211
3 191 211 192
3 192 211 212
3 192 212 193
3 193 212 213
3 193 213 195
3 214 197 194
3 214 194 196
3 195 213 215
3 195 215 196
3 196 215 214
3 216 198 197
3 214 216 197
3 217 199 198
3 216 217 198
3 218 200 199
3 217 218 199
3 219 201 200
3 218 219 200
3 220 202 201
3 219 220 201
3 221 203 202
3 220 221 202
3 222 204 203
3 221 222 203
3 223 205 204
3 222 223 204
3 206 224 208
3 207 225 206
3 206 225 224
3 208 224 226
3 208 226 209
3 209 226 227
3 209 227 210
3 210 227 228
3 210 228 211
3 211 228 229
3 211 229 212
3 212 229 230
3 212 230 213
3 213 230 231
3 213 231 215
3 232 216 214
3 215 231 232
3 232 214 215
3 233 217 216
3 232 233 216
3 234 218 217
3 233 234 217
3 235 219 218
3 234 235 218
3 236 220 219
3 235 236 219
3 237 221 220
3 236 237 220
3 238 222 221
3 237 238 221
3 239 223 222
3 238 239 222
3 224 240 226
3 225 241 224
3 224 241 240
3 226 240 242
3 226 242 227
3 227 242 243
3 227 243 228
3 228 243 244
3 228 244 229
3 244 245 229
3 229 245 230
3 230 245 246
3 230 246 231
3 231 246 247
3 231 247 232
3 248 233 232
3 248 232 247
3 249 234 233
3 248 249 233
3 250 235 234
3 249 250 234
3 251 236 235
3 250 251 235
3 252 237 236
3 251 252 236
3 253 238 237
3 252 253 237
3 254 239 238
3 253 254 238
3 240 255 242
3 241 256 240
3 240 256 255
3 242 255 257
3 242 257 243
3 243 257 258
3 243 258 244
3 244 258 259
3 244 259 245
3 245 259 260
3 245 260 246
3 246 260 261
3 246 261 247
3 248 247 261
3 262 249 248
3 261 262 248
3 263 250 249
3 262 263 249
3 264 251 250
3 263 264 250
3 265 252 251
3 264 265 251
3 266 253 252
3 265 266 252
3 267 254 253
3 266 267 253
3 255 268 257
3 256 269 255
3 255 269 268
3 257 268 270
3 257 270 258
3 258 270 271
3 258 271 259
3 259 271 272
3 259 272 260
3 260 272 273
3 260 273 261
3 274 262 261
3 261 273 274
3 275 263 262
3 274 275 262
3 276 264 263
3 275 276 263
3 277 265 264
3 276 277 264
3 278 266 265
3 277 278 265
3 279 267 266
3 278 279 266
3 268 280 270
3 269 281 268
3 268 281 280
3 270 280 282
3 270 282 271
3 271 282 283
3 271 283 272
3 283 284 272
3 272 284 273
3 285 275 274
3 273 284 285
3 285 274 273
3 286 276 275
3 285 286 275
3 287 277 276
3 286 287 276
3 288 278 277
3 287 288 277
3 289 279 278
3 288 289 278
3 280 290 282
3 281 291 280
3 280 291 290
3 282 290 292
3 282 292 283
3 283 292 293
3 283 293 284
3 284 293 294
3 284 294 285
3 295 286 285
3 295 285 294
3 296 287 286
3 295 296 286
3 297 288 287
3 296 297 287
3 298 289 288
3 297 298 288
3 290 299 292
3 291 300 290
3 290 300 299
3 292 299 301
3 292 301 293
3 293 301 302
3 293 302 294
3 294 302 295
3 303 296 295
3 303 295 302
3 304 297 296
3 303 304 296
3 305 298 297
3 304 305 297
3 299 306 301
3 300 307 299
3 299 307 306
3 301 306 308
3 301 308 302
3 309 303 302
3 302 308 309
3 310 304 303
3 309 310 303
3 311 305 304
3 310 311 304
3 306 312 308
3 307 313 306
3 306 313 312
3 314 310 309
3 308 312 314
3 314 309 308
3 315 311 310
3 314 315 310
3 312 316 314
3 313 317 312
3 312 317 316
3 318 315 314
3 318 314 316
3 317 319 316
3 319 318 316
CELL_TYPES 578
5
5
5
5
5
5
5
5
5
5
5
5
5
5
5
5
5
5
5
5
5
5
5
5
5
5
5
5
5
5
5
5
5
5
5
5
5
5
5
5
5
5
5
5
5
5
5
5
5
5
5
5
5
5
5
5
5
5
5
5
5
5
5
5
5
5
5
5
5
5
5
5
5
5
5
5
5
5
5
5
5
5
5
5
5
5
5
5
5
5
5
5
5
5
5
5
5
5
5
5
5
5
5
5
5
5
5
5
5
5
5
5
5
5
5
5
5
5
5
5
5
5
5
5
5
5
5
5
5
5
5
5
5
5
5
5
5
5
5
5
5
5
5
5
5
5
5
5
5
5
5
5
5
5
5
5
5
5
5
5
5
5
5
5
5
5
5
5
5
5
5
5
5
5
5
5
5
5
5
5
5
5
5
5
5
5
5
5
5
5
5
5
5
5
5
5
5
5
5
5
5
5
5
5
5
5
5
5
5
5
5
5
5
5
5
5
5
5
5
5
5
5
5
5
5
5
5
5
5
5
5
5
5
5
5
5
5
5
5
5
5
5
5
5
5
5
5
5
5
5
5
5
5
5
5
5
5
5
5
5
5
5
5
5
5
5
5
5
5
5
5
5
5
5
5
5
5
5
5
5
5
5
5
5
5
5
5
5
5
5
5
5
5
5
5
5
5
5
5
5
5
5
5
5
5
5
5
5
5
5
5
5
5
5
5
5
5
5
5
5
5
5
5
5
5
5
5
5
5
5
5
5
5
5
5
5
5
5
5
5
5
5
5
5
5
5
5
5
5
5
5
5
5
5
5
5
5
5
5
5
5
5
5
5
5
5
5
5
5
5
5
5
5
5
5
5
5
5
5
5
5
5
5
5
5
5
5
5
5
5
5
5
5
5
5
5
5
5
5
5
5
5
5
5
5
5
5
5
5
5
5
5
5
5
5
5
5
5
5
5
5
5
5
5
5
5
5
5
5
5
5
5
5
5
5
5
5
5
5
5
5
5
5
5
5
5
5
5
5
5
5
5
5
5
5
5
5
5
5
5
5
5
5
5
5
5
5
5
5
5
5
5
5
5
5
5
5
5
5
5
5
5
5
5
5
5
5
5
5
5
5
5
5
5
5
5
5
5
5
5
5
5
5
5
5
5
5
5
5
5
5
5
5
5
5
5
5
5
5
5
5
5
5
5
5
5
5
5
5
5
5
5
5
5
5
5
5
5
5
5
5
5
5
5
5
5
5
5
5
5
5
5
5
5
5
5
5
5
5
5
5
5
5
5
5
5
5
5
5
5
5
5
5
5
5
5
5
5
POINT_DATA 320
SCALARS theta_e float 1
LOOKUP_TABLE default
1.000000
1.000000
1.000000
1.000000
1.000000
1.000000
1.000000
1.000000
1.000000
1.000000
1.000000
1.000000
1.000000
1.000000
1.000000
1.000000
1.000000
1.000000
1.000000
1.000000
1.000000
1.000000
1.000000
1.000000
1.000000
1.000000
1.000000
1.000000
1.000000
1.000000
1.000000
1.000000
1.000000
1.000000
1.000000
1.000000
1.000000
1.000000
1.000000
1.000000
1.000000
1.000000
1.000000
1.000000
1.000000
1.000000
1.000000
1.000000
1.000000
1.000000
1.000000
1.000000
1.000000
1.000000
1.000000
1.000000
1.000000
1.000000
1.000000
1.000000
1.000000
1.000000
1.000000
1.000000
1.000000
1.000000
1.000000
1.000000
1.000000
1.000000
1.000000
1.000000
1.000000
1.000000
1.000000
1.000000
1.000000
1.000000
1.000000
1.000000
1.000000
1.000000
1.000000
1.000000
1.000000
1.000000
1.000000
1.000000
1.000000
1.000000
1.000000
1.000000
1.000000
1.000000
1.000000
1.000000
1.000000
1.000000
1.000000
1.000000
1.000000
1.000000
1.000000
1.000000
1.000000
1.000000
1.000000
1.000000
1.000000
1.000000
1.000000
1.000000
1.000000
1.000000
1.000000
1.000000
1.000000
1.000000
1.000000
1.000000
1.000000
1.000000
1.000000
1.000000
1.000000
1.000000
1.000000
1.000000
1.000000
1.000000
1.000000
1.000000
1.000000
1.000000
1.000000
1.000000
1.000000
1.000000
1.000000
1.000000
1.000000
1.000000
1.000000
1.000000
1.000000
1.000000
1.000000
1.000000
1.000000
1.000000
0.999999
0.999999
1.000000
1.000000
1.000000
1.000000
1.000000
1.000000
1.000000
1.000000
1.000000
1.000000
1.000000
1.000000
1.000000
1.000000
1.000000
1.000000
1.000000
1.000000
1.000000
0.999999
1.000000
0.999998
0.999998
0.999997
0.999998
0.999999
1.000000
1.000000
1.000000
1.000000
1.000000
1.000000
1.000000
1.000000
1.000000
1.000000
1.000000
1.000000
1.000000
1.000000
1.000000
0.999999
0.999997
0.999999
0.999998
0.999998
1.000000
1.000000
1.000000
1.000000
1.000000
1.000000
1.000000
1.000000
1.000000
1.000000
1.000000
1.000000
1.000000
1.000000
1.000000
1.000000
0.999998
0.999999
0.999999
1.000000
1.000000
1.000000
1.000000
1.000000
1.000000
1.000000
1.000000
1.000000
1.000000
1.000000
1.000000
1.000000
1.000000
1.000000
0.999999
1.000000
1.000000
1.000000
1.000000
1.000000
1.000000
1.000000
1.000000
1.000000
1.000000
1.000000
1.000000
1.000000
1.000000
1.000000
1.000000
1.000000
1.000000
1.000000
1.000000
1.000000
1.000000
1.000000
1.000000
1.000000
1.000000
1.000000
1.000000
1.000000
1.000000
1.000000
1.000000
1.000000
1.000000
1.000000
1.000000
1.000000
1.000000
1.000000
1.000000
1.000000
1.000000
1.000000
1.000000
1.000000
1.000000
1.000000
1.000000
1.000000
1.000000
1.000000
1.000000
1.000000
1.000000
1.000000
1.000000
1.000000
1.000000
1.000000
1.000000
1.000000
1.000000
1.000000
1.000000
1.000000
1.000000
1.000000
1.000000
1.000000
1.000000
1.000000
1.000000
1.000000
1.000000
1.000000
1.000000
1.000000
1.000000
1.000000
1.000000
1.000000
1.000000
1.000000
1.000000
1.000000
1.000000
1.000000
VECTORS fa_u float
0.000000 0.000000 0.000000
0.000000 0.000000 0.000000
0.000000 0.000000 0.000000
0.000000 0.000000 0.000000
0.000000 0.000000 0.000000
0.000000 0.000000 0.000000
0.000000 0.000000 0.000000
0.000000 0.000000 0.000000
0.000000 0.000000 0.000000
0.000000 0.000000 0.000000
0.000000 0.000000 0.000000
0.000000 0.000000 0.000000
0.000000 0.000000 0.000000
0.000000 0.000000 0.000000
0.000000 0.000000 0.000000
0.000000 0.000000 0.000000
0.000000 0.000000 0.000000
0.000000 0.000000 0.000000
0.000000 0.000000 0.000000
0.000000 0.000000 0.000000
0.000000 0.000000 0.000000
0.000000 0.000000 0.000000
0.000000 0.000000 0.000000
0.000000 0.000000 0.000000
0.000000 0.000000 0.000000
0.000000 0.000000 0.000000
0.000000 0.000000 0.000000
0.000000 0.000000 0.000000
0.000000 0.000000 0.000000
0.000000 0.000000 0.000000
0.000000 0.000000 0.000000
0.000000 0.000000 0.000000
0.000000 0.000000 0.000000
0.000000 0.000000 0.000000
0.000000 0.000000 0.000000
0.000000 0.000000 0.000000
0.000000 0.000000 0.000000
0.000000 0.000000 0.000000
0.000000 0.000000 0.000000
0.000000 0.000000 0.000000
0.000000 0.000000 0.000000
0.000000 0.000000 0.000000
0.000000 0.000000 0.000000
0.000000 0.000000 0.000000
0.000000 0.000000 0.000000
0.000000 0.000000 0.000000
0.000000 0.000000 0.000000
0.000000 0.000000 0.000000
0.000000 0.000000 0.000000
0.000000 0.000000 0.000000
0.000000 0.000000 0.000000
0.000000 0.000000 0.000000
0.000000 0.000000 0.000000
0.000000 0.000000 0.000000
0.000000 0.000000 0.000000
0.000000 0.000000 0.000000
0.000000 0.000000 0.000000
0.000000 0.000000 0.000000
0.000000 0.000000 0.000000
0.000000 0.000000 0.000000
0.000000 0.000000 0.000000
0.000000 0.000000 0.000000
0.000000 0.000000 0.000000
0.000000 0.000000 0.000000
0.000000 0.000000 0.000000
0.000000 0.000000 0.000000
0.000000 0.000000 0.000000
0.000000 0.000000 0.000000
0.000000 0.000000 0.000000
0.000000 0.000000 0.000000
0.000000 0.000000 0.000000
0.000000 0.000000 0.000000
0.000000 0.000000 0.000000
0.000000 0.000000 0.000000
0.000000 0.000000 0.000000
0.000000 0.000000 0.000000
0.000000 0.000000 0.000000
0.000000 0.000000 0.000000
0.000000 0.000000 0.000000
0.000000 0.000000 0.000000
0.000000 0.000000 0.000000
0.000000 0.000000 0.000000
0.000000 0.000000 0.000000
0.000000 0.000000 0.000000
0.000000 0.000000 0.000000
0.000000 0.000000 0.000000
0.000000 0.000000 0.000000
0.000000 0.000000 0.000000
0.000000 0.000000 0.000000
0.000000 0.000000 0.000000
0.000000 0.000000 0.000000
0.000000 0.000000 0.000000
0.000000 0.000000 0.000000
0.000000 0.000000 0.000000
0.000000 0.000000 0.000000
0.000000 0.000000 0.000000
0.000000 0.000000 0.000000
0.000000 0.000000 0.000000
0.000000 0.000000 0.000000
0.000000 0.000000 0.000000
0.000000 0.000000 0.000000
0.000000 0.000000 0.000000
0.000000 0.000000 0.000000
0.000000 0.000000 0.000000
0.000000 0.000000 0.000000
0.000000 0.000000 0.000000
0.000000 0.000000 0.000000
0.000000 0.000000 0.000000
0.000000 0.000000 0.000000
0.000000 0.000000 0.000000
0.000000 0.000000 0.000000
0.000000 0.000000 0.000000
0.000000 0.000000 0.000000
0.000000 0.000000 0.000000
0.000000 0.000000 0.000000
0.000000 0.000000 0.000000
0.000000 0.000000 0.000000
0.000000 0.000000 0.000000
0.000000 0.000000 0.000000
0.000000 0.000000 0.000000
0.000000 0.000000 0.000000
0.000000 0.000000 0.000000
0.000000 0.000000 0.000000
0.000000 0.000000 0.000000
0.000000 0.000000 0.000000
0.000000 0.000000 0.000000
0.000000 0.000000 0.000000
0.000000 0.000000 0.000000
0.000000 0.000000 0.000000
0.000000 0.000000 0.000000
0.000000 0.000000 0.000000
0.000000 0.000000 0.000000
0.000000 0.000000 0.000000
0.000000 0.000000 0.000000
0.000000 0.000000 0.000000
0.000000 0.000000 0.000000
0.000000 0.000000 0.000000
0.000000 0.000000 0.000000
0.000000 0.000000 0.000000
0.000000 0.000000 0.000000
0.000000 0.000000 0.000000
0.000000 0.000000 0.000000
0.000000 0.000000 0.000000
0.000000 0.000000 0.000000
0.000000 0.000000 0.000000
0.000000 0.000000 0.000000
0.000000 0.000000 0.000000
0.000000 0.000000 0.000000
0.000000 0.000000 0.000000
0.000000 0.000000 0.000000
0.000000 0.000000 0.000000
0.000000 0.000000 0.000000
0.000000 0.000000 0.000000
0.000000 0.000000 0.000000
0.000000 0.000000 0.000000
0.000000 0.000000 0.000000
0.000000 0.000000 0.000000
0.000000 0.000000 0.000000
0.000000 0.000000 0.000000
0.000000 0.000000 0.000000
0.000000 0.000000 0.000000
0.000000 0.000000 0.000000
0.000000 0.000000 0.000000
0.000000 0.000000 0.000000
0.000000 0.000000 0.000000
0.000000 0.000000 0.000000
0.000000 0.000000 0.000000
0.000000 0.000000 0.000000
0.000000 0.000000 0.000000
0.000000 0.000000 0.000000
0.000000 0.000000 0.000000
0.000000 0.000000 0.000000
0.000000 0.000000 0.000000
0.000000 0.000000 0.000000
0.000000 0.000000 0.000000
0.000000 0.000000 0.000000
0.000000 0.000000 0.000000
0.000000 0.000000 0.000000
0.000000 0.000000 0.000000
0.000000 0.000000 0.000000
0.000000 0.000000 0.000000
0.000000 0.000000 0.000000
0.000000 0.000000 0.000000
0.000000 0.000000 0.000000
0.000000 0.000000 0.000000
0.000000 0.000000 0.000000
0.000000 0.000000 0.000000
0.000000 0.000000 0.000000
0.000000 0.000000 0.000000
0.000000 0.000000 0.000000
0.000000 0.000000 0.000000
0.000000 0.000000 0.000000
0.000000 0.000000 0.000000
0.000000 0.000000 0.000000
0.000000 0.000000 0.000000
0.000000 0.000000 0.000000
0.000000 0.000000 0.000000
0.000000 0.000000 0.000000
0.000000 0.000000 0.000000
0.000000 0.000000 0.000000
0.000000 0.000000 0.000000
0.000000 0.000000 0.000000
0.000000 0.000000 0.000000
0.000000 0.000000 0.000000
0.000000 0.000000 0.000000
0.000000 0.000000 0.000000
0.000000 0.000000 0.000000
0.000000 0.000000 0.000000
0.000000 0.000000 0.000000
0.000000 0.000000 0.000000
0.000000 0.000000 0.000000
0.000000 0.000000 0.000000
0.000000 0.000000 0.000000
0.000000 0.000000 0.000000
0.000000 0.000000 0.000000
0.000000 0.000000 0.000000
0.000000 0.000000 0.000000
0.000000 0.000000 0.000000
0.000000 0.000000 0.000000
0.000000 0.000000 0.000000
0.000000 0.000000 0.000000
0.000000 0.000000 0.000000
0.000000 0.000000 0.000000
0.000000 0.000000 0.000000
0.000000 0.000000 0.000000
0.000000 0.000000 0.000000
0.000000 0.000000 0.000000
0.000000 0.000000 0.000000
0.000000 0.000000 0.000000
0.000000 0.000000 0.000000
0.000000 0.000000 0.000000
0.000000 0.000000 0.000000
0.000000 0.000000 0.000000
0.000000 0.000000 0.000000
0.000000 0.000000 0.000000
0.000000 0.000000 0.000000
0.000000 0.000000 0.000000
0.000000 0.000000 0.000000
0.000000 0.000000 0.000000
0.000000 0.000000 0.000000
0.000000 0.000000 0.000000
0.000000 0.000000 0.000000
0.000000 0.000000 0.000000
0.000000 0.000000 0.000000
0.000000 0.000000 0.000000
0.000000 0.000000 0.000000
0.000000 0.000000 0.000000
0.000000 0.000000 0.000000
0.000000 0.000000 0.000000
0.000000 0.000000 0.000000
0.000000 0.000000 0.000000
0.000000 0.000000 0.000000
0.000000 0.000000 0.000000
0.000000 0.000000 0.000000
0.000000 0.000000 0.000000
0.000000 0.000000 0.000000
0.000000 0.000000 0.000000
0.000000 0.000000 0.000000
0.000000 0.000000 0.000000
0.000000 0.000000 0.000000
0.000000 0.000000 0.000000
0.000000 0.000000 0.000000
0.000000 0.000000 0.000000
0.000000 0.000000 0.000000
0.000000 0.000000 0.000000
0.000000 0.000000 0.000000
0.000000 0.000000 0.000000
0.000000 0.000000 0.000000
0.000000 0.000000 0.000000
0.000000 0.000000 0.000000
0.000000 0.000000 0.000000
0.000000 0.000000 0.000000
0.000000 0.000000 0.000000
0.000000 0.000000 0.000000
0.000000 0.000000 0.000000
0.000000 0.000000 0.000000
0.000000 0.000000 0.000000
0.000000 0.000000 0.000000
0.000000 0.000000 0.000000
0.000000 0.000000 0.000000
0.000000 0.000000 0.000000
0.000000 0.000000 0.000000
0.000000 0.000000 0.000000
0.000000 0.000000 0.000000
0.000000 0.000000 0.000000
0.000000 0.000000 0.000000
0.000000 0.000000 0.000000
0.000000 0.000000 0.000000
0.000000 0.000000 0.000000
0.000000 0.000000 0.000000
0.000000 0.000000 0.000000
0.000000 0.000000 0.000000
0.000000 0.000000 0.000000
0.000000 0.000000 0.000000
0.000000 0.000000 0.000000
0.000000 0.000000 0.000000
0.000000 0.000000 -50.000000
-50.000000 0.000000 -50.000000
-43.332118 0.000000 -45.688694
-45.491398 0.000000 -43.331952
-50.000000 0.000000 -50.000000
-36.664164 0.000000 -36.664253
-50.000000 0.000000 -45.081449
-39.969960 0.000000 -40.027671
-44.152534 0.000000 -29.996467
-50.000000 0.000000 -50.000000
-29.996331 0.000000 -44.847409
-33.449062 0.000000 -33.145301
-44.675965 0.000000 -39.869537
-36.787177 0.000000 -35.129152
-39.801645 0.000000 -23.329169
-50.000000 0.000000 -26.539576
-44.666871 0.000000 -50.000000
-23.329049 0.000000 -44.665406
-26.804132 0.000000 -39.364538
-30.225883 0.000000 -29.606836
-39.359627 0.000000 -33.368801
-33.655756 0.000000 -50.000000
-16.662564 0.000000 -16.662767
-50.000000 0.000000 -9.997268
