# vtk DataFile Version 2.0
CellBP Time: 5.28
ASCII
DATASET UNSTRUCTURED_GRID
POINTS 320 double
-50.000000 -50.000000 0.000000
-50.000000 -43.332469 0.000000
-45.688568 -45.491295 0.000000
-43.332347 -50.000000 0.000000
-50.000000 -36.664885 0.000000
-36.664940 -50.000000 0.000000
-45.081315 -39.969888 0.000000
-40.027473 -44.152429 0.000000
-29.997466 -50.000000 0.000000
-50.000000 -29.997381 0.000000
-44.847280 -33.449000 0.000000
-33.145142 -44.675852 0.000000
-39.869371 -36.787101 0.000000
-35.128950 -39.801507 0.000000
-23.330334 -50.000000 0.000000
-26.539400 -44.666821 0.000000
-50.000000 -23.330266 0.000000
-44.665355 -26.804042 0.000000
-39.364421 -30.225798 0.000000
-29.606605 -39.359523 0.000000
-33.368574 -33.655631 0.000000
-50.000000 -16.663716 0.000000
-16.663844 -50.000000 0.000000
-9.998006 -50.000000 0.000000
-19.965176 -44.588727 0.000000
-23.216136 -39.114743 0.000000
-44.691837 -20.097027 0.000000
-39.367925 -23.528179 0.000000
-34.106341 -26.937098 0.000000
-26.384739 -33.577489 0.000000
-29.156530 -28.926817 0.000000
-50.000000 -9.997660 0.000000
-44.666315 -13.410279 0.000000
-50.000000 -3.332230 0.000000
-3.332702 -50.000000 0.000000
3.332470 -50.000000 0.000000
-13.343956 -44.598919 0.000000
-6.684903 -44.610537 0.000000
-16.693927 -39.153149 0.000000
-20.107143 -33.342637 0.000000
-39.338127 -16.804634 0.000000
-34.018959 -20.274531 0.000000
-28.781317 -23.449201 0.000000
-23.510763 -27.350853 0.000000
-44.635326 -6.705505 0.000000
-39.293110 -10.101708 0.000000
-50.000000 3.332875 0.000000
-44.626570 -0.015416 0.000000
9.997908 -50.000000 0.000000
16.663864 -50.000000 0.000000
-0.016158 -44.618627 0.000000
6.651757 -44.635364 0.000000
-10.044901 -39.222532 0.000000
-3.368279 -39.220241 0.000000
-13.484326 -33.798495 0.000000
-16.709025 -28.271580 0.000000
-33.947964 -13.513567 0.000000
-28.602549 -16.892069 0.000000
-23.292537 -20.313268 0.000000
-18.660912 -23.284284 0.000000
-39.267375 -3.392616 0.000000
-33.904499 -6.796699 0.000000
-50.000000 9.998098 0.000000
-44.606567 6.673737 0.000000
-39.260693 3.325817 0.000000
-50.000000 16.663895 0.000000
23.330352 -50.000000 0.000000
29.997379 -50.000000 0.000000
13.317723 -44.662933 0.000000
19.989871 -44.700095 0.000000
3.307649 -39.245107 0.000000
9.971878 -39.290360 0.000000
-6.735611 -33.791346 0.000000
-0.032171 -33.829462 0.000000
-10.096000 -28.292536 0.000000
-13.122697 -22.896379 0.000000
-28.531647 -10.214228 0.000000
-23.067691 -13.663678 0.000000
-16.978922 -17.212118 0.000000
-33.884277 -0.065450 0.000000
-28.562819 -3.579932 0.000000
-44.563987 13.380891 0.000000
-39.189900 10.015225 0.000000
-33.905501 6.616098 0.000000
-50.000000 23.330193 0.000000
-44.557389 20.138522 0.000000
-50.000000 29.997470 0.000000
36.664806 -50.000000 0.000000
43.332367 -50.000000 0.000000
26.663471 -44.745373 0.000000
33.315460 -44.876111 0.000000
16.631736 -39.357677 0.000000
23.328390 -39.437163 0.000000
6.642956 -33.879575 0.000000
13.290545 -33.965432 0.000000
-3.346255 -28.363615 0.000000
3.358169 -28.451199 0.000000
-6.626233 -22.845057 0.000000
-9.963391 -17.315277 0.000000
-23.181089 -7.014213 0.000000
-17.813511 -10.334845 0.000000
-12.838015 -12.606034 0.000000
-28.607339 3.088713 0.000000
-23.266408 -0.469601 0.000000
-39.038518 16.746397 0.000000
-28.720234 9.925910 0.000000
-33.760895 13.318075 0.000000
-44.521710 26.717272 0.000000
-38.467776 23.892737 0.000000
-44.632667 33.085928 0.000000
-50.000000 36.665256 0.000000
-50.000000 43.332591 0.000000
39.922521 -45.069737 0.000000
45.474881 -45.660618 0.000000
50.000000 -50.000000 0.000000
36.626907 -39.982080 0.000000
30.012528 -39.458714 0.000000
19.904211 -34.092947 0.000000
26.585121 -34.319617 0.000000
9.988515 -28.512809 0.000000
16.610601 -28.660373 0.000000
0.050694 -22.962640 0.000000
6.812115 -23.155590 0.000000
-3.398236 -17.296958 0.000000
-6.814194 -10.912601 0.000000
-17.874439 -3.815671 0.000000
-12.549381 -7.033910 0.000000
-23.308480 6.070156 0.000000
-18.034364 2.441094 0.000000
-23.123430 12.096214 0.000000
-33.572141 19.788959 0.000000
-27.941677 16.886239 0.000000
-33.293208 24.723003 0.000000
-39.473984 30.053269 0.000000
-35.160817 28.137805 0.000000
-39.816417 35.101749 0.000000
-43.991910 39.982623 0.000000
-45.431141 45.685425 0.000000
-50.000000 50.000000 0.000000
44.117411 -39.899240 0.000000
50.000000 -43.332049 0.000000
39.639599 -35.047573 0.000000
33.463005 -33.424677 0.000000
22.984986 -28.818163 0.000000
28.731071 -29.247931 0.000000
13.460798 -23.121810 0.000000
20.054930 -23.439659 0.000000
3.369568 -17.590046 0.000000
10.123543 -17.842725 0.000000
0.162402 -11.835004 0.000000
-2.131319 -6.182085 0.000000
-7.211471 -3.594044 0.000000
-12.479824 -0.807409 0.000000
-18.171684 8.573239 0.000000
-12.940888 5.196534 0.000000
-18.638072 13.751174 0.000000
-21.503832 17.494219 0.000000
-28.941045 23.159177 0.000000
-24.346412 21.554316 0.000000
-30.323946 28.635160 0.000000
-34.253800 33.375681 0.000000
-36.956112 39.578169 0.000000
-39.838754 45.102933 0.000000
-43.332325 50.000000 0.000000
44.585387 -32.972243 0.000000
50.000000 -36.664486 0.000000
39.129381 -29.582024 0.000000
33.500711 -26.367765 0.000000
27.183192 -23.322117 0.000000
23.067091 -18.647945 0.000000
16.991973 -16.981910 0.000000
6.700687 -12.195961 0.000000
12.369253 -12.736404 0.000000
-3.368856 -1.486372 0.000000
3.823250 -6.828460 0.000000
1.023389 -2.120851 0.000000
-6.890449 2.279844 0.000000
-8.284940 7.694085 0.000000
-12.842273 11.928773 0.000000
-15.690907 17.699134 0.000000
-19.287427 22.981579 0.000000
-24.170995 27.354465 0.000000
-27.286405 33.625840 0.000000
-30.406779 39.161065 0.000000
-33.447944 44.738883 0.000000
-36.664709 50.000000 0.000000
44.547753 -26.500107 0.000000
50.000000 -29.996979 0.000000
39.040015 -23.179346 0.000000
33.449576 -19.899993 0.000000
28.039727 -16.573503 0.000000
22.680311 -13.123744 0.000000
17.175873 -9.901690 0.000000
10.812926 -6.591838 0.000000
-1.357865 2.318086 0.000000
6.152650 -1.716581 0.000000
2.891724 1.594355 0.000000
-3.470418 7.027785 0.000000
-6.313408 12.430464 0.000000
-9.629352 17.709940 0.000000
-13.167831 23.114203 0.000000
-17.316871 28.185073 0.000000
-20.570989 33.474220 0.000000
-23.666106 39.063916 0.000000
-26.831199 44.585347 0.000000
-29.997441 50.000000 0.000000
44.528649 -19.930884 0.000000
50.000000 -23.329908 0.000000
39.036177 -16.594201 0.000000
33.575882 -13.281253 0.000000
28.149385 -9.965080 0.000000
22.724846 -6.604765 0.000000
17.264773 -3.335410 0.000000
11.843568 0.211985 0.000000
1.912824 6.220118 0.000000
6.852399 3.736914 0.000000
-0.223787 11.810654 0.000000
-3.252062 17.531191 0.000000
-6.699303 22.976681 0.000000
-10.567246 28.267257 0.000000
-13.724243 33.661027 0.000000
-16.945898 39.080170 0.000000
-20.140929 44.548359 0.000000
-23.330520 50.000000 0.000000
44.536164 -13.304012 0.000000
50.000000 -16.663476 0.000000
39.079786 -9.966861 0.000000
33.646583 -6.641367 0.000000
28.236569 -3.308014 0.000000
22.849271 0.017462 0.000000
17.537503 3.345008 0.000000
12.187120 6.584789 0.000000
6.670619 10.727385 0.000000
3.302206 17.199104 0.000000
-0.080774 22.854079 0.000000
-3.519008 28.313045 0.000000
-6.831674 33.774593 0.000000
-10.137722 39.170508 0.000000
-13.436124 44.563464 0.000000
-16.664139 50.000000 0.000000
44.554163 -6.654949 0.000000
50.000000 -9.997749 0.000000
39.123213 -3.321447 0.000000
33.713318 0.008786 0.000000
28.333298 3.344906 0.000000
22.999823 6.693868 0.000000
17.834165 10.019430 0.000000
12.658031 12.240842 0.000000
9.785354 17.233216 0.000000
6.479325 22.722437 0.000000
3.189276 28.270197 0.000000
-0.116035 33.734895 0.000000
-3.425326 39.168679 0.000000
-6.725724 44.581740 0.000000
-9.998251 50.000000 0.000000
44.575519 0.001806 0.000000
50.000000 -3.332573 0.000000
39.166874 3.331819 0.000000
33.779473 6.655621 0.000000
28.423919 9.994781 0.000000
23.046484 13.416210 0.000000
16.950525 17.024046 0.000000
12.901588 22.667779 0.000000
9.815333 28.231799 0.000000
6.604369 33.718799 0.000000
3.286538 39.164432 0.000000
-0.029957 44.584511 0.000000
-3.332754 50.000000 0.000000
44.586672 6.665618 0.000000
50.000000 3.332538 0.000000
39.198178 9.982008 0.000000
33.843493 13.276930 0.000000
28.542285 16.584401 0.000000
23.387554 20.084289 0.000000
18.531962 23.113244 0.000000
16.392705 28.298544 0.000000
13.329026 33.754755 0.000000
9.986687 39.181952 0.000000
6.666109 44.584260 0.000000
3.332616 50.000000 0.000000
44.608888 13.318203 0.000000
50.000000 9.997994 0.000000
39.251385 16.612567 0.000000
33.932014 19.862894 0.000000
28.612525 22.926000 0.000000
23.279679 27.207754 0.000000
19.901403 33.302906 0.000000
16.574033 39.040857 0.000000
13.268627 44.526660 0.000000
9.998059 50.000000 0.000000
44.632070 19.973297 0.000000
50.000000 16.663983 0.000000
39.298546 23.262314 0.000000
34.043926 26.514856 0.000000
28.965937 28.539499 0.000000
26.202545 33.410176 0.000000
23.066909 38.968807 0.000000
19.888886 44.507029 0.000000
16.663866 50.000000 0.000000
44.639875 26.643209 0.000000
50.000000 23.330477 0.000000
39.293482 29.966913 0.000000
33.212562 33.371421 0.000000
29.412359 39.045925 0.000000
26.422661 44.506002 0.000000
23.330286 50.000000 0.000000
44.775132 33.292014 0.000000
50.000000 29.997474 0.000000
39.738318 36.596464 0.000000
34.831252 39.525814 0.000000
32.834055 44.514443 0.000000
29.997268 50.000000 0.000000
44.978400 39.878041 0.000000
50.000000 36.664857 0.000000
39.735146 43.969212 0.000000
36.664675 50.000000 0.000000
45.621480 45.410003 0.000000
50.000000 43.332382 0.000000
43.332145 50.000000 0.000000
50.000000 50.000000 0.000000
CELLS 578 2312
3 1 0 2
3 0 3 2
3 4 1 6
3 6 1 2
3 3 5 7
3 3 7 2
3 6 2 7
3 9 4 10
3 10 4 6
3 5 8 11
3 7 5 11
3 10 6 12
3 12 6 7
3 7 11 13
3 7 13 12
3 8 14 15
3 11 8 15
3 16 9 17
3 17 9 10
3 17 10 18
3 18 10 12
3 11 15 19
3 13 11 19
3 18 12 20
3 13 19 20
3 20 12 13
3 14 22 24
3 15 14 24
3 15 24 25
3 19 15 25
3 21 16 26
3 26 16 17
3 26 17 27
3 27 17 18
3 27 18 28
3 28 18 20
3 19 25 29
3 19 29 20
3 28 20 30
3 30 20 29
3 31 21 32
3 32 21 26
3 22 23 36
3 24 22 36
3 23 34 37
3 36 23 37
3 24 36 38
3 25 24 38
3 25 38 39
3 29 25 39
3 32 26 40
3 40 26 27
3 40 27 41
3 41 27 28
3 41 28 42
3 42 28 30
3 29 39 43
3 29 43 30
3 42 30 43
3 33 31 44
3 44 31 32
3 44 32 45
3 45 32 40
3 46 33 47
3 47 33 44
3 34 35 50
3 37 34 50
3 35 48 51
3 50 35 51
3 36 37 52
3 38 36 52
3 37 50 53
3 52 37 53
3 38 52 54
3 39 38 54
3 39 54 55
3 43 39 55
3 45 40 56
3 56 40 41
3 56 41 57
3 57 41 42
3 57 42 58
3 58 42 43
3 43 55 59
3 43 59 58
3 47 44 60
3 60 44 45
3 60 45 61
3 61 45 56
3 62 46 63
3 63 46 47
3 63 47 64
3 64 47 60
3 48 49 68
3 51 48 68
3 49 66 69
3 68 49 69
3 50 51 70
3 53 50 70
3 51 68 71
3 70 51 71
3 52 53 72
3 54 52 72
3 53 70 73
3 72 53 73
3 54 72 74
3 55 54 74
3 55 74 75
3 59 55 75
3 61 56 76
3 76 56 57
3 76 57 77
3 77 57 58
3 77 58 78
3 59 75 78
3 78 58 59
3 64 60 79
3 79 60 61
3 79 61 80
3 80 61 76
3 65 62 81
3 81 62 63
3 81 63 82
3 82 63 64
3 82 64 83
3 83 64 79
3 84 65 85
3 85 65 81
3 66 67 89
3 69 66 89
3 67 87 90
3 89 67 90
3 68 69 91
3 71 68 91
3 69 89 92
3 91 69 92
3 70 71 93
3 73 70 93
3 71 91 94
3 93 71 94
3 72 73 95
3 74 72 95
3 73 93 96
3 95 73 96
3 74 95 97
3 75 74 97
3 75 97 98
3 78 75 98
3 80 76 99
3 99 76 77
3 99 77 100
3 100 77 78
3 100 78 101
3 98 101 78
3 83 79 102
3 102 79 80
3 102 80 103
3 103 80 99
3 85 81 104
3 104 81 82
3 105 83 102
3 104 82 106
3 106 82 83
3 106 83 105
3 86 84 107
3 107 84 85
3 107 85 108
3 108 85 104
3 109 86 107
3 110 86 109
3 87 88 112
3 90 87 112
3 112 88 113
3 88 114 113
3 90 112 115
3 89 90 116
3 92 89 116
3 116 90 115
3 91 92 117
3 94 91 117
3 92 116 118
3 117 92 118
3 93 94 119
3 96 93 119
3 94 117 120
3 119 94 120
3 95 96 121
3 97 95 121
3 96 119 122
3 121 96 122
3 97 121 123
3 98 97 123
3 98 123 124
3 98 124 101
3 103 99 125
3 125 99 100
3 125 100 126
3 126 100 101
3 126 101 124
3 105 102 127
3 127 102 103
3 127 103 128
3 128 103 125
3 129 105 127
3 108 104 130
3 130 104 106
3 130 106 131
3 131 106 105
3 131 105 129
3 108 130 132
3 109 107 133
3 133 107 108
3 133 108 134
3 108 132 134
3 135 109 133
3 111 110 136
3 136 110 109
3 136 109 135
3 137 111 136
3 138 111 137
3 112 113 139
3 115 112 139
3 114 140 113
3 140 139 113
3 139 141 115
3 116 115 142
3 118 116 142
3 142 115 141
3 117 118 143
3 120 117 143
3 118 142 144
3 143 118 144
3 119 120 145
3 122 119 145
3 120 143 146
3 145 120 146
3 121 122 147
3 123 121 147
3 122 145 148
3 147 122 148
3 123 147 149
3 124 123 149
3 124 149 150
3 151 126 124
3 124 150 151
3 128 125 152
3 152 125 126
3 152 126 151
3 129 127 153
3 153 127 128
3 128 152 154
3 153 128 154
3 155 129 153
3 131 129 156
3 156 129 155
3 132 130 157
3 130 131 157
3 157 131 158
3 131 156 158
3 132 157 159
3 132 159 134
3 135 133 160
3 160 133 134
3 160 134 159
3 136 135 161
3 135 160 161
3 162 137 136
3 161 162 136
3 163 138 137
3 162 163 137
3 139 164 141
3 140 165 139
3 139 165 164
3 141 164 166
3 141 166 142
3 166 167 142
3 144 142 167
3 167 168 144
3 143 144 168
3 146 143 168
3 168 169 146
3 145 146 170
3 148 145 170
3 170 146 169
3 147 148 171
3 149 147 171
3 148 170 172
3 171 148 172
3 173 151 150
3 149 171 174
3 150 149 174
3 150 174 175
3 150 175 173
3 154 152 176
3 152 151 176
3 176 151 173
3 154 176 177
3 155 153 178
3 177 178 154
3 154 178 153
3 156 155 179
3 155 178 179
3 180 158 156
3 179 180 156
3 181 159 157
3 180 181 158
3 181 157 158
3 182 160 159
3 181 182 159
3 183 161 160
3 182 183 160
3 184 162 161
3 184 161 183
3 185 163 162
3 184 185 162
3 164 186 166
3 165 187 164
3 164 187 186
3 166 186 188
3 166 188 167
3 167 188 189
3 167 189 168
3 168 189 190
3 168 190 169
3 169 190 191
3 169 191 170
3 192 172 170
3 170 191 192
3 192 193 172
3 171 172 193
3 174 171 193
3 194 173 175
3 176 173 194
3 175 174 195
3 193 195 174
3 195 196 175
3 175 196 194
3 197 177 176
3 194 197 176
3 198 178 177
3 197 198 177
3 199 179 178
3 198 199 178
3 200 180 179
3 199 200 179
3 201 181 180
3 200 201 180
3 202 182 181
3 201 202 181
3 203 183 182
3 202 203 182
3 204 184 183
3 203 204 183
3 205 185 184
3 204 205 184
3 186 206 188
3 187 207 186
3 186 207 206
3 188 206 208
3 188 208 189
3 189 208 209
3 189 209 190
3 190 209 210
3 190 210 191
3 191 210 211
3 191 211 192
3 192 211 212
3 192 212 193
3 193 212 213
3 193 213 195
3 214 197 194
3 214 194 196
3 195 213 215
3 195 215 196
3 196 215 214
3 216 198 197
3 214 216 197
3 217 199 198
3 216 217 198
3 218 200 199
3 217 218 199
3 219 201 200
3 218 219 200
3 220 202 201
3 219 220 201
3 221 203 202
3 220 221 202
3 222 204 203
3 221 222 203
3 223 205 204
3 222 223 204
3 206 224 208
3 207 225 206
3 206 225 224
3 208 224 226
3 208 226 209
3 209 226 227
3 209 227 210
3 210 227 228
3 210 228 211
3 211 228 229
3 211 229 212
3 212 229 230
3 212 230 213
3 213 230 231
3 213 231 215
3 232 216 214
3 215 231 232
3 232 214 215
3 233 217 216
3 232 233 216
3 234 218 217
3 233 234 217
3 235 219 218
3 234 235 218
3 236 220 219
3 235 236 219
3 237 221 220
3 236 237 220
3 238 222 221
3 237 238 221
3 239 223 222
3 238 239 222
3 224 240 226
3 225 241 224
3 224 241 240
3 226 240 242
3 226 242 227
3 227 242 243
3 227 243 228
3 228 243 244
3 228 244 229
3 244 245 229
3 229 245 230
3 230 245 246
3 230 246 231
3 231 246 247
3 231 247 232
3 248 233 232
3 248 232 247
3 249 234 233
3 248 249 233
3 250 235 234
3 249 250 234
3 251 236 235
3 250 251 235
3 252 237 236
3 251 252 236
3 253 238 237
3 252 253 237
3 254 239 238
3 253 254 238
3 240 255 242
3 241 256 240
3 240 256 255
3 242 255 257
3 242 257 243
3 243 257 258
3 243 258 244
3 244 258 259
3 244 259 245
3 245 259 260
3 245 260 246
3 246 260 261
3 246 261 247
3 248 247 261
3 262 249 248
3 261 262 248
3 263 250 249
3 262 263 249
3 264 251 250
3 263 264 250
3 265 252 251
3 264 265 251
3 266 253 252
3 265 266 252
3 267 254 253
3 266 267 253
3 255 268 257
3 256 269 255
3 255 269 268
3 257 268 270
3 257 270 258
3 258 270 271
3 258 271 259
3 259 271 272
3 259 272 260
3 260 272 273
3 260 273 261
3 274 262 261
3 261 273 274
3 275 263 262
3 274 275 262
3 276 264 263
3 275 276 263
3 277 265 264
3 276 277 264
3 278 266 265
3 277 278 265
3 279 267 266
3 278 279 266
3 268 280 270
3 269 281 268
3 268 281 280
3 270 280 282
3 270 282 271
3 271 282 283
3 271 283 272
3 283 284 272
3 272 284 273
3 285 275 274
3 273 284 285
3 285 274 273
3 286 276 275
3 285 286 275
3 287 277 276
3 286 287 276
3 288 278 277
3 287 288 277
3 289 279 278
3 288 289 278
3 280 290 282
3 281 291 280
3 280 291 290
3 282 290 292
3 282 292 283
3 283 292 293
3 283 293 284
3 284 293 294
3 284 294 285
3 295 286 285
3 295 285 294
3 296 287 286
3 295 296 286
3 297 288 287
3 296 297 287
3 298 289 288
3 297 298 288
3 290 299 292
3 291 300 290
3 290 300 299
3 292 299 301
3 292 301 293
3 293 301 302
3 293 302 294
3 294 302 295
3 303 296 295
3 303 295 302
3 304 297 296
3 303 304 296
3 305 298 297
3 304 305 297
3 299 306 301
3 300 307 299
3 299 307 306
3 301 306 308
3 301 308 302
3 309 303 302
3 302 308 309
3 310 304 303
3 309 310 303
3 311 305 304
3 310 311 304
3 306 312 308
3 307 313 306
3 306 313 312
3 314 310 309
3 308 312 314
3 314 309 308
3 315 311 310
3 314 315 310
3 312 316 314
3 313 317 312
3 312 317 316
3 318 315 314
3 318 314 316
3 317 319 316
3 319 318 316
CELL_TYPES 578
5
5
5
5
5
5
5
5
5
5
5
5
5
5
5
5
5
5
5
5
5
5
5
5
5
5
5
5
5
5
5
5
5
5
5
5
5
5
5
5
5
5
5
5
5
5
5
5
5
5
5
5
5
5
5
5
5
5
5
5
5
5
5
5
5
5
5
5
5
5
5
5
5
5
5
5
5
5
5
5
5
5
5
5
5
5
5
5
5
5
5
5
5
5
5
5
5
5
5
5
5
5
5
5
5
5
5
5
5
5
5
5
5
5
5
5
5
5
5
5
5
5
5
5
5
5
5
5
5
5
5
5
5
5
5
5
5
5
5
5
5
5
5
5
5
5
5
5
5
5
5
5
5
5
5
5
5
5
5
5
5
5
5
5
5
5
5
5
5
5
5
5
5
5
5
5
5
5
5
5
5
5
5
5
5
5
5
5
5
5
5
5
5
5
5
5
5
5
5
5
5
5
5
5
5
5
5
5
5
5
5
5
5
5
5
5
5
5
5
5
5
5
5
5
5
5
5
5
5
5
5
5
5
5
5
5
5
5
5
5
5
5
5
5
5
5
5
5
5
5
5
5
5
5
5
5
5
5
5
5
5
5
5
5
5
5
5
5
5
5
5
5
5
5
5
5
5
5
5
5
5
5
5
5
5
5
5
5
5
5
5
5
5
5
5
5
5
5
5
5
5
5
5
5
5
5
5
5
5
5
5
5
5
5
5
5
5
5
5
5
5
5
5
5
5
5
5
5
5
5
5
5
5
5
5
5
5
5
5
5
5
5
5
5
5
5
5
5
5
5
5
5
5
5
5
5
5
5
5
5
5
5
5
5
5
5
5
5
5
5
5
5
5
5
5
5
5
5
5
5
5
5
5
5
5
5
5
5
5
5
5
5
5
5
5
5
5
5
5
5
5
5
5
5
5
5
5
5
5
5
5
5
5
5
5
5
5
5
5
5
5
5
5
5
5
5
5
5
5
5
5
5
5
5
5
5
5
5
5
5
5
5
5
5
5
5
5
5
5
5
5
5
5
5
5
5
5
5
5
5
5
5
5
5
5
5
5
5
5
5
5
5
5
5
5
5
5
5
5
5
5
5
5
5
5
5
5
5
5
5
5
5
5
5
5
5
5
5
5
5
5
5
5
5
5
5
5
5
5
5
5
5
5
5
5
5
5
5
5
5
5
5
5
5
5
5
5
5
5
5
5
5
5
5
5
5
5
5
5
5
5
5
5
5
5
5
5
5
5
5
5
5
5
5
5
5
5
5
5
5
5
5
5
5
5
5
5
5
5
5
5
5
5
5
5
5
5
5
POINT_DATA 320
SCALARS theta_e float 1
LOOKUP_TABLE default
1.000001
1.000001
1.000001
1.000001
1.000001
1.000000
1.000000
1.000000
1.000000
1.000001
1.000000
1.000000
1.000000
1.000000
1.000000
1.000000
1.000001
1.000000
1.000000
1.000000
1.000000
1.000001
1.000000
1.000000
1.000000
1.000000
1.000000
1.000000
1.000000
1.000000
1.000000
1.000001
1.000001
1.000001
1.000000
1.000000
1.000000
1.000000
1.000000
1.000000
1.000000
1.000000
1.000000
1.000000
1.000001
1.000000
1.000001
1.000001
1.000000
1.000000
1.000000
1.000000
1.000000
1.000000
1.000001
1.000001
1.000000
1.000000
1.000001
1.000001
1.000001
1.000000
1.000001
1.000001
1.000001
1.000001
1.000000
1.000001
1.000000
1.000000
1.000000
1.000000
1.000001
1.000001
1.000001
1.000001
1.000000
1.000001
1.000001
1.000000
1.000000
1.000001
1.000001
1.000000
1.000001
1.000001
1.000001
1.000001
1.000001
1.000000
1.000001
1.000000
1.000000
1.000001
1.000001
1.000001
1.000001
1.000001
1.000000
1.000001
1.000000
1.000000
1.000000
1.000000
1.000001
1.000000
1.000001
1.000001
1.000001
1.000001
1.000001
1.000001
1.000001
1.000001
1.000001
1.000001
1.000000
1.000001
1.000000
1.000001
1.000001
1.000000
1.000000
1.000000
0.999997
1.000001
0.999999
1.000000
1.000001
1.000000
1.000001
1.000000
1.000001
1.000001
1.000001
1.000001
1.000001
1.000001
1.000001
1.000001
1.000001
1.000001
1.000000
1.000001
1.000001
1.000000
1.000001
1.000000
1.000000
0.999996
0.999987
0.999992
0.999998
1.000001
0.999999
1.000001
1.000001
1.000001
1.000001
1.000001
1.000001
1.000001
1.000001
1.000001
1.000001
1.000001
1.000001
1.000000
1.000001
1.000000
1.000000
0.999998
1.000000
0.999984
0.999990
0.999984
0.999990
0.999997
1.000001
1.000001
1.000001
1.000001
1.000001
1.000001
1.000001
1.000001
1.000001
1.000001
1.000000
1.000000
1.000000
1.000000
1.000000
0.999997
0.999985
0.999989
0.999985
0.999990
0.999999
1.000001
1.000001
1.000001
1.000000
1.000001
1.000001
1.000001
1.000000
1.000000
1.000000
1.000000
1.000000
1.000000
1.000000
0.999997
0.999988
0.999992
0.999996
1.000000
1.000001
1.000001
1.000000
1.000000
1.000000
1.000001
1.000000
1.000000
1.000000
1.000000
1.000000
1.000000
1.000000
0.999999
0.999997
1.000000
1.000001
1.000001
1.000000
1.000000
1.000000
1.000000
1.000000
1.000000
1.000000
1.000000
1.000000
1.000000
1.000000
1.000000
1.000000
1.000000
1.000001
1.000000
1.000000
1.000000
1.000000
1.000000
1.000000
1.000000
1.000000
1.000000
1.000000
1.000000
1.000000
1.000000
1.000000
1.000000
1.000000
1.000000
1.000000
1.000000
1.000000
1.000000
1.000000
1.000000
1.000000
1.000000
1.000000
1.000000
1.000000
1.000000
1.000000
1.000000
1.000000
1.000000
1.000000
1.000000
1.000000
1.000000
1.000000
1.000000
1.000000
1.000000
1.000000
1.000000
1.000000
1.000000
1.000000
1.000000
1.000000
1.000000
1.000000
1.000000
1.000000
1.000000
1.000000
1.000000
1.000000
1.000000
1.000000
1.000000
1.000000
1.000000
1.000000
1.000000
1.000000
1.000000
1.000000
1.000000
1.000000
1.000000
VECTORS fa_u float
0.000000 0.000000 0.000000
0.000000 0.000000 0.000000
0.000000 0.000000 0.000000
0.000000 0.000000 0.000000
0.000000 0.000000 0.000000
0.000000 0.000000 0.000000
0.000000 0.000000 0.000000
0.000000 0.000000 0.000000
0.000000 0.000000 0.000000
0.000000 0.000000 0.000000
0.000000 0.000000 0.000000
0.000000 0.000000 0.000000
0.000000 0.000000 0.000000
0.000000 0.000000 0.000000
0.000000 0.000000 0.000000
0.000000 0.000000 0.000000
0.000000 0.000000 0.000000
0.000000 0.000000 0.000000
0.000000 0.000000 0.000000
0.000000 0.000000 0.000000
0.000000 0.000000 0.000000
0.000000 0.000000 0.000000
0.000000 0.000000 0.000000
0.000000 0.000000 0.000000
0.000000 0.000000 0.000000
0.000000 0.000000 0.000000
0.000000 0.000000 0.000000
0.000000 0.000000 0.000000
0.000000 0.000000 0.000000
0.000000 0.000000 0.000000
0.000000 0.000000 0.000000
0.000000 0.000000 0.000000
0.000000 0.000000 0.000000
0.000000 0.000000 0.000000
0.000000 0.000000 0.000000
0.000000 0.000000 0.000000
0.000000 0.000000 0.000000
0.000000 0.000000 0.000000
0.000000 0.000000 0.000000
0.000000 0.000000 0.000000
0.000000 0.000000 0.000000
0.000000 0.000000 0.000000
0.000000 0.000000 0.000000
0.000000 0.000000 0.000000
0.000000 0.000000 0.000000
0.000000 0.000000 0.000000
0.000000 0.000000 0.000000
0.000000 0.000000 0.000000
0.000000 0.000000 0.000000
0.000000 0.000000 0.000000
0.000000 0.000000 0.000000
0.000000 0.000000 0.000000
0.000000 0.000000 0.000000
0.000000 0.000000 0.000000
0.000000 0.000000 0.000000
0.000000 0.000000 0.000000
0.000000 0.000000 0.000000
0.000000 0.000000 0.000000
0.000000 0.000000 0.000000
0.000000 0.000000 0.000000
0.000000 0.000000 0.000000
0.000000 0.000000 0.000000
0.000000 0.000000 0.000000
0.000000 0.000000 0.000000
0.000000 0.000000 0.000000
0.000000 0.000000 0.000000
0.000000 0.000000 0.000000
0.000000 0.000000 0.000000
0.000000 0.000000 0.000000
0.000000 0.000000 0.000000
0.000000 0.000000 0.000000
0.000000 0.000000 0.000000
0.000000 0.000000 0.000000
0.000000 0.000000 0.000000
0.000000 0.000000 0.000000
0.000000 0.000000 0.000000
0.000000 0.000000 0.000000
0.000000 0.000000 0.000000
0.000000 0.000000 0.000000
0.000000 0.000000 0.000000
0.000000 0.000000 0.000000
0.000000 0.000000 0.000000
0.000000 0.000000 0.000000
0.000000 0.000000 0.000000
0.000000 0.000000 0.000000
0.000000 0.000000 0.000000
0.000000 0.000000 0.000000
0.000000 0.000000 0.000000
0.000000 0.000000 0.000000
0.000000 0.000000 0.000000
0.000000 0.000000 0.000000
0.000000 0.000000 0.000000
0.000000 0.000000 0.000000
0.000000 0.000000 0.000000
0.000000 0.000000 0.000000
0.000000 0.000000 0.000000
0.000000 0.000000 0.000000
0.000000 0.000000 0.000000
0.000000 0.000000 0.000000
0.000000 0.000000 0.000000
0.000000 0.000000 0.000000
0.000000 0.000000 0.000000
0.000000 0.000000 0.000000
0.000000 0.000000 0.000000
0.000000 0.000000 0.000000
0.000000 0.000000 0.000000
0.000000 0.000000 0.000000
0.000000 0.000000 0.000000
0.000000 0.000000 0.000000
0.000000 0.000000 0.000000
0.000000 0.000000 0.000000
0.000000 0.000000 0.000000
0.000000 0.000000 0.000000
0.000000 0.000000 0.000000
0.000000 0.000000 0.000000
0.000000 0.000000 0.000000
0.000000 0.000000 0.000000
0.000000 0.000000 0.000000
0.000000 0.000000 0.000000
0.000000 0.000000 0.000000
0.000000 0.000000 0.000000
0.000000 0.000000 0.000000
0.000000 0.000000 0.000000
0.000000 0.000000 0.000000
0.000000 0.000000 0.000000
0.000000 0.000000 0.000000
0.000000 0.000000 0.000000
0.000000 0.000000 0.000000
0.000000 0.000000 0.000000
0.000000 0.000000 0.000000
0.000000 0.000000 0.000000
0.000000 0.000000 0.000000
0.000000 0.000000 0.000000
0.000000 0.000000 0.000000
0.000000 0.000000 0.000000
0.000000 0.000000 0.000000
0.000000 0.000000 0.000000
0.000000 0.000000 0.000000
0.000000 0.000000 0.000000
0.000000 0.000000 0.000000
0.000000 0.000000 0.000000
0.000000 0.000000 0.000000
0.000000 0.000000 0.000000
0.000000 0.000000 0.000000
0.000000 0.000000 0.000000
0.000000 0.000000 0.000000
0.000000 0.000000 0.000000
0.000000 0.000000 0.000000
0.000000 0.000000 0.000000
0.000000 0.000000 0.000000
0.000000 0.000000 0.000000
0.000000 0.000000 0.000000
0.000000 0.000000 0.000000
0.000000 0.000000 0.000000
0.000000 0.000000 0.000000
0.000000 0.000000 0.000000
0.000000 0.000000 0.000000
0.000000 0.000000 0.000000
0.000000 0.000000 0.000000
0.000000 0.000000 0.000000
0.000000 0.000000 0.000000
0.000000 0.000000 0.000000
0.000000 0.000000 0.000000
0.000000 0.000000 0.000000
0.000000 0.000000 0.000000
0.000000 0.000000 0.000000
0.000000 0.000000 0.000000
0.000000 0.000000 0.000000
0.000000 0.000000 0.000000
0.000000 0.000000 0.000000
0.000000 0.000000 0.000000
0.000000 0.000000 0.000000
0.000000 0.000000 0.000000
0.000000 0.000000 0.000000
0.000000 0.000000 0.000000
0.000000 0.000000 0.000000
0.000000 0.000000 0.000000
0.000000 0.000000 0.000000
0.000000 0.000000 0.000000
0.000000 0.000000 0.000000
0.000000 0.000000 0.000000
0.000000 0.000000 0.000000
0.000000 0.000000 0.000000
0.000000 0.000000 0.000000
0.000000 0.000000 0.000000
0.000000 0.000000 0.000000
0.000000 0.000000 0.000000
0.000000 0.000000 0.000000
0.000000 0.000000 0.000000
0.000000 0.000000 0.000000
0.000000 0.000000 0.000000
0.000000 0.000000 0.000000
0.000000 0.000000 0.000000
0.000000 0.000000 0.000000
0.000000 0.000000 0.000000
0.000000 0.000000 0.000000
0.000000 0.000000 0.000000
0.000000 0.000000 0.000000
0.000000 0.000000 0.000000
0.000000 0.000000 0.000000
0.000000 0.000000 0.000000
0.000000 0.000000 0.000000
0.000000 0.000000 0.000000
0.000000 0.000000 0.000000
0.000000 0.000000 0.000000
0.000000 0.000000 0.000000
0.000000 0.000000 0.000000
0.000000 0.000000 0.000000
0.000000 0.000000 0.000000
0.000000 0.000000 0.000000
0.000000 0.000000 0.000000
0.000000 0.000000 0.000000
0.000000 0.000000 0.000000
0.000000 0.000000 0.000000
0.000000 0.000000 0.000000
0.000000 0.000000 0.000000
0.000000 0.000000 0.000000
0.000000 0.000000 0.000000
0.000000 0.000000 0.000000
0.000000 0.000000 0.000000
0.000000 0.000000 0.000000
0.000000 0.000000 0.000000
0.000000 0.000000 0.000000
0.000000 0.000000 0.000000
0.000000 0.000000 0.000000
0.000000 0.000000 0.000000
0.000000 0.000000 0.000000
0.000000 0.000000 0.000000
0.000000 0.000000 0.000000
0.000000 0.000000 0.000000
0.000000 0.000000 0.000000
0.000000 0.000000 0.000000
0.000000 0.000000 0.000000
0.000000 0.000000 0.000000
0.000000 0.000000 0.000000
0.000000 0.000000 0.000000
0.000000 0.000000 0.000000
0.000000 0.000000 0.000000
0.000000 0.000000 0.000000
0.000000 0.000000 0.000000
0.000000 0.000000 0.000000
0.000000 0.000000 0.000000
0.000000 0.000000 0.000000
0.000000 0.000000 0.000000
0.000000 0.000000 0.000000
0.000000 0.000000 0.000000
0.000000 0.000000 0.000000
0.000000 0.000000 0.000000
0.000000 0.000000 0.000000
0.000000 0.000000 0.000000
0.000000 0.000000 0.000000
0.000000 0.000000 0.000000
0.000000 0.000000 0.000000
0.000000 0.000000 0.000000
0.000000 0.000000 0.000000
0.000000 0.000000 0.000000
0.000000 0.000000 0.000000
0.000000 0.000000 0.000000
0.000000 0.000000 0.000000
0.000000 0.000000 0.000000
0.000000 0.000000 0.000000
0.000000 0.000000 0.000000
0.000000 0.000000 0.000000
0.000000 0.000000 0.000000
0.000000 0.000000 0.000000
0.000000 0.000000 0.000000
0.000000 0.000000 0.000000
0.000000 0.000000 0.000000
0.000000 0.000000 0.000000
0.000000 0.000000 0.000000
0.000000 0.000000 0.000000
0.000000 0.000000 0.000000
0.000000 0.000000 0.000000
0.000000 0.000000 0.000000
0.000000 0.000000 0.000000
0.000000 0.000000 0.000000
0.000000 0.000000 0.000000
0.000000 0.000000 0.000000
0.000000 0.000000 0.000000
0.000000 0.000000 0.000000
0.000000 0.000000 0.000000
0.000000 0.000000 0.000000
0.000000 0.000000 0.000000
0.000000 0.000000 0.000000
0.000000 0.000000 0.000000
0.000000 0.000000 0.000000
0.000000 0.000000 0.000000
0.000000 0.000000 0.000000
0.000000 0.000000 0.000000
0.000000 0.000000 0.000000
0.000000 0.000000 0.000000
0.000000 0.000000 0.000000
0.000000 0.000000 0.000000
0.000000 0.000000 0.000000
0.000000 0.000000 0.000000
0.000000 0.000000 0.000000
0.000000 0.000000 -50.000000
-50.000000 0.000000 -50.000000
-43.332469 0.000000 -45.688568
-45.491295 0.000000 -43.332347
-50.000000 0.000000 -50.000000
-36.664885 0.000000 -36.664940
-50.000000 0.000000 -45.081315
-39.969888 0.000000 -40.027473
-44.152429 0.000000 -29.997466
-50.000000 0.000000 -50.000000
-29.997381 0.000000 -44.847280
-33.449000 0.000000 -33.145142
-44.675852 0.000000 -39.869371
-36.787101 0.000000 -35.128950
-39.801507 0.000000 -23.330334
-50.000000 0.000000 -26.539400
-44.666821 0.000000 -50.000000
-23.330266 0.000000 -44.665355
-26.804042 0.000000 -39.364421
-30.225798 0.000000 -29.606605
-39.359523 0.000000 -33.368574
-33.655631 0.000000 -50.000000
-16.663716 0.000000 -16.663844
-50.000000 0.000000 -9.998006
