# vtk DataFile Version 2.0
CellBP Time: 5.96
ASCII
DATASET UNSTRUCTURED_GRID
POINTS 320 double
-50.000000 -50.000000 0.000000
-50.000000 -43.332396 0.000000
-45.688594 -45.491317 0.000000
-43.332264 -50.000000 0.000000
-50.000000 -36.664735 0.000000
-36.664795 -50.000000 0.000000
-45.081343 -39.969903 0.000000
-40.027514 -44.152451 0.000000
-29.997253 -50.000000 0.000000
-50.000000 -29.997162 0.000000
-44.847308 -33.449013 0.000000
-33.145173 -44.675877 0.000000
-39.869405 -36.787117 0.000000
-35.128991 -39.801537 0.000000
-23.330083 -50.000000 0.000000
-26.539434 -44.666833 0.000000
-50.000000 -23.330009 0.000000
-44.665367 -26.804059 0.000000
-39.364447 -30.225816 0.000000
-29.606653 -39.359546 0.000000
-33.368622 -33.655659 0.000000
-50.000000 -16.663469 0.000000
-16.663608 -50.000000 0.000000
-9.997839 -50.000000 0.000000
-19.965217 -44.588721 0.000000
-23.216171 -39.114751 0.000000
-44.691831 -20.097044 0.000000
-39.367936 -23.528184 0.000000
-34.106370 -26.937112 0.000000
-26.384784 -33.577523 0.000000
-29.156577 -28.926847 0.000000
-50.000000 -9.997464 0.000000
-44.666310 -13.410293 0.000000
-50.000000 -3.332138 0.000000
-3.332649 -50.000000 0.000000
3.332398 -50.000000 0.000000
-13.343999 -44.598903 0.000000
-6.684931 -44.610512 0.000000
-16.693958 -39.153129 0.000000
-20.107165 -33.342632 0.000000
-39.338123 -16.804617 0.000000
-34.018997 -20.274514 0.000000
-28.781370 -23.449224 0.000000
-23.510800 -27.350933 0.000000
-44.635309 -6.705495 0.000000
-39.293116 -10.101691 0.000000
-50.000000 3.332837 0.000000
-44.626544 -0.015385 0.000000
9.997733 -50.000000 0.000000
16.663630 -50.000000 0.000000
-0.016168 -44.618606 0.000000
6.651772 -44.635351 0.000000
-10.044929 -39.222522 0.000000
-3.368289 -39.220219 0.000000
-13.484334 -33.798461 0.000000
-16.708956 -28.271595 0.000000
-33.947954 -13.513501 0.000000
-28.602651 -16.892030 0.000000
-23.292657 -20.313304 0.000000
-18.660981 -23.284458 0.000000
-39.267355 -3.392584 0.000000
-33.904495 -6.796688 0.000000
-50.000000 9.997939 0.000000
-44.606539 6.673786 0.000000
-39.260660 3.325842 0.000000
-50.000000 16.663663 0.000000
23.330104 -50.000000 0.000000
29.997161 -50.000000 0.000000
13.317759 -44.662927 0.000000
19.989910 -44.700093 0.000000
3.307643 -39.245101 0.000000
9.971886 -39.290367 0.000000
-6.735652 -33.791342 0.000000
-0.032157 -33.829441 0.000000
-10.096006 -28.292426 0.000000
-13.122686 -22.896172 0.000000
-28.531542 -10.214137 0.000000
-23.067812 -13.663727 0.000000
-16.979097 -17.212429 0.000000
-33.884221 -0.065446 0.000000
-28.562776 -3.580043 0.000000
-44.563967 13.380955 0.000000
-39.189873 10.015254 0.000000
-33.905465 6.616113 0.000000
-50.000000 23.329930 0.000000
-44.557354 20.138573 0.000000
-50.000000 29.997257 0.000000
36.664652 -50.000000 0.000000
43.332287 -50.000000 0.000000
26.663508 -44.745384 0.000000
33.315487 -44.876134 0.000000
16.631744 -39.357675 0.000000
23.328410 -39.437174 0.000000
6.642968 -33.879581 0.000000
13.290516 -33.965427 0.000000
-3.346330 -28.363690 0.000000
3.358284 -28.451187 0.000000
-6.626255 -22.844932 0.000000
-9.962673 -17.315326 0.000000
-23.180683 -7.014146 0.000000
-17.813816 -10.334866 0.000000
-12.838026 -12.607606 0.000000
-28.607318 3.088740 0.000000
-23.266568 -0.469734 0.000000
-39.038464 16.746394 0.000000
-28.720121 9.925865 0.000000
-33.760814 13.318039 0.000000
-44.521713 26.717326 0.000000
-38.467780 23.892768 0.000000
-44.632717 33.085982 0.000000
-50.000000 36.665137 0.000000
-50.000000 43.332529 0.000000
39.922543 -45.069759 0.000000
45.474909 -45.660643 0.000000
50.000000 -50.000000 0.000000
36.626926 -39.982100 0.000000
30.012555 -39.458732 0.000000
19.904211 -34.092971 0.000000
26.585134 -34.319640 0.000000
9.988475 -28.512732 0.000000
16.610558 -28.660431 0.000000
0.050547 -22.962992 0.000000
6.812093 -23.155303 0.000000
-3.397956 -17.296921 0.000000
-6.809212 -10.901972 0.000000
-17.874081 -3.814437 0.000000
-12.549055 -7.033761 0.000000
-23.308276 6.069844 0.000000
-18.034065 2.439794 0.000000
-23.123558 12.096272 0.000000
-33.572144 19.788965 0.000000
-27.941713 16.886329 0.000000
-33.293258 24.723047 0.000000
-39.474046 30.053337 0.000000
-35.160888 28.137851 0.000000
-39.816480 35.101800 0.000000
-43.991944 39.982683 0.000000
-45.431159 45.685463 0.000000
-50.000000 50.000000 0.000000
44.117436 -39.899277 0.000000
50.000000 -43.331945 0.000000
39.639625 -35.047602 0.000000
33.463023 -33.424702 0.000000
22.984999 -28.818198 0.000000
28.731085 -29.247957 0.000000
13.460797 -23.121824 0.000000
20.054937 -23.439755 0.000000
3.367703 -17.590349 0.000000
10.123181 -17.842996 0.000000
0.164346 -11.818527 0.000000
-2.129048 -6.173989 0.000000
-7.193304 -3.583730 0.000000
-12.466070 -0.807701 0.000000
-18.172544 8.573241 0.000000
-12.938459 5.196524 0.000000
-18.637951 13.751076 0.000000
-21.503745 17.494128 0.000000
-28.941086 23.159269 0.000000
-24.346432 21.554273 0.000000
-30.324005 28.635208 0.000000
-34.253855 33.375704 0.000000
-36.956141 39.578185 0.000000
-39.838768 45.102960 0.000000
-43.332240 50.000000 0.000000
44.585409 -32.972274 0.000000
50.000000 -36.664310 0.000000
39.129392 -29.582057 0.000000
33.500728 -26.367787 0.000000
27.183238 -23.322124 0.000000
23.067220 -18.647972 0.000000
16.992224 -16.982141 0.000000
6.699634 -12.194182 0.000000
12.370869 -12.736737 0.000000
-3.367289 -1.485678 0.000000
3.812440 -6.809653 0.000000
1.023584 -2.120777 0.000000
-6.878640 2.274962 0.000000
-8.270556 7.681131 0.000000
-12.841866 11.928377 0.000000
-15.690710 17.698997 0.000000
-19.287451 22.981443 0.000000
-24.171001 27.354419 0.000000
-27.286421 33.625814 0.000000
-30.406801 39.161044 0.000000
-33.447970 44.738887 0.000000
-36.664544 50.000000 0.000000
44.547756 -26.500145 0.000000
50.000000 -29.996735 0.000000
39.040013 -23.179365 0.000000
33.449551 -19.900003 0.000000
28.039681 -16.573420 0.000000
22.679973 -13.123704 0.000000
17.175772 -9.900910 0.000000
10.800828 -6.586587 0.000000
-1.358513 2.319111 0.000000
6.145961 -1.714077 0.000000
2.890183 1.593729 0.000000
-3.463448 7.012620 0.000000
-6.313558 12.429067 0.000000
-9.629341 17.710741 0.000000
-13.167936 23.114390 0.000000
-17.316911 28.185054 0.000000
-20.571035 33.474193 0.000000
-23.666140 39.063904 0.000000
-26.831249 44.585343 0.000000
-29.997226 50.000000 0.000000
44.528641 -19.930929 0.000000
50.000000 -23.329634 0.000000
39.036156 -16.594226 0.000000
33.575836 -13.281269 0.000000
28.149252 -9.965121 0.000000
22.724763 -6.604828 0.000000
17.264902 -3.335337 0.000000
11.827720 0.213799 0.000000
1.911125 6.212762 0.000000
6.835077 3.727168 0.000000
-0.224869 11.794779 0.000000
-3.250374 17.531311 0.000000
-6.699134 22.976516 0.000000
-10.567177 28.267216 0.000000
-13.724289 33.660969 0.000000
-16.945940 39.080140 0.000000
-20.140990 44.548345 0.000000
-23.330285 50.000000 0.000000
44.536146 -13.304059 0.000000
50.000000 -16.663222 0.000000
39.079769 -9.966891 0.000000
33.646564 -6.641418 0.000000
28.236644 -3.308082 0.000000
22.849606 0.017374 0.000000
17.537904 3.343400 0.000000
12.184645 6.583607 0.000000
6.665160 10.715302 0.000000
3.302271 17.199517 0.000000
-0.080718 22.854382 0.000000
-3.519081 28.313093 0.000000
-6.831731 33.774621 0.000000
-10.137780 39.170500 0.000000
-13.436192 44.563450 0.000000
-16.663930 50.000000 0.000000
44.554138 -6.654982 0.000000
50.000000 -9.997570 0.000000
39.123192 -3.321466 0.000000
33.713314 0.008787 0.000000
28.333322 3.345009 0.000000
22.999625 6.693898 0.000000
17.834370 10.019074 0.000000
12.658284 12.242299 0.000000
9.784779 17.233057 0.000000
6.479487 22.722447 0.000000
3.189335 28.270273 0.000000
-0.116060 33.734916 0.000000
-3.425354 39.168691 0.000000
-6.725774 44.581726 0.000000
-9.998108 50.000000 0.000000
44.575501 0.001792 0.000000
50.000000 -3.332513 0.000000
39.166881 3.331811 0.000000
33.779505 6.655629 0.000000
28.423902 9.994759 0.000000
23.046508 13.416195 0.000000
16.950765 17.024251 0.000000
12.901573 22.667480 0.000000
9.815394 28.231757 0.000000
6.604383 33.718810 0.000000
3.286531 39.164434 0.000000
-0.029974 44.584500 0.000000
-3.332710 50.000000 0.000000
44.586664 6.665635 0.000000
50.000000 3.332475 0.000000
39.198197 9.982022 0.000000
33.843512 13.276919 0.000000
28.542343 16.584362 0.000000
23.387646 20.084290 0.000000
18.531984 23.113375 0.000000
16.392632 28.298528 0.000000
13.329034 33.754754 0.000000
9.986700 39.181953 0.000000
6.666122 44.584245 0.000000
3.332551 50.000000 0.000000
44.608887 13.318246 0.000000
50.000000 9.997836 0.000000
39.251393 16.612590 0.000000
33.932037 19.862904 0.000000
28.612558 22.926007 0.000000
23.279684 27.207789 0.000000
19.901412 33.302885 0.000000
16.574064 39.040847 0.000000
13.268664 44.526647 0.000000
9.997894 50.000000 0.000000
44.632070 19.973347 0.000000
50.000000 16.663772 0.000000
39.298556 23.262345 0.000000
34.043946 26.514880 0.000000
28.965961 28.539509 0.000000
26.202567 33.410187 0.000000
23.066933 38.968806 0.000000
19.888927 44.507026 0.000000
16.663631 50.000000 0.000000
44.639886 26.643255 0.000000
50.000000 23.330251 0.000000
39.293499 29.966947 0.000000
33.212586 33.371445 0.000000
29.412391 39.045939 0.000000
26.422698 44.506008 0.000000
23.330032 50.000000 0.000000
44.775153 33.292049 0.000000
50.000000 29.997275 0.000000
39.738336 36.596490 0.000000
34.831279 39.525844 0.000000
32.834086 44.514467 0.000000
29.997042 50.000000 0.000000
44.978422 39.878068 0.000000
50.000000 36.664714 0.000000
39.735183 43.969240 0.000000
36.664511 50.000000 0.000000
45.621505 45.410032 0.000000
50.000000 43.332307 0.000000
43.332047 50.000000 0.000000
50.000000 50.000000 0.000000
CELLS 578 2312
3 1 0 2
3 0 3 2
3 4 1 6
3 6 1 2
3 3 5 7
3 3 7 2
3 6 2 7
3 9 4 10
3 10 4 6
3 5 8 11
3 7 5 11
3 10 6 12
3 12 6 7
3 7 11 13
3 7 13 12
3 8 14 15
3 11 8 15
3 16 9 17
3 17 9 10
3 17 10 18
3 18 10 12
3 11 15 19
3 13 11 19
3 18 12 20
3 13 19 20
3 20 12 13
3 14 22 24
3 15 14 24
3 15 24 25
3 19 15 25
3 21 16 26
3 26 16 17
3 26 17 27
3 27 17 18
3 27 18 28
3 28 18 20
3 19 25 29
3 19 29 20
3 28 20 30
3 30 20 29
3 31 21 32
3 32 21 26
3 22 23 36
3 24 22 36
3 23 34 37
3 36 23 37
3 24 36 38
3 25 24 38
3 25 38 39
3 29 25 39
3 32 26 40
3 40 26 27
3 40 27 41
3 41 27 28
3 41 28 42
3 42 28 30
3 29 39 43
3 29 43 30
3 42 30 43
3 33 31 44
3 44 31 32
3 44 32 45
3 45 32 40
3 46 33 47
3 47 33 44
3 34 35 50
3 37 34 50
3 35 48 51
3 50 35 51
3 36 37 52
3 38 36 52
3 37 50 53
3 52 37 53
3 38 52 54
3 39 38 54
3 39 54 55
3 43 39 55
3 45 40 56
3 56 40 41
3 56 41 57
3 57 41 42
3 57 42 58
3 58 42 43
3 43 55 59
3 43 59 58
3 47 44 60
3 60 44 45
3 60 45 61
3 61 45 56
3 62 46 63
3 63 46 47
3 63 47 64
3 64 47 60
3 48 49 68
3 51 48 68
3 49 66 69
3 68 49 69
3 50 51 70
3 53 50 70
3 51 68 71
3 70 51 71
3 52 53 72
3 54 52 72
3 53 70 73
3 72 53 73
3 54 72 74
3 55 54 74
3 55 74 75
3 59 55 75
3 61 56 76
3 76 56 57
3 76 57 77
3 77 57 58
3 77 58 78
3 59 75 78
3 78 58 59
3 64 60 79
3 79 60 61
3 79 61 80
3 80 61 76
3 65 62 81
3 81 62 63
3 81 63 82
3 82 63 64
3 82 64 83
3 83 64 79
3 84 65 85
3 85 65 81
3 66 67 89
3 69 66 89
3 67 87 90
3 89 67 90
3 68 69 91
3 71 68 91
3 69 89 92
3 91 69 92
3 70 71 93
3 73 70 93
3 71 91 94
3 93 71 94
3 72 73 95
3 74 72 95
3 73 93 96
3 95 73 96
3 74 95 97
3 75 74 97
3 75 97 98
3 78 75 98
3 80 76 99
3 99 76 77
3 99 77 100
3 100 77 78
3 100 78 101
3 98 101 78
3 83 79 102
3 102 79 80
3 102 80 103
3 103 80 99
3 85 81 104
3 104 81 82
3 105 83 102
3 104 82 106
3 106 82 83
3 106 83 105
3 86 84 107
3 107 84 85
3 107 85 108
3 108 85 104
3 109 86 107
3 110 86 109
3 87 88 112
3 90 87 112
3 112 88 113
3 88 114 113
3 90 112 115
3 89 90 116
3 92 89 116
3 116 90 115
3 91 92 117
3 94 91 117
3 92 116 118
3 117 92 118
3 93 94 119
3 96 93 119
3 94 117 120
3 119 94 120
3 95 96 121
3 97 95 121
3 96 119 122
3 121 96 122
3 97 121 123
3 98 97 123
3 98 123 124
3 98 124 101
3 103 99 125
3 125 99 100
3 125 100 126
3 126 100 101
3 126 101 124
3 105 102 127
3 127 102 103
3 127 103 128
3 128 103 125
3 129 105 127
3 108 104 130
3 130 104 106
3 130 106 131
3 131 106 105
3 131 105 129
3 108 130 132
3 109 107 133
3 133 107 108
3 133 108 134
3 108 132 134
3 135 109 133
3 111 110 136
3 136 110 109
3 136 109 135
3 137 111 136
3 138 111 137
3 112 113 139
3 115 112 139
3 114 140 113
3 140 139 113
3 139 141 115
3 116 115 142
3 118 116 142
3 142 115 141
3 117 118 143
3 120 117 143
3 118 142 144
3 143 118 144
3 119 120 145
3 122 119 145
3 120 143 146
3 145 120 146
3 121 122 147
3 123 121 147
3 122 145 148
3 147 122 148
3 123 147 149
3 124 123 149
3 124 149 150
3 151 126 124
3 124 150 151
3 128 125 152
3 152 125 126
3 152 126 151
3 129 127 153
3 153 127 128
3 128 152 154
3 153 128 154
3 155 129 153
3 131 129 156
3 156 129 155
3 132 130 157
3 130 131 157
3 157 131 158
3 131 156 158
3 132 157 159
3 132 159 134
3 135 133 160
3 160 133 134
3 160 134 159
3 136 135 161
3 135 160 161
3 162 137 136
3 161 162 136
3 163 138 137
3 162 163 137
3 139 164 141
3 140 165 139
3 139 165 164
3 141 164 166
3 141 166 142
3 166 167 142
3 144 142 167
3 167 168 144
3 143 144 168
3 146 143 168
3 168 169 146
3 145 146 170
3 148 145 170
3 170 146 169
3 147 148 171
3 149 147 171
3 148 170 172
3 171 148 172
3 173 151 150
3 149 171 174
3 150 149 174
3 150 174 175
3 150 175 173
3 154 152 176
3 152 151 176
3 176 151 173
3 154 176 177
3 155 153 178
3 177 178 154
3 154 178 153
3 156 155 179
3 155 178 179
3 180 158 156
3 179 180 156
3 181 159 157
3 180 181 158
3 181 157 158
3 182 160 159
3 181 182 159
3 183 161 160
3 182 183 160
3 184 162 161
3 184 161 183
3 185 163 162
3 184 185 162
3 164 186 166
3 165 187 164
3 164 187 186
3 166 186 188
3 166 188 167
3 167 188 189
3 167 189 168
3 168 189 190
3 168 190 169
3 169 190 191
3 169 191 170
3 192 172 170
3 170 191 192
3 192 193 172
3 171 172 193
3 174 171 193
3 194 173 175
3 176 173 194
3 175 174 195
3 193 195 174
3 195 196 175
3 175 196 194
3 197 177 176
3 194 197 176
3 198 178 177
3 197 198 177
3 199 179 178
3 198 199 178
3 200 180 179
3 199 200 179
3 201 181 180
3 200 201 180
3 202 182 181
3 201 202 181
3 203 183 182
3 202 203 182
3 204 184 183
3 203 204 183
3 205 185 184
3 204 205 184
3 186 206 188
3 187 207 186
3 186 207 206
3 188 206 208
3 188 208 189
3 189 208 209
3 189 209 190
3 190 209 210
3 190 210 191
3 191 210 211
3 191 211 192
3 192 211 212
3 192 212 193
3 193 212 213
3 193 213 195
3 214 197 194
3 214 194 196
3 195 213 215
3 195 215 196
3 196 215 214
3 216 198 197
3 214 216 197
3 217 199 198
3 216 217 198
3 218 200 199
3 217 218 199
3 219 201 200
3 218 219 200
3 220 202 201
3 219 220 201
3 221 203 202
3 220 221 202
3 222 204 203
3 221 222 203
3 223 205 204
3 222 223 204
3 206 224 208
3 207 225 206
3 206 225 224
3 208 224 226
3 208 226 209
3 209 226 227
3 209 227 210
3 210 227 228
3 210 228 211
3 211 228 229
3 211 229 212
3 212 229 230
3 212 230 213
3 213 230 231
3 213 231 215
3 232 216 214
3 215 231 232
3 232 214 215
3 233 217 216
3 232 233 216
3 234 218 217
3 233 234 217
3 235 219 218
3 234 235 218
3 236 220 219
3 235 236 219
3 237 221 220
3 236 237 220
3 238 222 221
3 237 238 221
3 239 223 222
3 238 239 222
3 224 240 226
3 225 241 224
3 224 241 240
3 226 240 242
3 226 242 227
3 227 242 243
3 227 243 228
3 228 243 244
3 228 244 229
3 244 245 229
3 229 245 230
3 230 245 246
3 230 246 231
3 231 246 247
3 231 247 232
3 248 233 232
3 248 232 247
3 249 234 233
3 248 249 233
3 250 235 234
3 249 250 234
3 251 236 235
3 250 251 235
3 252 237 236
3 251 252 236
3 253 238 237
3 252 253 237
3 254 239 238
3 253 254 238
3 240 255 242
3 241 256 240
3 240 256 255
3 242 255 257
3 242 257 243
3 243 257 258
3 243 258 244
3 244 258 259
3 244 259 245
3 245 259 260
3 245 260 246
3 246 260 261
3 246 261 247
3 248 247 261
3 262 249 248
3 261 262 248
3 263 250 249
3 262 263 249
3 264 251 250
3 263 264 250
3 265 252 251
3 264 265 251
3 266 253 252
3 265 266 252
3 267 254 253
3 266 267 253
3 255 268 257
3 256 269 255
3 255 269 268
3 257 268 270
3 257 270 258
3 258 270 271
3 258 271 259
3 259 271 272
3 259 272 260
3 260 272 273
3 260 273 261
3 274 262 261
3 261 273 274
3 275 263 262
3 274 275 262
3 276 264 263
3 275 276 263
3 277 265 264
3 276 277 264
3 278 266 265
3 277 278 265
3 279 267 266
3 278 279 266
3 268 280 270
3 269 281 268
3 268 281 280
3 270 280 282
3 270 282 271
3 271 282 283
3 271 283 272
3 283 284 272
3 272 284 273
3 285 275 274
3 273 284 285
3 285 274 273
3 286 276 275
3 285 286 275
3 287 277 276
3 286 287 276
3 288 278 277
3 287 288 277
3 289 279 278
3 288 289 278
3 280 290 282
3 281 291 280
3 280 291 290
3 282 290 292
3 282 292 283
3 283 292 293
3 283 293 284
3 284 293 294
3 284 294 285
3 295 286 285
3 295 285 294
3 296 287 286
3 295 296 286
3 297 288 287
3 296 297 287
3 298 289 288
3 297 298 288
3 290 299 292
3 291 300 290
3 290 300 299
3 292 299 301
3 292 301 293
3 293 301 302
3 293 302 294
3 294 302 295
3 303 296 295
3 303 295 302
3 304 297 296
3 303 304 296
3 305 298 297
3 304 305 297
3 299 306 301
3 300 307 299
3 299 307 306
3 301 306 308
3 301 308 302
3 309 303 302
3 302 308 309
3 310 304 303
3 309 310 303
3 311 305 304
3 310 311 304
3 306 312 308
3 307 313 306
3 306 313 312
3 314 310 309
3 308 312 314
3 314 309 308
3 315 311 310
3 314 315 310
3 312 316 314
3 313 317 312
3 312 317 316
3 318 315 314
3 318 314 316
3 317 319 316
3 319 318 316
CELL_TYPES 578
5
5
5
5
5
5
5
5
5
5
5
5
5
5
5
5
5
5
5
5
5
5
5
5
5
5
5
5
5
5
5
5
5
5
5
5
5
5
5
5
5
5
5
5
5
5
5
5
5
5
5
5
5
5
5
5
5
5
5
5
5
5
5
5
5
5
5
5
5
5
5
5
5
5
5
5
5
5
5
5
5
5
5
5
5
5
5
5
5
5
5
5
5
5
5
5
5
5
5
5
5
5
5
5
5
5
5
5
5
5
5
5
5
5
5
5
5
5
5
5
5
5
5
5
5
5
5
5
5
5
5
5
5
5
5
5
5
5
5
5
5
5
5
5
5
5
5
5
5
5
5
5
5
5
5
5
5
5
5
5
5
5
5
5
5
5
5
5
5
5
5
5
5
5
5
5
5
5
5
5
5
5
5
5
5
5
5
5
5
5
5
5
5
5
5
5
5
5
5
5
5
5
5
5
5
5
5
5
5
5
5
5
5
5
5
5
5
5
5
5
5
5
5
5
5
5
5
5
5
5
5
5
5
5
5
5
5
5
5
5
5
5
5
5
5
5
5
5
5
5
5
5
5
5
5
5
5
5
5
5
5
5
5
5
5
5
5
5
5
5
5
5
5
5
5
5
5
5
5
5
5
5
5
5
5
5
5
5
5
5
5
5
5
5
5
5
5
5
5
5
5
5
5
5
5
5
5
5
5
5
5
5
5
5
5
5
5
5
5
5
5
5
5
5
5
5
5
5
5
5
5
5
5
5
5
5
5
5
5
5
5
5
5
5
5
5
5
5
5
5
5
5
5
5
5
5
5
5
5
5
5
5
5
5
5
5
5
5
5
5
5
5
5
5
5
5
5
5
5
5
5
5
5
5
5
5
5
5
5
5
5
5
5
5
5
5
5
5
5
5
5
5
5
5
5
5
5
5
5
5
5
5
5
5
5
5
5
5
5
5
5
5
5
5
5
5
5
5
5
5
5
5
5
5
5
5
5
5
5
5
5
5
5
5
5
5
5
5
5
5
5
5
5
5
5
5
5
5
5
5
5
5
5
5
5
5
5
5
5
5
5
5
5
5
5
5
5
5
5
5
5
5
5
5
5
5
5
5
5
5
5
5
5
5
5
5
5
5
5
5
5
5
5
5
5
5
5
5
5
5
5
5
5
5
5
5
5
5
5
5
5
5
5
5
5
5
5
5
5
5
5
5
5
5
5
5
5
5
5
5
5
5
5
5
5
5
5
5
5
5
5
5
5
5
5
5
5
5
5
5
5
5
5
5
5
5
5
5
5
5
5
5
5
5
5
5
5
5
POINT_DATA 320
SCALARS theta_e float 1
LOOKUP_TABLE default
1.000000
1.000000
1.000000
1.000000
1.000000
1.000000
1.000000
1.000000
1.000000
1.000000
1.000000
1.000000
1.000000
1.000000
1.000000
1.000000
1.000000
1.000000
1.000000
1.000000
1.000000
1.000000
1.000000
1.000000
1.000000
1.000000
1.000000
1.000000
1.000000
1.000000
1.000000
1.000000
1.000000
1.000000
1.000000
1.000000
1.000000
1.000000
1.000000
1.000000
1.000000
1.000000
1.000000
1.000000
1.000000
1.000000
1.000000
1.000000
1.000000
1.000000
1.000000
1.000000
1.000000
1.000000
1.000000
1.000000
1.000000
1.000001
1.000001
1.000000
1.000000
1.000001
1.000000
1.000000
1.000000
1.000000
1.000000
1.000000
1.000000
1.000000
1.000000
1.000000
1.000000
1.000000
1.000000
1.000000
1.000001
1.000001
1.000000
1.000001
1.000001
1.000000
1.000000
1.000001
1.000000
1.000000
1.000000
1.000000
1.000000
1.000000
1.000000
1.000000
1.000000
1.000000
1.000000
1.000000
1.000000
1.000000
1.000000
1.000001
1.000000
1.000000
1.000001
1.000000
1.000000
1.000001
1.000000
1.000000
1.000000
1.000000
1.000000
1.000000
1.000000
1.000000
1.000000
1.000000
1.000000
1.000000
1.000000
1.000000
1.000000
1.000000
1.000000
1.000000
0.999997
1.000000
0.999999
1.000000
1.000000
1.000000
1.000000
1.000000
1.000000
1.000000
1.000000
1.000000
1.000000
1.000000
1.000000
1.000000
1.000000
1.000000
1.000000
1.000000
1.000000
1.000000
1.000000
1.000000
1.000000
0.999997
0.999990
0.999993
0.999998
1.000000
0.999999
1.000000
1.000000
1.000000
1.000000
1.000000
1.000000
1.000000
1.000000
1.000000
1.000000
1.000000
1.000000
1.000000
1.000000
1.000000
1.000000
0.999999
1.000000
0.999986
0.999992
0.999986
0.999992
0.999998
1.000000
1.000000
1.000000
1.000000
1.000000
1.000000
1.000000
1.000000
1.000000
1.000000
1.000000
1.000000
1.000000
1.000000
1.000001
0.999997
0.999987
0.999989
0.999986
0.999992
0.999999
1.000000
1.000000
1.000000
1.000000
1.000000
1.000000
1.000000
1.000000
1.000000
1.000000
1.000000
1.000000
1.000001
1.000001
0.999997
0.999990
0.999992
0.999997
1.000000
1.000000
1.000000
1.000000
1.000000
1.000000
1.000000
1.000000
1.000000
1.000000
1.000000
1.000000
1.000000
1.000001
0.999999
0.999998
1.000000
1.000000
1.000000
1.000000
1.000000
1.000000
1.000000
1.000000
1.000000
1.000000
1.000000
1.000000
1.000000
1.000000
1.000000
1.000001
1.000000
1.000000
1.000000
1.000000
1.000000
1.000000
1.000000
1.000000
1.000000
1.000000
1.000000
1.000000
1.000000
1.000000
1.000000
1.000000
1.000000
1.000000
1.000000
1.000000
1.000000
1.000000
1.000000
1.000000
1.000000
1.000000
1.000000
1.000000
1.000000
1.000000
1.000000
1.000000
1.000000
1.000000
1.000000
1.000000
1.000000
1.000000
1.000000
1.000000
1.000000
1.000000
1.000000
1.000000
1.000000
1.000000
1.000000
1.000000
1.000000
1.000000
1.000000
1.000000
1.000000
1.000000
1.000000
1.000000
1.000000
1.000000
1.000000
1.000000
1.000000
1.000000
1.000000
1.000000
1.000000
1.000000
1.000000
1.000000
1.000000
1.000000
1.000000
VECTORS fa_u float
0.000000 0.000000 0.000000
0.000000 0.000000 0.000000
0.000000 0.000000 0.000000
0.000000 0.000000 0.000000
0.000000 0.000000 0.000000
0.000000 0.000000 0.000000
0.000000 0.000000 0.000000
0.000000 0.000000 0.000000
0.000000 0.000000 0.000000
0.000000 0.000000 0.000000
0.000000 0.000000 0.000000
0.000000 0.000000 0.000000
0.000000 0.000000 0.000000
0.000000 0.000000 0.000000
0.000000 0.000000 0.000000
0.000000 0.000000 0.000000
0.000000 0.000000 0.000000
0.000000 0.000000 0.000000
0.000000 0.000000 0.000000
0.000000 0.000000 0.000000
0.000000 0.000000 0.000000
0.000000 0.000000 0.000000
0.000000 0.000000 0.000000
0.000000 0.000000 0.000000
0.000000 0.000000 0.000000
0.000000 0.000000 0.000000
0.000000 0.000000 0.000000
0.000000 0.000000 0.000000
0.000000 0.000000 0.000000
0.000000 0.000000 0.000000
0.000000 0.000000 0.000000
0.000000 0.000000 0.000000
0.000000 0.000000 0.000000
0.000000 0.000000 0.000000
0.000000 0.000000 0.000000
0.000000 0.000000 0.000000
0.000000 0.000000 0.000000
0.000000 0.000000 0.000000
0.000000 0.000000 0.000000
0.000000 0.000000 0.000000
0.000000 0.000000 0.000000
0.000000 0.000000 0.000000
0.000000 0.000000 0.000000
0.000000 0.000000 0.000000
0.000000 0.000000 0.000000
0.000000 0.000000 0.000000
0.000000 0.000000 0.000000
0.000000 0.000000 0.000000
0.000000 0.000000 0.000000
0.000000 0.000000 0.000000
0.000000 0.000000 0.000000
0.000000 0.000000 0.000000
0.000000 0.000000 0.000000
0.000000 0.000000 0.000000
0.000000 0.000000 0.000000
0.000000 0.000000 0.000000
0.000000 0.000000 0.000000
0.000000 0.000000 0.000000
0.000000 0.000000 0.000000
0.000000 0.000000 0.000000
0.000000 0.000000 0.000000
0.000000 0.000000 0.000000
0.000000 0.000000 0.000000
0.000000 0.000000 0.000000
0.000000 0.000000 0.000000
0.000000 0.000000 0.000000
0.000000 0.000000 0.000000
0.000000 0.000000 0.000000
0.000000 0.000000 0.000000
0.000000 0.000000 0.000000
0.000000 0.000000 0.000000
0.000000 0.000000 0.000000
0.000000 0.000000 0.000000
0.000000 0.000000 0.000000
0.000000 0.000000 0.000000
0.000000 0.000000 0.000000
0.000000 0.000000 0.000000
0.000000 0.000000 0.000000
0.000000 0.000000 0.000000
0.000000 0.000000 0.000000
0.000000 0.000000 0.000000
0.000000 0.000000 0.000000
0.000000 0.000000 0.000000
0.000000 0.000000 0.000000
0.000000 0.000000 0.000000
0.000000 0.000000 0.000000
0.000000 0.000000 0.000000
0.000000 0.000000 0.000000
0.000000 0.000000 0.000000
0.000000 0.000000 0.000000
0.000000 0.000000 0.000000
0.000000 0.000000 0.000000
0.000000 0.000000 0.000000
0.000000 0.000000 0.000000
0.000000 0.000000 0.000000
0.000000 0.000000 0.000000
0.000000 0.000000 0.000000
0.000000 0.000000 0.000000
0.000000 0.000000 0.000000
0.000000 0.000000 0.000000
0.000000 0.000000 0.000000
0.000000 0.000000 0.000000
0.000000 0.000000 0.000000
0.000000 0.000000 0.000000
0.000000 0.000000 0.000000
0.000000 0.000000 0.000000
0.000000 0.000000 0.000000
0.000000 0.000000 0.000000
0.000000 0.000000 0.000000
0.000000 0.000000 0.000000
0.000000 0.000000 0.000000
0.000000 0.000000 0.000000
0.000000 0.000000 0.000000
0.000000 0.000000 0.000000
0.000000 0.000000 0.000000
0.000000 0.000000 0.000000
0.000000 0.000000 0.000000
0.000000 0.000000 0.000000
0.000000 0.000000 0.000000
0.000000 0.000000 0.000000
0.000000 0.000000 0.000000
0.000000 0.000000 0.000000
0.000000 0.000000 0.000000
0.000000 0.000000 0.000000
0.000000 0.000000 0.000000
0.000000 0.000000 0.000000
0.000000 0.000000 0.000000
0.000000 0.000000 0.000000
0.000000 0.000000 0.000000
0.000000 0.000000 0.000000
0.000000 0.000000 0.000000
0.000000 0.000000 0.000000
0.000000 0.000000 0.000000
0.000000 0.000000 0.000000
0.000000 0.000000 0.000000
0.000000 0.000000 0.000000
0.000000 0.000000 0.000000
0.000000 0.000000 0.000000
0.000000 0.000000 0.000000
0.000000 0.000000 0.000000
0.000000 0.000000 0.000000
0.000000 0.000000 0.000000
0.000000 0.000000 0.000000
0.000000 0.000000 0.000000
0.000000 0.000000 0.000000
0.000000 0.000000 0.000000
0.000000 0.000000 0.000000
0.000000 0.000000 0.000000
0.000000 0.000000 0.000000
0.000000 0.000000 0.000000
0.000000 0.000000 0.000000
0.000000 0.000000 0.000000
0.000000 0.000000 0.000000
0.000000 0.000000 0.000000
0.000000 0.000000 0.000000
0.000000 0.000000 0.000000
0.000000 0.000000 0.000000
0.000000 0.000000 0.000000
0.000000 0.000000 0.000000
0.000000 0.000000 0.000000
0.000000 0.000000 0.000000
0.000000 0.000000 0.000000
0.000000 0.000000 0.000000
0.000000 0.000000 0.000000
0.000000 0.000000 0.000000
0.000000 0.000000 0.000000
0.000000 0.000000 0.000000
0.000000 0.000000 0.000000
0.000000 0.000000 0.000000
0.000000 0.000000 0.000000
0.000000 0.000000 0.000000
0.000000 0.000000 0.000000
0.000000 0.000000 0.000000
0.000000 0.000000 0.000000
0.000000 0.000000 0.000000
0.000000 0.000000 0.000000
0.000000 0.000000 0.000000
0.000000 0.000000 0.000000
0.000000 0.000000 0.000000
0.000000 0.000000 0.000000
0.000000 0.000000 0.000000
0.000000 0.000000 0.000000
0.000000 0.000000 0.000000
0.000000 0.000000 0.000000
0.000000 0.000000 0.000000
0.000000 0.000000 0.000000
0.000000 0.000000 0.000000
0.000000 0.000000 0.000000
0.000000 0.000000 0.000000
0.000000 0.000000 0.000000
0.000000 0.000000 0.000000
0.000000 0.000000 0.000000
0.000000 0.000000 0.000000
0.000000 0.000000 0.000000
0.000000 0.000000 0.000000
0.000000 0.000000 0.000000
0.000000 0.000000 0.000000
0.000000 0.000000 0.000000
0.000000 0.000000 0.000000
0.000000 0.000000 0.000000
0.000000 0.000000 0.000000
0.000000 0.000000 0.000000
0.000000 0.000000 0.000000
0.000000 0.000000 0.000000
0.000000 0.000000 0.000000
0.000000 0.000000 0.000000
0.000000 0.000000 0.000000
0.000000 0.000000 0.000000
0.000000 0.000000 0.000000
0.000000 0.000000 0.000000
0.000000 0.000000 0.000000
0.000000 0.000000 0.000000
0.000000 0.000000 0.000000
0.000000 0.000000 0.000000
0.000000 0.000000 0.000000
0.000000 0.000000 0.000000
0.000000 0.000000 0.000000
0.000000 0.000000 0.000000
0.000000 0.000000 0.000000
0.000000 0.000000 0.000000
0.000000 0.000000 0.000000
0.000000 0.000000 0.000000
0.000000 0.000000 0.000000
0.000000 0.000000 0.000000
0.000000 0.000000 0.000000
0.000000 0.000000 0.000000
0.000000 0.000000 0.000000
0.000000 0.000000 0.000000
0.000000 0.000000 0.000000
0.000000 0.000000 0.000000
0.000000 0.000000 0.000000
0.000000 0.000000 0.000000
0.000000 0.000000 0.000000
0.000000 0.000000 0.000000
0.000000 0.000000 0.000000
0.000000 0.000000 0.000000
0.000000 0.000000 0.000000
0.000000 0.000000 0.000000
0.000000 0.000000 0.000000
0.000000 0.000000 0.000000
0.000000 0.000000 0.000000
0.000000 0.000000 0.000000
0.000000 0.000000 0.000000
0.000000 0.000000 0.000000
0.000000 0.000000 0.000000
0.000000 0.000000 0.000000
0.000000 0.000000 0.000000
0.000000 0.000000 0.000000
0.000000 0.000000 0.000000
0.000000 0.000000 0.000000
0.000000 0.000000 0.000000
0.000000 0.000000 0.000000
0.000000 0.000000 0.000000
0.000000 0.000000 0.000000
0.000000 0.000000 0.000000
0.000000 0.000000 0.000000
0.000000 0.000000 0.000000
0.000000 0.000000 0.000000
0.000000 0.000000 0.000000
0.000000 0.000000 0.000000
0.000000 0.000000 0.000000
0.000000 0.000000 0.000000
0.000000 0.000000 0.000000
0.000000 0.000000 0.000000
0.000000 0.000000 0.000000
0.000000 0.000000 0.000000
0.000000 0.000000 0.000000
0.000000 0.000000 0.000000
0.000000 0.000000 0.000000
0.000000 0.000000 0.000000
0.000000 0.000000 0.000000
0.000000 0.000000 0.000000
0.000000 0.000000 0.000000
0.000000 0.000000 0.000000
0.000000 0.000000 0.000000
0.000000 0.000000 0.000000
0.000000 0.000000 0.000000
0.000000 0.000000 0.000000
0.000000 0.000000 0.000000
0.000000 0.000000 0.000000
0.000000 0.000000 0.000000
0.000000 0.000000 0.000000
0.000000 0.000000 0.000000
0.000000 0.000000 0.000000
0.000000 0.000000 0.000000
0.000000 0.000000 0.000000
0.000000 0.000000 0.000000
0.000000 0.000000 0.000000
0.000000 0.000000 0.000000
0.000000 0.000000 0.000000
0.000000 0.000000 0.000000
0.000000 0.000000 0.000000
0.000000 0.000000 0.000000
0.000000 0.000000 0.000000
0.000000 0.000000 0.000000
0.000000 0.000000 0.000000
0.000000 0.000000 -50.000000
-50.000000 0.000000 -50.000000
-43.332396 0.000000 -45.688594
-45.491317 0.000000 -43.332264
-50.000000 0.000000 -50.000000
-36.664735 0.000000 -36.664795
-50.000000 0.000000 -45.081343
-39.969903 0.000000 -40.027514
-44.152451 0.000000 -29.997253
-50.000000 0.000000 -50.000000
-29.997162 0.000000 -44.847308
-33.449013 0.000000 -33.145173
-44.675877 0.000000 -39.869405
-36.787117 0.000000 -35.128991
-39.801537 0.000000 -23.330083
-50.000000 0.000000 -26.539434
-44.666833 0.000000 -50.000000
-23.330009 0.000000 -44.665367
-26.804059 0.000000 -39.364447
-30.225816 0.000000 -29.606653
-39.359546 0.000000 -33.368622
-33.655659 0.000000 -50.000000
-16.663469 0.000000 -16.663608
-50.000000 0.000000 -9.997839
