# vtk DataFile Version 2.0
CellBP Time: 8.48
ASCII
DATASET UNSTRUCTURED_GRID
POINTS 320 double
-50.000000 -50.000000 0.000000
-50.000000 -43.332214 0.000000
-45.688660 -45.491369 0.000000
-43.332062 -50.000000 0.000000
-50.000000 -36.664361 0.000000
-36.664444 -50.000000 0.000000
-45.081414 -39.969939 0.000000
-40.027618 -44.152505 0.000000
-29.996743 -50.000000 0.000000
-50.000000 -29.996615 0.000000
-44.847376 -33.449043 0.000000
-33.145260 -44.675935 0.000000
-39.869494 -36.787155 0.000000
-35.129100 -39.801607 0.000000
-23.329489 -50.000000 0.000000
-26.539531 -44.666858 0.000000
-50.000000 -23.329375 0.000000
-44.665394 -26.804103 0.000000
-39.364510 -30.225858 0.000000
-29.606777 -39.359599 0.000000
-33.368744 -33.655721 0.000000
-50.000000 -16.662868 0.000000
-16.663060 -50.000000 0.000000
-9.997465 -50.000000 0.000000
-19.965332 -44.588705 0.000000
-23.216270 -39.114765 0.000000
-44.691812 -20.097089 0.000000
-39.367959 -23.528197 0.000000
-34.106442 -26.937139 0.000000
-26.384906 -33.577598 0.000000
-29.156696 -28.926909 0.000000
-50.000000 -9.996998 0.000000
-44.666294 -13.410334 0.000000
-50.000000 -3.331930 0.000000
-3.332551 -50.000000 0.000000
3.332202 -50.000000 0.000000
-13.344124 -44.598863 0.000000
-6.685016 -44.610456 0.000000
-16.694056 -39.153078 0.000000
-20.107239 -33.342609 0.000000
-39.338104 -16.804578 0.000000
-34.019080 -20.274467 0.000000
-28.781499 -23.449267 0.000000
-23.510898 -27.351110 0.000000
-44.635263 -6.705484 0.000000
-39.293123 -10.101661 0.000000
-50.000000 3.332725 0.000000
-44.626479 -0.015325 0.000000
9.997302 -50.000000 0.000000
16.663070 -50.000000 0.000000
-0.016208 -44.618559 0.000000
6.651795 -44.635325 0.000000
-10.045022 -39.222499 0.000000
-3.368336 -39.220172 0.000000
-13.484387 -33.798378 0.000000
-16.708814 -28.271603 0.000000
-33.947913 -13.513344 0.000000
-28.602879 -16.891922 0.000000
-23.292950 -20.313369 0.000000
-18.661165 -23.284846 0.000000
-39.267301 -3.392525 0.000000
-33.904471 -6.796682 0.000000
-50.000000 9.997537 0.000000
-44.606470 6.673887 0.000000
-39.260580 3.325880 0.000000
-50.000000 16.663093 0.000000
23.329516 -50.000000 0.000000
29.996650 -50.000000 0.000000
13.317837 -44.662919 0.000000
19.989999 -44.700091 0.000000
3.307610 -39.245095 0.000000
9.971892 -39.290393 0.000000
-6.735785 -33.791336 0.000000
-0.032157 -33.829406 0.000000
-10.096079 -28.292162 0.000000
-13.122703 -22.895614 0.000000
-28.531254 -10.213927 0.000000
-23.068054 -13.663814 0.000000
-16.979527 -17.213116 0.000000
-33.884080 -0.065467 0.000000
-28.562654 -3.580356 0.000000
-44.563922 13.381092 0.000000
-39.189814 10.015303 0.000000
-33.905386 6.616120 0.000000
-50.000000 23.329292 0.000000
-44.557275 20.138684 0.000000
-50.000000 29.996747 0.000000
36.664291 -50.000000 0.000000
43.332100 -50.000000 0.000000
26.663593 -44.745411 0.000000
33.315550 -44.876186 0.000000
16.631759 -39.357679 0.000000
23.328457 -39.437207 0.000000
6.642979 -33.879618 0.000000
13.290441 -33.965436 0.000000
-3.346557 -28.363883 0.000000
3.358522 -28.451192 0.000000
-6.626425 -22.844653 0.000000
-9.961033 -17.315301 0.000000
-23.179626 -7.014013 0.000000
-17.814419 -10.334857 0.000000
-12.837999 -12.611267 0.000000
-28.607270 3.088760 0.000000
-23.266951 -0.470147 0.000000
-39.038342 16.746372 0.000000
-28.719873 9.925719 0.000000
-33.760630 13.317935 0.000000
-44.521723 26.717444 0.000000
-38.467797 23.892835 0.000000
-44.632840 33.086106 0.000000
-50.000000 36.664856 0.000000
-50.000000 43.332382 0.000000
39.922597 -45.069811 0.000000
45.474975 -45.660700 0.000000
50.000000 -50.000000 0.000000
36.626973 -39.982146 0.000000
30.012620 -39.458775 0.000000
19.904211 -34.093039 0.000000
26.585169 -34.319696 0.000000
9.988373 -28.512583 0.000000
16.610461 -28.660592 0.000000
0.050123 -22.963873 0.000000
6.812021 -23.154690 0.000000
-3.397552 -17.296944 0.000000
-6.797065 -10.875917 0.000000
-17.873080 -3.811542 0.000000
-12.547964 -7.033206 0.000000
-23.307810 6.069016 0.000000
-18.033386 2.436415 0.000000
-23.123938 12.096406 0.000000
-33.572168 19.788970 0.000000
-27.941830 16.886539 0.000000
-33.293387 24.723145 0.000000
-39.474197 30.053494 0.000000
-35.161065 28.137955 0.000000
-39.816634 35.101918 0.000000
-43.992025 39.982822 0.000000
-45.431203 45.685551 0.000000
-50.000000 50.000000 0.000000
44.117495 -39.899359 0.000000
50.000000 -43.331698 0.000000
39.639689 -35.047664 0.000000
33.463069 -33.424756 0.000000
22.985039 -28.818288 0.000000
28.731125 -29.248016 0.000000
13.460813 -23.121897 0.000000
20.054976 -23.440000 0.000000
3.363165 -17.591224 0.000000
10.122302 -17.843757 0.000000
0.168889 -11.779236 0.000000
-2.123356 -6.154951 0.000000
-7.148224 -3.557946 0.000000
-12.432534 -0.808485 0.000000
-18.174777 8.573207 0.000000
-12.933150 5.196531 0.000000
-18.637743 13.750848 0.000000
-21.503575 17.493920 0.000000
-28.941200 23.159486 0.000000
-24.346503 21.554177 0.000000
-30.324156 28.635321 0.000000
-34.253989 33.375756 0.000000
-36.956213 39.578221 0.000000
-39.838801 45.103021 0.000000
-43.332043 50.000000 0.000000
44.585463 -32.972339 0.000000
50.000000 -36.663890 0.000000
39.129424 -29.582127 0.000000
33.500778 -26.367832 0.000000
27.183367 -23.322138 0.000000
23.067563 -18.648035 0.000000
16.992878 -16.982722 0.000000
6.697168 -12.190023 0.000000
12.374877 -12.737712 0.000000
-3.363057 -1.483736 0.000000
3.786561 -6.764973 0.000000
1.023801 -2.120663 0.000000
-6.850424 2.264053 0.000000
-8.236404 7.650471 0.000000
-12.841045 11.927555 0.000000
-15.690273 17.698725 0.000000
-19.287534 22.981140 0.000000
-24.171028 27.354318 0.000000
-27.286463 33.625755 0.000000
-30.406855 39.160998 0.000000
-33.448030 44.738896 0.000000
-36.664160 50.000000 0.000000
44.547768 -26.500225 0.000000
50.000000 -29.996150 0.000000
39.040016 -23.179396 0.000000
33.449508 -19.900012 0.000000
28.039610 -16.573206 0.000000
22.679257 -13.123588 0.000000
17.175800 -9.898979 0.000000
10.772595 -6.574433 0.000000
-1.359825 2.321647 0.000000
6.129664 -1.708986 0.000000
2.886555 1.591923 0.000000
-3.446680 6.976293 0.000000
-6.313980 12.426067 0.000000
-9.629304 17.712798 0.000000
-13.168207 23.114898 0.000000
-17.317015 28.185039 0.000000
-20.571148 33.474146 0.000000
-23.666220 39.063881 0.000000
-26.831367 44.585336 0.000000
-29.996722 50.000000 0.000000
44.528624 -19.931022 0.000000
50.000000 -23.328966 0.000000
39.036110 -16.594263 0.000000
33.575729 -13.281273 0.000000
28.148932 -9.965156 0.000000
22.724535 -6.604835 0.000000
17.265150 -3.334702 0.000000
11.788104 0.217913 0.000000
1.906783 6.194726 0.000000
6.792612 3.703755 0.000000
-0.227606 11.756257 0.000000
-3.246140 17.531687 0.000000
-6.698691 22.976160 0.000000
-10.566995 28.267147 0.000000
-13.724387 33.660847 0.000000
-16.946033 39.080079 0.000000
-20.141132 44.548315 0.000000
-23.329727 50.000000 0.000000
44.536106 -13.304155 0.000000
50.000000 -16.662593 0.000000
39.079730 -9.966941 0.000000
33.646521 -6.641509 0.000000
28.236818 -3.308202 0.000000
22.850404 0.017262 0.000000
17.538574 3.339411 0.000000
12.178690 6.580596 0.000000
6.651922 10.686008 0.000000
3.302523 17.200462 0.000000
-0.080511 22.855134 0.000000
-3.519229 28.313226 0.000000
-6.831848 33.774701 0.000000
-10.137906 39.170490 0.000000
-13.436343 44.563419 0.000000
-16.663426 50.000000 0.000000
44.554076 -6.655041 0.000000
50.000000 -9.997117 0.000000
39.123137 -3.321486 0.000000
33.713289 0.008823 0.000000
28.333349 3.345309 0.000000
22.999005 6.693935 0.000000
17.834830 10.018166 0.000000
12.658854 12.245718 0.000000
9.783428 17.232601 0.000000
6.479920 22.722433 0.000000
3.189518 28.270457 0.000000
-0.116094 33.734972 0.000000
-3.425403 39.168724 0.000000
-6.725882 44.581697 0.000000
-9.997755 50.000000 0.000000
44.575452 0.001779 0.000000
50.000000 -3.332346 0.000000
39.166885 3.331809 0.000000
33.779564 6.655673 0.000000
28.423799 9.994691 0.000000
23.046544 13.416130 0.000000
16.951328 17.024686 0.000000
12.901551 22.666713 0.000000
9.815566 28.231632 0.000000
6.604443 33.718831 0.000000
3.286532 39.164438 0.000000
-0.030000 44.584476 0.000000
-3.332588 50.000000 0.000000
44.586640 6.665690 0.000000
50.000000 3.332337 0.000000
39.198231 9.982069 0.000000
33.843528 13.276888 0.000000
28.542467 16.584255 0.000000
23.387853 20.084266 0.000000
18.532033 23.113651 0.000000
16.392464 28.298462 0.000000
13.329069 33.754738 0.000000
9.986750 39.181948 0.000000
6.666170 44.584209 0.000000
3.332413 50.000000 0.000000
44.608879 13.318359 0.000000
50.000000 9.997455 0.000000
39.251398 16.612646 0.000000
33.932083 19.862922 0.000000
28.612624 22.926008 0.000000
23.279694 27.207850 0.000000
19.901441 33.302819 0.000000
16.574149 39.040812 0.000000
13.268767 44.526610 0.000000
9.997507 50.000000 0.000000
44.632065 19.973471 0.000000
50.000000 16.663249 0.000000
39.298574 23.262419 0.000000
34.043986 26.514929 0.000000
28.966016 28.539522 0.000000
26.202623 33.410202 0.000000
23.066999 38.968795 0.000000
19.889036 44.507012 0.000000
16.663066 50.000000 0.000000
44.639909 26.643367 0.000000
50.000000 23.329685 0.000000
39.293536 29.967027 0.000000
33.212644 33.371498 0.000000
29.412472 39.045965 0.000000
26.422794 44.506018 0.000000
23.329412 50.000000 0.000000
44.775203 33.292132 0.000000
50.000000 29.996770 0.000000
39.738380 36.596548 0.000000
34.831347 39.525912 0.000000
32.834165 44.514521 0.000000
29.996484 50.000000 0.000000
44.978475 39.878134 0.000000
50.000000 36.664350 0.000000
39.735276 43.969305 0.000000
36.664102 50.000000 0.000000
45.621569 45.410104 0.000000
50.000000 43.332115 0.000000
43.331803 50.000000 0.000000
50.000000 50.000000 0.000000
CELLS 578 2312
3 1 0 2
3 0 3 2
3 4 1 6
3 6 1 2
3 3 5 7
3 3 7 2
3 6 2 7
3 9 4 10
3 10 4 6
3 5 8 11
3 7 5 11
3 10 6 12
3 12 6 7
3 7 11 13
3 7 13 12
3 8 14 15
3 11 8 15
3 16 9 17
3 17 9 10
3 17 10 18
3 18 10 12
3 11 15 19
3 13 11 19
3 18 12 20
3 13 19 20
3 20 12 13
3 14 22 24
3 15 14 24
3 15 24 25
3 19 15 25
3 21 16 26
3 26 16 17
3 26 17 27
3 27 17 18
3 27 18 28
3 28 18 20
3 19 25 29
3 19 29 20
3 28 20 30
3 30 20 29
3 31 21 32
3 32 21 26
3 22 23 36
3 24 22 36
3 23 34 37
3 36 23 37
3 24 36 38
3 25 24 38
3 25 38 39
3 29 25 39
3 32 26 40
3 40 26 27
3 40 27 41
3 41 27 28
3 41 28 42
3 42 28 30
3 29 39 43
3 29 43 30
3 42 30 43
3 33 31 44
3 44 31 32
3 44 32 45
3 45 32 40
3 46 33 47
3 47 33 44
3 34 35 50
3 37 34 50
3 35 48 51
3 50 35 51
3 36 37 52
3 38 36 52
3 37 50 53
3 52 37 53
3 38 52 54
3 39 38 54
3 39 54 55
3 43 39 55
3 45 40 56
3 56 40 41
3 56 41 57
3 57 41 42
3 57 42 58
3 58 42 43
3 43 55 59
3 43 59 58
3 47 44 60
3 60 44 45
3 60 45 61
3 61 45 56
3 62 46 63
3 63 46 47
3 63 47 64
3 64 47 60
3 48 49 68
3 51 48 68
3 49 66 69
3 68 49 69
3 50 51 70
3 53 50 70
3 51 68 71
3 70 51 71
3 52 53 72
3 54 52 72
3 53 70 73
3 72 53 73
3 54 72 74
3 55 54 74
3 55 74 75
3 59 55 75
3 61 56 76
3 76 56 57
3 76 57 77
3 77 57 58
3 77 58 78
3 59 75 78
3 78 58 59
3 64 60 79
3 79 60 61
3 79 61 80
3 80 61 76
3 65 62 81
3 81 62 63
3 81 63 82
3 82 63 64
3 82 64 83
3 83 64 79
3 84 65 85
3 85 65 81
3 66 67 89
3 69 66 89
3 67 87 90
3 89 67 90
3 68 69 91
3 71 68 91
3 69 89 92
3 91 69 92
3 70 71 93
3 73 70 93
3 71 91 94
3 93 71 94
3 72 73 95
3 74 72 95
3 73 93 96
3 95 73 96
3 74 95 97
3 75 74 97
3 75 97 98
3 78 75 98
3 80 76 99
3 99 76 77
3 99 77 100
3 100 77 78
3 100 78 101
3 98 101 78
3 83 79 102
3 102 79 80
3 102 80 103
3 103 80 99
3 85 81 104
3 104 81 82
3 105 83 102
3 104 82 106
3 106 82 83
3 106 83 105
3 86 84 107
3 107 84 85
3 107 85 108
3 108 85 104
3 109 86 107
3 110 86 109
3 87 88 112
3 90 87 112
3 112 88 113
3 88 114 113
3 90 112 115
3 89 90 116
3 92 89 116
3 116 90 115
3 91 92 117
3 94 91 117
3 92 116 118
3 117 92 118
3 93 94 119
3 96 93 119
3 94 117 120
3 119 94 120
3 95 96 121
3 97 95 121
3 96 119 122
3 121 96 122
3 97 121 123
3 98 97 123
3 98 123 124
3 98 124 101
3 103 99 125
3 125 99 100
3 125 100 126
3 126 100 101
3 126 101 124
3 105 102 127
3 127 102 103
3 127 103 128
3 128 103 125
3 129 105 127
3 108 104 130
3 130 104 106
3 130 106 131
3 131 106 105
3 131 105 129
3 108 130 132
3 109 107 133
3 133 107 108
3 133 108 134
3 108 132 134
3 135 109 133
3 111 110 136
3 136 110 109
3 136 109 135
3 137 111 136
3 138 111 137
3 112 113 139
3 115 112 139
3 114 140 113
3 140 139 113
3 139 141 115
3 116 115 142
3 118 116 142
3 142 115 141
3 117 118 143
3 120 117 143
3 118 142 144
3 143 118 144
3 119 120 145
3 122 119 145
3 120 143 146
3 145 120 146
3 121 122 147
3 123 121 147
3 122 145 148
3 147 122 148
3 123 147 149
3 124 123 149
3 124 149 150
3 151 126 124
3 124 150 151
3 128 125 152
3 152 125 126
3 152 126 151
3 129 127 153
3 153 127 128
3 128 152 154
3 153 128 154
3 155 129 153
3 131 129 156
3 156 129 155
3 132 130 157
3 130 131 157
3 157 131 158
3 131 156 158
3 132 157 159
3 132 159 134
3 135 133 160
3 160 133 134
3 160 134 159
3 136 135 161
3 135 160 161
3 162 137 136
3 161 162 136
3 163 138 137
3 162 163 137
3 139 164 141
3 140 165 139
3 139 165 164
3 141 164 166
3 141 166 142
3 166 167 142
3 144 142 167
3 167 168 144
3 143 144 168
3 146 143 168
3 168 169 146
3 145 146 170
3 148 145 170
3 170 146 169
3 147 148 171
3 149 147 171
3 148 170 172
3 171 148 172
3 173 151 150
3 149 171 174
3 150 149 174
3 150 174 175
3 150 175 173
3 154 152 176
3 152 151 176
3 176 151 173
3 154 176 177
3 155 153 178
3 177 178 154
3 154 178 153
3 156 155 179
3 155 178 179
3 180 158 156
3 179 180 156
3 181 159 157
3 180 181 158
3 181 157 158
3 182 160 159
3 181 182 159
3 183 161 160
3 182 183 160
3 184 162 161
3 184 161 183
3 185 163 162
3 184 185 162
3 164 186 166
3 165 187 164
3 164 187 186
3 166 186 188
3 166 188 167
3 167 188 189
3 167 189 168
3 168 189 190
3 168 190 169
3 169 190 191
3 169 191 170
3 192 172 170
3 170 191 192
3 192 193 172
3 171 172 193
3 174 171 193
3 194 173 175
3 176 173 194
3 175 174 195
3 193 195 174
3 195 196 175
3 175 196 194
3 197 177 176
3 194 197 176
3 198 178 177
3 197 198 177
3 199 179 178
3 198 199 178
3 200 180 179
3 199 200 179
3 201 181 180
3 200 201 180
3 202 182 181
3 201 202 181
3 203 183 182
3 202 203 182
3 204 184 183
3 203 204 183
3 205 185 184
3 204 205 184
3 186 206 188
3 187 207 186
3 186 207 206
3 188 206 208
3 188 208 189
3 189 208 209
3 189 209 190
3 190 209 210
3 190 210 191
3 191 210 211
3 191 211 192
3 192 211 212
3 192 212 193
3 193 212 213
3 193 213 195
3 214 197 194
3 214 194 196
3 195 213 215
3 195 215 196
3 196 215 214
3 216 198 197
3 214 216 197
3 217 199 198
3 216 217 198
3 218 200 199
3 217 218 199
3 219 201 200
3 218 219 200
3 220 202 201
3 219 220 201
3 221 203 202
3 220 221 202
3 222 204 203
3 221 222 203
3 223 205 204
3 222 223 204
3 206 224 208
3 207 225 206
3 206 225 224
3 208 224 226
3 208 226 209
3 209 226 227
3 209 227 210
3 210 227 228
3 210 228 211
3 211 228 229
3 211 229 212
3 212 229 230
3 212 230 213
3 213 230 231
3 213 231 215
3 232 216 214
3 215 231 232
3 232 214 215
3 233 217 216
3 232 233 216
3 234 218 217
3 233 234 217
3 235 219 218
3 234 235 218
3 236 220 219
3 235 236 219
3 237 221 220
3 236 237 220
3 238 222 221
3 237 238 221
3 239 223 222
3 238 239 222
3 224 240 226
3 225 241 224
3 224 241 240
3 226 240 242
3 226 242 227
3 227 242 243
3 227 243 228
3 228 243 244
3 228 244 229
3 244 245 229
3 229 245 230
3 230 245 246
3 230 246 231
3 231 246 247
3 231 247 232
3 248 233 232
3 248 232 247
3 249 234 233
3 248 249 233
3 250 235 234
3 249 250 234
3 251 236 235
3 250 251 235
3 252 237 236
3 251 252 236
3 253 238 237
3 252 253 237
3 254 239 238
3 253 254 238
3 240 255 242
3 241 256 240
3 240 256 255
3 242 255 257
3 242 257 243
3 243 257 258
3 243 258 244
3 244 258 259
3 244 259 245
3 245 259 260
3 245 260 246
3 246 260 261
3 246 261 247
3 248 247 261
3 262 249 248
3 261 262 248
3 263 250 249
3 262 263 249
3 264 251 250
3 263 264 250
3 265 252 251
3 264 265 251
3 266 253 252
3 265 266 252
3 267 254 253
3 266 267 253
3 255 268 257
3 256 269 255
3 255 269 268
3 257 268 270
3 257 270 258
3 258 270 271
3 258 271 259
3 259 271 272
3 259 272 260
3 260 272 273
3 260 273 261
3 274 262 261
3 261 273 274
3 275 263 262
3 274 275 262
3 276 264 263
3 275 276 263
3 277 265 264
3 276 277 264
3 278 266 265
3 277 278 265
3 279 267 266
3 278 279 266
3 268 280 270
3 269 281 268
3 268 281 280
3 270 280 282
3 270 282 271
3 271 282 283
3 271 283 272
3 283 284 272
3 272 284 273
3 285 275 274
3 273 284 285
3 285 274 273
3 286 276 275
3 285 286 275
3 287 277 276
3 286 287 276
3 288 278 277
3 287 288 277
3 289 279 278
3 288 289 278
3 280 290 282
3 281 291 280
3 280 291 290
3 282 290 292
3 282 292 283
3 283 292 293
3 283 293 284
3 284 293 294
3 284 294 285
3 295 286 285
3 295 285 294
3 296 287 286
3 295 296 286
3 297 288 287
3 296 297 287
3 298 289 288
3 297 298 288
3 290 299 292
3 291 300 290
3 290 300 299
3 292 299 301
3 292 301 293
3 293 301 302
3 293 302 294
3 294 302 295
3 303 296 295
3 303 295 302
3 304 297 296
3 303 304 296
3 305 298 297
3 304 305 297
3 299 306 301
3 300 307 299
3 299 307 306
3 301 306 308
3 301 308 302
3 309 303 302
3 302 308 309
3 310 304 303
3 309 310 303
3 311 305 304
3 310 311 304
3 306 312 308
3 307 313 306
3 306 313 312
3 314 310 309
3 308 312 314
3 314 309 308
3 315 311 310
3 314 315 310
3 312 316 314
3 313 317 312
3 312 317 316
3 318 315 314
3 318 314 316
3 317 319 316
3 319 318 316
CELL_TYPES 578
5
5
5
5
5
5
5
5
5
5
5
5
5
5
5
5
5
5
5
5
5
5
5
5
5
5
5
5
5
5
5
5
5
5
5
5
5
5
5
5
5
5
5
5
5
5
5
5
5
5
5
5
5
5
5
5
5
5
5
5
5
5
5
5
5
5
5
5
5
5
5
5
5
5
5
5
5
5
5
5
5
5
5
5
5
5
5
5
5
5
5
5
5
5
5
5
5
5
5
5
5
5
5
5
5
5
5
5
5
5
5
5
5
5
5
5
5
5
5
5
5
5
5
5
5
5
5
5
5
5
5
5
5
5
5
5
5
5
5
5
5
5
5
5
5
5
5
5
5
5
5
5
5
5
5
5
5
5
5
5
5
5
5
5
5
5
5
5
5
5
5
5
5
5
5
5
5
5
5
5
5
5
5
5
5
5
5
5
5
5
5
5
5
5
5
5
5
5
5
5
5
5
5
5
5
5
5
5
5
5
5
5
5
5
5
5
5
5
5
5
5
5
5
5
5
5
5
5
5
5
5
5
5
5
5
5
5
5
5
5
5
5
5
5
5
5
5
5
5
5
5
5
5
5
5
5
5
5
5
5
5
5
5
5
5
5
5
5
5
5
5
5
5
5
5
5
5
5
5
5
5
5
5
5
5
5
5
5
5
5
5
5
5
5
5
5
5
5
5
5
5
5
5
5
5
5
5
5
5
5
5
5
5
5
5
5
5
5
5
5
5
5
5
5
5
5
5
5
5
5
5
5
5
5
5
5
5
5
5
5
5
5
5
5
5
5
5
5
5
5
5
5
5
5
5
5
5
5
5
5
5
5
5
5
5
5
5
5
5
5
5
5
5
5
5
5
5
5
5
5
5
5
5
5
5
5
5
5
5
5
5
5
5
5
5
5
5
5
5
5
5
5
5
5
5
5
5
5
5
5
5
5
5
5
5
5
5
5
5
5
5
5
5
5
5
5
5
5
5
5
5
5
5
5
5
5
5
5
5
5
5
5
5
5
5
5
5
5
5
5
5
5
5
5
5
5
5
5
5
5
5
5
5
5
5
5
5
5
5
5
5
5
5
5
5
5
5
5
5
5
5
5
5
5
5
5
5
5
5
5
5
5
5
5
5
5
5
5
5
5
5
5
5
5
5
5
5
5
5
5
5
5
5
5
5
5
5
5
5
5
5
5
5
5
5
5
5
5
5
5
5
5
5
5
5
5
5
5
5
5
5
5
5
5
5
5
5
5
5
5
5
5
5
5
5
5
5
5
5
5
5
5
5
5
5
5
5
5
5
5
5
5
5
5
5
5
5
5
POINT_DATA 320
SCALARS theta_e float 1
LOOKUP_TABLE default
1.000000
1.000000
1.000000
1.000000
1.000000
1.000000
1.000000
1.000000
1.000000
1.000000
1.000000
1.000000
1.000000
1.000000
1.000000
1.000000
1.000000
1.000000
1.000000
1.000000
1.000000
1.000000
1.000000
1.000000
1.000000
1.000000
1.000000
1.000000
1.000000
1.000000
1.000000
1.000000
1.000000
1.000000
1.000000
1.000000
1.000000
1.000000
1.000000
1.000000
1.000000
1.000000
1.000000
1.000000
1.000000
1.000000
1.000000
1.000000
1.000000
1.000000
1.000000
1.000000
1.000000
1.000000
1.000000
1.000000
1.000000
1.000000
1.000000
1.000000
1.000000
1.000000
1.000000
1.000000
1.000000
1.000000
1.000000
1.000000
1.000000
1.000000
1.000000
1.000000
1.000000
1.000000
1.000000
1.000000
1.000000
1.000000
1.000000
1.000000
1.000000
1.000000
1.000000
1.000000
1.000000
1.000000
1.000000
1.000000
1.000000
1.000000
1.000000
1.000000
1.000000
1.000000
1.000000
1.000000
1.000000
1.000000
1.000000
1.000000
1.000000
1.000000
1.000000
1.000000
1.000000
1.000000
1.000000
1.000000
1.000000
1.000000
1.000000
1.000000
1.000000
1.000000
1.000000
1.000000
1.000000
1.000000
1.000000
1.000000
1.000000
1.000000
1.000000
1.000000
0.999999
1.000000
1.000000
1.000000
1.000000
1.000000
1.000000
1.000000
1.000000
1.000000
1.000000
1.000000
1.000000
1.000000
1.000000
1.000000
1.000000
1.000000
1.000000
1.000000
1.000000
1.000000
1.000000
1.000000
1.000000
0.999998
0.999995
0.999997
0.999999
1.000000
1.000000
1.000000
1.000000
1.000000
1.000000
1.000000
1.000000
1.000000
1.000000
1.000000
1.000000
1.000000
1.000000
1.000000
1.000000
1.000000
1.000000
0.999999
1.000000
0.999994
0.999996
0.999994
0.999996
0.999999
1.000000
1.000000
1.000000
1.000000
1.000000
1.000000
1.000000
1.000000
1.000000
1.000000
1.000000
1.000000
1.000000
1.000000
1.000000
0.999998
0.999994
0.999995
0.999994
0.999996
1.000000
1.000000
1.000000
1.000000
1.000000
1.000000
1.000000
1.000000
1.000000
1.000000
1.000000
1.000000
1.000000
1.000000
1.000000
0.999999
0.999995
0.999997
0.999998
1.000000
1.000000
1.000000
1.000000
1.000000
1.000000
1.000000
1.000000
1.000000
1.000000
1.000000
1.000000
1.000000
1.000001
1.000000
0.999999
1.000000
1.000000
1.000000
1.000000
1.000000
1.000000
1.000000
1.000000
1.000000
1.000000
1.000000
1.000000
1.000000
1.000000
1.000000
1.000000
1.000000
1.000000
1.000000
1.000000
1.000000
1.000000
1.000000
1.000000
1.000000
1.000000
1.000000
1.000000
1.000000
1.000000
1.000000
1.000000
1.000000
1.000000
1.000000
1.000000
1.000000
1.000000
1.000000
1.000000
1.000000
1.000000
1.000000
1.000000
1.000000
1.000000
1.000000
1.000000
1.000000
1.000000
1.000000
1.000000
1.000000
1.000000
1.000000
1.000000
1.000000
1.000000
1.000000
1.000000
1.000000
1.000000
1.000000
1.000000
1.000000
1.000000
1.000000
1.000000
1.000000
1.000000
1.000000
1.000000
1.000000
1.000000
1.000000
1.000000
1.000000
1.000000
1.000000
1.000000
1.000000
1.000000
1.000000
1.000000
1.000000
1.000000
1.000000
VECTORS fa_u float
0.000000 0.000000 0.000000
0.000000 0.000000 0.000000
0.000000 0.000000 0.000000
0.000000 0.000000 0.000000
0.000000 0.000000 0.000000
0.000000 0.000000 0.000000
0.000000 0.000000 0.000000
0.000000 0.000000 0.000000
0.000000 0.000000 0.000000
0.000000 0.000000 0.000000
0.000000 0.000000 0.000000
0.000000 0.000000 0.000000
0.000000 0.000000 0.000000
0.000000 0.000000 0.000000
0.000000 0.000000 0.000000
0.000000 0.000000 0.000000
0.000000 0.000000 0.000000
0.000000 0.000000 0.000000
0.000000 0.000000 0.000000
0.000000 0.000000 0.000000
0.000000 0.000000 0.000000
0.000000 0.000000 0.000000
0.000000 0.000000 0.000000
0.000000 0.000000 0.000000
0.000000 0.000000 0.000000
0.000000 0.000000 0.000000
0.000000 0.000000 0.000000
0.000000 0.000000 0.000000
0.000000 0.000000 0.000000
0.000000 0.000000 0.000000
0.000000 0.000000 0.000000
0.000000 0.000000 0.000000
0.000000 0.000000 0.000000
0.000000 0.000000 0.000000
0.000000 0.000000 0.000000
0.000000 0.000000 0.000000
0.000000 0.000000 0.000000
0.000000 0.000000 0.000000
0.000000 0.000000 0.000000
0.000000 0.000000 0.000000
0.000000 0.000000 0.000000
0.000000 0.000000 0.000000
0.000000 0.000000 0.000000
0.000000 0.000000 0.000000
0.000000 0.000000 0.000000
0.000000 0.000000 0.000000
0.000000 0.000000 0.000000
0.000000 0.000000 0.000000
0.000000 0.000000 0.000000
0.000000 0.000000 0.000000
0.000000 0.000000 0.000000
0.000000 0.000000 0.000000
0.000000 0.000000 0.000000
0.000000 0.000000 0.000000
0.000000 0.000000 0.000000
0.000000 0.000000 0.000000
0.000000 0.000000 0.000000
0.000000 0.000000 0.000000
0.000000 0.000000 0.000000
0.000000 0.000000 0.000000
0.000000 0.000000 0.000000
0.000000 0.000000 0.000000
0.000000 0.000000 0.000000
0.000000 0.000000 0.000000
0.000000 0.000000 0.000000
0.000000 0.000000 0.000000
0.000000 0.000000 0.000000
0.000000 0.000000 0.000000
0.000000 0.000000 0.000000
0.000000 0.000000 0.000000
0.000000 0.000000 0.000000
0.000000 0.000000 0.000000
0.000000 0.000000 0.000000
0.000000 0.000000 0.000000
0.000000 0.000000 0.000000
0.000000 0.000000 0.000000
0.000000 0.000000 0.000000
0.000000 0.000000 0.000000
0.000000 0.000000 0.000000
0.000000 0.000000 0.000000
0.000000 0.000000 0.000000
0.000000 0.000000 0.000000
0.000000 0.000000 0.000000
0.000000 0.000000 0.000000
0.000000 0.000000 0.000000
0.000000 0.000000 0.000000
0.000000 0.000000 0.000000
0.000000 0.000000 0.000000
0.000000 0.000000 0.000000
0.000000 0.000000 0.000000
0.000000 0.000000 0.000000
0.000000 0.000000 0.000000
0.000000 0.000000 0.000000
0.000000 0.000000 0.000000
0.000000 0.000000 0.000000
0.000000 0.000000 0.000000
0.000000 0.000000 0.000000
0.000000 0.000000 0.000000
0.000000 0.000000 0.000000
0.000000 0.000000 0.000000
0.000000 0.000000 0.000000
0.000000 0.000000 0.000000
0.000000 0.000000 0.000000
0.000000 0.000000 0.000000
0.000000 0.000000 0.000000
0.000000 0.000000 0.000000
0.000000 0.000000 0.000000
0.000000 0.000000 0.000000
0.000000 0.000000 0.000000
0.000000 0.000000 0.000000
0.000000 0.000000 0.000000
0.000000 0.000000 0.000000
0.000000 0.000000 0.000000
0.000000 0.000000 0.000000
0.000000 0.000000 0.000000
0.000000 0.000000 0.000000
0.000000 0.000000 0.000000
0.000000 0.000000 0.000000
0.000000 0.000000 0.000000
0.000000 0.000000 0.000000
0.000000 0.000000 0.000000
0.000000 0.000000 0.000000
0.000000 0.000000 0.000000
0.000000 0.000000 0.000000
0.000000 0.000000 0.000000
0.000000 0.000000 0.000000
0.000000 0.000000 0.000000
0.000000 0.000000 0.000000
0.000000 0.000000 0.000000
0.000000 0.000000 0.000000
0.000000 0.000000 0.000000
0.000000 0.000000 0.000000
0.000000 0.000000 0.000000
0.000000 0.000000 0.000000
0.000000 0.000000 0.000000
0.000000 0.000000 0.000000
0.000000 0.000000 0.000000
0.000000 0.000000 0.000000
0.000000 0.000000 0.000000
0.000000 0.000000 0.000000
0.000000 0.000000 0.000000
0.000000 0.000000 0.000000
0.000000 0.000000 0.000000
0.000000 0.000000 0.000000
0.000000 0.000000 0.000000
0.000000 0.000000 0.000000
0.000000 0.000000 0.000000
0.000000 0.000000 0.000000
0.000000 0.000000 0.000000
0.000000 0.000000 0.000000
0.000000 0.000000 0.000000
0.000000 0.000000 0.000000
0.000000 0.000000 0.000000
0.000000 0.000000 0.000000
0.000000 0.000000 0.000000
0.000000 0.000000 0.000000
0.000000 0.000000 0.000000
0.000000 0.000000 0.000000
0.000000 0.000000 0.000000
0.000000 0.000000 0.000000
0.000000 0.000000 0.000000
0.000000 0.000000 0.000000
0.000000 0.000000 0.000000
0.000000 0.000000 0.000000
0.000000 0.000000 0.000000
0.000000 0.000000 0.000000
0.000000 0.000000 0.000000
0.000000 0.000000 0.000000
0.000000 0.000000 0.000000
0.000000 0.000000 0.000000
0.000000 0.000000 0.000000
0.000000 0.000000 0.000000
0.000000 0.000000 0.000000
0.000000 0.000000 0.000000
0.000000 0.000000 0.000000
0.000000 0.000000 0.000000
0.000000 0.000000 0.000000
0.000000 0.000000 0.000000
0.000000 0.000000 0.000000
0.000000 0.000000 0.000000
0.000000 0.000000 0.000000
0.000000 0.000000 0.000000
0.000000 0.000000 0.000000
0.000000 0.000000 0.000000
0.000000 0.000000 0.000000
0.000000 0.000000 0.000000
0.000000 0.000000 0.000000
0.000000 0.000000 0.000000
0.000000 0.000000 0.000000
0.000000 0.000000 0.000000
0.000000 0.000000 0.000000
0.000000 0.000000 0.000000
0.000000 0.000000 0.000000
0.000000 0.000000 0.000000
0.000000 0.000000 0.000000
0.000000 0.000000 0.000000
0.000000 0.000000 0.000000
0.000000 0.000000 0.000000
0.000000 0.000000 0.000000
0.000000 0.000000 0.000000
0.000000 0.000000 0.000000
0.000000 0.000000 0.000000
0.000000 0.000000 0.000000
0.000000 0.000000 0.000000
0.000000 0.000000 0.000000
0.000000 0.000000 0.000000
0.000000 0.000000 0.000000
0.000000 0.000000 0.000000
0.000000 0.000000 0.000000
0.000000 0.000000 0.000000
0.000000 0.000000 0.000000
0.000000 0.000000 0.000000
0.000000 0.000000 0.000000
0.000000 0.000000 0.000000
0.000000 0.000000 0.000000
0.000000 0.000000 0.000000
0.000000 0.000000 0.000000
0.000000 0.000000 0.000000
0.000000 0.000000 0.000000
0.000000 0.000000 0.000000
0.000000 0.000000 0.000000
0.000000 0.000000 0.000000
0.000000 0.000000 0.000000
0.000000 0.000000 0.000000
0.000000 0.000000 0.000000
0.000000 0.000000 0.000000
0.000000 0.000000 0.000000
0.000000 0.000000 0.000000
0.000000 0.000000 0.000000
0.000000 0.000000 0.000000
0.000000 0.000000 0.000000
0.000000 0.000000 0.000000
0.000000 0.000000 0.000000
0.000000 0.000000 0.000000
0.000000 0.000000 0.000000
0.000000 0.000000 0.000000
0.000000 0.000000 0.000000
0.000000 0.000000 0.000000
0.000000 0.000000 0.000000
0.000000 0.000000 0.000000
0.000000 0.000000 0.000000
0.000000 0.000000 0.000000
0.000000 0.000000 0.000000
0.000000 0.000000 0.000000
0.000000 0.000000 0.000000
0.000000 0.000000 0.000000
0.000000 0.000000 0.000000
0.000000 0.000000 0.000000
0.000000 0.000000 0.000000
0.000000 0.000000 0.000000
0.000000 0.000000 0.000000
0.000000 0.000000 0.000000
0.000000 0.000000 0.000000
0.000000 0.000000 0.000000
0.000000 0.000000 0.000000
0.000000 0.000000 0.000000
0.000000 0.000000 0.000000
0.000000 0.000000 0.000000
0.000000 0.000000 0.000000
0.000000 0.000000 0.000000
0.000000 0.000000 0.000000
0.000000 0.000000 0.000000
0.000000 0.000000 0.000000
0.000000 0.000000 0.000000
0.000000 0.000000 0.000000
0.000000 0.000000 0.000000
0.000000 0.000000 0.000000
0.000000 0.000000 0.000000
0.000000 0.000000 0.000000
0.000000 0.000000 0.000000
0.000000 0.000000 0.000000
0.000000 0.000000 0.000000
0.000000 0.000000 0.000000
0.000000 0.000000 0.000000
0.000000 0.000000 0.000000
0.000000 0.000000 0.000000
0.000000 0.000000 0.000000
0.000000 0.000000 0.000000
0.000000 0.000000 0.000000
0.000000 0.000000 0.000000
0.000000 0.000000 0.000000
0.000000 0.000000 0.000000
0.000000 0.000000 0.000000
0.000000 0.000000 0.000000
0.000000 0.000000 0.000000
0.000000 0.000000 0.000000
0.000000 0.000000 0.000000
0.000000 0.000000 0.000000
0.000000 0.000000 0.000000
0.000000 0.000000 0.000000
0.000000 0.000000 0.000000
0.000000 0.000000 0.000000
0.000000 0.000000 0.000000
0.000000 0.000000 0.000000
0.000000 0.000000 0.000000
0.000000 0.000000 0.000000
0.000000 0.000000 -50.000000
-50.000000 0.000000 -50.000000
-43.332214 0.000000 -45.688660
-45.491369 0.000000 -43.332062
-50.000000 0.000000 -50.000000
-36.664361 0.000000 -36.664444
-50.000000 0.000000 -45.081414
-39.969939 0.000000 -40.027618
-44.152505 0.000000 -29.996743
-50.000000 0.000000 -50.000000
-29.996615 0.000000 -44.847376
-33.449043 0.000000 -33.145260
-44.675935 0.000000 -39.869494
-36.787155 0.000000 -35.129100
-39.801607 0.000000 -23.329489
-50.000000 0.000000 -26.539531
-44.666858 0.000000 -50.000000
-23.329375 0.000000 -44.665394
-26.804103 0.000000 -39.364510
-30.225858 0.000000 -29.606777
-39.359599 0.000000 -33.368744
-33.655721 0.000000 -50.000000
-16.662868 0.000000 -16.663060
-50.000000 0.000000 -9.997465
