# vtk DataFile Version 2.0
CellBP Time: 0.6
ASCII
DATASET UNSTRUCTURED_GRID
POINTS 320 double
-50.000000 -50.000000 0.000000
-50.000000 -43.333311 0.000000
-45.688273 -45.491046 0.000000
-43.333310 -50.000000 0.000000
-50.000000 -36.666621 0.000000
-36.666626 -50.000000 0.000000
-45.080997 -39.969713 0.000000
-40.027014 -44.152167 0.000000
-29.999942 -50.000000 0.000000
-50.000000 -29.999934 0.000000
-44.846966 -33.448852 0.000000
-33.144789 -44.675566 0.000000
-39.868977 -36.786908 0.000000
-35.128482 -39.801157 0.000000
-23.333266 -50.000000 0.000000
-26.539026 -44.666683 0.000000
-50.000000 -23.333257 0.000000
-44.665222 -26.803836 0.000000
-39.364129 -30.225587 0.000000
-29.606081 -39.359243 0.000000
-33.368030 -33.655305 0.000000
-50.000000 -16.666594 0.000000
-16.666605 -50.000000 0.000000
-9.999958 -50.000000 0.000000
-19.964741 -44.588790 0.000000
-23.215765 -39.114642 0.000000
-44.691913 -20.096831 0.000000
-39.367804 -23.528115 0.000000
-34.106004 -26.936938 0.000000
-26.384228 -33.577077 0.000000
-29.155997 -28.926465 0.000000
-50.000000 -9.999944 0.000000
-44.666381 -13.410121 0.000000
-50.000000 -3.333309 0.000000
-3.333322 -50.000000 0.000000
3.333312 -50.000000 0.000000
-13.343493 -44.599105 0.000000
-6.684635 -44.610820 0.000000
-16.693605 -39.153379 0.000000
-20.106913 -33.342676 0.000000
-39.338194 -16.804837 0.000000
-34.018530 -20.274734 0.000000
-28.780694 -23.448930 0.000000
-23.510348 -27.349896 0.000000
-44.635539 -6.705607 0.000000
-39.293062 -10.101904 0.000000
-50.000000 3.333318 0.000000
-44.626887 -0.015762 0.000000
9.999951 -50.000000 0.000000
16.666603 -50.000000 0.000000
-0.016103 -44.618882 0.000000
6.651526 -44.635529 0.000000
-10.044628 -39.222650 0.000000
-3.368223 -39.220508 0.000000
-13.484279 -33.798871 0.000000
-16.709874 -28.271379 0.000000
-33.948109 -13.514345 0.000000
-28.601380 -16.892544 0.000000
-23.291101 -20.312818 0.000000
-18.660117 -23.282169 0.000000
-39.267632 -3.392973 0.000000
-33.904588 -6.796819 0.000000
-50.000000 9.999948 0.000000
-44.606912 6.673191 0.000000
-39.261099 3.325548 0.000000
-50.000000 16.666594 0.000000
23.333266 -50.000000 0.000000
29.999941 -50.000000 0.000000
13.317251 -44.663012 0.000000
19.989372 -44.700134 0.000000
3.307660 -39.245199 0.000000
9.971739 -39.290309 0.000000
-6.735196 -33.791410 0.000000
-0.032382 -33.829716 0.000000
-10.095966 -28.293800 0.000000
-13.122876 -22.898792 0.000000
-28.532924 -10.215288 0.000000
-23.066346 -13.663148 0.000000
-16.976781 -17.208313 0.000000
-33.884957 -0.065473 0.000000
-28.563365 -3.578622 0.000000
-44.564231 13.380179 0.000000
-39.190228 10.014914 0.000000
-33.905948 6.615944 0.000000
-50.000000 23.333253 0.000000
-44.557800 20.137951 0.000000
-50.000000 29.999935 0.000000
36.666624 -50.000000 0.000000
43.333311 -50.000000 0.000000
26.663011 -44.745260 0.000000
33.315127 -44.875859 0.000000
16.631590 -39.357721 0.000000
23.328125 -39.437055 0.000000
6.642760 -33.879533 0.000000
13.290817 -33.965504 0.000000
-3.345478 -28.362780 0.000000
3.356819 -28.451375 0.000000
-6.626042 -22.846461 0.000000
-9.972023 -17.314752 0.000000
-23.185888 -7.015046 0.000000
-17.809914 -10.334861 0.000000
-12.837215 -12.587544 0.000000
-28.607618 3.088416 0.000000
-23.264589 -0.468059 0.000000
-39.039165 16.746460 0.000000
-28.721607 9.926502 0.000000
-33.761874 13.318521 0.000000
-44.521680 26.716675 0.000000
-38.467743 23.892390 0.000000
-44.632093 33.085314 0.000000
-50.000000 36.666629 0.000000
-50.000000 43.333313 0.000000
39.922242 -45.069483 0.000000
45.474542 -45.660332 0.000000
50.000000 -50.000000 0.000000
36.626665 -39.981868 0.000000
30.012188 -39.458529 0.000000
19.904178 -34.092717 0.000000
26.584941 -34.319395 0.000000
9.988865 -28.513712 0.000000
16.611054 -28.659782 0.000000
0.052351 -22.958723 0.000000
6.812235 -23.158804 0.000000
-3.401514 -17.297722 0.000000
-6.871097 -11.038345 0.000000
-17.878915 -3.830237 0.000000
-12.554396 -7.036367 0.000000
-23.310980 6.073987 0.000000
-18.038379 2.456873 0.000000
-23.121873 12.095469 0.000000
-33.572112 19.788907 0.000000
-27.941244 16.885199 0.000000
-33.292657 24.722520 0.000000
-39.473290 30.052496 0.000000
-35.160016 28.137294 0.000000
-39.815698 35.101171 0.000000
-43.991532 39.981939 0.000000
-45.430933 45.684991 0.000000
-50.000000 50.000000 0.000000
44.117113 -39.898830 0.000000
50.000000 -43.333303 0.000000
39.639283 -35.047273 0.000000
33.462781 -33.424432 0.000000
22.984801 -28.817822 0.000000
28.730888 -29.247690 0.000000
13.460729 -23.121814 0.000000
20.054800 -23.438617 0.000000
3.390490 -17.586581 0.000000
10.127770 -17.839778 0.000000
0.140185 -12.025591 0.000000
-2.157312 -6.276470 0.000000
-7.426113 -3.715988 0.000000
-12.642747 -0.801929 0.000000
-18.161179 8.572994 0.000000
-12.967864 5.196821 0.000000
-18.639640 13.752242 0.000000
-21.504870 17.495271 0.000000
-28.940595 23.158128 0.000000
-24.346213 21.554822 0.000000
-30.323286 28.634617 0.000000
-34.253193 33.375431 0.000000
-36.955796 39.577992 0.000000
-39.838615 45.102633 0.000000
-43.333308 50.000000 0.000000
44.585119 -32.971918 0.000000
50.000000 -36.666616 0.000000
39.129235 -29.581683 0.000000
33.500496 -26.367570 0.000000
27.182620 -23.322114 0.000000
23.065514 -18.647746 0.000000
16.988885 -16.979343 0.000000
6.713486 -12.218768 0.000000
12.350477 -12.732228 0.000000
-3.386937 -1.495438 0.000000
3.950791 -7.045747 0.000000
1.022201 -2.121317 0.000000
-7.027217 2.334357 0.000000
-8.452047 7.843521 0.000000
-12.847720 11.933957 0.000000
-15.693171 17.700804 0.000000
-19.287180 22.983168 0.000000
-24.170959 27.355011 0.000000
-27.286257 33.626153 0.000000
-30.406553 39.161306 0.000000
-33.447677 44.738843 0.000000
-36.666618 50.000000 0.000000
44.547707 -26.499700 0.000000
50.000000 -29.999929 0.000000
39.040032 -23.179192 0.000000
33.449855 -19.899956 0.000000
28.040211 -16.574585 0.000000
22.684110 -13.124405 0.000000
17.176795 -9.911128 0.000000
10.952935 -6.652826 0.000000
-1.351057 2.306042 0.000000
6.233026 -1.744073 0.000000
2.911365 1.601597 0.000000
-3.552471 7.204703 0.000000
-6.312132 12.447058 0.000000
-9.629310 17.700553 0.000000
-13.166595 23.111996 0.000000
-17.316438 28.185272 0.000000
-20.570490 33.474518 0.000000
-23.665757 39.064058 0.000000
-26.830661 44.585392 0.000000
-29.999936 50.000000 0.000000
44.528749 -19.930404 0.000000
50.000000 -23.333252 0.000000
39.036452 -16.593991 0.000000
33.576510 -13.281189 0.000000
28.151143 -9.964839 0.000000
22.726373 -6.604480 0.000000
17.264785 -3.337636 0.000000
12.033767 0.189077 0.000000
1.933159 6.304347 0.000000
7.058812 3.852814 0.000000
-0.211459 11.994490 0.000000
-3.271543 17.529391 0.000000
-6.701293 22.978378 0.000000
-10.568086 28.267652 0.000000
-13.723773 33.661663 0.000000
-16.945469 39.080496 0.000000
-20.140269 44.548521 0.000000
-23.333262 50.000000 0.000000
44.536391 -13.303500 0.000000
50.000000 -16.666589 0.000000
39.080041 -9.966557 0.000000
33.646906 -6.640816 0.000000
28.235902 -3.307214 0.000000
22.845674 0.018623 0.000000
17.533621 3.364237 0.000000
12.217636 6.599844 0.000000
6.732182 10.870375 0.000000
3.301135 17.194986 0.000000
-0.081748 22.850605 0.000000
-3.518306 28.312480 0.000000
-6.831114 33.774265 0.000000
-10.137130 39.170595 0.000000
-13.435415 44.563632 0.000000
-16.666601 50.000000 0.000000
44.554492 -6.654592 0.000000
50.000000 -9.999944 0.000000
39.123529 -3.321248 0.000000
33.713495 0.008779 0.000000
28.333198 3.343779 0.000000
23.002349 6.693848 0.000000
17.831684 10.024215 0.000000
12.654160 12.224117 0.000000
9.792192 17.235334 0.000000
6.477317 22.722418 0.000000
3.188452 28.269324 0.000000
-0.115850 33.734644 0.000000
-3.425087 39.168546 0.000000
-6.725218 44.581897 0.000000
-9.999953 50.000000 0.000000
44.575777 0.001955 0.000000
50.000000 -3.333313 0.000000
39.166873 3.331937 0.000000
33.779197 6.655573 0.000000
28.424250 9.995181 0.000000
23.046274 13.416614 0.000000
16.947542 17.021682 0.000000
12.901673 22.671423 0.000000
9.814503 28.232376 0.000000
6.604092 33.718708 0.000000
3.286532 39.164424 0.000000
-0.029840 44.584641 0.000000
-3.333317 50.000000 0.000000
44.586793 6.665436 0.000000
50.000000 3.333315 0.000000
39.198005 9.981892 0.000000
33.843335 13.277156 0.000000
28.541628 16.584999 0.000000
23.386397 20.084403 0.000000
18.531640 23.111790 0.000000
16.393494 28.298803 0.000000
13.328853 33.754808 0.000000
9.986445 39.181974 0.000000
6.665872 44.584436 0.000000
3.333316 50.000000 0.000000
44.608916 13.317734 0.000000
50.000000 9.999950 0.000000
39.251320 16.612364 0.000000
33.931750 19.862865 0.000000
28.612113 22.926012 0.000000
23.279568 27.207427 0.000000
19.901236 33.303203 0.000000
16.573610 39.041014 0.000000
13.268121 44.526835 0.000000
9.999949 50.000000 0.000000
44.632074 19.972757 0.000000
50.000000 16.666598 0.000000
39.298431 23.262011 0.000000
34.043678 26.514644 0.000000
28.965617 28.539441 0.000000
26.202236 33.410095 0.000000
23.066569 38.968852 0.000000
19.888346 44.507088 0.000000
16.666592 50.000000 0.000000
44.639750 26.642713 0.000000
50.000000 23.333259 0.000000
39.293270 29.966557 0.000000
33.212249 33.371176 0.000000
29.411945 39.045797 0.000000
26.422180 44.505950 0.000000
23.333251 50.000000 0.000000
44.774878 33.291646 0.000000
50.000000 29.999933 0.000000
39.738087 36.596201 0.000000
34.830906 39.525491 0.000000
32.833657 44.514184 0.000000
29.999926 50.000000 0.000000
44.978139 39.877738 0.000000
50.000000 36.666618 0.000000
39.734688 43.968904 0.000000
36.666612 50.000000 0.000000
45.621171 45.409668 0.000000
50.000000 43.333307 0.000000
43.333301 50.000000 0.000000
50.000000 50.000000 0.000000
CELLS 578 2312
3 1 0 2
3 0 3 2
3 4 1 6
3 6 1 2
3 3 5 7
3 3 7 2
3 6 2 7
3 9 4 10
3 10 4 6
3 5 8 11
3 7 5 11
3 10 6 12
3 12 6 7
3 7 11 13
3 7 13 12
3 8 14 15
3 11 8 15
3 16 9 17
3 17 9 10
3 17 10 18
3 18 10 12
3 11 15 19
3 13 11 19
3 18 12 20
3 13 19 20
3 20 12 13
3 14 22 24
3 15 14 24
3 15 24 25
3 19 15 25
3 21 16 26
3 26 16 17
3 26 17 27
3 27 17 18
3 27 18 28
3 28 18 20
3 19 25 29
3 19 29 20
3 28 20 30
3 30 20 29
3 31 21 32
3 32 21 26
3 22 23 36
3 24 22 36
3 23 34 37
3 36 23 37
3 24 36 38
3 25 24 38
3 25 38 39
3 29 25 39
3 32 26 40
3 40 26 27
3 40 27 41
3 41 27 28
3 41 28 42
3 42 28 30
3 29 39 43
3 29 43 30
3 42 30 43
3 33 31 44
3 44 31 32
3 44 32 45
3 45 32 40
3 46 33 47
3 47 33 44
3 34 35 50
3 37 34 50
3 35 48 51
3 50 35 51
3 36 37 52
3 38 36 52
3 37 50 53
3 52 37 53
3 38 52 54
3 39 38 54
3 39 54 55
3 43 39 55
3 45 40 56
3 56 40 41
3 56 41 57
3 57 41 42
3 57 42 58
3 58 42 43
3 43 55 59
3 43 59 58
3 47 44 60
3 60 44 45
3 60 45 61
3 61 45 56
3 62 46 63
3 63 46 47
3 63 47 64
3 64 47 60
3 48 49 68
3 51 48 68
3 49 66 69
3 68 49 69
3 50 51 70
3 53 50 70
3 51 68 71
3 70 51 71
3 52 53 72
3 54 52 72
3 53 70 73
3 72 53 73
3 54 72 74
3 55 54 74
3 55 74 75
3 59 55 75
3 61 56 76
3 76 56 57
3 76 57 77
3 77 57 58
3 77 58 78
3 59 75 78
3 78 58 59
3 64 60 79
3 79 60 61
3 79 61 80
3 80 61 76
3 65 62 81
3 81 62 63
3 81 63 82
3 82 63 64
3 82 64 83
3 83 64 79
3 84 65 85
3 85 65 81
3 66 67 89
3 69 66 89
3 67 87 90
3 89 67 90
3 68 69 91
3 71 68 91
3 69 89 92
3 91 69 92
3 70 71 93
3 73 70 93
3 71 91 94
3 93 71 94
3 72 73 95
3 74 72 95
3 73 93 96
3 95 73 96
3 74 95 97
3 75 74 97
3 75 97 98
3 78 75 98
3 80 76 99
3 99 76 77
3 99 77 100
3 100 77 78
3 100 78 101
3 98 101 78
3 83 79 102
3 102 79 80
3 102 80 103
3 103 80 99
3 85 81 104
3 104 81 82
3 105 83 102
3 104 82 106
3 106 82 83
3 106 83 105
3 86 84 107
3 107 84 85
3 107 85 108
3 108 85 104
3 109 86 107
3 110 86 109
3 87 88 112
3 90 87 112
3 112 88 113
3 88 114 113
3 90 112 115
3 89 90 116
3 92 89 116
3 116 90 115
3 91 92 117
3 94 91 117
3 92 116 118
3 117 92 118
3 93 94 119
3 96 93 119
3 94 117 120
3 119 94 120
3 95 96 121
3 97 95 121
3 96 119 122
3 121 96 122
3 97 121 123
3 98 97 123
3 98 123 124
3 98 124 101
3 103 99 125
3 125 99 100
3 125 100 126
3 126 100 101
3 126 101 124
3 105 102 127
3 127 102 103
3 127 103 128
3 128 103 125
3 129 105 127
3 108 104 130
3 130 104 106
3 130 106 131
3 131 106 105
3 131 105 129
3 108 130 132
3 109 107 133
3 133 107 108
3 133 108 134
3 108 132 134
3 135 109 133
3 111 110 136
3 136 110 109
3 136 109 135
3 137 111 136
3 138 111 137
3 112 113 139
3 115 112 139
3 114 140 113
3 140 139 113
3 139 141 115
3 116 115 142
3 118 116 142
3 142 115 141
3 117 118 143
3 120 117 143
3 118 142 144
3 143 118 144
3 119 120 145
3 122 119 145
3 120 143 146
3 145 120 146
3 121 122 147
3 123 121 147
3 122 145 148
3 147 122 148
3 123 147 149
3 124 123 149
3 124 149 150
3 151 126 124
3 124 150 151
3 128 125 152
3 152 125 126
3 152 126 151
3 129 127 153
3 153 127 128
3 128 152 154
3 153 128 154
3 155 129 153
3 131 129 156
3 156 129 155
3 132 130 157
3 130 131 157
3 157 131 158
3 131 156 158
3 132 157 159
3 132 159 134
3 135 133 160
3 160 133 134
3 160 134 159
3 136 135 161
3 135 160 161
3 162 137 136
3 161 162 136
3 163 138 137
3 162 163 137
3 139 164 141
3 140 165 139
3 139 165 164
3 141 164 166
3 141 166 142
3 166 167 142
3 144 142 167
3 167 168 144
3 143 144 168
3 146 143 168
3 168 169 146
3 145 146 170
3 148 145 170
3 170 146 169
3 147 148 171
3 149 147 171
3 148 170 172
3 171 148 172
3 173 151 150
3 149 171 174
3 150 149 174
3 150 174 175
3 150 175 173
3 154 152 176
3 152 151 176
3 176 151 173
3 154 176 177
3 155 153 178
3 177 178 154
3 154 178 153
3 156 155 179
3 155 178 179
3 180 158 156
3 179 180 156
3 181 159 157
3 180 181 158
3 181 157 158
3 182 160 159
3 181 182 159
3 183 161 160
3 182 183 160
3 184 162 161
3 184 161 183
3 185 163 162
3 184 185 162
3 164 186 166
3 165 187 164
3 164 187 186
3 166 186 188
3 166 188 167
3 167 188 189
3 167 189 168
3 168 189 190
3 168 190 169
3 169 190 191
3 169 191 170
3 192 172 170
3 170 191 192
3 192 193 172
3 171 172 193
3 174 171 193
3 194 173 175
3 176 173 194
3 175 174 195
3 193 195 174
3 195 196 175
3 175 196 194
3 197 177 176
3 194 197 176
3 198 178 177
3 197 198 177
3 199 179 178
3 198 199 178
3 200 180 179
3 199 200 179
3 201 181 180
3 200 201 180
3 202 182 181
3 201 202 181
3 203 183 182
3 202 203 182
3 204 184 183
3 203 204 183
3 205 185 184
3 204 205 184
3 186 206 188
3 187 207 186
3 186 207 206
3 188 206 208
3 188 208 189
3 189 208 209
3 189 209 190
3 190 209 210
3 190 210 191
3 191 210 211
3 191 211 192
3 192 211 212
3 192 212 193
3 193 212 213
3 193 213 195
3 214 197 194
3 214 194 196
3 195 213 215
3 195 215 196
3 196 215 214
3 216 198 197
3 214 216 197
3 217 199 198
3 216 217 198
3 218 200 199
3 217 218 199
3 219 201 200
3 218 219 200
3 220 202 201
3 219 220 201
3 221 203 202
3 220 221 202
3 222 204 203
3 221 222 203
3 223 205 204
3 222 223 204
3 206 224 208
3 207 225 206
3 206 225 224
3 208 224 226
3 208 226 209
3 209 226 227
3 209 227 210
3 210 227 228
3 210 228 211
3 211 228 229
3 211 229 212
3 212 229 230
3 212 230 213
3 213 230 231
3 213 231 215
3 232 216 214
3 215 231 232
3 232 214 215
3 233 217 216
3 232 233 216
3 234 218 217
3 233 234 217
3 235 219 218
3 234 235 218
3 236 220 219
3 235 236 219
3 237 221 220
3 236 237 220
3 238 222 221
3 237 238 221
3 239 223 222
3 238 239 222
3 224 240 226
3 225 241 224
3 224 241 240
3 226 240 242
3 226 242 227
3 227 242 243
3 227 243 228
3 228 243 244
3 228 244 229
3 244 245 229
3 229 245 230
3 230 245 246
3 230 246 231
3 231 246 247
3 231 247 232
3 248 233 232
3 248 232 247
3 249 234 233
3 248 249 233
3 250 235 234
3 249 250 234
3 251 236 235
3 250 251 235
3 252 237 236
3 251 252 236
3 253 238 237
3 252 253 237
3 254 239 238
3 253 254 238
3 240 255 242
3 241 256 240
3 240 256 255
3 242 255 257
3 242 257 243
3 243 257 258
3 243 258 244
3 244 258 259
3 244 259 245
3 245 259 260
3 245 260 246
3 246 260 261
3 246 261 247
3 248 247 261
3 262 249 248
3 261 262 248
3 263 250 249
3 262 263 249
3 264 251 250
3 263 264 250
3 265 252 251
3 264 265 251
3 266 253 252
3 265 266 252
3 267 254 253
3 266 267 253
3 255 268 257
3 256 269 255
3 255 269 268
3 257 268 270
3 257 270 258
3 258 270 271
3 258 271 259
3 259 271 272
3 259 272 260
3 260 272 273
3 260 273 261
3 274 262 261
3 261 273 274
3 275 263 262
3 274 275 262
3 276 264 263
3 275 276 263
3 277 265 264
3 276 277 264
3 278 266 265
3 277 278 265
3 279 267 266
3 278 279 266
3 268 280 270
3 269 281 268
3 268 281 280
3 270 280 282
3 270 282 271
3 271 282 283
3 271 283 272
3 283 284 272
3 272 284 273
3 285 275 274
3 273 284 285
3 285 274 273
3 286 276 275
3 285 286 275
3 287 277 276
3 286 287 276
3 288 278 277
3 287 288 277
3 289 279 278
3 288 289 278
3 280 290 282
3 281 291 280
3 280 291 290
3 282 290 292
3 282 292 283
3 283 292 293
3 283 293 284
3 284 293 294
3 284 294 285
3 295 286 285
3 295 285 294
3 296 287 286
3 295 296 286
3 297 288 287
3 296 297 287
3 298 289 288
3 297 298 288
3 290 299 292
3 291 300 290
3 290 300 299
3 292 299 301
3 292 301 293
3 293 301 302
3 293 302 294
3 294 302 295
3 303 296 295
3 303 295 302
3 304 297 296
3 303 304 296
3 305 298 297
3 304 305 297
3 299 306 301
3 300 307 299
3 299 307 306
3 301 306 308
3 301 308 302
3 309 303 302
3 302 308 309
3 310 304 303
3 309 310 303
3 311 305 304
3 310 311 304
3 306 312 308
3 307 313 306
3 306 313 312
3 314 310 309
3 308 312 314
3 314 309 308
3 315 311 310
3 314 315 310
3 312 316 314
3 313 317 312
3 312 317 316
3 318 315 314
3 318 314 316
3 317 319 316
3 319 318 316
CELL_TYPES 578
5
5
5
5
5
5
5
5
5
5
5
5
5
5
5
5
5
5
5
5
5
5
5
5
5
5
5
5
5
5
5
5
5
5
5
5
5
5
5
5
5
5
5
5
5
5
5
5
5
5
5
5
5
5
5
5
5
5
5
5
5
5
5
5
5
5
5
5
5
5
5
5
5
5
5
5
5
5
5
5
5
5
5
5
5
5
5
5
5
5
5
5
5
5
5
5
5
5
5
5
5
5
5
5
5
5
5
5
5
5
5
5
5
5
5
5
5
5
5
5
5
5
5
5
5
5
5
5
5
5
5
5
5
5
5
5
5
5
5
5
5
5
5
5
5
5
5
5
5
5
5
5
5
5
5
5
5
5
5
5
5
5
5
5
5
5
5
5
5
5
5
5
5
5
5
5
5
5
5
5
5
5
5
5
5
5
5
5
5
5
5
5
5
5
5
5
5
5
5
5
5
5
5
5
5
5
5
5
5
5
5
5
5
5
5
5
5
5
5
5
5
5
5
5
5
5
5
5
5
5
5
5
5
5
5
5
5
5
5
5
5
5
5
5
5
5
5
5
5
5
5
5
5
5
5
5
5
5
5
5
5
5
5
5
5
5
5
5
5
5
5
5
5
5
5
5
5
5
5
5
5
5
5
5
5
5
5
5
5
5
5
5
5
5
5
5
5
5
5
5
5
5
5
5
5
5
5
5
5
5
5
5
5
5
5
5
5
5
5
5
5
5
5
5
5
5
5
5
5
5
5
5
5
5
5
5
5
5
5
5
5
5
5
5
5
5
5
5
5
5
5
5
5
5
5
5
5
5
5
5
5
5
5
5
5
5
5
5
5
5
5
5
5
5
5
5
5
5
5
5
5
5
5
5
5
5
5
5
5
5
5
5
5
5
5
5
5
5
5
5
5
5
5
5
5
5
5
5
5
5
5
5
5
5
5
5
5
5
5
5
5
5
5
5
5
5
5
5
5
5
5
5
5
5
5
5
5
5
5
5
5
5
5
5
5
5
5
5
5
5
5
5
5
5
5
5
5
5
5
5
5
5
5
5
5
5
5
5
5
5
5
5
5
5
5
5
5
5
5
5
5
5
5
5
5
5
5
5
5
5
5
5
5
5
5
5
5
5
5
5
5
5
5
5
5
5
5
5
5
5
5
5
5
5
5
5
5
5
5
5
5
5
5
5
5
5
5
5
5
5
5
5
5
5
5
5
5
5
5
5
5
5
5
5
5
5
5
5
5
5
5
5
5
5
5
5
5
5
5
5
5
5
5
5
5
5
5
5
5
5
5
5
5
5
5
5
5
5
POINT_DATA 320
SCALARS theta_e float 1
LOOKUP_TABLE default
1.000000
1.000000
1.000000
1.000000
1.000000
1.000000
1.000000
1.000000
1.000000
1.000000
1.000000
1.000000
1.000000
1.000000
1.000000
1.000000
1.000000
1.000000
1.000000
1.000000
1.000000
1.000000
1.000000
1.000000
1.000000
1.000000
1.000000
1.000000
1.000000
1.000000
1.000000
1.000000
1.000000
1.000000
1.000000
1.000000
1.000000
1.000000
1.000000
1.000000
1.000000
1.000000
1.000000
1.000000
1.000000
1.000000
1.000000
1.000000
1.000000
1.000000
1.000000
1.000000
1.000000
1.000000
1.000000
1.000000
1.000000
1.000000
1.000000
1.000000
1.000000
1.000000
1.000000
1.000000
1.000000
1.000000
1.000000
1.000000
1.000000
1.000000
1.000000
1.000000
1.000000
1.000000
1.000000
1.000000
1.000000
1.000000
1.000000
1.000000
1.000000
1.000000
1.000000
1.000000
1.000000
1.000000
1.000000
1.000000
1.000000
1.000000
1.000000
1.000000
1.000000
1.000000
1.000000
1.000000
1.000000
1.000000
1.000001
1.000000
1.000000
1.000000
1.000000
1.000000
1.000000
1.000000
1.000000
1.000000
1.000000
1.000000
1.000000
1.000000
1.000000
1.000000
1.000000
1.000000
1.000000
1.000000
1.000000
1.000000
1.000000
1.000000
1.000000
1.000001
0.999998
1.000000
0.999999
1.000000
1.000000
1.000000
1.000000
1.000000
1.000000
1.000000
1.000000
1.000000
1.000000
1.000000
1.000000
1.000000
1.000000
1.000000
1.000000
1.000000
1.000000
1.000000
1.000000
1.000000
1.000000
0.999998
0.999991
0.999994
0.999998
1.000000
0.999999
1.000000
1.000000
1.000000
1.000000
1.000000
1.000000
1.000000
1.000000
1.000000
1.000000
1.000000
1.000000
1.000000
1.000000
1.000000
1.000000
0.999999
1.000000
0.999988
0.999993
0.999988
0.999993
0.999998
1.000001
1.000000
1.000000
1.000000
1.000001
1.000000
1.000000
1.000000
1.000000
1.000000
1.000000
1.000000
1.000000
1.000000
1.000000
0.999997
0.999988
0.999991
0.999988
0.999993
1.000000
1.000000
1.000000
1.000000
1.000001
1.000001
1.000000
1.000000
1.000000
1.000000
1.000000
1.000000
1.000000
1.000000
1.000000
0.999997
0.999991
0.999993
0.999998
1.000001
1.000000
1.000000
1.000001
1.000001
1.000001
1.000000
1.000000
1.000000
1.000000
1.000000
1.000000
1.000000
1.000000
0.999999
0.999998
1.000001
1.000000
1.000000
1.000001
1.000001
1.000001
1.000001
1.000000
1.000000
1.000000
1.000000
1.000000
1.000000
1.000000
1.000001
1.000001
1.000001
1.000000
1.000001
1.000001
1.000001
1.000001
1.000000
1.000000
1.000000
1.000000
1.000001
1.000001
1.000001
1.000001
1.000001
1.000001
1.000001
1.000001
1.000001
1.000000
1.000000
1.000000
1.000000
1.000000
1.000001
1.000001
1.000001
1.000001
1.000001
1.000001
1.000001
1.000000
1.000000
1.000000
1.000000
1.000000
1.000001
1.000001
1.000001
1.000001
1.000001
1.000000
1.000000
1.000000
1.000000
1.000000
1.000000
1.000001
1.000001
1.000001
1.000000
1.000000
1.000000
1.000000
1.000001
1.000001
1.000001
1.000000
1.000000
1.000000
1.000000
1.000001
1.000001
1.000000
1.000000
1.000001
1.000001
1.000001
1.000001
1.000001
1.000001
VECTORS fa_u float
0.000000 0.000000 0.000000
0.000000 0.000000 0.000000
0.000000 0.000000 0.000000
0.000000 0.000000 0.000000
0.000000 0.000000 0.000000
0.000000 0.000000 0.000000
0.000000 0.000000 0.000000
0.000000 0.000000 0.000000
0.000000 0.000000 0.000000
0.000000 0.000000 0.000000
0.000000 0.000000 0.000000
0.000000 0.000000 0.000000
0.000000 0.000000 0.000000
0.000000 0.000000 0.000000
0.000000 0.000000 0.000000
0.000000 0.000000 0.000000
0.000000 0.000000 0.000000
0.000000 0.000000 0.000000
0.000000 0.000000 0.000000
0.000000 0.000000 0.000000
0.000000 0.000000 0.000000
0.000000 0.000000 0.000000
0.000000 0.000000 0.000000
0.000000 0.000000 0.000000
0.000000 0.000000 0.000000
0.000000 0.000000 0.000000
0.000000 0.000000 0.000000
0.000000 0.000000 0.000000
0.000000 0.000000 0.000000
0.000000 0.000000 0.000000
0.000000 0.000000 0.000000
0.000000 0.000000 0.000000
0.000000 0.000000 0.000000
0.000000 0.000000 0.000000
0.000000 0.000000 0.000000
0.000000 0.000000 0.000000
0.000000 0.000000 0.000000
0.000000 0.000000 0.000000
0.000000 0.000000 0.000000
0.000000 0.000000 0.000000
0.000000 0.000000 0.000000
0.000000 0.000000 0.000000
0.000000 0.000000 0.000000
0.000000 0.000000 0.000000
0.000000 0.000000 0.000000
0.000000 0.000000 0.000000
0.000000 0.000000 0.000000
0.000000 0.000000 0.000000
0.000000 0.000000 0.000000
0.000000 0.000000 0.000000
0.000000 0.000000 0.000000
0.000000 0.000000 0.000000
0.000000 0.000000 0.000000
0.000000 0.000000 0.000000
0.000000 0.000000 0.000000
0.000000 0.000000 0.000000
0.000000 0.000000 0.000000
0.000000 0.000000 0.000000
0.000000 0.000000 0.000000
0.000000 0.000000 0.000000
0.000000 0.000000 0.000000
0.000000 0.000000 0.000000
0.000000 0.000000 0.000000
0.000000 0.000000 0.000000
0.000000 0.000000 0.000000
0.000000 0.000000 0.000000
0.000000 0.000000 0.000000
0.000000 0.000000 0.000000
0.000000 0.000000 0.000000
0.000000 0.000000 0.000000
0.000000 0.000000 0.000000
0.000000 0.000000 0.000000
0.000000 0.000000 0.000000
0.000000 0.000000 0.000000
0.000000 0.000000 0.000000
0.000000 0.000000 0.000000
0.000000 0.000000 0.000000
0.000000 0.000000 0.000000
0.000000 0.000000 0.000000
0.000000 0.000000 0.000000
0.000000 0.000000 0.000000
0.000000 0.000000 0.000000
0.000000 0.000000 0.000000
0.000000 0.000000 0.000000
0.000000 0.000000 0.000000
0.000000 0.000000 0.000000
0.000000 0.000000 0.000000
0.000000 0.000000 0.000000
0.000000 0.000000 0.000000
0.000000 0.000000 0.000000
0.000000 0.000000 0.000000
0.000000 0.000000 0.000000
0.000000 0.000000 0.000000
0.000000 0.000000 0.000000
0.000000 0.000000 0.000000
0.000000 0.000000 0.000000
0.000000 0.000000 0.000000
0.000000 0.000000 0.000000
0.000000 0.000000 0.000000
0.000000 0.000000 0.000000
0.000000 0.000000 0.000000
0.000000 0.000000 0.000000
0.000000 0.000000 0.000000
0.000000 0.000000 0.000000
0.000000 0.000000 0.000000
0.000000 0.000000 0.000000
0.000000 0.000000 0.000000
0.000000 0.000000 0.000000
0.000000 0.000000 0.000000
0.000000 0.000000 0.000000
0.000000 0.000000 0.000000
0.000000 0.000000 0.000000
0.000000 0.000000 0.000000
0.000000 0.000000 0.000000
0.000000 0.000000 0.000000
0.000000 0.000000 0.000000
0.000000 0.000000 0.000000
0.000000 0.000000 0.000000
0.000000 0.000000 0.000000
0.000000 0.000000 0.000000
0.000000 0.000000 0.000000
0.000000 0.000000 0.000000
0.000000 0.000000 0.000000
0.000000 0.000000 0.000000
0.000000 0.000000 0.000000
0.000000 0.000000 0.000000
0.000000 0.000000 0.000000
0.000000 0.000000 0.000000
0.000000 0.000000 0.000000
0.000000 0.000000 0.000000
0.000000 0.000000 0.000000
0.000000 0.000000 0.000000
0.000000 0.000000 0.000000
0.000000 0.000000 0.000000
0.000000 0.000000 0.000000
0.000000 0.000000 0.000000
0.000000 0.000000 0.000000
0.000000 0.000000 0.000000
0.000000 0.000000 0.000000
0.000000 0.000000 0.000000
0.000000 0.000000 0.000000
0.000000 0.000000 0.000000
0.000000 0.000000 0.000000
0.000000 0.000000 0.000000
0.000000 0.000000 0.000000
0.000000 0.000000 0.000000
0.000000 0.000000 0.000000
0.000000 0.000000 0.000000
0.000000 0.000000 0.000000
0.000000 0.000000 0.000000
0.000000 0.000000 0.000000
0.000000 0.000000 0.000000
0.000000 0.000000 0.000000
0.000000 0.000000 0.000000
0.000000 0.000000 0.000000
0.000000 0.000000 0.000000
0.000000 0.000000 0.000000
0.000000 0.000000 0.000000
0.000000 0.000000 0.000000
0.000000 0.000000 0.000000
0.000000 0.000000 0.000000
0.000000 0.000000 0.000000
0.000000 0.000000 0.000000
0.000000 0.000000 0.000000
0.000000 0.000000 0.000000
0.000000 0.000000 0.000000
0.000000 0.000000 0.000000
0.000000 0.000000 0.000000
0.000000 0.000000 0.000000
0.000000 0.000000 0.000000
0.000000 0.000000 0.000000
0.000000 0.000000 0.000000
0.000000 0.000000 0.000000
0.000000 0.000000 0.000000
0.000000 0.000000 0.000000
0.000000 0.000000 0.000000
0.000000 0.000000 0.000000
0.000000 0.000000 0.000000
0.000000 0.000000 0.000000
0.000000 0.000000 0.000000
0.000000 0.000000 0.000000
0.000000 0.000000 0.000000
0.000000 0.000000 0.000000
0.000000 0.000000 0.000000
0.000000 0.000000 0.000000
0.000000 0.000000 0.000000
0.000000 0.000000 0.000000
0.000000 0.000000 0.000000
0.000000 0.000000 0.000000
0.000000 0.000000 0.000000
0.000000 0.000000 0.000000
0.000000 0.000000 0.000000
0.000000 0.000000 0.000000
0.000000 0.000000 0.000000
0.000000 0.000000 0.000000
0.000000 0.000000 0.000000
0.000000 0.000000 0.000000
0.000000 0.000000 0.000000
0.000000 0.000000 0.000000
0.000000 0.000000 0.000000
0.000000 0.000000 0.000000
0.000000 0.000000 0.000000
0.000000 0.000000 0.000000
0.000000 0.000000 0.000000
0.000000 0.000000 0.000000
0.000000 0.000000 0.000000
0.000000 0.000000 0.000000
0.000000 0.000000 0.000000
0.000000 0.000000 0.000000
0.000000 0.000000 0.000000
0.000000 0.000000 0.000000
0.000000 0.000000 0.000000
0.000000 0.000000 0.000000
0.000000 0.000000 0.000000
0.000000 0.000000 0.000000
0.000000 0.000000 0.000000
0.000000 0.000000 0.000000
0.000000 0.000000 0.000000
0.000000 0.000000 0.000000
0.000000 0.000000 0.000000
0.000000 0.000000 0.000000
0.000000 0.000000 0.000000
0.000000 0.000000 0.000000
0.000000 0.000000 0.000000
0.000000 0.000000 0.000000
0.000000 0.000000 0.000000
0.000000 0.000000 0.000000
0.000000 0.000000 0.000000
0.000000 0.000000 0.000000
0.000000 0.000000 0.000000
0.000000 0.000000 0.000000
0.000000 0.000000 0.000000
0.000000 0.000000 0.000000
0.000000 0.000000 0.000000
0.000000 0.000000 0.000000
0.000000 0.000000 0.000000
0.000000 0.000000 0.000000
0.000000 0.000000 0.000000
0.000000 0.000000 0.000000
0.000000 0.000000 0.000000
0.000000 0.000000 0.000000
0.000000 0.000000 0.000000
0.000000 0.000000 0.000000
0.000000 0.000000 0.000000
0.000000 0.000000 0.000000
0.000000 0.000000 0.000000
0.000000 0.000000 0.000000
0.000000 0.000000 0.000000
0.000000 0.000000 0.000000
0.000000 0.000000 0.000000
0.000000 0.000000 0.000000
0.000000 0.000000 0.000000
0.000000 0.000000 0.000000
0.000000 0.000000 0.000000
0.000000 0.000000 0.000000
0.000000 0.000000 0.000000
0.000000 0.000000 0.000000
0.000000 0.000000 0.000000
0.000000 0.000000 0.000000
0.000000 0.000000 0.000000
0.000000 0.000000 0.000000
0.000000 0.000000 0.000000
0.000000 0.000000 0.000000
0.000000 0.000000 0.000000
0.000000 0.000000 0.000000
0.000000 0.000000 0.000000
0.000000 0.000000 0.000000
0.000000 0.000000 0.000000
0.000000 0.000000 0.000000
0.000000 0.000000 0.000000
0.000000 0.000000 0.000000
0.000000 0.000000 0.000000
0.000000 0.000000 0.000000
0.000000 0.000000 0.000000
0.000000 0.000000 0.000000
0.000000 0.000000 0.000000
0.000000 0.000000 0.000000
0.000000 0.000000 0.000000
0.000000 0.000000 0.000000
0.000000 0.000000 0.000000
0.000000 0.000000 0.000000
0.000000 0.000000 0.000000
0.000000 0.000000 0.000000
0.000000 0.000000 0.000000
0.000000 0.000000 0.000000
0.000000 0.000000 0.000000
0.000000 0.000000 0.000000
0.000000 0.000000 0.000000
0.000000 0.000000 0.000000
0.000000 0.000000 0.000000
0.000000 0.000000 0.000000
0.000000 0.000000 0.000000
0.000000 0.000000 0.000000
0.000000 0.000000 0.000000
0.000000 0.000000 0.000000
0.000000 0.000000 0.000000
0.000000 0.000000 -50.000000
-50.000000 0.000000 -50.000000
-43.333311 0.000000 -45.688273
-45.491046 0.000000 -43.333310
-50.000000 0.000000 -50.000000
-36.666621 0.000000 -36.666626
-50.000000 0.000000 -45.080997
-39.969713 0.000000 -40.027014
-44.152167 0.000000 -29.999942
-50.000000 0.000000 -50.000000
-29.999934 0.000000 -44.846966
-33.448852 0.000000 -33.144789
-44.675566 0.000000 -39.868977
-36.786908 0.000000 -35.128482
-39.801157 0.000000 -23.333266
-50.000000 0.000000 -26.539026
-44.666683 0.000000 -50.000000
-23.333257 0.000000 -44.665222
-26.803836 0.000000 -39.364129
-30.225587 0.000000 -29.606081
-39.359243 0.000000 -33.368030
-33.655305 0.000000 -50.000000
-16.666594 0.000000 -16.666605
-50.000000 0.000000 -9.999958
