# vtk DataFile Version 2.0
CellBP Time: 3.88
ASCII
DATASET UNSTRUCTURED_GRID
POINTS 320 double
-50.000000 -50.000000 0.000000
-50.000000 -43.332665 0.000000
-45.688498 -45.491239 0.000000
-43.332566 -50.000000 0.000000
-50.000000 -36.665289 0.000000
-36.665323 -50.000000 0.000000
-45.081240 -39.969849 0.000000
-40.027363 -44.152369 0.000000
-29.998028 -50.000000 0.000000
-50.000000 -29.997977 0.000000
-44.847205 -33.448968 0.000000
-33.145054 -44.675787 0.000000
-39.869275 -36.787058 0.000000
-35.128836 -39.801427 0.000000
-23.330998 -50.000000 0.000000
-26.539305 -44.666790 0.000000
-50.000000 -23.330964 0.000000
-44.665322 -26.803997 0.000000
-39.364349 -30.225753 0.000000
-29.606476 -39.359459 0.000000
-33.368441 -33.655558 0.000000
-50.000000 -16.664388 0.000000
-16.664467 -50.000000 0.000000
-9.998444 -50.000000 0.000000
-19.965067 -44.588740 0.000000
-23.216040 -39.114720 0.000000
-44.691853 -20.096986 0.000000
-39.367893 -23.528168 0.000000
-34.106257 -26.937065 0.000000
-26.384611 -33.577396 0.000000
-29.156397 -28.926739 0.000000
-50.000000 -9.998194 0.000000
-44.666329 -13.410247 0.000000
-50.000000 -3.332483 0.000000
-3.332839 -50.000000 0.000000
3.332662 -50.000000 0.000000
-13.343841 -44.598959 0.000000
-6.684836 -44.610598 0.000000
-16.693840 -39.153198 0.000000
-20.107076 -33.342647 0.000000
-39.338140 -16.804687 0.000000
-34.018852 -20.274583 0.000000
-28.781164 -23.449145 0.000000
-23.510654 -27.350637 0.000000
-44.635375 -6.705533 0.000000
-39.293096 -10.101759 0.000000
-50.000000 3.332978 0.000000
-44.626643 -0.015501 0.000000
9.998371 -50.000000 0.000000
16.664485 -50.000000 0.000000
-0.016143 -44.618681 0.000000
6.651703 -44.635398 0.000000
-10.044828 -39.222552 0.000000
-3.368261 -39.220294 0.000000
-13.484296 -33.798573 0.000000
-16.709201 -28.271539 0.000000
-33.947995 -13.513756 0.000000
-28.602266 -16.892187 0.000000
-23.292192 -20.313173 0.000000
-18.660707 -23.283808 0.000000
-39.267433 -3.392705 0.000000
-33.904515 -6.796733 0.000000
-50.000000 9.998530 0.000000
-44.606647 6.673606 0.000000
-39.260786 3.325751 0.000000
-50.000000 16.664525 0.000000
23.331014 -50.000000 0.000000
29.997962 -50.000000 0.000000
13.317610 -44.662948 0.000000
19.989751 -44.700103 0.000000
3.307652 -39.245119 0.000000
9.971841 -39.290341 0.000000
-6.735503 -33.791345 0.000000
-0.032217 -33.829504 0.000000
-10.095960 -28.292807 0.000000
-13.122703 -22.896949 0.000000
-28.531943 -10.214487 0.000000
-23.067361 -13.663568 0.000000
-16.978409 -17.211271 0.000000
-33.884434 -0.065460 0.000000
-28.562943 -3.579629 0.000000
-44.564043 13.380722 0.000000
-39.189974 10.015149 0.000000
-33.905602 6.616058 0.000000
-50.000000 23.330907 0.000000
-44.557484 20.138386 0.000000
-50.000000 29.998045 0.000000
36.665220 -50.000000 0.000000
43.332582 -50.000000 0.000000
26.663360 -44.745347 0.000000
33.315380 -44.876054 0.000000
16.631696 -39.357684 0.000000
23.328323 -39.437137 0.000000
6.642905 -33.879549 0.000000
13.290600 -33.965441 0.000000
-3.346064 -28.363392 0.000000
3.357846 -28.451213 0.000000
-6.626127 -22.845325 0.000000
-9.965311 -17.315176 0.000000
-23.182219 -7.014419 0.000000
-17.812672 -10.334848 0.000000
-12.837876 -12.601787 0.000000
-28.607402 3.088638 0.000000
-23.265975 -0.469239 0.000000
-39.038667 16.746409 0.000000
-28.720548 9.926043 0.000000
-33.761120 13.318175 0.000000
-44.521701 26.717131 0.000000
-38.467765 23.892653 0.000000
-44.632531 33.085783 0.000000
-50.000000 36.665575 0.000000
-50.000000 43.332758 0.000000
39.922454 -45.069679 0.000000
45.474802 -45.660553 0.000000
50.000000 -50.000000 0.000000
36.626848 -39.982033 0.000000
30.012445 -39.458672 0.000000
19.904194 -34.092891 0.000000
26.585073 -34.319568 0.000000
9.988585 -28.513004 0.000000
16.610691 -28.660229 0.000000
0.051070 -22.961672 0.000000
6.812113 -23.156319 0.000000
-3.398856 -17.296931 0.000000
-6.827475 -10.941727 0.000000
-17.875481 -3.819086 0.000000
-12.550378 -7.034481 0.000000
-23.309057 6.071038 0.000000
-18.035247 2.444755 0.000000
-23.123064 12.096043 0.000000
-33.572130 19.788944 0.000000
-27.941572 16.885994 0.000000
-33.293075 24.722888 0.000000
-39.473820 30.053087 0.000000
-35.160626 28.137683 0.000000
-39.816246 35.101612 0.000000
-43.991820 39.982462 0.000000
-45.431091 45.685323 0.000000
-50.000000 50.000000 0.000000
44.117340 -39.899147 0.000000
50.000000 -43.332339 0.000000
39.639523 -35.047507 0.000000
33.462949 -33.424623 0.000000
22.984934 -28.818088 0.000000
28.731022 -29.247879 0.000000
13.460753 -23.121794 0.000000
20.054886 -23.439425 0.000000
3.374428 -17.589140 0.000000
10.124449 -17.842027 0.000000
0.157382 -11.878837 0.000000
-2.137310 -6.203459 0.000000
-7.261353 -3.622334 0.000000
-12.517644 -0.806390 0.000000
-18.169254 8.573197 0.000000
-12.947103 5.196523 0.000000
-18.638417 13.751431 0.000000
-21.504066 17.494464 0.000000
-28.940935 23.158930 0.000000
-24.346359 21.554432 0.000000
-30.323787 28.635030 0.000000
-34.253654 33.375621 0.000000
-36.956035 39.578126 0.000000
-39.838719 45.102863 0.000000
-43.332551 50.000000 0.000000
44.585323 -32.972171 0.000000
50.000000 -36.664980 0.000000
39.129344 -29.581949 0.000000
33.500656 -26.367724 0.000000
27.183050 -23.322121 0.000000
23.066714 -18.647907 0.000000
16.991242 -16.981336 0.000000
6.703450 -12.200958 0.000000
12.364803 -12.735537 0.000000
-3.373332 -1.488318 0.000000
3.852714 -6.878646 0.000000
1.023148 -2.120795 0.000000
-6.922370 2.292654 0.000000
-8.323899 7.729177 0.000000
-12.843461 11.929892 0.000000
-15.691427 17.699510 0.000000
-19.287359 22.981945 0.000000
-24.170980 27.354589 0.000000
-27.286365 33.625910 0.000000
-30.406722 39.161119 0.000000
-33.447878 44.738873 0.000000
-36.665150 50.000000 0.000000
44.547741 -26.500017 0.000000
50.000000 -29.997664 0.000000
39.040016 -23.179316 0.000000
33.449637 -19.899991 0.000000
28.039833 -16.573763 0.000000
22.681190 -13.123910 0.000000
17.176054 -9.903912 0.000000
10.845400 -6.606131 0.000000
-1.356326 2.315272 0.000000
6.171392 -1.722953 0.000000
2.896497 1.596031 0.000000
-3.489694 7.068795 0.000000
-6.312989 12.434382 0.000000
-9.629345 17.707777 0.000000
-13.167533 23.113691 0.000000
-17.316761 28.185117 0.000000
-20.570865 33.474286 0.000000
-23.666019 39.063947 0.000000
-26.831069 44.585356 0.000000
-29.998017 50.000000 0.000000
44.528670 -19.930778 0.000000
50.000000 -23.330686 0.000000
39.036236 -16.594158 0.000000
33.576019 -13.281245 0.000000
28.149775 -9.965030 0.000000
22.725156 -6.604708 0.000000
17.264627 -3.335923 0.000000
11.887779 0.206922 0.000000
1.917398 6.239224 0.000000
6.900472 3.763933 0.000000
-0.220853 11.852999 0.000000
-3.256517 17.530733 0.000000
-6.699738 22.977059 0.000000
-10.567426 28.267339 0.000000
-13.724124 33.661168 0.000000
-16.945792 39.080241 0.000000
-20.140770 44.548395 0.000000
-23.331151 50.000000 0.000000
44.536215 -13.303900 0.000000
50.000000 -16.664202 0.000000
39.079841 -9.966799 0.000000
33.646651 -6.641251 0.000000
28.236404 -3.307851 0.000000
22.848425 0.017677 0.000000
17.536652 3.349481 0.000000
12.194208 6.588326 0.000000
6.684845 10.760215 0.000000
3.301912 17.197983 0.000000
-0.080967 22.853242 0.000000
-3.518832 28.312893 0.000000
-6.831535 33.774504 0.000000
-10.137578 39.170522 0.000000
-13.435955 44.563500 0.000000
-16.664705 50.000000 0.000000
44.554238 -6.654874 0.000000
50.000000 -9.998264 0.000000
39.123283 -3.321410 0.000000
33.713354 0.008771 0.000000
28.333271 3.344620 0.000000
23.000442 6.693856 0.000000
17.833613 10.020574 0.000000
12.657117 12.236992 0.000000
9.786845 17.233664 0.000000
6.478837 22.722388 0.000000
3.189090 28.269976 0.000000
-0.115988 33.734823 0.000000
-3.425266 39.168641 0.000000
-6.725603 44.581773 0.000000
-9.998641 50.000000 0.000000
44.575578 0.001832 0.000000
50.000000 -3.332752 0.000000
39.166871 3.331837 0.000000
33.779406 6.655597 0.000000
28.424004 9.994870 0.000000
23.046438 13.416313 0.000000
16.949803 17.023526 0.000000
12.901579 22.668607 0.000000
9.815130 28.231911 0.000000
6.604304 33.718766 0.000000
3.286537 39.164422 0.000000
-0.029928 44.584537 0.000000
-3.332881 50.000000 0.000000
44.586699 6.665568 0.000000
50.000000 3.332711 0.000000
39.198136 9.981973 0.000000
33.843458 13.276977 0.000000
28.542131 16.584540 0.000000
23.387274 20.084315 0.000000
18.531874 23.112913 0.000000
16.392875 28.298598 0.000000
13.328979 33.754757 0.000000
9.986628 39.181951 0.000000
6.666053 44.584297 0.000000
3.332777 50.000000 0.000000
44.608894 13.318086 0.000000
50.000000 9.998443 0.000000
39.251370 16.612514 0.000000
33.931950 19.862884 0.000000
28.612423 22.926000 0.000000
23.279646 27.207677 0.000000
19.901357 33.302970 0.000000
16.573931 39.040888 0.000000
13.268508 44.526698 0.000000
9.998494 50.000000 0.000000
44.632071 19.973166 0.000000
50.000000 16.664587 0.000000
39.298518 23.262239 0.000000
34.043865 26.514803 0.000000
28.965858 28.539482 0.000000
26.202469 33.410155 0.000000
23.066826 38.968814 0.000000
19.888758 44.507041 0.000000
16.664493 50.000000 0.000000
44.639845 26.643089 0.000000
50.000000 23.331122 0.000000
39.293430 29.966826 0.000000
33.212486 33.371361 0.000000
29.412260 39.045893 0.000000
26.422546 44.505989 0.000000
23.330969 50.000000 0.000000
44.775072 33.291926 0.000000
50.000000 29.998044 0.000000
39.738262 36.596400 0.000000
34.831170 39.525736 0.000000
32.833960 44.514382 0.000000
29.997882 50.000000 0.000000
44.978339 39.877968 0.000000
50.000000 36.665265 0.000000
39.735038 43.969139 0.000000
36.665123 50.000000 0.000000
45.621407 45.409924 0.000000
50.000000 43.332596 0.000000
43.332412 50.000000 0.000000
50.000000 50.000000 0.000000
CELLS 578 2312
3 1 0 2
3 0 3 2
3 4 1 6
3 6 1 2
3 3 5 7
3 3 7 2
3 6 2 7
3 9 4 10
3 10 4 6
3 5 8 11
3 7 5 11
3 10 6 12
3 12 6 7
3 7 11 13
3 7 13 12
3 8 14 15
3 11 8 15
3 16 9 17
3 17 9 10
3 17 10 18
3 18 10 12
3 11 15 19
3 13 11 19
3 18 12 20
3 13 19 20
3 20 12 13
3 14 22 24
3 15 14 24
3 15 24 25
3 19 15 25
3 21 16 26
3 26 16 17
3 26 17 27
3 27 17 18
3 27 18 28
3 28 18 20
3 19 25 29
3 19 29 20
3 28 20 30
3 30 20 29
3 31 21 32
3 32 21 26
3 22 23 36
3 24 22 36
3 23 34 37
3 36 23 37
3 24 36 38
3 25 24 38
3 25 38 39
3 29 25 39
3 32 26 40
3 40 26 27
3 40 27 41
3 41 27 28
3 41 28 42
3 42 28 30
3 29 39 43
3 29 43 30
3 42 30 43
3 33 31 44
3 44 31 32
3 44 32 45
3 45 32 40
3 46 33 47
3 47 33 44
3 34 35 50
3 37 34 50
3 35 48 51
3 50 35 51
3 36 37 52
3 38 36 52
3 37 50 53
3 52 37 53
3 38 52 54
3 39 38 54
3 39 54 55
3 43 39 55
3 45 40 56
3 56 40 41
3 56 41 57
3 57 41 42
3 57 42 58
3 58 42 43
3 43 55 59
3 43 59 58
3 47 44 60
3 60 44 45
3 60 45 61
3 61 45 56
3 62 46 63
3 63 46 47
3 63 47 64
3 64 47 60
3 48 49 68
3 51 48 68
3 49 66 69
3 68 49 69
3 50 51 70
3 53 50 70
3 51 68 71
3 70 51 71
3 52 53 72
3 54 52 72
3 53 70 73
3 72 53 73
3 54 72 74
3 55 54 74
3 55 74 75
3 59 55 75
3 61 56 76
3 76 56 57
3 76 57 77
3 77 57 58
3 77 58 78
3 59 75 78
3 78 58 59
3 64 60 79
3 79 60 61
3 79 61 80
3 80 61 76
3 65 62 81
3 81 62 63
3 81 63 82
3 82 63 64
3 82 64 83
3 83 64 79
3 84 65 85
3 85 65 81
3 66 67 89
3 69 66 89
3 67 87 90
3 89 67 90
3 68 69 91
3 71 68 91
3 69 89 92
3 91 69 92
3 70 71 93
3 73 70 93
3 71 91 94
3 93 71 94
3 72 73 95
3 74 72 95
3 73 93 96
3 95 73 96
3 74 95 97
3 75 74 97
3 75 97 98
3 78 75 98
3 80 76 99
3 99 76 77
3 99 77 100
3 100 77 78
3 100 78 101
3 98 101 78
3 83 79 102
3 102 79 80
3 102 80 103
3 103 80 99
3 85 81 104
3 104 81 82
3 105 83 102
3 104 82 106
3 106 82 83
3 106 83 105
3 86 84 107
3 107 84 85
3 107 85 108
3 108 85 104
3 109 86 107
3 110 86 109
3 87 88 112
3 90 87 112
3 112 88 113
3 88 114 113
3 90 112 115
3 89 90 116
3 92 89 116
3 116 90 115
3 91 92 117
3 94 91 117
3 92 116 118
3 117 92 118
3 93 94 119
3 96 93 119
3 94 117 120
3 119 94 120
3 95 96 121
3 97 95 121
3 96 119 122
3 121 96 122
3 97 121 123
3 98 97 123
3 98 123 124
3 98 124 101
3 103 99 125
3 125 99 100
3 125 100 126
3 126 100 101
3 126 101 124
3 105 102 127
3 127 102 103
3 127 103 128
3 128 103 125
3 129 105 127
3 108 104 130
3 130 104 106
3 130 106 131
3 131 106 105
3 131 105 129
3 108 130 132
3 109 107 133
3 133 107 108
3 133 108 134
3 108 132 134
3 135 109 133
3 111 110 136
3 136 110 109
3 136 109 135
3 137 111 136
3 138 111 137
3 112 113 139
3 115 112 139
3 114 140 113
3 140 139 113
3 139 141 115
3 116 115 142
3 118 116 142
3 142 115 141
3 117 118 143
3 120 117 143
3 118 142 144
3 143 118 144
3 119 120 145
3 122 119 145
3 120 143 146
3 145 120 146
3 121 122 147
3 123 121 147
3 122 145 148
3 147 122 148
3 123 147 149
3 124 123 149
3 124 149 150
3 151 126 124
3 124 150 151
3 128 125 152
3 152 125 126
3 152 126 151
3 129 127 153
3 153 127 128
3 128 152 154
3 153 128 154
3 155 129 153
3 131 129 156
3 156 129 155
3 132 130 157
3 130 131 157
3 157 131 158
3 131 156 158
3 132 157 159
3 132 159 134
3 135 133 160
3 160 133 134
3 160 134 159
3 136 135 161
3 135 160 161
3 162 137 136
3 161 162 136
3 163 138 137
3 162 163 137
3 139 164 141
3 140 165 139
3 139 165 164
3 141 164 166
3 141 166 142
3 166 167 142
3 144 142 167
3 167 168 144
3 143 144 168
3 146 143 168
3 168 169 146
3 145 146 170
3 148 145 170
3 170 146 169
3 147 148 171
3 149 147 171
3 148 170 172
3 171 148 172
3 173 151 150
3 149 171 174
3 150 149 174
3 150 174 175
3 150 175 173
3 154 152 176
3 152 151 176
3 176 151 173
3 154 176 177
3 155 153 178
3 177 178 154
3 154 178 153
3 156 155 179
3 155 178 179
3 180 158 156
3 179 180 156
3 181 159 157
3 180 181 158
3 181 157 158
3 182 160 159
3 181 182 159
3 183 161 160
3 182 183 160
3 184 162 161
3 184 161 183
3 185 163 162
3 184 185 162
3 164 186 166
3 165 187 164
3 164 187 186
3 166 186 188
3 166 188 167
3 167 188 189
3 167 189 168
3 168 189 190
3 168 190 169
3 169 190 191
3 169 191 170
3 192 172 170
3 170 191 192
3 192 193 172
3 171 172 193
3 174 171 193
3 194 173 175
3 176 173 194
3 175 174 195
3 193 195 174
3 195 196 175
3 175 196 194
3 197 177 176
3 194 197 176
3 198 178 177
3 197 198 177
3 199 179 178
3 198 199 178
3 200 180 179
3 199 200 179
3 201 181 180
3 200 201 180
3 202 182 181
3 201 202 181
3 203 183 182
3 202 203 182
3 204 184 183
3 203 204 183
3 205 185 184
3 204 205 184
3 186 206 188
3 187 207 186
3 186 207 206
3 188 206 208
3 188 208 189
3 189 208 209
3 189 209 190
3 190 209 210
3 190 210 191
3 191 210 211
3 191 211 192
3 192 211 212
3 192 212 193
3 193 212 213
3 193 213 195
3 214 197 194
3 214 194 196
3 195 213 215
3 195 215 196
3 196 215 214
3 216 198 197
3 214 216 197
3 217 199 198
3 216 217 198
3 218 200 199
3 217 218 199
3 219 201 200
3 218 219 200
3 220 202 201
3 219 220 201
3 221 203 202
3 220 221 202
3 222 204 203
3 221 222 203
3 223 205 204
3 222 223 204
3 206 224 208
3 207 225 206
3 206 225 224
3 208 224 226
3 208 226 209
3 209 226 227
3 209 227 210
3 210 227 228
3 210 228 211
3 211 228 229
3 211 229 212
3 212 229 230
3 212 230 213
3 213 230 231
3 213 231 215
3 232 216 214
3 215 231 232
3 232 214 215
3 233 217 216
3 232 233 216
3 234 218 217
3 233 234 217
3 235 219 218
3 234 235 218
3 236 220 219
3 235 236 219
3 237 221 220
3 236 237 220
3 238 222 221
3 237 238 221
3 239 223 222
3 238 239 222
3 224 240 226
3 225 241 224
3 224 241 240
3 226 240 242
3 226 242 227
3 227 242 243
3 227 243 228
3 228 243 244
3 228 244 229
3 244 245 229
3 229 245 230
3 230 245 246
3 230 246 231
3 231 246 247
3 231 247 232
3 248 233 232
3 248 232 247
3 249 234 233
3 248 249 233
3 250 235 234
3 249 250 234
3 251 236 235
3 250 251 235
3 252 237 236
3 251 252 236
3 253 238 237
3 252 253 237
3 254 239 238
3 253 254 238
3 240 255 242
3 241 256 240
3 240 256 255
3 242 255 257
3 242 257 243
3 243 257 258
3 243 258 244
3 244 258 259
3 244 259 245
3 245 259 260
3 245 260 246
3 246 260 261
3 246 261 247
3 248 247 261
3 262 249 248
3 261 262 248
3 263 250 249
3 262 263 249
3 264 251 250
3 263 264 250
3 265 252 251
3 264 265 251
3 266 253 252
3 265 266 252
3 267 254 253
3 266 267 253
3 255 268 257
3 256 269 255
3 255 269 268
3 257 268 270
3 257 270 258
3 258 270 271
3 258 271 259
3 259 271 272
3 259 272 260
3 260 272 273
3 260 273 261
3 274 262 261
3 261 273 274
3 275 263 262
3 274 275 262
3 276 264 263
3 275 276 263
3 277 265 264
3 276 277 264
3 278 266 265
3 277 278 265
3 279 267 266
3 278 279 266
3 268 280 270
3 269 281 268
3 268 281 280
3 270 280 282
3 270 282 271
3 271 282 283
3 271 283 272
3 283 284 272
3 272 284 273
3 285 275 274
3 273 284 285
3 285 274 273
3 286 276 275
3 285 286 275
3 287 277 276
3 286 287 276
3 288 278 277
3 287 288 277
3 289 279 278
3 288 289 278
3 280 290 282
3 281 291 280
3 280 291 290
3 282 290 292
3 282 292 283
3 283 292 293
3 283 293 284
3 284 293 294
3 284 294 285
3 295 286 285
3 295 285 294
3 296 287 286
3 295 296 286
3 297 288 287
3 296 297 287
3 298 289 288
3 297 298 288
3 290 299 292
3 291 300 290
3 290 300 299
3 292 299 301
3 292 301 293
3 293 301 302
3 293 302 294
3 294 302 295
3 303 296 295
3 303 295 302
3 304 297 296
3 303 304 296
3 305 298 297
3 304 305 297
3 299 306 301
3 300 307 299
3 299 307 306
3 301 306 308
3 301 308 302
3 309 303 302
3 302 308 309
3 310 304 303
3 309 310 303
3 311 305 304
3 310 311 304
3 306 312 308
3 307 313 306
3 306 313 312
3 314 310 309
3 308 312 314
3 314 309 308
3 315 311 310
3 314 315 310
3 312 316 314
3 313 317 312
3 312 317 316
3 318 315 314
3 318 314 316
3 317 319 316
3 319 318 316
CELL_TYPES 578
5
5
5
5
5
5
5
5
5
5
5
5
5
5
5
5
5
5
5
5
5
5
5
5
5
5
5
5
5
5
5
5
5
5
5
5
5
5
5
5
5
5
5
5
5
5
5
5
5
5
5
5
5
5
5
5
5
5
5
5
5
5
5
5
5
5
5
5
5
5
5
5
5
5
5
5
5
5
5
5
5
5
5
5
5
5
5
5
5
5
5
5
5
5
5
5
5
5
5
5
5
5
5
5
5
5
5
5
5
5
5
5
5
5
5
5
5
5
5
5
5
5
5
5
5
5
5
5
5
5
5
5
5
5
5
5
5
5
5
5
5
5
5
5
5
5
5
5
5
5
5
5
5
5
5
5
5
5
5
5
5
5
5
5
5
5
5
5
5
5
5
5
5
5
5
5
5
5
5
5
5
5
5
5
5
5
5
5
5
5
5
5
5
5
5
5
5
5
5
5
5
5
5
5
5
5
5
5
5
5
5
5
5
5
5
5
5
5
5
5
5
5
5
5
5
5
5
5
5
5
5
5
5
5
5
5
5
5
5
5
5
5
5
5
5
5
5
5
5
5
5
5
5
5
5
5
5
5
5
5
5
5
5
5
5
5
5
5
5
5
5
5
5
5
5
5
5
5
5
5
5
5
5
5
5
5
5
5
5
5
5
5
5
5
5
5
5
5
5
5
5
5
5
5
5
5
5
5
5
5
5
5
5
5
5
5
5
5
5
5
5
5
5
5
5
5
5
5
5
5
5
5
5
5
5
5
5
5
5
5
5
5
5
5
5
5
5
5
5
5
5
5
5
5
5
5
5
5
5
5
5
5
5
5
5
5
5
5
5
5
5
5
5
5
5
5
5
5
5
5
5
5
5
5
5
5
5
5
5
5
5
5
5
5
5
5
5
5
5
5
5
5
5
5
5
5
5
5
5
5
5
5
5
5
5
5
5
5
5
5
5
5
5
5
5
5
5
5
5
5
5
5
5
5
5
5
5
5
5
5
5
5
5
5
5
5
5
5
5
5
5
5
5
5
5
5
5
5
5
5
5
5
5
5
5
5
5
5
5
5
5
5
5
5
5
5
5
5
5
5
5
5
5
5
5
5
5
5
5
5
5
5
5
5
5
5
5
5
5
5
5
5
5
5
5
5
5
5
5
5
5
5
5
5
5
5
5
5
5
5
5
5
5
5
5
5
5
5
5
5
5
5
5
5
5
5
5
5
5
5
5
5
5
5
5
5
5
5
5
5
5
5
5
5
5
5
5
5
5
5
5
5
5
5
5
5
5
5
5
5
5
5
5
5
5
5
5
5
POINT_DATA 320
SCALARS theta_e float 1
LOOKUP_TABLE default
1.000001
1.000001
1.000001
1.000001
1.000001
1.000001
1.000001
1.000001
1.000001
1.000001
1.000001
1.000001
1.000001
1.000001
1.000001
1.000001
1.000001
1.000001
1.000001
1.000001
1.000001
1.000001
1.000001
1.000001
1.000001
1.000001
1.000001
1.000001
1.000001
1.000001
1.000001
1.000001
1.000001
1.000001
1.000001
1.000001
1.000001
1.000001
1.000001
1.000001
1.000001
1.000001
1.000001
1.000001
1.000001
1.000001
1.000001
1.000001
1.000001
1.000001
1.000001
1.000001
1.000001
1.000001
1.000001
1.000001
1.000001
1.000001
1.000001
1.000001
1.000001
1.000001
1.000001
1.000001
1.000001
1.000001
1.000001
1.000001
1.000001
1.000001
1.000001
1.000001
1.000001
1.000001
1.000001
1.000001
1.000001
1.000001
1.000001
1.000001
1.000001
1.000001
1.000001
1.000001
1.000001
1.000001
1.000001
1.000001
1.000001
1.000001
1.000001
1.000001
1.000001
1.000001
1.000001
1.000001
1.000001
1.000001
1.000001
1.000001
1.000001
1.000001
1.000001
1.000001
1.000001
1.000001
1.000001
1.000001
1.000001
1.000001
1.000001
1.000001
1.000001
1.000001
1.000001
1.000001
1.000001
1.000001
1.000001
1.000001
1.000001
1.000001
1.000001
1.000001
0.999997
1.000001
0.999999
1.000001
1.000001
1.000001
1.000001
1.000001
1.000001
1.000001
1.000001
1.000001
1.000001
1.000001
1.000001
1.000001
1.000001
1.000001
1.000001
1.000001
1.000001
1.000001
1.000001
1.000001
1.000001
0.999996
0.999983
0.999988
0.999997
1.000000
0.999998
1.000001
1.000001
1.000001
1.000001
1.000001
1.000001
1.000001
1.000001
1.000001
1.000001
1.000001
1.000001
1.000001
1.000001
1.000001
1.000001
0.999999
1.000001
0.999976
0.999987
0.999976
0.999985
0.999994
1.000000
1.000001
1.000001
1.000001
1.000001
1.000001
1.000001
1.000001
1.000001
1.000001
1.000001
1.000001
1.000001
1.000001
1.000001
0.999996
0.999976
0.999982
0.999975
0.999985
0.999998
1.000000
1.000001
1.000001
1.000001
1.000001
1.000001
1.000001
1.000001
1.000001
1.000001
1.000001
1.000001
1.000001
1.000001
0.999995
0.999982
0.999986
0.999995
1.000000
1.000001
1.000001
1.000001
1.000001
1.000001
1.000001
1.000001
1.000001
1.000001
1.000001
1.000001
1.000001
1.000001
0.999998
0.999996
1.000001
1.000001
1.000001
1.000001
1.000001
1.000001
1.000001
1.000001
1.000001
1.000001
1.000001
1.000001
1.000001
1.000001
1.000000
1.000001
1.000001
1.000001
1.000001
1.000001
1.000001
1.000001
1.000001
1.000001
1.000001
1.000001
1.000001
1.000001
1.000001
1.000001
1.000001
1.000001
1.000001
1.000001
1.000001
1.000001
1.000001
1.000001
1.000001
1.000001
1.000001
1.000001
1.000001
1.000001
1.000001
1.000001
1.000001
1.000001
1.000001
1.000001
1.000001
1.000001
1.000001
1.000001
1.000001
1.000001
1.000001
1.000001
1.000001
1.000001
1.000001
1.000001
1.000001
1.000001
1.000001
1.000001
1.000001
1.000001
1.000001
1.000001
1.000001
1.000001
1.000001
1.000001
1.000001
1.000001
1.000001
1.000001
1.000001
1.000001
1.000001
1.000001
1.000001
1.000001
1.000001
1.000001
1.000001
VECTORS fa_u float
0.000000 0.000000 0.000000
0.000000 0.000000 0.000000
0.000000 0.000000 0.000000
0.000000 0.000000 0.000000
0.000000 0.000000 0.000000
0.000000 0.000000 0.000000
0.000000 0.000000 0.000000
0.000000 0.000000 0.000000
0.000000 0.000000 0.000000
0.000000 0.000000 0.000000
0.000000 0.000000 0.000000
0.000000 0.000000 0.000000
0.000000 0.000000 0.000000
0.000000 0.000000 0.000000
0.000000 0.000000 0.000000
0.000000 0.000000 0.000000
0.000000 0.000000 0.000000
0.000000 0.000000 0.000000
0.000000 0.000000 0.000000
0.000000 0.000000 0.000000
0.000000 0.000000 0.000000
0.000000 0.000000 0.000000
0.000000 0.000000 0.000000
0.000000 0.000000 0.000000
0.000000 0.000000 0.000000
0.000000 0.000000 0.000000
0.000000 0.000000 0.000000
0.000000 0.000000 0.000000
0.000000 0.000000 0.000000
0.000000 0.000000 0.000000
0.000000 0.000000 0.000000
0.000000 0.000000 0.000000
0.000000 0.000000 0.000000
0.000000 0.000000 0.000000
0.000000 0.000000 0.000000
0.000000 0.000000 0.000000
0.000000 0.000000 0.000000
0.000000 0.000000 0.000000
0.000000 0.000000 0.000000
0.000000 0.000000 0.000000
0.000000 0.000000 0.000000
0.000000 0.000000 0.000000
0.000000 0.000000 0.000000
0.000000 0.000000 0.000000
0.000000 0.000000 0.000000
0.000000 0.000000 0.000000
0.000000 0.000000 0.000000
0.000000 0.000000 0.000000
0.000000 0.000000 0.000000
0.000000 0.000000 0.000000
0.000000 0.000000 0.000000
0.000000 0.000000 0.000000
0.000000 0.000000 0.000000
0.000000 0.000000 0.000000
0.000000 0.000000 0.000000
0.000000 0.000000 0.000000
0.000000 0.000000 0.000000
0.000000 0.000000 0.000000
0.000000 0.000000 0.000000
0.000000 0.000000 0.000000
0.000000 0.000000 0.000000
0.000000 0.000000 0.000000
0.000000 0.000000 0.000000
0.000000 0.000000 0.000000
0.000000 0.000000 0.000000
0.000000 0.000000 0.000000
0.000000 0.000000 0.000000
0.000000 0.000000 0.000000
0.000000 0.000000 0.000000
0.000000 0.000000 0.000000
0.000000 0.000000 0.000000
0.000000 0.000000 0.000000
0.000000 0.000000 0.000000
0.000000 0.000000 0.000000
0.000000 0.000000 0.000000
0.000000 0.000000 0.000000
0.000000 0.000000 0.000000
0.000000 0.000000 0.000000
0.000000 0.000000 0.000000
0.000000 0.000000 0.000000
0.000000 0.000000 0.000000
0.000000 0.000000 0.000000
0.000000 0.000000 0.000000
0.000000 0.000000 0.000000
0.000000 0.000000 0.000000
0.000000 0.000000 0.000000
0.000000 0.000000 0.000000
0.000000 0.000000 0.000000
0.000000 0.000000 0.000000
0.000000 0.000000 0.000000
0.000000 0.000000 0.000000
0.000000 0.000000 0.000000
0.000000 0.000000 0.000000
0.000000 0.000000 0.000000
0.000000 0.000000 0.000000
0.000000 0.000000 0.000000
0.000000 0.000000 0.000000
0.000000 0.000000 0.000000
0.000000 0.000000 0.000000
0.000000 0.000000 0.000000
0.000000 0.000000 0.000000
0.000000 0.000000 0.000000
0.000000 0.000000 0.000000
0.000000 0.000000 0.000000
0.000000 0.000000 0.000000
0.000000 0.000000 0.000000
0.000000 0.000000 0.000000
0.000000 0.000000 0.000000
0.000000 0.000000 0.000000
0.000000 0.000000 0.000000
0.000000 0.000000 0.000000
0.000000 0.000000 0.000000
0.000000 0.000000 0.000000
0.000000 0.000000 0.000000
0.000000 0.000000 0.000000
0.000000 0.000000 0.000000
0.000000 0.000000 0.000000
0.000000 0.000000 0.000000
0.000000 0.000000 0.000000
0.000000 0.000000 0.000000
0.000000 0.000000 0.000000
0.000000 0.000000 0.000000
0.000000 0.000000 0.000000
0.000000 0.000000 0.000000
0.000000 0.000000 0.000000
0.000000 0.000000 0.000000
0.000000 0.000000 0.000000
0.000000 0.000000 0.000000
0.000000 0.000000 0.000000
0.000000 0.000000 0.000000
0.000000 0.000000 0.000000
0.000000 0.000000 0.000000
0.000000 0.000000 0.000000
0.000000 0.000000 0.000000
0.000000 0.000000 0.000000
0.000000 0.000000 0.000000
0.000000 0.000000 0.000000
0.000000 0.000000 0.000000
0.000000 0.000000 0.000000
0.000000 0.000000 0.000000
0.000000 0.000000 0.000000
0.000000 0.000000 0.000000
0.000000 0.000000 0.000000
0.000000 0.000000 0.000000
0.000000 0.000000 0.000000
0.000000 0.000000 0.000000
0.000000 0.000000 0.000000
0.000000 0.000000 0.000000
0.000000 0.000000 0.000000
0.000000 0.000000 0.000000
0.000000 0.000000 0.000000
0.000000 0.000000 0.000000
0.000000 0.000000 0.000000
0.000000 0.000000 0.000000
0.000000 0.000000 0.000000
0.000000 0.000000 0.000000
0.000000 0.000000 0.000000
0.000000 0.000000 0.000000
0.000000 0.000000 0.000000
0.000000 0.000000 0.000000
0.000000 0.000000 0.000000
0.000000 0.000000 0.000000
0.000000 0.000000 0.000000
0.000000 0.000000 0.000000
0.000000 0.000000 0.000000
0.000000 0.000000 0.000000
0.000000 0.000000 0.000000
0.000000 0.000000 0.000000
0.000000 0.000000 0.000000
0.000000 0.000000 0.000000
0.000000 0.000000 0.000000
0.000000 0.000000 0.000000
0.000000 0.000000 0.000000
0.000000 0.000000 0.000000
0.000000 0.000000 0.000000
0.000000 0.000000 0.000000
0.000000 0.000000 0.000000
0.000000 0.000000 0.000000
0.000000 0.000000 0.000000
0.000000 0.000000 0.000000
0.000000 0.000000 0.000000
0.000000 0.000000 0.000000
0.000000 0.000000 0.000000
0.000000 0.000000 0.000000
0.000000 0.000000 0.000000
0.000000 0.000000 0.000000
0.000000 0.000000 0.000000
0.000000 0.000000 0.000000
0.000000 0.000000 0.000000
0.000000 0.000000 0.000000
0.000000 0.000000 0.000000
0.000000 0.000000 0.000000
0.000000 0.000000 0.000000
0.000000 0.000000 0.000000
0.000000 0.000000 0.000000
0.000000 0.000000 0.000000
0.000000 0.000000 0.000000
0.000000 0.000000 0.000000
0.000000 0.000000 0.000000
0.000000 0.000000 0.000000
0.000000 0.000000 0.000000
0.000000 0.000000 0.000000
0.000000 0.000000 0.000000
0.000000 0.000000 0.000000
0.000000 0.000000 0.000000
0.000000 0.000000 0.000000
0.000000 0.000000 0.000000
0.000000 0.000000 0.000000
0.000000 0.000000 0.000000
0.000000 0.000000 0.000000
0.000000 0.000000 0.000000
0.000000 0.000000 0.000000
0.000000 0.000000 0.000000
0.000000 0.000000 0.000000
0.000000 0.000000 0.000000
0.000000 0.000000 0.000000
0.000000 0.000000 0.000000
0.000000 0.000000 0.000000
0.000000 0.000000 0.000000
0.000000 0.000000 0.000000
0.000000 0.000000 0.000000
0.000000 0.000000 0.000000
0.000000 0.000000 0.000000
0.000000 0.000000 0.000000
0.000000 0.000000 0.000000
0.000000 0.000000 0.000000
0.000000 0.000000 0.000000
0.000000 0.000000 0.000000
0.000000 0.000000 0.000000
0.000000 0.000000 0.000000
0.000000 0.000000 0.000000
0.000000 0.000000 0.000000
0.000000 0.000000 0.000000
0.000000 0.000000 0.000000
0.000000 0.000000 0.000000
0.000000 0.000000 0.000000
0.000000 0.000000 0.000000
0.000000 0.000000 0.000000
0.000000 0.000000 0.000000
0.000000 0.000000 0.000000
0.000000 0.000000 0.000000
0.000000 0.000000 0.000000
0.000000 0.000000 0.000000
0.000000 0.000000 0.000000
0.000000 0.000000 0.000000
0.000000 0.000000 0.000000
0.000000 0.000000 0.000000
0.000000 0.000000 0.000000
0.000000 0.000000 0.000000
0.000000 0.000000 0.000000
0.000000 0.000000 0.000000
0.000000 0.000000 0.000000
0.000000 0.000000 0.000000
0.000000 0.000000 0.000000
0.000000 0.000000 0.000000
0.000000 0.000000 0.000000
0.000000 0.000000 0.000000
0.000000 0.000000 0.000000
0.000000 0.000000 0.000000
0.000000 0.000000 0.000000
0.000000 0.000000 0.000000
0.000000 0.000000 0.000000
0.000000 0.000000 0.000000
0.000000 0.000000 0.000000
0.000000 0.000000 0.000000
0.000000 0.000000 0.000000
0.000000 0.000000 0.000000
0.000000 0.000000 0.000000
0.000000 0.000000 0.000000
0.000000 0.000000 0.000000
0.000000 0.000000 0.000000
0.000000 0.000000 0.000000
0.000000 0.000000 0.000000
0.000000 0.000000 0.000000
0.000000 0.000000 0.000000
0.000000 0.000000 0.000000
0.000000 0.000000 0.000000
0.000000 0.000000 0.000000
0.000000 0.000000 0.000000
0.000000 0.000000 0.000000
0.000000 0.000000 0.000000
0.000000 0.000000 0.000000
0.000000 0.000000 0.000000
0.000000 0.000000 0.000000
0.000000 0.000000 0.000000
0.000000 0.000000 0.000000
0.000000 0.000000 0.000000
0.000000 0.000000 0.000000
0.000000 0.000000 0.000000
0.000000 0.000000 0.000000
0.000000 0.000000 0.000000
0.000000 0.000000 0.000000
0.000000 0.000000 0.000000
0.000000 0.000000 0.000000
0.000000 0.000000 0.000000
0.000000 0.000000 0.000000
0.000000 0.000000 -50.000000
-50.000000 0.000000 -50.000000
-43.332665 0.000000 -45.688498
-45.491239 0.000000 -43.332566
-50.000000 0.000000 -50.000000
-36.665289 0.000000 -36.665323
-50.000000 0.000000 -45.081240
-39.969849 0.000000 -40.027363
-44.152369 0.000000 -29.998028
-50.000000 0.000000 -50.000000
-29.997977 0.000000 -44.847205
-33.448968 0.000000 -33.145054
-44.675787 0.000000 -39.869275
-36.787058 0.000000 -35.128836
-39.801427 0.000000 -23.330998
-50.000000 0.000000 -26.539305
-44.666790 0.000000 -50.000000
-23.330964 0.000000 -44.665322
-26.803997 0.000000 -39.364349
-30.225753 0.000000 -29.606476
-39.359459 0.000000 -33.368441
-33.655558 0.000000 -50.000000
-16.664388 0.000000 -16.664467
-50.000000 0.000000 -9.998444
