# vtk DataFile Version 2.0
CellBP Time: 1.68
ASCII
DATASET UNSTRUCTURED_GRID
POINTS 320 double
-50.000000 -50.000000 0.000000
-50.000000 -43.333138 0.000000
-45.688330 -45.491094 0.000000
-43.333113 -50.000000 0.000000
-50.000000 -36.666266 0.000000
-36.666282 -50.000000 0.000000
-45.081059 -39.969743 0.000000
-40.027102 -44.152216 0.000000
-29.999437 -50.000000 0.000000
-50.000000 -29.999412 0.000000
-44.847027 -33.448874 0.000000
-33.144853 -44.675621 0.000000
-39.869052 -36.786941 0.000000
-35.128570 -39.801222 0.000000
-23.332666 -50.000000 0.000000
-26.539093 -44.666708 0.000000
-50.000000 -23.332643 0.000000
-44.665247 -26.803868 0.000000
-39.364183 -30.225621 0.000000
-29.606178 -39.359294 0.000000
-33.368133 -33.655363 0.000000
-50.000000 -16.665999 0.000000
-16.666036 -50.000000 0.000000
-9.999550 -50.000000 0.000000
-19.964818 -44.588774 0.000000
-23.215830 -39.114657 0.000000
-44.691895 -20.096859 0.000000
-39.367824 -23.528116 0.000000
-34.106067 -26.936960 0.000000
-26.384321 -33.577151 0.000000
-29.156096 -28.926526 0.000000
-50.000000 -9.999468 0.000000
-44.666364 -13.410141 0.000000
-50.000000 -3.333078 0.000000
-3.333184 -50.000000 0.000000
3.333150 -50.000000 0.000000
-13.343576 -44.599063 0.000000
-6.684681 -44.610757 0.000000
-16.693657 -39.153325 0.000000
-20.106948 -33.342662 0.000000
-39.338175 -16.804783 0.000000
-34.018610 -20.274679 0.000000
-28.780814 -23.448972 0.000000
-23.510422 -27.350077 0.000000
-44.635491 -6.705576 0.000000
-39.293062 -10.101850 0.000000
-50.000000 3.333236 0.000000
-44.626817 -0.015685 0.000000
9.999541 -50.000000 0.000000
16.666047 -50.000000 0.000000
-0.016108 -44.618825 0.000000
6.651574 -44.635489 0.000000
-10.044670 -39.222615 0.000000
-3.368225 -39.220442 0.000000
-13.484270 -33.798782 0.000000
-16.709691 -28.271416 0.000000
-33.948071 -13.514172 0.000000
-28.601607 -16.892430 0.000000
-23.291386 -20.312896 0.000000
-18.660264 -23.282585 0.000000
-39.267569 -3.392890 0.000000
-33.904553 -6.796776 0.000000
-50.000000 9.999575 0.000000
-44.606836 6.673305 0.000000
-39.261004 3.325610 0.000000
-50.000000 16.666042 0.000000
23.332671 -50.000000 0.000000
29.999416 -50.000000 0.000000
13.317345 -44.662989 0.000000
19.989470 -44.700121 0.000000
3.307663 -39.245166 0.000000
9.971766 -39.290305 0.000000
-6.735262 -33.791377 0.000000
-0.032331 -33.829643 0.000000
-10.095942 -28.293526 0.000000
-13.122821 -22.898322 0.000000
-28.532654 -10.215050 0.000000
-23.066611 -13.663227 0.000000
-16.977220 -17.209075 0.000000
-33.884800 -0.065454 0.000000
-28.563228 -3.578854 0.000000
-44.564175 13.380323 0.000000
-39.190147 10.014978 0.000000
-33.905832 6.615979 0.000000
-50.000000 23.332625 0.000000
-44.557711 20.138064 0.000000
-50.000000 29.999427 0.000000
36.666250 -50.000000 0.000000
43.333115 -50.000000 0.000000
26.663100 -44.745279 0.000000
33.315190 -44.875907 0.000000
16.631616 -39.357702 0.000000
23.328173 -39.437067 0.000000
6.642801 -33.879517 0.000000
13.290761 -33.965472 0.000000
-3.345613 -28.362911 0.000000
3.357090 -28.451305 0.000000
-6.626021 -22.846131 0.000000
-9.970267 -17.314897 0.000000
-23.184912 -7.014824 0.000000
-17.810675 -10.334784 0.000000
-12.837507 -12.591227 0.000000
-28.607523 3.088487 0.000000
-23.264891 -0.468329 0.000000
-39.039022 16.746444 0.000000
-28.721293 9.926377 0.000000
-33.761656 13.318426 0.000000
-44.521681 26.716792 0.000000
-38.467740 23.892453 0.000000
-44.632207 33.085434 0.000000
-50.000000 36.666343 0.000000
-50.000000 43.333162 0.000000
39.922295 -45.069532 0.000000
45.474610 -45.660389 0.000000
50.000000 -50.000000 0.000000
36.626710 -39.981907 0.000000
30.012251 -39.458561 0.000000
19.904175 -34.092746 0.000000
26.584969 -34.319431 0.000000
9.988799 -28.513506 0.000000
16.610947 -28.659868 0.000000
0.052040 -22.959438 0.000000
6.812217 -23.158137 0.000000
-3.400697 -17.297423 0.000000
-6.859901 -11.013243 0.000000
-17.877939 -3.827218 0.000000
-12.553293 -7.035739 0.000000
-23.310415 6.073212 0.000000
-18.037426 2.453727 0.000000
-23.122135 12.095592 0.000000
-33.572102 19.788908 0.000000
-27.941307 16.885390 0.000000
-33.292757 24.722608 0.000000
-39.473424 30.052647 0.000000
-35.160169 28.137389 0.000000
-39.815839 35.101284 0.000000
-43.991607 39.982075 0.000000
-45.430975 45.685078 0.000000
-50.000000 50.000000 0.000000
44.117171 -39.898910 0.000000
50.000000 -43.333045 0.000000
39.639342 -35.047329 0.000000
33.462819 -33.424475 0.000000
22.984825 -28.817878 0.000000
28.730914 -29.247729 0.000000
13.460712 -23.121750 0.000000
20.054805 -23.438812 0.000000
3.386428 -17.587177 0.000000
10.126845 -17.840258 0.000000
0.144851 -11.987142 0.000000
-2.152142 -6.257381 0.000000
-7.382976 -3.691639 0.000000
-12.609628 -0.803077 0.000000
-18.163209 8.573014 0.000000
-12.962118 5.196620 0.000000
-18.639267 13.751989 0.000000
-21.504638 17.495028 0.000000
-28.940672 23.158325 0.000000
-24.346236 21.554698 0.000000
-30.323409 28.634716 0.000000
-34.253309 33.375474 0.000000
-36.955856 39.578023 0.000000
-39.838641 45.102692 0.000000
-43.333105 50.000000 0.000000
44.585171 -32.971979 0.000000
50.000000 -36.666179 0.000000
39.129259 -29.581745 0.000000
33.500528 -26.367601 0.000000
27.182718 -23.322103 0.000000
23.065807 -18.647774 0.000000
16.989474 -16.979847 0.000000
6.710644 -12.213606 0.000000
12.354117 -12.733105 0.000000
-3.383368 -1.493814 0.000000
3.924710 -7.001346 0.000000
1.022426 -2.121072 0.000000
-6.999079 2.323169 0.000000
-8.418130 7.813278 0.000000
-12.846499 11.932696 0.000000
-15.692702 17.700391 0.000000
-19.287213 22.982812 0.000000
-24.170954 27.354881 0.000000
-27.286280 33.626078 0.000000
-30.406594 39.161251 0.000000
-33.447728 44.738848 0.000000
-36.666225 50.000000 0.000000
44.547713 -26.499777 0.000000
50.000000 -29.999326 0.000000
39.040021 -23.179217 0.000000
33.449787 -19.899957 0.000000
28.040094 -16.574362 0.000000
22.683321 -13.124265 0.000000
17.176527 -9.909245 0.000000
10.924571 -6.640589 0.000000
-1.352309 2.308356 0.000000
6.216880 -1.738349 0.000000
2.907561 1.600277 0.000000
-3.535871 7.169061 0.000000
-6.312390 12.443567 0.000000
-9.629369 17.702375 0.000000
-13.166843 23.112397 0.000000
-17.316520 28.185204 0.000000
-20.570585 33.474441 0.000000
-23.665823 39.064020 0.000000
-26.830766 44.585378 0.000000
-29.999425 50.000000 0.000000
44.528725 -19.930496 0.000000
50.000000 -23.332571 0.000000
39.036387 -16.594029 0.000000
33.576365 -13.281198 0.000000
28.150761 -9.964883 0.000000
22.726007 -6.604544 0.000000
17.264640 -3.337210 0.000000
11.995580 0.193901 0.000000
1.928957 6.287381 0.000000
7.017138 3.829441 0.000000
-0.213939 11.957567 0.000000
-3.267709 17.529731 0.000000
-6.700910 22.978021 0.000000
-10.567923 28.267551 0.000000
-13.723868 33.661521 0.000000
-16.945555 39.080421 0.000000
-20.140400 44.548484 0.000000
-23.332703 50.000000 0.000000
44.536340 -13.303600 0.000000
50.000000 -16.665957 0.000000
39.079978 -9.966617 0.000000
33.646821 -6.640929 0.000000
28.236003 -3.307386 0.000000
22.846351 0.018347 0.000000
17.534426 3.360428 0.000000
12.211295 6.596741 0.000000
6.719780 10.841316 0.000000
3.301341 17.195733 0.000000
-0.081553 22.851263 0.000000
-3.518448 28.312569 0.000000
-6.831229 33.774312 0.000000
-10.137250 39.170566 0.000000
-13.435558 44.563593 0.000000
-16.666102 50.000000 0.000000
44.554421 -6.654664 0.000000
50.000000 -9.999501 0.000000
39.123454 -3.321292 0.000000
33.713443 0.008771 0.000000
28.333199 3.343980 0.000000
23.001865 6.693847 0.000000
17.832169 10.023253 0.000000
12.654955 12.227458 0.000000
9.790773 17.234862 0.000000
6.477708 22.722402 0.000000
3.188606 28.269479 0.000000
-0.115894 33.734680 0.000000
-3.425140 39.168562 0.000000
-6.725322 44.581861 0.000000
-9.999611 50.000000 0.000000
44.575720 0.001922 0.000000
50.000000 -3.333167 0.000000
39.166863 3.331907 0.000000
33.779239 6.655571 0.000000
28.424184 9.995097 0.000000
23.046302 13.416529 0.000000
16.948124 17.022171 0.000000
12.901636 22.670681 0.000000
9.814658 28.232250 0.000000
6.604138 33.718715 0.000000
3.286527 39.164418 0.000000
-0.029868 44.584610 0.000000
-3.333207 50.000000 0.000000
44.586765 6.665467 0.000000
50.000000 3.333154 0.000000
39.198033 9.981907 0.000000
33.843363 13.277105 0.000000
28.541750 16.584874 0.000000
23.386621 20.084376 0.000000
18.531694 23.112083 0.000000
16.393326 28.298746 0.000000
13.328879 33.754791 0.000000
9.986486 39.181964 0.000000
6.665914 44.584397 0.000000
3.333169 50.000000 0.000000
44.608908 13.317821 0.000000
50.000000 9.999551 0.000000
39.251330 16.612398 0.000000
33.931797 19.862865 0.000000
28.612189 22.926005 0.000000
23.279583 27.207489 0.000000
19.901262 33.303140 0.000000
16.573687 39.040979 0.000000
13.268216 44.526798 0.000000
9.999563 50.000000 0.000000
44.632072 19.972859 0.000000
50.000000 16.666068 0.000000
39.298451 23.262066 0.000000
34.043724 26.514682 0.000000
28.965676 28.539449 0.000000
26.202292 33.410109 0.000000
23.066631 38.968841 0.000000
19.888448 44.507075 0.000000
16.666040 50.000000 0.000000
44.639773 26.642807 0.000000
50.000000 23.332698 0.000000
39.293310 29.966624 0.000000
33.212307 33.371222 0.000000
29.412023 39.045821 0.000000
26.422272 44.505959 0.000000
23.332653 50.000000 0.000000
44.774928 33.291716 0.000000
50.000000 29.999438 0.000000
39.738131 36.596250 0.000000
34.830972 39.525553 0.000000
32.833733 44.514234 0.000000
29.999391 50.000000 0.000000
44.978190 39.877796 0.000000
50.000000 36.666263 0.000000
39.734777 43.968964 0.000000
36.666223 50.000000 0.000000
45.621231 45.409734 0.000000
50.000000 43.333120 0.000000
43.333068 50.000000 0.000000
50.000000 50.000000 0.000000
CELLS 578 2312
3 1 0 2
3 0 3 2
3 4 1 6
3 6 1 2
3 3 5 7
3 3 7 2
3 6 2 7
3 9 4 10
3 10 4 6
3 5 8 11
3 7 5 11
3 10 6 12
3 12 6 7
3 7 11 13
3 7 13 12
3 8 14 15
3 11 8 15
3 16 9 17
3 17 9 10
3 17 10 18
3 18 10 12
3 11 15 19
3 13 11 19
3 18 12 20
3 13 19 20
3 20 12 13
3 14 22 24
3 15 14 24
3 15 24 25
3 19 15 25
3 21 16 26
3 26 16 17
3 26 17 27
3 27 17 18
3 27 18 28
3 28 18 20
3 19 25 29
3 19 29 20
3 28 20 30
3 30 20 29
3 31 21 32
3 32 21 26
3 22 23 36
3 24 22 36
3 23 34 37
3 36 23 37
3 24 36 38
3 25 24 38
3 25 38 39
3 29 25 39
3 32 26 40
3 40 26 27
3 40 27 41
3 41 27 28
3 41 28 42
3 42 28 30
3 29 39 43
3 29 43 30
3 42 30 43
3 33 31 44
3 44 31 32
3 44 32 45
3 45 32 40
3 46 33 47
3 47 33 44
3 34 35 50
3 37 34 50
3 35 48 51
3 50 35 51
3 36 37 52
3 38 36 52
3 37 50 53
3 52 37 53
3 38 52 54
3 39 38 54
3 39 54 55
3 43 39 55
3 45 40 56
3 56 40 41
3 56 41 57
3 57 41 42
3 57 42 58
3 58 42 43
3 43 55 59
3 43 59 58
3 47 44 60
3 60 44 45
3 60 45 61
3 61 45 56
3 62 46 63
3 63 46 47
3 63 47 64
3 64 47 60
3 48 49 68
3 51 48 68
3 49 66 69
3 68 49 69
3 50 51 70
3 53 50 70
3 51 68 71
3 70 51 71
3 52 53 72
3 54 52 72
3 53 70 73
3 72 53 73
3 54 72 74
3 55 54 74
3 55 74 75
3 59 55 75
3 61 56 76
3 76 56 57
3 76 57 77
3 77 57 58
3 77 58 78
3 59 75 78
3 78 58 59
3 64 60 79
3 79 60 61
3 79 61 80
3 80 61 76
3 65 62 81
3 81 62 63
3 81 63 82
3 82 63 64
3 82 64 83
3 83 64 79
3 84 65 85
3 85 65 81
3 66 67 89
3 69 66 89
3 67 87 90
3 89 67 90
3 68 69 91
3 71 68 91
3 69 89 92
3 91 69 92
3 70 71 93
3 73 70 93
3 71 91 94
3 93 71 94
3 72 73 95
3 74 72 95
3 73 93 96
3 95 73 96
3 74 95 97
3 75 74 97
3 75 97 98
3 78 75 98
3 80 76 99
3 99 76 77
3 99 77 100
3 100 77 78
3 100 78 101
3 98 101 78
3 83 79 102
3 102 79 80
3 102 80 103
3 103 80 99
3 85 81 104
3 104 81 82
3 105 83 102
3 104 82 106
3 106 82 83
3 106 83 105
3 86 84 107
3 107 84 85
3 107 85 108
3 108 85 104
3 109 86 107
3 110 86 109
3 87 88 112
3 90 87 112
3 112 88 113
3 88 114 113
3 90 112 115
3 89 90 116
3 92 89 116
3 116 90 115
3 91 92 117
3 94 91 117
3 92 116 118
3 117 92 118
3 93 94 119
3 96 93 119
3 94 117 120
3 119 94 120
3 95 96 121
3 97 95 121
3 96 119 122
3 121 96 122
3 97 121 123
3 98 97 123
3 98 123 124
3 98 124 101
3 103 99 125
3 125 99 100
3 125 100 126
3 126 100 101
3 126 101 124
3 105 102 127
3 127 102 103
3 127 103 128
3 128 103 125
3 129 105 127
3 108 104 130
3 130 104 106
3 130 106 131
3 131 106 105
3 131 105 129
3 108 130 132
3 109 107 133
3 133 107 108
3 133 108 134
3 108 132 134
3 135 109 133
3 111 110 136
3 136 110 109
3 136 109 135
3 137 111 136
3 138 111 137
3 112 113 139
3 115 112 139
3 114 140 113
3 140 139 113
3 139 141 115
3 116 115 142
3 118 116 142
3 142 115 141
3 117 118 143
3 120 117 143
3 118 142 144
3 143 118 144
3 119 120 145
3 122 119 145
3 120 143 146
3 145 120 146
3 121 122 147
3 123 121 147
3 122 145 148
3 147 122 148
3 123 147 149
3 124 123 149
3 124 149 150
3 151 126 124
3 124 150 151
3 128 125 152
3 152 125 126
3 152 126 151
3 129 127 153
3 153 127 128
3 128 152 154
3 153 128 154
3 155 129 153
3 131 129 156
3 156 129 155
3 132 130 157
3 130 131 157
3 157 131 158
3 131 156 158
3 132 157 159
3 132 159 134
3 135 133 160
3 160 133 134
3 160 134 159
3 136 135 161
3 135 160 161
3 162 137 136
3 161 162 136
3 163 138 137
3 162 163 137
3 139 164 141
3 140 165 139
3 139 165 164
3 141 164 166
3 141 166 142
3 166 167 142
3 144 142 167
3 167 168 144
3 143 144 168
3 146 143 168
3 168 169 146
3 145 146 170
3 148 145 170
3 170 146 169
3 147 148 171
3 149 147 171
3 148 170 172
3 171 148 172
3 173 151 150
3 149 171 174
3 150 149 174
3 150 174 175
3 150 175 173
3 154 152 176
3 152 151 176
3 176 151 173
3 154 176 177
3 155 153 178
3 177 178 154
3 154 178 153
3 156 155 179
3 155 178 179
3 180 158 156
3 179 180 156
3 181 159 157
3 180 181 158
3 181 157 158
3 182 160 159
3 181 182 159
3 183 161 160
3 182 183 160
3 184 162 161
3 184 161 183
3 185 163 162
3 184 185 162
3 164 186 166
3 165 187 164
3 164 187 186
3 166 186 188
3 166 188 167
3 167 188 189
3 167 189 168
3 168 189 190
3 168 190 169
3 169 190 191
3 169 191 170
3 192 172 170
3 170 191 192
3 192 193 172
3 171 172 193
3 174 171 193
3 194 173 175
3 176 173 194
3 175 174 195
3 193 195 174
3 195 196 175
3 175 196 194
3 197 177 176
3 194 197 176
3 198 178 177
3 197 198 177
3 199 179 178
3 198 199 178
3 200 180 179
3 199 200 179
3 201 181 180
3 200 201 180
3 202 182 181
3 201 202 181
3 203 183 182
3 202 203 182
3 204 184 183
3 203 204 183
3 205 185 184
3 204 205 184
3 186 206 188
3 187 207 186
3 186 207 206
3 188 206 208
3 188 208 189
3 189 208 209
3 189 209 190
3 190 209 210
3 190 210 191
3 191 210 211
3 191 211 192
3 192 211 212
3 192 212 193
3 193 212 213
3 193 213 195
3 214 197 194
3 214 194 196
3 195 213 215
3 195 215 196
3 196 215 214
3 216 198 197
3 214 216 197
3 217 199 198
3 216 217 198
3 218 200 199
3 217 218 199
3 219 201 200
3 218 219 200
3 220 202 201
3 219 220 201
3 221 203 202
3 220 221 202
3 222 204 203
3 221 222 203
3 223 205 204
3 222 223 204
3 206 224 208
3 207 225 206
3 206 225 224
3 208 224 226
3 208 226 209
3 209 226 227
3 209 227 210
3 210 227 228
3 210 228 211
3 211 228 229
3 211 229 212
3 212 229 230
3 212 230 213
3 213 230 231
3 213 231 215
3 232 216 214
3 215 231 232
3 232 214 215
3 233 217 216
3 232 233 216
3 234 218 217
3 233 234 217
3 235 219 218
3 234 235 218
3 236 220 219
3 235 236 219
3 237 221 220
3 236 237 220
3 238 222 221
3 237 238 221
3 239 223 222
3 238 239 222
3 224 240 226
3 225 241 224
3 224 241 240
3 226 240 242
3 226 242 227
3 227 242 243
3 227 243 228
3 228 243 244
3 228 244 229
3 244 245 229
3 229 245 230
3 230 245 246
3 230 246 231
3 231 246 247
3 231 247 232
3 248 233 232
3 248 232 247
3 249 234 233
3 248 249 233
3 250 235 234
3 249 250 234
3 251 236 235
3 250 251 235
3 252 237 236
3 251 252 236
3 253 238 237
3 252 253 237
3 254 239 238
3 253 254 238
3 240 255 242
3 241 256 240
3 240 256 255
3 242 255 257
3 242 257 243
3 243 257 258
3 243 258 244
3 244 258 259
3 244 259 245
3 245 259 260
3 245 260 246
3 246 260 261
3 246 261 247
3 248 247 261
3 262 249 248
3 261 262 248
3 263 250 249
3 262 263 249
3 264 251 250
3 263 264 250
3 265 252 251
3 264 265 251
3 266 253 252
3 265 266 252
3 267 254 253
3 266 267 253
3 255 268 257
3 256 269 255
3 255 269 268
3 257 268 270
3 257 270 258
3 258 270 271
3 258 271 259
3 259 271 272
3 259 272 260
3 260 272 273
3 260 273 261
3 274 262 261
3 261 273 274
3 275 263 262
3 274 275 262
3 276 264 263
3 275 276 263
3 277 265 264
3 276 277 264
3 278 266 265
3 277 278 265
3 279 267 266
3 278 279 266
3 268 280 270
3 269 281 268
3 268 281 280
3 270 280 282
3 270 282 271
3 271 282 283
3 271 283 272
3 283 284 272
3 272 284 273
3 285 275 274
3 273 284 285
3 285 274 273
3 286 276 275
3 285 286 275
3 287 277 276
3 286 287 276
3 288 278 277
3 287 288 277
3 289 279 278
3 288 289 278
3 280 290 282
3 281 291 280
3 280 291 290
3 282 290 292
3 282 292 283
3 283 292 293
3 283 293 284
3 284 293 294
3 284 294 285
3 295 286 285
3 295 285 294
3 296 287 286
3 295 296 286
3 297 288 287
3 296 297 287
3 298 289 288
3 297 298 288
3 290 299 292
3 291 300 290
3 290 300 299
3 292 299 301
3 292 301 293
3 293 301 302
3 293 302 294
3 294 302 295
3 303 296 295
3 303 295 302
3 304 297 296
3 303 304 296
3 305 298 297
3 304 305 297
3 299 306 301
3 300 307 299
3 299 307 306
3 301 306 308
3 301 308 302
3 309 303 302
3 302 308 309
3 310 304 303
3 309 310 303
3 311 305 304
3 310 311 304
3 306 312 308
3 307 313 306
3 306 313 312
3 314 310 309
3 308 312 314
3 314 309 308
3 315 311 310
3 314 315 310
3 312 316 314
3 313 317 312
3 312 317 316
3 318 315 314
3 318 314 316
3 317 319 316
3 319 318 316
CELL_TYPES 578
5
5
5
5
5
5
5
5
5
5
5
5
5
5
5
5
5
5
5
5
5
5
5
5
5
5
5
5
5
5
5
5
5
5
5
5
5
5
5
5
5
5
5
5
5
5
5
5
5
5
5
5
5
5
5
5
5
5
5
5
5
5
5
5
5
5
5
5
5
5
5
5
5
5
5
5
5
5
5
5
5
5
5
5
5
5
5
5
5
5
5
5
5
5
5
5
5
5
5
5
5
5
5
5
5
5
5
5
5
5
5
5
5
5
5
5
5
5
5
5
5
5
5
5
5
5
5
5
5
5
5
5
5
5
5
5
5
5
5
5
5
5
5
5
5
5
5
5
5
5
5
5
5
5
5
5
5
5
5
5
5
5
5
5
5
5
5
5
5
5
5
5
5
5
5
5
5
5
5
5
5
5
5
5
5
5
5
5
5
5
5
5
5
5
5
5
5
5
5
5
5
5
5
5
5
5
5
5
5
5
5
5
5
5
5
5
5
5
5
5
5
5
5
5
5
5
5
5
5
5
5
5
5
5
5
5
5
5
5
5
5
5
5
5
5
5
5
5
5
5
5
5
5
5
5
5
5
5
5
5
5
5
5
5
5
5
5
5
5
5
5
5
5
5
5
5
5
5
5
5
5
5
5
5
5
5
5
5
5
5
5
5
5
5
5
5
5
5
5
5
5
5
5
5
5
5
5
5
5
5
5
5
5
5
5
5
5
5
5
5
5
5
5
5
5
5
5
5
5
5
5
5
5
5
5
5
5
5
5
5
5
5
5
5
5
5
5
5
5
5
5
5
5
5
5
5
5
5
5
5
5
5
5
5
5
5
5
5
5
5
5
5
5
5
5
5
5
5
5
5
5
5
5
5
5
5
5
5
5
5
5
5
5
5
5
5
5
5
5
5
5
5
5
5
5
5
5
5
5
5
5
5
5
5
5
5
5
5
5
5
5
5
5
5
5
5
5
5
5
5
5
5
5
5
5
5
5
5
5
5
5
5
5
5
5
5
5
5
5
5
5
5
5
5
5
5
5
5
5
5
5
5
5
5
5
5
5
5
5
5
5
5
5
5
5
5
5
5
5
5
5
5
5
5
5
5
5
5
5
5
5
5
5
5
5
5
5
5
5
5
5
5
5
5
5
5
5
5
5
5
5
5
5
5
5
5
5
5
5
5
5
5
5
5
5
5
5
5
5
5
5
5
5
5
5
5
5
5
5
5
5
5
5
5
5
5
5
5
5
5
5
5
5
5
5
5
5
5
5
5
5
5
5
5
5
5
5
5
5
5
5
5
5
5
5
5
5
5
POINT_DATA 320
SCALARS theta_e float 1
LOOKUP_TABLE default
1.000001
1.000001
1.000001
1.000001
1.000001
1.000001
1.000001
1.000001
1.000001
1.000001
1.000001
1.000001
1.000001
1.000001
1.000001
1.000001
1.000001
1.000001
1.000001
1.000001
1.000001
1.000001
1.000001
1.000001
1.000001
1.000001
1.000001
1.000001
1.000001
1.000001
1.000001
1.000001
1.000001
1.000001
1.000001
1.000001
1.000001
1.000001
1.000001
1.000001
1.000001
1.000001
1.000001
1.000001
1.000001
1.000001
1.000001
1.000001
1.000001
1.000001
1.000001
1.000001
1.000001
1.000001
1.000001
1.000001
1.000001
1.000001
1.000001
1.000001
1.000001
1.000001
1.000001
1.000001
1.000001
1.000001
1.000001
1.000001
1.000001
1.000001
1.000001
1.000001
1.000001
1.000001
1.000001
1.000001
1.000001
1.000001
1.000001
1.000001
1.000001
1.000001
1.000001
1.000001
1.000001
1.000001
1.000001
1.000001
1.000001
1.000001
1.000001
1.000001
1.000001
1.000001
1.000001
1.000001
1.000001
1.000001
1.000001
1.000001
1.000001
1.000001
1.000001
1.000001
1.000001
1.000001
1.000001
1.000001
1.000001
1.000001
1.000001
1.000001
1.000001
1.000001
1.000001
1.000001
1.000001
1.000001
1.000001
1.000001
1.000001
1.000001
1.000001
1.000001
0.999995
1.000001
0.999999
1.000001
1.000001
1.000001
1.000001
1.000001
1.000001
1.000001
1.000001
1.000001
1.000001
1.000001
1.000001
1.000001
1.000001
1.000001
1.000001
1.000001
1.000001
1.000001
1.000001
1.000001
1.000001
0.999993
0.999976
0.999983
0.999994
1.000001
0.999996
1.000001
1.000002
1.000001
1.000001
1.000001
1.000001
1.000001
1.000001
1.000001
1.000001
1.000001
1.000001
1.000001
1.000001
1.000001
1.000001
0.999997
1.000000
0.999966
0.999981
0.999967
0.999979
0.999992
1.000000
1.000001
1.000001
1.000001
1.000001
1.000001
1.000001
1.000001
1.000001
1.000001
1.000001
1.000001
1.000001
1.000001
1.000001
0.999994
0.999969
0.999976
0.999968
0.999980
0.999996
1.000001
1.000001
1.000001
1.000001
1.000001
1.000001
1.000001
1.000001
1.000001
1.000001
1.000001
1.000001
1.000001
1.000001
0.999994
0.999976
0.999982
0.999992
1.000000
1.000001
1.000001
1.000001
1.000001
1.000001
1.000001
1.000001
1.000001
1.000001
1.000001
1.000001
1.000001
1.000002
0.999999
0.999995
1.000000
1.000001
1.000001
1.000001
1.000001
1.000001
1.000001
1.000001
1.000001
1.000001
1.000001
1.000001
1.000001
1.000002
1.000001
1.000001
1.000001
1.000001
1.000001
1.000001
1.000001
1.000001
1.000001
1.000001
1.000001
1.000001
1.000001
1.000001
1.000001
1.000001
1.000001
1.000001
1.000001
1.000001
1.000001
1.000001
1.000001
1.000001
1.000001
1.000001
1.000001
1.000001
1.000001
1.000001
1.000001
1.000001
1.000001
1.000001
1.000001
1.000001
1.000001
1.000001
1.000001
1.000001
1.000001
1.000001
1.000001
1.000001
1.000001
1.000001
1.000001
1.000001
1.000001
1.000001
1.000001
1.000001
1.000001
1.000001
1.000001
1.000001
1.000001
1.000001
1.000001
1.000001
1.000001
1.000001
1.000001
1.000001
1.000001
1.000001
1.000001
1.000001
1.000001
1.000001
1.000001
1.000001
1.000001
VECTORS fa_u float
0.000000 0.000000 0.000000
0.000000 0.000000 0.000000
0.000000 0.000000 0.000000
0.000000 0.000000 0.000000
0.000000 0.000000 0.000000
0.000000 0.000000 0.000000
0.000000 0.000000 0.000000
0.000000 0.000000 0.000000
0.000000 0.000000 0.000000
0.000000 0.000000 0.000000
0.000000 0.000000 0.000000
0.000000 0.000000 0.000000
0.000000 0.000000 0.000000
0.000000 0.000000 0.000000
0.000000 0.000000 0.000000
0.000000 0.000000 0.000000
0.000000 0.000000 0.000000
0.000000 0.000000 0.000000
0.000000 0.000000 0.000000
0.000000 0.000000 0.000000
0.000000 0.000000 0.000000
0.000000 0.000000 0.000000
0.000000 0.000000 0.000000
0.000000 0.000000 0.000000
0.000000 0.000000 0.000000
0.000000 0.000000 0.000000
0.000000 0.000000 0.000000
0.000000 0.000000 0.000000
0.000000 0.000000 0.000000
0.000000 0.000000 0.000000
0.000000 0.000000 0.000000
0.000000 0.000000 0.000000
0.000000 0.000000 0.000000
0.000000 0.000000 0.000000
0.000000 0.000000 0.000000
0.000000 0.000000 0.000000
0.000000 0.000000 0.000000
0.000000 0.000000 0.000000
0.000000 0.000000 0.000000
0.000000 0.000000 0.000000
0.000000 0.000000 0.000000
0.000000 0.000000 0.000000
0.000000 0.000000 0.000000
0.000000 0.000000 0.000000
0.000000 0.000000 0.000000
0.000000 0.000000 0.000000
0.000000 0.000000 0.000000
0.000000 0.000000 0.000000
0.000000 0.000000 0.000000
0.000000 0.000000 0.000000
0.000000 0.000000 0.000000
0.000000 0.000000 0.000000
0.000000 0.000000 0.000000
0.000000 0.000000 0.000000
0.000000 0.000000 0.000000
0.000000 0.000000 0.000000
0.000000 0.000000 0.000000
0.000000 0.000000 0.000000
0.000000 0.000000 0.000000
0.000000 0.000000 0.000000
0.000000 0.000000 0.000000
0.000000 0.000000 0.000000
0.000000 0.000000 0.000000
0.000000 0.000000 0.000000
0.000000 0.000000 0.000000
0.000000 0.000000 0.000000
0.000000 0.000000 0.000000
0.000000 0.000000 0.000000
0.000000 0.000000 0.000000
0.000000 0.000000 0.000000
0.000000 0.000000 0.000000
0.000000 0.000000 0.000000
0.000000 0.000000 0.000000
0.000000 0.000000 0.000000
0.000000 0.000000 0.000000
0.000000 0.000000 0.000000
0.000000 0.000000 0.000000
0.000000 0.000000 0.000000
0.000000 0.000000 0.000000
0.000000 0.000000 0.000000
0.000000 0.000000 0.000000
0.000000 0.000000 0.000000
0.000000 0.000000 0.000000
0.000000 0.000000 0.000000
0.000000 0.000000 0.000000
0.000000 0.000000 0.000000
0.000000 0.000000 0.000000
0.000000 0.000000 0.000000
0.000000 0.000000 0.000000
0.000000 0.000000 0.000000
0.000000 0.000000 0.000000
0.000000 0.000000 0.000000
0.000000 0.000000 0.000000
0.000000 0.000000 0.000000
0.000000 0.000000 0.000000
0.000000 0.000000 0.000000
0.000000 0.000000 0.000000
0.000000 0.000000 0.000000
0.000000 0.000000 0.000000
0.000000 0.000000 0.000000
0.000000 0.000000 0.000000
0.000000 0.000000 0.000000
0.000000 0.000000 0.000000
0.000000 0.000000 0.000000
0.000000 0.000000 0.000000
0.000000 0.000000 0.000000
0.000000 0.000000 0.000000
0.000000 0.000000 0.000000
0.000000 0.000000 0.000000
0.000000 0.000000 0.000000
0.000000 0.000000 0.000000
0.000000 0.000000 0.000000
0.000000 0.000000 0.000000
0.000000 0.000000 0.000000
0.000000 0.000000 0.000000
0.000000 0.000000 0.000000
0.000000 0.000000 0.000000
0.000000 0.000000 0.000000
0.000000 0.000000 0.000000
0.000000 0.000000 0.000000
0.000000 0.000000 0.000000
0.000000 0.000000 0.000000
0.000000 0.000000 0.000000
0.000000 0.000000 0.000000
0.000000 0.000000 0.000000
0.000000 0.000000 0.000000
0.000000 0.000000 0.000000
0.000000 0.000000 0.000000
0.000000 0.000000 0.000000
0.000000 0.000000 0.000000
0.000000 0.000000 0.000000
0.000000 0.000000 0.000000
0.000000 0.000000 0.000000
0.000000 0.000000 0.000000
0.000000 0.000000 0.000000
0.000000 0.000000 0.000000
0.000000 0.000000 0.000000
0.000000 0.000000 0.000000
0.000000 0.000000 0.000000
0.000000 0.000000 0.000000
0.000000 0.000000 0.000000
0.000000 0.000000 0.000000
0.000000 0.000000 0.000000
0.000000 0.000000 0.000000
0.000000 0.000000 0.000000
0.000000 0.000000 0.000000
0.000000 0.000000 0.000000
0.000000 0.000000 0.000000
0.000000 0.000000 0.000000
0.000000 0.000000 0.000000
0.000000 0.000000 0.000000
0.000000 0.000000 0.000000
0.000000 0.000000 0.000000
0.000000 0.000000 0.000000
0.000000 0.000000 0.000000
0.000000 0.000000 0.000000
0.000000 0.000000 0.000000
0.000000 0.000000 0.000000
0.000000 0.000000 0.000000
0.000000 0.000000 0.000000
0.000000 0.000000 0.000000
0.000000 0.000000 0.000000
0.000000 0.000000 0.000000
0.000000 0.000000 0.000000
0.000000 0.000000 0.000000
0.000000 0.000000 0.000000
0.000000 0.000000 0.000000
0.000000 0.000000 0.000000
0.000000 0.000000 0.000000
0.000000 0.000000 0.000000
0.000000 0.000000 0.000000
0.000000 0.000000 0.000000
0.000000 0.000000 0.000000
0.000000 0.000000 0.000000
0.000000 0.000000 0.000000
0.000000 0.000000 0.000000
0.000000 0.000000 0.000000
0.000000 0.000000 0.000000
0.000000 0.000000 0.000000
0.000000 0.000000 0.000000
0.000000 0.000000 0.000000
0.000000 0.000000 0.000000
0.000000 0.000000 0.000000
0.000000 0.000000 0.000000
0.000000 0.000000 0.000000
0.000000 0.000000 0.000000
0.000000 0.000000 0.000000
0.000000 0.000000 0.000000
0.000000 0.000000 0.000000
0.000000 0.000000 0.000000
0.000000 0.000000 0.000000
0.000000 0.000000 0.000000
0.000000 0.000000 0.000000
0.000000 0.000000 0.000000
0.000000 0.000000 0.000000
0.000000 0.000000 0.000000
0.000000 0.000000 0.000000
0.000000 0.000000 0.000000
0.000000 0.000000 0.000000
0.000000 0.000000 0.000000
0.000000 0.000000 0.000000
0.000000 0.000000 0.000000
0.000000 0.000000 0.000000
0.000000 0.000000 0.000000
0.000000 0.000000 0.000000
0.000000 0.000000 0.000000
0.000000 0.000000 0.000000
0.000000 0.000000 0.000000
0.000000 0.000000 0.000000
0.000000 0.000000 0.000000
0.000000 0.000000 0.000000
0.000000 0.000000 0.000000
0.000000 0.000000 0.000000
0.000000 0.000000 0.000000
0.000000 0.000000 0.000000
0.000000 0.000000 0.000000
0.000000 0.000000 0.000000
0.000000 0.000000 0.000000
0.000000 0.000000 0.000000
0.000000 0.000000 0.000000
0.000000 0.000000 0.000000
0.000000 0.000000 0.000000
0.000000 0.000000 0.000000
0.000000 0.000000 0.000000
0.000000 0.000000 0.000000
0.000000 0.000000 0.000000
0.000000 0.000000 0.000000
0.000000 0.000000 0.000000
0.000000 0.000000 0.000000
0.000000 0.000000 0.000000
0.000000 0.000000 0.000000
0.000000 0.000000 0.000000
0.000000 0.000000 0.000000
0.000000 0.000000 0.000000
0.000000 0.000000 0.000000
0.000000 0.000000 0.000000
0.000000 0.000000 0.000000
0.000000 0.000000 0.000000
0.000000 0.000000 0.000000
0.000000 0.000000 0.000000
0.000000 0.000000 0.000000
0.000000 0.000000 0.000000
0.000000 0.000000 0.000000
0.000000 0.000000 0.000000
0.000000 0.000000 0.000000
0.000000 0.000000 0.000000
0.000000 0.000000 0.000000
0.000000 0.000000 0.000000
0.000000 0.000000 0.000000
0.000000 0.000000 0.000000
0.000000 0.000000 0.000000
0.000000 0.000000 0.000000
0.000000 0.000000 0.000000
0.000000 0.000000 0.000000
0.000000 0.000000 0.000000
0.000000 0.000000 0.000000
0.000000 0.000000 0.000000
0.000000 0.000000 0.000000
0.000000 0.000000 0.000000
0.000000 0.000000 0.000000
0.000000 0.000000 0.000000
0.000000 0.000000 0.000000
0.000000 0.000000 0.000000
0.000000 0.000000 0.000000
0.000000 0.000000 0.000000
0.000000 0.000000 0.000000
0.000000 0.000000 0.000000
0.000000 0.000000 0.000000
0.000000 0.000000 0.000000
0.000000 0.000000 0.000000
0.000000 0.000000 0.000000
0.000000 0.000000 0.000000
0.000000 0.000000 0.000000
0.000000 0.000000 0.000000
0.000000 0.000000 0.000000
0.000000 0.000000 0.000000
0.000000 0.000000 0.000000
0.000000 0.000000 0.000000
0.000000 0.000000 0.000000
0.000000 0.000000 0.000000
0.000000 0.000000 0.000000
0.000000 0.000000 0.000000
0.000000 0.000000 0.000000
0.000000 0.000000 0.000000
0.000000 0.000000 0.000000
0.000000 0.000000 0.000000
0.000000 0.000000 0.000000
0.000000 0.000000 0.000000
0.000000 0.000000 0.000000
0.000000 0.000000 0.000000
0.000000 0.000000 0.000000
0.000000 0.000000 0.000000
0.000000 0.000000 0.000000
0.000000 0.000000 0.000000
0.000000 0.000000 0.000000
0.000000 0.000000 0.000000
0.000000 0.000000 -50.000000
-50.000000 0.000000 -50.000000
-43.333138 0.000000 -45.688330
-45.491094 0.000000 -43.333113
-50.000000 0.000000 -50.000000
-36.666266 0.000000 -36.666282
-50.000000 0.000000 -45.081059
-39.969743 0.000000 -40.027102
-44.152216 0.000000 -29.999437
-50.000000 0.000000 -50.000000
-29.999412 0.000000 -44.847027
-33.448874 0.000000 -33.144853
-44.675621 0.000000 -39.869052
-36.786941 0.000000 -35.128570
-39.801222 0.000000 -23.332666
-50.000000 0.000000 -26.539093
-44.666708 0.000000 -50.000000
-23.332643 0.000000 -44.665247
-26.803868 0.000000 -39.364183
-30.225621 0.000000 -29.606178
-39.359294 0.000000 -33.368133
-33.655363 0.000000 -50.000000
-16.665999 0.000000 -16.666036
-50.000000 0.000000 -9.999550
