# vtk DataFile Version 2.0
CellBP Time: 1.84
ASCII
DATASET UNSTRUCTURED_GRID
POINTS 320 double
-50.000000 -50.000000 0.000000
-50.000000 -43.333100 0.000000
-45.688344 -45.491106 0.000000
-43.333069 -50.000000 0.000000
-50.000000 -36.666188 0.000000
-36.666204 -50.000000 0.000000
-45.081073 -39.969753 0.000000
-40.027123 -44.152229 0.000000
-29.999322 -50.000000 0.000000
-50.000000 -29.999298 0.000000
-44.847041 -33.448883 0.000000
-33.144869 -44.675635 0.000000
-39.869069 -36.786951 0.000000
-35.128591 -39.801239 0.000000
-23.332529 -50.000000 0.000000
-26.539109 -44.666715 0.000000
-50.000000 -23.332510 0.000000
-44.665252 -26.803880 0.000000
-39.364196 -30.225633 0.000000
-29.606201 -39.359307 0.000000
-33.368156 -33.655379 0.000000
-50.000000 -16.665872 0.000000
-16.665907 -50.000000 0.000000
-9.999459 -50.000000 0.000000
-19.964838 -44.588771 0.000000
-23.215846 -39.114662 0.000000
-44.691891 -20.096871 0.000000
-39.367828 -23.528122 0.000000
-34.106080 -26.936969 0.000000
-26.384343 -33.577171 0.000000
-29.156119 -28.926543 0.000000
-50.000000 -9.999368 0.000000
-44.666360 -13.410152 0.000000
-50.000000 -3.333033 0.000000
-3.333156 -50.000000 0.000000
3.333110 -50.000000 0.000000
-13.343597 -44.599054 0.000000
-6.684694 -44.610743 0.000000
-16.693670 -39.153313 0.000000
-20.106956 -33.342660 0.000000
-39.338171 -16.804778 0.000000
-34.018626 -20.274673 0.000000
-28.780840 -23.448987 0.000000
-23.510438 -27.350121 0.000000
-44.635481 -6.705576 0.000000
-39.293063 -10.101846 0.000000
-50.000000 3.333213 0.000000
-44.626802 -0.015674 0.000000
9.999444 -50.000000 0.000000
16.665917 -50.000000 0.000000
-0.016113 -44.618812 0.000000
6.651582 -44.635480 0.000000
-10.044683 -39.222607 0.000000
-3.368229 -39.220427 0.000000
-13.484270 -33.798762 0.000000
-16.709650 -28.271424 0.000000
-33.948063 -13.514142 0.000000
-28.601654 -16.892411 0.000000
-23.291446 -20.312918 0.000000
-18.660295 -23.282681 0.000000
-39.267556 -3.392879 0.000000
-33.904546 -6.796775 0.000000
-50.000000 9.999491 0.000000
-44.606820 6.673325 0.000000
-39.260985 3.325618 0.000000
-50.000000 16.665921 0.000000
23.332534 -50.000000 0.000000
29.999294 -50.000000 0.000000
13.317363 -44.662985 0.000000
19.989489 -44.700119 0.000000
3.307660 -39.245159 0.000000
9.971769 -39.290305 0.000000
-6.735280 -33.791370 0.000000
-0.032324 -33.829627 0.000000
-10.095939 -28.293463 0.000000
-13.122807 -22.898212 0.000000
-28.532595 -10.215010 0.000000
-23.066659 -13.663254 0.000000
-16.977310 -17.209249 0.000000
-33.884769 -0.065459 0.000000
-28.563201 -3.578918 0.000000
-44.564164 13.380351 0.000000
-39.190132 10.014987 0.000000
-33.905812 6.615981 0.000000
-50.000000 23.332488 0.000000
-44.557693 20.138086 0.000000
-50.000000 29.999316 0.000000
36.666164 -50.000000 0.000000
43.333071 -50.000000 0.000000
26.663118 -44.745284 0.000000
33.315203 -44.875919 0.000000
16.631619 -39.357699 0.000000
23.328181 -39.437072 0.000000
6.642805 -33.879514 0.000000
13.290744 -33.965466 0.000000
-3.345648 -28.362941 0.000000
3.357146 -28.451289 0.000000
-6.626022 -22.846055 0.000000
-9.969865 -17.314914 0.000000
-23.184697 -7.014800 0.000000
-17.810814 -10.334780 0.000000
-12.837541 -12.592056 0.000000
-28.607510 3.088493 0.000000
-23.264969 -0.468405 0.000000
-39.038993 16.746437 0.000000
-28.721232 9.926346 0.000000
-33.761612 13.318402 0.000000
-44.521683 26.716816 0.000000
-38.467741 23.892466 0.000000
-44.632232 33.085460 0.000000
-50.000000 36.666281 0.000000
-50.000000 43.333129 0.000000
39.922307 -45.069544 0.000000
45.474625 -45.660403 0.000000
50.000000 -50.000000 0.000000
36.626719 -39.981917 0.000000
30.012263 -39.458569 0.000000
19.904172 -34.092756 0.000000
26.584973 -34.319441 0.000000
9.988778 -28.513462 0.000000
16.610921 -28.659893 0.000000
0.051961 -22.959602 0.000000
6.812206 -23.157986 0.000000
-3.400536 -17.297353 0.000000
-6.857341 -11.007539 0.000000
-17.877740 -3.826596 0.000000
-12.552984 -7.035610 0.000000
-23.310305 6.073034 0.000000
-18.037244 2.453010 0.000000
-23.122207 12.095622 0.000000
-33.572103 19.788907 0.000000
-27.941327 16.885432 0.000000
-33.292782 24.722627 0.000000
-39.473456 30.052679 0.000000
-35.160206 28.137410 0.000000
-39.815872 35.101308 0.000000
-43.991624 39.982104 0.000000
-45.430984 45.685097 0.000000
-50.000000 50.000000 0.000000
44.117183 -39.898930 0.000000
50.000000 -43.332988 0.000000
39.639355 -35.047344 0.000000
33.462826 -33.424487 0.000000
22.984828 -28.817893 0.000000
28.730918 -29.247741 0.000000
13.460707 -23.121746 0.000000
20.054803 -23.438858 0.000000
3.385483 -17.587320 0.000000
10.126648 -17.840384 0.000000
0.145863 -11.978496 0.000000
-2.150932 -6.253063 0.000000
-7.373218 -3.686057 0.000000
-12.602339 -0.803393 0.000000
-18.163686 8.573024 0.000000
-12.960900 5.196579 0.000000
-18.639197 13.751940 0.000000
-21.504593 17.494978 0.000000
-28.940692 23.158369 0.000000
-24.346245 21.554672 0.000000
-30.323439 28.634737 0.000000
-34.253336 33.375484 0.000000
-36.955871 39.578030 0.000000
-39.838648 45.102705 0.000000
-43.333062 50.000000 0.000000
44.585182 -32.971996 0.000000
50.000000 -36.666083 0.000000
39.129263 -29.581763 0.000000
33.500535 -26.367612 0.000000
27.182738 -23.322105 0.000000
23.065870 -18.647784 0.000000
16.989604 -16.979960 0.000000
6.710054 -12.212558 0.000000
12.354946 -12.733283 0.000000
-3.382547 -1.493331 0.000000
3.918965 -6.991538 0.000000
1.022482 -2.120997 0.000000
-6.992948 2.320760 0.000000
-8.410614 7.806582 0.000000
-12.846248 11.932452 0.000000
-15.692604 17.700314 0.000000
-19.287225 22.982739 0.000000
-24.170957 27.354854 0.000000
-27.286288 33.626063 0.000000
-30.406605 39.161239 0.000000
-33.447741 44.738849 0.000000
-36.666142 50.000000 0.000000
44.547714 -26.499799 0.000000
50.000000 -29.999194 0.000000
39.040018 -23.179228 0.000000
33.449770 -19.899963 0.000000
28.040064 -16.574317 0.000000
22.683134 -13.124237 0.000000
17.176448 -9.908822 0.000000
10.918130 -6.637806 0.000000
-1.352593 2.308950 0.000000
6.213149 -1.737016 0.000000
2.906711 1.600046 0.000000
-3.532193 7.161106 0.000000
-6.312429 12.442796 0.000000
-9.629376 17.702791 0.000000
-13.166900 23.112493 0.000000
-17.316541 28.185193 0.000000
-20.570609 33.474426 0.000000
-23.665840 39.064013 0.000000
-26.830791 44.585376 0.000000
-29.999316 50.000000 0.000000
44.528719 -19.930521 0.000000
50.000000 -23.332422 0.000000
39.036372 -16.594043 0.000000
33.576333 -13.281207 0.000000
28.150675 -9.964902 0.000000
22.725931 -6.604574 0.000000
17.264620 -3.337160 0.000000
11.987128 0.194954 0.000000
1.928048 6.283620 0.000000
7.008027 3.824236 0.000000
-0.214511 11.949378 0.000000
-3.266846 17.529827 0.000000
-6.700826 22.977948 0.000000
-10.567888 28.267534 0.000000
-13.723891 33.661492 0.000000
-16.945575 39.080406 0.000000
-20.140431 44.548476 0.000000
-23.332584 50.000000 0.000000
44.536329 -13.303628 0.000000
50.000000 -16.665820 0.000000
39.079964 -9.966636 0.000000
33.646802 -6.640961 0.000000
28.236029 -3.307432 0.000000
22.846507 0.018275 0.000000
17.534625 3.359558 0.000000
12.209966 6.596100 0.000000
6.716970 10.834835 0.000000
3.301399 17.195912 0.000000
-0.081507 22.851420 0.000000
-3.518480 28.312594 0.000000
-6.831255 33.774326 0.000000
-10.137278 39.170562 0.000000
-13.435591 44.563585 0.000000
-16.665995 50.000000 0.000000
44.554405 -6.654686 0.000000
50.000000 -9.999406 0.000000
39.123439 -3.321307 0.000000
33.713433 0.008764 0.000000
28.333202 3.344020 0.000000
23.001761 6.693843 0.000000
17.832288 10.023049 0.000000
12.655111 12.228218 0.000000
9.790456 17.234757 0.000000
6.477799 22.722404 0.000000
3.188642 28.269519 0.000000
-0.115903 33.734692 0.000000
-3.425152 39.168568 0.000000
-6.725346 44.581854 0.000000
-9.999538 50.000000 0.000000
44.575708 0.001910 0.000000
50.000000 -3.333137 0.000000
39.166863 3.331896 0.000000
33.779251 6.655566 0.000000
28.424172 9.995075 0.000000
23.046315 13.416512 0.000000
16.948252 17.022281 0.000000
12.901628 22.670514 0.000000
9.814695 28.232224 0.000000
6.604149 33.718719 0.000000
3.286526 39.164418 0.000000
-0.029875 44.584605 0.000000
-3.333184 50.000000 0.000000
44.586760 6.665470 0.000000
50.000000 3.333115 0.000000
39.198040 9.981907 0.000000
33.843371 13.277091 0.000000
28.541781 16.584846 0.000000
23.386671 20.084369 0.000000
18.531706 23.112149 0.000000
16.393289 28.298734 0.000000
13.328886 33.754789 0.000000
9.986495 39.181963 0.000000
6.665923 44.584390 0.000000
3.333136 50.000000 0.000000
44.608907 13.317838 0.000000
50.000000 9.999462 0.000000
39.251333 16.612404 0.000000
33.931809 19.862864 0.000000
28.612207 22.926003 0.000000
23.279588 27.207504 0.000000
19.901269 33.303126 0.000000
16.573705 39.040972 0.000000
13.268237 44.526790 0.000000
9.999478 50.000000 0.000000
44.632072 19.972880 0.000000
50.000000 16.665950 0.000000
39.298456 23.262077 0.000000
34.043734 26.514690 0.000000
28.965690 28.539450 0.000000
26.202306 33.410112 0.000000
23.066646 38.968838 0.000000
19.888471 44.507072 0.000000
16.665918 50.000000 0.000000
44.639779 26.642827 0.000000
50.000000 23.332574 0.000000
39.293319 29.966638 0.000000
33.212321 33.371232 0.000000
29.412041 39.045826 0.000000
26.422292 44.505962 0.000000
23.332521 50.000000 0.000000
44.774939 33.291731 0.000000
50.000000 29.999329 0.000000
39.738141 36.596261 0.000000
34.830987 39.525566 0.000000
32.833750 44.514246 0.000000
29.999274 50.000000 0.000000
44.978201 39.877809 0.000000
50.000000 36.666185 0.000000
39.734797 43.968978 0.000000
36.666137 50.000000 0.000000
45.621245 45.409748 0.000000
50.000000 43.333079 0.000000
43.333017 50.000000 0.000000
50.000000 50.000000 0.000000
CELLS 578 2312
3 1 0 2
3 0 3 2
3 4 1 6
3 6 1 2
3 3 5 7
3 3 7 2
3 6 2 7
3 9 4 10
3 10 4 6
3 5 8 11
3 7 5 11
3 10 6 12
3 12 6 7
3 7 11 13
3 7 13 12
3 8 14 15
3 11 8 15
3 16 9 17
3 17 9 10
3 17 10 18
3 18 10 12
3 11 15 19
3 13 11 19
3 18 12 20
3 13 19 20
3 20 12 13
3 14 22 24
3 15 14 24
3 15 24 25
3 19 15 25
3 21 16 26
3 26 16 17
3 26 17 27
3 27 17 18
3 27 18 28
3 28 18 20
3 19 25 29
3 19 29 20
3 28 20 30
3 30 20 29
3 31 21 32
3 32 21 26
3 22 23 36
3 24 22 36
3 23 34 37
3 36 23 37
3 24 36 38
3 25 24 38
3 25 38 39
3 29 25 39
3 32 26 40
3 40 26 27
3 40 27 41
3 41 27 28
3 41 28 42
3 42 28 30
3 29 39 43
3 29 43 30
3 42 30 43
3 33 31 44
3 44 31 32
3 44 32 45
3 45 32 40
3 46 33 47
3 47 33 44
3 34 35 50
3 37 34 50
3 35 48 51
3 50 35 51
3 36 37 52
3 38 36 52
3 37 50 53
3 52 37 53
3 38 52 54
3 39 38 54
3 39 54 55
3 43 39 55
3 45 40 56
3 56 40 41
3 56 41 57
3 57 41 42
3 57 42 58
3 58 42 43
3 43 55 59
3 43 59 58
3 47 44 60
3 60 44 45
3 60 45 61
3 61 45 56
3 62 46 63
3 63 46 47
3 63 47 64
3 64 47 60
3 48 49 68
3 51 48 68
3 49 66 69
3 68 49 69
3 50 51 70
3 53 50 70
3 51 68 71
3 70 51 71
3 52 53 72
3 54 52 72
3 53 70 73
3 72 53 73
3 54 72 74
3 55 54 74
3 55 74 75
3 59 55 75
3 61 56 76
3 76 56 57
3 76 57 77
3 77 57 58
3 77 58 78
3 59 75 78
3 78 58 59
3 64 60 79
3 79 60 61
3 79 61 80
3 80 61 76
3 65 62 81
3 81 62 63
3 81 63 82
3 82 63 64
3 82 64 83
3 83 64 79
3 84 65 85
3 85 65 81
3 66 67 89
3 69 66 89
3 67 87 90
3 89 67 90
3 68 69 91
3 71 68 91
3 69 89 92
3 91 69 92
3 70 71 93
3 73 70 93
3 71 91 94
3 93 71 94
3 72 73 95
3 74 72 95
3 73 93 96
3 95 73 96
3 74 95 97
3 75 74 97
3 75 97 98
3 78 75 98
3 80 76 99
3 99 76 77
3 99 77 100
3 100 77 78
3 100 78 101
3 98 101 78
3 83 79 102
3 102 79 80
3 102 80 103
3 103 80 99
3 85 81 104
3 104 81 82
3 105 83 102
3 104 82 106
3 106 82 83
3 106 83 105
3 86 84 107
3 107 84 85
3 107 85 108
3 108 85 104
3 109 86 107
3 110 86 109
3 87 88 112
3 90 87 112
3 112 88 113
3 88 114 113
3 90 112 115
3 89 90 116
3 92 89 116
3 116 90 115
3 91 92 117
3 94 91 117
3 92 116 118
3 117 92 118
3 93 94 119
3 96 93 119
3 94 117 120
3 119 94 120
3 95 96 121
3 97 95 121
3 96 119 122
3 121 96 122
3 97 121 123
3 98 97 123
3 98 123 124
3 98 124 101
3 103 99 125
3 125 99 100
3 125 100 126
3 126 100 101
3 126 101 124
3 105 102 127
3 127 102 103
3 127 103 128
3 128 103 125
3 129 105 127
3 108 104 130
3 130 104 106
3 130 106 131
3 131 106 105
3 131 105 129
3 108 130 132
3 109 107 133
3 133 107 108
3 133 108 134
3 108 132 134
3 135 109 133
3 111 110 136
3 136 110 109
3 136 109 135
3 137 111 136
3 138 111 137
3 112 113 139
3 115 112 139
3 114 140 113
3 140 139 113
3 139 141 115
3 116 115 142
3 118 116 142
3 142 115 141
3 117 118 143
3 120 117 143
3 118 142 144
3 143 118 144
3 119 120 145
3 122 119 145
3 120 143 146
3 145 120 146
3 121 122 147
3 123 121 147
3 122 145 148
3 147 122 148
3 123 147 149
3 124 123 149
3 124 149 150
3 151 126 124
3 124 150 151
3 128 125 152
3 152 125 126
3 152 126 151
3 129 127 153
3 153 127 128
3 128 152 154
3 153 128 154
3 155 129 153
3 131 129 156
3 156 129 155
3 132 130 157
3 130 131 157
3 157 131 158
3 131 156 158
3 132 157 159
3 132 159 134
3 135 133 160
3 160 133 134
3 160 134 159
3 136 135 161
3 135 160 161
3 162 137 136
3 161 162 136
3 163 138 137
3 162 163 137
3 139 164 141
3 140 165 139
3 139 165 164
3 141 164 166
3 141 166 142
3 166 167 142
3 144 142 167
3 167 168 144
3 143 144 168
3 146 143 168
3 168 169 146
3 145 146 170
3 148 145 170
3 170 146 169
3 147 148 171
3 149 147 171
3 148 170 172
3 171 148 172
3 173 151 150
3 149 171 174
3 150 149 174
3 150 174 175
3 150 175 173
3 154 152 176
3 152 151 176
3 176 151 173
3 154 176 177
3 155 153 178
3 177 178 154
3 154 178 153
3 156 155 179
3 155 178 179
3 180 158 156
3 179 180 156
3 181 159 157
3 180 181 158
3 181 157 158
3 182 160 159
3 181 182 159
3 183 161 160
3 182 183 160
3 184 162 161
3 184 161 183
3 185 163 162
3 184 185 162
3 164 186 166
3 165 187 164
3 164 187 186
3 166 186 188
3 166 188 167
3 167 188 189
3 167 189 168
3 168 189 190
3 168 190 169
3 169 190 191
3 169 191 170
3 192 172 170
3 170 191 192
3 192 193 172
3 171 172 193
3 174 171 193
3 194 173 175
3 176 173 194
3 175 174 195
3 193 195 174
3 195 196 175
3 175 196 194
3 197 177 176
3 194 197 176
3 198 178 177
3 197 198 177
3 199 179 178
3 198 199 178
3 200 180 179
3 199 200 179
3 201 181 180
3 200 201 180
3 202 182 181
3 201 202 181
3 203 183 182
3 202 203 182
3 204 184 183
3 203 204 183
3 205 185 184
3 204 205 184
3 186 206 188
3 187 207 186
3 186 207 206
3 188 206 208
3 188 208 189
3 189 208 209
3 189 209 190
3 190 209 210
3 190 210 191
3 191 210 211
3 191 211 192
3 192 211 212
3 192 212 193
3 193 212 213
3 193 213 195
3 214 197 194
3 214 194 196
3 195 213 215
3 195 215 196
3 196 215 214
3 216 198 197
3 214 216 197
3 217 199 198
3 216 217 198
3 218 200 199
3 217 218 199
3 219 201 200
3 218 219 200
3 220 202 201
3 219 220 201
3 221 203 202
3 220 221 202
3 222 204 203
3 221 222 203
3 223 205 204
3 222 223 204
3 206 224 208
3 207 225 206
3 206 225 224
3 208 224 226
3 208 226 209
3 209 226 227
3 209 227 210
3 210 227 228
3 210 228 211
3 211 228 229
3 211 229 212
3 212 229 230
3 212 230 213
3 213 230 231
3 213 231 215
3 232 216 214
3 215 231 232
3 232 214 215
3 233 217 216
3 232 233 216
3 234 218 217
3 233 234 217
3 235 219 218
3 234 235 218
3 236 220 219
3 235 236 219
3 237 221 220
3 236 237 220
3 238 222 221
3 237 238 221
3 239 223 222
3 238 239 222
3 224 240 226
3 225 241 224
3 224 241 240
3 226 240 242
3 226 242 227
3 227 242 243
3 227 243 228
3 228 243 244
3 228 244 229
3 244 245 229
3 229 245 230
3 230 245 246
3 230 246 231
3 231 246 247
3 231 247 232
3 248 233 232
3 248 232 247
3 249 234 233
3 248 249 233
3 250 235 234
3 249 250 234
3 251 236 235
3 250 251 235
3 252 237 236
3 251 252 236
3 253 238 237
3 252 253 237
3 254 239 238
3 253 254 238
3 240 255 242
3 241 256 240
3 240 256 255
3 242 255 257
3 242 257 243
3 243 257 258
3 243 258 244
3 244 258 259
3 244 259 245
3 245 259 260
3 245 260 246
3 246 260 261
3 246 261 247
3 248 247 261
3 262 249 248
3 261 262 248
3 263 250 249
3 262 263 249
3 264 251 250
3 263 264 250
3 265 252 251
3 264 265 251
3 266 253 252
3 265 266 252
3 267 254 253
3 266 267 253
3 255 268 257
3 256 269 255
3 255 269 268
3 257 268 270
3 257 270 258
3 258 270 271
3 258 271 259
3 259 271 272
3 259 272 260
3 260 272 273
3 260 273 261
3 274 262 261
3 261 273 274
3 275 263 262
3 274 275 262
3 276 264 263
3 275 276 263
3 277 265 264
3 276 277 264
3 278 266 265
3 277 278 265
3 279 267 266
3 278 279 266
3 268 280 270
3 269 281 268
3 268 281 280
3 270 280 282
3 270 282 271
3 271 282 283
3 271 283 272
3 283 284 272
3 272 284 273
3 285 275 274
3 273 284 285
3 285 274 273
3 286 276 275
3 285 286 275
3 287 277 276
3 286 287 276
3 288 278 277
3 287 288 277
3 289 279 278
3 288 289 278
3 280 290 282
3 281 291 280
3 280 291 290
3 282 290 292
3 282 292 283
3 283 292 293
3 283 293 284
3 284 293 294
3 284 294 285
3 295 286 285
3 295 285 294
3 296 287 286
3 295 296 286
3 297 288 287
3 296 297 287
3 298 289 288
3 297 298 288
3 290 299 292
3 291 300 290
3 290 300 299
3 292 299 301
3 292 301 293
3 293 301 302
3 293 302 294
3 294 302 295
3 303 296 295
3 303 295 302
3 304 297 296
3 303 304 296
3 305 298 297
3 304 305 297
3 299 306 301
3 300 307 299
3 299 307 306
3 301 306 308
3 301 308 302
3 309 303 302
3 302 308 309
3 310 304 303
3 309 310 303
3 311 305 304
3 310 311 304
3 306 312 308
3 307 313 306
3 306 313 312
3 314 310 309
3 308 312 314
3 314 309 308
3 315 311 310
3 314 315 310
3 312 316 314
3 313 317 312
3 312 317 316
3 318 315 314
3 318 314 316
3 317 319 316
3 319 318 316
CELL_TYPES 578
5
5
5
5
5
5
5
5
5
5
5
5
5
5
5
5
5
5
5
5
5
5
5
5
5
5
5
5
5
5
5
5
5
5
5
5
5
5
5
5
5
5
5
5
5
5
5
5
5
5
5
5
5
5
5
5
5
5
5
5
5
5
5
5
5
5
5
5
5
5
5
5
5
5
5
5
5
5
5
5
5
5
5
5
5
5
5
5
5
5
5
5
5
5
5
5
5
5
5
5
5
5
5
5
5
5
5
5
5
5
5
5
5
5
5
5
5
5
5
5
5
5
5
5
5
5
5
5
5
5
5
5
5
5
5
5
5
5
5
5
5
5
5
5
5
5
5
5
5
5
5
5
5
5
5
5
5
5
5
5
5
5
5
5
5
5
5
5
5
5
5
5
5
5
5
5
5
5
5
5
5
5
5
5
5
5
5
5
5
5
5
5
5
5
5
5
5
5
5
5
5
5
5
5
5
5
5
5
5
5
5
5
5
5
5
5
5
5
5
5
5
5
5
5
5
5
5
5
5
5
5
5
5
5
5
5
5
5
5
5
5
5
5
5
5
5
5
5
5
5
5
5
5
5
5
5
5
5
5
5
5
5
5
5
5
5
5
5
5
5
5
5
5
5
5
5
5
5
5
5
5
5
5
5
5
5
5
5
5
5
5
5
5
5
5
5
5
5
5
5
5
5
5
5
5
5
5
5
5
5
5
5
5
5
5
5
5
5
5
5
5
5
5
5
5
5
5
5
5
5
5
5
5
5
5
5
5
5
5
5
5
5
5
5
5
5
5
5
5
5
5
5
5
5
5
5
5
5
5
5
5
5
5
5
5
5
5
5
5
5
5
5
5
5
5
5
5
5
5
5
5
5
5
5
5
5
5
5
5
5
5
5
5
5
5
5
5
5
5
5
5
5
5
5
5
5
5
5
5
5
5
5
5
5
5
5
5
5
5
5
5
5
5
5
5
5
5
5
5
5
5
5
5
5
5
5
5
5
5
5
5
5
5
5
5
5
5
5
5
5
5
5
5
5
5
5
5
5
5
5
5
5
5
5
5
5
5
5
5
5
5
5
5
5
5
5
5
5
5
5
5
5
5
5
5
5
5
5
5
5
5
5
5
5
5
5
5
5
5
5
5
5
5
5
5
5
5
5
5
5
5
5
5
5
5
5
5
5
5
5
5
5
5
5
5
5
5
5
5
5
5
5
5
5
5
5
5
5
5
5
5
5
5
5
5
5
5
5
5
5
5
5
5
5
5
5
5
5
5
5
5
5
5
5
5
5
5
5
5
5
5
5
5
5
5
5
5
5
POINT_DATA 320
SCALARS theta_e float 1
LOOKUP_TABLE default
1.000001
1.000001
1.000001
1.000001
1.000001
1.000001
1.000001
1.000001
1.000001
1.000001
1.000001
1.000001
1.000001
1.000001
1.000001
1.000001
1.000001
1.000001
1.000001
1.000001
1.000001
1.000001
1.000001
1.000001
1.000001
1.000001
1.000001
1.000001
1.000001
1.000001
1.000001
1.000001
1.000001
1.000001
1.000001
1.000001
1.000001
1.000001
1.000001
1.000001
1.000001
1.000001
1.000001
1.000001
1.000001
1.000001
1.000001
1.000001
1.000001
1.000001
1.000001
1.000001
1.000001
1.000001
1.000001
1.000001
1.000001
1.000001
1.000001
1.000001
1.000001
1.000001
1.000001
1.000001
1.000001
1.000001
1.000001
1.000001
1.000001
1.000001
1.000001
1.000001
1.000001
1.000001
1.000001
1.000001
1.000001
1.000001
1.000001
1.000001
1.000001
1.000001
1.000001
1.000001
1.000001
1.000001
1.000001
1.000001
1.000001
1.000001
1.000001
1.000001
1.000001
1.000001
1.000001
1.000001
1.000001
1.000001
1.000002
1.000001
1.000001
1.000001
1.000001
1.000001
1.000001
1.000001
1.000001
1.000001
1.000001
1.000001
1.000001
1.000001
1.000001
1.000001
1.000001
1.000001
1.000001
1.000001
1.000001
1.000001
1.000001
1.000001
1.000001
1.000002
0.999995
1.000001
0.999998
1.000002
1.000002
1.000001
1.000001
1.000001
1.000001
1.000001
1.000001
1.000001
1.000001
1.000001
1.000001
1.000001
1.000001
1.000001
1.000001
1.000001
1.000001
1.000001
1.000001
1.000002
1.000001
0.999994
0.999974
0.999981
0.999995
1.000002
0.999998
1.000002
1.000001
1.000001
1.000001
1.000001
1.000001
1.000001
1.000001
1.000001
1.000001
1.000001
1.000001
1.000001
1.000001
1.000001
1.000001
0.999999
1.000001
0.999963
0.999980
0.999963
0.999977
0.999994
1.000002
1.000001
1.000001
1.000001
1.000001
1.000001
1.000001
1.000001
1.000001
1.000001
1.000001
1.000001
1.000001
1.000001
1.000001
0.999995
0.999964
0.999973
0.999962
0.999978
0.999998
1.000001
1.000001
1.000001
1.000001
1.000001
1.000001
1.000001
1.000001
1.000001
1.000001
1.000001
1.000001
1.000001
1.000002
0.999993
0.999973
0.999980
0.999992
1.000001
1.000001
1.000001
1.000001
1.000001
1.000001
1.000001
1.000001
1.000001
1.000001
1.000001
1.000001
1.000001
1.000001
0.999998
0.999994
1.000001
1.000001
1.000001
1.000001
1.000001
1.000001
1.000001
1.000001
1.000001
1.000001
1.000001
1.000001
1.000001
1.000001
1.000001
1.000001
1.000001
1.000001
1.000001
1.000001
1.000001
1.000001
1.000001
1.000001
1.000001
1.000001
1.000001
1.000001
1.000001
1.000001
1.000001
1.000001
1.000001
1.000001
1.000001
1.000001
1.000001
1.000001
1.000001
1.000001
1.000001
1.000001
1.000001
1.000001
1.000001
1.000001
1.000001
1.000001
1.000001
1.000001
1.000001
1.000001
1.000001
1.000001
1.000001
1.000001
1.000001
1.000001
1.000001
1.000001
1.000001
1.000001
1.000001
1.000001
1.000001
1.000001
1.000001
1.000001
1.000001
1.000001
1.000001
1.000001
1.000001
1.000001
1.000001
1.000001
1.000001
1.000001
1.000001
1.000001
1.000001
1.000001
1.000001
1.000001
1.000001
1.000001
1.000001
VECTORS fa_u float
0.000000 0.000000 0.000000
0.000000 0.000000 0.000000
0.000000 0.000000 0.000000
0.000000 0.000000 0.000000
0.000000 0.000000 0.000000
0.000000 0.000000 0.000000
0.000000 0.000000 0.000000
0.000000 0.000000 0.000000
0.000000 0.000000 0.000000
0.000000 0.000000 0.000000
0.000000 0.000000 0.000000
0.000000 0.000000 0.000000
0.000000 0.000000 0.000000
0.000000 0.000000 0.000000
0.000000 0.000000 0.000000
0.000000 0.000000 0.000000
0.000000 0.000000 0.000000
0.000000 0.000000 0.000000
0.000000 0.000000 0.000000
0.000000 0.000000 0.000000
0.000000 0.000000 0.000000
0.000000 0.000000 0.000000
0.000000 0.000000 0.000000
0.000000 0.000000 0.000000
0.000000 0.000000 0.000000
0.000000 0.000000 0.000000
0.000000 0.000000 0.000000
0.000000 0.000000 0.000000
0.000000 0.000000 0.000000
0.000000 0.000000 0.000000
0.000000 0.000000 0.000000
0.000000 0.000000 0.000000
0.000000 0.000000 0.000000
0.000000 0.000000 0.000000
0.000000 0.000000 0.000000
0.000000 0.000000 0.000000
0.000000 0.000000 0.000000
0.000000 0.000000 0.000000
0.000000 0.000000 0.000000
0.000000 0.000000 0.000000
0.000000 0.000000 0.000000
0.000000 0.000000 0.000000
0.000000 0.000000 0.000000
0.000000 0.000000 0.000000
0.000000 0.000000 0.000000
0.000000 0.000000 0.000000
0.000000 0.000000 0.000000
0.000000 0.000000 0.000000
0.000000 0.000000 0.000000
0.000000 0.000000 0.000000
0.000000 0.000000 0.000000
0.000000 0.000000 0.000000
0.000000 0.000000 0.000000
0.000000 0.000000 0.000000
0.000000 0.000000 0.000000
0.000000 0.000000 0.000000
0.000000 0.000000 0.000000
0.000000 0.000000 0.000000
0.000000 0.000000 0.000000
0.000000 0.000000 0.000000
0.000000 0.000000 0.000000
0.000000 0.000000 0.000000
0.000000 0.000000 0.000000
0.000000 0.000000 0.000000
0.000000 0.000000 0.000000
0.000000 0.000000 0.000000
0.000000 0.000000 0.000000
0.000000 0.000000 0.000000
0.000000 0.000000 0.000000
0.000000 0.000000 0.000000
0.000000 0.000000 0.000000
0.000000 0.000000 0.000000
0.000000 0.000000 0.000000
0.000000 0.000000 0.000000
0.000000 0.000000 0.000000
0.000000 0.000000 0.000000
0.000000 0.000000 0.000000
0.000000 0.000000 0.000000
0.000000 0.000000 0.000000
0.000000 0.000000 0.000000
0.000000 0.000000 0.000000
0.000000 0.000000 0.000000
0.000000 0.000000 0.000000
0.000000 0.000000 0.000000
0.000000 0.000000 0.000000
0.000000 0.000000 0.000000
0.000000 0.000000 0.000000
0.000000 0.000000 0.000000
0.000000 0.000000 0.000000
0.000000 0.000000 0.000000
0.000000 0.000000 0.000000
0.000000 0.000000 0.000000
0.000000 0.000000 0.000000
0.000000 0.000000 0.000000
0.000000 0.000000 0.000000
0.000000 0.000000 0.000000
0.000000 0.000000 0.000000
0.000000 0.000000 0.000000
0.000000 0.000000 0.000000
0.000000 0.000000 0.000000
0.000000 0.000000 0.000000
0.000000 0.000000 0.000000
0.000000 0.000000 0.000000
0.000000 0.000000 0.000000
0.000000 0.000000 0.000000
0.000000 0.000000 0.000000
0.000000 0.000000 0.000000
0.000000 0.000000 0.000000
0.000000 0.000000 0.000000
0.000000 0.000000 0.000000
0.000000 0.000000 0.000000
0.000000 0.000000 0.000000
0.000000 0.000000 0.000000
0.000000 0.000000 0.000000
0.000000 0.000000 0.000000
0.000000 0.000000 0.000000
0.000000 0.000000 0.000000
0.000000 0.000000 0.000000
0.000000 0.000000 0.000000
0.000000 0.000000 0.000000
0.000000 0.000000 0.000000
0.000000 0.000000 0.000000
0.000000 0.000000 0.000000
0.000000 0.000000 0.000000
0.000000 0.000000 0.000000
0.000000 0.000000 0.000000
0.000000 0.000000 0.000000
0.000000 0.000000 0.000000
0.000000 0.000000 0.000000
0.000000 0.000000 0.000000
0.000000 0.000000 0.000000
0.000000 0.000000 0.000000
0.000000 0.000000 0.000000
0.000000 0.000000 0.000000
0.000000 0.000000 0.000000
0.000000 0.000000 0.000000
0.000000 0.000000 0.000000
0.000000 0.000000 0.000000
0.000000 0.000000 0.000000
0.000000 0.000000 0.000000
0.000000 0.000000 0.000000
0.000000 0.000000 0.000000
0.000000 0.000000 0.000000
0.000000 0.000000 0.000000
0.000000 0.000000 0.000000
0.000000 0.000000 0.000000
0.000000 0.000000 0.000000
0.000000 0.000000 0.000000
0.000000 0.000000 0.000000
0.000000 0.000000 0.000000
0.000000 0.000000 0.000000
0.000000 0.000000 0.000000
0.000000 0.000000 0.000000
0.000000 0.000000 0.000000
0.000000 0.000000 0.000000
0.000000 0.000000 0.000000
0.000000 0.000000 0.000000
0.000000 0.000000 0.000000
0.000000 0.000000 0.000000
0.000000 0.000000 0.000000
0.000000 0.000000 0.000000
0.000000 0.000000 0.000000
0.000000 0.000000 0.000000
0.000000 0.000000 0.000000
0.000000 0.000000 0.000000
0.000000 0.000000 0.000000
0.000000 0.000000 0.000000
0.000000 0.000000 0.000000
0.000000 0.000000 0.000000
0.000000 0.000000 0.000000
0.000000 0.000000 0.000000
0.000000 0.000000 0.000000
0.000000 0.000000 0.000000
0.000000 0.000000 0.000000
0.000000 0.000000 0.000000
0.000000 0.000000 0.000000
0.000000 0.000000 0.000000
0.000000 0.000000 0.000000
0.000000 0.000000 0.000000
0.000000 0.000000 0.000000
0.000000 0.000000 0.000000
0.000000 0.000000 0.000000
0.000000 0.000000 0.000000
0.000000 0.000000 0.000000
0.000000 0.000000 0.000000
0.000000 0.000000 0.000000
0.000000 0.000000 0.000000
0.000000 0.000000 0.000000
0.000000 0.000000 0.000000
0.000000 0.000000 0.000000
0.000000 0.000000 0.000000
0.000000 0.000000 0.000000
0.000000 0.000000 0.000000
0.000000 0.000000 0.000000
0.000000 0.000000 0.000000
0.000000 0.000000 0.000000
0.000000 0.000000 0.000000
0.000000 0.000000 0.000000
0.000000 0.000000 0.000000
0.000000 0.000000 0.000000
0.000000 0.000000 0.000000
0.000000 0.000000 0.000000
0.000000 0.000000 0.000000
0.000000 0.000000 0.000000
0.000000 0.000000 0.000000
0.000000 0.000000 0.000000
0.000000 0.000000 0.000000
0.000000 0.000000 0.000000
0.000000 0.000000 0.000000
0.000000 0.000000 0.000000
0.000000 0.000000 0.000000
0.000000 0.000000 0.000000
0.000000 0.000000 0.000000
0.000000 0.000000 0.000000
0.000000 0.000000 0.000000
0.000000 0.000000 0.000000
0.000000 0.000000 0.000000
0.000000 0.000000 0.000000
0.000000 0.000000 0.000000
0.000000 0.000000 0.000000
0.000000 0.000000 0.000000
0.000000 0.000000 0.000000
0.000000 0.000000 0.000000
0.000000 0.000000 0.000000
0.000000 0.000000 0.000000
0.000000 0.000000 0.000000
0.000000 0.000000 0.000000
0.000000 0.000000 0.000000
0.000000 0.000000 0.000000
0.000000 0.000000 0.000000
0.000000 0.000000 0.000000
0.000000 0.000000 0.000000
0.000000 0.000000 0.000000
0.000000 0.000000 0.000000
0.000000 0.000000 0.000000
0.000000 0.000000 0.000000
0.000000 0.000000 0.000000
0.000000 0.000000 0.000000
0.000000 0.000000 0.000000
0.000000 0.000000 0.000000
0.000000 0.000000 0.000000
0.000000 0.000000 0.000000
0.000000 0.000000 0.000000
0.000000 0.000000 0.000000
0.000000 0.000000 0.000000
0.000000 0.000000 0.000000
0.000000 0.000000 0.000000
0.000000 0.000000 0.000000
0.000000 0.000000 0.000000
0.000000 0.000000 0.000000
0.000000 0.000000 0.000000
0.000000 0.000000 0.000000
0.000000 0.000000 0.000000
0.000000 0.000000 0.000000
0.000000 0.000000 0.000000
0.000000 0.000000 0.000000
0.000000 0.000000 0.000000
0.000000 0.000000 0.000000
0.000000 0.000000 0.000000
0.000000 0.000000 0.000000
0.000000 0.000000 0.000000
0.000000 0.000000 0.000000
0.000000 0.000000 0.000000
0.000000 0.000000 0.000000
0.000000 0.000000 0.000000
0.000000 0.000000 0.000000
0.000000 0.000000 0.000000
0.000000 0.000000 0.000000
0.000000 0.000000 0.000000
0.000000 0.000000 0.000000
0.000000 0.000000 0.000000
0.000000 0.000000 0.000000
0.000000 0.000000 0.000000
0.000000 0.000000 0.000000
0.000000 0.000000 0.000000
0.000000 0.000000 0.000000
0.000000 0.000000 0.000000
0.000000 0.000000 0.000000
0.000000 0.000000 0.000000
0.000000 0.000000 0.000000
0.000000 0.000000 0.000000
0.000000 0.000000 0.000000
0.000000 0.000000 0.000000
0.000000 0.000000 0.000000
0.000000 0.000000 0.000000
0.000000 0.000000 0.000000
0.000000 0.000000 0.000000
0.000000 0.000000 0.000000
0.000000 0.000000 0.000000
0.000000 0.000000 0.000000
0.000000 0.000000 0.000000
0.000000 0.000000 0.000000
0.000000 0.000000 0.000000
0.000000 0.000000 0.000000
0.000000 0.000000 0.000000
0.000000 0.000000 0.000000
0.000000 0.000000 -50.000000
-50.000000 0.000000 -50.000000
-43.333100 0.000000 -45.688344
-45.491106 0.000000 -43.333069
-50.000000 0.000000 -50.000000
-36.666188 0.000000 -36.666204
-50.000000 0.000000 -45.081073
-39.969753 0.000000 -40.027123
-44.152229 0.000000 -29.999322
-50.000000 0.000000 -50.000000
-29.999298 0.000000 -44.847041
-33.448883 0.000000 -33.144869
-44.675635 0.000000 -39.869069
-36.786951 0.000000 -35.128591
-39.801239 0.000000 -23.332529
-50.000000 0.000000 -26.539109
-44.666715 0.000000 -50.000000
-23.332510 0.000000 -44.665252
-26.803880 0.000000 -39.364196
-30.225633 0.000000 -29.606201
-39.359307 0.000000 -33.368156
-33.655379 0.000000 -50.000000
-16.665872 0.000000 -16.665907
-50.000000 0.000000 -9.999459
