# vtk DataFile Version 2.0
CellBP Time: 10.32
ASCII
DATASET UNSTRUCTURED_GRID
POINTS 320 double
-50.000000 -50.000000 0.000000
-50.000000 -43.332149 0.000000
-45.688683 -45.491389 0.000000
-43.331987 -50.000000 0.000000
-50.000000 -36.664227 0.000000
-36.664313 -50.000000 0.000000
-45.081438 -39.969953 0.000000
-40.027654 -44.152525 0.000000
-29.996554 -50.000000 0.000000
-50.000000 -29.996421 0.000000
-44.847399 -33.449056 0.000000
-33.145287 -44.675956 0.000000
-39.869523 -36.787170 0.000000
-35.129135 -39.801633 0.000000
-23.329268 -50.000000 0.000000
-26.539559 -44.666867 0.000000
-50.000000 -23.329152 0.000000
-44.665402 -26.804122 0.000000
-39.364529 -30.225875 0.000000
-29.606816 -39.359619 0.000000
-33.368783 -33.655746 0.000000
-50.000000 -16.662659 0.000000
-16.662856 -50.000000 0.000000
-9.997327 -50.000000 0.000000
-19.965366 -44.588699 0.000000
-23.216298 -39.114770 0.000000
-44.691804 -20.097109 0.000000
-39.367963 -23.528205 0.000000
-34.106461 -26.937151 0.000000
-26.384942 -33.577627 0.000000
-29.156731 -28.926935 0.000000
-50.000000 -9.996838 0.000000
-44.666287 -13.410353 0.000000
-50.000000 -3.331863 0.000000
-3.332514 -50.000000 0.000000
3.332132 -50.000000 0.000000
-13.344160 -44.598848 0.000000
-6.685036 -44.610435 0.000000
-16.694083 -39.153059 0.000000
-20.107256 -33.342599 0.000000
-39.338094 -16.804570 0.000000
-34.019103 -20.274455 0.000000
-28.781533 -23.449287 0.000000
-23.510923 -27.351178 0.000000
-44.635246 -6.705485 0.000000
-39.293123 -10.101657 0.000000
-50.000000 3.332682 0.000000
-44.626457 -0.015307 0.000000
9.997148 -50.000000 0.000000
16.662870 -50.000000 0.000000
-0.016210 -44.618542 0.000000
6.651817 -44.635315 0.000000
-10.045046 -39.222491 0.000000
-3.368342 -39.220154 0.000000
-13.484397 -33.798347 0.000000
-16.708747 -28.271603 0.000000
-33.947892 -13.513296 0.000000
-28.602950 -16.891892 0.000000
-23.293037 -20.313398 0.000000
-18.661215 -23.284991 0.000000
-39.267282 -3.392510 0.000000
-33.904461 -6.796689 0.000000
-50.000000 9.997397 0.000000
-44.606447 6.673921 0.000000
-39.260554 3.325890 0.000000
-50.000000 16.662898 0.000000
23.329306 -50.000000 0.000000
29.996468 -50.000000 0.000000
13.317879 -44.662916 0.000000
19.990044 -44.700089 0.000000
3.307610 -39.245093 0.000000
9.971908 -39.290403 0.000000
-6.735825 -33.791335 0.000000
-0.032145 -33.829394 0.000000
-10.096097 -28.292063 0.000000
-13.122688 -22.895395 0.000000
-28.531143 -10.213864 0.000000
-23.068128 -13.663864 0.000000
-16.979647 -17.213373 0.000000
-33.884032 -0.065483 0.000000
-28.562610 -3.580486 0.000000
-44.563908 13.381140 0.000000
-39.189797 10.015321 0.000000
-33.905365 6.616120 0.000000
-50.000000 23.329077 0.000000
-44.557248 20.138725 0.000000
-50.000000 29.996577 0.000000
36.664163 -50.000000 0.000000
43.332034 -50.000000 0.000000
26.663636 -44.745420 0.000000
33.315583 -44.876204 0.000000
16.631779 -39.357679 0.000000
23.328488 -39.437217 0.000000
6.642997 -33.879632 0.000000
13.290429 -33.965438 0.000000
-3.346635 -28.363958 0.000000
3.358624 -28.451197 0.000000
-6.626490 -22.844545 0.000000
-9.960404 -17.315250 0.000000
-23.179232 -7.013995 0.000000
-17.814603 -10.334910 0.000000
-12.837856 -12.612647 0.000000
-28.607264 3.088758 0.000000
-23.267104 -0.470318 0.000000
-39.038302 16.746367 0.000000
-28.719800 9.925671 0.000000
-33.760573 13.317902 0.000000
-44.521728 26.717488 0.000000
-38.467805 23.892865 0.000000
-44.632881 33.086152 0.000000
-50.000000 36.664765 0.000000
-50.000000 43.332335 0.000000
39.922623 -45.069828 0.000000
45.475003 -45.660719 0.000000
50.000000 -50.000000 0.000000
36.626998 -39.982158 0.000000
30.012655 -39.458787 0.000000
19.904229 -34.093062 0.000000
26.585196 -34.319711 0.000000
9.988351 -28.512527 0.000000
16.610448 -28.660652 0.000000
0.049966 -22.964215 0.000000
6.812011 -23.154465 0.000000
-3.397434 -17.296961 0.000000
-6.792208 -10.866098 0.000000
-17.872734 -3.810531 0.000000
-12.547560 -7.033131 0.000000
-23.307671 6.068714 0.000000
-18.033186 2.435173 0.000000
-23.124101 12.096473 0.000000
-33.572181 19.788980 0.000000
-27.941880 16.886629 0.000000
-33.293433 24.723188 0.000000
-39.474249 30.053554 0.000000
-35.161127 28.137999 0.000000
-39.816686 35.101963 0.000000
-43.992052 39.982872 0.000000
-45.431217 45.685583 0.000000
-50.000000 50.000000 0.000000
44.117521 -39.899385 0.000000
50.000000 -43.331602 0.000000
39.639719 -35.047680 0.000000
33.463096 -33.424770 0.000000
22.985071 -28.818313 0.000000
28.731154 -29.248028 0.000000
13.460857 -23.121934 0.000000
20.055014 -23.440076 0.000000
3.361433 -17.591586 0.000000
10.122038 -17.844082 0.000000
0.170693 -11.764536 0.000000
-2.121203 -6.147620 0.000000
-7.131800 -3.548266 0.000000
-12.420252 -0.808750 0.000000
-18.175640 8.573203 0.000000
-12.931178 5.196612 0.000000
-18.637698 13.750794 0.000000
-21.503521 17.493870 0.000000
-28.941241 23.159576 0.000000
-24.346531 21.554162 0.000000
-30.324208 28.635372 0.000000
-34.254034 33.375782 0.000000
-36.956234 39.578239 0.000000
-39.838809 45.103044 0.000000
-43.331975 50.000000 0.000000
44.585487 -32.972355 0.000000
50.000000 -36.663724 0.000000
39.129443 -29.582145 0.000000
33.500807 -26.367837 0.000000
27.183431 -23.322128 0.000000
23.067717 -18.648035 0.000000
16.993169 -16.982908 0.000000
6.696407 -12.188696 0.000000
12.376486 -12.738045 0.000000
-3.361860 -1.482902 0.000000
3.776916 -6.748640 0.000000
1.023875 -2.120626 0.000000
-6.840421 2.260330 0.000000
-8.223769 7.639379 0.000000
-12.840814 11.927337 0.000000
-15.690115 17.698675 0.000000
-19.287565 22.981059 0.000000
-24.171035 27.354299 0.000000
-27.286473 33.625745 0.000000
-30.406869 39.160988 0.000000
-33.448045 44.738902 0.000000
-36.664026 50.000000 0.000000
44.547776 -26.500245 0.000000
50.000000 -29.995917 0.000000
39.040023 -23.179394 0.000000
33.449501 -19.899998 0.000000
28.039599 -16.573100 0.000000
22.679008 -13.123506 0.000000
17.175871 -9.898159 0.000000
10.762044 -6.569928 0.000000
-1.360588 2.322565 0.000000
6.123537 -1.707262 0.000000
2.884841 1.591234 0.000000
-3.440593 6.962821 0.000000
-6.314148 12.425176 0.000000
-9.629269 17.713645 0.000000
-13.168297 23.115132 0.000000
-17.317043 28.185062 0.000000
-20.571178 33.474145 0.000000
-23.666239 39.063882 0.000000
-26.831398 44.585338 0.000000
-29.996543 50.000000 0.000000
44.528621 -19.931044 0.000000
50.000000 -23.328695 0.000000
39.036096 -16.594261 0.000000
33.575693 -13.281251 0.000000
28.148814 -9.965135 0.000000
22.724447 -6.604773 0.000000
17.265211 -3.334345 0.000000
11.772984 0.219365 0.000000
1.904887 6.188241 0.000000
6.776217 3.694793 0.000000
-0.228681 11.742033 0.000000
-3.244451 17.531937 0.000000
-6.698490 22.976076 0.000000
-10.566903 28.267153 0.000000
-13.724402 33.660820 0.000000
-16.946050 39.080067 0.000000
-20.141168 44.548309 0.000000
-23.329524 50.000000 0.000000
44.536091 -13.304178 0.000000
50.000000 -16.662333 0.000000
39.079715 -9.966942 0.000000
33.646501 -6.641519 0.000000
28.236872 -3.308214 0.000000
22.850668 0.017267 0.000000
17.538717 3.337935 0.000000
12.176297 6.579339 0.000000
6.646793 10.674782 0.000000
3.302797 17.200813 0.000000
-0.080352 22.855435 0.000000
-3.519238 28.313293 0.000000
-6.831857 33.774745 0.000000
-10.137927 39.170496 0.000000
-13.436377 44.563413 0.000000
-16.663235 50.000000 0.000000
44.554052 -6.655050 0.000000
50.000000 -9.996923 0.000000
39.123113 -3.321477 0.000000
33.713270 0.008855 0.000000
28.333336 3.345441 0.000000
22.998719 6.693949 0.000000
17.834927 10.017773 0.000000
12.659017 12.246883 0.000000
9.783000 17.232317 0.000000
6.480163 22.722406 0.000000
3.189639 28.270525 0.000000
-0.116068 33.734997 0.000000
-3.425390 39.168742 0.000000
-6.725896 44.581689 0.000000
-9.997611 50.000000 0.000000
44.575431 0.001785 0.000000
50.000000 -3.332265 0.000000
39.166881 3.331821 0.000000
33.779573 6.655699 0.000000
28.423737 9.994663 0.000000
23.046528 13.416074 0.000000
16.951542 17.024787 0.000000
12.901576 22.666376 0.000000
9.815675 28.231568 0.000000
6.604504 33.718833 0.000000
3.286565 39.164439 0.000000
-0.029982 44.584468 0.000000
-3.332523 50.000000 0.000000
44.586627 6.665720 0.000000
50.000000 3.332293 0.000000
39.198237 9.982093 0.000000
33.843522 13.276875 0.000000
28.542500 16.584199 0.000000
23.387930 20.084230 0.000000
18.532065 23.113719 0.000000
16.392425 28.298410 0.000000
13.329113 33.754719 0.000000
9.986799 39.181941 0.000000
6.666215 44.584194 0.000000
3.332383 50.000000 0.000000
44.608873 13.318408 0.000000
50.000000 9.997307 0.000000
39.251395 16.612667 0.000000
33.932095 19.862922 0.000000
28.612649 22.925993 0.000000
23.279706 27.207853 0.000000
19.901471 33.302780 0.000000
16.574205 39.040791 0.000000
13.268831 44.526593 0.000000
9.997380 50.000000 0.000000
44.632061 19.973520 0.000000
50.000000 16.663038 0.000000
39.298579 23.262444 0.000000
34.044004 26.514940 0.000000
28.966044 28.539515 0.000000
26.202656 33.410196 0.000000
23.067042 38.968782 0.000000
19.889098 44.507003 0.000000
16.662866 50.000000 0.000000
44.639918 26.643409 0.000000
50.000000 23.329452 0.000000
39.293553 29.967054 0.000000
33.212673 33.371513 0.000000
29.412514 39.045970 0.000000
26.422846 44.506018 0.000000
23.329183 50.000000 0.000000
44.775225 33.292162 0.000000
50.000000 29.996559 0.000000
39.738402 36.596567 0.000000
34.831382 39.525935 0.000000
32.834206 44.514540 0.000000
29.996271 50.000000 0.000000
44.978498 39.878159 0.000000
50.000000 36.664197 0.000000
39.735319 43.969329 0.000000
36.663943 50.000000 0.000000
45.621597 45.410131 0.000000
50.000000 43.332034 0.000000
43.331707 50.000000 0.000000
50.000000 50.000000 0.000000
CELLS 578 2312
3 1 0 2
3 0 3 2
3 4 1 6
3 6 1 2
3 3 5 7
3 3 7 2
3 6 2 7
3 9 4 10
3 10 4 6
3 5 8 11
3 7 5 11
3 10 6 12
3 12 6 7
3 7 11 13
3 7 13 12
3 8 14 15
3 11 8 15
3 16 9 17
3 17 9 10
3 17 10 18
3 18 10 12
3 11 15 19
3 13 11 19
3 18 12 20
3 13 19 20
3 20 12 13
3 14 22 24
3 15 14 24
3 15 24 25
3 19 15 25
3 21 16 26
3 26 16 17
3 26 17 27
3 27 17 18
3 27 18 28
3 28 18 20
3 19 25 29
3 19 29 20
3 28 20 30
3 30 20 29
3 31 21 32
3 32 21 26
3 22 23 36
3 24 22 36
3 23 34 37
3 36 23 37
3 24 36 38
3 25 24 38
3 25 38 39
3 29 25 39
3 32 26 40
3 40 26 27
3 40 27 41
3 41 27 28
3 41 28 42
3 42 28 30
3 29 39 43
3 29 43 30
3 42 30 43
3 33 31 44
3 44 31 32
3 44 32 45
3 45 32 40
3 46 33 47
3 47 33 44
3 34 35 50
3 37 34 50
3 35 48 51
3 50 35 51
3 36 37 52
3 38 36 52
3 37 50 53
3 52 37 53
3 38 52 54
3 39 38 54
3 39 54 55
3 43 39 55
3 45 40 56
3 56 40 41
3 56 41 57
3 57 41 42
3 57 42 58
3 58 42 43
3 43 55 59
3 43 59 58
3 47 44 60
3 60 44 45
3 60 45 61
3 61 45 56
3 62 46 63
3 63 46 47
3 63 47 64
3 64 47 60
3 48 49 68
3 51 48 68
3 49 66 69
3 68 49 69
3 50 51 70
3 53 50 70
3 51 68 71
3 70 51 71
3 52 53 72
3 54 52 72
3 53 70 73
3 72 53 73
3 54 72 74
3 55 54 74
3 55 74 75
3 59 55 75
3 61 56 76
3 76 56 57
3 76 57 77
3 77 57 58
3 77 58 78
3 59 75 78
3 78 58 59
3 64 60 79
3 79 60 61
3 79 61 80
3 80 61 76
3 65 62 81
3 81 62 63
3 81 63 82
3 82 63 64
3 82 64 83
3 83 64 79
3 84 65 85
3 85 65 81
3 66 67 89
3 69 66 89
3 67 87 90
3 89 67 90
3 68 69 91
3 71 68 91
3 69 89 92
3 91 69 92
3 70 71 93
3 73 70 93
3 71 91 94
3 93 71 94
3 72 73 95
3 74 72 95
3 73 93 96
3 95 73 96
3 74 95 97
3 75 74 97
3 75 97 98
3 78 75 98
3 80 76 99
3 99 76 77
3 99 77 100
3 100 77 78
3 100 78 101
3 98 101 78
3 83 79 102
3 102 79 80
3 102 80 103
3 103 80 99
3 85 81 104
3 104 81 82
3 105 83 102
3 104 82 106
3 106 82 83
3 106 83 105
3 86 84 107
3 107 84 85
3 107 85 108
3 108 85 104
3 109 86 107
3 110 86 109
3 87 88 112
3 90 87 112
3 112 88 113
3 88 114 113
3 90 112 115
3 89 90 116
3 92 89 116
3 116 90 115
3 91 92 117
3 94 91 117
3 92 116 118
3 117 92 118
3 93 94 119
3 96 93 119
3 94 117 120
3 119 94 120
3 95 96 121
3 97 95 121
3 96 119 122
3 121 96 122
3 97 121 123
3 98 97 123
3 98 123 124
3 98 124 101
3 103 99 125
3 125 99 100
3 125 100 126
3 126 100 101
3 126 101 124
3 105 102 127
3 127 102 103
3 127 103 128
3 128 103 125
3 129 105 127
3 108 104 130
3 130 104 106
3 130 106 131
3 131 106 105
3 131 105 129
3 108 130 132
3 109 107 133
3 133 107 108
3 133 108 134
3 108 132 134
3 135 109 133
3 111 110 136
3 136 110 109
3 136 109 135
3 137 111 136
3 138 111 137
3 112 113 139
3 115 112 139
3 114 140 113
3 140 139 113
3 139 141 115
3 116 115 142
3 118 116 142
3 142 115 141
3 117 118 143
3 120 117 143
3 118 142 144
3 143 118 144
3 119 120 145
3 122 119 145
3 120 143 146
3 145 120 146
3 121 122 147
3 123 121 147
3 122 145 148
3 147 122 148
3 123 147 149
3 124 123 149
3 124 149 150
3 151 126 124
3 124 150 151
3 128 125 152
3 152 125 126
3 152 126 151
3 129 127 153
3 153 127 128
3 128 152 154
3 153 128 154
3 155 129 153
3 131 129 156
3 156 129 155
3 132 130 157
3 130 131 157
3 157 131 158
3 131 156 158
3 132 157 159
3 132 159 134
3 135 133 160
3 160 133 134
3 160 134 159
3 136 135 161
3 135 160 161
3 162 137 136
3 161 162 136
3 163 138 137
3 162 163 137
3 139 164 141
3 140 165 139
3 139 165 164
3 141 164 166
3 141 166 142
3 166 167 142
3 144 142 167
3 167 168 144
3 143 144 168
3 146 143 168
3 168 169 146
3 145 146 170
3 148 145 170
3 170 146 169
3 147 148 171
3 149 147 171
3 148 170 172
3 171 148 172
3 173 151 150
3 149 171 174
3 150 149 174
3 150 174 175
3 150 175 173
3 154 152 176
3 152 151 176
3 176 151 173
3 154 176 177
3 155 153 178
3 177 178 154
3 154 178 153
3 156 155 179
3 155 178 179
3 180 158 156
3 179 180 156
3 181 159 157
3 180 181 158
3 181 157 158
3 182 160 159
3 181 182 159
3 183 161 160
3 182 183 160
3 184 162 161
3 184 161 183
3 185 163 162
3 184 185 162
3 164 186 166
3 165 187 164
3 164 187 186
3 166 186 188
3 166 188 167
3 167 188 189
3 167 189 168
3 168 189 190
3 168 190 169
3 169 190 191
3 169 191 170
3 192 172 170
3 170 191 192
3 192 193 172
3 171 172 193
3 174 171 193
3 194 173 175
3 176 173 194
3 175 174 195
3 193 195 174
3 195 196 175
3 175 196 194
3 197 177 176
3 194 197 176
3 198 178 177
3 197 198 177
3 199 179 178
3 198 199 178
3 200 180 179
3 199 200 179
3 201 181 180
3 200 201 180
3 202 182 181
3 201 202 181
3 203 183 182
3 202 203 182
3 204 184 183
3 203 204 183
3 205 185 184
3 204 205 184
3 186 206 188
3 187 207 186
3 186 207 206
3 188 206 208
3 188 208 189
3 189 208 209
3 189 209 190
3 190 209 210
3 190 210 191
3 191 210 211
3 191 211 192
3 192 211 212
3 192 212 193
3 193 212 213
3 193 213 195
3 214 197 194
3 214 194 196
3 195 213 215
3 195 215 196
3 196 215 214
3 216 198 197
3 214 216 197
3 217 199 198
3 216 217 198
3 218 200 199
3 217 218 199
3 219 201 200
3 218 219 200
3 220 202 201
3 219 220 201
3 221 203 202
3 220 221 202
3 222 204 203
3 221 222 203
3 223 205 204
3 222 223 204
3 206 224 208
3 207 225 206
3 206 225 224
3 208 224 226
3 208 226 209
3 209 226 227
3 209 227 210
3 210 227 228
3 210 228 211
3 211 228 229
3 211 229 212
3 212 229 230
3 212 230 213
3 213 230 231
3 213 231 215
3 232 216 214
3 215 231 232
3 232 214 215
3 233 217 216
3 232 233 216
3 234 218 217
3 233 234 217
3 235 219 218
3 234 235 218
3 236 220 219
3 235 236 219
3 237 221 220
3 236 237 220
3 238 222 221
3 237 238 221
3 239 223 222
3 238 239 222
3 224 240 226
3 225 241 224
3 224 241 240
3 226 240 242
3 226 242 227
3 227 242 243
3 227 243 228
3 228 243 244
3 228 244 229
3 244 245 229
3 229 245 230
3 230 245 246
3 230 246 231
3 231 246 247
3 231 247 232
3 248 233 232
3 248 232 247
3 249 234 233
3 248 249 233
3 250 235 234
3 249 250 234
3 251 236 235
3 250 251 235
3 252 237 236
3 251 252 236
3 253 238 237
3 252 253 237
3 254 239 238
3 253 254 238
3 240 255 242
3 241 256 240
3 240 256 255
3 242 255 257
3 242 257 243
3 243 257 258
3 243 258 244
3 244 258 259
3 244 259 245
3 245 259 260
3 245 260 246
3 246 260 261
3 246 261 247
3 248 247 261
3 262 249 248
3 261 262 248
3 263 250 249
3 262 263 249
3 264 251 250
3 263 264 250
3 265 252 251
3 264 265 251
3 266 253 252
3 265 266 252
3 267 254 253
3 266 267 253
3 255 268 257
3 256 269 255
3 255 269 268
3 257 268 270
3 257 270 258
3 258 270 271
3 258 271 259
3 259 271 272
3 259 272 260
3 260 272 273
3 260 273 261
3 274 262 261
3 261 273 274
3 275 263 262
3 274 275 262
3 276 264 263
3 275 276 263
3 277 265 264
3 276 277 264
3 278 266 265
3 277 278 265
3 279 267 266
3 278 279 266
3 268 280 270
3 269 281 268
3 268 281 280
3 270 280 282
3 270 282 271
3 271 282 283
3 271 283 272
3 283 284 272
3 272 284 273
3 285 275 274
3 273 284 285
3 285 274 273
3 286 276 275
3 285 286 275
3 287 277 276
3 286 287 276
3 288 278 277
3 287 288 277
3 289 279 278
3 288 289 278
3 280 290 282
3 281 291 280
3 280 291 290
3 282 290 292
3 282 292 283
3 283 292 293
3 283 293 284
3 284 293 294
3 284 294 285
3 295 286 285
3 295 285 294
3 296 287 286
3 295 296 286
3 297 288 287
3 296 297 287
3 298 289 288
3 297 298 288
3 290 299 292
3 291 300 290
3 290 300 299
3 292 299 301
3 292 301 293
3 293 301 302
3 293 302 294
3 294 302 295
3 303 296 295
3 303 295 302
3 304 297 296
3 303 304 296
3 305 298 297
3 304 305 297
3 299 306 301
3 300 307 299
3 299 307 306
3 301 306 308
3 301 308 302
3 309 303 302
3 302 308 309
3 310 304 303
3 309 310 303
3 311 305 304
3 310 311 304
3 306 312 308
3 307 313 306
3 306 313 312
3 314 310 309
3 308 312 314
3 314 309 308
3 315 311 310
3 314 315 310
3 312 316 314
3 313 317 312
3 312 317 316
3 318 315 314
3 318 314 316
3 317 319 316
3 319 318 316
CELL_TYPES 578
5
5
5
5
5
5
5
5
5
5
5
5
5
5
5
5
5
5
5
5
5
5
5
5
5
5
5
5
5
5
5
5
5
5
5
5
5
5
5
5
5
5
5
5
5
5
5
5
5
5
5
5
5
5
5
5
5
5
5
5
5
5
5
5
5
5
5
5
5
5
5
5
5
5
5
5
5
5
5
5
5
5
5
5
5
5
5
5
5
5
5
5
5
5
5
5
5
5
5
5
5
5
5
5
5
5
5
5
5
5
5
5
5
5
5
5
5
5
5
5
5
5
5
5
5
5
5
5
5
5
5
5
5
5
5
5
5
5
5
5
5
5
5
5
5
5
5
5
5
5
5
5
5
5
5
5
5
5
5
5
5
5
5
5
5
5
5
5
5
5
5
5
5
5
5
5
5
5
5
5
5
5
5
5
5
5
5
5
5
5
5
5
5
5
5
5
5
5
5
5
5
5
5
5
5
5
5
5
5
5
5
5
5
5
5
5
5
5
5
5
5
5
5
5
5
5
5
5
5
5
5
5
5
5
5
5
5
5
5
5
5
5
5
5
5
5
5
5
5
5
5
5
5
5
5
5
5
5
5
5
5
5
5
5
5
5
5
5
5
5
5
5
5
5
5
5
5
5
5
5
5
5
5
5
5
5
5
5
5
5
5
5
5
5
5
5
5
5
5
5
5
5
5
5
5
5
5
5
5
5
5
5
5
5
5
5
5
5
5
5
5
5
5
5
5
5
5
5
5
5
5
5
5
5
5
5
5
5
5
5
5
5
5
5
5
5
5
5
5
5
5
5
5
5
5
5
5
5
5
5
5
5
5
5
5
5
5
5
5
5
5
5
5
5
5
5
5
5
5
5
5
5
5
5
5
5
5
5
5
5
5
5
5
5
5
5
5
5
5
5
5
5
5
5
5
5
5
5
5
5
5
5
5
5
5
5
5
5
5
5
5
5
5
5
5
5
5
5
5
5
5
5
5
5
5
5
5
5
5
5
5
5
5
5
5
5
5
5
5
5
5
5
5
5
5
5
5
5
5
5
5
5
5
5
5
5
5
5
5
5
5
5
5
5
5
5
5
5
5
5
5
5
5
5
5
5
5
5
5
5
5
5
5
5
5
5
5
5
5
5
5
5
5
5
5
5
5
5
5
5
5
5
5
5
5
5
5
5
5
5
5
5
5
5
5
5
5
5
5
5
5
5
5
5
5
5
5
5
5
5
5
5
5
5
5
5
5
5
5
5
5
5
5
5
5
5
5
5
5
5
5
5
5
5
5
5
5
5
5
5
5
5
5
5
5
5
5
5
POINT_DATA 320
SCALARS theta_e float 1
LOOKUP_TABLE default
1.000000
1.000000
1.000000
1.000000
1.000000
1.000000
1.000000
1.000000
1.000000
1.000000
1.000000
1.000000
1.000000
1.000000
1.000000
1.000000
1.000000
1.000000
1.000000
1.000000
1.000000
1.000000
1.000000
1.000000
1.000000
1.000000
1.000000
1.000000
1.000000
1.000000
1.000000
1.000000
1.000000
1.000000
1.000000
1.000000
1.000000
1.000000
1.000000
1.000000
1.000000
1.000000
1.000000
1.000000
1.000000
1.000000
1.000000
1.000000
1.000000
1.000000
1.000000
1.000000
1.000000
1.000000
1.000000
1.000000
1.000000
1.000000
1.000000
1.000000
1.000000
1.000000
1.000000
1.000000
1.000000
1.000000
1.000000
1.000000
1.000000
1.000000
1.000000
1.000000
1.000000
1.000000
1.000000
1.000000
1.000000
1.000000
1.000000
1.000000
1.000000
1.000000
1.000000
1.000000
1.000000
1.000000
1.000000
1.000000
1.000000
1.000000
1.000000
1.000000
1.000000
1.000000
1.000000
1.000000
1.000000
1.000000
1.000000
1.000000
1.000000
1.000000
1.000000
1.000000
1.000000
1.000000
1.000000
1.000000
1.000000
1.000000
1.000000
1.000000
1.000000
1.000000
1.000000
1.000000
1.000000
1.000000
1.000000
1.000000
1.000000
1.000000
1.000000
1.000001
1.000000
1.000000
1.000000
1.000000
1.000000
1.000000
1.000000
1.000000
1.000000
1.000000
1.000000
1.000000
1.000000
1.000000
1.000000
1.000000
1.000000
1.000000
1.000000
1.000000
1.000000
1.000000
1.000000
1.000001
1.000000
1.000000
0.999998
0.999998
1.000000
1.000000
1.000000
1.000000
1.000000
1.000000
1.000000
1.000000
1.000000
1.000000
1.000000
1.000000
1.000000
1.000000
1.000000
1.000000
1.000000
1.000000
1.000000
1.000000
1.000000
0.999996
0.999998
0.999996
0.999997
0.999999
1.000000
1.000000
1.000000
1.000000
1.000000
1.000000
1.000000
1.000000
1.000000
1.000000
1.000000
1.000000
1.000000
1.000000
1.000000
0.999999
0.999996
0.999997
0.999996
0.999997
0.999999
1.000000
1.000000
1.000000
1.000000
1.000000
1.000000
1.000000
1.000000
1.000000
1.000000
1.000000
1.000000
1.000000
1.000000
0.999999
0.999997
0.999998
0.999999
1.000000
1.000000
1.000000
1.000000
1.000000
1.000000
1.000000
1.000000
1.000000
1.000000
1.000000
1.000000
1.000000
1.000000
0.999999
0.999999
1.000000
1.000000
1.000000
1.000000
1.000000
1.000000
1.000000
1.000000
1.000000
1.000000
1.000000
1.000000
1.000000
1.000000
1.000000
1.000000
1.000000
1.000000
1.000000
1.000000
1.000000
1.000000
1.000000
1.000000
1.000000
1.000000
1.000000
1.000000
1.000000
1.000000
1.000000
1.000000
1.000000
1.000000
1.000000
1.000000
1.000000
1.000000
1.000000
1.000000
1.000000
1.000000
1.000000
1.000000
1.000000
1.000000
1.000000
1.000000
1.000000
1.000000
1.000000
1.000000
1.000000
1.000000
1.000000
1.000000
1.000000
1.000000
1.000000
1.000000
1.000000
1.000000
1.000000
1.000000
1.000000
1.000000
1.000000
1.000000
1.000000
1.000000
1.000000
1.000000
1.000000
1.000000
1.000000
1.000000
1.000000
1.000000
1.000000
1.000000
1.000000
1.000000
1.000000
1.000000
1.000000
1.000000
1.000000
VECTORS fa_u float
0.000000 0.000000 0.000000
0.000000 0.000000 0.000000
0.000000 0.000000 0.000000
0.000000 0.000000 0.000000
0.000000 0.000000 0.000000
0.000000 0.000000 0.000000
0.000000 0.000000 0.000000
0.000000 0.000000 0.000000
0.000000 0.000000 0.000000
0.000000 0.000000 0.000000
0.000000 0.000000 0.000000
0.000000 0.000000 0.000000
0.000000 0.000000 0.000000
0.000000 0.000000 0.000000
0.000000 0.000000 0.000000
0.000000 0.000000 0.000000
0.000000 0.000000 0.000000
0.000000 0.000000 0.000000
0.000000 0.000000 0.000000
0.000000 0.000000 0.000000
0.000000 0.000000 0.000000
0.000000 0.000000 0.000000
0.000000 0.000000 0.000000
0.000000 0.000000 0.000000
0.000000 0.000000 0.000000
0.000000 0.000000 0.000000
0.000000 0.000000 0.000000
0.000000 0.000000 0.000000
0.000000 0.000000 0.000000
0.000000 0.000000 0.000000
0.000000 0.000000 0.000000
0.000000 0.000000 0.000000
0.000000 0.000000 0.000000
0.000000 0.000000 0.000000
0.000000 0.000000 0.000000
0.000000 0.000000 0.000000
0.000000 0.000000 0.000000
0.000000 0.000000 0.000000
0.000000 0.000000 0.000000
0.000000 0.000000 0.000000
0.000000 0.000000 0.000000
0.000000 0.000000 0.000000
0.000000 0.000000 0.000000
0.000000 0.000000 0.000000
0.000000 0.000000 0.000000
0.000000 0.000000 0.000000
0.000000 0.000000 0.000000
0.000000 0.000000 0.000000
0.000000 0.000000 0.000000
0.000000 0.000000 0.000000
0.000000 0.000000 0.000000
0.000000 0.000000 0.000000
0.000000 0.000000 0.000000
0.000000 0.000000 0.000000
0.000000 0.000000 0.000000
0.000000 0.000000 0.000000
0.000000 0.000000 0.000000
0.000000 0.000000 0.000000
0.000000 0.000000 0.000000
0.000000 0.000000 0.000000
0.000000 0.000000 0.000000
0.000000 0.000000 0.000000
0.000000 0.000000 0.000000
0.000000 0.000000 0.000000
0.000000 0.000000 0.000000
0.000000 0.000000 0.000000
0.000000 0.000000 0.000000
0.000000 0.000000 0.000000
0.000000 0.000000 0.000000
0.000000 0.000000 0.000000
0.000000 0.000000 0.000000
0.000000 0.000000 0.000000
0.000000 0.000000 0.000000
0.000000 0.000000 0.000000
0.000000 0.000000 0.000000
0.000000 0.000000 0.000000
0.000000 0.000000 0.000000
0.000000 0.000000 0.000000
0.000000 0.000000 0.000000
0.000000 0.000000 0.000000
0.000000 0.000000 0.000000
0.000000 0.000000 0.000000
0.000000 0.000000 0.000000
0.000000 0.000000 0.000000
0.000000 0.000000 0.000000
0.000000 0.000000 0.000000
0.000000 0.000000 0.000000
0.000000 0.000000 0.000000
0.000000 0.000000 0.000000
0.000000 0.000000 0.000000
0.000000 0.000000 0.000000
0.000000 0.000000 0.000000
0.000000 0.000000 0.000000
0.000000 0.000000 0.000000
0.000000 0.000000 0.000000
0.000000 0.000000 0.000000
0.000000 0.000000 0.000000
0.000000 0.000000 0.000000
0.000000 0.000000 0.000000
0.000000 0.000000 0.000000
0.000000 0.000000 0.000000
0.000000 0.000000 0.000000
0.000000 0.000000 0.000000
0.000000 0.000000 0.000000
0.000000 0.000000 0.000000
0.000000 0.000000 0.000000
0.000000 0.000000 0.000000
0.000000 0.000000 0.000000
0.000000 0.000000 0.000000
0.000000 0.000000 0.000000
0.000000 0.000000 0.000000
0.000000 0.000000 0.000000
0.000000 0.000000 0.000000
0.000000 0.000000 0.000000
0.000000 0.000000 0.000000
0.000000 0.000000 0.000000
0.000000 0.000000 0.000000
0.000000 0.000000 0.000000
0.000000 0.000000 0.000000
0.000000 0.000000 0.000000
0.000000 0.000000 0.000000
0.000000 0.000000 0.000000
0.000000 0.000000 0.000000
0.000000 0.000000 0.000000
0.000000 0.000000 0.000000
0.000000 0.000000 0.000000
0.000000 0.000000 0.000000
0.000000 0.000000 0.000000
0.000000 0.000000 0.000000
0.000000 0.000000 0.000000
0.000000 0.000000 0.000000
0.000000 0.000000 0.000000
0.000000 0.000000 0.000000
0.000000 0.000000 0.000000
0.000000 0.000000 0.000000
0.000000 0.000000 0.000000
0.000000 0.000000 0.000000
0.000000 0.000000 0.000000
0.000000 0.000000 0.000000
0.000000 0.000000 0.000000
0.000000 0.000000 0.000000
0.000000 0.000000 0.000000
0.000000 0.000000 0.000000
0.000000 0.000000 0.000000
0.000000 0.000000 0.000000
0.000000 0.000000 0.000000
0.000000 0.000000 0.000000
0.000000 0.000000 0.000000
0.000000 0.000000 0.000000
0.000000 0.000000 0.000000
0.000000 0.000000 0.000000
0.000000 0.000000 0.000000
0.000000 0.000000 0.000000
0.000000 0.000000 0.000000
0.000000 0.000000 0.000000
0.000000 0.000000 0.000000
0.000000 0.000000 0.000000
0.000000 0.000000 0.000000
0.000000 0.000000 0.000000
0.000000 0.000000 0.000000
0.000000 0.000000 0.000000
0.000000 0.000000 0.000000
0.000000 0.000000 0.000000
0.000000 0.000000 0.000000
0.000000 0.000000 0.000000
0.000000 0.000000 0.000000
0.000000 0.000000 0.000000
0.000000 0.000000 0.000000
0.000000 0.000000 0.000000
0.000000 0.000000 0.000000
0.000000 0.000000 0.000000
0.000000 0.000000 0.000000
0.000000 0.000000 0.000000
0.000000 0.000000 0.000000
0.000000 0.000000 0.000000
0.000000 0.000000 0.000000
0.000000 0.000000 0.000000
0.000000 0.000000 0.000000
0.000000 0.000000 0.000000
0.000000 0.000000 0.000000
0.000000 0.000000 0.000000
0.000000 0.000000 0.000000
0.000000 0.000000 0.000000
0.000000 0.000000 0.000000
0.000000 0.000000 0.000000
0.000000 0.000000 0.000000
0.000000 0.000000 0.000000
0.000000 0.000000 0.000000
0.000000 0.000000 0.000000
0.000000 0.000000 0.000000
0.000000 0.000000 0.000000
0.000000 0.000000 0.000000
0.000000 0.000000 0.000000
0.000000 0.000000 0.000000
0.000000 0.000000 0.000000
0.000000 0.000000 0.000000
0.000000 0.000000 0.000000
0.000000 0.000000 0.000000
0.000000 0.000000 0.000000
0.000000 0.000000 0.000000
0.000000 0.000000 0.000000
0.000000 0.000000 0.000000
0.000000 0.000000 0.000000
0.000000 0.000000 0.000000
0.000000 0.000000 0.000000
0.000000 0.000000 0.000000
0.000000 0.000000 0.000000
0.000000 0.000000 0.000000
0.000000 0.000000 0.000000
0.000000 0.000000 0.000000
0.000000 0.000000 0.000000
0.000000 0.000000 0.000000
0.000000 0.000000 0.000000
0.000000 0.000000 0.000000
0.000000 0.000000 0.000000
0.000000 0.000000 0.000000
0.000000 0.000000 0.000000
0.000000 0.000000 0.000000
0.000000 0.000000 0.000000
0.000000 0.000000 0.000000
0.000000 0.000000 0.000000
0.000000 0.000000 0.000000
0.000000 0.000000 0.000000
0.000000 0.000000 0.000000
0.000000 0.000000 0.000000
0.000000 0.000000 0.000000
0.000000 0.000000 0.000000
0.000000 0.000000 0.000000
0.000000 0.000000 0.000000
0.000000 0.000000 0.000000
0.000000 0.000000 0.000000
0.000000 0.000000 0.000000
0.000000 0.000000 0.000000
0.000000 0.000000 0.000000
0.000000 0.000000 0.000000
0.000000 0.000000 0.000000
0.000000 0.000000 0.000000
0.000000 0.000000 0.000000
0.000000 0.000000 0.000000
0.000000 0.000000 0.000000
0.000000 0.000000 0.000000
0.000000 0.000000 0.000000
0.000000 0.000000 0.000000
0.000000 0.000000 0.000000
0.000000 0.000000 0.000000
0.000000 0.000000 0.000000
0.000000 0.000000 0.000000
0.000000 0.000000 0.000000
0.000000 0.000000 0.000000
0.000000 0.000000 0.000000
0.000000 0.000000 0.000000
0.000000 0.000000 0.000000
0.000000 0.000000 0.000000
0.000000 0.000000 0.000000
0.000000 0.000000 0.000000
0.000000 0.000000 0.000000
0.000000 0.000000 0.000000
0.000000 0.000000 0.000000
0.000000 0.000000 0.000000
0.000000 0.000000 0.000000
0.000000 0.000000 0.000000
0.000000 0.000000 0.000000
0.000000 0.000000 0.000000
0.000000 0.000000 0.000000
0.000000 0.000000 0.000000
0.000000 0.000000 0.000000
0.000000 0.000000 0.000000
0.000000 0.000000 0.000000
0.000000 0.000000 0.000000
0.000000 0.000000 0.000000
0.000000 0.000000 0.000000
0.000000 0.000000 0.000000
0.000000 0.000000 0.000000
0.000000 0.000000 0.000000
0.000000 0.000000 0.000000
0.000000 0.000000 0.000000
0.000000 0.000000 0.000000
0.000000 0.000000 0.000000
0.000000 0.000000 0.000000
0.000000 0.000000 0.000000
0.000000 0.000000 0.000000
0.000000 0.000000 0.000000
0.000000 0.000000 0.000000
0.000000 0.000000 0.000000
0.000000 0.000000 0.000000
0.000000 0.000000 0.000000
0.000000 0.000000 0.000000
0.000000 0.000000 0.000000
0.000000 0.000000 0.000000
0.000000 0.000000 0.000000
0.000000 0.000000 0.000000
0.000000 0.000000 0.000000
0.000000 0.000000 0.000000
0.000000 0.000000 0.000000
0.000000 0.000000 0.000000
0.000000 0.000000 0.000000
0.000000 0.000000 -50.000000
-50.000000 0.000000 -50.000000
-43.332149 0.000000 -45.688683
-45.491389 0.000000 -43.331987
-50.000000 0.000000 -50.000000
-36.664227 0.000000 -36.664313
-50.000000 0.000000 -45.081438
-39.969953 0.000000 -40.027654
-44.152525 0.000000 -29.996554
-50.000000 0.000000 -50.000000
-29.996421 0.000000 -44.847399
-33.449056 0.000000 -33.145287
-44.675956 0.000000 -39.869523
-36.787170 0.000000 -35.129135
-39.801633 0.000000 -23.329268
-50.000000 0.000000 -26.539559
-44.666867 0.000000 -50.000000
-23.329152 0.000000 -44.665402
-26.804122 0.000000 -39.364529
-30.225875 0.000000 -29.606816
-39.359619 0.000000 -33.368783
-33.655746 0.000000 -50.000000
-16.662659 0.000000 -16.662856
-50.000000 0.000000 -9.997327
