# vtk DataFile Version 2.0
CellBP Time: 9.24
ASCII
DATASET UNSTRUCTURED_GRID
POINTS 320 double
-50.000000 -50.000000 0.000000
-50.000000 -43.332181 0.000000
-45.688672 -45.491379 0.000000
-43.332024 -50.000000 0.000000
-50.000000 -36.664292 0.000000
-36.664378 -50.000000 0.000000
-45.081426 -39.969946 0.000000
-40.027636 -44.152515 0.000000
-29.996648 -50.000000 0.000000
-50.000000 -29.996516 0.000000
-44.847388 -33.449050 0.000000
-33.145274 -44.675945 0.000000
-39.869509 -36.787163 0.000000
-35.129117 -39.801620 0.000000
-23.329378 -50.000000 0.000000
-26.539546 -44.666862 0.000000
-50.000000 -23.329263 0.000000
-44.665398 -26.804113 0.000000
-39.364519 -30.225867 0.000000
-29.606797 -39.359609 0.000000
-33.368763 -33.655733 0.000000
-50.000000 -16.662763 0.000000
-16.662958 -50.000000 0.000000
-9.997398 -50.000000 0.000000
-19.965350 -44.588702 0.000000
-23.216284 -39.114767 0.000000
-44.691808 -20.097100 0.000000
-39.367959 -23.528201 0.000000
-34.106451 -26.937145 0.000000
-26.384924 -33.577612 0.000000
-29.156713 -28.926922 0.000000
-50.000000 -9.996918 0.000000
-44.666290 -13.410345 0.000000
-50.000000 -3.331897 0.000000
-3.332534 -50.000000 0.000000
3.332165 -50.000000 0.000000
-13.344143 -44.598855 0.000000
-6.685028 -44.610445 0.000000
-16.694071 -39.153067 0.000000
-20.107248 -33.342602 0.000000
-39.338098 -16.804576 0.000000
-34.019089 -20.274461 0.000000
-28.781514 -23.449276 0.000000
-23.510909 -27.351142 0.000000
-44.635254 -6.705487 0.000000
-39.293122 -10.101661 0.000000
-50.000000 3.332703 0.000000
-44.626468 -0.015319 0.000000
9.997224 -50.000000 0.000000
16.662970 -50.000000 0.000000
-0.016211 -44.618550 0.000000
6.651803 -44.635320 0.000000
-10.045035 -39.222493 0.000000
-3.368342 -39.220162 0.000000
-13.484393 -33.798361 0.000000
-16.708780 -28.271599 0.000000
-33.947901 -13.513323 0.000000
-28.602908 -16.891907 0.000000
-23.292990 -20.313382 0.000000
-18.661187 -23.284915 0.000000
-39.267291 -3.392521 0.000000
-33.904464 -6.796688 0.000000
-50.000000 9.997468 0.000000
-44.606459 6.673901 0.000000
-39.260567 3.325882 0.000000
-50.000000 16.662997 0.000000
23.329412 -50.000000 0.000000
29.996561 -50.000000 0.000000
13.317855 -44.662918 0.000000
19.990019 -44.700091 0.000000
3.307607 -39.245094 0.000000
9.971897 -39.290398 0.000000
-6.735807 -33.791332 0.000000
-0.032155 -33.829399 0.000000
-10.096090 -28.292110 0.000000
-13.122693 -22.895498 0.000000
-28.531197 -10.213902 0.000000
-23.068077 -13.663838 0.000000
-16.979580 -17.213241 0.000000
-33.884056 -0.065479 0.000000
-28.562630 -3.580424 0.000000
-44.563915 13.381113 0.000000
-39.189806 10.015309 0.000000
-33.905375 6.616116 0.000000
-50.000000 23.329186 0.000000
-44.557262 20.138702 0.000000
-50.000000 29.996664 0.000000
36.664229 -50.000000 0.000000
43.332068 -50.000000 0.000000
26.663613 -44.745416 0.000000
33.315565 -44.876195 0.000000
16.631767 -39.357680 0.000000
23.328470 -39.437213 0.000000
6.642983 -33.879624 0.000000
13.290432 -33.965438 0.000000
-3.346598 -28.363915 0.000000
3.358564 -28.451193 0.000000
-6.626462 -22.844598 0.000000
-9.960714 -17.315255 0.000000
-23.179434 -7.014017 0.000000
-17.814479 -10.334880 0.000000
-12.837916 -12.611937 0.000000
-28.607267 3.088752 0.000000
-23.267022 -0.470240 0.000000
-39.038323 16.746367 0.000000
-28.719839 9.925693 0.000000
-33.760604 13.317916 0.000000
-44.521726 26.717464 0.000000
-38.467801 23.892848 0.000000
-44.632860 33.086127 0.000000
-50.000000 36.664811 0.000000
-50.000000 43.332359 0.000000
39.922609 -45.069819 0.000000
45.474988 -45.660710 0.000000
50.000000 -50.000000 0.000000
36.626985 -39.982153 0.000000
30.012636 -39.458782 0.000000
19.904216 -34.093052 0.000000
26.585181 -34.319705 0.000000
9.988358 -28.512558 0.000000
16.610449 -28.660622 0.000000
0.050040 -22.964028 0.000000
6.812007 -23.154587 0.000000
-3.397524 -17.296947 0.000000
-6.794705 -10.871010 0.000000
-17.872911 -3.811091 0.000000
-12.547686 -7.033155 0.000000
-23.307749 6.068868 0.000000
-18.033307 2.435818 0.000000
-23.124016 12.096434 0.000000
-33.572175 19.788973 0.000000
-27.941856 16.886578 0.000000
-33.293410 24.723164 0.000000
-39.474222 30.053522 0.000000
-35.161095 28.137975 0.000000
-39.816660 35.101939 0.000000
-43.992038 39.982846 0.000000
-45.431210 45.685566 0.000000
-50.000000 50.000000 0.000000
44.117507 -39.899372 0.000000
50.000000 -43.331653 0.000000
39.639703 -35.047673 0.000000
33.463081 -33.424764 0.000000
22.985052 -28.818305 0.000000
28.731138 -29.248025 0.000000
13.460823 -23.121913 0.000000
20.054991 -23.440045 0.000000
3.362333 -17.591399 0.000000
10.122142 -17.843912 0.000000
0.169723 -11.772183 0.000000
-2.122433 -6.151418 0.000000
-7.140209 -3.552895 0.000000
-12.426684 -0.808598 0.000000
-18.175193 8.573201 0.000000
-12.932182 5.196546 0.000000
-18.637720 13.750816 0.000000
-21.503551 17.493891 0.000000
-28.941221 23.159527 0.000000
-24.346519 21.554165 0.000000
-30.324181 28.635344 0.000000
-34.254011 33.375767 0.000000
-36.956223 39.578229 0.000000
-39.838804 45.103032 0.000000
-43.332010 50.000000 0.000000
44.585474 -32.972348 0.000000
50.000000 -36.663812 0.000000
39.129433 -29.582138 0.000000
33.500791 -26.367837 0.000000
27.183396 -23.322138 0.000000
23.067634 -18.648043 0.000000
16.993009 -16.982829 0.000000
6.696731 -12.189295 0.000000
12.375623 -12.737922 0.000000
-3.362370 -1.483355 0.000000
3.781803 -6.757023 0.000000
1.023842 -2.120646 0.000000
-6.845432 2.262266 0.000000
-8.230190 7.645010 0.000000
-12.840933 11.927397 0.000000
-15.690201 17.698683 0.000000
-19.287552 22.981093 0.000000
-24.171032 27.354305 0.000000
-27.286468 33.625748 0.000000
-30.406862 39.160992 0.000000
-33.448037 44.738898 0.000000
-36.664095 50.000000 0.000000
44.547772 -26.500237 0.000000
50.000000 -29.996041 0.000000
39.040019 -23.179398 0.000000
33.449505 -19.900009 0.000000
28.039607 -16.573162 0.000000
22.679146 -13.123561 0.000000
17.175854 -9.898614 0.000000
10.767656 -6.572362 0.000000
-1.360105 2.322141 0.000000
6.126765 -1.708274 0.000000
2.885842 1.591560 0.000000
-3.443721 6.969966 0.000000
-6.314149 12.425714 0.000000
-9.629318 17.713227 0.000000
-13.168261 23.115015 0.000000
-17.317033 28.185049 0.000000
-20.571165 33.474144 0.000000
-23.666230 39.063881 0.000000
-26.831382 44.585337 0.000000
-29.996636 50.000000 0.000000
44.528622 -19.931034 0.000000
50.000000 -23.328839 0.000000
39.036103 -16.594264 0.000000
33.575712 -13.281266 0.000000
28.148875 -9.965149 0.000000
22.724490 -6.604808 0.000000
17.265185 -3.334505 0.000000
11.780752 0.218558 0.000000
1.905933 6.191499 0.000000
6.784840 3.699479 0.000000
-0.228120 11.749388 0.000000
-3.245322 17.531803 0.000000
-6.698595 22.976117 0.000000
-10.566953 28.267149 0.000000
-13.724396 33.660832 0.000000
-16.946042 39.080072 0.000000
-20.141149 44.548311 0.000000
-23.329629 50.000000 0.000000
44.536099 -13.304168 0.000000
50.000000 -16.662472 0.000000
39.079723 -9.966944 0.000000
33.646513 -6.641517 0.000000
28.236847 -3.308214 0.000000
22.850543 0.017263 0.000000
17.538635 3.338680 0.000000
12.177632 6.580032 0.000000
6.649453 10.680596 0.000000
3.302653 17.200632 0.000000
-0.080437 22.855279 0.000000
-3.519236 28.313258 0.000000
-6.831854 33.774721 0.000000
-10.137917 39.170492 0.000000
-13.436360 44.563416 0.000000
-16.663334 50.000000 0.000000
44.554065 -6.655047 0.000000
50.000000 -9.997027 0.000000
39.123127 -3.321483 0.000000
33.713281 0.008836 0.000000
28.333348 3.345372 0.000000
22.998867 6.693935 0.000000
17.834900 10.017989 0.000000
12.658931 12.246296 0.000000
9.783216 17.232469 0.000000
6.480035 22.722423 0.000000
3.189574 28.270490 0.000000
-0.116084 33.734984 0.000000
-3.425398 39.168732 0.000000
-6.725890 44.581693 0.000000
-9.997685 50.000000 0.000000
44.575442 0.001780 0.000000
50.000000 -3.332309 0.000000
39.166884 3.331813 0.000000
33.779571 6.655685 0.000000
28.423771 9.994675 0.000000
23.046547 13.416107 0.000000
16.951431 17.024742 0.000000
12.901562 22.666553 0.000000
9.815617 28.231602 0.000000
6.604470 33.718832 0.000000
3.286546 39.164438 0.000000
-0.029993 44.584472 0.000000
-3.332556 50.000000 0.000000
44.586634 6.665704 0.000000
50.000000 3.332316 0.000000
39.198235 9.982080 0.000000
33.843526 13.276881 0.000000
28.542487 16.584230 0.000000
23.387891 20.084251 0.000000
18.532048 23.113687 0.000000
16.392444 28.298439 0.000000
13.329089 33.754730 0.000000
9.986772 39.181945 0.000000
6.666190 44.584202 0.000000
3.332400 50.000000 0.000000
44.608877 13.318382 0.000000
50.000000 9.997385 0.000000
39.251397 16.612656 0.000000
33.932090 19.862923 0.000000
28.612637 22.926002 0.000000
23.279700 27.207853 0.000000
19.901455 33.302801 0.000000
16.574175 39.040802 0.000000
13.268796 44.526602 0.000000
9.997448 50.000000 0.000000
44.632064 19.973495 0.000000
50.000000 16.663150 0.000000
39.298577 23.262431 0.000000
34.043995 26.514935 0.000000
28.966030 28.539520 0.000000
26.202639 33.410200 0.000000
23.067019 38.968789 0.000000
19.889064 44.507008 0.000000
16.662972 50.000000 0.000000
44.639913 26.643387 0.000000
50.000000 23.329577 0.000000
39.293544 29.967040 0.000000
33.212658 33.371506 0.000000
29.412491 39.045968 0.000000
26.422818 44.506018 0.000000
23.329305 50.000000 0.000000
44.775213 33.292146 0.000000
50.000000 29.996672 0.000000
39.738390 36.596558 0.000000
34.831363 39.525924 0.000000
32.834184 44.514530 0.000000
29.996384 50.000000 0.000000
44.978486 39.878146 0.000000
50.000000 36.664279 0.000000
39.735296 43.969317 0.000000
36.664027 50.000000 0.000000
45.621582 45.410117 0.000000
50.000000 43.332077 0.000000
43.331758 50.000000 0.000000
50.000000 50.000000 0.000000
CELLS 578 2312
3 1 0 2
3 0 3 2
3 4 1 6
3 6 1 2
3 3 5 7
3 3 7 2
3 6 2 7
3 9 4 10
3 10 4 6
3 5 8 11
3 7 5 11
3 10 6 12
3 12 6 7
3 7 11 13
3 7 13 12
3 8 14 15
3 11 8 15
3 16 9 17
3 17 9 10
3 17 10 18
3 18 10 12
3 11 15 19
3 13 11 19
3 18 12 20
3 13 19 20
3 20 12 13
3 14 22 24
3 15 14 24
3 15 24 25
3 19 15 25
3 21 16 26
3 26 16 17
3 26 17 27
3 27 17 18
3 27 18 28
3 28 18 20
3 19 25 29
3 19 29 20
3 28 20 30
3 30 20 29
3 31 21 32
3 32 21 26
3 22 23 36
3 24 22 36
3 23 34 37
3 36 23 37
3 24 36 38
3 25 24 38
3 25 38 39
3 29 25 39
3 32 26 40
3 40 26 27
3 40 27 41
3 41 27 28
3 41 28 42
3 42 28 30
3 29 39 43
3 29 43 30
3 42 30 43
3 33 31 44
3 44 31 32
3 44 32 45
3 45 32 40
3 46 33 47
3 47 33 44
3 34 35 50
3 37 34 50
3 35 48 51
3 50 35 51
3 36 37 52
3 38 36 52
3 37 50 53
3 52 37 53
3 38 52 54
3 39 38 54
3 39 54 55
3 43 39 55
3 45 40 56
3 56 40 41
3 56 41 57
3 57 41 42
3 57 42 58
3 58 42 43
3 43 55 59
3 43 59 58
3 47 44 60
3 60 44 45
3 60 45 61
3 61 45 56
3 62 46 63
3 63 46 47
3 63 47 64
3 64 47 60
3 48 49 68
3 51 48 68
3 49 66 69
3 68 49 69
3 50 51 70
3 53 50 70
3 51 68 71
3 70 51 71
3 52 53 72
3 54 52 72
3 53 70 73
3 72 53 73
3 54 72 74
3 55 54 74
3 55 74 75
3 59 55 75
3 61 56 76
3 76 56 57
3 76 57 77
3 77 57 58
3 77 58 78
3 59 75 78
3 78 58 59
3 64 60 79
3 79 60 61
3 79 61 80
3 80 61 76
3 65 62 81
3 81 62 63
3 81 63 82
3 82 63 64
3 82 64 83
3 83 64 79
3 84 65 85
3 85 65 81
3 66 67 89
3 69 66 89
3 67 87 90
3 89 67 90
3 68 69 91
3 71 68 91
3 69 89 92
3 91 69 92
3 70 71 93
3 73 70 93
3 71 91 94
3 93 71 94
3 72 73 95
3 74 72 95
3 73 93 96
3 95 73 96
3 74 95 97
3 75 74 97
3 75 97 98
3 78 75 98
3 80 76 99
3 99 76 77
3 99 77 100
3 100 77 78
3 100 78 101
3 98 101 78
3 83 79 102
3 102 79 80
3 102 80 103
3 103 80 99
3 85 81 104
3 104 81 82
3 105 83 102
3 104 82 106
3 106 82 83
3 106 83 105
3 86 84 107
3 107 84 85
3 107 85 108
3 108 85 104
3 109 86 107
3 110 86 109
3 87 88 112
3 90 87 112
3 112 88 113
3 88 114 113
3 90 112 115
3 89 90 116
3 92 89 116
3 116 90 115
3 91 92 117
3 94 91 117
3 92 116 118
3 117 92 118
3 93 94 119
3 96 93 119
3 94 117 120
3 119 94 120
3 95 96 121
3 97 95 121
3 96 119 122
3 121 96 122
3 97 121 123
3 98 97 123
3 98 123 124
3 98 124 101
3 103 99 125
3 125 99 100
3 125 100 126
3 126 100 101
3 126 101 124
3 105 102 127
3 127 102 103
3 127 103 128
3 128 103 125
3 129 105 127
3 108 104 130
3 130 104 106
3 130 106 131
3 131 106 105
3 131 105 129
3 108 130 132
3 109 107 133
3 133 107 108
3 133 108 134
3 108 132 134
3 135 109 133
3 111 110 136
3 136 110 109
3 136 109 135
3 137 111 136
3 138 111 137
3 112 113 139
3 115 112 139
3 114 140 113
3 140 139 113
3 139 141 115
3 116 115 142
3 118 116 142
3 142 115 141
3 117 118 143
3 120 117 143
3 118 142 144
3 143 118 144
3 119 120 145
3 122 119 145
3 120 143 146
3 145 120 146
3 121 122 147
3 123 121 147
3 122 145 148
3 147 122 148
3 123 147 149
3 124 123 149
3 124 149 150
3 151 126 124
3 124 150 151
3 128 125 152
3 152 125 126
3 152 126 151
3 129 127 153
3 153 127 128
3 128 152 154
3 153 128 154
3 155 129 153
3 131 129 156
3 156 129 155
3 132 130 157
3 130 131 157
3 157 131 158
3 131 156 158
3 132 157 159
3 132 159 134
3 135 133 160
3 160 133 134
3 160 134 159
3 136 135 161
3 135 160 161
3 162 137 136
3 161 162 136
3 163 138 137
3 162 163 137
3 139 164 141
3 140 165 139
3 139 165 164
3 141 164 166
3 141 166 142
3 166 167 142
3 144 142 167
3 167 168 144
3 143 144 168
3 146 143 168
3 168 169 146
3 145 146 170
3 148 145 170
3 170 146 169
3 147 148 171
3 149 147 171
3 148 170 172
3 171 148 172
3 173 151 150
3 149 171 174
3 150 149 174
3 150 174 175
3 150 175 173
3 154 152 176
3 152 151 176
3 176 151 173
3 154 176 177
3 155 153 178
3 177 178 154
3 154 178 153
3 156 155 179
3 155 178 179
3 180 158 156
3 179 180 156
3 181 159 157
3 180 181 158
3 181 157 158
3 182 160 159
3 181 182 159
3 183 161 160
3 182 183 160
3 184 162 161
3 184 161 183
3 185 163 162
3 184 185 162
3 164 186 166
3 165 187 164
3 164 187 186
3 166 186 188
3 166 188 167
3 167 188 189
3 167 189 168
3 168 189 190
3 168 190 169
3 169 190 191
3 169 191 170
3 192 172 170
3 170 191 192
3 192 193 172
3 171 172 193
3 174 171 193
3 194 173 175
3 176 173 194
3 175 174 195
3 193 195 174
3 195 196 175
3 175 196 194
3 197 177 176
3 194 197 176
3 198 178 177
3 197 198 177
3 199 179 178
3 198 199 178
3 200 180 179
3 199 200 179
3 201 181 180
3 200 201 180
3 202 182 181
3 201 202 181
3 203 183 182
3 202 203 182
3 204 184 183
3 203 204 183
3 205 185 184
3 204 205 184
3 186 206 188
3 187 207 186
3 186 207 206
3 188 206 208
3 188 208 189
3 189 208 209
3 189 209 190
3 190 209 210
3 190 210 191
3 191 210 211
3 191 211 192
3 192 211 212
3 192 212 193
3 193 212 213
3 193 213 195
3 214 197 194
3 214 194 196
3 195 213 215
3 195 215 196
3 196 215 214
3 216 198 197
3 214 216 197
3 217 199 198
3 216 217 198
3 218 200 199
3 217 218 199
3 219 201 200
3 218 219 200
3 220 202 201
3 219 220 201
3 221 203 202
3 220 221 202
3 222 204 203
3 221 222 203
3 223 205 204
3 222 223 204
3 206 224 208
3 207 225 206
3 206 225 224
3 208 224 226
3 208 226 209
3 209 226 227
3 209 227 210
3 210 227 228
3 210 228 211
3 211 228 229
3 211 229 212
3 212 229 230
3 212 230 213
3 213 230 231
3 213 231 215
3 232 216 214
3 215 231 232
3 232 214 215
3 233 217 216
3 232 233 216
3 234 218 217
3 233 234 217
3 235 219 218
3 234 235 218
3 236 220 219
3 235 236 219
3 237 221 220
3 236 237 220
3 238 222 221
3 237 238 221
3 239 223 222
3 238 239 222
3 224 240 226
3 225 241 224
3 224 241 240
3 226 240 242
3 226 242 227
3 227 242 243
3 227 243 228
3 228 243 244
3 228 244 229
3 244 245 229
3 229 245 230
3 230 245 246
3 230 246 231
3 231 246 247
3 231 247 232
3 248 233 232
3 248 232 247
3 249 234 233
3 248 249 233
3 250 235 234
3 249 250 234
3 251 236 235
3 250 251 235
3 252 237 236
3 251 252 236
3 253 238 237
3 252 253 237
3 254 239 238
3 253 254 238
3 240 255 242
3 241 256 240
3 240 256 255
3 242 255 257
3 242 257 243
3 243 257 258
3 243 258 244
3 244 258 259
3 244 259 245
3 245 259 260
3 245 260 246
3 246 260 261
3 246 261 247
3 248 247 261
3 262 249 248
3 261 262 248
3 263 250 249
3 262 263 249
3 264 251 250
3 263 264 250
3 265 252 251
3 264 265 251
3 266 253 252
3 265 266 252
3 267 254 253
3 266 267 253
3 255 268 257
3 256 269 255
3 255 269 268
3 257 268 270
3 257 270 258
3 258 270 271
3 258 271 259
3 259 271 272
3 259 272 260
3 260 272 273
3 260 273 261
3 274 262 261
3 261 273 274
3 275 263 262
3 274 275 262
3 276 264 263
3 275 276 263
3 277 265 264
3 276 277 264
3 278 266 265
3 277 278 265
3 279 267 266
3 278 279 266
3 268 280 270
3 269 281 268
3 268 281 280
3 270 280 282
3 270 282 271
3 271 282 283
3 271 283 272
3 283 284 272
3 272 284 273
3 285 275 274
3 273 284 285
3 285 274 273
3 286 276 275
3 285 286 275
3 287 277 276
3 286 287 276
3 288 278 277
3 287 288 277
3 289 279 278
3 288 289 278
3 280 290 282
3 281 291 280
3 280 291 290
3 282 290 292
3 282 292 283
3 283 292 293
3 283 293 284
3 284 293 294
3 284 294 285
3 295 286 285
3 295 285 294
3 296 287 286
3 295 296 286
3 297 288 287
3 296 297 287
3 298 289 288
3 297 298 288
3 290 299 292
3 291 300 290
3 290 300 299
3 292 299 301
3 292 301 293
3 293 301 302
3 293 302 294
3 294 302 295
3 303 296 295
3 303 295 302
3 304 297 296
3 303 304 296
3 305 298 297
3 304 305 297
3 299 306 301
3 300 307 299
3 299 307 306
3 301 306 308
3 301 308 302
3 309 303 302
3 302 308 309
3 310 304 303
3 309 310 303
3 311 305 304
3 310 311 304
3 306 312 308
3 307 313 306
3 306 313 312
3 314 310 309
3 308 312 314
3 314 309 308
3 315 311 310
3 314 315 310
3 312 316 314
3 313 317 312
3 312 317 316
3 318 315 314
3 318 314 316
3 317 319 316
3 319 318 316
CELL_TYPES 578
5
5
5
5
5
5
5
5
5
5
5
5
5
5
5
5
5
5
5
5
5
5
5
5
5
5
5
5
5
5
5
5
5
5
5
5
5
5
5
5
5
5
5
5
5
5
5
5
5
5
5
5
5
5
5
5
5
5
5
5
5
5
5
5
5
5
5
5
5
5
5
5
5
5
5
5
5
5
5
5
5
5
5
5
5
5
5
5
5
5
5
5
5
5
5
5
5
5
5
5
5
5
5
5
5
5
5
5
5
5
5
5
5
5
5
5
5
5
5
5
5
5
5
5
5
5
5
5
5
5
5
5
5
5
5
5
5
5
5
5
5
5
5
5
5
5
5
5
5
5
5
5
5
5
5
5
5
5
5
5
5
5
5
5
5
5
5
5
5
5
5
5
5
5
5
5
5
5
5
5
5
5
5
5
5
5
5
5
5
5
5
5
5
5
5
5
5
5
5
5
5
5
5
5
5
5
5
5
5
5
5
5
5
5
5
5
5
5
5
5
5
5
5
5
5
5
5
5
5
5
5
5
5
5
5
5
5
5
5
5
5
5
5
5
5
5
5
5
5
5
5
5
5
5
5
5
5
5
5
5
5
5
5
5
5
5
5
5
5
5
5
5
5
5
5
5
5
5
5
5
5
5
5
5
5
5
5
5
5
5
5
5
5
5
5
5
5
5
5
5
5
5
5
5
5
5
5
5
5
5
5
5
5
5
5
5
5
5
5
5
5
5
5
5
5
5
5
5
5
5
5
5
5
5
5
5
5
5
5
5
5
5
5
5
5
5
5
5
5
5
5
5
5
5
5
5
5
5
5
5
5
5
5
5
5
5
5
5
5
5
5
5
5
5
5
5
5
5
5
5
5
5
5
5
5
5
5
5
5
5
5
5
5
5
5
5
5
5
5
5
5
5
5
5
5
5
5
5
5
5
5
5
5
5
5
5
5
5
5
5
5
5
5
5
5
5
5
5
5
5
5
5
5
5
5
5
5
5
5
5
5
5
5
5
5
5
5
5
5
5
5
5
5
5
5
5
5
5
5
5
5
5
5
5
5
5
5
5
5
5
5
5
5
5
5
5
5
5
5
5
5
5
5
5
5
5
5
5
5
5
5
5
5
5
5
5
5
5
5
5
5
5
5
5
5
5
5
5
5
5
5
5
5
5
5
5
5
5
5
5
5
5
5
5
5
5
5
5
5
5
5
5
5
5
5
5
5
5
5
5
5
5
5
5
5
5
5
5
5
5
5
5
5
5
5
5
5
5
5
5
5
5
5
5
5
5
5
5
5
5
5
5
5
5
5
5
5
5
POINT_DATA 320
SCALARS theta_e float 1
LOOKUP_TABLE default
1.000000
1.000000
1.000000
1.000000
1.000000
1.000000
1.000000
1.000000
1.000000
1.000000
1.000000
1.000000
1.000000
1.000000
1.000000
1.000000
1.000000
1.000000
1.000000
1.000000
1.000000
1.000000
1.000000
1.000000
1.000000
1.000000
1.000000
1.000000
1.000000
1.000000
1.000000
1.000000
1.000000
1.000000
1.000000
1.000000
1.000000
1.000000
1.000000
1.000000
1.000000
1.000000
1.000000
1.000000
1.000000
1.000000
1.000000
1.000000
1.000000
1.000000
1.000000
1.000000
1.000000
1.000000
1.000000
1.000000
1.000000
1.000000
1.000000
1.000000
1.000000
1.000000
1.000000
1.000000
1.000000
1.000000
1.000000
1.000000
1.000000
1.000000
1.000000
1.000000
1.000000
1.000000
1.000000
1.000000
1.000000
1.000000
1.000000
1.000000
1.000000
1.000000
1.000000
1.000000
1.000000
1.000000
1.000000
1.000000
1.000000
1.000000
1.000000
1.000000
1.000000
1.000000
1.000000
1.000000
1.000000
1.000000
1.000000
1.000000
1.000000
1.000000
1.000000
1.000000
1.000000
1.000000
1.000000
1.000000
1.000000
1.000000
1.000000
1.000000
1.000000
1.000000
1.000000
1.000000
1.000000
1.000000
1.000000
1.000000
1.000000
1.000000
1.000000
1.000000
0.999999
1.000000
1.000000
1.000000
1.000000
1.000000
1.000000
1.000000
1.000000
1.000000
1.000000
1.000000
1.000000
1.000000
1.000000
1.000000
1.000000
1.000000
1.000000
1.000000
1.000000
1.000000
1.000000
1.000000
1.000000
0.999999
0.999996
0.999997
0.999999
1.000000
1.000000
1.000000
1.000000
1.000000
1.000000
1.000000
1.000000
1.000000
1.000000
1.000000
1.000000
1.000000
1.000000
1.000000
1.000000
1.000000
1.000000
1.000000
1.000000
0.999994
0.999997
0.999994
0.999996
0.999999
1.000000
1.000000
1.000000
1.000000
1.000000
1.000000
1.000000
1.000000
1.000000
1.000000
1.000000
1.000000
1.000000
1.000000
1.000000
0.999999
0.999994
0.999996
0.999994
0.999997
1.000000
1.000000
1.000000
1.000000
1.000000
1.000000
1.000000
1.000000
1.000000
1.000000
1.000000
1.000000
1.000000
1.000000
1.000000
0.999999
0.999996
0.999997
0.999999
1.000000
1.000000
1.000000
1.000000
1.000000
1.000000
1.000000
1.000000
1.000000
1.000000
1.000000
1.000000
1.000000
1.000000
1.000000
0.999999
1.000000
1.000000
1.000000
1.000000
1.000000
1.000000
1.000000
1.000000
1.000000
1.000000
1.000000
1.000000
1.000000
1.000000
1.000000
1.000000
1.000000
1.000000
1.000000
1.000000
1.000000
1.000000
1.000000
1.000000
1.000000
1.000000
1.000000
1.000000
1.000000
1.000000
1.000000
1.000000
1.000000
1.000000
1.000000
1.000000
1.000000
1.000000
1.000000
1.000000
1.000000
1.000000
1.000000
1.000000
1.000000
1.000000
1.000000
1.000000
1.000000
1.000000
1.000000
1.000000
1.000000
1.000000
1.000000
1.000000
1.000000
1.000000
1.000000
1.000000
1.000000
1.000000
1.000000
1.000000
1.000000
1.000000
1.000000
1.000000
1.000000
1.000000
1.000000
1.000000
1.000000
1.000000
1.000000
1.000000
1.000000
1.000000
1.000000
1.000000
1.000000
1.000000
1.000000
1.000000
1.000000
1.000000
1.000000
VECTORS fa_u float
0.000000 0.000000 0.000000
0.000000 0.000000 0.000000
0.000000 0.000000 0.000000
0.000000 0.000000 0.000000
0.000000 0.000000 0.000000
0.000000 0.000000 0.000000
0.000000 0.000000 0.000000
0.000000 0.000000 0.000000
0.000000 0.000000 0.000000
0.000000 0.000000 0.000000
0.000000 0.000000 0.000000
0.000000 0.000000 0.000000
0.000000 0.000000 0.000000
0.000000 0.000000 0.000000
0.000000 0.000000 0.000000
0.000000 0.000000 0.000000
0.000000 0.000000 0.000000
0.000000 0.000000 0.000000
0.000000 0.000000 0.000000
0.000000 0.000000 0.000000
0.000000 0.000000 0.000000
0.000000 0.000000 0.000000
0.000000 0.000000 0.000000
0.000000 0.000000 0.000000
0.000000 0.000000 0.000000
0.000000 0.000000 0.000000
0.000000 0.000000 0.000000
0.000000 0.000000 0.000000
0.000000 0.000000 0.000000
0.000000 0.000000 0.000000
0.000000 0.000000 0.000000
0.000000 0.000000 0.000000
0.000000 0.000000 0.000000
0.000000 0.000000 0.000000
0.000000 0.000000 0.000000
0.000000 0.000000 0.000000
0.000000 0.000000 0.000000
0.000000 0.000000 0.000000
0.000000 0.000000 0.000000
0.000000 0.000000 0.000000
0.000000 0.000000 0.000000
0.000000 0.000000 0.000000
0.000000 0.000000 0.000000
0.000000 0.000000 0.000000
0.000000 0.000000 0.000000
0.000000 0.000000 0.000000
0.000000 0.000000 0.000000
0.000000 0.000000 0.000000
0.000000 0.000000 0.000000
0.000000 0.000000 0.000000
0.000000 0.000000 0.000000
0.000000 0.000000 0.000000
0.000000 0.000000 0.000000
0.000000 0.000000 0.000000
0.000000 0.000000 0.000000
0.000000 0.000000 0.000000
0.000000 0.000000 0.000000
0.000000 0.000000 0.000000
0.000000 0.000000 0.000000
0.000000 0.000000 0.000000
0.000000 0.000000 0.000000
0.000000 0.000000 0.000000
0.000000 0.000000 0.000000
0.000000 0.000000 0.000000
0.000000 0.000000 0.000000
0.000000 0.000000 0.000000
0.000000 0.000000 0.000000
0.000000 0.000000 0.000000
0.000000 0.000000 0.000000
0.000000 0.000000 0.000000
0.000000 0.000000 0.000000
0.000000 0.000000 0.000000
0.000000 0.000000 0.000000
0.000000 0.000000 0.000000
0.000000 0.000000 0.000000
0.000000 0.000000 0.000000
0.000000 0.000000 0.000000
0.000000 0.000000 0.000000
0.000000 0.000000 0.000000
0.000000 0.000000 0.000000
0.000000 0.000000 0.000000
0.000000 0.000000 0.000000
0.000000 0.000000 0.000000
0.000000 0.000000 0.000000
0.000000 0.000000 0.000000
0.000000 0.000000 0.000000
0.000000 0.000000 0.000000
0.000000 0.000000 0.000000
0.000000 0.000000 0.000000
0.000000 0.000000 0.000000
0.000000 0.000000 0.000000
0.000000 0.000000 0.000000
0.000000 0.000000 0.000000
0.000000 0.000000 0.000000
0.000000 0.000000 0.000000
0.000000 0.000000 0.000000
0.000000 0.000000 0.000000
0.000000 0.000000 0.000000
0.000000 0.000000 0.000000
0.000000 0.000000 0.000000
0.000000 0.000000 0.000000
0.000000 0.000000 0.000000
0.000000 0.000000 0.000000
0.000000 0.000000 0.000000
0.000000 0.000000 0.000000
0.000000 0.000000 0.000000
0.000000 0.000000 0.000000
0.000000 0.000000 0.000000
0.000000 0.000000 0.000000
0.000000 0.000000 0.000000
0.000000 0.000000 0.000000
0.000000 0.000000 0.000000
0.000000 0.000000 0.000000
0.000000 0.000000 0.000000
0.000000 0.000000 0.000000
0.000000 0.000000 0.000000
0.000000 0.000000 0.000000
0.000000 0.000000 0.000000
0.000000 0.000000 0.000000
0.000000 0.000000 0.000000
0.000000 0.000000 0.000000
0.000000 0.000000 0.000000
0.000000 0.000000 0.000000
0.000000 0.000000 0.000000
0.000000 0.000000 0.000000
0.000000 0.000000 0.000000
0.000000 0.000000 0.000000
0.000000 0.000000 0.000000
0.000000 0.000000 0.000000
0.000000 0.000000 0.000000
0.000000 0.000000 0.000000
0.000000 0.000000 0.000000
0.000000 0.000000 0.000000
0.000000 0.000000 0.000000
0.000000 0.000000 0.000000
0.000000 0.000000 0.000000
0.000000 0.000000 0.000000
0.000000 0.000000 0.000000
0.000000 0.000000 0.000000
0.000000 0.000000 0.000000
0.000000 0.000000 0.000000
0.000000 0.000000 0.000000
0.000000 0.000000 0.000000
0.000000 0.000000 0.000000
0.000000 0.000000 0.000000
0.000000 0.000000 0.000000
0.000000 0.000000 0.000000
0.000000 0.000000 0.000000
0.000000 0.000000 0.000000
0.000000 0.000000 0.000000
0.000000 0.000000 0.000000
0.000000 0.000000 0.000000
0.000000 0.000000 0.000000
0.000000 0.000000 0.000000
0.000000 0.000000 0.000000
0.000000 0.000000 0.000000
0.000000 0.000000 0.000000
0.000000 0.000000 0.000000
0.000000 0.000000 0.000000
0.000000 0.000000 0.000000
0.000000 0.000000 0.000000
0.000000 0.000000 0.000000
0.000000 0.000000 0.000000
0.000000 0.000000 0.000000
0.000000 0.000000 0.000000
0.000000 0.000000 0.000000
0.000000 0.000000 0.000000
0.000000 0.000000 0.000000
0.000000 0.000000 0.000000
0.000000 0.000000 0.000000
0.000000 0.000000 0.000000
0.000000 0.000000 0.000000
0.000000 0.000000 0.000000
0.000000 0.000000 0.000000
0.000000 0.000000 0.000000
0.000000 0.000000 0.000000
0.000000 0.000000 0.000000
0.000000 0.000000 0.000000
0.000000 0.000000 0.000000
0.000000 0.000000 0.000000
0.000000 0.000000 0.000000
0.000000 0.000000 0.000000
0.000000 0.000000 0.000000
0.000000 0.000000 0.000000
0.000000 0.000000 0.000000
0.000000 0.000000 0.000000
0.000000 0.000000 0.000000
0.000000 0.000000 0.000000
0.000000 0.000000 0.000000
0.000000 0.000000 0.000000
0.000000 0.000000 0.000000
0.000000 0.000000 0.000000
0.000000 0.000000 0.000000
0.000000 0.000000 0.000000
0.000000 0.000000 0.000000
0.000000 0.000000 0.000000
0.000000 0.000000 0.000000
0.000000 0.000000 0.000000
0.000000 0.000000 0.000000
0.000000 0.000000 0.000000
0.000000 0.000000 0.000000
0.000000 0.000000 0.000000
0.000000 0.000000 0.000000
0.000000 0.000000 0.000000
0.000000 0.000000 0.000000
0.000000 0.000000 0.000000
0.000000 0.000000 0.000000
0.000000 0.000000 0.000000
0.000000 0.000000 0.000000
0.000000 0.000000 0.000000
0.000000 0.000000 0.000000
0.000000 0.000000 0.000000
0.000000 0.000000 0.000000
0.000000 0.000000 0.000000
0.000000 0.000000 0.000000
0.000000 0.000000 0.000000
0.000000 0.000000 0.000000
0.000000 0.000000 0.000000
0.000000 0.000000 0.000000
0.000000 0.000000 0.000000
0.000000 0.000000 0.000000
0.000000 0.000000 0.000000
0.000000 0.000000 0.000000
0.000000 0.000000 0.000000
0.000000 0.000000 0.000000
0.000000 0.000000 0.000000
0.000000 0.000000 0.000000
0.000000 0.000000 0.000000
0.000000 0.000000 0.000000
0.000000 0.000000 0.000000
0.000000 0.000000 0.000000
0.000000 0.000000 0.000000
0.000000 0.000000 0.000000
0.000000 0.000000 0.000000
0.000000 0.000000 0.000000
0.000000 0.000000 0.000000
0.000000 0.000000 0.000000
0.000000 0.000000 0.000000
0.000000 0.000000 0.000000
0.000000 0.000000 0.000000
0.000000 0.000000 0.000000
0.000000 0.000000 0.000000
0.000000 0.000000 0.000000
0.000000 0.000000 0.000000
0.000000 0.000000 0.000000
0.000000 0.000000 0.000000
0.000000 0.000000 0.000000
0.000000 0.000000 0.000000
0.000000 0.000000 0.000000
0.000000 0.000000 0.000000
0.000000 0.000000 0.000000
0.000000 0.000000 0.000000
0.000000 0.000000 0.000000
0.000000 0.000000 0.000000
0.000000 0.000000 0.000000
0.000000 0.000000 0.000000
0.000000 0.000000 0.000000
0.000000 0.000000 0.000000
0.000000 0.000000 0.000000
0.000000 0.000000 0.000000
0.000000 0.000000 0.000000
0.000000 0.000000 0.000000
0.000000 0.000000 0.000000
0.000000 0.000000 0.000000
0.000000 0.000000 0.000000
0.000000 0.000000 0.000000
0.000000 0.000000 0.000000
0.000000 0.000000 0.000000
0.000000 0.000000 0.000000
0.000000 0.000000 0.000000
0.000000 0.000000 0.000000
0.000000 0.000000 0.000000
0.000000 0.000000 0.000000
0.000000 0.000000 0.000000
0.000000 0.000000 0.000000
0.000000 0.000000 0.000000
0.000000 0.000000 0.000000
0.000000 0.000000 0.000000
0.000000 0.000000 0.000000
0.000000 0.000000 0.000000
0.000000 0.000000 0.000000
0.000000 0.000000 0.000000
0.000000 0.000000 0.000000
0.000000 0.000000 0.000000
0.000000 0.000000 0.000000
0.000000 0.000000 0.000000
0.000000 0.000000 0.000000
0.000000 0.000000 0.000000
0.000000 0.000000 0.000000
0.000000 0.000000 0.000000
0.000000 0.000000 0.000000
0.000000 0.000000 0.000000
0.000000 0.000000 0.000000
0.000000 0.000000 0.000000
0.000000 0.000000 0.000000
0.000000 0.000000 0.000000
0.000000 0.000000 -50.000000
-50.000000 0.000000 -50.000000
-43.332181 0.000000 -45.688672
-45.491379 0.000000 -43.332024
-50.000000 0.000000 -50.000000
-36.664292 0.000000 -36.664378
-50.000000 0.000000 -45.081426
-39.969946 0.000000 -40.027636
-44.152515 0.000000 -29.996648
-50.000000 0.000000 -50.000000
-29.996516 0.000000 -44.847388
-33.449050 0.000000 -33.145274
-44.675945 0.000000 -39.869509
-36.787163 0.000000 -35.129117
-39.801620 0.000000 -23.329378
-50.000000 0.000000 -26.539546
-44.666862 0.000000 -50.000000
-23.329263 0.000000 -44.665398
-26.804113 0.000000 -39.364519
-30.225867 0.000000 -29.606797
-39.359609 0.000000 -33.368763
-33.655733 0.000000 -50.000000
-16.662763 0.000000 -16.662958
-50.000000 0.000000 -9.997398
