# vtk DataFile Version 2.0
CellBP Time: 3.28
ASCII
DATASET UNSTRUCTURED_GRID
POINTS 320 double
-50.000000 -50.000000 0.000000
-50.000000 -43.332770 0.000000
-45.688460 -45.491207 0.000000
-43.332686 -50.000000 0.000000
-50.000000 -36.665508 0.000000
-36.665533 -50.000000 0.000000
-45.081198 -39.969827 0.000000
-40.027303 -44.152336 0.000000
-29.998336 -50.000000 0.000000
-50.000000 -29.998299 0.000000
-44.847164 -33.448949 0.000000
-33.145005 -44.675750 0.000000
-39.869223 -36.787033 0.000000
-35.128773 -39.801382 0.000000
-23.331363 -50.000000 0.000000
-26.539253 -44.666771 0.000000
-50.000000 -23.331343 0.000000
-44.665303 -26.803971 0.000000
-39.364309 -30.225725 0.000000
-29.606405 -39.359422 0.000000
-33.368368 -33.655515 0.000000
-50.000000 -16.664752 0.000000
-16.664809 -50.000000 0.000000
-9.998685 -50.000000 0.000000
-19.965007 -44.588747 0.000000
-23.215988 -39.114705 0.000000
-44.691861 -20.096961 0.000000
-39.367874 -23.528159 0.000000
-34.106209 -26.937043 0.000000
-26.384540 -33.577341 0.000000
-29.156324 -28.926692 0.000000
-50.000000 -9.998484 0.000000
-44.666335 -13.410228 0.000000
-50.000000 -3.332620 0.000000
-3.332912 -50.000000 0.000000
3.332772 -50.000000 0.000000
-13.343777 -44.598980 0.000000
-6.684798 -44.610631 0.000000
-16.693793 -39.153223 0.000000
-20.107040 -33.342648 0.000000
-39.338145 -16.804713 0.000000
-34.018791 -20.274607 0.000000
-28.781079 -23.449107 0.000000
-23.510594 -27.350511 0.000000
-44.635400 -6.705548 0.000000
-39.293086 -10.101785 0.000000
-50.000000 3.333033 0.000000
-44.626682 -0.015548 0.000000
9.998630 -50.000000 0.000000
16.664829 -50.000000 0.000000
-0.016134 -44.618710 0.000000
6.651673 -44.635416 0.000000
-10.044788 -39.222561 0.000000
-3.368251 -39.220321 0.000000
-13.484282 -33.798613 0.000000
-16.709301 -28.271508 0.000000
-33.948007 -13.513856 0.000000
-28.602106 -16.892244 0.000000
-23.292002 -20.313112 0.000000
-18.660596 -23.283533 0.000000
-39.267462 -3.392753 0.000000
-33.904519 -6.796749 0.000000
-50.000000 9.998763 0.000000
-44.606689 6.673532 0.000000
-39.260834 3.325713 0.000000
-50.000000 16.664866 0.000000
23.331379 -50.000000 0.000000
29.998281 -50.000000 0.000000
13.317549 -44.662955 0.000000
19.989685 -44.700106 0.000000
3.307655 -39.245124 0.000000
9.971822 -39.290328 0.000000
-6.735444 -33.791343 0.000000
-0.032242 -33.829526 0.000000
-10.095944 -28.292955 0.000000
-13.122714 -22.897252 0.000000
-28.532098 -10.214625 0.000000
-23.067170 -13.663494 0.000000
-16.978128 -17.210782 0.000000
-33.884515 -0.065466 0.000000
-28.563003 -3.579461 0.000000
-44.564073 13.380626 0.000000
-39.190013 10.015105 0.000000
-33.905653 6.616034 0.000000
-50.000000 23.331294 0.000000
-44.557536 20.138309 0.000000
-50.000000 29.998356 0.000000
36.665446 -50.000000 0.000000
43.332699 -50.000000 0.000000
26.663299 -44.745331 0.000000
33.315335 -44.876021 0.000000
16.631675 -39.357685 0.000000
23.328286 -39.437120 0.000000
6.642878 -33.879533 0.000000
13.290632 -33.965444 0.000000
-3.345959 -28.363269 0.000000
3.357671 -28.451219 0.000000
-6.626085 -22.845479 0.000000
-9.966398 -17.315100 0.000000
-23.182826 -7.014527 0.000000
-17.812186 -10.334828 0.000000
-12.837792 -12.599406 0.000000
-28.607428 3.088595 0.000000
-23.265724 -0.469043 0.000000
-39.038748 16.746412 0.000000
-28.720717 9.926112 0.000000
-33.761242 13.318226 0.000000
-44.521698 26.717051 0.000000
-38.467761 23.892604 0.000000
-44.632458 33.085701 0.000000
-50.000000 36.665748 0.000000
-50.000000 43.332849 0.000000
39.922417 -45.069647 0.000000
45.474758 -45.660517 0.000000
50.000000 -50.000000 0.000000
36.626815 -39.982005 0.000000
30.012398 -39.458647 0.000000
19.904186 -34.092856 0.000000
26.585046 -34.319536 0.000000
9.988629 -28.513111 0.000000
16.610742 -28.660143 0.000000
0.051279 -22.961143 0.000000
6.812131 -23.156722 0.000000
-3.399252 -17.296960 0.000000
-6.834797 -10.957755 0.000000
-17.876033 -3.820967 0.000000
-12.550890 -7.034734 0.000000
-23.309366 6.071519 0.000000
-18.035731 2.446767 0.000000
-23.122858 12.095939 0.000000
-33.572126 19.788932 0.000000
-27.941516 16.885852 0.000000
-33.293005 24.722821 0.000000
-39.473731 30.052984 0.000000
-35.160525 28.137614 0.000000
-39.816155 35.101535 0.000000
-43.991773 39.982373 0.000000
-45.431065 45.685267 0.000000
-50.000000 50.000000 0.000000
44.117301 -39.899095 0.000000
50.000000 -43.332496 0.000000
39.639481 -35.047468 0.000000
33.462917 -33.424591 0.000000
22.984904 -28.818038 0.000000
28.730994 -29.247845 0.000000
13.460736 -23.121775 0.000000
20.054860 -23.439284 0.000000
3.377137 -17.588684 0.000000
10.124978 -17.841615 0.000000
0.154647 -11.903225 0.000000
-2.140543 -6.215591 0.000000
-7.288651 -3.637844 0.000000
-12.538455 -0.805751 0.000000
-18.167907 8.573164 0.000000
-12.950507 5.196531 0.000000
-18.638602 13.751555 0.000000
-21.504199 17.494586 0.000000
-28.940877 23.158789 0.000000
-24.346334 21.554487 0.000000
-30.323704 28.634956 0.000000
-34.253578 33.375585 0.000000
-36.955996 39.578101 0.000000
-39.838703 45.102823 0.000000
-43.332679 50.000000 0.000000
44.585288 -32.972130 0.000000
50.000000 -36.665247 0.000000
39.129323 -29.581905 0.000000
33.500623 -26.367698 0.000000
27.182970 -23.322118 0.000000
23.066503 -18.647877 0.000000
16.990837 -16.980997 0.000000
6.705049 -12.203751 0.000000
12.362373 -12.734987 0.000000
-3.375594 -1.489587 0.000000
3.869001 -6.906208 0.000000
1.023050 -2.120746 0.000000
-6.939823 2.299567 0.000000
-8.345102 7.748160 0.000000
-12.844109 11.930477 0.000000
-15.691726 17.699697 0.000000
-19.287330 22.982137 0.000000
-24.170978 27.354652 0.000000
-27.286349 33.625947 0.000000
-30.406695 39.161148 0.000000
-33.447846 44.738867 0.000000
-36.665398 50.000000 0.000000
44.547733 -26.499966 0.000000
50.000000 -29.998035 0.000000
39.040014 -23.179297 0.000000
33.449666 -19.899987 0.000000
28.039884 -16.573900 0.000000
22.681656 -13.123990 0.000000
17.176124 -9.905109 0.000000
10.863134 -6.613870 0.000000
-1.355486 2.313713 0.000000
6.181625 -1.726233 0.000000
2.898968 1.597220 0.000000
-3.500068 7.091370 0.000000
-6.312854 12.436397 0.000000
-9.629379 17.706540 0.000000
-13.167387 23.113393 0.000000
-17.316713 28.185135 0.000000
-20.570806 33.474320 0.000000
-23.665978 39.063963 0.000000
-26.831003 44.585361 0.000000
-29.998342 50.000000 0.000000
44.528681 -19.930718 0.000000
50.000000 -23.331108 0.000000
39.036267 -16.594134 0.000000
33.576092 -13.281240 0.000000
28.149988 -9.965004 0.000000
22.725333 -6.604684 0.000000
17.264579 -3.336247 0.000000
11.912136 0.204022 0.000000
1.920011 6.250265 0.000000
6.926863 3.778842 0.000000
-0.219340 11.876859 0.000000
-3.259105 17.530548 0.000000
-6.700024 22.977295 0.000000
-10.567549 28.267393 0.000000
-13.724072 33.661252 0.000000
-16.945742 39.080284 0.000000
-20.140688 44.548416 0.000000
-23.331511 50.000000 0.000000
44.536241 -13.303838 0.000000
50.000000 -16.664597 0.000000
39.079869 -9.966765 0.000000
33.646684 -6.641188 0.000000
28.236307 -3.307759 0.000000
22.847948 0.017798 0.000000
17.536165 3.351929 0.000000
12.198050 6.590189 0.000000
6.692768 10.778545 0.000000
3.301796 17.197489 0.000000
-0.081099 22.852810 0.000000
-3.518748 28.312829 0.000000
-6.831469 33.774466 0.000000
-10.137506 39.170534 0.000000
-13.435867 44.563522 0.000000
-16.665029 50.000000 0.000000
44.554278 -6.654833 0.000000
50.000000 -9.998544 0.000000
39.123320 -3.321392 0.000000
33.713373 0.008760 0.000000
28.333254 3.344458 0.000000
23.000778 6.693836 0.000000
17.833309 10.021162 0.000000
12.656669 12.234822 0.000000
9.787753 17.233935 0.000000
6.478592 22.722405 0.000000
3.188982 28.269873 0.000000
-0.115967 33.734797 0.000000
-3.425239 39.168626 0.000000
-6.725540 44.581795 0.000000
-9.998867 50.000000 0.000000
44.575609 0.001845 0.000000
50.000000 -3.332848 0.000000
39.166869 3.331844 0.000000
33.779369 6.655580 0.000000
28.424051 9.994911 0.000000
23.046418 13.416354 0.000000
16.949440 17.023221 0.000000
12.901602 22.669083 0.000000
9.815029 28.231996 0.000000
6.604269 33.718760 0.000000
3.286536 39.164425 0.000000
-0.029915 44.584556 0.000000
-3.332959 50.000000 0.000000
44.586714 6.665538 0.000000
50.000000 3.332807 0.000000
39.198114 9.981950 0.000000
33.843441 13.276998 0.000000
28.542051 16.584609 0.000000
23.387136 20.084326 0.000000
18.531842 23.112727 0.000000
16.392984 28.298635 0.000000
13.328961 33.754769 0.000000
9.986598 39.181957 0.000000
6.666023 44.584322 0.000000
3.332866 50.000000 0.000000
44.608898 13.318019 0.000000
50.000000 9.998689 0.000000
39.251363 16.612482 0.000000
33.931920 19.862874 0.000000
28.612376 22.925998 0.000000
23.279639 27.207634 0.000000
19.901341 33.303010 0.000000
16.573879 39.040911 0.000000
13.268443 44.526722 0.000000
9.998740 50.000000 0.000000
44.632072 19.973091 0.000000
50.000000 16.664919 0.000000
39.298505 23.262195 0.000000
34.043837 26.514772 0.000000
28.965821 28.539473 0.000000
26.202433 33.410144 0.000000
23.066785 38.968821 0.000000
19.888690 44.507050 0.000000
16.664851 50.000000 0.000000
44.639830 26.643021 0.000000
50.000000 23.331477 0.000000
39.293405 29.966777 0.000000
33.212449 33.371327 0.000000
29.412209 39.045876 0.000000
26.422487 44.505982 0.000000
23.331358 50.000000 0.000000
44.775040 33.291875 0.000000
50.000000 29.998360 0.000000
39.738234 36.596364 0.000000
34.831127 39.525693 0.000000
32.833910 44.514348 0.000000
29.998231 50.000000 0.000000
44.978305 39.877928 0.000000
50.000000 36.665492 0.000000
39.734980 43.969099 0.000000
36.665378 50.000000 0.000000
45.621368 45.409880 0.000000
50.000000 43.332715 0.000000
43.332564 50.000000 0.000000
50.000000 50.000000 0.000000
CELLS 578 2312
3 1 0 2
3 0 3 2
3 4 1 6
3 6 1 2
3 3 5 7
3 3 7 2
3 6 2 7
3 9 4 10
3 10 4 6
3 5 8 11
3 7 5 11
3 10 6 12
3 12 6 7
3 7 11 13
3 7 13 12
3 8 14 15
3 11 8 15
3 16 9 17
3 17 9 10
3 17 10 18
3 18 10 12
3 11 15 19
3 13 11 19
3 18 12 20
3 13 19 20
3 20 12 13
3 14 22 24
3 15 14 24
3 15 24 25
3 19 15 25
3 21 16 26
3 26 16 17
3 26 17 27
3 27 17 18
3 27 18 28
3 28 18 20
3 19 25 29
3 19 29 20
3 28 20 30
3 30 20 29
3 31 21 32
3 32 21 26
3 22 23 36
3 24 22 36
3 23 34 37
3 36 23 37
3 24 36 38
3 25 24 38
3 25 38 39
3 29 25 39
3 32 26 40
3 40 26 27
3 40 27 41
3 41 27 28
3 41 28 42
3 42 28 30
3 29 39 43
3 29 43 30
3 42 30 43
3 33 31 44
3 44 31 32
3 44 32 45
3 45 32 40
3 46 33 47
3 47 33 44
3 34 35 50
3 37 34 50
3 35 48 51
3 50 35 51
3 36 37 52
3 38 36 52
3 37 50 53
3 52 37 53
3 38 52 54
3 39 38 54
3 39 54 55
3 43 39 55
3 45 40 56
3 56 40 41
3 56 41 57
3 57 41 42
3 57 42 58
3 58 42 43
3 43 55 59
3 43 59 58
3 47 44 60
3 60 44 45
3 60 45 61
3 61 45 56
3 62 46 63
3 63 46 47
3 63 47 64
3 64 47 60
3 48 49 68
3 51 48 68
3 49 66 69
3 68 49 69
3 50 51 70
3 53 50 70
3 51 68 71
3 70 51 71
3 52 53 72
3 54 52 72
3 53 70 73
3 72 53 73
3 54 72 74
3 55 54 74
3 55 74 75
3 59 55 75
3 61 56 76
3 76 56 57
3 76 57 77
3 77 57 58
3 77 58 78
3 59 75 78
3 78 58 59
3 64 60 79
3 79 60 61
3 79 61 80
3 80 61 76
3 65 62 81
3 81 62 63
3 81 63 82
3 82 63 64
3 82 64 83
3 83 64 79
3 84 65 85
3 85 65 81
3 66 67 89
3 69 66 89
3 67 87 90
3 89 67 90
3 68 69 91
3 71 68 91
3 69 89 92
3 91 69 92
3 70 71 93
3 73 70 93
3 71 91 94
3 93 71 94
3 72 73 95
3 74 72 95
3 73 93 96
3 95 73 96
3 74 95 97
3 75 74 97
3 75 97 98
3 78 75 98
3 80 76 99
3 99 76 77
3 99 77 100
3 100 77 78
3 100 78 101
3 98 101 78
3 83 79 102
3 102 79 80
3 102 80 103
3 103 80 99
3 85 81 104
3 104 81 82
3 105 83 102
3 104 82 106
3 106 82 83
3 106 83 105
3 86 84 107
3 107 84 85
3 107 85 108
3 108 85 104
3 109 86 107
3 110 86 109
3 87 88 112
3 90 87 112
3 112 88 113
3 88 114 113
3 90 112 115
3 89 90 116
3 92 89 116
3 116 90 115
3 91 92 117
3 94 91 117
3 92 116 118
3 117 92 118
3 93 94 119
3 96 93 119
3 94 117 120
3 119 94 120
3 95 96 121
3 97 95 121
3 96 119 122
3 121 96 122
3 97 121 123
3 98 97 123
3 98 123 124
3 98 124 101
3 103 99 125
3 125 99 100
3 125 100 126
3 126 100 101
3 126 101 124
3 105 102 127
3 127 102 103
3 127 103 128
3 128 103 125
3 129 105 127
3 108 104 130
3 130 104 106
3 130 106 131
3 131 106 105
3 131 105 129
3 108 130 132
3 109 107 133
3 133 107 108
3 133 108 134
3 108 132 134
3 135 109 133
3 111 110 136
3 136 110 109
3 136 109 135
3 137 111 136
3 138 111 137
3 112 113 139
3 115 112 139
3 114 140 113
3 140 139 113
3 139 141 115
3 116 115 142
3 118 116 142
3 142 115 141
3 117 118 143
3 120 117 143
3 118 142 144
3 143 118 144
3 119 120 145
3 122 119 145
3 120 143 146
3 145 120 146
3 121 122 147
3 123 121 147
3 122 145 148
3 147 122 148
3 123 147 149
3 124 123 149
3 124 149 150
3 151 126 124
3 124 150 151
3 128 125 152
3 152 125 126
3 152 126 151
3 129 127 153
3 153 127 128
3 128 152 154
3 153 128 154
3 155 129 153
3 131 129 156
3 156 129 155
3 132 130 157
3 130 131 157
3 157 131 158
3 131 156 158
3 132 157 159
3 132 159 134
3 135 133 160
3 160 133 134
3 160 134 159
3 136 135 161
3 135 160 161
3 162 137 136
3 161 162 136
3 163 138 137
3 162 163 137
3 139 164 141
3 140 165 139
3 139 165 164
3 141 164 166
3 141 166 142
3 166 167 142
3 144 142 167
3 167 168 144
3 143 144 168
3 146 143 168
3 168 169 146
3 145 146 170
3 148 145 170
3 170 146 169
3 147 148 171
3 149 147 171
3 148 170 172
3 171 148 172
3 173 151 150
3 149 171 174
3 150 149 174
3 150 174 175
3 150 175 173
3 154 152 176
3 152 151 176
3 176 151 173
3 154 176 177
3 155 153 178
3 177 178 154
3 154 178 153
3 156 155 179
3 155 178 179
3 180 158 156
3 179 180 156
3 181 159 157
3 180 181 158
3 181 157 158
3 182 160 159
3 181 182 159
3 183 161 160
3 182 183 160
3 184 162 161
3 184 161 183
3 185 163 162
3 184 185 162
3 164 186 166
3 165 187 164
3 164 187 186
3 166 186 188
3 166 188 167
3 167 188 189
3 167 189 168
3 168 189 190
3 168 190 169
3 169 190 191
3 169 191 170
3 192 172 170
3 170 191 192
3 192 193 172
3 171 172 193
3 174 171 193
3 194 173 175
3 176 173 194
3 175 174 195
3 193 195 174
3 195 196 175
3 175 196 194
3 197 177 176
3 194 197 176
3 198 178 177
3 197 198 177
3 199 179 178
3 198 199 178
3 200 180 179
3 199 200 179
3 201 181 180
3 200 201 180
3 202 182 181
3 201 202 181
3 203 183 182
3 202 203 182
3 204 184 183
3 203 204 183
3 205 185 184
3 204 205 184
3 186 206 188
3 187 207 186
3 186 207 206
3 188 206 208
3 188 208 189
3 189 208 209
3 189 209 190
3 190 209 210
3 190 210 191
3 191 210 211
3 191 211 192
3 192 211 212
3 192 212 193
3 193 212 213
3 193 213 195
3 214 197 194
3 214 194 196
3 195 213 215
3 195 215 196
3 196 215 214
3 216 198 197
3 214 216 197
3 217 199 198
3 216 217 198
3 218 200 199
3 217 218 199
3 219 201 200
3 218 219 200
3 220 202 201
3 219 220 201
3 221 203 202
3 220 221 202
3 222 204 203
3 221 222 203
3 223 205 204
3 222 223 204
3 206 224 208
3 207 225 206
3 206 225 224
3 208 224 226
3 208 226 209
3 209 226 227
3 209 227 210
3 210 227 228
3 210 228 211
3 211 228 229
3 211 229 212
3 212 229 230
3 212 230 213
3 213 230 231
3 213 231 215
3 232 216 214
3 215 231 232
3 232 214 215
3 233 217 216
3 232 233 216
3 234 218 217
3 233 234 217
3 235 219 218
3 234 235 218
3 236 220 219
3 235 236 219
3 237 221 220
3 236 237 220
3 238 222 221
3 237 238 221
3 239 223 222
3 238 239 222
3 224 240 226
3 225 241 224
3 224 241 240
3 226 240 242
3 226 242 227
3 227 242 243
3 227 243 228
3 228 243 244
3 228 244 229
3 244 245 229
3 229 245 230
3 230 245 246
3 230 246 231
3 231 246 247
3 231 247 232
3 248 233 232
3 248 232 247
3 249 234 233
3 248 249 233
3 250 235 234
3 249 250 234
3 251 236 235
3 250 251 235
3 252 237 236
3 251 252 236
3 253 238 237
3 252 253 237
3 254 239 238
3 253 254 238
3 240 255 242
3 241 256 240
3 240 256 255
3 242 255 257
3 242 257 243
3 243 257 258
3 243 258 244
3 244 258 259
3 244 259 245
3 245 259 260
3 245 260 246
3 246 260 261
3 246 261 247
3 248 247 261
3 262 249 248
3 261 262 248
3 263 250 249
3 262 263 249
3 264 251 250
3 263 264 250
3 265 252 251
3 264 265 251
3 266 253 252
3 265 266 252
3 267 254 253
3 266 267 253
3 255 268 257
3 256 269 255
3 255 269 268
3 257 268 270
3 257 270 258
3 258 270 271
3 258 271 259
3 259 271 272
3 259 272 260
3 260 272 273
3 260 273 261
3 274 262 261
3 261 273 274
3 275 263 262
3 274 275 262
3 276 264 263
3 275 276 263
3 277 265 264
3 276 277 264
3 278 266 265
3 277 278 265
3 279 267 266
3 278 279 266
3 268 280 270
3 269 281 268
3 268 281 280
3 270 280 282
3 270 282 271
3 271 282 283
3 271 283 272
3 283 284 272
3 272 284 273
3 285 275 274
3 273 284 285
3 285 274 273
3 286 276 275
3 285 286 275
3 287 277 276
3 286 287 276
3 288 278 277
3 287 288 277
3 289 279 278
3 288 289 278
3 280 290 282
3 281 291 280
3 280 291 290
3 282 290 292
3 282 292 283
3 283 292 293
3 283 293 284
3 284 293 294
3 284 294 285
3 295 286 285
3 295 285 294
3 296 287 286
3 295 296 286
3 297 288 287
3 296 297 287
3 298 289 288
3 297 298 288
3 290 299 292
3 291 300 290
3 290 300 299
3 292 299 301
3 292 301 293
3 293 301 302
3 293 302 294
3 294 302 295
3 303 296 295
3 303 295 302
3 304 297 296
3 303 304 296
3 305 298 297
3 304 305 297
3 299 306 301
3 300 307 299
3 299 307 306
3 301 306 308
3 301 308 302
3 309 303 302
3 302 308 309
3 310 304 303
3 309 310 303
3 311 305 304
3 310 311 304
3 306 312 308
3 307 313 306
3 306 313 312
3 314 310 309
3 308 312 314
3 314 309 308
3 315 311 310
3 314 315 310
3 312 316 314
3 313 317 312
3 312 317 316
3 318 315 314
3 318 314 316
3 317 319 316
3 319 318 316
CELL_TYPES 578
5
5
5
5
5
5
5
5
5
5
5
5
5
5
5
5
5
5
5
5
5
5
5
5
5
5
5
5
5
5
5
5
5
5
5
5
5
5
5
5
5
5
5
5
5
5
5
5
5
5
5
5
5
5
5
5
5
5
5
5
5
5
5
5
5
5
5
5
5
5
5
5
5
5
5
5
5
5
5
5
5
5
5
5
5
5
5
5
5
5
5
5
5
5
5
5
5
5
5
5
5
5
5
5
5
5
5
5
5
5
5
5
5
5
5
5
5
5
5
5
5
5
5
5
5
5
5
5
5
5
5
5
5
5
5
5
5
5
5
5
5
5
5
5
5
5
5
5
5
5
5
5
5
5
5
5
5
5
5
5
5
5
5
5
5
5
5
5
5
5
5
5
5
5
5
5
5
5
5
5
5
5
5
5
5
5
5
5
5
5
5
5
5
5
5
5
5
5
5
5
5
5
5
5
5
5
5
5
5
5
5
5
5
5
5
5
5
5
5
5
5
5
5
5
5
5
5
5
5
5
5
5
5
5
5
5
5
5
5
5
5
5
5
5
5
5
5
5
5
5
5
5
5
5
5
5
5
5
5
5
5
5
5
5
5
5
5
5
5
5
5
5
5
5
5
5
5
5
5
5
5
5
5
5
5
5
5
5
5
5
5
5
5
5
5
5
5
5
5
5
5
5
5
5
5
5
5
5
5
5
5
5
5
5
5
5
5
5
5
5
5
5
5
5
5
5
5
5
5
5
5
5
5
5
5
5
5
5
5
5
5
5
5
5
5
5
5
5
5
5
5
5
5
5
5
5
5
5
5
5
5
5
5
5
5
5
5
5
5
5
5
5
5
5
5
5
5
5
5
5
5
5
5
5
5
5
5
5
5
5
5
5
5
5
5
5
5
5
5
5
5
5
5
5
5
5
5
5
5
5
5
5
5
5
5
5
5
5
5
5
5
5
5
5
5
5
5
5
5
5
5
5
5
5
5
5
5
5
5
5
5
5
5
5
5
5
5
5
5
5
5
5
5
5
5
5
5
5
5
5
5
5
5
5
5
5
5
5
5
5
5
5
5
5
5
5
5
5
5
5
5
5
5
5
5
5
5
5
5
5
5
5
5
5
5
5
5
5
5
5
5
5
5
5
5
5
5
5
5
5
5
5
5
5
5
5
5
5
5
5
5
5
5
5
5
5
5
5
5
5
5
5
5
5
5
5
5
5
5
5
5
5
5
5
5
5
5
5
5
5
5
5
5
5
5
5
5
5
5
5
5
5
5
5
5
5
5
5
5
5
5
5
5
5
5
5
5
5
POINT_DATA 320
SCALARS theta_e float 1
LOOKUP_TABLE default
1.000001
1.000001
1.000001
1.000001
1.000001
1.000001
1.000001
1.000001
1.000001
1.000001
1.000001
1.000001
1.000001
1.000001
1.000001
1.000001
1.000001
1.000001
1.000001
1.000001
1.000001
1.000001
1.000001
1.000001
1.000001
1.000001
1.000001
1.000001
1.000001
1.000001
1.000001
1.000001
1.000001
1.000001
1.000001
1.000001
1.000001
1.000001
1.000001
1.000001
1.000001
1.000001
1.000001
1.000001
1.000001
1.000001
1.000001
1.000001
1.000001
1.000001
1.000001
1.000001
1.000001
1.000001
1.000001
1.000001
1.000001
1.000001
1.000001
1.000001
1.000001
1.000001
1.000001
1.000001
1.000001
1.000001
1.000001
1.000001
1.000001
1.000001
1.000001
1.000001
1.000001
1.000001
1.000001
1.000001
1.000001
1.000001
1.000001
1.000001
1.000001
1.000001
1.000001
1.000001
1.000001
1.000001
1.000001
1.000001
1.000001
1.000001
1.000001
1.000001
1.000001
1.000001
1.000001
1.000001
1.000001
1.000001
1.000001
1.000001
1.000001
1.000001
1.000001
1.000001
1.000001
1.000001
1.000001
1.000001
1.000001
1.000001
1.000001
1.000001
1.000001
1.000001
1.000001
1.000001
1.000001
1.000001
1.000001
1.000001
1.000001
1.000001
1.000001
1.000001
0.999997
1.000001
0.999999
1.000001
1.000002
1.000001
1.000001
1.000001
1.000001
1.000001
1.000001
1.000001
1.000001
1.000001
1.000001
1.000001
1.000001
1.000001
1.000001
1.000001
1.000001
1.000001
1.000001
1.000001
1.000001
0.999995
0.999979
0.999986
0.999997
1.000001
0.999999
1.000001
1.000001
1.000001
1.000001
1.000001
1.000001
1.000001
1.000001
1.000001
1.000001
1.000001
1.000001
1.000001
1.000001
1.000001
1.000001
0.999999
1.000001
0.999970
0.999984
0.999969
0.999982
0.999995
1.000002
1.000001
1.000001
1.000001
1.000001
1.000001
1.000001
1.000001
1.000001
1.000001
1.000001
1.000001
1.000001
1.000001
1.000001
0.999995
0.999969
0.999978
0.999969
0.999981
0.999998
1.000001
1.000001
1.000001
1.000001
1.000001
1.000001
1.000001
1.000001
1.000001
1.000001
1.000001
1.000001
1.000001
1.000001
0.999994
0.999978
0.999984
0.999994
1.000001
1.000001
1.000001
1.000001
1.000001
1.000001
1.000001
1.000001
1.000001
1.000001
1.000001
1.000001
1.000000
1.000001
0.999999
0.999996
1.000001
1.000001
1.000001
1.000001
1.000001
1.000001
1.000001
1.000001
1.000001
1.000001
1.000001
1.000001
1.000001
1.000001
1.000001
1.000001
1.000001
1.000001
1.000001
1.000001
1.000001
1.000001
1.000001
1.000001
1.000001
1.000001
1.000001
1.000001
1.000001
1.000001
1.000001
1.000001
1.000001
1.000001
1.000001
1.000001
1.000001
1.000001
1.000001
1.000001
1.000001
1.000001
1.000001
1.000001
1.000001
1.000001
1.000001
1.000001
1.000001
1.000001
1.000001
1.000001
1.000001
1.000001
1.000001
1.000001
1.000001
1.000001
1.000001
1.000001
1.000001
1.000001
1.000001
1.000001
1.000001
1.000001
1.000001
1.000001
1.000001
1.000001
1.000001
1.000001
1.000001
1.000001
1.000001
1.000001
1.000001
1.000001
1.000001
1.000001
1.000001
1.000001
1.000001
1.000001
1.000001
1.000001
1.000001
VECTORS fa_u float
0.000000 0.000000 0.000000
0.000000 0.000000 0.000000
0.000000 0.000000 0.000000
0.000000 0.000000 0.000000
0.000000 0.000000 0.000000
0.000000 0.000000 0.000000
0.000000 0.000000 0.000000
0.000000 0.000000 0.000000
0.000000 0.000000 0.000000
0.000000 0.000000 0.000000
0.000000 0.000000 0.000000
0.000000 0.000000 0.000000
0.000000 0.000000 0.000000
0.000000 0.000000 0.000000
0.000000 0.000000 0.000000
0.000000 0.000000 0.000000
0.000000 0.000000 0.000000
0.000000 0.000000 0.000000
0.000000 0.000000 0.000000
0.000000 0.000000 0.000000
0.000000 0.000000 0.000000
0.000000 0.000000 0.000000
0.000000 0.000000 0.000000
0.000000 0.000000 0.000000
0.000000 0.000000 0.000000
0.000000 0.000000 0.000000
0.000000 0.000000 0.000000
0.000000 0.000000 0.000000
0.000000 0.000000 0.000000
0.000000 0.000000 0.000000
0.000000 0.000000 0.000000
0.000000 0.000000 0.000000
0.000000 0.000000 0.000000
0.000000 0.000000 0.000000
0.000000 0.000000 0.000000
0.000000 0.000000 0.000000
0.000000 0.000000 0.000000
0.000000 0.000000 0.000000
0.000000 0.000000 0.000000
0.000000 0.000000 0.000000
0.000000 0.000000 0.000000
0.000000 0.000000 0.000000
0.000000 0.000000 0.000000
0.000000 0.000000 0.000000
0.000000 0.000000 0.000000
0.000000 0.000000 0.000000
0.000000 0.000000 0.000000
0.000000 0.000000 0.000000
0.000000 0.000000 0.000000
0.000000 0.000000 0.000000
0.000000 0.000000 0.000000
0.000000 0.000000 0.000000
0.000000 0.000000 0.000000
0.000000 0.000000 0.000000
0.000000 0.000000 0.000000
0.000000 0.000000 0.000000
0.000000 0.000000 0.000000
0.000000 0.000000 0.000000
0.000000 0.000000 0.000000
0.000000 0.000000 0.000000
0.000000 0.000000 0.000000
0.000000 0.000000 0.000000
0.000000 0.000000 0.000000
0.000000 0.000000 0.000000
0.000000 0.000000 0.000000
0.000000 0.000000 0.000000
0.000000 0.000000 0.000000
0.000000 0.000000 0.000000
0.000000 0.000000 0.000000
0.000000 0.000000 0.000000
0.000000 0.000000 0.000000
0.000000 0.000000 0.000000
0.000000 0.000000 0.000000
0.000000 0.000000 0.000000
0.000000 0.000000 0.000000
0.000000 0.000000 0.000000
0.000000 0.000000 0.000000
0.000000 0.000000 0.000000
0.000000 0.000000 0.000000
0.000000 0.000000 0.000000
0.000000 0.000000 0.000000
0.000000 0.000000 0.000000
0.000000 0.000000 0.000000
0.000000 0.000000 0.000000
0.000000 0.000000 0.000000
0.000000 0.000000 0.000000
0.000000 0.000000 0.000000
0.000000 0.000000 0.000000
0.000000 0.000000 0.000000
0.000000 0.000000 0.000000
0.000000 0.000000 0.000000
0.000000 0.000000 0.000000
0.000000 0.000000 0.000000
0.000000 0.000000 0.000000
0.000000 0.000000 0.000000
0.000000 0.000000 0.000000
0.000000 0.000000 0.000000
0.000000 0.000000 0.000000
0.000000 0.000000 0.000000
0.000000 0.000000 0.000000
0.000000 0.000000 0.000000
0.000000 0.000000 0.000000
0.000000 0.000000 0.000000
0.000000 0.000000 0.000000
0.000000 0.000000 0.000000
0.000000 0.000000 0.000000
0.000000 0.000000 0.000000
0.000000 0.000000 0.000000
0.000000 0.000000 0.000000
0.000000 0.000000 0.000000
0.000000 0.000000 0.000000
0.000000 0.000000 0.000000
0.000000 0.000000 0.000000
0.000000 0.000000 0.000000
0.000000 0.000000 0.000000
0.000000 0.000000 0.000000
0.000000 0.000000 0.000000
0.000000 0.000000 0.000000
0.000000 0.000000 0.000000
0.000000 0.000000 0.000000
0.000000 0.000000 0.000000
0.000000 0.000000 0.000000
0.000000 0.000000 0.000000
0.000000 0.000000 0.000000
0.000000 0.000000 0.000000
0.000000 0.000000 0.000000
0.000000 0.000000 0.000000
0.000000 0.000000 0.000000
0.000000 0.000000 0.000000
0.000000 0.000000 0.000000
0.000000 0.000000 0.000000
0.000000 0.000000 0.000000
0.000000 0.000000 0.000000
0.000000 0.000000 0.000000
0.000000 0.000000 0.000000
0.000000 0.000000 0.000000
0.000000 0.000000 0.000000
0.000000 0.000000 0.000000
0.000000 0.000000 0.000000
0.000000 0.000000 0.000000
0.000000 0.000000 0.000000
0.000000 0.000000 0.000000
0.000000 0.000000 0.000000
0.000000 0.000000 0.000000
0.000000 0.000000 0.000000
0.000000 0.000000 0.000000
0.000000 0.000000 0.000000
0.000000 0.000000 0.000000
0.000000 0.000000 0.000000
0.000000 0.000000 0.000000
0.000000 0.000000 0.000000
0.000000 0.000000 0.000000
0.000000 0.000000 0.000000
0.000000 0.000000 0.000000
0.000000 0.000000 0.000000
0.000000 0.000000 0.000000
0.000000 0.000000 0.000000
0.000000 0.000000 0.000000
0.000000 0.000000 0.000000
0.000000 0.000000 0.000000
0.000000 0.000000 0.000000
0.000000 0.000000 0.000000
0.000000 0.000000 0.000000
0.000000 0.000000 0.000000
0.000000 0.000000 0.000000
0.000000 0.000000 0.000000
0.000000 0.000000 0.000000
0.000000 0.000000 0.000000
0.000000 0.000000 0.000000
0.000000 0.000000 0.000000
0.000000 0.000000 0.000000
0.000000 0.000000 0.000000
0.000000 0.000000 0.000000
0.000000 0.000000 0.000000
0.000000 0.000000 0.000000
0.000000 0.000000 0.000000
0.000000 0.000000 0.000000
0.000000 0.000000 0.000000
0.000000 0.000000 0.000000
0.000000 0.000000 0.000000
0.000000 0.000000 0.000000
0.000000 0.000000 0.000000
0.000000 0.000000 0.000000
0.000000 0.000000 0.000000
0.000000 0.000000 0.000000
0.000000 0.000000 0.000000
0.000000 0.000000 0.000000
0.000000 0.000000 0.000000
0.000000 0.000000 0.000000
0.000000 0.000000 0.000000
0.000000 0.000000 0.000000
0.000000 0.000000 0.000000
0.000000 0.000000 0.000000
0.000000 0.000000 0.000000
0.000000 0.000000 0.000000
0.000000 0.000000 0.000000
0.000000 0.000000 0.000000
0.000000 0.000000 0.000000
0.000000 0.000000 0.000000
0.000000 0.000000 0.000000
0.000000 0.000000 0.000000
0.000000 0.000000 0.000000
0.000000 0.000000 0.000000
0.000000 0.000000 0.000000
0.000000 0.000000 0.000000
0.000000 0.000000 0.000000
0.000000 0.000000 0.000000
0.000000 0.000000 0.000000
0.000000 0.000000 0.000000
0.000000 0.000000 0.000000
0.000000 0.000000 0.000000
0.000000 0.000000 0.000000
0.000000 0.000000 0.000000
0.000000 0.000000 0.000000
0.000000 0.000000 0.000000
0.000000 0.000000 0.000000
0.000000 0.000000 0.000000
0.000000 0.000000 0.000000
0.000000 0.000000 0.000000
0.000000 0.000000 0.000000
0.000000 0.000000 0.000000
0.000000 0.000000 0.000000
0.000000 0.000000 0.000000
0.000000 0.000000 0.000000
0.000000 0.000000 0.000000
0.000000 0.000000 0.000000
0.000000 0.000000 0.000000
0.000000 0.000000 0.000000
0.000000 0.000000 0.000000
0.000000 0.000000 0.000000
0.000000 0.000000 0.000000
0.000000 0.000000 0.000000
0.000000 0.000000 0.000000
0.000000 0.000000 0.000000
0.000000 0.000000 0.000000
0.000000 0.000000 0.000000
0.000000 0.000000 0.000000
0.000000 0.000000 0.000000
0.000000 0.000000 0.000000
0.000000 0.000000 0.000000
0.000000 0.000000 0.000000
0.000000 0.000000 0.000000
0.000000 0.000000 0.000000
0.000000 0.000000 0.000000
0.000000 0.000000 0.000000
0.000000 0.000000 0.000000
0.000000 0.000000 0.000000
0.000000 0.000000 0.000000
0.000000 0.000000 0.000000
0.000000 0.000000 0.000000
0.000000 0.000000 0.000000
0.000000 0.000000 0.000000
0.000000 0.000000 0.000000
0.000000 0.000000 0.000000
0.000000 0.000000 0.000000
0.000000 0.000000 0.000000
0.000000 0.000000 0.000000
0.000000 0.000000 0.000000
0.000000 0.000000 0.000000
0.000000 0.000000 0.000000
0.000000 0.000000 0.000000
0.000000 0.000000 0.000000
0.000000 0.000000 0.000000
0.000000 0.000000 0.000000
0.000000 0.000000 0.000000
0.000000 0.000000 0.000000
0.000000 0.000000 0.000000
0.000000 0.000000 0.000000
0.000000 0.000000 0.000000
0.000000 0.000000 0.000000
0.000000 0.000000 0.000000
0.000000 0.000000 0.000000
0.000000 0.000000 0.000000
0.000000 0.000000 0.000000
0.000000 0.000000 0.000000
0.000000 0.000000 0.000000
0.000000 0.000000 0.000000
0.000000 0.000000 0.000000
0.000000 0.000000 0.000000
0.000000 0.000000 0.000000
0.000000 0.000000 0.000000
0.000000 0.000000 0.000000
0.000000 0.000000 0.000000
0.000000 0.000000 0.000000
0.000000 0.000000 0.000000
0.000000 0.000000 0.000000
0.000000 0.000000 0.000000
0.000000 0.000000 0.000000
0.000000 0.000000 0.000000
0.000000 0.000000 0.000000
0.000000 0.000000 0.000000
0.000000 0.000000 0.000000
0.000000 0.000000 0.000000
0.000000 0.000000 0.000000
0.000000 0.000000 0.000000
0.000000 0.000000 0.000000
0.000000 0.000000 -50.000000
-50.000000 0.000000 -50.000000
-43.332770 0.000000 -45.688460
-45.491207 0.000000 -43.332686
-50.000000 0.000000 -50.000000
-36.665508 0.000000 -36.665533
-50.000000 0.000000 -45.081198
-39.969827 0.000000 -40.027303
-44.152336 0.000000 -29.998336
-50.000000 0.000000 -50.000000
-29.998299 0.000000 -44.847164
-33.448949 0.000000 -33.145005
-44.675750 0.000000 -39.869223
-36.787033 0.000000 -35.128773
-39.801382 0.000000 -23.331363
-50.000000 0.000000 -26.539253
-44.666771 0.000000 -50.000000
-23.331343 0.000000 -44.665303
-26.803971 0.000000 -39.364309
-30.225725 0.000000 -29.606405
-39.359422 0.000000 -33.368368
-33.655515 0.000000 -50.000000
-16.664752 0.000000 -16.664809
-50.000000 0.000000 -9.998685
