# vtk DataFile Version 2.0
CellBP Time: 9.96
ASCII
DATASET UNSTRUCTURED_GRID
POINTS 320 double
-50.000000 -50.000000 0.000000
-50.000000 -43.332159 0.000000
-45.688679 -45.491387 0.000000
-43.331998 -50.000000 0.000000
-50.000000 -36.664248 0.000000
-36.664331 -50.000000 0.000000
-45.081434 -39.969952 0.000000
-40.027648 -44.152523 0.000000
-29.996581 -50.000000 0.000000
-50.000000 -29.996452 0.000000
-44.847395 -33.449056 0.000000
-33.145283 -44.675953 0.000000
-39.869518 -36.787169 0.000000
-35.129129 -39.801630 0.000000
-23.329300 -50.000000 0.000000
-26.539555 -44.666866 0.000000
-50.000000 -23.329189 0.000000
-44.665400 -26.804121 0.000000
-39.364526 -30.225874 0.000000
-29.606810 -39.359617 0.000000
-33.368776 -33.655743 0.000000
-50.000000 -16.662694 0.000000
-16.662886 -50.000000 0.000000
-9.997348 -50.000000 0.000000
-19.965361 -44.588700 0.000000
-23.216293 -39.114769 0.000000
-44.691805 -20.097108 0.000000
-39.367961 -23.528206 0.000000
-34.106457 -26.937151 0.000000
-26.384935 -33.577624 0.000000
-29.156724 -28.926932 0.000000
-50.000000 -9.996866 0.000000
-44.666288 -13.410353 0.000000
-50.000000 -3.331876 0.000000
-3.332520 -50.000000 0.000000
3.332141 -50.000000 0.000000
-13.344154 -44.598850 0.000000
-6.685033 -44.610438 0.000000
-16.694079 -39.153062 0.000000
-20.107252 -33.342600 0.000000
-39.338095 -16.804575 0.000000
-34.019097 -20.274460 0.000000
-28.781526 -23.449286 0.000000
-23.510917 -27.351169 0.000000
-44.635249 -6.705488 0.000000
-39.293124 -10.101661 0.000000
-50.000000 3.332687 0.000000
-44.626461 -0.015312 0.000000
9.997170 -50.000000 0.000000
16.662900 -50.000000 0.000000
-0.016210 -44.618544 0.000000
6.651813 -44.635317 0.000000
-10.045042 -39.222491 0.000000
-3.368342 -39.220157 0.000000
-13.484395 -33.798351 0.000000
-16.708755 -28.271601 0.000000
-33.947896 -13.513309 0.000000
-28.602934 -16.891901 0.000000
-23.293020 -20.313396 0.000000
-18.661203 -23.284970 0.000000
-39.267286 -3.392516 0.000000
-33.904463 -6.796692 0.000000
-50.000000 9.997419 0.000000
-44.606451 6.673915 0.000000
-39.260559 3.325886 0.000000
-50.000000 16.662929 0.000000
23.329340 -50.000000 0.000000
29.996498 -50.000000 0.000000
13.317872 -44.662917 0.000000
19.990037 -44.700091 0.000000
3.307609 -39.245094 0.000000
9.971905 -39.290402 0.000000
-6.735819 -33.791333 0.000000
-0.032149 -33.829396 0.000000
-10.096096 -28.292077 0.000000
-13.122686 -22.895420 0.000000
-28.531162 -10.213884 0.000000
-23.068104 -13.663862 0.000000
-16.979620 -17.213336 0.000000
-33.884042 -0.065484 0.000000
-28.562620 -3.580472 0.000000
-44.563910 13.381132 0.000000
-39.189800 10.015318 0.000000
-33.905370 6.616119 0.000000
-50.000000 23.329112 0.000000
-44.557252 20.138719 0.000000
-50.000000 29.996605 0.000000
36.664185 -50.000000 0.000000
43.332046 -50.000000 0.000000
26.663630 -44.745419 0.000000
33.315578 -44.876202 0.000000
16.631776 -39.357681 0.000000
23.328482 -39.437217 0.000000
6.642992 -33.879631 0.000000
13.290430 -33.965440 0.000000
-3.346624 -28.363943 0.000000
3.358604 -28.451197 0.000000
-6.626487 -22.844562 0.000000
-9.960491 -17.315235 0.000000
-23.179303 -7.014020 0.000000
-17.814541 -10.334913 0.000000
-12.837848 -12.612438 0.000000
-28.607270 3.088755 0.000000
-23.267088 -0.470300 0.000000
-39.038309 16.746369 0.000000
-28.719815 9.925681 0.000000
-33.760583 13.317909 0.000000
-44.521726 26.717482 0.000000
-38.467802 23.892861 0.000000
-44.632874 33.086145 0.000000
-50.000000 36.664780 0.000000
-50.000000 43.332343 0.000000
39.922619 -45.069825 0.000000
45.474998 -45.660716 0.000000
50.000000 -50.000000 0.000000
36.626995 -39.982157 0.000000
30.012650 -39.458787 0.000000
19.904225 -34.093061 0.000000
26.585192 -34.319711 0.000000
9.988353 -28.512540 0.000000
16.610447 -28.660645 0.000000
0.049986 -22.964155 0.000000
6.812008 -23.154508 0.000000
-3.397482 -17.296962 0.000000
-6.792892 -10.867491 0.000000
-17.872815 -3.810748 0.000000
-12.547530 -7.033149 0.000000
-23.307706 6.068767 0.000000
-18.033251 2.435381 0.000000
-23.124076 12.096469 0.000000
-33.572177 19.788980 0.000000
-27.941870 16.886617 0.000000
-33.293423 24.723182 0.000000
-39.474239 30.053545 0.000000
-35.161114 28.137993 0.000000
-39.816676 35.101956 0.000000
-43.992046 39.982865 0.000000
-45.431213 45.685578 0.000000
-50.000000 50.000000 0.000000
44.117517 -39.899382 0.000000
50.000000 -43.331619 0.000000
39.639715 -35.047679 0.000000
33.463092 -33.424769 0.000000
22.985066 -28.818314 0.000000
28.731150 -29.248030 0.000000
13.460843 -23.121929 0.000000
20.055008 -23.440074 0.000000
3.361707 -17.591534 0.000000
10.122053 -17.844032 0.000000
0.170400 -11.766869 0.000000
-2.121557 -6.148765 0.000000
-7.134275 -3.549544 0.000000
-12.422366 -0.808766 0.000000
-18.175511 8.573220 0.000000
-12.931520 5.196602 0.000000
-18.637701 13.750813 0.000000
-21.503525 17.493884 0.000000
-28.941232 23.159564 0.000000
-24.346523 21.554167 0.000000
-30.324196 28.635364 0.000000
-34.254024 33.375778 0.000000
-36.956228 39.578236 0.000000
-39.838805 45.103041 0.000000
-43.331984 50.000000 0.000000
44.585483 -32.972354 0.000000
50.000000 -36.663753 0.000000
39.129441 -29.582144 0.000000
33.500803 -26.367839 0.000000
27.183422 -23.322134 0.000000
23.067694 -18.648043 0.000000
16.993120 -16.982897 0.000000
6.696473 -12.188836 0.000000
12.376215 -12.738041 0.000000
-3.362031 -1.482962 0.000000
3.778354 -6.751120 0.000000
1.023787 -2.120633 0.000000
-6.842066 2.260969 0.000000
-8.225691 7.641112 0.000000
-12.840844 11.927369 0.000000
-15.690129 17.698687 0.000000
-19.287554 22.981074 0.000000
-24.171029 27.354303 0.000000
-27.286467 33.625747 0.000000
-30.406862 39.160989 0.000000
-33.448039 44.738901 0.000000
-36.664043 50.000000 0.000000
44.547775 -26.500243 0.000000
50.000000 -29.995958 0.000000
39.040023 -23.179397 0.000000
33.449505 -19.900003 0.000000
28.039606 -16.573123 0.000000
22.679061 -13.123531 0.000000
17.175886 -9.898317 0.000000
10.763843 -6.570720 0.000000
-1.360439 2.322413 0.000000
6.124528 -1.707692 0.000000
2.885219 1.591226 0.000000
-3.441529 6.964906 0.000000
-6.314131 12.425405 0.000000
-9.629262 17.713545 0.000000
-13.168276 23.115106 0.000000
-17.317033 28.185061 0.000000
-20.571168 33.474146 0.000000
-23.666231 39.063882 0.000000
-26.831389 44.585338 0.000000
-29.996565 50.000000 0.000000
44.528622 -19.931042 0.000000
50.000000 -23.328743 0.000000
39.036100 -16.594262 0.000000
33.575702 -13.281257 0.000000
28.148837 -9.965139 0.000000
22.724465 -6.604783 0.000000
17.265219 -3.334372 0.000000
11.775301 0.219112 0.000000
1.905197 6.188940 0.000000
6.778887 3.696172 0.000000
-0.228504 11.743955 0.000000
-3.244642 17.531864 0.000000
-6.698496 22.976074 0.000000
-10.566904 28.267148 0.000000
-13.724391 33.660821 0.000000
-16.946041 39.080067 0.000000
-20.141157 44.548309 0.000000
-23.329548 50.000000 0.000000
44.536095 -13.304174 0.000000
50.000000 -16.662378 0.000000
39.079720 -9.966942 0.000000
33.646509 -6.641518 0.000000
28.236870 -3.308213 0.000000
22.850643 0.017273 0.000000
17.538695 3.338163 0.000000
12.176749 6.579594 0.000000
6.647535 10.676438 0.000000
3.302733 17.200708 0.000000
-0.080365 22.855377 0.000000
-3.519230 28.313274 0.000000
-6.831849 33.774734 0.000000
-10.137918 39.170492 0.000000
-13.436367 44.563413 0.000000
-16.663256 50.000000 0.000000
44.554057 -6.655049 0.000000
50.000000 -9.996956 0.000000
39.123119 -3.321477 0.000000
33.713276 0.008852 0.000000
28.333344 3.345426 0.000000
22.998761 6.693952 0.000000
17.834920 10.017864 0.000000
12.658957 12.246733 0.000000
9.783029 17.232356 0.000000
6.480114 22.722392 0.000000
3.189624 28.270507 0.000000
-0.116069 33.734988 0.000000
-3.425388 39.168736 0.000000
-6.725890 44.581689 0.000000
-9.997625 50.000000 0.000000
44.575435 0.001785 0.000000
50.000000 -3.332278 0.000000
39.166883 3.331821 0.000000
33.779575 6.655698 0.000000
28.423746 9.994670 0.000000
23.046535 13.416094 0.000000
16.951492 17.024781 0.000000
12.901560 22.666422 0.000000
9.815654 28.231569 0.000000
6.604495 33.718828 0.000000
3.286562 39.164436 0.000000
-0.029982 44.584467 0.000000
-3.332527 50.000000 0.000000
44.586629 6.665717 0.000000
50.000000 3.332301 0.000000
39.198237 9.982092 0.000000
33.843523 13.276880 0.000000
28.542496 16.584213 0.000000
23.387911 20.084238 0.000000
18.532052 23.113711 0.000000
16.392425 28.298416 0.000000
13.329104 33.754718 0.000000
9.986792 39.181940 0.000000
6.666210 44.584195 0.000000
3.332390 50.000000 0.000000
44.608874 13.318403 0.000000
50.000000 9.997333 0.000000
39.251395 16.612667 0.000000
33.932092 19.862925 0.000000
28.612642 22.925998 0.000000
23.279700 27.207853 0.000000
19.901464 33.302784 0.000000
16.574196 39.040793 0.000000
13.268822 44.526594 0.000000
9.997399 50.000000 0.000000
44.632061 19.973515 0.000000
50.000000 16.663073 0.000000
39.298577 23.262442 0.000000
34.043999 26.514940 0.000000
28.966037 28.539518 0.000000
26.202649 33.410198 0.000000
23.067034 38.968784 0.000000
19.889088 44.507004 0.000000
16.662893 50.000000 0.000000
44.639916 26.643405 0.000000
50.000000 23.329490 0.000000
39.293550 29.967051 0.000000
33.212667 33.371511 0.000000
29.412507 39.045969 0.000000
26.422838 44.506018 0.000000
23.329214 50.000000 0.000000
44.775221 33.292158 0.000000
50.000000 29.996593 0.000000
39.738397 36.596566 0.000000
34.831376 39.525933 0.000000
32.834199 44.514537 0.000000
29.996300 50.000000 0.000000
44.978494 39.878156 0.000000
50.000000 36.664221 0.000000
39.735312 43.969326 0.000000
36.663965 50.000000 0.000000
45.621593 45.410128 0.000000
50.000000 43.332046 0.000000
43.331720 50.000000 0.000000
50.000000 50.000000 0.000000
CELLS 578 2312
3 1 0 2
3 0 3 2
3 4 1 6
3 6 1 2
3 3 5 7
3 3 7 2
3 6 2 7
3 9 4 10
3 10 4 6
3 5 8 11
3 7 5 11
3 10 6 12
3 12 6 7
3 7 11 13
3 7 13 12
3 8 14 15
3 11 8 15
3 16 9 17
3 17 9 10
3 17 10 18
3 18 10 12
3 11 15 19
3 13 11 19
3 18 12 20
3 13 19 20
3 20 12 13
3 14 22 24
3 15 14 24
3 15 24 25
3 19 15 25
3 21 16 26
3 26 16 17
3 26 17 27
3 27 17 18
3 27 18 28
3 28 18 20
3 19 25 29
3 19 29 20
3 28 20 30
3 30 20 29
3 31 21 32
3 32 21 26
3 22 23 36
3 24 22 36
3 23 34 37
3 36 23 37
3 24 36 38
3 25 24 38
3 25 38 39
3 29 25 39
3 32 26 40
3 40 26 27
3 40 27 41
3 41 27 28
3 41 28 42
3 42 28 30
3 29 39 43
3 29 43 30
3 42 30 43
3 33 31 44
3 44 31 32
3 44 32 45
3 45 32 40
3 46 33 47
3 47 33 44
3 34 35 50
3 37 34 50
3 35 48 51
3 50 35 51
3 36 37 52
3 38 36 52
3 37 50 53
3 52 37 53
3 38 52 54
3 39 38 54
3 39 54 55
3 43 39 55
3 45 40 56
3 56 40 41
3 56 41 57
3 57 41 42
3 57 42 58
3 58 42 43
3 43 55 59
3 43 59 58
3 47 44 60
3 60 44 45
3 60 45 61
3 61 45 56
3 62 46 63
3 63 46 47
3 63 47 64
3 64 47 60
3 48 49 68
3 51 48 68
3 49 66 69
3 68 49 69
3 50 51 70
3 53 50 70
3 51 68 71
3 70 51 71
3 52 53 72
3 54 52 72
3 53 70 73
3 72 53 73
3 54 72 74
3 55 54 74
3 55 74 75
3 59 55 75
3 61 56 76
3 76 56 57
3 76 57 77
3 77 57 58
3 77 58 78
3 59 75 78
3 78 58 59
3 64 60 79
3 79 60 61
3 79 61 80
3 80 61 76
3 65 62 81
3 81 62 63
3 81 63 82
3 82 63 64
3 82 64 83
3 83 64 79
3 84 65 85
3 85 65 81
3 66 67 89
3 69 66 89
3 67 87 90
3 89 67 90
3 68 69 91
3 71 68 91
3 69 89 92
3 91 69 92
3 70 71 93
3 73 70 93
3 71 91 94
3 93 71 94
3 72 73 95
3 74 72 95
3 73 93 96
3 95 73 96
3 74 95 97
3 75 74 97
3 75 97 98
3 78 75 98
3 80 76 99
3 99 76 77
3 99 77 100
3 100 77 78
3 100 78 101
3 98 101 78
3 83 79 102
3 102 79 80
3 102 80 103
3 103 80 99
3 85 81 104
3 104 81 82
3 105 83 102
3 104 82 106
3 106 82 83
3 106 83 105
3 86 84 107
3 107 84 85
3 107 85 108
3 108 85 104
3 109 86 107
3 110 86 109
3 87 88 112
3 90 87 112
3 112 88 113
3 88 114 113
3 90 112 115
3 89 90 116
3 92 89 116
3 116 90 115
3 91 92 117
3 94 91 117
3 92 116 118
3 117 92 118
3 93 94 119
3 96 93 119
3 94 117 120
3 119 94 120
3 95 96 121
3 97 95 121
3 96 119 122
3 121 96 122
3 97 121 123
3 98 97 123
3 98 123 124
3 98 124 101
3 103 99 125
3 125 99 100
3 125 100 126
3 126 100 101
3 126 101 124
3 105 102 127
3 127 102 103
3 127 103 128
3 128 103 125
3 129 105 127
3 108 104 130
3 130 104 106
3 130 106 131
3 131 106 105
3 131 105 129
3 108 130 132
3 109 107 133
3 133 107 108
3 133 108 134
3 108 132 134
3 135 109 133
3 111 110 136
3 136 110 109
3 136 109 135
3 137 111 136
3 138 111 137
3 112 113 139
3 115 112 139
3 114 140 113
3 140 139 113
3 139 141 115
3 116 115 142
3 118 116 142
3 142 115 141
3 117 118 143
3 120 117 143
3 118 142 144
3 143 118 144
3 119 120 145
3 122 119 145
3 120 143 146
3 145 120 146
3 121 122 147
3 123 121 147
3 122 145 148
3 147 122 148
3 123 147 149
3 124 123 149
3 124 149 150
3 151 126 124
3 124 150 151
3 128 125 152
3 152 125 126
3 152 126 151
3 129 127 153
3 153 127 128
3 128 152 154
3 153 128 154
3 155 129 153
3 131 129 156
3 156 129 155
3 132 130 157
3 130 131 157
3 157 131 158
3 131 156 158
3 132 157 159
3 132 159 134
3 135 133 160
3 160 133 134
3 160 134 159
3 136 135 161
3 135 160 161
3 162 137 136
3 161 162 136
3 163 138 137
3 162 163 137
3 139 164 141
3 140 165 139
3 139 165 164
3 141 164 166
3 141 166 142
3 166 167 142
3 144 142 167
3 167 168 144
3 143 144 168
3 146 143 168
3 168 169 146
3 145 146 170
3 148 145 170
3 170 146 169
3 147 148 171
3 149 147 171
3 148 170 172
3 171 148 172
3 173 151 150
3 149 171 174
3 150 149 174
3 150 174 175
3 150 175 173
3 154 152 176
3 152 151 176
3 176 151 173
3 154 176 177
3 155 153 178
3 177 178 154
3 154 178 153
3 156 155 179
3 155 178 179
3 180 158 156
3 179 180 156
3 181 159 157
3 180 181 158
3 181 157 158
3 182 160 159
3 181 182 159
3 183 161 160
3 182 183 160
3 184 162 161
3 184 161 183
3 185 163 162
3 184 185 162
3 164 186 166
3 165 187 164
3 164 187 186
3 166 186 188
3 166 188 167
3 167 188 189
3 167 189 168
3 168 189 190
3 168 190 169
3 169 190 191
3 169 191 170
3 192 172 170
3 170 191 192
3 192 193 172
3 171 172 193
3 174 171 193
3 194 173 175
3 176 173 194
3 175 174 195
3 193 195 174
3 195 196 175
3 175 196 194
3 197 177 176
3 194 197 176
3 198 178 177
3 197 198 177
3 199 179 178
3 198 199 178
3 200 180 179
3 199 200 179
3 201 181 180
3 200 201 180
3 202 182 181
3 201 202 181
3 203 183 182
3 202 203 182
3 204 184 183
3 203 204 183
3 205 185 184
3 204 205 184
3 186 206 188
3 187 207 186
3 186 207 206
3 188 206 208
3 188 208 189
3 189 208 209
3 189 209 190
3 190 209 210
3 190 210 191
3 191 210 211
3 191 211 192
3 192 211 212
3 192 212 193
3 193 212 213
3 193 213 195
3 214 197 194
3 214 194 196
3 195 213 215
3 195 215 196
3 196 215 214
3 216 198 197
3 214 216 197
3 217 199 198
3 216 217 198
3 218 200 199
3 217 218 199
3 219 201 200
3 218 219 200
3 220 202 201
3 219 220 201
3 221 203 202
3 220 221 202
3 222 204 203
3 221 222 203
3 223 205 204
3 222 223 204
3 206 224 208
3 207 225 206
3 206 225 224
3 208 224 226
3 208 226 209
3 209 226 227
3 209 227 210
3 210 227 228
3 210 228 211
3 211 228 229
3 211 229 212
3 212 229 230
3 212 230 213
3 213 230 231
3 213 231 215
3 232 216 214
3 215 231 232
3 232 214 215
3 233 217 216
3 232 233 216
3 234 218 217
3 233 234 217
3 235 219 218
3 234 235 218
3 236 220 219
3 235 236 219
3 237 221 220
3 236 237 220
3 238 222 221
3 237 238 221
3 239 223 222
3 238 239 222
3 224 240 226
3 225 241 224
3 224 241 240
3 226 240 242
3 226 242 227
3 227 242 243
3 227 243 228
3 228 243 244
3 228 244 229
3 244 245 229
3 229 245 230
3 230 245 246
3 230 246 231
3 231 246 247
3 231 247 232
3 248 233 232
3 248 232 247
3 249 234 233
3 248 249 233
3 250 235 234
3 249 250 234
3 251 236 235
3 250 251 235
3 252 237 236
3 251 252 236
3 253 238 237
3 252 253 237
3 254 239 238
3 253 254 238
3 240 255 242
3 241 256 240
3 240 256 255
3 242 255 257
3 242 257 243
3 243 257 258
3 243 258 244
3 244 258 259
3 244 259 245
3 245 259 260
3 245 260 246
3 246 260 261
3 246 261 247
3 248 247 261
3 262 249 248
3 261 262 248
3 263 250 249
3 262 263 249
3 264 251 250
3 263 264 250
3 265 252 251
3 264 265 251
3 266 253 252
3 265 266 252
3 267 254 253
3 266 267 253
3 255 268 257
3 256 269 255
3 255 269 268
3 257 268 270
3 257 270 258
3 258 270 271
3 258 271 259
3 259 271 272
3 259 272 260
3 260 272 273
3 260 273 261
3 274 262 261
3 261 273 274
3 275 263 262
3 274 275 262
3 276 264 263
3 275 276 263
3 277 265 264
3 276 277 264
3 278 266 265
3 277 278 265
3 279 267 266
3 278 279 266
3 268 280 270
3 269 281 268
3 268 281 280
3 270 280 282
3 270 282 271
3 271 282 283
3 271 283 272
3 283 284 272
3 272 284 273
3 285 275 274
3 273 284 285
3 285 274 273
3 286 276 275
3 285 286 275
3 287 277 276
3 286 287 276
3 288 278 277
3 287 288 277
3 289 279 278
3 288 289 278
3 280 290 282
3 281 291 280
3 280 291 290
3 282 290 292
3 282 292 283
3 283 292 293
3 283 293 284
3 284 293 294
3 284 294 285
3 295 286 285
3 295 285 294
3 296 287 286
3 295 296 286
3 297 288 287
3 296 297 287
3 298 289 288
3 297 298 288
3 290 299 292
3 291 300 290
3 290 300 299
3 292 299 301
3 292 301 293
3 293 301 302
3 293 302 294
3 294 302 295
3 303 296 295
3 303 295 302
3 304 297 296
3 303 304 296
3 305 298 297
3 304 305 297
3 299 306 301
3 300 307 299
3 299 307 306
3 301 306 308
3 301 308 302
3 309 303 302
3 302 308 309
3 310 304 303
3 309 310 303
3 311 305 304
3 310 311 304
3 306 312 308
3 307 313 306
3 306 313 312
3 314 310 309
3 308 312 314
3 314 309 308
3 315 311 310
3 314 315 310
3 312 316 314
3 313 317 312
3 312 317 316
3 318 315 314
3 318 314 316
3 317 319 316
3 319 318 316
CELL_TYPES 578
5
5
5
5
5
5
5
5
5
5
5
5
5
5
5
5
5
5
5
5
5
5
5
5
5
5
5
5
5
5
5
5
5
5
5
5
5
5
5
5
5
5
5
5
5
5
5
5
5
5
5
5
5
5
5
5
5
5
5
5
5
5
5
5
5
5
5
5
5
5
5
5
5
5
5
5
5
5
5
5
5
5
5
5
5
5
5
5
5
5
5
5
5
5
5
5
5
5
5
5
5
5
5
5
5
5
5
5
5
5
5
5
5
5
5
5
5
5
5
5
5
5
5
5
5
5
5
5
5
5
5
5
5
5
5
5
5
5
5
5
5
5
5
5
5
5
5
5
5
5
5
5
5
5
5
5
5
5
5
5
5
5
5
5
5
5
5
5
5
5
5
5
5
5
5
5
5
5
5
5
5
5
5
5
5
5
5
5
5
5
5
5
5
5
5
5
5
5
5
5
5
5
5
5
5
5
5
5
5
5
5
5
5
5
5
5
5
5
5
5
5
5
5
5
5
5
5
5
5
5
5
5
5
5
5
5
5
5
5
5
5
5
5
5
5
5
5
5
5
5
5
5
5
5
5
5
5
5
5
5
5
5
5
5
5
5
5
5
5
5
5
5
5
5
5
5
5
5
5
5
5
5
5
5
5
5
5
5
5
5
5
5
5
5
5
5
5
5
5
5
5
5
5
5
5
5
5
5
5
5
5
5
5
5
5
5
5
5
5
5
5
5
5
5
5
5
5
5
5
5
5
5
5
5
5
5
5
5
5
5
5
5
5
5
5
5
5
5
5
5
5
5
5
5
5
5
5
5
5
5
5
5
5
5
5
5
5
5
5
5
5
5
5
5
5
5
5
5
5
5
5
5
5
5
5
5
5
5
5
5
5
5
5
5
5
5
5
5
5
5
5
5
5
5
5
5
5
5
5
5
5
5
5
5
5
5
5
5
5
5
5
5
5
5
5
5
5
5
5
5
5
5
5
5
5
5
5
5
5
5
5
5
5
5
5
5
5
5
5
5
5
5
5
5
5
5
5
5
5
5
5
5
5
5
5
5
5
5
5
5
5
5
5
5
5
5
5
5
5
5
5
5
5
5
5
5
5
5
5
5
5
5
5
5
5
5
5
5
5
5
5
5
5
5
5
5
5
5
5
5
5
5
5
5
5
5
5
5
5
5
5
5
5
5
5
5
5
5
5
5
5
5
5
5
5
5
5
5
5
5
5
5
5
5
5
5
5
5
5
5
5
5
5
5
5
5
5
5
5
5
5
5
5
5
5
5
5
5
5
5
5
5
5
5
5
5
5
5
POINT_DATA 320
SCALARS theta_e float 1
LOOKUP_TABLE default
1.000000
1.000000
1.000000
1.000000
1.000000
1.000000
1.000000
1.000000
1.000000
1.000000
1.000000
1.000000
1.000000
1.000000
1.000000
1.000000
1.000000
1.000000
1.000000
1.000000
1.000000
1.000000
1.000000
1.000000
1.000000
1.000000
1.000000
1.000000
1.000000
1.000000
1.000000
1.000000
1.000000
1.000000
1.000000
1.000000
1.000000
1.000000
1.000000
1.000000
1.000000
1.000000
1.000000
1.000000
1.000000
1.000000
1.000000
1.000000
1.000000
1.000000
1.000000
1.000000
1.000000
1.000000
1.000000
1.000000
1.000000
1.000000
1.000000
1.000000
1.000000
1.000000
1.000000
1.000000
1.000000
1.000000
1.000000
1.000000
1.000000
1.000000
1.000000
1.000000
1.000000
1.000000
1.000000
1.000000
1.000000
1.000000
1.000000
1.000000
1.000000
1.000000
1.000000
1.000000
1.000000
1.000000
1.000000
1.000000
1.000000
1.000000
1.000000
1.000000
1.000000
1.000000
1.000000
1.000000
1.000000
1.000000
1.000000
1.000000
1.000000
1.000000
1.000000
1.000000
1.000000
1.000000
1.000000
1.000000
1.000000
1.000000
1.000000
1.000000
1.000000
1.000000
1.000000
1.000000
1.000000
1.000000
1.000000
1.000000
1.000000
1.000000
1.000000
1.000000
0.999999
1.000000
1.000000
1.000000
1.000000
1.000000
1.000000
1.000000
1.000000
1.000000
1.000000
1.000000
1.000000
1.000000
1.000000
1.000000
1.000000
1.000000
1.000000
1.000000
1.000000
1.000000
1.000000
1.000000
1.000000
0.999998
0.999996
0.999998
1.000000
1.000000
1.000000
1.000000
1.000000
1.000000
1.000000
1.000000
1.000000
1.000000
1.000000
1.000000
1.000000
1.000000
1.000000
1.000000
1.000000
1.000000
1.000000
0.999999
1.000000
0.999995
0.999997
0.999996
0.999998
1.000000
1.000001
1.000000
1.000000
1.000000
1.000000
1.000000
1.000000
1.000000
1.000000
1.000000
1.000000
1.000000
1.000000
1.000000
1.000000
0.999999
0.999996
0.999997
0.999996
0.999998
1.000000
1.000000
1.000000
1.000000
1.000000
1.000000
1.000000
1.000000
1.000000
1.000000
1.000000
1.000000
1.000000
1.000000
1.000000
0.999999
0.999997
0.999998
1.000000
1.000000
1.000000
1.000000
1.000000
1.000000
1.000000
1.000000
1.000000
1.000000
1.000000
1.000000
1.000000
1.000000
1.000000
1.000000
0.999999
1.000000
1.000000
1.000000
1.000000
1.000000
1.000000
1.000000
1.000000
1.000000
1.000000
1.000000
1.000000
1.000000
1.000000
1.000000
1.000000
1.000000
1.000000
1.000000
1.000000
1.000000
1.000000
1.000000
1.000000
1.000000
1.000000
1.000000
1.000000
1.000000
1.000000
1.000000
1.000000
1.000000
1.000000
1.000000
1.000000
1.000000
1.000000
1.000000
1.000000
1.000000
1.000000
1.000000
1.000000
1.000000
1.000000
1.000000
1.000000
1.000000
1.000000
1.000000
1.000000
1.000000
1.000000
1.000000
1.000000
1.000000
1.000000
1.000000
1.000000
1.000000
1.000000
1.000000
1.000000
1.000000
1.000000
1.000000
1.000000
1.000000
1.000000
1.000000
1.000000
1.000000
1.000000
1.000000
1.000000
1.000000
1.000000
1.000000
1.000000
1.000000
1.000000
1.000000
1.000000
1.000000
1.000000
1.000000
VECTORS fa_u float
0.000000 0.000000 0.000000
0.000000 0.000000 0.000000
0.000000 0.000000 0.000000
0.000000 0.000000 0.000000
0.000000 0.000000 0.000000
0.000000 0.000000 0.000000
0.000000 0.000000 0.000000
0.000000 0.000000 0.000000
0.000000 0.000000 0.000000
0.000000 0.000000 0.000000
0.000000 0.000000 0.000000
0.000000 0.000000 0.000000
0.000000 0.000000 0.000000
0.000000 0.000000 0.000000
0.000000 0.000000 0.000000
0.000000 0.000000 0.000000
0.000000 0.000000 0.000000
0.000000 0.000000 0.000000
0.000000 0.000000 0.000000
0.000000 0.000000 0.000000
0.000000 0.000000 0.000000
0.000000 0.000000 0.000000
0.000000 0.000000 0.000000
0.000000 0.000000 0.000000
0.000000 0.000000 0.000000
0.000000 0.000000 0.000000
0.000000 0.000000 0.000000
0.000000 0.000000 0.000000
0.000000 0.000000 0.000000
0.000000 0.000000 0.000000
0.000000 0.000000 0.000000
0.000000 0.000000 0.000000
0.000000 0.000000 0.000000
0.000000 0.000000 0.000000
0.000000 0.000000 0.000000
0.000000 0.000000 0.000000
0.000000 0.000000 0.000000
0.000000 0.000000 0.000000
0.000000 0.000000 0.000000
0.000000 0.000000 0.000000
0.000000 0.000000 0.000000
0.000000 0.000000 0.000000
0.000000 0.000000 0.000000
0.000000 0.000000 0.000000
0.000000 0.000000 0.000000
0.000000 0.000000 0.000000
0.000000 0.000000 0.000000
0.000000 0.000000 0.000000
0.000000 0.000000 0.000000
0.000000 0.000000 0.000000
0.000000 0.000000 0.000000
0.000000 0.000000 0.000000
0.000000 0.000000 0.000000
0.000000 0.000000 0.000000
0.000000 0.000000 0.000000
0.000000 0.000000 0.000000
0.000000 0.000000 0.000000
0.000000 0.000000 0.000000
0.000000 0.000000 0.000000
0.000000 0.000000 0.000000
0.000000 0.000000 0.000000
0.000000 0.000000 0.000000
0.000000 0.000000 0.000000
0.000000 0.000000 0.000000
0.000000 0.000000 0.000000
0.000000 0.000000 0.000000
0.000000 0.000000 0.000000
0.000000 0.000000 0.000000
0.000000 0.000000 0.000000
0.000000 0.000000 0.000000
0.000000 0.000000 0.000000
0.000000 0.000000 0.000000
0.000000 0.000000 0.000000
0.000000 0.000000 0.000000
0.000000 0.000000 0.000000
0.000000 0.000000 0.000000
0.000000 0.000000 0.000000
0.000000 0.000000 0.000000
0.000000 0.000000 0.000000
0.000000 0.000000 0.000000
0.000000 0.000000 0.000000
0.000000 0.000000 0.000000
0.000000 0.000000 0.000000
0.000000 0.000000 0.000000
0.000000 0.000000 0.000000
0.000000 0.000000 0.000000
0.000000 0.000000 0.000000
0.000000 0.000000 0.000000
0.000000 0.000000 0.000000
0.000000 0.000000 0.000000
0.000000 0.000000 0.000000
0.000000 0.000000 0.000000
0.000000 0.000000 0.000000
0.000000 0.000000 0.000000
0.000000 0.000000 0.000000
0.000000 0.000000 0.000000
0.000000 0.000000 0.000000
0.000000 0.000000 0.000000
0.000000 0.000000 0.000000
0.000000 0.000000 0.000000
0.000000 0.000000 0.000000
0.000000 0.000000 0.000000
0.000000 0.000000 0.000000
0.000000 0.000000 0.000000
0.000000 0.000000 0.000000
0.000000 0.000000 0.000000
0.000000 0.000000 0.000000
0.000000 0.000000 0.000000
0.000000 0.000000 0.000000
0.000000 0.000000 0.000000
0.000000 0.000000 0.000000
0.000000 0.000000 0.000000
0.000000 0.000000 0.000000
0.000000 0.000000 0.000000
0.000000 0.000000 0.000000
0.000000 0.000000 0.000000
0.000000 0.000000 0.000000
0.000000 0.000000 0.000000
0.000000 0.000000 0.000000
0.000000 0.000000 0.000000
0.000000 0.000000 0.000000
0.000000 0.000000 0.000000
0.000000 0.000000 0.000000
0.000000 0.000000 0.000000
0.000000 0.000000 0.000000
0.000000 0.000000 0.000000
0.000000 0.000000 0.000000
0.000000 0.000000 0.000000
0.000000 0.000000 0.000000
0.000000 0.000000 0.000000
0.000000 0.000000 0.000000
0.000000 0.000000 0.000000
0.000000 0.000000 0.000000
0.000000 0.000000 0.000000
0.000000 0.000000 0.000000
0.000000 0.000000 0.000000
0.000000 0.000000 0.000000
0.000000 0.000000 0.000000
0.000000 0.000000 0.000000
0.000000 0.000000 0.000000
0.000000 0.000000 0.000000
0.000000 0.000000 0.000000
0.000000 0.000000 0.000000
0.000000 0.000000 0.000000
0.000000 0.000000 0.000000
0.000000 0.000000 0.000000
0.000000 0.000000 0.000000
0.000000 0.000000 0.000000
0.000000 0.000000 0.000000
0.000000 0.000000 0.000000
0.000000 0.000000 0.000000
0.000000 0.000000 0.000000
0.000000 0.000000 0.000000
0.000000 0.000000 0.000000
0.000000 0.000000 0.000000
0.000000 0.000000 0.000000
0.000000 0.000000 0.000000
0.000000 0.000000 0.000000
0.000000 0.000000 0.000000
0.000000 0.000000 0.000000
0.000000 0.000000 0.000000
0.000000 0.000000 0.000000
0.000000 0.000000 0.000000
0.000000 0.000000 0.000000
0.000000 0.000000 0.000000
0.000000 0.000000 0.000000
0.000000 0.000000 0.000000
0.000000 0.000000 0.000000
0.000000 0.000000 0.000000
0.000000 0.000000 0.000000
0.000000 0.000000 0.000000
0.000000 0.000000 0.000000
0.000000 0.000000 0.000000
0.000000 0.000000 0.000000
0.000000 0.000000 0.000000
0.000000 0.000000 0.000000
0.000000 0.000000 0.000000
0.000000 0.000000 0.000000
0.000000 0.000000 0.000000
0.000000 0.000000 0.000000
0.000000 0.000000 0.000000
0.000000 0.000000 0.000000
0.000000 0.000000 0.000000
0.000000 0.000000 0.000000
0.000000 0.000000 0.000000
0.000000 0.000000 0.000000
0.000000 0.000000 0.000000
0.000000 0.000000 0.000000
0.000000 0.000000 0.000000
0.000000 0.000000 0.000000
0.000000 0.000000 0.000000
0.000000 0.000000 0.000000
0.000000 0.000000 0.000000
0.000000 0.000000 0.000000
0.000000 0.000000 0.000000
0.000000 0.000000 0.000000
0.000000 0.000000 0.000000
0.000000 0.000000 0.000000
0.000000 0.000000 0.000000
0.000000 0.000000 0.000000
0.000000 0.000000 0.000000
0.000000 0.000000 0.000000
0.000000 0.000000 0.000000
0.000000 0.000000 0.000000
0.000000 0.000000 0.000000
0.000000 0.000000 0.000000
0.000000 0.000000 0.000000
0.000000 0.000000 0.000000
0.000000 0.000000 0.000000
0.000000 0.000000 0.000000
0.000000 0.000000 0.000000
0.000000 0.000000 0.000000
0.000000 0.000000 0.000000
0.000000 0.000000 0.000000
0.000000 0.000000 0.000000
0.000000 0.000000 0.000000
0.000000 0.000000 0.000000
0.000000 0.000000 0.000000
0.000000 0.000000 0.000000
0.000000 0.000000 0.000000
0.000000 0.000000 0.000000
0.000000 0.000000 0.000000
0.000000 0.000000 0.000000
0.000000 0.000000 0.000000
0.000000 0.000000 0.000000
0.000000 0.000000 0.000000
0.000000 0.000000 0.000000
0.000000 0.000000 0.000000
0.000000 0.000000 0.000000
0.000000 0.000000 0.000000
0.000000 0.000000 0.000000
0.000000 0.000000 0.000000
0.000000 0.000000 0.000000
0.000000 0.000000 0.000000
0.000000 0.000000 0.000000
0.000000 0.000000 0.000000
0.000000 0.000000 0.000000
0.000000 0.000000 0.000000
0.000000 0.000000 0.000000
0.000000 0.000000 0.000000
0.000000 0.000000 0.000000
0.000000 0.000000 0.000000
0.000000 0.000000 0.000000
0.000000 0.000000 0.000000
0.000000 0.000000 0.000000
0.000000 0.000000 0.000000
0.000000 0.000000 0.000000
0.000000 0.000000 0.000000
0.000000 0.000000 0.000000
0.000000 0.000000 0.000000
0.000000 0.000000 0.000000
0.000000 0.000000 0.000000
0.000000 0.000000 0.000000
0.000000 0.000000 0.000000
0.000000 0.000000 0.000000
0.000000 0.000000 0.000000
0.000000 0.000000 0.000000
0.000000 0.000000 0.000000
0.000000 0.000000 0.000000
0.000000 0.000000 0.000000
0.000000 0.000000 0.000000
0.000000 0.000000 0.000000
0.000000 0.000000 0.000000
0.000000 0.000000 0.000000
0.000000 0.000000 0.000000
0.000000 0.000000 0.000000
0.000000 0.000000 0.000000
0.000000 0.000000 0.000000
0.000000 0.000000 0.000000
0.000000 0.000000 0.000000
0.000000 0.000000 0.000000
0.000000 0.000000 0.000000
0.000000 0.000000 0.000000
0.000000 0.000000 0.000000
0.000000 0.000000 0.000000
0.000000 0.000000 0.000000
0.000000 0.000000 0.000000
0.000000 0.000000 0.000000
0.000000 0.000000 0.000000
0.000000 0.000000 0.000000
0.000000 0.000000 0.000000
0.000000 0.000000 0.000000
0.000000 0.000000 0.000000
0.000000 0.000000 0.000000
0.000000 0.000000 0.000000
0.000000 0.000000 0.000000
0.000000 0.000000 0.000000
0.000000 0.000000 0.000000
0.000000 0.000000 0.000000
0.000000 0.000000 0.000000
0.000000 0.000000 0.000000
0.000000 0.000000 0.000000
0.000000 0.000000 0.000000
0.000000 0.000000 0.000000
0.000000 0.000000 0.000000
0.000000 0.000000 0.000000
0.000000 0.000000 -50.000000
-50.000000 0.000000 -50.000000
-43.332159 0.000000 -45.688679
-45.491387 0.000000 -43.331998
-50.000000 0.000000 -50.000000
-36.664248 0.000000 -36.664331
-50.000000 0.000000 -45.081434
-39.969952 0.000000 -40.027648
-44.152523 0.000000 -29.996581
-50.000000 0.000000 -50.000000
-29.996452 0.000000 -44.847395
-33.449056 0.000000 -33.145283
-44.675953 0.000000 -39.869518
-36.787169 0.000000 -35.129129
-39.801630 0.000000 -23.329300
-50.000000 0.000000 -26.539555
-44.666866 0.000000 -50.000000
-23.329189 0.000000 -44.665400
-26.804121 0.000000 -39.364526
-30.225874 0.000000 -29.606810
-39.359617 0.000000 -33.368776
-33.655743 0.000000 -50.000000
-16.662694 0.000000 -16.662886
-50.000000 0.000000 -9.997348
