# vtk DataFile Version 2.0
CellBP Time: 7.08
ASCII
DATASET UNSTRUCTURED_GRID
POINTS 320 double
-50.000000 -50.000000 0.000000
-50.000000 -43.332302 0.000000
-45.688627 -45.491345 0.000000
-43.332156 -50.000000 0.000000
-50.000000 -36.664541 0.000000
-36.664606 -50.000000 0.000000
-45.081379 -39.969924 0.000000
-40.027566 -44.152481 0.000000
-29.996978 -50.000000 0.000000
-50.000000 -29.996878 0.000000
-44.847343 -33.449031 0.000000
-33.145214 -44.675909 0.000000
-39.869449 -36.787139 0.000000
-35.129044 -39.801576 0.000000
-23.329760 -50.000000 0.000000
-26.539478 -44.666848 0.000000
-50.000000 -23.329679 0.000000
-44.665381 -26.804085 0.000000
-39.364478 -30.225841 0.000000
-29.606712 -39.359577 0.000000
-33.368682 -33.655695 0.000000
-50.000000 -16.663154 0.000000
-16.663306 -50.000000 0.000000
-9.997629 -50.000000 0.000000
-19.965269 -44.588713 0.000000
-23.216215 -39.114761 0.000000
-44.691821 -20.097069 0.000000
-39.367948 -23.528194 0.000000
-34.106406 -26.937130 0.000000
-26.384842 -33.577568 0.000000
-29.156635 -28.926885 0.000000
-50.000000 -9.997218 0.000000
-44.666302 -13.410315 0.000000
-50.000000 -3.332026 0.000000
-3.332586 -50.000000 0.000000
3.332300 -50.000000 0.000000
-13.344055 -44.598882 0.000000
-6.684965 -44.610482 0.000000
-16.693999 -39.153103 0.000000
-20.107195 -33.342625 0.000000
-39.338114 -16.804599 0.000000
-34.019042 -20.274494 0.000000
-28.781436 -23.449253 0.000000
-23.510845 -27.351035 0.000000
-44.635285 -6.705489 0.000000
-39.293122 -10.101676 0.000000
-50.000000 3.332782 0.000000
-44.626511 -0.015352 0.000000
9.997505 -50.000000 0.000000
16.663329 -50.000000 0.000000
-0.016178 -44.618579 0.000000
6.651795 -44.635334 0.000000
-10.044966 -39.222510 0.000000
-3.368300 -39.220192 0.000000
-13.484346 -33.798419 0.000000
-16.708868 -28.271609 0.000000
-33.947934 -13.513420 0.000000
-28.602776 -16.891981 0.000000
-23.292809 -20.313350 0.000000
-18.661069 -23.284679 0.000000
-39.267328 -3.392552 0.000000
-33.904485 -6.796685 0.000000
-50.000000 9.997732 0.000000
-44.606503 6.673841 0.000000
-39.260619 3.325864 0.000000
-50.000000 16.663367 0.000000
23.329784 -50.000000 0.000000
29.996882 -50.000000 0.000000
13.317809 -44.662920 0.000000
19.989964 -44.700089 0.000000
3.307637 -39.245094 0.000000
9.971898 -39.290376 0.000000
-6.735707 -33.791338 0.000000
-0.032141 -33.829417 0.000000
-10.096022 -28.292286 0.000000
-13.122677 -22.895894 0.000000
-28.531393 -10.214027 0.000000
-23.067954 -13.663788 0.000000
-16.979319 -17.212820 0.000000
-33.884148 -0.065455 0.000000
-28.562717 -3.580208 0.000000
-44.563943 13.381029 0.000000
-39.189842 10.015283 0.000000
-33.905424 6.616121 0.000000
-50.000000 23.329596 0.000000
-44.557312 20.138633 0.000000
-50.000000 29.996990 0.000000
36.664454 -50.000000 0.000000
43.332184 -50.000000 0.000000
26.663558 -44.745397 0.000000
33.315524 -44.876161 0.000000
16.631759 -39.357672 0.000000
23.328439 -39.437188 0.000000
6.642986 -33.879593 0.000000
13.290482 -33.965423 0.000000
-3.346431 -28.363790 0.000000
3.358430 -28.451178 0.000000
-6.626304 -22.844777 0.000000
-9.961760 -17.315362 0.000000
-23.180129 -7.014072 0.000000
-17.814176 -10.334887 0.000000
-12.838022 -12.609611 0.000000
-28.607296 3.088757 0.000000
-23.266783 -0.469944 0.000000
-39.038398 16.746384 0.000000
-28.719987 9.925792 0.000000
-33.760715 13.317987 0.000000
-44.521718 26.717389 0.000000
-38.467788 23.892805 0.000000
-44.632781 33.086048 0.000000
-50.000000 36.664990 0.000000
-50.000000 43.332451 0.000000
39.922574 -45.069787 0.000000
45.474946 -45.660674 0.000000
50.000000 -50.000000 0.000000
36.626953 -39.982124 0.000000
30.012593 -39.458752 0.000000
19.904215 -34.093001 0.000000
26.585155 -34.319665 0.000000
9.988427 -28.512636 0.000000
16.610510 -28.660508 0.000000
0.050349 -22.963453 0.000000
6.812064 -23.154945 0.000000
-3.397645 -17.296901 0.000000
-6.802756 -10.888170 0.000000
-17.873566 -3.812865 0.000000
-12.548574 -7.033529 0.000000
-23.308025 6.069410 0.000000
-18.033699 2.438002 0.000000
-23.123757 12.096351 0.000000
-33.572155 19.788970 0.000000
-27.941773 16.886444 0.000000
-33.293324 24.723100 0.000000
-39.474125 30.053421 0.000000
-35.160980 28.137907 0.000000
-39.816561 35.101863 0.000000
-43.991986 39.982757 0.000000
-45.431182 45.685510 0.000000
-50.000000 50.000000 0.000000
44.117468 -39.899321 0.000000
50.000000 -43.331807 0.000000
39.639660 -35.047634 0.000000
33.463048 -33.424728 0.000000
22.985021 -28.818238 0.000000
28.731106 -29.247984 0.000000
13.460810 -23.121850 0.000000
20.054955 -23.439873 0.000000
3.365284 -17.590762 0.000000
10.122723 -17.843379 0.000000
0.166817 -11.797329 0.000000
-2.126163 -6.163690 0.000000
-7.169453 -3.570168 0.000000
-12.448123 -0.808132 0.000000
-18.173733 8.573238 0.000000
-12.935626 5.196542 0.000000
-18.637831 13.750961 0.000000
-21.503649 17.494020 0.000000
-28.941143 23.159386 0.000000
-24.346465 21.554224 0.000000
-30.324083 28.635269 0.000000
-34.253925 33.375732 0.000000
-36.956178 39.578205 0.000000
-39.838785 45.102992 0.000000
-43.332136 50.000000 0.000000
44.585438 -32.972308 0.000000
50.000000 -36.664077 0.000000
39.129409 -29.582094 0.000000
33.500753 -26.367808 0.000000
27.183304 -23.322125 0.000000
23.067397 -18.647995 0.000000
16.992566 -16.982429 0.000000
6.698352 -12.191967 0.000000
12.373004 -12.737200 0.000000
-3.365118 -1.484595 0.000000
3.798482 -6.785591 0.000000
1.023628 -2.120674 0.000000
-6.863635 2.269099 0.000000
-8.252359 7.664768 0.000000
-12.841403 11.927957 0.000000
-15.690474 17.698858 0.000000
-19.287491 22.981286 0.000000
-24.171013 27.354367 0.000000
-27.286441 33.625784 0.000000
-30.406828 39.161020 0.000000
-33.448000 44.738892 0.000000
-36.664341 50.000000 0.000000
44.547762 -26.500188 0.000000
50.000000 -29.996411 0.000000
39.040012 -23.179380 0.000000
33.449524 -19.900006 0.000000
28.039634 -16.573300 0.000000
22.679570 -13.123632 0.000000
17.175745 -9.899861 0.000000
10.785607 -6.579924 0.000000
-1.359370 2.320598 0.000000
6.137176 -1.711227 0.000000
2.887981 1.592802 0.000000
-3.454446 6.993172 0.000000
-6.313720 12.427362 0.000000
-9.629311 17.711816 0.000000
-13.168074 23.114657 0.000000
-17.316962 28.185047 0.000000
-20.571093 33.474169 0.000000
-23.666181 39.063893 0.000000
-26.831310 44.585339 0.000000
-29.996960 50.000000 0.000000
44.528630 -19.930980 0.000000
50.000000 -23.329265 0.000000
39.036128 -16.594246 0.000000
33.575771 -13.281272 0.000000
28.149066 -9.965140 0.000000
22.724615 -6.604836 0.000000
17.264992 -3.335009 0.000000
11.806356 0.216039 0.000000
1.908926 6.203340 0.000000
6.812155 3.714701 0.000000
-0.226261 11.774318 0.000000
-3.248156 17.531515 0.000000
-6.698904 22.976332 0.000000
-10.567081 28.267182 0.000000
-13.724340 33.660906 0.000000
-16.945988 39.080109 0.000000
-20.141063 44.548330 0.000000
-23.329991 50.000000 0.000000
44.536122 -13.304114 0.000000
50.000000 -16.662876 0.000000
39.079743 -9.966921 0.000000
33.646533 -6.641472 0.000000
28.236724 -3.308156 0.000000
22.850017 0.017294 0.000000
17.538244 3.341217 0.000000
12.181424 6.581924 0.000000
6.658273 10.699837 0.000000
3.302386 17.200057 0.000000
-0.080615 22.854796 0.000000
-3.519160 28.313172 0.000000
-6.831792 33.774668 0.000000
-10.137844 39.170497 0.000000
-13.436269 44.563434 0.000000
-16.663665 50.000000 0.000000
44.554103 -6.655018 0.000000
50.000000 -9.997324 0.000000
39.123159 -3.321483 0.000000
33.713296 0.008797 0.000000
28.333333 3.345154 0.000000
22.999296 6.693890 0.000000
17.834641 10.018535 0.000000
12.658682 12.244097 0.000000
9.784097 17.232845 0.000000
6.479725 22.722454 0.000000
3.189436 28.270379 0.000000
-0.116074 33.734951 0.000000
-3.425376 39.168711 0.000000
-6.725828 44.581712 0.000000
-9.997923 50.000000 0.000000
44.575473 0.001779 0.000000
50.000000 -3.332425 0.000000
39.166881 3.331802 0.000000
33.779536 6.655642 0.000000
28.423850 9.994709 0.000000
23.046536 13.416141 0.000000
16.951100 17.024475 0.000000
12.901583 22.667084 0.000000
9.815494 28.231697 0.000000
6.604421 33.718825 0.000000
3.286536 39.164439 0.000000
-0.029983 44.584489 0.000000
-3.332647 50.000000 0.000000
44.586651 6.665658 0.000000
50.000000 3.332395 0.000000
39.198216 9.982039 0.000000
33.843524 13.276893 0.000000
28.542417 16.584294 0.000000
23.387774 20.084271 0.000000
18.532026 23.113520 0.000000
16.392556 28.298497 0.000000
13.329061 33.754748 0.000000
9.986733 39.181952 0.000000
6.666153 44.584227 0.000000
3.332478 50.000000 0.000000
44.608883 13.318300 0.000000
50.000000 9.997623 0.000000
39.251398 16.612613 0.000000
33.932067 19.862906 0.000000
28.612604 22.926002 0.000000
23.279699 27.207819 0.000000
19.901436 33.302852 0.000000
16.574116 39.040829 0.000000
13.268725 44.526628 0.000000
9.997690 50.000000 0.000000
44.632069 19.973408 0.000000
50.000000 16.663484 0.000000
39.298569 23.262379 0.000000
34.043974 26.514902 0.000000
28.965998 28.539513 0.000000
26.202604 33.410194 0.000000
23.066975 38.968800 0.000000
19.888991 44.507019 0.000000
16.663335 50.000000 0.000000
44.639900 26.643310 0.000000
50.000000 23.329942 0.000000
39.293522 29.966986 0.000000
33.212622 33.371472 0.000000
29.412439 39.045952 0.000000
26.422754 44.506013 0.000000
23.329707 50.000000 0.000000
44.775182 33.292090 0.000000
50.000000 29.997000 0.000000
39.738362 36.596519 0.000000
34.831320 39.525879 0.000000
32.834132 44.514495 0.000000
29.996750 50.000000 0.000000
44.978451 39.878102 0.000000
50.000000 36.664517 0.000000
39.735235 43.969274 0.000000
36.664297 50.000000 0.000000
45.621540 45.410069 0.000000
50.000000 43.332203 0.000000
43.331919 50.000000 0.000000
50.000000 50.000000 0.000000
CELLS 578 2312
3 1 0 2
3 0 3 2
3 4 1 6
3 6 1 2
3 3 5 7
3 3 7 2
3 6 2 7
3 9 4 10
3 10 4 6
3 5 8 11
3 7 5 11
3 10 6 12
3 12 6 7
3 7 11 13
3 7 13 12
3 8 14 15
3 11 8 15
3 16 9 17
3 17 9 10
3 17 10 18
3 18 10 12
3 11 15 19
3 13 11 19
3 18 12 20
3 13 19 20
3 20 12 13
3 14 22 24
3 15 14 24
3 15 24 25
3 19 15 25
3 21 16 26
3 26 16 17
3 26 17 27
3 27 17 18
3 27 18 28
3 28 18 20
3 19 25 29
3 19 29 20
3 28 20 30
3 30 20 29
3 31 21 32
3 32 21 26
3 22 23 36
3 24 22 36
3 23 34 37
3 36 23 37
3 24 36 38
3 25 24 38
3 25 38 39
3 29 25 39
3 32 26 40
3 40 26 27
3 40 27 41
3 41 27 28
3 41 28 42
3 42 28 30
3 29 39 43
3 29 43 30
3 42 30 43
3 33 31 44
3 44 31 32
3 44 32 45
3 45 32 40
3 46 33 47
3 47 33 44
3 34 35 50
3 37 34 50
3 35 48 51
3 50 35 51
3 36 37 52
3 38 36 52
3 37 50 53
3 52 37 53
3 38 52 54
3 39 38 54
3 39 54 55
3 43 39 55
3 45 40 56
3 56 40 41
3 56 41 57
3 57 41 42
3 57 42 58
3 58 42 43
3 43 55 59
3 43 59 58
3 47 44 60
3 60 44 45
3 60 45 61
3 61 45 56
3 62 46 63
3 63 46 47
3 63 47 64
3 64 47 60
3 48 49 68
3 51 48 68
3 49 66 69
3 68 49 69
3 50 51 70
3 53 50 70
3 51 68 71
3 70 51 71
3 52 53 72
3 54 52 72
3 53 70 73
3 72 53 73
3 54 72 74
3 55 54 74
3 55 74 75
3 59 55 75
3 61 56 76
3 76 56 57
3 76 57 77
3 77 57 58
3 77 58 78
3 59 75 78
3 78 58 59
3 64 60 79
3 79 60 61
3 79 61 80
3 80 61 76
3 65 62 81
3 81 62 63
3 81 63 82
3 82 63 64
3 82 64 83
3 83 64 79
3 84 65 85
3 85 65 81
3 66 67 89
3 69 66 89
3 67 87 90
3 89 67 90
3 68 69 91
3 71 68 91
3 69 89 92
3 91 69 92
3 70 71 93
3 73 70 93
3 71 91 94
3 93 71 94
3 72 73 95
3 74 72 95
3 73 93 96
3 95 73 96
3 74 95 97
3 75 74 97
3 75 97 98
3 78 75 98
3 80 76 99
3 99 76 77
3 99 77 100
3 100 77 78
3 100 78 101
3 98 101 78
3 83 79 102
3 102 79 80
3 102 80 103
3 103 80 99
3 85 81 104
3 104 81 82
3 105 83 102
3 104 82 106
3 106 82 83
3 106 83 105
3 86 84 107
3 107 84 85
3 107 85 108
3 108 85 104
3 109 86 107
3 110 86 109
3 87 88 112
3 90 87 112
3 112 88 113
3 88 114 113
3 90 112 115
3 89 90 116
3 92 89 116
3 116 90 115
3 91 92 117
3 94 91 117
3 92 116 118
3 117 92 118
3 93 94 119
3 96 93 119
3 94 117 120
3 119 94 120
3 95 96 121
3 97 95 121
3 96 119 122
3 121 96 122
3 97 121 123
3 98 97 123
3 98 123 124
3 98 124 101
3 103 99 125
3 125 99 100
3 125 100 126
3 126 100 101
3 126 101 124
3 105 102 127
3 127 102 103
3 127 103 128
3 128 103 125
3 129 105 127
3 108 104 130
3 130 104 106
3 130 106 131
3 131 106 105
3 131 105 129
3 108 130 132
3 109 107 133
3 133 107 108
3 133 108 134
3 108 132 134
3 135 109 133
3 111 110 136
3 136 110 109
3 136 109 135
3 137 111 136
3 138 111 137
3 112 113 139
3 115 112 139
3 114 140 113
3 140 139 113
3 139 141 115
3 116 115 142
3 118 116 142
3 142 115 141
3 117 118 143
3 120 117 143
3 118 142 144
3 143 118 144
3 119 120 145
3 122 119 145
3 120 143 146
3 145 120 146
3 121 122 147
3 123 121 147
3 122 145 148
3 147 122 148
3 123 147 149
3 124 123 149
3 124 149 150
3 151 126 124
3 124 150 151
3 128 125 152
3 152 125 126
3 152 126 151
3 129 127 153
3 153 127 128
3 128 152 154
3 153 128 154
3 155 129 153
3 131 129 156
3 156 129 155
3 132 130 157
3 130 131 157
3 157 131 158
3 131 156 158
3 132 157 159
3 132 159 134
3 135 133 160
3 160 133 134
3 160 134 159
3 136 135 161
3 135 160 161
3 162 137 136
3 161 162 136
3 163 138 137
3 162 163 137
3 139 164 141
3 140 165 139
3 139 165 164
3 141 164 166
3 141 166 142
3 166 167 142
3 144 142 167
3 167 168 144
3 143 144 168
3 146 143 168
3 168 169 146
3 145 146 170
3 148 145 170
3 170 146 169
3 147 148 171
3 149 147 171
3 148 170 172
3 171 148 172
3 173 151 150
3 149 171 174
3 150 149 174
3 150 174 175
3 150 175 173
3 154 152 176
3 152 151 176
3 176 151 173
3 154 176 177
3 155 153 178
3 177 178 154
3 154 178 153
3 156 155 179
3 155 178 179
3 180 158 156
3 179 180 156
3 181 159 157
3 180 181 158
3 181 157 158
3 182 160 159
3 181 182 159
3 183 161 160
3 182 183 160
3 184 162 161
3 184 161 183
3 185 163 162
3 184 185 162
3 164 186 166
3 165 187 164
3 164 187 186
3 166 186 188
3 166 188 167
3 167 188 189
3 167 189 168
3 168 189 190
3 168 190 169
3 169 190 191
3 169 191 170
3 192 172 170
3 170 191 192
3 192 193 172
3 171 172 193
3 174 171 193
3 194 173 175
3 176 173 194
3 175 174 195
3 193 195 174
3 195 196 175
3 175 196 194
3 197 177 176
3 194 197 176
3 198 178 177
3 197 198 177
3 199 179 178
3 198 199 178
3 200 180 179
3 199 200 179
3 201 181 180
3 200 201 180
3 202 182 181
3 201 202 181
3 203 183 182
3 202 203 182
3 204 184 183
3 203 204 183
3 205 185 184
3 204 205 184
3 186 206 188
3 187 207 186
3 186 207 206
3 188 206 208
3 188 208 189
3 189 208 209
3 189 209 190
3 190 209 210
3 190 210 191
3 191 210 211
3 191 211 192
3 192 211 212
3 192 212 193
3 193 212 213
3 193 213 195
3 214 197 194
3 214 194 196
3 195 213 215
3 195 215 196
3 196 215 214
3 216 198 197
3 214 216 197
3 217 199 198
3 216 217 198
3 218 200 199
3 217 218 199
3 219 201 200
3 218 219 200
3 220 202 201
3 219 220 201
3 221 203 202
3 220 221 202
3 222 204 203
3 221 222 203
3 223 205 204
3 222 223 204
3 206 224 208
3 207 225 206
3 206 225 224
3 208 224 226
3 208 226 209
3 209 226 227
3 209 227 210
3 210 227 228
3 210 228 211
3 211 228 229
3 211 229 212
3 212 229 230
3 212 230 213
3 213 230 231
3 213 231 215
3 232 216 214
3 215 231 232
3 232 214 215
3 233 217 216
3 232 233 216
3 234 218 217
3 233 234 217
3 235 219 218
3 234 235 218
3 236 220 219
3 235 236 219
3 237 221 220
3 236 237 220
3 238 222 221
3 237 238 221
3 239 223 222
3 238 239 222
3 224 240 226
3 225 241 224
3 224 241 240
3 226 240 242
3 226 242 227
3 227 242 243
3 227 243 228
3 228 243 244
3 228 244 229
3 244 245 229
3 229 245 230
3 230 245 246
3 230 246 231
3 231 246 247
3 231 247 232
3 248 233 232
3 248 232 247
3 249 234 233
3 248 249 233
3 250 235 234
3 249 250 234
3 251 236 235
3 250 251 235
3 252 237 236
3 251 252 236
3 253 238 237
3 252 253 237
3 254 239 238
3 253 254 238
3 240 255 242
3 241 256 240
3 240 256 255
3 242 255 257
3 242 257 243
3 243 257 258
3 243 258 244
3 244 258 259
3 244 259 245
3 245 259 260
3 245 260 246
3 246 260 261
3 246 261 247
3 248 247 261
3 262 249 248
3 261 262 248
3 263 250 249
3 262 263 249
3 264 251 250
3 263 264 250
3 265 252 251
3 264 265 251
3 266 253 252
3 265 266 252
3 267 254 253
3 266 267 253
3 255 268 257
3 256 269 255
3 255 269 268
3 257 268 270
3 257 270 258
3 258 270 271
3 258 271 259
3 259 271 272
3 259 272 260
3 260 272 273
3 260 273 261
3 274 262 261
3 261 273 274
3 275 263 262
3 274 275 262
3 276 264 263
3 275 276 263
3 277 265 264
3 276 277 264
3 278 266 265
3 277 278 265
3 279 267 266
3 278 279 266
3 268 280 270
3 269 281 268
3 268 281 280
3 270 280 282
3 270 282 271
3 271 282 283
3 271 283 272
3 283 284 272
3 272 284 273
3 285 275 274
3 273 284 285
3 285 274 273
3 286 276 275
3 285 286 275
3 287 277 276
3 286 287 276
3 288 278 277
3 287 288 277
3 289 279 278
3 288 289 278
3 280 290 282
3 281 291 280
3 280 291 290
3 282 290 292
3 282 292 283
3 283 292 293
3 283 293 284
3 284 293 294
3 284 294 285
3 295 286 285
3 295 285 294
3 296 287 286
3 295 296 286
3 297 288 287
3 296 297 287
3 298 289 288
3 297 298 288
3 290 299 292
3 291 300 290
3 290 300 299
3 292 299 301
3 292 301 293
3 293 301 302
3 293 302 294
3 294 302 295
3 303 296 295
3 303 295 302
3 304 297 296
3 303 304 296
3 305 298 297
3 304 305 297
3 299 306 301
3 300 307 299
3 299 307 306
3 301 306 308
3 301 308 302
3 309 303 302
3 302 308 309
3 310 304 303
3 309 310 303
3 311 305 304
3 310 311 304
3 306 312 308
3 307 313 306
3 306 313 312
3 314 310 309
3 308 312 314
3 314 309 308
3 315 311 310
3 314 315 310
3 312 316 314
3 313 317 312
3 312 317 316
3 318 315 314
3 318 314 316
3 317 319 316
3 319 318 316
CELL_TYPES 578
5
5
5
5
5
5
5
5
5
5
5
5
5
5
5
5
5
5
5
5
5
5
5
5
5
5
5
5
5
5
5
5
5
5
5
5
5
5
5
5
5
5
5
5
5
5
5
5
5
5
5
5
5
5
5
5
5
5
5
5
5
5
5
5
5
5
5
5
5
5
5
5
5
5
5
5
5
5
5
5
5
5
5
5
5
5
5
5
5
5
5
5
5
5
5
5
5
5
5
5
5
5
5
5
5
5
5
5
5
5
5
5
5
5
5
5
5
5
5
5
5
5
5
5
5
5
5
5
5
5
5
5
5
5
5
5
5
5
5
5
5
5
5
5
5
5
5
5
5
5
5
5
5
5
5
5
5
5
5
5
5
5
5
5
5
5
5
5
5
5
5
5
5
5
5
5
5
5
5
5
5
5
5
5
5
5
5
5
5
5
5
5
5
5
5
5
5
5
5
5
5
5
5
5
5
5
5
5
5
5
5
5
5
5
5
5
5
5
5
5
5
5
5
5
5
5
5
5
5
5
5
5
5
5
5
5
5
5
5
5
5
5
5
5
5
5
5
5
5
5
5
5
5
5
5
5
5
5
5
5
5
5
5
5
5
5
5
5
5
5
5
5
5
5
5
5
5
5
5
5
5
5
5
5
5
5
5
5
5
5
5
5
5
5
5
5
5
5
5
5
5
5
5
5
5
5
5
5
5
5
5
5
5
5
5
5
5
5
5
5
5
5
5
5
5
5
5
5
5
5
5
5
5
5
5
5
5
5
5
5
5
5
5
5
5
5
5
5
5
5
5
5
5
5
5
5
5
5
5
5
5
5
5
5
5
5
5
5
5
5
5
5
5
5
5
5
5
5
5
5
5
5
5
5
5
5
5
5
5
5
5
5
5
5
5
5
5
5
5
5
5
5
5
5
5
5
5
5
5
5
5
5
5
5
5
5
5
5
5
5
5
5
5
5
5
5
5
5
5
5
5
5
5
5
5
5
5
5
5
5
5
5
5
5
5
5
5
5
5
5
5
5
5
5
5
5
5
5
5
5
5
5
5
5
5
5
5
5
5
5
5
5
5
5
5
5
5
5
5
5
5
5
5
5
5
5
5
5
5
5
5
5
5
5
5
5
5
5
5
5
5
5
5
5
5
5
5
5
5
5
5
5
5
5
5
5
5
5
5
5
5
5
5
5
5
5
5
5
5
5
5
5
5
5
5
5
5
5
5
5
5
5
5
5
5
5
5
5
5
5
5
5
5
5
5
5
5
5
5
5
5
5
5
5
5
5
5
5
5
5
5
5
5
5
5
5
5
5
POINT_DATA 320
SCALARS theta_e float 1
LOOKUP_TABLE default
1.000000
1.000000
1.000000
1.000000
1.000000
1.000000
1.000000
1.000000
1.000000
1.000000
1.000000
1.000000
1.000000
1.000000
1.000000
1.000000
1.000000
1.000000
1.000000
1.000000
1.000000
1.000000
1.000000
1.000000
1.000000
1.000000
1.000000
1.000000
1.000000
1.000000
1.000000
1.000000
1.000000
1.000000
1.000000
1.000000
1.000000
1.000000
1.000000
1.000000
1.000000
1.000000
1.000000
1.000000
1.000000
1.000000
1.000000
1.000000
1.000000
1.000000
1.000000
1.000000
1.000000
1.000000
1.000000
1.000000
1.000000
1.000000
1.000000
1.000000
1.000000
1.000000
1.000000
1.000000
1.000000
1.000000
1.000000
1.000000
1.000000
1.000000
1.000000
1.000000
1.000000
1.000000
1.000000
1.000000
1.000000
1.000000
1.000000
1.000000
1.000000
1.000000
1.000000
1.000000
1.000000
1.000000
1.000000
1.000000
1.000000
1.000000
1.000000
1.000000
1.000000
1.000000
1.000000
1.000000
1.000000
1.000000
1.000000
1.000000
1.000001
1.000000
1.000000
1.000000
1.000000
1.000000
1.000000
1.000000
1.000000
1.000000
1.000000
1.000000
1.000000
1.000000
1.000000
1.000000
1.000000
1.000000
1.000000
1.000000
1.000000
1.000000
1.000000
1.000000
0.999999
1.000001
1.000000
1.000000
1.000000
1.000000
1.000000
1.000000
1.000000
1.000000
1.000000
1.000000
1.000000
1.000000
1.000000
1.000000
1.000000
1.000000
1.000000
1.000000
1.000000
1.000000
1.000000
1.000000
1.000000
0.999998
0.999993
0.999995
0.999999
1.000000
0.999999
1.000000
1.000000
1.000000
1.000000
1.000000
1.000000
1.000000
1.000000
1.000000
1.000000
1.000000
1.000000
1.000000
1.000000
1.000000
1.000000
0.999999
1.000000
0.999989
0.999995
0.999990
0.999993
0.999998
1.000000
1.000000
1.000000
1.000000
1.000000
1.000000
1.000000
1.000000
1.000000
1.000000
1.000000
1.000000
1.000000
1.000000
1.000000
0.999998
0.999989
0.999992
0.999989
0.999994
1.000000
1.000000
1.000000
1.000000
1.000000
1.000000
1.000000
1.000000
1.000000
1.000000
1.000000
1.000000
1.000000
1.000000
1.000000
0.999998
0.999992
0.999994
0.999998
1.000000
1.000000
1.000000
1.000000
1.000000
1.000000
1.000000
1.000000
1.000000
1.000000
1.000000
1.000000
1.000000
1.000000
0.999999
0.999998
1.000000
1.000000
1.000000
1.000000
1.000000
1.000000
1.000000
1.000000
1.000000
1.000000
1.000000
1.000000
1.000000
1.000000
1.000000
1.000000
1.000000
1.000000
1.000000
1.000000
1.000000
1.000000
1.000000
1.000000
1.000000
1.000000
1.000000
1.000000
1.000000
1.000000
1.000000
1.000000
1.000000
1.000000
1.000000
1.000000
1.000000
1.000000
1.000000
1.000000
1.000000
1.000000
1.000000
1.000000
1.000000
1.000000
1.000000
1.000000
1.000000
1.000000
1.000000
1.000000
1.000000
1.000000
1.000000
1.000000
1.000000
1.000000
1.000000
1.000000
1.000000
1.000000
1.000000
1.000000
1.000000
1.000000
1.000000
1.000000
1.000000
1.000000
1.000000
1.000000
1.000000
1.000000
1.000000
1.000000
1.000000
1.000000
1.000000
1.000000
1.000000
1.000000
1.000000
1.000000
1.000000
1.000000
1.000000
VECTORS fa_u float
0.000000 0.000000 0.000000
0.000000 0.000000 0.000000
0.000000 0.000000 0.000000
0.000000 0.000000 0.000000
0.000000 0.000000 0.000000
0.000000 0.000000 0.000000
0.000000 0.000000 0.000000
0.000000 0.000000 0.000000
0.000000 0.000000 0.000000
0.000000 0.000000 0.000000
0.000000 0.000000 0.000000
0.000000 0.000000 0.000000
0.000000 0.000000 0.000000
0.000000 0.000000 0.000000
0.000000 0.000000 0.000000
0.000000 0.000000 0.000000
0.000000 0.000000 0.000000
0.000000 0.000000 0.000000
0.000000 0.000000 0.000000
0.000000 0.000000 0.000000
0.000000 0.000000 0.000000
0.000000 0.000000 0.000000
0.000000 0.000000 0.000000
0.000000 0.000000 0.000000
0.000000 0.000000 0.000000
0.000000 0.000000 0.000000
0.000000 0.000000 0.000000
0.000000 0.000000 0.000000
0.000000 0.000000 0.000000
0.000000 0.000000 0.000000
0.000000 0.000000 0.000000
0.000000 0.000000 0.000000
0.000000 0.000000 0.000000
0.000000 0.000000 0.000000
0.000000 0.000000 0.000000
0.000000 0.000000 0.000000
0.000000 0.000000 0.000000
0.000000 0.000000 0.000000
0.000000 0.000000 0.000000
0.000000 0.000000 0.000000
0.000000 0.000000 0.000000
0.000000 0.000000 0.000000
0.000000 0.000000 0.000000
0.000000 0.000000 0.000000
0.000000 0.000000 0.000000
0.000000 0.000000 0.000000
0.000000 0.000000 0.000000
0.000000 0.000000 0.000000
0.000000 0.000000 0.000000
0.000000 0.000000 0.000000
0.000000 0.000000 0.000000
0.000000 0.000000 0.000000
0.000000 0.000000 0.000000
0.000000 0.000000 0.000000
0.000000 0.000000 0.000000
0.000000 0.000000 0.000000
0.000000 0.000000 0.000000
0.000000 0.000000 0.000000
0.000000 0.000000 0.000000
0.000000 0.000000 0.000000
0.000000 0.000000 0.000000
0.000000 0.000000 0.000000
0.000000 0.000000 0.000000
0.000000 0.000000 0.000000
0.000000 0.000000 0.000000
0.000000 0.000000 0.000000
0.000000 0.000000 0.000000
0.000000 0.000000 0.000000
0.000000 0.000000 0.000000
0.000000 0.000000 0.000000
0.000000 0.000000 0.000000
0.000000 0.000000 0.000000
0.000000 0.000000 0.000000
0.000000 0.000000 0.000000
0.000000 0.000000 0.000000
0.000000 0.000000 0.000000
0.000000 0.000000 0.000000
0.000000 0.000000 0.000000
0.000000 0.000000 0.000000
0.000000 0.000000 0.000000
0.000000 0.000000 0.000000
0.000000 0.000000 0.000000
0.000000 0.000000 0.000000
0.000000 0.000000 0.000000
0.000000 0.000000 0.000000
0.000000 0.000000 0.000000
0.000000 0.000000 0.000000
0.000000 0.000000 0.000000
0.000000 0.000000 0.000000
0.000000 0.000000 0.000000
0.000000 0.000000 0.000000
0.000000 0.000000 0.000000
0.000000 0.000000 0.000000
0.000000 0.000000 0.000000
0.000000 0.000000 0.000000
0.000000 0.000000 0.000000
0.000000 0.000000 0.000000
0.000000 0.000000 0.000000
0.000000 0.000000 0.000000
0.000000 0.000000 0.000000
0.000000 0.000000 0.000000
0.000000 0.000000 0.000000
0.000000 0.000000 0.000000
0.000000 0.000000 0.000000
0.000000 0.000000 0.000000
0.000000 0.000000 0.000000
0.000000 0.000000 0.000000
0.000000 0.000000 0.000000
0.000000 0.000000 0.000000
0.000000 0.000000 0.000000
0.000000 0.000000 0.000000
0.000000 0.000000 0.000000
0.000000 0.000000 0.000000
0.000000 0.000000 0.000000
0.000000 0.000000 0.000000
0.000000 0.000000 0.000000
0.000000 0.000000 0.000000
0.000000 0.000000 0.000000
0.000000 0.000000 0.000000
0.000000 0.000000 0.000000
0.000000 0.000000 0.000000
0.000000 0.000000 0.000000
0.000000 0.000000 0.000000
0.000000 0.000000 0.000000
0.000000 0.000000 0.000000
0.000000 0.000000 0.000000
0.000000 0.000000 0.000000
0.000000 0.000000 0.000000
0.000000 0.000000 0.000000
0.000000 0.000000 0.000000
0.000000 0.000000 0.000000
0.000000 0.000000 0.000000
0.000000 0.000000 0.000000
0.000000 0.000000 0.000000
0.000000 0.000000 0.000000
0.000000 0.000000 0.000000
0.000000 0.000000 0.000000
0.000000 0.000000 0.000000
0.000000 0.000000 0.000000
0.000000 0.000000 0.000000
0.000000 0.000000 0.000000
0.000000 0.000000 0.000000
0.000000 0.000000 0.000000
0.000000 0.000000 0.000000
0.000000 0.000000 0.000000
0.000000 0.000000 0.000000
0.000000 0.000000 0.000000
0.000000 0.000000 0.000000
0.000000 0.000000 0.000000
0.000000 0.000000 0.000000
0.000000 0.000000 0.000000
0.000000 0.000000 0.000000
0.000000 0.000000 0.000000
0.000000 0.000000 0.000000
0.000000 0.000000 0.000000
0.000000 0.000000 0.000000
0.000000 0.000000 0.000000
0.000000 0.000000 0.000000
0.000000 0.000000 0.000000
0.000000 0.000000 0.000000
0.000000 0.000000 0.000000
0.000000 0.000000 0.000000
0.000000 0.000000 0.000000
0.000000 0.000000 0.000000
0.000000 0.000000 0.000000
0.000000 0.000000 0.000000
0.000000 0.000000 0.000000
0.000000 0.000000 0.000000
0.000000 0.000000 0.000000
0.000000 0.000000 0.000000
0.000000 0.000000 0.000000
0.000000 0.000000 0.000000
0.000000 0.000000 0.000000
0.000000 0.000000 0.000000
0.000000 0.000000 0.000000
0.000000 0.000000 0.000000
0.000000 0.000000 0.000000
0.000000 0.000000 0.000000
0.000000 0.000000 0.000000
0.000000 0.000000 0.000000
0.000000 0.000000 0.000000
0.000000 0.000000 0.000000
0.000000 0.000000 0.000000
0.000000 0.000000 0.000000
0.000000 0.000000 0.000000
0.000000 0.000000 0.000000
0.000000 0.000000 0.000000
0.000000 0.000000 0.000000
0.000000 0.000000 0.000000
0.000000 0.000000 0.000000
0.000000 0.000000 0.000000
0.000000 0.000000 0.000000
0.000000 0.000000 0.000000
0.000000 0.000000 0.000000
0.000000 0.000000 0.000000
0.000000 0.000000 0.000000
0.000000 0.000000 0.000000
0.000000 0.000000 0.000000
0.000000 0.000000 0.000000
0.000000 0.000000 0.000000
0.000000 0.000000 0.000000
0.000000 0.000000 0.000000
0.000000 0.000000 0.000000
0.000000 0.000000 0.000000
0.000000 0.000000 0.000000
0.000000 0.000000 0.000000
0.000000 0.000000 0.000000
0.000000 0.000000 0.000000
0.000000 0.000000 0.000000
0.000000 0.000000 0.000000
0.000000 0.000000 0.000000
0.000000 0.000000 0.000000
0.000000 0.000000 0.000000
0.000000 0.000000 0.000000
0.000000 0.000000 0.000000
0.000000 0.000000 0.000000
0.000000 0.000000 0.000000
0.000000 0.000000 0.000000
0.000000 0.000000 0.000000
0.000000 0.000000 0.000000
0.000000 0.000000 0.000000
0.000000 0.000000 0.000000
0.000000 0.000000 0.000000
0.000000 0.000000 0.000000
0.000000 0.000000 0.000000
0.000000 0.000000 0.000000
0.000000 0.000000 0.000000
0.000000 0.000000 0.000000
0.000000 0.000000 0.000000
0.000000 0.000000 0.000000
0.000000 0.000000 0.000000
0.000000 0.000000 0.000000
0.000000 0.000000 0.000000
0.000000 0.000000 0.000000
0.000000 0.000000 0.000000
0.000000 0.000000 0.000000
0.000000 0.000000 0.000000
0.000000 0.000000 0.000000
0.000000 0.000000 0.000000
0.000000 0.000000 0.000000
0.000000 0.000000 0.000000
0.000000 0.000000 0.000000
0.000000 0.000000 0.000000
0.000000 0.000000 0.000000
0.000000 0.000000 0.000000
0.000000 0.000000 0.000000
0.000000 0.000000 0.000000
0.000000 0.000000 0.000000
0.000000 0.000000 0.000000
0.000000 0.000000 0.000000
0.000000 0.000000 0.000000
0.000000 0.000000 0.000000
0.000000 0.000000 0.000000
0.000000 0.000000 0.000000
0.000000 0.000000 0.000000
0.000000 0.000000 0.000000
0.000000 0.000000 0.000000
0.000000 0.000000 0.000000
0.000000 0.000000 0.000000
0.000000 0.000000 0.000000
0.000000 0.000000 0.000000
0.000000 0.000000 0.000000
0.000000 0.000000 0.000000
0.000000 0.000000 0.000000
0.000000 0.000000 0.000000
0.000000 0.000000 0.000000
0.000000 0.000000 0.000000
0.000000 0.000000 0.000000
0.000000 0.000000 0.000000
0.000000 0.000000 0.000000
0.000000 0.000000 0.000000
0.000000 0.000000 0.000000
0.000000 0.000000 0.000000
0.000000 0.000000 0.000000
0.000000 0.000000 0.000000
0.000000 0.000000 0.000000
0.000000 0.000000 0.000000
0.000000 0.000000 0.000000
0.000000 0.000000 0.000000
0.000000 0.000000 0.000000
0.000000 0.000000 0.000000
0.000000 0.000000 0.000000
0.000000 0.000000 0.000000
0.000000 0.000000 0.000000
0.000000 0.000000 0.000000
0.000000 0.000000 0.000000
0.000000 0.000000 0.000000
0.000000 0.000000 0.000000
0.000000 0.000000 0.000000
0.000000 0.000000 0.000000
0.000000 0.000000 0.000000
0.000000 0.000000 0.000000
0.000000 0.000000 0.000000
0.000000 0.000000 0.000000
0.000000 0.000000 0.000000
0.000000 0.000000 0.000000
0.000000 0.000000 -50.000000
-50.000000 0.000000 -50.000000
-43.332302 0.000000 -45.688627
-45.491345 0.000000 -43.332156
-50.000000 0.000000 -50.000000
-36.664541 0.000000 -36.664606
-50.000000 0.000000 -45.081379
-39.969924 0.000000 -40.027566
-44.152481 0.000000 -29.996978
-50.000000 0.000000 -50.000000
-29.996878 0.000000 -44.847343
-33.449031 0.000000 -33.145214
-44.675909 0.000000 -39.869449
-36.787139 0.000000 -35.129044
-39.801576 0.000000 -23.329760
-50.000000 0.000000 -26.539478
-44.666848 0.000000 -50.000000
-23.329679 0.000000 -44.665381
-26.804085 0.000000 -39.364478
-30.225841 0.000000 -29.606712
-39.359577 0.000000 -33.368682
-33.655695 0.000000 -50.000000
-16.663154 0.000000 -16.663306
-50.000000 0.000000 -9.997629
