# vtk DataFile Version 2.0
CellBP Time: 2.6
ASCII
DATASET UNSTRUCTURED_GRID
POINTS 320 double
-50.000000 -50.000000 0.000000
-50.000000 -43.332913 0.000000
-45.688409 -45.491165 0.000000
-43.332849 -50.000000 0.000000
-50.000000 -36.665802 0.000000
-36.665818 -50.000000 0.000000
-45.081144 -39.969797 0.000000
-40.027225 -44.152291 0.000000
-29.998755 -50.000000 0.000000
-50.000000 -29.998731 0.000000
-44.847111 -33.448924 0.000000
-33.144945 -44.675702 0.000000
-39.869156 -36.787000 0.000000
-35.128693 -39.801323 0.000000
-23.331859 -50.000000 0.000000
-26.539190 -44.666748 0.000000
-50.000000 -23.331848 0.000000
-44.665281 -26.803936 0.000000
-39.364260 -30.225689 0.000000
-29.606316 -39.359374 0.000000
-33.368275 -33.655460 0.000000
-50.000000 -16.665238 0.000000
-16.665275 -50.000000 0.000000
-9.999013 -50.000000 0.000000
-19.964932 -44.588757 0.000000
-23.215924 -39.114687 0.000000
-44.691874 -20.096927 0.000000
-39.367854 -23.528148 0.000000
-34.106152 -26.937016 0.000000
-26.384453 -33.577270 0.000000
-29.156233 -28.926632 0.000000
-50.000000 -9.998868 0.000000
-44.666346 -13.410201 0.000000
-50.000000 -3.332802 0.000000
-3.333015 -50.000000 0.000000
3.332916 -50.000000 0.000000
-13.343699 -44.599011 0.000000
-6.684753 -44.610678 0.000000
-16.693738 -39.153262 0.000000
-20.107001 -33.342654 0.000000
-39.338156 -16.804747 0.000000
-34.018720 -20.274641 0.000000
-28.780974 -23.449061 0.000000
-23.510524 -27.350348 0.000000
-44.635435 -6.705566 0.000000
-39.293076 -10.101817 0.000000
-50.000000 3.333107 0.000000
-44.626734 -0.015608 0.000000
9.998976 -50.000000 0.000000
16.665291 -50.000000 0.000000
-0.016126 -44.618753 0.000000
6.651632 -44.635442 0.000000
-10.044741 -39.222579 0.000000
-3.368242 -39.220364 0.000000
-13.484273 -33.798675 0.000000
-16.709445 -28.271474 0.000000
-33.948032 -13.513985 0.000000
-28.601914 -16.892324 0.000000
-23.291758 -20.313035 0.000000
-18.660461 -23.283173 0.000000
-39.267504 -3.392813 0.000000
-33.904532 -6.796766 0.000000
-50.000000 9.999073 0.000000
-44.606747 6.673438 0.000000
-39.260901 3.325666 0.000000
-50.000000 16.665318 0.000000
23.331870 -50.000000 0.000000
29.998712 -50.000000 0.000000
13.317466 -44.662967 0.000000
19.989597 -44.700112 0.000000
3.307655 -39.245136 0.000000
9.971795 -39.290316 0.000000
-6.735372 -33.791351 0.000000
-0.032279 -33.829565 0.000000
-10.095934 -28.293168 0.000000
-13.122742 -22.897667 0.000000
-28.532313 -10.214795 0.000000
-23.066958 -13.663403 0.000000
-16.977765 -17.210136 0.000000
-33.884626 -0.065469 0.000000
-28.563090 -3.579233 0.000000
-44.564113 13.380503 0.000000
-39.190066 10.015049 0.000000
-33.905724 6.616005 0.000000
-50.000000 23.331807 0.000000
-44.557604 20.138209 0.000000
-50.000000 29.998768 0.000000
36.665751 -50.000000 0.000000
43.332857 -50.000000 0.000000
26.663218 -44.745311 0.000000
33.315275 -44.875978 0.000000
16.631646 -39.357690 0.000000
23.328236 -39.437099 0.000000
6.642842 -33.879521 0.000000
13.290674 -33.965451 0.000000
-3.345824 -28.363119 0.000000
3.357438 -28.451241 0.000000
-6.626043 -22.845711 0.000000
-9.967861 -17.315022 0.000000
-23.183634 -7.014646 0.000000
-17.811619 -10.334831 0.000000
-12.837674 -12.596266 0.000000
-28.607466 3.088546 0.000000
-23.265403 -0.468770 0.000000
-39.038855 16.746419 0.000000
-28.720941 9.926206 0.000000
-33.761404 13.318297 0.000000
-44.521692 26.716947 0.000000
-38.467754 23.892541 0.000000
-44.632361 33.085595 0.000000
-50.000000 36.665977 0.000000
-50.000000 43.332970 0.000000
39.922368 -45.069604 0.000000
45.474700 -45.660469 0.000000
50.000000 -50.000000 0.000000
36.626771 -39.981969 0.000000
30.012337 -39.458615 0.000000
19.904174 -34.092812 0.000000
26.585010 -34.319497 0.000000
9.988684 -28.513257 0.000000
16.610810 -28.660034 0.000000
0.051565 -22.960460 0.000000
6.812145 -23.157258 0.000000
-3.399774 -17.297069 0.000000
-6.844502 -10.979206 0.000000
-17.876766 -3.823374 0.000000
-12.551873 -7.035172 0.000000
-23.309770 6.072163 0.000000
-18.036368 2.449446 0.000000
-23.122581 12.095795 0.000000
-33.572119 19.788917 0.000000
-27.941438 16.885665 0.000000
-33.292911 24.722734 0.000000
-39.473614 30.052850 0.000000
-35.160389 28.137523 0.000000
-39.816034 35.101435 0.000000
-43.991709 39.982256 0.000000
-45.431031 45.685193 0.000000
-50.000000 50.000000 0.000000
44.117249 -39.899026 0.000000
50.000000 -43.332708 0.000000
39.639424 -35.047417 0.000000
33.462874 -33.424548 0.000000
22.984864 -28.817978 0.000000
28.730956 -29.247803 0.000000
13.460708 -23.121760 0.000000
20.054826 -23.439104 0.000000
3.380708 -17.588058 0.000000
10.125664 -17.841087 0.000000
0.150871 -11.935516 0.000000
-2.144913 -6.231519 0.000000
-7.325290 -3.658828 0.000000
-12.565931 -0.804770 0.000000
-18.166093 8.573097 0.000000
-12.955007 5.196527 0.000000
-18.638863 13.751714 0.000000
-21.504375 17.494749 0.000000
-28.940801 23.158603 0.000000
-24.346300 21.554562 0.000000
-30.323592 28.634859 0.000000
-34.253475 33.375539 0.000000
-36.955943 39.578069 0.000000
-39.838680 45.102771 0.000000
-43.332845 50.000000 0.000000
44.585241 -32.972075 0.000000
50.000000 -36.665608 0.000000
39.129294 -29.581847 0.000000
33.500580 -26.367664 0.000000
27.182862 -23.322116 0.000000
23.066220 -18.647842 0.000000
16.990290 -16.980558 0.000000
6.707131 -12.207503 0.000000
12.359129 -12.734288 0.000000
-3.378693 -1.491173 0.000000
3.890541 -6.942938 0.000000
1.022841 -2.120669 0.000000
-6.962723 2.308709 0.000000
-8.373480 7.773412 0.000000
-12.845025 11.931309 0.000000
-15.692114 17.699955 0.000000
-19.287289 22.982391 0.000000
-24.170972 27.354735 0.000000
-27.286325 33.625995 0.000000
-30.406658 39.161186 0.000000
-33.447802 44.738858 0.000000
-36.665721 50.000000 0.000000
44.547724 -26.499898 0.000000
50.000000 -29.998536 0.000000
39.040013 -23.179271 0.000000
33.449706 -19.899982 0.000000
28.039955 -16.574087 0.000000
22.682288 -13.124106 0.000000
17.176254 -9.906727 0.000000
10.886882 -6.624258 0.000000
-1.354232 2.311717 0.000000
6.195289 -1.730854 0.000000
2.902353 1.598532 0.000000
-3.514001 7.121335 0.000000
-6.312651 12.439076 0.000000
-9.629388 17.704897 0.000000
-13.167182 23.112993 0.000000
-17.316643 28.185154 0.000000
-20.570724 33.474363 0.000000
-23.665921 39.063983 0.000000
-26.830914 44.585366 0.000000
-29.998765 50.000000 0.000000
44.528696 -19.930639 0.000000
50.000000 -23.331677 0.000000
39.036309 -16.594100 0.000000
33.576189 -13.281232 0.000000
28.150275 -9.964966 0.000000
22.725571 -6.604642 0.000000
17.264551 -3.336634 0.000000
11.944456 0.200170 0.000000
1.923552 6.264847 0.000000
6.961869 3.798471 0.000000
-0.217283 11.908137 0.000000
-3.262487 17.530223 0.000000
-6.700383 22.977573 0.000000
-10.567704 28.267449 0.000000
-13.723999 33.661353 0.000000
-16.945674 39.080335 0.000000
-20.140580 44.548441 0.000000
-23.331978 50.000000 0.000000
44.536277 -13.303754 0.000000
50.000000 -16.665128 0.000000
39.079907 -9.966717 0.000000
33.646730 -6.641099 0.000000
28.236180 -3.307631 0.000000
22.847317 0.017983 0.000000
17.535499 3.355211 0.000000
12.203149 6.592702 0.000000
6.703310 10.802985 0.000000
3.301570 17.196795 0.000000
-0.081289 22.852208 0.000000
-3.518641 28.312724 0.000000
-6.831383 33.774403 0.000000
-10.137412 39.170544 0.000000
-13.435751 44.563549 0.000000
-16.665451 50.000000 0.000000
44.554331 -6.654777 0.000000
50.000000 -9.998921 0.000000
39.123369 -3.321364 0.000000
33.713396 0.008751 0.000000
28.333230 3.344254 0.000000
23.001212 6.693823 0.000000
17.832882 10.021951 0.000000
12.656048 12.231956 0.000000
9.788928 17.234315 0.000000
6.478235 22.722401 0.000000
3.188828 28.269718 0.000000
-0.115945 33.734749 0.000000
-3.425206 39.168599 0.000000
-6.725460 44.581819 0.000000
-9.999162 50.000000 0.000000
44.575651 0.001865 0.000000
50.000000 -3.332979 0.000000
39.166865 3.331858 0.000000
33.779317 6.655564 0.000000
28.424106 9.994972 0.000000
23.046376 13.416412 0.000000
16.948939 17.022815 0.000000
12.901615 22.669713 0.000000
9.814878 28.232094 0.000000
6.604212 33.718742 0.000000
3.286527 39.164421 0.000000
-0.029901 44.584576 0.000000
-3.333061 50.000000 0.000000
44.586734 6.665500 0.000000
50.000000 3.332934 0.000000
39.198082 9.981923 0.000000
33.843412 13.277030 0.000000
28.541936 16.584704 0.000000
23.386940 20.084341 0.000000
18.531786 23.112477 0.000000
16.393116 28.298680 0.000000
13.328925 33.754777 0.000000
9.986550 39.181959 0.000000
6.665976 44.584351 0.000000
3.332979 50.000000 0.000000
44.608902 13.317933 0.000000
50.000000 9.999018 0.000000
39.251351 16.612441 0.000000
33.931873 19.862864 0.000000
28.612306 22.925996 0.000000
23.279618 27.207576 0.000000
19.901308 33.303061 0.000000
16.573801 39.040937 0.000000
13.268351 44.526752 0.000000
9.999058 50.000000 0.000000
44.632072 19.972993 0.000000
50.000000 16.665362 0.000000
39.298484 23.262138 0.000000
34.043794 26.514732 0.000000
28.965765 28.539460 0.000000
26.202377 33.410128 0.000000
23.066723 38.968828 0.000000
19.888592 44.507059 0.000000
16.665313 50.000000 0.000000
44.639808 26.642932 0.000000
50.000000 23.331950 0.000000
39.293368 29.966713 0.000000
33.212393 33.371283 0.000000
29.412135 39.045853 0.000000
26.422401 44.505973 0.000000
23.331864 50.000000 0.000000
44.774996 33.291809 0.000000
50.000000 29.998779 0.000000
39.738193 36.596317 0.000000
34.831066 39.525636 0.000000
32.833840 44.514303 0.000000
29.998685 50.000000 0.000000
44.978260 39.877874 0.000000
50.000000 36.665792 0.000000
39.734900 43.969045 0.000000
36.665709 50.000000 0.000000
45.621314 45.409822 0.000000
50.000000 43.332873 0.000000
43.332761 50.000000 0.000000
50.000000 50.000000 0.000000
CELLS 578 2312
3 1 0 2
3 0 3 2
3 4 1 6
3 6 1 2
3 3 5 7
3 3 7 2
3 6 2 7
3 9 4 10
3 10 4 6
3 5 8 11
3 7 5 11
3 10 6 12
3 12 6 7
3 7 11 13
3 7 13 12
3 8 14 15
3 11 8 15
3 16 9 17
3 17 9 10
3 17 10 18
3 18 10 12
3 11 15 19
3 13 11 19
3 18 12 20
3 13 19 20
3 20 12 13
3 14 22 24
3 15 14 24
3 15 24 25
3 19 15 25
3 21 16 26
3 26 16 17
3 26 17 27
3 27 17 18
3 27 18 28
3 28 18 20
3 19 25 29
3 19 29 20
3 28 20 30
3 30 20 29
3 31 21 32
3 32 21 26
3 22 23 36
3 24 22 36
3 23 34 37
3 36 23 37
3 24 36 38
3 25 24 38
3 25 38 39
3 29 25 39
3 32 26 40
3 40 26 27
3 40 27 41
3 41 27 28
3 41 28 42
3 42 28 30
3 29 39 43
3 29 43 30
3 42 30 43
3 33 31 44
3 44 31 32
3 44 32 45
3 45 32 40
3 46 33 47
3 47 33 44
3 34 35 50
3 37 34 50
3 35 48 51
3 50 35 51
3 36 37 52
3 38 36 52
3 37 50 53
3 52 37 53
3 38 52 54
3 39 38 54
3 39 54 55
3 43 39 55
3 45 40 56
3 56 40 41
3 56 41 57
3 57 41 42
3 57 42 58
3 58 42 43
3 43 55 59
3 43 59 58
3 47 44 60
3 60 44 45
3 60 45 61
3 61 45 56
3 62 46 63
3 63 46 47
3 63 47 64
3 64 47 60
3 48 49 68
3 51 48 68
3 49 66 69
3 68 49 69
3 50 51 70
3 53 50 70
3 51 68 71
3 70 51 71
3 52 53 72
3 54 52 72
3 53 70 73
3 72 53 73
3 54 72 74
3 55 54 74
3 55 74 75
3 59 55 75
3 61 56 76
3 76 56 57
3 76 57 77
3 77 57 58
3 77 58 78
3 59 75 78
3 78 58 59
3 64 60 79
3 79 60 61
3 79 61 80
3 80 61 76
3 65 62 81
3 81 62 63
3 81 63 82
3 82 63 64
3 82 64 83
3 83 64 79
3 84 65 85
3 85 65 81
3 66 67 89
3 69 66 89
3 67 87 90
3 89 67 90
3 68 69 91
3 71 68 91
3 69 89 92
3 91 69 92
3 70 71 93
3 73 70 93
3 71 91 94
3 93 71 94
3 72 73 95
3 74 72 95
3 73 93 96
3 95 73 96
3 74 95 97
3 75 74 97
3 75 97 98
3 78 75 98
3 80 76 99
3 99 76 77
3 99 77 100
3 100 77 78
3 100 78 101
3 98 101 78
3 83 79 102
3 102 79 80
3 102 80 103
3 103 80 99
3 85 81 104
3 104 81 82
3 105 83 102
3 104 82 106
3 106 82 83
3 106 83 105
3 86 84 107
3 107 84 85
3 107 85 108
3 108 85 104
3 109 86 107
3 110 86 109
3 87 88 112
3 90 87 112
3 112 88 113
3 88 114 113
3 90 112 115
3 89 90 116
3 92 89 116
3 116 90 115
3 91 92 117
3 94 91 117
3 92 116 118
3 117 92 118
3 93 94 119
3 96 93 119
3 94 117 120
3 119 94 120
3 95 96 121
3 97 95 121
3 96 119 122
3 121 96 122
3 97 121 123
3 98 97 123
3 98 123 124
3 98 124 101
3 103 99 125
3 125 99 100
3 125 100 126
3 126 100 101
3 126 101 124
3 105 102 127
3 127 102 103
3 127 103 128
3 128 103 125
3 129 105 127
3 108 104 130
3 130 104 106
3 130 106 131
3 131 106 105
3 131 105 129
3 108 130 132
3 109 107 133
3 133 107 108
3 133 108 134
3 108 132 134
3 135 109 133
3 111 110 136
3 136 110 109
3 136 109 135
3 137 111 136
3 138 111 137
3 112 113 139
3 115 112 139
3 114 140 113
3 140 139 113
3 139 141 115
3 116 115 142
3 118 116 142
3 142 115 141
3 117 118 143
3 120 117 143
3 118 142 144
3 143 118 144
3 119 120 145
3 122 119 145
3 120 143 146
3 145 120 146
3 121 122 147
3 123 121 147
3 122 145 148
3 147 122 148
3 123 147 149
3 124 123 149
3 124 149 150
3 151 126 124
3 124 150 151
3 128 125 152
3 152 125 126
3 152 126 151
3 129 127 153
3 153 127 128
3 128 152 154
3 153 128 154
3 155 129 153
3 131 129 156
3 156 129 155
3 132 130 157
3 130 131 157
3 157 131 158
3 131 156 158
3 132 157 159
3 132 159 134
3 135 133 160
3 160 133 134
3 160 134 159
3 136 135 161
3 135 160 161
3 162 137 136
3 161 162 136
3 163 138 137
3 162 163 137
3 139 164 141
3 140 165 139
3 139 165 164
3 141 164 166
3 141 166 142
3 166 167 142
3 144 142 167
3 167 168 144
3 143 144 168
3 146 143 168
3 168 169 146
3 145 146 170
3 148 145 170
3 170 146 169
3 147 148 171
3 149 147 171
3 148 170 172
3 171 148 172
3 173 151 150
3 149 171 174
3 150 149 174
3 150 174 175
3 150 175 173
3 154 152 176
3 152 151 176
3 176 151 173
3 154 176 177
3 155 153 178
3 177 178 154
3 154 178 153
3 156 155 179
3 155 178 179
3 180 158 156
3 179 180 156
3 181 159 157
3 180 181 158
3 181 157 158
3 182 160 159
3 181 182 159
3 183 161 160
3 182 183 160
3 184 162 161
3 184 161 183
3 185 163 162
3 184 185 162
3 164 186 166
3 165 187 164
3 164 187 186
3 166 186 188
3 166 188 167
3 167 188 189
3 167 189 168
3 168 189 190
3 168 190 169
3 169 190 191
3 169 191 170
3 192 172 170
3 170 191 192
3 192 193 172
3 171 172 193
3 174 171 193
3 194 173 175
3 176 173 194
3 175 174 195
3 193 195 174
3 195 196 175
3 175 196 194
3 197 177 176
3 194 197 176
3 198 178 177
3 197 198 177
3 199 179 178
3 198 199 178
3 200 180 179
3 199 200 179
3 201 181 180
3 200 201 180
3 202 182 181
3 201 202 181
3 203 183 182
3 202 203 182
3 204 184 183
3 203 204 183
3 205 185 184
3 204 205 184
3 186 206 188
3 187 207 186
3 186 207 206
3 188 206 208
3 188 208 189
3 189 208 209
3 189 209 190
3 190 209 210
3 190 210 191
3 191 210 211
3 191 211 192
3 192 211 212
3 192 212 193
3 193 212 213
3 193 213 195
3 214 197 194
3 214 194 196
3 195 213 215
3 195 215 196
3 196 215 214
3 216 198 197
3 214 216 197
3 217 199 198
3 216 217 198
3 218 200 199
3 217 218 199
3 219 201 200
3 218 219 200
3 220 202 201
3 219 220 201
3 221 203 202
3 220 221 202
3 222 204 203
3 221 222 203
3 223 205 204
3 222 223 204
3 206 224 208
3 207 225 206
3 206 225 224
3 208 224 226
3 208 226 209
3 209 226 227
3 209 227 210
3 210 227 228
3 210 228 211
3 211 228 229
3 211 229 212
3 212 229 230
3 212 230 213
3 213 230 231
3 213 231 215
3 232 216 214
3 215 231 232
3 232 214 215
3 233 217 216
3 232 233 216
3 234 218 217
3 233 234 217
3 235 219 218
3 234 235 218
3 236 220 219
3 235 236 219
3 237 221 220
3 236 237 220
3 238 222 221
3 237 238 221
3 239 223 222
3 238 239 222
3 224 240 226
3 225 241 224
3 224 241 240
3 226 240 242
3 226 242 227
3 227 242 243
3 227 243 228
3 228 243 244
3 228 244 229
3 244 245 229
3 229 245 230
3 230 245 246
3 230 246 231
3 231 246 247
3 231 247 232
3 248 233 232
3 248 232 247
3 249 234 233
3 248 249 233
3 250 235 234
3 249 250 234
3 251 236 235
3 250 251 235
3 252 237 236
3 251 252 236
3 253 238 237
3 252 253 237
3 254 239 238
3 253 254 238
3 240 255 242
3 241 256 240
3 240 256 255
3 242 255 257
3 242 257 243
3 243 257 258
3 243 258 244
3 244 258 259
3 244 259 245
3 245 259 260
3 245 260 246
3 246 260 261
3 246 261 247
3 248 247 261
3 262 249 248
3 261 262 248
3 263 250 249
3 262 263 249
3 264 251 250
3 263 264 250
3 265 252 251
3 264 265 251
3 266 253 252
3 265 266 252
3 267 254 253
3 266 267 253
3 255 268 257
3 256 269 255
3 255 269 268
3 257 268 270
3 257 270 258
3 258 270 271
3 258 271 259
3 259 271 272
3 259 272 260
3 260 272 273
3 260 273 261
3 274 262 261
3 261 273 274
3 275 263 262
3 274 275 262
3 276 264 263
3 275 276 263
3 277 265 264
3 276 277 264
3 278 266 265
3 277 278 265
3 279 267 266
3 278 279 266
3 268 280 270
3 269 281 268
3 268 281 280
3 270 280 282
3 270 282 271
3 271 282 283
3 271 283 272
3 283 284 272
3 272 284 273
3 285 275 274
3 273 284 285
3 285 274 273
3 286 276 275
3 285 286 275
3 287 277 276
3 286 287 276
3 288 278 277
3 287 288 277
3 289 279 278
3 288 289 278
3 280 290 282
3 281 291 280
3 280 291 290
3 282 290 292
3 282 292 283
3 283 292 293
3 283 293 284
3 284 293 294
3 284 294 285
3 295 286 285
3 295 285 294
3 296 287 286
3 295 296 286
3 297 288 287
3 296 297 287
3 298 289 288
3 297 298 288
3 290 299 292
3 291 300 290
3 290 300 299
3 292 299 301
3 292 301 293
3 293 301 302
3 293 302 294
3 294 302 295
3 303 296 295
3 303 295 302
3 304 297 296
3 303 304 296
3 305 298 297
3 304 305 297
3 299 306 301
3 300 307 299
3 299 307 306
3 301 306 308
3 301 308 302
3 309 303 302
3 302 308 309
3 310 304 303
3 309 310 303
3 311 305 304
3 310 311 304
3 306 312 308
3 307 313 306
3 306 313 312
3 314 310 309
3 308 312 314
3 314 309 308
3 315 311 310
3 314 315 310
3 312 316 314
3 313 317 312
3 312 317 316
3 318 315 314
3 318 314 316
3 317 319 316
3 319 318 316
CELL_TYPES 578
5
5
5
5
5
5
5
5
5
5
5
5
5
5
5
5
5
5
5
5
5
5
5
5
5
5
5
5
5
5
5
5
5
5
5
5
5
5
5
5
5
5
5
5
5
5
5
5
5
5
5
5
5
5
5
5
5
5
5
5
5
5
5
5
5
5
5
5
5
5
5
5
5
5
5
5
5
5
5
5
5
5
5
5
5
5
5
5
5
5
5
5
5
5
5
5
5
5
5
5
5
5
5
5
5
5
5
5
5
5
5
5
5
5
5
5
5
5
5
5
5
5
5
5
5
5
5
5
5
5
5
5
5
5
5
5
5
5
5
5
5
5
5
5
5
5
5
5
5
5
5
5
5
5
5
5
5
5
5
5
5
5
5
5
5
5
5
5
5
5
5
5
5
5
5
5
5
5
5
5
5
5
5
5
5
5
5
5
5
5
5
5
5
5
5
5
5
5
5
5
5
5
5
5
5
5
5
5
5
5
5
5
5
5
5
5
5
5
5
5
5
5
5
5
5
5
5
5
5
5
5
5
5
5
5
5
5
5
5
5
5
5
5
5
5
5
5
5
5
5
5
5
5
5
5
5
5
5
5
5
5
5
5
5
5
5
5
5
5
5
5
5
5
5
5
5
5
5
5
5
5
5
5
5
5
5
5
5
5
5
5
5
5
5
5
5
5
5
5
5
5
5
5
5
5
5
5
5
5
5
5
5
5
5
5
5
5
5
5
5
5
5
5
5
5
5
5
5
5
5
5
5
5
5
5
5
5
5
5
5
5
5
5
5
5
5
5
5
5
5
5
5
5
5
5
5
5
5
5
5
5
5
5
5
5
5
5
5
5
5
5
5
5
5
5
5
5
5
5
5
5
5
5
5
5
5
5
5
5
5
5
5
5
5
5
5
5
5
5
5
5
5
5
5
5
5
5
5
5
5
5
5
5
5
5
5
5
5
5
5
5
5
5
5
5
5
5
5
5
5
5
5
5
5
5
5
5
5
5
5
5
5
5
5
5
5
5
5
5
5
5
5
5
5
5
5
5
5
5
5
5
5
5
5
5
5
5
5
5
5
5
5
5
5
5
5
5
5
5
5
5
5
5
5
5
5
5
5
5
5
5
5
5
5
5
5
5
5
5
5
5
5
5
5
5
5
5
5
5
5
5
5
5
5
5
5
5
5
5
5
5
5
5
5
5
5
5
5
5
5
5
5
5
5
5
5
5
5
5
5
5
5
5
5
5
5
5
5
5
5
5
5
5
5
5
5
5
5
5
5
5
5
5
5
5
5
5
5
5
5
5
5
5
5
5
5
5
5
POINT_DATA 320
SCALARS theta_e float 1
LOOKUP_TABLE default
1.000001
1.000001
1.000001
1.000001
1.000001
1.000001
1.000001
1.000001
1.000001
1.000001
1.000001
1.000001
1.000001
1.000001
1.000001
1.000001
1.000001
1.000001
1.000001
1.000001
1.000001
1.000001
1.000001
1.000001
1.000001
1.000001
1.000001
1.000001
1.000001
1.000001
1.000001
1.000001
1.000001
1.000001
1.000001
1.000001
1.000001
1.000001
1.000001
1.000001
1.000001
1.000001
1.000001
1.000001
1.000001
1.000001
1.000001
1.000001
1.000001
1.000001
1.000001
1.000001
1.000001
1.000001
1.000001
1.000001
1.000001
1.000001
1.000001
1.000001
1.000001
1.000001
1.000001
1.000001
1.000001
1.000001
1.000001
1.000001
1.000001
1.000001
1.000001
1.000001
1.000001
1.000001
1.000001
1.000001
1.000001
1.000001
1.000001
1.000001
1.000001
1.000001
1.000001
1.000001
1.000001
1.000001
1.000001
1.000001
1.000001
1.000001
1.000001
1.000001
1.000001
1.000001
1.000001
1.000001
1.000001
1.000001
1.000001
1.000001
1.000001
1.000001
1.000001
1.000001
1.000001
1.000001
1.000001
1.000001
1.000001
1.000001
1.000001
1.000001
1.000001
1.000001
1.000001
1.000001
1.000001
1.000001
1.000001
1.000001
1.000001
1.000001
1.000001
1.000001
0.999995
1.000002
0.999999
1.000001
1.000002
1.000001
1.000001
1.000001
1.000001
1.000001
1.000001
1.000001
1.000001
1.000001
1.000001
1.000001
1.000001
1.000001
1.000001
1.000001
1.000001
1.000001
1.000001
1.000001
1.000001
0.999994
0.999975
0.999983
0.999996
1.000001
0.999998
1.000001
1.000001
1.000001
1.000001
1.000001
1.000001
1.000001
1.000001
1.000001
1.000001
1.000001
1.000001
1.000001
1.000001
1.000001
1.000001
0.999999
1.000001
0.999964
0.999982
0.999966
0.999978
0.999993
1.000001
1.000001
1.000001
1.000001
1.000001
1.000001
1.000001
1.000001
1.000001
1.000001
1.000001
1.000001
1.000001
1.000001
1.000002
0.999996
0.999965
0.999976
0.999966
0.999978
0.999998
1.000001
1.000001
1.000001
1.000001
1.000001
1.000001
1.000001
1.000001
1.000001
1.000001
1.000001
1.000001
1.000001
1.000001
0.999994
0.999976
0.999983
0.999994
1.000001
1.000001
1.000001
1.000001
1.000001
1.000001
1.000001
1.000001
1.000001
1.000001
1.000001
1.000001
1.000001
1.000001
0.999998
0.999995
1.000001
1.000001
1.000001
1.000001
1.000001
1.000001
1.000001
1.000001
1.000001
1.000001
1.000001
1.000001
1.000001
1.000001
1.000001
1.000001
1.000001
1.000001
1.000001
1.000001
1.000001
1.000001
1.000001
1.000001
1.000001
1.000001
1.000001
1.000001
1.000001
1.000001
1.000001
1.000001
1.000001
1.000001
1.000001
1.000001
1.000001
1.000001
1.000001
1.000001
1.000001
1.000001
1.000001
1.000001
1.000001
1.000001
1.000001
1.000001
1.000001
1.000001
1.000001
1.000001
1.000001
1.000001
1.000001
1.000001
1.000001
1.000001
1.000001
1.000001
1.000001
1.000001
1.000001
1.000001
1.000001
1.000001
1.000001
1.000001
1.000001
1.000001
1.000001
1.000001
1.000001
1.000001
1.000001
1.000001
1.000001
1.000001
1.000001
1.000001
1.000001
1.000001
1.000001
1.000001
1.000001
1.000001
1.000001
VECTORS fa_u float
0.000000 0.000000 0.000000
0.000000 0.000000 0.000000
0.000000 0.000000 0.000000
0.000000 0.000000 0.000000
0.000000 0.000000 0.000000
0.000000 0.000000 0.000000
0.000000 0.000000 0.000000
0.000000 0.000000 0.000000
0.000000 0.000000 0.000000
0.000000 0.000000 0.000000
0.000000 0.000000 0.000000
0.000000 0.000000 0.000000
0.000000 0.000000 0.000000
0.000000 0.000000 0.000000
0.000000 0.000000 0.000000
0.000000 0.000000 0.000000
0.000000 0.000000 0.000000
0.000000 0.000000 0.000000
0.000000 0.000000 0.000000
0.000000 0.000000 0.000000
0.000000 0.000000 0.000000
0.000000 0.000000 0.000000
0.000000 0.000000 0.000000
0.000000 0.000000 0.000000
0.000000 0.000000 0.000000
0.000000 0.000000 0.000000
0.000000 0.000000 0.000000
0.000000 0.000000 0.000000
0.000000 0.000000 0.000000
0.000000 0.000000 0.000000
0.000000 0.000000 0.000000
0.000000 0.000000 0.000000
0.000000 0.000000 0.000000
0.000000 0.000000 0.000000
0.000000 0.000000 0.000000
0.000000 0.000000 0.000000
0.000000 0.000000 0.000000
0.000000 0.000000 0.000000
0.000000 0.000000 0.000000
0.000000 0.000000 0.000000
0.000000 0.000000 0.000000
0.000000 0.000000 0.000000
0.000000 0.000000 0.000000
0.000000 0.000000 0.000000
0.000000 0.000000 0.000000
0.000000 0.000000 0.000000
0.000000 0.000000 0.000000
0.000000 0.000000 0.000000
0.000000 0.000000 0.000000
0.000000 0.000000 0.000000
0.000000 0.000000 0.000000
0.000000 0.000000 0.000000
0.000000 0.000000 0.000000
0.000000 0.000000 0.000000
0.000000 0.000000 0.000000
0.000000 0.000000 0.000000
0.000000 0.000000 0.000000
0.000000 0.000000 0.000000
0.000000 0.000000 0.000000
0.000000 0.000000 0.000000
0.000000 0.000000 0.000000
0.000000 0.000000 0.000000
0.000000 0.000000 0.000000
0.000000 0.000000 0.000000
0.000000 0.000000 0.000000
0.000000 0.000000 0.000000
0.000000 0.000000 0.000000
0.000000 0.000000 0.000000
0.000000 0.000000 0.000000
0.000000 0.000000 0.000000
0.000000 0.000000 0.000000
0.000000 0.000000 0.000000
0.000000 0.000000 0.000000
0.000000 0.000000 0.000000
0.000000 0.000000 0.000000
0.000000 0.000000 0.000000
0.000000 0.000000 0.000000
0.000000 0.000000 0.000000
0.000000 0.000000 0.000000
0.000000 0.000000 0.000000
0.000000 0.000000 0.000000
0.000000 0.000000 0.000000
0.000000 0.000000 0.000000
0.000000 0.000000 0.000000
0.000000 0.000000 0.000000
0.000000 0.000000 0.000000
0.000000 0.000000 0.000000
0.000000 0.000000 0.000000
0.000000 0.000000 0.000000
0.000000 0.000000 0.000000
0.000000 0.000000 0.000000
0.000000 0.000000 0.000000
0.000000 0.000000 0.000000
0.000000 0.000000 0.000000
0.000000 0.000000 0.000000
0.000000 0.000000 0.000000
0.000000 0.000000 0.000000
0.000000 0.000000 0.000000
0.000000 0.000000 0.000000
0.000000 0.000000 0.000000
0.000000 0.000000 0.000000
0.000000 0.000000 0.000000
0.000000 0.000000 0.000000
0.000000 0.000000 0.000000
0.000000 0.000000 0.000000
0.000000 0.000000 0.000000
0.000000 0.000000 0.000000
0.000000 0.000000 0.000000
0.000000 0.000000 0.000000
0.000000 0.000000 0.000000
0.000000 0.000000 0.000000
0.000000 0.000000 0.000000
0.000000 0.000000 0.000000
0.000000 0.000000 0.000000
0.000000 0.000000 0.000000
0.000000 0.000000 0.000000
0.000000 0.000000 0.000000
0.000000 0.000000 0.000000
0.000000 0.000000 0.000000
0.000000 0.000000 0.000000
0.000000 0.000000 0.000000
0.000000 0.000000 0.000000
0.000000 0.000000 0.000000
0.000000 0.000000 0.000000
0.000000 0.000000 0.000000
0.000000 0.000000 0.000000
0.000000 0.000000 0.000000
0.000000 0.000000 0.000000
0.000000 0.000000 0.000000
0.000000 0.000000 0.000000
0.000000 0.000000 0.000000
0.000000 0.000000 0.000000
0.000000 0.000000 0.000000
0.000000 0.000000 0.000000
0.000000 0.000000 0.000000
0.000000 0.000000 0.000000
0.000000 0.000000 0.000000
0.000000 0.000000 0.000000
0.000000 0.000000 0.000000
0.000000 0.000000 0.000000
0.000000 0.000000 0.000000
0.000000 0.000000 0.000000
0.000000 0.000000 0.000000
0.000000 0.000000 0.000000
0.000000 0.000000 0.000000
0.000000 0.000000 0.000000
0.000000 0.000000 0.000000
0.000000 0.000000 0.000000
0.000000 0.000000 0.000000
0.000000 0.000000 0.000000
0.000000 0.000000 0.000000
0.000000 0.000000 0.000000
0.000000 0.000000 0.000000
0.000000 0.000000 0.000000
0.000000 0.000000 0.000000
0.000000 0.000000 0.000000
0.000000 0.000000 0.000000
0.000000 0.000000 0.000000
0.000000 0.000000 0.000000
0.000000 0.000000 0.000000
0.000000 0.000000 0.000000
0.000000 0.000000 0.000000
0.000000 0.000000 0.000000
0.000000 0.000000 0.000000
0.000000 0.000000 0.000000
0.000000 0.000000 0.000000
0.000000 0.000000 0.000000
0.000000 0.000000 0.000000
0.000000 0.000000 0.000000
0.000000 0.000000 0.000000
0.000000 0.000000 0.000000
0.000000 0.000000 0.000000
0.000000 0.000000 0.000000
0.000000 0.000000 0.000000
0.000000 0.000000 0.000000
0.000000 0.000000 0.000000
0.000000 0.000000 0.000000
0.000000 0.000000 0.000000
0.000000 0.000000 0.000000
0.000000 0.000000 0.000000
0.000000 0.000000 0.000000
0.000000 0.000000 0.000000
0.000000 0.000000 0.000000
0.000000 0.000000 0.000000
0.000000 0.000000 0.000000
0.000000 0.000000 0.000000
0.000000 0.000000 0.000000
0.000000 0.000000 0.000000
0.000000 0.000000 0.000000
0.000000 0.000000 0.000000
0.000000 0.000000 0.000000
0.000000 0.000000 0.000000
0.000000 0.000000 0.000000
0.000000 0.000000 0.000000
0.000000 0.000000 0.000000
0.000000 0.000000 0.000000
0.000000 0.000000 0.000000
0.000000 0.000000 0.000000
0.000000 0.000000 0.000000
0.000000 0.000000 0.000000
0.000000 0.000000 0.000000
0.000000 0.000000 0.000000
0.000000 0.000000 0.000000
0.000000 0.000000 0.000000
0.000000 0.000000 0.000000
0.000000 0.000000 0.000000
0.000000 0.000000 0.000000
0.000000 0.000000 0.000000
0.000000 0.000000 0.000000
0.000000 0.000000 0.000000
0.000000 0.000000 0.000000
0.000000 0.000000 0.000000
0.000000 0.000000 0.000000
0.000000 0.000000 0.000000
0.000000 0.000000 0.000000
0.000000 0.000000 0.000000
0.000000 0.000000 0.000000
0.000000 0.000000 0.000000
0.000000 0.000000 0.000000
0.000000 0.000000 0.000000
0.000000 0.000000 0.000000
0.000000 0.000000 0.000000
0.000000 0.000000 0.000000
0.000000 0.000000 0.000000
0.000000 0.000000 0.000000
0.000000 0.000000 0.000000
0.000000 0.000000 0.000000
0.000000 0.000000 0.000000
0.000000 0.000000 0.000000
0.000000 0.000000 0.000000
0.000000 0.000000 0.000000
0.000000 0.000000 0.000000
0.000000 0.000000 0.000000
0.000000 0.000000 0.000000
0.000000 0.000000 0.000000
0.000000 0.000000 0.000000
0.000000 0.000000 0.000000
0.000000 0.000000 0.000000
0.000000 0.000000 0.000000
0.000000 0.000000 0.000000
0.000000 0.000000 0.000000
0.000000 0.000000 0.000000
0.000000 0.000000 0.000000
0.000000 0.000000 0.000000
0.000000 0.000000 0.000000
0.000000 0.000000 0.000000
0.000000 0.000000 0.000000
0.000000 0.000000 0.000000
0.000000 0.000000 0.000000
0.000000 0.000000 0.000000
0.000000 0.000000 0.000000
0.000000 0.000000 0.000000
0.000000 0.000000 0.000000
0.000000 0.000000 0.000000
0.000000 0.000000 0.000000
0.000000 0.000000 0.000000
0.000000 0.000000 0.000000
0.000000 0.000000 0.000000
0.000000 0.000000 0.000000
0.000000 0.000000 0.000000
0.000000 0.000000 0.000000
0.000000 0.000000 0.000000
0.000000 0.000000 0.000000
0.000000 0.000000 0.000000
0.000000 0.000000 0.000000
0.000000 0.000000 0.000000
0.000000 0.000000 0.000000
0.000000 0.000000 0.000000
0.000000 0.000000 0.000000
0.000000 0.000000 0.000000
0.000000 0.000000 0.000000
0.000000 0.000000 0.000000
0.000000 0.000000 0.000000
0.000000 0.000000 0.000000
0.000000 0.000000 0.000000
0.000000 0.000000 0.000000
0.000000 0.000000 0.000000
0.000000 0.000000 0.000000
0.000000 0.000000 0.000000
0.000000 0.000000 0.000000
0.000000 0.000000 0.000000
0.000000 0.000000 0.000000
0.000000 0.000000 0.000000
0.000000 0.000000 0.000000
0.000000 0.000000 0.000000
0.000000 0.000000 0.000000
0.000000 0.000000 0.000000
0.000000 0.000000 0.000000
0.000000 0.000000 0.000000
0.000000 0.000000 0.000000
0.000000 0.000000 0.000000
0.000000 0.000000 0.000000
0.000000 0.000000 0.000000
0.000000 0.000000 0.000000
0.000000 0.000000 0.000000
0.000000 0.000000 0.000000
0.000000 0.000000 -50.000000
-50.000000 0.000000 -50.000000
-43.332913 0.000000 -45.688409
-45.491165 0.000000 -43.332849
-50.000000 0.000000 -50.000000
-36.665802 0.000000 -36.665818
-50.000000 0.000000 -45.081144
-39.969797 0.000000 -40.027225
-44.152291 0.000000 -29.998755
-50.000000 0.000000 -50.000000
-29.998731 0.000000 -44.847111
-33.448924 0.000000 -33.144945
-44.675702 0.000000 -39.869156
-36.787000 0.000000 -35.128693
-39.801323 0.000000 -23.331859
-50.000000 0.000000 -26.539190
-44.666748 0.000000 -50.000000
-23.331848 0.000000 -44.665281
-26.803936 0.000000 -39.364260
-30.225689 0.000000 -29.606316
-39.359374 0.000000 -33.368275
-33.655460 0.000000 -50.000000
-16.665238 0.000000 -16.665275
-50.000000 0.000000 -9.999013
