# vtk DataFile Version 2.0
CellBP Time: 1.52
ASCII
DATASET UNSTRUCTURED_GRID
POINTS 296 double
-8.7269 -4.30631 0
-8.24947 -5.25082 0
-9.32821 -2.89794 0
-9.56386 -1.54382 0
-8.11414 -3.01992 0
-7.58042 -6.4179 0
-6.72468 -7.25863 0
-7.49603 -4.29498 0
-6.87739 -5.29586 0
-5.74992 -8.26638 0
-4.59459 -8.9808 0
-9.57358 -0.227831 0
-9.70754 1.18044 0
-8.1042 -1.84578 0
-8.53096 -0.874356 0
-7.10215 -2.45481 0
-6.88191 -3.28227 0
-6.19974 -6.19943 0
-5.41909 -6.97371 0
-6.37567 -4.30746 0
-5.63979 -5.02194 0
-3.46706 -9.61377 0
-2.08149 -10.0834 0
-4.53161 -7.62964 0
-3.52131 -8.22417 0
-8.61928 0.321649 0
-9.12803 2.23355 0
-8.23334 1.42028 0
-8.97186 3.47088 0
-7.20411 -1.36191 0
-7.40781 -0.366314 0
-6.3411 -1.66 0
-0.955887 -10.2808 0
-5.8973 -2.52254 0
-5.67093 -3.42871 0
-5.26086 -5.91899 0
-4.36834 -6.34537 0
-4.99845 -4.22737 0
-4.67887 -5.10488 0
-2.61751 -8.63338 0
-1.64944 -8.89415 0
-3.58353 -7.04572 0
-2.58624 -7.29652 0
0.42952 -10.1886 0
-7.46856 0.728214 0
-7.68596 2.39741 0
-7.06137 1.6395 0
-8.42868 4.86833 0
-7.53108 3.70802 0
-7.67653 5.75851 0
-6.32804 -0.846319 0
-6.66696 0.136374 0
-5.32312 -1.3091 0
-0.3477 -9.26854 0
0.84238 -8.93146 0
-4.83002 -2.78594 0
-3.86257 -5.21997 0
-3.48046 -5.96948 0
-3.97261 -3.99439 0
-1.67322 -7.73231 0
-0.917838 -8.06382 0
-2.53973 -6.34961 0
-1.8843 -6.76721 0
1.77967 -10.2211 0
-6.45444 0.99923 0
-6.94339 2.8622 0
-6.2893 2.01668 0
-6.79744 4.45824 0
-6.37282 3.70318 0
-6.77313 6.76207 0
-6.3218 5.58644 0
-5.76774 7.64268 0
-3.79305 -1.44183 0
-5.39121 0.0740299 0
-4.1361 -0.447241 0
0.292559 -8.02074 0
1.83052 -8.72521 0
1.2638 -8.16705 0
-3.55993 -2.62418 0
-2.95171 -1.70715 0
-2.82915 -4.88257 0
-2.83709 -3.49853 0
-1.12577 -6.83244 0
-0.25638 -7.26625 0
-1.46064 -5.7464 0
2.94251 -9.8783 0
-5.21778 1.69478 0
-5.77177 2.83213 0
-5.69286 4.61426 0
-5.34957 3.68764 0
-5.59173 6.60264 0
-5.22487 5.46818 0
-4.67348 8.42643 0
-4.4243 7.16703 0
-2.96359 -0.583302 0
-4.02961 0.747301 0
-3.16761 0.258562 0
-3.5899 2.10253 0
-3.45904 9.01851 0
3.11396 -8.55306 0
0.737283 -6.87896 0
2.48126 -7.88929 0
1.69509 -7.11547 0
-1.85 -1.18371 0
-2.3023 -2.42549 0
-1.86792 -4.14545 0
-1.93076 -3.22668 0
-0.0949904 -6.1408 0
-0.82628 -4.60931 0
4.31647 -9.57058 0
-4.42475 3.10577 0
-4.82278 4.42557 0
-4.25295 5.96815 0
-4.04755 5.05414 0
-3.32223 7.821 0
-3.29699 6.46753 0
-2.33948 8.18061 0
-1.26121 -0.456648 0
-0.983165 -1.19639 0
-1.88419 0.407639 0
-2.7722 1.26646 0
-2.75311 2.99813 0
-2.60896 1.94577 0
-0.832902 0.321788 0
-2.239 9.64786 0
4.27771 -8.15849 0
3.34602 -7.37912 0
1.39479 -6.1118 0
2.58853 -6.85394 0
-1.16173 -2.20473 0
-0.857022 -3.49153 0
0.452991 -5.12002 0
-0.0366796 -3.98504 0
5.20115 -7.54293 0
5.46165 -8.91942 0
-3.34245 4.27858 0
-3.23024 5.50032 0
-2.4999 6.9486 0
-2.5872 6.06858 0
-1.17148 8.44556 0
-1.66869 7.31291 0
-1.90635 3.81221 0
-0.164797 -1.57167 0
-0.335771 -0.603946 0
-1.59366 1.26091 0
-1.75124 2.24005 0
-0.997558 3.32822 0
-0.488396 1.05179 0
0.0379466 0.16243 0
-0.118356 8.61471 0
-1.04532 9.82875 0
1.41485 -4.99387 0
4.2403 -6.83678 0
3.40645 -6.23162 0
2.52737 -5.74261 0
5.15338 -6.36596 0
-0.080944 -2.76207 0
1.11031 -3.93352 0
0.559425 -2.09532 0
1.96045 -4.04951 0
6.26165 -6.78124 0
6.66977 -8.16828 0
-1.98908 5.06569 0
-1.62218 6.14826 0
-0.500985 7.56508 0
-0.814377 6.62774 0
0.467485 7.62143 0
-0.634706 4.07478 0
0.75314 -1.13212 0
-0.461262 2.04248 0
0.0544251 3.04917 0
0.552455 1.06816 0
1.06574 0.176283 0
1.1362 8.72667 0
0.492469 9.91483 0
2.90432 -4.49514 0
4.32891 -5.84767 0
3.44386 -5.39211 0
6.02821 -5.70808 0
5.09251 -5.41006 0
1.02205 -2.69671 0
1.65362 -3.37609 0
1.22905 -1.90898 0
2.61629 -3.53995 0
3.39302 -3.7266 0
6.39578 -4.87619 0
6.95353 -6.04993 0
7.53358 -7.43355 0
-0.294305 5.62836 0
-0.00973356 6.57866 0
1.56269 7.39607 0
0.946216 6.81599 0
0.373638 4.45678 0
0.955918 3.38178 0
1.80162 -1.18146 0
0.888109 2.06686 0
1.41745 1.22408 0
2.22348 -0.0216394 0
1.92006 0.80534 0
2.4201 7.19954 0
2.08346 8.64294 0
1.74137 9.92872 0
4.22533 -4.48466 0
5.36906 -4.52181 0
6.15162 -4.0682 0
4.11571 -3.32718 0
2.39079 -2.44611 0
3.35338 -2.71163 0
7.09923 -4.1018 0
7.6548 -5.08309 0
8.275 -6.32969 0
0.983891 5.47946 0
1.75976 6.29004 0
2.77892 6.26467 0
1.4669 4.19376 0
1.83959 3.09464 0
2.66159 -0.864699 0
3.20034 -0.116927 0
2.20771 1.82426 0
2.95378 0.863604 0
3.50308 6.91079 0
3.02122 8.30055 0
2.96015 9.49459 0
5.16324 -3.45242 0
6.31997 -3.23177 0
4.49202 -2.42199 0
3.44091 -1.72188 0
6.89451 -2.44007 0
7.5929 -3.14157 0
8.32 -4.12706 0
9.25414 -5.13513 0
2.55179 5.02344 0
3.38274 5.69613 0
2.63469 3.79349 0
2.82366 2.89398 0
3.76057 -0.828986 0
3.91469 0.310125 0
3.30934 2.0909 0
3.84362 1.2524 0
4.29946 5.60462 0
4.33554 6.51771 0
4.26732 7.71471 0
4.06173 9.16539 0
5.82757 -2.02257 0
4.66936 -1.39213 0
7.09513 -1.49533 0
7.98932 -2.08513 0
8.64766 -3.0212 0
9.63309 -3.98241 0
3.80533 4.41117 0
3.76917 3.12919 0
4.97005 -0.167239 0
4.76842 0.980166 0
4.356 2.2379 0
4.88266 4.85905 0
5.05244 5.88954 0
5.21046 7.38 0
5.39372 8.5438 0
6.27381 -0.688426 0
7.24482 -0.548789 0
8.04489 -1.20081 0
9.27501 -1.99131 0
10.3132 -2.78505 0
4.9471 3.58687 0
6.08387 0.922629 0
5.67764 1.9577 0
5.74764 4.31629 0
5.84508 5.22618 0
6.21062 6.53057 0
6.76248 7.6817 0
7.23987 0.252 0
8.35277 -0.280979 0
9.30933 -0.905226 0
10.5217 -1.52886 0
7.33968 1.08265 0
5.90553 3.44506 0
6.93386 1.98985 0
6.52572 2.84037 0
6.62008 4.49854 0
6.88399 5.47649 0
7.56394 6.89468 0
8.18651 0.73078 0
9.33017 0.314191 0
10.597 -0.192221 0
7.94945 1.68607 0
6.83703 3.5017 0
7.47396 2.64405 0
7.55452 4.70905 0
8.30949 5.85819 0
9.06134 1.38172 0
10.3453 1.17373 0
8.53684 2.6215 0
8.06395 3.68043 0
8.90206 4.80267 0
10.1647 2.59083 0
9.59205 3.64033 0
CELLS 542 2168
3 2 0 4
3 0 1 7
3 4 0 7
3 1 5 8
3 7 1 8
3 3 2 13
3 13 2 4
3 11 3 14
3 14 3 13
3 13 4 15
3 4 7 16
3 15 4 16
3 5 6 17
3 8 5 17
3 6 9 18
3 17 6 18
3 7 8 19
3 16 7 19
3 8 17 20
3 19 8 20
3 9 10 23
3 18 9 23
3 10 21 24
3 23 10 24
3 12 11 25
3 25 11 14
3 26 12 27
3 27 12 25
3 14 13 29
3 29 13 15
3 25 14 30
3 30 14 29
3 29 15 31
3 15 16 33
3 31 15 33
3 16 19 34
3 33 16 34
3 17 18 35
3 20 17 35
3 18 23 36
3 35 18 36
3 19 20 37
3 34 19 37
3 20 35 38
3 37 20 38
3 21 22 39
3 24 21 39
3 22 32 40
3 39 22 40
3 23 24 41
3 36 23 41
3 24 39 42
3 41 24 42
3 27 25 44
3 44 25 30
3 28 26 45
3 45 26 27
3 45 27 46
3 46 27 44
3 47 28 48
3 48 28 45
3 30 29 50
3 50 29 31
3 44 30 51
3 51 30 50
3 50 31 52
3 31 33 52
3 32 43 53
3 40 32 53
3 53 43 54
3 33 34 55
3 34 37 55
3 33 55 52
3 36 41 57
3 56 36 57
3 37 38 58
3 38 56 58
3 37 58 55
3 39 40 59
3 42 39 59
3 40 53 60
3 59 40 60
3 41 42 61
3 57 41 61
3 42 59 62
3 61 42 62
3 43 63 54
3 46 44 64
3 64 44 51
3 48 45 65
3 65 45 46
3 65 46 66
3 66 46 64
3 49 47 67
3 67 47 48
3 67 48 68
3 68 48 65
3 69 49 70
3 70 49 67
3 52 55 72
3 64 51 73
3 51 50 73
3 50 52 73
3 73 52 74
3 74 52 72
3 53 54 75
3 60 53 75
3 54 63 76
3 54 76 77
3 75 54 77
3 55 58 78
3 72 55 78
3 72 78 79
3 56 57 80
3 57 61 80
3 56 80 58
3 58 80 81
3 78 58 81
3 59 60 82
3 62 59 82
3 60 75 83
3 82 60 83
3 61 62 84
3 62 82 84
3 61 84 80
3 63 85 76
3 66 64 86
3 64 73 86
3 68 65 87
3 87 65 66
3 87 66 86
3 70 67 88
3 88 67 68
3 88 68 89
3 89 68 87
3 71 69 90
3 90 69 70
3 90 70 91
3 91 70 88
3 92 71 93
3 93 71 90
3 74 72 94
3 94 72 79
3 86 73 95
3 95 73 74
3 95 74 96
3 96 74 94
3 97 86 95
3 76 85 99
3 75 77 100
3 83 75 100
3 76 99 101
3 77 76 101
3 77 101 102
3 100 77 102
3 94 79 103
3 78 81 104
3 79 78 104
3 79 104 103
3 80 84 105
3 81 80 105
3 81 105 106
3 104 81 106
3 82 83 107
3 83 100 107
3 82 107 84
3 84 107 108
3 105 84 108
3 85 109 99
3 89 87 110
3 87 86 110
3 110 86 97
3 91 88 111
3 111 88 89
3 111 89 110
3 93 90 112
3 112 90 91
3 112 91 113
3 113 91 111
3 98 92 114
3 114 92 93
3 114 93 115
3 115 93 112
3 116 98 114
3 117 103 118
3 96 94 119
3 94 103 119
3 119 103 117
3 97 95 120
3 120 95 96
3 120 96 119
3 121 110 97
3 121 97 122
3 122 97 120
3 123 119 117
3 124 98 116
3 99 109 125
3 99 125 126
3 101 99 126
3 100 102 127
3 100 127 107
3 101 126 128
3 102 101 128
3 102 128 127
3 104 106 129
3 104 129 103
3 103 129 118
3 105 108 130
3 106 105 130
3 106 130 129
3 107 127 131
3 108 107 131
3 108 131 132
3 108 132 130
3 109 134 125
3 125 134 133
3 113 111 135
3 111 110 135
3 135 110 121
3 115 112 136
3 136 112 113
3 136 113 135
3 116 114 137
3 137 114 115
3 137 115 138
3 138 115 136
3 139 124 116
3 139 116 140
3 140 116 137
3 141 135 121
3 118 129 142
3 118 142 143
3 117 118 143
3 123 117 143
3 122 120 144
3 120 119 144
3 144 119 123
3 141 121 145
3 145 121 122
3 145 122 144
3 146 141 145
3 147 144 123
3 147 123 148
3 143 148 123
3 150 124 139
3 149 150 139
3 131 127 151
3 125 133 152
3 126 125 152
3 126 152 153
3 128 126 153
3 128 153 154
3 128 154 127
3 127 154 151
3 152 133 155
3 130 132 156
3 130 156 129
3 129 156 142
3 131 151 157
3 132 131 157
3 156 158 142
3 157 151 159
3 133 160 155
3 134 161 133
3 133 161 160
3 138 136 162
3 136 135 162
3 162 135 141
3 140 137 163
3 163 137 138
3 163 138 162
3 149 139 164
3 164 139 140
3 164 140 165
3 165 140 163
3 166 149 164
3 167 162 141
3 167 141 146
3 142 158 168
3 143 142 168
3 143 168 148
3 146 145 169
3 145 144 169
3 169 144 147
3 170 167 146
3 170 146 169
3 171 169 147
3 171 147 148
3 171 148 172
3 168 172 148
3 173 149 166
3 174 150 149
3 173 174 149
3 154 175 151
3 151 175 159
3 152 155 176
3 153 152 176
3 153 176 177
3 153 177 154
3 154 177 175
3 155 160 178
3 155 178 179
3 176 155 179
3 156 180 158
3 157 159 181
3 157 181 180
3 158 180 182
3 158 182 168
3 159 175 183
3 159 183 181
3 175 184 183
3 160 186 178
3 178 186 185
3 161 187 160
3 160 187 186
3 165 163 188
3 163 162 188
3 188 162 167
3 166 164 189
3 189 164 165
3 189 165 188
3 190 173 166
3 190 166 191
3 191 166 189
3 192 188 167
3 192 167 170
3 193 192 170
3 182 194 168
3 194 172 168
3 193 170 195
3 170 169 195
3 195 169 171
3 196 195 171
3 196 171 172
3 194 197 172
3 197 198 172
3 198 196 172
3 200 173 190
3 199 200 190
3 201 174 173
3 200 201 173
3 176 179 202
3 177 176 202
3 177 202 175
3 175 202 184
3 178 185 203
3 178 203 179
3 179 203 202
3 203 185 204
3 202 205 184
3 183 206 181
3 180 181 206
3 180 206 182
3 182 206 194
3 183 184 207
3 205 207 184
3 183 207 206
3 185 208 204
3 186 209 185
3 185 209 208
3 187 210 186
3 186 210 209
3 191 189 211
3 189 188 211
3 211 188 192
3 199 190 212
3 212 190 191
3 212 191 211
3 213 199 212
3 214 211 192
3 214 192 193
3 215 214 193
3 215 193 195
3 206 216 194
3 216 197 194
3 216 217 197
3 215 195 218
3 218 195 196
3 198 218 196
3 217 219 197
3 219 218 198
3 197 219 198
3 220 199 213
3 221 200 199
3 220 221 199
3 222 201 200
3 221 222 200
3 203 204 223
3 203 223 202
3 202 223 205
3 204 208 224
3 204 224 223
3 205 223 225
3 205 225 207
3 207 225 226
3 207 226 206
3 226 216 206
3 208 228 224
3 224 228 227
3 209 229 208
3 229 228 208
3 210 230 209
3 209 230 229
3 213 212 231
3 212 211 231
3 231 211 214
3 232 220 213
3 232 213 231
3 233 231 214
3 233 214 215
3 234 233 215
3 234 215 218
3 226 235 216
3 235 217 216
3 235 236 217
3 217 236 219
3 237 234 218
3 237 218 219
3 236 238 219
3 238 237 219
3 240 220 232
3 239 240 232
3 241 221 220
3 240 241 220
3 242 222 221
3 241 242 221
3 224 227 243
3 224 243 223
3 223 243 225
3 225 243 244
3 225 244 226
3 226 244 235
3 227 245 243
3 228 246 227
3 227 246 245
3 229 247 228
3 228 247 246
3 230 248 229
3 229 248 247
3 239 232 249
3 232 231 249
3 249 231 233
3 250 249 233
3 250 233 234
3 237 250 234
3 244 251 235
3 235 251 236
3 251 252 236
3 236 252 238
3 252 253 238
3 253 250 237
3 253 237 238
3 254 239 249
3 255 240 239
3 254 255 239
3 256 241 240
3 255 256 240
3 257 242 241
3 256 257 241
3 245 258 243
3 243 258 244
3 244 258 251
3 245 259 258
3 246 260 245
3 245 260 259
3 247 261 246
3 246 261 260
3 248 262 247
3 247 262 261
3 254 249 263
3 263 249 250
3 253 263 250
3 258 264 251
3 251 264 252
3 264 265 252
3 265 263 253
3 252 265 253
3 266 254 263
3 267 255 254
3 266 267 254
3 268 256 255
3 267 268 255
3 269 257 256
3 268 269 256
3 259 270 258
3 270 264 258
3 260 271 259
3 259 271 270
3 261 272 260
3 260 272 271
3 262 273 261
3 273 272 261
3 270 274 264
3 275 266 263
3 275 263 265
3 274 276 264
3 276 265 264
3 276 277 265
3 277 275 265
3 278 267 266
3 275 278 266
3 279 268 267
3 278 279 267
3 280 269 268
3 279 280 268
3 271 281 270
3 270 281 274
3 272 282 271
3 271 282 281
3 273 283 272
3 272 283 282
3 281 284 274
3 274 284 276
3 285 278 275
3 277 285 275
3 284 286 276
3 286 285 277
3 276 286 277
3 287 279 278
3 285 287 278
3 288 280 279
3 287 288 279
3 282 289 281
3 281 289 284
3 283 290 282
3 282 290 289
3 289 291 284
3 284 291 286
3 291 292 286
3 292 287 285
3 286 292 285
3 293 288 287
3 292 293 287
3 290 294 289
3 289 294 291
3 294 295 291
3 295 293 292
3 291 295 292
3 38 36 56
3 36 38 35
3 132 180 156
3 180 132 157
CELL_TYPES 542
5
5
5
5
5
5
5
5
5
5
5
5
5
5
5
5
5
5
5
5
5
5
5
5
5
5
5
5
5
5
5
5
5
5
5
5
5
5
5
5
5
5
5
5
5
5
5
5
5
5
5
5
5
5
5
5
5
5
5
5
5
5
5
5
5
5
5
5
5
5
5
5
5
5
5
5
5
5
5
5
5
5
5
5
5
5
5
5
5
5
5
5
5
5
5
5
5
5
5
5
5
5
5
5
5
5
5
5
5
5
5
5
5
5
5
5
5
5
5
5
5
5
5
5
5
5
5
5
5
5
5
5
5
5
5
5
5
5
5
5
5
5
5
5
5
5
5
5
5
5
5
5
5
5
5
5
5
5
5
5
5
5
5
5
5
5
5
5
5
5
5
5
5
5
5
5
5
5
5
5
5
5
5
5
5
5
5
5
5
5
5
5
5
5
5
5
5
5
5
5
5
5
5
5
5
5
5
5
5
5
5
5
5
5
5
5
5
5
5
5
5
5
5
5
5
5
5
5
5
5
5
5
5
5
5
5
5
5
5
5
5
5
5
5
5
5
5
5
5
5
5
5
5
5
5
5
5
5
5
5
5
5
5
5
5
5
5
5
5
5
5
5
5
5
5
5
5
5
5
5
5
5
5
5
5
5
5
5
5
5
5
5
5
5
5
5
5
5
5
5
5
5
5
5
5
5
5
5
5
5
5
5
5
5
5
5
5
5
5
5
5
5
5
5
5
5
5
5
5
5
5
5
5
5
5
5
5
5
5
5
5
5
5
5
5
5
5
5
5
5
5
5
5
5
5
5
5
5
5
5
5
5
5
5
5
5
5
5
5
5
5
5
5
5
5
5
5
5
5
5
5
5
5
5
5
5
5
5
5
5
5
5
5
5
5
5
5
5
5
5
5
5
5
5
5
5
5
5
5
5
5
5
5
5
5
5
5
5
5
5
5
5
5
5
5
5
5
5
5
5
5
5
5
5
5
5
5
5
5
5
5
5
5
5
5
5
5
5
5
5
5
5
5
5
5
5
5
5
5
5
5
5
5
5
5
5
5
5
5
5
5
5
5
5
5
5
5
5
5
5
5
5
5
5
5
5
5
5
5
5
5
5
5
5
5
5
5
5
5
5
5
5
5
5
5
5
5
5
5
5
5
5
5
5
5
5
5
5
5
5
5
5
5
5
5
5
5
5
5
5
5
5
5
5
5
5
5
5
5
5
5
5
POINT_DATA 296
SCALARS concentrations float 4
LOOKUP_TABLE default
0 0.993123 0.0462135 415.273
0 0.990525 0 350.339
0 1.00144 0.0421317 379.493
0 1.005 0.0125565 409.908
0 0.995871 0.0452707 399.286
0 0.991045 0.0512978 391.221
0 0.993395 0.00978791 330.272
0 0.990475 0.0443141 421.544
0 0.987829 0.0311101 382
0 0.998208 0.0148285 297.503
0 0.990359 0.0139909 292.254
0 1.00211 0.0312934 312.795
0 0.991196 0.0378607 271.749
0 1.00072 0.0552151 349.289
0 1.00011 0.0573066 341.54
0 0.996109 0.0380924 433.291
0 0.991345 0.0375488 432.861
0 0.989687 0.0401208 423.566
0 0.996968 0.0196428 350.789
0 0.987154 0.0366721 451.371
0 0.98586 0.0329775 428.778
0 0.99939 0.0228225 370.421
0 0.999383 0.005 339.938
0 0.992215 0 341.986
0 0.989841 0 335.467
0 1.00039 0.0359013 316.511
0 0.989347 0.005 312.524
0 0.99098 0.0338772 361.441
0 1.00055 0.0428931 365.744
0 0.997228 0.037211 428.342
0 0.999581 0.0374028 387.432
0 0.996882 0.0368842 431.724
0 0.989612 0.005 346.166
0 0.992561 0.026872 436.558
0 0.988155 0.0268061 457.969
0 0.987397 0.0219841 372.701
0 0.990565 0.00986326 394.467
0 0.989367 0 368.173
0 0.98948 0.0166332 453.573
0 0.998205 0.0460279 359.794
0 0.995406 0.0181102 325.511
0 0.985386 0.005 346.017
0 0.993081 0 342.64
0 0.990331 0 352.616
0 0.999032 0.0345138 354.073
0 0.99667 0.03782 354.203
0 0.997297 0.0381976 366.551
0 0.994058 0.046238 361.923
0 0.994153 0.0525468 335.309
0 0.994187 0.0417476 308.607
0 0.997832 0.036808 419.254
0 0.998001 0.0460991 405.572
0 0.99351 0.0254002 417.692
0 0.996304 0 350.739
0 0.994918 0.00863631 296.266
0 0.9906 0 370.515
0 0.988253 0.0454435 419.143
0 0.987268 0.0221573 446.543
0 0.989518 0.0511861 389.491
0 0.993068 0 346.965
0 0.997674 0.00534579 358.551
0 0.989457 0 350.968
0 0.991844 0 347.642
0 0.994831 0 357.595
0 0.99644 0.0451558 390.663
0 0.995128 0.0472279 400.213
0 0.997378 0.0382874 354.563
0 0.993706 0.0469624 365.634
0 0.993908 0.0335319 381.031
0 0.992927 0.005 304.865
0 0.994549 0.033665 341.588
0 0.998322 0.0144772 373.717
0 0.991779 0.00401463 362.866
0 0.996079 0.0241948 416.908
0 0.993697 0.0224095 411.417
0 0.997819 0.0333758 399.574
0 0.991766 0.0366045 346.494
0 0.991931 0.005 357.847
0 0.988765 0 365.257
0 0.991359 0 364.035
0 0.988472 0 356.487
0 0.98951 0.0337179 410.581
0 0.991022 0 350.539
0 0.992224 0.0366097 458.433
0 0.991041 0 344.15
0 0.993028 0.035288 291.451
0 0.996672 0.0374312 374.472
0 0.996829 0.0339668 382.149
0 0.996091 0.0293276 334.623
0 0.996508 0.0336029 382.555
0 0.996212 0.028645 316.612
0 0.996391 0.0377688 331.723
0 0.998672 0.0344245 346.589
0 0.998456 0.0384203 313.292
0 0.991061 0.005 357.371
0 0.995818 0.0291093 391.976
0 0.991315 0.0285234 371.177
0 0.996955 0.0338324 350.344
0 0.999043 0.0238316 275.996
0 0.989458 0.0338829 335.495
0 0.990951 0.0325438 400.228
0 0.991133 0.0297154 352.846
0 0.991609 0.0321873 377.777
0 0.990975 0 350.911
0 0.989396 0 356.129
0 0.990692 0 349.939
0 0.989871 0.0445627 386.143
0 0.990739 0 347.976
0 0.991025 0 337.542
0 0.986546 0.005 362.531
0 0.998443 0.0340624 376.426
0 0.997394 0.0400412 310.502
0 0.997467 0.0474836 355.787
0 0.998433 0.0561871 411.538
0 0.998367 0.033296 342.995
0 0.998054 0.0438507 349.904
0 1.00168 0.0385183 321.79
0 0.989865 0.0175856 338.825
0 0.99001 0.020279 355.024
0 0.990784 0.0190406 344.039
0 0.995154 0.0283243 379.491
0 0.999361 0.0389055 316.25
0 0.996689 0.0288597 362.883
0 0.991178 0.0190068 335.211
0 1.00226 0.024573 269.483
0 0.986483 0.0292426 379.125
0 0.989151 0.0287315 389.077
0 0.989625 0.0411501 424.405
0 0.98877 0.0276157 409.094
0 0.98886 0.0101224 371.997
0 0.989616 0.0162368 372.599
0 0.989468 0.0224133 446.506
0 0.988534 0.0408482 408.096
0 0.990483 0.0333486 334.971
0 0.986924 0 364.843
0 1 0.0424045 276.736
0 1.0005 0.033578 329.362
0 1.00062 0.0339152 348.422
0 1.00005 0.0380509 323.795
0 1.00072 0.0423333 322.199
0 0.998143 0.0434905 324.844
0 0.999012 0.0434046 289.941
0 0.99036 0.0383987 368.411
0 0.990274 0.0381244 338.695
0 0.995366 0.0193513 348.232
0 0.998451 0.0265526 370.257
0 0.998058 0.0376209 332.868
0 0.993514 0.0195502 334.018
0 0.992687 0.027349 378.29
0 0.999123 0.0197449 310.854
0 1.00359 0.0379143 329.674
0 0.989359 0.0475361 365.609
0 0.990155 0.027975 355.155
0 0.989424 0.0468472 368.436
0 0.98906 0.0516664 319.475
0 0.991828 0.0286059 333.863
0 0.989082 0.0283314 410.619
0 0.987794 0.0337731 385.623
0 0.991006 0.033269 377.958
0 0.98642 0.0339442 362.114
0 0.994746 0.0363405 361.754
0 0.992744 0.0191375 300.556
0 1.00019 0.0422216 338.933
0 0.997352 0.0520251 380.058
0 0.997017 0.0467553 427.083
0 0.995033 0 367.91
0 0.996651 0.0384898 392.254
0 0.998922 0.0196472 327.287
0 0.992862 0.0429406 343.192
0 0.997176 0.0241356 338.54
0 0.997778 0.0192315 327.845
0 0.994464 0.0195548 313.881
0 0.994896 0.0339888 326.105
0 0.994341 0.0162659 310.518
0 0.998466 0.00929638 264.895
0 0.987743 0.0229281 369.198
0 0.990293 0.0241086 354.489
0 0.988393 0.0185429 330.199
0 0.995284 0.0382887 300.904
0 0.991772 0.0386637 277.023
0 0.989847 0.0333211 367.809
0 0.98819 0.0337365 355.151
0 0.992754 0.0291372 374.532
0 0.986525 0.0337407 348.23
0 0.987395 0.0426727 309.668
0 0.999008 0.0374435 258.069
0 0.999189 0.0512306 343.287
0 0.998736 0.0292795 343.924
0 0.999064 0.0480227 379.553
0 1.00005 0 372.021
0 0.995437 0.0384288 415.45
0 1.00124 0.0337961 415.048
0 0.998982 0.0284235 392.926
0 0.999769 0.0279772 382.489
0 0.993256 0.0423069 303.463
0 0.997897 0.0195344 305.741
0 0.996232 0.0240794 332.375
0 0.994285 0.038559 298.536
0 0.995989 0.034022 293.875
0 0.992847 0.0243424 371.01
0 0.991702 0.0184534 314.648
0 0.991307 0.005 321.851
0 0.989715 0.0377876 272.228
0 0.995738 0.0363768 256.297
0 0.999225 0.034318 283.678
0 0.98687 0.0380901 265.53
0 0.989503 0.0424315 341.031
0 0.986612 0.0454558 300.211
0 1.00182 0.037028 250.423
0 1.00108 0.0437715 266.293
0 1.00114 0.0243078 367.069
0 0.998363 0.0383213 409.25
0 0.996069 0.0245365 363.38
0 0.993814 0.0333774 420.793
0 0.998386 0.0281705 381.121
0 0.999347 0.0294148 348.808
0 0.990679 0.0431315 247.67
0 0.992153 0.03855 277.687
0 0.997559 0.0256187 311.789
0 0.993964 0.033256 302.594
0 0.99528 0.0337179 380.125
0 0.993421 0.0243997 326.022
0 0.992766 0 327.419
0 0.989997 0.028662 328.098
0 0.995266 0.0288894 309.734
0 0.986114 0.036914 258.605
0 0.986758 0.0430542 245.193
0 0.993148 0.0316333 282.011
0 1.00009 0.0322416 287.726
0 1.00254 0.0365474 271.512
0 1.0026 0.0250858 297.154
0 0.995796 0.0288601 372.049
0 0.996845 0.029391 403.813
0 0.996316 0.0287347 361.532
0 0.997021 0.0340431 337.073
0 0.987675 0.0427584 207.3
0 0.989411 0.0379589 257.413
0 0.994548 0.033537 329.772
0 0.991162 0.0382211 273.459
0 0.996523 0.0246054 391.736
0 0.997247 0.0491589 334.657
0 0.996805 0.0278717 353.123
0 0.995968 0.0332963 336.169
0 0.987533 0.0350364 221.717
0 0.985639 0.0364838 232.19
0 0.990692 0.0350043 225.599
0 0.997935 0.0364322 237.908
0 0.998737 0.0301057 296.941
0 1.00216 0.0192162 329.333
0 0.995432 0.0289331 348.406
0 0.993894 0.0292153 331.853
0 0.985347 0.0417562 194.669
0 0.986664 0.0425487 224.03
0 0.989488 0.0390562 270.425
0 0.992812 0.0196135 375.307
0 0.996626 0.0196852 358.188
0 0.999923 0.0289212 319.114
0 0.999632 0.0283378 331.505
0 0.986266 0.0373907 201.798
0 0.990301 0.035992 202.072
0 0.996489 0.0425643 197.532
0 0.995696 0 305.003
0 0.993001 0 326.044
0 0.990029 0.0292004 335.958
0 0.985 0.0375859 244.39
0 0.986139 0.0301727 303.685
0 0.992042 0.019774 369.977
0 0.988674 0.00994777 314.991
0 0.997484 0.0147406 310.039
0 1.0006 0.00986375 292.173
0 0.987537 0.0366688 248.812
0 0.992438 0.0348936 283.076
0 0.997335 0.028879 290.772
0 0.994533 0.0324184 334.309
0 0.985217 0.0378574 266.421
0 0.987953 0.0306899 194.39
0 0.987306 0.0387206 255.683
0 0.984862 0.0387157 314.302
0 0.985324 0.0387426 321.049
0 0.996355 0 309.408
0 1.00801 0 301.419
0 0.990232 0.0352684 305.796
0 0.995765 0.0289389 297.94
0 0.997412 0.0291889 294.12
0 0.989103 0.0384936 274.159
0 0.985483 0.047813 272.927
0 0.988885 0.0386534 285.157
0 0.985453 0.005 302.097
0 0.9956 0.005 302.867
0 0.991623 0.0291509 323.91
0 0.992878 0.0346771 360.219
0 0.995299 0.0386346 317.33
0 0.996291 0.0337735 350.534
0 0.992796 0.005 304.091
0 0.995042 0.005 319.646
0 1.00418 0.005 311.516
VECTORS fa_u float
0.00145843 0.000668658 -0
0.00100803 0.000547305 -0
0.0174147 0.00527622 -0
0.0100089 0.000919757 -0
1e-08 0 0
0.0230801 0.0175277 -0
-0.00017732 -0.000175594 0
1e-08 0 0
1e-08 0 0
0.0138537 0.0171351 -0
0.000342666 0.000580574 -0
-0.00279239 -0.000147268 0
0.124725 -0.022577 -0
1e-08 0 0
1e-08 0 0
1e-08 0 0
1e-08 0 0
1e-08 0 0
1e-08 0 0
1e-08 0 0
1e-08 0 0
0.0049398 0.011259 -0
0.00229982 0.00865744 -0
1e-08 0 0
1e-08 0 0
1e-08 0 0
-0.0537707 0.0172709 -0
1e-08 0 0
0.0208898 -0.00554483 0
1e-08 0 0
1e-08 0 0
1e-08 0 0
0.000942106 0.0224941 -0
1e-08 0 0
1e-08 0 0
1e-08 0 0
1e-08 0 0
1e-08 0 0
1e-08 0 0
1e-08 0 0
1e-08 0 0
1e-08 0 0
1e-08 0 0
6.53241e-05 -0.00299093 0
1e-08 0 0
1e-08 0 0
1e-08 0 0
0.0349411 -0.0197847 0
1e-08 0 0
0.000294422 -0.00025739 0
1e-08 0 0
1e-08 0 0
1e-08 0 0
1e-08 0 0
1e-08 0 0
1e-08 0 0
1e-08 0 0
1e-08 0 0
1e-08 0 0
1e-08 0 0
1e-08 0 0
1e-08 0 0
1e-08 0 0
-0.0045254 0.0366532 -0
1e-08 0 0
1e-08 0 0
1e-08 0 0
1e-08 0 0
1e-08 0 0
0.00366355 -0.00371141 0
1e-08 0 0
0.00221009 -0.00278811 0
1e-08 0 0
1e-08 0 0
1e-08 0 0
1e-08 0 0
1e-08 0 0
1e-08 0 0
1e-08 0 0
1e-08 0 0
1e-08 0 0
1e-08 0 0
1e-08 0 0
1e-08 0 0
1e-08 0 0
0.000416879 -0.00162568 -0
1e-08 0 0
1e-08 0 0
1e-08 0 0
1e-08 0 0
1e-08 0 0
1e-08 0 0
0.00532057 -0.00892815 0
1e-08 0 0
1e-08 0 0
1e-08 0 0
1e-08 0 0
1e-08 0 0
-8.42267e-05 0.000167876 -0
1e-08 0 0
1e-08 0 0
1e-08 0 0
1e-08 0 0
1e-08 0 0
1e-08 0 0
1e-08 0 0
1e-08 0 0
1e-08 0 0
1e-08 0 0
-0.0112807 0.0296362 0
1e-08 0 0
1e-08 0 0
1e-08 0 0
1e-08 0 0
1e-08 0 0
1e-08 0 0
1e-08 0 0
1e-08 0 0
1e-08 0 0
1e-08 0 0
1e-08 0 0
1e-08 0 0
1e-08 0 0
1e-08 0 0
0.0128092 -0.038159 0
1e-08 0 0
1e-08 0 0
1e-08 0 0
1e-08 0 0
1e-08 0 0
1e-08 0 0
1e-08 0 0
1e-08 0 0
1e-08 0 0
-0.000287369 0.000482255 0
1e-08 0 0
1e-08 0 0
1e-08 0 0
1e-08 0 0
1e-08 0 0
1e-08 0 0
1e-08 0 0
1e-08 0 0
1e-08 0 0
1e-08 0 0
1e-08 0 0
1e-08 0 0
1e-08 0 0
1e-08 0 0
1e-08 0 0
0.000315445 -0.00322749 0
1e-08 0 0
1e-08 0 0
1e-08 0 0
1e-08 0 0
1e-08 0 0
1e-08 0 0
1e-08 0 0
1e-08 0 0
1e-08 0 0
1e-08 0 0
-0.00500917 0.00698493 0
1e-08 0 0
1e-08 0 0
1e-08 0 0
1e-08 0 0
1e-08 0 0
1e-08 0 0
1e-08 0 0
1e-08 0 0
1e-08 0 0
1e-08 0 0
1e-08 0 0
1e-08 0 0
2.57795e-05 -0.000718641 0
1e-08 0 0
1e-08 0 0
1e-08 0 0
1e-08 0 0
1e-08 0 0
1e-08 0 0
1e-08 0 0
1e-08 0 0
1e-08 0 0
1e-08 0 0
1e-08 0 0
1e-08 0 0
-0.0226832 0.0198041 0
1e-08 0 0
1e-08 0 0
1e-08 0 0
1e-08 0 0
1e-08 0 0
1e-08 0 0
1e-08 0 0
1e-08 0 0
1e-08 0 0
1e-08 0 0
1e-08 0 0
1e-08 0 0
1e-08 0 0
-0.00802925 -0.0471484 0
1e-08 0 0
1e-08 0 0
1e-08 0 0
1e-08 0 0
1e-08 0 0
1e-08 0 0
1e-08 0 0
1e-08 0 0
0.0025179 -0.00188486 -0
1e-08 0 0
1e-08 0 0
1e-08 0 0
1e-08 0 0
1e-08 0 0
1e-08 0 0
1e-08 0 0
1e-08 0 0
1e-08 0 0
1e-08 0 0
1e-08 0 0
0.0003429 0.00104234 -0
1e-08 0 0
1e-08 0 0
1e-08 0 0
1e-08 0 0
1e-08 0 0
1e-08 0 0
1e-08 0 0
-0.0415455 0.0240374 0
1e-08 0 0
1e-08 0 0
1e-08 0 0
1e-08 0 0
1e-08 0 0
1e-08 0 0
1e-08 0 0
1e-08 0 0
1e-08 0 0
1e-08 0 0
1e-08 0 0
-0.00295734 -0.0075694 0
1e-08 0 0
1e-08 0 0
1e-08 0 0
1e-08 0 0
1e-08 0 0
0.0138164 -0.00622634 -0
1e-08 0 0
1e-08 0 0
1e-08 0 0
1e-08 0 0
1e-08 0 0
1e-08 0 0
1e-08 0 0
1e-08 0 0
-0.00244614 -0.00445271 0
1e-08 0 0
1e-08 0 0
1e-08 0 0
1e-08 0 0
-0.0428607 0.0155222 0
1e-08 0 0
1e-08 0 0
1e-08 0 0
1e-08 0 0
1e-08 0 0
1e-08 0 0
-0.0100371 -0.0132086 0
1e-08 0 0
1e-08 0 0
1e-08 0 0
-0.00443949 0.000485915 0
1e-08 0 0
1e-08 0 0
1e-08 0 0
1e-08 0 0
1e-08 0 0
1e-08 0 0
-0.00922572 -0.00782681 0
1e-08 0 0
1e-08 0 0
-0.0205662 -0.00134195 0
1e-08 0 0
1e-08 0 0
1e-08 0 0
1e-08 0 0
-0.00423809 -0.00271083 0
1e-08 0 0
0.00107738 0.000167351 -0
1e-08 0 0
1e-08 0 0
0.000197132 0.000113999 -0
-0.0491891 -0.0150217 0
-0.000447178 -0.000255273 0
