# vtk DataFile Version 2.0
CellBP Time: 0.56
ASCII
DATASET UNSTRUCTURED_GRID
POINTS 296 double
-8.61237 -4.24861 0
-8.24589 -5.35054 0
-9.25655 -2.99388 0
-9.37087 -1.74789 0
-7.95412 -3.19651 0
-7.53728 -6.38979 0
-6.68326 -7.39094 0
-7.42729 -4.2572 0
-6.95485 -5.27927 0
-5.72243 -8.31205 0
-4.51883 -9.03141 0
-9.38392 -0.46456 0
-9.47852 0.904497 0
-7.98177 -2.01052 0
-8.29745 -1.06417 0
-6.99291 -2.38259 0
-6.7374 -3.3353 0
-6.20882 -6.1592 0
-5.49491 -7.03905 0
-6.29674 -4.30612 0
-5.71724 -5.00901 0
-3.48109 -9.59011 0
-2.22471 -9.9198 0
-4.52449 -7.65209 0
-3.59682 -8.24822 0
-8.3558 0.217228 0
-9.06456 2.17983 0
-8.07701 1.38469 0
-8.77466 3.47947 0
-7.22576 -1.31791 0
-7.39846 -0.319694 0
-6.40011 -1.73422 0
-0.972546 -10.2318 0
-5.83271 -2.49661 0
-5.63396 -3.4177 0
-5.18731 -5.93561 0
-4.48028 -6.56062 0
-5.02767 -4.15235 0
-4.68761 -4.95365 0
-2.48349 -8.61748 0
-1.44675 -8.96385 0
-3.56752 -7.03045 0
-2.68812 -7.35658 0
0.385039 -10.3355 0
-7.28944 0.733712 0
-7.66069 2.31719 0
-6.83806 1.58435 0
-8.13798 4.6438 0
-7.41101 3.5848 0
-7.36543 5.60895 0
-6.38829 -0.704589 0
-6.5628 0.222696 0
-5.21246 -1.40113 0
-0.26143 -9.22237 0
0.794456 -9.07463 0
-4.73482 -2.77209 0
-4.01502 -5.30706 0
-3.49957 -6.03931 0
-3.9205 -4.02902 0
-1.76682 -7.79994 0
-0.89068 -8.06079 0
-2.56153 -6.29678 0
-1.94395 -6.76526 0
1.59322 -10.1379 0
-6.21939 1.01276 0
-6.72131 2.72343 0
-6.0609 1.95549 0
-6.7154 4.37782 0
-6.15352 3.46402 0
-6.49155 6.58936 0
-6.06179 5.42899 0
-5.64883 7.63972 0
-3.85033 -1.42423 0
-5.2778 0.0641493 0
-4.15912 -0.43046 0
0.278034 -8.06688 0
1.95776 -8.96207 0
1.22584 -8.04069 0
-3.49259 -2.65983 0
-2.95312 -1.59274 0
-2.92414 -5.0797 0
-2.75727 -3.51938 0
-1.12085 -6.91132 0
-0.280885 -7.34731 0
-1.5221 -5.71475 0
2.9493 -9.92142 0
-4.97652 1.6516 0
-5.5999 2.64323 0
-5.57149 4.39507 0
-5.23046 3.57961 0
-5.24369 6.38669 0
-4.97553 5.28003 0
-4.47532 8.38643 0
-4.3258 7.11454 0
-2.96473 -0.600082 0
-3.87038 0.784708 0
-3.19083 0.219295 0
-3.59537 1.93397 0
-3.32364 9.09029 0
3.04034 -8.58771 0
0.771005 -7.0463 0
2.2969 -7.82457 0
1.68045 -7.20621 0
-1.86922 -1.02717 0
-2.32129 -2.31551 0
-1.9182 -4.32958 0
-1.9516 -3.2773 0
-0.160565 -6.25266 0
-0.830687 -4.68803 0
4.16332 -9.49306 0
-4.23346 3.04418 0
-4.58202 4.26674 0
-4.07418 5.92246 0
-3.98527 5.0085 0
-3.3239 7.73054 0
-3.28983 6.48665 0
-2.29009 8.19626 0
-1.16893 -0.457586 0
-0.959966 -1.16357 0
-1.82315 0.272542 0
-2.73575 1.15102 0
-2.59765 2.96264 0
-2.40246 1.93813 0
-0.751398 0.276847 0
-1.96327 9.3964 0
4.12597 -8.07039 0
3.20771 -7.29474 0
1.21905 -6.11108 0
2.36286 -6.75706 0
-1.17644 -2.15594 0
-0.963802 -3.48147 0
0.317711 -5.05823 0
-0.108076 -3.94136 0
5.08623 -7.49017 0
5.25183 -8.72072 0
-3.19467 4.17668 0
-3.1816 5.44744 0
-2.37669 6.95566 0
-2.48999 6.06874 0
-1.10633 8.37992 0
-1.49504 7.34793 0
-1.81004 3.7131 0
-0.243767 -1.51456 0
-0.39677 -0.511461 0
-1.48077 1.21932 0
-1.65646 2.32684 0
-0.851321 3.21926 0
-0.430765 1.03475 0
0.171847 0.173377 0
-0.0227794 8.56594 0
-0.805026 9.74754 0
1.36935 -4.91081 0
4.14534 -6.84866 0
3.2952 -6.27007 0
2.36037 -5.68772 0
5.06005 -6.34667 0
-0.120888 -2.65749 0
0.916272 -3.78745 0
0.495076 -1.91031 0
1.85711 -4.00683 0
6.18034 -6.81618 0
6.47388 -8.15857 0
-1.94605 5.027 0
-1.5942 6.20822 0
-0.368411 7.52058 0
-0.774037 6.65058 0
0.566123 7.58251 0
-0.614439 4.25023 0
0.586034 -1.0231 0
-0.410318 2.10434 0
0.0704078 3.15822 0
0.50115 1.22152 0
1.12982 0.229214 0
1.19488 8.66887 0
0.652248 9.80887 0
2.68146 -4.46142 0
4.22353 -5.82315 0
3.34021 -5.4191 0
5.89055 -5.69084 0
4.94413 -5.45545 0
0.937525 -2.57956 0
1.56533 -3.22813 0
1.17928 -1.80921 0
2.51151 -3.40386 0
3.29796 -3.74939 0
6.3346 -4.93687 0
6.99878 -5.98434 0
7.36304 -7.31789 0
-0.441996 5.55569 0
0.116347 6.59369 0
1.53024 7.46611 0
0.987878 6.71511 0
0.441748 4.3786 0
1.01289 3.43246 0
1.70495 -1.12097 0
0.893144 2.19754 0
1.33964 1.20374 0
2.17651 0.0227741 0
1.92485 0.827606 0
2.52646 7.28746 0
2.31264 8.4935 0
1.89881 9.80584 0
4.09577 -4.46667 0
5.38323 -4.57559 0
6.11622 -4.12346 0
4.02792 -3.29062 0
2.2002 -2.30108 0
3.33804 -2.78503 0
7.05386 -4.14679 0
7.56384 -5.08631 0
8.19204 -6.19926 0
0.883237 5.50092 0
1.80927 6.40109 0
2.68828 6.31771 0
1.53348 4.21145 0
1.83926 2.99734 0
2.67991 -0.892362 0
3.11978 -0.120106 0
2.20027 1.78052 0
2.88907 0.939625 0
3.45834 6.90338 0
3.38761 8.19008 0
3.10814 9.46219 0
5.16235 -3.40979 0
6.3386 -3.24473 0
4.45224 -2.35929 0
3.43057 -1.6733 0
6.89711 -2.39975 0
7.44386 -3.13087 0
8.0959 -4.08462 0
9.05752 -5.11616 0
2.42849 5.24379 0
3.36465 5.8334 0
2.64723 3.85684 0
2.75598 2.85076 0
3.78719 -0.862031 0
3.87702 0.294492 0
3.26642 2.03016 0
3.81303 1.23884 0
4.31422 5.65359 0
4.31279 6.46623 0
4.46133 7.63437 0
4.31123 9.07559 0
5.80196 -2.00528 0
4.68308 -1.41786 0
7.04069 -1.41642 0
7.88365 -2.14343 0
8.55078 -2.97604 0
9.48577 -3.93007 0
3.79943 4.514 0
3.65626 3.19233 0
4.90779 -0.0524304 0
4.7661 1.0706 0
4.29789 2.19577 0
4.92862 4.88244 0
5.1911 5.94729 0
5.34003 7.17872 0
5.57114 8.47069 0
6.01424 -0.616468 0
7.13582 -0.61029 0
8.02674 -1.2355 0
9.03012 -1.97657 0
10.0433 -2.73953 0
4.93086 3.67647 0
6.13254 1.03869 0
5.56432 2.28112 0
5.79895 4.36204 0
5.89601 5.32321 0
6.31837 6.4882 0
6.61776 7.7086 0
7.20939 0.21579 0
8.23439 -0.249761 0
9.17488 -0.814166 0
10.3357 -1.48156 0
7.31016 1.09094 0
6.01842 3.49719 0
6.98224 1.95565 0
6.65522 2.88296 0
6.56584 4.49907 0
7.00922 5.64773 0
7.53236 6.8907 0
8.10243 0.723696 0
9.2584 0.289139 0
10.541 -0.15264 0
7.92238 1.76121 0
7.03508 3.57954 0
7.53598 2.65818 0
7.6596 4.75906 0
8.36983 5.9181 0
9.02599 1.41966 0
10.2037 1.19654 0
8.73268 2.70134 0
8.18073 3.75909 0
9.04641 4.80689 0
10.0069 2.48535 0
9.6676 3.61642 0
CELLS 542 2168
3 2 0 4
3 0 1 7
3 4 0 7
3 1 5 8
3 7 1 8
3 3 2 13
3 13 2 4
3 11 3 14
3 14 3 13
3 13 4 15
3 4 7 16
3 15 4 16
3 5 6 17
3 8 5 17
3 6 9 18
3 17 6 18
3 7 8 19
3 16 7 19
3 8 17 20
3 19 8 20
3 9 10 23
3 18 9 23
3 10 21 24
3 23 10 24
3 12 11 25
3 25 11 14
3 26 12 27
3 27 12 25
3 14 13 29
3 29 13 15
3 25 14 30
3 30 14 29
3 29 15 31
3 15 16 33
3 31 15 33
3 16 19 34
3 33 16 34
3 17 18 35
3 20 17 35
3 18 23 36
3 35 18 36
3 19 20 37
3 34 19 37
3 20 35 38
3 37 20 38
3 21 22 39
3 24 21 39
3 22 32 40
3 39 22 40
3 23 24 41
3 36 23 41
3 24 39 42
3 41 24 42
3 27 25 44
3 44 25 30
3 28 26 45
3 45 26 27
3 45 27 46
3 46 27 44
3 47 28 48
3 48 28 45
3 30 29 50
3 50 29 31
3 44 30 51
3 51 30 50
3 50 31 52
3 31 33 52
3 32 43 53
3 40 32 53
3 53 43 54
3 33 34 55
3 34 37 55
3 33 55 52
3 35 36 56
3 38 35 56
3 36 41 57
3 56 36 57
3 37 38 58
3 38 56 58
3 37 58 55
3 39 40 59
3 42 39 59
3 40 53 60
3 59 40 60
3 41 42 61
3 57 41 61
3 42 59 62
3 61 42 62
3 43 63 54
3 46 44 64
3 64 44 51
3 48 45 65
3 65 45 46
3 65 46 66
3 66 46 64
3 49 47 67
3 67 47 48
3 67 48 68
3 68 48 65
3 69 49 70
3 70 49 67
3 52 55 72
3 64 51 73
3 51 50 73
3 50 52 73
3 73 52 74
3 74 52 72
3 53 54 75
3 60 53 75
3 54 63 76
3 54 76 77
3 75 54 77
3 55 58 78
3 72 55 78
3 72 78 79
3 56 57 80
3 57 61 80
3 56 80 58
3 58 80 81
3 78 58 81
3 59 60 82
3 62 59 82
3 60 75 83
3 82 60 83
3 61 62 84
3 62 82 84
3 61 84 80
3 63 85 76
3 66 64 86
3 64 73 86
3 68 65 87
3 87 65 66
3 87 66 86
3 70 67 88
3 88 67 68
3 88 68 89
3 89 68 87
3 71 69 90
3 90 69 70
3 90 70 91
3 91 70 88
3 92 71 93
3 93 71 90
3 74 72 94
3 94 72 79
3 86 73 95
3 95 73 74
3 95 74 96
3 96 74 94
3 97 86 95
3 76 85 99
3 75 77 100
3 83 75 100
3 76 99 101
3 77 76 101
3 77 101 102
3 100 77 102
3 94 79 103
3 78 81 104
3 79 78 104
3 79 104 103
3 80 84 105
3 81 80 105
3 81 105 106
3 104 81 106
3 82 83 107
3 83 100 107
3 82 107 84
3 84 107 108
3 105 84 108
3 85 109 99
3 89 87 110
3 87 86 110
3 110 86 97
3 91 88 111
3 111 88 89
3 111 89 110
3 93 90 112
3 112 90 91
3 112 91 113
3 113 91 111
3 98 92 114
3 114 92 93
3 114 93 115
3 115 93 112
3 116 98 114
3 117 103 118
3 96 94 119
3 94 103 119
3 119 103 117
3 97 95 120
3 120 95 96
3 120 96 119
3 121 110 97
3 121 97 122
3 122 97 120
3 123 119 117
3 124 98 116
3 99 109 125
3 99 125 126
3 101 99 126
3 100 102 127
3 100 127 107
3 101 126 128
3 102 101 128
3 102 128 127
3 104 106 129
3 104 129 103
3 103 129 118
3 105 108 130
3 106 105 130
3 106 130 129
3 107 127 131
3 108 107 131
3 108 131 132
3 108 132 130
3 109 134 125
3 125 134 133
3 113 111 135
3 111 110 135
3 135 110 121
3 115 112 136
3 136 112 113
3 136 113 135
3 116 114 137
3 137 114 115
3 137 115 138
3 138 115 136
3 139 124 116
3 139 116 140
3 140 116 137
3 141 135 121
3 118 129 142
3 118 142 143
3 117 118 143
3 123 117 143
3 122 120 144
3 120 119 144
3 144 119 123
3 141 121 145
3 145 121 122
3 145 122 144
3 146 141 145
3 147 144 123
3 147 123 148
3 143 148 123
3 150 124 139
3 149 150 139
3 131 127 151
3 125 133 152
3 126 125 152
3 126 152 153
3 128 126 153
3 128 153 154
3 128 154 127
3 127 154 151
3 152 133 155
3 130 132 156
3 130 156 129
3 129 156 142
3 131 151 157
3 132 131 157
3 132 157 156
3 156 158 142
3 157 151 159
3 133 160 155
3 134 161 133
3 133 161 160
3 138 136 162
3 136 135 162
3 162 135 141
3 140 137 163
3 163 137 138
3 163 138 162
3 149 139 164
3 164 139 140
3 164 140 165
3 165 140 163
3 166 149 164
3 167 162 141
3 167 141 146
3 142 158 168
3 143 142 168
3 143 168 148
3 146 145 169
3 145 144 169
3 169 144 147
3 170 167 146
3 170 146 169
3 171 169 147
3 171 147 148
3 171 148 172
3 168 172 148
3 173 149 166
3 174 150 149
3 173 174 149
3 154 175 151
3 151 175 159
3 152 155 176
3 153 152 176
3 153 176 177
3 153 177 154
3 154 177 175
3 155 160 178
3 155 178 179
3 176 155 179
3 156 157 180
3 156 180 158
3 157 159 181
3 157 181 180
3 158 180 182
3 158 182 168
3 159 175 183
3 159 183 181
3 175 184 183
3 160 186 178
3 178 186 185
3 161 187 160
3 160 187 186
3 165 163 188
3 163 162 188
3 188 162 167
3 166 164 189
3 189 164 165
3 189 165 188
3 190 173 166
3 190 166 191
3 191 166 189
3 192 188 167
3 192 167 170
3 193 192 170
3 182 194 168
3 194 172 168
3 193 170 195
3 170 169 195
3 195 169 171
3 196 195 171
3 196 171 172
3 194 197 172
3 197 198 172
3 198 196 172
3 200 173 190
3 199 200 190
3 201 174 173
3 200 201 173
3 176 179 202
3 177 176 202
3 177 202 175
3 175 202 184
3 178 185 203
3 178 203 179
3 179 203 202
3 203 185 204
3 202 205 184
3 183 206 181
3 180 181 206
3 180 206 182
3 182 206 194
3 183 184 207
3 205 207 184
3 183 207 206
3 185 208 204
3 186 209 185
3 185 209 208
3 187 210 186
3 186 210 209
3 191 189 211
3 189 188 211
3 211 188 192
3 199 190 212
3 212 190 191
3 212 191 211
3 213 199 212
3 214 211 192
3 214 192 193
3 215 214 193
3 215 193 195
3 206 216 194
3 216 197 194
3 216 217 197
3 215 195 218
3 218 195 196
3 198 218 196
3 217 219 197
3 219 218 198
3 197 219 198
3 220 199 213
3 221 200 199
3 220 221 199
3 222 201 200
3 221 222 200
3 203 204 223
3 203 223 202
3 202 223 205
3 204 208 224
3 204 224 223
3 205 223 225
3 205 225 207
3 207 225 226
3 207 226 206
3 226 216 206
3 208 228 224
3 224 228 227
3 209 229 208
3 229 228 208
3 210 230 209
3 209 230 229
3 213 212 231
3 212 211 231
3 231 211 214
3 232 220 213
3 232 213 231
3 233 231 214
3 233 214 215
3 234 233 215
3 234 215 218
3 226 235 216
3 235 217 216
3 235 236 217
3 217 236 219
3 237 234 218
3 237 218 219
3 236 238 219
3 238 237 219
3 240 220 232
3 239 240 232
3 241 221 220
3 240 241 220
3 242 222 221
3 241 242 221
3 224 227 243
3 224 243 223
3 223 243 225
3 225 243 244
3 225 244 226
3 226 244 235
3 227 245 243
3 228 246 227
3 227 246 245
3 229 247 228
3 228 247 246
3 230 248 229
3 229 248 247
3 239 232 249
3 232 231 249
3 249 231 233
3 250 249 233
3 250 233 234
3 237 250 234
3 244 251 235
3 235 251 236
3 251 252 236
3 236 252 238
3 252 253 238
3 253 250 237
3 253 237 238
3 254 239 249
3 255 240 239
3 254 255 239
3 256 241 240
3 255 256 240
3 257 242 241
3 256 257 241
3 245 258 243
3 243 258 244
3 244 258 251
3 245 259 258
3 246 260 245
3 245 260 259
3 247 261 246
3 246 261 260
3 248 262 247
3 247 262 261
3 254 249 263
3 263 249 250
3 253 263 250
3 258 264 251
3 251 264 252
3 264 265 252
3 265 263 253
3 252 265 253
3 266 254 263
3 267 255 254
3 266 267 254
3 268 256 255
3 267 268 255
3 269 257 256
3 268 269 256
3 259 270 258
3 270 264 258
3 260 271 259
3 259 271 270
3 261 272 260
3 260 272 271
3 262 273 261
3 273 272 261
3 270 274 264
3 275 266 263
3 275 263 265
3 274 276 264
3 276 265 264
3 276 277 265
3 277 275 265
3 278 267 266
3 275 278 266
3 279 268 267
3 278 279 267
3 280 269 268
3 279 280 268
3 271 281 270
3 270 281 274
3 272 282 271
3 271 282 281
3 273 283 272
3 272 283 282
3 281 284 274
3 274 284 276
3 285 278 275
3 277 285 275
3 284 286 276
3 286 285 277
3 276 286 277
3 287 279 278
3 285 287 278
3 288 280 279
3 287 288 279
3 282 289 281
3 281 289 284
3 283 290 282
3 282 290 289
3 289 291 284
3 284 291 286
3 291 292 286
3 292 287 285
3 286 292 285
3 293 288 287
3 292 293 287
3 290 294 289
3 289 294 291
3 294 295 291
3 295 293 292
3 291 295 292
CELL_TYPES 542
5
5
5
5
5
5
5
5
5
5
5
5
5
5
5
5
5
5
5
5
5
5
5
5
5
5
5
5
5
5
5
5
5
5
5
5
5
5
5
5
5
5
5
5
5
5
5
5
5
5
5
5
5
5
5
5
5
5
5
5
5
5
5
5
5
5
5
5
5
5
5
5
5
5
5
5
5
5
5
5
5
5
5
5
5
5
5
5
5
5
5
5
5
5
5
5
5
5
5
5
5
5
5
5
5
5
5
5
5
5
5
5
5
5
5
5
5
5
5
5
5
5
5
5
5
5
5
5
5
5
5
5
5
5
5
5
5
5
5
5
5
5
5
5
5
5
5
5
5
5
5
5
5
5
5
5
5
5
5
5
5
5
5
5
5
5
5
5
5
5
5
5
5
5
5
5
5
5
5
5
5
5
5
5
5
5
5
5
5
5
5
5
5
5
5
5
5
5
5
5
5
5
5
5
5
5
5
5
5
5
5
5
5
5
5
5
5
5
5
5
5
5
5
5
5
5
5
5
5
5
5
5
5
5
5
5
5
5
5
5
5
5
5
5
5
5
5
5
5
5
5
5
5
5
5
5
5
5
5
5
5
5
5
5
5
5
5
5
5
5
5
5
5
5
5
5
5
5
5
5
5
5
5
5
5
5
5
5
5
5
5
5
5
5
5
5
5
5
5
5
5
5
5
5
5
5
5
5
5
5
5
5
5
5
5
5
5
5
5
5
5
5
5
5
5
5
5
5
5
5
5
5
5
5
5
5
5
5
5
5
5
5
5
5
5
5
5
5
5
5
5
5
5
5
5
5
5
5
5
5
5
5
5
5
5
5
5
5
5
5
5
5
5
5
5
5
5
5
5
5
5
5
5
5
5
5
5
5
5
5
5
5
5
5
5
5
5
5
5
5
5
5
5
5
5
5
5
5
5
5
5
5
5
5
5
5
5
5
5
5
5
5
5
5
5
5
5
5
5
5
5
5
5
5
5
5
5
5
5
5
5
5
5
5
5
5
5
5
5
5
5
5
5
5
5
5
5
5
5
5
5
5
5
5
5
5
5
5
5
5
5
5
5
5
5
5
5
5
5
5
5
5
5
5
5
5
5
5
5
5
5
5
5
5
5
5
5
5
5
5
5
5
5
5
5
5
5
5
5
5
5
5
5
5
5
5
5
5
5
5
5
5
5
5
5
5
5
5
5
5
5
5
5
5
5
5
5
5
5
5
5
5
POINT_DATA 296
SCALARS concentrations float 4
LOOKUP_TABLE default
0 0.99002 0.0148676 631.185
0 0.988945 0.0150715 615.902
0 0.992 0.014831 660.883
0 0.995137 0.0321517 668.592
0 0.99098 0.0152961 693.237
0 0.989899 0.014965 599.019
0 0.98948 0.0146715 607.213
0 0.988999 0.0266663 713.735
0 0.989759 0.0243784 693.633
0 0.990295 0.0322279 670.453
0 0.994414 0.00995209 642.1
0 0.996342 0.0187654 692.475
0 0.996445 0.0230728 713.566
0 0.993474 0.0285953 698.186
0 0.995904 0.0148188 710.885
0 0.990652 0.0336916 673.931
0 0.987918 0.0324725 678.964
0 0.990375 0.02604 708.88
0 0.988868 0.0148904 647.659
0 0.989907 0.0288622 728.622
0 0.987459 0.0178573 696.22
0 0.997263 0.005 684.129
0 0.996488 0.005 693.155
0 0.990388 0.0234058 690.717
0 0.992929 0.0206953 674.073
0 0.996148 0.0266452 721.561
0 0.994486 0.005 696.275
0 0.995654 0.021918 702.458
0 0.995337 0.00799004 681.714
0 0.992652 0.0338786 688.258
0 0.993587 0.0336862 699.232
0 0.987663 0.0340557 693.157
0 0.993446 0.005 702.462
0 0.984637 0.0323256 692.345
0 0.988889 0.0395067 726.1
0 0.990341 0.0148754 677.096
0 0.989443 0.0148788 659.298
0 0.985037 0 725.316
0 0.982412 0.0459067 759.3
0 0.995667 0.005 711.282
0 0.992646 0.005 717.549
0 0.987817 0.00952572 658.998
0 0.989521 0.005 728.5
0 0.994926 0.0112456 681.327
0 0.994321 0.0331993 722.502
0 0.99403 0.0179687 674.472
0 0.993304 0.033402 734.57
0 0.997295 0.00832421 666.276
0 0.99443 0.00256894 718.129
0 0.998033 0.00599248 686.654
0 0.987966 0.0336252 717.554
0 0.990025 0.033418 734.66
0 0.983231 0.0411269 737.266
0 0.991315 0.0251764 725.298
0 0.99428 0.0217182 695.718
0 0.982744 0.0291613 758.643
0 0.988406 0.0288071 754.654
0 0.986952 0.0148922 698.13
0 0.982612 0.027554 777.833
0 0.990235 0.00992237 686.43
0 0.987623 0.005 734.863
0 0.984115 0.0206952 731.591
0 0.987231 0.0143747 720.421
0 0.996167 0.0182652 638.952
0 0.990116 0.0337591 761.042
0 0.9911 0.0336042 722.267
0 0.990723 0.0333421 760.804
0 0.995427 0.0046164 723.818
0 0.990762 0.0244814 692.567
0 0.999813 0 711.646
0 0.995813 0 725.584
0 1.00051 0.0375123 659.942
0 0.980009 0.0287347 751.715
0 0.986387 0.0334243 748.476
0 0.981406 0.033092 771.433
0 0.989113 0.025259 710.327
0 0.996847 0.0269446 739.751
0 0.992244 0.0252041 751.081
0 0.980424 0.0285313 768.286
0 0.977381 0.0279561 771.119
0 0.983076 0.0108211 693.759
0 0.98259 0.0165171 708.239
0 0.984646 0.0113814 725.606
0 0.984804 0.0313645 728.589
0 0.981372 0.00996342 733.87
0 1.00175 0.0518008 667.821
0 0.988235 0.0337574 765.267
0 0.989824 0.0335227 744.319
0 0.992381 0.017456 675.415
0 0.991812 0.0240922 716.551
0 0.996481 0 730.286
0 0.992295 0.0290506 700.336
0 1.00305 0.0227858 674.93
0 0.999262 0.0237131 663.625
0 0.976802 0.0287311 770.656
0 0.984047 0.0368607 739.715
0 0.978437 0.0292767 741.904
0 0.98589 0.0293232 735.523
0 1.0027 0.0245645 687.271
0 1.00031 0.0148576 728.483
0 0.985649 0.0269992 742.611
0 0.994285 0.0148233 733.827
0 0.989523 0.0147502 737.995
0 0.975991 0.0229335 772.094
0 0.979179 0.0253031 793.634
0 0.978592 0.0153982 708.241
0 0.979157 0.0142366 728.009
0 0.981797 0.0107826 720.08
0 0.97784 0.0233857 780.654
0 1.00537 0 728.284
0 0.989577 0.0337598 729.991
0 0.992444 0.0333545 731.128
0 0.994443 0.0215155 690.455
0 0.992297 0.033853 732.245
0 1.00198 0.005 745.201
0 0.998138 0.0335665 735.083
0 1.00099 0 761.571
0 0.973057 0.028721 788.387
0 0.973342 0.0192173 773.788
0 0.975717 0.0293317 768.787
0 0.979924 0.0290281 748.731
0 0.986421 0.0377724 746.051
0 0.983645 0.0286164 741.842
0 0.972898 0.0291062 778.438
0 1.00035 0.0237512 714.836
0 1.00021 0.0247358 747.7
0 0.994115 0.014835 719.146
0 0.983996 0.014815 766.776
0 0.990602 0.0147468 746.08
0 0.975654 0.0168729 737.747
0 0.973711 0.0134343 745.889
0 0.980611 0.027575 776.137
0 0.975427 0.0214142 785.682
0 0.999364 0.027731 776.322
0 1.00472 0.00714318 700.708
0 0.989209 0.0338106 728.385
0 0.993258 0.0337876 729.641
0 0.997776 0.0330983 732.951
0 0.994308 0.0339034 727.224
0 1.00043 0.00638629 759.549
0 0.998073 0.0303344 728.108
0 0.984488 0.0292417 729.098
0 0.971649 0.0192811 785.542
0 0.971382 0.02244 801.333
0 0.977666 0.0290393 753.343
0 0.981137 0.0146829 741.649
0 0.980939 0.0291035 757.38
0 0.973761 0.0289181 760.121
0 0.972532 0.0359637 788.203
0 0.999523 0.0074987 776.874
0 0.999279 0.0200789 746.115
0 0.981388 0.0182487 760.408
0 0.993835 0.0231742 742.382
0 0.991819 0.0147938 746.286
0 0.986383 0.0148536 773.973
0 0.993759 0.0235303 750.704
0 0.973458 0.0240258 788.292
0 0.97853 0.0207989 769.321
0 0.972517 0.0227173 797.972
0 0.978485 0.0298364 765.539
0 1.00014 0.0319935 776.063
0 1.00301 0.0213509 694.867
0 0.988991 0.0325138 712.841
0 0.993351 0.0335577 729.486
0 0.9998 0.0230212 752.253
0 0.994289 0.0303959 732.582
0 0.998949 0.014604 793.618
0 0.984953 0.0287136 758.675
0 0.972168 0.0245545 784.561
0 0.97714 0.0293096 752.396
0 0.980052 0.0290244 769.201
0 0.974238 0.0392273 797.803
0 0.973628 0.0245226 784.054
0 0.995343 0.00938836 804.26
0 0.997717 0.0134607 843.63
0 0.982773 0.0148774 798.582
0 0.991121 0.0148781 781.184
0 0.987905 0.0148795 782.261
0 0.994208 0.029981 781.329
0 0.990732 0.0195086 757.259
0 0.976717 0.0206949 787.276
0 0.977069 0.0146874 754.957
0 0.974434 0.0238544 802.938
0 0.977437 0.0188488 768.556
0 0.98177 0.0187467 764.261
0 0.994744 0.0199524 751.592
0 1.00172 0.0313684 786.67
0 1.00597 0.005 746.054
0 0.989338 0.0319622 756.849
0 0.995524 0.0176723 782.059
0 0.992698 0.0106384 810.237
0 0.996182 0.0105358 802.033
0 0.985202 0.029086 785.356
0 0.979684 0.0272833 798.767
0 0.974186 0.0237585 812.636
0 0.976501 0.0364011 761.61
0 0.975334 0.0245123 785.506
0 0.976728 0.0242314 810.6
0 0.976363 0.0242342 802.39
0 0.986727 0.005 835.751
0 0.988525 0.0104837 810.613
0 0.992165 0.00991592 825.249
0 0.986571 0.0180129 775.3
0 0.990078 0.0148343 800.561
0 0.990104 0.0148636 793.038
0 0.983184 0.0148929 803.553
0 0.975911 0.0195753 777.897
0 0.978883 0.0229841 797.733
0 0.992672 0.0148943 775.293
0 1.00041 0.0210735 784.803
0 1.0059 0.00971496 711.126
0 0.991471 0.0221555 803.015
0 0.991825 0.00889139 819.531
0 0.988368 0.00728745 829.292
0 0.986085 0.0260389 809.404
0 0.979608 0.0238592 813.403
0 0.977055 0.0217695 823.971
0 0.979761 0.0141483 799.813
0 0.9797 0.023505 810.885
0 0.981658 0.0181364 807.506
0 0.983108 0 842.777
0 0.983237 0.00766523 816.052
0 0.985767 0.005 818.34
0 0.985921 0.0166959 812.567
0 0.989299 0.021919 781.881
0 0.981055 0.0148908 817.103
0 0.977817 0.0148941 843.053
0 0.991356 0.0186658 755.838
0 0.992255 0.0210479 760.865
0 0.997898 0.0172802 797.002
0 1.00351 0 770.304
0 0.990038 0.014771 834.8
0 0.986019 0.00904002 824.477
0 0.986375 0.0235414 819.04
0 0.983724 0.0174152 824.308
0 0.979109 0.0147338 787.225
0 0.980484 0.00505951 796.208
0 0.983982 0.005 798.929
0 0.983404 0.00981863 817.47
0 0.981758 0.00904803 821.623
0 0.979245 0.005 840.147
0 0.979637 0.005 838.623
0 0.982217 0.0179148 839.492
0 0.985821 0.0273387 816.01
0 0.980456 0.0304228 779.024
0 0.990277 0.0188384 746.384
0 0.992398 0.01881 744.81
0 0.998741 0.0273586 800.771
0 1.0016 0.00996424 759.276
0 0.985885 0.0111011 818.17
0 0.984303 0.0101326 825.522
0 0.979726 0.0147728 773.393
0 0.979235 0.00911579 781.126
0 0.980821 0.0107388 816.02
0 0.981619 0.0099639 830.708
0 0.980325 0.0138457 807.606
0 0.9801 0.0240916 829.162
0 0.979002 0.0517384 756.499
0 0.985169 0.0172958 762.371
0 0.990357 0.0190098 756.464
0 0.992015 0.0193437 756.602
0 0.996106 0.0197233 751.108
0 1.00481 0.005 780.107
0 0.98263 0.0158161 816.156
0 0.982893 0.0269069 825.167
0 0.981822 0.0149186 838.701
0 0.982432 0.00950413 817.243
0 0.984283 0.0298679 814.217
0 0.986635 0.0464494 821.301
0 0.984508 0.0423376 847.906
0 0.988818 0.0189335 771.21
0 0.991876 0.0187589 783.366
0 0.990617 0.0325446 754.509
0 0.990895 0.0069042 809.539
0 0.98948 0.0194636 790.213
0 0.98431 0.00996451 833.017
0 0.987525 0.0214636 799.143
0 0.986108 0.0187404 829.68
0 0.986288 0.00995576 832.143
0 0.990497 0.0466732 828.255
0 0.989051 0.0272012 850.637
0 0.991777 0.0263127 796.085
0 0.994499 0.0263948 840.53
0 0.99166 0.0402054 704.105
0 0.992141 0.0195244 803.882
0 0.98994 0.0295605 829.685
0 0.99138 0.0330457 791.019
0 0.993369 0.0340325 814.761
0 0.994318 0.019944 833.471
0 0.994283 0.0246135 775.609
0 0.995761 0.0392079 753.373
0 0.994026 0.0292929 789.317
0 0.994882 0.0287178 778.538
0 0.99583 0.0238136 813.724
0 0.99468 0.0398703 811.862
0 0.995195 0.0361354 768.069
VECTORS fa_u float
-0.00835156 -0.00358158 0
0.0279683 0.0140428 -0
0.0511019 0.0154999 -0
0.00260221 0.000131047 -0
1e-08 0 0
0.00357723 0.0027396 -0
0.00275474 0.00260081 -0
1e-08 0 0
1e-08 0 0
0.011128 0.0146823 -0
0.000385419 0.000675909 -0
-0.00130055 -5.27869e-05 0
0.0520155 -0.00628201 -0
1e-08 0 0
1e-08 0 0
1e-08 0 0
1e-08 0 0
1e-08 0 0
1e-08 0 0
1e-08 0 0
1e-08 0 0
0.00810966 0.0209419 -0
1.47195e-05 5.75403e-05 -0
1e-08 0 0
1e-08 0 0
1e-08 0 0
-0.00321061 0.000877616 -0
1e-08 0 0
0.0273321 -0.0102783 0
1e-08 0 0
1e-08 0 0
1e-08 0 0
0.00166445 0.0104495 -0
1e-08 0 0
1e-08 0 0
1e-08 0 0
1e-08 0 0
1e-08 0 0
1e-08 0 0
1e-08 0 0
1e-08 0 0
1e-08 0 0
1e-08 0 0
-0.000794483 0.0216961 -0
1e-08 0 0
1e-08 0 0
1e-08 0 0
0.00985609 -0.00652246 0
1e-08 0 0
0.000840697 -0.000711441 0
1e-08 0 0
1e-08 0 0
1e-08 0 0
1e-08 0 0
1e-08 0 0
1e-08 0 0
1e-08 0 0
1e-08 0 0
1e-08 0 0
1e-08 0 0
1e-08 0 0
1e-08 0 0
1e-08 0 0
9.11291e-07 -5.64351e-06 -0
1e-08 0 0
1e-08 0 0
1e-08 0 0
1e-08 0 0
1e-08 0 0
-0.000771885 0.000652473 -0
1e-08 0 0
0.0255603 -0.0286773 0
1e-08 0 0
1e-08 0 0
1e-08 0 0
1e-08 0 0
1e-08 0 0
1e-08 0 0
1e-08 0 0
1e-08 0 0
1e-08 0 0
1e-08 0 0
1e-08 0 0
1e-08 0 0
1e-08 0 0
-0.00297391 0.0118534 0
1e-08 0 0
1e-08 0 0
1e-08 0 0
1e-08 0 0
1e-08 0 0
1e-08 0 0
6.33328e-05 -0.000101519 0
1e-08 0 0
1e-08 0 0
1e-08 0 0
1e-08 0 0
1e-08 0 0
0.0142359 -0.0354084 0
1e-08 0 0
1e-08 0 0
1e-08 0 0
1e-08 0 0
1e-08 0 0
1e-08 0 0
1e-08 0 0
1e-08 0 0
1e-08 0 0
1e-08 0 0
-0.0133993 0.0256952 0
1e-08 0 0
1e-08 0 0
1e-08 0 0
1e-08 0 0
1e-08 0 0
1e-08 0 0
1e-08 0 0
1e-08 0 0
1e-08 0 0
1e-08 0 0
1e-08 0 0
1e-08 0 0
1e-08 0 0
1e-08 0 0
-0.000516452 0.00197907 -0
1e-08 0 0
1e-08 0 0
1e-08 0 0
1e-08 0 0
1e-08 0 0
1e-08 0 0
1e-08 0 0
1e-08 0 0
1e-08 0 0
0.00640706 -0.0110933 -0
1e-08 0 0
1e-08 0 0
1e-08 0 0
1e-08 0 0
1e-08 0 0
1e-08 0 0
1e-08 0 0
1e-08 0 0
1e-08 0 0
1e-08 0 0
1e-08 0 0
1e-08 0 0
1e-08 0 0
1e-08 0 0
1e-08 0 0
0.00366669 -0.0232507 0
1e-08 0 0
1e-08 0 0
1e-08 0 0
1e-08 0 0
1e-08 0 0
1e-08 0 0
1e-08 0 0
1e-08 0 0
1e-08 0 0
1e-08 0 0
-0.0224254 0.0337496 0
1e-08 0 0
1e-08 0 0
1e-08 0 0
1e-08 0 0
1e-08 0 0
1e-08 0 0
1e-08 0 0
1e-08 0 0
1e-08 0 0
1e-08 0 0
1e-08 0 0
1e-08 0 0
1.57679e-05 -0.000731301 0
1e-08 0 0
1e-08 0 0
1e-08 0 0
1e-08 0 0
1e-08 0 0
1e-08 0 0
1e-08 0 0
1e-08 0 0
1e-08 0 0
1e-08 0 0
1e-08 0 0
1e-08 0 0
-0.00881064 0.00772626 0
1e-08 0 0
1e-08 0 0
1e-08 0 0
1e-08 0 0
1e-08 0 0
1e-08 0 0
1e-08 0 0
1e-08 0 0
1e-08 0 0
1e-08 0 0
1e-08 0 0
1e-08 0 0
1e-08 0 0
-0.00413878 -0.0293197 0
1e-08 0 0
1e-08 0 0
1e-08 0 0
1e-08 0 0
1e-08 0 0
1e-08 0 0
1e-08 0 0
1e-08 0 0
0.000377885 -0.000290825 -0
1e-08 0 0
1e-08 0 0
1e-08 0 0
1e-08 0 0
1e-08 0 0
1e-08 0 0
1e-08 0 0
1e-08 0 0
1e-08 0 0
1e-08 0 0
1e-08 0 0
-0.000133276 -0.000440285 0
1e-08 0 0
1e-08 0 0
1e-08 0 0
1e-08 0 0
1e-08 0 0
1e-08 0 0
1e-08 0 0
-0.0344533 0.0196428 0
1e-08 0 0
1e-08 0 0
1e-08 0 0
1e-08 0 0
1e-08 0 0
1e-08 0 0
1e-08 0 0
1e-08 0 0
1e-08 0 0
1e-08 0 0
1e-08 0 0
-0.00261161 -0.00648753 0
1e-08 0 0
1e-08 0 0
1e-08 0 0
1e-08 0 0
1e-08 0 0
0.0029958 -0.00124261 -0
1e-08 0 0
1e-08 0 0
1e-08 0 0
1e-08 0 0
1e-08 0 0
1e-08 0 0
1e-08 0 0
1e-08 0 0
-0.00621329 -0.0104837 0
1e-08 0 0
1e-08 0 0
1e-08 0 0
1e-08 0 0
-0.0157828 0.00547833 0
1e-08 0 0
1e-08 0 0
1e-08 0 0
1e-08 0 0
1e-08 0 0
1e-08 0 0
-0.00249622 -0.00309851 0
1e-08 0 0
1e-08 0 0
1e-08 0 0
-0.00209475 0.000403032 0
1e-08 0 0
1e-08 0 0
1e-08 0 0
1e-08 0 0
1e-08 0 0
1e-08 0 0
-0.00481422 -0.00471092 0
1e-08 0 0
1e-08 0 0
-0.0560377 -0.00276106 0
1e-08 0 0
1e-08 0 0
1e-08 0 0
1e-08 0 0
-0.00836971 -0.00608126 0
1e-08 0 0
0.00316917 0.000641724 -0
1e-08 0 0
1e-08 0 0
-0.0014329 -0.000807918 0
-0.0076536 -0.00169563 0
-0.0130539 -0.0054006 0
