# vtk DataFile Version 2.0
CellBP Time: 1.4
ASCII
DATASET UNSTRUCTURED_GRID
POINTS 296 double
-8.89354 -4.15398 0
-8.4409 -5.09865 0
-9.50892 -2.72159 0
-9.73808 -1.38663 0
-8.25925 -2.85647 0
-7.77253 -6.26679 0
-6.89546 -7.09536 0
-7.68946 -4.12241 0
-7.09135 -5.16055 0
-5.96894 -8.10528 0
-4.72412 -8.81016 0
-9.71182 -0.131923 0
-9.86397 1.30082 0
-8.29843 -1.74213 0
-8.72687 -0.712144 0
-7.3004 -2.26289 0
-7.07365 -3.09359 0
-6.40772 -6.06329 0
-5.62916 -6.86811 0
-6.56378 -4.12093 0
-5.84745 -4.87844 0
-3.65999 -9.46006 0
-2.31776 -9.89043 0
-4.69316 -7.44615 0
-3.73363 -8.05112 0
-8.7863 0.519616 0
-9.278 2.411 0
-8.31868 1.60772 0
-9.16856 3.66954 0
-7.39988 -1.16731 0
-7.62966 -0.18915 0
-6.56815 -1.47422 0
-1.17714 -10.1487 0
-6.10524 -2.34423 0
-5.87268 -3.24603 0
-5.37043 -5.76782 0
-4.59515 -6.20618 0
-5.21322 -4.05634 0
-4.81748 -4.91913 0
-2.80533 -8.48484 0
-1.83994 -8.74412 0
-3.71222 -6.82909 0
-2.79618 -7.15675 0
0.21594 -10.031 0
-7.64589 0.823196 0
-7.87542 2.59925 0
-7.19016 1.76625 0
-8.5572 5.00263 0
-7.70829 3.84815 0
-7.83318 5.89811 0
-6.56902 -0.669609 0
-6.87872 0.305325 0
-5.57608 -1.13126 0
-0.554132 -9.10342 0
0.672825 -8.77311 0
-4.98686 -2.63597 0
-4.06803 -5.07941 0
-3.62105 -5.79449 0
-4.18693 -3.82098 0
-1.88626 -7.59274 0
-1.1159 -7.92203 0
-2.73304 -6.18969 0
-2.08996 -6.61295 0
1.50498 -10.1175 0
-6.61202 1.14848 0
-7.11028 2.99758 0
-6.42046 2.14003 0
-7.00444 4.6127 0
-6.50055 3.83548 0
-6.9177 6.87586 0
-6.47003 5.69865 0
-5.88483 7.81957 0
-4.03738 -1.26918 0
-5.60968 0.245231 0
-4.27722 -0.323428 0
0.105706 -7.89908 0
1.6599 -8.6492 0
1.0655 -8.02098 0
-3.72258 -2.46922 0
-3.19486 -1.53911 0
-3.03675 -4.74019 0
-3.05282 -3.34521 0
-1.32266 -6.64213 0
-0.458941 -7.14245 0
-1.61462 -5.52987 0
2.7719 -9.75587 0
-5.34104 1.8098 0
-5.90531 2.94237 0
-5.82301 4.74781 0
-5.45574 3.79338 0
-5.71709 6.70007 0
-5.41679 5.6084 0
-4.84792 8.60258 0
-4.64558 7.2667 0
-3.10055 -0.453264 0
-4.16989 0.88692 0
-3.29667 0.386477 0
-3.76675 2.26049 0
-3.66076 9.12126 0
2.90739 -8.41545 0
0.536787 -6.74324 0
2.27465 -7.7495 0
1.49019 -7.00692 0
-2.00473 -1.0551 0
-2.49997 -2.25392 0
-2.08382 -3.9829 0
-2.14415 -3.07653 0
-0.281112 -5.99676 0
-0.953405 -4.36277 0
4.11138 -9.44514 0
-4.55342 3.2206 0
-4.96691 4.55985 0
-4.41942 6.11476 0
-4.219 5.19901 0
-3.4701 7.89967 0
-3.44097 6.58881 0
-2.49359 8.3296 0
-1.41913 -0.29693 0
-1.15528 -1.04638 0
-2.01715 0.573795 0
-2.97967 1.39876 0
-2.87674 3.15557 0
-2.76049 2.08767 0
-0.961075 0.479122 0
-2.42793 9.71243 0
4.08851 -8.01421 0
3.15281 -7.24733 0
1.22165 -5.98898 0
2.39412 -6.73009 0
-1.35276 -2.07005 0
-1.08521 -3.34035 0
0.248842 -4.9067 0
-0.222816 -3.8134 0
5.0212 -7.40892 0
5.26395 -8.75992 0
-3.46458 4.42409 0
-3.38142 5.60025 0
-2.63724 7.04385 0
-2.73933 6.18042 0
-1.32386 8.5685 0
-1.85984 7.45985 0
-2.03065 3.97897 0
-0.36342 -1.39141 0
-0.4835 -0.478273 0
-1.73638 1.42641 0
-1.89138 2.38884 0
-1.17015 3.47444 0
-0.610238 1.20907 0
-0.0967993 0.281903 0
-0.241457 8.67932 0
-1.24073 9.9623 0
1.23234 -4.85917 0
4.05796 -6.69937 0
3.25333 -6.12455 0
2.26807 -5.58853 0
4.93796 -6.19358 0
-0.25898 -2.59839 0
0.891585 -3.72557 0
0.357407 -1.90956 0
1.74574 -3.85277 0
6.04662 -6.61958 0
6.49962 -8.02835 0
-2.12591 5.17937 0
-1.81926 6.32708 0
-0.665076 7.6827 0
-0.984841 6.77929 0
0.28138 7.77001 0
-0.754017 4.23064 0
0.610618 -1.0003 0
-0.59173 2.19413 0
-0.0659733 3.21823 0
0.418927 1.29143 0
0.91297 0.28816 0
0.924238 8.83289 0
0.312661 10.061 0
2.65589 -4.28013 0
4.12076 -5.6857 0
3.22087 -5.21194 0
5.85688 -5.58001 0
4.91743 -5.27265 0
0.821021 -2.50929 0
1.43771 -3.17986 0
1.06092 -1.75328 0
2.43698 -3.33313 0
3.23553 -3.59937 0
6.23926 -4.75437 0
6.76506 -5.88137 0
7.37849 -7.30333 0
-0.5048 5.78111 0
-0.162135 6.70937 0
1.39642 7.5178 0
0.782231 6.9624 0
0.256203 4.58692 0
0.868632 3.56515 0
1.65865 -1.02826 0
0.738697 2.25616 0
1.26826 1.35122 0
2.04795 0.12952 0
1.76732 0.932107 0
2.31238 7.36121 0
1.85434 8.77849 0
1.57615 10.0286 0
4.06677 -4.36026 0
5.21311 -4.40667 0
6.00066 -3.95047 0
3.95577 -3.19211 0
2.17505 -2.25386 0
3.18284 -2.56115 0
6.94781 -3.97217 0
7.48791 -4.93871 0
8.10815 -6.18747 0
0.829504 5.62854 0
1.63755 6.41432 0
2.61118 6.3669 0
1.31967 4.33632 0
1.70079 3.21058 0
2.5253 -0.709991 0
3.05624 0.0105244 0
2.03957 1.96626 0
2.81071 0.960948 0
3.33156 7.02323 0
2.86424 8.4233 0
2.81346 9.62335 0
5.01815 -3.33599 0
6.17737 -3.11773 0
4.32662 -2.2821 0
3.24174 -1.51838 0
6.78035 -2.35226 0
7.44459 -3.01202 0
8.16324 -3.97923 0
9.07987 -4.96725 0
2.38811 5.14984 0
3.24875 5.81115 0
2.48515 3.91205 0
2.65795 2.98373 0
3.64819 -0.718415 0
3.78041 0.424079 0
3.14197 2.17317 0
3.69129 1.3716 0
4.17193 5.74262 0
4.1579 6.61602 0
4.14196 7.8508 0
3.87728 9.24417 0
5.70804 -1.9426 0
4.5583 -1.30788 0
6.97988 -1.40746 0
7.87909 -1.97086 0
8.49412 -2.87895 0
9.52036 -3.84684 0
3.69294 4.55409 0
3.52024 3.26497 0
4.84701 -0.0527024 0
4.57442 1.15008 0
4.17445 2.3866 0
4.72656 4.99049 0
4.93788 6.02115 0
5.02835 7.482 0
5.2623 8.68011 0
6.16249 -0.599672 0
7.12772 -0.447343 0
7.88304 -1.06738 0
9.1614 -1.85221 0
10.1556 -2.62642 0
4.75094 3.74902 0
5.92611 1.06196 0
5.48653 2.13949 0
5.53858 4.4435 0
5.69117 5.4116 0
6.13667 6.70941 0
6.53588 7.86442 0
7.09157 0.377064 0
8.17705 -0.116081 0
9.16692 -0.751236 0
10.3944 -1.40799 0
7.1912 1.21437 0
5.71258 3.60061 0
6.7632 2.12138 0
6.35613 2.97911 0
6.43582 4.63769 0
6.72696 5.60652 0
7.43044 6.99096 0
8.05984 0.864624 0
9.20052 0.443181 0
10.4651 -0.047016 0
7.80949 1.81402 0
6.63042 3.65687 0
7.31447 2.77778 0
7.45769 4.84356 0
8.15015 6.01579 0
8.92505 1.51086 0
10.2463 1.29991 0
8.38901 2.75946 0
7.95081 3.82868 0
8.7973 4.91021 0
9.96344 2.7496 0
9.40016 3.72973 0
CELLS 542 2168
3 2 0 4
3 0 1 7
3 4 0 7
3 1 5 8
3 7 1 8
3 3 2 13
3 13 2 4
3 11 3 14
3 14 3 13
3 13 4 15
3 4 7 16
3 15 4 16
3 5 6 17
3 8 5 17
3 6 9 18
3 17 6 18
3 7 8 19
3 16 7 19
3 8 17 20
3 19 8 20
3 9 10 23
3 18 9 23
3 10 21 24
3 23 10 24
3 12 11 25
3 25 11 14
3 26 12 27
3 27 12 25
3 14 13 29
3 29 13 15
3 25 14 30
3 30 14 29
3 29 15 31
3 15 16 33
3 31 15 33
3 16 19 34
3 33 16 34
3 17 18 35
3 20 17 35
3 18 23 36
3 35 18 36
3 19 20 37
3 34 19 37
3 20 35 38
3 37 20 38
3 21 22 39
3 24 21 39
3 22 32 40
3 39 22 40
3 23 24 41
3 36 23 41
3 24 39 42
3 41 24 42
3 27 25 44
3 44 25 30
3 28 26 45
3 45 26 27
3 45 27 46
3 46 27 44
3 47 28 48
3 48 28 45
3 30 29 50
3 50 29 31
3 44 30 51
3 51 30 50
3 50 31 52
3 31 33 52
3 32 43 53
3 40 32 53
3 53 43 54
3 33 34 55
3 34 37 55
3 33 55 52
3 36 41 57
3 56 36 57
3 37 38 58
3 38 56 58
3 37 58 55
3 39 40 59
3 42 39 59
3 40 53 60
3 59 40 60
3 41 42 61
3 57 41 61
3 42 59 62
3 61 42 62
3 43 63 54
3 46 44 64
3 64 44 51
3 48 45 65
3 65 45 46
3 65 46 66
3 66 46 64
3 49 47 67
3 67 47 48
3 67 48 68
3 68 48 65
3 69 49 70
3 70 49 67
3 52 55 72
3 64 51 73
3 51 50 73
3 50 52 73
3 73 52 74
3 74 52 72
3 53 54 75
3 60 53 75
3 54 63 76
3 54 76 77
3 75 54 77
3 55 58 78
3 72 55 78
3 72 78 79
3 56 57 80
3 57 61 80
3 56 80 58
3 58 80 81
3 78 58 81
3 59 60 82
3 62 59 82
3 60 75 83
3 82 60 83
3 61 62 84
3 62 82 84
3 61 84 80
3 63 85 76
3 66 64 86
3 64 73 86
3 68 65 87
3 87 65 66
3 87 66 86
3 70 67 88
3 88 67 68
3 88 68 89
3 89 68 87
3 71 69 90
3 90 69 70
3 90 70 91
3 91 70 88
3 92 71 93
3 93 71 90
3 74 72 94
3 94 72 79
3 86 73 95
3 95 73 74
3 95 74 96
3 96 74 94
3 97 86 95
3 76 85 99
3 75 77 100
3 83 75 100
3 76 99 101
3 77 76 101
3 77 101 102
3 100 77 102
3 94 79 103
3 78 81 104
3 79 78 104
3 79 104 103
3 80 84 105
3 81 80 105
3 81 105 106
3 104 81 106
3 82 83 107
3 83 100 107
3 82 107 84
3 84 107 108
3 105 84 108
3 85 109 99
3 89 87 110
3 87 86 110
3 110 86 97
3 91 88 111
3 111 88 89
3 111 89 110
3 93 90 112
3 112 90 91
3 112 91 113
3 113 91 111
3 98 92 114
3 114 92 93
3 114 93 115
3 115 93 112
3 116 98 114
3 117 103 118
3 96 94 119
3 94 103 119
3 119 103 117
3 97 95 120
3 120 95 96
3 120 96 119
3 121 110 97
3 121 97 122
3 122 97 120
3 123 119 117
3 124 98 116
3 99 109 125
3 99 125 126
3 101 99 126
3 100 102 127
3 100 127 107
3 101 126 128
3 102 101 128
3 102 128 127
3 104 106 129
3 104 129 103
3 103 129 118
3 105 108 130
3 106 105 130
3 106 130 129
3 107 127 131
3 108 107 131
3 108 131 132
3 108 132 130
3 109 134 125
3 125 134 133
3 113 111 135
3 111 110 135
3 135 110 121
3 115 112 136
3 136 112 113
3 136 113 135
3 116 114 137
3 137 114 115
3 137 115 138
3 138 115 136
3 139 124 116
3 139 116 140
3 140 116 137
3 141 135 121
3 118 129 142
3 118 142 143
3 117 118 143
3 123 117 143
3 122 120 144
3 120 119 144
3 144 119 123
3 141 121 145
3 145 121 122
3 145 122 144
3 146 141 145
3 147 144 123
3 147 123 148
3 143 148 123
3 150 124 139
3 149 150 139
3 131 127 151
3 125 133 152
3 126 125 152
3 126 152 153
3 128 126 153
3 128 153 154
3 128 154 127
3 127 154 151
3 152 133 155
3 130 132 156
3 130 156 129
3 129 156 142
3 131 151 157
3 132 131 157
3 132 157 156
3 156 158 142
3 157 151 159
3 133 160 155
3 134 161 133
3 133 161 160
3 138 136 162
3 136 135 162
3 162 135 141
3 140 137 163
3 163 137 138
3 163 138 162
3 149 139 164
3 164 139 140
3 164 140 165
3 165 140 163
3 166 149 164
3 167 162 141
3 167 141 146
3 142 158 168
3 143 142 168
3 143 168 148
3 146 145 169
3 145 144 169
3 169 144 147
3 170 167 146
3 170 146 169
3 171 169 147
3 171 147 148
3 171 148 172
3 168 172 148
3 173 149 166
3 174 150 149
3 173 174 149
3 154 175 151
3 151 175 159
3 152 155 176
3 153 152 176
3 153 176 177
3 153 177 154
3 154 177 175
3 155 160 178
3 155 178 179
3 176 155 179
3 156 157 180
3 156 180 158
3 157 159 181
3 157 181 180
3 158 180 182
3 158 182 168
3 159 175 183
3 159 183 181
3 175 184 183
3 160 186 178
3 178 186 185
3 161 187 160
3 160 187 186
3 165 163 188
3 163 162 188
3 188 162 167
3 166 164 189
3 189 164 165
3 189 165 188
3 190 173 166
3 190 166 191
3 191 166 189
3 192 188 167
3 192 167 170
3 193 192 170
3 182 194 168
3 194 172 168
3 193 170 195
3 170 169 195
3 195 169 171
3 196 195 171
3 196 171 172
3 194 197 172
3 197 198 172
3 198 196 172
3 200 173 190
3 199 200 190
3 201 174 173
3 200 201 173
3 176 179 202
3 177 176 202
3 177 202 175
3 175 202 184
3 178 185 203
3 178 203 179
3 179 203 202
3 203 185 204
3 202 205 184
3 183 206 181
3 180 181 206
3 180 206 182
3 182 206 194
3 183 184 207
3 205 207 184
3 183 207 206
3 185 208 204
3 186 209 185
3 185 209 208
3 187 210 186
3 186 210 209
3 191 189 211
3 189 188 211
3 211 188 192
3 199 190 212
3 212 190 191
3 212 191 211
3 213 199 212
3 214 211 192
3 214 192 193
3 215 214 193
3 215 193 195
3 206 216 194
3 216 197 194
3 216 217 197
3 215 195 218
3 218 195 196
3 198 218 196
3 217 219 197
3 219 218 198
3 197 219 198
3 220 199 213
3 221 200 199
3 220 221 199
3 222 201 200
3 221 222 200
3 203 204 223
3 203 223 202
3 202 223 205
3 204 208 224
3 204 224 223
3 205 223 225
3 205 225 207
3 207 225 226
3 207 226 206
3 226 216 206
3 208 228 224
3 224 228 227
3 209 229 208
3 229 228 208
3 210 230 209
3 209 230 229
3 213 212 231
3 212 211 231
3 231 211 214
3 232 220 213
3 232 213 231
3 233 231 214
3 233 214 215
3 234 233 215
3 234 215 218
3 226 235 216
3 235 217 216
3 235 236 217
3 217 236 219
3 237 234 218
3 237 218 219
3 236 238 219
3 238 237 219
3 240 220 232
3 239 240 232
3 241 221 220
3 240 241 220
3 242 222 221
3 241 242 221
3 224 227 243
3 224 243 223
3 223 243 225
3 225 243 244
3 225 244 226
3 226 244 235
3 227 245 243
3 228 246 227
3 227 246 245
3 229 247 228
3 228 247 246
3 230 248 229
3 229 248 247
3 239 232 249
3 232 231 249
3 249 231 233
3 250 249 233
3 250 233 234
3 237 250 234
3 244 251 235
3 235 251 236
3 251 252 236
3 236 252 238
3 252 253 238
3 253 250 237
3 253 237 238
3 254 239 249
3 255 240 239
3 254 255 239
3 256 241 240
3 255 256 240
3 257 242 241
3 256 257 241
3 245 258 243
3 243 258 244
3 244 258 251
3 245 259 258
3 246 260 245
3 245 260 259
3 247 261 246
3 246 261 260
3 248 262 247
3 247 262 261
3 254 249 263
3 263 249 250
3 253 263 250
3 258 264 251
3 251 264 252
3 264 265 252
3 265 263 253
3 252 265 253
3 266 254 263
3 267 255 254
3 266 267 254
3 268 256 255
3 267 268 255
3 269 257 256
3 268 269 256
3 259 270 258
3 270 264 258
3 260 271 259
3 259 271 270
3 261 272 260
3 260 272 271
3 262 273 261
3 273 272 261
3 270 274 264
3 275 266 263
3 275 263 265
3 274 276 264
3 276 265 264
3 276 277 265
3 277 275 265
3 278 267 266
3 275 278 266
3 279 268 267
3 278 279 267
3 280 269 268
3 279 280 268
3 271 281 270
3 270 281 274
3 272 282 271
3 271 282 281
3 273 283 272
3 272 283 282
3 281 284 274
3 274 284 276
3 285 278 275
3 277 285 275
3 284 286 276
3 286 285 277
3 276 286 277
3 287 279 278
3 285 287 278
3 288 280 279
3 287 288 279
3 282 289 281
3 281 289 284
3 283 290 282
3 282 290 289
3 289 291 284
3 284 291 286
3 291 292 286
3 292 287 285
3 286 292 285
3 293 288 287
3 292 293 287
3 290 294 289
3 289 294 291
3 294 295 291
3 295 293 292
3 291 295 292
3 38 36 56
3 36 38 35
CELL_TYPES 542
5
5
5
5
5
5
5
5
5
5
5
5
5
5
5
5
5
5
5
5
5
5
5
5
5
5
5
5
5
5
5
5
5
5
5
5
5
5
5
5
5
5
5
5
5
5
5
5
5
5
5
5
5
5
5
5
5
5
5
5
5
5
5
5
5
5
5
5
5
5
5
5
5
5
5
5
5
5
5
5
5
5
5
5
5
5
5
5
5
5
5
5
5
5
5
5
5
5
5
5
5
5
5
5
5
5
5
5
5
5
5
5
5
5
5
5
5
5
5
5
5
5
5
5
5
5
5
5
5
5
5
5
5
5
5
5
5
5
5
5
5
5
5
5
5
5
5
5
5
5
5
5
5
5
5
5
5
5
5
5
5
5
5
5
5
5
5
5
5
5
5
5
5
5
5
5
5
5
5
5
5
5
5
5
5
5
5
5
5
5
5
5
5
5
5
5
5
5
5
5
5
5
5
5
5
5
5
5
5
5
5
5
5
5
5
5
5
5
5
5
5
5
5
5
5
5
5
5
5
5
5
5
5
5
5
5
5
5
5
5
5
5
5
5
5
5
5
5
5
5
5
5
5
5
5
5
5
5
5
5
5
5
5
5
5
5
5
5
5
5
5
5
5
5
5
5
5
5
5
5
5
5
5
5
5
5
5
5
5
5
5
5
5
5
5
5
5
5
5
5
5
5
5
5
5
5
5
5
5
5
5
5
5
5
5
5
5
5
5
5
5
5
5
5
5
5
5
5
5
5
5
5
5
5
5
5
5
5
5
5
5
5
5
5
5
5
5
5
5
5
5
5
5
5
5
5
5
5
5
5
5
5
5
5
5
5
5
5
5
5
5
5
5
5
5
5
5
5
5
5
5
5
5
5
5
5
5
5
5
5
5
5
5
5
5
5
5
5
5
5
5
5
5
5
5
5
5
5
5
5
5
5
5
5
5
5
5
5
5
5
5
5
5
5
5
5
5
5
5
5
5
5
5
5
5
5
5
5
5
5
5
5
5
5
5
5
5
5
5
5
5
5
5
5
5
5
5
5
5
5
5
5
5
5
5
5
5
5
5
5
5
5
5
5
5
5
5
5
5
5
5
5
5
5
5
5
5
5
5
5
5
5
5
5
5
5
5
5
5
5
5
5
5
5
5
5
5
5
5
5
5
5
5
5
5
5
5
5
5
5
5
5
5
5
5
5
5
5
5
5
5
5
5
5
5
5
5
5
5
5
5
5
POINT_DATA 296
SCALARS concentrations float 4
LOOKUP_TABLE default
0 0.992469 0 48.1298
0 0.990238 0.0282854 58.5878
0 0.998257 0.000473127 46.1563
0 0.998238 0.0429811 47.0056
0 0.9956 0.033188 102.694
0 0.991564 0.0338676 66.9293
0 0.98796 0.0342042 31.038
0 0.990801 0.00503144 55.0897
0 0.989549 0.0319235 42.4034
0 0.983653 0.0553839 78.4521
0 0.988056 0.005 65.9757
0 1.00032 0.0407876 63.8791
0 1.00004 0.02427 33.134
0 0.998643 0.0349261 107.285
0 0.999043 0.0195577 43.3939
0 0.994231 0.005 46.2566
0 0.991309 0.005 56.1202
0 0.989179 0.0460843 65.2362
0 0.98668 0.0377208 36.9058
0 0.990953 0 69.0976
0 0.991337 0.0307375 48.0999
0 0.991391 0.005 64.0616
0 0.993879 0.00179494 65.6561
0 0.988251 0.0384808 28.8196
0 0.989884 0.0472682 110.046
0 0.99903 0 22.6742
0 0.997021 0.0435414 64.462
0 0.992982 0.0223107 90.3814
0 0.999538 0.0141902 52.586
0 0.998436 0.005 32.4912
0 1.00114 0.005 20.4098
0 0.99822 0.005 34.9106
0 0.99674 0.005 70.0444
0 0.993689 0.005 43.0755
0 0.991328 0.005 52.62
0 0.987593 0.0416198 73.2888
0 0.988955 0.0339376 30.982
0 0.98908 0.005 64.8374
0 0.986408 0.0434972 84.3263
0 0.991124 0.0193416 42.7366
0 0.995141 0.0173172 55.549
0 0.990094 0.0402759 87.3977
0 0.989953 0.0226243 63.516
0 1.0032 0.020792 48.2761
0 0.992829 0.005 11.202
0 0.990165 0.005 11.9565
0 0.986865 0.005 5.22619
0 1.00431 0.0165433 93.3667
0 0.995788 0.005 10.1475
0 1.00074 0.005 13.7939
0 0.995793 0.005 25.9381
0 0.996204 0.005 16.6344
0 0.985495 0.005 31.2651
0 1.00013 0.0223447 52.2505
0 1.00446 0.035839 40.7447
0 0.984177 0.005 47.4023
0 0.988758 0.0339377 14.7942
0 0.992537 0.0392352 69.3382
0 0.98817 0.0607401 64.18
0 0.992762 0.0227925 82.3786
0 0.997673 0.0184129 55.804
0 0.991539 0.0450291 138.707
0 0.991271 0.0485098 165.343
0 1.00349 0.055302 67.4811
0 0.998106 0.005 6.25621
0 0.987285 0.005 6.52991
0 0.997176 0.005 4.05382
0 0.996614 0.005 11.4345
0 0.988978 0.005 10.7394
0 0.981735 0.005 19.5265
0 0.99075 0.005 17.4668
0 0.995954 0.019021 82.0637
0 0.984409 0.005 45.9629
0 0.988787 0.005 20.7698
0 0.982725 0.005 36.1587
0 1.00251 0.0268801 62.3322
0 1.00269 0.052486 50.3911
0 1.0025 0.0431316 64.1811
0 0.989857 0 49.0509
0 0.987631 0.005 55.4432
0 0.992341 0.0368657 52.0323
0 0.991385 0.005 52.1727
0 0.993548 0.0569357 136.3
0 0.998369 0.0329675 42.3812
0 0.997071 0.0606055 102.645
0 1.00163 0.026621 88.9582
0 0.999412 0 0.542676
0 0.996222 0 7.3329
0 0.989526 0.00997914 86.3095
0 0.996169 0.005 14.4444
0 0.996235 0.005 25.1556
0 1.00219 0.00987492 37.395
0 1.01371 0 36.8328
0 1.00899 0.0148657 77.1452
0 0.989157 0.005 34.7091
0 0.993898 0.005 13.0451
0 0.996668 0.005 19.7227
0 0.99951 0.005 12.5464
0 1.01192 0 42.402
0 1.00035 0.04636 98.0053
0 0.999731 0.042591 70.3768
0 1.00008 0.0462755 97.3456
0 0.998982 0.0488439 68.2122
0 0.98963 0 27.3683
0 0.991696 0 41.8573
0 0.991952 0.0272907 79.6939
0 0.994308 0.005 42.6633
0 0.996555 0.0415477 112.035
0 0.991833 0 66.4778
0 0.999014 0.0638834 62.9183
0 1.00416 0.00709641 50.6429
0 1.00289 0 20.8202
0 1.0068 0.00230562 31.3268
0 1.00025 0.0147465 36.7035
0 1.00976 0.0098712 72.8206
0 0.998979 0 36.877
0 0.999985 0 44.685
0 0.993906 0 12.6177
0 0.998771 0.005 14.5628
0 0.994857 0.005 13.3317
0 0.993898 0.0424216 53.0715
0 0.99763 0.0138057 85.0378
0 0.988161 0.005 16.5766
0 0.999445 0.005 16.8321
0 1.00525 0.005 45.553
0 0.997938 0.0336966 36.2884
0 0.996924 0.0376573 47.6775
0 0.995446 0.0374572 59.8016
0 0.995876 0.0512198 109.897
0 0.990097 0.005 24.0448
0 0.988273 0.005 43.1871
0 0.98845 0 69.9468
0 0.986124 0.005 58.2608
0 1.00212 0.0379938 50.9582
0 0.998508 0.0134969 32.8323
0 0.997409 0.0148719 58.7255
0 0.992371 0.0145965 74.2816
0 0.994422 0.00884981 52.8726
0 0.990401 0 28.566
0 1.00474 0 39.5241
0 1.00155 0 35.9676
0 0.99636 0.0157501 77.561
0 0.97935 0.005 16.5702
0 1.00393 0 19.0518
0 0.995811 0.005 11.2936
0 0.998256 0 19.8359
0 0.998164 0 10.8517
0 0.9979 0.005 27.2593
0 0.995595 0 29.4894
0 1.00025 0.005 35.1797
0 0.995426 0.00987049 71.3292
0 0.986892 0.0188019 157.875
0 0.998475 0.0347009 85.9036
0 0.993777 0.0358688 96.9516
0 0.990165 0.0432874 123.106
0 1.00149 0.0081148 66.0861
0 0.987027 0 29.3869
0 0.993618 0.005 52.1696
0 0.976552 0 24.4874
0 0.979741 0.005 48.9275
0 1.00672 0.0496946 99.3999
0 1.00434 0.0283452 76.0014
0 0.995918 0 13.891
0 0.99988 0.0125215 89.4413
0 1.01011 0 32.74
0 1.00376 0.00662685 53.6681
0 1.0052 0.0375191 129.817
0 0.999342 0.0516512 100.994
0 0.990115 0 32.6583
0 1.00178 0 20.3412
0 1.00068 0.005 16.7673
0 0.994425 0.0541512 90.1683
0 0.988407 0 21.2142
0 0.997323 0.0564759 74.6195
0 0.987985 0.005 39.6127
0 0.985646 0 48.8277
0 0.993604 0.0279696 108.661
0 0.990704 0.0322915 133.12
0 1.00366 0 49.3823
0 0.996168 0 47.9207
0 1.00828 0.005 38.6862
0 0.988932 0.005 44.1068
0 1.00106 0 34.15
0 0.977586 0 41.0613
0 0.98746 0.0111337 67.9142
0 1.00542 0 40.6461
0 1.01004 0 53.8291
0 1.00965 0.00878951 50.3006
0 0.997497 0.0207459 72.8965
0 0.991482 0.0164404 68.775
0 0.995675 0.005 34.9161
0 1.00019 0.0287073 95.2435
0 0.999023 0.0485188 55.5951
0 1.00562 0.0483456 114.518
0 0.997895 0 23.3948
0 1.00702 0.0227346 112.361
0 0.995504 0.0097265 73.7662
0 0.989007 0.00897867 78.3714
0 0.988695 0.00660637 58.0699
0 0.990998 0 37.3118
0 0.994076 0.0277515 77.1174
0 0.995296 0.037946 39.0264
0 0.990525 0 43.0369
0 0.997133 0 38.3498
0 1.00057 0 31.9672
0 0.990858 0 32.5568
0 0.995408 0.005 32.4503
0 0.983714 0 30.3427
0 1.00548 0 33.9093
0 1.01656 0 46.6282
0 1.01616 0.0382538 53.9627
0 0.998487 0.032764 88.868
0 1.0025 0 40.9427
0 0.987287 0.005 43.1583
0 0.99769 0.0190991 123.398
0 0.997956 0.005 3.59984
0 0.995699 0.005 18.4486
0 0.986856 0 21.2433
0 0.991634 0.005 26.615
0 0.979382 0 33.9588
0 0.99127 0.005 38.5134
0 0.995618 0.0379486 57.9671
0 1.00076 0.0508078 60.4068
0 0.994207 0 29.0654
0 1.00212 0 23.0282
0 0.993167 0 22.301
0 0.989647 0 19.0342
0 1.00505 0 16.0043
0 1.00223 0 26.8472
0 1.01416 0 41.5764
0 1.02751 0 58.2648
0 0.988764 0.005 27.7082
0 0.982619 0.005 45.0106
0 0.986117 0.005 10.5088
0 0.991279 0 16.9774
0 0.991088 0 13.7704
0 0.985113 0 25.9257
0 0.986377 0.005 28.6218
0 0.989799 0 30.3955
0 1.00624 0.005 42.9532
0 0.993488 0.005 37.1419
0 0.991209 0.0427676 88.0986
0 0.998476 0.0476426 74.5379
0 0.999932 0 12.8339
0 0.995707 0 10.5437
0 1.00333 0 11.2262
0 0.999409 0 19.4102
0 1.00431 0 33.1127
0 1.01325 0 50.6218
0 0.986373 0.0356885 72.6317
0 0.988182 0.005 4.30783
0 0.98796 0 14.5218
0 0.985318 0 13.5572
0 0.987141 0 11.131
0 0.99644 0.0371833 59.5518
0 0.996013 0 38.4437
0 0.993846 0.024225 85.8214
0 0.997697 0.0279735 62.0109
0 0.994314 0 11.4684
0 1.00261 0.005 19.961
0 1.00303 0.0310742 101.291
0 1.00065 0.0556072 63.4125
0 1.00116 0 43.1165
0 0.986113 0 24.2841
0 0.987129 0 16.0486
0 0.988236 0.0147574 55.623
0 0.989279 0 48.6189
0 0.985539 0 42.0682
0 0.993562 0.0512717 80.378
0 1.00372 0 29.9605
0 0.993527 0 27.5944
0 1.00032 0 22.6895
0 1.00246 0 18.2204
0 1.00295 0.0138751 70.1755
0 0.996135 0 35.2351
0 0.990275 0 34.2285
0 0.989442 0 39.4129
0 0.989441 0 35.8743
0 0.993576 0 49.4693
0 0.993165 0 37.3438
0 0.997783 0.0591851 48.3049
0 0.997992 0.017279 71.6686
0 0.997698 0 28.0887
0 0.999398 0 25.9136
0 0.99649 0 40.3446
0 0.993168 0 47.8782
0 0.992743 0 49.5546
0 0.995303 0.0533443 52.8429
0 0.99433 0.0523024 45.1633
0 0.99728 0 37.3712
0 0.997617 0.0508719 63.4761
0 0.993131 0 48.7586
0 0.990341 0.0545828 54.7882
0 0.988701 0.0483106 80.4651
0 0.996351 0.0256446 84.1561
0 0.989336 0 34.2305
VECTORS fa_u float
0.000589612 0.000264912 -0
0.001958 0.00103887 -0
0.0180378 0.00550482 -0
0.013823 0.00108306 -0
1e-08 0 0
0.0263246 0.0203751 -0
-0.00141348 -0.00138665 0
1e-08 0 0
1e-08 0 0
0.0212647 0.0269261 -0
-0.000206313 -0.000351616 0
-0.00593094 -0.000277819 0
0.118847 -0.0202752 -0
1e-08 0 0
1e-08 0 0
1e-08 0 0
1e-08 0 0
1e-08 0 0
1e-08 0 0
1e-08 0 0
1e-08 0 0
0.00863063 0.0192252 -0
0.000794499 0.00286469 -0
1e-08 0 0
1e-08 0 0
1e-08 0 0
-0.0586379 0.0172149 -0
1e-08 0 0
0.0405729 -0.0112844 0
1e-08 0 0
1e-08 0 0
1e-08 0 0
0.00199291 0.0359173 -0
1e-08 0 0
1e-08 0 0
1e-08 0 0
1e-08 0 0
1e-08 0 0
1e-08 0 0
1e-08 0 0
1e-08 0 0
1e-08 0 0
1e-08 0 0
9.84108e-05 -0.00845947 0
1e-08 0 0
1e-08 0 0
1e-08 0 0
0.0202029 -0.0121058 0
1e-08 0 0
0.00159051 -0.00139205 0
1e-08 0 0
1e-08 0 0
1e-08 0 0
1e-08 0 0
1e-08 0 0
1e-08 0 0
1e-08 0 0
1e-08 0 0
1e-08 0 0
1e-08 0 0
1e-08 0 0
1e-08 0 0
1e-08 0 0
-0.00476158 0.0442324 -0
1e-08 0 0
1e-08 0 0
1e-08 0 0
1e-08 0 0
1e-08 0 0
0.00155622 -0.00157799 0
1e-08 0 0
0.00207371 -0.00248571 0
1e-08 0 0
1e-08 0 0
1e-08 0 0
1e-08 0 0
1e-08 0 0
1e-08 0 0
1e-08 0 0
1e-08 0 0
1e-08 0 0
1e-08 0 0
1e-08 0 0
1e-08 0 0
1e-08 0 0
0.000232484 -0.000901273 -0
1e-08 0 0
1e-08 0 0
1e-08 0 0
1e-08 0 0
1e-08 0 0
1e-08 0 0
0.0106142 -0.0181355 0
1e-08 0 0
1e-08 0 0
1e-08 0 0
1e-08 0 0
1e-08 0 0
-0.000194057 0.000423134 -0
1e-08 0 0
1e-08 0 0
1e-08 0 0
1e-08 0 0
1e-08 0 0
1e-08 0 0
1e-08 0 0
1e-08 0 0
1e-08 0 0
1e-08 0 0
-0.012743 0.0318854 0
1e-08 0 0
1e-08 0 0
1e-08 0 0
1e-08 0 0
1e-08 0 0
1e-08 0 0
1e-08 0 0
1e-08 0 0
1e-08 0 0
1e-08 0 0
1e-08 0 0
1e-08 0 0
1e-08 0 0
1e-08 0 0
0.00722176 -0.0207802 0
1e-08 0 0
1e-08 0 0
1e-08 0 0
1e-08 0 0
1e-08 0 0
1e-08 0 0
1e-08 0 0
1e-08 0 0
1e-08 0 0
6.15236e-07 -1.03709e-06 -0
1e-08 0 0
1e-08 0 0
1e-08 0 0
1e-08 0 0
1e-08 0 0
1e-08 0 0
1e-08 0 0
1e-08 0 0
1e-08 0 0
1e-08 0 0
1e-08 0 0
1e-08 0 0
1e-08 0 0
1e-08 0 0
1e-08 0 0
0.000940262 -0.00739229 0
1e-08 0 0
1e-08 0 0
1e-08 0 0
1e-08 0 0
1e-08 0 0
1e-08 0 0
1e-08 0 0
1e-08 0 0
1e-08 0 0
1e-08 0 0
-0.00528101 0.00766646 0
1e-08 0 0
1e-08 0 0
1e-08 0 0
1e-08 0 0
1e-08 0 0
1e-08 0 0
1e-08 0 0
1e-08 0 0
1e-08 0 0
1e-08 0 0
1e-08 0 0
1e-08 0 0
6.61575e-05 -0.00281129 0
1e-08 0 0
1e-08 0 0
1e-08 0 0
1e-08 0 0
1e-08 0 0
1e-08 0 0
1e-08 0 0
1e-08 0 0
1e-08 0 0
1e-08 0 0
1e-08 0 0
1e-08 0 0
-0.0272385 0.0238006 0
1e-08 0 0
1e-08 0 0
1e-08 0 0
1e-08 0 0
1e-08 0 0
1e-08 0 0
1e-08 0 0
1e-08 0 0
1e-08 0 0
1e-08 0 0
1e-08 0 0
1e-08 0 0
1e-08 0 0
-0.00558354 -0.031904 0
1e-08 0 0
1e-08 0 0
1e-08 0 0
1e-08 0 0
1e-08 0 0
1e-08 0 0
1e-08 0 0
1e-08 0 0
0.00243276 -0.0017718 -0
1e-08 0 0
1e-08 0 0
1e-08 0 0
1e-08 0 0
1e-08 0 0
1e-08 0 0
1e-08 0 0
1e-08 0 0
1e-08 0 0
1e-08 0 0
1e-08 0 0
-8.8948e-05 -0.000260935 0
1e-08 0 0
1e-08 0 0
1e-08 0 0
1e-08 0 0
1e-08 0 0
1e-08 0 0
1e-08 0 0
-0.0269982 0.0162893 0
1e-08 0 0
1e-08 0 0
1e-08 0 0
1e-08 0 0
1e-08 0 0
1e-08 0 0
1e-08 0 0
1e-08 0 0
1e-08 0 0
1e-08 0 0
1e-08 0 0
-0.000269361 -0.000699308 0
1e-08 0 0
1e-08 0 0
1e-08 0 0
1e-08 0 0
1e-08 0 0
0.00389953 -0.00179204 -0
1e-08 0 0
1e-08 0 0
1e-08 0 0
1e-08 0 0
1e-08 0 0
1e-08 0 0
1e-08 0 0
1e-08 0 0
-0.00508695 -0.00980184 0
1e-08 0 0
1e-08 0 0
1e-08 0 0
1e-08 0 0
-0.0290081 0.0103953 0
1e-08 0 0
1e-08 0 0
1e-08 0 0
1e-08 0 0
1e-08 0 0
1e-08 0 0
-0.00916204 -0.0117601 0
1e-08 0 0
1e-08 0 0
1e-08 0 0
-0.00760685 0.000912701 0
1e-08 0 0
1e-08 0 0
1e-08 0 0
1e-08 0 0
1e-08 0 0
1e-08 0 0
-0.00793851 -0.00693214 0
1e-08 0 0
1e-08 0 0
-0.0164529 -0.000899746 0
1e-08 0 0
1e-08 0 0
1e-08 0 0
1e-08 0 0
-0.00377424 -0.00247933 0
1e-08 0 0
-0.000346104 -6.20844e-05 0
1e-08 0 0
1e-08 0 0
-0.00110868 -0.000606222 0
-0.0383198 -0.0133436 0
0.000875396 0.000472474 -0
