# vtk DataFile Version 2.0
CellBP Time: 1.28
ASCII
DATASET UNSTRUCTURED_GRID
POINTS 296 double
-8.71937 -4.32147 0
-8.25847 -5.25262 0
-9.35292 -2.8935 0
-9.51883 -1.53241 0
-8.09641 -3.05899 0
-7.59143 -6.40513 0
-6.7211 -7.35954 0
-7.5338 -4.23746 0
-6.91872 -5.36086 0
-5.76874 -8.27965 0
-4.48536 -9.07484 0
-9.48571 -0.324054 0
-9.59629 1.08713 0
-8.11987 -1.90556 0
-8.47452 -0.919275 0
-7.1302 -2.44169 0
-6.85855 -3.28713 0
-6.21087 -6.25316 0
-5.5162 -7.07253 0
-6.34502 -4.34707 0
-5.65032 -5.06344 0
-3.40749 -9.63499 0
-2.0528 -10.0638 0
-4.46377 -7.70815 0
-3.55765 -8.19871 0
-8.52925 0.275856 0
-9.10212 2.24123 0
-8.07256 1.47025 0
-8.89892 3.51457 0
-7.22774 -1.33466 0
-7.45844 -0.349668 0
-6.3704 -1.67527 0
-0.906262 -10.3323 0
-5.87146 -2.51488 0
-5.68223 -3.46681 0
-5.14663 -6.02408 0
-4.39578 -6.53118 0
-5.0153 -4.24376 0
-4.6168 -5.09318 0
-2.52993 -8.69354 0
-1.53356 -8.9421 0
-3.48212 -7.04339 0
-2.54886 -7.38433 0
0.525526 -10.2535 0
-7.41235 0.638482 0
-7.6353 2.39958 0
-6.96501 1.57449 0
-8.36966 4.83383 0
-7.46651 3.66256 0
-7.66788 5.72859 0
-6.39393 -0.837931 0
-6.68572 0.136962 0
-5.32507 -1.31199 0
-0.271541 -9.24586 0
0.951738 -8.98995 0
-4.80503 -2.77245 0
-3.87308 -5.33081 0
-3.419 -6.0277 0
-3.97412 -3.97939 0
-1.64006 -7.82499 0
-0.793162 -8.09266 0
-2.52063 -6.35485 0
-1.8803 -6.77574 0
1.75744 -10.2292 0
-6.36251 0.965146 0
-6.86678 2.79248 0
-6.18935 1.95569 0
-6.82863 4.46707 0
-6.2617 3.61126 0
-6.70031 6.69659 0
-6.28807 5.54012 0
-5.66579 7.60961 0
-3.76475 -1.48577 0
-5.36721 0.0599584 0
-4.07566 -0.523494 0
0.360947 -8.168 0
1.89601 -8.84945 0
1.3144 -8.15785 0
-3.44147 -2.71783 0
-2.94478 -1.70024 0
-2.83004 -5.00918 0
-2.84815 -3.54114 0
-1.11501 -6.79955 0
-0.218071 -7.35955 0
-1.40086 -5.68337 0
3.05095 -9.9661 0
-5.11841 1.63568 0
-5.69213 2.75947 0
-5.62213 4.56081 0
-5.20028 3.63028 0
-5.42526 6.50402 0
-5.23804 5.43774 0
-4.58307 8.40391 0
-4.48037 7.12474 0
-2.90497 -0.6351 0
-3.93628 0.720022 0
-3.09785 0.197013 0
-3.59063 2.04116 0
-3.4412 8.87931 0
3.17084 -8.63766 0
0.741102 -6.90715 0
2.47487 -7.91325 0
1.73359 -7.2193 0
-1.80501 -1.23676 0
-2.27727 -2.4537 0
-1.90953 -4.30745 0
-1.95623 -3.32685 0
-0.0693581 -6.19578 0
-0.758598 -4.59504 0
4.41377 -9.64578 0
-4.33431 3.03813 0
-4.70286 4.342 0
-4.25385 5.95512 0
-4.05865 5.03344 0
-3.20692 7.64391 0
-3.26801 6.42752 0
-2.263 8.1348 0
-1.20464 -0.456474 0
-0.896228 -1.23827 0
-1.74795 0.280066 0
-2.70713 1.14974 0
-2.68399 2.98101 0
-2.46131 1.92847 0
-0.703982 0.273173 0
-2.20111 9.49805 0
4.36468 -8.22947 0
3.37484 -7.46624 0
1.43257 -6.18591 0
2.58803 -6.92387 0
-1.10483 -2.25927 0
-0.874461 -3.52092 0
0.468921 -5.09277 0
-0.00349658 -3.97449 0
5.31144 -7.60648 0
5.49315 -8.96632 0
-3.291 4.2647 0
-3.21589 5.44487 0
-2.40616 6.79796 0
-2.48641 5.9605 0
-1.10976 8.39237 0
-1.61694 7.23005 0
-1.81305 3.77587 0
-0.148142 -1.53752 0
-0.262238 -0.63206 0
-1.50767 1.2261 0
-1.63172 2.19612 0
-0.949591 3.23869 0
-0.364306 1.02768 0
0.131769 0.107605 0
-0.00106657 8.45126 0
-1.01783 9.75093 0
1.45113 -5.06994 0
4.27059 -6.95933 0
3.51854 -6.36566 0
2.48453 -5.81417 0
5.2179 -6.40108 0
-0.0331867 -2.76677 0
1.0939 -3.88112 0
0.585821 -2.07504 0
1.966 -4.05888 0
6.28781 -6.76987 0
6.66924 -8.1886 0
-1.85305 4.9783 0
-1.57369 6.14634 0
-0.44232 7.56492 0
-0.756486 6.64736 0
0.484527 7.56056 0
-0.522801 4.0157 0
0.835893 -1.15453 0
-0.338035 1.98945 0
0.172955 2.99718 0
0.643466 1.12867 0
1.14541 0.115479 0
1.17829 8.60709 0
0.579673 9.82578 0
2.83659 -4.49322 0
4.37715 -5.94296 0
3.45726 -5.46964 0
6.03669 -5.73106 0
5.13187 -5.46881 0
1.03693 -2.67527 0
1.64205 -3.34262 0
1.29165 -1.92436 0
2.689 -3.51229 0
3.43776 -3.82979 0
6.49634 -4.96076 0
6.9633 -6.0562 0
7.56293 -7.4473 0
-0.426116 5.60467 0
0.0703273 6.53937 0
1.58616 7.34749 0
0.962882 6.71561 0
0.47582 4.42298 0
1.08678 3.36771 0
1.88799 -1.205 0
0.978353 2.08 0
1.50193 1.15264 0
2.27505 -0.0500819 0
2.00174 0.735641 0
2.54847 7.15871 0
2.11928 8.59865 0
1.76762 9.85857 0
4.31686 -4.5746 0
5.48564 -4.62248 0
6.26559 -4.15766 0
4.15151 -3.37498 0
2.37637 -2.41611 0
3.40629 -2.78096 0
7.20196 -4.17623 0
7.71471 -5.12759 0
8.26856 -6.33777 0
1.03549 5.38926 0
1.84957 6.22981 0
2.84282 6.16534 0
1.5186 4.11398 0
1.90585 2.99444 0
2.77331 -0.934371 0
3.27186 -0.174036 0
2.24829 1.79091 0
3.03906 0.795613 0
3.53484 6.85028 0
3.12347 8.26063 0
3.0126 9.45497 0
5.27873 -3.54994 0
6.44749 -3.32894 0
4.54538 -2.48653 0
3.48197 -1.75736 0
7.01631 -2.5388 0
7.61475 -3.20231 0
8.3407 -4.17231 0
9.22141 -5.18474 0
2.56046 4.95108 0
3.48342 5.62592 0
2.72884 3.71779 0
2.8711 2.79905 0
3.87864 -0.94096 0
3.99711 0.241003 0
3.36757 2.00771 0
3.91809 1.20381 0
4.40846 5.55348 0
4.35419 6.42197 0
4.39869 7.68961 0
4.10689 9.07791 0
5.90991 -2.13579 0
4.76616 -1.50131 0
7.174 -1.59939 0
8.09868 -2.17846 0
8.64318 -3.04171 0
9.71508 -4.02371 0
3.93148 4.36939 0
3.71253 3.09732 0
5.05775 -0.245075 0
4.81175 0.956199 0
4.4372 2.19616 0
4.97373 4.81127 0
5.16383 5.83922 0
5.21118 7.2435 0
5.50218 8.45515 0
6.36171 -0.792574 0
7.28625 -0.628015 0
8.15386 -1.24368 0
9.3146 -2.02167 0
10.3245 -2.8534 0
5.00007 3.55384 0
6.1832 0.865293 0
5.74742 1.95035 0
5.80529 4.27991 0
5.89149 5.24003 0
6.32506 6.50695 0
6.76153 7.70258 0
7.27581 0.20514 0
8.32798 -0.289239 0
9.30185 -0.964349 0
10.5372 -1.63596 0
7.44826 1.01321 0
5.92733 3.41249 0
7.02128 1.9216 0
6.60993 2.78721 0
6.62952 4.45109 0
6.97022 5.49727 0
7.64148 6.85435 0
8.30876 0.656892 0
9.4175 0.230071 0
10.6969 -0.208663 0
8.06855 1.60468 0
6.86709 3.48984 0
7.55564 2.58509 0
7.63689 4.64868 0
8.34732 5.85827 0
9.16728 1.31725 0
10.4039 1.10829 0
8.62731 2.5595 0
8.14244 3.65645 0
9.014 4.73814 0
10.2375 2.59697 0
9.58018 3.55473 0
CELLS 542 2168
3 2 0 4
3 0 1 7
3 4 0 7
3 1 5 8
3 7 1 8
3 3 2 13
3 13 2 4
3 11 3 14
3 14 3 13
3 13 4 15
3 4 7 16
3 15 4 16
3 5 6 17
3 8 5 17
3 6 9 18
3 17 6 18
3 7 8 19
3 16 7 19
3 8 17 20
3 19 8 20
3 9 10 23
3 18 9 23
3 10 21 24
3 23 10 24
3 12 11 25
3 25 11 14
3 26 12 27
3 27 12 25
3 14 13 29
3 29 13 15
3 25 14 30
3 30 14 29
3 29 15 31
3 15 16 33
3 31 15 33
3 16 19 34
3 33 16 34
3 17 18 35
3 20 17 35
3 18 23 36
3 35 18 36
3 19 20 37
3 34 19 37
3 20 35 38
3 37 20 38
3 21 22 39
3 24 21 39
3 22 32 40
3 39 22 40
3 23 24 41
3 36 23 41
3 24 39 42
3 41 24 42
3 27 25 44
3 44 25 30
3 28 26 45
3 45 26 27
3 45 27 46
3 46 27 44
3 47 28 48
3 48 28 45
3 30 29 50
3 50 29 31
3 44 30 51
3 51 30 50
3 50 31 52
3 31 33 52
3 32 43 53
3 40 32 53
3 53 43 54
3 33 34 55
3 34 37 55
3 33 55 52
3 35 36 56
3 38 35 56
3 36 41 57
3 56 36 57
3 37 38 58
3 38 56 58
3 37 58 55
3 39 40 59
3 42 39 59
3 40 53 60
3 59 40 60
3 41 42 61
3 57 41 61
3 42 59 62
3 61 42 62
3 43 63 54
3 46 44 64
3 64 44 51
3 48 45 65
3 65 45 46
3 65 46 66
3 66 46 64
3 49 47 67
3 67 47 48
3 67 48 68
3 68 48 65
3 69 49 70
3 70 49 67
3 52 55 72
3 64 51 73
3 51 50 73
3 50 52 73
3 73 52 74
3 74 52 72
3 53 54 75
3 60 53 75
3 54 63 76
3 54 76 77
3 75 54 77
3 55 58 78
3 72 55 78
3 72 78 79
3 56 57 80
3 57 61 80
3 56 80 58
3 58 80 81
3 78 58 81
3 59 60 82
3 62 59 82
3 60 75 83
3 82 60 83
3 61 62 84
3 62 82 84
3 61 84 80
3 63 85 76
3 66 64 86
3 64 73 86
3 68 65 87
3 87 65 66
3 87 66 86
3 70 67 88
3 88 67 68
3 88 68 89
3 89 68 87
3 71 69 90
3 90 69 70
3 90 70 91
3 91 70 88
3 92 71 93
3 93 71 90
3 74 72 94
3 94 72 79
3 86 73 95
3 95 73 74
3 95 74 96
3 96 74 94
3 97 86 95
3 76 85 99
3 75 77 100
3 83 75 100
3 76 99 101
3 77 76 101
3 77 101 102
3 100 77 102
3 94 79 103
3 78 81 104
3 79 78 104
3 79 104 103
3 80 84 105
3 81 80 105
3 81 105 106
3 104 81 106
3 82 83 107
3 83 100 107
3 82 107 84
3 84 107 108
3 105 84 108
3 85 109 99
3 89 87 110
3 87 86 110
3 110 86 97
3 91 88 111
3 111 88 89
3 111 89 110
3 93 90 112
3 112 90 91
3 112 91 113
3 113 91 111
3 98 92 114
3 114 92 93
3 114 93 115
3 115 93 112
3 116 98 114
3 117 103 118
3 96 94 119
3 94 103 119
3 119 103 117
3 97 95 120
3 120 95 96
3 120 96 119
3 121 110 97
3 121 97 122
3 122 97 120
3 123 119 117
3 124 98 116
3 99 109 125
3 99 125 126
3 101 99 126
3 100 102 127
3 100 127 107
3 101 126 128
3 102 101 128
3 102 128 127
3 104 106 129
3 104 129 103
3 103 129 118
3 105 108 130
3 106 105 130
3 106 130 129
3 107 127 131
3 108 107 131
3 108 131 132
3 108 132 130
3 109 134 125
3 125 134 133
3 113 111 135
3 111 110 135
3 135 110 121
3 115 112 136
3 136 112 113
3 136 113 135
3 116 114 137
3 137 114 115
3 137 115 138
3 138 115 136
3 139 124 116
3 139 116 140
3 140 116 137
3 141 135 121
3 118 129 142
3 118 142 143
3 117 118 143
3 123 117 143
3 122 120 144
3 120 119 144
3 144 119 123
3 141 121 145
3 145 121 122
3 145 122 144
3 146 141 145
3 147 144 123
3 147 123 148
3 143 148 123
3 150 124 139
3 149 150 139
3 131 127 151
3 125 133 152
3 126 125 152
3 126 152 153
3 128 126 153
3 128 153 154
3 128 154 127
3 127 154 151
3 152 133 155
3 130 132 156
3 130 156 129
3 129 156 142
3 131 151 157
3 132 131 157
3 132 157 156
3 156 158 142
3 157 151 159
3 133 160 155
3 134 161 133
3 133 161 160
3 138 136 162
3 136 135 162
3 162 135 141
3 140 137 163
3 163 137 138
3 163 138 162
3 149 139 164
3 164 139 140
3 164 140 165
3 165 140 163
3 166 149 164
3 167 162 141
3 167 141 146
3 142 158 168
3 143 142 168
3 143 168 148
3 146 145 169
3 145 144 169
3 169 144 147
3 170 167 146
3 170 146 169
3 171 169 147
3 171 147 148
3 171 148 172
3 168 172 148
3 173 149 166
3 174 150 149
3 173 174 149
3 154 175 151
3 151 175 159
3 152 155 176
3 153 152 176
3 153 176 177
3 153 177 154
3 154 177 175
3 155 160 178
3 155 178 179
3 176 155 179
3 156 157 180
3 156 180 158
3 157 159 181
3 157 181 180
3 158 180 182
3 158 182 168
3 159 175 183
3 159 183 181
3 175 184 183
3 160 186 178
3 178 186 185
3 161 187 160
3 160 187 186
3 165 163 188
3 163 162 188
3 188 162 167
3 166 164 189
3 189 164 165
3 189 165 188
3 190 173 166
3 190 166 191
3 191 166 189
3 192 188 167
3 192 167 170
3 193 192 170
3 182 194 168
3 194 172 168
3 193 170 195
3 170 169 195
3 195 169 171
3 196 195 171
3 196 171 172
3 194 197 172
3 197 198 172
3 198 196 172
3 200 173 190
3 199 200 190
3 201 174 173
3 200 201 173
3 176 179 202
3 177 176 202
3 177 202 175
3 175 202 184
3 178 185 203
3 178 203 179
3 179 203 202
3 203 185 204
3 202 205 184
3 183 206 181
3 180 181 206
3 180 206 182
3 182 206 194
3 183 184 207
3 205 207 184
3 183 207 206
3 185 208 204
3 186 209 185
3 185 209 208
3 187 210 186
3 186 210 209
3 191 189 211
3 189 188 211
3 211 188 192
3 199 190 212
3 212 190 191
3 212 191 211
3 213 199 212
3 214 211 192
3 214 192 193
3 215 214 193
3 215 193 195
3 206 216 194
3 216 197 194
3 216 217 197
3 215 195 218
3 218 195 196
3 198 218 196
3 217 219 197
3 219 218 198
3 197 219 198
3 220 199 213
3 221 200 199
3 220 221 199
3 222 201 200
3 221 222 200
3 203 204 223
3 203 223 202
3 202 223 205
3 204 208 224
3 204 224 223
3 205 223 225
3 205 225 207
3 207 225 226
3 207 226 206
3 226 216 206
3 208 228 224
3 224 228 227
3 209 229 208
3 229 228 208
3 210 230 209
3 209 230 229
3 213 212 231
3 212 211 231
3 231 211 214
3 232 220 213
3 232 213 231
3 233 231 214
3 233 214 215
3 234 233 215
3 234 215 218
3 226 235 216
3 235 217 216
3 235 236 217
3 217 236 219
3 237 234 218
3 237 218 219
3 236 238 219
3 238 237 219
3 240 220 232
3 239 240 232
3 241 221 220
3 240 241 220
3 242 222 221
3 241 242 221
3 224 227 243
3 224 243 223
3 223 243 225
3 225 243 244
3 225 244 226
3 226 244 235
3 227 245 243
3 228 246 227
3 227 246 245
3 229 247 228
3 228 247 246
3 230 248 229
3 229 248 247
3 239 232 249
3 232 231 249
3 249 231 233
3 250 249 233
3 250 233 234
3 237 250 234
3 244 251 235
3 235 251 236
3 251 252 236
3 236 252 238
3 252 253 238
3 253 250 237
3 253 237 238
3 254 239 249
3 255 240 239
3 254 255 239
3 256 241 240
3 255 256 240
3 257 242 241
3 256 257 241
3 245 258 243
3 243 258 244
3 244 258 251
3 245 259 258
3 246 260 245
3 245 260 259
3 247 261 246
3 246 261 260
3 248 262 247
3 247 262 261
3 254 249 263
3 263 249 250
3 253 263 250
3 258 264 251
3 251 264 252
3 264 265 252
3 265 263 253
3 252 265 253
3 266 254 263
3 267 255 254
3 266 267 254
3 268 256 255
3 267 268 255
3 269 257 256
3 268 269 256
3 259 270 258
3 270 264 258
3 260 271 259
3 259 271 270
3 261 272 260
3 260 272 271
3 262 273 261
3 273 272 261
3 270 274 264
3 275 266 263
3 275 263 265
3 274 276 264
3 276 265 264
3 276 277 265
3 277 275 265
3 278 267 266
3 275 278 266
3 279 268 267
3 278 279 267
3 280 269 268
3 279 280 268
3 271 281 270
3 270 281 274
3 272 282 271
3 271 282 281
3 273 283 272
3 272 283 282
3 281 284 274
3 274 284 276
3 285 278 275
3 277 285 275
3 284 286 276
3 286 285 277
3 276 286 277
3 287 279 278
3 285 287 278
3 288 280 279
3 287 288 279
3 282 289 281
3 281 289 284
3 283 290 282
3 282 290 289
3 289 291 284
3 284 291 286
3 291 292 286
3 292 287 285
3 286 292 285
3 293 288 287
3 292 293 287
3 290 294 289
3 289 294 291
3 294 295 291
3 295 293 292
3 291 295 292
CELL_TYPES 542
5
5
5
5
5
5
5
5
5
5
5
5
5
5
5
5
5
5
5
5
5
5
5
5
5
5
5
5
5
5
5
5
5
5
5
5
5
5
5
5
5
5
5
5
5
5
5
5
5
5
5
5
5
5
5
5
5
5
5
5
5
5
5
5
5
5
5
5
5
5
5
5
5
5
5
5
5
5
5
5
5
5
5
5
5
5
5
5
5
5
5
5
5
5
5
5
5
5
5
5
5
5
5
5
5
5
5
5
5
5
5
5
5
5
5
5
5
5
5
5
5
5
5
5
5
5
5
5
5
5
5
5
5
5
5
5
5
5
5
5
5
5
5
5
5
5
5
5
5
5
5
5
5
5
5
5
5
5
5
5
5
5
5
5
5
5
5
5
5
5
5
5
5
5
5
5
5
5
5
5
5
5
5
5
5
5
5
5
5
5
5
5
5
5
5
5
5
5
5
5
5
5
5
5
5
5
5
5
5
5
5
5
5
5
5
5
5
5
5
5
5
5
5
5
5
5
5
5
5
5
5
5
5
5
5
5
5
5
5
5
5
5
5
5
5
5
5
5
5
5
5
5
5
5
5
5
5
5
5
5
5
5
5
5
5
5
5
5
5
5
5
5
5
5
5
5
5
5
5
5
5
5
5
5
5
5
5
5
5
5
5
5
5
5
5
5
5
5
5
5
5
5
5
5
5
5
5
5
5
5
5
5
5
5
5
5
5
5
5
5
5
5
5
5
5
5
5
5
5
5
5
5
5
5
5
5
5
5
5
5
5
5
5
5
5
5
5
5
5
5
5
5
5
5
5
5
5
5
5
5
5
5
5
5
5
5
5
5
5
5
5
5
5
5
5
5
5
5
5
5
5
5
5
5
5
5
5
5
5
5
5
5
5
5
5
5
5
5
5
5
5
5
5
5
5
5
5
5
5
5
5
5
5
5
5
5
5
5
5
5
5
5
5
5
5
5
5
5
5
5
5
5
5
5
5
5
5
5
5
5
5
5
5
5
5
5
5
5
5
5
5
5
5
5
5
5
5
5
5
5
5
5
5
5
5
5
5
5
5
5
5
5
5
5
5
5
5
5
5
5
5
5
5
5
5
5
5
5
5
5
5
5
5
5
5
5
5
5
5
5
5
5
5
5
5
5
5
5
5
5
5
5
5
5
5
5
5
5
5
5
5
5
5
5
5
5
5
5
5
5
5
5
5
5
5
5
5
5
5
5
5
5
POINT_DATA 296
SCALARS concentrations float 4
LOOKUP_TABLE default
0 0.99942 0.005 377.187
0 1.00032 0.005 371.683
0 1.00434 0.005 385.694
0 0.993919 0 389.304
0 1.00404 0.0147027 374.741
0 1.00039 0.00989939 411.924
0 1.00038 0.0179159 425.869
0 1.00007 0.00995561 393.966
0 1.00018 0.0118901 415.126
0 1.00223 0 350.269
0 1.00452 0.005 340.862
0 0.982487 0.005 391.697
0 0.992449 0 396.361
0 1.00328 0.00603391 391.408
0 0.991256 0 386.224
0 1.00674 0 377.38
0 1.00593 0.005 374.874
0 0.999685 0.005 360.672
0 1.0018 0.0119847 419.696
0 1.00499 0.005 369.375
0 0.998927 0.005 362.828
0 1.00455 0 335.753
0 1.00363 0 330.551
0 1.00497 0.0235043 393.129
0 1.00795 0.00994478 382.229
0 0.991334 0.0271709 399.505
0 1.00373 0.005 398.191
0 0.996855 0.00686169 413.442
0 1.00684 0.0097449 476.391
0 1.0038 0.005 380.22
0 1.00514 0.00701025 424.422
0 0.993774 0.00148164 377.846
0 1.00444 0.00848025 379.031
0 1.00035 0.005 376.023
0 1.0049 0 373.395
0 0.999406 0.018299 419.116
0 1.00376 0.0155103 439.969
0 1.00206 0.0128637 419.341
0 0.997896 0.00811523 401.943
0 1.00686 0.00992247 379.835
0 1.0059 0.00995658 369.222
0 1.00728 0 344.618
0 1.00781 0 339.128
0 1.00329 0.0116125 341.625
0 0.993749 0.00960465 444.411
0 1.00261 0.005 391.952
0 0.992993 0 385.95
0 1.0042 0 410.297
0 0.999133 0.00891328 461.041
0 1.00434 0.0148849 446.384
0 1.00008 0 379.578
0 1.00698 0.005 381.644
0 0.996413 0.0268643 411.403
0 1.00436 0.0187121 388.105
0 1.00244 0.0220403 309.879
0 0.99886 0.0495007 413.414
0 0.996801 0.00889678 411.969
0 0.999773 0 348.549
0 0.996999 0.0101567 385.274
0 1.00729 0.00629212 361.73
0 1.0045 0.00971512 387.193
0 0.999536 0 343.232
0 1.00173 0 338.885
0 0.998473 0.0397575 327.615
0 0.991995 0.00139597 383.405
0 0.997029 0.005 391.939
0 0.991644 0 384.68
0 0.993968 0.005 401.055
0 0.991185 0.0216901 397.216
0 0.997828 0.005 412.512
0 0.996379 0.005 402.738
0 0.997368 0.0138815 421.418
0 1.00093 0.0095976 436.156
0 0.997252 0.005 381.667
0 1.00277 0.0199068 424.238
0 1.00192 0.0326996 350.176
0 0.997285 0.0150939 396.46
0 1.00175 0.0155621 394.779
0 0.996173 0.0148294 440.111
0 0.995856 0.0238885 382.512
0 0.994706 0.021958 391.829
0 0.993012 0.0221115 371.157
0 1.0004 0 337.074
0 1.00005 0.00967146 396.472
0 0.99549 0 347.408
0 0.992621 0.0385684 302.513
0 0.996959 0.00979688 450.085
0 1.00028 0.0234347 442.734
0 0.990044 0.0232092 463.814
0 1.00112 0.0241496 431.334
0 0.997027 0.0230954 479.205
0 0.994914 0.0242554 470.492
0 0.995745 0.0230609 373.652
0 0.996059 0.0423229 432.562
0 0.999662 0.0195576 416.279
0 0.997961 0.0099573 416.245
0 1.00035 0.0320229 369.831
0 1.00006 0.0244792 406.186
0 0.994645 0.0139164 479.86
0 0.995181 0.0243647 337.753
0 0.999699 0.00284786 332.769
0 1.001 0.0225976 354.957
0 1.0012 0.00983254 382.04
0 0.996941 0.0240889 363.391
0 0.994411 0.042955 376.872
0 0.990553 0.0197261 399.091
0 0.991197 0.029603 368.863
0 0.995539 0.005 341.039
0 0.990471 0.0489203 361.402
0 0.992893 0.0425811 304.059
0 1.0001 0.005 382.415
0 0.998106 0.0246029 432.573
0 0.997408 0.0194937 454.6
0 0.999009 0.0233251 475.406
0 0.9952 0.0133463 431.705
0 0.99596 0.0242395 438.423
0 0.997656 0.0319515 362.882
0 1.00037 0.005 377.085
0 1.00774 0.00906972 330.184
0 0.999473 0.0353204 384.515
0 1.0012 0.0376543 388.818
0 1.00067 0.0237737 462.338
0 1.00335 0.0336535 400.987
0 1.00531 0.00790637 431.275
0 0.997862 0.0218599 504.867
0 0.994436 0.00830684 380.494
0 0.999868 0.00729468 371.574
0 0.996793 0.005 339.162
0 1.0028 0 330.192
0 0.999013 0.030225 345.74
0 0.991249 0.0304442 362.002
0 0.9919 0.00993505 395.657
0 0.990303 0.0134432 443.113
0 0.990166 0.00887136 384.361
0 0.991495 0.005 320.41
0 0.999885 0.0243327 459.206
0 1 0.0241089 467.411
0 0.997569 0.0152893 424.52
0 0.999327 0.0244569 436.884
0 1.00186 0.0226829 470.736
0 1.00086 0.00996497 418.826
0 1.0066 0.0241485 419.393
0 1.00373 0.00987271 429.024
0 1.00664 0.0136864 441.062
0 1.00743 0.024193 388.287
0 1.00783 0.0217896 397.332
0 1.01006 0.00996266 402.061
0 1.00745 0.005 375.664
0 1.00351 0.005 376.183
0 1.00621 0.0327745 366.298
0 1.0024 0.0184928 487.934
0 0.990108 0 350.484
0 0.995322 0.00952715 386.554
0 1.00076 0.00163349 334.676
0 0.996134 0.0391269 374.092
0 0.99025 0.0195541 372.339
0 0.994697 0.00912573 434.902
0 0.9898 0 363.062
0 0.99535 0.00694714 421.546
0 0.987448 0 360.091
0 0.989034 0.0242019 363.22
0 0.989714 0 321.129
0 1.0052 0.0244361 438.791
0 1.00126 0.0288776 377.289
0 1.00521 0.0225056 430.968
0 1.00246 0.0242305 407.682
0 1.00859 0.00975355 454.376
0 1.00807 0.005 382.226
0 0.9998 0.00356851 376.946
0 1.00809 0.005 375.821
0 1.00438 0.00797062 438.305
0 1.0026 0 376.339
0 0.997273 0 376.693
0 1.0081 0.030952 394.004
0 1.00464 0.0466938 465.478
0 0.990471 0.005 353.859
0 0.993932 0.0178908 396.726
0 0.994755 0.0119953 424.064
0 0.988381 0.00418225 334.152
0 0.991921 0.00566893 356.413
0 0.989787 0.00467862 375.133
0 0.9868 0 367.814
0 0.992433 0.00416586 377.432
0 0.986377 0.00984981 414.444
0 0.990079 0.005 357.075
0 0.986473 0.005 339.502
0 0.989222 0 330.935
0 0.991226 0 322.036
0 1.00569 0.0291914 372.717
0 1.00484 0.0172801 426.348
0 1.0045 0.0109033 452.752
0 1.00147 0.0126931 470.608
0 1.00155 0.0148066 438.736
0 0.998989 0.00996163 411.446
0 0.993568 0.005 377.295
0 1.0005 0.005 378.395
0 0.998074 0.005 377.523
0 0.993181 0.005 378.012
0 0.994571 0.005 378.089
0 0.998577 0.00961393 457.017
0 1.00449 0.00770431 453.212
0 1.00556 0 409.641
0 0.99212 0 347.321
0 0.990331 0 342.874
0 0.987642 0 345.698
0 0.990783 0 358.204
0 0.989598 0.005981 400.109
0 0.989259 0 366.14
0 0.985663 0.005 344.832
0 0.986844 0.005 337.285
0 0.988595 0 327.766
0 0.9982 0.00963506 449.197
0 0.99566 0.0095092 428.788
0 0.991524 0.00989093 443.725
0 0.992751 0.005 386.869
0 0.99434 0 383.743
0 0.991613 0.005 375.523
0 0.991978 0.005 376.278
0 0.993797 0 380.376
0 0.99204 0.005 380.247
0 0.993841 0.0120916 470.916
0 0.998334 0.00965537 457.081
0 1.00194 0 404.027
0 0.990113 0.005 352.614
0 0.987065 0 351.779
0 0.990188 0 364.354
0 0.991077 0.005 371.476
0 0.988308 0.005 357.328
0 0.987497 0.00921406 364.445
0 0.990338 0 344.038
0 0.987422 0.0489437 361.958
0 0.989421 0.005 392.275
0 0.987862 0.0122262 467.485
0 0.987939 0.005 388.424
0 0.990102 0 385.635
0 0.99139 0.005 372.321
0 0.991367 0.005 375.929
0 0.989321 0 382.267
0 0.98976 0 377.972
0 0.985884 0.0113704 459.901
0 0.992107 0.0111721 465.921
0 0.997972 0.005 392.923
0 0.999888 0.005 399.078
0 0.989922 0.005 362.638
0 0.991158 0.005 368.257
0 0.991448 0.005 359.538
0 0.991328 0.00466107 353.592
0 0.995686 0.0284845 356.311
0 0.99682 0.005 339.104
0 0.984702 0.005 381.883
0 0.985509 0 381.46
0 0.991864 0.005 370.881
0 0.989905 0.005 372.445
0 0.986375 0 375.179
0 0.981372 0.0092312 436.101
0 0.988472 0.00957751 448.615
0 0.994573 0.0156696 433.159
0 0.999615 0 391.294
0 0.991715 0.005 363.044
0 0.994922 0.0104763 436.705
0 0.997296 0.0311439 368.325
0 0.998756 0.0308748 359.139
0 1.00009 0.0442883 336.599
0 0.983641 0 373.269
0 0.992136 0.005 364.082
0 0.989078 0.005 366.795
0 0.982179 0.033402 388.589
0 0.985515 0.0144531 428.469
0 0.991723 0.0113826 402.187
0 0.993549 0.0533663 366.775
0 0.994984 0.00880756 367.339
0 1.00087 0.0300849 361.185
0 1.00205 0.0186132 399.791
0 1.00256 0.039927 374.593
0 0.996508 0.005 357.454
0 0.989554 0 366.673
0 0.994633 0 359.023
0 0.992141 0 361.58
0 0.991834 0.0243003 407.251
0 0.993286 0.0182103 449.768
0 0.995181 0.0531319 355.005
0 1.00224 0.005 354.536
0 1.0019 0.005 350.78
0 1.00028 0.0288866 356.779
0 1.00126 0 355.038
0 0.993766 0 360.316
0 0.996158 0.005 356.495
0 0.994045 0.00937999 393.93
0 0.994423 0 367.524
0 1.00368 0.0066222 386.386
0 1.0025 0.0246018 406.701
0 1.00016 0.005 352.759
0 0.995407 0.005 356.401
0 0.99421 0.0103046 423.684
0 1.0015 0.0147526 402.517
0 0.99686 0.00841386 391.775
VECTORS fa_u float
0.00061622 0.000285878 -0
0.00156813 0.000848873 -0
0.0282455 0.00809637 -0
0.00852039 0.000440331 -0
1e-08 0 0
0.0140568 0.0102569 -0
0.00109633 0.00106602 -0
1e-08 0 0
1e-08 0 0
0.0096948 0.0126364 -0
0.00103867 0.00180956 -0
-0.00423811 -0.000125316 0
0.0821921 -0.0122903 -0
1e-08 0 0
1e-08 0 0
1e-08 0 0
1e-08 0 0
1e-08 0 0
1e-08 0 0
1e-08 0 0
1e-08 0 0
0.00423711 0.0104225 -0
0.000603624 0.0021652 -0
1e-08 0 0
1e-08 0 0
1e-08 0 0
-0.0226274 0.00650051 -0
1e-08 0 0
0.0175151 -0.00494837 0
1e-08 0 0
1e-08 0 0
1e-08 0 0
0.00224512 0.0305006 -0
1e-08 0 0
1e-08 0 0
1e-08 0 0
1e-08 0 0
1e-08 0 0
1e-08 0 0
1e-08 0 0
1e-08 0 0
1e-08 0 0
1e-08 0 0
1.79572e-05 -0.000464061 -0
1e-08 0 0
1e-08 0 0
1e-08 0 0
0.0270148 -0.0150208 0
1e-08 0 0
0.00427216 -0.00382857 0
1e-08 0 0
1e-08 0 0
1e-08 0 0
1e-08 0 0
1e-08 0 0
1e-08 0 0
1e-08 0 0
1e-08 0 0
1e-08 0 0
1e-08 0 0
1e-08 0 0
1e-08 0 0
1e-08 0 0
-0.00144056 0.0126566 0
1e-08 0 0
1e-08 0 0
1e-08 0 0
1e-08 0 0
1e-08 0 0
0.000973104 -0.00103573 0
1e-08 0 0
0.00187118 -0.00232044 0
1e-08 0 0
1e-08 0 0
1e-08 0 0
1e-08 0 0
1e-08 0 0
1e-08 0 0
1e-08 0 0
1e-08 0 0
1e-08 0 0
1e-08 0 0
1e-08 0 0
1e-08 0 0
1e-08 0 0
-7.18474e-05 0.000327116 0
1e-08 0 0
1e-08 0 0
1e-08 0 0
1e-08 0 0
1e-08 0 0
1e-08 0 0
0.010795 -0.0189137 0
1e-08 0 0
1e-08 0 0
1e-08 0 0
1e-08 0 0
1e-08 0 0
-0.000741904 0.00161514 -0
1e-08 0 0
1e-08 0 0
1e-08 0 0
1e-08 0 0
1e-08 0 0
1e-08 0 0
1e-08 0 0
1e-08 0 0
1e-08 0 0
1e-08 0 0
-0.0151616 0.0370356 0
1e-08 0 0
1e-08 0 0
1e-08 0 0
1e-08 0 0
1e-08 0 0
1e-08 0 0
1e-08 0 0
1e-08 0 0
1e-08 0 0
1e-08 0 0
1e-08 0 0
1e-08 0 0
1e-08 0 0
1e-08 0 0
0.00818785 -0.0227646 0
1e-08 0 0
1e-08 0 0
1e-08 0 0
1e-08 0 0
1e-08 0 0
1e-08 0 0
1e-08 0 0
1e-08 0 0
1e-08 0 0
-0.000101681 0.000157385 0
1e-08 0 0
1e-08 0 0
1e-08 0 0
1e-08 0 0
1e-08 0 0
1e-08 0 0
1e-08 0 0
1e-08 0 0
1e-08 0 0
1e-08 0 0
1e-08 0 0
1e-08 0 0
1e-08 0 0
1e-08 0 0
1e-08 0 0
0.00111068 -0.00942404 0
1e-08 0 0
1e-08 0 0
1e-08 0 0
1e-08 0 0
1e-08 0 0
1e-08 0 0
1e-08 0 0
1e-08 0 0
1e-08 0 0
1e-08 0 0
-0.00268796 0.00366254 0
1e-08 0 0
1e-08 0 0
1e-08 0 0
1e-08 0 0
1e-08 0 0
1e-08 0 0
1e-08 0 0
1e-08 0 0
1e-08 0 0
1e-08 0 0
1e-08 0 0
1e-08 0 0
5.11978e-06 -0.000132486 0
1e-08 0 0
1e-08 0 0
1e-08 0 0
1e-08 0 0
1e-08 0 0
1e-08 0 0
1e-08 0 0
1e-08 0 0
1e-08 0 0
1e-08 0 0
1e-08 0 0
1e-08 0 0
-0.0291268 0.0251688 0
1e-08 0 0
1e-08 0 0
1e-08 0 0
1e-08 0 0
1e-08 0 0
1e-08 0 0
1e-08 0 0
1e-08 0 0
1e-08 0 0
1e-08 0 0
1e-08 0 0
1e-08 0 0
1e-08 0 0
-0.00685163 -0.0449534 0
1e-08 0 0
1e-08 0 0
1e-08 0 0
1e-08 0 0
1e-08 0 0
1e-08 0 0
1e-08 0 0
1e-08 0 0
0.00441009 -0.00323266 -0
1e-08 0 0
1e-08 0 0
1e-08 0 0
1e-08 0 0
1e-08 0 0
1e-08 0 0
1e-08 0 0
1e-08 0 0
1e-08 0 0
1e-08 0 0
1e-08 0 0
-4.31069e-05 -0.000129171 0
1e-08 0 0
1e-08 0 0
1e-08 0 0
1e-08 0 0
1e-08 0 0
1e-08 0 0
1e-08 0 0
-0.025171 0.0157344 0
1e-08 0 0
1e-08 0 0
1e-08 0 0
1e-08 0 0
1e-08 0 0
1e-08 0 0
1e-08 0 0
1e-08 0 0
1e-08 0 0
1e-08 0 0
1e-08 0 0
-0.00107244 -0.0026704 0
1e-08 0 0
1e-08 0 0
1e-08 0 0
1e-08 0 0
1e-08 0 0
0.00213216 -0.00100888 -0
1e-08 0 0
1e-08 0 0
1e-08 0 0
1e-08 0 0
1e-08 0 0
1e-08 0 0
1e-08 0 0
1e-08 0 0
-0.00216293 -0.00417483 0
1e-08 0 0
1e-08 0 0
1e-08 0 0
1e-08 0 0
-0.0342352 0.0117873 0
1e-08 0 0
1e-08 0 0
1e-08 0 0
1e-08 0 0
1e-08 0 0
1e-08 0 0
-0.0114961 -0.0153634 0
1e-08 0 0
1e-08 0 0
1e-08 0 0
-0.00140033 0.000197161 0
1e-08 0 0
1e-08 0 0
1e-08 0 0
1e-08 0 0
1e-08 0 0
1e-08 0 0
-0.0108054 -0.00929085 0
1e-08 0 0
1e-08 0 0
-0.0382571 -0.00185853 0
1e-08 0 0
1e-08 0 0
1e-08 0 0
1e-08 0 0
-0.00210394 -0.00136456 0
1e-08 0 0
0.00400443 0.00065575 -0
1e-08 0 0
1e-08 0 0
-0.00276395 -0.00147928 0
-0.0814381 -0.0274196 0
0.0084139 0.0048077 -0
