# vtk DataFile Version 2.0
CellBP Time: 0.44
ASCII
DATASET UNSTRUCTURED_GRID
POINTS 0 double
CELLS 0 0
CELL_TYPES 0
POINT_DATA 0
SCALARS concentrations float 4
LOOKUP_TABLE default
VECTORS fa_u float
