# vtk DataFile Version 2.0
CellBP Time: 0.4
ASCII
DATASET UNSTRUCTURED_GRID
POINTS 296 double
-9.09339 -3.80668 0
-8.66191 -4.91623 0
-9.61392 -2.52749 0
-9.79838 -1.27626 0
-8.40699 -2.7521 0
-7.91266 -6.00103 0
-7.01055 -7.02568 0
-7.83108 -3.87169 0
-7.35339 -4.87371 0
-6.05475 -7.86793 0
-4.88803 -8.58478 0
-9.827 0.0196565 0
-9.84162 1.29648 0
-8.47533 -1.59042 0
-8.72395 -0.578243 0
-7.52265 -1.9475 0
-7.20254 -2.88296 0
-6.66586 -5.76079 0
-5.80937 -6.57901 0
-6.70911 -3.87478 0
-6.17655 -4.62841 0
-3.80453 -9.25362 0
-2.51547 -9.56259 0
-4.88108 -7.25592 0
-3.9138 -7.95597 0
-8.78913 0.678774 0
-9.6398 2.69075 0
-8.55635 1.84419 0
-9.218 3.85095 0
-7.71505 -0.877313 0
-7.81527 0.118927 0
-6.85337 -1.30674 0
-1.24713 -9.87362 0
-6.32804 -2.0746 0
-6.14842 -2.97885 0
-5.56352 -5.48619 0
-4.85071 -6.13121 0
-5.51884 -3.72585 0
-5.14125 -4.49438 0
-2.81574 -8.30718 0
-1.72295 -8.63325 0
-3.92572 -6.72421 0
-3.03809 -7.0346 0
0.0353063 -10.0028 0
-7.73563 1.17037 0
-8.17647 2.85675 0
-7.39415 2.08336 0
-8.61229 5.06589 0
-7.84797 3.9654 0
-7.89265 6.07609 0
-6.77522 -0.354328 0
-6.97194 0.576673 0
-5.6379 -0.960919 0
-0.568035 -8.83757 0
0.557402 -8.74503 0
-5.13784 -2.40624 0
-4.47238 -5.00946 0
-3.88569 -5.72134 0
-4.32093 -3.71151 0
-2.07669 -7.51368 0
-1.18956 -7.72431 0
-2.92388 -5.97772 0
-2.26318 -6.4907 0
1.25552 -9.82869 0
-6.70571 1.41121 0
-7.09234 3.09063 0
-6.54778 2.34937 0
-7.24472 4.92164 0
-6.67823 3.91937 0
-7.02784 7.04389 0
-6.56212 5.87535 0
-6.05013 7.97815 0
-4.27883 -1.10222 0
-5.70997 0.550717 0
-4.5029 -0.00963401 0
0.0121761 -7.82259 0
1.65716 -8.63271 0
0.894971 -7.72271 0
-3.87121 -2.30437 0
-3.35408 -1.25988 0
-3.30857 -4.73329 0
-3.15399 -3.1965 0
-1.41778 -6.59124 0
-0.578637 -7.00744 0
-1.93289 -5.38097 0
2.61287 -9.60384 0
-5.42256 2.05239 0
-6.09359 3.05972 0
-6.0994 4.78351 0
-5.74329 3.96618 0
-5.75669 6.72892 0
-5.42895 5.583 0
-4.95465 8.73515 0
-4.80711 7.43453 0
-3.36747 -0.297758 0
-4.34795 1.23334 0
-3.68647 0.597231 0
-3.99052 2.30214 0
-3.80315 9.35455 0
2.81005 -8.37744 0
0.42626 -6.73761 0
1.99051 -7.48364 0
1.34781 -6.87287 0
-2.29757 -0.782143 0
-2.69137 -2.02868 0
-2.24905 -3.9818 0
-2.28836 -2.94166 0
-0.420876 -5.79995 0
-1.18078 -4.42995 0
3.87518 -9.24488 0
-4.72929 3.42722 0
-5.06597 4.58642 0
-4.60418 6.26043 0
-4.48743 5.3404 0
-3.82759 8.01983 0
-3.77564 6.80178 0
-2.7826 8.45839 0
-1.57615 -0.152325 0
-1.39331 -0.904987 0
-2.35016 0.564372 0
-3.14577 1.45507 0
-3.13857 3.33804 0
-2.86663 2.32393 0
-1.28067 0.621171 0
-2.57149 9.75252 0
3.90242 -7.86955 0
2.97205 -7.09772 0
0.951373 -5.82713 0
2.09138 -6.46363 0
-1.55381 -1.90778 0
-1.33706 -3.18065 0
0.0127553 -4.76009 0
-0.49207 -3.61838 0
4.86504 -7.32097 0
4.96852 -8.53877 0
-3.69542 4.54285 0
-3.68863 5.77021 0
-2.85063 7.24228 0
-2.99715 6.37814 0
-1.68456 8.72551 0
-1.95618 7.62207 0
-2.24359 4.07128 0
-0.636316 -1.19741 0
-0.849177 -0.164644 0
-1.90783 1.59131 0
-2.13251 2.736 0
-1.32782 3.4853 0
-0.885644 1.34199 0
-0.27059 0.465913 0
-0.572118 8.84744 0
-1.32821 10.0131 0
1.05093 -4.62851 0
3.91646 -6.65422 0
3.00441 -6.05034 0
2.09718 -5.45661 0
4.82639 -6.1761 0
-0.454396 -2.40921 0
0.557782 -3.45154 0
0.124937 -1.59898 0
1.51677 -3.71512 0
5.87126 -6.5782 0
6.18644 -7.87233 0
-2.46069 5.34692 0
-2.08337 6.49639 0
-0.874314 7.8233 0
-1.23051 6.91653 0
0.0700319 7.89299 0
-1.03985 4.52211 0
0.206127 -0.753137 0
-0.819069 2.43977 0
-0.368018 3.48892 0
0.0296102 1.52105 0
0.734831 0.477517 0
0.624456 8.93377 0
0.0148074 10.0988 0
2.35329 -4.25881 0
3.88713 -5.58942 0
3.01192 -5.21882 0
5.56806 -5.48202 0
4.70733 -5.28713 0
0.652003 -2.35774 0
1.27473 -2.99596 0
0.795371 -1.48196 0
2.19553 -3.11358 0
2.95932 -3.48656 0
6.12539 -4.76863 0
6.68795 -5.75941 0
7.10607 -7.09218 0
-0.92233 5.82335 0
-0.334161 6.86382 0
1.053 7.78112 0
0.526422 7.05303 0
0.0417437 4.62615 0
0.600601 3.74795 0
1.32166 -0.77287 0
0.474398 2.51752 0
0.913594 1.4818 0
1.85679 0.226528 0
1.57519 1.06247 0
2.03974 7.55657 0
1.78749 8.78403 0
1.36112 10.0565 0
3.81647 -4.2706 0
5.13155 -4.40101 0
5.81272 -3.95925 0
3.72857 -3.121 0
1.81696 -1.9388 0
2.99273 -2.57623 0
6.7335 -3.98603 0
7.36542 -4.91588 0
7.91913 -5.99547 0
0.468598 5.81366 0
1.35053 6.72656 0
2.23942 6.61418 0
1.1349 4.52868 0
1.42649 3.3115 0
2.34979 -0.689828 0
2.73865 0.0975534 0
1.7485 2.07815 0
2.5423 1.09582 0
2.97953 7.15206 0
2.86102 8.46545 0
2.58625 9.76115 0
4.8559 -3.20011 0
6.12699 -3.08191 0
4.11336 -2.18383 0
3.13169 -1.51347 0
6.67025 -2.236 0
7.21333 -2.96491 0
7.87865 -3.92846 0
8.78036 -4.94987 0
2.0135 5.56571 0
2.9168 6.08837 0
2.27039 4.14202 0
2.34435 3.03983 0
3.41639 -0.524352 0
3.52703 0.503685 0
2.88928 2.23672 0
3.4513 1.4566 0
3.88016 5.87443 0
3.84408 6.68793 0
3.91745 7.90196 0
3.83161 9.24102 0
5.54057 -1.85923 0
4.39807 -1.19505 0
6.60981 -1.22453 0
7.51718 -1.96274 0
8.33269 -2.81221 0
9.22236 -3.75917 0
3.35725 4.75186 0
3.25719 3.4337 0
4.56549 0.0615224 0
4.3976 1.24347 0
3.92389 2.37637 0
4.5 5.13519 0
4.79031 6.19466 0
4.86718 7.4437 0
5.06265 8.77731 0
5.72059 -0.377376 0
6.85597 -0.421541 0
7.62031 -1.02492 0
8.59102 -1.72788 0
9.62406 -2.47223 0
4.49026 3.91175 0
5.73671 1.23011 0
5.19408 2.54562 0
5.33364 4.61641 0
5.48932 5.56194 0
5.87185 6.75496 0
6.1402 7.95666 0
6.80485 0.468255 0
7.824 0.0130078 0
8.77755 -0.571073 0
9.88648 -1.2815 0
6.87242 1.35116 0
5.58469 3.76073 0
6.54509 2.20775 0
6.20639 3.12121 0
6.14953 4.72084 0
6.5622 5.90463 0
7.04604 7.10563 0
7.67806 0.983335 0
8.85349 0.526619 0
10.1507 0.0226205 0
7.49869 2.00669 0
6.63077 3.81616 0
7.14017 2.88613 0
7.21659 4.95587 0
7.89059 6.11485 0
8.60544 1.65188 0
9.78735 1.35711 0
8.28686 2.90791 0
7.8147 3.99462 0
8.59692 5.00464 0
9.57372 2.67577 0
9.23627 3.7901 0
CELLS 542 2168
3 2 0 4
3 0 1 7
3 4 0 7
3 1 5 8
3 7 1 8
3 3 2 13
3 13 2 4
3 11 3 14
3 14 3 13
3 13 4 15
3 4 7 16
3 15 4 16
3 5 6 17
3 8 5 17
3 6 9 18
3 17 6 18
3 7 8 19
3 16 7 19
3 8 17 20
3 19 8 20
3 9 10 23
3 18 9 23
3 10 21 24
3 23 10 24
3 12 11 25
3 25 11 14
3 26 12 27
3 27 12 25
3 14 13 29
3 29 13 15
3 25 14 30
3 30 14 29
3 29 15 31
3 15 16 33
3 31 15 33
3 16 19 34
3 33 16 34
3 17 18 35
3 20 17 35
3 18 23 36
3 35 18 36
3 19 20 37
3 34 19 37
3 20 35 38
3 37 20 38
3 21 22 39
3 24 21 39
3 22 32 40
3 39 22 40
3 23 24 41
3 36 23 41
3 24 39 42
3 41 24 42
3 27 25 44
3 44 25 30
3 28 26 45
3 45 26 27
3 45 27 46
3 46 27 44
3 47 28 48
3 48 28 45
3 30 29 50
3 50 29 31
3 44 30 51
3 51 30 50
3 50 31 52
3 31 33 52
3 32 43 53
3 40 32 53
3 53 43 54
3 33 34 55
3 34 37 55
3 33 55 52
3 35 36 56
3 38 35 56
3 36 41 57
3 56 36 57
3 37 38 58
3 38 56 58
3 37 58 55
3 39 40 59
3 42 39 59
3 40 53 60
3 59 40 60
3 41 42 61
3 57 41 61
3 42 59 62
3 61 42 62
3 43 63 54
3 46 44 64
3 64 44 51
3 48 45 65
3 65 45 46
3 65 46 66
3 66 46 64
3 49 47 67
3 67 47 48
3 67 48 68
3 68 48 65
3 69 49 70
3 70 49 67
3 52 55 72
3 64 51 73
3 51 50 73
3 50 52 73
3 73 52 74
3 74 52 72
3 53 54 75
3 60 53 75
3 54 63 76
3 54 76 77
3 75 54 77
3 55 58 78
3 72 55 78
3 72 78 79
3 56 57 80
3 57 61 80
3 56 80 58
3 58 80 81
3 78 58 81
3 59 60 82
3 62 59 82
3 60 75 83
3 82 60 83
3 61 62 84
3 62 82 84
3 61 84 80
3 63 85 76
3 66 64 86
3 64 73 86
3 68 65 87
3 87 65 66
3 87 66 86
3 70 67 88
3 88 67 68
3 88 68 89
3 89 68 87
3 71 69 90
3 90 69 70
3 90 70 91
3 91 70 88
3 92 71 93
3 93 71 90
3 74 72 94
3 94 72 79
3 86 73 95
3 95 73 74
3 95 74 96
3 96 74 94
3 97 86 95
3 76 85 99
3 75 77 100
3 83 75 100
3 76 99 101
3 77 76 101
3 77 101 102
3 100 77 102
3 94 79 103
3 78 81 104
3 79 78 104
3 79 104 103
3 80 84 105
3 81 80 105
3 81 105 106
3 104 81 106
3 82 83 107
3 83 100 107
3 82 107 84
3 84 107 108
3 105 84 108
3 85 109 99
3 89 87 110
3 87 86 110
3 110 86 97
3 91 88 111
3 111 88 89
3 111 89 110
3 93 90 112
3 112 90 91
3 112 91 113
3 113 91 111
3 98 92 114
3 114 92 93
3 114 93 115
3 115 93 112
3 116 98 114
3 117 103 118
3 96 94 119
3 94 103 119
3 119 103 117
3 97 95 120
3 120 95 96
3 120 96 119
3 121 110 97
3 121 97 122
3 122 97 120
3 123 119 117
3 124 98 116
3 99 109 125
3 99 125 126
3 101 99 126
3 100 102 127
3 100 127 107
3 101 126 128
3 102 101 128
3 102 128 127
3 104 106 129
3 104 129 103
3 103 129 118
3 105 108 130
3 106 105 130
3 106 130 129
3 107 127 131
3 108 107 131
3 108 131 132
3 108 132 130
3 109 134 125
3 125 134 133
3 113 111 135
3 111 110 135
3 135 110 121
3 115 112 136
3 136 112 113
3 136 113 135
3 116 114 137
3 137 114 115
3 137 115 138
3 138 115 136
3 139 124 116
3 139 116 140
3 140 116 137
3 141 135 121
3 118 129 142
3 118 142 143
3 117 118 143
3 123 117 143
3 122 120 144
3 120 119 144
3 144 119 123
3 141 121 145
3 145 121 122
3 145 122 144
3 146 141 145
3 147 144 123
3 147 123 148
3 143 148 123
3 150 124 139
3 149 150 139
3 131 127 151
3 125 133 152
3 126 125 152
3 126 152 153
3 128 126 153
3 128 153 154
3 128 154 127
3 127 154 151
3 152 133 155
3 130 132 156
3 130 156 129
3 129 156 142
3 131 151 157
3 132 131 157
3 132 157 156
3 156 158 142
3 157 151 159
3 133 160 155
3 134 161 133
3 133 161 160
3 138 136 162
3 136 135 162
3 162 135 141
3 140 137 163
3 163 137 138
3 163 138 162
3 149 139 164
3 164 139 140
3 164 140 165
3 165 140 163
3 166 149 164
3 167 162 141
3 167 141 146
3 142 158 168
3 143 142 168
3 143 168 148
3 146 145 169
3 145 144 169
3 169 144 147
3 170 167 146
3 170 146 169
3 171 169 147
3 171 147 148
3 171 148 172
3 168 172 148
3 173 149 166
3 174 150 149
3 173 174 149
3 154 175 151
3 151 175 159
3 152 155 176
3 153 152 176
3 153 176 177
3 153 177 154
3 154 177 175
3 155 160 178
3 155 178 179
3 176 155 179
3 156 157 180
3 156 180 158
3 157 159 181
3 157 181 180
3 158 180 182
3 158 182 168
3 159 175 183
3 159 183 181
3 175 184 183
3 160 186 178
3 178 186 185
3 161 187 160
3 160 187 186
3 165 163 188
3 163 162 188
3 188 162 167
3 166 164 189
3 189 164 165
3 189 165 188
3 190 173 166
3 190 166 191
3 191 166 189
3 192 188 167
3 192 167 170
3 193 192 170
3 182 194 168
3 194 172 168
3 193 170 195
3 170 169 195
3 195 169 171
3 196 195 171
3 196 171 172
3 194 197 172
3 197 198 172
3 198 196 172
3 200 173 190
3 199 200 190
3 201 174 173
3 200 201 173
3 176 179 202
3 177 176 202
3 177 202 175
3 175 202 184
3 178 185 203
3 178 203 179
3 179 203 202
3 203 185 204
3 202 205 184
3 183 206 181
3 180 181 206
3 180 206 182
3 182 206 194
3 183 184 207
3 205 207 184
3 183 207 206
3 185 208 204
3 186 209 185
3 185 209 208
3 187 210 186
3 186 210 209
3 191 189 211
3 189 188 211
3 211 188 192
3 199 190 212
3 212 190 191
3 212 191 211
3 213 199 212
3 214 211 192
3 214 192 193
3 215 214 193
3 215 193 195
3 206 216 194
3 216 197 194
3 216 217 197
3 215 195 218
3 218 195 196
3 198 218 196
3 217 219 197
3 219 218 198
3 197 219 198
3 220 199 213
3 221 200 199
3 220 221 199
3 222 201 200
3 221 222 200
3 203 204 223
3 203 223 202
3 202 223 205
3 204 208 224
3 204 224 223
3 205 223 225
3 205 225 207
3 207 225 226
3 207 226 206
3 226 216 206
3 208 228 224
3 224 228 227
3 209 229 208
3 229 228 208
3 210 230 209
3 209 230 229
3 213 212 231
3 212 211 231
3 231 211 214
3 232 220 213
3 232 213 231
3 233 231 214
3 233 214 215
3 234 233 215
3 234 215 218
3 226 235 216
3 235 217 216
3 235 236 217
3 217 236 219
3 237 234 218
3 237 218 219
3 236 238 219
3 238 237 219
3 240 220 232
3 239 240 232
3 241 221 220
3 240 241 220
3 242 222 221
3 241 242 221
3 224 227 243
3 224 243 223
3 223 243 225
3 225 243 244
3 225 244 226
3 226 244 235
3 227 245 243
3 228 246 227
3 227 246 245
3 229 247 228
3 228 247 246
3 230 248 229
3 229 248 247
3 239 232 249
3 232 231 249
3 249 231 233
3 250 249 233
3 250 233 234
3 237 250 234
3 244 251 235
3 235 251 236
3 251 252 236
3 236 252 238
3 252 253 238
3 253 250 237
3 253 237 238
3 254 239 249
3 255 240 239
3 254 255 239
3 256 241 240
3 255 256 240
3 257 242 241
3 256 257 241
3 245 258 243
3 243 258 244
3 244 258 251
3 245 259 258
3 246 260 245
3 245 260 259
3 247 261 246
3 246 261 260
3 248 262 247
3 247 262 261
3 254 249 263
3 263 249 250
3 253 263 250
3 258 264 251
3 251 264 252
3 264 265 252
3 265 263 253
3 252 265 253
3 266 254 263
3 267 255 254
3 266 267 254
3 268 256 255
3 267 268 255
3 269 257 256
3 268 269 256
3 259 270 258
3 270 264 258
3 260 271 259
3 259 271 270
3 261 272 260
3 260 272 271
3 262 273 261
3 273 272 261
3 270 274 264
3 275 266 263
3 275 263 265
3 274 276 264
3 276 265 264
3 276 277 265
3 277 275 265
3 278 267 266
3 275 278 266
3 279 268 267
3 278 279 267
3 280 269 268
3 279 280 268
3 271 281 270
3 270 281 274
3 272 282 271
3 271 282 281
3 273 283 272
3 272 283 282
3 281 284 274
3 274 284 276
3 285 278 275
3 277 285 275
3 284 286 276
3 286 285 277
3 276 286 277
3 287 279 278
3 285 287 278
3 288 280 279
3 287 288 279
3 282 289 281
3 281 289 284
3 283 290 282
3 282 290 289
3 289 291 284
3 284 291 286
3 291 292 286
3 292 287 285
3 286 292 285
3 293 288 287
3 292 293 287
3 290 294 289
3 289 294 291
3 294 295 291
3 295 293 292
3 291 295 292
CELL_TYPES 542
5
5
5
5
5
5
5
5
5
5
5
5
5
5
5
5
5
5
5
5
5
5
5
5
5
5
5
5
5
5
5
5
5
5
5
5
5
5
5
5
5
5
5
5
5
5
5
5
5
5
5
5
5
5
5
5
5
5
5
5
5
5
5
5
5
5
5
5
5
5
5
5
5
5
5
5
5
5
5
5
5
5
5
5
5
5
5
5
5
5
5
5
5
5
5
5
5
5
5
5
5
5
5
5
5
5
5
5
5
5
5
5
5
5
5
5
5
5
5
5
5
5
5
5
5
5
5
5
5
5
5
5
5
5
5
5
5
5
5
5
5
5
5
5
5
5
5
5
5
5
5
5
5
5
5
5
5
5
5
5
5
5
5
5
5
5
5
5
5
5
5
5
5
5
5
5
5
5
5
5
5
5
5
5
5
5
5
5
5
5
5
5
5
5
5
5
5
5
5
5
5
5
5
5
5
5
5
5
5
5
5
5
5
5
5
5
5
5
5
5
5
5
5
5
5
5
5
5
5
5
5
5
5
5
5
5
5
5
5
5
5
5
5
5
5
5
5
5
5
5
5
5
5
5
5
5
5
5
5
5
5
5
5
5
5
5
5
5
5
5
5
5
5
5
5
5
5
5
5
5
5
5
5
5
5
5
5
5
5
5
5
5
5
5
5
5
5
5
5
5
5
5
5
5
5
5
5
5
5
5
5
5
5
5
5
5
5
5
5
5
5
5
5
5
5
5
5
5
5
5
5
5
5
5
5
5
5
5
5
5
5
5
5
5
5
5
5
5
5
5
5
5
5
5
5
5
5
5
5
5
5
5
5
5
5
5
5
5
5
5
5
5
5
5
5
5
5
5
5
5
5
5
5
5
5
5
5
5
5
5
5
5
5
5
5
5
5
5
5
5
5
5
5
5
5
5
5
5
5
5
5
5
5
5
5
5
5
5
5
5
5
5
5
5
5
5
5
5
5
5
5
5
5
5
5
5
5
5
5
5
5
5
5
5
5
5
5
5
5
5
5
5
5
5
5
5
5
5
5
5
5
5
5
5
5
5
5
5
5
5
5
5
5
5
5
5
5
5
5
5
5
5
5
5
5
5
5
5
5
5
5
5
5
5
5
5
5
5
5
5
5
5
5
5
5
5
5
5
5
5
5
5
5
5
5
5
5
5
5
5
5
5
5
5
5
5
5
5
5
5
5
5
5
5
5
5
5
5
5
5
5
5
POINT_DATA 296
SCALARS concentrations float 4
LOOKUP_TABLE default
0 0.995306 0.0427626 110.164
0 0.997417 0.0341382 61.619
0 0.991354 0.0513904 131.178
0 0.991234 0.0386665 9.13104
0 0.99576 0.0552096 68.662
0 0.999126 0.020906 31.6611
0 0.999107 0.0554064 130.391
0 0.997626 0.0470885 156.203
0 0.998465 0.0432585 103.691
0 1.00192 0.0353601 31.9456
0 1.00302 0.0454613 92.0646
0 0.992122 0.0494064 100.704
0 0.998656 0.0298217 19.7364
0 0.99359 0.0356267 20.9
0 0.991544 0.0427639 57.2302
0 0.997838 0.0469312 152.329
0 0.997021 0.0560915 143.343
0 0.999541 0.0464795 47.1155
0 1.00032 0.0469647 52.0358
0 0.997977 0.050521 119.375
0 0.999886 0.0457823 44.1202
0 1.00329 0.036517 72.4693
0 1.00216 0.0367887 76.959
0 1.00184 0.0384267 89.8854
0 1.00271 0.0382545 126.775
0 0.993895 0.0456497 49.9662
0 1.00219 0.005 67.5939
0 0.996933 0.0452326 65.7608
0 0.999729 0.0476809 12.6866
0 0.995753 0.0528014 130.532
0 0.994747 0.0423754 69.0332
0 0.994285 0 73.3538
0 0.99722 0.0363217 74.4658
0 0.995204 0.0563865 138.269
0 0.997043 0.0543609 140.65
0 1.00147 0.0441523 33.5301
0 1.00096 0.0392719 71.5303
0 0.996974 0.0552236 87.313
0 0.999711 0.0532174 30.9166
0 1.00256 0.0500818 152.551
0 0.999531 0.0368676 107.544
0 1.00185 0.0380756 123.8
0 1.00133 0.0504258 159.255
0 1.00169 0.0382047 78.4664
0 0.992536 0.0423304 58.6949
0 0.997921 0.0462704 186.802
0 0.992834 0.051333 231.012
0 0.996624 0.0537303 59.7234
0 0.997712 0.042484 51.4055
0 0.998767 0.0492817 48.0092
0 0.993142 0.0422865 94.6663
0 0.994131 0.0433191 90.4673
0 0.992671 0.0520133 204.119
0 0.997766 0.0469543 145.858
0 0.997958 0 55.6215
0 0.99412 0.0474225 132.913
0 0.999255 0.0499609 64.7337
0 0.99963 0.0376957 121.314
0 0.996055 0.0466033 34.4764
0 0.998797 0.0368858 165.203
0 0.997717 0.0428169 167.614
0 0.999084 0.0483247 167.959
0 0.996667 0.051369 186.476
0 1.00168 0.010843 59.5644
0 0.991916 0.0427255 85.5974
0 0.997047 0.0528977 205.901
0 0.994083 0.0473286 166.49
0 0.999036 0.058929 94.2387
0 1.00007 0.0417382 236.163
0 1.00143 0.0298462 66.0591
0 0.99928 0.0453517 96.7137
0 1.00394 0.0357703 107.619
0 0.990551 0.0465808 173.593
0 0.993425 0.0557182 226.689
0 0.990393 0.0490597 251.561
0 0.9946 0.0382065 111.492
0 0.996386 0.0267143 41.2954
0 0.994561 0.0405237 181.62
0 0.993044 0.0289298 85.0875
0 0.987629 0.0296633 137.011
0 0.995206 0.0375 98.2235
0 0.993643 0.0417096 84.9763
0 0.996253 0 80.8203
0 0.997222 0.0345947 196.953
0 0.992725 0 88.0291
0 0.995063 0.0467395 89.4092
0 0.993967 0.0438865 184.945
0 0.994782 0.0484517 161.96
0 0.999692 0.0437221 110.43
0 0.997418 0.0448084 153.752
0 1.0018 0.0386466 125.076
0 0.999565 0.0361065 143.749
0 1.00352 0.0197279 67.2993
0 1.00305 0.036115 153.514
0 0.988096 0.041048 195.05
0 0.993393 0.042057 217.714
0 0.988032 0 128.793
0 0.994733 0.0433991 206.925
0 1.00051 0.0243232 112.986
0 0.994365 0.0285111 11.4393
0 0.995424 0.0524613 173.328
0 0.997316 0.027043 53.0743
0 0.996543 0.0385837 133.506
0 0.986463 0.0365975 203.355
0 0.989629 0.0311348 131.882
0 0.990809 0.0560811 176.844
0 0.989267 0.0511186 215.564
0 0.99283 0 90.1064
0 0.989431 0 111.066
0 0.994197 0.018207 67.0312
0 0.996676 0.0384859 161.629
0 0.998606 0.0349808 140.132
0 1.00078 0.0309158 168.727
0 0.999551 0.0316861 163.907
0 1.00145 0.0333387 165.904
0 1.00052 0.0174552 211.371
0 0.999003 0.0355696 163.503
0 0.981081 0.0303483 266.731
0 0.982184 0.0449843 254.439
0 0.98187 0.056622 117.333
0 0.989166 0 105.981
0 0.991857 0 93.4988
0 0.987725 0 83.6958
0 0.976656 0 128.838
0 0.998834 0.0237811 90.0769
0 0.994 0.0287911 36.9949
0 0.993909 0.0292497 59.9821
0 0.991436 0.0323528 212.322
0 0.993137 0.0387004 123.691
0 0.985765 0.046984 220.252
0 0.989552 0.0316522 230.728
0 0.98761 0 112.294
0 0.988631 0 136.232
0 0.99434 0.0292082 39.8373
0 0.994887 0.0287957 33.5622
0 0.997872 0.0339171 192.878
0 0.998056 0.0276858 202.806
0 0.998612 0.0258516 208.428
0 0.997645 0.019809 218.977
0 0.996433 0.0427616 162.477
0 0.995883 0.0355768 186.851
0 0.996423 0 98.336
0 0.982764 0.0207641 268.204
0 0.979993 0 145.912
0 0.984646 0 106.551
0 0.992086 0 88.699
0 0.996904 0 91.6997
0 0.985926 0 114.193
0 0.982437 0 129.955
0 0.992534 0.0385939 99.5626
0 0.99362 0.0189482 36.0966
0 0.989975 0 120.254
0 0.994242 0.0247441 53.3073
0 0.994652 0.0385177 119.298
0 0.993376 0.0361661 223.933
0 0.994049 0.0333436 58.1206
0 0.986081 0.0101782 229.172
0 0.987694 0 148.96
0 0.98257 0 177.356
0 0.986099 0 147.33
0 0.992226 0.0367364 34.623
0 0.993552 0 41.1652
0 0.995725 0 110.758
0 0.995456 0.0295439 213.267
0 0.99259 0.0429549 154.995
0 0.993317 0.0368152 190.736
0 0.99074 0.0432428 148.558
0 0.994622 0 94.3959
0 0.98201 0 159.887
0 0.991983 0.005 80.6894
0 0.989561 0.005 86.5028
0 0.98753 0 78.375
0 0.984437 0 96.0372
0 0.994234 0.0473803 75.9246
0 0.994655 0 39.6655
0 0.99216 0.0316973 230.21
0 0.996039 0.0393981 95.0908
0 0.996895 0.0383251 135.536
0 0.994492 0.0339413 58.5648
0 0.99533 0.029338 50.549
0 0.987495 0.005 180.19
0 0.989566 0.005 166.289
0 0.985484 0 171.743
0 0.989394 0 148.504
0 0.99054 0 124.426
0 0.993293 0.024456 12.8509
0 0.993005 0.0365031 47.0012
0 0.991443 0.0385659 8.9195
0 0.993001 0 105.378
0 0.989928 0.0377527 167.063
0 0.99076 0.0334759 62.0103
0 0.988811 0.0428125 133.879
0 0.990034 0 88.5142
0 0.986191 0.031611 164.921
0 0.983937 0 125.132
0 0.987173 0.0312587 165.786
0 0.988836 0.0463526 149.072
0 0.985134 0.0413884 181.87
0 0.98832 0.0429416 180.774
0 0.990845 0.0291326 73.3205
0 0.993038 0.0278607 59.8286
0 0.99793 0.00902293 29.1512
0 0.99352 0.0143197 116.45
0 0.99235 0.0435302 116.505
0 0.991441 0.0420197 112.392
0 0.990089 0.0315603 212.897
0 0.990587 0 161.731
0 0.990507 0 130.512
0 0.99044 0.0422846 73.7925
0 0.992506 0.025357 29.4642
0 0.992899 0.0428577 45.749
0 0.988437 0.0354726 160.252
0 0.988099 0.0451691 191.483
0 0.987294 0.033549 84.6134
0 0.98726 0.0354419 134.73
0 0.984983 0.0367281 101.583
0 0.98686 0 96.865
0 0.986299 0.0403258 178.986
0 0.983707 0.005 59.3614
0 0.98246 0.0441254 133.315
0 0.990061 0.0285317 94.9948
0 0.99326 0.0338057 67.7473
0 0.995577 0.0181418 37.5065
0 0.990254 0.0360541 93.7229
0 0.988869 0.0339448 38.8059
0 0.989758 0.0370418 151.313
0 0.989914 0.0464404 224.679
0 0.987472 0.0334848 41.6779
0 0.98958 0.0337772 32.7554
0 0.991058 0.0195791 21.9027
0 0.992093 0.0326603 27.739
0 0.985193 0.042839 63.1767
0 0.985716 0.0268991 69.0609
0 0.98454 0.0281603 38.7514
0 0.980619 0.0453342 67.096
0 0.987703 0.0467953 162.968
0 0.981481 0.0429831 170.674
0 0.98298 0.00991012 84.5458
0 0.983239 0.0143734 80.3308
0 0.986469 0.034019 91.1331
0 0.991179 0.0245892 33.0724
0 0.993362 0.0338137 80.209
0 0.994588 0.0292005 39.3807
0 0.988179 0.0334897 59.7524
0 0.988366 0.0425555 142.784
0 0.985339 0.0413624 88.1429
0 0.989477 0.0385698 76.5702
0 0.990695 0.0245598 31.5413
0 0.99045 0.0325786 56.4956
0 0.984241 0.0238061 15.6226
0 0.983338 0.0336777 68.6315
0 0.983584 0.0433989 116.28
0 0.979887 0.024559 88.5968
0 0.981036 0.005 65.067
0 0.984179 0.0196167 45.9234
0 0.988932 0.0287422 71.9084
0 0.991992 0.024173 38.5029
0 0.993586 0.0384048 17.7285
0 0.984627 0.024025 35.9326
0 0.984526 0.0246134 21.3785
0 0.988916 0.0309873 69.8533
0 0.992487 0.0329846 76.5963
0 0.99208 0.0331546 47.2257
0 0.981308 0.0194603 29.6167
0 0.981184 0.0189145 31.3591
0 0.980476 0.011124 83.5689
0 0.985364 0.0340247 76.4413
0 0.987924 0.0316714 82.9607
0 0.990576 0.0285567 41.0915
0 0.991784 0.0195898 13.8516
0 0.98238 0.0426814 75.3994
0 0.989413 0.0338355 78.507
0 0.996318 0.0293392 46.6839
0 0.997146 0.0316111 50.0203
0 0.980328 0.033694 87.7852
0 0.987372 0.0235605 25.0128
0 0.982892 0.0236503 64.3093
0 0.986315 0.0165187 57.5001
0 0.989449 0.0237983 34.5908
0 0.9921 0.0320677 89.7531
0 0.992244 0.0333373 61.8037
0 0.987184 0.0285034 42.0924
0 0.993885 0.0243891 24.8304
0 0.998035 0.0084687 34.4991
0 0.985584 0.0340263 74.5462
0 0.987427 0.024259 25.3328
0 0.986071 0.0324616 79.5509
0 0.990808 0.0244674 31.3244
0 0.99281 0.024453 35.3884
0 0.988646 0.0245672 18.4332
0 0.990776 0.0297688 6.20688
0 0.988093 0.0214667 16.8934
0 0.988259 0.0242066 34.844
0 0.989573 0.0333375 61.2506
0 0.988384 0.015487 80.1463
0 0.988866 0.0184513 74.7814
VECTORS fa_u float
-8.76155e-05 -3.49182e-05 0
0.0189312 0.0101865 -0
0.0207366 0.00577729 -0
0.00599102 0.000501182 -0
1e-08 0 0
0.0040352 0.00315892 -0
0.00428889 0.00426822 -0
1e-08 0 0
1e-08 0 0
0.00653806 0.00890073 -0
-8.62151e-07 -1.40005e-06 0
4.39301e-05 7.38447e-07 -0
0.00890252 -0.000623926 -0
1e-08 0 0
1e-08 0 0
1e-08 0 0
1e-08 0 0
1e-08 0 0
1e-08 0 0
1e-08 0 0
1e-08 0 0
0.0144975 0.035177 -0
-2.44856e-06 -1.00999e-05 0
1e-08 0 0
1e-08 0 0
1e-08 0 0
0.015303 -0.00373593 0
1e-08 0 0
0.0045717 -0.00197775 0
1e-08 0 0
1e-08 0 0
1e-08 0 0
0.0012805 0.00741922 -0
1e-08 0 0
1e-08 0 0
1e-08 0 0
1e-08 0 0
1e-08 0 0
1e-08 0 0
1e-08 0 0
1e-08 0 0
1e-08 0 0
1e-08 0 0
-0.000412413 0.0229735 -0
1e-08 0 0
1e-08 0 0
1e-08 0 0
0.00805915 -0.00480024 0
1e-08 0 0
0.00372907 -0.00298712 0
1e-08 0 0
1e-08 0 0
1e-08 0 0
1e-08 0 0
1e-08 0 0
1e-08 0 0
1e-08 0 0
1e-08 0 0
1e-08 0 0
1e-08 0 0
1e-08 0 0
1e-08 0 0
1e-08 0 0
-2.94372e-05 0.000190168 0
1e-08 0 0
1e-08 0 0
1e-08 0 0
1e-08 0 0
1e-08 0 0
0.0016838 -0.00163109 0
1e-08 0 0
0.00584891 -0.0071698 0
1e-08 0 0
1e-08 0 0
1e-08 0 0
1e-08 0 0
1e-08 0 0
1e-08 0 0
1e-08 0 0
1e-08 0 0
1e-08 0 0
1e-08 0 0
1e-08 0 0
1e-08 0 0
1e-08 0 0
-0.00102841 0.00461467 0
1e-08 0 0
1e-08 0 0
1e-08 0 0
1e-08 0 0
1e-08 0 0
1e-08 0 0
0.00243933 -0.00398221 0
1e-08 0 0
1e-08 0 0
1e-08 0 0
1e-08 0 0
1e-08 0 0
0.00490913 -0.0114994 0
1e-08 0 0
1e-08 0 0
1e-08 0 0
1e-08 0 0
1e-08 0 0
1e-08 0 0
1e-08 0 0
1e-08 0 0
1e-08 0 0
1e-08 0 0
-0.0135936 0.0300655 0
1e-08 0 0
1e-08 0 0
1e-08 0 0
1e-08 0 0
1e-08 0 0
1e-08 0 0
1e-08 0 0
1e-08 0 0
1e-08 0 0
1e-08 0 0
1e-08 0 0
1e-08 0 0
1e-08 0 0
1e-08 0 0
0.00112278 -0.00421974 0
1e-08 0 0
1e-08 0 0
1e-08 0 0
1e-08 0 0
1e-08 0 0
1e-08 0 0
1e-08 0 0
1e-08 0 0
1e-08 0 0
0.00100338 -0.0016896 -0
1e-08 0 0
1e-08 0 0
1e-08 0 0
1e-08 0 0
1e-08 0 0
1e-08 0 0
1e-08 0 0
1e-08 0 0
1e-08 0 0
1e-08 0 0
1e-08 0 0
1e-08 0 0
1e-08 0 0
1e-08 0 0
1e-08 0 0
0.00103038 -0.00769506 0
1e-08 0 0
1e-08 0 0
1e-08 0 0
1e-08 0 0
1e-08 0 0
1e-08 0 0
1e-08 0 0
1e-08 0 0
1e-08 0 0
1e-08 0 0
-0.00881187 0.0130208 0
1e-08 0 0
1e-08 0 0
1e-08 0 0
1e-08 0 0
1e-08 0 0
1e-08 0 0
1e-08 0 0
1e-08 0 0
1e-08 0 0
1e-08 0 0
1e-08 0 0
1e-08 0 0
5.42299e-05 -0.00335868 0
1e-08 0 0
1e-08 0 0
1e-08 0 0
1e-08 0 0
1e-08 0 0
1e-08 0 0
1e-08 0 0
1e-08 0 0
1e-08 0 0
1e-08 0 0
1e-08 0 0
1e-08 0 0
-0.0148662 0.0137242 0
1e-08 0 0
1e-08 0 0
1e-08 0 0
1e-08 0 0
1e-08 0 0
1e-08 0 0
1e-08 0 0
1e-08 0 0
1e-08 0 0
1e-08 0 0
1e-08 0 0
1e-08 0 0
1e-08 0 0
-0.00208303 -0.0158623 0
1e-08 0 0
1e-08 0 0
1e-08 0 0
1e-08 0 0
1e-08 0 0
1e-08 0 0
1e-08 0 0
1e-08 0 0
0.000755024 -0.000590072 -0
1e-08 0 0
1e-08 0 0
1e-08 0 0
1e-08 0 0
1e-08 0 0
1e-08 0 0
1e-08 0 0
1e-08 0 0
1e-08 0 0
1e-08 0 0
1e-08 0 0
-0.00302318 -0.00915863 0
1e-08 0 0
1e-08 0 0
1e-08 0 0
1e-08 0 0
1e-08 0 0
1e-08 0 0
1e-08 0 0
-0.0357844 0.0208538 0
1e-08 0 0
1e-08 0 0
1e-08 0 0
1e-08 0 0
1e-08 0 0
1e-08 0 0
1e-08 0 0
1e-08 0 0
1e-08 0 0
1e-08 0 0
1e-08 0 0
0.000173497 0.000436703 -0
1e-08 0 0
1e-08 0 0
1e-08 0 0
1e-08 0 0
1e-08 0 0
-0.00101073 0.000344182 0
1e-08 0 0
1e-08 0 0
1e-08 0 0
1e-08 0 0
1e-08 0 0
1e-08 0 0
1e-08 0 0
1e-08 0 0
-0.0151114 -0.0271624 0
1e-08 0 0
1e-08 0 0
1e-08 0 0
1e-08 0 0
-0.00275485 0.00073842 0
1e-08 0 0
1e-08 0 0
1e-08 0 0
1e-08 0 0
1e-08 0 0
1e-08 0 0
-0.00264395 -0.00313694 0
1e-08 0 0
1e-08 0 0
1e-08 0 0
-0.000110843 2.33993e-05 0
1e-08 0 0
1e-08 0 0
1e-08 0 0
1e-08 0 0
1e-08 0 0
1e-08 0 0
-0.00348104 -0.00330824 0
1e-08 0 0
1e-08 0 0
-0.0763377 -0.00286792 0
1e-08 0 0
1e-08 0 0
1e-08 0 0
1e-08 0 0
-0.00593711 -0.00438258 0
1e-08 0 0
0.00397156 0.000863742 -0
1e-08 0 0
1e-08 0 0
-0.00216532 -0.00125339 0
-0.00692035 -0.00156748 0
-0.0130932 -0.00549169 0
