# vtk DataFile Version 2.0
CellBP Time: 1.08
ASCII
DATASET UNSTRUCTURED_GRID
POINTS 296 double
-8.99576 -4.06374 0
-8.51931 -5.05877 0
-9.55359 -2.65386 0
-9.74684 -1.42002 0
-8.27374 -2.88447 0
-7.83975 -6.11983 0
-6.99215 -7.07316 0
-7.79355 -3.95666 0
-7.2035 -5.04473 0
-6.03719 -8.04785 0
-4.8232 -8.77868 0
-9.77915 -0.113819 0
-9.84296 1.29208 0
-8.32074 -1.72666 0
-8.73049 -0.738873 0
-7.40084 -2.13552 0
-7.06704 -3.09276 0
-6.44319 -5.91009 0
-5.72307 -6.84508 0
-6.56253 -4.12642 0
-5.92658 -4.82551 0
-3.69222 -9.33519 0
-2.34367 -9.82667 0
-4.7373 -7.38215 0
-3.83498 -8.03723 0
-8.72144 0.495265 0
-9.32926 2.482 0
-8.35835 1.60908 0
-9.15093 3.75103 0
-7.527 -1.05573 0
-7.72249 -0.0948484 0
-6.61792 -1.53301 0
-1.2197 -10.0505 0
-6.10046 -2.31281 0
-5.90819 -3.22615 0
-5.38889 -5.74405 0
-4.65552 -6.35076 0
-5.26499 -3.92956 0
-4.87443 -4.77356 0
-2.76918 -8.40487 0
-1.78735 -8.65773 0
-3.71877 -6.81984 0
-2.82847 -7.18809 0
0.207169 -10.0292 0
-7.61076 0.937198 0
-7.97789 2.58268 0
-7.22488 1.85744 0
-8.60599 5.06702 0
-7.79008 3.92294 0
-7.86112 5.87467 0
-6.71364 -0.523202 0
-6.88871 0.385315 0
-5.57525 -1.10662 0
-0.528656 -8.98738 0
0.603615 -8.81062 0
-5.00215 -2.54031 0
-4.16251 -5.16399 0
-3.66503 -5.84356 0
-4.15206 -3.82732 0
-1.90458 -7.59505 0
-1.05511 -7.857 0
-2.7435 -6.08674 0
-2.1346 -6.53991 0
1.49072 -10.0125 0
-6.57327 1.17754 0
-7.1285 3.05101 0
-6.45381 2.20612 0
-7.03774 4.62012 0
-6.46814 3.74467 0
-6.92309 6.87862 0
-6.47593 5.70039 0
-5.9468 7.81061 0
-4.07129 -1.25966 0
-5.61261 0.25182 0
-4.37194 -0.285871 0
0.134109 -7.92133 0
1.63039 -8.69025 0
1.09072 -7.85605 0
-3.70473 -2.47387 0
-3.15542 -1.42197 0
-3.14701 -4.86198 0
-3.06345 -3.32076 0
-1.35619 -6.62949 0
-0.497092 -7.13801 0
-1.67615 -5.50912 0
2.80182 -9.72172 0
-5.33269 1.85389 0
-5.98029 2.92046 0
-5.85818 4.7271 0
-5.46916 3.8419 0
-5.6261 6.65044 0
-5.45001 5.57063 0
-4.79225 8.62434 0
-4.69666 7.33697 0
-3.13314 -0.427238 0
-4.11916 0.926326 0
-3.37143 0.4001 0
-3.79338 2.16762 0
-3.69117 9.1596 0
2.87698 -8.35872 0
0.495186 -6.67849 0
2.17527 -7.66932 0
1.47226 -7.01308 0
-2.08532 -0.909528 0
-2.50432 -2.20446 0
-2.18513 -4.1112 0
-2.18769 -3.13057 0
-0.359197 -6.03547 0
-0.98711 -4.50374 0
4.08237 -9.39259 0
-4.61634 3.23037 0
-4.91342 4.50356 0
-4.45722 6.16929 0
-4.24585 5.19783 0
-3.4862 7.88723 0
-3.51412 6.59943 0
-2.45667 8.35474 0
-1.35268 -0.303532 0
-1.16904 -1.03348 0
-1.95594 0.426882 0
-2.92402 1.32761 0
-2.89125 3.16976 0
-2.63127 2.12714 0
-0.920491 0.427424 0
-2.34077 9.66756 0
4.11781 -8.04214 0
3.09162 -7.17893 0
1.14035 -5.95847 0
2.26228 -6.64349 0
-1.34572 -2.04886 0
-1.13571 -3.32669 0
0.201909 -4.93532 0
-0.254138 -3.79833 0
5.07125 -7.44512 0
5.25086 -8.79155 0
-3.45518 4.42284 0
-3.41357 5.66385 0
-2.66269 7.05668 0
-2.66869 6.20049 0
-1.30131 8.54016 0
-1.82037 7.45919 0
-2.02692 3.99996 0
-0.435195 -1.31016 0
-0.493352 -0.424994 0
-1.64198 1.37426 0
-1.85524 2.45369 0
-1.17749 3.51498 0
-0.569846 1.20358 0
-0.070814 0.281163 0
-0.186483 8.66421 0
-1.27633 9.98147 0
1.2697 -4.79819 0
4.00318 -6.77361 0
3.22541 -6.17728 0
2.30916 -5.6248 0
4.92254 -6.24117 0
-0.307841 -2.51662 0
0.779163 -3.64607 0
0.309648 -1.79067 0
1.67458 -3.86202 0
6.05493 -6.64595 0
6.40921 -7.9603 0
-2.12667 5.18312 0
-1.80845 6.34193 0
-0.746106 7.75734 0
-1.03334 6.842 0
0.195246 7.79824 0
-0.831193 4.29623 0
0.51966 -0.904313 0
-0.589409 2.29164 0
-0.0597941 3.27394 0
0.402568 1.30264 0
0.950978 0.343065 0
0.928594 8.83937 0
0.32838 10.1027 0
2.54755 -4.3161 0
4.12292 -5.73712 0
3.26267 -5.31548 0
5.7141 -5.49013 0
4.81548 -5.33643 0
0.75194 -2.4319 0
1.41566 -3.07797 0
0.999348 -1.68632 0
2.41819 -3.32045 0
3.23211 -3.64854 0
6.236 -4.75852 0
6.78326 -5.82809 0
7.33292 -7.2119 0
-0.668702 5.79097 0
-0.226651 6.7879 0
1.26161 7.59877 0
0.681541 6.98052 0
0.205927 4.54681 0
0.855442 3.59853 0
1.56379 -0.992996 0
0.702287 2.2624 0
1.27162 1.33893 0
2.01701 0.163516 0
1.76561 0.942331 0
2.24216 7.43441 0
1.85575 8.85292 0
1.5831 10.1116 0
4.0061 -4.31368 0
5.26692 -4.45152 0
6.02227 -3.97816 0
3.92035 -3.13787 0
2.05645 -2.18997 0
3.16297 -2.59205 0
6.99118 -3.99737 0
7.47364 -4.96947 0
8.07863 -6.09767 0
0.7533 5.65028 0
1.62251 6.47779 0
2.52754 6.41078 0
1.28992 4.41952 0
1.68926 3.12932 0
2.50601 -0.735064 0
2.97096 -0.0450218 0
2.03644 1.92625 0
2.81426 0.941965 0
3.22144 7.08413 0
2.86144 8.53086 0
2.83649 9.66197 0
5.05544 -3.24099 0
6.24869 -3.10598 0
4.28968 -2.2068 0
3.25163 -1.51662 0
6.7891 -2.24777 0
7.38536 -2.95561 0
8.0349 -3.93451 0
8.95044 -4.98952 0
2.28124 5.26276 0
3.20949 5.90453 0
2.49271 3.93381 0
2.63849 2.95652 0
3.66014 -0.691973 0
3.74457 0.401403 0
3.12557 2.14035 0
3.70032 1.3456 0
4.13681 5.81292 0
4.08143 6.64827 0
4.1058 7.90931 0
3.9049 9.27898 0
5.64238 -1.91276 0
4.5638 -1.2463 0
6.9645 -1.26338 0
7.82872 -1.98726 0
8.48215 -2.86571 0
9.49497 -3.86145 0
3.68319 4.64012 0
3.48608 3.28838 0
4.8438 0.0207677 0
4.60764 1.14078 0
4.21126 2.32873 0
4.71571 5.07599 0
5.01901 6.12389 0
4.91111 7.47439 0
5.30647 8.64101 0
6.0008 -0.484575 0
7.07235 -0.463494 0
7.97392 -1.08849 0
9.02494 -1.87692 0
10.0476 -2.69033 0
4.73774 3.78419 0
5.98955 1.12743 0
5.48372 2.26101 0
5.61817 4.45675 0
5.67892 5.4484 0
6.07749 6.76335 0
6.46895 7.91182 0
7.11809 0.377546 0
8.16544 -0.0943148 0
9.10753 -0.741088 0
10.318 -1.36943 0
7.21048 1.2204 0
5.79907 3.58614 0
6.86273 2.08763 0
6.47273 2.95923 0
6.4562 4.62552 0
6.75568 5.70842 0
7.3348 7.04284 0
7.98798 0.861367 0
9.14305 0.425604 0
10.3836 -0.0267098 0
7.81196 1.87538 0
6.77333 3.67617 0
7.34601 2.82683 0
7.48035 4.89101 0
8.18398 6.05661 0
8.97891 1.45965 0
10.2612 1.30146 0
8.51628 2.73708 0
8.03257 3.8457 0
8.84406 4.92006 0
9.94279 2.69433 0
9.48489 3.71342 0
CELLS 542 2168
3 2 0 4
3 0 1 7
3 4 0 7
3 1 5 8
3 7 1 8
3 3 2 13
3 13 2 4
3 11 3 14
3 14 3 13
3 13 4 15
3 4 7 16
3 15 4 16
3 5 6 17
3 8 5 17
3 6 9 18
3 17 6 18
3 7 8 19
3 16 7 19
3 8 17 20
3 19 8 20
3 9 10 23
3 18 9 23
3 10 21 24
3 23 10 24
3 12 11 25
3 25 11 14
3 26 12 27
3 27 12 25
3 14 13 29
3 29 13 15
3 25 14 30
3 30 14 29
3 29 15 31
3 15 16 33
3 31 15 33
3 16 19 34
3 33 16 34
3 17 18 35
3 20 17 35
3 18 23 36
3 35 18 36
3 19 20 37
3 34 19 37
3 20 35 38
3 37 20 38
3 21 22 39
3 24 21 39
3 22 32 40
3 39 22 40
3 23 24 41
3 36 23 41
3 24 39 42
3 41 24 42
3 27 25 44
3 44 25 30
3 28 26 45
3 45 26 27
3 45 27 46
3 46 27 44
3 47 28 48
3 48 28 45
3 30 29 50
3 50 29 31
3 44 30 51
3 51 30 50
3 50 31 52
3 31 33 52
3 32 43 53
3 40 32 53
3 53 43 54
3 33 34 55
3 34 37 55
3 33 55 52
3 35 36 56
3 38 35 56
3 36 41 57
3 56 36 57
3 37 38 58
3 38 56 58
3 37 58 55
3 39 40 59
3 42 39 59
3 40 53 60
3 59 40 60
3 41 42 61
3 57 41 61
3 42 59 62
3 61 42 62
3 43 63 54
3 46 44 64
3 64 44 51
3 48 45 65
3 65 45 46
3 65 46 66
3 66 46 64
3 49 47 67
3 67 47 48
3 67 48 68
3 68 48 65
3 69 49 70
3 70 49 67
3 52 55 72
3 64 51 73
3 51 50 73
3 50 52 73
3 73 52 74
3 74 52 72
3 53 54 75
3 60 53 75
3 54 63 76
3 54 76 77
3 75 54 77
3 55 58 78
3 72 55 78
3 72 78 79
3 56 57 80
3 57 61 80
3 56 80 58
3 58 80 81
3 78 58 81
3 59 60 82
3 62 59 82
3 60 75 83
3 82 60 83
3 61 62 84
3 62 82 84
3 61 84 80
3 63 85 76
3 66 64 86
3 64 73 86
3 68 65 87
3 87 65 66
3 87 66 86
3 70 67 88
3 88 67 68
3 88 68 89
3 89 68 87
3 71 69 90
3 90 69 70
3 90 70 91
3 91 70 88
3 92 71 93
3 93 71 90
3 74 72 94
3 94 72 79
3 86 73 95
3 95 73 74
3 95 74 96
3 96 74 94
3 97 86 95
3 76 85 99
3 75 77 100
3 83 75 100
3 76 99 101
3 77 76 101
3 77 101 102
3 100 77 102
3 94 79 103
3 78 81 104
3 79 78 104
3 79 104 103
3 80 84 105
3 81 80 105
3 81 105 106
3 104 81 106
3 82 83 107
3 83 100 107
3 82 107 84
3 84 107 108
3 105 84 108
3 85 109 99
3 89 87 110
3 87 86 110
3 110 86 97
3 91 88 111
3 111 88 89
3 111 89 110
3 93 90 112
3 112 90 91
3 112 91 113
3 113 91 111
3 98 92 114
3 114 92 93
3 114 93 115
3 115 93 112
3 116 98 114
3 117 103 118
3 96 94 119
3 94 103 119
3 119 103 117
3 97 95 120
3 120 95 96
3 120 96 119
3 121 110 97
3 121 97 122
3 122 97 120
3 123 119 117
3 124 98 116
3 99 109 125
3 99 125 126
3 101 99 126
3 100 102 127
3 100 127 107
3 101 126 128
3 102 101 128
3 102 128 127
3 104 106 129
3 104 129 103
3 103 129 118
3 105 108 130
3 106 105 130
3 106 130 129
3 107 127 131
3 108 107 131
3 108 131 132
3 108 132 130
3 109 134 125
3 125 134 133
3 113 111 135
3 111 110 135
3 135 110 121
3 115 112 136
3 136 112 113
3 136 113 135
3 116 114 137
3 137 114 115
3 137 115 138
3 138 115 136
3 139 124 116
3 139 116 140
3 140 116 137
3 141 135 121
3 118 129 142
3 118 142 143
3 117 118 143
3 123 117 143
3 122 120 144
3 120 119 144
3 144 119 123
3 141 121 145
3 145 121 122
3 145 122 144
3 146 141 145
3 147 144 123
3 147 123 148
3 143 148 123
3 150 124 139
3 149 150 139
3 131 127 151
3 125 133 152
3 126 125 152
3 126 152 153
3 128 126 153
3 128 153 154
3 128 154 127
3 127 154 151
3 152 133 155
3 130 132 156
3 130 156 129
3 129 156 142
3 131 151 157
3 132 131 157
3 132 157 156
3 156 158 142
3 157 151 159
3 133 160 155
3 134 161 133
3 133 161 160
3 138 136 162
3 136 135 162
3 162 135 141
3 140 137 163
3 163 137 138
3 163 138 162
3 149 139 164
3 164 139 140
3 164 140 165
3 165 140 163
3 166 149 164
3 167 162 141
3 167 141 146
3 142 158 168
3 143 142 168
3 143 168 148
3 146 145 169
3 145 144 169
3 169 144 147
3 170 167 146
3 170 146 169
3 171 169 147
3 171 147 148
3 171 148 172
3 168 172 148
3 173 149 166
3 174 150 149
3 173 174 149
3 154 175 151
3 151 175 159
3 152 155 176
3 153 152 176
3 153 176 177
3 153 177 154
3 154 177 175
3 155 160 178
3 155 178 179
3 176 155 179
3 156 157 180
3 156 180 158
3 157 159 181
3 157 181 180
3 158 180 182
3 158 182 168
3 159 175 183
3 159 183 181
3 175 184 183
3 160 186 178
3 178 186 185
3 161 187 160
3 160 187 186
3 165 163 188
3 163 162 188
3 188 162 167
3 166 164 189
3 189 164 165
3 189 165 188
3 190 173 166
3 190 166 191
3 191 166 189
3 192 188 167
3 192 167 170
3 193 192 170
3 182 194 168
3 194 172 168
3 193 170 195
3 170 169 195
3 195 169 171
3 196 195 171
3 196 171 172
3 194 197 172
3 197 198 172
3 198 196 172
3 200 173 190
3 199 200 190
3 201 174 173
3 200 201 173
3 176 179 202
3 177 176 202
3 177 202 175
3 175 202 184
3 178 185 203
3 178 203 179
3 179 203 202
3 203 185 204
3 202 205 184
3 183 206 181
3 180 181 206
3 180 206 182
3 182 206 194
3 183 184 207
3 205 207 184
3 183 207 206
3 185 208 204
3 186 209 185
3 185 209 208
3 187 210 186
3 186 210 209
3 191 189 211
3 189 188 211
3 211 188 192
3 199 190 212
3 212 190 191
3 212 191 211
3 213 199 212
3 214 211 192
3 214 192 193
3 215 214 193
3 215 193 195
3 206 216 194
3 216 197 194
3 216 217 197
3 215 195 218
3 218 195 196
3 198 218 196
3 217 219 197
3 219 218 198
3 197 219 198
3 220 199 213
3 221 200 199
3 220 221 199
3 222 201 200
3 221 222 200
3 203 204 223
3 203 223 202
3 202 223 205
3 204 208 224
3 204 224 223
3 205 223 225
3 205 225 207
3 207 225 226
3 207 226 206
3 226 216 206
3 208 228 224
3 224 228 227
3 209 229 208
3 229 228 208
3 210 230 209
3 209 230 229
3 213 212 231
3 212 211 231
3 231 211 214
3 232 220 213
3 232 213 231
3 233 231 214
3 233 214 215
3 234 233 215
3 234 215 218
3 226 235 216
3 235 217 216
3 235 236 217
3 217 236 219
3 237 234 218
3 237 218 219
3 236 238 219
3 238 237 219
3 240 220 232
3 239 240 232
3 241 221 220
3 240 241 220
3 242 222 221
3 241 242 221
3 224 227 243
3 224 243 223
3 223 243 225
3 225 243 244
3 225 244 226
3 226 244 235
3 227 245 243
3 228 246 227
3 227 246 245
3 229 247 228
3 228 247 246
3 230 248 229
3 229 248 247
3 239 232 249
3 232 231 249
3 249 231 233
3 250 249 233
3 250 233 234
3 237 250 234
3 244 251 235
3 235 251 236
3 251 252 236
3 236 252 238
3 252 253 238
3 253 250 237
3 253 237 238
3 254 239 249
3 255 240 239
3 254 255 239
3 256 241 240
3 255 256 240
3 257 242 241
3 256 257 241
3 245 258 243
3 243 258 244
3 244 258 251
3 245 259 258
3 246 260 245
3 245 260 259
3 247 261 246
3 246 261 260
3 248 262 247
3 247 262 261
3 254 249 263
3 263 249 250
3 253 263 250
3 258 264 251
3 251 264 252
3 264 265 252
3 265 263 253
3 252 265 253
3 266 254 263
3 267 255 254
3 266 267 254
3 268 256 255
3 267 268 255
3 269 257 256
3 268 269 256
3 259 270 258
3 270 264 258
3 260 271 259
3 259 271 270
3 261 272 260
3 260 272 271
3 262 273 261
3 273 272 261
3 270 274 264
3 275 266 263
3 275 263 265
3 274 276 264
3 276 265 264
3 276 277 265
3 277 275 265
3 278 267 266
3 275 278 266
3 279 268 267
3 278 279 267
3 280 269 268
3 279 280 268
3 271 281 270
3 270 281 274
3 272 282 271
3 271 282 281
3 273 283 272
3 272 283 282
3 281 284 274
3 274 284 276
3 285 278 275
3 277 285 275
3 284 286 276
3 286 285 277
3 276 286 277
3 287 279 278
3 285 287 278
3 288 280 279
3 287 288 279
3 282 289 281
3 281 289 284
3 283 290 282
3 282 290 289
3 289 291 284
3 284 291 286
3 291 292 286
3 292 287 285
3 286 292 285
3 293 288 287
3 292 293 287
3 290 294 289
3 289 294 291
3 294 295 291
3 295 293 292
3 291 295 292
CELL_TYPES 542
5
5
5
5
5
5
5
5
5
5
5
5
5
5
5
5
5
5
5
5
5
5
5
5
5
5
5
5
5
5
5
5
5
5
5
5
5
5
5
5
5
5
5
5
5
5
5
5
5
5
5
5
5
5
5
5
5
5
5
5
5
5
5
5
5
5
5
5
5
5
5
5
5
5
5
5
5
5
5
5
5
5
5
5
5
5
5
5
5
5
5
5
5
5
5
5
5
5
5
5
5
5
5
5
5
5
5
5
5
5
5
5
5
5
5
5
5
5
5
5
5
5
5
5
5
5
5
5
5
5
5
5
5
5
5
5
5
5
5
5
5
5
5
5
5
5
5
5
5
5
5
5
5
5
5
5
5
5
5
5
5
5
5
5
5
5
5
5
5
5
5
5
5
5
5
5
5
5
5
5
5
5
5
5
5
5
5
5
5
5
5
5
5
5
5
5
5
5
5
5
5
5
5
5
5
5
5
5
5
5
5
5
5
5
5
5
5
5
5
5
5
5
5
5
5
5
5
5
5
5
5
5
5
5
5
5
5
5
5
5
5
5
5
5
5
5
5
5
5
5
5
5
5
5
5
5
5
5
5
5
5
5
5
5
5
5
5
5
5
5
5
5
5
5
5
5
5
5
5
5
5
5
5
5
5
5
5
5
5
5
5
5
5
5
5
5
5
5
5
5
5
5
5
5
5
5
5
5
5
5
5
5
5
5
5
5
5
5
5
5
5
5
5
5
5
5
5
5
5
5
5
5
5
5
5
5
5
5
5
5
5
5
5
5
5
5
5
5
5
5
5
5
5
5
5
5
5
5
5
5
5
5
5
5
5
5
5
5
5
5
5
5
5
5
5
5
5
5
5
5
5
5
5
5
5
5
5
5
5
5
5
5
5
5
5
5
5
5
5
5
5
5
5
5
5
5
5
5
5
5
5
5
5
5
5
5
5
5
5
5
5
5
5
5
5
5
5
5
5
5
5
5
5
5
5
5
5
5
5
5
5
5
5
5
5
5
5
5
5
5
5
5
5
5
5
5
5
5
5
5
5
5
5
5
5
5
5
5
5
5
5
5
5
5
5
5
5
5
5
5
5
5
5
5
5
5
5
5
5
5
5
5
5
5
5
5
5
5
5
5
5
5
5
5
5
5
5
5
5
5
5
5
5
5
5
5
5
5
5
5
5
5
5
5
5
5
5
5
5
5
5
5
5
5
5
5
5
5
5
5
5
5
POINT_DATA 296
SCALARS concentrations float 4
LOOKUP_TABLE default
0 1.00272 0.0275208 46.5381
0 0.999591 0 40.2216
0 1.00239 0 26.1131
0 0.998789 0.005 34.392
0 1.00558 0 21.4963
0 1.00401 0 51.2213
0 1.00159 0.00125239 60.0648
0 1.00315 0.00994977 52.3848
0 1.00379 0.0539931 106.23
0 1.00231 0 68.7342
0 0.997407 0.005 73.1065
0 0.998936 0 58.6911
0 0.997386 0.0249869 58.1803
0 0.999797 0.00487439 37.567
0 0.998239 0.0319412 43.7081
0 1.00793 0.00589243 40.2407
0 1.00545 0.037403 19.8355
0 1.0029 0.0222372 80.3703
0 1.00216 0.045419 81.5355
0 1.00337 0.0383942 36.3738
0 1.00313 0.0280464 43.021
0 0.988477 0.00978271 118.967
0 0.979248 0.005 75.7478
0 0.999317 0.0524065 56.1641
0 0.994446 0 59.5395
0 0.998305 0.0330824 114.889
0 0.997972 0.0261734 74.4138
0 0.999243 0.0280668 102.061
0 0.997 0.0279185 81.615
0 1.00026 0.005 58.6585
0 0.999685 0.0312914 89.1383
0 1.0008 0 46.8822
0 0.997842 0 73.6218
0 1.0049 0.0351796 58.1077
0 1.00271 0.0319816 33.0451
0 1.0007 0.0368967 74.9103
0 1.00155 0.0382044 67.9008
0 1.00313 0.0472147 25.7538
0 1.00177 0.0369334 46.8562
0 0.988038 0.0332691 102.178
0 0.990374 0.0329853 83.9025
0 0.996806 0.0222323 33.4056
0 0.994687 0.0273301 72.3287
0 1.00229 0.005 63.8716
0 1.00038 0.0419516 127.966
0 0.998301 0.0381874 95.7464
0 1.00072 0.0370144 131.243
0 1.00195 0.0174336 24.4022
0 0.998846 0.0377867 68.9681
0 1.00554 0.005 71.0885
0 0.99671 0.0335877 85.7568
0 1.00124 0.0397168 117.085
0 1.00161 0.00995724 14.8594
0 0.999582 0.0235477 132.425
0 0.996612 0.00572648 42.5719
0 1.00321 0.00996133 30.2712
0 0.999771 0.0373509 60.3274
0 1.0001 0.037903 73.9075
0 1.00194 0.0487357 19.7114
0 0.992962 0.0335151 72.403
0 0.995161 0.0214655 85.2
0 0.998958 0.0422898 46.3069
0 0.995 0.0240132 57.0323
0 1.00156 0.0148734 70.8321
0 1.001 0.0292088 98.5993
0 1.00012 0.0252935 105.315
0 1.00003 0.0253244 132.377
0 1.0049 0.0287369 64.3938
0 1.00112 0.0291147 91.9859
0 1.00338 0.005 64.7697
0 1.00796 0 87.7475
0 1.00698 0.0158855 48.1639
0 1.00241 0.0374248 137.222
0 1.00522 0.0170611 36.1933
0 1.0048 0.0243354 176.842
0 0.994985 0.005 38.4648
0 1.00208 0.00829376 72.7073
0 0.995689 0.005 33.6702
0 1.00149 0.0503913 25.7644
0 1.00173 0.00597259 41.7755
0 0.999538 0.00995581 44.2329
0 0.99997 0.00975454 14.1682
0 0.995456 0.0158231 74.9363
0 0.994265 0.0193815 86.5128
0 0.998812 0.0289195 27.4059
0 1.00566 0.0235267 39.9869
0 1.00533 0.005 121.715
0 1.00204 0.0332327 132.891
0 1.0078 0.0424142 95.3631
0 1.00572 0.0293913 76.5389
0 1.00793 0 81.4624
0 1.0134 0.005 100.336
0 1.01248 0 66.9003
0 1.00888 0.0379846 29.7963
0 1.00283 0.005 45.0522
0 1.0081 0 88.5208
0 1.00137 0.005 69.3957
0 1.00804 0.005 121.005
0 1.01016 0.026812 69.1649
0 1.00346 0.0202923 25.4465
0 0.993221 0 32.2383
0 0.998492 0.0243704 50.3861
0 0.993985 0.0154099 82.9019
0 1.00058 0.005 41.9476
0 1.00014 0.0189746 44.9639
0 0.998574 0.0099463 21.1953
0 0.998351 0.0445814 72.1767
0 0.995083 0.023954 47.4623
0 0.998084 0.0525898 24.1758
0 1.0045 0.005 29.2088
0 1.00726 0.0291481 243.286
0 1.01108 0.0349712 147.471
0 1.01077 0.0145131 30.2996
0 1.01371 0.0276353 50.4606
0 1.00912 0.005 85.3527
0 1.00648 0.00486057 101.095
0 1.00789 0.0331882 74.8574
0 0.996759 0 62.8286
0 0.994029 0.0344246 173.764
0 1.00153 0 66.2284
0 1.00587 0.005 92.4416
0 1.00535 0 112.335
0 1.00659 0 112.865
0 0.998163 0 81.4149
0 1.00836 0.0215818 45.334
0 1.0029 0.0328878 18.3143
0 0.999857 0.0430273 58.0841
0 0.991704 0.0191374 55.1373
0 0.995037 0.0219124 47.0243
0 0.996084 0.0282625 155.326
0 0.996416 0.0461365 94.5706
0 0.994067 0.0339722 59.1087
0 0.996795 0.0549862 50.7509
0 1.0014 0.0439463 32.2688
0 1.00263 0.0222519 65.1104
0 1.00661 0 110.144
0 1.00946 0.005 104.556
0 1.00553 0.0121199 90.9554
0 1.00534 0.005 97.1801
0 1.00631 0.0229207 61.1403
0 1.00515 0.005 80.1967
0 1.00444 0.005 103.885
0 0.99414 0.0565408 96.5084
0 0.993363 0.0365244 198.213
0 1.00471 0 86.7403
0 1.00889 0.005 109.576
0 1.01087 0.005 99.5234
0 0.999714 0 96.4889
0 0.993837 0 88.1857
0 1.00665 0 56.1669
0 1.00527 0.0243097 23.5482
0 0.995082 0.0596814 95.6451
0 1.0012 0.0450224 52.2325
0 0.996174 0.0507564 59.7846
0 0.994288 0.0413446 102.031
0 1.00212 0.0376037 43.716
0 0.995263 0.0456543 121.425
0 0.99555 0.0469744 91.0159
0 0.995094 0.0311994 178.978
0 0.997582 0.0478053 107.824
0 0.998794 0.0504282 42.717
0 0.997634 0.00996315 39.7284
0 1.00308 0.005 98.2463
0 1.00151 0.005 89.184
0 1.00803 0 67.9885
0 1.00252 0.005 79.3919
0 1.01007 0 59.9042
0 1.00563 0.005 92.3332
0 0.993029 0.0299292 138.868
0 1.00615 0.005 98.528
0 1.00425 0.005 90.1616
0 0.99719 0.005 85.6047
0 0.991835 0 77.2555
0 1.00389 0.0282874 19.912
0 1.00435 0.0147518 19.2262
0 0.997548 0.033249 101.28
0 0.99916 0.0390605 67.4015
0 0.995129 0.0291135 72.257
0 1.00193 0.037273 36.2077
0 1.00058 0.0414664 94.4284
0 0.993668 0.0282783 133.64
0 0.992432 0.0401973 151.833
0 0.993136 0.0292694 136.024
0 0.993323 0.0485252 97.9074
0 0.998768 0.0290831 96.233
0 1.00361 0.0339874 29.7394
0 0.996483 0.011375 38.2886
0 0.994516 0.005 12.167
0 1.0028 0.005 82.743
0 1.00281 0.005 72.7269
0 1.00108 0.040039 76.7895
0 1.00509 0 63.0284
0 1.00345 0.005 82.3914
0 1.00435 0.0258072 136.49
0 0.992828 0.0316093 127.251
0 1.00354 0.005 83.7902
0 0.994288 0 78.4272
0 0.992111 0.0062943 93.4809
0 0.993327 0.00863939 120.912
0 0.998356 0.005 48.3371
0 0.995762 0 44.2532
0 0.995614 0.005 44.5909
0 0.998539 0.0413131 119.614
0 1.00184 0.0302936 36.2275
0 1.00452 0.028849 43.5801
0 0.99897 0.0382769 105.812
0 0.990768 0.0286758 141.439
0 0.993882 0.0099471 60.6066
0 1.00558 0.0329398 36.8747
0 0.997544 0.048837 52.0927
0 0.991954 0 25.0379
0 1.0033 0.005 71.8581
0 1.00431 0.0147134 122.165
0 1.00449 0.018859 75.8675
0 1.00579 0.005 71.4975
0 1.00715 0 71.8907
0 0.991445 0.0268566 132.432
0 0.991399 0.055809 92.9409
0 0.999012 0 75.2834
0 0.993167 0 72.4431
0 0.999203 0.005 46.8309
0 0.998617 0.0288712 25.8527
0 0.997421 0 43.9874
0 1.00057 0.005 83.4781
0 1.00337 0.0282955 73.3366
0 0.99662 0.005 89.9769
0 0.990163 0.00996217 59.2804
0 1.00287 0.0288092 78.3352
0 1.00535 0.0285042 60.7635
0 1.00035 0.0229043 48.1709
0 0.993637 0 43.2664
0 1.00484 0.0204052 128.036
0 1.00414 0.005 61.2911
0 1.00474 0.005 62.8406
0 1.00068 0.00908475 117.855
0 0.994939 0.0454549 147.099
0 0.9932 0.0551423 89.8278
0 0.998534 0.00943592 107.129
0 0.991239 0.00635447 93.5508
0 1.00501 0.0339743 20.2346
0 1.00258 0.005 53.3893
0 0.997724 0.005 42.2604
0 1.00025 0.005 44.0044
0 0.998637 0.0253855 95.9461
0 0.993421 0.0355776 124.81
0 0.999935 0.0343001 65.994
0 1.00608 0.0289037 39.8157
0 1.00128 0.0284626 47.0971
0 0.997699 0 52.3409
0 1.00314 0.0361694 71.3323
0 1.00037 0.051333 100.638
0 0.998105 0.0297174 199.194
0 0.998319 0 85.9261
0 0.997004 0.0490675 74.8684
0 1.00386 0.0206974 78.1321
0 1.00511 0.005 61.3239
0 0.999459 0.005 49.5088
0 0.998539 0 47.9377
0 0.994666 0.0521255 133.516
0 0.999414 0.0366055 77.7713
0 1.00526 0.033094 46.0416
0 1.00151 0.0469419 104.366
0 0.995885 0.005 59.7568
0 1.00018 0.0383948 78.8266
0 0.998429 0.0327797 149.287
0 0.998826 0.0361614 145.17
0 1.00254 0.0258246 37.4478
0 1.00621 0.0119784 42.0996
0 1.00425 0.005 60.5465
0 1.0002 0.005 58.292
0 0.997134 0.0344845 34.1754
0 1.00382 0.032797 48.1809
0 1.00392 0.0390591 69.6944
0 0.997907 0.00926407 84.7924
0 0.997906 0.0444673 107.78
0 1.00014 0.0334859 66.1088
0 0.998729 0.0378978 87.3326
0 0.999388 0.0288608 95.471
0 1.00373 0.0346751 40.5767
0 1.00565 0.0211325 41.4852
0 1.00506 0.005 64.4792
0 1.00206 0.0368127 41.5423
0 1.00501 0.0439028 64.0567
0 1.00212 0.0416857 80.7159
0 1.00012 0.0451599 74.2626
0 1.00156 0.0357568 40.7772
0 1.0006 0.0485423 102.437
0 1.00351 0.0200629 26.7399
0 1.00405 0.005 65.9689
0 1.00368 0.0386127 45.3766
0 1.00432 0.0332971 92.9961
0 1.00182 0.0383859 24.2979
0 1.00382 0.0377749 11.1965
0 1.00526 0.005 68.2752
0 1.00376 0.0353299 86.4894
0 1.00543 0.0396779 44.4587
VECTORS fa_u float
0.00170772 0.000734449 -0
0.00556793 0.00313051 -0
0.0168798 0.00479554 -0
0.00662783 0.000588549 -0
1e-08 0 0
0.00771893 0.00585191 -0
0.00064826 0.000606077 -0
1e-08 0 0
1e-08 0 0
0.0141151 0.0179504 -0
0.00128509 0.00234086 -0
-0.000156652 -5.55173e-06 0
0.0716145 -0.0124116 -0
1e-08 0 0
1e-08 0 0
1e-08 0 0
1e-08 0 0
1e-08 0 0
1e-08 0 0
1e-08 0 0
1e-08 0 0
0.00167384 0.00396029 -0
0.00250414 0.00865524 -0
1e-08 0 0
1e-08 0 0
1e-08 0 0
-0.0264096 0.00743246 -0
1e-08 0 0
0.0224768 -0.00628883 0
1e-08 0 0
1e-08 0 0
1e-08 0 0
0.00136419 0.017183 -0
1e-08 0 0
1e-08 0 0
1e-08 0 0
1e-08 0 0
1e-08 0 0
1e-08 0 0
1e-08 0 0
1e-08 0 0
1e-08 0 0
1e-08 0 0
2.01815e-08 -1.43796e-06 -0
1e-08 0 0
1e-08 0 0
1e-08 0 0
0.0410001 -0.024902 0
1e-08 0 0
1.24165e-05 -1.15345e-05 0
1e-08 0 0
1e-08 0 0
1e-08 0 0
1e-08 0 0
1e-08 0 0
1e-08 0 0
1e-08 0 0
1e-08 0 0
1e-08 0 0
1e-08 0 0
1e-08 0 0
1e-08 0 0
1e-08 0 0
-0.00187092 0.0157887 0
1e-08 0 0
1e-08 0 0
1e-08 0 0
1e-08 0 0
1e-08 0 0
0.000851966 -0.000842448 0
1e-08 0 0
0.00501915 -0.00612641 0
1e-08 0 0
1e-08 0 0
1e-08 0 0
1e-08 0 0
1e-08 0 0
1e-08 0 0
1e-08 0 0
1e-08 0 0
1e-08 0 0
1e-08 0 0
1e-08 0 0
1e-08 0 0
1e-08 0 0
-9.69588e-05 0.000405352 0
1e-08 0 0
1e-08 0 0
1e-08 0 0
1e-08 0 0
1e-08 0 0
1e-08 0 0
0.0050469 -0.00843886 0
1e-08 0 0
1e-08 0 0
1e-08 0 0
1e-08 0 0
1e-08 0 0
0.00125954 -0.00295983 0
1e-08 0 0
1e-08 0 0
1e-08 0 0
1e-08 0 0
1e-08 0 0
1e-08 0 0
1e-08 0 0
1e-08 0 0
1e-08 0 0
1e-08 0 0
-0.00665783 0.0175294 0
1e-08 0 0
1e-08 0 0
1e-08 0 0
1e-08 0 0
1e-08 0 0
1e-08 0 0
1e-08 0 0
1e-08 0 0
1e-08 0 0
1e-08 0 0
1e-08 0 0
1e-08 0 0
1e-08 0 0
1e-08 0 0
0.000671921 -0.00197426 0
1e-08 0 0
1e-08 0 0
1e-08 0 0
1e-08 0 0
1e-08 0 0
1e-08 0 0
1e-08 0 0
1e-08 0 0
1e-08 0 0
-0.00413705 0.0067209 0
1e-08 0 0
1e-08 0 0
1e-08 0 0
1e-08 0 0
1e-08 0 0
1e-08 0 0
1e-08 0 0
1e-08 0 0
1e-08 0 0
1e-08 0 0
1e-08 0 0
1e-08 0 0
1e-08 0 0
1e-08 0 0
1e-08 0 0
0.00261949 -0.0160661 0
1e-08 0 0
1e-08 0 0
1e-08 0 0
1e-08 0 0
1e-08 0 0
1e-08 0 0
1e-08 0 0
1e-08 0 0
1e-08 0 0
1e-08 0 0
-0.00078998 0.00104124 0
1e-08 0 0
1e-08 0 0
1e-08 0 0
1e-08 0 0
1e-08 0 0
1e-08 0 0
1e-08 0 0
1e-08 0 0
1e-08 0 0
1e-08 0 0
1e-08 0 0
1e-08 0 0
7.41994e-05 -0.00163102 0
1e-08 0 0
1e-08 0 0
1e-08 0 0
1e-08 0 0
1e-08 0 0
1e-08 0 0
1e-08 0 0
1e-08 0 0
1e-08 0 0
1e-08 0 0
1e-08 0 0
1e-08 0 0
-0.0260149 0.0233163 0
1e-08 0 0
1e-08 0 0
1e-08 0 0
1e-08 0 0
1e-08 0 0
1e-08 0 0
1e-08 0 0
1e-08 0 0
1e-08 0 0
1e-08 0 0
1e-08 0 0
1e-08 0 0
1e-08 0 0
-0.00805426 -0.04583 0
1e-08 0 0
1e-08 0 0
1e-08 0 0
1e-08 0 0
1e-08 0 0
1e-08 0 0
1e-08 0 0
1e-08 0 0
0.0017318 -0.00126046 -0
1e-08 0 0
1e-08 0 0
1e-08 0 0
1e-08 0 0
1e-08 0 0
1e-08 0 0
1e-08 0 0
1e-08 0 0
1e-08 0 0
1e-08 0 0
1e-08 0 0
5.93782e-09 1.65589e-08 -0
1e-08 0 0
1e-08 0 0
1e-08 0 0
1e-08 0 0
1e-08 0 0
1e-08 0 0
1e-08 0 0
-0.014778 0.00935992 0
1e-08 0 0
1e-08 0 0
1e-08 0 0
1e-08 0 0
1e-08 0 0
1e-08 0 0
1e-08 0 0
1e-08 0 0
1e-08 0 0
1e-08 0 0
1e-08 0 0
-0.000981596 -0.00237476 0
1e-08 0 0
1e-08 0 0
1e-08 0 0
1e-08 0 0
1e-08 0 0
-2.75078e-05 1.31268e-05 0
1e-08 0 0
1e-08 0 0
1e-08 0 0
1e-08 0 0
1e-08 0 0
1e-08 0 0
1e-08 0 0
1e-08 0 0
-0.00285066 -0.00534626 0
1e-08 0 0
1e-08 0 0
1e-08 0 0
1e-08 0 0
-0.020279 0.00669736 0
1e-08 0 0
1e-08 0 0
1e-08 0 0
1e-08 0 0
1e-08 0 0
1e-08 0 0
-0.012136 -0.0154025 0
1e-08 0 0
1e-08 0 0
1e-08 0 0
-0.00858922 0.00108351 0
1e-08 0 0
1e-08 0 0
1e-08 0 0
1e-08 0 0
1e-08 0 0
1e-08 0 0
-0.00153466 -0.0014187 0
1e-08 0 0
1e-08 0 0
-0.00736919 -0.000156781 0
1e-08 0 0
1e-08 0 0
1e-08 0 0
1e-08 0 0
-0.0105545 -0.00750406 0
1e-08 0 0
-0.00627575 -0.00101674 0
1e-08 0 0
1e-08 0 0
-0.000469659 -0.000260749 0
-0.0144777 -0.00465958 0
-0.00156743 -0.000773762 0
