# vtk DataFile Version 2.0
CellBP Time: 0.84
ASCII
DATASET UNSTRUCTURED_GRID
POINTS 296 double
-8.86772 -4.09999 0
-8.5174 -5.18019 0
-9.50104 -2.78102 0
-9.6125 -1.51817 0
-8.13391 -3.05543 0
-7.7098 -6.22907 0
-6.90776 -7.17181 0
-7.66841 -4.08539 0
-7.16685 -5.09912 0
-5.91904 -8.12322 0
-4.71846 -8.77782 0
-9.67612 -0.211464 0
-9.6848 1.13395 0
-8.21849 -1.86949 0
-8.4965 -0.894537 0
-7.27154 -2.17437 0
-6.99257 -3.1544 0
-6.37788 -5.97282 0
-5.6689 -6.891 0
-6.5397 -4.13829 0
-5.91937 -4.82842 0
-3.58869 -9.41864 0
-2.29357 -9.83535 0
-4.68247 -7.41771 0
-3.7387 -8.04631 0
-8.60278 0.380877 0
-9.29822 2.38761 0
-8.30237 1.55254 0
-9.03704 3.70482 0
-7.42292 -1.15854 0
-7.6467 -0.186333 0
-6.59132 -1.58196 0
-1.05356 -10.1427 0
-6.05585 -2.35251 0
-5.8216 -3.29431 0
-5.37438 -5.7467 0
-4.64777 -6.35123 0
-5.22461 -3.9631 0
-4.8637 -4.78028 0
-2.61983 -8.4424 0
-1.5828 -8.8205 0
-3.71992 -6.81755 0
-2.82939 -7.17969 0
0.253044 -10.1204 0
-7.54326 0.855472 0
-7.90097 2.51188 0
-7.1063 1.72217 0
-8.47426 4.95914 0
-7.63193 3.79718 0
-7.60931 5.86096 0
-6.62391 -0.57333 0
-6.81116 0.355038 0
-5.39907 -1.26072 0
-0.410021 -9.06739 0
0.657468 -8.93199 0
-4.94586 -2.60844 0
-4.16089 -5.16071 0
-3.66029 -5.84241 0
-4.10836 -3.84974 0
-1.90199 -7.60669 0
-1.03414 -7.89437 0
-2.70341 -6.12053 0
-2.0788 -6.58229 0
1.50121 -10.0337 0
-6.48721 1.17271 0
-6.98143 2.89806 0
-6.3238 2.09866 0
-6.93525 4.54388 0
-6.39579 3.64323 0
-6.71956 6.73688 0
-6.27643 5.56477 0
-5.89358 7.72595 0
-4.03628 -1.27011 0
-5.52572 0.193073 0
-4.34845 -0.296117 0
0.160836 -7.90665 0
1.86221 -8.87204 0
1.20091 -8.02658 0
-3.68416 -2.48749 0
-3.122 -1.4396 0
-3.09345 -4.91337 0
-2.99444 -3.3846 0
-1.24826 -6.73528 0
-0.417449 -7.18988 0
-1.65241 -5.54205 0
2.915 -9.88601 0
-5.20982 1.73412 0
-5.874 2.77352 0
-5.77506 4.60131 0
-5.45885 3.76011 0
-5.40532 6.47204 0
-5.20522 5.37085 0
-4.64185 8.50664 0
-4.55835 7.26103 0
-3.12202 -0.430711 0
-4.10167 0.915177 0
-3.35662 0.391847 0
-3.77785 2.16506 0
-3.50422 9.08488 0
2.96505 -8.50273 0
0.651195 -6.91509 0
2.26524 -7.73968 0
1.56765 -7.09409 0
-2.07925 -0.916789 0
-2.48734 -2.2225 0
-2.10665 -4.17705 0
-2.16739 -3.15116 0
-0.288353 -6.08606 0
-0.984915 -4.53149 0
4.13996 -9.41685 0
-4.49962 3.17311 0
-4.79829 4.34285 0
-4.25505 6.02713 0
-4.19096 5.08907 0
-3.42714 7.76075 0
-3.48682 6.53154 0
-2.38739 8.24968 0
-1.35116 -0.308858 0
-1.16738 -1.03906 0
-1.95807 0.423685 0
-2.91742 1.32038 0
-2.83669 3.14605 0
-2.59881 2.10013 0
-0.919032 0.413999 0
-2.26396 9.53894 0
4.14592 -8.07464 0
3.12121 -7.21471 0
1.10336 -5.98407 0
2.28995 -6.67978 0
-1.33569 -2.06173 0
-1.12579 -3.34597 0
0.187601 -4.93744 0
-0.248473 -3.81837 0
5.10875 -7.47004 0
5.29136 -8.73334 0
-3.38965 4.38707 0
-3.35963 5.5711 0
-2.56937 7.02014 0
-2.61974 6.17396 0
-1.19102 8.41141 0
-1.69675 7.43048 0
-1.89241 3.79335 0
-0.417936 -1.33941 0
-0.471836 -0.45657 0
-1.63615 1.35929 0
-1.85819 2.45667 0
-1.00268 3.34776 0
-0.576044 1.18411 0
-0.0408772 0.230123 0
-0.0610312 8.52353 0
-1.13232 9.88175 0
1.30527 -4.84748 0
4.06083 -6.83122 0
3.24049 -6.2122 0
2.29455 -5.64657 0
4.9728 -6.28208 0
-0.295617 -2.53682 0
0.800667 -3.68089 0
0.341259 -1.82954 0
1.69362 -3.90823 0
6.08356 -6.67323 0
6.44281 -7.98379 0
-2.07379 5.14237 0
-1.73676 6.30508 0
-0.591188 7.65333 0
-0.941847 6.74291 0
0.371403 7.68243 0
-0.715143 4.2515 0
0.564455 -0.956517 0
-0.582448 2.26003 0
-0.0544686 3.28192 0
0.389181 1.27672 0
0.929053 0.337836 0
0.984819 8.82133 0
0.357231 9.95052 0
2.55824 -4.35221 0
4.13361 -5.76078 0
3.25062 -5.33349 0
5.76204 -5.54473 0
4.82279 -5.35532 0
0.805408 -2.48243 0
1.44905 -3.12138 0
1.04331 -1.73278 0
2.40979 -3.33108 0
3.2157 -3.66768 0
6.22894 -4.77421 0
6.82999 -5.87723 0
7.36499 -7.24467 0
-0.582837 5.63527 0
-0.0809311 6.71446 0
1.3582 7.54067 0
0.779096 6.80487 0
0.312744 4.49786 0
0.901003 3.55074 0
1.6078 -1.03057 0
0.693597 2.24945 0
1.24077 1.33746 0
1.98256 0.164212 0
1.73369 0.945556 0
2.36759 7.36192 0
2.03067 8.71416 0
1.61706 10.0027 0
3.96252 -4.30867 0
5.27204 -4.4821 0
6.03216 -4.00019 0
3.91743 -3.15669 0
2.09447 -2.22121 0
3.22107 -2.64682 0
6.99229 -4.00736 0
7.43148 -4.95076 0
8.07401 -6.07372 0
0.772321 5.61585 0
1.64227 6.49444 0
2.53044 6.41424 0
1.34074 4.38174 0
1.68076 3.12809 0
2.54205 -0.765614 0
2.94141 -0.0462928 0
1.99778 1.93481 0
2.77085 0.953855 0
3.28589 7.04078 0
3.09339 8.40272 0
2.89766 9.62763 0
5.08545 -3.28161 0
6.25402 -3.12115 0
4.32826 -2.23959 0
3.29601 -1.56107 0
6.80619 -2.26853 0
7.39553 -2.97378 0
8.03143 -3.94941 0
8.95685 -5.00163 0
2.26525 5.28535 0
3.20245 5.91383 0
2.48661 3.93533 0
2.61344 2.96187 0
3.65416 -0.701011 0
3.71038 0.405097 0
3.08666 2.15084 0
3.65385 1.35987 0
4.12617 5.8126 0
4.14211 6.61256 0
4.24808 7.79058 0
4.00334 9.23291 0
5.65825 -1.92968 0
4.53084 -1.23864 0
6.97183 -1.27903 0
7.83322 -2.00557 0
8.48216 -2.87258 0
9.42649 -3.83419 0
3.64856 4.6545 0
3.46323 3.29371 0
4.77852 0.0377404 0
4.59291 1.12932 0
4.17708 2.33237 0
4.68331 5.07705 0
5.04741 6.07928 0
5.13542 7.31041 0
5.35433 8.59311 0
5.96289 -0.473324 0
7.06291 -0.478771 0
7.97701 -1.10558 0
8.97825 -1.86542 0
10.0585 -2.70431 0
4.69166 3.78841 0
5.93115 1.13963 0
5.41988 2.26776 0
5.57759 4.45368 0
5.66131 5.43084 0
6.1916 6.67316 0
6.5604 7.87698 0
7.12159 0.358006 0
8.16148 -0.115248 0
9.06912 -0.723955 0
10.2384 -1.35854 0
7.19377 1.20955 0
5.7489 3.58508 0
6.8129 2.08777 0
6.41399 2.95831 0
6.4205 4.61748 0
6.76003 5.68171 0
7.40421 6.98052 0
7.98067 0.837335 0
9.11166 0.415314 0
10.4426 -0.0426951 0
7.78389 1.86469 0
6.72381 3.66427 0
7.31219 2.82285 0
7.47103 4.86813 0
8.21797 5.98772 0
8.91075 1.45975 0
10.1303 1.31095 0
8.46572 2.73269 0
8.00247 3.8398 0
8.87333 4.87587 0
9.87243 2.7024 0
9.44151 3.69838 0
CELLS 542 2168
3 2 0 4
3 0 1 7
3 4 0 7
3 1 5 8
3 7 1 8
3 3 2 13
3 13 2 4
3 11 3 14
3 14 3 13
3 13 4 15
3 4 7 16
3 15 4 16
3 5 6 17
3 8 5 17
3 6 9 18
3 17 6 18
3 7 8 19
3 16 7 19
3 8 17 20
3 19 8 20
3 9 10 23
3 18 9 23
3 10 21 24
3 23 10 24
3 12 11 25
3 25 11 14
3 26 12 27
3 27 12 25
3 14 13 29
3 29 13 15
3 25 14 30
3 30 14 29
3 29 15 31
3 15 16 33
3 31 15 33
3 16 19 34
3 33 16 34
3 17 18 35
3 20 17 35
3 18 23 36
3 35 18 36
3 19 20 37
3 34 19 37
3 20 35 38
3 37 20 38
3 21 22 39
3 24 21 39
3 22 32 40
3 39 22 40
3 23 24 41
3 36 23 41
3 24 39 42
3 41 24 42
3 27 25 44
3 44 25 30
3 28 26 45
3 45 26 27
3 45 27 46
3 46 27 44
3 47 28 48
3 48 28 45
3 30 29 50
3 50 29 31
3 44 30 51
3 51 30 50
3 50 31 52
3 31 33 52
3 32 43 53
3 40 32 53
3 53 43 54
3 33 34 55
3 34 37 55
3 33 55 52
3 35 36 56
3 38 35 56
3 36 41 57
3 56 36 57
3 37 38 58
3 38 56 58
3 37 58 55
3 39 40 59
3 42 39 59
3 40 53 60
3 59 40 60
3 41 42 61
3 57 41 61
3 42 59 62
3 61 42 62
3 43 63 54
3 46 44 64
3 64 44 51
3 48 45 65
3 65 45 46
3 65 46 66
3 66 46 64
3 49 47 67
3 67 47 48
3 67 48 68
3 68 48 65
3 69 49 70
3 70 49 67
3 52 55 72
3 64 51 73
3 51 50 73
3 50 52 73
3 73 52 74
3 74 52 72
3 53 54 75
3 60 53 75
3 54 63 76
3 54 76 77
3 75 54 77
3 55 58 78
3 72 55 78
3 72 78 79
3 56 57 80
3 57 61 80
3 56 80 58
3 58 80 81
3 78 58 81
3 59 60 82
3 62 59 82
3 60 75 83
3 82 60 83
3 61 62 84
3 62 82 84
3 61 84 80
3 63 85 76
3 66 64 86
3 64 73 86
3 68 65 87
3 87 65 66
3 87 66 86
3 70 67 88
3 88 67 68
3 88 68 89
3 89 68 87
3 71 69 90
3 90 69 70
3 90 70 91
3 91 70 88
3 92 71 93
3 93 71 90
3 74 72 94
3 94 72 79
3 86 73 95
3 95 73 74
3 95 74 96
3 96 74 94
3 97 86 95
3 76 85 99
3 75 77 100
3 83 75 100
3 76 99 101
3 77 76 101
3 77 101 102
3 100 77 102
3 94 79 103
3 78 81 104
3 79 78 104
3 79 104 103
3 80 84 105
3 81 80 105
3 81 105 106
3 104 81 106
3 82 83 107
3 83 100 107
3 82 107 84
3 84 107 108
3 105 84 108
3 85 109 99
3 89 87 110
3 87 86 110
3 110 86 97
3 91 88 111
3 111 88 89
3 111 89 110
3 93 90 112
3 112 90 91
3 112 91 113
3 113 91 111
3 98 92 114
3 114 92 93
3 114 93 115
3 115 93 112
3 116 98 114
3 117 103 118
3 96 94 119
3 94 103 119
3 119 103 117
3 97 95 120
3 120 95 96
3 120 96 119
3 121 110 97
3 121 97 122
3 122 97 120
3 123 119 117
3 124 98 116
3 99 109 125
3 99 125 126
3 101 99 126
3 100 102 127
3 100 127 107
3 101 126 128
3 102 101 128
3 102 128 127
3 104 106 129
3 104 129 103
3 103 129 118
3 105 108 130
3 106 105 130
3 106 130 129
3 107 127 131
3 108 107 131
3 108 131 132
3 108 132 130
3 109 134 125
3 125 134 133
3 113 111 135
3 111 110 135
3 135 110 121
3 115 112 136
3 136 112 113
3 136 113 135
3 116 114 137
3 137 114 115
3 137 115 138
3 138 115 136
3 139 124 116
3 139 116 140
3 140 116 137
3 141 135 121
3 118 129 142
3 118 142 143
3 117 118 143
3 123 117 143
3 122 120 144
3 120 119 144
3 144 119 123
3 141 121 145
3 145 121 122
3 145 122 144
3 146 141 145
3 147 144 123
3 147 123 148
3 143 148 123
3 150 124 139
3 149 150 139
3 131 127 151
3 125 133 152
3 126 125 152
3 126 152 153
3 128 126 153
3 128 153 154
3 128 154 127
3 127 154 151
3 152 133 155
3 130 132 156
3 130 156 129
3 129 156 142
3 131 151 157
3 132 131 157
3 132 157 156
3 156 158 142
3 157 151 159
3 133 160 155
3 134 161 133
3 133 161 160
3 138 136 162
3 136 135 162
3 162 135 141
3 140 137 163
3 163 137 138
3 163 138 162
3 149 139 164
3 164 139 140
3 164 140 165
3 165 140 163
3 166 149 164
3 167 162 141
3 167 141 146
3 142 158 168
3 143 142 168
3 143 168 148
3 146 145 169
3 145 144 169
3 169 144 147
3 170 167 146
3 170 146 169
3 171 169 147
3 171 147 148
3 171 148 172
3 168 172 148
3 173 149 166
3 174 150 149
3 173 174 149
3 154 175 151
3 151 175 159
3 152 155 176
3 153 152 176
3 153 176 177
3 153 177 154
3 154 177 175
3 155 160 178
3 155 178 179
3 176 155 179
3 156 157 180
3 156 180 158
3 157 159 181
3 157 181 180
3 158 180 182
3 158 182 168
3 159 175 183
3 159 183 181
3 175 184 183
3 160 186 178
3 178 186 185
3 161 187 160
3 160 187 186
3 165 163 188
3 163 162 188
3 188 162 167
3 166 164 189
3 189 164 165
3 189 165 188
3 190 173 166
3 190 166 191
3 191 166 189
3 192 188 167
3 192 167 170
3 193 192 170
3 182 194 168
3 194 172 168
3 193 170 195
3 170 169 195
3 195 169 171
3 196 195 171
3 196 171 172
3 194 197 172
3 197 198 172
3 198 196 172
3 200 173 190
3 199 200 190
3 201 174 173
3 200 201 173
3 176 179 202
3 177 176 202
3 177 202 175
3 175 202 184
3 178 185 203
3 178 203 179
3 179 203 202
3 203 185 204
3 202 205 184
3 183 206 181
3 180 181 206
3 180 206 182
3 182 206 194
3 183 184 207
3 205 207 184
3 183 207 206
3 185 208 204
3 186 209 185
3 185 209 208
3 187 210 186
3 186 210 209
3 191 189 211
3 189 188 211
3 211 188 192
3 199 190 212
3 212 190 191
3 212 191 211
3 213 199 212
3 214 211 192
3 214 192 193
3 215 214 193
3 215 193 195
3 206 216 194
3 216 197 194
3 216 217 197
3 215 195 218
3 218 195 196
3 198 218 196
3 217 219 197
3 219 218 198
3 197 219 198
3 220 199 213
3 221 200 199
3 220 221 199
3 222 201 200
3 221 222 200
3 203 204 223
3 203 223 202
3 202 223 205
3 204 208 224
3 204 224 223
3 205 223 225
3 205 225 207
3 207 225 226
3 207 226 206
3 226 216 206
3 208 228 224
3 224 228 227
3 209 229 208
3 229 228 208
3 210 230 209
3 209 230 229
3 213 212 231
3 212 211 231
3 231 211 214
3 232 220 213
3 232 213 231
3 233 231 214
3 233 214 215
3 234 233 215
3 234 215 218
3 226 235 216
3 235 217 216
3 235 236 217
3 217 236 219
3 237 234 218
3 237 218 219
3 236 238 219
3 238 237 219
3 240 220 232
3 239 240 232
3 241 221 220
3 240 241 220
3 242 222 221
3 241 242 221
3 224 227 243
3 224 243 223
3 223 243 225
3 225 243 244
3 225 244 226
3 226 244 235
3 227 245 243
3 228 246 227
3 227 246 245
3 229 247 228
3 228 247 246
3 230 248 229
3 229 248 247
3 239 232 249
3 232 231 249
3 249 231 233
3 250 249 233
3 250 233 234
3 237 250 234
3 244 251 235
3 235 251 236
3 251 252 236
3 236 252 238
3 252 253 238
3 253 250 237
3 253 237 238
3 254 239 249
3 255 240 239
3 254 255 239
3 256 241 240
3 255 256 240
3 257 242 241
3 256 257 241
3 245 258 243
3 243 258 244
3 244 258 251
3 245 259 258
3 246 260 245
3 245 260 259
3 247 261 246
3 246 261 260
3 248 262 247
3 247 262 261
3 254 249 263
3 263 249 250
3 253 263 250
3 258 264 251
3 251 264 252
3 264 265 252
3 265 263 253
3 252 265 253
3 266 254 263
3 267 255 254
3 266 267 254
3 268 256 255
3 267 268 255
3 269 257 256
3 268 269 256
3 259 270 258
3 270 264 258
3 260 271 259
3 259 271 270
3 261 272 260
3 260 272 271
3 262 273 261
3 273 272 261
3 270 274 264
3 275 266 263
3 275 263 265
3 274 276 264
3 276 265 264
3 276 277 265
3 277 275 265
3 278 267 266
3 275 278 266
3 279 268 267
3 278 279 267
3 280 269 268
3 279 280 268
3 271 281 270
3 270 281 274
3 272 282 271
3 271 282 281
3 273 283 272
3 272 283 282
3 281 284 274
3 274 284 276
3 285 278 275
3 277 285 275
3 284 286 276
3 286 285 277
3 276 286 277
3 287 279 278
3 285 287 278
3 288 280 279
3 287 288 279
3 282 289 281
3 281 289 284
3 283 290 282
3 282 290 289
3 289 291 284
3 284 291 286
3 291 292 286
3 292 287 285
3 286 292 285
3 293 288 287
3 292 293 287
3 290 294 289
3 289 294 291
3 294 295 291
3 295 293 292
3 291 295 292
CELL_TYPES 542
5
5
5
5
5
5
5
5
5
5
5
5
5
5
5
5
5
5
5
5
5
5
5
5
5
5
5
5
5
5
5
5
5
5
5
5
5
5
5
5
5
5
5
5
5
5
5
5
5
5
5
5
5
5
5
5
5
5
5
5
5
5
5
5
5
5
5
5
5
5
5
5
5
5
5
5
5
5
5
5
5
5
5
5
5
5
5
5
5
5
5
5
5
5
5
5
5
5
5
5
5
5
5
5
5
5
5
5
5
5
5
5
5
5
5
5
5
5
5
5
5
5
5
5
5
5
5
5
5
5
5
5
5
5
5
5
5
5
5
5
5
5
5
5
5
5
5
5
5
5
5
5
5
5
5
5
5
5
5
5
5
5
5
5
5
5
5
5
5
5
5
5
5
5
5
5
5
5
5
5
5
5
5
5
5
5
5
5
5
5
5
5
5
5
5
5
5
5
5
5
5
5
5
5
5
5
5
5
5
5
5
5
5
5
5
5
5
5
5
5
5
5
5
5
5
5
5
5
5
5
5
5
5
5
5
5
5
5
5
5
5
5
5
5
5
5
5
5
5
5
5
5
5
5
5
5
5
5
5
5
5
5
5
5
5
5
5
5
5
5
5
5
5
5
5
5
5
5
5
5
5
5
5
5
5
5
5
5
5
5
5
5
5
5
5
5
5
5
5
5
5
5
5
5
5
5
5
5
5
5
5
5
5
5
5
5
5
5
5
5
5
5
5
5
5
5
5
5
5
5
5
5
5
5
5
5
5
5
5
5
5
5
5
5
5
5
5
5
5
5
5
5
5
5
5
5
5
5
5
5
5
5
5
5
5
5
5
5
5
5
5
5
5
5
5
5
5
5
5
5
5
5
5
5
5
5
5
5
5
5
5
5
5
5
5
5
5
5
5
5
5
5
5
5
5
5
5
5
5
5
5
5
5
5
5
5
5
5
5
5
5
5
5
5
5
5
5
5
5
5
5
5
5
5
5
5
5
5
5
5
5
5
5
5
5
5
5
5
5
5
5
5
5
5
5
5
5
5
5
5
5
5
5
5
5
5
5
5
5
5
5
5
5
5
5
5
5
5
5
5
5
5
5
5
5
5
5
5
5
5
5
5
5
5
5
5
5
5
5
5
5
5
5
5
5
5
5
5
5
5
5
5
5
5
5
5
5
5
5
5
5
5
5
5
5
5
5
5
5
5
5
5
5
5
5
5
5
5
5
5
5
5
POINT_DATA 296
SCALARS concentrations float 4
LOOKUP_TABLE default
0 0.996381 0.0103584 762.601
0 0.996745 0.005 721.542
0 0.99765 0.00916245 747.36
0 0.999034 0.005 674.978
0 0.996456 0.0118092 787.773
0 0.995533 0.00981337 793.441
0 0.995273 0.00978886 811.403
0 0.996225 0.00987185 776.994
0 0.995923 0.0116804 812.213
0 0.99545 0.00986847 822.076
0 0.996028 0.00990306 834.156
0 1.00025 0 658.336
0 0.999781 0.005 645.048
0 0.997564 0.0106971 770.351
0 0.999197 0.0102945 753.914
0 0.996394 0.00978262 763.58
0 0.996175 0.00984386 775.896
0 0.995059 0.00987247 803.984
0 0.995162 0.00988219 815.607
0 0.995746 0.00985807 789.916
0 0.995197 0.00987372 800.233
0 0.997429 0.00992559 845.283
0 0.999007 0.0142164 887.868
0 0.995462 0.00989373 826.926
0 0.996255 0.00990693 838.334
0 0.999411 0.00968276 735.071
0 1.00023 0.0064249 659.522
0 0.999583 0.00997578 728.012
0 1.00163 0.005 631.083
0 0.997197 0.0107622 770.01
0 0.997998 0.0101824 754.829
0 0.996377 0.0110589 784.961
0 0.998972 0.0161908 873.366
0 0.996004 0.0116589 799.017
0 0.995515 0.0122373 810.03
0 0.995089 0.0098991 809.273
0 0.995134 0.00990958 818.668
0 0.995293 0.00987984 794.923
0 0.995203 0.00990652 804.868
0 0.997435 0.00991829 850.416
0 0.998272 0.00990806 864.252
0 0.995603 0.00992241 828.524
0 0.996489 0.00993336 837.387
0 0.998558 0.00993266 883.154
0 0.998485 0.0098878 742.354
0 1.00037 0.0105193 727.321
0 0.998796 0.00999037 738.171
0 1.0027 0.00904526 687.234
0 1.00145 0.0128116 717.625
0 1.00257 0.0105123 695.677
0 0.996719 0.0106864 772.371
0 0.997333 0.010341 759.114
0 0.99582 0.0112132 791.063
0 0.997764 0.0097177 885.375
0 0.9992 0.00955875 894.233
0 0.995258 0.00988036 780.575
0 0.995257 0.00992158 812.208
0 0.995726 0.0104086 826.627
0 0.995542 0.0125589 831.459
0 0.997013 0.0114726 860.057
0 0.99685 0.00991939 861.261
0 0.996377 0.0118745 845.015
0 0.997072 0.0129468 855.794
0 1.00205 0.0143813 901.189
0 0.997797 0.0105964 753.587
0 0.999116 0.0115378 737.349
0 0.998325 0.00983618 721.2
0 1.00155 0.0127087 728.766
0 0.999426 0.0119238 737.44
0 1.00242 0.010652 694.836
0 1.0011 0.0146328 716.622
0 1.00176 0.005 630.635
0 0.995059 0.0123673 801.893
0 0.996516 0.0116475 775.252
0 0.995512 0.0116147 771.716
0 0.996644 0.0095341 883.593
0 1.00204 0.0139425 922.694
0 0.997293 0.0117163 901.283
0 0.995365 0.00989762 786.333
0 0.994711 0.00988753 779.992
0 0.995876 0.0111451 824.774
0 0.995474 0.0126526 832.959
0 0.996955 0.0143799 865.961
0 0.99646 0.0120623 880.79
0 0.997173 0.0135722 851.338
0 1.00487 0.0164752 899.16
0 0.997208 0.0142707 752.194
0 0.998031 0.0124617 733.582
0 0.998999 0.0141994 723.857
0 0.997818 0.0130765 742.456
0 1.00066 0.0133318 719.073
0 0.997937 0.0131861 732.023
0 1.00157 0.005 633.83
0 0.99994 0.00977195 715.256
0 0.994193 0.0123201 786.05
0 0.995919 0.0148838 769.697
0 0.993583 0.0137587 790.925
0 0.995824 0.013743 771.788
0 1.00155 0.005 640.556
0 1.0044 0.009619 908.225
0 0.99547 0.0121201 854.266
0 0.999755 0.005 839.811
0 0.996008 0.005 829.244
0 0.994371 0.0131877 817.057
0 0.995403 0.0123697 824.46
0 0.996331 0.0115583 825.564
0 0.995753 0.012473 838.742
0 0.99699 0.015449 869.524
0 0.997525 0.0140972 860.931
0 1.00686 0.0129711 911.971
0 0.995935 0.0136254 756.729
0 0.996664 0.0139947 740.085
0 0.996763 0.0150889 711.62
0 0.99528 0.0140881 736.882
0 0.998126 0.0375891 645.313
0 0.994128 0.0185249 694.417
0 0.995655 0.0197708 661.696
0 0.99391 0.0137297 818.618
0 0.99359 0.0121959 821.742
0 0.992382 0.013763 805.642
0 0.993502 0.0150938 760.098
0 0.992234 0.0127605 774.866
0 0.992126 0.0145884 777.752
0 0.990827 0.0123696 811.64
0 1.00093 0.005 651.337
0 1.00688 0.0197374 900.895
0 1.00295 0.00598914 869.736
0 0.995477 0.005 816.49
0 0.998474 0.00796539 886.836
0 0.995245 0.0122573 835.252
0 0.996341 0.0130715 850.43
0 0.996694 0.0153004 864.528
0 0.996956 0.0132579 850.507
0 1.0056 0.00972262 904.89
0 1.00928 0.0427904 788.249
0 0.993534 0.0155416 746.399
0 0.99288 0.0142058 736.109
0 0.989371 0.0228952 639.202
0 0.99023 0.0183114 698.015
0 0.995016 0.0241736 674.469
0 0.985846 0.0141163 745.249
0 0.987777 0.0182976 755.694
0 0.993117 0.00975234 815.821
0 0.991792 0.0172792 784.662
0 0.989063 0.0137671 799.173
0 0.987075 0.0104109 758.084
0 0.980834 0.005 711.686
0 0.987356 0.0117104 796.536
0 0.989493 0.00952731 807.655
0 0.992354 0 686.22
0 1.00093 0.0158832 637.246
0 0.995682 0.0148881 856.012
0 1.00333 0.005 847.962
0 1.00072 0.00996099 871.789
0 0.997318 0.005 823.582
0 1.00193 0.005 850.294
0 0.99578 0.0118749 847.87
0 0.995928 0.0133462 866.748
0 0.99302 0.005 773.018
0 0.995241 0.0115593 859.572
0 1.00197 0.005 857.968
0 1.00511 0.00944928 921.592
0 0.990862 0.0151638 748.142
0 0.987935 0.0178744 666.498
0 0.983917 0.00884459 738.663
0 0.986447 0.0141545 752.622
0 0.981561 0.019729 663.288
0 0.987314 0 708.414
0 0.990643 0.0144339 797.788
0 0.984577 0.0139438 792.413
0 0.982402 0.0148876 765.913
0 0.986282 0.0105616 793.817
0 0.989576 0.0086774 814.771
0 0.987548 0.00724229 735.1
0 0.995773 0.005 682.296
0 0.996309 0.012711 887.579
0 1.00012 0.0092116 899.252
0 0.998861 0.005 829.178
0 0.99942 0.00573846 860.647
0 0.998567 0.00961797 899.541
0 0.994585 0.0113058 842.664
0 0.994093 0.012243 855.847
0 0.991404 0.0108936 843.841
0 0.993124 0.0134799 872.06
0 0.994318 0.0125953 885.805
0 0.997696 0.0105442 897.152
0 1.0002 0.00870794 894.518
0 1.00172 0.0110291 929.325
0 0.991054 0.0121899 761.975
0 0.986937 0.00988774 741.226
0 0.98544 0.0140591 783.495
0 0.985004 0.00996461 740.005
0 0.990241 0.00696099 764.386
0 0.986347 0.00981333 785.743
0 0.989771 0.0184529 818.684
0 0.984938 0.0118589 815.572
0 0.985808 0.00968927 803.029
0 0.988318 0.0105218 827.673
0 0.987034 0.00953151 813.207
0 0.989441 0.0113469 801.655
0 0.989637 0.0129691 787.684
0 0.99134 0.00957174 752.575
0 0.996363 0.0113315 890.434
0 0.996363 0.00973305 893.387
0 0.995093 0.00980501 892.132
0 0.993316 0.0130653 887.851
0 0.990974 0.0115081 808.335
0 0.99093 0.0137403 876.09
0 0.995891 0.00979137 898.502
0 0.999727 0.00990336 894.89
0 1.00098 0.0147092 925.507
0 0.989844 0.010332 772.211
0 0.988405 0.0113501 793.462
0 0.989616 0.0109081 798.52
0 0.98908 0.0106627 807.576
0 0.986643 0.0102255 814.072
0 0.988253 0.0138464 859.839
0 0.987228 0.00995574 849.291
0 0.986077 0.00730283 796.361
0 0.986664 0.00411718 760.167
0 0.991304 0.0109707 805.431
0 0.992067 0.0108804 795.429
0 0.992673 0.010367 763.601
0 0.993464 0.00985777 876.498
0 0.993335 0.0117898 907.059
0 0.990979 0.0132665 886.341
0 0.989482 0.0152394 858.591
0 0.992312 0.0098275 886.309
0 0.994732 0.00980777 894.053
0 0.998808 0.0096811 906.952
0 1.00093 0.0159911 908.061
0 0.989152 0.0106736 810.872
0 0.990048 0.00964756 802.891
0 0.987988 0.00956719 804.016
0 0.986869 0.0094279 809.208
0 0.9887 0.0112219 848.66
0 0.987649 0.00972589 833.012
0 0.986981 0.00932737 816.255
0 0.987285 0.00827319 825.748
0 0.990563 0.00965949 810.262
0 0.991919 0.0099718 788.385
0 0.993313 0.00944832 794.647
0 0.993419 0.005 718.555
0 0.991344 0.0123834 899.974
0 0.989903 0.012808 884.06
0 0.991352 0.00984463 880.452
0 0.993959 0.00980243 889.582
0 0.998003 0.00967355 901.388
0 0.999737 0.00991183 897.572
0 0.989197 0.0107399 825.051
0 0.987816 0.0100024 827.574
0 0.989257 0.00970637 865.63
0 0.988554 0.00831366 841.495
0 0.988068 0.00947616 826.414
0 0.990578 0.00967231 820.965
0 0.99211 0.00962141 814.912
0 0.993908 0.00870602 783.959
0 0.994132 0.005 734.336
0 0.990277 0.0113019 877.969
0 0.991453 0.012483 899.129
0 0.992982 0.00980473 885.133
0 0.996993 0.00963735 895.977
0 0.999916 0.0163691 877.251
0 0.989017 0.00957903 826.801
0 0.989774 0.0101512 874.001
0 0.989468 0.00841303 844.639
0 0.991141 0.00969844 832.295
0 0.992871 0.009663 824.809
0 0.99434 0.00904178 820.056
0 0.99534 0.00626015 779.981
0 0.990968 0.00983589 872.153
0 0.99268 0.00978888 880.842
0 0.995116 0.00955437 891.746
0 0.997127 0.00971231 889.336
0 0.990855 0.0116253 885.57
0 0.990674 0.0096871 836.712
0 0.990662 0.0107976 877.506
0 0.990915 0.0109944 859.213
0 0.992494 0.0113686 851.175
0 0.994258 0.0094431 832.886
0 0.995086 0.00686319 789.45
0 0.99239 0.00979373 873.978
0 0.994985 0.00961621 884.953
0 0.996136 0.0118002 906.755
0 0.992601 0.0113556 887.714
0 0.99252 0.00974422 845.338
0 0.992483 0.0114028 875.011
0 0.993997 0.010601 847.01
0 0.99446 0.00926588 819.977
0 0.99502 0.0109263 882.563
0 0.996169 0.0139813 900.475
0 0.994877 0.00968745 864.648
0 0.99431 0.0109303 863.79
0 0.994814 0.00972886 845.465
0 0.996588 0.0125061 890.1
0 0.995898 0.00978802 852.844
VECTORS fa_u float
-0.00637281 -0.0026128 0
0.0409003 0.0222441 -0
0.0442901 0.0127763 -0
0.000600471 4.09144e-05 -0
1e-08 0 0
0.000722104 0.000583609 -0
0.00276143 0.0026107 -0
1e-08 0 0
1e-08 0 0
0.0151635 0.0206707 -0
-5.13315e-05 -9.23411e-05 0
0.000670428 1.82787e-05 -0
0.0341 -0.00495805 -0
1e-08 0 0
1e-08 0 0
1e-08 0 0
1e-08 0 0
1e-08 0 0
1e-08 0 0
1e-08 0 0
1e-08 0 0
0.00624171 0.014312 -0
0.000486151 0.00170224 -0
1e-08 0 0
1e-08 0 0
1e-08 0 0
-0.00389402 0.000981154 -0
1e-08 0 0
0.017708 -0.00567392 0
1e-08 0 0
1e-08 0 0
1e-08 0 0
0.00286784 0.0256188 -0
1e-08 0 0
1e-08 0 0
1e-08 0 0
1e-08 0 0
1e-08 0 0
1e-08 0 0
1e-08 0 0
1e-08 0 0
1e-08 0 0
1e-08 0 0
-4.55739e-05 0.00106902 0
1e-08 0 0
1e-08 0 0
1e-08 0 0
0.0364268 -0.0241206 0
1e-08 0 0
0.00023468 -0.000231639 0
1e-08 0 0
1e-08 0 0
1e-08 0 0
1e-08 0 0
1e-08 0 0
1e-08 0 0
1e-08 0 0
1e-08 0 0
1e-08 0 0
1e-08 0 0
1e-08 0 0
1e-08 0 0
1e-08 0 0
-3.96892e-05 0.000450686 0
1e-08 0 0
1e-08 0 0
1e-08 0 0
1e-08 0 0
1e-08 0 0
-0.00274893 0.00252895 -0
1e-08 0 0
0.0231376 -0.0271637 0
1e-08 0 0
1e-08 0 0
1e-08 0 0
1e-08 0 0
1e-08 0 0
1e-08 0 0
1e-08 0 0
1e-08 0 0
1e-08 0 0
1e-08 0 0
1e-08 0 0
1e-08 0 0
1e-08 0 0
-0.00562075 0.0240429 0
1e-08 0 0
1e-08 0 0
1e-08 0 0
1e-08 0 0
1e-08 0 0
1e-08 0 0
0.00137037 -0.00240945 0
1e-08 0 0
1e-08 0 0
1e-08 0 0
1e-08 0 0
1e-08 0 0
0.00217651 -0.00501354 0
1e-08 0 0
1e-08 0 0
1e-08 0 0
1e-08 0 0
1e-08 0 0
1e-08 0 0
1e-08 0 0
1e-08 0 0
1e-08 0 0
1e-08 0 0
-0.00472765 0.00974665 0
1e-08 0 0
1e-08 0 0
1e-08 0 0
1e-08 0 0
1e-08 0 0
1e-08 0 0
1e-08 0 0
1e-08 0 0
1e-08 0 0
1e-08 0 0
1e-08 0 0
1e-08 0 0
1e-08 0 0
1e-08 0 0
0.000410235 -0.00122108 0
1e-08 0 0
1e-08 0 0
1e-08 0 0
1e-08 0 0
1e-08 0 0
1e-08 0 0
1e-08 0 0
1e-08 0 0
1e-08 0 0
-0.000332498 0.000534306 0
1e-08 0 0
1e-08 0 0
1e-08 0 0
1e-08 0 0
1e-08 0 0
1e-08 0 0
1e-08 0 0
1e-08 0 0
1e-08 0 0
1e-08 0 0
1e-08 0 0
1e-08 0 0
1e-08 0 0
1e-08 0 0
1e-08 0 0
0.0035234 -0.0224394 0
1e-08 0 0
1e-08 0 0
1e-08 0 0
1e-08 0 0
1e-08 0 0
1e-08 0 0
1e-08 0 0
1e-08 0 0
1e-08 0 0
1e-08 0 0
-0.00221397 0.00308392 0
1e-08 0 0
1e-08 0 0
1e-08 0 0
1e-08 0 0
1e-08 0 0
1e-08 0 0
1e-08 0 0
1e-08 0 0
1e-08 0 0
1e-08 0 0
1e-08 0 0
1e-08 0 0
3.6077e-07 -8.20185e-06 0
1e-08 0 0
1e-08 0 0
1e-08 0 0
1e-08 0 0
1e-08 0 0
1e-08 0 0
1e-08 0 0
1e-08 0 0
1e-08 0 0
1e-08 0 0
1e-08 0 0
1e-08 0 0
-0.0357363 0.0305187 0
1e-08 0 0
1e-08 0 0
1e-08 0 0
1e-08 0 0
1e-08 0 0
1e-08 0 0
1e-08 0 0
1e-08 0 0
1e-08 0 0
1e-08 0 0
1e-08 0 0
1e-08 0 0
1e-08 0 0
-0.00505839 -0.0397991 0
1e-08 0 0
1e-08 0 0
1e-08 0 0
1e-08 0 0
1e-08 0 0
1e-08 0 0
1e-08 0 0
1e-08 0 0
0.00614204 -0.00435892 -0
1e-08 0 0
1e-08 0 0
1e-08 0 0
1e-08 0 0
1e-08 0 0
1e-08 0 0
1e-08 0 0
1e-08 0 0
1e-08 0 0
1e-08 0 0
1e-08 0 0
-0.000411264 -0.00127491 0
1e-08 0 0
1e-08 0 0
1e-08 0 0
1e-08 0 0
1e-08 0 0
1e-08 0 0
1e-08 0 0
-0.0297719 0.0179797 0
1e-08 0 0
1e-08 0 0
1e-08 0 0
1e-08 0 0
1e-08 0 0
1e-08 0 0
1e-08 0 0
1e-08 0 0
1e-08 0 0
1e-08 0 0
1e-08 0 0
-0.00143376 -0.00340474 0
1e-08 0 0
1e-08 0 0
1e-08 0 0
1e-08 0 0
1e-08 0 0
0.00572361 -0.00274467 -0
1e-08 0 0
1e-08 0 0
1e-08 0 0
1e-08 0 0
1e-08 0 0
1e-08 0 0
1e-08 0 0
1e-08 0 0
-0.00141209 -0.00266296 0
1e-08 0 0
1e-08 0 0
1e-08 0 0
1e-08 0 0
-0.0494507 0.0162177 0
1e-08 0 0
1e-08 0 0
1e-08 0 0
1e-08 0 0
1e-08 0 0
1e-08 0 0
-0.0180836 -0.0229873 0
1e-08 0 0
1e-08 0 0
1e-08 0 0
0.000162969 -2.35175e-05 -0
1e-08 0 0
1e-08 0 0
1e-08 0 0
1e-08 0 0
1e-08 0 0
1e-08 0 0
-0.00140251 -0.00123052 0
1e-08 0 0
1e-08 0 0
-0.0516221 -0.00208979 0
1e-08 0 0
1e-08 0 0
1e-08 0 0
1e-08 0 0
-0.00751686 -0.00524708 0
1e-08 0 0
0.000658427 0.000136754 -0
1e-08 0 0
1e-08 0 0
-0.00233789 -0.00124948 0
-0.0192631 -0.00555782 0
-0.000645353 -0.000296652 0
