# vtk DataFile Version 2.0
CellBP Time: 2.48
ASCII
DATASET UNSTRUCTURED_GRID
POINTS 296 double
-8.91508 -4.40027 0
-8.405 -5.34103 0
-9.40403 -3.01534 0
-9.77031 -1.59849 0
-8.12214 -3.06599 0
-7.6929 -6.35833 0
-6.8054 -7.33046 0
-7.51391 -4.16866 0
-6.94702 -5.2249 0
-5.88445 -8.34714 0
-4.61256 -8.97819 0
-9.74883 -0.333768 0
-9.70974 1.16216 0
-8.30846 -1.92875 0
-8.60459 -0.945175 0
-7.20361 -2.47866 0
-6.92848 -3.16596 0
-6.20257 -6.13079 0
-5.43669 -6.97724 0
-6.45118 -4.20414 0
-5.79225 -4.96858 0
-3.5241 -9.66672 0
-2.10616 -10.1522 0
-4.56148 -7.59592 0
-3.62602 -8.16555 0
-8.60911 0.277 0
-9.39729 2.40685 0
-8.28343 1.33087 0
-8.9257 3.43671 0
-7.25179 -1.40905 0
-7.59342 -0.396861 0
-6.46494 -1.68934 0
-0.935769 -10.2404 0
-6.01582 -2.42216 0
-5.77836 -3.28146 0
-5.3392 -5.88853 0
-4.46447 -6.17853 0
-4.90382 -4.17378 0
-4.65569 -5.06615 0
-2.63656 -8.75336 0
-1.7689 -8.97248 0
-3.75422 -7.01096 0
-2.83668 -7.26994 0
0.500881 -10.4971 0
-7.45729 0.583525 0
-7.84292 2.28415 0
-7.19322 1.52121 0
-8.45465 4.90049 0
-7.46821 3.67985 0
-7.71397 5.75706 0
-6.44971 -0.976193 0
-6.64247 0.0111791 0
-5.38779 -1.32795 0
-0.409152 -9.38351 0
0.73693 -8.86634 0
-4.84142 -2.63178 0
-3.94088 -5.19254 0
-3.49238 -5.97557 0
-4.18013 -3.9579 0
-1.85083 -7.62963 0
-0.896919 -8.12226 0
-2.64946 -6.32898 0
-1.92116 -6.73497 0
1.73176 -10.1864 0
-6.43421 0.896037 0
-7.04264 2.81156 0
-6.43942 1.98711 0
-6.85942 4.43079 0
-6.67703 3.72441 0
-7.13474 6.86288 0
-6.38062 5.63162 0
-5.76227 7.77151 0
-3.78368 -1.35084 0
-5.4235 -0.066814 0
-4.0464 -0.334158 0
0.27249 -7.88597 0
1.84625 -8.76595 0
1.29173 -8.23212 0
-3.36215 -2.48858 0
-2.92281 -1.59192 0
-2.68357 -4.80909 0
-2.81752 -3.41938 0
-1.19309 -6.85701 0
-0.390859 -7.25196 0
-1.42807 -5.65896 0
2.86747 -9.99547 0
-5.30991 1.65867 0
-5.91393 2.75893 0
-5.82335 4.664 0
-5.4768 3.70609 0
-5.60457 6.64074 0
-5.3883 5.4877 0
-4.55817 8.34488 0
-4.25347 6.96936 0
-3.049 -0.510676 0
-3.99439 0.846191 0
-3.25663 0.394687 0
-3.73259 2.20401 0
-3.45225 8.99966 0
3.20022 -8.61603 0
0.652449 -7.04175 0
2.36682 -7.82011 0
1.62762 -7.30225 0
-1.93106 -1.14025 0
-2.21789 -2.41018 0
-1.84841 -4.1143 0
-1.77296 -3.17208 0
-0.202572 -6.18236 0
-0.756481 -4.5682 0
4.28857 -9.67268 0
-4.67502 3.09576 0
-4.99701 4.56634 0
-4.40686 5.92249 0
-3.95845 5.00104 0
-3.3389 7.78522 0
-3.40313 6.43866 0
-2.38721 8.08067 0
-1.35285 -0.435587 0
-1.0695 -1.15265 0
-1.75 0.580967 0
-2.89058 1.41226 0
-2.87183 3.00904 0
-2.60843 1.99773 0
-0.897841 0.382883 0
-2.18061 9.67491 0
4.28736 -8.23481 0
3.33019 -7.33238 0
1.21436 -6.01934 0
2.42105 -6.91423 0
-1.13032 -2.10029 0
-0.844694 -3.47495 0
0.526125 -5.06993 0
-0.104778 -3.98577 0
5.29443 -7.60651 0
5.49875 -8.96936 0
-3.47118 4.21831 0
-3.25808 5.41883 0
-2.54568 6.92531 0
-2.72232 5.98308 0
-1.25795 8.45936 0
-1.73168 7.32662 0
-2.07313 3.79498 0
-0.166436 -1.63584 0
-0.463451 -0.588925 0
-1.47508 1.35551 0
-1.77952 2.27985 0
-1.05315 3.39952 0
-0.575065 0.986847 0
-0.075811 0.0736021 0
-0.0443592 8.71506 0
-0.9944 9.93727 0
1.52793 -4.91937 0
4.25918 -6.96128 0
3.33844 -6.19172 0
2.43825 -5.76176 0
5.25891 -6.33057 0
-0.121745 -2.67275 0
1.19451 -3.87907 0
0.534207 -2.03945 0
1.96359 -4.02271 0
6.38386 -6.76417 0
6.66526 -8.32655 0
-2.05695 5.03933 0
-1.81019 6.29192 0
-0.398933 7.43142 0
-0.78617 6.60402 0
0.41016 7.73291 0
-0.765119 4.10356 0
0.664784 -1.03048 0
-0.521372 1.97428 0
0.0186755 2.95751 0
0.455789 1.12522 0
1.01286 0.290163 0
1.20442 8.81913 0
0.407878 10.2022 0
2.94945 -4.6656 0
4.33261 -5.96693 0
3.46889 -5.34959 0
6.06051 -5.81294 0
5.29051 -5.48748 0
0.958864 -2.83763 0
1.65343 -3.34354 0
1.08359 -1.92344 0
2.64459 -3.51687 0
3.38622 -3.74495 0
6.53009 -4.93377 0
7.07177 -6.09685 0
7.57955 -7.37906 0
-0.405304 5.71782 0
0.00705293 6.58802 0
1.53205 7.26115 0
0.973034 6.71883 0
0.23956 4.28935 0
0.846685 3.35107 0
1.56114 -1.21561 0
0.724496 2.20632 0
1.37973 1.32772 0
2.09535 -0.0461189 0
1.85609 0.74027 0
2.3313 7.17203 0
1.99731 8.73144 0
1.79476 9.95666 0
4.29196 -4.5572 0
5.38303 -4.49054 0
6.07303 -4.02474 0
4.10743 -3.2914 0
2.29478 -2.59093 0
3.31991 -2.74077 0
7.09363 -4.17197 0
7.68549 -4.95191 0
8.5088 -6.40541 0
1.03225 5.30291 0
1.78698 6.12627 0
2.70607 6.29316 0
1.44874 4.30425 0
1.78751 3.12845 0
2.53588 -0.797183 0
3.066 -0.148571 0
2.17063 1.87685 0
2.83893 0.705261 0
3.48785 6.93865 0
3.01928 8.24381 0
2.94922 9.54768 0
4.98461 -3.27139 0
6.25947 -3.2401 0
4.40711 -2.33409 0
3.27011 -1.74486 0
6.99881 -2.4765 0
7.649 -3.18692 0
8.29772 -4.11831 0
9.23888 -5.16279 0
2.56319 4.97024 0
3.33137 5.66251 0
2.60344 3.85327 0
2.81254 2.87546 0
3.6266 -0.898361 0
3.77282 0.135274 0
3.19697 2.16444 0
3.74258 1.1625 0
4.30461 5.61167 0
4.3117 6.52563 0
4.13819 7.60655 0
4.02061 9.29681 0
5.70166 -1.96594 0
4.62283 -1.29645 0
7.09122 -1.44241 0
7.96506 -2.014 0
8.4541 -2.94052 0
9.69873 -4.09185 0
3.86412 4.37832 0
3.70784 3.15149 0
4.92367 0.00453979 0
4.64975 0.989157 0
4.29864 2.1114 0
4.8732 4.96761 0
5.02291 5.96408 0
5.12881 7.52001 0
5.33095 8.56729 0
6.37985 -0.664018 0
7.06876 -0.427053 0
8.08277 -1.20477 0
9.17177 -1.94862 0
10.3183 -2.85403 0
4.91655 3.66266 0
5.9508 0.92461 0
5.70465 2.04144 0
5.68864 4.28154 0
5.69086 5.19088 0
6.26202 6.53373 0
6.7982 7.76171 0
7.15916 0.300487 0
8.30361 -0.277009 0
9.2421 -1.05309 0
10.5447 -1.55175 0
7.30191 1.0262 0
5.91345 3.4904 0
6.94635 2.03671 0
6.45966 2.9083 0
6.45689 4.60514 0
6.81918 5.60537 0
7.63626 6.9477 0
8.13185 0.721946 0
9.35502 0.259616 0
10.5692 -0.152229 0
7.92912 1.67303 0
6.81646 3.71702 0
7.57726 2.6511 0
7.56497 4.79968 0
8.23958 5.87906 0
9.10988 1.41822 0
10.4596 1.19785 0
8.65713 2.69933 0
7.91098 3.75942 0
8.97439 5.04231 0
10.1681 2.57335 0
9.5557 3.79936 0
CELLS 542 2168
3 2 0 4
3 0 1 7
3 4 0 7
3 1 5 8
3 7 1 8
3 3 2 13
3 13 2 4
3 11 3 14
3 14 3 13
3 13 4 15
3 4 7 16
3 15 4 16
3 5 6 17
3 8 5 17
3 6 9 18
3 17 6 18
3 7 8 19
3 16 7 19
3 8 17 20
3 19 8 20
3 9 10 23
3 18 9 23
3 10 21 24
3 23 10 24
3 12 11 25
3 25 11 14
3 26 12 27
3 27 12 25
3 14 13 29
3 29 13 15
3 25 14 30
3 30 14 29
3 29 15 31
3 15 16 33
3 31 15 33
3 16 19 34
3 33 16 34
3 17 18 35
3 20 17 35
3 18 23 36
3 35 18 36
3 19 20 37
3 34 19 37
3 20 35 38
3 37 20 38
3 21 22 39
3 24 21 39
3 22 32 40
3 39 22 40
3 23 24 41
3 36 23 41
3 24 39 42
3 41 24 42
3 27 25 44
3 44 25 30
3 28 26 45
3 45 26 27
3 45 27 46
3 46 27 44
3 47 28 48
3 48 28 45
3 30 29 50
3 50 29 31
3 44 30 51
3 51 30 50
3 50 31 52
3 31 33 52
3 32 43 53
3 40 32 53
3 53 43 54
3 33 34 55
3 34 37 55
3 33 55 52
3 36 41 57
3 56 36 57
3 37 38 58
3 38 56 58
3 37 58 55
3 39 40 59
3 42 39 59
3 40 53 60
3 59 40 60
3 41 42 61
3 57 41 61
3 42 59 62
3 61 42 62
3 43 63 54
3 46 44 64
3 64 44 51
3 48 45 65
3 65 45 46
3 65 46 66
3 66 46 64
3 49 47 67
3 67 47 48
3 67 48 68
3 68 48 65
3 69 49 70
3 70 49 67
3 52 55 72
3 64 51 73
3 51 50 73
3 50 52 73
3 73 52 74
3 74 52 72
3 54 63 76
3 54 76 77
3 75 54 77
3 55 58 78
3 72 55 78
3 72 78 79
3 56 57 80
3 57 61 80
3 56 80 58
3 58 80 81
3 78 58 81
3 59 60 82
3 62 59 82
3 60 75 83
3 82 60 83
3 61 62 84
3 62 82 84
3 61 84 80
3 63 85 76
3 66 64 86
3 64 73 86
3 68 65 87
3 87 65 66
3 87 66 86
3 70 67 88
3 88 67 68
3 88 68 89
3 89 68 87
3 71 69 90
3 90 69 70
3 90 70 91
3 91 70 88
3 92 71 93
3 93 71 90
3 74 72 94
3 94 72 79
3 86 73 95
3 95 73 74
3 95 74 96
3 96 74 94
3 97 86 95
3 76 85 99
3 75 77 100
3 83 75 100
3 76 99 101
3 77 76 101
3 77 101 102
3 100 77 102
3 94 79 103
3 78 81 104
3 79 78 104
3 79 104 103
3 80 84 105
3 81 80 105
3 81 105 106
3 104 81 106
3 82 83 107
3 83 100 107
3 82 107 84
3 84 107 108
3 105 84 108
3 85 109 99
3 89 87 110
3 87 86 110
3 110 86 97
3 91 88 111
3 111 88 89
3 111 89 110
3 93 90 112
3 112 90 91
3 98 92 114
3 114 92 93
3 114 93 115
3 115 93 112
3 116 98 114
3 117 103 118
3 96 94 119
3 97 95 120
3 120 95 96
3 120 96 119
3 121 110 97
3 121 97 122
3 122 97 120
3 123 119 117
3 124 98 116
3 99 109 125
3 99 125 126
3 101 99 126
3 100 102 127
3 100 127 107
3 101 126 128
3 102 101 128
3 104 106 129
3 104 129 103
3 103 129 118
3 105 108 130
3 106 105 130
3 106 130 129
3 107 127 131
3 108 107 131
3 108 131 132
3 108 132 130
3 109 134 125
3 125 134 133
3 113 111 135
3 111 110 135
3 135 110 121
3 115 112 136
3 136 112 113
3 136 113 135
3 116 114 137
3 137 114 115
3 137 115 138
3 138 115 136
3 139 124 116
3 139 116 140
3 140 116 137
3 141 135 121
3 118 129 142
3 118 142 143
3 117 118 143
3 123 117 143
3 122 120 144
3 120 119 144
3 144 119 123
3 141 121 145
3 145 121 122
3 145 122 144
3 146 141 145
3 147 144 123
3 147 123 148
3 143 148 123
3 150 124 139
3 149 150 139
3 131 127 151
3 125 133 152
3 126 125 152
3 126 152 153
3 128 126 153
3 128 153 154
3 127 154 151
3 152 133 155
3 130 132 156
3 130 156 129
3 129 156 142
3 131 151 157
3 132 131 157
3 156 158 142
3 157 151 159
3 133 160 155
3 134 161 133
3 133 161 160
3 138 136 162
3 136 135 162
3 162 135 141
3 140 137 163
3 163 137 138
3 163 138 162
3 149 139 164
3 164 139 140
3 164 140 165
3 165 140 163
3 166 149 164
3 167 162 141
3 167 141 146
3 142 158 168
3 143 142 168
3 143 168 148
3 146 145 169
3 145 144 169
3 169 144 147
3 170 167 146
3 170 146 169
3 171 169 147
3 171 147 148
3 171 148 172
3 168 172 148
3 173 149 166
3 174 150 149
3 173 174 149
3 154 175 151
3 151 175 159
3 152 155 176
3 153 152 176
3 153 176 177
3 153 177 154
3 154 177 175
3 155 160 178
3 155 178 179
3 176 155 179
3 156 180 158
3 157 159 181
3 157 181 180
3 158 180 182
3 158 182 168
3 159 175 183
3 159 183 181
3 175 184 183
3 160 186 178
3 178 186 185
3 161 187 160
3 160 187 186
3 165 163 188
3 163 162 188
3 188 162 167
3 166 164 189
3 189 164 165
3 189 165 188
3 190 173 166
3 190 166 191
3 191 166 189
3 192 188 167
3 192 167 170
3 193 192 170
3 182 194 168
3 194 172 168
3 193 170 195
3 170 169 195
3 195 169 171
3 196 195 171
3 196 171 172
3 194 197 172
3 197 198 172
3 198 196 172
3 200 173 190
3 199 200 190
3 201 174 173
3 200 201 173
3 176 179 202
3 177 176 202
3 177 202 175
3 175 202 184
3 179 203 202
3 203 185 204
3 202 205 184
3 183 206 181
3 180 181 206
3 180 206 182
3 182 206 194
3 183 184 207
3 205 207 184
3 183 207 206
3 185 208 204
3 186 209 185
3 185 209 208
3 187 210 186
3 186 210 209
3 191 189 211
3 189 188 211
3 211 188 192
3 199 190 212
3 212 190 191
3 212 191 211
3 213 199 212
3 214 211 192
3 214 192 193
3 215 214 193
3 215 193 195
3 216 197 194
3 216 217 197
3 215 195 218
3 218 195 196
3 198 218 196
3 217 219 197
3 219 218 198
3 197 219 198
3 220 199 213
3 221 200 199
3 220 221 199
3 222 201 200
3 221 222 200
3 203 204 223
3 204 208 224
3 204 224 223
3 205 223 225
3 205 225 207
3 207 225 226
3 207 226 206
3 208 228 224
3 224 228 227
3 209 229 208
3 229 228 208
3 210 230 209
3 209 230 229
3 213 212 231
3 212 211 231
3 231 211 214
3 232 220 213
3 232 213 231
3 233 231 214
3 233 214 215
3 234 233 215
3 234 215 218
3 226 235 216
3 235 217 216
3 235 236 217
3 217 236 219
3 237 234 218
3 237 218 219
3 236 238 219
3 238 237 219
3 240 220 232
3 239 240 232
3 241 221 220
3 240 241 220
3 242 222 221
3 241 242 221
3 224 227 243
3 224 243 223
3 223 243 225
3 225 243 244
3 225 244 226
3 226 244 235
3 227 245 243
3 228 246 227
3 227 246 245
3 229 247 228
3 228 247 246
3 230 248 229
3 229 248 247
3 239 232 249
3 232 231 249
3 249 231 233
3 250 249 233
3 250 233 234
3 237 250 234
3 244 251 235
3 235 251 236
3 251 252 236
3 236 252 238
3 252 253 238
3 253 250 237
3 253 237 238
3 254 239 249
3 255 240 239
3 254 255 239
3 256 241 240
3 255 256 240
3 257 242 241
3 256 257 241
3 245 258 243
3 243 258 244
3 244 258 251
3 245 259 258
3 246 260 245
3 245 260 259
3 247 261 246
3 246 261 260
3 248 262 247
3 247 262 261
3 254 249 263
3 263 249 250
3 253 263 250
3 258 264 251
3 251 264 252
3 264 265 252
3 265 263 253
3 252 265 253
3 266 254 263
3 267 255 254
3 266 267 254
3 268 256 255
3 267 268 255
3 269 257 256
3 268 269 256
3 259 270 258
3 270 264 258
3 260 271 259
3 259 271 270
3 261 272 260
3 260 272 271
3 262 273 261
3 273 272 261
3 270 274 264
3 275 266 263
3 275 263 265
3 274 276 264
3 276 265 264
3 276 277 265
3 277 275 265
3 278 267 266
3 279 268 267
3 278 279 267
3 280 269 268
3 279 280 268
3 271 281 270
3 270 281 274
3 272 282 271
3 271 282 281
3 273 283 272
3 272 283 282
3 281 284 274
3 274 284 276
3 277 285 275
3 284 286 276
3 286 285 277
3 276 286 277
3 287 279 278
3 285 287 278
3 288 280 279
3 287 288 279
3 282 289 281
3 281 289 284
3 283 290 282
3 282 290 289
3 289 291 284
3 284 291 286
3 291 292 286
3 292 287 285
3 286 292 285
3 293 288 287
3 292 293 287
3 290 294 289
3 289 294 291
3 294 295 291
3 295 293 292
3 291 295 292
3 38 36 56
3 36 38 35
3 180 132 157
3 132 180 156
3 185 179 178
3 179 185 203
3 127 128 154
3 128 127 102
3 226 194 206
3 194 226 216
3 202 223 205
3 223 202 203
3 75 53 54
3 53 75 60
3 112 111 113
3 111 112 91
3 94 117 119
3 117 94 103
3 278 275 285
3 275 278 266
CELL_TYPES 542
5
5
5
5
5
5
5
5
5
5
5
5
5
5
5
5
5
5
5
5
5
5
5
5
5
5
5
5
5
5
5
5
5
5
5
5
5
5
5
5
5
5
5
5
5
5
5
5
5
5
5
5
5
5
5
5
5
5
5
5
5
5
5
5
5
5
5
5
5
5
5
5
5
5
5
5
5
5
5
5
5
5
5
5
5
5
5
5
5
5
5
5
5
5
5
5
5
5
5
5
5
5
5
5
5
5
5
5
5
5
5
5
5
5
5
5
5
5
5
5
5
5
5
5
5
5
5
5
5
5
5
5
5
5
5
5
5
5
5
5
5
5
5
5
5
5
5
5
5
5
5
5
5
5
5
5
5
5
5
5
5
5
5
5
5
5
5
5
5
5
5
5
5
5
5
5
5
5
5
5
5
5
5
5
5
5
5
5
5
5
5
5
5
5
5
5
5
5
5
5
5
5
5
5
5
5
5
5
5
5
5
5
5
5
5
5
5
5
5
5
5
5
5
5
5
5
5
5
5
5
5
5
5
5
5
5
5
5
5
5
5
5
5
5
5
5
5
5
5
5
5
5
5
5
5
5
5
5
5
5
5
5
5
5
5
5
5
5
5
5
5
5
5
5
5
5
5
5
5
5
5
5
5
5
5
5
5
5
5
5
5
5
5
5
5
5
5
5
5
5
5
5
5
5
5
5
5
5
5
5
5
5
5
5
5
5
5
5
5
5
5
5
5
5
5
5
5
5
5
5
5
5
5
5
5
5
5
5
5
5
5
5
5
5
5
5
5
5
5
5
5
5
5
5
5
5
5
5
5
5
5
5
5
5
5
5
5
5
5
5
5
5
5
5
5
5
5
5
5
5
5
5
5
5
5
5
5
5
5
5
5
5
5
5
5
5
5
5
5
5
5
5
5
5
5
5
5
5
5
5
5
5
5
5
5
5
5
5
5
5
5
5
5
5
5
5
5
5
5
5
5
5
5
5
5
5
5
5
5
5
5
5
5
5
5
5
5
5
5
5
5
5
5
5
5
5
5
5
5
5
5
5
5
5
5
5
5
5
5
5
5
5
5
5
5
5
5
5
5
5
5
5
5
5
5
5
5
5
5
5
5
5
5
5
5
5
5
5
5
5
5
5
5
5
5
5
5
5
5
5
5
5
5
5
5
5
5
5
5
5
5
5
5
5
5
5
5
5
5
5
5
5
5
5
5
5
5
5
5
5
5
5
POINT_DATA 296
SCALARS concentrations float 4
LOOKUP_TABLE default
0 1.0005 0.0147872 203.075
0 0.998354 0.0340556 158.039
0 1.00194 0 161.158
0 1.00683 0.005 165.35
0 0.996847 0.005 163.127
0 1.00383 0.0265523 190.499
0 0.998878 0.00958746 168.698
0 0.998046 0.005 160.785
0 1.00245 0.00981986 185.334
0 0.993746 0.0213675 185.818
0 1.00962 0.005 142.403
0 1.00035 0.0043682 170.115
0 1.00887 0.005 173.677
0 1.00501 0.005 167.005
0 1.0051 0 170.093
0 0.992752 0.005 167.135
0 0.991366 0 165.47
0 1.00326 0.0144002 115.12
0 0.994442 0.00847324 190.624
0 1.00186 0.005 160.555
0 1.00201 0.005 155.558
0 1.00826 0.005 139.554
0 0.993571 0 136.922
0 0.992951 0.0148286 119.607
0 0.995789 0.005 141.756
0 1.00123 0.005 174.647
0 1.0058 0.0412256 155.61
0 1.00326 0.0143693 120.489
0 0.994506 0.005 178.053
0 0.999537 0.0148732 161.925
0 0.997553 0.005 174.138
0 0.983525 0.005 172.899
0 1.00238 0 135.152
0 0.983019 0.00996374 141.594
0 0.994631 0.005 170.504
0 0.994177 0.005 152.047
0 0.988199 0.005 148.962
0 0.999408 0.005 162.392
0 0.993332 0.0148125 102.272
0 0.992492 0 139.391
0 0.99419 0.00989667 183.687
0 0.977812 0.00995832 163.34
0 0.985602 0.005 141.854
0 0.99711 0.0435851 58.0992
0 0.992585 0.005 178.068
0 0.99405 0.012758 146.032
0 0.986379 0.0239997 203.126
0 0.984264 0.005 175.756
0 0.989021 0.00976263 162.042
0 0.962599 0 175.213
0 0.984745 0.005 175.5
0 0.98388 0.005 178.089
0 0.98269 0.0130278 95.3968
0 0.996071 0 136.091
0 0.993759 0.005 137.564
0 0.988452 0.0238699 130.993
0 0.987913 0.00996138 131.857
0 0.985168 0.00991083 159.092
0 0.990117 0.005 165.307
0 0.98719 0.00480679 139.65
0 0.991787 0.005 138.35
0 0.98963 0.005 143.692
0 0.989335 0.00989944 115.96
0 0.998985 0 135.466
0 0.982406 0.0155087 183.727
0 0.982278 0.0112903 130.055
0 0.98049 0.0145794 111.598
0 0.971374 0.005 177.815
0 0.97748 0.0194466 151.017
0 0.981793 0 170.945
0 0.973652 0.00899958 200.339
0 0.984306 0 166.12
0 0.987262 0.0292914 171.059
0 0.983584 0.0245811 195.019
0 0.987731 0.0145841 163.659
0 0.9902 0.005 139.297
0 1.00026 0.005 138.217
0 0.993802 0.005 139.031
0 0.991018 0.0197646 151.79
0 0.993336 0.0291819 153.219
0 0.988928 0.005 158.114
0 0.99229 0.0228845 162.205
0 0.98567 0.005 140.774
0 0.990618 0.005 140.297
0 0.991834 0.005 147.462
0 0.99568 0.005 137.14
0 0.983287 0.0215013 154.245
0 0.980975 0.0148749 148.694
0 0.982292 0 174.847
0 0.981214 0.0227741 143.049
0 0.986372 0.0242029 234.883
0 0.987513 0.0243043 180.321
0 0.984865 0.00296926 163.027
0 0.983596 0.0146738 222.975
0 0.989985 0.0219439 135.783
0 0.987317 0.0190182 146.858
0 0.990116 0.0235612 153.126
0 0.987347 0.0150095 161.683
0 0.993351 0.0218926 144.74
0 1.00174 0.00965673 102.492
0 0.997886 0.005 141.144
0 1.0104 0.005 140.284
0 1.00363 0.005 141.015
0 0.991237 0.0148612 148.619
0 0.994959 0.0120061 103.125
0 0.994887 0.00526507 159.927
0 0.995669 0 171.257
0 0.995258 0.005 144.566
0 0.995034 0.005 154.91
0 0.991683 0.005 139.66
0 0.984774 0.00996261 175.768
0 0.985634 0.0124374 98.2215
0 0.984084 0.0130834 235.971
0 0.983829 0.0205279 164.565
0 0.988488 0.0180754 158.242
0 0.986043 0.0148333 204.16
0 0.993833 0.0234085 130.14
0 0.988148 0.0132269 169.631
0 0.990652 0.0183561 123.24
0 0.987385 0.0199018 119.446
0 0.987962 0.0187401 142.22
0 0.990585 0.0128194 217.791
0 0.99016 0.0195997 173.051
0 0.985837 0.00984422 132.504
0 0.99783 0.005 160.634
0 0.99679 0 141.239
0 1.01581 0.00987145 104.98
0 1.00021 0.005 146.65
0 1.01355 0.005 142.596
0 0.990586 0.005 178.72
0 0.991159 0.005 165.174
0 0.993237 0.0196696 146.449
0 0.984864 0.005 157.887
0 0.992032 0 142.959
0 0.992062 0.00435826 142.086
0 0.98808 0.0148899 191.414
0 0.986967 0.0147423 215.895
0 0.988393 0.0148662 188.656
0 0.988835 0.0147778 209.178
0 0.994291 0.0179745 151.089
0 0.99022 0.0172148 167.437
0 0.993935 0.0144049 208.625
0 0.984354 0 170.535
0 0.98684 0.0114527 157.566
0 0.98657 0.0148625 172.507
0 0.991923 0.017763 172.655
0 0.993243 0.014843 184.868
0 0.984181 0.00980358 155.118
0 0.981705 0.0098532 123.125
0 0.99553 0.00996374 138.334
0 0.995209 0.0116277 85.268
0 0.989009 0.0441778 55.7883
0 1.00589 0 142.966
0 1.01549 0.00996486 122.645
0 0.999592 0.005 149.135
0 0.998253 0 144.939
0 0.981103 0.0143892 160.587
0 0.985228 0.005 158.914
0 0.973234 0.005 169.873
0 0.981776 0.0117383 100.808
0 0.98861 0 145.084
0 0.987333 0.005 143.72
0 0.993646 0.013768 227.84
0 0.991563 0.0148741 199.196
0 0.991932 0.0117682 151.103
0 0.990134 0.0142772 188.956
0 0.994892 0.00976361 115.324
0 0.995314 0.0142376 197.919
0 0.978773 0.0146781 214.896
0 0.986813 0.00981558 161.155
0 0.989742 0.00712679 147.54
0 0.980835 0.00980713 171.97
0 0.978352 0.005 158.012
0 0.999197 0.00889177 140.453
0 0.997703 0.0343186 182.398
0 0.989779 0.005 154.824
0 1.00808 0.005 146.297
0 1.00436 0.005 150.9
0 0.990024 0.005 146.68
0 0.995268 0 146.637
0 0.976861 0.0244243 110.472
0 0.978173 0.0101399 96.8345
0 0.971835 0.0196061 109.042
0 0.980028 0.00996063 104.98
0 0.990202 0.00894594 89.2634
0 0.992802 0.005 148.84
0 0.991516 0 147.02
0 0.986193 0 145.351
0 0.993494 0.0195541 165.167
0 0.991401 0.0148783 198.579
0 0.999587 0 173.809
0 0.993174 0.00601807 152.456
0 0.990014 0 161.703
0 0.984441 0 159.665
0 0.974873 0.00994995 157.544
0 0.981269 0 154.049
0 0.979202 0.0197226 149.899
0 0.980901 0.00996444 137.333
0 0.982347 0.0192011 122.401
0 1.00429 0.0084193 143.675
0 1.00825 0.014798 178.98
0 1.0022 0 164.291
0 0.996734 0 151.428
0 0.987152 0.00737006 112.002
0 0.988772 0.0151924 177.673
0 0.98884 0.0148249 131.128
0 0.974369 0.0192058 136.009
0 0.980373 0.0148355 160.652
0 1.00171 0.0197351 117.474
0 0.996734 0.00821512 121.11
0 0.99019 0.0334509 131.242
0 0.988884 0 170.059
0 0.9917 0 177.323
0 0.991806 0.00592171 171.679
0 0.983149 0.005 166.91
0 0.980823 0.00753317 188.216
0 0.980777 0.00988714 158.564
0 0.987683 0.00991531 160.36
0 0.982519 0.01045 202.601
0 0.989205 0.0156104 132.146
0 1.00332 0.00988674 156.792
0 1.01546 0.00963278 144.891
0 1.01462 0.0413256 113.523
0 0.988794 0.019154 146.817
0 0.995473 0.0110061 171.121
0 0.984848 0.0146699 163.709
0 0.979103 0.00993785 176.274
0 0.997205 0.00550358 158.204
0 1.00324 0.0144964 212.855
0 1.00041 0.00863205 140.531
0 0.994831 0.0304539 174.687
0 0.983974 0 175.059
0 0.987628 0.00736164 176.608
0 0.98203 0.00986158 144.477
0 0.98185 0.012325 138.98
0 0.98878 0.00996395 188.028
0 0.994065 0.00996409 194.861
0 0.989096 0.005 169.083
0 0.994378 0.0112892 133.361
0 0.985764 0.00995803 179.065
0 0.998219 0.00995327 153.285
0 1.0127 0.00989341 147.553
0 1.01899 0.042552 125.5
0 0.990892 0.005 156.752
0 0.988749 0.0132159 199.172
0 0.99615 0.00995378 192.857
0 1.00147 0.0108225 184.096
0 1.00184 0.005 153.457
0 0.998177 0.0167568 118.747
0 0.983317 0.0148631 124.076
0 0.986118 0.0099117 158.009
0 0.993229 0.00989999 209.371
0 0.993856 0.0134245 178.688
0 0.991194 0.005 168.003
0 0.985542 0.005 173.408
0 0.995878 0.0162779 125.972
0 1.00193 0.0186485 156.791
0 1.00942 0.005 165.11
0 0.993662 0.00976845 208.728
0 0.999418 0.013501 218.072
0 1.00118 0.0099467 164.079
0 1.00527 0.0187066 92.1156
0 1.00423 0.005 153.197
0 0.98798 0.005 170.2
0 0.994673 0.0127862 228.348
0 0.990107 0.0101474 179.531
0 0.98937 0.019431 153.775
0 0.992426 0.0176354 127.274
0 0.99626 0.005 166.445
0 0.999329 0.0147858 125.336
0 1.00107 0.0194102 148.825
0 1.0024 0 157.731
0 0.999827 0 155.12
0 1.00515 0 154.414
0 0.999106 0.0148491 128.772
0 0.990024 0.0148817 182.153
0 0.991654 0.0108129 122.961
0 0.98754 0.0196788 152.925
0 0.994984 0.0193534 136.728
0 0.98894 0.00996499 156.868
0 0.988629 0.00908968 108.862
0 1.00323 0.005 160.479
0 0.993782 0.00988759 128.18
0 0.991668 0.00917489 217.169
0 0.999115 0.019634 101.706
0 0.994658 0.010472 146.521
0 0.995524 0.0410387 210.021
0 0.992455 0 166.251
0 0.984365 0.005 162.585
0 0.994283 0.0140149 158.124
0 0.987926 0.005 160.047
0 0.992838 0.00924768 147.857
0 0.994842 0.00416872 167.082
0 0.992963 0 162.34
0 0.988046 0.0131974 81.2498
0 0.989064 0.005 161.899
VECTORS fa_u float
0.0089261 0.00383433 -0
0.00474578 0.00296222 -0
0.00243196 0.000742339 -0
0.0260933 0.00335511 -0
1e-08 0 0
0.00506819 0.00407507 -0
-4.16271e-06 -3.78522e-06 0
1e-08 0 0
1e-08 0 0
0.0292624 0.0389432 -0
-0.00192499 -0.00344326 0
3.02953e-05 -6.64612e-07 0
0.0170693 -0.00218947 0
1e-08 0 0
1e-08 0 0
1e-08 0 0
1e-08 0 0
1e-08 0 0
1e-08 0 0
1e-08 0 0
1e-08 0 0
0.00825011 0.0176127 -0
0.00518276 0.0233839 -0
1e-08 0 0
1e-08 0 0
1e-08 0 0
0.0130812 -0.0045091 0
1e-08 0 0
-0.00487004 0.00184097 -0
1e-08 0 0
1e-08 0 0
1e-08 0 0
-0.000512988 -0.00387838 0
1e-08 0 0
1e-08 0 0
1e-08 0 0
1e-08 0 0
1e-08 0 0
1e-08 0 0
1e-08 0 0
1e-08 0 0
1e-08 0 0
1e-08 0 0
-0.00128363 0.0634397 -0
1e-08 0 0
1e-08 0 0
1e-08 0 0
0.0517967 -0.0270493 0
1e-08 0 0
-0.0183083 0.0123142 -0
1e-08 0 0
1e-08 0 0
1e-08 0 0
1e-08 0 0
1e-08 0 0
1e-08 0 0
1e-08 0 0
1e-08 0 0
1e-08 0 0
1e-08 0 0
1e-08 0 0
1e-08 0 0
1e-08 0 0
0.000556087 -0.00262372 -0
1e-08 0 0
1e-08 0 0
1e-08 0 0
1e-08 0 0
1e-08 0 0
0.0596856 -0.0578264 0
1e-08 0 0
0.00328403 -0.00570957 0
1e-08 0 0
1e-08 0 0
1e-08 0 0
1e-08 0 0
1e-08 0 0
1e-08 0 0
1e-08 0 0
1e-08 0 0
1e-08 0 0
1e-08 0 0
1e-08 0 0
1e-08 0 0
1e-08 0 0
-0.000243227 0.00121051 0
1e-08 0 0
1e-08 0 0
1e-08 0 0
1e-08 0 0
1e-08 0 0
1e-08 0 0
-0.00145456 0.00273587 -0
1e-08 0 0
1e-08 0 0
1e-08 0 0
1e-08 0 0
1e-08 0 0
0.000385962 -0.000689945 0
1e-08 0 0
1e-08 0 0
1e-08 0 0
1e-08 0 0
1e-08 0 0
1e-08 0 0
1e-08 0 0
1e-08 0 0
1e-08 0 0
1e-08 0 0
-0.0114619 0.0293919 0
1e-08 0 0
1e-08 0 0
1e-08 0 0
1e-08 0 0
1e-08 0 0
1e-08 0 0
1e-08 0 0
1e-08 0 0
1e-08 0 0
1e-08 0 0
1e-08 0 0
1e-08 0 0
1e-08 0 0
1e-08 0 0
0.00967371 -0.0253587 0
1e-08 0 0
1e-08 0 0
1e-08 0 0
1e-08 0 0
1e-08 0 0
1e-08 0 0
1e-08 0 0
1e-08 0 0
1e-08 0 0
9.38987e-05 -0.000165785 -0
1e-08 0 0
1e-08 0 0
1e-08 0 0
1e-08 0 0
1e-08 0 0
1e-08 0 0
1e-08 0 0
1e-08 0 0
1e-08 0 0
1e-08 0 0
1e-08 0 0
1e-08 0 0
1e-08 0 0
1e-08 0 0
1e-08 0 0
7.23577e-05 -0.000355212 0
1e-08 0 0
1e-08 0 0
1e-08 0 0
1e-08 0 0
1e-08 0 0
1e-08 0 0
1e-08 0 0
1e-08 0 0
1e-08 0 0
1e-08 0 0
-0.0201936 0.0264222 0
1e-08 0 0
1e-08 0 0
1e-08 0 0
1e-08 0 0
1e-08 0 0
1e-08 0 0
1e-08 0 0
1e-08 0 0
1e-08 0 0
1e-08 0 0
1e-08 0 0
1e-08 0 0
0.000312496 -0.044951 0
1e-08 0 0
1e-08 0 0
1e-08 0 0
1e-08 0 0
1e-08 0 0
1e-08 0 0
1e-08 0 0
1e-08 0 0
1e-08 0 0
1e-08 0 0
1e-08 0 0
1e-08 0 0
-8.20012e-06 7.86893e-06 0
1e-08 0 0
1e-08 0 0
1e-08 0 0
1e-08 0 0
1e-08 0 0
1e-08 0 0
1e-08 0 0
1e-08 0 0
1e-08 0 0
1e-08 0 0
1e-08 0 0
1e-08 0 0
1e-08 0 0
-0.00257155 -0.00998489 0
1e-08 0 0
1e-08 0 0
1e-08 0 0
1e-08 0 0
1e-08 0 0
1e-08 0 0
1e-08 0 0
1e-08 0 0
-0.0151401 0.0113353 0
1e-08 0 0
1e-08 0 0
1e-08 0 0
1e-08 0 0
1e-08 0 0
1e-08 0 0
1e-08 0 0
1e-08 0 0
1e-08 0 0
1e-08 0 0
1e-08 0 0
0.00148748 0.00501764 -0
1e-08 0 0
1e-08 0 0
1e-08 0 0
1e-08 0 0
1e-08 0 0
1e-08 0 0
1e-08 0 0
-0.00536499 0.00275936 0
1e-08 0 0
1e-08 0 0
1e-08 0 0
1e-08 0 0
1e-08 0 0
1e-08 0 0
1e-08 0 0
1e-08 0 0
1e-08 0 0
1e-08 0 0
1e-08 0 0
-0.011135 -0.0270507 0
1e-08 0 0
1e-08 0 0
1e-08 0 0
1e-08 0 0
1e-08 0 0
0.0012146 -0.000567871 -0
1e-08 0 0
1e-08 0 0
1e-08 0 0
1e-08 0 0
1e-08 0 0
1e-08 0 0
1e-08 0 0
1e-08 0 0
5.30256e-06 9.59436e-06 -0
1e-08 0 0
1e-08 0 0
1e-08 0 0
1e-08 0 0
-0.029354 0.00977649 0
1e-08 0 0
1e-08 0 0
1e-08 0 0
1e-08 0 0
1e-08 0 0
1e-08 0 0
-0.0143917 -0.0204851 0
1e-08 0 0
1e-08 0 0
1e-08 0 0
-0.00870533 0.000808461 0
1e-08 0 0
1e-08 0 0
1e-08 0 0
1e-08 0 0
1e-08 0 0
1e-08 0 0
-0.0266533 -0.0204063 0
1e-08 0 0
1e-08 0 0
-0.00351677 -0.000108906 0
1e-08 0 0
1e-08 0 0
1e-08 0 0
1e-08 0 0
0.0147989 0.0103931 -0
1e-08 0 0
-0.00582981 -0.000857915 0
1e-08 0 0
1e-08 0 0
-0.0268057 -0.0169637 0
-0.0217349 -0.00755158 0
0.000218503 0.000105645 -0
