# vtk DataFile Version 2.0
CellBP Time: 0.48
ASCII
DATASET UNSTRUCTURED_GRID
POINTS 296 double
-8.95789 -3.86258 0
-8.56303 -4.96149 0
-9.57723 -2.64095 0
-9.69734 -1.37281 0
-8.26137 -2.81737 0
-7.84441 -6.02889 0
-6.98121 -7.0539 0
-7.70692 -3.91724 0
-7.23106 -4.93142 0
-6.04292 -7.94981 0
-4.83254 -8.66472 0
-9.74426 -0.101509 0
-9.83686 1.26368 0
-8.3801 -1.65898 0
-8.66178 -0.620382 0
-7.40103 -2.0135 0
-7.1642 -2.96143 0
-6.58274 -5.78755 0
-5.8317 -6.68241 0
-6.69243 -3.93083 0
-6.06365 -4.6387 0
-3.7925 -9.21961 0
-2.51788 -9.54116 0
-4.85464 -7.31908 0
-3.91338 -7.92249 0
-8.73422 0.646563 0
-9.53453 2.58667 0
-8.49667 1.81563 0
-9.19984 3.85911 0
-7.61489 -0.966439 0
-7.76294 0.0863731 0
-6.8259 -1.3714 0
-1.27312 -9.86967 0
-6.24635 -2.11666 0
-6.05298 -3.022 0
-5.55361 -5.59092 0
-4.83501 -6.21999 0
-5.43342 -3.75457 0
-5.07182 -4.59763 0
-2.79265 -8.2844 0
-1.73246 -8.59696 0
-3.91129 -6.69191 0
-3.0244 -7.02646 0
0.0414064 -10.0051 0
-7.6835 1.14909 0
-8.09651 2.72967 0
-7.25137 1.99239 0
-8.58997 5.02515 0
-7.82717 3.95409 0
-7.8319 6.00073 0
-6.74841 -0.352822 0
-6.92829 0.587554 0
-5.61995 -1.04804 0
-0.5507 -8.91539 0
0.569571 -8.79381 0
-5.05335 -2.41058 0
-4.39081 -4.97962 0
-3.86546 -5.7015 0
-4.26068 -3.71872 0
-2.0961 -7.47451 0
-1.19885 -7.72094 0
-2.89976 -5.97516 0
-2.2422 -6.47712 0
1.31198 -9.8459 0
-6.62968 1.41243 0
-7.1001 3.0634 0
-6.46969 2.36548 0
-7.15888 4.75537 0
-6.58609 3.82507 0
-6.96293 6.97781 0
-6.503 5.79744 0
-6.04352 7.97145 0
-4.18012 -1.0814 0
-5.70209 0.421405 0
-4.50101 -0.0937979 0
-0.00293242 -7.82293 0
1.68179 -8.65552 0
0.921485 -7.70679 0
-3.80901 -2.31346 0
-3.28114 -1.25882 0
-3.3016 -4.73262 0
-3.08059 -3.18416 0
-1.38298 -6.62866 0
-0.56835 -7.00504 0
-1.88593 -5.43107 0
2.64546 -9.63232 0
-5.37958 2.0463 0
-6.03248 3.06697 0
-6.01796 4.77922 0
-5.67404 3.983 0
-5.68457 6.72324 0
-5.36518 5.60519 0
-4.91437 8.71991 0
-4.73052 7.43874 0
-3.28808 -0.277003 0
-4.32128 1.14018 0
-3.62123 0.579626 0
-3.97257 2.27584 0
-3.75899 9.38593 0
2.79656 -8.39638 0
0.456616 -6.73878 0
2.00464 -7.50427 0
1.37267 -6.87723 0
-2.22604 -0.771409 0
-2.615 -2.02541 0
-2.24559 -4.08123 0
-2.28444 -3.02532 0
-0.383799 -5.84301 0
-1.11688 -4.44492 0
3.89718 -9.25834 0
-4.66078 3.43876 0
-4.98564 4.59939 0
-4.50477 6.26026 0
-4.39298 5.3435 0
-3.76993 8.04379 0
-3.69717 6.80374 0
-2.72748 8.48169 0
-1.5444 -0.165287 0
-1.32081 -0.879122 0
-2.27909 0.619523 0
-3.1132 1.48627 0
-3.05115 3.30523 0
-2.78269 2.28554 0
-1.17638 0.615302 0
-2.46591 9.71257 0
3.88166 -7.89369 0
2.95433 -7.12525 0
0.987501 -5.83616 0
2.14382 -6.47749 0
-1.47415 -1.86779 0
-1.28225 -3.19369 0
0.0614719 -4.80177 0
-0.41901 -3.6696 0
4.84342 -7.33728 0
5.00971 -8.55627 0
-3.61662 4.55437 0
-3.58692 5.77193 0
-2.78127 7.25504 0
-2.88875 6.37195 0
-1.57815 8.65745 0
-1.89764 7.63012 0
-2.16178 4.03088 0
-0.561051 -1.22561 0
-0.778174 -0.1747 0
-1.85255 1.54941 0
-2.06557 2.67587 0
-1.22219 3.50028 0
-0.780999 1.34257 0
-0.177536 0.458234 0
-0.482696 8.80413 0
-1.23369 9.95678 0
1.10573 -4.6629 0
3.89892 -6.67858 0
3.06059 -6.04973 0
2.10747 -5.4661 0
4.8245 -6.18924 0
-0.404257 -2.42757 0
0.615365 -3.51814 0
0.183126 -1.66481 0
1.58721 -3.77549 0
5.89739 -6.5878 0
6.21062 -7.88775 0
-2.34607 5.32113 0
-1.99258 6.5003 0
-0.786962 7.78409 0
-1.15549 6.91336 0
0.145942 7.83168 0
-0.96237 4.5182 0
0.262415 -0.786871 0
-0.779958 2.40595 0
-0.294817 3.43821 0
0.116612 1.51518 0
0.806183 0.460745 0
0.722793 8.93076 0
0.14895 10.0648 0
2.42008 -4.25527 0
3.91354 -5.5982 0
3.07117 -5.21573 0
5.63863 -5.52374 0
4.70557 -5.30069 0
0.663488 -2.35996 0
1.28943 -3.00895 0
0.861086 -1.55997 0
2.23432 -3.15653 0
3.01273 -3.54136 0
6.11832 -4.77691 0
6.76398 -5.78243 0
7.09845 -7.11477 0
-0.826704 5.81405 0
-0.277582 6.85155 0
1.10197 7.71322 0
0.575579 6.9645 0
0.103742 4.63224 0
0.65952 3.69222 0
1.38063 -0.850568 0
0.536088 2.461 0
0.956705 1.47666 0
1.87583 0.249222 0
1.59986 1.06769 0
2.10251 7.52269 0
1.84531 8.74894 0
1.44577 10.007 0
3.83176 -4.27306 0
5.16031 -4.41933 0
5.88362 -3.97104 0
3.76187 -3.12198 0
1.87912 -2.03265 0
3.062 -2.59584 0
6.8067 -3.99288 0
7.36315 -4.91992 0
7.94028 -6.00407 0
0.497298 5.76251 0
1.39517 6.6429 0
2.27548 6.549 0
1.17804 4.47448 0
1.47809 3.25068 0
2.39523 -0.714515 0
2.77638 0.104672 0
1.80171 2.06905 0
2.57249 1.1572 0
3.03644 7.12406 0
2.93426 8.46332 0
2.64916 9.71032 0
4.91312 -3.2086 0
6.12414 -3.08624 0
4.17739 -2.18233 0
3.16636 -1.51038 0
6.66428 -2.24139 0
7.22676 -2.97017 0
7.8883 -3.93347 0
8.83337 -4.96323 0
2.04969 5.48909 0
2.9704 6.05952 0
2.30225 4.0882 0
2.39768 3.07195 0
3.4493 -0.634101 0
3.5466 0.508099 0
2.92271 2.22315 0
3.48765 1.44166 0
3.91912 5.8612 0
3.91364 6.69119 0
3.99107 7.88418 0
3.89788 9.29003 0
5.53308 -1.85567 0
4.39314 -1.21344 0
6.74498 -1.25214 0
7.60924 -1.99017 0
8.3341 -2.81741 0
9.27459 -3.77499 0
3.41605 4.73774 0
3.30054 3.38834 0
4.60046 0.119737 0
4.43452 1.25931 0
3.96638 2.38173 0
4.56917 5.13025 0
4.81796 6.17518 0
4.93052 7.44038 0
5.11238 8.74177 0
5.71958 -0.382971 0
6.86347 -0.428625 0
7.71949 -1.05454 0
8.69816 -1.76503 0
9.69924 -2.51867 0
4.54907 3.90358 0
5.75637 1.22251 0
5.21587 2.53302 0
5.40325 4.60881 0
5.55252 5.55846 0
5.89324 6.73161 0
6.19595 7.94376 0
6.88919 0.425358 0
7.90895 -0.0301089 0
8.86757 -0.608019 0
10.0053 -1.30841 0
6.95028 1.31492 0
5.62421 3.74743 0
6.62353 2.18524 0
6.25747 3.10931 0
6.21715 4.71534 0
6.59206 5.88012 0
7.09278 7.09385 0
7.76194 0.952293 0
8.90379 0.506589 0
10.1944 0.0182466 0
7.56361 1.98019 0
6.66411 3.80526 0
7.16506 2.87805 0
7.26271 4.94495 0
7.93558 6.10445 0
8.66025 1.63543 0
9.85248 1.40017 0
8.34432 2.8997 0
7.84308 3.9661 0
8.67426 5.00903 0
9.63532 2.68818 0
9.31296 3.80342 0
CELLS 542 2168
3 2 0 4
3 0 1 7
3 4 0 7
3 1 5 8
3 7 1 8
3 3 2 13
3 13 2 4
3 11 3 14
3 14 3 13
3 13 4 15
3 4 7 16
3 15 4 16
3 5 6 17
3 8 5 17
3 6 9 18
3 17 6 18
3 7 8 19
3 16 7 19
3 8 17 20
3 19 8 20
3 9 10 23
3 18 9 23
3 10 21 24
3 23 10 24
3 12 11 25
3 25 11 14
3 26 12 27
3 27 12 25
3 14 13 29
3 29 13 15
3 25 14 30
3 30 14 29
3 29 15 31
3 15 16 33
3 31 15 33
3 16 19 34
3 33 16 34
3 17 18 35
3 20 17 35
3 18 23 36
3 35 18 36
3 19 20 37
3 34 19 37
3 20 35 38
3 37 20 38
3 21 22 39
3 24 21 39
3 22 32 40
3 39 22 40
3 23 24 41
3 36 23 41
3 24 39 42
3 41 24 42
3 27 25 44
3 44 25 30
3 28 26 45
3 45 26 27
3 45 27 46
3 46 27 44
3 47 28 48
3 48 28 45
3 30 29 50
3 50 29 31
3 44 30 51
3 51 30 50
3 50 31 52
3 31 33 52
3 32 43 53
3 40 32 53
3 53 43 54
3 33 34 55
3 34 37 55
3 33 55 52
3 35 36 56
3 38 35 56
3 36 41 57
3 56 36 57
3 37 38 58
3 38 56 58
3 37 58 55
3 39 40 59
3 42 39 59
3 40 53 60
3 59 40 60
3 41 42 61
3 57 41 61
3 42 59 62
3 61 42 62
3 43 63 54
3 46 44 64
3 64 44 51
3 48 45 65
3 65 45 46
3 65 46 66
3 66 46 64
3 49 47 67
3 67 47 48
3 67 48 68
3 68 48 65
3 69 49 70
3 70 49 67
3 52 55 72
3 64 51 73
3 51 50 73
3 50 52 73
3 73 52 74
3 74 52 72
3 53 54 75
3 60 53 75
3 54 63 76
3 54 76 77
3 75 54 77
3 55 58 78
3 72 55 78
3 72 78 79
3 56 57 80
3 57 61 80
3 56 80 58
3 58 80 81
3 78 58 81
3 59 60 82
3 62 59 82
3 60 75 83
3 82 60 83
3 61 62 84
3 62 82 84
3 61 84 80
3 63 85 76
3 66 64 86
3 64 73 86
3 68 65 87
3 87 65 66
3 87 66 86
3 70 67 88
3 88 67 68
3 88 68 89
3 89 68 87
3 71 69 90
3 90 69 70
3 90 70 91
3 91 70 88
3 92 71 93
3 93 71 90
3 74 72 94
3 94 72 79
3 86 73 95
3 95 73 74
3 95 74 96
3 96 74 94
3 97 86 95
3 76 85 99
3 75 77 100
3 83 75 100
3 76 99 101
3 77 76 101
3 77 101 102
3 100 77 102
3 94 79 103
3 78 81 104
3 79 78 104
3 79 104 103
3 80 84 105
3 81 80 105
3 81 105 106
3 104 81 106
3 82 83 107
3 83 100 107
3 82 107 84
3 84 107 108
3 105 84 108
3 85 109 99
3 89 87 110
3 87 86 110
3 110 86 97
3 91 88 111
3 111 88 89
3 111 89 110
3 93 90 112
3 112 90 91
3 112 91 113
3 113 91 111
3 98 92 114
3 114 92 93
3 114 93 115
3 115 93 112
3 116 98 114
3 117 103 118
3 96 94 119
3 94 103 119
3 119 103 117
3 97 95 120
3 120 95 96
3 120 96 119
3 121 110 97
3 121 97 122
3 122 97 120
3 123 119 117
3 124 98 116
3 99 109 125
3 99 125 126
3 101 99 126
3 100 102 127
3 100 127 107
3 101 126 128
3 102 101 128
3 102 128 127
3 104 106 129
3 104 129 103
3 103 129 118
3 105 108 130
3 106 105 130
3 106 130 129
3 107 127 131
3 108 107 131
3 108 131 132
3 108 132 130
3 109 134 125
3 125 134 133
3 113 111 135
3 111 110 135
3 135 110 121
3 115 112 136
3 136 112 113
3 136 113 135
3 116 114 137
3 137 114 115
3 137 115 138
3 138 115 136
3 139 124 116
3 139 116 140
3 140 116 137
3 141 135 121
3 118 129 142
3 118 142 143
3 117 118 143
3 123 117 143
3 122 120 144
3 120 119 144
3 144 119 123
3 141 121 145
3 145 121 122
3 145 122 144
3 146 141 145
3 147 144 123
3 147 123 148
3 143 148 123
3 150 124 139
3 149 150 139
3 131 127 151
3 125 133 152
3 126 125 152
3 126 152 153
3 128 126 153
3 128 153 154
3 128 154 127
3 127 154 151
3 152 133 155
3 130 132 156
3 130 156 129
3 129 156 142
3 131 151 157
3 132 131 157
3 132 157 156
3 156 158 142
3 157 151 159
3 133 160 155
3 134 161 133
3 133 161 160
3 138 136 162
3 136 135 162
3 162 135 141
3 140 137 163
3 163 137 138
3 163 138 162
3 149 139 164
3 164 139 140
3 164 140 165
3 165 140 163
3 166 149 164
3 167 162 141
3 167 141 146
3 142 158 168
3 143 142 168
3 143 168 148
3 146 145 169
3 145 144 169
3 169 144 147
3 170 167 146
3 170 146 169
3 171 169 147
3 171 147 148
3 171 148 172
3 168 172 148
3 173 149 166
3 174 150 149
3 173 174 149
3 154 175 151
3 151 175 159
3 152 155 176
3 153 152 176
3 153 176 177
3 153 177 154
3 154 177 175
3 155 160 178
3 155 178 179
3 176 155 179
3 156 157 180
3 156 180 158
3 157 159 181
3 157 181 180
3 158 180 182
3 158 182 168
3 159 175 183
3 159 183 181
3 175 184 183
3 160 186 178
3 178 186 185
3 161 187 160
3 160 187 186
3 165 163 188
3 163 162 188
3 188 162 167
3 166 164 189
3 189 164 165
3 189 165 188
3 190 173 166
3 190 166 191
3 191 166 189
3 192 188 167
3 192 167 170
3 193 192 170
3 182 194 168
3 194 172 168
3 193 170 195
3 170 169 195
3 195 169 171
3 196 195 171
3 196 171 172
3 194 197 172
3 197 198 172
3 198 196 172
3 200 173 190
3 199 200 190
3 201 174 173
3 200 201 173
3 176 179 202
3 177 176 202
3 177 202 175
3 175 202 184
3 178 185 203
3 178 203 179
3 179 203 202
3 203 185 204
3 202 205 184
3 183 206 181
3 180 181 206
3 180 206 182
3 182 206 194
3 183 184 207
3 205 207 184
3 183 207 206
3 185 208 204
3 186 209 185
3 185 209 208
3 187 210 186
3 186 210 209
3 191 189 211
3 189 188 211
3 211 188 192
3 199 190 212
3 212 190 191
3 212 191 211
3 213 199 212
3 214 211 192
3 214 192 193
3 215 214 193
3 215 193 195
3 206 216 194
3 216 197 194
3 216 217 197
3 215 195 218
3 218 195 196
3 198 218 196
3 217 219 197
3 219 218 198
3 197 219 198
3 220 199 213
3 221 200 199
3 220 221 199
3 222 201 200
3 221 222 200
3 203 204 223
3 203 223 202
3 202 223 205
3 204 208 224
3 204 224 223
3 205 223 225
3 205 225 207
3 207 225 226
3 207 226 206
3 226 216 206
3 208 228 224
3 224 228 227
3 209 229 208
3 229 228 208
3 210 230 209
3 209 230 229
3 213 212 231
3 212 211 231
3 231 211 214
3 232 220 213
3 232 213 231
3 233 231 214
3 233 214 215
3 234 233 215
3 234 215 218
3 226 235 216
3 235 217 216
3 235 236 217
3 217 236 219
3 237 234 218
3 237 218 219
3 236 238 219
3 238 237 219
3 240 220 232
3 239 240 232
3 241 221 220
3 240 241 220
3 242 222 221
3 241 242 221
3 224 227 243
3 224 243 223
3 223 243 225
3 225 243 244
3 225 244 226
3 226 244 235
3 227 245 243
3 228 246 227
3 227 246 245
3 229 247 228
3 228 247 246
3 230 248 229
3 229 248 247
3 239 232 249
3 232 231 249
3 249 231 233
3 250 249 233
3 250 233 234
3 237 250 234
3 244 251 235
3 235 251 236
3 251 252 236
3 236 252 238
3 252 253 238
3 253 250 237
3 253 237 238
3 254 239 249
3 255 240 239
3 254 255 239
3 256 241 240
3 255 256 240
3 257 242 241
3 256 257 241
3 245 258 243
3 243 258 244
3 244 258 251
3 245 259 258
3 246 260 245
3 245 260 259
3 247 261 246
3 246 261 260
3 248 262 247
3 247 262 261
3 254 249 263
3 263 249 250
3 253 263 250
3 258 264 251
3 251 264 252
3 264 265 252
3 265 263 253
3 252 265 253
3 266 254 263
3 267 255 254
3 266 267 254
3 268 256 255
3 267 268 255
3 269 257 256
3 268 269 256
3 259 270 258
3 270 264 258
3 260 271 259
3 259 271 270
3 261 272 260
3 260 272 271
3 262 273 261
3 273 272 261
3 270 274 264
3 275 266 263
3 275 263 265
3 274 276 264
3 276 265 264
3 276 277 265
3 277 275 265
3 278 267 266
3 275 278 266
3 279 268 267
3 278 279 267
3 280 269 268
3 279 280 268
3 271 281 270
3 270 281 274
3 272 282 271
3 271 282 281
3 273 283 272
3 272 283 282
3 281 284 274
3 274 284 276
3 285 278 275
3 277 285 275
3 284 286 276
3 286 285 277
3 276 286 277
3 287 279 278
3 285 287 278
3 288 280 279
3 287 288 279
3 282 289 281
3 281 289 284
3 283 290 282
3 282 290 289
3 289 291 284
3 284 291 286
3 291 292 286
3 292 287 285
3 286 292 285
3 293 288 287
3 292 293 287
3 290 294 289
3 289 294 291
3 294 295 291
3 295 293 292
3 291 295 292
CELL_TYPES 542
5
5
5
5
5
5
5
5
5
5
5
5
5
5
5
5
5
5
5
5
5
5
5
5
5
5
5
5
5
5
5
5
5
5
5
5
5
5
5
5
5
5
5
5
5
5
5
5
5
5
5
5
5
5
5
5
5
5
5
5
5
5
5
5
5
5
5
5
5
5
5
5
5
5
5
5
5
5
5
5
5
5
5
5
5
5
5
5
5
5
5
5
5
5
5
5
5
5
5
5
5
5
5
5
5
5
5
5
5
5
5
5
5
5
5
5
5
5
5
5
5
5
5
5
5
5
5
5
5
5
5
5
5
5
5
5
5
5
5
5
5
5
5
5
5
5
5
5
5
5
5
5
5
5
5
5
5
5
5
5
5
5
5
5
5
5
5
5
5
5
5
5
5
5
5
5
5
5
5
5
5
5
5
5
5
5
5
5
5
5
5
5
5
5
5
5
5
5
5
5
5
5
5
5
5
5
5
5
5
5
5
5
5
5
5
5
5
5
5
5
5
5
5
5
5
5
5
5
5
5
5
5
5
5
5
5
5
5
5
5
5
5
5
5
5
5
5
5
5
5
5
5
5
5
5
5
5
5
5
5
5
5
5
5
5
5
5
5
5
5
5
5
5
5
5
5
5
5
5
5
5
5
5
5
5
5
5
5
5
5
5
5
5
5
5
5
5
5
5
5
5
5
5
5
5
5
5
5
5
5
5
5
5
5
5
5
5
5
5
5
5
5
5
5
5
5
5
5
5
5
5
5
5
5
5
5
5
5
5
5
5
5
5
5
5
5
5
5
5
5
5
5
5
5
5
5
5
5
5
5
5
5
5
5
5
5
5
5
5
5
5
5
5
5
5
5
5
5
5
5
5
5
5
5
5
5
5
5
5
5
5
5
5
5
5
5
5
5
5
5
5
5
5
5
5
5
5
5
5
5
5
5
5
5
5
5
5
5
5
5
5
5
5
5
5
5
5
5
5
5
5
5
5
5
5
5
5
5
5
5
5
5
5
5
5
5
5
5
5
5
5
5
5
5
5
5
5
5
5
5
5
5
5
5
5
5
5
5
5
5
5
5
5
5
5
5
5
5
5
5
5
5
5
5
5
5
5
5
5
5
5
5
5
5
5
5
5
5
5
5
5
5
5
5
5
5
5
5
5
5
5
5
5
5
5
5
5
5
5
5
5
5
5
5
5
5
5
5
5
5
5
5
5
5
5
5
5
5
5
5
5
5
POINT_DATA 296
SCALARS concentrations float 4
LOOKUP_TABLE default
0 0.993321 0.034621 866.22
0 0.983618 0.0290957 819.574
0 0.997875 0 965.474
0 0.990867 0 1027.86
0 0.993773 0 880.328
0 0.982857 0.005 731.402
0 0.988772 0.005 648.795
0 0.984812 0 799.62
0 0.982003 0 737.799
0 0.991501 0.0318299 572.655
0 0.989983 0.0426362 481.156
0 0.997651 0.00846231 1125.09
0 1.00218 0 1197.04
0 0.992813 0.0496118 1025.27
0 0.990076 0 1001.55
0 0.987105 0.0427971 874.056
0 0.984033 0.050064 771.264
0 0.986206 0.0529428 602.817
0 0.989374 0.0402325 569.138
0 0.981362 0.0428289 648.382
0 0.9833 0.0357252 626.229
0 0.991218 0.0384666 411.795
0 0.991746 0.0416731 354.963
0 0.989328 0.0435364 492.549
0 0.989662 0.0426415 427.784
0 0.997267 0 1062.95
0 0.997304 0.005 1319.4
0 0.993889 0 1133.21
0 1.01407 0.005 1451.86
0 0.991004 0.0441338 1044.46
0 0.990359 0 983.941
0 0.987229 0.053008 903.352
0 0.992718 0.0372118 325.811
0 0.984403 0.0465836 840.06
0 0.983412 0.0439127 731.082
0 0.987212 0.0401167 561.99
0 0.987278 0.0432533 508.352
0 0.982961 0.0436688 660.739
0 0.984263 0.0436381 551.265
0 0.990251 0.0385579 378.743
0 0.991719 0.0441245 373.257
0 0.987453 0.0384107 426.957
0 0.987883 0.0416481 401.737
0 0.998461 0.0540135 366.683
0 0.990672 0 1028.78
0 1.00366 0 1201.6
0 0.992681 0 1045.44
0 1.0135 0 1580.33
0 1.01298 0.005 1362.57
0 1.00934 0.005 1669.24
0 0.988686 0.00738783 967.761
0 0.988869 0.00667858 1000.26
0 0.987042 0.034951 916.03
0 0.991157 0.0449057 295.882
0 0.998614 0.0352707 403.791
0 0.98566 0.005 826.643
0 0.98441 0.0382017 515.514
0 0.985544 0.0461819 487.47
0 0.984659 0.00813852 680.56
0 0.989591 0.0424327 405.547
0 0.996268 0.0334625 368.007
0 0.987628 0.0410494 483.621
0 0.985522 0.0110718 406.568
0 1.00022 0.005 248.295
0 0.991314 0 1003.54
0 0.99995 0.005 1169.79
0 0.994089 0 1031.55
0 1.01324 0.005 1394.68
0 1.00316 0.0332685 1295.52
0 1.00818 0.005 1644.18
0 1.00982 0.005 1414.4
0 1.01132 0 1572.21
0 0.988386 0.005 879.767
0 0.988855 0.0397083 1036.59
0 0.989782 0.005 920.569
0 0.995361 0 327.966
0 0.993944 0.0369551 126.207
0 0.997812 0.0494475 191.358
0 0.985825 0.005 803.228
0 0.987763 0.005 860.213
0 0.983926 0.0324362 591.693
0 0.986359 0.005 712.756
0 0.993777 0.005 400.518
0 1.00078 0.0526086 380.193
0 0.988058 0 470.998
0 0.98884 0.0404685 180.789
0 0.994418 0 993.846
0 0.994546 0 1035.59
0 1.0043 0 1201.02
0 0.991592 0 1047.33
0 1.01167 0.005 1392.04
0 1.00894 0.005 1194.22
0 1.00505 0.005 1407.2
0 1.00905 0.005 1310.19
0 0.992125 0 882.903
0 0.991405 0.0411127 1038.83
0 0.993722 0.0382136 998.101
0 0.988773 0 960.216
0 1.0038 0 1281.04
0 0.990433 0 210.475
0 0.99489 0 324.29
0 0.992528 0.051888 153.636
0 0.993147 0.0560068 207.666
0 0.990073 0 799.387
0 0.98817 0 759.546
0 0.982267 0 590.745
0 0.994585 0 664.197
0 0.99251 0.0647522 416.399
0 0.981217 0.005 469.351
0 0.992195 0.041667 108.39
0 0.994016 0 1006.69
0 0.994468 0 1043.48
0 1.0106 0 1130.66
0 0.999868 0 1045.88
0 1.00346 0 1175.77
0 1.00599 0 1064.34
0 1.00839 0 1077.95
0 0.990094 0 773.031
0 0.99714 0 713.599
0 0.992541 0.0406272 896.506
0 0.993054 0 918.569
0 0.99205 0 959.899
0 0.988736 0 927.946
0 0.986458 0.0552782 819.225
0 1.00547 0 1143.67
0 0.991989 0 186.137
0 0.995973 0 221.027
0 0.987811 0.0473341 449.745
0 0.996121 0.0597681 324.374
0 0.990759 0.005 671.26
0 0.99109 0 566.289
0 0.97684 0.005 394.113
0 0.982635 0 460.188
0 0.994913 0 174.155
0 0.9941 0 166.677
0 0.993628 0 1005.71
0 0.998814 0 1035.31
0 1.00208 0 1037.42
0 0.996754 0 1027.56
0 0.999362 0 1012.89
0 1.00196 0 1003.94
0 1.00081 0.005 954.146
0 0.987521 0 627.369
0 0.993947 0 705.031
0 0.982739 0.005 885.833
0 0.988667 0.005 918.058
0 0.997404 0.005 902.605
0 0.978569 0 789.718
0 0.978001 0 685.959
0 0.980598 0 965.436
0 0.984257 0.00963519 1088.05
0 0.973643 0.005 358.3
0 0.998412 0 197.652
0 0.999191 0 245.408
0 0.991853 0.005 297.281
0 0.993446 0 190.536
0 0.98663 0.005 541.26
0 0.994639 0 410.294
0 0.958142 0 537.358
0 0.98088 0 365.98
0 0.99131 0.0637838 181.682
0 0.995976 0.0602059 90.8843
0 0.988533 0 984.947
0 0.98247 0 986.388
0 0.99116 0 955.197
0 0.980583 0.005 953.229
0 0.984793 0 912.538
0 0.987454 0 905.753
0 0.998328 0.005 579.314
0 0.978528 0.005 844.238
0 0.989267 0.005 854.288
0 0.970722 0 710.395
0 0.983586 0.005 589.702
0 0.9829 0 912.716
0 0.978571 0 969.132
0 0.971541 0.005 320.84
0 0.992589 0.0594297 256.398
0 0.988502 0.005 269.029
0 0.989539 0 193.541
0 0.992487 0 208.228
0 0.965799 0.005 453.358
0 0.997721 0.005 399.541
0 0.969008 0 482.413
0 0.982532 0.005 359.308
0 0.984608 0 318.935
0 0.993346 0 201.603
0 0.99335 0.0290136 107.061
0 0.994325 0.0385338 66.7278
0 0.96893 0 919.405
0 0.975378 0.005 910.397
0 0.991927 0.005 864.964
0 0.984966 0.005 872.573
0 0.979217 0 856.111
0 0.97969 0.005 775.412
0 0.996924 0 467.357
0 0.975315 0.00913637 748.778
0 0.968539 0 626.255
0 0.989592 0.005 474.6
0 0.97603 0.005 542.835
0 0.993969 0.005 808.799
0 0.987249 0.0240993 866.296
0 0.977402 0 900.126
0 0.987745 0.005 267.925
0 0.995543 0 218.301
0 0.99407 0 218.456
0 0.996836 0.005 303.136
0 0.980619 0 404.636
0 0.99718 0.005 344.072
0 0.992669 0 208.092
0 0.994722 0 185.654
0 0.995039 0.0415398 99.7846
0 0.974975 0.005 854.774
0 0.985325 0.005 826.851
0 0.988044 0.005 780.182
0 0.977967 0.005 768.465
0 0.970729 0 671.199
0 0.982858 0.005 411.915
0 0.981328 0 414.36
0 0.971007 0 574.901
0 0.989081 0.005 452.851
0 0.995137 0.005 748.422
0 0.992054 0.0384489 818.487
0 0.982383 0.0350305 898.442
0 0.994314 0 259.423
0 0.992845 0 231.615
0 0.980196 0.005 314.634
0 0.983918 0.005 367.232
0 0.987839 0 240.841
0 0.993722 0 221.748
0 0.997814 0 197.469
0 0.995484 0 169.084
0 0.981338 0.005 740.225
0 0.985147 0.005 725.86
0 0.976926 0.005 637.36
0 0.968606 0 571.939
0 0.975226 0.005 374.653
0 0.991332 0.005 394.313
0 0.974771 0.005 480.583
0 0.99258 0.005 420.556
0 0.987474 0 663.323
0 0.989977 0 684.416
0 0.992804 0.0376951 733.187
0 0.991993 0.005 747.319
0 0.988425 0 275.731
0 0.983947 0 328.838
0 0.993993 0 257.901
0 0.990392 0 228.769
0 0.994229 0 206.711
0 0.996983 0 179.695
0 0.983702 0 628.64
0 0.977312 0.005 542.469
0 0.992875 0.005 350.904
0 0.989563 0.005 392.25
0 0.984895 0.005 448.772
0 0.986044 0 605.787
0 0.98636 0 616.674
0 0.98607 0.0318454 641.955
0 0.990293 0.0520128 596.823
0 0.995094 0.0326272 297.762
0 0.993111 0 280.609
0 0.995518 0.0130427 146.443
0 0.993642 0.0285692 171.6
0 0.994041 0.0275715 209.551
0 0.982958 0 526.74
0 0.989458 0.0504639 407.776
0 0.988109 0.0382241 445.279
0 0.983926 0.0335081 519.612
0 0.985545 0 556.686
0 0.985768 0.0383972 526.795
0 0.985834 0.037425 556.567
0 0.990245 0.0256254 187.553
0 0.993424 0.0379096 176.838
0 1.00197 0.0295024 187.691
0 1.00096 0.0195342 223.986
0 0.993626 0.0357539 234.44
0 0.984021 0 472.967
0 0.991198 0.0382143 323.601
0 0.991475 0.0469386 450.707
0 0.985288 0 495.379
0 0.987678 0.0411694 447.521
0 0.987897 0.0509535 509.096
0 0.995366 0.0388422 236.997
0 1.00226 0.0400908 241.834
0 1.01099 0.005 224.117
0 0.996494 0.0409877 287.017
0 0.994043 0 435.093
0 0.997902 0.0271433 344.566
0 0.991948 0.0475853 478.102
0 0.991694 0.0429044 423.645
0 0.99815 0.0451142 248.097
0 1.00081 0.0148661 318.999
0 0.998353 0.0314123 332.203
0 0.998814 0.0155466 380.069
0 0.994583 0.0146693 463.094
0 0.998655 0.0147404 369.292
0 0.997164 0.0138006 428.703
VECTORS fa_u float
-0.00555812 -0.0024292 0
0.0219297 0.0112718 -0
0.0494635 0.0146903 -0
0.00129681 8.52942e-05 -0
1e-08 0 0
0.0034929 0.00264057 -0
0.00325268 0.00305045 -0
1e-08 0 0
1e-08 0 0
0.0114895 0.0153259 -0
0.000358019 0.000634504 -0
-0.000359604 -1.90296e-05 0
0.0307188 -0.00239657 -0
1e-08 0 0
1e-08 0 0
1e-08 0 0
1e-08 0 0
1e-08 0 0
1e-08 0 0
1e-08 0 0
1e-08 0 0
0.00828375 0.0218773 -0
-1.14649e-05 -4.44333e-05 0
1e-08 0 0
1e-08 0 0
1e-08 0 0
0.000384798 -9.44435e-05 0
1e-08 0 0
0.0177027 -0.00685725 0
1e-08 0 0
1e-08 0 0
1e-08 0 0
0.00164273 0.00906249 -0
1e-08 0 0
1e-08 0 0
1e-08 0 0
1e-08 0 0
1e-08 0 0
1e-08 0 0
1e-08 0 0
1e-08 0 0
1e-08 0 0
1e-08 0 0
-0.000180623 0.0196364 -0
1e-08 0 0
1e-08 0 0
1e-08 0 0
0.0104765 -0.00669176 0
1e-08 0 0
0.00132737 -0.00110602 0
1e-08 0 0
1e-08 0 0
1e-08 0 0
1e-08 0 0
1e-08 0 0
1e-08 0 0
1e-08 0 0
1e-08 0 0
1e-08 0 0
1e-08 0 0
1e-08 0 0
1e-08 0 0
1e-08 0 0
-6.29236e-05 0.000439593 0
1e-08 0 0
1e-08 0 0
1e-08 0 0
1e-08 0 0
1e-08 0 0
0.000108135 -9.81301e-05 0
1e-08 0 0
0.013481 -0.0158526 0
1e-08 0 0
1e-08 0 0
1e-08 0 0
1e-08 0 0
1e-08 0 0
1e-08 0 0
1e-08 0 0
1e-08 0 0
1e-08 0 0
1e-08 0 0
1e-08 0 0
1e-08 0 0
1e-08 0 0
-0.00143764 0.00632556 0
1e-08 0 0
1e-08 0 0
1e-08 0 0
1e-08 0 0
1e-08 0 0
1e-08 0 0
0.000762446 -0.00123142 0
1e-08 0 0
1e-08 0 0
1e-08 0 0
1e-08 0 0
1e-08 0 0
0.0105237 -0.0259571 0
1e-08 0 0
1e-08 0 0
1e-08 0 0
1e-08 0 0
1e-08 0 0
1e-08 0 0
1e-08 0 0
1e-08 0 0
1e-08 0 0
1e-08 0 0
-0.0115611 0.0254014 0
1e-08 0 0
1e-08 0 0
1e-08 0 0
1e-08 0 0
1e-08 0 0
1e-08 0 0
1e-08 0 0
1e-08 0 0
1e-08 0 0
1e-08 0 0
1e-08 0 0
1e-08 0 0
1e-08 0 0
1e-08 0 0
0.00022812 -0.00100915 0
1e-08 0 0
1e-08 0 0
1e-08 0 0
1e-08 0 0
1e-08 0 0
1e-08 0 0
1e-08 0 0
1e-08 0 0
1e-08 0 0
0.000572557 -0.000966422 -0
1e-08 0 0
1e-08 0 0
1e-08 0 0
1e-08 0 0
1e-08 0 0
1e-08 0 0
1e-08 0 0
1e-08 0 0
1e-08 0 0
1e-08 0 0
1e-08 0 0
1e-08 0 0
1e-08 0 0
1e-08 0 0
1e-08 0 0
0.000697666 -0.00517972 0
1e-08 0 0
1e-08 0 0
1e-08 0 0
1e-08 0 0
1e-08 0 0
1e-08 0 0
1e-08 0 0
1e-08 0 0
1e-08 0 0
1e-08 0 0
-0.00958091 0.0138827 0
1e-08 0 0
1e-08 0 0
1e-08 0 0
1e-08 0 0
1e-08 0 0
1e-08 0 0
1e-08 0 0
1e-08 0 0
1e-08 0 0
1e-08 0 0
1e-08 0 0
1e-08 0 0
0.00010434 -0.00556878 0
1e-08 0 0
1e-08 0 0
1e-08 0 0
1e-08 0 0
1e-08 0 0
1e-08 0 0
1e-08 0 0
1e-08 0 0
1e-08 0 0
1e-08 0 0
1e-08 0 0
1e-08 0 0
-0.0120378 0.0110535 0
1e-08 0 0
1e-08 0 0
1e-08 0 0
1e-08 0 0
1e-08 0 0
1e-08 0 0
1e-08 0 0
1e-08 0 0
1e-08 0 0
1e-08 0 0
1e-08 0 0
1e-08 0 0
1e-08 0 0
-0.00213311 -0.0150465 0
1e-08 0 0
1e-08 0 0
1e-08 0 0
1e-08 0 0
1e-08 0 0
1e-08 0 0
1e-08 0 0
1e-08 0 0
0.00103269 -0.000832724 -0
1e-08 0 0
1e-08 0 0
1e-08 0 0
1e-08 0 0
1e-08 0 0
1e-08 0 0
1e-08 0 0
1e-08 0 0
1e-08 0 0
1e-08 0 0
1e-08 0 0
-0.000754329 -0.00257994 0
1e-08 0 0
1e-08 0 0
1e-08 0 0
1e-08 0 0
1e-08 0 0
1e-08 0 0
1e-08 0 0
-0.0396052 0.0237075 0
1e-08 0 0
1e-08 0 0
1e-08 0 0
1e-08 0 0
1e-08 0 0
1e-08 0 0
1e-08 0 0
1e-08 0 0
1e-08 0 0
1e-08 0 0
1e-08 0 0
-0.00136085 -0.00346092 0
1e-08 0 0
1e-08 0 0
1e-08 0 0
1e-08 0 0
1e-08 0 0
-0.000318202 0.000112708 0
1e-08 0 0
1e-08 0 0
1e-08 0 0
1e-08 0 0
1e-08 0 0
1e-08 0 0
1e-08 0 0
1e-08 0 0
-0.00830444 -0.0141756 0
1e-08 0 0
1e-08 0 0
1e-08 0 0
1e-08 0 0
-0.0022788 0.000675058 0
1e-08 0 0
1e-08 0 0
1e-08 0 0
1e-08 0 0
1e-08 0 0
1e-08 0 0
-0.00378356 -0.00454693 0
1e-08 0 0
1e-08 0 0
1e-08 0 0
-0.00425548 0.000830632 0
1e-08 0 0
1e-08 0 0
1e-08 0 0
1e-08 0 0
1e-08 0 0
1e-08 0 0
-0.0032547 -0.00307831 0
1e-08 0 0
1e-08 0 0
-0.0517019 -0.00291674 0
1e-08 0 0
1e-08 0 0
1e-08 0 0
1e-08 0 0
-0.00382081 -0.00289834 0
1e-08 0 0
0.00204358 0.000427943 -0
1e-08 0 0
1e-08 0 0
-0.00358933 -0.00214854 0
-0.00515735 -0.0011578 0
-0.01536 -0.00636051 0
