# vtk DataFile Version 2.0
CellBP Time: 1.8
ASCII
DATASET UNSTRUCTURED_GRID
POINTS 296 double
-8.78519 -4.34266 0
-8.32104 -5.254 0
-9.3806 -2.9305 0
-9.65526 -1.44948 0
-8.15938 -2.96677 0
-7.74492 -6.35684 0
-6.77824 -7.1686 0
-7.56893 -4.19749 0
-6.9462 -5.2648 0
-5.86885 -8.17803 0
-4.63103 -8.90676 0
-9.69376 -0.206612 0
-9.82199 1.2251 0
-8.24901 -1.82334 0
-8.51755 -0.858105 0
-7.26392 -2.42197 0
-6.99719 -3.20988 0
-6.24802 -6.10381 0
-5.43141 -6.92893 0
-6.51978 -4.2226 0
-5.82641 -4.90763 0
-3.49185 -9.55143 0
-2.15021 -10.0064 0
-4.57452 -7.53896 0
-3.53755 -8.15036 0
-8.66038 0.382883 0
-9.33505 2.35117 0
-8.36465 1.46573 0
-8.94557 3.53822 0
-7.23162 -1.29814 0
-7.52749 -0.298759 0
-6.42714 -1.59431 0
-0.95916 -10.2409 0
-5.98584 -2.43421 0
-5.80398 -3.34459 0
-5.42202 -5.85671 0
-4.50578 -6.13969 0
-5.05323 -4.13596 0
-4.78854 -5.00241 0
-2.67141 -8.6442 0
-1.73896 -8.84789 0
-3.69849 -6.96107 0
-2.70571 -7.18005 0
0.463955 -10.1964 0
-7.53892 0.78568 0
-7.81821 2.41681 0
-7.1976 1.66524 0
-8.49661 4.93206 0
-7.5092 3.79547 0
-7.77866 5.81091 0
-6.41727 -0.760517 0
-6.63058 0.241881 0
-5.41644 -1.2775 0
-0.422979 -9.29473 0
0.68878 -8.84985 0
-4.79355 -2.65004 0
-3.96312 -5.11217 0
-3.57921 -5.87794 0
-4.11234 -3.87217 0
-1.78306 -7.63481 0
-0.988392 -8.08106 0
-2.61269 -6.27457 0
-1.91563 -6.70276 0
1.71993 -10.2113 0
-6.44023 1.10332 0
-7.07242 2.96967 0
-6.40621 2.09875 0
-6.93817 4.51833 0
-6.50077 3.75458 0
-6.87974 6.78988 0
-6.40376 5.6277 0
-5.91122 7.77379 0
-3.8938 -1.37675 0
-5.43403 0.141613 0
-4.14318 -0.376472 0
0.244989 -7.82922 0
1.83821 -8.76226 0
1.24891 -8.15825 0
-3.50653 -2.45023 0
-2.98201 -1.58292 0
-2.79815 -4.73943 0
-2.91642 -3.35113 0
-1.15412 -6.83277 0
-0.358845 -7.18614 0
-1.4675 -5.65339 0
2.85407 -9.77724 0
-5.31559 1.73636 0
-5.8979 2.87614 0
-5.85742 4.72219 0
-5.49635 3.78369 0
-5.6446 6.6498 0
-5.36604 5.52098 0
-4.77066 8.53366 0
-4.45011 7.24232 0
-3.11873 -0.53 0
-4.15943 0.889689 0
-3.27104 0.373584 0
-3.70758 2.20465 0
-3.51267 9.06242 0
3.12777 -8.53451 0
0.669346 -6.90239 0
2.39463 -7.83841 0
1.65096 -7.07489 0
-1.89805 -1.03772 0
-2.29461 -2.25653 0
-1.91377 -4.03424 0
-1.99213 -3.09478 0
-0.166349 -6.09992 0
-0.843593 -4.51122 0
4.19163 -9.57093 0
-4.62382 3.22462 0
-4.93608 4.52634 0
-4.35136 6.03866 0
-4.11275 5.13698 0
-3.33966 7.884 0
-3.43169 6.59357 0
-2.43745 8.26841 0
-1.28902 -0.371957 0
-1.03644 -1.09425 0
-1.87159 0.47892 0
-2.92985 1.29795 0
-2.78199 3.07334 0
-2.66608 1.96801 0
-0.914475 0.404726 0
-2.31418 9.71627 0
4.18484 -8.12508 0
3.30585 -7.29425 0
1.20468 -6.09829 0
2.50745 -6.78216 0
-1.26034 -2.10961 0
-0.960284 -3.4051 0
0.323311 -4.95174 0
-0.125536 -3.87729 0
5.14451 -7.51582 0
5.45131 -8.88851 0
-3.44867 4.37459 0
-3.31007 5.56821 0
-2.56222 7.03403 0
-2.77223 6.17172 0
-1.26175 8.5115 0
-1.78764 7.41664 0
-1.99254 3.77754 0
-0.197933 -1.5079 0
-0.410498 -0.542345 0
-1.56041 1.2813 0
-1.76243 2.25855 0
-1.04626 3.36648 0
-0.548632 1.13709 0
-0.0638983 0.259666 0
-0.159703 8.69485 0
-1.08107 9.90423 0
1.35569 -4.95277 0
4.17161 -6.7984 0
3.28998 -6.12363 0
2.37539 -5.75189 0
5.09869 -6.33081 0
-0.206654 -2.64069 0
1.06237 -3.87213 0
0.497912 -2.08579 0
1.8922 -4.02346 0
6.23611 -6.68349 0
6.60778 -8.12155 0
-2.016 5.03934 0
-1.69501 6.25852 0
-0.564853 7.61603 0
-0.89602 6.74056 0
0.337893 7.75679 0
-0.67219 4.12521 0
0.662933 -1.07323 0
-0.493496 2.07139 0
0.0204023 3.07059 0
0.48276 1.18282 0
0.915545 0.253476 0
1.15346 8.77546 0
0.412414 10.0337 0
2.87484 -4.53338 0
4.30442 -5.82645 0
3.41113 -5.33548 0
5.90017 -5.66799 0
5.09629 -5.35722 0
0.953301 -2.68441 0
1.59452 -3.34817 0
1.15211 -1.86709 0
2.57601 -3.47064 0
3.37228 -3.73098 0
6.37271 -4.89159 0
6.8818 -5.97264 0
7.46382 -7.33219 0
-0.44363 5.78851 0
-0.0869075 6.6306 0
1.45928 7.4221 0
0.791794 6.91378 0
0.301481 4.48837 0
0.854268 3.50458 0
1.61949 -1.09444 0
0.851863 2.18171 0
1.35257 1.30414 0
2.11399 0.0801739 0
1.86198 0.903586 0
2.27539 7.2678 0
1.93502 8.70004 0
1.7406 9.97802 0
4.14231 -4.50125 0
5.3017 -4.41554 0
6.09129 -4.06964 0
4.02597 -3.27514 0
2.33134 -2.415 0
3.29449 -2.66356 0
7.11448 -4.06428 0
7.52148 -4.94011 0
8.23655 -6.29599 0
0.899176 5.54345 0
1.68838 6.25271 0
2.62245 6.32682 0
1.35395 4.28439 0
1.79582 3.16008 0
2.55348 -0.755424 0
3.09114 -0.0232624 0
2.11902 1.92213 0
2.83099 0.912739 0
3.3602 7.00535 0
2.97266 8.36484 0
2.89312 9.59398 0
5.08456 -3.36005 0
6.26827 -3.1838 0
4.39929 -2.31216 0
3.32538 -1.61623 0
6.80985 -2.36916 0
7.54697 -3.12805 0
8.32184 -4.08157 0
9.11688 -5.07156 0
2.46692 5.03917 0
3.22779 5.74238 0
2.53616 3.89339 0
2.77001 3.00202 0
3.66028 -0.750815 0
3.80003 0.374615 0
3.25833 2.18766 0
3.70521 1.27923 0
4.1563 5.61282 0
4.23148 6.55522 0
4.11759 7.73942 0
3.99102 9.26581 0
5.74915 -2.01072 0
4.54134 -1.33108 0
6.97381 -1.37009 0
7.89314 -2.04974 0
8.5539 -2.91085 0
9.60724 -3.91553 0
3.67356 4.4977 0
3.66358 3.24279 0
4.87211 -0.0147318 0
4.61765 1.10758 0
4.24981 2.3417 0
4.74413 4.90417 0
4.90102 5.98087 0
5.11738 7.48852 0
5.34232 8.55775 0
6.22061 -0.644595 0
7.16617 -0.463561 0
8.02569 -1.21134 0
9.13986 -1.92311 0
10.3654 -2.81242 0
4.82873 3.70948 0
5.90962 0.977201 0
5.60528 2.05129 0
5.58933 4.38129 0
5.70667 5.32821 0
6.16201 6.62695 0
6.64256 7.87351 0
7.14263 0.336493 0
8.29492 -0.211425 0
9.23676 -0.943051 0
10.4231 -1.48653 0
7.27552 1.09563 0
5.76491 3.54768 0
6.84023 2.06314 0
6.42833 2.96652 0
6.45001 4.60387 0
6.86256 5.58443 0
7.41859 6.98304 0
8.11798 0.78218 0
9.2701 0.363637 0
10.5097 -0.158052 0
7.8678 1.7222 0
6.71017 3.70043 0
7.423 2.69409 0
7.47605 4.76164 0
8.27685 5.83156 0
9.02432 1.44509 0
10.2281 1.27509 0
8.43132 2.66077 0
7.91481 3.74449 0
8.80709 4.8688 0
10.0741 2.57535 0
9.47726 3.64724 0
CELLS 542 2168
3 2 0 4
3 0 1 7
3 4 0 7
3 1 5 8
3 7 1 8
3 3 2 13
3 13 2 4
3 11 3 14
3 14 3 13
3 13 4 15
3 4 7 16
3 15 4 16
3 5 6 17
3 8 5 17
3 6 9 18
3 17 6 18
3 7 8 19
3 16 7 19
3 8 17 20
3 19 8 20
3 9 10 23
3 18 9 23
3 10 21 24
3 23 10 24
3 12 11 25
3 25 11 14
3 26 12 27
3 27 12 25
3 14 13 29
3 29 13 15
3 25 14 30
3 30 14 29
3 29 15 31
3 15 16 33
3 31 15 33
3 16 19 34
3 33 16 34
3 17 18 35
3 20 17 35
3 18 23 36
3 35 18 36
3 19 20 37
3 34 19 37
3 20 35 38
3 37 20 38
3 21 22 39
3 24 21 39
3 22 32 40
3 39 22 40
3 23 24 41
3 36 23 41
3 24 39 42
3 41 24 42
3 27 25 44
3 44 25 30
3 28 26 45
3 45 26 27
3 45 27 46
3 46 27 44
3 47 28 48
3 48 28 45
3 30 29 50
3 50 29 31
3 44 30 51
3 51 30 50
3 50 31 52
3 31 33 52
3 32 43 53
3 40 32 53
3 53 43 54
3 33 34 55
3 34 37 55
3 33 55 52
3 36 41 57
3 56 36 57
3 37 38 58
3 38 56 58
3 37 58 55
3 39 40 59
3 42 39 59
3 40 53 60
3 59 40 60
3 41 42 61
3 57 41 61
3 42 59 62
3 61 42 62
3 43 63 54
3 46 44 64
3 64 44 51
3 48 45 65
3 65 45 46
3 65 46 66
3 66 46 64
3 49 47 67
3 67 47 48
3 67 48 68
3 68 48 65
3 69 49 70
3 70 49 67
3 52 55 72
3 64 51 73
3 51 50 73
3 50 52 73
3 73 52 74
3 74 52 72
3 53 54 75
3 60 53 75
3 54 63 76
3 54 76 77
3 75 54 77
3 55 58 78
3 72 55 78
3 72 78 79
3 56 57 80
3 57 61 80
3 56 80 58
3 58 80 81
3 78 58 81
3 59 60 82
3 62 59 82
3 60 75 83
3 82 60 83
3 61 62 84
3 62 82 84
3 61 84 80
3 63 85 76
3 66 64 86
3 64 73 86
3 68 65 87
3 87 65 66
3 87 66 86
3 70 67 88
3 88 67 68
3 88 68 89
3 89 68 87
3 71 69 90
3 90 69 70
3 90 70 91
3 91 70 88
3 92 71 93
3 93 71 90
3 74 72 94
3 94 72 79
3 86 73 95
3 95 73 74
3 95 74 96
3 96 74 94
3 97 86 95
3 76 85 99
3 75 77 100
3 83 75 100
3 76 99 101
3 77 76 101
3 77 101 102
3 100 77 102
3 94 79 103
3 78 81 104
3 79 78 104
3 79 104 103
3 80 84 105
3 81 80 105
3 81 105 106
3 104 81 106
3 82 83 107
3 83 100 107
3 82 107 84
3 84 107 108
3 105 84 108
3 85 109 99
3 89 87 110
3 87 86 110
3 110 86 97
3 91 88 111
3 111 88 89
3 111 89 110
3 93 90 112
3 112 90 91
3 112 91 113
3 113 91 111
3 98 92 114
3 114 92 93
3 114 93 115
3 115 93 112
3 116 98 114
3 117 103 118
3 96 94 119
3 94 103 119
3 119 103 117
3 97 95 120
3 120 95 96
3 120 96 119
3 121 110 97
3 121 97 122
3 122 97 120
3 123 119 117
3 124 98 116
3 99 109 125
3 99 125 126
3 101 99 126
3 100 102 127
3 100 127 107
3 101 126 128
3 102 101 128
3 102 128 127
3 104 106 129
3 104 129 103
3 103 129 118
3 105 108 130
3 106 105 130
3 106 130 129
3 107 127 131
3 108 107 131
3 108 131 132
3 108 132 130
3 109 134 125
3 125 134 133
3 113 111 135
3 111 110 135
3 135 110 121
3 115 112 136
3 136 112 113
3 136 113 135
3 116 114 137
3 137 114 115
3 137 115 138
3 138 115 136
3 139 124 116
3 139 116 140
3 140 116 137
3 141 135 121
3 118 129 142
3 118 142 143
3 117 118 143
3 123 117 143
3 122 120 144
3 120 119 144
3 144 119 123
3 141 121 145
3 145 121 122
3 145 122 144
3 146 141 145
3 147 144 123
3 147 123 148
3 143 148 123
3 150 124 139
3 149 150 139
3 131 127 151
3 125 133 152
3 126 125 152
3 126 152 153
3 128 126 153
3 128 153 154
3 128 154 127
3 127 154 151
3 152 133 155
3 130 132 156
3 130 156 129
3 129 156 142
3 131 151 157
3 132 131 157
3 156 158 142
3 157 151 159
3 133 160 155
3 134 161 133
3 133 161 160
3 138 136 162
3 136 135 162
3 162 135 141
3 140 137 163
3 163 137 138
3 163 138 162
3 149 139 164
3 164 139 140
3 164 140 165
3 165 140 163
3 166 149 164
3 167 162 141
3 167 141 146
3 142 158 168
3 143 142 168
3 143 168 148
3 146 145 169
3 145 144 169
3 169 144 147
3 170 167 146
3 170 146 169
3 171 169 147
3 171 147 148
3 171 148 172
3 168 172 148
3 173 149 166
3 174 150 149
3 173 174 149
3 154 175 151
3 151 175 159
3 152 155 176
3 153 152 176
3 153 176 177
3 153 177 154
3 154 177 175
3 155 160 178
3 155 178 179
3 176 155 179
3 156 180 158
3 157 159 181
3 157 181 180
3 158 180 182
3 158 182 168
3 159 175 183
3 159 183 181
3 175 184 183
3 160 186 178
3 178 186 185
3 161 187 160
3 160 187 186
3 165 163 188
3 163 162 188
3 188 162 167
3 166 164 189
3 189 164 165
3 189 165 188
3 190 173 166
3 190 166 191
3 191 166 189
3 192 188 167
3 192 167 170
3 193 192 170
3 182 194 168
3 194 172 168
3 193 170 195
3 170 169 195
3 195 169 171
3 196 195 171
3 196 171 172
3 194 197 172
3 197 198 172
3 198 196 172
3 200 173 190
3 199 200 190
3 201 174 173
3 200 201 173
3 176 179 202
3 177 176 202
3 177 202 175
3 175 202 184
3 179 203 202
3 203 185 204
3 202 205 184
3 183 206 181
3 180 181 206
3 180 206 182
3 182 206 194
3 183 184 207
3 205 207 184
3 183 207 206
3 185 208 204
3 186 209 185
3 185 209 208
3 187 210 186
3 186 210 209
3 191 189 211
3 189 188 211
3 211 188 192
3 199 190 212
3 212 190 191
3 212 191 211
3 213 199 212
3 214 211 192
3 214 192 193
3 215 214 193
3 215 193 195
3 206 216 194
3 216 197 194
3 216 217 197
3 215 195 218
3 218 195 196
3 198 218 196
3 217 219 197
3 219 218 198
3 197 219 198
3 220 199 213
3 221 200 199
3 220 221 199
3 222 201 200
3 221 222 200
3 203 204 223
3 203 223 202
3 202 223 205
3 204 208 224
3 204 224 223
3 205 223 225
3 205 225 207
3 207 225 226
3 207 226 206
3 226 216 206
3 208 228 224
3 224 228 227
3 209 229 208
3 229 228 208
3 210 230 209
3 209 230 229
3 213 212 231
3 212 211 231
3 231 211 214
3 232 220 213
3 232 213 231
3 233 231 214
3 233 214 215
3 234 233 215
3 234 215 218
3 226 235 216
3 235 217 216
3 235 236 217
3 217 236 219
3 237 234 218
3 237 218 219
3 236 238 219
3 238 237 219
3 240 220 232
3 239 240 232
3 241 221 220
3 240 241 220
3 242 222 221
3 241 242 221
3 224 227 243
3 224 243 223
3 223 243 225
3 225 243 244
3 225 244 226
3 226 244 235
3 227 245 243
3 228 246 227
3 227 246 245
3 229 247 228
3 228 247 246
3 230 248 229
3 229 248 247
3 239 232 249
3 232 231 249
3 249 231 233
3 250 249 233
3 250 233 234
3 237 250 234
3 244 251 235
3 235 251 236
3 251 252 236
3 236 252 238
3 252 253 238
3 253 250 237
3 253 237 238
3 254 239 249
3 255 240 239
3 254 255 239
3 256 241 240
3 255 256 240
3 257 242 241
3 256 257 241
3 245 258 243
3 243 258 244
3 244 258 251
3 245 259 258
3 246 260 245
3 245 260 259
3 247 261 246
3 246 261 260
3 248 262 247
3 247 262 261
3 254 249 263
3 263 249 250
3 253 263 250
3 258 264 251
3 251 264 252
3 264 265 252
3 265 263 253
3 252 265 253
3 266 254 263
3 267 255 254
3 266 267 254
3 268 256 255
3 267 268 255
3 269 257 256
3 268 269 256
3 259 270 258
3 270 264 258
3 260 271 259
3 259 271 270
3 261 272 260
3 260 272 271
3 262 273 261
3 273 272 261
3 270 274 264
3 275 266 263
3 275 263 265
3 274 276 264
3 276 265 264
3 276 277 265
3 277 275 265
3 278 267 266
3 275 278 266
3 279 268 267
3 278 279 267
3 280 269 268
3 279 280 268
3 271 281 270
3 270 281 274
3 272 282 271
3 271 282 281
3 273 283 272
3 272 283 282
3 281 284 274
3 274 284 276
3 285 278 275
3 277 285 275
3 284 286 276
3 286 285 277
3 276 286 277
3 287 279 278
3 285 287 278
3 288 280 279
3 287 288 279
3 282 289 281
3 281 289 284
3 283 290 282
3 282 290 289
3 289 291 284
3 284 291 286
3 291 292 286
3 292 287 285
3 286 292 285
3 293 288 287
3 292 293 287
3 290 294 289
3 289 294 291
3 294 295 291
3 295 293 292
3 291 295 292
3 38 36 56
3 36 38 35
3 180 132 157
3 132 180 156
3 185 179 178
3 179 185 203
CELL_TYPES 542
5
5
5
5
5
5
5
5
5
5
5
5
5
5
5
5
5
5
5
5
5
5
5
5
5
5
5
5
5
5
5
5
5
5
5
5
5
5
5
5
5
5
5
5
5
5
5
5
5
5
5
5
5
5
5
5
5
5
5
5
5
5
5
5
5
5
5
5
5
5
5
5
5
5
5
5
5
5
5
5
5
5
5
5
5
5
5
5
5
5
5
5
5
5
5
5
5
5
5
5
5
5
5
5
5
5
5
5
5
5
5
5
5
5
5
5
5
5
5
5
5
5
5
5
5
5
5
5
5
5
5
5
5
5
5
5
5
5
5
5
5
5
5
5
5
5
5
5
5
5
5
5
5
5
5
5
5
5
5
5
5
5
5
5
5
5
5
5
5
5
5
5
5
5
5
5
5
5
5
5
5
5
5
5
5
5
5
5
5
5
5
5
5
5
5
5
5
5
5
5
5
5
5
5
5
5
5
5
5
5
5
5
5
5
5
5
5
5
5
5
5
5
5
5
5
5
5
5
5
5
5
5
5
5
5
5
5
5
5
5
5
5
5
5
5
5
5
5
5
5
5
5
5
5
5
5
5
5
5
5
5
5
5
5
5
5
5
5
5
5
5
5
5
5
5
5
5
5
5
5
5
5
5
5
5
5
5
5
5
5
5
5
5
5
5
5
5
5
5
5
5
5
5
5
5
5
5
5
5
5
5
5
5
5
5
5
5
5
5
5
5
5
5
5
5
5
5
5
5
5
5
5
5
5
5
5
5
5
5
5
5
5
5
5
5
5
5
5
5
5
5
5
5
5
5
5
5
5
5
5
5
5
5
5
5
5
5
5
5
5
5
5
5
5
5
5
5
5
5
5
5
5
5
5
5
5
5
5
5
5
5
5
5
5
5
5
5
5
5
5
5
5
5
5
5
5
5
5
5
5
5
5
5
5
5
5
5
5
5
5
5
5
5
5
5
5
5
5
5
5
5
5
5
5
5
5
5
5
5
5
5
5
5
5
5
5
5
5
5
5
5
5
5
5
5
5
5
5
5
5
5
5
5
5
5
5
5
5
5
5
5
5
5
5
5
5
5
5
5
5
5
5
5
5
5
5
5
5
5
5
5
5
5
5
5
5
5
5
5
5
5
5
5
5
5
5
5
5
5
5
5
5
5
5
5
5
5
5
5
5
5
5
5
5
5
5
5
5
5
5
5
5
5
5
5
5
5
5
5
5
5
5
POINT_DATA 296
SCALARS concentrations float 4
LOOKUP_TABLE default
0 0.999297 0.0168396 414.741
0 1.00205 0.0362939 310.964
0 0.993587 0.00769748 394.478
0 0.98985 0.0138564 427.142
0 0.992362 0.0395777 356.438
0 0.995905 0.0333136 343.229
0 0.994798 0 340.591
0 0.999048 0.0041135 346.718
0 1.00157 0.005 345.202
0 0.993327 0.0252247 339.808
0 0.988822 0.00996468 304.309
0 1.01015 0.0496191 342.325
0 0.987492 0.0194538 339.891
0 0.991753 0.005 349.037
0 1.00739 0 350.226
0 0.994239 0.005 351.809
0 0.98876 0 350.791
0 0.99935 0.005 341.734
0 0.997553 0.005 338.025
0 0.996918 0 346.903
0 1.00333 0 343.423
0 0.981656 0.00995664 293.832
0 0.980907 0.044161 386.42
0 0.993508 0.00804408 342.234
0 0.987056 0.00952122 389.962
0 0.998803 0.005 352.613
0 0.989728 0.0178568 429.433
0 0.981141 0.005 355.537
0 0.994078 0.0319916 363.315
0 1.00166 0.00094488 354.649
0 1.00769 0.005 355.779
0 0.999242 0 355.879
0 0.987549 0.0374026 318.429
0 0.990365 0 354.4
0 0.987946 0 351.987
0 1.00548 0.005 340.384
0 1.00147 0 337.65
0 0.990155 0 346.812
0 1.00157 0.00527548 350.32
0 0.984768 0.00996049 312.781
0 0.987195 0.0148948 361.788
0 0.992235 0 333.97
0 0.991241 0.0146949 408.437
0 0.995312 0.0430623 323.684
0 0.989658 0.00996058 390.855
0 0.987525 0.005 358.468
0 0.988686 0.005 361.918
0 0.984041 0.056499 302.141
0 0.981176 0 356.814
0 0.984555 0.005 350.561
0 0.999624 0 358.055
0 0.998568 0 360.315
0 0.9928 0.00226666 358.297
0 0.994032 0.0469792 356.073
0 0.996893 0.005 330.432
0 0.984226 0.005 355.725
0 0.999398 0.0103458 400.765
0 0.996841 0 336.102
0 0.98781 0 348.031
0 0.987562 0 329.627
0 0.987217 0.014769 366.844
0 0.996618 0.00162024 333
0 0.997363 0.0143144 372.743
0 0.994505 0.0441381 323.812
0 0.993373 0 362.849
0 0.979877 0.005 360.954
0 0.989393 0 367.068
0 0.978795 0.005 358.752
0 0.979093 0.005 363.334
0 0.992168 0.005 355.034
0 0.991888 0.005 360.602
0 0.996515 0.005 359.781
0 0.986791 0.0146468 379.413
0 0.993006 0 361.947
0 0.991257 0.0146046 423.709
0 0.990348 0.00871713 384.592
0 0.995576 0.0246041 309.641
0 0.989013 0.0197237 343.35
0 0.979065 0 356.499
0 0.984 0.005 362.427
0 0.994303 0 342.15
0 0.981497 0 350.72
0 0.990743 0 331.558
0 0.979888 0.005 332.15
0 0.999033 0.01487 360.458
0 0.993576 0 328.843
0 0.991629 0 372.284
0 0.990819 0.005 369.292
0 0.994839 0.005 366.225
0 0.996735 0.005 370.561
0 0.998504 0.005 364.332
0 1.00459 0.005 368.376
0 1.00032 0.0148932 402.848
0 1.00153 0.0148405 366.189
0 0.988927 0.00742715 419.687
0 0.988996 0 373.823
0 0.985976 0.0140741 445.326
0 0.995453 0.0344652 386.299
0 0.993965 0.0210681 423.987
0 0.992583 0.005 335.138
0 0.988317 0.005 334.475
0 0.991059 0.005 335.404
0 0.988296 0.0463923 229.334
0 0.986268 0.0146286 350.017
0 0.977692 0.014695 397.556
0 0.98831 0.00677572 383.835
0 0.976696 0.00875937 409.229
0 0.994121 0.00797667 378.918
0 0.991788 0.005 343.7
0 0.987205 0.005 325.773
0 1.00064 0.005 377.897
0 1.0079 0.005 373.298
0 1.00782 0.005 374.916
0 1.0126 0.005 378.271
0 1.00121 0.0148149 380.897
0 1.00545 0.0148599 353.271
0 0.996897 0.005 376.431
0 0.986829 0.0112552 350.164
0 0.983145 0.00943523 363.593
0 0.989315 0.00894835 370.373
0 0.990755 0.005 386.077
0 1.00165 0.0185885 421.775
0 1.00317 0 393.611
0 0.988607 0.0148258 357.678
0 0.997226 0 368.764
0 0.982893 0.0124183 289.228
0 0.991538 0.0453396 242.974
0 0.997893 0.005 338.979
0 0.991793 0 338.363
0 0.97864 0.0144534 341.774
0 0.98136 0.005 350.707
0 0.995283 0.00741222 392.238
0 0.988638 0.0109631 402.801
0 0.994957 0.005 334.965
0 0.990693 0.0322428 398.383
0 1.00418 0.014889 401.137
0 1.00715 0.0148601 405.186
0 0.999447 0.0145593 366.668
0 0.998349 0.014378 365.559
0 0.998354 0 368.469
0 0.99722 0.014317 416.281
0 0.994189 0.0246003 426.363
0 0.982388 0.00925281 344.969
0 0.985411 0.00994987 363.201
0 0.994743 0.0148928 422.795
0 0.996588 0.0285504 482.476
0 0.99005 0.0316735 457.625
0 0.989152 0.024386 457.385
0 0.987536 0.0148696 366.822
0 0.985082 0.005 360.022
0 0.991742 0 369.652
0 0.993621 0.0147237 362.766
0 0.986652 0 339.249
0 0.990406 0.0390934 282.478
0 0.991086 0.005 342.988
0 0.988279 0.0344676 227.388
0 0.982905 0.00996348 361.187
0 0.991275 0.0148739 320.517
0 0.986602 0.00988314 311.56
0 0.988219 0.00995694 331.202
0 0.998353 0.005 333.762
0 1.01032 0 327.241
0 0.994861 0.00996412 391.195
0 0.993052 0.0147386 366.594
0 0.9899 0.019617 421.298
0 0.992002 0.0191556 342.097
0 0.982284 0 354.293
0 0.990805 0.0321508 438.506
0 0.986599 0.0148945 340.229
0 0.990666 0.0325919 463.44
0 0.989216 0.0331524 454.373
0 0.989942 0.0288616 411.93
0 0.989718 0.032296 360.387
0 0.983203 0 349.708
0 0.984443 0.005 357.978
0 0.985025 0.0192205 342.75
0 0.991516 0.005 338.024
0 0.9849 0.0146384 333.347
0 0.990287 0.0148791 352.886
0 0.991869 0.0148891 331.739
0 0.989013 0.00994975 327.182
0 0.988992 0.00996463 341.145
0 0.990899 0.00996178 339.319
0 0.986849 0.0123012 382.478
0 0.983017 0.019579 358.74
0 0.996854 0.0143067 333.269
0 0.983999 0 330.76
0 0.985274 0 329.61
0 0.989338 0.00978391 376.03
0 0.981566 0.005 355.563
0 0.979621 0.005 344.737
0 0.978087 0.00996497 362.437
0 0.988258 0.0238858 384.81
0 0.987244 0.0245874 415.544
0 0.988352 0.0125826 427.472
0 0.989639 0.033294 400.307
0 0.997144 0.023108 381.918
0 0.990488 0.0148088 341.55
0 1.00102 0.0148355 349.912
0 0.984549 0.00916259 401.866
0 0.981729 0.0244725 354.371
0 0.985225 0.0189816 422.084
0 0.986938 0.005 338.715
0 0.990824 0.005 331.187
0 0.998661 0.0579456 401.826
0 0.992805 0.0127141 371.989
0 0.989306 0.0190479 364.835
0 0.990221 0.0196462 361.335
0 0.988107 0 326.123
0 0.984121 0 327.079
0 0.979741 0.0555126 297.087
0 0.980575 0.00996415 335.131
0 0.978613 0.0193151 423.237
0 0.983841 0 336.287
0 0.985163 0.0235582 446.342
0 0.986155 0.0192902 417.714
0 0.989361 0.0134775 324.859
0 0.988725 0.0145269 269.193
0 0.994953 0 342.971
0 0.994362 0.005 330.434
0 0.991913 0.005 336.286
0 0.985974 0.0194779 364.03
0 0.984412 0.005 346.394
0 0.991347 0.0086282 276.985
0 0.990729 0 326.158
0 0.989695 0.005 336.686
0 0.986487 0.00996106 375.81
0 0.994079 0 323.17
0 0.984765 0 323.121
0 0.981558 0 323.406
0 0.98327 0.00975742 247.611
0 0.983296 0.0195058 362.895
0 0.990178 0.00796737 384.645
0 0.988524 0.0394741 281.928
0 0.987476 0.0143864 296.835
0 0.995125 0.00988629 332.013
0 0.98678 0.005 326.925
0 0.992311 0 327.283
0 0.987674 0.0131956 301.499
0 0.993464 0.0096931 390.716
0 0.992997 0.0107373 278.81
0 0.990806 0.00904468 394.503
0 0.987105 0 341.58
0 0.994861 0 327.441
0 1.00078 0.005 330.97
0 0.993252 0.005 322.254
0 0.991011 0 320.457
0 0.984346 0 320.747
0 0.984845 0 320.542
0 0.992333 0.022808 321.195
0 0.990324 0 328.633
0 0.999975 0.00885879 288.31
0 0.988265 0.0148913 343.293
0 0.989251 0.0197047 331.178
0 0.999802 0.00907793 273.519
0 0.999134 0.005 335.315
0 0.991924 0.0589719 306.589
0 0.992441 0.005 336.274
0 1.00155 0 324.216
0 0.994265 0 323.57
0 0.990912 0 319.214
0 0.98477 0.0345001 220.866
0 0.981988 0.0596258 420.943
0 0.99139 0 330.327
0 0.992043 0 325.948
0 0.988482 0 326.972
0 1.00262 0.00925888 281.514
0 1.00796 0.005 334.809
0 0.996176 0.005 335.237
0 0.988746 0.005 335.641
0 0.99488 0.005 325.467
0 0.993479 0 320.519
0 0.989449 0.0327808 223.999
0 0.988306 0.0323582 292.345
0 0.998331 0 326.872
0 0.996981 0 330.648
0 0.99083 0.005 329.386
0 0.989106 0 329.792
0 1.00548 0.005 334.325
0 0.995623 0 334.642
0 0.98953 0.00995255 331.371
0 0.99594 0 323.411
0 0.991391 0 318.725
0 0.990308 0 313.552
0 0.995681 0.005 326.565
0 0.997521 0.005 332.587
0 0.995384 0 330.569
0 0.989187 0.005 333.885
0 0.986327 0 332.89
0 0.98209 0.005 322.161
0 0.98803 0 317.885
0 0.98244 0.005 327.264
0 0.992498 0.005 332.011
0 0.98632 0.0504695 306.71
0 0.971407 0.005 321.99
0 0.986333 0.005 326.914
VECTORS fa_u float
0.00184711 0.000842319 -0
4.18317e-05 2.16051e-05 -0
0.0145121 0.00436422 -0
0.00835104 0.000960116 -0
1e-08 0 0
0.0459716 0.0370442 -0
-0.00511301 -0.00526707 0
1e-08 0 0
1e-08 0 0
0.020592 0.0254381 -0
5.33007e-05 9.22498e-05 -0
-0.00126675 -7.89673e-05 0
0.0873475 -0.0122499 -0
1e-08 0 0
1e-08 0 0
1e-08 0 0
1e-08 0 0
1e-08 0 0
1e-08 0 0
1e-08 0 0
1e-08 0 0
0.00521907 0.0117746 -0
0.00174711 0.00641805 -0
1e-08 0 0
1e-08 0 0
1e-08 0 0
-0.003129 0.00118555 -0
1e-08 0 0
-1.03289e-05 3.35551e-06 -0
1e-08 0 0
1e-08 0 0
1e-08 0 0
0.00138474 0.0190465 -0
1e-08 0 0
1e-08 0 0
1e-08 0 0
1e-08 0 0
1e-08 0 0
1e-08 0 0
1e-08 0 0
1e-08 0 0
1e-08 0 0
1e-08 0 0
7.63733e-06 -0.000692882 0
1e-08 0 0
1e-08 0 0
1e-08 0 0
0.0463532 -0.0238 0
1e-08 0 0
0.00102279 -0.000890137 0
1e-08 0 0
1e-08 0 0
1e-08 0 0
1e-08 0 0
1e-08 0 0
1e-08 0 0
1e-08 0 0
1e-08 0 0
1e-08 0 0
1e-08 0 0
1e-08 0 0
1e-08 0 0
1e-08 0 0
-0.00966895 0.0551305 -0
1e-08 0 0
1e-08 0 0
1e-08 0 0
1e-08 0 0
1e-08 0 0
0.000322308 -0.000306636 0
1e-08 0 0
0.00970307 -0.0117358 0
1e-08 0 0
1e-08 0 0
1e-08 0 0
1e-08 0 0
1e-08 0 0
1e-08 0 0
1e-08 0 0
1e-08 0 0
1e-08 0 0
1e-08 0 0
1e-08 0 0
1e-08 0 0
1e-08 0 0
0.0043702 -0.0168667 -0
1e-08 0 0
1e-08 0 0
1e-08 0 0
1e-08 0 0
1e-08 0 0
1e-08 0 0
0.00618658 -0.0115152 0
1e-08 0 0
1e-08 0 0
1e-08 0 0
1e-08 0 0
1e-08 0 0
-0.00163442 0.00339497 -0
1e-08 0 0
1e-08 0 0
1e-08 0 0
1e-08 0 0
1e-08 0 0
1e-08 0 0
1e-08 0 0
1e-08 0 0
1e-08 0 0
1e-08 0 0
-0.0133724 0.0390796 0
1e-08 0 0
1e-08 0 0
1e-08 0 0
1e-08 0 0
1e-08 0 0
1e-08 0 0
1e-08 0 0
1e-08 0 0
1e-08 0 0
1e-08 0 0
1e-08 0 0
1e-08 0 0
1e-08 0 0
1e-08 0 0
0.0147995 -0.0427485 0
1e-08 0 0
1e-08 0 0
1e-08 0 0
1e-08 0 0
1e-08 0 0
1e-08 0 0
1e-08 0 0
1e-08 0 0
1e-08 0 0
-0.00144621 0.00241087 0
1e-08 0 0
1e-08 0 0
1e-08 0 0
1e-08 0 0
1e-08 0 0
1e-08 0 0
1e-08 0 0
1e-08 0 0
1e-08 0 0
1e-08 0 0
1e-08 0 0
1e-08 0 0
1e-08 0 0
1e-08 0 0
1e-08 0 0
0.000176736 -0.00151828 0
1e-08 0 0
1e-08 0 0
1e-08 0 0
1e-08 0 0
1e-08 0 0
1e-08 0 0
1e-08 0 0
1e-08 0 0
1e-08 0 0
1e-08 0 0
-0.00605099 0.00782464 0
1e-08 0 0
1e-08 0 0
1e-08 0 0
1e-08 0 0
1e-08 0 0
1e-08 0 0
1e-08 0 0
1e-08 0 0
1e-08 0 0
1e-08 0 0
1e-08 0 0
1e-08 0 0
0.000151648 -0.00579886 0
1e-08 0 0
1e-08 0 0
1e-08 0 0
1e-08 0 0
1e-08 0 0
1e-08 0 0
1e-08 0 0
1e-08 0 0
1e-08 0 0
1e-08 0 0
1e-08 0 0
1e-08 0 0
-0.0103351 0.009221 0
1e-08 0 0
1e-08 0 0
1e-08 0 0
1e-08 0 0
1e-08 0 0
1e-08 0 0
1e-08 0 0
1e-08 0 0
1e-08 0 0
1e-08 0 0
1e-08 0 0
1e-08 0 0
1e-08 0 0
-0.00528282 -0.0298058 0
1e-08 0 0
1e-08 0 0
1e-08 0 0
1e-08 0 0
1e-08 0 0
1e-08 0 0
1e-08 0 0
1e-08 0 0
-8.74564e-05 6.39514e-05 0
1e-08 0 0
1e-08 0 0
1e-08 0 0
1e-08 0 0
1e-08 0 0
1e-08 0 0
1e-08 0 0
1e-08 0 0
1e-08 0 0
1e-08 0 0
1e-08 0 0
0.00012438 0.00039301 -0
1e-08 0 0
1e-08 0 0
1e-08 0 0
1e-08 0 0
1e-08 0 0
1e-08 0 0
1e-08 0 0
-0.0153187 0.00882072 0
1e-08 0 0
1e-08 0 0
1e-08 0 0
1e-08 0 0
1e-08 0 0
1e-08 0 0
1e-08 0 0
1e-08 0 0
1e-08 0 0
1e-08 0 0
1e-08 0 0
-0.00534705 -0.0126381 0
1e-08 0 0
1e-08 0 0
1e-08 0 0
1e-08 0 0
1e-08 0 0
0.0135088 -0.0074655 -0
1e-08 0 0
1e-08 0 0
1e-08 0 0
1e-08 0 0
1e-08 0 0
1e-08 0 0
1e-08 0 0
1e-08 0 0
-4.85873e-07 -9.25311e-07 0
1e-08 0 0
1e-08 0 0
1e-08 0 0
1e-08 0 0
-0.103919 0.034905 0
1e-08 0 0
1e-08 0 0
1e-08 0 0
1e-08 0 0
1e-08 0 0
1e-08 0 0
-0.0302652 -0.0399049 0
1e-08 0 0
1e-08 0 0
1e-08 0 0
0.000174475 -9.48681e-06 -0
1e-08 0 0
1e-08 0 0
1e-08 0 0
1e-08 0 0
1e-08 0 0
1e-08 0 0
-0.00173484 -0.00138849 0
1e-08 0 0
1e-08 0 0
-0.0236529 -0.00167032 0
1e-08 0 0
1e-08 0 0
1e-08 0 0
1e-08 0 0
-0.00617323 -0.00405423 0
1e-08 0 0
0.00206451 0.000328993 -0
1e-08 0 0
1e-08 0 0
-9.50483e-07 -5.22345e-07 0
-0.0554365 -0.0175467 0
1.31852e-05 7.2841e-06 -0
