# vtk DataFile Version 2.0
CellBP Time: 0.72
ASCII
DATASET UNSTRUCTURED_GRID
POINTS 296 double
-8.85212 -4.07174 0
-8.45457 -5.1352 0
-9.46315 -2.77165 0
-9.59249 -1.50651 0
-8.14915 -3.01299 0
-7.736 -6.20437 0
-6.94453 -7.13089 0
-7.624 -4.05021 0
-7.14611 -5.06737 0
-5.94052 -8.06689 0
-4.75477 -8.78587 0
-9.63423 -0.222022 0
-9.687 1.18076 0
-8.20767 -1.81313 0
-8.48031 -0.844296 0
-7.23759 -2.16884 0
-6.94973 -3.13877 0
-6.39325 -5.9244 0
-5.69209 -6.82282 0
-6.48898 -4.11586 0
-5.89665 -4.81385 0
-3.61751 -9.45384 0
-2.3419 -9.79359 0
-4.70419 -7.43606 0
-3.76807 -8.07626 0
-8.5908 0.415244 0
-9.28281 2.45122 0
-8.30254 1.59356 0
-9.04058 3.75739 0
-7.39951 -1.12626 0
-7.63237 -0.13406 0
-6.5774 -1.54896 0
-1.05365 -10.1386 0
-6.04981 -2.30949 0
-5.79809 -3.26727 0
-5.36673 -5.75457 0
-4.6513 -6.37518 0
-5.21938 -3.96798 0
-4.85464 -4.79562 0
-2.64255 -8.46507 0
-1.58289 -8.84763 0
-3.74013 -6.8457 0
-2.85912 -7.21405 0
0.246924 -10.1311 0
-7.54064 0.916431 0
-7.89296 2.53484 0
-7.0971 1.76472 0
-8.46562 4.93949 0
-7.63421 3.8003 0
-7.63715 5.8785 0
-6.61424 -0.527582 0
-6.80782 0.395313 0
-5.38408 -1.23861 0
-0.404357 -9.0579 0
0.66616 -8.90754 0
-4.93338 -2.59209 0
-4.15997 -5.18298 0
-3.66254 -5.86331 0
-4.10311 -3.8509 0
-1.92698 -7.63883 0
-1.0514 -7.91914 0
-2.72778 -6.15514 0
-2.10637 -6.61741 0
1.47813 -10.0046 0
-6.47748 1.18335 0
-6.97874 2.91228 0
-6.3219 2.12161 0
-6.97957 4.57721 0
-6.40095 3.64868 0
-6.69948 6.70213 0
-6.29168 5.56602 0
-5.95719 7.77253 0
-4.04729 -1.25161 0
-5.51505 0.230988 0
-4.3868 -0.264657 0
0.137742 -7.92327 0
1.83755 -8.82571 0
1.09902 -7.90425 0
-3.67946 -2.48157 0
-3.14851 -1.41717 0
-3.08744 -4.92786 0
-2.9882 -3.38529 0
-1.27221 -6.76523 0
-0.434432 -7.20959 0
-1.6779 -5.57754 0
2.8744 -9.84597 0
-5.23259 1.78115 0
-5.8719 2.80016 0
-5.83372 4.54768 0
-5.44938 3.75039 0
-5.43904 6.51147 0
-5.23906 5.41213 0
-4.74841 8.56374 0
-4.59663 7.29102 0
-3.16189 -0.404055 0
-4.10777 0.935327 0
-3.37799 0.408901 0
-3.78291 2.12054 0
-3.59796 9.18574 0
2.91576 -8.4541 0
0.622019 -6.90691 0
2.17195 -7.69417 0
1.54375 -7.07401 0
-2.10474 -0.909057 0
-2.5296 -2.18458 0
-2.11261 -4.19247 0
-2.16886 -3.14704 0
-0.312283 -6.10583 0
-1.01122 -4.53663 0
4.08678 -9.35523 0
-4.49208 3.1782 0
-4.84341 4.3903 0
-4.30605 6.08426 0
-4.25193 5.13598 0
-3.54262 7.84233 0
-3.54456 6.60979 0
-2.49081 8.30342 0
-1.3979 -0.301817 0
-1.17751 -1.03225 0
-1.99615 0.442987 0
-2.92119 1.33714 0
-2.83958 3.10126 0
-2.5918 2.12896 0
-0.939094 0.443188 0
-2.26564 9.55831 0
4.00169 -7.94948 0
3.07918 -7.16967 0
1.07438 -5.97501 0
2.22494 -6.62656 0
-1.3898 -2.02302 0
-1.15492 -3.34394 0
0.152278 -4.90514 0
-0.27915 -3.79019 0
4.97841 -7.41963 0
5.18534 -8.64613 0
-3.40742 4.35257 0
-3.41472 5.60959 0
-2.62064 7.07616 0
-2.71512 6.22961 0
-1.2985 8.48803 0
-1.72846 7.47932 0
-2.01538 3.9013 0
-0.421856 -1.3514 0
-0.608413 -0.354087 0
-1.66219 1.4058 0
-1.84627 2.50158 0
-1.04327 3.40754 0
-0.623066 1.21208 0
-0.0592272 0.25883 0
-0.228831 8.68861 0
-1.11958 9.91946 0
1.21539 -4.77028 0
4.02017 -6.73147 0
3.15762 -6.1473 0
2.21508 -5.55213 0
4.92692 -6.23671 0
-0.322643 -2.51631 0
0.756184 -3.64101 0
0.295021 -1.78188 0
1.69631 -3.86845 0
6.0257 -6.6336 0
6.34941 -7.96308 0
-2.15997 5.21103 0
-1.81973 6.3803 0
-0.610228 7.68538 0
-1.01946 6.78905 0
0.329968 7.71539 0
-0.807513 4.41931 0
0.428379 -0.874675 0
-0.588626 2.30252 0
-0.106701 3.33893 0
0.280301 1.29939 0
0.934987 0.383379 0
0.968765 8.79117 0
0.393865 9.93922 0
2.53771 -4.3271 0
4.08042 -5.71064 0
3.19256 -5.29244 0
5.74035 -5.53941 0
4.80061 -5.3388 0
0.753677 -2.44519 0
1.40771 -3.08963 0
0.987718 -1.68363 0
2.35853 -3.27274 0
3.15784 -3.61854 0
6.22452 -4.82239 0
6.82735 -5.92032 0
7.30491 -7.26735 0
-0.662 5.68295 0
-0.136726 6.75293 0
1.30407 7.56355 0
0.750083 6.82835 0
0.251629 4.53861 0
0.830737 3.59229 0
1.51782 -0.995487 0
0.680087 2.2887 0
1.13811 1.37802 0
1.98305 0.15823 0
1.68395 0.979114 0
2.32105 7.39683 0
2.02695 8.68924 0
1.62323 9.99036 0
3.95903 -4.34262 0
5.25749 -4.46539 0
5.99771 -4.01547 0
3.89371 -3.1679 0
2.03771 -2.16886 0
3.1897 -2.65593 0
6.93859 -4.04887 0
7.44154 -4.99489 0
8.05534 -6.10645 0
0.676724 5.64493 0
1.61862 6.50518 0
2.49683 6.43481 0
1.31494 4.38003 0
1.65002 3.14431 0
2.49905 -0.765928 0
2.92847 0.0117427 0
1.97065 1.91721 0
2.69126 1.06204 0
3.26226 7.0285 0
3.08965 8.36806 0
2.88894 9.60293 0
5.03518 -3.29711 0
6.22597 -3.12925 0
4.31647 -2.23696 0
3.27085 -1.54894 0
6.78292 -2.28759 0
7.32951 -3.02768 0
7.97967 -3.99667 0
8.93578 -5.03399 0
2.22039 5.32189 0
3.18465 5.92125 0
2.43452 3.94227 0
2.55191 2.96538 0
3.59812 -0.734665 0
3.69851 0.429926 0
3.04064 2.16146 0
3.62787 1.36004 0
4.0983 5.79583 0
4.11872 6.58865 0
4.2389 7.76314 0
3.98744 9.19009 0
5.65538 -1.93873 0
4.50128 -1.27583 0
6.9169 -1.3139 0
7.77432 -2.05012 0
8.41843 -2.92742 0
9.38815 -3.86056 0
3.60383 4.66994 0
3.43685 3.34595 0
4.73494 0.0439895 0
4.59579 1.1735 0
4.08571 2.34451 0
4.71138 5.02795 0
4.99427 6.07141 0
5.10055 7.33827 0
5.38421 8.63942 0
5.86955 -0.518445 0
7.00905 -0.512408 0
7.9069 -1.14886 0
8.91995 -1.92005 0
9.99442 -2.72241 0
4.67932 3.77563 0
5.94433 1.15223 0
5.34803 2.35622 0
5.58004 4.48834 0
5.67978 5.43761 0
6.0991 6.60894 0
6.46417 7.80341 0
7.07197 0.307184 0
8.11697 -0.169352 0
9.02289 -0.780145 0
10.1822 -1.39532 0
7.15998 1.17418 0
5.77526 3.58781 0
6.78819 2.01807 0
6.43749 2.9507 0
6.34609 4.60737 0
6.86202 5.70126 0
7.32957 6.98937 0
7.93174 0.778717 0
9.07704 0.394271 0
10.409 -0.0526007 0
7.7548 1.82521 0
6.79083 3.65687 0
7.32256 2.72901 0
7.40842 4.86582 0
8.20435 5.98065 0
8.85514 1.47748 0
10.0568 1.23966 0
8.51657 2.76288 0
7.94118 3.82752 0
8.85508 4.84754 0
9.88056 2.62508 0
9.43292 3.66197 0
CELLS 542 2168
3 2 0 4
3 0 1 7
3 4 0 7
3 1 5 8
3 7 1 8
3 3 2 13
3 13 2 4
3 11 3 14
3 14 3 13
3 13 4 15
3 4 7 16
3 15 4 16
3 5 6 17
3 8 5 17
3 6 9 18
3 17 6 18
3 7 8 19
3 16 7 19
3 8 17 20
3 19 8 20
3 9 10 23
3 18 9 23
3 10 21 24
3 23 10 24
3 12 11 25
3 25 11 14
3 26 12 27
3 27 12 25
3 14 13 29
3 29 13 15
3 25 14 30
3 30 14 29
3 29 15 31
3 15 16 33
3 31 15 33
3 16 19 34
3 33 16 34
3 17 18 35
3 20 17 35
3 18 23 36
3 35 18 36
3 19 20 37
3 34 19 37
3 20 35 38
3 37 20 38
3 21 22 39
3 24 21 39
3 22 32 40
3 39 22 40
3 23 24 41
3 36 23 41
3 24 39 42
3 41 24 42
3 27 25 44
3 44 25 30
3 28 26 45
3 45 26 27
3 45 27 46
3 46 27 44
3 47 28 48
3 48 28 45
3 30 29 50
3 50 29 31
3 44 30 51
3 51 30 50
3 50 31 52
3 31 33 52
3 32 43 53
3 40 32 53
3 53 43 54
3 33 34 55
3 34 37 55
3 33 55 52
3 35 36 56
3 38 35 56
3 36 41 57
3 56 36 57
3 37 38 58
3 38 56 58
3 37 58 55
3 39 40 59
3 42 39 59
3 40 53 60
3 59 40 60
3 41 42 61
3 57 41 61
3 42 59 62
3 61 42 62
3 43 63 54
3 46 44 64
3 64 44 51
3 48 45 65
3 65 45 46
3 65 46 66
3 66 46 64
3 49 47 67
3 67 47 48
3 67 48 68
3 68 48 65
3 69 49 70
3 70 49 67
3 52 55 72
3 64 51 73
3 51 50 73
3 50 52 73
3 73 52 74
3 74 52 72
3 53 54 75
3 60 53 75
3 54 63 76
3 54 76 77
3 75 54 77
3 55 58 78
3 72 55 78
3 72 78 79
3 56 57 80
3 57 61 80
3 56 80 58
3 58 80 81
3 78 58 81
3 59 60 82
3 62 59 82
3 60 75 83
3 82 60 83
3 61 62 84
3 62 82 84
3 61 84 80
3 63 85 76
3 66 64 86
3 64 73 86
3 68 65 87
3 87 65 66
3 87 66 86
3 70 67 88
3 88 67 68
3 88 68 89
3 89 68 87
3 71 69 90
3 90 69 70
3 90 70 91
3 91 70 88
3 92 71 93
3 93 71 90
3 74 72 94
3 94 72 79
3 86 73 95
3 95 73 74
3 95 74 96
3 96 74 94
3 97 86 95
3 76 85 99
3 75 77 100
3 83 75 100
3 76 99 101
3 77 76 101
3 77 101 102
3 100 77 102
3 94 79 103
3 78 81 104
3 79 78 104
3 79 104 103
3 80 84 105
3 81 80 105
3 81 105 106
3 104 81 106
3 82 83 107
3 83 100 107
3 82 107 84
3 84 107 108
3 105 84 108
3 85 109 99
3 89 87 110
3 87 86 110
3 110 86 97
3 91 88 111
3 111 88 89
3 111 89 110
3 93 90 112
3 112 90 91
3 112 91 113
3 113 91 111
3 98 92 114
3 114 92 93
3 114 93 115
3 115 93 112
3 116 98 114
3 117 103 118
3 96 94 119
3 94 103 119
3 119 103 117
3 97 95 120
3 120 95 96
3 120 96 119
3 121 110 97
3 121 97 122
3 122 97 120
3 123 119 117
3 124 98 116
3 99 109 125
3 99 125 126
3 101 99 126
3 100 102 127
3 100 127 107
3 101 126 128
3 102 101 128
3 102 128 127
3 104 106 129
3 104 129 103
3 103 129 118
3 105 108 130
3 106 105 130
3 106 130 129
3 107 127 131
3 108 107 131
3 108 131 132
3 108 132 130
3 109 134 125
3 125 134 133
3 113 111 135
3 111 110 135
3 135 110 121
3 115 112 136
3 136 112 113
3 136 113 135
3 116 114 137
3 137 114 115
3 137 115 138
3 138 115 136
3 139 124 116
3 139 116 140
3 140 116 137
3 141 135 121
3 118 129 142
3 118 142 143
3 117 118 143
3 123 117 143
3 122 120 144
3 120 119 144
3 144 119 123
3 141 121 145
3 145 121 122
3 145 122 144
3 146 141 145
3 147 144 123
3 147 123 148
3 143 148 123
3 150 124 139
3 149 150 139
3 131 127 151
3 125 133 152
3 126 125 152
3 126 152 153
3 128 126 153
3 128 153 154
3 128 154 127
3 127 154 151
3 152 133 155
3 130 132 156
3 130 156 129
3 129 156 142
3 131 151 157
3 132 131 157
3 132 157 156
3 156 158 142
3 157 151 159
3 133 160 155
3 134 161 133
3 133 161 160
3 138 136 162
3 136 135 162
3 162 135 141
3 140 137 163
3 163 137 138
3 163 138 162
3 149 139 164
3 164 139 140
3 164 140 165
3 165 140 163
3 166 149 164
3 167 162 141
3 167 141 146
3 142 158 168
3 143 142 168
3 143 168 148
3 146 145 169
3 145 144 169
3 169 144 147
3 170 167 146
3 170 146 169
3 171 169 147
3 171 147 148
3 171 148 172
3 168 172 148
3 173 149 166
3 174 150 149
3 173 174 149
3 154 175 151
3 151 175 159
3 152 155 176
3 153 152 176
3 153 176 177
3 153 177 154
3 154 177 175
3 155 160 178
3 155 178 179
3 176 155 179
3 156 157 180
3 156 180 158
3 157 159 181
3 157 181 180
3 158 180 182
3 158 182 168
3 159 175 183
3 159 183 181
3 175 184 183
3 160 186 178
3 178 186 185
3 161 187 160
3 160 187 186
3 165 163 188
3 163 162 188
3 188 162 167
3 166 164 189
3 189 164 165
3 189 165 188
3 190 173 166
3 190 166 191
3 191 166 189
3 192 188 167
3 192 167 170
3 193 192 170
3 182 194 168
3 194 172 168
3 193 170 195
3 170 169 195
3 195 169 171
3 196 195 171
3 196 171 172
3 194 197 172
3 197 198 172
3 198 196 172
3 200 173 190
3 199 200 190
3 201 174 173
3 200 201 173
3 176 179 202
3 177 176 202
3 177 202 175
3 175 202 184
3 178 185 203
3 178 203 179
3 179 203 202
3 203 185 204
3 202 205 184
3 183 206 181
3 180 181 206
3 180 206 182
3 182 206 194
3 183 184 207
3 205 207 184
3 183 207 206
3 185 208 204
3 186 209 185
3 185 209 208
3 187 210 186
3 186 210 209
3 191 189 211
3 189 188 211
3 211 188 192
3 199 190 212
3 212 190 191
3 212 191 211
3 213 199 212
3 214 211 192
3 214 192 193
3 215 214 193
3 215 193 195
3 206 216 194
3 216 197 194
3 216 217 197
3 215 195 218
3 218 195 196
3 198 218 196
3 217 219 197
3 219 218 198
3 197 219 198
3 220 199 213
3 221 200 199
3 220 221 199
3 222 201 200
3 221 222 200
3 203 204 223
3 203 223 202
3 202 223 205
3 204 208 224
3 204 224 223
3 205 223 225
3 205 225 207
3 207 225 226
3 207 226 206
3 226 216 206
3 208 228 224
3 224 228 227
3 209 229 208
3 229 228 208
3 210 230 209
3 209 230 229
3 213 212 231
3 212 211 231
3 231 211 214
3 232 220 213
3 232 213 231
3 233 231 214
3 233 214 215
3 234 233 215
3 234 215 218
3 226 235 216
3 235 217 216
3 235 236 217
3 217 236 219
3 237 234 218
3 237 218 219
3 236 238 219
3 238 237 219
3 240 220 232
3 239 240 232
3 241 221 220
3 240 241 220
3 242 222 221
3 241 242 221
3 224 227 243
3 224 243 223
3 223 243 225
3 225 243 244
3 225 244 226
3 226 244 235
3 227 245 243
3 228 246 227
3 227 246 245
3 229 247 228
3 228 247 246
3 230 248 229
3 229 248 247
3 239 232 249
3 232 231 249
3 249 231 233
3 250 249 233
3 250 233 234
3 237 250 234
3 244 251 235
3 235 251 236
3 251 252 236
3 236 252 238
3 252 253 238
3 253 250 237
3 253 237 238
3 254 239 249
3 255 240 239
3 254 255 239
3 256 241 240
3 255 256 240
3 257 242 241
3 256 257 241
3 245 258 243
3 243 258 244
3 244 258 251
3 245 259 258
3 246 260 245
3 245 260 259
3 247 261 246
3 246 261 260
3 248 262 247
3 247 262 261
3 254 249 263
3 263 249 250
3 253 263 250
3 258 264 251
3 251 264 252
3 264 265 252
3 265 263 253
3 252 265 253
3 266 254 263
3 267 255 254
3 266 267 254
3 268 256 255
3 267 268 255
3 269 257 256
3 268 269 256
3 259 270 258
3 270 264 258
3 260 271 259
3 259 271 270
3 261 272 260
3 260 272 271
3 262 273 261
3 273 272 261
3 270 274 264
3 275 266 263
3 275 263 265
3 274 276 264
3 276 265 264
3 276 277 265
3 277 275 265
3 278 267 266
3 275 278 266
3 279 268 267
3 278 279 267
3 280 269 268
3 279 280 268
3 271 281 270
3 270 281 274
3 272 282 271
3 271 282 281
3 273 283 272
3 272 283 282
3 281 284 274
3 274 284 276
3 285 278 275
3 277 285 275
3 284 286 276
3 286 285 277
3 276 286 277
3 287 279 278
3 285 287 278
3 288 280 279
3 287 288 279
3 282 289 281
3 281 289 284
3 283 290 282
3 282 290 289
3 289 291 284
3 284 291 286
3 291 292 286
3 292 287 285
3 286 292 285
3 293 288 287
3 292 293 287
3 290 294 289
3 289 294 291
3 294 295 291
3 295 293 292
3 291 295 292
CELL_TYPES 542
5
5
5
5
5
5
5
5
5
5
5
5
5
5
5
5
5
5
5
5
5
5
5
5
5
5
5
5
5
5
5
5
5
5
5
5
5
5
5
5
5
5
5
5
5
5
5
5
5
5
5
5
5
5
5
5
5
5
5
5
5
5
5
5
5
5
5
5
5
5
5
5
5
5
5
5
5
5
5
5
5
5
5
5
5
5
5
5
5
5
5
5
5
5
5
5
5
5
5
5
5
5
5
5
5
5
5
5
5
5
5
5
5
5
5
5
5
5
5
5
5
5
5
5
5
5
5
5
5
5
5
5
5
5
5
5
5
5
5
5
5
5
5
5
5
5
5
5
5
5
5
5
5
5
5
5
5
5
5
5
5
5
5
5
5
5
5
5
5
5
5
5
5
5
5
5
5
5
5
5
5
5
5
5
5
5
5
5
5
5
5
5
5
5
5
5
5
5
5
5
5
5
5
5
5
5
5
5
5
5
5
5
5
5
5
5
5
5
5
5
5
5
5
5
5
5
5
5
5
5
5
5
5
5
5
5
5
5
5
5
5
5
5
5
5
5
5
5
5
5
5
5
5
5
5
5
5
5
5
5
5
5
5
5
5
5
5
5
5
5
5
5
5
5
5
5
5
5
5
5
5
5
5
5
5
5
5
5
5
5
5
5
5
5
5
5
5
5
5
5
5
5
5
5
5
5
5
5
5
5
5
5
5
5
5
5
5
5
5
5
5
5
5
5
5
5
5
5
5
5
5
5
5
5
5
5
5
5
5
5
5
5
5
5
5
5
5
5
5
5
5
5
5
5
5
5
5
5
5
5
5
5
5
5
5
5
5
5
5
5
5
5
5
5
5
5
5
5
5
5
5
5
5
5
5
5
5
5
5
5
5
5
5
5
5
5
5
5
5
5
5
5
5
5
5
5
5
5
5
5
5
5
5
5
5
5
5
5
5
5
5
5
5
5
5
5
5
5
5
5
5
5
5
5
5
5
5
5
5
5
5
5
5
5
5
5
5
5
5
5
5
5
5
5
5
5
5
5
5
5
5
5
5
5
5
5
5
5
5
5
5
5
5
5
5
5
5
5
5
5
5
5
5
5
5
5
5
5
5
5
5
5
5
5
5
5
5
5
5
5
5
5
5
5
5
5
5
5
5
5
5
5
5
5
5
5
5
5
5
5
5
5
5
5
5
5
5
5
5
5
5
5
5
5
5
5
5
5
5
5
5
5
POINT_DATA 296
SCALARS concentrations float 4
LOOKUP_TABLE default
0 0.993662 0.0454922 600.967
0 0.99351 0.0358891 594.493
0 0.994943 0.047042 600.844
0 0.996981 0.0384949 561.184
0 0.995223 0.0367732 540.919
0 0.992446 0.0299693 607.432
0 0.992935 0.0473367 645.462
0 0.99371 0.0358425 545.486
0 0.993254 0.0365137 579.822
0 0.992084 0.0338096 647.367
0 0.991416 0 640.433
0 0.99792 0.0374496 549.649
0 0.996624 0.0417455 552.714
0 0.996733 0.0355518 530.019
0 0.998124 0.036491 537.813
0 0.995783 0.0353104 530.409
0 0.993509 0.0368776 539.041
0 0.991574 0.0251102 593.569
0 0.990345 0.0508696 590.074
0 0.992171 0.0365763 545.125
0 0.990421 0.0148602 594.326
0 0.994577 0 654.317
0 0.996879 0.0306426 640.138
0 0.990759 0 628.609
0 0.99273 0 629.985
0 0.997129 0.0336494 539.558
0 0.996329 0.0428347 552.218
0 0.996073 0.0311923 534.864
0 0.994624 0.0448763 555.212
0 0.995787 0.0323345 537.267
0 0.995513 0.0322824 538.836
0 0.992928 0.0327442 516.889
0 0.998005 0.0329628 721.691
0 0.992856 0.0325636 511.41
0 0.992726 0.0302766 518.329
0 0.989319 0 617.615
0 0.99014 0 619.822
0 0.991956 0 614.027
0 0.990867 0 611.484
0 0.995227 0 642.197
0 0.997388 0 654.681
0 0.991159 0 620.444
0 0.992771 0 620.885
0 0.997486 0.0336495 746.033
0 0.995342 0.0308362 537.1
0 0.99525 0.0294312 525.401
0 0.995025 0.0290887 536.633
0 0.993202 0.0486503 485.05
0 0.992284 0.0308685 485.821
0 0.996186 0.03292 423.28
0 0.992046 0.032887 517.849
0 0.992985 0.0328095 530.542
0 0.991105 0.0282511 514.214
0 0.997903 0.0302185 706.446
0 0.99733 0.0331531 750.504
0 0.991412 0.0194239 550.819
0 0.991953 0 611.765
0 0.990737 0 613.19
0 0.992017 0.0191919 565.96
0 0.995103 0 633.497
0 0.996805 0 647.96
0 0.991124 0 613.589
0 0.993842 0 617.139
0 0.99721 0.0316577 777.903
0 0.992892 0.0242764 548.47
0 0.993555 0.0237912 509.315
0 0.993059 0.0205185 523.401
0 0.993288 0.0428646 505.279
0 0.989989 0.0295071 487.403
0 1.00078 0.0356744 470.012
0 0.997366 0.0492991 544.309
0 1.00326 0.005 512.704
0 0.988952 0 623.658
0 0.990958 0.0298637 528.854
0 0.989571 0.017754 525.872
0 0.996996 0 668.479
0 0.997082 0.0329294 790.994
0 0.996517 0.0251547 760.389
0 0.988799 0.0158775 553.28
0 0.988638 0 626.924
0 0.990951 0 615.197
0 0.989054 0.0176925 567.948
0 0.995328 0 631.858
0 0.995667 0 650.997
0 0.993273 0 615.153
0 0.99735 0.0316981 792.3
0 0.990702 0.00564666 589.397
0 0.989518 0.0182739 508.74
0 0.991646 0.0478904 572.679
0 0.987004 0.0358665 511.549
0 1.00007 0.005 534.768
0 0.994976 0.005 554.283
0 1.00266 0.005 505.465
0 1.00058 0.005 524.214
0 0.987096 0.0115384 539.982
0 0.989758 0 613.906
0 0.988181 0 616.969
0 0.989449 0.0436186 524.769
0 1.00266 0 500.25
0 0.997226 0.0307614 826.618
0 0.996099 0 666.229
0 0.99749 0.0238317 797.947
0 0.996226 0 683.958
0 0.986978 0 621.354
0 0.987231 0.0187852 557.762
0 0.991032 0 617.786
0 0.987074 0 620.274
0 0.995775 0 640.583
0 0.993754 0.0261422 624.402
0 0.997078 0.0316143 799.656
0 0.989411 0.0190031 480.351
0 0.988626 0.0320503 517.869
0 0.996739 0.005 545.647
0 0.992666 0.0390829 625.687
0 1.00012 0.00993275 532.578
0 0.99454 0.00995725 520.035
0 1.00128 0.00993966 526.637
0 0.990065 0.0224079 497.058
0 0.988878 0 619.031
0 0.989734 0 617.925
0 0.989983 0.0131269 515.129
0 0.989013 0.0432873 513.541
0 0.988153 0 612.08
0 0.98889 0 616.209
0 1.00918 0.005 499.454
0 0.996997 0.0289772 835.269
0 0.998576 0.0220563 817.466
0 0.99525 0.0271329 708.326
0 0.997786 0.0283524 739.104
0 0.988998 0.0135965 533.557
0 0.99196 0.00178261 617.852
0 0.992047 0.0147419 643.373
0 0.990769 0.0146173 616.863
0 0.997217 0.0320588 828.891
0 0.996778 0.0283464 748.949
0 0.988922 0.0410403 497.213
0 0.990972 0 555.189
0 0.991423 0.00990267 531.979
0 0.988237 0.0148468 510.089
0 1.00332 0.00990117 527.462
0 0.99102 0.009963 542.803
0 0.988486 0 585.568
0 0.986237 0.0360036 537.058
0 0.986563 0.0269624 510.334
0 0.990351 0 615.83
0 0.988391 0 608.494
0 0.987533 0 597.975
0 0.986855 0.0215449 534.392
0 0.988346 0.0158338 520.174
0 0.996103 0.0142326 446.108
0 1.00405 0.005 499.073
0 0.991432 0.0147905 665.391
0 0.99784 0.0224078 836.459
0 0.998036 0.0286007 768.595
0 0.993577 0.0151083 701.019
0 0.997807 0.0248838 833.868
0 0.988327 0.0250716 538.896
0 0.987808 0.0202306 647.865
0 0.983204 0.023598 573.815
0 0.989415 0.0332022 640.226
0 0.997874 0.0320286 820.979
0 0.997331 0.0276954 737.043
0 0.988822 0 565.303
0 0.987284 0.005 550.014
0 0.991687 0.00977617 578.77
0 0.986428 0.0146725 533.747
0 0.99271 0.005 540.928
0 0.98631 0 584.309
0 0.989514 0.00994694 586.234
0 0.988687 0 616.525
0 0.991105 0 604.072
0 0.98515 0.00845345 612.382
0 0.993295 0 624.802
0 0.99001 0.005 527.903
0 0.991538 0.00996271 478.024
0 0.991537 0.0284611 704.874
0 0.995626 0.0291871 782.055
0 0.992972 0.020976 723.237
0 0.997852 0.0369619 797.648
0 0.995269 0.0390679 785.734
0 0.985711 0.0175476 600.354
0 0.986793 0.0231164 633.589
0 0.988086 0.00995628 601.478
0 0.988502 0.0283465 658.577
0 0.992246 0.0375994 678.467
0 0.99778 0.040304 736.695
0 0.998738 0.0380925 779.499
0 0.998278 0.0320052 804.611
0 0.98701 0.00992637 559.124
0 0.988296 0.0148694 563.896
0 0.992615 0.0142742 582.534
0 0.991035 0.0147549 591.496
0 0.983309 0.0220516 487.939
0 0.994694 0.005 605.016
0 0.993686 0.0245888 581.824
0 0.987049 0.005 622.91
0 0.979227 0 630.171
0 0.988764 0 632.183
0 0.987225 0 632.926
0 0.991974 0.00338315 555.981
0 0.989156 0.005 534.568
0 0.986228 0 512.727
0 0.993668 0.0320143 737.029
0 0.995587 0.0410022 747.173
0 0.995578 0.04174 720.573
0 0.992309 0.0385108 682.73
0 0.990805 0.00992937 620.302
0 0.991716 0.0315875 664.42
0 0.997445 0.0415967 704.574
0 0.998872 0.0411791 711.855
0 0.999241 0.0386008 753.161
0 0.987231 0.0147031 582.21
0 0.993253 0.0146967 595.737
0 0.995734 0.0115198 496.51
0 0.988273 0.005 596.126
0 0.990624 0.005 615.441
0 0.991147 0.0500799 631.971
0 0.985686 0.0339477 582.803
0 0.980663 0 634.596
0 0.984004 0.00692993 619.828
0 0.995498 0.005 565.941
0 0.991091 0.005 544.689
0 0.987584 0.005 525.143
0 0.99432 0.0422306 708.134
0 0.994923 0.0422783 723.969
0 0.993242 0.0225869 684.104
0 0.990634 0.026173 625.315
0 0.993967 0.0424338 735.365
0 0.996727 0.0426095 705.895
0 0.998308 0.042259 692.863
0 0.998788 0.0420245 679.221
0 0.990476 0.00986847 633.618
0 0.994434 0.00994954 565.194
0 0.987681 0.00994963 596.576
0 0.983078 0.021161 516.58
0 0.988283 0.0492146 676.982
0 0.989175 0.027303 592.34
0 0.989441 0.00976893 616.192
0 0.992554 0.00921655 616.913
0 0.99624 0 588.366
0 1.00401 0.005 576.551
0 1.00297 0.005 559.668
0 0.996583 0.005 537.28
0 0.992935 0 694.002
0 0.99059 0.0495055 693.657
0 0.993847 0.0454754 759.481
0 0.996313 0.0425952 725.402
0 0.997435 0.0437413 724.47
0 0.997783 0.0438302 707.841
0 0.987123 0.00996331 636.105
0 0.983056 0.0293153 549.616
0 0.990263 0.0159588 625.3
0 0.993856 0.0268817 589
0 0.989169 0 637.831
0 0.99168 0.0456082 626.525
0 0.995142 0.0515795 680.114
0 1.00295 0.0420652 677.408
0 1.00722 0.0476843 614.752
0 0.992192 0.0469033 690.122
0 0.995535 0.0459831 736.845
0 0.996641 0.0424901 743.071
0 0.99704 0.0458169 740.938
0 0.996545 0.0425595 684.737
0 0.984116 0 620.231
0 0.994421 0.0500177 614.35
0 0.986566 0 642.782
0 0.991526 0.0525811 615.643
0 0.989436 0.0523705 623.221
0 0.993581 0.0521893 580.332
0 0.997615 0.0463936 632.43
0 0.995547 0.0455924 724.13
0 0.9958 0.0475139 737.708
0 0.997675 0.0464201 759.933
0 0.997274 0.0436586 733.155
0 0.996386 0.0472556 699.456
0 0.987841 0.048731 628.709
0 0.992627 0.047039 639.637
0 0.986185 0.0513577 626.767
0 0.993082 0.051933 558.679
0 0.993822 0.0521447 589.498
0 0.993962 0.0526693 568.004
0 0.995288 0.0466918 715.873
0 0.996617 0.0488408 720.768
0 0.997068 0.0495805 705.572
0 0.995786 0.0469099 667.774
0 0.996567 0.0479338 602.351
0 0.995466 0.0476148 624.67
0 0.995852 0.0497413 537.752
0 0.993626 0.0475207 566.03
0 0.997326 0.0471791 693.891
0 0.997612 0.0469565 718.795
0 0.996621 0.0466961 647.864
0 0.997326 0.0477897 606.278
0 0.997641 0.0461819 615.861
0 0.997056 0.0518545 604.906
0 0.996639 0.0460917 639.935
VECTORS fa_u float
-0.00237903 -0.00101518 0
0.0197918 0.010358 -0
0.039454 0.0113872 -0
0.00187796 0.000126008 -0
1e-08 0 0
0.00421121 0.00318643 -0
0.00356854 0.00344011 -0
1e-08 0 0
1e-08 0 0
0.00912739 0.0120767 -0
3.71962e-05 6.22999e-05 -0
-9.76202e-06 -3.43298e-07 0
0.0422038 -0.00554791 -0
1e-08 0 0
1e-08 0 0
1e-08 0 0
1e-08 0 0
1e-08 0 0
1e-08 0 0
1e-08 0 0
1e-08 0 0
0.0105439 0.0252461 -0
-1.91013e-07 -7.15146e-07 0
1e-08 0 0
1e-08 0 0
1e-08 0 0
-0.00564307 0.00141572 -0
1e-08 0 0
0.0256834 -0.00843489 0
1e-08 0 0
1e-08 0 0
1e-08 0 0
0.00345988 0.0265409 -0
1e-08 0 0
1e-08 0 0
1e-08 0 0
1e-08 0 0
1e-08 0 0
1e-08 0 0
1e-08 0 0
1e-08 0 0
1e-08 0 0
1e-08 0 0
-0.000193897 0.00366147 0
1e-08 0 0
1e-08 0 0
1e-08 0 0
0.02337 -0.0154627 0
1e-08 0 0
0.00454966 -0.00455869 0
1e-08 0 0
1e-08 0 0
1e-08 0 0
1e-08 0 0
1e-08 0 0
1e-08 0 0
1e-08 0 0
1e-08 0 0
1e-08 0 0
1e-08 0 0
1e-08 0 0
1e-08 0 0
1e-08 0 0
-4.68389e-06 4.31671e-05 0
1e-08 0 0
1e-08 0 0
1e-08 0 0
1e-08 0 0
1e-08 0 0
-0.0172075 0.0152627 -0
1e-08 0 0
0.0360894 -0.0378236 0
1e-08 0 0
1e-08 0 0
1e-08 0 0
1e-08 0 0
1e-08 0 0
1e-08 0 0
1e-08 0 0
1e-08 0 0
1e-08 0 0
1e-08 0 0
1e-08 0 0
1e-08 0 0
1e-08 0 0
-0.00646307 0.0259647 0
1e-08 0 0
1e-08 0 0
1e-08 0 0
1e-08 0 0
1e-08 0 0
1e-08 0 0
0.00131339 -0.00219259 0
1e-08 0 0
1e-08 0 0
1e-08 0 0
1e-08 0 0
1e-08 0 0
0.00679802 -0.0169701 0
1e-08 0 0
1e-08 0 0
1e-08 0 0
1e-08 0 0
1e-08 0 0
1e-08 0 0
1e-08 0 0
1e-08 0 0
1e-08 0 0
1e-08 0 0
-0.00621863 0.0119773 0
1e-08 0 0
1e-08 0 0
1e-08 0 0
1e-08 0 0
1e-08 0 0
1e-08 0 0
1e-08 0 0
1e-08 0 0
1e-08 0 0
1e-08 0 0
1e-08 0 0
1e-08 0 0
1e-08 0 0
1e-08 0 0
-0.000116629 0.000393955 -0
1e-08 0 0
1e-08 0 0
1e-08 0 0
1e-08 0 0
1e-08 0 0
1e-08 0 0
1e-08 0 0
1e-08 0 0
1e-08 0 0
0.000356884 -0.000580036 -0
1e-08 0 0
1e-08 0 0
1e-08 0 0
1e-08 0 0
1e-08 0 0
1e-08 0 0
1e-08 0 0
1e-08 0 0
1e-08 0 0
1e-08 0 0
1e-08 0 0
1e-08 0 0
1e-08 0 0
1e-08 0 0
1e-08 0 0
0.00438053 -0.030585 0
1e-08 0 0
1e-08 0 0
1e-08 0 0
1e-08 0 0
1e-08 0 0
1e-08 0 0
1e-08 0 0
1e-08 0 0
1e-08 0 0
1e-08 0 0
-0.00209471 0.00322014 0
1e-08 0 0
1e-08 0 0
1e-08 0 0
1e-08 0 0
1e-08 0 0
1e-08 0 0
1e-08 0 0
1e-08 0 0
1e-08 0 0
1e-08 0 0
1e-08 0 0
1e-08 0 0
-7.65852e-06 0.00029627 -0
1e-08 0 0
1e-08 0 0
1e-08 0 0
1e-08 0 0
1e-08 0 0
1e-08 0 0
1e-08 0 0
1e-08 0 0
1e-08 0 0
1e-08 0 0
1e-08 0 0
1e-08 0 0
-0.037724 0.0346619 0
1e-08 0 0
1e-08 0 0
1e-08 0 0
1e-08 0 0
1e-08 0 0
1e-08 0 0
1e-08 0 0
1e-08 0 0
1e-08 0 0
1e-08 0 0
1e-08 0 0
1e-08 0 0
1e-08 0 0
-0.00585461 -0.0434378 0
1e-08 0 0
1e-08 0 0
1e-08 0 0
1e-08 0 0
1e-08 0 0
1e-08 0 0
1e-08 0 0
1e-08 0 0
0.00374864 -0.00273738 -0
1e-08 0 0
1e-08 0 0
1e-08 0 0
1e-08 0 0
1e-08 0 0
1e-08 0 0
1e-08 0 0
1e-08 0 0
1e-08 0 0
1e-08 0 0
1e-08 0 0
-0.000500328 -0.0014781 0
1e-08 0 0
1e-08 0 0
1e-08 0 0
1e-08 0 0
1e-08 0 0
1e-08 0 0
1e-08 0 0
-0.0324761 0.0192728 0
1e-08 0 0
1e-08 0 0
1e-08 0 0
1e-08 0 0
1e-08 0 0
1e-08 0 0
1e-08 0 0
1e-08 0 0
1e-08 0 0
1e-08 0 0
1e-08 0 0
-3.4666e-05 -8.97768e-05 0
1e-08 0 0
1e-08 0 0
1e-08 0 0
1e-08 0 0
1e-08 0 0
0.0052531 -0.00240577 -0
1e-08 0 0
1e-08 0 0
1e-08 0 0
1e-08 0 0
1e-08 0 0
1e-08 0 0
1e-08 0 0
1e-08 0 0
-0.0134406 -0.024006 0
1e-08 0 0
1e-08 0 0
1e-08 0 0
1e-08 0 0
-0.0429577 0.0138358 0
1e-08 0 0
1e-08 0 0
1e-08 0 0
1e-08 0 0
1e-08 0 0
1e-08 0 0
-0.00233338 -0.00275099 0
1e-08 0 0
1e-08 0 0
1e-08 0 0
0.000264072 -4.10112e-05 -0
1e-08 0 0
1e-08 0 0
1e-08 0 0
1e-08 0 0
1e-08 0 0
1e-08 0 0
-0.00295036 -0.0028167 0
1e-08 0 0
1e-08 0 0
-0.066821 -0.00317941 0
1e-08 0 0
1e-08 0 0
1e-08 0 0
1e-08 0 0
-0.0114081 -0.0081254 0
1e-08 0 0
0.00696166 0.00137401 -0
1e-08 0 0
1e-08 0 0
-0.00154514 -0.000818703 0
-0.0297859 -0.00767126 0
-0.000783274 -0.000361414 0
