# vtk DataFile Version 2.0
CellBP Time: 3.28
ASCII
DATASET UNSTRUCTURED_GRID
POINTS 297 double
-9.02954 -4.34221 0
-8.63897 -5.43168 0
-9.53243 -2.98575 0
-9.74504 -1.4612 0
-8.21274 -3.08892 0
-7.69088 -6.40942 0
-6.90907 -7.28352 0
-7.63284 -4.19794 0
-7.00846 -5.21749 0
-5.93909 -8.36245 0
-4.71276 -8.97442 0
-9.78866 -0.373893 0
-9.78749 1.29585 0
-8.10317 -1.90254 0
-8.51253 -0.95886 0
-7.39324 -2.36773 0
-7.03541 -3.0636 0
-6.23339 -6.1442 0
-5.56953 -7.09754 0
-6.57154 -4.1089 0
-5.91087 -4.9162 0
-3.55206 -9.68362 0
-2.40513 -10.3021 0
-4.65471 -7.60314 0
-3.65952 -8.22181 0
-8.54196 0.222818 0
-9.34853 2.49782 0
-8.25815 1.30964 0
-9.01783 3.57576 0
-7.12489 -1.32777 0
-7.53757 -0.320635 0
-6.36932 -1.66683 0
-1.12317 -10.3772 0
-6.04851 -2.48552 0
-5.75743 -3.27499 0
-5.38498 -5.9024 0
-4.68878 -6.2541 0
-4.98786 -4.13881 0
-4.80481 -4.99625 0
-2.62541 -8.69129 0
-1.88324 -9.04258 0
-3.78843 -7.03905 0
-3.00169 -7.29921 0
0.485767 -10.4869 0
-7.47955 0.713128 0
-7.89614 2.36021 0
-7.29848 1.6093 0
-8.54964 5.10282 0
-7.35108 3.77566 0
-7.79833 5.76895 0
-6.24337 -0.943498 0
-6.43315 -0.0141508 0
-5.10431 -1.35319 0
-0.581968 -9.44354 0
0.546979 -8.82884 0
-4.72599 -2.61707 0
-4.12477 -5.28758 0
-3.60023 -5.99306 0
-4.18915 -3.96371 0
-1.96153 -7.6436 0
-1.04453 -8.17175 0
-2.92687 -6.24487 0
-2.08104 -6.60845 0
1.65895 -10.2051 0
-6.56155 0.945831 0
-7.05634 2.82493 0
-6.5125 2.16606 0
-6.79781 4.55014 0
-6.59061 3.84278 0
-7.24183 7.03224 0
-6.39823 5.71844 0
-5.79089 7.9495 0
-3.51654 -1.29871 0
-5.36916 0.042162 0
-3.9905 -0.270412 0
0.291286 -8.02435 0
1.73533 -8.80977 0
1.35877 -8.27139 0
-3.09152 -2.53152 0
-2.80585 -1.54354 0
-2.80402 -4.80483 0
-2.7685 -3.4179 0
-1.23865 -6.78393 0
-0.330297 -7.33991 0
-1.57585 -5.61813 0
2.78626 -9.99409 0
-5.37386 1.8142 0
-5.80525 2.87715 0
-5.9846 4.83516 0
-5.50334 3.8812 0
-5.63281 6.82478 0
-5.53994 5.63056 0
-4.69659 8.47266 0
-4.35604 7.0375 0
-3.06569 -0.458331 0
-3.84435 0.793713 0
-3.10509 0.523557 0
-3.71275 2.4631 0
-3.73254 9.19527 0
3.0476 -8.59005 0
0.577648 -7.0739 0
2.31773 -7.90257 0
1.49196 -7.24192 0
-1.88286 -1.16891 0
-2.27125 -2.50433 0
-1.83175 -4.12906 0
-1.72423 -3.16085 0
-0.073776 -6.22086 0
-0.824057 -4.48135 0
4.33529 -9.81858 0
-4.74217 3.32483 0
-5.04541 4.71207 0
-4.5562 6.06256 0
-3.95978 5.04242 0
-3.44065 7.83235 0
-3.57268 6.49577 0
-2.67542 8.30043 0
-1.30359 -0.44522 0
-1.04805 -1.17153 0
-1.64705 0.52016 0
-2.86924 1.39717 0
-2.94137 2.91507 0
-2.60411 1.94481 0
-0.880612 0.323117 0
-2.30639 9.80129 0
4.27967 -8.32335 0
3.21827 -7.43647 0
1.20393 -6.11067 0
2.47076 -7.11446 0
-1.07439 -2.10019 0
-0.876009 -3.4414 0
0.393425 -5.05316 0
-0.171781 -3.89018 0
5.2386 -7.58341 0
5.47815 -9.03293 0
-3.32538 4.12323 0
-3.3508 5.44145 0
-2.47077 6.99696 0
-2.68323 6.02508 0
-1.34243 8.55597 0
-1.75981 7.55533 0
-2.22908 3.72851 0
-0.281977 -1.5723 0
-0.520747 -0.536529 0
-1.30952 1.30952 0
-1.78822 2.15552 0
-1.18001 3.38775 0
-0.416449 1.02893 0
-0.18965 -0.0739104 0
-0.140393 8.78308 0
-0.98779 9.98598 0
1.66593 -4.95738 0
4.11612 -6.89128 0
3.2219 -6.14195 0
2.38139 -5.80703 0
5.09748 -6.37119 0
-0.152221 -2.55271 0
1.21598 -3.90295 0
0.412367 -2.06459 0
1.92882 -4.10981 0
6.47484 -6.78871 0
6.74022 -8.32813 0
-2.10636 5.15606 0
-1.78032 6.34518 0
-0.350167 7.48314 0
-0.954964 6.73493 0
0.439158 7.72635 0
-0.838016 4.05947 0
0.578574 -0.986114 0
-0.552686 2.09554 0
-0.0111195 3.06285 0
0.576778 1.15104 0
1.04446 0.180366 0
0.945619 9.0381 0
0.466989 10.4666 0
3.10569 -4.55286 0
4.09565 -5.99811 0
3.33277 -5.3266 0
6.05976 -5.80015 0
5.11175 -5.40346 0
1.17654 -2.75215 0
1.71998 -3.33477 0
1.0297 -1.97046 0
2.5654 -3.47567 0
3.26955 -3.62881 0
6.38343 -4.8428 0
6.98146 -6.03614 0
7.65127 -7.34409 0
-0.342281 5.85599 0
0.0300486 6.73706 0
1.51907 7.37497 0
0.98943 6.76407 0
0.183468 4.28342 0
0.73272 3.46579 0
1.48128 -1.22468 0
0.643926 2.20782 0
1.36684 1.29639 0
2.0058 -0.0654264 0
1.8369 0.675518 0
2.20839 7.32171 0
1.9387 8.82225 0
1.64342 10.0079 0
4.35041 -4.50741 0
5.3617 -4.27779 0
6.03247 -3.84208 0
4.04046 -3.27689 0
2.36191 -2.55451 0
3.25478 -2.68241 0
6.93968 -3.98989 0
7.63135 -4.87857 0
8.30545 -6.34585 0
1.191 5.46654 0
1.76697 6.17768 0
2.69107 6.55863 0
1.42909 4.44057 0
1.64077 3.02156 0
2.47732 -0.873643 0
3.04968 -0.159276 0
2.19623 1.85635 0
2.77208 0.71827 0
3.44371 7.05635 0
3.02502 8.22027 0
3.00057 9.82502 0
4.94275 -3.30699 0
6.14395 -3.10194 0
4.4231 -2.41574 0
3.28906 -1.59555 0
6.90904 -2.31237 0
7.52611 -3.16386 0
8.39763 -4.08964 0
9.18157 -5.27058 0
2.42264 5.13281 0
3.23494 5.83715 0
2.42347 3.79549 0
2.9007 2.97146 0
3.70259 -0.83808 0
3.68369 0.0538017 0
3.28066 2.24411 0
3.60629 1.05473 0
4.21405 5.72069 0
4.34166 6.58459 0
3.98336 7.55484 0
3.97417 9.45313 0
5.596 -1.81767 0
4.43728 -1.44809 0
6.93884 -1.364 0
7.80737 -1.91874 0
8.29118 -2.79255 0
9.78125 -3.92107 0
3.8271 4.43692 0
3.73069 3.27777 0
4.85082 -0.114271 0
4.72867 1.13568 0
4.22228 2.04344 0
4.86193 5.0892 0
5.12289 6.00538 0
5.04084 7.61718 0
5.27691 8.59414 0
6.33268 -0.500434 0
6.94703 -0.323783 0
8.00154 -1.26492 0
9.05503 -1.84679 0
10.2327 -2.96251 0
4.83344 3.72861 0
5.82632 1.15543 0
5.7263 2.25715 0
5.66793 4.38035 0
5.59774 5.24015 0
6.41603 6.58338 0
6.90824 7.72686 0
7.09601 0.50854 0
8.1967 -0.348516 0
9.19289 -0.923798 0
10.6645 -1.52974 0
7.26894 1.30039 0
5.79927 3.71786 0
6.88426 2.08163 0
6.43572 3.04412 0
6.46819 4.62917 0
6.81561 5.60074 0
7.77627 7.04949 0
8.13867 0.691874 0
9.29821 0.223704 0
10.5086 -0.043855 0
7.97336 1.8197 0
6.69674 3.76745 0
7.50454 2.80012 0
7.59483 4.9286 0
8.37871 5.95726 0
9.02176 1.49299 0
10.4049 1.37097 0
8.53166 2.74294 0
7.78709 3.73967 0
8.9855 5.0914 0
10.2067 2.72406 0
9.53817 4.06952 0
5.49253 -1.0191 0
CELLS 544 2176
3 2 0 4
3 0 1 7
3 4 0 7
3 1 5 8
3 7 1 8
3 3 2 13
3 13 2 4
3 11 3 14
3 14 3 13
3 13 4 15
3 4 7 16
3 15 4 16
3 5 6 17
3 8 5 17
3 6 9 18
3 17 6 18
3 7 8 19
3 16 7 19
3 8 17 20
3 19 8 20
3 9 10 23
3 18 9 23
3 10 21 24
3 23 10 24
3 12 11 25
3 25 11 14
3 26 12 27
3 27 12 25
3 14 13 29
3 29 13 15
3 25 14 30
3 30 14 29
3 29 15 31
3 15 16 33
3 31 15 33
3 16 19 34
3 33 16 34
3 17 18 35
3 20 17 35
3 18 23 36
3 35 18 36
3 20 35 38
3 37 20 38
3 21 22 39
3 24 21 39
3 22 32 40
3 39 22 40
3 23 24 41
3 36 23 41
3 24 39 42
3 41 24 42
3 27 25 44
3 44 25 30
3 28 26 45
3 45 26 27
3 45 27 46
3 46 27 44
3 47 28 48
3 48 28 45
3 30 29 50
3 50 29 31
3 44 30 51
3 51 30 50
3 50 31 52
3 31 33 52
3 32 43 53
3 40 32 53
3 53 43 54
3 33 34 55
3 34 37 55
3 33 55 52
3 36 41 57
3 56 36 57
3 37 38 58
3 38 56 58
3 37 58 55
3 39 40 59
3 42 39 59
3 40 53 60
3 59 40 60
3 41 42 61
3 57 41 61
3 42 59 62
3 61 42 62
3 43 63 54
3 46 44 64
3 64 44 51
3 48 45 65
3 65 45 46
3 65 46 66
3 66 46 64
3 49 47 67
3 67 47 48
3 67 48 68
3 68 48 65
3 69 49 70
3 70 49 67
3 52 55 72
3 64 51 73
3 51 50 73
3 50 52 73
3 73 52 74
3 74 52 72
3 54 63 76
3 54 76 77
3 75 54 77
3 55 58 78
3 72 55 78
3 72 78 79
3 56 57 80
3 57 61 80
3 56 80 58
3 58 80 81
3 78 58 81
3 59 60 82
3 62 59 82
3 60 75 83
3 82 60 83
3 61 62 84
3 62 82 84
3 61 84 80
3 63 85 76
3 66 64 86
3 64 73 86
3 68 65 87
3 87 65 66
3 87 66 86
3 70 67 88
3 88 67 68
3 88 68 89
3 89 68 87
3 71 69 90
3 90 69 70
3 90 70 91
3 91 70 88
3 92 71 93
3 93 71 90
3 74 72 94
3 94 72 79
3 86 73 95
3 95 73 74
3 95 74 96
3 96 74 94
3 97 86 95
3 76 85 99
3 83 75 100
3 76 99 101
3 77 76 101
3 77 101 102
3 94 79 103
3 78 81 104
3 79 78 104
3 79 104 103
3 80 84 105
3 81 80 105
3 81 105 106
3 104 81 106
3 82 83 107
3 83 100 107
3 82 107 84
3 84 107 108
3 105 84 108
3 85 109 99
3 89 87 110
3 87 86 110
3 110 86 97
3 91 88 111
3 111 88 89
3 111 89 110
3 93 90 112
3 112 90 91
3 98 92 114
3 114 92 93
3 114 93 115
3 115 93 112
3 116 98 114
3 117 103 118
3 96 94 119
3 97 95 120
3 120 95 96
3 120 96 119
3 121 97 122
3 122 97 120
3 123 119 117
3 124 98 116
3 99 109 125
3 99 125 126
3 101 99 126
3 100 102 127
3 100 127 107
3 101 126 128
3 102 101 128
3 104 106 129
3 104 129 103
3 103 129 118
3 105 108 130
3 106 105 130
3 106 130 129
3 107 127 131
3 108 107 131
3 108 131 132
3 108 132 130
3 109 134 125
3 125 134 133
3 113 111 135
3 111 110 135
3 115 112 136
3 136 112 113
3 136 113 135
3 116 114 137
3 137 114 115
3 137 115 138
3 138 115 136
3 139 124 116
3 139 116 140
3 140 116 137
3 141 135 121
3 118 129 142
3 118 142 143
3 117 118 143
3 123 117 143
3 122 120 144
3 120 119 144
3 141 121 145
3 145 121 122
3 145 122 144
3 146 141 145
3 147 123 148
3 143 148 123
3 150 124 139
3 149 150 139
3 131 127 151
3 125 133 152
3 126 125 152
3 126 152 153
3 128 126 153
3 128 153 154
3 127 154 151
3 152 133 155
3 130 132 156
3 130 156 129
3 129 156 142
3 131 151 157
3 132 131 157
3 156 158 142
3 157 151 159
3 133 160 155
3 134 161 133
3 133 161 160
3 138 136 162
3 136 135 162
3 162 135 141
3 140 137 163
3 163 137 138
3 163 138 162
3 149 139 164
3 164 139 140
3 164 140 165
3 165 140 163
3 166 149 164
3 167 162 141
3 167 141 146
3 142 158 168
3 143 142 168
3 143 168 148
3 146 145 169
3 145 144 169
3 169 144 147
3 170 167 146
3 170 146 169
3 171 169 147
3 171 147 148
3 171 148 172
3 168 172 148
3 173 149 166
3 174 150 149
3 173 174 149
3 154 175 151
3 151 175 159
3 152 155 176
3 153 152 176
3 153 176 177
3 153 177 154
3 154 177 175
3 155 160 178
3 155 178 179
3 176 155 179
3 156 180 158
3 157 159 181
3 157 181 180
3 158 180 182
3 158 182 168
3 159 175 183
3 159 183 181
3 175 184 183
3 160 186 178
3 178 186 185
3 161 187 160
3 160 187 186
3 165 163 188
3 163 162 188
3 188 162 167
3 166 164 189
3 189 164 165
3 189 165 188
3 190 173 166
3 190 166 191
3 191 166 189
3 192 188 167
3 192 167 170
3 193 192 170
3 182 194 168
3 194 172 168
3 193 170 195
3 170 169 195
3 195 169 171
3 196 195 171
3 196 171 172
3 194 197 172
3 197 198 172
3 198 196 172
3 200 173 190
3 201 174 173
3 200 201 173
3 176 179 202
3 177 176 202
3 177 202 175
3 175 202 184
3 179 203 202
3 203 185 204
3 202 205 184
3 183 206 181
3 180 181 206
3 180 206 182
3 182 206 194
3 183 184 207
3 205 207 184
3 183 207 206
3 185 208 204
3 186 209 185
3 185 209 208
3 187 210 186
3 186 210 209
3 211 188 192
3 199 190 212
3 212 190 191
3 212 191 211
3 213 199 212
3 214 211 192
3 214 192 193
3 215 214 193
3 215 193 195
3 216 197 194
3 216 217 197
3 215 195 218
3 218 195 196
3 198 218 196
3 217 219 197
3 219 218 198
3 197 219 198
3 220 199 213
3 220 221 199
3 222 201 200
3 221 222 200
3 203 204 223
3 204 208 224
3 204 224 223
3 205 223 225
3 205 225 207
3 207 225 226
3 207 226 206
3 208 228 224
3 224 228 227
3 209 229 208
3 229 228 208
3 210 230 209
3 209 230 229
3 212 211 231
3 231 211 214
3 232 220 213
3 233 231 214
3 233 214 215
3 234 233 215
3 234 215 218
3 226 235 216
3 235 217 216
3 235 236 217
3 217 236 219
3 237 234 218
3 237 218 219
3 236 238 219
3 238 237 219
3 240 220 232
3 239 240 232
3 241 221 220
3 240 241 220
3 242 222 221
3 241 242 221
3 224 227 243
3 224 243 223
3 223 243 225
3 225 243 244
3 225 244 226
3 226 244 235
3 227 245 243
3 228 246 227
3 227 246 245
3 229 247 228
3 228 247 246
3 230 248 229
3 229 248 247
3 239 232 249
3 232 231 249
3 249 231 233
3 250 249 233
3 250 233 234
3 237 250 234
3 244 251 235
3 235 251 236
3 251 252 236
3 236 252 238
3 252 253 238
3 253 250 237
3 253 237 238
3 254 239 249
3 255 240 239
3 254 255 239
3 256 241 240
3 255 256 240
3 257 242 241
3 256 257 241
3 245 259 258
3 246 260 245
3 245 260 259
3 247 261 246
3 246 261 260
3 248 262 247
3 247 262 261
3 254 249 263
3 263 249 250
3 253 263 250
3 258 264 251
3 251 264 252
3 264 265 252
3 265 263 253
3 252 265 253
3 266 254 263
3 267 255 254
3 266 267 254
3 268 256 255
3 267 268 255
3 269 257 256
3 268 269 256
3 259 270 258
3 270 264 258
3 260 271 259
3 259 271 270
3 261 272 260
3 260 272 271
3 262 273 261
3 273 272 261
3 270 274 264
3 275 266 263
3 275 263 265
3 274 276 264
3 276 265 264
3 276 277 265
3 277 275 265
3 278 267 266
3 279 268 267
3 278 279 267
3 280 269 268
3 279 280 268
3 271 281 270
3 270 281 274
3 272 282 271
3 271 282 281
3 273 283 272
3 272 283 282
3 281 284 274
3 274 284 276
3 277 285 275
3 284 286 276
3 286 285 277
3 276 286 277
3 287 279 278
3 285 287 278
3 288 280 279
3 287 288 279
3 282 289 281
3 281 289 284
3 283 290 282
3 282 290 289
3 289 291 284
3 284 291 286
3 291 292 286
3 292 287 285
3 286 292 285
3 293 288 287
3 292 293 287
3 290 294 289
3 289 294 291
3 294 295 291
3 295 293 292
3 291 295 292
3 38 36 56
3 36 38 35
3 180 132 157
3 132 180 156
3 185 179 178
3 179 185 203
3 202 223 205
3 223 202 203
3 112 111 113
3 111 112 91
3 206 216 194
3 216 206 226
3 200 199 221
3 199 200 190
3 243 296 244
3 251 244 296
3 251 296 258
3 144 123 147
3 123 144 119
3 188 191 189
3 191 188 211
3 37 19 20
3 19 37 34
3 75 53 54
3 53 75 60
3 127 128 154
3 128 127 102
3 278 275 285
3 275 278 266
3 231 213 212
3 213 231 232
3 119 103 117
3 103 119 94
3 135 97 121
3 97 135 110
3 245 296 243
3 296 245 258
3 100 77 102
3 77 100 75
CELL_TYPES 544
5
5
5
5
5
5
5
5
5
5
5
5
5
5
5
5
5
5
5
5
5
5
5
5
5
5
5
5
5
5
5
5
5
5
5
5
5
5
5
5
5
5
5
5
5
5
5
5
5
5
5
5
5
5
5
5
5
5
5
5
5
5
5
5
5
5
5
5
5
5
5
5
5
5
5
5
5
5
5
5
5
5
5
5
5
5
5
5
5
5
5
5
5
5
5
5
5
5
5
5
5
5
5
5
5
5
5
5
5
5
5
5
5
5
5
5
5
5
5
5
5
5
5
5
5
5
5
5
5
5
5
5
5
5
5
5
5
5
5
5
5
5
5
5
5
5
5
5
5
5
5
5
5
5
5
5
5
5
5
5
5
5
5
5
5
5
5
5
5
5
5
5
5
5
5
5
5
5
5
5
5
5
5
5
5
5
5
5
5
5
5
5
5
5
5
5
5
5
5
5
5
5
5
5
5
5
5
5
5
5
5
5
5
5
5
5
5
5
5
5
5
5
5
5
5
5
5
5
5
5
5
5
5
5
5
5
5
5
5
5
5
5
5
5
5
5
5
5
5
5
5
5
5
5
5
5
5
5
5
5
5
5
5
5
5
5
5
5
5
5
5
5
5
5
5
5
5
5
5
5
5
5
5
5
5
5
5
5
5
5
5
5
5
5
5
5
5
5
5
5
5
5
5
5
5
5
5
5
5
5
5
5
5
5
5
5
5
5
5
5
5
5
5
5
5
5
5
5
5
5
5
5
5
5
5
5
5
5
5
5
5
5
5
5
5
5
5
5
5
5
5
5
5
5
5
5
5
5
5
5
5
5
5
5
5
5
5
5
5
5
5
5
5
5
5
5
5
5
5
5
5
5
5
5
5
5
5
5
5
5
5
5
5
5
5
5
5
5
5
5
5
5
5
5
5
5
5
5
5
5
5
5
5
5
5
5
5
5
5
5
5
5
5
5
5
5
5
5
5
5
5
5
5
5
5
5
5
5
5
5
5
5
5
5
5
5
5
5
5
5
5
5
5
5
5
5
5
5
5
5
5
5
5
5
5
5
5
5
5
5
5
5
5
5
5
5
5
5
5
5
5
5
5
5
5
5
5
5
5
5
5
5
5
5
5
5
5
5
5
5
5
5
5
5
5
5
5
5
5
5
5
5
5
5
5
5
5
5
5
5
5
5
5
5
5
5
5
5
5
5
5
5
5
5
5
5
5
5
5
5
5
5
5
5
POINT_DATA 297
SCALARS concentrations float 4
LOOKUP_TABLE default
0 1.00061 0.0332439 91.4398
0 1.00019 0.0194293 54.5441
0 0.997783 0.005 76.9126
0 0.988704 0.0146853 136.316
0 0.997686 0.0293215 45.2327
0 0.997648 0.0387165 99.0482
0 0.985948 0.005 74.5488
0 0.997784 0.0237738 20.0947
0 0.999734 0.0212419 42.206
0 0.979375 0.00993428 30.221
0 0.98239 0.0395998 87.1369
0 0.983947 0.005 90.1313
0 0.982792 0.0358448 81.1629
0 0.991065 0.0226648 68.8835
0 0.985934 0.0143024 158.821
0 0.993229 0.00940096 62.2856
0 0.994553 0.0148305 88.8908
0 0.994053 0.0148543 69.0824
0 0.985923 0.00996309 50.7552
0 0.995415 0.024442 39.0987
0 0.995498 0.0208907 57.3221
0 0.989174 0.00232268 77.0245
0 0.994434 0.01485 65.4606
0 0.982818 0.00996487 89.0079
0 0.983909 0.00883015 62.3375
0 0.984917 0.00926202 91.9614
0 0.982621 0.0278591 81.2947
0 0.983063 0.0132153 87.6663
0 0.991799 0 100.437
0 0.990013 0.0148937 115.099
0 0.989288 0.0189218 88.2056
0 0.996832 0.0204035 72.4678
0 0.995671 0.0173006 95.9454
0 0.994199 0.00988485 62.8177
0 0.99254 0.014791 96.2423
0 0.993109 0.024434 21.8501
0 0.987693 0.0181146 63.5691
0 0.991163 0.0227085 77.9271
0 0.989335 0.0148299 61.13
0 0.987365 0.0097732 52.5743
0 0.992681 0.00994232 34.7883
0 0.985 0.0196266 52.7291
0 0.984257 0.0243062 88.061
0 0.996865 0.0139167 162.63
0 0.989861 0.00986926 71.0831
0 0.986653 0.00996493 74.7756
0 0.987121 0.00995942 71.2367
0 0.99677 0 99.3387
0 0.994621 0 104.665
0 0.993256 0.005 100.357
0 0.99611 0.00988829 48.7618
0 0.99585 0.0173824 102.396
0 0.991731 0.029226 77.6237
0 0.994428 0.0109 122.822
0 0.99763 0.0242875 69.7815
0 0.984302 0.0147969 56.8446
0 0.983295 0.0224364 73.8291
0 0.984547 0.0244396 60.967
0 0.981048 0.0166839 50.7815
0 0.987416 0.0241305 76.8076
0 0.992477 0.0145486 116.869
0 0.985269 0.0234086 94.7294
0 0.987137 0.0285865 61.8416
0 1.00131 0.0411933 162.681
0 0.996537 0.00908318 62.5357
0 0.990682 0 106.942
0 0.992356 0.0093681 56.0779
0 0.99453 0.0185083 45.3034
0 0.991433 0.0118866 38.4507
0 0.988146 0.0293343 101.648
0 0.990696 0.00921319 51.092
0 0.985077 0.043767 87.632
0 0.980885 0.0203415 52.4033
0 0.999149 0.0145772 115.975
0 0.99 0.0135542 17.5867
0 0.994814 0.00993698 120.956
0 0.999415 0.00996165 121.114
0 0.997407 0.00995983 119.826
0 0.976642 0.0148803 49.6229
0 0.974966 0.0144754 77.6301
0 0.982587 0.0243965 95.9347
0 0.974929 0.0237148 78.556
0 0.991013 0.0243699 92.4527
0 0.994783 0.00988455 121.605
0 0.987903 0.020917 90.0251
0 0.998217 0.0081906 113.283
0 0.997355 0 104.076
0 0.988363 0.0242657 115.611
0 0.990253 0.0146628 40.4499
0 0.987428 0.0197786 66.6853
0 0.986729 0.0144884 151.315
0 0.9905 0.0185472 79.7515
0 0.985884 0.005 90.016
0 0.983993 0.0120846 149.552
0 0.982278 0.014413 45.978
0 1.00293 0.0148163 39.9972
0 0.990043 0.0192618 26.0402
0 0.993768 0.005 98.4547
0 0.992258 0.005 88.8846
0 0.995987 0.0240384 70.7207
0 0.997113 0.00995019 116.88
0 0.996513 0.0244034 71.416
0 0.996847 0.0242278 84.3679
0 0.977701 0.00949243 118.144
0 0.971307 0.0120737 157.995
0 0.980015 0.00994952 103.095
0 0.974762 0.005 84.7443
0 0.994596 0.00970127 133.948
0 0.990121 0.0174998 58.6238
0 0.995279 0.0538069 141.732
0 0.981878 0.0197505 41.916
0 0.988687 0.0178651 72.5536
0 0.991157 0.0215124 166.885
0 0.997986 0 94.6086
0 0.985438 0.005 89.6035
0 0.984573 0.00970372 157.013
0 0.991099 0.005 90.0345
0 0.989661 0.005 88.2935
0 0.980461 0.00996028 89.3796
0 0.988826 0.0148648 79.3815
0 0.998179 0.00975489 75.6072
0 0.98594 0.0147654 93.0877
0 0.995204 0.0188036 101.928
0 0.990424 0.0137034 26.2817
0 0.995824 0.00711401 101.416
0 0.99139 0.0270184 62.3152
0 0.99281 0.0197731 81.9249
0 0.995474 0.0246034 105.011
0 0.994723 0.0197896 90.6451
0 0.977725 0 84.522
0 0.98302 0.005 78.3966
0 0.992848 0.024161 104.392
0 0.987088 0.0243982 84.3505
0 0.98552 0.026577 72.1286
0 0.988853 0.0531496 127.597
0 0.987783 0.005 93.6973
0 0.998466 0.00995472 130.417
0 0.982899 0.014059 141.492
0 0.98805 0.00914423 150.51
0 0.987522 0.00953099 98.9926
0 0.983252 0.0146613 116.667
0 0.997764 0 91.9452
0 0.980738 0.005 80.0724
0 0.988026 0.0241612 77.0068
0 0.991787 0.00907263 109.297
0 0.994743 0.00993892 110.94
0 1.00038 0.00992507 84.6538
0 0.984802 0.00991606 108.372
0 0.982465 0.014796 69.8688
0 0.982846 0 90.3491
0 0.98259 0.00461801 90.701
0 0.99098 0.0285749 84.8316
0 0.987402 0.0197262 89.9605
0 0.989488 0.0239496 47.4218
0 0.990467 0.0289889 71.7959
0 0.983934 0.0243594 77.9879
0 0.984496 0.0424994 93.4078
0 0.98915 0.0197244 71.9772
0 0.979066 0.0236445 176.106
0 0.987209 0.0226708 83.1243
0 0.981078 0.026832 34.9668
0 0.983714 0.0536865 103.292
0 0.999533 0.00968855 146.81
0 0.98589 0.0197077 136.925
0 0.984705 0.005 89.9575
0 0.985586 0.00996118 68.3579
0 0.995578 0 90.053
0 1.00089 0.00996498 111.76
0 0.981084 0.0293633 109.722
0 0.990673 0.00980514 110.895
0 0.996133 0.00949252 142.859
0 0.976865 0.00935339 148.616
0 0.976919 0.0245889 114.538
0 0.995218 0 90.5018
0 0.982487 0.0222448 143.09
0 0.986057 0.0292445 72.6918
0 0.983775 0.0293006 52.0357
0 0.984132 0.0207913 47.5225
0 0.983407 0.0148158 118.314
0 0.984174 0.0240085 65.1332
0 0.986092 0.0195423 83.5373
0 0.987114 0.0196305 67.9448
0 0.981777 0.0292739 125.608
0 0.985798 0.0192111 78.4519
0 0.988043 0.0243869 73.1057
0 0.983711 0.0196753 49.2632
0 0.974223 0.0403259 142.586
0 0.972507 0.053267 101.985
0 0.992838 0.0188577 93.697
0 0.992564 0.0196594 115.426
0 1.00272 0.00649087 60.2202
0 0.997348 0.0197239 74.5798
0 0.991308 0.00996415 101.54
0 0.986074 0.00995611 109.48
0 0.982538 0.0336048 82.4438
0 0.979167 0.005 92.5098
0 0.96633 0 89.8996
0 0.984576 0.0243762 67.8301
0 0.974672 0.0244522 118.952
0 1.00255 0.00392005 89.6558
0 1.00761 0 89.806
0 0.999451 0 90.0077
0 0.986419 0.00995451 104.864
0 0.986287 0.0197361 65.6285
0 0.98812 0.0286651 93.4398
0 0.993202 0.0243901 94.9015
0 0.986337 0.0148734 91.6392
0 0.989558 0.0241831 77.3267
0 0.987432 0.0194402 56.1984
0 0.979357 0.0276059 26.4995
0 0.970367 0.0066252 90.1833
0 0.990529 0.0196577 60.847
0 0.995436 0.00950589 98.323
0 0.987735 0.0087625 59.6497
0 0.982414 0.00987718 111.556
0 0.978213 0.0258852 87.5604
0 0.987872 0.0244653 62.5815
0 0.988694 0.0216847 93.5953
0 0.975202 0.0290026 78.9725
0 0.984603 0.0244957 104.105
0 0.991347 0.0108372 37.0205
0 1.01129 0.0191784 46.131
0 1.01511 0 88.7548
0 0.993214 0.0237702 115.116
0 0.9936 0.0287394 101.287
0 0.992937 0.0300315 81.4493
0 0.990326 0.0139287 125.915
0 0.996333 0.033172 96.1515
0 0.992101 0.0195448 77.347
0 0.992665 0.0324985 62.1512
0 0.987797 0.005 85.4325
0 0.984282 0.00356944 90.5621
0 0.98239 0.0065915 57.6671
0 0.981636 0.0197166 106.362
0 0.979628 0.024326 104.007
0 0.990109 0.0148889 89.8234
0 0.987738 0.0184022 103.781
0 0.982358 0.0238831 105.062
0 0.984956 0.0184178 120.591
0 0.983868 0 88.2017
0 0.995144 0.00993682 52.4972
0 1.0153 0 88.0079
0 1.02196 0.005 87.8717
0 0.996058 0.0242066 105.582
0 0.99265 0.0237648 113.781
0 0.99659 0.0242491 108.016
0 0.995008 0.0179971 85.9305
0 0.989404 0.0264886 105.313
0 0.988845 0.005 84.7671
0 0.983067 0.0195463 61.6795
0 0.982897 0.0240108 90.789
0 0.990844 0.0147454 84.7965
0 0.985564 0.0147818 77.9473
0 0.983116 0.0242803 92.1388
0 0.985185 0.0229134 92.5876
0 0.99499 0 87.4085
0 0.997683 0.005 87.1494
0 1.01275 0.005 86.7717
0 0.991814 0.0148365 89.7887
0 0.991353 0.0148799 86.948
0 0.99263 0.0275606 83.0939
0 0.996322 0.0312242 47.1191
0 0.989318 0.00929456 140.542
0 0.982164 0.0379643 65.6311
0 0.986207 0.0148944 87.8062
0 0.98166 0.0154197 58.7747
0 0.982397 0.0244041 43.7685
0 0.989936 0.0204444 39.3801
0 0.988254 0.005 86.2569
0 0.985578 0 85.647
0 0.986961 0.014809 99.0648
0 0.989108 0.0291325 76.3448
0 0.991269 0.042026 103.402
0 0.992847 0.0444242 67.9567
0 0.984421 0.0147728 120.017
0 0.980814 0.0331466 42.8359
0 0.982007 0.017731 109.693
0 0.980485 0.0451609 105.05
0 0.985681 0.0376895 67.1154
0 0.986745 0.0220679 86.7727
0 0.98434 0.0485778 93.5549
0 0.986791 0.0242338 106.216
0 0.993585 0.0292208 64.1058
0 0.993706 0 83.3601
0 0.986086 0.0146674 126.568
0 0.982711 0.0290093 62.2187
0 0.983824 0.0148534 98.2233
0 0.987108 0.0289067 69.1526
0 0.987898 0.0503637 117.698
0 0.990434 0.019608 90.413
0 0.995553 0.00988075 120.723
0 0.990274 0.0374856 64.4058
0 0.987908 0.0258342 30.2781
0 0.98884 0.0324209 25.9115
0 0.99218 0.00792155 108.727
0 0.991935 0.0266954 49.6311
0 0.996678 0.0210839 111.014
VECTORS fa_u float
-4.21066e-05 -1.5381e-05 0
0.0581592 0.037662 -0
0.0150814 0.0037455 -0
0.00366553 0.000359598 -0
1e-08 0 0
-0.000467431 -0.000436652 0
1.83813e-06 1.64874e-06 -0
1e-08 0 0
1e-08 0 0
0.0296248 0.0384797 -0
-0.00129765 -0.00234453 0
0.000603183 9.28637e-06 -0
0.0399059 -0.00611619 0
1e-08 0 0
1e-08 0 0
1e-08 0 0
1e-08 0 0
1e-08 0 0
1e-08 0 0
1e-08 0 0
1e-08 0 0
0.000544695 0.000946757 -0
0.0193842 0.0678789 -0
1e-08 0 0
1e-08 0 0
1e-08 0 0
-0.00108356 0.000365791 -0
1e-08 0 0
-1.03463e-08 3.17296e-09 -0
1e-08 0 0
1e-08 0 0
1e-08 0 0
-1.9796e-06 -3.09613e-05 0
1e-08 0 0
1e-08 0 0
1e-08 0 0
1e-08 0 0
1e-08 0 0
1e-08 0 0
1e-08 0 0
1e-08 0 0
1e-08 0 0
1e-08 0 0
-0.00198354 0.0320576 -0
1e-08 0 0
1e-08 0 0
1e-08 0 0
0.0948917 -0.0527634 0
1e-08 0 0
-0.0619168 0.0419686 -0
1e-08 0 0
1e-08 0 0
1e-08 0 0
1e-08 0 0
1e-08 0 0
1e-08 0 0
1e-08 0 0
1e-08 0 0
1e-08 0 0
1e-08 0 0
1e-08 0 0
1e-08 0 0
1e-08 0 0
0.00022871 -0.00106764 -0
1e-08 0 0
1e-08 0 0
1e-08 0 0
1e-08 0 0
1e-08 0 0
0.0774036 -0.0712589 0
1e-08 0 0
0.00232622 -0.00411047 0
1e-08 0 0
1e-08 0 0
1e-08 0 0
1e-08 0 0
1e-08 0 0
1e-08 0 0
1e-08 0 0
1e-08 0 0
1e-08 0 0
1e-08 0 0
1e-08 0 0
1e-08 0 0
1e-08 0 0
0.000275186 -0.00190548 -0
1e-08 0 0
1e-08 0 0
1e-08 0 0
1e-08 0 0
1e-08 0 0
1e-08 0 0
-0.00826656 0.0136585 -0
1e-08 0 0
1e-08 0 0
1e-08 0 0
1e-08 0 0
1e-08 0 0
0.0101568 -0.0182719 0
1e-08 0 0
1e-08 0 0
1e-08 0 0
1e-08 0 0
1e-08 0 0
1e-08 0 0
1e-08 0 0
1e-08 0 0
1e-08 0 0
1e-08 0 0
-0.0260062 0.0728351 0
1e-08 0 0
1e-08 0 0
1e-08 0 0
1e-08 0 0
1e-08 0 0
1e-08 0 0
1e-08 0 0
1e-08 0 0
1e-08 0 0
1e-08 0 0
1e-08 0 0
1e-08 0 0
1e-08 0 0
1e-08 0 0
0.00653402 -0.0226813 0
1e-08 0 0
1e-08 0 0
1e-08 0 0
1e-08 0 0
1e-08 0 0
1e-08 0 0
1e-08 0 0
1e-08 0 0
1e-08 0 0
0.00160353 -0.00258738 -0
1e-08 0 0
1e-08 0 0
1e-08 0 0
1e-08 0 0
1e-08 0 0
1e-08 0 0
1e-08 0 0
1e-08 0 0
1e-08 0 0
1e-08 0 0
1e-08 0 0
1e-08 0 0
1e-08 0 0
1e-08 0 0
1e-08 0 0
-0.00261862 0.0109165 -0
1e-08 0 0
1e-08 0 0
1e-08 0 0
1e-08 0 0
1e-08 0 0
1e-08 0 0
1e-08 0 0
1e-08 0 0
1e-08 0 0
1e-08 0 0
-0.0213469 0.0274682 0
1e-08 0 0
1e-08 0 0
1e-08 0 0
1e-08 0 0
1e-08 0 0
1e-08 0 0
1e-08 0 0
1e-08 0 0
1e-08 0 0
1e-08 0 0
1e-08 0 0
1e-08 0 0
0.00128858 -0.154457 0
1e-08 0 0
1e-08 0 0
1e-08 0 0
1e-08 0 0
1e-08 0 0
1e-08 0 0
1e-08 0 0
1e-08 0 0
1e-08 0 0
1e-08 0 0
1e-08 0 0
1e-08 0 0
-0.0085645 0.00676265 0
1e-08 0 0
1e-08 0 0
1e-08 0 0
1e-08 0 0
1e-08 0 0
1e-08 0 0
1e-08 0 0
1e-08 0 0
1e-08 0 0
1e-08 0 0
1e-08 0 0
1e-08 0 0
1e-08 0 0
0.00520984 0.0205746 -0
1e-08 0 0
1e-08 0 0
1e-08 0 0
1e-08 0 0
1e-08 0 0
1e-08 0 0
1e-08 0 0
1e-08 0 0
0.00333781 -0.00246338 -0
1e-08 0 0
1e-08 0 0
1e-08 0 0
1e-08 0 0
1e-08 0 0
1e-08 0 0
1e-08 0 0
1e-08 0 0
1e-08 0 0
1e-08 0 0
1e-08 0 0
-0.0050629 -0.0212695 0
1e-08 0 0
1e-08 0 0
1e-08 0 0
1e-08 0 0
1e-08 0 0
1e-08 0 0
1e-08 0 0
-0.0207252 0.012614 0
1e-08 0 0
1e-08 0 0
1e-08 0 0
1e-08 0 0
1e-08 0 0
1e-08 0 0
1e-08 0 0
1e-08 0 0
1e-08 0 0
1e-08 0 0
1e-08 0 0
-0.00860726 -0.015918 0
1e-08 0 0
1e-08 0 0
1e-08 0 0
1e-08 0 0
1e-08 0 0
0.00017399 -7.92396e-05 -0
1e-08 0 0
1e-08 0 0
1e-08 0 0
1e-08 0 0
1e-08 0 0
1e-08 0 0
1e-08 0 0
1e-08 0 0
0.0013207 0.00224474 -0
1e-08 0 0
1e-08 0 0
1e-08 0 0
1e-08 0 0
-0.00794866 0.00293581 0
1e-08 0 0
1e-08 0 0
1e-08 0 0
1e-08 0 0
1e-08 0 0
1e-08 0 0
-0.0053658 -0.00868227 0
1e-08 0 0
1e-08 0 0
1e-08 0 0
-0.050821 0.00480339 0
1e-08 0 0
1e-08 0 0
1e-08 0 0
1e-08 0 0
1e-08 0 0
1e-08 0 0
-0.0516883 -0.0429512 0
1e-08 0 0
1e-08 0 0
0.000336257 3.00929e-05 -0
1e-08 0 0
1e-08 0 0
1e-08 0 0
1e-08 0 0
0.00423283 0.00261401 -0
1e-08 0 0
-0.00186199 -0.000203098 0
1e-08 0 0
1e-08 0 0
-0.00510613 -0.0031362 0
-0.0323814 -0.0104002 0
-0.000400292 -0.000206489 0
1e-08 0 0
