# vtk DataFile Version 2.0
CellBP Time: 0.08
ASCII
DATASET UNSTRUCTURED_GRID
POINTS 296 double
-9.1981 -3.78005 0
-8.61895 -4.95303 0
-9.61435 -2.54013 0
-9.87183 -1.257 0
-8.32551 -2.8082 0
-7.89217 -6.03916 0
-7.02747 -7.02455 0
-7.88521 -3.85886 0
-7.31149 -4.85603 0
-6.04287 -7.88836 0
-4.95103 -8.61573 0
-9.95484 0.0508835 0
-9.86845 1.35933 0
-8.62472 -1.67667 0
-8.75487 -0.528131 0
-7.5469 -1.99361 0
-7.18131 -2.89048 0
-6.63166 -5.77501 0
-5.80108 -6.57629 0
-6.74861 -3.86617 0
-6.18548 -4.65022 0
-3.77681 -9.19372 0
-2.5378 -9.61212 0
-4.89072 -7.28334 0
-3.90313 -7.85577 0
-8.76163 0.639523 0
-9.61143 2.6407 0
-8.58836 1.76654 0
-9.16118 3.87035 0
-7.70115 -0.925033 0
-7.74964 0.0787729 0
-6.90546 -1.30776 0
-1.25449 -9.86943 0
-6.39247 -2.13851 0
-6.27093 -3.03594 0
-5.50739 -5.44671 0
-4.77351 -6.0847 0
-5.61773 -3.73196 0
-5.23724 -4.53224 0
-2.85769 -8.3352 0
-1.77168 -8.61217 0
-3.9119 -6.68881 0
-3.04475 -7.11313 0
0.0521548 -9.95491 0
-7.65857 1.13756 0
-8.29943 2.9074 0
-7.5038 2.10207 0
-8.59978 5.04809 0
-7.84528 3.96957 0
-7.88869 6.14013 0
-6.72976 -0.392847 0
-6.90719 0.550808 0
-5.71722 -0.991751 0
-0.587935 -8.78081 0
0.56211 -8.74138 0
-5.24818 -2.45891 0
-4.46583 -5.06159 0
-3.88179 -5.73843 0
-4.39802 -3.77501 0
-2.05219 -7.52389 0
-1.12829 -7.74868 0
-2.97815 -6.06024 0
-2.29656 -6.57594 0
1.35676 -9.86812 0
-6.63804 1.41643 0
-7.12722 3.10736 0
-6.60993 2.36048 0
-7.26482 4.97849 0
-6.67831 3.98899 0
-7.02256 7.12499 0
-6.54712 5.87984 0
-6.0397 7.98826 0
-4.39233 -1.16306 0
-5.75897 0.517023 0
-4.59644 -0.000920161 0
0.00735981 -7.80978 0
1.73167 -8.62606 0
0.940973 -7.7223 0
-3.98222 -2.38078 0
-3.42293 -1.36907 0
-3.265 -4.76766 0
-3.21959 -3.23612 0
-1.37043 -6.63084 0
-0.505979 -6.98192 0
-1.96139 -5.49205 0
2.64337 -9.6151 0
-5.45966 2.0227 0
-6.04914 3.05544 0
-6.06967 4.85083 0
-5.71991 3.97179 0
-5.73987 6.69628 0
-5.4198 5.59668 0
-4.95361 8.71549 0
-4.81684 7.38019 0
-3.44415 -0.414335 0
-4.3997 1.24039 0
-3.65996 0.589057 0
-4.02246 2.29512 0
-3.7765 9.28941 0
2.84618 -8.30207 0
0.416281 -6.74998 0
2.00714 -7.48065 0
1.29668 -6.86019 0
-2.39877 -0.859355 0
-2.78809 -2.10338 0
-2.26579 -4.05906 0
-2.28988 -2.94026 0
-0.442605 -5.81449 0
-1.21692 -4.45568 0
3.8833 -9.19642 0
-4.74976 3.36828 0
-5.04997 4.57051 0
-4.61739 6.25265 0
-4.50493 5.3322 0
-3.82352 7.96459 0
-3.79896 6.81228 0
-2.76307 8.3971 0
-1.61894 -0.134768 0
-1.42499 -0.875258 0
-2.44358 0.499942 0
-3.21071 1.42708 0
-3.20506 3.28585 0
-2.8761 2.34196 0
-1.33825 0.622614 0
-2.54211 9.7137 0
3.91119 -7.8505 0
2.94392 -7.11035 0
0.943831 -5.7755 0
2.05838 -6.36896 0
-1.65464 -1.96161 0
-1.41792 -3.24025 0
0.0819908 -4.70148 0
-0.568593 -3.65235 0
4.91087 -7.28121 0
5.03355 -8.58249 0
-3.74368 4.52173 0
-3.70461 5.72027 0
-2.86642 7.25515 0
-2.98437 6.31824 0
-1.66047 8.72958 0
-1.92669 7.588 0
-2.30975 4.01592 0
-0.722884 -1.31054 0
-0.837752 -0.254176 0
-1.90146 1.65515 0
-2.09561 2.84122 0
-1.28387 3.50765 0
-0.867112 1.35368 0
-0.282184 0.461601 0
-0.535515 8.8756 0
-1.25796 9.96935 0
1.09646 -4.52931 0
3.88268 -6.67056 0
2.96414 -6.04842 0
2.09776 -5.379 0
4.7538 -6.16521 0
-0.554871 -2.44055 0
0.479408 -3.42055 0
0.0488598 -1.58097 0
1.45948 -3.63823 0
5.84762 -6.58373 0
6.14 -7.89312 0
-2.45064 5.31245 0
-2.11381 6.49886 0
-0.899097 7.77354 0
-1.26456 6.89721 0
0.0832017 7.8526 0
-1.12737 4.45775 0
0.151198 -0.616748 0
-0.779694 2.45276 0
-0.31849 3.5635 0
0.0629414 1.52331 0
0.742949 0.480509 0
0.646025 8.87589 0
0.0495608 10.0525 0
2.3546 -4.24095 0
3.82898 -5.59824 0
2.97453 -5.16829 0
5.54143 -5.45825 0
4.65615 -5.24663 0
0.612383 -2.2537 0
1.23292 -2.90888 0
0.740027 -1.36475 0
2.13614 -3.09523 0
2.9619 -3.43837 0
6.1206 -4.7644 0
6.63136 -5.74566 0
7.12408 -7.02971 0
-1.00963 5.78392 0
-0.372064 6.8489 0
1.11252 7.74174 0
0.551102 7.04669 0
0.00493076 4.68798 0
0.603603 3.7915 0
1.31057 -0.629333 0
0.53153 2.61654 0
0.946227 1.54861 0
1.87038 0.209875 0
1.58089 1.04659 0
2.11592 7.55585 0
1.7972 8.711 0
1.35571 9.96855 0
3.78901 -4.31416 0
5.07747 -4.41804 0
5.80553 -3.91025 0
3.74709 -3.16771 0
1.78238 -1.84898 0
2.9848 -2.53986 0
6.74571 -3.92839 0
7.35444 -4.87809 0
7.98735 -6.04366 0
0.479869 5.84469 0
1.41489 6.70742 0
2.35743 6.63511 0
1.19766 4.51953 0
1.46461 3.36249 0
2.39458 -0.681124 0
2.77827 0.137412 0
1.75317 2.13031 0
2.55724 1.12838 0
3.05585 7.14082 0
2.89997 8.36978 0
2.63903 9.71337 0
4.86929 -3.29995 0
6.07625 -3.08838 0
4.13134 -2.24801 0
3.20411 -1.48082 0
6.68452 -2.29848 0
7.19079 -3.02834 0
7.93446 -3.90079 0
8.71464 -4.95293 0
2.00065 5.56335 0
3.06534 6.12102 0
2.32665 4.09201 0
2.37626 3.02736 0
3.47633 -0.457928 0
3.55814 0.597597 0
2.90664 2.25693 0
3.48602 1.49928 0
3.9874 5.86882 0
3.9649 6.76625 0
3.97055 7.9361 0
3.87735 9.29211 0
5.51967 -1.8971 0
4.45953 -1.11845 0
6.6658 -1.32426 0
7.5515 -2.02458 0
8.36684 -2.85305 0
9.29258 -3.77735 0
3.38689 4.84445 0
3.29261 3.35354 0
4.63414 0.121841 0
4.46223 1.29101 0
4.00957 2.41504 0
4.54037 5.12353 0
4.81875 6.16557 0
4.96937 7.36992 0
5.05101 8.7117 0
5.8307 -0.431636 0
6.9655 -0.48168 0
7.71961 -1.07576 0
8.6558 -1.73707 0
9.71346 -2.53898 0
4.50975 3.79881 0
5.76621 1.08948 0
5.31924 2.51236 0
5.34486 4.59398 0
5.58088 5.50037 0
5.87377 6.65457 0
6.14136 7.98653 0
6.80033 0.463714 0
7.81439 -0.0225684 0
8.83189 -0.579464 0
9.96685 -1.25625 0
6.91607 1.34382 0
5.67796 3.75334 0
6.49508 2.18468 0
6.33369 3.06759 0
6.25448 4.66373 0
6.66449 5.82254 0
7.12776 7.12599 0
7.74573 0.963789 0
8.83162 0.572446 0
10.0553 0.0508625 0
7.57609 1.99389 0
6.78607 3.88133 0
7.22755 2.92968 0
7.34736 4.87028 0
7.98962 6.14198 0
8.69557 1.71747 0
9.96709 1.35884 0
8.39107 2.82336 0
7.9503 3.90058 0
8.7168 5.05464 0
9.71519 2.64401 0
9.29605 3.8816 0
CELLS 542 2168
3 2 0 4
3 0 1 7
3 4 0 7
3 1 5 8
3 7 1 8
3 3 2 13
3 13 2 4
3 11 3 14
3 14 3 13
3 13 4 15
3 4 7 16
3 15 4 16
3 5 6 17
3 8 5 17
3 6 9 18
3 17 6 18
3 7 8 19
3 16 7 19
3 8 17 20
3 19 8 20
3 9 10 23
3 18 9 23
3 10 21 24
3 23 10 24
3 12 11 25
3 25 11 14
3 26 12 27
3 27 12 25
3 14 13 29
3 29 13 15
3 25 14 30
3 30 14 29
3 29 15 31
3 15 16 33
3 31 15 33
3 16 19 34
3 33 16 34
3 17 18 35
3 20 17 35
3 18 23 36
3 35 18 36
3 19 20 37
3 34 19 37
3 20 35 38
3 37 20 38
3 21 22 39
3 24 21 39
3 22 32 40
3 39 22 40
3 23 24 41
3 36 23 41
3 24 39 42
3 41 24 42
3 27 25 44
3 44 25 30
3 28 26 45
3 45 26 27
3 45 27 46
3 46 27 44
3 47 28 48
3 48 28 45
3 30 29 50
3 50 29 31
3 44 30 51
3 51 30 50
3 50 31 52
3 31 33 52
3 32 43 53
3 40 32 53
3 53 43 54
3 33 34 55
3 34 37 55
3 33 55 52
3 35 36 56
3 38 35 56
3 36 41 57
3 56 36 57
3 37 38 58
3 38 56 58
3 37 58 55
3 39 40 59
3 42 39 59
3 40 53 60
3 59 40 60
3 41 42 61
3 57 41 61
3 42 59 62
3 61 42 62
3 43 63 54
3 46 44 64
3 64 44 51
3 48 45 65
3 65 45 46
3 65 46 66
3 66 46 64
3 49 47 67
3 67 47 48
3 67 48 68
3 68 48 65
3 69 49 70
3 70 49 67
3 52 55 72
3 64 51 73
3 51 50 73
3 50 52 73
3 73 52 74
3 74 52 72
3 53 54 75
3 60 53 75
3 54 63 76
3 54 76 77
3 75 54 77
3 55 58 78
3 72 55 78
3 72 78 79
3 56 57 80
3 57 61 80
3 56 80 58
3 58 80 81
3 78 58 81
3 59 60 82
3 62 59 82
3 60 75 83
3 82 60 83
3 61 62 84
3 62 82 84
3 61 84 80
3 63 85 76
3 66 64 86
3 64 73 86
3 68 65 87
3 87 65 66
3 87 66 86
3 70 67 88
3 88 67 68
3 88 68 89
3 89 68 87
3 71 69 90
3 90 69 70
3 90 70 91
3 91 70 88
3 92 71 93
3 93 71 90
3 74 72 94
3 94 72 79
3 86 73 95
3 95 73 74
3 95 74 96
3 96 74 94
3 97 86 95
3 76 85 99
3 75 77 100
3 83 75 100
3 76 99 101
3 77 76 101
3 77 101 102
3 100 77 102
3 94 79 103
3 78 81 104
3 79 78 104
3 79 104 103
3 80 84 105
3 81 80 105
3 81 105 106
3 104 81 106
3 82 83 107
3 83 100 107
3 82 107 84
3 84 107 108
3 105 84 108
3 85 109 99
3 89 87 110
3 87 86 110
3 110 86 97
3 91 88 111
3 111 88 89
3 111 89 110
3 93 90 112
3 112 90 91
3 112 91 113
3 113 91 111
3 98 92 114
3 114 92 93
3 114 93 115
3 115 93 112
3 116 98 114
3 117 103 118
3 96 94 119
3 94 103 119
3 119 103 117
3 97 95 120
3 120 95 96
3 120 96 119
3 121 110 97
3 121 97 122
3 122 97 120
3 123 119 117
3 124 98 116
3 99 109 125
3 99 125 126
3 101 99 126
3 100 102 127
3 100 127 107
3 101 126 128
3 102 101 128
3 102 128 127
3 104 106 129
3 104 129 103
3 103 129 118
3 105 108 130
3 106 105 130
3 106 130 129
3 107 127 131
3 108 107 131
3 108 131 132
3 108 132 130
3 109 134 125
3 125 134 133
3 113 111 135
3 111 110 135
3 135 110 121
3 115 112 136
3 136 112 113
3 136 113 135
3 116 114 137
3 137 114 115
3 137 115 138
3 138 115 136
3 139 124 116
3 139 116 140
3 140 116 137
3 141 135 121
3 118 129 142
3 118 142 143
3 117 118 143
3 123 117 143
3 122 120 144
3 120 119 144
3 144 119 123
3 141 121 145
3 145 121 122
3 145 122 144
3 146 141 145
3 147 144 123
3 147 123 148
3 143 148 123
3 150 124 139
3 149 150 139
3 131 127 151
3 125 133 152
3 126 125 152
3 126 152 153
3 128 126 153
3 128 153 154
3 128 154 127
3 127 154 151
3 152 133 155
3 130 132 156
3 130 156 129
3 129 156 142
3 131 151 157
3 132 131 157
3 132 157 156
3 156 158 142
3 157 151 159
3 133 160 155
3 134 161 133
3 133 161 160
3 138 136 162
3 136 135 162
3 162 135 141
3 140 137 163
3 163 137 138
3 163 138 162
3 149 139 164
3 164 139 140
3 164 140 165
3 165 140 163
3 166 149 164
3 167 162 141
3 167 141 146
3 142 158 168
3 143 142 168
3 143 168 148
3 146 145 169
3 145 144 169
3 169 144 147
3 170 167 146
3 170 146 169
3 171 169 147
3 171 147 148
3 171 148 172
3 168 172 148
3 173 149 166
3 174 150 149
3 173 174 149
3 154 175 151
3 151 175 159
3 152 155 176
3 153 152 176
3 153 176 177
3 153 177 154
3 154 177 175
3 155 160 178
3 155 178 179
3 176 155 179
3 156 157 180
3 156 180 158
3 157 159 181
3 157 181 180
3 158 180 182
3 158 182 168
3 159 175 183
3 159 183 181
3 175 184 183
3 160 186 178
3 178 186 185
3 161 187 160
3 160 187 186
3 165 163 188
3 163 162 188
3 188 162 167
3 166 164 189
3 189 164 165
3 189 165 188
3 190 173 166
3 190 166 191
3 191 166 189
3 192 188 167
3 192 167 170
3 193 192 170
3 182 194 168
3 194 172 168
3 193 170 195
3 170 169 195
3 195 169 171
3 196 195 171
3 196 171 172
3 194 197 172
3 197 198 172
3 198 196 172
3 200 173 190
3 199 200 190
3 201 174 173
3 200 201 173
3 176 179 202
3 177 176 202
3 177 202 175
3 175 202 184
3 178 185 203
3 178 203 179
3 179 203 202
3 203 185 204
3 202 205 184
3 183 206 181
3 180 181 206
3 180 206 182
3 182 206 194
3 183 184 207
3 205 207 184
3 183 207 206
3 185 208 204
3 186 209 185
3 185 209 208
3 187 210 186
3 186 210 209
3 191 189 211
3 189 188 211
3 211 188 192
3 199 190 212
3 212 190 191
3 212 191 211
3 213 199 212
3 214 211 192
3 214 192 193
3 215 214 193
3 215 193 195
3 206 216 194
3 216 197 194
3 216 217 197
3 215 195 218
3 218 195 196
3 198 218 196
3 217 219 197
3 219 218 198
3 197 219 198
3 220 199 213
3 221 200 199
3 220 221 199
3 222 201 200
3 221 222 200
3 203 204 223
3 203 223 202
3 202 223 205
3 204 208 224
3 204 224 223
3 205 223 225
3 205 225 207
3 207 225 226
3 207 226 206
3 226 216 206
3 208 228 224
3 224 228 227
3 209 229 208
3 229 228 208
3 210 230 209
3 209 230 229
3 213 212 231
3 212 211 231
3 231 211 214
3 232 220 213
3 232 213 231
3 233 231 214
3 233 214 215
3 234 233 215
3 234 215 218
3 226 235 216
3 235 217 216
3 235 236 217
3 217 236 219
3 237 234 218
3 237 218 219
3 236 238 219
3 238 237 219
3 240 220 232
3 239 240 232
3 241 221 220
3 240 241 220
3 242 222 221
3 241 242 221
3 224 227 243
3 224 243 223
3 223 243 225
3 225 243 244
3 225 244 226
3 226 244 235
3 227 245 243
3 228 246 227
3 227 246 245
3 229 247 228
3 228 247 246
3 230 248 229
3 229 248 247
3 239 232 249
3 232 231 249
3 249 231 233
3 250 249 233
3 250 233 234
3 237 250 234
3 244 251 235
3 235 251 236
3 251 252 236
3 236 252 238
3 252 253 238
3 253 250 237
3 253 237 238
3 254 239 249
3 255 240 239
3 254 255 239
3 256 241 240
3 255 256 240
3 257 242 241
3 256 257 241
3 245 258 243
3 243 258 244
3 244 258 251
3 245 259 258
3 246 260 245
3 245 260 259
3 247 261 246
3 246 261 260
3 248 262 247
3 247 262 261
3 254 249 263
3 263 249 250
3 253 263 250
3 258 264 251
3 251 264 252
3 264 265 252
3 265 263 253
3 252 265 253
3 266 254 263
3 267 255 254
3 266 267 254
3 268 256 255
3 267 268 255
3 269 257 256
3 268 269 256
3 259 270 258
3 270 264 258
3 260 271 259
3 259 271 270
3 261 272 260
3 260 272 271
3 262 273 261
3 273 272 261
3 270 274 264
3 275 266 263
3 275 263 265
3 274 276 264
3 276 265 264
3 276 277 265
3 277 275 265
3 278 267 266
3 275 278 266
3 279 268 267
3 278 279 267
3 280 269 268
3 279 280 268
3 271 281 270
3 270 281 274
3 272 282 271
3 271 282 281
3 273 283 272
3 272 283 282
3 281 284 274
3 274 284 276
3 285 278 275
3 277 285 275
3 284 286 276
3 286 285 277
3 276 286 277
3 287 279 278
3 285 287 278
3 288 280 279
3 287 288 279
3 282 289 281
3 281 289 284
3 283 290 282
3 282 290 289
3 289 291 284
3 284 291 286
3 291 292 286
3 292 287 285
3 286 292 285
3 293 288 287
3 292 293 287
3 290 294 289
3 289 294 291
3 294 295 291
3 295 293 292
3 291 295 292
CELL_TYPES 542
5
5
5
5
5
5
5
5
5
5
5
5
5
5
5
5
5
5
5
5
5
5
5
5
5
5
5
5
5
5
5
5
5
5
5
5
5
5
5
5
5
5
5
5
5
5
5
5
5
5
5
5
5
5
5
5
5
5
5
5
5
5
5
5
5
5
5
5
5
5
5
5
5
5
5
5
5
5
5
5
5
5
5
5
5
5
5
5
5
5
5
5
5
5
5
5
5
5
5
5
5
5
5
5
5
5
5
5
5
5
5
5
5
5
5
5
5
5
5
5
5
5
5
5
5
5
5
5
5
5
5
5
5
5
5
5
5
5
5
5
5
5
5
5
5
5
5
5
5
5
5
5
5
5
5
5
5
5
5
5
5
5
5
5
5
5
5
5
5
5
5
5
5
5
5
5
5
5
5
5
5
5
5
5
5
5
5
5
5
5
5
5
5
5
5
5
5
5
5
5
5
5
5
5
5
5
5
5
5
5
5
5
5
5
5
5
5
5
5
5
5
5
5
5
5
5
5
5
5
5
5
5
5
5
5
5
5
5
5
5
5
5
5
5
5
5
5
5
5
5
5
5
5
5
5
5
5
5
5
5
5
5
5
5
5
5
5
5
5
5
5
5
5
5
5
5
5
5
5
5
5
5
5
5
5
5
5
5
5
5
5
5
5
5
5
5
5
5
5
5
5
5
5
5
5
5
5
5
5
5
5
5
5
5
5
5
5
5
5
5
5
5
5
5
5
5
5
5
5
5
5
5
5
5
5
5
5
5
5
5
5
5
5
5
5
5
5
5
5
5
5
5
5
5
5
5
5
5
5
5
5
5
5
5
5
5
5
5
5
5
5
5
5
5
5
5
5
5
5
5
5
5
5
5
5
5
5
5
5
5
5
5
5
5
5
5
5
5
5
5
5
5
5
5
5
5
5
5
5
5
5
5
5
5
5
5
5
5
5
5
5
5
5
5
5
5
5
5
5
5
5
5
5
5
5
5
5
5
5
5
5
5
5
5
5
5
5
5
5
5
5
5
5
5
5
5
5
5
5
5
5
5
5
5
5
5
5
5
5
5
5
5
5
5
5
5
5
5
5
5
5
5
5
5
5
5
5
5
5
5
5
5
5
5
5
5
5
5
5
5
5
5
5
5
5
5
5
5
5
5
5
5
5
5
5
5
5
5
5
5
5
5
5
5
5
5
5
5
5
5
5
5
5
5
5
5
5
5
5
5
5
5
POINT_DATA 296
SCALARS concentrations float 4
LOOKUP_TABLE default
0 1.03731 0.005 5.78461
0 1.03867 0.005 12.2311
0 1.03563 0.005 2.87772
0 1.03392 0.005 7.50752
0 1.02233 0 17.7474
0 1.02231 0 12.5576
0 1.02289 0 13.1335
0 1.02467 0 25.5075
0 1.02206 0 24.6928
0 1.03205 0.005 6.99572
0 1.03153 0.005 5.60002
0 1.03164 0 12.6427
0 1.03221 0 12.0597
0 1.02077 0 12.0954
0 1.01976 0 11.1057
0 1.00367 0 28.294
0 1.00398 0 30.445
0 1.01861 0.005 19.7709
0 1.01854 0 16.7786
0 1.00375 0 30.9067
0 1.00743 0 30.1043
0 1.03134 0.005 4.43361
0 1.02925 0 5.97206
0 1.01651 0 16.7209
0 1.01802 0 20.4587
0 1.02048 0 13.9357
0 1.03028 0.005 6.63356
0 1.02243 0 17.4921
0 1.01436 0 4.20987
0 1.00357 0 25.5551
0 1.00487 0 25.2413
0 1.00056 0 29.3347
0 1.02961 0.005 9.3401
0 1.00012 0 24.7281
0 0.998417 0 23.6319
0 1.00795 0 27.4908
0 1.00021 0 27.2686
0 0.996426 0 26.2328
0 0.996347 0 32.3784
0 1.01962 0 18.1624
0 1.01869 0 18.1034
0 1.00049 0 29.2586
0 1.00431 0 33.5666
0 1.02902 0.005 7.22333
0 1.00543 0 27.6362
0 1.01557 0 20.2917
0 1.00463 0 31.0704
0 1.01665 0.005 4.50311
0 1.0091 0 15.984
0 1.02561 0 7.84261
0 1.00006 0 29.3022
0 0.999594 0 32.4011
0 0.998864 0 20.8025
0 1.01723 0 15.1386
0 1.01716 0 10.3421
0 0.997671 0 15.9566
0 0.997034 0 36.2116
0 0.99785 0 36.9565
0 0.995694 0 23.7554
0 1.0058 0 31.2338
0 1.00313 0 27.7786
0 0.996387 0 42.0329
0 0.999375 0 43.1978
0 1.024 0 5.04018
0 0.99521 0 32.5481
0 1.00319 0 30.6731
0 0.99598 0 35.5672
0 1.01344 0 15.9456
0 1.0025 0 33.4399
0 1.02782 0 8.9676
0 1.01637 0 25.3952
0 1.03057 0.005 26.1775
0 0.994826 0 10.7182
0 0.993321 0 24.2384
0 0.990325 0 15.2956
0 1.00147 0 22.7094
0 1.01915 0.005 9.83594
0 1.00611 0 21.1902
0 0.993357 0 10.2973
0 0.983928 0 3.66276
0 0.9928 0 32.4259
0 0.98915 0 17.111
0 0.997452 0 40.7464
0 0.998167 0 33.7721
0 0.989689 0 38.0686
0 1.02838 0 5.15286
0 0.989813 0 28.6178
0 0.996012 0 40.7303
0 1.00264 0 41.3572
0 0.998064 0 50.4562
0 1.01706 0 39.7897
0 1.00208 0 52.0378
0 1.03217 0 44.4938
0 1.01951 0 57.938
0 0.981141 0 9.65982
0 0.985209 0 21.2172
0 0.981444 0 16.398
0 0.988418 0 27.8581
0 1.0302 0.005 49.0583
0 1.02298 0 15.0074
0 0.996516 0 33.7825
0 1.00613 0 22.7755
0 0.995835 0 30.7247
0 0.970758 0 10.1971
0 0.979335 0 5.17596
0 0.982948 0 23.3934
0 0.978262 0 11.5171
0 0.991578 0 32.1599
0 0.983438 0 23.6582
0 1.03285 0.005 5.36193
0 0.993547 0 41.1993
0 0.997026 0 56.2723
0 1.00193 0 67.1788
0 0.996756 0 64.9117
0 1.01922 0 72.9217
0 1.00064 0 82.6247
0 1.01445 0 67.878
0 0.960297 0 18.4516
0 0.960849 0 14.6377
0 0.972264 0 19.2995
0 0.981935 0 22.9317
0 0.993282 0 40.4359
0 0.987571 0 30.4852
0 0.967975 0.005 24.9594
0 1.01573 0 44.6202
0 1.01665 0 19.9077
0 1.00151 0 27.1254
0 0.992598 0 23.6642
0 0.993784 0 25.5047
0 0.969966 0 8.11044
0 0.976391 0 12.0945
0 0.988576 0 18.0109
0 0.981573 0 13.9748
0 1.01636 0 18.5113
0 1.01899 0 8.49653
0 0.994415 0 54.7791
0 0.994892 0 69.3331
0 0.999382 0 84.2595
0 0.993722 0 76.9101
0 1.01207 0.005 59.8308
0 1.00284 0 76.7367
0 0.992978 0 50.7299
0 0.966269 0.005 15.6251
0 0.973887 0.0627875 69.4937
0 0.97063 0 29.904
0 0.988187 0 38.6261
0 0.989409 0 48.8978
0 0.967825 0.005 32.2153
0 0.99795 0.0551068 93.5372
0 1.01348 0.005 55.2086
0 1.00502 0.005 41.1748
0 0.991088 0 9.53298
0 1.00021 0 27.0594
0 0.992385 0 19.5353
0 0.991659 0 13.9892
0 1.0011 0 26.3382
0 0.973721 0 10.5443
0 0.98514 0 9.58224
0 0.96403 0 18.0051
0 0.990327 0 4.7939
0 1.02251 0 13.6419
0 1.0336 0.005 3.62906
0 0.992513 0 65.5453
0 0.993017 0 80.3751
0 1.01147 0 71.7577
0 0.994731 0 85.0866
0 1.01384 0 69.3338
0 0.990987 0 59.5262
0 0.977529 0.0637241 86.6253
0 0.967326 0 39.9967
0 0.984241 0 54.1471
0 0.966854 0.005 35.0877
0 0.970386 0 31.9787
0 1.01342 0.005 54.2664
0 1.00242 0.0608912 76.6954
0 0.991023 0 2.95659
0 0.992301 0 23.1036
0 0.991131 0 12.0325
0 1.00172 0 23.5561
0 0.994051 0 32.1589
0 0.977332 0 17.2187
0 0.986151 0 12.1126
0 0.963795 0 22.3282
0 0.988638 0 7.5646
0 0.990253 0 10.7984
0 1.00112 0 23.5943
0 1.02009 0 11.0074
0 1.03528 0 5.90005
0 0.991773 0 74.6566
0 0.995204 0 84.3657
0 1.01372 0 70.6739
0 0.997069 0 80.7523
0 0.987639 0 66.6413
0 0.980458 0 59.0954
0 0.966314 0 29.3421
0 0.96746 0 45.778
0 0.958454 0 38.6102
0 0.961976 0 36.8922
0 0.956931 0 39.2596
0 1.01401 0 69.6666
0 1.01434 0.005 52.2218
0 1.00437 0 33.7977
0 0.99136 0 20.2833
0 0.994977 0 36.0488
0 0.996903 0 33.6769
0 0.99019 0 19.8112
0 0.9789 0 17.1029
0 0.986365 0 13.6045
0 1.00132 0 25.4124
0 1.01852 0 11.8768
0 1.03484 0.005 4.1703
0 0.990492 0 80.6298
0 0.99712 0 85.6297
0 1.00064 0 83.0452
0 0.98352 0 69.1504
0 0.978466 0 57.4129
0 0.973685 0 26.0491
0 0.974376 0 32.7729
0 0.97399 0 46.8487
0 0.974784 0 45.6844
0 1.01423 0 69.2504
0 1.01547 0.005 51.5031
0 1.00876 0 30.5665
0 0.992457 0 32.9076
0 0.997087 0 38.5315
0 0.986604 0 25.3104
0 0.980262 0 16.9349
0 1.00001 0 40.6983
0 1.00467 0 30.1092
0 1.01867 0 16.9089
0 1.03273 0 7.54074
0 0.992036 0 83.4333
0 0.999287 0 78.0784
0 0.988383 0 68.6347
0 0.984179 0 58.3463
0 0.978797 0 22.2039
0 0.983508 0 32.1424
0 0.986163 0 52.626
0 0.989499 0 41.7522
0 0.99979 0 68.5982
0 1.01092 0 60.6378
0 1.01415 0.005 50.0834
0 1.00873 0 30.4247
0 0.991503 0 41.1774
0 0.983728 0 24.4271
0 0.998661 0 42.08
0 1.00717 0 26.154
0 1.0211 0 12.4612
0 1.03179 0 8.06959
0 0.997436 0 70.2832
0 0.995375 0 56.6393
0 0.988284 0 25.3582
0 0.994149 0 32.5689
0 0.996329 0 44.073
0 0.999095 0 68.9723
0 1.00375 0 55.8428
0 1.01438 0.005 42.6596
0 1.01076 0.0707829 54.6104
0 0.992743 0 38.6106
0 0.999561 0 38.4425
0 1.00481 0 23.3408
0 1.02018 0 6.68696
0 1.03109 0 12.133
0 0.997974 0 54.9706
0 0.996038 0 38.0041
0 0.996715 0 40.4371
0 0.998327 0 63.4847
0 1.00155 0 54.019
0 1.01718 0 39.9238
0 1.02416 0.005 24.603
0 0.998441 0 44.6116
0 1.00253 0 24.2351
0 1.01781 0 3.9668
0 1.02921 0 16.4927
0 0.998524 0 46.2643
0 0.997247 0 52.9339
0 0.997419 0 48.2893
0 0.99727 0 48.6771
0 1.00345 0 55.9406
0 1.02073 0 41.595
0 1.03291 0.005 24.9777
0 1.00185 0 29.7934
0 1.01628 0 9.82086
0 1.03012 0 17.3192
0 1.00231 0 38.2519
0 1.0044 0 56.9924
0 1.0035 0 49.4178
0 1.02452 0 43.6285
0 1.03534 0.005 22.0676
0 1.01761 0 19.7491
0 1.02878 0 17.0587
0 1.02218 0 31.4908
0 1.02492 0 40.2244
0 1.03791 0.005 22.4822
0 1.03359 0.005 14.4204
0 1.0374 0.005 15.3987
VECTORS fa_u float
0.00639155 0.00263672 -0
0.00566891 0.00327704 -0
0.00582866 0.00155641 -0
0.00683716 0.000898481 -0
1e-08 0 0
0.00514336 0.00395147 -0
0.00457149 0.00457175 -0
1e-08 0 0
1e-08 0 0
0.00405634 0.00529341 -0
0.00322032 0.00559039 -0
0.00635575 -8.20659e-06 -0
0.00657566 -0.000871916 0
1e-08 0 0
1e-08 0 0
1e-08 0 0
1e-08 0 0
1e-08 0 0
1e-08 0 0
1e-08 0 0
1e-08 0 0
0.00252226 0.00610882 -0
0.00160953 0.00600808 -0
1e-08 0 0
1e-08 0 0
1e-08 0 0
0.00857578 -0.00241551 0
1e-08 0 0
0.00309799 -0.00130187 0
1e-08 0 0
1e-08 0 0
1e-08 0 0
0.000877278 0.00662826 -0
1e-08 0 0
1e-08 0 0
1e-08 0 0
1e-08 0 0
1e-08 0 0
1e-08 0 0
1e-08 0 0
1e-08 0 0
1e-08 0 0
1e-08 0 0
-3.32033e-06 0.00660988 -0
1e-08 0 0
1e-08 0 0
1e-08 0 0
0.00583928 -0.00327363 0
1e-08 0 0
0.00630223 -0.00478596 0
1e-08 0 0
1e-08 0 0
1e-08 0 0
1e-08 0 0
1e-08 0 0
1e-08 0 0
1e-08 0 0
1e-08 0 0
1e-08 0 0
1e-08 0 0
1e-08 0 0
1e-08 0 0
1e-08 0 0
-0.000807519 0.00615771 0
1e-08 0 0
1e-08 0 0
1e-08 0 0
1e-08 0 0
1e-08 0 0
0.00445751 -0.00445958 0
1e-08 0 0
0.00396608 -0.00515913 0
1e-08 0 0
1e-08 0 0
1e-08 0 0
1e-08 0 0
1e-08 0 0
1e-08 0 0
1e-08 0 0
1e-08 0 0
1e-08 0 0
1e-08 0 0
1e-08 0 0
1e-08 0 0
1e-08 0 0
-0.00168896 0.00635284 0
1e-08 0 0
1e-08 0 0
1e-08 0 0
1e-08 0 0
1e-08 0 0
1e-08 0 0
0.0035289 -0.00613813 0
1e-08 0 0
1e-08 0 0
1e-08 0 0
1e-08 0 0
1e-08 0 0
0.00219055 -0.00529199 0
1e-08 0 0
1e-08 0 0
1e-08 0 0
1e-08 0 0
1e-08 0 0
1e-08 0 0
1e-08 0 0
1e-08 0 0
1e-08 0 0
1e-08 0 0
-0.00409083 0.00946901 0
1e-08 0 0
1e-08 0 0
1e-08 0 0
1e-08 0 0
1e-08 0 0
1e-08 0 0
1e-08 0 0
1e-08 0 0
1e-08 0 0
1e-08 0 0
1e-08 0 0
1e-08 0 0
1e-08 0 0
1e-08 0 0
0.00179832 -0.00666105 0
1e-08 0 0
1e-08 0 0
1e-08 0 0
1e-08 0 0
1e-08 0 0
1e-08 0 0
1e-08 0 0
1e-08 0 0
1e-08 0 0
-0.000858169 0.00148595 0
1e-08 0 0
1e-08 0 0
1e-08 0 0
1e-08 0 0
1e-08 0 0
1e-08 0 0
1e-08 0 0
1e-08 0 0
1e-08 0 0
1e-08 0 0
1e-08 0 0
1e-08 0 0
1e-08 0 0
1e-08 0 0
1e-08 0 0
0.000871868 -0.00666869 0
1e-08 0 0
1e-08 0 0
1e-08 0 0
1e-08 0 0
1e-08 0 0
1e-08 0 0
1e-08 0 0
1e-08 0 0
1e-08 0 0
1e-08 0 0
-0.00602849 0.00811628 0
1e-08 0 0
1e-08 0 0
1e-08 0 0
1e-08 0 0
1e-08 0 0
1e-08 0 0
1e-08 0 0
1e-08 0 0
1e-08 0 0
1e-08 0 0
1e-08 0 0
1e-08 0 0
-1.89636e-06 -0.00620998 0
1e-08 0 0
1e-08 0 0
1e-08 0 0
1e-08 0 0
1e-08 0 0
1e-08 0 0
1e-08 0 0
1e-08 0 0
1e-08 0 0
1e-08 0 0
1e-08 0 0
1e-08 0 0
-0.00465501 0.0046497 0
1e-08 0 0
1e-08 0 0
1e-08 0 0
1e-08 0 0
1e-08 0 0
1e-08 0 0
1e-08 0 0
1e-08 0 0
1e-08 0 0
1e-08 0 0
1e-08 0 0
1e-08 0 0
1e-08 0 0
-0.000862384 -0.00658414 0
1e-08 0 0
1e-08 0 0
1e-08 0 0
1e-08 0 0
1e-08 0 0
1e-08 0 0
1e-08 0 0
1e-08 0 0
-0.00517938 0.00396676 0
1e-08 0 0
1e-08 0 0
1e-08 0 0
1e-08 0 0
1e-08 0 0
1e-08 0 0
1e-08 0 0
1e-08 0 0
1e-08 0 0
1e-08 0 0
1e-08 0 0
-0.00170933 -0.00637205 0
1e-08 0 0
1e-08 0 0
1e-08 0 0
1e-08 0 0
1e-08 0 0
1e-08 0 0
1e-08 0 0
-0.00566835 0.00326455 0
1e-08 0 0
1e-08 0 0
1e-08 0 0
1e-08 0 0
1e-08 0 0
1e-08 0 0
1e-08 0 0
1e-08 0 0
1e-08 0 0
1e-08 0 0
1e-08 0 0
-0.00251954 -0.0060669 0
1e-08 0 0
1e-08 0 0
1e-08 0 0
1e-08 0 0
1e-08 0 0
-0.00588091 0.00243332 0
1e-08 0 0
1e-08 0 0
1e-08 0 0
1e-08 0 0
1e-08 0 0
1e-08 0 0
1e-08 0 0
1e-08 0 0
-0.00309706 -0.0053706 0
1e-08 0 0
1e-08 0 0
1e-08 0 0
1e-08 0 0
-0.00646865 0.00173006 0
1e-08 0 0
1e-08 0 0
1e-08 0 0
1e-08 0 0
1e-08 0 0
1e-08 0 0
-0.0039305 -0.00514763 0
1e-08 0 0
1e-08 0 0
1e-08 0 0
-0.00613503 0.000809743 0
1e-08 0 0
1e-08 0 0
1e-08 0 0
1e-08 0 0
1e-08 0 0
1e-08 0 0
-0.0048369 -0.00484661 0
1e-08 0 0
1e-08 0 0
-0.00691373 6.18141e-07 0
1e-08 0 0
1e-08 0 0
1e-08 0 0
1e-08 0 0
-0.00509595 -0.00390939 0
1e-08 0 0
-0.00600821 -0.000787966 0
1e-08 0 0
1e-08 0 0
-0.00564049 -0.00326005 0
-0.0065103 -0.0017317 0
-0.00614528 -0.00254514 0
