# vtk DataFile Version 2.0
CellBP Time: 0.8
ASCII
DATASET UNSTRUCTURED_GRID
POINTS 296 double
-8.97791 -4.03888 0
-8.61505 -5.1086 0
-9.60898 -2.72344 0
-9.71257 -1.46649 0
-8.24126 -2.98501 0
-7.81904 -6.15653 0
-7.01584 -7.09591 0
-7.77691 -4.00962 0
-7.27534 -5.02327 0
-6.03223 -8.04245 0
-4.83473 -8.69324 0
-9.77399 -0.163123 0
-9.78877 1.1782 0
-8.32143 -1.80011 0
-8.59712 -0.826496 0
-7.37683 -2.10129 0
-7.10038 -3.07951 0
-6.48853 -5.89369 0
-5.78058 -6.8096 0
-6.64829 -4.06144 0
-6.0291 -4.749 0
-3.70649 -9.33024 0
-2.41483 -9.74502 0
-4.79708 -7.33428 0
-3.85585 -7.96051 0
-8.70175 0.448225 0
-9.40033 2.43579 0
-8.4005 1.62033 0
-9.12712 3.75548 0
-7.52421 -1.08663 0
-7.74601 -0.115169 0
-6.6953 -1.50697 0
-1.17989 -10.0483 0
-6.16251 -2.27553 0
-5.93058 -3.21589 0
-5.4858 -5.66476 0
-4.76084 -6.26668 0
-5.33551 -3.88226 0
-4.97496 -4.69739 0
-2.73819 -8.3548 0
-1.70178 -8.73425 0
-3.83554 -6.73009 0
-2.94722 -7.0903 0
0.132023 -10.0299 0
-7.64096 0.926607 0
-7.9972 2.5821 0
-7.20329 1.79512 0
-8.56454 5.01847 0
-7.72636 3.87084 0
-7.70089 5.92966 0
-6.72587 -0.498411 0
-6.91118 0.429255 0
-5.5044 -1.18231 0
-0.525837 -8.98339 0
0.548312 -8.8424 0
-5.05609 -2.52909 0
-4.27383 -5.07471 0
-3.77488 -5.7544 0
-4.21862 -3.76545 0
-2.02229 -7.51709 0
-1.15539 -7.80634 0
-2.82022 -6.02933 0
-2.19816 -6.49008 0
1.38252 -9.92708 0
-6.58691 1.2483 0
-7.07639 2.97294 0
-6.42294 2.17603 0
-7.02706 4.62173 0
-6.48888 3.72065 0
-6.80684 6.80035 0
-6.36716 5.64498 0
-5.96753 7.78192 0
-4.14386 -1.18719 0
-5.62924 0.272355 0
-4.45709 -0.214312 0
0.037711 -7.8237 0
1.74542 -8.77478 0
1.0655 -7.86838 0
-3.79575 -2.40513 0
-3.23373 -1.35674 0
-3.20787 -4.82407 0
-3.10372 -3.2964 0
-1.36915 -6.64236 0
-0.539203 -7.09959 0
-1.76962 -5.4483 0
2.79238 -9.7767 0
-5.31302 1.81599 0
-5.97316 2.85282 0
-5.86874 4.6828 0
-5.55326 3.84001 0
-5.49634 6.55605 0
-5.2957 5.45508 0
-4.74896 8.58431 0
-4.64748 7.34761 0
-3.23148 -0.345676 0
-4.20796 1.00003 0
-3.46386 0.47784 0
-3.88115 2.24907 0
-3.59718 9.19641 0
2.84338 -8.41034 0
0.525998 -6.81451 0
2.138 -7.64599 0
1.45822 -6.99105 0
-2.18899 -0.831753 0
-2.59551 -2.13548 0
-2.22076 -4.0847 0
-2.27548 -3.06073 0
-0.408731 -5.98886 0
-1.09972 -4.43505 0
4.02067 -9.3018 0
-4.59811 3.25523 0
-4.89419 4.42688 0
-4.34891 6.11631 0
-4.28481 5.17547 0
-3.54506 7.87172 0
-3.58191 6.62666 0
-2.49274 8.34305 0
-1.46937 -0.221376 0
-1.27124 -0.956724 0
-2.06804 0.513968 0
-3.02479 1.41223 0
-2.93779 3.22911 0
-2.7007 2.19329 0
-1.02614 0.512702 0
-2.34701 9.61609 0
3.96753 -7.92508 0
3.04021 -7.12411 0
0.991644 -5.88503 0
2.17727 -6.57518 0
-1.44176 -1.97142 0
-1.23443 -3.25067 0
0.0681426 -4.83775 0
-0.361151 -3.71862 0
4.95495 -7.36881 0
5.13708 -8.59873 0
-3.49093 4.47289 0
-3.45486 5.66038 0
-2.67207 7.11861 0
-2.71819 6.26606 0
-1.30247 8.51741 0
-1.78517 7.52263 0
-2.03533 3.90302 0
-0.520318 -1.24657 0
-0.61092 -0.342926 0
-1.74439 1.45567 0
-1.95278 2.55288 0
-1.11334 3.45819 0
-0.681614 1.2838 0
-0.133045 0.323086 0
-0.225619 8.71122 0
-1.2237 9.98698 0
1.1735 -4.73153 0
3.96556 -6.69299 0
3.10664 -6.09892 0
2.18515 -5.51593 0
4.87785 -6.17822 0
-0.401136 -2.43781 0
0.690342 -3.57392 0
0.242377 -1.73103 0
1.58442 -3.79908 0
5.97851 -6.58202 0
6.30032 -7.89018 0
-2.17107 5.23716 0
-1.84626 6.41133 0
-0.674939 7.74699 0
-1.03222 6.83317 0
0.272205 7.78176 0
-0.821082 4.42627 0
0.401823 -0.846255 0
-0.679747 2.3624 0
-0.159479 3.38109 0
0.28589 1.36607 0
0.841916 0.431199 0
0.887512 8.90364 0
0.286777 10.0411 0
2.45142 -4.24364 0
4.02419 -5.64943 0
3.14117 -5.22832 0
5.6621 -5.44164 0
4.71825 -5.24762 0
0.700829 -2.37632 0
1.34066 -3.01394 0
0.936432 -1.62251 0
2.30112 -3.21902 0
3.10731 -3.55535 0
6.12879 -4.6673 0
6.72834 -5.77815 0
7.24096 -7.15656 0
-0.672269 5.73033 0
-0.16994 6.80347 0
1.26448 7.62763 0
0.686394 6.8931 0
0.219771 4.58517 0
0.801809 3.63941 0
1.49121 -0.927591 0
0.594716 2.34074 0
1.1394 1.43021 0
1.88733 0.258402 0
1.63262 1.04041 0
2.27643 7.4501 0
1.94027 8.80358 0
1.53117 10.0932 0
3.85588 -4.19883 0
5.16922 -4.373 0
5.93156 -3.88893 0
3.80975 -3.04378 0
1.98253 -2.11096 0
3.11273 -2.53445 0
6.89463 -3.89666 0
7.33395 -4.84499 0
7.95937 -5.96884 0
0.67877 5.70266 0
1.55022 6.58056 0
2.43866 6.50254 0
1.24354 4.47145 0
1.58203 3.22173 0
2.43551 -0.659381 0
2.83812 0.0600062 0
1.89251 2.02725 0
2.66872 1.06153 0
3.1969 7.12966 0
3.00611 8.49216 0
2.80881 9.71608 0
4.98137 -3.16966 0
6.15371 -3.00869 0
4.2224 -2.12613 0
3.18746 -1.4493 0
6.70795 -2.1547 0
7.29984 -2.86139 0
7.93838 -3.83906 0
8.85198 -4.88504 0
2.17043 5.37592 0
3.11033 6.0031 0
2.38837 4.03024 0
2.51318 3.05886 0
3.54633 -0.590404 0
3.60456 0.507117 0
2.98859 2.2515 0
3.55822 1.4516 0
4.0361 5.90425 0
4.05457 6.70272 0
4.16412 7.88026 0
3.91811 9.3145 0
5.55629 -1.81578 0
4.42582 -1.1268 0
6.87399 -1.16482 0
7.73954 -1.89195 0
8.39142 -2.7604 0
9.33553 -3.71463 0
3.55386 4.74878 0
3.36661 3.39085 0
4.67502 0.144052 0
4.49916 1.22895 0
4.0761 2.42639 0
4.59089 5.17027 0
4.95979 6.17176 0
5.05206 7.40152 0
5.27977 8.68169 0
5.86075 -0.360057 0
6.96348 -0.365018 0
7.88274 -0.992452 0
8.88986 -1.75154 0
9.96209 -2.57874 0
4.59566 3.88359 0
5.83029 1.24683 0
5.321 2.38024 0
5.48399 4.55156 0
5.57207 5.52612 0
6.10848 6.7636 0
6.47611 7.95463 0
7.02147 0.469373 0
8.06653 -0.0053042 0
8.98043 -0.613324 0
10.1575 -1.23844 0
7.09401 1.31527 0
5.65619 3.68639 0
6.71232 2.18555 0
6.32092 3.05699 0
6.32908 4.71826 0
6.67497 5.77976 0
7.32546 7.07432 0
7.88328 0.944817 0
9.01969 0.522994 0
10.3577 0.0717094 0
7.68517 1.96905 0
6.62954 3.76703 0
7.21529 2.92364 0
7.38238 4.96844 0
8.13446 6.08414 0
8.81592 1.5655 0
10.0316 1.41644 0
8.37079 2.83637 0
7.90989 3.94144 0
8.78084 4.97499 0
9.77625 2.80455 0
9.34119 3.79673 0
CELLS 542 2168
3 2 0 4
3 0 1 7
3 4 0 7
3 1 5 8
3 7 1 8
3 3 2 13
3 13 2 4
3 11 3 14
3 14 3 13
3 13 4 15
3 4 7 16
3 15 4 16
3 5 6 17
3 8 5 17
3 6 9 18
3 17 6 18
3 7 8 19
3 16 7 19
3 8 17 20
3 19 8 20
3 9 10 23
3 18 9 23
3 10 21 24
3 23 10 24
3 12 11 25
3 25 11 14
3 26 12 27
3 27 12 25
3 14 13 29
3 29 13 15
3 25 14 30
3 30 14 29
3 29 15 31
3 15 16 33
3 31 15 33
3 16 19 34
3 33 16 34
3 17 18 35
3 20 17 35
3 18 23 36
3 35 18 36
3 19 20 37
3 34 19 37
3 20 35 38
3 37 20 38
3 21 22 39
3 24 21 39
3 22 32 40
3 39 22 40
3 23 24 41
3 36 23 41
3 24 39 42
3 41 24 42
3 27 25 44
3 44 25 30
3 28 26 45
3 45 26 27
3 45 27 46
3 46 27 44
3 47 28 48
3 48 28 45
3 30 29 50
3 50 29 31
3 44 30 51
3 51 30 50
3 50 31 52
3 31 33 52
3 32 43 53
3 40 32 53
3 53 43 54
3 33 34 55
3 34 37 55
3 33 55 52
3 35 36 56
3 38 35 56
3 36 41 57
3 56 36 57
3 37 38 58
3 38 56 58
3 37 58 55
3 39 40 59
3 42 39 59
3 40 53 60
3 59 40 60
3 41 42 61
3 57 41 61
3 42 59 62
3 61 42 62
3 43 63 54
3 46 44 64
3 64 44 51
3 48 45 65
3 65 45 46
3 65 46 66
3 66 46 64
3 49 47 67
3 67 47 48
3 67 48 68
3 68 48 65
3 69 49 70
3 70 49 67
3 52 55 72
3 64 51 73
3 51 50 73
3 50 52 73
3 73 52 74
3 74 52 72
3 53 54 75
3 60 53 75
3 54 63 76
3 54 76 77
3 75 54 77
3 55 58 78
3 72 55 78
3 72 78 79
3 56 57 80
3 57 61 80
3 56 80 58
3 58 80 81
3 78 58 81
3 59 60 82
3 62 59 82
3 60 75 83
3 82 60 83
3 61 62 84
3 62 82 84
3 61 84 80
3 63 85 76
3 66 64 86
3 64 73 86
3 68 65 87
3 87 65 66
3 87 66 86
3 70 67 88
3 88 67 68
3 88 68 89
3 89 68 87
3 71 69 90
3 90 69 70
3 90 70 91
3 91 70 88
3 92 71 93
3 93 71 90
3 74 72 94
3 94 72 79
3 86 73 95
3 95 73 74
3 95 74 96
3 96 74 94
3 97 86 95
3 76 85 99
3 75 77 100
3 83 75 100
3 76 99 101
3 77 76 101
3 77 101 102
3 100 77 102
3 94 79 103
3 78 81 104
3 79 78 104
3 79 104 103
3 80 84 105
3 81 80 105
3 81 105 106
3 104 81 106
3 82 83 107
3 83 100 107
3 82 107 84
3 84 107 108
3 105 84 108
3 85 109 99
3 89 87 110
3 87 86 110
3 110 86 97
3 91 88 111
3 111 88 89
3 111 89 110
3 93 90 112
3 112 90 91
3 112 91 113
3 113 91 111
3 98 92 114
3 114 92 93
3 114 93 115
3 115 93 112
3 116 98 114
3 117 103 118
3 96 94 119
3 94 103 119
3 119 103 117
3 97 95 120
3 120 95 96
3 120 96 119
3 121 110 97
3 121 97 122
3 122 97 120
3 123 119 117
3 124 98 116
3 99 109 125
3 99 125 126
3 101 99 126
3 100 102 127
3 100 127 107
3 101 126 128
3 102 101 128
3 102 128 127
3 104 106 129
3 104 129 103
3 103 129 118
3 105 108 130
3 106 105 130
3 106 130 129
3 107 127 131
3 108 107 131
3 108 131 132
3 108 132 130
3 109 134 125
3 125 134 133
3 113 111 135
3 111 110 135
3 135 110 121
3 115 112 136
3 136 112 113
3 136 113 135
3 116 114 137
3 137 114 115
3 137 115 138
3 138 115 136
3 139 124 116
3 139 116 140
3 140 116 137
3 141 135 121
3 118 129 142
3 118 142 143
3 117 118 143
3 123 117 143
3 122 120 144
3 120 119 144
3 144 119 123
3 141 121 145
3 145 121 122
3 145 122 144
3 146 141 145
3 147 144 123
3 147 123 148
3 143 148 123
3 150 124 139
3 149 150 139
3 131 127 151
3 125 133 152
3 126 125 152
3 126 152 153
3 128 126 153
3 128 153 154
3 128 154 127
3 127 154 151
3 152 133 155
3 130 132 156
3 130 156 129
3 129 156 142
3 131 151 157
3 132 131 157
3 132 157 156
3 156 158 142
3 157 151 159
3 133 160 155
3 134 161 133
3 133 161 160
3 138 136 162
3 136 135 162
3 162 135 141
3 140 137 163
3 163 137 138
3 163 138 162
3 149 139 164
3 164 139 140
3 164 140 165
3 165 140 163
3 166 149 164
3 167 162 141
3 167 141 146
3 142 158 168
3 143 142 168
3 143 168 148
3 146 145 169
3 145 144 169
3 169 144 147
3 170 167 146
3 170 146 169
3 171 169 147
3 171 147 148
3 171 148 172
3 168 172 148
3 173 149 166
3 174 150 149
3 173 174 149
3 154 175 151
3 151 175 159
3 152 155 176
3 153 152 176
3 153 176 177
3 153 177 154
3 154 177 175
3 155 160 178
3 155 178 179
3 176 155 179
3 156 157 180
3 156 180 158
3 157 159 181
3 157 181 180
3 158 180 182
3 158 182 168
3 159 175 183
3 159 183 181
3 175 184 183
3 160 186 178
3 178 186 185
3 161 187 160
3 160 187 186
3 165 163 188
3 163 162 188
3 188 162 167
3 166 164 189
3 189 164 165
3 189 165 188
3 190 173 166
3 190 166 191
3 191 166 189
3 192 188 167
3 192 167 170
3 193 192 170
3 182 194 168
3 194 172 168
3 193 170 195
3 170 169 195
3 195 169 171
3 196 195 171
3 196 171 172
3 194 197 172
3 197 198 172
3 198 196 172
3 200 173 190
3 199 200 190
3 201 174 173
3 200 201 173
3 176 179 202
3 177 176 202
3 177 202 175
3 175 202 184
3 178 185 203
3 178 203 179
3 179 203 202
3 203 185 204
3 202 205 184
3 183 206 181
3 180 181 206
3 180 206 182
3 182 206 194
3 183 184 207
3 205 207 184
3 183 207 206
3 185 208 204
3 186 209 185
3 185 209 208
3 187 210 186
3 186 210 209
3 191 189 211
3 189 188 211
3 211 188 192
3 199 190 212
3 212 190 191
3 212 191 211
3 213 199 212
3 214 211 192
3 214 192 193
3 215 214 193
3 215 193 195
3 206 216 194
3 216 197 194
3 216 217 197
3 215 195 218
3 218 195 196
3 198 218 196
3 217 219 197
3 219 218 198
3 197 219 198
3 220 199 213
3 221 200 199
3 220 221 199
3 222 201 200
3 221 222 200
3 203 204 223
3 203 223 202
3 202 223 205
3 204 208 224
3 204 224 223
3 205 223 225
3 205 225 207
3 207 225 226
3 207 226 206
3 226 216 206
3 208 228 224
3 224 228 227
3 209 229 208
3 229 228 208
3 210 230 209
3 209 230 229
3 213 212 231
3 212 211 231
3 231 211 214
3 232 220 213
3 232 213 231
3 233 231 214
3 233 214 215
3 234 233 215
3 234 215 218
3 226 235 216
3 235 217 216
3 235 236 217
3 217 236 219
3 237 234 218
3 237 218 219
3 236 238 219
3 238 237 219
3 240 220 232
3 239 240 232
3 241 221 220
3 240 241 220
3 242 222 221
3 241 242 221
3 224 227 243
3 224 243 223
3 223 243 225
3 225 243 244
3 225 244 226
3 226 244 235
3 227 245 243
3 228 246 227
3 227 246 245
3 229 247 228
3 228 247 246
3 230 248 229
3 229 248 247
3 239 232 249
3 232 231 249
3 249 231 233
3 250 249 233
3 250 233 234
3 237 250 234
3 244 251 235
3 235 251 236
3 251 252 236
3 236 252 238
3 252 253 238
3 253 250 237
3 253 237 238
3 254 239 249
3 255 240 239
3 254 255 239
3 256 241 240
3 255 256 240
3 257 242 241
3 256 257 241
3 245 258 243
3 243 258 244
3 244 258 251
3 245 259 258
3 246 260 245
3 245 260 259
3 247 261 246
3 246 261 260
3 248 262 247
3 247 262 261
3 254 249 263
3 263 249 250
3 253 263 250
3 258 264 251
3 251 264 252
3 264 265 252
3 265 263 253
3 252 265 253
3 266 254 263
3 267 255 254
3 266 267 254
3 268 256 255
3 267 268 255
3 269 257 256
3 268 269 256
3 259 270 258
3 270 264 258
3 260 271 259
3 259 271 270
3 261 272 260
3 260 272 271
3 262 273 261
3 273 272 261
3 270 274 264
3 275 266 263
3 275 263 265
3 274 276 264
3 276 265 264
3 276 277 265
3 277 275 265
3 278 267 266
3 275 278 266
3 279 268 267
3 278 279 267
3 280 269 268
3 279 280 268
3 271 281 270
3 270 281 274
3 272 282 271
3 271 282 281
3 273 283 272
3 272 283 282
3 281 284 274
3 274 284 276
3 285 278 275
3 277 285 275
3 284 286 276
3 286 285 277
3 276 286 277
3 287 279 278
3 285 287 278
3 288 280 279
3 287 288 279
3 282 289 281
3 281 289 284
3 283 290 282
3 282 290 289
3 289 291 284
3 284 291 286
3 291 292 286
3 292 287 285
3 286 292 285
3 293 288 287
3 292 293 287
3 290 294 289
3 289 294 291
3 294 295 291
3 295 293 292
3 291 295 292
CELL_TYPES 542
5
5
5
5
5
5
5
5
5
5
5
5
5
5
5
5
5
5
5
5
5
5
5
5
5
5
5
5
5
5
5
5
5
5
5
5
5
5
5
5
5
5
5
5
5
5
5
5
5
5
5
5
5
5
5
5
5
5
5
5
5
5
5
5
5
5
5
5
5
5
5
5
5
5
5
5
5
5
5
5
5
5
5
5
5
5
5
5
5
5
5
5
5
5
5
5
5
5
5
5
5
5
5
5
5
5
5
5
5
5
5
5
5
5
5
5
5
5
5
5
5
5
5
5
5
5
5
5
5
5
5
5
5
5
5
5
5
5
5
5
5
5
5
5
5
5
5
5
5
5
5
5
5
5
5
5
5
5
5
5
5
5
5
5
5
5
5
5
5
5
5
5
5
5
5
5
5
5
5
5
5
5
5
5
5
5
5
5
5
5
5
5
5
5
5
5
5
5
5
5
5
5
5
5
5
5
5
5
5
5
5
5
5
5
5
5
5
5
5
5
5
5
5
5
5
5
5
5
5
5
5
5
5
5
5
5
5
5
5
5
5
5
5
5
5
5
5
5
5
5
5
5
5
5
5
5
5
5
5
5
5
5
5
5
5
5
5
5
5
5
5
5
5
5
5
5
5
5
5
5
5
5
5
5
5
5
5
5
5
5
5
5
5
5
5
5
5
5
5
5
5
5
5
5
5
5
5
5
5
5
5
5
5
5
5
5
5
5
5
5
5
5
5
5
5
5
5
5
5
5
5
5
5
5
5
5
5
5
5
5
5
5
5
5
5
5
5
5
5
5
5
5
5
5
5
5
5
5
5
5
5
5
5
5
5
5
5
5
5
5
5
5
5
5
5
5
5
5
5
5
5
5
5
5
5
5
5
5
5
5
5
5
5
5
5
5
5
5
5
5
5
5
5
5
5
5
5
5
5
5
5
5
5
5
5
5
5
5
5
5
5
5
5
5
5
5
5
5
5
5
5
5
5
5
5
5
5
5
5
5
5
5
5
5
5
5
5
5
5
5
5
5
5
5
5
5
5
5
5
5
5
5
5
5
5
5
5
5
5
5
5
5
5
5
5
5
5
5
5
5
5
5
5
5
5
5
5
5
5
5
5
5
5
5
5
5
5
5
5
5
5
5
5
5
5
5
5
5
5
5
5
5
5
5
5
5
5
5
5
5
5
5
5
5
5
5
5
5
5
5
5
5
5
5
5
5
5
5
5
5
5
5
POINT_DATA 296
SCALARS concentrations float 4
LOOKUP_TABLE default
0 0.99524 0.005 640.926
0 0.994777 0.005 646.8
0 0.998665 0 631.718
0 1.00007 0.005 623.718
0 0.995541 0.005 639.537
0 0.992844 0 651.795
0 0.993239 0 656.408
0 0.994229 0 647.226
0 0.993305 0.005 651.596
0 0.993074 0 659.596
0 0.993109 0 662.487
0 1.00234 0 615.549
0 1.00194 0.005 606.271
0 0.997486 0.005 632.043
0 1.00021 0.005 624.942
0 0.994843 0 638.241
0 0.994636 0 645.409
0 0.992184 0 654.556
0 0.992859 0 657.38
0 0.993248 0 650.895
0 0.991768 0 652.975
0 0.994838 0 663.606
0 0.996519 0.005 664.068
0 0.992826 0 659.838
0 0.993469 0 662.493
0 1.00063 0.005 616.868
0 1.00288 0.005 598.983
0 1.00126 0.005 610.808
0 1.00326 0.005 590.028
0 0.996 0.005 631.534
0 0.997144 0.005 624.749
0 0.994201 0.005 638.188
0 0.997013 0 664.641
0 0.993654 0.005 645.567
0 0.992372 0.005 651.961
0 0.992116 0 655.569
0 0.992357 0 657.857
0 0.9919 0 653.726
0 0.991863 0 655.018
0 0.995463 0 663.325
0 0.996783 0 663.915
0 0.993022 0 660.254
0 0.994399 0 662.471
0 0.997401 0 661.275
0 0.997735 0.005 619.161
0 1.00234 0.005 606.02
0 0.997892 0.005 616.302
0 1.00452 0 582.091
0 1.00353 0 596.482
0 1.0029 0 578.669
0 0.993898 0.005 632.105
0 0.994428 0.005 625.674
0 0.992534 0.005 642.87
0 0.997863 0 661.864
0 0.997915 0 656.885
0 0.991938 0 653.167
0 0.991673 0 656.885
0 0.992851 0 658.632
0 0.992543 0.005 656.462
0 0.99642 0 663.345
0 0.998946 0 662.031
0 0.994187 0 660.934
0 0.995972 0 662.903
0 0.996671 0.005 655.655
0 0.994202 0.005 622.733
0 0.998845 0.005 607.717
0 0.994721 0 616.066
0 1.00276 0.005 591.786
0 0.999594 0.005 600.867
0 0.995226 0.005 570.809
0 0.999651 0 582.292
0 0.990448 0.005 562.213
0 0.99284 0.005 650.868
0 0.992353 0.005 633.819
0 0.993279 0 642.786
0 1.00326 0 656.899
0 0.993841 0.005 651.899
0 1.00557 0.0581005 684.48
0 0.993424 0 657.261
0 0.994805 0 655.955
0 0.99254 0 659.487
0 0.992469 0.005 659.401
0 0.998533 0 660.392
0 1.00179 0 657.809
0 0.996527 0 662.558
0 0.99517 0 650.322
0 0.993574 0 620.706
0 0.995055 0 609.697
0 0.999651 0 591.954
0 0.997078 0.005 600.343
0 0.99314 0 574.266
0 0.996758 0.005 584.991
0 0.984008 0.0322628 467.722
0 0.98918 0.005 567.643
0 0.994748 0 645.326
0 0.993032 0 630.248
0 0.994767 0.005 636.44
0 0.992772 0.005 617.473
0 0.981631 0.0545006 494.455
0 0.993084 0 647.141
0 1.0078 0 652.895
0 0.998871 0.005 648.346
0 1.01334 0.005 649.671
0 0.996236 0.005 650.91
0 0.994768 0.005 659.863
0 0.99404 0 661.274
0 0.992658 0.005 660.677
0 1.00148 0 658.041
0 0.997017 0.005 662.765
0 0.996999 0.005 645.624
0 0.994661 0.005 606.959
0 0.996293 0.005 595.255
0 0.993087 0 579.614
0 0.995212 0.005 588.67
0 0.985027 0 564.737
0 0.990809 0.005 575.684
0 0.989119 0.005 565.587
0 1.00794 0.005 644.949
0 0.995739 0.005 652.411
0 0.996761 0.005 637.448
0 0.994885 0 627.048
0 0.991744 0.005 608.89
0 0.992952 0 619.166
0 1.00829 0.005 637.71
0 0.991657 0.005 556.535
0 0.998574 0.0491028 720.562
0 0.994224 0.0645402 646.866
0 1.0073 0.005 653.824
0 1.01034 0 647.974
0 0.993022 0.005 661.499
0 0.993253 0.005 662.147
0 1.00243 0 660.135
0 0.995097 0 663.614
0 1.00251 0.005 642.037
0 0.99714 0.005 642.393
0 0.994859 0.005 596.307
0 0.993684 0.005 584.999
0 0.991432 0.005 575.952
0 0.992544 0.005 581.73
0 0.99443 0 572.484
0 0.992634 0.005 578.431
0 0.990581 0.0480783 664.825
0 0.986143 0 655.678
0 0.997497 0.005 646.507
0 0.996919 0.005 627.932
0 0.988529 0.005 616.476
0 0.982997 0.005 612.519
0 1.0017 0 630.18
0 0.998902 0 640.256
0 0.9947 0.052235 660.644
0 0.997939 0.005 559.057
0 1.00518 0.005 657.222
0 1.01054 0.005 643.144
0 1.00733 0 647.161
0 1.00565 0.0481521 715.31
0 1.01366 0.005 645.502
0 0.992332 0.005 663.363
0 0.997376 0.005 662.63
0 0.987592 0.005 661.066
0 0.999609 0 659.463
0 0.999998 0.005 644.742
0 0.9929 0.005 643.391
0 0.994715 0 592.708
0 0.991541 0 587.276
0 0.99036 0 584.559
0 0.990494 0.005 590.582
0 0.989891 0 591.542
0 0.988286 0.048114 670.496
0 0.983958 0.0487744 716.102
0 0.990073 0.005 622.051
0 0.982327 0.005 619.791
0 0.989722 0.005 633.084
0 0.985716 0 643.122
0 0.9939 0.005 585.823
0 0.997237 0.005 570.271
0 1.00274 0.005 655.858
0 1.01102 0 647.963
0 1.00394 0.005 650.673
0 1.0058 0.005 649.323
0 1.0054 0 649.397
0 0.989423 0.005 665.544
0 0.992396 0 662.972
0 0.983089 0 660.857
0 0.995142 0.005 660.767
0 0.997124 0.005 658.569
0 1.00481 0.005 653.24
0 1.00461 0.005 649.102
0 1.00473 0.005 644.78
0 0.989498 0.005 600.76
0 0.988767 0 597.397
0 0.992413 0.005 600.899
0 0.989277 0 603.22
0 0.982619 0 615.061
0 0.983232 0 623.292
0 0.982556 0.005 657.254
0 0.984395 0.005 627.741
0 0.973986 0 635.872
0 0.981773 0.005 648.847
0 0.981227 0 641.163
0 0.994231 0.005 605.987
0 0.995458 0.005 589.241
0 0.995855 0 573.267
0 1.00139 0.005 654.987
0 1.00351 0 653.442
0 1.00173 0 656.426
0 0.995711 0.005 660.615
0 0.987474 0 666.083
0 0.992146 0.005 663.474
0 1.00222 0 657.776
0 1.00424 0.005 654.158
0 1.00422 0.005 650.038
0 0.986792 0.005 611.812
0 0.989967 0.005 613.08
0 0.990311 0.005 617.587
0 0.983232 0.005 622.29
0 0.986125 0.005 628.855
0 0.980004 0.005 656.867
0 0.973592 0.005 652.349
0 0.984501 0.005 635.189
0 0.984849 0.005 645.34
0 0.994305 0.005 609.819
0 0.996136 0.005 593.434
0 0.996992 0.005 578.342
0 0.997441 0 659.508
0 0.998142 0.005 660.665
0 0.992102 0.005 664.984
0 0.987287 0 662.198
0 0.996588 0 665.422
0 1.00003 0 663.214
0 1.00286 0 659.831
0 1.0034 0 656.677
0 0.986861 0.005 624.135
0 0.99027 0 620.469
0 0.985844 0 630.052
0 0.986609 0 634.294
0 0.980683 0 656.806
0 0.977605 0 649.74
0 0.990702 0 639.293
0 0.985796 0.005 643.347
0 0.990414 0 619.141
0 0.993287 0.005 611.738
0 0.996269 0 600.658
0 0.995806 0.005 583.934
0 0.993155 0.005 666.177
0 0.987994 0.005 660.78
0 0.993213 0 661.525
0 0.998412 0 660.787
0 1.00119 0 659.073
0 1.00228 0 656.335
0 0.988471 0.005 626.959
0 0.987769 0.005 633.258
0 0.982063 0.005 652.569
0 0.979498 0.005 644.979
0 0.98596 0 637.219
0 0.98924 0 624.651
0 0.990884 0 614.666
0 0.993826 0.005 603.218
0 0.995004 0.005 591.097
0 0.987205 0 656.703
0 0.992244 0.005 656.495
0 0.99551 0 658.104
0 0.999076 0 656.176
0 1.001 0 653.014
0 0.987829 0 630.437
0 0.981396 0.005 645.882
0 0.984558 0.005 637.728
0 0.990605 0 627.919
0 0.991047 0 619.358
0 0.992035 0 607.096
0 0.993852 0 595.694
0 0.988061 0 651.413
0 0.994085 0 651.954
0 0.996581 0 653.637
0 0.997671 0 651.295
0 0.986461 0.005 646.316
0 0.992781 0 631.324
0 0.985572 0.005 641.116
0 0.991818 0.005 634.768
0 0.9911 0.005 625.323
0 0.991346 0 615.084
0 0.991722 0.005 602.54
0 0.991255 0 646.864
0 0.995301 0 647.169
0 0.996637 0.005 647.527
0 0.990716 0.005 641.426
0 0.99198 0 631.535
0 0.991048 0.005 636.903
0 0.991579 0.005 621.448
0 0.990984 0.005 610.794
0 0.994303 0.005 641.737
0 0.995461 0.005 640.772
0 0.994035 0 635.48
0 0.992894 0.005 629.517
0 0.992884 0 620.269
0 0.996323 0.005 632.806
0 0.994914 0 627.371
VECTORS fa_u float
-0.00514396 -0.00214355 0
0.036529 0.0199901 -0
0.0458236 0.013087 -0
0.000480033 3.09379e-05 -0
1e-08 0 0
0.00101883 0.000819866 -0
0.00263137 0.00249309 -0
1e-08 0 0
1e-08 0 0
0.0153688 0.0209857 -0
-4.76981e-05 -8.61428e-05 0
0.000491412 1.41587e-05 -0
0.0352121 -0.00506256 -0
1e-08 0 0
1e-08 0 0
1e-08 0 0
1e-08 0 0
1e-08 0 0
1e-08 0 0
1e-08 0 0
1e-08 0 0
0.00615593 0.0141633 -0
0.000507406 0.00178528 -0
1e-08 0 0
1e-08 0 0
1e-08 0 0
-0.00330501 0.000848471 -0
1e-08 0 0
0.0159402 -0.00515852 0
1e-08 0 0
1e-08 0 0
1e-08 0 0
0.00275781 0.0246555 -0
1e-08 0 0
1e-08 0 0
1e-08 0 0
1e-08 0 0
1e-08 0 0
1e-08 0 0
1e-08 0 0
1e-08 0 0
1e-08 0 0
1e-08 0 0
-8.50169e-05 0.0017966 0
1e-08 0 0
1e-08 0 0
1e-08 0 0
0.035676 -0.0234029 0
1e-08 0 0
0.000455373 -0.000449192 0
1e-08 0 0
1e-08 0 0
1e-08 0 0
1e-08 0 0
1e-08 0 0
1e-08 0 0
1e-08 0 0
1e-08 0 0
1e-08 0 0
1e-08 0 0
1e-08 0 0
1e-08 0 0
1e-08 0 0
-2.08088e-05 0.00021864 0
1e-08 0 0
1e-08 0 0
1e-08 0 0
1e-08 0 0
1e-08 0 0
-0.0023878 0.00223452 -0
1e-08 0 0
0.0185059 -0.0213474 0
1e-08 0 0
1e-08 0 0
1e-08 0 0
1e-08 0 0
1e-08 0 0
1e-08 0 0
1e-08 0 0
1e-08 0 0
1e-08 0 0
1e-08 0 0
1e-08 0 0
1e-08 0 0
1e-08 0 0
-0.00573545 0.0241985 0
1e-08 0 0
1e-08 0 0
1e-08 0 0
1e-08 0 0
1e-08 0 0
1e-08 0 0
0.0016295 -0.00273067 0
1e-08 0 0
1e-08 0 0
1e-08 0 0
1e-08 0 0
1e-08 0 0
0.00405382 -0.00943718 0
1e-08 0 0
1e-08 0 0
1e-08 0 0
1e-08 0 0
1e-08 0 0
1e-08 0 0
1e-08 0 0
1e-08 0 0
1e-08 0 0
1e-08 0 0
-0.00629915 0.0125382 0
1e-08 0 0
1e-08 0 0
1e-08 0 0
1e-08 0 0
1e-08 0 0
1e-08 0 0
1e-08 0 0
1e-08 0 0
1e-08 0 0
1e-08 0 0
1e-08 0 0
1e-08 0 0
1e-08 0 0
1e-08 0 0
3.12251e-06 -9.37456e-06 0
1e-08 0 0
1e-08 0 0
1e-08 0 0
1e-08 0 0
1e-08 0 0
1e-08 0 0
1e-08 0 0
1e-08 0 0
1e-08 0 0
4.36863e-05 -7.05498e-05 -0
1e-08 0 0
1e-08 0 0
1e-08 0 0
1e-08 0 0
1e-08 0 0
1e-08 0 0
1e-08 0 0
1e-08 0 0
1e-08 0 0
1e-08 0 0
1e-08 0 0
1e-08 0 0
1e-08 0 0
1e-08 0 0
1e-08 0 0
0.00466071 -0.0288844 0
1e-08 0 0
1e-08 0 0
1e-08 0 0
1e-08 0 0
1e-08 0 0
1e-08 0 0
1e-08 0 0
1e-08 0 0
1e-08 0 0
1e-08 0 0
-0.00293244 0.00427794 0
1e-08 0 0
1e-08 0 0
1e-08 0 0
1e-08 0 0
1e-08 0 0
1e-08 0 0
1e-08 0 0
1e-08 0 0
1e-08 0 0
1e-08 0 0
1e-08 0 0
1e-08 0 0
-5.17917e-07 1.343e-05 -0
1e-08 0 0
1e-08 0 0
1e-08 0 0
1e-08 0 0
1e-08 0 0
1e-08 0 0
1e-08 0 0
1e-08 0 0
1e-08 0 0
1e-08 0 0
1e-08 0 0
1e-08 0 0
-0.0378857 0.0327138 0
1e-08 0 0
1e-08 0 0
1e-08 0 0
1e-08 0 0
1e-08 0 0
1e-08 0 0
1e-08 0 0
1e-08 0 0
1e-08 0 0
1e-08 0 0
1e-08 0 0
1e-08 0 0
1e-08 0 0
-0.00524428 -0.040697 0
1e-08 0 0
1e-08 0 0
1e-08 0 0
1e-08 0 0
1e-08 0 0
1e-08 0 0
1e-08 0 0
1e-08 0 0
0.00611338 -0.00433575 -0
1e-08 0 0
1e-08 0 0
1e-08 0 0
1e-08 0 0
1e-08 0 0
1e-08 0 0
1e-08 0 0
1e-08 0 0
1e-08 0 0
1e-08 0 0
1e-08 0 0
-0.000448572 -0.00137498 0
1e-08 0 0
1e-08 0 0
1e-08 0 0
1e-08 0 0
1e-08 0 0
1e-08 0 0
1e-08 0 0
-0.0277112 0.0169173 0
1e-08 0 0
1e-08 0 0
1e-08 0 0
1e-08 0 0
1e-08 0 0
1e-08 0 0
1e-08 0 0
1e-08 0 0
1e-08 0 0
1e-08 0 0
1e-08 0 0
-0.00110618 -0.00264246 0
1e-08 0 0
1e-08 0 0
1e-08 0 0
1e-08 0 0
1e-08 0 0
0.00441964 -0.00212734 -0
1e-08 0 0
1e-08 0 0
1e-08 0 0
1e-08 0 0
1e-08 0 0
1e-08 0 0
1e-08 0 0
1e-08 0 0
-0.00198997 -0.00374324 0
1e-08 0 0
1e-08 0 0
1e-08 0 0
1e-08 0 0
-0.044975 0.0149293 0
1e-08 0 0
1e-08 0 0
1e-08 0 0
1e-08 0 0
1e-08 0 0
1e-08 0 0
-0.0153676 -0.0195583 0
1e-08 0 0
1e-08 0 0
1e-08 0 0
1.75192e-05 -2.61515e-06 -0
1e-08 0 0
1e-08 0 0
1e-08 0 0
1e-08 0 0
1e-08 0 0
1e-08 0 0
-0.00203141 -0.00180102 0
1e-08 0 0
1e-08 0 0
-0.0542082 -0.00256973 0
1e-08 0 0
1e-08 0 0
1e-08 0 0
1e-08 0 0
-0.00790265 -0.00547855 0
1e-08 0 0
0.00109478 0.000232944 -0
1e-08 0 0
1e-08 0 0
-0.00239247 -0.00126215 0
-0.0203673 -0.00590797 0
-0.000358129 -0.000164245 0
