# vtk DataFile Version 2.0
CellBP Time: 2.24
ASCII
DATASET UNSTRUCTURED_GRID
POINTS 296 double
-8.8832 -4.43502 0
-8.31263 -5.33073 0
-9.35699 -3.02509 0
-9.74962 -1.60002 0
-8.10106 -3.07157 0
-7.66142 -6.39851 0
-6.74199 -7.32541 0
-7.50684 -4.16006 0
-6.86596 -5.24322 0
-5.90719 -8.34559 0
-4.56922 -8.97458 0
-9.56002 -0.359097 0
-9.66354 1.11444 0
-8.24648 -1.92488 0
-8.43628 -1.00211 0
-7.21364 -2.4993 0
-6.90641 -3.19977 0
-6.20645 -6.15695 0
-5.29606 -6.95092 0
-6.51759 -4.22048 0
-5.84919 -4.9964 0
-3.56006 -9.66758 0
-2.05494 -10.1643 0
-4.53221 -7.65149 0
-3.56814 -8.16982 0
-8.57229 0.273705 0
-9.28069 2.33343 0
-8.20298 1.34455 0
-8.94212 3.40975 0
-7.14838 -1.39774 0
-7.51263 -0.389158 0
-6.38277 -1.6871 0
-0.923095 -10.346 0
-5.9777 -2.47058 0
-5.79624 -3.36499 0
-5.40003 -5.94415 0
-4.48587 -6.20711 0
-4.95216 -4.20522 0
-4.69629 -5.10087 0
-2.60164 -8.78698 0
-1.68235 -8.99194 0
-3.65963 -6.99238 0
-2.76624 -7.30821 0
0.514574 -10.5245 0
-7.44404 0.593333 0
-7.78592 2.2895 0
-7.10671 1.46489 0
-8.39813 4.86314 0
-7.416 3.6874 0
-7.75666 5.78266 0
-6.36669 -0.960221 0
-6.56511 0.0208624 0
-5.39058 -1.35476 0
-0.330972 -9.48778 0
0.706117 -8.92809 0
-4.78183 -2.71783 0
-3.86696 -5.18464 0
-3.52288 -6.02451 0
-4.15514 -3.96765 0
-1.81436 -7.67457 0
-0.897721 -8.26071 0
-2.60957 -6.32202 0
-1.94307 -6.75578 0
1.72805 -10.2024 0
-6.32707 0.910619 0
-7.04223 2.78952 0
-6.37943 1.95 0
-6.91869 4.44692 0
-6.52445 3.69693 0
-6.95424 6.82647 0
-6.40365 5.60956 0
-5.78703 7.74819 0
-3.73869 -1.47685 0
-5.35466 -0.0706392 0
-3.98748 -0.41883 0
0.293502 -7.96128 0
1.87195 -8.84295 0
1.30592 -8.30382 0
-3.42635 -2.58411 0
-2.86342 -1.67944 0
-2.70498 -4.8487 0
-2.80574 -3.47093 0
-1.14355 -6.94403 0
-0.319835 -7.31048 0
-1.44758 -5.75095 0
2.88754 -9.99652 0
-5.26313 1.62402 0
-5.78103 2.75448 0
-5.83705 4.64523 0
-5.44047 3.67902 0
-5.5741 6.64936 0
-5.34245 5.48052 0
-4.58016 8.33017 0
-4.19623 6.96002 0
-2.97039 -0.647129 0
-4.02185 0.811225 0
-3.18268 0.261743 0
-3.71329 2.13109 0
-3.43633 9.00211 0
3.17089 -8.56699 0
0.737628 -7.0252 0
2.41374 -7.84562 0
1.72526 -7.23035 0
-1.82808 -1.19468 0
-2.24306 -2.45354 0
-1.89649 -4.20855 0
-1.85855 -3.23917 0
-0.105855 -6.20172 0
-0.775421 -4.61723 0
4.3072 -9.72381 0
-4.58089 3.09526 0
-4.9891 4.53441 0
-4.32523 5.91966 0
-3.92631 4.98743 0
-3.27047 7.78084 0
-3.3463 6.45399 0
-2.36505 8.11171 0
-1.23016 -0.550493 0
-0.972732 -1.23673 0
-1.75971 0.441328 0
-2.82899 1.27209 0
-2.80061 3.01574 0
-2.59228 1.91181 0
-0.922971 0.299494 0
-2.17904 9.58645 0
4.28665 -8.27769 0
3.33595 -7.3779 0
1.21883 -6.09212 0
2.5351 -6.88247 0
-1.13468 -2.20703 0
-0.866966 -3.52383 0
0.499744 -5.08104 0
-0.104828 -3.96419 0
5.25565 -7.6523 0
5.51514 -9.00347 0
-3.42181 4.22226 0
-3.22758 5.37941 0
-2.51384 6.88668 0
-2.66451 5.96366 0
-1.18918 8.52461 0
-1.69741 7.2326 0
-1.98723 3.77447 0
-0.131305 -1.65624 0
-0.338791 -0.684265 0
-1.41773 1.25565 0
-1.79058 2.19083 0
-0.986817 3.28265 0
-0.49435 1.02849 0
-0.0638619 0.135047 0
-0.0745377 8.6854 0
-0.930365 9.92213 0
1.45364 -4.97287 0
4.20678 -6.89718 0
3.27402 -6.21194 0
2.47955 -5.82039 0
5.166 -6.33859 0
-0.108953 -2.72258 0
1.1188 -3.90425 0
0.571637 -2.13841 0
1.96319 -4.09812 0
6.33454 -6.81803 0
6.70805 -8.33277 0
-1.94663 4.96709 0
-1.7284 6.25285 0
-0.414181 7.48493 0
-0.749762 6.59575 0
0.405351 7.72948 0
-0.63545 4.03439 0
0.740056 -1.13481 0
-0.514973 2.00528 0
0.065125 2.9862 0
0.609992 1.10114 0
1.03554 0.212493 0
1.26318 8.73313 0
0.459197 10.1197 0
2.92529 -4.68332 0
4.34983 -5.94457 0
3.48285 -5.35808 0
5.97725 -5.86662 0
5.17476 -5.44067 0
1.03026 -2.8441 0
1.658 -3.42645 0
1.1715 -1.95974 0
2.62327 -3.53147 0
3.39018 -3.79633 0
6.44079 -4.9355 0
6.99822 -6.10399 0
7.51202 -7.35304 0
-0.364552 5.66779 0
0.0545935 6.51776 0
1.51693 7.30291 0
0.965937 6.78223 0
0.32577 4.3678 0
0.890794 3.44383 0
1.65062 -1.21007 0
0.842243 2.21199 0
1.44971 1.32714 0
2.19192 -0.0105693 0
1.94154 0.77102 0
2.30687 7.15818 0
2.04288 8.65693 0
1.81953 9.89381 0
4.23487 -4.65002 0
5.32176 -4.43872 0
6.1751 -4.06545 0
4.15413 -3.37897 0
2.38085 -2.57664 0
3.35056 -2.77777 0
7.16951 -4.17216 0
7.59545 -4.95955 0
8.37738 -6.38179 0
1.07333 5.37188 0
1.81174 6.15574 0
2.70443 6.28283 0
1.40473 4.23177 0
1.87363 3.12571 0
2.62746 -0.81509 0
3.15813 -0.153176 0
2.14616 1.78321 0
2.8888 0.697056 0
3.4562 6.93233 0
3.03479 8.2731 0
2.98738 9.50191 0
5.13771 -3.34986 0
6.28557 -3.23239 0
4.46417 -2.45831 0
3.36122 -1.78273 0
6.97691 -2.47018 0
7.70832 -3.23821 0
8.35627 -4.14312 0
9.29149 -5.18849 0
2.56822 4.94397 0
3.35284 5.68127 0
2.62616 3.79579 0
2.85962 2.8213 0
3.72716 -0.922839 0
3.89477 0.1209 0
3.24232 2.10279 0
3.75987 1.10983 0
4.28619 5.58494 0
4.33156 6.55278 0
4.12923 7.65985 0
4.04678 9.26765 0
5.76045 -2.06332 0
4.66289 -1.39302 0
7.07507 -1.46983 0
7.97871 -2.00798 0
8.53366 -2.94612 0
9.73622 -4.07772 0
3.81476 4.3123 0
3.79845 3.20696 0
5.02011 -0.0269399 0
4.6722 0.91502 0
4.32657 2.0885 0
4.86174 4.8607 0
4.99349 5.92243 0
5.11759 7.42586 0
5.3183 8.44379 0
6.4079 -0.719749 0
7.14626 -0.519691 0
8.09867 -1.22327 0
9.26114 -1.97369 0
10.3817 -2.87482 0
4.91581 3.63334 0
6.06773 0.930742 0
5.7532 2.01954 0
5.71015 4.31247 0
5.73992 5.22962 0
6.20133 6.51145 0
6.76653 7.78871 0
7.1536 0.219758 0
8.33684 -0.272489 0
9.29118 -1.05068 0
10.59 -1.58499 0
7.31089 0.977025 0
5.87739 3.48321 0
6.94281 1.97695 0
6.49835 2.84446 0
6.5177 4.54678 0
6.84751 5.46769 0
7.52124 6.81746 0
8.12638 0.678556 0
9.33855 0.20401 0
10.5865 -0.196947 0
7.96979 1.61732 0
6.83774 3.61521 0
7.56244 2.61873 0
7.59223 4.69102 0
8.32785 5.86502 0
9.13211 1.32746 0
10.4243 1.30965 0
8.63222 2.60444 0
7.97013 3.65082 0
8.90495 4.90493 0
10.1505 2.56332 0
9.63329 3.74395 0
CELLS 542 2168
3 2 0 4
3 0 1 7
3 4 0 7
3 1 5 8
3 7 1 8
3 3 2 13
3 13 2 4
3 11 3 14
3 14 3 13
3 13 4 15
3 4 7 16
3 15 4 16
3 5 6 17
3 8 5 17
3 6 9 18
3 17 6 18
3 7 8 19
3 16 7 19
3 8 17 20
3 19 8 20
3 9 10 23
3 18 9 23
3 10 21 24
3 23 10 24
3 12 11 25
3 25 11 14
3 26 12 27
3 27 12 25
3 14 13 29
3 29 13 15
3 25 14 30
3 30 14 29
3 29 15 31
3 15 16 33
3 31 15 33
3 16 19 34
3 33 16 34
3 17 18 35
3 20 17 35
3 18 23 36
3 35 18 36
3 19 20 37
3 34 19 37
3 20 35 38
3 37 20 38
3 21 22 39
3 24 21 39
3 22 32 40
3 39 22 40
3 23 24 41
3 36 23 41
3 24 39 42
3 41 24 42
3 27 25 44
3 44 25 30
3 28 26 45
3 45 26 27
3 45 27 46
3 46 27 44
3 47 28 48
3 48 28 45
3 30 29 50
3 50 29 31
3 44 30 51
3 51 30 50
3 50 31 52
3 31 33 52
3 32 43 53
3 40 32 53
3 53 43 54
3 33 34 55
3 34 37 55
3 33 55 52
3 36 41 57
3 56 36 57
3 37 38 58
3 38 56 58
3 37 58 55
3 39 40 59
3 42 39 59
3 40 53 60
3 59 40 60
3 41 42 61
3 57 41 61
3 42 59 62
3 61 42 62
3 43 63 54
3 46 44 64
3 64 44 51
3 48 45 65
3 65 45 46
3 65 46 66
3 66 46 64
3 49 47 67
3 67 47 48
3 67 48 68
3 68 48 65
3 69 49 70
3 70 49 67
3 52 55 72
3 64 51 73
3 51 50 73
3 50 52 73
3 73 52 74
3 74 52 72
3 54 63 76
3 54 76 77
3 75 54 77
3 55 58 78
3 72 55 78
3 72 78 79
3 56 57 80
3 57 61 80
3 56 80 58
3 58 80 81
3 78 58 81
3 59 60 82
3 62 59 82
3 60 75 83
3 82 60 83
3 61 62 84
3 62 82 84
3 61 84 80
3 63 85 76
3 66 64 86
3 64 73 86
3 68 65 87
3 87 65 66
3 87 66 86
3 70 67 88
3 88 67 68
3 88 68 89
3 89 68 87
3 71 69 90
3 90 69 70
3 90 70 91
3 91 70 88
3 92 71 93
3 93 71 90
3 74 72 94
3 94 72 79
3 86 73 95
3 95 73 74
3 95 74 96
3 96 74 94
3 97 86 95
3 76 85 99
3 75 77 100
3 83 75 100
3 76 99 101
3 77 76 101
3 77 101 102
3 100 77 102
3 94 79 103
3 78 81 104
3 79 78 104
3 79 104 103
3 80 84 105
3 81 80 105
3 81 105 106
3 104 81 106
3 82 83 107
3 83 100 107
3 82 107 84
3 84 107 108
3 105 84 108
3 85 109 99
3 89 87 110
3 87 86 110
3 110 86 97
3 91 88 111
3 111 88 89
3 111 89 110
3 93 90 112
3 112 90 91
3 112 91 113
3 113 91 111
3 98 92 114
3 114 92 93
3 114 93 115
3 115 93 112
3 116 98 114
3 117 103 118
3 96 94 119
3 94 103 119
3 119 103 117
3 97 95 120
3 120 95 96
3 120 96 119
3 121 110 97
3 121 97 122
3 122 97 120
3 123 119 117
3 124 98 116
3 99 109 125
3 99 125 126
3 101 99 126
3 100 102 127
3 100 127 107
3 101 126 128
3 102 101 128
3 104 106 129
3 104 129 103
3 103 129 118
3 105 108 130
3 106 105 130
3 106 130 129
3 107 127 131
3 108 107 131
3 108 131 132
3 108 132 130
3 109 134 125
3 125 134 133
3 113 111 135
3 111 110 135
3 135 110 121
3 115 112 136
3 136 112 113
3 136 113 135
3 116 114 137
3 137 114 115
3 137 115 138
3 138 115 136
3 139 124 116
3 139 116 140
3 140 116 137
3 141 135 121
3 118 129 142
3 118 142 143
3 117 118 143
3 123 117 143
3 122 120 144
3 120 119 144
3 144 119 123
3 141 121 145
3 145 121 122
3 145 122 144
3 146 141 145
3 147 144 123
3 147 123 148
3 143 148 123
3 150 124 139
3 149 150 139
3 131 127 151
3 125 133 152
3 126 125 152
3 126 152 153
3 128 126 153
3 128 153 154
3 127 154 151
3 152 133 155
3 130 132 156
3 130 156 129
3 129 156 142
3 131 151 157
3 132 131 157
3 156 158 142
3 157 151 159
3 133 160 155
3 134 161 133
3 133 161 160
3 138 136 162
3 136 135 162
3 162 135 141
3 140 137 163
3 163 137 138
3 163 138 162
3 149 139 164
3 164 139 140
3 164 140 165
3 165 140 163
3 166 149 164
3 167 162 141
3 167 141 146
3 142 158 168
3 143 142 168
3 143 168 148
3 146 145 169
3 145 144 169
3 169 144 147
3 170 167 146
3 170 146 169
3 171 169 147
3 171 147 148
3 171 148 172
3 168 172 148
3 173 149 166
3 174 150 149
3 173 174 149
3 154 175 151
3 151 175 159
3 152 155 176
3 153 152 176
3 153 176 177
3 153 177 154
3 154 177 175
3 155 160 178
3 155 178 179
3 176 155 179
3 156 180 158
3 157 159 181
3 157 181 180
3 158 180 182
3 158 182 168
3 159 175 183
3 159 183 181
3 175 184 183
3 160 186 178
3 178 186 185
3 161 187 160
3 160 187 186
3 165 163 188
3 163 162 188
3 188 162 167
3 166 164 189
3 189 164 165
3 189 165 188
3 190 173 166
3 190 166 191
3 191 166 189
3 192 188 167
3 192 167 170
3 193 192 170
3 182 194 168
3 194 172 168
3 193 170 195
3 170 169 195
3 195 169 171
3 196 195 171
3 196 171 172
3 194 197 172
3 197 198 172
3 198 196 172
3 200 173 190
3 199 200 190
3 201 174 173
3 200 201 173
3 176 179 202
3 177 176 202
3 177 202 175
3 175 202 184
3 179 203 202
3 203 185 204
3 202 205 184
3 183 206 181
3 180 181 206
3 180 206 182
3 182 206 194
3 183 184 207
3 205 207 184
3 183 207 206
3 185 208 204
3 186 209 185
3 185 209 208
3 187 210 186
3 186 210 209
3 191 189 211
3 189 188 211
3 211 188 192
3 199 190 212
3 212 190 191
3 212 191 211
3 213 199 212
3 214 211 192
3 214 192 193
3 215 214 193
3 215 193 195
3 216 197 194
3 216 217 197
3 215 195 218
3 218 195 196
3 198 218 196
3 217 219 197
3 219 218 198
3 197 219 198
3 220 199 213
3 221 200 199
3 220 221 199
3 222 201 200
3 221 222 200
3 203 204 223
3 204 208 224
3 204 224 223
3 205 223 225
3 205 225 207
3 207 225 226
3 207 226 206
3 208 228 224
3 224 228 227
3 209 229 208
3 229 228 208
3 210 230 209
3 209 230 229
3 213 212 231
3 212 211 231
3 231 211 214
3 232 220 213
3 232 213 231
3 233 231 214
3 233 214 215
3 234 233 215
3 234 215 218
3 226 235 216
3 235 217 216
3 235 236 217
3 217 236 219
3 237 234 218
3 237 218 219
3 236 238 219
3 238 237 219
3 240 220 232
3 239 240 232
3 241 221 220
3 240 241 220
3 242 222 221
3 241 242 221
3 224 227 243
3 224 243 223
3 223 243 225
3 225 243 244
3 225 244 226
3 226 244 235
3 227 245 243
3 228 246 227
3 227 246 245
3 229 247 228
3 228 247 246
3 230 248 229
3 229 248 247
3 239 232 249
3 232 231 249
3 249 231 233
3 250 249 233
3 250 233 234
3 237 250 234
3 244 251 235
3 235 251 236
3 251 252 236
3 236 252 238
3 252 253 238
3 253 250 237
3 253 237 238
3 254 239 249
3 255 240 239
3 254 255 239
3 256 241 240
3 255 256 240
3 257 242 241
3 256 257 241
3 245 258 243
3 243 258 244
3 244 258 251
3 245 259 258
3 246 260 245
3 245 260 259
3 247 261 246
3 246 261 260
3 248 262 247
3 247 262 261
3 254 249 263
3 263 249 250
3 253 263 250
3 258 264 251
3 251 264 252
3 264 265 252
3 265 263 253
3 252 265 253
3 266 254 263
3 267 255 254
3 266 267 254
3 268 256 255
3 267 268 255
3 269 257 256
3 268 269 256
3 259 270 258
3 270 264 258
3 260 271 259
3 259 271 270
3 261 272 260
3 260 272 271
3 262 273 261
3 273 272 261
3 270 274 264
3 275 266 263
3 275 263 265
3 274 276 264
3 276 265 264
3 276 277 265
3 277 275 265
3 278 267 266
3 275 278 266
3 279 268 267
3 278 279 267
3 280 269 268
3 279 280 268
3 271 281 270
3 270 281 274
3 272 282 271
3 271 282 281
3 273 283 272
3 272 283 282
3 281 284 274
3 274 284 276
3 285 278 275
3 277 285 275
3 284 286 276
3 286 285 277
3 276 286 277
3 287 279 278
3 285 287 278
3 288 280 279
3 287 288 279
3 282 289 281
3 281 289 284
3 283 290 282
3 282 290 289
3 289 291 284
3 284 291 286
3 291 292 286
3 292 287 285
3 286 292 285
3 293 288 287
3 292 293 287
3 290 294 289
3 289 294 291
3 294 295 291
3 295 293 292
3 291 295 292
3 38 36 56
3 36 38 35
3 180 132 157
3 132 180 156
3 185 179 178
3 179 185 203
3 216 206 226
3 206 216 194
3 127 128 154
3 128 127 102
3 53 75 60
3 75 53 54
3 203 205 202
3 205 203 223
CELL_TYPES 542
5
5
5
5
5
5
5
5
5
5
5
5
5
5
5
5
5
5
5
5
5
5
5
5
5
5
5
5
5
5
5
5
5
5
5
5
5
5
5
5
5
5
5
5
5
5
5
5
5
5
5
5
5
5
5
5
5
5
5
5
5
5
5
5
5
5
5
5
5
5
5
5
5
5
5
5
5
5
5
5
5
5
5
5
5
5
5
5
5
5
5
5
5
5
5
5
5
5
5
5
5
5
5
5
5
5
5
5
5
5
5
5
5
5
5
5
5
5
5
5
5
5
5
5
5
5
5
5
5
5
5
5
5
5
5
5
5
5
5
5
5
5
5
5
5
5
5
5
5
5
5
5
5
5
5
5
5
5
5
5
5
5
5
5
5
5
5
5
5
5
5
5
5
5
5
5
5
5
5
5
5
5
5
5
5
5
5
5
5
5
5
5
5
5
5
5
5
5
5
5
5
5
5
5
5
5
5
5
5
5
5
5
5
5
5
5
5
5
5
5
5
5
5
5
5
5
5
5
5
5
5
5
5
5
5
5
5
5
5
5
5
5
5
5
5
5
5
5
5
5
5
5
5
5
5
5
5
5
5
5
5
5
5
5
5
5
5
5
5
5
5
5
5
5
5
5
5
5
5
5
5
5
5
5
5
5
5
5
5
5
5
5
5
5
5
5
5
5
5
5
5
5
5
5
5
5
5
5
5
5
5
5
5
5
5
5
5
5
5
5
5
5
5
5
5
5
5
5
5
5
5
5
5
5
5
5
5
5
5
5
5
5
5
5
5
5
5
5
5
5
5
5
5
5
5
5
5
5
5
5
5
5
5
5
5
5
5
5
5
5
5
5
5
5
5
5
5
5
5
5
5
5
5
5
5
5
5
5
5
5
5
5
5
5
5
5
5
5
5
5
5
5
5
5
5
5
5
5
5
5
5
5
5
5
5
5
5
5
5
5
5
5
5
5
5
5
5
5
5
5
5
5
5
5
5
5
5
5
5
5
5
5
5
5
5
5
5
5
5
5
5
5
5
5
5
5
5
5
5
5
5
5
5
5
5
5
5
5
5
5
5
5
5
5
5
5
5
5
5
5
5
5
5
5
5
5
5
5
5
5
5
5
5
5
5
5
5
5
5
5
5
5
5
5
5
5
5
5
5
5
5
5
5
5
5
5
5
5
5
5
5
5
5
5
5
5
5
5
5
5
5
5
5
5
5
5
5
5
5
5
5
5
POINT_DATA 296
SCALARS concentrations float 4
LOOKUP_TABLE default
0 0.995634 0.0160793 177.252
0 0.995196 0.0170406 178.049
0 0.992121 0.0288485 121.831
0 0.991833 0.0556803 64.2598
0 0.992194 0.0231268 119.274
0 0.99512 0.0188051 166.249
0 0.995257 0.0252026 153.706
0 0.99541 0.0197717 154.128
0 0.994716 0.0240035 126.465
0 0.996211 0.0416583 181.06
0 1.00039 0.0101504 184.159
0 0.991775 0.0293974 111.617
0 0.989137 0.0260309 48.7086
0 0.989491 0.0150124 182.886
0 0.991011 0.0146761 173.144
0 0.987495 0.0207833 110.086
0 0.997753 0.0242644 108.639
0 0.995062 0.0237441 125.043
0 0.995015 0.0374694 163.445
0 0.99758 0.0354259 157.746
0 0.996027 0.026129 133.13
0 1.00228 0.0115627 183.925
0 1.00708 0 156.419
0 0.997245 0.0259783 159.71
0 0.998298 0.0276771 168.054
0 0.990488 0.0221083 67.9834
0 0.989141 0.0148506 155.628
0 0.987852 0.0209705 70.0336
0 0.995324 0.0126903 179.47
0 0.987075 0.0236402 85.8567
0 0.988811 0.022359 67.2433
0 0.984821 0.0173227 154.378
0 1.00584 0 155.089
0 0.990027 0.0303587 139.662
0 0.993284 0.005 147.138
0 0.995909 0.0329079 162.821
0 0.996574 0.0333575 166.277
0 0.99305 0.0265314 119.404
0 0.998827 0.028282 132.116
0 0.999813 0.0362444 208.066
0 1.00071 0.0338599 204.919
0 0.995167 0.0321601 178.536
0 0.994647 0.0290113 168.774
0 1.00362 0 139.308
0 0.987234 0.0238925 45.9919
0 0.989793 0.0148586 139.678
0 0.986141 0.0240431 36.8262
0 0.999949 0.0179985 96.1447
0 0.996043 0.0300133 77.6481
0 0.99957 0.0412675 73.8236
0 0.985428 0.0144009 178.689
0 0.987129 0.0200205 109.126
0 0.986022 0.0197415 180.36
0 0.999032 0.0233358 153.301
0 1.00026 0.0255997 126.966
0 0.989857 0.0322092 185.463
0 0.999071 0.0351234 180.517
0 0.997349 0.031839 174.829
0 0.998979 0.0335683 193.068
0 0.994574 0.0292225 161.471
0 0.99451 0.028831 142.552
0 0.997322 0.0291448 153.748
0 0.996611 0.0293723 164.197
0 1.00235 0.0118316 183.409
0 0.985268 0.0234619 50.783
0 0.988584 0.0242474 34.4715
0 0.986207 0.024016 35.8344
0 0.998748 0.0226937 58.8869
0 0.993855 0.0240225 39.9586
0 0.997193 0.0478252 81.3124
0 0.997877 0.0375869 98.9121
0 0.991652 0.029213 101.182
0 0.989622 0.0320028 198.731
0 0.984258 0.0178185 161.675
0 0.985033 0.0237944 152.512
0 0.994861 0.0358122 156.616
0 1.00018 0.0451697 96.5065
0 0.994708 0.0371165 124.168
0 0.995577 0.0412641 197.884
0 0.991925 0.0339782 221.746
0 0.999601 0.0336895 216.514
0 0.999833 0.0331377 225.037
0 0.996478 0.0323419 179.776
0 0.995355 0.0365076 175.741
0 0.999 0.0359629 219.096
0 1.00209 0.0137765 160.881
0 0.985345 0.0232295 68.9634
0 0.989345 0.024075 47.3659
0 0.995651 0.0387702 68.5701
0 0.992034 0.0292552 64.4868
0 0.994045 0.0245302 76.8838
0 0.99447 0.0404186 66.2178
0 0.991111 0.0326628 35.5192
0 0.991312 0.0235425 78.8335
0 0.990043 0.033994 210.312
0 0.982886 0.0372201 181.287
0 0.987751 0.0412628 206.912
0 0.983664 0.0328792 151.259
0 0.991717 0.0242632 88.838
0 0.999906 0.0383525 70.4227
0 0.994254 0.0382727 151.426
0 0.994431 0.0373426 116.566
0 0.992755 0.0368569 121.193
0 0.991373 0.0336552 191.198
0 0.995697 0.0335318 208.245
0 1.00008 0.0338528 215.614
0 0.999253 0.0337598 201.613
0 0.997058 0.036507 172.79
0 0.998312 0.0456435 189.193
0 1.00161 0.0161261 137.262
0 0.988988 0.0318468 118.599
0 0.991619 0.0470707 90.5851
0 0.993586 0.0245298 72.1625
0 0.994263 0.0217415 78.3232
0 0.990862 0.0464952 93.4162
0 0.991357 0.0310976 100.066
0 0.991547 0.0360848 120.368
0 0.981726 0.0380708 215.57
0 0.99095 0.0338904 177.539
0 0.986435 0 225.853
0 0.984991 0.0244067 155.543
0 0.988073 0.005 195.678
0 0.985614 0.0341633 170.651
0 0.985939 0 215.195
0 0.991668 0.033049 135.141
0 0.998226 0.0415959 55.1479
0 0.994475 0.0374228 91.5016
0 0.9934 0.0428838 139.628
0 0.992677 0.0341841 93.9673
0 0.995032 0.0441941 188.299
0 0.998494 0.0477226 218.449
0 0.995366 0.0373722 163.82
0 0.995312 0.0473872 198.41
0 0.996945 0.0422894 54.4508
0 0.99902 0.0514668 105.696
0 0.990215 0.0317438 123.196
0 0.99402 0.0497781 253.626
0 0.991559 0.024581 125.602
0 0.993232 0.0283166 95.6337
0 0.991017 0.0410737 122.255
0 0.995273 0.0363578 157.123
0 0.987044 0.0281562 124.177
0 0.989834 0.0339314 151.367
0 0.986794 0.0449426 250.491
0 0.986763 0.0371645 285.653
0 0.986744 0.005 225.882
0 0.991502 0.033985 195.633
0 0.988191 0 223.79
0 0.984479 0 205.263
0 0.994257 0 157.54
0 0.983915 0.0336003 157.219
0 0.991695 0.0471336 111.186
0 0.993402 0.034771 63.502
0 0.991903 0.0385957 103.349
0 0.992584 0.0303055 97.628
0 0.993894 0.0379615 67.3887
0 0.994008 0.0449273 189.079
0 0.993789 0.0471197 168.55
0 0.990042 0.0337145 151.934
0 0.991486 0.0452104 136.501
0 0.997095 0.0466886 59.4432
0 0.998158 0.00897752 89.9142
0 0.989267 0 196.033
0 0.994871 0.0464497 181.646
0 0.997027 0.035588 280.947
0 0.995477 0.0270606 280.916
0 1.002 0 165.639
0 0.990608 0.0338919 160.328
0 0.982759 0.040116 184.515
0 0.984206 0 232.636
0 0.990439 0 221.532
0 0.980498 0.0488778 313.028
0 0.980091 0.0472452 235.119
0 0.992003 0 160.61
0 0.987288 0 149.07
0 0.991541 0.0337061 74.56
0 0.991104 0.0320806 35.8954
0 0.99116 0.0242853 96.6501
0 0.994026 0.0361312 52.6519
0 0.993211 0.0290513 23.1732
0 0.991906 0.0333185 136.725
0 0.990876 0.0354304 145.893
0 0.985353 0.0332929 149.078
0 0.988412 0.0337558 111.202
0 0.989537 0.0354782 69.7469
0 0.994022 0.0349744 35.0192
0 0.997744 0.0343361 60.3637
0 0.999132 0.0284112 74.9781
0 0.991994 0.0352447 282.783
0 0.996009 0 173.831
0 0.992633 0.005 172.607
0 0.99632 0.005 174.841
0 0.994718 0.005 206.528
0 0.988273 0.005 205.134
0 0.981841 0.0474004 194.27
0 0.984774 0.0431339 244.747
0 0.9846 0.0379665 218.076
0 0.982601 0.0406983 220.707
0 0.98495 0.0380032 223.608
0 0.990171 0.005 174.694
0 0.984775 0 160.889
0 0.984571 0 151.013
0 0.99242 0.047019 76.2151
0 0.992557 0.0316299 62.367
0 0.993289 0.0371114 85.824
0 0.988882 0 38.9947
0 0.984561 0.0340796 117.645
0 0.984485 0.0342989 68.277
0 0.994383 0.0379394 56.055
0 0.997489 0.0268217 96.1855
0 1.00106 0.0238337 189.295
0 0.99531 0 192.261
0 0.994939 0.005 183.321
0 0.991724 0.005 181.019
0 0.993523 0 197.056
0 0.989921 0.005 187.191
0 0.982578 0.0380575 120.889
0 0.983081 0.0418965 191.849
0 0.988179 0 180.989
0 0.986831 0 164.161
0 0.988754 0.005 172.658
0 0.984972 0 163.561
0 0.988631 0.0404702 240.74
0 0.99029 0.0545252 97.4634
0 0.992063 0.0373986 100.951
0 0.986341 0.0255511 92.2689
0 0.982569 0.0470325 30.4263
0 0.990543 0 47.6703
0 0.994458 0 26.5931
0 0.99875 0.0373657 82.018
0 0.999675 0.0521355 18.3828
0 0.992271 0.005 180.492
0 0.990714 0.005 171.451
0 0.994168 0 178.076
0 0.992436 0 174.194
0 0.984461 0.0558549 85.7918
0 0.986472 0.0372437 162.146
0 0.989536 0 169.334
0 0.988263 0 145.704
0 0.992865 0.005 159.047
0 0.991954 0 160.07
0 0.980153 0.00994706 170.629
0 0.978259 0 154.857
0 0.989089 0.0348023 115.778
0 0.98593 0.0324859 105.356
0 0.987276 0 48.0091
0 0.994133 0 31.183
0 0.999842 0.0137578 83.3665
0 1.00174 0.0193755 98.6892
0 0.993083 0.005 163.801
0 0.993038 0.005 163.113
0 0.985627 0.0290438 46.4395
0 0.986717 0 114.028
0 0.989831 0.005 156.467
0 0.99118 0.005 151.208
0 0.991768 0.005 150.126
0 0.987024 0.0509736 134.988
0 0.971489 0.005 154.001
0 0.98643 0.0331626 92.9793
0 0.987737 0.0245472 142.168
0 0.992554 0 33.4781
0 0.998296 0 40.3384
0 1.00106 0.042397 12.1171
0 0.991521 0.005 149.752
0 0.98737 0.0432093 131.948
0 0.989348 0 117.233
0 0.991798 0.005 140.44
0 0.989653 0 139.76
0 0.990634 0.005 135.216
0 0.985958 0.0459966 150.841
0 0.990411 0.0333884 83.0503
0 0.994849 0.02074 109.447
0 0.997124 0.0387657 67.6842
0 0.99867 0.0331646 24.6823
0 0.991515 0.0384044 58.0706
0 0.991797 0.005 138.304
0 0.990696 0.037243 28.9924
0 0.991179 0.005 121.396
0 0.994791 0.005 130.029
0 0.99163 0.0382231 92.8893
0 0.989511 0.0364398 125.307
0 0.995886 0.0373836 19.9407
0 0.997851 0.0260976 49.6225
0 0.996956 0.0430843 12.4009
0 0.996416 0.035097 65.1095
0 0.993704 0 127.231
0 0.993129 0.005 98.9746
0 0.996543 0.005 120.415
0 0.994836 0 126.755
0 0.999164 0.0387948 65.1896
0 0.998821 0.0196868 145.062
0 0.998866 0.0379489 82.4683
0 0.99705 0.005 121.389
0 0.999875 0.0503665 210.646
0 0.999062 0.0554614 179.178
0 0.999739 0.0339835 125.584
VECTORS fa_u float
0.0208431 0.00944112 -0
-0.00014008 -8.71645e-05 0
0.000987196 0.000301703 -0
0.0621521 0.00473318 -0
1e-08 0 0
0.016597 0.0130687 -0
-0.00258122 -0.00232554 0
1e-08 0 0
1e-08 0 0
0.0411738 0.0542462 -0
-0.00475774 -0.00844718 0
-0.0178034 0.000564576 0
0.0491648 -0.00510041 -0
1e-08 0 0
1e-08 0 0
1e-08 0 0
1e-08 0 0
1e-08 0 0
1e-08 0 0
1e-08 0 0
1e-08 0 0
0.0119919 0.0253421 -0
0.00231348 0.00899292 -0
1e-08 0 0
1e-08 0 0
1e-08 0 0
8.13725e-08 -2.55753e-08 0
1e-08 0 0
0.00100351 -0.000350103 0
1e-08 0 0
1e-08 0 0
1e-08 0 0
6.75007e-05 0.000481507 -0
1e-08 0 0
1e-08 0 0
1e-08 0 0
1e-08 0 0
1e-08 0 0
1e-08 0 0
1e-08 0 0
1e-08 0 0
1e-08 0 0
1e-08 0 0
-0.00284625 0.0525559 -0
1e-08 0 0
1e-08 0 0
1e-08 0 0
0.0208083 -0.0103954 0
1e-08 0 0
0.000707304 -0.000520174 0
1e-08 0 0
1e-08 0 0
1e-08 0 0
1e-08 0 0
1e-08 0 0
1e-08 0 0
1e-08 0 0
1e-08 0 0
1e-08 0 0
1e-08 0 0
1e-08 0 0
1e-08 0 0
1e-08 0 0
0.00062579 -0.00281234 -0
1e-08 0 0
1e-08 0 0
1e-08 0 0
1e-08 0 0
1e-08 0 0
0.0151744 -0.0152061 0
1e-08 0 0
0.00899419 -0.0142002 0
1e-08 0 0
1e-08 0 0
1e-08 0 0
1e-08 0 0
1e-08 0 0
1e-08 0 0
1e-08 0 0
1e-08 0 0
1e-08 0 0
1e-08 0 0
1e-08 0 0
1e-08 0 0
1e-08 0 0
-1.37574e-05 7.41438e-05 0
1e-08 0 0
1e-08 0 0
1e-08 0 0
1e-08 0 0
1e-08 0 0
1e-08 0 0
-0.00117965 0.00221146 -0
1e-08 0 0
1e-08 0 0
1e-08 0 0
1e-08 0 0
1e-08 0 0
0.00157419 -0.00300873 0
1e-08 0 0
1e-08 0 0
1e-08 0 0
1e-08 0 0
1e-08 0 0
1e-08 0 0
1e-08 0 0
1e-08 0 0
1e-08 0 0
1e-08 0 0
-0.0146319 0.0387161 0
1e-08 0 0
1e-08 0 0
1e-08 0 0
1e-08 0 0
1e-08 0 0
1e-08 0 0
1e-08 0 0
1e-08 0 0
1e-08 0 0
1e-08 0 0
1e-08 0 0
1e-08 0 0
1e-08 0 0
1e-08 0 0
0.00380106 -0.0103533 0
1e-08 0 0
1e-08 0 0
1e-08 0 0
1e-08 0 0
1e-08 0 0
1e-08 0 0
1e-08 0 0
1e-08 0 0
1e-08 0 0
0.000117745 -0.000203219 -0
1e-08 0 0
1e-08 0 0
1e-08 0 0
1e-08 0 0
1e-08 0 0
1e-08 0 0
1e-08 0 0
1e-08 0 0
1e-08 0 0
1e-08 0 0
1e-08 0 0
1e-08 0 0
1e-08 0 0
1e-08 0 0
1e-08 0 0
0.00107909 -0.00533853 0
1e-08 0 0
1e-08 0 0
1e-08 0 0
1e-08 0 0
1e-08 0 0
1e-08 0 0
1e-08 0 0
1e-08 0 0
1e-08 0 0
1e-08 0 0
-0.0323942 0.0391943 0
1e-08 0 0
1e-08 0 0
1e-08 0 0
1e-08 0 0
1e-08 0 0
1e-08 0 0
1e-08 0 0
1e-08 0 0
1e-08 0 0
1e-08 0 0
1e-08 0 0
1e-08 0 0
-0.000339519 -0.0329601 0
1e-08 0 0
1e-08 0 0
1e-08 0 0
1e-08 0 0
1e-08 0 0
1e-08 0 0
1e-08 0 0
1e-08 0 0
1e-08 0 0
1e-08 0 0
1e-08 0 0
1e-08 0 0
0.000487941 -0.0004175 -0
1e-08 0 0
1e-08 0 0
1e-08 0 0
1e-08 0 0
1e-08 0 0
1e-08 0 0
1e-08 0 0
1e-08 0 0
1e-08 0 0
1e-08 0 0
1e-08 0 0
1e-08 0 0
1e-08 0 0
-0.0022921 -0.0093796 0
1e-08 0 0
1e-08 0 0
1e-08 0 0
1e-08 0 0
1e-08 0 0
1e-08 0 0
1e-08 0 0
1e-08 0 0
-0.00151159 0.00124267 0
1e-08 0 0
1e-08 0 0
1e-08 0 0
1e-08 0 0
1e-08 0 0
1e-08 0 0
1e-08 0 0
1e-08 0 0
1e-08 0 0
1e-08 0 0
1e-08 0 0
0.0013129 0.00466996 -0
1e-08 0 0
1e-08 0 0
1e-08 0 0
1e-08 0 0
1e-08 0 0
1e-08 0 0
1e-08 0 0
-0.0233891 0.0137939 0
1e-08 0 0
1e-08 0 0
1e-08 0 0
1e-08 0 0
1e-08 0 0
1e-08 0 0
1e-08 0 0
1e-08 0 0
1e-08 0 0
1e-08 0 0
1e-08 0 0
-0.0197688 -0.0435486 0
1e-08 0 0
1e-08 0 0
1e-08 0 0
1e-08 0 0
1e-08 0 0
0.00439379 -0.00207047 -0
1e-08 0 0
1e-08 0 0
1e-08 0 0
1e-08 0 0
1e-08 0 0
1e-08 0 0
1e-08 0 0
1e-08 0 0
0.00345178 0.00634781 -0
1e-08 0 0
1e-08 0 0
1e-08 0 0
1e-08 0 0
-0.0382431 0.0130986 0
1e-08 0 0
1e-08 0 0
1e-08 0 0
1e-08 0 0
1e-08 0 0
1e-08 0 0
-0.0472667 -0.0640247 0
1e-08 0 0
1e-08 0 0
1e-08 0 0
-0.00973199 0.000744017 0
1e-08 0 0
1e-08 0 0
1e-08 0 0
1e-08 0 0
1e-08 0 0
1e-08 0 0
0.000555227 0.000450638 -0
1e-08 0 0
1e-08 0 0
-0.00376183 -0.000215399 0
1e-08 0 0
1e-08 0 0
1e-08 0 0
1e-08 0 0
-0.00887153 -0.00641854 0
1e-08 0 0
-0.00408654 -0.000645444 0
1e-08 0 0
1e-08 0 0
0.000124346 7.65299e-05 -0
-0.0143656 -0.00466778 0
-0.00717843 -0.00381838 0
