# vtk DataFile Version 2.0
CellBP Time: 1.4
ASCII
DATASET UNSTRUCTURED_GRID
POINTS 320 double
-50.000000 -50.000000 0.000000
-50.000000 -43.327839 0.000000
-45.705204 -45.511950 0.000000
-43.317709 -50.000000 0.000000
-50.000000 -36.654993 0.000000
-36.635342 -50.000000 0.000000
-45.099523 -40.006793 0.000000
-40.059038 -44.180036 0.000000
-29.949612 -50.000000 0.000000
-50.000000 -29.982975 0.000000
-44.865610 -33.508348 0.000000
-33.182832 -44.703797 0.000000
-39.896237 -36.837461 0.000000
-35.166355 -39.848249 0.000000
-23.260927 -50.000000 0.000000
-26.585894 -44.694423 0.000000
-50.000000 -23.314466 0.000000
-44.681658 -26.890985 0.000000
-39.389225 -30.302992 0.000000
-29.651817 -39.407672 0.000000
-33.404764 -33.726787 0.000000
-50.000000 -16.648380 0.000000
-16.575192 -50.000000 0.000000
-9.893668 -50.000000 0.000000
-20.018674 -44.613926 0.000000
-23.264100 -39.163153 0.000000
-44.705788 -20.212950 0.000000
-39.387885 -23.634139 0.000000
-34.130635 -27.036808 0.000000
-26.427119 -33.651910 0.000000
-29.185950 -29.023639 0.000000
-50.000000 -9.986260 0.000000
-44.677458 -13.557788 0.000000
-50.000000 -3.330497 0.000000
-3.216256 -50.000000 0.000000
3.454352 -50.000000 0.000000
-13.400785 -44.620586 0.000000
-6.741038 -44.629549 0.000000
-16.741114 -39.196288 0.000000
-20.146872 -33.416276 0.000000
-39.353185 -16.942941 0.000000
-34.039332 -20.406874 0.000000
-28.803194 -23.576134 0.000000
-23.534815 -27.462030 0.000000
-44.640471 -6.888018 0.000000
-39.296137 -10.280916 0.000000
-50.000000 3.325827 0.000000
-44.624082 -0.234456 0.000000
10.116655 -50.000000 0.000000
16.771817 -50.000000 0.000000
-0.068088 -44.632765 0.000000
6.605856 -44.642869 0.000000
-10.088179 -39.262132 0.000000
-3.407339 -39.254532 0.000000
-13.518160 -33.863847 0.000000
-16.727747 -28.374527 0.000000
-33.950537 -13.693542 0.000000
-28.606193 -17.062456 0.000000
-23.298633 -20.469692 0.000000
-18.669109 -23.420185 0.000000
-39.254343 -3.621473 0.000000
-33.878792 -7.041436 0.000000
-50.000000 10.013049 0.000000
-44.605995 6.419416 0.000000
-39.230750 3.039585 0.000000
-50.000000 16.766772 0.000000
23.422444 -50.000000 0.000000
30.069769 -50.000000 0.000000
13.278734 -44.663958 0.000000
19.958163 -44.696051 0.000000
3.273417 -39.269126 0.000000
9.942598 -39.302669 0.000000
-6.761322 -33.849308 0.000000
-0.055193 -33.874436 0.000000
-10.103244 -28.383569 0.000000
-13.121166 -23.029932 0.000000
-28.499343 -10.447149 0.000000
-23.035789 -13.874177 0.000000
-16.957301 -17.385436 0.000000
-33.820274 -0.401594 0.000000
-28.479560 -3.890256 0.000000
-44.568264 13.107134 0.000000
-39.165552 9.665731 0.000000
-33.782879 6.131726 0.000000
-50.000000 23.623317 0.000000
-44.614265 19.894026 0.000000
-50.000000 30.574828 0.000000
36.712941 -50.000000 0.000000
43.356449 -50.000000 0.000000
26.638618 -44.736247 0.000000
33.298014 -44.861844 0.000000
16.606631 -39.359284 0.000000
23.305959 -39.429644 0.000000
6.623187 -33.907924 0.000000
13.273219 -33.975917 0.000000
-3.349328 -28.432091 0.000000
3.353741 -28.501282 0.000000
-6.612437 -22.951240 0.000000
-9.943417 -17.466332 0.000000
-23.097717 -7.296904 0.000000
-17.732407 -10.566665 0.000000
-12.773836 -12.784741 0.000000
-28.439495 2.671882 0.000000
-23.102168 -0.842517 0.000000
-39.028604 16.350972 0.000000
-28.406453 9.363112 0.000000
-33.569214 12.532173 0.000000
-44.758543 26.651678 0.000000
-38.746800 23.696648 0.000000
-45.002364 33.438386 0.000000
-50.000000 37.510916 0.000000
-50.000000 43.864008 0.000000
39.909569 -45.055462 0.000000
45.462901 -45.646216 0.000000
50.000000 -50.000000 0.000000
36.613218 -39.963465 0.000000
29.992862 -39.444000 0.000000
19.886474 -34.088128 0.000000
26.568642 -34.305136 0.000000
9.983963 -28.538950 0.000000
16.602848 -28.661939 0.000000
0.072006 -23.034539 0.000000
6.825797 -23.203381 0.000000
-3.357654 -17.417631 0.000000
-6.786333 -11.227970 0.000000
-17.723961 -4.132266 0.000000
-12.418481 -7.276008 0.000000
-23.032454 5.592555 0.000000
-17.802060 2.075377 0.000000
-22.696416 11.525545 0.000000
-33.361299 18.554008 0.000000
-27.455684 16.167876 0.000000
-33.079872 23.882239 0.000000
-40.329454 30.572080 0.000000
-35.440296 28.996202 0.000000
-39.944763 35.532759 0.000000
-43.933878 40.193654 0.000000
-45.286758 45.776642 0.000000
-50.000000 50.000000 0.000000
44.105637 -39.874157 0.000000
50.000000 -43.358661 0.000000
39.625310 -35.020520 0.000000
33.448776 -33.401274 0.000000
22.974741 -28.808256 0.000000
28.720827 -29.227178 0.000000
13.465520 -23.136456 0.000000
20.056042 -23.435316 0.000000
3.432471 -17.655724 0.000000
10.150645 -17.865373 0.000000
0.208701 -12.145021 0.000000
-2.045400 -6.426160 0.000000
-7.257556 -3.931950 0.000000
-12.432543 -1.084059 0.000000
-17.805744 8.104239 0.000000
-12.697713 4.893811 0.000000
-18.074725 13.208069 0.000000
-20.824324 16.867175 0.000000
-28.077683 22.559984 0.000000
-23.406459 21.048480 0.000000
-29.783032 28.690814 0.000000
-34.190977 34.118167 0.000000
-36.897060 39.965206 0.000000
-39.658581 45.278237 0.000000
-43.412686 50.000000 0.000000
44.574631 -32.941868 0.000000
50.000000 -36.707649 0.000000
39.121427 -29.548470 0.000000
33.495253 -26.338853 0.000000
27.181663 -23.303852 0.000000
23.071667 -18.637012 0.000000
17.003603 -16.981311 0.000000
6.757369 -12.258720 0.000000
12.381084 -12.747328 0.000000
-3.222840 -1.646936 0.000000
4.020481 -7.116370 0.000000
1.154969 -2.209036 0.000000
-6.826413 2.129607 0.000000
-8.167649 7.611770 0.000000
-12.421885 11.623254 0.000000
-15.143561 17.378227 0.000000
-18.548333 22.773162 0.000000
-23.635678 27.249192 0.000000
-27.001034 33.638115 0.000000
-30.093226 39.335892 0.000000
-33.160318 44.848248 0.000000
-36.662930 50.000000 0.000000
44.542164 -26.460624 0.000000
50.000000 -30.058562 0.000000
39.037059 -23.142039 0.000000
33.453315 -19.865553 0.000000
28.050598 -16.553865 0.000000
22.706039 -13.114550 0.000000
17.214522 -9.918602 0.000000
11.011892 -6.679815 0.000000
-1.198264 2.195592 0.000000
6.356582 -1.783908 0.000000
3.063889 1.530980 0.000000
-3.328693 7.070857 0.000000
-5.988289 12.268577 0.000000
-9.201308 17.504624 0.000000
-12.645687 22.944456 0.000000
-16.863292 28.078080 0.000000
-20.247428 33.392294 0.000000
-23.369055 39.014960 0.000000
-26.505005 44.622337 0.000000
-29.927158 50.000000 0.000000
44.527008 -19.882510 0.000000
50.000000 -23.405943 0.000000
39.042066 -16.551178 0.000000
33.593235 -13.245104 0.000000
28.180314 -9.946337 0.000000
22.772646 -6.600255 0.000000
17.335145 -3.352308 0.000000
12.159760 0.162211 0.000000
2.124920 6.200087 0.000000
7.237297 3.808304 0.000000
0.057419 11.871946 0.000000
-2.941422 17.400095 0.000000
-6.328810 22.875144 0.000000
-10.210769 28.183065 0.000000
-13.420094 33.586493 0.000000
-16.678855 39.021207 0.000000
-19.861455 44.514051 0.000000
-23.234887 50.000000 0.000000
44.540083 -13.247006 0.000000
50.000000 -16.748181 0.000000
39.094999 -9.917773 0.000000
33.674979 -6.602546 0.000000
28.282543 -3.285405 0.000000
22.918955 0.024147 0.000000
17.650529 3.355798 0.000000
12.388477 6.570184 0.000000
6.945777 10.799001 0.000000
3.551817 17.119385 0.000000
0.194670 22.785330 0.000000
-3.243786 28.265182 0.000000
-6.581039 33.733119 0.000000
-9.914396 39.137406 0.000000
-13.208861 44.543823 0.000000
-16.612459 50.000000 0.000000
44.563674 -6.590784 0.000000
50.000000 -10.083501 0.000000
39.146092 -3.267869 0.000000
33.753572 0.050811 0.000000
28.397752 3.371446 0.000000
23.100853 6.708842 0.000000
17.967658 10.029707 0.000000
12.822619 12.202972 0.000000
9.977748 17.207819 0.000000
6.680984 22.697477 0.000000
3.396475 28.250244 0.000000
0.083876 33.721853 0.000000
-3.242754 39.156754 0.000000
-6.541742 44.574479 0.000000
-9.978138 50.000000 0.000000
44.589440 0.070674 0.000000
50.000000 -3.411900 0.000000
39.196660 3.389273 0.000000
33.830167 6.702344 0.000000
28.502495 10.030261 0.000000
23.153722 13.440452 0.000000
17.084535 17.033653 0.000000
13.054055 22.675352 0.000000
9.970245 28.237181 0.000000
6.757110 33.723992 0.000000
3.431996 39.168195 0.000000
0.117678 44.586910 0.000000
-3.331413 50.000000 0.000000
44.604092 6.736727 0.000000
50.000000 3.265596 0.000000
39.232559 10.042435 0.000000
33.898977 13.328976 0.000000
28.619832 16.626299 0.000000
23.483042 20.116447 0.000000
18.648694 23.136466 0.000000
16.508837 28.319729 0.000000
13.444799 33.773165 0.000000
10.099912 39.196312 0.000000
6.783898 44.593899 0.000000
3.323399 50.000000 0.000000
44.628123 13.388288 0.000000
50.000000 9.947520 0.000000
39.286338 16.673455 0.000000
33.984136 19.916706 0.000000
28.681296 22.970283 0.000000
23.364906 27.242169 0.000000
19.989998 33.331435 0.000000
16.662425 39.060743 0.000000
13.362657 44.538759 0.000000
9.984805 50.000000 0.000000
44.651187 20.038234 0.000000
50.000000 16.630708 0.000000
39.331243 23.318376 0.000000
34.090733 26.564883 0.000000
29.029145 28.580843 0.000000
26.268682 33.441911 0.000000
23.134824 38.991922 0.000000
19.961254 44.520690 0.000000
16.647881 50.000000 0.000000
44.658289 26.698722 0.000000
50.000000 23.311649 0.000000
39.324240 30.013763 0.000000
33.258120 33.411761 0.000000
29.462478 39.071909 0.000000
26.476332 44.521268 0.000000
23.313797 50.000000 0.000000
44.791939 33.334517 0.000000
50.000000 29.988823 0.000000
39.764129 36.632045 0.000000
34.867041 39.555307 0.000000
32.871341 44.530392 0.000000
29.983031 50.000000 0.000000
44.993241 39.906207 0.000000
50.000000 36.662243 0.000000
39.760750 43.988043 0.000000
36.652869 50.000000 0.000000
45.634003 45.424848 0.000000
50.000000 43.331989 0.000000
43.324836 50.000000 0.000000
50.000000 50.000000 0.000000
CELLS 578 2312
3 1 0 2
3 0 3 2
3 4 1 6
3 6 1 2
3 3 5 7
3 3 7 2
3 6 2 7
3 9 4 10
3 10 4 6
3 5 8 11
3 7 5 11
3 10 6 12
3 12 6 7
3 7 11 13
3 7 13 12
3 8 14 15
3 11 8 15
3 16 9 17
3 17 9 10
3 17 10 18
3 18 10 12
3 11 15 19
3 13 11 19
3 18 12 20
3 13 19 20
3 20 12 13
3 14 22 24
3 15 14 24
3 15 24 25
3 19 15 25
3 21 16 26
3 26 16 17
3 26 17 27
3 27 17 18
3 27 18 28
3 28 18 20
3 19 25 29
3 19 29 20
3 28 20 30
3 30 20 29
3 31 21 32
3 32 21 26
3 22 23 36
3 24 22 36
3 23 34 37
3 36 23 37
3 24 36 38
3 25 24 38
3 25 38 39
3 29 25 39
3 32 26 40
3 40 26 27
3 40 27 41
3 41 27 28
3 41 28 42
3 42 28 30
3 29 39 43
3 29 43 30
3 42 30 43
3 33 31 44
3 44 31 32
3 44 32 45
3 45 32 40
3 46 33 47
3 47 33 44
3 34 35 50
3 37 34 50
3 35 48 51
3 50 35 51
3 36 37 52
3 38 36 52
3 37 50 53
3 52 37 53
3 38 52 54
3 39 38 54
3 39 54 55
3 43 39 55
3 45 40 56
3 56 40 41
3 56 41 57
3 57 41 42
3 57 42 58
3 58 42 43
3 43 55 59
3 43 59 58
3 47 44 60
3 60 44 45
3 60 45 61
3 61 45 56
3 62 46 63
3 63 46 47
3 63 47 64
3 64 47 60
3 48 49 68
3 51 48 68
3 49 66 69
3 68 49 69
3 50 51 70
3 53 50 70
3 51 68 71
3 70 51 71
3 52 53 72
3 54 52 72
3 53 70 73
3 72 53 73
3 54 72 74
3 55 54 74
3 55 74 75
3 59 55 75
3 61 56 76
3 76 56 57
3 76 57 77
3 77 57 58
3 77 58 78
3 59 75 78
3 78 58 59
3 64 60 79
3 79 60 61
3 79 61 80
3 80 61 76
3 65 62 81
3 81 62 63
3 81 63 82
3 82 63 64
3 82 64 83
3 83 64 79
3 84 65 85
3 85 65 81
3 66 67 89
3 69 66 89
3 67 87 90
3 89 67 90
3 68 69 91
3 71 68 91
3 69 89 92
3 91 69 92
3 70 71 93
3 73 70 93
3 71 91 94
3 93 71 94
3 72 73 95
3 74 72 95
3 73 93 96
3 95 73 96
3 74 95 97
3 75 74 97
3 75 97 98
3 78 75 98
3 80 76 99
3 99 76 77
3 99 77 100
3 100 77 78
3 100 78 101
3 98 101 78
3 83 79 102
3 102 79 80
3 102 80 103
3 103 80 99
3 85 81 104
3 104 81 82
3 105 83 102
3 104 82 106
3 106 82 83
3 106 83 105
3 86 84 107
3 107 84 85
3 107 85 108
3 108 85 104
3 109 86 107
3 110 86 109
3 87 88 112
3 90 87 112
3 112 88 113
3 88 114 113
3 90 112 115
3 89 90 116
3 92 89 116
3 116 90 115
3 91 92 117
3 94 91 117
3 92 116 118
3 117 92 118
3 93 94 119
3 96 93 119
3 94 117 120
3 119 94 120
3 95 96 121
3 97 95 121
3 96 119 122
3 121 96 122
3 97 121 123
3 98 97 123
3 98 123 124
3 98 124 101
3 103 99 125
3 125 99 100
3 125 100 126
3 126 100 101
3 126 101 124
3 105 102 127
3 127 102 103
3 127 103 128
3 128 103 125
3 129 105 127
3 108 104 130
3 130 104 106
3 130 106 131
3 131 106 105
3 131 105 129
3 108 130 132
3 109 107 133
3 133 107 108
3 133 108 134
3 108 132 134
3 135 109 133
3 111 110 136
3 136 110 109
3 136 109 135
3 137 111 136
3 138 111 137
3 112 113 139
3 115 112 139
3 114 140 113
3 140 139 113
3 139 141 115
3 116 115 142
3 118 116 142
3 142 115 141
3 117 118 143
3 120 117 143
3 118 142 144
3 143 118 144
3 119 120 145
3 122 119 145
3 120 143 146
3 145 120 146
3 121 122 147
3 123 121 147
3 122 145 148
3 147 122 148
3 123 147 149
3 124 123 149
3 124 149 150
3 151 126 124
3 124 150 151
3 128 125 152
3 152 125 126
3 152 126 151
3 129 127 153
3 153 127 128
3 128 152 154
3 153 128 154
3 155 129 153
3 131 129 156
3 156 129 155
3 132 130 157
3 130 131 157
3 157 131 158
3 131 156 158
3 132 157 159
3 132 159 134
3 135 133 160
3 160 133 134
3 160 134 159
3 136 135 161
3 135 160 161
3 162 137 136
3 161 162 136
3 163 138 137
3 162 163 137
3 139 164 141
3 140 165 139
3 139 165 164
3 141 164 166
3 141 166 142
3 166 167 142
3 144 142 167
3 167 168 144
3 143 144 168
3 146 143 168
3 168 169 146
3 145 146 170
3 148 145 170
3 170 146 169
3 147 148 171
3 149 147 171
3 148 170 172
3 171 148 172
3 173 151 150
3 149 171 174
3 150 149 174
3 150 174 175
3 150 175 173
3 154 152 176
3 152 151 176
3 176 151 173
3 154 176 177
3 155 153 178
3 177 178 154
3 154 178 153
3 156 155 179
3 155 178 179
3 180 158 156
3 179 180 156
3 181 159 157
3 180 181 158
3 181 157 158
3 182 160 159
3 181 182 159
3 183 161 160
3 182 183 160
3 184 162 161
3 184 161 183
3 185 163 162
3 184 185 162
3 164 186 166
3 165 187 164
3 164 187 186
3 166 186 188
3 166 188 167
3 167 188 189
3 167 189 168
3 168 189 190
3 168 190 169
3 169 190 191
3 169 191 170
3 192 172 170
3 170 191 192
3 192 193 172
3 171 172 193
3 174 171 193
3 194 173 175
3 176 173 194
3 175 174 195
3 193 195 174
3 195 196 175
3 175 196 194
3 197 177 176
3 194 197 176
3 198 178 177
3 197 198 177
3 199 179 178
3 198 199 178
3 200 180 179
3 199 200 179
3 201 181 180
3 200 201 180
3 202 182 181
3 201 202 181
3 203 183 182
3 202 203 182
3 204 184 183
3 203 204 183
3 205 185 184
3 204 205 184
3 186 206 188
3 187 207 186
3 186 207 206
3 188 206 208
3 188 208 189
3 189 208 209
3 189 209 190
3 190 209 210
3 190 210 191
3 191 210 211
3 191 211 192
3 192 211 212
3 192 212 193
3 193 212 213
3 193 213 195
3 214 197 194
3 214 194 196
3 195 213 215
3 195 215 196
3 196 215 214
3 216 198 197
3 214 216 197
3 217 199 198
3 216 217 198
3 218 200 199
3 217 218 199
3 219 201 200
3 218 219 200
3 220 202 201
3 219 220 201
3 221 203 202
3 220 221 202
3 222 204 203
3 221 222 203
3 223 205 204
3 222 223 204
3 206 224 208
3 207 225 206
3 206 225 224
3 208 224 226
3 208 226 209
3 209 226 227
3 209 227 210
3 210 227 228
3 210 228 211
3 211 228 229
3 211 229 212
3 212 229 230
3 212 230 213
3 213 230 231
3 213 231 215
3 232 216 214
3 215 231 232
3 232 214 215
3 233 217 216
3 232 233 216
3 234 218 217
3 233 234 217
3 235 219 218
3 234 235 218
3 236 220 219
3 235 236 219
3 237 221 220
3 236 237 220
3 238 222 221
3 237 238 221
3 239 223 222
3 238 239 222
3 224 240 226
3 225 241 224
3 224 241 240
3 226 240 242
3 226 242 227
3 227 242 243
3 227 243 228
3 228 243 244
3 228 244 229
3 244 245 229
3 229 245 230
3 230 245 246
3 230 246 231
3 231 246 247
3 231 247 232
3 248 233 232
3 248 232 247
3 249 234 233
3 248 249 233
3 250 235 234
3 249 250 234
3 251 236 235
3 250 251 235
3 252 237 236
3 251 252 236
3 253 238 237
3 252 253 237
3 254 239 238
3 253 254 238
3 240 255 242
3 241 256 240
3 240 256 255
3 242 255 257
3 242 257 243
3 243 257 258
3 243 258 244
3 244 258 259
3 244 259 245
3 245 259 260
3 245 260 246
3 246 260 261
3 246 261 247
3 248 247 261
3 262 249 248
3 261 262 248
3 263 250 249
3 262 263 249
3 264 251 250
3 263 264 250
3 265 252 251
3 264 265 251
3 266 253 252
3 265 266 252
3 267 254 253
3 266 267 253
3 255 268 257
3 256 269 255
3 255 269 268
3 257 268 270
3 257 270 258
3 258 270 271
3 258 271 259
3 259 271 272
3 259 272 260
3 260 272 273
3 260 273 261
3 274 262 261
3 261 273 274
3 275 263 262
3 274 275 262
3 276 264 263
3 275 276 263
3 277 265 264
3 276 277 264
3 278 266 265
3 277 278 265
3 279 267 266
3 278 279 266
3 268 280 270
3 269 281 268
3 268 281 280
3 270 280 282
3 270 282 271
3 271 282 283
3 271 283 272
3 283 284 272
3 272 284 273
3 285 275 274
3 273 284 285
3 285 274 273
3 286 276 275
3 285 286 275
3 287 277 276
3 286 287 276
3 288 278 277
3 287 288 277
3 289 279 278
3 288 289 278
3 280 290 282
3 281 291 280
3 280 291 290
3 282 290 292
3 282 292 283
3 283 292 293
3 283 293 284
3 284 293 294
3 284 294 285
3 295 286 285
3 295 285 294
3 296 287 286
3 295 296 286
3 297 288 287
3 296 297 287
3 298 289 288
3 297 298 288
3 290 299 292
3 291 300 290
3 290 300 299
3 292 299 301
3 292 301 293
3 293 301 302
3 293 302 294
3 294 302 295
3 303 296 295
3 303 295 302
3 304 297 296
3 303 304 296
3 305 298 297
3 304 305 297
3 299 306 301
3 300 307 299
3 299 307 306
3 301 306 308
3 301 308 302
3 309 303 302
3 302 308 309
3 310 304 303
3 309 310 303
3 311 305 304
3 310 311 304
3 306 312 308
3 307 313 306
3 306 313 312
3 314 310 309
3 308 312 314
3 314 309 308
3 315 311 310
3 314 315 310
3 312 316 314
3 313 317 312
3 312 317 316
3 318 315 314
3 318 314 316
3 317 319 316
3 319 318 316
CELL_TYPES 578
5
5
5
5
5
5
5
5
5
5
5
5
5
5
5
5
5
5
5
5
5
5
5
5
5
5
5
5
5
5
5
5
5
5
5
5
5
5
5
5
5
5
5
5
5
5
5
5
5
5
5
5
5
5
5
5
5
5
5
5
5
5
5
5
5
5
5
5
5
5
5
5
5
5
5
5
5
5
5
5
5
5
5
5
5
5
5
5
5
5
5
5
5
5
5
5
5
5
5
5
5
5
5
5
5
5
5
5
5
5
5
5
5
5
5
5
5
5
5
5
5
5
5
5
5
5
5
5
5
5
5
5
5
5
5
5
5
5
5
5
5
5
5
5
5
5
5
5
5
5
5
5
5
5
5
5
5
5
5
5
5
5
5
5
5
5
5
5
5
5
5
5
5
5
5
5
5
5
5
5
5
5
5
5
5
5
5
5
5
5
5
5
5
5
5
5
5
5
5
5
5
5
5
5
5
5
5
5
5
5
5
5
5
5
5
5
5
5
5
5
5
5
5
5
5
5
5
5
5
5
5
5
5
5
5
5
5
5
5
5
5
5
5
5
5
5
5
5
5
5
5
5
5
5
5
5
5
5
5
5
5
5
5
5
5
5
5
5
5
5
5
5
5
5
5
5
5
5
5
5
5
5
5
5
5
5
5
5
5
5
5
5
5
5
5
5
5
5
5
5
5
5
5
5
5
5
5
5
5
5
5
5
5
5
5
5
5
5
5
5
5
5
5
5
5
5
5
5
5
5
5
5
5
5
5
5
5
5
5
5
5
5
5
5
5
5
5
5
5
5
5
5
5
5
5
5
5
5
5
5
5
5
5
5
5
5
5
5
5
5
5
5
5
5
5
5
5
5
5
5
5
5
5
5
5
5
5
5
5
5
5
5
5
5
5
5
5
5
5
5
5
5
5
5
5
5
5
5
5
5
5
5
5
5
5
5
5
5
5
5
5
5
5
5
5
5
5
5
5
5
5
5
5
5
5
5
5
5
5
5
5
5
5
5
5
5
5
5
5
5
5
5
5
5
5
5
5
5
5
5
5
5
5
5
5
5
5
5
5
5
5
5
5
5
5
5
5
5
5
5
5
5
5
5
5
5
5
5
5
5
5
5
5
5
5
5
5
5
5
5
5
5
5
5
5
5
5
5
5
5
5
5
5
5
5
5
5
5
5
5
5
5
5
5
5
5
5
5
5
5
5
5
5
5
5
5
5
5
5
5
5
5
5
5
5
5
5
5
5
5
5
5
5
5
5
5
5
5
5
5
5
5
5
5
5
5
5
5
5
5
5
5
5
5
5
5
5
5
POINT_DATA 320
SCALARS theta_e float 1
LOOKUP_TABLE default
0.992420
0.992325
0.992422
0.992539
0.992142
0.992825
0.992307
0.992592
0.993353
0.991842
0.992064
0.993038
0.992394
0.992741
0.994041
0.993633
0.991433
0.991714
0.992115
0.993197
0.992653
0.990916
0.994877
0.995833
0.994391
0.993860
0.991250
0.991690
0.992214
0.993293
0.992773
0.990312
0.990688
0.989649
0.996858
0.997890
0.995289
0.996287
0.994676
0.994019
0.991178
0.991767
0.992448
0.993295
0.990052
0.990576
0.988967
0.989375
0.998862
0.999720
0.997321
0.998329
0.995633
0.996651
0.994930
0.994212
0.991213
0.991949
0.992775
0.993550
0.989915
0.990575
0.988309
0.988700
0.989235
0.987719
1.000425
1.000955
0.999250
1.000037
0.997674
0.998637
0.995915
0.996940
0.995141
0.994305
0.991335
0.992213
0.993245
0.989898
0.990639
0.988071
0.988581
0.989229
0.987221
0.987526
0.986830
1.001312
1.001507
1.000661
1.001110
0.999493
1.000204
0.997930
0.998828
0.996141
0.997148
0.995272
0.994314
0.991475
0.992457
0.993423
0.989941
0.990760
0.987983
0.989302
0.988622
0.987083
0.987484
0.986738
0.986562
0.986405
1.001392
1.001528
1.001566
1.001144
1.000757
0.999606
1.000239
0.998091
0.998901
0.996300
0.997292
0.995367
0.994169
0.991785
0.992893
0.990098
0.991045
0.989532
0.988103
0.988780
0.987723
0.987053
0.987362
0.986804
0.986559
0.986404
0.986339
1.001370
1.001503
1.001092
1.000695
0.999585
1.000113
0.998154
0.998871
0.996460
0.997381
0.995312
0.994433
0.993238
0.992082
0.990428
0.991356
0.989953
0.989247
0.988210
0.988699
0.987719
0.987196
0.986831
0.986597
0.986447
1.001117
1.001324
1.000727
1.000219
0.999515
0.998763
0.998077
0.996261
0.997185
0.993439
0.995314
0.994557
0.992380
0.991528
0.990660
0.989864
0.989115
0.988342
0.987726
0.987264
0.986935
0.986708
1.000691
1.000983
1.000233
0.999640
0.998957
0.998183
0.997386
0.996129
0.993282
0.995148
0.994338
0.992211
0.991283
0.990572
0.989772
0.988999
0.988359
0.987833
0.987423
0.987119
1.000119
1.000490
0.999593
0.998956
0.998240
0.997496
0.996530
0.995484
0.993289
0.994531
0.992172
0.991348
0.990547
0.989775
0.989097
0.988518
0.988040
0.987673
0.999404
0.999843
0.998829
0.998163
0.997434
0.996678
0.995671
0.994735
0.993424
0.992254
0.991397
0.990596
0.989904
0.989292
0.988768
0.988346
0.998577
0.999063
0.997979
0.997306
0.996575
0.995804
0.994830
0.993947
0.993104
0.992228
0.991440
0.990741
0.990120
0.989571
0.989116
0.997689
0.998195
0.997094
0.996437
0.995721
0.994913
0.993977
0.992988
0.992224
0.991544
0.990937
0.990397
0.989936
0.996798
0.997293
0.996232
0.995617
0.994953
0.994217
0.993548
0.992905
0.992268
0.991696
0.991187
0.990752
0.995961
0.996421
0.995445
0.994891
0.994300
0.993571
0.992909
0.992366
0.991902
0.991511
0.995222
0.995627
0.994771
0.994300
0.993854
0.993377
0.992900
0.992500
0.992170
0.994607
0.994946
0.994217
0.993778
0.993309
0.992975
0.992712
0.994143
0.994404
0.993844
0.993571
0.993329
0.993129
0.993830
0.994010
0.993601
0.993436
0.993693
0.993785
0.993610
0.993694
VECTORS fa_u float
0.000000 0.000000 0.000000
0.000000 0.000000 0.000000
0.000000 0.000000 0.000000
0.000000 0.000000 0.000000
0.000000 0.000000 0.000000
0.000000 0.000000 0.000000
0.000000 0.000000 0.000000
0.000000 0.000000 0.000000
0.000000 0.000000 0.000000
0.000000 0.000000 0.000000
0.000000 0.000000 0.000000
0.000000 0.000000 0.000000
0.000000 0.000000 0.000000
0.000000 0.000000 0.000000
0.000000 0.000000 0.000000
0.000000 0.000000 0.000000
0.000000 0.000000 0.000000
0.000000 0.000000 0.000000
0.000000 0.000000 0.000000
0.000000 0.000000 0.000000
0.000000 0.000000 0.000000
0.000000 0.000000 0.000000
0.000000 0.000000 0.000000
0.000000 0.000000 0.000000
0.000000 0.000000 0.000000
0.000000 0.000000 0.000000
0.000000 0.000000 0.000000
0.000000 0.000000 0.000000
0.000000 0.000000 0.000000
0.000000 0.000000 0.000000
0.000000 0.000000 0.000000
0.000000 0.000000 0.000000
0.000000 0.000000 0.000000
0.000000 0.000000 0.000000
0.000000 0.000000 0.000000
0.000000 0.000000 0.000000
0.000000 0.000000 0.000000
0.000000 0.000000 0.000000
0.000000 0.000000 0.000000
0.000000 0.000000 0.000000
0.000000 0.000000 0.000000
0.000000 0.000000 0.000000
0.000000 0.000000 0.000000
0.000000 0.000000 0.000000
0.000000 0.000000 0.000000
0.000000 0.000000 0.000000
0.000000 0.000000 0.000000
0.000000 0.000000 0.000000
0.000000 0.000000 0.000000
0.000000 0.000000 0.000000
0.000000 0.000000 0.000000
0.000000 0.000000 0.000000
0.000000 0.000000 0.000000
0.000000 0.000000 0.000000
0.000000 0.000000 0.000000
0.000000 0.000000 0.000000
0.000000 0.000000 0.000000
0.000000 0.000000 0.000000
0.000000 0.000000 0.000000
0.000000 0.000000 0.000000
0.000000 0.000000 0.000000
0.000000 0.000000 0.000000
0.000000 0.000000 0.000000
0.000000 0.000000 0.000000
0.000000 0.000000 0.000000
0.000000 0.000000 0.000000
0.000000 0.000000 0.000000
0.000000 0.000000 0.000000
0.000000 0.000000 0.000000
0.000000 0.000000 0.000000
0.000000 0.000000 0.000000
0.000000 0.000000 0.000000
0.000000 0.000000 0.000000
0.000000 0.000000 0.000000
0.000000 0.000000 0.000000
0.000000 0.000000 0.000000
0.000000 0.000000 0.000000
0.000000 0.000000 0.000000
0.000000 0.000000 0.000000
0.000000 0.000000 0.000000
0.000000 0.000000 0.000000
0.000000 0.000000 0.000000
0.000000 0.000000 0.000000
0.000000 0.000000 0.000000
0.000000 0.000000 0.000000
0.000000 0.000000 0.000000
0.000000 0.000000 0.000000
0.000000 0.000000 0.000000
0.000000 0.000000 0.000000
0.000000 0.000000 0.000000
0.000000 0.000000 0.000000
0.000000 0.000000 0.000000
0.000000 0.000000 0.000000
0.000000 0.000000 0.000000
0.000000 0.000000 0.000000
0.000000 0.000000 0.000000
0.000000 0.000000 0.000000
0.000000 0.000000 0.000000
0.000000 0.000000 0.000000
0.000000 0.000000 0.000000
0.000000 0.000000 0.000000
0.000000 0.000000 0.000000
0.000000 0.000000 0.000000
0.000000 0.000000 0.000000
0.000000 0.000000 0.000000
0.000000 0.000000 0.000000
0.000000 0.000000 0.000000
0.000000 0.000000 0.000000
0.000000 0.000000 0.000000
0.000000 0.000000 0.000000
0.000000 0.000000 0.000000
0.000000 0.000000 0.000000
0.000000 0.000000 0.000000
0.000000 0.000000 0.000000
0.000000 0.000000 0.000000
0.000000 0.000000 0.000000
0.000000 0.000000 0.000000
0.000000 0.000000 0.000000
0.000000 0.000000 0.000000
0.000000 0.000000 0.000000
0.000000 0.000000 0.000000
0.000000 0.000000 0.000000
0.000000 0.000000 0.000000
0.000000 0.000000 0.000000
0.000000 0.000000 0.000000
0.000000 0.000000 0.000000
0.000000 0.000000 0.000000
0.000000 0.000000 0.000000
0.000000 0.000000 0.000000
0.000000 0.000000 0.000000
0.000000 0.000000 0.000000
0.000000 0.000000 0.000000
0.000000 0.000000 0.000000
0.000000 0.000000 0.000000
0.000000 0.000000 0.000000
0.000000 0.000000 0.000000
0.000000 0.000000 0.000000
0.000000 0.000000 0.000000
0.000000 0.000000 0.000000
0.000000 0.000000 0.000000
0.000000 0.000000 0.000000
0.000000 0.000000 0.000000
0.000000 0.000000 0.000000
0.000000 0.000000 0.000000
0.000000 0.000000 0.000000
0.000000 0.000000 0.000000
0.000000 0.000000 0.000000
0.000000 0.000000 0.000000
0.000000 0.000000 0.000000
0.000000 0.000000 0.000000
0.000000 0.000000 0.000000
0.000000 0.000000 0.000000
0.000000 0.000000 0.000000
0.000000 0.000000 0.000000
0.000000 0.000000 0.000000
0.000000 0.000000 0.000000
0.000000 0.000000 0.000000
0.000000 0.000000 0.000000
0.000000 0.000000 0.000000
0.000000 0.000000 0.000000
0.000000 0.000000 0.000000
0.000000 0.000000 0.000000
0.000000 0.000000 0.000000
0.000000 0.000000 0.000000
0.000000 0.000000 0.000000
0.000000 0.000000 0.000000
0.000000 0.000000 0.000000
0.000000 0.000000 0.000000
0.000000 0.000000 0.000000
0.000000 0.000000 0.000000
0.000000 0.000000 0.000000
0.000000 0.000000 0.000000
0.000000 0.000000 0.000000
0.000000 0.000000 0.000000
0.000000 0.000000 0.000000
0.000000 0.000000 0.000000
0.000000 0.000000 0.000000
0.000000 0.000000 0.000000
0.000000 0.000000 0.000000
0.000000 0.000000 0.000000
0.000000 0.000000 0.000000
0.000000 0.000000 0.000000
0.000000 0.000000 0.000000
0.000000 0.000000 0.000000
0.000000 0.000000 0.000000
0.000000 0.000000 0.000000
0.000000 0.000000 0.000000
0.000000 0.000000 0.000000
0.000000 0.000000 0.000000
0.000000 0.000000 0.000000
0.000000 0.000000 0.000000
0.000000 0.000000 0.000000
0.000000 0.000000 0.000000
0.000000 0.000000 0.000000
0.000000 0.000000 0.000000
0.000000 0.000000 0.000000
0.000000 0.000000 0.000000
0.000000 0.000000 0.000000
0.000000 0.000000 0.000000
0.000000 0.000000 0.000000
0.000000 0.000000 0.000000
0.000000 0.000000 0.000000
0.000000 0.000000 0.000000
0.000000 0.000000 0.000000
0.000000 0.000000 0.000000
0.000000 0.000000 0.000000
0.000000 0.000000 0.000000
0.000000 0.000000 0.000000
0.000000 0.000000 0.000000
0.000000 0.000000 0.000000
0.000000 0.000000 0.000000
0.000000 0.000000 0.000000
0.000000 0.000000 0.000000
0.000000 0.000000 0.000000
0.000000 0.000000 0.000000
0.000000 0.000000 0.000000
0.000000 0.000000 0.000000
0.000000 0.000000 0.000000
0.000000 0.000000 0.000000
0.000000 0.000000 0.000000
0.000000 0.000000 0.000000
0.000000 0.000000 0.000000
0.000000 0.000000 0.000000
0.000000 0.000000 0.000000
0.000000 0.000000 0.000000
0.000000 0.000000 0.000000
0.000000 0.000000 0.000000
0.000000 0.000000 0.000000
0.000000 0.000000 0.000000
0.000000 0.000000 0.000000
0.000000 0.000000 0.000000
0.000000 0.000000 0.000000
0.000000 0.000000 0.000000
0.000000 0.000000 0.000000
0.000000 0.000000 0.000000
0.000000 0.000000 0.000000
0.000000 0.000000 0.000000
0.000000 0.000000 0.000000
0.000000 0.000000 0.000000
0.000000 0.000000 0.000000
0.000000 0.000000 0.000000
0.000000 0.000000 0.000000
0.000000 0.000000 0.000000
0.000000 0.000000 0.000000
0.000000 0.000000 0.000000
0.000000 0.000000 0.000000
0.000000 0.000000 0.000000
0.000000 0.000000 0.000000
0.000000 0.000000 0.000000
0.000000 0.000000 0.000000
0.000000 0.000000 0.000000
0.000000 0.000000 0.000000
0.000000 0.000000 0.000000
0.000000 0.000000 0.000000
0.000000 0.000000 0.000000
0.000000 0.000000 0.000000
0.000000 0.000000 0.000000
0.000000 0.000000 0.000000
0.000000 0.000000 0.000000
0.000000 0.000000 0.000000
0.000000 0.000000 0.000000
0.000000 0.000000 0.000000
0.000000 0.000000 0.000000
0.000000 0.000000 0.000000
0.000000 0.000000 0.000000
0.000000 0.000000 0.000000
0.000000 0.000000 0.000000
0.000000 0.000000 0.000000
0.000000 0.000000 0.000000
0.000000 0.000000 0.000000
0.000000 0.000000 0.000000
0.000000 0.000000 0.000000
0.000000 0.000000 0.000000
0.000000 0.000000 0.000000
0.000000 0.000000 0.000000
0.000000 0.000000 0.000000
0.000000 0.000000 0.000000
0.000000 0.000000 0.000000
0.000000 0.000000 0.000000
0.000000 0.000000 0.000000
0.000000 0.000000 0.000000
0.000000 0.000000 0.000000
0.000000 0.000000 0.000000
0.000000 0.000000 0.000000
0.000000 0.000000 0.000000
0.000000 0.000000 0.000000
0.000000 0.000000 0.000000
0.000000 0.000000 0.000000
0.000000 0.000000 0.000000
0.000000 0.000000 0.000000
0.000000 0.000000 0.000000
0.000000 0.000000 0.000000
0.000000 0.000000 0.000000
0.000000 0.000000 0.000000
0.000000 0.000000 0.000000
0.000000 0.000000 0.000000
0.000000 0.000000 -50.000000
-50.000000 0.000000 -50.000000
-43.327839 0.000000 -45.705204
-45.511950 0.000000 -43.317709
-50.000000 0.000000 -50.000000
-36.654993 0.000000 -36.635342
-50.000000 0.000000 -45.099523
-40.006793 0.000000 -40.059038
-44.180036 0.000000 -29.949612
-50.000000 0.000000 -50.000000
-29.982975 0.000000 -44.865610
-33.508348 0.000000 -33.182832
-44.703797 0.000000 -39.896237
-36.837461 0.000000 -35.166355
-39.848249 0.000000 -23.260927
-50.000000 0.000000 -26.585894
-44.694423 0.000000 -50.000000
-23.314466 0.000000 -44.681658
-26.890985 0.000000 -39.389225
-30.302992 0.000000 -29.651817
-39.407672 0.000000 -33.404764
-33.726787 0.000000 -50.000000
-16.648380 0.000000 -16.575192
-50.000000 0.000000 -9.893668
