# vtk DataFile Version 2.0
CellBP Time: 2
ASCII
DATASET UNSTRUCTURED_GRID
POINTS 320 double
-50.000000 -50.000000 0.000000
-50.000000 -43.327501 0.000000
-45.695062 -45.515947 0.000000
-43.295410 -50.000000 0.000000
-50.000000 -36.654606 0.000000
-36.591103 -50.000000 0.000000
-45.087809 -40.013639 0.000000
-40.034760 -44.185489 0.000000
-29.885649 -50.000000 0.000000
-50.000000 -29.982545 0.000000
-44.853447 -33.519199 0.000000
-33.140514 -44.709552 0.000000
-39.870920 -36.847280 0.000000
-35.129737 -39.857672 0.000000
-23.180044 -50.000000 0.000000
-26.529274 -44.700191 0.000000
-50.000000 -23.313929 0.000000
-44.669507 -26.905780 0.000000
-39.363407 -30.317127 0.000000
-29.602989 -39.418147 0.000000
-33.364489 -33.740505 0.000000
-50.000000 -16.647633 0.000000
-16.481381 -50.000000 0.000000
-9.791473 -50.000000 0.000000
-19.950540 -44.620083 0.000000
-23.202351 -39.174690 0.000000
-44.694190 -20.230678 0.000000
-39.363371 -23.651615 0.000000
-34.092939 -27.054053 0.000000
-26.372889 -33.667936 0.000000
-29.137264 -29.041658 0.000000
-50.000000 -9.985801 0.000000
-44.665876 -13.578122 0.000000
-50.000000 -3.330773 0.000000
-3.109885 -50.000000 0.000000
3.560285 -50.000000 0.000000
-13.324154 -44.627162 0.000000
-6.659071 -44.637357 0.000000
-16.669082 -39.208468 0.000000
-20.081576 -33.433858 0.000000
-39.329109 -16.963289 0.000000
-34.003396 -20.427989 0.000000
-28.755226 -23.598257 0.000000
-23.475950 -27.484703 0.000000
-44.628777 -6.910612 0.000000
-39.271847 -10.303974 0.000000
-50.000000 3.324750 0.000000
-44.612521 -0.258537 0.000000
10.217325 -50.000000 0.000000
16.862725 -50.000000 0.000000
0.015727 -44.641631 0.000000
6.687702 -44.652439 0.000000
-10.008517 -39.276666 0.000000
-3.323913 -39.271763 0.000000
-13.443082 -33.883796 0.000000
-16.657508 -28.400349 0.000000
-33.914436 -13.718353 0.000000
-28.558829 -17.089365 0.000000
-23.240739 -20.498536 0.000000
-18.603449 -23.450268 0.000000
-39.230409 -3.646481 0.000000
-33.843109 -7.068858 0.000000
-50.000000 10.011873 0.000000
-44.595223 6.394849 0.000000
-39.207919 3.013899 0.000000
-50.000000 16.766886 0.000000
23.499859 -50.000000 0.000000
30.130533 -50.000000 0.000000
13.354866 -44.674018 0.000000
20.025120 -44.706569 0.000000
3.356759 -39.288201 0.000000
10.022025 -39.323074 0.000000
-6.680204 -33.872961 0.000000
0.027473 -33.901348 0.000000
-10.025469 -28.412687 0.000000
-13.048921 -23.063997 0.000000
-28.452421 -10.477535 0.000000
-22.978622 -13.907410 0.000000
-16.891249 -17.420993 0.000000
-33.786118 -0.430085 0.000000
-28.434336 -3.922433 0.000000
-44.559007 13.083463 0.000000
-39.145080 9.640417 0.000000
-33.750876 6.103536 0.000000
-50.000000 23.623893 0.000000
-44.605325 19.872798 0.000000
-50.000000 30.575106 0.000000
36.754246 -50.000000 0.000000
43.377257 -50.000000 0.000000
26.693430 -44.746836 0.000000
33.338619 -44.871928 0.000000
16.678474 -39.380562 0.000000
23.366704 -39.451497 0.000000
6.703758 -33.937203 0.000000
13.347985 -34.006741 0.000000
-3.268442 -28.464995 0.000000
3.434086 -28.538163 0.000000
-6.535129 -22.988952 0.000000
-9.871442 -17.507403 0.000000
-23.041957 -7.332870 0.000000
-17.667786 -10.604861 0.000000
-12.703794 -12.826350 0.000000
-28.396526 2.639094 0.000000
-23.048600 -0.880043 0.000000
-39.010787 16.326765 0.000000
-28.367378 9.331323 0.000000
-33.539798 12.504676 0.000000
-44.749796 26.634674 0.000000
-38.730404 23.676872 0.000000
-44.997043 33.426645 0.000000
-50.000000 37.513261 0.000000
-50.000000 43.866441 0.000000
39.934224 -45.065808 0.000000
45.473034 -45.655298 0.000000
50.000000 -50.000000 0.000000
36.645750 -39.985098 0.000000
30.039906 -39.466310 0.000000
19.952050 -34.119867 0.000000
26.622259 -34.337424 0.000000
10.060143 -28.578241 0.000000
16.671704 -28.702778 0.000000
0.150784 -23.076936 0.000000
6.902089 -23.249549 0.000000
-3.282113 -17.464297 0.000000
-6.710207 -11.279903 0.000000
-17.660820 -4.173631 0.000000
-12.346425 -7.322312 0.000000
-22.983490 5.555795 0.000000
-17.743869 2.034202 0.000000
-22.653866 11.492009 0.000000
-33.335975 18.528710 0.000000
-27.421169 16.139450 0.000000
-33.057387 23.861022 0.000000
-40.317122 30.558841 0.000000
-35.423349 28.980621 0.000000
-39.933540 35.522398 0.000000
-43.927054 40.185578 0.000000
-45.280571 45.773195 0.000000
-50.000000 50.000000 0.000000
44.119269 -39.896069 0.000000
50.000000 -43.379592 0.000000
39.649493 -35.052925 0.000000
33.487553 -33.436530 0.000000
23.033720 -28.850507 0.000000
28.769116 -29.269477 0.000000
13.536270 -23.185615 0.000000
20.118431 -23.485893 0.000000
3.507342 -17.707224 0.000000
10.223050 -17.920376 0.000000
0.282839 -12.201264 0.000000
-1.961175 -6.486030 0.000000
-7.181242 -3.987194 0.000000
-12.366235 -1.133712 0.000000
-17.754642 8.066033 0.000000
-12.640223 4.848066 0.000000
-18.029764 13.172247 0.000000
-20.784830 16.836497 0.000000
-28.047826 22.537140 0.000000
-23.371250 21.023420 0.000000
-29.760001 28.673129 0.000000
-34.173611 34.105653 0.000000
-36.881962 39.957478 0.000000
-39.646225 45.274293 0.000000
-43.410799 50.000000 0.000000
44.586478 -32.979321 0.000000
50.000000 -36.746975 0.000000
39.146817 -29.591781 0.000000
33.532995 -26.387473 0.000000
27.231746 -23.356320 0.000000
23.127102 -18.694828 0.000000
17.067724 -17.039029 0.000000
6.830740 -12.322258 0.000000
12.449149 -12.807697 0.000000
-3.147052 -1.708186 0.000000
4.111147 -7.186960 0.000000
1.241613 -2.276084 0.000000
-6.766241 2.078691 0.000000
-8.111807 7.567315 0.000000
-12.370590 11.581571 0.000000
-15.099088 17.341590 0.000000
-18.509693 22.746066 0.000000
-23.605065 27.229016 0.000000
-26.975695 33.621947 0.000000
-30.071018 39.324771 0.000000
-33.140623 44.843044 0.000000
-36.658095 50.000000 0.000000
44.554377 -26.510492 0.000000
50.000000 -30.115987 0.000000
39.061945 -23.196944 0.000000
33.490359 -19.923841 0.000000
28.097187 -16.615822 0.000000
22.760889 -13.178246 0.000000
17.277019 -9.983884 0.000000
11.084324 -6.744350 0.000000
-1.138443 2.133913 0.000000
6.439037 -1.846676 0.000000
3.132755 1.465405 0.000000
-3.272305 7.017284 0.000000
-5.932583 12.220974 0.000000
-9.152864 17.463331 0.000000
-12.603550 22.911348 0.000000
-16.826870 28.052642 0.000000
-20.215202 33.372603 0.000000
-23.340979 39.001651 0.000000
-26.479449 44.615758 0.000000
-29.920129 50.000000 0.000000
44.538959 -19.942577 0.000000
50.000000 -23.478695 0.000000
39.066598 -16.614990 0.000000
33.629018 -13.311341 0.000000
28.225438 -10.014891 0.000000
22.825669 -6.668760 0.000000
17.396033 -3.419933 0.000000
12.229883 0.099496 0.000000
2.183145 6.137574 0.000000
7.305376 3.746899 0.000000
0.118515 11.814862 0.000000
-2.890513 17.350972 0.000000
-6.283490 22.835776 0.000000
-10.169994 28.151621 0.000000
-13.383673 33.562222 0.000000
-16.646614 39.005628 0.000000
-19.831761 44.506341 0.000000
-23.226839 50.000000 0.000000
44.551834 -13.314284 0.000000
50.000000 -16.832876 0.000000
39.118563 -9.987389 0.000000
33.708544 -6.673224 0.000000
28.324737 -3.356297 0.000000
22.968582 -0.044958 0.000000
17.707031 3.290445 0.000000
12.446467 6.507163 0.000000
7.002397 10.737149 0.000000
3.602293 17.065756 0.000000
0.240221 22.740445 0.000000
-3.201759 28.229797 0.000000
-6.543413 33.706445 0.000000
-9.880880 39.120131 0.000000
-13.177325 44.535572 0.000000
-16.604265 50.000000 0.000000
44.574904 -6.661961 0.000000
50.000000 -10.175885 0.000000
39.167942 -3.339921 0.000000
33.784426 -0.020594 0.000000
28.436381 3.301768 0.000000
23.145584 6.642292 0.000000
18.015727 9.967473 0.000000
12.872600 12.143356 0.000000
10.023753 17.153183 0.000000
6.723654 22.651037 0.000000
3.435952 28.213089 0.000000
0.119989 33.694469 0.000000
-3.210060 39.138652 0.000000
-6.510211 44.565792 0.000000
-9.970488 50.000000 0.000000
44.599799 -0.001004 0.000000
50.000000 -3.507469 0.000000
39.216429 3.318360 0.000000
33.857825 6.633816 0.000000
28.536496 9.964939 0.000000
23.191814 13.379274 0.000000
17.125702 16.978202 0.000000
13.092708 22.627483 0.000000
10.006136 28.198570 0.000000
6.790487 33.695318 0.000000
3.462923 39.149304 0.000000
0.147902 44.577762 0.000000
-3.325020 50.000000 0.000000
44.613393 6.667915 0.000000
50.000000 3.171294 0.000000
39.249837 9.976038 0.000000
33.922528 13.266479 0.000000
28.648024 16.568184 0.000000
23.514333 20.063791 0.000000
18.682309 23.088772 0.000000
16.539315 28.280313 0.000000
13.473591 33.744132 0.000000
10.127380 39.177568 0.000000
6.811485 44.584967 0.000000
3.327826 50.000000 0.000000
44.636260 13.325236 0.000000
50.000000 9.858626 0.000000
39.300846 16.614151 0.000000
34.003403 19.862515 0.000000
28.704276 22.921694 0.000000
23.389652 27.201088 0.000000
20.013982 33.301357 0.000000
16.685982 39.041311 0.000000
13.387192 44.529569 0.000000
9.987524 50.000000 0.000000
44.658215 19.983300 0.000000
50.000000 16.550780 0.000000
39.343442 23.268014 0.000000
34.107211 26.520695 0.000000
29.049140 28.540833 0.000000
26.288408 33.410109 0.000000
23.154668 38.970934 0.000000
19.982123 44.510748 0.000000
16.649178 50.000000 0.000000
44.664541 26.653907 0.000000
50.000000 23.243663 0.000000
39.334862 29.974456 0.000000
33.273266 33.379702 0.000000
29.477911 39.050259 0.000000
26.492780 44.510898 0.000000
23.313626 50.000000 0.000000
44.797399 33.301380 0.000000
50.000000 29.935432 0.000000
39.772987 36.605560 0.000000
34.878865 39.534931 0.000000
32.883332 44.519466 0.000000
29.981918 50.000000 0.000000
44.997914 39.886140 0.000000
50.000000 36.625573 0.000000
39.768973 43.976064 0.000000
36.651292 50.000000 0.000000
45.637669 45.416131 0.000000
50.000000 43.313366 0.000000
43.322596 50.000000 0.000000
50.000000 50.000000 0.000000
CELLS 578 2312
3 1 0 2
3 0 3 2
3 4 1 6
3 6 1 2
3 3 5 7
3 3 7 2
3 6 2 7
3 9 4 10
3 10 4 6
3 5 8 11
3 7 5 11
3 10 6 12
3 12 6 7
3 7 11 13
3 7 13 12
3 8 14 15
3 11 8 15
3 16 9 17
3 17 9 10
3 17 10 18
3 18 10 12
3 11 15 19
3 13 11 19
3 18 12 20
3 13 19 20
3 20 12 13
3 14 22 24
3 15 14 24
3 15 24 25
3 19 15 25
3 21 16 26
3 26 16 17
3 26 17 27
3 27 17 18
3 27 18 28
3 28 18 20
3 19 25 29
3 19 29 20
3 28 20 30
3 30 20 29
3 31 21 32
3 32 21 26
3 22 23 36
3 24 22 36
3 23 34 37
3 36 23 37
3 24 36 38
3 25 24 38
3 25 38 39
3 29 25 39
3 32 26 40
3 40 26 27
3 40 27 41
3 41 27 28
3 41 28 42
3 42 28 30
3 29 39 43
3 29 43 30
3 42 30 43
3 33 31 44
3 44 31 32
3 44 32 45
3 45 32 40
3 46 33 47
3 47 33 44
3 34 35 50
3 37 34 50
3 35 48 51
3 50 35 51
3 36 37 52
3 38 36 52
3 37 50 53
3 52 37 53
3 38 52 54
3 39 38 54
3 39 54 55
3 43 39 55
3 45 40 56
3 56 40 41
3 56 41 57
3 57 41 42
3 57 42 58
3 58 42 43
3 43 55 59
3 43 59 58
3 47 44 60
3 60 44 45
3 60 45 61
3 61 45 56
3 62 46 63
3 63 46 47
3 63 47 64
3 64 47 60
3 48 49 68
3 51 48 68
3 49 66 69
3 68 49 69
3 50 51 70
3 53 50 70
3 51 68 71
3 70 51 71
3 52 53 72
3 54 52 72
3 53 70 73
3 72 53 73
3 54 72 74
3 55 54 74
3 55 74 75
3 59 55 75
3 61 56 76
3 76 56 57
3 76 57 77
3 77 57 58
3 77 58 78
3 59 75 78
3 78 58 59
3 64 60 79
3 79 60 61
3 79 61 80
3 80 61 76
3 65 62 81
3 81 62 63
3 81 63 82
3 82 63 64
3 82 64 83
3 83 64 79
3 84 65 85
3 85 65 81
3 66 67 89
3 69 66 89
3 67 87 90
3 89 67 90
3 68 69 91
3 71 68 91
3 69 89 92
3 91 69 92
3 70 71 93
3 73 70 93
3 71 91 94
3 93 71 94
3 72 73 95
3 74 72 95
3 73 93 96
3 95 73 96
3 74 95 97
3 75 74 97
3 75 97 98
3 78 75 98
3 80 76 99
3 99 76 77
3 99 77 100
3 100 77 78
3 100 78 101
3 98 101 78
3 83 79 102
3 102 79 80
3 102 80 103
3 103 80 99
3 85 81 104
3 104 81 82
3 105 83 102
3 104 82 106
3 106 82 83
3 106 83 105
3 86 84 107
3 107 84 85
3 107 85 108
3 108 85 104
3 109 86 107
3 110 86 109
3 87 88 112
3 90 87 112
3 112 88 113
3 88 114 113
3 90 112 115
3 89 90 116
3 92 89 116
3 116 90 115
3 91 92 117
3 94 91 117
3 92 116 118
3 117 92 118
3 93 94 119
3 96 93 119
3 94 117 120
3 119 94 120
3 95 96 121
3 97 95 121
3 96 119 122
3 121 96 122
3 97 121 123
3 98 97 123
3 98 123 124
3 98 124 101
3 103 99 125
3 125 99 100
3 125 100 126
3 126 100 101
3 126 101 124
3 105 102 127
3 127 102 103
3 127 103 128
3 128 103 125
3 129 105 127
3 108 104 130
3 130 104 106
3 130 106 131
3 131 106 105
3 131 105 129
3 108 130 132
3 109 107 133
3 133 107 108
3 133 108 134
3 108 132 134
3 135 109 133
3 111 110 136
3 136 110 109
3 136 109 135
3 137 111 136
3 138 111 137
3 112 113 139
3 115 112 139
3 114 140 113
3 140 139 113
3 139 141 115
3 116 115 142
3 118 116 142
3 142 115 141
3 117 118 143
3 120 117 143
3 118 142 144
3 143 118 144
3 119 120 145
3 122 119 145
3 120 143 146
3 145 120 146
3 121 122 147
3 123 121 147
3 122 145 148
3 147 122 148
3 123 147 149
3 124 123 149
3 124 149 150
3 151 126 124
3 124 150 151
3 128 125 152
3 152 125 126
3 152 126 151
3 129 127 153
3 153 127 128
3 128 152 154
3 153 128 154
3 155 129 153
3 131 129 156
3 156 129 155
3 132 130 157
3 130 131 157
3 157 131 158
3 131 156 158
3 132 157 159
3 132 159 134
3 135 133 160
3 160 133 134
3 160 134 159
3 136 135 161
3 135 160 161
3 162 137 136
3 161 162 136
3 163 138 137
3 162 163 137
3 139 164 141
3 140 165 139
3 139 165 164
3 141 164 166
3 141 166 142
3 166 167 142
3 144 142 167
3 167 168 144
3 143 144 168
3 146 143 168
3 168 169 146
3 145 146 170
3 148 145 170
3 170 146 169
3 147 148 171
3 149 147 171
3 148 170 172
3 171 148 172
3 173 151 150
3 149 171 174
3 150 149 174
3 150 174 175
3 150 175 173
3 154 152 176
3 152 151 176
3 176 151 173
3 154 176 177
3 155 153 178
3 177 178 154
3 154 178 153
3 156 155 179
3 155 178 179
3 180 158 156
3 179 180 156
3 181 159 157
3 180 181 158
3 181 157 158
3 182 160 159
3 181 182 159
3 183 161 160
3 182 183 160
3 184 162 161
3 184 161 183
3 185 163 162
3 184 185 162
3 164 186 166
3 165 187 164
3 164 187 186
3 166 186 188
3 166 188 167
3 167 188 189
3 167 189 168
3 168 189 190
3 168 190 169
3 169 190 191
3 169 191 170
3 192 172 170
3 170 191 192
3 192 193 172
3 171 172 193
3 174 171 193
3 194 173 175
3 176 173 194
3 175 174 195
3 193 195 174
3 195 196 175
3 175 196 194
3 197 177 176
3 194 197 176
3 198 178 177
3 197 198 177
3 199 179 178
3 198 199 178
3 200 180 179
3 199 200 179
3 201 181 180
3 200 201 180
3 202 182 181
3 201 202 181
3 203 183 182
3 202 203 182
3 204 184 183
3 203 204 183
3 205 185 184
3 204 205 184
3 186 206 188
3 187 207 186
3 186 207 206
3 188 206 208
3 188 208 189
3 189 208 209
3 189 209 190
3 190 209 210
3 190 210 191
3 191 210 211
3 191 211 192
3 192 211 212
3 192 212 193
3 193 212 213
3 193 213 195
3 214 197 194
3 214 194 196
3 195 213 215
3 195 215 196
3 196 215 214
3 216 198 197
3 214 216 197
3 217 199 198
3 216 217 198
3 218 200 199
3 217 218 199
3 219 201 200
3 218 219 200
3 220 202 201
3 219 220 201
3 221 203 202
3 220 221 202
3 222 204 203
3 221 222 203
3 223 205 204
3 222 223 204
3 206 224 208
3 207 225 206
3 206 225 224
3 208 224 226
3 208 226 209
3 209 226 227
3 209 227 210
3 210 227 228
3 210 228 211
3 211 228 229
3 211 229 212
3 212 229 230
3 212 230 213
3 213 230 231
3 213 231 215
3 232 216 214
3 215 231 232
3 232 214 215
3 233 217 216
3 232 233 216
3 234 218 217
3 233 234 217
3 235 219 218
3 234 235 218
3 236 220 219
3 235 236 219
3 237 221 220
3 236 237 220
3 238 222 221
3 237 238 221
3 239 223 222
3 238 239 222
3 224 240 226
3 225 241 224
3 224 241 240
3 226 240 242
3 226 242 227
3 227 242 243
3 227 243 228
3 228 243 244
3 228 244 229
3 244 245 229
3 229 245 230
3 230 245 246
3 230 246 231
3 231 246 247
3 231 247 232
3 248 233 232
3 248 232 247
3 249 234 233
3 248 249 233
3 250 235 234
3 249 250 234
3 251 236 235
3 250 251 235
3 252 237 236
3 251 252 236
3 253 238 237
3 252 253 237
3 254 239 238
3 253 254 238
3 240 255 242
3 241 256 240
3 240 256 255
3 242 255 257
3 242 257 243
3 243 257 258
3 243 258 244
3 244 258 259
3 244 259 245
3 245 259 260
3 245 260 246
3 246 260 261
3 246 261 247
3 248 247 261
3 262 249 248
3 261 262 248
3 263 250 249
3 262 263 249
3 264 251 250
3 263 264 250
3 265 252 251
3 264 265 251
3 266 253 252
3 265 266 252
3 267 254 253
3 266 267 253
3 255 268 257
3 256 269 255
3 255 269 268
3 257 268 270
3 257 270 258
3 258 270 271
3 258 271 259
3 259 271 272
3 259 272 260
3 260 272 273
3 260 273 261
3 274 262 261
3 261 273 274
3 275 263 262
3 274 275 262
3 276 264 263
3 275 276 263
3 277 265 264
3 276 277 264
3 278 266 265
3 277 278 265
3 279 267 266
3 278 279 266
3 268 280 270
3 269 281 268
3 268 281 280
3 270 280 282
3 270 282 271
3 271 282 283
3 271 283 272
3 283 284 272
3 272 284 273
3 285 275 274
3 273 284 285
3 285 274 273
3 286 276 275
3 285 286 275
3 287 277 276
3 286 287 276
3 288 278 277
3 287 288 277
3 289 279 278
3 288 289 278
3 280 290 282
3 281 291 280
3 280 291 290
3 282 290 292
3 282 292 283
3 283 292 293
3 283 293 284
3 284 293 294
3 284 294 285
3 295 286 285
3 295 285 294
3 296 287 286
3 295 296 286
3 297 288 287
3 296 297 287
3 298 289 288
3 297 298 288
3 290 299 292
3 291 300 290
3 290 300 299
3 292 299 301
3 292 301 293
3 293 301 302
3 293 302 294
3 294 302 295
3 303 296 295
3 303 295 302
3 304 297 296
3 303 304 296
3 305 298 297
3 304 305 297
3 299 306 301
3 300 307 299
3 299 307 306
3 301 306 308
3 301 308 302
3 309 303 302
3 302 308 309
3 310 304 303
3 309 310 303
3 311 305 304
3 310 311 304
3 306 312 308
3 307 313 306
3 306 313 312
3 314 310 309
3 308 312 314
3 314 309 308
3 315 311 310
3 314 315 310
3 312 316 314
3 313 317 312
3 312 317 316
3 318 315 314
3 318 314 316
3 317 319 316
3 319 318 316
CELL_TYPES 578
5
5
5
5
5
5
5
5
5
5
5
5
5
5
5
5
5
5
5
5
5
5
5
5
5
5
5
5
5
5
5
5
5
5
5
5
5
5
5
5
5
5
5
5
5
5
5
5
5
5
5
5
5
5
5
5
5
5
5
5
5
5
5
5
5
5
5
5
5
5
5
5
5
5
5
5
5
5
5
5
5
5
5
5
5
5
5
5
5
5
5
5
5
5
5
5
5
5
5
5
5
5
5
5
5
5
5
5
5
5
5
5
5
5
5
5
5
5
5
5
5
5
5
5
5
5
5
5
5
5
5
5
5
5
5
5
5
5
5
5
5
5
5
5
5
5
5
5
5
5
5
5
5
5
5
5
5
5
5
5
5
5
5
5
5
5
5
5
5
5
5
5
5
5
5
5
5
5
5
5
5
5
5
5
5
5
5
5
5
5
5
5
5
5
5
5
5
5
5
5
5
5
5
5
5
5
5
5
5
5
5
5
5
5
5
5
5
5
5
5
5
5
5
5
5
5
5
5
5
5
5
5
5
5
5
5
5
5
5
5
5
5
5
5
5
5
5
5
5
5
5
5
5
5
5
5
5
5
5
5
5
5
5
5
5
5
5
5
5
5
5
5
5
5
5
5
5
5
5
5
5
5
5
5
5
5
5
5
5
5
5
5
5
5
5
5
5
5
5
5
5
5
5
5
5
5
5
5
5
5
5
5
5
5
5
5
5
5
5
5
5
5
5
5
5
5
5
5
5
5
5
5
5
5
5
5
5
5
5
5
5
5
5
5
5
5
5
5
5
5
5
5
5
5
5
5
5
5
5
5
5
5
5
5
5
5
5
5
5
5
5
5
5
5
5
5
5
5
5
5
5
5
5
5
5
5
5
5
5
5
5
5
5
5
5
5
5
5
5
5
5
5
5
5
5
5
5
5
5
5
5
5
5
5
5
5
5
5
5
5
5
5
5
5
5
5
5
5
5
5
5
5
5
5
5
5
5
5
5
5
5
5
5
5
5
5
5
5
5
5
5
5
5
5
5
5
5
5
5
5
5
5
5
5
5
5
5
5
5
5
5
5
5
5
5
5
5
5
5
5
5
5
5
5
5
5
5
5
5
5
5
5
5
5
5
5
5
5
5
5
5
5
5
5
5
5
5
5
5
5
5
5
5
5
5
5
5
5
5
5
5
5
5
5
5
5
5
5
5
5
5
5
5
5
5
5
5
5
5
5
5
5
5
5
5
5
5
5
5
5
5
5
5
5
5
5
5
5
5
5
5
5
5
5
5
5
5
5
5
5
5
5
5
5
5
5
5
5
POINT_DATA 320
SCALARS theta_e float 1
LOOKUP_TABLE default
0.994300
0.994232
0.994291
0.994338
0.994067
0.994415
0.994184
0.994319
0.994549
0.993788
0.993961
0.994447
0.994143
0.994297
0.994711
0.994589
0.993413
0.993639
0.993880
0.994400
0.994131
0.992953
0.994902
0.995115
0.994766
0.994563
0.993223
0.993510
0.993788
0.994301
0.994028
0.992429
0.992733
0.991865
0.995342
0.995566
0.994970
0.995193
0.994757
0.994479
0.993068
0.993409
0.993742
0.994122
0.992190
0.992561
0.991280
0.991615
0.995772
0.995946
0.995422
0.995641
0.994982
0.995217
0.994710
0.994397
0.992962
0.993362
0.993745
0.994067
0.992010
0.992459
0.990701
0.991032
0.991440
0.990160
0.996074
0.996154
0.995834
0.995990
0.995448
0.995662
0.994949
0.995195
0.994638
0.994266
0.992910
0.993340
0.993789
0.991920
0.992399
0.990471
0.990878
0.991372
0.989683
0.989959
0.989289
0.996192
0.996204
0.996100
0.996165
0.995845
0.995990
0.995431
0.995643
0.994895
0.995155
0.994543
0.994158
0.992837
0.993312
0.993762
0.991872
0.992341
0.990343
0.991360
0.990849
0.989525
0.989875
0.989169
0.989000
0.988843
0.996194
0.996205
0.996207
0.996160
0.996094
0.995825
0.995970
0.995399
0.995610
0.994831
0.995119
0.994411
0.993927
0.992864
0.993523
0.991872
0.992400
0.991452
0.990385
0.990911
0.990030
0.989455
0.989717
0.989198
0.988971
0.988828
0.988784
0.996198
0.996208
0.996161
0.996075
0.995791
0.995934
0.995373
0.995586
0.994730
0.995042
0.994365
0.993878
0.993479
0.993053
0.992000
0.992558
0.991675
0.991212
0.990411
0.990788
0.989973
0.989523
0.989188
0.988978
0.988859
0.996190
0.996210
0.996113
0.995987
0.995784
0.995572
0.995320
0.994674
0.994956
0.993580
0.994477
0.994018
0.993238
0.992694
0.992154
0.991587
0.991063
0.990451
0.989932
0.989538
0.989254
0.989070
0.996152
0.996197
0.996045
0.995879
0.995675
0.995415
0.995081
0.994707
0.993632
0.994445
0.994014
0.993094
0.992564
0.992058
0.991506
0.990928
0.990413
0.989987
0.989649
0.989405
0.996081
0.996150
0.995947
0.995756
0.995526
0.995228
0.994857
0.994570
0.993579
0.994180
0.993092
0.992579
0.992026
0.991487
0.990965
0.990515
0.990140
0.989851
0.995975
0.996064
0.995819
0.995607
0.995358
0.995028
0.994650
0.994233
0.993623
0.993107
0.992593
0.992071
0.991566
0.991104
0.990708
0.990383
0.995838
0.995942
0.995667
0.995440
0.995171
0.994821
0.994422
0.994005
0.993615
0.993149
0.992670
0.992191
0.991736
0.991329
0.990983
0.995681
0.995794
0.995502
0.995265
0.994977
0.994604
0.994135
0.993661
0.993235
0.992801
0.992372
0.991972
0.991620
0.995516
0.995632
0.995335
0.995095
0.994798
0.994429
0.994064
0.993749
0.993369
0.992981
0.992605
0.992264
0.995356
0.995469
0.995179
0.994941
0.994638
0.994236
0.993890
0.993544
0.993203
0.992885
0.995213
0.995316
0.995044
0.994814
0.994543
0.994305
0.994019
0.993733
0.993453
0.995093
0.995184
0.994926
0.994668
0.994403
0.994180
0.993949
0.995004
0.995081
0.994856
0.994679
0.994538
0.994359
0.994945
0.995008
0.994803
0.994679
0.994925
0.994967
0.994863
0.994940
VECTORS fa_u float
0.000000 0.000000 0.000000
0.000000 0.000000 0.000000
0.000000 0.000000 0.000000
0.000000 0.000000 0.000000
0.000000 0.000000 0.000000
0.000000 0.000000 0.000000
0.000000 0.000000 0.000000
0.000000 0.000000 0.000000
0.000000 0.000000 0.000000
0.000000 0.000000 0.000000
0.000000 0.000000 0.000000
0.000000 0.000000 0.000000
0.000000 0.000000 0.000000
0.000000 0.000000 0.000000
0.000000 0.000000 0.000000
0.000000 0.000000 0.000000
0.000000 0.000000 0.000000
0.000000 0.000000 0.000000
0.000000 0.000000 0.000000
0.000000 0.000000 0.000000
0.000000 0.000000 0.000000
0.000000 0.000000 0.000000
0.000000 0.000000 0.000000
0.000000 0.000000 0.000000
0.000000 0.000000 0.000000
0.000000 0.000000 0.000000
0.000000 0.000000 0.000000
0.000000 0.000000 0.000000
0.000000 0.000000 0.000000
0.000000 0.000000 0.000000
0.000000 0.000000 0.000000
0.000000 0.000000 0.000000
0.000000 0.000000 0.000000
0.000000 0.000000 0.000000
0.000000 0.000000 0.000000
0.000000 0.000000 0.000000
0.000000 0.000000 0.000000
0.000000 0.000000 0.000000
0.000000 0.000000 0.000000
0.000000 0.000000 0.000000
0.000000 0.000000 0.000000
0.000000 0.000000 0.000000
0.000000 0.000000 0.000000
0.000000 0.000000 0.000000
0.000000 0.000000 0.000000
0.000000 0.000000 0.000000
0.000000 0.000000 0.000000
0.000000 0.000000 0.000000
0.000000 0.000000 0.000000
0.000000 0.000000 0.000000
0.000000 0.000000 0.000000
0.000000 0.000000 0.000000
0.000000 0.000000 0.000000
0.000000 0.000000 0.000000
0.000000 0.000000 0.000000
0.000000 0.000000 0.000000
0.000000 0.000000 0.000000
0.000000 0.000000 0.000000
0.000000 0.000000 0.000000
0.000000 0.000000 0.000000
0.000000 0.000000 0.000000
0.000000 0.000000 0.000000
0.000000 0.000000 0.000000
0.000000 0.000000 0.000000
0.000000 0.000000 0.000000
0.000000 0.000000 0.000000
0.000000 0.000000 0.000000
0.000000 0.000000 0.000000
0.000000 0.000000 0.000000
0.000000 0.000000 0.000000
0.000000 0.000000 0.000000
0.000000 0.000000 0.000000
0.000000 0.000000 0.000000
0.000000 0.000000 0.000000
0.000000 0.000000 0.000000
0.000000 0.000000 0.000000
0.000000 0.000000 0.000000
0.000000 0.000000 0.000000
0.000000 0.000000 0.000000
0.000000 0.000000 0.000000
0.000000 0.000000 0.000000
0.000000 0.000000 0.000000
0.000000 0.000000 0.000000
0.000000 0.000000 0.000000
0.000000 0.000000 0.000000
0.000000 0.000000 0.000000
0.000000 0.000000 0.000000
0.000000 0.000000 0.000000
0.000000 0.000000 0.000000
0.000000 0.000000 0.000000
0.000000 0.000000 0.000000
0.000000 0.000000 0.000000
0.000000 0.000000 0.000000
0.000000 0.000000 0.000000
0.000000 0.000000 0.000000
0.000000 0.000000 0.000000
0.000000 0.000000 0.000000
0.000000 0.000000 0.000000
0.000000 0.000000 0.000000
0.000000 0.000000 0.000000
0.000000 0.000000 0.000000
0.000000 0.000000 0.000000
0.000000 0.000000 0.000000
0.000000 0.000000 0.000000
0.000000 0.000000 0.000000
0.000000 0.000000 0.000000
0.000000 0.000000 0.000000
0.000000 0.000000 0.000000
0.000000 0.000000 0.000000
0.000000 0.000000 0.000000
0.000000 0.000000 0.000000
0.000000 0.000000 0.000000
0.000000 0.000000 0.000000
0.000000 0.000000 0.000000
0.000000 0.000000 0.000000
0.000000 0.000000 0.000000
0.000000 0.000000 0.000000
0.000000 0.000000 0.000000
0.000000 0.000000 0.000000
0.000000 0.000000 0.000000
0.000000 0.000000 0.000000
0.000000 0.000000 0.000000
0.000000 0.000000 0.000000
0.000000 0.000000 0.000000
0.000000 0.000000 0.000000
0.000000 0.000000 0.000000
0.000000 0.000000 0.000000
0.000000 0.000000 0.000000
0.000000 0.000000 0.000000
0.000000 0.000000 0.000000
0.000000 0.000000 0.000000
0.000000 0.000000 0.000000
0.000000 0.000000 0.000000
0.000000 0.000000 0.000000
0.000000 0.000000 0.000000
0.000000 0.000000 0.000000
0.000000 0.000000 0.000000
0.000000 0.000000 0.000000
0.000000 0.000000 0.000000
0.000000 0.000000 0.000000
0.000000 0.000000 0.000000
0.000000 0.000000 0.000000
0.000000 0.000000 0.000000
0.000000 0.000000 0.000000
0.000000 0.000000 0.000000
0.000000 0.000000 0.000000
0.000000 0.000000 0.000000
0.000000 0.000000 0.000000
0.000000 0.000000 0.000000
0.000000 0.000000 0.000000
0.000000 0.000000 0.000000
0.000000 0.000000 0.000000
0.000000 0.000000 0.000000
0.000000 0.000000 0.000000
0.000000 0.000000 0.000000
0.000000 0.000000 0.000000
0.000000 0.000000 0.000000
0.000000 0.000000 0.000000
0.000000 0.000000 0.000000
0.000000 0.000000 0.000000
0.000000 0.000000 0.000000
0.000000 0.000000 0.000000
0.000000 0.000000 0.000000
0.000000 0.000000 0.000000
0.000000 0.000000 0.000000
0.000000 0.000000 0.000000
0.000000 0.000000 0.000000
0.000000 0.000000 0.000000
0.000000 0.000000 0.000000
0.000000 0.000000 0.000000
0.000000 0.000000 0.000000
0.000000 0.000000 0.000000
0.000000 0.000000 0.000000
0.000000 0.000000 0.000000
0.000000 0.000000 0.000000
0.000000 0.000000 0.000000
0.000000 0.000000 0.000000
0.000000 0.000000 0.000000
0.000000 0.000000 0.000000
0.000000 0.000000 0.000000
0.000000 0.000000 0.000000
0.000000 0.000000 0.000000
0.000000 0.000000 0.000000
0.000000 0.000000 0.000000
0.000000 0.000000 0.000000
0.000000 0.000000 0.000000
0.000000 0.000000 0.000000
0.000000 0.000000 0.000000
0.000000 0.000000 0.000000
0.000000 0.000000 0.000000
0.000000 0.000000 0.000000
0.000000 0.000000 0.000000
0.000000 0.000000 0.000000
0.000000 0.000000 0.000000
0.000000 0.000000 0.000000
0.000000 0.000000 0.000000
0.000000 0.000000 0.000000
0.000000 0.000000 0.000000
0.000000 0.000000 0.000000
0.000000 0.000000 0.000000
0.000000 0.000000 0.000000
0.000000 0.000000 0.000000
0.000000 0.000000 0.000000
0.000000 0.000000 0.000000
0.000000 0.000000 0.000000
0.000000 0.000000 0.000000
0.000000 0.000000 0.000000
0.000000 0.000000 0.000000
0.000000 0.000000 0.000000
0.000000 0.000000 0.000000
0.000000 0.000000 0.000000
0.000000 0.000000 0.000000
0.000000 0.000000 0.000000
0.000000 0.000000 0.000000
0.000000 0.000000 0.000000
0.000000 0.000000 0.000000
0.000000 0.000000 0.000000
0.000000 0.000000 0.000000
0.000000 0.000000 0.000000
0.000000 0.000000 0.000000
0.000000 0.000000 0.000000
0.000000 0.000000 0.000000
0.000000 0.000000 0.000000
0.000000 0.000000 0.000000
0.000000 0.000000 0.000000
0.000000 0.000000 0.000000
0.000000 0.000000 0.000000
0.000000 0.000000 0.000000
0.000000 0.000000 0.000000
0.000000 0.000000 0.000000
0.000000 0.000000 0.000000
0.000000 0.000000 0.000000
0.000000 0.000000 0.000000
0.000000 0.000000 0.000000
0.000000 0.000000 0.000000
0.000000 0.000000 0.000000
0.000000 0.000000 0.000000
0.000000 0.000000 0.000000
0.000000 0.000000 0.000000
0.000000 0.000000 0.000000
0.000000 0.000000 0.000000
0.000000 0.000000 0.000000
0.000000 0.000000 0.000000
0.000000 0.000000 0.000000
0.000000 0.000000 0.000000
0.000000 0.000000 0.000000
0.000000 0.000000 0.000000
0.000000 0.000000 0.000000
0.000000 0.000000 0.000000
0.000000 0.000000 0.000000
0.000000 0.000000 0.000000
0.000000 0.000000 0.000000
0.000000 0.000000 0.000000
0.000000 0.000000 0.000000
0.000000 0.000000 0.000000
0.000000 0.000000 0.000000
0.000000 0.000000 0.000000
0.000000 0.000000 0.000000
0.000000 0.000000 0.000000
0.000000 0.000000 0.000000
0.000000 0.000000 0.000000
0.000000 0.000000 0.000000
0.000000 0.000000 0.000000
0.000000 0.000000 0.000000
0.000000 0.000000 0.000000
0.000000 0.000000 0.000000
0.000000 0.000000 0.000000
0.000000 0.000000 0.000000
0.000000 0.000000 0.000000
0.000000 0.000000 0.000000
0.000000 0.000000 0.000000
0.000000 0.000000 0.000000
0.000000 0.000000 0.000000
0.000000 0.000000 0.000000
0.000000 0.000000 0.000000
0.000000 0.000000 0.000000
0.000000 0.000000 0.000000
0.000000 0.000000 0.000000
0.000000 0.000000 0.000000
0.000000 0.000000 0.000000
0.000000 0.000000 0.000000
0.000000 0.000000 0.000000
0.000000 0.000000 0.000000
0.000000 0.000000 0.000000
0.000000 0.000000 0.000000
0.000000 0.000000 0.000000
0.000000 0.000000 0.000000
0.000000 0.000000 0.000000
0.000000 0.000000 0.000000
0.000000 0.000000 0.000000
0.000000 0.000000 0.000000
0.000000 0.000000 0.000000
0.000000 0.000000 0.000000
0.000000 0.000000 0.000000
0.000000 0.000000 0.000000
0.000000 0.000000 0.000000
0.000000 0.000000 -50.000000
-50.000000 0.000000 -50.000000
-43.327501 0.000000 -45.695062
-45.515947 0.000000 -43.295410
-50.000000 0.000000 -50.000000
-36.654606 0.000000 -36.591103
-50.000000 0.000000 -45.087809
-40.013639 0.000000 -40.034760
-44.185489 0.000000 -29.885649
-50.000000 0.000000 -50.000000
-29.982545 0.000000 -44.853447
-33.519199 0.000000 -33.140514
-44.709552 0.000000 -39.870920
-36.847280 0.000000 -35.129737
-39.857672 0.000000 -23.180044
-50.000000 0.000000 -26.529274
-44.700191 0.000000 -50.000000
-23.313929 0.000000 -44.669507
-26.905780 0.000000 -39.363407
-30.317127 0.000000 -29.602989
-39.418147 0.000000 -33.364489
-33.740505 0.000000 -50.000000
-16.647633 0.000000 -16.481381
-50.000000 0.000000 -9.791473
