# vtk DataFile Version 2.0
CellBP Time: 1.28
ASCII
DATASET UNSTRUCTURED_GRID
POINTS 320 double
-50.000000 -50.000000 0.000000
-50.000000 -43.355576 0.000000
-45.676440 -45.530687 0.000000
-43.272814 -50.000000 0.000000
-50.000000 -36.710150 0.000000
-36.548392 -50.000000 0.000000
-45.066796 -40.048195 0.000000
-39.993309 -44.204511 0.000000
-29.824053 -50.000000 0.000000
-50.000000 -30.063041 0.000000
-44.831496 -33.575168 0.000000
-33.075376 -44.726881 0.000000
-39.830174 -36.892530 0.000000
-35.070861 -39.891452 0.000000
-23.103241 -50.000000 0.000000
-26.443446 -44.718146 0.000000
-50.000000 -23.416154 0.000000
-44.646232 -26.981048 0.000000
-39.319899 -30.382433 0.000000
-29.525519 -39.453847 0.000000
-33.299647 -33.795047 0.000000
-50.000000 -16.767385 0.000000
-16.393077 -50.000000 0.000000
-9.695928 -50.000000 0.000000
-19.848092 -44.639077 0.000000
-23.107394 -39.212198 0.000000
-44.670530 -20.322730 0.000000
-39.318619 -23.735560 0.000000
-34.030147 -27.128666 0.000000
-26.285299 -33.722727 0.000000
-29.058643 -29.110340 0.000000
-50.000000 -10.117595 0.000000
-44.642034 -13.682733 0.000000
-50.000000 -3.468298 0.000000
-3.012245 -50.000000 0.000000
3.655415 -50.000000 0.000000
-13.209852 -44.646773 0.000000
-6.538490 -44.656764 0.000000
-16.560448 -39.247132 0.000000
-19.978621 -33.490694 0.000000
-39.283784 -17.062435 0.000000
-33.938078 -20.519540 0.000000
-28.673982 -23.681274 0.000000
-23.380859 -27.556859 0.000000
-44.604891 -7.023024 0.000000
-39.226517 -10.413224 0.000000
-50.000000 3.187579 0.000000
-44.588529 -0.373828 0.000000
10.306125 -50.000000 0.000000
16.941897 -50.000000 0.000000
0.136889 -44.661015 0.000000
6.804234 -44.671952 0.000000
-9.891580 -39.314810 0.000000
-3.203648 -39.309411 0.000000
-13.329767 -33.939521 0.000000
-16.549152 -28.470016 0.000000
-33.848976 -13.822056 0.000000
-28.476139 -17.186078 0.000000
-23.144503 -20.587329 0.000000
-18.497285 -23.531413 0.000000
-39.184486 -3.761289 0.000000
-33.776561 -7.180322 0.000000
-50.000000 9.880239 0.000000
-44.570547 6.281618 0.000000
-39.160995 2.898121 0.000000
-50.000000 16.644917 0.000000
23.566390 -50.000000 0.000000
30.182187 -50.000000 0.000000
13.462033 -44.693499 0.000000
20.118746 -44.725618 0.000000
3.475155 -39.325910 0.000000
10.133674 -39.360732 0.000000
-6.561234 -33.928429 0.000000
0.147715 -33.956621 0.000000
-9.908843 -28.483811 0.000000
-12.933449 -23.147400 0.000000
-28.368313 -10.584060 0.000000
-22.879721 -14.008472 0.000000
-16.779452 -17.516696 0.000000
-33.717522 -0.545534 0.000000
-28.347666 -4.035260 0.000000
-44.532632 12.976820 0.000000
-39.095889 9.528667 0.000000
-33.680556 5.988621 0.000000
-50.000000 23.518833 0.000000
-44.579938 19.777300 0.000000
-50.000000 30.493748 0.000000
36.790003 -50.000000 0.000000
43.395595 -50.000000 0.000000
26.770059 -44.765604 0.000000
33.395394 -44.890491 0.000000
16.779004 -39.417789 0.000000
23.452460 -39.487906 0.000000
6.820042 -33.992553 0.000000
13.455668 -34.061817 0.000000
-3.147323 -28.536902 0.000000
3.554446 -28.609610 0.000000
-6.412918 -23.074998 0.000000
-9.747617 -17.604910 0.000000
-22.940929 -7.442160 0.000000
-17.555828 -10.712522 0.000000
-12.583036 -12.931732 0.000000
-28.307471 2.523854 0.000000
-22.944289 -0.993729 0.000000
-38.958864 16.224217 0.000000
-28.275689 9.218807 0.000000
-33.467590 12.395948 0.000000
-44.726323 26.554865 0.000000
-38.676454 23.587796 0.000000
-44.971563 33.366599 0.000000
-50.000000 37.455868 0.000000
-50.000000 43.836998 0.000000
39.969762 -45.082893 0.000000
45.490336 -45.670374 0.000000
50.000000 -50.000000 0.000000
36.692180 -40.018288 0.000000
30.107707 -39.501948 0.000000
20.046994 -34.174076 0.000000
26.700308 -34.389785 0.000000
10.174773 -28.649791 0.000000
16.775642 -28.773462 0.000000
0.274816 -23.163511 0.000000
7.023130 -23.335474 0.000000
-3.153546 -17.563128 0.000000
-6.582585 -11.387051 0.000000
-17.544980 -4.287149 0.000000
-12.225308 -7.434192 0.000000
-22.874710 5.440951 0.000000
-17.622188 1.916713 0.000000
-22.539012 11.378688 0.000000
-33.259549 18.429064 0.000000
-27.322552 16.033314 0.000000
-32.977790 23.770584 0.000000
-40.271837 30.487855 0.000000
-35.352571 28.903191 0.000000
-39.885488 35.468117 0.000000
-43.897700 40.149344 0.000000
-45.259259 45.757354 0.000000
-50.000000 50.000000 0.000000
44.141164 -39.929414 0.000000
50.000000 -43.394240 0.000000
39.687244 -35.100675 0.000000
33.545436 -33.489794 0.000000
23.123102 -28.919109 0.000000
28.842275 -29.335671 0.000000
13.648830 -23.270687 0.000000
20.216912 -23.568294 0.000000
3.635500 -17.806467 0.000000
10.343849 -18.018038 0.000000
0.417865 -12.310290 0.000000
-1.833319 -6.601960 0.000000
-7.054206 -4.103720 0.000000
-12.236459 -1.248060 0.000000
-17.627352 7.946745 0.000000
-12.500808 4.727625 0.000000
-17.901983 13.058947 0.000000
-20.663905 16.728374 0.000000
-27.951539 22.440997 0.000000
-23.259199 20.921742 0.000000
-29.666566 28.593061 0.000000
-34.099811 34.045102 0.000000
-36.822442 39.918514 0.000000
-39.599874 45.256370 0.000000
-43.375167 50.000000 0.000000
44.607476 -33.032118 0.000000
50.000000 -36.777660 0.000000
39.186419 -29.654822 0.000000
33.592028 -26.459211 0.000000
27.311358 -23.436925 0.000000
23.221020 -18.786191 0.000000
17.177523 -17.136436 0.000000
6.961319 -12.427951 0.000000
12.571318 -12.913900 0.000000
-3.012485 -1.828203 0.000000
4.231536 -7.294167 0.000000
1.367705 -2.390577 0.000000
-6.614707 1.951554 0.000000
-7.965292 7.440237 0.000000
-12.231059 11.463983 0.000000
-14.966404 17.234773 0.000000
-18.385448 22.647650 0.000000
-23.493152 27.142142 0.000000
-26.875783 33.560005 0.000000
-29.984292 39.285167 0.000000
-33.067901 44.823368 0.000000
-36.588828 50.000000 0.000000
44.575210 -26.579998 0.000000
50.000000 -30.160201 0.000000
39.102785 -23.274619 0.000000
33.550707 -20.009993 0.000000
28.176558 -16.708382 0.000000
22.857506 -13.278141 0.000000
17.389138 -10.089017 0.000000
11.208110 -6.856501 0.000000
-0.981961 2.011766 0.000000
6.560781 -1.966813 0.000000
3.274791 1.347488 0.000000
-3.121199 6.890546 0.000000
-5.790010 12.103689 0.000000
-9.012951 17.356353 0.000000
-12.468425 22.815865 0.000000
-16.700200 27.972006 0.000000
-20.097386 33.311050 0.000000
-23.232563 38.960818 0.000000
-26.382537 44.595742 0.000000
-29.820805 50.000000 0.000000
44.560186 -20.026402 0.000000
50.000000 -23.534995 0.000000
39.107737 -16.705071 0.000000
33.689685 -13.407214 0.000000
28.305073 -10.114516 0.000000
22.922978 -6.773259 0.000000
17.508000 -3.528635 0.000000
12.347960 -0.015632 0.000000
2.333831 6.018945 0.000000
7.437497 3.630868 0.000000
0.255828 11.703739 0.000000
-2.750591 17.249334 0.000000
-6.144197 22.744278 0.000000
-10.034703 28.075091 0.000000
-13.252787 33.504376 0.000000
-16.521706 38.965667 0.000000
-19.715239 44.486165 0.000000
-23.101711 50.000000 0.000000
44.573058 -13.409325 0.000000
50.000000 -16.899223 0.000000
39.160003 -10.086206 0.000000
33.770178 -6.775040 0.000000
28.405237 -3.459814 0.000000
23.065763 -0.150703 0.000000
17.817091 3.181615 0.000000
12.569398 6.398762 0.000000
7.134933 10.632612 0.000000
3.737722 16.968669 0.000000
0.378408 22.653950 0.000000
-3.063171 28.156257 0.000000
-6.404763 33.649816 0.000000
-9.744051 39.080950 0.000000
-13.045912 44.515258 0.000000
-16.459050 50.000000 0.000000
44.596149 -6.764271 0.000000
50.000000 -10.250008 0.000000
39.209905 -3.443260 0.000000
33.846484 -0.124380 0.000000
28.516620 3.198500 0.000000
23.241830 6.539684 0.000000
18.126443 9.865251 0.000000
12.995234 12.041961 0.000000
10.152516 17.059249 0.000000
6.857113 22.566195 0.000000
3.573436 28.140782 0.000000
0.260599 33.637164 0.000000
-3.067616 39.099322 0.000000
-6.369911 44.545416 0.000000
-9.811596 50.000000 0.000000
44.621169 -0.106203 0.000000
50.000000 -3.586531 0.000000
39.258695 3.214609 0.000000
33.919942 6.531867 0.000000
28.616685 9.865808 0.000000
23.289225 13.283697 0.000000
17.239777 16.885255 0.000000
13.216419 22.544920 0.000000
10.136690 28.128168 0.000000
6.927006 33.639445 0.000000
3.604194 39.110558 0.000000
0.290582 44.557670 0.000000
-3.159327 50.000000 0.000000
44.634935 6.564248 0.000000
50.000000 3.090636 0.000000
39.292588 9.875961 0.000000
33.985503 13.170154 0.000000
28.729655 16.476659 0.000000
23.612671 19.977678 0.000000
18.794203 23.008200 0.000000
16.658517 28.211814 0.000000
13.600685 33.689063 0.000000
10.261851 39.138699 0.000000
6.950273 44.564491 0.000000
3.493490 50.000000 0.000000
44.657970 13.227662 0.000000
50.000000 9.780056 0.000000
39.344316 16.522205 0.000000
34.067728 19.776052 0.000000
28.787773 22.840586 0.000000
23.491476 27.129208 0.000000
20.126594 33.245062 0.000000
16.808017 39.002478 0.000000
13.515864 44.509171 0.000000
10.145318 50.000000 0.000000
44.680101 19.896365 0.000000
50.000000 16.478265 0.000000
39.387501 23.188938 0.000000
34.171821 26.448521 0.000000
29.132034 28.473333 0.000000
26.381982 33.356671 0.000000
23.258902 38.933888 0.000000
20.095468 44.491357 0.000000
16.792385 50.000000 0.000000
44.686401 26.581776 0.000000
50.000000 23.181060 0.000000
39.379172 29.911897 0.000000
33.341674 33.325794 0.000000
29.561227 39.014207 0.000000
26.586722 44.491996 0.000000
23.436406 50.000000 0.000000
44.818793 33.247258 0.000000
50.000000 29.885805 0.000000
39.816077 36.561247 0.000000
34.942152 39.499983 0.000000
32.954694 44.501518 0.000000
30.078763 50.000000 0.000000
45.018401 39.852007 0.000000
50.000000 36.591310 0.000000
39.811997 43.955857 0.000000
36.719053 50.000000 0.000000
45.655673 45.400340 0.000000
50.000000 43.295940 0.000000
43.357882 50.000000 0.000000
50.000000 50.000000 0.000000
CELLS 578 2312
3 1 0 2
3 0 3 2
3 4 1 6
3 6 1 2
3 3 5 7
3 3 7 2
3 6 2 7
3 9 4 10
3 10 4 6
3 5 8 11
3 7 5 11
3 10 6 12
3 12 6 7
3 7 11 13
3 7 13 12
3 8 14 15
3 11 8 15
3 16 9 17
3 17 9 10
3 17 10 18
3 18 10 12
3 11 15 19
3 13 11 19
3 18 12 20
3 13 19 20
3 20 12 13
3 14 22 24
3 15 14 24
3 15 24 25
3 19 15 25
3 21 16 26
3 26 16 17
3 26 17 27
3 27 17 18
3 27 18 28
3 28 18 20
3 19 25 29
3 19 29 20
3 28 20 30
3 30 20 29
3 31 21 32
3 32 21 26
3 22 23 36
3 24 22 36
3 23 34 37
3 36 23 37
3 24 36 38
3 25 24 38
3 25 38 39
3 29 25 39
3 32 26 40
3 40 26 27
3 40 27 41
3 41 27 28
3 41 28 42
3 42 28 30
3 29 39 43
3 29 43 30
3 42 30 43
3 33 31 44
3 44 31 32
3 44 32 45
3 45 32 40
3 46 33 47
3 47 33 44
3 34 35 50
3 37 34 50
3 35 48 51
3 50 35 51
3 36 37 52
3 38 36 52
3 37 50 53
3 52 37 53
3 38 52 54
3 39 38 54
3 39 54 55
3 43 39 55
3 45 40 56
3 56 40 41
3 56 41 57
3 57 41 42
3 57 42 58
3 58 42 43
3 43 55 59
3 43 59 58
3 47 44 60
3 60 44 45
3 60 45 61
3 61 45 56
3 62 46 63
3 63 46 47
3 63 47 64
3 64 47 60
3 48 49 68
3 51 48 68
3 49 66 69
3 68 49 69
3 50 51 70
3 53 50 70
3 51 68 71
3 70 51 71
3 52 53 72
3 54 52 72
3 53 70 73
3 72 53 73
3 54 72 74
3 55 54 74
3 55 74 75
3 59 55 75
3 61 56 76
3 76 56 57
3 76 57 77
3 77 57 58
3 77 58 78
3 59 75 78
3 78 58 59
3 64 60 79
3 79 60 61
3 79 61 80
3 80 61 76
3 65 62 81
3 81 62 63
3 81 63 82
3 82 63 64
3 82 64 83
3 83 64 79
3 84 65 85
3 85 65 81
3 66 67 89
3 69 66 89
3 67 87 90
3 89 67 90
3 68 69 91
3 71 68 91
3 69 89 92
3 91 69 92
3 70 71 93
3 73 70 93
3 71 91 94
3 93 71 94
3 72 73 95
3 74 72 95
3 73 93 96
3 95 73 96
3 74 95 97
3 75 74 97
3 75 97 98
3 78 75 98
3 80 76 99
3 99 76 77
3 99 77 100
3 100 77 78
3 100 78 101
3 98 101 78
3 83 79 102
3 102 79 80
3 102 80 103
3 103 80 99
3 85 81 104
3 104 81 82
3 105 83 102
3 104 82 106
3 106 82 83
3 106 83 105
3 86 84 107
3 107 84 85
3 107 85 108
3 108 85 104
3 109 86 107
3 110 86 109
3 87 88 112
3 90 87 112
3 112 88 113
3 88 114 113
3 90 112 115
3 89 90 116
3 92 89 116
3 116 90 115
3 91 92 117
3 94 91 117
3 92 116 118
3 117 92 118
3 93 94 119
3 96 93 119
3 94 117 120
3 119 94 120
3 95 96 121
3 97 95 121
3 96 119 122
3 121 96 122
3 97 121 123
3 98 97 123
3 98 123 124
3 98 124 101
3 103 99 125
3 125 99 100
3 125 100 126
3 126 100 101
3 126 101 124
3 105 102 127
3 127 102 103
3 127 103 128
3 128 103 125
3 129 105 127
3 108 104 130
3 130 104 106
3 130 106 131
3 131 106 105
3 131 105 129
3 108 130 132
3 109 107 133
3 133 107 108
3 133 108 134
3 108 132 134
3 135 109 133
3 111 110 136
3 136 110 109
3 136 109 135
3 137 111 136
3 138 111 137
3 112 113 139
3 115 112 139
3 114 140 113
3 140 139 113
3 139 141 115
3 116 115 142
3 118 116 142
3 142 115 141
3 117 118 143
3 120 117 143
3 118 142 144
3 143 118 144
3 119 120 145
3 122 119 145
3 120 143 146
3 145 120 146
3 121 122 147
3 123 121 147
3 122 145 148
3 147 122 148
3 123 147 149
3 124 123 149
3 124 149 150
3 151 126 124
3 124 150 151
3 128 125 152
3 152 125 126
3 152 126 151
3 129 127 153
3 153 127 128
3 128 152 154
3 153 128 154
3 155 129 153
3 131 129 156
3 156 129 155
3 132 130 157
3 130 131 157
3 157 131 158
3 131 156 158
3 132 157 159
3 132 159 134
3 135 133 160
3 160 133 134
3 160 134 159
3 136 135 161
3 135 160 161
3 162 137 136
3 161 162 136
3 163 138 137
3 162 163 137
3 139 164 141
3 140 165 139
3 139 165 164
3 141 164 166
3 141 166 142
3 166 167 142
3 144 142 167
3 167 168 144
3 143 144 168
3 146 143 168
3 168 169 146
3 145 146 170
3 148 145 170
3 170 146 169
3 147 148 171
3 149 147 171
3 148 170 172
3 171 148 172
3 173 151 150
3 149 171 174
3 150 149 174
3 150 174 175
3 150 175 173
3 154 152 176
3 152 151 176
3 176 151 173
3 154 176 177
3 155 153 178
3 177 178 154
3 154 178 153
3 156 155 179
3 155 178 179
3 180 158 156
3 179 180 156
3 181 159 157
3 180 181 158
3 181 157 158
3 182 160 159
3 181 182 159
3 183 161 160
3 182 183 160
3 184 162 161
3 184 161 183
3 185 163 162
3 184 185 162
3 164 186 166
3 165 187 164
3 164 187 186
3 166 186 188
3 166 188 167
3 167 188 189
3 167 189 168
3 168 189 190
3 168 190 169
3 169 190 191
3 169 191 170
3 192 172 170
3 170 191 192
3 192 193 172
3 171 172 193
3 174 171 193
3 194 173 175
3 176 173 194
3 175 174 195
3 193 195 174
3 195 196 175
3 175 196 194
3 197 177 176
3 194 197 176
3 198 178 177
3 197 198 177
3 199 179 178
3 198 199 178
3 200 180 179
3 199 200 179
3 201 181 180
3 200 201 180
3 202 182 181
3 201 202 181
3 203 183 182
3 202 203 182
3 204 184 183
3 203 204 183
3 205 185 184
3 204 205 184
3 186 206 188
3 187 207 186
3 186 207 206
3 188 206 208
3 188 208 189
3 189 208 209
3 189 209 190
3 190 209 210
3 190 210 191
3 191 210 211
3 191 211 192
3 192 211 212
3 192 212 193
3 193 212 213
3 193 213 195
3 214 197 194
3 214 194 196
3 195 213 215
3 195 215 196
3 196 215 214
3 216 198 197
3 214 216 197
3 217 199 198
3 216 217 198
3 218 200 199
3 217 218 199
3 219 201 200
3 218 219 200
3 220 202 201
3 219 220 201
3 221 203 202
3 220 221 202
3 222 204 203
3 221 222 203
3 223 205 204
3 222 223 204
3 206 224 208
3 207 225 206
3 206 225 224
3 208 224 226
3 208 226 209
3 209 226 227
3 209 227 210
3 210 227 228
3 210 228 211
3 211 228 229
3 211 229 212
3 212 229 230
3 212 230 213
3 213 230 231
3 213 231 215
3 232 216 214
3 215 231 232
3 232 214 215
3 233 217 216
3 232 233 216
3 234 218 217
3 233 234 217
3 235 219 218
3 234 235 218
3 236 220 219
3 235 236 219
3 237 221 220
3 236 237 220
3 238 222 221
3 237 238 221
3 239 223 222
3 238 239 222
3 224 240 226
3 225 241 224
3 224 241 240
3 226 240 242
3 226 242 227
3 227 242 243
3 227 243 228
3 228 243 244
3 228 244 229
3 244 245 229
3 229 245 230
3 230 245 246
3 230 246 231
3 231 246 247
3 231 247 232
3 248 233 232
3 248 232 247
3 249 234 233
3 248 249 233
3 250 235 234
3 249 250 234
3 251 236 235
3 250 251 235
3 252 237 236
3 251 252 236
3 253 238 237
3 252 253 237
3 254 239 238
3 253 254 238
3 240 255 242
3 241 256 240
3 240 256 255
3 242 255 257
3 242 257 243
3 243 257 258
3 243 258 244
3 244 258 259
3 244 259 245
3 245 259 260
3 245 260 246
3 246 260 261
3 246 261 247
3 248 247 261
3 262 249 248
3 261 262 248
3 263 250 249
3 262 263 249
3 264 251 250
3 263 264 250
3 265 252 251
3 264 265 251
3 266 253 252
3 265 266 252
3 267 254 253
3 266 267 253
3 255 268 257
3 256 269 255
3 255 269 268
3 257 268 270
3 257 270 258
3 258 270 271
3 258 271 259
3 259 271 272
3 259 272 260
3 260 272 273
3 260 273 261
3 274 262 261
3 261 273 274
3 275 263 262
3 274 275 262
3 276 264 263
3 275 276 263
3 277 265 264
3 276 277 264
3 278 266 265
3 277 278 265
3 279 267 266
3 278 279 266
3 268 280 270
3 269 281 268
3 268 281 280
3 270 280 282
3 270 282 271
3 271 282 283
3 271 283 272
3 283 284 272
3 272 284 273
3 285 275 274
3 273 284 285
3 285 274 273
3 286 276 275
3 285 286 275
3 287 277 276
3 286 287 276
3 288 278 277
3 287 288 277
3 289 279 278
3 288 289 278
3 280 290 282
3 281 291 280
3 280 291 290
3 282 290 292
3 282 292 283
3 283 292 293
3 283 293 284
3 284 293 294
3 284 294 285
3 295 286 285
3 295 285 294
3 296 287 286
3 295 296 286
3 297 288 287
3 296 297 287
3 298 289 288
3 297 298 288
3 290 299 292
3 291 300 290
3 290 300 299
3 292 299 301
3 292 301 293
3 293 301 302
3 293 302 294
3 294 302 295
3 303 296 295
3 303 295 302
3 304 297 296
3 303 304 296
3 305 298 297
3 304 305 297
3 299 306 301
3 300 307 299
3 299 307 306
3 301 306 308
3 301 308 302
3 309 303 302
3 302 308 309
3 310 304 303
3 309 310 303
3 311 305 304
3 310 311 304
3 306 312 308
3 307 313 306
3 306 313 312
3 314 310 309
3 308 312 314
3 314 309 308
3 315 311 310
3 314 315 310
3 312 316 314
3 313 317 312
3 312 317 316
3 318 315 314
3 318 314 316
3 317 319 316
3 319 318 316
CELL_TYPES 578
5
5
5
5
5
5
5
5
5
5
5
5
5
5
5
5
5
5
5
5
5
5
5
5
5
5
5
5
5
5
5
5
5
5
5
5
5
5
5
5
5
5
5
5
5
5
5
5
5
5
5
5
5
5
5
5
5
5
5
5
5
5
5
5
5
5
5
5
5
5
5
5
5
5
5
5
5
5
5
5
5
5
5
5
5
5
5
5
5
5
5
5
5
5
5
5
5
5
5
5
5
5
5
5
5
5
5
5
5
5
5
5
5
5
5
5
5
5
5
5
5
5
5
5
5
5
5
5
5
5
5
5
5
5
5
5
5
5
5
5
5
5
5
5
5
5
5
5
5
5
5
5
5
5
5
5
5
5
5
5
5
5
5
5
5
5
5
5
5
5
5
5
5
5
5
5
5
5
5
5
5
5
5
5
5
5
5
5
5
5
5
5
5
5
5
5
5
5
5
5
5
5
5
5
5
5
5
5
5
5
5
5
5
5
5
5
5
5
5
5
5
5
5
5
5
5
5
5
5
5
5
5
5
5
5
5
5
5
5
5
5
5
5
5
5
5
5
5
5
5
5
5
5
5
5
5
5
5
5
5
5
5
5
5
5
5
5
5
5
5
5
5
5
5
5
5
5
5
5
5
5
5
5
5
5
5
5
5
5
5
5
5
5
5
5
5
5
5
5
5
5
5
5
5
5
5
5
5
5
5
5
5
5
5
5
5
5
5
5
5
5
5
5
5
5
5
5
5
5
5
5
5
5
5
5
5
5
5
5
5
5
5
5
5
5
5
5
5
5
5
5
5
5
5
5
5
5
5
5
5
5
5
5
5
5
5
5
5
5
5
5
5
5
5
5
5
5
5
5
5
5
5
5
5
5
5
5
5
5
5
5
5
5
5
5
5
5
5
5
5
5
5
5
5
5
5
5
5
5
5
5
5
5
5
5
5
5
5
5
5
5
5
5
5
5
5
5
5
5
5
5
5
5
5
5
5
5
5
5
5
5
5
5
5
5
5
5
5
5
5
5
5
5
5
5
5
5
5
5
5
5
5
5
5
5
5
5
5
5
5
5
5
5
5
5
5
5
5
5
5
5
5
5
5
5
5
5
5
5
5
5
5
5
5
5
5
5
5
5
5
5
5
5
5
5
5
5
5
5
5
5
5
5
5
5
5
5
5
5
5
5
5
5
5
5
5
5
5
5
5
5
5
5
5
5
5
5
5
5
5
5
5
5
5
5
5
5
5
5
5
5
5
5
5
5
5
5
5
5
5
5
5
5
5
5
5
5
5
5
5
5
5
5
5
5
5
5
5
POINT_DATA 320
SCALARS theta_e float 1
LOOKUP_TABLE default
0.995482
0.995474
0.995436
0.995365
0.995441
0.995095
0.995394
0.995236
0.994651
0.995416
0.995367
0.994869
0.995215
0.995010
0.994111
0.994385
0.995401
0.995349
0.995187
0.994623
0.994893
0.995393
0.993510
0.992889
0.993822
0.994125
0.995342
0.995190
0.994949
0.994409
0.994634
0.995388
0.995342
0.995379
0.992291
0.991750
0.993215
0.992605
0.993563
0.993894
0.995194
0.994949
0.994616
0.994200
0.995342
0.995203
0.995364
0.995338
0.991286
0.990906
0.992037
0.991536
0.992963
0.992387
0.993324
0.993654
0.994965
0.994647
0.994270
0.993905
0.995210
0.994983
0.995347
0.995327
0.995216
0.995334
0.990611
0.990395
0.991114
0.990777
0.991862
0.991406
0.992765
0.992237
0.993135
0.993482
0.994682
0.994319
0.993880
0.995002
0.994717
0.995318
0.995224
0.995028
0.995326
0.995318
0.995297
0.990242
0.990149
0.990522
0.990342
0.991023
0.990722
0.991766
0.991357
0.992631
0.992164
0.993014
0.993383
0.994401
0.994050
0.993690
0.994753
0.994459
0.995245
0.994804
0.995064
0.995313
0.995273
0.995277
0.995247
0.995208
0.990222
0.990150
0.990112
0.990355
0.990503
0.991011
0.990743
0.991743
0.991383
0.992560
0.992147
0.992942
0.993344
0.994155
0.993820
0.994525
0.994259
0.994602
0.995127
0.994873
0.995191
0.995288
0.995255
0.995266
0.995241
0.995205
0.995183
0.990268
0.990174
0.990417
0.990578
0.991077
0.990848
0.991791
0.991475
0.992506
0.992180
0.992838
0.993220
0.993597
0.994000
0.994353
0.994168
0.994440
0.994653
0.995034
0.994846
0.995160
0.995247
0.995256
0.995235
0.995205
0.990450
0.990318
0.990632
0.990858
0.991193
0.991591
0.991916
0.992480
0.992276
0.993460
0.992829
0.993120
0.993867
0.994172
0.994273
0.994479
0.994721
0.994983
0.995162
0.995240
0.995251
0.995235
0.990709
0.990544
0.990918
0.991194
0.991543
0.991925
0.992248
0.992567
0.993413
0.992902
0.993144
0.993872
0.994165
0.994316
0.994561
0.994829
0.995046
0.995187
0.995240
0.995245
0.991031
0.990838
0.991270
0.991576
0.991929
0.992273
0.992567
0.992848
0.993531
0.993240
0.993882
0.994169
0.994417
0.994686
0.994932
0.995113
0.995206
0.995231
0.991407
0.991193
0.991670
0.991987
0.992324
0.992638
0.992931
0.993209
0.993605
0.993987
0.994282
0.994564
0.994824
0.995034
0.995157
0.995199
0.991821
0.991593
0.992097
0.992409
0.992722
0.993014
0.993307
0.993549
0.993849
0.994161
0.994461
0.994732
0.994956
0.995099
0.995154
0.992264
0.992026
0.992542
0.992839
0.993129
0.993414
0.993697
0.994060
0.994373
0.994654
0.994884
0.995037
0.995102
0.992722
0.992479
0.992995
0.993273
0.993536
0.993789
0.994007
0.994303
0.994585
0.994814
0.994970
0.995041
0.993181
0.992941
0.993443
0.993699
0.993930
0.994194
0.994514
0.994746
0.994901
0.994975
0.993623
0.993394
0.993861
0.994080
0.994243
0.994476
0.994687
0.994833
0.994908
0.994026
0.993823
0.994232
0.994419
0.994638
0.994778
0.994846
0.994363
0.994200
0.994510
0.994622
0.994745
0.994804
0.994612
0.994506
0.994709
0.994779
0.994756
0.994706
0.994787
0.994798
VECTORS fa_u float
0.000000 0.000000 0.000000
0.000000 0.000000 0.000000
0.000000 0.000000 0.000000
0.000000 0.000000 0.000000
0.000000 0.000000 0.000000
0.000000 0.000000 0.000000
0.000000 0.000000 0.000000
0.000000 0.000000 0.000000
0.000000 0.000000 0.000000
0.000000 0.000000 0.000000
0.000000 0.000000 0.000000
0.000000 0.000000 0.000000
0.000000 0.000000 0.000000
0.000000 0.000000 0.000000
0.000000 0.000000 0.000000
0.000000 0.000000 0.000000
0.000000 0.000000 0.000000
0.000000 0.000000 0.000000
0.000000 0.000000 0.000000
0.000000 0.000000 0.000000
0.000000 0.000000 0.000000
0.000000 0.000000 0.000000
0.000000 0.000000 0.000000
0.000000 0.000000 0.000000
0.000000 0.000000 0.000000
0.000000 0.000000 0.000000
0.000000 0.000000 0.000000
0.000000 0.000000 0.000000
0.000000 0.000000 0.000000
0.000000 0.000000 0.000000
0.000000 0.000000 0.000000
0.000000 0.000000 0.000000
0.000000 0.000000 0.000000
0.000000 0.000000 0.000000
0.000000 0.000000 0.000000
0.000000 0.000000 0.000000
0.000000 0.000000 0.000000
0.000000 0.000000 0.000000
0.000000 0.000000 0.000000
0.000000 0.000000 0.000000
0.000000 0.000000 0.000000
0.000000 0.000000 0.000000
0.000000 0.000000 0.000000
0.000000 0.000000 0.000000
0.000000 0.000000 0.000000
0.000000 0.000000 0.000000
0.000000 0.000000 0.000000
0.000000 0.000000 0.000000
0.000000 0.000000 0.000000
0.000000 0.000000 0.000000
0.000000 0.000000 0.000000
0.000000 0.000000 0.000000
0.000000 0.000000 0.000000
0.000000 0.000000 0.000000
0.000000 0.000000 0.000000
0.000000 0.000000 0.000000
0.000000 0.000000 0.000000
0.000000 0.000000 0.000000
0.000000 0.000000 0.000000
0.000000 0.000000 0.000000
0.000000 0.000000 0.000000
0.000000 0.000000 0.000000
0.000000 0.000000 0.000000
0.000000 0.000000 0.000000
0.000000 0.000000 0.000000
0.000000 0.000000 0.000000
0.000000 0.000000 0.000000
0.000000 0.000000 0.000000
0.000000 0.000000 0.000000
0.000000 0.000000 0.000000
0.000000 0.000000 0.000000
0.000000 0.000000 0.000000
0.000000 0.000000 0.000000
0.000000 0.000000 0.000000
0.000000 0.000000 0.000000
0.000000 0.000000 0.000000
0.000000 0.000000 0.000000
0.000000 0.000000 0.000000
0.000000 0.000000 0.000000
0.000000 0.000000 0.000000
0.000000 0.000000 0.000000
0.000000 0.000000 0.000000
0.000000 0.000000 0.000000
0.000000 0.000000 0.000000
0.000000 0.000000 0.000000
0.000000 0.000000 0.000000
0.000000 0.000000 0.000000
0.000000 0.000000 0.000000
0.000000 0.000000 0.000000
0.000000 0.000000 0.000000
0.000000 0.000000 0.000000
0.000000 0.000000 0.000000
0.000000 0.000000 0.000000
0.000000 0.000000 0.000000
0.000000 0.000000 0.000000
0.000000 0.000000 0.000000
0.000000 0.000000 0.000000
0.000000 0.000000 0.000000
0.000000 0.000000 0.000000
0.000000 0.000000 0.000000
0.000000 0.000000 0.000000
0.000000 0.000000 0.000000
0.000000 0.000000 0.000000
0.000000 0.000000 0.000000
0.000000 0.000000 0.000000
0.000000 0.000000 0.000000
0.000000 0.000000 0.000000
0.000000 0.000000 0.000000
0.000000 0.000000 0.000000
0.000000 0.000000 0.000000
0.000000 0.000000 0.000000
0.000000 0.000000 0.000000
0.000000 0.000000 0.000000
0.000000 0.000000 0.000000
0.000000 0.000000 0.000000
0.000000 0.000000 0.000000
0.000000 0.000000 0.000000
0.000000 0.000000 0.000000
0.000000 0.000000 0.000000
0.000000 0.000000 0.000000
0.000000 0.000000 0.000000
0.000000 0.000000 0.000000
0.000000 0.000000 0.000000
0.000000 0.000000 0.000000
0.000000 0.000000 0.000000
0.000000 0.000000 0.000000
0.000000 0.000000 0.000000
0.000000 0.000000 0.000000
0.000000 0.000000 0.000000
0.000000 0.000000 0.000000
0.000000 0.000000 0.000000
0.000000 0.000000 0.000000
0.000000 0.000000 0.000000
0.000000 0.000000 0.000000
0.000000 0.000000 0.000000
0.000000 0.000000 0.000000
0.000000 0.000000 0.000000
0.000000 0.000000 0.000000
0.000000 0.000000 0.000000
0.000000 0.000000 0.000000
0.000000 0.000000 0.000000
0.000000 0.000000 0.000000
0.000000 0.000000 0.000000
0.000000 0.000000 0.000000
0.000000 0.000000 0.000000
0.000000 0.000000 0.000000
0.000000 0.000000 0.000000
0.000000 0.000000 0.000000
0.000000 0.000000 0.000000
0.000000 0.000000 0.000000
0.000000 0.000000 0.000000
0.000000 0.000000 0.000000
0.000000 0.000000 0.000000
0.000000 0.000000 0.000000
0.000000 0.000000 0.000000
0.000000 0.000000 0.000000
0.000000 0.000000 0.000000
0.000000 0.000000 0.000000
0.000000 0.000000 0.000000
0.000000 0.000000 0.000000
0.000000 0.000000 0.000000
0.000000 0.000000 0.000000
0.000000 0.000000 0.000000
0.000000 0.000000 0.000000
0.000000 0.000000 0.000000
0.000000 0.000000 0.000000
0.000000 0.000000 0.000000
0.000000 0.000000 0.000000
0.000000 0.000000 0.000000
0.000000 0.000000 0.000000
0.000000 0.000000 0.000000
0.000000 0.000000 0.000000
0.000000 0.000000 0.000000
0.000000 0.000000 0.000000
0.000000 0.000000 0.000000
0.000000 0.000000 0.000000
0.000000 0.000000 0.000000
0.000000 0.000000 0.000000
0.000000 0.000000 0.000000
0.000000 0.000000 0.000000
0.000000 0.000000 0.000000
0.000000 0.000000 0.000000
0.000000 0.000000 0.000000
0.000000 0.000000 0.000000
0.000000 0.000000 0.000000
0.000000 0.000000 0.000000
0.000000 0.000000 0.000000
0.000000 0.000000 0.000000
0.000000 0.000000 0.000000
0.000000 0.000000 0.000000
0.000000 0.000000 0.000000
0.000000 0.000000 0.000000
0.000000 0.000000 0.000000
0.000000 0.000000 0.000000
0.000000 0.000000 0.000000
0.000000 0.000000 0.000000
0.000000 0.000000 0.000000
0.000000 0.000000 0.000000
0.000000 0.000000 0.000000
0.000000 0.000000 0.000000
0.000000 0.000000 0.000000
0.000000 0.000000 0.000000
0.000000 0.000000 0.000000
0.000000 0.000000 0.000000
0.000000 0.000000 0.000000
0.000000 0.000000 0.000000
0.000000 0.000000 0.000000
0.000000 0.000000 0.000000
0.000000 0.000000 0.000000
0.000000 0.000000 0.000000
0.000000 0.000000 0.000000
0.000000 0.000000 0.000000
0.000000 0.000000 0.000000
0.000000 0.000000 0.000000
0.000000 0.000000 0.000000
0.000000 0.000000 0.000000
0.000000 0.000000 0.000000
0.000000 0.000000 0.000000
0.000000 0.000000 0.000000
0.000000 0.000000 0.000000
0.000000 0.000000 0.000000
0.000000 0.000000 0.000000
0.000000 0.000000 0.000000
0.000000 0.000000 0.000000
0.000000 0.000000 0.000000
0.000000 0.000000 0.000000
0.000000 0.000000 0.000000
0.000000 0.000000 0.000000
0.000000 0.000000 0.000000
0.000000 0.000000 0.000000
0.000000 0.000000 0.000000
0.000000 0.000000 0.000000
0.000000 0.000000 0.000000
0.000000 0.000000 0.000000
0.000000 0.000000 0.000000
0.000000 0.000000 0.000000
0.000000 0.000000 0.000000
0.000000 0.000000 0.000000
0.000000 0.000000 0.000000
0.000000 0.000000 0.000000
0.000000 0.000000 0.000000
0.000000 0.000000 0.000000
0.000000 0.000000 0.000000
0.000000 0.000000 0.000000
0.000000 0.000000 0.000000
0.000000 0.000000 0.000000
0.000000 0.000000 0.000000
0.000000 0.000000 0.000000
0.000000 0.000000 0.000000
0.000000 0.000000 0.000000
0.000000 0.000000 0.000000
0.000000 0.000000 0.000000
0.000000 0.000000 0.000000
0.000000 0.000000 0.000000
0.000000 0.000000 0.000000
0.000000 0.000000 0.000000
0.000000 0.000000 0.000000
0.000000 0.000000 0.000000
0.000000 0.000000 0.000000
0.000000 0.000000 0.000000
0.000000 0.000000 0.000000
0.000000 0.000000 0.000000
0.000000 0.000000 0.000000
0.000000 0.000000 0.000000
0.000000 0.000000 0.000000
0.000000 0.000000 0.000000
0.000000 0.000000 0.000000
0.000000 0.000000 0.000000
0.000000 0.000000 0.000000
0.000000 0.000000 0.000000
0.000000 0.000000 0.000000
0.000000 0.000000 0.000000
0.000000 0.000000 0.000000
0.000000 0.000000 0.000000
0.000000 0.000000 0.000000
0.000000 0.000000 0.000000
0.000000 0.000000 0.000000
0.000000 0.000000 0.000000
0.000000 0.000000 0.000000
0.000000 0.000000 0.000000
0.000000 0.000000 0.000000
0.000000 0.000000 0.000000
0.000000 0.000000 0.000000
0.000000 0.000000 0.000000
0.000000 0.000000 0.000000
0.000000 0.000000 0.000000
0.000000 0.000000 0.000000
0.000000 0.000000 0.000000
0.000000 0.000000 0.000000
0.000000 0.000000 0.000000
0.000000 0.000000 0.000000
0.000000 0.000000 0.000000
0.000000 0.000000 0.000000
0.000000 0.000000 0.000000
0.000000 0.000000 0.000000
0.000000 0.000000 0.000000
0.000000 0.000000 -50.000000
-50.000000 0.000000 -50.000000
-43.355576 0.000000 -45.676440
-45.530687 0.000000 -43.272814
-50.000000 0.000000 -50.000000
-36.710150 0.000000 -36.548392
-50.000000 0.000000 -45.066796
-40.048195 0.000000 -39.993309
-44.204511 0.000000 -29.824053
-50.000000 0.000000 -50.000000
-30.063041 0.000000 -44.831496
-33.575168 0.000000 -33.075376
-44.726881 0.000000 -39.830174
-36.892530 0.000000 -35.070861
-39.891452 0.000000 -23.103241
-50.000000 0.000000 -26.443446
-44.718146 0.000000 -50.000000
-23.416154 0.000000 -44.646232
-26.981048 0.000000 -39.319899
-30.382433 0.000000 -29.525519
-39.453847 0.000000 -33.299647
-33.795047 0.000000 -50.000000
-16.767385 0.000000 -16.393077
-50.000000 0.000000 -9.695928
