# vtk DataFile Version 2.0
CellBP Time: 3.44
ASCII
DATASET UNSTRUCTURED_GRID
POINTS 320 double
-50.000000 -50.000000 0.000000
-50.000000 -43.345141 0.000000
-45.686402 -45.528670 0.000000
-43.281209 -50.000000 0.000000
-50.000000 -36.688771 0.000000
-36.562928 -50.000000 0.000000
-45.077897 -40.040649 0.000000
-40.015124 -44.201704 0.000000
-29.845736 -50.000000 0.000000
-50.000000 -30.031309 0.000000
-44.843368 -33.562020 0.000000
-33.108252 -44.723508 0.000000
-39.850867 -36.881538 0.000000
-35.101276 -39.884248 0.000000
-23.130646 -50.000000 0.000000
-26.487150 -44.713016 0.000000
-50.000000 -23.374391 0.000000
-44.659668 -26.962448 0.000000
-39.343165 -30.366149 0.000000
-29.565496 -39.444418 0.000000
-33.333236 -33.780514 0.000000
-50.000000 -16.716410 0.000000
-16.425342 -50.000000 0.000000
-9.731827 -50.000000 0.000000
-19.900936 -44.631716 0.000000
-23.156451 -39.199087 0.000000
-44.684833 -20.298271 0.000000
-39.344111 -23.712713 0.000000
-34.063871 -27.107399 0.000000
-26.331761 -33.705243 0.000000
-29.099953 -29.089049 0.000000
-50.000000 -10.059558 0.000000
-44.656394 -13.653500 0.000000
-50.000000 -3.406121 0.000000
-3.049423 -50.000000 0.000000
3.618860 -50.000000 0.000000
-13.269628 -44.637422 0.000000
-6.602271 -44.646637 0.000000
-16.617022 -39.230207 0.000000
-20.033252 -33.468226 0.000000
-39.309819 -17.033600 0.000000
-33.975015 -20.491681 0.000000
-28.718020 -23.654883 0.000000
-23.431596 -27.532490 0.000000
-44.619002 -6.990400 0.000000
-39.252004 -10.380398 0.000000
-50.000000 3.251191 0.000000
-44.602304 -0.339195 0.000000
10.271465 -50.000000 0.000000
16.910260 -50.000000 0.000000
0.072249 -44.650052 0.000000
6.741455 -44.660055 0.000000
-9.952528 -39.296355 0.000000
-3.266811 -39.289887 0.000000
-13.389147 -33.914302 0.000000
-16.606089 -28.442944 0.000000
-33.885555 -13.789858 0.000000
-28.521607 -17.154672 0.000000
-23.196347 -20.556742 0.000000
-18.554047 -23.502188 0.000000
-39.209970 -3.725475 0.000000
-33.813607 -7.144716 0.000000
-50.000000 9.943510 0.000000
-44.584533 6.316825 0.000000
-39.186679 2.935974 0.000000
-50.000000 16.707193 0.000000
23.539241 -50.000000 0.000000
30.160664 -50.000000 0.000000
13.403647 -44.680968 0.000000
20.067079 -44.713129 0.000000
3.412367 -39.304613 0.000000
10.073690 -39.338011 0.000000
-6.623415 -33.900725 0.000000
0.084031 -33.926660 0.000000
-9.969783 -28.450853 0.000000
-12.994944 -23.112545 0.000000
-28.414855 -10.548837 0.000000
-22.934060 -13.972557 0.000000
-16.840395 -17.478600 0.000000
-33.755907 -0.506499 0.000000
-28.396465 -3.995986 0.000000
-44.548028 13.011556 0.000000
-39.122975 9.566834 0.000000
-33.719184 6.029806 0.000000
-50.000000 23.574611 0.000000
-44.593196 19.810303 0.000000
-50.000000 30.537392 0.000000
36.774291 -50.000000 0.000000
43.387293 -50.000000 0.000000
26.727150 -44.753025 0.000000
33.363225 -44.877597 0.000000
16.724181 -39.394316 0.000000
23.404655 -39.464390 0.000000
6.757565 -33.960089 0.000000
13.396770 -34.027762 0.000000
-3.211481 -28.498945 0.000000
3.489390 -28.569030 0.000000
-6.478420 -23.032070 0.000000
-9.816418 -17.559617 0.000000
-22.997394 -7.402346 0.000000
-17.616909 -10.668322 0.000000
-12.649856 -12.884139 0.000000
-28.357179 2.566650 0.000000
-23.002984 -0.950318 0.000000
-38.987601 16.260622 0.000000
-28.325997 9.262998 0.000000
-33.505754 12.436168 0.000000
-44.736579 26.583965 0.000000
-38.704983 23.622694 0.000000
-44.984722 33.389469 0.000000
-50.000000 37.489594 0.000000
-50.000000 43.854884 0.000000
39.949274 -45.071523 0.000000
45.479574 -45.660260 0.000000
50.000000 -50.000000 0.000000
36.665694 -39.996505 0.000000
30.068960 -39.478721 0.000000
19.994009 -34.139339 0.000000
26.656157 -34.355716 0.000000
10.111566 -28.606479 0.000000
16.717076 -28.728881 0.000000
0.207624 -23.114892 0.000000
6.956060 -23.284336 0.000000
-3.225046 -17.510523 0.000000
-6.658037 -11.338510 0.000000
-17.609326 -4.240412 0.000000
-12.289768 -7.382971 0.000000
-22.936524 5.488774 0.000000
-17.693163 1.970169 0.000000
-22.604435 11.430552 0.000000
-33.300551 18.467974 0.000000
-27.375973 16.079156 0.000000
-33.020219 23.809873 0.000000
-40.292772 30.516983 0.000000
-35.389633 28.937889 0.000000
-39.907646 35.490462 0.000000
-43.910875 40.162750 0.000000
-45.267212 45.763151 0.000000
-50.000000 50.000000 0.000000
44.128092 -39.907510 0.000000
50.000000 -43.387693 0.000000
39.664986 -35.069796 0.000000
33.512087 -33.455547 0.000000
23.072155 -28.875520 0.000000
28.800270 -29.293233 0.000000
13.584755 -23.217760 0.000000
20.160280 -23.516542 0.000000
3.565210 -17.748043 0.000000
10.275321 -17.956428 0.000000
0.341426 -12.256984 0.000000
-1.912931 -6.557718 0.000000
-7.137043 -4.041638 0.000000
-12.316156 -1.193621 0.000000
-17.701373 8.006526 0.000000
-12.587010 4.790778 0.000000
-17.973826 13.116358 0.000000
-20.729510 16.782646 0.000000
-28.000247 22.486524 0.000000
-23.316652 20.974017 0.000000
-29.713949 28.632274 0.000000
-34.134456 34.072418 0.000000
-36.847050 39.935554 0.000000
-39.617552 45.263379 0.000000
-43.395006 50.000000 0.000000
44.594275 -32.998394 0.000000
50.000000 -36.762125 0.000000
39.163254 -29.614823 0.000000
33.557589 -26.414256 0.000000
27.265190 -23.386464 0.000000
23.165597 -18.729346 0.000000
17.112764 -17.074733 0.000000
6.888671 -12.363181 0.000000
12.499122 -12.844527 0.000000
-3.085909 -1.765565 0.000000
4.169810 -7.245009 0.000000
1.296034 -2.335703 0.000000
-6.724944 2.027028 0.000000
-8.060090 7.520177 0.000000
-12.311267 11.530220 0.000000
-15.036040 17.292103 0.000000
-18.446177 22.702131 0.000000
-23.547104 27.189151 0.000000
-26.920716 33.589930 0.000000
-30.020142 39.302015 0.000000
-33.095189 44.831835 0.000000
-36.626178 50.000000 0.000000
44.562631 -26.536661 0.000000
50.000000 -30.139298 0.000000
39.078679 -23.226667 0.000000
33.515708 -19.956739 0.000000
28.129984 -16.651982 0.000000
22.800450 -13.217012 0.000000
17.322202 -10.024639 0.000000
11.137487 -6.783192 0.000000
-1.093088 2.092757 0.000000
6.487967 -1.882071 0.000000
3.181610 1.424979 0.000000
-3.224780 6.985847 0.000000
-5.868483 12.176269 0.000000
-9.083330 17.418905 0.000000
-12.532781 22.870010 0.000000
-16.756941 28.015510 0.000000
-20.146969 33.341782 0.000000
-23.275712 38.979782 0.000000
-26.418720 44.604510 0.000000
-29.872961 50.000000 0.000000
44.547351 -19.975268 0.000000
50.000000 -23.509445 0.000000
39.084072 -16.650753 0.000000
33.655180 -13.350018 0.000000
28.259694 -10.056260 0.000000
22.867131 -6.712059 0.000000
17.443902 -3.464941 0.000000
12.283888 0.048250 0.000000
2.235497 6.110066 0.000000
7.365989 3.710295 0.000000
0.183491 11.777705 0.000000
-2.815645 17.308792 0.000000
-6.206419 22.796612 0.000000
-10.091661 28.116281 0.000000
-13.304965 33.532824 0.000000
-16.569626 38.984920 0.000000
-19.758041 44.495582 0.000000
-23.166399 50.000000 0.000000
44.560623 -13.352554 0.000000
50.000000 -16.870558 0.000000
39.136836 -10.028228 0.000000
33.735914 -6.716280 0.000000
28.360804 -3.401270 0.000000
23.013090 -0.091219 0.000000
17.758547 3.241674 0.000000
12.508738 6.453293 0.000000
7.074461 10.692166 0.000000
3.679741 17.020296 0.000000
0.321399 22.700784 0.000000
-3.117819 28.195882 0.000000
-6.457895 33.678945 0.000000
-9.795593 39.100892 0.000000
-13.093778 44.525692 0.000000
-16.532898 50.000000 0.000000
44.584183 -6.704537 0.000000
50.000000 -10.219476 0.000000
39.187299 -3.384349 0.000000
33.813613 -0.066386 0.000000
28.475458 3.255052 0.000000
23.193940 6.594475 0.000000
18.073676 9.919596 0.000000
12.938972 12.093804 0.000000
10.097225 17.108744 0.000000
6.802748 22.611764 0.000000
3.520359 28.180351 0.000000
0.208058 33.668832 0.000000
-3.120310 39.120687 0.000000
-6.420251 44.556702 0.000000
-9.890904 50.000000 0.000000
44.609747 -0.046243 0.000000
50.000000 -3.555539 0.000000
39.237264 3.272205 0.000000
33.889597 6.587431 0.000000
28.579164 9.918550 0.000000
23.245313 13.333550 0.000000
17.190595 16.934312 0.000000
13.166930 22.588625 0.000000
10.087115 28.165962 0.000000
6.877199 33.670122 0.000000
3.553467 39.131964 0.000000
0.240523 44.569062 0.000000
-3.240425 50.000000 0.000000
44.624186 6.621968 0.000000
50.000000 3.120677 0.000000
39.272431 9.930368 0.000000
33.956882 13.221847 0.000000
28.694265 16.525095 0.000000
23.571793 20.023216 0.000000
18.749622 23.050405 0.000000
16.613246 28.247816 0.000000
13.554755 33.719341 0.000000
10.214501 39.160918 0.000000
6.902754 44.576769 0.000000
3.413618 50.000000 0.000000
44.648082 13.280708 0.000000
50.000000 9.807791 0.000000
39.325323 16.571075 0.000000
34.040607 19.821867 0.000000
28.754006 22.883987 0.000000
23.451763 27.167993 0.000000
20.085706 33.276348 0.000000
16.765764 39.024592 0.000000
13.473276 44.521344 0.000000
10.070881 50.000000 0.000000
44.671149 19.942433 0.000000
50.000000 16.502382 0.000000
39.370016 23.229665 0.000000
34.147602 26.486028 0.000000
29.101742 28.508970 0.000000
26.349067 33.384191 0.000000
23.224205 38.953196 0.000000
20.059187 44.501968 0.000000
16.726168 50.000000 0.000000
44.678826 26.618977 0.000000
50.000000 23.200463 0.000000
39.363818 29.943195 0.000000
33.318814 33.353397 0.000000
29.534411 39.032048 0.000000
26.557377 44.501718 0.000000
23.380339 50.000000 0.000000
44.812457 33.274589 0.000000
50.000000 29.900241 0.000000
39.802625 36.583763 0.000000
34.922137 39.517448 0.000000
32.932837 44.509800 0.000000
30.035136 50.000000 0.000000
45.013282 39.869195 0.000000
50.000000 36.600637 0.000000
39.799826 43.965416 0.000000
36.688129 50.000000 0.000000
45.651308 45.408189 0.000000
50.000000 43.300327 0.000000
43.340984 50.000000 0.000000
50.000000 50.000000 0.000000
CELLS 578 2312
3 1 0 2
3 0 3 2
3 4 1 6
3 6 1 2
3 3 5 7
3 3 7 2
3 6 2 7
3 9 4 10
3 10 4 6
3 5 8 11
3 7 5 11
3 10 6 12
3 12 6 7
3 7 11 13
3 7 13 12
3 8 14 15
3 11 8 15
3 16 9 17
3 17 9 10
3 17 10 18
3 18 10 12
3 11 15 19
3 13 11 19
3 18 12 20
3 13 19 20
3 20 12 13
3 14 22 24
3 15 14 24
3 15 24 25
3 19 15 25
3 21 16 26
3 26 16 17
3 26 17 27
3 27 17 18
3 27 18 28
3 28 18 20
3 19 25 29
3 19 29 20
3 28 20 30
3 30 20 29
3 31 21 32
3 32 21 26
3 22 23 36
3 24 22 36
3 23 34 37
3 36 23 37
3 24 36 38
3 25 24 38
3 25 38 39
3 29 25 39
3 32 26 40
3 40 26 27
3 40 27 41
3 41 27 28
3 41 28 42
3 42 28 30
3 29 39 43
3 29 43 30
3 42 30 43
3 33 31 44
3 44 31 32
3 44 32 45
3 45 32 40
3 46 33 47
3 47 33 44
3 34 35 50
3 37 34 50
3 35 48 51
3 50 35 51
3 36 37 52
3 38 36 52
3 37 50 53
3 52 37 53
3 38 52 54
3 39 38 54
3 39 54 55
3 43 39 55
3 45 40 56
3 56 40 41
3 56 41 57
3 57 41 42
3 57 42 58
3 58 42 43
3 43 55 59
3 43 59 58
3 47 44 60
3 60 44 45
3 60 45 61
3 61 45 56
3 62 46 63
3 63 46 47
3 63 47 64
3 64 47 60
3 48 49 68
3 51 48 68
3 49 66 69
3 68 49 69
3 50 51 70
3 53 50 70
3 51 68 71
3 70 51 71
3 52 53 72
3 54 52 72
3 53 70 73
3 72 53 73
3 54 72 74
3 55 54 74
3 55 74 75
3 59 55 75
3 61 56 76
3 76 56 57
3 76 57 77
3 77 57 58
3 77 58 78
3 59 75 78
3 78 58 59
3 64 60 79
3 79 60 61
3 79 61 80
3 80 61 76
3 65 62 81
3 81 62 63
3 81 63 82
3 82 63 64
3 82 64 83
3 83 64 79
3 84 65 85
3 85 65 81
3 66 67 89
3 69 66 89
3 67 87 90
3 89 67 90
3 68 69 91
3 71 68 91
3 69 89 92
3 91 69 92
3 70 71 93
3 73 70 93
3 71 91 94
3 93 71 94
3 72 73 95
3 74 72 95
3 73 93 96
3 95 73 96
3 74 95 97
3 75 74 97
3 75 97 98
3 78 75 98
3 80 76 99
3 99 76 77
3 99 77 100
3 100 77 78
3 100 78 101
3 98 101 78
3 83 79 102
3 102 79 80
3 102 80 103
3 103 80 99
3 85 81 104
3 104 81 82
3 105 83 102
3 104 82 106
3 106 82 83
3 106 83 105
3 86 84 107
3 107 84 85
3 107 85 108
3 108 85 104
3 109 86 107
3 110 86 109
3 87 88 112
3 90 87 112
3 112 88 113
3 88 114 113
3 90 112 115
3 89 90 116
3 92 89 116
3 116 90 115
3 91 92 117
3 94 91 117
3 92 116 118
3 117 92 118
3 93 94 119
3 96 93 119
3 94 117 120
3 119 94 120
3 95 96 121
3 97 95 121
3 96 119 122
3 121 96 122
3 97 121 123
3 98 97 123
3 98 123 124
3 98 124 101
3 103 99 125
3 125 99 100
3 125 100 126
3 126 100 101
3 126 101 124
3 105 102 127
3 127 102 103
3 127 103 128
3 128 103 125
3 129 105 127
3 108 104 130
3 130 104 106
3 130 106 131
3 131 106 105
3 131 105 129
3 108 130 132
3 109 107 133
3 133 107 108
3 133 108 134
3 108 132 134
3 135 109 133
3 111 110 136
3 136 110 109
3 136 109 135
3 137 111 136
3 138 111 137
3 112 113 139
3 115 112 139
3 114 140 113
3 140 139 113
3 139 141 115
3 116 115 142
3 118 116 142
3 142 115 141
3 117 118 143
3 120 117 143
3 118 142 144
3 143 118 144
3 119 120 145
3 122 119 145
3 120 143 146
3 145 120 146
3 121 122 147
3 123 121 147
3 122 145 148
3 147 122 148
3 123 147 149
3 124 123 149
3 124 149 150
3 151 126 124
3 124 150 151
3 128 125 152
3 152 125 126
3 152 126 151
3 129 127 153
3 153 127 128
3 128 152 154
3 153 128 154
3 155 129 153
3 131 129 156
3 156 129 155
3 132 130 157
3 130 131 157
3 157 131 158
3 131 156 158
3 132 157 159
3 132 159 134
3 135 133 160
3 160 133 134
3 160 134 159
3 136 135 161
3 135 160 161
3 162 137 136
3 161 162 136
3 163 138 137
3 162 163 137
3 139 164 141
3 140 165 139
3 139 165 164
3 141 164 166
3 141 166 142
3 166 167 142
3 144 142 167
3 167 168 144
3 143 144 168
3 146 143 168
3 168 169 146
3 145 146 170
3 148 145 170
3 170 146 169
3 147 148 171
3 149 147 171
3 148 170 172
3 171 148 172
3 173 151 150
3 149 171 174
3 150 149 174
3 150 174 175
3 150 175 173
3 154 152 176
3 152 151 176
3 176 151 173
3 154 176 177
3 155 153 178
3 177 178 154
3 154 178 153
3 156 155 179
3 155 178 179
3 180 158 156
3 179 180 156
3 181 159 157
3 180 181 158
3 181 157 158
3 182 160 159
3 181 182 159
3 183 161 160
3 182 183 160
3 184 162 161
3 184 161 183
3 185 163 162
3 184 185 162
3 164 186 166
3 165 187 164
3 164 187 186
3 166 186 188
3 166 188 167
3 167 188 189
3 167 189 168
3 168 189 190
3 168 190 169
3 169 190 191
3 169 191 170
3 192 172 170
3 170 191 192
3 192 193 172
3 171 172 193
3 174 171 193
3 194 173 175
3 176 173 194
3 175 174 195
3 193 195 174
3 195 196 175
3 175 196 194
3 197 177 176
3 194 197 176
3 198 178 177
3 197 198 177
3 199 179 178
3 198 199 178
3 200 180 179
3 199 200 179
3 201 181 180
3 200 201 180
3 202 182 181
3 201 202 181
3 203 183 182
3 202 203 182
3 204 184 183
3 203 204 183
3 205 185 184
3 204 205 184
3 186 206 188
3 187 207 186
3 186 207 206
3 188 206 208
3 188 208 189
3 189 208 209
3 189 209 190
3 190 209 210
3 190 210 191
3 191 210 211
3 191 211 192
3 192 211 212
3 192 212 193
3 193 212 213
3 193 213 195
3 214 197 194
3 214 194 196
3 195 213 215
3 195 215 196
3 196 215 214
3 216 198 197
3 214 216 197
3 217 199 198
3 216 217 198
3 218 200 199
3 217 218 199
3 219 201 200
3 218 219 200
3 220 202 201
3 219 220 201
3 221 203 202
3 220 221 202
3 222 204 203
3 221 222 203
3 223 205 204
3 222 223 204
3 206 224 208
3 207 225 206
3 206 225 224
3 208 224 226
3 208 226 209
3 209 226 227
3 209 227 210
3 210 227 228
3 210 228 211
3 211 228 229
3 211 229 212
3 212 229 230
3 212 230 213
3 213 230 231
3 213 231 215
3 232 216 214
3 215 231 232
3 232 214 215
3 233 217 216
3 232 233 216
3 234 218 217
3 233 234 217
3 235 219 218
3 234 235 218
3 236 220 219
3 235 236 219
3 237 221 220
3 236 237 220
3 238 222 221
3 237 238 221
3 239 223 222
3 238 239 222
3 224 240 226
3 225 241 224
3 224 241 240
3 226 240 242
3 226 242 227
3 227 242 243
3 227 243 228
3 228 243 244
3 228 244 229
3 244 245 229
3 229 245 230
3 230 245 246
3 230 246 231
3 231 246 247
3 231 247 232
3 248 233 232
3 248 232 247
3 249 234 233
3 248 249 233
3 250 235 234
3 249 250 234
3 251 236 235
3 250 251 235
3 252 237 236
3 251 252 236
3 253 238 237
3 252 253 237
3 254 239 238
3 253 254 238
3 240 255 242
3 241 256 240
3 240 256 255
3 242 255 257
3 242 257 243
3 243 257 258
3 243 258 244
3 244 258 259
3 244 259 245
3 245 259 260
3 245 260 246
3 246 260 261
3 246 261 247
3 248 247 261
3 262 249 248
3 261 262 248
3 263 250 249
3 262 263 249
3 264 251 250
3 263 264 250
3 265 252 251
3 264 265 251
3 266 253 252
3 265 266 252
3 267 254 253
3 266 267 253
3 255 268 257
3 256 269 255
3 255 269 268
3 257 268 270
3 257 270 258
3 258 270 271
3 258 271 259
3 259 271 272
3 259 272 260
3 260 272 273
3 260 273 261
3 274 262 261
3 261 273 274
3 275 263 262
3 274 275 262
3 276 264 263
3 275 276 263
3 277 265 264
3 276 277 264
3 278 266 265
3 277 278 265
3 279 267 266
3 278 279 266
3 268 280 270
3 269 281 268
3 268 281 280
3 270 280 282
3 270 282 271
3 271 282 283
3 271 283 272
3 283 284 272
3 272 284 273
3 285 275 274
3 273 284 285
3 285 274 273
3 286 276 275
3 285 286 275
3 287 277 276
3 286 287 276
3 288 278 277
3 287 288 277
3 289 279 278
3 288 289 278
3 280 290 282
3 281 291 280
3 280 291 290
3 282 290 292
3 282 292 283
3 283 292 293
3 283 293 284
3 284 293 294
3 284 294 285
3 295 286 285
3 295 285 294
3 296 287 286
3 295 296 286
3 297 288 287
3 296 297 287
3 298 289 288
3 297 298 288
3 290 299 292
3 291 300 290
3 290 300 299
3 292 299 301
3 292 301 293
3 293 301 302
3 293 302 294
3 294 302 295
3 303 296 295
3 303 295 302
3 304 297 296
3 303 304 296
3 305 298 297
3 304 305 297
3 299 306 301
3 300 307 299
3 299 307 306
3 301 306 308
3 301 308 302
3 309 303 302
3 302 308 309
3 310 304 303
3 309 310 303
3 311 305 304
3 310 311 304
3 306 312 308
3 307 313 306
3 306 313 312
3 314 310 309
3 308 312 314
3 314 309 308
3 315 311 310
3 314 315 310
3 312 316 314
3 313 317 312
3 312 317 316
3 318 315 314
3 318 314 316
3 317 319 316
3 319 318 316
CELL_TYPES 578
5
5
5
5
5
5
5
5
5
5
5
5
5
5
5
5
5
5
5
5
5
5
5
5
5
5
5
5
5
5
5
5
5
5
5
5
5
5
5
5
5
5
5
5
5
5
5
5
5
5
5
5
5
5
5
5
5
5
5
5
5
5
5
5
5
5
5
5
5
5
5
5
5
5
5
5
5
5
5
5
5
5
5
5
5
5
5
5
5
5
5
5
5
5
5
5
5
5
5
5
5
5
5
5
5
5
5
5
5
5
5
5
5
5
5
5
5
5
5
5
5
5
5
5
5
5
5
5
5
5
5
5
5
5
5
5
5
5
5
5
5
5
5
5
5
5
5
5
5
5
5
5
5
5
5
5
5
5
5
5
5
5
5
5
5
5
5
5
5
5
5
5
5
5
5
5
5
5
5
5
5
5
5
5
5
5
5
5
5
5
5
5
5
5
5
5
5
5
5
5
5
5
5
5
5
5
5
5
5
5
5
5
5
5
5
5
5
5
5
5
5
5
5
5
5
5
5
5
5
5
5
5
5
5
5
5
5
5
5
5
5
5
5
5
5
5
5
5
5
5
5
5
5
5
5
5
5
5
5
5
5
5
5
5
5
5
5
5
5
5
5
5
5
5
5
5
5
5
5
5
5
5
5
5
5
5
5
5
5
5
5
5
5
5
5
5
5
5
5
5
5
5
5
5
5
5
5
5
5
5
5
5
5
5
5
5
5
5
5
5
5
5
5
5
5
5
5
5
5
5
5
5
5
5
5
5
5
5
5
5
5
5
5
5
5
5
5
5
5
5
5
5
5
5
5
5
5
5
5
5
5
5
5
5
5
5
5
5
5
5
5
5
5
5
5
5
5
5
5
5
5
5
5
5
5
5
5
5
5
5
5
5
5
5
5
5
5
5
5
5
5
5
5
5
5
5
5
5
5
5
5
5
5
5
5
5
5
5
5
5
5
5
5
5
5
5
5
5
5
5
5
5
5
5
5
5
5
5
5
5
5
5
5
5
5
5
5
5
5
5
5
5
5
5
5
5
5
5
5
5
5
5
5
5
5
5
5
5
5
5
5
5
5
5
5
5
5
5
5
5
5
5
5
5
5
5
5
5
5
5
5
5
5
5
5
5
5
5
5
5
5
5
5
5
5
5
5
5
5
5
5
5
5
5
5
5
5
5
5
5
5
5
5
5
5
5
5
5
5
5
5
5
5
5
5
5
5
5
5
5
5
5
5
5
5
5
5
5
5
5
5
5
5
5
5
5
5
5
5
5
5
5
5
5
5
5
5
5
5
5
5
5
5
5
5
5
5
5
POINT_DATA 320
SCALARS theta_e float 1
LOOKUP_TABLE default
0.993557
0.993572
0.993561
0.993554
0.993609
0.993544
0.993585
0.993560
0.993519
0.993667
0.993632
0.993537
0.993594
0.993563
0.993481
0.993505
0.993739
0.993696
0.993646
0.993539
0.993593
0.993823
0.993428
0.993363
0.993458
0.993497
0.993776
0.993721
0.993665
0.993553
0.993613
0.993914
0.993865
0.994009
0.993295
0.993227
0.993398
0.993329
0.993441
0.993505
0.993810
0.993746
0.993677
0.993589
0.993960
0.993907
0.994108
0.994058
0.993162
0.993099
0.993259
0.993192
0.993373
0.993300
0.993437
0.993516
0.993838
0.993757
0.993670
0.993594
0.994006
0.993934
0.994210
0.994158
0.994105
0.994316
0.993040
0.992986
0.993127
0.993066
0.993227
0.993156
0.993364
0.993288
0.993447
0.993537
0.993844
0.993757
0.993655
0.994033
0.993938
0.994260
0.994205
0.994134
0.994420
0.994365
0.994515
0.992943
0.992916
0.993011
0.992964
0.993091
0.993034
0.993211
0.993137
0.993371
0.993292
0.993463
0.993555
0.993864
0.993730
0.993615
0.994037
0.993963
0.994306
0.994140
0.994234
0.994463
0.994403
0.994549
0.994588
0.994626
0.992930
0.992913
0.992908
0.992953
0.992987
0.993070
0.993017
0.993213
0.993137
0.993379
0.993296
0.993456
0.993682
0.993799
0.993645
0.994048
0.993902
0.994124
0.994324
0.994238
0.994394
0.994492
0.994449
0.994552
0.994600
0.994630
0.994637
0.992932
0.992917
0.992956
0.992982
0.993069
0.993022
0.993223
0.993147
0.993345
0.993275
0.993602
0.993869
0.993783
0.993603
0.994017
0.993742
0.994072
0.994172
0.994340
0.994273
0.994413
0.994491
0.994558
0.994601
0.994624
0.992958
0.992939
0.992982
0.993014
0.993078
0.993159
0.993236
0.993409
0.993255
0.994338
0.993791
0.993660
0.993838
0.993706
0.994018
0.994089
0.994210
0.994332
0.994416
0.994485
0.994540
0.994579
0.992993
0.992973
0.993019
0.993065
0.993133
0.993215
0.993268
0.993543
0.993839
0.993517
0.992979
0.993516
0.993875
0.994015
0.994110
0.994233
0.994321
0.994389
0.994452
0.994503
0.993034
0.993011
0.993070
0.993127
0.993200
0.993271
0.993286
0.993621
0.993528
0.993704
0.993824
0.993882
0.994002
0.994115
0.994207
0.994278
0.994345
0.994405
0.993080
0.993051
0.993129
0.993192
0.993265
0.993330
0.993320
0.993653
0.993787
0.993750
0.993883
0.993994
0.994084
0.994157
0.994227
0.994292
0.993128
0.993092
0.993189
0.993253
0.993325
0.993394
0.993436
0.993545
0.993659
0.993771
0.993874
0.993960
0.994034
0.994105
0.994172
0.993178
0.993136
0.993244
0.993309
0.993380
0.993462
0.993562
0.993671
0.993761
0.993842
0.993915
0.993985
0.994052
0.993228
0.993183
0.993294
0.993360
0.993429
0.993511
0.993592
0.993659
0.993732
0.993802
0.993871
0.993935
0.993280
0.993236
0.993339
0.993402
0.993472
0.993559
0.993631
0.993698
0.993766
0.993825
0.993334
0.993294
0.993382
0.993437
0.993496
0.993549
0.993610
0.993672
0.993726
0.993386
0.993355
0.993425
0.993479
0.993541
0.993594
0.993639
0.993430
0.993407
0.993460
0.993495
0.993532
0.993568
0.993458
0.993444
0.993485
0.993512
0.993469
0.993461
0.993480
0.993468
VECTORS fa_u float
0.000000 0.000000 0.000000
0.000000 0.000000 0.000000
0.000000 0.000000 0.000000
0.000000 0.000000 0.000000
0.000000 0.000000 0.000000
0.000000 0.000000 0.000000
0.000000 0.000000 0.000000
0.000000 0.000000 0.000000
0.000000 0.000000 0.000000
0.000000 0.000000 0.000000
0.000000 0.000000 0.000000
0.000000 0.000000 0.000000
0.000000 0.000000 0.000000
0.000000 0.000000 0.000000
0.000000 0.000000 0.000000
0.000000 0.000000 0.000000
0.000000 0.000000 0.000000
0.000000 0.000000 0.000000
0.000000 0.000000 0.000000
0.000000 0.000000 0.000000
0.000000 0.000000 0.000000
0.000000 0.000000 0.000000
0.000000 0.000000 0.000000
0.000000 0.000000 0.000000
0.000000 0.000000 0.000000
0.000000 0.000000 0.000000
0.000000 0.000000 0.000000
0.000000 0.000000 0.000000
0.000000 0.000000 0.000000
0.000000 0.000000 0.000000
0.000000 0.000000 0.000000
0.000000 0.000000 0.000000
0.000000 0.000000 0.000000
0.000000 0.000000 0.000000
0.000000 0.000000 0.000000
0.000000 0.000000 0.000000
0.000000 0.000000 0.000000
0.000000 0.000000 0.000000
0.000000 0.000000 0.000000
0.000000 0.000000 0.000000
0.000000 0.000000 0.000000
0.000000 0.000000 0.000000
0.000000 0.000000 0.000000
0.000000 0.000000 0.000000
0.000000 0.000000 0.000000
0.000000 0.000000 0.000000
0.000000 0.000000 0.000000
0.000000 0.000000 0.000000
0.000000 0.000000 0.000000
0.000000 0.000000 0.000000
0.000000 0.000000 0.000000
0.000000 0.000000 0.000000
0.000000 0.000000 0.000000
0.000000 0.000000 0.000000
0.000000 0.000000 0.000000
0.000000 0.000000 0.000000
0.000000 0.000000 0.000000
0.000000 0.000000 0.000000
0.000000 0.000000 0.000000
0.000000 0.000000 0.000000
0.000000 0.000000 0.000000
0.000000 0.000000 0.000000
0.000000 0.000000 0.000000
0.000000 0.000000 0.000000
0.000000 0.000000 0.000000
0.000000 0.000000 0.000000
0.000000 0.000000 0.000000
0.000000 0.000000 0.000000
0.000000 0.000000 0.000000
0.000000 0.000000 0.000000
0.000000 0.000000 0.000000
0.000000 0.000000 0.000000
0.000000 0.000000 0.000000
0.000000 0.000000 0.000000
0.000000 0.000000 0.000000
0.000000 0.000000 0.000000
0.000000 0.000000 0.000000
0.000000 0.000000 0.000000
0.000000 0.000000 0.000000
0.000000 0.000000 0.000000
0.000000 0.000000 0.000000
0.000000 0.000000 0.000000
0.000000 0.000000 0.000000
0.000000 0.000000 0.000000
0.000000 0.000000 0.000000
0.000000 0.000000 0.000000
0.000000 0.000000 0.000000
0.000000 0.000000 0.000000
0.000000 0.000000 0.000000
0.000000 0.000000 0.000000
0.000000 0.000000 0.000000
0.000000 0.000000 0.000000
0.000000 0.000000 0.000000
0.000000 0.000000 0.000000
0.000000 0.000000 0.000000
0.000000 0.000000 0.000000
0.000000 0.000000 0.000000
0.000000 0.000000 0.000000
0.000000 0.000000 0.000000
0.000000 0.000000 0.000000
0.000000 0.000000 0.000000
0.000000 0.000000 0.000000
0.000000 0.000000 0.000000
0.000000 0.000000 0.000000
0.000000 0.000000 0.000000
0.000000 0.000000 0.000000
0.000000 0.000000 0.000000
0.000000 0.000000 0.000000
0.000000 0.000000 0.000000
0.000000 0.000000 0.000000
0.000000 0.000000 0.000000
0.000000 0.000000 0.000000
0.000000 0.000000 0.000000
0.000000 0.000000 0.000000
0.000000 0.000000 0.000000
0.000000 0.000000 0.000000
0.000000 0.000000 0.000000
0.000000 0.000000 0.000000
0.000000 0.000000 0.000000
0.000000 0.000000 0.000000
0.000000 0.000000 0.000000
0.000000 0.000000 0.000000
0.000000 0.000000 0.000000
0.000000 0.000000 0.000000
0.000000 0.000000 0.000000
0.000000 0.000000 0.000000
0.000000 0.000000 0.000000
0.000000 0.000000 0.000000
0.000000 0.000000 0.000000
0.000000 0.000000 0.000000
0.000000 0.000000 0.000000
0.000000 0.000000 0.000000
0.000000 0.000000 0.000000
0.000000 0.000000 0.000000
0.000000 0.000000 0.000000
0.000000 0.000000 0.000000
0.000000 0.000000 0.000000
0.000000 0.000000 0.000000
0.000000 0.000000 0.000000
0.000000 0.000000 0.000000
0.000000 0.000000 0.000000
0.000000 0.000000 0.000000
0.000000 0.000000 0.000000
0.000000 0.000000 0.000000
0.000000 0.000000 0.000000
0.000000 0.000000 0.000000
0.000000 0.000000 0.000000
0.000000 0.000000 0.000000
0.000000 0.000000 0.000000
0.000000 0.000000 0.000000
0.000000 0.000000 0.000000
0.000000 0.000000 0.000000
0.000000 0.000000 0.000000
0.000000 0.000000 0.000000
0.000000 0.000000 0.000000
0.000000 0.000000 0.000000
0.000000 0.000000 0.000000
0.000000 0.000000 0.000000
0.000000 0.000000 0.000000
0.000000 0.000000 0.000000
0.000000 0.000000 0.000000
0.000000 0.000000 0.000000
0.000000 0.000000 0.000000
0.000000 0.000000 0.000000
0.000000 0.000000 0.000000
0.000000 0.000000 0.000000
0.000000 0.000000 0.000000
0.000000 0.000000 0.000000
0.000000 0.000000 0.000000
0.000000 0.000000 0.000000
0.000000 0.000000 0.000000
0.000000 0.000000 0.000000
0.000000 0.000000 0.000000
0.000000 0.000000 0.000000
0.000000 0.000000 0.000000
0.000000 0.000000 0.000000
0.000000 0.000000 0.000000
0.000000 0.000000 0.000000
0.000000 0.000000 0.000000
0.000000 0.000000 0.000000
0.000000 0.000000 0.000000
0.000000 0.000000 0.000000
0.000000 0.000000 0.000000
0.000000 0.000000 0.000000
0.000000 0.000000 0.000000
0.000000 0.000000 0.000000
0.000000 0.000000 0.000000
0.000000 0.000000 0.000000
0.000000 0.000000 0.000000
0.000000 0.000000 0.000000
0.000000 0.000000 0.000000
0.000000 0.000000 0.000000
0.000000 0.000000 0.000000
0.000000 0.000000 0.000000
0.000000 0.000000 0.000000
0.000000 0.000000 0.000000
0.000000 0.000000 0.000000
0.000000 0.000000 0.000000
0.000000 0.000000 0.000000
0.000000 0.000000 0.000000
0.000000 0.000000 0.000000
0.000000 0.000000 0.000000
0.000000 0.000000 0.000000
0.000000 0.000000 0.000000
0.000000 0.000000 0.000000
0.000000 0.000000 0.000000
0.000000 0.000000 0.000000
0.000000 0.000000 0.000000
0.000000 0.000000 0.000000
0.000000 0.000000 0.000000
0.000000 0.000000 0.000000
0.000000 0.000000 0.000000
0.000000 0.000000 0.000000
0.000000 0.000000 0.000000
0.000000 0.000000 0.000000
0.000000 0.000000 0.000000
0.000000 0.000000 0.000000
0.000000 0.000000 0.000000
0.000000 0.000000 0.000000
0.000000 0.000000 0.000000
0.000000 0.000000 0.000000
0.000000 0.000000 0.000000
0.000000 0.000000 0.000000
0.000000 0.000000 0.000000
0.000000 0.000000 0.000000
0.000000 0.000000 0.000000
0.000000 0.000000 0.000000
0.000000 0.000000 0.000000
0.000000 0.000000 0.000000
0.000000 0.000000 0.000000
0.000000 0.000000 0.000000
0.000000 0.000000 0.000000
0.000000 0.000000 0.000000
0.000000 0.000000 0.000000
0.000000 0.000000 0.000000
0.000000 0.000000 0.000000
0.000000 0.000000 0.000000
0.000000 0.000000 0.000000
0.000000 0.000000 0.000000
0.000000 0.000000 0.000000
0.000000 0.000000 0.000000
0.000000 0.000000 0.000000
0.000000 0.000000 0.000000
0.000000 0.000000 0.000000
0.000000 0.000000 0.000000
0.000000 0.000000 0.000000
0.000000 0.000000 0.000000
0.000000 0.000000 0.000000
0.000000 0.000000 0.000000
0.000000 0.000000 0.000000
0.000000 0.000000 0.000000
0.000000 0.000000 0.000000
0.000000 0.000000 0.000000
0.000000 0.000000 0.000000
0.000000 0.000000 0.000000
0.000000 0.000000 0.000000
0.000000 0.000000 0.000000
0.000000 0.000000 0.000000
0.000000 0.000000 0.000000
0.000000 0.000000 0.000000
0.000000 0.000000 0.000000
0.000000 0.000000 0.000000
0.000000 0.000000 0.000000
0.000000 0.000000 0.000000
0.000000 0.000000 0.000000
0.000000 0.000000 0.000000
0.000000 0.000000 0.000000
0.000000 0.000000 0.000000
0.000000 0.000000 0.000000
0.000000 0.000000 0.000000
0.000000 0.000000 0.000000
0.000000 0.000000 0.000000
0.000000 0.000000 0.000000
0.000000 0.000000 0.000000
0.000000 0.000000 0.000000
0.000000 0.000000 0.000000
0.000000 0.000000 0.000000
0.000000 0.000000 0.000000
0.000000 0.000000 0.000000
0.000000 0.000000 0.000000
0.000000 0.000000 0.000000
0.000000 0.000000 0.000000
0.000000 0.000000 0.000000
0.000000 0.000000 0.000000
0.000000 0.000000 0.000000
0.000000 0.000000 0.000000
0.000000 0.000000 0.000000
0.000000 0.000000 0.000000
0.000000 0.000000 0.000000
0.000000 0.000000 0.000000
0.000000 0.000000 0.000000
0.000000 0.000000 0.000000
0.000000 0.000000 0.000000
0.000000 0.000000 0.000000
0.000000 0.000000 0.000000
0.000000 0.000000 0.000000
0.000000 0.000000 -50.000000
-50.000000 0.000000 -50.000000
-43.345141 0.000000 -45.686402
-45.528670 0.000000 -43.281209
-50.000000 0.000000 -50.000000
-36.688771 0.000000 -36.562928
-50.000000 0.000000 -45.077897
-40.040649 0.000000 -40.015124
-44.201704 0.000000 -29.845736
-50.000000 0.000000 -50.000000
-30.031309 0.000000 -44.843368
-33.562020 0.000000 -33.108252
-44.723508 0.000000 -39.850867
-36.881538 0.000000 -35.101276
-39.884248 0.000000 -23.130646
-50.000000 0.000000 -26.487150
-44.713016 0.000000 -50.000000
-23.374391 0.000000 -44.659668
-26.962448 0.000000 -39.343165
-30.366149 0.000000 -29.565496
-39.444418 0.000000 -33.333236
-33.780514 0.000000 -50.000000
-16.716410 0.000000 -16.425342
-50.000000 0.000000 -9.731827
