# vtk DataFile Version 2.0
CellBP Time: 0.68
ASCII
DATASET UNSTRUCTURED_GRID
POINTS 320 double
-50.000000 -50.000000 0.000000
-50.000000 -43.343702 0.000000
-45.665193 -45.503166 0.000000
-43.286758 -50.000000 0.000000
-50.000000 -36.689754 0.000000
-36.576208 -50.000000 0.000000
-45.055442 -39.996560 0.000000
-39.973094 -44.169422 0.000000
-29.865717 -50.000000 0.000000
-50.000000 -30.040229 0.000000
-44.820935 -33.497367 0.000000
-33.053926 -44.695016 0.000000
-39.815654 -36.827397 0.000000
-35.049813 -39.835947 0.000000
-23.160625 -50.000000 0.000000
-26.419573 -44.688874 0.000000
-50.000000 -23.396930 0.000000
-44.637033 -26.881569 0.000000
-39.307390 -30.293800 0.000000
-29.501904 -39.399350 0.000000
-33.281445 -33.717354 0.000000
-50.000000 -16.756559 0.000000
-16.464866 -50.000000 0.000000
-9.780481 -50.000000 0.000000
-19.824892 -44.613656 0.000000
-23.085518 -39.161877 0.000000
-44.663552 -20.209239 0.000000
-39.308998 -23.631121 0.000000
-34.019552 -27.032857 0.000000
-26.264796 -33.649009 0.000000
-29.046513 -29.021118 0.000000
-50.000000 -10.115528 0.000000
-44.638629 -13.558992 0.000000
-50.000000 -3.471576 0.000000
-3.107695 -50.000000 0.000000
3.553677 -50.000000 0.000000
-13.191662 -44.625640 0.000000
-6.528990 -44.638757 0.000000
-16.543792 -39.204305 0.000000
-19.962267 -33.423746 0.000000
-39.279614 -16.947861 0.000000
-33.930172 -20.412162 0.000000
-28.666248 -23.579786 0.000000
-23.372475 -27.465811 0.000000
-44.606975 -6.890375 0.000000
-39.231921 -10.289587 0.000000
-50.000000 3.181949 0.000000
-44.596156 -0.233772 0.000000
10.204740 -50.000000 0.000000
16.847681 -50.000000 0.000000
0.136071 -44.647075 0.000000
6.794091 -44.662709 0.000000
-9.884366 -39.276816 0.000000
-3.206605 -39.277028 0.000000
-13.322252 -33.881312 0.000000
-16.547353 -28.388490 0.000000
-33.853363 -13.704348 0.000000
-28.477965 -17.073821 0.000000
-23.145561 -20.481790 0.000000
-18.498833 -23.434353 0.000000
-39.199661 -3.629986 0.000000
-33.794600 -7.053897 0.000000
-50.000000 9.871059 0.000000
-44.581461 6.425856 0.000000
-39.184136 3.034409 0.000000
-50.000000 16.627454 0.000000
23.484890 -50.000000 0.000000
30.117864 -50.000000 0.000000
13.445377 -44.688696 0.000000
20.099356 -44.724352 0.000000
3.462666 -39.301344 0.000000
10.114023 -39.344251 0.000000
-6.564941 -33.877589 0.000000
0.134668 -33.915593 0.000000
-9.917074 -28.413228 0.000000
-12.943551 -23.057088 0.000000
-28.386988 -10.462676 0.000000
-22.896014 -13.893181 0.000000
-16.793967 -17.412507 0.000000
-33.747286 -0.413827 0.000000
-28.381123 -3.907594 0.000000
-44.544603 13.118023 0.000000
-39.121819 9.665816 0.000000
-33.720019 6.122421 0.000000
-50.000000 23.500400 0.000000
-44.598862 19.904542 0.000000
-50.000000 30.481622 0.000000
36.746799 -50.000000 0.000000
43.373764 -50.000000 0.000000
26.751769 -44.767639 0.000000
33.380692 -44.895573 0.000000
16.755990 -39.408784 0.000000
23.430539 -39.485149 0.000000
6.799090 -33.962574 0.000000
13.430277 -34.043015 0.000000
-3.164477 -28.479764 0.000000
3.529378 -28.564447 0.000000
-6.434462 -22.999518 0.000000
-9.772095 -17.510521 0.000000
-22.976835 -7.319782 0.000000
-17.590684 -10.600317 0.000000
-12.619089 -12.825271 0.000000
-28.355588 2.654889 0.000000
-22.997075 -0.865640 0.000000
-38.986200 16.354366 0.000000
-28.332423 9.350222 0.000000
-33.512809 12.529616 0.000000
-44.751034 26.660357 0.000000
-38.713999 23.693970 0.000000
-44.987336 33.443006 0.000000
-50.000000 37.438308 0.000000
-50.000000 43.823871 0.000000
39.961418 -45.087872 0.000000
45.489614 -45.675539 0.000000
50.000000 -50.000000 0.000000
36.680061 -40.023172 0.000000
30.090288 -39.503991 0.000000
20.021625 -34.165005 0.000000
26.677820 -34.387468 0.000000
10.144634 -28.618604 0.000000
16.744749 -28.755591 0.000000
0.242668 -23.103946 0.000000
6.985717 -23.291204 0.000000
-3.192650 -17.483274 0.000000
-6.636624 -11.281653 0.000000
-17.601768 -4.169171 0.000000
-12.283814 -7.318570 0.000000
-22.939035 5.568660 0.000000
-17.690487 2.036307 0.000000
-22.606645 11.498219 0.000000
-33.305771 18.553302 0.000000
-27.384130 16.154913 0.000000
-33.030371 23.874000 0.000000
-40.306381 30.572417 0.000000
-35.397358 28.988059 0.000000
-39.922107 35.535705 0.000000
-43.923223 40.204993 0.000000
-45.284353 45.783876 0.000000
-50.000000 50.000000 0.000000
44.138294 -39.937412 0.000000
50.000000 -43.377409 0.000000
39.679329 -35.106192 0.000000
33.529142 -33.492488 0.000000
23.094222 -28.908792 0.000000
28.817950 -29.332419 0.000000
13.610721 -23.242192 0.000000
20.179699 -23.550001 0.000000
3.586026 -17.748455 0.000000
10.296219 -17.980953 0.000000
0.355872 -12.229436 0.000000
-1.909252 -6.509267 0.000000
-7.130859 -3.988720 0.000000
-12.314766 -1.129952 0.000000
-17.702972 8.061028 0.000000
-12.579783 4.842007 0.000000
-17.982265 13.171812 0.000000
-20.743812 16.835831 0.000000
-28.022865 22.543720 0.000000
-23.341150 21.019575 0.000000
-29.732690 28.676238 0.000000
-34.152072 34.116652 0.000000
-36.874801 39.964373 0.000000
-39.645419 45.282973 0.000000
-43.362317 50.000000 0.000000
44.605259 -33.036689 0.000000
50.000000 -36.748079 0.000000
39.173586 -29.657591 0.000000
33.569888 -26.457125 0.000000
27.278759 -23.426696 0.000000
23.179001 -18.768307 0.000000
17.129371 -17.110460 0.000000
6.902321 -12.383021 0.000000
12.513269 -12.878312 0.000000
-3.098343 -1.730686 0.000000
4.172105 -7.239627 0.000000
1.291170 -2.325035 0.000000
-6.704002 2.058577 0.000000
-8.052808 7.540421 0.000000
-12.320135 11.571996 0.000000
-15.065192 17.342989 0.000000
-18.487264 22.737455 0.000000
-23.582949 27.220803 0.000000
-26.959936 33.629683 0.000000
-30.061882 39.340222 0.000000
-33.142888 44.851704 0.000000
-36.570967 50.000000 0.000000
44.569270 -26.581183 0.000000
50.000000 -30.112010 0.000000
39.085938 -23.271695 0.000000
33.520961 -20.003693 0.000000
28.135168 -16.693375 0.000000
22.804377 -13.256227 0.000000
17.325634 -10.057375 0.000000
11.139933 -6.814063 0.000000
-1.059926 2.093378 0.000000
6.478475 -1.915660 0.000000
3.184078 1.405920 0.000000
-3.207564 6.976172 0.000000
-5.896199 12.196097 0.000000
-9.129034 17.453170 0.000000
-12.586191 22.907490 0.000000
-16.817076 28.053437 0.000000
-20.213026 33.380775 0.000000
-23.340752 39.012542 0.000000
-26.486568 44.625693 0.000000
-29.803946 50.000000 0.000000
44.551510 -20.023308 0.000000
50.000000 -23.468356 0.000000
39.084165 -16.697232 0.000000
33.650203 -13.395412 0.000000
28.250191 -10.094306 0.000000
22.853355 -6.746124 0.000000
17.424473 -3.490404 0.000000
12.249287 0.034589 0.000000
2.237954 6.099848 0.000000
7.330625 3.693011 0.000000
0.133197 11.793356 0.000000
-2.885083 17.340884 0.000000
-6.280419 22.831832 0.000000
-10.173565 28.158170 0.000000
-13.393867 33.575985 0.000000
-16.657109 39.015400 0.000000
-19.847584 44.513552 0.000000
-23.091255 50.000000 0.000000
44.560353 -13.402860 0.000000
50.000000 -16.815791 0.000000
39.129155 -10.075279 0.000000
33.720970 -6.760540 0.000000
28.337035 -3.439281 0.000000
22.978350 -0.123057 0.000000
17.709707 3.220001 0.000000
12.443761 6.452972 0.000000
7.002799 10.710599 0.000000
3.594160 17.047564 0.000000
0.228693 22.732161 0.000000
-3.218575 28.229217 0.000000
-6.562406 33.713327 0.000000
-9.898222 39.125896 0.000000
-13.199760 44.538580 0.000000
-16.462240 50.000000 0.000000
44.579166 -6.756761 0.000000
50.000000 -10.154855 0.000000
39.171930 -3.432059 0.000000
33.786586 -0.111066 0.000000
28.433968 3.215886 0.000000
23.137157 6.563695 0.000000
18.003222 9.897440 0.000000
12.862513 12.090437 0.000000
10.011072 17.113446 0.000000
6.705343 22.622930 0.000000
3.412732 28.195884 0.000000
0.094534 33.685396 0.000000
-3.233638 39.136197 0.000000
-6.539189 44.564719 0.000000
-9.832264 50.000000 0.000000
44.599917 -0.100629 0.000000
50.000000 -3.486769 0.000000
39.213085 3.222556 0.000000
33.848776 6.540467 0.000000
28.520322 9.877709 0.000000
23.171062 13.301504 0.000000
17.104261 16.912946 0.000000
13.067314 22.580233 0.000000
9.976981 28.163884 0.000000
6.758996 33.672155 0.000000
3.432148 39.136776 0.000000
0.112729 44.571922 0.000000
-3.197477 50.000000 0.000000
44.609360 6.564981 0.000000
50.000000 3.187176 0.000000
39.239730 9.877719 0.000000
33.905199 13.171599 0.000000
28.624035 16.481281 0.000000
23.487013 19.987073 0.000000
18.652611 23.025667 0.000000
16.506789 28.229997 0.000000
13.437599 33.706058 0.000000
10.091037 39.152555 0.000000
6.770624 44.571728 0.000000
3.439835 50.000000 0.000000
44.628276 13.222432 0.000000
50.000000 9.866468 0.000000
39.285398 16.517336 0.000000
33.980394 19.770522 0.000000
28.675568 22.838015 0.000000
23.357117 27.131617 0.000000
19.975464 33.248594 0.000000
16.644672 39.007043 0.000000
13.340289 44.511451 0.000000
10.077581 50.000000 0.000000
44.646885 19.886128 0.000000
50.000000 16.550110 0.000000
39.322993 23.179530 0.000000
34.077336 26.438490 0.000000
29.013068 28.467199 0.000000
26.247284 33.353258 0.000000
23.109298 38.932213 0.000000
19.932327 44.489914 0.000000
16.716329 50.000000 0.000000
44.649270 26.568968 0.000000
50.000000 23.236939 0.000000
39.308241 29.900507 0.000000
33.234551 33.314638 0.000000
29.433918 39.008106 0.000000
26.444688 44.487548 0.000000
23.359623 50.000000 0.000000
44.779688 33.234849 0.000000
50.000000 29.925755 0.000000
39.744632 36.549465 0.000000
34.840897 39.489290 0.000000
32.841944 44.495495 0.000000
30.009581 50.000000 0.000000
44.979312 39.841768 0.000000
50.000000 36.616472 0.000000
39.736091 43.948286 0.000000
36.667262 50.000000 0.000000
45.621019 45.393272 0.000000
50.000000 43.308227 0.000000
43.332852 50.000000 0.000000
50.000000 50.000000 0.000000
CELLS 578 2312
3 1 0 2
3 0 3 2
3 4 1 6
3 6 1 2
3 3 5 7
3 3 7 2
3 6 2 7
3 9 4 10
3 10 4 6
3 5 8 11
3 7 5 11
3 10 6 12
3 12 6 7
3 7 11 13
3 7 13 12
3 8 14 15
3 11 8 15
3 16 9 17
3 17 9 10
3 17 10 18
3 18 10 12
3 11 15 19
3 13 11 19
3 18 12 20
3 13 19 20
3 20 12 13
3 14 22 24
3 15 14 24
3 15 24 25
3 19 15 25
3 21 16 26
3 26 16 17
3 26 17 27
3 27 17 18
3 27 18 28
3 28 18 20
3 19 25 29
3 19 29 20
3 28 20 30
3 30 20 29
3 31 21 32
3 32 21 26
3 22 23 36
3 24 22 36
3 23 34 37
3 36 23 37
3 24 36 38
3 25 24 38
3 25 38 39
3 29 25 39
3 32 26 40
3 40 26 27
3 40 27 41
3 41 27 28
3 41 28 42
3 42 28 30
3 29 39 43
3 29 43 30
3 42 30 43
3 33 31 44
3 44 31 32
3 44 32 45
3 45 32 40
3 46 33 47
3 47 33 44
3 34 35 50
3 37 34 50
3 35 48 51
3 50 35 51
3 36 37 52
3 38 36 52
3 37 50 53
3 52 37 53
3 38 52 54
3 39 38 54
3 39 54 55
3 43 39 55
3 45 40 56
3 56 40 41
3 56 41 57
3 57 41 42
3 57 42 58
3 58 42 43
3 43 55 59
3 43 59 58
3 47 44 60
3 60 44 45
3 60 45 61
3 61 45 56
3 62 46 63
3 63 46 47
3 63 47 64
3 64 47 60
3 48 49 68
3 51 48 68
3 49 66 69
3 68 49 69
3 50 51 70
3 53 50 70
3 51 68 71
3 70 51 71
3 52 53 72
3 54 52 72
3 53 70 73
3 72 53 73
3 54 72 74
3 55 54 74
3 55 74 75
3 59 55 75
3 61 56 76
3 76 56 57
3 76 57 77
3 77 57 58
3 77 58 78
3 59 75 78
3 78 58 59
3 64 60 79
3 79 60 61
3 79 61 80
3 80 61 76
3 65 62 81
3 81 62 63
3 81 63 82
3 82 63 64
3 82 64 83
3 83 64 79
3 84 65 85
3 85 65 81
3 66 67 89
3 69 66 89
3 67 87 90
3 89 67 90
3 68 69 91
3 71 68 91
3 69 89 92
3 91 69 92
3 70 71 93
3 73 70 93
3 71 91 94
3 93 71 94
3 72 73 95
3 74 72 95
3 73 93 96
3 95 73 96
3 74 95 97
3 75 74 97
3 75 97 98
3 78 75 98
3 80 76 99
3 99 76 77
3 99 77 100
3 100 77 78
3 100 78 101
3 98 101 78
3 83 79 102
3 102 79 80
3 102 80 103
3 103 80 99
3 85 81 104
3 104 81 82
3 105 83 102
3 104 82 106
3 106 82 83
3 106 83 105
3 86 84 107
3 107 84 85
3 107 85 108
3 108 85 104
3 109 86 107
3 110 86 109
3 87 88 112
3 90 87 112
3 112 88 113
3 88 114 113
3 90 112 115
3 89 90 116
3 92 89 116
3 116 90 115
3 91 92 117
3 94 91 117
3 92 116 118
3 117 92 118
3 93 94 119
3 96 93 119
3 94 117 120
3 119 94 120
3 95 96 121
3 97 95 121
3 96 119 122
3 121 96 122
3 97 121 123
3 98 97 123
3 98 123 124
3 98 124 101
3 103 99 125
3 125 99 100
3 125 100 126
3 126 100 101
3 126 101 124
3 105 102 127
3 127 102 103
3 127 103 128
3 128 103 125
3 129 105 127
3 108 104 130
3 130 104 106
3 130 106 131
3 131 106 105
3 131 105 129
3 108 130 132
3 109 107 133
3 133 107 108
3 133 108 134
3 108 132 134
3 135 109 133
3 111 110 136
3 136 110 109
3 136 109 135
3 137 111 136
3 138 111 137
3 112 113 139
3 115 112 139
3 114 140 113
3 140 139 113
3 139 141 115
3 116 115 142
3 118 116 142
3 142 115 141
3 117 118 143
3 120 117 143
3 118 142 144
3 143 118 144
3 119 120 145
3 122 119 145
3 120 143 146
3 145 120 146
3 121 122 147
3 123 121 147
3 122 145 148
3 147 122 148
3 123 147 149
3 124 123 149
3 124 149 150
3 151 126 124
3 124 150 151
3 128 125 152
3 152 125 126
3 152 126 151
3 129 127 153
3 153 127 128
3 128 152 154
3 153 128 154
3 155 129 153
3 131 129 156
3 156 129 155
3 132 130 157
3 130 131 157
3 157 131 158
3 131 156 158
3 132 157 159
3 132 159 134
3 135 133 160
3 160 133 134
3 160 134 159
3 136 135 161
3 135 160 161
3 162 137 136
3 161 162 136
3 163 138 137
3 162 163 137
3 139 164 141
3 140 165 139
3 139 165 164
3 141 164 166
3 141 166 142
3 166 167 142
3 144 142 167
3 167 168 144
3 143 144 168
3 146 143 168
3 168 169 146
3 145 146 170
3 148 145 170
3 170 146 169
3 147 148 171
3 149 147 171
3 148 170 172
3 171 148 172
3 173 151 150
3 149 171 174
3 150 149 174
3 150 174 175
3 150 175 173
3 154 152 176
3 152 151 176
3 176 151 173
3 154 176 177
3 155 153 178
3 177 178 154
3 154 178 153
3 156 155 179
3 155 178 179
3 180 158 156
3 179 180 156
3 181 159 157
3 180 181 158
3 181 157 158
3 182 160 159
3 181 182 159
3 183 161 160
3 182 183 160
3 184 162 161
3 184 161 183
3 185 163 162
3 184 185 162
3 164 186 166
3 165 187 164
3 164 187 186
3 166 186 188
3 166 188 167
3 167 188 189
3 167 189 168
3 168 189 190
3 168 190 169
3 169 190 191
3 169 191 170
3 192 172 170
3 170 191 192
3 192 193 172
3 171 172 193
3 174 171 193
3 194 173 175
3 176 173 194
3 175 174 195
3 193 195 174
3 195 196 175
3 175 196 194
3 197 177 176
3 194 197 176
3 198 178 177
3 197 198 177
3 199 179 178
3 198 199 178
3 200 180 179
3 199 200 179
3 201 181 180
3 200 201 180
3 202 182 181
3 201 202 181
3 203 183 182
3 202 203 182
3 204 184 183
3 203 204 183
3 205 185 184
3 204 205 184
3 186 206 188
3 187 207 186
3 186 207 206
3 188 206 208
3 188 208 189
3 189 208 209
3 189 209 190
3 190 209 210
3 190 210 191
3 191 210 211
3 191 211 192
3 192 211 212
3 192 212 193
3 193 212 213
3 193 213 195
3 214 197 194
3 214 194 196
3 195 213 215
3 195 215 196
3 196 215 214
3 216 198 197
3 214 216 197
3 217 199 198
3 216 217 198
3 218 200 199
3 217 218 199
3 219 201 200
3 218 219 200
3 220 202 201
3 219 220 201
3 221 203 202
3 220 221 202
3 222 204 203
3 221 222 203
3 223 205 204
3 222 223 204
3 206 224 208
3 207 225 206
3 206 225 224
3 208 224 226
3 208 226 209
3 209 226 227
3 209 227 210
3 210 227 228
3 210 228 211
3 211 228 229
3 211 229 212
3 212 229 230
3 212 230 213
3 213 230 231
3 213 231 215
3 232 216 214
3 215 231 232
3 232 214 215
3 233 217 216
3 232 233 216
3 234 218 217
3 233 234 217
3 235 219 218
3 234 235 218
3 236 220 219
3 235 236 219
3 237 221 220
3 236 237 220
3 238 222 221
3 237 238 221
3 239 223 222
3 238 239 222
3 224 240 226
3 225 241 224
3 224 241 240
3 226 240 242
3 226 242 227
3 227 242 243
3 227 243 228
3 228 243 244
3 228 244 229
3 244 245 229
3 229 245 230
3 230 245 246
3 230 246 231
3 231 246 247
3 231 247 232
3 248 233 232
3 248 232 247
3 249 234 233
3 248 249 233
3 250 235 234
3 249 250 234
3 251 236 235
3 250 251 235
3 252 237 236
3 251 252 236
3 253 238 237
3 252 253 237
3 254 239 238
3 253 254 238
3 240 255 242
3 241 256 240
3 240 256 255
3 242 255 257
3 242 257 243
3 243 257 258
3 243 258 244
3 244 258 259
3 244 259 245
3 245 259 260
3 245 260 246
3 246 260 261
3 246 261 247
3 248 247 261
3 262 249 248
3 261 262 248
3 263 250 249
3 262 263 249
3 264 251 250
3 263 264 250
3 265 252 251
3 264 265 251
3 266 253 252
3 265 266 252
3 267 254 253
3 266 267 253
3 255 268 257
3 256 269 255
3 255 269 268
3 257 268 270
3 257 270 258
3 258 270 271
3 258 271 259
3 259 271 272
3 259 272 260
3 260 272 273
3 260 273 261
3 274 262 261
3 261 273 274
3 275 263 262
3 274 275 262
3 276 264 263
3 275 276 263
3 277 265 264
3 276 277 264
3 278 266 265
3 277 278 265
3 279 267 266
3 278 279 266
3 268 280 270
3 269 281 268
3 268 281 280
3 270 280 282
3 270 282 271
3 271 282 283
3 271 283 272
3 283 284 272
3 272 284 273
3 285 275 274
3 273 284 285
3 285 274 273
3 286 276 275
3 285 286 275
3 287 277 276
3 286 287 276
3 288 278 277
3 287 288 277
3 289 279 278
3 288 289 278
3 280 290 282
3 281 291 280
3 280 291 290
3 282 290 292
3 282 292 283
3 283 292 293
3 283 293 284
3 284 293 294
3 284 294 285
3 295 286 285
3 295 285 294
3 296 287 286
3 295 296 286
3 297 288 287
3 296 297 287
3 298 289 288
3 297 298 288
3 290 299 292
3 291 300 290
3 290 300 299
3 292 299 301
3 292 301 293
3 293 301 302
3 293 302 294
3 294 302 295
3 303 296 295
3 303 295 302
3 304 297 296
3 303 304 296
3 305 298 297
3 304 305 297
3 299 306 301
3 300 307 299
3 299 307 306
3 301 306 308
3 301 308 302
3 309 303 302
3 302 308 309
3 310 304 303
3 309 310 303
3 311 305 304
3 310 311 304
3 306 312 308
3 307 313 306
3 306 313 312
3 314 310 309
3 308 312 314
3 314 309 308
3 315 311 310
3 314 315 310
3 312 316 314
3 313 317 312
3 312 317 316
3 318 315 314
3 318 314 316
3 317 319 316
3 319 318 316
CELL_TYPES 578
5
5
5
5
5
5
5
5
5
5
5
5
5
5
5
5
5
5
5
5
5
5
5
5
5
5
5
5
5
5
5
5
5
5
5
5
5
5
5
5
5
5
5
5
5
5
5
5
5
5
5
5
5
5
5
5
5
5
5
5
5
5
5
5
5
5
5
5
5
5
5
5
5
5
5
5
5
5
5
5
5
5
5
5
5
5
5
5
5
5
5
5
5
5
5
5
5
5
5
5
5
5
5
5
5
5
5
5
5
5
5
5
5
5
5
5
5
5
5
5
5
5
5
5
5
5
5
5
5
5
5
5
5
5
5
5
5
5
5
5
5
5
5
5
5
5
5
5
5
5
5
5
5
5
5
5
5
5
5
5
5
5
5
5
5
5
5
5
5
5
5
5
5
5
5
5
5
5
5
5
5
5
5
5
5
5
5
5
5
5
5
5
5
5
5
5
5
5
5
5
5
5
5
5
5
5
5
5
5
5
5
5
5
5
5
5
5
5
5
5
5
5
5
5
5
5
5
5
5
5
5
5
5
5
5
5
5
5
5
5
5
5
5
5
5
5
5
5
5
5
5
5
5
5
5
5
5
5
5
5
5
5
5
5
5
5
5
5
5
5
5
5
5
5
5
5
5
5
5
5
5
5
5
5
5
5
5
5
5
5
5
5
5
5
5
5
5
5
5
5
5
5
5
5
5
5
5
5
5
5
5
5
5
5
5
5
5
5
5
5
5
5
5
5
5
5
5
5
5
5
5
5
5
5
5
5
5
5
5
5
5
5
5
5
5
5
5
5
5
5
5
5
5
5
5
5
5
5
5
5
5
5
5
5
5
5
5
5
5
5
5
5
5
5
5
5
5
5
5
5
5
5
5
5
5
5
5
5
5
5
5
5
5
5
5
5
5
5
5
5
5
5
5
5
5
5
5
5
5
5
5
5
5
5
5
5
5
5
5
5
5
5
5
5
5
5
5
5
5
5
5
5
5
5
5
5
5
5
5
5
5
5
5
5
5
5
5
5
5
5
5
5
5
5
5
5
5
5
5
5
5
5
5
5
5
5
5
5
5
5
5
5
5
5
5
5
5
5
5
5
5
5
5
5
5
5
5
5
5
5
5
5
5
5
5
5
5
5
5
5
5
5
5
5
5
5
5
5
5
5
5
5
5
5
5
5
5
5
5
5
5
5
5
5
5
5
5
5
5
5
5
5
5
5
5
5
5
5
5
5
5
5
5
5
5
5
5
5
5
5
5
5
5
5
5
5
5
5
5
5
5
5
5
5
5
5
5
5
5
5
5
5
5
5
5
5
5
5
POINT_DATA 320
SCALARS theta_e float 1
LOOKUP_TABLE default
1.003199
1.002832
1.002961
1.002873
1.001838
1.002060
1.002219
1.002203
1.000753
1.000409
1.000974
1.001211
1.001174
1.001037
0.999175
0.999764
0.998857
0.999460
0.999760
0.999798
0.999615
0.997349
0.997534
0.996011
0.998167
0.998385
0.997922
0.998239
0.998282
0.998268
0.997926
0.995909
0.996470
0.994386
0.994767
0.993865
0.996593
0.995223
0.996890
0.996859
0.996783
0.996855
0.996665
0.996481
0.995034
0.995413
0.992591
0.993419
0.993270
0.992891
0.994176
0.993466
0.995500
0.994382
0.995561
0.995427
0.995557
0.995500
0.995315
0.995060
0.993973
0.994281
0.990457
0.991483
0.992288
0.988114
0.992641
0.992461
0.993026
0.992762
0.993602
0.993132
0.994464
0.993666
0.994420
0.994241
0.994386
0.994343
0.994141
0.992853
0.993206
0.989255
0.990287
0.991148
0.985810
0.986943
0.983810
0.992313
0.992186
0.992596
0.992474
0.992889
0.992784
0.993192
0.992983
0.993671
0.993222
0.993623
0.993551
0.993421
0.993461
0.993379
0.991804
0.992349
0.988076
0.990148
0.989212
0.984860
0.985937
0.983097
0.982305
0.981445
0.992374
0.992259
0.992136
0.992731
0.992763
0.992955
0.993028
0.993052
0.993088
0.993239
0.993117
0.993219
0.993141
0.992721
0.993082
0.991076
0.991821
0.989660
0.987335
0.988369
0.985788
0.984083
0.984711
0.982862
0.982025
0.981334
0.981074
0.992731
0.992437
0.993145
0.993226
0.993263
0.993439
0.993222
0.993447
0.993173
0.993306
0.993177
0.993102
0.992547
0.992459
0.990775
0.991591
0.989746
0.988543
0.986564
0.987328
0.985067
0.983696
0.982568
0.981835
0.981352
0.993501
0.993073
0.993803
0.993908
0.993840
0.993888
0.993641
0.993367
0.993614
0.993238
0.993316
0.993153
0.992449
0.991680
0.990635
0.989239
0.987795
0.986135
0.984638
0.983484
0.982605
0.981999
0.994321
0.993950
0.994501
0.994483
0.994407
0.994221
0.994017
0.993714
0.992918
0.993371
0.992936
0.992227
0.991342
0.990274
0.988901
0.987348
0.985962
0.984764
0.983768
0.982996
0.995046
0.994777
0.995103
0.994999
0.994806
0.994558
0.994260
0.993810
0.992914
0.993730
0.992286
0.991463
0.990319
0.988988
0.987672
0.986464
0.985367
0.984434
0.995598
0.995443
0.995562
0.995395
0.995156
0.994850
0.994496
0.993826
0.993253
0.992694
0.991821
0.990750
0.989630
0.988494
0.987367
0.986306
0.996002
0.995915
0.995940
0.995770
0.995524
0.995175
0.994759
0.994158
0.993812
0.993266
0.992553
0.991686
0.990703
0.989624
0.988511
0.996394
0.996288
0.996380
0.996254
0.996015
0.995617
0.994987
0.994602
0.994234
0.993659
0.992883
0.991935
0.990857
0.996946
0.996738
0.997029
0.996960
0.996715
0.996292
0.995782
0.995780
0.995478
0.994932
0.994146
0.993158
0.997780
0.997428
0.997958
0.997916
0.997599
0.997141
0.997161
0.996839
0.996216
0.995321
0.998903
0.998428
0.999123
0.999036
0.998573
0.998681
0.998536
0.998095
0.997307
1.000197
0.999678
1.000365
1.000054
1.000004
0.999785
0.999122
1.001453
1.000998
1.001505
1.001240
1.001256
1.000733
1.002445
1.002168
1.002305
1.002068
1.003044
1.002965
1.002910
1.003259
VECTORS fa_u float
0.000000 0.000000 0.000000
0.000000 0.000000 0.000000
0.000000 0.000000 0.000000
0.000000 0.000000 0.000000
0.000000 0.000000 0.000000
0.000000 0.000000 0.000000
0.000000 0.000000 0.000000
0.000000 0.000000 0.000000
0.000000 0.000000 0.000000
0.000000 0.000000 0.000000
0.000000 0.000000 0.000000
0.000000 0.000000 0.000000
0.000000 0.000000 0.000000
0.000000 0.000000 0.000000
0.000000 0.000000 0.000000
0.000000 0.000000 0.000000
0.000000 0.000000 0.000000
0.000000 0.000000 0.000000
0.000000 0.000000 0.000000
0.000000 0.000000 0.000000
0.000000 0.000000 0.000000
0.000000 0.000000 0.000000
0.000000 0.000000 0.000000
0.000000 0.000000 0.000000
0.000000 0.000000 0.000000
0.000000 0.000000 0.000000
0.000000 0.000000 0.000000
0.000000 0.000000 0.000000
0.000000 0.000000 0.000000
0.000000 0.000000 0.000000
0.000000 0.000000 0.000000
0.000000 0.000000 0.000000
0.000000 0.000000 0.000000
0.000000 0.000000 0.000000
0.000000 0.000000 0.000000
0.000000 0.000000 0.000000
0.000000 0.000000 0.000000
0.000000 0.000000 0.000000
0.000000 0.000000 0.000000
0.000000 0.000000 0.000000
0.000000 0.000000 0.000000
0.000000 0.000000 0.000000
0.000000 0.000000 0.000000
0.000000 0.000000 0.000000
0.000000 0.000000 0.000000
0.000000 0.000000 0.000000
0.000000 0.000000 0.000000
0.000000 0.000000 0.000000
0.000000 0.000000 0.000000
0.000000 0.000000 0.000000
0.000000 0.000000 0.000000
0.000000 0.000000 0.000000
0.000000 0.000000 0.000000
0.000000 0.000000 0.000000
0.000000 0.000000 0.000000
0.000000 0.000000 0.000000
0.000000 0.000000 0.000000
0.000000 0.000000 0.000000
0.000000 0.000000 0.000000
0.000000 0.000000 0.000000
0.000000 0.000000 0.000000
0.000000 0.000000 0.000000
0.000000 0.000000 0.000000
0.000000 0.000000 0.000000
0.000000 0.000000 0.000000
0.000000 0.000000 0.000000
0.000000 0.000000 0.000000
0.000000 0.000000 0.000000
0.000000 0.000000 0.000000
0.000000 0.000000 0.000000
0.000000 0.000000 0.000000
0.000000 0.000000 0.000000
0.000000 0.000000 0.000000
0.000000 0.000000 0.000000
0.000000 0.000000 0.000000
0.000000 0.000000 0.000000
0.000000 0.000000 0.000000
0.000000 0.000000 0.000000
0.000000 0.000000 0.000000
0.000000 0.000000 0.000000
0.000000 0.000000 0.000000
0.000000 0.000000 0.000000
0.000000 0.000000 0.000000
0.000000 0.000000 0.000000
0.000000 0.000000 0.000000
0.000000 0.000000 0.000000
0.000000 0.000000 0.000000
0.000000 0.000000 0.000000
0.000000 0.000000 0.000000
0.000000 0.000000 0.000000
0.000000 0.000000 0.000000
0.000000 0.000000 0.000000
0.000000 0.000000 0.000000
0.000000 0.000000 0.000000
0.000000 0.000000 0.000000
0.000000 0.000000 0.000000
0.000000 0.000000 0.000000
0.000000 0.000000 0.000000
0.000000 0.000000 0.000000
0.000000 0.000000 0.000000
0.000000 0.000000 0.000000
0.000000 0.000000 0.000000
0.000000 0.000000 0.000000
0.000000 0.000000 0.000000
0.000000 0.000000 0.000000
0.000000 0.000000 0.000000
0.000000 0.000000 0.000000
0.000000 0.000000 0.000000
0.000000 0.000000 0.000000
0.000000 0.000000 0.000000
0.000000 0.000000 0.000000
0.000000 0.000000 0.000000
0.000000 0.000000 0.000000
0.000000 0.000000 0.000000
0.000000 0.000000 0.000000
0.000000 0.000000 0.000000
0.000000 0.000000 0.000000
0.000000 0.000000 0.000000
0.000000 0.000000 0.000000
0.000000 0.000000 0.000000
0.000000 0.000000 0.000000
0.000000 0.000000 0.000000
0.000000 0.000000 0.000000
0.000000 0.000000 0.000000
0.000000 0.000000 0.000000
0.000000 0.000000 0.000000
0.000000 0.000000 0.000000
0.000000 0.000000 0.000000
0.000000 0.000000 0.000000
0.000000 0.000000 0.000000
0.000000 0.000000 0.000000
0.000000 0.000000 0.000000
0.000000 0.000000 0.000000
0.000000 0.000000 0.000000
0.000000 0.000000 0.000000
0.000000 0.000000 0.000000
0.000000 0.000000 0.000000
0.000000 0.000000 0.000000
0.000000 0.000000 0.000000
0.000000 0.000000 0.000000
0.000000 0.000000 0.000000
0.000000 0.000000 0.000000
0.000000 0.000000 0.000000
0.000000 0.000000 0.000000
0.000000 0.000000 0.000000
0.000000 0.000000 0.000000
0.000000 0.000000 0.000000
0.000000 0.000000 0.000000
0.000000 0.000000 0.000000
0.000000 0.000000 0.000000
0.000000 0.000000 0.000000
0.000000 0.000000 0.000000
0.000000 0.000000 0.000000
0.000000 0.000000 0.000000
0.000000 0.000000 0.000000
0.000000 0.000000 0.000000
0.000000 0.000000 0.000000
0.000000 0.000000 0.000000
0.000000 0.000000 0.000000
0.000000 0.000000 0.000000
0.000000 0.000000 0.000000
0.000000 0.000000 0.000000
0.000000 0.000000 0.000000
0.000000 0.000000 0.000000
0.000000 0.000000 0.000000
0.000000 0.000000 0.000000
0.000000 0.000000 0.000000
0.000000 0.000000 0.000000
0.000000 0.000000 0.000000
0.000000 0.000000 0.000000
0.000000 0.000000 0.000000
0.000000 0.000000 0.000000
0.000000 0.000000 0.000000
0.000000 0.000000 0.000000
0.000000 0.000000 0.000000
0.000000 0.000000 0.000000
0.000000 0.000000 0.000000
0.000000 0.000000 0.000000
0.000000 0.000000 0.000000
0.000000 0.000000 0.000000
0.000000 0.000000 0.000000
0.000000 0.000000 0.000000
0.000000 0.000000 0.000000
0.000000 0.000000 0.000000
0.000000 0.000000 0.000000
0.000000 0.000000 0.000000
0.000000 0.000000 0.000000
0.000000 0.000000 0.000000
0.000000 0.000000 0.000000
0.000000 0.000000 0.000000
0.000000 0.000000 0.000000
0.000000 0.000000 0.000000
0.000000 0.000000 0.000000
0.000000 0.000000 0.000000
0.000000 0.000000 0.000000
0.000000 0.000000 0.000000
0.000000 0.000000 0.000000
0.000000 0.000000 0.000000
0.000000 0.000000 0.000000
0.000000 0.000000 0.000000
0.000000 0.000000 0.000000
0.000000 0.000000 0.000000
0.000000 0.000000 0.000000
0.000000 0.000000 0.000000
0.000000 0.000000 0.000000
0.000000 0.000000 0.000000
0.000000 0.000000 0.000000
0.000000 0.000000 0.000000
0.000000 0.000000 0.000000
0.000000 0.000000 0.000000
0.000000 0.000000 0.000000
0.000000 0.000000 0.000000
0.000000 0.000000 0.000000
0.000000 0.000000 0.000000
0.000000 0.000000 0.000000
0.000000 0.000000 0.000000
0.000000 0.000000 0.000000
0.000000 0.000000 0.000000
0.000000 0.000000 0.000000
0.000000 0.000000 0.000000
0.000000 0.000000 0.000000
0.000000 0.000000 0.000000
0.000000 0.000000 0.000000
0.000000 0.000000 0.000000
0.000000 0.000000 0.000000
0.000000 0.000000 0.000000
0.000000 0.000000 0.000000
0.000000 0.000000 0.000000
0.000000 0.000000 0.000000
0.000000 0.000000 0.000000
0.000000 0.000000 0.000000
0.000000 0.000000 0.000000
0.000000 0.000000 0.000000
0.000000 0.000000 0.000000
0.000000 0.000000 0.000000
0.000000 0.000000 0.000000
0.000000 0.000000 0.000000
0.000000 0.000000 0.000000
0.000000 0.000000 0.000000
0.000000 0.000000 0.000000
0.000000 0.000000 0.000000
0.000000 0.000000 0.000000
0.000000 0.000000 0.000000
0.000000 0.000000 0.000000
0.000000 0.000000 0.000000
0.000000 0.000000 0.000000
0.000000 0.000000 0.000000
0.000000 0.000000 0.000000
0.000000 0.000000 0.000000
0.000000 0.000000 0.000000
0.000000 0.000000 0.000000
0.000000 0.000000 0.000000
0.000000 0.000000 0.000000
0.000000 0.000000 0.000000
0.000000 0.000000 0.000000
0.000000 0.000000 0.000000
0.000000 0.000000 0.000000
0.000000 0.000000 0.000000
0.000000 0.000000 0.000000
0.000000 0.000000 0.000000
0.000000 0.000000 0.000000
0.000000 0.000000 0.000000
0.000000 0.000000 0.000000
0.000000 0.000000 0.000000
0.000000 0.000000 0.000000
0.000000 0.000000 0.000000
0.000000 0.000000 0.000000
0.000000 0.000000 0.000000
0.000000 0.000000 0.000000
0.000000 0.000000 0.000000
0.000000 0.000000 0.000000
0.000000 0.000000 0.000000
0.000000 0.000000 0.000000
0.000000 0.000000 0.000000
0.000000 0.000000 0.000000
0.000000 0.000000 0.000000
0.000000 0.000000 0.000000
0.000000 0.000000 0.000000
0.000000 0.000000 0.000000
0.000000 0.000000 0.000000
0.000000 0.000000 0.000000
0.000000 0.000000 0.000000
0.000000 0.000000 0.000000
0.000000 0.000000 0.000000
0.000000 0.000000 0.000000
0.000000 0.000000 0.000000
0.000000 0.000000 0.000000
0.000000 0.000000 0.000000
0.000000 0.000000 0.000000
0.000000 0.000000 0.000000
0.000000 0.000000 0.000000
0.000000 0.000000 0.000000
0.000000 0.000000 0.000000
0.000000 0.000000 0.000000
0.000000 0.000000 0.000000
0.000000 0.000000 0.000000
0.000000 0.000000 -50.000000
-50.000000 0.000000 -50.000000
-43.343702 0.000000 -45.665193
-45.503166 0.000000 -43.286758
-50.000000 0.000000 -50.000000
-36.689754 0.000000 -36.576208
-50.000000 0.000000 -45.055442
-39.996560 0.000000 -39.973094
-44.169422 0.000000 -29.865717
-50.000000 0.000000 -50.000000
-30.040229 0.000000 -44.820935
-33.497367 0.000000 -33.053926
-44.695016 0.000000 -39.815654
-36.827397 0.000000 -35.049813
-39.835947 0.000000 -23.160625
-50.000000 0.000000 -26.419573
-44.688874 0.000000 -50.000000
-23.396930 0.000000 -44.637033
-26.881569 0.000000 -39.307390
-30.293800 0.000000 -29.501904
-39.399350 0.000000 -33.281445
-33.717354 0.000000 -50.000000
-16.756559 0.000000 -16.464866
-50.000000 0.000000 -9.780481
