# vtk DataFile Version 2.0
CellBP Time: 2.44
ASCII
DATASET UNSTRUCTURED_GRID
POINTS 320 double
-50.000000 -50.000000 0.000000
-50.000000 -43.342132 0.000000
-45.685885 -45.526401 0.000000
-43.280572 -50.000000 0.000000
-50.000000 -36.682719 0.000000
-36.562241 -50.000000 0.000000
-45.077529 -40.035829 0.000000
-40.014194 -44.198667 0.000000
-29.844857 -50.000000 0.000000
-50.000000 -30.022401 0.000000
-44.843359 -33.554132 0.000000
-33.107037 -44.720655 0.000000
-39.850636 -36.875027 0.000000
-35.100526 -39.878994 0.000000
-23.129731 -50.000000 0.000000
-26.485742 -44.710280 0.000000
-50.000000 -23.363065 0.000000
-44.659990 -26.951715 0.000000
-39.343579 -30.356694 0.000000
-29.564540 -39.438874 0.000000
-33.333356 -33.772474 0.000000
-50.000000 -16.703069 0.000000
-16.424524 -50.000000 0.000000
-9.731236 -50.000000 0.000000
-19.899460 -44.628990 0.000000
-23.155590 -39.193527 0.000000
-44.685639 -20.285085 0.000000
-39.345302 -23.700660 0.000000
-34.065117 -27.096691 0.000000
-26.331726 -33.697031 0.000000
-29.101073 -29.079098 0.000000
-50.000000 -10.044408 0.000000
-44.657945 -13.638136 0.000000
-50.000000 -3.389474 0.000000
-3.049401 -50.000000 0.000000
3.618108 -50.000000 0.000000
-13.268193 -44.634813 0.000000
-6.601119 -44.643988 0.000000
-16.616274 -39.224882 0.000000
-20.033538 -33.460099 0.000000
-39.312370 -17.019212 0.000000
-33.977782 -20.478353 0.000000
-28.720812 -23.642731 0.000000
-23.433550 -27.521623 0.000000
-44.621299 -6.973172 0.000000
-39.256145 -10.363888 0.000000
-50.000000 3.268824 0.000000
-44.605217 -0.320636 0.000000
10.269989 -50.000000 0.000000
16.908296 -50.000000 0.000000
0.072859 -44.647461 0.000000
6.741433 -44.657701 0.000000
-9.952180 -39.291028 0.000000
-3.266965 -39.284478 0.000000
-13.390001 -33.906358 0.000000
-16.608641 -28.432258 0.000000
-33.890716 -13.774062 0.000000
-28.527148 -17.139761 0.000000
-23.201668 -20.542864 0.000000
-18.558649 -23.489335 0.000000
-39.215405 -3.707329 0.000000
-33.820801 -7.126953 0.000000
-50.000000 9.961316 0.000000
-44.587833 6.336001 0.000000
-39.193055 2.955000 0.000000
-50.000000 16.723959 0.000000
23.537065 -50.000000 0.000000
30.158648 -50.000000 0.000000
13.403040 -44.678968 0.000000
20.066048 -44.711486 0.000000
3.411607 -39.299523 0.000000
10.072369 -39.333531 0.000000
-6.625032 -33.892796 0.000000
0.081950 -33.918938 0.000000
-9.973260 -28.440382 0.000000
-13.000441 -23.099752 0.000000
-28.423157 -10.531667 0.000000
-22.942712 -13.956457 0.000000
-16.848317 -17.463866 0.000000
-33.764578 -0.487517 0.000000
-28.406815 -3.977116 0.000000
-44.551407 13.030417 0.000000
-39.129832 9.585915 0.000000
-33.728891 6.049132 0.000000
-50.000000 23.589383 0.000000
-44.596860 19.827795 0.000000
-50.000000 30.549128 0.000000
36.772882 -50.000000 0.000000
43.386628 -50.000000 0.000000
26.725968 -44.751857 0.000000
33.362167 -44.876950 0.000000
16.722444 -39.390616 0.000000
23.402872 -39.461564 0.000000
6.755004 -33.953100 0.000000
13.393823 -34.021810 0.000000
-3.215625 -28.489018 0.000000
3.485042 -28.559697 0.000000
-6.484614 -23.019723 0.000000
-9.824613 -17.545736 0.000000
-23.009048 -7.384191 0.000000
-17.629070 -10.651923 0.000000
-12.660759 -12.869564 0.000000
-28.369072 2.586441 0.000000
-23.016550 -0.930475 0.000000
-38.994734 16.279020 0.000000
-28.338757 9.282545 0.000000
-33.516310 12.455088 0.000000
-44.740446 26.598759 0.000000
-38.712416 23.638624 0.000000
-44.987882 33.400494 0.000000
-50.000000 37.496897 0.000000
-50.000000 43.858335 0.000000
39.948633 -45.071025 0.000000
45.479466 -45.659969 0.000000
50.000000 -50.000000 0.000000
36.664361 -39.995242 0.000000
30.067373 -39.476735 0.000000
19.991032 -34.134732 0.000000
26.653441 -34.352411 0.000000
10.106886 -28.598255 0.000000
16.712423 -28.722312 0.000000
0.200673 -23.103772 0.000000
6.948930 -23.273976 0.000000
-3.233360 -17.496603 0.000000
-6.668286 -11.321404 0.000000
-17.624878 -4.221828 0.000000
-12.305455 -7.367633 0.000000
-22.950876 5.508677 0.000000
-17.708998 1.989701 0.000000
-22.618829 11.449293 0.000000
-33.311129 18.485558 0.000000
-27.389447 16.096895 0.000000
-33.030646 23.825223 0.000000
-40.299369 30.529091 0.000000
-35.398657 28.950595 0.000000
-39.914395 35.499862 0.000000
-43.915085 40.169494 0.000000
-45.270794 45.766004 0.000000
-50.000000 50.000000 0.000000
44.127608 -39.906612 0.000000
50.000000 -43.386642 0.000000
39.663573 -35.068290 0.000000
33.509680 -33.453036 0.000000
23.067760 -28.870439 0.000000
28.796414 -29.289578 0.000000
13.577839 -23.209293 0.000000
20.153844 -23.509873 0.000000
3.554139 -17.735448 0.000000
10.265379 -17.946730 0.000000
0.328855 -12.234049 0.000000
-1.932359 -6.528829 0.000000
-7.151129 -4.025427 0.000000
-12.332668 -1.176398 0.000000
-17.717413 8.025398 0.000000
-12.603286 4.810441 0.000000
-17.989242 13.133767 0.000000
-20.744760 16.799270 0.000000
-28.013544 22.501669 0.000000
-23.331751 20.989060 0.000000
-29.726028 28.644807 0.000000
-34.144876 34.082333 0.000000
-36.856405 39.942224 0.000000
-39.625312 45.266578 0.000000
-43.399356 50.000000 0.000000
44.593493 -32.997131 0.000000
50.000000 -36.760448 0.000000
39.161080 -29.613001 0.000000
33.553726 -26.411230 0.000000
27.259457 -23.381777 0.000000
23.158006 -18.723232 0.000000
17.103722 -17.066911 0.000000
6.873220 -12.350758 0.000000
12.487520 -12.836256 0.000000
-3.112234 -1.744108 0.000000
4.149122 -7.218595 0.000000
1.272531 -2.316871 0.000000
-6.738390 2.044252 0.000000
-8.070782 7.534344 0.000000
-12.327304 11.547113 0.000000
-15.053421 17.308130 0.000000
-18.463272 22.716149 0.000000
-23.562378 27.201687 0.000000
-26.935278 33.600272 0.000000
-30.033832 39.309302 0.000000
-33.107432 44.835375 0.000000
-36.635114 50.000000 0.000000
44.561330 -26.535289 0.000000
50.000000 -30.137117 0.000000
39.075498 -23.224685 0.000000
33.510220 -19.953682 0.000000
28.122366 -16.647335 0.000000
22.790630 -13.210641 0.000000
17.310099 -10.016016 0.000000
11.119054 -6.774412 0.000000
-1.105457 2.101288 0.000000
6.468224 -1.873621 0.000000
3.165226 1.432767 0.000000
-3.234384 6.983092 0.000000
-5.883844 12.188859 0.000000
-9.102160 17.432672 0.000000
-12.551678 22.883300 0.000000
-16.775312 28.027714 0.000000
-20.164862 33.352180 0.000000
-23.292772 38.987236 0.000000
-26.434653 44.608246 0.000000
-29.885886 50.000000 0.000000
44.545467 -19.974205 0.000000
50.000000 -23.507150 0.000000
39.079635 -16.649132 0.000000
33.647907 -13.347234 0.000000
28.249841 -10.051625 0.000000
22.854701 -6.705470 0.000000
17.428162 -3.456243 0.000000
12.262394 0.062066 0.000000
2.220690 6.116170 0.000000
7.341235 3.718082 0.000000
0.164554 11.785412 0.000000
-2.836182 17.322098 0.000000
-6.227375 22.809185 0.000000
-10.112387 28.128069 0.000000
-13.325191 33.543020 0.000000
-16.589099 38.992221 0.000000
-19.776628 44.499392 0.000000
-23.182328 50.000000 0.000000
44.558130 -13.352253 0.000000
50.000000 -16.868663 0.000000
39.131291 -10.027406 0.000000
33.727409 -6.714225 0.000000
28.349471 -3.397415 0.000000
22.998977 -0.085524 0.000000
17.741925 3.249485 0.000000
12.487976 6.465579 0.000000
7.052617 10.704073 0.000000
3.657447 17.033476 0.000000
0.299583 22.713159 0.000000
-3.139718 28.206725 0.000000
-6.479235 33.688149 0.000000
-9.816243 39.107600 0.000000
-13.113879 44.529223 0.000000
-16.550723 50.000000 0.000000
44.581200 -6.705260 0.000000
50.000000 -10.218427 0.000000
39.181051 -3.384502 0.000000
33.804257 -0.065297 0.000000
28.463127 3.257907 0.000000
23.179125 6.599521 0.000000
18.056672 9.926538 0.000000
12.920340 12.104591 0.000000
10.077144 17.119435 0.000000
6.782107 22.621856 0.000000
3.499338 28.189503 0.000000
0.187047 33.676441 0.000000
-3.140989 39.126411 0.000000
-6.440801 44.559782 0.000000
-9.909640 50.000000 0.000000
44.606495 -0.047986 0.000000
50.000000 -3.555549 0.000000
39.230644 3.271074 0.000000
33.879842 6.587525 0.000000
28.566614 9.920525 0.000000
23.230306 13.337821 0.000000
17.173281 16.941208 0.000000
13.148287 22.596203 0.000000
10.067688 28.173080 0.000000
6.857379 33.676296 0.000000
3.533506 39.136710 0.000000
0.220387 44.571699 0.000000
-3.259179 50.000000 0.000000
44.620852 6.619420 0.000000
50.000000 3.119698 0.000000
39.265813 9.928468 0.000000
33.947377 13.221174 0.000000
28.682202 16.526151 0.000000
23.557402 20.026205 0.000000
18.733152 23.055290 0.000000
16.596382 28.252531 0.000000
13.537210 33.723514 0.000000
10.196314 39.164243 0.000000
6.883937 44.578691 0.000000
3.395758 50.000000 0.000000
44.644823 13.277750 0.000000
50.000000 9.806157 0.000000
39.319004 16.568882 0.000000
34.031607 19.820849 0.000000
28.742546 22.884340 0.000000
23.438114 27.169903 0.000000
20.070965 33.278539 0.000000
16.749936 39.026600 0.000000
13.456352 44.522604 0.000000
10.054517 50.000000 0.000000
44.668026 19.939530 0.000000
50.000000 16.500520 0.000000
39.363983 23.227701 0.000000
34.138827 26.485095 0.000000
29.090604 28.509220 0.000000
26.337000 33.385208 0.000000
23.210924 38.954407 0.000000
20.044624 44.502806 0.000000
16.711747 50.000000 0.000000
44.675812 26.616478 0.000000
50.000000 23.198742 0.000000
39.357980 29.941669 0.000000
33.309885 33.352886 0.000000
29.524117 39.032369 0.000000
26.545697 44.502072 0.000000
23.368453 50.000000 0.000000
44.809620 33.272657 0.000000
50.000000 29.898846 0.000000
39.797160 36.582571 0.000000
34.914327 39.517040 0.000000
32.924208 44.509917 0.000000
30.026105 50.000000 0.000000
45.010630 39.867862 0.000000
50.000000 36.599652 0.000000
39.794573 43.964974 0.000000
36.682187 50.000000 0.000000
45.649113 45.407565 0.000000
50.000000 43.299751 0.000000
43.338327 50.000000 0.000000
50.000000 50.000000 0.000000
CELLS 578 2312
3 1 0 2
3 0 3 2
3 4 1 6
3 6 1 2
3 3 5 7
3 3 7 2
3 6 2 7
3 9 4 10
3 10 4 6
3 5 8 11
3 7 5 11
3 10 6 12
3 12 6 7
3 7 11 13
3 7 13 12
3 8 14 15
3 11 8 15
3 16 9 17
3 17 9 10
3 17 10 18
3 18 10 12
3 11 15 19
3 13 11 19
3 18 12 20
3 13 19 20
3 20 12 13
3 14 22 24
3 15 14 24
3 15 24 25
3 19 15 25
3 21 16 26
3 26 16 17
3 26 17 27
3 27 17 18
3 27 18 28
3 28 18 20
3 19 25 29
3 19 29 20
3 28 20 30
3 30 20 29
3 31 21 32
3 32 21 26
3 22 23 36
3 24 22 36
3 23 34 37
3 36 23 37
3 24 36 38
3 25 24 38
3 25 38 39
3 29 25 39
3 32 26 40
3 40 26 27
3 40 27 41
3 41 27 28
3 41 28 42
3 42 28 30
3 29 39 43
3 29 43 30
3 42 30 43
3 33 31 44
3 44 31 32
3 44 32 45
3 45 32 40
3 46 33 47
3 47 33 44
3 34 35 50
3 37 34 50
3 35 48 51
3 50 35 51
3 36 37 52
3 38 36 52
3 37 50 53
3 52 37 53
3 38 52 54
3 39 38 54
3 39 54 55
3 43 39 55
3 45 40 56
3 56 40 41
3 56 41 57
3 57 41 42
3 57 42 58
3 58 42 43
3 43 55 59
3 43 59 58
3 47 44 60
3 60 44 45
3 60 45 61
3 61 45 56
3 62 46 63
3 63 46 47
3 63 47 64
3 64 47 60
3 48 49 68
3 51 48 68
3 49 66 69
3 68 49 69
3 50 51 70
3 53 50 70
3 51 68 71
3 70 51 71
3 52 53 72
3 54 52 72
3 53 70 73
3 72 53 73
3 54 72 74
3 55 54 74
3 55 74 75
3 59 55 75
3 61 56 76
3 76 56 57
3 76 57 77
3 77 57 58
3 77 58 78
3 59 75 78
3 78 58 59
3 64 60 79
3 79 60 61
3 79 61 80
3 80 61 76
3 65 62 81
3 81 62 63
3 81 63 82
3 82 63 64
3 82 64 83
3 83 64 79
3 84 65 85
3 85 65 81
3 66 67 89
3 69 66 89
3 67 87 90
3 89 67 90
3 68 69 91
3 71 68 91
3 69 89 92
3 91 69 92
3 70 71 93
3 73 70 93
3 71 91 94
3 93 71 94
3 72 73 95
3 74 72 95
3 73 93 96
3 95 73 96
3 74 95 97
3 75 74 97
3 75 97 98
3 78 75 98
3 80 76 99
3 99 76 77
3 99 77 100
3 100 77 78
3 100 78 101
3 98 101 78
3 83 79 102
3 102 79 80
3 102 80 103
3 103 80 99
3 85 81 104
3 104 81 82
3 105 83 102
3 104 82 106
3 106 82 83
3 106 83 105
3 86 84 107
3 107 84 85
3 107 85 108
3 108 85 104
3 109 86 107
3 110 86 109
3 87 88 112
3 90 87 112
3 112 88 113
3 88 114 113
3 90 112 115
3 89 90 116
3 92 89 116
3 116 90 115
3 91 92 117
3 94 91 117
3 92 116 118
3 117 92 118
3 93 94 119
3 96 93 119
3 94 117 120
3 119 94 120
3 95 96 121
3 97 95 121
3 96 119 122
3 121 96 122
3 97 121 123
3 98 97 123
3 98 123 124
3 98 124 101
3 103 99 125
3 125 99 100
3 125 100 126
3 126 100 101
3 126 101 124
3 105 102 127
3 127 102 103
3 127 103 128
3 128 103 125
3 129 105 127
3 108 104 130
3 130 104 106
3 130 106 131
3 131 106 105
3 131 105 129
3 108 130 132
3 109 107 133
3 133 107 108
3 133 108 134
3 108 132 134
3 135 109 133
3 111 110 136
3 136 110 109
3 136 109 135
3 137 111 136
3 138 111 137
3 112 113 139
3 115 112 139
3 114 140 113
3 140 139 113
3 139 141 115
3 116 115 142
3 118 116 142
3 142 115 141
3 117 118 143
3 120 117 143
3 118 142 144
3 143 118 144
3 119 120 145
3 122 119 145
3 120 143 146
3 145 120 146
3 121 122 147
3 123 121 147
3 122 145 148
3 147 122 148
3 123 147 149
3 124 123 149
3 124 149 150
3 151 126 124
3 124 150 151
3 128 125 152
3 152 125 126
3 152 126 151
3 129 127 153
3 153 127 128
3 128 152 154
3 153 128 154
3 155 129 153
3 131 129 156
3 156 129 155
3 132 130 157
3 130 131 157
3 157 131 158
3 131 156 158
3 132 157 159
3 132 159 134
3 135 133 160
3 160 133 134
3 160 134 159
3 136 135 161
3 135 160 161
3 162 137 136
3 161 162 136
3 163 138 137
3 162 163 137
3 139 164 141
3 140 165 139
3 139 165 164
3 141 164 166
3 141 166 142
3 166 167 142
3 144 142 167
3 167 168 144
3 143 144 168
3 146 143 168
3 168 169 146
3 145 146 170
3 148 145 170
3 170 146 169
3 147 148 171
3 149 147 171
3 148 170 172
3 171 148 172
3 173 151 150
3 149 171 174
3 150 149 174
3 150 174 175
3 150 175 173
3 154 152 176
3 152 151 176
3 176 151 173
3 154 176 177
3 155 153 178
3 177 178 154
3 154 178 153
3 156 155 179
3 155 178 179
3 180 158 156
3 179 180 156
3 181 159 157
3 180 181 158
3 181 157 158
3 182 160 159
3 181 182 159
3 183 161 160
3 182 183 160
3 184 162 161
3 184 161 183
3 185 163 162
3 184 185 162
3 164 186 166
3 165 187 164
3 164 187 186
3 166 186 188
3 166 188 167
3 167 188 189
3 167 189 168
3 168 189 190
3 168 190 169
3 169 190 191
3 169 191 170
3 192 172 170
3 170 191 192
3 192 193 172
3 171 172 193
3 174 171 193
3 194 173 175
3 176 173 194
3 175 174 195
3 193 195 174
3 195 196 175
3 175 196 194
3 197 177 176
3 194 197 176
3 198 178 177
3 197 198 177
3 199 179 178
3 198 199 178
3 200 180 179
3 199 200 179
3 201 181 180
3 200 201 180
3 202 182 181
3 201 202 181
3 203 183 182
3 202 203 182
3 204 184 183
3 203 204 183
3 205 185 184
3 204 205 184
3 186 206 188
3 187 207 186
3 186 207 206
3 188 206 208
3 188 208 189
3 189 208 209
3 189 209 190
3 190 209 210
3 190 210 191
3 191 210 211
3 191 211 192
3 192 211 212
3 192 212 193
3 193 212 213
3 193 213 195
3 214 197 194
3 214 194 196
3 195 213 215
3 195 215 196
3 196 215 214
3 216 198 197
3 214 216 197
3 217 199 198
3 216 217 198
3 218 200 199
3 217 218 199
3 219 201 200
3 218 219 200
3 220 202 201
3 219 220 201
3 221 203 202
3 220 221 202
3 222 204 203
3 221 222 203
3 223 205 204
3 222 223 204
3 206 224 208
3 207 225 206
3 206 225 224
3 208 224 226
3 208 226 209
3 209 226 227
3 209 227 210
3 210 227 228
3 210 228 211
3 211 228 229
3 211 229 212
3 212 229 230
3 212 230 213
3 213 230 231
3 213 231 215
3 232 216 214
3 215 231 232
3 232 214 215
3 233 217 216
3 232 233 216
3 234 218 217
3 233 234 217
3 235 219 218
3 234 235 218
3 236 220 219
3 235 236 219
3 237 221 220
3 236 237 220
3 238 222 221
3 237 238 221
3 239 223 222
3 238 239 222
3 224 240 226
3 225 241 224
3 224 241 240
3 226 240 242
3 226 242 227
3 227 242 243
3 227 243 228
3 228 243 244
3 228 244 229
3 244 245 229
3 229 245 230
3 230 245 246
3 230 246 231
3 231 246 247
3 231 247 232
3 248 233 232
3 248 232 247
3 249 234 233
3 248 249 233
3 250 235 234
3 249 250 234
3 251 236 235
3 250 251 235
3 252 237 236
3 251 252 236
3 253 238 237
3 252 253 237
3 254 239 238
3 253 254 238
3 240 255 242
3 241 256 240
3 240 256 255
3 242 255 257
3 242 257 243
3 243 257 258
3 243 258 244
3 244 258 259
3 244 259 245
3 245 259 260
3 245 260 246
3 246 260 261
3 246 261 247
3 248 247 261
3 262 249 248
3 261 262 248
3 263 250 249
3 262 263 249
3 264 251 250
3 263 264 250
3 265 252 251
3 264 265 251
3 266 253 252
3 265 266 252
3 267 254 253
3 266 267 253
3 255 268 257
3 256 269 255
3 255 269 268
3 257 268 270
3 257 270 258
3 258 270 271
3 258 271 259
3 259 271 272
3 259 272 260
3 260 272 273
3 260 273 261
3 274 262 261
3 261 273 274
3 275 263 262
3 274 275 262
3 276 264 263
3 275 276 263
3 277 265 264
3 276 277 264
3 278 266 265
3 277 278 265
3 279 267 266
3 278 279 266
3 268 280 270
3 269 281 268
3 268 281 280
3 270 280 282
3 270 282 271
3 271 282 283
3 271 283 272
3 283 284 272
3 272 284 273
3 285 275 274
3 273 284 285
3 285 274 273
3 286 276 275
3 285 286 275
3 287 277 276
3 286 287 276
3 288 278 277
3 287 288 277
3 289 279 278
3 288 289 278
3 280 290 282
3 281 291 280
3 280 291 290
3 282 290 292
3 282 292 283
3 283 292 293
3 283 293 284
3 284 293 294
3 284 294 285
3 295 286 285
3 295 285 294
3 296 287 286
3 295 296 286
3 297 288 287
3 296 297 287
3 298 289 288
3 297 298 288
3 290 299 292
3 291 300 290
3 290 300 299
3 292 299 301
3 292 301 293
3 293 301 302
3 293 302 294
3 294 302 295
3 303 296 295
3 303 295 302
3 304 297 296
3 303 304 296
3 305 298 297
3 304 305 297
3 299 306 301
3 300 307 299
3 299 307 306
3 301 306 308
3 301 308 302
3 309 303 302
3 302 308 309
3 310 304 303
3 309 310 303
3 311 305 304
3 310 311 304
3 306 312 308
3 307 313 306
3 306 313 312
3 314 310 309
3 308 312 314
3 314 309 308
3 315 311 310
3 314 315 310
3 312 316 314
3 313 317 312
3 312 317 316
3 318 315 314
3 318 314 316
3 317 319 316
3 319 318 316
CELL_TYPES 578
5
5
5
5
5
5
5
5
5
5
5
5
5
5
5
5
5
5
5
5
5
5
5
5
5
5
5
5
5
5
5
5
5
5
5
5
5
5
5
5
5
5
5
5
5
5
5
5
5
5
5
5
5
5
5
5
5
5
5
5
5
5
5
5
5
5
5
5
5
5
5
5
5
5
5
5
5
5
5
5
5
5
5
5
5
5
5
5
5
5
5
5
5
5
5
5
5
5
5
5
5
5
5
5
5
5
5
5
5
5
5
5
5
5
5
5
5
5
5
5
5
5
5
5
5
5
5
5
5
5
5
5
5
5
5
5
5
5
5
5
5
5
5
5
5
5
5
5
5
5
5
5
5
5
5
5
5
5
5
5
5
5
5
5
5
5
5
5
5
5
5
5
5
5
5
5
5
5
5
5
5
5
5
5
5
5
5
5
5
5
5
5
5
5
5
5
5
5
5
5
5
5
5
5
5
5
5
5
5
5
5
5
5
5
5
5
5
5
5
5
5
5
5
5
5
5
5
5
5
5
5
5
5
5
5
5
5
5
5
5
5
5
5
5
5
5
5
5
5
5
5
5
5
5
5
5
5
5
5
5
5
5
5
5
5
5
5
5
5
5
5
5
5
5
5
5
5
5
5
5
5
5
5
5
5
5
5
5
5
5
5
5
5
5
5
5
5
5
5
5
5
5
5
5
5
5
5
5
5
5
5
5
5
5
5
5
5
5
5
5
5
5
5
5
5
5
5
5
5
5
5
5
5
5
5
5
5
5
5
5
5
5
5
5
5
5
5
5
5
5
5
5
5
5
5
5
5
5
5
5
5
5
5
5
5
5
5
5
5
5
5
5
5
5
5
5
5
5
5
5
5
5
5
5
5
5
5
5
5
5
5
5
5
5
5
5
5
5
5
5
5
5
5
5
5
5
5
5
5
5
5
5
5
5
5
5
5
5
5
5
5
5
5
5
5
5
5
5
5
5
5
5
5
5
5
5
5
5
5
5
5
5
5
5
5
5
5
5
5
5
5
5
5
5
5
5
5
5
5
5
5
5
5
5
5
5
5
5
5
5
5
5
5
5
5
5
5
5
5
5
5
5
5
5
5
5
5
5
5
5
5
5
5
5
5
5
5
5
5
5
5
5
5
5
5
5
5
5
5
5
5
5
5
5
5
5
5
5
5
5
5
5
5
5
5
5
5
5
5
5
5
5
5
5
5
5
5
5
5
5
5
5
5
5
5
5
5
5
5
5
5
5
5
5
5
5
5
5
5
5
5
5
5
5
5
5
5
5
5
5
5
5
5
5
5
5
5
5
POINT_DATA 320
SCALARS theta_e float 1
LOOKUP_TABLE default
0.994153
0.994139
0.994149
0.994152
0.994104
0.994137
0.994125
0.994135
0.994100
0.994047
0.994078
0.994112
0.994096
0.994100
0.994041
0.994063
0.993971
0.994010
0.994037
0.994059
0.994043
0.993880
0.993960
0.993860
0.993994
0.994002
0.993926
0.993961
0.993980
0.993995
0.993975
0.993780
0.993831
0.993674
0.993751
0.993640
0.993904
0.993801
0.993925
0.993927
0.993876
0.993906
0.993915
0.993912
0.993728
0.993782
0.993565
0.993620
0.993533
0.993432
0.993692
0.993584
0.993831
0.993728
0.993846
0.993852
0.993825
0.993849
0.993853
0.993842
0.993681
0.993735
0.993454
0.993511
0.993577
0.993344
0.993342
0.993267
0.993479
0.993383
0.993621
0.993517
0.993752
0.993650
0.993775
0.993791
0.993773
0.993792
0.993794
0.993640
0.993686
0.993403
0.993474
0.993544
0.993241
0.993300
0.993153
0.993211
0.993184
0.993299
0.993234
0.993419
0.993332
0.993547
0.993449
0.993687
0.993589
0.993726
0.993740
0.993716
0.993760
0.993746
0.993596
0.993627
0.993375
0.993513
0.993454
0.993207
0.993284
0.993128
0.993087
0.993048
0.993193
0.993179
0.993181
0.993215
0.993262
0.993363
0.993295
0.993488
0.993397
0.993652
0.993565
0.993682
0.993721
0.993712
0.993734
0.993544
0.993632
0.993479
0.993375
0.993439
0.993314
0.993195
0.993252
0.993136
0.993081
0.993044
0.993029
0.993191
0.993182
0.993218
0.993250
0.993330
0.993287
0.993463
0.993377
0.993638
0.993580
0.993715
0.993919
0.993673
0.993661
0.993555
0.993604
0.993474
0.993436
0.993368
0.993407
0.993295
0.993206
0.993128
0.993077
0.993047
0.993223
0.993201
0.993256
0.993287
0.993326
0.993386
0.993490
0.993653
0.993631
0.993982
0.993776
0.994219
0.993490
0.993437
0.993588
0.993459
0.993414
0.993360
0.993277
0.993195
0.993129
0.993088
0.993281
0.993249
0.993314
0.993344
0.993385
0.993476
0.993601
0.993617
0.994071
0.993700
0.994303
0.993371
0.993480
0.993553
0.993451
0.993408
0.993347
0.993270
0.993199
0.993149
0.993357
0.993317
0.993394
0.993427
0.993476
0.993577
0.993676
0.993593
0.993759
0.993734
0.993405
0.993587
0.993529
0.993469
0.993422
0.993355
0.993284
0.993228
0.993452
0.993403
0.993493
0.993528
0.993578
0.993662
0.993707
0.993626
0.993548
0.993629
0.993618
0.993549
0.993509
0.993452
0.993384
0.993324
0.993561
0.993505
0.993606
0.993641
0.993679
0.993728
0.993755
0.993726
0.993709
0.993699
0.993647
0.993611
0.993562
0.993497
0.993436
0.993680
0.993620
0.993726
0.993757
0.993777
0.993789
0.993787
0.993770
0.993748
0.993721
0.993679
0.993619
0.993557
0.993801
0.993741
0.993844
0.993867
0.993869
0.993855
0.993834
0.993844
0.993829
0.993795
0.993740
0.993681
0.993913
0.993860
0.993948
0.993961
0.993949
0.993925
0.993926
0.993900
0.993854
0.993800
0.994005
0.993963
0.994027
0.994028
0.994007
0.994004
0.993985
0.993951
0.993906
0.994070
0.994044
0.994079
0.994065
0.994050
0.994027
0.993992
0.994112
0.994098
0.994109
0.994094
0.994084
0.994058
0.994134
0.994131
0.994122
0.994107
0.994145
0.994147
0.994136
0.994150
VECTORS fa_u float
0.000000 0.000000 0.000000
0.000000 0.000000 0.000000
0.000000 0.000000 0.000000
0.000000 0.000000 0.000000
0.000000 0.000000 0.000000
0.000000 0.000000 0.000000
0.000000 0.000000 0.000000
0.000000 0.000000 0.000000
0.000000 0.000000 0.000000
0.000000 0.000000 0.000000
0.000000 0.000000 0.000000
0.000000 0.000000 0.000000
0.000000 0.000000 0.000000
0.000000 0.000000 0.000000
0.000000 0.000000 0.000000
0.000000 0.000000 0.000000
0.000000 0.000000 0.000000
0.000000 0.000000 0.000000
0.000000 0.000000 0.000000
0.000000 0.000000 0.000000
0.000000 0.000000 0.000000
0.000000 0.000000 0.000000
0.000000 0.000000 0.000000
0.000000 0.000000 0.000000
0.000000 0.000000 0.000000
0.000000 0.000000 0.000000
0.000000 0.000000 0.000000
0.000000 0.000000 0.000000
0.000000 0.000000 0.000000
0.000000 0.000000 0.000000
0.000000 0.000000 0.000000
0.000000 0.000000 0.000000
0.000000 0.000000 0.000000
0.000000 0.000000 0.000000
0.000000 0.000000 0.000000
0.000000 0.000000 0.000000
0.000000 0.000000 0.000000
0.000000 0.000000 0.000000
0.000000 0.000000 0.000000
0.000000 0.000000 0.000000
0.000000 0.000000 0.000000
0.000000 0.000000 0.000000
0.000000 0.000000 0.000000
0.000000 0.000000 0.000000
0.000000 0.000000 0.000000
0.000000 0.000000 0.000000
0.000000 0.000000 0.000000
0.000000 0.000000 0.000000
0.000000 0.000000 0.000000
0.000000 0.000000 0.000000
0.000000 0.000000 0.000000
0.000000 0.000000 0.000000
0.000000 0.000000 0.000000
0.000000 0.000000 0.000000
0.000000 0.000000 0.000000
0.000000 0.000000 0.000000
0.000000 0.000000 0.000000
0.000000 0.000000 0.000000
0.000000 0.000000 0.000000
0.000000 0.000000 0.000000
0.000000 0.000000 0.000000
0.000000 0.000000 0.000000
0.000000 0.000000 0.000000
0.000000 0.000000 0.000000
0.000000 0.000000 0.000000
0.000000 0.000000 0.000000
0.000000 0.000000 0.000000
0.000000 0.000000 0.000000
0.000000 0.000000 0.000000
0.000000 0.000000 0.000000
0.000000 0.000000 0.000000
0.000000 0.000000 0.000000
0.000000 0.000000 0.000000
0.000000 0.000000 0.000000
0.000000 0.000000 0.000000
0.000000 0.000000 0.000000
0.000000 0.000000 0.000000
0.000000 0.000000 0.000000
0.000000 0.000000 0.000000
0.000000 0.000000 0.000000
0.000000 0.000000 0.000000
0.000000 0.000000 0.000000
0.000000 0.000000 0.000000
0.000000 0.000000 0.000000
0.000000 0.000000 0.000000
0.000000 0.000000 0.000000
0.000000 0.000000 0.000000
0.000000 0.000000 0.000000
0.000000 0.000000 0.000000
0.000000 0.000000 0.000000
0.000000 0.000000 0.000000
0.000000 0.000000 0.000000
0.000000 0.000000 0.000000
0.000000 0.000000 0.000000
0.000000 0.000000 0.000000
0.000000 0.000000 0.000000
0.000000 0.000000 0.000000
0.000000 0.000000 0.000000
0.000000 0.000000 0.000000
0.000000 0.000000 0.000000
0.000000 0.000000 0.000000
0.000000 0.000000 0.000000
0.000000 0.000000 0.000000
0.000000 0.000000 0.000000
0.000000 0.000000 0.000000
0.000000 0.000000 0.000000
0.000000 0.000000 0.000000
0.000000 0.000000 0.000000
0.000000 0.000000 0.000000
0.000000 0.000000 0.000000
0.000000 0.000000 0.000000
0.000000 0.000000 0.000000
0.000000 0.000000 0.000000
0.000000 0.000000 0.000000
0.000000 0.000000 0.000000
0.000000 0.000000 0.000000
0.000000 0.000000 0.000000
0.000000 0.000000 0.000000
0.000000 0.000000 0.000000
0.000000 0.000000 0.000000
0.000000 0.000000 0.000000
0.000000 0.000000 0.000000
0.000000 0.000000 0.000000
0.000000 0.000000 0.000000
0.000000 0.000000 0.000000
0.000000 0.000000 0.000000
0.000000 0.000000 0.000000
0.000000 0.000000 0.000000
0.000000 0.000000 0.000000
0.000000 0.000000 0.000000
0.000000 0.000000 0.000000
0.000000 0.000000 0.000000
0.000000 0.000000 0.000000
0.000000 0.000000 0.000000
0.000000 0.000000 0.000000
0.000000 0.000000 0.000000
0.000000 0.000000 0.000000
0.000000 0.000000 0.000000
0.000000 0.000000 0.000000
0.000000 0.000000 0.000000
0.000000 0.000000 0.000000
0.000000 0.000000 0.000000
0.000000 0.000000 0.000000
0.000000 0.000000 0.000000
0.000000 0.000000 0.000000
0.000000 0.000000 0.000000
0.000000 0.000000 0.000000
0.000000 0.000000 0.000000
0.000000 0.000000 0.000000
0.000000 0.000000 0.000000
0.000000 0.000000 0.000000
0.000000 0.000000 0.000000
0.000000 0.000000 0.000000
0.000000 0.000000 0.000000
0.000000 0.000000 0.000000
0.000000 0.000000 0.000000
0.000000 0.000000 0.000000
0.000000 0.000000 0.000000
0.000000 0.000000 0.000000
0.000000 0.000000 0.000000
0.000000 0.000000 0.000000
0.000000 0.000000 0.000000
0.000000 0.000000 0.000000
0.000000 0.000000 0.000000
0.000000 0.000000 0.000000
0.000000 0.000000 0.000000
0.000000 0.000000 0.000000
0.000000 0.000000 0.000000
0.000000 0.000000 0.000000
0.000000 0.000000 0.000000
0.000000 0.000000 0.000000
0.000000 0.000000 0.000000
0.000000 0.000000 0.000000
0.000000 0.000000 0.000000
0.000000 0.000000 0.000000
0.000000 0.000000 0.000000
0.000000 0.000000 0.000000
0.000000 0.000000 0.000000
0.000000 0.000000 0.000000
0.000000 0.000000 0.000000
0.000000 0.000000 0.000000
0.000000 0.000000 0.000000
0.000000 0.000000 0.000000
0.000000 0.000000 0.000000
0.000000 0.000000 0.000000
0.000000 0.000000 0.000000
0.000000 0.000000 0.000000
0.000000 0.000000 0.000000
0.000000 0.000000 0.000000
0.000000 0.000000 0.000000
0.000000 0.000000 0.000000
0.000000 0.000000 0.000000
0.000000 0.000000 0.000000
0.000000 0.000000 0.000000
0.000000 0.000000 0.000000
0.000000 0.000000 0.000000
0.000000 0.000000 0.000000
0.000000 0.000000 0.000000
0.000000 0.000000 0.000000
0.000000 0.000000 0.000000
0.000000 0.000000 0.000000
0.000000 0.000000 0.000000
0.000000 0.000000 0.000000
0.000000 0.000000 0.000000
0.000000 0.000000 0.000000
0.000000 0.000000 0.000000
0.000000 0.000000 0.000000
0.000000 0.000000 0.000000
0.000000 0.000000 0.000000
0.000000 0.000000 0.000000
0.000000 0.000000 0.000000
0.000000 0.000000 0.000000
0.000000 0.000000 0.000000
0.000000 0.000000 0.000000
0.000000 0.000000 0.000000
0.000000 0.000000 0.000000
0.000000 0.000000 0.000000
0.000000 0.000000 0.000000
0.000000 0.000000 0.000000
0.000000 0.000000 0.000000
0.000000 0.000000 0.000000
0.000000 0.000000 0.000000
0.000000 0.000000 0.000000
0.000000 0.000000 0.000000
0.000000 0.000000 0.000000
0.000000 0.000000 0.000000
0.000000 0.000000 0.000000
0.000000 0.000000 0.000000
0.000000 0.000000 0.000000
0.000000 0.000000 0.000000
0.000000 0.000000 0.000000
0.000000 0.000000 0.000000
0.000000 0.000000 0.000000
0.000000 0.000000 0.000000
0.000000 0.000000 0.000000
0.000000 0.000000 0.000000
0.000000 0.000000 0.000000
0.000000 0.000000 0.000000
0.000000 0.000000 0.000000
0.000000 0.000000 0.000000
0.000000 0.000000 0.000000
0.000000 0.000000 0.000000
0.000000 0.000000 0.000000
0.000000 0.000000 0.000000
0.000000 0.000000 0.000000
0.000000 0.000000 0.000000
0.000000 0.000000 0.000000
0.000000 0.000000 0.000000
0.000000 0.000000 0.000000
0.000000 0.000000 0.000000
0.000000 0.000000 0.000000
0.000000 0.000000 0.000000
0.000000 0.000000 0.000000
0.000000 0.000000 0.000000
0.000000 0.000000 0.000000
0.000000 0.000000 0.000000
0.000000 0.000000 0.000000
0.000000 0.000000 0.000000
0.000000 0.000000 0.000000
0.000000 0.000000 0.000000
0.000000 0.000000 0.000000
0.000000 0.000000 0.000000
0.000000 0.000000 0.000000
0.000000 0.000000 0.000000
0.000000 0.000000 0.000000
0.000000 0.000000 0.000000
0.000000 0.000000 0.000000
0.000000 0.000000 0.000000
0.000000 0.000000 0.000000
0.000000 0.000000 0.000000
0.000000 0.000000 0.000000
0.000000 0.000000 0.000000
0.000000 0.000000 0.000000
0.000000 0.000000 0.000000
0.000000 0.000000 0.000000
0.000000 0.000000 0.000000
0.000000 0.000000 0.000000
0.000000 0.000000 0.000000
0.000000 0.000000 0.000000
0.000000 0.000000 0.000000
0.000000 0.000000 0.000000
0.000000 0.000000 0.000000
0.000000 0.000000 0.000000
0.000000 0.000000 0.000000
0.000000 0.000000 0.000000
0.000000 0.000000 0.000000
0.000000 0.000000 0.000000
0.000000 0.000000 0.000000
0.000000 0.000000 0.000000
0.000000 0.000000 0.000000
0.000000 0.000000 0.000000
0.000000 0.000000 0.000000
0.000000 0.000000 0.000000
0.000000 0.000000 0.000000
0.000000 0.000000 0.000000
0.000000 0.000000 0.000000
0.000000 0.000000 -50.000000
-50.000000 0.000000 -50.000000
-43.342132 0.000000 -45.685885
-45.526401 0.000000 -43.280572
-50.000000 0.000000 -50.000000
-36.682719 0.000000 -36.562241
-50.000000 0.000000 -45.077529
-40.035829 0.000000 -40.014194
-44.198667 0.000000 -29.844857
-50.000000 0.000000 -50.000000
-30.022401 0.000000 -44.843359
-33.554132 0.000000 -33.107037
-44.720655 0.000000 -39.850636
-36.875027 0.000000 -35.100526
-39.878994 0.000000 -23.129731
-50.000000 0.000000 -26.485742
-44.710280 0.000000 -50.000000
-23.363065 0.000000 -44.659990
-26.951715 0.000000 -39.343579
-30.356694 0.000000 -29.564540
-39.438874 0.000000 -33.333356
-33.772474 0.000000 -50.000000
-16.703069 0.000000 -16.424524
-50.000000 0.000000 -9.731236
