# vtk DataFile Version 2.0
CellBP Time: 2.6
ASCII
DATASET UNSTRUCTURED_GRID
POINTS 320 double
-50.000000 -50.000000 0.000000
-50.000000 -43.339463 0.000000
-45.690536 -45.524788 0.000000
-43.287503 -50.000000 0.000000
-50.000000 -36.678078 0.000000
-36.575377 -50.000000 0.000000
-45.082433 -40.032491 0.000000
-40.024279 -44.196826 0.000000
-29.863390 -50.000000 0.000000
-50.000000 -30.016316 0.000000
-44.847623 -33.549321 0.000000
-33.123159 -44.719543 0.000000
-39.859630 -36.871541 0.000000
-35.114055 -39.876555 0.000000
-23.152419 -50.000000 0.000000
-26.506550 -44.709597 0.000000
-50.000000 -23.356162 0.000000
-44.663368 -26.945989 0.000000
-39.351229 -30.351949 0.000000
-29.582348 -39.437174 0.000000
-33.346391 -33.769229 0.000000
-50.000000 -16.696235 0.000000
-16.449811 -50.000000 0.000000
-9.757417 -50.000000 0.000000
-19.923640 -44.628969 0.000000
-23.176876 -39.192994 0.000000
-44.687781 -20.279140 0.000000
-39.350797 -23.695451 0.000000
-34.074794 -27.092524 0.000000
-26.349101 -33.695546 0.000000
-29.114577 -29.076356 0.000000
-50.000000 -10.038780 0.000000
-44.658739 -13.632879 0.000000
-50.000000 -3.385991 0.000000
-3.074618 -50.000000 0.000000
3.595384 -50.000000 0.000000
-13.294300 -44.635377 0.000000
-6.627443 -44.645140 0.000000
-16.639889 -39.225450 0.000000
-20.053320 -33.460293 0.000000
-39.315318 -17.014361 0.000000
-33.984093 -20.474564 0.000000
-28.730987 -23.640095 0.000000
-23.448333 -27.520703 0.000000
-44.620794 -6.969523 0.000000
-39.256380 -10.360309 0.000000
-50.000000 3.269578 0.000000
-44.603692 -0.319161 0.000000
10.250740 -50.000000 0.000000
16.892963 -50.000000 0.000000
0.047928 -44.648953 0.000000
6.719142 -44.659182 0.000000
-9.976611 -39.292741 0.000000
-3.290650 -39.287129 0.000000
-13.411088 -33.908297 0.000000
-16.625362 -28.433898 0.000000
-33.892862 -13.771373 0.000000
-28.532272 -17.138438 0.000000
-23.210337 -20.543168 0.000000
-18.570682 -23.490836 0.000000
-39.213355 -3.705743 0.000000
-33.819222 -7.125967 0.000000
-50.000000 9.959260 0.000000
-44.585680 6.335094 0.000000
-39.189386 2.954324 0.000000
-50.000000 16.719605 0.000000
23.525654 -50.000000 0.000000
30.150794 -50.000000 0.000000
13.384200 -44.680136 0.000000
20.051051 -44.712134 0.000000
3.389974 -39.302481 0.000000
10.053727 -39.336119 0.000000
-6.645752 -33.896312 0.000000
0.062621 -33.923303 0.000000
-9.989800 -28.444296 0.000000
-13.012551 -23.103772 0.000000
-28.423173 -10.531793 0.000000
-22.945295 -13.958030 0.000000
-16.854812 -17.467274 0.000000
-33.760134 -0.488704 0.000000
-28.402529 -3.979303 0.000000
-44.548987 13.027298 0.000000
-39.125347 9.583049 0.000000
-33.722784 6.045879 0.000000
-50.000000 23.583843 0.000000
-44.594474 19.822963 0.000000
-50.000000 30.543940 0.000000
36.768030 -50.000000 0.000000
43.384261 -50.000000 0.000000
26.714803 -44.751786 0.000000
33.354543 -44.876171 0.000000
16.707264 -39.392311 0.000000
23.391203 -39.462024 0.000000
6.738069 -33.957329 0.000000
13.379866 -34.024900 0.000000
-3.231125 -28.494507 0.000000
3.471304 -28.565534 0.000000
-6.495699 -23.026091 0.000000
-9.831300 -17.552265 0.000000
-23.005710 -7.387329 0.000000
-17.628300 -10.655899 0.000000
-12.663064 -12.874808 0.000000
-28.361943 2.581867 0.000000
-23.008892 -0.935974 0.000000
-38.989901 16.274050 0.000000
-28.330300 9.276235 0.000000
-33.509513 12.450075 0.000000
-44.738307 26.593609 0.000000
-38.707753 23.632625 0.000000
-44.986368 33.396271 0.000000
-50.000000 37.493271 0.000000
-50.000000 43.856706 0.000000
39.944054 -45.069797 0.000000
45.477250 -45.658625 0.000000
50.000000 -50.000000 0.000000
36.659100 -39.993334 0.000000
30.059095 -39.475807 0.000000
19.980093 -34.136029 0.000000
26.645314 -34.351746 0.000000
10.095535 -28.602999 0.000000
16.703613 -28.724841 0.000000
0.191275 -23.111279 0.000000
6.941459 -23.280750 0.000000
-3.238528 -17.505820 0.000000
-6.668415 -11.331604 0.000000
-17.617415 -4.227442 0.000000
-12.300495 -7.373181 0.000000
-22.941182 5.500921 0.000000
-17.697563 1.981343 0.000000
-22.609286 11.440514 0.000000
-33.304437 18.479290 0.000000
-27.380878 16.089640 0.000000
-33.024655 23.818399 0.000000
-40.296351 30.524574 0.000000
-35.394052 28.944928 0.000000
-39.911594 35.496043 0.000000
-43.913296 40.166783 0.000000
-45.269340 45.764964 0.000000
-50.000000 50.000000 0.000000
44.125167 -39.903889 0.000000
50.000000 -43.385624 0.000000
39.660293 -35.064660 0.000000
33.504704 -33.450405 0.000000
23.061150 -28.870385 0.000000
28.791558 -29.287278 0.000000
13.572576 -23.213585 0.000000
20.150047 -23.510738 0.000000
3.551483 -17.744971 0.000000
10.264547 -17.953400 0.000000
0.330115 -12.247658 0.000000
-1.919307 -6.548703 0.000000
-7.136167 -4.039258 0.000000
-12.320089 -1.184628 0.000000
-17.705858 8.015081 0.000000
-12.589191 4.799518 0.000000
-17.979320 13.123611 0.000000
-20.736059 16.789872 0.000000
-28.006546 22.494382 0.000000
-23.323916 20.980606 0.000000
-29.720597 28.638136 0.000000
-34.140419 34.077725 0.000000
-36.852688 39.939049 0.000000
-39.622257 45.265246 0.000000
-43.397186 50.000000 0.000000
44.592093 -32.992129 0.000000
50.000000 -36.758115 0.000000
39.158861 -29.607456 0.000000
33.551477 -26.406300 0.000000
27.257332 -23.378712 0.000000
23.157927 -18.721352 0.000000
17.104522 -17.068892 0.000000
6.877708 -12.361345 0.000000
12.491497 -12.840929 0.000000
-3.096184 -1.765510 0.000000
4.167828 -7.237273 0.000000
1.294544 -2.334409 0.000000
-6.720148 2.028218 0.000000
-8.057403 7.521049 0.000000
-12.315136 11.534464 0.000000
-15.044056 17.296935 0.000000
-18.455674 22.706567 0.000000
-23.556112 27.193760 0.000000
-26.929687 33.594095 0.000000
-30.028616 39.305331 0.000000
-33.102941 44.833448 0.000000
-36.630818 50.000000 0.000000
44.560617 -26.527520 0.000000
50.000000 -30.132437 0.000000
39.074962 -23.216560 0.000000
33.510512 -19.946245 0.000000
28.124056 -16.641585 0.000000
22.794578 -13.207581 0.000000
17.317184 -10.017000 0.000000
11.133250 -6.780402 0.000000
-1.093559 2.076267 0.000000
6.490349 -1.882747 0.000000
3.181129 1.419996 0.000000
-3.221412 6.964243 0.000000
-5.872961 12.174772 0.000000
-9.092840 17.420529 0.000000
-12.544013 22.872966 0.000000
-16.768922 28.019012 0.000000
-20.159073 33.345153 0.000000
-23.287497 38.982403 0.000000
-26.429707 44.605950 0.000000
-29.880516 50.000000 0.000000
44.545691 -19.963093 0.000000
50.000000 -23.499670 0.000000
39.080806 -16.637733 0.000000
33.650767 -13.336678 0.000000
28.254557 -10.043317 0.000000
22.861995 -6.700185 0.000000
17.438890 -3.454320 0.000000
12.279350 0.060611 0.000000
2.232591 6.096523 0.000000
7.358130 3.714363 0.000000
0.173260 11.769950 0.000000
-2.828353 17.309887 0.000000
-6.220264 22.798841 0.000000
-10.106209 28.119117 0.000000
-13.320128 33.535726 0.000000
-16.584621 38.987104 0.000000
-19.772352 44.496736 0.000000
-23.177071 50.000000 0.000000
44.559134 -13.337393 0.000000
50.000000 -16.857601 0.000000
39.133854 -10.012379 0.000000
33.731763 -6.700461 0.000000
28.355866 -3.386121 0.000000
23.007583 -0.077298 0.000000
17.752787 3.255187 0.000000
12.500048 6.468155 0.000000
7.059380 10.698123 0.000000
3.662854 17.025564 0.000000
0.304669 22.704966 0.000000
-3.135106 28.199202 0.000000
-6.475712 33.681783 0.000000
-9.813444 39.102858 0.000000
-13.111127 44.526635 0.000000
-16.546812 50.000000 0.000000
44.582721 -6.686720 0.000000
50.000000 -10.203390 0.000000
39.184190 -3.366174 0.000000
33.809073 -0.048598 0.000000
28.469476 3.271846 0.000000
23.186620 6.610299 0.000000
18.063928 9.933907 0.000000
12.926317 12.106898 0.000000
10.081331 17.118216 0.000000
6.785277 22.618225 0.000000
3.501678 28.185009 0.000000
0.188373 33.672056 0.000000
-3.140377 39.122811 0.000000
-6.440180 44.557611 0.000000
-9.907928 50.000000 0.000000
44.608107 -0.026452 0.000000
50.000000 -3.536717 0.000000
39.233649 3.291893 0.000000
33.883971 6.606216 0.000000
28.571396 9.935988 0.000000
23.235013 13.349135 0.000000
17.177061 16.946979 0.000000
13.150088 22.597997 0.000000
10.068217 28.172726 0.000000
6.856726 33.674693 0.000000
3.532026 39.134736 0.000000
0.218792 44.570218 0.000000
-3.260100 50.000000 0.000000
44.622214 6.642769 0.000000
50.000000 3.141421 0.000000
39.268006 9.950466 0.000000
33.949891 13.240460 0.000000
28.684374 16.541687 0.000000
23.558945 20.037202 0.000000
18.734144 23.062075 0.000000
16.595354 28.256976 0.000000
13.534637 33.725500 0.000000
10.192798 39.164550 0.000000
6.880185 44.578258 0.000000
3.392180 50.000000 0.000000
44.645627 13.301354 0.000000
50.000000 9.829312 0.000000
39.319911 16.590426 0.000000
34.032009 19.839127 0.000000
28.742101 22.898721 0.000000
23.436478 27.179498 0.000000
20.067375 33.284216 0.000000
16.745082 39.029333 0.000000
13.451035 44.523410 0.000000
10.048725 50.000000 0.000000
44.668154 19.961644 0.000000
50.000000 16.523278 0.000000
39.363542 23.247063 0.000000
34.137406 26.500896 0.000000
29.088300 28.521520 0.000000
26.333170 33.393836 0.000000
23.205593 38.959379 0.000000
20.038552 44.504807 0.000000
16.704718 50.000000 0.000000
44.675186 26.635500 0.000000
50.000000 23.219279 0.000000
39.356211 29.957433 0.000000
33.306647 33.364607 0.000000
29.518836 39.039341 0.000000
26.539542 44.505249 0.000000
23.361036 50.000000 0.000000
44.808359 33.287291 0.000000
50.000000 29.915587 0.000000
39.794424 36.593756 0.000000
34.910138 39.525122 0.000000
32.918858 44.513925 0.000000
30.019258 50.000000 0.000000
45.008880 39.877312 0.000000
50.000000 36.611497 0.000000
39.791062 43.970378 0.000000
36.676915 50.000000 0.000000
45.647332 45.412106 0.000000
50.000000 43.306026 0.000000
43.335191 50.000000 0.000000
50.000000 50.000000 0.000000
CELLS 578 2312
3 1 0 2
3 0 3 2
3 4 1 6
3 6 1 2
3 3 5 7
3 3 7 2
3 6 2 7
3 9 4 10
3 10 4 6
3 5 8 11
3 7 5 11
3 10 6 12
3 12 6 7
3 7 11 13
3 7 13 12
3 8 14 15
3 11 8 15
3 16 9 17
3 17 9 10
3 17 10 18
3 18 10 12
3 11 15 19
3 13 11 19
3 18 12 20
3 13 19 20
3 20 12 13
3 14 22 24
3 15 14 24
3 15 24 25
3 19 15 25
3 21 16 26
3 26 16 17
3 26 17 27
3 27 17 18
3 27 18 28
3 28 18 20
3 19 25 29
3 19 29 20
3 28 20 30
3 30 20 29
3 31 21 32
3 32 21 26
3 22 23 36
3 24 22 36
3 23 34 37
3 36 23 37
3 24 36 38
3 25 24 38
3 25 38 39
3 29 25 39
3 32 26 40
3 40 26 27
3 40 27 41
3 41 27 28
3 41 28 42
3 42 28 30
3 29 39 43
3 29 43 30
3 42 30 43
3 33 31 44
3 44 31 32
3 44 32 45
3 45 32 40
3 46 33 47
3 47 33 44
3 34 35 50
3 37 34 50
3 35 48 51
3 50 35 51
3 36 37 52
3 38 36 52
3 37 50 53
3 52 37 53
3 38 52 54
3 39 38 54
3 39 54 55
3 43 39 55
3 45 40 56
3 56 40 41
3 56 41 57
3 57 41 42
3 57 42 58
3 58 42 43
3 43 55 59
3 43 59 58
3 47 44 60
3 60 44 45
3 60 45 61
3 61 45 56
3 62 46 63
3 63 46 47
3 63 47 64
3 64 47 60
3 48 49 68
3 51 48 68
3 49 66 69
3 68 49 69
3 50 51 70
3 53 50 70
3 51 68 71
3 70 51 71
3 52 53 72
3 54 52 72
3 53 70 73
3 72 53 73
3 54 72 74
3 55 54 74
3 55 74 75
3 59 55 75
3 61 56 76
3 76 56 57
3 76 57 77
3 77 57 58
3 77 58 78
3 59 75 78
3 78 58 59
3 64 60 79
3 79 60 61
3 79 61 80
3 80 61 76
3 65 62 81
3 81 62 63
3 81 63 82
3 82 63 64
3 82 64 83
3 83 64 79
3 84 65 85
3 85 65 81
3 66 67 89
3 69 66 89
3 67 87 90
3 89 67 90
3 68 69 91
3 71 68 91
3 69 89 92
3 91 69 92
3 70 71 93
3 73 70 93
3 71 91 94
3 93 71 94
3 72 73 95
3 74 72 95
3 73 93 96
3 95 73 96
3 74 95 97
3 75 74 97
3 75 97 98
3 78 75 98
3 80 76 99
3 99 76 77
3 99 77 100
3 100 77 78
3 100 78 101
3 98 101 78
3 83 79 102
3 102 79 80
3 102 80 103
3 103 80 99
3 85 81 104
3 104 81 82
3 105 83 102
3 104 82 106
3 106 82 83
3 106 83 105
3 86 84 107
3 107 84 85
3 107 85 108
3 108 85 104
3 109 86 107
3 110 86 109
3 87 88 112
3 90 87 112
3 112 88 113
3 88 114 113
3 90 112 115
3 89 90 116
3 92 89 116
3 116 90 115
3 91 92 117
3 94 91 117
3 92 116 118
3 117 92 118
3 93 94 119
3 96 93 119
3 94 117 120
3 119 94 120
3 95 96 121
3 97 95 121
3 96 119 122
3 121 96 122
3 97 121 123
3 98 97 123
3 98 123 124
3 98 124 101
3 103 99 125
3 125 99 100
3 125 100 126
3 126 100 101
3 126 101 124
3 105 102 127
3 127 102 103
3 127 103 128
3 128 103 125
3 129 105 127
3 108 104 130
3 130 104 106
3 130 106 131
3 131 106 105
3 131 105 129
3 108 130 132
3 109 107 133
3 133 107 108
3 133 108 134
3 108 132 134
3 135 109 133
3 111 110 136
3 136 110 109
3 136 109 135
3 137 111 136
3 138 111 137
3 112 113 139
3 115 112 139
3 114 140 113
3 140 139 113
3 139 141 115
3 116 115 142
3 118 116 142
3 142 115 141
3 117 118 143
3 120 117 143
3 118 142 144
3 143 118 144
3 119 120 145
3 122 119 145
3 120 143 146
3 145 120 146
3 121 122 147
3 123 121 147
3 122 145 148
3 147 122 148
3 123 147 149
3 124 123 149
3 124 149 150
3 151 126 124
3 124 150 151
3 128 125 152
3 152 125 126
3 152 126 151
3 129 127 153
3 153 127 128
3 128 152 154
3 153 128 154
3 155 129 153
3 131 129 156
3 156 129 155
3 132 130 157
3 130 131 157
3 157 131 158
3 131 156 158
3 132 157 159
3 132 159 134
3 135 133 160
3 160 133 134
3 160 134 159
3 136 135 161
3 135 160 161
3 162 137 136
3 161 162 136
3 163 138 137
3 162 163 137
3 139 164 141
3 140 165 139
3 139 165 164
3 141 164 166
3 141 166 142
3 166 167 142
3 144 142 167
3 167 168 144
3 143 144 168
3 146 143 168
3 168 169 146
3 145 146 170
3 148 145 170
3 170 146 169
3 147 148 171
3 149 147 171
3 148 170 172
3 171 148 172
3 173 151 150
3 149 171 174
3 150 149 174
3 150 174 175
3 150 175 173
3 154 152 176
3 152 151 176
3 176 151 173
3 154 176 177
3 155 153 178
3 177 178 154
3 154 178 153
3 156 155 179
3 155 178 179
3 180 158 156
3 179 180 156
3 181 159 157
3 180 181 158
3 181 157 158
3 182 160 159
3 181 182 159
3 183 161 160
3 182 183 160
3 184 162 161
3 184 161 183
3 185 163 162
3 184 185 162
3 164 186 166
3 165 187 164
3 164 187 186
3 166 186 188
3 166 188 167
3 167 188 189
3 167 189 168
3 168 189 190
3 168 190 169
3 169 190 191
3 169 191 170
3 192 172 170
3 170 191 192
3 192 193 172
3 171 172 193
3 174 171 193
3 194 173 175
3 176 173 194
3 175 174 195
3 193 195 174
3 195 196 175
3 175 196 194
3 197 177 176
3 194 197 176
3 198 178 177
3 197 198 177
3 199 179 178
3 198 199 178
3 200 180 179
3 199 200 179
3 201 181 180
3 200 201 180
3 202 182 181
3 201 202 181
3 203 183 182
3 202 203 182
3 204 184 183
3 203 204 183
3 205 185 184
3 204 205 184
3 186 206 188
3 187 207 186
3 186 207 206
3 188 206 208
3 188 208 189
3 189 208 209
3 189 209 190
3 190 209 210
3 190 210 191
3 191 210 211
3 191 211 192
3 192 211 212
3 192 212 193
3 193 212 213
3 193 213 195
3 214 197 194
3 214 194 196
3 195 213 215
3 195 215 196
3 196 215 214
3 216 198 197
3 214 216 197
3 217 199 198
3 216 217 198
3 218 200 199
3 217 218 199
3 219 201 200
3 218 219 200
3 220 202 201
3 219 220 201
3 221 203 202
3 220 221 202
3 222 204 203
3 221 222 203
3 223 205 204
3 222 223 204
3 206 224 208
3 207 225 206
3 206 225 224
3 208 224 226
3 208 226 209
3 209 226 227
3 209 227 210
3 210 227 228
3 210 228 211
3 211 228 229
3 211 229 212
3 212 229 230
3 212 230 213
3 213 230 231
3 213 231 215
3 232 216 214
3 215 231 232
3 232 214 215
3 233 217 216
3 232 233 216
3 234 218 217
3 233 234 217
3 235 219 218
3 234 235 218
3 236 220 219
3 235 236 219
3 237 221 220
3 236 237 220
3 238 222 221
3 237 238 221
3 239 223 222
3 238 239 222
3 224 240 226
3 225 241 224
3 224 241 240
3 226 240 242
3 226 242 227
3 227 242 243
3 227 243 228
3 228 243 244
3 228 244 229
3 244 245 229
3 229 245 230
3 230 245 246
3 230 246 231
3 231 246 247
3 231 247 232
3 248 233 232
3 248 232 247
3 249 234 233
3 248 249 233
3 250 235 234
3 249 250 234
3 251 236 235
3 250 251 235
3 252 237 236
3 251 252 236
3 253 238 237
3 252 253 237
3 254 239 238
3 253 254 238
3 240 255 242
3 241 256 240
3 240 256 255
3 242 255 257
3 242 257 243
3 243 257 258
3 243 258 244
3 244 258 259
3 244 259 245
3 245 259 260
3 245 260 246
3 246 260 261
3 246 261 247
3 248 247 261
3 262 249 248
3 261 262 248
3 263 250 249
3 262 263 249
3 264 251 250
3 263 264 250
3 265 252 251
3 264 265 251
3 266 253 252
3 265 266 252
3 267 254 253
3 266 267 253
3 255 268 257
3 256 269 255
3 255 269 268
3 257 268 270
3 257 270 258
3 258 270 271
3 258 271 259
3 259 271 272
3 259 272 260
3 260 272 273
3 260 273 261
3 274 262 261
3 261 273 274
3 275 263 262
3 274 275 262
3 276 264 263
3 275 276 263
3 277 265 264
3 276 277 264
3 278 266 265
3 277 278 265
3 279 267 266
3 278 279 266
3 268 280 270
3 269 281 268
3 268 281 280
3 270 280 282
3 270 282 271
3 271 282 283
3 271 283 272
3 283 284 272
3 272 284 273
3 285 275 274
3 273 284 285
3 285 274 273
3 286 276 275
3 285 286 275
3 287 277 276
3 286 287 276
3 288 278 277
3 287 288 277
3 289 279 278
3 288 289 278
3 280 290 282
3 281 291 280
3 280 291 290
3 282 290 292
3 282 292 283
3 283 292 293
3 283 293 284
3 284 293 294
3 284 294 285
3 295 286 285
3 295 285 294
3 296 287 286
3 295 296 286
3 297 288 287
3 296 297 287
3 298 289 288
3 297 298 288
3 290 299 292
3 291 300 290
3 290 300 299
3 292 299 301
3 292 301 293
3 293 301 302
3 293 302 294
3 294 302 295
3 303 296 295
3 303 295 302
3 304 297 296
3 303 304 296
3 305 298 297
3 304 305 297
3 299 306 301
3 300 307 299
3 299 307 306
3 301 306 308
3 301 308 302
3 309 303 302
3 302 308 309
3 310 304 303
3 309 310 303
3 311 305 304
3 310 311 304
3 306 312 308
3 307 313 306
3 306 313 312
3 314 310 309
3 308 312 314
3 314 309 308
3 315 311 310
3 314 315 310
3 312 316 314
3 313 317 312
3 312 317 316
3 318 315 314
3 318 314 316
3 317 319 316
3 319 318 316
CELL_TYPES 578
5
5
5
5
5
5
5
5
5
5
5
5
5
5
5
5
5
5
5
5
5
5
5
5
5
5
5
5
5
5
5
5
5
5
5
5
5
5
5
5
5
5
5
5
5
5
5
5
5
5
5
5
5
5
5
5
5
5
5
5
5
5
5
5
5
5
5
5
5
5
5
5
5
5
5
5
5
5
5
5
5
5
5
5
5
5
5
5
5
5
5
5
5
5
5
5
5
5
5
5
5
5
5
5
5
5
5
5
5
5
5
5
5
5
5
5
5
5
5
5
5
5
5
5
5
5
5
5
5
5
5
5
5
5
5
5
5
5
5
5
5
5
5
5
5
5
5
5
5
5
5
5
5
5
5
5
5
5
5
5
5
5
5
5
5
5
5
5
5
5
5
5
5
5
5
5
5
5
5
5
5
5
5
5
5
5
5
5
5
5
5
5
5
5
5
5
5
5
5
5
5
5
5
5
5
5
5
5
5
5
5
5
5
5
5
5
5
5
5
5
5
5
5
5
5
5
5
5
5
5
5
5
5
5
5
5
5
5
5
5
5
5
5
5
5
5
5
5
5
5
5
5
5
5
5
5
5
5
5
5
5
5
5
5
5
5
5
5
5
5
5
5
5
5
5
5
5
5
5
5
5
5
5
5
5
5
5
5
5
5
5
5
5
5
5
5
5
5
5
5
5
5
5
5
5
5
5
5
5
5
5
5
5
5
5
5
5
5
5
5
5
5
5
5
5
5
5
5
5
5
5
5
5
5
5
5
5
5
5
5
5
5
5
5
5
5
5
5
5
5
5
5
5
5
5
5
5
5
5
5
5
5
5
5
5
5
5
5
5
5
5
5
5
5
5
5
5
5
5
5
5
5
5
5
5
5
5
5
5
5
5
5
5
5
5
5
5
5
5
5
5
5
5
5
5
5
5
5
5
5
5
5
5
5
5
5
5
5
5
5
5
5
5
5
5
5
5
5
5
5
5
5
5
5
5
5
5
5
5
5
5
5
5
5
5
5
5
5
5
5
5
5
5
5
5
5
5
5
5
5
5
5
5
5
5
5
5
5
5
5
5
5
5
5
5
5
5
5
5
5
5
5
5
5
5
5
5
5
5
5
5
5
5
5
5
5
5
5
5
5
5
5
5
5
5
5
5
5
5
5
5
5
5
5
5
5
5
5
5
5
5
5
5
5
5
5
5
5
5
5
5
5
5
5
5
5
5
5
5
5
5
5
5
5
5
5
5
5
5
5
5
5
5
5
5
5
5
5
5
5
5
5
5
5
5
5
5
5
5
5
5
5
5
5
5
5
5
5
POINT_DATA 320
SCALARS theta_e float 1
LOOKUP_TABLE default
0.993493
0.993492
0.993492
0.993495
0.993489
0.993510
0.993490
0.993498
0.993549
0.993479
0.993486
0.993524
0.993494
0.993508
0.993609
0.993571
0.993459
0.993473
0.993487
0.993538
0.993508
0.993428
0.993688
0.993779
0.993638
0.993587
0.993451
0.993473
0.993494
0.993545
0.993518
0.993393
0.993422
0.993357
0.993872
0.993960
0.993719
0.993808
0.993652
0.993594
0.993455
0.993483
0.993512
0.993551
0.993390
0.993433
0.993323
0.993358
0.994036
0.994093
0.993897
0.993980
0.993729
0.993810
0.993656
0.993602
0.993472
0.993509
0.993543
0.993575
0.993409
0.993457
0.993295
0.993327
0.993383
0.993280
0.994125
0.994132
0.994051
0.994101
0.993892
0.993971
0.993724
0.993798
0.993657
0.993620
0.993507
0.993545
0.993586
0.993437
0.993499
0.993303
0.993355
0.993413
0.993282
0.993292
0.993299
0.994119
0.994097
0.994127
0.994128
0.994040
0.994092
0.993875
0.993952
0.993718
0.993785
0.993671
0.993653
0.993547
0.993574
0.993629
0.993478
0.993548
0.993330
0.993446
0.993388
0.993295
0.993314
0.993311
0.993326
0.993351
0.994114
0.994096
0.994084
0.994126
0.994120
0.994023
0.994080
0.993858
0.993933
0.993721
0.993774
0.993698
0.993567
0.993542
0.993606
0.993532
0.993497
0.993500
0.993362
0.993415
0.993341
0.993307
0.993319
0.993314
0.993332
0.993354
0.993364
0.994119
0.994100
0.994129
0.994113
0.994006
0.994064
0.993842
0.993917
0.993761
0.993803
0.993657
0.994048
0.993691
0.993577
0.993504
0.993427
0.993564
0.993462
0.993379
0.993415
0.993342
0.993314
0.993317
0.993333
0.993349
0.994136
0.994125
0.994124
0.994082
0.994000
0.993904
0.993849
0.993634
0.993764
0.994029
0.993904
0.994538
0.993460
0.993418
0.993466
0.993533
0.993447
0.993384
0.993333
0.993309
0.993311
0.993324
0.994137
0.994142
0.994102
0.994034
0.993944
0.993862
0.993778
0.993582
0.993567
0.993937
0.994258
0.993185
0.993411
0.993586
0.993493
0.993425
0.993366
0.993320
0.993300
0.993301
0.994116
0.994139
0.994059
0.993974
0.993877
0.993815
0.993699
0.993795
0.993711
0.994176
0.993490
0.993607
0.993536
0.993471
0.993407
0.993346
0.993305
0.993292
0.994072
0.994111
0.994000
0.993905
0.993814
0.993770
0.993661
0.993851
0.993784
0.993634
0.993566
0.993510
0.993448
0.993379
0.993325
0.993301
0.994008
0.994059
0.993929
0.993835
0.993755
0.993708
0.993623
0.993637
0.993619
0.993585
0.993540
0.993482
0.993413
0.993355
0.993323
0.993931
0.993987
0.993854
0.993770
0.993703
0.993655
0.993618
0.993592
0.993558
0.993509
0.993447
0.993389
0.993354
0.993849
0.993905
0.993781
0.993713
0.993662
0.993624
0.993599
0.993571
0.993532
0.993479
0.993425
0.993390
0.993770
0.993820
0.993716
0.993666
0.993626
0.993590
0.993555
0.993512
0.993465
0.993430
0.993704
0.993742
0.993665
0.993629
0.993601
0.993575
0.993544
0.993507
0.993474
0.993656
0.993682
0.993628
0.993600
0.993571
0.993546
0.993520
0.993629
0.993644
0.993611
0.993594
0.993580
0.993562
0.993621
0.993628
0.993607
0.993596
0.993624
0.993627
0.993618
0.993629
VECTORS fa_u float
0.000000 0.000000 0.000000
0.000000 0.000000 0.000000
0.000000 0.000000 0.000000
0.000000 0.000000 0.000000
0.000000 0.000000 0.000000
0.000000 0.000000 0.000000
0.000000 0.000000 0.000000
0.000000 0.000000 0.000000
0.000000 0.000000 0.000000
0.000000 0.000000 0.000000
0.000000 0.000000 0.000000
0.000000 0.000000 0.000000
0.000000 0.000000 0.000000
0.000000 0.000000 0.000000
0.000000 0.000000 0.000000
0.000000 0.000000 0.000000
0.000000 0.000000 0.000000
0.000000 0.000000 0.000000
0.000000 0.000000 0.000000
0.000000 0.000000 0.000000
0.000000 0.000000 0.000000
0.000000 0.000000 0.000000
0.000000 0.000000 0.000000
0.000000 0.000000 0.000000
0.000000 0.000000 0.000000
0.000000 0.000000 0.000000
0.000000 0.000000 0.000000
0.000000 0.000000 0.000000
0.000000 0.000000 0.000000
0.000000 0.000000 0.000000
0.000000 0.000000 0.000000
0.000000 0.000000 0.000000
0.000000 0.000000 0.000000
0.000000 0.000000 0.000000
0.000000 0.000000 0.000000
0.000000 0.000000 0.000000
0.000000 0.000000 0.000000
0.000000 0.000000 0.000000
0.000000 0.000000 0.000000
0.000000 0.000000 0.000000
0.000000 0.000000 0.000000
0.000000 0.000000 0.000000
0.000000 0.000000 0.000000
0.000000 0.000000 0.000000
0.000000 0.000000 0.000000
0.000000 0.000000 0.000000
0.000000 0.000000 0.000000
0.000000 0.000000 0.000000
0.000000 0.000000 0.000000
0.000000 0.000000 0.000000
0.000000 0.000000 0.000000
0.000000 0.000000 0.000000
0.000000 0.000000 0.000000
0.000000 0.000000 0.000000
0.000000 0.000000 0.000000
0.000000 0.000000 0.000000
0.000000 0.000000 0.000000
0.000000 0.000000 0.000000
0.000000 0.000000 0.000000
0.000000 0.000000 0.000000
0.000000 0.000000 0.000000
0.000000 0.000000 0.000000
0.000000 0.000000 0.000000
0.000000 0.000000 0.000000
0.000000 0.000000 0.000000
0.000000 0.000000 0.000000
0.000000 0.000000 0.000000
0.000000 0.000000 0.000000
0.000000 0.000000 0.000000
0.000000 0.000000 0.000000
0.000000 0.000000 0.000000
0.000000 0.000000 0.000000
0.000000 0.000000 0.000000
0.000000 0.000000 0.000000
0.000000 0.000000 0.000000
0.000000 0.000000 0.000000
0.000000 0.000000 0.000000
0.000000 0.000000 0.000000
0.000000 0.000000 0.000000
0.000000 0.000000 0.000000
0.000000 0.000000 0.000000
0.000000 0.000000 0.000000
0.000000 0.000000 0.000000
0.000000 0.000000 0.000000
0.000000 0.000000 0.000000
0.000000 0.000000 0.000000
0.000000 0.000000 0.000000
0.000000 0.000000 0.000000
0.000000 0.000000 0.000000
0.000000 0.000000 0.000000
0.000000 0.000000 0.000000
0.000000 0.000000 0.000000
0.000000 0.000000 0.000000
0.000000 0.000000 0.000000
0.000000 0.000000 0.000000
0.000000 0.000000 0.000000
0.000000 0.000000 0.000000
0.000000 0.000000 0.000000
0.000000 0.000000 0.000000
0.000000 0.000000 0.000000
0.000000 0.000000 0.000000
0.000000 0.000000 0.000000
0.000000 0.000000 0.000000
0.000000 0.000000 0.000000
0.000000 0.000000 0.000000
0.000000 0.000000 0.000000
0.000000 0.000000 0.000000
0.000000 0.000000 0.000000
0.000000 0.000000 0.000000
0.000000 0.000000 0.000000
0.000000 0.000000 0.000000
0.000000 0.000000 0.000000
0.000000 0.000000 0.000000
0.000000 0.000000 0.000000
0.000000 0.000000 0.000000
0.000000 0.000000 0.000000
0.000000 0.000000 0.000000
0.000000 0.000000 0.000000
0.000000 0.000000 0.000000
0.000000 0.000000 0.000000
0.000000 0.000000 0.000000
0.000000 0.000000 0.000000
0.000000 0.000000 0.000000
0.000000 0.000000 0.000000
0.000000 0.000000 0.000000
0.000000 0.000000 0.000000
0.000000 0.000000 0.000000
0.000000 0.000000 0.000000
0.000000 0.000000 0.000000
0.000000 0.000000 0.000000
0.000000 0.000000 0.000000
0.000000 0.000000 0.000000
0.000000 0.000000 0.000000
0.000000 0.000000 0.000000
0.000000 0.000000 0.000000
0.000000 0.000000 0.000000
0.000000 0.000000 0.000000
0.000000 0.000000 0.000000
0.000000 0.000000 0.000000
0.000000 0.000000 0.000000
0.000000 0.000000 0.000000
0.000000 0.000000 0.000000
0.000000 0.000000 0.000000
0.000000 0.000000 0.000000
0.000000 0.000000 0.000000
0.000000 0.000000 0.000000
0.000000 0.000000 0.000000
0.000000 0.000000 0.000000
0.000000 0.000000 0.000000
0.000000 0.000000 0.000000
0.000000 0.000000 0.000000
0.000000 0.000000 0.000000
0.000000 0.000000 0.000000
0.000000 0.000000 0.000000
0.000000 0.000000 0.000000
0.000000 0.000000 0.000000
0.000000 0.000000 0.000000
0.000000 0.000000 0.000000
0.000000 0.000000 0.000000
0.000000 0.000000 0.000000
0.000000 0.000000 0.000000
0.000000 0.000000 0.000000
0.000000 0.000000 0.000000
0.000000 0.000000 0.000000
0.000000 0.000000 0.000000
0.000000 0.000000 0.000000
0.000000 0.000000 0.000000
0.000000 0.000000 0.000000
0.000000 0.000000 0.000000
0.000000 0.000000 0.000000
0.000000 0.000000 0.000000
0.000000 0.000000 0.000000
0.000000 0.000000 0.000000
0.000000 0.000000 0.000000
0.000000 0.000000 0.000000
0.000000 0.000000 0.000000
0.000000 0.000000 0.000000
0.000000 0.000000 0.000000
0.000000 0.000000 0.000000
0.000000 0.000000 0.000000
0.000000 0.000000 0.000000
0.000000 0.000000 0.000000
0.000000 0.000000 0.000000
0.000000 0.000000 0.000000
0.000000 0.000000 0.000000
0.000000 0.000000 0.000000
0.000000 0.000000 0.000000
0.000000 0.000000 0.000000
0.000000 0.000000 0.000000
0.000000 0.000000 0.000000
0.000000 0.000000 0.000000
0.000000 0.000000 0.000000
0.000000 0.000000 0.000000
0.000000 0.000000 0.000000
0.000000 0.000000 0.000000
0.000000 0.000000 0.000000
0.000000 0.000000 0.000000
0.000000 0.000000 0.000000
0.000000 0.000000 0.000000
0.000000 0.000000 0.000000
0.000000 0.000000 0.000000
0.000000 0.000000 0.000000
0.000000 0.000000 0.000000
0.000000 0.000000 0.000000
0.000000 0.000000 0.000000
0.000000 0.000000 0.000000
0.000000 0.000000 0.000000
0.000000 0.000000 0.000000
0.000000 0.000000 0.000000
0.000000 0.000000 0.000000
0.000000 0.000000 0.000000
0.000000 0.000000 0.000000
0.000000 0.000000 0.000000
0.000000 0.000000 0.000000
0.000000 0.000000 0.000000
0.000000 0.000000 0.000000
0.000000 0.000000 0.000000
0.000000 0.000000 0.000000
0.000000 0.000000 0.000000
0.000000 0.000000 0.000000
0.000000 0.000000 0.000000
0.000000 0.000000 0.000000
0.000000 0.000000 0.000000
0.000000 0.000000 0.000000
0.000000 0.000000 0.000000
0.000000 0.000000 0.000000
0.000000 0.000000 0.000000
0.000000 0.000000 0.000000
0.000000 0.000000 0.000000
0.000000 0.000000 0.000000
0.000000 0.000000 0.000000
0.000000 0.000000 0.000000
0.000000 0.000000 0.000000
0.000000 0.000000 0.000000
0.000000 0.000000 0.000000
0.000000 0.000000 0.000000
0.000000 0.000000 0.000000
0.000000 0.000000 0.000000
0.000000 0.000000 0.000000
0.000000 0.000000 0.000000
0.000000 0.000000 0.000000
0.000000 0.000000 0.000000
0.000000 0.000000 0.000000
0.000000 0.000000 0.000000
0.000000 0.000000 0.000000
0.000000 0.000000 0.000000
0.000000 0.000000 0.000000
0.000000 0.000000 0.000000
0.000000 0.000000 0.000000
0.000000 0.000000 0.000000
0.000000 0.000000 0.000000
0.000000 0.000000 0.000000
0.000000 0.000000 0.000000
0.000000 0.000000 0.000000
0.000000 0.000000 0.000000
0.000000 0.000000 0.000000
0.000000 0.000000 0.000000
0.000000 0.000000 0.000000
0.000000 0.000000 0.000000
0.000000 0.000000 0.000000
0.000000 0.000000 0.000000
0.000000 0.000000 0.000000
0.000000 0.000000 0.000000
0.000000 0.000000 0.000000
0.000000 0.000000 0.000000
0.000000 0.000000 0.000000
0.000000 0.000000 0.000000
0.000000 0.000000 0.000000
0.000000 0.000000 0.000000
0.000000 0.000000 0.000000
0.000000 0.000000 0.000000
0.000000 0.000000 0.000000
0.000000 0.000000 0.000000
0.000000 0.000000 0.000000
0.000000 0.000000 0.000000
0.000000 0.000000 0.000000
0.000000 0.000000 0.000000
0.000000 0.000000 0.000000
0.000000 0.000000 0.000000
0.000000 0.000000 0.000000
0.000000 0.000000 0.000000
0.000000 0.000000 0.000000
0.000000 0.000000 0.000000
0.000000 0.000000 0.000000
0.000000 0.000000 0.000000
0.000000 0.000000 0.000000
0.000000 0.000000 0.000000
0.000000 0.000000 0.000000
0.000000 0.000000 0.000000
0.000000 0.000000 0.000000
0.000000 0.000000 0.000000
0.000000 0.000000 0.000000
0.000000 0.000000 0.000000
0.000000 0.000000 0.000000
0.000000 0.000000 0.000000
0.000000 0.000000 0.000000
0.000000 0.000000 -50.000000
-50.000000 0.000000 -50.000000
-43.339463 0.000000 -45.690536
-45.524788 0.000000 -43.287503
-50.000000 0.000000 -50.000000
-36.678078 0.000000 -36.575377
-50.000000 0.000000 -45.082433
-40.032491 0.000000 -40.024279
-44.196826 0.000000 -29.863390
-50.000000 0.000000 -50.000000
-30.016316 0.000000 -44.847623
-33.549321 0.000000 -33.123159
-44.719543 0.000000 -39.859630
-36.871541 0.000000 -35.114055
-39.876555 0.000000 -23.152419
-50.000000 0.000000 -26.506550
-44.709597 0.000000 -50.000000
-23.356162 0.000000 -44.663368
-26.945989 0.000000 -39.351229
-30.351949 0.000000 -29.582348
-39.437174 0.000000 -33.346391
-33.769229 0.000000 -50.000000
-16.696235 0.000000 -16.449811
-50.000000 0.000000 -9.757417
