# vtk DataFile Version 2.0
CellBP Time: 1.44
ASCII
DATASET UNSTRUCTURED_GRID
POINTS 320 double
-50.000000 -50.000000 0.000000
-50.000000 -43.339962 0.000000
-45.699776 -45.521157 0.000000
-43.307744 -50.000000 0.000000
-50.000000 -36.678780 0.000000
-36.616805 -50.000000 0.000000
-45.093325 -40.026331 0.000000
-40.046909 -44.191538 0.000000
-29.923556 -50.000000 0.000000
-50.000000 -30.017494 0.000000
-44.859331 -33.539529 0.000000
-33.163091 -44.713610 0.000000
-39.883917 -36.862192 0.000000
-35.148884 -39.867135 0.000000
-23.229214 -50.000000 0.000000
-26.560548 -44.703394 0.000000
-50.000000 -23.358467 0.000000
-44.675204 -26.932987 0.000000
-39.376380 -30.338897 0.000000
-29.628710 -39.426071 0.000000
-33.385341 -33.755709 0.000000
-50.000000 -16.699969 0.000000
-16.540068 -50.000000 0.000000
-9.857583 -50.000000 0.000000
-19.989516 -44.621863 0.000000
-23.236317 -39.180001 0.000000
-44.699417 -20.264182 0.000000
-39.375108 -23.679949 0.000000
-34.111886 -27.076363 0.000000
-26.401294 -33.678370 0.000000
-29.162072 -29.058270 0.000000
-50.000000 -10.042907 0.000000
-44.671074 -13.615992 0.000000
-50.000000 -3.389231 0.000000
-3.181767 -50.000000 0.000000
3.485050 -50.000000 0.000000
-13.369781 -44.627272 0.000000
-6.710440 -44.634976 0.000000
-16.710425 -39.210807 0.000000
-20.116982 -33.439957 0.000000
-39.340404 -16.996821 0.000000
-34.020544 -20.455041 0.000000
-28.779064 -23.618139 0.000000
-23.506457 -27.496082 0.000000
-44.633941 -6.950358 0.000000
-39.283268 -10.340304 0.000000
-50.000000 3.268156 0.000000
-44.617201 -0.297775 0.000000
10.142052 -50.000000 0.000000
16.791268 -50.000000 0.000000
-0.040009 -44.637074 0.000000
6.629783 -44.646272 0.000000
-10.056731 -39.274235 0.000000
-3.377409 -39.264348 0.000000
-13.486440 -33.883500 0.000000
-16.696203 -28.402910 0.000000
-33.931831 -13.748381 0.000000
-28.582250 -17.111344 0.000000
-23.270645 -20.511634 0.000000
-18.638417 -23.455736 0.000000
-39.241042 -3.683345 0.000000
-33.859767 -7.100198 0.000000
-50.000000 9.959463 0.000000
-44.598521 6.358300 0.000000
-39.216584 2.978402 0.000000
-50.000000 16.719893 0.000000
23.436153 -50.000000 0.000000
30.078571 -50.000000 0.000000
13.297592 -44.666671 0.000000
19.971800 -44.698255 0.000000
3.299863 -39.276930 0.000000
9.964227 -39.308939 0.000000
-6.730090 -33.865429 0.000000
-0.026556 -33.887322 0.000000
-10.071138 -28.407104 0.000000
-13.088684 -23.061199 0.000000
-28.475278 -10.501126 0.000000
-23.007511 -13.921741 0.000000
-16.925722 -17.425032 0.000000
-33.800389 -0.461119 0.000000
-28.454989 -3.946340 0.000000
-44.559973 13.051164 0.000000
-39.150018 9.608224 0.000000
-33.761384 6.074336 0.000000
-50.000000 23.584809 0.000000
-44.604982 19.845803 0.000000
-50.000000 30.545641 0.000000
36.717926 -50.000000 0.000000
43.358852 -50.000000 0.000000
26.647590 -44.738061 0.000000
33.303327 -44.863275 0.000000
16.622963 -39.364384 0.000000
23.317282 -39.433856 0.000000
6.647506 -33.918187 0.000000
13.292260 -33.984286 0.000000
-3.318939 -28.450929 0.000000
3.380547 -28.516364 0.000000
-6.580513 -22.976842 0.000000
-9.910255 -17.499259 0.000000
-23.069221 -7.348026 0.000000
-17.700489 -10.611272 0.000000
-12.740267 -12.823544 0.000000
-28.413334 2.616632 0.000000
-23.072323 -0.894261 0.000000
-39.011297 16.299886 0.000000
-28.377894 9.311177 0.000000
-33.545355 12.479424 0.000000
-44.748413 26.612815 0.000000
-38.726777 23.654890 0.000000
-44.992013 33.409965 0.000000
-50.000000 37.491922 0.000000
-50.000000 43.854750 0.000000
39.912328 -45.056759 0.000000
45.463887 -45.647233 0.000000
50.000000 -50.000000 0.000000
36.617099 -39.966206 0.000000
29.999948 -39.447558 0.000000
19.900338 -34.095116 0.000000
26.578003 -34.310951 0.000000
10.005836 -28.551200 0.000000
16.619412 -28.672222 0.000000
0.101036 -23.055067 0.000000
6.850260 -23.219941 0.000000
-3.325840 -17.444121 0.000000
-6.752687 -11.261303 0.000000
-17.691137 -4.179452 0.000000
-12.383071 -7.317405 0.000000
-23.000210 5.543027 0.000000
-17.767884 2.029171 0.000000
-22.660667 11.479867 0.000000
-33.334847 18.507623 0.000000
-27.422822 16.122174 0.000000
-33.050593 23.842808 0.000000
-40.310218 30.539633 0.000000
-35.412818 28.962817 0.000000
-39.923910 35.508110 0.000000
-43.920744 40.176119 0.000000
-45.276248 45.768833 0.000000
-50.000000 50.000000 0.000000
44.107149 -39.876470 0.000000
50.000000 -43.361207 0.000000
39.628283 -35.024604 0.000000
33.454349 -33.406446 0.000000
22.986682 -28.817149 0.000000
28.729093 -29.234825 0.000000
13.484863 -23.150533 0.000000
20.070377 -23.447312 0.000000
3.459809 -17.677221 0.000000
10.173239 -17.883785 0.000000
0.239716 -12.170149 0.000000
-2.014395 -6.454565 0.000000
-7.224089 -3.964141 0.000000
-12.398382 -1.126331 0.000000
-17.767881 8.060524 0.000000
-12.660355 4.852854 0.000000
-18.033828 13.167224 0.000000
-20.783367 16.827508 0.000000
-28.041601 22.521216 0.000000
-23.365479 21.011268 0.000000
-29.746134 28.659114 0.000000
-34.159774 34.092367 0.000000
-36.869712 39.948275 0.000000
-39.636364 45.269815 0.000000
-43.399983 50.000000 0.000000
44.575884 -32.946451 0.000000
50.000000 -36.712148 0.000000
39.124914 -29.554871 0.000000
33.501145 -26.347088 0.000000
27.191298 -23.314531 0.000000
23.084757 -18.650853 0.000000
17.021245 -16.997681 0.000000
6.783871 -12.282164 0.000000
12.403901 -12.768665 0.000000
-3.187487 -1.678071 0.000000
4.049038 -7.137981 0.000000
1.188794 -2.237744 0.000000
-6.790609 2.097742 0.000000
-8.127958 7.578418 0.000000
-12.379429 11.586532 0.000000
-15.097459 17.343224 0.000000
-18.500702 22.741145 0.000000
-23.590789 27.218953 0.000000
-26.958082 33.614203 0.000000
-30.053760 39.319070 0.000000
-33.125367 44.839706 0.000000
-36.637682 50.000000 0.000000
44.543810 -26.467884 0.000000
50.000000 -30.066463 0.000000
39.040898 -23.151216 0.000000
33.459990 -19.876844 0.000000
28.060678 -16.567806 0.000000
22.720566 -13.131405 0.000000
17.234510 -9.938786 0.000000
11.037721 -6.704854 0.000000
-1.160679 2.165248 0.000000
6.387904 -1.809886 0.000000
3.099146 1.501010 0.000000
-3.289802 7.041875 0.000000
-5.941865 12.238481 0.000000
-9.151657 17.474323 0.000000
-12.593378 22.916177 0.000000
-16.810504 28.052429 0.000000
-20.195309 33.370935 0.000000
-23.318918 38.999576 0.000000
-26.458362 44.614156 0.000000
-29.890270 50.000000 0.000000
44.528841 -19.892878 0.000000
50.000000 -23.417499 0.000000
39.046508 -16.563593 0.000000
33.600712 -13.259804 0.000000
28.191942 -9.963405 0.000000
22.789493 -6.619925 0.000000
17.358537 -3.375208 0.000000
12.188546 0.136967 0.000000
2.162880 6.171051 0.000000
7.269450 3.781216 0.000000
0.104557 11.844967 0.000000
-2.889716 17.373954 0.000000
-6.273621 22.850621 0.000000
-10.153080 28.161028 0.000000
-13.360894 33.568285 0.000000
-16.620217 39.007845 0.000000
-19.804985 44.506776 0.000000
-23.187911 50.000000 0.000000
44.542302 -13.260708 0.000000
50.000000 -16.763876 0.000000
39.100283 -9.933542 0.000000
33.684132 -6.620383 0.000000
28.296645 -3.305322 0.000000
22.939300 0.002129 0.000000
17.678270 3.331489 0.000000
12.422653 6.543312 0.000000
6.988752 10.771970 0.000000
3.602599 17.095151 0.000000
0.250814 22.763555 0.000000
-3.183396 28.246247 0.000000
-6.517595 33.717603 0.000000
-9.849868 39.126079 0.000000
-13.145101 44.537615 0.000000
-16.557295 50.000000 0.000000
44.566470 -6.607506 0.000000
50.000000 -10.103239 0.000000
39.152782 -3.286355 0.000000
33.765086 0.030632 0.000000
28.415307 3.349739 0.000000
23.125571 6.685748 0.000000
18.000420 10.005714 0.000000
12.862388 12.178304 0.000000
10.024652 17.184930 0.000000
6.734880 22.677233 0.000000
3.456433 28.233217 0.000000
0.148390 33.708236 0.000000
-3.175560 39.146911 0.000000
-6.473683 44.569172 0.000000
-9.917214 50.000000 0.000000
44.593121 0.051848 0.000000
50.000000 -3.434917 0.000000
39.205272 3.369181 0.000000
33.844829 6.681137 0.000000
28.524407 10.008215 0.000000
23.183921 13.418222 0.000000
17.124583 17.011812 0.000000
13.103271 22.655934 0.000000
10.026596 28.221132 0.000000
6.819339 33.711554 0.000000
3.498428 39.159454 0.000000
0.186587 44.582289 0.000000
-3.267719 50.000000 0.000000
44.608895 6.717105 0.000000
50.000000 3.240736 0.000000
39.243497 10.022205 0.000000
33.917185 13.308368 0.000000
28.646429 16.605675 0.000000
23.518506 20.096782 0.000000
18.692295 23.117658 0.000000
16.559025 28.304037 0.000000
13.501741 33.761220 0.000000
10.162347 39.188168 0.000000
6.850261 44.589730 0.000000
3.386556 50.000000 0.000000
44.634211 13.369297 0.000000
50.000000 9.922581 0.000000
39.299745 16.654595 0.000000
34.005929 19.898277 0.000000
28.712091 22.952403 0.000000
23.405686 27.226253 0.000000
20.038937 33.319520 0.000000
16.717986 39.052782 0.000000
13.423396 44.534750 0.000000
10.044204 50.000000 0.000000
44.658521 20.021218 0.000000
50.000000 16.607484 0.000000
39.346937 23.302210 0.000000
34.115578 26.549819 0.000000
29.062663 28.566447 0.000000
26.308636 33.430494 0.000000
23.181535 38.984160 0.000000
20.013752 44.516803 0.000000
16.700578 50.000000 0.000000
44.666840 26.684698 0.000000
50.000000 23.291623 0.000000
39.341999 30.001194 0.000000
33.286971 33.400850 0.000000
29.499307 39.064402 0.000000
26.518953 44.517473 0.000000
23.357672 50.000000 0.000000
44.801217 33.324119 0.000000
50.000000 29.973070 0.000000
39.782632 36.623694 0.000000
34.894605 39.548456 0.000000
32.903154 44.526836 0.000000
30.016734 50.000000 0.000000
45.002786 39.899739 0.000000
50.000000 36.651336 0.000000
39.780263 43.984140 0.000000
36.675643 50.000000 0.000000
45.642640 45.422006 0.000000
50.000000 43.326127 0.000000
43.336033 50.000000 0.000000
50.000000 50.000000 0.000000
CELLS 578 2312
3 1 0 2
3 0 3 2
3 4 1 6
3 6 1 2
3 3 5 7
3 3 7 2
3 6 2 7
3 9 4 10
3 10 4 6
3 5 8 11
3 7 5 11
3 10 6 12
3 12 6 7
3 7 11 13
3 7 13 12
3 8 14 15
3 11 8 15
3 16 9 17
3 17 9 10
3 17 10 18
3 18 10 12
3 11 15 19
3 13 11 19
3 18 12 20
3 13 19 20
3 20 12 13
3 14 22 24
3 15 14 24
3 15 24 25
3 19 15 25
3 21 16 26
3 26 16 17
3 26 17 27
3 27 17 18
3 27 18 28
3 28 18 20
3 19 25 29
3 19 29 20
3 28 20 30
3 30 20 29
3 31 21 32
3 32 21 26
3 22 23 36
3 24 22 36
3 23 34 37
3 36 23 37
3 24 36 38
3 25 24 38
3 25 38 39
3 29 25 39
3 32 26 40
3 40 26 27
3 40 27 41
3 41 27 28
3 41 28 42
3 42 28 30
3 29 39 43
3 29 43 30
3 42 30 43
3 33 31 44
3 44 31 32
3 44 32 45
3 45 32 40
3 46 33 47
3 47 33 44
3 34 35 50
3 37 34 50
3 35 48 51
3 50 35 51
3 36 37 52
3 38 36 52
3 37 50 53
3 52 37 53
3 38 52 54
3 39 38 54
3 39 54 55
3 43 39 55
3 45 40 56
3 56 40 41
3 56 41 57
3 57 41 42
3 57 42 58
3 58 42 43
3 43 55 59
3 43 59 58
3 47 44 60
3 60 44 45
3 60 45 61
3 61 45 56
3 62 46 63
3 63 46 47
3 63 47 64
3 64 47 60
3 48 49 68
3 51 48 68
3 49 66 69
3 68 49 69
3 50 51 70
3 53 50 70
3 51 68 71
3 70 51 71
3 52 53 72
3 54 52 72
3 53 70 73
3 72 53 73
3 54 72 74
3 55 54 74
3 55 74 75
3 59 55 75
3 61 56 76
3 76 56 57
3 76 57 77
3 77 57 58
3 77 58 78
3 59 75 78
3 78 58 59
3 64 60 79
3 79 60 61
3 79 61 80
3 80 61 76
3 65 62 81
3 81 62 63
3 81 63 82
3 82 63 64
3 82 64 83
3 83 64 79
3 84 65 85
3 85 65 81
3 66 67 89
3 69 66 89
3 67 87 90
3 89 67 90
3 68 69 91
3 71 68 91
3 69 89 92
3 91 69 92
3 70 71 93
3 73 70 93
3 71 91 94
3 93 71 94
3 72 73 95
3 74 72 95
3 73 93 96
3 95 73 96
3 74 95 97
3 75 74 97
3 75 97 98
3 78 75 98
3 80 76 99
3 99 76 77
3 99 77 100
3 100 77 78
3 100 78 101
3 98 101 78
3 83 79 102
3 102 79 80
3 102 80 103
3 103 80 99
3 85 81 104
3 104 81 82
3 105 83 102
3 104 82 106
3 106 82 83
3 106 83 105
3 86 84 107
3 107 84 85
3 107 85 108
3 108 85 104
3 109 86 107
3 110 86 109
3 87 88 112
3 90 87 112
3 112 88 113
3 88 114 113
3 90 112 115
3 89 90 116
3 92 89 116
3 116 90 115
3 91 92 117
3 94 91 117
3 92 116 118
3 117 92 118
3 93 94 119
3 96 93 119
3 94 117 120
3 119 94 120
3 95 96 121
3 97 95 121
3 96 119 122
3 121 96 122
3 97 121 123
3 98 97 123
3 98 123 124
3 98 124 101
3 103 99 125
3 125 99 100
3 125 100 126
3 126 100 101
3 126 101 124
3 105 102 127
3 127 102 103
3 127 103 128
3 128 103 125
3 129 105 127
3 108 104 130
3 130 104 106
3 130 106 131
3 131 106 105
3 131 105 129
3 108 130 132
3 109 107 133
3 133 107 108
3 133 108 134
3 108 132 134
3 135 109 133
3 111 110 136
3 136 110 109
3 136 109 135
3 137 111 136
3 138 111 137
3 112 113 139
3 115 112 139
3 114 140 113
3 140 139 113
3 139 141 115
3 116 115 142
3 118 116 142
3 142 115 141
3 117 118 143
3 120 117 143
3 118 142 144
3 143 118 144
3 119 120 145
3 122 119 145
3 120 143 146
3 145 120 146
3 121 122 147
3 123 121 147
3 122 145 148
3 147 122 148
3 123 147 149
3 124 123 149
3 124 149 150
3 151 126 124
3 124 150 151
3 128 125 152
3 152 125 126
3 152 126 151
3 129 127 153
3 153 127 128
3 128 152 154
3 153 128 154
3 155 129 153
3 131 129 156
3 156 129 155
3 132 130 157
3 130 131 157
3 157 131 158
3 131 156 158
3 132 157 159
3 132 159 134
3 135 133 160
3 160 133 134
3 160 134 159
3 136 135 161
3 135 160 161
3 162 137 136
3 161 162 136
3 163 138 137
3 162 163 137
3 139 164 141
3 140 165 139
3 139 165 164
3 141 164 166
3 141 166 142
3 166 167 142
3 144 142 167
3 167 168 144
3 143 144 168
3 146 143 168
3 168 169 146
3 145 146 170
3 148 145 170
3 170 146 169
3 147 148 171
3 149 147 171
3 148 170 172
3 171 148 172
3 173 151 150
3 149 171 174
3 150 149 174
3 150 174 175
3 150 175 173
3 154 152 176
3 152 151 176
3 176 151 173
3 154 176 177
3 155 153 178
3 177 178 154
3 154 178 153
3 156 155 179
3 155 178 179
3 180 158 156
3 179 180 156
3 181 159 157
3 180 181 158
3 181 157 158
3 182 160 159
3 181 182 159
3 183 161 160
3 182 183 160
3 184 162 161
3 184 161 183
3 185 163 162
3 184 185 162
3 164 186 166
3 165 187 164
3 164 187 186
3 166 186 188
3 166 188 167
3 167 188 189
3 167 189 168
3 168 189 190
3 168 190 169
3 169 190 191
3 169 191 170
3 192 172 170
3 170 191 192
3 192 193 172
3 171 172 193
3 174 171 193
3 194 173 175
3 176 173 194
3 175 174 195
3 193 195 174
3 195 196 175
3 175 196 194
3 197 177 176
3 194 197 176
3 198 178 177
3 197 198 177
3 199 179 178
3 198 199 178
3 200 180 179
3 199 200 179
3 201 181 180
3 200 201 180
3 202 182 181
3 201 202 181
3 203 183 182
3 202 203 182
3 204 184 183
3 203 204 183
3 205 185 184
3 204 205 184
3 186 206 188
3 187 207 186
3 186 207 206
3 188 206 208
3 188 208 189
3 189 208 209
3 189 209 190
3 190 209 210
3 190 210 191
3 191 210 211
3 191 211 192
3 192 211 212
3 192 212 193
3 193 212 213
3 193 213 195
3 214 197 194
3 214 194 196
3 195 213 215
3 195 215 196
3 196 215 214
3 216 198 197
3 214 216 197
3 217 199 198
3 216 217 198
3 218 200 199
3 217 218 199
3 219 201 200
3 218 219 200
3 220 202 201
3 219 220 201
3 221 203 202
3 220 221 202
3 222 204 203
3 221 222 203
3 223 205 204
3 222 223 204
3 206 224 208
3 207 225 206
3 206 225 224
3 208 224 226
3 208 226 209
3 209 226 227
3 209 227 210
3 210 227 228
3 210 228 211
3 211 228 229
3 211 229 212
3 212 229 230
3 212 230 213
3 213 230 231
3 213 231 215
3 232 216 214
3 215 231 232
3 232 214 215
3 233 217 216
3 232 233 216
3 234 218 217
3 233 234 217
3 235 219 218
3 234 235 218
3 236 220 219
3 235 236 219
3 237 221 220
3 236 237 220
3 238 222 221
3 237 238 221
3 239 223 222
3 238 239 222
3 224 240 226
3 225 241 224
3 224 241 240
3 226 240 242
3 226 242 227
3 227 242 243
3 227 243 228
3 228 243 244
3 228 244 229
3 244 245 229
3 229 245 230
3 230 245 246
3 230 246 231
3 231 246 247
3 231 247 232
3 248 233 232
3 248 232 247
3 249 234 233
3 248 249 233
3 250 235 234
3 249 250 234
3 251 236 235
3 250 251 235
3 252 237 236
3 251 252 236
3 253 238 237
3 252 253 237
3 254 239 238
3 253 254 238
3 240 255 242
3 241 256 240
3 240 256 255
3 242 255 257
3 242 257 243
3 243 257 258
3 243 258 244
3 244 258 259
3 244 259 245
3 245 259 260
3 245 260 246
3 246 260 261
3 246 261 247
3 248 247 261
3 262 249 248
3 261 262 248
3 263 250 249
3 262 263 249
3 264 251 250
3 263 264 250
3 265 252 251
3 264 265 251
3 266 253 252
3 265 266 252
3 267 254 253
3 266 267 253
3 255 268 257
3 256 269 255
3 255 269 268
3 257 268 270
3 257 270 258
3 258 270 271
3 258 271 259
3 259 271 272
3 259 272 260
3 260 272 273
3 260 273 261
3 274 262 261
3 261 273 274
3 275 263 262
3 274 275 262
3 276 264 263
3 275 276 263
3 277 265 264
3 276 277 264
3 278 266 265
3 277 278 265
3 279 267 266
3 278 279 266
3 268 280 270
3 269 281 268
3 268 281 280
3 270 280 282
3 270 282 271
3 271 282 283
3 271 283 272
3 283 284 272
3 272 284 273
3 285 275 274
3 273 284 285
3 285 274 273
3 286 276 275
3 285 286 275
3 287 277 276
3 286 287 276
3 288 278 277
3 287 288 277
3 289 279 278
3 288 289 278
3 280 290 282
3 281 291 280
3 280 291 290
3 282 290 292
3 282 292 283
3 283 292 293
3 283 293 284
3 284 293 294
3 284 294 285
3 295 286 285
3 295 285 294
3 296 287 286
3 295 296 286
3 297 288 287
3 296 297 287
3 298 289 288
3 297 298 288
3 290 299 292
3 291 300 290
3 290 300 299
3 292 299 301
3 292 301 293
3 293 301 302
3 293 302 294
3 294 302 295
3 303 296 295
3 303 295 302
3 304 297 296
3 303 304 296
3 305 298 297
3 304 305 297
3 299 306 301
3 300 307 299
3 299 307 306
3 301 306 308
3 301 308 302
3 309 303 302
3 302 308 309
3 310 304 303
3 309 310 303
3 311 305 304
3 310 311 304
3 306 312 308
3 307 313 306
3 306 313 312
3 314 310 309
3 308 312 314
3 314 309 308
3 315 311 310
3 314 315 310
3 312 316 314
3 313 317 312
3 312 317 316
3 318 315 314
3 318 314 316
3 317 319 316
3 319 318 316
CELL_TYPES 578
5
5
5
5
5
5
5
5
5
5
5
5
5
5
5
5
5
5
5
5
5
5
5
5
5
5
5
5
5
5
5
5
5
5
5
5
5
5
5
5
5
5
5
5
5
5
5
5
5
5
5
5
5
5
5
5
5
5
5
5
5
5
5
5
5
5
5
5
5
5
5
5
5
5
5
5
5
5
5
5
5
5
5
5
5
5
5
5
5
5
5
5
5
5
5
5
5
5
5
5
5
5
5
5
5
5
5
5
5
5
5
5
5
5
5
5
5
5
5
5
5
5
5
5
5
5
5
5
5
5
5
5
5
5
5
5
5
5
5
5
5
5
5
5
5
5
5
5
5
5
5
5
5
5
5
5
5
5
5
5
5
5
5
5
5
5
5
5
5
5
5
5
5
5
5
5
5
5
5
5
5
5
5
5
5
5
5
5
5
5
5
5
5
5
5
5
5
5
5
5
5
5
5
5
5
5
5
5
5
5
5
5
5
5
5
5
5
5
5
5
5
5
5
5
5
5
5
5
5
5
5
5
5
5
5
5
5
5
5
5
5
5
5
5
5
5
5
5
5
5
5
5
5
5
5
5
5
5
5
5
5
5
5
5
5
5
5
5
5
5
5
5
5
5
5
5
5
5
5
5
5
5
5
5
5
5
5
5
5
5
5
5
5
5
5
5
5
5
5
5
5
5
5
5
5
5
5
5
5
5
5
5
5
5
5
5
5
5
5
5
5
5
5
5
5
5
5
5
5
5
5
5
5
5
5
5
5
5
5
5
5
5
5
5
5
5
5
5
5
5
5
5
5
5
5
5
5
5
5
5
5
5
5
5
5
5
5
5
5
5
5
5
5
5
5
5
5
5
5
5
5
5
5
5
5
5
5
5
5
5
5
5
5
5
5
5
5
5
5
5
5
5
5
5
5
5
5
5
5
5
5
5
5
5
5
5
5
5
5
5
5
5
5
5
5
5
5
5
5
5
5
5
5
5
5
5
5
5
5
5
5
5
5
5
5
5
5
5
5
5
5
5
5
5
5
5
5
5
5
5
5
5
5
5
5
5
5
5
5
5
5
5
5
5
5
5
5
5
5
5
5
5
5
5
5
5
5
5
5
5
5
5
5
5
5
5
5
5
5
5
5
5
5
5
5
5
5
5
5
5
5
5
5
5
5
5
5
5
5
5
5
5
5
5
5
5
5
5
5
5
5
5
5
5
5
5
5
5
5
5
5
5
5
5
5
5
5
5
5
5
5
5
5
5
5
5
5
5
5
5
5
5
5
5
5
5
5
5
5
5
5
5
5
5
5
5
5
5
POINT_DATA 320
SCALARS theta_e float 1
LOOKUP_TABLE default
0.991908
0.991842
0.991907
0.991995
0.991742
0.992213
0.991839
0.992038
0.992628
0.991599
0.991714
0.992381
0.991926
0.992171
0.993175
0.992853
0.991435
0.991562
0.991798
0.992534
0.992162
0.991265
0.993838
0.994600
0.993455
0.993057
0.991392
0.991622
0.991941
0.992659
0.992322
0.991108
0.991227
0.990974
0.995434
0.996315
0.994169
0.994969
0.993699
0.993225
0.991453
0.991777
0.992200
0.992751
0.991080
0.991291
0.990858
0.990953
0.997213
0.998092
0.995828
0.996719
0.994452
0.995271
0.993920
0.993415
0.991603
0.992014
0.992510
0.993006
0.991146
0.991433
0.990757
0.990841
0.991014
0.990664
0.998906
0.999603
0.997612
0.998466
0.996136
0.997022
0.994677
0.995497
0.994096
0.993554
0.991816
0.992309
0.992936
0.991272
0.991611
0.990742
0.990893
0.991123
0.990579
0.990654
0.990504
1.000134
1.000453
0.999230
0.999848
0.997897
0.998711
0.996354
0.997219
0.994843
0.995647
0.994228
0.993639
0.992027
0.992542
0.993108
0.991422
0.991776
0.990781
0.991253
0.990989
0.990572
0.990682
0.990501
0.990452
0.990403
1.000278
1.000498
1.000557
0.999950
0.999417
0.998060
0.998816
0.996487
0.997305
0.994964
0.995742
0.994321
0.993613
0.992234
0.992797
0.991557
0.991925
0.991384
0.990865
0.991113
0.990765
0.990584
0.990667
0.990524
0.990460
0.990407
0.990371
1.000278
1.000470
0.999915
0.999408
0.998080
0.998721
0.996540
0.997303
0.995080
0.995799
0.994502
0.993836
0.993120
0.992475
0.991689
0.992075
0.991540
0.991308
0.990923
0.991107
0.990770
0.990626
0.990531
0.990465
0.990412
0.999959
1.000224
0.999483
0.998886
0.998058
0.997228
0.996468
0.995215
0.995721
0.993221
0.994670
0.993757
0.992648
0.992195
0.991811
0.991522
0.991253
0.990965
0.990762
0.990632
0.990543
0.990477
0.999452
0.999793
0.998935
0.998264
0.997499
0.996646
0.995911
0.995256
0.993027
0.994422
0.993410
0.992587
0.992152
0.991784
0.991478
0.991173
0.990928
0.990757
0.990645
0.990565
0.998830
0.999225
0.998271
0.997585
0.996814
0.996028
0.995336
0.994759
0.993027
0.993737
0.992609
0.992105
0.991751
0.991420
0.991125
0.990908
0.990767
0.990677
0.998119
0.998551
0.997538
0.996853
0.996108
0.995356
0.994679
0.994044
0.993156
0.992521
0.992060
0.991679
0.991346
0.991082
0.990911
0.990809
0.997355
0.997807
0.996773
0.996109
0.995399
0.994690
0.994024
0.993461
0.992913
0.992390
0.991956
0.991579
0.991279
0.991077
0.990961
0.996566
0.997023
0.996001
0.995372
0.994709
0.994030
0.993377
0.992732
0.992242
0.991826
0.991493
0.991263
0.991134
0.995778
0.996228
0.995242
0.994663
0.994073
0.993481
0.993003
0.992531
0.992085
0.991725
0.991472
0.991328
0.995013
0.995446
0.994517
0.994000
0.993490
0.992912
0.992374
0.991979
0.991704
0.991545
0.994296
0.994698
0.993854
0.993415
0.993042
0.992616
0.992226
0.991946
0.991780
0.993660
0.994014
0.993271
0.992877
0.992455
0.992180
0.992020
0.993152
0.993435
0.992855
0.992610
0.992385
0.992244
0.992800
0.992996
0.992582
0.992441
0.992642
0.992740
0.992569
0.992643
VECTORS fa_u float
0.000000 0.000000 0.000000
0.000000 0.000000 0.000000
0.000000 0.000000 0.000000
0.000000 0.000000 0.000000
0.000000 0.000000 0.000000
0.000000 0.000000 0.000000
0.000000 0.000000 0.000000
0.000000 0.000000 0.000000
0.000000 0.000000 0.000000
0.000000 0.000000 0.000000
0.000000 0.000000 0.000000
0.000000 0.000000 0.000000
0.000000 0.000000 0.000000
0.000000 0.000000 0.000000
0.000000 0.000000 0.000000
0.000000 0.000000 0.000000
0.000000 0.000000 0.000000
0.000000 0.000000 0.000000
0.000000 0.000000 0.000000
0.000000 0.000000 0.000000
0.000000 0.000000 0.000000
0.000000 0.000000 0.000000
0.000000 0.000000 0.000000
0.000000 0.000000 0.000000
0.000000 0.000000 0.000000
0.000000 0.000000 0.000000
0.000000 0.000000 0.000000
0.000000 0.000000 0.000000
0.000000 0.000000 0.000000
0.000000 0.000000 0.000000
0.000000 0.000000 0.000000
0.000000 0.000000 0.000000
0.000000 0.000000 0.000000
0.000000 0.000000 0.000000
0.000000 0.000000 0.000000
0.000000 0.000000 0.000000
0.000000 0.000000 0.000000
0.000000 0.000000 0.000000
0.000000 0.000000 0.000000
0.000000 0.000000 0.000000
0.000000 0.000000 0.000000
0.000000 0.000000 0.000000
0.000000 0.000000 0.000000
0.000000 0.000000 0.000000
0.000000 0.000000 0.000000
0.000000 0.000000 0.000000
0.000000 0.000000 0.000000
0.000000 0.000000 0.000000
0.000000 0.000000 0.000000
0.000000 0.000000 0.000000
0.000000 0.000000 0.000000
0.000000 0.000000 0.000000
0.000000 0.000000 0.000000
0.000000 0.000000 0.000000
0.000000 0.000000 0.000000
0.000000 0.000000 0.000000
0.000000 0.000000 0.000000
0.000000 0.000000 0.000000
0.000000 0.000000 0.000000
0.000000 0.000000 0.000000
0.000000 0.000000 0.000000
0.000000 0.000000 0.000000
0.000000 0.000000 0.000000
0.000000 0.000000 0.000000
0.000000 0.000000 0.000000
0.000000 0.000000 0.000000
0.000000 0.000000 0.000000
0.000000 0.000000 0.000000
0.000000 0.000000 0.000000
0.000000 0.000000 0.000000
0.000000 0.000000 0.000000
0.000000 0.000000 0.000000
0.000000 0.000000 0.000000
0.000000 0.000000 0.000000
0.000000 0.000000 0.000000
0.000000 0.000000 0.000000
0.000000 0.000000 0.000000
0.000000 0.000000 0.000000
0.000000 0.000000 0.000000
0.000000 0.000000 0.000000
0.000000 0.000000 0.000000
0.000000 0.000000 0.000000
0.000000 0.000000 0.000000
0.000000 0.000000 0.000000
0.000000 0.000000 0.000000
0.000000 0.000000 0.000000
0.000000 0.000000 0.000000
0.000000 0.000000 0.000000
0.000000 0.000000 0.000000
0.000000 0.000000 0.000000
0.000000 0.000000 0.000000
0.000000 0.000000 0.000000
0.000000 0.000000 0.000000
0.000000 0.000000 0.000000
0.000000 0.000000 0.000000
0.000000 0.000000 0.000000
0.000000 0.000000 0.000000
0.000000 0.000000 0.000000
0.000000 0.000000 0.000000
0.000000 0.000000 0.000000
0.000000 0.000000 0.000000
0.000000 0.000000 0.000000
0.000000 0.000000 0.000000
0.000000 0.000000 0.000000
0.000000 0.000000 0.000000
0.000000 0.000000 0.000000
0.000000 0.000000 0.000000
0.000000 0.000000 0.000000
0.000000 0.000000 0.000000
0.000000 0.000000 0.000000
0.000000 0.000000 0.000000
0.000000 0.000000 0.000000
0.000000 0.000000 0.000000
0.000000 0.000000 0.000000
0.000000 0.000000 0.000000
0.000000 0.000000 0.000000
0.000000 0.000000 0.000000
0.000000 0.000000 0.000000
0.000000 0.000000 0.000000
0.000000 0.000000 0.000000
0.000000 0.000000 0.000000
0.000000 0.000000 0.000000
0.000000 0.000000 0.000000
0.000000 0.000000 0.000000
0.000000 0.000000 0.000000
0.000000 0.000000 0.000000
0.000000 0.000000 0.000000
0.000000 0.000000 0.000000
0.000000 0.000000 0.000000
0.000000 0.000000 0.000000
0.000000 0.000000 0.000000
0.000000 0.000000 0.000000
0.000000 0.000000 0.000000
0.000000 0.000000 0.000000
0.000000 0.000000 0.000000
0.000000 0.000000 0.000000
0.000000 0.000000 0.000000
0.000000 0.000000 0.000000
0.000000 0.000000 0.000000
0.000000 0.000000 0.000000
0.000000 0.000000 0.000000
0.000000 0.000000 0.000000
0.000000 0.000000 0.000000
0.000000 0.000000 0.000000
0.000000 0.000000 0.000000
0.000000 0.000000 0.000000
0.000000 0.000000 0.000000
0.000000 0.000000 0.000000
0.000000 0.000000 0.000000
0.000000 0.000000 0.000000
0.000000 0.000000 0.000000
0.000000 0.000000 0.000000
0.000000 0.000000 0.000000
0.000000 0.000000 0.000000
0.000000 0.000000 0.000000
0.000000 0.000000 0.000000
0.000000 0.000000 0.000000
0.000000 0.000000 0.000000
0.000000 0.000000 0.000000
0.000000 0.000000 0.000000
0.000000 0.000000 0.000000
0.000000 0.000000 0.000000
0.000000 0.000000 0.000000
0.000000 0.000000 0.000000
0.000000 0.000000 0.000000
0.000000 0.000000 0.000000
0.000000 0.000000 0.000000
0.000000 0.000000 0.000000
0.000000 0.000000 0.000000
0.000000 0.000000 0.000000
0.000000 0.000000 0.000000
0.000000 0.000000 0.000000
0.000000 0.000000 0.000000
0.000000 0.000000 0.000000
0.000000 0.000000 0.000000
0.000000 0.000000 0.000000
0.000000 0.000000 0.000000
0.000000 0.000000 0.000000
0.000000 0.000000 0.000000
0.000000 0.000000 0.000000
0.000000 0.000000 0.000000
0.000000 0.000000 0.000000
0.000000 0.000000 0.000000
0.000000 0.000000 0.000000
0.000000 0.000000 0.000000
0.000000 0.000000 0.000000
0.000000 0.000000 0.000000
0.000000 0.000000 0.000000
0.000000 0.000000 0.000000
0.000000 0.000000 0.000000
0.000000 0.000000 0.000000
0.000000 0.000000 0.000000
0.000000 0.000000 0.000000
0.000000 0.000000 0.000000
0.000000 0.000000 0.000000
0.000000 0.000000 0.000000
0.000000 0.000000 0.000000
0.000000 0.000000 0.000000
0.000000 0.000000 0.000000
0.000000 0.000000 0.000000
0.000000 0.000000 0.000000
0.000000 0.000000 0.000000
0.000000 0.000000 0.000000
0.000000 0.000000 0.000000
0.000000 0.000000 0.000000
0.000000 0.000000 0.000000
0.000000 0.000000 0.000000
0.000000 0.000000 0.000000
0.000000 0.000000 0.000000
0.000000 0.000000 0.000000
0.000000 0.000000 0.000000
0.000000 0.000000 0.000000
0.000000 0.000000 0.000000
0.000000 0.000000 0.000000
0.000000 0.000000 0.000000
0.000000 0.000000 0.000000
0.000000 0.000000 0.000000
0.000000 0.000000 0.000000
0.000000 0.000000 0.000000
0.000000 0.000000 0.000000
0.000000 0.000000 0.000000
0.000000 0.000000 0.000000
0.000000 0.000000 0.000000
0.000000 0.000000 0.000000
0.000000 0.000000 0.000000
0.000000 0.000000 0.000000
0.000000 0.000000 0.000000
0.000000 0.000000 0.000000
0.000000 0.000000 0.000000
0.000000 0.000000 0.000000
0.000000 0.000000 0.000000
0.000000 0.000000 0.000000
0.000000 0.000000 0.000000
0.000000 0.000000 0.000000
0.000000 0.000000 0.000000
0.000000 0.000000 0.000000
0.000000 0.000000 0.000000
0.000000 0.000000 0.000000
0.000000 0.000000 0.000000
0.000000 0.000000 0.000000
0.000000 0.000000 0.000000
0.000000 0.000000 0.000000
0.000000 0.000000 0.000000
0.000000 0.000000 0.000000
0.000000 0.000000 0.000000
0.000000 0.000000 0.000000
0.000000 0.000000 0.000000
0.000000 0.000000 0.000000
0.000000 0.000000 0.000000
0.000000 0.000000 0.000000
0.000000 0.000000 0.000000
0.000000 0.000000 0.000000
0.000000 0.000000 0.000000
0.000000 0.000000 0.000000
0.000000 0.000000 0.000000
0.000000 0.000000 0.000000
0.000000 0.000000 0.000000
0.000000 0.000000 0.000000
0.000000 0.000000 0.000000
0.000000 0.000000 0.000000
0.000000 0.000000 0.000000
0.000000 0.000000 0.000000
0.000000 0.000000 0.000000
0.000000 0.000000 0.000000
0.000000 0.000000 0.000000
0.000000 0.000000 0.000000
0.000000 0.000000 0.000000
0.000000 0.000000 0.000000
0.000000 0.000000 0.000000
0.000000 0.000000 0.000000
0.000000 0.000000 0.000000
0.000000 0.000000 0.000000
0.000000 0.000000 0.000000
0.000000 0.000000 0.000000
0.000000 0.000000 0.000000
0.000000 0.000000 0.000000
0.000000 0.000000 0.000000
0.000000 0.000000 0.000000
0.000000 0.000000 0.000000
0.000000 0.000000 0.000000
0.000000 0.000000 0.000000
0.000000 0.000000 0.000000
0.000000 0.000000 0.000000
0.000000 0.000000 0.000000
0.000000 0.000000 0.000000
0.000000 0.000000 0.000000
0.000000 0.000000 0.000000
0.000000 0.000000 0.000000
0.000000 0.000000 0.000000
0.000000 0.000000 0.000000
0.000000 0.000000 0.000000
0.000000 0.000000 0.000000
0.000000 0.000000 0.000000
0.000000 0.000000 0.000000
0.000000 0.000000 0.000000
0.000000 0.000000 0.000000
0.000000 0.000000 -50.000000
-50.000000 0.000000 -50.000000
-43.339962 0.000000 -45.699776
-45.521157 0.000000 -43.307744
-50.000000 0.000000 -50.000000
-36.678780 0.000000 -36.616805
-50.000000 0.000000 -45.093325
-40.026331 0.000000 -40.046909
-44.191538 0.000000 -29.923556
-50.000000 0.000000 -50.000000
-30.017494 0.000000 -44.859331
-33.539529 0.000000 -33.163091
-44.713610 0.000000 -39.883917
-36.862192 0.000000 -35.148884
-39.867135 0.000000 -23.229214
-50.000000 0.000000 -26.560548
-44.703394 0.000000 -50.000000
-23.358467 0.000000 -44.675204
-26.932987 0.000000 -39.376380
-30.338897 0.000000 -29.628710
-39.426071 0.000000 -33.385341
-33.755709 0.000000 -50.000000
-16.699969 0.000000 -16.540068
-50.000000 0.000000 -9.857583
