# vtk DataFile Version 2.0
CellBP Time: 2.96
ASCII
DATASET UNSTRUCTURED_GRID
POINTS 320 double
-50.000000 -50.000000 0.000000
-50.000000 -43.336673 0.000000
-45.692438 -45.522914 0.000000
-43.290527 -50.000000 0.000000
-50.000000 -36.672370 0.000000
-36.581212 -50.000000 0.000000
-45.084708 -40.028217 0.000000
-40.028736 -44.194312 0.000000
-29.871999 -50.000000 0.000000
-50.000000 -30.007809 0.000000
-44.850245 -33.542248 0.000000
-33.130533 -44.717020 0.000000
-39.864455 -36.865626 0.000000
-35.120885 -39.871863 0.000000
-23.163564 -50.000000 0.000000
-26.516587 -44.706791 0.000000
-50.000000 -23.345005 0.000000
-44.666437 -26.936153 0.000000
-39.356896 -30.343227 0.000000
-29.591547 -39.431878 0.000000
-33.354575 -33.761501 0.000000
-50.000000 -16.682701 0.000000
-16.463195 -50.000000 0.000000
-9.772647 -50.000000 0.000000
-19.936098 -44.625775 0.000000
-23.188690 -39.186929 0.000000
-44.691187 -20.266690 0.000000
-39.357186 -23.683891 0.000000
-34.083600 -27.081846 0.000000
-26.360506 -33.686941 0.000000
-29.125485 -29.065913 0.000000
-50.000000 -10.023297 0.000000
-44.662464 -13.618145 0.000000
-50.000000 -3.369167 0.000000
-3.091140 -50.000000 0.000000
3.578217 -50.000000 0.000000
-13.308871 -44.631846 0.000000
-6.643699 -44.641361 0.000000
-16.654096 -39.218748 0.000000
-20.067408 -33.450621 0.000000
-39.322359 -17.000224 0.000000
-33.994030 -20.461004 0.000000
-28.743209 -23.627124 0.000000
-23.462294 -27.508645 0.000000
-44.624814 -6.952945 0.000000
-39.264031 -10.344106 0.000000
-50.000000 3.287051 0.000000
-44.607946 -0.301348 0.000000
10.233645 -50.000000 0.000000
16.876729 -50.000000 0.000000
0.030586 -44.644976 0.000000
6.701424 -44.655076 0.000000
-9.992768 -39.285516 0.000000
-3.308238 -39.279477 0.000000
-13.427436 -33.898009 0.000000
-16.641960 -28.421069 0.000000
-33.903746 -13.755415 0.000000
-28.545900 -17.122725 0.000000
-23.226089 -20.527808 0.000000
-18.587838 -23.475946 0.000000
-39.221554 -3.688013 0.000000
-33.831035 -7.108258 0.000000
-50.000000 9.976666 0.000000
-44.590135 6.353409 0.000000
-39.198011 2.972896 0.000000
-50.000000 16.736254 0.000000
23.511160 -50.000000 0.000000
30.138915 -50.000000 0.000000
13.366922 -44.675996 0.000000
20.035107 -44.708093 0.000000
3.371684 -39.294510 0.000000
10.035534 -39.328017 0.000000
-6.663880 -33.885223 0.000000
0.043386 -33.911703 0.000000
-10.008686 -28.430336 0.000000
-13.032052 -23.087320 0.000000
-28.438004 -10.513945 0.000000
-22.962838 -13.940017 0.000000
-16.874523 -17.448983 0.000000
-33.772752 -0.469830 0.000000
-28.418539 -3.960092 0.000000
-44.553705 13.045301 0.000000
-39.134341 9.601657 0.000000
-33.735908 6.065164 0.000000
-50.000000 23.598705 0.000000
-44.599099 19.839686 0.000000
-50.000000 30.555914 0.000000
36.759504 -50.000000 0.000000
43.379764 -50.000000 0.000000
26.701095 -44.747903 0.000000
33.343958 -44.872503 0.000000
16.690055 -39.384304 0.000000
23.375838 -39.454288 0.000000
6.718597 -33.945422 0.000000
13.361102 -34.013069 0.000000
-3.251482 -28.479560 0.000000
3.450249 -28.550157 0.000000
-6.517462 -23.008434 0.000000
-9.854093 -17.531897 0.000000
-23.024412 -7.367438 0.000000
-17.649266 -10.635063 0.000000
-12.686267 -12.852718 0.000000
-28.378801 2.601838 0.000000
-23.028958 -0.915307 0.000000
-38.999220 16.291783 0.000000
-28.347606 9.296025 0.000000
-33.522876 12.468875 0.000000
-44.742638 26.607989 0.000000
-38.717422 23.648464 0.000000
-44.990632 33.407266 0.000000
-50.000000 37.501778 0.000000
-50.000000 43.860975 0.000000
39.937299 -45.066483 0.000000
45.474096 -45.655790 0.000000
50.000000 -50.000000 0.000000
36.650193 -39.986667 0.000000
30.046468 -39.468449 0.000000
19.962890 -34.124522 0.000000
26.630665 -34.340892 0.000000
10.074923 -28.587624 0.000000
16.684297 -28.709766 0.000000
0.168633 -23.092473 0.000000
6.919009 -23.262098 0.000000
-3.263897 -17.484982 0.000000
-6.696798 -11.308561 0.000000
-17.638955 -4.204744 0.000000
-12.325056 -7.348516 0.000000
-22.962131 5.521659 0.000000
-17.720417 2.003121 0.000000
-22.631064 11.460945 0.000000
-33.318216 18.497000 0.000000
-27.399075 16.108639 0.000000
-33.038755 23.834702 0.000000
-40.304101 30.537367 0.000000
-35.406175 28.958913 0.000000
-39.919594 35.506049 0.000000
-43.918194 40.173778 0.000000
-45.272960 45.768072 0.000000
-50.000000 50.000000 0.000000
44.121023 -39.897465 0.000000
50.000000 -43.381471 0.000000
39.652960 -35.055321 0.000000
33.493461 -33.439745 0.000000
23.044067 -28.856105 0.000000
28.777269 -29.273953 0.000000
13.550955 -23.195062 0.000000
20.130655 -23.493406 0.000000
3.527563 -17.723538 0.000000
10.240828 -17.931395 0.000000
0.302041 -12.229456 0.000000
-1.941027 -6.530136 0.000000
-7.160789 -4.016592 0.000000
-12.341386 -1.160465 0.000000
-17.730272 8.036505 0.000000
-12.613717 4.820679 0.000000
-18.004274 13.144870 0.000000
-20.758759 16.809843 0.000000
-28.023881 22.511767 0.000000
-23.344398 20.999149 0.000000
-29.736674 28.652803 0.000000
-34.152690 34.088951 0.000000
-36.862528 39.946337 0.000000
-39.629897 45.268719 0.000000
-43.402025 50.000000 0.000000
44.588030 -32.981994 0.000000
50.000000 -36.750063 0.000000
39.150881 -29.595421 0.000000
33.539535 -26.392419 0.000000
27.241295 -23.362634 0.000000
23.138772 -18.702800 0.000000
17.082118 -17.047954 0.000000
6.851927 -12.337146 0.000000
12.466571 -12.817080 0.000000
-3.113532 -1.744440 0.000000
4.132369 -7.215819 0.000000
1.265528 -2.309552 0.000000
-6.737735 2.048984 0.000000
-8.088522 7.544749 0.000000
-12.343930 11.556507 0.000000
-15.069528 17.317778 0.000000
-18.478476 22.725113 0.000000
-23.575740 27.209758 0.000000
-26.946516 33.605854 0.000000
-30.042921 39.313095 0.000000
-33.114921 44.837357 0.000000
-36.640322 50.000000 0.000000
44.556414 -26.514685 0.000000
50.000000 -30.121286 0.000000
39.066508 -23.202201 0.000000
33.497895 -19.930168 0.000000
28.107417 -16.623694 0.000000
22.773878 -13.187403 0.000000
17.292768 -9.994321 0.000000
11.103083 -6.754736 0.000000
-1.121768 2.112161 0.000000
6.458812 -1.855421 0.000000
3.157117 1.448463 0.000000
-3.251808 7.006706 0.000000
-5.905612 12.201917 0.000000
-9.120731 17.443576 0.000000
-12.569169 22.892458 0.000000
-16.791332 28.034816 0.000000
-20.179147 33.357246 0.000000
-23.305349 38.990539 0.000000
-26.445516 44.610050 0.000000
-29.894036 50.000000 0.000000
44.541295 -19.948357 0.000000
50.000000 -23.486156 0.000000
39.072066 -16.621849 0.000000
33.637788 -13.319494 0.000000
28.237402 -10.024700 0.000000
22.840844 -6.679775 0.000000
17.414300 -3.432771 0.000000
12.253094 0.082957 0.000000
2.207929 6.128236 0.000000
7.335906 3.742693 0.000000
0.145109 11.802401 0.000000
-2.856028 17.333623 0.000000
-6.245981 22.818816 0.000000
-10.130171 28.135258 0.000000
-13.342336 33.547787 0.000000
-16.605033 38.995301 0.000000
-19.791108 44.500925 0.000000
-23.193849 50.000000 0.000000
44.554643 -13.321616 0.000000
50.000000 -16.842607 0.000000
39.124957 -9.995869 0.000000
33.718583 -6.683032 0.000000
28.338534 -3.367589 0.000000
22.986459 -0.057613 0.000000
17.729263 3.275706 0.000000
12.476235 6.489881 0.000000
7.035438 10.724226 0.000000
3.638155 17.048427 0.000000
0.279767 22.724295 0.000000
-3.159170 28.215241 0.000000
-6.498796 33.693885 0.000000
-9.835353 39.111045 0.000000
-13.131832 44.530845 0.000000
-16.565942 50.000000 0.000000
44.578212 -6.670765 0.000000
50.000000 -10.187767 0.000000
39.175318 -3.349878 0.000000
33.796099 -0.031726 0.000000
28.452665 3.289396 0.000000
23.166732 6.628427 0.000000
18.042418 9.953068 0.000000
12.903483 12.127186 0.000000
10.058505 17.138219 0.000000
6.762145 22.636569 0.000000
3.478547 28.200434 0.000000
0.165641 33.684064 0.000000
-3.162564 39.130952 0.000000
-6.461704 44.561798 0.000000
-9.928373 50.000000 0.000000
44.603669 -0.011070 0.000000
50.000000 -3.521234 0.000000
39.225032 3.307312 0.000000
33.871560 6.621927 0.000000
28.555649 9.952070 0.000000
23.216686 13.365666 0.000000
17.156537 16.964361 0.000000
13.129096 22.614399 0.000000
10.047014 28.186957 0.000000
6.835378 33.685938 0.000000
3.510709 39.142509 0.000000
0.197569 44.574251 0.000000
-3.280745 50.000000 0.000000
44.617938 6.657002 0.000000
50.000000 3.156141 0.000000
39.259807 9.964511 0.000000
33.938239 13.254591 0.000000
28.669822 16.556028 0.000000
23.542093 20.051694 0.000000
18.715474 23.076553 0.000000
16.576635 28.269573 0.000000
13.515531 33.735759 0.000000
10.173258 39.171803 0.000000
6.860271 44.582093 0.000000
3.372353 50.000000 0.000000
44.641603 13.314025 0.000000
50.000000 9.842809 0.000000
39.312266 16.602716 0.000000
34.021217 19.851306 0.000000
28.728597 22.910976 0.000000
23.420729 27.191207 0.000000
20.050928 33.293678 0.000000
16.727969 39.036019 0.000000
13.433218 44.526959 0.000000
10.030667 50.000000 0.000000
44.664436 19.972466 0.000000
50.000000 16.535213 0.000000
39.356503 23.257274 0.000000
34.127526 26.510728 0.000000
29.075841 28.531450 0.000000
26.319830 33.402008 0.000000
23.191420 38.965212 0.000000
20.023431 44.507907 0.000000
16.689088 50.000000 0.000000
44.671794 26.644235 0.000000
50.000000 23.229367 0.000000
39.349758 29.965326 0.000000
33.297042 33.371847 0.000000
29.507841 39.044455 0.000000
26.527462 44.507954 0.000000
23.348261 50.000000 0.000000
44.805327 33.293749 0.000000
50.000000 29.923550 0.000000
39.788706 36.599222 0.000000
34.901916 39.529584 0.000000
32.909957 44.516248 0.000000
30.009621 50.000000 0.000000
45.006208 39.881286 0.000000
50.000000 36.617013 0.000000
39.785637 43.972741 0.000000
36.670416 50.000000 0.000000
45.645073 45.413804 0.000000
50.000000 43.308845 0.000000
43.332022 50.000000 0.000000
50.000000 50.000000 0.000000
CELLS 578 2312
3 1 0 2
3 0 3 2
3 4 1 6
3 6 1 2
3 3 5 7
3 3 7 2
3 6 2 7
3 9 4 10
3 10 4 6
3 5 8 11
3 7 5 11
3 10 6 12
3 12 6 7
3 7 11 13
3 7 13 12
3 8 14 15
3 11 8 15
3 16 9 17
3 17 9 10
3 17 10 18
3 18 10 12
3 11 15 19
3 13 11 19
3 18 12 20
3 13 19 20
3 20 12 13
3 14 22 24
3 15 14 24
3 15 24 25
3 19 15 25
3 21 16 26
3 26 16 17
3 26 17 27
3 27 17 18
3 27 18 28
3 28 18 20
3 19 25 29
3 19 29 20
3 28 20 30
3 30 20 29
3 31 21 32
3 32 21 26
3 22 23 36
3 24 22 36
3 23 34 37
3 36 23 37
3 24 36 38
3 25 24 38
3 25 38 39
3 29 25 39
3 32 26 40
3 40 26 27
3 40 27 41
3 41 27 28
3 41 28 42
3 42 28 30
3 29 39 43
3 29 43 30
3 42 30 43
3 33 31 44
3 44 31 32
3 44 32 45
3 45 32 40
3 46 33 47
3 47 33 44
3 34 35 50
3 37 34 50
3 35 48 51
3 50 35 51
3 36 37 52
3 38 36 52
3 37 50 53
3 52 37 53
3 38 52 54
3 39 38 54
3 39 54 55
3 43 39 55
3 45 40 56
3 56 40 41
3 56 41 57
3 57 41 42
3 57 42 58
3 58 42 43
3 43 55 59
3 43 59 58
3 47 44 60
3 60 44 45
3 60 45 61
3 61 45 56
3 62 46 63
3 63 46 47
3 63 47 64
3 64 47 60
3 48 49 68
3 51 48 68
3 49 66 69
3 68 49 69
3 50 51 70
3 53 50 70
3 51 68 71
3 70 51 71
3 52 53 72
3 54 52 72
3 53 70 73
3 72 53 73
3 54 72 74
3 55 54 74
3 55 74 75
3 59 55 75
3 61 56 76
3 76 56 57
3 76 57 77
3 77 57 58
3 77 58 78
3 59 75 78
3 78 58 59
3 64 60 79
3 79 60 61
3 79 61 80
3 80 61 76
3 65 62 81
3 81 62 63
3 81 63 82
3 82 63 64
3 82 64 83
3 83 64 79
3 84 65 85
3 85 65 81
3 66 67 89
3 69 66 89
3 67 87 90
3 89 67 90
3 68 69 91
3 71 68 91
3 69 89 92
3 91 69 92
3 70 71 93
3 73 70 93
3 71 91 94
3 93 71 94
3 72 73 95
3 74 72 95
3 73 93 96
3 95 73 96
3 74 95 97
3 75 74 97
3 75 97 98
3 78 75 98
3 80 76 99
3 99 76 77
3 99 77 100
3 100 77 78
3 100 78 101
3 98 101 78
3 83 79 102
3 102 79 80
3 102 80 103
3 103 80 99
3 85 81 104
3 104 81 82
3 105 83 102
3 104 82 106
3 106 82 83
3 106 83 105
3 86 84 107
3 107 84 85
3 107 85 108
3 108 85 104
3 109 86 107
3 110 86 109
3 87 88 112
3 90 87 112
3 112 88 113
3 88 114 113
3 90 112 115
3 89 90 116
3 92 89 116
3 116 90 115
3 91 92 117
3 94 91 117
3 92 116 118
3 117 92 118
3 93 94 119
3 96 93 119
3 94 117 120
3 119 94 120
3 95 96 121
3 97 95 121
3 96 119 122
3 121 96 122
3 97 121 123
3 98 97 123
3 98 123 124
3 98 124 101
3 103 99 125
3 125 99 100
3 125 100 126
3 126 100 101
3 126 101 124
3 105 102 127
3 127 102 103
3 127 103 128
3 128 103 125
3 129 105 127
3 108 104 130
3 130 104 106
3 130 106 131
3 131 106 105
3 131 105 129
3 108 130 132
3 109 107 133
3 133 107 108
3 133 108 134
3 108 132 134
3 135 109 133
3 111 110 136
3 136 110 109
3 136 109 135
3 137 111 136
3 138 111 137
3 112 113 139
3 115 112 139
3 114 140 113
3 140 139 113
3 139 141 115
3 116 115 142
3 118 116 142
3 142 115 141
3 117 118 143
3 120 117 143
3 118 142 144
3 143 118 144
3 119 120 145
3 122 119 145
3 120 143 146
3 145 120 146
3 121 122 147
3 123 121 147
3 122 145 148
3 147 122 148
3 123 147 149
3 124 123 149
3 124 149 150
3 151 126 124
3 124 150 151
3 128 125 152
3 152 125 126
3 152 126 151
3 129 127 153
3 153 127 128
3 128 152 154
3 153 128 154
3 155 129 153
3 131 129 156
3 156 129 155
3 132 130 157
3 130 131 157
3 157 131 158
3 131 156 158
3 132 157 159
3 132 159 134
3 135 133 160
3 160 133 134
3 160 134 159
3 136 135 161
3 135 160 161
3 162 137 136
3 161 162 136
3 163 138 137
3 162 163 137
3 139 164 141
3 140 165 139
3 139 165 164
3 141 164 166
3 141 166 142
3 166 167 142
3 144 142 167
3 167 168 144
3 143 144 168
3 146 143 168
3 168 169 146
3 145 146 170
3 148 145 170
3 170 146 169
3 147 148 171
3 149 147 171
3 148 170 172
3 171 148 172
3 173 151 150
3 149 171 174
3 150 149 174
3 150 174 175
3 150 175 173
3 154 152 176
3 152 151 176
3 176 151 173
3 154 176 177
3 155 153 178
3 177 178 154
3 154 178 153
3 156 155 179
3 155 178 179
3 180 158 156
3 179 180 156
3 181 159 157
3 180 181 158
3 181 157 158
3 182 160 159
3 181 182 159
3 183 161 160
3 182 183 160
3 184 162 161
3 184 161 183
3 185 163 162
3 184 185 162
3 164 186 166
3 165 187 164
3 164 187 186
3 166 186 188
3 166 188 167
3 167 188 189
3 167 189 168
3 168 189 190
3 168 190 169
3 169 190 191
3 169 191 170
3 192 172 170
3 170 191 192
3 192 193 172
3 171 172 193
3 174 171 193
3 194 173 175
3 176 173 194
3 175 174 195
3 193 195 174
3 195 196 175
3 175 196 194
3 197 177 176
3 194 197 176
3 198 178 177
3 197 198 177
3 199 179 178
3 198 199 178
3 200 180 179
3 199 200 179
3 201 181 180
3 200 201 180
3 202 182 181
3 201 202 181
3 203 183 182
3 202 203 182
3 204 184 183
3 203 204 183
3 205 185 184
3 204 205 184
3 186 206 188
3 187 207 186
3 186 207 206
3 188 206 208
3 188 208 189
3 189 208 209
3 189 209 190
3 190 209 210
3 190 210 191
3 191 210 211
3 191 211 192
3 192 211 212
3 192 212 193
3 193 212 213
3 193 213 195
3 214 197 194
3 214 194 196
3 195 213 215
3 195 215 196
3 196 215 214
3 216 198 197
3 214 216 197
3 217 199 198
3 216 217 198
3 218 200 199
3 217 218 199
3 219 201 200
3 218 219 200
3 220 202 201
3 219 220 201
3 221 203 202
3 220 221 202
3 222 204 203
3 221 222 203
3 223 205 204
3 222 223 204
3 206 224 208
3 207 225 206
3 206 225 224
3 208 224 226
3 208 226 209
3 209 226 227
3 209 227 210
3 210 227 228
3 210 228 211
3 211 228 229
3 211 229 212
3 212 229 230
3 212 230 213
3 213 230 231
3 213 231 215
3 232 216 214
3 215 231 232
3 232 214 215
3 233 217 216
3 232 233 216
3 234 218 217
3 233 234 217
3 235 219 218
3 234 235 218
3 236 220 219
3 235 236 219
3 237 221 220
3 236 237 220
3 238 222 221
3 237 238 221
3 239 223 222
3 238 239 222
3 224 240 226
3 225 241 224
3 224 241 240
3 226 240 242
3 226 242 227
3 227 242 243
3 227 243 228
3 228 243 244
3 228 244 229
3 244 245 229
3 229 245 230
3 230 245 246
3 230 246 231
3 231 246 247
3 231 247 232
3 248 233 232
3 248 232 247
3 249 234 233
3 248 249 233
3 250 235 234
3 249 250 234
3 251 236 235
3 250 251 235
3 252 237 236
3 251 252 236
3 253 238 237
3 252 253 237
3 254 239 238
3 253 254 238
3 240 255 242
3 241 256 240
3 240 256 255
3 242 255 257
3 242 257 243
3 243 257 258
3 243 258 244
3 244 258 259
3 244 259 245
3 245 259 260
3 245 260 246
3 246 260 261
3 246 261 247
3 248 247 261
3 262 249 248
3 261 262 248
3 263 250 249
3 262 263 249
3 264 251 250
3 263 264 250
3 265 252 251
3 264 265 251
3 266 253 252
3 265 266 252
3 267 254 253
3 266 267 253
3 255 268 257
3 256 269 255
3 255 269 268
3 257 268 270
3 257 270 258
3 258 270 271
3 258 271 259
3 259 271 272
3 259 272 260
3 260 272 273
3 260 273 261
3 274 262 261
3 261 273 274
3 275 263 262
3 274 275 262
3 276 264 263
3 275 276 263
3 277 265 264
3 276 277 264
3 278 266 265
3 277 278 265
3 279 267 266
3 278 279 266
3 268 280 270
3 269 281 268
3 268 281 280
3 270 280 282
3 270 282 271
3 271 282 283
3 271 283 272
3 283 284 272
3 272 284 273
3 285 275 274
3 273 284 285
3 285 274 273
3 286 276 275
3 285 286 275
3 287 277 276
3 286 287 276
3 288 278 277
3 287 288 277
3 289 279 278
3 288 289 278
3 280 290 282
3 281 291 280
3 280 291 290
3 282 290 292
3 282 292 283
3 283 292 293
3 283 293 284
3 284 293 294
3 284 294 285
3 295 286 285
3 295 285 294
3 296 287 286
3 295 296 286
3 297 288 287
3 296 297 287
3 298 289 288
3 297 298 288
3 290 299 292
3 291 300 290
3 290 300 299
3 292 299 301
3 292 301 293
3 293 301 302
3 293 302 294
3 294 302 295
3 303 296 295
3 303 295 302
3 304 297 296
3 303 304 296
3 305 298 297
3 304 305 297
3 299 306 301
3 300 307 299
3 299 307 306
3 301 306 308
3 301 308 302
3 309 303 302
3 302 308 309
3 310 304 303
3 309 310 303
3 311 305 304
3 310 311 304
3 306 312 308
3 307 313 306
3 306 313 312
3 314 310 309
3 308 312 314
3 314 309 308
3 315 311 310
3 314 315 310
3 312 316 314
3 313 317 312
3 312 317 316
3 318 315 314
3 318 314 316
3 317 319 316
3 319 318 316
CELL_TYPES 578
5
5
5
5
5
5
5
5
5
5
5
5
5
5
5
5
5
5
5
5
5
5
5
5
5
5
5
5
5
5
5
5
5
5
5
5
5
5
5
5
5
5
5
5
5
5
5
5
5
5
5
5
5
5
5
5
5
5
5
5
5
5
5
5
5
5
5
5
5
5
5
5
5
5
5
5
5
5
5
5
5
5
5
5
5
5
5
5
5
5
5
5
5
5
5
5
5
5
5
5
5
5
5
5
5
5
5
5
5
5
5
5
5
5
5
5
5
5
5
5
5
5
5
5
5
5
5
5
5
5
5
5
5
5
5
5
5
5
5
5
5
5
5
5
5
5
5
5
5
5
5
5
5
5
5
5
5
5
5
5
5
5
5
5
5
5
5
5
5
5
5
5
5
5
5
5
5
5
5
5
5
5
5
5
5
5
5
5
5
5
5
5
5
5
5
5
5
5
5
5
5
5
5
5
5
5
5
5
5
5
5
5
5
5
5
5
5
5
5
5
5
5
5
5
5
5
5
5
5
5
5
5
5
5
5
5
5
5
5
5
5
5
5
5
5
5
5
5
5
5
5
5
5
5
5
5
5
5
5
5
5
5
5
5
5
5
5
5
5
5
5
5
5
5
5
5
5
5
5
5
5
5
5
5
5
5
5
5
5
5
5
5
5
5
5
5
5
5
5
5
5
5
5
5
5
5
5
5
5
5
5
5
5
5
5
5
5
5
5
5
5
5
5
5
5
5
5
5
5
5
5
5
5
5
5
5
5
5
5
5
5
5
5
5
5
5
5
5
5
5
5
5
5
5
5
5
5
5
5
5
5
5
5
5
5
5
5
5
5
5
5
5
5
5
5
5
5
5
5
5
5
5
5
5
5
5
5
5
5
5
5
5
5
5
5
5
5
5
5
5
5
5
5
5
5
5
5
5
5
5
5
5
5
5
5
5
5
5
5
5
5
5
5
5
5
5
5
5
5
5
5
5
5
5
5
5
5
5
5
5
5
5
5
5
5
5
5
5
5
5
5
5
5
5
5
5
5
5
5
5
5
5
5
5
5
5
5
5
5
5
5
5
5
5
5
5
5
5
5
5
5
5
5
5
5
5
5
5
5
5
5
5
5
5
5
5
5
5
5
5
5
5
5
5
5
5
5
5
5
5
5
5
5
5
5
5
5
5
5
5
5
5
5
5
5
5
5
5
5
5
5
5
5
5
5
5
5
5
5
5
5
5
5
5
5
5
5
5
5
5
5
5
5
5
5
5
5
5
5
5
5
5
5
5
5
5
5
5
5
5
5
5
5
5
5
5
5
5
POINT_DATA 320
SCALARS theta_e float 1
LOOKUP_TABLE default
0.993419
0.993405
0.993422
0.993444
0.993377
0.993503
0.993405
0.993458
0.993609
0.993322
0.993363
0.993545
0.993422
0.993487
0.993748
0.993663
0.993239
0.993294
0.993366
0.993571
0.993464
0.993127
0.993920
0.994120
0.993815
0.993698
0.993195
0.993276
0.993371
0.993578
0.993473
0.992995
0.993073
0.992850
0.994337
0.994556
0.994001
0.994211
0.993861
0.993715
0.993165
0.993273
0.993399
0.993561
0.992935
0.993037
0.992702
0.992789
0.994763
0.994943
0.994431
0.994646
0.994059
0.994275
0.993896
0.993740
0.993155
0.993293
0.993453
0.993605
0.992898
0.993022
0.992559
0.992643
0.992755
0.992431
0.995088
0.995194
0.994840
0.995004
0.994493
0.994698
0.994099
0.994315
0.993932
0.993758
0.993167
0.993365
0.993571
0.992882
0.993026
0.992505
0.992613
0.992743
0.992326
0.992386
0.992251
0.995264
0.995303
0.995130
0.995220
0.994877
0.995024
0.994526
0.994716
0.994146
0.994361
0.993946
0.993711
0.993266
0.993417
0.993500
0.992879
0.993151
0.992480
0.992741
0.992613
0.992294
0.992368
0.992231
0.992208
0.992190
0.995276
0.995306
0.995316
0.995219
0.995138
0.994880
0.995016
0.994555
0.994717
0.994156
0.994366
0.993831
0.993655
0.993312
0.993369
0.992997
0.993218
0.992823
0.992496
0.992625
0.992405
0.992279
0.992329
0.992231
0.992201
0.992187
0.992186
0.995270
0.995301
0.995207
0.995116
0.994859
0.994977
0.994552
0.994705
0.994055
0.994321
0.993893
0.993716
0.993383
0.993240
0.993133
0.993216
0.992985
0.992707
0.992502
0.992592
0.992386
0.992282
0.992221
0.992194
0.992185
0.995219
0.995264
0.995129
0.995008
0.994842
0.994681
0.994496
0.994118
0.994269
0.993515
0.994028
0.994065
0.993264
0.993285
0.993064
0.992909
0.992666
0.992501
0.992362
0.992271
0.992219
0.992196
0.995132
0.995196
0.995026
0.994882
0.994728
0.994533
0.994312
0.994252
0.994017
0.994021
0.994198
0.993451
0.993277
0.993015
0.992821
0.992621
0.992473
0.992355
0.992276
0.992232
0.995015
0.995095
0.994893
0.994743
0.994573
0.994349
0.994116
0.994157
0.993855
0.993946
0.993518
0.993161
0.992964
0.992784
0.992612
0.992475
0.992372
0.992305
0.994868
0.994963
0.994733
0.994585
0.994405
0.994161
0.993911
0.993938
0.993747
0.993347
0.993126
0.992962
0.992777
0.992626
0.992505
0.992418
0.994698
0.994803
0.994558
0.994414
0.994232
0.993996
0.993747
0.993628
0.993479
0.993296
0.993143
0.992957
0.992799
0.992668
0.992568
0.994517
0.994626
0.994377
0.994236
0.994065
0.993858
0.993636
0.993461
0.993309
0.993134
0.992979
0.992849
0.992743
0.994337
0.994445
0.994202
0.994062
0.993911
0.993745
0.993599
0.993455
0.993298
0.993156
0.993032
0.992928
0.994168
0.994269
0.994041
0.993906
0.993769
0.993604
0.993447
0.993318
0.993206
0.993110
0.994014
0.994107
0.993900
0.993780
0.993669
0.993562
0.993452
0.993357
0.993275
0.993880
0.993961
0.993779
0.993667
0.993556
0.993477
0.993412
0.993769
0.993836
0.993692
0.993624
0.993564
0.993515
0.993687
0.993734
0.993629
0.993588
0.993644
0.993669
0.993624
0.993640
VECTORS fa_u float
0.000000 0.000000 0.000000
0.000000 0.000000 0.000000
0.000000 0.000000 0.000000
0.000000 0.000000 0.000000
0.000000 0.000000 0.000000
0.000000 0.000000 0.000000
0.000000 0.000000 0.000000
0.000000 0.000000 0.000000
0.000000 0.000000 0.000000
0.000000 0.000000 0.000000
0.000000 0.000000 0.000000
0.000000 0.000000 0.000000
0.000000 0.000000 0.000000
0.000000 0.000000 0.000000
0.000000 0.000000 0.000000
0.000000 0.000000 0.000000
0.000000 0.000000 0.000000
0.000000 0.000000 0.000000
0.000000 0.000000 0.000000
0.000000 0.000000 0.000000
0.000000 0.000000 0.000000
0.000000 0.000000 0.000000
0.000000 0.000000 0.000000
0.000000 0.000000 0.000000
0.000000 0.000000 0.000000
0.000000 0.000000 0.000000
0.000000 0.000000 0.000000
0.000000 0.000000 0.000000
0.000000 0.000000 0.000000
0.000000 0.000000 0.000000
0.000000 0.000000 0.000000
0.000000 0.000000 0.000000
0.000000 0.000000 0.000000
0.000000 0.000000 0.000000
0.000000 0.000000 0.000000
0.000000 0.000000 0.000000
0.000000 0.000000 0.000000
0.000000 0.000000 0.000000
0.000000 0.000000 0.000000
0.000000 0.000000 0.000000
0.000000 0.000000 0.000000
0.000000 0.000000 0.000000
0.000000 0.000000 0.000000
0.000000 0.000000 0.000000
0.000000 0.000000 0.000000
0.000000 0.000000 0.000000
0.000000 0.000000 0.000000
0.000000 0.000000 0.000000
0.000000 0.000000 0.000000
0.000000 0.000000 0.000000
0.000000 0.000000 0.000000
0.000000 0.000000 0.000000
0.000000 0.000000 0.000000
0.000000 0.000000 0.000000
0.000000 0.000000 0.000000
0.000000 0.000000 0.000000
0.000000 0.000000 0.000000
0.000000 0.000000 0.000000
0.000000 0.000000 0.000000
0.000000 0.000000 0.000000
0.000000 0.000000 0.000000
0.000000 0.000000 0.000000
0.000000 0.000000 0.000000
0.000000 0.000000 0.000000
0.000000 0.000000 0.000000
0.000000 0.000000 0.000000
0.000000 0.000000 0.000000
0.000000 0.000000 0.000000
0.000000 0.000000 0.000000
0.000000 0.000000 0.000000
0.000000 0.000000 0.000000
0.000000 0.000000 0.000000
0.000000 0.000000 0.000000
0.000000 0.000000 0.000000
0.000000 0.000000 0.000000
0.000000 0.000000 0.000000
0.000000 0.000000 0.000000
0.000000 0.000000 0.000000
0.000000 0.000000 0.000000
0.000000 0.000000 0.000000
0.000000 0.000000 0.000000
0.000000 0.000000 0.000000
0.000000 0.000000 0.000000
0.000000 0.000000 0.000000
0.000000 0.000000 0.000000
0.000000 0.000000 0.000000
0.000000 0.000000 0.000000
0.000000 0.000000 0.000000
0.000000 0.000000 0.000000
0.000000 0.000000 0.000000
0.000000 0.000000 0.000000
0.000000 0.000000 0.000000
0.000000 0.000000 0.000000
0.000000 0.000000 0.000000
0.000000 0.000000 0.000000
0.000000 0.000000 0.000000
0.000000 0.000000 0.000000
0.000000 0.000000 0.000000
0.000000 0.000000 0.000000
0.000000 0.000000 0.000000
0.000000 0.000000 0.000000
0.000000 0.000000 0.000000
0.000000 0.000000 0.000000
0.000000 0.000000 0.000000
0.000000 0.000000 0.000000
0.000000 0.000000 0.000000
0.000000 0.000000 0.000000
0.000000 0.000000 0.000000
0.000000 0.000000 0.000000
0.000000 0.000000 0.000000
0.000000 0.000000 0.000000
0.000000 0.000000 0.000000
0.000000 0.000000 0.000000
0.000000 0.000000 0.000000
0.000000 0.000000 0.000000
0.000000 0.000000 0.000000
0.000000 0.000000 0.000000
0.000000 0.000000 0.000000
0.000000 0.000000 0.000000
0.000000 0.000000 0.000000
0.000000 0.000000 0.000000
0.000000 0.000000 0.000000
0.000000 0.000000 0.000000
0.000000 0.000000 0.000000
0.000000 0.000000 0.000000
0.000000 0.000000 0.000000
0.000000 0.000000 0.000000
0.000000 0.000000 0.000000
0.000000 0.000000 0.000000
0.000000 0.000000 0.000000
0.000000 0.000000 0.000000
0.000000 0.000000 0.000000
0.000000 0.000000 0.000000
0.000000 0.000000 0.000000
0.000000 0.000000 0.000000
0.000000 0.000000 0.000000
0.000000 0.000000 0.000000
0.000000 0.000000 0.000000
0.000000 0.000000 0.000000
0.000000 0.000000 0.000000
0.000000 0.000000 0.000000
0.000000 0.000000 0.000000
0.000000 0.000000 0.000000
0.000000 0.000000 0.000000
0.000000 0.000000 0.000000
0.000000 0.000000 0.000000
0.000000 0.000000 0.000000
0.000000 0.000000 0.000000
0.000000 0.000000 0.000000
0.000000 0.000000 0.000000
0.000000 0.000000 0.000000
0.000000 0.000000 0.000000
0.000000 0.000000 0.000000
0.000000 0.000000 0.000000
0.000000 0.000000 0.000000
0.000000 0.000000 0.000000
0.000000 0.000000 0.000000
0.000000 0.000000 0.000000
0.000000 0.000000 0.000000
0.000000 0.000000 0.000000
0.000000 0.000000 0.000000
0.000000 0.000000 0.000000
0.000000 0.000000 0.000000
0.000000 0.000000 0.000000
0.000000 0.000000 0.000000
0.000000 0.000000 0.000000
0.000000 0.000000 0.000000
0.000000 0.000000 0.000000
0.000000 0.000000 0.000000
0.000000 0.000000 0.000000
0.000000 0.000000 0.000000
0.000000 0.000000 0.000000
0.000000 0.000000 0.000000
0.000000 0.000000 0.000000
0.000000 0.000000 0.000000
0.000000 0.000000 0.000000
0.000000 0.000000 0.000000
0.000000 0.000000 0.000000
0.000000 0.000000 0.000000
0.000000 0.000000 0.000000
0.000000 0.000000 0.000000
0.000000 0.000000 0.000000
0.000000 0.000000 0.000000
0.000000 0.000000 0.000000
0.000000 0.000000 0.000000
0.000000 0.000000 0.000000
0.000000 0.000000 0.000000
0.000000 0.000000 0.000000
0.000000 0.000000 0.000000
0.000000 0.000000 0.000000
0.000000 0.000000 0.000000
0.000000 0.000000 0.000000
0.000000 0.000000 0.000000
0.000000 0.000000 0.000000
0.000000 0.000000 0.000000
0.000000 0.000000 0.000000
0.000000 0.000000 0.000000
0.000000 0.000000 0.000000
0.000000 0.000000 0.000000
0.000000 0.000000 0.000000
0.000000 0.000000 0.000000
0.000000 0.000000 0.000000
0.000000 0.000000 0.000000
0.000000 0.000000 0.000000
0.000000 0.000000 0.000000
0.000000 0.000000 0.000000
0.000000 0.000000 0.000000
0.000000 0.000000 0.000000
0.000000 0.000000 0.000000
0.000000 0.000000 0.000000
0.000000 0.000000 0.000000
0.000000 0.000000 0.000000
0.000000 0.000000 0.000000
0.000000 0.000000 0.000000
0.000000 0.000000 0.000000
0.000000 0.000000 0.000000
0.000000 0.000000 0.000000
0.000000 0.000000 0.000000
0.000000 0.000000 0.000000
0.000000 0.000000 0.000000
0.000000 0.000000 0.000000
0.000000 0.000000 0.000000
0.000000 0.000000 0.000000
0.000000 0.000000 0.000000
0.000000 0.000000 0.000000
0.000000 0.000000 0.000000
0.000000 0.000000 0.000000
0.000000 0.000000 0.000000
0.000000 0.000000 0.000000
0.000000 0.000000 0.000000
0.000000 0.000000 0.000000
0.000000 0.000000 0.000000
0.000000 0.000000 0.000000
0.000000 0.000000 0.000000
0.000000 0.000000 0.000000
0.000000 0.000000 0.000000
0.000000 0.000000 0.000000
0.000000 0.000000 0.000000
0.000000 0.000000 0.000000
0.000000 0.000000 0.000000
0.000000 0.000000 0.000000
0.000000 0.000000 0.000000
0.000000 0.000000 0.000000
0.000000 0.000000 0.000000
0.000000 0.000000 0.000000
0.000000 0.000000 0.000000
0.000000 0.000000 0.000000
0.000000 0.000000 0.000000
0.000000 0.000000 0.000000
0.000000 0.000000 0.000000
0.000000 0.000000 0.000000
0.000000 0.000000 0.000000
0.000000 0.000000 0.000000
0.000000 0.000000 0.000000
0.000000 0.000000 0.000000
0.000000 0.000000 0.000000
0.000000 0.000000 0.000000
0.000000 0.000000 0.000000
0.000000 0.000000 0.000000
0.000000 0.000000 0.000000
0.000000 0.000000 0.000000
0.000000 0.000000 0.000000
0.000000 0.000000 0.000000
0.000000 0.000000 0.000000
0.000000 0.000000 0.000000
0.000000 0.000000 0.000000
0.000000 0.000000 0.000000
0.000000 0.000000 0.000000
0.000000 0.000000 0.000000
0.000000 0.000000 0.000000
0.000000 0.000000 0.000000
0.000000 0.000000 0.000000
0.000000 0.000000 0.000000
0.000000 0.000000 0.000000
0.000000 0.000000 0.000000
0.000000 0.000000 0.000000
0.000000 0.000000 0.000000
0.000000 0.000000 0.000000
0.000000 0.000000 0.000000
0.000000 0.000000 0.000000
0.000000 0.000000 0.000000
0.000000 0.000000 0.000000
0.000000 0.000000 0.000000
0.000000 0.000000 0.000000
0.000000 0.000000 0.000000
0.000000 0.000000 0.000000
0.000000 0.000000 0.000000
0.000000 0.000000 0.000000
0.000000 0.000000 0.000000
0.000000 0.000000 0.000000
0.000000 0.000000 0.000000
0.000000 0.000000 0.000000
0.000000 0.000000 0.000000
0.000000 0.000000 0.000000
0.000000 0.000000 0.000000
0.000000 0.000000 0.000000
0.000000 0.000000 -50.000000
-50.000000 0.000000 -50.000000
-43.336673 0.000000 -45.692438
-45.522914 0.000000 -43.290527
-50.000000 0.000000 -50.000000
-36.672370 0.000000 -36.581212
-50.000000 0.000000 -45.084708
-40.028217 0.000000 -40.028736
-44.194312 0.000000 -29.871999
-50.000000 0.000000 -50.000000
-30.007809 0.000000 -44.850245
-33.542248 0.000000 -33.130533
-44.717020 0.000000 -39.864455
-36.865626 0.000000 -35.120885
-39.871863 0.000000 -23.163564
-50.000000 0.000000 -26.516587
-44.706791 0.000000 -50.000000
-23.345005 0.000000 -44.666437
-26.936153 0.000000 -39.356896
-30.343227 0.000000 -29.591547
-39.431878 0.000000 -33.354575
-33.761501 0.000000 -50.000000
-16.682701 0.000000 -16.463195
-50.000000 0.000000 -9.772647
