# vtk DataFile Version 2.0
CellBP Time: 1.84
ASCII
DATASET UNSTRUCTURED_GRID
POINTS 320 double
-50.000000 -50.000000 0.000000
-50.000000 -43.356076 0.000000
-45.679650 -45.534254 0.000000
-43.273118 -50.000000 0.000000
-50.000000 -36.709986 0.000000
-36.547789 -50.000000 0.000000
-45.070401 -40.053938 0.000000
-40.000164 -44.208746 0.000000
-29.823989 -50.000000 0.000000
-50.000000 -30.061842 0.000000
-44.835702 -33.583261 0.000000
-33.084817 -44.729549 0.000000
-39.836468 -36.898289 0.000000
-35.080184 -39.896421 0.000000
-23.103225 -50.000000 0.000000
-26.456092 -44.719389 0.000000
-50.000000 -23.413076 0.000000
-44.651660 -26.990761 0.000000
-39.328114 -30.390302 0.000000
-29.537503 -39.456954 0.000000
-33.310355 -33.800310 0.000000
-50.000000 -16.761508 0.000000
-16.393434 -50.000000 0.000000
-9.696812 -50.000000 0.000000
-19.863472 -44.638268 0.000000
-23.121937 -39.211980 0.000000
-44.676970 -20.332662 0.000000
-39.328902 -23.743720 0.000000
-34.042185 -27.134836 0.000000
-26.300245 -33.724344 0.000000
-29.072387 -29.113869 0.000000
-50.000000 -10.108409 0.000000
-44.649098 -13.691939 0.000000
-50.000000 -3.455933 0.000000
-3.013365 -50.000000 0.000000
3.654114 -50.000000 0.000000
-13.227175 -44.644113 0.000000
-6.556817 -44.652914 0.000000
-16.577011 -39.243421 0.000000
-19.995840 -33.487767 0.000000
-39.295443 -17.069772 0.000000
-33.953363 -20.524676 0.000000
-28.690398 -23.684537 0.000000
-23.398049 -27.557437 0.000000
-44.612304 -7.030606 0.000000
-39.238952 -10.419378 0.000000
-50.000000 3.202941 0.000000
-44.596045 -0.379083 0.000000
10.304515 -50.000000 0.000000
16.939970 -50.000000 0.000000
0.118492 -44.656108 0.000000
6.786468 -44.666198 0.000000
-9.908982 -39.308766 0.000000
-3.221513 -39.301432 0.000000
-13.347744 -33.932639 0.000000
-16.567473 -28.465583 0.000000
-33.865719 -13.826379 0.000000
-28.495330 -17.188060 0.000000
-23.164443 -20.586527 0.000000
-18.517606 -23.528586 0.000000
-39.197725 -3.765234 0.000000
-33.795028 -7.183051 0.000000
-50.000000 9.898669 0.000000
-44.578215 6.279125 0.000000
-39.174720 2.897121 0.000000
-50.000000 16.666712 0.000000
23.564451 -50.000000 0.000000
30.180502 -50.000000 0.000000
13.445551 -44.687324 0.000000
20.104147 -44.719564 0.000000
3.457410 -39.316045 0.000000
10.116628 -39.349715 0.000000
-6.579657 -33.918107 0.000000
0.128762 -33.943379 0.000000
-9.928138 -28.473234 0.000000
-12.954889 -23.138507 0.000000
-28.390084 -10.584876 0.000000
-22.903303 -14.005960 0.000000
-16.803508 -17.509250 0.000000
-33.737672 -0.545143 0.000000
-28.372441 -4.033342 0.000000
-44.540926 12.977478 0.000000
-39.110269 9.530669 0.000000
-33.700936 5.992399 0.000000
-50.000000 23.540486 0.000000
-44.586360 19.781088 0.000000
-50.000000 30.511099 0.000000
36.788426 -50.000000 0.000000
43.394741 -50.000000 0.000000
26.757915 -44.759762 0.000000
33.386339 -44.884762 0.000000
16.763286 -39.406408 0.000000
23.438599 -39.476895 0.000000
6.801260 -33.977047 0.000000
13.437593 -34.045246 0.000000
-3.167894 -28.521050 0.000000
3.533339 -28.590757 0.000000
-6.435887 -23.058424 0.000000
-9.774153 -17.589372 0.000000
-22.967918 -7.437971 0.000000
-17.582557 -10.703049 0.000000
-12.610306 -12.918092 0.000000
-28.333399 2.529809 0.000000
-22.974300 -0.986372 0.000000
-38.973663 16.229142 0.000000
-28.301599 9.227990 0.000000
-33.486946 12.402064 0.000000
-44.730251 26.559959 0.000000
-38.689815 23.596099 0.000000
-44.976748 33.371248 0.000000
-50.000000 37.470327 0.000000
-50.000000 43.844530 0.000000
39.964014 -45.078062 0.000000
45.487073 -45.666118 0.000000
50.000000 -50.000000 0.000000
36.684495 -40.009043 0.000000
30.096322 -39.491614 0.000000
20.030531 -34.157580 0.000000
26.686643 -34.374354 0.000000
10.153667 -28.628728 0.000000
16.755674 -28.752139 0.000000
0.251103 -23.141656 0.000000
6.998591 -23.310646 0.000000
-3.180724 -17.540590 0.000000
-6.611737 -11.367548 0.000000
-17.576222 -4.276327 0.000000
-12.253163 -7.419790 0.000000
-22.906439 5.453163 0.000000
-17.658790 1.932565 0.000000
-22.571526 11.395627 0.000000
-33.279455 18.437856 0.000000
-27.348626 16.046471 0.000000
-32.996937 23.782971 0.000000
-40.279324 30.494860 0.000000
-35.368159 28.914287 0.000000
-39.892901 35.473732 0.000000
-43.901976 40.151802 0.000000
-45.261113 45.758193 0.000000
-50.000000 50.000000 0.000000
44.137237 -39.920257 0.000000
50.000000 -43.392458 0.000000
39.680181 -35.087869 0.000000
33.534864 -33.475035 0.000000
23.105767 -28.899097 0.000000
28.828057 -29.316992 0.000000
13.624809 -23.245211 0.000000
20.195778 -23.544453 0.000000
3.606917 -17.777862 0.000000
10.315681 -17.988419 0.000000
0.383766 -12.279162 0.000000
-1.869639 -6.568422 0.000000
-7.087104 -4.073394 0.000000
-12.273972 -1.232014 0.000000
-17.664627 7.969242 0.000000
-12.546197 4.751430 0.000000
-17.935764 13.081417 0.000000
-20.693637 16.749605 0.000000
-27.972253 22.457076 0.000000
-23.283690 20.942692 0.000000
-29.685110 28.608141 0.000000
-34.112105 34.053845 0.000000
-36.829427 39.923835 0.000000
-39.604076 45.257872 0.000000
-43.383564 50.000000 0.000000
44.602911 -33.018447 0.000000
50.000000 -36.772871 0.000000
39.178696 -29.638510 0.000000
33.579832 -26.440468 0.000000
27.294155 -23.415002 0.000000
23.198766 -18.761208 0.000000
17.150540 -17.108068 0.000000
6.927167 -12.395578 0.000000
12.539558 -12.882272 0.000000
-3.046638 -1.791722 0.000000
4.198448 -7.262140 0.000000
1.336640 -2.358776 0.000000
-6.664230 1.988777 0.000000
-8.010985 7.477435 0.000000
-12.269716 11.493852 0.000000
-14.996053 17.260144 0.000000
-18.408638 22.672442 0.000000
-23.512738 27.162976 0.000000
-26.890442 33.572237 0.000000
-29.994545 39.290836 0.000000
-33.073923 44.826180 0.000000
-36.604421 50.000000 0.000000
44.570733 -26.562900 0.000000
50.000000 -30.154496 0.000000
39.093900 -23.255751 0.000000
33.537168 -19.988529 0.000000
28.157570 -16.685200 0.000000
22.833180 -13.252273 0.000000
17.359388 -10.060841 0.000000
11.172828 -6.823583 0.000000
-1.033769 2.053839 0.000000
6.525810 -1.928717 0.000000
3.230270 1.387684 0.000000
-3.170148 6.937393 0.000000
-5.822703 12.139985 0.000000
-9.040837 17.386608 0.000000
-12.491231 22.841856 0.000000
-16.717976 27.992516 0.000000
-20.111094 33.325031 0.000000
-23.242906 38.968946 0.000000
-26.389655 44.599062 0.000000
-29.841507 50.000000 0.000000
44.555188 -20.007017 0.000000
50.000000 -23.528875 0.000000
39.098404 -16.684734 0.000000
33.675443 -13.385621 0.000000
28.285747 -10.092223 0.000000
22.898330 -6.749044 0.000000
17.478444 -3.502588 0.000000
12.314440 0.013275 0.000000
2.280154 6.066205 0.000000
7.396859 3.667325 0.000000
0.231392 11.739859 0.000000
-2.772224 17.279205 0.000000
-6.163478 22.770187 0.000000
-10.049960 28.095383 0.000000
-13.264356 33.518099 0.000000
-16.530767 38.974840 0.000000
-19.721849 44.490498 0.000000
-23.125922 50.000000 0.000000
44.568018 -13.388934 0.000000
50.000000 -16.893808 0.000000
39.150579 -10.066002 0.000000
33.756050 -6.754699 0.000000
28.386827 -3.439577 0.000000
23.044183 -0.129871 0.000000
17.793640 3.202561 0.000000
12.545462 6.418283 0.000000
7.114750 10.656980 0.000000
3.722866 16.993735 0.000000
0.364837 22.676839 0.000000
-3.074182 28.175877 0.000000
-6.413572 33.664318 0.000000
-9.751377 39.091036 0.000000
-13.051337 44.520575 0.000000
-16.484455 50.000000 0.000000
44.591314 -6.744214 0.000000
50.000000 -10.246091 0.000000
39.201036 -3.424399 0.000000
33.833866 -0.106200 0.000000
28.501507 3.216114 0.000000
23.225346 6.556782 0.000000
18.110001 9.882900 0.000000
12.979589 12.060959 0.000000
10.139893 17.079234 0.000000
6.847257 22.586785 0.000000
3.565872 28.159510 0.000000
0.254968 33.652753 0.000000
-3.072397 39.110078 0.000000
-6.373153 44.551306 0.000000
-9.836157 50.000000 0.000000
44.616907 -0.087537 0.000000
50.000000 -3.584675 0.000000
39.251271 3.231453 0.000000
33.910305 6.547710 0.000000
28.606142 9.880754 0.000000
23.278395 13.298401 0.000000
17.229542 16.902291 0.000000
13.209489 22.561862 0.000000
10.132090 28.144265 0.000000
6.924274 33.653457 0.000000
3.602411 39.120861 0.000000
0.289950 44.563485 0.000000
-3.181565 50.000000 0.000000
44.631559 6.580893 0.000000
50.000000 3.090335 0.000000
39.287093 9.890655 0.000000
33.978897 13.183956 0.000000
28.723231 16.489922 0.000000
23.606726 19.991419 0.000000
18.788988 23.022312 0.000000
16.655842 28.224614 0.000000
13.600336 33.701281 0.000000
10.262618 39.148551 0.000000
6.952280 44.570457 0.000000
3.474230 50.000000 0.000000
44.655754 13.241856 0.000000
50.000000 9.777875 0.000000
39.340874 16.534490 0.000000
34.064089 19.787816 0.000000
28.784859 22.852679 0.000000
23.489415 27.141315 0.000000
20.127324 33.256184 0.000000
16.810589 39.011152 0.000000
13.520194 44.514449 0.000000
10.130048 50.000000 0.000000
44.679081 19.907815 0.000000
50.000000 16.474694 0.000000
39.386153 23.198386 0.000000
34.171334 26.457853 0.000000
29.132500 28.483180 0.000000
26.384005 33.364376 0.000000
23.262974 38.939854 0.000000
20.101064 44.495140 0.000000
16.780678 50.000000 0.000000
44.686882 26.590302 0.000000
50.000000 23.176633 0.000000
39.380283 29.918564 0.000000
33.344133 33.332556 0.000000
29.565877 39.018601 0.000000
26.592593 44.494759 0.000000
23.427749 50.000000 0.000000
44.820410 33.253103 0.000000
50.000000 29.881427 0.000000
39.818649 36.566306 0.000000
34.945856 39.503961 0.000000
32.959824 44.503044 0.000000
30.073036 50.000000 0.000000
45.021079 39.855544 0.000000
50.000000 36.587619 0.000000
39.816108 43.957529 0.000000
36.714776 50.000000 0.000000
45.658314 45.401771 0.000000
50.000000 43.293666 0.000000
43.355534 50.000000 0.000000
50.000000 50.000000 0.000000
CELLS 578 2312
3 1 0 2
3 0 3 2
3 4 1 6
3 6 1 2
3 3 5 7
3 3 7 2
3 6 2 7
3 9 4 10
3 10 4 6
3 5 8 11
3 7 5 11
3 10 6 12
3 12 6 7
3 7 11 13
3 7 13 12
3 8 14 15
3 11 8 15
3 16 9 17
3 17 9 10
3 17 10 18
3 18 10 12
3 11 15 19
3 13 11 19
3 18 12 20
3 13 19 20
3 20 12 13
3 14 22 24
3 15 14 24
3 15 24 25
3 19 15 25
3 21 16 26
3 26 16 17
3 26 17 27
3 27 17 18
3 27 18 28
3 28 18 20
3 19 25 29
3 19 29 20
3 28 20 30
3 30 20 29
3 31 21 32
3 32 21 26
3 22 23 36
3 24 22 36
3 23 34 37
3 36 23 37
3 24 36 38
3 25 24 38
3 25 38 39
3 29 25 39
3 32 26 40
3 40 26 27
3 40 27 41
3 41 27 28
3 41 28 42
3 42 28 30
3 29 39 43
3 29 43 30
3 42 30 43
3 33 31 44
3 44 31 32
3 44 32 45
3 45 32 40
3 46 33 47
3 47 33 44
3 34 35 50
3 37 34 50
3 35 48 51
3 50 35 51
3 36 37 52
3 38 36 52
3 37 50 53
3 52 37 53
3 38 52 54
3 39 38 54
3 39 54 55
3 43 39 55
3 45 40 56
3 56 40 41
3 56 41 57
3 57 41 42
3 57 42 58
3 58 42 43
3 43 55 59
3 43 59 58
3 47 44 60
3 60 44 45
3 60 45 61
3 61 45 56
3 62 46 63
3 63 46 47
3 63 47 64
3 64 47 60
3 48 49 68
3 51 48 68
3 49 66 69
3 68 49 69
3 50 51 70
3 53 50 70
3 51 68 71
3 70 51 71
3 52 53 72
3 54 52 72
3 53 70 73
3 72 53 73
3 54 72 74
3 55 54 74
3 55 74 75
3 59 55 75
3 61 56 76
3 76 56 57
3 76 57 77
3 77 57 58
3 77 58 78
3 59 75 78
3 78 58 59
3 64 60 79
3 79 60 61
3 79 61 80
3 80 61 76
3 65 62 81
3 81 62 63
3 81 63 82
3 82 63 64
3 82 64 83
3 83 64 79
3 84 65 85
3 85 65 81
3 66 67 89
3 69 66 89
3 67 87 90
3 89 67 90
3 68 69 91
3 71 68 91
3 69 89 92
3 91 69 92
3 70 71 93
3 73 70 93
3 71 91 94
3 93 71 94
3 72 73 95
3 74 72 95
3 73 93 96
3 95 73 96
3 74 95 97
3 75 74 97
3 75 97 98
3 78 75 98
3 80 76 99
3 99 76 77
3 99 77 100
3 100 77 78
3 100 78 101
3 98 101 78
3 83 79 102
3 102 79 80
3 102 80 103
3 103 80 99
3 85 81 104
3 104 81 82
3 105 83 102
3 104 82 106
3 106 82 83
3 106 83 105
3 86 84 107
3 107 84 85
3 107 85 108
3 108 85 104
3 109 86 107
3 110 86 109
3 87 88 112
3 90 87 112
3 112 88 113
3 88 114 113
3 90 112 115
3 89 90 116
3 92 89 116
3 116 90 115
3 91 92 117
3 94 91 117
3 92 116 118
3 117 92 118
3 93 94 119
3 96 93 119
3 94 117 120
3 119 94 120
3 95 96 121
3 97 95 121
3 96 119 122
3 121 96 122
3 97 121 123
3 98 97 123
3 98 123 124
3 98 124 101
3 103 99 125
3 125 99 100
3 125 100 126
3 126 100 101
3 126 101 124
3 105 102 127
3 127 102 103
3 127 103 128
3 128 103 125
3 129 105 127
3 108 104 130
3 130 104 106
3 130 106 131
3 131 106 105
3 131 105 129
3 108 130 132
3 109 107 133
3 133 107 108
3 133 108 134
3 108 132 134
3 135 109 133
3 111 110 136
3 136 110 109
3 136 109 135
3 137 111 136
3 138 111 137
3 112 113 139
3 115 112 139
3 114 140 113
3 140 139 113
3 139 141 115
3 116 115 142
3 118 116 142
3 142 115 141
3 117 118 143
3 120 117 143
3 118 142 144
3 143 118 144
3 119 120 145
3 122 119 145
3 120 143 146
3 145 120 146
3 121 122 147
3 123 121 147
3 122 145 148
3 147 122 148
3 123 147 149
3 124 123 149
3 124 149 150
3 151 126 124
3 124 150 151
3 128 125 152
3 152 125 126
3 152 126 151
3 129 127 153
3 153 127 128
3 128 152 154
3 153 128 154
3 155 129 153
3 131 129 156
3 156 129 155
3 132 130 157
3 130 131 157
3 157 131 158
3 131 156 158
3 132 157 159
3 132 159 134
3 135 133 160
3 160 133 134
3 160 134 159
3 136 135 161
3 135 160 161
3 162 137 136
3 161 162 136
3 163 138 137
3 162 163 137
3 139 164 141
3 140 165 139
3 139 165 164
3 141 164 166
3 141 166 142
3 166 167 142
3 144 142 167
3 167 168 144
3 143 144 168
3 146 143 168
3 168 169 146
3 145 146 170
3 148 145 170
3 170 146 169
3 147 148 171
3 149 147 171
3 148 170 172
3 171 148 172
3 173 151 150
3 149 171 174
3 150 149 174
3 150 174 175
3 150 175 173
3 154 152 176
3 152 151 176
3 176 151 173
3 154 176 177
3 155 153 178
3 177 178 154
3 154 178 153
3 156 155 179
3 155 178 179
3 180 158 156
3 179 180 156
3 181 159 157
3 180 181 158
3 181 157 158
3 182 160 159
3 181 182 159
3 183 161 160
3 182 183 160
3 184 162 161
3 184 161 183
3 185 163 162
3 184 185 162
3 164 186 166
3 165 187 164
3 164 187 186
3 166 186 188
3 166 188 167
3 167 188 189
3 167 189 168
3 168 189 190
3 168 190 169
3 169 190 191
3 169 191 170
3 192 172 170
3 170 191 192
3 192 193 172
3 171 172 193
3 174 171 193
3 194 173 175
3 176 173 194
3 175 174 195
3 193 195 174
3 195 196 175
3 175 196 194
3 197 177 176
3 194 197 176
3 198 178 177
3 197 198 177
3 199 179 178
3 198 199 178
3 200 180 179
3 199 200 179
3 201 181 180
3 200 201 180
3 202 182 181
3 201 202 181
3 203 183 182
3 202 203 182
3 204 184 183
3 203 204 183
3 205 185 184
3 204 205 184
3 186 206 188
3 187 207 186
3 186 207 206
3 188 206 208
3 188 208 189
3 189 208 209
3 189 209 190
3 190 209 210
3 190 210 191
3 191 210 211
3 191 211 192
3 192 211 212
3 192 212 193
3 193 212 213
3 193 213 195
3 214 197 194
3 214 194 196
3 195 213 215
3 195 215 196
3 196 215 214
3 216 198 197
3 214 216 197
3 217 199 198
3 216 217 198
3 218 200 199
3 217 218 199
3 219 201 200
3 218 219 200
3 220 202 201
3 219 220 201
3 221 203 202
3 220 221 202
3 222 204 203
3 221 222 203
3 223 205 204
3 222 223 204
3 206 224 208
3 207 225 206
3 206 225 224
3 208 224 226
3 208 226 209
3 209 226 227
3 209 227 210
3 210 227 228
3 210 228 211
3 211 228 229
3 211 229 212
3 212 229 230
3 212 230 213
3 213 230 231
3 213 231 215
3 232 216 214
3 215 231 232
3 232 214 215
3 233 217 216
3 232 233 216
3 234 218 217
3 233 234 217
3 235 219 218
3 234 235 218
3 236 220 219
3 235 236 219
3 237 221 220
3 236 237 220
3 238 222 221
3 237 238 221
3 239 223 222
3 238 239 222
3 224 240 226
3 225 241 224
3 224 241 240
3 226 240 242
3 226 242 227
3 227 242 243
3 227 243 228
3 228 243 244
3 228 244 229
3 244 245 229
3 229 245 230
3 230 245 246
3 230 246 231
3 231 246 247
3 231 247 232
3 248 233 232
3 248 232 247
3 249 234 233
3 248 249 233
3 250 235 234
3 249 250 234
3 251 236 235
3 250 251 235
3 252 237 236
3 251 252 236
3 253 238 237
3 252 253 237
3 254 239 238
3 253 254 238
3 240 255 242
3 241 256 240
3 240 256 255
3 242 255 257
3 242 257 243
3 243 257 258
3 243 258 244
3 244 258 259
3 244 259 245
3 245 259 260
3 245 260 246
3 246 260 261
3 246 261 247
3 248 247 261
3 262 249 248
3 261 262 248
3 263 250 249
3 262 263 249
3 264 251 250
3 263 264 250
3 265 252 251
3 264 265 251
3 266 253 252
3 265 266 252
3 267 254 253
3 266 267 253
3 255 268 257
3 256 269 255
3 255 269 268
3 257 268 270
3 257 270 258
3 258 270 271
3 258 271 259
3 259 271 272
3 259 272 260
3 260 272 273
3 260 273 261
3 274 262 261
3 261 273 274
3 275 263 262
3 274 275 262
3 276 264 263
3 275 276 263
3 277 265 264
3 276 277 264
3 278 266 265
3 277 278 265
3 279 267 266
3 278 279 266
3 268 280 270
3 269 281 268
3 268 281 280
3 270 280 282
3 270 282 271
3 271 282 283
3 271 283 272
3 283 284 272
3 272 284 273
3 285 275 274
3 273 284 285
3 285 274 273
3 286 276 275
3 285 286 275
3 287 277 276
3 286 287 276
3 288 278 277
3 287 288 277
3 289 279 278
3 288 289 278
3 280 290 282
3 281 291 280
3 280 291 290
3 282 290 292
3 282 292 283
3 283 292 293
3 283 293 284
3 284 293 294
3 284 294 285
3 295 286 285
3 295 285 294
3 296 287 286
3 295 296 286
3 297 288 287
3 296 297 287
3 298 289 288
3 297 298 288
3 290 299 292
3 291 300 290
3 290 300 299
3 292 299 301
3 292 301 293
3 293 301 302
3 293 302 294
3 294 302 295
3 303 296 295
3 303 295 302
3 304 297 296
3 303 304 296
3 305 298 297
3 304 305 297
3 299 306 301
3 300 307 299
3 299 307 306
3 301 306 308
3 301 308 302
3 309 303 302
3 302 308 309
3 310 304 303
3 309 310 303
3 311 305 304
3 310 311 304
3 306 312 308
3 307 313 306
3 306 313 312
3 314 310 309
3 308 312 314
3 314 309 308
3 315 311 310
3 314 315 310
3 312 316 314
3 313 317 312
3 312 317 316
3 318 315 314
3 318 314 316
3 317 319 316
3 319 318 316
CELL_TYPES 578
5
5
5
5
5
5
5
5
5
5
5
5
5
5
5
5
5
5
5
5
5
5
5
5
5
5
5
5
5
5
5
5
5
5
5
5
5
5
5
5
5
5
5
5
5
5
5
5
5
5
5
5
5
5
5
5
5
5
5
5
5
5
5
5
5
5
5
5
5
5
5
5
5
5
5
5
5
5
5
5
5
5
5
5
5
5
5
5
5
5
5
5
5
5
5
5
5
5
5
5
5
5
5
5
5
5
5
5
5
5
5
5
5
5
5
5
5
5
5
5
5
5
5
5
5
5
5
5
5
5
5
5
5
5
5
5
5
5
5
5
5
5
5
5
5
5
5
5
5
5
5
5
5
5
5
5
5
5
5
5
5
5
5
5
5
5
5
5
5
5
5
5
5
5
5
5
5
5
5
5
5
5
5
5
5
5
5
5
5
5
5
5
5
5
5
5
5
5
5
5
5
5
5
5
5
5
5
5
5
5
5
5
5
5
5
5
5
5
5
5
5
5
5
5
5
5
5
5
5
5
5
5
5
5
5
5
5
5
5
5
5
5
5
5
5
5
5
5
5
5
5
5
5
5
5
5
5
5
5
5
5
5
5
5
5
5
5
5
5
5
5
5
5
5
5
5
5
5
5
5
5
5
5
5
5
5
5
5
5
5
5
5
5
5
5
5
5
5
5
5
5
5
5
5
5
5
5
5
5
5
5
5
5
5
5
5
5
5
5
5
5
5
5
5
5
5
5
5
5
5
5
5
5
5
5
5
5
5
5
5
5
5
5
5
5
5
5
5
5
5
5
5
5
5
5
5
5
5
5
5
5
5
5
5
5
5
5
5
5
5
5
5
5
5
5
5
5
5
5
5
5
5
5
5
5
5
5
5
5
5
5
5
5
5
5
5
5
5
5
5
5
5
5
5
5
5
5
5
5
5
5
5
5
5
5
5
5
5
5
5
5
5
5
5
5
5
5
5
5
5
5
5
5
5
5
5
5
5
5
5
5
5
5
5
5
5
5
5
5
5
5
5
5
5
5
5
5
5
5
5
5
5
5
5
5
5
5
5
5
5
5
5
5
5
5
5
5
5
5
5
5
5
5
5
5
5
5
5
5
5
5
5
5
5
5
5
5
5
5
5
5
5
5
5
5
5
5
5
5
5
5
5
5
5
5
5
5
5
5
5
5
5
5
5
5
5
5
5
5
5
5
5
5
5
5
5
5
5
5
5
5
5
5
5
5
5
5
5
5
5
5
5
5
5
5
5
5
5
5
5
5
5
5
5
5
5
5
5
5
5
5
5
5
5
5
5
5
5
POINT_DATA 320
SCALARS theta_e float 1
LOOKUP_TABLE default
0.993589
0.993633
0.993596
0.993567
0.993738
0.993507
0.993663
0.993572
0.993388
0.993910
0.993800
0.993467
0.993676
0.993565
0.993222
0.993327
0.994133
0.993995
0.993834
0.993460
0.993651
0.994400
0.993010
0.992759
0.993139
0.993298
0.994243
0.994063
0.993872
0.993494
0.993692
0.994695
0.994528
0.995003
0.992482
0.992191
0.992907
0.992641
0.993090
0.993313
0.994334
0.994117
0.993883
0.993591
0.994834
0.994636
0.995309
0.995144
0.991898
0.991615
0.992355
0.992060
0.992834
0.992552
0.993068
0.993332
0.994404
0.994147
0.993863
0.993599
0.994948
0.994709
0.995602
0.995445
0.995256
0.995875
0.991356
0.991137
0.991768
0.991494
0.992254
0.991955
0.992792
0.992492
0.993070
0.993383
0.994437
0.994130
0.993765
0.995016
0.994738
0.995729
0.995550
0.995316
0.996122
0.995991
0.996323
0.990973
0.990876
0.991252
0.991059
0.991667
0.991406
0.992184
0.991883
0.992772
0.992453
0.993087
0.993429
0.994431
0.994056
0.993725
0.995038
0.994729
0.995827
0.995327
0.995597
0.996214
0.996070
0.996392
0.996469
0.996536
0.990928
0.990862
0.990845
0.991024
0.991186
0.991603
0.991362
0.992137
0.991846
0.992757
0.992424
0.993108
0.993685
0.994388
0.994200
0.995009
0.994690
0.995261
0.995844
0.995589
0.996031
0.996272
0.996174
0.996394
0.996491
0.996546
0.996553
0.990927
0.990870
0.991032
0.991182
0.991589
0.991386
0.992113
0.991843
0.992785
0.992451
0.993135
0.993351
0.993999
0.994520
0.994943
0.994880
0.995098
0.995424
0.995863
0.995681
0.996073
0.996267
0.996410
0.996497
0.996536
0.991018
0.990942
0.991157
0.991333
0.991593
0.991869
0.992147
0.992762
0.992519
0.993795
0.992947
0.993542
0.994346
0.994861
0.995027
0.995166
0.995532
0.995855
0.996093
0.996261
0.996381
0.996458
0.991164
0.991064
0.991318
0.991525
0.991774
0.992076
0.992398
0.992801
0.994299
0.993241
0.994120
0.994077
0.994777
0.994984
0.995253
0.995612
0.995864
0.996054
0.996200
0.996309
0.991344
0.991225
0.991518
0.991742
0.992008
0.992309
0.992653
0.992985
0.993856
0.993621
0.994078
0.994726
0.994960
0.995300
0.995580
0.995794
0.995964
0.996099
0.991552
0.991417
0.991744
0.991983
0.992258
0.992578
0.992911
0.993229
0.993703
0.994303
0.994640
0.994962
0.995254
0.995488
0.995680
0.995838
0.991779
0.991631
0.991985
0.992235
0.992518
0.992852
0.993223
0.993588
0.993937
0.994299
0.994603
0.994898
0.995147
0.995359
0.995536
0.992018
0.991862
0.992232
0.992487
0.992777
0.993132
0.993553
0.993946
0.994247
0.994534
0.994788
0.995012
0.995204
0.992260
0.992103
0.992474
0.992728
0.993015
0.993344
0.993648
0.993905
0.994175
0.994425
0.994651
0.994849
0.992496
0.992345
0.992699
0.992942
0.993217
0.993552
0.993829
0.994071
0.994290
0.994487
0.992713
0.992577
0.992897
0.993115
0.993342
0.993544
0.993759
0.993957
0.994138
0.992900
0.992784
0.993065
0.993283
0.993500
0.993666
0.993820
0.993043
0.992953
0.993175
0.993315
0.993430
0.993554
0.993138
0.993075
0.993250
0.993342
0.993180
0.993144
0.993224
0.993178
VECTORS fa_u float
0.000000 0.000000 0.000000
0.000000 0.000000 0.000000
0.000000 0.000000 0.000000
0.000000 0.000000 0.000000
0.000000 0.000000 0.000000
0.000000 0.000000 0.000000
0.000000 0.000000 0.000000
0.000000 0.000000 0.000000
0.000000 0.000000 0.000000
0.000000 0.000000 0.000000
0.000000 0.000000 0.000000
0.000000 0.000000 0.000000
0.000000 0.000000 0.000000
0.000000 0.000000 0.000000
0.000000 0.000000 0.000000
0.000000 0.000000 0.000000
0.000000 0.000000 0.000000
0.000000 0.000000 0.000000
0.000000 0.000000 0.000000
0.000000 0.000000 0.000000
0.000000 0.000000 0.000000
0.000000 0.000000 0.000000
0.000000 0.000000 0.000000
0.000000 0.000000 0.000000
0.000000 0.000000 0.000000
0.000000 0.000000 0.000000
0.000000 0.000000 0.000000
0.000000 0.000000 0.000000
0.000000 0.000000 0.000000
0.000000 0.000000 0.000000
0.000000 0.000000 0.000000
0.000000 0.000000 0.000000
0.000000 0.000000 0.000000
0.000000 0.000000 0.000000
0.000000 0.000000 0.000000
0.000000 0.000000 0.000000
0.000000 0.000000 0.000000
0.000000 0.000000 0.000000
0.000000 0.000000 0.000000
0.000000 0.000000 0.000000
0.000000 0.000000 0.000000
0.000000 0.000000 0.000000
0.000000 0.000000 0.000000
0.000000 0.000000 0.000000
0.000000 0.000000 0.000000
0.000000 0.000000 0.000000
0.000000 0.000000 0.000000
0.000000 0.000000 0.000000
0.000000 0.000000 0.000000
0.000000 0.000000 0.000000
0.000000 0.000000 0.000000
0.000000 0.000000 0.000000
0.000000 0.000000 0.000000
0.000000 0.000000 0.000000
0.000000 0.000000 0.000000
0.000000 0.000000 0.000000
0.000000 0.000000 0.000000
0.000000 0.000000 0.000000
0.000000 0.000000 0.000000
0.000000 0.000000 0.000000
0.000000 0.000000 0.000000
0.000000 0.000000 0.000000
0.000000 0.000000 0.000000
0.000000 0.000000 0.000000
0.000000 0.000000 0.000000
0.000000 0.000000 0.000000
0.000000 0.000000 0.000000
0.000000 0.000000 0.000000
0.000000 0.000000 0.000000
0.000000 0.000000 0.000000
0.000000 0.000000 0.000000
0.000000 0.000000 0.000000
0.000000 0.000000 0.000000
0.000000 0.000000 0.000000
0.000000 0.000000 0.000000
0.000000 0.000000 0.000000
0.000000 0.000000 0.000000
0.000000 0.000000 0.000000
0.000000 0.000000 0.000000
0.000000 0.000000 0.000000
0.000000 0.000000 0.000000
0.000000 0.000000 0.000000
0.000000 0.000000 0.000000
0.000000 0.000000 0.000000
0.000000 0.000000 0.000000
0.000000 0.000000 0.000000
0.000000 0.000000 0.000000
0.000000 0.000000 0.000000
0.000000 0.000000 0.000000
0.000000 0.000000 0.000000
0.000000 0.000000 0.000000
0.000000 0.000000 0.000000
0.000000 0.000000 0.000000
0.000000 0.000000 0.000000
0.000000 0.000000 0.000000
0.000000 0.000000 0.000000
0.000000 0.000000 0.000000
0.000000 0.000000 0.000000
0.000000 0.000000 0.000000
0.000000 0.000000 0.000000
0.000000 0.000000 0.000000
0.000000 0.000000 0.000000
0.000000 0.000000 0.000000
0.000000 0.000000 0.000000
0.000000 0.000000 0.000000
0.000000 0.000000 0.000000
0.000000 0.000000 0.000000
0.000000 0.000000 0.000000
0.000000 0.000000 0.000000
0.000000 0.000000 0.000000
0.000000 0.000000 0.000000
0.000000 0.000000 0.000000
0.000000 0.000000 0.000000
0.000000 0.000000 0.000000
0.000000 0.000000 0.000000
0.000000 0.000000 0.000000
0.000000 0.000000 0.000000
0.000000 0.000000 0.000000
0.000000 0.000000 0.000000
0.000000 0.000000 0.000000
0.000000 0.000000 0.000000
0.000000 0.000000 0.000000
0.000000 0.000000 0.000000
0.000000 0.000000 0.000000
0.000000 0.000000 0.000000
0.000000 0.000000 0.000000
0.000000 0.000000 0.000000
0.000000 0.000000 0.000000
0.000000 0.000000 0.000000
0.000000 0.000000 0.000000
0.000000 0.000000 0.000000
0.000000 0.000000 0.000000
0.000000 0.000000 0.000000
0.000000 0.000000 0.000000
0.000000 0.000000 0.000000
0.000000 0.000000 0.000000
0.000000 0.000000 0.000000
0.000000 0.000000 0.000000
0.000000 0.000000 0.000000
0.000000 0.000000 0.000000
0.000000 0.000000 0.000000
0.000000 0.000000 0.000000
0.000000 0.000000 0.000000
0.000000 0.000000 0.000000
0.000000 0.000000 0.000000
0.000000 0.000000 0.000000
0.000000 0.000000 0.000000
0.000000 0.000000 0.000000
0.000000 0.000000 0.000000
0.000000 0.000000 0.000000
0.000000 0.000000 0.000000
0.000000 0.000000 0.000000
0.000000 0.000000 0.000000
0.000000 0.000000 0.000000
0.000000 0.000000 0.000000
0.000000 0.000000 0.000000
0.000000 0.000000 0.000000
0.000000 0.000000 0.000000
0.000000 0.000000 0.000000
0.000000 0.000000 0.000000
0.000000 0.000000 0.000000
0.000000 0.000000 0.000000
0.000000 0.000000 0.000000
0.000000 0.000000 0.000000
0.000000 0.000000 0.000000
0.000000 0.000000 0.000000
0.000000 0.000000 0.000000
0.000000 0.000000 0.000000
0.000000 0.000000 0.000000
0.000000 0.000000 0.000000
0.000000 0.000000 0.000000
0.000000 0.000000 0.000000
0.000000 0.000000 0.000000
0.000000 0.000000 0.000000
0.000000 0.000000 0.000000
0.000000 0.000000 0.000000
0.000000 0.000000 0.000000
0.000000 0.000000 0.000000
0.000000 0.000000 0.000000
0.000000 0.000000 0.000000
0.000000 0.000000 0.000000
0.000000 0.000000 0.000000
0.000000 0.000000 0.000000
0.000000 0.000000 0.000000
0.000000 0.000000 0.000000
0.000000 0.000000 0.000000
0.000000 0.000000 0.000000
0.000000 0.000000 0.000000
0.000000 0.000000 0.000000
0.000000 0.000000 0.000000
0.000000 0.000000 0.000000
0.000000 0.000000 0.000000
0.000000 0.000000 0.000000
0.000000 0.000000 0.000000
0.000000 0.000000 0.000000
0.000000 0.000000 0.000000
0.000000 0.000000 0.000000
0.000000 0.000000 0.000000
0.000000 0.000000 0.000000
0.000000 0.000000 0.000000
0.000000 0.000000 0.000000
0.000000 0.000000 0.000000
0.000000 0.000000 0.000000
0.000000 0.000000 0.000000
0.000000 0.000000 0.000000
0.000000 0.000000 0.000000
0.000000 0.000000 0.000000
0.000000 0.000000 0.000000
0.000000 0.000000 0.000000
0.000000 0.000000 0.000000
0.000000 0.000000 0.000000
0.000000 0.000000 0.000000
0.000000 0.000000 0.000000
0.000000 0.000000 0.000000
0.000000 0.000000 0.000000
0.000000 0.000000 0.000000
0.000000 0.000000 0.000000
0.000000 0.000000 0.000000
0.000000 0.000000 0.000000
0.000000 0.000000 0.000000
0.000000 0.000000 0.000000
0.000000 0.000000 0.000000
0.000000 0.000000 0.000000
0.000000 0.000000 0.000000
0.000000 0.000000 0.000000
0.000000 0.000000 0.000000
0.000000 0.000000 0.000000
0.000000 0.000000 0.000000
0.000000 0.000000 0.000000
0.000000 0.000000 0.000000
0.000000 0.000000 0.000000
0.000000 0.000000 0.000000
0.000000 0.000000 0.000000
0.000000 0.000000 0.000000
0.000000 0.000000 0.000000
0.000000 0.000000 0.000000
0.000000 0.000000 0.000000
0.000000 0.000000 0.000000
0.000000 0.000000 0.000000
0.000000 0.000000 0.000000
0.000000 0.000000 0.000000
0.000000 0.000000 0.000000
0.000000 0.000000 0.000000
0.000000 0.000000 0.000000
0.000000 0.000000 0.000000
0.000000 0.000000 0.000000
0.000000 0.000000 0.000000
0.000000 0.000000 0.000000
0.000000 0.000000 0.000000
0.000000 0.000000 0.000000
0.000000 0.000000 0.000000
0.000000 0.000000 0.000000
0.000000 0.000000 0.000000
0.000000 0.000000 0.000000
0.000000 0.000000 0.000000
0.000000 0.000000 0.000000
0.000000 0.000000 0.000000
0.000000 0.000000 0.000000
0.000000 0.000000 0.000000
0.000000 0.000000 0.000000
0.000000 0.000000 0.000000
0.000000 0.000000 0.000000
0.000000 0.000000 0.000000
0.000000 0.000000 0.000000
0.000000 0.000000 0.000000
0.000000 0.000000 0.000000
0.000000 0.000000 0.000000
0.000000 0.000000 0.000000
0.000000 0.000000 0.000000
0.000000 0.000000 0.000000
0.000000 0.000000 0.000000
0.000000 0.000000 0.000000
0.000000 0.000000 0.000000
0.000000 0.000000 0.000000
0.000000 0.000000 0.000000
0.000000 0.000000 0.000000
0.000000 0.000000 0.000000
0.000000 0.000000 0.000000
0.000000 0.000000 0.000000
0.000000 0.000000 0.000000
0.000000 0.000000 0.000000
0.000000 0.000000 0.000000
0.000000 0.000000 0.000000
0.000000 0.000000 0.000000
0.000000 0.000000 0.000000
0.000000 0.000000 0.000000
0.000000 0.000000 0.000000
0.000000 0.000000 0.000000
0.000000 0.000000 0.000000
0.000000 0.000000 0.000000
0.000000 0.000000 0.000000
0.000000 0.000000 0.000000
0.000000 0.000000 0.000000
0.000000 0.000000 0.000000
0.000000 0.000000 0.000000
0.000000 0.000000 0.000000
0.000000 0.000000 -50.000000
-50.000000 0.000000 -50.000000
-43.356076 0.000000 -45.679650
-45.534254 0.000000 -43.273118
-50.000000 0.000000 -50.000000
-36.709986 0.000000 -36.547789
-50.000000 0.000000 -45.070401
-40.053938 0.000000 -40.000164
-44.208746 0.000000 -29.823989
-50.000000 0.000000 -50.000000
-30.061842 0.000000 -44.835702
-33.583261 0.000000 -33.084817
-44.729549 0.000000 -39.836468
-36.898289 0.000000 -35.080184
-39.896421 0.000000 -23.103225
-50.000000 0.000000 -26.456092
-44.719389 0.000000 -50.000000
-23.413076 0.000000 -44.651660
-26.990761 0.000000 -39.328114
-30.390302 0.000000 -29.537503
-39.456954 0.000000 -33.310355
-33.800310 0.000000 -50.000000
-16.761508 0.000000 -16.393434
-50.000000 0.000000 -9.696812
