# vtk DataFile Version 2.0
CellBP Time: 2.92
ASCII
DATASET UNSTRUCTURED_GRID
POINTS 320 double
-50.000000 -50.000000 0.000000
-50.000000 -43.339108 0.000000
-45.689380 -45.524535 0.000000
-43.285754 -50.000000 0.000000
-50.000000 -36.677243 0.000000
-36.571610 -50.000000 0.000000
-45.081188 -40.031854 0.000000
-40.021641 -44.196547 0.000000
-29.857781 -50.000000 0.000000
-50.000000 -30.015098 0.000000
-44.846469 -33.548267 0.000000
-33.118609 -44.719300 0.000000
-39.857131 -36.870689 0.000000
-35.110280 -39.876044 0.000000
-23.145164 -50.000000 0.000000
-26.500340 -44.709367 0.000000
-50.000000 -23.354573 0.000000
-44.662433 -26.944524 0.000000
-39.349062 -30.350746 0.000000
-29.577253 -39.436675 0.000000
-33.342632 -33.768293 0.000000
-50.000000 -16.694233 0.000000
-16.441338 -50.000000 0.000000
-9.748310 -50.000000 0.000000
-19.916077 -44.628762 0.000000
-23.170452 -39.192472 0.000000
-44.687114 -20.277217 0.000000
-39.349192 -23.693714 0.000000
-34.071983 -27.091036 0.000000
-26.344072 -33.694599 0.000000
-29.110697 -29.075017 0.000000
-50.000000 -10.036327 0.000000
-44.658269 -13.630481 0.000000
-50.000000 -3.383101 0.000000
-3.065467 -50.000000 0.000000
3.603983 -50.000000 0.000000
-13.285819 -44.635228 0.000000
-6.618581 -44.645135 0.000000
-16.632469 -39.225018 0.000000
-20.047429 -33.459340 0.000000
-39.314148 -17.012046 0.000000
-33.982119 -20.472388 0.000000
-28.727976 -23.638199 0.000000
-23.444043 -27.519235 0.000000
-44.620500 -6.966639 0.000000
-39.255567 -10.357489 0.000000
-50.000000 3.272862 0.000000
-44.603574 -0.315851 0.000000
10.258253 -50.000000 0.000000
16.898998 -50.000000 0.000000
0.056620 -44.649095 0.000000
6.727121 -44.659454 0.000000
-9.968546 -39.292533 0.000000
-3.282471 -39.287237 0.000000
-13.404403 -33.907606 0.000000
-16.620224 -28.432595 0.000000
-33.891485 -13.768584 0.000000
-28.530228 -17.135786 0.000000
-23.207428 -20.540849 0.000000
-18.566869 -23.488961 0.000000
-39.212887 -3.702475 0.000000
-33.818416 -7.122735 0.000000
-50.000000 9.962883 0.000000
-44.585794 6.338717 0.000000
-39.189289 2.957914 0.000000
-50.000000 16.723527 0.000000
23.530061 -50.000000 0.000000
30.153644 -50.000000 0.000000
13.391017 -44.680511 0.000000
20.056409 -44.712601 0.000000
3.397798 -39.302857 0.000000
10.060728 -39.336736 0.000000
-6.638676 -33.895942 0.000000
0.069611 -33.923376 0.000000
-9.984318 -28.443276 0.000000
-13.008588 -23.101850 0.000000
-28.421831 -10.528545 0.000000
-22.943464 -13.954879 0.000000
-16.852302 -17.464433 0.000000
-33.759877 -0.485139 0.000000
-28.401925 -3.975797 0.000000
-44.549478 13.031106 0.000000
-39.125753 9.586790 0.000000
-33.723042 6.049567 0.000000
-50.000000 23.587707 0.000000
-44.595195 19.826762 0.000000
-50.000000 30.547285 0.000000
36.769547 -50.000000 0.000000
43.384821 -50.000000 0.000000
26.718603 -44.752280 0.000000
33.356927 -44.876634 0.000000
16.713089 -39.393135 0.000000
23.395585 -39.462993 0.000000
6.744615 -33.957773 0.000000
13.385618 -34.025749 0.000000
-3.225430 -28.493816 0.000000
3.476786 -28.565436 0.000000
-6.491846 -23.024712 0.000000
-9.829000 -17.549392 0.000000
-23.004393 -7.383682 0.000000
-17.626742 -10.652136 0.000000
-12.661700 -12.871002 0.000000
-28.361954 2.585446 0.000000
-23.008394 -0.932642 0.000000
-38.990964 16.277763 0.000000
-28.331043 9.279605 0.000000
-33.510299 12.453631 0.000000
-44.739193 26.597125 0.000000
-38.709629 23.636247 0.000000
-44.987665 33.399145 0.000000
-50.000000 37.495948 0.000000
-50.000000 43.858111 0.000000
39.945307 -45.070310 0.000000
45.477759 -45.659088 0.000000
50.000000 -50.000000 0.000000
36.660919 -39.994411 0.000000
30.062044 -39.476886 0.000000
19.984722 -34.137195 0.000000
26.648749 -34.353229 0.000000
10.100643 -28.603486 0.000000
16.707905 -28.725819 0.000000
0.195452 -23.110188 0.000000
6.945602 -23.280613 0.000000
-3.237001 -17.504548 0.000000
-6.669145 -11.329022 0.000000
-17.615768 -4.223371 0.000000
-12.299276 -7.368442 0.000000
-22.941572 5.503788 0.000000
-17.697190 1.983560 0.000000
-22.610963 11.443221 0.000000
-33.306137 18.482751 0.000000
-27.382712 16.092840 0.000000
-33.027213 23.821890 0.000000
-40.298215 30.527788 0.000000
-35.396916 28.948276 0.000000
-39.913914 35.498646 0.000000
-43.914954 40.168692 0.000000
-45.270601 45.765850 0.000000
-50.000000 50.000000 0.000000
44.125857 -39.905034 0.000000
50.000000 -43.386159 0.000000
39.661567 -35.066460 0.000000
33.506901 -33.452322 0.000000
23.064587 -28.872036 0.000000
28.794259 -29.289412 0.000000
13.576025 -23.213914 0.000000
20.152942 -23.512175 0.000000
3.554896 -17.744152 0.000000
10.267056 -17.952479 0.000000
0.330090 -12.250771 0.000000
-1.910150 -6.551314 0.000000
-7.131800 -4.038905 0.000000
-12.315587 -1.181842 0.000000
-17.707413 8.016965 0.000000
-12.589283 4.799652 0.000000
-17.982258 13.125913 0.000000
-20.738756 16.792579 0.000000
-28.009079 22.497654 0.000000
-23.326720 20.983659 0.000000
-29.723992 28.641277 0.000000
-34.143624 34.080429 0.000000
-36.855652 39.940949 0.000000
-39.624775 45.266180 0.000000
-43.399040 50.000000 0.000000
44.592667 -32.994311 0.000000
50.000000 -36.759420 0.000000
39.160139 -29.610147 0.000000
33.553348 -26.409279 0.000000
27.259567 -23.381303 0.000000
23.159584 -18.723476 0.000000
17.106091 -17.069384 0.000000
6.879187 -12.359633 0.000000
12.492302 -12.839904 0.000000
-3.085860 -1.765345 0.000000
4.162726 -7.237206 0.000000
1.293345 -2.329652 0.000000
-6.714040 2.028725 0.000000
-8.062488 7.523467 0.000000
-12.319950 11.536120 0.000000
-15.047348 17.298983 0.000000
-18.458934 22.709094 0.000000
-23.559545 27.196591 0.000000
-26.933480 33.596355 0.000000
-30.032461 39.306951 0.000000
-33.106548 44.834400 0.000000
-36.634196 50.000000 0.000000
44.561213 -26.530969 0.000000
50.000000 -30.134960 0.000000
39.076099 -23.220459 0.000000
33.511952 -19.950118 0.000000
28.125232 -16.644979 0.000000
22.794833 -13.209811 0.000000
17.316441 -10.017355 0.000000
11.128919 -6.779050 0.000000
-1.096949 2.089140 0.000000
6.482723 -1.877712 0.000000
3.177725 1.425054 0.000000
-3.225425 6.983111 0.000000
-5.879782 12.180101 0.000000
-9.097261 17.423464 0.000000
-12.547807 22.875154 0.000000
-16.772603 28.020881 0.000000
-20.162971 33.346730 0.000000
-23.291682 38.983657 0.000000
-26.433975 44.606729 0.000000
-29.884820 50.000000 0.000000
44.546233 -19.967912 0.000000
50.000000 -23.503623 0.000000
39.081788 -16.642836 0.000000
33.651752 -13.341583 0.000000
28.254947 -10.047623 0.000000
22.861314 -6.703293 0.000000
17.436674 -3.456401 0.000000
12.275191 0.059272 0.000000
2.233764 6.102131 0.000000
7.358668 3.718175 0.000000
0.171476 11.778353 0.000000
-2.832063 17.312208 0.000000
-6.223803 22.800424 0.000000
-10.109854 28.120239 0.000000
-13.324026 33.536449 0.000000
-16.588852 38.987798 0.000000
-19.776836 44.497260 0.000000
-23.181750 50.000000 0.000000
44.559613 -13.343476 0.000000
50.000000 -16.863036 0.000000
39.134596 -10.018529 0.000000
33.732236 -6.706212 0.000000
28.355578 -3.391118 0.000000
23.006090 -0.081387 0.000000
17.750500 3.251842 0.000000
12.498058 6.465800 0.000000
7.059128 10.700143 0.000000
3.661113 17.026840 0.000000
0.301612 22.705461 0.000000
-3.138520 28.199554 0.000000
-6.479508 33.681912 0.000000
-9.817601 39.103042 0.000000
-13.115560 44.526903 0.000000
-16.551416 50.000000 0.000000
44.583093 -6.693802 0.000000
50.000000 -10.210110 0.000000
39.184653 -3.373086 0.000000
33.809173 -0.054903 0.000000
28.468841 3.266331 0.000000
23.185250 6.605581 0.000000
18.062480 9.930495 0.000000
12.924752 12.104691 0.000000
10.079632 17.117139 0.000000
6.782793 22.617942 0.000000
3.498453 28.184680 0.000000
0.184773 33.671786 0.000000
-3.144324 39.122619 0.000000
-6.444369 44.557648 0.000000
-9.912142 50.000000 0.000000
44.608338 -0.034147 0.000000
50.000000 -3.544354 0.000000
39.233841 3.284637 0.000000
33.883762 6.599781 0.000000
28.570621 9.930525 0.000000
23.233769 13.344800 0.000000
17.175394 16.944231 0.000000
13.147889 22.596357 0.000000
10.065403 28.171623 0.000000
6.853436 33.673832 0.000000
3.528435 39.134158 0.000000
0.214972 44.570022 0.000000
-3.263750 50.000000 0.000000
44.622290 6.634928 0.000000
50.000000 3.133348 0.000000
39.267910 9.943320 0.000000
33.949364 13.234358 0.000000
28.683337 16.536784 0.000000
23.557379 20.033531 0.000000
18.732125 23.059406 0.000000
16.592878 28.254942 0.000000
13.531751 33.724146 0.000000
10.189608 39.163704 0.000000
6.876805 44.577923 0.000000
3.389112 50.000000 0.000000
44.645549 13.293840 0.000000
50.000000 9.821338 0.000000
39.319539 16.583794 0.000000
34.031153 19.833668 0.000000
28.740729 22.894541 0.000000
23.434448 27.176569 0.000000
20.064906 33.282290 0.000000
16.742347 39.028176 0.000000
13.448139 44.522904 0.000000
10.046255 50.000000 0.000000
44.667941 19.954902 0.000000
50.000000 16.515921 0.000000
39.362936 23.241270 0.000000
34.136327 26.496288 0.000000
29.086757 28.517915 0.000000
26.331224 33.391122 0.000000
23.203390 38.957674 0.000000
20.036162 44.504030 0.000000
16.702764 50.000000 0.000000
44.674875 26.629903 0.000000
50.000000 23.212986 0.000000
39.355446 29.952810 0.000000
33.305324 33.361204 0.000000
29.517143 39.037201 0.000000
26.537625 44.504226 0.000000
23.359479 50.000000 0.000000
44.807979 33.283121 0.000000
50.000000 29.910694 0.000000
39.793591 36.590572 0.000000
34.908831 39.522764 0.000000
32.917403 44.512623 0.000000
30.018056 50.000000 0.000000
45.008491 39.874716 0.000000
50.000000 36.608183 0.000000
39.790117 43.968796 0.000000
36.676009 50.000000 0.000000
45.646940 45.410818 0.000000
50.000000 43.304377 0.000000
43.334735 50.000000 0.000000
50.000000 50.000000 0.000000
CELLS 578 2312
3 1 0 2
3 0 3 2
3 4 1 6
3 6 1 2
3 3 5 7
3 3 7 2
3 6 2 7
3 9 4 10
3 10 4 6
3 5 8 11
3 7 5 11
3 10 6 12
3 12 6 7
3 7 11 13
3 7 13 12
3 8 14 15
3 11 8 15
3 16 9 17
3 17 9 10
3 17 10 18
3 18 10 12
3 11 15 19
3 13 11 19
3 18 12 20
3 13 19 20
3 20 12 13
3 14 22 24
3 15 14 24
3 15 24 25
3 19 15 25
3 21 16 26
3 26 16 17
3 26 17 27
3 27 17 18
3 27 18 28
3 28 18 20
3 19 25 29
3 19 29 20
3 28 20 30
3 30 20 29
3 31 21 32
3 32 21 26
3 22 23 36
3 24 22 36
3 23 34 37
3 36 23 37
3 24 36 38
3 25 24 38
3 25 38 39
3 29 25 39
3 32 26 40
3 40 26 27
3 40 27 41
3 41 27 28
3 41 28 42
3 42 28 30
3 29 39 43
3 29 43 30
3 42 30 43
3 33 31 44
3 44 31 32
3 44 32 45
3 45 32 40
3 46 33 47
3 47 33 44
3 34 35 50
3 37 34 50
3 35 48 51
3 50 35 51
3 36 37 52
3 38 36 52
3 37 50 53
3 52 37 53
3 38 52 54
3 39 38 54
3 39 54 55
3 43 39 55
3 45 40 56
3 56 40 41
3 56 41 57
3 57 41 42
3 57 42 58
3 58 42 43
3 43 55 59
3 43 59 58
3 47 44 60
3 60 44 45
3 60 45 61
3 61 45 56
3 62 46 63
3 63 46 47
3 63 47 64
3 64 47 60
3 48 49 68
3 51 48 68
3 49 66 69
3 68 49 69
3 50 51 70
3 53 50 70
3 51 68 71
3 70 51 71
3 52 53 72
3 54 52 72
3 53 70 73
3 72 53 73
3 54 72 74
3 55 54 74
3 55 74 75
3 59 55 75
3 61 56 76
3 76 56 57
3 76 57 77
3 77 57 58
3 77 58 78
3 59 75 78
3 78 58 59
3 64 60 79
3 79 60 61
3 79 61 80
3 80 61 76
3 65 62 81
3 81 62 63
3 81 63 82
3 82 63 64
3 82 64 83
3 83 64 79
3 84 65 85
3 85 65 81
3 66 67 89
3 69 66 89
3 67 87 90
3 89 67 90
3 68 69 91
3 71 68 91
3 69 89 92
3 91 69 92
3 70 71 93
3 73 70 93
3 71 91 94
3 93 71 94
3 72 73 95
3 74 72 95
3 73 93 96
3 95 73 96
3 74 95 97
3 75 74 97
3 75 97 98
3 78 75 98
3 80 76 99
3 99 76 77
3 99 77 100
3 100 77 78
3 100 78 101
3 98 101 78
3 83 79 102
3 102 79 80
3 102 80 103
3 103 80 99
3 85 81 104
3 104 81 82
3 105 83 102
3 104 82 106
3 106 82 83
3 106 83 105
3 86 84 107
3 107 84 85
3 107 85 108
3 108 85 104
3 109 86 107
3 110 86 109
3 87 88 112
3 90 87 112
3 112 88 113
3 88 114 113
3 90 112 115
3 89 90 116
3 92 89 116
3 116 90 115
3 91 92 117
3 94 91 117
3 92 116 118
3 117 92 118
3 93 94 119
3 96 93 119
3 94 117 120
3 119 94 120
3 95 96 121
3 97 95 121
3 96 119 122
3 121 96 122
3 97 121 123
3 98 97 123
3 98 123 124
3 98 124 101
3 103 99 125
3 125 99 100
3 125 100 126
3 126 100 101
3 126 101 124
3 105 102 127
3 127 102 103
3 127 103 128
3 128 103 125
3 129 105 127
3 108 104 130
3 130 104 106
3 130 106 131
3 131 106 105
3 131 105 129
3 108 130 132
3 109 107 133
3 133 107 108
3 133 108 134
3 108 132 134
3 135 109 133
3 111 110 136
3 136 110 109
3 136 109 135
3 137 111 136
3 138 111 137
3 112 113 139
3 115 112 139
3 114 140 113
3 140 139 113
3 139 141 115
3 116 115 142
3 118 116 142
3 142 115 141
3 117 118 143
3 120 117 143
3 118 142 144
3 143 118 144
3 119 120 145
3 122 119 145
3 120 143 146
3 145 120 146
3 121 122 147
3 123 121 147
3 122 145 148
3 147 122 148
3 123 147 149
3 124 123 149
3 124 149 150
3 151 126 124
3 124 150 151
3 128 125 152
3 152 125 126
3 152 126 151
3 129 127 153
3 153 127 128
3 128 152 154
3 153 128 154
3 155 129 153
3 131 129 156
3 156 129 155
3 132 130 157
3 130 131 157
3 157 131 158
3 131 156 158
3 132 157 159
3 132 159 134
3 135 133 160
3 160 133 134
3 160 134 159
3 136 135 161
3 135 160 161
3 162 137 136
3 161 162 136
3 163 138 137
3 162 163 137
3 139 164 141
3 140 165 139
3 139 165 164
3 141 164 166
3 141 166 142
3 166 167 142
3 144 142 167
3 167 168 144
3 143 144 168
3 146 143 168
3 168 169 146
3 145 146 170
3 148 145 170
3 170 146 169
3 147 148 171
3 149 147 171
3 148 170 172
3 171 148 172
3 173 151 150
3 149 171 174
3 150 149 174
3 150 174 175
3 150 175 173
3 154 152 176
3 152 151 176
3 176 151 173
3 154 176 177
3 155 153 178
3 177 178 154
3 154 178 153
3 156 155 179
3 155 178 179
3 180 158 156
3 179 180 156
3 181 159 157
3 180 181 158
3 181 157 158
3 182 160 159
3 181 182 159
3 183 161 160
3 182 183 160
3 184 162 161
3 184 161 183
3 185 163 162
3 184 185 162
3 164 186 166
3 165 187 164
3 164 187 186
3 166 186 188
3 166 188 167
3 167 188 189
3 167 189 168
3 168 189 190
3 168 190 169
3 169 190 191
3 169 191 170
3 192 172 170
3 170 191 192
3 192 193 172
3 171 172 193
3 174 171 193
3 194 173 175
3 176 173 194
3 175 174 195
3 193 195 174
3 195 196 175
3 175 196 194
3 197 177 176
3 194 197 176
3 198 178 177
3 197 198 177
3 199 179 178
3 198 199 178
3 200 180 179
3 199 200 179
3 201 181 180
3 200 201 180
3 202 182 181
3 201 202 181
3 203 183 182
3 202 203 182
3 204 184 183
3 203 204 183
3 205 185 184
3 204 205 184
3 186 206 188
3 187 207 186
3 186 207 206
3 188 206 208
3 188 208 189
3 189 208 209
3 189 209 190
3 190 209 210
3 190 210 191
3 191 210 211
3 191 211 192
3 192 211 212
3 192 212 193
3 193 212 213
3 193 213 195
3 214 197 194
3 214 194 196
3 195 213 215
3 195 215 196
3 196 215 214
3 216 198 197
3 214 216 197
3 217 199 198
3 216 217 198
3 218 200 199
3 217 218 199
3 219 201 200
3 218 219 200
3 220 202 201
3 219 220 201
3 221 203 202
3 220 221 202
3 222 204 203
3 221 222 203
3 223 205 204
3 222 223 204
3 206 224 208
3 207 225 206
3 206 225 224
3 208 224 226
3 208 226 209
3 209 226 227
3 209 227 210
3 210 227 228
3 210 228 211
3 211 228 229
3 211 229 212
3 212 229 230
3 212 230 213
3 213 230 231
3 213 231 215
3 232 216 214
3 215 231 232
3 232 214 215
3 233 217 216
3 232 233 216
3 234 218 217
3 233 234 217
3 235 219 218
3 234 235 218
3 236 220 219
3 235 236 219
3 237 221 220
3 236 237 220
3 238 222 221
3 237 238 221
3 239 223 222
3 238 239 222
3 224 240 226
3 225 241 224
3 224 241 240
3 226 240 242
3 226 242 227
3 227 242 243
3 227 243 228
3 228 243 244
3 228 244 229
3 244 245 229
3 229 245 230
3 230 245 246
3 230 246 231
3 231 246 247
3 231 247 232
3 248 233 232
3 248 232 247
3 249 234 233
3 248 249 233
3 250 235 234
3 249 250 234
3 251 236 235
3 250 251 235
3 252 237 236
3 251 252 236
3 253 238 237
3 252 253 237
3 254 239 238
3 253 254 238
3 240 255 242
3 241 256 240
3 240 256 255
3 242 255 257
3 242 257 243
3 243 257 258
3 243 258 244
3 244 258 259
3 244 259 245
3 245 259 260
3 245 260 246
3 246 260 261
3 246 261 247
3 248 247 261
3 262 249 248
3 261 262 248
3 263 250 249
3 262 263 249
3 264 251 250
3 263 264 250
3 265 252 251
3 264 265 251
3 266 253 252
3 265 266 252
3 267 254 253
3 266 267 253
3 255 268 257
3 256 269 255
3 255 269 268
3 257 268 270
3 257 270 258
3 258 270 271
3 258 271 259
3 259 271 272
3 259 272 260
3 260 272 273
3 260 273 261
3 274 262 261
3 261 273 274
3 275 263 262
3 274 275 262
3 276 264 263
3 275 276 263
3 277 265 264
3 276 277 264
3 278 266 265
3 277 278 265
3 279 267 266
3 278 279 266
3 268 280 270
3 269 281 268
3 268 281 280
3 270 280 282
3 270 282 271
3 271 282 283
3 271 283 272
3 283 284 272
3 272 284 273
3 285 275 274
3 273 284 285
3 285 274 273
3 286 276 275
3 285 286 275
3 287 277 276
3 286 287 276
3 288 278 277
3 287 288 277
3 289 279 278
3 288 289 278
3 280 290 282
3 281 291 280
3 280 291 290
3 282 290 292
3 282 292 283
3 283 292 293
3 283 293 284
3 284 293 294
3 284 294 285
3 295 286 285
3 295 285 294
3 296 287 286
3 295 296 286
3 297 288 287
3 296 297 287
3 298 289 288
3 297 298 288
3 290 299 292
3 291 300 290
3 290 300 299
3 292 299 301
3 292 301 293
3 293 301 302
3 293 302 294
3 294 302 295
3 303 296 295
3 303 295 302
3 304 297 296
3 303 304 296
3 305 298 297
3 304 305 297
3 299 306 301
3 300 307 299
3 299 307 306
3 301 306 308
3 301 308 302
3 309 303 302
3 302 308 309
3 310 304 303
3 309 310 303
3 311 305 304
3 310 311 304
3 306 312 308
3 307 313 306
3 306 313 312
3 314 310 309
3 308 312 314
3 314 309 308
3 315 311 310
3 314 315 310
3 312 316 314
3 313 317 312
3 312 317 316
3 318 315 314
3 318 314 316
3 317 319 316
3 319 318 316
CELL_TYPES 578
5
5
5
5
5
5
5
5
5
5
5
5
5
5
5
5
5
5
5
5
5
5
5
5
5
5
5
5
5
5
5
5
5
5
5
5
5
5
5
5
5
5
5
5
5
5
5
5
5
5
5
5
5
5
5
5
5
5
5
5
5
5
5
5
5
5
5
5
5
5
5
5
5
5
5
5
5
5
5
5
5
5
5
5
5
5
5
5
5
5
5
5
5
5
5
5
5
5
5
5
5
5
5
5
5
5
5
5
5
5
5
5
5
5
5
5
5
5
5
5
5
5
5
5
5
5
5
5
5
5
5
5
5
5
5
5
5
5
5
5
5
5
5
5
5
5
5
5
5
5
5
5
5
5
5
5
5
5
5
5
5
5
5
5
5
5
5
5
5
5
5
5
5
5
5
5
5
5
5
5
5
5
5
5
5
5
5
5
5
5
5
5
5
5
5
5
5
5
5
5
5
5
5
5
5
5
5
5
5
5
5
5
5
5
5
5
5
5
5
5
5
5
5
5
5
5
5
5
5
5
5
5
5
5
5
5
5
5
5
5
5
5
5
5
5
5
5
5
5
5
5
5
5
5
5
5
5
5
5
5
5
5
5
5
5
5
5
5
5
5
5
5
5
5
5
5
5
5
5
5
5
5
5
5
5
5
5
5
5
5
5
5
5
5
5
5
5
5
5
5
5
5
5
5
5
5
5
5
5
5
5
5
5
5
5
5
5
5
5
5
5
5
5
5
5
5
5
5
5
5
5
5
5
5
5
5
5
5
5
5
5
5
5
5
5
5
5
5
5
5
5
5
5
5
5
5
5
5
5
5
5
5
5
5
5
5
5
5
5
5
5
5
5
5
5
5
5
5
5
5
5
5
5
5
5
5
5
5
5
5
5
5
5
5
5
5
5
5
5
5
5
5
5
5
5
5
5
5
5
5
5
5
5
5
5
5
5
5
5
5
5
5
5
5
5
5
5
5
5
5
5
5
5
5
5
5
5
5
5
5
5
5
5
5
5
5
5
5
5
5
5
5
5
5
5
5
5
5
5
5
5
5
5
5
5
5
5
5
5
5
5
5
5
5
5
5
5
5
5
5
5
5
5
5
5
5
5
5
5
5
5
5
5
5
5
5
5
5
5
5
5
5
5
5
5
5
5
5
5
5
5
5
5
5
5
5
5
5
5
5
5
5
5
5
5
5
5
5
5
5
5
5
5
5
5
5
5
5
5
5
5
5
5
5
5
5
5
5
5
5
5
5
5
5
5
5
5
5
5
5
5
5
5
5
5
5
5
5
5
5
5
5
5
5
5
5
5
5
POINT_DATA 320
SCALARS theta_e float 1
LOOKUP_TABLE default
0.993749
0.993745
0.993752
0.993760
0.993732
0.993779
0.993744
0.993764
0.993796
0.993706
0.993723
0.993784
0.993744
0.993764
0.993801
0.993795
0.993673
0.993693
0.993716
0.993775
0.993743
0.993635
0.993792
0.993774
0.993793
0.993782
0.993657
0.993680
0.993705
0.993758
0.993730
0.993593
0.993616
0.993544
0.993752
0.993731
0.993781
0.993763
0.993783
0.993772
0.993638
0.993664
0.993699
0.993742
0.993570
0.993591
0.993486
0.993517
0.993715
0.993709
0.993744
0.993728
0.993778
0.993767
0.993784
0.993772
0.993619
0.993664
0.993713
0.993748
0.993539
0.993570
0.993417
0.993455
0.993484
0.993342
0.993719
0.993744
0.993718
0.993720
0.993755
0.993745
0.993788
0.993784
0.993786
0.993759
0.993625
0.993680
0.993717
0.993517
0.993575
0.993386
0.993426
0.993461
0.993269
0.993314
0.993199
0.993779
0.993808
0.993735
0.993762
0.993740
0.993743
0.993776
0.993768
0.993791
0.993790
0.993762
0.993711
0.993629
0.993657
0.993667
0.993514
0.993561
0.993365
0.993452
0.993407
0.993244
0.993303
0.993175
0.993140
0.993108
0.993792
0.993813
0.993819
0.993773
0.993755
0.993765
0.993767
0.993786
0.993783
0.993763
0.993770
0.993705
0.993662
0.993584
0.993589
0.993496
0.993525
0.993441
0.993360
0.993399
0.993326
0.993236
0.993284
0.993185
0.993136
0.993106
0.993097
0.993793
0.993810
0.993774
0.993770
0.993783
0.993782
0.993780
0.993787
0.993707
0.993735
0.993663
0.993699
0.993599
0.993527
0.993474
0.993498
0.993430
0.993414
0.993355
0.993384
0.993316
0.993250
0.993185
0.993141
0.993115
0.993773
0.993788
0.993768
0.993783
0.993793
0.993788
0.993760
0.993677
0.993722
0.993665
0.993732
0.993763
0.993494
0.993507
0.993477
0.993422
0.993403
0.993358
0.993311
0.993255
0.993201
0.993163
0.993756
0.993762
0.993771
0.993794
0.993798
0.993770
0.993729
0.993756
0.993634
0.993795
0.993676
0.993534
0.993490
0.993439
0.993426
0.993396
0.993364
0.993326
0.993277
0.993233
0.993751
0.993744
0.993779
0.993802
0.993796
0.993755
0.993717
0.993733
0.993573
0.993644
0.993510
0.993463
0.993460
0.993437
0.993412
0.993390
0.993354
0.993312
0.993756
0.993741
0.993788
0.993808
0.993799
0.993751
0.993701
0.993662
0.993555
0.993518
0.993509
0.993484
0.993458
0.993445
0.993423
0.993388
0.993766
0.993749
0.993796
0.993812
0.993803
0.993760
0.993698
0.993617
0.993587
0.993574
0.993541
0.993509
0.993495
0.993483
0.993456
0.993778
0.993762
0.993802
0.993811
0.993800
0.993760
0.993695
0.993643
0.993600
0.993563
0.993546
0.993536
0.993514
0.993790
0.993777
0.993806
0.993805
0.993785
0.993744
0.993698
0.993657
0.993620
0.993599
0.993585
0.993565
0.993805
0.993793
0.993811
0.993799
0.993766
0.993717
0.993681
0.993656
0.993636
0.993612
0.993821
0.993811
0.993820
0.993799
0.993763
0.993740
0.993714
0.993688
0.993661
0.993840
0.993832
0.993831
0.993799
0.993769
0.993743
0.993714
0.993857
0.993853
0.993843
0.993817
0.993800
0.993771
0.993870
0.993871
0.993849
0.993828
0.993880
0.993883
0.993868
0.993885
VECTORS fa_u float
0.000000 0.000000 0.000000
0.000000 0.000000 0.000000
0.000000 0.000000 0.000000
0.000000 0.000000 0.000000
0.000000 0.000000 0.000000
0.000000 0.000000 0.000000
0.000000 0.000000 0.000000
0.000000 0.000000 0.000000
0.000000 0.000000 0.000000
0.000000 0.000000 0.000000
0.000000 0.000000 0.000000
0.000000 0.000000 0.000000
0.000000 0.000000 0.000000
0.000000 0.000000 0.000000
0.000000 0.000000 0.000000
0.000000 0.000000 0.000000
0.000000 0.000000 0.000000
0.000000 0.000000 0.000000
0.000000 0.000000 0.000000
0.000000 0.000000 0.000000
0.000000 0.000000 0.000000
0.000000 0.000000 0.000000
0.000000 0.000000 0.000000
0.000000 0.000000 0.000000
0.000000 0.000000 0.000000
0.000000 0.000000 0.000000
0.000000 0.000000 0.000000
0.000000 0.000000 0.000000
0.000000 0.000000 0.000000
0.000000 0.000000 0.000000
0.000000 0.000000 0.000000
0.000000 0.000000 0.000000
0.000000 0.000000 0.000000
0.000000 0.000000 0.000000
0.000000 0.000000 0.000000
0.000000 0.000000 0.000000
0.000000 0.000000 0.000000
0.000000 0.000000 0.000000
0.000000 0.000000 0.000000
0.000000 0.000000 0.000000
0.000000 0.000000 0.000000
0.000000 0.000000 0.000000
0.000000 0.000000 0.000000
0.000000 0.000000 0.000000
0.000000 0.000000 0.000000
0.000000 0.000000 0.000000
0.000000 0.000000 0.000000
0.000000 0.000000 0.000000
0.000000 0.000000 0.000000
0.000000 0.000000 0.000000
0.000000 0.000000 0.000000
0.000000 0.000000 0.000000
0.000000 0.000000 0.000000
0.000000 0.000000 0.000000
0.000000 0.000000 0.000000
0.000000 0.000000 0.000000
0.000000 0.000000 0.000000
0.000000 0.000000 0.000000
0.000000 0.000000 0.000000
0.000000 0.000000 0.000000
0.000000 0.000000 0.000000
0.000000 0.000000 0.000000
0.000000 0.000000 0.000000
0.000000 0.000000 0.000000
0.000000 0.000000 0.000000
0.000000 0.000000 0.000000
0.000000 0.000000 0.000000
0.000000 0.000000 0.000000
0.000000 0.000000 0.000000
0.000000 0.000000 0.000000
0.000000 0.000000 0.000000
0.000000 0.000000 0.000000
0.000000 0.000000 0.000000
0.000000 0.000000 0.000000
0.000000 0.000000 0.000000
0.000000 0.000000 0.000000
0.000000 0.000000 0.000000
0.000000 0.000000 0.000000
0.000000 0.000000 0.000000
0.000000 0.000000 0.000000
0.000000 0.000000 0.000000
0.000000 0.000000 0.000000
0.000000 0.000000 0.000000
0.000000 0.000000 0.000000
0.000000 0.000000 0.000000
0.000000 0.000000 0.000000
0.000000 0.000000 0.000000
0.000000 0.000000 0.000000
0.000000 0.000000 0.000000
0.000000 0.000000 0.000000
0.000000 0.000000 0.000000
0.000000 0.000000 0.000000
0.000000 0.000000 0.000000
0.000000 0.000000 0.000000
0.000000 0.000000 0.000000
0.000000 0.000000 0.000000
0.000000 0.000000 0.000000
0.000000 0.000000 0.000000
0.000000 0.000000 0.000000
0.000000 0.000000 0.000000
0.000000 0.000000 0.000000
0.000000 0.000000 0.000000
0.000000 0.000000 0.000000
0.000000 0.000000 0.000000
0.000000 0.000000 0.000000
0.000000 0.000000 0.000000
0.000000 0.000000 0.000000
0.000000 0.000000 0.000000
0.000000 0.000000 0.000000
0.000000 0.000000 0.000000
0.000000 0.000000 0.000000
0.000000 0.000000 0.000000
0.000000 0.000000 0.000000
0.000000 0.000000 0.000000
0.000000 0.000000 0.000000
0.000000 0.000000 0.000000
0.000000 0.000000 0.000000
0.000000 0.000000 0.000000
0.000000 0.000000 0.000000
0.000000 0.000000 0.000000
0.000000 0.000000 0.000000
0.000000 0.000000 0.000000
0.000000 0.000000 0.000000
0.000000 0.000000 0.000000
0.000000 0.000000 0.000000
0.000000 0.000000 0.000000
0.000000 0.000000 0.000000
0.000000 0.000000 0.000000
0.000000 0.000000 0.000000
0.000000 0.000000 0.000000
0.000000 0.000000 0.000000
0.000000 0.000000 0.000000
0.000000 0.000000 0.000000
0.000000 0.000000 0.000000
0.000000 0.000000 0.000000
0.000000 0.000000 0.000000
0.000000 0.000000 0.000000
0.000000 0.000000 0.000000
0.000000 0.000000 0.000000
0.000000 0.000000 0.000000
0.000000 0.000000 0.000000
0.000000 0.000000 0.000000
0.000000 0.000000 0.000000
0.000000 0.000000 0.000000
0.000000 0.000000 0.000000
0.000000 0.000000 0.000000
0.000000 0.000000 0.000000
0.000000 0.000000 0.000000
0.000000 0.000000 0.000000
0.000000 0.000000 0.000000
0.000000 0.000000 0.000000
0.000000 0.000000 0.000000
0.000000 0.000000 0.000000
0.000000 0.000000 0.000000
0.000000 0.000000 0.000000
0.000000 0.000000 0.000000
0.000000 0.000000 0.000000
0.000000 0.000000 0.000000
0.000000 0.000000 0.000000
0.000000 0.000000 0.000000
0.000000 0.000000 0.000000
0.000000 0.000000 0.000000
0.000000 0.000000 0.000000
0.000000 0.000000 0.000000
0.000000 0.000000 0.000000
0.000000 0.000000 0.000000
0.000000 0.000000 0.000000
0.000000 0.000000 0.000000
0.000000 0.000000 0.000000
0.000000 0.000000 0.000000
0.000000 0.000000 0.000000
0.000000 0.000000 0.000000
0.000000 0.000000 0.000000
0.000000 0.000000 0.000000
0.000000 0.000000 0.000000
0.000000 0.000000 0.000000
0.000000 0.000000 0.000000
0.000000 0.000000 0.000000
0.000000 0.000000 0.000000
0.000000 0.000000 0.000000
0.000000 0.000000 0.000000
0.000000 0.000000 0.000000
0.000000 0.000000 0.000000
0.000000 0.000000 0.000000
0.000000 0.000000 0.000000
0.000000 0.000000 0.000000
0.000000 0.000000 0.000000
0.000000 0.000000 0.000000
0.000000 0.000000 0.000000
0.000000 0.000000 0.000000
0.000000 0.000000 0.000000
0.000000 0.000000 0.000000
0.000000 0.000000 0.000000
0.000000 0.000000 0.000000
0.000000 0.000000 0.000000
0.000000 0.000000 0.000000
0.000000 0.000000 0.000000
0.000000 0.000000 0.000000
0.000000 0.000000 0.000000
0.000000 0.000000 0.000000
0.000000 0.000000 0.000000
0.000000 0.000000 0.000000
0.000000 0.000000 0.000000
0.000000 0.000000 0.000000
0.000000 0.000000 0.000000
0.000000 0.000000 0.000000
0.000000 0.000000 0.000000
0.000000 0.000000 0.000000
0.000000 0.000000 0.000000
0.000000 0.000000 0.000000
0.000000 0.000000 0.000000
0.000000 0.000000 0.000000
0.000000 0.000000 0.000000
0.000000 0.000000 0.000000
0.000000 0.000000 0.000000
0.000000 0.000000 0.000000
0.000000 0.000000 0.000000
0.000000 0.000000 0.000000
0.000000 0.000000 0.000000
0.000000 0.000000 0.000000
0.000000 0.000000 0.000000
0.000000 0.000000 0.000000
0.000000 0.000000 0.000000
0.000000 0.000000 0.000000
0.000000 0.000000 0.000000
0.000000 0.000000 0.000000
0.000000 0.000000 0.000000
0.000000 0.000000 0.000000
0.000000 0.000000 0.000000
0.000000 0.000000 0.000000
0.000000 0.000000 0.000000
0.000000 0.000000 0.000000
0.000000 0.000000 0.000000
0.000000 0.000000 0.000000
0.000000 0.000000 0.000000
0.000000 0.000000 0.000000
0.000000 0.000000 0.000000
0.000000 0.000000 0.000000
0.000000 0.000000 0.000000
0.000000 0.000000 0.000000
0.000000 0.000000 0.000000
0.000000 0.000000 0.000000
0.000000 0.000000 0.000000
0.000000 0.000000 0.000000
0.000000 0.000000 0.000000
0.000000 0.000000 0.000000
0.000000 0.000000 0.000000
0.000000 0.000000 0.000000
0.000000 0.000000 0.000000
0.000000 0.000000 0.000000
0.000000 0.000000 0.000000
0.000000 0.000000 0.000000
0.000000 0.000000 0.000000
0.000000 0.000000 0.000000
0.000000 0.000000 0.000000
0.000000 0.000000 0.000000
0.000000 0.000000 0.000000
0.000000 0.000000 0.000000
0.000000 0.000000 0.000000
0.000000 0.000000 0.000000
0.000000 0.000000 0.000000
0.000000 0.000000 0.000000
0.000000 0.000000 0.000000
0.000000 0.000000 0.000000
0.000000 0.000000 0.000000
0.000000 0.000000 0.000000
0.000000 0.000000 0.000000
0.000000 0.000000 0.000000
0.000000 0.000000 0.000000
0.000000 0.000000 0.000000
0.000000 0.000000 0.000000
0.000000 0.000000 0.000000
0.000000 0.000000 0.000000
0.000000 0.000000 0.000000
0.000000 0.000000 0.000000
0.000000 0.000000 0.000000
0.000000 0.000000 0.000000
0.000000 0.000000 0.000000
0.000000 0.000000 0.000000
0.000000 0.000000 0.000000
0.000000 0.000000 0.000000
0.000000 0.000000 0.000000
0.000000 0.000000 0.000000
0.000000 0.000000 0.000000
0.000000 0.000000 0.000000
0.000000 0.000000 0.000000
0.000000 0.000000 0.000000
0.000000 0.000000 0.000000
0.000000 0.000000 0.000000
0.000000 0.000000 0.000000
0.000000 0.000000 0.000000
0.000000 0.000000 0.000000
0.000000 0.000000 0.000000
0.000000 0.000000 0.000000
0.000000 0.000000 0.000000
0.000000 0.000000 0.000000
0.000000 0.000000 -50.000000
-50.000000 0.000000 -50.000000
-43.339108 0.000000 -45.689380
-45.524535 0.000000 -43.285754
-50.000000 0.000000 -50.000000
-36.677243 0.000000 -36.571610
-50.000000 0.000000 -45.081188
-40.031854 0.000000 -40.021641
-44.196547 0.000000 -29.857781
-50.000000 0.000000 -50.000000
-30.015098 0.000000 -44.846469
-33.548267 0.000000 -33.118609
-44.719300 0.000000 -39.857131
-36.870689 0.000000 -35.110280
-39.876044 0.000000 -23.145164
-50.000000 0.000000 -26.500340
-44.709367 0.000000 -50.000000
-23.354573 0.000000 -44.662433
-26.944524 0.000000 -39.349062
-30.350746 0.000000 -29.577253
-39.436675 0.000000 -33.342632
-33.768293 0.000000 -50.000000
-16.694233 0.000000 -16.441338
-50.000000 0.000000 -9.748310
