# vtk DataFile Version 2.0
CellBP Time: 1.2
ASCII
DATASET UNSTRUCTURED_GRID
POINTS 320 double
-50.000000 -50.000000 0.000000
-50.000000 -43.375507 0.000000
-45.679354 -45.541279 0.000000
-43.282212 -50.000000 0.000000
-50.000000 -36.748128 0.000000
-36.566065 -50.000000 0.000000
-45.069993 -40.072214 0.000000
-40.000790 -44.217771 0.000000
-29.849242 -50.000000 0.000000
-50.000000 -30.117381 0.000000
-44.834570 -33.613161 0.000000
-33.088820 -44.737369 0.000000
-39.837287 -36.921789 0.000000
-35.081792 -39.912875 0.000000
-23.133577 -50.000000 0.000000
-26.460676 -44.727850 0.000000
-50.000000 -23.484325 0.000000
-44.648932 -27.031163 0.000000
-39.326419 -30.424751 0.000000
-29.539157 -39.474372 0.000000
-33.309953 -33.828175 0.000000
-50.000000 -16.846177 0.000000
-16.426090 -50.000000 0.000000
-9.729088 -50.000000 0.000000
-19.867191 -44.647285 0.000000
-23.123672 -39.230169 0.000000
-44.672596 -20.382979 0.000000
-39.323563 -23.788921 0.000000
-34.038292 -27.174372 0.000000
-26.298167 -33.751549 0.000000
-29.068892 -29.149359 0.000000
-50.000000 -10.202771 0.000000
-44.643593 -13.749888 0.000000
-50.000000 -3.555472 0.000000
-3.043836 -50.000000 0.000000
3.626810 -50.000000 0.000000
-13.228889 -44.653296 0.000000
-6.556014 -44.661053 0.000000
-16.577646 -39.262121 0.000000
-19.992396 -33.515662 0.000000
-39.287386 -17.124087 0.000000
-33.943724 -20.573737 0.000000
-28.681812 -23.727739 0.000000
-23.391399 -27.593223 0.000000
-44.605997 -7.093367 0.000000
-39.229182 -10.479751 0.000000
-50.000000 3.102700 0.000000
-44.588922 -0.443750 0.000000
10.281618 -50.000000 0.000000
16.922134 -50.000000 0.000000
0.121940 -44.663294 0.000000
6.792518 -44.672636 0.000000
-9.908219 -39.325517 0.000000
-3.218325 -39.315744 0.000000
-13.343944 -33.958245 0.000000
-16.560354 -28.497834 0.000000
-33.853254 -13.882287 0.000000
-28.481643 -17.238369 0.000000
-23.151438 -20.630476 0.000000
-18.505496 -23.566672 0.000000
-39.185894 -3.828987 0.000000
-33.779328 -7.243403 0.000000
-50.000000 9.801351 0.000000
-44.569664 6.215518 0.000000
-39.160439 2.832584 0.000000
-50.000000 16.575016 0.000000
23.551462 -50.000000 0.000000
30.171832 -50.000000 0.000000
13.453756 -44.693000 0.000000
20.113669 -44.724305 0.000000
3.463241 -39.328490 0.000000
10.124842 -39.360397 0.000000
-6.574205 -33.940768 0.000000
0.137138 -33.962909 0.000000
-9.919342 -28.503763 0.000000
-12.940003 -23.175079 0.000000
-28.372182 -10.640584 0.000000
-22.884102 -14.056300 0.000000
-16.783435 -17.554062 0.000000
-33.718025 -0.607943 0.000000
-28.349412 -4.092463 0.000000
-44.530125 12.917475 0.000000
-39.092247 9.468400 0.000000
-33.677549 5.929808 0.000000
-50.000000 23.460640 0.000000
-44.575899 19.727023 0.000000
-50.000000 30.448949 0.000000
36.783943 -50.000000 0.000000
43.393182 -50.000000 0.000000
26.767663 -44.763953 0.000000
33.394762 -44.888921 0.000000
16.773284 -39.415359 0.000000
23.449695 -39.484244 0.000000
6.812157 -33.993734 0.000000
13.450369 -34.059296 0.000000
-3.155925 -28.548700 0.000000
3.548310 -28.613920 0.000000
-6.418352 -23.093305 0.000000
-9.749271 -17.630366 0.000000
-22.943533 -7.492683 0.000000
-17.557436 -10.754758 0.000000
-12.583045 -12.964904 0.000000
-28.305741 2.469701 0.000000
-22.944102 -1.042633 0.000000
-38.951752 16.172360 0.000000
-28.268472 9.169735 0.000000
-33.459617 12.343441 0.000000
-44.720883 26.513995 0.000000
-38.665956 23.545807 0.000000
-44.964055 33.335751 0.000000
-50.000000 37.425409 0.000000
-50.000000 43.820418 0.000000
39.970369 -45.081149 0.000000
45.491386 -45.668802 0.000000
50.000000 -50.000000 0.000000
36.692482 -40.013782 0.000000
30.107227 -39.497658 0.000000
20.044345 -34.169149 0.000000
26.699865 -34.383376 0.000000
10.170909 -28.648250 0.000000
16.773809 -28.768086 0.000000
0.271060 -23.172326 0.000000
7.021159 -23.335932 0.000000
-3.153963 -17.577202 0.000000
-6.580806 -11.406247 0.000000
-17.545658 -4.330159 0.000000
-12.223970 -7.467910 0.000000
-22.869199 5.396572 0.000000
-17.619703 1.877904 0.000000
-22.525449 11.339128 0.000000
-33.246599 18.384401 0.000000
-27.307484 15.991302 0.000000
-32.960698 23.733741 0.000000
-40.258097 30.453135 0.000000
-35.334034 28.870341 0.000000
-39.869359 35.441990 0.000000
-43.887757 40.131445 0.000000
-45.251631 45.749398 0.000000
-50.000000 50.000000 0.000000
44.142442 -39.924822 0.000000
50.000000 -43.387192 0.000000
39.688827 -35.093292 0.000000
33.546553 -33.481903 0.000000
23.123259 -28.911041 0.000000
28.843347 -29.326382 0.000000
13.648553 -23.265395 0.000000
20.217840 -23.559119 0.000000
3.635600 -17.809822 0.000000
10.344936 -18.014195 0.000000
0.419131 -12.315561 0.000000
-1.840358 -6.607782 0.000000
-7.059579 -4.115997 0.000000
-12.238130 -1.278959 0.000000
-17.616103 7.912753 0.000000
-12.494855 4.701270 0.000000
-17.881960 13.027795 0.000000
-20.641100 16.696025 0.000000
-27.929724 22.405828 0.000000
-23.234238 20.889958 0.000000
-29.640363 28.564541 0.000000
-34.075802 34.019826 0.000000
-36.800827 39.901398 0.000000
-39.582128 45.247865 0.000000
-43.359967 50.000000 0.000000
44.608817 -33.022951 0.000000
50.000000 -36.763912 0.000000
39.188233 -29.644509 0.000000
33.593987 -26.447602 0.000000
27.313579 -23.425061 0.000000
23.224563 -18.774294 0.000000
17.180233 -17.127472 0.000000
6.963711 -12.425561 0.000000
12.575123 -12.907878 0.000000
-3.012183 -1.834792 0.000000
4.225353 -7.291314 0.000000
1.370386 -2.391731 0.000000
-6.617232 1.941417 0.000000
-7.952475 7.427299 0.000000
-12.211309 11.443169 0.000000
-14.938299 17.212890 0.000000
-18.353196 22.624409 0.000000
-23.460624 27.117339 0.000000
-26.842772 33.540078 0.000000
-29.953163 39.270431 0.000000
-33.039903 44.815939 0.000000
-36.559589 50.000000 0.000000
44.576717 -26.567219 0.000000
50.000000 -30.140127 0.000000
39.105163 -23.260579 0.000000
33.553709 -19.995570 0.000000
28.180619 -16.693821 0.000000
22.862387 -13.265531 0.000000
17.393831 -10.079114 0.000000
11.208707 -6.850693 0.000000
-0.977446 2.007120 0.000000
6.559501 -1.963031 0.000000
3.282490 1.348362 0.000000
-3.107605 6.883789 0.000000
-5.762116 12.093328 0.000000
-8.979552 17.342720 0.000000
-12.430317 22.800750 0.000000
-16.659755 27.955381 0.000000
-20.056566 33.296009 0.000000
-23.191897 38.949470 0.000000
-26.344473 44.589579 0.000000
-29.777788 50.000000 0.000000
44.561890 -20.010463 0.000000
50.000000 -23.509069 0.000000
39.110733 -16.688272 0.000000
33.693864 -13.390673 0.000000
28.311151 -10.098753 0.000000
22.930716 -6.760546 0.000000
17.516086 -3.520816 0.000000
12.353831 -0.012625 0.000000
2.348532 6.022786 0.000000
7.446270 3.635108 0.000000
0.284842 11.702625 0.000000
-2.712376 17.244753 0.000000
-6.101451 22.736725 0.000000
-9.988764 28.066142 0.000000
-13.204472 33.495569 0.000000
-16.472604 38.958034 0.000000
-19.667662 44.481781 0.000000
-23.046103 50.000000 0.000000
44.575128 -13.391205 0.000000
50.000000 -16.868864 0.000000
39.164111 -10.067996 0.000000
33.777055 -6.757883 0.000000
28.415316 -3.444974 0.000000
23.079249 -0.140162 0.000000
17.833857 3.185934 0.000000
12.591571 6.398521 0.000000
7.166335 10.634761 0.000000
3.778822 16.968394 0.000000
0.425890 22.652205 0.000000
-3.011815 28.152948 0.000000
-6.349920 33.645777 0.000000
-9.687252 39.076913 0.000000
-12.989833 44.512530 0.000000
-16.392480 50.000000 0.000000
44.598925 -6.745126 0.000000
50.000000 -10.217036 0.000000
39.216182 -3.424751 0.000000
33.857106 -0.107952 0.000000
28.532332 3.211599 0.000000
23.263191 6.548120 0.000000
18.154711 9.869166 0.000000
13.029621 12.043303 0.000000
10.195324 17.061023 0.000000
6.907009 22.566999 0.000000
3.628961 28.140735 0.000000
0.320425 33.636069 0.000000
-3.004954 39.097650 0.000000
-6.307038 44.544078 0.000000
-9.736301 50.000000 0.000000
44.625183 -0.087069 0.000000
50.000000 -3.552797 0.000000
39.267889 3.232334 0.000000
33.935469 6.546751 0.000000
28.639590 9.877053 0.000000
23.320256 13.291191 0.000000
17.279364 16.889393 0.000000
13.265784 22.547957 0.000000
10.192706 28.130160 0.000000
6.988324 33.640357 0.000000
3.669419 39.110559 0.000000
0.357351 44.557333 0.000000
-3.078160 50.000000 0.000000
44.640494 6.582441 0.000000
50.000000 3.123606 0.000000
39.305268 9.892157 0.000000
34.006608 13.183235 0.000000
28.760205 16.486489 0.000000
23.651971 19.984601 0.000000
18.840674 23.012528 0.000000
16.712378 28.215131 0.000000
13.660810 33.691110 0.000000
10.326783 39.139518 0.000000
7.017936 44.564635 0.000000
3.577076 50.000000 0.000000
44.665244 13.244223 0.000000
50.000000 9.810974 0.000000
39.360626 16.536485 0.000000
34.094230 19.787302 0.000000
28.824709 22.848647 0.000000
23.538665 27.134446 0.000000
20.181510 33.248517 0.000000
16.868906 39.004244 0.000000
13.580687 44.509634 0.000000
10.227324 50.000000 0.000000
44.688931 19.910811 0.000000
50.000000 16.506130 0.000000
39.406737 23.201127 0.000000
34.201812 26.457815 0.000000
29.172007 28.480409 0.000000
26.428624 33.361825 0.000000
23.312309 38.936700 0.000000
20.153943 44.492264 0.000000
16.868312 50.000000 0.000000
44.696615 26.593518 0.000000
50.000000 23.204908 0.000000
39.400807 29.921331 0.000000
33.375824 33.332272 0.000000
29.605191 39.018041 0.000000
26.636446 44.493326 0.000000
23.502774 50.000000 0.000000
44.829728 33.255910 0.000000
50.000000 29.904678 0.000000
39.838446 36.567798 0.000000
34.975206 39.503897 0.000000
32.993203 44.503238 0.000000
30.132418 50.000000 0.000000
45.029964 39.856860 0.000000
50.000000 36.604076 0.000000
39.835273 43.958115 0.000000
36.756572 50.000000 0.000000
45.666221 45.401827 0.000000
50.000000 43.302086 0.000000
43.378456 50.000000 0.000000
50.000000 50.000000 0.000000
CELLS 578 2312
3 1 0 2
3 0 3 2
3 4 1 6
3 6 1 2
3 3 5 7
3 3 7 2
3 6 2 7
3 9 4 10
3 10 4 6
3 5 8 11
3 7 5 11
3 10 6 12
3 12 6 7
3 7 11 13
3 7 13 12
3 8 14 15
3 11 8 15
3 16 9 17
3 17 9 10
3 17 10 18
3 18 10 12
3 11 15 19
3 13 11 19
3 18 12 20
3 13 19 20
3 20 12 13
3 14 22 24
3 15 14 24
3 15 24 25
3 19 15 25
3 21 16 26
3 26 16 17
3 26 17 27
3 27 17 18
3 27 18 28
3 28 18 20
3 19 25 29
3 19 29 20
3 28 20 30
3 30 20 29
3 31 21 32
3 32 21 26
3 22 23 36
3 24 22 36
3 23 34 37
3 36 23 37
3 24 36 38
3 25 24 38
3 25 38 39
3 29 25 39
3 32 26 40
3 40 26 27
3 40 27 41
3 41 27 28
3 41 28 42
3 42 28 30
3 29 39 43
3 29 43 30
3 42 30 43
3 33 31 44
3 44 31 32
3 44 32 45
3 45 32 40
3 46 33 47
3 47 33 44
3 34 35 50
3 37 34 50
3 35 48 51
3 50 35 51
3 36 37 52
3 38 36 52
3 37 50 53
3 52 37 53
3 38 52 54
3 39 38 54
3 39 54 55
3 43 39 55
3 45 40 56
3 56 40 41
3 56 41 57
3 57 41 42
3 57 42 58
3 58 42 43
3 43 55 59
3 43 59 58
3 47 44 60
3 60 44 45
3 60 45 61
3 61 45 56
3 62 46 63
3 63 46 47
3 63 47 64
3 64 47 60
3 48 49 68
3 51 48 68
3 49 66 69
3 68 49 69
3 50 51 70
3 53 50 70
3 51 68 71
3 70 51 71
3 52 53 72
3 54 52 72
3 53 70 73
3 72 53 73
3 54 72 74
3 55 54 74
3 55 74 75
3 59 55 75
3 61 56 76
3 76 56 57
3 76 57 77
3 77 57 58
3 77 58 78
3 59 75 78
3 78 58 59
3 64 60 79
3 79 60 61
3 79 61 80
3 80 61 76
3 65 62 81
3 81 62 63
3 81 63 82
3 82 63 64
3 82 64 83
3 83 64 79
3 84 65 85
3 85 65 81
3 66 67 89
3 69 66 89
3 67 87 90
3 89 67 90
3 68 69 91
3 71 68 91
3 69 89 92
3 91 69 92
3 70 71 93
3 73 70 93
3 71 91 94
3 93 71 94
3 72 73 95
3 74 72 95
3 73 93 96
3 95 73 96
3 74 95 97
3 75 74 97
3 75 97 98
3 78 75 98
3 80 76 99
3 99 76 77
3 99 77 100
3 100 77 78
3 100 78 101
3 98 101 78
3 83 79 102
3 102 79 80
3 102 80 103
3 103 80 99
3 85 81 104
3 104 81 82
3 105 83 102
3 104 82 106
3 106 82 83
3 106 83 105
3 86 84 107
3 107 84 85
3 107 85 108
3 108 85 104
3 109 86 107
3 110 86 109
3 87 88 112
3 90 87 112
3 112 88 113
3 88 114 113
3 90 112 115
3 89 90 116
3 92 89 116
3 116 90 115
3 91 92 117
3 94 91 117
3 92 116 118
3 117 92 118
3 93 94 119
3 96 93 119
3 94 117 120
3 119 94 120
3 95 96 121
3 97 95 121
3 96 119 122
3 121 96 122
3 97 121 123
3 98 97 123
3 98 123 124
3 98 124 101
3 103 99 125
3 125 99 100
3 125 100 126
3 126 100 101
3 126 101 124
3 105 102 127
3 127 102 103
3 127 103 128
3 128 103 125
3 129 105 127
3 108 104 130
3 130 104 106
3 130 106 131
3 131 106 105
3 131 105 129
3 108 130 132
3 109 107 133
3 133 107 108
3 133 108 134
3 108 132 134
3 135 109 133
3 111 110 136
3 136 110 109
3 136 109 135
3 137 111 136
3 138 111 137
3 112 113 139
3 115 112 139
3 114 140 113
3 140 139 113
3 139 141 115
3 116 115 142
3 118 116 142
3 142 115 141
3 117 118 143
3 120 117 143
3 118 142 144
3 143 118 144
3 119 120 145
3 122 119 145
3 120 143 146
3 145 120 146
3 121 122 147
3 123 121 147
3 122 145 148
3 147 122 148
3 123 147 149
3 124 123 149
3 124 149 150
3 151 126 124
3 124 150 151
3 128 125 152
3 152 125 126
3 152 126 151
3 129 127 153
3 153 127 128
3 128 152 154
3 153 128 154
3 155 129 153
3 131 129 156
3 156 129 155
3 132 130 157
3 130 131 157
3 157 131 158
3 131 156 158
3 132 157 159
3 132 159 134
3 135 133 160
3 160 133 134
3 160 134 159
3 136 135 161
3 135 160 161
3 162 137 136
3 161 162 136
3 163 138 137
3 162 163 137
3 139 164 141
3 140 165 139
3 139 165 164
3 141 164 166
3 141 166 142
3 166 167 142
3 144 142 167
3 167 168 144
3 143 144 168
3 146 143 168
3 168 169 146
3 145 146 170
3 148 145 170
3 170 146 169
3 147 148 171
3 149 147 171
3 148 170 172
3 171 148 172
3 173 151 150
3 149 171 174
3 150 149 174
3 150 174 175
3 150 175 173
3 154 152 176
3 152 151 176
3 176 151 173
3 154 176 177
3 155 153 178
3 177 178 154
3 154 178 153
3 156 155 179
3 155 178 179
3 180 158 156
3 179 180 156
3 181 159 157
3 180 181 158
3 181 157 158
3 182 160 159
3 181 182 159
3 183 161 160
3 182 183 160
3 184 162 161
3 184 161 183
3 185 163 162
3 184 185 162
3 164 186 166
3 165 187 164
3 164 187 186
3 166 186 188
3 166 188 167
3 167 188 189
3 167 189 168
3 168 189 190
3 168 190 169
3 169 190 191
3 169 191 170
3 192 172 170
3 170 191 192
3 192 193 172
3 171 172 193
3 174 171 193
3 194 173 175
3 176 173 194
3 175 174 195
3 193 195 174
3 195 196 175
3 175 196 194
3 197 177 176
3 194 197 176
3 198 178 177
3 197 198 177
3 199 179 178
3 198 199 178
3 200 180 179
3 199 200 179
3 201 181 180
3 200 201 180
3 202 182 181
3 201 202 181
3 203 183 182
3 202 203 182
3 204 184 183
3 203 204 183
3 205 185 184
3 204 205 184
3 186 206 188
3 187 207 186
3 186 207 206
3 188 206 208
3 188 208 189
3 189 208 209
3 189 209 190
3 190 209 210
3 190 210 191
3 191 210 211
3 191 211 192
3 192 211 212
3 192 212 193
3 193 212 213
3 193 213 195
3 214 197 194
3 214 194 196
3 195 213 215
3 195 215 196
3 196 215 214
3 216 198 197
3 214 216 197
3 217 199 198
3 216 217 198
3 218 200 199
3 217 218 199
3 219 201 200
3 218 219 200
3 220 202 201
3 219 220 201
3 221 203 202
3 220 221 202
3 222 204 203
3 221 222 203
3 223 205 204
3 222 223 204
3 206 224 208
3 207 225 206
3 206 225 224
3 208 224 226
3 208 226 209
3 209 226 227
3 209 227 210
3 210 227 228
3 210 228 211
3 211 228 229
3 211 229 212
3 212 229 230
3 212 230 213
3 213 230 231
3 213 231 215
3 232 216 214
3 215 231 232
3 232 214 215
3 233 217 216
3 232 233 216
3 234 218 217
3 233 234 217
3 235 219 218
3 234 235 218
3 236 220 219
3 235 236 219
3 237 221 220
3 236 237 220
3 238 222 221
3 237 238 221
3 239 223 222
3 238 239 222
3 224 240 226
3 225 241 224
3 224 241 240
3 226 240 242
3 226 242 227
3 227 242 243
3 227 243 228
3 228 243 244
3 228 244 229
3 244 245 229
3 229 245 230
3 230 245 246
3 230 246 231
3 231 246 247
3 231 247 232
3 248 233 232
3 248 232 247
3 249 234 233
3 248 249 233
3 250 235 234
3 249 250 234
3 251 236 235
3 250 251 235
3 252 237 236
3 251 252 236
3 253 238 237
3 252 253 237
3 254 239 238
3 253 254 238
3 240 255 242
3 241 256 240
3 240 256 255
3 242 255 257
3 242 257 243
3 243 257 258
3 243 258 244
3 244 258 259
3 244 259 245
3 245 259 260
3 245 260 246
3 246 260 261
3 246 261 247
3 248 247 261
3 262 249 248
3 261 262 248
3 263 250 249
3 262 263 249
3 264 251 250
3 263 264 250
3 265 252 251
3 264 265 251
3 266 253 252
3 265 266 252
3 267 254 253
3 266 267 253
3 255 268 257
3 256 269 255
3 255 269 268
3 257 268 270
3 257 270 258
3 258 270 271
3 258 271 259
3 259 271 272
3 259 272 260
3 260 272 273
3 260 273 261
3 274 262 261
3 261 273 274
3 275 263 262
3 274 275 262
3 276 264 263
3 275 276 263
3 277 265 264
3 276 277 264
3 278 266 265
3 277 278 265
3 279 267 266
3 278 279 266
3 268 280 270
3 269 281 268
3 268 281 280
3 270 280 282
3 270 282 271
3 271 282 283
3 271 283 272
3 283 284 272
3 272 284 273
3 285 275 274
3 273 284 285
3 285 274 273
3 286 276 275
3 285 286 275
3 287 277 276
3 286 287 276
3 288 278 277
3 287 288 277
3 289 279 278
3 288 289 278
3 280 290 282
3 281 291 280
3 280 291 290
3 282 290 292
3 282 292 283
3 283 292 293
3 283 293 284
3 284 293 294
3 284 294 285
3 295 286 285
3 295 285 294
3 296 287 286
3 295 296 286
3 297 288 287
3 296 297 287
3 298 289 288
3 297 298 288
3 290 299 292
3 291 300 290
3 290 300 299
3 292 299 301
3 292 301 293
3 293 301 302
3 293 302 294
3 294 302 295
3 303 296 295
3 303 295 302
3 304 297 296
3 303 304 296
3 305 298 297
3 304 305 297
3 299 306 301
3 300 307 299
3 299 307 306
3 301 306 308
3 301 308 302
3 309 303 302
3 302 308 309
3 310 304 303
3 309 310 303
3 311 305 304
3 310 311 304
3 306 312 308
3 307 313 306
3 306 313 312
3 314 310 309
3 308 312 314
3 314 309 308
3 315 311 310
3 314 315 310
3 312 316 314
3 313 317 312
3 312 317 316
3 318 315 314
3 318 314 316
3 317 319 316
3 319 318 316
CELL_TYPES 578
5
5
5
5
5
5
5
5
5
5
5
5
5
5
5
5
5
5
5
5
5
5
5
5
5
5
5
5
5
5
5
5
5
5
5
5
5
5
5
5
5
5
5
5
5
5
5
5
5
5
5
5
5
5
5
5
5
5
5
5
5
5
5
5
5
5
5
5
5
5
5
5
5
5
5
5
5
5
5
5
5
5
5
5
5
5
5
5
5
5
5
5
5
5
5
5
5
5
5
5
5
5
5
5
5
5
5
5
5
5
5
5
5
5
5
5
5
5
5
5
5
5
5
5
5
5
5
5
5
5
5
5
5
5
5
5
5
5
5
5
5
5
5
5
5
5
5
5
5
5
5
5
5
5
5
5
5
5
5
5
5
5
5
5
5
5
5
5
5
5
5
5
5
5
5
5
5
5
5
5
5
5
5
5
5
5
5
5
5
5
5
5
5
5
5
5
5
5
5
5
5
5
5
5
5
5
5
5
5
5
5
5
5
5
5
5
5
5
5
5
5
5
5
5
5
5
5
5
5
5
5
5
5
5
5
5
5
5
5
5
5
5
5
5
5
5
5
5
5
5
5
5
5
5
5
5
5
5
5
5
5
5
5
5
5
5
5
5
5
5
5
5
5
5
5
5
5
5
5
5
5
5
5
5
5
5
5
5
5
5
5
5
5
5
5
5
5
5
5
5
5
5
5
5
5
5
5
5
5
5
5
5
5
5
5
5
5
5
5
5
5
5
5
5
5
5
5
5
5
5
5
5
5
5
5
5
5
5
5
5
5
5
5
5
5
5
5
5
5
5
5
5
5
5
5
5
5
5
5
5
5
5
5
5
5
5
5
5
5
5
5
5
5
5
5
5
5
5
5
5
5
5
5
5
5
5
5
5
5
5
5
5
5
5
5
5
5
5
5
5
5
5
5
5
5
5
5
5
5
5
5
5
5
5
5
5
5
5
5
5
5
5
5
5
5
5
5
5
5
5
5
5
5
5
5
5
5
5
5
5
5
5
5
5
5
5
5
5
5
5
5
5
5
5
5
5
5
5
5
5
5
5
5
5
5
5
5
5
5
5
5
5
5
5
5
5
5
5
5
5
5
5
5
5
5
5
5
5
5
5
5
5
5
5
5
5
5
5
5
5
5
5
5
5
5
5
5
5
5
5
5
5
5
5
5
5
5
5
5
5
5
5
5
5
5
5
5
5
5
5
5
5
5
5
5
5
5
5
5
5
5
5
5
5
5
5
5
5
5
5
5
5
5
5
5
5
5
5
5
5
5
5
5
5
5
5
5
5
5
5
5
5
5
5
5
5
5
5
POINT_DATA 320
SCALARS theta_e float 1
LOOKUP_TABLE default
0.991745
0.991832
0.991761
0.991736
0.992094
0.991755
0.991927
0.991809
0.991808
0.992545
0.992286
0.991818
0.992081
0.991958
0.991883
0.991887
0.993139
0.992807
0.992514
0.992024
0.992288
0.993847
0.991949
0.991983
0.991956
0.992073
0.993461
0.993104
0.992804
0.992306
0.992608
0.994627
0.994211
0.995441
0.991965
0.991879
0.992004
0.992007
0.992111
0.992336
0.993798
0.993417
0.993091
0.992729
0.995012
0.994570
0.996253
0.995829
0.991721
0.991495
0.991952
0.991830
0.992111
0.992063
0.992308
0.992617
0.994130
0.993717
0.993331
0.993023
0.995374
0.994899
0.997034
0.996625
0.996168
0.997760
0.991218
0.990922
0.991637
0.991384
0.991959
0.991792
0.992253
0.992147
0.992551
0.992978
0.994423
0.993954
0.993509
0.995671
0.995153
0.997378
0.996922
0.996411
0.998413
0.998072
0.998951
0.990648
0.990447
0.991095
0.990809
0.991563
0.991290
0.991984
0.991767
0.992435
0.992255
0.992831
0.993309
0.994637
0.994168
0.993788
0.995864
0.995297
0.997631
0.996526
0.997092
0.998663
0.998262
0.999142
0.999356
0.999557
0.990570
0.990415
0.990355
0.990736
0.990999
0.991504
0.991221
0.992017
0.991749
0.992624
0.992349
0.993099
0.993642
0.994773
0.994221
0.995915
0.995348
0.996470
0.997683
0.997115
0.998136
0.998809
0.998520
0.999141
0.999420
0.999588
0.999618
0.990543
0.990416
0.990715
0.990952
0.991464
0.991209
0.992035
0.991717
0.992777
0.992421
0.993216
0.993763
0.994243
0.994787
0.995850
0.995329
0.996265
0.996816
0.997733
0.997318
0.998246
0.998772
0.999177
0.999428
0.999550
0.990651
0.990535
0.990845
0.991076
0.991386
0.991672
0.992038
0.992847
0.992496
0.994163
0.993272
0.993793
0.994686
0.995181
0.995770
0.996416
0.997031
0.997719
0.998306
0.998762
0.999093
0.999305
0.990786
0.990670
0.990963
0.991197
0.991455
0.991814
0.992261
0.992835
0.994267
0.993308
0.993799
0.994760
0.995302
0.995901
0.996537
0.997188
0.997754
0.998229
0.998610
0.998890
0.990906
0.990802
0.991068
0.991281
0.991559
0.991960
0.992482
0.992993
0.994209
0.993499
0.994677
0.995295
0.995925
0.996548
0.997115
0.997602
0.998015
0.998345
0.990999
0.990911
0.991147
0.991358
0.991666
0.992115
0.992635
0.993220
0.993951
0.994590
0.995231
0.995846
0.996395
0.996893
0.997331
0.997703
0.991066
0.990991
0.991210
0.991432
0.991779
0.992264
0.992817
0.993395
0.993899
0.994505
0.995073
0.995605
0.996106
0.996570
0.996979
0.991117
0.991048
0.991265
0.991512
0.991902
0.992451
0.993136
0.993769
0.994279
0.994782
0.995280
0.995756
0.996192
0.991162
0.991094
0.991324
0.991603
0.992022
0.992578
0.993119
0.993495
0.993962
0.994443
0.994917
0.995363
0.991209
0.991138
0.991390
0.991695
0.992133
0.992723
0.993169
0.993627
0.994084
0.994523
0.991260
0.991186
0.991458
0.991776
0.992183
0.992507
0.992905
0.993307
0.993715
0.991316
0.991237
0.991534
0.991919
0.992298
0.992619
0.992970
0.991368
0.991291
0.991577
0.991846
0.992050
0.992333
0.991418
0.991346
0.991629
0.991824
0.991450
0.991394
0.991546
0.991445
VECTORS fa_u float
0.000000 0.000000 0.000000
0.000000 0.000000 0.000000
0.000000 0.000000 0.000000
0.000000 0.000000 0.000000
0.000000 0.000000 0.000000
0.000000 0.000000 0.000000
0.000000 0.000000 0.000000
0.000000 0.000000 0.000000
0.000000 0.000000 0.000000
0.000000 0.000000 0.000000
0.000000 0.000000 0.000000
0.000000 0.000000 0.000000
0.000000 0.000000 0.000000
0.000000 0.000000 0.000000
0.000000 0.000000 0.000000
0.000000 0.000000 0.000000
0.000000 0.000000 0.000000
0.000000 0.000000 0.000000
0.000000 0.000000 0.000000
0.000000 0.000000 0.000000
0.000000 0.000000 0.000000
0.000000 0.000000 0.000000
0.000000 0.000000 0.000000
0.000000 0.000000 0.000000
0.000000 0.000000 0.000000
0.000000 0.000000 0.000000
0.000000 0.000000 0.000000
0.000000 0.000000 0.000000
0.000000 0.000000 0.000000
0.000000 0.000000 0.000000
0.000000 0.000000 0.000000
0.000000 0.000000 0.000000
0.000000 0.000000 0.000000
0.000000 0.000000 0.000000
0.000000 0.000000 0.000000
0.000000 0.000000 0.000000
0.000000 0.000000 0.000000
0.000000 0.000000 0.000000
0.000000 0.000000 0.000000
0.000000 0.000000 0.000000
0.000000 0.000000 0.000000
0.000000 0.000000 0.000000
0.000000 0.000000 0.000000
0.000000 0.000000 0.000000
0.000000 0.000000 0.000000
0.000000 0.000000 0.000000
0.000000 0.000000 0.000000
0.000000 0.000000 0.000000
0.000000 0.000000 0.000000
0.000000 0.000000 0.000000
0.000000 0.000000 0.000000
0.000000 0.000000 0.000000
0.000000 0.000000 0.000000
0.000000 0.000000 0.000000
0.000000 0.000000 0.000000
0.000000 0.000000 0.000000
0.000000 0.000000 0.000000
0.000000 0.000000 0.000000
0.000000 0.000000 0.000000
0.000000 0.000000 0.000000
0.000000 0.000000 0.000000
0.000000 0.000000 0.000000
0.000000 0.000000 0.000000
0.000000 0.000000 0.000000
0.000000 0.000000 0.000000
0.000000 0.000000 0.000000
0.000000 0.000000 0.000000
0.000000 0.000000 0.000000
0.000000 0.000000 0.000000
0.000000 0.000000 0.000000
0.000000 0.000000 0.000000
0.000000 0.000000 0.000000
0.000000 0.000000 0.000000
0.000000 0.000000 0.000000
0.000000 0.000000 0.000000
0.000000 0.000000 0.000000
0.000000 0.000000 0.000000
0.000000 0.000000 0.000000
0.000000 0.000000 0.000000
0.000000 0.000000 0.000000
0.000000 0.000000 0.000000
0.000000 0.000000 0.000000
0.000000 0.000000 0.000000
0.000000 0.000000 0.000000
0.000000 0.000000 0.000000
0.000000 0.000000 0.000000
0.000000 0.000000 0.000000
0.000000 0.000000 0.000000
0.000000 0.000000 0.000000
0.000000 0.000000 0.000000
0.000000 0.000000 0.000000
0.000000 0.000000 0.000000
0.000000 0.000000 0.000000
0.000000 0.000000 0.000000
0.000000 0.000000 0.000000
0.000000 0.000000 0.000000
0.000000 0.000000 0.000000
0.000000 0.000000 0.000000
0.000000 0.000000 0.000000
0.000000 0.000000 0.000000
0.000000 0.000000 0.000000
0.000000 0.000000 0.000000
0.000000 0.000000 0.000000
0.000000 0.000000 0.000000
0.000000 0.000000 0.000000
0.000000 0.000000 0.000000
0.000000 0.000000 0.000000
0.000000 0.000000 0.000000
0.000000 0.000000 0.000000
0.000000 0.000000 0.000000
0.000000 0.000000 0.000000
0.000000 0.000000 0.000000
0.000000 0.000000 0.000000
0.000000 0.000000 0.000000
0.000000 0.000000 0.000000
0.000000 0.000000 0.000000
0.000000 0.000000 0.000000
0.000000 0.000000 0.000000
0.000000 0.000000 0.000000
0.000000 0.000000 0.000000
0.000000 0.000000 0.000000
0.000000 0.000000 0.000000
0.000000 0.000000 0.000000
0.000000 0.000000 0.000000
0.000000 0.000000 0.000000
0.000000 0.000000 0.000000
0.000000 0.000000 0.000000
0.000000 0.000000 0.000000
0.000000 0.000000 0.000000
0.000000 0.000000 0.000000
0.000000 0.000000 0.000000
0.000000 0.000000 0.000000
0.000000 0.000000 0.000000
0.000000 0.000000 0.000000
0.000000 0.000000 0.000000
0.000000 0.000000 0.000000
0.000000 0.000000 0.000000
0.000000 0.000000 0.000000
0.000000 0.000000 0.000000
0.000000 0.000000 0.000000
0.000000 0.000000 0.000000
0.000000 0.000000 0.000000
0.000000 0.000000 0.000000
0.000000 0.000000 0.000000
0.000000 0.000000 0.000000
0.000000 0.000000 0.000000
0.000000 0.000000 0.000000
0.000000 0.000000 0.000000
0.000000 0.000000 0.000000
0.000000 0.000000 0.000000
0.000000 0.000000 0.000000
0.000000 0.000000 0.000000
0.000000 0.000000 0.000000
0.000000 0.000000 0.000000
0.000000 0.000000 0.000000
0.000000 0.000000 0.000000
0.000000 0.000000 0.000000
0.000000 0.000000 0.000000
0.000000 0.000000 0.000000
0.000000 0.000000 0.000000
0.000000 0.000000 0.000000
0.000000 0.000000 0.000000
0.000000 0.000000 0.000000
0.000000 0.000000 0.000000
0.000000 0.000000 0.000000
0.000000 0.000000 0.000000
0.000000 0.000000 0.000000
0.000000 0.000000 0.000000
0.000000 0.000000 0.000000
0.000000 0.000000 0.000000
0.000000 0.000000 0.000000
0.000000 0.000000 0.000000
0.000000 0.000000 0.000000
0.000000 0.000000 0.000000
0.000000 0.000000 0.000000
0.000000 0.000000 0.000000
0.000000 0.000000 0.000000
0.000000 0.000000 0.000000
0.000000 0.000000 0.000000
0.000000 0.000000 0.000000
0.000000 0.000000 0.000000
0.000000 0.000000 0.000000
0.000000 0.000000 0.000000
0.000000 0.000000 0.000000
0.000000 0.000000 0.000000
0.000000 0.000000 0.000000
0.000000 0.000000 0.000000
0.000000 0.000000 0.000000
0.000000 0.000000 0.000000
0.000000 0.000000 0.000000
0.000000 0.000000 0.000000
0.000000 0.000000 0.000000
0.000000 0.000000 0.000000
0.000000 0.000000 0.000000
0.000000 0.000000 0.000000
0.000000 0.000000 0.000000
0.000000 0.000000 0.000000
0.000000 0.000000 0.000000
0.000000 0.000000 0.000000
0.000000 0.000000 0.000000
0.000000 0.000000 0.000000
0.000000 0.000000 0.000000
0.000000 0.000000 0.000000
0.000000 0.000000 0.000000
0.000000 0.000000 0.000000
0.000000 0.000000 0.000000
0.000000 0.000000 0.000000
0.000000 0.000000 0.000000
0.000000 0.000000 0.000000
0.000000 0.000000 0.000000
0.000000 0.000000 0.000000
0.000000 0.000000 0.000000
0.000000 0.000000 0.000000
0.000000 0.000000 0.000000
0.000000 0.000000 0.000000
0.000000 0.000000 0.000000
0.000000 0.000000 0.000000
0.000000 0.000000 0.000000
0.000000 0.000000 0.000000
0.000000 0.000000 0.000000
0.000000 0.000000 0.000000
0.000000 0.000000 0.000000
0.000000 0.000000 0.000000
0.000000 0.000000 0.000000
0.000000 0.000000 0.000000
0.000000 0.000000 0.000000
0.000000 0.000000 0.000000
0.000000 0.000000 0.000000
0.000000 0.000000 0.000000
0.000000 0.000000 0.000000
0.000000 0.000000 0.000000
0.000000 0.000000 0.000000
0.000000 0.000000 0.000000
0.000000 0.000000 0.000000
0.000000 0.000000 0.000000
0.000000 0.000000 0.000000
0.000000 0.000000 0.000000
0.000000 0.000000 0.000000
0.000000 0.000000 0.000000
0.000000 0.000000 0.000000
0.000000 0.000000 0.000000
0.000000 0.000000 0.000000
0.000000 0.000000 0.000000
0.000000 0.000000 0.000000
0.000000 0.000000 0.000000
0.000000 0.000000 0.000000
0.000000 0.000000 0.000000
0.000000 0.000000 0.000000
0.000000 0.000000 0.000000
0.000000 0.000000 0.000000
0.000000 0.000000 0.000000
0.000000 0.000000 0.000000
0.000000 0.000000 0.000000
0.000000 0.000000 0.000000
0.000000 0.000000 0.000000
0.000000 0.000000 0.000000
0.000000 0.000000 0.000000
0.000000 0.000000 0.000000
0.000000 0.000000 0.000000
0.000000 0.000000 0.000000
0.000000 0.000000 0.000000
0.000000 0.000000 0.000000
0.000000 0.000000 0.000000
0.000000 0.000000 0.000000
0.000000 0.000000 0.000000
0.000000 0.000000 0.000000
0.000000 0.000000 0.000000
0.000000 0.000000 0.000000
0.000000 0.000000 0.000000
0.000000 0.000000 0.000000
0.000000 0.000000 0.000000
0.000000 0.000000 0.000000
0.000000 0.000000 0.000000
0.000000 0.000000 0.000000
0.000000 0.000000 0.000000
0.000000 0.000000 0.000000
0.000000 0.000000 0.000000
0.000000 0.000000 0.000000
0.000000 0.000000 0.000000
0.000000 0.000000 0.000000
0.000000 0.000000 0.000000
0.000000 0.000000 0.000000
0.000000 0.000000 0.000000
0.000000 0.000000 0.000000
0.000000 0.000000 0.000000
0.000000 0.000000 0.000000
0.000000 0.000000 0.000000
0.000000 0.000000 0.000000
0.000000 0.000000 0.000000
0.000000 0.000000 0.000000
0.000000 0.000000 0.000000
0.000000 0.000000 0.000000
0.000000 0.000000 0.000000
0.000000 0.000000 0.000000
0.000000 0.000000 0.000000
0.000000 0.000000 0.000000
0.000000 0.000000 -50.000000
-50.000000 0.000000 -50.000000
-43.375507 0.000000 -45.679354
-45.541279 0.000000 -43.282212
-50.000000 0.000000 -50.000000
-36.748128 0.000000 -36.566065
-50.000000 0.000000 -45.069993
-40.072214 0.000000 -40.000790
-44.217771 0.000000 -29.849242
-50.000000 0.000000 -50.000000
-30.117381 0.000000 -44.834570
-33.613161 0.000000 -33.088820
-44.737369 0.000000 -39.837287
-36.921789 0.000000 -35.081792
-39.912875 0.000000 -23.133577
-50.000000 0.000000 -26.460676
-44.727850 0.000000 -50.000000
-23.484325 0.000000 -44.648932
-27.031163 0.000000 -39.326419
-30.424751 0.000000 -29.539157
-39.474372 0.000000 -33.309953
-33.828175 0.000000 -50.000000
-16.846177 0.000000 -16.426090
-50.000000 0.000000 -9.729088
