# vtk DataFile Version 2.0
CellBP Time: 1.52
ASCII
DATASET UNSTRUCTURED_GRID
POINTS 320 double
-50.000000 -50.000000 0.000000
-50.000000 -43.356604 0.000000
-45.674275 -45.533751 0.000000
-43.265906 -50.000000 0.000000
-50.000000 -36.711072 0.000000
-36.534692 -50.000000 0.000000
-45.064580 -40.053303 0.000000
-39.988337 -44.208145 0.000000
-29.804608 -50.000000 0.000000
-50.000000 -30.063226 0.000000
-44.830043 -33.582199 0.000000
-33.065929 -44.729394 0.000000
-39.825581 -36.897839 0.000000
-35.063765 -39.896083 0.000000
-23.078503 -50.000000 0.000000
-26.430765 -44.719776 0.000000
-50.000000 -23.414867 0.000000
-44.645925 -26.989268 0.000000
-39.317068 -30.389577 0.000000
-29.515469 -39.457295 0.000000
-33.293148 -33.800470 0.000000
-50.000000 -16.763742 0.000000
-16.364119 -50.000000 0.000000
-9.663904 -50.000000 0.000000
-19.832511 -44.639405 0.000000
-23.094361 -39.213596 0.000000
-44.671573 -20.330894 0.000000
-39.318276 -23.742908 0.000000
-34.026594 -27.135052 0.000000
-26.276035 -33.725873 0.000000
-29.051927 -29.115152 0.000000
-50.000000 -10.110885 0.000000
-44.644340 -13.689866 0.000000
-50.000000 -3.458359 0.000000
-2.978398 -50.000000 0.000000
3.689579 -50.000000 0.000000
-13.191581 -44.645980 0.000000
-6.518037 -44.655220 0.000000
-16.544561 -39.246456 0.000000
-19.966673 -33.491127 0.000000
-39.285888 -17.068960 0.000000
-33.938442 -20.525151 0.000000
-28.670748 -23.686270 0.000000
-23.373107 -27.560200 0.000000
-44.608331 -7.028189 0.000000
-39.230984 -10.418276 0.000000
-50.000000 3.200672 0.000000
-44.592882 -0.376419 0.000000
10.338985 -50.000000 0.000000
16.971924 -50.000000 0.000000
0.158739 -44.658900 0.000000
6.826425 -44.669566 0.000000
-9.872975 -39.312773 0.000000
-3.183255 -39.306247 0.000000
-13.314795 -33.937610 0.000000
-16.538112 -28.470252 0.000000
-33.852990 -13.826676 0.000000
-28.477733 -17.189866 0.000000
-23.142303 -20.589865 0.000000
-18.491207 -23.533022 0.000000
-39.191227 -3.763942 0.000000
-33.784335 -7.183193 0.000000
-50.000000 9.896327 0.000000
-44.575688 6.281855 0.000000
-39.169625 2.898412 0.000000
-50.000000 16.663642 0.000000
23.592290 -50.000000 0.000000
30.202806 -50.000000 0.000000
13.483406 -44.691246 0.000000
20.138107 -44.723945 0.000000
3.496303 -39.321919 0.000000
10.154407 -39.356685 0.000000
-6.544125 -33.924541 0.000000
0.165928 -33.951251 0.000000
-9.895896 -28.480413 0.000000
-12.925697 -23.145505 0.000000
-28.374913 -10.586732 0.000000
-22.883368 -14.009912 0.000000
-16.778524 -17.515810 0.000000
-33.728843 -0.545404 0.000000
-28.359563 -4.035288 0.000000
-44.538584 12.979900 0.000000
-39.106118 9.531865 0.000000
-33.694117 5.991947 0.000000
-50.000000 23.537292 0.000000
-44.585049 19.782870 0.000000
-50.000000 30.508532 0.000000
36.804183 -50.000000 0.000000
43.403022 -50.000000 0.000000
26.786341 -44.764723 0.000000
33.407806 -44.890298 0.000000
16.798204 -39.414438 0.000000
23.469063 -39.485931 0.000000
6.838303 -33.986500 0.000000
13.472794 -34.056328 0.000000
-3.133329 -28.530579 0.000000
3.568833 -28.602042 0.000000
-6.404128 -23.068690 0.000000
-9.745136 -17.599859 0.000000
-22.951049 -7.442017 0.000000
-17.561833 -10.710226 0.000000
-12.585904 -12.928180 0.000000
-28.323083 2.527647 0.000000
-22.960103 -0.990332 0.000000
-38.970201 16.230206 0.000000
-28.293811 9.225763 0.000000
-33.482174 12.401735 0.000000
-44.730072 26.561026 0.000000
-38.687264 23.596081 0.000000
-44.975846 33.371713 0.000000
-50.000000 37.467222 0.000000
-50.000000 43.842734 0.000000
39.977613 -45.083675 0.000000
45.493550 -45.671332 0.000000
50.000000 -50.000000 0.000000
36.701383 -40.019512 0.000000
30.120733 -39.501735 0.000000
20.062236 -34.170229 0.000000
26.713203 -34.388314 0.000000
10.188415 -28.642164 0.000000
16.787838 -28.767508 0.000000
0.284063 -23.154387 0.000000
7.031959 -23.325620 0.000000
-3.150052 -17.553334 0.000000
-6.587134 -11.378834 0.000000
-17.558677 -4.283363 0.000000
-12.232811 -7.429815 0.000000
-22.894597 5.448787 0.000000
-17.642887 1.925000 0.000000
-22.561328 11.390430 0.000000
-33.275280 18.437204 0.000000
-27.342493 16.043387 0.000000
-32.993178 23.781118 0.000000
-40.278815 30.494339 0.000000
-35.365338 28.912432 0.000000
-39.892542 35.473266 0.000000
-43.901898 40.151991 0.000000
-45.261804 45.758223 0.000000
-50.000000 50.000000 0.000000
44.145186 -39.931614 0.000000
50.000000 -43.398943 0.000000
39.693100 -35.103524 0.000000
33.554406 -33.490963 0.000000
23.133807 -28.916165 0.000000
28.851247 -29.335403 0.000000
13.656358 -23.262365 0.000000
20.223872 -23.563490 0.000000
3.638195 -17.793955 0.000000
10.345924 -18.006523 0.000000
0.413878 -12.294314 0.000000
-1.846397 -6.584952 0.000000
-7.064638 -4.087195 0.000000
-12.255293 -1.242080 0.000000
-17.650837 7.960375 0.000000
-12.527450 4.740505 0.000000
-17.925021 13.073671 0.000000
-20.685722 16.743402 0.000000
-27.968670 22.453282 0.000000
-23.278701 20.936967 0.000000
-29.682045 28.604738 0.000000
-34.111389 34.052197 0.000000
-36.830514 39.923042 0.000000
-39.605691 45.257757 0.000000
-43.382830 50.000000 0.000000
44.609704 -33.036719 0.000000
50.000000 -36.785608 0.000000
39.191287 -29.659120 0.000000
33.597565 -26.462008 0.000000
27.316942 -23.436730 0.000000
23.223336 -18.783713 0.000000
17.177965 -17.129094 0.000000
6.955614 -12.413319 0.000000
12.566963 -12.903146 0.000000
-3.024945 -1.809999 0.000000
4.219362 -7.273391 0.000000
1.353399 -2.373413 0.000000
-6.643493 1.974834 0.000000
-7.993287 7.463123 0.000000
-12.256352 11.482106 0.000000
-14.987914 17.251916 0.000000
-18.404197 22.665211 0.000000
-23.510081 27.157445 0.000000
-26.890283 33.569802 0.000000
-29.996252 39.290141 0.000000
-33.076741 44.825725 0.000000
-36.603601 50.000000 0.000000
44.576927 -26.586781 0.000000
50.000000 -30.172856 0.000000
39.105391 -23.280956 0.000000
33.553181 -20.014258 0.000000
28.177168 -16.710379 0.000000
22.854935 -13.276438 0.000000
17.382100 -10.082996 0.000000
11.193791 -6.844600 0.000000
-1.013551 2.033111 0.000000
6.538877 -1.944159 0.000000
3.244637 1.368783 0.000000
-3.151145 6.920129 0.000000
-5.810464 12.126542 0.000000
-9.032489 17.375755 0.000000
-12.486650 22.833679 0.000000
-16.716554 27.987136 0.000000
-20.112094 33.322211 0.000000
-23.245633 38.967657 0.000000
-26.393480 44.598549 0.000000
-29.841032 50.000000 0.000000
44.560655 -20.035547 0.000000
50.000000 -23.551758 0.000000
39.108358 -16.713766 0.000000
33.688975 -13.414210 0.000000
28.302125 -10.119078 0.000000
22.916276 -6.774128 0.000000
17.496606 -3.525989 0.000000
12.330445 -0.008455 0.000000
2.301863 6.041676 0.000000
7.412927 3.647431 0.000000
0.241848 11.726044 0.000000
-2.764602 17.267953 0.000000
-6.159276 22.761164 0.000000
-10.049227 28.089612 0.000000
-13.266134 33.515269 0.000000
-16.534290 38.973228 0.000000
-19.726544 44.489789 0.000000
-23.125688 50.000000 0.000000
44.572662 -13.421037 0.000000
50.000000 -16.920258 0.000000
39.158897 -10.097741 0.000000
33.767451 -6.784985 0.000000
28.400209 -3.467495 0.000000
23.058212 -0.155430 0.000000
17.807411 3.179229 0.000000
12.559460 6.399454 0.000000
7.126061 10.641637 0.000000
3.730007 16.981261 0.000000
0.368774 22.667124 0.000000
-3.073666 28.168880 0.000000
-6.415460 33.660161 0.000000
-9.754989 39.088644 0.000000
-13.056396 44.519400 0.000000
-16.484322 50.000000 0.000000
44.595145 -6.778552 0.000000
50.000000 -10.275037 0.000000
39.207925 -3.457446 0.000000
33.843051 -0.137055 0.000000
28.511827 3.188133 0.000000
23.235845 6.532000 0.000000
18.120437 9.861433 0.000000
12.989428 12.043138 0.000000
10.147343 17.064238 0.000000
6.851624 22.574492 0.000000
3.567172 28.150337 0.000000
0.253592 33.646365 0.000000
-3.075694 39.106403 0.000000
-6.378233 44.549543 0.000000
-9.835974 50.000000 0.000000
44.620027 -0.122578 0.000000
50.000000 -3.614887 0.000000
39.256744 3.198453 0.000000
33.917343 6.517437 0.000000
28.613851 9.853907 0.000000
23.286201 13.275541 0.000000
17.236617 16.883251 0.000000
13.214110 22.547030 0.000000
10.133995 28.132948 0.000000
6.923538 33.645492 0.000000
3.599492 39.116047 0.000000
0.285125 44.561212 0.000000
-3.181162 50.000000 0.000000
44.634014 6.546704 0.000000
50.000000 3.060254 0.000000
39.291322 9.859067 0.000000
33.984292 13.155497 0.000000
28.729072 16.465148 0.000000
23.612144 19.970584 0.000000
18.793420 23.005122 0.000000
16.658334 28.211032 0.000000
13.600398 33.691230 0.000000
10.260450 39.142090 0.000000
6.948030 44.567290 0.000000
3.475134 50.000000 0.000000
44.657591 13.210094 0.000000
50.000000 9.749345 0.000000
39.344043 16.505856 0.000000
34.068054 19.762579 0.000000
28.788883 22.830781 0.000000
23.492598 27.123944 0.000000
20.128227 33.243645 0.000000
16.809194 39.003218 0.000000
13.516571 44.510579 0.000000
10.131216 50.000000 0.000000
44.680325 19.880004 0.000000
50.000000 16.449113 0.000000
39.388223 23.174271 0.000000
34.173497 26.437163 0.000000
29.134506 28.465244 0.000000
26.384759 33.351265 0.000000
23.261918 38.931459 0.000000
20.098156 44.491037 0.000000
16.782040 50.000000 0.000000
44.687472 26.567695 0.000000
50.000000 23.155207 0.000000
39.381115 29.899984 0.000000
33.344646 33.317694 0.000000
29.565258 39.009462 0.000000
26.590560 44.490249 0.000000
23.429364 50.000000 0.000000
44.820485 33.236418 0.000000
50.000000 29.864908 0.000000
39.818628 36.553323 0.000000
34.945427 39.494377 0.000000
32.958605 44.498574 0.000000
30.074634 50.000000 0.000000
45.020672 39.845088 0.000000
50.000000 36.576492 0.000000
39.815370 43.951798 0.000000
36.716559 50.000000 0.000000
45.657864 45.397032 0.000000
50.000000 43.287987 0.000000
43.356788 50.000000 0.000000
50.000000 50.000000 0.000000
CELLS 578 2312
3 1 0 2
3 0 3 2
3 4 1 6
3 6 1 2
3 3 5 7
3 3 7 2
3 6 2 7
3 9 4 10
3 10 4 6
3 5 8 11
3 7 5 11
3 10 6 12
3 12 6 7
3 7 11 13
3 7 13 12
3 8 14 15
3 11 8 15
3 16 9 17
3 17 9 10
3 17 10 18
3 18 10 12
3 11 15 19
3 13 11 19
3 18 12 20
3 13 19 20
3 20 12 13
3 14 22 24
3 15 14 24
3 15 24 25
3 19 15 25
3 21 16 26
3 26 16 17
3 26 17 27
3 27 17 18
3 27 18 28
3 28 18 20
3 19 25 29
3 19 29 20
3 28 20 30
3 30 20 29
3 31 21 32
3 32 21 26
3 22 23 36
3 24 22 36
3 23 34 37
3 36 23 37
3 24 36 38
3 25 24 38
3 25 38 39
3 29 25 39
3 32 26 40
3 40 26 27
3 40 27 41
3 41 27 28
3 41 28 42
3 42 28 30
3 29 39 43
3 29 43 30
3 42 30 43
3 33 31 44
3 44 31 32
3 44 32 45
3 45 32 40
3 46 33 47
3 47 33 44
3 34 35 50
3 37 34 50
3 35 48 51
3 50 35 51
3 36 37 52
3 38 36 52
3 37 50 53
3 52 37 53
3 38 52 54
3 39 38 54
3 39 54 55
3 43 39 55
3 45 40 56
3 56 40 41
3 56 41 57
3 57 41 42
3 57 42 58
3 58 42 43
3 43 55 59
3 43 59 58
3 47 44 60
3 60 44 45
3 60 45 61
3 61 45 56
3 62 46 63
3 63 46 47
3 63 47 64
3 64 47 60
3 48 49 68
3 51 48 68
3 49 66 69
3 68 49 69
3 50 51 70
3 53 50 70
3 51 68 71
3 70 51 71
3 52 53 72
3 54 52 72
3 53 70 73
3 72 53 73
3 54 72 74
3 55 54 74
3 55 74 75
3 59 55 75
3 61 56 76
3 76 56 57
3 76 57 77
3 77 57 58
3 77 58 78
3 59 75 78
3 78 58 59
3 64 60 79
3 79 60 61
3 79 61 80
3 80 61 76
3 65 62 81
3 81 62 63
3 81 63 82
3 82 63 64
3 82 64 83
3 83 64 79
3 84 65 85
3 85 65 81
3 66 67 89
3 69 66 89
3 67 87 90
3 89 67 90
3 68 69 91
3 71 68 91
3 69 89 92
3 91 69 92
3 70 71 93
3 73 70 93
3 71 91 94
3 93 71 94
3 72 73 95
3 74 72 95
3 73 93 96
3 95 73 96
3 74 95 97
3 75 74 97
3 75 97 98
3 78 75 98
3 80 76 99
3 99 76 77
3 99 77 100
3 100 77 78
3 100 78 101
3 98 101 78
3 83 79 102
3 102 79 80
3 102 80 103
3 103 80 99
3 85 81 104
3 104 81 82
3 105 83 102
3 104 82 106
3 106 82 83
3 106 83 105
3 86 84 107
3 107 84 85
3 107 85 108
3 108 85 104
3 109 86 107
3 110 86 109
3 87 88 112
3 90 87 112
3 112 88 113
3 88 114 113
3 90 112 115
3 89 90 116
3 92 89 116
3 116 90 115
3 91 92 117
3 94 91 117
3 92 116 118
3 117 92 118
3 93 94 119
3 96 93 119
3 94 117 120
3 119 94 120
3 95 96 121
3 97 95 121
3 96 119 122
3 121 96 122
3 97 121 123
3 98 97 123
3 98 123 124
3 98 124 101
3 103 99 125
3 125 99 100
3 125 100 126
3 126 100 101
3 126 101 124
3 105 102 127
3 127 102 103
3 127 103 128
3 128 103 125
3 129 105 127
3 108 104 130
3 130 104 106
3 130 106 131
3 131 106 105
3 131 105 129
3 108 130 132
3 109 107 133
3 133 107 108
3 133 108 134
3 108 132 134
3 135 109 133
3 111 110 136
3 136 110 109
3 136 109 135
3 137 111 136
3 138 111 137
3 112 113 139
3 115 112 139
3 114 140 113
3 140 139 113
3 139 141 115
3 116 115 142
3 118 116 142
3 142 115 141
3 117 118 143
3 120 117 143
3 118 142 144
3 143 118 144
3 119 120 145
3 122 119 145
3 120 143 146
3 145 120 146
3 121 122 147
3 123 121 147
3 122 145 148
3 147 122 148
3 123 147 149
3 124 123 149
3 124 149 150
3 151 126 124
3 124 150 151
3 128 125 152
3 152 125 126
3 152 126 151
3 129 127 153
3 153 127 128
3 128 152 154
3 153 128 154
3 155 129 153
3 131 129 156
3 156 129 155
3 132 130 157
3 130 131 157
3 157 131 158
3 131 156 158
3 132 157 159
3 132 159 134
3 135 133 160
3 160 133 134
3 160 134 159
3 136 135 161
3 135 160 161
3 162 137 136
3 161 162 136
3 163 138 137
3 162 163 137
3 139 164 141
3 140 165 139
3 139 165 164
3 141 164 166
3 141 166 142
3 166 167 142
3 144 142 167
3 167 168 144
3 143 144 168
3 146 143 168
3 168 169 146
3 145 146 170
3 148 145 170
3 170 146 169
3 147 148 171
3 149 147 171
3 148 170 172
3 171 148 172
3 173 151 150
3 149 171 174
3 150 149 174
3 150 174 175
3 150 175 173
3 154 152 176
3 152 151 176
3 176 151 173
3 154 176 177
3 155 153 178
3 177 178 154
3 154 178 153
3 156 155 179
3 155 178 179
3 180 158 156
3 179 180 156
3 181 159 157
3 180 181 158
3 181 157 158
3 182 160 159
3 181 182 159
3 183 161 160
3 182 183 160
3 184 162 161
3 184 161 183
3 185 163 162
3 184 185 162
3 164 186 166
3 165 187 164
3 164 187 186
3 166 186 188
3 166 188 167
3 167 188 189
3 167 189 168
3 168 189 190
3 168 190 169
3 169 190 191
3 169 191 170
3 192 172 170
3 170 191 192
3 192 193 172
3 171 172 193
3 174 171 193
3 194 173 175
3 176 173 194
3 175 174 195
3 193 195 174
3 195 196 175
3 175 196 194
3 197 177 176
3 194 197 176
3 198 178 177
3 197 198 177
3 199 179 178
3 198 199 178
3 200 180 179
3 199 200 179
3 201 181 180
3 200 201 180
3 202 182 181
3 201 202 181
3 203 183 182
3 202 203 182
3 204 184 183
3 203 204 183
3 205 185 184
3 204 205 184
3 186 206 188
3 187 207 186
3 186 207 206
3 188 206 208
3 188 208 189
3 189 208 209
3 189 209 190
3 190 209 210
3 190 210 191
3 191 210 211
3 191 211 192
3 192 211 212
3 192 212 193
3 193 212 213
3 193 213 195
3 214 197 194
3 214 194 196
3 195 213 215
3 195 215 196
3 196 215 214
3 216 198 197
3 214 216 197
3 217 199 198
3 216 217 198
3 218 200 199
3 217 218 199
3 219 201 200
3 218 219 200
3 220 202 201
3 219 220 201
3 221 203 202
3 220 221 202
3 222 204 203
3 221 222 203
3 223 205 204
3 222 223 204
3 206 224 208
3 207 225 206
3 206 225 224
3 208 224 226
3 208 226 209
3 209 226 227
3 209 227 210
3 210 227 228
3 210 228 211
3 211 228 229
3 211 229 212
3 212 229 230
3 212 230 213
3 213 230 231
3 213 231 215
3 232 216 214
3 215 231 232
3 232 214 215
3 233 217 216
3 232 233 216
3 234 218 217
3 233 234 217
3 235 219 218
3 234 235 218
3 236 220 219
3 235 236 219
3 237 221 220
3 236 237 220
3 238 222 221
3 237 238 221
3 239 223 222
3 238 239 222
3 224 240 226
3 225 241 224
3 224 241 240
3 226 240 242
3 226 242 227
3 227 242 243
3 227 243 228
3 228 243 244
3 228 244 229
3 244 245 229
3 229 245 230
3 230 245 246
3 230 246 231
3 231 246 247
3 231 247 232
3 248 233 232
3 248 232 247
3 249 234 233
3 248 249 233
3 250 235 234
3 249 250 234
3 251 236 235
3 250 251 235
3 252 237 236
3 251 252 236
3 253 238 237
3 252 253 237
3 254 239 238
3 253 254 238
3 240 255 242
3 241 256 240
3 240 256 255
3 242 255 257
3 242 257 243
3 243 257 258
3 243 258 244
3 244 258 259
3 244 259 245
3 245 259 260
3 245 260 246
3 246 260 261
3 246 261 247
3 248 247 261
3 262 249 248
3 261 262 248
3 263 250 249
3 262 263 249
3 264 251 250
3 263 264 250
3 265 252 251
3 264 265 251
3 266 253 252
3 265 266 252
3 267 254 253
3 266 267 253
3 255 268 257
3 256 269 255
3 255 269 268
3 257 268 270
3 257 270 258
3 258 270 271
3 258 271 259
3 259 271 272
3 259 272 260
3 260 272 273
3 260 273 261
3 274 262 261
3 261 273 274
3 275 263 262
3 274 275 262
3 276 264 263
3 275 276 263
3 277 265 264
3 276 277 264
3 278 266 265
3 277 278 265
3 279 267 266
3 278 279 266
3 268 280 270
3 269 281 268
3 268 281 280
3 270 280 282
3 270 282 271
3 271 282 283
3 271 283 272
3 283 284 272
3 272 284 273
3 285 275 274
3 273 284 285
3 285 274 273
3 286 276 275
3 285 286 275
3 287 277 276
3 286 287 276
3 288 278 277
3 287 288 277
3 289 279 278
3 288 289 278
3 280 290 282
3 281 291 280
3 280 291 290
3 282 290 292
3 282 292 283
3 283 292 293
3 283 293 284
3 284 293 294
3 284 294 285
3 295 286 285
3 295 285 294
3 296 287 286
3 295 296 286
3 297 288 287
3 296 297 287
3 298 289 288
3 297 298 288
3 290 299 292
3 291 300 290
3 290 300 299
3 292 299 301
3 292 301 293
3 293 301 302
3 293 302 294
3 294 302 295
3 303 296 295
3 303 295 302
3 304 297 296
3 303 304 296
3 305 298 297
3 304 305 297
3 299 306 301
3 300 307 299
3 299 307 306
3 301 306 308
3 301 308 302
3 309 303 302
3 302 308 309
3 310 304 303
3 309 310 303
3 311 305 304
3 310 311 304
3 306 312 308
3 307 313 306
3 306 313 312
3 314 310 309
3 308 312 314
3 314 309 308
3 315 311 310
3 314 315 310
3 312 316 314
3 313 317 312
3 312 317 316
3 318 315 314
3 318 314 316
3 317 319 316
3 319 318 316
CELL_TYPES 578
5
5
5
5
5
5
5
5
5
5
5
5
5
5
5
5
5
5
5
5
5
5
5
5
5
5
5
5
5
5
5
5
5
5
5
5
5
5
5
5
5
5
5
5
5
5
5
5
5
5
5
5
5
5
5
5
5
5
5
5
5
5
5
5
5
5
5
5
5
5
5
5
5
5
5
5
5
5
5
5
5
5
5
5
5
5
5
5
5
5
5
5
5
5
5
5
5
5
5
5
5
5
5
5
5
5
5
5
5
5
5
5
5
5
5
5
5
5
5
5
5
5
5
5
5
5
5
5
5
5
5
5
5
5
5
5
5
5
5
5
5
5
5
5
5
5
5
5
5
5
5
5
5
5
5
5
5
5
5
5
5
5
5
5
5
5
5
5
5
5
5
5
5
5
5
5
5
5
5
5
5
5
5
5
5
5
5
5
5
5
5
5
5
5
5
5
5
5
5
5
5
5
5
5
5
5
5
5
5
5
5
5
5
5
5
5
5
5
5
5
5
5
5
5
5
5
5
5
5
5
5
5
5
5
5
5
5
5
5
5
5
5
5
5
5
5
5
5
5
5
5
5
5
5
5
5
5
5
5
5
5
5
5
5
5
5
5
5
5
5
5
5
5
5
5
5
5
5
5
5
5
5
5
5
5
5
5
5
5
5
5
5
5
5
5
5
5
5
5
5
5
5
5
5
5
5
5
5
5
5
5
5
5
5
5
5
5
5
5
5
5
5
5
5
5
5
5
5
5
5
5
5
5
5
5
5
5
5
5
5
5
5
5
5
5
5
5
5
5
5
5
5
5
5
5
5
5
5
5
5
5
5
5
5
5
5
5
5
5
5
5
5
5
5
5
5
5
5
5
5
5
5
5
5
5
5
5
5
5
5
5
5
5
5
5
5
5
5
5
5
5
5
5
5
5
5
5
5
5
5
5
5
5
5
5
5
5
5
5
5
5
5
5
5
5
5
5
5
5
5
5
5
5
5
5
5
5
5
5
5
5
5
5
5
5
5
5
5
5
5
5
5
5
5
5
5
5
5
5
5
5
5
5
5
5
5
5
5
5
5
5
5
5
5
5
5
5
5
5
5
5
5
5
5
5
5
5
5
5
5
5
5
5
5
5
5
5
5
5
5
5
5
5
5
5
5
5
5
5
5
5
5
5
5
5
5
5
5
5
5
5
5
5
5
5
5
5
5
5
5
5
5
5
5
5
5
5
5
5
5
5
5
5
5
5
5
5
5
5
5
5
5
5
5
5
5
5
5
5
5
5
5
5
5
5
5
5
5
5
5
5
5
5
5
5
5
5
5
POINT_DATA 320
SCALARS theta_e float 1
LOOKUP_TABLE default
0.995227
0.995239
0.995208
0.995157
0.995256
0.994980
0.995209
0.995089
0.994658
0.995295
0.995239
0.994828
0.995115
0.994954
0.994232
0.994463
0.995350
0.995287
0.995150
0.994672
0.994911
0.995414
0.993704
0.993089
0.993993
0.994272
0.995350
0.995219
0.995017
0.994539
0.994756
0.995475
0.995418
0.995523
0.992413
0.991705
0.993425
0.992780
0.993767
0.994098
0.995294
0.995093
0.994809
0.994422
0.995479
0.995374
0.995553
0.995524
0.990991
0.990300
0.992089
0.991378
0.993163
0.992501
0.993545
0.993906
0.995191
0.994926
0.994572
0.994203
0.995444
0.995292
0.995567
0.995552
0.995499
0.995576
0.989660
0.989105
0.990672
0.990001
0.991805
0.991100
0.992928
0.992258
0.993352
0.993762
0.995059
0.994705
0.994229
0.995383
0.995194
0.995568
0.995538
0.995457
0.995588
0.995583
0.995594
0.988668
0.988395
0.989398
0.988903
0.990411
0.989776
0.991568
0.990885
0.992734
0.992074
0.993212
0.993690
0.994888
0.994508
0.994103
0.995311
0.995058
0.995569
0.995406
0.995513
0.995596
0.995593
0.995598
0.995594
0.995588
0.988548
0.988358
0.988302
0.988812
0.989228
0.990234
0.989658
0.991401
0.990765
0.992600
0.991963
0.993133
0.993814
0.994752
0.994543
0.995211
0.994978
0.995337
0.995557
0.995477
0.995587
0.995601
0.995600
0.995600
0.995597
0.995589
0.995579
0.988554
0.988386
0.988844
0.989218
0.990183
0.989712
0.991324
0.990746
0.992497
0.991915
0.993085
0.993579
0.994402
0.994895
0.995143
0.994933
0.995256
0.995395
0.995550
0.995493
0.995583
0.995598
0.995599
0.995596
0.995586
0.988833
0.988611
0.989184
0.989605
0.990201
0.990811
0.991375
0.992455
0.991990
0.993860
0.993044
0.993280
0.994496
0.994772
0.995066
0.995285
0.995434
0.995539
0.995579
0.995588
0.995588
0.995587
0.989253
0.988984
0.989618
0.990087
0.990642
0.991262
0.991818
0.992570
0.993517
0.993227
0.993068
0.994490
0.994956
0.995101
0.995326
0.995475
0.995542
0.995563
0.995568
0.995573
0.989760
0.989456
0.990151
0.990637
0.991194
0.991748
0.992295
0.993026
0.993956
0.993548
0.994765
0.994891
0.995156
0.995370
0.995482
0.995527
0.995539
0.995549
0.990338
0.990005
0.990751
0.991241
0.991773
0.992291
0.992825
0.993465
0.994131
0.994596
0.994941
0.995225
0.995392
0.995473
0.995501
0.995518
0.990965
0.990610
0.991386
0.991862
0.992365
0.992859
0.993373
0.993822
0.994278
0.994705
0.995045
0.995268
0.995394
0.995450
0.995479
0.991618
0.991254
0.992031
0.992479
0.992948
0.993435
0.993934
0.994466
0.994844
0.995117
0.995289
0.995378
0.995424
0.992274
0.991917
0.992661
0.993069
0.993487
0.993917
0.994275
0.994635
0.994943
0.995156
0.995280
0.995346
0.992903
0.992570
0.993252
0.993610
0.993964
0.994372
0.994752
0.995005
0.995161
0.995245
0.993476
0.993182
0.993774
0.994067
0.994313
0.994604
0.994861
0.995032
0.995127
0.993963
0.993719
0.994211
0.994460
0.994737
0.994910
0.995004
0.994337
0.994154
0.994515
0.994663
0.994811
0.994896
0.994588
0.994472
0.994713
0.994802
0.994712
0.994658
0.994753
0.994733
VECTORS fa_u float
0.000000 0.000000 0.000000
0.000000 0.000000 0.000000
0.000000 0.000000 0.000000
0.000000 0.000000 0.000000
0.000000 0.000000 0.000000
0.000000 0.000000 0.000000
0.000000 0.000000 0.000000
0.000000 0.000000 0.000000
0.000000 0.000000 0.000000
0.000000 0.000000 0.000000
0.000000 0.000000 0.000000
0.000000 0.000000 0.000000
0.000000 0.000000 0.000000
0.000000 0.000000 0.000000
0.000000 0.000000 0.000000
0.000000 0.000000 0.000000
0.000000 0.000000 0.000000
0.000000 0.000000 0.000000
0.000000 0.000000 0.000000
0.000000 0.000000 0.000000
0.000000 0.000000 0.000000
0.000000 0.000000 0.000000
0.000000 0.000000 0.000000
0.000000 0.000000 0.000000
0.000000 0.000000 0.000000
0.000000 0.000000 0.000000
0.000000 0.000000 0.000000
0.000000 0.000000 0.000000
0.000000 0.000000 0.000000
0.000000 0.000000 0.000000
0.000000 0.000000 0.000000
0.000000 0.000000 0.000000
0.000000 0.000000 0.000000
0.000000 0.000000 0.000000
0.000000 0.000000 0.000000
0.000000 0.000000 0.000000
0.000000 0.000000 0.000000
0.000000 0.000000 0.000000
0.000000 0.000000 0.000000
0.000000 0.000000 0.000000
0.000000 0.000000 0.000000
0.000000 0.000000 0.000000
0.000000 0.000000 0.000000
0.000000 0.000000 0.000000
0.000000 0.000000 0.000000
0.000000 0.000000 0.000000
0.000000 0.000000 0.000000
0.000000 0.000000 0.000000
0.000000 0.000000 0.000000
0.000000 0.000000 0.000000
0.000000 0.000000 0.000000
0.000000 0.000000 0.000000
0.000000 0.000000 0.000000
0.000000 0.000000 0.000000
0.000000 0.000000 0.000000
0.000000 0.000000 0.000000
0.000000 0.000000 0.000000
0.000000 0.000000 0.000000
0.000000 0.000000 0.000000
0.000000 0.000000 0.000000
0.000000 0.000000 0.000000
0.000000 0.000000 0.000000
0.000000 0.000000 0.000000
0.000000 0.000000 0.000000
0.000000 0.000000 0.000000
0.000000 0.000000 0.000000
0.000000 0.000000 0.000000
0.000000 0.000000 0.000000
0.000000 0.000000 0.000000
0.000000 0.000000 0.000000
0.000000 0.000000 0.000000
0.000000 0.000000 0.000000
0.000000 0.000000 0.000000
0.000000 0.000000 0.000000
0.000000 0.000000 0.000000
0.000000 0.000000 0.000000
0.000000 0.000000 0.000000
0.000000 0.000000 0.000000
0.000000 0.000000 0.000000
0.000000 0.000000 0.000000
0.000000 0.000000 0.000000
0.000000 0.000000 0.000000
0.000000 0.000000 0.000000
0.000000 0.000000 0.000000
0.000000 0.000000 0.000000
0.000000 0.000000 0.000000
0.000000 0.000000 0.000000
0.000000 0.000000 0.000000
0.000000 0.000000 0.000000
0.000000 0.000000 0.000000
0.000000 0.000000 0.000000
0.000000 0.000000 0.000000
0.000000 0.000000 0.000000
0.000000 0.000000 0.000000
0.000000 0.000000 0.000000
0.000000 0.000000 0.000000
0.000000 0.000000 0.000000
0.000000 0.000000 0.000000
0.000000 0.000000 0.000000
0.000000 0.000000 0.000000
0.000000 0.000000 0.000000
0.000000 0.000000 0.000000
0.000000 0.000000 0.000000
0.000000 0.000000 0.000000
0.000000 0.000000 0.000000
0.000000 0.000000 0.000000
0.000000 0.000000 0.000000
0.000000 0.000000 0.000000
0.000000 0.000000 0.000000
0.000000 0.000000 0.000000
0.000000 0.000000 0.000000
0.000000 0.000000 0.000000
0.000000 0.000000 0.000000
0.000000 0.000000 0.000000
0.000000 0.000000 0.000000
0.000000 0.000000 0.000000
0.000000 0.000000 0.000000
0.000000 0.000000 0.000000
0.000000 0.000000 0.000000
0.000000 0.000000 0.000000
0.000000 0.000000 0.000000
0.000000 0.000000 0.000000
0.000000 0.000000 0.000000
0.000000 0.000000 0.000000
0.000000 0.000000 0.000000
0.000000 0.000000 0.000000
0.000000 0.000000 0.000000
0.000000 0.000000 0.000000
0.000000 0.000000 0.000000
0.000000 0.000000 0.000000
0.000000 0.000000 0.000000
0.000000 0.000000 0.000000
0.000000 0.000000 0.000000
0.000000 0.000000 0.000000
0.000000 0.000000 0.000000
0.000000 0.000000 0.000000
0.000000 0.000000 0.000000
0.000000 0.000000 0.000000
0.000000 0.000000 0.000000
0.000000 0.000000 0.000000
0.000000 0.000000 0.000000
0.000000 0.000000 0.000000
0.000000 0.000000 0.000000
0.000000 0.000000 0.000000
0.000000 0.000000 0.000000
0.000000 0.000000 0.000000
0.000000 0.000000 0.000000
0.000000 0.000000 0.000000
0.000000 0.000000 0.000000
0.000000 0.000000 0.000000
0.000000 0.000000 0.000000
0.000000 0.000000 0.000000
0.000000 0.000000 0.000000
0.000000 0.000000 0.000000
0.000000 0.000000 0.000000
0.000000 0.000000 0.000000
0.000000 0.000000 0.000000
0.000000 0.000000 0.000000
0.000000 0.000000 0.000000
0.000000 0.000000 0.000000
0.000000 0.000000 0.000000
0.000000 0.000000 0.000000
0.000000 0.000000 0.000000
0.000000 0.000000 0.000000
0.000000 0.000000 0.000000
0.000000 0.000000 0.000000
0.000000 0.000000 0.000000
0.000000 0.000000 0.000000
0.000000 0.000000 0.000000
0.000000 0.000000 0.000000
0.000000 0.000000 0.000000
0.000000 0.000000 0.000000
0.000000 0.000000 0.000000
0.000000 0.000000 0.000000
0.000000 0.000000 0.000000
0.000000 0.000000 0.000000
0.000000 0.000000 0.000000
0.000000 0.000000 0.000000
0.000000 0.000000 0.000000
0.000000 0.000000 0.000000
0.000000 0.000000 0.000000
0.000000 0.000000 0.000000
0.000000 0.000000 0.000000
0.000000 0.000000 0.000000
0.000000 0.000000 0.000000
0.000000 0.000000 0.000000
0.000000 0.000000 0.000000
0.000000 0.000000 0.000000
0.000000 0.000000 0.000000
0.000000 0.000000 0.000000
0.000000 0.000000 0.000000
0.000000 0.000000 0.000000
0.000000 0.000000 0.000000
0.000000 0.000000 0.000000
0.000000 0.000000 0.000000
0.000000 0.000000 0.000000
0.000000 0.000000 0.000000
0.000000 0.000000 0.000000
0.000000 0.000000 0.000000
0.000000 0.000000 0.000000
0.000000 0.000000 0.000000
0.000000 0.000000 0.000000
0.000000 0.000000 0.000000
0.000000 0.000000 0.000000
0.000000 0.000000 0.000000
0.000000 0.000000 0.000000
0.000000 0.000000 0.000000
0.000000 0.000000 0.000000
0.000000 0.000000 0.000000
0.000000 0.000000 0.000000
0.000000 0.000000 0.000000
0.000000 0.000000 0.000000
0.000000 0.000000 0.000000
0.000000 0.000000 0.000000
0.000000 0.000000 0.000000
0.000000 0.000000 0.000000
0.000000 0.000000 0.000000
0.000000 0.000000 0.000000
0.000000 0.000000 0.000000
0.000000 0.000000 0.000000
0.000000 0.000000 0.000000
0.000000 0.000000 0.000000
0.000000 0.000000 0.000000
0.000000 0.000000 0.000000
0.000000 0.000000 0.000000
0.000000 0.000000 0.000000
0.000000 0.000000 0.000000
0.000000 0.000000 0.000000
0.000000 0.000000 0.000000
0.000000 0.000000 0.000000
0.000000 0.000000 0.000000
0.000000 0.000000 0.000000
0.000000 0.000000 0.000000
0.000000 0.000000 0.000000
0.000000 0.000000 0.000000
0.000000 0.000000 0.000000
0.000000 0.000000 0.000000
0.000000 0.000000 0.000000
0.000000 0.000000 0.000000
0.000000 0.000000 0.000000
0.000000 0.000000 0.000000
0.000000 0.000000 0.000000
0.000000 0.000000 0.000000
0.000000 0.000000 0.000000
0.000000 0.000000 0.000000
0.000000 0.000000 0.000000
0.000000 0.000000 0.000000
0.000000 0.000000 0.000000
0.000000 0.000000 0.000000
0.000000 0.000000 0.000000
0.000000 0.000000 0.000000
0.000000 0.000000 0.000000
0.000000 0.000000 0.000000
0.000000 0.000000 0.000000
0.000000 0.000000 0.000000
0.000000 0.000000 0.000000
0.000000 0.000000 0.000000
0.000000 0.000000 0.000000
0.000000 0.000000 0.000000
0.000000 0.000000 0.000000
0.000000 0.000000 0.000000
0.000000 0.000000 0.000000
0.000000 0.000000 0.000000
0.000000 0.000000 0.000000
0.000000 0.000000 0.000000
0.000000 0.000000 0.000000
0.000000 0.000000 0.000000
0.000000 0.000000 0.000000
0.000000 0.000000 0.000000
0.000000 0.000000 0.000000
0.000000 0.000000 0.000000
0.000000 0.000000 0.000000
0.000000 0.000000 0.000000
0.000000 0.000000 0.000000
0.000000 0.000000 0.000000
0.000000 0.000000 0.000000
0.000000 0.000000 0.000000
0.000000 0.000000 0.000000
0.000000 0.000000 0.000000
0.000000 0.000000 0.000000
0.000000 0.000000 0.000000
0.000000 0.000000 0.000000
0.000000 0.000000 0.000000
0.000000 0.000000 0.000000
0.000000 0.000000 0.000000
0.000000 0.000000 0.000000
0.000000 0.000000 0.000000
0.000000 0.000000 0.000000
0.000000 0.000000 0.000000
0.000000 0.000000 0.000000
0.000000 0.000000 0.000000
0.000000 0.000000 0.000000
0.000000 0.000000 0.000000
0.000000 0.000000 0.000000
0.000000 0.000000 0.000000
0.000000 0.000000 0.000000
0.000000 0.000000 -50.000000
-50.000000 0.000000 -50.000000
-43.356604 0.000000 -45.674275
-45.533751 0.000000 -43.265906
-50.000000 0.000000 -50.000000
-36.711072 0.000000 -36.534692
-50.000000 0.000000 -45.064580
-40.053303 0.000000 -39.988337
-44.208145 0.000000 -29.804608
-50.000000 0.000000 -50.000000
-30.063226 0.000000 -44.830043
-33.582199 0.000000 -33.065929
-44.729394 0.000000 -39.825581
-36.897839 0.000000 -35.063765
-39.896083 0.000000 -23.078503
-50.000000 0.000000 -26.430765
-44.719776 0.000000 -50.000000
-23.414867 0.000000 -44.645925
-26.989268 0.000000 -39.317068
-30.389577 0.000000 -29.515469
-39.457295 0.000000 -33.293148
-33.800470 0.000000 -50.000000
-16.763742 0.000000 -16.364119
-50.000000 0.000000 -9.663904
