# vtk DataFile Version 2.0
CellBP Time: 3.45
ASCII
DATASET UNSTRUCTURED_GRID
POINTS 320 double
-50.000000 -50.000000 0.000000
-50.000000 -43.345432 0.000000
-45.686192 -45.528872 0.000000
-43.280869 -50.000000 0.000000
-50.000000 -36.689409 0.000000
-36.562231 -50.000000 0.000000
-45.077638 -40.041118 0.000000
-40.014624 -44.201985 0.000000
-29.844649 -50.000000 0.000000
-50.000000 -30.032316 0.000000
-44.843065 -33.562841 0.000000
-33.107390 -44.723804 0.000000
-39.850300 -36.882213 0.000000
-35.100476 -39.884790 0.000000
-23.129163 -50.000000 0.000000
-26.485924 -44.713342 0.000000
-50.000000 -23.375763 0.000000
-44.659311 -26.963632 0.000000
-39.342493 -30.367177 0.000000
-29.564395 -39.445027 0.000000
-33.332253 -33.781404 0.000000
-50.000000 -16.718109 0.000000
-16.423492 -50.000000 0.000000
-9.729687 -50.000000 0.000000
-19.899357 -44.632089 0.000000
-23.154997 -39.199768 0.000000
-44.684420 -20.299797 0.000000
-39.343336 -23.714090 0.000000
-34.062801 -27.108625 0.000000
-26.330389 -33.706197 0.000000
-29.098638 -29.090203 0.000000
-50.000000 -10.061515 0.000000
-44.655909 -13.655322 0.000000
-50.000000 -3.408231 0.000000
-3.047111 -50.000000 0.000000
3.621190 -50.000000 0.000000
-13.267735 -44.637839 0.000000
-6.600133 -44.647106 0.000000
-16.615244 -39.230944 0.000000
-20.031560 -33.469242 0.000000
-39.308920 -17.035298 0.000000
-33.973792 -20.493246 0.000000
-28.716552 -23.656311 0.000000
-23.429951 -27.533769 0.000000
-44.618456 -6.992451 0.000000
-39.250984 -10.382367 0.000000
-50.000000 3.249058 0.000000
-44.601724 -0.341378 0.000000
10.273655 -50.000000 0.000000
16.912172 -50.000000 0.000000
0.074519 -44.650566 0.000000
6.743718 -44.660593 0.000000
-9.950477 -39.297165 0.000000
-3.264577 -39.290783 0.000000
-13.387168 -33.915361 0.000000
-16.604149 -28.444243 0.000000
-33.884183 -13.791731 0.000000
-28.519966 -17.156433 0.000000
-23.194512 -20.558379 0.000000
-18.552081 -23.503712 0.000000
-39.208868 -3.727641 0.000000
-33.812123 -7.146828 0.000000
-50.000000 9.941501 0.000000
-44.583952 6.314636 0.000000
-39.185544 2.933724 0.000000
-50.000000 16.705446 0.000000
23.540786 -50.000000 0.000000
30.161803 -50.000000 0.000000
13.405757 -44.681499 0.000000
20.068908 -44.713616 0.000000
3.414666 -39.305575 0.000000
10.075922 -39.339005 0.000000
-6.621211 -33.901876 0.000000
0.086349 -33.927902 0.000000
-9.967591 -28.452234 0.000000
-12.992768 -23.114182 0.000000
-28.413058 -10.550869 0.000000
-22.932047 -13.974498 0.000000
-16.838229 -17.480473 0.000000
-33.754353 -0.508758 0.000000
-28.394555 -3.998214 0.000000
-44.547470 13.009503 0.000000
-39.121854 9.564636 0.000000
-33.717604 6.027520 0.000000
-50.000000 23.573235 0.000000
-44.592688 19.808525 0.000000
-50.000000 30.536447 0.000000
36.775030 -50.000000 0.000000
43.387646 -50.000000 0.000000
26.728605 -44.753441 0.000000
33.364263 -44.877937 0.000000
16.726213 -39.395286 0.000000
23.406370 -39.465280 0.000000
6.759884 -33.961405 0.000000
13.398968 -34.029104 0.000000
-3.209128 -28.500428 0.000000
3.491794 -28.570609 0.000000
-6.476026 -23.033844 0.000000
-9.813991 -17.561561 0.000000
-22.995226 -7.404513 0.000000
-17.614792 -10.670541 0.000000
-12.647267 -12.886449 0.000000
-28.355218 2.564322 0.000000
-23.000704 -0.952653 0.000000
-38.986532 16.258614 0.000000
-28.324058 9.260704 0.000000
-33.504188 12.433980 0.000000
-44.736138 26.582580 0.000000
-38.703987 23.621049 0.000000
-44.984359 33.388529 0.000000
-50.000000 37.489049 0.000000
-50.000000 43.854669 0.000000
39.949893 -45.071803 0.000000
45.479856 -45.660487 0.000000
50.000000 -50.000000 0.000000
36.666573 -39.997131 0.000000
30.070280 -39.479491 0.000000
19.995972 -34.140648 0.000000
26.657773 -34.356922 0.000000
10.113907 -28.608104 0.000000
16.719238 -28.730504 0.000000
0.210121 -23.116830 0.000000
6.958584 -23.286347 0.000000
-3.222409 -17.512647 0.000000
-6.654320 -11.340696 0.000000
-17.607288 -4.242848 0.000000
-12.286301 -7.385161 0.000000
-22.934226 5.486396 0.000000
-17.691040 1.967805 0.000000
-22.602194 11.428243 0.000000
-33.299039 18.465985 0.000000
-27.374039 16.077026 0.000000
-33.018772 23.808133 0.000000
-40.292047 30.515818 0.000000
-35.388485 28.936525 0.000000
-39.906966 35.489603 0.000000
-43.910493 40.162192 0.000000
-45.266932 45.762913 0.000000
-50.000000 50.000000 0.000000
44.128473 -39.908065 0.000000
50.000000 -43.387977 0.000000
39.665727 -35.070699 0.000000
33.513286 -33.456678 0.000000
23.074056 -28.877095 0.000000
28.801858 -29.294703 0.000000
13.587142 -23.219708 0.000000
20.162393 -23.518391 0.000000
3.567858 -17.750316 0.000000
10.277982 -17.958801 0.000000
0.344605 -12.259460 0.000000
-1.907119 -6.563511 0.000000
-7.128618 -4.045224 0.000000
-12.312409 -1.196559 0.000000
-17.699018 8.004189 0.000000
-12.584201 4.788315 0.000000
-17.971329 13.113998 0.000000
-20.727298 16.780517 0.000000
-27.998450 22.484640 0.000000
-23.314602 20.972048 0.000000
-29.712401 28.630766 0.000000
-34.133352 34.071377 0.000000
-36.846222 39.934924 0.000000
-39.616951 45.263096 0.000000
-43.394738 50.000000 0.000000
44.594686 -32.999350 0.000000
50.000000 -36.762764 0.000000
39.164126 -29.616077 0.000000
33.558931 -26.415800 0.000000
27.266960 -23.388234 0.000000
23.167636 -18.731334 0.000000
17.115201 -17.076965 0.000000
6.891282 -12.365332 0.000000
12.501915 -12.847053 0.000000
-3.078922 -1.768181 0.000000
4.175054 -7.251600 0.000000
1.299514 -2.340766 0.000000
-6.716207 2.022526 0.000000
-8.056981 7.517559 0.000000
-12.308607 11.527903 0.000000
-15.033509 17.289856 0.000000
-18.443939 22.700186 0.000000
-23.545169 27.187449 0.000000
-26.919105 33.588706 0.000000
-30.018833 39.301253 0.000000
-33.094159 44.831476 0.000000
-36.625541 50.000000 0.000000
44.563113 -26.538006 0.000000
50.000000 -30.140319 0.000000
39.079669 -23.228277 0.000000
33.517147 -19.958565 0.000000
28.131792 -16.653971 0.000000
22.802655 -13.219210 0.000000
17.324728 -10.027020 0.000000
11.140019 -6.786259 0.000000
-1.087889 2.088284 0.000000
6.489466 -1.890915 0.000000
3.185306 1.420912 0.000000
-3.219066 6.984149 0.000000
-5.865829 12.174427 0.000000
-9.080595 17.416595 0.000000
-12.530291 22.868040 0.000000
-16.754701 28.013814 0.000000
-20.144950 33.340452 0.000000
-23.273961 38.978909 0.000000
-26.417230 44.604094 0.000000
-29.871896 50.000000 0.000000
44.547898 -19.976961 0.000000
50.000000 -23.510877 0.000000
39.085136 -16.652636 0.000000
33.656669 -13.352035 0.000000
28.261547 -10.058401 0.000000
22.869484 -6.714398 0.000000
17.446365 -3.467506 0.000000
12.284294 0.044518 0.000000
2.242221 6.109259 0.000000
7.369610 3.705303 0.000000
0.187357 11.775386 0.000000
-2.812865 17.306493 0.000000
-6.203763 22.794660 0.000000
-10.089175 28.114586 0.000000
-13.302639 33.531464 0.000000
-16.567501 38.984003 0.000000
-19.756133 44.495131 0.000000
-23.164882 50.000000 0.000000
44.561196 -13.354501 0.000000
50.000000 -16.872359 0.000000
39.137914 -10.030276 0.000000
33.737407 -6.718401 0.000000
28.362660 -3.403474 0.000000
23.015499 -0.093546 0.000000
17.760992 3.239288 0.000000
12.510252 6.450194 0.000000
7.077566 10.689181 0.000000
3.682562 17.018087 0.000000
0.324082 22.698930 0.000000
-3.115224 28.194243 0.000000
-6.455397 33.677615 0.000000
-9.793216 39.099980 0.000000
-13.091548 44.525241 0.000000
-16.530971 50.000000 0.000000
44.584746 -6.706612 0.000000
50.000000 -10.221535 0.000000
39.188353 -3.386450 0.000000
33.815080 -0.068510 0.000000
28.477274 3.252889 0.000000
23.196276 6.592329 0.000000
18.076125 9.917508 0.000000
12.941431 12.091567 0.000000
10.099807 17.106680 0.000000
6.805366 22.610032 0.000000
3.522911 28.178800 0.000000
0.210576 33.667566 0.000000
-3.117835 39.119815 0.000000
-6.417840 44.556271 0.000000
-9.888667 50.000000 0.000000
44.610285 -0.048304 0.000000
50.000000 -3.557694 0.000000
39.238279 3.270174 0.000000
33.891008 6.585417 0.000000
28.580906 9.916550 0.000000
23.247422 13.331612 0.000000
17.192979 16.932462 0.000000
13.169344 22.586958 0.000000
10.089521 28.164508 0.000000
6.879618 33.668945 0.000000
3.555902 39.131156 0.000000
0.242964 44.568663 0.000000
-3.238026 50.000000 0.000000
44.624708 6.620053 0.000000
50.000000 3.118595 0.000000
39.273406 9.928520 0.000000
33.958218 13.220050 0.000000
28.695896 16.523350 0.000000
23.573698 20.021548 0.000000
18.751751 23.048817 0.000000
16.615382 28.246468 0.000000
13.556944 33.718272 0.000000
10.216759 39.160191 0.000000
6.905079 44.576410 0.000000
3.416012 50.000000 0.000000
44.648594 13.279037 0.000000
50.000000 9.805916 0.000000
39.326257 16.569499 0.000000
34.041858 19.820366 0.000000
28.755533 22.882557 0.000000
23.453541 27.166700 0.000000
20.087585 33.275357 0.000000
16.767747 39.023935 0.000000
13.475368 44.521021 0.000000
10.073116 50.000000 0.000000
44.671647 19.941059 0.000000
50.000000 16.500791 0.000000
39.370901 23.228410 0.000000
34.148777 26.484876 0.000000
29.103175 28.507848 0.000000
26.350600 33.383306 0.000000
23.225848 38.952603 0.000000
20.060959 44.501675 0.000000
16.728124 50.000000 0.000000
44.679285 26.617913 0.000000
50.000000 23.199180 0.000000
39.364625 29.942270 0.000000
33.319950 33.352602 0.000000
29.535673 39.031511 0.000000
26.558768 44.501450 0.000000
23.381922 50.000000 0.000000
44.812846 33.273822 0.000000
50.000000 29.899263 0.000000
39.803305 36.583143 0.000000
34.923080 39.516963 0.000000
32.933835 44.509542 0.000000
30.036298 50.000000 0.000000
45.013592 39.868722 0.000000
50.000000 36.599969 0.000000
39.800414 43.965134 0.000000
36.688875 50.000000 0.000000
45.651546 45.407970 0.000000
50.000000 43.299987 0.000000
43.341331 50.000000 0.000000
50.000000 50.000000 0.000000
CELLS 578 2312
3 1 0 2
3 0 3 2
3 4 1 6
3 6 1 2
3 3 5 7
3 3 7 2
3 6 2 7
3 9 4 10
3 10 4 6
3 5 8 11
3 7 5 11
3 10 6 12
3 12 6 7
3 7 11 13
3 7 13 12
3 8 14 15
3 11 8 15
3 16 9 17
3 17 9 10
3 17 10 18
3 18 10 12
3 11 15 19
3 13 11 19
3 18 12 20
3 13 19 20
3 20 12 13
3 14 22 24
3 15 14 24
3 15 24 25
3 19 15 25
3 21 16 26
3 26 16 17
3 26 17 27
3 27 17 18
3 27 18 28
3 28 18 20
3 19 25 29
3 19 29 20
3 28 20 30
3 30 20 29
3 31 21 32
3 32 21 26
3 22 23 36
3 24 22 36
3 23 34 37
3 36 23 37
3 24 36 38
3 25 24 38
3 25 38 39
3 29 25 39
3 32 26 40
3 40 26 27
3 40 27 41
3 41 27 28
3 41 28 42
3 42 28 30
3 29 39 43
3 29 43 30
3 42 30 43
3 33 31 44
3 44 31 32
3 44 32 45
3 45 32 40
3 46 33 47
3 47 33 44
3 34 35 50
3 37 34 50
3 35 48 51
3 50 35 51
3 36 37 52
3 38 36 52
3 37 50 53
3 52 37 53
3 38 52 54
3 39 38 54
3 39 54 55
3 43 39 55
3 45 40 56
3 56 40 41
3 56 41 57
3 57 41 42
3 57 42 58
3 58 42 43
3 43 55 59
3 43 59 58
3 47 44 60
3 60 44 45
3 60 45 61
3 61 45 56
3 62 46 63
3 63 46 47
3 63 47 64
3 64 47 60
3 48 49 68
3 51 48 68
3 49 66 69
3 68 49 69
3 50 51 70
3 53 50 70
3 51 68 71
3 70 51 71
3 52 53 72
3 54 52 72
3 53 70 73
3 72 53 73
3 54 72 74
3 55 54 74
3 55 74 75
3 59 55 75
3 61 56 76
3 76 56 57
3 76 57 77
3 77 57 58
3 77 58 78
3 59 75 78
3 78 58 59
3 64 60 79
3 79 60 61
3 79 61 80
3 80 61 76
3 65 62 81
3 81 62 63
3 81 63 82
3 82 63 64
3 82 64 83
3 83 64 79
3 84 65 85
3 85 65 81
3 66 67 89
3 69 66 89
3 67 87 90
3 89 67 90
3 68 69 91
3 71 68 91
3 69 89 92
3 91 69 92
3 70 71 93
3 73 70 93
3 71 91 94
3 93 71 94
3 72 73 95
3 74 72 95
3 73 93 96
3 95 73 96
3 74 95 97
3 75 74 97
3 75 97 98
3 78 75 98
3 80 76 99
3 99 76 77
3 99 77 100
3 100 77 78
3 100 78 101
3 98 101 78
3 83 79 102
3 102 79 80
3 102 80 103
3 103 80 99
3 85 81 104
3 104 81 82
3 105 83 102
3 104 82 106
3 106 82 83
3 106 83 105
3 86 84 107
3 107 84 85
3 107 85 108
3 108 85 104
3 109 86 107
3 110 86 109
3 87 88 112
3 90 87 112
3 112 88 113
3 88 114 113
3 90 112 115
3 89 90 116
3 92 89 116
3 116 90 115
3 91 92 117
3 94 91 117
3 92 116 118
3 117 92 118
3 93 94 119
3 96 93 119
3 94 117 120
3 119 94 120
3 95 96 121
3 97 95 121
3 96 119 122
3 121 96 122
3 97 121 123
3 98 97 123
3 98 123 124
3 98 124 101
3 103 99 125
3 125 99 100
3 125 100 126
3 126 100 101
3 126 101 124
3 105 102 127
3 127 102 103
3 127 103 128
3 128 103 125
3 129 105 127
3 108 104 130
3 130 104 106
3 130 106 131
3 131 106 105
3 131 105 129
3 108 130 132
3 109 107 133
3 133 107 108
3 133 108 134
3 108 132 134
3 135 109 133
3 111 110 136
3 136 110 109
3 136 109 135
3 137 111 136
3 138 111 137
3 112 113 139
3 115 112 139
3 114 140 113
3 140 139 113
3 139 141 115
3 116 115 142
3 118 116 142
3 142 115 141
3 117 118 143
3 120 117 143
3 118 142 144
3 143 118 144
3 119 120 145
3 122 119 145
3 120 143 146
3 145 120 146
3 121 122 147
3 123 121 147
3 122 145 148
3 147 122 148
3 123 147 149
3 124 123 149
3 124 149 150
3 151 126 124
3 124 150 151
3 128 125 152
3 152 125 126
3 152 126 151
3 129 127 153
3 153 127 128
3 128 152 154
3 153 128 154
3 155 129 153
3 131 129 156
3 156 129 155
3 132 130 157
3 130 131 157
3 157 131 158
3 131 156 158
3 132 157 159
3 132 159 134
3 135 133 160
3 160 133 134
3 160 134 159
3 136 135 161
3 135 160 161
3 162 137 136
3 161 162 136
3 163 138 137
3 162 163 137
3 139 164 141
3 140 165 139
3 139 165 164
3 141 164 166
3 141 166 142
3 166 167 142
3 144 142 167
3 167 168 144
3 143 144 168
3 146 143 168
3 168 169 146
3 145 146 170
3 148 145 170
3 170 146 169
3 147 148 171
3 149 147 171
3 148 170 172
3 171 148 172
3 173 151 150
3 149 171 174
3 150 149 174
3 150 174 175
3 150 175 173
3 154 152 176
3 152 151 176
3 176 151 173
3 154 176 177
3 155 153 178
3 177 178 154
3 154 178 153
3 156 155 179
3 155 178 179
3 180 158 156
3 179 180 156
3 181 159 157
3 180 181 158
3 181 157 158
3 182 160 159
3 181 182 159
3 183 161 160
3 182 183 160
3 184 162 161
3 184 161 183
3 185 163 162
3 184 185 162
3 164 186 166
3 165 187 164
3 164 187 186
3 166 186 188
3 166 188 167
3 167 188 189
3 167 189 168
3 168 189 190
3 168 190 169
3 169 190 191
3 169 191 170
3 192 172 170
3 170 191 192
3 192 193 172
3 171 172 193
3 174 171 193
3 194 173 175
3 176 173 194
3 175 174 195
3 193 195 174
3 195 196 175
3 175 196 194
3 197 177 176
3 194 197 176
3 198 178 177
3 197 198 177
3 199 179 178
3 198 199 178
3 200 180 179
3 199 200 179
3 201 181 180
3 200 201 180
3 202 182 181
3 201 202 181
3 203 183 182
3 202 203 182
3 204 184 183
3 203 204 183
3 205 185 184
3 204 205 184
3 186 206 188
3 187 207 186
3 186 207 206
3 188 206 208
3 188 208 189
3 189 208 209
3 189 209 190
3 190 209 210
3 190 210 191
3 191 210 211
3 191 211 192
3 192 211 212
3 192 212 193
3 193 212 213
3 193 213 195
3 214 197 194
3 214 194 196
3 195 213 215
3 195 215 196
3 196 215 214
3 216 198 197
3 214 216 197
3 217 199 198
3 216 217 198
3 218 200 199
3 217 218 199
3 219 201 200
3 218 219 200
3 220 202 201
3 219 220 201
3 221 203 202
3 220 221 202
3 222 204 203
3 221 222 203
3 223 205 204
3 222 223 204
3 206 224 208
3 207 225 206
3 206 225 224
3 208 224 226
3 208 226 209
3 209 226 227
3 209 227 210
3 210 227 228
3 210 228 211
3 211 228 229
3 211 229 212
3 212 229 230
3 212 230 213
3 213 230 231
3 213 231 215
3 232 216 214
3 215 231 232
3 232 214 215
3 233 217 216
3 232 233 216
3 234 218 217
3 233 234 217
3 235 219 218
3 234 235 218
3 236 220 219
3 235 236 219
3 237 221 220
3 236 237 220
3 238 222 221
3 237 238 221
3 239 223 222
3 238 239 222
3 224 240 226
3 225 241 224
3 224 241 240
3 226 240 242
3 226 242 227
3 227 242 243
3 227 243 228
3 228 243 244
3 228 244 229
3 244 245 229
3 229 245 230
3 230 245 246
3 230 246 231
3 231 246 247
3 231 247 232
3 248 233 232
3 248 232 247
3 249 234 233
3 248 249 233
3 250 235 234
3 249 250 234
3 251 236 235
3 250 251 235
3 252 237 236
3 251 252 236
3 253 238 237
3 252 253 237
3 254 239 238
3 253 254 238
3 240 255 242
3 241 256 240
3 240 256 255
3 242 255 257
3 242 257 243
3 243 257 258
3 243 258 244
3 244 258 259
3 244 259 245
3 245 259 260
3 245 260 246
3 246 260 261
3 246 261 247
3 248 247 261
3 262 249 248
3 261 262 248
3 263 250 249
3 262 263 249
3 264 251 250
3 263 264 250
3 265 252 251
3 264 265 251
3 266 253 252
3 265 266 252
3 267 254 253
3 266 267 253
3 255 268 257
3 256 269 255
3 255 269 268
3 257 268 270
3 257 270 258
3 258 270 271
3 258 271 259
3 259 271 272
3 259 272 260
3 260 272 273
3 260 273 261
3 274 262 261
3 261 273 274
3 275 263 262
3 274 275 262
3 276 264 263
3 275 276 263
3 277 265 264
3 276 277 264
3 278 266 265
3 277 278 265
3 279 267 266
3 278 279 266
3 268 280 270
3 269 281 268
3 268 281 280
3 270 280 282
3 270 282 271
3 271 282 283
3 271 283 272
3 283 284 272
3 272 284 273
3 285 275 274
3 273 284 285
3 285 274 273
3 286 276 275
3 285 286 275
3 287 277 276
3 286 287 276
3 288 278 277
3 287 288 277
3 289 279 278
3 288 289 278
3 280 290 282
3 281 291 280
3 280 291 290
3 282 290 292
3 282 292 283
3 283 292 293
3 283 293 284
3 284 293 294
3 284 294 285
3 295 286 285
3 295 285 294
3 296 287 286
3 295 296 286
3 297 288 287
3 296 297 287
3 298 289 288
3 297 298 288
3 290 299 292
3 291 300 290
3 290 300 299
3 292 299 301
3 292 301 293
3 293 301 302
3 293 302 294
3 294 302 295
3 303 296 295
3 303 295 302
3 304 297 296
3 303 304 296
3 305 298 297
3 304 305 297
3 299 306 301
3 300 307 299
3 299 307 306
3 301 306 308
3 301 308 302
3 309 303 302
3 302 308 309
3 310 304 303
3 309 310 303
3 311 305 304
3 310 311 304
3 306 312 308
3 307 313 306
3 306 313 312
3 314 310 309
3 308 312 314
3 314 309 308
3 315 311 310
3 314 315 310
3 312 316 314
3 313 317 312
3 312 317 316
3 318 315 314
3 318 314 316
3 317 319 316
3 319 318 316
CELL_TYPES 578
5
5
5
5
5
5
5
5
5
5
5
5
5
5
5
5
5
5
5
5
5
5
5
5
5
5
5
5
5
5
5
5
5
5
5
5
5
5
5
5
5
5
5
5
5
5
5
5
5
5
5
5
5
5
5
5
5
5
5
5
5
5
5
5
5
5
5
5
5
5
5
5
5
5
5
5
5
5
5
5
5
5
5
5
5
5
5
5
5
5
5
5
5
5
5
5
5
5
5
5
5
5
5
5
5
5
5
5
5
5
5
5
5
5
5
5
5
5
5
5
5
5
5
5
5
5
5
5
5
5
5
5
5
5
5
5
5
5
5
5
5
5
5
5
5
5
5
5
5
5
5
5
5
5
5
5
5
5
5
5
5
5
5
5
5
5
5
5
5
5
5
5
5
5
5
5
5
5
5
5
5
5
5
5
5
5
5
5
5
5
5
5
5
5
5
5
5
5
5
5
5
5
5
5
5
5
5
5
5
5
5
5
5
5
5
5
5
5
5
5
5
5
5
5
5
5
5
5
5
5
5
5
5
5
5
5
5
5
5
5
5
5
5
5
5
5
5
5
5
5
5
5
5
5
5
5
5
5
5
5
5
5
5
5
5
5
5
5
5
5
5
5
5
5
5
5
5
5
5
5
5
5
5
5
5
5
5
5
5
5
5
5
5
5
5
5
5
5
5
5
5
5
5
5
5
5
5
5
5
5
5
5
5
5
5
5
5
5
5
5
5
5
5
5
5
5
5
5
5
5
5
5
5
5
5
5
5
5
5
5
5
5
5
5
5
5
5
5
5
5
5
5
5
5
5
5
5
5
5
5
5
5
5
5
5
5
5
5
5
5
5
5
5
5
5
5
5
5
5
5
5
5
5
5
5
5
5
5
5
5
5
5
5
5
5
5
5
5
5
5
5
5
5
5
5
5
5
5
5
5
5
5
5
5
5
5
5
5
5
5
5
5
5
5
5
5
5
5
5
5
5
5
5
5
5
5
5
5
5
5
5
5
5
5
5
5
5
5
5
5
5
5
5
5
5
5
5
5
5
5
5
5
5
5
5
5
5
5
5
5
5
5
5
5
5
5
5
5
5
5
5
5
5
5
5
5
5
5
5
5
5
5
5
5
5
5
5
5
5
5
5
5
5
5
5
5
5
5
5
5
5
5
5
5
5
5
5
5
5
5
5
5
5
5
5
5
5
5
5
5
5
5
5
5
5
5
5
5
5
5
5
5
5
5
5
5
5
5
5
5
5
5
5
5
5
5
5
5
5
5
5
5
5
5
5
5
5
5
5
5
5
5
5
5
5
5
5
5
POINT_DATA 320
SCALARS theta_e float 1
LOOKUP_TABLE default
0.993568
0.993582
0.993570
0.993562
0.993616
0.993547
0.993592
0.993565
0.993516
0.993677
0.993640
0.993538
0.993601
0.993567
0.993468
0.993500
0.993761
0.993713
0.993660
0.993541
0.993602
0.993863
0.993401
0.993317
0.993444
0.993495
0.993806
0.993744
0.993679
0.993556
0.993619
0.993978
0.993914
0.994098
0.993222
0.993126
0.993369
0.993281
0.993432
0.993501
0.993842
0.993763
0.993683
0.993588
0.994030
0.993950
0.994219
0.994149
0.993036
0.992959
0.993186
0.993091
0.993351
0.993261
0.993427
0.993506
0.993863
0.993768
0.993667
0.993582
0.994065
0.993974
0.994339
0.994270
0.994184
0.994453
0.992899
0.992856
0.993005
0.992933
0.993165
0.993072
0.993341
0.993247
0.993423
0.993522
0.993867
0.993744
0.993642
0.994091
0.993977
0.994389
0.994306
0.994208
0.994556
0.994501
0.994638
0.992828
0.992814
0.992878
0.992840
0.992986
0.992915
0.993152
0.993061
0.993326
0.993227
0.993438
0.993572
0.993831
0.993812
0.993745
0.994095
0.993932
0.994426
0.994212
0.994322
0.994593
0.994531
0.994664
0.994693
0.994716
0.992819
0.992811
0.992811
0.992831
0.992862
0.992978
0.992909
0.993135
0.993055
0.993339
0.993233
0.993457
0.993532
0.993975
0.993933
0.994051
0.994063
0.994179
0.994427
0.994316
0.994509
0.994616
0.994573
0.994663
0.994700
0.994719
0.994722
0.992817
0.992812
0.992831
0.992863
0.992983
0.992923
0.993129
0.993056
0.993331
0.993265
0.993149
0.993498
0.993857
0.994165
0.994063
0.994213
0.994104
0.994264
0.994429
0.994346
0.994524
0.994610
0.994668
0.994702
0.994716
0.992830
0.992819
0.992859
0.992910
0.992992
0.993065
0.993155
0.992995
0.993253
0.993493
0.993228
0.993636
0.994081
0.994313
0.994056
0.994151
0.994295
0.994421
0.994532
0.994606
0.994657
0.994687
0.992858
0.992836
0.992903
0.992972
0.993048
0.993134
0.993221
0.993096
0.993451
0.993513
0.993837
0.993979
0.994056
0.994005
0.994193
0.994316
0.994428
0.994515
0.994580
0.994628
0.992901
0.992867
0.992962
0.993039
0.993109
0.993222
0.993398
0.993381
0.993641
0.993584
0.993678
0.993916
0.994072
0.994187
0.994301
0.994398
0.994475
0.994537
0.992960
0.992914
0.993031
0.993112
0.993172
0.993322
0.993572
0.993557
0.993579
0.993797
0.993948
0.994047
0.994161
0.994262
0.994345
0.994418
0.993029
0.992978
0.993104
0.993186
0.993245
0.993387
0.993563
0.993635
0.993706
0.993815
0.993906
0.994018
0.994117
0.994202
0.994280
0.993103
0.993051
0.993177
0.993259
0.993326
0.993436
0.993580
0.993685
0.993778
0.993881
0.993975
0.994057
0.994133
0.993175
0.993125
0.993248
0.993328
0.993404
0.993492
0.993581
0.993666
0.993756
0.993841
0.993917
0.993988
0.993242
0.993194
0.993312
0.993388
0.993464
0.993559
0.993643
0.993719
0.993788
0.993852
0.993303
0.993257
0.993367
0.993433
0.993498
0.993555
0.993618
0.993676
0.993732
0.993358
0.993317
0.993413
0.993478
0.993539
0.993586
0.993631
0.993405
0.993372
0.993447
0.993486
0.993520
0.993554
0.993442
0.993418
0.993474
0.993499
0.993462
0.993450
0.993473
0.993464
VECTORS fa_u float
0.000000 0.000000 0.000000
0.000000 0.000000 0.000000
0.000000 0.000000 0.000000
0.000000 0.000000 0.000000
0.000000 0.000000 0.000000
0.000000 0.000000 0.000000
0.000000 0.000000 0.000000
0.000000 0.000000 0.000000
0.000000 0.000000 0.000000
0.000000 0.000000 0.000000
0.000000 0.000000 0.000000
0.000000 0.000000 0.000000
0.000000 0.000000 0.000000
0.000000 0.000000 0.000000
0.000000 0.000000 0.000000
0.000000 0.000000 0.000000
0.000000 0.000000 0.000000
0.000000 0.000000 0.000000
0.000000 0.000000 0.000000
0.000000 0.000000 0.000000
0.000000 0.000000 0.000000
0.000000 0.000000 0.000000
0.000000 0.000000 0.000000
0.000000 0.000000 0.000000
0.000000 0.000000 0.000000
0.000000 0.000000 0.000000
0.000000 0.000000 0.000000
0.000000 0.000000 0.000000
0.000000 0.000000 0.000000
0.000000 0.000000 0.000000
0.000000 0.000000 0.000000
0.000000 0.000000 0.000000
0.000000 0.000000 0.000000
0.000000 0.000000 0.000000
0.000000 0.000000 0.000000
0.000000 0.000000 0.000000
0.000000 0.000000 0.000000
0.000000 0.000000 0.000000
0.000000 0.000000 0.000000
0.000000 0.000000 0.000000
0.000000 0.000000 0.000000
0.000000 0.000000 0.000000
0.000000 0.000000 0.000000
0.000000 0.000000 0.000000
0.000000 0.000000 0.000000
0.000000 0.000000 0.000000
0.000000 0.000000 0.000000
0.000000 0.000000 0.000000
0.000000 0.000000 0.000000
0.000000 0.000000 0.000000
0.000000 0.000000 0.000000
0.000000 0.000000 0.000000
0.000000 0.000000 0.000000
0.000000 0.000000 0.000000
0.000000 0.000000 0.000000
0.000000 0.000000 0.000000
0.000000 0.000000 0.000000
0.000000 0.000000 0.000000
0.000000 0.000000 0.000000
0.000000 0.000000 0.000000
0.000000 0.000000 0.000000
0.000000 0.000000 0.000000
0.000000 0.000000 0.000000
0.000000 0.000000 0.000000
0.000000 0.000000 0.000000
0.000000 0.000000 0.000000
0.000000 0.000000 0.000000
0.000000 0.000000 0.000000
0.000000 0.000000 0.000000
0.000000 0.000000 0.000000
0.000000 0.000000 0.000000
0.000000 0.000000 0.000000
0.000000 0.000000 0.000000
0.000000 0.000000 0.000000
0.000000 0.000000 0.000000
0.000000 0.000000 0.000000
0.000000 0.000000 0.000000
0.000000 0.000000 0.000000
0.000000 0.000000 0.000000
0.000000 0.000000 0.000000
0.000000 0.000000 0.000000
0.000000 0.000000 0.000000
0.000000 0.000000 0.000000
0.000000 0.000000 0.000000
0.000000 0.000000 0.000000
0.000000 0.000000 0.000000
0.000000 0.000000 0.000000
0.000000 0.000000 0.000000
0.000000 0.000000 0.000000
0.000000 0.000000 0.000000
0.000000 0.000000 0.000000
0.000000 0.000000 0.000000
0.000000 0.000000 0.000000
0.000000 0.000000 0.000000
0.000000 0.000000 0.000000
0.000000 0.000000 0.000000
0.000000 0.000000 0.000000
0.000000 0.000000 0.000000
0.000000 0.000000 0.000000
0.000000 0.000000 0.000000
0.000000 0.000000 0.000000
0.000000 0.000000 0.000000
0.000000 0.000000 0.000000
0.000000 0.000000 0.000000
0.000000 0.000000 0.000000
0.000000 0.000000 0.000000
0.000000 0.000000 0.000000
0.000000 0.000000 0.000000
0.000000 0.000000 0.000000
0.000000 0.000000 0.000000
0.000000 0.000000 0.000000
0.000000 0.000000 0.000000
0.000000 0.000000 0.000000
0.000000 0.000000 0.000000
0.000000 0.000000 0.000000
0.000000 0.000000 0.000000
0.000000 0.000000 0.000000
0.000000 0.000000 0.000000
0.000000 0.000000 0.000000
0.000000 0.000000 0.000000
0.000000 0.000000 0.000000
0.000000 0.000000 0.000000
0.000000 0.000000 0.000000
0.000000 0.000000 0.000000
0.000000 0.000000 0.000000
0.000000 0.000000 0.000000
0.000000 0.000000 0.000000
0.000000 0.000000 0.000000
0.000000 0.000000 0.000000
0.000000 0.000000 0.000000
0.000000 0.000000 0.000000
0.000000 0.000000 0.000000
0.000000 0.000000 0.000000
0.000000 0.000000 0.000000
0.000000 0.000000 0.000000
0.000000 0.000000 0.000000
0.000000 0.000000 0.000000
0.000000 0.000000 0.000000
0.000000 0.000000 0.000000
0.000000 0.000000 0.000000
0.000000 0.000000 0.000000
0.000000 0.000000 0.000000
0.000000 0.000000 0.000000
0.000000 0.000000 0.000000
0.000000 0.000000 0.000000
0.000000 0.000000 0.000000
0.000000 0.000000 0.000000
0.000000 0.000000 0.000000
0.000000 0.000000 0.000000
0.000000 0.000000 0.000000
0.000000 0.000000 0.000000
0.000000 0.000000 0.000000
0.000000 0.000000 0.000000
0.000000 0.000000 0.000000
0.000000 0.000000 0.000000
0.000000 0.000000 0.000000
0.000000 0.000000 0.000000
0.000000 0.000000 0.000000
0.000000 0.000000 0.000000
0.000000 0.000000 0.000000
0.000000 0.000000 0.000000
0.000000 0.000000 0.000000
0.000000 0.000000 0.000000
0.000000 0.000000 0.000000
0.000000 0.000000 0.000000
0.000000 0.000000 0.000000
0.000000 0.000000 0.000000
0.000000 0.000000 0.000000
0.000000 0.000000 0.000000
0.000000 0.000000 0.000000
0.000000 0.000000 0.000000
0.000000 0.000000 0.000000
0.000000 0.000000 0.000000
0.000000 0.000000 0.000000
0.000000 0.000000 0.000000
0.000000 0.000000 0.000000
0.000000 0.000000 0.000000
0.000000 0.000000 0.000000
0.000000 0.000000 0.000000
0.000000 0.000000 0.000000
0.000000 0.000000 0.000000
0.000000 0.000000 0.000000
0.000000 0.000000 0.000000
0.000000 0.000000 0.000000
0.000000 0.000000 0.000000
0.000000 0.000000 0.000000
0.000000 0.000000 0.000000
0.000000 0.000000 0.000000
0.000000 0.000000 0.000000
0.000000 0.000000 0.000000
0.000000 0.000000 0.000000
0.000000 0.000000 0.000000
0.000000 0.000000 0.000000
0.000000 0.000000 0.000000
0.000000 0.000000 0.000000
0.000000 0.000000 0.000000
0.000000 0.000000 0.000000
0.000000 0.000000 0.000000
0.000000 0.000000 0.000000
0.000000 0.000000 0.000000
0.000000 0.000000 0.000000
0.000000 0.000000 0.000000
0.000000 0.000000 0.000000
0.000000 0.000000 0.000000
0.000000 0.000000 0.000000
0.000000 0.000000 0.000000
0.000000 0.000000 0.000000
0.000000 0.000000 0.000000
0.000000 0.000000 0.000000
0.000000 0.000000 0.000000
0.000000 0.000000 0.000000
0.000000 0.000000 0.000000
0.000000 0.000000 0.000000
0.000000 0.000000 0.000000
0.000000 0.000000 0.000000
0.000000 0.000000 0.000000
0.000000 0.000000 0.000000
0.000000 0.000000 0.000000
0.000000 0.000000 0.000000
0.000000 0.000000 0.000000
0.000000 0.000000 0.000000
0.000000 0.000000 0.000000
0.000000 0.000000 0.000000
0.000000 0.000000 0.000000
0.000000 0.000000 0.000000
0.000000 0.000000 0.000000
0.000000 0.000000 0.000000
0.000000 0.000000 0.000000
0.000000 0.000000 0.000000
0.000000 0.000000 0.000000
0.000000 0.000000 0.000000
0.000000 0.000000 0.000000
0.000000 0.000000 0.000000
0.000000 0.000000 0.000000
0.000000 0.000000 0.000000
0.000000 0.000000 0.000000
0.000000 0.000000 0.000000
0.000000 0.000000 0.000000
0.000000 0.000000 0.000000
0.000000 0.000000 0.000000
0.000000 0.000000 0.000000
0.000000 0.000000 0.000000
0.000000 0.000000 0.000000
0.000000 0.000000 0.000000
0.000000 0.000000 0.000000
0.000000 0.000000 0.000000
0.000000 0.000000 0.000000
0.000000 0.000000 0.000000
0.000000 0.000000 0.000000
0.000000 0.000000 0.000000
0.000000 0.000000 0.000000
0.000000 0.000000 0.000000
0.000000 0.000000 0.000000
0.000000 0.000000 0.000000
0.000000 0.000000 0.000000
0.000000 0.000000 0.000000
0.000000 0.000000 0.000000
0.000000 0.000000 0.000000
0.000000 0.000000 0.000000
0.000000 0.000000 0.000000
0.000000 0.000000 0.000000
0.000000 0.000000 0.000000
0.000000 0.000000 0.000000
0.000000 0.000000 0.000000
0.000000 0.000000 0.000000
0.000000 0.000000 0.000000
0.000000 0.000000 0.000000
0.000000 0.000000 0.000000
0.000000 0.000000 0.000000
0.000000 0.000000 0.000000
0.000000 0.000000 0.000000
0.000000 0.000000 0.000000
0.000000 0.000000 0.000000
0.000000 0.000000 0.000000
0.000000 0.000000 0.000000
0.000000 0.000000 0.000000
0.000000 0.000000 0.000000
0.000000 0.000000 0.000000
0.000000 0.000000 0.000000
0.000000 0.000000 0.000000
0.000000 0.000000 0.000000
0.000000 0.000000 0.000000
0.000000 0.000000 0.000000
0.000000 0.000000 0.000000
0.000000 0.000000 0.000000
0.000000 0.000000 0.000000
0.000000 0.000000 0.000000
0.000000 0.000000 0.000000
0.000000 0.000000 0.000000
0.000000 0.000000 0.000000
0.000000 0.000000 0.000000
0.000000 0.000000 0.000000
0.000000 0.000000 0.000000
0.000000 0.000000 0.000000
0.000000 0.000000 0.000000
0.000000 0.000000 0.000000
0.000000 0.000000 -50.000000
-50.000000 0.000000 -50.000000
-43.345432 0.000000 -45.686192
-45.528872 0.000000 -43.280869
-50.000000 0.000000 -50.000000
-36.689409 0.000000 -36.562231
-50.000000 0.000000 -45.077638
-40.041118 0.000000 -40.014624
-44.201985 0.000000 -29.844649
-50.000000 0.000000 -50.000000
-30.032316 0.000000 -44.843065
-33.562841 0.000000 -33.107390
-44.723804 0.000000 -39.850300
-36.882213 0.000000 -35.100476
-39.884790 0.000000 -23.129163
-50.000000 0.000000 -26.485924
-44.713342 0.000000 -50.000000
-23.375763 0.000000 -44.659311
-26.963632 0.000000 -39.342493
-30.367177 0.000000 -29.564395
-39.445027 0.000000 -33.332253
-33.781404 0.000000 -50.000000
-16.718109 0.000000 -16.423492
-50.000000 0.000000 -9.729687
