# vtk DataFile Version 2.0
CellBP Time: 0.2
ASCII
DATASET UNSTRUCTURED_GRID
POINTS 320 double
-50.000000 -50.000000 0.000000
-50.000000 -43.333448 0.000000
-45.688245 -45.491125 0.000000
-43.333296 -50.000000 0.000000
-50.000000 -36.666872 0.000000
-36.666609 -50.000000 0.000000
-45.080953 -39.969883 0.000000
-40.026968 -44.152238 0.000000
-29.999910 -50.000000 0.000000
-50.000000 -30.000247 0.000000
-44.846901 -33.449108 0.000000
-33.144749 -44.675573 0.000000
-39.868883 -36.787046 0.000000
-35.128395 -39.801193 0.000000
-23.333206 -50.000000 0.000000
-26.538985 -44.666611 0.000000
-50.000000 -23.333583 0.000000
-44.665123 -26.804134 0.000000
-39.363966 -30.225746 0.000000
-29.605979 -39.359153 0.000000
-33.367859 -33.655288 0.000000
-50.000000 -16.666894 0.000000
-16.666528 -50.000000 0.000000
-9.999901 -50.000000 0.000000
-19.964702 -44.588639 0.000000
-23.215678 -39.114383 0.000000
-44.691805 -20.097139 0.000000
-39.367568 -23.528279 0.000000
-34.105718 -26.936910 0.000000
-26.384050 -33.576781 0.000000
-29.155720 -28.926223 0.000000
-50.000000 -10.000189 0.000000
-44.666302 -13.410404 0.000000
-50.000000 -3.333474 0.000000
-3.333321 -50.000000 0.000000
3.333251 -50.000000 0.000000
-13.343471 -44.598915 0.000000
-6.684647 -44.610644 0.000000
-16.693567 -39.153008 0.000000
-20.106800 -33.342148 0.000000
-39.337952 -16.804999 0.000000
-34.018114 -20.274660 0.000000
-28.780272 -23.448580 0.000000
-23.510057 -27.349305 0.000000
-44.635531 -6.705840 0.000000
-39.292877 -10.102038 0.000000
-50.000000 3.333269 0.000000
-44.626972 -0.015916 0.000000
9.999860 -50.000000 0.000000
16.666521 -50.000000 0.000000
-0.016145 -44.618760 0.000000
6.651479 -44.635466 0.000000
-10.044661 -39.222267 0.000000
-3.368315 -39.220222 0.000000
-13.484301 -33.798252 0.000000
-16.709763 -28.270522 0.000000
-33.947669 -13.514276 0.000000
-28.600706 -16.892093 0.000000
-23.290573 -20.312030 0.000000
-18.659785 -23.281160 0.000000
-39.267581 -3.393056 0.000000
-33.904202 -6.796721 0.000000
-50.000000 10.000045 0.000000
-44.607090 6.673144 0.000000
-39.261224 3.325562 0.000000
-50.000000 16.666831 0.000000
23.333210 -50.000000 0.000000
29.999903 -50.000000 0.000000
13.317230 -44.662995 0.000000
19.989380 -44.700142 0.000000
3.307564 -39.245051 0.000000
9.971694 -39.290281 0.000000
-6.735328 -33.790869 0.000000
-0.032552 -33.829392 0.000000
-10.096038 -28.292940 0.000000
-13.122711 -22.897654 0.000000
-28.532237 -10.214917 0.000000
-23.065347 -13.662215 0.000000
-16.976194 -17.206995 0.000000
-33.884766 -0.065336 0.000000
-28.562741 -3.578236 0.000000
-44.564484 13.380242 0.000000
-39.190532 10.015053 0.000000
-33.906011 6.616161 0.000000
-50.000000 23.333576 0.000000
-44.558101 20.138095 0.000000
-50.000000 30.000239 0.000000
36.666594 -50.000000 0.000000
43.333283 -50.000000 0.000000
26.663026 -44.745287 0.000000
33.315121 -44.875906 0.000000
16.631608 -39.357764 0.000000
23.328170 -39.437129 0.000000
6.642670 -33.879444 0.000000
13.290859 -33.965583 0.000000
-3.345631 -28.362113 0.000000
3.356696 -28.451062 0.000000
-6.626029 -22.845454 0.000000
-9.971683 -17.313298 0.000000
-23.185095 -7.014435 0.000000
-17.808469 -10.333495 0.000000
-12.836472 -12.585679 0.000000
-28.607248 3.088733 0.000000
-23.263797 -0.467535 0.000000
-39.039646 16.746726 0.000000
-28.721659 9.926898 0.000000
-33.762246 13.318876 0.000000
-44.521995 26.716826 0.000000
-38.468353 23.892716 0.000000
-44.632394 33.085411 0.000000
-50.000000 36.666838 0.000000
-50.000000 43.333423 0.000000
39.922213 -45.069546 0.000000
45.474518 -45.660406 0.000000
50.000000 -50.000000 0.000000
36.626634 -39.981986 0.000000
30.012202 -39.458622 0.000000
19.904308 -34.092883 0.000000
26.585044 -34.319578 0.000000
9.988927 -28.513720 0.000000
16.611313 -28.659986 0.000000
0.052384 -22.957999 0.000000
6.812391 -23.158600 0.000000
-3.401389 -17.296653 0.000000
-6.872135 -11.039053 0.000000
-17.877988 -3.830155 0.000000
-12.551593 -7.034503 0.000000
-23.310697 6.074531 0.000000
-18.037953 2.457666 0.000000
-23.121862 12.095908 0.000000
-33.572722 19.789397 0.000000
-27.941655 16.885667 0.000000
-33.293324 24.722895 0.000000
-39.473827 30.052716 0.000000
-35.160854 28.137816 0.000000
-39.816257 35.101338 0.000000
-43.991870 39.981947 0.000000
-45.431189 45.684968 0.000000
-50.000000 50.000000 0.000000
44.117075 -39.898999 0.000000
50.000000 -43.333431 0.000000
39.639243 -35.047494 0.000000
33.462807 -33.424651 0.000000
22.985074 -28.818086 0.000000
28.731083 -29.247990 0.000000
13.461140 -23.121941 0.000000
20.055251 -23.438802 0.000000
3.391181 -17.586005 0.000000
10.128634 -17.839718 0.000000
0.139571 -12.029093 0.000000
-2.155152 -6.278434 0.000000
-7.424901 -3.716098 0.000000
-12.645989 -0.802084 0.000000
-18.160744 8.573396 0.000000
-12.968618 5.196648 0.000000
-18.639840 13.752702 0.000000
-21.505227 17.495800 0.000000
-28.941352 23.158686 0.000000
-24.346769 21.555377 0.000000
-30.324138 28.635178 0.000000
-34.254023 33.375797 0.000000
-36.956534 39.578162 0.000000
-39.839219 45.102655 0.000000
-43.333812 50.000000 0.000000
44.585087 -32.972221 0.000000
50.000000 -36.666865 0.000000
39.129245 -29.582010 0.000000
33.500663 -26.367926 0.000000
27.183020 -23.322468 0.000000
23.066120 -18.647936 0.000000
16.989550 -16.979239 0.000000
6.715090 -12.220099 0.000000
12.351138 -12.731818 0.000000
-3.375789 -1.491872 0.000000
3.958152 -7.052013 0.000000
1.030012 -2.122353 0.000000
-7.029429 2.332209 0.000000
-8.457510 7.846108 0.000000
-12.848160 11.934223 0.000000
-15.693590 17.701206 0.000000
-19.287767 22.983732 0.000000
-24.171834 27.355681 0.000000
-27.287300 33.626745 0.000000
-30.407579 39.161678 0.000000
-33.448612 44.738971 0.000000
-36.667612 50.000000 0.000000
44.547712 -26.500095 0.000000
50.000000 -30.000272 0.000000
39.040162 -23.179598 0.000000
33.450245 -19.900355 0.000000
28.040883 -16.574869 0.000000
22.685128 -13.124408 0.000000
17.178141 -9.911093 0.000000
10.958272 -6.653152 0.000000
-1.346766 2.313310 0.000000
6.236951 -1.740417 0.000000
2.913561 1.609377 0.000000
-3.556437 7.212618 0.000000
-6.313767 12.447622 0.000000
-9.629975 17.700817 0.000000
-13.167173 23.112462 0.000000
-17.317243 28.185929 0.000000
-20.571511 33.475247 0.000000
-23.666894 39.064600 0.000000
-26.831785 44.585636 0.000000
-30.001295 50.000000 0.000000
44.528832 -19.930837 0.000000
50.000000 -23.333645 0.000000
39.036764 -16.594390 0.000000
33.577137 -13.281464 0.000000
28.152066 -9.964817 0.000000
22.727590 -6.604094 0.000000
17.266359 -3.336939 0.000000
12.039629 0.189672 0.000000
1.937365 6.320002 0.000000
7.065159 3.861383 0.000000
-0.212248 12.004022 0.000000
-3.273236 17.530879 0.000000
-6.701981 22.979419 0.000000
-10.568799 28.268441 0.000000
-13.724614 33.662509 0.000000
-16.946496 39.081197 0.000000
-20.141378 44.548886 0.000000
-23.334773 50.000000 0.000000
44.536583 -13.303904 0.000000
50.000000 -16.666987 0.000000
39.080546 -9.966847 0.000000
33.647731 -6.640848 0.000000
28.236961 -3.306854 0.000000
22.846995 0.019366 0.000000
17.535178 3.365457 0.000000
12.220790 6.601209 0.000000
6.737375 10.878438 0.000000
3.301246 17.197078 0.000000
-0.082025 22.851813 0.000000
-3.518618 28.313445 0.000000
-6.831604 33.775170 0.000000
-10.137837 39.171398 0.000000
-13.436293 44.564097 0.000000
-16.667980 50.000000 0.000000
44.554792 -6.654904 0.000000
50.000000 -10.000294 0.000000
39.124186 -3.321359 0.000000
33.714442 0.009016 0.000000
28.334353 3.344432 0.000000
23.003765 6.694840 0.000000
17.833410 10.025626 0.000000
12.656359 12.225400 0.000000
9.793630 17.237807 0.000000
6.477596 22.724129 0.000000
3.188499 28.270489 0.000000
-0.115914 33.735667 0.000000
-3.425367 39.169427 0.000000
-6.725709 44.582437 0.000000
-10.000924 50.000000 0.000000
44.576151 0.001777 0.000000
50.000000 -3.333561 0.000000
39.167606 3.332025 0.000000
33.780183 6.656056 0.000000
28.425390 9.996084 0.000000
23.047581 13.417888 0.000000
16.948849 17.023268 0.000000
12.902612 22.673261 0.000000
9.815078 28.233740 0.000000
6.604504 33.719826 0.000000
3.286749 39.165368 0.000000
-0.029863 44.585223 0.000000
-3.333677 50.000000 0.000000
44.587203 6.665399 0.000000
50.000000 3.333216 0.000000
39.198764 9.982144 0.000000
33.844335 13.277782 0.000000
28.542780 16.586006 0.000000
23.387610 20.085677 0.000000
18.532753 23.113131 0.000000
16.394569 28.300110 0.000000
13.329735 33.755950 0.000000
9.987134 39.182917 0.000000
6.666329 44.585025 0.000000
3.333646 50.000000 0.000000
44.609332 13.317818 0.000000
50.000000 10.000028 0.000000
39.252081 16.612712 0.000000
33.932777 19.863531 0.000000
28.613310 22.926975 0.000000
23.280799 27.208536 0.000000
19.902416 33.304270 0.000000
16.574658 39.041895 0.000000
13.268984 44.527381 0.000000
10.000921 50.000000 0.000000
44.632479 19.972919 0.000000
50.000000 16.666840 0.000000
39.299182 23.262381 0.000000
34.044707 26.515256 0.000000
28.966804 28.540285 0.000000
26.203463 33.410915 0.000000
23.067783 38.969554 0.000000
19.889469 44.507528 0.000000
16.668016 50.000000 0.000000
44.640131 26.642892 0.000000
50.000000 23.333604 0.000000
39.293984 29.966877 0.000000
33.213274 33.371682 0.000000
29.413073 39.046277 0.000000
26.423340 44.506256 0.000000
23.334838 50.000000 0.000000
44.775221 33.291783 0.000000
50.000000 30.000285 0.000000
39.738737 36.596403 0.000000
34.831806 39.525756 0.000000
32.834642 44.514348 0.000000
30.001373 50.000000 0.000000
44.978444 39.877796 0.000000
50.000000 36.666886 0.000000
39.735298 43.968962 0.000000
36.667687 50.000000 0.000000
45.621421 45.409656 0.000000
50.000000 43.333439 0.000000
43.333871 50.000000 0.000000
50.000000 50.000000 0.000000
CELLS 578 2312
3 1 0 2
3 0 3 2
3 4 1 6
3 6 1 2
3 3 5 7
3 3 7 2
3 6 2 7
3 9 4 10
3 10 4 6
3 5 8 11
3 7 5 11
3 10 6 12
3 12 6 7
3 7 11 13
3 7 13 12
3 8 14 15
3 11 8 15
3 16 9 17
3 17 9 10
3 17 10 18
3 18 10 12
3 11 15 19
3 13 11 19
3 18 12 20
3 13 19 20
3 20 12 13
3 14 22 24
3 15 14 24
3 15 24 25
3 19 15 25
3 21 16 26
3 26 16 17
3 26 17 27
3 27 17 18
3 27 18 28
3 28 18 20
3 19 25 29
3 19 29 20
3 28 20 30
3 30 20 29
3 31 21 32
3 32 21 26
3 22 23 36
3 24 22 36
3 23 34 37
3 36 23 37
3 24 36 38
3 25 24 38
3 25 38 39
3 29 25 39
3 32 26 40
3 40 26 27
3 40 27 41
3 41 27 28
3 41 28 42
3 42 28 30
3 29 39 43
3 29 43 30
3 42 30 43
3 33 31 44
3 44 31 32
3 44 32 45
3 45 32 40
3 46 33 47
3 47 33 44
3 34 35 50
3 37 34 50
3 35 48 51
3 50 35 51
3 36 37 52
3 38 36 52
3 37 50 53
3 52 37 53
3 38 52 54
3 39 38 54
3 39 54 55
3 43 39 55
3 45 40 56
3 56 40 41
3 56 41 57
3 57 41 42
3 57 42 58
3 58 42 43
3 43 55 59
3 43 59 58
3 47 44 60
3 60 44 45
3 60 45 61
3 61 45 56
3 62 46 63
3 63 46 47
3 63 47 64
3 64 47 60
3 48 49 68
3 51 48 68
3 49 66 69
3 68 49 69
3 50 51 70
3 53 50 70
3 51 68 71
3 70 51 71
3 52 53 72
3 54 52 72
3 53 70 73
3 72 53 73
3 54 72 74
3 55 54 74
3 55 74 75
3 59 55 75
3 61 56 76
3 76 56 57
3 76 57 77
3 77 57 58
3 77 58 78
3 59 75 78
3 78 58 59
3 64 60 79
3 79 60 61
3 79 61 80
3 80 61 76
3 65 62 81
3 81 62 63
3 81 63 82
3 82 63 64
3 82 64 83
3 83 64 79
3 84 65 85
3 85 65 81
3 66 67 89
3 69 66 89
3 67 87 90
3 89 67 90
3 68 69 91
3 71 68 91
3 69 89 92
3 91 69 92
3 70 71 93
3 73 70 93
3 71 91 94
3 93 71 94
3 72 73 95
3 74 72 95
3 73 93 96
3 95 73 96
3 74 95 97
3 75 74 97
3 75 97 98
3 78 75 98
3 80 76 99
3 99 76 77
3 99 77 100
3 100 77 78
3 100 78 101
3 98 101 78
3 83 79 102
3 102 79 80
3 102 80 103
3 103 80 99
3 85 81 104
3 104 81 82
3 105 83 102
3 104 82 106
3 106 82 83
3 106 83 105
3 86 84 107
3 107 84 85
3 107 85 108
3 108 85 104
3 109 86 107
3 110 86 109
3 87 88 112
3 90 87 112
3 112 88 113
3 88 114 113
3 90 112 115
3 89 90 116
3 92 89 116
3 116 90 115
3 91 92 117
3 94 91 117
3 92 116 118
3 117 92 118
3 93 94 119
3 96 93 119
3 94 117 120
3 119 94 120
3 95 96 121
3 97 95 121
3 96 119 122
3 121 96 122
3 97 121 123
3 98 97 123
3 98 123 124
3 98 124 101
3 103 99 125
3 125 99 100
3 125 100 126
3 126 100 101
3 126 101 124
3 105 102 127
3 127 102 103
3 127 103 128
3 128 103 125
3 129 105 127
3 108 104 130
3 130 104 106
3 130 106 131
3 131 106 105
3 131 105 129
3 108 130 132
3 109 107 133
3 133 107 108
3 133 108 134
3 108 132 134
3 135 109 133
3 111 110 136
3 136 110 109
3 136 109 135
3 137 111 136
3 138 111 137
3 112 113 139
3 115 112 139
3 114 140 113
3 140 139 113
3 139 141 115
3 116 115 142
3 118 116 142
3 142 115 141
3 117 118 143
3 120 117 143
3 118 142 144
3 143 118 144
3 119 120 145
3 122 119 145
3 120 143 146
3 145 120 146
3 121 122 147
3 123 121 147
3 122 145 148
3 147 122 148
3 123 147 149
3 124 123 149
3 124 149 150
3 151 126 124
3 124 150 151
3 128 125 152
3 152 125 126
3 152 126 151
3 129 127 153
3 153 127 128
3 128 152 154
3 153 128 154
3 155 129 153
3 131 129 156
3 156 129 155
3 132 130 157
3 130 131 157
3 157 131 158
3 131 156 158
3 132 157 159
3 132 159 134
3 135 133 160
3 160 133 134
3 160 134 159
3 136 135 161
3 135 160 161
3 162 137 136
3 161 162 136
3 163 138 137
3 162 163 137
3 139 164 141
3 140 165 139
3 139 165 164
3 141 164 166
3 141 166 142
3 166 167 142
3 144 142 167
3 167 168 144
3 143 144 168
3 146 143 168
3 168 169 146
3 145 146 170
3 148 145 170
3 170 146 169
3 147 148 171
3 149 147 171
3 148 170 172
3 171 148 172
3 173 151 150
3 149 171 174
3 150 149 174
3 150 174 175
3 150 175 173
3 154 152 176
3 152 151 176
3 176 151 173
3 154 176 177
3 155 153 178
3 177 178 154
3 154 178 153
3 156 155 179
3 155 178 179
3 180 158 156
3 179 180 156
3 181 159 157
3 180 181 158
3 181 157 158
3 182 160 159
3 181 182 159
3 183 161 160
3 182 183 160
3 184 162 161
3 184 161 183
3 185 163 162
3 184 185 162
3 164 186 166
3 165 187 164
3 164 187 186
3 166 186 188
3 166 188 167
3 167 188 189
3 167 189 168
3 168 189 190
3 168 190 169
3 169 190 191
3 169 191 170
3 192 172 170
3 170 191 192
3 192 193 172
3 171 172 193
3 174 171 193
3 194 173 175
3 176 173 194
3 175 174 195
3 193 195 174
3 195 196 175
3 175 196 194
3 197 177 176
3 194 197 176
3 198 178 177
3 197 198 177
3 199 179 178
3 198 199 178
3 200 180 179
3 199 200 179
3 201 181 180
3 200 201 180
3 202 182 181
3 201 202 181
3 203 183 182
3 202 203 182
3 204 184 183
3 203 204 183
3 205 185 184
3 204 205 184
3 186 206 188
3 187 207 186
3 186 207 206
3 188 206 208
3 188 208 189
3 189 208 209
3 189 209 190
3 190 209 210
3 190 210 191
3 191 210 211
3 191 211 192
3 192 211 212
3 192 212 193
3 193 212 213
3 193 213 195
3 214 197 194
3 214 194 196
3 195 213 215
3 195 215 196
3 196 215 214
3 216 198 197
3 214 216 197
3 217 199 198
3 216 217 198
3 218 200 199
3 217 218 199
3 219 201 200
3 218 219 200
3 220 202 201
3 219 220 201
3 221 203 202
3 220 221 202
3 222 204 203
3 221 222 203
3 223 205 204
3 222 223 204
3 206 224 208
3 207 225 206
3 206 225 224
3 208 224 226
3 208 226 209
3 209 226 227
3 209 227 210
3 210 227 228
3 210 228 211
3 211 228 229
3 211 229 212
3 212 229 230
3 212 230 213
3 213 230 231
3 213 231 215
3 232 216 214
3 215 231 232
3 232 214 215
3 233 217 216
3 232 233 216
3 234 218 217
3 233 234 217
3 235 219 218
3 234 235 218
3 236 220 219
3 235 236 219
3 237 221 220
3 236 237 220
3 238 222 221
3 237 238 221
3 239 223 222
3 238 239 222
3 224 240 226
3 225 241 224
3 224 241 240
3 226 240 242
3 226 242 227
3 227 242 243
3 227 243 228
3 228 243 244
3 228 244 229
3 244 245 229
3 229 245 230
3 230 245 246
3 230 246 231
3 231 246 247
3 231 247 232
3 248 233 232
3 248 232 247
3 249 234 233
3 248 249 233
3 250 235 234
3 249 250 234
3 251 236 235
3 250 251 235
3 252 237 236
3 251 252 236
3 253 238 237
3 252 253 237
3 254 239 238
3 253 254 238
3 240 255 242
3 241 256 240
3 240 256 255
3 242 255 257
3 242 257 243
3 243 257 258
3 243 258 244
3 244 258 259
3 244 259 245
3 245 259 260
3 245 260 246
3 246 260 261
3 246 261 247
3 248 247 261
3 262 249 248
3 261 262 248
3 263 250 249
3 262 263 249
3 264 251 250
3 263 264 250
3 265 252 251
3 264 265 251
3 266 253 252
3 265 266 252
3 267 254 253
3 266 267 253
3 255 268 257
3 256 269 255
3 255 269 268
3 257 268 270
3 257 270 258
3 258 270 271
3 258 271 259
3 259 271 272
3 259 272 260
3 260 272 273
3 260 273 261
3 274 262 261
3 261 273 274
3 275 263 262
3 274 275 262
3 276 264 263
3 275 276 263
3 277 265 264
3 276 277 264
3 278 266 265
3 277 278 265
3 279 267 266
3 278 279 266
3 268 280 270
3 269 281 268
3 268 281 280
3 270 280 282
3 270 282 271
3 271 282 283
3 271 283 272
3 283 284 272
3 272 284 273
3 285 275 274
3 273 284 285
3 285 274 273
3 286 276 275
3 285 286 275
3 287 277 276
3 286 287 276
3 288 278 277
3 287 288 277
3 289 279 278
3 288 289 278
3 280 290 282
3 281 291 280
3 280 291 290
3 282 290 292
3 282 292 283
3 283 292 293
3 283 293 284
3 284 293 294
3 284 294 285
3 295 286 285
3 295 285 294
3 296 287 286
3 295 296 286
3 297 288 287
3 296 297 287
3 298 289 288
3 297 298 288
3 290 299 292
3 291 300 290
3 290 300 299
3 292 299 301
3 292 301 293
3 293 301 302
3 293 302 294
3 294 302 295
3 303 296 295
3 303 295 302
3 304 297 296
3 303 304 296
3 305 298 297
3 304 305 297
3 299 306 301
3 300 307 299
3 299 307 306
3 301 306 308
3 301 308 302
3 309 303 302
3 302 308 309
3 310 304 303
3 309 310 303
3 311 305 304
3 310 311 304
3 306 312 308
3 307 313 306
3 306 313 312
3 314 310 309
3 308 312 314
3 314 309 308
3 315 311 310
3 314 315 310
3 312 316 314
3 313 317 312
3 312 317 316
3 318 315 314
3 318 314 316
3 317 319 316
3 319 318 316
CELL_TYPES 578
5
5
5
5
5
5
5
5
5
5
5
5
5
5
5
5
5
5
5
5
5
5
5
5
5
5
5
5
5
5
5
5
5
5
5
5
5
5
5
5
5
5
5
5
5
5
5
5
5
5
5
5
5
5
5
5
5
5
5
5
5
5
5
5
5
5
5
5
5
5
5
5
5
5
5
5
5
5
5
5
5
5
5
5
5
5
5
5
5
5
5
5
5
5
5
5
5
5
5
5
5
5
5
5
5
5
5
5
5
5
5
5
5
5
5
5
5
5
5
5
5
5
5
5
5
5
5
5
5
5
5
5
5
5
5
5
5
5
5
5
5
5
5
5
5
5
5
5
5
5
5
5
5
5
5
5
5
5
5
5
5
5
5
5
5
5
5
5
5
5
5
5
5
5
5
5
5
5
5
5
5
5
5
5
5
5
5
5
5
5
5
5
5
5
5
5
5
5
5
5
5
5
5
5
5
5
5
5
5
5
5
5
5
5
5
5
5
5
5
5
5
5
5
5
5
5
5
5
5
5
5
5
5
5
5
5
5
5
5
5
5
5
5
5
5
5
5
5
5
5
5
5
5
5
5
5
5
5
5
5
5
5
5
5
5
5
5
5
5
5
5
5
5
5
5
5
5
5
5
5
5
5
5
5
5
5
5
5
5
5
5
5
5
5
5
5
5
5
5
5
5
5
5
5
5
5
5
5
5
5
5
5
5
5
5
5
5
5
5
5
5
5
5
5
5
5
5
5
5
5
5
5
5
5
5
5
5
5
5
5
5
5
5
5
5
5
5
5
5
5
5
5
5
5
5
5
5
5
5
5
5
5
5
5
5
5
5
5
5
5
5
5
5
5
5
5
5
5
5
5
5
5
5
5
5
5
5
5
5
5
5
5
5
5
5
5
5
5
5
5
5
5
5
5
5
5
5
5
5
5
5
5
5
5
5
5
5
5
5
5
5
5
5
5
5
5
5
5
5
5
5
5
5
5
5
5
5
5
5
5
5
5
5
5
5
5
5
5
5
5
5
5
5
5
5
5
5
5
5
5
5
5
5
5
5
5
5
5
5
5
5
5
5
5
5
5
5
5
5
5
5
5
5
5
5
5
5
5
5
5
5
5
5
5
5
5
5
5
5
5
5
5
5
5
5
5
5
5
5
5
5
5
5
5
5
5
5
5
5
5
5
5
5
5
5
5
5
5
5
5
5
5
5
5
5
5
5
5
5
5
5
5
5
5
5
5
5
5
5
5
5
5
5
5
5
5
5
5
5
5
5
5
5
5
5
5
5
5
5
5
5
5
5
5
5
5
5
5
POINT_DATA 320
SCALARS theta_e float 1
LOOKUP_TABLE default
0.999990
0.999990
0.999990
0.999988
0.999995
0.999991
0.999992
0.999991
1.000002
1.000005
1.000001
0.999999
1.000000
1.000000
1.000018
1.000012
1.000016
1.000013
1.000011
1.000010
1.000010
1.000022
1.000030
1.000032
1.000025
1.000018
1.000024
1.000025
1.000021
1.000015
1.000016
1.000021
1.000030
1.000011
1.000026
1.000016
1.000031
1.000028
1.000025
1.000018
1.000039
1.000035
1.000024
1.000016
1.000029
1.000050
0.999997
1.000021
1.000006
0.999996
1.000020
1.000011
1.000028
1.000026
1.000025
1.000017
1.000050
1.000030
1.000010
1.000005
1.000054
1.000061
0.999978
1.000005
1.000049
0.999956
0.999987
0.999981
1.000000
0.999989
1.000021
1.000011
1.000034
1.000039
1.000028
1.000012
1.000032
1.000000
0.999998
1.000065
1.000034
0.999983
1.000031
1.000060
0.999936
0.999957
0.999925
0.999982
0.999987
0.999980
0.999978
0.999995
0.999979
1.000034
1.000018
1.000043
1.000050
1.000028
1.000029
0.999999
1.000023
1.000048
1.000037
0.999996
1.000005
1.000038
1.000049
0.999938
0.999973
0.999931
0.999927
0.999938
0.999981
0.999988
0.999992
0.999972
0.999970
0.999994
0.999972
1.000044
1.000025
1.000039
1.000039
1.000048
0.999920
1.000015
0.999922
0.999997
0.999978
1.000004
1.000015
1.000039
1.000012
0.999929
0.999979
0.999933
0.999929
0.999940
0.999944
0.999981
0.999988
0.999970
0.999963
0.999996
0.999972
1.000034
1.000023
1.000028
1.000005
0.999969
1.000022
1.000058
0.999956
0.999955
1.000008
0.999972
1.000004
1.000021
1.000038
1.000000
0.999942
0.999929
0.999929
0.999936
0.999976
0.999983
0.999965
0.999969
0.999999
1.000023
1.000014
1.000069
1.000030
1.000207
1.000147
1.000109
1.000308
1.000034
0.999930
0.999981
1.000015
1.000027
0.999983
0.999943
0.999925
0.999925
0.999972
0.999978
0.999969
0.999988
1.000017
1.000016
1.000027
1.000052
1.000663
1.000092
1.000634
1.000332
0.999860
0.999969
1.000005
1.000037
1.000021
0.999972
0.999935
0.999923
0.999969
0.999972
0.999979
1.000008
1.000023
1.000007
1.000028
0.999963
1.000405
0.999987
0.999851
0.999978
1.000002
1.000034
1.000048
1.000008
0.999959
0.999936
0.999967
0.999966
0.999988
1.000018
1.000018
0.999996
1.000007
0.999899
0.999859
0.999990
1.000003
1.000027
1.000059
1.000036
0.999986
0.999958
0.999963
0.999958
0.999990
1.000016
1.000007
0.999988
0.999993
0.999976
0.999979
0.999997
1.000021
1.000058
1.000048
1.000005
0.999978
0.999958
0.999950
0.999985
1.000004
0.999996
0.999981
0.999979
0.999987
1.000016
1.000048
1.000044
1.000009
0.999988
0.999951
0.999943
0.999973
0.999988
0.999987
0.999982
0.999987
1.000008
1.000029
1.000026
0.999999
0.999985
0.999941
0.999936
0.999956
0.999969
0.999979
0.999991
0.999999
0.999995
0.999977
0.999970
0.999930
0.999927
0.999939
0.999951
0.999966
0.999965
0.999960
0.999949
0.999948
0.999920
0.999919
0.999925
0.999935
0.999933
0.999927
0.999926
0.999918
0.999916
0.999919
0.999920
0.999918
0.999915
0.999922
0.999920
0.999921
0.999918
0.999930
0.999929
0.999928
0.999935
VECTORS fa_u float
0.000000 0.000000 0.000000
0.000000 0.000000 0.000000
0.000000 0.000000 0.000000
0.000000 0.000000 0.000000
0.000000 0.000000 0.000000
0.000000 0.000000 0.000000
0.000000 0.000000 0.000000
0.000000 0.000000 0.000000
0.000000 0.000000 0.000000
0.000000 0.000000 0.000000
0.000000 0.000000 0.000000
0.000000 0.000000 0.000000
0.000000 0.000000 0.000000
0.000000 0.000000 0.000000
0.000000 0.000000 0.000000
0.000000 0.000000 0.000000
0.000000 0.000000 0.000000
0.000000 0.000000 0.000000
0.000000 0.000000 0.000000
0.000000 0.000000 0.000000
0.000000 0.000000 0.000000
0.000000 0.000000 0.000000
0.000000 0.000000 0.000000
0.000000 0.000000 0.000000
0.000000 0.000000 0.000000
0.000000 0.000000 0.000000
0.000000 0.000000 0.000000
0.000000 0.000000 0.000000
0.000000 0.000000 0.000000
0.000000 0.000000 0.000000
0.000000 0.000000 0.000000
0.000000 0.000000 0.000000
0.000000 0.000000 0.000000
0.000000 0.000000 0.000000
0.000000 0.000000 0.000000
0.000000 0.000000 0.000000
0.000000 0.000000 0.000000
0.000000 0.000000 0.000000
0.000000 0.000000 0.000000
0.000000 0.000000 0.000000
0.000000 0.000000 0.000000
0.000000 0.000000 0.000000
0.000000 0.000000 0.000000
0.000000 0.000000 0.000000
0.000000 0.000000 0.000000
0.000000 0.000000 0.000000
0.000000 0.000000 0.000000
0.000000 0.000000 0.000000
0.000000 0.000000 0.000000
0.000000 0.000000 0.000000
0.000000 0.000000 0.000000
0.000000 0.000000 0.000000
0.000000 0.000000 0.000000
0.000000 0.000000 0.000000
0.000000 0.000000 0.000000
0.000000 0.000000 0.000000
0.000000 0.000000 0.000000
0.000000 0.000000 0.000000
0.000000 0.000000 0.000000
0.000000 0.000000 0.000000
0.000000 0.000000 0.000000
0.000000 0.000000 0.000000
0.000000 0.000000 0.000000
0.000000 0.000000 0.000000
0.000000 0.000000 0.000000
0.000000 0.000000 0.000000
0.000000 0.000000 0.000000
0.000000 0.000000 0.000000
0.000000 0.000000 0.000000
0.000000 0.000000 0.000000
0.000000 0.000000 0.000000
0.000000 0.000000 0.000000
0.000000 0.000000 0.000000
0.000000 0.000000 0.000000
0.000000 0.000000 0.000000
0.000000 0.000000 0.000000
0.000000 0.000000 0.000000
0.000000 0.000000 0.000000
0.000000 0.000000 0.000000
0.000000 0.000000 0.000000
0.000000 0.000000 0.000000
0.000000 0.000000 0.000000
0.000000 0.000000 0.000000
0.000000 0.000000 0.000000
0.000000 0.000000 0.000000
0.000000 0.000000 0.000000
0.000000 0.000000 0.000000
0.000000 0.000000 0.000000
0.000000 0.000000 0.000000
0.000000 0.000000 0.000000
0.000000 0.000000 0.000000
0.000000 0.000000 0.000000
0.000000 0.000000 0.000000
0.000000 0.000000 0.000000
0.000000 0.000000 0.000000
0.000000 0.000000 0.000000
0.000000 0.000000 0.000000
0.000000 0.000000 0.000000
0.000000 0.000000 0.000000
0.000000 0.000000 0.000000
0.000000 0.000000 0.000000
0.000000 0.000000 0.000000
0.000000 0.000000 0.000000
0.000000 0.000000 0.000000
0.000000 0.000000 0.000000
0.000000 0.000000 0.000000
0.000000 0.000000 0.000000
0.000000 0.000000 0.000000
0.000000 0.000000 0.000000
0.000000 0.000000 0.000000
0.000000 0.000000 0.000000
0.000000 0.000000 0.000000
0.000000 0.000000 0.000000
0.000000 0.000000 0.000000
0.000000 0.000000 0.000000
0.000000 0.000000 0.000000
0.000000 0.000000 0.000000
0.000000 0.000000 0.000000
0.000000 0.000000 0.000000
0.000000 0.000000 0.000000
0.000000 0.000000 0.000000
0.000000 0.000000 0.000000
0.000000 0.000000 0.000000
0.000000 0.000000 0.000000
0.000000 0.000000 0.000000
0.000000 0.000000 0.000000
0.000000 0.000000 0.000000
0.000000 0.000000 0.000000
0.000000 0.000000 0.000000
0.000000 0.000000 0.000000
0.000000 0.000000 0.000000
0.000000 0.000000 0.000000
0.000000 0.000000 0.000000
0.000000 0.000000 0.000000
0.000000 0.000000 0.000000
0.000000 0.000000 0.000000
0.000000 0.000000 0.000000
0.000000 0.000000 0.000000
0.000000 0.000000 0.000000
0.000000 0.000000 0.000000
0.000000 0.000000 0.000000
0.000000 0.000000 0.000000
0.000000 0.000000 0.000000
0.000000 0.000000 0.000000
0.000000 0.000000 0.000000
0.000000 0.000000 0.000000
0.000000 0.000000 0.000000
0.000000 0.000000 0.000000
0.000000 0.000000 0.000000
0.000000 0.000000 0.000000
0.000000 0.000000 0.000000
0.000000 0.000000 0.000000
0.000000 0.000000 0.000000
0.000000 0.000000 0.000000
0.000000 0.000000 0.000000
0.000000 0.000000 0.000000
0.000000 0.000000 0.000000
0.000000 0.000000 0.000000
0.000000 0.000000 0.000000
0.000000 0.000000 0.000000
0.000000 0.000000 0.000000
0.000000 0.000000 0.000000
0.000000 0.000000 0.000000
0.000000 0.000000 0.000000
0.000000 0.000000 0.000000
0.000000 0.000000 0.000000
0.000000 0.000000 0.000000
0.000000 0.000000 0.000000
0.000000 0.000000 0.000000
0.000000 0.000000 0.000000
0.000000 0.000000 0.000000
0.000000 0.000000 0.000000
0.000000 0.000000 0.000000
0.000000 0.000000 0.000000
0.000000 0.000000 0.000000
0.000000 0.000000 0.000000
0.000000 0.000000 0.000000
0.000000 0.000000 0.000000
0.000000 0.000000 0.000000
0.000000 0.000000 0.000000
0.000000 0.000000 0.000000
0.000000 0.000000 0.000000
0.000000 0.000000 0.000000
0.000000 0.000000 0.000000
0.000000 0.000000 0.000000
0.000000 0.000000 0.000000
0.000000 0.000000 0.000000
0.000000 0.000000 0.000000
0.000000 0.000000 0.000000
0.000000 0.000000 0.000000
0.000000 0.000000 0.000000
0.000000 0.000000 0.000000
0.000000 0.000000 0.000000
0.000000 0.000000 0.000000
0.000000 0.000000 0.000000
0.000000 0.000000 0.000000
0.000000 0.000000 0.000000
0.000000 0.000000 0.000000
0.000000 0.000000 0.000000
0.000000 0.000000 0.000000
0.000000 0.000000 0.000000
0.000000 0.000000 0.000000
0.000000 0.000000 0.000000
0.000000 0.000000 0.000000
0.000000 0.000000 0.000000
0.000000 0.000000 0.000000
0.000000 0.000000 0.000000
0.000000 0.000000 0.000000
0.000000 0.000000 0.000000
0.000000 0.000000 0.000000
0.000000 0.000000 0.000000
0.000000 0.000000 0.000000
0.000000 0.000000 0.000000
0.000000 0.000000 0.000000
0.000000 0.000000 0.000000
0.000000 0.000000 0.000000
0.000000 0.000000 0.000000
0.000000 0.000000 0.000000
0.000000 0.000000 0.000000
0.000000 0.000000 0.000000
0.000000 0.000000 0.000000
0.000000 0.000000 0.000000
0.000000 0.000000 0.000000
0.000000 0.000000 0.000000
0.000000 0.000000 0.000000
0.000000 0.000000 0.000000
0.000000 0.000000 0.000000
0.000000 0.000000 0.000000
0.000000 0.000000 0.000000
0.000000 0.000000 0.000000
0.000000 0.000000 0.000000
0.000000 0.000000 0.000000
0.000000 0.000000 0.000000
0.000000 0.000000 0.000000
0.000000 0.000000 0.000000
0.000000 0.000000 0.000000
0.000000 0.000000 0.000000
0.000000 0.000000 0.000000
0.000000 0.000000 0.000000
0.000000 0.000000 0.000000
0.000000 0.000000 0.000000
0.000000 0.000000 0.000000
0.000000 0.000000 0.000000
0.000000 0.000000 0.000000
0.000000 0.000000 0.000000
0.000000 0.000000 0.000000
0.000000 0.000000 0.000000
0.000000 0.000000 0.000000
0.000000 0.000000 0.000000
0.000000 0.000000 0.000000
0.000000 0.000000 0.000000
0.000000 0.000000 0.000000
0.000000 0.000000 0.000000
0.000000 0.000000 0.000000
0.000000 0.000000 0.000000
0.000000 0.000000 0.000000
0.000000 0.000000 0.000000
0.000000 0.000000 0.000000
0.000000 0.000000 0.000000
0.000000 0.000000 0.000000
0.000000 0.000000 0.000000
0.000000 0.000000 0.000000
0.000000 0.000000 0.000000
0.000000 0.000000 0.000000
0.000000 0.000000 0.000000
0.000000 0.000000 0.000000
0.000000 0.000000 0.000000
0.000000 0.000000 0.000000
0.000000 0.000000 0.000000
0.000000 0.000000 0.000000
0.000000 0.000000 0.000000
0.000000 0.000000 0.000000
0.000000 0.000000 0.000000
0.000000 0.000000 0.000000
0.000000 0.000000 0.000000
0.000000 0.000000 0.000000
0.000000 0.000000 0.000000
0.000000 0.000000 0.000000
0.000000 0.000000 0.000000
0.000000 0.000000 0.000000
0.000000 0.000000 0.000000
0.000000 0.000000 0.000000
0.000000 0.000000 0.000000
0.000000 0.000000 0.000000
0.000000 0.000000 0.000000
0.000000 0.000000 0.000000
0.000000 0.000000 0.000000
0.000000 0.000000 0.000000
0.000000 0.000000 0.000000
0.000000 0.000000 0.000000
0.000000 0.000000 0.000000
0.000000 0.000000 0.000000
0.000000 0.000000 0.000000
0.000000 0.000000 0.000000
0.000000 0.000000 0.000000
0.000000 0.000000 0.000000
0.000000 0.000000 -50.000000
-50.000000 0.000000 -50.000000
-43.333448 0.000000 -45.688245
-45.491125 0.000000 -43.333296
-50.000000 0.000000 -50.000000
-36.666872 0.000000 -36.666609
-50.000000 0.000000 -45.080953
-39.969883 0.000000 -40.026968
-44.152238 0.000000 -29.999910
-50.000000 0.000000 -50.000000
-30.000247 0.000000 -44.846901
-33.449108 0.000000 -33.144749
-44.675573 0.000000 -39.868883
-36.787046 0.000000 -35.128395
-39.801193 0.000000 -23.333206
-50.000000 0.000000 -26.538985
-44.666611 0.000000 -50.000000
-23.333583 0.000000 -44.665123
-26.804134 0.000000 -39.363966
-30.225746 0.000000 -29.605979
-39.359153 0.000000 -33.367859
-33.655288 0.000000 -50.000000
-16.666894 0.000000 -16.666528
-50.000000 0.000000 -9.999901
