# vtk DataFile Version 2.0
CellBP Time: 0.6
ASCII
DATASET UNSTRUCTURED_GRID
POINTS 320 double
-50.000000 -50.000000 0.000000
-50.000000 -43.375474 0.000000
-45.668192 -45.519908 0.000000
-43.300295 -50.000000 0.000000
-50.000000 -36.758923 0.000000
-36.597208 -50.000000 0.000000
-45.057796 -40.038253 0.000000
-39.980089 -44.193119 0.000000
-29.886641 -50.000000 0.000000
-50.000000 -30.155153 0.000000
-44.821189 -33.575685 0.000000
-33.061795 -44.718735 0.000000
-39.819247 -36.888042 0.000000
-35.055517 -39.883005 0.000000
-23.172026 -50.000000 0.000000
-26.419465 -44.715005 0.000000
-50.000000 -23.562191 0.000000
-44.633710 -27.003574 0.000000
-39.305441 -30.395763 0.000000
-29.502437 -39.452580 0.000000
-33.280178 -33.801426 0.000000
-50.000000 -16.970692 0.000000
-16.456484 -50.000000 0.000000
-9.745044 -50.000000 0.000000
-19.807718 -44.642757 0.000000
-23.073798 -39.221179 0.000000
-44.654391 -20.377104 0.000000
-39.297391 -23.779321 0.000000
-34.007506 -27.161932 0.000000
-26.252661 -33.741117 0.000000
-29.029846 -29.141613 0.000000
-50.000000 -10.369885 0.000000
-44.622900 -13.766608 0.000000
-50.000000 -3.752012 0.000000
-3.042692 -50.000000 0.000000
3.645934 -50.000000 0.000000
-13.150002 -44.655938 0.000000
-6.458841 -44.668641 0.000000
-16.512205 -39.266700 0.000000
-19.933408 -33.522252 0.000000
-39.255458 -17.140434 0.000000
-33.901241 -20.587973 0.000000
-28.633638 -23.739502 0.000000
-23.339040 -27.604052 0.000000
-44.585815 -7.124908 0.000000
-39.196328 -10.516039 0.000000
-50.000000 2.891134 0.000000
-44.570950 -0.479237 0.000000
10.317545 -50.000000 0.000000
16.970802 -50.000000 0.000000
0.234156 -44.675368 0.000000
6.914845 -44.688620 0.000000
-9.826860 -39.339386 0.000000
-3.120853 -39.337262 0.000000
-13.271378 -33.979559 0.000000
-16.495037 -28.525024 0.000000
-33.807233 -13.920189 0.000000
-28.424342 -17.276815 0.000000
-23.087189 -20.668816 0.000000
-18.435724 -23.605167 0.000000
-39.154662 -3.875365 0.000000
-33.732867 -7.296106 0.000000
-50.000000 9.583885 0.000000
-44.552741 6.184600 0.000000
-39.131605 2.785884 0.000000
-50.000000 16.356045 0.000000
23.605882 -50.000000 0.000000
30.223767 -50.000000 0.000000
13.579641 -44.711866 0.000000
20.235243 -44.745034 0.000000
3.573937 -39.356888 0.000000
10.243441 -39.394003 0.000000
-6.487097 -33.973938 0.000000
0.239805 -34.005846 0.000000
-9.840641 -28.549284 0.000000
-12.857763 -23.230977 0.000000
-28.312309 -10.699194 0.000000
-22.811199 -14.119749 0.000000
-16.698687 -17.623474 0.000000
-33.672407 -0.666743 0.000000
-28.287760 -4.162427 0.000000
-44.512735 12.893044 0.000000
-39.062179 9.428194 0.000000
-33.635176 5.874122 0.000000
-50.000000 23.260818 0.000000
-44.568149 19.705021 0.000000
-50.000000 30.289372 0.000000
36.826208 -50.000000 0.000000
43.417872 -50.000000 0.000000
26.876376 -44.786737 0.000000
33.481252 -44.913824 0.000000
16.893074 -39.452600 0.000000
23.563028 -39.524230 0.000000
6.926116 -34.043720 0.000000
13.569637 -34.114355 0.000000
-3.060554 -28.609435 0.000000
3.657948 -28.682329 0.000000
-6.323708 -23.170154 0.000000
-9.647499 -17.718756 0.000000
-22.868670 -7.573034 0.000000
-17.469116 -10.846725 0.000000
-12.483370 -13.061044 0.000000
-28.247335 2.397602 0.000000
-22.868498 -1.129063 0.000000
-38.921193 16.139256 0.000000
-28.212400 9.105447 0.000000
-33.420002 12.299032 0.000000
-44.723706 26.493518 0.000000
-38.648710 23.511669 0.000000
-44.960886 33.315438 0.000000
-50.000000 37.301374 0.000000
-50.000000 43.751329 0.000000
40.028051 -45.105302 0.000000
45.520992 -45.690794 0.000000
50.000000 -50.000000 0.000000
36.763615 -40.056026 0.000000
30.204780 -39.540308 0.000000
20.161867 -34.227196 0.000000
26.805756 -34.441965 0.000000
10.290035 -28.722480 0.000000
16.895509 -28.845019 0.000000
0.378057 -23.261845 0.000000
7.141177 -23.430602 0.000000
-3.043935 -17.681099 0.000000
-6.468288 -11.514990 0.000000
-17.455800 -4.435314 0.000000
-12.123315 -7.576961 0.000000
-22.793023 5.309499 0.000000
-17.522482 1.765710 0.000000
-22.445664 11.253661 0.000000
-33.207212 18.347981 0.000000
-27.250439 15.934708 0.000000
-32.930441 23.695200 0.000000
-40.252649 30.428290 0.000000
-35.311838 28.837774 0.000000
-39.872261 35.426840 0.000000
-43.899235 40.131861 0.000000
-45.269862 45.752842 0.000000
-50.000000 50.000000 0.000000
44.179011 -39.970494 0.000000
50.000000 -43.398131 0.000000
39.747977 -35.152889 0.000000
33.631243 -33.545004 0.000000
23.237823 -28.985738 0.000000
28.943159 -29.400086 0.000000
13.776190 -23.362313 0.000000
20.339395 -23.648897 0.000000
3.756037 -17.926937 0.000000
10.480278 -18.134382 0.000000
0.546791 -12.443430 0.000000
-1.692232 -6.750517 0.000000
-6.929736 -4.250238 0.000000
-12.130200 -1.403128 0.000000
-17.518122 7.798897 0.000000
-12.373281 4.568883 0.000000
-17.791307 12.929234 0.000000
-20.566741 16.613294 0.000000
-27.892249 22.357067 0.000000
-23.178891 20.820861 0.000000
-29.612800 28.527548 0.000000
-34.066098 34.003045 0.000000
-36.814584 39.889153 0.000000
-39.604016 45.247978 0.000000
-43.316275 50.000000 0.000000
44.642269 -33.088267 0.000000
50.000000 -36.784711 0.000000
39.246865 -29.718665 0.000000
33.676087 -26.526649 0.000000
27.419048 -23.510621 0.000000
23.346745 -18.871149 0.000000
17.316274 -17.238706 0.000000
7.111657 -12.574088 0.000000
12.723753 -13.039165 0.000000
-2.861946 -1.988347 0.000000
4.405373 -7.458718 0.000000
1.541722 -2.567546 0.000000
-6.473568 1.787912 0.000000
-7.816123 7.276248 0.000000
-12.099327 11.317099 0.000000
-14.855326 17.119340 0.000000
-18.294082 22.546440 0.000000
-23.422860 27.060495 0.000000
-26.830280 33.516624 0.000000
-29.960259 39.267564 0.000000
-33.067218 44.815789 0.000000
-36.478340 50.000000 0.000000
44.608212 -26.646564 0.000000
50.000000 -30.163976 0.000000
39.163245 -23.343350 0.000000
33.636601 -20.084010 0.000000
28.287164 -16.785894 0.000000
22.991470 -13.369225 0.000000
17.541941 -10.197081 0.000000
11.380656 -6.994106 0.000000
-0.803232 1.836992 0.000000
6.740006 -2.128930 0.000000
3.453347 1.174933 0.000000
-2.949105 6.719366 0.000000
-5.641844 11.950968 0.000000
-8.887369 17.229037 0.000000
-12.359574 22.715245 0.000000
-16.617027 27.898593 0.000000
-20.040770 33.266187 0.000000
-23.195006 38.937921 0.000000
-26.368261 44.589551 0.000000
-29.663050 50.000000 0.000000
44.592437 -20.097160 0.000000
50.000000 -23.529455 0.000000
39.167412 -16.774557 0.000000
33.775886 -13.479338 0.000000
28.418949 -10.188413 0.000000
23.062285 -6.859624 0.000000
17.666814 -3.631041 0.000000
12.513226 -0.138027 0.000000
2.508100 5.872946 0.000000
7.603193 3.492393 0.000000
0.406984 11.573615 0.000000
-2.616744 17.132738 0.000000
-6.024009 22.645327 0.000000
-9.937977 28.004555 0.000000
-13.180041 33.462588 0.000000
-16.466744 38.939857 0.000000
-19.683127 44.475801 0.000000
-22.903760 50.000000 0.000000
44.604384 -13.479359 0.000000
50.000000 -16.881273 0.000000
39.219759 -10.152429 0.000000
33.860167 -6.841346 0.000000
28.523803 -3.529000 0.000000
23.208038 -0.230128 0.000000
17.971044 3.088114 0.000000
12.723976 6.292337 0.000000
7.291144 10.528404 0.000000
3.883252 16.867131 0.000000
0.510490 22.564772 0.000000
-2.950739 28.084734 0.000000
-6.311497 33.601554 0.000000
-9.665903 39.049788 0.000000
-12.989830 44.499415 0.000000
-16.234368 50.000000 0.000000
44.627060 -6.829491 0.000000
50.000000 -10.219380 0.000000
39.271502 -3.502285 0.000000
33.938874 -0.182618 0.000000
28.636393 3.137184 0.000000
23.381922 6.469746 0.000000
18.278147 9.782218 0.000000
13.153313 11.948806 0.000000
10.309661 16.971659 0.000000
7.003056 22.484308 0.000000
3.703335 28.070799 0.000000
0.373493 33.582030 0.000000
-2.968366 39.062598 0.000000
-6.290789 44.525739 0.000000
-9.572226 50.000000 0.000000
44.652245 -0.163420 0.000000
50.000000 -3.544939 0.000000
39.321197 3.164582 0.000000
34.012338 6.482935 0.000000
28.734529 9.814449 0.000000
23.427101 13.225639 0.000000
17.392250 16.814336 0.000000
13.366319 22.477326 0.000000
10.276566 28.067723 0.000000
7.053759 33.588488 0.000000
3.718679 39.073233 0.000000
0.388504 44.536408 0.000000
-2.914373 50.000000 0.000000
44.665804 6.516558 0.000000
50.000000 3.140173 0.000000
39.355008 9.835268 0.000000
34.076938 13.130451 0.000000
28.845796 16.435423 0.000000
23.747724 19.931135 0.000000
18.937479 22.954453 0.000000
16.798405 28.165737 0.000000
13.732475 33.647612 0.000000
10.385186 39.104773 0.000000
7.060766 44.543009 0.000000
3.736502 50.000000 0.000000
44.687956 13.190245 0.000000
50.000000 9.833424 0.000000
39.405513 16.491036 0.000000
34.156861 19.745547 0.000000
28.900408 22.807892 0.000000
23.619284 27.093987 0.000000
20.251995 33.213568 0.000000
16.929709 38.976972 0.000000
13.629439 44.491827 0.000000
10.376549 50.000000 0.000000
44.708526 19.869370 0.000000
50.000000 16.531487 0.000000
39.445370 23.167560 0.000000
34.254774 26.426864 0.000000
29.235025 28.450047 0.000000
26.488388 33.338206 0.000000
23.367635 38.918087 0.000000
20.203599 44.479507 0.000000
17.003823 50.000000 0.000000
44.711824 26.564198 0.000000
50.000000 23.230672 0.000000
39.431103 29.898582 0.000000
33.419545 33.311485 0.000000
29.649141 39.004150 0.000000
26.680329 44.483804 0.000000
23.618525 50.000000 0.000000
44.840580 33.236955 0.000000
50.000000 29.927757 0.000000
39.862176 36.552400 0.000000
35.008029 39.490158 0.000000
33.026763 44.495950 0.000000
30.221503 50.000000 0.000000
45.037222 39.845376 0.000000
50.000000 36.621569 0.000000
39.852070 43.949876 0.000000
36.817645 50.000000 0.000000
45.670703 45.395240 0.000000
50.000000 43.311758 0.000000
43.408632 50.000000 0.000000
50.000000 50.000000 0.000000
CELLS 578 2312
3 1 0 2
3 0 3 2
3 4 1 6
3 6 1 2
3 3 5 7
3 3 7 2
3 6 2 7
3 9 4 10
3 10 4 6
3 5 8 11
3 7 5 11
3 10 6 12
3 12 6 7
3 7 11 13
3 7 13 12
3 8 14 15
3 11 8 15
3 16 9 17
3 17 9 10
3 17 10 18
3 18 10 12
3 11 15 19
3 13 11 19
3 18 12 20
3 13 19 20
3 20 12 13
3 14 22 24
3 15 14 24
3 15 24 25
3 19 15 25
3 21 16 26
3 26 16 17
3 26 17 27
3 27 17 18
3 27 18 28
3 28 18 20
3 19 25 29
3 19 29 20
3 28 20 30
3 30 20 29
3 31 21 32
3 32 21 26
3 22 23 36
3 24 22 36
3 23 34 37
3 36 23 37
3 24 36 38
3 25 24 38
3 25 38 39
3 29 25 39
3 32 26 40
3 40 26 27
3 40 27 41
3 41 27 28
3 41 28 42
3 42 28 30
3 29 39 43
3 29 43 30
3 42 30 43
3 33 31 44
3 44 31 32
3 44 32 45
3 45 32 40
3 46 33 47
3 47 33 44
3 34 35 50
3 37 34 50
3 35 48 51
3 50 35 51
3 36 37 52
3 38 36 52
3 37 50 53
3 52 37 53
3 38 52 54
3 39 38 54
3 39 54 55
3 43 39 55
3 45 40 56
3 56 40 41
3 56 41 57
3 57 41 42
3 57 42 58
3 58 42 43
3 43 55 59
3 43 59 58
3 47 44 60
3 60 44 45
3 60 45 61
3 61 45 56
3 62 46 63
3 63 46 47
3 63 47 64
3 64 47 60
3 48 49 68
3 51 48 68
3 49 66 69
3 68 49 69
3 50 51 70
3 53 50 70
3 51 68 71
3 70 51 71
3 52 53 72
3 54 52 72
3 53 70 73
3 72 53 73
3 54 72 74
3 55 54 74
3 55 74 75
3 59 55 75
3 61 56 76
3 76 56 57
3 76 57 77
3 77 57 58
3 77 58 78
3 59 75 78
3 78 58 59
3 64 60 79
3 79 60 61
3 79 61 80
3 80 61 76
3 65 62 81
3 81 62 63
3 81 63 82
3 82 63 64
3 82 64 83
3 83 64 79
3 84 65 85
3 85 65 81
3 66 67 89
3 69 66 89
3 67 87 90
3 89 67 90
3 68 69 91
3 71 68 91
3 69 89 92
3 91 69 92
3 70 71 93
3 73 70 93
3 71 91 94
3 93 71 94
3 72 73 95
3 74 72 95
3 73 93 96
3 95 73 96
3 74 95 97
3 75 74 97
3 75 97 98
3 78 75 98
3 80 76 99
3 99 76 77
3 99 77 100
3 100 77 78
3 100 78 101
3 98 101 78
3 83 79 102
3 102 79 80
3 102 80 103
3 103 80 99
3 85 81 104
3 104 81 82
3 105 83 102
3 104 82 106
3 106 82 83
3 106 83 105
3 86 84 107
3 107 84 85
3 107 85 108
3 108 85 104
3 109 86 107
3 110 86 109
3 87 88 112
3 90 87 112
3 112 88 113
3 88 114 113
3 90 112 115
3 89 90 116
3 92 89 116
3 116 90 115
3 91 92 117
3 94 91 117
3 92 116 118
3 117 92 118
3 93 94 119
3 96 93 119
3 94 117 120
3 119 94 120
3 95 96 121
3 97 95 121
3 96 119 122
3 121 96 122
3 97 121 123
3 98 97 123
3 98 123 124
3 98 124 101
3 103 99 125
3 125 99 100
3 125 100 126
3 126 100 101
3 126 101 124
3 105 102 127
3 127 102 103
3 127 103 128
3 128 103 125
3 129 105 127
3 108 104 130
3 130 104 106
3 130 106 131
3 131 106 105
3 131 105 129
3 108 130 132
3 109 107 133
3 133 107 108
3 133 108 134
3 108 132 134
3 135 109 133
3 111 110 136
3 136 110 109
3 136 109 135
3 137 111 136
3 138 111 137
3 112 113 139
3 115 112 139
3 114 140 113
3 140 139 113
3 139 141 115
3 116 115 142
3 118 116 142
3 142 115 141
3 117 118 143
3 120 117 143
3 118 142 144
3 143 118 144
3 119 120 145
3 122 119 145
3 120 143 146
3 145 120 146
3 121 122 147
3 123 121 147
3 122 145 148
3 147 122 148
3 123 147 149
3 124 123 149
3 124 149 150
3 151 126 124
3 124 150 151
3 128 125 152
3 152 125 126
3 152 126 151
3 129 127 153
3 153 127 128
3 128 152 154
3 153 128 154
3 155 129 153
3 131 129 156
3 156 129 155
3 132 130 157
3 130 131 157
3 157 131 158
3 131 156 158
3 132 157 159
3 132 159 134
3 135 133 160
3 160 133 134
3 160 134 159
3 136 135 161
3 135 160 161
3 162 137 136
3 161 162 136
3 163 138 137
3 162 163 137
3 139 164 141
3 140 165 139
3 139 165 164
3 141 164 166
3 141 166 142
3 166 167 142
3 144 142 167
3 167 168 144
3 143 144 168
3 146 143 168
3 168 169 146
3 145 146 170
3 148 145 170
3 170 146 169
3 147 148 171
3 149 147 171
3 148 170 172
3 171 148 172
3 173 151 150
3 149 171 174
3 150 149 174
3 150 174 175
3 150 175 173
3 154 152 176
3 152 151 176
3 176 151 173
3 154 176 177
3 155 153 178
3 177 178 154
3 154 178 153
3 156 155 179
3 155 178 179
3 180 158 156
3 179 180 156
3 181 159 157
3 180 181 158
3 181 157 158
3 182 160 159
3 181 182 159
3 183 161 160
3 182 183 160
3 184 162 161
3 184 161 183
3 185 163 162
3 184 185 162
3 164 186 166
3 165 187 164
3 164 187 186
3 166 186 188
3 166 188 167
3 167 188 189
3 167 189 168
3 168 189 190
3 168 190 169
3 169 190 191
3 169 191 170
3 192 172 170
3 170 191 192
3 192 193 172
3 171 172 193
3 174 171 193
3 194 173 175
3 176 173 194
3 175 174 195
3 193 195 174
3 195 196 175
3 175 196 194
3 197 177 176
3 194 197 176
3 198 178 177
3 197 198 177
3 199 179 178
3 198 199 178
3 200 180 179
3 199 200 179
3 201 181 180
3 200 201 180
3 202 182 181
3 201 202 181
3 203 183 182
3 202 203 182
3 204 184 183
3 203 204 183
3 205 185 184
3 204 205 184
3 186 206 188
3 187 207 186
3 186 207 206
3 188 206 208
3 188 208 189
3 189 208 209
3 189 209 190
3 190 209 210
3 190 210 191
3 191 210 211
3 191 211 192
3 192 211 212
3 192 212 193
3 193 212 213
3 193 213 195
3 214 197 194
3 214 194 196
3 195 213 215
3 195 215 196
3 196 215 214
3 216 198 197
3 214 216 197
3 217 199 198
3 216 217 198
3 218 200 199
3 217 218 199
3 219 201 200
3 218 219 200
3 220 202 201
3 219 220 201
3 221 203 202
3 220 221 202
3 222 204 203
3 221 222 203
3 223 205 204
3 222 223 204
3 206 224 208
3 207 225 206
3 206 225 224
3 208 224 226
3 208 226 209
3 209 226 227
3 209 227 210
3 210 227 228
3 210 228 211
3 211 228 229
3 211 229 212
3 212 229 230
3 212 230 213
3 213 230 231
3 213 231 215
3 232 216 214
3 215 231 232
3 232 214 215
3 233 217 216
3 232 233 216
3 234 218 217
3 233 234 217
3 235 219 218
3 234 235 218
3 236 220 219
3 235 236 219
3 237 221 220
3 236 237 220
3 238 222 221
3 237 238 221
3 239 223 222
3 238 239 222
3 224 240 226
3 225 241 224
3 224 241 240
3 226 240 242
3 226 242 227
3 227 242 243
3 227 243 228
3 228 243 244
3 228 244 229
3 244 245 229
3 229 245 230
3 230 245 246
3 230 246 231
3 231 246 247
3 231 247 232
3 248 233 232
3 248 232 247
3 249 234 233
3 248 249 233
3 250 235 234
3 249 250 234
3 251 236 235
3 250 251 235
3 252 237 236
3 251 252 236
3 253 238 237
3 252 253 237
3 254 239 238
3 253 254 238
3 240 255 242
3 241 256 240
3 240 256 255
3 242 255 257
3 242 257 243
3 243 257 258
3 243 258 244
3 244 258 259
3 244 259 245
3 245 259 260
3 245 260 246
3 246 260 261
3 246 261 247
3 248 247 261
3 262 249 248
3 261 262 248
3 263 250 249
3 262 263 249
3 264 251 250
3 263 264 250
3 265 252 251
3 264 265 251
3 266 253 252
3 265 266 252
3 267 254 253
3 266 267 253
3 255 268 257
3 256 269 255
3 255 269 268
3 257 268 270
3 257 270 258
3 258 270 271
3 258 271 259
3 259 271 272
3 259 272 260
3 260 272 273
3 260 273 261
3 274 262 261
3 261 273 274
3 275 263 262
3 274 275 262
3 276 264 263
3 275 276 263
3 277 265 264
3 276 277 264
3 278 266 265
3 277 278 265
3 279 267 266
3 278 279 266
3 268 280 270
3 269 281 268
3 268 281 280
3 270 280 282
3 270 282 271
3 271 282 283
3 271 283 272
3 283 284 272
3 272 284 273
3 285 275 274
3 273 284 285
3 285 274 273
3 286 276 275
3 285 286 275
3 287 277 276
3 286 287 276
3 288 278 277
3 287 288 277
3 289 279 278
3 288 289 278
3 280 290 282
3 281 291 280
3 280 291 290
3 282 290 292
3 282 292 283
3 283 292 293
3 283 293 284
3 284 293 294
3 284 294 285
3 295 286 285
3 295 285 294
3 296 287 286
3 295 296 286
3 297 288 287
3 296 297 287
3 298 289 288
3 297 298 288
3 290 299 292
3 291 300 290
3 290 300 299
3 292 299 301
3 292 301 293
3 293 301 302
3 293 302 294
3 294 302 295
3 303 296 295
3 303 295 302
3 304 297 296
3 303 304 296
3 305 298 297
3 304 305 297
3 299 306 301
3 300 307 299
3 299 307 306
3 301 306 308
3 301 308 302
3 309 303 302
3 302 308 309
3 310 304 303
3 309 310 303
3 311 305 304
3 310 311 304
3 306 312 308
3 307 313 306
3 306 313 312
3 314 310 309
3 308 312 314
3 314 309 308
3 315 311 310
3 314 315 310
3 312 316 314
3 313 317 312
3 312 317 316
3 318 315 314
3 318 314 316
3 317 319 316
3 319 318 316
CELL_TYPES 578
5
5
5
5
5
5
5
5
5
5
5
5
5
5
5
5
5
5
5
5
5
5
5
5
5
5
5
5
5
5
5
5
5
5
5
5
5
5
5
5
5
5
5
5
5
5
5
5
5
5
5
5
5
5
5
5
5
5
5
5
5
5
5
5
5
5
5
5
5
5
5
5
5
5
5
5
5
5
5
5
5
5
5
5
5
5
5
5
5
5
5
5
5
5
5
5
5
5
5
5
5
5
5
5
5
5
5
5
5
5
5
5
5
5
5
5
5
5
5
5
5
5
5
5
5
5
5
5
5
5
5
5
5
5
5
5
5
5
5
5
5
5
5
5
5
5
5
5
5
5
5
5
5
5
5
5
5
5
5
5
5
5
5
5
5
5
5
5
5
5
5
5
5
5
5
5
5
5
5
5
5
5
5
5
5
5
5
5
5
5
5
5
5
5
5
5
5
5
5
5
5
5
5
5
5
5
5
5
5
5
5
5
5
5
5
5
5
5
5
5
5
5
5
5
5
5
5
5
5
5
5
5
5
5
5
5
5
5
5
5
5
5
5
5
5
5
5
5
5
5
5
5
5
5
5
5
5
5
5
5
5
5
5
5
5
5
5
5
5
5
5
5
5
5
5
5
5
5
5
5
5
5
5
5
5
5
5
5
5
5
5
5
5
5
5
5
5
5
5
5
5
5
5
5
5
5
5
5
5
5
5
5
5
5
5
5
5
5
5
5
5
5
5
5
5
5
5
5
5
5
5
5
5
5
5
5
5
5
5
5
5
5
5
5
5
5
5
5
5
5
5
5
5
5
5
5
5
5
5
5
5
5
5
5
5
5
5
5
5
5
5
5
5
5
5
5
5
5
5
5
5
5
5
5
5
5
5
5
5
5
5
5
5
5
5
5
5
5
5
5
5
5
5
5
5
5
5
5
5
5
5
5
5
5
5
5
5
5
5
5
5
5
5
5
5
5
5
5
5
5
5
5
5
5
5
5
5
5
5
5
5
5
5
5
5
5
5
5
5
5
5
5
5
5
5
5
5
5
5
5
5
5
5
5
5
5
5
5
5
5
5
5
5
5
5
5
5
5
5
5
5
5
5
5
5
5
5
5
5
5
5
5
5
5
5
5
5
5
5
5
5
5
5
5
5
5
5
5
5
5
5
5
5
5
5
5
5
5
5
5
5
5
5
5
5
5
5
5
5
5
5
5
5
5
5
5
5
5
5
5
5
5
5
5
5
5
5
5
5
5
5
5
5
5
5
5
5
5
5
5
5
5
5
5
5
5
5
5
5
5
5
5
5
5
5
5
5
5
POINT_DATA 320
SCALARS theta_e float 1
LOOKUP_TABLE default
0.998327
0.997719
0.998098
0.998277
0.996367
0.998052
0.997035
0.997652
0.997682
0.995022
0.995529
0.997516
0.996142
0.996630
0.997063
0.996977
0.994606
0.994554
0.994745
0.996104
0.995088
0.995352
0.996228
0.995147
0.996256
0.995539
0.994708
0.994245
0.994042
0.994573
0.993904
0.996771
0.995871
0.998036
0.993832
0.992301
0.995321
0.994160
0.994792
0.993917
0.994918
0.994095
0.993501
0.993259
0.997324
0.996338
0.998467
0.998258
0.990560
0.988600
0.992791
0.991226
0.993855
0.992723
0.993188
0.992649
0.995200
0.994110
0.993211
0.992596
0.997673
0.996719
0.997872
0.998212
0.998244
0.996551
0.986449
0.984235
0.989457
0.987486
0.991419
0.989944
0.992310
0.991279
0.991961
0.992060
0.995511
0.994206
0.992986
0.997846
0.997014
0.997268
0.997865
0.998141
0.995001
0.995888
0.993644
0.982183
0.980677
0.985377
0.983318
0.988283
0.986466
0.990108
0.988796
0.991167
0.990256
0.991418
0.992261
0.995854
0.994528
0.993460
0.997958
0.997304
0.996824
0.998128
0.997670
0.994519
0.995619
0.993413
0.992780
0.992260
0.981583
0.980460
0.980021
0.982858
0.984575
0.987337
0.985805
0.989200
0.988041
0.990696
0.989833
0.991682
0.993414
0.996237
0.995063
0.998148
0.997652
0.998383
0.996847
0.997811
0.996149
0.994464
0.995385
0.993838
0.993003
0.992434
0.992022
0.981581
0.980585
0.982942
0.984366
0.986823
0.985719
0.988810
0.987707
0.990835
0.989900
0.992364
0.994191
0.995318
0.996798
0.998534
0.998147
0.998953
0.998604
0.997136
0.998037
0.996393
0.995276
0.994365
0.993557
0.992783
0.982833
0.981793
0.984158
0.985346
0.986600
0.987680
0.988876
0.991382
0.990347
0.996029
0.993188
0.995078
0.997217
0.998617
0.999169
0.999484
0.999013
0.997953
0.997033
0.996137
0.995253
0.994295
0.984341
0.983385
0.985342
0.986296
0.987247
0.988466
0.989984
0.992071
0.996876
0.994023
0.995735
0.998121
0.999429
1.000034
1.000111
0.999571
0.998838
0.998132
0.997299
0.996298
0.985711
0.984946
0.986425
0.987148
0.988066
0.989427
0.991310
0.993491
0.997498
0.995838
0.998949
1.000194
1.000788
1.000840
1.000532
1.000054
0.999385
0.998490
0.986824
0.986276
0.987328
0.987958
0.988952
0.990541
0.992627
0.994977
0.997545
0.999393
1.000643
1.001322
1.001578
1.001533
1.001173
1.000505
0.987679
0.987292
0.988093
0.988749
0.989887
0.991658
0.993887
0.996079
0.997819
0.999543
1.000798
1.001662
1.002169
1.002279
1.001987
0.988380
0.988065
0.988807
0.989561
0.990856
0.992837
0.995366
0.997640
0.999268
1.000638
1.001704
1.002373
1.002592
0.989046
0.988727
0.989539
0.990395
0.991771
0.993711
0.995641
0.997089
0.998708
1.000169
1.001337
1.002100
0.989753
0.989395
0.990308
0.991213
0.992591
0.994618
0.996299
0.997898
0.999345
1.000530
0.990506
0.990117
0.991070
0.991926
0.993087
0.994241
0.995595
0.996949
0.998251
0.991251
0.990871
0.991791
0.992700
0.993801
0.994802
0.995879
0.991895
0.991576
0.992304
0.992822
0.993380
0.994053
0.992381
0.992158
0.992696
0.993033
0.992641
0.992529
0.992748
0.992695
VECTORS fa_u float
0.000000 0.000000 0.000000
0.000000 0.000000 0.000000
0.000000 0.000000 0.000000
0.000000 0.000000 0.000000
0.000000 0.000000 0.000000
0.000000 0.000000 0.000000
0.000000 0.000000 0.000000
0.000000 0.000000 0.000000
0.000000 0.000000 0.000000
0.000000 0.000000 0.000000
0.000000 0.000000 0.000000
0.000000 0.000000 0.000000
0.000000 0.000000 0.000000
0.000000 0.000000 0.000000
0.000000 0.000000 0.000000
0.000000 0.000000 0.000000
0.000000 0.000000 0.000000
0.000000 0.000000 0.000000
0.000000 0.000000 0.000000
0.000000 0.000000 0.000000
0.000000 0.000000 0.000000
0.000000 0.000000 0.000000
0.000000 0.000000 0.000000
0.000000 0.000000 0.000000
0.000000 0.000000 0.000000
0.000000 0.000000 0.000000
0.000000 0.000000 0.000000
0.000000 0.000000 0.000000
0.000000 0.000000 0.000000
0.000000 0.000000 0.000000
0.000000 0.000000 0.000000
0.000000 0.000000 0.000000
0.000000 0.000000 0.000000
0.000000 0.000000 0.000000
0.000000 0.000000 0.000000
0.000000 0.000000 0.000000
0.000000 0.000000 0.000000
0.000000 0.000000 0.000000
0.000000 0.000000 0.000000
0.000000 0.000000 0.000000
0.000000 0.000000 0.000000
0.000000 0.000000 0.000000
0.000000 0.000000 0.000000
0.000000 0.000000 0.000000
0.000000 0.000000 0.000000
0.000000 0.000000 0.000000
0.000000 0.000000 0.000000
0.000000 0.000000 0.000000
0.000000 0.000000 0.000000
0.000000 0.000000 0.000000
0.000000 0.000000 0.000000
0.000000 0.000000 0.000000
0.000000 0.000000 0.000000
0.000000 0.000000 0.000000
0.000000 0.000000 0.000000
0.000000 0.000000 0.000000
0.000000 0.000000 0.000000
0.000000 0.000000 0.000000
0.000000 0.000000 0.000000
0.000000 0.000000 0.000000
0.000000 0.000000 0.000000
0.000000 0.000000 0.000000
0.000000 0.000000 0.000000
0.000000 0.000000 0.000000
0.000000 0.000000 0.000000
0.000000 0.000000 0.000000
0.000000 0.000000 0.000000
0.000000 0.000000 0.000000
0.000000 0.000000 0.000000
0.000000 0.000000 0.000000
0.000000 0.000000 0.000000
0.000000 0.000000 0.000000
0.000000 0.000000 0.000000
0.000000 0.000000 0.000000
0.000000 0.000000 0.000000
0.000000 0.000000 0.000000
0.000000 0.000000 0.000000
0.000000 0.000000 0.000000
0.000000 0.000000 0.000000
0.000000 0.000000 0.000000
0.000000 0.000000 0.000000
0.000000 0.000000 0.000000
0.000000 0.000000 0.000000
0.000000 0.000000 0.000000
0.000000 0.000000 0.000000
0.000000 0.000000 0.000000
0.000000 0.000000 0.000000
0.000000 0.000000 0.000000
0.000000 0.000000 0.000000
0.000000 0.000000 0.000000
0.000000 0.000000 0.000000
0.000000 0.000000 0.000000
0.000000 0.000000 0.000000
0.000000 0.000000 0.000000
0.000000 0.000000 0.000000
0.000000 0.000000 0.000000
0.000000 0.000000 0.000000
0.000000 0.000000 0.000000
0.000000 0.000000 0.000000
0.000000 0.000000 0.000000
0.000000 0.000000 0.000000
0.000000 0.000000 0.000000
0.000000 0.000000 0.000000
0.000000 0.000000 0.000000
0.000000 0.000000 0.000000
0.000000 0.000000 0.000000
0.000000 0.000000 0.000000
0.000000 0.000000 0.000000
0.000000 0.000000 0.000000
0.000000 0.000000 0.000000
0.000000 0.000000 0.000000
0.000000 0.000000 0.000000
0.000000 0.000000 0.000000
0.000000 0.000000 0.000000
0.000000 0.000000 0.000000
0.000000 0.000000 0.000000
0.000000 0.000000 0.000000
0.000000 0.000000 0.000000
0.000000 0.000000 0.000000
0.000000 0.000000 0.000000
0.000000 0.000000 0.000000
0.000000 0.000000 0.000000
0.000000 0.000000 0.000000
0.000000 0.000000 0.000000
0.000000 0.000000 0.000000
0.000000 0.000000 0.000000
0.000000 0.000000 0.000000
0.000000 0.000000 0.000000
0.000000 0.000000 0.000000
0.000000 0.000000 0.000000
0.000000 0.000000 0.000000
0.000000 0.000000 0.000000
0.000000 0.000000 0.000000
0.000000 0.000000 0.000000
0.000000 0.000000 0.000000
0.000000 0.000000 0.000000
0.000000 0.000000 0.000000
0.000000 0.000000 0.000000
0.000000 0.000000 0.000000
0.000000 0.000000 0.000000
0.000000 0.000000 0.000000
0.000000 0.000000 0.000000
0.000000 0.000000 0.000000
0.000000 0.000000 0.000000
0.000000 0.000000 0.000000
0.000000 0.000000 0.000000
0.000000 0.000000 0.000000
0.000000 0.000000 0.000000
0.000000 0.000000 0.000000
0.000000 0.000000 0.000000
0.000000 0.000000 0.000000
0.000000 0.000000 0.000000
0.000000 0.000000 0.000000
0.000000 0.000000 0.000000
0.000000 0.000000 0.000000
0.000000 0.000000 0.000000
0.000000 0.000000 0.000000
0.000000 0.000000 0.000000
0.000000 0.000000 0.000000
0.000000 0.000000 0.000000
0.000000 0.000000 0.000000
0.000000 0.000000 0.000000
0.000000 0.000000 0.000000
0.000000 0.000000 0.000000
0.000000 0.000000 0.000000
0.000000 0.000000 0.000000
0.000000 0.000000 0.000000
0.000000 0.000000 0.000000
0.000000 0.000000 0.000000
0.000000 0.000000 0.000000
0.000000 0.000000 0.000000
0.000000 0.000000 0.000000
0.000000 0.000000 0.000000
0.000000 0.000000 0.000000
0.000000 0.000000 0.000000
0.000000 0.000000 0.000000
0.000000 0.000000 0.000000
0.000000 0.000000 0.000000
0.000000 0.000000 0.000000
0.000000 0.000000 0.000000
0.000000 0.000000 0.000000
0.000000 0.000000 0.000000
0.000000 0.000000 0.000000
0.000000 0.000000 0.000000
0.000000 0.000000 0.000000
0.000000 0.000000 0.000000
0.000000 0.000000 0.000000
0.000000 0.000000 0.000000
0.000000 0.000000 0.000000
0.000000 0.000000 0.000000
0.000000 0.000000 0.000000
0.000000 0.000000 0.000000
0.000000 0.000000 0.000000
0.000000 0.000000 0.000000
0.000000 0.000000 0.000000
0.000000 0.000000 0.000000
0.000000 0.000000 0.000000
0.000000 0.000000 0.000000
0.000000 0.000000 0.000000
0.000000 0.000000 0.000000
0.000000 0.000000 0.000000
0.000000 0.000000 0.000000
0.000000 0.000000 0.000000
0.000000 0.000000 0.000000
0.000000 0.000000 0.000000
0.000000 0.000000 0.000000
0.000000 0.000000 0.000000
0.000000 0.000000 0.000000
0.000000 0.000000 0.000000
0.000000 0.000000 0.000000
0.000000 0.000000 0.000000
0.000000 0.000000 0.000000
0.000000 0.000000 0.000000
0.000000 0.000000 0.000000
0.000000 0.000000 0.000000
0.000000 0.000000 0.000000
0.000000 0.000000 0.000000
0.000000 0.000000 0.000000
0.000000 0.000000 0.000000
0.000000 0.000000 0.000000
0.000000 0.000000 0.000000
0.000000 0.000000 0.000000
0.000000 0.000000 0.000000
0.000000 0.000000 0.000000
0.000000 0.000000 0.000000
0.000000 0.000000 0.000000
0.000000 0.000000 0.000000
0.000000 0.000000 0.000000
0.000000 0.000000 0.000000
0.000000 0.000000 0.000000
0.000000 0.000000 0.000000
0.000000 0.000000 0.000000
0.000000 0.000000 0.000000
0.000000 0.000000 0.000000
0.000000 0.000000 0.000000
0.000000 0.000000 0.000000
0.000000 0.000000 0.000000
0.000000 0.000000 0.000000
0.000000 0.000000 0.000000
0.000000 0.000000 0.000000
0.000000 0.000000 0.000000
0.000000 0.000000 0.000000
0.000000 0.000000 0.000000
0.000000 0.000000 0.000000
0.000000 0.000000 0.000000
0.000000 0.000000 0.000000
0.000000 0.000000 0.000000
0.000000 0.000000 0.000000
0.000000 0.000000 0.000000
0.000000 0.000000 0.000000
0.000000 0.000000 0.000000
0.000000 0.000000 0.000000
0.000000 0.000000 0.000000
0.000000 0.000000 0.000000
0.000000 0.000000 0.000000
0.000000 0.000000 0.000000
0.000000 0.000000 0.000000
0.000000 0.000000 0.000000
0.000000 0.000000 0.000000
0.000000 0.000000 0.000000
0.000000 0.000000 0.000000
0.000000 0.000000 0.000000
0.000000 0.000000 0.000000
0.000000 0.000000 0.000000
0.000000 0.000000 0.000000
0.000000 0.000000 0.000000
0.000000 0.000000 0.000000
0.000000 0.000000 0.000000
0.000000 0.000000 0.000000
0.000000 0.000000 0.000000
0.000000 0.000000 0.000000
0.000000 0.000000 0.000000
0.000000 0.000000 0.000000
0.000000 0.000000 0.000000
0.000000 0.000000 0.000000
0.000000 0.000000 0.000000
0.000000 0.000000 0.000000
0.000000 0.000000 0.000000
0.000000 0.000000 0.000000
0.000000 0.000000 0.000000
0.000000 0.000000 0.000000
0.000000 0.000000 0.000000
0.000000 0.000000 0.000000
0.000000 0.000000 0.000000
0.000000 0.000000 0.000000
0.000000 0.000000 0.000000
0.000000 0.000000 0.000000
0.000000 0.000000 0.000000
0.000000 0.000000 0.000000
0.000000 0.000000 0.000000
0.000000 0.000000 0.000000
0.000000 0.000000 0.000000
0.000000 0.000000 0.000000
0.000000 0.000000 0.000000
0.000000 0.000000 0.000000
0.000000 0.000000 0.000000
0.000000 0.000000 -50.000000
-50.000000 0.000000 -50.000000
-43.375474 0.000000 -45.668192
-45.519908 0.000000 -43.300295
-50.000000 0.000000 -50.000000
-36.758923 0.000000 -36.597208
-50.000000 0.000000 -45.057796
-40.038253 0.000000 -39.980089
-44.193119 0.000000 -29.886641
-50.000000 0.000000 -50.000000
-30.155153 0.000000 -44.821189
-33.575685 0.000000 -33.061795
-44.718735 0.000000 -39.819247
-36.888042 0.000000 -35.055517
-39.883005 0.000000 -23.172026
-50.000000 0.000000 -26.419465
-44.715005 0.000000 -50.000000
-23.562191 0.000000 -44.633710
-27.003574 0.000000 -39.305441
-30.395763 0.000000 -29.502437
-39.452580 0.000000 -33.280178
-33.801426 0.000000 -50.000000
-16.970692 0.000000 -16.456484
-50.000000 0.000000 -9.745044
