# vtk DataFile Version 2.0
CellBP Time: 0.24
ASCII
DATASET UNSTRUCTURED_GRID
POINTS 320 double
-50.000000 -50.000000 0.000000
-50.000000 -43.333193 0.000000
-45.688224 -45.491054 0.000000
-43.333100 -50.000000 0.000000
-50.000000 -36.666408 0.000000
-36.666310 -50.000000 0.000000
-45.080924 -39.969682 0.000000
-40.026893 -44.152132 0.000000
-29.999628 -50.000000 0.000000
-50.000000 -29.999645 0.000000
-44.846868 -33.448796 0.000000
-33.144636 -44.675480 0.000000
-39.868817 -36.786812 0.000000
-35.128309 -39.801024 0.000000
-23.333056 -50.000000 0.000000
-26.538923 -44.666544 0.000000
-50.000000 -23.332941 0.000000
-44.665089 -26.803778 0.000000
-39.363915 -30.225445 0.000000
-29.605915 -39.359028 0.000000
-33.367800 -33.655070 0.000000
-50.000000 -16.666309 0.000000
-16.666567 -50.000000 0.000000
-10.000113 -50.000000 0.000000
-19.964727 -44.588620 0.000000
-23.215646 -39.114360 0.000000
-44.691767 -20.096796 0.000000
-39.367542 -23.527959 0.000000
-34.105708 -26.936673 0.000000
-26.384008 -33.576737 0.000000
-29.155694 -28.926127 0.000000
-50.000000 -9.999759 0.000000
-44.666225 -13.410137 0.000000
-50.000000 -3.333272 0.000000
-3.333635 -50.000000 0.000000
3.332923 -50.000000 0.000000
-13.343576 -44.598936 0.000000
-6.684803 -44.610679 0.000000
-16.693553 -39.153093 0.000000
-20.106711 -33.342313 0.000000
-39.337912 -16.804727 0.000000
-34.018140 -20.274472 0.000000
-28.780307 -23.448586 0.000000
-23.509989 -27.349509 0.000000
-44.635377 -6.705712 0.000000
-39.292747 -10.101871 0.000000
-50.000000 3.333202 0.000000
-44.626717 -0.015976 0.000000
9.999592 -50.000000 0.000000
16.666367 -50.000000 0.000000
-0.016323 -44.618785 0.000000
6.651303 -44.635478 0.000000
-10.044639 -39.222409 0.000000
-3.368280 -39.220347 0.000000
-13.484115 -33.798580 0.000000
-16.709537 -28.271065 0.000000
-33.947678 -13.514191 0.000000
-28.600818 -16.892254 0.000000
-23.290613 -20.312511 0.000000
-18.659656 -23.281875 0.000000
-39.267297 -3.393063 0.000000
-33.904088 -6.796777 0.000000
-50.000000 9.999724 0.000000
-44.606733 6.672872 0.000000
-39.260753 3.325334 0.000000
-50.000000 16.666333 0.000000
23.333204 -50.000000 0.000000
30.000036 -50.000000 0.000000
13.317084 -44.663008 0.000000
19.989311 -44.700181 0.000000
3.307589 -39.245124 0.000000
9.971692 -39.290309 0.000000
-6.735037 -33.791238 0.000000
-0.032223 -33.829693 0.000000
-10.095613 -28.293677 0.000000
-13.122391 -22.898712 0.000000
-28.532369 -10.215230 0.000000
-23.065562 -13.662970 0.000000
-16.976174 -17.208158 0.000000
-33.884451 -0.065586 0.000000
-28.562737 -3.578658 0.000000
-44.564036 13.379789 0.000000
-39.189871 10.014604 0.000000
-33.905449 6.615696 0.000000
-50.000000 23.333023 0.000000
-44.557600 20.137545 0.000000
-50.000000 29.999759 0.000000
36.666799 -50.000000 0.000000
43.333457 -50.000000 0.000000
26.663069 -44.745371 0.000000
33.315266 -44.876044 0.000000
16.631604 -39.357799 0.000000
23.328218 -39.437223 0.000000
6.642943 -33.879625 0.000000
13.291048 -33.965679 0.000000
-3.345067 -28.362846 0.000000
3.357256 -28.451618 0.000000
-6.625499 -22.846650 0.000000
-9.971412 -17.314678 0.000000
-23.185307 -7.015237 0.000000
-17.808638 -10.334753 0.000000
-12.836292 -12.587039 0.000000
-28.606981 3.088170 0.000000
-23.263759 -0.468335 0.000000
-39.038838 16.746106 0.000000
-28.721078 9.926180 0.000000
-33.761429 13.318191 0.000000
-44.521506 26.716272 0.000000
-38.467460 23.892003 0.000000
-44.631986 33.084989 0.000000
-50.000000 36.666514 0.000000
-50.000000 43.333273 0.000000
39.922387 -45.069732 0.000000
45.474620 -45.660581 0.000000
50.000000 -50.000000 0.000000
36.626825 -39.982279 0.000000
30.012340 -39.458818 0.000000
19.904438 -34.092964 0.000000
26.585182 -34.319730 0.000000
9.989398 -28.514079 0.000000
16.611647 -28.660170 0.000000
0.052989 -22.959069 0.000000
6.813042 -23.159436 0.000000
-3.401031 -17.297890 0.000000
-6.871681 -11.040404 0.000000
-17.878048 -3.831285 0.000000
-12.551969 -7.036156 0.000000
-23.310337 6.073684 0.000000
-18.037741 2.456643 0.000000
-23.121233 12.094957 0.000000
-33.571709 19.788654 0.000000
-27.940787 16.884741 0.000000
-33.292003 24.721640 0.000000
-39.472898 30.052014 0.000000
-35.160058 28.137297 0.000000
-39.815533 35.100854 0.000000
-43.991482 39.981680 0.000000
-45.430942 45.684867 0.000000
-50.000000 50.000000 0.000000
44.117204 -39.899356 0.000000
50.000000 -43.333718 0.000000
39.639425 -35.047886 0.000000
33.462997 -33.424944 0.000000
22.985304 -28.818222 0.000000
28.731264 -29.248166 0.000000
13.461743 -23.122463 0.000000
20.055668 -23.439038 0.000000
3.391603 -17.587169 0.000000
10.129380 -17.840629 0.000000
0.139973 -12.030741 0.000000
-2.154531 -6.276864 0.000000
-7.425596 -3.717389 0.000000
-12.646227 -0.803165 0.000000
-18.160261 8.572386 0.000000
-12.967946 5.195590 0.000000
-18.639170 13.751651 0.000000
-21.504449 17.494774 0.000000
-28.940419 23.157742 0.000000
-24.345769 21.554293 0.000000
-30.322933 28.634218 0.000000
-34.252991 33.374988 0.000000
-36.955740 39.577706 0.000000
-39.838645 45.102468 0.000000
-43.333441 50.000000 0.000000
44.585191 -32.972647 0.000000
50.000000 -36.667314 0.000000
39.129407 -29.582371 0.000000
33.500841 -26.368162 0.000000
27.183286 -23.322633 0.000000
23.066536 -18.648201 0.000000
16.990132 -16.979712 0.000000
6.715529 -12.221325 0.000000
12.351615 -12.732386 0.000000
-3.379022 -1.493960 0.000000
3.960099 -7.055037 0.000000
1.030574 -2.124903 0.000000
-7.030179 2.333428 0.000000
-8.456511 7.845343 0.000000
-12.847488 11.933251 0.000000
-15.692777 17.700138 0.000000
-19.286896 22.982605 0.000000
-24.170764 27.354592 0.000000
-27.286154 33.625769 0.000000
-30.406510 39.161006 0.000000
-33.447714 44.738657 0.000000
-36.666859 50.000000 0.000000
44.547794 -26.500466 0.000000
50.000000 -30.000749 0.000000
39.040279 -23.179874 0.000000
33.450413 -19.900531 0.000000
28.041193 -16.575074 0.000000
22.685597 -13.124760 0.000000
17.178568 -9.911705 0.000000
10.959152 -6.653868 0.000000
-1.348511 2.308715 0.000000
6.237842 -1.743648 0.000000
2.912922 1.606207 0.000000
-3.555542 7.210294 0.000000
-6.312749 12.446586 0.000000
-9.629081 17.699604 0.000000
-13.166323 23.111246 0.000000
-17.316323 28.184767 0.000000
-20.570455 33.474150 0.000000
-23.665755 39.063755 0.000000
-26.830686 44.585197 0.000000
-30.000210 50.000000 0.000000
44.528878 -19.931091 0.000000
50.000000 -23.334026 0.000000
39.036814 -16.594563 0.000000
33.577248 -13.281616 0.000000
28.152295 -9.965065 0.000000
22.727753 -6.604533 0.000000
17.266088 -3.337523 0.000000
12.038616 0.189112 0.000000
1.935514 6.314964 0.000000
7.064595 3.861290 0.000000
-0.211497 12.001560 0.000000
-3.272378 17.529166 0.000000
-6.701221 22.977905 0.000000
-10.568096 28.267163 0.000000
-13.723815 33.661355 0.000000
-16.945512 39.080264 0.000000
-20.140288 44.548368 0.000000
-23.333530 50.000000 0.000000
44.536575 -13.304026 0.000000
50.000000 -16.667185 0.000000
39.080505 -9.966943 0.000000
33.647733 -6.641023 0.000000
28.237018 -3.307246 0.000000
22.846991 0.018625 0.000000
17.534956 3.364246 0.000000
12.220931 6.600003 0.000000
6.736877 10.876495 0.000000
3.301321 17.195015 0.000000
-0.081671 22.850040 0.000000
-3.518269 28.312011 0.000000
-6.831188 33.773973 0.000000
-10.137210 39.170435 0.000000
-13.435451 44.563541 0.000000
-16.666855 50.000000 0.000000
44.554717 -6.654913 0.000000
50.000000 -10.000270 0.000000
39.124029 -3.321409 0.000000
33.714264 0.008800 0.000000
28.334152 3.343931 0.000000
23.003475 6.693997 0.000000
17.833017 10.024464 0.000000
12.655845 12.223908 0.000000
9.793165 17.235974 0.000000
6.477354 22.722255 0.000000
3.188394 28.268977 0.000000
-0.115956 33.734453 0.000000
-3.425222 39.168468 0.000000
-6.725307 44.581874 0.000000
-10.000202 50.000000 0.000000
44.576003 0.001847 0.000000
50.000000 -3.333327 0.000000
39.167315 3.331998 0.000000
33.779799 6.655807 0.000000
28.424921 9.995519 0.000000
23.046987 13.416958 0.000000
16.948127 17.021871 0.000000
12.901938 22.671685 0.000000
9.814478 28.232320 0.000000
6.603984 33.718672 0.000000
3.286371 39.164454 0.000000
-0.029996 44.584679 0.000000
-3.333550 50.000000 0.000000
44.586980 6.665516 0.000000
50.000000 3.333604 0.000000
39.198337 9.982132 0.000000
33.843746 13.277536 0.000000
28.542040 16.585436 0.000000
23.386754 20.084774 0.000000
18.531891 23.111944 0.000000
16.393652 28.298985 0.000000
13.328826 33.754944 0.000000
9.986316 39.182091 0.000000
6.665695 44.584520 0.000000
3.333153 50.000000 0.000000
44.609043 13.317953 0.000000
50.000000 10.000486 0.000000
39.251536 16.612712 0.000000
33.932022 19.863302 0.000000
28.612399 22.926455 0.000000
23.279779 27.207768 0.000000
19.901325 33.303483 0.000000
16.573576 39.041193 0.000000
13.267998 44.526937 0.000000
9.999947 50.000000 0.000000
44.632145 19.973052 0.000000
50.000000 16.667291 0.000000
39.298566 23.262380 0.000000
34.043874 26.515046 0.000000
28.965828 28.539840 0.000000
26.202396 33.410390 0.000000
23.066664 38.969031 0.000000
19.888354 44.507175 0.000000
16.666822 50.000000 0.000000
44.639789 26.643010 0.000000
50.000000 23.334002 0.000000
39.293375 29.966860 0.000000
33.212423 33.371450 0.000000
29.412108 39.045947 0.000000
26.422322 44.506011 0.000000
23.333701 50.000000 0.000000
44.774917 33.291885 0.000000
50.000000 30.000612 0.000000
39.738220 36.596389 0.000000
34.831091 39.525611 0.000000
32.833873 44.514222 0.000000
30.000497 50.000000 0.000000
44.978201 39.877875 0.000000
50.000000 36.667131 0.000000
39.734853 43.968952 0.000000
36.667156 50.000000 0.000000
45.621228 45.409701 0.000000
50.000000 43.333591 0.000000
43.333636 50.000000 0.000000
50.000000 50.000000 0.000000
CELLS 578 2312
3 1 0 2
3 0 3 2
3 4 1 6
3 6 1 2
3 3 5 7
3 3 7 2
3 6 2 7
3 9 4 10
3 10 4 6
3 5 8 11
3 7 5 11
3 10 6 12
3 12 6 7
3 7 11 13
3 7 13 12
3 8 14 15
3 11 8 15
3 16 9 17
3 17 9 10
3 17 10 18
3 18 10 12
3 11 15 19
3 13 11 19
3 18 12 20
3 13 19 20
3 20 12 13
3 14 22 24
3 15 14 24
3 15 24 25
3 19 15 25
3 21 16 26
3 26 16 17
3 26 17 27
3 27 17 18
3 27 18 28
3 28 18 20
3 19 25 29
3 19 29 20
3 28 20 30
3 30 20 29
3 31 21 32
3 32 21 26
3 22 23 36
3 24 22 36
3 23 34 37
3 36 23 37
3 24 36 38
3 25 24 38
3 25 38 39
3 29 25 39
3 32 26 40
3 40 26 27
3 40 27 41
3 41 27 28
3 41 28 42
3 42 28 30
3 29 39 43
3 29 43 30
3 42 30 43
3 33 31 44
3 44 31 32
3 44 32 45
3 45 32 40
3 46 33 47
3 47 33 44
3 34 35 50
3 37 34 50
3 35 48 51
3 50 35 51
3 36 37 52
3 38 36 52
3 37 50 53
3 52 37 53
3 38 52 54
3 39 38 54
3 39 54 55
3 43 39 55
3 45 40 56
3 56 40 41
3 56 41 57
3 57 41 42
3 57 42 58
3 58 42 43
3 43 55 59
3 43 59 58
3 47 44 60
3 60 44 45
3 60 45 61
3 61 45 56
3 62 46 63
3 63 46 47
3 63 47 64
3 64 47 60
3 48 49 68
3 51 48 68
3 49 66 69
3 68 49 69
3 50 51 70
3 53 50 70
3 51 68 71
3 70 51 71
3 52 53 72
3 54 52 72
3 53 70 73
3 72 53 73
3 54 72 74
3 55 54 74
3 55 74 75
3 59 55 75
3 61 56 76
3 76 56 57
3 76 57 77
3 77 57 58
3 77 58 78
3 59 75 78
3 78 58 59
3 64 60 79
3 79 60 61
3 79 61 80
3 80 61 76
3 65 62 81
3 81 62 63
3 81 63 82
3 82 63 64
3 82 64 83
3 83 64 79
3 84 65 85
3 85 65 81
3 66 67 89
3 69 66 89
3 67 87 90
3 89 67 90
3 68 69 91
3 71 68 91
3 69 89 92
3 91 69 92
3 70 71 93
3 73 70 93
3 71 91 94
3 93 71 94
3 72 73 95
3 74 72 95
3 73 93 96
3 95 73 96
3 74 95 97
3 75 74 97
3 75 97 98
3 78 75 98
3 80 76 99
3 99 76 77
3 99 77 100
3 100 77 78
3 100 78 101
3 98 101 78
3 83 79 102
3 102 79 80
3 102 80 103
3 103 80 99
3 85 81 104
3 104 81 82
3 105 83 102
3 104 82 106
3 106 82 83
3 106 83 105
3 86 84 107
3 107 84 85
3 107 85 108
3 108 85 104
3 109 86 107
3 110 86 109
3 87 88 112
3 90 87 112
3 112 88 113
3 88 114 113
3 90 112 115
3 89 90 116
3 92 89 116
3 116 90 115
3 91 92 117
3 94 91 117
3 92 116 118
3 117 92 118
3 93 94 119
3 96 93 119
3 94 117 120
3 119 94 120
3 95 96 121
3 97 95 121
3 96 119 122
3 121 96 122
3 97 121 123
3 98 97 123
3 98 123 124
3 98 124 101
3 103 99 125
3 125 99 100
3 125 100 126
3 126 100 101
3 126 101 124
3 105 102 127
3 127 102 103
3 127 103 128
3 128 103 125
3 129 105 127
3 108 104 130
3 130 104 106
3 130 106 131
3 131 106 105
3 131 105 129
3 108 130 132
3 109 107 133
3 133 107 108
3 133 108 134
3 108 132 134
3 135 109 133
3 111 110 136
3 136 110 109
3 136 109 135
3 137 111 136
3 138 111 137
3 112 113 139
3 115 112 139
3 114 140 113
3 140 139 113
3 139 141 115
3 116 115 142
3 118 116 142
3 142 115 141
3 117 118 143
3 120 117 143
3 118 142 144
3 143 118 144
3 119 120 145
3 122 119 145
3 120 143 146
3 145 120 146
3 121 122 147
3 123 121 147
3 122 145 148
3 147 122 148
3 123 147 149
3 124 123 149
3 124 149 150
3 151 126 124
3 124 150 151
3 128 125 152
3 152 125 126
3 152 126 151
3 129 127 153
3 153 127 128
3 128 152 154
3 153 128 154
3 155 129 153
3 131 129 156
3 156 129 155
3 132 130 157
3 130 131 157
3 157 131 158
3 131 156 158
3 132 157 159
3 132 159 134
3 135 133 160
3 160 133 134
3 160 134 159
3 136 135 161
3 135 160 161
3 162 137 136
3 161 162 136
3 163 138 137
3 162 163 137
3 139 164 141
3 140 165 139
3 139 165 164
3 141 164 166
3 141 166 142
3 166 167 142
3 144 142 167
3 167 168 144
3 143 144 168
3 146 143 168
3 168 169 146
3 145 146 170
3 148 145 170
3 170 146 169
3 147 148 171
3 149 147 171
3 148 170 172
3 171 148 172
3 173 151 150
3 149 171 174
3 150 149 174
3 150 174 175
3 150 175 173
3 154 152 176
3 152 151 176
3 176 151 173
3 154 176 177
3 155 153 178
3 177 178 154
3 154 178 153
3 156 155 179
3 155 178 179
3 180 158 156
3 179 180 156
3 181 159 157
3 180 181 158
3 181 157 158
3 182 160 159
3 181 182 159
3 183 161 160
3 182 183 160
3 184 162 161
3 184 161 183
3 185 163 162
3 184 185 162
3 164 186 166
3 165 187 164
3 164 187 186
3 166 186 188
3 166 188 167
3 167 188 189
3 167 189 168
3 168 189 190
3 168 190 169
3 169 190 191
3 169 191 170
3 192 172 170
3 170 191 192
3 192 193 172
3 171 172 193
3 174 171 193
3 194 173 175
3 176 173 194
3 175 174 195
3 193 195 174
3 195 196 175
3 175 196 194
3 197 177 176
3 194 197 176
3 198 178 177
3 197 198 177
3 199 179 178
3 198 199 178
3 200 180 179
3 199 200 179
3 201 181 180
3 200 201 180
3 202 182 181
3 201 202 181
3 203 183 182
3 202 203 182
3 204 184 183
3 203 204 183
3 205 185 184
3 204 205 184
3 186 206 188
3 187 207 186
3 186 207 206
3 188 206 208
3 188 208 189
3 189 208 209
3 189 209 190
3 190 209 210
3 190 210 191
3 191 210 211
3 191 211 192
3 192 211 212
3 192 212 193
3 193 212 213
3 193 213 195
3 214 197 194
3 214 194 196
3 195 213 215
3 195 215 196
3 196 215 214
3 216 198 197
3 214 216 197
3 217 199 198
3 216 217 198
3 218 200 199
3 217 218 199
3 219 201 200
3 218 219 200
3 220 202 201
3 219 220 201
3 221 203 202
3 220 221 202
3 222 204 203
3 221 222 203
3 223 205 204
3 222 223 204
3 206 224 208
3 207 225 206
3 206 225 224
3 208 224 226
3 208 226 209
3 209 226 227
3 209 227 210
3 210 227 228
3 210 228 211
3 211 228 229
3 211 229 212
3 212 229 230
3 212 230 213
3 213 230 231
3 213 231 215
3 232 216 214
3 215 231 232
3 232 214 215
3 233 217 216
3 232 233 216
3 234 218 217
3 233 234 217
3 235 219 218
3 234 235 218
3 236 220 219
3 235 236 219
3 237 221 220
3 236 237 220
3 238 222 221
3 237 238 221
3 239 223 222
3 238 239 222
3 224 240 226
3 225 241 224
3 224 241 240
3 226 240 242
3 226 242 227
3 227 242 243
3 227 243 228
3 228 243 244
3 228 244 229
3 244 245 229
3 229 245 230
3 230 245 246
3 230 246 231
3 231 246 247
3 231 247 232
3 248 233 232
3 248 232 247
3 249 234 233
3 248 249 233
3 250 235 234
3 249 250 234
3 251 236 235
3 250 251 235
3 252 237 236
3 251 252 236
3 253 238 237
3 252 253 237
3 254 239 238
3 253 254 238
3 240 255 242
3 241 256 240
3 240 256 255
3 242 255 257
3 242 257 243
3 243 257 258
3 243 258 244
3 244 258 259
3 244 259 245
3 245 259 260
3 245 260 246
3 246 260 261
3 246 261 247
3 248 247 261
3 262 249 248
3 261 262 248
3 263 250 249
3 262 263 249
3 264 251 250
3 263 264 250
3 265 252 251
3 264 265 251
3 266 253 252
3 265 266 252
3 267 254 253
3 266 267 253
3 255 268 257
3 256 269 255
3 255 269 268
3 257 268 270
3 257 270 258
3 258 270 271
3 258 271 259
3 259 271 272
3 259 272 260
3 260 272 273
3 260 273 261
3 274 262 261
3 261 273 274
3 275 263 262
3 274 275 262
3 276 264 263
3 275 276 263
3 277 265 264
3 276 277 264
3 278 266 265
3 277 278 265
3 279 267 266
3 278 279 266
3 268 280 270
3 269 281 268
3 268 281 280
3 270 280 282
3 270 282 271
3 271 282 283
3 271 283 272
3 283 284 272
3 272 284 273
3 285 275 274
3 273 284 285
3 285 274 273
3 286 276 275
3 285 286 275
3 287 277 276
3 286 287 276
3 288 278 277
3 287 288 277
3 289 279 278
3 288 289 278
3 280 290 282
3 281 291 280
3 280 291 290
3 282 290 292
3 282 292 283
3 283 292 293
3 283 293 284
3 284 293 294
3 284 294 285
3 295 286 285
3 295 285 294
3 296 287 286
3 295 296 286
3 297 288 287
3 296 297 287
3 298 289 288
3 297 298 288
3 290 299 292
3 291 300 290
3 290 300 299
3 292 299 301
3 292 301 293
3 293 301 302
3 293 302 294
3 294 302 295
3 303 296 295
3 303 295 302
3 304 297 296
3 303 304 296
3 305 298 297
3 304 305 297
3 299 306 301
3 300 307 299
3 299 307 306
3 301 306 308
3 301 308 302
3 309 303 302
3 302 308 309
3 310 304 303
3 309 310 303
3 311 305 304
3 310 311 304
3 306 312 308
3 307 313 306
3 306 313 312
3 314 310 309
3 308 312 314
3 314 309 308
3 315 311 310
3 314 315 310
3 312 316 314
3 313 317 312
3 312 317 316
3 318 315 314
3 318 314 316
3 317 319 316
3 319 318 316
CELL_TYPES 578
5
5
5
5
5
5
5
5
5
5
5
5
5
5
5
5
5
5
5
5
5
5
5
5
5
5
5
5
5
5
5
5
5
5
5
5
5
5
5
5
5
5
5
5
5
5
5
5
5
5
5
5
5
5
5
5
5
5
5
5
5
5
5
5
5
5
5
5
5
5
5
5
5
5
5
5
5
5
5
5
5
5
5
5
5
5
5
5
5
5
5
5
5
5
5
5
5
5
5
5
5
5
5
5
5
5
5
5
5
5
5
5
5
5
5
5
5
5
5
5
5
5
5
5
5
5
5
5
5
5
5
5
5
5
5
5
5
5
5
5
5
5
5
5
5
5
5
5
5
5
5
5
5
5
5
5
5
5
5
5
5
5
5
5
5
5
5
5
5
5
5
5
5
5
5
5
5
5
5
5
5
5
5
5
5
5
5
5
5
5
5
5
5
5
5
5
5
5
5
5
5
5
5
5
5
5
5
5
5
5
5
5
5
5
5
5
5
5
5
5
5
5
5
5
5
5
5
5
5
5
5
5
5
5
5
5
5
5
5
5
5
5
5
5
5
5
5
5
5
5
5
5
5
5
5
5
5
5
5
5
5
5
5
5
5
5
5
5
5
5
5
5
5
5
5
5
5
5
5
5
5
5
5
5
5
5
5
5
5
5
5
5
5
5
5
5
5
5
5
5
5
5
5
5
5
5
5
5
5
5
5
5
5
5
5
5
5
5
5
5
5
5
5
5
5
5
5
5
5
5
5
5
5
5
5
5
5
5
5
5
5
5
5
5
5
5
5
5
5
5
5
5
5
5
5
5
5
5
5
5
5
5
5
5
5
5
5
5
5
5
5
5
5
5
5
5
5
5
5
5
5
5
5
5
5
5
5
5
5
5
5
5
5
5
5
5
5
5
5
5
5
5
5
5
5
5
5
5
5
5
5
5
5
5
5
5
5
5
5
5
5
5
5
5
5
5
5
5
5
5
5
5
5
5
5
5
5
5
5
5
5
5
5
5
5
5
5
5
5
5
5
5
5
5
5
5
5
5
5
5
5
5
5
5
5
5
5
5
5
5
5
5
5
5
5
5
5
5
5
5
5
5
5
5
5
5
5
5
5
5
5
5
5
5
5
5
5
5
5
5
5
5
5
5
5
5
5
5
5
5
5
5
5
5
5
5
5
5
5
5
5
5
5
5
5
5
5
5
5
5
5
5
5
5
5
5
5
5
5
5
5
5
5
5
5
5
5
5
5
5
5
5
5
5
5
5
5
5
5
5
5
5
5
5
5
5
5
5
5
5
5
5
5
5
5
5
5
5
POINT_DATA 320
SCALARS theta_e float 1
LOOKUP_TABLE default
1.000027
1.000028
1.000026
1.000024
1.000028
1.000020
1.000026
1.000022
1.000017
1.000027
1.000025
1.000018
1.000021
1.000018
1.000015
1.000015
1.000022
1.000022
1.000019
1.000013
1.000014
1.000013
1.000012
1.000007
1.000011
1.000008
1.000016
1.000016
1.000013
1.000007
1.000008
1.000003
1.000009
0.999999
1.000003
1.000005
1.000006
1.000000
1.000001
0.999999
1.000012
1.000009
1.000001
0.999995
1.000004
1.000009
1.000002
1.000004
1.000012
1.000017
0.999997
1.000001
0.999992
0.999984
0.999987
0.999984
1.000004
0.999992
0.999985
0.999982
1.000008
1.000002
1.000014
1.000011
1.000012
1.000030
1.000013
0.999994
1.000008
1.000009
0.999982
0.999985
0.999976
0.999969
0.999976
0.999996
0.999992
0.999997
1.000019
1.000004
0.999998
1.000020
1.000015
1.000008
1.000038
1.000025
1.000038
0.999965
0.999936
1.000000
0.999978
0.999989
0.999989
0.999968
0.999970
0.999970
0.999966
1.000010
1.000062
1.000011
1.000047
1.000076
1.000006
1.000006
1.000026
1.000004
1.000022
1.000041
1.000026
1.000050
1.000036
1.000039
0.999952
0.999931
0.999923
0.999966
0.999980
0.999970
0.999968
0.999965
0.999963
1.000013
1.000002
1.000062
1.000061
1.000032
1.000028
0.999996
1.000014
0.999991
0.999973
1.000020
1.000047
0.999975
1.000061
1.000037
1.000030
1.000036
1.000035
0.999952
0.999936
0.999966
0.999967
0.999960
0.999957
0.999979
0.999968
1.000052
1.000041
1.000081
1.000018
0.999981
1.000057
0.999990
1.000036
0.999979
0.999983
0.999968
1.000028
1.000020
0.999983
1.000025
1.000035
1.000037
0.999974
0.999961
0.999974
0.999961
0.999960
0.999974
0.999994
1.000030
1.000038
0.999947
1.000025
1.000127
1.000013
1.000011
0.999991
0.999981
0.999995
1.000009
1.000000
1.000023
1.000033
1.000041
0.999990
0.999987
0.999977
0.999962
0.999970
0.999983
1.000003
0.999984
1.000106
1.000015
1.000118
1.000004
0.999984
0.999948
0.999992
1.000021
1.000015
1.000017
1.000029
1.000042
0.999995
1.000001
0.999977
0.999969
0.999976
0.999985
1.000001
0.999997
1.000052
1.000004
1.000002
0.999933
0.999964
1.000019
1.000028
1.000020
1.000021
1.000032
0.999993
1.000003
0.999978
0.999976
0.999974
0.999980
0.999994
1.000012
1.000003
0.999923
0.999941
1.000010
1.000035
1.000021
1.000009
1.000013
0.999989
0.999998
0.999982
0.999982
0.999972
0.999970
0.999959
0.999950
0.999923
0.999940
1.000004
1.000038
1.000021
0.999996
0.999992
0.999989
0.999993
0.999990
0.999989
0.999976
0.999959
0.999942
0.999959
1.000010
1.000038
1.000022
0.999991
0.999978
0.999993
0.999993
0.999995
0.999994
0.999985
0.999979
0.999984
1.000017
1.000035
1.000022
0.999994
0.999977
0.999997
0.999997
0.999995
0.999993
0.999997
1.000009
1.000020
1.000016
1.000002
0.999988
0.999995
0.999999
0.999988
0.999985
0.999993
0.999999
1.000005
1.000007
1.000002
0.999989
0.999996
0.999979
0.999980
0.999991
1.000004
1.000010
0.999980
0.999988
0.999976
0.999981
0.999994
1.000005
0.999974
0.999977
0.999979
0.999990
0.999970
0.999970
0.999975
0.999968
VECTORS fa_u float
0.000000 0.000000 0.000000
0.000000 0.000000 0.000000
0.000000 0.000000 0.000000
0.000000 0.000000 0.000000
0.000000 0.000000 0.000000
0.000000 0.000000 0.000000
0.000000 0.000000 0.000000
0.000000 0.000000 0.000000
0.000000 0.000000 0.000000
0.000000 0.000000 0.000000
0.000000 0.000000 0.000000
0.000000 0.000000 0.000000
0.000000 0.000000 0.000000
0.000000 0.000000 0.000000
0.000000 0.000000 0.000000
0.000000 0.000000 0.000000
0.000000 0.000000 0.000000
0.000000 0.000000 0.000000
0.000000 0.000000 0.000000
0.000000 0.000000 0.000000
0.000000 0.000000 0.000000
0.000000 0.000000 0.000000
0.000000 0.000000 0.000000
0.000000 0.000000 0.000000
0.000000 0.000000 0.000000
0.000000 0.000000 0.000000
0.000000 0.000000 0.000000
0.000000 0.000000 0.000000
0.000000 0.000000 0.000000
0.000000 0.000000 0.000000
0.000000 0.000000 0.000000
0.000000 0.000000 0.000000
0.000000 0.000000 0.000000
0.000000 0.000000 0.000000
0.000000 0.000000 0.000000
0.000000 0.000000 0.000000
0.000000 0.000000 0.000000
0.000000 0.000000 0.000000
0.000000 0.000000 0.000000
0.000000 0.000000 0.000000
0.000000 0.000000 0.000000
0.000000 0.000000 0.000000
0.000000 0.000000 0.000000
0.000000 0.000000 0.000000
0.000000 0.000000 0.000000
0.000000 0.000000 0.000000
0.000000 0.000000 0.000000
0.000000 0.000000 0.000000
0.000000 0.000000 0.000000
0.000000 0.000000 0.000000
0.000000 0.000000 0.000000
0.000000 0.000000 0.000000
0.000000 0.000000 0.000000
0.000000 0.000000 0.000000
0.000000 0.000000 0.000000
0.000000 0.000000 0.000000
0.000000 0.000000 0.000000
0.000000 0.000000 0.000000
0.000000 0.000000 0.000000
0.000000 0.000000 0.000000
0.000000 0.000000 0.000000
0.000000 0.000000 0.000000
0.000000 0.000000 0.000000
0.000000 0.000000 0.000000
0.000000 0.000000 0.000000
0.000000 0.000000 0.000000
0.000000 0.000000 0.000000
0.000000 0.000000 0.000000
0.000000 0.000000 0.000000
0.000000 0.000000 0.000000
0.000000 0.000000 0.000000
0.000000 0.000000 0.000000
0.000000 0.000000 0.000000
0.000000 0.000000 0.000000
0.000000 0.000000 0.000000
0.000000 0.000000 0.000000
0.000000 0.000000 0.000000
0.000000 0.000000 0.000000
0.000000 0.000000 0.000000
0.000000 0.000000 0.000000
0.000000 0.000000 0.000000
0.000000 0.000000 0.000000
0.000000 0.000000 0.000000
0.000000 0.000000 0.000000
0.000000 0.000000 0.000000
0.000000 0.000000 0.000000
0.000000 0.000000 0.000000
0.000000 0.000000 0.000000
0.000000 0.000000 0.000000
0.000000 0.000000 0.000000
0.000000 0.000000 0.000000
0.000000 0.000000 0.000000
0.000000 0.000000 0.000000
0.000000 0.000000 0.000000
0.000000 0.000000 0.000000
0.000000 0.000000 0.000000
0.000000 0.000000 0.000000
0.000000 0.000000 0.000000
0.000000 0.000000 0.000000
0.000000 0.000000 0.000000
0.000000 0.000000 0.000000
0.000000 0.000000 0.000000
0.000000 0.000000 0.000000
0.000000 0.000000 0.000000
0.000000 0.000000 0.000000
0.000000 0.000000 0.000000
0.000000 0.000000 0.000000
0.000000 0.000000 0.000000
0.000000 0.000000 0.000000
0.000000 0.000000 0.000000
0.000000 0.000000 0.000000
0.000000 0.000000 0.000000
0.000000 0.000000 0.000000
0.000000 0.000000 0.000000
0.000000 0.000000 0.000000
0.000000 0.000000 0.000000
0.000000 0.000000 0.000000
0.000000 0.000000 0.000000
0.000000 0.000000 0.000000
0.000000 0.000000 0.000000
0.000000 0.000000 0.000000
0.000000 0.000000 0.000000
0.000000 0.000000 0.000000
0.000000 0.000000 0.000000
0.000000 0.000000 0.000000
0.000000 0.000000 0.000000
0.000000 0.000000 0.000000
0.000000 0.000000 0.000000
0.000000 0.000000 0.000000
0.000000 0.000000 0.000000
0.000000 0.000000 0.000000
0.000000 0.000000 0.000000
0.000000 0.000000 0.000000
0.000000 0.000000 0.000000
0.000000 0.000000 0.000000
0.000000 0.000000 0.000000
0.000000 0.000000 0.000000
0.000000 0.000000 0.000000
0.000000 0.000000 0.000000
0.000000 0.000000 0.000000
0.000000 0.000000 0.000000
0.000000 0.000000 0.000000
0.000000 0.000000 0.000000
0.000000 0.000000 0.000000
0.000000 0.000000 0.000000
0.000000 0.000000 0.000000
0.000000 0.000000 0.000000
0.000000 0.000000 0.000000
0.000000 0.000000 0.000000
0.000000 0.000000 0.000000
0.000000 0.000000 0.000000
0.000000 0.000000 0.000000
0.000000 0.000000 0.000000
0.000000 0.000000 0.000000
0.000000 0.000000 0.000000
0.000000 0.000000 0.000000
0.000000 0.000000 0.000000
0.000000 0.000000 0.000000
0.000000 0.000000 0.000000
0.000000 0.000000 0.000000
0.000000 0.000000 0.000000
0.000000 0.000000 0.000000
0.000000 0.000000 0.000000
0.000000 0.000000 0.000000
0.000000 0.000000 0.000000
0.000000 0.000000 0.000000
0.000000 0.000000 0.000000
0.000000 0.000000 0.000000
0.000000 0.000000 0.000000
0.000000 0.000000 0.000000
0.000000 0.000000 0.000000
0.000000 0.000000 0.000000
0.000000 0.000000 0.000000
0.000000 0.000000 0.000000
0.000000 0.000000 0.000000
0.000000 0.000000 0.000000
0.000000 0.000000 0.000000
0.000000 0.000000 0.000000
0.000000 0.000000 0.000000
0.000000 0.000000 0.000000
0.000000 0.000000 0.000000
0.000000 0.000000 0.000000
0.000000 0.000000 0.000000
0.000000 0.000000 0.000000
0.000000 0.000000 0.000000
0.000000 0.000000 0.000000
0.000000 0.000000 0.000000
0.000000 0.000000 0.000000
0.000000 0.000000 0.000000
0.000000 0.000000 0.000000
0.000000 0.000000 0.000000
0.000000 0.000000 0.000000
0.000000 0.000000 0.000000
0.000000 0.000000 0.000000
0.000000 0.000000 0.000000
0.000000 0.000000 0.000000
0.000000 0.000000 0.000000
0.000000 0.000000 0.000000
0.000000 0.000000 0.000000
0.000000 0.000000 0.000000
0.000000 0.000000 0.000000
0.000000 0.000000 0.000000
0.000000 0.000000 0.000000
0.000000 0.000000 0.000000
0.000000 0.000000 0.000000
0.000000 0.000000 0.000000
0.000000 0.000000 0.000000
0.000000 0.000000 0.000000
0.000000 0.000000 0.000000
0.000000 0.000000 0.000000
0.000000 0.000000 0.000000
0.000000 0.000000 0.000000
0.000000 0.000000 0.000000
0.000000 0.000000 0.000000
0.000000 0.000000 0.000000
0.000000 0.000000 0.000000
0.000000 0.000000 0.000000
0.000000 0.000000 0.000000
0.000000 0.000000 0.000000
0.000000 0.000000 0.000000
0.000000 0.000000 0.000000
0.000000 0.000000 0.000000
0.000000 0.000000 0.000000
0.000000 0.000000 0.000000
0.000000 0.000000 0.000000
0.000000 0.000000 0.000000
0.000000 0.000000 0.000000
0.000000 0.000000 0.000000
0.000000 0.000000 0.000000
0.000000 0.000000 0.000000
0.000000 0.000000 0.000000
0.000000 0.000000 0.000000
0.000000 0.000000 0.000000
0.000000 0.000000 0.000000
0.000000 0.000000 0.000000
0.000000 0.000000 0.000000
0.000000 0.000000 0.000000
0.000000 0.000000 0.000000
0.000000 0.000000 0.000000
0.000000 0.000000 0.000000
0.000000 0.000000 0.000000
0.000000 0.000000 0.000000
0.000000 0.000000 0.000000
0.000000 0.000000 0.000000
0.000000 0.000000 0.000000
0.000000 0.000000 0.000000
0.000000 0.000000 0.000000
0.000000 0.000000 0.000000
0.000000 0.000000 0.000000
0.000000 0.000000 0.000000
0.000000 0.000000 0.000000
0.000000 0.000000 0.000000
0.000000 0.000000 0.000000
0.000000 0.000000 0.000000
0.000000 0.000000 0.000000
0.000000 0.000000 0.000000
0.000000 0.000000 0.000000
0.000000 0.000000 0.000000
0.000000 0.000000 0.000000
0.000000 0.000000 0.000000
0.000000 0.000000 0.000000
0.000000 0.000000 0.000000
0.000000 0.000000 0.000000
0.000000 0.000000 0.000000
0.000000 0.000000 0.000000
0.000000 0.000000 0.000000
0.000000 0.000000 0.000000
0.000000 0.000000 0.000000
0.000000 0.000000 0.000000
0.000000 0.000000 0.000000
0.000000 0.000000 0.000000
0.000000 0.000000 0.000000
0.000000 0.000000 0.000000
0.000000 0.000000 0.000000
0.000000 0.000000 0.000000
0.000000 0.000000 0.000000
0.000000 0.000000 0.000000
0.000000 0.000000 0.000000
0.000000 0.000000 0.000000
0.000000 0.000000 0.000000
0.000000 0.000000 0.000000
0.000000 0.000000 0.000000
0.000000 0.000000 0.000000
0.000000 0.000000 0.000000
0.000000 0.000000 0.000000
0.000000 0.000000 0.000000
0.000000 0.000000 0.000000
0.000000 0.000000 0.000000
0.000000 0.000000 0.000000
0.000000 0.000000 0.000000
0.000000 0.000000 0.000000
0.000000 0.000000 0.000000
0.000000 0.000000 0.000000
0.000000 0.000000 0.000000
0.000000 0.000000 0.000000
0.000000 0.000000 0.000000
0.000000 0.000000 -50.000000
-50.000000 0.000000 -50.000000
-43.333193 0.000000 -45.688224
-45.491054 0.000000 -43.333100
-50.000000 0.000000 -50.000000
-36.666408 0.000000 -36.666310
-50.000000 0.000000 -45.080924
-39.969682 0.000000 -40.026893
-44.152132 0.000000 -29.999628
-50.000000 0.000000 -50.000000
-29.999645 0.000000 -44.846868
-33.448796 0.000000 -33.144636
-44.675480 0.000000 -39.868817
-36.786812 0.000000 -35.128309
-39.801024 0.000000 -23.333056
-50.000000 0.000000 -26.538923
-44.666544 0.000000 -50.000000
-23.332941 0.000000 -44.665089
-26.803778 0.000000 -39.363915
-30.225445 0.000000 -29.605915
-39.359028 0.000000 -33.367800
-33.655070 0.000000 -50.000000
-16.666309 0.000000 -16.666567
-50.000000 0.000000 -10.000113
