# vtk DataFile Version 2.0
CellBP Time: 1.16
ASCII
DATASET UNSTRUCTURED_GRID
POINTS 320 double
-50.000000 -50.000000 0.000000
-50.000000 -43.350889 0.000000
-45.681794 -45.523458 0.000000
-43.287929 -50.000000 0.000000
-50.000000 -36.699598 0.000000
-36.577307 -50.000000 0.000000
-45.073248 -40.033622 0.000000
-40.007085 -44.195290 0.000000
-29.866123 -50.000000 0.000000
-50.000000 -30.047553 0.000000
-44.838758 -33.551623 0.000000
-33.100134 -44.717828 0.000000
-39.844967 -36.872591 0.000000
-35.092467 -39.875600 0.000000
-23.156546 -50.000000 0.000000
-26.477025 -44.709524 0.000000
-50.000000 -23.396781 0.000000
-44.654393 -26.949254 0.000000
-39.336336 -30.354639 0.000000
-29.554190 -39.437358 0.000000
-33.324005 -33.771192 0.000000
-50.000000 -16.745140 0.000000
-16.455470 -50.000000 0.000000
-9.765130 -50.000000 0.000000
-19.889018 -44.630102 0.000000
-23.144294 -39.194845 0.000000
-44.679421 -20.284461 0.000000
-39.335905 -23.700611 0.000000
-34.054874 -27.097836 0.000000
-26.318460 -33.697994 0.000000
-29.089420 -29.081332 0.000000
-50.000000 -10.092714 0.000000
-44.652125 -13.639270 0.000000
-50.000000 -3.441138 0.000000
-3.086426 -50.000000 0.000000
3.578615 -50.000000 0.000000
-13.256804 -44.637570 0.000000
-6.590414 -44.646692 0.000000
-16.604433 -39.229670 0.000000
-20.019161 -33.465072 0.000000
-39.302844 -17.021596 0.000000
-33.964418 -20.481453 0.000000
-28.706784 -23.646351 0.000000
-23.419257 -27.524769 0.000000
-44.616475 -6.975429 0.000000
-39.248323 -10.367660 0.000000
-50.000000 3.216450 0.000000
-44.601339 -0.323589 0.000000
10.229805 -50.000000 0.000000
16.869701 -50.000000 0.000000
0.081321 -44.650295 0.000000
6.746956 -44.661051 0.000000
-9.941694 -39.295862 0.000000
-3.258438 -39.288619 0.000000
-13.377544 -33.912674 0.000000
-16.595403 -28.436355 0.000000
-33.879221 -13.778218 0.000000
-28.512861 -17.143856 0.000000
-23.186623 -20.546501 0.000000
-18.543436 -23.492512 0.000000
-39.208849 -3.712155 0.000000
-33.810857 -7.132309 0.000000
-50.000000 9.909621 0.000000
-44.583928 6.332775 0.000000
-39.187081 2.949071 0.000000
-50.000000 16.672947 0.000000
23.502162 -50.000000 0.000000
30.129840 -50.000000 0.000000
13.405589 -44.682810 0.000000
20.066193 -44.715370 0.000000
3.417442 -39.304123 0.000000
10.075336 -39.338835 0.000000
-6.615089 -33.898880 0.000000
0.089945 -33.925005 0.000000
-9.962185 -28.446933 0.000000
-12.985373 -23.104484 0.000000
-28.410449 -10.537083 0.000000
-22.927575 -13.961791 0.000000
-16.831141 -17.470150 0.000000
-33.755078 -0.494712 0.000000
-28.394636 -3.984483 0.000000
-44.546178 13.026812 0.000000
-39.122373 9.579566 0.000000
-33.719698 6.040357 0.000000
-50.000000 23.543814 0.000000
-44.593514 19.823576 0.000000
-50.000000 30.513458 0.000000
36.753210 -50.000000 0.000000
43.376802 -50.000000 0.000000
26.724787 -44.756155 0.000000
33.360468 -44.882109 0.000000
16.723041 -39.396513 0.000000
23.402512 -39.467773 0.000000
6.760342 -33.960021 0.000000
13.396692 -34.029819 0.000000
-3.205843 -28.496990 0.000000
3.492966 -28.567568 0.000000
-6.471639 -23.028071 0.000000
-9.806055 -17.553012 0.000000
-22.995229 -7.391618 0.000000
-17.613772 -10.661717 0.000000
-12.643360 -12.878841 0.000000
-28.357786 2.577604 0.000000
-23.003783 -0.939315 0.000000
-38.985489 16.273607 0.000000
-28.326781 9.272760 0.000000
-33.506841 12.446859 0.000000
-44.739563 26.593415 0.000000
-38.704130 23.630898 0.000000
-44.982676 33.394451 0.000000
-50.000000 37.468109 0.000000
-50.000000 43.841357 0.000000
39.948121 -45.075069 0.000000
45.481329 -45.663750 0.000000
50.000000 -50.000000 0.000000
36.663295 -40.001056 0.000000
30.067113 -39.483048 0.000000
19.992384 -34.143652 0.000000
26.653700 -34.361196 0.000000
10.112666 -28.607559 0.000000
16.716261 -28.733011 0.000000
0.211202 -23.113314 0.000000
6.957491 -23.283887 0.000000
-3.218455 -17.505630 0.000000
-6.652361 -11.324184 0.000000
-17.611509 -4.232930 0.000000
-12.294306 -7.377289 0.000000
-22.936268 5.497503 0.000000
-17.693346 1.975260 0.000000
-22.598951 11.433674 0.000000
-33.298371 18.477494 0.000000
-27.373862 16.083700 0.000000
-33.016604 23.814868 0.000000
-40.292925 30.519291 0.000000
-35.384966 28.939200 0.000000
-39.906956 35.492577 0.000000
-43.911495 40.167397 0.000000
-45.270685 45.765166 0.000000
-50.000000 50.000000 0.000000
44.128943 -39.912876 0.000000
50.000000 -43.377575 0.000000
39.664881 -35.075563 0.000000
33.510045 -33.461026 0.000000
23.070044 -28.880566 0.000000
28.797484 -29.299607 0.000000
13.584423 -23.220380 0.000000
20.157771 -23.520768 0.000000
3.565537 -17.746191 0.000000
10.273856 -17.959337 0.000000
0.342639 -12.240771 0.000000
-1.924804 -6.527734 0.000000
-7.141959 -4.028755 0.000000
-12.317635 -1.186487 0.000000
-17.696582 8.006108 0.000000
-12.580767 4.792176 0.000000
-17.966879 13.115411 0.000000
-20.723776 16.780655 0.000000
-27.999233 22.486011 0.000000
-23.314757 20.969166 0.000000
-29.709031 28.631087 0.000000
-34.133201 34.072944 0.000000
-36.850962 39.936525 0.000000
-39.622942 45.264959 0.000000
-43.384690 50.000000 0.000000
44.595810 -33.003822 0.000000
50.000000 -36.745969 0.000000
39.161910 -29.621632 0.000000
33.554846 -26.420441 0.000000
27.261756 -23.392167 0.000000
23.163461 -18.734671 0.000000
17.110934 -17.080140 0.000000
6.884350 -12.361360 0.000000
12.497717 -12.851734 0.000000
-3.103618 -1.751124 0.000000
4.141370 -7.216430 0.000000
1.279069 -2.317204 0.000000
-6.707317 2.028008 0.000000
-8.047635 7.509888 0.000000
-12.305561 11.527336 0.000000
-15.033684 17.291934 0.000000
-18.446865 22.696237 0.000000
-23.545702 27.183148 0.000000
-26.923021 33.591371 0.000000
-30.026713 39.305812 0.000000
-33.104656 44.833818 0.000000
-36.609245 50.000000 0.000000
44.562815 -26.542967 0.000000
50.000000 -30.115249 0.000000
39.076944 -23.233079 0.000000
33.511474 -19.964117 0.000000
28.125706 -16.657247 0.000000
22.795795 -13.222112 0.000000
17.316869 -10.027806 0.000000
11.123328 -6.789645 0.000000
-1.072578 2.086650 0.000000
6.466549 -1.890871 0.000000
3.183898 1.421151 0.000000
-3.207738 6.963813 0.000000
-5.866411 12.170262 0.000000
-9.085440 17.416015 0.000000
-12.535957 22.867618 0.000000
-16.761886 28.014485 0.000000
-20.155229 33.344214 0.000000
-23.285659 38.983414 0.000000
-26.431176 44.607127 0.000000
-29.850176 50.000000 0.000000
44.547004 -19.982552 0.000000
50.000000 -23.478939 0.000000
39.080458 -16.657625 0.000000
33.648584 -13.356412 0.000000
28.251851 -10.059374 0.000000
22.858237 -6.714709 0.000000
17.432302 -3.467535 0.000000
12.261713 0.048539 0.000000
2.242580 6.096258 0.000000
7.342794 3.703911 0.000000
0.176416 11.774776 0.000000
-2.825233 17.312441 0.000000
-6.216339 22.798474 0.000000
-10.103527 28.120452 0.000000
-13.318186 33.539472 0.000000
-16.583062 38.989289 0.000000
-19.772904 44.498341 0.000000
-23.138015 50.000000 0.000000
44.559197 -13.361012 0.000000
50.000000 -16.835167 0.000000
39.131750 -10.035507 0.000000
33.728631 -6.721980 0.000000
28.351486 -3.404337 0.000000
23.001182 -0.093759 0.000000
17.743760 3.238694 0.000000
12.491356 6.457439 0.000000
7.057173 10.699200 0.000000
3.664116 17.030173 0.000000
0.306223 22.708398 0.000000
-3.134681 28.201843 0.000000
-6.473977 33.685255 0.000000
-9.810207 39.105063 0.000000
-13.109568 44.527547 0.000000
-16.500141 50.000000 0.000000
44.581935 -6.713777 0.000000
50.000000 -10.181228 0.000000
39.181758 -3.391435 0.000000
33.805468 -0.071610 0.000000
28.464214 3.252017 0.000000
23.180108 6.593243 0.000000
18.059018 9.918741 0.000000
12.925022 12.097904 0.000000
10.083600 17.114461 0.000000
6.788076 22.616898 0.000000
3.504073 28.184298 0.000000
0.191707 33.671396 0.000000
-3.135211 39.122920 0.000000
-6.436607 44.557552 0.000000
-9.855666 50.000000 0.000000
44.607133 -0.055460 0.000000
50.000000 -3.516055 0.000000
39.231331 3.265521 0.000000
33.880614 6.582385 0.000000
28.567328 9.915863 0.000000
23.231986 13.333257 0.000000
17.176182 16.934991 0.000000
13.152204 22.591627 0.000000
10.071061 28.168590 0.000000
6.860263 33.671657 0.000000
3.537107 39.133054 0.000000
0.223102 44.569358 0.000000
-3.204642 50.000000 0.000000
44.621311 6.613451 0.000000
50.000000 3.160252 0.000000
39.266513 9.924201 0.000000
33.948629 13.216900 0.000000
28.684111 16.522077 0.000000
23.559723 20.021583 0.000000
18.735539 23.050538 0.000000
16.599435 28.248544 0.000000
13.539346 33.718502 0.000000
10.198268 39.159274 0.000000
6.884678 44.575225 0.000000
3.448588 50.000000 0.000000
44.644923 13.273711 0.000000
50.000000 9.846457 0.000000
39.319728 16.566277 0.000000
34.033245 19.817637 0.000000
28.745021 22.879709 0.000000
23.441394 27.164648 0.000000
20.072350 33.273215 0.000000
16.749880 39.021933 0.000000
13.454087 44.519082 0.000000
10.102266 50.000000 0.000000
44.667481 19.937688 0.000000
50.000000 16.539219 0.000000
39.363695 23.227395 0.000000
34.138014 26.483412 0.000000
29.090194 28.506325 0.000000
26.335621 33.383711 0.000000
23.207918 38.952555 0.000000
20.039739 44.500685 0.000000
16.752278 50.000000 0.000000
44.673968 26.616498 0.000000
50.000000 23.234207 0.000000
39.355491 29.942663 0.000000
33.305815 33.351839 0.000000
29.519969 39.032227 0.000000
26.539986 44.500835 0.000000
23.401485 50.000000 0.000000
44.806633 33.273627 0.000000
50.000000 29.928619 0.000000
39.793212 36.582821 0.000000
34.909370 39.516324 0.000000
32.918775 44.510008 0.000000
30.051138 50.000000 0.000000
45.007027 39.868037 0.000000
50.000000 36.621161 0.000000
39.788588 43.965001 0.000000
36.699632 50.000000 0.000000
45.645894 45.406756 0.000000
50.000000 43.311049 0.000000
43.349578 50.000000 0.000000
50.000000 50.000000 0.000000
CELLS 578 2312
3 1 0 2
3 0 3 2
3 4 1 6
3 6 1 2
3 3 5 7
3 3 7 2
3 6 2 7
3 9 4 10
3 10 4 6
3 5 8 11
3 7 5 11
3 10 6 12
3 12 6 7
3 7 11 13
3 7 13 12
3 8 14 15
3 11 8 15
3 16 9 17
3 17 9 10
3 17 10 18
3 18 10 12
3 11 15 19
3 13 11 19
3 18 12 20
3 13 19 20
3 20 12 13
3 14 22 24
3 15 14 24
3 15 24 25
3 19 15 25
3 21 16 26
3 26 16 17
3 26 17 27
3 27 17 18
3 27 18 28
3 28 18 20
3 19 25 29
3 19 29 20
3 28 20 30
3 30 20 29
3 31 21 32
3 32 21 26
3 22 23 36
3 24 22 36
3 23 34 37
3 36 23 37
3 24 36 38
3 25 24 38
3 25 38 39
3 29 25 39
3 32 26 40
3 40 26 27
3 40 27 41
3 41 27 28
3 41 28 42
3 42 28 30
3 29 39 43
3 29 43 30
3 42 30 43
3 33 31 44
3 44 31 32
3 44 32 45
3 45 32 40
3 46 33 47
3 47 33 44
3 34 35 50
3 37 34 50
3 35 48 51
3 50 35 51
3 36 37 52
3 38 36 52
3 37 50 53
3 52 37 53
3 38 52 54
3 39 38 54
3 39 54 55
3 43 39 55
3 45 40 56
3 56 40 41
3 56 41 57
3 57 41 42
3 57 42 58
3 58 42 43
3 43 55 59
3 43 59 58
3 47 44 60
3 60 44 45
3 60 45 61
3 61 45 56
3 62 46 63
3 63 46 47
3 63 47 64
3 64 47 60
3 48 49 68
3 51 48 68
3 49 66 69
3 68 49 69
3 50 51 70
3 53 50 70
3 51 68 71
3 70 51 71
3 52 53 72
3 54 52 72
3 53 70 73
3 72 53 73
3 54 72 74
3 55 54 74
3 55 74 75
3 59 55 75
3 61 56 76
3 76 56 57
3 76 57 77
3 77 57 58
3 77 58 78
3 59 75 78
3 78 58 59
3 64 60 79
3 79 60 61
3 79 61 80
3 80 61 76
3 65 62 81
3 81 62 63
3 81 63 82
3 82 63 64
3 82 64 83
3 83 64 79
3 84 65 85
3 85 65 81
3 66 67 89
3 69 66 89
3 67 87 90
3 89 67 90
3 68 69 91
3 71 68 91
3 69 89 92
3 91 69 92
3 70 71 93
3 73 70 93
3 71 91 94
3 93 71 94
3 72 73 95
3 74 72 95
3 73 93 96
3 95 73 96
3 74 95 97
3 75 74 97
3 75 97 98
3 78 75 98
3 80 76 99
3 99 76 77
3 99 77 100
3 100 77 78
3 100 78 101
3 98 101 78
3 83 79 102
3 102 79 80
3 102 80 103
3 103 80 99
3 85 81 104
3 104 81 82
3 105 83 102
3 104 82 106
3 106 82 83
3 106 83 105
3 86 84 107
3 107 84 85
3 107 85 108
3 108 85 104
3 109 86 107
3 110 86 109
3 87 88 112
3 90 87 112
3 112 88 113
3 88 114 113
3 90 112 115
3 89 90 116
3 92 89 116
3 116 90 115
3 91 92 117
3 94 91 117
3 92 116 118
3 117 92 118
3 93 94 119
3 96 93 119
3 94 117 120
3 119 94 120
3 95 96 121
3 97 95 121
3 96 119 122
3 121 96 122
3 97 121 123
3 98 97 123
3 98 123 124
3 98 124 101
3 103 99 125
3 125 99 100
3 125 100 126
3 126 100 101
3 126 101 124
3 105 102 127
3 127 102 103
3 127 103 128
3 128 103 125
3 129 105 127
3 108 104 130
3 130 104 106
3 130 106 131
3 131 106 105
3 131 105 129
3 108 130 132
3 109 107 133
3 133 107 108
3 133 108 134
3 108 132 134
3 135 109 133
3 111 110 136
3 136 110 109
3 136 109 135
3 137 111 136
3 138 111 137
3 112 113 139
3 115 112 139
3 114 140 113
3 140 139 113
3 139 141 115
3 116 115 142
3 118 116 142
3 142 115 141
3 117 118 143
3 120 117 143
3 118 142 144
3 143 118 144
3 119 120 145
3 122 119 145
3 120 143 146
3 145 120 146
3 121 122 147
3 123 121 147
3 122 145 148
3 147 122 148
3 123 147 149
3 124 123 149
3 124 149 150
3 151 126 124
3 124 150 151
3 128 125 152
3 152 125 126
3 152 126 151
3 129 127 153
3 153 127 128
3 128 152 154
3 153 128 154
3 155 129 153
3 131 129 156
3 156 129 155
3 132 130 157
3 130 131 157
3 157 131 158
3 131 156 158
3 132 157 159
3 132 159 134
3 135 133 160
3 160 133 134
3 160 134 159
3 136 135 161
3 135 160 161
3 162 137 136
3 161 162 136
3 163 138 137
3 162 163 137
3 139 164 141
3 140 165 139
3 139 165 164
3 141 164 166
3 141 166 142
3 166 167 142
3 144 142 167
3 167 168 144
3 143 144 168
3 146 143 168
3 168 169 146
3 145 146 170
3 148 145 170
3 170 146 169
3 147 148 171
3 149 147 171
3 148 170 172
3 171 148 172
3 173 151 150
3 149 171 174
3 150 149 174
3 150 174 175
3 150 175 173
3 154 152 176
3 152 151 176
3 176 151 173
3 154 176 177
3 155 153 178
3 177 178 154
3 154 178 153
3 156 155 179
3 155 178 179
3 180 158 156
3 179 180 156
3 181 159 157
3 180 181 158
3 181 157 158
3 182 160 159
3 181 182 159
3 183 161 160
3 182 183 160
3 184 162 161
3 184 161 183
3 185 163 162
3 184 185 162
3 164 186 166
3 165 187 164
3 164 187 186
3 166 186 188
3 166 188 167
3 167 188 189
3 167 189 168
3 168 189 190
3 168 190 169
3 169 190 191
3 169 191 170
3 192 172 170
3 170 191 192
3 192 193 172
3 171 172 193
3 174 171 193
3 194 173 175
3 176 173 194
3 175 174 195
3 193 195 174
3 195 196 175
3 175 196 194
3 197 177 176
3 194 197 176
3 198 178 177
3 197 198 177
3 199 179 178
3 198 199 178
3 200 180 179
3 199 200 179
3 201 181 180
3 200 201 180
3 202 182 181
3 201 202 181
3 203 183 182
3 202 203 182
3 204 184 183
3 203 204 183
3 205 185 184
3 204 205 184
3 186 206 188
3 187 207 186
3 186 207 206
3 188 206 208
3 188 208 189
3 189 208 209
3 189 209 190
3 190 209 210
3 190 210 191
3 191 210 211
3 191 211 192
3 192 211 212
3 192 212 193
3 193 212 213
3 193 213 195
3 214 197 194
3 214 194 196
3 195 213 215
3 195 215 196
3 196 215 214
3 216 198 197
3 214 216 197
3 217 199 198
3 216 217 198
3 218 200 199
3 217 218 199
3 219 201 200
3 218 219 200
3 220 202 201
3 219 220 201
3 221 203 202
3 220 221 202
3 222 204 203
3 221 222 203
3 223 205 204
3 222 223 204
3 206 224 208
3 207 225 206
3 206 225 224
3 208 224 226
3 208 226 209
3 209 226 227
3 209 227 210
3 210 227 228
3 210 228 211
3 211 228 229
3 211 229 212
3 212 229 230
3 212 230 213
3 213 230 231
3 213 231 215
3 232 216 214
3 215 231 232
3 232 214 215
3 233 217 216
3 232 233 216
3 234 218 217
3 233 234 217
3 235 219 218
3 234 235 218
3 236 220 219
3 235 236 219
3 237 221 220
3 236 237 220
3 238 222 221
3 237 238 221
3 239 223 222
3 238 239 222
3 224 240 226
3 225 241 224
3 224 241 240
3 226 240 242
3 226 242 227
3 227 242 243
3 227 243 228
3 228 243 244
3 228 244 229
3 244 245 229
3 229 245 230
3 230 245 246
3 230 246 231
3 231 246 247
3 231 247 232
3 248 233 232
3 248 232 247
3 249 234 233
3 248 249 233
3 250 235 234
3 249 250 234
3 251 236 235
3 250 251 235
3 252 237 236
3 251 252 236
3 253 238 237
3 252 253 237
3 254 239 238
3 253 254 238
3 240 255 242
3 241 256 240
3 240 256 255
3 242 255 257
3 242 257 243
3 243 257 258
3 243 258 244
3 244 258 259
3 244 259 245
3 245 259 260
3 245 260 246
3 246 260 261
3 246 261 247
3 248 247 261
3 262 249 248
3 261 262 248
3 263 250 249
3 262 263 249
3 264 251 250
3 263 264 250
3 265 252 251
3 264 265 251
3 266 253 252
3 265 266 252
3 267 254 253
3 266 267 253
3 255 268 257
3 256 269 255
3 255 269 268
3 257 268 270
3 257 270 258
3 258 270 271
3 258 271 259
3 259 271 272
3 259 272 260
3 260 272 273
3 260 273 261
3 274 262 261
3 261 273 274
3 275 263 262
3 274 275 262
3 276 264 263
3 275 276 263
3 277 265 264
3 276 277 264
3 278 266 265
3 277 278 265
3 279 267 266
3 278 279 266
3 268 280 270
3 269 281 268
3 268 281 280
3 270 280 282
3 270 282 271
3 271 282 283
3 271 283 272
3 283 284 272
3 272 284 273
3 285 275 274
3 273 284 285
3 285 274 273
3 286 276 275
3 285 286 275
3 287 277 276
3 286 287 276
3 288 278 277
3 287 288 277
3 289 279 278
3 288 289 278
3 280 290 282
3 281 291 280
3 280 291 290
3 282 290 292
3 282 292 283
3 283 292 293
3 283 293 284
3 284 293 294
3 284 294 285
3 295 286 285
3 295 285 294
3 296 287 286
3 295 296 286
3 297 288 287
3 296 297 287
3 298 289 288
3 297 298 288
3 290 299 292
3 291 300 290
3 290 300 299
3 292 299 301
3 292 301 293
3 293 301 302
3 293 302 294
3 294 302 295
3 303 296 295
3 303 295 302
3 304 297 296
3 303 304 296
3 305 298 297
3 304 305 297
3 299 306 301
3 300 307 299
3 299 307 306
3 301 306 308
3 301 308 302
3 309 303 302
3 302 308 309
3 310 304 303
3 309 310 303
3 311 305 304
3 310 311 304
3 306 312 308
3 307 313 306
3 306 313 312
3 314 310 309
3 308 312 314
3 314 309 308
3 315 311 310
3 314 315 310
3 312 316 314
3 313 317 312
3 312 317 316
3 318 315 314
3 318 314 316
3 317 319 316
3 319 318 316
CELL_TYPES 578
5
5
5
5
5
5
5
5
5
5
5
5
5
5
5
5
5
5
5
5
5
5
5
5
5
5
5
5
5
5
5
5
5
5
5
5
5
5
5
5
5
5
5
5
5
5
5
5
5
5
5
5
5
5
5
5
5
5
5
5
5
5
5
5
5
5
5
5
5
5
5
5
5
5
5
5
5
5
5
5
5
5
5
5
5
5
5
5
5
5
5
5
5
5
5
5
5
5
5
5
5
5
5
5
5
5
5
5
5
5
5
5
5
5
5
5
5
5
5
5
5
5
5
5
5
5
5
5
5
5
5
5
5
5
5
5
5
5
5
5
5
5
5
5
5
5
5
5
5
5
5
5
5
5
5
5
5
5
5
5
5
5
5
5
5
5
5
5
5
5
5
5
5
5
5
5
5
5
5
5
5
5
5
5
5
5
5
5
5
5
5
5
5
5
5
5
5
5
5
5
5
5
5
5
5
5
5
5
5
5
5
5
5
5
5
5
5
5
5
5
5
5
5
5
5
5
5
5
5
5
5
5
5
5
5
5
5
5
5
5
5
5
5
5
5
5
5
5
5
5
5
5
5
5
5
5
5
5
5
5
5
5
5
5
5
5
5
5
5
5
5
5
5
5
5
5
5
5
5
5
5
5
5
5
5
5
5
5
5
5
5
5
5
5
5
5
5
5
5
5
5
5
5
5
5
5
5
5
5
5
5
5
5
5
5
5
5
5
5
5
5
5
5
5
5
5
5
5
5
5
5
5
5
5
5
5
5
5
5
5
5
5
5
5
5
5
5
5
5
5
5
5
5
5
5
5
5
5
5
5
5
5
5
5
5
5
5
5
5
5
5
5
5
5
5
5
5
5
5
5
5
5
5
5
5
5
5
5
5
5
5
5
5
5
5
5
5
5
5
5
5
5
5
5
5
5
5
5
5
5
5
5
5
5
5
5
5
5
5
5
5
5
5
5
5
5
5
5
5
5
5
5
5
5
5
5
5
5
5
5
5
5
5
5
5
5
5
5
5
5
5
5
5
5
5
5
5
5
5
5
5
5
5
5
5
5
5
5
5
5
5
5
5
5
5
5
5
5
5
5
5
5
5
5
5
5
5
5
5
5
5
5
5
5
5
5
5
5
5
5
5
5
5
5
5
5
5
5
5
5
5
5
5
5
5
5
5
5
5
5
5
5
5
5
5
5
5
5
5
5
5
5
5
5
5
5
5
5
5
5
5
5
5
5
5
5
5
5
5
5
5
5
5
5
5
5
5
5
5
5
5
5
5
5
5
5
5
5
5
5
5
5
5
5
5
5
5
5
POINT_DATA 320
SCALARS theta_e float 1
LOOKUP_TABLE default
0.994881
0.994838
0.994850
0.994838
0.994737
0.994724
0.994772
0.994753
0.994531
0.994591
0.994647
0.994606
0.994652
0.994612
0.994279
0.994384
0.994412
0.994484
0.994507
0.994431
0.994457
0.994207
0.993999
0.993722
0.994123
0.994209
0.994292
0.994331
0.994322
0.994254
0.994250
0.993981
0.994076
0.993738
0.993490
0.993335
0.993848
0.993598
0.993955
0.994025
0.994130
0.994139
0.994097
0.994032
0.993843
0.993910
0.993483
0.993595
0.993273
0.993304
0.993408
0.993302
0.993706
0.993499
0.993795
0.993843
0.993936
0.993924
0.993880
0.993824
0.993673
0.993714
0.993225
0.993340
0.993430
0.992979
0.993413
0.993566
0.993289
0.993360
0.993362
0.993307
0.993591
0.993440
0.993660
0.993681
0.993724
0.993708
0.993673
0.993484
0.993508
0.993092
0.993191
0.993259
0.992752
0.992864
0.992543
0.993722
0.993834
0.993493
0.993650
0.993336
0.993435
0.993360
0.993354
0.993519
0.993434
0.993565
0.993522
0.993505
0.993505
0.993456
0.993295
0.993303
0.992969
0.993100
0.993052
0.992661
0.992777
0.992470
0.992367
0.992246
0.993790
0.993868
0.993882
0.993732
0.993585
0.993415
0.993528
0.993412
0.993445
0.993488
0.993469
0.993432
0.993435
0.993337
0.993378
0.993129
0.993185
0.992990
0.992889
0.992938
0.992770
0.992599
0.992678
0.992463
0.992341
0.992232
0.992185
0.993851
0.993884
0.993799
0.993687
0.993529
0.993627
0.993511
0.993577
0.993449
0.993512
0.993512
0.993505
0.993430
0.993264
0.993041
0.993046
0.992948
0.992901
0.992820
0.992848
0.992715
0.992582
0.992442
0.992330
0.992245
0.993876
0.993888
0.993821
0.993756
0.993691
0.993710
0.993639
0.993626
0.993594
0.993539
0.993481
0.993392
0.993043
0.992847
0.992996
0.992924
0.992864
0.992787
0.992686
0.992574
0.992458
0.992364
0.993913
0.993909
0.993888
0.993853
0.993840
0.993815
0.993739
0.993774
0.993098
0.993748
0.993000
0.992933
0.993053
0.993001
0.992933
0.992869
0.992798
0.992713
0.992611
0.992512
0.993984
0.993958
0.993988
0.993985
0.993976
0.993918
0.993774
0.994019
0.992836
0.993588
0.993254
0.993154
0.993062
0.992995
0.992931
0.992863
0.992775
0.992680
0.994084
0.994039
0.994110
0.994116
0.994095
0.993998
0.993819
0.993865
0.993487
0.993387
0.993247
0.993161
0.993094
0.993030
0.992952
0.992860
0.994202
0.994146
0.994234
0.994231
0.994185
0.994060
0.993889
0.993774
0.993639
0.993475
0.993373
0.993293
0.993223
0.993146
0.993053
0.994322
0.994267
0.994346
0.994322
0.994242
0.994084
0.993873
0.993721
0.993616
0.993522
0.993439
0.993356
0.993260
0.994434
0.994388
0.994440
0.994391
0.994280
0.994112
0.993947
0.993868
0.993767
0.993672
0.993580
0.993479
0.994530
0.994499
0.994513
0.994439
0.994304
0.994124
0.994021
0.993917
0.993816
0.993709
0.994605
0.994592
0.994567
0.994475
0.994338
0.994253
0.994152
0.994050
0.993943
0.994659
0.994662
0.994598
0.994472
0.994363
0.994275
0.994173
0.994696
0.994711
0.994627
0.994533
0.994477
0.994389
0.994716
0.994741
0.994639
0.994576
0.994744
0.994766
0.994706
0.994774
VECTORS fa_u float
0.000000 0.000000 0.000000
0.000000 0.000000 0.000000
0.000000 0.000000 0.000000
0.000000 0.000000 0.000000
0.000000 0.000000 0.000000
0.000000 0.000000 0.000000
0.000000 0.000000 0.000000
0.000000 0.000000 0.000000
0.000000 0.000000 0.000000
0.000000 0.000000 0.000000
0.000000 0.000000 0.000000
0.000000 0.000000 0.000000
0.000000 0.000000 0.000000
0.000000 0.000000 0.000000
0.000000 0.000000 0.000000
0.000000 0.000000 0.000000
0.000000 0.000000 0.000000
0.000000 0.000000 0.000000
0.000000 0.000000 0.000000
0.000000 0.000000 0.000000
0.000000 0.000000 0.000000
0.000000 0.000000 0.000000
0.000000 0.000000 0.000000
0.000000 0.000000 0.000000
0.000000 0.000000 0.000000
0.000000 0.000000 0.000000
0.000000 0.000000 0.000000
0.000000 0.000000 0.000000
0.000000 0.000000 0.000000
0.000000 0.000000 0.000000
0.000000 0.000000 0.000000
0.000000 0.000000 0.000000
0.000000 0.000000 0.000000
0.000000 0.000000 0.000000
0.000000 0.000000 0.000000
0.000000 0.000000 0.000000
0.000000 0.000000 0.000000
0.000000 0.000000 0.000000
0.000000 0.000000 0.000000
0.000000 0.000000 0.000000
0.000000 0.000000 0.000000
0.000000 0.000000 0.000000
0.000000 0.000000 0.000000
0.000000 0.000000 0.000000
0.000000 0.000000 0.000000
0.000000 0.000000 0.000000
0.000000 0.000000 0.000000
0.000000 0.000000 0.000000
0.000000 0.000000 0.000000
0.000000 0.000000 0.000000
0.000000 0.000000 0.000000
0.000000 0.000000 0.000000
0.000000 0.000000 0.000000
0.000000 0.000000 0.000000
0.000000 0.000000 0.000000
0.000000 0.000000 0.000000
0.000000 0.000000 0.000000
0.000000 0.000000 0.000000
0.000000 0.000000 0.000000
0.000000 0.000000 0.000000
0.000000 0.000000 0.000000
0.000000 0.000000 0.000000
0.000000 0.000000 0.000000
0.000000 0.000000 0.000000
0.000000 0.000000 0.000000
0.000000 0.000000 0.000000
0.000000 0.000000 0.000000
0.000000 0.000000 0.000000
0.000000 0.000000 0.000000
0.000000 0.000000 0.000000
0.000000 0.000000 0.000000
0.000000 0.000000 0.000000
0.000000 0.000000 0.000000
0.000000 0.000000 0.000000
0.000000 0.000000 0.000000
0.000000 0.000000 0.000000
0.000000 0.000000 0.000000
0.000000 0.000000 0.000000
0.000000 0.000000 0.000000
0.000000 0.000000 0.000000
0.000000 0.000000 0.000000
0.000000 0.000000 0.000000
0.000000 0.000000 0.000000
0.000000 0.000000 0.000000
0.000000 0.000000 0.000000
0.000000 0.000000 0.000000
0.000000 0.000000 0.000000
0.000000 0.000000 0.000000
0.000000 0.000000 0.000000
0.000000 0.000000 0.000000
0.000000 0.000000 0.000000
0.000000 0.000000 0.000000
0.000000 0.000000 0.000000
0.000000 0.000000 0.000000
0.000000 0.000000 0.000000
0.000000 0.000000 0.000000
0.000000 0.000000 0.000000
0.000000 0.000000 0.000000
0.000000 0.000000 0.000000
0.000000 0.000000 0.000000
0.000000 0.000000 0.000000
0.000000 0.000000 0.000000
0.000000 0.000000 0.000000
0.000000 0.000000 0.000000
0.000000 0.000000 0.000000
0.000000 0.000000 0.000000
0.000000 0.000000 0.000000
0.000000 0.000000 0.000000
0.000000 0.000000 0.000000
0.000000 0.000000 0.000000
0.000000 0.000000 0.000000
0.000000 0.000000 0.000000
0.000000 0.000000 0.000000
0.000000 0.000000 0.000000
0.000000 0.000000 0.000000
0.000000 0.000000 0.000000
0.000000 0.000000 0.000000
0.000000 0.000000 0.000000
0.000000 0.000000 0.000000
0.000000 0.000000 0.000000
0.000000 0.000000 0.000000
0.000000 0.000000 0.000000
0.000000 0.000000 0.000000
0.000000 0.000000 0.000000
0.000000 0.000000 0.000000
0.000000 0.000000 0.000000
0.000000 0.000000 0.000000
0.000000 0.000000 0.000000
0.000000 0.000000 0.000000
0.000000 0.000000 0.000000
0.000000 0.000000 0.000000
0.000000 0.000000 0.000000
0.000000 0.000000 0.000000
0.000000 0.000000 0.000000
0.000000 0.000000 0.000000
0.000000 0.000000 0.000000
0.000000 0.000000 0.000000
0.000000 0.000000 0.000000
0.000000 0.000000 0.000000
0.000000 0.000000 0.000000
0.000000 0.000000 0.000000
0.000000 0.000000 0.000000
0.000000 0.000000 0.000000
0.000000 0.000000 0.000000
0.000000 0.000000 0.000000
0.000000 0.000000 0.000000
0.000000 0.000000 0.000000
0.000000 0.000000 0.000000
0.000000 0.000000 0.000000
0.000000 0.000000 0.000000
0.000000 0.000000 0.000000
0.000000 0.000000 0.000000
0.000000 0.000000 0.000000
0.000000 0.000000 0.000000
0.000000 0.000000 0.000000
0.000000 0.000000 0.000000
0.000000 0.000000 0.000000
0.000000 0.000000 0.000000
0.000000 0.000000 0.000000
0.000000 0.000000 0.000000
0.000000 0.000000 0.000000
0.000000 0.000000 0.000000
0.000000 0.000000 0.000000
0.000000 0.000000 0.000000
0.000000 0.000000 0.000000
0.000000 0.000000 0.000000
0.000000 0.000000 0.000000
0.000000 0.000000 0.000000
0.000000 0.000000 0.000000
0.000000 0.000000 0.000000
0.000000 0.000000 0.000000
0.000000 0.000000 0.000000
0.000000 0.000000 0.000000
0.000000 0.000000 0.000000
0.000000 0.000000 0.000000
0.000000 0.000000 0.000000
0.000000 0.000000 0.000000
0.000000 0.000000 0.000000
0.000000 0.000000 0.000000
0.000000 0.000000 0.000000
0.000000 0.000000 0.000000
0.000000 0.000000 0.000000
0.000000 0.000000 0.000000
0.000000 0.000000 0.000000
0.000000 0.000000 0.000000
0.000000 0.000000 0.000000
0.000000 0.000000 0.000000
0.000000 0.000000 0.000000
0.000000 0.000000 0.000000
0.000000 0.000000 0.000000
0.000000 0.000000 0.000000
0.000000 0.000000 0.000000
0.000000 0.000000 0.000000
0.000000 0.000000 0.000000
0.000000 0.000000 0.000000
0.000000 0.000000 0.000000
0.000000 0.000000 0.000000
0.000000 0.000000 0.000000
0.000000 0.000000 0.000000
0.000000 0.000000 0.000000
0.000000 0.000000 0.000000
0.000000 0.000000 0.000000
0.000000 0.000000 0.000000
0.000000 0.000000 0.000000
0.000000 0.000000 0.000000
0.000000 0.000000 0.000000
0.000000 0.000000 0.000000
0.000000 0.000000 0.000000
0.000000 0.000000 0.000000
0.000000 0.000000 0.000000
0.000000 0.000000 0.000000
0.000000 0.000000 0.000000
0.000000 0.000000 0.000000
0.000000 0.000000 0.000000
0.000000 0.000000 0.000000
0.000000 0.000000 0.000000
0.000000 0.000000 0.000000
0.000000 0.000000 0.000000
0.000000 0.000000 0.000000
0.000000 0.000000 0.000000
0.000000 0.000000 0.000000
0.000000 0.000000 0.000000
0.000000 0.000000 0.000000
0.000000 0.000000 0.000000
0.000000 0.000000 0.000000
0.000000 0.000000 0.000000
0.000000 0.000000 0.000000
0.000000 0.000000 0.000000
0.000000 0.000000 0.000000
0.000000 0.000000 0.000000
0.000000 0.000000 0.000000
0.000000 0.000000 0.000000
0.000000 0.000000 0.000000
0.000000 0.000000 0.000000
0.000000 0.000000 0.000000
0.000000 0.000000 0.000000
0.000000 0.000000 0.000000
0.000000 0.000000 0.000000
0.000000 0.000000 0.000000
0.000000 0.000000 0.000000
0.000000 0.000000 0.000000
0.000000 0.000000 0.000000
0.000000 0.000000 0.000000
0.000000 0.000000 0.000000
0.000000 0.000000 0.000000
0.000000 0.000000 0.000000
0.000000 0.000000 0.000000
0.000000 0.000000 0.000000
0.000000 0.000000 0.000000
0.000000 0.000000 0.000000
0.000000 0.000000 0.000000
0.000000 0.000000 0.000000
0.000000 0.000000 0.000000
0.000000 0.000000 0.000000
0.000000 0.000000 0.000000
0.000000 0.000000 0.000000
0.000000 0.000000 0.000000
0.000000 0.000000 0.000000
0.000000 0.000000 0.000000
0.000000 0.000000 0.000000
0.000000 0.000000 0.000000
0.000000 0.000000 0.000000
0.000000 0.000000 0.000000
0.000000 0.000000 0.000000
0.000000 0.000000 0.000000
0.000000 0.000000 0.000000
0.000000 0.000000 0.000000
0.000000 0.000000 0.000000
0.000000 0.000000 0.000000
0.000000 0.000000 0.000000
0.000000 0.000000 0.000000
0.000000 0.000000 0.000000
0.000000 0.000000 0.000000
0.000000 0.000000 0.000000
0.000000 0.000000 0.000000
0.000000 0.000000 0.000000
0.000000 0.000000 0.000000
0.000000 0.000000 0.000000
0.000000 0.000000 0.000000
0.000000 0.000000 0.000000
0.000000 0.000000 0.000000
0.000000 0.000000 0.000000
0.000000 0.000000 0.000000
0.000000 0.000000 0.000000
0.000000 0.000000 0.000000
0.000000 0.000000 0.000000
0.000000 0.000000 0.000000
0.000000 0.000000 0.000000
0.000000 0.000000 0.000000
0.000000 0.000000 0.000000
0.000000 0.000000 0.000000
0.000000 0.000000 0.000000
0.000000 0.000000 0.000000
0.000000 0.000000 0.000000
0.000000 0.000000 0.000000
0.000000 0.000000 0.000000
0.000000 0.000000 -50.000000
-50.000000 0.000000 -50.000000
-43.350889 0.000000 -45.681794
-45.523458 0.000000 -43.287929
-50.000000 0.000000 -50.000000
-36.699598 0.000000 -36.577307
-50.000000 0.000000 -45.073248
-40.033622 0.000000 -40.007085
-44.195290 0.000000 -29.866123
-50.000000 0.000000 -50.000000
-30.047553 0.000000 -44.838758
-33.551623 0.000000 -33.100134
-44.717828 0.000000 -39.844967
-36.872591 0.000000 -35.092467
-39.875600 0.000000 -23.156546
-50.000000 0.000000 -26.477025
-44.709524 0.000000 -50.000000
-23.396781 0.000000 -44.654393
-26.949254 0.000000 -39.336336
-30.354639 0.000000 -29.554190
-39.437358 0.000000 -33.324005
-33.771192 0.000000 -50.000000
-16.745140 0.000000 -16.455470
-50.000000 0.000000 -9.765130
