# vtk DataFile Version 2.0
CellBP Time: 1.56
ASCII
DATASET UNSTRUCTURED_GRID
POINTS 320 double
-50.000000 -50.000000 0.000000
-50.000000 -43.354906 0.000000
-45.671486 -45.532342 0.000000
-43.261986 -50.000000 0.000000
-50.000000 -36.708107 0.000000
-36.526052 -50.000000 0.000000
-45.061267 -40.050623 0.000000
-39.981574 -44.206773 0.000000
-29.791729 -50.000000 0.000000
-50.000000 -30.059662 0.000000
-44.826246 -33.578542 0.000000
-33.054440 -44.728831 0.000000
-39.818255 -36.895319 0.000000
-35.053292 -39.894680 0.000000
-23.061506 -50.000000 0.000000
-26.414857 -44.719980 0.000000
-50.000000 -23.411308 0.000000
-44.641867 -26.985223 0.000000
-39.309101 -30.386513 0.000000
-29.501523 -39.457088 0.000000
-33.281096 -33.799079 0.000000
-50.000000 -16.760891 0.000000
-16.343464 -50.000000 0.000000
-9.640356 -50.000000 0.000000
-19.812582 -44.640586 0.000000
-23.076201 -39.215103 0.000000
-44.667353 -20.327144 0.000000
-39.310044 -23.739992 0.000000
-34.014650 -27.133504 0.000000
-26.259600 -33.726981 0.000000
-29.036975 -29.115449 0.000000
-50.000000 -10.109473 0.000000
-44.639806 -13.687152 0.000000
-50.000000 -3.458832 0.000000
-2.952875 -50.000000 0.000000
3.715814 -50.000000 0.000000
-13.168270 -44.648154 0.000000
-6.492162 -44.658442 0.000000
-16.522618 -39.249808 0.000000
-19.946438 -33.494899 0.000000
-39.277159 -17.066843 0.000000
-33.926032 -20.524477 0.000000
-28.654972 -23.687361 0.000000
-23.354424 -27.563355 0.000000
-44.603522 -7.027148 0.000000
-39.221607 -10.417626 0.000000
-50.000000 3.198261 0.000000
-44.587989 -0.377306 0.000000
10.364456 -50.000000 0.000000
16.995195 -50.000000 0.000000
0.186031 -44.663014 0.000000
6.853726 -44.674311 0.000000
-9.847879 -39.318093 0.000000
-3.156074 -39.313495 0.000000
-13.290772 -33.944109 0.000000
-16.515360 -28.477043 0.000000
-33.839589 -13.827403 0.000000
-28.460827 -17.192642 0.000000
-23.122168 -20.594967 0.000000
-18.468865 -23.540111 0.000000
-39.181510 -3.765164 0.000000
-33.770227 -7.185649 0.000000
-50.000000 9.892359 0.000000
-44.570990 6.279150 0.000000
-39.159997 2.895311 0.000000
-50.000000 16.658855 0.000000
23.612162 -50.000000 0.000000
30.218363 -50.000000 0.000000
13.509238 -44.696352 0.000000
20.161117 -44.729151 0.000000
3.524246 -39.330668 0.000000
10.181678 -39.366369 0.000000
-6.517197 -33.933965 0.000000
0.194270 -33.963149 0.000000
-9.869603 -28.490940 0.000000
-12.900578 -23.156520 0.000000
-28.357008 -10.591123 0.000000
-22.862239 -14.016829 0.000000
-16.754585 -17.525948 0.000000
-33.714539 -0.549786 0.000000
-28.341003 -4.041554 0.000000
-44.534399 12.975830 0.000000
-39.097150 9.527176 0.000000
-33.680301 5.985877 0.000000
-50.000000 23.532459 0.000000
-44.581551 19.778098 0.000000
-50.000000 30.504450 0.000000
36.814800 -50.000000 0.000000
43.408197 -50.000000 0.000000
26.805375 -44.769758 0.000000
33.421995 -44.894983 0.000000
16.823362 -39.424526 0.000000
23.490757 -39.495942 0.000000
6.866700 -34.000161 0.000000
13.499871 -34.070842 0.000000
-3.104857 -28.544623 0.000000
3.598037 -28.618772 0.000000
-6.376105 -23.083872 0.000000
-9.718324 -17.615144 0.000000
-22.928822 -7.450579 0.000000
-17.537007 -10.721468 0.000000
-12.559508 -12.942266 0.000000
-28.304697 2.519387 0.000000
-22.937446 -1.000929 0.000000
-38.962348 16.224364 0.000000
-28.276614 9.216068 0.000000
-33.469463 12.394322 0.000000
-44.727395 26.556521 0.000000
-38.681031 23.590104 0.000000
-44.974295 33.368234 0.000000
-50.000000 37.464661 0.000000
-50.000000 43.841477 0.000000
39.986349 -45.087909 0.000000
45.497610 -45.674932 0.000000
50.000000 -50.000000 0.000000
36.713510 -40.028335 0.000000
30.138011 -39.511342 0.000000
20.086556 -34.184829 0.000000
26.733440 -34.402469 0.000000
10.217004 -28.660467 0.000000
16.814428 -28.786264 0.000000
0.313706 -23.173428 0.000000
7.061771 -23.347114 0.000000
-3.120717 -17.573580 0.000000
-6.557664 -11.400153 0.000000
-17.532516 -4.296311 0.000000
-12.204709 -7.445638 0.000000
-22.872924 5.436200 0.000000
-17.616776 1.909911 0.000000
-22.541785 11.376791 0.000000
-33.264423 18.429196 0.000000
-27.327295 16.032669 0.000000
-32.984346 23.773323 0.000000
-40.275035 30.489871 0.000000
-35.359436 28.906438 0.000000
-39.889614 35.469638 0.000000
-43.900525 40.149788 0.000000
-45.260891 45.757377 0.000000
-50.000000 50.000000 0.000000
44.150570 -39.940140 0.000000
50.000000 -43.403604 0.000000
39.702972 -35.116091 0.000000
33.569735 -33.505373 0.000000
23.157116 -28.934578 0.000000
28.870734 -29.353045 0.000000
13.684978 -23.284882 0.000000
20.249689 -23.585833 0.000000
3.668822 -17.818034 0.000000
10.376062 -18.032098 0.000000
0.445524 -12.320204 0.000000
-1.812703 -6.615155 0.000000
-7.034741 -4.112170 0.000000
-12.225671 -1.260304 0.000000
-17.627257 7.943788 0.000000
-12.499668 4.721088 0.000000
-17.904451 13.057012 0.000000
-20.668316 16.728639 0.000000
-27.957012 22.443272 0.000000
-23.264569 20.924281 0.000000
-29.674117 28.596635 0.000000
-34.106442 34.047034 0.000000
-36.827308 39.919988 0.000000
-39.603528 45.256490 0.000000
-43.381451 50.000000 0.000000
44.615236 -33.050349 0.000000
50.000000 -36.795520 0.000000
39.202030 -29.675409 0.000000
33.613800 -26.481062 0.000000
27.338313 -23.458214 0.000000
23.247739 -18.808171 0.000000
17.206071 -17.155138 0.000000
6.987134 -12.441003 0.000000
12.597053 -12.930800 0.000000
-2.994981 -1.838682 0.000000
4.254781 -7.303030 0.000000
1.385357 -2.403815 0.000000
-6.614662 1.947806 0.000000
-7.965974 7.439052 0.000000
-12.232468 11.461173 0.000000
-14.969052 17.233357 0.000000
-18.389783 22.650189 0.000000
-23.499554 27.146324 0.000000
-26.883165 33.562049 0.000000
-29.991226 39.285419 0.000000
-33.073147 44.823711 0.000000
-36.600796 50.000000 0.000000
44.582588 -26.604604 0.000000
50.000000 -30.186897 0.000000
39.116724 -23.301144 0.000000
33.569807 -20.036731 0.000000
28.198469 -16.734891 0.000000
22.880283 -13.303093 0.000000
17.411024 -10.111491 0.000000
11.226153 -6.873712 0.000000
-0.983899 2.004409 0.000000
6.573374 -1.974002 0.000000
3.277523 1.340887 0.000000
-3.122661 6.892705 0.000000
-5.786790 12.100971 0.000000
-9.012950 17.353716 0.000000
-12.471350 22.815631 0.000000
-16.704964 27.973187 0.000000
-20.103404 33.311898 0.000000
-23.239290 38.961143 0.000000
-26.388694 44.595666 0.000000
-29.836893 50.000000 0.000000
44.566569 -20.056775 0.000000
50.000000 -23.569649 0.000000
39.119853 -16.736814 0.000000
33.705707 -13.438886 0.000000
28.323261 -10.145443 0.000000
22.941389 -6.801895 0.000000
17.524838 -3.554486 0.000000
12.360894 -0.037089 0.000000
2.331690 6.014639 0.000000
7.445696 3.619402 0.000000
0.265009 11.697126 0.000000
-2.745811 17.242809 0.000000
-6.143910 22.740427 0.000000
-10.037091 28.073107 0.000000
-13.256889 33.502825 0.000000
-16.527252 38.965176 0.000000
-19.720989 44.486015 0.000000
-23.120469 50.000000 0.000000
44.578520 -13.444451 0.000000
50.000000 -16.940936 0.000000
39.170123 -10.122216 0.000000
33.783326 -6.810463 0.000000
28.420067 -3.493795 0.000000
23.081190 -0.182102 0.000000
17.832227 3.152836 0.000000
12.584705 6.373435 0.000000
7.149042 10.614494 0.000000
3.747018 16.955953 0.000000
0.382741 22.645162 0.000000
-3.062278 28.150989 0.000000
-6.406589 33.646579 0.000000
-9.748062 39.079599 0.000000
-13.050638 44.515032 0.000000
-16.478482 50.000000 0.000000
44.600668 -6.802764 0.000000
50.000000 -10.297259 0.000000
39.218185 -3.482009 0.000000
33.857262 -0.161831 0.000000
28.529056 3.163368 0.000000
23.254942 6.507640 0.000000
18.139766 9.837698 0.000000
13.008541 12.019076 0.000000
10.162475 17.041140 0.000000
6.863756 22.553455 0.000000
3.576862 28.132549 0.000000
0.261266 33.632587 0.000000
-3.069551 39.096993 0.000000
-6.372871 44.544858 0.000000
-9.830049 50.000000 0.000000
44.624887 -0.146278 0.000000
50.000000 -3.637335 0.000000
39.265524 3.175089 0.000000
33.929060 6.494539 0.000000
28.627377 9.831603 0.000000
23.300378 13.253840 0.000000
17.250214 16.862044 0.000000
13.224559 22.527537 0.000000
10.142005 28.116120 0.000000
6.929757 33.632094 0.000000
3.604504 39.106694 0.000000
0.289646 44.556430 0.000000
-3.175711 50.000000 0.000000
44.638013 6.524654 0.000000
50.000000 3.038745 0.000000
39.298237 9.837893 0.000000
33.993025 13.135219 0.000000
28.738495 16.445806 0.000000
23.621374 19.951993 0.000000
18.802263 22.987352 0.000000
16.664618 28.195667 0.000000
13.604933 33.678871 0.000000
10.264002 39.133349 0.000000
6.951336 44.562724 0.000000
3.479625 50.000000 0.000000
44.660591 13.190525 0.000000
50.000000 9.729729 0.000000
39.348934 16.487456 0.000000
34.073798 19.745276 0.000000
28.794830 22.814630 0.000000
23.497790 27.109259 0.000000
20.131520 33.231976 0.000000
16.811463 38.995029 0.000000
13.518655 44.506278 0.000000
10.134537 50.000000 0.000000
44.682359 19.863408 0.000000
50.000000 16.432027 0.000000
39.391307 23.158940 0.000000
34.176834 26.423125 0.000000
29.138021 28.451796 0.000000
26.387069 33.340101 0.000000
23.263223 38.923593 0.000000
20.099214 44.486937 0.000000
16.784274 50.000000 0.000000
44.688607 26.554418 0.000000
50.000000 23.141067 0.000000
39.382675 29.888057 0.000000
33.346180 33.307234 0.000000
29.565688 39.002114 0.000000
26.590735 44.486411 0.000000
23.430554 50.000000 0.000000
44.820857 33.226739 0.000000
50.000000 29.854028 0.000000
39.818965 36.545079 0.000000
34.945610 39.487714 0.000000
32.958249 44.494796 0.000000
30.074990 50.000000 0.000000
45.020510 39.839268 0.000000
50.000000 36.569175 0.000000
39.814908 43.948090 0.000000
36.716381 50.000000 0.000000
45.657427 45.394368 0.000000
50.000000 43.284550 0.000000
43.356514 50.000000 0.000000
50.000000 50.000000 0.000000
CELLS 578 2312
3 1 0 2
3 0 3 2
3 4 1 6
3 6 1 2
3 3 5 7
3 3 7 2
3 6 2 7
3 9 4 10
3 10 4 6
3 5 8 11
3 7 5 11
3 10 6 12
3 12 6 7
3 7 11 13
3 7 13 12
3 8 14 15
3 11 8 15
3 16 9 17
3 17 9 10
3 17 10 18
3 18 10 12
3 11 15 19
3 13 11 19
3 18 12 20
3 13 19 20
3 20 12 13
3 14 22 24
3 15 14 24
3 15 24 25
3 19 15 25
3 21 16 26
3 26 16 17
3 26 17 27
3 27 17 18
3 27 18 28
3 28 18 20
3 19 25 29
3 19 29 20
3 28 20 30
3 30 20 29
3 31 21 32
3 32 21 26
3 22 23 36
3 24 22 36
3 23 34 37
3 36 23 37
3 24 36 38
3 25 24 38
3 25 38 39
3 29 25 39
3 32 26 40
3 40 26 27
3 40 27 41
3 41 27 28
3 41 28 42
3 42 28 30
3 29 39 43
3 29 43 30
3 42 30 43
3 33 31 44
3 44 31 32
3 44 32 45
3 45 32 40
3 46 33 47
3 47 33 44
3 34 35 50
3 37 34 50
3 35 48 51
3 50 35 51
3 36 37 52
3 38 36 52
3 37 50 53
3 52 37 53
3 38 52 54
3 39 38 54
3 39 54 55
3 43 39 55
3 45 40 56
3 56 40 41
3 56 41 57
3 57 41 42
3 57 42 58
3 58 42 43
3 43 55 59
3 43 59 58
3 47 44 60
3 60 44 45
3 60 45 61
3 61 45 56
3 62 46 63
3 63 46 47
3 63 47 64
3 64 47 60
3 48 49 68
3 51 48 68
3 49 66 69
3 68 49 69
3 50 51 70
3 53 50 70
3 51 68 71
3 70 51 71
3 52 53 72
3 54 52 72
3 53 70 73
3 72 53 73
3 54 72 74
3 55 54 74
3 55 74 75
3 59 55 75
3 61 56 76
3 76 56 57
3 76 57 77
3 77 57 58
3 77 58 78
3 59 75 78
3 78 58 59
3 64 60 79
3 79 60 61
3 79 61 80
3 80 61 76
3 65 62 81
3 81 62 63
3 81 63 82
3 82 63 64
3 82 64 83
3 83 64 79
3 84 65 85
3 85 65 81
3 66 67 89
3 69 66 89
3 67 87 90
3 89 67 90
3 68 69 91
3 71 68 91
3 69 89 92
3 91 69 92
3 70 71 93
3 73 70 93
3 71 91 94
3 93 71 94
3 72 73 95
3 74 72 95
3 73 93 96
3 95 73 96
3 74 95 97
3 75 74 97
3 75 97 98
3 78 75 98
3 80 76 99
3 99 76 77
3 99 77 100
3 100 77 78
3 100 78 101
3 98 101 78
3 83 79 102
3 102 79 80
3 102 80 103
3 103 80 99
3 85 81 104
3 104 81 82
3 105 83 102
3 104 82 106
3 106 82 83
3 106 83 105
3 86 84 107
3 107 84 85
3 107 85 108
3 108 85 104
3 109 86 107
3 110 86 109
3 87 88 112
3 90 87 112
3 112 88 113
3 88 114 113
3 90 112 115
3 89 90 116
3 92 89 116
3 116 90 115
3 91 92 117
3 94 91 117
3 92 116 118
3 117 92 118
3 93 94 119
3 96 93 119
3 94 117 120
3 119 94 120
3 95 96 121
3 97 95 121
3 96 119 122
3 121 96 122
3 97 121 123
3 98 97 123
3 98 123 124
3 98 124 101
3 103 99 125
3 125 99 100
3 125 100 126
3 126 100 101
3 126 101 124
3 105 102 127
3 127 102 103
3 127 103 128
3 128 103 125
3 129 105 127
3 108 104 130
3 130 104 106
3 130 106 131
3 131 106 105
3 131 105 129
3 108 130 132
3 109 107 133
3 133 107 108
3 133 108 134
3 108 132 134
3 135 109 133
3 111 110 136
3 136 110 109
3 136 109 135
3 137 111 136
3 138 111 137
3 112 113 139
3 115 112 139
3 114 140 113
3 140 139 113
3 139 141 115
3 116 115 142
3 118 116 142
3 142 115 141
3 117 118 143
3 120 117 143
3 118 142 144
3 143 118 144
3 119 120 145
3 122 119 145
3 120 143 146
3 145 120 146
3 121 122 147
3 123 121 147
3 122 145 148
3 147 122 148
3 123 147 149
3 124 123 149
3 124 149 150
3 151 126 124
3 124 150 151
3 128 125 152
3 152 125 126
3 152 126 151
3 129 127 153
3 153 127 128
3 128 152 154
3 153 128 154
3 155 129 153
3 131 129 156
3 156 129 155
3 132 130 157
3 130 131 157
3 157 131 158
3 131 156 158
3 132 157 159
3 132 159 134
3 135 133 160
3 160 133 134
3 160 134 159
3 136 135 161
3 135 160 161
3 162 137 136
3 161 162 136
3 163 138 137
3 162 163 137
3 139 164 141
3 140 165 139
3 139 165 164
3 141 164 166
3 141 166 142
3 166 167 142
3 144 142 167
3 167 168 144
3 143 144 168
3 146 143 168
3 168 169 146
3 145 146 170
3 148 145 170
3 170 146 169
3 147 148 171
3 149 147 171
3 148 170 172
3 171 148 172
3 173 151 150
3 149 171 174
3 150 149 174
3 150 174 175
3 150 175 173
3 154 152 176
3 152 151 176
3 176 151 173
3 154 176 177
3 155 153 178
3 177 178 154
3 154 178 153
3 156 155 179
3 155 178 179
3 180 158 156
3 179 180 156
3 181 159 157
3 180 181 158
3 181 157 158
3 182 160 159
3 181 182 159
3 183 161 160
3 182 183 160
3 184 162 161
3 184 161 183
3 185 163 162
3 184 185 162
3 164 186 166
3 165 187 164
3 164 187 186
3 166 186 188
3 166 188 167
3 167 188 189
3 167 189 168
3 168 189 190
3 168 190 169
3 169 190 191
3 169 191 170
3 192 172 170
3 170 191 192
3 192 193 172
3 171 172 193
3 174 171 193
3 194 173 175
3 176 173 194
3 175 174 195
3 193 195 174
3 195 196 175
3 175 196 194
3 197 177 176
3 194 197 176
3 198 178 177
3 197 198 177
3 199 179 178
3 198 199 178
3 200 180 179
3 199 200 179
3 201 181 180
3 200 201 180
3 202 182 181
3 201 202 181
3 203 183 182
3 202 203 182
3 204 184 183
3 203 204 183
3 205 185 184
3 204 205 184
3 186 206 188
3 187 207 186
3 186 207 206
3 188 206 208
3 188 208 189
3 189 208 209
3 189 209 190
3 190 209 210
3 190 210 191
3 191 210 211
3 191 211 192
3 192 211 212
3 192 212 193
3 193 212 213
3 193 213 195
3 214 197 194
3 214 194 196
3 195 213 215
3 195 215 196
3 196 215 214
3 216 198 197
3 214 216 197
3 217 199 198
3 216 217 198
3 218 200 199
3 217 218 199
3 219 201 200
3 218 219 200
3 220 202 201
3 219 220 201
3 221 203 202
3 220 221 202
3 222 204 203
3 221 222 203
3 223 205 204
3 222 223 204
3 206 224 208
3 207 225 206
3 206 225 224
3 208 224 226
3 208 226 209
3 209 226 227
3 209 227 210
3 210 227 228
3 210 228 211
3 211 228 229
3 211 229 212
3 212 229 230
3 212 230 213
3 213 230 231
3 213 231 215
3 232 216 214
3 215 231 232
3 232 214 215
3 233 217 216
3 232 233 216
3 234 218 217
3 233 234 217
3 235 219 218
3 234 235 218
3 236 220 219
3 235 236 219
3 237 221 220
3 236 237 220
3 238 222 221
3 237 238 221
3 239 223 222
3 238 239 222
3 224 240 226
3 225 241 224
3 224 241 240
3 226 240 242
3 226 242 227
3 227 242 243
3 227 243 228
3 228 243 244
3 228 244 229
3 244 245 229
3 229 245 230
3 230 245 246
3 230 246 231
3 231 246 247
3 231 247 232
3 248 233 232
3 248 232 247
3 249 234 233
3 248 249 233
3 250 235 234
3 249 250 234
3 251 236 235
3 250 251 235
3 252 237 236
3 251 252 236
3 253 238 237
3 252 253 237
3 254 239 238
3 253 254 238
3 240 255 242
3 241 256 240
3 240 256 255
3 242 255 257
3 242 257 243
3 243 257 258
3 243 258 244
3 244 258 259
3 244 259 245
3 245 259 260
3 245 260 246
3 246 260 261
3 246 261 247
3 248 247 261
3 262 249 248
3 261 262 248
3 263 250 249
3 262 263 249
3 264 251 250
3 263 264 250
3 265 252 251
3 264 265 251
3 266 253 252
3 265 266 252
3 267 254 253
3 266 267 253
3 255 268 257
3 256 269 255
3 255 269 268
3 257 268 270
3 257 270 258
3 258 270 271
3 258 271 259
3 259 271 272
3 259 272 260
3 260 272 273
3 260 273 261
3 274 262 261
3 261 273 274
3 275 263 262
3 274 275 262
3 276 264 263
3 275 276 263
3 277 265 264
3 276 277 264
3 278 266 265
3 277 278 265
3 279 267 266
3 278 279 266
3 268 280 270
3 269 281 268
3 268 281 280
3 270 280 282
3 270 282 271
3 271 282 283
3 271 283 272
3 283 284 272
3 272 284 273
3 285 275 274
3 273 284 285
3 285 274 273
3 286 276 275
3 285 286 275
3 287 277 276
3 286 287 276
3 288 278 277
3 287 288 277
3 289 279 278
3 288 289 278
3 280 290 282
3 281 291 280
3 280 291 290
3 282 290 292
3 282 292 283
3 283 292 293
3 283 293 284
3 284 293 294
3 284 294 285
3 295 286 285
3 295 285 294
3 296 287 286
3 295 296 286
3 297 288 287
3 296 297 287
3 298 289 288
3 297 298 288
3 290 299 292
3 291 300 290
3 290 300 299
3 292 299 301
3 292 301 293
3 293 301 302
3 293 302 294
3 294 302 295
3 303 296 295
3 303 295 302
3 304 297 296
3 303 304 296
3 305 298 297
3 304 305 297
3 299 306 301
3 300 307 299
3 299 307 306
3 301 306 308
3 301 308 302
3 309 303 302
3 302 308 309
3 310 304 303
3 309 310 303
3 311 305 304
3 310 311 304
3 306 312 308
3 307 313 306
3 306 313 312
3 314 310 309
3 308 312 314
3 314 309 308
3 315 311 310
3 314 315 310
3 312 316 314
3 313 317 312
3 312 317 316
3 318 315 314
3 318 314 316
3 317 319 316
3 319 318 316
CELL_TYPES 578
5
5
5
5
5
5
5
5
5
5
5
5
5
5
5
5
5
5
5
5
5
5
5
5
5
5
5
5
5
5
5
5
5
5
5
5
5
5
5
5
5
5
5
5
5
5
5
5
5
5
5
5
5
5
5
5
5
5
5
5
5
5
5
5
5
5
5
5
5
5
5
5
5
5
5
5
5
5
5
5
5
5
5
5
5
5
5
5
5
5
5
5
5
5
5
5
5
5
5
5
5
5
5
5
5
5
5
5
5
5
5
5
5
5
5
5
5
5
5
5
5
5
5
5
5
5
5
5
5
5
5
5
5
5
5
5
5
5
5
5
5
5
5
5
5
5
5
5
5
5
5
5
5
5
5
5
5
5
5
5
5
5
5
5
5
5
5
5
5
5
5
5
5
5
5
5
5
5
5
5
5
5
5
5
5
5
5
5
5
5
5
5
5
5
5
5
5
5
5
5
5
5
5
5
5
5
5
5
5
5
5
5
5
5
5
5
5
5
5
5
5
5
5
5
5
5
5
5
5
5
5
5
5
5
5
5
5
5
5
5
5
5
5
5
5
5
5
5
5
5
5
5
5
5
5
5
5
5
5
5
5
5
5
5
5
5
5
5
5
5
5
5
5
5
5
5
5
5
5
5
5
5
5
5
5
5
5
5
5
5
5
5
5
5
5
5
5
5
5
5
5
5
5
5
5
5
5
5
5
5
5
5
5
5
5
5
5
5
5
5
5
5
5
5
5
5
5
5
5
5
5
5
5
5
5
5
5
5
5
5
5
5
5
5
5
5
5
5
5
5
5
5
5
5
5
5
5
5
5
5
5
5
5
5
5
5
5
5
5
5
5
5
5
5
5
5
5
5
5
5
5
5
5
5
5
5
5
5
5
5
5
5
5
5
5
5
5
5
5
5
5
5
5
5
5
5
5
5
5
5
5
5
5
5
5
5
5
5
5
5
5
5
5
5
5
5
5
5
5
5
5
5
5
5
5
5
5
5
5
5
5
5
5
5
5
5
5
5
5
5
5
5
5
5
5
5
5
5
5
5
5
5
5
5
5
5
5
5
5
5
5
5
5
5
5
5
5
5
5
5
5
5
5
5
5
5
5
5
5
5
5
5
5
5
5
5
5
5
5
5
5
5
5
5
5
5
5
5
5
5
5
5
5
5
5
5
5
5
5
5
5
5
5
5
5
5
5
5
5
5
5
5
5
5
5
5
5
5
5
5
5
5
5
5
5
5
5
5
5
5
5
5
5
5
5
5
5
5
5
5
5
5
5
5
5
5
5
5
5
5
5
5
5
5
5
5
5
5
POINT_DATA 320
SCALARS theta_e float 1
LOOKUP_TABLE default
0.995958
0.995971
0.995932
0.995856
0.995961
0.995599
0.995916
0.995754
0.995137
0.995951
0.995910
0.995382
0.995759
0.995545
0.994532
0.994859
0.995948
0.995904
0.995750
0.995140
0.995444
0.995961
0.993791
0.992930
0.994194
0.994571
0.995913
0.995770
0.995525
0.994917
0.995181
0.995993
0.995940
0.996040
0.991987
0.991016
0.993394
0.992489
0.993860
0.994295
0.995799
0.995555
0.995193
0.994697
0.995985
0.995851
0.996089
0.996041
0.990074
0.989212
0.991529
0.990571
0.993012
0.992088
0.993525
0.993996
0.995623
0.995291
0.994845
0.994367
0.995920
0.995716
0.996128
0.996092
0.995993
0.996152
0.988468
0.987867
0.989668
0.988865
0.991139
0.990220
0.992667
0.991753
0.993230
0.993769
0.995419
0.994990
0.994384
0.995818
0.995560
0.996128
0.996056
0.995913
0.996161
0.996147
0.996142
0.987420
0.987147
0.988190
0.987667
0.989375
0.988643
0.990841
0.989984
0.992383
0.991504
0.993017
0.993640
0.995189
0.994693
0.994145
0.995691
0.995362
0.996102
0.995806
0.995989
0.996148
0.996129
0.996123
0.996107
0.996087
0.987307
0.987113
0.987052
0.987596
0.988042
0.989211
0.988557
0.990649
0.989878
0.992191
0.991364
0.992902
0.993622
0.994897
0.994395
0.995525
0.995124
0.995674
0.996052
0.995902
0.996098
0.996133
0.996126
0.996122
0.996104
0.996087
0.996081
0.987322
0.987144
0.987641
0.988068
0.989193
0.988651
0.990585
0.989886
0.992103
0.991359
0.992778
0.993424
0.994162
0.994716
0.995328
0.994950
0.995512
0.995766
0.996022
0.995922
0.996095
0.996131
0.996133
0.996119
0.996100
0.987616
0.987378
0.988026
0.988529
0.989236
0.989980
0.990694
0.992107
0.991525
0.994134
0.992646
0.993416
0.994526
0.994843
0.995199
0.995575
0.995844
0.996021
0.996120
0.996159
0.996163
0.996146
0.988077
0.987770
0.988522
0.989095
0.989771
0.990562
0.991337
0.992147
0.994184
0.992849
0.993736
0.994497
0.994928
0.995316
0.995689
0.995939
0.996080
0.996168
0.996199
0.996193
0.988661
0.988297
0.989153
0.989755
0.990454
0.991213
0.991992
0.992698
0.994166
0.993544
0.994556
0.995028
0.995465
0.995805
0.996010
0.996139
0.996206
0.996221
0.989366
0.988949
0.989892
0.990511
0.991199
0.991929
0.992656
0.993295
0.994048
0.994694
0.995200
0.995618
0.995887
0.996062
0.996168
0.996211
0.990167
0.989712
0.990711
0.991321
0.991978
0.992654
0.993324
0.993842
0.994376
0.994929
0.995389
0.995715
0.995932
0.996078
0.996151
0.991028
0.990554
0.991565
0.992144
0.992752
0.993385
0.994000
0.994653
0.995142
0.995509
0.995767
0.995944
0.996043
0.991901
0.991434
0.992407
0.992934
0.993465
0.994002
0.994441
0.994900
0.995294
0.995586
0.995785
0.995899
0.992735
0.992297
0.993192
0.993651
0.994093
0.994594
0.995076
0.995407
0.995623
0.995741
0.993489
0.993098
0.993883
0.994256
0.994555
0.994929
0.995256
0.995476
0.995592
0.994133
0.993804
0.994465
0.994780
0.995133
0.995354
0.995461
0.994638
0.994383
0.994880
0.995070
0.995262
0.995358
0.994987
0.994819
0.995156
0.995267
0.995162
0.995081
0.995216
0.995189
VECTORS fa_u float
0.000000 0.000000 0.000000
0.000000 0.000000 0.000000
0.000000 0.000000 0.000000
0.000000 0.000000 0.000000
0.000000 0.000000 0.000000
0.000000 0.000000 0.000000
0.000000 0.000000 0.000000
0.000000 0.000000 0.000000
0.000000 0.000000 0.000000
0.000000 0.000000 0.000000
0.000000 0.000000 0.000000
0.000000 0.000000 0.000000
0.000000 0.000000 0.000000
0.000000 0.000000 0.000000
0.000000 0.000000 0.000000
0.000000 0.000000 0.000000
0.000000 0.000000 0.000000
0.000000 0.000000 0.000000
0.000000 0.000000 0.000000
0.000000 0.000000 0.000000
0.000000 0.000000 0.000000
0.000000 0.000000 0.000000
0.000000 0.000000 0.000000
0.000000 0.000000 0.000000
0.000000 0.000000 0.000000
0.000000 0.000000 0.000000
0.000000 0.000000 0.000000
0.000000 0.000000 0.000000
0.000000 0.000000 0.000000
0.000000 0.000000 0.000000
0.000000 0.000000 0.000000
0.000000 0.000000 0.000000
0.000000 0.000000 0.000000
0.000000 0.000000 0.000000
0.000000 0.000000 0.000000
0.000000 0.000000 0.000000
0.000000 0.000000 0.000000
0.000000 0.000000 0.000000
0.000000 0.000000 0.000000
0.000000 0.000000 0.000000
0.000000 0.000000 0.000000
0.000000 0.000000 0.000000
0.000000 0.000000 0.000000
0.000000 0.000000 0.000000
0.000000 0.000000 0.000000
0.000000 0.000000 0.000000
0.000000 0.000000 0.000000
0.000000 0.000000 0.000000
0.000000 0.000000 0.000000
0.000000 0.000000 0.000000
0.000000 0.000000 0.000000
0.000000 0.000000 0.000000
0.000000 0.000000 0.000000
0.000000 0.000000 0.000000
0.000000 0.000000 0.000000
0.000000 0.000000 0.000000
0.000000 0.000000 0.000000
0.000000 0.000000 0.000000
0.000000 0.000000 0.000000
0.000000 0.000000 0.000000
0.000000 0.000000 0.000000
0.000000 0.000000 0.000000
0.000000 0.000000 0.000000
0.000000 0.000000 0.000000
0.000000 0.000000 0.000000
0.000000 0.000000 0.000000
0.000000 0.000000 0.000000
0.000000 0.000000 0.000000
0.000000 0.000000 0.000000
0.000000 0.000000 0.000000
0.000000 0.000000 0.000000
0.000000 0.000000 0.000000
0.000000 0.000000 0.000000
0.000000 0.000000 0.000000
0.000000 0.000000 0.000000
0.000000 0.000000 0.000000
0.000000 0.000000 0.000000
0.000000 0.000000 0.000000
0.000000 0.000000 0.000000
0.000000 0.000000 0.000000
0.000000 0.000000 0.000000
0.000000 0.000000 0.000000
0.000000 0.000000 0.000000
0.000000 0.000000 0.000000
0.000000 0.000000 0.000000
0.000000 0.000000 0.000000
0.000000 0.000000 0.000000
0.000000 0.000000 0.000000
0.000000 0.000000 0.000000
0.000000 0.000000 0.000000
0.000000 0.000000 0.000000
0.000000 0.000000 0.000000
0.000000 0.000000 0.000000
0.000000 0.000000 0.000000
0.000000 0.000000 0.000000
0.000000 0.000000 0.000000
0.000000 0.000000 0.000000
0.000000 0.000000 0.000000
0.000000 0.000000 0.000000
0.000000 0.000000 0.000000
0.000000 0.000000 0.000000
0.000000 0.000000 0.000000
0.000000 0.000000 0.000000
0.000000 0.000000 0.000000
0.000000 0.000000 0.000000
0.000000 0.000000 0.000000
0.000000 0.000000 0.000000
0.000000 0.000000 0.000000
0.000000 0.000000 0.000000
0.000000 0.000000 0.000000
0.000000 0.000000 0.000000
0.000000 0.000000 0.000000
0.000000 0.000000 0.000000
0.000000 0.000000 0.000000
0.000000 0.000000 0.000000
0.000000 0.000000 0.000000
0.000000 0.000000 0.000000
0.000000 0.000000 0.000000
0.000000 0.000000 0.000000
0.000000 0.000000 0.000000
0.000000 0.000000 0.000000
0.000000 0.000000 0.000000
0.000000 0.000000 0.000000
0.000000 0.000000 0.000000
0.000000 0.000000 0.000000
0.000000 0.000000 0.000000
0.000000 0.000000 0.000000
0.000000 0.000000 0.000000
0.000000 0.000000 0.000000
0.000000 0.000000 0.000000
0.000000 0.000000 0.000000
0.000000 0.000000 0.000000
0.000000 0.000000 0.000000
0.000000 0.000000 0.000000
0.000000 0.000000 0.000000
0.000000 0.000000 0.000000
0.000000 0.000000 0.000000
0.000000 0.000000 0.000000
0.000000 0.000000 0.000000
0.000000 0.000000 0.000000
0.000000 0.000000 0.000000
0.000000 0.000000 0.000000
0.000000 0.000000 0.000000
0.000000 0.000000 0.000000
0.000000 0.000000 0.000000
0.000000 0.000000 0.000000
0.000000 0.000000 0.000000
0.000000 0.000000 0.000000
0.000000 0.000000 0.000000
0.000000 0.000000 0.000000
0.000000 0.000000 0.000000
0.000000 0.000000 0.000000
0.000000 0.000000 0.000000
0.000000 0.000000 0.000000
0.000000 0.000000 0.000000
0.000000 0.000000 0.000000
0.000000 0.000000 0.000000
0.000000 0.000000 0.000000
0.000000 0.000000 0.000000
0.000000 0.000000 0.000000
0.000000 0.000000 0.000000
0.000000 0.000000 0.000000
0.000000 0.000000 0.000000
0.000000 0.000000 0.000000
0.000000 0.000000 0.000000
0.000000 0.000000 0.000000
0.000000 0.000000 0.000000
0.000000 0.000000 0.000000
0.000000 0.000000 0.000000
0.000000 0.000000 0.000000
0.000000 0.000000 0.000000
0.000000 0.000000 0.000000
0.000000 0.000000 0.000000
0.000000 0.000000 0.000000
0.000000 0.000000 0.000000
0.000000 0.000000 0.000000
0.000000 0.000000 0.000000
0.000000 0.000000 0.000000
0.000000 0.000000 0.000000
0.000000 0.000000 0.000000
0.000000 0.000000 0.000000
0.000000 0.000000 0.000000
0.000000 0.000000 0.000000
0.000000 0.000000 0.000000
0.000000 0.000000 0.000000
0.000000 0.000000 0.000000
0.000000 0.000000 0.000000
0.000000 0.000000 0.000000
0.000000 0.000000 0.000000
0.000000 0.000000 0.000000
0.000000 0.000000 0.000000
0.000000 0.000000 0.000000
0.000000 0.000000 0.000000
0.000000 0.000000 0.000000
0.000000 0.000000 0.000000
0.000000 0.000000 0.000000
0.000000 0.000000 0.000000
0.000000 0.000000 0.000000
0.000000 0.000000 0.000000
0.000000 0.000000 0.000000
0.000000 0.000000 0.000000
0.000000 0.000000 0.000000
0.000000 0.000000 0.000000
0.000000 0.000000 0.000000
0.000000 0.000000 0.000000
0.000000 0.000000 0.000000
0.000000 0.000000 0.000000
0.000000 0.000000 0.000000
0.000000 0.000000 0.000000
0.000000 0.000000 0.000000
0.000000 0.000000 0.000000
0.000000 0.000000 0.000000
0.000000 0.000000 0.000000
0.000000 0.000000 0.000000
0.000000 0.000000 0.000000
0.000000 0.000000 0.000000
0.000000 0.000000 0.000000
0.000000 0.000000 0.000000
0.000000 0.000000 0.000000
0.000000 0.000000 0.000000
0.000000 0.000000 0.000000
0.000000 0.000000 0.000000
0.000000 0.000000 0.000000
0.000000 0.000000 0.000000
0.000000 0.000000 0.000000
0.000000 0.000000 0.000000
0.000000 0.000000 0.000000
0.000000 0.000000 0.000000
0.000000 0.000000 0.000000
0.000000 0.000000 0.000000
0.000000 0.000000 0.000000
0.000000 0.000000 0.000000
0.000000 0.000000 0.000000
0.000000 0.000000 0.000000
0.000000 0.000000 0.000000
0.000000 0.000000 0.000000
0.000000 0.000000 0.000000
0.000000 0.000000 0.000000
0.000000 0.000000 0.000000
0.000000 0.000000 0.000000
0.000000 0.000000 0.000000
0.000000 0.000000 0.000000
0.000000 0.000000 0.000000
0.000000 0.000000 0.000000
0.000000 0.000000 0.000000
0.000000 0.000000 0.000000
0.000000 0.000000 0.000000
0.000000 0.000000 0.000000
0.000000 0.000000 0.000000
0.000000 0.000000 0.000000
0.000000 0.000000 0.000000
0.000000 0.000000 0.000000
0.000000 0.000000 0.000000
0.000000 0.000000 0.000000
0.000000 0.000000 0.000000
0.000000 0.000000 0.000000
0.000000 0.000000 0.000000
0.000000 0.000000 0.000000
0.000000 0.000000 0.000000
0.000000 0.000000 0.000000
0.000000 0.000000 0.000000
0.000000 0.000000 0.000000
0.000000 0.000000 0.000000
0.000000 0.000000 0.000000
0.000000 0.000000 0.000000
0.000000 0.000000 0.000000
0.000000 0.000000 0.000000
0.000000 0.000000 0.000000
0.000000 0.000000 0.000000
0.000000 0.000000 0.000000
0.000000 0.000000 0.000000
0.000000 0.000000 0.000000
0.000000 0.000000 0.000000
0.000000 0.000000 0.000000
0.000000 0.000000 0.000000
0.000000 0.000000 0.000000
0.000000 0.000000 0.000000
0.000000 0.000000 0.000000
0.000000 0.000000 0.000000
0.000000 0.000000 0.000000
0.000000 0.000000 0.000000
0.000000 0.000000 0.000000
0.000000 0.000000 0.000000
0.000000 0.000000 0.000000
0.000000 0.000000 0.000000
0.000000 0.000000 0.000000
0.000000 0.000000 0.000000
0.000000 0.000000 0.000000
0.000000 0.000000 0.000000
0.000000 0.000000 0.000000
0.000000 0.000000 0.000000
0.000000 0.000000 0.000000
0.000000 0.000000 0.000000
0.000000 0.000000 0.000000
0.000000 0.000000 0.000000
0.000000 0.000000 0.000000
0.000000 0.000000 -50.000000
-50.000000 0.000000 -50.000000
-43.354906 0.000000 -45.671486
-45.532342 0.000000 -43.261986
-50.000000 0.000000 -50.000000
-36.708107 0.000000 -36.526052
-50.000000 0.000000 -45.061267
-40.050623 0.000000 -39.981574
-44.206773 0.000000 -29.791729
-50.000000 0.000000 -50.000000
-30.059662 0.000000 -44.826246
-33.578542 0.000000 -33.054440
-44.728831 0.000000 -39.818255
-36.895319 0.000000 -35.053292
-39.894680 0.000000 -23.061506
-50.000000 0.000000 -26.414857
-44.719980 0.000000 -50.000000
-23.411308 0.000000 -44.641867
-26.985223 0.000000 -39.309101
-30.386513 0.000000 -29.501523
-39.457088 0.000000 -33.281096
-33.799079 0.000000 -50.000000
-16.760891 0.000000 -16.343464
-50.000000 0.000000 -9.640356
