# vtk DataFile Version 2.0
CellBP Time: 3
ASCII
DATASET UNSTRUCTURED_GRID
POINTS 320 double
-50.000000 -50.000000 0.000000
-50.000000 -43.336372 0.000000
-45.693228 -45.522773 0.000000
-43.291648 -50.000000 0.000000
-50.000000 -36.671742 0.000000
-36.583510 -50.000000 0.000000
-45.085690 -40.027814 0.000000
-40.030657 -44.194072 0.000000
-29.875346 -50.000000 0.000000
-50.000000 -30.006956 0.000000
-44.851444 -33.541569 0.000000
-33.133686 -44.716676 0.000000
-39.866634 -36.864948 0.000000
-35.123905 -39.871271 0.000000
-23.167896 -50.000000 0.000000
-26.520880 -44.706284 0.000000
-50.000000 -23.344015 0.000000
-44.667867 -26.935260 0.000000
-39.359514 -30.342276 0.000000
-29.595527 -39.430991 0.000000
-33.358275 -33.760398 0.000000
-50.000000 -16.681558 0.000000
-16.468454 -50.000000 0.000000
-9.778793 -50.000000 0.000000
-19.941439 -44.625023 0.000000
-23.193811 -39.185601 0.000000
-44.692809 -20.265594 0.000000
-39.360188 -23.682611 0.000000
-34.087673 -27.080334 0.000000
-26.365532 -33.685211 0.000000
-29.130413 -29.064018 0.000000
-50.000000 -10.021867 0.000000
-44.664288 -13.616779 0.000000
-50.000000 -3.367292 0.000000
-3.098155 -50.000000 0.000000
3.570441 -50.000000 0.000000
-13.315176 -44.630851 0.000000
-6.650899 -44.640123 0.000000
-16.660274 -39.216963 0.000000
-20.073599 -33.448153 0.000000
-39.325771 -16.998565 0.000000
-33.998733 -20.458891 0.000000
-28.748897 -23.624584 0.000000
-23.468621 -27.505793 0.000000
-44.626802 -6.951186 0.000000
-39.267827 -10.341987 0.000000
-50.000000 3.289502 0.000000
-44.610015 -0.299117 0.000000
10.225375 -50.000000 0.000000
16.868413 -50.000000 0.000000
0.022612 -44.643536 0.000000
6.692919 -44.653494 0.000000
-9.999911 -39.283285 0.000000
-3.316224 -39.276817 0.000000
-13.434717 -33.894904 0.000000
-16.649525 -28.417293 0.000000
-33.909121 -13.752657 0.000000
-28.552530 -17.119240 0.000000
-23.233665 -20.523713 0.000000
-18.595916 -23.471526 0.000000
-39.225583 -3.685374 0.000000
-33.836888 -7.104865 0.000000
-50.000000 9.979735 0.000000
-44.592207 6.356132 0.000000
-39.202088 2.976030 0.000000
-50.000000 16.739848 0.000000
23.503395 -50.000000 0.000000
30.132355 -50.000000 0.000000
13.358274 -44.674326 0.000000
20.026843 -44.706369 0.000000
3.363068 -39.291529 0.000000
10.026614 -39.324834 0.000000
-6.672141 -33.881428 0.000000
0.034426 -33.907373 0.000000
-10.017423 -28.425585 0.000000
-13.041260 -23.081808 0.000000
-28.445362 -10.509610 0.000000
-22.971409 -13.934747 0.000000
-16.884042 -17.442933 0.000000
-33.778804 -0.465854 0.000000
-28.426282 -3.955035 0.000000
-44.555740 13.048457 0.000000
-39.138328 9.605191 0.000000
-33.741836 6.069530 0.000000
-50.000000 23.602486 0.000000
-44.601000 19.843106 0.000000
-50.000000 30.559357 0.000000
36.754750 -50.000000 0.000000
43.377321 -50.000000 0.000000
26.693831 -44.746140 0.000000
33.338288 -44.870722 0.000000
16.681311 -39.380998 0.000000
23.367868 -39.450886 0.000000
6.709240 -33.940733 0.000000
13.351769 -34.008206 0.000000
-3.261039 -28.473970 0.000000
3.440238 -28.544017 0.000000
-6.527770 -23.001981 0.000000
-9.864968 -17.524624 0.000000
-23.033509 -7.361246 0.000000
-17.659747 -10.628049 0.000000
-12.697367 -12.845249 0.000000
-28.386502 2.607404 0.000000
-23.038046 -0.908528 0.000000
-39.003077 16.295613 0.000000
-28.354935 9.301725 0.000000
-33.528543 12.473433 0.000000
-44.744355 26.611275 0.000000
-38.721099 23.652311 0.000000
-44.992139 33.409969 0.000000
-50.000000 37.504360 0.000000
-50.000000 43.862337 0.000000
39.933723 -45.064746 0.000000
45.472466 -45.654224 0.000000
50.000000 -50.000000 0.000000
36.645475 -39.983177 0.000000
30.039865 -39.464939 0.000000
19.954143 -34.119578 0.000000
26.623149 -34.335882 0.000000
10.064850 -28.581198 0.000000
16.674681 -28.703270 0.000000
0.157813 -23.085223 0.000000
6.908101 -23.254393 0.000000
-3.275666 -17.477062 0.000000
-6.708764 -11.299172 0.000000
-17.649786 -4.196916 0.000000
-12.336864 -7.339970 0.000000
-22.970836 5.528719 0.000000
-17.731130 2.011624 0.000000
-22.639080 11.467753 0.000000
-33.323574 18.501534 0.000000
-27.405987 16.114235 0.000000
-33.043766 23.839070 0.000000
-40.306934 30.540498 0.000000
-35.410314 28.962565 0.000000
-39.922405 35.508591 0.000000
-43.919927 40.175507 0.000000
-45.274276 45.768777 0.000000
-50.000000 50.000000 0.000000
44.118906 -39.893811 0.000000
50.000000 -43.378975 0.000000
39.649224 -35.050212 0.000000
33.487710 -33.434284 0.000000
23.035494 -28.849645 0.000000
28.770084 -29.267548 0.000000
13.540342 -23.187092 0.000000
20.121071 -23.485544 0.000000
3.515842 -17.714910 0.000000
10.229302 -17.922339 0.000000
0.288916 -12.219650 0.000000
-1.955882 -6.518064 0.000000
-7.175269 -4.005144 0.000000
-12.354425 -1.150268 0.000000
-17.739502 8.044551 0.000000
-12.624905 4.829867 0.000000
-18.012611 13.152232 0.000000
-20.766302 16.816519 0.000000
-28.029861 22.516809 0.000000
-23.351220 21.005038 0.000000
-29.741832 28.657010 0.000000
-34.156830 34.091976 0.000000
-36.865962 39.948303 0.000000
-39.632694 45.269597 0.000000
-43.404217 50.000000 0.000000
44.585987 -32.976190 0.000000
50.000000 -36.745158 0.000000
39.146940 -29.588924 0.000000
33.533646 -26.385291 0.000000
27.233420 -23.354890 0.000000
23.129530 -18.694094 0.000000
17.071367 -17.038803 0.000000
6.839322 -12.326913 0.000000
12.454728 -12.807243 0.000000
-3.127637 -1.732290 0.000000
4.115583 -7.205382 0.000000
1.252050 -2.296795 0.000000
-6.750659 2.060415 0.000000
-8.099542 7.554579 0.000000
-12.353771 11.565133 0.000000
-15.077396 17.325093 0.000000
-18.485322 22.731344 0.000000
-23.581703 27.214757 0.000000
-26.951670 33.609464 0.000000
-30.047517 39.315412 0.000000
-33.118971 44.838455 0.000000
-36.644298 50.000000 0.000000
44.554386 -26.507419 0.000000
50.000000 -30.114666 0.000000
39.062493 -23.194452 0.000000
33.491920 -19.921926 0.000000
28.099503 -16.614925 0.000000
22.764159 -13.178053 0.000000
17.281271 -9.984512 0.000000
11.088755 -6.744257 0.000000
-1.132681 2.123667 0.000000
6.444317 -1.844851 0.000000
3.141702 1.460638 0.000000
-3.263609 7.017981 0.000000
-5.915478 12.211075 0.000000
-9.129047 17.451496 0.000000
-12.576195 22.899062 0.000000
-16.797485 28.040161 0.000000
-20.184670 33.361326 0.000000
-23.310386 38.993235 0.000000
-26.450214 44.611326 0.000000
-29.899141 50.000000 0.000000
44.539249 -19.940173 0.000000
50.000000 -23.478336 0.000000
39.068075 -16.613379 0.000000
33.631787 -13.310689 0.000000
28.229478 -10.015490 0.000000
22.831165 -6.670313 0.000000
17.402903 -3.423451 0.000000
12.239881 0.092270 0.000000
2.196048 6.139998 0.000000
7.323966 3.753140 0.000000
0.134728 11.811486 0.000000
-2.864268 17.341746 0.000000
-6.253136 22.825757 0.000000
-10.136347 28.140919 0.000000
-13.347753 33.552164 0.000000
-16.609981 38.998263 0.000000
-19.795839 44.502389 0.000000
-23.199379 50.000000 0.000000
44.552642 -13.313080 0.000000
50.000000 -16.834237 0.000000
39.121044 -9.987214 0.000000
33.712701 -6.674138 0.000000
28.330800 -3.358475 0.000000
22.977209 -0.048518 0.000000
17.718936 3.284513 0.000000
12.465239 6.498381 0.000000
7.025285 10.732641 0.000000
3.629908 17.055972 0.000000
0.272809 22.731194 0.000000
-3.165100 28.220963 0.000000
-6.503829 33.698385 0.000000
-9.839842 39.114165 0.000000
-13.136158 44.532432 0.000000
-16.571261 50.000000 0.000000
44.576308 -6.662362 0.000000
50.000000 -10.179399 0.000000
39.171619 -3.341459 0.000000
33.790550 -0.023203 0.000000
28.445528 3.297958 0.000000
23.158514 6.636899 0.000000
18.033646 9.961391 0.000000
12.894176 12.135262 0.000000
10.050434 17.145702 0.000000
6.755276 22.643281 0.000000
3.472949 28.206116 0.000000
0.161103 33.688605 0.000000
-3.166431 39.134150 0.000000
-6.465365 44.563464 0.000000
-9.933039 50.000000 0.000000
44.601934 -0.003162 0.000000
50.000000 -3.513293 0.000000
39.221689 3.315154 0.000000
33.866639 6.629761 0.000000
28.549491 9.959854 0.000000
23.209734 13.373365 0.000000
17.149152 16.971831 0.000000
13.122708 22.621007 0.000000
10.041833 28.192536 0.000000
6.831353 33.690443 0.000000
3.507471 39.145727 0.000000
0.194630 44.575954 0.000000
-3.284530 50.000000 0.000000
44.616428 6.664135 0.000000
50.000000 3.163353 0.000000
39.256965 9.971513 0.000000
33.934184 13.261526 0.000000
28.664872 16.562846 0.000000
23.536639 20.058309 0.000000
18.709895 23.082814 0.000000
16.572191 28.274944 0.000000
13.512144 33.740100 0.000000
10.170659 39.174928 0.000000
6.858030 44.583774 0.000000
3.369481 50.000000 0.000000
44.640377 13.320169 0.000000
50.000000 9.849068 0.000000
39.310037 16.608681 0.000000
34.018165 19.857162 0.000000
28.724921 22.916670 0.000000
23.416994 27.196484 0.000000
20.048130 33.297909 0.000000
16.725918 39.039018 0.000000
13.431551 44.528568 0.000000
10.028604 50.000000 0.000000
44.663509 19.977480 0.000000
50.000000 16.540376 0.000000
39.354883 23.262065 0.000000
34.125427 26.515344 0.000000
29.073304 28.536113 0.000000
26.317757 33.405881 0.000000
23.189884 38.967965 0.000000
20.022213 44.509375 0.000000
16.687616 50.000000 0.000000
44.671164 26.648046 0.000000
50.000000 23.233367 0.000000
39.348695 29.968866 0.000000
33.295676 33.375174 0.000000
29.506810 39.046829 0.000000
26.526624 44.509221 0.000000
23.347219 50.000000 0.000000
44.804963 33.296365 0.000000
50.000000 29.926407 0.000000
39.788119 36.601540 0.000000
34.901190 39.531558 0.000000
32.909421 44.517331 0.000000
30.008903 50.000000 0.000000
45.006050 39.882771 0.000000
50.000000 36.618792 0.000000
39.785353 43.973699 0.000000
36.669955 50.000000 0.000000
45.645032 45.414437 0.000000
50.000000 43.309615 0.000000
43.331805 50.000000 0.000000
50.000000 50.000000 0.000000
CELLS 578 2312
3 1 0 2
3 0 3 2
3 4 1 6
3 6 1 2
3 3 5 7
3 3 7 2
3 6 2 7
3 9 4 10
3 10 4 6
3 5 8 11
3 7 5 11
3 10 6 12
3 12 6 7
3 7 11 13
3 7 13 12
3 8 14 15
3 11 8 15
3 16 9 17
3 17 9 10
3 17 10 18
3 18 10 12
3 11 15 19
3 13 11 19
3 18 12 20
3 13 19 20
3 20 12 13
3 14 22 24
3 15 14 24
3 15 24 25
3 19 15 25
3 21 16 26
3 26 16 17
3 26 17 27
3 27 17 18
3 27 18 28
3 28 18 20
3 19 25 29
3 19 29 20
3 28 20 30
3 30 20 29
3 31 21 32
3 32 21 26
3 22 23 36
3 24 22 36
3 23 34 37
3 36 23 37
3 24 36 38
3 25 24 38
3 25 38 39
3 29 25 39
3 32 26 40
3 40 26 27
3 40 27 41
3 41 27 28
3 41 28 42
3 42 28 30
3 29 39 43
3 29 43 30
3 42 30 43
3 33 31 44
3 44 31 32
3 44 32 45
3 45 32 40
3 46 33 47
3 47 33 44
3 34 35 50
3 37 34 50
3 35 48 51
3 50 35 51
3 36 37 52
3 38 36 52
3 37 50 53
3 52 37 53
3 38 52 54
3 39 38 54
3 39 54 55
3 43 39 55
3 45 40 56
3 56 40 41
3 56 41 57
3 57 41 42
3 57 42 58
3 58 42 43
3 43 55 59
3 43 59 58
3 47 44 60
3 60 44 45
3 60 45 61
3 61 45 56
3 62 46 63
3 63 46 47
3 63 47 64
3 64 47 60
3 48 49 68
3 51 48 68
3 49 66 69
3 68 49 69
3 50 51 70
3 53 50 70
3 51 68 71
3 70 51 71
3 52 53 72
3 54 52 72
3 53 70 73
3 72 53 73
3 54 72 74
3 55 54 74
3 55 74 75
3 59 55 75
3 61 56 76
3 76 56 57
3 76 57 77
3 77 57 58
3 77 58 78
3 59 75 78
3 78 58 59
3 64 60 79
3 79 60 61
3 79 61 80
3 80 61 76
3 65 62 81
3 81 62 63
3 81 63 82
3 82 63 64
3 82 64 83
3 83 64 79
3 84 65 85
3 85 65 81
3 66 67 89
3 69 66 89
3 67 87 90
3 89 67 90
3 68 69 91
3 71 68 91
3 69 89 92
3 91 69 92
3 70 71 93
3 73 70 93
3 71 91 94
3 93 71 94
3 72 73 95
3 74 72 95
3 73 93 96
3 95 73 96
3 74 95 97
3 75 74 97
3 75 97 98
3 78 75 98
3 80 76 99
3 99 76 77
3 99 77 100
3 100 77 78
3 100 78 101
3 98 101 78
3 83 79 102
3 102 79 80
3 102 80 103
3 103 80 99
3 85 81 104
3 104 81 82
3 105 83 102
3 104 82 106
3 106 82 83
3 106 83 105
3 86 84 107
3 107 84 85
3 107 85 108
3 108 85 104
3 109 86 107
3 110 86 109
3 87 88 112
3 90 87 112
3 112 88 113
3 88 114 113
3 90 112 115
3 89 90 116
3 92 89 116
3 116 90 115
3 91 92 117
3 94 91 117
3 92 116 118
3 117 92 118
3 93 94 119
3 96 93 119
3 94 117 120
3 119 94 120
3 95 96 121
3 97 95 121
3 96 119 122
3 121 96 122
3 97 121 123
3 98 97 123
3 98 123 124
3 98 124 101
3 103 99 125
3 125 99 100
3 125 100 126
3 126 100 101
3 126 101 124
3 105 102 127
3 127 102 103
3 127 103 128
3 128 103 125
3 129 105 127
3 108 104 130
3 130 104 106
3 130 106 131
3 131 106 105
3 131 105 129
3 108 130 132
3 109 107 133
3 133 107 108
3 133 108 134
3 108 132 134
3 135 109 133
3 111 110 136
3 136 110 109
3 136 109 135
3 137 111 136
3 138 111 137
3 112 113 139
3 115 112 139
3 114 140 113
3 140 139 113
3 139 141 115
3 116 115 142
3 118 116 142
3 142 115 141
3 117 118 143
3 120 117 143
3 118 142 144
3 143 118 144
3 119 120 145
3 122 119 145
3 120 143 146
3 145 120 146
3 121 122 147
3 123 121 147
3 122 145 148
3 147 122 148
3 123 147 149
3 124 123 149
3 124 149 150
3 151 126 124
3 124 150 151
3 128 125 152
3 152 125 126
3 152 126 151
3 129 127 153
3 153 127 128
3 128 152 154
3 153 128 154
3 155 129 153
3 131 129 156
3 156 129 155
3 132 130 157
3 130 131 157
3 157 131 158
3 131 156 158
3 132 157 159
3 132 159 134
3 135 133 160
3 160 133 134
3 160 134 159
3 136 135 161
3 135 160 161
3 162 137 136
3 161 162 136
3 163 138 137
3 162 163 137
3 139 164 141
3 140 165 139
3 139 165 164
3 141 164 166
3 141 166 142
3 166 167 142
3 144 142 167
3 167 168 144
3 143 144 168
3 146 143 168
3 168 169 146
3 145 146 170
3 148 145 170
3 170 146 169
3 147 148 171
3 149 147 171
3 148 170 172
3 171 148 172
3 173 151 150
3 149 171 174
3 150 149 174
3 150 174 175
3 150 175 173
3 154 152 176
3 152 151 176
3 176 151 173
3 154 176 177
3 155 153 178
3 177 178 154
3 154 178 153
3 156 155 179
3 155 178 179
3 180 158 156
3 179 180 156
3 181 159 157
3 180 181 158
3 181 157 158
3 182 160 159
3 181 182 159
3 183 161 160
3 182 183 160
3 184 162 161
3 184 161 183
3 185 163 162
3 184 185 162
3 164 186 166
3 165 187 164
3 164 187 186
3 166 186 188
3 166 188 167
3 167 188 189
3 167 189 168
3 168 189 190
3 168 190 169
3 169 190 191
3 169 191 170
3 192 172 170
3 170 191 192
3 192 193 172
3 171 172 193
3 174 171 193
3 194 173 175
3 176 173 194
3 175 174 195
3 193 195 174
3 195 196 175
3 175 196 194
3 197 177 176
3 194 197 176
3 198 178 177
3 197 198 177
3 199 179 178
3 198 199 178
3 200 180 179
3 199 200 179
3 201 181 180
3 200 201 180
3 202 182 181
3 201 202 181
3 203 183 182
3 202 203 182
3 204 184 183
3 203 204 183
3 205 185 184
3 204 205 184
3 186 206 188
3 187 207 186
3 186 207 206
3 188 206 208
3 188 208 189
3 189 208 209
3 189 209 190
3 190 209 210
3 190 210 191
3 191 210 211
3 191 211 192
3 192 211 212
3 192 212 193
3 193 212 213
3 193 213 195
3 214 197 194
3 214 194 196
3 195 213 215
3 195 215 196
3 196 215 214
3 216 198 197
3 214 216 197
3 217 199 198
3 216 217 198
3 218 200 199
3 217 218 199
3 219 201 200
3 218 219 200
3 220 202 201
3 219 220 201
3 221 203 202
3 220 221 202
3 222 204 203
3 221 222 203
3 223 205 204
3 222 223 204
3 206 224 208
3 207 225 206
3 206 225 224
3 208 224 226
3 208 226 209
3 209 226 227
3 209 227 210
3 210 227 228
3 210 228 211
3 211 228 229
3 211 229 212
3 212 229 230
3 212 230 213
3 213 230 231
3 213 231 215
3 232 216 214
3 215 231 232
3 232 214 215
3 233 217 216
3 232 233 216
3 234 218 217
3 233 234 217
3 235 219 218
3 234 235 218
3 236 220 219
3 235 236 219
3 237 221 220
3 236 237 220
3 238 222 221
3 237 238 221
3 239 223 222
3 238 239 222
3 224 240 226
3 225 241 224
3 224 241 240
3 226 240 242
3 226 242 227
3 227 242 243
3 227 243 228
3 228 243 244
3 228 244 229
3 244 245 229
3 229 245 230
3 230 245 246
3 230 246 231
3 231 246 247
3 231 247 232
3 248 233 232
3 248 232 247
3 249 234 233
3 248 249 233
3 250 235 234
3 249 250 234
3 251 236 235
3 250 251 235
3 252 237 236
3 251 252 236
3 253 238 237
3 252 253 237
3 254 239 238
3 253 254 238
3 240 255 242
3 241 256 240
3 240 256 255
3 242 255 257
3 242 257 243
3 243 257 258
3 243 258 244
3 244 258 259
3 244 259 245
3 245 259 260
3 245 260 246
3 246 260 261
3 246 261 247
3 248 247 261
3 262 249 248
3 261 262 248
3 263 250 249
3 262 263 249
3 264 251 250
3 263 264 250
3 265 252 251
3 264 265 251
3 266 253 252
3 265 266 252
3 267 254 253
3 266 267 253
3 255 268 257
3 256 269 255
3 255 269 268
3 257 268 270
3 257 270 258
3 258 270 271
3 258 271 259
3 259 271 272
3 259 272 260
3 260 272 273
3 260 273 261
3 274 262 261
3 261 273 274
3 275 263 262
3 274 275 262
3 276 264 263
3 275 276 263
3 277 265 264
3 276 277 264
3 278 266 265
3 277 278 265
3 279 267 266
3 278 279 266
3 268 280 270
3 269 281 268
3 268 281 280
3 270 280 282
3 270 282 271
3 271 282 283
3 271 283 272
3 283 284 272
3 272 284 273
3 285 275 274
3 273 284 285
3 285 274 273
3 286 276 275
3 285 286 275
3 287 277 276
3 286 287 276
3 288 278 277
3 287 288 277
3 289 279 278
3 288 289 278
3 280 290 282
3 281 291 280
3 280 291 290
3 282 290 292
3 282 292 283
3 283 292 293
3 283 293 284
3 284 293 294
3 284 294 285
3 295 286 285
3 295 285 294
3 296 287 286
3 295 296 286
3 297 288 287
3 296 297 287
3 298 289 288
3 297 298 288
3 290 299 292
3 291 300 290
3 290 300 299
3 292 299 301
3 292 301 293
3 293 301 302
3 293 302 294
3 294 302 295
3 303 296 295
3 303 295 302
3 304 297 296
3 303 304 296
3 305 298 297
3 304 305 297
3 299 306 301
3 300 307 299
3 299 307 306
3 301 306 308
3 301 308 302
3 309 303 302
3 302 308 309
3 310 304 303
3 309 310 303
3 311 305 304
3 310 311 304
3 306 312 308
3 307 313 306
3 306 313 312
3 314 310 309
3 308 312 314
3 314 309 308
3 315 311 310
3 314 315 310
3 312 316 314
3 313 317 312
3 312 317 316
3 318 315 314
3 318 314 316
3 317 319 316
3 319 318 316
CELL_TYPES 578
5
5
5
5
5
5
5
5
5
5
5
5
5
5
5
5
5
5
5
5
5
5
5
5
5
5
5
5
5
5
5
5
5
5
5
5
5
5
5
5
5
5
5
5
5
5
5
5
5
5
5
5
5
5
5
5
5
5
5
5
5
5
5
5
5
5
5
5
5
5
5
5
5
5
5
5
5
5
5
5
5
5
5
5
5
5
5
5
5
5
5
5
5
5
5
5
5
5
5
5
5
5
5
5
5
5
5
5
5
5
5
5
5
5
5
5
5
5
5
5
5
5
5
5
5
5
5
5
5
5
5
5
5
5
5
5
5
5
5
5
5
5
5
5
5
5
5
5
5
5
5
5
5
5
5
5
5
5
5
5
5
5
5
5
5
5
5
5
5
5
5
5
5
5
5
5
5
5
5
5
5
5
5
5
5
5
5
5
5
5
5
5
5
5
5
5
5
5
5
5
5
5
5
5
5
5
5
5
5
5
5
5
5
5
5
5
5
5
5
5
5
5
5
5
5
5
5
5
5
5
5
5
5
5
5
5
5
5
5
5
5
5
5
5
5
5
5
5
5
5
5
5
5
5
5
5
5
5
5
5
5
5
5
5
5
5
5
5
5
5
5
5
5
5
5
5
5
5
5
5
5
5
5
5
5
5
5
5
5
5
5
5
5
5
5
5
5
5
5
5
5
5
5
5
5
5
5
5
5
5
5
5
5
5
5
5
5
5
5
5
5
5
5
5
5
5
5
5
5
5
5
5
5
5
5
5
5
5
5
5
5
5
5
5
5
5
5
5
5
5
5
5
5
5
5
5
5
5
5
5
5
5
5
5
5
5
5
5
5
5
5
5
5
5
5
5
5
5
5
5
5
5
5
5
5
5
5
5
5
5
5
5
5
5
5
5
5
5
5
5
5
5
5
5
5
5
5
5
5
5
5
5
5
5
5
5
5
5
5
5
5
5
5
5
5
5
5
5
5
5
5
5
5
5
5
5
5
5
5
5
5
5
5
5
5
5
5
5
5
5
5
5
5
5
5
5
5
5
5
5
5
5
5
5
5
5
5
5
5
5
5
5
5
5
5
5
5
5
5
5
5
5
5
5
5
5
5
5
5
5
5
5
5
5
5
5
5
5
5
5
5
5
5
5
5
5
5
5
5
5
5
5
5
5
5
5
5
5
5
5
5
5
5
5
5
5
5
5
5
5
5
5
5
5
5
5
5
5
5
5
5
5
5
5
5
5
5
5
5
5
5
5
5
5
5
5
5
5
5
5
5
5
5
5
5
5
5
5
5
5
5
5
5
5
5
5
5
5
POINT_DATA 320
SCALARS theta_e float 1
LOOKUP_TABLE default
0.993289
0.993262
0.993292
0.993325
0.993208
0.993407
0.993259
0.993342
0.993549
0.993121
0.993187
0.993465
0.993284
0.993383
0.993728
0.993621
0.993011
0.993088
0.993203
0.993505
0.993355
0.992886
0.993937
0.994171
0.993815
0.993678
0.992967
0.993085
0.993231
0.993528
0.993388
0.992752
0.992833
0.992616
0.994422
0.994685
0.994038
0.994284
0.993886
0.993721
0.992952
0.993111
0.993301
0.993532
0.992694
0.992808
0.992479
0.992554
0.994953
0.995216
0.994542
0.994808
0.994128
0.994384
0.993958
0.993776
0.992969
0.993171
0.993398
0.993606
0.992660
0.992817
0.992341
0.992416
0.992517
0.992202
0.995457
0.995657
0.995072
0.995324
0.994647
0.994909
0.994210
0.994474
0.994015
0.993802
0.993024
0.993262
0.993533
0.992664
0.992866
0.992281
0.992381
0.992518
0.992065
0.992148
0.991940
0.995805
0.995891
0.995545
0.995720
0.995161
0.995393
0.994736
0.994988
0.994271
0.994535
0.994037
0.993790
0.993092
0.993339
0.993569
0.992710
0.992929
0.992250
0.992563
0.992385
0.992020
0.992128
0.991905
0.991843
0.991786
0.995839
0.995901
0.995919
0.995741
0.995591
0.995221
0.995425
0.994795
0.995033
0.994291
0.994551
0.994019
0.993702
0.993152
0.993367
0.992774
0.992957
0.992636
0.992269
0.992434
0.992181
0.992005
0.992090
0.991921
0.991838
0.991784
0.991763
0.995833
0.995891
0.995724
0.995582
0.995240
0.995402
0.994806
0.995035
0.994299
0.994557
0.994078
0.993853
0.993443
0.993110
0.992818
0.992915
0.992719
0.992553
0.992285
0.992412
0.992173
0.992035
0.991921
0.991843
0.991795
0.995732
0.995815
0.995593
0.995438
0.995236
0.995008
0.994767
0.994392
0.994545
0.993735
0.994209
0.993838
0.993301
0.993043
0.992840
0.992678
0.992507
0.992319
0.992171
0.992044
0.991944
0.991875
0.995576
0.995681
0.995434
0.995272
0.995078
0.994815
0.994587
0.994412
0.993599
0.994092
0.993682
0.993344
0.993029
0.992815
0.992640
0.992471
0.992323
0.992191
0.992079
0.991994
0.995385
0.995503
0.995244
0.995082
0.994865
0.994598
0.994389
0.994220
0.993467
0.993871
0.993249
0.993002
0.992798
0.992637
0.992489
0.992352
0.992232
0.992139
0.995169
0.995292
0.995033
0.994869
0.994636
0.994364
0.994136
0.993933
0.993528
0.993219
0.992986
0.992809
0.992663
0.992521
0.992394
0.992297
0.994939
0.995061
0.994808
0.994643
0.994407
0.994142
0.993877
0.993646
0.993412
0.993187
0.993000
0.992843
0.992693
0.992559
0.992459
0.994702
0.994821
0.994575
0.994413
0.994190
0.993927
0.993651
0.993391
0.993198
0.993024
0.992863
0.992723
0.992621
0.994462
0.994580
0.994337
0.994183
0.993989
0.993762
0.993563
0.993386
0.993199
0.993028
0.992884
0.992782
0.994229
0.994343
0.994105
0.993962
0.993796
0.993578
0.993363
0.993184
0.993040
0.992940
0.994013
0.994121
0.993893
0.993762
0.993638
0.993479
0.993317
0.993186
0.993093
0.993828
0.993925
0.993713
0.993582
0.993428
0.993317
0.993236
0.993686
0.993765
0.993592
0.993504
0.993425
0.993360
0.993589
0.993645
0.993514
0.993460
0.993544
0.993573
0.993516
0.993542
VECTORS fa_u float
0.000000 0.000000 0.000000
0.000000 0.000000 0.000000
0.000000 0.000000 0.000000
0.000000 0.000000 0.000000
0.000000 0.000000 0.000000
0.000000 0.000000 0.000000
0.000000 0.000000 0.000000
0.000000 0.000000 0.000000
0.000000 0.000000 0.000000
0.000000 0.000000 0.000000
0.000000 0.000000 0.000000
0.000000 0.000000 0.000000
0.000000 0.000000 0.000000
0.000000 0.000000 0.000000
0.000000 0.000000 0.000000
0.000000 0.000000 0.000000
0.000000 0.000000 0.000000
0.000000 0.000000 0.000000
0.000000 0.000000 0.000000
0.000000 0.000000 0.000000
0.000000 0.000000 0.000000
0.000000 0.000000 0.000000
0.000000 0.000000 0.000000
0.000000 0.000000 0.000000
0.000000 0.000000 0.000000
0.000000 0.000000 0.000000
0.000000 0.000000 0.000000
0.000000 0.000000 0.000000
0.000000 0.000000 0.000000
0.000000 0.000000 0.000000
0.000000 0.000000 0.000000
0.000000 0.000000 0.000000
0.000000 0.000000 0.000000
0.000000 0.000000 0.000000
0.000000 0.000000 0.000000
0.000000 0.000000 0.000000
0.000000 0.000000 0.000000
0.000000 0.000000 0.000000
0.000000 0.000000 0.000000
0.000000 0.000000 0.000000
0.000000 0.000000 0.000000
0.000000 0.000000 0.000000
0.000000 0.000000 0.000000
0.000000 0.000000 0.000000
0.000000 0.000000 0.000000
0.000000 0.000000 0.000000
0.000000 0.000000 0.000000
0.000000 0.000000 0.000000
0.000000 0.000000 0.000000
0.000000 0.000000 0.000000
0.000000 0.000000 0.000000
0.000000 0.000000 0.000000
0.000000 0.000000 0.000000
0.000000 0.000000 0.000000
0.000000 0.000000 0.000000
0.000000 0.000000 0.000000
0.000000 0.000000 0.000000
0.000000 0.000000 0.000000
0.000000 0.000000 0.000000
0.000000 0.000000 0.000000
0.000000 0.000000 0.000000
0.000000 0.000000 0.000000
0.000000 0.000000 0.000000
0.000000 0.000000 0.000000
0.000000 0.000000 0.000000
0.000000 0.000000 0.000000
0.000000 0.000000 0.000000
0.000000 0.000000 0.000000
0.000000 0.000000 0.000000
0.000000 0.000000 0.000000
0.000000 0.000000 0.000000
0.000000 0.000000 0.000000
0.000000 0.000000 0.000000
0.000000 0.000000 0.000000
0.000000 0.000000 0.000000
0.000000 0.000000 0.000000
0.000000 0.000000 0.000000
0.000000 0.000000 0.000000
0.000000 0.000000 0.000000
0.000000 0.000000 0.000000
0.000000 0.000000 0.000000
0.000000 0.000000 0.000000
0.000000 0.000000 0.000000
0.000000 0.000000 0.000000
0.000000 0.000000 0.000000
0.000000 0.000000 0.000000
0.000000 0.000000 0.000000
0.000000 0.000000 0.000000
0.000000 0.000000 0.000000
0.000000 0.000000 0.000000
0.000000 0.000000 0.000000
0.000000 0.000000 0.000000
0.000000 0.000000 0.000000
0.000000 0.000000 0.000000
0.000000 0.000000 0.000000
0.000000 0.000000 0.000000
0.000000 0.000000 0.000000
0.000000 0.000000 0.000000
0.000000 0.000000 0.000000
0.000000 0.000000 0.000000
0.000000 0.000000 0.000000
0.000000 0.000000 0.000000
0.000000 0.000000 0.000000
0.000000 0.000000 0.000000
0.000000 0.000000 0.000000
0.000000 0.000000 0.000000
0.000000 0.000000 0.000000
0.000000 0.000000 0.000000
0.000000 0.000000 0.000000
0.000000 0.000000 0.000000
0.000000 0.000000 0.000000
0.000000 0.000000 0.000000
0.000000 0.000000 0.000000
0.000000 0.000000 0.000000
0.000000 0.000000 0.000000
0.000000 0.000000 0.000000
0.000000 0.000000 0.000000
0.000000 0.000000 0.000000
0.000000 0.000000 0.000000
0.000000 0.000000 0.000000
0.000000 0.000000 0.000000
0.000000 0.000000 0.000000
0.000000 0.000000 0.000000
0.000000 0.000000 0.000000
0.000000 0.000000 0.000000
0.000000 0.000000 0.000000
0.000000 0.000000 0.000000
0.000000 0.000000 0.000000
0.000000 0.000000 0.000000
0.000000 0.000000 0.000000
0.000000 0.000000 0.000000
0.000000 0.000000 0.000000
0.000000 0.000000 0.000000
0.000000 0.000000 0.000000
0.000000 0.000000 0.000000
0.000000 0.000000 0.000000
0.000000 0.000000 0.000000
0.000000 0.000000 0.000000
0.000000 0.000000 0.000000
0.000000 0.000000 0.000000
0.000000 0.000000 0.000000
0.000000 0.000000 0.000000
0.000000 0.000000 0.000000
0.000000 0.000000 0.000000
0.000000 0.000000 0.000000
0.000000 0.000000 0.000000
0.000000 0.000000 0.000000
0.000000 0.000000 0.000000
0.000000 0.000000 0.000000
0.000000 0.000000 0.000000
0.000000 0.000000 0.000000
0.000000 0.000000 0.000000
0.000000 0.000000 0.000000
0.000000 0.000000 0.000000
0.000000 0.000000 0.000000
0.000000 0.000000 0.000000
0.000000 0.000000 0.000000
0.000000 0.000000 0.000000
0.000000 0.000000 0.000000
0.000000 0.000000 0.000000
0.000000 0.000000 0.000000
0.000000 0.000000 0.000000
0.000000 0.000000 0.000000
0.000000 0.000000 0.000000
0.000000 0.000000 0.000000
0.000000 0.000000 0.000000
0.000000 0.000000 0.000000
0.000000 0.000000 0.000000
0.000000 0.000000 0.000000
0.000000 0.000000 0.000000
0.000000 0.000000 0.000000
0.000000 0.000000 0.000000
0.000000 0.000000 0.000000
0.000000 0.000000 0.000000
0.000000 0.000000 0.000000
0.000000 0.000000 0.000000
0.000000 0.000000 0.000000
0.000000 0.000000 0.000000
0.000000 0.000000 0.000000
0.000000 0.000000 0.000000
0.000000 0.000000 0.000000
0.000000 0.000000 0.000000
0.000000 0.000000 0.000000
0.000000 0.000000 0.000000
0.000000 0.000000 0.000000
0.000000 0.000000 0.000000
0.000000 0.000000 0.000000
0.000000 0.000000 0.000000
0.000000 0.000000 0.000000
0.000000 0.000000 0.000000
0.000000 0.000000 0.000000
0.000000 0.000000 0.000000
0.000000 0.000000 0.000000
0.000000 0.000000 0.000000
0.000000 0.000000 0.000000
0.000000 0.000000 0.000000
0.000000 0.000000 0.000000
0.000000 0.000000 0.000000
0.000000 0.000000 0.000000
0.000000 0.000000 0.000000
0.000000 0.000000 0.000000
0.000000 0.000000 0.000000
0.000000 0.000000 0.000000
0.000000 0.000000 0.000000
0.000000 0.000000 0.000000
0.000000 0.000000 0.000000
0.000000 0.000000 0.000000
0.000000 0.000000 0.000000
0.000000 0.000000 0.000000
0.000000 0.000000 0.000000
0.000000 0.000000 0.000000
0.000000 0.000000 0.000000
0.000000 0.000000 0.000000
0.000000 0.000000 0.000000
0.000000 0.000000 0.000000
0.000000 0.000000 0.000000
0.000000 0.000000 0.000000
0.000000 0.000000 0.000000
0.000000 0.000000 0.000000
0.000000 0.000000 0.000000
0.000000 0.000000 0.000000
0.000000 0.000000 0.000000
0.000000 0.000000 0.000000
0.000000 0.000000 0.000000
0.000000 0.000000 0.000000
0.000000 0.000000 0.000000
0.000000 0.000000 0.000000
0.000000 0.000000 0.000000
0.000000 0.000000 0.000000
0.000000 0.000000 0.000000
0.000000 0.000000 0.000000
0.000000 0.000000 0.000000
0.000000 0.000000 0.000000
0.000000 0.000000 0.000000
0.000000 0.000000 0.000000
0.000000 0.000000 0.000000
0.000000 0.000000 0.000000
0.000000 0.000000 0.000000
0.000000 0.000000 0.000000
0.000000 0.000000 0.000000
0.000000 0.000000 0.000000
0.000000 0.000000 0.000000
0.000000 0.000000 0.000000
0.000000 0.000000 0.000000
0.000000 0.000000 0.000000
0.000000 0.000000 0.000000
0.000000 0.000000 0.000000
0.000000 0.000000 0.000000
0.000000 0.000000 0.000000
0.000000 0.000000 0.000000
0.000000 0.000000 0.000000
0.000000 0.000000 0.000000
0.000000 0.000000 0.000000
0.000000 0.000000 0.000000
0.000000 0.000000 0.000000
0.000000 0.000000 0.000000
0.000000 0.000000 0.000000
0.000000 0.000000 0.000000
0.000000 0.000000 0.000000
0.000000 0.000000 0.000000
0.000000 0.000000 0.000000
0.000000 0.000000 0.000000
0.000000 0.000000 0.000000
0.000000 0.000000 0.000000
0.000000 0.000000 0.000000
0.000000 0.000000 0.000000
0.000000 0.000000 0.000000
0.000000 0.000000 0.000000
0.000000 0.000000 0.000000
0.000000 0.000000 0.000000
0.000000 0.000000 0.000000
0.000000 0.000000 0.000000
0.000000 0.000000 0.000000
0.000000 0.000000 0.000000
0.000000 0.000000 0.000000
0.000000 0.000000 0.000000
0.000000 0.000000 0.000000
0.000000 0.000000 0.000000
0.000000 0.000000 0.000000
0.000000 0.000000 0.000000
0.000000 0.000000 0.000000
0.000000 0.000000 0.000000
0.000000 0.000000 0.000000
0.000000 0.000000 0.000000
0.000000 0.000000 0.000000
0.000000 0.000000 0.000000
0.000000 0.000000 0.000000
0.000000 0.000000 0.000000
0.000000 0.000000 0.000000
0.000000 0.000000 0.000000
0.000000 0.000000 0.000000
0.000000 0.000000 0.000000
0.000000 0.000000 0.000000
0.000000 0.000000 0.000000
0.000000 0.000000 0.000000
0.000000 0.000000 0.000000
0.000000 0.000000 -50.000000
-50.000000 0.000000 -50.000000
-43.336372 0.000000 -45.693228
-45.522773 0.000000 -43.291648
-50.000000 0.000000 -50.000000
-36.671742 0.000000 -36.583510
-50.000000 0.000000 -45.085690
-40.027814 0.000000 -40.030657
-44.194072 0.000000 -29.875346
-50.000000 0.000000 -50.000000
-30.006956 0.000000 -44.851444
-33.541569 0.000000 -33.133686
-44.716676 0.000000 -39.866634
-36.864948 0.000000 -35.123905
-39.871271 0.000000 -23.167896
-50.000000 0.000000 -26.520880
-44.706284 0.000000 -50.000000
-23.344015 0.000000 -44.667867
-26.935260 0.000000 -39.359514
-30.342276 0.000000 -29.595527
-39.430991 0.000000 -33.358275
-33.760398 0.000000 -50.000000
-16.681558 0.000000 -16.468454
-50.000000 0.000000 -9.778793
