# vtk DataFile Version 2.0
CellBP Time: 2.28
ASCII
DATASET UNSTRUCTURED_GRID
POINTS 320 double
-50.000000 -50.000000 0.000000
-50.000000 -43.338526 0.000000
-45.690864 -45.523514 0.000000
-43.288864 -50.000000 0.000000
-50.000000 -36.676295 0.000000
-36.577714 -50.000000 0.000000
-45.082814 -40.030152 0.000000
-40.024971 -44.195321 0.000000
-29.866377 -50.000000 0.000000
-50.000000 -30.013979 0.000000
-44.847914 -33.545787 0.000000
-33.124267 -44.718353 0.000000
-39.860330 -36.868721 0.000000
-35.114924 -39.874364 0.000000
-23.155581 -50.000000 0.000000
-26.507579 -44.708816 0.000000
-50.000000 -23.353531 0.000000
-44.663537 -26.941480 0.000000
-39.351796 -30.348095 0.000000
-29.583309 -39.435341 0.000000
-33.347226 -33.766311 0.000000
-50.000000 -16.693513 0.000000
-16.452794 -50.000000 0.000000
-9.760012 -50.000000 0.000000
-19.924329 -44.628597 0.000000
-23.177699 -39.191808 0.000000
-44.687808 -20.273979 0.000000
-39.351090 -23.690876 0.000000
-34.075458 -27.088794 0.000000
-26.349876 -33.693318 0.000000
-29.115500 -29.073380 0.000000
-50.000000 -10.036005 0.000000
-44.658709 -13.627246 0.000000
-50.000000 -3.383217 0.000000
-3.076854 -50.000000 0.000000
3.593374 -50.000000 0.000000
-13.294502 -44.635434 0.000000
-6.627169 -44.645463 0.000000
-16.640392 -39.225097 0.000000
-20.054023 -33.459036 0.000000
-39.315490 -17.009201 0.000000
-33.984480 -20.470082 0.000000
-28.731733 -23.636400 0.000000
-23.449229 -27.517972 0.000000
-44.620730 -6.963608 0.000000
-39.256500 -10.354720 0.000000
-50.000000 3.272258 0.000000
-44.603640 -0.313220 0.000000
10.248822 -50.000000 0.000000
16.891037 -50.000000 0.000000
0.048551 -44.649468 0.000000
6.719944 -44.659815 0.000000
-9.976763 -39.292921 0.000000
-3.290424 -39.287714 0.000000
-13.411666 -33.907920 0.000000
-16.626344 -28.432104 0.000000
-33.893129 -13.766217 0.000000
-28.532800 -17.133891 0.000000
-23.211163 -20.539442 0.000000
-18.571655 -23.487922 0.000000
-39.213403 -3.699988 0.000000
-33.819339 -7.120491 0.000000
-50.000000 9.961668 0.000000
-44.585663 6.340800 0.000000
-39.189430 2.959893 0.000000
-50.000000 16.721468 0.000000
23.523686 -50.000000 0.000000
30.148915 -50.000000 0.000000
13.384979 -44.680771 0.000000
20.051635 -44.712634 0.000000
3.390528 -39.303418 0.000000
10.054478 -39.337201 0.000000
-6.646029 -33.896641 0.000000
0.062753 -33.924240 0.000000
-9.990682 -28.443768 0.000000
-13.013631 -23.101862 0.000000
-28.423385 -10.526671 0.000000
-22.945932 -13.953637 0.000000
-16.855782 -17.464190 0.000000
-33.760078 -0.483342 0.000000
-28.402411 -3.974242 0.000000
-44.549015 13.032508 0.000000
-39.125438 9.588192 0.000000
-33.722806 6.050793 0.000000
-50.000000 23.585246 0.000000
-44.594871 19.827451 0.000000
-50.000000 30.544978 0.000000
36.766586 -50.000000 0.000000
43.383379 -50.000000 0.000000
26.715102 -44.752122 0.000000
33.354577 -44.876410 0.000000
16.708033 -39.393317 0.000000
23.391834 -39.462753 0.000000
6.738604 -33.958712 0.000000
13.380730 -34.026431 0.000000
-3.231524 -28.494997 0.000000
3.471397 -28.566736 0.000000
-6.496588 -23.025811 0.000000
-9.832180 -17.550672 0.000000
-23.005812 -7.382653 0.000000
-17.629356 -10.652534 0.000000
-12.664023 -12.872722 0.000000
-28.361721 2.586540 0.000000
-23.008838 -0.931753 0.000000
-38.990206 16.278670 0.000000
-28.330253 9.280250 0.000000
-33.509849 12.454473 0.000000
-44.739124 26.597162 0.000000
-38.708657 23.636246 0.000000
-44.987078 33.398794 0.000000
-50.000000 37.493605 0.000000
-50.000000 43.856715 0.000000
39.944006 -45.069748 0.000000
45.477419 -45.658542 0.000000
50.000000 -50.000000 0.000000
36.659254 -39.993404 0.000000
30.059553 -39.476169 0.000000
19.981017 -34.137356 0.000000
26.646055 -34.352693 0.000000
10.096250 -28.604722 0.000000
16.704606 -28.726558 0.000000
0.191067 -23.111987 0.000000
6.941979 -23.282346 0.000000
-3.239139 -17.506176 0.000000
-6.668867 -11.330743 0.000000
-17.617831 -4.223739 0.000000
-12.302391 -7.371250 0.000000
-22.940808 5.504324 0.000000
-17.697623 1.983685 0.000000
-22.608913 11.442859 0.000000
-33.305006 18.483081 0.000000
-27.381205 16.092605 0.000000
-33.025635 23.821409 0.000000
-40.297716 30.527183 0.000000
-35.395386 28.947415 0.000000
-39.913220 35.498111 0.000000
-43.914514 40.168458 0.000000
-45.270533 45.765710 0.000000
-50.000000 50.000000 0.000000
44.125297 -39.903738 0.000000
50.000000 -43.384215 0.000000
39.660646 -35.064672 0.000000
33.505256 -33.450815 0.000000
23.062237 -28.871811 0.000000
28.792510 -29.288302 0.000000
13.573357 -23.215161 0.000000
20.151166 -23.512555 0.000000
3.552479 -17.746131 0.000000
10.264788 -17.954403 0.000000
0.331446 -12.250156 0.000000
-1.919067 -6.547846 0.000000
-7.138602 -4.039079 0.000000
-12.318455 -1.182757 0.000000
-17.705614 8.016521 0.000000
-12.588442 4.799037 0.000000
-17.979390 13.124768 0.000000
-20.736344 16.791248 0.000000
-28.007693 22.496605 0.000000
-23.324927 20.981995 0.000000
-29.722187 28.640061 0.000000
-34.142560 34.079640 0.000000
-36.855202 39.940474 0.000000
-39.624577 45.266035 0.000000
-43.397860 50.000000 0.000000
44.592523 -32.991907 0.000000
50.000000 -36.756227 0.000000
39.159387 -29.607603 0.000000
33.552461 -26.406988 0.000000
27.258565 -23.380044 0.000000
23.159222 -18.723040 0.000000
17.105501 -17.070771 0.000000
6.877625 -12.359547 0.000000
12.492171 -12.842614 0.000000
-3.096050 -1.763262 0.000000
4.157015 -7.230640 0.000000
1.286695 -2.327951 0.000000
-6.713158 2.028364 0.000000
-8.056165 7.518821 0.000000
-12.315918 11.534164 0.000000
-15.044919 17.297264 0.000000
-18.457230 22.707040 0.000000
-23.557953 27.194809 0.000000
-26.932442 33.595638 0.000000
-30.031959 39.306761 0.000000
-33.106388 44.834232 0.000000
-36.632186 50.000000 0.000000
44.561036 -26.527491 0.000000
50.000000 -30.129850 0.000000
39.075774 -23.216974 0.000000
33.511589 -19.947287 0.000000
28.125348 -16.642898 0.000000
22.795410 -13.209116 0.000000
17.317484 -10.018170 0.000000
11.129991 -6.781401 0.000000
-1.092087 2.083661 0.000000
6.486356 -1.889161 0.000000
3.181559 1.417776 0.000000
-3.215716 6.969983 0.000000
-5.875129 12.175336 0.000000
-9.094921 17.420413 0.000000
-12.546113 22.872980 0.000000
-16.771544 28.019569 0.000000
-20.162447 33.346155 0.000000
-23.291458 38.983467 0.000000
-26.433960 44.606644 0.000000
-29.882346 50.000000 0.000000
44.546239 -19.963402 0.000000
50.000000 -23.496898 0.000000
39.081658 -16.638447 0.000000
33.651833 -13.337724 0.000000
28.255435 -10.044478 0.000000
22.862399 -6.701492 0.000000
17.438664 -3.455832 0.000000
12.277885 0.059637 0.000000
2.235884 6.092748 0.000000
7.356711 3.702217 0.000000
0.176016 11.771467 0.000000
-2.831030 17.309555 0.000000
-6.223078 22.798408 0.000000
-10.109544 28.119217 0.000000
-13.324106 33.536290 0.000000
-16.589097 38.987727 0.000000
-19.777153 44.497224 0.000000
-23.179076 50.000000 0.000000
44.559659 -13.338011 0.000000
50.000000 -16.854828 0.000000
39.134618 -10.013196 0.000000
33.732529 -6.701369 0.000000
28.356143 -3.386948 0.000000
23.006875 -0.078206 0.000000
17.751362 3.254409 0.000000
12.496310 6.467112 0.000000
7.058095 10.694749 0.000000
3.661133 17.025908 0.000000
0.301093 22.704362 0.000000
-3.139160 28.198754 0.000000
-6.480196 33.681709 0.000000
-9.818259 39.102978 0.000000
-13.116253 44.526808 0.000000
-16.548810 50.000000 0.000000
44.583146 -6.687515 0.000000
50.000000 -10.200754 0.000000
39.184695 -3.366967 0.000000
33.809328 -0.049299 0.000000
28.468917 3.271218 0.000000
23.185186 6.609621 0.000000
18.061498 9.932590 0.000000
12.924026 12.105917 0.000000
10.078412 17.116875 0.000000
6.781835 22.617685 0.000000
3.497238 28.184149 0.000000
0.183562 33.671374 0.000000
-3.145431 39.122453 0.000000
-6.445524 44.557495 0.000000
-9.909867 50.000000 0.000000
44.608335 -0.027281 0.000000
50.000000 -3.534262 0.000000
39.233706 3.291211 0.000000
33.883452 6.605693 0.000000
28.569943 9.935621 0.000000
23.232517 13.348524 0.000000
17.174050 16.946157 0.000000
13.146175 22.597061 0.000000
10.063688 28.171971 0.000000
6.851648 33.673872 0.000000
3.526731 39.134155 0.000000
0.213284 44.569935 0.000000
-3.262004 50.000000 0.000000
44.622180 6.642002 0.000000
50.000000 3.143694 0.000000
39.267530 9.949881 0.000000
33.948684 13.240022 0.000000
28.682131 16.541286 0.000000
23.555854 20.036661 0.000000
18.730289 23.061473 0.000000
16.590904 28.256304 0.000000
13.529697 33.724750 0.000000
10.187509 39.163844 0.000000
6.874659 44.577830 0.000000
3.390300 50.000000 0.000000
44.645291 13.300721 0.000000
50.000000 9.831434 0.000000
39.318925 16.589966 0.000000
34.030146 19.838700 0.000000
28.739341 22.898271 0.000000
23.432770 27.178900 0.000000
20.062865 33.283513 0.000000
16.740062 39.028729 0.000000
13.445619 44.522985 0.000000
10.046773 50.000000 0.000000
44.667529 19.961186 0.000000
50.000000 16.525274 0.000000
39.362060 23.246760 0.000000
34.134872 26.500578 0.000000
29.084930 28.521119 0.000000
26.329183 33.393493 0.000000
23.200971 38.959052 0.000000
20.033488 44.504539 0.000000
16.702678 50.000000 0.000000
44.674264 26.635219 0.000000
50.000000 23.221129 0.000000
39.354282 29.957257 0.000000
33.303453 33.364355 0.000000
29.514932 39.039229 0.000000
26.535134 44.505103 0.000000
23.359051 50.000000 0.000000
44.807236 33.287155 0.000000
50.000000 29.917171 0.000000
39.792245 36.593572 0.000000
34.907025 39.524999 0.000000
32.915341 44.513872 0.000000
30.017472 50.000000 0.000000
45.007667 39.877241 0.000000
50.000000 36.612681 0.000000
39.788681 43.970369 0.000000
36.675529 50.000000 0.000000
45.646239 45.412032 0.000000
50.000000 43.306727 0.000000
43.334665 50.000000 0.000000
50.000000 50.000000 0.000000
CELLS 578 2312
3 1 0 2
3 0 3 2
3 4 1 6
3 6 1 2
3 3 5 7
3 3 7 2
3 6 2 7
3 9 4 10
3 10 4 6
3 5 8 11
3 7 5 11
3 10 6 12
3 12 6 7
3 7 11 13
3 7 13 12
3 8 14 15
3 11 8 15
3 16 9 17
3 17 9 10
3 17 10 18
3 18 10 12
3 11 15 19
3 13 11 19
3 18 12 20
3 13 19 20
3 20 12 13
3 14 22 24
3 15 14 24
3 15 24 25
3 19 15 25
3 21 16 26
3 26 16 17
3 26 17 27
3 27 17 18
3 27 18 28
3 28 18 20
3 19 25 29
3 19 29 20
3 28 20 30
3 30 20 29
3 31 21 32
3 32 21 26
3 22 23 36
3 24 22 36
3 23 34 37
3 36 23 37
3 24 36 38
3 25 24 38
3 25 38 39
3 29 25 39
3 32 26 40
3 40 26 27
3 40 27 41
3 41 27 28
3 41 28 42
3 42 28 30
3 29 39 43
3 29 43 30
3 42 30 43
3 33 31 44
3 44 31 32
3 44 32 45
3 45 32 40
3 46 33 47
3 47 33 44
3 34 35 50
3 37 34 50
3 35 48 51
3 50 35 51
3 36 37 52
3 38 36 52
3 37 50 53
3 52 37 53
3 38 52 54
3 39 38 54
3 39 54 55
3 43 39 55
3 45 40 56
3 56 40 41
3 56 41 57
3 57 41 42
3 57 42 58
3 58 42 43
3 43 55 59
3 43 59 58
3 47 44 60
3 60 44 45
3 60 45 61
3 61 45 56
3 62 46 63
3 63 46 47
3 63 47 64
3 64 47 60
3 48 49 68
3 51 48 68
3 49 66 69
3 68 49 69
3 50 51 70
3 53 50 70
3 51 68 71
3 70 51 71
3 52 53 72
3 54 52 72
3 53 70 73
3 72 53 73
3 54 72 74
3 55 54 74
3 55 74 75
3 59 55 75
3 61 56 76
3 76 56 57
3 76 57 77
3 77 57 58
3 77 58 78
3 59 75 78
3 78 58 59
3 64 60 79
3 79 60 61
3 79 61 80
3 80 61 76
3 65 62 81
3 81 62 63
3 81 63 82
3 82 63 64
3 82 64 83
3 83 64 79
3 84 65 85
3 85 65 81
3 66 67 89
3 69 66 89
3 67 87 90
3 89 67 90
3 68 69 91
3 71 68 91
3 69 89 92
3 91 69 92
3 70 71 93
3 73 70 93
3 71 91 94
3 93 71 94
3 72 73 95
3 74 72 95
3 73 93 96
3 95 73 96
3 74 95 97
3 75 74 97
3 75 97 98
3 78 75 98
3 80 76 99
3 99 76 77
3 99 77 100
3 100 77 78
3 100 78 101
3 98 101 78
3 83 79 102
3 102 79 80
3 102 80 103
3 103 80 99
3 85 81 104
3 104 81 82
3 105 83 102
3 104 82 106
3 106 82 83
3 106 83 105
3 86 84 107
3 107 84 85
3 107 85 108
3 108 85 104
3 109 86 107
3 110 86 109
3 87 88 112
3 90 87 112
3 112 88 113
3 88 114 113
3 90 112 115
3 89 90 116
3 92 89 116
3 116 90 115
3 91 92 117
3 94 91 117
3 92 116 118
3 117 92 118
3 93 94 119
3 96 93 119
3 94 117 120
3 119 94 120
3 95 96 121
3 97 95 121
3 96 119 122
3 121 96 122
3 97 121 123
3 98 97 123
3 98 123 124
3 98 124 101
3 103 99 125
3 125 99 100
3 125 100 126
3 126 100 101
3 126 101 124
3 105 102 127
3 127 102 103
3 127 103 128
3 128 103 125
3 129 105 127
3 108 104 130
3 130 104 106
3 130 106 131
3 131 106 105
3 131 105 129
3 108 130 132
3 109 107 133
3 133 107 108
3 133 108 134
3 108 132 134
3 135 109 133
3 111 110 136
3 136 110 109
3 136 109 135
3 137 111 136
3 138 111 137
3 112 113 139
3 115 112 139
3 114 140 113
3 140 139 113
3 139 141 115
3 116 115 142
3 118 116 142
3 142 115 141
3 117 118 143
3 120 117 143
3 118 142 144
3 143 118 144
3 119 120 145
3 122 119 145
3 120 143 146
3 145 120 146
3 121 122 147
3 123 121 147
3 122 145 148
3 147 122 148
3 123 147 149
3 124 123 149
3 124 149 150
3 151 126 124
3 124 150 151
3 128 125 152
3 152 125 126
3 152 126 151
3 129 127 153
3 153 127 128
3 128 152 154
3 153 128 154
3 155 129 153
3 131 129 156
3 156 129 155
3 132 130 157
3 130 131 157
3 157 131 158
3 131 156 158
3 132 157 159
3 132 159 134
3 135 133 160
3 160 133 134
3 160 134 159
3 136 135 161
3 135 160 161
3 162 137 136
3 161 162 136
3 163 138 137
3 162 163 137
3 139 164 141
3 140 165 139
3 139 165 164
3 141 164 166
3 141 166 142
3 166 167 142
3 144 142 167
3 167 168 144
3 143 144 168
3 146 143 168
3 168 169 146
3 145 146 170
3 148 145 170
3 170 146 169
3 147 148 171
3 149 147 171
3 148 170 172
3 171 148 172
3 173 151 150
3 149 171 174
3 150 149 174
3 150 174 175
3 150 175 173
3 154 152 176
3 152 151 176
3 176 151 173
3 154 176 177
3 155 153 178
3 177 178 154
3 154 178 153
3 156 155 179
3 155 178 179
3 180 158 156
3 179 180 156
3 181 159 157
3 180 181 158
3 181 157 158
3 182 160 159
3 181 182 159
3 183 161 160
3 182 183 160
3 184 162 161
3 184 161 183
3 185 163 162
3 184 185 162
3 164 186 166
3 165 187 164
3 164 187 186
3 166 186 188
3 166 188 167
3 167 188 189
3 167 189 168
3 168 189 190
3 168 190 169
3 169 190 191
3 169 191 170
3 192 172 170
3 170 191 192
3 192 193 172
3 171 172 193
3 174 171 193
3 194 173 175
3 176 173 194
3 175 174 195
3 193 195 174
3 195 196 175
3 175 196 194
3 197 177 176
3 194 197 176
3 198 178 177
3 197 198 177
3 199 179 178
3 198 199 178
3 200 180 179
3 199 200 179
3 201 181 180
3 200 201 180
3 202 182 181
3 201 202 181
3 203 183 182
3 202 203 182
3 204 184 183
3 203 204 183
3 205 185 184
3 204 205 184
3 186 206 188
3 187 207 186
3 186 207 206
3 188 206 208
3 188 208 189
3 189 208 209
3 189 209 190
3 190 209 210
3 190 210 191
3 191 210 211
3 191 211 192
3 192 211 212
3 192 212 193
3 193 212 213
3 193 213 195
3 214 197 194
3 214 194 196
3 195 213 215
3 195 215 196
3 196 215 214
3 216 198 197
3 214 216 197
3 217 199 198
3 216 217 198
3 218 200 199
3 217 218 199
3 219 201 200
3 218 219 200
3 220 202 201
3 219 220 201
3 221 203 202
3 220 221 202
3 222 204 203
3 221 222 203
3 223 205 204
3 222 223 204
3 206 224 208
3 207 225 206
3 206 225 224
3 208 224 226
3 208 226 209
3 209 226 227
3 209 227 210
3 210 227 228
3 210 228 211
3 211 228 229
3 211 229 212
3 212 229 230
3 212 230 213
3 213 230 231
3 213 231 215
3 232 216 214
3 215 231 232
3 232 214 215
3 233 217 216
3 232 233 216
3 234 218 217
3 233 234 217
3 235 219 218
3 234 235 218
3 236 220 219
3 235 236 219
3 237 221 220
3 236 237 220
3 238 222 221
3 237 238 221
3 239 223 222
3 238 239 222
3 224 240 226
3 225 241 224
3 224 241 240
3 226 240 242
3 226 242 227
3 227 242 243
3 227 243 228
3 228 243 244
3 228 244 229
3 244 245 229
3 229 245 230
3 230 245 246
3 230 246 231
3 231 246 247
3 231 247 232
3 248 233 232
3 248 232 247
3 249 234 233
3 248 249 233
3 250 235 234
3 249 250 234
3 251 236 235
3 250 251 235
3 252 237 236
3 251 252 236
3 253 238 237
3 252 253 237
3 254 239 238
3 253 254 238
3 240 255 242
3 241 256 240
3 240 256 255
3 242 255 257
3 242 257 243
3 243 257 258
3 243 258 244
3 244 258 259
3 244 259 245
3 245 259 260
3 245 260 246
3 246 260 261
3 246 261 247
3 248 247 261
3 262 249 248
3 261 262 248
3 263 250 249
3 262 263 249
3 264 251 250
3 263 264 250
3 265 252 251
3 264 265 251
3 266 253 252
3 265 266 252
3 267 254 253
3 266 267 253
3 255 268 257
3 256 269 255
3 255 269 268
3 257 268 270
3 257 270 258
3 258 270 271
3 258 271 259
3 259 271 272
3 259 272 260
3 260 272 273
3 260 273 261
3 274 262 261
3 261 273 274
3 275 263 262
3 274 275 262
3 276 264 263
3 275 276 263
3 277 265 264
3 276 277 264
3 278 266 265
3 277 278 265
3 279 267 266
3 278 279 266
3 268 280 270
3 269 281 268
3 268 281 280
3 270 280 282
3 270 282 271
3 271 282 283
3 271 283 272
3 283 284 272
3 272 284 273
3 285 275 274
3 273 284 285
3 285 274 273
3 286 276 275
3 285 286 275
3 287 277 276
3 286 287 276
3 288 278 277
3 287 288 277
3 289 279 278
3 288 289 278
3 280 290 282
3 281 291 280
3 280 291 290
3 282 290 292
3 282 292 283
3 283 292 293
3 283 293 284
3 284 293 294
3 284 294 285
3 295 286 285
3 295 285 294
3 296 287 286
3 295 296 286
3 297 288 287
3 296 297 287
3 298 289 288
3 297 298 288
3 290 299 292
3 291 300 290
3 290 300 299
3 292 299 301
3 292 301 293
3 293 301 302
3 293 302 294
3 294 302 295
3 303 296 295
3 303 295 302
3 304 297 296
3 303 304 296
3 305 298 297
3 304 305 297
3 299 306 301
3 300 307 299
3 299 307 306
3 301 306 308
3 301 308 302
3 309 303 302
3 302 308 309
3 310 304 303
3 309 310 303
3 311 305 304
3 310 311 304
3 306 312 308
3 307 313 306
3 306 313 312
3 314 310 309
3 308 312 314
3 314 309 308
3 315 311 310
3 314 315 310
3 312 316 314
3 313 317 312
3 312 317 316
3 318 315 314
3 318 314 316
3 317 319 316
3 319 318 316
CELL_TYPES 578
5
5
5
5
5
5
5
5
5
5
5
5
5
5
5
5
5
5
5
5
5
5
5
5
5
5
5
5
5
5
5
5
5
5
5
5
5
5
5
5
5
5
5
5
5
5
5
5
5
5
5
5
5
5
5
5
5
5
5
5
5
5
5
5
5
5
5
5
5
5
5
5
5
5
5
5
5
5
5
5
5
5
5
5
5
5
5
5
5
5
5
5
5
5
5
5
5
5
5
5
5
5
5
5
5
5
5
5
5
5
5
5
5
5
5
5
5
5
5
5
5
5
5
5
5
5
5
5
5
5
5
5
5
5
5
5
5
5
5
5
5
5
5
5
5
5
5
5
5
5
5
5
5
5
5
5
5
5
5
5
5
5
5
5
5
5
5
5
5
5
5
5
5
5
5
5
5
5
5
5
5
5
5
5
5
5
5
5
5
5
5
5
5
5
5
5
5
5
5
5
5
5
5
5
5
5
5
5
5
5
5
5
5
5
5
5
5
5
5
5
5
5
5
5
5
5
5
5
5
5
5
5
5
5
5
5
5
5
5
5
5
5
5
5
5
5
5
5
5
5
5
5
5
5
5
5
5
5
5
5
5
5
5
5
5
5
5
5
5
5
5
5
5
5
5
5
5
5
5
5
5
5
5
5
5
5
5
5
5
5
5
5
5
5
5
5
5
5
5
5
5
5
5
5
5
5
5
5
5
5
5
5
5
5
5
5
5
5
5
5
5
5
5
5
5
5
5
5
5
5
5
5
5
5
5
5
5
5
5
5
5
5
5
5
5
5
5
5
5
5
5
5
5
5
5
5
5
5
5
5
5
5
5
5
5
5
5
5
5
5
5
5
5
5
5
5
5
5
5
5
5
5
5
5
5
5
5
5
5
5
5
5
5
5
5
5
5
5
5
5
5
5
5
5
5
5
5
5
5
5
5
5
5
5
5
5
5
5
5
5
5
5
5
5
5
5
5
5
5
5
5
5
5
5
5
5
5
5
5
5
5
5
5
5
5
5
5
5
5
5
5
5
5
5
5
5
5
5
5
5
5
5
5
5
5
5
5
5
5
5
5
5
5
5
5
5
5
5
5
5
5
5
5
5
5
5
5
5
5
5
5
5
5
5
5
5
5
5
5
5
5
5
5
5
5
5
5
5
5
5
5
5
5
5
5
5
5
5
5
5
5
5
5
5
5
5
5
5
5
5
5
5
5
5
5
5
5
5
5
5
5
5
5
5
5
5
5
5
5
5
5
5
5
5
5
5
5
5
5
5
5
5
5
5
5
5
5
5
5
5
5
5
5
5
5
5
5
5
POINT_DATA 320
SCALARS theta_e float 1
LOOKUP_TABLE default
0.993512
0.993501
0.993514
0.993529
0.993482
0.993569
0.993502
0.993539
0.993632
0.993457
0.993480
0.993595
0.993518
0.993559
0.993700
0.993659
0.993428
0.993453
0.993493
0.993610
0.993550
0.993394
0.993769
0.993837
0.993727
0.993675
0.993421
0.993462
0.993515
0.993620
0.993572
0.993351
0.993382
0.993296
0.993904
0.993972
0.993795
0.993864
0.993746
0.993693
0.993428
0.993487
0.993552
0.993630
0.993332
0.993384
0.993227
0.993268
0.994045
0.994124
0.993933
0.994003
0.993824
0.993899
0.993778
0.993716
0.993448
0.993505
0.993572
0.993643
0.993326
0.993394
0.993147
0.993194
0.993256
0.993064
0.994212
0.994303
0.994078
0.994161
0.993971
0.994041
0.993864
0.993946
0.993802
0.993709
0.993439
0.993485
0.993582
0.993329
0.993365
0.993114
0.993181
0.993261
0.992989
0.993039
0.992924
0.994385
0.994442
0.994251
0.994338
0.994112
0.994189
0.994021
0.994086
0.993893
0.993982
0.993808
0.993696
0.993389
0.993492
0.993609
0.993303
0.993314
0.993108
0.993256
0.993196
0.992971
0.993045
0.992911
0.992879
0.992857
0.994408
0.994450
0.994463
0.994348
0.994272
0.994146
0.994207
0.994061
0.994122
0.993912
0.994008
0.993807
0.993726
0.993420
0.993522
0.993269
0.993335
0.993251
0.993137
0.993219
0.993092
0.992979
0.993040
0.992933
0.992884
0.992859
0.992850
0.994401
0.994440
0.994336
0.994268
0.994167
0.994205
0.994087
0.994143
0.993918
0.994018
0.993864
0.993783
0.993766
0.993463
0.993276
0.993405
0.993259
0.993250
0.993163
0.993222
0.993095
0.993008
0.992937
0.992892
0.992868
0.994338
0.994386
0.994269
0.994215
0.994177
0.994146
0.994085
0.993942
0.993996
0.993755
0.993802
0.993782
0.993620
0.993496
0.993337
0.993272
0.993252
0.993174
0.993087
0.993010
0.992948
0.992911
0.994257
0.994306
0.994204
0.994171
0.994151
0.994099
0.994010
0.993853
0.993773
0.993731
0.993864
0.993569
0.993458
0.993330
0.993286
0.993236
0.993162
0.993089
0.993020
0.992973
0.994181
0.994224
0.994143
0.994124
0.994098
0.994021
0.993899
0.993773
0.993580
0.993605
0.993542
0.993444
0.993339
0.993294
0.993235
0.993169
0.993102
0.993050
0.994110
0.994148
0.994082
0.994066
0.994023
0.993927
0.993797
0.993758
0.993636
0.993524
0.993412
0.993353
0.993305
0.993247
0.993188
0.993136
0.994043
0.994079
0.994019
0.993995
0.993936
0.993835
0.993714
0.993654
0.993588
0.993488
0.993421
0.993374
0.993323
0.993272
0.993223
0.993980
0.994014
0.993952
0.993918
0.993853
0.993756
0.993655
0.993559
0.993493
0.993443
0.993396
0.993350
0.993305
0.993920
0.993953
0.993888
0.993848
0.993784
0.993700
0.993624
0.993569
0.993514
0.993467
0.993422
0.993380
0.993868
0.993898
0.993835
0.993793
0.993734
0.993653
0.993591
0.993539
0.993491
0.993449
0.993826
0.993850
0.993798
0.993758
0.993707
0.993662
0.993609
0.993559
0.993516
0.993796
0.993813
0.993771
0.993726
0.993673
0.993626
0.993584
0.993779
0.993790
0.993756
0.993722
0.993689
0.993652
0.993771
0.993780
0.993744
0.993716
0.993773
0.993780
0.993760
0.993780
VECTORS fa_u float
0.000000 0.000000 0.000000
0.000000 0.000000 0.000000
0.000000 0.000000 0.000000
0.000000 0.000000 0.000000
0.000000 0.000000 0.000000
0.000000 0.000000 0.000000
0.000000 0.000000 0.000000
0.000000 0.000000 0.000000
0.000000 0.000000 0.000000
0.000000 0.000000 0.000000
0.000000 0.000000 0.000000
0.000000 0.000000 0.000000
0.000000 0.000000 0.000000
0.000000 0.000000 0.000000
0.000000 0.000000 0.000000
0.000000 0.000000 0.000000
0.000000 0.000000 0.000000
0.000000 0.000000 0.000000
0.000000 0.000000 0.000000
0.000000 0.000000 0.000000
0.000000 0.000000 0.000000
0.000000 0.000000 0.000000
0.000000 0.000000 0.000000
0.000000 0.000000 0.000000
0.000000 0.000000 0.000000
0.000000 0.000000 0.000000
0.000000 0.000000 0.000000
0.000000 0.000000 0.000000
0.000000 0.000000 0.000000
0.000000 0.000000 0.000000
0.000000 0.000000 0.000000
0.000000 0.000000 0.000000
0.000000 0.000000 0.000000
0.000000 0.000000 0.000000
0.000000 0.000000 0.000000
0.000000 0.000000 0.000000
0.000000 0.000000 0.000000
0.000000 0.000000 0.000000
0.000000 0.000000 0.000000
0.000000 0.000000 0.000000
0.000000 0.000000 0.000000
0.000000 0.000000 0.000000
0.000000 0.000000 0.000000
0.000000 0.000000 0.000000
0.000000 0.000000 0.000000
0.000000 0.000000 0.000000
0.000000 0.000000 0.000000
0.000000 0.000000 0.000000
0.000000 0.000000 0.000000
0.000000 0.000000 0.000000
0.000000 0.000000 0.000000
0.000000 0.000000 0.000000
0.000000 0.000000 0.000000
0.000000 0.000000 0.000000
0.000000 0.000000 0.000000
0.000000 0.000000 0.000000
0.000000 0.000000 0.000000
0.000000 0.000000 0.000000
0.000000 0.000000 0.000000
0.000000 0.000000 0.000000
0.000000 0.000000 0.000000
0.000000 0.000000 0.000000
0.000000 0.000000 0.000000
0.000000 0.000000 0.000000
0.000000 0.000000 0.000000
0.000000 0.000000 0.000000
0.000000 0.000000 0.000000
0.000000 0.000000 0.000000
0.000000 0.000000 0.000000
0.000000 0.000000 0.000000
0.000000 0.000000 0.000000
0.000000 0.000000 0.000000
0.000000 0.000000 0.000000
0.000000 0.000000 0.000000
0.000000 0.000000 0.000000
0.000000 0.000000 0.000000
0.000000 0.000000 0.000000
0.000000 0.000000 0.000000
0.000000 0.000000 0.000000
0.000000 0.000000 0.000000
0.000000 0.000000 0.000000
0.000000 0.000000 0.000000
0.000000 0.000000 0.000000
0.000000 0.000000 0.000000
0.000000 0.000000 0.000000
0.000000 0.000000 0.000000
0.000000 0.000000 0.000000
0.000000 0.000000 0.000000
0.000000 0.000000 0.000000
0.000000 0.000000 0.000000
0.000000 0.000000 0.000000
0.000000 0.000000 0.000000
0.000000 0.000000 0.000000
0.000000 0.000000 0.000000
0.000000 0.000000 0.000000
0.000000 0.000000 0.000000
0.000000 0.000000 0.000000
0.000000 0.000000 0.000000
0.000000 0.000000 0.000000
0.000000 0.000000 0.000000
0.000000 0.000000 0.000000
0.000000 0.000000 0.000000
0.000000 0.000000 0.000000
0.000000 0.000000 0.000000
0.000000 0.000000 0.000000
0.000000 0.000000 0.000000
0.000000 0.000000 0.000000
0.000000 0.000000 0.000000
0.000000 0.000000 0.000000
0.000000 0.000000 0.000000
0.000000 0.000000 0.000000
0.000000 0.000000 0.000000
0.000000 0.000000 0.000000
0.000000 0.000000 0.000000
0.000000 0.000000 0.000000
0.000000 0.000000 0.000000
0.000000 0.000000 0.000000
0.000000 0.000000 0.000000
0.000000 0.000000 0.000000
0.000000 0.000000 0.000000
0.000000 0.000000 0.000000
0.000000 0.000000 0.000000
0.000000 0.000000 0.000000
0.000000 0.000000 0.000000
0.000000 0.000000 0.000000
0.000000 0.000000 0.000000
0.000000 0.000000 0.000000
0.000000 0.000000 0.000000
0.000000 0.000000 0.000000
0.000000 0.000000 0.000000
0.000000 0.000000 0.000000
0.000000 0.000000 0.000000
0.000000 0.000000 0.000000
0.000000 0.000000 0.000000
0.000000 0.000000 0.000000
0.000000 0.000000 0.000000
0.000000 0.000000 0.000000
0.000000 0.000000 0.000000
0.000000 0.000000 0.000000
0.000000 0.000000 0.000000
0.000000 0.000000 0.000000
0.000000 0.000000 0.000000
0.000000 0.000000 0.000000
0.000000 0.000000 0.000000
0.000000 0.000000 0.000000
0.000000 0.000000 0.000000
0.000000 0.000000 0.000000
0.000000 0.000000 0.000000
0.000000 0.000000 0.000000
0.000000 0.000000 0.000000
0.000000 0.000000 0.000000
0.000000 0.000000 0.000000
0.000000 0.000000 0.000000
0.000000 0.000000 0.000000
0.000000 0.000000 0.000000
0.000000 0.000000 0.000000
0.000000 0.000000 0.000000
0.000000 0.000000 0.000000
0.000000 0.000000 0.000000
0.000000 0.000000 0.000000
0.000000 0.000000 0.000000
0.000000 0.000000 0.000000
0.000000 0.000000 0.000000
0.000000 0.000000 0.000000
0.000000 0.000000 0.000000
0.000000 0.000000 0.000000
0.000000 0.000000 0.000000
0.000000 0.000000 0.000000
0.000000 0.000000 0.000000
0.000000 0.000000 0.000000
0.000000 0.000000 0.000000
0.000000 0.000000 0.000000
0.000000 0.000000 0.000000
0.000000 0.000000 0.000000
0.000000 0.000000 0.000000
0.000000 0.000000 0.000000
0.000000 0.000000 0.000000
0.000000 0.000000 0.000000
0.000000 0.000000 0.000000
0.000000 0.000000 0.000000
0.000000 0.000000 0.000000
0.000000 0.000000 0.000000
0.000000 0.000000 0.000000
0.000000 0.000000 0.000000
0.000000 0.000000 0.000000
0.000000 0.000000 0.000000
0.000000 0.000000 0.000000
0.000000 0.000000 0.000000
0.000000 0.000000 0.000000
0.000000 0.000000 0.000000
0.000000 0.000000 0.000000
0.000000 0.000000 0.000000
0.000000 0.000000 0.000000
0.000000 0.000000 0.000000
0.000000 0.000000 0.000000
0.000000 0.000000 0.000000
0.000000 0.000000 0.000000
0.000000 0.000000 0.000000
0.000000 0.000000 0.000000
0.000000 0.000000 0.000000
0.000000 0.000000 0.000000
0.000000 0.000000 0.000000
0.000000 0.000000 0.000000
0.000000 0.000000 0.000000
0.000000 0.000000 0.000000
0.000000 0.000000 0.000000
0.000000 0.000000 0.000000
0.000000 0.000000 0.000000
0.000000 0.000000 0.000000
0.000000 0.000000 0.000000
0.000000 0.000000 0.000000
0.000000 0.000000 0.000000
0.000000 0.000000 0.000000
0.000000 0.000000 0.000000
0.000000 0.000000 0.000000
0.000000 0.000000 0.000000
0.000000 0.000000 0.000000
0.000000 0.000000 0.000000
0.000000 0.000000 0.000000
0.000000 0.000000 0.000000
0.000000 0.000000 0.000000
0.000000 0.000000 0.000000
0.000000 0.000000 0.000000
0.000000 0.000000 0.000000
0.000000 0.000000 0.000000
0.000000 0.000000 0.000000
0.000000 0.000000 0.000000
0.000000 0.000000 0.000000
0.000000 0.000000 0.000000
0.000000 0.000000 0.000000
0.000000 0.000000 0.000000
0.000000 0.000000 0.000000
0.000000 0.000000 0.000000
0.000000 0.000000 0.000000
0.000000 0.000000 0.000000
0.000000 0.000000 0.000000
0.000000 0.000000 0.000000
0.000000 0.000000 0.000000
0.000000 0.000000 0.000000
0.000000 0.000000 0.000000
0.000000 0.000000 0.000000
0.000000 0.000000 0.000000
0.000000 0.000000 0.000000
0.000000 0.000000 0.000000
0.000000 0.000000 0.000000
0.000000 0.000000 0.000000
0.000000 0.000000 0.000000
0.000000 0.000000 0.000000
0.000000 0.000000 0.000000
0.000000 0.000000 0.000000
0.000000 0.000000 0.000000
0.000000 0.000000 0.000000
0.000000 0.000000 0.000000
0.000000 0.000000 0.000000
0.000000 0.000000 0.000000
0.000000 0.000000 0.000000
0.000000 0.000000 0.000000
0.000000 0.000000 0.000000
0.000000 0.000000 0.000000
0.000000 0.000000 0.000000
0.000000 0.000000 0.000000
0.000000 0.000000 0.000000
0.000000 0.000000 0.000000
0.000000 0.000000 0.000000
0.000000 0.000000 0.000000
0.000000 0.000000 0.000000
0.000000 0.000000 0.000000
0.000000 0.000000 0.000000
0.000000 0.000000 0.000000
0.000000 0.000000 0.000000
0.000000 0.000000 0.000000
0.000000 0.000000 0.000000
0.000000 0.000000 0.000000
0.000000 0.000000 0.000000
0.000000 0.000000 0.000000
0.000000 0.000000 0.000000
0.000000 0.000000 0.000000
0.000000 0.000000 0.000000
0.000000 0.000000 0.000000
0.000000 0.000000 0.000000
0.000000 0.000000 0.000000
0.000000 0.000000 0.000000
0.000000 0.000000 0.000000
0.000000 0.000000 0.000000
0.000000 0.000000 0.000000
0.000000 0.000000 0.000000
0.000000 0.000000 0.000000
0.000000 0.000000 0.000000
0.000000 0.000000 0.000000
0.000000 0.000000 0.000000
0.000000 0.000000 0.000000
0.000000 0.000000 0.000000
0.000000 0.000000 0.000000
0.000000 0.000000 0.000000
0.000000 0.000000 0.000000
0.000000 0.000000 0.000000
0.000000 0.000000 -50.000000
-50.000000 0.000000 -50.000000
-43.338526 0.000000 -45.690864
-45.523514 0.000000 -43.288864
-50.000000 0.000000 -50.000000
-36.676295 0.000000 -36.577714
-50.000000 0.000000 -45.082814
-40.030152 0.000000 -40.024971
-44.195321 0.000000 -29.866377
-50.000000 0.000000 -50.000000
-30.013979 0.000000 -44.847914
-33.545787 0.000000 -33.124267
-44.718353 0.000000 -39.860330
-36.868721 0.000000 -35.114924
-39.874364 0.000000 -23.155581
-50.000000 0.000000 -26.507579
-44.708816 0.000000 -50.000000
-23.353531 0.000000 -44.663537
-26.941480 0.000000 -39.351796
-30.348095 0.000000 -29.583309
-39.435341 0.000000 -33.347226
-33.766311 0.000000 -50.000000
-16.693513 0.000000 -16.452794
-50.000000 0.000000 -9.760012
