# vtk DataFile Version 2.0
CellBP Time: 2.2
ASCII
DATASET UNSTRUCTURED_GRID
POINTS 320 double
-50.000000 -50.000000 0.000000
-50.000000 -43.349388 0.000000
-45.679998 -45.531108 0.000000
-43.271623 -50.000000 0.000000
-50.000000 -36.697305 0.000000
-36.544536 -50.000000 0.000000
-45.070594 -40.046506 0.000000
-40.000476 -44.204992 0.000000
-29.818814 -50.000000 0.000000
-50.000000 -30.043879 0.000000
-44.835596 -33.571652 0.000000
-33.084325 -44.726923 0.000000
-39.836080 -36.889633 0.000000
-35.079796 -39.890637 0.000000
-23.096170 -50.000000 0.000000
-26.454931 -44.717162 0.000000
-50.000000 -23.390812 0.000000
-44.651276 -26.975752 0.000000
-39.327186 -30.378032 0.000000
-29.536797 -39.451938 0.000000
-33.309264 -33.791369 0.000000
-50.000000 -16.736267 0.000000
-16.384566 -50.000000 0.000000
-9.686336 -50.000000 0.000000
-19.861511 -44.636787 0.000000
-23.120299 -39.208297 0.000000
-44.676236 -20.315057 0.000000
-39.327543 -23.728479 0.000000
-34.040312 -27.122397 0.000000
-26.298706 -33.717843 0.000000
-29.070241 -29.104191 0.000000
-50.000000 -10.082012 0.000000
-44.647799 -13.673148 0.000000
-50.000000 -3.430082 0.000000
-3.001314 -50.000000 0.000000
3.667367 -50.000000 0.000000
-13.224300 -44.643408 0.000000
-6.552812 -44.653282 0.000000
-16.574406 -39.241156 0.000000
-19.993425 -33.483289 0.000000
-39.293164 -17.052770 0.000000
-33.950739 -20.510509 0.000000
-28.687366 -23.673504 0.000000
-23.395012 -27.550311 0.000000
-44.610485 -7.012106 0.000000
-39.235537 -10.402075 0.000000
-50.000000 3.226877 0.000000
-44.593958 -0.362020 0.000000
10.318210 -50.000000 0.000000
16.953152 -50.000000 0.000000
0.123683 -44.657323 0.000000
6.792578 -44.667909 0.000000
-9.905083 -39.308623 0.000000
-3.216350 -39.303337 0.000000
-13.343950 -33.931147 0.000000
-16.563289 -28.462623 0.000000
-33.861425 -13.811646 0.000000
-28.490654 -17.176683 0.000000
-23.159648 -20.578969 0.000000
-18.512852 -23.524372 0.000000
-39.193654 -3.748866 0.000000
-33.789500 -7.168726 0.000000
-50.000000 9.919896 0.000000
-44.576327 6.293933 0.000000
-39.170637 2.911768 0.000000
-50.000000 16.685010 0.000000
23.576224 -50.000000 0.000000
30.190011 -50.000000 0.000000
13.452085 -44.689239 0.000000
20.110490 -44.721525 0.000000
3.463677 -39.319298 0.000000
10.123578 -39.353675 0.000000
-6.574402 -33.919649 0.000000
0.135119 -33.947403 0.000000
-9.922586 -28.473897 0.000000
-12.949476 -23.138208 0.000000
-28.383720 -10.573605 0.000000
-22.896768 -13.998455 0.000000
-16.797620 -17.506305 0.000000
-33.731828 -0.532056 0.000000
-28.365152 -4.022843 0.000000
-44.539708 12.989623 0.000000
-39.107103 9.542965 0.000000
-33.695647 6.003740 0.000000
-50.000000 23.555288 0.000000
-44.585600 19.790468 0.000000
-50.000000 30.522180 0.000000
36.794850 -50.000000 0.000000
43.397898 -50.000000 0.000000
26.763418 -44.761505 0.000000
33.390539 -44.886092 0.000000
16.770299 -39.410556 0.000000
23.444872 -39.480856 0.000000
6.808476 -33.982523 0.000000
13.445165 -34.051270 0.000000
-3.161175 -28.525109 0.000000
3.540911 -28.597390 0.000000
-6.429193 -23.062286 0.000000
-9.767978 -17.592395 0.000000
-22.959883 -7.430735 0.000000
-17.575024 -10.699369 0.000000
-12.603745 -12.918821 0.000000
-28.326258 2.538617 0.000000
-22.965329 -0.980292 0.000000
-38.971906 16.238468 0.000000
-28.296050 9.235029 0.000000
-33.483134 12.411012 0.000000
-44.729987 26.567194 0.000000
-38.689533 23.603037 0.000000
-44.978002 33.376699 0.000000
-50.000000 37.478335 0.000000
-50.000000 43.849054 0.000000
39.966447 -45.079429 0.000000
45.487743 -45.667232 0.000000
50.000000 -50.000000 0.000000
36.688058 -40.012207 0.000000
30.101265 -39.495222 0.000000
20.037675 -34.163433 0.000000
26.692739 -34.379746 0.000000
10.161828 -28.636490 0.000000
16.763733 -28.759827 0.000000
0.259058 -23.148709 0.000000
7.007472 -23.319816 0.000000
-3.173418 -17.548070 0.000000
-6.605713 -11.375481 0.000000
-17.566599 -4.273127 0.000000
-12.243983 -7.420654 0.000000
-22.898901 5.457679 0.000000
-17.648846 1.935133 0.000000
-22.567204 11.399232 0.000000
-33.278015 18.444518 0.000000
-27.346179 16.051760 0.000000
-32.997680 23.788090 0.000000
-40.280856 30.501039 0.000000
-35.370512 28.919452 0.000000
-39.895555 35.478109 0.000000
-43.903685 40.154631 0.000000
-45.262259 45.759509 0.000000
-50.000000 50.000000 0.000000
44.138454 -39.923242 0.000000
50.000000 -43.396735 0.000000
39.682832 -35.092496 0.000000
33.539445 -33.480460 0.000000
23.113015 -28.906466 0.000000
28.834180 -29.323683 0.000000
13.633804 -23.254662 0.000000
20.204181 -23.553424 0.000000
3.616614 -17.788108 0.000000
10.325715 -17.998488 0.000000
0.393112 -12.293882 0.000000
-1.862946 -6.591566 0.000000
-7.081187 -4.082349 0.000000
-12.264476 -1.232893 0.000000
-17.657616 7.970275 0.000000
-12.535865 4.750503 0.000000
-17.932511 13.081879 0.000000
-20.692736 16.751471 0.000000
-27.972929 22.461370 0.000000
-23.284456 20.945637 0.000000
-29.688853 28.611536 0.000000
-34.116024 34.057447 0.000000
-36.833049 39.926322 0.000000
-39.607056 45.259121 0.000000
-43.387522 50.000000 0.000000
44.604070 -33.023723 0.000000
50.000000 -36.780552 0.000000
39.181915 -29.644599 0.000000
33.584969 -26.447646 0.000000
27.301195 -23.423306 0.000000
23.206753 -18.770541 0.000000
17.159820 -17.117902 0.000000
6.937801 -12.407301 0.000000
12.548922 -12.891601 0.000000
-3.041178 -1.807181 0.000000
4.212396 -7.280556 0.000000
1.342160 -2.377872 0.000000
-6.657496 1.982109 0.000000
-8.002395 7.473511 0.000000
-12.264154 11.489906 0.000000
-14.995775 17.257847 0.000000
-18.411178 22.672550 0.000000
-23.517087 27.164735 0.000000
-26.895967 33.573302 0.000000
-29.999969 39.291711 0.000000
-33.078826 44.826769 0.000000
-36.611952 50.000000 0.000000
44.572257 -26.569726 0.000000
50.000000 -30.165598 0.000000
39.097433 -23.263261 0.000000
33.542821 -19.996559 0.000000
28.164725 -16.694289 0.000000
22.841513 -13.261865 0.000000
17.368190 -10.070957 0.000000
11.182944 -6.832999 0.000000
-1.036303 2.033491 0.000000
6.536649 -1.939091 0.000000
3.233731 1.367255 0.000000
-3.161974 6.923842 0.000000
-5.818800 12.131649 0.000000
-9.041086 17.380577 0.000000
-12.495042 22.838509 0.000000
-16.723928 27.990794 0.000000
-20.118130 33.323841 0.000000
-23.250654 38.968280 0.000000
-26.397016 44.598901 0.000000
-29.852890 50.000000 0.000000
44.556873 -20.014726 0.000000
50.000000 -23.542613 0.000000
39.102258 -16.692805 0.000000
33.681301 -13.394070 0.000000
28.292969 -10.101544 0.000000
22.906292 -6.758573 0.000000
17.486591 -3.512271 0.000000
12.326035 0.004062 0.000000
2.288917 6.049111 0.000000
7.405009 3.653948 0.000000
0.232307 11.727977 0.000000
-2.774135 17.269890 0.000000
-6.168337 22.763702 0.000000
-10.057075 28.090569 0.000000
-13.273450 33.514354 0.000000
-16.541010 38.972715 0.000000
-19.732058 44.489553 0.000000
-23.141343 50.000000 0.000000
44.569759 -13.396699 0.000000
50.000000 -16.909128 0.000000
39.154233 -10.073812 0.000000
33.761028 -6.762657 0.000000
28.392532 -3.447810 0.000000
23.049709 -0.137897 0.000000
17.798490 3.195693 0.000000
12.547708 6.410475 0.000000
7.114691 10.646652 0.000000
3.718926 16.983378 0.000000
0.358266 22.668492 0.000000
-3.083210 28.169438 0.000000
-6.425075 33.659393 0.000000
-9.764565 39.087932 0.000000
-13.064676 44.519193 0.000000
-16.503897 50.000000 0.000000
44.592820 -6.751310 0.000000
50.000000 -10.261764 0.000000
39.203783 -3.431337 0.000000
33.837227 -0.113007 0.000000
28.504781 3.209322 0.000000
23.227643 6.550251 0.000000
18.109737 9.876352 0.000000
12.977418 12.053249 0.000000
10.134366 17.070997 0.000000
6.838672 22.578965 0.000000
3.554533 28.153114 0.000000
0.240990 33.647868 0.000000
-3.088341 39.106772 0.000000
-6.389480 44.549726 0.000000
-9.859280 50.000000 0.000000
44.617836 -0.093452 0.000000
50.000000 -3.599605 0.000000
39.252598 3.225876 0.000000
33.911277 6.542443 0.000000
28.605947 9.875587 0.000000
23.275831 13.292950 0.000000
17.224284 16.896256 0.000000
13.200128 22.555496 0.000000
10.119418 28.138566 0.000000
6.908772 33.648892 0.000000
3.584665 39.117637 0.000000
0.271361 44.561855 0.000000
-3.207714 50.000000 0.000000
44.631688 6.576447 0.000000
50.000000 3.076916 0.000000
39.286554 9.886619 0.000000
33.976795 13.180248 0.000000
28.718708 16.486108 0.000000
23.599516 19.987272 0.000000
18.779507 23.017653 0.000000
16.642559 28.220312 0.000000
13.583904 33.697747 0.000000
10.243777 39.146071 0.000000
6.932257 44.569182 0.000000
3.445997 50.000000 0.000000
44.654946 13.238844 0.000000
50.000000 9.766384 0.000000
39.338246 16.531794 0.000000
34.058737 19.785300 0.000000
28.776422 22.850148 0.000000
23.477264 27.138537 0.000000
20.111531 33.253727 0.000000
16.792024 39.009313 0.000000
13.500116 44.513533 0.000000
10.101256 50.000000 0.000000
44.677359 19.905956 0.000000
50.000000 16.465201 0.000000
39.381675 23.196556 0.000000
34.163682 26.456125 0.000000
29.121810 28.481146 0.000000
26.370227 33.362337 0.000000
23.246229 38.938329 0.000000
20.082292 44.494398 0.000000
16.753165 50.000000 0.000000
44.684341 26.589284 0.000000
50.000000 23.169065 0.000000
39.374246 29.917456 0.000000
33.334043 33.331482 0.000000
29.551749 39.017508 0.000000
26.576137 44.494290 0.000000
23.403027 50.000000 0.000000
44.817263 33.252626 0.000000
50.000000 29.875745 0.000000
39.811668 36.565864 0.000000
34.935096 39.503536 0.000000
32.946825 44.502718 0.000000
30.052672 50.000000 0.000000
45.017432 39.855563 0.000000
50.000000 36.583897 0.000000
39.808284 43.957494 0.000000
36.700246 50.000000 0.000000
45.654812 45.402052 0.000000
50.000000 43.291866 0.000000
43.347324 50.000000 0.000000
50.000000 50.000000 0.000000
CELLS 578 2312
3 1 0 2
3 0 3 2
3 4 1 6
3 6 1 2
3 3 5 7
3 3 7 2
3 6 2 7
3 9 4 10
3 10 4 6
3 5 8 11
3 7 5 11
3 10 6 12
3 12 6 7
3 7 11 13
3 7 13 12
3 8 14 15
3 11 8 15
3 16 9 17
3 17 9 10
3 17 10 18
3 18 10 12
3 11 15 19
3 13 11 19
3 18 12 20
3 13 19 20
3 20 12 13
3 14 22 24
3 15 14 24
3 15 24 25
3 19 15 25
3 21 16 26
3 26 16 17
3 26 17 27
3 27 17 18
3 27 18 28
3 28 18 20
3 19 25 29
3 19 29 20
3 28 20 30
3 30 20 29
3 31 21 32
3 32 21 26
3 22 23 36
3 24 22 36
3 23 34 37
3 36 23 37
3 24 36 38
3 25 24 38
3 25 38 39
3 29 25 39
3 32 26 40
3 40 26 27
3 40 27 41
3 41 27 28
3 41 28 42
3 42 28 30
3 29 39 43
3 29 43 30
3 42 30 43
3 33 31 44
3 44 31 32
3 44 32 45
3 45 32 40
3 46 33 47
3 47 33 44
3 34 35 50
3 37 34 50
3 35 48 51
3 50 35 51
3 36 37 52
3 38 36 52
3 37 50 53
3 52 37 53
3 38 52 54
3 39 38 54
3 39 54 55
3 43 39 55
3 45 40 56
3 56 40 41
3 56 41 57
3 57 41 42
3 57 42 58
3 58 42 43
3 43 55 59
3 43 59 58
3 47 44 60
3 60 44 45
3 60 45 61
3 61 45 56
3 62 46 63
3 63 46 47
3 63 47 64
3 64 47 60
3 48 49 68
3 51 48 68
3 49 66 69
3 68 49 69
3 50 51 70
3 53 50 70
3 51 68 71
3 70 51 71
3 52 53 72
3 54 52 72
3 53 70 73
3 72 53 73
3 54 72 74
3 55 54 74
3 55 74 75
3 59 55 75
3 61 56 76
3 76 56 57
3 76 57 77
3 77 57 58
3 77 58 78
3 59 75 78
3 78 58 59
3 64 60 79
3 79 60 61
3 79 61 80
3 80 61 76
3 65 62 81
3 81 62 63
3 81 63 82
3 82 63 64
3 82 64 83
3 83 64 79
3 84 65 85
3 85 65 81
3 66 67 89
3 69 66 89
3 67 87 90
3 89 67 90
3 68 69 91
3 71 68 91
3 69 89 92
3 91 69 92
3 70 71 93
3 73 70 93
3 71 91 94
3 93 71 94
3 72 73 95
3 74 72 95
3 73 93 96
3 95 73 96
3 74 95 97
3 75 74 97
3 75 97 98
3 78 75 98
3 80 76 99
3 99 76 77
3 99 77 100
3 100 77 78
3 100 78 101
3 98 101 78
3 83 79 102
3 102 79 80
3 102 80 103
3 103 80 99
3 85 81 104
3 104 81 82
3 105 83 102
3 104 82 106
3 106 82 83
3 106 83 105
3 86 84 107
3 107 84 85
3 107 85 108
3 108 85 104
3 109 86 107
3 110 86 109
3 87 88 112
3 90 87 112
3 112 88 113
3 88 114 113
3 90 112 115
3 89 90 116
3 92 89 116
3 116 90 115
3 91 92 117
3 94 91 117
3 92 116 118
3 117 92 118
3 93 94 119
3 96 93 119
3 94 117 120
3 119 94 120
3 95 96 121
3 97 95 121
3 96 119 122
3 121 96 122
3 97 121 123
3 98 97 123
3 98 123 124
3 98 124 101
3 103 99 125
3 125 99 100
3 125 100 126
3 126 100 101
3 126 101 124
3 105 102 127
3 127 102 103
3 127 103 128
3 128 103 125
3 129 105 127
3 108 104 130
3 130 104 106
3 130 106 131
3 131 106 105
3 131 105 129
3 108 130 132
3 109 107 133
3 133 107 108
3 133 108 134
3 108 132 134
3 135 109 133
3 111 110 136
3 136 110 109
3 136 109 135
3 137 111 136
3 138 111 137
3 112 113 139
3 115 112 139
3 114 140 113
3 140 139 113
3 139 141 115
3 116 115 142
3 118 116 142
3 142 115 141
3 117 118 143
3 120 117 143
3 118 142 144
3 143 118 144
3 119 120 145
3 122 119 145
3 120 143 146
3 145 120 146
3 121 122 147
3 123 121 147
3 122 145 148
3 147 122 148
3 123 147 149
3 124 123 149
3 124 149 150
3 151 126 124
3 124 150 151
3 128 125 152
3 152 125 126
3 152 126 151
3 129 127 153
3 153 127 128
3 128 152 154
3 153 128 154
3 155 129 153
3 131 129 156
3 156 129 155
3 132 130 157
3 130 131 157
3 157 131 158
3 131 156 158
3 132 157 159
3 132 159 134
3 135 133 160
3 160 133 134
3 160 134 159
3 136 135 161
3 135 160 161
3 162 137 136
3 161 162 136
3 163 138 137
3 162 163 137
3 139 164 141
3 140 165 139
3 139 165 164
3 141 164 166
3 141 166 142
3 166 167 142
3 144 142 167
3 167 168 144
3 143 144 168
3 146 143 168
3 168 169 146
3 145 146 170
3 148 145 170
3 170 146 169
3 147 148 171
3 149 147 171
3 148 170 172
3 171 148 172
3 173 151 150
3 149 171 174
3 150 149 174
3 150 174 175
3 150 175 173
3 154 152 176
3 152 151 176
3 176 151 173
3 154 176 177
3 155 153 178
3 177 178 154
3 154 178 153
3 156 155 179
3 155 178 179
3 180 158 156
3 179 180 156
3 181 159 157
3 180 181 158
3 181 157 158
3 182 160 159
3 181 182 159
3 183 161 160
3 182 183 160
3 184 162 161
3 184 161 183
3 185 163 162
3 184 185 162
3 164 186 166
3 165 187 164
3 164 187 186
3 166 186 188
3 166 188 167
3 167 188 189
3 167 189 168
3 168 189 190
3 168 190 169
3 169 190 191
3 169 191 170
3 192 172 170
3 170 191 192
3 192 193 172
3 171 172 193
3 174 171 193
3 194 173 175
3 176 173 194
3 175 174 195
3 193 195 174
3 195 196 175
3 175 196 194
3 197 177 176
3 194 197 176
3 198 178 177
3 197 198 177
3 199 179 178
3 198 199 178
3 200 180 179
3 199 200 179
3 201 181 180
3 200 201 180
3 202 182 181
3 201 202 181
3 203 183 182
3 202 203 182
3 204 184 183
3 203 204 183
3 205 185 184
3 204 205 184
3 186 206 188
3 187 207 186
3 186 207 206
3 188 206 208
3 188 208 189
3 189 208 209
3 189 209 190
3 190 209 210
3 190 210 191
3 191 210 211
3 191 211 192
3 192 211 212
3 192 212 193
3 193 212 213
3 193 213 195
3 214 197 194
3 214 194 196
3 195 213 215
3 195 215 196
3 196 215 214
3 216 198 197
3 214 216 197
3 217 199 198
3 216 217 198
3 218 200 199
3 217 218 199
3 219 201 200
3 218 219 200
3 220 202 201
3 219 220 201
3 221 203 202
3 220 221 202
3 222 204 203
3 221 222 203
3 223 205 204
3 222 223 204
3 206 224 208
3 207 225 206
3 206 225 224
3 208 224 226
3 208 226 209
3 209 226 227
3 209 227 210
3 210 227 228
3 210 228 211
3 211 228 229
3 211 229 212
3 212 229 230
3 212 230 213
3 213 230 231
3 213 231 215
3 232 216 214
3 215 231 232
3 232 214 215
3 233 217 216
3 232 233 216
3 234 218 217
3 233 234 217
3 235 219 218
3 234 235 218
3 236 220 219
3 235 236 219
3 237 221 220
3 236 237 220
3 238 222 221
3 237 238 221
3 239 223 222
3 238 239 222
3 224 240 226
3 225 241 224
3 224 241 240
3 226 240 242
3 226 242 227
3 227 242 243
3 227 243 228
3 228 243 244
3 228 244 229
3 244 245 229
3 229 245 230
3 230 245 246
3 230 246 231
3 231 246 247
3 231 247 232
3 248 233 232
3 248 232 247
3 249 234 233
3 248 249 233
3 250 235 234
3 249 250 234
3 251 236 235
3 250 251 235
3 252 237 236
3 251 252 236
3 253 238 237
3 252 253 237
3 254 239 238
3 253 254 238
3 240 255 242
3 241 256 240
3 240 256 255
3 242 255 257
3 242 257 243
3 243 257 258
3 243 258 244
3 244 258 259
3 244 259 245
3 245 259 260
3 245 260 246
3 246 260 261
3 246 261 247
3 248 247 261
3 262 249 248
3 261 262 248
3 263 250 249
3 262 263 249
3 264 251 250
3 263 264 250
3 265 252 251
3 264 265 251
3 266 253 252
3 265 266 252
3 267 254 253
3 266 267 253
3 255 268 257
3 256 269 255
3 255 269 268
3 257 268 270
3 257 270 258
3 258 270 271
3 258 271 259
3 259 271 272
3 259 272 260
3 260 272 273
3 260 273 261
3 274 262 261
3 261 273 274
3 275 263 262
3 274 275 262
3 276 264 263
3 275 276 263
3 277 265 264
3 276 277 264
3 278 266 265
3 277 278 265
3 279 267 266
3 278 279 266
3 268 280 270
3 269 281 268
3 268 281 280
3 270 280 282
3 270 282 271
3 271 282 283
3 271 283 272
3 283 284 272
3 272 284 273
3 285 275 274
3 273 284 285
3 285 274 273
3 286 276 275
3 285 286 275
3 287 277 276
3 286 287 276
3 288 278 277
3 287 288 277
3 289 279 278
3 288 289 278
3 280 290 282
3 281 291 280
3 280 291 290
3 282 290 292
3 282 292 283
3 283 292 293
3 283 293 284
3 284 293 294
3 284 294 285
3 295 286 285
3 295 285 294
3 296 287 286
3 295 296 286
3 297 288 287
3 296 297 287
3 298 289 288
3 297 298 288
3 290 299 292
3 291 300 290
3 290 300 299
3 292 299 301
3 292 301 293
3 293 301 302
3 293 302 294
3 294 302 295
3 303 296 295
3 303 295 302
3 304 297 296
3 303 304 296
3 305 298 297
3 304 305 297
3 299 306 301
3 300 307 299
3 299 307 306
3 301 306 308
3 301 308 302
3 309 303 302
3 302 308 309
3 310 304 303
3 309 310 303
3 311 305 304
3 310 311 304
3 306 312 308
3 307 313 306
3 306 313 312
3 314 310 309
3 308 312 314
3 314 309 308
3 315 311 310
3 314 315 310
3 312 316 314
3 313 317 312
3 312 317 316
3 318 315 314
3 318 314 316
3 317 319 316
3 319 318 316
CELL_TYPES 578
5
5
5
5
5
5
5
5
5
5
5
5
5
5
5
5
5
5
5
5
5
5
5
5
5
5
5
5
5
5
5
5
5
5
5
5
5
5
5
5
5
5
5
5
5
5
5
5
5
5
5
5
5
5
5
5
5
5
5
5
5
5
5
5
5
5
5
5
5
5
5
5
5
5
5
5
5
5
5
5
5
5
5
5
5
5
5
5
5
5
5
5
5
5
5
5
5
5
5
5
5
5
5
5
5
5
5
5
5
5
5
5
5
5
5
5
5
5
5
5
5
5
5
5
5
5
5
5
5
5
5
5
5
5
5
5
5
5
5
5
5
5
5
5
5
5
5
5
5
5
5
5
5
5
5
5
5
5
5
5
5
5
5
5
5
5
5
5
5
5
5
5
5
5
5
5
5
5
5
5
5
5
5
5
5
5
5
5
5
5
5
5
5
5
5
5
5
5
5
5
5
5
5
5
5
5
5
5
5
5
5
5
5
5
5
5
5
5
5
5
5
5
5
5
5
5
5
5
5
5
5
5
5
5
5
5
5
5
5
5
5
5
5
5
5
5
5
5
5
5
5
5
5
5
5
5
5
5
5
5
5
5
5
5
5
5
5
5
5
5
5
5
5
5
5
5
5
5
5
5
5
5
5
5
5
5
5
5
5
5
5
5
5
5
5
5
5
5
5
5
5
5
5
5
5
5
5
5
5
5
5
5
5
5
5
5
5
5
5
5
5
5
5
5
5
5
5
5
5
5
5
5
5
5
5
5
5
5
5
5
5
5
5
5
5
5
5
5
5
5
5
5
5
5
5
5
5
5
5
5
5
5
5
5
5
5
5
5
5
5
5
5
5
5
5
5
5
5
5
5
5
5
5
5
5
5
5
5
5
5
5
5
5
5
5
5
5
5
5
5
5
5
5
5
5
5
5
5
5
5
5
5
5
5
5
5
5
5
5
5
5
5
5
5
5
5
5
5
5
5
5
5
5
5
5
5
5
5
5
5
5
5
5
5
5
5
5
5
5
5
5
5
5
5
5
5
5
5
5
5
5
5
5
5
5
5
5
5
5
5
5
5
5
5
5
5
5
5
5
5
5
5
5
5
5
5
5
5
5
5
5
5
5
5
5
5
5
5
5
5
5
5
5
5
5
5
5
5
5
5
5
5
5
5
5
5
5
5
5
5
5
5
5
5
5
5
5
5
5
5
5
5
5
5
5
5
5
5
5
5
5
5
5
5
5
5
5
5
5
5
5
5
5
5
5
5
5
5
5
5
5
5
5
5
5
5
5
5
5
5
5
5
5
5
5
5
5
5
POINT_DATA 320
SCALARS theta_e float 1
LOOKUP_TABLE default
0.994492
0.994523
0.994486
0.994441
0.994578
0.994318
0.994518
0.994407
0.994090
0.994663
0.994587
0.994216
0.994459
0.994320
0.993783
0.993952
0.994768
0.994681
0.994530
0.994112
0.994313
0.994896
0.993401
0.992958
0.993610
0.993816
0.994799
0.994645
0.994445
0.994029
0.994220
0.995042
0.994940
0.995203
0.992475
0.991983
0.993198
0.992735
0.993449
0.993702
0.994782
0.994570
0.994302
0.993966
0.995098
0.994943
0.995366
0.995265
0.991509
0.991078
0.992246
0.991762
0.993011
0.992537
0.993289
0.993549
0.994726
0.994438
0.994093
0.993771
0.995115
0.994902
0.995522
0.995427
0.995287
0.995658
0.990709
0.990418
0.991308
0.990907
0.992052
0.991586
0.992832
0.992354
0.993123
0.993415
0.994613
0.994233
0.993807
0.995085
0.994826
0.995574
0.995446
0.995260
0.995772
0.995699
0.995853
0.990208
0.990085
0.990576
0.990325
0.991162
0.990800
0.991889
0.991461
0.992680
0.992238
0.993026
0.993387
0.994487
0.994102
0.993745
0.995041
0.994753
0.995587
0.995229
0.995412
0.995798
0.995701
0.995867
0.995901
0.995930
0.990158
0.990072
0.990045
0.990296
0.990508
0.991080
0.990761
0.991809
0.991419
0.992625
0.992226
0.993022
0.993426
0.994355
0.993887
0.994996
0.994614
0.995179
0.995543
0.995363
0.995642
0.995797
0.995724
0.995850
0.995901
0.995931
0.995942
0.990167
0.990085
0.990319
0.990526
0.991077
0.990811
0.991832
0.991454
0.992622
0.992283
0.992946
0.993392
0.993857
0.994148
0.994866
0.994421
0.995076
0.995257
0.995504
0.995382
0.995640
0.995763
0.995847
0.995897
0.995924
0.990305
0.990192
0.990506
0.990755
0.991110
0.991522
0.991947
0.992627
0.992392
0.993663
0.992943
0.993362
0.993985
0.994315
0.994730
0.995100
0.995289
0.995481
0.995647
0.995759
0.995834
0.995880
0.990527
0.990375
0.990751
0.991040
0.991405
0.991880
0.992321
0.992721
0.993832
0.993018
0.993561
0.994111
0.994482
0.994847
0.995117
0.995322
0.995504
0.995640
0.995736
0.995801
0.990815
0.990630
0.991064
0.991380
0.991787
0.992262
0.992672
0.993036
0.993881
0.993317
0.994189
0.994590
0.994886
0.995120
0.995326
0.995490
0.995605
0.995687
0.991166
0.990955
0.991435
0.991775
0.992195
0.992654
0.993027
0.993410
0.993825
0.994285
0.994621
0.994894
0.995115
0.995306
0.995441
0.995538
0.991569
0.991338
0.991849
0.992193
0.992600
0.993020
0.993384
0.993684
0.994014
0.994354
0.994647
0.994885
0.995091
0.995246
0.995357
0.992003
0.991763
0.992281
0.992610
0.992981
0.993369
0.993743
0.994117
0.994404
0.994652
0.994867
0.995033
0.995153
0.992442
0.992205
0.992708
0.993005
0.993323
0.993651
0.993924
0.994181
0.994433
0.994650
0.994817
0.994938
0.992862
0.992637
0.993109
0.993368
0.993631
0.993940
0.994230
0.994452
0.994615
0.994730
0.993245
0.993041
0.993464
0.993681
0.993867
0.994088
0.994293
0.994443
0.994545
0.993576
0.993400
0.993767
0.993960
0.994171
0.994308
0.994393
0.993841
0.993702
0.993984
0.994101
0.994212
0.994281
0.994030
0.993935
0.994131
0.994199
0.994127
0.994080
0.994160
0.994142
VECTORS fa_u float
0.000000 0.000000 0.000000
0.000000 0.000000 0.000000
0.000000 0.000000 0.000000
0.000000 0.000000 0.000000
0.000000 0.000000 0.000000
0.000000 0.000000 0.000000
0.000000 0.000000 0.000000
0.000000 0.000000 0.000000
0.000000 0.000000 0.000000
0.000000 0.000000 0.000000
0.000000 0.000000 0.000000
0.000000 0.000000 0.000000
0.000000 0.000000 0.000000
0.000000 0.000000 0.000000
0.000000 0.000000 0.000000
0.000000 0.000000 0.000000
0.000000 0.000000 0.000000
0.000000 0.000000 0.000000
0.000000 0.000000 0.000000
0.000000 0.000000 0.000000
0.000000 0.000000 0.000000
0.000000 0.000000 0.000000
0.000000 0.000000 0.000000
0.000000 0.000000 0.000000
0.000000 0.000000 0.000000
0.000000 0.000000 0.000000
0.000000 0.000000 0.000000
0.000000 0.000000 0.000000
0.000000 0.000000 0.000000
0.000000 0.000000 0.000000
0.000000 0.000000 0.000000
0.000000 0.000000 0.000000
0.000000 0.000000 0.000000
0.000000 0.000000 0.000000
0.000000 0.000000 0.000000
0.000000 0.000000 0.000000
0.000000 0.000000 0.000000
0.000000 0.000000 0.000000
0.000000 0.000000 0.000000
0.000000 0.000000 0.000000
0.000000 0.000000 0.000000
0.000000 0.000000 0.000000
0.000000 0.000000 0.000000
0.000000 0.000000 0.000000
0.000000 0.000000 0.000000
0.000000 0.000000 0.000000
0.000000 0.000000 0.000000
0.000000 0.000000 0.000000
0.000000 0.000000 0.000000
0.000000 0.000000 0.000000
0.000000 0.000000 0.000000
0.000000 0.000000 0.000000
0.000000 0.000000 0.000000
0.000000 0.000000 0.000000
0.000000 0.000000 0.000000
0.000000 0.000000 0.000000
0.000000 0.000000 0.000000
0.000000 0.000000 0.000000
0.000000 0.000000 0.000000
0.000000 0.000000 0.000000
0.000000 0.000000 0.000000
0.000000 0.000000 0.000000
0.000000 0.000000 0.000000
0.000000 0.000000 0.000000
0.000000 0.000000 0.000000
0.000000 0.000000 0.000000
0.000000 0.000000 0.000000
0.000000 0.000000 0.000000
0.000000 0.000000 0.000000
0.000000 0.000000 0.000000
0.000000 0.000000 0.000000
0.000000 0.000000 0.000000
0.000000 0.000000 0.000000
0.000000 0.000000 0.000000
0.000000 0.000000 0.000000
0.000000 0.000000 0.000000
0.000000 0.000000 0.000000
0.000000 0.000000 0.000000
0.000000 0.000000 0.000000
0.000000 0.000000 0.000000
0.000000 0.000000 0.000000
0.000000 0.000000 0.000000
0.000000 0.000000 0.000000
0.000000 0.000000 0.000000
0.000000 0.000000 0.000000
0.000000 0.000000 0.000000
0.000000 0.000000 0.000000
0.000000 0.000000 0.000000
0.000000 0.000000 0.000000
0.000000 0.000000 0.000000
0.000000 0.000000 0.000000
0.000000 0.000000 0.000000
0.000000 0.000000 0.000000
0.000000 0.000000 0.000000
0.000000 0.000000 0.000000
0.000000 0.000000 0.000000
0.000000 0.000000 0.000000
0.000000 0.000000 0.000000
0.000000 0.000000 0.000000
0.000000 0.000000 0.000000
0.000000 0.000000 0.000000
0.000000 0.000000 0.000000
0.000000 0.000000 0.000000
0.000000 0.000000 0.000000
0.000000 0.000000 0.000000
0.000000 0.000000 0.000000
0.000000 0.000000 0.000000
0.000000 0.000000 0.000000
0.000000 0.000000 0.000000
0.000000 0.000000 0.000000
0.000000 0.000000 0.000000
0.000000 0.000000 0.000000
0.000000 0.000000 0.000000
0.000000 0.000000 0.000000
0.000000 0.000000 0.000000
0.000000 0.000000 0.000000
0.000000 0.000000 0.000000
0.000000 0.000000 0.000000
0.000000 0.000000 0.000000
0.000000 0.000000 0.000000
0.000000 0.000000 0.000000
0.000000 0.000000 0.000000
0.000000 0.000000 0.000000
0.000000 0.000000 0.000000
0.000000 0.000000 0.000000
0.000000 0.000000 0.000000
0.000000 0.000000 0.000000
0.000000 0.000000 0.000000
0.000000 0.000000 0.000000
0.000000 0.000000 0.000000
0.000000 0.000000 0.000000
0.000000 0.000000 0.000000
0.000000 0.000000 0.000000
0.000000 0.000000 0.000000
0.000000 0.000000 0.000000
0.000000 0.000000 0.000000
0.000000 0.000000 0.000000
0.000000 0.000000 0.000000
0.000000 0.000000 0.000000
0.000000 0.000000 0.000000
0.000000 0.000000 0.000000
0.000000 0.000000 0.000000
0.000000 0.000000 0.000000
0.000000 0.000000 0.000000
0.000000 0.000000 0.000000
0.000000 0.000000 0.000000
0.000000 0.000000 0.000000
0.000000 0.000000 0.000000
0.000000 0.000000 0.000000
0.000000 0.000000 0.000000
0.000000 0.000000 0.000000
0.000000 0.000000 0.000000
0.000000 0.000000 0.000000
0.000000 0.000000 0.000000
0.000000 0.000000 0.000000
0.000000 0.000000 0.000000
0.000000 0.000000 0.000000
0.000000 0.000000 0.000000
0.000000 0.000000 0.000000
0.000000 0.000000 0.000000
0.000000 0.000000 0.000000
0.000000 0.000000 0.000000
0.000000 0.000000 0.000000
0.000000 0.000000 0.000000
0.000000 0.000000 0.000000
0.000000 0.000000 0.000000
0.000000 0.000000 0.000000
0.000000 0.000000 0.000000
0.000000 0.000000 0.000000
0.000000 0.000000 0.000000
0.000000 0.000000 0.000000
0.000000 0.000000 0.000000
0.000000 0.000000 0.000000
0.000000 0.000000 0.000000
0.000000 0.000000 0.000000
0.000000 0.000000 0.000000
0.000000 0.000000 0.000000
0.000000 0.000000 0.000000
0.000000 0.000000 0.000000
0.000000 0.000000 0.000000
0.000000 0.000000 0.000000
0.000000 0.000000 0.000000
0.000000 0.000000 0.000000
0.000000 0.000000 0.000000
0.000000 0.000000 0.000000
0.000000 0.000000 0.000000
0.000000 0.000000 0.000000
0.000000 0.000000 0.000000
0.000000 0.000000 0.000000
0.000000 0.000000 0.000000
0.000000 0.000000 0.000000
0.000000 0.000000 0.000000
0.000000 0.000000 0.000000
0.000000 0.000000 0.000000
0.000000 0.000000 0.000000
0.000000 0.000000 0.000000
0.000000 0.000000 0.000000
0.000000 0.000000 0.000000
0.000000 0.000000 0.000000
0.000000 0.000000 0.000000
0.000000 0.000000 0.000000
0.000000 0.000000 0.000000
0.000000 0.000000 0.000000
0.000000 0.000000 0.000000
0.000000 0.000000 0.000000
0.000000 0.000000 0.000000
0.000000 0.000000 0.000000
0.000000 0.000000 0.000000
0.000000 0.000000 0.000000
0.000000 0.000000 0.000000
0.000000 0.000000 0.000000
0.000000 0.000000 0.000000
0.000000 0.000000 0.000000
0.000000 0.000000 0.000000
0.000000 0.000000 0.000000
0.000000 0.000000 0.000000
0.000000 0.000000 0.000000
0.000000 0.000000 0.000000
0.000000 0.000000 0.000000
0.000000 0.000000 0.000000
0.000000 0.000000 0.000000
0.000000 0.000000 0.000000
0.000000 0.000000 0.000000
0.000000 0.000000 0.000000
0.000000 0.000000 0.000000
0.000000 0.000000 0.000000
0.000000 0.000000 0.000000
0.000000 0.000000 0.000000
0.000000 0.000000 0.000000
0.000000 0.000000 0.000000
0.000000 0.000000 0.000000
0.000000 0.000000 0.000000
0.000000 0.000000 0.000000
0.000000 0.000000 0.000000
0.000000 0.000000 0.000000
0.000000 0.000000 0.000000
0.000000 0.000000 0.000000
0.000000 0.000000 0.000000
0.000000 0.000000 0.000000
0.000000 0.000000 0.000000
0.000000 0.000000 0.000000
0.000000 0.000000 0.000000
0.000000 0.000000 0.000000
0.000000 0.000000 0.000000
0.000000 0.000000 0.000000
0.000000 0.000000 0.000000
0.000000 0.000000 0.000000
0.000000 0.000000 0.000000
0.000000 0.000000 0.000000
0.000000 0.000000 0.000000
0.000000 0.000000 0.000000
0.000000 0.000000 0.000000
0.000000 0.000000 0.000000
0.000000 0.000000 0.000000
0.000000 0.000000 0.000000
0.000000 0.000000 0.000000
0.000000 0.000000 0.000000
0.000000 0.000000 0.000000
0.000000 0.000000 0.000000
0.000000 0.000000 0.000000
0.000000 0.000000 0.000000
0.000000 0.000000 0.000000
0.000000 0.000000 0.000000
0.000000 0.000000 0.000000
0.000000 0.000000 0.000000
0.000000 0.000000 0.000000
0.000000 0.000000 0.000000
0.000000 0.000000 0.000000
0.000000 0.000000 0.000000
0.000000 0.000000 0.000000
0.000000 0.000000 0.000000
0.000000 0.000000 0.000000
0.000000 0.000000 0.000000
0.000000 0.000000 0.000000
0.000000 0.000000 0.000000
0.000000 0.000000 0.000000
0.000000 0.000000 0.000000
0.000000 0.000000 0.000000
0.000000 0.000000 0.000000
0.000000 0.000000 0.000000
0.000000 0.000000 0.000000
0.000000 0.000000 0.000000
0.000000 0.000000 0.000000
0.000000 0.000000 0.000000
0.000000 0.000000 0.000000
0.000000 0.000000 0.000000
0.000000 0.000000 0.000000
0.000000 0.000000 0.000000
0.000000 0.000000 0.000000
0.000000 0.000000 0.000000
0.000000 0.000000 0.000000
0.000000 0.000000 0.000000
0.000000 0.000000 0.000000
0.000000 0.000000 0.000000
0.000000 0.000000 0.000000
0.000000 0.000000 0.000000
0.000000 0.000000 -50.000000
-50.000000 0.000000 -50.000000
-43.349388 0.000000 -45.679998
-45.531108 0.000000 -43.271623
-50.000000 0.000000 -50.000000
-36.697305 0.000000 -36.544536
-50.000000 0.000000 -45.070594
-40.046506 0.000000 -40.000476
-44.204992 0.000000 -29.818814
-50.000000 0.000000 -50.000000
-30.043879 0.000000 -44.835596
-33.571652 0.000000 -33.084325
-44.726923 0.000000 -39.836080
-36.889633 0.000000 -35.079796
-39.890637 0.000000 -23.096170
-50.000000 0.000000 -26.454931
-44.717162 0.000000 -50.000000
-23.390812 0.000000 -44.651276
-26.975752 0.000000 -39.327186
-30.378032 0.000000 -29.536797
-39.451938 0.000000 -33.309264
-33.791369 0.000000 -50.000000
-16.736267 0.000000 -16.384566
-50.000000 0.000000 -9.686336
