# vtk DataFile Version 2.0
CellBP Time: 0.72
ASCII
DATASET UNSTRUCTURED_GRID
POINTS 320 double
-50.000000 -50.000000 0.000000
-50.000000 -43.348483 0.000000
-45.695985 -45.506220 0.000000
-43.334454 -50.000000 0.000000
-50.000000 -36.694609 0.000000
-36.666081 -50.000000 0.000000
-45.090770 -40.002275 0.000000
-40.042025 -44.173158 0.000000
-29.993880 -50.000000 0.000000
-50.000000 -30.039699 0.000000
-44.858268 -33.501485 0.000000
-33.164911 -44.696564 0.000000
-39.886140 -36.831303 0.000000
-35.149709 -39.838803 0.000000
-23.318790 -50.000000 0.000000
-26.564249 -44.687917 0.000000
-50.000000 -23.385823 0.000000
-44.676534 -26.878846 0.000000
-39.382944 -30.293162 0.000000
-29.632798 -39.398662 0.000000
-33.393271 -33.716300 0.000000
-50.000000 -16.732496 0.000000
-16.644626 -50.000000 0.000000
-9.972760 -50.000000 0.000000
-19.995159 -44.608307 0.000000
-23.244911 -39.154249 0.000000
-44.703364 -20.196232 0.000000
-39.385721 -23.621389 0.000000
-34.128706 -27.024711 0.000000
-26.413159 -33.639962 0.000000
-29.182668 -29.010521 0.000000
-50.000000 -10.079755 0.000000
-44.678353 -13.535656 0.000000
-50.000000 -3.428043 0.000000
-3.303894 -50.000000 0.000000
3.361113 -50.000000 0.000000
-13.378758 -44.615383 0.000000
-6.723981 -44.623131 0.000000
-16.723818 -39.188094 0.000000
-20.134656 -33.404106 0.000000
-39.356617 -16.927263 0.000000
-34.040906 -20.393065 0.000000
-28.804975 -23.560036 0.000000
-23.534169 -27.443786 0.000000
-44.645730 -6.859887 0.000000
-39.307362 -10.260414 0.000000
-50.000000 3.229189 0.000000
-44.633207 -0.200374 0.000000
10.022490 -50.000000 0.000000
16.682065 -50.000000 0.000000
-0.058592 -44.626166 0.000000
6.606984 -44.637171 0.000000
-10.076434 -39.250702 0.000000
-3.402395 -39.240407 0.000000
-13.510450 -33.849014 0.000000
-16.729486 -28.353150 0.000000
-33.962442 -13.675752 0.000000
-28.615883 -17.043673 0.000000
-23.306352 -20.447486 0.000000
-18.675405 -23.394778 0.000000
-39.272327 -3.596069 0.000000
-33.900228 -7.019271 0.000000
-50.000000 9.919462 0.000000
-44.616522 6.458924 0.000000
-39.253017 3.069417 0.000000
-50.000000 16.675937 0.000000
23.342145 -50.000000 0.000000
30.003927 -50.000000 0.000000
13.272318 -44.659533 0.000000
19.946438 -44.692590 0.000000
3.270790 -39.255048 0.000000
9.932888 -39.290048 0.000000
-6.760807 -33.830382 0.000000
-0.060966 -33.854079 0.000000
-10.110281 -28.360121 0.000000
-13.131546 -23.001398 0.000000
-28.521011 -10.425308 0.000000
-23.053657 -13.849919 0.000000
-16.971388 -17.358800 0.000000
-33.848033 -0.376809 0.000000
-28.509092 -3.866940 0.000000
-44.577772 13.149550 0.000000
-39.186886 9.699786 0.000000
-33.814531 6.159078 0.000000
-50.000000 23.546044 0.000000
-44.628697 19.934850 0.000000
-50.000000 30.520082 0.000000
36.666931 -50.000000 0.000000
43.332174 -50.000000 0.000000
26.624820 -44.734107 0.000000
33.284967 -44.861592 0.000000
16.591888 -39.348718 0.000000
23.289609 -39.421127 0.000000
6.611049 -33.888672 0.000000
13.256309 -33.959595 0.000000
-3.361120 -28.408493 0.000000
3.337160 -28.477084 0.000000
-6.628379 -22.923910 0.000000
-9.959913 -17.435966 0.000000
-23.126840 -7.272346 0.000000
-17.757926 -10.542150 0.000000
-12.797348 -12.754869 0.000000
-28.475752 2.695855 0.000000
-23.138348 -0.817860 0.000000
-39.047711 16.387222 0.000000
-28.443531 9.389777 0.000000
-33.601301 12.564582 0.000000
-44.777899 26.687977 0.000000
-38.771807 23.726558 0.000000
-45.013063 33.465933 0.000000
-50.000000 37.467591 0.000000
-50.000000 43.838733 0.000000
39.901426 -45.054642 0.000000
45.462445 -45.646435 0.000000
50.000000 -50.000000 0.000000
36.601795 -39.958201 0.000000
29.978231 -39.437165 0.000000
19.867841 -34.075087 0.000000
26.550390 -34.294195 0.000000
9.963680 -28.517816 0.000000
16.581196 -28.645359 0.000000
0.050139 -23.009260 0.000000
6.801763 -23.180079 0.000000
-3.381529 -17.388077 0.000000
-6.815319 -11.191193 0.000000
-17.758977 -4.109869 0.000000
-12.452328 -7.244849 0.000000
-23.070344 5.615228 0.000000
-17.837300 2.093918 0.000000
-22.728590 11.543803 0.000000
-33.389539 18.587113 0.000000
-27.488449 16.193733 0.000000
-33.109750 23.907862 0.000000
-40.353732 30.598623 0.000000
-35.465950 29.018295 0.000000
-39.969555 35.556760 0.000000
-43.952195 40.219129 0.000000
-45.305839 45.789456 0.000000
-50.000000 50.000000 0.000000
44.102820 -39.871653 0.000000
50.000000 -43.332010 0.000000
39.618001 -35.013610 0.000000
33.434395 -33.392223 0.000000
22.953236 -28.792850 0.000000
28.701470 -29.215037 0.000000
13.441757 -23.117657 0.000000
20.031133 -23.417853 0.000000
3.402932 -17.633836 0.000000
10.125384 -17.850145 0.000000
0.177988 -12.116685 0.000000
-2.072699 -6.399000 0.000000
-7.294374 -3.897117 0.000000
-12.471802 -1.057635 0.000000
-17.837956 8.116887 0.000000
-12.725551 4.911079 0.000000
-18.105204 13.223876 0.000000
-20.856987 16.881599 0.000000
-28.115831 22.580887 0.000000
-23.443940 21.061327 0.000000
-29.816806 28.709647 0.000000
-34.221185 34.141563 0.000000
-36.931727 39.981506 0.000000
-39.690978 45.290355 0.000000
-43.398490 50.000000 0.000000
44.572776 -32.934203 0.000000
50.000000 -36.663626 0.000000
39.110420 -29.539952 0.000000
33.477784 -26.327935 0.000000
27.158469 -23.289053 0.000000
23.047036 -18.621007 0.000000
16.978056 -16.965610 0.000000
6.734055 -12.251767 0.000000
12.357389 -12.734571 0.000000
-3.251676 -1.624704 0.000000
4.008954 -7.112264 0.000000
1.136493 -2.207614 0.000000
-6.855798 2.150718 0.000000
-8.190259 7.623160 0.000000
-12.448419 11.637880 0.000000
-15.177968 17.398198 0.000000
-18.589287 22.784562 0.000000
-23.676183 27.260125 0.000000
-27.042600 33.659178 0.000000
-30.136398 39.359081 0.000000
-33.207932 44.860990 0.000000
-36.636571 50.000000 0.000000
44.537688 -26.453333 0.000000
50.000000 -29.997188 0.000000
39.024705 -23.133038 0.000000
33.432897 -19.856277 0.000000
28.026072 -16.539539 0.000000
22.679479 -13.099038 0.000000
17.189148 -9.901965 0.000000
10.993223 -6.668023 0.000000
-1.207288 2.202268 0.000000
6.332532 -1.783900 0.000000
3.046929 1.531236 0.000000
-3.342044 7.076961 0.000000
-6.015952 12.280866 0.000000
-9.236338 17.522961 0.000000
-12.683794 22.963958 0.000000
-16.907298 28.097569 0.000000
-20.296963 33.414598 0.000000
-23.420017 39.035270 0.000000
-26.561053 44.636413 0.000000
-29.887196 50.000000 0.000000
44.521475 -19.878079 0.000000
50.000000 -23.332810 0.000000
39.026877 -16.544536 0.000000
33.569772 -13.236432 0.000000
28.151934 -9.931137 0.000000
22.742565 -6.581883 0.000000
17.305258 -3.330464 0.000000
12.125828 0.184075 0.000000
2.109619 6.217236 0.000000
7.205728 3.826484 0.000000
0.023741 11.898650 0.000000
-2.981019 17.428590 0.000000
-6.367360 22.902632 0.000000
-10.254262 28.212398 0.000000
-13.469823 33.615910 0.000000
-16.731335 39.042016 0.000000
-19.920609 44.526584 0.000000
-23.179314 50.000000 0.000000
44.532810 -13.246925 0.000000
50.000000 -16.667690 0.000000
39.077791 -9.914340 0.000000
33.650682 -6.594960 0.000000
28.253357 -3.270832 0.000000
22.886323 0.044486 0.000000
17.613453 3.381041 0.000000
12.345268 6.600535 0.000000
6.905030 10.837897 0.000000
3.512951 17.156732 0.000000
0.157157 22.821422 0.000000
-3.283451 28.298755 0.000000
-6.624021 33.763867 0.000000
-9.960075 39.158596 0.000000
-13.263143 44.554477 0.000000
-16.543440 50.000000 0.000000
44.555212 -6.594945 0.000000
50.000000 -10.000015 0.000000
39.128734 -3.266853 0.000000
33.729719 0.057622 0.000000
28.368815 3.386086 0.000000
23.068011 6.730914 0.000000
17.932317 10.055782 0.000000
12.786254 12.234112 0.000000
9.946476 17.242682 0.000000
6.651016 22.732589 0.000000
3.365869 28.283097 0.000000
0.050844 33.749449 0.000000
-3.278218 39.177217 0.000000
-6.586913 44.584352 0.000000
-9.897964 50.000000 0.000000
44.580816 0.063724 0.000000
50.000000 -3.328628 0.000000
39.180471 3.388998 0.000000
33.808378 6.708994 0.000000
28.476733 10.045803 0.000000
23.126604 13.463698 0.000000
17.057617 17.061385 0.000000
13.030506 22.707624 0.000000
9.949086 28.268260 0.000000
6.735029 33.750267 0.000000
3.407399 39.187353 0.000000
0.084011 44.596118 0.000000
-3.242261 50.000000 0.000000
44.596243 6.728772 0.000000
50.000000 3.346430 0.000000
39.219487 10.041914 0.000000
33.882909 13.335708 0.000000
28.602528 16.642052 0.000000
23.466959 20.138542 0.000000
18.631885 23.163284 0.000000
16.497290 28.347487 0.000000
13.433532 33.796456 0.000000
10.086795 39.212435 0.000000
6.762430 44.600865 0.000000
3.418561 50.000000 0.000000
44.621893 13.381371 0.000000
50.000000 10.024113 0.000000
39.278272 16.674080 0.000000
33.976098 19.923893 0.000000
28.674108 22.984769 0.000000
23.360184 27.262186 0.000000
19.986954 33.350142 0.000000
16.658599 39.075148 0.000000
13.351574 44.545069 0.000000
10.080038 50.000000 0.000000
44.647234 20.033940 0.000000
50.000000 16.701391 0.000000
39.328274 23.321430 0.000000
34.089109 26.572668 0.000000
29.027151 28.594633 0.000000
26.269488 33.457905 0.000000
23.136660 39.004802 0.000000
19.959615 44.526410 0.000000
16.739248 50.000000 0.000000
44.655787 26.697450 0.000000
50.000000 23.374525 0.000000
39.324303 30.018384 0.000000
33.259801 33.419426 0.000000
29.467628 39.081564 0.000000
26.481480 44.525365 0.000000
23.396720 50.000000 0.000000
44.790852 33.335268 0.000000
50.000000 30.040623 0.000000
39.767577 36.634397 0.000000
34.872893 39.558817 0.000000
32.879425 44.532820 0.000000
30.051809 50.000000 0.000000
44.993326 39.906535 0.000000
50.000000 36.699506 0.000000
39.763837 43.988460 0.000000
36.703291 50.000000 0.000000
45.634301 45.423130 0.000000
50.000000 43.352386 0.000000
43.354381 50.000000 0.000000
50.000000 50.000000 0.000000
CELLS 578 2312
3 1 0 2
3 0 3 2
3 4 1 6
3 6 1 2
3 3 5 7
3 3 7 2
3 6 2 7
3 9 4 10
3 10 4 6
3 5 8 11
3 7 5 11
3 10 6 12
3 12 6 7
3 7 11 13
3 7 13 12
3 8 14 15
3 11 8 15
3 16 9 17
3 17 9 10
3 17 10 18
3 18 10 12
3 11 15 19
3 13 11 19
3 18 12 20
3 13 19 20
3 20 12 13
3 14 22 24
3 15 14 24
3 15 24 25
3 19 15 25
3 21 16 26
3 26 16 17
3 26 17 27
3 27 17 18
3 27 18 28
3 28 18 20
3 19 25 29
3 19 29 20
3 28 20 30
3 30 20 29
3 31 21 32
3 32 21 26
3 22 23 36
3 24 22 36
3 23 34 37
3 36 23 37
3 24 36 38
3 25 24 38
3 25 38 39
3 29 25 39
3 32 26 40
3 40 26 27
3 40 27 41
3 41 27 28
3 41 28 42
3 42 28 30
3 29 39 43
3 29 43 30
3 42 30 43
3 33 31 44
3 44 31 32
3 44 32 45
3 45 32 40
3 46 33 47
3 47 33 44
3 34 35 50
3 37 34 50
3 35 48 51
3 50 35 51
3 36 37 52
3 38 36 52
3 37 50 53
3 52 37 53
3 38 52 54
3 39 38 54
3 39 54 55
3 43 39 55
3 45 40 56
3 56 40 41
3 56 41 57
3 57 41 42
3 57 42 58
3 58 42 43
3 43 55 59
3 43 59 58
3 47 44 60
3 60 44 45
3 60 45 61
3 61 45 56
3 62 46 63
3 63 46 47
3 63 47 64
3 64 47 60
3 48 49 68
3 51 48 68
3 49 66 69
3 68 49 69
3 50 51 70
3 53 50 70
3 51 68 71
3 70 51 71
3 52 53 72
3 54 52 72
3 53 70 73
3 72 53 73
3 54 72 74
3 55 54 74
3 55 74 75
3 59 55 75
3 61 56 76
3 76 56 57
3 76 57 77
3 77 57 58
3 77 58 78
3 59 75 78
3 78 58 59
3 64 60 79
3 79 60 61
3 79 61 80
3 80 61 76
3 65 62 81
3 81 62 63
3 81 63 82
3 82 63 64
3 82 64 83
3 83 64 79
3 84 65 85
3 85 65 81
3 66 67 89
3 69 66 89
3 67 87 90
3 89 67 90
3 68 69 91
3 71 68 91
3 69 89 92
3 91 69 92
3 70 71 93
3 73 70 93
3 71 91 94
3 93 71 94
3 72 73 95
3 74 72 95
3 73 93 96
3 95 73 96
3 74 95 97
3 75 74 97
3 75 97 98
3 78 75 98
3 80 76 99
3 99 76 77
3 99 77 100
3 100 77 78
3 100 78 101
3 98 101 78
3 83 79 102
3 102 79 80
3 102 80 103
3 103 80 99
3 85 81 104
3 104 81 82
3 105 83 102
3 104 82 106
3 106 82 83
3 106 83 105
3 86 84 107
3 107 84 85
3 107 85 108
3 108 85 104
3 109 86 107
3 110 86 109
3 87 88 112
3 90 87 112
3 112 88 113
3 88 114 113
3 90 112 115
3 89 90 116
3 92 89 116
3 116 90 115
3 91 92 117
3 94 91 117
3 92 116 118
3 117 92 118
3 93 94 119
3 96 93 119
3 94 117 120
3 119 94 120
3 95 96 121
3 97 95 121
3 96 119 122
3 121 96 122
3 97 121 123
3 98 97 123
3 98 123 124
3 98 124 101
3 103 99 125
3 125 99 100
3 125 100 126
3 126 100 101
3 126 101 124
3 105 102 127
3 127 102 103
3 127 103 128
3 128 103 125
3 129 105 127
3 108 104 130
3 130 104 106
3 130 106 131
3 131 106 105
3 131 105 129
3 108 130 132
3 109 107 133
3 133 107 108
3 133 108 134
3 108 132 134
3 135 109 133
3 111 110 136
3 136 110 109
3 136 109 135
3 137 111 136
3 138 111 137
3 112 113 139
3 115 112 139
3 114 140 113
3 140 139 113
3 139 141 115
3 116 115 142
3 118 116 142
3 142 115 141
3 117 118 143
3 120 117 143
3 118 142 144
3 143 118 144
3 119 120 145
3 122 119 145
3 120 143 146
3 145 120 146
3 121 122 147
3 123 121 147
3 122 145 148
3 147 122 148
3 123 147 149
3 124 123 149
3 124 149 150
3 151 126 124
3 124 150 151
3 128 125 152
3 152 125 126
3 152 126 151
3 129 127 153
3 153 127 128
3 128 152 154
3 153 128 154
3 155 129 153
3 131 129 156
3 156 129 155
3 132 130 157
3 130 131 157
3 157 131 158
3 131 156 158
3 132 157 159
3 132 159 134
3 135 133 160
3 160 133 134
3 160 134 159
3 136 135 161
3 135 160 161
3 162 137 136
3 161 162 136
3 163 138 137
3 162 163 137
3 139 164 141
3 140 165 139
3 139 165 164
3 141 164 166
3 141 166 142
3 166 167 142
3 144 142 167
3 167 168 144
3 143 144 168
3 146 143 168
3 168 169 146
3 145 146 170
3 148 145 170
3 170 146 169
3 147 148 171
3 149 147 171
3 148 170 172
3 171 148 172
3 173 151 150
3 149 171 174
3 150 149 174
3 150 174 175
3 150 175 173
3 154 152 176
3 152 151 176
3 176 151 173
3 154 176 177
3 155 153 178
3 177 178 154
3 154 178 153
3 156 155 179
3 155 178 179
3 180 158 156
3 179 180 156
3 181 159 157
3 180 181 158
3 181 157 158
3 182 160 159
3 181 182 159
3 183 161 160
3 182 183 160
3 184 162 161
3 184 161 183
3 185 163 162
3 184 185 162
3 164 186 166
3 165 187 164
3 164 187 186
3 166 186 188
3 166 188 167
3 167 188 189
3 167 189 168
3 168 189 190
3 168 190 169
3 169 190 191
3 169 191 170
3 192 172 170
3 170 191 192
3 192 193 172
3 171 172 193
3 174 171 193
3 194 173 175
3 176 173 194
3 175 174 195
3 193 195 174
3 195 196 175
3 175 196 194
3 197 177 176
3 194 197 176
3 198 178 177
3 197 198 177
3 199 179 178
3 198 199 178
3 200 180 179
3 199 200 179
3 201 181 180
3 200 201 180
3 202 182 181
3 201 202 181
3 203 183 182
3 202 203 182
3 204 184 183
3 203 204 183
3 205 185 184
3 204 205 184
3 186 206 188
3 187 207 186
3 186 207 206
3 188 206 208
3 188 208 189
3 189 208 209
3 189 209 190
3 190 209 210
3 190 210 191
3 191 210 211
3 191 211 192
3 192 211 212
3 192 212 193
3 193 212 213
3 193 213 195
3 214 197 194
3 214 194 196
3 195 213 215
3 195 215 196
3 196 215 214
3 216 198 197
3 214 216 197
3 217 199 198
3 216 217 198
3 218 200 199
3 217 218 199
3 219 201 200
3 218 219 200
3 220 202 201
3 219 220 201
3 221 203 202
3 220 221 202
3 222 204 203
3 221 222 203
3 223 205 204
3 222 223 204
3 206 224 208
3 207 225 206
3 206 225 224
3 208 224 226
3 208 226 209
3 209 226 227
3 209 227 210
3 210 227 228
3 210 228 211
3 211 228 229
3 211 229 212
3 212 229 230
3 212 230 213
3 213 230 231
3 213 231 215
3 232 216 214
3 215 231 232
3 232 214 215
3 233 217 216
3 232 233 216
3 234 218 217
3 233 234 217
3 235 219 218
3 234 235 218
3 236 220 219
3 235 236 219
3 237 221 220
3 236 237 220
3 238 222 221
3 237 238 221
3 239 223 222
3 238 239 222
3 224 240 226
3 225 241 224
3 224 241 240
3 226 240 242
3 226 242 227
3 227 242 243
3 227 243 228
3 228 243 244
3 228 244 229
3 244 245 229
3 229 245 230
3 230 245 246
3 230 246 231
3 231 246 247
3 231 247 232
3 248 233 232
3 248 232 247
3 249 234 233
3 248 249 233
3 250 235 234
3 249 250 234
3 251 236 235
3 250 251 235
3 252 237 236
3 251 252 236
3 253 238 237
3 252 253 237
3 254 239 238
3 253 254 238
3 240 255 242
3 241 256 240
3 240 256 255
3 242 255 257
3 242 257 243
3 243 257 258
3 243 258 244
3 244 258 259
3 244 259 245
3 245 259 260
3 245 260 246
3 246 260 261
3 246 261 247
3 248 247 261
3 262 249 248
3 261 262 248
3 263 250 249
3 262 263 249
3 264 251 250
3 263 264 250
3 265 252 251
3 264 265 251
3 266 253 252
3 265 266 252
3 267 254 253
3 266 267 253
3 255 268 257
3 256 269 255
3 255 269 268
3 257 268 270
3 257 270 258
3 258 270 271
3 258 271 259
3 259 271 272
3 259 272 260
3 260 272 273
3 260 273 261
3 274 262 261
3 261 273 274
3 275 263 262
3 274 275 262
3 276 264 263
3 275 276 263
3 277 265 264
3 276 277 264
3 278 266 265
3 277 278 265
3 279 267 266
3 278 279 266
3 268 280 270
3 269 281 268
3 268 281 280
3 270 280 282
3 270 282 271
3 271 282 283
3 271 283 272
3 283 284 272
3 272 284 273
3 285 275 274
3 273 284 285
3 285 274 273
3 286 276 275
3 285 286 275
3 287 277 276
3 286 287 276
3 288 278 277
3 287 288 277
3 289 279 278
3 288 289 278
3 280 290 282
3 281 291 280
3 280 291 290
3 282 290 292
3 282 292 283
3 283 292 293
3 283 293 284
3 284 293 294
3 284 294 285
3 295 286 285
3 295 285 294
3 296 287 286
3 295 296 286
3 297 288 287
3 296 297 287
3 298 289 288
3 297 298 288
3 290 299 292
3 291 300 290
3 290 300 299
3 292 299 301
3 292 301 293
3 293 301 302
3 293 302 294
3 294 302 295
3 303 296 295
3 303 295 302
3 304 297 296
3 303 304 296
3 305 298 297
3 304 305 297
3 299 306 301
3 300 307 299
3 299 307 306
3 301 306 308
3 301 308 302
3 309 303 302
3 302 308 309
3 310 304 303
3 309 310 303
3 311 305 304
3 310 311 304
3 306 312 308
3 307 313 306
3 306 313 312
3 314 310 309
3 308 312 314
3 314 309 308
3 315 311 310
3 314 315 310
3 312 316 314
3 313 317 312
3 312 317 316
3 318 315 314
3 318 314 316
3 317 319 316
3 319 318 316
CELL_TYPES 578
5
5
5
5
5
5
5
5
5
5
5
5
5
5
5
5
5
5
5
5
5
5
5
5
5
5
5
5
5
5
5
5
5
5
5
5
5
5
5
5
5
5
5
5
5
5
5
5
5
5
5
5
5
5
5
5
5
5
5
5
5
5
5
5
5
5
5
5
5
5
5
5
5
5
5
5
5
5
5
5
5
5
5
5
5
5
5
5
5
5
5
5
5
5
5
5
5
5
5
5
5
5
5
5
5
5
5
5
5
5
5
5
5
5
5
5
5
5
5
5
5
5
5
5
5
5
5
5
5
5
5
5
5
5
5
5
5
5
5
5
5
5
5
5
5
5
5
5
5
5
5
5
5
5
5
5
5
5
5
5
5
5
5
5
5
5
5
5
5
5
5
5
5
5
5
5
5
5
5
5
5
5
5
5
5
5
5
5
5
5
5
5
5
5
5
5
5
5
5
5
5
5
5
5
5
5
5
5
5
5
5
5
5
5
5
5
5
5
5
5
5
5
5
5
5
5
5
5
5
5
5
5
5
5
5
5
5
5
5
5
5
5
5
5
5
5
5
5
5
5
5
5
5
5
5
5
5
5
5
5
5
5
5
5
5
5
5
5
5
5
5
5
5
5
5
5
5
5
5
5
5
5
5
5
5
5
5
5
5
5
5
5
5
5
5
5
5
5
5
5
5
5
5
5
5
5
5
5
5
5
5
5
5
5
5
5
5
5
5
5
5
5
5
5
5
5
5
5
5
5
5
5
5
5
5
5
5
5
5
5
5
5
5
5
5
5
5
5
5
5
5
5
5
5
5
5
5
5
5
5
5
5
5
5
5
5
5
5
5
5
5
5
5
5
5
5
5
5
5
5
5
5
5
5
5
5
5
5
5
5
5
5
5
5
5
5
5
5
5
5
5
5
5
5
5
5
5
5
5
5
5
5
5
5
5
5
5
5
5
5
5
5
5
5
5
5
5
5
5
5
5
5
5
5
5
5
5
5
5
5
5
5
5
5
5
5
5
5
5
5
5
5
5
5
5
5
5
5
5
5
5
5
5
5
5
5
5
5
5
5
5
5
5
5
5
5
5
5
5
5
5
5
5
5
5
5
5
5
5
5
5
5
5
5
5
5
5
5
5
5
5
5
5
5
5
5
5
5
5
5
5
5
5
5
5
5
5
5
5
5
5
5
5
5
5
5
5
5
5
5
5
5
5
5
5
5
5
5
5
5
5
5
5
5
5
5
5
5
5
5
5
5
5
5
5
5
5
5
5
5
5
5
5
5
5
5
5
5
5
5
5
5
5
5
5
5
5
5
POINT_DATA 320
SCALARS theta_e float 1
LOOKUP_TABLE default
0.994303
0.994188
0.994289
0.994387
0.993917
0.994580
0.994120
0.994382
0.994967
0.993390
0.993728
0.994702
0.994097
0.994418
0.995510
0.995154
0.992527
0.993047
0.993597
0.994738
0.994167
0.991286
0.996210
0.997058
0.995772
0.995263
0.992001
0.992739
0.993437
0.994663
0.994044
0.989723
0.990606
0.987945
0.998031
0.999105
0.996550
0.997467
0.995944
0.995241
0.991560
0.992496
0.993381
0.994365
0.988949
0.990086
0.986070
0.987142
1.000251
1.001419
0.998497
0.999611
0.996793
0.997761
0.996026
0.995189
0.991254
0.992376
0.993433
0.994328
0.988422
0.989780
0.984198
0.985298
0.986688
0.982394
1.002539
1.003520
1.000769
1.001911
0.998829
0.999956
0.996920
0.997929
0.995991
0.994934
0.991119
0.992398
0.993629
0.988202
0.989707
0.983499
0.984975
0.986633
0.980665
0.981795
0.979066
1.004291
1.004780
1.002961
1.003833
1.001096
1.002178
0.999015
1.000128
0.996918
0.997958
0.995786
0.994602
0.991116
0.992347
0.993471
0.988289
0.989851
0.983321
0.986969
0.985181
0.980170
0.981786
0.978666
0.977772
0.976947
1.004461
1.004821
1.004958
1.003878
1.003129
1.001221
1.002211
0.999062
1.000138
0.996790
0.997900
0.995598
0.994336
0.991217
0.992690
0.988691
0.990212
0.987670
0.983857
0.985874
0.982820
0.980165
0.981544
0.979088
0.977811
0.976970
0.976591
1.004357
1.004733
1.003723
1.002983
1.001145
1.001979
0.999012
1.000057
0.996837
0.997931
0.995582
0.994128
0.993190
0.991737
0.989419
0.990852
0.988738
0.987334
0.984436
0.986007
0.982971
0.980983
0.979337
0.978115
0.977246
1.003726
1.004206
1.002989
1.002151
1.001051
0.999953
0.998893
0.996907
0.997835
0.993323
0.995198
0.993865
0.992330
0.991515
0.990217
0.988876
0.987320
0.985173
0.983219
0.981459
0.979973
0.978783
1.002891
1.003418
1.002182
1.001315
1.000360
0.999257
0.998242
0.996988
0.993419
0.995528
0.994349
0.992667
0.991695
0.990429
0.989021
0.987284
0.985511
0.983833
0.982285
0.980931
1.002034
1.002545
1.001355
1.000543
0.999629
0.998628
0.997661
0.996721
0.993926
0.995427
0.993211
0.992021
0.990726
0.989308
0.987749
0.986194
0.984712
0.983370
1.001216
1.001690
1.000580
0.999820
0.998962
0.998014
0.997067
0.995979
0.994618
0.993466
0.992293
0.991044
0.989731
0.988358
0.987028
0.985793
1.000454
1.000900
0.999846
0.999120
0.998300
0.997406
0.996451
0.995529
0.994643
0.993599
0.992523
0.991392
0.990220
0.989076
0.988015
0.999697
1.000151
0.999086
0.998371
0.997579
0.996696
0.995685
0.994617
0.993654
0.992676
0.991691
0.990754
0.989900
0.998863
0.999366
0.998227
0.997522
0.996780
0.995976
0.995247
0.994444
0.993586
0.992762
0.992018
0.991381
0.997888
0.998462
0.997233
0.996562
0.995906
0.995080
0.994188
0.993457
0.992873
0.992436
0.996769
0.997398
0.996132
0.995552
0.995115
0.994431
0.993797
0.993336
0.993071
0.995584
0.996209
0.995005
0.994527
0.993893
0.993485
0.993341
0.994484
0.995024
0.994053
0.993781
0.993420
0.993347
0.993622
0.993995
0.993358
0.993219
0.993135
0.993305
0.993074
0.993019
VECTORS fa_u float
0.000000 0.000000 0.000000
0.000000 0.000000 0.000000
0.000000 0.000000 0.000000
0.000000 0.000000 0.000000
0.000000 0.000000 0.000000
0.000000 0.000000 0.000000
0.000000 0.000000 0.000000
0.000000 0.000000 0.000000
0.000000 0.000000 0.000000
0.000000 0.000000 0.000000
0.000000 0.000000 0.000000
0.000000 0.000000 0.000000
0.000000 0.000000 0.000000
0.000000 0.000000 0.000000
0.000000 0.000000 0.000000
0.000000 0.000000 0.000000
0.000000 0.000000 0.000000
0.000000 0.000000 0.000000
0.000000 0.000000 0.000000
0.000000 0.000000 0.000000
0.000000 0.000000 0.000000
0.000000 0.000000 0.000000
0.000000 0.000000 0.000000
0.000000 0.000000 0.000000
0.000000 0.000000 0.000000
0.000000 0.000000 0.000000
0.000000 0.000000 0.000000
0.000000 0.000000 0.000000
0.000000 0.000000 0.000000
0.000000 0.000000 0.000000
0.000000 0.000000 0.000000
0.000000 0.000000 0.000000
0.000000 0.000000 0.000000
0.000000 0.000000 0.000000
0.000000 0.000000 0.000000
0.000000 0.000000 0.000000
0.000000 0.000000 0.000000
0.000000 0.000000 0.000000
0.000000 0.000000 0.000000
0.000000 0.000000 0.000000
0.000000 0.000000 0.000000
0.000000 0.000000 0.000000
0.000000 0.000000 0.000000
0.000000 0.000000 0.000000
0.000000 0.000000 0.000000
0.000000 0.000000 0.000000
0.000000 0.000000 0.000000
0.000000 0.000000 0.000000
0.000000 0.000000 0.000000
0.000000 0.000000 0.000000
0.000000 0.000000 0.000000
0.000000 0.000000 0.000000
0.000000 0.000000 0.000000
0.000000 0.000000 0.000000
0.000000 0.000000 0.000000
0.000000 0.000000 0.000000
0.000000 0.000000 0.000000
0.000000 0.000000 0.000000
0.000000 0.000000 0.000000
0.000000 0.000000 0.000000
0.000000 0.000000 0.000000
0.000000 0.000000 0.000000
0.000000 0.000000 0.000000
0.000000 0.000000 0.000000
0.000000 0.000000 0.000000
0.000000 0.000000 0.000000
0.000000 0.000000 0.000000
0.000000 0.000000 0.000000
0.000000 0.000000 0.000000
0.000000 0.000000 0.000000
0.000000 0.000000 0.000000
0.000000 0.000000 0.000000
0.000000 0.000000 0.000000
0.000000 0.000000 0.000000
0.000000 0.000000 0.000000
0.000000 0.000000 0.000000
0.000000 0.000000 0.000000
0.000000 0.000000 0.000000
0.000000 0.000000 0.000000
0.000000 0.000000 0.000000
0.000000 0.000000 0.000000
0.000000 0.000000 0.000000
0.000000 0.000000 0.000000
0.000000 0.000000 0.000000
0.000000 0.000000 0.000000
0.000000 0.000000 0.000000
0.000000 0.000000 0.000000
0.000000 0.000000 0.000000
0.000000 0.000000 0.000000
0.000000 0.000000 0.000000
0.000000 0.000000 0.000000
0.000000 0.000000 0.000000
0.000000 0.000000 0.000000
0.000000 0.000000 0.000000
0.000000 0.000000 0.000000
0.000000 0.000000 0.000000
0.000000 0.000000 0.000000
0.000000 0.000000 0.000000
0.000000 0.000000 0.000000
0.000000 0.000000 0.000000
0.000000 0.000000 0.000000
0.000000 0.000000 0.000000
0.000000 0.000000 0.000000
0.000000 0.000000 0.000000
0.000000 0.000000 0.000000
0.000000 0.000000 0.000000
0.000000 0.000000 0.000000
0.000000 0.000000 0.000000
0.000000 0.000000 0.000000
0.000000 0.000000 0.000000
0.000000 0.000000 0.000000
0.000000 0.000000 0.000000
0.000000 0.000000 0.000000
0.000000 0.000000 0.000000
0.000000 0.000000 0.000000
0.000000 0.000000 0.000000
0.000000 0.000000 0.000000
0.000000 0.000000 0.000000
0.000000 0.000000 0.000000
0.000000 0.000000 0.000000
0.000000 0.000000 0.000000
0.000000 0.000000 0.000000
0.000000 0.000000 0.000000
0.000000 0.000000 0.000000
0.000000 0.000000 0.000000
0.000000 0.000000 0.000000
0.000000 0.000000 0.000000
0.000000 0.000000 0.000000
0.000000 0.000000 0.000000
0.000000 0.000000 0.000000
0.000000 0.000000 0.000000
0.000000 0.000000 0.000000
0.000000 0.000000 0.000000
0.000000 0.000000 0.000000
0.000000 0.000000 0.000000
0.000000 0.000000 0.000000
0.000000 0.000000 0.000000
0.000000 0.000000 0.000000
0.000000 0.000000 0.000000
0.000000 0.000000 0.000000
0.000000 0.000000 0.000000
0.000000 0.000000 0.000000
0.000000 0.000000 0.000000
0.000000 0.000000 0.000000
0.000000 0.000000 0.000000
0.000000 0.000000 0.000000
0.000000 0.000000 0.000000
0.000000 0.000000 0.000000
0.000000 0.000000 0.000000
0.000000 0.000000 0.000000
0.000000 0.000000 0.000000
0.000000 0.000000 0.000000
0.000000 0.000000 0.000000
0.000000 0.000000 0.000000
0.000000 0.000000 0.000000
0.000000 0.000000 0.000000
0.000000 0.000000 0.000000
0.000000 0.000000 0.000000
0.000000 0.000000 0.000000
0.000000 0.000000 0.000000
0.000000 0.000000 0.000000
0.000000 0.000000 0.000000
0.000000 0.000000 0.000000
0.000000 0.000000 0.000000
0.000000 0.000000 0.000000
0.000000 0.000000 0.000000
0.000000 0.000000 0.000000
0.000000 0.000000 0.000000
0.000000 0.000000 0.000000
0.000000 0.000000 0.000000
0.000000 0.000000 0.000000
0.000000 0.000000 0.000000
0.000000 0.000000 0.000000
0.000000 0.000000 0.000000
0.000000 0.000000 0.000000
0.000000 0.000000 0.000000
0.000000 0.000000 0.000000
0.000000 0.000000 0.000000
0.000000 0.000000 0.000000
0.000000 0.000000 0.000000
0.000000 0.000000 0.000000
0.000000 0.000000 0.000000
0.000000 0.000000 0.000000
0.000000 0.000000 0.000000
0.000000 0.000000 0.000000
0.000000 0.000000 0.000000
0.000000 0.000000 0.000000
0.000000 0.000000 0.000000
0.000000 0.000000 0.000000
0.000000 0.000000 0.000000
0.000000 0.000000 0.000000
0.000000 0.000000 0.000000
0.000000 0.000000 0.000000
0.000000 0.000000 0.000000
0.000000 0.000000 0.000000
0.000000 0.000000 0.000000
0.000000 0.000000 0.000000
0.000000 0.000000 0.000000
0.000000 0.000000 0.000000
0.000000 0.000000 0.000000
0.000000 0.000000 0.000000
0.000000 0.000000 0.000000
0.000000 0.000000 0.000000
0.000000 0.000000 0.000000
0.000000 0.000000 0.000000
0.000000 0.000000 0.000000
0.000000 0.000000 0.000000
0.000000 0.000000 0.000000
0.000000 0.000000 0.000000
0.000000 0.000000 0.000000
0.000000 0.000000 0.000000
0.000000 0.000000 0.000000
0.000000 0.000000 0.000000
0.000000 0.000000 0.000000
0.000000 0.000000 0.000000
0.000000 0.000000 0.000000
0.000000 0.000000 0.000000
0.000000 0.000000 0.000000
0.000000 0.000000 0.000000
0.000000 0.000000 0.000000
0.000000 0.000000 0.000000
0.000000 0.000000 0.000000
0.000000 0.000000 0.000000
0.000000 0.000000 0.000000
0.000000 0.000000 0.000000
0.000000 0.000000 0.000000
0.000000 0.000000 0.000000
0.000000 0.000000 0.000000
0.000000 0.000000 0.000000
0.000000 0.000000 0.000000
0.000000 0.000000 0.000000
0.000000 0.000000 0.000000
0.000000 0.000000 0.000000
0.000000 0.000000 0.000000
0.000000 0.000000 0.000000
0.000000 0.000000 0.000000
0.000000 0.000000 0.000000
0.000000 0.000000 0.000000
0.000000 0.000000 0.000000
0.000000 0.000000 0.000000
0.000000 0.000000 0.000000
0.000000 0.000000 0.000000
0.000000 0.000000 0.000000
0.000000 0.000000 0.000000
0.000000 0.000000 0.000000
0.000000 0.000000 0.000000
0.000000 0.000000 0.000000
0.000000 0.000000 0.000000
0.000000 0.000000 0.000000
0.000000 0.000000 0.000000
0.000000 0.000000 0.000000
0.000000 0.000000 0.000000
0.000000 0.000000 0.000000
0.000000 0.000000 0.000000
0.000000 0.000000 0.000000
0.000000 0.000000 0.000000
0.000000 0.000000 0.000000
0.000000 0.000000 0.000000
0.000000 0.000000 0.000000
0.000000 0.000000 0.000000
0.000000 0.000000 0.000000
0.000000 0.000000 0.000000
0.000000 0.000000 0.000000
0.000000 0.000000 0.000000
0.000000 0.000000 0.000000
0.000000 0.000000 0.000000
0.000000 0.000000 0.000000
0.000000 0.000000 0.000000
0.000000 0.000000 0.000000
0.000000 0.000000 0.000000
0.000000 0.000000 0.000000
0.000000 0.000000 0.000000
0.000000 0.000000 0.000000
0.000000 0.000000 0.000000
0.000000 0.000000 0.000000
0.000000 0.000000 0.000000
0.000000 0.000000 0.000000
0.000000 0.000000 0.000000
0.000000 0.000000 0.000000
0.000000 0.000000 0.000000
0.000000 0.000000 0.000000
0.000000 0.000000 0.000000
0.000000 0.000000 0.000000
0.000000 0.000000 0.000000
0.000000 0.000000 0.000000
0.000000 0.000000 0.000000
0.000000 0.000000 0.000000
0.000000 0.000000 0.000000
0.000000 0.000000 0.000000
0.000000 0.000000 0.000000
0.000000 0.000000 0.000000
0.000000 0.000000 0.000000
0.000000 0.000000 0.000000
0.000000 0.000000 0.000000
0.000000 0.000000 0.000000
0.000000 0.000000 0.000000
0.000000 0.000000 -50.000000
-50.000000 0.000000 -50.000000
-43.348483 0.000000 -45.695985
-45.506220 0.000000 -43.334454
-50.000000 0.000000 -50.000000
-36.694609 0.000000 -36.666081
-50.000000 0.000000 -45.090770
-40.002275 0.000000 -40.042025
-44.173158 0.000000 -29.993880
-50.000000 0.000000 -50.000000
-30.039699 0.000000 -44.858268
-33.501485 0.000000 -33.164911
-44.696564 0.000000 -39.886140
-36.831303 0.000000 -35.149709
-39.838803 0.000000 -23.318790
-50.000000 0.000000 -26.564249
-44.687917 0.000000 -50.000000
-23.385823 0.000000 -44.676534
-26.878846 0.000000 -39.382944
-30.293162 0.000000 -29.632798
-39.398662 0.000000 -33.393271
-33.716300 0.000000 -50.000000
-16.732496 0.000000 -16.644626
-50.000000 0.000000 -9.972760
