# vtk DataFile Version 2.0
CellBP Time: 2.4
ASCII
DATASET UNSTRUCTURED_GRID
POINTS 320 double
-50.000000 -50.000000 0.000000
-50.000000 -43.336569 0.000000
-45.691359 -45.522743 0.000000
-43.288891 -50.000000 0.000000
-50.000000 -36.671936 0.000000
-36.578875 -50.000000 0.000000
-45.083771 -40.027782 0.000000
-40.026767 -44.193848 0.000000
-29.869080 -50.000000 0.000000
-50.000000 -30.006904 0.000000
-44.849835 -33.541240 0.000000
-33.127863 -44.716258 0.000000
-39.863392 -36.864483 0.000000
-35.119005 -39.870638 0.000000
-23.160672 -50.000000 0.000000
-26.513752 -44.705805 0.000000
-50.000000 -23.343578 0.000000
-44.666531 -26.934459 0.000000
-39.356739 -30.341379 0.000000
-29.589303 -39.430019 0.000000
-33.353786 -33.759309 0.000000
-50.000000 -16.680502 0.000000
-16.460899 -50.000000 0.000000
-9.771441 -50.000000 0.000000
-19.933595 -44.624387 0.000000
-23.186816 -39.184330 0.000000
-44.691926 -20.264197 0.000000
-39.358100 -23.681215 0.000000
-34.084292 -27.078874 0.000000
-26.359636 -33.683473 0.000000
-29.125842 -29.062257 0.000000
-50.000000 -10.019805 0.000000
-44.664048 -13.614539 0.000000
-50.000000 -3.363984 0.000000
-3.091570 -50.000000 0.000000
3.575962 -50.000000 0.000000
-13.307142 -44.630104 0.000000
-6.643243 -44.639160 0.000000
-16.652924 -39.215472 0.000000
-20.067205 -33.445975 0.000000
-39.324812 -16.996493 0.000000
-33.996516 -20.456744 0.000000
-28.745496 -23.622297 0.000000
-23.463755 -27.503170 0.000000
-44.627211 -6.947899 0.000000
-39.268237 -10.338954 0.000000
-50.000000 3.294010 0.000000
-44.610937 -0.294797 0.000000
10.229805 -50.000000 0.000000
16.871839 -50.000000 0.000000
0.029453 -44.642501 0.000000
6.698744 -44.652609 0.000000
-9.992849 -39.281393 0.000000
-3.309849 -39.274567 0.000000
-13.428465 -33.892162 0.000000
-16.644402 -28.413846 0.000000
-33.908931 -13.749639 0.000000
-28.551251 -17.116066 0.000000
-23.231122 -20.520191 0.000000
-18.592217 -23.467701 0.000000
-39.227135 -3.681304 0.000000
-33.838544 -7.100898 0.000000
-50.000000 9.985031 0.000000
-44.593376 6.361273 0.000000
-39.204429 2.980973 0.000000
-50.000000 16.745138 0.000000
23.505876 -50.000000 0.000000
30.134015 -50.000000 0.000000
13.363024 -44.673743 0.000000
20.030529 -44.706122 0.000000
3.368484 -39.289375 0.000000
10.031007 -39.323154 0.000000
-6.666616 -33.878134 0.000000
0.039148 -33.903868 0.000000
-10.012759 -28.421333 0.000000
-13.037464 -23.077115 0.000000
-28.446579 -10.505766 0.000000
-22.971336 -13.930878 0.000000
-16.882016 -17.438650 0.000000
-33.781863 -0.460969 0.000000
-28.429674 -3.950263 0.000000
-44.556792 13.053989 0.000000
-39.140889 9.610730 0.000000
-33.745767 6.075122 0.000000
-50.000000 23.607219 0.000000
-44.602073 19.848537 0.000000
-50.000000 30.562999 0.000000
36.755833 -50.000000 0.000000
43.377945 -50.000000 0.000000
26.696532 -44.746325 0.000000
33.340105 -44.871328 0.000000
16.684740 -39.380027 0.000000
23.370533 -39.450721 0.000000
6.712956 -33.937671 0.000000
13.354512 -34.006080 0.000000
-3.257216 -28.469284 0.000000
3.443122 -28.539356 0.000000
-6.524316 -22.996087 0.000000
-9.862242 -17.519358 0.000000
-23.036772 -7.357038 0.000000
-17.661124 -10.624330 0.000000
-12.696511 -12.841430 0.000000
-28.391502 2.613259 0.000000
-23.043991 -0.902920 0.000000
-39.005490 16.301491 0.000000
-28.360653 9.308319 0.000000
-33.532851 12.479539 0.000000
-44.745440 26.615851 0.000000
-38.723099 23.657456 0.000000
-44.992586 33.413225 0.000000
-50.000000 37.506172 0.000000
-50.000000 43.863020 0.000000
39.934842 -45.065465 0.000000
45.473087 -45.654973 0.000000
50.000000 -50.000000 0.000000
36.646591 -39.984277 0.000000
30.041810 -39.465546 0.000000
19.956212 -34.118719 0.000000
26.624721 -34.336203 0.000000
10.066620 -28.577485 0.000000
16.675726 -28.701216 0.000000
0.159723 -23.079069 0.000000
6.908475 -23.248660 0.000000
-3.272996 -17.468874 0.000000
-6.706433 -11.291512 0.000000
-17.656356 -4.193125 0.000000
-12.340682 -7.337457 0.000000
-22.977950 5.535820 0.000000
-17.740164 2.018145 0.000000
-22.645648 11.475266 0.000000
-33.327270 18.507522 0.000000
-27.411357 16.120648 0.000000
-33.046586 23.844175 0.000000
-40.308467 30.543893 0.000000
-35.412204 28.966347 0.000000
-39.923781 35.511172 0.000000
-43.920771 40.177363 0.000000
-45.275204 45.769490 0.000000
-50.000000 50.000000 0.000000
44.119529 -39.895250 0.000000
50.000000 -43.379755 0.000000
39.649929 -35.052015 0.000000
33.488624 -33.435472 0.000000
23.036156 -28.849141 0.000000
28.770552 -29.268304 0.000000
13.539794 -23.183370 0.000000
20.120358 -23.483969 0.000000
3.514238 -17.706639 0.000000
10.226478 -17.917005 0.000000
0.289721 -12.203128 0.000000
-1.969104 -6.497853 0.000000
-7.186724 -3.995408 0.000000
-12.366717 -1.146251 0.000000
-17.748223 8.053221 0.000000
-12.637372 4.840078 0.000000
-18.019037 13.160101 0.000000
-20.772134 16.823520 0.000000
-28.034133 22.522082 0.000000
-23.356360 21.010850 0.000000
-29.744618 28.661049 0.000000
-34.159284 34.094774 0.000000
-36.868366 39.950166 0.000000
-39.634822 45.270432 0.000000
-43.405159 50.000000 0.000000
44.586342 -32.978565 0.000000
50.000000 -36.746697 0.000000
39.147250 -29.591316 0.000000
33.533517 -26.386951 0.000000
27.232638 -23.355351 0.000000
23.127618 -18.693455 0.000000
17.068548 -17.036316 0.000000
6.833823 -12.317747 0.000000
12.450010 -12.803674 0.000000
-3.147573 -1.713521 0.000000
4.110180 -7.184061 0.000000
1.232735 -2.282880 0.000000
-6.774056 2.072670 0.000000
-8.106236 7.563361 0.000000
-12.360098 11.574978 0.000000
-15.083981 17.333062 0.000000
-18.490970 22.737463 0.000000
-23.585945 27.219419 0.000000
-26.955482 33.613128 0.000000
-30.051299 39.317827 0.000000
-33.122468 44.839511 0.000000
-36.646575 50.000000 0.000000
44.554446 -26.510561 0.000000
50.000000 -30.116953 0.000000
39.062129 -23.197342 0.000000
33.490674 -19.924076 0.000000
28.097215 -16.615881 0.000000
22.760535 -13.177532 0.000000
17.275897 -9.982108 0.000000
11.082075 -6.739814 0.000000
-1.144612 2.129446 0.000000
6.428085 -1.838900 0.000000
3.126533 1.464249 0.000000
-3.269873 7.010484 0.000000
-5.918753 12.217232 0.000000
-9.134958 17.458301 0.000000
-12.582178 22.905342 0.000000
-16.802899 28.045624 0.000000
-20.189693 33.365644 0.000000
-23.315123 38.996094 0.000000
-26.454744 44.612608 0.000000
-29.902560 50.000000 0.000000
44.538903 -19.944102 0.000000
50.000000 -23.481267 0.000000
39.066834 -16.616948 0.000000
33.629231 -13.313389 0.000000
28.225608 -10.016747 0.000000
22.825630 -6.670078 0.000000
17.395702 -3.420757 0.000000
12.227500 0.096243 0.000000
2.184958 6.141743 0.000000
7.304846 3.749940 0.000000
0.129038 11.813298 0.000000
-2.870399 17.348254 0.000000
-6.259588 22.831806 0.000000
-10.142572 28.146600 0.000000
-13.353442 33.556892 0.000000
-16.615329 39.001336 0.000000
-19.800981 44.503874 0.000000
-23.203533 50.000000 0.000000
44.551870 -13.317928 0.000000
50.000000 -16.837927 0.000000
39.119036 -9.991663 0.000000
33.709383 -6.677639 0.000000
28.326038 -3.360697 0.000000
22.970982 -0.049189 0.000000
17.710446 3.285131 0.000000
12.454285 6.500235 0.000000
7.016960 10.734653 0.000000
3.623008 17.061199 0.000000
0.266512 22.736590 0.000000
-3.171346 28.225889 0.000000
-6.509591 33.702494 0.000000
-9.845225 39.116975 0.000000
-13.141466 44.533805 0.000000
-16.575691 50.000000 0.000000
44.575210 -6.668213 0.000000
50.000000 -10.184019 0.000000
39.169214 -3.346855 0.000000
33.786830 -0.027716 0.000000
28.440563 3.294670 0.000000
23.152248 6.634862 0.000000
18.026633 9.960263 0.000000
12.887693 12.136845 0.000000
10.044330 17.148194 0.000000
6.749770 22.646343 0.000000
3.467582 28.209317 0.000000
0.155888 33.691325 0.000000
-3.171451 39.136171 0.000000
-6.470475 44.564511 0.000000
-9.937447 50.000000 0.000000
44.600700 -0.009973 0.000000
50.000000 -3.518972 0.000000
39.219153 3.308810 0.000000
33.862935 6.624287 0.000000
28.544800 9.955572 0.000000
23.204442 13.370558 0.000000
17.143904 16.971065 0.000000
13.117913 22.621545 0.000000
10.037182 28.193664 0.000000
6.826725 33.691723 0.000000
3.502859 39.146850 0.000000
0.189890 44.576614 0.000000
-3.288729 50.000000 0.000000
44.615205 6.656552 0.000000
50.000000 3.156657 0.000000
39.254599 9.964445 0.000000
33.930920 13.255341 0.000000
28.661079 16.557876 0.000000
23.532607 20.054924 0.000000
18.705634 23.081132 0.000000
16.568284 28.273814 0.000000
13.508324 33.739516 0.000000
10.166722 39.174765 0.000000
6.853857 44.583805 0.000000
3.365674 50.000000 0.000000
44.639289 13.312230 0.000000
50.000000 9.841619 0.000000
39.308025 16.601415 0.000000
34.015525 19.850890 0.000000
28.721893 22.911540 0.000000
23.413819 27.192946 0.000000
20.045018 33.295541 0.000000
16.722625 39.037700 0.000000
13.427914 44.528025 0.000000
10.025153 50.000000 0.000000
44.662574 19.969788 0.000000
50.000000 16.532702 0.000000
39.353180 23.255349 0.000000
34.123076 26.509714 0.000000
29.070545 28.531583 0.000000
26.315049 33.402719 0.000000
23.187028 38.966061 0.000000
20.019058 44.508530 0.000000
16.684451 50.000000 0.000000
44.670363 26.641241 0.000000
50.000000 23.226139 0.000000
39.347203 29.963288 0.000000
33.293496 33.370910 0.000000
29.504622 39.044317 0.000000
26.524108 44.508044 0.000000
23.344531 50.000000 0.000000
44.804287 33.290979 0.000000
50.000000 29.920273 0.000000
39.786814 36.597420 0.000000
34.899428 39.528659 0.000000
32.907562 44.516066 0.000000
30.006795 50.000000 0.000000
45.005449 39.879186 0.000000
50.000000 36.614309 0.000000
39.784223 43.971829 0.000000
36.668615 50.000000 0.000000
45.644613 45.412796 0.000000
50.000000 43.307124 0.000000
43.331283 50.000000 0.000000
50.000000 50.000000 0.000000
CELLS 578 2312
3 1 0 2
3 0 3 2
3 4 1 6
3 6 1 2
3 3 5 7
3 3 7 2
3 6 2 7
3 9 4 10
3 10 4 6
3 5 8 11
3 7 5 11
3 10 6 12
3 12 6 7
3 7 11 13
3 7 13 12
3 8 14 15
3 11 8 15
3 16 9 17
3 17 9 10
3 17 10 18
3 18 10 12
3 11 15 19
3 13 11 19
3 18 12 20
3 13 19 20
3 20 12 13
3 14 22 24
3 15 14 24
3 15 24 25
3 19 15 25
3 21 16 26
3 26 16 17
3 26 17 27
3 27 17 18
3 27 18 28
3 28 18 20
3 19 25 29
3 19 29 20
3 28 20 30
3 30 20 29
3 31 21 32
3 32 21 26
3 22 23 36
3 24 22 36
3 23 34 37
3 36 23 37
3 24 36 38
3 25 24 38
3 25 38 39
3 29 25 39
3 32 26 40
3 40 26 27
3 40 27 41
3 41 27 28
3 41 28 42
3 42 28 30
3 29 39 43
3 29 43 30
3 42 30 43
3 33 31 44
3 44 31 32
3 44 32 45
3 45 32 40
3 46 33 47
3 47 33 44
3 34 35 50
3 37 34 50
3 35 48 51
3 50 35 51
3 36 37 52
3 38 36 52
3 37 50 53
3 52 37 53
3 38 52 54
3 39 38 54
3 39 54 55
3 43 39 55
3 45 40 56
3 56 40 41
3 56 41 57
3 57 41 42
3 57 42 58
3 58 42 43
3 43 55 59
3 43 59 58
3 47 44 60
3 60 44 45
3 60 45 61
3 61 45 56
3 62 46 63
3 63 46 47
3 63 47 64
3 64 47 60
3 48 49 68
3 51 48 68
3 49 66 69
3 68 49 69
3 50 51 70
3 53 50 70
3 51 68 71
3 70 51 71
3 52 53 72
3 54 52 72
3 53 70 73
3 72 53 73
3 54 72 74
3 55 54 74
3 55 74 75
3 59 55 75
3 61 56 76
3 76 56 57
3 76 57 77
3 77 57 58
3 77 58 78
3 59 75 78
3 78 58 59
3 64 60 79
3 79 60 61
3 79 61 80
3 80 61 76
3 65 62 81
3 81 62 63
3 81 63 82
3 82 63 64
3 82 64 83
3 83 64 79
3 84 65 85
3 85 65 81
3 66 67 89
3 69 66 89
3 67 87 90
3 89 67 90
3 68 69 91
3 71 68 91
3 69 89 92
3 91 69 92
3 70 71 93
3 73 70 93
3 71 91 94
3 93 71 94
3 72 73 95
3 74 72 95
3 73 93 96
3 95 73 96
3 74 95 97
3 75 74 97
3 75 97 98
3 78 75 98
3 80 76 99
3 99 76 77
3 99 77 100
3 100 77 78
3 100 78 101
3 98 101 78
3 83 79 102
3 102 79 80
3 102 80 103
3 103 80 99
3 85 81 104
3 104 81 82
3 105 83 102
3 104 82 106
3 106 82 83
3 106 83 105
3 86 84 107
3 107 84 85
3 107 85 108
3 108 85 104
3 109 86 107
3 110 86 109
3 87 88 112
3 90 87 112
3 112 88 113
3 88 114 113
3 90 112 115
3 89 90 116
3 92 89 116
3 116 90 115
3 91 92 117
3 94 91 117
3 92 116 118
3 117 92 118
3 93 94 119
3 96 93 119
3 94 117 120
3 119 94 120
3 95 96 121
3 97 95 121
3 96 119 122
3 121 96 122
3 97 121 123
3 98 97 123
3 98 123 124
3 98 124 101
3 103 99 125
3 125 99 100
3 125 100 126
3 126 100 101
3 126 101 124
3 105 102 127
3 127 102 103
3 127 103 128
3 128 103 125
3 129 105 127
3 108 104 130
3 130 104 106
3 130 106 131
3 131 106 105
3 131 105 129
3 108 130 132
3 109 107 133
3 133 107 108
3 133 108 134
3 108 132 134
3 135 109 133
3 111 110 136
3 136 110 109
3 136 109 135
3 137 111 136
3 138 111 137
3 112 113 139
3 115 112 139
3 114 140 113
3 140 139 113
3 139 141 115
3 116 115 142
3 118 116 142
3 142 115 141
3 117 118 143
3 120 117 143
3 118 142 144
3 143 118 144
3 119 120 145
3 122 119 145
3 120 143 146
3 145 120 146
3 121 122 147
3 123 121 147
3 122 145 148
3 147 122 148
3 123 147 149
3 124 123 149
3 124 149 150
3 151 126 124
3 124 150 151
3 128 125 152
3 152 125 126
3 152 126 151
3 129 127 153
3 153 127 128
3 128 152 154
3 153 128 154
3 155 129 153
3 131 129 156
3 156 129 155
3 132 130 157
3 130 131 157
3 157 131 158
3 131 156 158
3 132 157 159
3 132 159 134
3 135 133 160
3 160 133 134
3 160 134 159
3 136 135 161
3 135 160 161
3 162 137 136
3 161 162 136
3 163 138 137
3 162 163 137
3 139 164 141
3 140 165 139
3 139 165 164
3 141 164 166
3 141 166 142
3 166 167 142
3 144 142 167
3 167 168 144
3 143 144 168
3 146 143 168
3 168 169 146
3 145 146 170
3 148 145 170
3 170 146 169
3 147 148 171
3 149 147 171
3 148 170 172
3 171 148 172
3 173 151 150
3 149 171 174
3 150 149 174
3 150 174 175
3 150 175 173
3 154 152 176
3 152 151 176
3 176 151 173
3 154 176 177
3 155 153 178
3 177 178 154
3 154 178 153
3 156 155 179
3 155 178 179
3 180 158 156
3 179 180 156
3 181 159 157
3 180 181 158
3 181 157 158
3 182 160 159
3 181 182 159
3 183 161 160
3 182 183 160
3 184 162 161
3 184 161 183
3 185 163 162
3 184 185 162
3 164 186 166
3 165 187 164
3 164 187 186
3 166 186 188
3 166 188 167
3 167 188 189
3 167 189 168
3 168 189 190
3 168 190 169
3 169 190 191
3 169 191 170
3 192 172 170
3 170 191 192
3 192 193 172
3 171 172 193
3 174 171 193
3 194 173 175
3 176 173 194
3 175 174 195
3 193 195 174
3 195 196 175
3 175 196 194
3 197 177 176
3 194 197 176
3 198 178 177
3 197 198 177
3 199 179 178
3 198 199 178
3 200 180 179
3 199 200 179
3 201 181 180
3 200 201 180
3 202 182 181
3 201 202 181
3 203 183 182
3 202 203 182
3 204 184 183
3 203 204 183
3 205 185 184
3 204 205 184
3 186 206 188
3 187 207 186
3 186 207 206
3 188 206 208
3 188 208 189
3 189 208 209
3 189 209 190
3 190 209 210
3 190 210 191
3 191 210 211
3 191 211 192
3 192 211 212
3 192 212 193
3 193 212 213
3 193 213 195
3 214 197 194
3 214 194 196
3 195 213 215
3 195 215 196
3 196 215 214
3 216 198 197
3 214 216 197
3 217 199 198
3 216 217 198
3 218 200 199
3 217 218 199
3 219 201 200
3 218 219 200
3 220 202 201
3 219 220 201
3 221 203 202
3 220 221 202
3 222 204 203
3 221 222 203
3 223 205 204
3 222 223 204
3 206 224 208
3 207 225 206
3 206 225 224
3 208 224 226
3 208 226 209
3 209 226 227
3 209 227 210
3 210 227 228
3 210 228 211
3 211 228 229
3 211 229 212
3 212 229 230
3 212 230 213
3 213 230 231
3 213 231 215
3 232 216 214
3 215 231 232
3 232 214 215
3 233 217 216
3 232 233 216
3 234 218 217
3 233 234 217
3 235 219 218
3 234 235 218
3 236 220 219
3 235 236 219
3 237 221 220
3 236 237 220
3 238 222 221
3 237 238 221
3 239 223 222
3 238 239 222
3 224 240 226
3 225 241 224
3 224 241 240
3 226 240 242
3 226 242 227
3 227 242 243
3 227 243 228
3 228 243 244
3 228 244 229
3 244 245 229
3 229 245 230
3 230 245 246
3 230 246 231
3 231 246 247
3 231 247 232
3 248 233 232
3 248 232 247
3 249 234 233
3 248 249 233
3 250 235 234
3 249 250 234
3 251 236 235
3 250 251 235
3 252 237 236
3 251 252 236
3 253 238 237
3 252 253 237
3 254 239 238
3 253 254 238
3 240 255 242
3 241 256 240
3 240 256 255
3 242 255 257
3 242 257 243
3 243 257 258
3 243 258 244
3 244 258 259
3 244 259 245
3 245 259 260
3 245 260 246
3 246 260 261
3 246 261 247
3 248 247 261
3 262 249 248
3 261 262 248
3 263 250 249
3 262 263 249
3 264 251 250
3 263 264 250
3 265 252 251
3 264 265 251
3 266 253 252
3 265 266 252
3 267 254 253
3 266 267 253
3 255 268 257
3 256 269 255
3 255 269 268
3 257 268 270
3 257 270 258
3 258 270 271
3 258 271 259
3 259 271 272
3 259 272 260
3 260 272 273
3 260 273 261
3 274 262 261
3 261 273 274
3 275 263 262
3 274 275 262
3 276 264 263
3 275 276 263
3 277 265 264
3 276 277 264
3 278 266 265
3 277 278 265
3 279 267 266
3 278 279 266
3 268 280 270
3 269 281 268
3 268 281 280
3 270 280 282
3 270 282 271
3 271 282 283
3 271 283 272
3 283 284 272
3 272 284 273
3 285 275 274
3 273 284 285
3 285 274 273
3 286 276 275
3 285 286 275
3 287 277 276
3 286 287 276
3 288 278 277
3 287 288 277
3 289 279 278
3 288 289 278
3 280 290 282
3 281 291 280
3 280 291 290
3 282 290 292
3 282 292 283
3 283 292 293
3 283 293 284
3 284 293 294
3 284 294 285
3 295 286 285
3 295 285 294
3 296 287 286
3 295 296 286
3 297 288 287
3 296 297 287
3 298 289 288
3 297 298 288
3 290 299 292
3 291 300 290
3 290 300 299
3 292 299 301
3 292 301 293
3 293 301 302
3 293 302 294
3 294 302 295
3 303 296 295
3 303 295 302
3 304 297 296
3 303 304 296
3 305 298 297
3 304 305 297
3 299 306 301
3 300 307 299
3 299 307 306
3 301 306 308
3 301 308 302
3 309 303 302
3 302 308 309
3 310 304 303
3 309 310 303
3 311 305 304
3 310 311 304
3 306 312 308
3 307 313 306
3 306 313 312
3 314 310 309
3 308 312 314
3 314 309 308
3 315 311 310
3 314 315 310
3 312 316 314
3 313 317 312
3 312 317 316
3 318 315 314
3 318 314 316
3 317 319 316
3 319 318 316
CELL_TYPES 578
5
5
5
5
5
5
5
5
5
5
5
5
5
5
5
5
5
5
5
5
5
5
5
5
5
5
5
5
5
5
5
5
5
5
5
5
5
5
5
5
5
5
5
5
5
5
5
5
5
5
5
5
5
5
5
5
5
5
5
5
5
5
5
5
5
5
5
5
5
5
5
5
5
5
5
5
5
5
5
5
5
5
5
5
5
5
5
5
5
5
5
5
5
5
5
5
5
5
5
5
5
5
5
5
5
5
5
5
5
5
5
5
5
5
5
5
5
5
5
5
5
5
5
5
5
5
5
5
5
5
5
5
5
5
5
5
5
5
5
5
5
5
5
5
5
5
5
5
5
5
5
5
5
5
5
5
5
5
5
5
5
5
5
5
5
5
5
5
5
5
5
5
5
5
5
5
5
5
5
5
5
5
5
5
5
5
5
5
5
5
5
5
5
5
5
5
5
5
5
5
5
5
5
5
5
5
5
5
5
5
5
5
5
5
5
5
5
5
5
5
5
5
5
5
5
5
5
5
5
5
5
5
5
5
5
5
5
5
5
5
5
5
5
5
5
5
5
5
5
5
5
5
5
5
5
5
5
5
5
5
5
5
5
5
5
5
5
5
5
5
5
5
5
5
5
5
5
5
5
5
5
5
5
5
5
5
5
5
5
5
5
5
5
5
5
5
5
5
5
5
5
5
5
5
5
5
5
5
5
5
5
5
5
5
5
5
5
5
5
5
5
5
5
5
5
5
5
5
5
5
5
5
5
5
5
5
5
5
5
5
5
5
5
5
5
5
5
5
5
5
5
5
5
5
5
5
5
5
5
5
5
5
5
5
5
5
5
5
5
5
5
5
5
5
5
5
5
5
5
5
5
5
5
5
5
5
5
5
5
5
5
5
5
5
5
5
5
5
5
5
5
5
5
5
5
5
5
5
5
5
5
5
5
5
5
5
5
5
5
5
5
5
5
5
5
5
5
5
5
5
5
5
5
5
5
5
5
5
5
5
5
5
5
5
5
5
5
5
5
5
5
5
5
5
5
5
5
5
5
5
5
5
5
5
5
5
5
5
5
5
5
5
5
5
5
5
5
5
5
5
5
5
5
5
5
5
5
5
5
5
5
5
5
5
5
5
5
5
5
5
5
5
5
5
5
5
5
5
5
5
5
5
5
5
5
5
5
5
5
5
5
5
5
5
5
5
5
5
5
5
5
5
5
5
5
5
5
5
5
5
5
5
5
5
5
5
5
5
5
5
5
5
5
5
5
5
5
5
5
5
5
5
5
5
5
5
5
5
5
5
5
5
5
5
5
5
5
5
POINT_DATA 320
SCALARS theta_e float 1
LOOKUP_TABLE default
0.993768
0.993728
0.993760
0.993784
0.993640
0.993816
0.993700
0.993770
0.993888
0.993505
0.993588
0.993837
0.993683
0.993764
0.993995
0.993926
0.993332
0.993435
0.993556
0.993832
0.993692
0.993124
0.994140
0.994323
0.994055
0.993948
0.993242
0.993375
0.993518
0.993806
0.993654
0.992888
0.993016
0.992632
0.994531
0.994749
0.994222
0.994420
0.994099
0.993941
0.993160
0.993325
0.993507
0.993735
0.992765
0.992915
0.992368
0.992503
0.994958
0.995146
0.994635
0.994851
0.994289
0.994501
0.994129
0.993944
0.993098
0.993313
0.993546
0.993756
0.992654
0.992847
0.992112
0.992242
0.992390
0.991876
0.995308
0.995441
0.995052
0.995228
0.994724
0.994938
0.994342
0.994572
0.994150
0.993912
0.993081
0.993333
0.993598
0.992586
0.992822
0.991996
0.992138
0.992327
0.991667
0.991776
0.991493
0.995545
0.995613
0.995375
0.995491
0.995131
0.995294
0.994799
0.995008
0.994375
0.994610
0.994113
0.993853
0.993065
0.993314
0.993593
0.992558
0.992819
0.991907
0.992310
0.992088
0.991590
0.991711
0.991437
0.991360
0.991280
0.995575
0.995623
0.995641
0.995518
0.995424
0.995189
0.995334
0.994841
0.995045
0.994334
0.994581
0.994077
0.993687
0.993080
0.993367
0.992583
0.992872
0.992368
0.991888
0.992100
0.991742
0.991545
0.991631
0.991438
0.991343
0.991272
0.991246
0.995577
0.995618
0.995516
0.995437
0.995213
0.995331
0.994823
0.995042
0.994328
0.994575
0.993964
0.993770
0.993475
0.993136
0.992698
0.992984
0.992508
0.992246
0.991877
0.992043
0.991713
0.991557
0.991429
0.991339
0.991283
0.995518
0.995565
0.995446
0.995358
0.995216
0.995022
0.994792
0.994246
0.994538
0.993239
0.994029
0.993603
0.993092
0.993028
0.992764
0.992454
0.992177
0.991898
0.991705
0.991565
0.991455
0.991375
0.995429
0.995486
0.995353
0.995247
0.995093
0.994867
0.994621
0.994293
0.993178
0.993904
0.993597
0.993182
0.992978
0.992685
0.992406
0.992115
0.991894
0.991740
0.991616
0.991516
0.995314
0.995382
0.995226
0.995103
0.994920
0.994692
0.994447
0.994202
0.993568
0.993773
0.993258
0.992944
0.992650
0.992383
0.992132
0.991954
0.991816
0.991701
0.995171
0.995251
0.995068
0.994926
0.994724
0.994485
0.994226
0.993972
0.993592
0.993248
0.992918
0.992660
0.992406
0.992208
0.992055
0.991924
0.995002
0.995095
0.994886
0.994732
0.994520
0.994271
0.993989
0.993760
0.993501
0.993195
0.992944
0.992700
0.992494
0.992328
0.992183
0.994818
0.994917
0.994696
0.994536
0.994322
0.994061
0.993757
0.993456
0.993219
0.992994
0.992792
0.992620
0.992468
0.994634
0.994731
0.994514
0.994356
0.994149
0.993901
0.993672
0.993479
0.993276
0.993086
0.992916
0.992764
0.994466
0.994553
0.994355
0.994204
0.994007
0.993752
0.993548
0.993367
0.993202
0.993055
0.994325
0.994398
0.994225
0.994088
0.993924
0.993774
0.993611
0.993461
0.993325
0.994219
0.994277
0.994124
0.993976
0.993816
0.993689
0.993569
0.994153
0.994196
0.994069
0.993966
0.993882
0.993782
0.994120
0.994153
0.994036
0.993964
0.994118
0.994141
0.994079
0.994134
VECTORS fa_u float
0.000000 0.000000 0.000000
0.000000 0.000000 0.000000
0.000000 0.000000 0.000000
0.000000 0.000000 0.000000
0.000000 0.000000 0.000000
0.000000 0.000000 0.000000
0.000000 0.000000 0.000000
0.000000 0.000000 0.000000
0.000000 0.000000 0.000000
0.000000 0.000000 0.000000
0.000000 0.000000 0.000000
0.000000 0.000000 0.000000
0.000000 0.000000 0.000000
0.000000 0.000000 0.000000
0.000000 0.000000 0.000000
0.000000 0.000000 0.000000
0.000000 0.000000 0.000000
0.000000 0.000000 0.000000
0.000000 0.000000 0.000000
0.000000 0.000000 0.000000
0.000000 0.000000 0.000000
0.000000 0.000000 0.000000
0.000000 0.000000 0.000000
0.000000 0.000000 0.000000
0.000000 0.000000 0.000000
0.000000 0.000000 0.000000
0.000000 0.000000 0.000000
0.000000 0.000000 0.000000
0.000000 0.000000 0.000000
0.000000 0.000000 0.000000
0.000000 0.000000 0.000000
0.000000 0.000000 0.000000
0.000000 0.000000 0.000000
0.000000 0.000000 0.000000
0.000000 0.000000 0.000000
0.000000 0.000000 0.000000
0.000000 0.000000 0.000000
0.000000 0.000000 0.000000
0.000000 0.000000 0.000000
0.000000 0.000000 0.000000
0.000000 0.000000 0.000000
0.000000 0.000000 0.000000
0.000000 0.000000 0.000000
0.000000 0.000000 0.000000
0.000000 0.000000 0.000000
0.000000 0.000000 0.000000
0.000000 0.000000 0.000000
0.000000 0.000000 0.000000
0.000000 0.000000 0.000000
0.000000 0.000000 0.000000
0.000000 0.000000 0.000000
0.000000 0.000000 0.000000
0.000000 0.000000 0.000000
0.000000 0.000000 0.000000
0.000000 0.000000 0.000000
0.000000 0.000000 0.000000
0.000000 0.000000 0.000000
0.000000 0.000000 0.000000
0.000000 0.000000 0.000000
0.000000 0.000000 0.000000
0.000000 0.000000 0.000000
0.000000 0.000000 0.000000
0.000000 0.000000 0.000000
0.000000 0.000000 0.000000
0.000000 0.000000 0.000000
0.000000 0.000000 0.000000
0.000000 0.000000 0.000000
0.000000 0.000000 0.000000
0.000000 0.000000 0.000000
0.000000 0.000000 0.000000
0.000000 0.000000 0.000000
0.000000 0.000000 0.000000
0.000000 0.000000 0.000000
0.000000 0.000000 0.000000
0.000000 0.000000 0.000000
0.000000 0.000000 0.000000
0.000000 0.000000 0.000000
0.000000 0.000000 0.000000
0.000000 0.000000 0.000000
0.000000 0.000000 0.000000
0.000000 0.000000 0.000000
0.000000 0.000000 0.000000
0.000000 0.000000 0.000000
0.000000 0.000000 0.000000
0.000000 0.000000 0.000000
0.000000 0.000000 0.000000
0.000000 0.000000 0.000000
0.000000 0.000000 0.000000
0.000000 0.000000 0.000000
0.000000 0.000000 0.000000
0.000000 0.000000 0.000000
0.000000 0.000000 0.000000
0.000000 0.000000 0.000000
0.000000 0.000000 0.000000
0.000000 0.000000 0.000000
0.000000 0.000000 0.000000
0.000000 0.000000 0.000000
0.000000 0.000000 0.000000
0.000000 0.000000 0.000000
0.000000 0.000000 0.000000
0.000000 0.000000 0.000000
0.000000 0.000000 0.000000
0.000000 0.000000 0.000000
0.000000 0.000000 0.000000
0.000000 0.000000 0.000000
0.000000 0.000000 0.000000
0.000000 0.000000 0.000000
0.000000 0.000000 0.000000
0.000000 0.000000 0.000000
0.000000 0.000000 0.000000
0.000000 0.000000 0.000000
0.000000 0.000000 0.000000
0.000000 0.000000 0.000000
0.000000 0.000000 0.000000
0.000000 0.000000 0.000000
0.000000 0.000000 0.000000
0.000000 0.000000 0.000000
0.000000 0.000000 0.000000
0.000000 0.000000 0.000000
0.000000 0.000000 0.000000
0.000000 0.000000 0.000000
0.000000 0.000000 0.000000
0.000000 0.000000 0.000000
0.000000 0.000000 0.000000
0.000000 0.000000 0.000000
0.000000 0.000000 0.000000
0.000000 0.000000 0.000000
0.000000 0.000000 0.000000
0.000000 0.000000 0.000000
0.000000 0.000000 0.000000
0.000000 0.000000 0.000000
0.000000 0.000000 0.000000
0.000000 0.000000 0.000000
0.000000 0.000000 0.000000
0.000000 0.000000 0.000000
0.000000 0.000000 0.000000
0.000000 0.000000 0.000000
0.000000 0.000000 0.000000
0.000000 0.000000 0.000000
0.000000 0.000000 0.000000
0.000000 0.000000 0.000000
0.000000 0.000000 0.000000
0.000000 0.000000 0.000000
0.000000 0.000000 0.000000
0.000000 0.000000 0.000000
0.000000 0.000000 0.000000
0.000000 0.000000 0.000000
0.000000 0.000000 0.000000
0.000000 0.000000 0.000000
0.000000 0.000000 0.000000
0.000000 0.000000 0.000000
0.000000 0.000000 0.000000
0.000000 0.000000 0.000000
0.000000 0.000000 0.000000
0.000000 0.000000 0.000000
0.000000 0.000000 0.000000
0.000000 0.000000 0.000000
0.000000 0.000000 0.000000
0.000000 0.000000 0.000000
0.000000 0.000000 0.000000
0.000000 0.000000 0.000000
0.000000 0.000000 0.000000
0.000000 0.000000 0.000000
0.000000 0.000000 0.000000
0.000000 0.000000 0.000000
0.000000 0.000000 0.000000
0.000000 0.000000 0.000000
0.000000 0.000000 0.000000
0.000000 0.000000 0.000000
0.000000 0.000000 0.000000
0.000000 0.000000 0.000000
0.000000 0.000000 0.000000
0.000000 0.000000 0.000000
0.000000 0.000000 0.000000
0.000000 0.000000 0.000000
0.000000 0.000000 0.000000
0.000000 0.000000 0.000000
0.000000 0.000000 0.000000
0.000000 0.000000 0.000000
0.000000 0.000000 0.000000
0.000000 0.000000 0.000000
0.000000 0.000000 0.000000
0.000000 0.000000 0.000000
0.000000 0.000000 0.000000
0.000000 0.000000 0.000000
0.000000 0.000000 0.000000
0.000000 0.000000 0.000000
0.000000 0.000000 0.000000
0.000000 0.000000 0.000000
0.000000 0.000000 0.000000
0.000000 0.000000 0.000000
0.000000 0.000000 0.000000
0.000000 0.000000 0.000000
0.000000 0.000000 0.000000
0.000000 0.000000 0.000000
0.000000 0.000000 0.000000
0.000000 0.000000 0.000000
0.000000 0.000000 0.000000
0.000000 0.000000 0.000000
0.000000 0.000000 0.000000
0.000000 0.000000 0.000000
0.000000 0.000000 0.000000
0.000000 0.000000 0.000000
0.000000 0.000000 0.000000
0.000000 0.000000 0.000000
0.000000 0.000000 0.000000
0.000000 0.000000 0.000000
0.000000 0.000000 0.000000
0.000000 0.000000 0.000000
0.000000 0.000000 0.000000
0.000000 0.000000 0.000000
0.000000 0.000000 0.000000
0.000000 0.000000 0.000000
0.000000 0.000000 0.000000
0.000000 0.000000 0.000000
0.000000 0.000000 0.000000
0.000000 0.000000 0.000000
0.000000 0.000000 0.000000
0.000000 0.000000 0.000000
0.000000 0.000000 0.000000
0.000000 0.000000 0.000000
0.000000 0.000000 0.000000
0.000000 0.000000 0.000000
0.000000 0.000000 0.000000
0.000000 0.000000 0.000000
0.000000 0.000000 0.000000
0.000000 0.000000 0.000000
0.000000 0.000000 0.000000
0.000000 0.000000 0.000000
0.000000 0.000000 0.000000
0.000000 0.000000 0.000000
0.000000 0.000000 0.000000
0.000000 0.000000 0.000000
0.000000 0.000000 0.000000
0.000000 0.000000 0.000000
0.000000 0.000000 0.000000
0.000000 0.000000 0.000000
0.000000 0.000000 0.000000
0.000000 0.000000 0.000000
0.000000 0.000000 0.000000
0.000000 0.000000 0.000000
0.000000 0.000000 0.000000
0.000000 0.000000 0.000000
0.000000 0.000000 0.000000
0.000000 0.000000 0.000000
0.000000 0.000000 0.000000
0.000000 0.000000 0.000000
0.000000 0.000000 0.000000
0.000000 0.000000 0.000000
0.000000 0.000000 0.000000
0.000000 0.000000 0.000000
0.000000 0.000000 0.000000
0.000000 0.000000 0.000000
0.000000 0.000000 0.000000
0.000000 0.000000 0.000000
0.000000 0.000000 0.000000
0.000000 0.000000 0.000000
0.000000 0.000000 0.000000
0.000000 0.000000 0.000000
0.000000 0.000000 0.000000
0.000000 0.000000 0.000000
0.000000 0.000000 0.000000
0.000000 0.000000 0.000000
0.000000 0.000000 0.000000
0.000000 0.000000 0.000000
0.000000 0.000000 0.000000
0.000000 0.000000 0.000000
0.000000 0.000000 0.000000
0.000000 0.000000 0.000000
0.000000 0.000000 0.000000
0.000000 0.000000 0.000000
0.000000 0.000000 0.000000
0.000000 0.000000 0.000000
0.000000 0.000000 0.000000
0.000000 0.000000 0.000000
0.000000 0.000000 0.000000
0.000000 0.000000 0.000000
0.000000 0.000000 0.000000
0.000000 0.000000 0.000000
0.000000 0.000000 0.000000
0.000000 0.000000 0.000000
0.000000 0.000000 0.000000
0.000000 0.000000 0.000000
0.000000 0.000000 0.000000
0.000000 0.000000 0.000000
0.000000 0.000000 0.000000
0.000000 0.000000 0.000000
0.000000 0.000000 0.000000
0.000000 0.000000 0.000000
0.000000 0.000000 0.000000
0.000000 0.000000 0.000000
0.000000 0.000000 0.000000
0.000000 0.000000 0.000000
0.000000 0.000000 0.000000
0.000000 0.000000 0.000000
0.000000 0.000000 0.000000
0.000000 0.000000 -50.000000
-50.000000 0.000000 -50.000000
-43.336569 0.000000 -45.691359
-45.522743 0.000000 -43.288891
-50.000000 0.000000 -50.000000
-36.671936 0.000000 -36.578875
-50.000000 0.000000 -45.083771
-40.027782 0.000000 -40.026767
-44.193848 0.000000 -29.869080
-50.000000 0.000000 -50.000000
-30.006904 0.000000 -44.849835
-33.541240 0.000000 -33.127863
-44.716258 0.000000 -39.863392
-36.864483 0.000000 -35.119005
-39.870638 0.000000 -23.160672
-50.000000 0.000000 -26.513752
-44.705805 0.000000 -50.000000
-23.343578 0.000000 -44.666531
-26.934459 0.000000 -39.356739
-30.341379 0.000000 -29.589303
-39.430019 0.000000 -33.353786
-33.759309 0.000000 -50.000000
-16.680502 0.000000 -16.460899
-50.000000 0.000000 -9.771441
