# vtk DataFile Version 2.0
CellBP Time: 0.44
ASCII
DATASET UNSTRUCTURED_GRID
POINTS 320 double
-50.000000 -50.000000 0.000000
-50.000000 -43.333642 0.000000
-45.688151 -45.491319 0.000000
-43.333041 -50.000000 0.000000
-50.000000 -36.667457 0.000000
-36.666196 -50.000000 0.000000
-45.080875 -39.970355 0.000000
-40.026757 -44.152502 0.000000
-29.999482 -50.000000 0.000000
-50.000000 -30.001622 0.000000
-44.846891 -33.450144 0.000000
-33.144445 -44.675826 0.000000
-39.868783 -36.787789 0.000000
-35.128206 -39.801740 0.000000
-23.332889 -50.000000 0.000000
-26.538711 -44.666887 0.000000
-50.000000 -23.336446 0.000000
-44.665222 -26.806226 0.000000
-39.364048 -30.227290 0.000000
-29.605799 -39.359762 0.000000
-33.367835 -33.656413 0.000000
-50.000000 -16.672515 0.000000
-16.666386 -50.000000 0.000000
-9.999929 -50.000000 0.000000
-19.964532 -44.588919 0.000000
-23.215566 -39.115017 0.000000
-44.692040 -20.101167 0.000000
-39.367855 -23.531310 0.000000
-34.105923 -26.939163 0.000000
-26.384064 -33.577927 0.000000
-29.155846 -28.928066 0.000000
-50.000000 -10.010644 0.000000
-44.666744 -13.417900 0.000000
-50.000000 -3.352382 0.000000
-3.333474 -50.000000 0.000000
3.333009 -50.000000 0.000000
-13.343432 -44.599143 0.000000
-6.684744 -44.610763 0.000000
-16.693545 -39.153566 0.000000
-20.106832 -33.343213 0.000000
-39.338455 -16.810857 0.000000
-34.018454 -20.279025 0.000000
-28.780468 -23.451713 0.000000
-23.510166 -27.351294 0.000000
-44.636628 -6.719560 0.000000
-39.293805 -10.113448 0.000000
-50.000000 3.302233 0.000000
-44.629574 -0.039559 0.000000
9.999532 -50.000000 0.000000
16.666102 -50.000000 0.000000
-0.016369 -44.618739 0.000000
6.651129 -44.635311 0.000000
-10.044743 -39.222615 0.000000
-3.368523 -39.220283 0.000000
-13.484392 -33.798998 0.000000
-16.709868 -28.271971 0.000000
-33.947979 -13.523105 0.000000
-28.600706 -16.898101 0.000000
-23.290570 -20.315953 0.000000
-18.659826 -23.283683 0.000000
-39.269601 -3.414833 0.000000
-33.904180 -6.814975 0.000000
-50.000000 9.954788 0.000000
-44.615156 6.633556 0.000000
-39.267315 3.282960 0.000000
-50.000000 16.615553 0.000000
23.332732 -50.000000 0.000000
29.999440 -50.000000 0.000000
13.316764 -44.662742 0.000000
19.988844 -44.699839 0.000000
3.307207 -39.244819 0.000000
9.971184 -39.289819 0.000000
-6.735517 -33.791166 0.000000
-0.032936 -33.829199 0.000000
-10.096226 -28.293833 0.000000
-13.122773 -22.899607 0.000000
-28.531290 -10.227163 0.000000
-23.064608 -13.669711 0.000000
-16.975899 -17.211235 0.000000
-33.883359 -0.105619 0.000000
-28.558871 -3.602759 0.000000
-44.579561 13.325294 0.000000
-39.204855 9.941501 0.000000
-33.900556 6.529588 0.000000
-50.000000 23.321821 0.000000
-44.612888 20.083618 0.000000
-50.000000 30.066021 0.000000
36.666231 -50.000000 0.000000
43.333091 -50.000000 0.000000
26.662502 -44.744974 0.000000
33.314702 -44.875605 0.000000
16.630985 -39.357173 0.000000
23.327528 -39.436496 0.000000
6.642051 -33.878844 0.000000
13.290053 -33.964727 0.000000
-3.346030 -28.362229 0.000000
3.355936 -28.450524 0.000000
-6.626448 -22.846420 0.000000
-9.971890 -17.315753 0.000000
-23.181929 -7.029638 0.000000
-17.806618 -10.342093 0.000000
-12.835605 -12.590567 0.000000
-28.593316 3.036402 0.000000
-23.254135 -0.496511 0.000000
-39.089308 16.620984 0.000000
-28.678083 9.828064 0.000000
-33.737142 13.080119 0.000000
-44.656967 26.719496 0.000000
-38.686543 23.806143 0.000000
-44.812849 33.247824 0.000000
-50.000000 36.792911 0.000000
-50.000000 43.412987 0.000000
39.921963 -45.069267 0.000000
45.474424 -45.660161 0.000000
50.000000 -50.000000 0.000000
36.626268 -39.981422 0.000000
30.011649 -39.458002 0.000000
19.903433 -34.091930 0.000000
26.584255 -34.318629 0.000000
9.987824 -28.512728 0.000000
16.610069 -28.658782 0.000000
0.051597 -22.957876 0.000000
6.810973 -23.157720 0.000000
-3.402107 -17.297803 0.000000
-6.871847 -11.043305 0.000000
-17.871967 -3.845996 0.000000
-12.548524 -7.042729 0.000000
-23.281993 6.018251 0.000000
-18.022346 2.428529 0.000000
-23.058383 11.998569 0.000000
-33.532972 19.366720 0.000000
-27.815524 16.679035 0.000000
-32.972415 24.027108 0.000000
-39.839673 30.272677 0.000000
-35.548164 28.878496 0.000000
-39.910837 35.338657 0.000000
-44.014011 40.069041 0.000000
-45.435738 45.725877 0.000000
-50.000000 50.000000 0.000000
44.116931 -39.898440 0.000000
50.000000 -43.332982 0.000000
39.638922 -35.046690 0.000000
33.462213 -33.423718 0.000000
22.983871 -28.816834 0.000000
28.730099 -29.246807 0.000000
13.459416 -23.120752 0.000000
20.053533 -23.437427 0.000000
3.389705 -17.585456 0.000000
10.126571 -17.838802 0.000000
0.137236 -12.031289 0.000000
-2.159168 -6.278446 0.000000
-7.422945 -3.722109 0.000000
-12.638811 -0.815309 0.000000
-18.123141 8.530885 0.000000
-12.950889 5.176611 0.000000
-18.544490 13.660757 0.000000
-21.393219 17.410877 0.000000
-28.646933 22.996600 0.000000
-23.928950 21.357857 0.000000
-29.999596 28.766256 0.000000
-34.250136 33.713958 0.000000
-37.002676 39.735878 0.000000
-39.845264 45.163984 0.000000
-43.344809 50.000000 0.000000
44.584916 -32.971322 0.000000
50.000000 -36.666033 0.000000
39.128779 -29.580956 0.000000
33.499761 -26.366711 0.000000
27.181536 -23.321108 0.000000
23.064014 -18.646673 0.000000
16.987123 -16.978102 0.000000
6.712509 -12.219981 0.000000
12.348268 -12.731085 0.000000
-3.377758 -1.492043 0.000000
3.956654 -7.058064 0.000000
1.034357 -2.123317 0.000000
-7.028153 2.330393 0.000000
-8.440214 7.833564 0.000000
-12.814281 11.911428 0.000000
-15.612286 17.668461 0.000000
-19.158012 22.952691 0.000000
-24.002225 27.383532 0.000000
-27.203752 33.704183 0.000000
-30.353516 39.286827 0.000000
-33.433051 44.791216 0.000000
-36.661521 50.000000 0.000000
44.547451 -26.498998 0.000000
50.000000 -29.999139 0.000000
39.039457 -23.178401 0.000000
33.448920 -19.899078 0.000000
28.038911 -16.573678 0.000000
22.682708 -13.123560 0.000000
17.175433 -9.910766 0.000000
10.956797 -6.654350 0.000000
-1.347222 2.308951 0.000000
6.244066 -1.743341 0.000000
2.915639 1.604079 0.000000
-3.549951 7.213668 0.000000
-6.293907 12.439877 0.000000
-9.594441 17.690242 0.000000
-13.092823 23.104452 0.000000
-17.230830 28.199665 0.000000
-20.511369 33.498965 0.000000
-23.620839 39.104122 0.000000
-26.800756 44.620144 0.000000
-29.978448 50.000000 0.000000
44.528415 -19.929703 0.000000
50.000000 -23.332354 0.000000
39.035714 -16.593256 0.000000
33.575333 -13.280425 0.000000
28.149613 -9.964087 0.000000
22.724643 -6.603847 0.000000
17.262764 -3.337188 0.000000
12.038484 0.190573 0.000000
1.934412 6.312142 0.000000
7.060539 3.865220 0.000000
-0.202889 12.000643 0.000000
-3.254839 17.526749 0.000000
-6.672627 22.977770 0.000000
-10.529871 28.272843 0.000000
-13.688906 33.673215 0.000000
-16.915424 39.095334 0.000000
-20.114623 44.560691 0.000000
-23.302962 50.000000 0.000000
44.535981 -13.302934 0.000000
50.000000 -16.665726 0.000000
39.079179 -9.966031 0.000000
33.645626 -6.640357 0.000000
28.234404 -3.306929 0.000000
22.844266 0.018531 0.000000
17.532924 3.364264 0.000000
12.219072 6.599370 0.000000
6.737910 10.876814 0.000000
3.308982 17.195422 0.000000
-0.068519 22.851324 0.000000
-3.500405 28.315842 0.000000
-6.812070 33.780304 0.000000
-10.118787 39.177801 0.000000
-13.418149 44.568908 0.000000
-16.643970 50.000000 0.000000
44.554025 -6.654273 0.000000
50.000000 -9.999264 0.000000
39.122603 -3.321025 0.000000
33.712216 0.008872 0.000000
28.331896 3.343656 0.000000
23.001548 6.693561 0.000000
17.831653 10.023799 0.000000
12.656050 12.222828 0.000000
9.796567 17.235665 0.000000
6.483361 22.723311 0.000000
3.196801 28.271122 0.000000
-0.105996 33.737593 0.000000
-3.414596 39.172009 0.000000
-6.714357 44.584554 0.000000
-9.985363 50.000000 0.000000
44.575300 0.001953 0.000000
50.000000 -3.332941 0.000000
39.165989 3.331805 0.000000
33.778094 6.655302 0.000000
28.423351 9.994823 0.000000
23.045983 13.416235 0.000000
16.948612 17.021350 0.000000
12.904442 22.672020 0.000000
9.818521 28.233380 0.000000
6.609183 33.720198 0.000000
3.292396 39.166189 0.000000
-0.023337 44.585997 0.000000
-3.324524 50.000000 0.000000
44.586365 6.665100 0.000000
50.000000 3.333321 0.000000
39.197278 9.981434 0.000000
33.842556 13.276631 0.000000
28.541157 16.584525 0.000000
23.386616 20.084125 0.000000
18.532829 23.111680 0.000000
16.395431 28.299043 0.000000
13.331476 33.755405 0.000000
9.989681 39.182781 0.000000
6.669673 44.585105 0.000000
3.338570 50.000000 0.000000
44.608593 13.317119 0.000000
50.000000 9.999613 0.000000
39.250842 16.611682 0.000000
33.931358 19.862207 0.000000
28.612081 22.925502 0.000000
23.280243 27.207159 0.000000
19.902571 33.303270 0.000000
16.575450 39.041296 0.000000
13.270388 44.527132 0.000000
10.003216 50.000000 0.000000
44.631886 19.971978 0.000000
50.000000 16.666022 0.000000
39.298222 23.261240 0.000000
34.043649 26.513983 0.000000
28.965884 28.538961 0.000000
26.202885 33.409776 0.000000
23.067634 38.968762 0.000000
19.889742 44.507132 0.000000
16.668747 50.000000 0.000000
44.639690 26.641907 0.000000
50.000000 23.332586 0.000000
39.293291 29.965833 0.000000
33.212523 33.370633 0.000000
29.412565 39.045486 0.000000
26.423072 44.505831 0.000000
23.334743 50.000000 0.000000
44.774919 33.290946 0.000000
50.000000 29.999300 0.000000
39.738277 36.595639 0.000000
34.831294 39.525069 0.000000
32.834222 44.513956 0.000000
30.000949 50.000000 0.000000
44.978244 39.877246 0.000000
50.000000 36.666126 0.000000
39.734972 43.968597 0.000000
36.667253 50.000000 0.000000
45.621287 45.409411 0.000000
50.000000 43.333029 0.000000
43.333611 50.000000 0.000000
50.000000 50.000000 0.000000
CELLS 578 2312
3 1 0 2
3 0 3 2
3 4 1 6
3 6 1 2
3 3 5 7
3 3 7 2
3 6 2 7
3 9 4 10
3 10 4 6
3 5 8 11
3 7 5 11
3 10 6 12
3 12 6 7
3 7 11 13
3 7 13 12
3 8 14 15
3 11 8 15
3 16 9 17
3 17 9 10
3 17 10 18
3 18 10 12
3 11 15 19
3 13 11 19
3 18 12 20
3 13 19 20
3 20 12 13
3 14 22 24
3 15 14 24
3 15 24 25
3 19 15 25
3 21 16 26
3 26 16 17
3 26 17 27
3 27 17 18
3 27 18 28
3 28 18 20
3 19 25 29
3 19 29 20
3 28 20 30
3 30 20 29
3 31 21 32
3 32 21 26
3 22 23 36
3 24 22 36
3 23 34 37
3 36 23 37
3 24 36 38
3 25 24 38
3 25 38 39
3 29 25 39
3 32 26 40
3 40 26 27
3 40 27 41
3 41 27 28
3 41 28 42
3 42 28 30
3 29 39 43
3 29 43 30
3 42 30 43
3 33 31 44
3 44 31 32
3 44 32 45
3 45 32 40
3 46 33 47
3 47 33 44
3 34 35 50
3 37 34 50
3 35 48 51
3 50 35 51
3 36 37 52
3 38 36 52
3 37 50 53
3 52 37 53
3 38 52 54
3 39 38 54
3 39 54 55
3 43 39 55
3 45 40 56
3 56 40 41
3 56 41 57
3 57 41 42
3 57 42 58
3 58 42 43
3 43 55 59
3 43 59 58
3 47 44 60
3 60 44 45
3 60 45 61
3 61 45 56
3 62 46 63
3 63 46 47
3 63 47 64
3 64 47 60
3 48 49 68
3 51 48 68
3 49 66 69
3 68 49 69
3 50 51 70
3 53 50 70
3 51 68 71
3 70 51 71
3 52 53 72
3 54 52 72
3 53 70 73
3 72 53 73
3 54 72 74
3 55 54 74
3 55 74 75
3 59 55 75
3 61 56 76
3 76 56 57
3 76 57 77
3 77 57 58
3 77 58 78
3 59 75 78
3 78 58 59
3 64 60 79
3 79 60 61
3 79 61 80
3 80 61 76
3 65 62 81
3 81 62 63
3 81 63 82
3 82 63 64
3 82 64 83
3 83 64 79
3 84 65 85
3 85 65 81
3 66 67 89
3 69 66 89
3 67 87 90
3 89 67 90
3 68 69 91
3 71 68 91
3 69 89 92
3 91 69 92
3 70 71 93
3 73 70 93
3 71 91 94
3 93 71 94
3 72 73 95
3 74 72 95
3 73 93 96
3 95 73 96
3 74 95 97
3 75 74 97
3 75 97 98
3 78 75 98
3 80 76 99
3 99 76 77
3 99 77 100
3 100 77 78
3 100 78 101
3 98 101 78
3 83 79 102
3 102 79 80
3 102 80 103
3 103 80 99
3 85 81 104
3 104 81 82
3 105 83 102
3 104 82 106
3 106 82 83
3 106 83 105
3 86 84 107
3 107 84 85
3 107 85 108
3 108 85 104
3 109 86 107
3 110 86 109
3 87 88 112
3 90 87 112
3 112 88 113
3 88 114 113
3 90 112 115
3 89 90 116
3 92 89 116
3 116 90 115
3 91 92 117
3 94 91 117
3 92 116 118
3 117 92 118
3 93 94 119
3 96 93 119
3 94 117 120
3 119 94 120
3 95 96 121
3 97 95 121
3 96 119 122
3 121 96 122
3 97 121 123
3 98 97 123
3 98 123 124
3 98 124 101
3 103 99 125
3 125 99 100
3 125 100 126
3 126 100 101
3 126 101 124
3 105 102 127
3 127 102 103
3 127 103 128
3 128 103 125
3 129 105 127
3 108 104 130
3 130 104 106
3 130 106 131
3 131 106 105
3 131 105 129
3 108 130 132
3 109 107 133
3 133 107 108
3 133 108 134
3 108 132 134
3 135 109 133
3 111 110 136
3 136 110 109
3 136 109 135
3 137 111 136
3 138 111 137
3 112 113 139
3 115 112 139
3 114 140 113
3 140 139 113
3 139 141 115
3 116 115 142
3 118 116 142
3 142 115 141
3 117 118 143
3 120 117 143
3 118 142 144
3 143 118 144
3 119 120 145
3 122 119 145
3 120 143 146
3 145 120 146
3 121 122 147
3 123 121 147
3 122 145 148
3 147 122 148
3 123 147 149
3 124 123 149
3 124 149 150
3 151 126 124
3 124 150 151
3 128 125 152
3 152 125 126
3 152 126 151
3 129 127 153
3 153 127 128
3 128 152 154
3 153 128 154
3 155 129 153
3 131 129 156
3 156 129 155
3 132 130 157
3 130 131 157
3 157 131 158
3 131 156 158
3 132 157 159
3 132 159 134
3 135 133 160
3 160 133 134
3 160 134 159
3 136 135 161
3 135 160 161
3 162 137 136
3 161 162 136
3 163 138 137
3 162 163 137
3 139 164 141
3 140 165 139
3 139 165 164
3 141 164 166
3 141 166 142
3 166 167 142
3 144 142 167
3 167 168 144
3 143 144 168
3 146 143 168
3 168 169 146
3 145 146 170
3 148 145 170
3 170 146 169
3 147 148 171
3 149 147 171
3 148 170 172
3 171 148 172
3 173 151 150
3 149 171 174
3 150 149 174
3 150 174 175
3 150 175 173
3 154 152 176
3 152 151 176
3 176 151 173
3 154 176 177
3 155 153 178
3 177 178 154
3 154 178 153
3 156 155 179
3 155 178 179
3 180 158 156
3 179 180 156
3 181 159 157
3 180 181 158
3 181 157 158
3 182 160 159
3 181 182 159
3 183 161 160
3 182 183 160
3 184 162 161
3 184 161 183
3 185 163 162
3 184 185 162
3 164 186 166
3 165 187 164
3 164 187 186
3 166 186 188
3 166 188 167
3 167 188 189
3 167 189 168
3 168 189 190
3 168 190 169
3 169 190 191
3 169 191 170
3 192 172 170
3 170 191 192
3 192 193 172
3 171 172 193
3 174 171 193
3 194 173 175
3 176 173 194
3 175 174 195
3 193 195 174
3 195 196 175
3 175 196 194
3 197 177 176
3 194 197 176
3 198 178 177
3 197 198 177
3 199 179 178
3 198 199 178
3 200 180 179
3 199 200 179
3 201 181 180
3 200 201 180
3 202 182 181
3 201 202 181
3 203 183 182
3 202 203 182
3 204 184 183
3 203 204 183
3 205 185 184
3 204 205 184
3 186 206 188
3 187 207 186
3 186 207 206
3 188 206 208
3 188 208 189
3 189 208 209
3 189 209 190
3 190 209 210
3 190 210 191
3 191 210 211
3 191 211 192
3 192 211 212
3 192 212 193
3 193 212 213
3 193 213 195
3 214 197 194
3 214 194 196
3 195 213 215
3 195 215 196
3 196 215 214
3 216 198 197
3 214 216 197
3 217 199 198
3 216 217 198
3 218 200 199
3 217 218 199
3 219 201 200
3 218 219 200
3 220 202 201
3 219 220 201
3 221 203 202
3 220 221 202
3 222 204 203
3 221 222 203
3 223 205 204
3 222 223 204
3 206 224 208
3 207 225 206
3 206 225 224
3 208 224 226
3 208 226 209
3 209 226 227
3 209 227 210
3 210 227 228
3 210 228 211
3 211 228 229
3 211 229 212
3 212 229 230
3 212 230 213
3 213 230 231
3 213 231 215
3 232 216 214
3 215 231 232
3 232 214 215
3 233 217 216
3 232 233 216
3 234 218 217
3 233 234 217
3 235 219 218
3 234 235 218
3 236 220 219
3 235 236 219
3 237 221 220
3 236 237 220
3 238 222 221
3 237 238 221
3 239 223 222
3 238 239 222
3 224 240 226
3 225 241 224
3 224 241 240
3 226 240 242
3 226 242 227
3 227 242 243
3 227 243 228
3 228 243 244
3 228 244 229
3 244 245 229
3 229 245 230
3 230 245 246
3 230 246 231
3 231 246 247
3 231 247 232
3 248 233 232
3 248 232 247
3 249 234 233
3 248 249 233
3 250 235 234
3 249 250 234
3 251 236 235
3 250 251 235
3 252 237 236
3 251 252 236
3 253 238 237
3 252 253 237
3 254 239 238
3 253 254 238
3 240 255 242
3 241 256 240
3 240 256 255
3 242 255 257
3 242 257 243
3 243 257 258
3 243 258 244
3 244 258 259
3 244 259 245
3 245 259 260
3 245 260 246
3 246 260 261
3 246 261 247
3 248 247 261
3 262 249 248
3 261 262 248
3 263 250 249
3 262 263 249
3 264 251 250
3 263 264 250
3 265 252 251
3 264 265 251
3 266 253 252
3 265 266 252
3 267 254 253
3 266 267 253
3 255 268 257
3 256 269 255
3 255 269 268
3 257 268 270
3 257 270 258
3 258 270 271
3 258 271 259
3 259 271 272
3 259 272 260
3 260 272 273
3 260 273 261
3 274 262 261
3 261 273 274
3 275 263 262
3 274 275 262
3 276 264 263
3 275 276 263
3 277 265 264
3 276 277 264
3 278 266 265
3 277 278 265
3 279 267 266
3 278 279 266
3 268 280 270
3 269 281 268
3 268 281 280
3 270 280 282
3 270 282 271
3 271 282 283
3 271 283 272
3 283 284 272
3 272 284 273
3 285 275 274
3 273 284 285
3 285 274 273
3 286 276 275
3 285 286 275
3 287 277 276
3 286 287 276
3 288 278 277
3 287 288 277
3 289 279 278
3 288 289 278
3 280 290 282
3 281 291 280
3 280 291 290
3 282 290 292
3 282 292 283
3 283 292 293
3 283 293 284
3 284 293 294
3 284 294 285
3 295 286 285
3 295 285 294
3 296 287 286
3 295 296 286
3 297 288 287
3 296 297 287
3 298 289 288
3 297 298 288
3 290 299 292
3 291 300 290
3 290 300 299
3 292 299 301
3 292 301 293
3 293 301 302
3 293 302 294
3 294 302 295
3 303 296 295
3 303 295 302
3 304 297 296
3 303 304 296
3 305 298 297
3 304 305 297
3 299 306 301
3 300 307 299
3 299 307 306
3 301 306 308
3 301 308 302
3 309 303 302
3 302 308 309
3 310 304 303
3 309 310 303
3 311 305 304
3 310 311 304
3 306 312 308
3 307 313 306
3 306 313 312
3 314 310 309
3 308 312 314
3 314 309 308
3 315 311 310
3 314 315 310
3 312 316 314
3 313 317 312
3 312 317 316
3 318 315 314
3 318 314 316
3 317 319 316
3 319 318 316
CELL_TYPES 578
5
5
5
5
5
5
5
5
5
5
5
5
5
5
5
5
5
5
5
5
5
5
5
5
5
5
5
5
5
5
5
5
5
5
5
5
5
5
5
5
5
5
5
5
5
5
5
5
5
5
5
5
5
5
5
5
5
5
5
5
5
5
5
5
5
5
5
5
5
5
5
5
5
5
5
5
5
5
5
5
5
5
5
5
5
5
5
5
5
5
5
5
5
5
5
5
5
5
5
5
5
5
5
5
5
5
5
5
5
5
5
5
5
5
5
5
5
5
5
5
5
5
5
5
5
5
5
5
5
5
5
5
5
5
5
5
5
5
5
5
5
5
5
5
5
5
5
5
5
5
5
5
5
5
5
5
5
5
5
5
5
5
5
5
5
5
5
5
5
5
5
5
5
5
5
5
5
5
5
5
5
5
5
5
5
5
5
5
5
5
5
5
5
5
5
5
5
5
5
5
5
5
5
5
5
5
5
5
5
5
5
5
5
5
5
5
5
5
5
5
5
5
5
5
5
5
5
5
5
5
5
5
5
5
5
5
5
5
5
5
5
5
5
5
5
5
5
5
5
5
5
5
5
5
5
5
5
5
5
5
5
5
5
5
5
5
5
5
5
5
5
5
5
5
5
5
5
5
5
5
5
5
5
5
5
5
5
5
5
5
5
5
5
5
5
5
5
5
5
5
5
5
5
5
5
5
5
5
5
5
5
5
5
5
5
5
5
5
5
5
5
5
5
5
5
5
5
5
5
5
5
5
5
5
5
5
5
5
5
5
5
5
5
5
5
5
5
5
5
5
5
5
5
5
5
5
5
5
5
5
5
5
5
5
5
5
5
5
5
5
5
5
5
5
5
5
5
5
5
5
5
5
5
5
5
5
5
5
5
5
5
5
5
5
5
5
5
5
5
5
5
5
5
5
5
5
5
5
5
5
5
5
5
5
5
5
5
5
5
5
5
5
5
5
5
5
5
5
5
5
5
5
5
5
5
5
5
5
5
5
5
5
5
5
5
5
5
5
5
5
5
5
5
5
5
5
5
5
5
5
5
5
5
5
5
5
5
5
5
5
5
5
5
5
5
5
5
5
5
5
5
5
5
5
5
5
5
5
5
5
5
5
5
5
5
5
5
5
5
5
5
5
5
5
5
5
5
5
5
5
5
5
5
5
5
5
5
5
5
5
5
5
5
5
5
5
5
5
5
5
5
5
5
5
5
5
5
5
5
5
5
5
5
5
5
5
5
5
5
5
5
5
5
5
5
5
5
5
5
5
5
5
5
5
5
5
5
5
5
5
5
5
5
5
5
5
5
5
POINT_DATA 320
SCALARS theta_e float 1
LOOKUP_TABLE default
0.999973
0.999952
0.999964
0.999966
0.999899
0.999953
0.999929
0.999946
0.999944
0.999799
0.999856
0.999941
0.999898
0.999920
0.999943
0.999938
0.999615
0.999725
0.999807
0.999917
0.999867
0.999297
0.999951
0.999968
0.999945
0.999928
0.999486
0.999633
0.999743
0.999887
0.999815
0.998675
0.999034
0.997791
0.999988
1.000009
0.999960
0.999981
0.999947
0.999907
0.999291
0.999501
0.999658
0.999796
0.998286
0.998671
0.995988
0.996752
1.000027
1.000043
1.000002
1.000021
0.999973
0.999998
0.999939
0.999857
0.999001
0.999306
0.999552
0.999703
0.997308
0.997952
0.993978
0.995082
0.995637
0.991758
1.000055
1.000063
1.000036
1.000048
1.000019
1.000034
0.999970
1.000001
0.999894
0.999745
0.998650
0.999088
0.999476
0.996112
0.997041
0.990271
0.989155
0.990091
0.984028
0.980915
0.975431
1.000069
1.000072
1.000058
1.000065
1.000044
1.000051
1.000026
1.000043
0.999938
0.999979
0.999820
0.999663
0.998349
0.998978
0.999398
0.995368
0.996356
0.988206
0.984680
0.989002
0.982401
0.966110
0.985627
0.975248
0.987257
1.000069
1.000071
1.000073
1.000064
1.000057
1.000049
1.000051
1.000016
1.000039
0.999882
0.999935
0.999766
0.999481
0.998082
0.999053
0.994191
0.996886
0.989160
0.941133
0.986758
0.933033
0.935236
0.948367
0.987340
0.978318
0.987440
0.985635
1.000068
1.000071
1.000063
1.000055
1.000048
1.000050
0.999981
1.000018
0.999847
0.999901
0.999711
0.999523
0.999088
0.998050
0.992070
0.997418
0.996499
0.971490
0.939367
0.982737
0.965424
0.953263
0.982437
0.986859
0.987620
1.000063
1.000067
1.000056
1.000050
1.000040
0.999999
0.999949
0.999819
0.999888
0.999117
0.999778
0.999406
0.998149
0.997742
0.993049
0.995467
0.977152
0.982316
0.980713
0.990652
0.987879
0.989678
1.000057
1.000062
1.000050
1.000040
1.000010
0.999956
0.999915
0.999844
0.999033
0.999714
0.999325
0.998229
0.997966
0.994633
0.995011
0.993045
0.990569
0.992412
0.990417
0.992413
1.000050
1.000056
1.000040
1.000020
0.999973
0.999932
0.999876
0.999748
0.999328
0.999566
0.998557
0.998053
0.996358
0.995275
0.995138
0.995620
0.994963
0.994752
1.000042
1.000049
1.000029
0.999996
0.999947
0.999914
0.999829
0.999630
0.999362
0.998912
0.998468
0.998036
0.997717
0.997449
0.997043
0.996433
1.000034
1.000041
1.000017
0.999976
0.999933
0.999892
0.999805
0.999632
0.999475
0.999207
0.998927
0.998678
0.998496
0.998275
0.997887
1.000026
1.000034
1.000007
0.999965
0.999924
0.999873
0.999745
0.999604
0.999478
0.999344
0.999202
0.999023
0.998736
1.000019
1.000026
1.000000
0.999964
0.999923
0.999865
0.999784
0.999725
0.999650
0.999563
0.999451
0.999277
1.000014
1.000020
0.999997
0.999969
0.999926
0.999863
0.999827
0.999780
0.999712
0.999608
1.000010
1.000015
0.999997
0.999975
0.999940
0.999919
0.999892
0.999855
0.999796
1.000008
1.000011
0.999997
0.999975
0.999955
0.999936
0.999904
1.000009
1.000011
1.000001
0.999988
0.999980
0.999963
1.000013
1.000014
1.000005
0.999996
1.000018
1.000019
1.000014
1.000022
VECTORS fa_u float
0.000000 0.000000 0.000000
0.000000 0.000000 0.000000
0.000000 0.000000 0.000000
0.000000 0.000000 0.000000
0.000000 0.000000 0.000000
0.000000 0.000000 0.000000
0.000000 0.000000 0.000000
0.000000 0.000000 0.000000
0.000000 0.000000 0.000000
0.000000 0.000000 0.000000
0.000000 0.000000 0.000000
0.000000 0.000000 0.000000
0.000000 0.000000 0.000000
0.000000 0.000000 0.000000
0.000000 0.000000 0.000000
0.000000 0.000000 0.000000
0.000000 0.000000 0.000000
0.000000 0.000000 0.000000
0.000000 0.000000 0.000000
0.000000 0.000000 0.000000
0.000000 0.000000 0.000000
0.000000 0.000000 0.000000
0.000000 0.000000 0.000000
0.000000 0.000000 0.000000
0.000000 0.000000 0.000000
0.000000 0.000000 0.000000
0.000000 0.000000 0.000000
0.000000 0.000000 0.000000
0.000000 0.000000 0.000000
0.000000 0.000000 0.000000
0.000000 0.000000 0.000000
0.000000 0.000000 0.000000
0.000000 0.000000 0.000000
0.000000 0.000000 0.000000
0.000000 0.000000 0.000000
0.000000 0.000000 0.000000
0.000000 0.000000 0.000000
0.000000 0.000000 0.000000
0.000000 0.000000 0.000000
0.000000 0.000000 0.000000
0.000000 0.000000 0.000000
0.000000 0.000000 0.000000
0.000000 0.000000 0.000000
0.000000 0.000000 0.000000
0.000000 0.000000 0.000000
0.000000 0.000000 0.000000
0.000000 0.000000 0.000000
0.000000 0.000000 0.000000
0.000000 0.000000 0.000000
0.000000 0.000000 0.000000
0.000000 0.000000 0.000000
0.000000 0.000000 0.000000
0.000000 0.000000 0.000000
0.000000 0.000000 0.000000
0.000000 0.000000 0.000000
0.000000 0.000000 0.000000
0.000000 0.000000 0.000000
0.000000 0.000000 0.000000
0.000000 0.000000 0.000000
0.000000 0.000000 0.000000
0.000000 0.000000 0.000000
0.000000 0.000000 0.000000
0.000000 0.000000 0.000000
0.000000 0.000000 0.000000
0.000000 0.000000 0.000000
0.000000 0.000000 0.000000
0.000000 0.000000 0.000000
0.000000 0.000000 0.000000
0.000000 0.000000 0.000000
0.000000 0.000000 0.000000
0.000000 0.000000 0.000000
0.000000 0.000000 0.000000
0.000000 0.000000 0.000000
0.000000 0.000000 0.000000
0.000000 0.000000 0.000000
0.000000 0.000000 0.000000
0.000000 0.000000 0.000000
0.000000 0.000000 0.000000
0.000000 0.000000 0.000000
0.000000 0.000000 0.000000
0.000000 0.000000 0.000000
0.000000 0.000000 0.000000
0.000000 0.000000 0.000000
0.000000 0.000000 0.000000
0.000000 0.000000 0.000000
0.000000 0.000000 0.000000
0.000000 0.000000 0.000000
0.000000 0.000000 0.000000
0.000000 0.000000 0.000000
0.000000 0.000000 0.000000
0.000000 0.000000 0.000000
0.000000 0.000000 0.000000
0.000000 0.000000 0.000000
0.000000 0.000000 0.000000
0.000000 0.000000 0.000000
0.000000 0.000000 0.000000
0.000000 0.000000 0.000000
0.000000 0.000000 0.000000
0.000000 0.000000 0.000000
0.000000 0.000000 0.000000
0.000000 0.000000 0.000000
0.000000 0.000000 0.000000
0.000000 0.000000 0.000000
0.000000 0.000000 0.000000
0.000000 0.000000 0.000000
0.000000 0.000000 0.000000
0.000000 0.000000 0.000000
0.000000 0.000000 0.000000
0.000000 0.000000 0.000000
0.000000 0.000000 0.000000
0.000000 0.000000 0.000000
0.000000 0.000000 0.000000
0.000000 0.000000 0.000000
0.000000 0.000000 0.000000
0.000000 0.000000 0.000000
0.000000 0.000000 0.000000
0.000000 0.000000 0.000000
0.000000 0.000000 0.000000
0.000000 0.000000 0.000000
0.000000 0.000000 0.000000
0.000000 0.000000 0.000000
0.000000 0.000000 0.000000
0.000000 0.000000 0.000000
0.000000 0.000000 0.000000
0.000000 0.000000 0.000000
0.000000 0.000000 0.000000
0.000000 0.000000 0.000000
0.000000 0.000000 0.000000
0.000000 0.000000 0.000000
0.000000 0.000000 0.000000
0.000000 0.000000 0.000000
0.000000 0.000000 0.000000
0.000000 0.000000 0.000000
0.000000 0.000000 0.000000
0.000000 0.000000 0.000000
0.000000 0.000000 0.000000
0.000000 0.000000 0.000000
0.000000 0.000000 0.000000
0.000000 0.000000 0.000000
0.000000 0.000000 0.000000
0.000000 0.000000 0.000000
0.000000 0.000000 0.000000
0.000000 0.000000 0.000000
0.000000 0.000000 0.000000
0.000000 0.000000 0.000000
0.000000 0.000000 0.000000
0.000000 0.000000 0.000000
0.000000 0.000000 0.000000
0.000000 0.000000 0.000000
0.000000 0.000000 0.000000
0.000000 0.000000 0.000000
0.000000 0.000000 0.000000
0.000000 0.000000 0.000000
0.000000 0.000000 0.000000
0.000000 0.000000 0.000000
0.000000 0.000000 0.000000
0.000000 0.000000 0.000000
0.000000 0.000000 0.000000
0.000000 0.000000 0.000000
0.000000 0.000000 0.000000
0.000000 0.000000 0.000000
0.000000 0.000000 0.000000
0.000000 0.000000 0.000000
0.000000 0.000000 0.000000
0.000000 0.000000 0.000000
0.000000 0.000000 0.000000
0.000000 0.000000 0.000000
0.000000 0.000000 0.000000
0.000000 0.000000 0.000000
0.000000 0.000000 0.000000
0.000000 0.000000 0.000000
0.000000 0.000000 0.000000
0.000000 0.000000 0.000000
0.000000 0.000000 0.000000
0.000000 0.000000 0.000000
0.000000 0.000000 0.000000
0.000000 0.000000 0.000000
0.000000 0.000000 0.000000
0.000000 0.000000 0.000000
0.000000 0.000000 0.000000
0.000000 0.000000 0.000000
0.000000 0.000000 0.000000
0.000000 0.000000 0.000000
0.000000 0.000000 0.000000
0.000000 0.000000 0.000000
0.000000 0.000000 0.000000
0.000000 0.000000 0.000000
0.000000 0.000000 0.000000
0.000000 0.000000 0.000000
0.000000 0.000000 0.000000
0.000000 0.000000 0.000000
0.000000 0.000000 0.000000
0.000000 0.000000 0.000000
0.000000 0.000000 0.000000
0.000000 0.000000 0.000000
0.000000 0.000000 0.000000
0.000000 0.000000 0.000000
0.000000 0.000000 0.000000
0.000000 0.000000 0.000000
0.000000 0.000000 0.000000
0.000000 0.000000 0.000000
0.000000 0.000000 0.000000
0.000000 0.000000 0.000000
0.000000 0.000000 0.000000
0.000000 0.000000 0.000000
0.000000 0.000000 0.000000
0.000000 0.000000 0.000000
0.000000 0.000000 0.000000
0.000000 0.000000 0.000000
0.000000 0.000000 0.000000
0.000000 0.000000 0.000000
0.000000 0.000000 0.000000
0.000000 0.000000 0.000000
0.000000 0.000000 0.000000
0.000000 0.000000 0.000000
0.000000 0.000000 0.000000
0.000000 0.000000 0.000000
0.000000 0.000000 0.000000
0.000000 0.000000 0.000000
0.000000 0.000000 0.000000
0.000000 0.000000 0.000000
0.000000 0.000000 0.000000
0.000000 0.000000 0.000000
0.000000 0.000000 0.000000
0.000000 0.000000 0.000000
0.000000 0.000000 0.000000
0.000000 0.000000 0.000000
0.000000 0.000000 0.000000
0.000000 0.000000 0.000000
0.000000 0.000000 0.000000
0.000000 0.000000 0.000000
0.000000 0.000000 0.000000
0.000000 0.000000 0.000000
0.000000 0.000000 0.000000
0.000000 0.000000 0.000000
0.000000 0.000000 0.000000
0.000000 0.000000 0.000000
0.000000 0.000000 0.000000
0.000000 0.000000 0.000000
0.000000 0.000000 0.000000
0.000000 0.000000 0.000000
0.000000 0.000000 0.000000
0.000000 0.000000 0.000000
0.000000 0.000000 0.000000
0.000000 0.000000 0.000000
0.000000 0.000000 0.000000
0.000000 0.000000 0.000000
0.000000 0.000000 0.000000
0.000000 0.000000 0.000000
0.000000 0.000000 0.000000
0.000000 0.000000 0.000000
0.000000 0.000000 0.000000
0.000000 0.000000 0.000000
0.000000 0.000000 0.000000
0.000000 0.000000 0.000000
0.000000 0.000000 0.000000
0.000000 0.000000 0.000000
0.000000 0.000000 0.000000
0.000000 0.000000 0.000000
0.000000 0.000000 0.000000
0.000000 0.000000 0.000000
0.000000 0.000000 0.000000
0.000000 0.000000 0.000000
0.000000 0.000000 0.000000
0.000000 0.000000 0.000000
0.000000 0.000000 0.000000
0.000000 0.000000 0.000000
0.000000 0.000000 0.000000
0.000000 0.000000 0.000000
0.000000 0.000000 0.000000
0.000000 0.000000 0.000000
0.000000 0.000000 0.000000
0.000000 0.000000 0.000000
0.000000 0.000000 0.000000
0.000000 0.000000 0.000000
0.000000 0.000000 0.000000
0.000000 0.000000 0.000000
0.000000 0.000000 0.000000
0.000000 0.000000 0.000000
0.000000 0.000000 0.000000
0.000000 0.000000 0.000000
0.000000 0.000000 0.000000
0.000000 0.000000 0.000000
0.000000 0.000000 0.000000
0.000000 0.000000 0.000000
0.000000 0.000000 0.000000
0.000000 0.000000 0.000000
0.000000 0.000000 0.000000
0.000000 0.000000 0.000000
0.000000 0.000000 0.000000
0.000000 0.000000 0.000000
0.000000 0.000000 0.000000
0.000000 0.000000 0.000000
0.000000 0.000000 0.000000
0.000000 0.000000 0.000000
0.000000 0.000000 0.000000
0.000000 0.000000 -50.000000
-50.000000 0.000000 -50.000000
-43.333642 0.000000 -45.688151
-45.491319 0.000000 -43.333041
-50.000000 0.000000 -50.000000
-36.667457 0.000000 -36.666196
-50.000000 0.000000 -45.080875
-39.970355 0.000000 -40.026757
-44.152502 0.000000 -29.999482
-50.000000 0.000000 -50.000000
-30.001622 0.000000 -44.846891
-33.450144 0.000000 -33.144445
-44.675826 0.000000 -39.868783
-36.787789 0.000000 -35.128206
-39.801740 0.000000 -23.332889
-50.000000 0.000000 -26.538711
-44.666887 0.000000 -50.000000
-23.336446 0.000000 -44.665222
-26.806226 0.000000 -39.364048
-30.227290 0.000000 -29.605799
-39.359762 0.000000 -33.367835
-33.656413 0.000000 -50.000000
-16.672515 0.000000 -16.666386
-50.000000 0.000000 -9.999929
