# vtk DataFile Version 2.0
CellBP Time: 2.68
ASCII
DATASET UNSTRUCTURED_GRID
POINTS 320 double
-50.000000 -50.000000 0.000000
-50.000000 -43.333060 0.000000
-45.693071 -45.520376 0.000000
-43.291609 -50.000000 0.000000
-50.000000 -36.665148 0.000000
-36.583609 -50.000000 0.000000
-45.085578 -40.022653 0.000000
-40.030402 -44.190994 0.000000
-29.875519 -50.000000 0.000000
-50.000000 -29.997242 0.000000
-44.851428 -33.533201 0.000000
-33.133451 -44.713996 0.000000
-39.866595 -36.858267 0.000000
-35.123760 -39.866144 0.000000
-23.168152 -50.000000 0.000000
-26.520673 -44.703840 0.000000
-50.000000 -23.331542 0.000000
-44.667949 -26.923882 0.000000
-39.359667 -30.332560 0.000000
-29.595452 -39.425927 0.000000
-33.358455 -33.752563 0.000000
-50.000000 -16.666832 0.000000
-16.468744 -50.000000 0.000000
-9.779028 -50.000000 0.000000
-19.941262 -44.622818 0.000000
-23.193857 -39.180925 0.000000
-44.693071 -20.251618 0.000000
-39.360598 -23.670186 0.000000
-34.088192 -27.069706 0.000000
-26.365812 -33.677978 0.000000
-29.131021 -29.054730 0.000000
-50.000000 -10.005512 0.000000
-44.664847 -13.600766 0.000000
-50.000000 -3.350103 0.000000
-3.098266 -50.000000 0.000000
3.570552 -50.000000 0.000000
-13.315001 -44.628943 0.000000
-6.650688 -44.638461 0.000000
-16.660389 -39.212861 0.000000
-20.074074 -33.441626 0.000000
-39.326688 -16.983891 0.000000
-33.999764 -20.445918 0.000000
-28.750045 -23.613424 0.000000
-23.469603 -27.496671 0.000000
-44.627701 -6.933858 0.000000
-39.269388 -10.325643 0.000000
-50.000000 3.306581 0.000000
-44.611241 -0.281352 0.000000
10.225806 -50.000000 0.000000
16.869189 -50.000000 0.000000
0.022908 -44.642136 0.000000
6.693371 -44.652404 0.000000
-10.000112 -39.279691 0.000000
-3.316435 -39.273681 0.000000
-13.435353 -33.889260 0.000000
-16.650704 -28.409495 0.000000
-33.911064 -13.737790 0.000000
-28.554593 -17.106181 0.000000
-23.235648 -20.512571 0.000000
-18.597695 -23.462029 0.000000
-39.227798 -3.668139 0.000000
-33.839760 -7.088718 0.000000
-50.000000 9.995700 0.000000
-44.593705 6.373386 0.000000
-39.204907 2.993259 0.000000
-50.000000 16.753728 0.000000
23.504406 -50.000000 0.000000
30.133424 -50.000000 0.000000
13.358920 -44.673583 0.000000
20.027645 -44.705965 0.000000
3.362920 -39.288971 0.000000
10.026625 -39.322944 0.000000
-6.672970 -33.876512 0.000000
0.033556 -33.903221 0.000000
-10.018792 -28.418727 0.000000
-13.043253 -23.073273 0.000000
-28.448709 -10.495164 0.000000
-22.974707 -13.922340 0.000000
-16.886928 -17.432747 0.000000
-33.782594 -0.449230 0.000000
-28.430814 -3.939617 0.000000
-44.557409 13.064269 0.000000
-39.141635 9.621502 0.000000
-33.746470 6.085815 0.000000
-50.000000 23.613694 0.000000
-44.602924 19.856677 0.000000
-50.000000 30.567592 0.000000
36.755673 -50.000000 0.000000
43.377838 -50.000000 0.000000
26.694690 -44.746101 0.000000
33.339059 -44.871012 0.000000
16.681508 -39.379825 0.000000
23.368257 -39.450448 0.000000
6.708420 -33.937523 0.000000
13.351080 -34.006022 0.000000
-3.262653 -28.468164 0.000000
3.438523 -28.539293 0.000000
-6.529776 -22.994275 0.000000
-9.867715 -17.516198 0.000000
-23.038798 -7.347871 0.000000
-17.664737 -10.616949 0.000000
-12.701711 -12.836217 0.000000
-28.392245 2.623080 0.000000
-23.044869 -0.894107 0.000000
-39.006808 16.310199 0.000000
-28.361664 9.316905 0.000000
-33.533995 12.488608 0.000000
-44.746518 26.622034 0.000000
-38.725352 23.664071 0.000000
-44.994233 33.417642 0.000000
-50.000000 37.509394 0.000000
-50.000000 43.864680 0.000000
39.934241 -45.065188 0.000000
45.472734 -45.654734 0.000000
50.000000 -50.000000 0.000000
36.645837 -39.983925 0.000000
30.040317 -39.465171 0.000000
19.953713 -34.118521 0.000000
26.622941 -34.335835 0.000000
10.063049 -28.577740 0.000000
16.673143 -28.701367 0.000000
0.155230 -23.078780 0.000000
6.904915 -23.249263 0.000000
-3.277852 -17.468222 0.000000
-6.712488 -11.290040 0.000000
-17.658015 -4.185211 0.000000
-12.343504 -7.330977 0.000000
-22.978924 5.543441 0.000000
-17.740694 2.025224 0.000000
-22.647763 11.481951 0.000000
-33.329521 18.514929 0.000000
-27.413705 16.127751 0.000000
-33.050133 23.850283 0.000000
-40.311053 30.549197 0.000000
-35.416167 28.971686 0.000000
-39.926913 35.515096 0.000000
-43.922796 40.180105 0.000000
-45.276705 45.770793 0.000000
-50.000000 50.000000 0.000000
44.119076 -39.894928 0.000000
50.000000 -43.379921 0.000000
39.649189 -35.051530 0.000000
33.487489 -33.435090 0.000000
23.034264 -28.849006 0.000000
28.769151 -29.267891 0.000000
13.537355 -23.184097 0.000000
20.118656 -23.484329 0.000000
3.510919 -17.707031 0.000000
10.224337 -17.917904 0.000000
0.284407 -12.204459 0.000000
-1.966924 -6.500380 0.000000
-7.184802 -3.995734 0.000000
-12.367347 -1.140777 0.000000
-17.750106 8.059245 0.000000
-12.638165 4.845458 0.000000
-18.022160 13.165468 0.000000
-20.775785 16.828901 0.000000
-28.038075 22.528025 0.000000
-23.360656 21.016205 0.000000
-29.749963 28.665860 0.000000
-34.163845 34.098822 0.000000
-36.872299 39.952748 0.000000
-39.637927 45.271763 0.000000
-43.407037 50.000000 0.000000
44.585922 -32.978010 0.000000
50.000000 -36.747003 0.000000
39.146444 -29.590527 0.000000
33.532509 -26.386361 0.000000
27.231415 -23.355083 0.000000
23.126396 -18.693576 0.000000
17.067156 -17.036876 0.000000
6.831665 -12.318990 0.000000
12.448382 -12.804014 0.000000
-3.143707 -1.719221 0.000000
4.110556 -7.189350 0.000000
1.239538 -2.285657 0.000000
-6.773077 2.075894 0.000000
-8.108175 7.568341 0.000000
-12.363430 11.578900 0.000000
-15.088346 17.336931 0.000000
-18.496481 22.741457 0.000000
-23.592031 27.223637 0.000000
-26.961769 33.616245 0.000000
-30.057022 39.319998 0.000000
-33.127446 44.840704 0.000000
-36.650253 50.000000 0.000000
44.553998 -26.509598 0.000000
50.000000 -30.117005 0.000000
39.061388 -23.196300 0.000000
33.489880 -19.923200 0.000000
28.096482 -16.615430 0.000000
22.760029 -13.177525 0.000000
17.275644 -9.982709 0.000000
11.083639 -6.741186 0.000000
-1.146488 2.125806 0.000000
6.437498 -1.838295 0.000000
3.131253 1.469550 0.000000
-3.272282 7.015718 0.000000
-5.923268 12.220664 0.000000
-9.140186 17.461157 0.000000
-12.588476 22.908186 0.000000
-16.810103 28.048262 0.000000
-20.197367 33.367786 0.000000
-23.322761 38.997673 0.000000
-26.461799 44.613552 0.000000
-29.908191 50.000000 0.000000
44.538531 -19.942538 0.000000
50.000000 -23.480897 0.000000
39.066289 -16.615354 0.000000
33.628835 -13.312047 0.000000
28.225387 -10.015966 0.000000
22.825593 -6.669638 0.000000
17.395983 -3.420681 0.000000
12.231426 0.097558 0.000000
2.184311 6.142930 0.000000
7.311011 3.755234 0.000000
0.124542 11.816518 0.000000
-2.875840 17.349905 0.000000
-6.266354 22.833518 0.000000
-10.150516 28.148090 0.000000
-13.362522 33.558006 0.000000
-16.624778 39.002311 0.000000
-19.810141 44.504476 0.000000
-23.211276 50.000000 0.000000
44.551597 -13.315510 0.000000
50.000000 -16.836770 0.000000
39.118665 -9.989243 0.000000
33.709043 -6.675546 0.000000
28.325855 -3.359035 0.000000
22.970761 -0.047812 0.000000
17.710721 3.287203 0.000000
12.454523 6.502663 0.000000
7.013389 10.736201 0.000000
3.617618 17.061768 0.000000
0.259363 22.737454 0.000000
-3.180105 28.226743 0.000000
-6.519874 33.703203 0.000000
-9.856353 39.117584 0.000000
-13.152568 44.534208 0.000000
-16.585595 50.000000 0.000000
44.574973 -6.664783 0.000000
50.000000 -10.181761 0.000000
39.168750 -3.343491 0.000000
33.786230 -0.024644 0.000000
28.439784 3.297396 0.000000
23.151086 6.637587 0.000000
18.024064 9.962995 0.000000
12.883469 12.138579 0.000000
10.038524 17.149285 0.000000
6.742175 22.647422 0.000000
3.458107 28.210321 0.000000
0.144700 33.692181 0.000000
-3.183798 39.136795 0.000000
-6.483118 44.564857 0.000000
-9.949281 50.000000 0.000000
44.600349 -0.005541 0.000000
50.000000 -3.515450 0.000000
39.218353 3.313124 0.000000
33.861635 6.628296 0.000000
28.542833 9.959264 0.000000
23.201170 13.373781 0.000000
17.138716 16.973557 0.000000
13.110372 22.623349 0.000000
10.027624 28.195120 0.000000
6.815320 33.692837 0.000000
3.490034 39.147581 0.000000
0.176385 44.576965 0.000000
-3.301979 50.000000 0.000000
44.614598 6.661822 0.000000
50.000000 3.161373 0.000000
39.253163 9.969510 0.000000
33.928472 13.260039 0.000000
28.657238 16.562078 0.000000
23.527095 20.058407 0.000000
18.698559 23.083918 0.000000
16.559130 28.276120 0.000000
13.497189 33.741282 0.000000
10.154015 39.175939 0.000000
6.840186 44.584355 0.000000
3.351689 50.000000 0.000000
44.638297 13.317990 0.000000
50.000000 9.847232 0.000000
39.305739 16.606807 0.000000
34.011660 19.855733 0.000000
28.716278 22.915832 0.000000
23.406001 27.196376 0.000000
20.034946 33.298086 0.000000
16.710785 39.039336 0.000000
13.414890 44.528809 0.000000
10.011325 50.000000 0.000000
44.661164 19.975537 0.000000
50.000000 16.538689 0.000000
39.350050 23.260464 0.000000
34.118075 26.514145 0.000000
29.063780 28.535356 0.000000
26.306526 33.405550 0.000000
23.176750 38.967931 0.000000
20.007420 44.509436 0.000000
16.671694 50.000000 0.000000
44.668538 26.646442 0.000000
50.000000 23.231882 0.000000
39.343328 29.967635 0.000000
33.287192 33.374358 0.000000
29.496194 39.046507 0.000000
26.514317 44.509135 0.000000
23.333485 50.000000 0.000000
44.802174 33.295164 0.000000
50.000000 29.925187 0.000000
39.782547 36.600644 0.000000
34.893023 39.531049 0.000000
32.900030 44.517197 0.000000
29.998010 50.000000 0.000000
45.003193 39.882008 0.000000
50.000000 36.617930 0.000000
39.779553 43.973381 0.000000
36.662444 50.000000 0.000000
45.642496 45.414121 0.000000
50.000000 43.309169 0.000000
43.328031 50.000000 0.000000
50.000000 50.000000 0.000000
CELLS 578 2312
3 1 0 2
3 0 3 2
3 4 1 6
3 6 1 2
3 3 5 7
3 3 7 2
3 6 2 7
3 9 4 10
3 10 4 6
3 5 8 11
3 7 5 11
3 10 6 12
3 12 6 7
3 7 11 13
3 7 13 12
3 8 14 15
3 11 8 15
3 16 9 17
3 17 9 10
3 17 10 18
3 18 10 12
3 11 15 19
3 13 11 19
3 18 12 20
3 13 19 20
3 20 12 13
3 14 22 24
3 15 14 24
3 15 24 25
3 19 15 25
3 21 16 26
3 26 16 17
3 26 17 27
3 27 17 18
3 27 18 28
3 28 18 20
3 19 25 29
3 19 29 20
3 28 20 30
3 30 20 29
3 31 21 32
3 32 21 26
3 22 23 36
3 24 22 36
3 23 34 37
3 36 23 37
3 24 36 38
3 25 24 38
3 25 38 39
3 29 25 39
3 32 26 40
3 40 26 27
3 40 27 41
3 41 27 28
3 41 28 42
3 42 28 30
3 29 39 43
3 29 43 30
3 42 30 43
3 33 31 44
3 44 31 32
3 44 32 45
3 45 32 40
3 46 33 47
3 47 33 44
3 34 35 50
3 37 34 50
3 35 48 51
3 50 35 51
3 36 37 52
3 38 36 52
3 37 50 53
3 52 37 53
3 38 52 54
3 39 38 54
3 39 54 55
3 43 39 55
3 45 40 56
3 56 40 41
3 56 41 57
3 57 41 42
3 57 42 58
3 58 42 43
3 43 55 59
3 43 59 58
3 47 44 60
3 60 44 45
3 60 45 61
3 61 45 56
3 62 46 63
3 63 46 47
3 63 47 64
3 64 47 60
3 48 49 68
3 51 48 68
3 49 66 69
3 68 49 69
3 50 51 70
3 53 50 70
3 51 68 71
3 70 51 71
3 52 53 72
3 54 52 72
3 53 70 73
3 72 53 73
3 54 72 74
3 55 54 74
3 55 74 75
3 59 55 75
3 61 56 76
3 76 56 57
3 76 57 77
3 77 57 58
3 77 58 78
3 59 75 78
3 78 58 59
3 64 60 79
3 79 60 61
3 79 61 80
3 80 61 76
3 65 62 81
3 81 62 63
3 81 63 82
3 82 63 64
3 82 64 83
3 83 64 79
3 84 65 85
3 85 65 81
3 66 67 89
3 69 66 89
3 67 87 90
3 89 67 90
3 68 69 91
3 71 68 91
3 69 89 92
3 91 69 92
3 70 71 93
3 73 70 93
3 71 91 94
3 93 71 94
3 72 73 95
3 74 72 95
3 73 93 96
3 95 73 96
3 74 95 97
3 75 74 97
3 75 97 98
3 78 75 98
3 80 76 99
3 99 76 77
3 99 77 100
3 100 77 78
3 100 78 101
3 98 101 78
3 83 79 102
3 102 79 80
3 102 80 103
3 103 80 99
3 85 81 104
3 104 81 82
3 105 83 102
3 104 82 106
3 106 82 83
3 106 83 105
3 86 84 107
3 107 84 85
3 107 85 108
3 108 85 104
3 109 86 107
3 110 86 109
3 87 88 112
3 90 87 112
3 112 88 113
3 88 114 113
3 90 112 115
3 89 90 116
3 92 89 116
3 116 90 115
3 91 92 117
3 94 91 117
3 92 116 118
3 117 92 118
3 93 94 119
3 96 93 119
3 94 117 120
3 119 94 120
3 95 96 121
3 97 95 121
3 96 119 122
3 121 96 122
3 97 121 123
3 98 97 123
3 98 123 124
3 98 124 101
3 103 99 125
3 125 99 100
3 125 100 126
3 126 100 101
3 126 101 124
3 105 102 127
3 127 102 103
3 127 103 128
3 128 103 125
3 129 105 127
3 108 104 130
3 130 104 106
3 130 106 131
3 131 106 105
3 131 105 129
3 108 130 132
3 109 107 133
3 133 107 108
3 133 108 134
3 108 132 134
3 135 109 133
3 111 110 136
3 136 110 109
3 136 109 135
3 137 111 136
3 138 111 137
3 112 113 139
3 115 112 139
3 114 140 113
3 140 139 113
3 139 141 115
3 116 115 142
3 118 116 142
3 142 115 141
3 117 118 143
3 120 117 143
3 118 142 144
3 143 118 144
3 119 120 145
3 122 119 145
3 120 143 146
3 145 120 146
3 121 122 147
3 123 121 147
3 122 145 148
3 147 122 148
3 123 147 149
3 124 123 149
3 124 149 150
3 151 126 124
3 124 150 151
3 128 125 152
3 152 125 126
3 152 126 151
3 129 127 153
3 153 127 128
3 128 152 154
3 153 128 154
3 155 129 153
3 131 129 156
3 156 129 155
3 132 130 157
3 130 131 157
3 157 131 158
3 131 156 158
3 132 157 159
3 132 159 134
3 135 133 160
3 160 133 134
3 160 134 159
3 136 135 161
3 135 160 161
3 162 137 136
3 161 162 136
3 163 138 137
3 162 163 137
3 139 164 141
3 140 165 139
3 139 165 164
3 141 164 166
3 141 166 142
3 166 167 142
3 144 142 167
3 167 168 144
3 143 144 168
3 146 143 168
3 168 169 146
3 145 146 170
3 148 145 170
3 170 146 169
3 147 148 171
3 149 147 171
3 148 170 172
3 171 148 172
3 173 151 150
3 149 171 174
3 150 149 174
3 150 174 175
3 150 175 173
3 154 152 176
3 152 151 176
3 176 151 173
3 154 176 177
3 155 153 178
3 177 178 154
3 154 178 153
3 156 155 179
3 155 178 179
3 180 158 156
3 179 180 156
3 181 159 157
3 180 181 158
3 181 157 158
3 182 160 159
3 181 182 159
3 183 161 160
3 182 183 160
3 184 162 161
3 184 161 183
3 185 163 162
3 184 185 162
3 164 186 166
3 165 187 164
3 164 187 186
3 166 186 188
3 166 188 167
3 167 188 189
3 167 189 168
3 168 189 190
3 168 190 169
3 169 190 191
3 169 191 170
3 192 172 170
3 170 191 192
3 192 193 172
3 171 172 193
3 174 171 193
3 194 173 175
3 176 173 194
3 175 174 195
3 193 195 174
3 195 196 175
3 175 196 194
3 197 177 176
3 194 197 176
3 198 178 177
3 197 198 177
3 199 179 178
3 198 199 178
3 200 180 179
3 199 200 179
3 201 181 180
3 200 201 180
3 202 182 181
3 201 202 181
3 203 183 182
3 202 203 182
3 204 184 183
3 203 204 183
3 205 185 184
3 204 205 184
3 186 206 188
3 187 207 186
3 186 207 206
3 188 206 208
3 188 208 189
3 189 208 209
3 189 209 190
3 190 209 210
3 190 210 191
3 191 210 211
3 191 211 192
3 192 211 212
3 192 212 193
3 193 212 213
3 193 213 195
3 214 197 194
3 214 194 196
3 195 213 215
3 195 215 196
3 196 215 214
3 216 198 197
3 214 216 197
3 217 199 198
3 216 217 198
3 218 200 199
3 217 218 199
3 219 201 200
3 218 219 200
3 220 202 201
3 219 220 201
3 221 203 202
3 220 221 202
3 222 204 203
3 221 222 203
3 223 205 204
3 222 223 204
3 206 224 208
3 207 225 206
3 206 225 224
3 208 224 226
3 208 226 209
3 209 226 227
3 209 227 210
3 210 227 228
3 210 228 211
3 211 228 229
3 211 229 212
3 212 229 230
3 212 230 213
3 213 230 231
3 213 231 215
3 232 216 214
3 215 231 232
3 232 214 215
3 233 217 216
3 232 233 216
3 234 218 217
3 233 234 217
3 235 219 218
3 234 235 218
3 236 220 219
3 235 236 219
3 237 221 220
3 236 237 220
3 238 222 221
3 237 238 221
3 239 223 222
3 238 239 222
3 224 240 226
3 225 241 224
3 224 241 240
3 226 240 242
3 226 242 227
3 227 242 243
3 227 243 228
3 228 243 244
3 228 244 229
3 244 245 229
3 229 245 230
3 230 245 246
3 230 246 231
3 231 246 247
3 231 247 232
3 248 233 232
3 248 232 247
3 249 234 233
3 248 249 233
3 250 235 234
3 249 250 234
3 251 236 235
3 250 251 235
3 252 237 236
3 251 252 236
3 253 238 237
3 252 253 237
3 254 239 238
3 253 254 238
3 240 255 242
3 241 256 240
3 240 256 255
3 242 255 257
3 242 257 243
3 243 257 258
3 243 258 244
3 244 258 259
3 244 259 245
3 245 259 260
3 245 260 246
3 246 260 261
3 246 261 247
3 248 247 261
3 262 249 248
3 261 262 248
3 263 250 249
3 262 263 249
3 264 251 250
3 263 264 250
3 265 252 251
3 264 265 251
3 266 253 252
3 265 266 252
3 267 254 253
3 266 267 253
3 255 268 257
3 256 269 255
3 255 269 268
3 257 268 270
3 257 270 258
3 258 270 271
3 258 271 259
3 259 271 272
3 259 272 260
3 260 272 273
3 260 273 261
3 274 262 261
3 261 273 274
3 275 263 262
3 274 275 262
3 276 264 263
3 275 276 263
3 277 265 264
3 276 277 264
3 278 266 265
3 277 278 265
3 279 267 266
3 278 279 266
3 268 280 270
3 269 281 268
3 268 281 280
3 270 280 282
3 270 282 271
3 271 282 283
3 271 283 272
3 283 284 272
3 272 284 273
3 285 275 274
3 273 284 285
3 285 274 273
3 286 276 275
3 285 286 275
3 287 277 276
3 286 287 276
3 288 278 277
3 287 288 277
3 289 279 278
3 288 289 278
3 280 290 282
3 281 291 280
3 280 291 290
3 282 290 292
3 282 292 283
3 283 292 293
3 283 293 284
3 284 293 294
3 284 294 285
3 295 286 285
3 295 285 294
3 296 287 286
3 295 296 286
3 297 288 287
3 296 297 287
3 298 289 288
3 297 298 288
3 290 299 292
3 291 300 290
3 290 300 299
3 292 299 301
3 292 301 293
3 293 301 302
3 293 302 294
3 294 302 295
3 303 296 295
3 303 295 302
3 304 297 296
3 303 304 296
3 305 298 297
3 304 305 297
3 299 306 301
3 300 307 299
3 299 307 306
3 301 306 308
3 301 308 302
3 309 303 302
3 302 308 309
3 310 304 303
3 309 310 303
3 311 305 304
3 310 311 304
3 306 312 308
3 307 313 306
3 306 313 312
3 314 310 309
3 308 312 314
3 314 309 308
3 315 311 310
3 314 315 310
3 312 316 314
3 313 317 312
3 312 317 316
3 318 315 314
3 318 314 316
3 317 319 316
3 319 318 316
CELL_TYPES 578
5
5
5
5
5
5
5
5
5
5
5
5
5
5
5
5
5
5
5
5
5
5
5
5
5
5
5
5
5
5
5
5
5
5
5
5
5
5
5
5
5
5
5
5
5
5
5
5
5
5
5
5
5
5
5
5
5
5
5
5
5
5
5
5
5
5
5
5
5
5
5
5
5
5
5
5
5
5
5
5
5
5
5
5
5
5
5
5
5
5
5
5
5
5
5
5
5
5
5
5
5
5
5
5
5
5
5
5
5
5
5
5
5
5
5
5
5
5
5
5
5
5
5
5
5
5
5
5
5
5
5
5
5
5
5
5
5
5
5
5
5
5
5
5
5
5
5
5
5
5
5
5
5
5
5
5
5
5
5
5
5
5
5
5
5
5
5
5
5
5
5
5
5
5
5
5
5
5
5
5
5
5
5
5
5
5
5
5
5
5
5
5
5
5
5
5
5
5
5
5
5
5
5
5
5
5
5
5
5
5
5
5
5
5
5
5
5
5
5
5
5
5
5
5
5
5
5
5
5
5
5
5
5
5
5
5
5
5
5
5
5
5
5
5
5
5
5
5
5
5
5
5
5
5
5
5
5
5
5
5
5
5
5
5
5
5
5
5
5
5
5
5
5
5
5
5
5
5
5
5
5
5
5
5
5
5
5
5
5
5
5
5
5
5
5
5
5
5
5
5
5
5
5
5
5
5
5
5
5
5
5
5
5
5
5
5
5
5
5
5
5
5
5
5
5
5
5
5
5
5
5
5
5
5
5
5
5
5
5
5
5
5
5
5
5
5
5
5
5
5
5
5
5
5
5
5
5
5
5
5
5
5
5
5
5
5
5
5
5
5
5
5
5
5
5
5
5
5
5
5
5
5
5
5
5
5
5
5
5
5
5
5
5
5
5
5
5
5
5
5
5
5
5
5
5
5
5
5
5
5
5
5
5
5
5
5
5
5
5
5
5
5
5
5
5
5
5
5
5
5
5
5
5
5
5
5
5
5
5
5
5
5
5
5
5
5
5
5
5
5
5
5
5
5
5
5
5
5
5
5
5
5
5
5
5
5
5
5
5
5
5
5
5
5
5
5
5
5
5
5
5
5
5
5
5
5
5
5
5
5
5
5
5
5
5
5
5
5
5
5
5
5
5
5
5
5
5
5
5
5
5
5
5
5
5
5
5
5
5
5
5
5
5
5
5
5
5
5
5
5
5
5
5
5
5
5
5
5
5
5
5
5
5
5
5
5
5
5
5
5
5
5
5
5
5
5
5
5
5
5
5
5
5
5
5
5
5
5
5
5
5
5
5
5
5
5
5
5
POINT_DATA 320
SCALARS theta_e float 1
LOOKUP_TABLE default
0.993833
0.993796
0.993830
0.993860
0.993706
0.993917
0.993772
0.993855
0.994023
0.993553
0.993649
0.993949
0.993756
0.993854
0.994161
0.994067
0.993341
0.993467
0.993607
0.993938
0.993764
0.993072
0.994335
0.994541
0.994222
0.994073
0.993227
0.993391
0.993559
0.993894
0.993715
0.992760
0.992936
0.992419
0.994768
0.995002
0.994414
0.994634
0.994247
0.994046
0.993129
0.993330
0.993541
0.993801
0.992610
0.992823
0.992072
0.992264
0.995225
0.995421
0.994867
0.995097
0.994460
0.994692
0.994254
0.994029
0.993053
0.993300
0.993561
0.993797
0.992488
0.992738
0.991742
0.991923
0.992147
0.991449
0.995581
0.995698
0.995307
0.995486
0.994928
0.995151
0.994484
0.994727
0.994250
0.993964
0.993008
0.993294
0.993605
0.992404
0.992681
0.991608
0.991819
0.992074
0.991204
0.991336
0.991011
0.995774
0.995817
0.995625
0.995725
0.995346
0.995508
0.994963
0.995174
0.994496
0.994746
0.994217
0.993937
0.992973
0.993324
0.993685
0.992352
0.992662
0.991521
0.992046
0.991773
0.991119
0.991274
0.990949
0.990869
0.990788
0.995787
0.995821
0.995834
0.995728
0.995635
0.995355
0.995505
0.994979
0.995177
0.994485
0.994753
0.994251
0.993883
0.993014
0.993414
0.992368
0.992726
0.992096
0.991519
0.991789
0.991333
0.991071
0.991181
0.990951
0.990849
0.990777
0.990755
0.995789
0.995821
0.995725
0.995621
0.995343
0.995476
0.994981
0.995170
0.994551
0.994780
0.994097
0.993531
0.993698
0.993173
0.992464
0.992833
0.992216
0.991951
0.991518
0.991717
0.991301
0.991092
0.990942
0.990846
0.990790
0.995750
0.995792
0.995652
0.995521
0.995339
0.995154
0.994957
0.994480
0.994673
0.993730
0.993878
0.993743
0.993583
0.993012
0.992502
0.992173
0.991868
0.991541
0.991285
0.991102
0.990974
0.990887
0.995673
0.995738
0.995558
0.995402
0.995225
0.995014
0.994752
0.994462
0.993898
0.994110
0.993798
0.993507
0.992795
0.992438
0.992136
0.991801
0.991532
0.991323
0.991164
0.991048
0.995562
0.995647
0.995430
0.995260
0.995067
0.994827
0.994557
0.994292
0.993601
0.993798
0.993262
0.992733
0.992446
0.992125
0.991836
0.991601
0.991415
0.991270
0.995414
0.995515
0.995268
0.995086
0.994881
0.994619
0.994266
0.993996
0.993610
0.993067
0.992797
0.992478
0.992184
0.991932
0.991722
0.991551
0.995235
0.995348
0.995079
0.994889
0.994674
0.994405
0.994007
0.993670
0.993442
0.993157
0.992849
0.992558
0.992300
0.992076
0.991884
0.995036
0.995155
0.994878
0.994685
0.994461
0.994187
0.993843
0.993486
0.993203
0.992929
0.992679
0.992453
0.992252
0.994836
0.994953
0.994683
0.994494
0.994271
0.994004
0.993747
0.993522
0.993278
0.993045
0.992828
0.992631
0.994653
0.994760
0.994510
0.994331
0.994113
0.993834
0.993599
0.993383
0.993182
0.992998
0.994498
0.994591
0.994368
0.994204
0.994021
0.993854
0.993668
0.993494
0.993331
0.994375
0.994453
0.994254
0.994079
0.993900
0.993757
0.993620
0.994288
0.994350
0.994184
0.994066
0.993970
0.993861
0.994231
0.994279
0.994134
0.994053
0.994209
0.994240
0.994167
0.994218
VECTORS fa_u float
0.000000 0.000000 0.000000
0.000000 0.000000 0.000000
0.000000 0.000000 0.000000
0.000000 0.000000 0.000000
0.000000 0.000000 0.000000
0.000000 0.000000 0.000000
0.000000 0.000000 0.000000
0.000000 0.000000 0.000000
0.000000 0.000000 0.000000
0.000000 0.000000 0.000000
0.000000 0.000000 0.000000
0.000000 0.000000 0.000000
0.000000 0.000000 0.000000
0.000000 0.000000 0.000000
0.000000 0.000000 0.000000
0.000000 0.000000 0.000000
0.000000 0.000000 0.000000
0.000000 0.000000 0.000000
0.000000 0.000000 0.000000
0.000000 0.000000 0.000000
0.000000 0.000000 0.000000
0.000000 0.000000 0.000000
0.000000 0.000000 0.000000
0.000000 0.000000 0.000000
0.000000 0.000000 0.000000
0.000000 0.000000 0.000000
0.000000 0.000000 0.000000
0.000000 0.000000 0.000000
0.000000 0.000000 0.000000
0.000000 0.000000 0.000000
0.000000 0.000000 0.000000
0.000000 0.000000 0.000000
0.000000 0.000000 0.000000
0.000000 0.000000 0.000000
0.000000 0.000000 0.000000
0.000000 0.000000 0.000000
0.000000 0.000000 0.000000
0.000000 0.000000 0.000000
0.000000 0.000000 0.000000
0.000000 0.000000 0.000000
0.000000 0.000000 0.000000
0.000000 0.000000 0.000000
0.000000 0.000000 0.000000
0.000000 0.000000 0.000000
0.000000 0.000000 0.000000
0.000000 0.000000 0.000000
0.000000 0.000000 0.000000
0.000000 0.000000 0.000000
0.000000 0.000000 0.000000
0.000000 0.000000 0.000000
0.000000 0.000000 0.000000
0.000000 0.000000 0.000000
0.000000 0.000000 0.000000
0.000000 0.000000 0.000000
0.000000 0.000000 0.000000
0.000000 0.000000 0.000000
0.000000 0.000000 0.000000
0.000000 0.000000 0.000000
0.000000 0.000000 0.000000
0.000000 0.000000 0.000000
0.000000 0.000000 0.000000
0.000000 0.000000 0.000000
0.000000 0.000000 0.000000
0.000000 0.000000 0.000000
0.000000 0.000000 0.000000
0.000000 0.000000 0.000000
0.000000 0.000000 0.000000
0.000000 0.000000 0.000000
0.000000 0.000000 0.000000
0.000000 0.000000 0.000000
0.000000 0.000000 0.000000
0.000000 0.000000 0.000000
0.000000 0.000000 0.000000
0.000000 0.000000 0.000000
0.000000 0.000000 0.000000
0.000000 0.000000 0.000000
0.000000 0.000000 0.000000
0.000000 0.000000 0.000000
0.000000 0.000000 0.000000
0.000000 0.000000 0.000000
0.000000 0.000000 0.000000
0.000000 0.000000 0.000000
0.000000 0.000000 0.000000
0.000000 0.000000 0.000000
0.000000 0.000000 0.000000
0.000000 0.000000 0.000000
0.000000 0.000000 0.000000
0.000000 0.000000 0.000000
0.000000 0.000000 0.000000
0.000000 0.000000 0.000000
0.000000 0.000000 0.000000
0.000000 0.000000 0.000000
0.000000 0.000000 0.000000
0.000000 0.000000 0.000000
0.000000 0.000000 0.000000
0.000000 0.000000 0.000000
0.000000 0.000000 0.000000
0.000000 0.000000 0.000000
0.000000 0.000000 0.000000
0.000000 0.000000 0.000000
0.000000 0.000000 0.000000
0.000000 0.000000 0.000000
0.000000 0.000000 0.000000
0.000000 0.000000 0.000000
0.000000 0.000000 0.000000
0.000000 0.000000 0.000000
0.000000 0.000000 0.000000
0.000000 0.000000 0.000000
0.000000 0.000000 0.000000
0.000000 0.000000 0.000000
0.000000 0.000000 0.000000
0.000000 0.000000 0.000000
0.000000 0.000000 0.000000
0.000000 0.000000 0.000000
0.000000 0.000000 0.000000
0.000000 0.000000 0.000000
0.000000 0.000000 0.000000
0.000000 0.000000 0.000000
0.000000 0.000000 0.000000
0.000000 0.000000 0.000000
0.000000 0.000000 0.000000
0.000000 0.000000 0.000000
0.000000 0.000000 0.000000
0.000000 0.000000 0.000000
0.000000 0.000000 0.000000
0.000000 0.000000 0.000000
0.000000 0.000000 0.000000
0.000000 0.000000 0.000000
0.000000 0.000000 0.000000
0.000000 0.000000 0.000000
0.000000 0.000000 0.000000
0.000000 0.000000 0.000000
0.000000 0.000000 0.000000
0.000000 0.000000 0.000000
0.000000 0.000000 0.000000
0.000000 0.000000 0.000000
0.000000 0.000000 0.000000
0.000000 0.000000 0.000000
0.000000 0.000000 0.000000
0.000000 0.000000 0.000000
0.000000 0.000000 0.000000
0.000000 0.000000 0.000000
0.000000 0.000000 0.000000
0.000000 0.000000 0.000000
0.000000 0.000000 0.000000
0.000000 0.000000 0.000000
0.000000 0.000000 0.000000
0.000000 0.000000 0.000000
0.000000 0.000000 0.000000
0.000000 0.000000 0.000000
0.000000 0.000000 0.000000
0.000000 0.000000 0.000000
0.000000 0.000000 0.000000
0.000000 0.000000 0.000000
0.000000 0.000000 0.000000
0.000000 0.000000 0.000000
0.000000 0.000000 0.000000
0.000000 0.000000 0.000000
0.000000 0.000000 0.000000
0.000000 0.000000 0.000000
0.000000 0.000000 0.000000
0.000000 0.000000 0.000000
0.000000 0.000000 0.000000
0.000000 0.000000 0.000000
0.000000 0.000000 0.000000
0.000000 0.000000 0.000000
0.000000 0.000000 0.000000
0.000000 0.000000 0.000000
0.000000 0.000000 0.000000
0.000000 0.000000 0.000000
0.000000 0.000000 0.000000
0.000000 0.000000 0.000000
0.000000 0.000000 0.000000
0.000000 0.000000 0.000000
0.000000 0.000000 0.000000
0.000000 0.000000 0.000000
0.000000 0.000000 0.000000
0.000000 0.000000 0.000000
0.000000 0.000000 0.000000
0.000000 0.000000 0.000000
0.000000 0.000000 0.000000
0.000000 0.000000 0.000000
0.000000 0.000000 0.000000
0.000000 0.000000 0.000000
0.000000 0.000000 0.000000
0.000000 0.000000 0.000000
0.000000 0.000000 0.000000
0.000000 0.000000 0.000000
0.000000 0.000000 0.000000
0.000000 0.000000 0.000000
0.000000 0.000000 0.000000
0.000000 0.000000 0.000000
0.000000 0.000000 0.000000
0.000000 0.000000 0.000000
0.000000 0.000000 0.000000
0.000000 0.000000 0.000000
0.000000 0.000000 0.000000
0.000000 0.000000 0.000000
0.000000 0.000000 0.000000
0.000000 0.000000 0.000000
0.000000 0.000000 0.000000
0.000000 0.000000 0.000000
0.000000 0.000000 0.000000
0.000000 0.000000 0.000000
0.000000 0.000000 0.000000
0.000000 0.000000 0.000000
0.000000 0.000000 0.000000
0.000000 0.000000 0.000000
0.000000 0.000000 0.000000
0.000000 0.000000 0.000000
0.000000 0.000000 0.000000
0.000000 0.000000 0.000000
0.000000 0.000000 0.000000
0.000000 0.000000 0.000000
0.000000 0.000000 0.000000
0.000000 0.000000 0.000000
0.000000 0.000000 0.000000
0.000000 0.000000 0.000000
0.000000 0.000000 0.000000
0.000000 0.000000 0.000000
0.000000 0.000000 0.000000
0.000000 0.000000 0.000000
0.000000 0.000000 0.000000
0.000000 0.000000 0.000000
0.000000 0.000000 0.000000
0.000000 0.000000 0.000000
0.000000 0.000000 0.000000
0.000000 0.000000 0.000000
0.000000 0.000000 0.000000
0.000000 0.000000 0.000000
0.000000 0.000000 0.000000
0.000000 0.000000 0.000000
0.000000 0.000000 0.000000
0.000000 0.000000 0.000000
0.000000 0.000000 0.000000
0.000000 0.000000 0.000000
0.000000 0.000000 0.000000
0.000000 0.000000 0.000000
0.000000 0.000000 0.000000
0.000000 0.000000 0.000000
0.000000 0.000000 0.000000
0.000000 0.000000 0.000000
0.000000 0.000000 0.000000
0.000000 0.000000 0.000000
0.000000 0.000000 0.000000
0.000000 0.000000 0.000000
0.000000 0.000000 0.000000
0.000000 0.000000 0.000000
0.000000 0.000000 0.000000
0.000000 0.000000 0.000000
0.000000 0.000000 0.000000
0.000000 0.000000 0.000000
0.000000 0.000000 0.000000
0.000000 0.000000 0.000000
0.000000 0.000000 0.000000
0.000000 0.000000 0.000000
0.000000 0.000000 0.000000
0.000000 0.000000 0.000000
0.000000 0.000000 0.000000
0.000000 0.000000 0.000000
0.000000 0.000000 0.000000
0.000000 0.000000 0.000000
0.000000 0.000000 0.000000
0.000000 0.000000 0.000000
0.000000 0.000000 0.000000
0.000000 0.000000 0.000000
0.000000 0.000000 0.000000
0.000000 0.000000 0.000000
0.000000 0.000000 0.000000
0.000000 0.000000 0.000000
0.000000 0.000000 0.000000
0.000000 0.000000 0.000000
0.000000 0.000000 0.000000
0.000000 0.000000 0.000000
0.000000 0.000000 0.000000
0.000000 0.000000 0.000000
0.000000 0.000000 0.000000
0.000000 0.000000 0.000000
0.000000 0.000000 0.000000
0.000000 0.000000 0.000000
0.000000 0.000000 0.000000
0.000000 0.000000 0.000000
0.000000 0.000000 0.000000
0.000000 0.000000 0.000000
0.000000 0.000000 0.000000
0.000000 0.000000 0.000000
0.000000 0.000000 0.000000
0.000000 0.000000 0.000000
0.000000 0.000000 0.000000
0.000000 0.000000 0.000000
0.000000 0.000000 0.000000
0.000000 0.000000 0.000000
0.000000 0.000000 0.000000
0.000000 0.000000 0.000000
0.000000 0.000000 0.000000
0.000000 0.000000 0.000000
0.000000 0.000000 -50.000000
-50.000000 0.000000 -50.000000
-43.333060 0.000000 -45.693071
-45.520376 0.000000 -43.291609
-50.000000 0.000000 -50.000000
-36.665148 0.000000 -36.583609
-50.000000 0.000000 -45.085578
-40.022653 0.000000 -40.030402
-44.190994 0.000000 -29.875519
-50.000000 0.000000 -50.000000
-29.997242 0.000000 -44.851428
-33.533201 0.000000 -33.133451
-44.713996 0.000000 -39.866595
-36.858267 0.000000 -35.123760
-39.866144 0.000000 -23.168152
-50.000000 0.000000 -26.520673
-44.703840 0.000000 -50.000000
-23.331542 0.000000 -44.667949
-26.923882 0.000000 -39.359667
-30.332560 0.000000 -29.595452
-39.425927 0.000000 -33.358455
-33.752563 0.000000 -50.000000
-16.666832 0.000000 -16.468744
-50.000000 0.000000 -9.779028
