# vtk DataFile Version 2.0
CellBP Time: 2.76
ASCII
DATASET UNSTRUCTURED_GRID
POINTS 320 double
-50.000000 -50.000000 0.000000
-50.000000 -43.344054 0.000000
-45.687909 -45.527778 0.000000
-43.283733 -50.000000 0.000000
-50.000000 -36.686496 0.000000
-36.568332 -50.000000 0.000000
-45.079690 -40.038738 0.000000
-40.018787 -44.200371 0.000000
-29.853891 -50.000000 0.000000
-50.000000 -30.027811 0.000000
-44.845377 -33.558770 0.000000
-33.114699 -44.722046 0.000000
-39.854850 -36.878626 0.000000
-35.107026 -39.881663 0.000000
-23.141382 -50.000000 0.000000
-26.496149 -44.711442 0.000000
-50.000000 -23.369733 0.000000
-44.661812 -26.957842 0.000000
-39.347516 -30.361760 0.000000
-29.573388 -39.441365 0.000000
-33.339986 -33.776346 0.000000
-50.000000 -16.710665 0.000000
-16.438316 -50.000000 0.000000
-9.746497 -50.000000 0.000000
-19.912228 -44.629924 0.000000
-23.166843 -39.195588 0.000000
-44.687056 -20.292404 0.000000
-39.348588 -23.706941 0.000000
-34.070591 -27.101799 0.000000
-26.341189 -33.700279 0.000000
-29.108649 -29.083300 0.000000
-50.000000 -10.052734 0.000000
-44.658811 -13.646394 0.000000
-50.000000 -3.398345 0.000000
-3.065232 -50.000000 0.000000
3.602588 -50.000000 0.000000
-13.282784 -44.635492 0.000000
-6.616773 -44.644491 0.000000
-16.629561 -39.226423 0.000000
-20.045033 -33.462672 0.000000
-39.314650 -17.026475 0.000000
-33.982108 -20.484469 0.000000
-28.727305 -23.647663 0.000000
-23.442673 -27.525413 0.000000
-44.621568 -6.982120 0.000000
-39.257227 -10.371988 0.000000
-50.000000 3.259659 0.000000
-44.604907 -0.329961 0.000000
10.255503 -50.000000 0.000000
16.895391 -50.000000 0.000000
0.057010 -44.647762 0.000000
6.726182 -44.657725 0.000000
-9.966803 -39.292162 0.000000
-3.282145 -39.285279 0.000000
-13.403043 -33.908234 0.000000
-16.619585 -28.435155 0.000000
-33.893312 -13.781120 0.000000
-28.531773 -17.145685 0.000000
-23.208495 -20.547632 0.000000
-18.567492 -23.493140 0.000000
-39.215352 -3.716013 0.000000
-33.821724 -7.134778 0.000000
-50.000000 9.952260 0.000000
-44.587034 6.326670 0.000000
-39.191972 2.946089 0.000000
-50.000000 16.715639 0.000000
23.526182 -50.000000 0.000000
30.150119 -50.000000 0.000000
13.389058 -44.678657 0.000000
20.053872 -44.710815 0.000000
3.396683 -39.299833 0.000000
10.058407 -39.333222 0.000000
-6.638820 -33.894058 0.000000
0.068017 -33.919546 0.000000
-9.985067 -28.442356 0.000000
-13.009995 -23.102696 0.000000
-28.425664 -10.538437 0.000000
-22.947308 -13.962026 0.000000
-16.855195 -17.467957 0.000000
-33.764023 -0.495790 0.000000
-28.407438 -3.984580 0.000000
-44.550291 13.021524 0.000000
-39.127935 9.577154 0.000000
-33.727027 6.040809 0.000000
-50.000000 23.582277 0.000000
-44.595348 19.819796 0.000000
-50.000000 30.543658 0.000000
36.766948 -50.000000 0.000000
43.383578 -50.000000 0.000000
26.716012 -44.750751 0.000000
33.354755 -44.875421 0.000000
16.710014 -39.389583 0.000000
23.392382 -39.459740 0.000000
6.741667 -33.952844 0.000000
13.381674 -34.020545 0.000000
-3.227758 -28.489913 0.000000
3.473045 -28.559538 0.000000
-6.494579 -23.021458 0.000000
-9.832392 -17.548427 0.000000
-23.011118 -7.390450 0.000000
-17.632908 -10.656554 0.000000
-12.666459 -12.872566 0.000000
-28.367999 2.578643 0.000000
-23.016654 -0.937408 0.000000
-38.992162 16.270722 0.000000
-28.336142 9.274853 0.000000
-33.513225 12.447011 0.000000
-44.738635 26.592168 0.000000
-38.709295 23.631572 0.000000
-44.986319 33.395662 0.000000
-50.000000 37.493634 0.000000
-50.000000 43.856774 0.000000
39.943999 -45.069317 0.000000
45.477268 -45.658294 0.000000
50.000000 -50.000000 0.000000
36.658760 -39.992037 0.000000
30.059191 -39.474080 0.000000
19.980520 -34.132346 0.000000
26.644947 -34.348916 0.000000
10.095634 -28.596778 0.000000
16.702419 -28.719462 0.000000
0.190891 -23.103918 0.000000
6.939324 -23.272551 0.000000
-3.241240 -17.498307 0.000000
-6.674420 -11.324537 0.000000
-17.625345 -4.226627 0.000000
-12.307721 -7.369997 0.000000
-22.949409 5.501568 0.000000
-17.707607 1.983804 0.000000
-22.616298 11.442739 0.000000
-33.307373 18.478095 0.000000
-27.385567 16.090031 0.000000
-33.026522 23.818735 0.000000
-40.296152 30.523744 0.000000
-35.394666 28.945098 0.000000
-39.911017 35.495711 0.000000
-43.912979 40.166595 0.000000
-45.268997 45.764789 0.000000
-50.000000 50.000000 0.000000
44.125047 -39.902877 0.000000
50.000000 -43.384277 0.000000
39.659647 -35.063188 0.000000
33.503738 -33.448257 0.000000
23.059447 -28.866340 0.000000
28.789771 -29.284358 0.000000
13.568968 -23.206072 0.000000
20.146286 -23.505205 0.000000
3.547153 -17.734779 0.000000
10.258282 -17.943592 0.000000
0.321939 -12.237148 0.000000
-1.930373 -6.536111 0.000000
-7.148040 -4.032211 0.000000
-12.329722 -1.179864 0.000000
-17.715439 8.019522 0.000000
-12.600969 4.805380 0.000000
-17.986660 13.128587 0.000000
-20.740960 16.793675 0.000000
-28.008680 22.495731 0.000000
-23.326872 20.983653 0.000000
-29.720941 28.639654 0.000000
-34.139864 34.078023 0.000000
-36.851699 39.939274 0.000000
-39.621381 45.265157 0.000000
-43.397008 50.000000 0.000000
44.591517 -32.990879 0.000000
50.000000 -36.755625 0.000000
39.157650 -29.606148 0.000000
33.549160 -26.404330 0.000000
27.253824 -23.375335 0.000000
23.152497 -18.716643 0.000000
17.097564 -17.061599 0.000000
6.868275 -12.349212 0.000000
12.482347 -12.831966 0.000000
-3.104391 -1.753230 0.000000
4.147558 -7.222994 0.000000
1.278647 -2.319832 0.000000
-6.729115 2.041911 0.000000
-8.070913 7.533788 0.000000
-12.325633 11.543279 0.000000
-15.049168 17.303852 0.000000
-18.457684 22.711682 0.000000
-23.556365 27.196999 0.000000
-26.928563 33.595942 0.000000
-30.027068 39.306085 0.000000
-33.101261 44.833820 0.000000
-36.630351 50.000000 0.000000
44.559817 -26.526898 0.000000
50.000000 -30.130095 0.000000
39.072974 -23.215891 0.000000
33.507063 -19.944908 0.000000
28.118777 -16.639006 0.000000
22.786916 -13.203073 0.000000
17.306783 -10.010028 0.000000
11.118074 -6.771937 0.000000
-1.106681 2.093857 0.000000
6.473479 -1.872540 0.000000
3.166567 1.431066 0.000000
-3.234794 6.987296 0.000000
-5.882049 12.188935 0.000000
-9.097764 17.430344 0.000000
-12.545586 22.879913 0.000000
-16.768128 28.023670 0.000000
-20.156847 33.348119 0.000000
-23.284406 38.984060 0.000000
-26.426580 44.606613 0.000000
-29.878879 50.000000 0.000000
44.544477 -19.963816 0.000000
50.000000 -23.498141 0.000000
39.078179 -16.638472 0.000000
33.646321 -13.336787 0.000000
28.248165 -10.042008 0.000000
22.853119 -6.697092 0.000000
17.426957 -3.449781 0.000000
12.264759 0.066992 0.000000
2.218790 6.109538 0.000000
7.345044 3.723574 0.000000
0.167295 11.785823 0.000000
-2.830928 17.320960 0.000000
-6.220665 22.806856 0.000000
-10.104340 28.124960 0.000000
-13.316214 33.539527 0.000000
-16.579567 38.989343 0.000000
-19.767098 44.497795 0.000000
-23.173503 50.000000 0.000000
44.557675 -13.340105 0.000000
50.000000 -16.857858 0.000000
39.130851 -10.015160 0.000000
33.727132 -6.702466 0.000000
28.349485 -3.386794 0.000000
22.999374 -0.076647 0.000000
17.743237 3.256719 0.000000
12.489799 6.470170 0.000000
7.053904 10.704585 0.000000
3.662685 17.033343 0.000000
0.306537 22.712125 0.000000
-3.131274 28.204968 0.000000
-6.469747 33.685795 0.000000
-9.806058 39.105378 0.000000
-13.103392 44.527901 0.000000
-16.540630 50.000000 0.000000
44.581216 -6.691779 0.000000
50.000000 -10.206095 0.000000
39.181407 -3.371178 0.000000
33.805080 -0.052722 0.000000
28.464531 3.269038 0.000000
23.181265 6.608809 0.000000
18.059095 9.933876 0.000000
12.922455 12.108799 0.000000
10.081431 17.121831 0.000000
6.788530 22.622969 0.000000
3.507485 28.189535 0.000000
0.196460 33.675566 0.000000
-3.130636 39.125125 0.000000
-6.429837 44.558878 0.000000
-9.898802 50.000000 0.000000
44.606879 -0.033812 0.000000
50.000000 -3.542138 0.000000
39.231658 3.284799 0.000000
33.881568 6.600201 0.000000
28.569207 9.931536 0.000000
23.233705 13.346631 0.000000
17.177375 16.947147 0.000000
13.154122 22.599682 0.000000
10.075247 28.174964 0.000000
6.866372 33.676845 0.000000
3.543664 39.136386 0.000000
0.231385 44.571245 0.000000
-3.248091 50.000000 0.000000
44.621525 6.633521 0.000000
50.000000 3.133527 0.000000
39.267321 9.941804 0.000000
33.949762 13.233215 0.000000
28.685504 16.536350 0.000000
23.561701 20.034097 0.000000
18.738617 23.060906 0.000000
16.603055 28.256404 0.000000
13.545314 33.725698 0.000000
10.205768 39.165093 0.000000
6.894469 44.578824 0.000000
3.406574 50.000000 0.000000
44.645721 13.290956 0.000000
50.000000 9.819602 0.000000
39.320910 16.580997 0.000000
34.034524 19.831441 0.000000
28.746526 22.893091 0.000000
23.443483 27.176177 0.000000
20.077844 33.282417 0.000000
16.758316 39.028571 0.000000
13.466021 44.523304 0.000000
10.064666 50.000000 0.000000
44.669128 19.951093 0.000000
50.000000 16.512762 0.000000
39.366274 23.237848 0.000000
34.142402 26.493594 0.000000
29.095325 28.516240 0.000000
26.342813 33.390072 0.000000
23.218087 38.957151 0.000000
20.053089 44.503919 0.000000
16.720880 50.000000 0.000000
44.677114 26.625835 0.000000
50.000000 23.209102 0.000000
39.360685 29.949404 0.000000
33.314269 33.358800 0.000000
29.529810 39.035789 0.000000
26.552621 44.503588 0.000000
23.376154 50.000000 0.000000
44.811055 33.279503 0.000000
50.000000 29.906872 0.000000
39.800102 36.587852 0.000000
34.918720 39.520783 0.000000
32.929417 44.511649 0.000000
30.032103 50.000000 0.000000
45.012164 39.872074 0.000000
50.000000 36.605069 0.000000
39.797743 43.967261 0.000000
36.686211 50.000000 0.000000
45.650497 45.409449 0.000000
50.000000 43.302464 0.000000
43.340271 50.000000 0.000000
50.000000 50.000000 0.000000
CELLS 578 2312
3 1 0 2
3 0 3 2
3 4 1 6
3 6 1 2
3 3 5 7
3 3 7 2
3 6 2 7
3 9 4 10
3 10 4 6
3 5 8 11
3 7 5 11
3 10 6 12
3 12 6 7
3 7 11 13
3 7 13 12
3 8 14 15
3 11 8 15
3 16 9 17
3 17 9 10
3 17 10 18
3 18 10 12
3 11 15 19
3 13 11 19
3 18 12 20
3 13 19 20
3 20 12 13
3 14 22 24
3 15 14 24
3 15 24 25
3 19 15 25
3 21 16 26
3 26 16 17
3 26 17 27
3 27 17 18
3 27 18 28
3 28 18 20
3 19 25 29
3 19 29 20
3 28 20 30
3 30 20 29
3 31 21 32
3 32 21 26
3 22 23 36
3 24 22 36
3 23 34 37
3 36 23 37
3 24 36 38
3 25 24 38
3 25 38 39
3 29 25 39
3 32 26 40
3 40 26 27
3 40 27 41
3 41 27 28
3 41 28 42
3 42 28 30
3 29 39 43
3 29 43 30
3 42 30 43
3 33 31 44
3 44 31 32
3 44 32 45
3 45 32 40
3 46 33 47
3 47 33 44
3 34 35 50
3 37 34 50
3 35 48 51
3 50 35 51
3 36 37 52
3 38 36 52
3 37 50 53
3 52 37 53
3 38 52 54
3 39 38 54
3 39 54 55
3 43 39 55
3 45 40 56
3 56 40 41
3 56 41 57
3 57 41 42
3 57 42 58
3 58 42 43
3 43 55 59
3 43 59 58
3 47 44 60
3 60 44 45
3 60 45 61
3 61 45 56
3 62 46 63
3 63 46 47
3 63 47 64
3 64 47 60
3 48 49 68
3 51 48 68
3 49 66 69
3 68 49 69
3 50 51 70
3 53 50 70
3 51 68 71
3 70 51 71
3 52 53 72
3 54 52 72
3 53 70 73
3 72 53 73
3 54 72 74
3 55 54 74
3 55 74 75
3 59 55 75
3 61 56 76
3 76 56 57
3 76 57 77
3 77 57 58
3 77 58 78
3 59 75 78
3 78 58 59
3 64 60 79
3 79 60 61
3 79 61 80
3 80 61 76
3 65 62 81
3 81 62 63
3 81 63 82
3 82 63 64
3 82 64 83
3 83 64 79
3 84 65 85
3 85 65 81
3 66 67 89
3 69 66 89
3 67 87 90
3 89 67 90
3 68 69 91
3 71 68 91
3 69 89 92
3 91 69 92
3 70 71 93
3 73 70 93
3 71 91 94
3 93 71 94
3 72 73 95
3 74 72 95
3 73 93 96
3 95 73 96
3 74 95 97
3 75 74 97
3 75 97 98
3 78 75 98
3 80 76 99
3 99 76 77
3 99 77 100
3 100 77 78
3 100 78 101
3 98 101 78
3 83 79 102
3 102 79 80
3 102 80 103
3 103 80 99
3 85 81 104
3 104 81 82
3 105 83 102
3 104 82 106
3 106 82 83
3 106 83 105
3 86 84 107
3 107 84 85
3 107 85 108
3 108 85 104
3 109 86 107
3 110 86 109
3 87 88 112
3 90 87 112
3 112 88 113
3 88 114 113
3 90 112 115
3 89 90 116
3 92 89 116
3 116 90 115
3 91 92 117
3 94 91 117
3 92 116 118
3 117 92 118
3 93 94 119
3 96 93 119
3 94 117 120
3 119 94 120
3 95 96 121
3 97 95 121
3 96 119 122
3 121 96 122
3 97 121 123
3 98 97 123
3 98 123 124
3 98 124 101
3 103 99 125
3 125 99 100
3 125 100 126
3 126 100 101
3 126 101 124
3 105 102 127
3 127 102 103
3 127 103 128
3 128 103 125
3 129 105 127
3 108 104 130
3 130 104 106
3 130 106 131
3 131 106 105
3 131 105 129
3 108 130 132
3 109 107 133
3 133 107 108
3 133 108 134
3 108 132 134
3 135 109 133
3 111 110 136
3 136 110 109
3 136 109 135
3 137 111 136
3 138 111 137
3 112 113 139
3 115 112 139
3 114 140 113
3 140 139 113
3 139 141 115
3 116 115 142
3 118 116 142
3 142 115 141
3 117 118 143
3 120 117 143
3 118 142 144
3 143 118 144
3 119 120 145
3 122 119 145
3 120 143 146
3 145 120 146
3 121 122 147
3 123 121 147
3 122 145 148
3 147 122 148
3 123 147 149
3 124 123 149
3 124 149 150
3 151 126 124
3 124 150 151
3 128 125 152
3 152 125 126
3 152 126 151
3 129 127 153
3 153 127 128
3 128 152 154
3 153 128 154
3 155 129 153
3 131 129 156
3 156 129 155
3 132 130 157
3 130 131 157
3 157 131 158
3 131 156 158
3 132 157 159
3 132 159 134
3 135 133 160
3 160 133 134
3 160 134 159
3 136 135 161
3 135 160 161
3 162 137 136
3 161 162 136
3 163 138 137
3 162 163 137
3 139 164 141
3 140 165 139
3 139 165 164
3 141 164 166
3 141 166 142
3 166 167 142
3 144 142 167
3 167 168 144
3 143 144 168
3 146 143 168
3 168 169 146
3 145 146 170
3 148 145 170
3 170 146 169
3 147 148 171
3 149 147 171
3 148 170 172
3 171 148 172
3 173 151 150
3 149 171 174
3 150 149 174
3 150 174 175
3 150 175 173
3 154 152 176
3 152 151 176
3 176 151 173
3 154 176 177
3 155 153 178
3 177 178 154
3 154 178 153
3 156 155 179
3 155 178 179
3 180 158 156
3 179 180 156
3 181 159 157
3 180 181 158
3 181 157 158
3 182 160 159
3 181 182 159
3 183 161 160
3 182 183 160
3 184 162 161
3 184 161 183
3 185 163 162
3 184 185 162
3 164 186 166
3 165 187 164
3 164 187 186
3 166 186 188
3 166 188 167
3 167 188 189
3 167 189 168
3 168 189 190
3 168 190 169
3 169 190 191
3 169 191 170
3 192 172 170
3 170 191 192
3 192 193 172
3 171 172 193
3 174 171 193
3 194 173 175
3 176 173 194
3 175 174 195
3 193 195 174
3 195 196 175
3 175 196 194
3 197 177 176
3 194 197 176
3 198 178 177
3 197 198 177
3 199 179 178
3 198 199 178
3 200 180 179
3 199 200 179
3 201 181 180
3 200 201 180
3 202 182 181
3 201 202 181
3 203 183 182
3 202 203 182
3 204 184 183
3 203 204 183
3 205 185 184
3 204 205 184
3 186 206 188
3 187 207 186
3 186 207 206
3 188 206 208
3 188 208 189
3 189 208 209
3 189 209 190
3 190 209 210
3 190 210 191
3 191 210 211
3 191 211 192
3 192 211 212
3 192 212 193
3 193 212 213
3 193 213 195
3 214 197 194
3 214 194 196
3 195 213 215
3 195 215 196
3 196 215 214
3 216 198 197
3 214 216 197
3 217 199 198
3 216 217 198
3 218 200 199
3 217 218 199
3 219 201 200
3 218 219 200
3 220 202 201
3 219 220 201
3 221 203 202
3 220 221 202
3 222 204 203
3 221 222 203
3 223 205 204
3 222 223 204
3 206 224 208
3 207 225 206
3 206 225 224
3 208 224 226
3 208 226 209
3 209 226 227
3 209 227 210
3 210 227 228
3 210 228 211
3 211 228 229
3 211 229 212
3 212 229 230
3 212 230 213
3 213 230 231
3 213 231 215
3 232 216 214
3 215 231 232
3 232 214 215
3 233 217 216
3 232 233 216
3 234 218 217
3 233 234 217
3 235 219 218
3 234 235 218
3 236 220 219
3 235 236 219
3 237 221 220
3 236 237 220
3 238 222 221
3 237 238 221
3 239 223 222
3 238 239 222
3 224 240 226
3 225 241 224
3 224 241 240
3 226 240 242
3 226 242 227
3 227 242 243
3 227 243 228
3 228 243 244
3 228 244 229
3 244 245 229
3 229 245 230
3 230 245 246
3 230 246 231
3 231 246 247
3 231 247 232
3 248 233 232
3 248 232 247
3 249 234 233
3 248 249 233
3 250 235 234
3 249 250 234
3 251 236 235
3 250 251 235
3 252 237 236
3 251 252 236
3 253 238 237
3 252 253 237
3 254 239 238
3 253 254 238
3 240 255 242
3 241 256 240
3 240 256 255
3 242 255 257
3 242 257 243
3 243 257 258
3 243 258 244
3 244 258 259
3 244 259 245
3 245 259 260
3 245 260 246
3 246 260 261
3 246 261 247
3 248 247 261
3 262 249 248
3 261 262 248
3 263 250 249
3 262 263 249
3 264 251 250
3 263 264 250
3 265 252 251
3 264 265 251
3 266 253 252
3 265 266 252
3 267 254 253
3 266 267 253
3 255 268 257
3 256 269 255
3 255 269 268
3 257 268 270
3 257 270 258
3 258 270 271
3 258 271 259
3 259 271 272
3 259 272 260
3 260 272 273
3 260 273 261
3 274 262 261
3 261 273 274
3 275 263 262
3 274 275 262
3 276 264 263
3 275 276 263
3 277 265 264
3 276 277 264
3 278 266 265
3 277 278 265
3 279 267 266
3 278 279 266
3 268 280 270
3 269 281 268
3 268 281 280
3 270 280 282
3 270 282 271
3 271 282 283
3 271 283 272
3 283 284 272
3 272 284 273
3 285 275 274
3 273 284 285
3 285 274 273
3 286 276 275
3 285 286 275
3 287 277 276
3 286 287 276
3 288 278 277
3 287 288 277
3 289 279 278
3 288 289 278
3 280 290 282
3 281 291 280
3 280 291 290
3 282 290 292
3 282 292 283
3 283 292 293
3 283 293 284
3 284 293 294
3 284 294 285
3 295 286 285
3 295 285 294
3 296 287 286
3 295 296 286
3 297 288 287
3 296 297 287
3 298 289 288
3 297 298 288
3 290 299 292
3 291 300 290
3 290 300 299
3 292 299 301
3 292 301 293
3 293 301 302
3 293 302 294
3 294 302 295
3 303 296 295
3 303 295 302
3 304 297 296
3 303 304 296
3 305 298 297
3 304 305 297
3 299 306 301
3 300 307 299
3 299 307 306
3 301 306 308
3 301 308 302
3 309 303 302
3 302 308 309
3 310 304 303
3 309 310 303
3 311 305 304
3 310 311 304
3 306 312 308
3 307 313 306
3 306 313 312
3 314 310 309
3 308 312 314
3 314 309 308
3 315 311 310
3 314 315 310
3 312 316 314
3 313 317 312
3 312 317 316
3 318 315 314
3 318 314 316
3 317 319 316
3 319 318 316
CELL_TYPES 578
5
5
5
5
5
5
5
5
5
5
5
5
5
5
5
5
5
5
5
5
5
5
5
5
5
5
5
5
5
5
5
5
5
5
5
5
5
5
5
5
5
5
5
5
5
5
5
5
5
5
5
5
5
5
5
5
5
5
5
5
5
5
5
5
5
5
5
5
5
5
5
5
5
5
5
5
5
5
5
5
5
5
5
5
5
5
5
5
5
5
5
5
5
5
5
5
5
5
5
5
5
5
5
5
5
5
5
5
5
5
5
5
5
5
5
5
5
5
5
5
5
5
5
5
5
5
5
5
5
5
5
5
5
5
5
5
5
5
5
5
5
5
5
5
5
5
5
5
5
5
5
5
5
5
5
5
5
5
5
5
5
5
5
5
5
5
5
5
5
5
5
5
5
5
5
5
5
5
5
5
5
5
5
5
5
5
5
5
5
5
5
5
5
5
5
5
5
5
5
5
5
5
5
5
5
5
5
5
5
5
5
5
5
5
5
5
5
5
5
5
5
5
5
5
5
5
5
5
5
5
5
5
5
5
5
5
5
5
5
5
5
5
5
5
5
5
5
5
5
5
5
5
5
5
5
5
5
5
5
5
5
5
5
5
5
5
5
5
5
5
5
5
5
5
5
5
5
5
5
5
5
5
5
5
5
5
5
5
5
5
5
5
5
5
5
5
5
5
5
5
5
5
5
5
5
5
5
5
5
5
5
5
5
5
5
5
5
5
5
5
5
5
5
5
5
5
5
5
5
5
5
5
5
5
5
5
5
5
5
5
5
5
5
5
5
5
5
5
5
5
5
5
5
5
5
5
5
5
5
5
5
5
5
5
5
5
5
5
5
5
5
5
5
5
5
5
5
5
5
5
5
5
5
5
5
5
5
5
5
5
5
5
5
5
5
5
5
5
5
5
5
5
5
5
5
5
5
5
5
5
5
5
5
5
5
5
5
5
5
5
5
5
5
5
5
5
5
5
5
5
5
5
5
5
5
5
5
5
5
5
5
5
5
5
5
5
5
5
5
5
5
5
5
5
5
5
5
5
5
5
5
5
5
5
5
5
5
5
5
5
5
5
5
5
5
5
5
5
5
5
5
5
5
5
5
5
5
5
5
5
5
5
5
5
5
5
5
5
5
5
5
5
5
5
5
5
5
5
5
5
5
5
5
5
5
5
5
5
5
5
5
5
5
5
5
5
5
5
5
5
5
5
5
5
5
5
5
5
5
5
5
5
5
5
5
5
5
5
5
5
5
5
5
5
5
5
5
5
5
5
5
5
5
5
5
5
5
5
5
5
5
5
5
5
5
5
5
5
POINT_DATA 320
SCALARS theta_e float 1
LOOKUP_TABLE default
0.993374
0.993384
0.993376
0.993374
0.993410
0.993380
0.993393
0.993382
0.993399
0.993450
0.993425
0.993391
0.993403
0.993395
0.993435
0.993418
0.993494
0.993465
0.993436
0.993413
0.993421
0.993540
0.993486
0.993550
0.993463
0.993448
0.993511
0.993478
0.993454
0.993444
0.993451
0.993588
0.993558
0.993637
0.993619
0.993683
0.993522
0.993589
0.993501
0.993487
0.993524
0.993492
0.993476
0.993480
0.993606
0.993571
0.993688
0.993655
0.993737
0.993782
0.993655
0.993714
0.993566
0.993635
0.993546
0.993526
0.993528
0.993498
0.993497
0.993516
0.993616
0.993563
0.993740
0.993704
0.993659
0.993789
0.993822
0.993861
0.993764
0.993806
0.993699
0.993753
0.993613
0.993681
0.993584
0.993567
0.993525
0.993544
0.993574
0.993599
0.993553
0.993752
0.993698
0.993636
0.993830
0.993796
0.993860
0.993900
0.993930
0.993844
0.993881
0.993797
0.993834
0.993742
0.993792
0.993642
0.993700
0.993600
0.993603
0.993618
0.993673
0.993656
0.993581
0.993669
0.993738
0.993609
0.993670
0.993834
0.993776
0.993862
0.993876
0.993879
0.993913
0.993935
0.993944
0.993894
0.993867
0.993830
0.993856
0.993760
0.993814
0.993633
0.993682
0.993588
0.993556
0.993779
0.993714
0.993663
0.993770
0.993618
0.993701
0.993637
0.993727
0.993821
0.993773
0.993847
0.993872
0.993878
0.993878
0.993912
0.993931
0.993891
0.993875
0.993851
0.993863
0.993751
0.993818
0.993608
0.993653
0.993508
0.993702
0.993592
0.993748
0.993713
0.993766
0.993619
0.993586
0.993679
0.993644
0.993728
0.993799
0.993848
0.993870
0.993876
0.993882
0.993903
0.993867
0.993859
0.993852
0.993816
0.993741
0.993600
0.993641
0.993775
0.993644
0.993716
0.993747
0.993769
0.993654
0.993574
0.993618
0.993678
0.993748
0.993813
0.993853
0.993867
0.993845
0.993863
0.993837
0.993833
0.993823
0.993774
0.993703
0.993668
0.993750
0.993592
0.993497
0.993826
0.993610
0.993570
0.993577
0.993653
0.993705
0.993775
0.993827
0.993850
0.993804
0.993820
0.993798
0.993794
0.993786
0.993766
0.993712
0.993616
0.993668
0.993539
0.993580
0.993573
0.993568
0.993634
0.993671
0.993736
0.993794
0.993823
0.993757
0.993774
0.993750
0.993744
0.993743
0.993763
0.993724
0.993587
0.993546
0.993579
0.993583
0.993621
0.993639
0.993698
0.993756
0.993788
0.993703
0.993722
0.993693
0.993683
0.993688
0.993732
0.993745
0.993698
0.993650
0.993603
0.993597
0.993604
0.993657
0.993714
0.993748
0.993642
0.993663
0.993631
0.993616
0.993617
0.993649
0.993664
0.993599
0.993561
0.993567
0.993614
0.993667
0.993703
0.993577
0.993598
0.993566
0.993552
0.993543
0.993546
0.993547
0.993521
0.993531
0.993569
0.993616
0.993652
0.993514
0.993533
0.993505
0.993497
0.993490
0.993489
0.993496
0.993523
0.993562
0.993598
0.993460
0.993476
0.993453
0.993453
0.993462
0.993461
0.993479
0.993511
0.993544
0.993420
0.993432
0.993416
0.993427
0.993440
0.993463
0.993493
0.993394
0.993402
0.993396
0.993408
0.993421
0.993445
0.993379
0.993383
0.993389
0.993404
0.993373
0.993373
0.993380
0.993372
VECTORS fa_u float
0.000000 0.000000 0.000000
0.000000 0.000000 0.000000
0.000000 0.000000 0.000000
0.000000 0.000000 0.000000
0.000000 0.000000 0.000000
0.000000 0.000000 0.000000
0.000000 0.000000 0.000000
0.000000 0.000000 0.000000
0.000000 0.000000 0.000000
0.000000 0.000000 0.000000
0.000000 0.000000 0.000000
0.000000 0.000000 0.000000
0.000000 0.000000 0.000000
0.000000 0.000000 0.000000
0.000000 0.000000 0.000000
0.000000 0.000000 0.000000
0.000000 0.000000 0.000000
0.000000 0.000000 0.000000
0.000000 0.000000 0.000000
0.000000 0.000000 0.000000
0.000000 0.000000 0.000000
0.000000 0.000000 0.000000
0.000000 0.000000 0.000000
0.000000 0.000000 0.000000
0.000000 0.000000 0.000000
0.000000 0.000000 0.000000
0.000000 0.000000 0.000000
0.000000 0.000000 0.000000
0.000000 0.000000 0.000000
0.000000 0.000000 0.000000
0.000000 0.000000 0.000000
0.000000 0.000000 0.000000
0.000000 0.000000 0.000000
0.000000 0.000000 0.000000
0.000000 0.000000 0.000000
0.000000 0.000000 0.000000
0.000000 0.000000 0.000000
0.000000 0.000000 0.000000
0.000000 0.000000 0.000000
0.000000 0.000000 0.000000
0.000000 0.000000 0.000000
0.000000 0.000000 0.000000
0.000000 0.000000 0.000000
0.000000 0.000000 0.000000
0.000000 0.000000 0.000000
0.000000 0.000000 0.000000
0.000000 0.000000 0.000000
0.000000 0.000000 0.000000
0.000000 0.000000 0.000000
0.000000 0.000000 0.000000
0.000000 0.000000 0.000000
0.000000 0.000000 0.000000
0.000000 0.000000 0.000000
0.000000 0.000000 0.000000
0.000000 0.000000 0.000000
0.000000 0.000000 0.000000
0.000000 0.000000 0.000000
0.000000 0.000000 0.000000
0.000000 0.000000 0.000000
0.000000 0.000000 0.000000
0.000000 0.000000 0.000000
0.000000 0.000000 0.000000
0.000000 0.000000 0.000000
0.000000 0.000000 0.000000
0.000000 0.000000 0.000000
0.000000 0.000000 0.000000
0.000000 0.000000 0.000000
0.000000 0.000000 0.000000
0.000000 0.000000 0.000000
0.000000 0.000000 0.000000
0.000000 0.000000 0.000000
0.000000 0.000000 0.000000
0.000000 0.000000 0.000000
0.000000 0.000000 0.000000
0.000000 0.000000 0.000000
0.000000 0.000000 0.000000
0.000000 0.000000 0.000000
0.000000 0.000000 0.000000
0.000000 0.000000 0.000000
0.000000 0.000000 0.000000
0.000000 0.000000 0.000000
0.000000 0.000000 0.000000
0.000000 0.000000 0.000000
0.000000 0.000000 0.000000
0.000000 0.000000 0.000000
0.000000 0.000000 0.000000
0.000000 0.000000 0.000000
0.000000 0.000000 0.000000
0.000000 0.000000 0.000000
0.000000 0.000000 0.000000
0.000000 0.000000 0.000000
0.000000 0.000000 0.000000
0.000000 0.000000 0.000000
0.000000 0.000000 0.000000
0.000000 0.000000 0.000000
0.000000 0.000000 0.000000
0.000000 0.000000 0.000000
0.000000 0.000000 0.000000
0.000000 0.000000 0.000000
0.000000 0.000000 0.000000
0.000000 0.000000 0.000000
0.000000 0.000000 0.000000
0.000000 0.000000 0.000000
0.000000 0.000000 0.000000
0.000000 0.000000 0.000000
0.000000 0.000000 0.000000
0.000000 0.000000 0.000000
0.000000 0.000000 0.000000
0.000000 0.000000 0.000000
0.000000 0.000000 0.000000
0.000000 0.000000 0.000000
0.000000 0.000000 0.000000
0.000000 0.000000 0.000000
0.000000 0.000000 0.000000
0.000000 0.000000 0.000000
0.000000 0.000000 0.000000
0.000000 0.000000 0.000000
0.000000 0.000000 0.000000
0.000000 0.000000 0.000000
0.000000 0.000000 0.000000
0.000000 0.000000 0.000000
0.000000 0.000000 0.000000
0.000000 0.000000 0.000000
0.000000 0.000000 0.000000
0.000000 0.000000 0.000000
0.000000 0.000000 0.000000
0.000000 0.000000 0.000000
0.000000 0.000000 0.000000
0.000000 0.000000 0.000000
0.000000 0.000000 0.000000
0.000000 0.000000 0.000000
0.000000 0.000000 0.000000
0.000000 0.000000 0.000000
0.000000 0.000000 0.000000
0.000000 0.000000 0.000000
0.000000 0.000000 0.000000
0.000000 0.000000 0.000000
0.000000 0.000000 0.000000
0.000000 0.000000 0.000000
0.000000 0.000000 0.000000
0.000000 0.000000 0.000000
0.000000 0.000000 0.000000
0.000000 0.000000 0.000000
0.000000 0.000000 0.000000
0.000000 0.000000 0.000000
0.000000 0.000000 0.000000
0.000000 0.000000 0.000000
0.000000 0.000000 0.000000
0.000000 0.000000 0.000000
0.000000 0.000000 0.000000
0.000000 0.000000 0.000000
0.000000 0.000000 0.000000
0.000000 0.000000 0.000000
0.000000 0.000000 0.000000
0.000000 0.000000 0.000000
0.000000 0.000000 0.000000
0.000000 0.000000 0.000000
0.000000 0.000000 0.000000
0.000000 0.000000 0.000000
0.000000 0.000000 0.000000
0.000000 0.000000 0.000000
0.000000 0.000000 0.000000
0.000000 0.000000 0.000000
0.000000 0.000000 0.000000
0.000000 0.000000 0.000000
0.000000 0.000000 0.000000
0.000000 0.000000 0.000000
0.000000 0.000000 0.000000
0.000000 0.000000 0.000000
0.000000 0.000000 0.000000
0.000000 0.000000 0.000000
0.000000 0.000000 0.000000
0.000000 0.000000 0.000000
0.000000 0.000000 0.000000
0.000000 0.000000 0.000000
0.000000 0.000000 0.000000
0.000000 0.000000 0.000000
0.000000 0.000000 0.000000
0.000000 0.000000 0.000000
0.000000 0.000000 0.000000
0.000000 0.000000 0.000000
0.000000 0.000000 0.000000
0.000000 0.000000 0.000000
0.000000 0.000000 0.000000
0.000000 0.000000 0.000000
0.000000 0.000000 0.000000
0.000000 0.000000 0.000000
0.000000 0.000000 0.000000
0.000000 0.000000 0.000000
0.000000 0.000000 0.000000
0.000000 0.000000 0.000000
0.000000 0.000000 0.000000
0.000000 0.000000 0.000000
0.000000 0.000000 0.000000
0.000000 0.000000 0.000000
0.000000 0.000000 0.000000
0.000000 0.000000 0.000000
0.000000 0.000000 0.000000
0.000000 0.000000 0.000000
0.000000 0.000000 0.000000
0.000000 0.000000 0.000000
0.000000 0.000000 0.000000
0.000000 0.000000 0.000000
0.000000 0.000000 0.000000
0.000000 0.000000 0.000000
0.000000 0.000000 0.000000
0.000000 0.000000 0.000000
0.000000 0.000000 0.000000
0.000000 0.000000 0.000000
0.000000 0.000000 0.000000
0.000000 0.000000 0.000000
0.000000 0.000000 0.000000
0.000000 0.000000 0.000000
0.000000 0.000000 0.000000
0.000000 0.000000 0.000000
0.000000 0.000000 0.000000
0.000000 0.000000 0.000000
0.000000 0.000000 0.000000
0.000000 0.000000 0.000000
0.000000 0.000000 0.000000
0.000000 0.000000 0.000000
0.000000 0.000000 0.000000
0.000000 0.000000 0.000000
0.000000 0.000000 0.000000
0.000000 0.000000 0.000000
0.000000 0.000000 0.000000
0.000000 0.000000 0.000000
0.000000 0.000000 0.000000
0.000000 0.000000 0.000000
0.000000 0.000000 0.000000
0.000000 0.000000 0.000000
0.000000 0.000000 0.000000
0.000000 0.000000 0.000000
0.000000 0.000000 0.000000
0.000000 0.000000 0.000000
0.000000 0.000000 0.000000
0.000000 0.000000 0.000000
0.000000 0.000000 0.000000
0.000000 0.000000 0.000000
0.000000 0.000000 0.000000
0.000000 0.000000 0.000000
0.000000 0.000000 0.000000
0.000000 0.000000 0.000000
0.000000 0.000000 0.000000
0.000000 0.000000 0.000000
0.000000 0.000000 0.000000
0.000000 0.000000 0.000000
0.000000 0.000000 0.000000
0.000000 0.000000 0.000000
0.000000 0.000000 0.000000
0.000000 0.000000 0.000000
0.000000 0.000000 0.000000
0.000000 0.000000 0.000000
0.000000 0.000000 0.000000
0.000000 0.000000 0.000000
0.000000 0.000000 0.000000
0.000000 0.000000 0.000000
0.000000 0.000000 0.000000
0.000000 0.000000 0.000000
0.000000 0.000000 0.000000
0.000000 0.000000 0.000000
0.000000 0.000000 0.000000
0.000000 0.000000 0.000000
0.000000 0.000000 0.000000
0.000000 0.000000 0.000000
0.000000 0.000000 0.000000
0.000000 0.000000 0.000000
0.000000 0.000000 0.000000
0.000000 0.000000 0.000000
0.000000 0.000000 0.000000
0.000000 0.000000 0.000000
0.000000 0.000000 0.000000
0.000000 0.000000 0.000000
0.000000 0.000000 0.000000
0.000000 0.000000 0.000000
0.000000 0.000000 0.000000
0.000000 0.000000 0.000000
0.000000 0.000000 0.000000
0.000000 0.000000 0.000000
0.000000 0.000000 0.000000
0.000000 0.000000 0.000000
0.000000 0.000000 0.000000
0.000000 0.000000 0.000000
0.000000 0.000000 0.000000
0.000000 0.000000 0.000000
0.000000 0.000000 0.000000
0.000000 0.000000 0.000000
0.000000 0.000000 0.000000
0.000000 0.000000 0.000000
0.000000 0.000000 0.000000
0.000000 0.000000 0.000000
0.000000 0.000000 0.000000
0.000000 0.000000 0.000000
0.000000 0.000000 0.000000
0.000000 0.000000 0.000000
0.000000 0.000000 0.000000
0.000000 0.000000 -50.000000
-50.000000 0.000000 -50.000000
-43.344054 0.000000 -45.687909
-45.527778 0.000000 -43.283733
-50.000000 0.000000 -50.000000
-36.686496 0.000000 -36.568332
-50.000000 0.000000 -45.079690
-40.038738 0.000000 -40.018787
-44.200371 0.000000 -29.853891
-50.000000 0.000000 -50.000000
-30.027811 0.000000 -44.845377
-33.558770 0.000000 -33.114699
-44.722046 0.000000 -39.854850
-36.878626 0.000000 -35.107026
-39.881663 0.000000 -23.141382
-50.000000 0.000000 -26.496149
-44.711442 0.000000 -50.000000
-23.369733 0.000000 -44.661812
-26.957842 0.000000 -39.347516
-30.361760 0.000000 -29.573388
-39.441365 0.000000 -33.339986
-33.776346 0.000000 -50.000000
-16.710665 0.000000 -16.438316
-50.000000 0.000000 -9.746497
