# vtk DataFile Version 2.0
CellBP Time: 3.32
ASCII
DATASET UNSTRUCTURED_GRID
POINTS 320 double
-50.000000 -50.000000 0.000000
-50.000000 -43.336251 0.000000
-45.691520 -45.522695 0.000000
-43.289101 -50.000000 0.000000
-50.000000 -36.671477 0.000000
-36.578463 -50.000000 0.000000
-45.083733 -40.027611 0.000000
-40.026801 -44.194051 0.000000
-29.868064 -50.000000 0.000000
-50.000000 -30.006476 0.000000
-44.849421 -33.541243 0.000000
-33.127397 -44.716798 0.000000
-39.862689 -36.864836 0.000000
-35.118295 -39.871390 0.000000
-23.158709 -50.000000 0.000000
-26.512551 -44.706547 0.000000
-50.000000 -23.343248 0.000000
-44.665850 -26.934783 0.000000
-39.355440 -30.342146 0.000000
-29.588137 -39.431388 0.000000
-33.352068 -33.760649 0.000000
-50.000000 -16.680486 0.000000
-16.457718 -50.000000 0.000000
-9.766898 -50.000000 0.000000
-19.931399 -44.625506 0.000000
-23.184610 -39.186373 0.000000
-44.690895 -20.264953 0.000000
-39.356252 -23.682416 0.000000
-34.081782 -27.080611 0.000000
-26.357240 -33.686094 0.000000
-29.122879 -29.064795 0.000000
-50.000000 -10.020579 0.000000
-44.662429 -13.616081 0.000000
-50.000000 -3.365904 0.000000
-3.085451 -50.000000 0.000000
3.583551 -50.000000 0.000000
-13.303785 -44.631562 0.000000
-6.638532 -44.641126 0.000000
-16.649575 -39.218159 0.000000
-20.063682 -33.449652 0.000000
-39.321905 -16.998385 0.000000
-33.992922 -20.459388 0.000000
-28.741256 -23.625746 0.000000
-23.459480 -27.507517 0.000000
-44.625029 -6.950571 0.000000
-39.264072 -10.341918 0.000000
-50.000000 3.290845 0.000000
-44.608359 -0.298711 0.000000
10.238386 -50.000000 0.000000
16.880700 -50.000000 0.000000
0.035562 -44.644822 0.000000
6.705981 -44.655028 0.000000
-9.988024 -39.285020 0.000000
-3.303564 -39.279146 0.000000
-13.423376 -33.897120 0.000000
-16.638684 -28.419982 0.000000
-33.903416 -13.753455 0.000000
-28.544900 -17.120990 0.000000
-23.224302 -20.526261 0.000000
-18.585372 -23.474674 0.000000
-39.222059 -3.685467 0.000000
-33.831496 -7.105895 0.000000
-50.000000 9.980881 0.000000
-44.590688 6.356223 0.000000
-39.198864 2.975754 0.000000
-50.000000 16.740675 0.000000
23.514276 -50.000000 0.000000
30.141156 -50.000000 0.000000
13.370897 -44.676064 0.000000
20.038390 -44.708276 0.000000
3.376068 -39.294368 0.000000
10.039444 -39.328106 0.000000
-6.659776 -33.884446 0.000000
0.047300 -33.911195 0.000000
-10.005332 -28.429180 0.000000
-13.029447 -23.085955 0.000000
-28.438118 -10.511883 0.000000
-22.962227 -13.938188 0.000000
-16.872993 -17.447385 0.000000
-33.773881 -0.466997 0.000000
-28.419732 -3.957489 0.000000
-44.554362 13.048172 0.000000
-39.135417 9.604677 0.000000
-33.737382 6.068319 0.000000
-50.000000 23.602837 0.000000
-44.599695 19.842472 0.000000
-50.000000 30.559251 0.000000
36.760893 -50.000000 0.000000
43.380468 -50.000000 0.000000
26.703629 -44.748154 0.000000
33.345745 -44.872753 0.000000
16.693393 -39.384615 0.000000
23.378517 -39.454756 0.000000
6.722158 -33.945223 0.000000
13.364205 -34.013263 0.000000
-3.248192 -28.478455 0.000000
3.453232 -28.549446 0.000000
-6.514977 -23.007081 0.000000
-9.852564 -17.530091 0.000000
-23.025340 -7.365370 0.000000
-17.649362 -10.633510 0.000000
-12.685221 -12.851293 0.000000
-28.380642 2.605019 0.000000
-23.031062 -0.912605 0.000000
-39.000454 16.294811 0.000000
-28.349760 9.299556 0.000000
-33.524479 12.472101 0.000000
-44.743143 26.610424 0.000000
-38.718629 23.651306 0.000000
-44.991190 33.409135 0.000000
-50.000000 37.504165 0.000000
-50.000000 43.862190 0.000000
39.938395 -45.066801 0.000000
45.474562 -45.656066 0.000000
50.000000 -50.000000 0.000000
36.651522 -39.987206 0.000000
30.048440 -39.469026 0.000000
19.965471 -34.125012 0.000000
26.632742 -34.341578 0.000000
10.077597 -28.587440 0.000000
16.686527 -28.710041 0.000000
0.171036 -23.091119 0.000000
6.921207 -23.261492 0.000000
-3.262366 -17.482838 0.000000
-6.694861 -11.306374 0.000000
-17.641808 -4.203583 0.000000
-12.325948 -7.347700 0.000000
-22.964876 5.525443 0.000000
-17.725443 2.006612 0.000000
-22.633655 11.465100 0.000000
-33.319905 18.500100 0.000000
-27.401180 16.112174 0.000000
-33.040368 23.837646 0.000000
-40.305033 30.539517 0.000000
-35.407609 28.961401 0.000000
-39.920602 35.507683 0.000000
-43.918839 40.174824 0.000000
-45.273435 45.768486 0.000000
-50.000000 50.000000 0.000000
44.121639 -39.898019 0.000000
50.000000 -43.381896 0.000000
39.653900 -35.056156 0.000000
33.494892 -33.440617 0.000000
23.045932 -28.856840 0.000000
28.778807 -29.274920 0.000000
13.552662 -23.194868 0.000000
20.132054 -23.493874 0.000000
3.529587 -17.721891 0.000000
10.242115 -17.930269 0.000000
0.305353 -12.228063 0.000000
-1.946572 -6.529834 0.000000
-7.169287 -4.011640 0.000000
-12.350419 -1.157898 0.000000
-17.734306 8.041546 0.000000
-12.622588 4.826379 0.000000
-18.006733 13.149087 0.000000
-20.760861 16.813842 0.000000
-28.025606 22.514939 0.000000
-23.346253 21.002765 0.000000
-29.738337 28.655442 0.000000
-34.154219 34.090801 0.000000
-36.863830 39.947540 0.000000
-39.630979 45.269218 0.000000
-43.403261 50.000000 0.000000
44.588413 -32.982984 0.000000
50.000000 -36.750702 0.000000
39.151725 -29.596681 0.000000
33.540553 -26.393745 0.000000
27.242416 -23.363763 0.000000
23.139506 -18.703608 0.000000
17.082784 -17.047860 0.000000
6.853726 -12.333522 0.000000
12.467001 -12.815452 0.000000
-3.125895 -1.737726 0.000000
4.132959 -7.215942 0.000000
1.257206 -2.309034 0.000000
-6.755762 2.057779 0.000000
-8.096885 7.552309 0.000000
-12.347214 11.562480 0.000000
-15.071462 17.321786 0.000000
-18.480108 22.728621 0.000000
-23.577422 27.212725 0.000000
-26.948277 33.607870 0.000000
-30.044686 39.314298 0.000000
-33.116501 44.837946 0.000000
-36.642636 50.000000 0.000000
44.556773 -26.516220 0.000000
50.000000 -30.122599 0.000000
39.067097 -23.203906 0.000000
33.498552 -19.931808 0.000000
28.107821 -16.625114 0.000000
22.773780 -13.188239 0.000000
17.291984 -9.993951 0.000000
11.102222 -6.751999 0.000000
-1.128071 2.116741 0.000000
6.449446 -1.856437 0.000000
3.150624 1.451145 0.000000
-3.257822 7.010938 0.000000
-5.907414 12.205872 0.000000
-9.121937 17.446939 0.000000
-12.570504 22.895296 0.000000
-16.792783 28.037291 0.000000
-20.180760 33.359110 0.000000
-23.307152 38.991771 0.000000
-26.447350 44.610637 0.000000
-29.897086 50.000000 0.000000
44.541494 -19.950468 0.000000
50.000000 -23.488108 0.000000
39.072406 -16.624040 0.000000
33.637957 -13.321576 0.000000
28.237187 -10.026456 0.000000
22.839830 -6.680880 0.000000
17.412225 -3.432523 0.000000
12.246854 0.080083 0.000000
2.196441 6.136621 0.000000
7.330562 3.740872 0.000000
0.142383 11.804950 0.000000
-2.856797 17.336142 0.000000
-6.246995 22.820990 0.000000
-10.131376 28.137039 0.000000
-13.343685 33.549163 0.000000
-16.606668 38.996324 0.000000
-19.792918 44.501485 0.000000
-23.197264 50.000000 0.000000
44.554701 -13.324314 0.000000
50.000000 -16.845307 0.000000
39.124986 -9.998585 0.000000
33.718293 -6.685552 0.000000
28.337702 -3.369792 0.000000
22.984812 -0.059265 0.000000
17.725677 3.273619 0.000000
12.472394 6.485382 0.000000
7.034003 10.722011 0.000000
3.638321 17.047749 0.000000
0.279424 22.724690 0.000000
-3.159945 28.215925 0.000000
-6.499868 33.694588 0.000000
-9.836747 39.111707 0.000000
-13.133482 44.531287 0.000000
-16.569344 50.000000 0.000000
44.578122 -6.674005 0.000000
50.000000 -10.191239 0.000000
39.175082 -3.353063 0.000000
33.795446 -0.034702 0.000000
28.451543 3.286715 0.000000
23.164702 6.625678 0.000000
18.040233 9.950177 0.000000
12.901891 12.123904 0.000000
10.057775 17.136150 0.000000
6.761432 22.635618 0.000000
3.477782 28.200115 0.000000
0.164733 33.684159 0.000000
-3.163736 39.131203 0.000000
-6.463111 44.562066 0.000000
-9.931508 50.000000 0.000000
44.603467 -0.014732 0.000000
50.000000 -3.525434 0.000000
39.224600 3.303765 0.000000
33.870736 6.618633 0.000000
28.554361 9.948950 0.000000
23.215095 13.362716 0.000000
17.155117 16.961784 0.000000
13.128079 22.612588 0.000000
10.046110 28.185759 0.000000
6.834525 33.685341 0.000000
3.509737 39.142321 0.000000
0.196416 44.574294 0.000000
-3.283490 50.000000 0.000000
44.617666 6.653081 0.000000
50.000000 3.151356 0.000000
39.259285 9.960781 0.000000
33.937334 13.251144 0.000000
28.668683 16.552886 0.000000
23.540854 20.048996 0.000000
18.714290 23.074188 0.000000
16.575628 28.267729 0.000000
13.514683 33.734614 0.000000
10.172422 39.171243 0.000000
6.859352 44.581951 0.000000
3.369985 50.000000 0.000000
44.641334 13.310045 0.000000
50.000000 9.837670 0.000000
39.311745 16.598997 0.000000
34.020430 19.847996 0.000000
28.727625 22.908117 0.000000
23.419659 27.188932 0.000000
20.050076 33.292151 0.000000
16.727230 39.035140 0.000000
13.432505 44.526626 0.000000
10.028660 50.000000 0.000000
44.664211 19.968659 0.000000
50.000000 16.530049 0.000000
39.356079 23.253824 0.000000
34.126961 26.507796 0.000000
29.075133 28.528989 0.000000
26.319137 33.400098 0.000000
23.190844 38.963996 0.000000
20.022885 44.507371 0.000000
16.687373 50.000000 0.000000
44.671671 26.640869 0.000000
50.000000 23.224561 0.000000
39.349478 29.962441 0.000000
33.296643 33.369620 0.000000
29.507465 39.042972 0.000000
26.527069 44.507252 0.000000
23.346810 50.000000 0.000000
44.805298 33.291083 0.000000
50.000000 29.919518 0.000000
39.788565 36.597182 0.000000
34.901650 39.528029 0.000000
32.909711 44.515427 0.000000
30.008474 50.000000 0.000000
45.006233 39.879540 0.000000
50.000000 36.614099 0.000000
39.785559 43.971694 0.000000
36.669616 50.000000 0.000000
45.645113 45.412979 0.000000
50.000000 43.307250 0.000000
43.331525 50.000000 0.000000
50.000000 50.000000 0.000000
CELLS 578 2312
3 1 0 2
3 0 3 2
3 4 1 6
3 6 1 2
3 3 5 7
3 3 7 2
3 6 2 7
3 9 4 10
3 10 4 6
3 5 8 11
3 7 5 11
3 10 6 12
3 12 6 7
3 7 11 13
3 7 13 12
3 8 14 15
3 11 8 15
3 16 9 17
3 17 9 10
3 17 10 18
3 18 10 12
3 11 15 19
3 13 11 19
3 18 12 20
3 13 19 20
3 20 12 13
3 14 22 24
3 15 14 24
3 15 24 25
3 19 15 25
3 21 16 26
3 26 16 17
3 26 17 27
3 27 17 18
3 27 18 28
3 28 18 20
3 19 25 29
3 19 29 20
3 28 20 30
3 30 20 29
3 31 21 32
3 32 21 26
3 22 23 36
3 24 22 36
3 23 34 37
3 36 23 37
3 24 36 38
3 25 24 38
3 25 38 39
3 29 25 39
3 32 26 40
3 40 26 27
3 40 27 41
3 41 27 28
3 41 28 42
3 42 28 30
3 29 39 43
3 29 43 30
3 42 30 43
3 33 31 44
3 44 31 32
3 44 32 45
3 45 32 40
3 46 33 47
3 47 33 44
3 34 35 50
3 37 34 50
3 35 48 51
3 50 35 51
3 36 37 52
3 38 36 52
3 37 50 53
3 52 37 53
3 38 52 54
3 39 38 54
3 39 54 55
3 43 39 55
3 45 40 56
3 56 40 41
3 56 41 57
3 57 41 42
3 57 42 58
3 58 42 43
3 43 55 59
3 43 59 58
3 47 44 60
3 60 44 45
3 60 45 61
3 61 45 56
3 62 46 63
3 63 46 47
3 63 47 64
3 64 47 60
3 48 49 68
3 51 48 68
3 49 66 69
3 68 49 69
3 50 51 70
3 53 50 70
3 51 68 71
3 70 51 71
3 52 53 72
3 54 52 72
3 53 70 73
3 72 53 73
3 54 72 74
3 55 54 74
3 55 74 75
3 59 55 75
3 61 56 76
3 76 56 57
3 76 57 77
3 77 57 58
3 77 58 78
3 59 75 78
3 78 58 59
3 64 60 79
3 79 60 61
3 79 61 80
3 80 61 76
3 65 62 81
3 81 62 63
3 81 63 82
3 82 63 64
3 82 64 83
3 83 64 79
3 84 65 85
3 85 65 81
3 66 67 89
3 69 66 89
3 67 87 90
3 89 67 90
3 68 69 91
3 71 68 91
3 69 89 92
3 91 69 92
3 70 71 93
3 73 70 93
3 71 91 94
3 93 71 94
3 72 73 95
3 74 72 95
3 73 93 96
3 95 73 96
3 74 95 97
3 75 74 97
3 75 97 98
3 78 75 98
3 80 76 99
3 99 76 77
3 99 77 100
3 100 77 78
3 100 78 101
3 98 101 78
3 83 79 102
3 102 79 80
3 102 80 103
3 103 80 99
3 85 81 104
3 104 81 82
3 105 83 102
3 104 82 106
3 106 82 83
3 106 83 105
3 86 84 107
3 107 84 85
3 107 85 108
3 108 85 104
3 109 86 107
3 110 86 109
3 87 88 112
3 90 87 112
3 112 88 113
3 88 114 113
3 90 112 115
3 89 90 116
3 92 89 116
3 116 90 115
3 91 92 117
3 94 91 117
3 92 116 118
3 117 92 118
3 93 94 119
3 96 93 119
3 94 117 120
3 119 94 120
3 95 96 121
3 97 95 121
3 96 119 122
3 121 96 122
3 97 121 123
3 98 97 123
3 98 123 124
3 98 124 101
3 103 99 125
3 125 99 100
3 125 100 126
3 126 100 101
3 126 101 124
3 105 102 127
3 127 102 103
3 127 103 128
3 128 103 125
3 129 105 127
3 108 104 130
3 130 104 106
3 130 106 131
3 131 106 105
3 131 105 129
3 108 130 132
3 109 107 133
3 133 107 108
3 133 108 134
3 108 132 134
3 135 109 133
3 111 110 136
3 136 110 109
3 136 109 135
3 137 111 136
3 138 111 137
3 112 113 139
3 115 112 139
3 114 140 113
3 140 139 113
3 139 141 115
3 116 115 142
3 118 116 142
3 142 115 141
3 117 118 143
3 120 117 143
3 118 142 144
3 143 118 144
3 119 120 145
3 122 119 145
3 120 143 146
3 145 120 146
3 121 122 147
3 123 121 147
3 122 145 148
3 147 122 148
3 123 147 149
3 124 123 149
3 124 149 150
3 151 126 124
3 124 150 151
3 128 125 152
3 152 125 126
3 152 126 151
3 129 127 153
3 153 127 128
3 128 152 154
3 153 128 154
3 155 129 153
3 131 129 156
3 156 129 155
3 132 130 157
3 130 131 157
3 157 131 158
3 131 156 158
3 132 157 159
3 132 159 134
3 135 133 160
3 160 133 134
3 160 134 159
3 136 135 161
3 135 160 161
3 162 137 136
3 161 162 136
3 163 138 137
3 162 163 137
3 139 164 141
3 140 165 139
3 139 165 164
3 141 164 166
3 141 166 142
3 166 167 142
3 144 142 167
3 167 168 144
3 143 144 168
3 146 143 168
3 168 169 146
3 145 146 170
3 148 145 170
3 170 146 169
3 147 148 171
3 149 147 171
3 148 170 172
3 171 148 172
3 173 151 150
3 149 171 174
3 150 149 174
3 150 174 175
3 150 175 173
3 154 152 176
3 152 151 176
3 176 151 173
3 154 176 177
3 155 153 178
3 177 178 154
3 154 178 153
3 156 155 179
3 155 178 179
3 180 158 156
3 179 180 156
3 181 159 157
3 180 181 158
3 181 157 158
3 182 160 159
3 181 182 159
3 183 161 160
3 182 183 160
3 184 162 161
3 184 161 183
3 185 163 162
3 184 185 162
3 164 186 166
3 165 187 164
3 164 187 186
3 166 186 188
3 166 188 167
3 167 188 189
3 167 189 168
3 168 189 190
3 168 190 169
3 169 190 191
3 169 191 170
3 192 172 170
3 170 191 192
3 192 193 172
3 171 172 193
3 174 171 193
3 194 173 175
3 176 173 194
3 175 174 195
3 193 195 174
3 195 196 175
3 175 196 194
3 197 177 176
3 194 197 176
3 198 178 177
3 197 198 177
3 199 179 178
3 198 199 178
3 200 180 179
3 199 200 179
3 201 181 180
3 200 201 180
3 202 182 181
3 201 202 181
3 203 183 182
3 202 203 182
3 204 184 183
3 203 204 183
3 205 185 184
3 204 205 184
3 186 206 188
3 187 207 186
3 186 207 206
3 188 206 208
3 188 208 189
3 189 208 209
3 189 209 190
3 190 209 210
3 190 210 191
3 191 210 211
3 191 211 192
3 192 211 212
3 192 212 193
3 193 212 213
3 193 213 195
3 214 197 194
3 214 194 196
3 195 213 215
3 195 215 196
3 196 215 214
3 216 198 197
3 214 216 197
3 217 199 198
3 216 217 198
3 218 200 199
3 217 218 199
3 219 201 200
3 218 219 200
3 220 202 201
3 219 220 201
3 221 203 202
3 220 221 202
3 222 204 203
3 221 222 203
3 223 205 204
3 222 223 204
3 206 224 208
3 207 225 206
3 206 225 224
3 208 224 226
3 208 226 209
3 209 226 227
3 209 227 210
3 210 227 228
3 210 228 211
3 211 228 229
3 211 229 212
3 212 229 230
3 212 230 213
3 213 230 231
3 213 231 215
3 232 216 214
3 215 231 232
3 232 214 215
3 233 217 216
3 232 233 216
3 234 218 217
3 233 234 217
3 235 219 218
3 234 235 218
3 236 220 219
3 235 236 219
3 237 221 220
3 236 237 220
3 238 222 221
3 237 238 221
3 239 223 222
3 238 239 222
3 224 240 226
3 225 241 224
3 224 241 240
3 226 240 242
3 226 242 227
3 227 242 243
3 227 243 228
3 228 243 244
3 228 244 229
3 244 245 229
3 229 245 230
3 230 245 246
3 230 246 231
3 231 246 247
3 231 247 232
3 248 233 232
3 248 232 247
3 249 234 233
3 248 249 233
3 250 235 234
3 249 250 234
3 251 236 235
3 250 251 235
3 252 237 236
3 251 252 236
3 253 238 237
3 252 253 237
3 254 239 238
3 253 254 238
3 240 255 242
3 241 256 240
3 240 256 255
3 242 255 257
3 242 257 243
3 243 257 258
3 243 258 244
3 244 258 259
3 244 259 245
3 245 259 260
3 245 260 246
3 246 260 261
3 246 261 247
3 248 247 261
3 262 249 248
3 261 262 248
3 263 250 249
3 262 263 249
3 264 251 250
3 263 264 250
3 265 252 251
3 264 265 251
3 266 253 252
3 265 266 252
3 267 254 253
3 266 267 253
3 255 268 257
3 256 269 255
3 255 269 268
3 257 268 270
3 257 270 258
3 258 270 271
3 258 271 259
3 259 271 272
3 259 272 260
3 260 272 273
3 260 273 261
3 274 262 261
3 261 273 274
3 275 263 262
3 274 275 262
3 276 264 263
3 275 276 263
3 277 265 264
3 276 277 264
3 278 266 265
3 277 278 265
3 279 267 266
3 278 279 266
3 268 280 270
3 269 281 268
3 268 281 280
3 270 280 282
3 270 282 271
3 271 282 283
3 271 283 272
3 283 284 272
3 272 284 273
3 285 275 274
3 273 284 285
3 285 274 273
3 286 276 275
3 285 286 275
3 287 277 276
3 286 287 276
3 288 278 277
3 287 288 277
3 289 279 278
3 288 289 278
3 280 290 282
3 281 291 280
3 280 291 290
3 282 290 292
3 282 292 283
3 283 292 293
3 283 293 284
3 284 293 294
3 284 294 285
3 295 286 285
3 295 285 294
3 296 287 286
3 295 296 286
3 297 288 287
3 296 297 287
3 298 289 288
3 297 298 288
3 290 299 292
3 291 300 290
3 290 300 299
3 292 299 301
3 292 301 293
3 293 301 302
3 293 302 294
3 294 302 295
3 303 296 295
3 303 295 302
3 304 297 296
3 303 304 296
3 305 298 297
3 304 305 297
3 299 306 301
3 300 307 299
3 299 307 306
3 301 306 308
3 301 308 302
3 309 303 302
3 302 308 309
3 310 304 303
3 309 310 303
3 311 305 304
3 310 311 304
3 306 312 308
3 307 313 306
3 306 313 312
3 314 310 309
3 308 312 314
3 314 309 308
3 315 311 310
3 314 315 310
3 312 316 314
3 313 317 312
3 312 317 316
3 318 315 314
3 318 314 316
3 317 319 316
3 319 318 316
CELL_TYPES 578
5
5
5
5
5
5
5
5
5
5
5
5
5
5
5
5
5
5
5
5
5
5
5
5
5
5
5
5
5
5
5
5
5
5
5
5
5
5
5
5
5
5
5
5
5
5
5
5
5
5
5
5
5
5
5
5
5
5
5
5
5
5
5
5
5
5
5
5
5
5
5
5
5
5
5
5
5
5
5
5
5
5
5
5
5
5
5
5
5
5
5
5
5
5
5
5
5
5
5
5
5
5
5
5
5
5
5
5
5
5
5
5
5
5
5
5
5
5
5
5
5
5
5
5
5
5
5
5
5
5
5
5
5
5
5
5
5
5
5
5
5
5
5
5
5
5
5
5
5
5
5
5
5
5
5
5
5
5
5
5
5
5
5
5
5
5
5
5
5
5
5
5
5
5
5
5
5
5
5
5
5
5
5
5
5
5
5
5
5
5
5
5
5
5
5
5
5
5
5
5
5
5
5
5
5
5
5
5
5
5
5
5
5
5
5
5
5
5
5
5
5
5
5
5
5
5
5
5
5
5
5
5
5
5
5
5
5
5
5
5
5
5
5
5
5
5
5
5
5
5
5
5
5
5
5
5
5
5
5
5
5
5
5
5
5
5
5
5
5
5
5
5
5
5
5
5
5
5
5
5
5
5
5
5
5
5
5
5
5
5
5
5
5
5
5
5
5
5
5
5
5
5
5
5
5
5
5
5
5
5
5
5
5
5
5
5
5
5
5
5
5
5
5
5
5
5
5
5
5
5
5
5
5
5
5
5
5
5
5
5
5
5
5
5
5
5
5
5
5
5
5
5
5
5
5
5
5
5
5
5
5
5
5
5
5
5
5
5
5
5
5
5
5
5
5
5
5
5
5
5
5
5
5
5
5
5
5
5
5
5
5
5
5
5
5
5
5
5
5
5
5
5
5
5
5
5
5
5
5
5
5
5
5
5
5
5
5
5
5
5
5
5
5
5
5
5
5
5
5
5
5
5
5
5
5
5
5
5
5
5
5
5
5
5
5
5
5
5
5
5
5
5
5
5
5
5
5
5
5
5
5
5
5
5
5
5
5
5
5
5
5
5
5
5
5
5
5
5
5
5
5
5
5
5
5
5
5
5
5
5
5
5
5
5
5
5
5
5
5
5
5
5
5
5
5
5
5
5
5
5
5
5
5
5
5
5
5
5
5
5
5
5
5
5
5
5
5
5
5
5
5
5
5
5
5
5
5
5
5
5
5
5
5
5
5
5
5
5
5
5
5
5
5
5
5
5
5
5
5
5
5
5
5
5
5
5
5
5
5
5
5
5
5
5
5
5
5
5
POINT_DATA 320
SCALARS theta_e float 1
LOOKUP_TABLE default
0.993721
0.993696
0.993717
0.993733
0.993640
0.993763
0.993679
0.993727
0.993823
0.993548
0.993605
0.993781
0.993669
0.993726
0.993906
0.993851
0.993426
0.993500
0.993583
0.993776
0.993675
0.993277
0.994012
0.994138
0.993945
0.993859
0.993365
0.993462
0.993560
0.993755
0.993651
0.993109
0.993206
0.992929
0.994278
0.994421
0.994062
0.994197
0.993967
0.993851
0.993316
0.993433
0.993556
0.993709
0.993031
0.993150
0.992746
0.992849
0.994558
0.994679
0.994340
0.994482
0.994099
0.994243
0.993982
0.993846
0.993283
0.993426
0.993572
0.993706
0.992972
0.993115
0.992570
0.992669
0.992792
0.992412
0.994779
0.994856
0.994612
0.994724
0.994389
0.994527
0.994126
0.994278
0.993982
0.993827
0.993272
0.993435
0.993634
0.992938
0.993100
0.992501
0.992621
0.992763
0.992279
0.992355
0.992178
0.994912
0.994946
0.994813
0.994880
0.994649
0.994750
0.994424
0.994555
0.994134
0.994291
0.994024
0.993869
0.993244
0.993419
0.993672
0.992923
0.993062
0.992464
0.992756
0.992605
0.992237
0.992331
0.992150
0.992112
0.992078
0.994925
0.994950
0.994959
0.994887
0.994830
0.994666
0.994757
0.994439
0.994562
0.994192
0.994330
0.994076
0.993840
0.993231
0.993602
0.992900
0.993071
0.992773
0.992472
0.992614
0.992374
0.992219
0.992287
0.992156
0.992104
0.992074
0.992066
0.994922
0.994946
0.994880
0.994823
0.994662
0.994739
0.994440
0.994553
0.994264
0.994373
0.993851
0.993449
0.993677
0.993609
0.992914
0.993328
0.992817
0.992702
0.992472
0.992568
0.992355
0.992234
0.992150
0.992102
0.992078
0.994884
0.994915
0.994829
0.994756
0.994651
0.994536
0.994409
0.994099
0.994303
0.993594
0.993532
0.993506
0.993695
0.993653
0.992945
0.992799
0.992647
0.992478
0.992340
0.992233
0.992160
0.992118
0.994823
0.994864
0.994761
0.994674
0.994571
0.994432
0.994279
0.994093
0.993658
0.993528
0.993693
0.993266
0.993336
0.992919
0.992783
0.992609
0.992470
0.992350
0.992255
0.992192
0.994745
0.994795
0.994673
0.994578
0.994465
0.994296
0.994106
0.993981
0.993545
0.993904
0.993414
0.993211
0.992939
0.992776
0.992627
0.992498
0.992388
0.992305
0.994649
0.994708
0.994567
0.994466
0.994344
0.994150
0.993941
0.993904
0.993832
0.993467
0.993121
0.992959
0.992810
0.992674
0.992554
0.992456
0.994538
0.994605
0.994448
0.994343
0.994215
0.994021
0.993812
0.993751
0.993560
0.993314
0.993158
0.993011
0.992870
0.992746
0.992638
0.994419
0.994490
0.994324
0.994215
0.994085
0.993900
0.993685
0.993505
0.993354
0.993210
0.993073
0.992950
0.992839
0.994300
0.994371
0.994204
0.994093
0.993966
0.993810
0.993661
0.993533
0.993396
0.993268
0.993153
0.993046
0.994187
0.994255
0.994096
0.993987
0.993862
0.993705
0.993567
0.993449
0.993344
0.993246
0.994087
0.994148
0.994003
0.993903
0.993797
0.993702
0.993601
0.993511
0.993426
0.994001
0.994054
0.993925
0.993824
0.993724
0.993649
0.993580
0.993934
0.993977
0.993872
0.993808
0.993755
0.993701
0.993886
0.993918
0.993834
0.993793
0.993864
0.993882
0.993843
0.993865
VECTORS fa_u float
0.000000 0.000000 0.000000
0.000000 0.000000 0.000000
0.000000 0.000000 0.000000
0.000000 0.000000 0.000000
0.000000 0.000000 0.000000
0.000000 0.000000 0.000000
0.000000 0.000000 0.000000
0.000000 0.000000 0.000000
0.000000 0.000000 0.000000
0.000000 0.000000 0.000000
0.000000 0.000000 0.000000
0.000000 0.000000 0.000000
0.000000 0.000000 0.000000
0.000000 0.000000 0.000000
0.000000 0.000000 0.000000
0.000000 0.000000 0.000000
0.000000 0.000000 0.000000
0.000000 0.000000 0.000000
0.000000 0.000000 0.000000
0.000000 0.000000 0.000000
0.000000 0.000000 0.000000
0.000000 0.000000 0.000000
0.000000 0.000000 0.000000
0.000000 0.000000 0.000000
0.000000 0.000000 0.000000
0.000000 0.000000 0.000000
0.000000 0.000000 0.000000
0.000000 0.000000 0.000000
0.000000 0.000000 0.000000
0.000000 0.000000 0.000000
0.000000 0.000000 0.000000
0.000000 0.000000 0.000000
0.000000 0.000000 0.000000
0.000000 0.000000 0.000000
0.000000 0.000000 0.000000
0.000000 0.000000 0.000000
0.000000 0.000000 0.000000
0.000000 0.000000 0.000000
0.000000 0.000000 0.000000
0.000000 0.000000 0.000000
0.000000 0.000000 0.000000
0.000000 0.000000 0.000000
0.000000 0.000000 0.000000
0.000000 0.000000 0.000000
0.000000 0.000000 0.000000
0.000000 0.000000 0.000000
0.000000 0.000000 0.000000
0.000000 0.000000 0.000000
0.000000 0.000000 0.000000
0.000000 0.000000 0.000000
0.000000 0.000000 0.000000
0.000000 0.000000 0.000000
0.000000 0.000000 0.000000
0.000000 0.000000 0.000000
0.000000 0.000000 0.000000
0.000000 0.000000 0.000000
0.000000 0.000000 0.000000
0.000000 0.000000 0.000000
0.000000 0.000000 0.000000
0.000000 0.000000 0.000000
0.000000 0.000000 0.000000
0.000000 0.000000 0.000000
0.000000 0.000000 0.000000
0.000000 0.000000 0.000000
0.000000 0.000000 0.000000
0.000000 0.000000 0.000000
0.000000 0.000000 0.000000
0.000000 0.000000 0.000000
0.000000 0.000000 0.000000
0.000000 0.000000 0.000000
0.000000 0.000000 0.000000
0.000000 0.000000 0.000000
0.000000 0.000000 0.000000
0.000000 0.000000 0.000000
0.000000 0.000000 0.000000
0.000000 0.000000 0.000000
0.000000 0.000000 0.000000
0.000000 0.000000 0.000000
0.000000 0.000000 0.000000
0.000000 0.000000 0.000000
0.000000 0.000000 0.000000
0.000000 0.000000 0.000000
0.000000 0.000000 0.000000
0.000000 0.000000 0.000000
0.000000 0.000000 0.000000
0.000000 0.000000 0.000000
0.000000 0.000000 0.000000
0.000000 0.000000 0.000000
0.000000 0.000000 0.000000
0.000000 0.000000 0.000000
0.000000 0.000000 0.000000
0.000000 0.000000 0.000000
0.000000 0.000000 0.000000
0.000000 0.000000 0.000000
0.000000 0.000000 0.000000
0.000000 0.000000 0.000000
0.000000 0.000000 0.000000
0.000000 0.000000 0.000000
0.000000 0.000000 0.000000
0.000000 0.000000 0.000000
0.000000 0.000000 0.000000
0.000000 0.000000 0.000000
0.000000 0.000000 0.000000
0.000000 0.000000 0.000000
0.000000 0.000000 0.000000
0.000000 0.000000 0.000000
0.000000 0.000000 0.000000
0.000000 0.000000 0.000000
0.000000 0.000000 0.000000
0.000000 0.000000 0.000000
0.000000 0.000000 0.000000
0.000000 0.000000 0.000000
0.000000 0.000000 0.000000
0.000000 0.000000 0.000000
0.000000 0.000000 0.000000
0.000000 0.000000 0.000000
0.000000 0.000000 0.000000
0.000000 0.000000 0.000000
0.000000 0.000000 0.000000
0.000000 0.000000 0.000000
0.000000 0.000000 0.000000
0.000000 0.000000 0.000000
0.000000 0.000000 0.000000
0.000000 0.000000 0.000000
0.000000 0.000000 0.000000
0.000000 0.000000 0.000000
0.000000 0.000000 0.000000
0.000000 0.000000 0.000000
0.000000 0.000000 0.000000
0.000000 0.000000 0.000000
0.000000 0.000000 0.000000
0.000000 0.000000 0.000000
0.000000 0.000000 0.000000
0.000000 0.000000 0.000000
0.000000 0.000000 0.000000
0.000000 0.000000 0.000000
0.000000 0.000000 0.000000
0.000000 0.000000 0.000000
0.000000 0.000000 0.000000
0.000000 0.000000 0.000000
0.000000 0.000000 0.000000
0.000000 0.000000 0.000000
0.000000 0.000000 0.000000
0.000000 0.000000 0.000000
0.000000 0.000000 0.000000
0.000000 0.000000 0.000000
0.000000 0.000000 0.000000
0.000000 0.000000 0.000000
0.000000 0.000000 0.000000
0.000000 0.000000 0.000000
0.000000 0.000000 0.000000
0.000000 0.000000 0.000000
0.000000 0.000000 0.000000
0.000000 0.000000 0.000000
0.000000 0.000000 0.000000
0.000000 0.000000 0.000000
0.000000 0.000000 0.000000
0.000000 0.000000 0.000000
0.000000 0.000000 0.000000
0.000000 0.000000 0.000000
0.000000 0.000000 0.000000
0.000000 0.000000 0.000000
0.000000 0.000000 0.000000
0.000000 0.000000 0.000000
0.000000 0.000000 0.000000
0.000000 0.000000 0.000000
0.000000 0.000000 0.000000
0.000000 0.000000 0.000000
0.000000 0.000000 0.000000
0.000000 0.000000 0.000000
0.000000 0.000000 0.000000
0.000000 0.000000 0.000000
0.000000 0.000000 0.000000
0.000000 0.000000 0.000000
0.000000 0.000000 0.000000
0.000000 0.000000 0.000000
0.000000 0.000000 0.000000
0.000000 0.000000 0.000000
0.000000 0.000000 0.000000
0.000000 0.000000 0.000000
0.000000 0.000000 0.000000
0.000000 0.000000 0.000000
0.000000 0.000000 0.000000
0.000000 0.000000 0.000000
0.000000 0.000000 0.000000
0.000000 0.000000 0.000000
0.000000 0.000000 0.000000
0.000000 0.000000 0.000000
0.000000 0.000000 0.000000
0.000000 0.000000 0.000000
0.000000 0.000000 0.000000
0.000000 0.000000 0.000000
0.000000 0.000000 0.000000
0.000000 0.000000 0.000000
0.000000 0.000000 0.000000
0.000000 0.000000 0.000000
0.000000 0.000000 0.000000
0.000000 0.000000 0.000000
0.000000 0.000000 0.000000
0.000000 0.000000 0.000000
0.000000 0.000000 0.000000
0.000000 0.000000 0.000000
0.000000 0.000000 0.000000
0.000000 0.000000 0.000000
0.000000 0.000000 0.000000
0.000000 0.000000 0.000000
0.000000 0.000000 0.000000
0.000000 0.000000 0.000000
0.000000 0.000000 0.000000
0.000000 0.000000 0.000000
0.000000 0.000000 0.000000
0.000000 0.000000 0.000000
0.000000 0.000000 0.000000
0.000000 0.000000 0.000000
0.000000 0.000000 0.000000
0.000000 0.000000 0.000000
0.000000 0.000000 0.000000
0.000000 0.000000 0.000000
0.000000 0.000000 0.000000
0.000000 0.000000 0.000000
0.000000 0.000000 0.000000
0.000000 0.000000 0.000000
0.000000 0.000000 0.000000
0.000000 0.000000 0.000000
0.000000 0.000000 0.000000
0.000000 0.000000 0.000000
0.000000 0.000000 0.000000
0.000000 0.000000 0.000000
0.000000 0.000000 0.000000
0.000000 0.000000 0.000000
0.000000 0.000000 0.000000
0.000000 0.000000 0.000000
0.000000 0.000000 0.000000
0.000000 0.000000 0.000000
0.000000 0.000000 0.000000
0.000000 0.000000 0.000000
0.000000 0.000000 0.000000
0.000000 0.000000 0.000000
0.000000 0.000000 0.000000
0.000000 0.000000 0.000000
0.000000 0.000000 0.000000
0.000000 0.000000 0.000000
0.000000 0.000000 0.000000
0.000000 0.000000 0.000000
0.000000 0.000000 0.000000
0.000000 0.000000 0.000000
0.000000 0.000000 0.000000
0.000000 0.000000 0.000000
0.000000 0.000000 0.000000
0.000000 0.000000 0.000000
0.000000 0.000000 0.000000
0.000000 0.000000 0.000000
0.000000 0.000000 0.000000
0.000000 0.000000 0.000000
0.000000 0.000000 0.000000
0.000000 0.000000 0.000000
0.000000 0.000000 0.000000
0.000000 0.000000 0.000000
0.000000 0.000000 0.000000
0.000000 0.000000 0.000000
0.000000 0.000000 0.000000
0.000000 0.000000 0.000000
0.000000 0.000000 0.000000
0.000000 0.000000 0.000000
0.000000 0.000000 0.000000
0.000000 0.000000 0.000000
0.000000 0.000000 0.000000
0.000000 0.000000 0.000000
0.000000 0.000000 0.000000
0.000000 0.000000 0.000000
0.000000 0.000000 0.000000
0.000000 0.000000 0.000000
0.000000 0.000000 0.000000
0.000000 0.000000 0.000000
0.000000 0.000000 0.000000
0.000000 0.000000 0.000000
0.000000 0.000000 0.000000
0.000000 0.000000 0.000000
0.000000 0.000000 0.000000
0.000000 0.000000 0.000000
0.000000 0.000000 0.000000
0.000000 0.000000 0.000000
0.000000 0.000000 0.000000
0.000000 0.000000 0.000000
0.000000 0.000000 0.000000
0.000000 0.000000 0.000000
0.000000 0.000000 0.000000
0.000000 0.000000 0.000000
0.000000 0.000000 0.000000
0.000000 0.000000 0.000000
0.000000 0.000000 0.000000
0.000000 0.000000 0.000000
0.000000 0.000000 0.000000
0.000000 0.000000 0.000000
0.000000 0.000000 0.000000
0.000000 0.000000 0.000000
0.000000 0.000000 -50.000000
-50.000000 0.000000 -50.000000
-43.336251 0.000000 -45.691520
-45.522695 0.000000 -43.289101
-50.000000 0.000000 -50.000000
-36.671477 0.000000 -36.578463
-50.000000 0.000000 -45.083733
-40.027611 0.000000 -40.026801
-44.194051 0.000000 -29.868064
-50.000000 0.000000 -50.000000
-30.006476 0.000000 -44.849421
-33.541243 0.000000 -33.127397
-44.716798 0.000000 -39.862689
-36.864836 0.000000 -35.118295
-39.871390 0.000000 -23.158709
-50.000000 0.000000 -26.512551
-44.706547 0.000000 -50.000000
-23.343248 0.000000 -44.665850
-26.934783 0.000000 -39.355440
-30.342146 0.000000 -29.588137
-39.431388 0.000000 -33.352068
-33.760649 0.000000 -50.000000
-16.680486 0.000000 -16.457718
-50.000000 0.000000 -9.766898
