# vtk DataFile Version 2.0
CellBP Time: 3.16
ASCII
DATASET UNSTRUCTURED_GRID
POINTS 320 double
-50.000000 -50.000000 0.000000
-50.000000 -43.346112 0.000000
-45.684946 -45.529233 0.000000
-43.279051 -50.000000 0.000000
-50.000000 -36.690753 0.000000
-36.558599 -50.000000 0.000000
-45.076197 -40.042015 0.000000
-40.011715 -44.202539 0.000000
-29.839337 -50.000000 0.000000
-50.000000 -30.034249 0.000000
-44.841482 -33.564312 0.000000
-33.102592 -44.724473 0.000000
-39.847286 -36.883553 0.000000
-35.096131 -39.885961 0.000000
-23.122327 -50.000000 0.000000
-26.479433 -44.714242 0.000000
-50.000000 -23.378199 0.000000
-44.657587 -26.965632 0.000000
-39.339196 -30.369102 0.000000
-29.558615 -39.446575 0.000000
-33.327331 -33.783403 0.000000
-50.000000 -16.720976 0.000000
-16.415332 -50.000000 0.000000
-9.720435 -50.000000 0.000000
-19.891373 -44.633277 0.000000
-23.147673 -39.201860 0.000000
-44.682630 -20.302285 0.000000
-39.339915 -23.716605 0.000000
-34.057948 -27.111285 0.000000
-26.323685 -33.708886 0.000000
-29.092571 -29.093211 0.000000
-50.000000 -10.064739 0.000000
-44.654085 -13.658237 0.000000
-50.000000 -3.411732 0.000000
-3.037050 -50.000000 0.000000
3.631712 -50.000000 0.000000
-13.258477 -44.639301 0.000000
-6.589865 -44.648798 0.000000
-16.606547 -39.233603 0.000000
-20.023473 -33.472831 0.000000
-39.305421 -17.038334 0.000000
-33.968826 -20.496588 0.000000
-28.710312 -23.660047 0.000000
-23.422508 -27.537804 0.000000
-44.616622 -6.995715 0.000000
-39.247468 -10.385845 0.000000
-50.000000 3.245369 0.000000
-44.599921 -0.344885 0.000000
10.284212 -50.000000 0.000000
16.922264 -50.000000 0.000000
0.085469 -44.652448 0.000000
6.754943 -44.662614 0.000000
-9.940634 -39.300314 0.000000
-3.253868 -39.294360 0.000000
-13.377818 -33.919728 0.000000
-16.595351 -28.449339 0.000000
-33.879119 -13.795605 0.000000
-28.513639 -17.160910 0.000000
-23.187002 -20.563514 0.000000
-18.543614 -23.509316 0.000000
-39.205368 -3.731457 0.000000
-33.807042 -7.151170 0.000000
-50.000000 9.937734 0.000000
-44.582194 6.311012 0.000000
-39.182117 2.929692 0.000000
-50.000000 16.701726 0.000000
23.549841 -50.000000 0.000000
30.169247 -50.000000 0.000000
13.416767 -44.683607 0.000000
20.079133 -44.715761 0.000000
3.425865 -39.309466 0.000000
10.087152 -39.343071 0.000000
-6.610779 -33.907020 0.000000
0.097510 -33.933593 0.000000
-9.957592 -28.458619 0.000000
-12.983339 -23.121256 0.000000
-28.406546 -10.555843 0.000000
-22.924454 -13.980370 0.000000
-16.829547 -17.487490 0.000000
-33.749285 -0.513427 0.000000
-28.388053 -4.003680 0.000000
-44.545729 13.005898 0.000000
-39.118500 9.560546 0.000000
-33.712654 6.022677 0.000000
-50.000000 23.569817 0.000000
-44.591054 19.805116 0.000000
-50.000000 30.533617 0.000000
36.780370 -50.000000 0.000000
43.390431 -50.000000 0.000000
26.737439 -44.755615 0.000000
33.371112 -44.880116 0.000000
16.736922 -39.399420 0.000000
23.415973 -39.469442 0.000000
6.771331 -33.967407 0.000000
13.410127 -34.035158 0.000000
-3.198081 -28.507769 0.000000
3.503461 -28.578480 0.000000
-6.465431 -23.042517 0.000000
-9.804158 -17.570889 0.000000
-22.987276 -7.410663 0.000000
-17.606395 -10.677790 0.000000
-12.638752 -12.895135 0.000000
-28.348748 2.558548 0.000000
-22.992802 -0.959451 0.000000
-38.983229 16.254656 0.000000
-28.317770 9.254847 0.000000
-33.499401 12.429177 0.000000
-44.734640 26.579589 0.000000
-38.700707 23.617415 0.000000
-44.982908 33.386188 0.000000
-50.000000 37.486970 0.000000
-50.000000 43.853583 0.000000
39.954273 -45.073870 0.000000
45.481931 -45.662312 0.000000
50.000000 -50.000000 0.000000
36.672224 -40.001201 0.000000
30.078200 -39.483703 0.000000
20.006232 -34.146651 0.000000
26.666547 -34.362882 0.000000
10.125552 -28.616061 0.000000
16.730116 -28.738276 0.000000
0.221946 -23.126435 0.000000
6.970700 -23.296058 0.000000
-3.211012 -17.524280 0.000000
-6.645748 -11.352669 0.000000
-17.597504 -4.250005 0.000000
-12.277997 -7.393957 0.000000
-22.926391 5.479211 0.000000
-17.681268 1.959078 0.000000
-22.594604 11.420971 0.000000
-33.294310 18.461408 0.000000
-27.367842 16.071185 0.000000
-33.014106 23.803867 0.000000
-40.289389 30.512911 0.000000
-35.384472 28.933026 0.000000
-39.904241 35.487311 0.000000
-43.908838 40.160699 0.000000
-45.265713 45.762266 0.000000
-50.000000 50.000000 0.000000
44.131111 -39.912201 0.000000
50.000000 -43.390468 0.000000
39.670193 -35.076530 0.000000
33.519989 -33.462973 0.000000
23.083668 -28.884698 0.000000
28.809932 -29.302155 0.000000
13.598620 -23.229135 0.000000
20.172617 -23.527557 0.000000
3.580587 -17.761931 0.000000
10.289922 -17.969571 0.000000
0.354461 -12.272841 0.000000
-1.900234 -6.574797 0.000000
-7.118039 -4.055923 0.000000
-12.299812 -1.204124 0.000000
-17.689855 7.994908 0.000000
-12.572083 4.777560 0.000000
-17.963275 13.105603 0.000000
-20.719907 16.773200 0.000000
-27.992792 22.479430 0.000000
-23.308012 20.965736 0.000000
-29.707189 28.626583 0.000000
-34.129258 34.068481 0.000000
-36.842895 39.933153 0.000000
-39.614327 45.262297 0.000000
-43.392873 50.000000 0.000000
44.597125 -33.005851 0.000000
50.000000 -36.767694 0.000000
39.168654 -29.623509 0.000000
33.565426 -26.423973 0.000000
27.275331 -23.397140 0.000000
23.177048 -18.741412 0.000000
17.126146 -17.087745 0.000000
6.902223 -12.377383 0.000000
12.513479 -12.859178 0.000000
-3.071712 -1.783223 0.000000
4.177386 -7.259325 0.000000
1.307240 -2.352482 0.000000
-6.697571 2.011558 0.000000
-8.044259 7.503713 0.000000
-12.299548 11.516878 0.000000
-15.025531 17.281189 0.000000
-18.436823 22.693157 0.000000
-23.538963 27.182152 0.000000
-26.913721 33.585149 0.000000
-30.014144 39.299073 0.000000
-33.090132 44.830451 0.000000
-36.622027 50.000000 0.000000
44.565400 -26.546251 0.000000
50.000000 -30.147122 0.000000
39.084000 -23.237176 0.000000
33.523256 -19.968076 0.000000
28.139482 -16.664082 0.000000
22.811557 -13.230178 0.000000
17.334797 -10.038426 0.000000
11.147264 -6.800094 0.000000
-1.076128 2.073765 0.000000
6.502292 -1.906081 0.000000
3.197677 1.405930 0.000000
-3.208121 6.969871 0.000000
-5.857074 12.162662 0.000000
-9.072697 17.407010 0.000000
-12.522825 22.860173 0.000000
-16.747938 28.007840 0.000000
-20.138800 33.336239 0.000000
-23.268341 38.976269 0.000000
-26.412099 44.602855 0.000000
-29.867088 50.000000 0.000000
44.550022 -19.986506 0.000000
50.000000 -23.519148 0.000000
39.089073 -16.662623 0.000000
33.662204 -13.362466 0.000000
28.268433 -10.069396 0.000000
22.877394 -6.726036 0.000000
17.454408 -3.480086 0.000000
12.292889 0.032394 0.000000
2.249001 6.094040 0.000000
7.378064 3.695015 0.000000
0.195627 11.764345 0.000000
-2.804935 17.296909 0.000000
-6.196261 22.786144 0.000000
-10.082147 28.107906 0.000000
-13.296091 33.526695 0.000000
-16.561338 38.980962 0.000000
-19.750288 44.493679 0.000000
-23.159174 50.000000 0.000000
44.563078 -13.364901 0.000000
50.000000 -16.881641 0.000000
39.141397 -10.040951 0.000000
33.742306 -6.729450 0.000000
28.368794 -3.415023 0.000000
23.022228 -0.105924 0.000000
17.768472 3.225940 0.000000
12.519113 6.437752 0.000000
7.086068 10.677042 0.000000
3.691175 17.008098 0.000000
0.331570 22.689985 0.000000
-3.108221 28.186960 0.000000
-6.448740 33.672300 0.000000
-9.786825 39.096556 0.000000
-13.085342 44.523588 0.000000
-16.524742 50.000000 0.000000
44.586369 -6.717455 0.000000
50.000000 -10.231459 0.000000
39.191358 -3.397453 0.000000
33.819333 -0.079784 0.000000
28.482523 3.241160 0.000000
23.202241 6.580053 0.000000
18.083046 9.904795 0.000000
12.949543 12.079323 0.000000
10.107703 17.095582 0.000000
6.812708 22.600672 0.000000
3.529713 28.171069 0.000000
0.217091 33.661749 0.000000
-3.111489 39.116029 0.000000
-6.411585 44.554427 0.000000
-9.882236 50.000000 0.000000
44.611667 -0.059222 0.000000
50.000000 -3.567940 0.000000
39.240858 3.259209 0.000000
33.894660 6.574281 0.000000
28.585548 9.905207 0.000000
23.252938 13.320154 0.000000
17.199515 16.921241 0.000000
13.175852 22.577249 0.000000
10.095847 28.156578 0.000000
6.885747 33.662894 0.000000
3.561951 39.127140 0.000000
0.249019 44.566686 0.000000
-3.231652 50.000000 0.000000
44.625893 6.609430 0.000000
50.000000 3.108354 0.000000
39.275641 9.917985 0.000000
33.961472 13.209552 0.000000
28.700099 16.512960 0.000000
23.578728 20.011515 0.000000
18.757359 23.039354 0.000000
16.620909 28.238517 0.000000
13.562477 33.712156 0.000000
10.222329 39.156055 0.000000
6.910744 44.574333 0.000000
3.422150 50.000000 0.000000
44.649628 13.269099 0.000000
50.000000 9.796067 0.000000
39.328268 16.559853 0.000000
34.044830 19.811015 0.000000
28.759403 22.873568 0.000000
23.458128 27.158582 0.000000
20.092360 33.269121 0.000000
16.772697 39.019739 0.000000
13.480498 44.518893 0.000000
10.078830 50.000000 0.000000
44.672594 19.932215 0.000000
50.000000 16.491760 0.000000
39.372777 23.220103 0.000000
34.151531 26.477146 0.000000
29.106741 28.500435 0.000000
26.354474 33.377319 0.000000
23.230020 38.948491 0.000000
20.065431 44.499581 0.000000
16.733262 50.000000 0.000000
44.680184 26.610569 0.000000
50.000000 23.191399 0.000000
39.366439 29.935694 0.000000
33.322742 33.346854 0.000000
29.538977 39.027574 0.000000
26.562469 44.499419 0.000000
23.386331 50.000000 0.000000
44.813711 33.268318 0.000000
50.000000 29.893103 0.000000
39.805032 36.578557 0.000000
34.925614 39.513302 0.000000
32.936664 44.507593 0.000000
30.039807 50.000000 0.000000
45.014427 39.865304 0.000000
50.000000 36.595725 0.000000
39.802168 43.963069 0.000000
36.691354 50.000000 0.000000
45.652279 45.406419 0.000000
50.000000 43.297869 0.000000
43.342642 50.000000 0.000000
50.000000 50.000000 0.000000
CELLS 578 2312
3 1 0 2
3 0 3 2
3 4 1 6
3 6 1 2
3 3 5 7
3 3 7 2
3 6 2 7
3 9 4 10
3 10 4 6
3 5 8 11
3 7 5 11
3 10 6 12
3 12 6 7
3 7 11 13
3 7 13 12
3 8 14 15
3 11 8 15
3 16 9 17
3 17 9 10
3 17 10 18
3 18 10 12
3 11 15 19
3 13 11 19
3 18 12 20
3 13 19 20
3 20 12 13
3 14 22 24
3 15 14 24
3 15 24 25
3 19 15 25
3 21 16 26
3 26 16 17
3 26 17 27
3 27 17 18
3 27 18 28
3 28 18 20
3 19 25 29
3 19 29 20
3 28 20 30
3 30 20 29
3 31 21 32
3 32 21 26
3 22 23 36
3 24 22 36
3 23 34 37
3 36 23 37
3 24 36 38
3 25 24 38
3 25 38 39
3 29 25 39
3 32 26 40
3 40 26 27
3 40 27 41
3 41 27 28
3 41 28 42
3 42 28 30
3 29 39 43
3 29 43 30
3 42 30 43
3 33 31 44
3 44 31 32
3 44 32 45
3 45 32 40
3 46 33 47
3 47 33 44
3 34 35 50
3 37 34 50
3 35 48 51
3 50 35 51
3 36 37 52
3 38 36 52
3 37 50 53
3 52 37 53
3 38 52 54
3 39 38 54
3 39 54 55
3 43 39 55
3 45 40 56
3 56 40 41
3 56 41 57
3 57 41 42
3 57 42 58
3 58 42 43
3 43 55 59
3 43 59 58
3 47 44 60
3 60 44 45
3 60 45 61
3 61 45 56
3 62 46 63
3 63 46 47
3 63 47 64
3 64 47 60
3 48 49 68
3 51 48 68
3 49 66 69
3 68 49 69
3 50 51 70
3 53 50 70
3 51 68 71
3 70 51 71
3 52 53 72
3 54 52 72
3 53 70 73
3 72 53 73
3 54 72 74
3 55 54 74
3 55 74 75
3 59 55 75
3 61 56 76
3 76 56 57
3 76 57 77
3 77 57 58
3 77 58 78
3 59 75 78
3 78 58 59
3 64 60 79
3 79 60 61
3 79 61 80
3 80 61 76
3 65 62 81
3 81 62 63
3 81 63 82
3 82 63 64
3 82 64 83
3 83 64 79
3 84 65 85
3 85 65 81
3 66 67 89
3 69 66 89
3 67 87 90
3 89 67 90
3 68 69 91
3 71 68 91
3 69 89 92
3 91 69 92
3 70 71 93
3 73 70 93
3 71 91 94
3 93 71 94
3 72 73 95
3 74 72 95
3 73 93 96
3 95 73 96
3 74 95 97
3 75 74 97
3 75 97 98
3 78 75 98
3 80 76 99
3 99 76 77
3 99 77 100
3 100 77 78
3 100 78 101
3 98 101 78
3 83 79 102
3 102 79 80
3 102 80 103
3 103 80 99
3 85 81 104
3 104 81 82
3 105 83 102
3 104 82 106
3 106 82 83
3 106 83 105
3 86 84 107
3 107 84 85
3 107 85 108
3 108 85 104
3 109 86 107
3 110 86 109
3 87 88 112
3 90 87 112
3 112 88 113
3 88 114 113
3 90 112 115
3 89 90 116
3 92 89 116
3 116 90 115
3 91 92 117
3 94 91 117
3 92 116 118
3 117 92 118
3 93 94 119
3 96 93 119
3 94 117 120
3 119 94 120
3 95 96 121
3 97 95 121
3 96 119 122
3 121 96 122
3 97 121 123
3 98 97 123
3 98 123 124
3 98 124 101
3 103 99 125
3 125 99 100
3 125 100 126
3 126 100 101
3 126 101 124
3 105 102 127
3 127 102 103
3 127 103 128
3 128 103 125
3 129 105 127
3 108 104 130
3 130 104 106
3 130 106 131
3 131 106 105
3 131 105 129
3 108 130 132
3 109 107 133
3 133 107 108
3 133 108 134
3 108 132 134
3 135 109 133
3 111 110 136
3 136 110 109
3 136 109 135
3 137 111 136
3 138 111 137
3 112 113 139
3 115 112 139
3 114 140 113
3 140 139 113
3 139 141 115
3 116 115 142
3 118 116 142
3 142 115 141
3 117 118 143
3 120 117 143
3 118 142 144
3 143 118 144
3 119 120 145
3 122 119 145
3 120 143 146
3 145 120 146
3 121 122 147
3 123 121 147
3 122 145 148
3 147 122 148
3 123 147 149
3 124 123 149
3 124 149 150
3 151 126 124
3 124 150 151
3 128 125 152
3 152 125 126
3 152 126 151
3 129 127 153
3 153 127 128
3 128 152 154
3 153 128 154
3 155 129 153
3 131 129 156
3 156 129 155
3 132 130 157
3 130 131 157
3 157 131 158
3 131 156 158
3 132 157 159
3 132 159 134
3 135 133 160
3 160 133 134
3 160 134 159
3 136 135 161
3 135 160 161
3 162 137 136
3 161 162 136
3 163 138 137
3 162 163 137
3 139 164 141
3 140 165 139
3 139 165 164
3 141 164 166
3 141 166 142
3 166 167 142
3 144 142 167
3 167 168 144
3 143 144 168
3 146 143 168
3 168 169 146
3 145 146 170
3 148 145 170
3 170 146 169
3 147 148 171
3 149 147 171
3 148 170 172
3 171 148 172
3 173 151 150
3 149 171 174
3 150 149 174
3 150 174 175
3 150 175 173
3 154 152 176
3 152 151 176
3 176 151 173
3 154 176 177
3 155 153 178
3 177 178 154
3 154 178 153
3 156 155 179
3 155 178 179
3 180 158 156
3 179 180 156
3 181 159 157
3 180 181 158
3 181 157 158
3 182 160 159
3 181 182 159
3 183 161 160
3 182 183 160
3 184 162 161
3 184 161 183
3 185 163 162
3 184 185 162
3 164 186 166
3 165 187 164
3 164 187 186
3 166 186 188
3 166 188 167
3 167 188 189
3 167 189 168
3 168 189 190
3 168 190 169
3 169 190 191
3 169 191 170
3 192 172 170
3 170 191 192
3 192 193 172
3 171 172 193
3 174 171 193
3 194 173 175
3 176 173 194
3 175 174 195
3 193 195 174
3 195 196 175
3 175 196 194
3 197 177 176
3 194 197 176
3 198 178 177
3 197 198 177
3 199 179 178
3 198 199 178
3 200 180 179
3 199 200 179
3 201 181 180
3 200 201 180
3 202 182 181
3 201 202 181
3 203 183 182
3 202 203 182
3 204 184 183
3 203 204 183
3 205 185 184
3 204 205 184
3 186 206 188
3 187 207 186
3 186 207 206
3 188 206 208
3 188 208 189
3 189 208 209
3 189 209 190
3 190 209 210
3 190 210 191
3 191 210 211
3 191 211 192
3 192 211 212
3 192 212 193
3 193 212 213
3 193 213 195
3 214 197 194
3 214 194 196
3 195 213 215
3 195 215 196
3 196 215 214
3 216 198 197
3 214 216 197
3 217 199 198
3 216 217 198
3 218 200 199
3 217 218 199
3 219 201 200
3 218 219 200
3 220 202 201
3 219 220 201
3 221 203 202
3 220 221 202
3 222 204 203
3 221 222 203
3 223 205 204
3 222 223 204
3 206 224 208
3 207 225 206
3 206 225 224
3 208 224 226
3 208 226 209
3 209 226 227
3 209 227 210
3 210 227 228
3 210 228 211
3 211 228 229
3 211 229 212
3 212 229 230
3 212 230 213
3 213 230 231
3 213 231 215
3 232 216 214
3 215 231 232
3 232 214 215
3 233 217 216
3 232 233 216
3 234 218 217
3 233 234 217
3 235 219 218
3 234 235 218
3 236 220 219
3 235 236 219
3 237 221 220
3 236 237 220
3 238 222 221
3 237 238 221
3 239 223 222
3 238 239 222
3 224 240 226
3 225 241 224
3 224 241 240
3 226 240 242
3 226 242 227
3 227 242 243
3 227 243 228
3 228 243 244
3 228 244 229
3 244 245 229
3 229 245 230
3 230 245 246
3 230 246 231
3 231 246 247
3 231 247 232
3 248 233 232
3 248 232 247
3 249 234 233
3 248 249 233
3 250 235 234
3 249 250 234
3 251 236 235
3 250 251 235
3 252 237 236
3 251 252 236
3 253 238 237
3 252 253 237
3 254 239 238
3 253 254 238
3 240 255 242
3 241 256 240
3 240 256 255
3 242 255 257
3 242 257 243
3 243 257 258
3 243 258 244
3 244 258 259
3 244 259 245
3 245 259 260
3 245 260 246
3 246 260 261
3 246 261 247
3 248 247 261
3 262 249 248
3 261 262 248
3 263 250 249
3 262 263 249
3 264 251 250
3 263 264 250
3 265 252 251
3 264 265 251
3 266 253 252
3 265 266 252
3 267 254 253
3 266 267 253
3 255 268 257
3 256 269 255
3 255 269 268
3 257 268 270
3 257 270 258
3 258 270 271
3 258 271 259
3 259 271 272
3 259 272 260
3 260 272 273
3 260 273 261
3 274 262 261
3 261 273 274
3 275 263 262
3 274 275 262
3 276 264 263
3 275 276 263
3 277 265 264
3 276 277 264
3 278 266 265
3 277 278 265
3 279 267 266
3 278 279 266
3 268 280 270
3 269 281 268
3 268 281 280
3 270 280 282
3 270 282 271
3 271 282 283
3 271 283 272
3 283 284 272
3 272 284 273
3 285 275 274
3 273 284 285
3 285 274 273
3 286 276 275
3 285 286 275
3 287 277 276
3 286 287 276
3 288 278 277
3 287 288 277
3 289 279 278
3 288 289 278
3 280 290 282
3 281 291 280
3 280 291 290
3 282 290 292
3 282 292 283
3 283 292 293
3 283 293 284
3 284 293 294
3 284 294 285
3 295 286 285
3 295 285 294
3 296 287 286
3 295 296 286
3 297 288 287
3 296 297 287
3 298 289 288
3 297 298 288
3 290 299 292
3 291 300 290
3 290 300 299
3 292 299 301
3 292 301 293
3 293 301 302
3 293 302 294
3 294 302 295
3 303 296 295
3 303 295 302
3 304 297 296
3 303 304 296
3 305 298 297
3 304 305 297
3 299 306 301
3 300 307 299
3 299 307 306
3 301 306 308
3 301 308 302
3 309 303 302
3 302 308 309
3 310 304 303
3 309 310 303
3 311 305 304
3 310 311 304
3 306 312 308
3 307 313 306
3 306 313 312
3 314 310 309
3 308 312 314
3 314 309 308
3 315 311 310
3 314 315 310
3 312 316 314
3 313 317 312
3 312 317 316
3 318 315 314
3 318 314 316
3 317 319 316
3 319 318 316
CELL_TYPES 578
5
5
5
5
5
5
5
5
5
5
5
5
5
5
5
5
5
5
5
5
5
5
5
5
5
5
5
5
5
5
5
5
5
5
5
5
5
5
5
5
5
5
5
5
5
5
5
5
5
5
5
5
5
5
5
5
5
5
5
5
5
5
5
5
5
5
5
5
5
5
5
5
5
5
5
5
5
5
5
5
5
5
5
5
5
5
5
5
5
5
5
5
5
5
5
5
5
5
5
5
5
5
5
5
5
5
5
5
5
5
5
5
5
5
5
5
5
5
5
5
5
5
5
5
5
5
5
5
5
5
5
5
5
5
5
5
5
5
5
5
5
5
5
5
5
5
5
5
5
5
5
5
5
5
5
5
5
5
5
5
5
5
5
5
5
5
5
5
5
5
5
5
5
5
5
5
5
5
5
5
5
5
5
5
5
5
5
5
5
5
5
5
5
5
5
5
5
5
5
5
5
5
5
5
5
5
5
5
5
5
5
5
5
5
5
5
5
5
5
5
5
5
5
5
5
5
5
5
5
5
5
5
5
5
5
5
5
5
5
5
5
5
5
5
5
5
5
5
5
5
5
5
5
5
5
5
5
5
5
5
5
5
5
5
5
5
5
5
5
5
5
5
5
5
5
5
5
5
5
5
5
5
5
5
5
5
5
5
5
5
5
5
5
5
5
5
5
5
5
5
5
5
5
5
5
5
5
5
5
5
5
5
5
5
5
5
5
5
5
5
5
5
5
5
5
5
5
5
5
5
5
5
5
5
5
5
5
5
5
5
5
5
5
5
5
5
5
5
5
5
5
5
5
5
5
5
5
5
5
5
5
5
5
5
5
5
5
5
5
5
5
5
5
5
5
5
5
5
5
5
5
5
5
5
5
5
5
5
5
5
5
5
5
5
5
5
5
5
5
5
5
5
5
5
5
5
5
5
5
5
5
5
5
5
5
5
5
5
5
5
5
5
5
5
5
5
5
5
5
5
5
5
5
5
5
5
5
5
5
5
5
5
5
5
5
5
5
5
5
5
5
5
5
5
5
5
5
5
5
5
5
5
5
5
5
5
5
5
5
5
5
5
5
5
5
5
5
5
5
5
5
5
5
5
5
5
5
5
5
5
5
5
5
5
5
5
5
5
5
5
5
5
5
5
5
5
5
5
5
5
5
5
5
5
5
5
5
5
5
5
5
5
5
5
5
5
5
5
5
5
5
5
5
5
5
5
5
5
5
5
5
5
5
5
5
5
5
5
5
5
5
5
5
5
5
5
5
5
5
5
5
5
5
5
5
5
5
5
5
5
5
5
5
5
5
5
5
5
POINT_DATA 320
SCALARS theta_e float 1
LOOKUP_TABLE default
0.993740
0.993764
0.993743
0.993724
0.993815
0.993683
0.993777
0.993724
0.993603
0.993895
0.993842
0.993654
0.993775
0.993710
0.993494
0.993559
0.993992
0.993928
0.993842
0.993634
0.993736
0.994104
0.993358
0.993204
0.993434
0.993519
0.994031
0.993933
0.993825
0.993618
0.993716
0.994223
0.994145
0.994346
0.993040
0.992871
0.993286
0.993124
0.993378
0.993489
0.994037
0.993915
0.993784
0.993626
0.994266
0.994155
0.994471
0.994391
0.992704
0.992541
0.992957
0.992790
0.993217
0.993050
0.993332
0.993465
0.994029
0.993893
0.993741
0.993597
0.994282
0.994157
0.994597
0.994518
0.994414
0.994724
0.992388
0.992253
0.992627
0.992472
0.992883
0.992721
0.993166
0.992994
0.993307
0.993467
0.994020
0.993854
0.993660
0.994292
0.994158
0.994647
0.994547
0.994429
0.994845
0.994773
0.994949
0.992147
0.992080
0.992329
0.992208
0.992568
0.992427
0.992827
0.992671
0.993136
0.992959
0.993299
0.993495
0.993999
0.993838
0.993685
0.994296
0.994147
0.994680
0.994433
0.994563
0.994887
0.994801
0.994980
0.995024
0.995062
0.992121
0.992073
0.992057
0.992196
0.992300
0.992531
0.992409
0.992791
0.992644
0.993116
0.992938
0.993301
0.993587
0.993998
0.993903
0.994289
0.994155
0.994414
0.994683
0.994559
0.994775
0.994909
0.994849
0.994976
0.995033
0.995066
0.995074
0.992129
0.992082
0.992211
0.992310
0.992522
0.992428
0.992778
0.992639
0.993078
0.992923
0.993357
0.993630
0.993814
0.994031
0.994297
0.994049
0.994377
0.994486
0.994695
0.994607
0.994797
0.994899
0.994983
0.995036
0.995062
0.992207
0.992145
0.992306
0.992410
0.992530
0.992654
0.992803
0.993111
0.992957
0.993774
0.993336
0.993675
0.993806
0.993968
0.994271
0.994398
0.994539
0.994694
0.994808
0.994898
0.994970
0.995017
0.992321
0.992246
0.992418
0.992520
0.992625
0.992767
0.992939
0.993018
0.993838
0.993426
0.994172
0.993970
0.994178
0.994275
0.994419
0.994581
0.994700
0.994792
0.994871
0.994935
0.992453
0.992372
0.992547
0.992643
0.992751
0.992913
0.993075
0.993164
0.994023
0.993851
0.993973
0.994166
0.994271
0.994435
0.994571
0.994668
0.994749
0.994821
0.992597
0.992514
0.992688
0.992783
0.992898
0.993078
0.993206
0.993341
0.993692
0.993959
0.994118
0.994279
0.994427
0.994533
0.994614
0.994688
0.992748
0.992665
0.992838
0.992935
0.993060
0.993238
0.993380
0.993543
0.993758
0.993956
0.994119
0.994275
0.994389
0.994473
0.994547
0.992901
0.992819
0.992993
0.993096
0.993229
0.993405
0.993601
0.993803
0.993970
0.994125
0.994245
0.994332
0.994406
0.993052
0.992970
0.993147
0.993256
0.993387
0.993544
0.993689
0.993835
0.993982
0.994102
0.994192
0.994266
0.993196
0.993116
0.993292
0.993402
0.993528
0.993690
0.993842
0.993962
0.994055
0.994128
0.993328
0.993253
0.993418
0.993521
0.993623
0.993730
0.993838
0.993927
0.993998
0.993441
0.993376
0.993523
0.993626
0.993734
0.993814
0.993878
0.993529
0.993478
0.993594
0.993661
0.993721
0.993774
0.993589
0.993553
0.993644
0.993688
0.993615
0.993596
0.993637
0.993615
VECTORS fa_u float
0.000000 0.000000 0.000000
0.000000 0.000000 0.000000
0.000000 0.000000 0.000000
0.000000 0.000000 0.000000
0.000000 0.000000 0.000000
0.000000 0.000000 0.000000
0.000000 0.000000 0.000000
0.000000 0.000000 0.000000
0.000000 0.000000 0.000000
0.000000 0.000000 0.000000
0.000000 0.000000 0.000000
0.000000 0.000000 0.000000
0.000000 0.000000 0.000000
0.000000 0.000000 0.000000
0.000000 0.000000 0.000000
0.000000 0.000000 0.000000
0.000000 0.000000 0.000000
0.000000 0.000000 0.000000
0.000000 0.000000 0.000000
0.000000 0.000000 0.000000
0.000000 0.000000 0.000000
0.000000 0.000000 0.000000
0.000000 0.000000 0.000000
0.000000 0.000000 0.000000
0.000000 0.000000 0.000000
0.000000 0.000000 0.000000
0.000000 0.000000 0.000000
0.000000 0.000000 0.000000
0.000000 0.000000 0.000000
0.000000 0.000000 0.000000
0.000000 0.000000 0.000000
0.000000 0.000000 0.000000
0.000000 0.000000 0.000000
0.000000 0.000000 0.000000
0.000000 0.000000 0.000000
0.000000 0.000000 0.000000
0.000000 0.000000 0.000000
0.000000 0.000000 0.000000
0.000000 0.000000 0.000000
0.000000 0.000000 0.000000
0.000000 0.000000 0.000000
0.000000 0.000000 0.000000
0.000000 0.000000 0.000000
0.000000 0.000000 0.000000
0.000000 0.000000 0.000000
0.000000 0.000000 0.000000
0.000000 0.000000 0.000000
0.000000 0.000000 0.000000
0.000000 0.000000 0.000000
0.000000 0.000000 0.000000
0.000000 0.000000 0.000000
0.000000 0.000000 0.000000
0.000000 0.000000 0.000000
0.000000 0.000000 0.000000
0.000000 0.000000 0.000000
0.000000 0.000000 0.000000
0.000000 0.000000 0.000000
0.000000 0.000000 0.000000
0.000000 0.000000 0.000000
0.000000 0.000000 0.000000
0.000000 0.000000 0.000000
0.000000 0.000000 0.000000
0.000000 0.000000 0.000000
0.000000 0.000000 0.000000
0.000000 0.000000 0.000000
0.000000 0.000000 0.000000
0.000000 0.000000 0.000000
0.000000 0.000000 0.000000
0.000000 0.000000 0.000000
0.000000 0.000000 0.000000
0.000000 0.000000 0.000000
0.000000 0.000000 0.000000
0.000000 0.000000 0.000000
0.000000 0.000000 0.000000
0.000000 0.000000 0.000000
0.000000 0.000000 0.000000
0.000000 0.000000 0.000000
0.000000 0.000000 0.000000
0.000000 0.000000 0.000000
0.000000 0.000000 0.000000
0.000000 0.000000 0.000000
0.000000 0.000000 0.000000
0.000000 0.000000 0.000000
0.000000 0.000000 0.000000
0.000000 0.000000 0.000000
0.000000 0.000000 0.000000
0.000000 0.000000 0.000000
0.000000 0.000000 0.000000
0.000000 0.000000 0.000000
0.000000 0.000000 0.000000
0.000000 0.000000 0.000000
0.000000 0.000000 0.000000
0.000000 0.000000 0.000000
0.000000 0.000000 0.000000
0.000000 0.000000 0.000000
0.000000 0.000000 0.000000
0.000000 0.000000 0.000000
0.000000 0.000000 0.000000
0.000000 0.000000 0.000000
0.000000 0.000000 0.000000
0.000000 0.000000 0.000000
0.000000 0.000000 0.000000
0.000000 0.000000 0.000000
0.000000 0.000000 0.000000
0.000000 0.000000 0.000000
0.000000 0.000000 0.000000
0.000000 0.000000 0.000000
0.000000 0.000000 0.000000
0.000000 0.000000 0.000000
0.000000 0.000000 0.000000
0.000000 0.000000 0.000000
0.000000 0.000000 0.000000
0.000000 0.000000 0.000000
0.000000 0.000000 0.000000
0.000000 0.000000 0.000000
0.000000 0.000000 0.000000
0.000000 0.000000 0.000000
0.000000 0.000000 0.000000
0.000000 0.000000 0.000000
0.000000 0.000000 0.000000
0.000000 0.000000 0.000000
0.000000 0.000000 0.000000
0.000000 0.000000 0.000000
0.000000 0.000000 0.000000
0.000000 0.000000 0.000000
0.000000 0.000000 0.000000
0.000000 0.000000 0.000000
0.000000 0.000000 0.000000
0.000000 0.000000 0.000000
0.000000 0.000000 0.000000
0.000000 0.000000 0.000000
0.000000 0.000000 0.000000
0.000000 0.000000 0.000000
0.000000 0.000000 0.000000
0.000000 0.000000 0.000000
0.000000 0.000000 0.000000
0.000000 0.000000 0.000000
0.000000 0.000000 0.000000
0.000000 0.000000 0.000000
0.000000 0.000000 0.000000
0.000000 0.000000 0.000000
0.000000 0.000000 0.000000
0.000000 0.000000 0.000000
0.000000 0.000000 0.000000
0.000000 0.000000 0.000000
0.000000 0.000000 0.000000
0.000000 0.000000 0.000000
0.000000 0.000000 0.000000
0.000000 0.000000 0.000000
0.000000 0.000000 0.000000
0.000000 0.000000 0.000000
0.000000 0.000000 0.000000
0.000000 0.000000 0.000000
0.000000 0.000000 0.000000
0.000000 0.000000 0.000000
0.000000 0.000000 0.000000
0.000000 0.000000 0.000000
0.000000 0.000000 0.000000
0.000000 0.000000 0.000000
0.000000 0.000000 0.000000
0.000000 0.000000 0.000000
0.000000 0.000000 0.000000
0.000000 0.000000 0.000000
0.000000 0.000000 0.000000
0.000000 0.000000 0.000000
0.000000 0.000000 0.000000
0.000000 0.000000 0.000000
0.000000 0.000000 0.000000
0.000000 0.000000 0.000000
0.000000 0.000000 0.000000
0.000000 0.000000 0.000000
0.000000 0.000000 0.000000
0.000000 0.000000 0.000000
0.000000 0.000000 0.000000
0.000000 0.000000 0.000000
0.000000 0.000000 0.000000
0.000000 0.000000 0.000000
0.000000 0.000000 0.000000
0.000000 0.000000 0.000000
0.000000 0.000000 0.000000
0.000000 0.000000 0.000000
0.000000 0.000000 0.000000
0.000000 0.000000 0.000000
0.000000 0.000000 0.000000
0.000000 0.000000 0.000000
0.000000 0.000000 0.000000
0.000000 0.000000 0.000000
0.000000 0.000000 0.000000
0.000000 0.000000 0.000000
0.000000 0.000000 0.000000
0.000000 0.000000 0.000000
0.000000 0.000000 0.000000
0.000000 0.000000 0.000000
0.000000 0.000000 0.000000
0.000000 0.000000 0.000000
0.000000 0.000000 0.000000
0.000000 0.000000 0.000000
0.000000 0.000000 0.000000
0.000000 0.000000 0.000000
0.000000 0.000000 0.000000
0.000000 0.000000 0.000000
0.000000 0.000000 0.000000
0.000000 0.000000 0.000000
0.000000 0.000000 0.000000
0.000000 0.000000 0.000000
0.000000 0.000000 0.000000
0.000000 0.000000 0.000000
0.000000 0.000000 0.000000
0.000000 0.000000 0.000000
0.000000 0.000000 0.000000
0.000000 0.000000 0.000000
0.000000 0.000000 0.000000
0.000000 0.000000 0.000000
0.000000 0.000000 0.000000
0.000000 0.000000 0.000000
0.000000 0.000000 0.000000
0.000000 0.000000 0.000000
0.000000 0.000000 0.000000
0.000000 0.000000 0.000000
0.000000 0.000000 0.000000
0.000000 0.000000 0.000000
0.000000 0.000000 0.000000
0.000000 0.000000 0.000000
0.000000 0.000000 0.000000
0.000000 0.000000 0.000000
0.000000 0.000000 0.000000
0.000000 0.000000 0.000000
0.000000 0.000000 0.000000
0.000000 0.000000 0.000000
0.000000 0.000000 0.000000
0.000000 0.000000 0.000000
0.000000 0.000000 0.000000
0.000000 0.000000 0.000000
0.000000 0.000000 0.000000
0.000000 0.000000 0.000000
0.000000 0.000000 0.000000
0.000000 0.000000 0.000000
0.000000 0.000000 0.000000
0.000000 0.000000 0.000000
0.000000 0.000000 0.000000
0.000000 0.000000 0.000000
0.000000 0.000000 0.000000
0.000000 0.000000 0.000000
0.000000 0.000000 0.000000
0.000000 0.000000 0.000000
0.000000 0.000000 0.000000
0.000000 0.000000 0.000000
0.000000 0.000000 0.000000
0.000000 0.000000 0.000000
0.000000 0.000000 0.000000
0.000000 0.000000 0.000000
0.000000 0.000000 0.000000
0.000000 0.000000 0.000000
0.000000 0.000000 0.000000
0.000000 0.000000 0.000000
0.000000 0.000000 0.000000
0.000000 0.000000 0.000000
0.000000 0.000000 0.000000
0.000000 0.000000 0.000000
0.000000 0.000000 0.000000
0.000000 0.000000 0.000000
0.000000 0.000000 0.000000
0.000000 0.000000 0.000000
0.000000 0.000000 0.000000
0.000000 0.000000 0.000000
0.000000 0.000000 0.000000
0.000000 0.000000 0.000000
0.000000 0.000000 0.000000
0.000000 0.000000 0.000000
0.000000 0.000000 0.000000
0.000000 0.000000 0.000000
0.000000 0.000000 0.000000
0.000000 0.000000 0.000000
0.000000 0.000000 0.000000
0.000000 0.000000 0.000000
0.000000 0.000000 0.000000
0.000000 0.000000 0.000000
0.000000 0.000000 0.000000
0.000000 0.000000 0.000000
0.000000 0.000000 0.000000
0.000000 0.000000 0.000000
0.000000 0.000000 0.000000
0.000000 0.000000 0.000000
0.000000 0.000000 0.000000
0.000000 0.000000 0.000000
0.000000 0.000000 0.000000
0.000000 0.000000 0.000000
0.000000 0.000000 0.000000
0.000000 0.000000 0.000000
0.000000 0.000000 0.000000
0.000000 0.000000 0.000000
0.000000 0.000000 0.000000
0.000000 0.000000 0.000000
0.000000 0.000000 0.000000
0.000000 0.000000 0.000000
0.000000 0.000000 0.000000
0.000000 0.000000 -50.000000
-50.000000 0.000000 -50.000000
-43.346112 0.000000 -45.684946
-45.529233 0.000000 -43.279051
-50.000000 0.000000 -50.000000
-36.690753 0.000000 -36.558599
-50.000000 0.000000 -45.076197
-40.042015 0.000000 -40.011715
-44.202539 0.000000 -29.839337
-50.000000 0.000000 -50.000000
-30.034249 0.000000 -44.841482
-33.564312 0.000000 -33.102592
-44.724473 0.000000 -39.847286
-36.883553 0.000000 -35.096131
-39.885961 0.000000 -23.122327
-50.000000 0.000000 -26.479433
-44.714242 0.000000 -50.000000
-23.378199 0.000000 -44.657587
-26.965632 0.000000 -39.339196
-30.369102 0.000000 -29.558615
-39.446575 0.000000 -33.327331
-33.783403 0.000000 -50.000000
-16.720976 0.000000 -16.415332
-50.000000 0.000000 -9.720435
