# vtk DataFile Version 2.0
CellBP Time: 2.88
ASCII
DATASET UNSTRUCTURED_GRID
POINTS 320 double
-50.000000 -50.000000 0.000000
-50.000000 -43.343018 0.000000
-45.685681 -45.527301 0.000000
-43.279874 -50.000000 0.000000
-50.000000 -36.684930 0.000000
-36.560357 -50.000000 0.000000
-45.076947 -40.037868 0.000000
-40.013252 -44.200123 0.000000
-29.841850 -50.000000 0.000000
-50.000000 -30.026172 0.000000
-44.842054 -33.557902 0.000000
-33.105045 -44.722562 0.000000
-39.848594 -36.878550 0.000000
-35.098120 -39.882221 0.000000
-23.125473 -50.000000 0.000000
-26.482599 -44.712662 0.000000
-50.000000 -23.368581 0.000000
-44.657877 -26.957475 0.000000
-39.340103 -30.362136 0.000000
-29.561268 -39.443177 0.000000
-33.329142 -33.777998 0.000000
-50.000000 -16.710649 0.000000
-16.418864 -50.000000 0.000000
-9.724023 -50.000000 0.000000
-19.895024 -44.632136 0.000000
-23.150808 -39.199198 0.000000
-44.682637 -20.293012 0.000000
-39.340288 -23.708264 0.000000
-34.059002 -27.104217 0.000000
-26.326031 -33.704521 0.000000
-29.094252 -29.087385 0.000000
-50.000000 -10.054566 0.000000
-44.653860 -13.648541 0.000000
-50.000000 -3.402484 0.000000
-3.040326 -50.000000 0.000000
3.629077 -50.000000 0.000000
-13.262324 -44.638633 0.000000
-6.593579 -44.648553 0.000000
-16.609941 -39.231806 0.000000
-20.026081 -33.469541 0.000000
-39.305336 -17.029241 0.000000
-33.969123 -20.488561 0.000000
-28.711249 -23.653308 0.000000
-23.424155 -27.532684 0.000000
-44.616179 -6.986296 0.000000
-39.246924 -10.376635 0.000000
-50.000000 3.253108 0.000000
-44.599338 -0.336349 0.000000
10.282437 -50.000000 0.000000
16.921401 -50.000000 0.000000
0.082172 -44.652543 0.000000
6.752277 -44.662949 0.000000
-9.944037 -39.299342 0.000000
-3.256978 -39.294092 0.000000
-13.380570 -33.917666 0.000000
-16.597229 -28.445761 0.000000
-33.878659 -13.787117 0.000000
-28.513553 -17.153547 0.000000
-23.187497 -20.557576 0.000000
-18.544634 -23.504595 0.000000
-39.204434 -3.722803 0.000000
-33.805854 -7.142827 0.000000
-50.000000 9.943634 0.000000
-44.581596 6.318213 0.000000
-39.180998 2.937242 0.000000
-50.000000 16.705716 0.000000
23.549750 -50.000000 0.000000
30.169643 -50.000000 0.000000
13.414844 -44.684068 0.000000
20.077950 -44.716221 0.000000
3.423272 -39.309772 0.000000
10.085225 -39.343750 0.000000
-6.613374 -33.906090 0.000000
0.095310 -33.933604 0.000000
-9.959410 -28.456573 0.000000
-12.984349 -23.117876 0.000000
-28.405423 -10.548280 0.000000
-22.923661 -13.974026 0.000000
-16.829504 -17.482750 0.000000
-33.747600 -0.505895 0.000000
-28.386007 -3.996552 0.000000
-44.545225 13.011496 0.000000
-39.117483 9.566647 0.000000
-33.710964 6.029006 0.000000
-50.000000 23.572257 0.000000
-44.590919 19.809047 0.000000
-50.000000 30.535043 0.000000
36.780916 -50.000000 0.000000
43.390773 -50.000000 0.000000
26.736876 -44.755975 0.000000
33.370953 -44.880334 0.000000
16.735685 -39.400253 0.000000
23.415362 -39.470225 0.000000
6.769693 -33.968131 0.000000
13.409106 -34.036248 0.000000
-3.199670 -28.507217 0.000000
3.502336 -28.579018 0.000000
-6.466331 -23.040998 0.000000
-9.804090 -17.568016 0.000000
-22.985233 -7.404318 0.000000
-17.604813 -10.672486 0.000000
-12.637829 -12.891180 0.000000
-28.346389 2.564645 0.000000
-22.989823 -0.953698 0.000000
-38.982571 16.259096 0.000000
-28.315698 9.259619 0.000000
-33.498193 12.434098 0.000000
-44.734984 26.582183 0.000000
-38.700833 23.620147 0.000000
-44.983554 33.387810 0.000000
-50.000000 37.487597 0.000000
-50.000000 43.853879 0.000000
39.954244 -45.073913 0.000000
45.481886 -45.662281 0.000000
50.000000 -50.000000 0.000000
36.672259 -40.001501 0.000000
30.078047 -39.484250 0.000000
20.005785 -34.147824 0.000000
26.666477 -34.363856 0.000000
10.124984 -28.617240 0.000000
16.730133 -28.739741 0.000000
0.221262 -23.126693 0.000000
6.970570 -23.297327 0.000000
-3.211253 -17.523669 0.000000
-6.643697 -11.349831 0.000000
-17.594425 -4.244769 0.000000
-12.275538 -7.390018 0.000000
-22.923220 5.483454 0.000000
-17.676496 1.962601 0.000000
-22.592335 11.423978 0.000000
-33.293809 18.464893 0.000000
-27.366790 16.074436 0.000000
-33.014494 23.806051 0.000000
-40.290533 30.514770 0.000000
-35.385631 28.934624 0.000000
-39.905909 35.488539 0.000000
-43.910027 40.161572 0.000000
-45.266829 45.762666 0.000000
-50.000000 50.000000 0.000000
44.131100 -39.912241 0.000000
50.000000 -43.390910 0.000000
39.670322 -35.076782 0.000000
33.520186 -33.463575 0.000000
23.083977 -28.885982 0.000000
28.810347 -29.303109 0.000000
13.599338 -23.230906 0.000000
20.173619 -23.529095 0.000000
3.580288 -17.763499 0.000000
10.291377 -17.972493 0.000000
0.355102 -12.271423 0.000000
-1.885259 -6.571331 0.000000
-7.106435 -4.061015 0.000000
-12.293330 -1.203260 0.000000
-17.686283 7.997026 0.000000
-12.566598 4.778517 0.000000
-17.961133 13.107092 0.000000
-20.719100 16.774853 0.000000
-27.993378 22.481367 0.000000
-23.308439 20.967146 0.000000
-29.709014 28.627640 0.000000
-34.131605 34.069490 0.000000
-36.845570 39.933771 0.000000
-39.616750 45.262663 0.000000
-43.394173 50.000000 0.000000
44.597272 -33.005953 0.000000
50.000000 -36.768571 0.000000
39.168998 -29.623741 0.000000
33.566092 -26.424541 0.000000
27.276354 -23.398187 0.000000
23.178776 -18.742617 0.000000
17.128354 -17.089594 0.000000
6.903938 -12.381738 0.000000
12.516791 -12.862865 0.000000
-3.054521 -1.789073 0.000000
4.185341 -7.260025 0.000000
1.322700 -2.351157 0.000000
-6.687513 2.007812 0.000000
-8.037180 7.502624 0.000000
-12.296286 11.516745 0.000000
-15.025018 17.281430 0.000000
-18.438242 22.693488 0.000000
-23.541291 27.182622 0.000000
-26.917169 33.585573 0.000000
-30.018058 39.299489 0.000000
-33.094050 44.830637 0.000000
-36.624700 50.000000 0.000000
44.565647 -26.546188 0.000000
50.000000 -30.148111 0.000000
39.084653 -23.237274 0.000000
33.524429 -19.968455 0.000000
28.141359 -16.664756 0.000000
22.814474 -13.231088 0.000000
17.339547 -10.039971 0.000000
11.155090 -6.805262 0.000000
-1.066499 2.062304 0.000000
6.511571 -1.907535 0.000000
3.208038 1.397332 0.000000
-3.196138 6.958192 0.000000
-5.853354 12.159610 0.000000
-9.072559 17.405352 0.000000
-12.524778 22.859568 0.000000
-16.751484 28.007712 0.000000
-20.143459 33.336214 0.000000
-23.273706 38.976294 0.000000
-26.417583 44.602903 0.000000
-29.871306 50.000000 0.000000
44.550448 -19.986100 0.000000
50.000000 -23.520081 0.000000
39.090022 -16.662303 0.000000
33.663852 -13.362245 0.000000
28.270881 -10.069250 0.000000
22.880899 -6.725766 0.000000
17.459780 -3.479618 0.000000
12.301450 0.034695 0.000000
2.261098 6.074512 0.000000
7.385161 3.689470 0.000000
0.198959 11.755273 0.000000
-2.805992 17.293365 0.000000
-6.199167 22.784483 0.000000
-10.086703 28.107181 0.000000
-13.302111 33.526322 0.000000
-16.568176 38.980714 0.000000
-19.757368 44.493547 0.000000
-23.165002 50.000000 0.000000
44.563652 -13.363923 0.000000
50.000000 -16.882148 0.000000
39.142583 -10.039906 0.000000
33.744178 -6.728348 0.000000
28.371375 -3.413743 0.000000
23.025444 -0.104272 0.000000
17.772958 3.229059 0.000000
12.522129 6.442569 0.000000
7.084094 10.675967 0.000000
3.686976 17.006932 0.000000
0.326888 22.688934 0.000000
-3.114181 28.186232 0.000000
-6.456079 33.671822 0.000000
-9.795078 39.096161 0.000000
-13.093920 44.523335 0.000000
-16.532216 50.000000 0.000000
44.587020 -6.715679 0.000000
50.000000 -10.231146 0.000000
39.192544 -3.395471 0.000000
33.821005 -0.077589 0.000000
28.484441 3.243651 0.000000
23.204199 6.583189 0.000000
18.084012 9.908546 0.000000
12.948305 12.083092 0.000000
10.103805 17.097120 0.000000
6.807381 22.600810 0.000000
3.522871 28.170892 0.000000
0.208748 33.661435 0.000000
-3.120884 39.115704 0.000000
-6.421460 44.554154 0.000000
-9.891281 50.000000 0.000000
44.612246 -0.056519 0.000000
50.000000 -3.566487 0.000000
39.241732 3.262202 0.000000
33.895566 6.577507 0.000000
28.586076 9.908719 0.000000
23.252392 13.323763 0.000000
17.196974 16.924281 0.000000
13.170760 22.578894 0.000000
10.088769 28.157417 0.000000
6.876943 33.663199 0.000000
3.551865 39.127126 0.000000
0.238256 44.566534 0.000000
-3.242008 50.000000 0.000000
44.626242 6.613043 0.000000
50.000000 3.111064 0.000000
39.275888 9.921835 0.000000
33.961221 13.213492 0.000000
28.698734 16.516807 0.000000
23.575751 20.014856 0.000000
18.752772 23.042106 0.000000
16.614228 28.240514 0.000000
13.553822 33.713247 0.000000
10.212148 39.156491 0.000000
6.899629 44.574370 0.000000
3.410992 50.000000 0.000000
44.649580 13.273413 0.000000
50.000000 9.799896 0.000000
39.327635 16.564235 0.000000
34.043105 19.815181 0.000000
28.756158 22.877266 0.000000
23.452808 27.161468 0.000000
20.084670 33.270953 0.000000
16.763137 39.020704 0.000000
13.469689 44.519218 0.000000
10.067508 50.000000 0.000000
44.672054 19.936836 0.000000
50.000000 16.496309 0.000000
39.371135 23.224533 0.000000
34.148308 26.481058 0.000000
29.101981 28.503726 0.000000
26.347969 33.379881 0.000000
23.221605 38.950087 0.000000
20.055584 44.500265 0.000000
16.722551 50.000000 0.000000
44.679082 26.614981 0.000000
50.000000 23.196096 0.000000
39.363757 29.939634 0.000000
33.317928 33.349985 0.000000
29.532078 39.029637 0.000000
26.554111 44.500411 0.000000
23.376913 50.000000 0.000000
44.812147 33.271965 0.000000
50.000000 29.897300 0.000000
39.801628 36.581460 0.000000
34.920348 39.515557 0.000000
32.930213 44.508834 0.000000
30.032213 50.000000 0.000000
45.012529 39.867755 0.000000
50.000000 36.598892 0.000000
39.798187 43.964593 0.000000
36.686064 50.000000 0.000000
45.650465 45.407636 0.000000
50.000000 43.299610 0.000000
43.339910 50.000000 0.000000
50.000000 50.000000 0.000000
CELLS 578 2312
3 1 0 2
3 0 3 2
3 4 1 6
3 6 1 2
3 3 5 7
3 3 7 2
3 6 2 7
3 9 4 10
3 10 4 6
3 5 8 11
3 7 5 11
3 10 6 12
3 12 6 7
3 7 11 13
3 7 13 12
3 8 14 15
3 11 8 15
3 16 9 17
3 17 9 10
3 17 10 18
3 18 10 12
3 11 15 19
3 13 11 19
3 18 12 20
3 13 19 20
3 20 12 13
3 14 22 24
3 15 14 24
3 15 24 25
3 19 15 25
3 21 16 26
3 26 16 17
3 26 17 27
3 27 17 18
3 27 18 28
3 28 18 20
3 19 25 29
3 19 29 20
3 28 20 30
3 30 20 29
3 31 21 32
3 32 21 26
3 22 23 36
3 24 22 36
3 23 34 37
3 36 23 37
3 24 36 38
3 25 24 38
3 25 38 39
3 29 25 39
3 32 26 40
3 40 26 27
3 40 27 41
3 41 27 28
3 41 28 42
3 42 28 30
3 29 39 43
3 29 43 30
3 42 30 43
3 33 31 44
3 44 31 32
3 44 32 45
3 45 32 40
3 46 33 47
3 47 33 44
3 34 35 50
3 37 34 50
3 35 48 51
3 50 35 51
3 36 37 52
3 38 36 52
3 37 50 53
3 52 37 53
3 38 52 54
3 39 38 54
3 39 54 55
3 43 39 55
3 45 40 56
3 56 40 41
3 56 41 57
3 57 41 42
3 57 42 58
3 58 42 43
3 43 55 59
3 43 59 58
3 47 44 60
3 60 44 45
3 60 45 61
3 61 45 56
3 62 46 63
3 63 46 47
3 63 47 64
3 64 47 60
3 48 49 68
3 51 48 68
3 49 66 69
3 68 49 69
3 50 51 70
3 53 50 70
3 51 68 71
3 70 51 71
3 52 53 72
3 54 52 72
3 53 70 73
3 72 53 73
3 54 72 74
3 55 54 74
3 55 74 75
3 59 55 75
3 61 56 76
3 76 56 57
3 76 57 77
3 77 57 58
3 77 58 78
3 59 75 78
3 78 58 59
3 64 60 79
3 79 60 61
3 79 61 80
3 80 61 76
3 65 62 81
3 81 62 63
3 81 63 82
3 82 63 64
3 82 64 83
3 83 64 79
3 84 65 85
3 85 65 81
3 66 67 89
3 69 66 89
3 67 87 90
3 89 67 90
3 68 69 91
3 71 68 91
3 69 89 92
3 91 69 92
3 70 71 93
3 73 70 93
3 71 91 94
3 93 71 94
3 72 73 95
3 74 72 95
3 73 93 96
3 95 73 96
3 74 95 97
3 75 74 97
3 75 97 98
3 78 75 98
3 80 76 99
3 99 76 77
3 99 77 100
3 100 77 78
3 100 78 101
3 98 101 78
3 83 79 102
3 102 79 80
3 102 80 103
3 103 80 99
3 85 81 104
3 104 81 82
3 105 83 102
3 104 82 106
3 106 82 83
3 106 83 105
3 86 84 107
3 107 84 85
3 107 85 108
3 108 85 104
3 109 86 107
3 110 86 109
3 87 88 112
3 90 87 112
3 112 88 113
3 88 114 113
3 90 112 115
3 89 90 116
3 92 89 116
3 116 90 115
3 91 92 117
3 94 91 117
3 92 116 118
3 117 92 118
3 93 94 119
3 96 93 119
3 94 117 120
3 119 94 120
3 95 96 121
3 97 95 121
3 96 119 122
3 121 96 122
3 97 121 123
3 98 97 123
3 98 123 124
3 98 124 101
3 103 99 125
3 125 99 100
3 125 100 126
3 126 100 101
3 126 101 124
3 105 102 127
3 127 102 103
3 127 103 128
3 128 103 125
3 129 105 127
3 108 104 130
3 130 104 106
3 130 106 131
3 131 106 105
3 131 105 129
3 108 130 132
3 109 107 133
3 133 107 108
3 133 108 134
3 108 132 134
3 135 109 133
3 111 110 136
3 136 110 109
3 136 109 135
3 137 111 136
3 138 111 137
3 112 113 139
3 115 112 139
3 114 140 113
3 140 139 113
3 139 141 115
3 116 115 142
3 118 116 142
3 142 115 141
3 117 118 143
3 120 117 143
3 118 142 144
3 143 118 144
3 119 120 145
3 122 119 145
3 120 143 146
3 145 120 146
3 121 122 147
3 123 121 147
3 122 145 148
3 147 122 148
3 123 147 149
3 124 123 149
3 124 149 150
3 151 126 124
3 124 150 151
3 128 125 152
3 152 125 126
3 152 126 151
3 129 127 153
3 153 127 128
3 128 152 154
3 153 128 154
3 155 129 153
3 131 129 156
3 156 129 155
3 132 130 157
3 130 131 157
3 157 131 158
3 131 156 158
3 132 157 159
3 132 159 134
3 135 133 160
3 160 133 134
3 160 134 159
3 136 135 161
3 135 160 161
3 162 137 136
3 161 162 136
3 163 138 137
3 162 163 137
3 139 164 141
3 140 165 139
3 139 165 164
3 141 164 166
3 141 166 142
3 166 167 142
3 144 142 167
3 167 168 144
3 143 144 168
3 146 143 168
3 168 169 146
3 145 146 170
3 148 145 170
3 170 146 169
3 147 148 171
3 149 147 171
3 148 170 172
3 171 148 172
3 173 151 150
3 149 171 174
3 150 149 174
3 150 174 175
3 150 175 173
3 154 152 176
3 152 151 176
3 176 151 173
3 154 176 177
3 155 153 178
3 177 178 154
3 154 178 153
3 156 155 179
3 155 178 179
3 180 158 156
3 179 180 156
3 181 159 157
3 180 181 158
3 181 157 158
3 182 160 159
3 181 182 159
3 183 161 160
3 182 183 160
3 184 162 161
3 184 161 183
3 185 163 162
3 184 185 162
3 164 186 166
3 165 187 164
3 164 187 186
3 166 186 188
3 166 188 167
3 167 188 189
3 167 189 168
3 168 189 190
3 168 190 169
3 169 190 191
3 169 191 170
3 192 172 170
3 170 191 192
3 192 193 172
3 171 172 193
3 174 171 193
3 194 173 175
3 176 173 194
3 175 174 195
3 193 195 174
3 195 196 175
3 175 196 194
3 197 177 176
3 194 197 176
3 198 178 177
3 197 198 177
3 199 179 178
3 198 199 178
3 200 180 179
3 199 200 179
3 201 181 180
3 200 201 180
3 202 182 181
3 201 202 181
3 203 183 182
3 202 203 182
3 204 184 183
3 203 204 183
3 205 185 184
3 204 205 184
3 186 206 188
3 187 207 186
3 186 207 206
3 188 206 208
3 188 208 189
3 189 208 209
3 189 209 190
3 190 209 210
3 190 210 191
3 191 210 211
3 191 211 192
3 192 211 212
3 192 212 193
3 193 212 213
3 193 213 195
3 214 197 194
3 214 194 196
3 195 213 215
3 195 215 196
3 196 215 214
3 216 198 197
3 214 216 197
3 217 199 198
3 216 217 198
3 218 200 199
3 217 218 199
3 219 201 200
3 218 219 200
3 220 202 201
3 219 220 201
3 221 203 202
3 220 221 202
3 222 204 203
3 221 222 203
3 223 205 204
3 222 223 204
3 206 224 208
3 207 225 206
3 206 225 224
3 208 224 226
3 208 226 209
3 209 226 227
3 209 227 210
3 210 227 228
3 210 228 211
3 211 228 229
3 211 229 212
3 212 229 230
3 212 230 213
3 213 230 231
3 213 231 215
3 232 216 214
3 215 231 232
3 232 214 215
3 233 217 216
3 232 233 216
3 234 218 217
3 233 234 217
3 235 219 218
3 234 235 218
3 236 220 219
3 235 236 219
3 237 221 220
3 236 237 220
3 238 222 221
3 237 238 221
3 239 223 222
3 238 239 222
3 224 240 226
3 225 241 224
3 224 241 240
3 226 240 242
3 226 242 227
3 227 242 243
3 227 243 228
3 228 243 244
3 228 244 229
3 244 245 229
3 229 245 230
3 230 245 246
3 230 246 231
3 231 246 247
3 231 247 232
3 248 233 232
3 248 232 247
3 249 234 233
3 248 249 233
3 250 235 234
3 249 250 234
3 251 236 235
3 250 251 235
3 252 237 236
3 251 252 236
3 253 238 237
3 252 253 237
3 254 239 238
3 253 254 238
3 240 255 242
3 241 256 240
3 240 256 255
3 242 255 257
3 242 257 243
3 243 257 258
3 243 258 244
3 244 258 259
3 244 259 245
3 245 259 260
3 245 260 246
3 246 260 261
3 246 261 247
3 248 247 261
3 262 249 248
3 261 262 248
3 263 250 249
3 262 263 249
3 264 251 250
3 263 264 250
3 265 252 251
3 264 265 251
3 266 253 252
3 265 266 252
3 267 254 253
3 266 267 253
3 255 268 257
3 256 269 255
3 255 269 268
3 257 268 270
3 257 270 258
3 258 270 271
3 258 271 259
3 259 271 272
3 259 272 260
3 260 272 273
3 260 273 261
3 274 262 261
3 261 273 274
3 275 263 262
3 274 275 262
3 276 264 263
3 275 276 263
3 277 265 264
3 276 277 264
3 278 266 265
3 277 278 265
3 279 267 266
3 278 279 266
3 268 280 270
3 269 281 268
3 268 281 280
3 270 280 282
3 270 282 271
3 271 282 283
3 271 283 272
3 283 284 272
3 272 284 273
3 285 275 274
3 273 284 285
3 285 274 273
3 286 276 275
3 285 286 275
3 287 277 276
3 286 287 276
3 288 278 277
3 287 288 277
3 289 279 278
3 288 289 278
3 280 290 282
3 281 291 280
3 280 291 290
3 282 290 292
3 282 292 283
3 283 292 293
3 283 293 284
3 284 293 294
3 284 294 285
3 295 286 285
3 295 285 294
3 296 287 286
3 295 296 286
3 297 288 287
3 296 297 287
3 298 289 288
3 297 298 288
3 290 299 292
3 291 300 290
3 290 300 299
3 292 299 301
3 292 301 293
3 293 301 302
3 293 302 294
3 294 302 295
3 303 296 295
3 303 295 302
3 304 297 296
3 303 304 296
3 305 298 297
3 304 305 297
3 299 306 301
3 300 307 299
3 299 307 306
3 301 306 308
3 301 308 302
3 309 303 302
3 302 308 309
3 310 304 303
3 309 310 303
3 311 305 304
3 310 311 304
3 306 312 308
3 307 313 306
3 306 313 312
3 314 310 309
3 308 312 314
3 314 309 308
3 315 311 310
3 314 315 310
3 312 316 314
3 313 317 312
3 312 317 316
3 318 315 314
3 318 314 316
3 317 319 316
3 319 318 316
CELL_TYPES 578
5
5
5
5
5
5
5
5
5
5
5
5
5
5
5
5
5
5
5
5
5
5
5
5
5
5
5
5
5
5
5
5
5
5
5
5
5
5
5
5
5
5
5
5
5
5
5
5
5
5
5
5
5
5
5
5
5
5
5
5
5
5
5
5
5
5
5
5
5
5
5
5
5
5
5
5
5
5
5
5
5
5
5
5
5
5
5
5
5
5
5
5
5
5
5
5
5
5
5
5
5
5
5
5
5
5
5
5
5
5
5
5
5
5
5
5
5
5
5
5
5
5
5
5
5
5
5
5
5
5
5
5
5
5
5
5
5
5
5
5
5
5
5
5
5
5
5
5
5
5
5
5
5
5
5
5
5
5
5
5
5
5
5
5
5
5
5
5
5
5
5
5
5
5
5
5
5
5
5
5
5
5
5
5
5
5
5
5
5
5
5
5
5
5
5
5
5
5
5
5
5
5
5
5
5
5
5
5
5
5
5
5
5
5
5
5
5
5
5
5
5
5
5
5
5
5
5
5
5
5
5
5
5
5
5
5
5
5
5
5
5
5
5
5
5
5
5
5
5
5
5
5
5
5
5
5
5
5
5
5
5
5
5
5
5
5
5
5
5
5
5
5
5
5
5
5
5
5
5
5
5
5
5
5
5
5
5
5
5
5
5
5
5
5
5
5
5
5
5
5
5
5
5
5
5
5
5
5
5
5
5
5
5
5
5
5
5
5
5
5
5
5
5
5
5
5
5
5
5
5
5
5
5
5
5
5
5
5
5
5
5
5
5
5
5
5
5
5
5
5
5
5
5
5
5
5
5
5
5
5
5
5
5
5
5
5
5
5
5
5
5
5
5
5
5
5
5
5
5
5
5
5
5
5
5
5
5
5
5
5
5
5
5
5
5
5
5
5
5
5
5
5
5
5
5
5
5
5
5
5
5
5
5
5
5
5
5
5
5
5
5
5
5
5
5
5
5
5
5
5
5
5
5
5
5
5
5
5
5
5
5
5
5
5
5
5
5
5
5
5
5
5
5
5
5
5
5
5
5
5
5
5
5
5
5
5
5
5
5
5
5
5
5
5
5
5
5
5
5
5
5
5
5
5
5
5
5
5
5
5
5
5
5
5
5
5
5
5
5
5
5
5
5
5
5
5
5
5
5
5
5
5
5
5
5
5
5
5
5
5
5
5
5
5
5
5
5
5
5
5
5
5
5
5
5
5
5
5
5
5
5
5
5
5
5
5
5
5
5
5
5
5
5
5
5
5
5
5
5
5
5
5
5
5
5
5
5
5
5
5
5
5
5
5
5
5
5
5
POINT_DATA 320
SCALARS theta_e float 1
LOOKUP_TABLE default
0.994045
0.994057
0.994039
0.994015
0.994073
0.993948
0.994046
0.993991
0.993831
0.994093
0.994065
0.993892
0.994005
0.993937
0.993689
0.993764
0.994112
0.994086
0.994021
0.993835
0.993924
0.994133
0.993528
0.993357
0.993614
0.993703
0.994110
0.994055
0.993973
0.993795
0.993877
0.994160
0.994139
0.994199
0.993181
0.993006
0.993449
0.993275
0.993551
0.993659
0.994093
0.994016
0.993913
0.993776
0.994176
0.994136
0.994249
0.994222
0.992833
0.992666
0.993098
0.992924
0.993379
0.993200
0.993494
0.993611
0.994068
0.993969
0.993842
0.993713
0.994183
0.994122
0.994312
0.994278
0.994236
0.994384
0.992509
0.992369
0.992755
0.992594
0.993022
0.992851
0.993315
0.993131
0.993438
0.993566
0.994033
0.993905
0.993731
0.994178
0.994105
0.994344
0.994295
0.994235
0.994458
0.994414
0.994519
0.992254
0.992179
0.992447
0.992320
0.992692
0.992545
0.992954
0.992792
0.993254
0.993072
0.993381
0.993557
0.994001
0.993854
0.993724
0.994173
0.994097
0.994360
0.994234
0.994293
0.994481
0.994425
0.994532
0.994558
0.994579
0.992225
0.992171
0.992152
0.992304
0.992413
0.992649
0.992522
0.992903
0.992759
0.993183
0.992998
0.993384
0.993600
0.993959
0.993897
0.994178
0.994072
0.994234
0.994349
0.994283
0.994394
0.994486
0.994444
0.994522
0.994559
0.994580
0.994588
0.992230
0.992179
0.992316
0.992418
0.992635
0.992537
0.992852
0.992748
0.993179
0.992991
0.993353
0.993189
0.994006
0.994164
0.994159
0.994220
0.994211
0.994262
0.994339
0.994296
0.994399
0.994469
0.994523
0.994558
0.994577
0.992310
0.992245
0.992410
0.992516
0.992640
0.992759
0.992831
0.993303
0.993070
0.993442
0.993332
0.992678
0.994326
0.994434
0.994181
0.994219
0.994276
0.994334
0.994406
0.994470
0.994519
0.994550
0.992424
0.992348
0.992522
0.992626
0.992733
0.992835
0.992974
0.993445
0.993312
0.993303
0.992768
0.994068
0.994282
0.994148
0.994225
0.994281
0.994341
0.994407
0.994463
0.994503
0.992558
0.992476
0.992653
0.992751
0.992855
0.992931
0.993144
0.993499
0.993424
0.993394
0.993987
0.994104
0.994147
0.994217
0.994276
0.994339
0.994396
0.994440
0.992708
0.992622
0.992801
0.992897
0.993001
0.993078
0.993269
0.993592
0.993751
0.993957
0.994045
0.994139
0.994208
0.994270
0.994324
0.994369
0.992869
0.992782
0.992962
0.993058
0.993166
0.993265
0.993440
0.993666
0.993805
0.993930
0.994048
0.994137
0.994202
0.994254
0.994295
0.993037
0.992949
0.993130
0.993228
0.993340
0.993463
0.993621
0.993817
0.993957
0.994064
0.994138
0.994190
0.994227
0.993202
0.993116
0.993296
0.993396
0.993507
0.993631
0.993746
0.993877
0.993992
0.994076
0.994130
0.994165
0.993357
0.993275
0.993450
0.993550
0.993656
0.993787
0.993918
0.994010
0.994069
0.994106
0.993495
0.993420
0.993584
0.993677
0.993761
0.993856
0.993944
0.994006
0.994044
0.993614
0.993548
0.993696
0.993787
0.993881
0.993941
0.993980
0.993709
0.993654
0.993774
0.993833
0.993882
0.993918
0.993777
0.993738
0.993828
0.993863
0.993811
0.993789
0.993829
0.993812
VECTORS fa_u float
0.000000 0.000000 0.000000
0.000000 0.000000 0.000000
0.000000 0.000000 0.000000
0.000000 0.000000 0.000000
0.000000 0.000000 0.000000
0.000000 0.000000 0.000000
0.000000 0.000000 0.000000
0.000000 0.000000 0.000000
0.000000 0.000000 0.000000
0.000000 0.000000 0.000000
0.000000 0.000000 0.000000
0.000000 0.000000 0.000000
0.000000 0.000000 0.000000
0.000000 0.000000 0.000000
0.000000 0.000000 0.000000
0.000000 0.000000 0.000000
0.000000 0.000000 0.000000
0.000000 0.000000 0.000000
0.000000 0.000000 0.000000
0.000000 0.000000 0.000000
0.000000 0.000000 0.000000
0.000000 0.000000 0.000000
0.000000 0.000000 0.000000
0.000000 0.000000 0.000000
0.000000 0.000000 0.000000
0.000000 0.000000 0.000000
0.000000 0.000000 0.000000
0.000000 0.000000 0.000000
0.000000 0.000000 0.000000
0.000000 0.000000 0.000000
0.000000 0.000000 0.000000
0.000000 0.000000 0.000000
0.000000 0.000000 0.000000
0.000000 0.000000 0.000000
0.000000 0.000000 0.000000
0.000000 0.000000 0.000000
0.000000 0.000000 0.000000
0.000000 0.000000 0.000000
0.000000 0.000000 0.000000
0.000000 0.000000 0.000000
0.000000 0.000000 0.000000
0.000000 0.000000 0.000000
0.000000 0.000000 0.000000
0.000000 0.000000 0.000000
0.000000 0.000000 0.000000
0.000000 0.000000 0.000000
0.000000 0.000000 0.000000
0.000000 0.000000 0.000000
0.000000 0.000000 0.000000
0.000000 0.000000 0.000000
0.000000 0.000000 0.000000
0.000000 0.000000 0.000000
0.000000 0.000000 0.000000
0.000000 0.000000 0.000000
0.000000 0.000000 0.000000
0.000000 0.000000 0.000000
0.000000 0.000000 0.000000
0.000000 0.000000 0.000000
0.000000 0.000000 0.000000
0.000000 0.000000 0.000000
0.000000 0.000000 0.000000
0.000000 0.000000 0.000000
0.000000 0.000000 0.000000
0.000000 0.000000 0.000000
0.000000 0.000000 0.000000
0.000000 0.000000 0.000000
0.000000 0.000000 0.000000
0.000000 0.000000 0.000000
0.000000 0.000000 0.000000
0.000000 0.000000 0.000000
0.000000 0.000000 0.000000
0.000000 0.000000 0.000000
0.000000 0.000000 0.000000
0.000000 0.000000 0.000000
0.000000 0.000000 0.000000
0.000000 0.000000 0.000000
0.000000 0.000000 0.000000
0.000000 0.000000 0.000000
0.000000 0.000000 0.000000
0.000000 0.000000 0.000000
0.000000 0.000000 0.000000
0.000000 0.000000 0.000000
0.000000 0.000000 0.000000
0.000000 0.000000 0.000000
0.000000 0.000000 0.000000
0.000000 0.000000 0.000000
0.000000 0.000000 0.000000
0.000000 0.000000 0.000000
0.000000 0.000000 0.000000
0.000000 0.000000 0.000000
0.000000 0.000000 0.000000
0.000000 0.000000 0.000000
0.000000 0.000000 0.000000
0.000000 0.000000 0.000000
0.000000 0.000000 0.000000
0.000000 0.000000 0.000000
0.000000 0.000000 0.000000
0.000000 0.000000 0.000000
0.000000 0.000000 0.000000
0.000000 0.000000 0.000000
0.000000 0.000000 0.000000
0.000000 0.000000 0.000000
0.000000 0.000000 0.000000
0.000000 0.000000 0.000000
0.000000 0.000000 0.000000
0.000000 0.000000 0.000000
0.000000 0.000000 0.000000
0.000000 0.000000 0.000000
0.000000 0.000000 0.000000
0.000000 0.000000 0.000000
0.000000 0.000000 0.000000
0.000000 0.000000 0.000000
0.000000 0.000000 0.000000
0.000000 0.000000 0.000000
0.000000 0.000000 0.000000
0.000000 0.000000 0.000000
0.000000 0.000000 0.000000
0.000000 0.000000 0.000000
0.000000 0.000000 0.000000
0.000000 0.000000 0.000000
0.000000 0.000000 0.000000
0.000000 0.000000 0.000000
0.000000 0.000000 0.000000
0.000000 0.000000 0.000000
0.000000 0.000000 0.000000
0.000000 0.000000 0.000000
0.000000 0.000000 0.000000
0.000000 0.000000 0.000000
0.000000 0.000000 0.000000
0.000000 0.000000 0.000000
0.000000 0.000000 0.000000
0.000000 0.000000 0.000000
0.000000 0.000000 0.000000
0.000000 0.000000 0.000000
0.000000 0.000000 0.000000
0.000000 0.000000 0.000000
0.000000 0.000000 0.000000
0.000000 0.000000 0.000000
0.000000 0.000000 0.000000
0.000000 0.000000 0.000000
0.000000 0.000000 0.000000
0.000000 0.000000 0.000000
0.000000 0.000000 0.000000
0.000000 0.000000 0.000000
0.000000 0.000000 0.000000
0.000000 0.000000 0.000000
0.000000 0.000000 0.000000
0.000000 0.000000 0.000000
0.000000 0.000000 0.000000
0.000000 0.000000 0.000000
0.000000 0.000000 0.000000
0.000000 0.000000 0.000000
0.000000 0.000000 0.000000
0.000000 0.000000 0.000000
0.000000 0.000000 0.000000
0.000000 0.000000 0.000000
0.000000 0.000000 0.000000
0.000000 0.000000 0.000000
0.000000 0.000000 0.000000
0.000000 0.000000 0.000000
0.000000 0.000000 0.000000
0.000000 0.000000 0.000000
0.000000 0.000000 0.000000
0.000000 0.000000 0.000000
0.000000 0.000000 0.000000
0.000000 0.000000 0.000000
0.000000 0.000000 0.000000
0.000000 0.000000 0.000000
0.000000 0.000000 0.000000
0.000000 0.000000 0.000000
0.000000 0.000000 0.000000
0.000000 0.000000 0.000000
0.000000 0.000000 0.000000
0.000000 0.000000 0.000000
0.000000 0.000000 0.000000
0.000000 0.000000 0.000000
0.000000 0.000000 0.000000
0.000000 0.000000 0.000000
0.000000 0.000000 0.000000
0.000000 0.000000 0.000000
0.000000 0.000000 0.000000
0.000000 0.000000 0.000000
0.000000 0.000000 0.000000
0.000000 0.000000 0.000000
0.000000 0.000000 0.000000
0.000000 0.000000 0.000000
0.000000 0.000000 0.000000
0.000000 0.000000 0.000000
0.000000 0.000000 0.000000
0.000000 0.000000 0.000000
0.000000 0.000000 0.000000
0.000000 0.000000 0.000000
0.000000 0.000000 0.000000
0.000000 0.000000 0.000000
0.000000 0.000000 0.000000
0.000000 0.000000 0.000000
0.000000 0.000000 0.000000
0.000000 0.000000 0.000000
0.000000 0.000000 0.000000
0.000000 0.000000 0.000000
0.000000 0.000000 0.000000
0.000000 0.000000 0.000000
0.000000 0.000000 0.000000
0.000000 0.000000 0.000000
0.000000 0.000000 0.000000
0.000000 0.000000 0.000000
0.000000 0.000000 0.000000
0.000000 0.000000 0.000000
0.000000 0.000000 0.000000
0.000000 0.000000 0.000000
0.000000 0.000000 0.000000
0.000000 0.000000 0.000000
0.000000 0.000000 0.000000
0.000000 0.000000 0.000000
0.000000 0.000000 0.000000
0.000000 0.000000 0.000000
0.000000 0.000000 0.000000
0.000000 0.000000 0.000000
0.000000 0.000000 0.000000
0.000000 0.000000 0.000000
0.000000 0.000000 0.000000
0.000000 0.000000 0.000000
0.000000 0.000000 0.000000
0.000000 0.000000 0.000000
0.000000 0.000000 0.000000
0.000000 0.000000 0.000000
0.000000 0.000000 0.000000
0.000000 0.000000 0.000000
0.000000 0.000000 0.000000
0.000000 0.000000 0.000000
0.000000 0.000000 0.000000
0.000000 0.000000 0.000000
0.000000 0.000000 0.000000
0.000000 0.000000 0.000000
0.000000 0.000000 0.000000
0.000000 0.000000 0.000000
0.000000 0.000000 0.000000
0.000000 0.000000 0.000000
0.000000 0.000000 0.000000
0.000000 0.000000 0.000000
0.000000 0.000000 0.000000
0.000000 0.000000 0.000000
0.000000 0.000000 0.000000
0.000000 0.000000 0.000000
0.000000 0.000000 0.000000
0.000000 0.000000 0.000000
0.000000 0.000000 0.000000
0.000000 0.000000 0.000000
0.000000 0.000000 0.000000
0.000000 0.000000 0.000000
0.000000 0.000000 0.000000
0.000000 0.000000 0.000000
0.000000 0.000000 0.000000
0.000000 0.000000 0.000000
0.000000 0.000000 0.000000
0.000000 0.000000 0.000000
0.000000 0.000000 0.000000
0.000000 0.000000 0.000000
0.000000 0.000000 0.000000
0.000000 0.000000 0.000000
0.000000 0.000000 0.000000
0.000000 0.000000 0.000000
0.000000 0.000000 0.000000
0.000000 0.000000 0.000000
0.000000 0.000000 0.000000
0.000000 0.000000 0.000000
0.000000 0.000000 0.000000
0.000000 0.000000 0.000000
0.000000 0.000000 0.000000
0.000000 0.000000 0.000000
0.000000 0.000000 0.000000
0.000000 0.000000 0.000000
0.000000 0.000000 0.000000
0.000000 0.000000 0.000000
0.000000 0.000000 0.000000
0.000000 0.000000 0.000000
0.000000 0.000000 0.000000
0.000000 0.000000 0.000000
0.000000 0.000000 0.000000
0.000000 0.000000 0.000000
0.000000 0.000000 0.000000
0.000000 0.000000 0.000000
0.000000 0.000000 0.000000
0.000000 0.000000 0.000000
0.000000 0.000000 0.000000
0.000000 0.000000 0.000000
0.000000 0.000000 0.000000
0.000000 0.000000 0.000000
0.000000 0.000000 0.000000
0.000000 0.000000 0.000000
0.000000 0.000000 0.000000
0.000000 0.000000 0.000000
0.000000 0.000000 0.000000
0.000000 0.000000 0.000000
0.000000 0.000000 0.000000
0.000000 0.000000 0.000000
0.000000 0.000000 -50.000000
-50.000000 0.000000 -50.000000
-43.343018 0.000000 -45.685681
-45.527301 0.000000 -43.279874
-50.000000 0.000000 -50.000000
-36.684930 0.000000 -36.560357
-50.000000 0.000000 -45.076947
-40.037868 0.000000 -40.013252
-44.200123 0.000000 -29.841850
-50.000000 0.000000 -50.000000
-30.026172 0.000000 -44.842054
-33.557902 0.000000 -33.105045
-44.722562 0.000000 -39.848594
-36.878550 0.000000 -35.098120
-39.882221 0.000000 -23.125473
-50.000000 0.000000 -26.482599
-44.712662 0.000000 -50.000000
-23.368581 0.000000 -44.657877
-26.957475 0.000000 -39.340103
-30.362136 0.000000 -29.561268
-39.443177 0.000000 -33.329142
-33.777998 0.000000 -50.000000
-16.710649 0.000000 -16.418864
-50.000000 0.000000 -9.724023
