# vtk DataFile Version 2.0
CellBP Time: 1.92
ASCII
DATASET UNSTRUCTURED_GRID
POINTS 320 double
-50.000000 -50.000000 0.000000
-50.000000 -43.349670 0.000000
-45.684993 -45.530912 0.000000
-43.279829 -50.000000 0.000000
-50.000000 -36.698419 0.000000
-36.560831 -50.000000 0.000000
-45.076018 -40.046564 0.000000
-40.011634 -44.204701 0.000000
-29.842328 -50.000000 0.000000
-50.000000 -30.046131 0.000000
-44.840618 -33.572202 0.000000
-33.102853 -44.726676 0.000000
-39.846669 -36.889950 0.000000
-35.095453 -39.890400 0.000000
-23.125833 -50.000000 0.000000
-26.479417 -44.716949 0.000000
-50.000000 -23.394539 0.000000
-44.655540 -26.977114 0.000000
-39.336749 -30.378733 0.000000
-29.557532 -39.451686 0.000000
-33.325086 -33.791549 0.000000
-50.000000 -16.741799 0.000000
-16.418922 -50.000000 0.000000
-9.723672 -50.000000 0.000000
-19.890784 -44.636583 0.000000
-23.145921 -39.208076 0.000000
-44.679445 -20.317642 0.000000
-39.335147 -23.730247 0.000000
-34.053084 -27.123327 0.000000
-26.319826 -33.717825 0.000000
-29.087561 -29.104610 0.000000
-50.000000 -10.089503 0.000000
-44.650078 -13.677119 0.000000
-50.000000 -3.439476 0.000000
-3.039850 -50.000000 0.000000
3.629487 -50.000000 0.000000
-13.257053 -44.643087 0.000000
-6.587535 -44.652602 0.000000
-16.603885 -39.240753 0.000000
-20.018304 -33.483094 0.000000
-39.298921 -17.055861 0.000000
-33.960673 -20.512592 0.000000
-28.702073 -23.674421 0.000000
-23.414861 -27.550193 0.000000
-44.611862 -7.017558 0.000000
-39.239506 -10.406545 0.000000
-50.000000 3.215820 0.000000
-44.594534 -0.368890 0.000000
10.282787 -50.000000 0.000000
16.921766 -50.000000 0.000000
0.088604 -44.656215 0.000000
6.758785 -44.666329 0.000000
-9.937291 -39.307536 0.000000
-3.249710 -39.301348 0.000000
-13.372154 -33.930176 0.000000
-16.586921 -28.461606 0.000000
-33.868621 -13.814920 0.000000
-28.501806 -17.178658 0.000000
-23.175107 -20.579595 0.000000
-18.532159 -23.523554 0.000000
-39.195870 -3.754784 0.000000
-33.793990 -7.173288 0.000000
-50.000000 9.907538 0.000000
-44.576150 6.285873 0.000000
-39.171278 2.904482 0.000000
-50.000000 16.671861 0.000000
23.550077 -50.000000 0.000000
30.169948 -50.000000 0.000000
13.421110 -44.687148 0.000000
20.083667 -44.718861 0.000000
3.430704 -39.316381 0.000000
10.092526 -39.349738 0.000000
-6.604426 -33.917539 0.000000
0.104704 -33.943880 0.000000
-9.948196 -28.471888 0.000000
-12.970229 -23.136365 0.000000
-28.391221 -10.576578 0.000000
-22.907739 -13.999781 0.000000
-16.812730 -17.505651 0.000000
-33.733699 -0.538063 0.000000
-28.369008 -4.027179 0.000000
-44.538738 12.980728 0.000000
-39.106275 9.534692 0.000000
-33.695477 5.996516 0.000000
-50.000000 23.542818 0.000000
-44.584427 19.781292 0.000000
-50.000000 30.512015 0.000000
36.781472 -50.000000 0.000000
43.391231 -50.000000 0.000000
26.741781 -44.758312 0.000000
33.374715 -44.882575 0.000000
16.742540 -39.405557 0.000000
23.421622 -39.474790 0.000000
6.779055 -33.977529 0.000000
13.418078 -34.044647 0.000000
-3.187758 -28.521638 0.000000
3.514560 -28.591946 0.000000
-6.450994 -23.058958 0.000000
-9.784487 -17.589497 0.000000
-22.966155 -7.433006 0.000000
-17.584423 -10.699650 0.000000
-12.615545 -12.916689 0.000000
-28.327108 2.532862 0.000000
-22.967709 -0.983889 0.000000
-38.969741 16.229662 0.000000
-28.294380 9.228195 0.000000
-33.481392 12.403211 0.000000
-44.728834 26.558746 0.000000
-38.686449 23.594240 0.000000
-44.976237 33.369988 0.000000
-50.000000 37.470815 0.000000
-50.000000 43.845254 0.000000
39.956756 -45.075509 0.000000
45.483463 -45.663606 0.000000
50.000000 -50.000000 0.000000
36.675782 -40.004623 0.000000
30.083415 -39.488088 0.000000
20.014061 -34.155205 0.000000
26.673464 -34.370045 0.000000
10.136873 -28.628936 0.000000
16.741268 -28.750099 0.000000
0.236741 -23.143737 0.000000
6.985702 -23.312347 0.000000
-3.190507 -17.543616 0.000000
-6.614673 -11.371460 0.000000
-17.571291 -4.274333 0.000000
-12.252209 -7.419245 0.000000
-22.897867 5.452403 0.000000
-17.648927 1.931584 0.000000
-22.563863 11.392739 0.000000
-33.274618 18.436400 0.000000
-27.342328 16.044402 0.000000
-32.993250 23.779734 0.000000
-40.278302 30.493631 0.000000
-35.366045 28.911602 0.000000
-39.892497 35.472300 0.000000
-43.901631 40.150577 0.000000
-45.260815 45.757738 0.000000
-50.000000 50.000000 0.000000
44.133046 -39.914966 0.000000
50.000000 -43.390693 0.000000
39.674014 -35.080731 0.000000
33.525768 -33.468557 0.000000
23.093755 -28.894517 0.000000
28.818363 -29.310203 0.000000
13.613932 -23.244417 0.000000
20.186460 -23.540190 0.000000
3.598735 -17.781923 0.000000
10.309133 -17.989818 0.000000
0.381769 -12.286909 0.000000
-1.857417 -6.577687 0.000000
-7.078074 -4.084588 0.000000
-12.265367 -1.234235 0.000000
-17.654943 7.964904 0.000000
-12.534025 4.746773 0.000000
-17.928466 13.076070 0.000000
-20.688317 16.744865 0.000000
-27.968485 22.453550 0.000000
-23.279665 20.938175 0.000000
-29.683466 28.604050 0.000000
-34.111336 34.051397 0.000000
-36.829173 39.922133 0.000000
-39.603953 45.257217 0.000000
-43.384442 50.000000 0.000000
44.599830 -33.009711 0.000000
50.000000 -36.768911 0.000000
39.173525 -29.628613 0.000000
33.573442 -26.430672 0.000000
27.286974 -23.406752 0.000000
23.193348 -18.753824 0.000000
17.145878 -17.104612 0.000000
6.926626 -12.401369 0.000000
12.538278 -12.881946 0.000000
-3.037467 -1.804204 0.000000
4.209311 -7.270107 0.000000
1.348783 -2.365625 0.000000
-6.653976 1.977462 0.000000
-8.000161 7.468061 0.000000
-12.260256 11.484911 0.000000
-14.991184 17.252418 0.000000
-18.406284 22.666035 0.000000
-23.511616 27.157615 0.000000
-26.890201 33.567813 0.000000
-29.994514 39.288080 0.000000
-33.074154 44.824756 0.000000
-36.605989 50.000000 0.000000
44.568396 -26.550511 0.000000
50.000000 -30.147792 0.000000
39.090371 -23.242550 0.000000
33.533347 -19.975589 0.000000
28.154298 -16.673815 0.000000
22.831718 -13.243428 0.000000
17.361083 -10.056057 0.000000
11.181184 -6.824645 0.000000
-1.022724 2.040574 0.000000
6.544021 -1.933291 0.000000
3.243555 1.377340 0.000000
-3.158290 6.923846 0.000000
-5.817456 12.128727 0.000000
-9.037417 17.377170 0.000000
-12.490362 22.834224 0.000000
-16.718673 27.986090 0.000000
-20.112390 33.319656 0.000000
-23.244690 38.965119 0.000000
-26.391284 44.597177 0.000000
-29.844846 50.000000 0.000000
44.553783 -19.990660 0.000000
50.000000 -23.519164 0.000000
39.096606 -16.667777 0.000000
33.674218 -13.369259 0.000000
28.285627 -10.078066 0.000000
22.900544 -6.737861 0.000000
17.484470 -3.495103 0.000000
12.328255 0.018646 0.000000
2.295521 6.050692 0.000000
7.411460 3.661884 0.000000
0.233792 11.729764 0.000000
-2.772472 17.269807 0.000000
-6.164775 22.762545 0.000000
-10.052581 28.088556 0.000000
-13.268261 33.512271 0.000000
-16.535224 38.970616 0.000000
-19.726073 44.488190 0.000000
-23.132062 50.000000 0.000000
44.567397 -13.368439 0.000000
50.000000 -16.880487 0.000000
39.150126 -10.045138 0.000000
33.756194 -6.734926 0.000000
28.388183 -3.422132 0.000000
23.047176 -0.115305 0.000000
17.799239 3.215337 0.000000
12.550710 6.428006 0.000000
7.115441 10.656771 0.000000
3.719141 16.989962 0.000000
0.359915 22.671750 0.000000
-3.080076 28.170766 0.000000
-6.420865 33.659446 0.000000
-9.759429 39.087126 0.000000
-13.059038 44.518322 0.000000
-16.494363 50.000000 0.000000
44.591176 -6.719827 0.000000
50.000000 -10.228824 0.000000
39.201020 -3.400107 0.000000
33.834218 -0.083392 0.000000
28.502342 3.236297 0.000000
23.226626 6.574126 0.000000
18.110108 9.896896 0.000000
12.977747 12.070033 0.000000
10.134431 17.083632 0.000000
6.839474 22.587359 0.000000
3.556351 28.158012 0.000000
0.243928 33.650206 0.000000
-3.084325 39.107466 0.000000
-6.384789 44.549527 0.000000
-9.850335 50.000000 0.000000
44.616764 -0.060076 0.000000
50.000000 -3.563624 0.000000
39.250847 3.258272 0.000000
33.909427 6.572520 0.000000
28.604510 9.902501 0.000000
23.275209 13.316020 0.000000
17.224192 16.914151 0.000000
13.200277 22.568558 0.000000
10.120326 28.147574 0.000000
6.910467 33.654208 0.000000
3.587325 39.120192 0.000000
0.274764 44.562540 0.000000
-3.199945 50.000000 0.000000
44.631013 6.610129 0.000000
50.000000 3.114298 0.000000
39.285449 9.918546 0.000000
33.975670 13.209180 0.000000
28.717766 16.511295 0.000000
23.599040 20.008032 0.000000
18.779364 23.034254 0.000000
16.642765 28.233170 0.000000
13.584571 33.706106 0.000000
10.245148 39.150524 0.000000
6.934262 44.570751 0.000000
3.452337 50.000000 0.000000
44.654461 13.271142 0.000000
50.000000 9.803300 0.000000
39.337477 16.561628 0.000000
34.057932 19.811548 0.000000
28.775697 22.872242 0.000000
23.476975 27.155419 0.000000
20.111476 33.265072 0.000000
16.792381 39.015866 0.000000
13.500849 44.516192 0.000000
10.105984 50.000000 0.000000
44.676936 19.935187 0.000000
50.000000 16.499703 0.000000
39.381013 23.222747 0.000000
34.162860 26.478307 0.000000
29.120973 28.499793 0.000000
26.369632 33.376423 0.000000
23.245779 38.947094 0.000000
20.082125 44.498264 0.000000
16.756503 50.000000 0.000000
44.683828 26.613901 0.000000
50.000000 23.199302 0.000000
39.373493 29.938494 0.000000
33.333128 33.347886 0.000000
29.550823 39.027968 0.000000
26.575439 44.499193 0.000000
23.405243 50.000000 0.000000
44.816697 33.271315 0.000000
50.000000 29.900021 0.000000
39.810927 36.580515 0.000000
34.934313 39.514529 0.000000
32.945986 44.508472 0.000000
30.053976 50.000000 0.000000
45.016812 39.867375 0.000000
50.000000 36.600900 0.000000
39.807516 43.964501 0.000000
36.701016 50.000000 0.000000
45.654291 45.407605 0.000000
50.000000 43.300701 0.000000
43.347730 50.000000 0.000000
50.000000 50.000000 0.000000
CELLS 578 2312
3 1 0 2
3 0 3 2
3 4 1 6
3 6 1 2
3 3 5 7
3 3 7 2
3 6 2 7
3 9 4 10
3 10 4 6
3 5 8 11
3 7 5 11
3 10 6 12
3 12 6 7
3 7 11 13
3 7 13 12
3 8 14 15
3 11 8 15
3 16 9 17
3 17 9 10
3 17 10 18
3 18 10 12
3 11 15 19
3 13 11 19
3 18 12 20
3 13 19 20
3 20 12 13
3 14 22 24
3 15 14 24
3 15 24 25
3 19 15 25
3 21 16 26
3 26 16 17
3 26 17 27
3 27 17 18
3 27 18 28
3 28 18 20
3 19 25 29
3 19 29 20
3 28 20 30
3 30 20 29
3 31 21 32
3 32 21 26
3 22 23 36
3 24 22 36
3 23 34 37
3 36 23 37
3 24 36 38
3 25 24 38
3 25 38 39
3 29 25 39
3 32 26 40
3 40 26 27
3 40 27 41
3 41 27 28
3 41 28 42
3 42 28 30
3 29 39 43
3 29 43 30
3 42 30 43
3 33 31 44
3 44 31 32
3 44 32 45
3 45 32 40
3 46 33 47
3 47 33 44
3 34 35 50
3 37 34 50
3 35 48 51
3 50 35 51
3 36 37 52
3 38 36 52
3 37 50 53
3 52 37 53
3 38 52 54
3 39 38 54
3 39 54 55
3 43 39 55
3 45 40 56
3 56 40 41
3 56 41 57
3 57 41 42
3 57 42 58
3 58 42 43
3 43 55 59
3 43 59 58
3 47 44 60
3 60 44 45
3 60 45 61
3 61 45 56
3 62 46 63
3 63 46 47
3 63 47 64
3 64 47 60
3 48 49 68
3 51 48 68
3 49 66 69
3 68 49 69
3 50 51 70
3 53 50 70
3 51 68 71
3 70 51 71
3 52 53 72
3 54 52 72
3 53 70 73
3 72 53 73
3 54 72 74
3 55 54 74
3 55 74 75
3 59 55 75
3 61 56 76
3 76 56 57
3 76 57 77
3 77 57 58
3 77 58 78
3 59 75 78
3 78 58 59
3 64 60 79
3 79 60 61
3 79 61 80
3 80 61 76
3 65 62 81
3 81 62 63
3 81 63 82
3 82 63 64
3 82 64 83
3 83 64 79
3 84 65 85
3 85 65 81
3 66 67 89
3 69 66 89
3 67 87 90
3 89 67 90
3 68 69 91
3 71 68 91
3 69 89 92
3 91 69 92
3 70 71 93
3 73 70 93
3 71 91 94
3 93 71 94
3 72 73 95
3 74 72 95
3 73 93 96
3 95 73 96
3 74 95 97
3 75 74 97
3 75 97 98
3 78 75 98
3 80 76 99
3 99 76 77
3 99 77 100
3 100 77 78
3 100 78 101
3 98 101 78
3 83 79 102
3 102 79 80
3 102 80 103
3 103 80 99
3 85 81 104
3 104 81 82
3 105 83 102
3 104 82 106
3 106 82 83
3 106 83 105
3 86 84 107
3 107 84 85
3 107 85 108
3 108 85 104
3 109 86 107
3 110 86 109
3 87 88 112
3 90 87 112
3 112 88 113
3 88 114 113
3 90 112 115
3 89 90 116
3 92 89 116
3 116 90 115
3 91 92 117
3 94 91 117
3 92 116 118
3 117 92 118
3 93 94 119
3 96 93 119
3 94 117 120
3 119 94 120
3 95 96 121
3 97 95 121
3 96 119 122
3 121 96 122
3 97 121 123
3 98 97 123
3 98 123 124
3 98 124 101
3 103 99 125
3 125 99 100
3 125 100 126
3 126 100 101
3 126 101 124
3 105 102 127
3 127 102 103
3 127 103 128
3 128 103 125
3 129 105 127
3 108 104 130
3 130 104 106
3 130 106 131
3 131 106 105
3 131 105 129
3 108 130 132
3 109 107 133
3 133 107 108
3 133 108 134
3 108 132 134
3 135 109 133
3 111 110 136
3 136 110 109
3 136 109 135
3 137 111 136
3 138 111 137
3 112 113 139
3 115 112 139
3 114 140 113
3 140 139 113
3 139 141 115
3 116 115 142
3 118 116 142
3 142 115 141
3 117 118 143
3 120 117 143
3 118 142 144
3 143 118 144
3 119 120 145
3 122 119 145
3 120 143 146
3 145 120 146
3 121 122 147
3 123 121 147
3 122 145 148
3 147 122 148
3 123 147 149
3 124 123 149
3 124 149 150
3 151 126 124
3 124 150 151
3 128 125 152
3 152 125 126
3 152 126 151
3 129 127 153
3 153 127 128
3 128 152 154
3 153 128 154
3 155 129 153
3 131 129 156
3 156 129 155
3 132 130 157
3 130 131 157
3 157 131 158
3 131 156 158
3 132 157 159
3 132 159 134
3 135 133 160
3 160 133 134
3 160 134 159
3 136 135 161
3 135 160 161
3 162 137 136
3 161 162 136
3 163 138 137
3 162 163 137
3 139 164 141
3 140 165 139
3 139 165 164
3 141 164 166
3 141 166 142
3 166 167 142
3 144 142 167
3 167 168 144
3 143 144 168
3 146 143 168
3 168 169 146
3 145 146 170
3 148 145 170
3 170 146 169
3 147 148 171
3 149 147 171
3 148 170 172
3 171 148 172
3 173 151 150
3 149 171 174
3 150 149 174
3 150 174 175
3 150 175 173
3 154 152 176
3 152 151 176
3 176 151 173
3 154 176 177
3 155 153 178
3 177 178 154
3 154 178 153
3 156 155 179
3 155 178 179
3 180 158 156
3 179 180 156
3 181 159 157
3 180 181 158
3 181 157 158
3 182 160 159
3 181 182 159
3 183 161 160
3 182 183 160
3 184 162 161
3 184 161 183
3 185 163 162
3 184 185 162
3 164 186 166
3 165 187 164
3 164 187 186
3 166 186 188
3 166 188 167
3 167 188 189
3 167 189 168
3 168 189 190
3 168 190 169
3 169 190 191
3 169 191 170
3 192 172 170
3 170 191 192
3 192 193 172
3 171 172 193
3 174 171 193
3 194 173 175
3 176 173 194
3 175 174 195
3 193 195 174
3 195 196 175
3 175 196 194
3 197 177 176
3 194 197 176
3 198 178 177
3 197 198 177
3 199 179 178
3 198 199 178
3 200 180 179
3 199 200 179
3 201 181 180
3 200 201 180
3 202 182 181
3 201 202 181
3 203 183 182
3 202 203 182
3 204 184 183
3 203 204 183
3 205 185 184
3 204 205 184
3 186 206 188
3 187 207 186
3 186 207 206
3 188 206 208
3 188 208 189
3 189 208 209
3 189 209 190
3 190 209 210
3 190 210 191
3 191 210 211
3 191 211 192
3 192 211 212
3 192 212 193
3 193 212 213
3 193 213 195
3 214 197 194
3 214 194 196
3 195 213 215
3 195 215 196
3 196 215 214
3 216 198 197
3 214 216 197
3 217 199 198
3 216 217 198
3 218 200 199
3 217 218 199
3 219 201 200
3 218 219 200
3 220 202 201
3 219 220 201
3 221 203 202
3 220 221 202
3 222 204 203
3 221 222 203
3 223 205 204
3 222 223 204
3 206 224 208
3 207 225 206
3 206 225 224
3 208 224 226
3 208 226 209
3 209 226 227
3 209 227 210
3 210 227 228
3 210 228 211
3 211 228 229
3 211 229 212
3 212 229 230
3 212 230 213
3 213 230 231
3 213 231 215
3 232 216 214
3 215 231 232
3 232 214 215
3 233 217 216
3 232 233 216
3 234 218 217
3 233 234 217
3 235 219 218
3 234 235 218
3 236 220 219
3 235 236 219
3 237 221 220
3 236 237 220
3 238 222 221
3 237 238 221
3 239 223 222
3 238 239 222
3 224 240 226
3 225 241 224
3 224 241 240
3 226 240 242
3 226 242 227
3 227 242 243
3 227 243 228
3 228 243 244
3 228 244 229
3 244 245 229
3 229 245 230
3 230 245 246
3 230 246 231
3 231 246 247
3 231 247 232
3 248 233 232
3 248 232 247
3 249 234 233
3 248 249 233
3 250 235 234
3 249 250 234
3 251 236 235
3 250 251 235
3 252 237 236
3 251 252 236
3 253 238 237
3 252 253 237
3 254 239 238
3 253 254 238
3 240 255 242
3 241 256 240
3 240 256 255
3 242 255 257
3 242 257 243
3 243 257 258
3 243 258 244
3 244 258 259
3 244 259 245
3 245 259 260
3 245 260 246
3 246 260 261
3 246 261 247
3 248 247 261
3 262 249 248
3 261 262 248
3 263 250 249
3 262 263 249
3 264 251 250
3 263 264 250
3 265 252 251
3 264 265 251
3 266 253 252
3 265 266 252
3 267 254 253
3 266 267 253
3 255 268 257
3 256 269 255
3 255 269 268
3 257 268 270
3 257 270 258
3 258 270 271
3 258 271 259
3 259 271 272
3 259 272 260
3 260 272 273
3 260 273 261
3 274 262 261
3 261 273 274
3 275 263 262
3 274 275 262
3 276 264 263
3 275 276 263
3 277 265 264
3 276 277 264
3 278 266 265
3 277 278 265
3 279 267 266
3 278 279 266
3 268 280 270
3 269 281 268
3 268 281 280
3 270 280 282
3 270 282 271
3 271 282 283
3 271 283 272
3 283 284 272
3 272 284 273
3 285 275 274
3 273 284 285
3 285 274 273
3 286 276 275
3 285 286 275
3 287 277 276
3 286 287 276
3 288 278 277
3 287 288 277
3 289 279 278
3 288 289 278
3 280 290 282
3 281 291 280
3 280 291 290
3 282 290 292
3 282 292 283
3 283 292 293
3 283 293 284
3 284 293 294
3 284 294 285
3 295 286 285
3 295 285 294
3 296 287 286
3 295 296 286
3 297 288 287
3 296 297 287
3 298 289 288
3 297 298 288
3 290 299 292
3 291 300 290
3 290 300 299
3 292 299 301
3 292 301 293
3 293 301 302
3 293 302 294
3 294 302 295
3 303 296 295
3 303 295 302
3 304 297 296
3 303 304 296
3 305 298 297
3 304 305 297
3 299 306 301
3 300 307 299
3 299 307 306
3 301 306 308
3 301 308 302
3 309 303 302
3 302 308 309
3 310 304 303
3 309 310 303
3 311 305 304
3 310 311 304
3 306 312 308
3 307 313 306
3 306 313 312
3 314 310 309
3 308 312 314
3 314 309 308
3 315 311 310
3 314 315 310
3 312 316 314
3 313 317 312
3 312 317 316
3 318 315 314
3 318 314 316
3 317 319 316
3 319 318 316
CELL_TYPES 578
5
5
5
5
5
5
5
5
5
5
5
5
5
5
5
5
5
5
5
5
5
5
5
5
5
5
5
5
5
5
5
5
5
5
5
5
5
5
5
5
5
5
5
5
5
5
5
5
5
5
5
5
5
5
5
5
5
5
5
5
5
5
5
5
5
5
5
5
5
5
5
5
5
5
5
5
5
5
5
5
5
5
5
5
5
5
5
5
5
5
5
5
5
5
5
5
5
5
5
5
5
5
5
5
5
5
5
5
5
5
5
5
5
5
5
5
5
5
5
5
5
5
5
5
5
5
5
5
5
5
5
5
5
5
5
5
5
5
5
5
5
5
5
5
5
5
5
5
5
5
5
5
5
5
5
5
5
5
5
5
5
5
5
5
5
5
5
5
5
5
5
5
5
5
5
5
5
5
5
5
5
5
5
5
5
5
5
5
5
5
5
5
5
5
5
5
5
5
5
5
5
5
5
5
5
5
5
5
5
5
5
5
5
5
5
5
5
5
5
5
5
5
5
5
5
5
5
5
5
5
5
5
5
5
5
5
5
5
5
5
5
5
5
5
5
5
5
5
5
5
5
5
5
5
5
5
5
5
5
5
5
5
5
5
5
5
5
5
5
5
5
5
5
5
5
5
5
5
5
5
5
5
5
5
5
5
5
5
5
5
5
5
5
5
5
5
5
5
5
5
5
5
5
5
5
5
5
5
5
5
5
5
5
5
5
5
5
5
5
5
5
5
5
5
5
5
5
5
5
5
5
5
5
5
5
5
5
5
5
5
5
5
5
5
5
5
5
5
5
5
5
5
5
5
5
5
5
5
5
5
5
5
5
5
5
5
5
5
5
5
5
5
5
5
5
5
5
5
5
5
5
5
5
5
5
5
5
5
5
5
5
5
5
5
5
5
5
5
5
5
5
5
5
5
5
5
5
5
5
5
5
5
5
5
5
5
5
5
5
5
5
5
5
5
5
5
5
5
5
5
5
5
5
5
5
5
5
5
5
5
5
5
5
5
5
5
5
5
5
5
5
5
5
5
5
5
5
5
5
5
5
5
5
5
5
5
5
5
5
5
5
5
5
5
5
5
5
5
5
5
5
5
5
5
5
5
5
5
5
5
5
5
5
5
5
5
5
5
5
5
5
5
5
5
5
5
5
5
5
5
5
5
5
5
5
5
5
5
5
5
5
5
5
5
5
5
5
5
5
5
5
5
5
5
5
5
5
5
5
5
5
5
5
5
5
5
5
5
5
5
5
5
5
5
5
5
5
5
5
5
5
5
5
5
5
5
5
5
5
5
5
5
5
5
5
5
5
5
POINT_DATA 320
SCALARS theta_e float 1
LOOKUP_TABLE default
0.993406
0.993437
0.993404
0.993377
0.993515
0.993322
0.993451
0.993374
0.993237
0.993651
0.993560
0.993291
0.993458
0.993368
0.993141
0.993201
0.993832
0.993719
0.993588
0.993297
0.993443
0.994054
0.993031
0.992912
0.993096
0.993194
0.993924
0.993776
0.993620
0.993328
0.993478
0.994307
0.994166
0.994583
0.992789
0.992668
0.992978
0.992852
0.993073
0.993208
0.994001
0.993818
0.993626
0.993401
0.994435
0.994262
0.994872
0.994720
0.992555
0.992452
0.992727
0.992610
0.992935
0.992796
0.993052
0.993212
0.994063
0.993849
0.993619
0.993410
0.994544
0.994338
0.995164
0.995011
0.994833
0.995449
0.992362
0.992286
0.992504
0.992411
0.992667
0.992555
0.992892
0.992740
0.993042
0.993254
0.994122
0.993851
0.993544
0.994625
0.994420
0.995297
0.995116
0.994906
0.995715
0.995570
0.995933
0.992221
0.992174
0.992332
0.992264
0.992461
0.992383
0.992610
0.992508
0.992866
0.992702
0.993043
0.993273
0.994118
0.993744
0.993487
0.994702
0.994395
0.995388
0.994952
0.995164
0.995809
0.995634
0.995997
0.996085
0.996165
0.992209
0.992170
0.992149
0.992257
0.992315
0.992430
0.992369
0.992568
0.992476
0.992834
0.992664
0.993004
0.993614
0.993972
0.993874
0.994671
0.994228
0.994921
0.995393
0.995159
0.995569
0.995852
0.995723
0.995985
0.996103
0.996174
0.996192
0.992214
0.992174
0.992265
0.992318
0.992416
0.992374
0.992544
0.992468
0.992766
0.992615
0.993279
0.993408
0.993941
0.994129
0.994485
0.994205
0.994780
0.995064
0.995389
0.995210
0.995596
0.995818
0.995995
0.996104
0.996160
0.992261
0.992221
0.992313
0.992363
0.992416
0.992474
0.992536
0.992982
0.992612
0.993493
0.993302
0.993076
0.994206
0.994182
0.994383
0.994842
0.995105
0.995357
0.995608
0.995811
0.995964
0.996060
0.992319
0.992277
0.992365
0.992412
0.992461
0.992520
0.992587
0.992989
0.993824
0.993267
0.993320
0.994117
0.994185
0.994551
0.994891
0.995121
0.995357
0.995574
0.995753
0.995885
0.992382
0.992341
0.992424
0.992470
0.992527
0.992598
0.992736
0.993122
0.993881
0.993617
0.994029
0.994276
0.994615
0.994845
0.995066
0.995292
0.995488
0.995644
0.992450
0.992412
0.992493
0.992546
0.992625
0.992726
0.992927
0.993378
0.993789
0.993959
0.994295
0.994545
0.994747
0.994977
0.995180
0.995352
0.992524
0.992486
0.992572
0.992640
0.992746
0.992887
0.993114
0.993413
0.993679
0.993975
0.994217
0.994415
0.994640
0.994847
0.995025
0.992604
0.992564
0.992662
0.992749
0.992882
0.993077
0.993359
0.993670
0.993893
0.994094
0.994309
0.994511
0.994687
0.992690
0.992646
0.992760
0.992864
0.993014
0.993221
0.993430
0.993603
0.993802
0.994002
0.994191
0.994356
0.992782
0.992732
0.992861
0.992977
0.993133
0.993347
0.993543
0.993728
0.993901
0.994053
0.992876
0.992822
0.992960
0.993077
0.993213
0.993350
0.993507
0.993656
0.993789
0.992968
0.992914
0.993057
0.993188
0.993335
0.993456
0.993567
0.993049
0.993000
0.993128
0.993220
0.993303
0.993390
0.993112
0.993073
0.993187
0.993253
0.993146
0.993121
0.993179
0.993149
VECTORS fa_u float
0.000000 0.000000 0.000000
0.000000 0.000000 0.000000
0.000000 0.000000 0.000000
0.000000 0.000000 0.000000
0.000000 0.000000 0.000000
0.000000 0.000000 0.000000
0.000000 0.000000 0.000000
0.000000 0.000000 0.000000
0.000000 0.000000 0.000000
0.000000 0.000000 0.000000
0.000000 0.000000 0.000000
0.000000 0.000000 0.000000
0.000000 0.000000 0.000000
0.000000 0.000000 0.000000
0.000000 0.000000 0.000000
0.000000 0.000000 0.000000
0.000000 0.000000 0.000000
0.000000 0.000000 0.000000
0.000000 0.000000 0.000000
0.000000 0.000000 0.000000
0.000000 0.000000 0.000000
0.000000 0.000000 0.000000
0.000000 0.000000 0.000000
0.000000 0.000000 0.000000
0.000000 0.000000 0.000000
0.000000 0.000000 0.000000
0.000000 0.000000 0.000000
0.000000 0.000000 0.000000
0.000000 0.000000 0.000000
0.000000 0.000000 0.000000
0.000000 0.000000 0.000000
0.000000 0.000000 0.000000
0.000000 0.000000 0.000000
0.000000 0.000000 0.000000
0.000000 0.000000 0.000000
0.000000 0.000000 0.000000
0.000000 0.000000 0.000000
0.000000 0.000000 0.000000
0.000000 0.000000 0.000000
0.000000 0.000000 0.000000
0.000000 0.000000 0.000000
0.000000 0.000000 0.000000
0.000000 0.000000 0.000000
0.000000 0.000000 0.000000
0.000000 0.000000 0.000000
0.000000 0.000000 0.000000
0.000000 0.000000 0.000000
0.000000 0.000000 0.000000
0.000000 0.000000 0.000000
0.000000 0.000000 0.000000
0.000000 0.000000 0.000000
0.000000 0.000000 0.000000
0.000000 0.000000 0.000000
0.000000 0.000000 0.000000
0.000000 0.000000 0.000000
0.000000 0.000000 0.000000
0.000000 0.000000 0.000000
0.000000 0.000000 0.000000
0.000000 0.000000 0.000000
0.000000 0.000000 0.000000
0.000000 0.000000 0.000000
0.000000 0.000000 0.000000
0.000000 0.000000 0.000000
0.000000 0.000000 0.000000
0.000000 0.000000 0.000000
0.000000 0.000000 0.000000
0.000000 0.000000 0.000000
0.000000 0.000000 0.000000
0.000000 0.000000 0.000000
0.000000 0.000000 0.000000
0.000000 0.000000 0.000000
0.000000 0.000000 0.000000
0.000000 0.000000 0.000000
0.000000 0.000000 0.000000
0.000000 0.000000 0.000000
0.000000 0.000000 0.000000
0.000000 0.000000 0.000000
0.000000 0.000000 0.000000
0.000000 0.000000 0.000000
0.000000 0.000000 0.000000
0.000000 0.000000 0.000000
0.000000 0.000000 0.000000
0.000000 0.000000 0.000000
0.000000 0.000000 0.000000
0.000000 0.000000 0.000000
0.000000 0.000000 0.000000
0.000000 0.000000 0.000000
0.000000 0.000000 0.000000
0.000000 0.000000 0.000000
0.000000 0.000000 0.000000
0.000000 0.000000 0.000000
0.000000 0.000000 0.000000
0.000000 0.000000 0.000000
0.000000 0.000000 0.000000
0.000000 0.000000 0.000000
0.000000 0.000000 0.000000
0.000000 0.000000 0.000000
0.000000 0.000000 0.000000
0.000000 0.000000 0.000000
0.000000 0.000000 0.000000
0.000000 0.000000 0.000000
0.000000 0.000000 0.000000
0.000000 0.000000 0.000000
0.000000 0.000000 0.000000
0.000000 0.000000 0.000000
0.000000 0.000000 0.000000
0.000000 0.000000 0.000000
0.000000 0.000000 0.000000
0.000000 0.000000 0.000000
0.000000 0.000000 0.000000
0.000000 0.000000 0.000000
0.000000 0.000000 0.000000
0.000000 0.000000 0.000000
0.000000 0.000000 0.000000
0.000000 0.000000 0.000000
0.000000 0.000000 0.000000
0.000000 0.000000 0.000000
0.000000 0.000000 0.000000
0.000000 0.000000 0.000000
0.000000 0.000000 0.000000
0.000000 0.000000 0.000000
0.000000 0.000000 0.000000
0.000000 0.000000 0.000000
0.000000 0.000000 0.000000
0.000000 0.000000 0.000000
0.000000 0.000000 0.000000
0.000000 0.000000 0.000000
0.000000 0.000000 0.000000
0.000000 0.000000 0.000000
0.000000 0.000000 0.000000
0.000000 0.000000 0.000000
0.000000 0.000000 0.000000
0.000000 0.000000 0.000000
0.000000 0.000000 0.000000
0.000000 0.000000 0.000000
0.000000 0.000000 0.000000
0.000000 0.000000 0.000000
0.000000 0.000000 0.000000
0.000000 0.000000 0.000000
0.000000 0.000000 0.000000
0.000000 0.000000 0.000000
0.000000 0.000000 0.000000
0.000000 0.000000 0.000000
0.000000 0.000000 0.000000
0.000000 0.000000 0.000000
0.000000 0.000000 0.000000
0.000000 0.000000 0.000000
0.000000 0.000000 0.000000
0.000000 0.000000 0.000000
0.000000 0.000000 0.000000
0.000000 0.000000 0.000000
0.000000 0.000000 0.000000
0.000000 0.000000 0.000000
0.000000 0.000000 0.000000
0.000000 0.000000 0.000000
0.000000 0.000000 0.000000
0.000000 0.000000 0.000000
0.000000 0.000000 0.000000
0.000000 0.000000 0.000000
0.000000 0.000000 0.000000
0.000000 0.000000 0.000000
0.000000 0.000000 0.000000
0.000000 0.000000 0.000000
0.000000 0.000000 0.000000
0.000000 0.000000 0.000000
0.000000 0.000000 0.000000
0.000000 0.000000 0.000000
0.000000 0.000000 0.000000
0.000000 0.000000 0.000000
0.000000 0.000000 0.000000
0.000000 0.000000 0.000000
0.000000 0.000000 0.000000
0.000000 0.000000 0.000000
0.000000 0.000000 0.000000
0.000000 0.000000 0.000000
0.000000 0.000000 0.000000
0.000000 0.000000 0.000000
0.000000 0.000000 0.000000
0.000000 0.000000 0.000000
0.000000 0.000000 0.000000
0.000000 0.000000 0.000000
0.000000 0.000000 0.000000
0.000000 0.000000 0.000000
0.000000 0.000000 0.000000
0.000000 0.000000 0.000000
0.000000 0.000000 0.000000
0.000000 0.000000 0.000000
0.000000 0.000000 0.000000
0.000000 0.000000 0.000000
0.000000 0.000000 0.000000
0.000000 0.000000 0.000000
0.000000 0.000000 0.000000
0.000000 0.000000 0.000000
0.000000 0.000000 0.000000
0.000000 0.000000 0.000000
0.000000 0.000000 0.000000
0.000000 0.000000 0.000000
0.000000 0.000000 0.000000
0.000000 0.000000 0.000000
0.000000 0.000000 0.000000
0.000000 0.000000 0.000000
0.000000 0.000000 0.000000
0.000000 0.000000 0.000000
0.000000 0.000000 0.000000
0.000000 0.000000 0.000000
0.000000 0.000000 0.000000
0.000000 0.000000 0.000000
0.000000 0.000000 0.000000
0.000000 0.000000 0.000000
0.000000 0.000000 0.000000
0.000000 0.000000 0.000000
0.000000 0.000000 0.000000
0.000000 0.000000 0.000000
0.000000 0.000000 0.000000
0.000000 0.000000 0.000000
0.000000 0.000000 0.000000
0.000000 0.000000 0.000000
0.000000 0.000000 0.000000
0.000000 0.000000 0.000000
0.000000 0.000000 0.000000
0.000000 0.000000 0.000000
0.000000 0.000000 0.000000
0.000000 0.000000 0.000000
0.000000 0.000000 0.000000
0.000000 0.000000 0.000000
0.000000 0.000000 0.000000
0.000000 0.000000 0.000000
0.000000 0.000000 0.000000
0.000000 0.000000 0.000000
0.000000 0.000000 0.000000
0.000000 0.000000 0.000000
0.000000 0.000000 0.000000
0.000000 0.000000 0.000000
0.000000 0.000000 0.000000
0.000000 0.000000 0.000000
0.000000 0.000000 0.000000
0.000000 0.000000 0.000000
0.000000 0.000000 0.000000
0.000000 0.000000 0.000000
0.000000 0.000000 0.000000
0.000000 0.000000 0.000000
0.000000 0.000000 0.000000
0.000000 0.000000 0.000000
0.000000 0.000000 0.000000
0.000000 0.000000 0.000000
0.000000 0.000000 0.000000
0.000000 0.000000 0.000000
0.000000 0.000000 0.000000
0.000000 0.000000 0.000000
0.000000 0.000000 0.000000
0.000000 0.000000 0.000000
0.000000 0.000000 0.000000
0.000000 0.000000 0.000000
0.000000 0.000000 0.000000
0.000000 0.000000 0.000000
0.000000 0.000000 0.000000
0.000000 0.000000 0.000000
0.000000 0.000000 0.000000
0.000000 0.000000 0.000000
0.000000 0.000000 0.000000
0.000000 0.000000 0.000000
0.000000 0.000000 0.000000
0.000000 0.000000 0.000000
0.000000 0.000000 0.000000
0.000000 0.000000 0.000000
0.000000 0.000000 0.000000
0.000000 0.000000 0.000000
0.000000 0.000000 0.000000
0.000000 0.000000 0.000000
0.000000 0.000000 0.000000
0.000000 0.000000 0.000000
0.000000 0.000000 0.000000
0.000000 0.000000 0.000000
0.000000 0.000000 0.000000
0.000000 0.000000 0.000000
0.000000 0.000000 0.000000
0.000000 0.000000 0.000000
0.000000 0.000000 0.000000
0.000000 0.000000 0.000000
0.000000 0.000000 0.000000
0.000000 0.000000 0.000000
0.000000 0.000000 0.000000
0.000000 0.000000 0.000000
0.000000 0.000000 0.000000
0.000000 0.000000 0.000000
0.000000 0.000000 0.000000
0.000000 0.000000 0.000000
0.000000 0.000000 0.000000
0.000000 0.000000 0.000000
0.000000 0.000000 0.000000
0.000000 0.000000 0.000000
0.000000 0.000000 0.000000
0.000000 0.000000 0.000000
0.000000 0.000000 0.000000
0.000000 0.000000 0.000000
0.000000 0.000000 0.000000
0.000000 0.000000 -50.000000
-50.000000 0.000000 -50.000000
-43.349670 0.000000 -45.684993
-45.530912 0.000000 -43.279829
-50.000000 0.000000 -50.000000
-36.698419 0.000000 -36.560831
-50.000000 0.000000 -45.076018
-40.046564 0.000000 -40.011634
-44.204701 0.000000 -29.842328
-50.000000 0.000000 -50.000000
-30.046131 0.000000 -44.840618
-33.572202 0.000000 -33.102853
-44.726676 0.000000 -39.846669
-36.889950 0.000000 -35.095453
-39.890400 0.000000 -23.125833
-50.000000 0.000000 -26.479417
-44.716949 0.000000 -50.000000
-23.394539 0.000000 -44.655540
-26.977114 0.000000 -39.336749
-30.378733 0.000000 -29.557532
-39.451686 0.000000 -33.325086
-33.791549 0.000000 -50.000000
-16.741799 0.000000 -16.418922
-50.000000 0.000000 -9.723672
