# vtk DataFile Version 2.0
CellBP Time: 1.68
ASCII
DATASET UNSTRUCTURED_GRID
POINTS 320 double
-50.000000 -50.000000 0.000000
-50.000000 -43.332633 0.000000
-45.702552 -45.518314 0.000000
-43.308658 -50.000000 0.000000
-50.000000 -36.664997 0.000000
-36.617542 -50.000000 0.000000
-45.096122 -40.019480 0.000000
-40.051970 -44.188258 0.000000
-29.923836 -50.000000 0.000000
-50.000000 -29.997806 0.000000
-44.861563 -33.528760 0.000000
-33.169501 -44.711571 0.000000
-39.887847 -36.854447 0.000000
-35.154588 -39.862142 0.000000
-23.228213 -50.000000 0.000000
-26.567797 -44.701825 0.000000
-50.000000 -23.333504 0.000000
-44.676948 -26.918731 0.000000
-39.379565 -30.327377 0.000000
-29.635938 -39.422014 0.000000
-33.390538 -33.747697 0.000000
-50.000000 -16.670829 0.000000
-16.537089 -50.000000 0.000000
-9.851901 -50.000000 0.000000
-19.996702 -44.621206 0.000000
-23.243493 -39.177599 0.000000
-44.700458 -20.246761 0.000000
-39.377357 -23.665057 0.000000
-34.115427 -27.064420 0.000000
-26.407881 -33.673168 0.000000
-29.167033 -29.049440 0.000000
-50.000000 -10.011595 0.000000
-44.671108 -13.596579 0.000000
-50.000000 -3.357962 0.000000
-3.172296 -50.000000 0.000000
3.498706 -50.000000 0.000000
-13.375819 -44.627632 0.000000
-6.713891 -44.636805 0.000000
-16.716659 -39.210162 0.000000
-20.123195 -33.437391 0.000000
-39.341011 -16.979377 0.000000
-34.022610 -20.440832 0.000000
-28.782286 -23.607472 0.000000
-23.510997 -27.490192 0.000000
-44.632932 -6.930566 0.000000
-39.281679 -10.321819 0.000000
-50.000000 3.297360 0.000000
-44.615531 -0.279067 0.000000
10.159319 -50.000000 0.000000
16.810733 -50.000000 0.000000
-0.039765 -44.640033 0.000000
6.634055 -44.649807 0.000000
-10.060581 -39.276393 0.000000
-3.377838 -39.269294 0.000000
-13.490428 -33.884711 0.000000
-16.699298 -28.402352 0.000000
-33.930579 -13.732913 0.000000
-28.581984 -17.100015 0.000000
-23.271195 -20.505167 0.000000
-18.639806 -23.453361 0.000000
-39.237880 -3.665322 0.000000
-33.855755 -7.084554 0.000000
-50.000000 9.985256 0.000000
-44.596907 6.374676 0.000000
-39.212847 2.994800 0.000000
-50.000000 16.741793 0.000000
23.455872 -50.000000 0.000000
30.096176 -50.000000 0.000000
13.305401 -44.670320 0.000000
19.981910 -44.701755 0.000000
3.303489 -39.283648 0.000000
9.971791 -39.316396 0.000000
-6.730661 -33.870880 0.000000
-0.023366 -33.896121 0.000000
-10.071068 -28.411594 0.000000
-13.088443 -23.064110 0.000000
-28.471164 -10.489201 0.000000
-23.004013 -13.914777 0.000000
-16.923582 -17.423879 0.000000
-33.794857 -0.446508 0.000000
-28.448080 -3.935019 0.000000
-44.559124 13.064449 0.000000
-39.147182 9.621981 0.000000
-33.755903 6.087053 0.000000
-50.000000 23.602082 0.000000
-44.604599 19.855702 0.000000
-50.000000 30.558214 0.000000
36.730933 -50.000000 0.000000
43.365600 -50.000000 0.000000
26.658191 -44.741050 0.000000
33.312557 -44.865574 0.000000
16.633421 -39.371762 0.000000
23.328745 -39.440620 0.000000
6.654809 -33.928843 0.000000
13.303081 -33.995241 0.000000
-3.315371 -28.460307 0.000000
3.388098 -28.529243 0.000000
-6.576633 -22.985417 0.000000
-9.906523 -17.505719 0.000000
-23.061480 -7.340895 0.000000
-17.693319 -10.608688 0.000000
-12.733881 -12.826105 0.000000
-28.405346 2.626026 0.000000
-23.062196 -0.888580 0.000000
-39.010043 16.309917 0.000000
-28.371120 9.318354 0.000000
-33.541353 12.489255 0.000000
-44.748489 26.620254 0.000000
-38.727186 23.662108 0.000000
-44.994083 33.415641 0.000000
-50.000000 37.501096 0.000000
-50.000000 43.860139 0.000000
39.918257 -45.058872 0.000000
45.466075 -45.648915 0.000000
50.000000 -50.000000 0.000000
36.625328 -39.971399 0.000000
30.010496 -39.453497 0.000000
19.912904 -34.105268 0.000000
26.590278 -34.320035 0.000000
10.017241 -28.565279 0.000000
16.633323 -28.685563 0.000000
0.109062 -23.068889 0.000000
6.862730 -23.236555 0.000000
-3.318078 -17.457551 0.000000
-6.740969 -11.275092 0.000000
-17.678977 -4.177055 0.000000
-12.370815 -7.320580 0.000000
-22.990669 5.546501 0.000000
-17.754120 2.028776 0.000000
-22.655259 11.482346 0.000000
-33.333727 18.514623 0.000000
-27.419644 16.127456 0.000000
-33.052227 23.847997 0.000000
-40.312987 30.546589 0.000000
-35.416722 28.968447 0.000000
-39.927909 35.513091 0.000000
-43.923151 40.179107 0.000000
-45.277640 45.770292 0.000000
-50.000000 50.000000 0.000000
44.110434 -39.881215 0.000000
50.000000 -43.368033 0.000000
39.634778 -35.031896 0.000000
33.464632 -33.415204 0.000000
23.000967 -28.829328 0.000000
28.742223 -29.245594 0.000000
13.500492 -23.166909 0.000000
20.086892 -23.462061 0.000000
3.473027 -17.696048 0.000000
10.190781 -17.902301 0.000000
0.256309 -12.192343 0.000000
-1.977707 -6.483545 0.000000
-7.195752 -3.987514 0.000000
-12.377543 -1.133853 0.000000
-17.758644 8.059152 0.000000
-12.645390 4.844538 0.000000
-18.029682 13.165759 0.000000
-20.781990 16.828017 0.000000
-28.042738 22.525532 0.000000
-23.366161 21.013436 0.000000
-29.751525 28.662618 0.000000
-34.165252 34.096607 0.000000
-36.874316 39.951190 0.000000
-39.639859 45.271304 0.000000
-43.404876 50.000000 0.000000
44.579280 -32.954410 0.000000
50.000000 -36.724620 0.000000
39.132585 -29.563825 0.000000
33.513011 -26.357855 0.000000
27.206635 -23.327293 0.000000
23.102115 -18.665087 0.000000
17.040200 -17.013844 0.000000
6.804504 -12.304793 0.000000
12.424136 -12.785511 0.000000
-3.156330 -1.704662 0.000000
4.087164 -7.168891 0.000000
1.222738 -2.263387 0.000000
-6.766797 2.074035 0.000000
-8.116223 7.563209 0.000000
-12.371540 11.578397 0.000000
-15.095867 17.337668 0.000000
-18.503041 22.739255 0.000000
-23.596119 27.220148 0.000000
-26.964855 33.615104 0.000000
-30.060076 39.320074 0.000000
-33.130783 44.840364 0.000000
-36.646609 50.000000 0.000000
44.547766 -26.477232 0.000000
50.000000 -30.083108 0.000000
39.049530 -23.161435 0.000000
33.473197 -19.887932 0.000000
28.077354 -16.580429 0.000000
22.740067 -13.145203 0.000000
17.256727 -9.954387 0.000000
11.065372 -6.720622 0.000000
-1.143968 2.143869 0.000000
6.416787 -1.830117 0.000000
3.118628 1.483411 0.000000
-3.278484 7.024153 0.000000
-5.935513 12.223824 0.000000
-9.150072 17.464248 0.000000
-12.596280 22.909514 0.000000
-16.816632 28.048705 0.000000
-20.203006 33.368722 0.000000
-23.327585 38.998535 0.000000
-26.466362 44.613915 0.000000
-29.903745 50.000000 0.000000
44.533369 -19.902156 0.000000
50.000000 -23.436732 0.000000
39.056109 -16.573238 0.000000
33.615060 -13.269878 0.000000
28.209573 -9.974878 0.000000
22.809542 -6.632000 0.000000
17.380418 -3.386954 0.000000
12.211397 0.125207 0.000000
2.173011 6.151945 0.000000
7.288926 3.766484 0.000000
0.113941 11.826723 0.000000
-2.888964 17.358868 0.000000
-6.276609 22.839887 0.000000
-10.159388 28.152856 0.000000
-13.370204 33.562362 0.000000
-16.631272 39.004751 0.000000
-19.816027 44.505467 0.000000
-23.206273 50.000000 0.000000
44.547243 -13.268384 0.000000
50.000000 -16.783530 0.000000
39.110247 -9.941073 0.000000
33.697938 -6.628150 0.000000
28.313155 -3.313801 0.000000
22.957202 -0.006543 0.000000
17.695625 3.323039 0.000000
12.436882 6.533154 0.000000
6.997960 10.756246 0.000000
3.603409 17.080789 0.000000
0.246536 22.750870 0.000000
-3.191061 28.236137 0.000000
-6.528978 33.710040 0.000000
-9.863815 39.121528 0.000000
-13.159391 44.535669 0.000000
-16.580493 50.000000 0.000000
44.571393 -6.612550 0.000000
50.000000 -10.121362 0.000000
39.161882 -3.291073 0.000000
33.777066 0.025971 0.000000
28.428743 3.344711 0.000000
23.138523 6.680172 0.000000
18.010489 9.999196 0.000000
12.869196 12.169166 0.000000
10.024852 17.174484 0.000000
6.729743 22.667036 0.000000
3.446693 28.223960 0.000000
0.134817 33.701075 0.000000
-3.192040 39.142156 0.000000
-6.490850 44.566927 0.000000
-9.944549 50.000000 0.000000
44.597393 0.049732 0.000000
50.000000 -3.450213 0.000000
39.212585 3.367457 0.000000
33.853599 6.679549 0.000000
28.532781 10.006046 0.000000
23.189901 13.414646 0.000000
17.126483 17.006150 0.000000
13.098281 22.648812 0.000000
10.016478 28.214153 0.000000
6.804998 33.705539 0.000000
3.480883 39.155122 0.000000
0.167729 44.580054 0.000000
-3.297995 50.000000 0.000000
44.612083 6.717665 0.000000
50.000000 3.228696 0.000000
39.248208 10.023041 0.000000
33.921580 13.309109 0.000000
28.648637 16.605465 0.000000
23.517428 20.094910 0.000000
18.687856 23.114119 0.000000
16.549083 28.300244 0.000000
13.487340 33.757664 0.000000
10.144587 39.185410 0.000000
6.830834 44.588195 0.000000
3.354862 50.000000 0.000000
44.635999 13.371784 0.000000
50.000000 9.913603 0.000000
39.301388 16.657001 0.000000
34.005672 19.900254 0.000000
28.708771 22.953572 0.000000
23.397747 27.225821 0.000000
20.026127 33.318332 0.000000
16.701569 39.051480 0.000000
13.405027 44.533964 0.000000
10.013158 50.000000 0.000000
44.658912 20.024611 0.000000
50.000000 16.600933 0.000000
39.345885 23.304978 0.000000
34.111948 26.552030 0.000000
29.056116 28.567494 0.000000
26.298492 33.430432 0.000000
23.167807 38.983732 0.000000
19.997693 44.516513 0.000000
16.672268 50.000000 0.000000
44.666008 26.688162 0.000000
50.000000 23.286833 0.000000
39.338791 30.003755 0.000000
33.280358 33.402641 0.000000
29.488322 39.064988 0.000000
26.505610 44.517818 0.000000
23.333294 50.000000 0.000000
44.799456 33.327069 0.000000
50.000000 29.969656 0.000000
39.777929 36.625796 0.000000
34.886796 39.550071 0.000000
32.893044 44.527433 0.000000
29.997344 50.000000 0.000000
45.000323 39.902109 0.000000
50.000000 36.649261 0.000000
39.774647 43.985516 0.000000
36.662014 50.000000 0.000000
45.640067 45.423501 0.000000
50.000000 43.325419 0.000000
43.328326 50.000000 0.000000
50.000000 50.000000 0.000000
CELLS 578 2312
3 1 0 2
3 0 3 2
3 4 1 6
3 6 1 2
3 3 5 7
3 3 7 2
3 6 2 7
3 9 4 10
3 10 4 6
3 5 8 11
3 7 5 11
3 10 6 12
3 12 6 7
3 7 11 13
3 7 13 12
3 8 14 15
3 11 8 15
3 16 9 17
3 17 9 10
3 17 10 18
3 18 10 12
3 11 15 19
3 13 11 19
3 18 12 20
3 13 19 20
3 20 12 13
3 14 22 24
3 15 14 24
3 15 24 25
3 19 15 25
3 21 16 26
3 26 16 17
3 26 17 27
3 27 17 18
3 27 18 28
3 28 18 20
3 19 25 29
3 19 29 20
3 28 20 30
3 30 20 29
3 31 21 32
3 32 21 26
3 22 23 36
3 24 22 36
3 23 34 37
3 36 23 37
3 24 36 38
3 25 24 38
3 25 38 39
3 29 25 39
3 32 26 40
3 40 26 27
3 40 27 41
3 41 27 28
3 41 28 42
3 42 28 30
3 29 39 43
3 29 43 30
3 42 30 43
3 33 31 44
3 44 31 32
3 44 32 45
3 45 32 40
3 46 33 47
3 47 33 44
3 34 35 50
3 37 34 50
3 35 48 51
3 50 35 51
3 36 37 52
3 38 36 52
3 37 50 53
3 52 37 53
3 38 52 54
3 39 38 54
3 39 54 55
3 43 39 55
3 45 40 56
3 56 40 41
3 56 41 57
3 57 41 42
3 57 42 58
3 58 42 43
3 43 55 59
3 43 59 58
3 47 44 60
3 60 44 45
3 60 45 61
3 61 45 56
3 62 46 63
3 63 46 47
3 63 47 64
3 64 47 60
3 48 49 68
3 51 48 68
3 49 66 69
3 68 49 69
3 50 51 70
3 53 50 70
3 51 68 71
3 70 51 71
3 52 53 72
3 54 52 72
3 53 70 73
3 72 53 73
3 54 72 74
3 55 54 74
3 55 74 75
3 59 55 75
3 61 56 76
3 76 56 57
3 76 57 77
3 77 57 58
3 77 58 78
3 59 75 78
3 78 58 59
3 64 60 79
3 79 60 61
3 79 61 80
3 80 61 76
3 65 62 81
3 81 62 63
3 81 63 82
3 82 63 64
3 82 64 83
3 83 64 79
3 84 65 85
3 85 65 81
3 66 67 89
3 69 66 89
3 67 87 90
3 89 67 90
3 68 69 91
3 71 68 91
3 69 89 92
3 91 69 92
3 70 71 93
3 73 70 93
3 71 91 94
3 93 71 94
3 72 73 95
3 74 72 95
3 73 93 96
3 95 73 96
3 74 95 97
3 75 74 97
3 75 97 98
3 78 75 98
3 80 76 99
3 99 76 77
3 99 77 100
3 100 77 78
3 100 78 101
3 98 101 78
3 83 79 102
3 102 79 80
3 102 80 103
3 103 80 99
3 85 81 104
3 104 81 82
3 105 83 102
3 104 82 106
3 106 82 83
3 106 83 105
3 86 84 107
3 107 84 85
3 107 85 108
3 108 85 104
3 109 86 107
3 110 86 109
3 87 88 112
3 90 87 112
3 112 88 113
3 88 114 113
3 90 112 115
3 89 90 116
3 92 89 116
3 116 90 115
3 91 92 117
3 94 91 117
3 92 116 118
3 117 92 118
3 93 94 119
3 96 93 119
3 94 117 120
3 119 94 120
3 95 96 121
3 97 95 121
3 96 119 122
3 121 96 122
3 97 121 123
3 98 97 123
3 98 123 124
3 98 124 101
3 103 99 125
3 125 99 100
3 125 100 126
3 126 100 101
3 126 101 124
3 105 102 127
3 127 102 103
3 127 103 128
3 128 103 125
3 129 105 127
3 108 104 130
3 130 104 106
3 130 106 131
3 131 106 105
3 131 105 129
3 108 130 132
3 109 107 133
3 133 107 108
3 133 108 134
3 108 132 134
3 135 109 133
3 111 110 136
3 136 110 109
3 136 109 135
3 137 111 136
3 138 111 137
3 112 113 139
3 115 112 139
3 114 140 113
3 140 139 113
3 139 141 115
3 116 115 142
3 118 116 142
3 142 115 141
3 117 118 143
3 120 117 143
3 118 142 144
3 143 118 144
3 119 120 145
3 122 119 145
3 120 143 146
3 145 120 146
3 121 122 147
3 123 121 147
3 122 145 148
3 147 122 148
3 123 147 149
3 124 123 149
3 124 149 150
3 151 126 124
3 124 150 151
3 128 125 152
3 152 125 126
3 152 126 151
3 129 127 153
3 153 127 128
3 128 152 154
3 153 128 154
3 155 129 153
3 131 129 156
3 156 129 155
3 132 130 157
3 130 131 157
3 157 131 158
3 131 156 158
3 132 157 159
3 132 159 134
3 135 133 160
3 160 133 134
3 160 134 159
3 136 135 161
3 135 160 161
3 162 137 136
3 161 162 136
3 163 138 137
3 162 163 137
3 139 164 141
3 140 165 139
3 139 165 164
3 141 164 166
3 141 166 142
3 166 167 142
3 144 142 167
3 167 168 144
3 143 144 168
3 146 143 168
3 168 169 146
3 145 146 170
3 148 145 170
3 170 146 169
3 147 148 171
3 149 147 171
3 148 170 172
3 171 148 172
3 173 151 150
3 149 171 174
3 150 149 174
3 150 174 175
3 150 175 173
3 154 152 176
3 152 151 176
3 176 151 173
3 154 176 177
3 155 153 178
3 177 178 154
3 154 178 153
3 156 155 179
3 155 178 179
3 180 158 156
3 179 180 156
3 181 159 157
3 180 181 158
3 181 157 158
3 182 160 159
3 181 182 159
3 183 161 160
3 182 183 160
3 184 162 161
3 184 161 183
3 185 163 162
3 184 185 162
3 164 186 166
3 165 187 164
3 164 187 186
3 166 186 188
3 166 188 167
3 167 188 189
3 167 189 168
3 168 189 190
3 168 190 169
3 169 190 191
3 169 191 170
3 192 172 170
3 170 191 192
3 192 193 172
3 171 172 193
3 174 171 193
3 194 173 175
3 176 173 194
3 175 174 195
3 193 195 174
3 195 196 175
3 175 196 194
3 197 177 176
3 194 197 176
3 198 178 177
3 197 198 177
3 199 179 178
3 198 199 178
3 200 180 179
3 199 200 179
3 201 181 180
3 200 201 180
3 202 182 181
3 201 202 181
3 203 183 182
3 202 203 182
3 204 184 183
3 203 204 183
3 205 185 184
3 204 205 184
3 186 206 188
3 187 207 186
3 186 207 206
3 188 206 208
3 188 208 189
3 189 208 209
3 189 209 190
3 190 209 210
3 190 210 191
3 191 210 211
3 191 211 192
3 192 211 212
3 192 212 193
3 193 212 213
3 193 213 195
3 214 197 194
3 214 194 196
3 195 213 215
3 195 215 196
3 196 215 214
3 216 198 197
3 214 216 197
3 217 199 198
3 216 217 198
3 218 200 199
3 217 218 199
3 219 201 200
3 218 219 200
3 220 202 201
3 219 220 201
3 221 203 202
3 220 221 202
3 222 204 203
3 221 222 203
3 223 205 204
3 222 223 204
3 206 224 208
3 207 225 206
3 206 225 224
3 208 224 226
3 208 226 209
3 209 226 227
3 209 227 210
3 210 227 228
3 210 228 211
3 211 228 229
3 211 229 212
3 212 229 230
3 212 230 213
3 213 230 231
3 213 231 215
3 232 216 214
3 215 231 232
3 232 214 215
3 233 217 216
3 232 233 216
3 234 218 217
3 233 234 217
3 235 219 218
3 234 235 218
3 236 220 219
3 235 236 219
3 237 221 220
3 236 237 220
3 238 222 221
3 237 238 221
3 239 223 222
3 238 239 222
3 224 240 226
3 225 241 224
3 224 241 240
3 226 240 242
3 226 242 227
3 227 242 243
3 227 243 228
3 228 243 244
3 228 244 229
3 244 245 229
3 229 245 230
3 230 245 246
3 230 246 231
3 231 246 247
3 231 247 232
3 248 233 232
3 248 232 247
3 249 234 233
3 248 249 233
3 250 235 234
3 249 250 234
3 251 236 235
3 250 251 235
3 252 237 236
3 251 252 236
3 253 238 237
3 252 253 237
3 254 239 238
3 253 254 238
3 240 255 242
3 241 256 240
3 240 256 255
3 242 255 257
3 242 257 243
3 243 257 258
3 243 258 244
3 244 258 259
3 244 259 245
3 245 259 260
3 245 260 246
3 246 260 261
3 246 261 247
3 248 247 261
3 262 249 248
3 261 262 248
3 263 250 249
3 262 263 249
3 264 251 250
3 263 264 250
3 265 252 251
3 264 265 251
3 266 253 252
3 265 266 252
3 267 254 253
3 266 267 253
3 255 268 257
3 256 269 255
3 255 269 268
3 257 268 270
3 257 270 258
3 258 270 271
3 258 271 259
3 259 271 272
3 259 272 260
3 260 272 273
3 260 273 261
3 274 262 261
3 261 273 274
3 275 263 262
3 274 275 262
3 276 264 263
3 275 276 263
3 277 265 264
3 276 277 264
3 278 266 265
3 277 278 265
3 279 267 266
3 278 279 266
3 268 280 270
3 269 281 268
3 268 281 280
3 270 280 282
3 270 282 271
3 271 282 283
3 271 283 272
3 283 284 272
3 272 284 273
3 285 275 274
3 273 284 285
3 285 274 273
3 286 276 275
3 285 286 275
3 287 277 276
3 286 287 276
3 288 278 277
3 287 288 277
3 289 279 278
3 288 289 278
3 280 290 282
3 281 291 280
3 280 291 290
3 282 290 292
3 282 292 283
3 283 292 293
3 283 293 284
3 284 293 294
3 284 294 285
3 295 286 285
3 295 285 294
3 296 287 286
3 295 296 286
3 297 288 287
3 296 297 287
3 298 289 288
3 297 298 288
3 290 299 292
3 291 300 290
3 290 300 299
3 292 299 301
3 292 301 293
3 293 301 302
3 293 302 294
3 294 302 295
3 303 296 295
3 303 295 302
3 304 297 296
3 303 304 296
3 305 298 297
3 304 305 297
3 299 306 301
3 300 307 299
3 299 307 306
3 301 306 308
3 301 308 302
3 309 303 302
3 302 308 309
3 310 304 303
3 309 310 303
3 311 305 304
3 310 311 304
3 306 312 308
3 307 313 306
3 306 313 312
3 314 310 309
3 308 312 314
3 314 309 308
3 315 311 310
3 314 315 310
3 312 316 314
3 313 317 312
3 312 317 316
3 318 315 314
3 318 314 316
3 317 319 316
3 319 318 316
CELL_TYPES 578
5
5
5
5
5
5
5
5
5
5
5
5
5
5
5
5
5
5
5
5
5
5
5
5
5
5
5
5
5
5
5
5
5
5
5
5
5
5
5
5
5
5
5
5
5
5
5
5
5
5
5
5
5
5
5
5
5
5
5
5
5
5
5
5
5
5
5
5
5
5
5
5
5
5
5
5
5
5
5
5
5
5
5
5
5
5
5
5
5
5
5
5
5
5
5
5
5
5
5
5
5
5
5
5
5
5
5
5
5
5
5
5
5
5
5
5
5
5
5
5
5
5
5
5
5
5
5
5
5
5
5
5
5
5
5
5
5
5
5
5
5
5
5
5
5
5
5
5
5
5
5
5
5
5
5
5
5
5
5
5
5
5
5
5
5
5
5
5
5
5
5
5
5
5
5
5
5
5
5
5
5
5
5
5
5
5
5
5
5
5
5
5
5
5
5
5
5
5
5
5
5
5
5
5
5
5
5
5
5
5
5
5
5
5
5
5
5
5
5
5
5
5
5
5
5
5
5
5
5
5
5
5
5
5
5
5
5
5
5
5
5
5
5
5
5
5
5
5
5
5
5
5
5
5
5
5
5
5
5
5
5
5
5
5
5
5
5
5
5
5
5
5
5
5
5
5
5
5
5
5
5
5
5
5
5
5
5
5
5
5
5
5
5
5
5
5
5
5
5
5
5
5
5
5
5
5
5
5
5
5
5
5
5
5
5
5
5
5
5
5
5
5
5
5
5
5
5
5
5
5
5
5
5
5
5
5
5
5
5
5
5
5
5
5
5
5
5
5
5
5
5
5
5
5
5
5
5
5
5
5
5
5
5
5
5
5
5
5
5
5
5
5
5
5
5
5
5
5
5
5
5
5
5
5
5
5
5
5
5
5
5
5
5
5
5
5
5
5
5
5
5
5
5
5
5
5
5
5
5
5
5
5
5
5
5
5
5
5
5
5
5
5
5
5
5
5
5
5
5
5
5
5
5
5
5
5
5
5
5
5
5
5
5
5
5
5
5
5
5
5
5
5
5
5
5
5
5
5
5
5
5
5
5
5
5
5
5
5
5
5
5
5
5
5
5
5
5
5
5
5
5
5
5
5
5
5
5
5
5
5
5
5
5
5
5
5
5
5
5
5
5
5
5
5
5
5
5
5
5
5
5
5
5
5
5
5
5
5
5
5
5
5
5
5
5
5
5
5
5
5
5
5
5
5
5
5
5
5
5
5
5
5
5
5
5
5
5
5
5
5
5
5
5
5
5
5
5
5
5
5
5
5
5
5
5
5
5
5
5
5
5
5
5
5
5
5
5
5
POINT_DATA 320
SCALARS theta_e float 1
LOOKUP_TABLE default
0.992063
0.992012
0.992069
0.992151
0.991933
0.992379
0.992021
0.992212
0.992807
0.991809
0.991920
0.992563
0.992126
0.992366
0.993373
0.993050
0.991642
0.991779
0.992019
0.992744
0.992383
0.991432
0.994054
0.994822
0.993670
0.993281
0.991592
0.991846
0.992178
0.992894
0.992568
0.991188
0.991367
0.990921
0.995635
0.996450
0.994396
0.995191
0.993940
0.993480
0.991644
0.992005
0.992451
0.993014
0.991114
0.991407
0.990643
0.990842
0.997226
0.997928
0.996008
0.996807
0.994702
0.995504
0.994192
0.993696
0.991785
0.992239
0.992766
0.993280
0.991146
0.991526
0.990369
0.990564
0.990869
0.990121
0.998523
0.998987
0.997550
0.998202
0.996310
0.997077
0.994958
0.995753
0.994405
0.993855
0.991980
0.992542
0.993220
0.991243
0.991678
0.990299
0.990592
0.990956
0.989914
0.990069
0.989758
0.999306
0.999479
0.998736
0.999132
0.997772
0.998363
0.996531
0.997250
0.995167
0.995940
0.994572
0.993968
0.992247
0.992854
0.993464
0.991366
0.991938
0.990329
0.991073
0.990692
0.989879
0.990106
0.989736
0.989661
0.989607
0.999383
0.999500
0.999526
0.999171
0.998834
0.997887
0.998413
0.996674
0.997321
0.995325
0.996057
0.994616
0.993986
0.992572
0.993236
0.991605
0.992219
0.991277
0.990456
0.990828
0.990277
0.989897
0.990075
0.989784
0.989672
0.989611
0.989583
0.999369
0.999479
0.999131
0.998795
0.997880
0.998320
0.996723
0.997300
0.995363
0.996056
0.994700
0.994059
0.993469
0.992817
0.991887
0.992396
0.991578
0.991112
0.990544
0.990804
0.990283
0.989989
0.989800
0.989691
0.989626
0.999155
0.999330
0.998823
0.998411
0.997829
0.997211
0.996634
0.995410
0.995950
0.993613
0.994705
0.993940
0.993014
0.992557
0.992037
0.991501
0.991032
0.990610
0.990269
0.990008
0.989835
0.989730
0.998788
0.999035
0.998414
0.997937
0.997373
0.996721
0.996114
0.995396
0.993460
0.994495
0.993691
0.992905
0.992406
0.991910
0.991387
0.990939
0.990590
0.990285
0.990055
0.989904
0.998306
0.998611
0.997887
0.997378
0.996788
0.996168
0.995548
0.994921
0.993310
0.994044
0.992868
0.992341
0.991810
0.991324
0.990948
0.990617
0.990343
0.990152
0.997717
0.998070
0.997270
0.996740
0.996152
0.995546
0.994943
0.994308
0.993480
0.992817
0.992252
0.991729
0.991332
0.990984
0.990684
0.990465
0.997051
0.997434
0.996589
0.996061
0.995486
0.994904
0.994323
0.993806
0.993251
0.992663
0.992144
0.991726
0.991368
0.991056
0.990822
0.996340
0.996737
0.995883
0.995375
0.994831
0.994260
0.993682
0.993031
0.992526
0.992105
0.991741
0.991431
0.991197
0.995621
0.996014
0.995185
0.994719
0.994235
0.993728
0.993298
0.992864
0.992448
0.992086
0.991786
0.991565
0.994931
0.995303
0.994532
0.994122
0.993713
0.993226
0.992758
0.992392
0.992108
0.991907
0.994303
0.994639
0.993953
0.993612
0.993324
0.992971
0.992636
0.992380
0.992207
0.993766
0.994052
0.993466
0.993164
0.992827
0.992598
0.992456
0.993351
0.993572
0.993126
0.992941
0.992763
0.992650
0.993070
0.993219
0.992908
0.992800
0.992942
0.993015
0.992889
0.992937
VECTORS fa_u float
0.000000 0.000000 0.000000
0.000000 0.000000 0.000000
0.000000 0.000000 0.000000
0.000000 0.000000 0.000000
0.000000 0.000000 0.000000
0.000000 0.000000 0.000000
0.000000 0.000000 0.000000
0.000000 0.000000 0.000000
0.000000 0.000000 0.000000
0.000000 0.000000 0.000000
0.000000 0.000000 0.000000
0.000000 0.000000 0.000000
0.000000 0.000000 0.000000
0.000000 0.000000 0.000000
0.000000 0.000000 0.000000
0.000000 0.000000 0.000000
0.000000 0.000000 0.000000
0.000000 0.000000 0.000000
0.000000 0.000000 0.000000
0.000000 0.000000 0.000000
0.000000 0.000000 0.000000
0.000000 0.000000 0.000000
0.000000 0.000000 0.000000
0.000000 0.000000 0.000000
0.000000 0.000000 0.000000
0.000000 0.000000 0.000000
0.000000 0.000000 0.000000
0.000000 0.000000 0.000000
0.000000 0.000000 0.000000
0.000000 0.000000 0.000000
0.000000 0.000000 0.000000
0.000000 0.000000 0.000000
0.000000 0.000000 0.000000
0.000000 0.000000 0.000000
0.000000 0.000000 0.000000
0.000000 0.000000 0.000000
0.000000 0.000000 0.000000
0.000000 0.000000 0.000000
0.000000 0.000000 0.000000
0.000000 0.000000 0.000000
0.000000 0.000000 0.000000
0.000000 0.000000 0.000000
0.000000 0.000000 0.000000
0.000000 0.000000 0.000000
0.000000 0.000000 0.000000
0.000000 0.000000 0.000000
0.000000 0.000000 0.000000
0.000000 0.000000 0.000000
0.000000 0.000000 0.000000
0.000000 0.000000 0.000000
0.000000 0.000000 0.000000
0.000000 0.000000 0.000000
0.000000 0.000000 0.000000
0.000000 0.000000 0.000000
0.000000 0.000000 0.000000
0.000000 0.000000 0.000000
0.000000 0.000000 0.000000
0.000000 0.000000 0.000000
0.000000 0.000000 0.000000
0.000000 0.000000 0.000000
0.000000 0.000000 0.000000
0.000000 0.000000 0.000000
0.000000 0.000000 0.000000
0.000000 0.000000 0.000000
0.000000 0.000000 0.000000
0.000000 0.000000 0.000000
0.000000 0.000000 0.000000
0.000000 0.000000 0.000000
0.000000 0.000000 0.000000
0.000000 0.000000 0.000000
0.000000 0.000000 0.000000
0.000000 0.000000 0.000000
0.000000 0.000000 0.000000
0.000000 0.000000 0.000000
0.000000 0.000000 0.000000
0.000000 0.000000 0.000000
0.000000 0.000000 0.000000
0.000000 0.000000 0.000000
0.000000 0.000000 0.000000
0.000000 0.000000 0.000000
0.000000 0.000000 0.000000
0.000000 0.000000 0.000000
0.000000 0.000000 0.000000
0.000000 0.000000 0.000000
0.000000 0.000000 0.000000
0.000000 0.000000 0.000000
0.000000 0.000000 0.000000
0.000000 0.000000 0.000000
0.000000 0.000000 0.000000
0.000000 0.000000 0.000000
0.000000 0.000000 0.000000
0.000000 0.000000 0.000000
0.000000 0.000000 0.000000
0.000000 0.000000 0.000000
0.000000 0.000000 0.000000
0.000000 0.000000 0.000000
0.000000 0.000000 0.000000
0.000000 0.000000 0.000000
0.000000 0.000000 0.000000
0.000000 0.000000 0.000000
0.000000 0.000000 0.000000
0.000000 0.000000 0.000000
0.000000 0.000000 0.000000
0.000000 0.000000 0.000000
0.000000 0.000000 0.000000
0.000000 0.000000 0.000000
0.000000 0.000000 0.000000
0.000000 0.000000 0.000000
0.000000 0.000000 0.000000
0.000000 0.000000 0.000000
0.000000 0.000000 0.000000
0.000000 0.000000 0.000000
0.000000 0.000000 0.000000
0.000000 0.000000 0.000000
0.000000 0.000000 0.000000
0.000000 0.000000 0.000000
0.000000 0.000000 0.000000
0.000000 0.000000 0.000000
0.000000 0.000000 0.000000
0.000000 0.000000 0.000000
0.000000 0.000000 0.000000
0.000000 0.000000 0.000000
0.000000 0.000000 0.000000
0.000000 0.000000 0.000000
0.000000 0.000000 0.000000
0.000000 0.000000 0.000000
0.000000 0.000000 0.000000
0.000000 0.000000 0.000000
0.000000 0.000000 0.000000
0.000000 0.000000 0.000000
0.000000 0.000000 0.000000
0.000000 0.000000 0.000000
0.000000 0.000000 0.000000
0.000000 0.000000 0.000000
0.000000 0.000000 0.000000
0.000000 0.000000 0.000000
0.000000 0.000000 0.000000
0.000000 0.000000 0.000000
0.000000 0.000000 0.000000
0.000000 0.000000 0.000000
0.000000 0.000000 0.000000
0.000000 0.000000 0.000000
0.000000 0.000000 0.000000
0.000000 0.000000 0.000000
0.000000 0.000000 0.000000
0.000000 0.000000 0.000000
0.000000 0.000000 0.000000
0.000000 0.000000 0.000000
0.000000 0.000000 0.000000
0.000000 0.000000 0.000000
0.000000 0.000000 0.000000
0.000000 0.000000 0.000000
0.000000 0.000000 0.000000
0.000000 0.000000 0.000000
0.000000 0.000000 0.000000
0.000000 0.000000 0.000000
0.000000 0.000000 0.000000
0.000000 0.000000 0.000000
0.000000 0.000000 0.000000
0.000000 0.000000 0.000000
0.000000 0.000000 0.000000
0.000000 0.000000 0.000000
0.000000 0.000000 0.000000
0.000000 0.000000 0.000000
0.000000 0.000000 0.000000
0.000000 0.000000 0.000000
0.000000 0.000000 0.000000
0.000000 0.000000 0.000000
0.000000 0.000000 0.000000
0.000000 0.000000 0.000000
0.000000 0.000000 0.000000
0.000000 0.000000 0.000000
0.000000 0.000000 0.000000
0.000000 0.000000 0.000000
0.000000 0.000000 0.000000
0.000000 0.000000 0.000000
0.000000 0.000000 0.000000
0.000000 0.000000 0.000000
0.000000 0.000000 0.000000
0.000000 0.000000 0.000000
0.000000 0.000000 0.000000
0.000000 0.000000 0.000000
0.000000 0.000000 0.000000
0.000000 0.000000 0.000000
0.000000 0.000000 0.000000
0.000000 0.000000 0.000000
0.000000 0.000000 0.000000
0.000000 0.000000 0.000000
0.000000 0.000000 0.000000
0.000000 0.000000 0.000000
0.000000 0.000000 0.000000
0.000000 0.000000 0.000000
0.000000 0.000000 0.000000
0.000000 0.000000 0.000000
0.000000 0.000000 0.000000
0.000000 0.000000 0.000000
0.000000 0.000000 0.000000
0.000000 0.000000 0.000000
0.000000 0.000000 0.000000
0.000000 0.000000 0.000000
0.000000 0.000000 0.000000
0.000000 0.000000 0.000000
0.000000 0.000000 0.000000
0.000000 0.000000 0.000000
0.000000 0.000000 0.000000
0.000000 0.000000 0.000000
0.000000 0.000000 0.000000
0.000000 0.000000 0.000000
0.000000 0.000000 0.000000
0.000000 0.000000 0.000000
0.000000 0.000000 0.000000
0.000000 0.000000 0.000000
0.000000 0.000000 0.000000
0.000000 0.000000 0.000000
0.000000 0.000000 0.000000
0.000000 0.000000 0.000000
0.000000 0.000000 0.000000
0.000000 0.000000 0.000000
0.000000 0.000000 0.000000
0.000000 0.000000 0.000000
0.000000 0.000000 0.000000
0.000000 0.000000 0.000000
0.000000 0.000000 0.000000
0.000000 0.000000 0.000000
0.000000 0.000000 0.000000
0.000000 0.000000 0.000000
0.000000 0.000000 0.000000
0.000000 0.000000 0.000000
0.000000 0.000000 0.000000
0.000000 0.000000 0.000000
0.000000 0.000000 0.000000
0.000000 0.000000 0.000000
0.000000 0.000000 0.000000
0.000000 0.000000 0.000000
0.000000 0.000000 0.000000
0.000000 0.000000 0.000000
0.000000 0.000000 0.000000
0.000000 0.000000 0.000000
0.000000 0.000000 0.000000
0.000000 0.000000 0.000000
0.000000 0.000000 0.000000
0.000000 0.000000 0.000000
0.000000 0.000000 0.000000
0.000000 0.000000 0.000000
0.000000 0.000000 0.000000
0.000000 0.000000 0.000000
0.000000 0.000000 0.000000
0.000000 0.000000 0.000000
0.000000 0.000000 0.000000
0.000000 0.000000 0.000000
0.000000 0.000000 0.000000
0.000000 0.000000 0.000000
0.000000 0.000000 0.000000
0.000000 0.000000 0.000000
0.000000 0.000000 0.000000
0.000000 0.000000 0.000000
0.000000 0.000000 0.000000
0.000000 0.000000 0.000000
0.000000 0.000000 0.000000
0.000000 0.000000 0.000000
0.000000 0.000000 0.000000
0.000000 0.000000 0.000000
0.000000 0.000000 0.000000
0.000000 0.000000 0.000000
0.000000 0.000000 0.000000
0.000000 0.000000 0.000000
0.000000 0.000000 0.000000
0.000000 0.000000 0.000000
0.000000 0.000000 0.000000
0.000000 0.000000 0.000000
0.000000 0.000000 0.000000
0.000000 0.000000 0.000000
0.000000 0.000000 0.000000
0.000000 0.000000 0.000000
0.000000 0.000000 0.000000
0.000000 0.000000 0.000000
0.000000 0.000000 0.000000
0.000000 0.000000 0.000000
0.000000 0.000000 0.000000
0.000000 0.000000 0.000000
0.000000 0.000000 0.000000
0.000000 0.000000 0.000000
0.000000 0.000000 0.000000
0.000000 0.000000 0.000000
0.000000 0.000000 0.000000
0.000000 0.000000 0.000000
0.000000 0.000000 0.000000
0.000000 0.000000 0.000000
0.000000 0.000000 0.000000
0.000000 0.000000 0.000000
0.000000 0.000000 0.000000
0.000000 0.000000 0.000000
0.000000 0.000000 0.000000
0.000000 0.000000 0.000000
0.000000 0.000000 0.000000
0.000000 0.000000 0.000000
0.000000 0.000000 -50.000000
-50.000000 0.000000 -50.000000
-43.332633 0.000000 -45.702552
-45.518314 0.000000 -43.308658
-50.000000 0.000000 -50.000000
-36.664997 0.000000 -36.617542
-50.000000 0.000000 -45.096122
-40.019480 0.000000 -40.051970
-44.188258 0.000000 -29.923836
-50.000000 0.000000 -50.000000
-29.997806 0.000000 -44.861563
-33.528760 0.000000 -33.169501
-44.711571 0.000000 -39.887847
-36.854447 0.000000 -35.154588
-39.862142 0.000000 -23.228213
-50.000000 0.000000 -26.567797
-44.701825 0.000000 -50.000000
-23.333504 0.000000 -44.676948
-26.918731 0.000000 -39.379565
-30.327377 0.000000 -29.635938
-39.422014 0.000000 -33.390538
-33.747697 0.000000 -50.000000
-16.670829 0.000000 -16.537089
-50.000000 0.000000 -9.851901
