# vtk DataFile Version 2.0
CellBP Time: 3.24
ASCII
DATASET UNSTRUCTURED_GRID
POINTS 320 double
-50.000000 -50.000000 0.000000
-50.000000 -43.340839 0.000000
-45.689622 -45.525788 0.000000
-43.286137 -50.000000 0.000000
-50.000000 -36.680614 0.000000
-36.572529 -50.000000 0.000000
-45.081451 -40.034482 0.000000
-40.022294 -44.198099 0.000000
-29.859472 -50.000000 0.000000
-50.000000 -30.019765 0.000000
-44.846802 -33.552354 0.000000
-33.119939 -44.720555 0.000000
-39.857791 -36.873922 0.000000
-35.111397 -39.878462 0.000000
-23.147749 -50.000000 0.000000
-26.502487 -44.710376 0.000000
-50.000000 -23.360077 0.000000
-44.662875 -26.949742 0.000000
-39.349840 -30.355223 0.000000
-29.578946 -39.438888 0.000000
-33.343887 -33.771770 0.000000
-50.000000 -16.700139 0.000000
-16.444779 -50.000000 0.000000
-9.752437 -50.000000 0.000000
-19.919063 -44.629483 0.000000
-23.172905 -39.194210 0.000000
-44.687615 -20.283170 0.000000
-39.350078 -23.699093 0.000000
-34.073184 -27.095578 0.000000
-26.346071 -33.697481 0.000000
-29.112238 -29.078792 0.000000
-50.000000 -10.042318 0.000000
-44.658753 -13.636843 0.000000
-50.000000 -3.388920 0.000000
-3.069979 -50.000000 0.000000
3.599435 -50.000000 0.000000
-13.289559 -44.635605 0.000000
-6.622867 -44.645206 0.000000
-16.635664 -39.226126 0.000000
-20.050026 -33.461477 0.000000
-39.314994 -17.018001 0.000000
-33.983308 -20.477688 0.000000
-28.729433 -23.642653 0.000000
-23.446028 -27.522658 0.000000
-44.620940 -6.973140 0.000000
-39.256328 -10.363718 0.000000
-50.000000 3.267412 0.000000
-44.603909 -0.322260 0.000000
10.254011 -50.000000 0.000000
16.895351 -50.000000 0.000000
0.052096 -44.648893 0.000000
6.722697 -44.659017 0.000000
-9.972327 -39.293048 0.000000
-3.286641 -39.287216 0.000000
-13.407561 -33.908911 0.000000
-16.622771 -28.435108 0.000000
-33.892552 -13.774356 0.000000
-28.531583 -17.140905 0.000000
-23.209118 -20.545092 0.000000
-18.568996 -23.492399 0.000000
-39.213538 -3.708668 0.000000
-33.819420 -7.128600 0.000000
-50.000000 9.957973 0.000000
-44.585948 6.332595 0.000000
-39.189710 2.952026 0.000000
-50.000000 16.719336 0.000000
23.527216 -50.000000 0.000000
30.151661 -50.000000 0.000000
13.387028 -44.679906 0.000000
20.053125 -44.711918 0.000000
3.393513 -39.302325 0.000000
10.056627 -39.335798 0.000000
-6.642255 -33.896421 0.000000
0.065735 -33.923100 0.000000
-9.987281 -28.444783 0.000000
-13.011070 -23.104587 0.000000
-28.423188 -10.533963 0.000000
-22.945248 -13.959651 0.000000
-16.854401 -17.468237 0.000000
-33.760742 -0.490693 0.000000
-28.403358 -3.981023 0.000000
-44.549382 13.025455 0.000000
-39.125780 9.581375 0.000000
-33.723484 6.044537 0.000000
-50.000000 23.584261 0.000000
-44.594687 19.821789 0.000000
-50.000000 30.544613 0.000000
36.768339 -50.000000 0.000000
43.384305 -50.000000 0.000000
26.716161 -44.751568 0.000000
33.355324 -44.875920 0.000000
16.709477 -39.391921 0.000000
23.392667 -39.461626 0.000000
6.740686 -33.956804 0.000000
13.381913 -34.024259 0.000000
-3.228699 -28.494206 0.000000
3.473288 -28.564910 0.000000
-6.494644 -23.026275 0.000000
-9.831727 -17.552168 0.000000
-23.006417 -7.388526 0.000000
-17.629094 -10.656583 0.000000
-12.663962 -12.874485 0.000000
-28.363066 2.580828 0.000000
-23.010450 -0.936968 0.000000
-38.990442 16.272946 0.000000
-28.331462 9.275818 0.000000
-33.510048 12.449226 0.000000
-44.738286 26.592978 0.000000
-38.708250 23.632281 0.000000
-44.986590 33.396005 0.000000
-50.000000 37.494274 0.000000
-50.000000 43.857295 0.000000
39.944433 -45.069677 0.000000
45.477355 -45.658533 0.000000
50.000000 -50.000000 0.000000
36.659598 -39.993043 0.000000
30.059913 -39.475480 0.000000
19.981475 -34.135318 0.000000
26.646184 -34.351156 0.000000
10.097192 -28.602155 0.000000
16.704612 -28.723769 0.000000
0.192654 -23.110337 0.000000
6.942781 -23.279802 0.000000
-3.239639 -17.506353 0.000000
-6.671858 -11.333005 0.000000
-17.618589 -4.227707 0.000000
-12.302601 -7.372326 0.000000
-22.943111 5.500908 0.000000
-17.700633 1.981492 0.000000
-22.611148 11.441174 0.000000
-33.305098 18.478932 0.000000
-27.381909 16.089959 0.000000
-33.025332 23.818675 0.000000
-40.296331 30.524474 0.000000
-35.394576 28.945274 0.000000
-39.911636 35.496022 0.000000
-43.913372 40.166663 0.000000
-45.269242 45.764906 0.000000
-50.000000 50.000000 0.000000
44.125331 -39.903693 0.000000
50.000000 -43.385370 0.000000
39.660501 -35.064407 0.000000
33.505107 -33.450083 0.000000
23.061738 -28.869596 0.000000
28.791916 -29.286747 0.000000
13.573068 -23.211984 0.000000
20.150123 -23.509604 0.000000
3.553552 -17.744331 0.000000
10.264797 -17.950665 0.000000
0.329445 -12.255659 0.000000
-1.921071 -6.557576 0.000000
-7.142512 -4.038038 0.000000
-12.322579 -1.181871 0.000000
-17.708428 8.015999 0.000000
-12.592721 4.799521 0.000000
-17.981647 13.125054 0.000000
-20.737474 16.791402 0.000000
-28.006988 22.495226 0.000000
-23.324592 20.982207 0.000000
-29.720989 28.638986 0.000000
-34.140456 34.078023 0.000000
-36.852436 39.939180 0.000000
-39.621983 45.265216 0.000000
-43.397701 50.000000 0.000000
44.592054 -32.991975 0.000000
50.000000 -36.757559 0.000000
39.158909 -29.607370 0.000000
33.551446 -26.406194 0.000000
27.257190 -23.378193 0.000000
23.157237 -18.720451 0.000000
17.103730 -17.066912 0.000000
6.879132 -12.357914 0.000000
12.490583 -12.837159 0.000000
-3.094402 -1.767975 0.000000
4.160458 -7.241279 0.000000
1.283108 -2.333177 0.000000
-6.718645 2.029209 0.000000
-8.064675 7.524108 0.000000
-12.319259 11.536517 0.000000
-15.045204 17.298794 0.000000
-18.455851 22.708584 0.000000
-23.556120 27.195324 0.000000
-26.929321 33.594689 0.000000
-30.028044 39.305403 0.000000
-33.102276 44.833516 0.000000
-36.631532 50.000000 0.000000
44.560553 -26.527752 0.000000
50.000000 -30.132169 0.000000
39.074762 -23.216863 0.000000
33.510112 -19.946381 0.000000
28.123159 -16.641379 0.000000
22.792863 -13.206686 0.000000
17.314486 -10.014830 0.000000
11.127739 -6.775649 0.000000
-1.104797 2.092247 0.000000
6.476297 -1.881980 0.000000
3.172384 1.428611 0.000000
-3.226795 6.989167 0.000000
-5.878250 12.180336 0.000000
-9.093977 17.423996 0.000000
-12.543903 22.875271 0.000000
-16.768186 28.020467 0.000000
-20.157970 33.345838 0.000000
-23.286263 38.982629 0.000000
-26.428483 44.606015 0.000000
-29.881031 50.000000 0.000000
44.545509 -19.963910 0.000000
50.000000 -23.499890 0.000000
39.080483 -16.638613 0.000000
33.650111 -13.337457 0.000000
28.253316 -10.043865 0.000000
22.859932 -6.700206 0.000000
17.435560 -3.453958 0.000000
12.272483 0.057591 0.000000
2.228994 6.110640 0.000000
7.356955 3.715106 0.000000
0.174796 11.780953 0.000000
-2.827870 17.312775 0.000000
-6.218924 22.800963 0.000000
-10.104555 28.120364 0.000000
-13.318175 33.536173 0.000000
-16.582617 38.987294 0.000000
-19.770409 44.496820 0.000000
-23.177111 50.000000 0.000000
44.558902 -13.338932 0.000000
50.000000 -16.858616 0.000000
39.133430 -10.013998 0.000000
33.730926 -6.701995 0.000000
28.354457 -3.387482 0.000000
23.005449 -0.078494 0.000000
17.749490 3.252932 0.000000
12.497720 6.462743 0.000000
7.063872 10.698380 0.000000
3.666820 17.026186 0.000000
0.307355 22.705408 0.000000
-3.132324 28.199792 0.000000
-6.472941 33.682013 0.000000
-9.810733 39.102972 0.000000
-13.108484 44.526750 0.000000
-16.546136 50.000000 0.000000
44.582472 -6.689058 0.000000
50.000000 -10.205401 0.000000
39.183779 -3.368601 0.000000
33.808381 -0.050954 0.000000
28.468531 3.269544 0.000000
23.185414 6.607512 0.000000
18.063493 9.930619 0.000000
12.927744 12.103085 0.000000
10.084124 17.116220 0.000000
6.788406 22.617869 0.000000
3.504834 28.184889 0.000000
0.191722 33.672129 0.000000
-3.137055 39.122834 0.000000
-6.436865 44.557721 0.000000
-9.906363 50.000000 0.000000
44.607903 -0.029550 0.000000
50.000000 -3.539797 0.000000
39.233417 3.288761 0.000000
33.883723 6.603224 0.000000
28.571248 9.933009 0.000000
23.235390 13.346077 0.000000
17.178707 16.944417 0.000000
13.152852 22.596364 0.000000
10.071595 28.171839 0.000000
6.860434 33.674169 0.000000
3.535910 39.134470 0.000000
0.222713 44.570201 0.000000
-3.257571 50.000000 0.000000
44.622132 6.639087 0.000000
50.000000 3.137389 0.000000
39.268084 9.946877 0.000000
33.950185 13.237142 0.000000
28.685172 16.538661 0.000000
23.560578 20.034642 0.000000
18.736510 23.059817 0.000000
16.598477 28.255250 0.000000
13.538421 33.724538 0.000000
10.196975 39.164074 0.000000
6.884570 44.578171 0.000000
3.395553 50.000000 0.000000
44.645755 13.297366 0.000000
50.000000 9.824640 0.000000
39.320408 16.586663 0.000000
34.033004 19.835832 0.000000
28.743782 22.896039 0.000000
23.438935 27.177430 0.000000
20.070830 33.282897 0.000000
16.749291 39.028601 0.000000
13.455709 44.523160 0.000000
10.052823 50.000000 0.000000
44.668556 19.957700 0.000000
50.000000 16.518429 0.000000
39.364573 23.243439 0.000000
34.139266 26.497897 0.000000
29.090798 28.519098 0.000000
26.336372 33.391849 0.000000
23.209685 38.958089 0.000000
20.043258 44.504242 0.000000
16.709223 50.000000 0.000000
44.675930 26.631970 0.000000
50.000000 23.214756 0.000000
39.357844 29.954342 0.000000
33.309360 33.362259 0.000000
29.522481 39.037714 0.000000
26.543879 44.504454 0.000000
23.365464 50.000000 0.000000
44.809381 33.284525 0.000000
50.000000 29.911864 0.000000
39.796489 36.591600 0.000000
34.913110 39.523409 0.000000
32.922447 44.512887 0.000000
30.023156 50.000000 0.000000
45.010096 39.875541 0.000000
50.000000 36.608875 0.000000
39.793404 43.969185 0.000000
36.679751 50.000000 0.000000
45.648435 45.411193 0.000000
50.000000 43.304675 0.000000
43.336626 50.000000 0.000000
50.000000 50.000000 0.000000
CELLS 578 2312
3 1 0 2
3 0 3 2
3 4 1 6
3 6 1 2
3 3 5 7
3 3 7 2
3 6 2 7
3 9 4 10
3 10 4 6
3 5 8 11
3 7 5 11
3 10 6 12
3 12 6 7
3 7 11 13
3 7 13 12
3 8 14 15
3 11 8 15
3 16 9 17
3 17 9 10
3 17 10 18
3 18 10 12
3 11 15 19
3 13 11 19
3 18 12 20
3 13 19 20
3 20 12 13
3 14 22 24
3 15 14 24
3 15 24 25
3 19 15 25
3 21 16 26
3 26 16 17
3 26 17 27
3 27 17 18
3 27 18 28
3 28 18 20
3 19 25 29
3 19 29 20
3 28 20 30
3 30 20 29
3 31 21 32
3 32 21 26
3 22 23 36
3 24 22 36
3 23 34 37
3 36 23 37
3 24 36 38
3 25 24 38
3 25 38 39
3 29 25 39
3 32 26 40
3 40 26 27
3 40 27 41
3 41 27 28
3 41 28 42
3 42 28 30
3 29 39 43
3 29 43 30
3 42 30 43
3 33 31 44
3 44 31 32
3 44 32 45
3 45 32 40
3 46 33 47
3 47 33 44
3 34 35 50
3 37 34 50
3 35 48 51
3 50 35 51
3 36 37 52
3 38 36 52
3 37 50 53
3 52 37 53
3 38 52 54
3 39 38 54
3 39 54 55
3 43 39 55
3 45 40 56
3 56 40 41
3 56 41 57
3 57 41 42
3 57 42 58
3 58 42 43
3 43 55 59
3 43 59 58
3 47 44 60
3 60 44 45
3 60 45 61
3 61 45 56
3 62 46 63
3 63 46 47
3 63 47 64
3 64 47 60
3 48 49 68
3 51 48 68
3 49 66 69
3 68 49 69
3 50 51 70
3 53 50 70
3 51 68 71
3 70 51 71
3 52 53 72
3 54 52 72
3 53 70 73
3 72 53 73
3 54 72 74
3 55 54 74
3 55 74 75
3 59 55 75
3 61 56 76
3 76 56 57
3 76 57 77
3 77 57 58
3 77 58 78
3 59 75 78
3 78 58 59
3 64 60 79
3 79 60 61
3 79 61 80
3 80 61 76
3 65 62 81
3 81 62 63
3 81 63 82
3 82 63 64
3 82 64 83
3 83 64 79
3 84 65 85
3 85 65 81
3 66 67 89
3 69 66 89
3 67 87 90
3 89 67 90
3 68 69 91
3 71 68 91
3 69 89 92
3 91 69 92
3 70 71 93
3 73 70 93
3 71 91 94
3 93 71 94
3 72 73 95
3 74 72 95
3 73 93 96
3 95 73 96
3 74 95 97
3 75 74 97
3 75 97 98
3 78 75 98
3 80 76 99
3 99 76 77
3 99 77 100
3 100 77 78
3 100 78 101
3 98 101 78
3 83 79 102
3 102 79 80
3 102 80 103
3 103 80 99
3 85 81 104
3 104 81 82
3 105 83 102
3 104 82 106
3 106 82 83
3 106 83 105
3 86 84 107
3 107 84 85
3 107 85 108
3 108 85 104
3 109 86 107
3 110 86 109
3 87 88 112
3 90 87 112
3 112 88 113
3 88 114 113
3 90 112 115
3 89 90 116
3 92 89 116
3 116 90 115
3 91 92 117
3 94 91 117
3 92 116 118
3 117 92 118
3 93 94 119
3 96 93 119
3 94 117 120
3 119 94 120
3 95 96 121
3 97 95 121
3 96 119 122
3 121 96 122
3 97 121 123
3 98 97 123
3 98 123 124
3 98 124 101
3 103 99 125
3 125 99 100
3 125 100 126
3 126 100 101
3 126 101 124
3 105 102 127
3 127 102 103
3 127 103 128
3 128 103 125
3 129 105 127
3 108 104 130
3 130 104 106
3 130 106 131
3 131 106 105
3 131 105 129
3 108 130 132
3 109 107 133
3 133 107 108
3 133 108 134
3 108 132 134
3 135 109 133
3 111 110 136
3 136 110 109
3 136 109 135
3 137 111 136
3 138 111 137
3 112 113 139
3 115 112 139
3 114 140 113
3 140 139 113
3 139 141 115
3 116 115 142
3 118 116 142
3 142 115 141
3 117 118 143
3 120 117 143
3 118 142 144
3 143 118 144
3 119 120 145
3 122 119 145
3 120 143 146
3 145 120 146
3 121 122 147
3 123 121 147
3 122 145 148
3 147 122 148
3 123 147 149
3 124 123 149
3 124 149 150
3 151 126 124
3 124 150 151
3 128 125 152
3 152 125 126
3 152 126 151
3 129 127 153
3 153 127 128
3 128 152 154
3 153 128 154
3 155 129 153
3 131 129 156
3 156 129 155
3 132 130 157
3 130 131 157
3 157 131 158
3 131 156 158
3 132 157 159
3 132 159 134
3 135 133 160
3 160 133 134
3 160 134 159
3 136 135 161
3 135 160 161
3 162 137 136
3 161 162 136
3 163 138 137
3 162 163 137
3 139 164 141
3 140 165 139
3 139 165 164
3 141 164 166
3 141 166 142
3 166 167 142
3 144 142 167
3 167 168 144
3 143 144 168
3 146 143 168
3 168 169 146
3 145 146 170
3 148 145 170
3 170 146 169
3 147 148 171
3 149 147 171
3 148 170 172
3 171 148 172
3 173 151 150
3 149 171 174
3 150 149 174
3 150 174 175
3 150 175 173
3 154 152 176
3 152 151 176
3 176 151 173
3 154 176 177
3 155 153 178
3 177 178 154
3 154 178 153
3 156 155 179
3 155 178 179
3 180 158 156
3 179 180 156
3 181 159 157
3 180 181 158
3 181 157 158
3 182 160 159
3 181 182 159
3 183 161 160
3 182 183 160
3 184 162 161
3 184 161 183
3 185 163 162
3 184 185 162
3 164 186 166
3 165 187 164
3 164 187 186
3 166 186 188
3 166 188 167
3 167 188 189
3 167 189 168
3 168 189 190
3 168 190 169
3 169 190 191
3 169 191 170
3 192 172 170
3 170 191 192
3 192 193 172
3 171 172 193
3 174 171 193
3 194 173 175
3 176 173 194
3 175 174 195
3 193 195 174
3 195 196 175
3 175 196 194
3 197 177 176
3 194 197 176
3 198 178 177
3 197 198 177
3 199 179 178
3 198 199 178
3 200 180 179
3 199 200 179
3 201 181 180
3 200 201 180
3 202 182 181
3 201 202 181
3 203 183 182
3 202 203 182
3 204 184 183
3 203 204 183
3 205 185 184
3 204 205 184
3 186 206 188
3 187 207 186
3 186 207 206
3 188 206 208
3 188 208 189
3 189 208 209
3 189 209 190
3 190 209 210
3 190 210 191
3 191 210 211
3 191 211 192
3 192 211 212
3 192 212 193
3 193 212 213
3 193 213 195
3 214 197 194
3 214 194 196
3 195 213 215
3 195 215 196
3 196 215 214
3 216 198 197
3 214 216 197
3 217 199 198
3 216 217 198
3 218 200 199
3 217 218 199
3 219 201 200
3 218 219 200
3 220 202 201
3 219 220 201
3 221 203 202
3 220 221 202
3 222 204 203
3 221 222 203
3 223 205 204
3 222 223 204
3 206 224 208
3 207 225 206
3 206 225 224
3 208 224 226
3 208 226 209
3 209 226 227
3 209 227 210
3 210 227 228
3 210 228 211
3 211 228 229
3 211 229 212
3 212 229 230
3 212 230 213
3 213 230 231
3 213 231 215
3 232 216 214
3 215 231 232
3 232 214 215
3 233 217 216
3 232 233 216
3 234 218 217
3 233 234 217
3 235 219 218
3 234 235 218
3 236 220 219
3 235 236 219
3 237 221 220
3 236 237 220
3 238 222 221
3 237 238 221
3 239 223 222
3 238 239 222
3 224 240 226
3 225 241 224
3 224 241 240
3 226 240 242
3 226 242 227
3 227 242 243
3 227 243 228
3 228 243 244
3 228 244 229
3 244 245 229
3 229 245 230
3 230 245 246
3 230 246 231
3 231 246 247
3 231 247 232
3 248 233 232
3 248 232 247
3 249 234 233
3 248 249 233
3 250 235 234
3 249 250 234
3 251 236 235
3 250 251 235
3 252 237 236
3 251 252 236
3 253 238 237
3 252 253 237
3 254 239 238
3 253 254 238
3 240 255 242
3 241 256 240
3 240 256 255
3 242 255 257
3 242 257 243
3 243 257 258
3 243 258 244
3 244 258 259
3 244 259 245
3 245 259 260
3 245 260 246
3 246 260 261
3 246 261 247
3 248 247 261
3 262 249 248
3 261 262 248
3 263 250 249
3 262 263 249
3 264 251 250
3 263 264 250
3 265 252 251
3 264 265 251
3 266 253 252
3 265 266 252
3 267 254 253
3 266 267 253
3 255 268 257
3 256 269 255
3 255 269 268
3 257 268 270
3 257 270 258
3 258 270 271
3 258 271 259
3 259 271 272
3 259 272 260
3 260 272 273
3 260 273 261
3 274 262 261
3 261 273 274
3 275 263 262
3 274 275 262
3 276 264 263
3 275 276 263
3 277 265 264
3 276 277 264
3 278 266 265
3 277 278 265
3 279 267 266
3 278 279 266
3 268 280 270
3 269 281 268
3 268 281 280
3 270 280 282
3 270 282 271
3 271 282 283
3 271 283 272
3 283 284 272
3 272 284 273
3 285 275 274
3 273 284 285
3 285 274 273
3 286 276 275
3 285 286 275
3 287 277 276
3 286 287 276
3 288 278 277
3 287 288 277
3 289 279 278
3 288 289 278
3 280 290 282
3 281 291 280
3 280 291 290
3 282 290 292
3 282 292 283
3 283 292 293
3 283 293 284
3 284 293 294
3 284 294 285
3 295 286 285
3 295 285 294
3 296 287 286
3 295 296 286
3 297 288 287
3 296 297 287
3 298 289 288
3 297 298 288
3 290 299 292
3 291 300 290
3 290 300 299
3 292 299 301
3 292 301 293
3 293 301 302
3 293 302 294
3 294 302 295
3 303 296 295
3 303 295 302
3 304 297 296
3 303 304 296
3 305 298 297
3 304 305 297
3 299 306 301
3 300 307 299
3 299 307 306
3 301 306 308
3 301 308 302
3 309 303 302
3 302 308 309
3 310 304 303
3 309 310 303
3 311 305 304
3 310 311 304
3 306 312 308
3 307 313 306
3 306 313 312
3 314 310 309
3 308 312 314
3 314 309 308
3 315 311 310
3 314 315 310
3 312 316 314
3 313 317 312
3 312 317 316
3 318 315 314
3 318 314 316
3 317 319 316
3 319 318 316
CELL_TYPES 578
5
5
5
5
5
5
5
5
5
5
5
5
5
5
5
5
5
5
5
5
5
5
5
5
5
5
5
5
5
5
5
5
5
5
5
5
5
5
5
5
5
5
5
5
5
5
5
5
5
5
5
5
5
5
5
5
5
5
5
5
5
5
5
5
5
5
5
5
5
5
5
5
5
5
5
5
5
5
5
5
5
5
5
5
5
5
5
5
5
5
5
5
5
5
5
5
5
5
5
5
5
5
5
5
5
5
5
5
5
5
5
5
5
5
5
5
5
5
5
5
5
5
5
5
5
5
5
5
5
5
5
5
5
5
5
5
5
5
5
5
5
5
5
5
5
5
5
5
5
5
5
5
5
5
5
5
5
5
5
5
5
5
5
5
5
5
5
5
5
5
5
5
5
5
5
5
5
5
5
5
5
5
5
5
5
5
5
5
5
5
5
5
5
5
5
5
5
5
5
5
5
5
5
5
5
5
5
5
5
5
5
5
5
5
5
5
5
5
5
5
5
5
5
5
5
5
5
5
5
5
5
5
5
5
5
5
5
5
5
5
5
5
5
5
5
5
5
5
5
5
5
5
5
5
5
5
5
5
5
5
5
5
5
5
5
5
5
5
5
5
5
5
5
5
5
5
5
5
5
5
5
5
5
5
5
5
5
5
5
5
5
5
5
5
5
5
5
5
5
5
5
5
5
5
5
5
5
5
5
5
5
5
5
5
5
5
5
5
5
5
5
5
5
5
5
5
5
5
5
5
5
5
5
5
5
5
5
5
5
5
5
5
5
5
5
5
5
5
5
5
5
5
5
5
5
5
5
5
5
5
5
5
5
5
5
5
5
5
5
5
5
5
5
5
5
5
5
5
5
5
5
5
5
5
5
5
5
5
5
5
5
5
5
5
5
5
5
5
5
5
5
5
5
5
5
5
5
5
5
5
5
5
5
5
5
5
5
5
5
5
5
5
5
5
5
5
5
5
5
5
5
5
5
5
5
5
5
5
5
5
5
5
5
5
5
5
5
5
5
5
5
5
5
5
5
5
5
5
5
5
5
5
5
5
5
5
5
5
5
5
5
5
5
5
5
5
5
5
5
5
5
5
5
5
5
5
5
5
5
5
5
5
5
5
5
5
5
5
5
5
5
5
5
5
5
5
5
5
5
5
5
5
5
5
5
5
5
5
5
5
5
5
5
5
5
5
5
5
5
5
5
5
5
5
5
5
5
5
5
5
5
5
5
5
5
5
5
5
5
5
5
5
5
5
5
5
5
5
5
5
5
5
5
5
5
5
5
5
5
5
5
5
5
5
5
5
5
5
POINT_DATA 320
SCALARS theta_e float 1
LOOKUP_TABLE default
0.993469
0.993471
0.993468
0.993465
0.993479
0.993466
0.993473
0.993468
0.993482
0.993493
0.993486
0.993476
0.993482
0.993481
0.993516
0.993502
0.993507
0.993504
0.993503
0.993502
0.993506
0.993519
0.993568
0.993632
0.993544
0.993534
0.993521
0.993526
0.993528
0.993531
0.993534
0.993525
0.993533
0.993526
0.993700
0.993765
0.993600
0.993662
0.993577
0.993561
0.993543
0.993546
0.993546
0.993551
0.993537
0.993552
0.993525
0.993536
0.993822
0.993865
0.993727
0.993789
0.993626
0.993682
0.993596
0.993573
0.993556
0.993553
0.993555
0.993563
0.993552
0.993558
0.993529
0.993535
0.993549
0.993544
0.993893
0.993906
0.993841
0.993879
0.993741
0.993800
0.993638
0.993688
0.993607
0.993588
0.993561
0.993565
0.993577
0.993558
0.993571
0.993542
0.993549
0.993557
0.993571
0.993558
0.993601
0.993911
0.993911
0.993902
0.993912
0.993851
0.993888
0.993744
0.993800
0.993650
0.993699
0.993606
0.993581
0.993578
0.993572
0.993572
0.993578
0.993594
0.993554
0.993580
0.993558
0.993583
0.993566
0.993610
0.993627
0.993641
0.993914
0.993912
0.993909
0.993916
0.993908
0.993852
0.993890
0.993748
0.993796
0.993639
0.993681
0.993631
0.993810
0.993587
0.993724
0.993606
0.993595
0.993613
0.993559
0.993578
0.993562
0.993586
0.993571
0.993606
0.993629
0.993643
0.993648
0.993918
0.993914
0.993918
0.993910
0.993845
0.993885
0.993741
0.993788
0.993639
0.993664
0.994003
0.993739
0.993899
0.993891
0.993592
0.993857
0.993625
0.993616
0.993563
0.993584
0.993565
0.993583
0.993612
0.993634
0.993644
0.993921
0.993919
0.993914
0.993894
0.993842
0.993777
0.993742
0.993731
0.993646
0.992961
0.993834
0.993434
0.993717
0.993839
0.993665
0.993623
0.993607
0.993572
0.993570
0.993591
0.993618
0.993634
0.993913
0.993918
0.993898
0.993863
0.993802
0.993743
0.993705
0.993628
0.993316
0.993633
0.994082
0.993290
0.993660
0.993655
0.993620
0.993590
0.993570
0.993577
0.993598
0.993616
0.993892
0.993905
0.993867
0.993819
0.993751
0.993710
0.993673
0.993648
0.993727
0.993759
0.993513
0.993667
0.993627
0.993603
0.993580
0.993572
0.993581
0.993594
0.993855
0.993878
0.993820
0.993766
0.993703
0.993668
0.993625
0.993571
0.993647
0.993615
0.993623
0.993607
0.993590
0.993573
0.993570
0.993576
0.993804
0.993834
0.993763
0.993710
0.993659
0.993634
0.993576
0.993547
0.993578
0.993611
0.993603
0.993592
0.993577
0.993567
0.993565
0.993746
0.993780
0.993705
0.993657
0.993619
0.993607
0.993605
0.993595
0.993589
0.993586
0.993579
0.993570
0.993564
0.993687
0.993720
0.993651
0.993613
0.993585
0.993576
0.993577
0.993572
0.993574
0.993577
0.993575
0.993569
0.993635
0.993664
0.993606
0.993579
0.993562
0.993557
0.993561
0.993571
0.993577
0.993575
0.993591
0.993614
0.993570
0.993555
0.993550
0.993550
0.993560
0.993571
0.993577
0.993554
0.993572
0.993543
0.993540
0.993545
0.993557
0.993568
0.993526
0.993538
0.993523
0.993529
0.993534
0.993548
0.993507
0.993512
0.993512
0.993521
0.993496
0.993497
0.993501
0.993492
VECTORS fa_u float
0.000000 0.000000 0.000000
0.000000 0.000000 0.000000
0.000000 0.000000 0.000000
0.000000 0.000000 0.000000
0.000000 0.000000 0.000000
0.000000 0.000000 0.000000
0.000000 0.000000 0.000000
0.000000 0.000000 0.000000
0.000000 0.000000 0.000000
0.000000 0.000000 0.000000
0.000000 0.000000 0.000000
0.000000 0.000000 0.000000
0.000000 0.000000 0.000000
0.000000 0.000000 0.000000
0.000000 0.000000 0.000000
0.000000 0.000000 0.000000
0.000000 0.000000 0.000000
0.000000 0.000000 0.000000
0.000000 0.000000 0.000000
0.000000 0.000000 0.000000
0.000000 0.000000 0.000000
0.000000 0.000000 0.000000
0.000000 0.000000 0.000000
0.000000 0.000000 0.000000
0.000000 0.000000 0.000000
0.000000 0.000000 0.000000
0.000000 0.000000 0.000000
0.000000 0.000000 0.000000
0.000000 0.000000 0.000000
0.000000 0.000000 0.000000
0.000000 0.000000 0.000000
0.000000 0.000000 0.000000
0.000000 0.000000 0.000000
0.000000 0.000000 0.000000
0.000000 0.000000 0.000000
0.000000 0.000000 0.000000
0.000000 0.000000 0.000000
0.000000 0.000000 0.000000
0.000000 0.000000 0.000000
0.000000 0.000000 0.000000
0.000000 0.000000 0.000000
0.000000 0.000000 0.000000
0.000000 0.000000 0.000000
0.000000 0.000000 0.000000
0.000000 0.000000 0.000000
0.000000 0.000000 0.000000
0.000000 0.000000 0.000000
0.000000 0.000000 0.000000
0.000000 0.000000 0.000000
0.000000 0.000000 0.000000
0.000000 0.000000 0.000000
0.000000 0.000000 0.000000
0.000000 0.000000 0.000000
0.000000 0.000000 0.000000
0.000000 0.000000 0.000000
0.000000 0.000000 0.000000
0.000000 0.000000 0.000000
0.000000 0.000000 0.000000
0.000000 0.000000 0.000000
0.000000 0.000000 0.000000
0.000000 0.000000 0.000000
0.000000 0.000000 0.000000
0.000000 0.000000 0.000000
0.000000 0.000000 0.000000
0.000000 0.000000 0.000000
0.000000 0.000000 0.000000
0.000000 0.000000 0.000000
0.000000 0.000000 0.000000
0.000000 0.000000 0.000000
0.000000 0.000000 0.000000
0.000000 0.000000 0.000000
0.000000 0.000000 0.000000
0.000000 0.000000 0.000000
0.000000 0.000000 0.000000
0.000000 0.000000 0.000000
0.000000 0.000000 0.000000
0.000000 0.000000 0.000000
0.000000 0.000000 0.000000
0.000000 0.000000 0.000000
0.000000 0.000000 0.000000
0.000000 0.000000 0.000000
0.000000 0.000000 0.000000
0.000000 0.000000 0.000000
0.000000 0.000000 0.000000
0.000000 0.000000 0.000000
0.000000 0.000000 0.000000
0.000000 0.000000 0.000000
0.000000 0.000000 0.000000
0.000000 0.000000 0.000000
0.000000 0.000000 0.000000
0.000000 0.000000 0.000000
0.000000 0.000000 0.000000
0.000000 0.000000 0.000000
0.000000 0.000000 0.000000
0.000000 0.000000 0.000000
0.000000 0.000000 0.000000
0.000000 0.000000 0.000000
0.000000 0.000000 0.000000
0.000000 0.000000 0.000000
0.000000 0.000000 0.000000
0.000000 0.000000 0.000000
0.000000 0.000000 0.000000
0.000000 0.000000 0.000000
0.000000 0.000000 0.000000
0.000000 0.000000 0.000000
0.000000 0.000000 0.000000
0.000000 0.000000 0.000000
0.000000 0.000000 0.000000
0.000000 0.000000 0.000000
0.000000 0.000000 0.000000
0.000000 0.000000 0.000000
0.000000 0.000000 0.000000
0.000000 0.000000 0.000000
0.000000 0.000000 0.000000
0.000000 0.000000 0.000000
0.000000 0.000000 0.000000
0.000000 0.000000 0.000000
0.000000 0.000000 0.000000
0.000000 0.000000 0.000000
0.000000 0.000000 0.000000
0.000000 0.000000 0.000000
0.000000 0.000000 0.000000
0.000000 0.000000 0.000000
0.000000 0.000000 0.000000
0.000000 0.000000 0.000000
0.000000 0.000000 0.000000
0.000000 0.000000 0.000000
0.000000 0.000000 0.000000
0.000000 0.000000 0.000000
0.000000 0.000000 0.000000
0.000000 0.000000 0.000000
0.000000 0.000000 0.000000
0.000000 0.000000 0.000000
0.000000 0.000000 0.000000
0.000000 0.000000 0.000000
0.000000 0.000000 0.000000
0.000000 0.000000 0.000000
0.000000 0.000000 0.000000
0.000000 0.000000 0.000000
0.000000 0.000000 0.000000
0.000000 0.000000 0.000000
0.000000 0.000000 0.000000
0.000000 0.000000 0.000000
0.000000 0.000000 0.000000
0.000000 0.000000 0.000000
0.000000 0.000000 0.000000
0.000000 0.000000 0.000000
0.000000 0.000000 0.000000
0.000000 0.000000 0.000000
0.000000 0.000000 0.000000
0.000000 0.000000 0.000000
0.000000 0.000000 0.000000
0.000000 0.000000 0.000000
0.000000 0.000000 0.000000
0.000000 0.000000 0.000000
0.000000 0.000000 0.000000
0.000000 0.000000 0.000000
0.000000 0.000000 0.000000
0.000000 0.000000 0.000000
0.000000 0.000000 0.000000
0.000000 0.000000 0.000000
0.000000 0.000000 0.000000
0.000000 0.000000 0.000000
0.000000 0.000000 0.000000
0.000000 0.000000 0.000000
0.000000 0.000000 0.000000
0.000000 0.000000 0.000000
0.000000 0.000000 0.000000
0.000000 0.000000 0.000000
0.000000 0.000000 0.000000
0.000000 0.000000 0.000000
0.000000 0.000000 0.000000
0.000000 0.000000 0.000000
0.000000 0.000000 0.000000
0.000000 0.000000 0.000000
0.000000 0.000000 0.000000
0.000000 0.000000 0.000000
0.000000 0.000000 0.000000
0.000000 0.000000 0.000000
0.000000 0.000000 0.000000
0.000000 0.000000 0.000000
0.000000 0.000000 0.000000
0.000000 0.000000 0.000000
0.000000 0.000000 0.000000
0.000000 0.000000 0.000000
0.000000 0.000000 0.000000
0.000000 0.000000 0.000000
0.000000 0.000000 0.000000
0.000000 0.000000 0.000000
0.000000 0.000000 0.000000
0.000000 0.000000 0.000000
0.000000 0.000000 0.000000
0.000000 0.000000 0.000000
0.000000 0.000000 0.000000
0.000000 0.000000 0.000000
0.000000 0.000000 0.000000
0.000000 0.000000 0.000000
0.000000 0.000000 0.000000
0.000000 0.000000 0.000000
0.000000 0.000000 0.000000
0.000000 0.000000 0.000000
0.000000 0.000000 0.000000
0.000000 0.000000 0.000000
0.000000 0.000000 0.000000
0.000000 0.000000 0.000000
0.000000 0.000000 0.000000
0.000000 0.000000 0.000000
0.000000 0.000000 0.000000
0.000000 0.000000 0.000000
0.000000 0.000000 0.000000
0.000000 0.000000 0.000000
0.000000 0.000000 0.000000
0.000000 0.000000 0.000000
0.000000 0.000000 0.000000
0.000000 0.000000 0.000000
0.000000 0.000000 0.000000
0.000000 0.000000 0.000000
0.000000 0.000000 0.000000
0.000000 0.000000 0.000000
0.000000 0.000000 0.000000
0.000000 0.000000 0.000000
0.000000 0.000000 0.000000
0.000000 0.000000 0.000000
0.000000 0.000000 0.000000
0.000000 0.000000 0.000000
0.000000 0.000000 0.000000
0.000000 0.000000 0.000000
0.000000 0.000000 0.000000
0.000000 0.000000 0.000000
0.000000 0.000000 0.000000
0.000000 0.000000 0.000000
0.000000 0.000000 0.000000
0.000000 0.000000 0.000000
0.000000 0.000000 0.000000
0.000000 0.000000 0.000000
0.000000 0.000000 0.000000
0.000000 0.000000 0.000000
0.000000 0.000000 0.000000
0.000000 0.000000 0.000000
0.000000 0.000000 0.000000
0.000000 0.000000 0.000000
0.000000 0.000000 0.000000
0.000000 0.000000 0.000000
0.000000 0.000000 0.000000
0.000000 0.000000 0.000000
0.000000 0.000000 0.000000
0.000000 0.000000 0.000000
0.000000 0.000000 0.000000
0.000000 0.000000 0.000000
0.000000 0.000000 0.000000
0.000000 0.000000 0.000000
0.000000 0.000000 0.000000
0.000000 0.000000 0.000000
0.000000 0.000000 0.000000
0.000000 0.000000 0.000000
0.000000 0.000000 0.000000
0.000000 0.000000 0.000000
0.000000 0.000000 0.000000
0.000000 0.000000 0.000000
0.000000 0.000000 0.000000
0.000000 0.000000 0.000000
0.000000 0.000000 0.000000
0.000000 0.000000 0.000000
0.000000 0.000000 0.000000
0.000000 0.000000 0.000000
0.000000 0.000000 0.000000
0.000000 0.000000 0.000000
0.000000 0.000000 0.000000
0.000000 0.000000 0.000000
0.000000 0.000000 0.000000
0.000000 0.000000 0.000000
0.000000 0.000000 0.000000
0.000000 0.000000 0.000000
0.000000 0.000000 0.000000
0.000000 0.000000 0.000000
0.000000 0.000000 0.000000
0.000000 0.000000 0.000000
0.000000 0.000000 0.000000
0.000000 0.000000 0.000000
0.000000 0.000000 0.000000
0.000000 0.000000 0.000000
0.000000 0.000000 0.000000
0.000000 0.000000 0.000000
0.000000 0.000000 0.000000
0.000000 0.000000 0.000000
0.000000 0.000000 0.000000
0.000000 0.000000 0.000000
0.000000 0.000000 0.000000
0.000000 0.000000 0.000000
0.000000 0.000000 0.000000
0.000000 0.000000 0.000000
0.000000 0.000000 0.000000
0.000000 0.000000 0.000000
0.000000 0.000000 0.000000
0.000000 0.000000 0.000000
0.000000 0.000000 0.000000
0.000000 0.000000 -50.000000
-50.000000 0.000000 -50.000000
-43.340839 0.000000 -45.689622
-45.525788 0.000000 -43.286137
-50.000000 0.000000 -50.000000
-36.680614 0.000000 -36.572529
-50.000000 0.000000 -45.081451
-40.034482 0.000000 -40.022294
-44.198099 0.000000 -29.859472
-50.000000 0.000000 -50.000000
-30.019765 0.000000 -44.846802
-33.552354 0.000000 -33.119939
-44.720555 0.000000 -39.857791
-36.873922 0.000000 -35.111397
-39.878462 0.000000 -23.147749
-50.000000 0.000000 -26.502487
-44.710376 0.000000 -50.000000
-23.360077 0.000000 -44.662875
-26.949742 0.000000 -39.349840
-30.355223 0.000000 -29.578946
-39.438888 0.000000 -33.343887
-33.771770 0.000000 -50.000000
-16.700139 0.000000 -16.444779
-50.000000 0.000000 -9.752437
