# vtk DataFile Version 2.0
CellBP Time: 3.28
ASCII
DATASET UNSTRUCTURED_GRID
POINTS 320 double
-50.000000 -50.000000 0.000000
-50.000000 -43.337206 0.000000
-45.691571 -45.523358 0.000000
-43.289101 -50.000000 0.000000
-50.000000 -36.673508 0.000000
-36.578296 -50.000000 0.000000
-45.083725 -40.029134 0.000000
-40.026772 -44.194971 0.000000
-29.867601 -50.000000 0.000000
-50.000000 -30.009606 0.000000
-44.849255 -33.543837 0.000000
-33.127148 -44.717751 0.000000
-39.862454 -36.867020 0.000000
-35.117974 -39.873135 0.000000
-23.157801 -50.000000 0.000000
-26.511927 -44.707595 0.000000
-50.000000 -23.347413 0.000000
-44.665494 -26.938454 0.000000
-39.354883 -30.345383 0.000000
-29.587554 -39.433371 0.000000
-33.351354 -33.763503 0.000000
-50.000000 -16.685560 0.000000
-16.456266 -50.000000 0.000000
-9.764892 -50.000000 0.000000
-19.930282 -44.626699 0.000000
-23.183513 -39.188621 0.000000
-44.690306 -20.269624 0.000000
-39.355294 -23.686704 0.000000
-34.080610 -27.084487 0.000000
-26.356011 -33.689228 0.000000
-29.121484 -29.068518 0.000000
-50.000000 -10.026399 0.000000
-44.661553 -13.621621 0.000000
-50.000000 -3.372236 0.000000
-3.082973 -50.000000 0.000000
3.586313 -50.000000 0.000000
-13.302116 -44.632854 0.000000
-6.636321 -44.642485 0.000000
-16.647876 -39.220584 0.000000
-20.061825 -33.453093 0.000000
-39.320418 -17.003605 0.000000
-33.991060 -20.464272 0.000000
-28.739164 -23.630264 0.000000
-23.457318 -27.511684 0.000000
-44.623849 -6.956812 0.000000
-39.261972 -10.347915 0.000000
-50.000000 3.284280 0.000000
-44.606916 -0.305411 0.000000
10.241180 -50.000000 0.000000
16.883280 -50.000000 0.000000
0.038202 -44.646192 0.000000
6.708850 -44.656345 0.000000
-9.985711 -39.287579 0.000000
-3.300724 -39.281784 0.000000
-13.420857 -33.900738 0.000000
-16.635904 -28.424404 0.000000
-33.900650 -13.759182 0.000000
-28.541778 -17.126437 0.000000
-23.221049 -20.531486 0.000000
-18.582082 -23.479693 0.000000
-39.219386 -3.692053 0.000000
-33.827850 -7.112319 0.000000
-50.000000 9.974404 0.000000
-44.589059 6.349363 0.000000
-39.195752 2.968838 0.000000
-50.000000 16.734637 0.000000
23.516448 -50.000000 0.000000
30.142799 -50.000000 0.000000
13.373749 -44.677271 0.000000
20.040986 -44.709331 0.000000
3.379245 -39.296965 0.000000
10.042715 -39.330544 0.000000
-6.656602 -33.888273 0.000000
0.050924 -33.915064 0.000000
-10.001809 -28.434025 0.000000
-13.025561 -23.091540 0.000000
-28.433831 -10.518079 0.000000
-22.957704 -13.944211 0.000000
-16.868477 -17.453379 0.000000
-33.769494 -0.473939 0.000000
-28.414403 -3.964394 0.000000
-44.552625 13.041499 0.000000
-39.132048 9.597759 0.000000
-33.732535 6.061153 0.000000
-50.000000 23.597651 0.000000
-44.598007 19.836377 0.000000
-50.000000 30.555301 0.000000
36.761970 -50.000000 0.000000
43.380958 -50.000000 0.000000
26.705769 -44.749033 0.000000
33.347301 -44.873473 0.000000
16.696494 -39.386798 0.000000
23.381204 -39.456630 0.000000
6.726002 -33.948939 0.000000
13.367982 -34.016630 0.000000
-3.244070 -28.483561 0.000000
3.457744 -28.554529 0.000000
-6.510383 -23.013176 0.000000
-9.847414 -17.536924 0.000000
-23.019381 -7.372094 0.000000
-17.643294 -10.640192 0.000000
-12.679298 -12.858127 0.000000
-28.374537 2.597581 0.000000
-23.023923 -0.920130 0.000000
-38.996981 16.288243 0.000000
-28.343289 9.292052 0.000000
-33.519440 12.465097 0.000000
-44.741609 26.605364 0.000000
-38.715187 23.645603 0.000000
-44.989866 33.405456 0.000000
-50.000000 37.501594 0.000000
-50.000000 43.861027 0.000000
39.939316 -45.067382 0.000000
45.474985 -45.656542 0.000000
50.000000 -50.000000 0.000000
36.652948 -39.988477 0.000000
30.050560 -39.470590 0.000000
19.968882 -34.127932 0.000000
26.635552 -34.344050 0.000000
10.082210 -28.592142 0.000000
16.690832 -28.714109 0.000000
0.176244 -23.097547 0.000000
6.926728 -23.267674 0.000000
-3.256510 -17.490848 0.000000
-6.688384 -11.315405 0.000000
-17.633590 -4.210842 0.000000
-12.317907 -7.354907 0.000000
-22.957092 5.517449 0.000000
-17.716156 1.998257 0.000000
-22.625667 11.457116 0.000000
-33.314823 18.493570 0.000000
-27.394470 16.105040 0.000000
-33.035384 23.831763 0.000000
-40.302447 30.535220 0.000000
-35.403524 28.956566 0.000000
-39.918089 35.504409 0.000000
-43.917382 40.172577 0.000000
-45.272351 45.767525 0.000000
-50.000000 50.000000 0.000000
44.122256 -39.899167 0.000000
50.000000 -43.382489 0.000000
39.655204 -35.057911 0.000000
33.497033 -33.442817 0.000000
23.049682 -28.860301 0.000000
28.781883 -29.277861 0.000000
13.558075 -23.200291 0.000000
20.136836 -23.498410 0.000000
3.536272 -17.729858 0.000000
10.248635 -17.937271 0.000000
0.311840 -12.238839 0.000000
-1.936992 -6.541031 0.000000
-7.158740 -4.021439 0.000000
-12.339168 -1.165700 0.000000
-17.724948 8.032706 0.000000
-12.611085 4.816951 0.000000
-17.997924 13.140772 0.000000
-20.752782 16.806184 0.000000
-28.019417 22.508646 0.000000
-23.338968 20.995908 0.000000
-29.732871 28.650286 0.000000
-34.150170 34.087052 0.000000
-36.860710 39.945165 0.000000
-39.628644 45.268129 0.000000
-43.401968 50.000000 0.000000
44.589189 -32.984821 0.000000
50.000000 -36.752013 0.000000
39.153365 -29.598973 0.000000
33.543283 -26.396629 0.000000
27.246320 -23.367437 0.000000
23.144599 -18.708243 0.000000
17.089051 -17.053777 0.000000
6.861703 -12.342948 0.000000
12.474525 -12.822993 0.000000
-3.114334 -1.747845 0.000000
4.142621 -7.226701 0.000000
1.264731 -2.316476 0.000000
-6.744746 2.047909 0.000000
-8.084570 7.541563 0.000000
-12.337102 11.552897 0.000000
-15.062517 17.313588 0.000000
-18.472099 22.721673 0.000000
-23.570608 27.206978 0.000000
-26.942502 33.603699 0.000000
-30.039881 39.311621 0.000000
-33.112628 44.836645 0.000000
-36.639832 50.000000 0.000000
44.557699 -26.518601 0.000000
50.000000 -30.124442 0.000000
39.069140 -23.206709 0.000000
33.501807 -19.935185 0.000000
28.112351 -16.629185 0.000000
22.779737 -13.193347 0.000000
17.299458 -10.000332 0.000000
11.111177 -6.760777 0.000000
-1.119438 2.110088 0.000000
6.457156 -1.866106 0.000000
3.154663 1.445545 0.000000
-3.247295 7.003417 0.000000
-5.897180 12.196291 0.000000
-9.112621 17.438646 0.000000
-12.561854 22.888203 0.000000
-16.784965 28.031508 0.000000
-20.173712 33.354704 0.000000
-23.300957 38.988831 0.000000
-26.441996 44.609202 0.000000
-29.892791 50.000000 0.000000
44.542633 -19.953225 0.000000
50.000000 -23.490443 0.000000
39.074806 -16.627145 0.000000
33.641691 -13.325156 0.000000
28.242274 -10.030707 0.000000
22.846387 -6.686049 0.000000
17.419904 -3.438720 0.000000
12.254800 0.072404 0.000000
2.210588 6.127835 0.000000
7.338750 3.731286 0.000000
0.153853 11.796886 0.000000
-2.847366 17.327592 0.000000
-6.238038 22.813932 0.000000
-10.122934 28.131225 0.000000
-13.335806 33.544723 0.000000
-16.599435 38.993299 0.000000
-19.786361 44.499950 0.000000
-23.191604 50.000000 0.000000
44.556007 -13.327197 0.000000
50.000000 -16.847926 0.000000
39.127678 -10.001708 0.000000
33.722343 -6.689077 0.000000
28.343148 -3.373893 0.000000
22.991579 -0.064143 0.000000
17.733238 3.267809 0.000000
12.480182 6.477986 0.000000
7.044600 10.713859 0.000000
3.647273 17.040430 0.000000
0.288021 22.718223 0.000000
-3.151478 28.210522 0.000000
-6.491684 33.690365 0.000000
-9.828950 39.108765 0.000000
-13.126119 44.529759 0.000000
-16.562617 50.000000 0.000000
44.579552 -6.676741 0.000000
50.000000 -10.193898 0.000000
39.177943 -3.355951 0.000000
33.799659 -0.037910 0.000000
28.457073 3.283017 0.000000
23.171413 6.621358 0.000000
18.047667 9.945016 0.000000
12.910097 12.117816 0.000000
10.065806 17.130193 0.000000
6.769584 22.630322 0.000000
3.485820 28.195434 0.000000
0.172726 33.680370 0.000000
-3.155872 39.128500 0.000000
-6.455421 44.560625 0.000000
-9.924120 50.000000 0.000000
44.604954 -0.017094 0.000000
50.000000 -3.527883 0.000000
39.227512 3.301322 0.000000
33.874925 6.615931 0.000000
28.559729 9.945855 0.000000
23.221481 13.359104 0.000000
17.162433 16.957546 0.000000
13.135445 22.608383 0.000000
10.053536 28.182073 0.000000
6.841979 33.682220 0.000000
3.517254 39.140010 0.000000
0.203976 44.573019 0.000000
-3.275923 50.000000 0.000000
44.619150 6.651238 0.000000
50.000000 3.149308 0.000000
39.262129 9.958902 0.000000
33.941356 13.249056 0.000000
28.673707 16.550473 0.000000
23.546770 20.046240 0.000000
18.720840 23.071103 0.000000
16.582123 28.265021 0.000000
13.521291 33.732301 0.000000
10.179213 39.169447 0.000000
6.866363 44.580912 0.000000
3.377258 50.000000 0.000000
44.642744 13.308759 0.000000
50.000000 9.836123 0.000000
39.314411 16.597697 0.000000
34.024150 19.846523 0.000000
28.732263 22.906394 0.000000
23.425043 27.187003 0.000000
20.055667 33.290483 0.000000
16.733084 39.033846 0.000000
13.438679 44.525849 0.000000
10.035233 50.000000 0.000000
44.665506 19.967867 0.000000
50.000000 16.528992 0.000000
39.358507 23.253016 0.000000
34.130350 26.506864 0.000000
29.079368 28.527777 0.000000
26.323626 33.399014 0.000000
23.195618 38.963139 0.000000
20.028039 44.506849 0.000000
16.692989 50.000000 0.000000
44.672819 26.640453 0.000000
50.000000 23.223911 0.000000
39.351647 29.961999 0.000000
33.299860 33.369041 0.000000
29.511066 39.042482 0.000000
26.531072 44.506948 0.000000
23.351279 50.000000 0.000000
44.806286 33.290914 0.000000
50.000000 29.919156 0.000000
39.790429 36.596963 0.000000
34.904323 39.527786 0.000000
32.912569 44.515269 0.000000
30.011718 50.000000 0.000000
45.007069 39.879537 0.000000
50.000000 36.613938 0.000000
39.787252 43.971672 0.000000
36.671690 50.000000 0.000000
45.645782 45.413034 0.000000
50.000000 43.307240 0.000000
43.332469 50.000000 0.000000
50.000000 50.000000 0.000000
CELLS 578 2312
3 1 0 2
3 0 3 2
3 4 1 6
3 6 1 2
3 3 5 7
3 3 7 2
3 6 2 7
3 9 4 10
3 10 4 6
3 5 8 11
3 7 5 11
3 10 6 12
3 12 6 7
3 7 11 13
3 7 13 12
3 8 14 15
3 11 8 15
3 16 9 17
3 17 9 10
3 17 10 18
3 18 10 12
3 11 15 19
3 13 11 19
3 18 12 20
3 13 19 20
3 20 12 13
3 14 22 24
3 15 14 24
3 15 24 25
3 19 15 25
3 21 16 26
3 26 16 17
3 26 17 27
3 27 17 18
3 27 18 28
3 28 18 20
3 19 25 29
3 19 29 20
3 28 20 30
3 30 20 29
3 31 21 32
3 32 21 26
3 22 23 36
3 24 22 36
3 23 34 37
3 36 23 37
3 24 36 38
3 25 24 38
3 25 38 39
3 29 25 39
3 32 26 40
3 40 26 27
3 40 27 41
3 41 27 28
3 41 28 42
3 42 28 30
3 29 39 43
3 29 43 30
3 42 30 43
3 33 31 44
3 44 31 32
3 44 32 45
3 45 32 40
3 46 33 47
3 47 33 44
3 34 35 50
3 37 34 50
3 35 48 51
3 50 35 51
3 36 37 52
3 38 36 52
3 37 50 53
3 52 37 53
3 38 52 54
3 39 38 54
3 39 54 55
3 43 39 55
3 45 40 56
3 56 40 41
3 56 41 57
3 57 41 42
3 57 42 58
3 58 42 43
3 43 55 59
3 43 59 58
3 47 44 60
3 60 44 45
3 60 45 61
3 61 45 56
3 62 46 63
3 63 46 47
3 63 47 64
3 64 47 60
3 48 49 68
3 51 48 68
3 49 66 69
3 68 49 69
3 50 51 70
3 53 50 70
3 51 68 71
3 70 51 71
3 52 53 72
3 54 52 72
3 53 70 73
3 72 53 73
3 54 72 74
3 55 54 74
3 55 74 75
3 59 55 75
3 61 56 76
3 76 56 57
3 76 57 77
3 77 57 58
3 77 58 78
3 59 75 78
3 78 58 59
3 64 60 79
3 79 60 61
3 79 61 80
3 80 61 76
3 65 62 81
3 81 62 63
3 81 63 82
3 82 63 64
3 82 64 83
3 83 64 79
3 84 65 85
3 85 65 81
3 66 67 89
3 69 66 89
3 67 87 90
3 89 67 90
3 68 69 91
3 71 68 91
3 69 89 92
3 91 69 92
3 70 71 93
3 73 70 93
3 71 91 94
3 93 71 94
3 72 73 95
3 74 72 95
3 73 93 96
3 95 73 96
3 74 95 97
3 75 74 97
3 75 97 98
3 78 75 98
3 80 76 99
3 99 76 77
3 99 77 100
3 100 77 78
3 100 78 101
3 98 101 78
3 83 79 102
3 102 79 80
3 102 80 103
3 103 80 99
3 85 81 104
3 104 81 82
3 105 83 102
3 104 82 106
3 106 82 83
3 106 83 105
3 86 84 107
3 107 84 85
3 107 85 108
3 108 85 104
3 109 86 107
3 110 86 109
3 87 88 112
3 90 87 112
3 112 88 113
3 88 114 113
3 90 112 115
3 89 90 116
3 92 89 116
3 116 90 115
3 91 92 117
3 94 91 117
3 92 116 118
3 117 92 118
3 93 94 119
3 96 93 119
3 94 117 120
3 119 94 120
3 95 96 121
3 97 95 121
3 96 119 122
3 121 96 122
3 97 121 123
3 98 97 123
3 98 123 124
3 98 124 101
3 103 99 125
3 125 99 100
3 125 100 126
3 126 100 101
3 126 101 124
3 105 102 127
3 127 102 103
3 127 103 128
3 128 103 125
3 129 105 127
3 108 104 130
3 130 104 106
3 130 106 131
3 131 106 105
3 131 105 129
3 108 130 132
3 109 107 133
3 133 107 108
3 133 108 134
3 108 132 134
3 135 109 133
3 111 110 136
3 136 110 109
3 136 109 135
3 137 111 136
3 138 111 137
3 112 113 139
3 115 112 139
3 114 140 113
3 140 139 113
3 139 141 115
3 116 115 142
3 118 116 142
3 142 115 141
3 117 118 143
3 120 117 143
3 118 142 144
3 143 118 144
3 119 120 145
3 122 119 145
3 120 143 146
3 145 120 146
3 121 122 147
3 123 121 147
3 122 145 148
3 147 122 148
3 123 147 149
3 124 123 149
3 124 149 150
3 151 126 124
3 124 150 151
3 128 125 152
3 152 125 126
3 152 126 151
3 129 127 153
3 153 127 128
3 128 152 154
3 153 128 154
3 155 129 153
3 131 129 156
3 156 129 155
3 132 130 157
3 130 131 157
3 157 131 158
3 131 156 158
3 132 157 159
3 132 159 134
3 135 133 160
3 160 133 134
3 160 134 159
3 136 135 161
3 135 160 161
3 162 137 136
3 161 162 136
3 163 138 137
3 162 163 137
3 139 164 141
3 140 165 139
3 139 165 164
3 141 164 166
3 141 166 142
3 166 167 142
3 144 142 167
3 167 168 144
3 143 144 168
3 146 143 168
3 168 169 146
3 145 146 170
3 148 145 170
3 170 146 169
3 147 148 171
3 149 147 171
3 148 170 172
3 171 148 172
3 173 151 150
3 149 171 174
3 150 149 174
3 150 174 175
3 150 175 173
3 154 152 176
3 152 151 176
3 176 151 173
3 154 176 177
3 155 153 178
3 177 178 154
3 154 178 153
3 156 155 179
3 155 178 179
3 180 158 156
3 179 180 156
3 181 159 157
3 180 181 158
3 181 157 158
3 182 160 159
3 181 182 159
3 183 161 160
3 182 183 160
3 184 162 161
3 184 161 183
3 185 163 162
3 184 185 162
3 164 186 166
3 165 187 164
3 164 187 186
3 166 186 188
3 166 188 167
3 167 188 189
3 167 189 168
3 168 189 190
3 168 190 169
3 169 190 191
3 169 191 170
3 192 172 170
3 170 191 192
3 192 193 172
3 171 172 193
3 174 171 193
3 194 173 175
3 176 173 194
3 175 174 195
3 193 195 174
3 195 196 175
3 175 196 194
3 197 177 176
3 194 197 176
3 198 178 177
3 197 198 177
3 199 179 178
3 198 199 178
3 200 180 179
3 199 200 179
3 201 181 180
3 200 201 180
3 202 182 181
3 201 202 181
3 203 183 182
3 202 203 182
3 204 184 183
3 203 204 183
3 205 185 184
3 204 205 184
3 186 206 188
3 187 207 186
3 186 207 206
3 188 206 208
3 188 208 189
3 189 208 209
3 189 209 190
3 190 209 210
3 190 210 191
3 191 210 211
3 191 211 192
3 192 211 212
3 192 212 193
3 193 212 213
3 193 213 195
3 214 197 194
3 214 194 196
3 195 213 215
3 195 215 196
3 196 215 214
3 216 198 197
3 214 216 197
3 217 199 198
3 216 217 198
3 218 200 199
3 217 218 199
3 219 201 200
3 218 219 200
3 220 202 201
3 219 220 201
3 221 203 202
3 220 221 202
3 222 204 203
3 221 222 203
3 223 205 204
3 222 223 204
3 206 224 208
3 207 225 206
3 206 225 224
3 208 224 226
3 208 226 209
3 209 226 227
3 209 227 210
3 210 227 228
3 210 228 211
3 211 228 229
3 211 229 212
3 212 229 230
3 212 230 213
3 213 230 231
3 213 231 215
3 232 216 214
3 215 231 232
3 232 214 215
3 233 217 216
3 232 233 216
3 234 218 217
3 233 234 217
3 235 219 218
3 234 235 218
3 236 220 219
3 235 236 219
3 237 221 220
3 236 237 220
3 238 222 221
3 237 238 221
3 239 223 222
3 238 239 222
3 224 240 226
3 225 241 224
3 224 241 240
3 226 240 242
3 226 242 227
3 227 242 243
3 227 243 228
3 228 243 244
3 228 244 229
3 244 245 229
3 229 245 230
3 230 245 246
3 230 246 231
3 231 246 247
3 231 247 232
3 248 233 232
3 248 232 247
3 249 234 233
3 248 249 233
3 250 235 234
3 249 250 234
3 251 236 235
3 250 251 235
3 252 237 236
3 251 252 236
3 253 238 237
3 252 253 237
3 254 239 238
3 253 254 238
3 240 255 242
3 241 256 240
3 240 256 255
3 242 255 257
3 242 257 243
3 243 257 258
3 243 258 244
3 244 258 259
3 244 259 245
3 245 259 260
3 245 260 246
3 246 260 261
3 246 261 247
3 248 247 261
3 262 249 248
3 261 262 248
3 263 250 249
3 262 263 249
3 264 251 250
3 263 264 250
3 265 252 251
3 264 265 251
3 266 253 252
3 265 266 252
3 267 254 253
3 266 267 253
3 255 268 257
3 256 269 255
3 255 269 268
3 257 268 270
3 257 270 258
3 258 270 271
3 258 271 259
3 259 271 272
3 259 272 260
3 260 272 273
3 260 273 261
3 274 262 261
3 261 273 274
3 275 263 262
3 274 275 262
3 276 264 263
3 275 276 263
3 277 265 264
3 276 277 264
3 278 266 265
3 277 278 265
3 279 267 266
3 278 279 266
3 268 280 270
3 269 281 268
3 268 281 280
3 270 280 282
3 270 282 271
3 271 282 283
3 271 283 272
3 283 284 272
3 272 284 273
3 285 275 274
3 273 284 285
3 285 274 273
3 286 276 275
3 285 286 275
3 287 277 276
3 286 287 276
3 288 278 277
3 287 288 277
3 289 279 278
3 288 289 278
3 280 290 282
3 281 291 280
3 280 291 290
3 282 290 292
3 282 292 283
3 283 292 293
3 283 293 284
3 284 293 294
3 284 294 285
3 295 286 285
3 295 285 294
3 296 287 286
3 295 296 286
3 297 288 287
3 296 297 287
3 298 289 288
3 297 298 288
3 290 299 292
3 291 300 290
3 290 300 299
3 292 299 301
3 292 301 293
3 293 301 302
3 293 302 294
3 294 302 295
3 303 296 295
3 303 295 302
3 304 297 296
3 303 304 296
3 305 298 297
3 304 305 297
3 299 306 301
3 300 307 299
3 299 307 306
3 301 306 308
3 301 308 302
3 309 303 302
3 302 308 309
3 310 304 303
3 309 310 303
3 311 305 304
3 310 311 304
3 306 312 308
3 307 313 306
3 306 313 312
3 314 310 309
3 308 312 314
3 314 309 308
3 315 311 310
3 314 315 310
3 312 316 314
3 313 317 312
3 312 317 316
3 318 315 314
3 318 314 316
3 317 319 316
3 319 318 316
CELL_TYPES 578
5
5
5
5
5
5
5
5
5
5
5
5
5
5
5
5
5
5
5
5
5
5
5
5
5
5
5
5
5
5
5
5
5
5
5
5
5
5
5
5
5
5
5
5
5
5
5
5
5
5
5
5
5
5
5
5
5
5
5
5
5
5
5
5
5
5
5
5
5
5
5
5
5
5
5
5
5
5
5
5
5
5
5
5
5
5
5
5
5
5
5
5
5
5
5
5
5
5
5
5
5
5
5
5
5
5
5
5
5
5
5
5
5
5
5
5
5
5
5
5
5
5
5
5
5
5
5
5
5
5
5
5
5
5
5
5
5
5
5
5
5
5
5
5
5
5
5
5
5
5
5
5
5
5
5
5
5
5
5
5
5
5
5
5
5
5
5
5
5
5
5
5
5
5
5
5
5
5
5
5
5
5
5
5
5
5
5
5
5
5
5
5
5
5
5
5
5
5
5
5
5
5
5
5
5
5
5
5
5
5
5
5
5
5
5
5
5
5
5
5
5
5
5
5
5
5
5
5
5
5
5
5
5
5
5
5
5
5
5
5
5
5
5
5
5
5
5
5
5
5
5
5
5
5
5
5
5
5
5
5
5
5
5
5
5
5
5
5
5
5
5
5
5
5
5
5
5
5
5
5
5
5
5
5
5
5
5
5
5
5
5
5
5
5
5
5
5
5
5
5
5
5
5
5
5
5
5
5
5
5
5
5
5
5
5
5
5
5
5
5
5
5
5
5
5
5
5
5
5
5
5
5
5
5
5
5
5
5
5
5
5
5
5
5
5
5
5
5
5
5
5
5
5
5
5
5
5
5
5
5
5
5
5
5
5
5
5
5
5
5
5
5
5
5
5
5
5
5
5
5
5
5
5
5
5
5
5
5
5
5
5
5
5
5
5
5
5
5
5
5
5
5
5
5
5
5
5
5
5
5
5
5
5
5
5
5
5
5
5
5
5
5
5
5
5
5
5
5
5
5
5
5
5
5
5
5
5
5
5
5
5
5
5
5
5
5
5
5
5
5
5
5
5
5
5
5
5
5
5
5
5
5
5
5
5
5
5
5
5
5
5
5
5
5
5
5
5
5
5
5
5
5
5
5
5
5
5
5
5
5
5
5
5
5
5
5
5
5
5
5
5
5
5
5
5
5
5
5
5
5
5
5
5
5
5
5
5
5
5
5
5
5
5
5
5
5
5
5
5
5
5
5
5
5
5
5
5
5
5
5
5
5
5
5
5
5
5
5
5
5
5
5
5
5
5
5
5
5
5
5
5
5
5
5
5
5
5
5
5
5
5
5
5
5
5
5
5
5
POINT_DATA 320
SCALARS theta_e float 1
LOOKUP_TABLE default
0.993570
0.993549
0.993568
0.993586
0.993504
0.993625
0.993539
0.993588
0.993696
0.993438
0.993484
0.993652
0.993545
0.993603
0.993786
0.993734
0.993359
0.993414
0.993489
0.993671
0.993583
0.993273
0.993890
0.994004
0.993833
0.993767
0.993333
0.993415
0.993507
0.993682
0.993598
0.993181
0.993245
0.993084
0.994121
0.994240
0.993944
0.994060
0.993874
0.993782
0.993331
0.993427
0.993531
0.993662
0.993149
0.993232
0.992982
0.993046
0.994357
0.994472
0.994178
0.994297
0.993987
0.994102
0.993894
0.993784
0.993325
0.993429
0.993550
0.993668
0.993125
0.993213
0.992877
0.992940
0.993015
0.992771
0.994581
0.994681
0.994414
0.994526
0.994221
0.994342
0.994006
0.994122
0.993895
0.993765
0.993316
0.993450
0.993609
0.993101
0.993206
0.992834
0.992908
0.992995
0.992667
0.992729
0.992568
0.994764
0.994819
0.994629
0.994718
0.994459
0.994566
0.994242
0.994363
0.994011
0.994130
0.993892
0.993753
0.993337
0.993478
0.993621
0.993103
0.993228
0.992804
0.993005
0.992896
0.992628
0.992705
0.992532
0.992481
0.992427
0.994786
0.994826
0.994839
0.994732
0.994658
0.994480
0.994581
0.994247
0.994361
0.994020
0.994136
0.993874
0.993720
0.993359
0.993519
0.993124
0.993252
0.993032
0.992805
0.992914
0.992731
0.992607
0.992665
0.992536
0.992469
0.992421
0.992404
0.994782
0.994819
0.994722
0.994654
0.994474
0.994565
0.994239
0.994348
0.994002
0.994115
0.993844
0.993723
0.993582
0.993406
0.993154
0.993252
0.993084
0.992979
0.992808
0.992888
0.992715
0.992615
0.992530
0.992470
0.992431
0.994725
0.994771
0.994656
0.994581
0.994464
0.994331
0.994216
0.994004
0.994095
0.993814
0.993871
0.993779
0.993484
0.993308
0.993194
0.993066
0.992941
0.992814
0.992705
0.992618
0.992549
0.992498
0.994644
0.994696
0.994578
0.994494
0.994379
0.994242
0.994118
0.994018
0.993668
0.993836
0.993631
0.993467
0.993326
0.993186
0.993041
0.992910
0.992806
0.992719
0.992648
0.992591
0.994553
0.994607
0.994487
0.994397
0.994279
0.994149
0.994014
0.993873
0.993560
0.993737
0.993458
0.993303
0.993169
0.993026
0.992916
0.992827
0.992756
0.992697
0.994456
0.994511
0.994388
0.994292
0.994179
0.994056
0.993919
0.993781
0.993605
0.993446
0.993306
0.993152
0.993036
0.992941
0.992867
0.992807
0.994354
0.994410
0.994284
0.994186
0.994076
0.993961
0.993830
0.993710
0.993582
0.993437
0.993285
0.993161
0.993059
0.992981
0.992919
0.994249
0.994306
0.994177
0.994080
0.993972
0.993851
0.993714
0.993554
0.993412
0.993284
0.993177
0.993095
0.993032
0.994143
0.994200
0.994071
0.993978
0.993872
0.993753
0.993643
0.993525
0.993401
0.993293
0.993211
0.993146
0.994038
0.994095
0.993967
0.993879
0.993775
0.993642
0.993513
0.993407
0.993325
0.993261
0.993939
0.993994
0.993871
0.993788
0.993701
0.993607
0.993511
0.993434
0.993373
0.993853
0.993902
0.993786
0.993698
0.993602
0.993532
0.993477
0.993784
0.993825
0.993726
0.993668
0.993616
0.993569
0.993735
0.993766
0.993685
0.993646
0.993712
0.993730
0.993692
0.993712
VECTORS fa_u float
0.000000 0.000000 0.000000
0.000000 0.000000 0.000000
0.000000 0.000000 0.000000
0.000000 0.000000 0.000000
0.000000 0.000000 0.000000
0.000000 0.000000 0.000000
0.000000 0.000000 0.000000
0.000000 0.000000 0.000000
0.000000 0.000000 0.000000
0.000000 0.000000 0.000000
0.000000 0.000000 0.000000
0.000000 0.000000 0.000000
0.000000 0.000000 0.000000
0.000000 0.000000 0.000000
0.000000 0.000000 0.000000
0.000000 0.000000 0.000000
0.000000 0.000000 0.000000
0.000000 0.000000 0.000000
0.000000 0.000000 0.000000
0.000000 0.000000 0.000000
0.000000 0.000000 0.000000
0.000000 0.000000 0.000000
0.000000 0.000000 0.000000
0.000000 0.000000 0.000000
0.000000 0.000000 0.000000
0.000000 0.000000 0.000000
0.000000 0.000000 0.000000
0.000000 0.000000 0.000000
0.000000 0.000000 0.000000
0.000000 0.000000 0.000000
0.000000 0.000000 0.000000
0.000000 0.000000 0.000000
0.000000 0.000000 0.000000
0.000000 0.000000 0.000000
0.000000 0.000000 0.000000
0.000000 0.000000 0.000000
0.000000 0.000000 0.000000
0.000000 0.000000 0.000000
0.000000 0.000000 0.000000
0.000000 0.000000 0.000000
0.000000 0.000000 0.000000
0.000000 0.000000 0.000000
0.000000 0.000000 0.000000
0.000000 0.000000 0.000000
0.000000 0.000000 0.000000
0.000000 0.000000 0.000000
0.000000 0.000000 0.000000
0.000000 0.000000 0.000000
0.000000 0.000000 0.000000
0.000000 0.000000 0.000000
0.000000 0.000000 0.000000
0.000000 0.000000 0.000000
0.000000 0.000000 0.000000
0.000000 0.000000 0.000000
0.000000 0.000000 0.000000
0.000000 0.000000 0.000000
0.000000 0.000000 0.000000
0.000000 0.000000 0.000000
0.000000 0.000000 0.000000
0.000000 0.000000 0.000000
0.000000 0.000000 0.000000
0.000000 0.000000 0.000000
0.000000 0.000000 0.000000
0.000000 0.000000 0.000000
0.000000 0.000000 0.000000
0.000000 0.000000 0.000000
0.000000 0.000000 0.000000
0.000000 0.000000 0.000000
0.000000 0.000000 0.000000
0.000000 0.000000 0.000000
0.000000 0.000000 0.000000
0.000000 0.000000 0.000000
0.000000 0.000000 0.000000
0.000000 0.000000 0.000000
0.000000 0.000000 0.000000
0.000000 0.000000 0.000000
0.000000 0.000000 0.000000
0.000000 0.000000 0.000000
0.000000 0.000000 0.000000
0.000000 0.000000 0.000000
0.000000 0.000000 0.000000
0.000000 0.000000 0.000000
0.000000 0.000000 0.000000
0.000000 0.000000 0.000000
0.000000 0.000000 0.000000
0.000000 0.000000 0.000000
0.000000 0.000000 0.000000
0.000000 0.000000 0.000000
0.000000 0.000000 0.000000
0.000000 0.000000 0.000000
0.000000 0.000000 0.000000
0.000000 0.000000 0.000000
0.000000 0.000000 0.000000
0.000000 0.000000 0.000000
0.000000 0.000000 0.000000
0.000000 0.000000 0.000000
0.000000 0.000000 0.000000
0.000000 0.000000 0.000000
0.000000 0.000000 0.000000
0.000000 0.000000 0.000000
0.000000 0.000000 0.000000
0.000000 0.000000 0.000000
0.000000 0.000000 0.000000
0.000000 0.000000 0.000000
0.000000 0.000000 0.000000
0.000000 0.000000 0.000000
0.000000 0.000000 0.000000
0.000000 0.000000 0.000000
0.000000 0.000000 0.000000
0.000000 0.000000 0.000000
0.000000 0.000000 0.000000
0.000000 0.000000 0.000000
0.000000 0.000000 0.000000
0.000000 0.000000 0.000000
0.000000 0.000000 0.000000
0.000000 0.000000 0.000000
0.000000 0.000000 0.000000
0.000000 0.000000 0.000000
0.000000 0.000000 0.000000
0.000000 0.000000 0.000000
0.000000 0.000000 0.000000
0.000000 0.000000 0.000000
0.000000 0.000000 0.000000
0.000000 0.000000 0.000000
0.000000 0.000000 0.000000
0.000000 0.000000 0.000000
0.000000 0.000000 0.000000
0.000000 0.000000 0.000000
0.000000 0.000000 0.000000
0.000000 0.000000 0.000000
0.000000 0.000000 0.000000
0.000000 0.000000 0.000000
0.000000 0.000000 0.000000
0.000000 0.000000 0.000000
0.000000 0.000000 0.000000
0.000000 0.000000 0.000000
0.000000 0.000000 0.000000
0.000000 0.000000 0.000000
0.000000 0.000000 0.000000
0.000000 0.000000 0.000000
0.000000 0.000000 0.000000
0.000000 0.000000 0.000000
0.000000 0.000000 0.000000
0.000000 0.000000 0.000000
0.000000 0.000000 0.000000
0.000000 0.000000 0.000000
0.000000 0.000000 0.000000
0.000000 0.000000 0.000000
0.000000 0.000000 0.000000
0.000000 0.000000 0.000000
0.000000 0.000000 0.000000
0.000000 0.000000 0.000000
0.000000 0.000000 0.000000
0.000000 0.000000 0.000000
0.000000 0.000000 0.000000
0.000000 0.000000 0.000000
0.000000 0.000000 0.000000
0.000000 0.000000 0.000000
0.000000 0.000000 0.000000
0.000000 0.000000 0.000000
0.000000 0.000000 0.000000
0.000000 0.000000 0.000000
0.000000 0.000000 0.000000
0.000000 0.000000 0.000000
0.000000 0.000000 0.000000
0.000000 0.000000 0.000000
0.000000 0.000000 0.000000
0.000000 0.000000 0.000000
0.000000 0.000000 0.000000
0.000000 0.000000 0.000000
0.000000 0.000000 0.000000
0.000000 0.000000 0.000000
0.000000 0.000000 0.000000
0.000000 0.000000 0.000000
0.000000 0.000000 0.000000
0.000000 0.000000 0.000000
0.000000 0.000000 0.000000
0.000000 0.000000 0.000000
0.000000 0.000000 0.000000
0.000000 0.000000 0.000000
0.000000 0.000000 0.000000
0.000000 0.000000 0.000000
0.000000 0.000000 0.000000
0.000000 0.000000 0.000000
0.000000 0.000000 0.000000
0.000000 0.000000 0.000000
0.000000 0.000000 0.000000
0.000000 0.000000 0.000000
0.000000 0.000000 0.000000
0.000000 0.000000 0.000000
0.000000 0.000000 0.000000
0.000000 0.000000 0.000000
0.000000 0.000000 0.000000
0.000000 0.000000 0.000000
0.000000 0.000000 0.000000
0.000000 0.000000 0.000000
0.000000 0.000000 0.000000
0.000000 0.000000 0.000000
0.000000 0.000000 0.000000
0.000000 0.000000 0.000000
0.000000 0.000000 0.000000
0.000000 0.000000 0.000000
0.000000 0.000000 0.000000
0.000000 0.000000 0.000000
0.000000 0.000000 0.000000
0.000000 0.000000 0.000000
0.000000 0.000000 0.000000
0.000000 0.000000 0.000000
0.000000 0.000000 0.000000
0.000000 0.000000 0.000000
0.000000 0.000000 0.000000
0.000000 0.000000 0.000000
0.000000 0.000000 0.000000
0.000000 0.000000 0.000000
0.000000 0.000000 0.000000
0.000000 0.000000 0.000000
0.000000 0.000000 0.000000
0.000000 0.000000 0.000000
0.000000 0.000000 0.000000
0.000000 0.000000 0.000000
0.000000 0.000000 0.000000
0.000000 0.000000 0.000000
0.000000 0.000000 0.000000
0.000000 0.000000 0.000000
0.000000 0.000000 0.000000
0.000000 0.000000 0.000000
0.000000 0.000000 0.000000
0.000000 0.000000 0.000000
0.000000 0.000000 0.000000
0.000000 0.000000 0.000000
0.000000 0.000000 0.000000
0.000000 0.000000 0.000000
0.000000 0.000000 0.000000
0.000000 0.000000 0.000000
0.000000 0.000000 0.000000
0.000000 0.000000 0.000000
0.000000 0.000000 0.000000
0.000000 0.000000 0.000000
0.000000 0.000000 0.000000
0.000000 0.000000 0.000000
0.000000 0.000000 0.000000
0.000000 0.000000 0.000000
0.000000 0.000000 0.000000
0.000000 0.000000 0.000000
0.000000 0.000000 0.000000
0.000000 0.000000 0.000000
0.000000 0.000000 0.000000
0.000000 0.000000 0.000000
0.000000 0.000000 0.000000
0.000000 0.000000 0.000000
0.000000 0.000000 0.000000
0.000000 0.000000 0.000000
0.000000 0.000000 0.000000
0.000000 0.000000 0.000000
0.000000 0.000000 0.000000
0.000000 0.000000 0.000000
0.000000 0.000000 0.000000
0.000000 0.000000 0.000000
0.000000 0.000000 0.000000
0.000000 0.000000 0.000000
0.000000 0.000000 0.000000
0.000000 0.000000 0.000000
0.000000 0.000000 0.000000
0.000000 0.000000 0.000000
0.000000 0.000000 0.000000
0.000000 0.000000 0.000000
0.000000 0.000000 0.000000
0.000000 0.000000 0.000000
0.000000 0.000000 0.000000
0.000000 0.000000 0.000000
0.000000 0.000000 0.000000
0.000000 0.000000 0.000000
0.000000 0.000000 0.000000
0.000000 0.000000 0.000000
0.000000 0.000000 0.000000
0.000000 0.000000 0.000000
0.000000 0.000000 0.000000
0.000000 0.000000 0.000000
0.000000 0.000000 0.000000
0.000000 0.000000 0.000000
0.000000 0.000000 0.000000
0.000000 0.000000 0.000000
0.000000 0.000000 0.000000
0.000000 0.000000 0.000000
0.000000 0.000000 0.000000
0.000000 0.000000 0.000000
0.000000 0.000000 0.000000
0.000000 0.000000 0.000000
0.000000 0.000000 0.000000
0.000000 0.000000 0.000000
0.000000 0.000000 0.000000
0.000000 0.000000 0.000000
0.000000 0.000000 0.000000
0.000000 0.000000 0.000000
0.000000 0.000000 0.000000
0.000000 0.000000 0.000000
0.000000 0.000000 -50.000000
-50.000000 0.000000 -50.000000
-43.337206 0.000000 -45.691571
-45.523358 0.000000 -43.289101
-50.000000 0.000000 -50.000000
-36.673508 0.000000 -36.578296
-50.000000 0.000000 -45.083725
-40.029134 0.000000 -40.026772
-44.194971 0.000000 -29.867601
-50.000000 0.000000 -50.000000
-30.009606 0.000000 -44.849255
-33.543837 0.000000 -33.127148
-44.717751 0.000000 -39.862454
-36.867020 0.000000 -35.117974
-39.873135 0.000000 -23.157801
-50.000000 0.000000 -26.511927
-44.707595 0.000000 -50.000000
-23.347413 0.000000 -44.665494
-26.938454 0.000000 -39.354883
-30.345383 0.000000 -29.587554
-39.433371 0.000000 -33.351354
-33.763503 0.000000 -50.000000
-16.685560 0.000000 -16.456266
-50.000000 0.000000 -9.764892
