# vtk DataFile Version 2.0
CellBP Time: 2.32
ASCII
DATASET UNSTRUCTURED_GRID
POINTS 320 double
-50.000000 -50.000000 0.000000
-50.000000 -43.334825 0.000000
-45.696232 -45.521189 0.000000
-43.296990 -50.000000 0.000000
-50.000000 -36.668920 0.000000
-36.594056 -50.000000 0.000000
-45.088975 -40.024845 0.000000
-40.037405 -44.192071 0.000000
-29.890325 -50.000000 0.000000
-50.000000 -30.003096 0.000000
-44.854475 -33.537043 0.000000
-33.144925 -44.715035 0.000000
-39.873088 -36.861331 0.000000
-35.133363 -39.868266 0.000000
-23.186308 -50.000000 0.000000
-26.535465 -44.705024 0.000000
-50.000000 -23.339513 0.000000
-44.670427 -26.929485 0.000000
-39.365323 -30.337211 0.000000
-29.607959 -39.428286 0.000000
-33.367856 -33.756384 0.000000
-50.000000 -16.676901 0.000000
-16.489058 -50.000000 0.000000
-9.800240 -50.000000 0.000000
-19.958386 -44.624146 0.000000
-23.208847 -39.183570 0.000000
-44.694776 -20.259113 0.000000
-39.364796 -23.676783 0.000000
-34.095386 -27.075407 0.000000
-26.377983 -33.681979 0.000000
-29.140772 -29.059955 0.000000
-50.000000 -10.017437 0.000000
-44.665840 -13.610020 0.000000
-50.000000 -3.363408 0.000000
-3.119221 -50.000000 0.000000
3.550894 -50.000000 0.000000
-13.333430 -44.630317 0.000000
-6.669387 -44.639687 0.000000
-16.676987 -39.215625 0.000000
-20.087845 -33.445891 0.000000
-39.329459 -16.992378 0.000000
-34.004791 -20.453572 0.000000
-28.757667 -23.620076 0.000000
-23.480145 -27.502144 0.000000
-44.627965 -6.944582 0.000000
-39.270727 -10.335758 0.000000
-50.000000 3.292554 0.000000
-44.610829 -0.293042 0.000000
10.208312 -50.000000 0.000000
16.854473 -50.000000 0.000000
0.004898 -44.643123 0.000000
6.676892 -44.653071 0.000000
-10.017452 -39.282165 0.000000
-3.333518 -39.275687 0.000000
-13.450291 -33.893195 0.000000
-16.662733 -28.414536 0.000000
-33.913873 -13.747157 0.000000
-28.559393 -17.114659 0.000000
-23.242642 -20.519935 0.000000
-18.606745 -23.468180 0.000000
-39.227694 -3.679492 0.000000
-33.840383 -7.099500 0.000000
-50.000000 9.981636 0.000000
-44.592635 6.361378 0.000000
-39.203474 2.981212 0.000000
-50.000000 16.740230 0.000000
23.492778 -50.000000 0.000000
30.124943 -50.000000 0.000000
13.344624 -44.673837 0.000000
20.015975 -44.705713 0.000000
3.346925 -39.290406 0.000000
10.012407 -39.323623 0.000000
-6.687984 -33.879924 0.000000
0.019251 -33.905823 0.000000
-10.031013 -28.423549 0.000000
-13.052320 -23.079291 0.000000
-28.450553 -10.505077 0.000000
-22.978343 -13.931302 0.000000
-16.892461 -17.440439 0.000000
-33.781070 -0.461035 0.000000
-28.429808 -3.950839 0.000000
-44.555650 13.052591 0.000000
-39.138951 9.609476 0.000000
-33.743233 6.073614 0.000000
-50.000000 23.601782 0.000000
-44.600910 19.845953 0.000000
-50.000000 30.558223 0.000000
36.750324 -50.000000 0.000000
43.375282 -50.000000 0.000000
26.685832 -44.745331 0.000000
33.332943 -44.869865 0.000000
16.669569 -39.379610 0.000000
23.358903 -39.449226 0.000000
6.695449 -33.939113 0.000000
13.339971 -34.006338 0.000000
-3.274374 -28.472269 0.000000
3.427807 -28.542106 0.000000
-6.538429 -22.999902 0.000000
-9.873080 -17.523112 0.000000
-23.038685 -7.357985 0.000000
-17.666419 -10.626326 0.000000
-12.703951 -12.844383 0.000000
-28.388769 2.611081 0.000000
-23.041684 -0.905313 0.000000
-39.002974 16.298865 0.000000
-28.356160 9.304825 0.000000
-33.529396 12.476831 0.000000
-44.744456 26.612930 0.000000
-38.720636 23.653994 0.000000
-44.991792 33.410757 0.000000
-50.000000 37.502730 0.000000
-50.000000 43.861306 0.000000
39.930674 -45.063587 0.000000
45.471260 -45.653138 0.000000
50.000000 -50.000000 0.000000
36.641472 -39.981003 0.000000
30.033660 -39.462927 0.000000
19.944678 -34.117346 0.000000
26.616056 -34.333221 0.000000
10.053866 -28.579018 0.000000
16.665496 -28.700632 0.000000
0.147412 -23.083346 0.000000
6.898496 -23.252108 0.000000
-3.282567 -17.474809 0.000000
-6.711804 -11.297841 0.000000
-17.655473 -4.195051 0.000000
-12.344334 -7.340728 0.000000
-22.972867 5.531522 0.000000
-17.734665 2.013838 0.000000
-22.639699 11.469691 0.000000
-33.323536 18.503946 0.000000
-27.406267 16.116193 0.000000
-33.043286 23.840138 0.000000
-40.306964 30.541227 0.000000
-35.409736 28.962962 0.000000
-39.922336 35.508973 0.000000
-43.919856 40.175939 0.000000
-45.274505 45.768984 0.000000
-50.000000 50.000000 0.000000
44.117283 -39.891322 0.000000
50.000000 -43.376998 0.000000
39.646473 -35.046607 0.000000
33.483107 -33.430712 0.000000
23.028216 -28.846278 0.000000
28.764476 -29.263560 0.000000
13.532167 -23.184218 0.000000
20.114408 -23.481961 0.000000
3.508118 -17.712315 0.000000
10.221803 -17.919646 0.000000
0.287339 -12.212969 0.000000
-1.963974 -6.508997 0.000000
-7.181639 -4.002285 0.000000
-12.360358 -1.149274 0.000000
-17.741196 8.046631 0.000000
-12.628389 4.832657 0.000000
-18.012696 13.153323 0.000000
-20.766614 16.817194 0.000000
-28.030194 22.517456 0.000000
-23.351732 21.005088 0.000000
-29.741690 28.656932 0.000000
-34.156903 34.092097 0.000000
-36.866436 39.948353 0.000000
-39.633206 45.269747 0.000000
-43.403264 50.000000 0.000000
44.584873 -32.971692 0.000000
50.000000 -36.741486 0.000000
39.144285 -29.583683 0.000000
33.529859 -26.379749 0.000000
27.228490 -23.349787 0.000000
23.125064 -18.689142 0.000000
17.066423 -17.035510 0.000000
6.832976 -12.321123 0.000000
12.450036 -12.804960 0.000000
-3.141652 -1.726128 0.000000
4.114641 -7.190205 0.000000
1.238563 -2.287049 0.000000
-6.756757 2.064638 0.000000
-8.097183 7.554746 0.000000
-12.352775 11.566088 0.000000
-15.078199 17.325450 0.000000
-18.486609 22.730828 0.000000
-23.582546 27.214113 0.000000
-26.952633 33.609418 0.000000
-30.048631 39.315640 0.000000
-33.120167 44.838498 0.000000
-36.642959 50.000000 0.000000
44.553251 -26.500723 0.000000
50.000000 -30.108324 0.000000
39.060292 -23.187178 0.000000
33.488820 -19.914765 0.000000
28.096256 -16.608126 0.000000
22.761242 -13.172298 0.000000
17.278708 -9.979812 0.000000
11.087149 -6.742136 0.000000
-1.136582 2.122515 0.000000
6.438596 -1.847374 0.000000
3.135415 1.456670 0.000000
-3.258895 7.003956 0.000000
-5.913141 12.208852 0.000000
-9.129979 17.450458 0.000000
-12.577993 22.898550 0.000000
-16.799684 28.039903 0.000000
-20.187043 33.361305 0.000000
-23.312708 38.993310 0.000000
-26.452400 44.611384 0.000000
-29.897974 50.000000 0.000000
44.538368 -19.931188 0.000000
50.000000 -23.469335 0.000000
39.066234 -16.604031 0.000000
33.629521 -13.301567 0.000000
28.227307 -10.007013 0.000000
22.829627 -6.663004 0.000000
17.401782 -3.416844 0.000000
12.237233 0.097131 0.000000
2.194991 6.131828 0.000000
7.317234 3.742468 0.000000
0.136132 11.805398 0.000000
-2.866599 17.341054 0.000000
-6.256158 22.825680 0.000000
-10.139853 28.141078 0.000000
-13.351599 33.552539 0.000000
-16.613743 38.998386 0.000000
-19.799332 44.502410 0.000000
-23.198821 50.000000 0.000000
44.551927 -13.301888 0.000000
50.000000 -16.822464 0.000000
39.119645 -9.975852 0.000000
33.711164 -6.663276 0.000000
28.329507 -3.348466 0.000000
22.976284 -0.039556 0.000000
17.717584 3.292868 0.000000
12.460936 6.505413 0.000000
7.021000 10.732362 0.000000
3.626039 17.058734 0.000000
0.268356 22.732925 0.000000
-3.170004 28.221921 0.000000
-6.509009 33.699020 0.000000
-9.844941 39.114384 0.000000
-13.141001 44.532383 0.000000
-16.571757 50.000000 0.000000
44.575754 -6.649231 0.000000
50.000000 -10.165087 0.000000
39.170552 -3.328433 0.000000
33.789411 -0.010954 0.000000
28.444383 3.309096 0.000000
23.157396 6.646966 0.000000
18.031515 9.969581 0.000000
12.891397 12.142429 0.000000
10.046531 17.150513 0.000000
6.750854 22.646860 0.000000
3.467403 28.208123 0.000000
0.154958 33.689572 0.000000
-3.172691 39.134553 0.000000
-6.471529 44.563430 0.000000
-9.934930 50.000000 0.000000
44.601446 0.011419 0.000000
50.000000 -3.496925 0.000000
39.220679 3.329299 0.000000
33.865314 6.642795 0.000000
28.547788 9.971531 0.000000
23.207379 13.383213 0.000000
17.146114 16.979348 0.000000
13.118150 22.626290 0.000000
10.036105 28.196220 0.000000
6.824583 33.692498 0.000000
3.500251 39.146684 0.000000
0.187340 44.576136 0.000000
-3.287951 50.000000 0.000000
44.615883 6.679489 0.000000
50.000000 3.181037 0.000000
39.255740 9.986022 0.000000
33.932390 13.274533 0.000000
28.662267 16.573967 0.000000
23.533253 20.067256 0.000000
18.705526 23.089964 0.000000
16.566550 28.280379 0.000000
13.505311 33.743434 0.000000
10.162996 39.176525 0.000000
6.849997 44.584183 0.000000
3.364731 50.000000 0.000000
44.639623 13.335504 0.000000
50.000000 9.867166 0.000000
39.308371 16.622785 0.000000
34.015562 19.869335 0.000000
28.721349 22.926617 0.000000
23.412229 27.203815 0.000000
20.041791 33.302608 0.000000
16.718378 39.041582 0.000000
13.423238 44.529456 0.000000
10.022794 50.000000 0.000000
44.662457 19.991897 0.000000
50.000000 16.557854 0.000000
39.352604 23.274937 0.000000
34.121767 26.526015 0.000000
29.068570 28.544731 0.000000
26.311951 33.412388 0.000000
23.182780 38.971943 0.000000
20.014205 44.511034 0.000000
16.681333 50.000000 0.000000
44.669717 26.660592 0.000000
50.000000 23.249133 0.000000
39.345736 29.979545 0.000000
33.290896 33.383261 0.000000
29.500674 39.052001 0.000000
26.519540 44.511595 0.000000
23.341203 50.000000 0.000000
44.803229 33.306129 0.000000
50.000000 29.939346 0.000000
39.784739 36.609083 0.000000
34.896355 39.537209 0.000000
32.903767 44.520365 0.000000
30.003754 50.000000 0.000000
45.004127 39.889041 0.000000
50.000000 36.628009 0.000000
39.781682 43.977491 0.000000
36.666262 50.000000 0.000000
45.643310 45.417447 0.000000
50.000000 43.314488 0.000000
43.330038 50.000000 0.000000
50.000000 50.000000 0.000000
CELLS 578 2312
3 1 0 2
3 0 3 2
3 4 1 6
3 6 1 2
3 3 5 7
3 3 7 2
3 6 2 7
3 9 4 10
3 10 4 6
3 5 8 11
3 7 5 11
3 10 6 12
3 12 6 7
3 7 11 13
3 7 13 12
3 8 14 15
3 11 8 15
3 16 9 17
3 17 9 10
3 17 10 18
3 18 10 12
3 11 15 19
3 13 11 19
3 18 12 20
3 13 19 20
3 20 12 13
3 14 22 24
3 15 14 24
3 15 24 25
3 19 15 25
3 21 16 26
3 26 16 17
3 26 17 27
3 27 17 18
3 27 18 28
3 28 18 20
3 19 25 29
3 19 29 20
3 28 20 30
3 30 20 29
3 31 21 32
3 32 21 26
3 22 23 36
3 24 22 36
3 23 34 37
3 36 23 37
3 24 36 38
3 25 24 38
3 25 38 39
3 29 25 39
3 32 26 40
3 40 26 27
3 40 27 41
3 41 27 28
3 41 28 42
3 42 28 30
3 29 39 43
3 29 43 30
3 42 30 43
3 33 31 44
3 44 31 32
3 44 32 45
3 45 32 40
3 46 33 47
3 47 33 44
3 34 35 50
3 37 34 50
3 35 48 51
3 50 35 51
3 36 37 52
3 38 36 52
3 37 50 53
3 52 37 53
3 38 52 54
3 39 38 54
3 39 54 55
3 43 39 55
3 45 40 56
3 56 40 41
3 56 41 57
3 57 41 42
3 57 42 58
3 58 42 43
3 43 55 59
3 43 59 58
3 47 44 60
3 60 44 45
3 60 45 61
3 61 45 56
3 62 46 63
3 63 46 47
3 63 47 64
3 64 47 60
3 48 49 68
3 51 48 68
3 49 66 69
3 68 49 69
3 50 51 70
3 53 50 70
3 51 68 71
3 70 51 71
3 52 53 72
3 54 52 72
3 53 70 73
3 72 53 73
3 54 72 74
3 55 54 74
3 55 74 75
3 59 55 75
3 61 56 76
3 76 56 57
3 76 57 77
3 77 57 58
3 77 58 78
3 59 75 78
3 78 58 59
3 64 60 79
3 79 60 61
3 79 61 80
3 80 61 76
3 65 62 81
3 81 62 63
3 81 63 82
3 82 63 64
3 82 64 83
3 83 64 79
3 84 65 85
3 85 65 81
3 66 67 89
3 69 66 89
3 67 87 90
3 89 67 90
3 68 69 91
3 71 68 91
3 69 89 92
3 91 69 92
3 70 71 93
3 73 70 93
3 71 91 94
3 93 71 94
3 72 73 95
3 74 72 95
3 73 93 96
3 95 73 96
3 74 95 97
3 75 74 97
3 75 97 98
3 78 75 98
3 80 76 99
3 99 76 77
3 99 77 100
3 100 77 78
3 100 78 101
3 98 101 78
3 83 79 102
3 102 79 80
3 102 80 103
3 103 80 99
3 85 81 104
3 104 81 82
3 105 83 102
3 104 82 106
3 106 82 83
3 106 83 105
3 86 84 107
3 107 84 85
3 107 85 108
3 108 85 104
3 109 86 107
3 110 86 109
3 87 88 112
3 90 87 112
3 112 88 113
3 88 114 113
3 90 112 115
3 89 90 116
3 92 89 116
3 116 90 115
3 91 92 117
3 94 91 117
3 92 116 118
3 117 92 118
3 93 94 119
3 96 93 119
3 94 117 120
3 119 94 120
3 95 96 121
3 97 95 121
3 96 119 122
3 121 96 122
3 97 121 123
3 98 97 123
3 98 123 124
3 98 124 101
3 103 99 125
3 125 99 100
3 125 100 126
3 126 100 101
3 126 101 124
3 105 102 127
3 127 102 103
3 127 103 128
3 128 103 125
3 129 105 127
3 108 104 130
3 130 104 106
3 130 106 131
3 131 106 105
3 131 105 129
3 108 130 132
3 109 107 133
3 133 107 108
3 133 108 134
3 108 132 134
3 135 109 133
3 111 110 136
3 136 110 109
3 136 109 135
3 137 111 136
3 138 111 137
3 112 113 139
3 115 112 139
3 114 140 113
3 140 139 113
3 139 141 115
3 116 115 142
3 118 116 142
3 142 115 141
3 117 118 143
3 120 117 143
3 118 142 144
3 143 118 144
3 119 120 145
3 122 119 145
3 120 143 146
3 145 120 146
3 121 122 147
3 123 121 147
3 122 145 148
3 147 122 148
3 123 147 149
3 124 123 149
3 124 149 150
3 151 126 124
3 124 150 151
3 128 125 152
3 152 125 126
3 152 126 151
3 129 127 153
3 153 127 128
3 128 152 154
3 153 128 154
3 155 129 153
3 131 129 156
3 156 129 155
3 132 130 157
3 130 131 157
3 157 131 158
3 131 156 158
3 132 157 159
3 132 159 134
3 135 133 160
3 160 133 134
3 160 134 159
3 136 135 161
3 135 160 161
3 162 137 136
3 161 162 136
3 163 138 137
3 162 163 137
3 139 164 141
3 140 165 139
3 139 165 164
3 141 164 166
3 141 166 142
3 166 167 142
3 144 142 167
3 167 168 144
3 143 144 168
3 146 143 168
3 168 169 146
3 145 146 170
3 148 145 170
3 170 146 169
3 147 148 171
3 149 147 171
3 148 170 172
3 171 148 172
3 173 151 150
3 149 171 174
3 150 149 174
3 150 174 175
3 150 175 173
3 154 152 176
3 152 151 176
3 176 151 173
3 154 176 177
3 155 153 178
3 177 178 154
3 154 178 153
3 156 155 179
3 155 178 179
3 180 158 156
3 179 180 156
3 181 159 157
3 180 181 158
3 181 157 158
3 182 160 159
3 181 182 159
3 183 161 160
3 182 183 160
3 184 162 161
3 184 161 183
3 185 163 162
3 184 185 162
3 164 186 166
3 165 187 164
3 164 187 186
3 166 186 188
3 166 188 167
3 167 188 189
3 167 189 168
3 168 189 190
3 168 190 169
3 169 190 191
3 169 191 170
3 192 172 170
3 170 191 192
3 192 193 172
3 171 172 193
3 174 171 193
3 194 173 175
3 176 173 194
3 175 174 195
3 193 195 174
3 195 196 175
3 175 196 194
3 197 177 176
3 194 197 176
3 198 178 177
3 197 198 177
3 199 179 178
3 198 199 178
3 200 180 179
3 199 200 179
3 201 181 180
3 200 201 180
3 202 182 181
3 201 202 181
3 203 183 182
3 202 203 182
3 204 184 183
3 203 204 183
3 205 185 184
3 204 205 184
3 186 206 188
3 187 207 186
3 186 207 206
3 188 206 208
3 188 208 189
3 189 208 209
3 189 209 190
3 190 209 210
3 190 210 191
3 191 210 211
3 191 211 192
3 192 211 212
3 192 212 193
3 193 212 213
3 193 213 195
3 214 197 194
3 214 194 196
3 195 213 215
3 195 215 196
3 196 215 214
3 216 198 197
3 214 216 197
3 217 199 198
3 216 217 198
3 218 200 199
3 217 218 199
3 219 201 200
3 218 219 200
3 220 202 201
3 219 220 201
3 221 203 202
3 220 221 202
3 222 204 203
3 221 222 203
3 223 205 204
3 222 223 204
3 206 224 208
3 207 225 206
3 206 225 224
3 208 224 226
3 208 226 209
3 209 226 227
3 209 227 210
3 210 227 228
3 210 228 211
3 211 228 229
3 211 229 212
3 212 229 230
3 212 230 213
3 213 230 231
3 213 231 215
3 232 216 214
3 215 231 232
3 232 214 215
3 233 217 216
3 232 233 216
3 234 218 217
3 233 234 217
3 235 219 218
3 234 235 218
3 236 220 219
3 235 236 219
3 237 221 220
3 236 237 220
3 238 222 221
3 237 238 221
3 239 223 222
3 238 239 222
3 224 240 226
3 225 241 224
3 224 241 240
3 226 240 242
3 226 242 227
3 227 242 243
3 227 243 228
3 228 243 244
3 228 244 229
3 244 245 229
3 229 245 230
3 230 245 246
3 230 246 231
3 231 246 247
3 231 247 232
3 248 233 232
3 248 232 247
3 249 234 233
3 248 249 233
3 250 235 234
3 249 250 234
3 251 236 235
3 250 251 235
3 252 237 236
3 251 252 236
3 253 238 237
3 252 253 237
3 254 239 238
3 253 254 238
3 240 255 242
3 241 256 240
3 240 256 255
3 242 255 257
3 242 257 243
3 243 257 258
3 243 258 244
3 244 258 259
3 244 259 245
3 245 259 260
3 245 260 246
3 246 260 261
3 246 261 247
3 248 247 261
3 262 249 248
3 261 262 248
3 263 250 249
3 262 263 249
3 264 251 250
3 263 264 250
3 265 252 251
3 264 265 251
3 266 253 252
3 265 266 252
3 267 254 253
3 266 267 253
3 255 268 257
3 256 269 255
3 255 269 268
3 257 268 270
3 257 270 258
3 258 270 271
3 258 271 259
3 259 271 272
3 259 272 260
3 260 272 273
3 260 273 261
3 274 262 261
3 261 273 274
3 275 263 262
3 274 275 262
3 276 264 263
3 275 276 263
3 277 265 264
3 276 277 264
3 278 266 265
3 277 278 265
3 279 267 266
3 278 279 266
3 268 280 270
3 269 281 268
3 268 281 280
3 270 280 282
3 270 282 271
3 271 282 283
3 271 283 272
3 283 284 272
3 272 284 273
3 285 275 274
3 273 284 285
3 285 274 273
3 286 276 275
3 285 286 275
3 287 277 276
3 286 287 276
3 288 278 277
3 287 288 277
3 289 279 278
3 288 289 278
3 280 290 282
3 281 291 280
3 280 291 290
3 282 290 292
3 282 292 283
3 283 292 293
3 283 293 284
3 284 293 294
3 284 294 285
3 295 286 285
3 295 285 294
3 296 287 286
3 295 296 286
3 297 288 287
3 296 297 287
3 298 289 288
3 297 298 288
3 290 299 292
3 291 300 290
3 290 300 299
3 292 299 301
3 292 301 293
3 293 301 302
3 293 302 294
3 294 302 295
3 303 296 295
3 303 295 302
3 304 297 296
3 303 304 296
3 305 298 297
3 304 305 297
3 299 306 301
3 300 307 299
3 299 307 306
3 301 306 308
3 301 308 302
3 309 303 302
3 302 308 309
3 310 304 303
3 309 310 303
3 311 305 304
3 310 311 304
3 306 312 308
3 307 313 306
3 306 313 312
3 314 310 309
3 308 312 314
3 314 309 308
3 315 311 310
3 314 315 310
3 312 316 314
3 313 317 312
3 312 317 316
3 318 315 314
3 318 314 316
3 317 319 316
3 319 318 316
CELL_TYPES 578
5
5
5
5
5
5
5
5
5
5
5
5
5
5
5
5
5
5
5
5
5
5
5
5
5
5
5
5
5
5
5
5
5
5
5
5
5
5
5
5
5
5
5
5
5
5
5
5
5
5
5
5
5
5
5
5
5
5
5
5
5
5
5
5
5
5
5
5
5
5
5
5
5
5
5
5
5
5
5
5
5
5
5
5
5
5
5
5
5
5
5
5
5
5
5
5
5
5
5
5
5
5
5
5
5
5
5
5
5
5
5
5
5
5
5
5
5
5
5
5
5
5
5
5
5
5
5
5
5
5
5
5
5
5
5
5
5
5
5
5
5
5
5
5
5
5
5
5
5
5
5
5
5
5
5
5
5
5
5
5
5
5
5
5
5
5
5
5
5
5
5
5
5
5
5
5
5
5
5
5
5
5
5
5
5
5
5
5
5
5
5
5
5
5
5
5
5
5
5
5
5
5
5
5
5
5
5
5
5
5
5
5
5
5
5
5
5
5
5
5
5
5
5
5
5
5
5
5
5
5
5
5
5
5
5
5
5
5
5
5
5
5
5
5
5
5
5
5
5
5
5
5
5
5
5
5
5
5
5
5
5
5
5
5
5
5
5
5
5
5
5
5
5
5
5
5
5
5
5
5
5
5
5
5
5
5
5
5
5
5
5
5
5
5
5
5
5
5
5
5
5
5
5
5
5
5
5
5
5
5
5
5
5
5
5
5
5
5
5
5
5
5
5
5
5
5
5
5
5
5
5
5
5
5
5
5
5
5
5
5
5
5
5
5
5
5
5
5
5
5
5
5
5
5
5
5
5
5
5
5
5
5
5
5
5
5
5
5
5
5
5
5
5
5
5
5
5
5
5
5
5
5
5
5
5
5
5
5
5
5
5
5
5
5
5
5
5
5
5
5
5
5
5
5
5
5
5
5
5
5
5
5
5
5
5
5
5
5
5
5
5
5
5
5
5
5
5
5
5
5
5
5
5
5
5
5
5
5
5
5
5
5
5
5
5
5
5
5
5
5
5
5
5
5
5
5
5
5
5
5
5
5
5
5
5
5
5
5
5
5
5
5
5
5
5
5
5
5
5
5
5
5
5
5
5
5
5
5
5
5
5
5
5
5
5
5
5
5
5
5
5
5
5
5
5
5
5
5
5
5
5
5
5
5
5
5
5
5
5
5
5
5
5
5
5
5
5
5
5
5
5
5
5
5
5
5
5
5
5
5
5
5
5
5
5
5
5
5
5
5
5
5
5
5
5
5
5
5
5
5
5
5
5
5
5
5
5
5
5
5
5
5
5
5
5
5
5
5
POINT_DATA 320
SCALARS theta_e float 1
LOOKUP_TABLE default
0.992864
0.992839
0.992869
0.992912
0.992793
0.993035
0.992842
0.992945
0.993265
0.992711
0.992778
0.993132
0.992891
0.993021
0.993569
0.993393
0.992595
0.992683
0.992820
0.993220
0.993019
0.992453
0.993940
0.994362
0.993728
0.993507
0.992557
0.992708
0.992893
0.993288
0.993103
0.992296
0.992410
0.992136
0.994813
0.995266
0.994123
0.994561
0.993862
0.993597
0.992578
0.992781
0.993023
0.993331
0.992254
0.992430
0.991979
0.992095
0.995694
0.996071
0.995013
0.995454
0.994275
0.994714
0.993980
0.993701
0.992643
0.992893
0.993187
0.993472
0.992272
0.992486
0.991829
0.991938
0.992109
0.991692
0.996378
0.996602
0.995858
0.996203
0.995156
0.995575
0.994395
0.994829
0.994082
0.993761
0.992738
0.993040
0.993386
0.992320
0.992565
0.991788
0.991945
0.992149
0.991573
0.991652
0.991479
0.996743
0.996812
0.996474
0.996662
0.995951
0.996264
0.995252
0.995642
0.994492
0.994908
0.994124
0.993777
0.992837
0.993113
0.993456
0.992385
0.992637
0.991785
0.992207
0.991983
0.991539
0.991644
0.991454
0.991417
0.991386
0.996772
0.996818
0.996827
0.996670
0.996505
0.995985
0.996268
0.995306
0.995657
0.994538
0.994957
0.994233
0.994111
0.992917
0.993614
0.992453
0.992676
0.992289
0.991829
0.992045
0.991708
0.991524
0.991601
0.991460
0.991411
0.991383
0.991375
0.996763
0.996810
0.996647
0.996471
0.995963
0.996204
0.995328
0.995632
0.994669
0.995044
0.994396
0.993880
0.993604
0.993192
0.992512
0.992816
0.992398
0.992201
0.991851
0.992007
0.991693
0.991545
0.991458
0.991412
0.991387
0.996663
0.996747
0.996487
0.996254
0.995926
0.995580
0.995321
0.994505
0.994956
0.993042
0.994103
0.993602
0.993137
0.992940
0.992543
0.992376
0.992131
0.991871
0.991677
0.991550
0.991474
0.991429
0.996479
0.996609
0.996266
0.995989
0.995674
0.995346
0.995025
0.994468
0.993485
0.993910
0.993621
0.992996
0.992771
0.992605
0.992337
0.992057
0.991849
0.991689
0.991579
0.991508
0.996223
0.996393
0.995979
0.995686
0.995354
0.995068
0.994756
0.994412
0.993540
0.994035
0.993130
0.992918
0.992597
0.992279
0.992054
0.991870
0.991729
0.991632
0.995905
0.996104
0.995643
0.995345
0.995001
0.994727
0.994523
0.994276
0.993723
0.993273
0.992863
0.992513
0.992283
0.992081
0.991917
0.991799
0.995542
0.995760
0.995278
0.994986
0.994637
0.994341
0.994080
0.993851
0.993472
0.993087
0.992755
0.992519
0.992308
0.992129
0.991998
0.995160
0.995383
0.994901
0.994623
0.994292
0.993944
0.993624
0.993263
0.992987
0.992749
0.992534
0.992351
0.992215
0.994777
0.994996
0.994531
0.994273
0.993986
0.993682
0.993430
0.993199
0.992961
0.992747
0.992568
0.992436
0.994410
0.994616
0.994183
0.993950
0.993713
0.993428
0.993156
0.992940
0.992770
0.992648
0.994072
0.994259
0.993872
0.993673
0.993500
0.993297
0.993100
0.992946
0.992837
0.993778
0.993937
0.993606
0.993426
0.993227
0.993089
0.992998
0.993546
0.993669
0.993416
0.993305
0.993198
0.993124
0.993385
0.993469
0.993289
0.993222
0.993310
0.993351
0.993277
0.993304
VECTORS fa_u float
0.000000 0.000000 0.000000
0.000000 0.000000 0.000000
0.000000 0.000000 0.000000
0.000000 0.000000 0.000000
0.000000 0.000000 0.000000
0.000000 0.000000 0.000000
0.000000 0.000000 0.000000
0.000000 0.000000 0.000000
0.000000 0.000000 0.000000
0.000000 0.000000 0.000000
0.000000 0.000000 0.000000
0.000000 0.000000 0.000000
0.000000 0.000000 0.000000
0.000000 0.000000 0.000000
0.000000 0.000000 0.000000
0.000000 0.000000 0.000000
0.000000 0.000000 0.000000
0.000000 0.000000 0.000000
0.000000 0.000000 0.000000
0.000000 0.000000 0.000000
0.000000 0.000000 0.000000
0.000000 0.000000 0.000000
0.000000 0.000000 0.000000
0.000000 0.000000 0.000000
0.000000 0.000000 0.000000
0.000000 0.000000 0.000000
0.000000 0.000000 0.000000
0.000000 0.000000 0.000000
0.000000 0.000000 0.000000
0.000000 0.000000 0.000000
0.000000 0.000000 0.000000
0.000000 0.000000 0.000000
0.000000 0.000000 0.000000
0.000000 0.000000 0.000000
0.000000 0.000000 0.000000
0.000000 0.000000 0.000000
0.000000 0.000000 0.000000
0.000000 0.000000 0.000000
0.000000 0.000000 0.000000
0.000000 0.000000 0.000000
0.000000 0.000000 0.000000
0.000000 0.000000 0.000000
0.000000 0.000000 0.000000
0.000000 0.000000 0.000000
0.000000 0.000000 0.000000
0.000000 0.000000 0.000000
0.000000 0.000000 0.000000
0.000000 0.000000 0.000000
0.000000 0.000000 0.000000
0.000000 0.000000 0.000000
0.000000 0.000000 0.000000
0.000000 0.000000 0.000000
0.000000 0.000000 0.000000
0.000000 0.000000 0.000000
0.000000 0.000000 0.000000
0.000000 0.000000 0.000000
0.000000 0.000000 0.000000
0.000000 0.000000 0.000000
0.000000 0.000000 0.000000
0.000000 0.000000 0.000000
0.000000 0.000000 0.000000
0.000000 0.000000 0.000000
0.000000 0.000000 0.000000
0.000000 0.000000 0.000000
0.000000 0.000000 0.000000
0.000000 0.000000 0.000000
0.000000 0.000000 0.000000
0.000000 0.000000 0.000000
0.000000 0.000000 0.000000
0.000000 0.000000 0.000000
0.000000 0.000000 0.000000
0.000000 0.000000 0.000000
0.000000 0.000000 0.000000
0.000000 0.000000 0.000000
0.000000 0.000000 0.000000
0.000000 0.000000 0.000000
0.000000 0.000000 0.000000
0.000000 0.000000 0.000000
0.000000 0.000000 0.000000
0.000000 0.000000 0.000000
0.000000 0.000000 0.000000
0.000000 0.000000 0.000000
0.000000 0.000000 0.000000
0.000000 0.000000 0.000000
0.000000 0.000000 0.000000
0.000000 0.000000 0.000000
0.000000 0.000000 0.000000
0.000000 0.000000 0.000000
0.000000 0.000000 0.000000
0.000000 0.000000 0.000000
0.000000 0.000000 0.000000
0.000000 0.000000 0.000000
0.000000 0.000000 0.000000
0.000000 0.000000 0.000000
0.000000 0.000000 0.000000
0.000000 0.000000 0.000000
0.000000 0.000000 0.000000
0.000000 0.000000 0.000000
0.000000 0.000000 0.000000
0.000000 0.000000 0.000000
0.000000 0.000000 0.000000
0.000000 0.000000 0.000000
0.000000 0.000000 0.000000
0.000000 0.000000 0.000000
0.000000 0.000000 0.000000
0.000000 0.000000 0.000000
0.000000 0.000000 0.000000
0.000000 0.000000 0.000000
0.000000 0.000000 0.000000
0.000000 0.000000 0.000000
0.000000 0.000000 0.000000
0.000000 0.000000 0.000000
0.000000 0.000000 0.000000
0.000000 0.000000 0.000000
0.000000 0.000000 0.000000
0.000000 0.000000 0.000000
0.000000 0.000000 0.000000
0.000000 0.000000 0.000000
0.000000 0.000000 0.000000
0.000000 0.000000 0.000000
0.000000 0.000000 0.000000
0.000000 0.000000 0.000000
0.000000 0.000000 0.000000
0.000000 0.000000 0.000000
0.000000 0.000000 0.000000
0.000000 0.000000 0.000000
0.000000 0.000000 0.000000
0.000000 0.000000 0.000000
0.000000 0.000000 0.000000
0.000000 0.000000 0.000000
0.000000 0.000000 0.000000
0.000000 0.000000 0.000000
0.000000 0.000000 0.000000
0.000000 0.000000 0.000000
0.000000 0.000000 0.000000
0.000000 0.000000 0.000000
0.000000 0.000000 0.000000
0.000000 0.000000 0.000000
0.000000 0.000000 0.000000
0.000000 0.000000 0.000000
0.000000 0.000000 0.000000
0.000000 0.000000 0.000000
0.000000 0.000000 0.000000
0.000000 0.000000 0.000000
0.000000 0.000000 0.000000
0.000000 0.000000 0.000000
0.000000 0.000000 0.000000
0.000000 0.000000 0.000000
0.000000 0.000000 0.000000
0.000000 0.000000 0.000000
0.000000 0.000000 0.000000
0.000000 0.000000 0.000000
0.000000 0.000000 0.000000
0.000000 0.000000 0.000000
0.000000 0.000000 0.000000
0.000000 0.000000 0.000000
0.000000 0.000000 0.000000
0.000000 0.000000 0.000000
0.000000 0.000000 0.000000
0.000000 0.000000 0.000000
0.000000 0.000000 0.000000
0.000000 0.000000 0.000000
0.000000 0.000000 0.000000
0.000000 0.000000 0.000000
0.000000 0.000000 0.000000
0.000000 0.000000 0.000000
0.000000 0.000000 0.000000
0.000000 0.000000 0.000000
0.000000 0.000000 0.000000
0.000000 0.000000 0.000000
0.000000 0.000000 0.000000
0.000000 0.000000 0.000000
0.000000 0.000000 0.000000
0.000000 0.000000 0.000000
0.000000 0.000000 0.000000
0.000000 0.000000 0.000000
0.000000 0.000000 0.000000
0.000000 0.000000 0.000000
0.000000 0.000000 0.000000
0.000000 0.000000 0.000000
0.000000 0.000000 0.000000
0.000000 0.000000 0.000000
0.000000 0.000000 0.000000
0.000000 0.000000 0.000000
0.000000 0.000000 0.000000
0.000000 0.000000 0.000000
0.000000 0.000000 0.000000
0.000000 0.000000 0.000000
0.000000 0.000000 0.000000
0.000000 0.000000 0.000000
0.000000 0.000000 0.000000
0.000000 0.000000 0.000000
0.000000 0.000000 0.000000
0.000000 0.000000 0.000000
0.000000 0.000000 0.000000
0.000000 0.000000 0.000000
0.000000 0.000000 0.000000
0.000000 0.000000 0.000000
0.000000 0.000000 0.000000
0.000000 0.000000 0.000000
0.000000 0.000000 0.000000
0.000000 0.000000 0.000000
0.000000 0.000000 0.000000
0.000000 0.000000 0.000000
0.000000 0.000000 0.000000
0.000000 0.000000 0.000000
0.000000 0.000000 0.000000
0.000000 0.000000 0.000000
0.000000 0.000000 0.000000
0.000000 0.000000 0.000000
0.000000 0.000000 0.000000
0.000000 0.000000 0.000000
0.000000 0.000000 0.000000
0.000000 0.000000 0.000000
0.000000 0.000000 0.000000
0.000000 0.000000 0.000000
0.000000 0.000000 0.000000
0.000000 0.000000 0.000000
0.000000 0.000000 0.000000
0.000000 0.000000 0.000000
0.000000 0.000000 0.000000
0.000000 0.000000 0.000000
0.000000 0.000000 0.000000
0.000000 0.000000 0.000000
0.000000 0.000000 0.000000
0.000000 0.000000 0.000000
0.000000 0.000000 0.000000
0.000000 0.000000 0.000000
0.000000 0.000000 0.000000
0.000000 0.000000 0.000000
0.000000 0.000000 0.000000
0.000000 0.000000 0.000000
0.000000 0.000000 0.000000
0.000000 0.000000 0.000000
0.000000 0.000000 0.000000
0.000000 0.000000 0.000000
0.000000 0.000000 0.000000
0.000000 0.000000 0.000000
0.000000 0.000000 0.000000
0.000000 0.000000 0.000000
0.000000 0.000000 0.000000
0.000000 0.000000 0.000000
0.000000 0.000000 0.000000
0.000000 0.000000 0.000000
0.000000 0.000000 0.000000
0.000000 0.000000 0.000000
0.000000 0.000000 0.000000
0.000000 0.000000 0.000000
0.000000 0.000000 0.000000
0.000000 0.000000 0.000000
0.000000 0.000000 0.000000
0.000000 0.000000 0.000000
0.000000 0.000000 0.000000
0.000000 0.000000 0.000000
0.000000 0.000000 0.000000
0.000000 0.000000 0.000000
0.000000 0.000000 0.000000
0.000000 0.000000 0.000000
0.000000 0.000000 0.000000
0.000000 0.000000 0.000000
0.000000 0.000000 0.000000
0.000000 0.000000 0.000000
0.000000 0.000000 0.000000
0.000000 0.000000 0.000000
0.000000 0.000000 0.000000
0.000000 0.000000 0.000000
0.000000 0.000000 0.000000
0.000000 0.000000 0.000000
0.000000 0.000000 0.000000
0.000000 0.000000 0.000000
0.000000 0.000000 0.000000
0.000000 0.000000 0.000000
0.000000 0.000000 0.000000
0.000000 0.000000 0.000000
0.000000 0.000000 0.000000
0.000000 0.000000 0.000000
0.000000 0.000000 0.000000
0.000000 0.000000 0.000000
0.000000 0.000000 0.000000
0.000000 0.000000 0.000000
0.000000 0.000000 0.000000
0.000000 0.000000 0.000000
0.000000 0.000000 0.000000
0.000000 0.000000 0.000000
0.000000 0.000000 0.000000
0.000000 0.000000 0.000000
0.000000 0.000000 0.000000
0.000000 0.000000 0.000000
0.000000 0.000000 0.000000
0.000000 0.000000 0.000000
0.000000 0.000000 0.000000
0.000000 0.000000 0.000000
0.000000 0.000000 0.000000
0.000000 0.000000 0.000000
0.000000 0.000000 0.000000
0.000000 0.000000 0.000000
0.000000 0.000000 -50.000000
-50.000000 0.000000 -50.000000
-43.334825 0.000000 -45.696232
-45.521189 0.000000 -43.296990
-50.000000 0.000000 -50.000000
-36.668920 0.000000 -36.594056
-50.000000 0.000000 -45.088975
-40.024845 0.000000 -40.037405
-44.192071 0.000000 -29.890325
-50.000000 0.000000 -50.000000
-30.003096 0.000000 -44.854475
-33.537043 0.000000 -33.144925
-44.715035 0.000000 -39.873088
-36.861331 0.000000 -35.133363
-39.868266 0.000000 -23.186308
-50.000000 0.000000 -26.535465
-44.705024 0.000000 -50.000000
-23.339513 0.000000 -44.670427
-26.929485 0.000000 -39.365323
-30.337211 0.000000 -29.607959
-39.428286 0.000000 -33.367856
-33.756384 0.000000 -50.000000
-16.676901 0.000000 -16.489058
-50.000000 0.000000 -9.800240
