# vtk DataFile Version 2.0
CellBP Time: 3.08
ASCII
DATASET UNSTRUCTURED_GRID
POINTS 320 double
-50.000000 -50.000000 0.000000
-50.000000 -43.341900 0.000000
-45.687708 -45.526582 0.000000
-43.283033 -50.000000 0.000000
-50.000000 -36.682370 0.000000
-36.566756 -50.000000 0.000000
-45.079480 -40.036026 0.000000
-40.018183 -44.198966 0.000000
-29.851321 -50.000000 0.000000
-50.000000 -30.022002 0.000000
-44.845191 -33.554540 0.000000
-33.113293 -44.721016 0.000000
-39.854251 -36.875467 0.000000
-35.105961 -39.879525 0.000000
-23.137809 -50.000000 0.000000
-26.493920 -44.710545 0.000000
-50.000000 -23.362613 0.000000
-44.661700 -26.952388 0.000000
-39.347009 -30.357365 0.000000
-29.571716 -39.439481 0.000000
-33.338846 -33.773132 0.000000
-50.000000 -16.702660 0.000000
-16.433780 -50.000000 0.000000
-9.741175 -50.000000 0.000000
-19.909159 -44.629228 0.000000
-23.164315 -39.194093 0.000000
-44.687044 -20.286016 0.000000
-39.348327 -23.701503 0.000000
-34.069786 -27.097422 0.000000
-26.339303 -33.697845 0.000000
-29.107253 -29.079860 0.000000
-50.000000 -10.044346 0.000000
-44.658876 -13.639497 0.000000
-50.000000 -3.390030 0.000000
-3.059332 -50.000000 0.000000
3.608776 -50.000000 0.000000
-13.278963 -44.634975 0.000000
-6.612367 -44.644203 0.000000
-16.626227 -39.225318 0.000000
-20.042400 -33.460845 0.000000
-39.314564 -17.020366 0.000000
-33.981686 -20.479423 0.000000
-28.726260 -23.643745 0.000000
-23.440787 -27.522738 0.000000
-44.621739 -6.975108 0.000000
-39.257334 -10.365617 0.000000
-50.000000 3.267536 0.000000
-44.605241 -0.323154 0.000000
10.261647 -50.000000 0.000000
16.901180 -50.000000 0.000000
0.061769 -44.647652 0.000000
6.731026 -44.657732 0.000000
-9.962739 -39.291535 0.000000
-3.277614 -39.285078 0.000000
-13.399597 -33.907215 0.000000
-16.616906 -28.433645 0.000000
-33.893111 -13.775685 0.000000
-28.531102 -17.141373 0.000000
-23.207190 -20.544544 0.000000
-18.565523 -23.491044 0.000000
-39.215746 -3.709676 0.000000
-33.821898 -7.129250 0.000000
-50.000000 9.959442 0.000000
-44.587599 6.333015 0.000000
-39.192762 2.952182 0.000000
-50.000000 16.721966 0.000000
23.531355 -50.000000 0.000000
30.154390 -50.000000 0.000000
13.393742 -44.678753 0.000000
20.058187 -44.711022 0.000000
3.401401 -39.299906 0.000000
10.063030 -39.333485 0.000000
-6.634739 -33.893693 0.000000
0.072384 -33.919695 0.000000
-9.981806 -28.441801 0.000000
-13.007826 -23.101622 0.000000
-28.425228 -10.533780 0.000000
-22.946400 -13.958366 0.000000
-16.854004 -17.465609 0.000000
-33.764692 -0.490326 0.000000
-28.407534 -3.979933 0.000000
-44.551141 13.027200 0.000000
-39.129228 9.582809 0.000000
-33.728290 6.046039 0.000000
-50.000000 23.587499 0.000000
-44.596332 19.824603 0.000000
-50.000000 30.547623 0.000000
36.769970 -50.000000 0.000000
43.385131 -50.000000 0.000000
26.719736 -44.751049 0.000000
33.357673 -44.875777 0.000000
16.714318 -39.390027 0.000000
23.396130 -39.460369 0.000000
6.746029 -33.953294 0.000000
13.385794 -34.021237 0.000000
-3.224003 -28.490044 0.000000
3.476912 -28.560215 0.000000
-6.492128 -23.021587 0.000000
-9.831549 -17.547642 0.000000
-23.010305 -7.386345 0.000000
-17.632532 -10.653279 0.000000
-12.666662 -12.870402 0.000000
-28.368679 2.583085 0.000000
-23.016447 -0.933769 0.000000
-38.993960 16.275690 0.000000
-28.337752 9.279037 0.000000
-33.515148 12.451854 0.000000
-44.739656 26.596067 0.000000
-38.711497 23.635775 0.000000
-44.987546 33.398576 0.000000
-50.000000 37.496404 0.000000
-50.000000 43.858291 0.000000
39.945849 -45.069823 0.000000
45.478041 -45.658795 0.000000
50.000000 -50.000000 0.000000
36.660983 -39.993059 0.000000
30.062194 -39.474939 0.000000
19.984139 -34.133234 0.000000
26.647959 -34.350088 0.000000
10.099415 -28.597825 0.000000
16.705750 -28.720650 0.000000
0.193974 -23.104579 0.000000
6.942712 -23.273879 0.000000
-3.240274 -17.499373 0.000000
-6.677109 -11.325949 0.000000
-17.624674 -4.223099 0.000000
-12.308720 -7.367159 0.000000
-22.950171 5.504960 0.000000
-17.708305 1.986481 0.000000
-22.618365 11.445853 0.000000
-33.310024 18.482518 0.000000
-27.388315 16.094022 0.000000
-33.029753 23.822801 0.000000
-40.298304 30.527315 0.000000
-35.397818 28.948817 0.000000
-39.913380 35.498443 0.000000
-43.914407 40.168350 0.000000
-45.270015 45.765584 0.000000
-50.000000 50.000000 0.000000
44.125991 -39.904104 0.000000
50.000000 -43.385546 0.000000
39.661087 -35.064892 0.000000
33.505920 -33.449936 0.000000
23.062204 -28.867863 0.000000
28.792069 -29.286213 0.000000
13.571886 -23.207546 0.000000
20.148624 -23.507014 0.000000
3.550294 -17.736365 0.000000
10.260946 -17.944543 0.000000
0.322217 -12.243450 0.000000
-1.932586 -6.545040 0.000000
-7.153053 -4.031441 0.000000
-12.329625 -1.175903 0.000000
-17.716670 8.021460 0.000000
-12.601494 4.805531 0.000000
-17.989586 13.130905 0.000000
-20.744388 16.796897 0.000000
-28.012288 22.499767 0.000000
-23.330623 20.987407 0.000000
-29.725001 28.643311 0.000000
-34.143321 34.081051 0.000000
-36.854578 39.941199 0.000000
-39.623628 45.266076 0.000000
-43.398784 50.000000 0.000000
44.592136 -32.993015 0.000000
50.000000 -36.757950 0.000000
39.158853 -29.608483 0.000000
33.550699 -26.406839 0.000000
27.255568 -23.377783 0.000000
23.153836 -18.719192 0.000000
17.099093 -17.063354 0.000000
6.870525 -12.349847 0.000000
12.483435 -12.832081 0.000000
-3.105209 -1.757578 0.000000
4.146345 -7.227623 0.000000
1.274717 -2.323248 0.000000
-6.727736 2.039049 0.000000
-8.075608 7.533119 0.000000
-12.329278 11.543708 0.000000
-15.052791 17.305675 0.000000
-18.461843 22.714721 0.000000
-23.560876 27.200574 0.000000
-26.933089 33.598806 0.000000
-30.031165 39.308056 0.000000
-33.104777 44.834780 0.000000
-36.633726 50.000000 0.000000
44.560275 -26.529802 0.000000
50.000000 -30.133505 0.000000
39.073741 -23.219001 0.000000
33.507959 -19.948101 0.000000
28.119441 -16.642234 0.000000
22.787090 -13.206016 0.000000
17.306119 -10.012184 0.000000
11.114154 -6.769829 0.000000
-1.111838 2.101019 0.000000
6.467900 -1.867900 0.000000
3.164239 1.435083 0.000000
-3.241389 7.000050 0.000000
-5.888258 12.190762 0.000000
-9.102203 17.432127 0.000000
-12.550167 22.882286 0.000000
-16.773074 28.026452 0.000000
-20.162012 33.350767 0.000000
-23.289592 38.986005 0.000000
-26.431356 44.607604 0.000000
-29.883848 50.000000 0.000000
44.544712 -19.967408 0.000000
50.000000 -23.502465 0.000000
39.078542 -16.642280 0.000000
33.646563 -13.340770 0.000000
28.248019 -10.046128 0.000000
22.852515 -6.701079 0.000000
17.425741 -3.453876 0.000000
12.262520 0.062804 0.000000
2.215720 6.116116 0.000000
7.346296 3.728947 0.000000
0.163863 11.789506 0.000000
-2.835259 17.321530 0.000000
-6.225028 22.808287 0.000000
-10.109326 28.126853 0.000000
-13.321834 33.541571 0.000000
-16.585585 38.991102 0.000000
-19.773027 44.498748 0.000000
-23.179984 50.000000 0.000000
44.557704 -13.344247 0.000000
50.000000 -16.862939 0.000000
39.130772 -10.019538 0.000000
33.726663 -6.707075 0.000000
28.348479 -3.391532 0.000000
22.997908 -0.081331 0.000000
17.741528 3.251781 0.000000
12.490114 6.466288 0.000000
7.053274 10.704970 0.000000
3.659831 17.033059 0.000000
0.302310 22.712173 0.000000
-3.136224 28.205843 0.000000
-6.475687 33.687187 0.000000
-9.812783 39.106796 0.000000
-13.110330 44.528772 0.000000
-16.548441 50.000000 0.000000
44.581038 -6.696292 0.000000
50.000000 -10.211719 0.000000
39.180896 -3.375940 0.000000
33.804049 -0.057723 0.000000
28.462913 3.263906 0.000000
23.179217 6.603677 0.000000
18.057445 9.929591 0.000000
12.920845 12.105345 0.000000
10.078924 17.119756 0.000000
6.784587 22.622001 0.000000
3.502376 28.189380 0.000000
0.190262 33.676301 0.000000
-3.137892 39.126140 0.000000
-6.437596 44.559594 0.000000
-9.907667 50.000000 0.000000
44.606491 -0.038443 0.000000
50.000000 -3.548020 0.000000
39.230768 3.279976 0.000000
33.880077 6.595214 0.000000
28.567070 9.926475 0.000000
23.231213 13.341956 0.000000
17.174515 16.943460 0.000000
13.150238 22.597448 0.000000
10.070214 28.173886 0.000000
6.860074 33.676757 0.000000
3.536144 39.136866 0.000000
0.223077 44.571716 0.000000
-3.257688 50.000000 0.000000
44.620940 6.629088 0.000000
50.000000 3.127738 0.000000
39.266063 9.937306 0.000000
33.947766 13.228700 0.000000
28.682819 16.532024 0.000000
23.558392 20.030373 0.000000
18.734664 23.057891 0.000000
16.598054 28.254498 0.000000
13.539007 33.724955 0.000000
10.198140 39.165104 0.000000
6.885882 44.579073 0.000000
3.396567 50.000000 0.000000
44.644943 13.287038 0.000000
50.000000 9.814286 0.000000
39.319251 16.577165 0.000000
34.031944 19.827802 0.000000
28.743034 22.889852 0.000000
23.438878 27.173745 0.000000
20.071850 33.281168 0.000000
16.750935 39.028169 0.000000
13.457565 44.523326 0.000000
10.054670 50.000000 0.000000
44.668153 19.947932 0.000000
50.000000 16.508242 0.000000
39.364204 23.234895 0.000000
34.139229 26.490987 0.000000
29.091137 28.513912 0.000000
26.337435 33.388462 0.000000
23.211390 38.956371 0.000000
20.045225 44.503708 0.000000
16.711397 50.000000 0.000000
44.675926 26.623559 0.000000
50.000000 23.205584 0.000000
39.358134 29.947426 0.000000
33.310162 33.357235 0.000000
29.524123 39.034876 0.000000
26.545767 44.503250 0.000000
23.367670 50.000000 0.000000
44.809677 33.278078 0.000000
50.000000 29.904414 0.000000
39.797215 36.586762 0.000000
34.914285 39.519957 0.000000
32.924019 44.511240 0.000000
30.025143 50.000000 0.000000
45.010616 39.871379 0.000000
50.000000 36.603607 0.000000
39.794409 43.966841 0.000000
36.681271 50.000000 0.000000
45.648997 45.409195 0.000000
50.000000 43.301846 0.000000
43.337584 50.000000 0.000000
50.000000 50.000000 0.000000
CELLS 578 2312
3 1 0 2
3 0 3 2
3 4 1 6
3 6 1 2
3 3 5 7
3 3 7 2
3 6 2 7
3 9 4 10
3 10 4 6
3 5 8 11
3 7 5 11
3 10 6 12
3 12 6 7
3 7 11 13
3 7 13 12
3 8 14 15
3 11 8 15
3 16 9 17
3 17 9 10
3 17 10 18
3 18 10 12
3 11 15 19
3 13 11 19
3 18 12 20
3 13 19 20
3 20 12 13
3 14 22 24
3 15 14 24
3 15 24 25
3 19 15 25
3 21 16 26
3 26 16 17
3 26 17 27
3 27 17 18
3 27 18 28
3 28 18 20
3 19 25 29
3 19 29 20
3 28 20 30
3 30 20 29
3 31 21 32
3 32 21 26
3 22 23 36
3 24 22 36
3 23 34 37
3 36 23 37
3 24 36 38
3 25 24 38
3 25 38 39
3 29 25 39
3 32 26 40
3 40 26 27
3 40 27 41
3 41 27 28
3 41 28 42
3 42 28 30
3 29 39 43
3 29 43 30
3 42 30 43
3 33 31 44
3 44 31 32
3 44 32 45
3 45 32 40
3 46 33 47
3 47 33 44
3 34 35 50
3 37 34 50
3 35 48 51
3 50 35 51
3 36 37 52
3 38 36 52
3 37 50 53
3 52 37 53
3 38 52 54
3 39 38 54
3 39 54 55
3 43 39 55
3 45 40 56
3 56 40 41
3 56 41 57
3 57 41 42
3 57 42 58
3 58 42 43
3 43 55 59
3 43 59 58
3 47 44 60
3 60 44 45
3 60 45 61
3 61 45 56
3 62 46 63
3 63 46 47
3 63 47 64
3 64 47 60
3 48 49 68
3 51 48 68
3 49 66 69
3 68 49 69
3 50 51 70
3 53 50 70
3 51 68 71
3 70 51 71
3 52 53 72
3 54 52 72
3 53 70 73
3 72 53 73
3 54 72 74
3 55 54 74
3 55 74 75
3 59 55 75
3 61 56 76
3 76 56 57
3 76 57 77
3 77 57 58
3 77 58 78
3 59 75 78
3 78 58 59
3 64 60 79
3 79 60 61
3 79 61 80
3 80 61 76
3 65 62 81
3 81 62 63
3 81 63 82
3 82 63 64
3 82 64 83
3 83 64 79
3 84 65 85
3 85 65 81
3 66 67 89
3 69 66 89
3 67 87 90
3 89 67 90
3 68 69 91
3 71 68 91
3 69 89 92
3 91 69 92
3 70 71 93
3 73 70 93
3 71 91 94
3 93 71 94
3 72 73 95
3 74 72 95
3 73 93 96
3 95 73 96
3 74 95 97
3 75 74 97
3 75 97 98
3 78 75 98
3 80 76 99
3 99 76 77
3 99 77 100
3 100 77 78
3 100 78 101
3 98 101 78
3 83 79 102
3 102 79 80
3 102 80 103
3 103 80 99
3 85 81 104
3 104 81 82
3 105 83 102
3 104 82 106
3 106 82 83
3 106 83 105
3 86 84 107
3 107 84 85
3 107 85 108
3 108 85 104
3 109 86 107
3 110 86 109
3 87 88 112
3 90 87 112
3 112 88 113
3 88 114 113
3 90 112 115
3 89 90 116
3 92 89 116
3 116 90 115
3 91 92 117
3 94 91 117
3 92 116 118
3 117 92 118
3 93 94 119
3 96 93 119
3 94 117 120
3 119 94 120
3 95 96 121
3 97 95 121
3 96 119 122
3 121 96 122
3 97 121 123
3 98 97 123
3 98 123 124
3 98 124 101
3 103 99 125
3 125 99 100
3 125 100 126
3 126 100 101
3 126 101 124
3 105 102 127
3 127 102 103
3 127 103 128
3 128 103 125
3 129 105 127
3 108 104 130
3 130 104 106
3 130 106 131
3 131 106 105
3 131 105 129
3 108 130 132
3 109 107 133
3 133 107 108
3 133 108 134
3 108 132 134
3 135 109 133
3 111 110 136
3 136 110 109
3 136 109 135
3 137 111 136
3 138 111 137
3 112 113 139
3 115 112 139
3 114 140 113
3 140 139 113
3 139 141 115
3 116 115 142
3 118 116 142
3 142 115 141
3 117 118 143
3 120 117 143
3 118 142 144
3 143 118 144
3 119 120 145
3 122 119 145
3 120 143 146
3 145 120 146
3 121 122 147
3 123 121 147
3 122 145 148
3 147 122 148
3 123 147 149
3 124 123 149
3 124 149 150
3 151 126 124
3 124 150 151
3 128 125 152
3 152 125 126
3 152 126 151
3 129 127 153
3 153 127 128
3 128 152 154
3 153 128 154
3 155 129 153
3 131 129 156
3 156 129 155
3 132 130 157
3 130 131 157
3 157 131 158
3 131 156 158
3 132 157 159
3 132 159 134
3 135 133 160
3 160 133 134
3 160 134 159
3 136 135 161
3 135 160 161
3 162 137 136
3 161 162 136
3 163 138 137
3 162 163 137
3 139 164 141
3 140 165 139
3 139 165 164
3 141 164 166
3 141 166 142
3 166 167 142
3 144 142 167
3 167 168 144
3 143 144 168
3 146 143 168
3 168 169 146
3 145 146 170
3 148 145 170
3 170 146 169
3 147 148 171
3 149 147 171
3 148 170 172
3 171 148 172
3 173 151 150
3 149 171 174
3 150 149 174
3 150 174 175
3 150 175 173
3 154 152 176
3 152 151 176
3 176 151 173
3 154 176 177
3 155 153 178
3 177 178 154
3 154 178 153
3 156 155 179
3 155 178 179
3 180 158 156
3 179 180 156
3 181 159 157
3 180 181 158
3 181 157 158
3 182 160 159
3 181 182 159
3 183 161 160
3 182 183 160
3 184 162 161
3 184 161 183
3 185 163 162
3 184 185 162
3 164 186 166
3 165 187 164
3 164 187 186
3 166 186 188
3 166 188 167
3 167 188 189
3 167 189 168
3 168 189 190
3 168 190 169
3 169 190 191
3 169 191 170
3 192 172 170
3 170 191 192
3 192 193 172
3 171 172 193
3 174 171 193
3 194 173 175
3 176 173 194
3 175 174 195
3 193 195 174
3 195 196 175
3 175 196 194
3 197 177 176
3 194 197 176
3 198 178 177
3 197 198 177
3 199 179 178
3 198 199 178
3 200 180 179
3 199 200 179
3 201 181 180
3 200 201 180
3 202 182 181
3 201 202 181
3 203 183 182
3 202 203 182
3 204 184 183
3 203 204 183
3 205 185 184
3 204 205 184
3 186 206 188
3 187 207 186
3 186 207 206
3 188 206 208
3 188 208 189
3 189 208 209
3 189 209 190
3 190 209 210
3 190 210 191
3 191 210 211
3 191 211 192
3 192 211 212
3 192 212 193
3 193 212 213
3 193 213 195
3 214 197 194
3 214 194 196
3 195 213 215
3 195 215 196
3 196 215 214
3 216 198 197
3 214 216 197
3 217 199 198
3 216 217 198
3 218 200 199
3 217 218 199
3 219 201 200
3 218 219 200
3 220 202 201
3 219 220 201
3 221 203 202
3 220 221 202
3 222 204 203
3 221 222 203
3 223 205 204
3 222 223 204
3 206 224 208
3 207 225 206
3 206 225 224
3 208 224 226
3 208 226 209
3 209 226 227
3 209 227 210
3 210 227 228
3 210 228 211
3 211 228 229
3 211 229 212
3 212 229 230
3 212 230 213
3 213 230 231
3 213 231 215
3 232 216 214
3 215 231 232
3 232 214 215
3 233 217 216
3 232 233 216
3 234 218 217
3 233 234 217
3 235 219 218
3 234 235 218
3 236 220 219
3 235 236 219
3 237 221 220
3 236 237 220
3 238 222 221
3 237 238 221
3 239 223 222
3 238 239 222
3 224 240 226
3 225 241 224
3 224 241 240
3 226 240 242
3 226 242 227
3 227 242 243
3 227 243 228
3 228 243 244
3 228 244 229
3 244 245 229
3 229 245 230
3 230 245 246
3 230 246 231
3 231 246 247
3 231 247 232
3 248 233 232
3 248 232 247
3 249 234 233
3 248 249 233
3 250 235 234
3 249 250 234
3 251 236 235
3 250 251 235
3 252 237 236
3 251 252 236
3 253 238 237
3 252 253 237
3 254 239 238
3 253 254 238
3 240 255 242
3 241 256 240
3 240 256 255
3 242 255 257
3 242 257 243
3 243 257 258
3 243 258 244
3 244 258 259
3 244 259 245
3 245 259 260
3 245 260 246
3 246 260 261
3 246 261 247
3 248 247 261
3 262 249 248
3 261 262 248
3 263 250 249
3 262 263 249
3 264 251 250
3 263 264 250
3 265 252 251
3 264 265 251
3 266 253 252
3 265 266 252
3 267 254 253
3 266 267 253
3 255 268 257
3 256 269 255
3 255 269 268
3 257 268 270
3 257 270 258
3 258 270 271
3 258 271 259
3 259 271 272
3 259 272 260
3 260 272 273
3 260 273 261
3 274 262 261
3 261 273 274
3 275 263 262
3 274 275 262
3 276 264 263
3 275 276 263
3 277 265 264
3 276 277 264
3 278 266 265
3 277 278 265
3 279 267 266
3 278 279 266
3 268 280 270
3 269 281 268
3 268 281 280
3 270 280 282
3 270 282 271
3 271 282 283
3 271 283 272
3 283 284 272
3 272 284 273
3 285 275 274
3 273 284 285
3 285 274 273
3 286 276 275
3 285 286 275
3 287 277 276
3 286 287 276
3 288 278 277
3 287 288 277
3 289 279 278
3 288 289 278
3 280 290 282
3 281 291 280
3 280 291 290
3 282 290 292
3 282 292 283
3 283 292 293
3 283 293 284
3 284 293 294
3 284 294 285
3 295 286 285
3 295 285 294
3 296 287 286
3 295 296 286
3 297 288 287
3 296 297 287
3 298 289 288
3 297 298 288
3 290 299 292
3 291 300 290
3 290 300 299
3 292 299 301
3 292 301 293
3 293 301 302
3 293 302 294
3 294 302 295
3 303 296 295
3 303 295 302
3 304 297 296
3 303 304 296
3 305 298 297
3 304 305 297
3 299 306 301
3 300 307 299
3 299 307 306
3 301 306 308
3 301 308 302
3 309 303 302
3 302 308 309
3 310 304 303
3 309 310 303
3 311 305 304
3 310 311 304
3 306 312 308
3 307 313 306
3 306 313 312
3 314 310 309
3 308 312 314
3 314 309 308
3 315 311 310
3 314 315 310
3 312 316 314
3 313 317 312
3 312 317 316
3 318 315 314
3 318 314 316
3 317 319 316
3 319 318 316
CELL_TYPES 578
5
5
5
5
5
5
5
5
5
5
5
5
5
5
5
5
5
5
5
5
5
5
5
5
5
5
5
5
5
5
5
5
5
5
5
5
5
5
5
5
5
5
5
5
5
5
5
5
5
5
5
5
5
5
5
5
5
5
5
5
5
5
5
5
5
5
5
5
5
5
5
5
5
5
5
5
5
5
5
5
5
5
5
5
5
5
5
5
5
5
5
5
5
5
5
5
5
5
5
5
5
5
5
5
5
5
5
5
5
5
5
5
5
5
5
5
5
5
5
5
5
5
5
5
5
5
5
5
5
5
5
5
5
5
5
5
5
5
5
5
5
5
5
5
5
5
5
5
5
5
5
5
5
5
5
5
5
5
5
5
5
5
5
5
5
5
5
5
5
5
5
5
5
5
5
5
5
5
5
5
5
5
5
5
5
5
5
5
5
5
5
5
5
5
5
5
5
5
5
5
5
5
5
5
5
5
5
5
5
5
5
5
5
5
5
5
5
5
5
5
5
5
5
5
5
5
5
5
5
5
5
5
5
5
5
5
5
5
5
5
5
5
5
5
5
5
5
5
5
5
5
5
5
5
5
5
5
5
5
5
5
5
5
5
5
5
5
5
5
5
5
5
5
5
5
5
5
5
5
5
5
5
5
5
5
5
5
5
5
5
5
5
5
5
5
5
5
5
5
5
5
5
5
5
5
5
5
5
5
5
5
5
5
5
5
5
5
5
5
5
5
5
5
5
5
5
5
5
5
5
5
5
5
5
5
5
5
5
5
5
5
5
5
5
5
5
5
5
5
5
5
5
5
5
5
5
5
5
5
5
5
5
5
5
5
5
5
5
5
5
5
5
5
5
5
5
5
5
5
5
5
5
5
5
5
5
5
5
5
5
5
5
5
5
5
5
5
5
5
5
5
5
5
5
5
5
5
5
5
5
5
5
5
5
5
5
5
5
5
5
5
5
5
5
5
5
5
5
5
5
5
5
5
5
5
5
5
5
5
5
5
5
5
5
5
5
5
5
5
5
5
5
5
5
5
5
5
5
5
5
5
5
5
5
5
5
5
5
5
5
5
5
5
5
5
5
5
5
5
5
5
5
5
5
5
5
5
5
5
5
5
5
5
5
5
5
5
5
5
5
5
5
5
5
5
5
5
5
5
5
5
5
5
5
5
5
5
5
5
5
5
5
5
5
5
5
5
5
5
5
5
5
5
5
5
5
5
5
5
5
5
5
5
5
5
5
5
5
5
5
5
5
5
5
5
5
5
5
5
5
5
5
5
5
5
5
5
5
5
5
5
5
5
5
5
5
5
5
POINT_DATA 320
SCALARS theta_e float 1
LOOKUP_TABLE default
0.993749
0.993745
0.993750
0.993754
0.993733
0.993758
0.993742
0.993752
0.993757
0.993712
0.993724
0.993754
0.993736
0.993744
0.993748
0.993746
0.993683
0.993697
0.993710
0.993735
0.993719
0.993650
0.993730
0.993707
0.993731
0.993721
0.993664
0.993676
0.993688
0.993709
0.993695
0.993618
0.993630
0.993588
0.993684
0.993665
0.993711
0.993688
0.993702
0.993694
0.993644
0.993660
0.993675
0.993685
0.993600
0.993618
0.993564
0.993576
0.993650
0.993637
0.993668
0.993652
0.993681
0.993661
0.993677
0.993676
0.993638
0.993658
0.993670
0.993672
0.993598
0.993621
0.993543
0.993556
0.993582
0.993523
0.993622
0.993602
0.993640
0.993626
0.993645
0.993633
0.993659
0.993642
0.993662
0.993659
0.993641
0.993640
0.993638
0.993609
0.993625
0.993536
0.993565
0.993600
0.993503
0.993514
0.993485
0.993581
0.993565
0.993609
0.993588
0.993623
0.993610
0.993627
0.993617
0.993647
0.993630
0.993648
0.993616
0.993606
0.993611
0.993602
0.993614
0.993587
0.993542
0.993609
0.993588
0.993494
0.993515
0.993477
0.993471
0.993459
0.993570
0.993560
0.993559
0.993576
0.993593
0.993609
0.993599
0.993616
0.993608
0.993633
0.993622
0.993609
0.993567
0.993597
0.993536
0.993587
0.993577
0.993598
0.993565
0.993606
0.993536
0.993484
0.993501
0.993471
0.993466
0.993457
0.993453
0.993566
0.993561
0.993573
0.993585
0.993604
0.993598
0.993611
0.993604
0.993606
0.993615
0.993688
0.993806
0.993621
0.993523
0.993566
0.993526
0.993571
0.993603
0.993582
0.993610
0.993530
0.993484
0.993466
0.993461
0.993456
0.993573
0.993568
0.993582
0.993595
0.993606
0.993607
0.993609
0.993641
0.993643
0.993862
0.993854
0.994056
0.993618
0.993509
0.993556
0.993578
0.993608
0.993579
0.993515
0.993475
0.993462
0.993459
0.993586
0.993580
0.993598
0.993612
0.993617
0.993610
0.993632
0.993645
0.993848
0.993773
0.993866
0.993617
0.993533
0.993558
0.993602
0.993605
0.993552
0.993495
0.993467
0.993460
0.993604
0.993593
0.993620
0.993633
0.993630
0.993631
0.993650
0.993589
0.993652
0.993516
0.993630
0.993591
0.993603
0.993620
0.993583
0.993521
0.993478
0.993465
0.993627
0.993610
0.993648
0.993657
0.993648
0.993666
0.993669
0.993624
0.993657
0.993652
0.993629
0.993634
0.993608
0.993549
0.993497
0.993476
0.993656
0.993635
0.993678
0.993685
0.993676
0.993700
0.993718
0.993719
0.993703
0.993667
0.993655
0.993631
0.993577
0.993524
0.993497
0.993690
0.993666
0.993709
0.993716
0.993709
0.993718
0.993723
0.993701
0.993684
0.993657
0.993608
0.993557
0.993527
0.993725
0.993703
0.993740
0.993744
0.993739
0.993731
0.993722
0.993715
0.993686
0.993645
0.993599
0.993567
0.993760
0.993742
0.993768
0.993766
0.993758
0.993742
0.993719
0.993687
0.993649
0.993617
0.993789
0.993778
0.993788
0.993779
0.993764
0.993750
0.993728
0.993701
0.993672
0.993807
0.993805
0.993798
0.993780
0.993764
0.993747
0.993725
0.993812
0.993817
0.993800
0.993788
0.993779
0.993765
0.993807
0.993815
0.993796
0.993789
0.993800
0.993806
0.993796
0.993798
VECTORS fa_u float
0.000000 0.000000 0.000000
0.000000 0.000000 0.000000
0.000000 0.000000 0.000000
0.000000 0.000000 0.000000
0.000000 0.000000 0.000000
0.000000 0.000000 0.000000
0.000000 0.000000 0.000000
0.000000 0.000000 0.000000
0.000000 0.000000 0.000000
0.000000 0.000000 0.000000
0.000000 0.000000 0.000000
0.000000 0.000000 0.000000
0.000000 0.000000 0.000000
0.000000 0.000000 0.000000
0.000000 0.000000 0.000000
0.000000 0.000000 0.000000
0.000000 0.000000 0.000000
0.000000 0.000000 0.000000
0.000000 0.000000 0.000000
0.000000 0.000000 0.000000
0.000000 0.000000 0.000000
0.000000 0.000000 0.000000
0.000000 0.000000 0.000000
0.000000 0.000000 0.000000
0.000000 0.000000 0.000000
0.000000 0.000000 0.000000
0.000000 0.000000 0.000000
0.000000 0.000000 0.000000
0.000000 0.000000 0.000000
0.000000 0.000000 0.000000
0.000000 0.000000 0.000000
0.000000 0.000000 0.000000
0.000000 0.000000 0.000000
0.000000 0.000000 0.000000
0.000000 0.000000 0.000000
0.000000 0.000000 0.000000
0.000000 0.000000 0.000000
0.000000 0.000000 0.000000
0.000000 0.000000 0.000000
0.000000 0.000000 0.000000
0.000000 0.000000 0.000000
0.000000 0.000000 0.000000
0.000000 0.000000 0.000000
0.000000 0.000000 0.000000
0.000000 0.000000 0.000000
0.000000 0.000000 0.000000
0.000000 0.000000 0.000000
0.000000 0.000000 0.000000
0.000000 0.000000 0.000000
0.000000 0.000000 0.000000
0.000000 0.000000 0.000000
0.000000 0.000000 0.000000
0.000000 0.000000 0.000000
0.000000 0.000000 0.000000
0.000000 0.000000 0.000000
0.000000 0.000000 0.000000
0.000000 0.000000 0.000000
0.000000 0.000000 0.000000
0.000000 0.000000 0.000000
0.000000 0.000000 0.000000
0.000000 0.000000 0.000000
0.000000 0.000000 0.000000
0.000000 0.000000 0.000000
0.000000 0.000000 0.000000
0.000000 0.000000 0.000000
0.000000 0.000000 0.000000
0.000000 0.000000 0.000000
0.000000 0.000000 0.000000
0.000000 0.000000 0.000000
0.000000 0.000000 0.000000
0.000000 0.000000 0.000000
0.000000 0.000000 0.000000
0.000000 0.000000 0.000000
0.000000 0.000000 0.000000
0.000000 0.000000 0.000000
0.000000 0.000000 0.000000
0.000000 0.000000 0.000000
0.000000 0.000000 0.000000
0.000000 0.000000 0.000000
0.000000 0.000000 0.000000
0.000000 0.000000 0.000000
0.000000 0.000000 0.000000
0.000000 0.000000 0.000000
0.000000 0.000000 0.000000
0.000000 0.000000 0.000000
0.000000 0.000000 0.000000
0.000000 0.000000 0.000000
0.000000 0.000000 0.000000
0.000000 0.000000 0.000000
0.000000 0.000000 0.000000
0.000000 0.000000 0.000000
0.000000 0.000000 0.000000
0.000000 0.000000 0.000000
0.000000 0.000000 0.000000
0.000000 0.000000 0.000000
0.000000 0.000000 0.000000
0.000000 0.000000 0.000000
0.000000 0.000000 0.000000
0.000000 0.000000 0.000000
0.000000 0.000000 0.000000
0.000000 0.000000 0.000000
0.000000 0.000000 0.000000
0.000000 0.000000 0.000000
0.000000 0.000000 0.000000
0.000000 0.000000 0.000000
0.000000 0.000000 0.000000
0.000000 0.000000 0.000000
0.000000 0.000000 0.000000
0.000000 0.000000 0.000000
0.000000 0.000000 0.000000
0.000000 0.000000 0.000000
0.000000 0.000000 0.000000
0.000000 0.000000 0.000000
0.000000 0.000000 0.000000
0.000000 0.000000 0.000000
0.000000 0.000000 0.000000
0.000000 0.000000 0.000000
0.000000 0.000000 0.000000
0.000000 0.000000 0.000000
0.000000 0.000000 0.000000
0.000000 0.000000 0.000000
0.000000 0.000000 0.000000
0.000000 0.000000 0.000000
0.000000 0.000000 0.000000
0.000000 0.000000 0.000000
0.000000 0.000000 0.000000
0.000000 0.000000 0.000000
0.000000 0.000000 0.000000
0.000000 0.000000 0.000000
0.000000 0.000000 0.000000
0.000000 0.000000 0.000000
0.000000 0.000000 0.000000
0.000000 0.000000 0.000000
0.000000 0.000000 0.000000
0.000000 0.000000 0.000000
0.000000 0.000000 0.000000
0.000000 0.000000 0.000000
0.000000 0.000000 0.000000
0.000000 0.000000 0.000000
0.000000 0.000000 0.000000
0.000000 0.000000 0.000000
0.000000 0.000000 0.000000
0.000000 0.000000 0.000000
0.000000 0.000000 0.000000
0.000000 0.000000 0.000000
0.000000 0.000000 0.000000
0.000000 0.000000 0.000000
0.000000 0.000000 0.000000
0.000000 0.000000 0.000000
0.000000 0.000000 0.000000
0.000000 0.000000 0.000000
0.000000 0.000000 0.000000
0.000000 0.000000 0.000000
0.000000 0.000000 0.000000
0.000000 0.000000 0.000000
0.000000 0.000000 0.000000
0.000000 0.000000 0.000000
0.000000 0.000000 0.000000
0.000000 0.000000 0.000000
0.000000 0.000000 0.000000
0.000000 0.000000 0.000000
0.000000 0.000000 0.000000
0.000000 0.000000 0.000000
0.000000 0.000000 0.000000
0.000000 0.000000 0.000000
0.000000 0.000000 0.000000
0.000000 0.000000 0.000000
0.000000 0.000000 0.000000
0.000000 0.000000 0.000000
0.000000 0.000000 0.000000
0.000000 0.000000 0.000000
0.000000 0.000000 0.000000
0.000000 0.000000 0.000000
0.000000 0.000000 0.000000
0.000000 0.000000 0.000000
0.000000 0.000000 0.000000
0.000000 0.000000 0.000000
0.000000 0.000000 0.000000
0.000000 0.000000 0.000000
0.000000 0.000000 0.000000
0.000000 0.000000 0.000000
0.000000 0.000000 0.000000
0.000000 0.000000 0.000000
0.000000 0.000000 0.000000
0.000000 0.000000 0.000000
0.000000 0.000000 0.000000
0.000000 0.000000 0.000000
0.000000 0.000000 0.000000
0.000000 0.000000 0.000000
0.000000 0.000000 0.000000
0.000000 0.000000 0.000000
0.000000 0.000000 0.000000
0.000000 0.000000 0.000000
0.000000 0.000000 0.000000
0.000000 0.000000 0.000000
0.000000 0.000000 0.000000
0.000000 0.000000 0.000000
0.000000 0.000000 0.000000
0.000000 0.000000 0.000000
0.000000 0.000000 0.000000
0.000000 0.000000 0.000000
0.000000 0.000000 0.000000
0.000000 0.000000 0.000000
0.000000 0.000000 0.000000
0.000000 0.000000 0.000000
0.000000 0.000000 0.000000
0.000000 0.000000 0.000000
0.000000 0.000000 0.000000
0.000000 0.000000 0.000000
0.000000 0.000000 0.000000
0.000000 0.000000 0.000000
0.000000 0.000000 0.000000
0.000000 0.000000 0.000000
0.000000 0.000000 0.000000
0.000000 0.000000 0.000000
0.000000 0.000000 0.000000
0.000000 0.000000 0.000000
0.000000 0.000000 0.000000
0.000000 0.000000 0.000000
0.000000 0.000000 0.000000
0.000000 0.000000 0.000000
0.000000 0.000000 0.000000
0.000000 0.000000 0.000000
0.000000 0.000000 0.000000
0.000000 0.000000 0.000000
0.000000 0.000000 0.000000
0.000000 0.000000 0.000000
0.000000 0.000000 0.000000
0.000000 0.000000 0.000000
0.000000 0.000000 0.000000
0.000000 0.000000 0.000000
0.000000 0.000000 0.000000
0.000000 0.000000 0.000000
0.000000 0.000000 0.000000
0.000000 0.000000 0.000000
0.000000 0.000000 0.000000
0.000000 0.000000 0.000000
0.000000 0.000000 0.000000
0.000000 0.000000 0.000000
0.000000 0.000000 0.000000
0.000000 0.000000 0.000000
0.000000 0.000000 0.000000
0.000000 0.000000 0.000000
0.000000 0.000000 0.000000
0.000000 0.000000 0.000000
0.000000 0.000000 0.000000
0.000000 0.000000 0.000000
0.000000 0.000000 0.000000
0.000000 0.000000 0.000000
0.000000 0.000000 0.000000
0.000000 0.000000 0.000000
0.000000 0.000000 0.000000
0.000000 0.000000 0.000000
0.000000 0.000000 0.000000
0.000000 0.000000 0.000000
0.000000 0.000000 0.000000
0.000000 0.000000 0.000000
0.000000 0.000000 0.000000
0.000000 0.000000 0.000000
0.000000 0.000000 0.000000
0.000000 0.000000 0.000000
0.000000 0.000000 0.000000
0.000000 0.000000 0.000000
0.000000 0.000000 0.000000
0.000000 0.000000 0.000000
0.000000 0.000000 0.000000
0.000000 0.000000 0.000000
0.000000 0.000000 0.000000
0.000000 0.000000 0.000000
0.000000 0.000000 0.000000
0.000000 0.000000 0.000000
0.000000 0.000000 0.000000
0.000000 0.000000 0.000000
0.000000 0.000000 0.000000
0.000000 0.000000 0.000000
0.000000 0.000000 0.000000
0.000000 0.000000 0.000000
0.000000 0.000000 0.000000
0.000000 0.000000 0.000000
0.000000 0.000000 0.000000
0.000000 0.000000 0.000000
0.000000 0.000000 0.000000
0.000000 0.000000 0.000000
0.000000 0.000000 0.000000
0.000000 0.000000 0.000000
0.000000 0.000000 0.000000
0.000000 0.000000 0.000000
0.000000 0.000000 0.000000
0.000000 0.000000 0.000000
0.000000 0.000000 0.000000
0.000000 0.000000 0.000000
0.000000 0.000000 0.000000
0.000000 0.000000 0.000000
0.000000 0.000000 0.000000
0.000000 0.000000 0.000000
0.000000 0.000000 0.000000
0.000000 0.000000 -50.000000
-50.000000 0.000000 -50.000000
-43.341900 0.000000 -45.687708
-45.526582 0.000000 -43.283033
-50.000000 0.000000 -50.000000
-36.682370 0.000000 -36.566756
-50.000000 0.000000 -45.079480
-40.036026 0.000000 -40.018183
-44.198966 0.000000 -29.851321
-50.000000 0.000000 -50.000000
-30.022002 0.000000 -44.845191
-33.554540 0.000000 -33.113293
-44.721016 0.000000 -39.854251
-36.875467 0.000000 -35.105961
-39.879525 0.000000 -23.137809
-50.000000 0.000000 -26.493920
-44.710545 0.000000 -50.000000
-23.362613 0.000000 -44.661700
-26.952388 0.000000 -39.347009
-30.357365 0.000000 -29.571716
-39.439481 0.000000 -33.338846
-33.773132 0.000000 -50.000000
-16.702660 0.000000 -16.433780
-50.000000 0.000000 -9.741175
