# vtk DataFile Version 2.0
CellBP Time: 3.2
ASCII
DATASET UNSTRUCTURED_GRID
POINTS 320 double
-50.000000 -50.000000 0.000000
-50.000000 -43.344229 0.000000
-45.686942 -45.528004 0.000000
-43.282064 -50.000000 0.000000
-50.000000 -36.687303 0.000000
-36.564456 -50.000000 0.000000
-45.078417 -40.039388 0.000000
-40.016178 -44.200983 0.000000
-29.847749 -50.000000 0.000000
-50.000000 -30.029630 0.000000
-44.843670 -33.560327 0.000000
-33.109847 -44.723156 0.000000
-39.851646 -36.880317 0.000000
-35.102480 -39.883436 0.000000
-23.132857 -50.000000 0.000000
-26.488989 -44.712992 0.000000
-50.000000 -23.372832 0.000000
-44.659694 -26.960635 0.000000
-39.343508 -30.364622 0.000000
-29.567026 -39.444066 0.000000
-33.334081 -33.779615 0.000000
-50.000000 -16.715269 0.000000
-16.427414 -50.000000 0.000000
-9.733447 -50.000000 0.000000
-19.902743 -44.632122 0.000000
-23.157995 -39.199473 0.000000
-44.684509 -20.296655 0.000000
-39.343863 -23.711257 0.000000
-34.063970 -27.106341 0.000000
-26.332736 -33.705285 0.000000
-29.100395 -29.088653 0.000000
-50.000000 -10.059053 0.000000
-44.655692 -13.652338 0.000000
-50.000000 -3.406307 0.000000
-3.050333 -50.000000 0.000000
3.618746 -50.000000 0.000000
-13.271116 -44.638246 0.000000
-6.603145 -44.647855 0.000000
-16.618339 -39.231377 0.000000
-20.034092 -33.469350 0.000000
-39.308878 -17.032477 0.000000
-33.974220 -20.490917 0.000000
-28.717587 -23.654641 0.000000
-23.431671 -27.533055 0.000000
-44.617930 -6.989863 0.000000
-39.250309 -10.379828 0.000000
-50.000000 3.250395 0.000000
-44.600957 -0.339303 0.000000
10.272051 -50.000000 0.000000
16.911314 -50.000000 0.000000
0.072170 -44.651573 0.000000
6.742175 -44.661732 0.000000
-9.953334 -39.298288 0.000000
-3.266855 -39.292519 0.000000
-13.389602 -33.916566 0.000000
-16.605981 -28.445006 0.000000
-33.883604 -13.789537 0.000000
-28.519869 -17.154929 0.000000
-23.195000 -20.557866 0.000000
-18.553070 -23.504097 0.000000
-39.207606 -3.725586 0.000000
-33.810554 -7.145027 0.000000
-50.000000 9.942279 0.000000
-44.583042 6.316168 0.000000
-39.183867 2.935201 0.000000
-50.000000 16.705729 0.000000
23.540471 -50.000000 0.000000
30.161795 -50.000000 0.000000
13.405001 -44.682627 0.000000
20.068782 -44.714596 0.000000
3.413180 -39.307708 0.000000
10.075274 -39.341233 0.000000
-6.623102 -33.904147 0.000000
0.085230 -33.930961 0.000000
-9.968974 -28.454675 0.000000
-12.993643 -23.116391 0.000000
-28.411564 -10.549551 0.000000
-22.931212 -13.974203 0.000000
-16.838218 -17.481787 0.000000
-33.751942 -0.507558 0.000000
-28.391815 -3.997488 0.000000
-44.546497 13.010509 0.000000
-39.119990 9.565532 0.000000
-33.714764 6.028057 0.000000
-50.000000 23.573235 0.000000
-44.591841 19.809056 0.000000
-50.000000 30.536388 0.000000
36.775155 -50.000000 0.000000
43.387711 -50.000000 0.000000
26.728867 -44.754179 0.000000
33.364650 -44.878427 0.000000
16.726266 -39.397316 0.000000
23.406875 -39.466900 0.000000
6.759663 -33.964805 0.000000
13.399524 -34.032309 0.000000
-3.209654 -28.504250 0.000000
3.492302 -28.575177 0.000000
-6.476111 -23.038220 0.000000
-9.813742 -17.565748 0.000000
-22.992646 -7.404368 0.000000
-17.613413 -10.671767 0.000000
-12.646788 -12.889392 0.000000
-28.351574 2.564219 0.000000
-22.996778 -0.953401 0.000000
-38.984668 16.258934 0.000000
-28.320098 9.259846 0.000000
-33.501365 12.433923 0.000000
-44.735497 26.582852 0.000000
-38.702334 23.620907 0.000000
-44.983851 33.388700 0.000000
-50.000000 37.488920 0.000000
-50.000000 43.854624 0.000000
39.950192 -45.072023 0.000000
45.480042 -45.660577 0.000000
50.000000 -50.000000 0.000000
36.667189 -39.997782 0.000000
30.071001 -39.480606 0.000000
19.996972 -34.143268 0.000000
26.658896 -34.358845 0.000000
10.115347 -28.612600 0.000000
16.721101 -28.734248 0.000000
0.211550 -23.122588 0.000000
6.961244 -23.292232 0.000000
-3.220565 -17.519840 0.000000
-6.653228 -11.347764 0.000000
-17.603165 -4.243997 0.000000
-12.285203 -7.388337 0.000000
-22.929473 5.484603 0.000000
-17.685443 1.965028 0.000000
-22.597368 11.425567 0.000000
-33.296418 18.465441 0.000000
-27.370323 16.075424 0.000000
-33.016524 23.807231 0.000000
-40.291114 30.515811 0.000000
-35.386853 28.935933 0.000000
-39.906145 35.489530 0.000000
-43.910016 40.162256 0.000000
-45.266630 45.762972 0.000000
-50.000000 50.000000 0.000000
44.128787 -39.908376 0.000000
50.000000 -43.387886 0.000000
39.666500 -35.071370 0.000000
33.514433 -33.457952 0.000000
23.075962 -28.879908 0.000000
28.803592 -29.296697 0.000000
13.590298 -23.224603 0.000000
20.165337 -23.522152 0.000000
3.572077 -17.757891 0.000000
10.282561 -17.964762 0.000000
0.347641 -12.268935 0.000000
-1.905338 -6.572025 0.000000
-7.125601 -4.052502 0.000000
-12.305997 -1.198369 0.000000
-17.693227 8.000020 0.000000
-12.576041 4.783163 0.000000
-17.966467 13.109854 0.000000
-20.723098 16.776991 0.000000
-27.995765 22.482928 0.000000
-23.311331 20.969148 0.000000
-29.710439 28.629360 0.000000
-34.132042 34.070804 0.000000
-36.845357 39.934665 0.000000
-39.616335 45.263062 0.000000
-43.394169 50.000000 0.000000
44.595263 -32.999750 0.000000
50.000000 -36.762829 0.000000
39.165216 -29.616846 0.000000
33.560771 -26.417244 0.000000
27.269550 -23.390685 0.000000
23.171241 -18.734638 0.000000
17.119784 -17.081521 0.000000
6.896502 -12.372395 0.000000
12.507683 -12.852722 0.000000
-3.079023 -1.782535 0.000000
4.173979 -7.255758 0.000000
1.300340 -2.348561 0.000000
-6.703123 2.014470 0.000000
-8.048203 7.508744 0.000000
-12.302933 11.521209 0.000000
-15.029261 17.284621 0.000000
-18.440856 22.696115 0.000000
-23.542915 27.184862 0.000000
-26.917529 33.587219 0.000000
-30.017639 39.300551 0.000000
-33.093284 44.831193 0.000000
-36.624534 50.000000 0.000000
44.563788 -26.538407 0.000000
50.000000 -30.140244 0.000000
39.081139 -23.229071 0.000000
33.519431 -19.960048 0.000000
28.134997 -16.656208 0.000000
22.806692 -13.222385 0.000000
17.329973 -10.030883 0.000000
11.143318 -6.791860 0.000000
-1.084121 2.078273 0.000000
6.492169 -1.899699 0.000000
3.187648 1.410367 0.000000
-3.211456 6.974821 0.000000
-5.861032 12.166460 0.000000
-9.076962 17.410203 0.000000
-12.527435 22.862907 0.000000
-16.752682 28.010222 0.000000
-20.143478 33.338150 0.000000
-23.272851 38.977602 0.000000
-26.416318 44.603569 0.000000
-29.870735 50.000000 0.000000
44.548741 -19.977247 0.000000
50.000000 -23.510729 0.000000
39.086818 -16.653279 0.000000
33.659225 -13.353246 0.000000
28.264801 -10.060381 0.000000
22.873335 -6.717141 0.000000
17.450345 -3.471174 0.000000
12.287472 0.040474 0.000000
2.245522 6.096134 0.000000
7.371429 3.698734 0.000000
0.191447 11.768020 0.000000
-2.810029 17.299750 0.000000
-6.201514 22.788901 0.000000
-10.087553 28.110226 0.000000
-13.301582 33.528534 0.000000
-16.566727 38.982226 0.000000
-19.755463 44.494328 0.000000
-23.163814 50.000000 0.000000
44.562091 -13.354513 0.000000
50.000000 -16.872003 0.000000
39.139653 -10.030567 0.000000
33.739845 -6.719253 0.000000
28.365677 -3.405051 0.000000
23.018538 -0.096142 0.000000
17.764047 3.235245 0.000000
12.513366 6.445484 0.000000
7.081034 10.682845 0.000000
3.684889 17.012490 0.000000
0.325371 22.693474 0.000000
-3.114381 28.189763 0.000000
-6.454956 33.674405 0.000000
-9.792985 39.097915 0.000000
-13.091320 44.524248 0.000000
-16.530239 50.000000 0.000000
44.585599 -6.706217 0.000000
50.000000 -10.220884 0.000000
39.189886 -3.386310 0.000000
33.817111 -0.068886 0.000000
28.479553 3.251730 0.000000
23.198434 6.590091 0.000000
18.078461 9.913985 0.000000
12.944198 12.087290 0.000000
10.101440 17.102192 0.000000
6.806057 22.605748 0.000000
3.522945 28.174899 0.000000
0.210279 33.664497 0.000000
-3.118266 39.117737 0.000000
-6.418209 44.555205 0.000000
-9.888429 50.000000 0.000000
44.610980 -0.047466 0.000000
50.000000 -3.556702 0.000000
39.239427 3.270767 0.000000
33.892349 6.585471 0.000000
28.582277 9.915857 0.000000
23.248654 13.329954 0.000000
17.194138 16.929736 0.000000
13.169475 22.583982 0.000000
10.089023 28.161700 0.000000
6.878699 33.666487 0.000000
3.554832 39.129341 0.000000
0.241966 44.567667 0.000000
-3.238373 50.000000 0.000000
44.625173 6.621298 0.000000
50.000000 3.119908 0.000000
39.274045 9.929484 0.000000
33.958826 13.220459 0.000000
28.696318 16.523067 0.000000
23.573898 20.020525 0.000000
18.751609 23.047149 0.000000
16.614492 28.244828 0.000000
13.555542 33.716672 0.000000
10.215125 39.158852 0.000000
6.903474 44.575593 0.000000
3.415066 50.000000 0.000000
44.648774 13.280571 0.000000
50.000000 9.807501 0.000000
39.326364 16.570713 0.000000
34.041721 19.821019 0.000000
28.755077 22.882589 0.000000
23.452590 27.166062 0.000000
20.085984 33.274517 0.000000
16.765781 39.023130 0.000000
13.473313 44.520465 0.000000
10.071598 50.000000 0.000000
44.671560 19.942705 0.000000
50.000000 16.502536 0.000000
39.370525 23.229695 0.000000
34.147995 26.485639 0.000000
29.102039 28.508000 0.000000
26.348980 33.383182 0.000000
23.223772 38.952330 0.000000
20.058697 44.501409 0.000000
16.726214 50.000000 0.000000
44.678938 26.619484 0.000000
50.000000 23.200935 0.000000
39.363811 29.943443 0.000000
33.318566 33.353201 0.000000
29.533677 39.031733 0.000000
26.556523 44.501466 0.000000
23.379821 50.000000 0.000000
44.812314 33.275129 0.000000
50.000000 29.900827 0.000000
39.802212 36.584009 0.000000
34.921482 39.517501 0.000000
32.931894 44.509773 0.000000
30.034274 50.000000 0.000000
45.012928 39.869646 0.000000
50.000000 36.601177 0.000000
39.799119 43.965647 0.000000
36.687274 50.000000 0.000000
45.650904 45.408461 0.000000
50.000000 43.300711 0.000000
43.340423 50.000000 0.000000
50.000000 50.000000 0.000000
CELLS 578 2312
3 1 0 2
3 0 3 2
3 4 1 6
3 6 1 2
3 3 5 7
3 3 7 2
3 6 2 7
3 9 4 10
3 10 4 6
3 5 8 11
3 7 5 11
3 10 6 12
3 12 6 7
3 7 11 13
3 7 13 12
3 8 14 15
3 11 8 15
3 16 9 17
3 17 9 10
3 17 10 18
3 18 10 12
3 11 15 19
3 13 11 19
3 18 12 20
3 13 19 20
3 20 12 13
3 14 22 24
3 15 14 24
3 15 24 25
3 19 15 25
3 21 16 26
3 26 16 17
3 26 17 27
3 27 17 18
3 27 18 28
3 28 18 20
3 19 25 29
3 19 29 20
3 28 20 30
3 30 20 29
3 31 21 32
3 32 21 26
3 22 23 36
3 24 22 36
3 23 34 37
3 36 23 37
3 24 36 38
3 25 24 38
3 25 38 39
3 29 25 39
3 32 26 40
3 40 26 27
3 40 27 41
3 41 27 28
3 41 28 42
3 42 28 30
3 29 39 43
3 29 43 30
3 42 30 43
3 33 31 44
3 44 31 32
3 44 32 45
3 45 32 40
3 46 33 47
3 47 33 44
3 34 35 50
3 37 34 50
3 35 48 51
3 50 35 51
3 36 37 52
3 38 36 52
3 37 50 53
3 52 37 53
3 38 52 54
3 39 38 54
3 39 54 55
3 43 39 55
3 45 40 56
3 56 40 41
3 56 41 57
3 57 41 42
3 57 42 58
3 58 42 43
3 43 55 59
3 43 59 58
3 47 44 60
3 60 44 45
3 60 45 61
3 61 45 56
3 62 46 63
3 63 46 47
3 63 47 64
3 64 47 60
3 48 49 68
3 51 48 68
3 49 66 69
3 68 49 69
3 50 51 70
3 53 50 70
3 51 68 71
3 70 51 71
3 52 53 72
3 54 52 72
3 53 70 73
3 72 53 73
3 54 72 74
3 55 54 74
3 55 74 75
3 59 55 75
3 61 56 76
3 76 56 57
3 76 57 77
3 77 57 58
3 77 58 78
3 59 75 78
3 78 58 59
3 64 60 79
3 79 60 61
3 79 61 80
3 80 61 76
3 65 62 81
3 81 62 63
3 81 63 82
3 82 63 64
3 82 64 83
3 83 64 79
3 84 65 85
3 85 65 81
3 66 67 89
3 69 66 89
3 67 87 90
3 89 67 90
3 68 69 91
3 71 68 91
3 69 89 92
3 91 69 92
3 70 71 93
3 73 70 93
3 71 91 94
3 93 71 94
3 72 73 95
3 74 72 95
3 73 93 96
3 95 73 96
3 74 95 97
3 75 74 97
3 75 97 98
3 78 75 98
3 80 76 99
3 99 76 77
3 99 77 100
3 100 77 78
3 100 78 101
3 98 101 78
3 83 79 102
3 102 79 80
3 102 80 103
3 103 80 99
3 85 81 104
3 104 81 82
3 105 83 102
3 104 82 106
3 106 82 83
3 106 83 105
3 86 84 107
3 107 84 85
3 107 85 108
3 108 85 104
3 109 86 107
3 110 86 109
3 87 88 112
3 90 87 112
3 112 88 113
3 88 114 113
3 90 112 115
3 89 90 116
3 92 89 116
3 116 90 115
3 91 92 117
3 94 91 117
3 92 116 118
3 117 92 118
3 93 94 119
3 96 93 119
3 94 117 120
3 119 94 120
3 95 96 121
3 97 95 121
3 96 119 122
3 121 96 122
3 97 121 123
3 98 97 123
3 98 123 124
3 98 124 101
3 103 99 125
3 125 99 100
3 125 100 126
3 126 100 101
3 126 101 124
3 105 102 127
3 127 102 103
3 127 103 128
3 128 103 125
3 129 105 127
3 108 104 130
3 130 104 106
3 130 106 131
3 131 106 105
3 131 105 129
3 108 130 132
3 109 107 133
3 133 107 108
3 133 108 134
3 108 132 134
3 135 109 133
3 111 110 136
3 136 110 109
3 136 109 135
3 137 111 136
3 138 111 137
3 112 113 139
3 115 112 139
3 114 140 113
3 140 139 113
3 139 141 115
3 116 115 142
3 118 116 142
3 142 115 141
3 117 118 143
3 120 117 143
3 118 142 144
3 143 118 144
3 119 120 145
3 122 119 145
3 120 143 146
3 145 120 146
3 121 122 147
3 123 121 147
3 122 145 148
3 147 122 148
3 123 147 149
3 124 123 149
3 124 149 150
3 151 126 124
3 124 150 151
3 128 125 152
3 152 125 126
3 152 126 151
3 129 127 153
3 153 127 128
3 128 152 154
3 153 128 154
3 155 129 153
3 131 129 156
3 156 129 155
3 132 130 157
3 130 131 157
3 157 131 158
3 131 156 158
3 132 157 159
3 132 159 134
3 135 133 160
3 160 133 134
3 160 134 159
3 136 135 161
3 135 160 161
3 162 137 136
3 161 162 136
3 163 138 137
3 162 163 137
3 139 164 141
3 140 165 139
3 139 165 164
3 141 164 166
3 141 166 142
3 166 167 142
3 144 142 167
3 167 168 144
3 143 144 168
3 146 143 168
3 168 169 146
3 145 146 170
3 148 145 170
3 170 146 169
3 147 148 171
3 149 147 171
3 148 170 172
3 171 148 172
3 173 151 150
3 149 171 174
3 150 149 174
3 150 174 175
3 150 175 173
3 154 152 176
3 152 151 176
3 176 151 173
3 154 176 177
3 155 153 178
3 177 178 154
3 154 178 153
3 156 155 179
3 155 178 179
3 180 158 156
3 179 180 156
3 181 159 157
3 180 181 158
3 181 157 158
3 182 160 159
3 181 182 159
3 183 161 160
3 182 183 160
3 184 162 161
3 184 161 183
3 185 163 162
3 184 185 162
3 164 186 166
3 165 187 164
3 164 187 186
3 166 186 188
3 166 188 167
3 167 188 189
3 167 189 168
3 168 189 190
3 168 190 169
3 169 190 191
3 169 191 170
3 192 172 170
3 170 191 192
3 192 193 172
3 171 172 193
3 174 171 193
3 194 173 175
3 176 173 194
3 175 174 195
3 193 195 174
3 195 196 175
3 175 196 194
3 197 177 176
3 194 197 176
3 198 178 177
3 197 198 177
3 199 179 178
3 198 199 178
3 200 180 179
3 199 200 179
3 201 181 180
3 200 201 180
3 202 182 181
3 201 202 181
3 203 183 182
3 202 203 182
3 204 184 183
3 203 204 183
3 205 185 184
3 204 205 184
3 186 206 188
3 187 207 186
3 186 207 206
3 188 206 208
3 188 208 189
3 189 208 209
3 189 209 190
3 190 209 210
3 190 210 191
3 191 210 211
3 191 211 192
3 192 211 212
3 192 212 193
3 193 212 213
3 193 213 195
3 214 197 194
3 214 194 196
3 195 213 215
3 195 215 196
3 196 215 214
3 216 198 197
3 214 216 197
3 217 199 198
3 216 217 198
3 218 200 199
3 217 218 199
3 219 201 200
3 218 219 200
3 220 202 201
3 219 220 201
3 221 203 202
3 220 221 202
3 222 204 203
3 221 222 203
3 223 205 204
3 222 223 204
3 206 224 208
3 207 225 206
3 206 225 224
3 208 224 226
3 208 226 209
3 209 226 227
3 209 227 210
3 210 227 228
3 210 228 211
3 211 228 229
3 211 229 212
3 212 229 230
3 212 230 213
3 213 230 231
3 213 231 215
3 232 216 214
3 215 231 232
3 232 214 215
3 233 217 216
3 232 233 216
3 234 218 217
3 233 234 217
3 235 219 218
3 234 235 218
3 236 220 219
3 235 236 219
3 237 221 220
3 236 237 220
3 238 222 221
3 237 238 221
3 239 223 222
3 238 239 222
3 224 240 226
3 225 241 224
3 224 241 240
3 226 240 242
3 226 242 227
3 227 242 243
3 227 243 228
3 228 243 244
3 228 244 229
3 244 245 229
3 229 245 230
3 230 245 246
3 230 246 231
3 231 246 247
3 231 247 232
3 248 233 232
3 248 232 247
3 249 234 233
3 248 249 233
3 250 235 234
3 249 250 234
3 251 236 235
3 250 251 235
3 252 237 236
3 251 252 236
3 253 238 237
3 252 253 237
3 254 239 238
3 253 254 238
3 240 255 242
3 241 256 240
3 240 256 255
3 242 255 257
3 242 257 243
3 243 257 258
3 243 258 244
3 244 258 259
3 244 259 245
3 245 259 260
3 245 260 246
3 246 260 261
3 246 261 247
3 248 247 261
3 262 249 248
3 261 262 248
3 263 250 249
3 262 263 249
3 264 251 250
3 263 264 250
3 265 252 251
3 264 265 251
3 266 253 252
3 265 266 252
3 267 254 253
3 266 267 253
3 255 268 257
3 256 269 255
3 255 269 268
3 257 268 270
3 257 270 258
3 258 270 271
3 258 271 259
3 259 271 272
3 259 272 260
3 260 272 273
3 260 273 261
3 274 262 261
3 261 273 274
3 275 263 262
3 274 275 262
3 276 264 263
3 275 276 263
3 277 265 264
3 276 277 264
3 278 266 265
3 277 278 265
3 279 267 266
3 278 279 266
3 268 280 270
3 269 281 268
3 268 281 280
3 270 280 282
3 270 282 271
3 271 282 283
3 271 283 272
3 283 284 272
3 272 284 273
3 285 275 274
3 273 284 285
3 285 274 273
3 286 276 275
3 285 286 275
3 287 277 276
3 286 287 276
3 288 278 277
3 287 288 277
3 289 279 278
3 288 289 278
3 280 290 282
3 281 291 280
3 280 291 290
3 282 290 292
3 282 292 283
3 283 292 293
3 283 293 284
3 284 293 294
3 284 294 285
3 295 286 285
3 295 285 294
3 296 287 286
3 295 296 286
3 297 288 287
3 296 297 287
3 298 289 288
3 297 298 288
3 290 299 292
3 291 300 290
3 290 300 299
3 292 299 301
3 292 301 293
3 293 301 302
3 293 302 294
3 294 302 295
3 303 296 295
3 303 295 302
3 304 297 296
3 303 304 296
3 305 298 297
3 304 305 297
3 299 306 301
3 300 307 299
3 299 307 306
3 301 306 308
3 301 308 302
3 309 303 302
3 302 308 309
3 310 304 303
3 309 310 303
3 311 305 304
3 310 311 304
3 306 312 308
3 307 313 306
3 306 313 312
3 314 310 309
3 308 312 314
3 314 309 308
3 315 311 310
3 314 315 310
3 312 316 314
3 313 317 312
3 312 317 316
3 318 315 314
3 318 314 316
3 317 319 316
3 319 318 316
CELL_TYPES 578
5
5
5
5
5
5
5
5
5
5
5
5
5
5
5
5
5
5
5
5
5
5
5
5
5
5
5
5
5
5
5
5
5
5
5
5
5
5
5
5
5
5
5
5
5
5
5
5
5
5
5
5
5
5
5
5
5
5
5
5
5
5
5
5
5
5
5
5
5
5
5
5
5
5
5
5
5
5
5
5
5
5
5
5
5
5
5
5
5
5
5
5
5
5
5
5
5
5
5
5
5
5
5
5
5
5
5
5
5
5
5
5
5
5
5
5
5
5
5
5
5
5
5
5
5
5
5
5
5
5
5
5
5
5
5
5
5
5
5
5
5
5
5
5
5
5
5
5
5
5
5
5
5
5
5
5
5
5
5
5
5
5
5
5
5
5
5
5
5
5
5
5
5
5
5
5
5
5
5
5
5
5
5
5
5
5
5
5
5
5
5
5
5
5
5
5
5
5
5
5
5
5
5
5
5
5
5
5
5
5
5
5
5
5
5
5
5
5
5
5
5
5
5
5
5
5
5
5
5
5
5
5
5
5
5
5
5
5
5
5
5
5
5
5
5
5
5
5
5
5
5
5
5
5
5
5
5
5
5
5
5
5
5
5
5
5
5
5
5
5
5
5
5
5
5
5
5
5
5
5
5
5
5
5
5
5
5
5
5
5
5
5
5
5
5
5
5
5
5
5
5
5
5
5
5
5
5
5
5
5
5
5
5
5
5
5
5
5
5
5
5
5
5
5
5
5
5
5
5
5
5
5
5
5
5
5
5
5
5
5
5
5
5
5
5
5
5
5
5
5
5
5
5
5
5
5
5
5
5
5
5
5
5
5
5
5
5
5
5
5
5
5
5
5
5
5
5
5
5
5
5
5
5
5
5
5
5
5
5
5
5
5
5
5
5
5
5
5
5
5
5
5
5
5
5
5
5
5
5
5
5
5
5
5
5
5
5
5
5
5
5
5
5
5
5
5
5
5
5
5
5
5
5
5
5
5
5
5
5
5
5
5
5
5
5
5
5
5
5
5
5
5
5
5
5
5
5
5
5
5
5
5
5
5
5
5
5
5
5
5
5
5
5
5
5
5
5
5
5
5
5
5
5
5
5
5
5
5
5
5
5
5
5
5
5
5
5
5
5
5
5
5
5
5
5
5
5
5
5
5
5
5
5
5
5
5
5
5
5
5
5
5
5
5
5
5
5
5
5
5
5
5
5
5
5
5
5
5
5
5
5
5
5
5
5
5
5
5
5
5
5
5
5
5
5
5
5
5
5
5
5
5
5
5
5
5
5
5
5
5
5
5
5
5
5
5
5
5
POINT_DATA 320
SCALARS theta_e float 1
LOOKUP_TABLE default
0.993558
0.993568
0.993558
0.993549
0.993591
0.993528
0.993574
0.993549
0.993489
0.993637
0.993609
0.993516
0.993578
0.993548
0.993439
0.993473
0.993707
0.993666
0.993625
0.993519
0.993577
0.993806
0.993378
0.993306
0.993418
0.993471
0.993751
0.993698
0.993647
0.993534
0.993596
0.993928
0.993862
0.994063
0.993224
0.993139
0.993349
0.993270
0.993407
0.993477
0.993796
0.993730
0.993657
0.993563
0.993992
0.993919
0.994198
0.994128
0.993058
0.992990
0.993185
0.993101
0.993327
0.993241
0.993396
0.993470
0.993834
0.993734
0.993626
0.993537
0.994054
0.993954
0.994322
0.994259
0.994188
0.994431
0.992942
0.992917
0.993027
0.992969
0.993154
0.993075
0.993310
0.993222
0.993383
0.993473
0.993821
0.993689
0.993586
0.994082
0.993928
0.994375
0.994310
0.994210
0.994521
0.994473
0.994587
0.992910
0.992912
0.992932
0.992915
0.993010
0.992962
0.993138
0.993065
0.993299
0.993218
0.993409
0.993531
0.993790
0.993696
0.993628
0.994052
0.993903
0.994413
0.994185
0.994327
0.994549
0.994495
0.994605
0.994631
0.994656
0.992910
0.992911
0.992912
0.992913
0.992930
0.993006
0.992963
0.993139
0.993068
0.993339
0.993252
0.993467
0.993626
0.993819
0.993784
0.994020
0.993933
0.994136
0.994419
0.994306
0.994479
0.994562
0.994523
0.994601
0.994636
0.994658
0.994666
0.992905
0.992907
0.992907
0.992931
0.993011
0.992971
0.993157
0.993077
0.993375
0.993280
0.993533
0.993560
0.993620
0.993879
0.994021
0.993915
0.994072
0.994219
0.994424
0.994348
0.994488
0.994551
0.994604
0.994637
0.994655
0.992896
0.992897
0.992914
0.992955
0.993017
0.993085
0.993171
0.993397
0.993311
0.993812
0.993477
0.993607
0.993882
0.993912
0.993995
0.994116
0.994280
0.994416
0.994489
0.994549
0.994595
0.994625
0.992900
0.992888
0.992936
0.992996
0.993061
0.993137
0.993256
0.993384
0.993694
0.993532
0.993492
0.993806
0.993908
0.994003
0.994169
0.994328
0.994415
0.994476
0.994531
0.994572
0.992923
0.992898
0.992978
0.993051
0.993118
0.993204
0.993348
0.993449
0.993668
0.993721
0.993827
0.993875
0.994051
0.994210
0.994321
0.994386
0.994446
0.994496
0.992970
0.992932
0.993040
0.993117
0.993191
0.993295
0.993428
0.993520
0.993724
0.993784
0.993938
0.994082
0.994204
0.994277
0.994340
0.994399
0.993035
0.992986
0.993115
0.993190
0.993274
0.993390
0.993527
0.993623
0.993718
0.993835
0.993953
0.994068
0.994147
0.994216
0.994281
0.993112
0.993056
0.993194
0.993268
0.993359
0.993480
0.993613
0.993732
0.993828
0.993927
0.994008
0.994078
0.994148
0.993191
0.993134
0.993270
0.993345
0.993431
0.993537
0.993634
0.993709
0.993794
0.993869
0.993938
0.994006
0.993267
0.993213
0.993339
0.993413
0.993491
0.993590
0.993674
0.993743
0.993805
0.993868
0.993335
0.993288
0.993397
0.993463
0.993528
0.993583
0.993641
0.993693
0.993746
0.993395
0.993356
0.993446
0.993508
0.993565
0.993608
0.993649
0.993444
0.993414
0.993482
0.993518
0.993550
0.993580
0.993481
0.993460
0.993510
0.993533
0.993500
0.993488
0.993511
0.993502
VECTORS fa_u float
0.000000 0.000000 0.000000
0.000000 0.000000 0.000000
0.000000 0.000000 0.000000
0.000000 0.000000 0.000000
0.000000 0.000000 0.000000
0.000000 0.000000 0.000000
0.000000 0.000000 0.000000
0.000000 0.000000 0.000000
0.000000 0.000000 0.000000
0.000000 0.000000 0.000000
0.000000 0.000000 0.000000
0.000000 0.000000 0.000000
0.000000 0.000000 0.000000
0.000000 0.000000 0.000000
0.000000 0.000000 0.000000
0.000000 0.000000 0.000000
0.000000 0.000000 0.000000
0.000000 0.000000 0.000000
0.000000 0.000000 0.000000
0.000000 0.000000 0.000000
0.000000 0.000000 0.000000
0.000000 0.000000 0.000000
0.000000 0.000000 0.000000
0.000000 0.000000 0.000000
0.000000 0.000000 0.000000
0.000000 0.000000 0.000000
0.000000 0.000000 0.000000
0.000000 0.000000 0.000000
0.000000 0.000000 0.000000
0.000000 0.000000 0.000000
0.000000 0.000000 0.000000
0.000000 0.000000 0.000000
0.000000 0.000000 0.000000
0.000000 0.000000 0.000000
0.000000 0.000000 0.000000
0.000000 0.000000 0.000000
0.000000 0.000000 0.000000
0.000000 0.000000 0.000000
0.000000 0.000000 0.000000
0.000000 0.000000 0.000000
0.000000 0.000000 0.000000
0.000000 0.000000 0.000000
0.000000 0.000000 0.000000
0.000000 0.000000 0.000000
0.000000 0.000000 0.000000
0.000000 0.000000 0.000000
0.000000 0.000000 0.000000
0.000000 0.000000 0.000000
0.000000 0.000000 0.000000
0.000000 0.000000 0.000000
0.000000 0.000000 0.000000
0.000000 0.000000 0.000000
0.000000 0.000000 0.000000
0.000000 0.000000 0.000000
0.000000 0.000000 0.000000
0.000000 0.000000 0.000000
0.000000 0.000000 0.000000
0.000000 0.000000 0.000000
0.000000 0.000000 0.000000
0.000000 0.000000 0.000000
0.000000 0.000000 0.000000
0.000000 0.000000 0.000000
0.000000 0.000000 0.000000
0.000000 0.000000 0.000000
0.000000 0.000000 0.000000
0.000000 0.000000 0.000000
0.000000 0.000000 0.000000
0.000000 0.000000 0.000000
0.000000 0.000000 0.000000
0.000000 0.000000 0.000000
0.000000 0.000000 0.000000
0.000000 0.000000 0.000000
0.000000 0.000000 0.000000
0.000000 0.000000 0.000000
0.000000 0.000000 0.000000
0.000000 0.000000 0.000000
0.000000 0.000000 0.000000
0.000000 0.000000 0.000000
0.000000 0.000000 0.000000
0.000000 0.000000 0.000000
0.000000 0.000000 0.000000
0.000000 0.000000 0.000000
0.000000 0.000000 0.000000
0.000000 0.000000 0.000000
0.000000 0.000000 0.000000
0.000000 0.000000 0.000000
0.000000 0.000000 0.000000
0.000000 0.000000 0.000000
0.000000 0.000000 0.000000
0.000000 0.000000 0.000000
0.000000 0.000000 0.000000
0.000000 0.000000 0.000000
0.000000 0.000000 0.000000
0.000000 0.000000 0.000000
0.000000 0.000000 0.000000
0.000000 0.000000 0.000000
0.000000 0.000000 0.000000
0.000000 0.000000 0.000000
0.000000 0.000000 0.000000
0.000000 0.000000 0.000000
0.000000 0.000000 0.000000
0.000000 0.000000 0.000000
0.000000 0.000000 0.000000
0.000000 0.000000 0.000000
0.000000 0.000000 0.000000
0.000000 0.000000 0.000000
0.000000 0.000000 0.000000
0.000000 0.000000 0.000000
0.000000 0.000000 0.000000
0.000000 0.000000 0.000000
0.000000 0.000000 0.000000
0.000000 0.000000 0.000000
0.000000 0.000000 0.000000
0.000000 0.000000 0.000000
0.000000 0.000000 0.000000
0.000000 0.000000 0.000000
0.000000 0.000000 0.000000
0.000000 0.000000 0.000000
0.000000 0.000000 0.000000
0.000000 0.000000 0.000000
0.000000 0.000000 0.000000
0.000000 0.000000 0.000000
0.000000 0.000000 0.000000
0.000000 0.000000 0.000000
0.000000 0.000000 0.000000
0.000000 0.000000 0.000000
0.000000 0.000000 0.000000
0.000000 0.000000 0.000000
0.000000 0.000000 0.000000
0.000000 0.000000 0.000000
0.000000 0.000000 0.000000
0.000000 0.000000 0.000000
0.000000 0.000000 0.000000
0.000000 0.000000 0.000000
0.000000 0.000000 0.000000
0.000000 0.000000 0.000000
0.000000 0.000000 0.000000
0.000000 0.000000 0.000000
0.000000 0.000000 0.000000
0.000000 0.000000 0.000000
0.000000 0.000000 0.000000
0.000000 0.000000 0.000000
0.000000 0.000000 0.000000
0.000000 0.000000 0.000000
0.000000 0.000000 0.000000
0.000000 0.000000 0.000000
0.000000 0.000000 0.000000
0.000000 0.000000 0.000000
0.000000 0.000000 0.000000
0.000000 0.000000 0.000000
0.000000 0.000000 0.000000
0.000000 0.000000 0.000000
0.000000 0.000000 0.000000
0.000000 0.000000 0.000000
0.000000 0.000000 0.000000
0.000000 0.000000 0.000000
0.000000 0.000000 0.000000
0.000000 0.000000 0.000000
0.000000 0.000000 0.000000
0.000000 0.000000 0.000000
0.000000 0.000000 0.000000
0.000000 0.000000 0.000000
0.000000 0.000000 0.000000
0.000000 0.000000 0.000000
0.000000 0.000000 0.000000
0.000000 0.000000 0.000000
0.000000 0.000000 0.000000
0.000000 0.000000 0.000000
0.000000 0.000000 0.000000
0.000000 0.000000 0.000000
0.000000 0.000000 0.000000
0.000000 0.000000 0.000000
0.000000 0.000000 0.000000
0.000000 0.000000 0.000000
0.000000 0.000000 0.000000
0.000000 0.000000 0.000000
0.000000 0.000000 0.000000
0.000000 0.000000 0.000000
0.000000 0.000000 0.000000
0.000000 0.000000 0.000000
0.000000 0.000000 0.000000
0.000000 0.000000 0.000000
0.000000 0.000000 0.000000
0.000000 0.000000 0.000000
0.000000 0.000000 0.000000
0.000000 0.000000 0.000000
0.000000 0.000000 0.000000
0.000000 0.000000 0.000000
0.000000 0.000000 0.000000
0.000000 0.000000 0.000000
0.000000 0.000000 0.000000
0.000000 0.000000 0.000000
0.000000 0.000000 0.000000
0.000000 0.000000 0.000000
0.000000 0.000000 0.000000
0.000000 0.000000 0.000000
0.000000 0.000000 0.000000
0.000000 0.000000 0.000000
0.000000 0.000000 0.000000
0.000000 0.000000 0.000000
0.000000 0.000000 0.000000
0.000000 0.000000 0.000000
0.000000 0.000000 0.000000
0.000000 0.000000 0.000000
0.000000 0.000000 0.000000
0.000000 0.000000 0.000000
0.000000 0.000000 0.000000
0.000000 0.000000 0.000000
0.000000 0.000000 0.000000
0.000000 0.000000 0.000000
0.000000 0.000000 0.000000
0.000000 0.000000 0.000000
0.000000 0.000000 0.000000
0.000000 0.000000 0.000000
0.000000 0.000000 0.000000
0.000000 0.000000 0.000000
0.000000 0.000000 0.000000
0.000000 0.000000 0.000000
0.000000 0.000000 0.000000
0.000000 0.000000 0.000000
0.000000 0.000000 0.000000
0.000000 0.000000 0.000000
0.000000 0.000000 0.000000
0.000000 0.000000 0.000000
0.000000 0.000000 0.000000
0.000000 0.000000 0.000000
0.000000 0.000000 0.000000
0.000000 0.000000 0.000000
0.000000 0.000000 0.000000
0.000000 0.000000 0.000000
0.000000 0.000000 0.000000
0.000000 0.000000 0.000000
0.000000 0.000000 0.000000
0.000000 0.000000 0.000000
0.000000 0.000000 0.000000
0.000000 0.000000 0.000000
0.000000 0.000000 0.000000
0.000000 0.000000 0.000000
0.000000 0.000000 0.000000
0.000000 0.000000 0.000000
0.000000 0.000000 0.000000
0.000000 0.000000 0.000000
0.000000 0.000000 0.000000
0.000000 0.000000 0.000000
0.000000 0.000000 0.000000
0.000000 0.000000 0.000000
0.000000 0.000000 0.000000
0.000000 0.000000 0.000000
0.000000 0.000000 0.000000
0.000000 0.000000 0.000000
0.000000 0.000000 0.000000
0.000000 0.000000 0.000000
0.000000 0.000000 0.000000
0.000000 0.000000 0.000000
0.000000 0.000000 0.000000
0.000000 0.000000 0.000000
0.000000 0.000000 0.000000
0.000000 0.000000 0.000000
0.000000 0.000000 0.000000
0.000000 0.000000 0.000000
0.000000 0.000000 0.000000
0.000000 0.000000 0.000000
0.000000 0.000000 0.000000
0.000000 0.000000 0.000000
0.000000 0.000000 0.000000
0.000000 0.000000 0.000000
0.000000 0.000000 0.000000
0.000000 0.000000 0.000000
0.000000 0.000000 0.000000
0.000000 0.000000 0.000000
0.000000 0.000000 0.000000
0.000000 0.000000 0.000000
0.000000 0.000000 0.000000
0.000000 0.000000 0.000000
0.000000 0.000000 0.000000
0.000000 0.000000 0.000000
0.000000 0.000000 0.000000
0.000000 0.000000 0.000000
0.000000 0.000000 0.000000
0.000000 0.000000 0.000000
0.000000 0.000000 0.000000
0.000000 0.000000 0.000000
0.000000 0.000000 0.000000
0.000000 0.000000 0.000000
0.000000 0.000000 0.000000
0.000000 0.000000 0.000000
0.000000 0.000000 0.000000
0.000000 0.000000 0.000000
0.000000 0.000000 0.000000
0.000000 0.000000 0.000000
0.000000 0.000000 0.000000
0.000000 0.000000 0.000000
0.000000 0.000000 0.000000
0.000000 0.000000 0.000000
0.000000 0.000000 0.000000
0.000000 0.000000 0.000000
0.000000 0.000000 -50.000000
-50.000000 0.000000 -50.000000
-43.344229 0.000000 -45.686942
-45.528004 0.000000 -43.282064
-50.000000 0.000000 -50.000000
-36.687303 0.000000 -36.564456
-50.000000 0.000000 -45.078417
-40.039388 0.000000 -40.016178
-44.200983 0.000000 -29.847749
-50.000000 0.000000 -50.000000
-30.029630 0.000000 -44.843670
-33.560327 0.000000 -33.109847
-44.723156 0.000000 -39.851646
-36.880317 0.000000 -35.102480
-39.883436 0.000000 -23.132857
-50.000000 0.000000 -26.488989
-44.712992 0.000000 -50.000000
-23.372832 0.000000 -44.659694
-26.960635 0.000000 -39.343508
-30.364622 0.000000 -29.567026
-39.444066 0.000000 -33.334081
-33.779615 0.000000 -50.000000
-16.715269 0.000000 -16.427414
-50.000000 0.000000 -9.733447
