# vtk DataFile Version 2.0
CellBP Time: 2.36
ASCII
DATASET UNSTRUCTURED_GRID
POINTS 320 double
-50.000000 -50.000000 0.000000
-50.000000 -43.333887 0.000000
-45.696302 -45.520790 0.000000
-43.296717 -50.000000 0.000000
-50.000000 -36.666908 0.000000
-36.593863 -50.000000 0.000000
-45.089216 -40.023694 0.000000
-40.037799 -44.191389 0.000000
-29.890179 -50.000000 0.000000
-50.000000 -29.999955 0.000000
-44.855094 -33.534944 0.000000
-33.145644 -44.714157 0.000000
-39.873971 -36.859442 0.000000
-35.134415 -39.866667 0.000000
-23.186491 -50.000000 0.000000
-26.536758 -44.703798 0.000000
-50.000000 -23.335206 0.000000
-44.671468 -26.926363 0.000000
-39.366942 -30.334300 0.000000
-29.609406 -39.426060 0.000000
-33.369806 -33.753423 0.000000
-50.000000 -16.671329 0.000000
-16.489886 -50.000000 0.000000
-9.802076 -50.000000 0.000000
-19.960464 -44.622467 0.000000
-23.211104 -39.180503 0.000000
-44.696273 -20.254851 0.000000
-39.367260 -23.672653 0.000000
-34.098331 -27.071194 0.000000
-26.380769 -33.677854 0.000000
-29.144051 -29.055228 0.000000
-50.000000 -10.010491 0.000000
-44.667851 -13.604536 0.000000
-50.000000 -3.355125 0.000000
-3.122441 -50.000000 0.000000
3.546074 -50.000000 0.000000
-13.336522 -44.628210 0.000000
-6.673748 -44.637209 0.000000
-16.680246 -39.211725 0.000000
-20.091683 -33.440425 0.000000
-39.332902 -16.986971 0.000000
-34.009096 -20.447888 0.000000
-28.762423 -23.613990 0.000000
-23.484902 -27.495768 0.000000
-44.630480 -6.937842 0.000000
-39.275231 -10.329056 0.000000
-50.000000 3.301942 0.000000
-44.613734 -0.285197 0.000000
10.201958 -50.000000 0.000000
16.846995 -50.000000 0.000000
-0.000878 -44.640392 0.000000
6.669760 -44.650256 0.000000
-10.021943 -39.277565 0.000000
-3.339402 -39.270514 0.000000
-13.455398 -33.886709 0.000000
-16.668769 -28.406727 0.000000
-33.919821 -13.740078 0.000000
-28.566168 -17.106889 0.000000
-23.249895 -20.511453 0.000000
-18.614107 -23.459311 0.000000
-39.233119 -3.671574 0.000000
-33.847848 -7.091160 0.000000
-50.000000 9.991707 0.000000
-44.595786 6.370011 0.000000
-39.209546 2.990089 0.000000
-50.000000 16.750402 0.000000
23.484917 -50.000000 0.000000
30.117675 -50.000000 0.000000
13.336454 -44.671092 0.000000
20.007355 -44.703142 0.000000
3.339667 -39.284948 0.000000
10.004009 -39.318197 0.000000
-6.694621 -33.872490 0.000000
0.011242 -33.897850 0.000000
-10.038760 -28.414301 0.000000
-13.061185 -23.068787 0.000000
-28.459367 -10.496014 0.000000
-22.987847 -13.921240 0.000000
-16.902407 -17.429280 0.000000
-33.789738 -0.451589 0.000000
-28.440378 -3.940611 0.000000
-44.558904 13.061555 0.000000
-39.145347 9.618894 0.000000
-33.752554 6.083789 0.000000
-50.000000 23.611224 0.000000
-44.604013 19.854684 0.000000
-50.000000 30.566037 0.000000
36.744657 -50.000000 0.000000
43.372194 -50.000000 0.000000
26.677600 -44.742982 0.000000
33.326071 -44.867729 0.000000
16.660530 -39.374445 0.000000
23.349973 -39.444449 0.000000
6.686303 -33.931025 0.000000
13.330114 -33.998536 0.000000
-3.283680 -28.462130 0.000000
3.417380 -28.531702 0.000000
-6.549041 -22.988009 0.000000
-9.884576 -17.510021 0.000000
-23.050476 -7.346919 0.000000
-17.678232 -10.614006 0.000000
-12.716103 -12.830963 0.000000
-28.400514 2.622264 0.000000
-23.055184 -0.893225 0.000000
-39.009440 16.308346 0.000000
-28.368376 9.316419 0.000000
-33.538920 12.487243 0.000000
-44.747265 26.620665 0.000000
-38.726860 23.662791 0.000000
-44.994283 33.416781 0.000000
-50.000000 37.508227 0.000000
-50.000000 43.864164 0.000000
39.926100 -45.061725 0.000000
45.469086 -45.651578 0.000000
50.000000 -50.000000 0.000000
36.635491 -39.977123 0.000000
30.025710 -39.458561 0.000000
19.934799 -34.110090 0.000000
26.607021 -34.326613 0.000000
10.042760 -28.568818 0.000000
16.654374 -28.691034 0.000000
0.135357 -23.070904 0.000000
6.885756 -23.239807 0.000000
-3.295697 -17.460128 0.000000
-6.726126 -11.281857 0.000000
-17.669777 -4.182310 0.000000
-12.357267 -7.326178 0.000000
-22.987267 5.544393 0.000000
-17.750684 2.027525 0.000000
-22.654117 11.482804 0.000000
-33.332881 18.514064 0.000000
-27.418537 16.127708 0.000000
-33.052131 23.849540 0.000000
-40.311774 30.548201 0.000000
-35.416960 28.970803 0.000000
-39.927113 35.514465 0.000000
-43.922722 40.179675 0.000000
-45.276650 45.770557 0.000000
-50.000000 50.000000 0.000000
44.114455 -39.887643 0.000000
50.000000 -43.374738 0.000000
39.641507 -35.041298 0.000000
33.475712 -33.424396 0.000000
23.017738 -28.837430 0.000000
28.755259 -29.255565 0.000000
13.519467 -23.172583 0.000000
20.102437 -23.471098 0.000000
3.493355 -17.697935 0.000000
10.207573 -17.906502 0.000000
0.271205 -12.195721 0.000000
-1.979941 -6.490135 0.000000
-7.197623 -3.987377 0.000000
-12.377644 -1.135779 0.000000
-17.757591 8.061070 0.000000
-12.647238 4.848094 0.000000
-18.028264 13.167323 0.000000
-20.780676 16.830161 0.000000
-28.041099 22.527917 0.000000
-23.364336 21.016825 0.000000
-29.751093 28.665566 0.000000
-34.164222 34.098392 0.000000
-36.872349 39.952427 0.000000
-39.637884 45.271613 0.000000
-43.406833 50.000000 0.000000
44.582033 -32.966158 0.000000
50.000000 -36.737100 0.000000
39.138897 -29.577099 0.000000
33.521822 -26.371782 0.000000
27.217990 -23.340131 0.000000
23.112783 -18.677854 0.000000
17.052484 -17.022778 0.000000
6.817442 -12.307737 0.000000
12.434777 -12.791413 0.000000
-3.158692 -1.705562 0.000000
4.099908 -7.173827 0.000000
1.221431 -2.268683 0.000000
-6.781677 2.079707 0.000000
-8.117559 7.570536 0.000000
-12.370280 11.581997 0.000000
-15.093378 17.339534 0.000000
-18.499826 22.743010 0.000000
-23.593897 27.224127 0.000000
-26.962314 33.616601 0.000000
-30.057009 39.320239 0.000000
-33.127291 44.840692 0.000000
-36.649683 50.000000 0.000000
44.550348 -26.494116 0.000000
50.000000 -30.102871 0.000000
39.054475 -23.179606 0.000000
33.480169 -19.905817 0.000000
28.085068 -16.597727 0.000000
22.747870 -13.160277 0.000000
17.263674 -9.966516 0.000000
11.071558 -6.727113 0.000000
-1.157408 2.142869 0.000000
6.418983 -1.829152 0.000000
3.113724 1.478059 0.000000
-3.281350 7.022361 0.000000
-5.930822 12.225838 0.000000
-9.145588 17.465301 0.000000
-12.591882 22.911197 0.000000
-16.811997 28.050337 0.000000
-20.198074 33.369217 0.000000
-23.322623 38.998472 0.000000
-26.461330 44.613826 0.000000
-29.907152 50.000000 0.000000
44.535232 -19.924133 0.000000
50.000000 -23.463399 0.000000
39.060014 -16.596125 0.000000
33.620223 -13.292414 0.000000
28.215362 -9.996341 0.000000
22.815190 -6.650752 0.000000
17.385583 -3.402787 0.000000
12.218197 0.112025 0.000000
2.173436 6.150510 0.000000
7.297047 3.759373 0.000000
0.117864 11.822139 0.000000
-2.881896 17.355813 0.000000
-6.270140 22.838292 0.000000
-10.152564 28.151751 0.000000
-13.363141 33.560744 0.000000
-16.624406 39.003855 0.000000
-19.809298 44.505089 0.000000
-23.209648 50.000000 0.000000
44.548618 -13.294997 0.000000
50.000000 -16.816760 0.000000
39.113076 -9.968275 0.000000
33.701503 -6.654528 0.000000
28.317131 -3.338365 0.000000
22.961462 -0.028006 0.000000
17.700251 3.305082 0.000000
12.442516 6.517737 0.000000
7.003667 10.746294 0.000000
3.610777 17.071402 0.000000
0.254899 22.744646 0.000000
-3.182371 28.232138 0.000000
-6.520411 33.707064 0.000000
-9.855682 39.119874 0.000000
-13.151337 44.535146 0.000000
-16.583398 50.000000 0.000000
44.572363 -6.642982 0.000000
50.000000 -10.160106 0.000000
39.163931 -3.321637 0.000000
33.779798 -0.003193 0.000000
28.432327 3.317994 0.000000
23.142996 6.656650 0.000000
18.015828 9.979836 0.000000
12.875074 12.153256 0.000000
10.031844 17.161280 0.000000
6.737807 22.656863 0.000000
3.455808 28.217281 0.000000
0.144190 33.697038 0.000000
-3.182983 39.139781 0.000000
-6.481649 44.566141 0.000000
-9.946675 50.000000 0.000000
44.598163 0.016747 0.000000
50.000000 -3.492934 0.000000
39.214371 3.335008 0.000000
33.856352 6.649241 0.000000
28.536749 9.978762 0.000000
23.194923 13.391267 0.000000
17.132776 16.988192 0.000000
13.106156 22.634801 0.000000
10.025355 28.203882 0.000000
6.814694 33.698986 0.000000
3.490738 39.151401 0.000000
0.177853 44.578670 0.000000
-3.299213 50.000000 0.000000
44.612892 6.683781 0.000000
50.000000 3.183995 0.000000
39.250118 9.990555 0.000000
33.924555 13.279579 0.000000
28.652950 16.579653 0.000000
23.523027 20.073627 0.000000
18.694911 23.096829 0.000000
16.557068 28.286448 0.000000
13.496576 33.748644 0.000000
10.154568 39.180493 0.000000
6.841490 44.586415 0.000000
3.354394 50.000000 0.000000
44.637088 13.338788 0.000000
50.000000 9.869186 0.000000
39.303689 16.626225 0.000000
34.009190 19.873201 0.000000
28.713702 22.930968 0.000000
23.404078 27.208559 0.000000
20.034310 33.306773 0.000000
16.711161 39.044793 0.000000
13.415897 44.531324 0.000000
10.013698 50.000000 0.000000
44.660411 19.994313 0.000000
50.000000 16.559126 0.000000
39.348877 23.277501 0.000000
34.116749 26.528898 0.000000
29.062393 28.548171 0.000000
26.305966 33.415545 0.000000
23.176917 38.974439 0.000000
20.008129 44.512508 0.000000
16.673605 50.000000 0.000000
44.668126 26.662297 0.000000
50.000000 23.249868 0.000000
39.342790 29.981393 0.000000
33.286711 33.385418 0.000000
29.496289 39.053766 0.000000
26.514825 44.512661 0.000000
23.334961 50.000000 0.000000
44.802012 33.307228 0.000000
50.000000 29.939725 0.000000
39.782451 36.610314 0.000000
34.893118 39.538436 0.000000
32.900394 44.521146 0.000000
29.999066 50.000000 0.000000
45.003171 39.889593 0.000000
50.000000 36.628136 0.000000
39.779737 43.977958 0.000000
36.663159 50.000000 0.000000
45.642592 45.417674 0.000000
50.000000 43.314373 0.000000
43.328456 50.000000 0.000000
50.000000 50.000000 0.000000
CELLS 578 2312
3 1 0 2
3 0 3 2
3 4 1 6
3 6 1 2
3 3 5 7
3 3 7 2
3 6 2 7
3 9 4 10
3 10 4 6
3 5 8 11
3 7 5 11
3 10 6 12
3 12 6 7
3 7 11 13
3 7 13 12
3 8 14 15
3 11 8 15
3 16 9 17
3 17 9 10
3 17 10 18
3 18 10 12
3 11 15 19
3 13 11 19
3 18 12 20
3 13 19 20
3 20 12 13
3 14 22 24
3 15 14 24
3 15 24 25
3 19 15 25
3 21 16 26
3 26 16 17
3 26 17 27
3 27 17 18
3 27 18 28
3 28 18 20
3 19 25 29
3 19 29 20
3 28 20 30
3 30 20 29
3 31 21 32
3 32 21 26
3 22 23 36
3 24 22 36
3 23 34 37
3 36 23 37
3 24 36 38
3 25 24 38
3 25 38 39
3 29 25 39
3 32 26 40
3 40 26 27
3 40 27 41
3 41 27 28
3 41 28 42
3 42 28 30
3 29 39 43
3 29 43 30
3 42 30 43
3 33 31 44
3 44 31 32
3 44 32 45
3 45 32 40
3 46 33 47
3 47 33 44
3 34 35 50
3 37 34 50
3 35 48 51
3 50 35 51
3 36 37 52
3 38 36 52
3 37 50 53
3 52 37 53
3 38 52 54
3 39 38 54
3 39 54 55
3 43 39 55
3 45 40 56
3 56 40 41
3 56 41 57
3 57 41 42
3 57 42 58
3 58 42 43
3 43 55 59
3 43 59 58
3 47 44 60
3 60 44 45
3 60 45 61
3 61 45 56
3 62 46 63
3 63 46 47
3 63 47 64
3 64 47 60
3 48 49 68
3 51 48 68
3 49 66 69
3 68 49 69
3 50 51 70
3 53 50 70
3 51 68 71
3 70 51 71
3 52 53 72
3 54 52 72
3 53 70 73
3 72 53 73
3 54 72 74
3 55 54 74
3 55 74 75
3 59 55 75
3 61 56 76
3 76 56 57
3 76 57 77
3 77 57 58
3 77 58 78
3 59 75 78
3 78 58 59
3 64 60 79
3 79 60 61
3 79 61 80
3 80 61 76
3 65 62 81
3 81 62 63
3 81 63 82
3 82 63 64
3 82 64 83
3 83 64 79
3 84 65 85
3 85 65 81
3 66 67 89
3 69 66 89
3 67 87 90
3 89 67 90
3 68 69 91
3 71 68 91
3 69 89 92
3 91 69 92
3 70 71 93
3 73 70 93
3 71 91 94
3 93 71 94
3 72 73 95
3 74 72 95
3 73 93 96
3 95 73 96
3 74 95 97
3 75 74 97
3 75 97 98
3 78 75 98
3 80 76 99
3 99 76 77
3 99 77 100
3 100 77 78
3 100 78 101
3 98 101 78
3 83 79 102
3 102 79 80
3 102 80 103
3 103 80 99
3 85 81 104
3 104 81 82
3 105 83 102
3 104 82 106
3 106 82 83
3 106 83 105
3 86 84 107
3 107 84 85
3 107 85 108
3 108 85 104
3 109 86 107
3 110 86 109
3 87 88 112
3 90 87 112
3 112 88 113
3 88 114 113
3 90 112 115
3 89 90 116
3 92 89 116
3 116 90 115
3 91 92 117
3 94 91 117
3 92 116 118
3 117 92 118
3 93 94 119
3 96 93 119
3 94 117 120
3 119 94 120
3 95 96 121
3 97 95 121
3 96 119 122
3 121 96 122
3 97 121 123
3 98 97 123
3 98 123 124
3 98 124 101
3 103 99 125
3 125 99 100
3 125 100 126
3 126 100 101
3 126 101 124
3 105 102 127
3 127 102 103
3 127 103 128
3 128 103 125
3 129 105 127
3 108 104 130
3 130 104 106
3 130 106 131
3 131 106 105
3 131 105 129
3 108 130 132
3 109 107 133
3 133 107 108
3 133 108 134
3 108 132 134
3 135 109 133
3 111 110 136
3 136 110 109
3 136 109 135
3 137 111 136
3 138 111 137
3 112 113 139
3 115 112 139
3 114 140 113
3 140 139 113
3 139 141 115
3 116 115 142
3 118 116 142
3 142 115 141
3 117 118 143
3 120 117 143
3 118 142 144
3 143 118 144
3 119 120 145
3 122 119 145
3 120 143 146
3 145 120 146
3 121 122 147
3 123 121 147
3 122 145 148
3 147 122 148
3 123 147 149
3 124 123 149
3 124 149 150
3 151 126 124
3 124 150 151
3 128 125 152
3 152 125 126
3 152 126 151
3 129 127 153
3 153 127 128
3 128 152 154
3 153 128 154
3 155 129 153
3 131 129 156
3 156 129 155
3 132 130 157
3 130 131 157
3 157 131 158
3 131 156 158
3 132 157 159
3 132 159 134
3 135 133 160
3 160 133 134
3 160 134 159
3 136 135 161
3 135 160 161
3 162 137 136
3 161 162 136
3 163 138 137
3 162 163 137
3 139 164 141
3 140 165 139
3 139 165 164
3 141 164 166
3 141 166 142
3 166 167 142
3 144 142 167
3 167 168 144
3 143 144 168
3 146 143 168
3 168 169 146
3 145 146 170
3 148 145 170
3 170 146 169
3 147 148 171
3 149 147 171
3 148 170 172
3 171 148 172
3 173 151 150
3 149 171 174
3 150 149 174
3 150 174 175
3 150 175 173
3 154 152 176
3 152 151 176
3 176 151 173
3 154 176 177
3 155 153 178
3 177 178 154
3 154 178 153
3 156 155 179
3 155 178 179
3 180 158 156
3 179 180 156
3 181 159 157
3 180 181 158
3 181 157 158
3 182 160 159
3 181 182 159
3 183 161 160
3 182 183 160
3 184 162 161
3 184 161 183
3 185 163 162
3 184 185 162
3 164 186 166
3 165 187 164
3 164 187 186
3 166 186 188
3 166 188 167
3 167 188 189
3 167 189 168
3 168 189 190
3 168 190 169
3 169 190 191
3 169 191 170
3 192 172 170
3 170 191 192
3 192 193 172
3 171 172 193
3 174 171 193
3 194 173 175
3 176 173 194
3 175 174 195
3 193 195 174
3 195 196 175
3 175 196 194
3 197 177 176
3 194 197 176
3 198 178 177
3 197 198 177
3 199 179 178
3 198 199 178
3 200 180 179
3 199 200 179
3 201 181 180
3 200 201 180
3 202 182 181
3 201 202 181
3 203 183 182
3 202 203 182
3 204 184 183
3 203 204 183
3 205 185 184
3 204 205 184
3 186 206 188
3 187 207 186
3 186 207 206
3 188 206 208
3 188 208 189
3 189 208 209
3 189 209 190
3 190 209 210
3 190 210 191
3 191 210 211
3 191 211 192
3 192 211 212
3 192 212 193
3 193 212 213
3 193 213 195
3 214 197 194
3 214 194 196
3 195 213 215
3 195 215 196
3 196 215 214
3 216 198 197
3 214 216 197
3 217 199 198
3 216 217 198
3 218 200 199
3 217 218 199
3 219 201 200
3 218 219 200
3 220 202 201
3 219 220 201
3 221 203 202
3 220 221 202
3 222 204 203
3 221 222 203
3 223 205 204
3 222 223 204
3 206 224 208
3 207 225 206
3 206 225 224
3 208 224 226
3 208 226 209
3 209 226 227
3 209 227 210
3 210 227 228
3 210 228 211
3 211 228 229
3 211 229 212
3 212 229 230
3 212 230 213
3 213 230 231
3 213 231 215
3 232 216 214
3 215 231 232
3 232 214 215
3 233 217 216
3 232 233 216
3 234 218 217
3 233 234 217
3 235 219 218
3 234 235 218
3 236 220 219
3 235 236 219
3 237 221 220
3 236 237 220
3 238 222 221
3 237 238 221
3 239 223 222
3 238 239 222
3 224 240 226
3 225 241 224
3 224 241 240
3 226 240 242
3 226 242 227
3 227 242 243
3 227 243 228
3 228 243 244
3 228 244 229
3 244 245 229
3 229 245 230
3 230 245 246
3 230 246 231
3 231 246 247
3 231 247 232
3 248 233 232
3 248 232 247
3 249 234 233
3 248 249 233
3 250 235 234
3 249 250 234
3 251 236 235
3 250 251 235
3 252 237 236
3 251 252 236
3 253 238 237
3 252 253 237
3 254 239 238
3 253 254 238
3 240 255 242
3 241 256 240
3 240 256 255
3 242 255 257
3 242 257 243
3 243 257 258
3 243 258 244
3 244 258 259
3 244 259 245
3 245 259 260
3 245 260 246
3 246 260 261
3 246 261 247
3 248 247 261
3 262 249 248
3 261 262 248
3 263 250 249
3 262 263 249
3 264 251 250
3 263 264 250
3 265 252 251
3 264 265 251
3 266 253 252
3 265 266 252
3 267 254 253
3 266 267 253
3 255 268 257
3 256 269 255
3 255 269 268
3 257 268 270
3 257 270 258
3 258 270 271
3 258 271 259
3 259 271 272
3 259 272 260
3 260 272 273
3 260 273 261
3 274 262 261
3 261 273 274
3 275 263 262
3 274 275 262
3 276 264 263
3 275 276 263
3 277 265 264
3 276 277 264
3 278 266 265
3 277 278 265
3 279 267 266
3 278 279 266
3 268 280 270
3 269 281 268
3 268 281 280
3 270 280 282
3 270 282 271
3 271 282 283
3 271 283 272
3 283 284 272
3 272 284 273
3 285 275 274
3 273 284 285
3 285 274 273
3 286 276 275
3 285 286 275
3 287 277 276
3 286 287 276
3 288 278 277
3 287 288 277
3 289 279 278
3 288 289 278
3 280 290 282
3 281 291 280
3 280 291 290
3 282 290 292
3 282 292 283
3 283 292 293
3 283 293 284
3 284 293 294
3 284 294 285
3 295 286 285
3 295 285 294
3 296 287 286
3 295 296 286
3 297 288 287
3 296 297 287
3 298 289 288
3 297 298 288
3 290 299 292
3 291 300 290
3 290 300 299
3 292 299 301
3 292 301 293
3 293 301 302
3 293 302 294
3 294 302 295
3 303 296 295
3 303 295 302
3 304 297 296
3 303 304 296
3 305 298 297
3 304 305 297
3 299 306 301
3 300 307 299
3 299 307 306
3 301 306 308
3 301 308 302
3 309 303 302
3 302 308 309
3 310 304 303
3 309 310 303
3 311 305 304
3 310 311 304
3 306 312 308
3 307 313 306
3 306 313 312
3 314 310 309
3 308 312 314
3 314 309 308
3 315 311 310
3 314 315 310
3 312 316 314
3 313 317 312
3 312 317 316
3 318 315 314
3 318 314 316
3 317 319 316
3 319 318 316
CELL_TYPES 578
5
5
5
5
5
5
5
5
5
5
5
5
5
5
5
5
5
5
5
5
5
5
5
5
5
5
5
5
5
5
5
5
5
5
5
5
5
5
5
5
5
5
5
5
5
5
5
5
5
5
5
5
5
5
5
5
5
5
5
5
5
5
5
5
5
5
5
5
5
5
5
5
5
5
5
5
5
5
5
5
5
5
5
5
5
5
5
5
5
5
5
5
5
5
5
5
5
5
5
5
5
5
5
5
5
5
5
5
5
5
5
5
5
5
5
5
5
5
5
5
5
5
5
5
5
5
5
5
5
5
5
5
5
5
5
5
5
5
5
5
5
5
5
5
5
5
5
5
5
5
5
5
5
5
5
5
5
5
5
5
5
5
5
5
5
5
5
5
5
5
5
5
5
5
5
5
5
5
5
5
5
5
5
5
5
5
5
5
5
5
5
5
5
5
5
5
5
5
5
5
5
5
5
5
5
5
5
5
5
5
5
5
5
5
5
5
5
5
5
5
5
5
5
5
5
5
5
5
5
5
5
5
5
5
5
5
5
5
5
5
5
5
5
5
5
5
5
5
5
5
5
5
5
5
5
5
5
5
5
5
5
5
5
5
5
5
5
5
5
5
5
5
5
5
5
5
5
5
5
5
5
5
5
5
5
5
5
5
5
5
5
5
5
5
5
5
5
5
5
5
5
5
5
5
5
5
5
5
5
5
5
5
5
5
5
5
5
5
5
5
5
5
5
5
5
5
5
5
5
5
5
5
5
5
5
5
5
5
5
5
5
5
5
5
5
5
5
5
5
5
5
5
5
5
5
5
5
5
5
5
5
5
5
5
5
5
5
5
5
5
5
5
5
5
5
5
5
5
5
5
5
5
5
5
5
5
5
5
5
5
5
5
5
5
5
5
5
5
5
5
5
5
5
5
5
5
5
5
5
5
5
5
5
5
5
5
5
5
5
5
5
5
5
5
5
5
5
5
5
5
5
5
5
5
5
5
5
5
5
5
5
5
5
5
5
5
5
5
5
5
5
5
5
5
5
5
5
5
5
5
5
5
5
5
5
5
5
5
5
5
5
5
5
5
5
5
5
5
5
5
5
5
5
5
5
5
5
5
5
5
5
5
5
5
5
5
5
5
5
5
5
5
5
5
5
5
5
5
5
5
5
5
5
5
5
5
5
5
5
5
5
5
5
5
5
5
5
5
5
5
5
5
5
5
5
5
5
5
5
5
5
5
5
5
5
5
5
5
5
5
5
5
5
5
5
5
5
5
5
5
5
5
5
5
5
5
5
5
5
5
5
5
5
5
5
5
5
5
POINT_DATA 320
SCALARS theta_e float 1
LOOKUP_TABLE default
0.993029
0.992988
0.993032
0.993086
0.992909
0.993222
0.992984
0.993114
0.993467
0.992780
0.992879
0.993323
0.993028
0.993189
0.993780
0.993600
0.992609
0.992731
0.992912
0.993407
0.993161
0.992400
0.994150
0.994562
0.993943
0.993715
0.992539
0.992733
0.992968
0.993461
0.993225
0.992164
0.992314
0.991915
0.994998
0.995440
0.994336
0.994760
0.994078
0.993785
0.992521
0.992775
0.993074
0.993451
0.992068
0.992280
0.991664
0.991814
0.995878
0.996296
0.995199
0.995638
0.994486
0.994912
0.994173
0.993842
0.992543
0.992853
0.993205
0.993541
0.992025
0.992293
0.991424
0.991565
0.991769
0.991203
0.996679
0.997005
0.996068
0.996471
0.995348
0.995782
0.994582
0.995013
0.994228
0.993861
0.992608
0.992985
0.993427
0.992037
0.992352
0.991332
0.991522
0.991785
0.991005
0.991121
0.990834
0.997254
0.997407
0.996829
0.997117
0.996201
0.996585
0.995448
0.995873
0.994647
0.995083
0.994273
0.993889
0.992715
0.993113
0.993521
0.992098
0.992446
0.991290
0.991855
0.991546
0.990938
0.991087
0.990782
0.990699
0.990613
0.997318
0.997426
0.997460
0.997161
0.996914
0.996274
0.996630
0.995514
0.995910
0.994708
0.995140
0.994325
0.993891
0.992820
0.993325
0.992187
0.992503
0.991956
0.991331
0.991634
0.991166
0.990908
0.991020
0.990797
0.990687
0.990607
0.990574
0.997312
0.997411
0.997138
0.996903
0.996275
0.996576
0.995540
0.995901
0.994779
0.995164
0.994449
0.994009
0.993353
0.992888
0.992259
0.992553
0.992082
0.991833
0.991363
0.991590
0.991152
0.990947
0.990799
0.990695
0.990624
0.997151
0.997282
0.996928
0.996647
0.996251
0.995852
0.995499
0.994818
0.995111
0.993446
0.994471
0.993892
0.992954
0.992733
0.992341
0.992039
0.991751
0.991405
0.991148
0.990970
0.990839
0.990742
0.996904
0.997068
0.996662
0.996340
0.995968
0.995562
0.995206
0.994822
0.993197
0.994298
0.993535
0.992970
0.992622
0.992279
0.991992
0.991665
0.991390
0.991185
0.991033
0.990915
0.996604
0.996793
0.996339
0.996000
0.995619
0.995252
0.994885
0.994460
0.993296
0.993884
0.993001
0.992569
0.992274
0.991960
0.991665
0.991434
0.991262
0.991130
0.996264
0.996471
0.995980
0.995629
0.995250
0.994888
0.994520
0.994014
0.993485
0.992962
0.992588
0.992261
0.991961
0.991710
0.991520
0.991374
0.995897
0.996116
0.995602
0.995247
0.994867
0.994503
0.994124
0.993715
0.993309
0.992910
0.992573
0.992268
0.992008
0.991801
0.991643
0.995511
0.995738
0.995218
0.994869
0.994491
0.994097
0.993675
0.993222
0.992879
0.992578
0.992314
0.992098
0.991931
0.995117
0.995343
0.994839
0.994512
0.994156
0.993783
0.993462
0.993172
0.992881
0.992619
0.992397
0.992227
0.994727
0.994944
0.994475
0.994186
0.993870
0.993497
0.993178
0.992910
0.992687
0.992519
0.994358
0.994557
0.994138
0.993896
0.993662
0.993410
0.993156
0.992946
0.992790
0.994030
0.994202
0.993835
0.993610
0.993352
0.993162
0.993028
0.993773
0.993909
0.993618
0.993473
0.993333
0.993224
0.993600
0.993695
0.993476
0.993383
0.993524
0.993574
0.993478
0.993525
VECTORS fa_u float
0.000000 0.000000 0.000000
0.000000 0.000000 0.000000
0.000000 0.000000 0.000000
0.000000 0.000000 0.000000
0.000000 0.000000 0.000000
0.000000 0.000000 0.000000
0.000000 0.000000 0.000000
0.000000 0.000000 0.000000
0.000000 0.000000 0.000000
0.000000 0.000000 0.000000
0.000000 0.000000 0.000000
0.000000 0.000000 0.000000
0.000000 0.000000 0.000000
0.000000 0.000000 0.000000
0.000000 0.000000 0.000000
0.000000 0.000000 0.000000
0.000000 0.000000 0.000000
0.000000 0.000000 0.000000
0.000000 0.000000 0.000000
0.000000 0.000000 0.000000
0.000000 0.000000 0.000000
0.000000 0.000000 0.000000
0.000000 0.000000 0.000000
0.000000 0.000000 0.000000
0.000000 0.000000 0.000000
0.000000 0.000000 0.000000
0.000000 0.000000 0.000000
0.000000 0.000000 0.000000
0.000000 0.000000 0.000000
0.000000 0.000000 0.000000
0.000000 0.000000 0.000000
0.000000 0.000000 0.000000
0.000000 0.000000 0.000000
0.000000 0.000000 0.000000
0.000000 0.000000 0.000000
0.000000 0.000000 0.000000
0.000000 0.000000 0.000000
0.000000 0.000000 0.000000
0.000000 0.000000 0.000000
0.000000 0.000000 0.000000
0.000000 0.000000 0.000000
0.000000 0.000000 0.000000
0.000000 0.000000 0.000000
0.000000 0.000000 0.000000
0.000000 0.000000 0.000000
0.000000 0.000000 0.000000
0.000000 0.000000 0.000000
0.000000 0.000000 0.000000
0.000000 0.000000 0.000000
0.000000 0.000000 0.000000
0.000000 0.000000 0.000000
0.000000 0.000000 0.000000
0.000000 0.000000 0.000000
0.000000 0.000000 0.000000
0.000000 0.000000 0.000000
0.000000 0.000000 0.000000
0.000000 0.000000 0.000000
0.000000 0.000000 0.000000
0.000000 0.000000 0.000000
0.000000 0.000000 0.000000
0.000000 0.000000 0.000000
0.000000 0.000000 0.000000
0.000000 0.000000 0.000000
0.000000 0.000000 0.000000
0.000000 0.000000 0.000000
0.000000 0.000000 0.000000
0.000000 0.000000 0.000000
0.000000 0.000000 0.000000
0.000000 0.000000 0.000000
0.000000 0.000000 0.000000
0.000000 0.000000 0.000000
0.000000 0.000000 0.000000
0.000000 0.000000 0.000000
0.000000 0.000000 0.000000
0.000000 0.000000 0.000000
0.000000 0.000000 0.000000
0.000000 0.000000 0.000000
0.000000 0.000000 0.000000
0.000000 0.000000 0.000000
0.000000 0.000000 0.000000
0.000000 0.000000 0.000000
0.000000 0.000000 0.000000
0.000000 0.000000 0.000000
0.000000 0.000000 0.000000
0.000000 0.000000 0.000000
0.000000 0.000000 0.000000
0.000000 0.000000 0.000000
0.000000 0.000000 0.000000
0.000000 0.000000 0.000000
0.000000 0.000000 0.000000
0.000000 0.000000 0.000000
0.000000 0.000000 0.000000
0.000000 0.000000 0.000000
0.000000 0.000000 0.000000
0.000000 0.000000 0.000000
0.000000 0.000000 0.000000
0.000000 0.000000 0.000000
0.000000 0.000000 0.000000
0.000000 0.000000 0.000000
0.000000 0.000000 0.000000
0.000000 0.000000 0.000000
0.000000 0.000000 0.000000
0.000000 0.000000 0.000000
0.000000 0.000000 0.000000
0.000000 0.000000 0.000000
0.000000 0.000000 0.000000
0.000000 0.000000 0.000000
0.000000 0.000000 0.000000
0.000000 0.000000 0.000000
0.000000 0.000000 0.000000
0.000000 0.000000 0.000000
0.000000 0.000000 0.000000
0.000000 0.000000 0.000000
0.000000 0.000000 0.000000
0.000000 0.000000 0.000000
0.000000 0.000000 0.000000
0.000000 0.000000 0.000000
0.000000 0.000000 0.000000
0.000000 0.000000 0.000000
0.000000 0.000000 0.000000
0.000000 0.000000 0.000000
0.000000 0.000000 0.000000
0.000000 0.000000 0.000000
0.000000 0.000000 0.000000
0.000000 0.000000 0.000000
0.000000 0.000000 0.000000
0.000000 0.000000 0.000000
0.000000 0.000000 0.000000
0.000000 0.000000 0.000000
0.000000 0.000000 0.000000
0.000000 0.000000 0.000000
0.000000 0.000000 0.000000
0.000000 0.000000 0.000000
0.000000 0.000000 0.000000
0.000000 0.000000 0.000000
0.000000 0.000000 0.000000
0.000000 0.000000 0.000000
0.000000 0.000000 0.000000
0.000000 0.000000 0.000000
0.000000 0.000000 0.000000
0.000000 0.000000 0.000000
0.000000 0.000000 0.000000
0.000000 0.000000 0.000000
0.000000 0.000000 0.000000
0.000000 0.000000 0.000000
0.000000 0.000000 0.000000
0.000000 0.000000 0.000000
0.000000 0.000000 0.000000
0.000000 0.000000 0.000000
0.000000 0.000000 0.000000
0.000000 0.000000 0.000000
0.000000 0.000000 0.000000
0.000000 0.000000 0.000000
0.000000 0.000000 0.000000
0.000000 0.000000 0.000000
0.000000 0.000000 0.000000
0.000000 0.000000 0.000000
0.000000 0.000000 0.000000
0.000000 0.000000 0.000000
0.000000 0.000000 0.000000
0.000000 0.000000 0.000000
0.000000 0.000000 0.000000
0.000000 0.000000 0.000000
0.000000 0.000000 0.000000
0.000000 0.000000 0.000000
0.000000 0.000000 0.000000
0.000000 0.000000 0.000000
0.000000 0.000000 0.000000
0.000000 0.000000 0.000000
0.000000 0.000000 0.000000
0.000000 0.000000 0.000000
0.000000 0.000000 0.000000
0.000000 0.000000 0.000000
0.000000 0.000000 0.000000
0.000000 0.000000 0.000000
0.000000 0.000000 0.000000
0.000000 0.000000 0.000000
0.000000 0.000000 0.000000
0.000000 0.000000 0.000000
0.000000 0.000000 0.000000
0.000000 0.000000 0.000000
0.000000 0.000000 0.000000
0.000000 0.000000 0.000000
0.000000 0.000000 0.000000
0.000000 0.000000 0.000000
0.000000 0.000000 0.000000
0.000000 0.000000 0.000000
0.000000 0.000000 0.000000
0.000000 0.000000 0.000000
0.000000 0.000000 0.000000
0.000000 0.000000 0.000000
0.000000 0.000000 0.000000
0.000000 0.000000 0.000000
0.000000 0.000000 0.000000
0.000000 0.000000 0.000000
0.000000 0.000000 0.000000
0.000000 0.000000 0.000000
0.000000 0.000000 0.000000
0.000000 0.000000 0.000000
0.000000 0.000000 0.000000
0.000000 0.000000 0.000000
0.000000 0.000000 0.000000
0.000000 0.000000 0.000000
0.000000 0.000000 0.000000
0.000000 0.000000 0.000000
0.000000 0.000000 0.000000
0.000000 0.000000 0.000000
0.000000 0.000000 0.000000
0.000000 0.000000 0.000000
0.000000 0.000000 0.000000
0.000000 0.000000 0.000000
0.000000 0.000000 0.000000
0.000000 0.000000 0.000000
0.000000 0.000000 0.000000
0.000000 0.000000 0.000000
0.000000 0.000000 0.000000
0.000000 0.000000 0.000000
0.000000 0.000000 0.000000
0.000000 0.000000 0.000000
0.000000 0.000000 0.000000
0.000000 0.000000 0.000000
0.000000 0.000000 0.000000
0.000000 0.000000 0.000000
0.000000 0.000000 0.000000
0.000000 0.000000 0.000000
0.000000 0.000000 0.000000
0.000000 0.000000 0.000000
0.000000 0.000000 0.000000
0.000000 0.000000 0.000000
0.000000 0.000000 0.000000
0.000000 0.000000 0.000000
0.000000 0.000000 0.000000
0.000000 0.000000 0.000000
0.000000 0.000000 0.000000
0.000000 0.000000 0.000000
0.000000 0.000000 0.000000
0.000000 0.000000 0.000000
0.000000 0.000000 0.000000
0.000000 0.000000 0.000000
0.000000 0.000000 0.000000
0.000000 0.000000 0.000000
0.000000 0.000000 0.000000
0.000000 0.000000 0.000000
0.000000 0.000000 0.000000
0.000000 0.000000 0.000000
0.000000 0.000000 0.000000
0.000000 0.000000 0.000000
0.000000 0.000000 0.000000
0.000000 0.000000 0.000000
0.000000 0.000000 0.000000
0.000000 0.000000 0.000000
0.000000 0.000000 0.000000
0.000000 0.000000 0.000000
0.000000 0.000000 0.000000
0.000000 0.000000 0.000000
0.000000 0.000000 0.000000
0.000000 0.000000 0.000000
0.000000 0.000000 0.000000
0.000000 0.000000 0.000000
0.000000 0.000000 0.000000
0.000000 0.000000 0.000000
0.000000 0.000000 0.000000
0.000000 0.000000 0.000000
0.000000 0.000000 0.000000
0.000000 0.000000 0.000000
0.000000 0.000000 0.000000
0.000000 0.000000 0.000000
0.000000 0.000000 0.000000
0.000000 0.000000 0.000000
0.000000 0.000000 0.000000
0.000000 0.000000 0.000000
0.000000 0.000000 0.000000
0.000000 0.000000 0.000000
0.000000 0.000000 0.000000
0.000000 0.000000 0.000000
0.000000 0.000000 0.000000
0.000000 0.000000 0.000000
0.000000 0.000000 0.000000
0.000000 0.000000 0.000000
0.000000 0.000000 0.000000
0.000000 0.000000 0.000000
0.000000 0.000000 0.000000
0.000000 0.000000 0.000000
0.000000 0.000000 0.000000
0.000000 0.000000 0.000000
0.000000 0.000000 0.000000
0.000000 0.000000 0.000000
0.000000 0.000000 0.000000
0.000000 0.000000 0.000000
0.000000 0.000000 0.000000
0.000000 0.000000 0.000000
0.000000 0.000000 0.000000
0.000000 0.000000 0.000000
0.000000 0.000000 0.000000
0.000000 0.000000 0.000000
0.000000 0.000000 0.000000
0.000000 0.000000 -50.000000
-50.000000 0.000000 -50.000000
-43.333887 0.000000 -45.696302
-45.520790 0.000000 -43.296717
-50.000000 0.000000 -50.000000
-36.666908 0.000000 -36.593863
-50.000000 0.000000 -45.089216
-40.023694 0.000000 -40.037799
-44.191389 0.000000 -29.890179
-50.000000 0.000000 -50.000000
-29.999955 0.000000 -44.855094
-33.534944 0.000000 -33.145644
-44.714157 0.000000 -39.873971
-36.859442 0.000000 -35.134415
-39.866667 0.000000 -23.186491
-50.000000 0.000000 -26.536758
-44.703798 0.000000 -50.000000
-23.335206 0.000000 -44.671468
-26.926363 0.000000 -39.366942
-30.334300 0.000000 -29.609406
-39.426060 0.000000 -33.369806
-33.753423 0.000000 -50.000000
-16.671329 0.000000 -16.489886
-50.000000 0.000000 -9.802076
