# vtk DataFile Version 2.0
CellBP Time: 2.52
ASCII
DATASET UNSTRUCTURED_GRID
POINTS 320 double
-50.000000 -50.000000 0.000000
-50.000000 -43.349898 0.000000
-45.683147 -45.531488 0.000000
-43.276601 -50.000000 0.000000
-50.000000 -36.698312 0.000000
-36.553969 -50.000000 0.000000
-45.074101 -40.047252 0.000000
-40.007611 -44.205453 0.000000
-29.832703 -50.000000 0.000000
-50.000000 -30.045411 0.000000
-44.839150 -33.572871 0.000000
-33.096063 -44.727115 0.000000
-39.843016 -36.890404 0.000000
-35.090059 -39.891117 0.000000
-23.113940 -50.000000 0.000000
-26.470734 -44.717041 0.000000
-50.000000 -23.392679 0.000000
-44.654912 -26.977351 0.000000
-39.334322 -30.379154 0.000000
-29.550519 -39.452032 0.000000
-33.320240 -33.791804 0.000000
-50.000000 -16.738279 0.000000
-16.405528 -50.000000 0.000000
-9.709585 -50.000000 0.000000
-19.880806 -44.636203 0.000000
-23.137537 -39.207609 0.000000
-44.679686 -20.316886 0.000000
-39.334444 -23.729775 0.000000
-34.050462 -27.122989 0.000000
-26.313870 -33.717366 0.000000
-29.083323 -29.104006 0.000000
-50.000000 -10.084083 0.000000
-44.650913 -13.675110 0.000000
-50.000000 -3.432202 0.000000
-3.025693 -50.000000 0.000000
3.643061 -50.000000 0.000000
-13.246388 -44.642302 0.000000
-6.576725 -44.651700 0.000000
-16.594638 -39.239498 0.000000
-20.011595 -33.481618 0.000000
-39.299497 -17.054117 0.000000
-33.960442 -20.511068 0.000000
-28.700065 -23.673185 0.000000
-23.410840 -27.549145 0.000000
-44.613222 -7.014141 0.000000
-39.241119 -10.403479 0.000000
-50.000000 3.224719 0.000000
-44.596303 -0.364070 0.000000
10.295112 -50.000000 0.000000
16.932300 -50.000000 0.000000
0.099086 -44.655247 0.000000
6.768460 -44.665335 0.000000
-9.927485 -39.306032 0.000000
-3.239969 -39.299796 0.000000
-13.364462 -33.928134 0.000000
-16.581813 -28.460055 0.000000
-33.870153 -13.812220 0.000000
-28.502469 -17.176328 0.000000
-23.174157 -20.577548 0.000000
-18.529716 -23.522036 0.000000
-39.198540 -3.750233 0.000000
-33.797318 -7.169201 0.000000
-50.000000 9.917787 0.000000
-44.578330 6.291920 0.000000
-39.174821 2.910520 0.000000
-50.000000 16.683229 0.000000
23.558547 -50.000000 0.000000
30.176212 -50.000000 0.000000
13.429588 -44.686236 0.000000
20.090655 -44.718215 0.000000
3.439902 -39.314721 0.000000
10.100740 -39.348162 0.000000
-6.596463 -33.915153 0.000000
0.112292 -33.941352 0.000000
-9.942686 -28.469133 0.000000
-12.967777 -23.133988 0.000000
-28.394558 -10.573030 0.000000
-22.910498 -13.996663 0.000000
-16.813763 -17.502734 0.000000
-33.738763 -0.532294 0.000000
-28.374933 -4.021897 0.000000
-44.541539 12.987762 0.000000
-39.110698 9.541843 0.000000
-33.701533 6.003738 0.000000
-50.000000 23.553821 0.000000
-44.586971 19.788853 0.000000
-50.000000 30.521037 0.000000
36.785339 -50.000000 0.000000
43.393004 -50.000000 0.000000
26.747110 -44.757917 0.000000
33.378413 -44.882295 0.000000
16.749457 -39.404288 0.000000
23.426954 -39.474035 0.000000
6.785902 -33.974953 0.000000
13.423845 -34.042446 0.000000
-3.182514 -28.518078 0.000000
3.519177 -28.588320 0.000000
-6.448570 -23.054912 0.000000
-9.785841 -17.585960 0.000000
-22.972448 -7.428479 0.000000
-17.589699 -10.695445 0.000000
-12.620012 -12.912653 0.000000
-28.334750 2.539920 0.000000
-22.976571 -0.977521 0.000000
-38.974991 16.237433 0.000000
-28.303031 9.236547 0.000000
-33.487861 12.411089 0.000000
-44.730864 26.565925 0.000000
-38.692177 23.602435 0.000000
-44.979005 33.375831 0.000000
-50.000000 37.478057 0.000000
-50.000000 43.848964 0.000000
39.958880 -45.075688 0.000000
45.484194 -45.663861 0.000000
50.000000 -50.000000 0.000000
36.678334 -40.004930 0.000000
30.087090 -39.487934 0.000000
20.018627 -34.153690 0.000000
26.676923 -34.369412 0.000000
10.140551 -28.625561 0.000000
16.744043 -28.747662 0.000000
0.238756 -23.138784 0.000000
6.986807 -23.307537 0.000000
-3.191537 -17.537886 0.000000
-6.622660 -11.367713 0.000000
-17.580335 -4.268620 0.000000
-12.259690 -7.414202 0.000000
-22.908805 5.460945 0.000000
-17.661609 1.940936 0.000000
-22.575735 11.402907 0.000000
-33.282162 18.444758 0.000000
-27.352009 16.053750 0.000000
-33.001514 23.788794 0.000000
-40.282315 30.500695 0.000000
-35.373486 28.919939 0.000000
-39.896912 35.477906 0.000000
-43.904457 40.154293 0.000000
-45.262572 45.759414 0.000000
-50.000000 50.000000 0.000000
44.133986 -39.915687 0.000000
50.000000 -43.391982 0.000000
39.675268 -35.081754 0.000000
33.527815 -33.469131 0.000000
23.095878 -28.893468 0.000000
28.820022 -29.310239 0.000000
13.614115 -23.240762 0.000000
20.186504 -23.538428 0.000000
3.597042 -17.775208 0.000000
10.306691 -17.983994 0.000000
0.375238 -12.280300 0.000000
-1.879988 -6.580320 0.000000
-7.097001 -4.076953 0.000000
-12.281615 -1.224850 0.000000
-17.668799 7.976772 0.000000
-12.549538 4.760572 0.000000
-17.941474 13.087561 0.000000
-20.699864 16.755692 0.000000
-27.977387 22.463504 0.000000
-23.289886 20.949081 0.000000
-29.692582 28.613201 0.000000
-34.118074 34.058056 0.000000
-36.834042 39.926453 0.000000
-39.607535 45.259108 0.000000
-43.388034 50.000000 0.000000
44.600041 -33.011442 0.000000
50.000000 -36.771126 0.000000
39.174207 -29.630440 0.000000
33.573847 -26.432281 0.000000
27.286764 -23.407123 0.000000
23.190926 -18.753220 0.000000
17.142229 -17.101272 0.000000
6.920541 -12.394166 0.000000
12.531701 -12.875611 0.000000
-3.055057 -1.804105 0.000000
4.201331 -7.269438 0.000000
1.332955 -2.369756 0.000000
-6.679070 1.991010 0.000000
-8.014816 7.483702 0.000000
-12.274061 11.499000 0.000000
-15.003313 17.264148 0.000000
-18.416690 22.677269 0.000000
-23.521279 27.167931 0.000000
-26.898495 33.574752 0.000000
-30.001294 39.292196 0.000000
-33.079443 44.827013 0.000000
-36.612645 50.000000 0.000000
44.568395 -26.553569 0.000000
50.000000 -30.151971 0.000000
39.090028 -23.245723 0.000000
33.532306 -19.978111 0.000000
28.151651 -16.675469 0.000000
22.826853 -13.243257 0.000000
17.353168 -10.053487 0.000000
11.170077 -6.818668 0.000000
-1.042660 2.037767 0.000000
6.524153 -1.924478 0.000000
3.225536 1.379575 0.000000
-3.174032 6.926017 0.000000
-5.827221 12.140748 0.000000
-9.048237 17.388619 0.000000
-12.500713 22.844454 0.000000
-16.727943 27.994688 0.000000
-20.120759 33.326038 0.000000
-23.252143 38.969354 0.000000
-26.397799 44.599353 0.000000
-29.853549 50.000000 0.000000
44.553258 -19.995251 0.000000
50.000000 -23.525326 0.000000
39.095477 -16.672437 0.000000
33.671865 -13.373423 0.000000
28.281477 -10.081352 0.000000
22.893923 -6.739324 0.000000
17.474927 -3.494689 0.000000
12.317458 0.017610 0.000000
2.281112 6.057352 0.000000
7.404884 3.669232 0.000000
0.222262 11.735345 0.000000
-2.780850 17.278099 0.000000
-6.173803 22.770594 0.000000
-10.061006 28.095351 0.000000
-13.276139 33.517212 0.000000
-16.542658 38.974330 0.000000
-19.733013 44.490253 0.000000
-23.142024 50.000000 0.000000
44.566512 -13.374628 0.000000
50.000000 -16.888820 0.000000
39.148238 -10.051435 0.000000
33.752717 -6.740683 0.000000
28.382748 -3.426882 0.000000
23.039657 -0.118372 0.000000
17.789324 3.213490 0.000000
12.541663 6.427007 0.000000
7.106295 10.660294 0.000000
3.710812 16.992595 0.000000
0.352809 22.676375 0.000000
-3.087128 28.175367 0.000000
-6.427878 33.663349 0.000000
-9.766470 39.090283 0.000000
-13.065872 44.520265 0.000000
-16.504741 50.000000 0.000000
44.590002 -6.727582 0.000000
50.000000 -10.239234 0.000000
39.198620 -3.407953 0.000000
33.830243 -0.090631 0.000000
28.496833 3.230142 0.000000
23.219572 6.569137 0.000000
18.102352 9.893951 0.000000
12.969224 12.068542 0.000000
10.126732 17.083642 0.000000
6.832733 22.588473 0.000000
3.550432 28.160559 0.000000
0.238037 33.653206 0.000000
-3.090447 39.110025 0.000000
-6.390877 44.551236 0.000000
-9.860379 50.000000 0.000000
44.615452 -0.069159 0.000000
50.000000 -3.575827 0.000000
39.248338 3.249242 0.000000
33.905684 6.564300 0.000000
28.599689 9.895390 0.000000
23.269577 13.310527 0.000000
17.217673 16.911162 0.000000
13.194717 22.567137 0.000000
10.115327 28.147381 0.000000
6.905872 33.655297 0.000000
3.582580 39.121650 0.000000
0.269893 44.563737 0.000000
-3.209059 50.000000 0.000000
44.629733 6.600180 0.000000
50.000000 3.100831 0.000000
39.283143 9.908946 0.000000
33.972391 13.200684 0.000000
28.713880 16.504297 0.000000
23.594554 20.002851 0.000000
18.774759 23.030726 0.000000
16.638819 28.230743 0.000000
13.581135 33.705399 0.000000
10.241799 39.151013 0.000000
6.930844 44.571556 0.000000
3.444447 50.000000 0.000000
44.653398 13.260919 0.000000
50.000000 9.789290 0.000000
39.335600 16.552047 0.000000
34.055421 19.803427 0.000000
28.772775 22.866001 0.000000
23.473811 27.151305 0.000000
20.108996 33.262957 0.000000
16.790266 39.015158 0.000000
13.498936 44.516346 0.000000
10.099780 50.000000 0.000000
44.676197 19.925366 0.000000
50.000000 16.485996 0.000000
39.379771 23.213761 0.000000
34.161478 26.471031 0.000000
29.119390 28.494235 0.000000
26.368295 33.372186 0.000000
23.244932 38.944673 0.000000
20.081456 44.497443 0.000000
16.751985 50.000000 0.000000
44.683575 26.605184 0.000000
50.000000 23.186786 0.000000
39.373079 29.930860 0.000000
33.332730 33.342294 0.000000
29.550838 39.024340 0.000000
26.575615 44.497616 0.000000
23.402211 50.000000 0.000000
44.816839 33.264446 0.000000
50.000000 29.889667 0.000000
39.811116 36.575191 0.000000
34.934494 39.510483 0.000000
32.946544 44.506129 0.000000
30.052264 50.000000 0.000000
45.017325 39.862924 0.000000
50.000000 36.593454 0.000000
39.808130 43.961627 0.000000
36.699969 50.000000 0.000000
45.654805 45.405352 0.000000
50.000000 43.296757 0.000000
43.347189 50.000000 0.000000
50.000000 50.000000 0.000000
CELLS 578 2312
3 1 0 2
3 0 3 2
3 4 1 6
3 6 1 2
3 3 5 7
3 3 7 2
3 6 2 7
3 9 4 10
3 10 4 6
3 5 8 11
3 7 5 11
3 10 6 12
3 12 6 7
3 7 11 13
3 7 13 12
3 8 14 15
3 11 8 15
3 16 9 17
3 17 9 10
3 17 10 18
3 18 10 12
3 11 15 19
3 13 11 19
3 18 12 20
3 13 19 20
3 20 12 13
3 14 22 24
3 15 14 24
3 15 24 25
3 19 15 25
3 21 16 26
3 26 16 17
3 26 17 27
3 27 17 18
3 27 18 28
3 28 18 20
3 19 25 29
3 19 29 20
3 28 20 30
3 30 20 29
3 31 21 32
3 32 21 26
3 22 23 36
3 24 22 36
3 23 34 37
3 36 23 37
3 24 36 38
3 25 24 38
3 25 38 39
3 29 25 39
3 32 26 40
3 40 26 27
3 40 27 41
3 41 27 28
3 41 28 42
3 42 28 30
3 29 39 43
3 29 43 30
3 42 30 43
3 33 31 44
3 44 31 32
3 44 32 45
3 45 32 40
3 46 33 47
3 47 33 44
3 34 35 50
3 37 34 50
3 35 48 51
3 50 35 51
3 36 37 52
3 38 36 52
3 37 50 53
3 52 37 53
3 38 52 54
3 39 38 54
3 39 54 55
3 43 39 55
3 45 40 56
3 56 40 41
3 56 41 57
3 57 41 42
3 57 42 58
3 58 42 43
3 43 55 59
3 43 59 58
3 47 44 60
3 60 44 45
3 60 45 61
3 61 45 56
3 62 46 63
3 63 46 47
3 63 47 64
3 64 47 60
3 48 49 68
3 51 48 68
3 49 66 69
3 68 49 69
3 50 51 70
3 53 50 70
3 51 68 71
3 70 51 71
3 52 53 72
3 54 52 72
3 53 70 73
3 72 53 73
3 54 72 74
3 55 54 74
3 55 74 75
3 59 55 75
3 61 56 76
3 76 56 57
3 76 57 77
3 77 57 58
3 77 58 78
3 59 75 78
3 78 58 59
3 64 60 79
3 79 60 61
3 79 61 80
3 80 61 76
3 65 62 81
3 81 62 63
3 81 63 82
3 82 63 64
3 82 64 83
3 83 64 79
3 84 65 85
3 85 65 81
3 66 67 89
3 69 66 89
3 67 87 90
3 89 67 90
3 68 69 91
3 71 68 91
3 69 89 92
3 91 69 92
3 70 71 93
3 73 70 93
3 71 91 94
3 93 71 94
3 72 73 95
3 74 72 95
3 73 93 96
3 95 73 96
3 74 95 97
3 75 74 97
3 75 97 98
3 78 75 98
3 80 76 99
3 99 76 77
3 99 77 100
3 100 77 78
3 100 78 101
3 98 101 78
3 83 79 102
3 102 79 80
3 102 80 103
3 103 80 99
3 85 81 104
3 104 81 82
3 105 83 102
3 104 82 106
3 106 82 83
3 106 83 105
3 86 84 107
3 107 84 85
3 107 85 108
3 108 85 104
3 109 86 107
3 110 86 109
3 87 88 112
3 90 87 112
3 112 88 113
3 88 114 113
3 90 112 115
3 89 90 116
3 92 89 116
3 116 90 115
3 91 92 117
3 94 91 117
3 92 116 118
3 117 92 118
3 93 94 119
3 96 93 119
3 94 117 120
3 119 94 120
3 95 96 121
3 97 95 121
3 96 119 122
3 121 96 122
3 97 121 123
3 98 97 123
3 98 123 124
3 98 124 101
3 103 99 125
3 125 99 100
3 125 100 126
3 126 100 101
3 126 101 124
3 105 102 127
3 127 102 103
3 127 103 128
3 128 103 125
3 129 105 127
3 108 104 130
3 130 104 106
3 130 106 131
3 131 106 105
3 131 105 129
3 108 130 132
3 109 107 133
3 133 107 108
3 133 108 134
3 108 132 134
3 135 109 133
3 111 110 136
3 136 110 109
3 136 109 135
3 137 111 136
3 138 111 137
3 112 113 139
3 115 112 139
3 114 140 113
3 140 139 113
3 139 141 115
3 116 115 142
3 118 116 142
3 142 115 141
3 117 118 143
3 120 117 143
3 118 142 144
3 143 118 144
3 119 120 145
3 122 119 145
3 120 143 146
3 145 120 146
3 121 122 147
3 123 121 147
3 122 145 148
3 147 122 148
3 123 147 149
3 124 123 149
3 124 149 150
3 151 126 124
3 124 150 151
3 128 125 152
3 152 125 126
3 152 126 151
3 129 127 153
3 153 127 128
3 128 152 154
3 153 128 154
3 155 129 153
3 131 129 156
3 156 129 155
3 132 130 157
3 130 131 157
3 157 131 158
3 131 156 158
3 132 157 159
3 132 159 134
3 135 133 160
3 160 133 134
3 160 134 159
3 136 135 161
3 135 160 161
3 162 137 136
3 161 162 136
3 163 138 137
3 162 163 137
3 139 164 141
3 140 165 139
3 139 165 164
3 141 164 166
3 141 166 142
3 166 167 142
3 144 142 167
3 167 168 144
3 143 144 168
3 146 143 168
3 168 169 146
3 145 146 170
3 148 145 170
3 170 146 169
3 147 148 171
3 149 147 171
3 148 170 172
3 171 148 172
3 173 151 150
3 149 171 174
3 150 149 174
3 150 174 175
3 150 175 173
3 154 152 176
3 152 151 176
3 176 151 173
3 154 176 177
3 155 153 178
3 177 178 154
3 154 178 153
3 156 155 179
3 155 178 179
3 180 158 156
3 179 180 156
3 181 159 157
3 180 181 158
3 181 157 158
3 182 160 159
3 181 182 159
3 183 161 160
3 182 183 160
3 184 162 161
3 184 161 183
3 185 163 162
3 184 185 162
3 164 186 166
3 165 187 164
3 164 187 186
3 166 186 188
3 166 188 167
3 167 188 189
3 167 189 168
3 168 189 190
3 168 190 169
3 169 190 191
3 169 191 170
3 192 172 170
3 170 191 192
3 192 193 172
3 171 172 193
3 174 171 193
3 194 173 175
3 176 173 194
3 175 174 195
3 193 195 174
3 195 196 175
3 175 196 194
3 197 177 176
3 194 197 176
3 198 178 177
3 197 198 177
3 199 179 178
3 198 199 178
3 200 180 179
3 199 200 179
3 201 181 180
3 200 201 180
3 202 182 181
3 201 202 181
3 203 183 182
3 202 203 182
3 204 184 183
3 203 204 183
3 205 185 184
3 204 205 184
3 186 206 188
3 187 207 186
3 186 207 206
3 188 206 208
3 188 208 189
3 189 208 209
3 189 209 190
3 190 209 210
3 190 210 191
3 191 210 211
3 191 211 192
3 192 211 212
3 192 212 193
3 193 212 213
3 193 213 195
3 214 197 194
3 214 194 196
3 195 213 215
3 195 215 196
3 196 215 214
3 216 198 197
3 214 216 197
3 217 199 198
3 216 217 198
3 218 200 199
3 217 218 199
3 219 201 200
3 218 219 200
3 220 202 201
3 219 220 201
3 221 203 202
3 220 221 202
3 222 204 203
3 221 222 203
3 223 205 204
3 222 223 204
3 206 224 208
3 207 225 206
3 206 225 224
3 208 224 226
3 208 226 209
3 209 226 227
3 209 227 210
3 210 227 228
3 210 228 211
3 211 228 229
3 211 229 212
3 212 229 230
3 212 230 213
3 213 230 231
3 213 231 215
3 232 216 214
3 215 231 232
3 232 214 215
3 233 217 216
3 232 233 216
3 234 218 217
3 233 234 217
3 235 219 218
3 234 235 218
3 236 220 219
3 235 236 219
3 237 221 220
3 236 237 220
3 238 222 221
3 237 238 221
3 239 223 222
3 238 239 222
3 224 240 226
3 225 241 224
3 224 241 240
3 226 240 242
3 226 242 227
3 227 242 243
3 227 243 228
3 228 243 244
3 228 244 229
3 244 245 229
3 229 245 230
3 230 245 246
3 230 246 231
3 231 246 247
3 231 247 232
3 248 233 232
3 248 232 247
3 249 234 233
3 248 249 233
3 250 235 234
3 249 250 234
3 251 236 235
3 250 251 235
3 252 237 236
3 251 252 236
3 253 238 237
3 252 253 237
3 254 239 238
3 253 254 238
3 240 255 242
3 241 256 240
3 240 256 255
3 242 255 257
3 242 257 243
3 243 257 258
3 243 258 244
3 244 258 259
3 244 259 245
3 245 259 260
3 245 260 246
3 246 260 261
3 246 261 247
3 248 247 261
3 262 249 248
3 261 262 248
3 263 250 249
3 262 263 249
3 264 251 250
3 263 264 250
3 265 252 251
3 264 265 251
3 266 253 252
3 265 266 252
3 267 254 253
3 266 267 253
3 255 268 257
3 256 269 255
3 255 269 268
3 257 268 270
3 257 270 258
3 258 270 271
3 258 271 259
3 259 271 272
3 259 272 260
3 260 272 273
3 260 273 261
3 274 262 261
3 261 273 274
3 275 263 262
3 274 275 262
3 276 264 263
3 275 276 263
3 277 265 264
3 276 277 264
3 278 266 265
3 277 278 265
3 279 267 266
3 278 279 266
3 268 280 270
3 269 281 268
3 268 281 280
3 270 280 282
3 270 282 271
3 271 282 283
3 271 283 272
3 283 284 272
3 272 284 273
3 285 275 274
3 273 284 285
3 285 274 273
3 286 276 275
3 285 286 275
3 287 277 276
3 286 287 276
3 288 278 277
3 287 288 277
3 289 279 278
3 288 289 278
3 280 290 282
3 281 291 280
3 280 291 290
3 282 290 292
3 282 292 283
3 283 292 293
3 283 293 284
3 284 293 294
3 284 294 285
3 295 286 285
3 295 285 294
3 296 287 286
3 295 296 286
3 297 288 287
3 296 297 287
3 298 289 288
3 297 298 288
3 290 299 292
3 291 300 290
3 290 300 299
3 292 299 301
3 292 301 293
3 293 301 302
3 293 302 294
3 294 302 295
3 303 296 295
3 303 295 302
3 304 297 296
3 303 304 296
3 305 298 297
3 304 305 297
3 299 306 301
3 300 307 299
3 299 307 306
3 301 306 308
3 301 308 302
3 309 303 302
3 302 308 309
3 310 304 303
3 309 310 303
3 311 305 304
3 310 311 304
3 306 312 308
3 307 313 306
3 306 313 312
3 314 310 309
3 308 312 314
3 314 309 308
3 315 311 310
3 314 315 310
3 312 316 314
3 313 317 312
3 312 317 316
3 318 315 314
3 318 314 316
3 317 319 316
3 319 318 316
CELL_TYPES 578
5
5
5
5
5
5
5
5
5
5
5
5
5
5
5
5
5
5
5
5
5
5
5
5
5
5
5
5
5
5
5
5
5
5
5
5
5
5
5
5
5
5
5
5
5
5
5
5
5
5
5
5
5
5
5
5
5
5
5
5
5
5
5
5
5
5
5
5
5
5
5
5
5
5
5
5
5
5
5
5
5
5
5
5
5
5
5
5
5
5
5
5
5
5
5
5
5
5
5
5
5
5
5
5
5
5
5
5
5
5
5
5
5
5
5
5
5
5
5
5
5
5
5
5
5
5
5
5
5
5
5
5
5
5
5
5
5
5
5
5
5
5
5
5
5
5
5
5
5
5
5
5
5
5
5
5
5
5
5
5
5
5
5
5
5
5
5
5
5
5
5
5
5
5
5
5
5
5
5
5
5
5
5
5
5
5
5
5
5
5
5
5
5
5
5
5
5
5
5
5
5
5
5
5
5
5
5
5
5
5
5
5
5
5
5
5
5
5
5
5
5
5
5
5
5
5
5
5
5
5
5
5
5
5
5
5
5
5
5
5
5
5
5
5
5
5
5
5
5
5
5
5
5
5
5
5
5
5
5
5
5
5
5
5
5
5
5
5
5
5
5
5
5
5
5
5
5
5
5
5
5
5
5
5
5
5
5
5
5
5
5
5
5
5
5
5
5
5
5
5
5
5
5
5
5
5
5
5
5
5
5
5
5
5
5
5
5
5
5
5
5
5
5
5
5
5
5
5
5
5
5
5
5
5
5
5
5
5
5
5
5
5
5
5
5
5
5
5
5
5
5
5
5
5
5
5
5
5
5
5
5
5
5
5
5
5
5
5
5
5
5
5
5
5
5
5
5
5
5
5
5
5
5
5
5
5
5
5
5
5
5
5
5
5
5
5
5
5
5
5
5
5
5
5
5
5
5
5
5
5
5
5
5
5
5
5
5
5
5
5
5
5
5
5
5
5
5
5
5
5
5
5
5
5
5
5
5
5
5
5
5
5
5
5
5
5
5
5
5
5
5
5
5
5
5
5
5
5
5
5
5
5
5
5
5
5
5
5
5
5
5
5
5
5
5
5
5
5
5
5
5
5
5
5
5
5
5
5
5
5
5
5
5
5
5
5
5
5
5
5
5
5
5
5
5
5
5
5
5
5
5
5
5
5
5
5
5
5
5
5
5
5
5
5
5
5
5
5
5
5
5
5
5
5
5
5
5
5
5
5
5
5
5
5
5
5
5
5
5
5
5
5
5
5
5
5
5
5
5
5
5
5
5
5
5
5
5
5
5
5
5
5
5
5
5
5
5
5
POINT_DATA 320
SCALARS theta_e float 1
LOOKUP_TABLE default
0.993588
0.993622
0.993590
0.993559
0.993704
0.993494
0.993641
0.993557
0.993376
0.993845
0.993754
0.993452
0.993646
0.993544
0.993228
0.993322
0.994035
0.993917
0.993777
0.993445
0.993614
0.994269
0.993052
0.992855
0.993159
0.993297
0.994129
0.993967
0.993795
0.993464
0.993631
0.994531
0.994377
0.994809
0.992644
0.992426
0.992970
0.992763
0.993118
0.993298
0.994192
0.993989
0.993775
0.993521
0.994647
0.994448
0.995091
0.994926
0.992211
0.992007
0.992548
0.992331
0.992911
0.992693
0.993087
0.993287
0.994223
0.993979
0.993722
0.993492
0.994721
0.994484
0.995366
0.995204
0.994998
0.995622
0.991826
0.991680
0.992120
0.991926
0.992473
0.992257
0.992865
0.992635
0.993062
0.993301
0.994226
0.993949
0.993631
0.994759
0.994502
0.995470
0.995267
0.995032
0.995847
0.995712
0.996023
0.991576
0.991519
0.991760
0.991634
0.992054
0.991872
0.992411
0.992201
0.992820
0.992578
0.993054
0.993346
0.994242
0.993895
0.993617
0.994781
0.994526
0.995522
0.995042
0.995286
0.995915
0.995746
0.996071
0.996142
0.996201
0.991551
0.991512
0.991502
0.991613
0.991722
0.992010
0.991847
0.992354
0.992162
0.992783
0.992524
0.993056
0.993400
0.994138
0.993946
0.994783
0.994470
0.995001
0.995505
0.995269
0.995672
0.995944
0.995822
0.996058
0.996154
0.996208
0.996222
0.991550
0.991515
0.991618
0.991723
0.991995
0.991864
0.992317
0.992148
0.992762
0.992499
0.992958
0.993120
0.993724
0.994344
0.994757
0.994474
0.994944
0.995118
0.995508
0.995340
0.995703
0.995912
0.996067
0.996157
0.996201
0.991608
0.991557
0.991706
0.991830
0.991996
0.992163
0.992335
0.992722
0.992475
0.994032
0.992793
0.993200
0.994315
0.994580
0.994790
0.994981
0.995203
0.995494
0.995726
0.995912
0.996045
0.996126
0.991709
0.991635
0.991822
0.991963
0.992116
0.992307
0.992464
0.992755
0.993678
0.993059
0.993166
0.994241
0.994786
0.994816
0.994995
0.995273
0.995507
0.995705
0.995868
0.995984
0.991844
0.991752
0.991970
0.992117
0.992284
0.992483
0.992656
0.993042
0.993980
0.993913
0.994441
0.994511
0.994737
0.995003
0.995251
0.995457
0.995636
0.995777
0.992005
0.991901
0.992141
0.992296
0.992479
0.992700
0.992920
0.993258
0.993970
0.994101
0.994425
0.994711
0.994962
0.995177
0.995362
0.995519
0.992184
0.992074
0.992326
0.992491
0.992688
0.992924
0.993173
0.993422
0.993731
0.994099
0.994401
0.994652
0.994872
0.995060
0.995225
0.992370
0.992258
0.992516
0.992690
0.992898
0.993160
0.993472
0.993819
0.994094
0.994341
0.994562
0.994749
0.994914
0.992556
0.992445
0.992703
0.992880
0.993090
0.993344
0.993589
0.993808
0.994043
0.994258
0.994442
0.994601
0.992735
0.992628
0.992876
0.993048
0.993253
0.993520
0.993759
0.993969
0.994148
0.994301
0.992898
0.992800
0.993028
0.993187
0.993359
0.993531
0.993719
0.993884
0.994025
0.993041
0.992955
0.993161
0.993329
0.993512
0.993656
0.993779
0.993153
0.993084
0.993255
0.993368
0.993471
0.993573
0.993233
0.993181
0.993326
0.993405
0.993271
0.993239
0.993309
0.993269
VECTORS fa_u float
0.000000 0.000000 0.000000
0.000000 0.000000 0.000000
0.000000 0.000000 0.000000
0.000000 0.000000 0.000000
0.000000 0.000000 0.000000
0.000000 0.000000 0.000000
0.000000 0.000000 0.000000
0.000000 0.000000 0.000000
0.000000 0.000000 0.000000
0.000000 0.000000 0.000000
0.000000 0.000000 0.000000
0.000000 0.000000 0.000000
0.000000 0.000000 0.000000
0.000000 0.000000 0.000000
0.000000 0.000000 0.000000
0.000000 0.000000 0.000000
0.000000 0.000000 0.000000
0.000000 0.000000 0.000000
0.000000 0.000000 0.000000
0.000000 0.000000 0.000000
0.000000 0.000000 0.000000
0.000000 0.000000 0.000000
0.000000 0.000000 0.000000
0.000000 0.000000 0.000000
0.000000 0.000000 0.000000
0.000000 0.000000 0.000000
0.000000 0.000000 0.000000
0.000000 0.000000 0.000000
0.000000 0.000000 0.000000
0.000000 0.000000 0.000000
0.000000 0.000000 0.000000
0.000000 0.000000 0.000000
0.000000 0.000000 0.000000
0.000000 0.000000 0.000000
0.000000 0.000000 0.000000
0.000000 0.000000 0.000000
0.000000 0.000000 0.000000
0.000000 0.000000 0.000000
0.000000 0.000000 0.000000
0.000000 0.000000 0.000000
0.000000 0.000000 0.000000
0.000000 0.000000 0.000000
0.000000 0.000000 0.000000
0.000000 0.000000 0.000000
0.000000 0.000000 0.000000
0.000000 0.000000 0.000000
0.000000 0.000000 0.000000
0.000000 0.000000 0.000000
0.000000 0.000000 0.000000
0.000000 0.000000 0.000000
0.000000 0.000000 0.000000
0.000000 0.000000 0.000000
0.000000 0.000000 0.000000
0.000000 0.000000 0.000000
0.000000 0.000000 0.000000
0.000000 0.000000 0.000000
0.000000 0.000000 0.000000
0.000000 0.000000 0.000000
0.000000 0.000000 0.000000
0.000000 0.000000 0.000000
0.000000 0.000000 0.000000
0.000000 0.000000 0.000000
0.000000 0.000000 0.000000
0.000000 0.000000 0.000000
0.000000 0.000000 0.000000
0.000000 0.000000 0.000000
0.000000 0.000000 0.000000
0.000000 0.000000 0.000000
0.000000 0.000000 0.000000
0.000000 0.000000 0.000000
0.000000 0.000000 0.000000
0.000000 0.000000 0.000000
0.000000 0.000000 0.000000
0.000000 0.000000 0.000000
0.000000 0.000000 0.000000
0.000000 0.000000 0.000000
0.000000 0.000000 0.000000
0.000000 0.000000 0.000000
0.000000 0.000000 0.000000
0.000000 0.000000 0.000000
0.000000 0.000000 0.000000
0.000000 0.000000 0.000000
0.000000 0.000000 0.000000
0.000000 0.000000 0.000000
0.000000 0.000000 0.000000
0.000000 0.000000 0.000000
0.000000 0.000000 0.000000
0.000000 0.000000 0.000000
0.000000 0.000000 0.000000
0.000000 0.000000 0.000000
0.000000 0.000000 0.000000
0.000000 0.000000 0.000000
0.000000 0.000000 0.000000
0.000000 0.000000 0.000000
0.000000 0.000000 0.000000
0.000000 0.000000 0.000000
0.000000 0.000000 0.000000
0.000000 0.000000 0.000000
0.000000 0.000000 0.000000
0.000000 0.000000 0.000000
0.000000 0.000000 0.000000
0.000000 0.000000 0.000000
0.000000 0.000000 0.000000
0.000000 0.000000 0.000000
0.000000 0.000000 0.000000
0.000000 0.000000 0.000000
0.000000 0.000000 0.000000
0.000000 0.000000 0.000000
0.000000 0.000000 0.000000
0.000000 0.000000 0.000000
0.000000 0.000000 0.000000
0.000000 0.000000 0.000000
0.000000 0.000000 0.000000
0.000000 0.000000 0.000000
0.000000 0.000000 0.000000
0.000000 0.000000 0.000000
0.000000 0.000000 0.000000
0.000000 0.000000 0.000000
0.000000 0.000000 0.000000
0.000000 0.000000 0.000000
0.000000 0.000000 0.000000
0.000000 0.000000 0.000000
0.000000 0.000000 0.000000
0.000000 0.000000 0.000000
0.000000 0.000000 0.000000
0.000000 0.000000 0.000000
0.000000 0.000000 0.000000
0.000000 0.000000 0.000000
0.000000 0.000000 0.000000
0.000000 0.000000 0.000000
0.000000 0.000000 0.000000
0.000000 0.000000 0.000000
0.000000 0.000000 0.000000
0.000000 0.000000 0.000000
0.000000 0.000000 0.000000
0.000000 0.000000 0.000000
0.000000 0.000000 0.000000
0.000000 0.000000 0.000000
0.000000 0.000000 0.000000
0.000000 0.000000 0.000000
0.000000 0.000000 0.000000
0.000000 0.000000 0.000000
0.000000 0.000000 0.000000
0.000000 0.000000 0.000000
0.000000 0.000000 0.000000
0.000000 0.000000 0.000000
0.000000 0.000000 0.000000
0.000000 0.000000 0.000000
0.000000 0.000000 0.000000
0.000000 0.000000 0.000000
0.000000 0.000000 0.000000
0.000000 0.000000 0.000000
0.000000 0.000000 0.000000
0.000000 0.000000 0.000000
0.000000 0.000000 0.000000
0.000000 0.000000 0.000000
0.000000 0.000000 0.000000
0.000000 0.000000 0.000000
0.000000 0.000000 0.000000
0.000000 0.000000 0.000000
0.000000 0.000000 0.000000
0.000000 0.000000 0.000000
0.000000 0.000000 0.000000
0.000000 0.000000 0.000000
0.000000 0.000000 0.000000
0.000000 0.000000 0.000000
0.000000 0.000000 0.000000
0.000000 0.000000 0.000000
0.000000 0.000000 0.000000
0.000000 0.000000 0.000000
0.000000 0.000000 0.000000
0.000000 0.000000 0.000000
0.000000 0.000000 0.000000
0.000000 0.000000 0.000000
0.000000 0.000000 0.000000
0.000000 0.000000 0.000000
0.000000 0.000000 0.000000
0.000000 0.000000 0.000000
0.000000 0.000000 0.000000
0.000000 0.000000 0.000000
0.000000 0.000000 0.000000
0.000000 0.000000 0.000000
0.000000 0.000000 0.000000
0.000000 0.000000 0.000000
0.000000 0.000000 0.000000
0.000000 0.000000 0.000000
0.000000 0.000000 0.000000
0.000000 0.000000 0.000000
0.000000 0.000000 0.000000
0.000000 0.000000 0.000000
0.000000 0.000000 0.000000
0.000000 0.000000 0.000000
0.000000 0.000000 0.000000
0.000000 0.000000 0.000000
0.000000 0.000000 0.000000
0.000000 0.000000 0.000000
0.000000 0.000000 0.000000
0.000000 0.000000 0.000000
0.000000 0.000000 0.000000
0.000000 0.000000 0.000000
0.000000 0.000000 0.000000
0.000000 0.000000 0.000000
0.000000 0.000000 0.000000
0.000000 0.000000 0.000000
0.000000 0.000000 0.000000
0.000000 0.000000 0.000000
0.000000 0.000000 0.000000
0.000000 0.000000 0.000000
0.000000 0.000000 0.000000
0.000000 0.000000 0.000000
0.000000 0.000000 0.000000
0.000000 0.000000 0.000000
0.000000 0.000000 0.000000
0.000000 0.000000 0.000000
0.000000 0.000000 0.000000
0.000000 0.000000 0.000000
0.000000 0.000000 0.000000
0.000000 0.000000 0.000000
0.000000 0.000000 0.000000
0.000000 0.000000 0.000000
0.000000 0.000000 0.000000
0.000000 0.000000 0.000000
0.000000 0.000000 0.000000
0.000000 0.000000 0.000000
0.000000 0.000000 0.000000
0.000000 0.000000 0.000000
0.000000 0.000000 0.000000
0.000000 0.000000 0.000000
0.000000 0.000000 0.000000
0.000000 0.000000 0.000000
0.000000 0.000000 0.000000
0.000000 0.000000 0.000000
0.000000 0.000000 0.000000
0.000000 0.000000 0.000000
0.000000 0.000000 0.000000
0.000000 0.000000 0.000000
0.000000 0.000000 0.000000
0.000000 0.000000 0.000000
0.000000 0.000000 0.000000
0.000000 0.000000 0.000000
0.000000 0.000000 0.000000
0.000000 0.000000 0.000000
0.000000 0.000000 0.000000
0.000000 0.000000 0.000000
0.000000 0.000000 0.000000
0.000000 0.000000 0.000000
0.000000 0.000000 0.000000
0.000000 0.000000 0.000000
0.000000 0.000000 0.000000
0.000000 0.000000 0.000000
0.000000 0.000000 0.000000
0.000000 0.000000 0.000000
0.000000 0.000000 0.000000
0.000000 0.000000 0.000000
0.000000 0.000000 0.000000
0.000000 0.000000 0.000000
0.000000 0.000000 0.000000
0.000000 0.000000 0.000000
0.000000 0.000000 0.000000
0.000000 0.000000 0.000000
0.000000 0.000000 0.000000
0.000000 0.000000 0.000000
0.000000 0.000000 0.000000
0.000000 0.000000 0.000000
0.000000 0.000000 0.000000
0.000000 0.000000 0.000000
0.000000 0.000000 0.000000
0.000000 0.000000 0.000000
0.000000 0.000000 0.000000
0.000000 0.000000 0.000000
0.000000 0.000000 0.000000
0.000000 0.000000 0.000000
0.000000 0.000000 0.000000
0.000000 0.000000 0.000000
0.000000 0.000000 0.000000
0.000000 0.000000 0.000000
0.000000 0.000000 0.000000
0.000000 0.000000 0.000000
0.000000 0.000000 0.000000
0.000000 0.000000 0.000000
0.000000 0.000000 0.000000
0.000000 0.000000 0.000000
0.000000 0.000000 0.000000
0.000000 0.000000 0.000000
0.000000 0.000000 0.000000
0.000000 0.000000 0.000000
0.000000 0.000000 0.000000
0.000000 0.000000 0.000000
0.000000 0.000000 0.000000
0.000000 0.000000 0.000000
0.000000 0.000000 0.000000
0.000000 0.000000 0.000000
0.000000 0.000000 0.000000
0.000000 0.000000 0.000000
0.000000 0.000000 0.000000
0.000000 0.000000 0.000000
0.000000 0.000000 -50.000000
-50.000000 0.000000 -50.000000
-43.349898 0.000000 -45.683147
-45.531488 0.000000 -43.276601
-50.000000 0.000000 -50.000000
-36.698312 0.000000 -36.553969
-50.000000 0.000000 -45.074101
-40.047252 0.000000 -40.007611
-44.205453 0.000000 -29.832703
-50.000000 0.000000 -50.000000
-30.045411 0.000000 -44.839150
-33.572871 0.000000 -33.096063
-44.727115 0.000000 -39.843016
-36.890404 0.000000 -35.090059
-39.891117 0.000000 -23.113940
-50.000000 0.000000 -26.470734
-44.717041 0.000000 -50.000000
-23.392679 0.000000 -44.654912
-26.977351 0.000000 -39.334322
-30.379154 0.000000 -29.550519
-39.452032 0.000000 -33.320240
-33.791804 0.000000 -50.000000
-16.738279 0.000000 -16.405528
-50.000000 0.000000 -9.709585
