# vtk DataFile Version 2.0
CellBP Time: 1.48
ASCII
DATASET UNSTRUCTURED_GRID
POINTS 320 double
-50.000000 -50.000000 0.000000
-50.000000 -43.352079 0.000000
-45.686187 -45.530311 0.000000
-43.285094 -50.000000 0.000000
-50.000000 -36.702149 0.000000
-36.572885 -50.000000 0.000000
-45.077998 -40.045753 0.000000
-40.015935 -44.203320 0.000000
-29.860308 -50.000000 0.000000
-50.000000 -30.050458 0.000000
-44.843745 -33.570010 0.000000
-33.112014 -44.724382 0.000000
-39.853059 -36.887251 0.000000
-35.104115 -39.887093 0.000000
-23.149755 -50.000000 0.000000
-26.492950 -44.714124 0.000000
-50.000000 -23.398982 0.000000
-44.659521 -26.972935 0.000000
-39.344897 -30.374306 0.000000
-29.569432 -39.446807 0.000000
-33.336878 -33.786076 0.000000
-50.000000 -16.745574 0.000000
-16.448274 -50.000000 0.000000
-9.757732 -50.000000 0.000000
-19.908630 -44.632745 0.000000
-23.162860 -39.201188 0.000000
-44.684386 -20.311280 0.000000
-39.344734 -23.723635 0.000000
-34.066809 -27.116074 0.000000
-26.336095 -33.708869 0.000000
-29.104330 -29.095459 0.000000
-50.000000 -10.091130 0.000000
-44.656542 -13.667765 0.000000
-50.000000 -3.437725 0.000000
-3.078257 -50.000000 0.000000
3.587842 -50.000000 0.000000
-13.279069 -44.638264 0.000000
-6.613748 -44.646270 0.000000
-16.625693 -39.232103 0.000000
-20.039730 -33.471007 0.000000
-39.311069 -17.046484 0.000000
-33.976887 -20.501921 0.000000
-28.722180 -23.662142 0.000000
-23.437344 -27.535876 0.000000
-44.619875 -7.004365 0.000000
-39.254927 -10.393475 0.000000
-50.000000 3.221469 0.000000
-44.603608 -0.351710 0.000000
10.239873 -50.000000 0.000000
16.880047 -50.000000 0.000000
0.058624 -44.648762 0.000000
6.726258 -44.658377 0.000000
-9.964134 -39.296074 0.000000
-3.280854 -39.287062 0.000000
-13.399582 -33.914519 0.000000
-16.615597 -28.442179 0.000000
-33.889727 -13.800194 0.000000
-28.527249 -17.161350 0.000000
-23.204121 -20.559428 0.000000
-18.562938 -23.501270 0.000000
-39.213672 -3.737703 0.000000
-33.819111 -7.154568 0.000000
-50.000000 9.916467 0.000000
-44.585417 6.306556 0.000000
-39.190224 2.925077 0.000000
-50.000000 16.682247 0.000000
23.512121 -50.000000 0.000000
30.138471 -50.000000 0.000000
13.387834 -44.679148 0.000000
20.051830 -44.711040 0.000000
3.396418 -39.300530 0.000000
10.056782 -39.333404 0.000000
-6.637392 -33.897657 0.000000
0.068208 -33.920892 0.000000
-9.983191 -28.447456 0.000000
-13.005916 -23.108321 0.000000
-28.422168 -10.555168 0.000000
-22.942817 -13.975095 0.000000
-16.849996 -17.477244 0.000000
-33.761201 -0.515714 0.000000
-28.403986 -4.001920 0.000000
-44.547269 13.003598 0.000000
-39.124613 9.557941 0.000000
-33.723611 6.021569 0.000000
-50.000000 23.553630 0.000000
-44.592700 19.804410 0.000000
-50.000000 30.521753 0.000000
36.759209 -50.000000 0.000000
43.380037 -50.000000 0.000000
26.713809 -44.751094 0.000000
33.352836 -44.876255 0.000000
16.707554 -39.389538 0.000000
23.390055 -39.459567 0.000000
6.740481 -33.953138 0.000000
13.379528 -34.020510 0.000000
-3.227095 -28.492739 0.000000
3.472621 -28.559923 0.000000
-6.492150 -23.025454 0.000000
-9.826157 -17.553687 0.000000
-23.007344 -7.404582 0.000000
-17.628556 -10.668432 0.000000
-12.660740 -12.881625 0.000000
-28.364159 2.561720 0.000000
-23.012928 -0.951403 0.000000
-38.986638 16.254611 0.000000
-28.330705 9.259038 0.000000
-33.508719 12.430248 0.000000
-44.736701 26.579179 0.000000
-38.702062 23.617193 0.000000
-44.981282 33.385328 0.000000
-50.000000 37.476206 0.000000
-50.000000 43.847155 0.000000
39.943150 -45.069575 0.000000
45.477785 -45.658602 0.000000
50.000000 -50.000000 0.000000
36.656955 -39.991635 0.000000
30.057488 -39.473865 0.000000
19.978176 -34.132351 0.000000
26.642796 -34.348736 0.000000
10.094268 -28.596598 0.000000
16.700505 -28.719299 0.000000
0.191413 -23.105356 0.000000
6.938699 -23.272030 0.000000
-3.237526 -17.500041 0.000000
-6.667982 -11.322679 0.000000
-17.622304 -4.239274 0.000000
-12.305321 -7.379588 0.000000
-22.943057 5.487872 0.000000
-17.702604 1.970180 0.000000
-22.605063 11.428103 0.000000
-33.299012 18.463442 0.000000
-27.375907 16.074708 0.000000
-33.014847 23.804320 0.000000
-40.289689 30.510571 0.000000
-35.382241 28.931042 0.000000
-39.903024 35.485857 0.000000
-43.908059 40.160669 0.000000
-45.266463 45.761997 0.000000
-50.000000 50.000000 0.000000
44.125134 -39.902434 0.000000
50.000000 -43.379498 0.000000
39.659115 -35.062127 0.000000
33.502157 -33.447038 0.000000
23.057427 -28.865708 0.000000
28.787783 -29.283660 0.000000
13.567385 -23.205089 0.000000
20.144167 -23.503957 0.000000
3.547717 -17.734521 0.000000
10.256716 -17.942900 0.000000
0.326332 -12.230838 0.000000
-1.931822 -6.517165 0.000000
-7.144375 -4.026703 0.000000
-12.325646 -1.189861 0.000000
-17.704934 8.004819 0.000000
-12.592124 4.792318 0.000000
-17.973077 13.115242 0.000000
-20.726829 16.779658 0.000000
-27.996948 22.480171 0.000000
-23.313385 20.967980 0.000000
-29.705229 28.625857 0.000000
-34.127922 34.067184 0.000000
-36.843448 39.932339 0.000000
-39.615668 45.262126 0.000000
-43.388438 50.000000 0.000000
44.591898 -32.989219 0.000000
50.000000 -36.747360 0.000000
39.156818 -29.604750 0.000000
33.547568 -26.402434 0.000000
27.251907 -23.373880 0.000000
23.151576 -18.715264 0.000000
17.096361 -17.061101 0.000000
6.867552 -12.345089 0.000000
12.482431 -12.833265 0.000000
-3.107604 -1.743432 0.000000
4.130462 -7.202017 0.000000
1.269157 -2.304279 0.000000
-6.718777 2.036019 0.000000
-8.058433 7.520292 0.000000
-12.312986 11.531536 0.000000
-15.034775 17.293772 0.000000
-18.442680 22.698541 0.000000
-23.540241 27.182862 0.000000
-26.913987 33.587459 0.000000
-30.015546 39.301324 0.000000
-33.092702 44.831018 0.000000
-36.614757 50.000000 0.000000
44.559812 -26.524550 0.000000
50.000000 -30.117960 0.000000
39.072233 -23.213429 0.000000
33.505354 -19.943067 0.000000
28.117217 -16.636822 0.000000
22.785185 -13.201484 0.000000
17.304836 -10.008261 0.000000
11.111796 -6.771953 0.000000
-1.090829 2.102185 0.000000
6.459739 -1.873892 0.000000
3.170756 1.438627 0.000000
-3.219709 6.984214 0.000000
-5.870731 12.182798 0.000000
-9.084266 17.423400 0.000000
-12.530001 22.871839 0.000000
-16.752189 28.015878 0.000000
-20.141837 33.342822 0.000000
-23.270536 38.980698 0.000000
-26.414907 44.604731 0.000000
-29.857129 50.000000 0.000000
44.544403 -19.961231 0.000000
50.000000 -23.482842 0.000000
39.076985 -16.635840 0.000000
33.644146 -13.334352 0.000000
28.245928 -10.038754 0.000000
22.850947 -6.694766 0.000000
17.425112 -3.448875 0.000000
12.256950 0.065318 0.000000
2.230810 6.111485 0.000000
7.341024 3.716223 0.000000
0.178168 11.787537 0.000000
-2.819011 17.320963 0.000000
-6.206538 22.804300 0.000000
-10.089519 28.122644 0.000000
-13.300654 33.538933 0.000000
-16.563935 38.988132 0.000000
-19.752674 44.496878 0.000000
-23.146099 50.000000 0.000000
44.557393 -13.337976 0.000000
50.000000 -16.840517 0.000000
39.129605 -10.012898 0.000000
33.725842 -6.700085 0.000000
28.348281 -3.384132 0.000000
22.998422 -0.075059 0.000000
17.743013 3.255790 0.000000
12.493429 6.471410 0.000000
7.062465 10.708639 0.000000
3.674064 17.038679 0.000000
0.319440 22.714812 0.000000
-3.117124 28.205931 0.000000
-6.453440 33.686790 0.000000
-9.788290 39.105458 0.000000
-13.086323 44.527347 0.000000
-16.508490 50.000000 0.000000
44.580984 -6.690491 0.000000
50.000000 -10.188078 0.000000
39.180929 -3.369478 0.000000
33.804972 -0.050937 0.000000
28.464753 3.270821 0.000000
23.182515 6.610019 0.000000
18.063786 9.934107 0.000000
12.930965 12.111046 0.000000
10.093079 17.125139 0.000000
6.802108 22.625746 0.000000
3.522574 28.190823 0.000000
0.213666 33.675770 0.000000
-3.111448 39.125141 0.000000
-6.410980 44.558413 0.000000
-9.863315 50.000000 0.000000
44.607057 -0.033427 0.000000
50.000000 -3.524554 0.000000
39.232185 3.285661 0.000000
33.882954 6.601013 0.000000
28.571807 9.932487 0.000000
23.238933 13.347924 0.000000
17.186251 16.948150 0.000000
13.166501 22.601621 0.000000
10.090012 28.176503 0.000000
6.883187 33.677464 0.000000
3.562507 39.136591 0.000000
0.250622 44.571000 0.000000
-3.210896 50.000000 0.000000
44.622265 6.633034 0.000000
50.000000 3.149972 0.000000
39.269227 9.941691 0.000000
33.953599 13.232938 0.000000
28.691813 16.536226 0.000000
23.570750 20.034250 0.000000
18.749735 23.061525 0.000000
16.617250 28.257185 0.000000
13.561625 33.725403 0.000000
10.223867 39.164177 0.000000
6.913084 44.577884 0.000000
3.444003 50.000000 0.000000
44.647064 13.289919 0.000000
50.000000 9.834507 0.000000
39.324363 16.580417 0.000000
34.040822 19.830631 0.000000
28.755730 22.891630 0.000000
23.456142 27.174833 0.000000
20.092668 33.280878 0.000000
16.774614 39.027165 0.000000
13.482604 44.522109 0.000000
10.099895 50.000000 0.000000
44.670914 19.950026 0.000000
50.000000 16.526047 0.000000
39.370643 23.237696 0.000000
34.149226 26.492983 0.000000
29.104745 28.515383 0.000000
26.354356 33.390254 0.000000
23.231089 38.957085 0.000000
20.066852 44.503430 0.000000
16.752008 50.000000 0.000000
44.678963 26.625075 0.000000
50.000000 23.220713 0.000000
39.365177 29.949627 0.000000
33.321560 33.358447 0.000000
29.539885 39.036164 0.000000
26.563706 44.503379 0.000000
23.402387 50.000000 0.000000
44.812881 33.278985 0.000000
50.000000 29.916313 0.000000
39.804561 36.587566 0.000000
34.925821 39.520618 0.000000
32.937689 44.512287 0.000000
30.052505 50.000000 0.000000
45.013869 39.871354 0.000000
50.000000 36.611730 0.000000
39.802092 43.967380 0.000000
36.700750 50.000000 0.000000
45.652250 45.409009 0.000000
50.000000 43.305661 0.000000
43.348729 50.000000 0.000000
50.000000 50.000000 0.000000
CELLS 578 2312
3 1 0 2
3 0 3 2
3 4 1 6
3 6 1 2
3 3 5 7
3 3 7 2
3 6 2 7
3 9 4 10
3 10 4 6
3 5 8 11
3 7 5 11
3 10 6 12
3 12 6 7
3 7 11 13
3 7 13 12
3 8 14 15
3 11 8 15
3 16 9 17
3 17 9 10
3 17 10 18
3 18 10 12
3 11 15 19
3 13 11 19
3 18 12 20
3 13 19 20
3 20 12 13
3 14 22 24
3 15 14 24
3 15 24 25
3 19 15 25
3 21 16 26
3 26 16 17
3 26 17 27
3 27 17 18
3 27 18 28
3 28 18 20
3 19 25 29
3 19 29 20
3 28 20 30
3 30 20 29
3 31 21 32
3 32 21 26
3 22 23 36
3 24 22 36
3 23 34 37
3 36 23 37
3 24 36 38
3 25 24 38
3 25 38 39
3 29 25 39
3 32 26 40
3 40 26 27
3 40 27 41
3 41 27 28
3 41 28 42
3 42 28 30
3 29 39 43
3 29 43 30
3 42 30 43
3 33 31 44
3 44 31 32
3 44 32 45
3 45 32 40
3 46 33 47
3 47 33 44
3 34 35 50
3 37 34 50
3 35 48 51
3 50 35 51
3 36 37 52
3 38 36 52
3 37 50 53
3 52 37 53
3 38 52 54
3 39 38 54
3 39 54 55
3 43 39 55
3 45 40 56
3 56 40 41
3 56 41 57
3 57 41 42
3 57 42 58
3 58 42 43
3 43 55 59
3 43 59 58
3 47 44 60
3 60 44 45
3 60 45 61
3 61 45 56
3 62 46 63
3 63 46 47
3 63 47 64
3 64 47 60
3 48 49 68
3 51 48 68
3 49 66 69
3 68 49 69
3 50 51 70
3 53 50 70
3 51 68 71
3 70 51 71
3 52 53 72
3 54 52 72
3 53 70 73
3 72 53 73
3 54 72 74
3 55 54 74
3 55 74 75
3 59 55 75
3 61 56 76
3 76 56 57
3 76 57 77
3 77 57 58
3 77 58 78
3 59 75 78
3 78 58 59
3 64 60 79
3 79 60 61
3 79 61 80
3 80 61 76
3 65 62 81
3 81 62 63
3 81 63 82
3 82 63 64
3 82 64 83
3 83 64 79
3 84 65 85
3 85 65 81
3 66 67 89
3 69 66 89
3 67 87 90
3 89 67 90
3 68 69 91
3 71 68 91
3 69 89 92
3 91 69 92
3 70 71 93
3 73 70 93
3 71 91 94
3 93 71 94
3 72 73 95
3 74 72 95
3 73 93 96
3 95 73 96
3 74 95 97
3 75 74 97
3 75 97 98
3 78 75 98
3 80 76 99
3 99 76 77
3 99 77 100
3 100 77 78
3 100 78 101
3 98 101 78
3 83 79 102
3 102 79 80
3 102 80 103
3 103 80 99
3 85 81 104
3 104 81 82
3 105 83 102
3 104 82 106
3 106 82 83
3 106 83 105
3 86 84 107
3 107 84 85
3 107 85 108
3 108 85 104
3 109 86 107
3 110 86 109
3 87 88 112
3 90 87 112
3 112 88 113
3 88 114 113
3 90 112 115
3 89 90 116
3 92 89 116
3 116 90 115
3 91 92 117
3 94 91 117
3 92 116 118
3 117 92 118
3 93 94 119
3 96 93 119
3 94 117 120
3 119 94 120
3 95 96 121
3 97 95 121
3 96 119 122
3 121 96 122
3 97 121 123
3 98 97 123
3 98 123 124
3 98 124 101
3 103 99 125
3 125 99 100
3 125 100 126
3 126 100 101
3 126 101 124
3 105 102 127
3 127 102 103
3 127 103 128
3 128 103 125
3 129 105 127
3 108 104 130
3 130 104 106
3 130 106 131
3 131 106 105
3 131 105 129
3 108 130 132
3 109 107 133
3 133 107 108
3 133 108 134
3 108 132 134
3 135 109 133
3 111 110 136
3 136 110 109
3 136 109 135
3 137 111 136
3 138 111 137
3 112 113 139
3 115 112 139
3 114 140 113
3 140 139 113
3 139 141 115
3 116 115 142
3 118 116 142
3 142 115 141
3 117 118 143
3 120 117 143
3 118 142 144
3 143 118 144
3 119 120 145
3 122 119 145
3 120 143 146
3 145 120 146
3 121 122 147
3 123 121 147
3 122 145 148
3 147 122 148
3 123 147 149
3 124 123 149
3 124 149 150
3 151 126 124
3 124 150 151
3 128 125 152
3 152 125 126
3 152 126 151
3 129 127 153
3 153 127 128
3 128 152 154
3 153 128 154
3 155 129 153
3 131 129 156
3 156 129 155
3 132 130 157
3 130 131 157
3 157 131 158
3 131 156 158
3 132 157 159
3 132 159 134
3 135 133 160
3 160 133 134
3 160 134 159
3 136 135 161
3 135 160 161
3 162 137 136
3 161 162 136
3 163 138 137
3 162 163 137
3 139 164 141
3 140 165 139
3 139 165 164
3 141 164 166
3 141 166 142
3 166 167 142
3 144 142 167
3 167 168 144
3 143 144 168
3 146 143 168
3 168 169 146
3 145 146 170
3 148 145 170
3 170 146 169
3 147 148 171
3 149 147 171
3 148 170 172
3 171 148 172
3 173 151 150
3 149 171 174
3 150 149 174
3 150 174 175
3 150 175 173
3 154 152 176
3 152 151 176
3 176 151 173
3 154 176 177
3 155 153 178
3 177 178 154
3 154 178 153
3 156 155 179
3 155 178 179
3 180 158 156
3 179 180 156
3 181 159 157
3 180 181 158
3 181 157 158
3 182 160 159
3 181 182 159
3 183 161 160
3 182 183 160
3 184 162 161
3 184 161 183
3 185 163 162
3 184 185 162
3 164 186 166
3 165 187 164
3 164 187 186
3 166 186 188
3 166 188 167
3 167 188 189
3 167 189 168
3 168 189 190
3 168 190 169
3 169 190 191
3 169 191 170
3 192 172 170
3 170 191 192
3 192 193 172
3 171 172 193
3 174 171 193
3 194 173 175
3 176 173 194
3 175 174 195
3 193 195 174
3 195 196 175
3 175 196 194
3 197 177 176
3 194 197 176
3 198 178 177
3 197 198 177
3 199 179 178
3 198 199 178
3 200 180 179
3 199 200 179
3 201 181 180
3 200 201 180
3 202 182 181
3 201 202 181
3 203 183 182
3 202 203 182
3 204 184 183
3 203 204 183
3 205 185 184
3 204 205 184
3 186 206 188
3 187 207 186
3 186 207 206
3 188 206 208
3 188 208 189
3 189 208 209
3 189 209 190
3 190 209 210
3 190 210 191
3 191 210 211
3 191 211 192
3 192 211 212
3 192 212 193
3 193 212 213
3 193 213 195
3 214 197 194
3 214 194 196
3 195 213 215
3 195 215 196
3 196 215 214
3 216 198 197
3 214 216 197
3 217 199 198
3 216 217 198
3 218 200 199
3 217 218 199
3 219 201 200
3 218 219 200
3 220 202 201
3 219 220 201
3 221 203 202
3 220 221 202
3 222 204 203
3 221 222 203
3 223 205 204
3 222 223 204
3 206 224 208
3 207 225 206
3 206 225 224
3 208 224 226
3 208 226 209
3 209 226 227
3 209 227 210
3 210 227 228
3 210 228 211
3 211 228 229
3 211 229 212
3 212 229 230
3 212 230 213
3 213 230 231
3 213 231 215
3 232 216 214
3 215 231 232
3 232 214 215
3 233 217 216
3 232 233 216
3 234 218 217
3 233 234 217
3 235 219 218
3 234 235 218
3 236 220 219
3 235 236 219
3 237 221 220
3 236 237 220
3 238 222 221
3 237 238 221
3 239 223 222
3 238 239 222
3 224 240 226
3 225 241 224
3 224 241 240
3 226 240 242
3 226 242 227
3 227 242 243
3 227 243 228
3 228 243 244
3 228 244 229
3 244 245 229
3 229 245 230
3 230 245 246
3 230 246 231
3 231 246 247
3 231 247 232
3 248 233 232
3 248 232 247
3 249 234 233
3 248 249 233
3 250 235 234
3 249 250 234
3 251 236 235
3 250 251 235
3 252 237 236
3 251 252 236
3 253 238 237
3 252 253 237
3 254 239 238
3 253 254 238
3 240 255 242
3 241 256 240
3 240 256 255
3 242 255 257
3 242 257 243
3 243 257 258
3 243 258 244
3 244 258 259
3 244 259 245
3 245 259 260
3 245 260 246
3 246 260 261
3 246 261 247
3 248 247 261
3 262 249 248
3 261 262 248
3 263 250 249
3 262 263 249
3 264 251 250
3 263 264 250
3 265 252 251
3 264 265 251
3 266 253 252
3 265 266 252
3 267 254 253
3 266 267 253
3 255 268 257
3 256 269 255
3 255 269 268
3 257 268 270
3 257 270 258
3 258 270 271
3 258 271 259
3 259 271 272
3 259 272 260
3 260 272 273
3 260 273 261
3 274 262 261
3 261 273 274
3 275 263 262
3 274 275 262
3 276 264 263
3 275 276 263
3 277 265 264
3 276 277 264
3 278 266 265
3 277 278 265
3 279 267 266
3 278 279 266
3 268 280 270
3 269 281 268
3 268 281 280
3 270 280 282
3 270 282 271
3 271 282 283
3 271 283 272
3 283 284 272
3 272 284 273
3 285 275 274
3 273 284 285
3 285 274 273
3 286 276 275
3 285 286 275
3 287 277 276
3 286 287 276
3 288 278 277
3 287 288 277
3 289 279 278
3 288 289 278
3 280 290 282
3 281 291 280
3 280 291 290
3 282 290 292
3 282 292 283
3 283 292 293
3 283 293 284
3 284 293 294
3 284 294 285
3 295 286 285
3 295 285 294
3 296 287 286
3 295 296 286
3 297 288 287
3 296 297 287
3 298 289 288
3 297 298 288
3 290 299 292
3 291 300 290
3 290 300 299
3 292 299 301
3 292 301 293
3 293 301 302
3 293 302 294
3 294 302 295
3 303 296 295
3 303 295 302
3 304 297 296
3 303 304 296
3 305 298 297
3 304 305 297
3 299 306 301
3 300 307 299
3 299 307 306
3 301 306 308
3 301 308 302
3 309 303 302
3 302 308 309
3 310 304 303
3 309 310 303
3 311 305 304
3 310 311 304
3 306 312 308
3 307 313 306
3 306 313 312
3 314 310 309
3 308 312 314
3 314 309 308
3 315 311 310
3 314 315 310
3 312 316 314
3 313 317 312
3 312 317 316
3 318 315 314
3 318 314 316
3 317 319 316
3 319 318 316
CELL_TYPES 578
5
5
5
5
5
5
5
5
5
5
5
5
5
5
5
5
5
5
5
5
5
5
5
5
5
5
5
5
5
5
5
5
5
5
5
5
5
5
5
5
5
5
5
5
5
5
5
5
5
5
5
5
5
5
5
5
5
5
5
5
5
5
5
5
5
5
5
5
5
5
5
5
5
5
5
5
5
5
5
5
5
5
5
5
5
5
5
5
5
5
5
5
5
5
5
5
5
5
5
5
5
5
5
5
5
5
5
5
5
5
5
5
5
5
5
5
5
5
5
5
5
5
5
5
5
5
5
5
5
5
5
5
5
5
5
5
5
5
5
5
5
5
5
5
5
5
5
5
5
5
5
5
5
5
5
5
5
5
5
5
5
5
5
5
5
5
5
5
5
5
5
5
5
5
5
5
5
5
5
5
5
5
5
5
5
5
5
5
5
5
5
5
5
5
5
5
5
5
5
5
5
5
5
5
5
5
5
5
5
5
5
5
5
5
5
5
5
5
5
5
5
5
5
5
5
5
5
5
5
5
5
5
5
5
5
5
5
5
5
5
5
5
5
5
5
5
5
5
5
5
5
5
5
5
5
5
5
5
5
5
5
5
5
5
5
5
5
5
5
5
5
5
5
5
5
5
5
5
5
5
5
5
5
5
5
5
5
5
5
5
5
5
5
5
5
5
5
5
5
5
5
5
5
5
5
5
5
5
5
5
5
5
5
5
5
5
5
5
5
5
5
5
5
5
5
5
5
5
5
5
5
5
5
5
5
5
5
5
5
5
5
5
5
5
5
5
5
5
5
5
5
5
5
5
5
5
5
5
5
5
5
5
5
5
5
5
5
5
5
5
5
5
5
5
5
5
5
5
5
5
5
5
5
5
5
5
5
5
5
5
5
5
5
5
5
5
5
5
5
5
5
5
5
5
5
5
5
5
5
5
5
5
5
5
5
5
5
5
5
5
5
5
5
5
5
5
5
5
5
5
5
5
5
5
5
5
5
5
5
5
5
5
5
5
5
5
5
5
5
5
5
5
5
5
5
5
5
5
5
5
5
5
5
5
5
5
5
5
5
5
5
5
5
5
5
5
5
5
5
5
5
5
5
5
5
5
5
5
5
5
5
5
5
5
5
5
5
5
5
5
5
5
5
5
5
5
5
5
5
5
5
5
5
5
5
5
5
5
5
5
5
5
5
5
5
5
5
5
5
5
5
5
5
5
5
5
5
5
5
5
5
5
5
5
5
5
5
5
5
5
5
5
5
5
5
5
5
5
5
5
5
5
5
5
5
5
5
5
5
5
5
5
5
5
5
5
5
5
POINT_DATA 320
SCALARS theta_e float 1
LOOKUP_TABLE default
0.993240
0.993242
0.993233
0.993234
0.993272
0.993231
0.993245
0.993231
0.993243
0.993332
0.993289
0.993233
0.993256
0.993243
0.993276
0.993258
0.993407
0.993355
0.993308
0.993261
0.993282
0.993490
0.993332
0.993419
0.993307
0.993302
0.993433
0.993375
0.993334
0.993307
0.993323
0.993573
0.993516
0.993653
0.993535
0.993671
0.993385
0.993491
0.993371
0.993362
0.993449
0.993391
0.993363
0.993364
0.993597
0.993523
0.993726
0.993672
0.993817
0.993964
0.993620
0.993764
0.993469
0.993594
0.993449
0.993428
0.993451
0.993410
0.993403
0.993425
0.993595
0.993515
0.993791
0.993741
0.993661
0.993846
0.994107
0.994241
0.993910
0.994053
0.993735
0.993881
0.993567
0.993710
0.993524
0.993490
0.993465
0.993452
0.993464
0.993576
0.993514
0.993802
0.993720
0.993630
0.993883
0.993854
0.993895
0.994355
0.994429
0.994188
0.994307
0.994020
0.994148
0.993861
0.994002
0.993646
0.993792
0.993562
0.993526
0.993487
0.993488
0.993529
0.993554
0.993504
0.993777
0.993585
0.993673
0.993887
0.993825
0.993893
0.993884
0.993855
0.994397
0.994445
0.994456
0.994350
0.994262
0.994122
0.994219
0.993953
0.994095
0.993655
0.993796
0.993582
0.993644
0.993505
0.993586
0.993509
0.993502
0.993516
0.993714
0.993607
0.993747
0.993864
0.993807
0.993868
0.993875
0.993850
0.993828
0.994404
0.994437
0.994353
0.994296
0.994192
0.994246
0.993977
0.994150
0.993660
0.993757
0.993675
0.993409
0.993579
0.993575
0.993470
0.993570
0.993442
0.993508
0.993657
0.993573
0.993721
0.993812
0.993851
0.993856
0.993840
0.994347
0.994387
0.994299
0.994260
0.994222
0.994171
0.993952
0.993740
0.993730
0.993309
0.993583
0.993487
0.993552
0.993581
0.993472
0.993430
0.993495
0.993608
0.993712
0.993791
0.993827
0.993834
0.994268
0.994307
0.994233
0.994207
0.994186
0.994060
0.993806
0.993716
0.993604
0.993640
0.993887
0.993388
0.993456
0.993428
0.993421
0.993506
0.993605
0.993699
0.993765
0.993795
0.994177
0.994215
0.994148
0.994134
0.994107
0.993937
0.993709
0.993630
0.993704
0.993807
0.993419
0.993368
0.993381
0.993419
0.993506
0.993597
0.993677
0.993726
0.994073
0.994114
0.994045
0.994036
0.993993
0.993826
0.993645
0.993629
0.993660
0.993371
0.993361
0.993361
0.993424
0.993504
0.993582
0.993639
0.993956
0.994003
0.993925
0.993911
0.993856
0.993736
0.993599
0.993506
0.993418
0.993362
0.993336
0.993368
0.993429
0.993496
0.993550
0.993830
0.993882
0.993796
0.993771
0.993712
0.993616
0.993502
0.993392
0.993343
0.993344
0.993381
0.993430
0.993475
0.993707
0.993757
0.993672
0.993638
0.993579
0.993501
0.993432
0.993370
0.993346
0.993359
0.993391
0.993422
0.993599
0.993642
0.993568
0.993531
0.993482
0.993416
0.993369
0.993362
0.993376
0.993394
0.993518
0.993551
0.993492
0.993461
0.993430
0.993394
0.993378
0.993381
0.993390
0.993470
0.993492
0.993447
0.993421
0.993402
0.993397
0.993400
0.993453
0.993466
0.993436
0.993421
0.993420
0.993420
0.993457
0.993467
0.993445
0.993445
0.993478
0.993483
0.993473
0.993498
VECTORS fa_u float
0.000000 0.000000 0.000000
0.000000 0.000000 0.000000
0.000000 0.000000 0.000000
0.000000 0.000000 0.000000
0.000000 0.000000 0.000000
0.000000 0.000000 0.000000
0.000000 0.000000 0.000000
0.000000 0.000000 0.000000
0.000000 0.000000 0.000000
0.000000 0.000000 0.000000
0.000000 0.000000 0.000000
0.000000 0.000000 0.000000
0.000000 0.000000 0.000000
0.000000 0.000000 0.000000
0.000000 0.000000 0.000000
0.000000 0.000000 0.000000
0.000000 0.000000 0.000000
0.000000 0.000000 0.000000
0.000000 0.000000 0.000000
0.000000 0.000000 0.000000
0.000000 0.000000 0.000000
0.000000 0.000000 0.000000
0.000000 0.000000 0.000000
0.000000 0.000000 0.000000
0.000000 0.000000 0.000000
0.000000 0.000000 0.000000
0.000000 0.000000 0.000000
0.000000 0.000000 0.000000
0.000000 0.000000 0.000000
0.000000 0.000000 0.000000
0.000000 0.000000 0.000000
0.000000 0.000000 0.000000
0.000000 0.000000 0.000000
0.000000 0.000000 0.000000
0.000000 0.000000 0.000000
0.000000 0.000000 0.000000
0.000000 0.000000 0.000000
0.000000 0.000000 0.000000
0.000000 0.000000 0.000000
0.000000 0.000000 0.000000
0.000000 0.000000 0.000000
0.000000 0.000000 0.000000
0.000000 0.000000 0.000000
0.000000 0.000000 0.000000
0.000000 0.000000 0.000000
0.000000 0.000000 0.000000
0.000000 0.000000 0.000000
0.000000 0.000000 0.000000
0.000000 0.000000 0.000000
0.000000 0.000000 0.000000
0.000000 0.000000 0.000000
0.000000 0.000000 0.000000
0.000000 0.000000 0.000000
0.000000 0.000000 0.000000
0.000000 0.000000 0.000000
0.000000 0.000000 0.000000
0.000000 0.000000 0.000000
0.000000 0.000000 0.000000
0.000000 0.000000 0.000000
0.000000 0.000000 0.000000
0.000000 0.000000 0.000000
0.000000 0.000000 0.000000
0.000000 0.000000 0.000000
0.000000 0.000000 0.000000
0.000000 0.000000 0.000000
0.000000 0.000000 0.000000
0.000000 0.000000 0.000000
0.000000 0.000000 0.000000
0.000000 0.000000 0.000000
0.000000 0.000000 0.000000
0.000000 0.000000 0.000000
0.000000 0.000000 0.000000
0.000000 0.000000 0.000000
0.000000 0.000000 0.000000
0.000000 0.000000 0.000000
0.000000 0.000000 0.000000
0.000000 0.000000 0.000000
0.000000 0.000000 0.000000
0.000000 0.000000 0.000000
0.000000 0.000000 0.000000
0.000000 0.000000 0.000000
0.000000 0.000000 0.000000
0.000000 0.000000 0.000000
0.000000 0.000000 0.000000
0.000000 0.000000 0.000000
0.000000 0.000000 0.000000
0.000000 0.000000 0.000000
0.000000 0.000000 0.000000
0.000000 0.000000 0.000000
0.000000 0.000000 0.000000
0.000000 0.000000 0.000000
0.000000 0.000000 0.000000
0.000000 0.000000 0.000000
0.000000 0.000000 0.000000
0.000000 0.000000 0.000000
0.000000 0.000000 0.000000
0.000000 0.000000 0.000000
0.000000 0.000000 0.000000
0.000000 0.000000 0.000000
0.000000 0.000000 0.000000
0.000000 0.000000 0.000000
0.000000 0.000000 0.000000
0.000000 0.000000 0.000000
0.000000 0.000000 0.000000
0.000000 0.000000 0.000000
0.000000 0.000000 0.000000
0.000000 0.000000 0.000000
0.000000 0.000000 0.000000
0.000000 0.000000 0.000000
0.000000 0.000000 0.000000
0.000000 0.000000 0.000000
0.000000 0.000000 0.000000
0.000000 0.000000 0.000000
0.000000 0.000000 0.000000
0.000000 0.000000 0.000000
0.000000 0.000000 0.000000
0.000000 0.000000 0.000000
0.000000 0.000000 0.000000
0.000000 0.000000 0.000000
0.000000 0.000000 0.000000
0.000000 0.000000 0.000000
0.000000 0.000000 0.000000
0.000000 0.000000 0.000000
0.000000 0.000000 0.000000
0.000000 0.000000 0.000000
0.000000 0.000000 0.000000
0.000000 0.000000 0.000000
0.000000 0.000000 0.000000
0.000000 0.000000 0.000000
0.000000 0.000000 0.000000
0.000000 0.000000 0.000000
0.000000 0.000000 0.000000
0.000000 0.000000 0.000000
0.000000 0.000000 0.000000
0.000000 0.000000 0.000000
0.000000 0.000000 0.000000
0.000000 0.000000 0.000000
0.000000 0.000000 0.000000
0.000000 0.000000 0.000000
0.000000 0.000000 0.000000
0.000000 0.000000 0.000000
0.000000 0.000000 0.000000
0.000000 0.000000 0.000000
0.000000 0.000000 0.000000
0.000000 0.000000 0.000000
0.000000 0.000000 0.000000
0.000000 0.000000 0.000000
0.000000 0.000000 0.000000
0.000000 0.000000 0.000000
0.000000 0.000000 0.000000
0.000000 0.000000 0.000000
0.000000 0.000000 0.000000
0.000000 0.000000 0.000000
0.000000 0.000000 0.000000
0.000000 0.000000 0.000000
0.000000 0.000000 0.000000
0.000000 0.000000 0.000000
0.000000 0.000000 0.000000
0.000000 0.000000 0.000000
0.000000 0.000000 0.000000
0.000000 0.000000 0.000000
0.000000 0.000000 0.000000
0.000000 0.000000 0.000000
0.000000 0.000000 0.000000
0.000000 0.000000 0.000000
0.000000 0.000000 0.000000
0.000000 0.000000 0.000000
0.000000 0.000000 0.000000
0.000000 0.000000 0.000000
0.000000 0.000000 0.000000
0.000000 0.000000 0.000000
0.000000 0.000000 0.000000
0.000000 0.000000 0.000000
0.000000 0.000000 0.000000
0.000000 0.000000 0.000000
0.000000 0.000000 0.000000
0.000000 0.000000 0.000000
0.000000 0.000000 0.000000
0.000000 0.000000 0.000000
0.000000 0.000000 0.000000
0.000000 0.000000 0.000000
0.000000 0.000000 0.000000
0.000000 0.000000 0.000000
0.000000 0.000000 0.000000
0.000000 0.000000 0.000000
0.000000 0.000000 0.000000
0.000000 0.000000 0.000000
0.000000 0.000000 0.000000
0.000000 0.000000 0.000000
0.000000 0.000000 0.000000
0.000000 0.000000 0.000000
0.000000 0.000000 0.000000
0.000000 0.000000 0.000000
0.000000 0.000000 0.000000
0.000000 0.000000 0.000000
0.000000 0.000000 0.000000
0.000000 0.000000 0.000000
0.000000 0.000000 0.000000
0.000000 0.000000 0.000000
0.000000 0.000000 0.000000
0.000000 0.000000 0.000000
0.000000 0.000000 0.000000
0.000000 0.000000 0.000000
0.000000 0.000000 0.000000
0.000000 0.000000 0.000000
0.000000 0.000000 0.000000
0.000000 0.000000 0.000000
0.000000 0.000000 0.000000
0.000000 0.000000 0.000000
0.000000 0.000000 0.000000
0.000000 0.000000 0.000000
0.000000 0.000000 0.000000
0.000000 0.000000 0.000000
0.000000 0.000000 0.000000
0.000000 0.000000 0.000000
0.000000 0.000000 0.000000
0.000000 0.000000 0.000000
0.000000 0.000000 0.000000
0.000000 0.000000 0.000000
0.000000 0.000000 0.000000
0.000000 0.000000 0.000000
0.000000 0.000000 0.000000
0.000000 0.000000 0.000000
0.000000 0.000000 0.000000
0.000000 0.000000 0.000000
0.000000 0.000000 0.000000
0.000000 0.000000 0.000000
0.000000 0.000000 0.000000
0.000000 0.000000 0.000000
0.000000 0.000000 0.000000
0.000000 0.000000 0.000000
0.000000 0.000000 0.000000
0.000000 0.000000 0.000000
0.000000 0.000000 0.000000
0.000000 0.000000 0.000000
0.000000 0.000000 0.000000
0.000000 0.000000 0.000000
0.000000 0.000000 0.000000
0.000000 0.000000 0.000000
0.000000 0.000000 0.000000
0.000000 0.000000 0.000000
0.000000 0.000000 0.000000
0.000000 0.000000 0.000000
0.000000 0.000000 0.000000
0.000000 0.000000 0.000000
0.000000 0.000000 0.000000
0.000000 0.000000 0.000000
0.000000 0.000000 0.000000
0.000000 0.000000 0.000000
0.000000 0.000000 0.000000
0.000000 0.000000 0.000000
0.000000 0.000000 0.000000
0.000000 0.000000 0.000000
0.000000 0.000000 0.000000
0.000000 0.000000 0.000000
0.000000 0.000000 0.000000
0.000000 0.000000 0.000000
0.000000 0.000000 0.000000
0.000000 0.000000 0.000000
0.000000 0.000000 0.000000
0.000000 0.000000 0.000000
0.000000 0.000000 0.000000
0.000000 0.000000 0.000000
0.000000 0.000000 0.000000
0.000000 0.000000 0.000000
0.000000 0.000000 0.000000
0.000000 0.000000 0.000000
0.000000 0.000000 0.000000
0.000000 0.000000 0.000000
0.000000 0.000000 0.000000
0.000000 0.000000 0.000000
0.000000 0.000000 0.000000
0.000000 0.000000 0.000000
0.000000 0.000000 0.000000
0.000000 0.000000 0.000000
0.000000 0.000000 0.000000
0.000000 0.000000 0.000000
0.000000 0.000000 0.000000
0.000000 0.000000 0.000000
0.000000 0.000000 0.000000
0.000000 0.000000 0.000000
0.000000 0.000000 0.000000
0.000000 0.000000 0.000000
0.000000 0.000000 0.000000
0.000000 0.000000 0.000000
0.000000 0.000000 0.000000
0.000000 0.000000 0.000000
0.000000 0.000000 0.000000
0.000000 0.000000 0.000000
0.000000 0.000000 0.000000
0.000000 0.000000 0.000000
0.000000 0.000000 0.000000
0.000000 0.000000 0.000000
0.000000 0.000000 0.000000
0.000000 0.000000 0.000000
0.000000 0.000000 0.000000
0.000000 0.000000 -50.000000
-50.000000 0.000000 -50.000000
-43.352079 0.000000 -45.686187
-45.530311 0.000000 -43.285094
-50.000000 0.000000 -50.000000
-36.702149 0.000000 -36.572885
-50.000000 0.000000 -45.077998
-40.045753 0.000000 -40.015935
-44.203320 0.000000 -29.860308
-50.000000 0.000000 -50.000000
-30.050458 0.000000 -44.843745
-33.570010 0.000000 -33.112014
-44.724382 0.000000 -39.853059
-36.887251 0.000000 -35.104115
-39.887093 0.000000 -23.149755
-50.000000 0.000000 -26.492950
-44.714124 0.000000 -50.000000
-23.398982 0.000000 -44.659521
-26.972935 0.000000 -39.344897
-30.374306 0.000000 -29.569432
-39.446807 0.000000 -33.336878
-33.786076 0.000000 -50.000000
-16.745574 0.000000 -16.448274
-50.000000 0.000000 -9.757732
