# vtk DataFile Version 2.0
CellBP Time: 1.4
ASCII
DATASET UNSTRUCTURED_GRID
POINTS 296 double
-9.12675 -3.7513 0
-8.55138 -4.91618 0
-9.54336 -2.52074 0
-9.79629 -1.24592 0
-8.35219 -2.81668 0
-7.83058 -5.99721 0
-6.97364 -6.97379 0
-7.91211 -3.87211 0
-7.33793 -4.86464 0
-5.99656 -7.83013 0
-4.91626 -8.55186 0
-9.89468 0.0499582 0
-9.79647 1.34589 0
-8.65226 -1.6825 0
-8.78207 -0.528448 0
-7.58441 -2.0024 0
-7.22059 -2.90423 0
-6.63345 -5.77523 0
-5.81871 -6.59276 0
-6.78544 -3.88599 0
-6.21617 -4.67249 0
-3.75083 -9.12605 0
-2.52081 -9.54448 0
-4.90332 -7.30423 0
-3.91044 -7.88127 0
-8.78853 0.642215 0
-9.54401 2.62087 0
-8.61802 1.77269 0
-9.12806 3.8518 0
-7.73925 -0.928127 0
-7.78965 0.0802834 0
-6.94815 -1.31487 0
-1.24637 -9.79752 0
-6.43739 -2.15155 0
-6.31507 -3.05395 0
-5.53263 -5.47063 0
-4.79247 -6.11111 0
-5.65533 -3.75443 0
-5.26572 -4.55835 0
-2.86422 -8.35863 0
-1.77731 -8.63465 0
-3.92534 -6.71876 0
-3.05432 -7.14755 0
0.0499596 -9.88589 0
-7.70052 1.14255 0
-8.33345 2.91354 0
-7.54661 2.11038 0
-8.5527 5.01683 0
-7.87526 3.97576 0
-7.83044 6.09694 0
-6.77456 -0.396609 0
-6.95215 0.552252 0
-5.7686 -1.00284 0
-0.590333 -8.80405 0
0.565444 -8.76536 0
-5.30042 -2.47897 0
-4.48894 -5.09232 0
-3.89975 -5.77132 0
-4.43654 -3.80274 0
-2.06084 -7.55665 0
-1.13464 -7.78034 0
-2.99239 -6.09798 0
-2.30728 -6.61521 0
1.34631 -9.79817 0
-6.68538 1.42116 0
-7.16718 3.11582 0
-6.65489 2.37132 0
-7.29036 4.98566 0
-6.71344 4.00033 0
-6.97427 7.07422 0
-6.56856 5.8907 0
-5.99713 7.93086 0
-4.45084 -1.18036 0
-5.8118 0.513504 0
-4.65381 -0.0102561 0
0.00849418 -7.84257 0
1.73777 -8.63859 0
0.948414 -7.75797 0
-4.03646 -2.40509 0
-3.48357 -1.39031 0
-3.29264 -4.80284 0
-3.2641 -3.266 0
-1.37761 -6.67119 0
-0.508414 -7.02035 0
-1.97436 -5.53415 0
2.62069 -9.54444 0
-5.50469 2.03591 0
-6.0909 3.07017 0
-6.10088 4.86635 0
-5.75788 3.98889 0
-5.758 6.71337 0
-5.44841 5.6157 0
-4.91655 8.65261 0
-4.83574 7.4004 0
-3.49954 -0.423916 0
-4.44701 1.24849 0
-3.70939 0.591912 0
-4.0601 2.31871 0
-3.75113 9.22693 0
2.86119 -8.328 0
0.419507 -6.791 0
2.02083 -7.52093 0
1.30527 -6.90098 0
-2.44324 -0.873201 0
-2.83676 -2.12984 0
-2.2931 -4.09525 0
-2.32424 -2.97186 0
-0.441959 -5.85812 0
-1.22196 -4.49683 0
3.85149 -9.12803 0
-4.78748 3.39017 0
-5.08471 4.59133 0
-4.64409 6.27733 0
-4.53586 5.35624 0
-3.84156 7.98884 0
-3.82422 6.84129 0
-2.78172 8.41813 0
-1.64778 -0.137659 0
-1.44919 -0.889882 0
-2.48765 0.507179 0
-3.25176 1.4435 0
-3.23734 3.31498 0
-2.90924 2.37055 0
-1.35406 0.626847 0
-2.52082 9.64462 0
3.93072 -7.8825 0
2.96294 -7.15326 0
0.953737 -5.81881 0
2.07308 -6.41136 0
-1.68195 -1.99087 0
-1.43357 -3.27592 0
0.0903622 -4.74463 0
-0.565775 -3.69247 0
4.92968 -7.31457 0
5.01612 -8.5521 0
-3.77516 4.54949 0
-3.73244 5.74862 0
-2.88608 7.28515 0
-3.00776 6.34971 0
-1.6616 8.72888 0
-1.93879 7.61452 0
-2.33718 4.04974 0
-0.730163 -1.32631 0
-0.836209 -0.25733 0
-1.935 1.68001 0
-2.12448 2.87435 0
-1.30569 3.54275 0
-0.86877 1.3501 0
-0.282041 0.455773 0
-0.533177 8.86689 0
-1.24653 9.89863 0
1.11234 -4.57229 0
3.90807 -6.71311 0
2.98628 -6.09071 0
2.11695 -5.42195 0
4.7819 -6.20134 0
-0.558476 -2.47535 0
0.495018 -3.46194 0
0.0536475 -1.60942 0
1.48123 -3.67995 0
5.86452 -6.61091 0
6.09618 -7.83003 0
-2.47456 5.34602 0
-2.12914 6.53058 0
-0.903424 7.79839 0
-1.27146 6.92777 0
0.0862666 7.87541 0
-1.14381 4.49253 0
0.150315 -0.617297 0
-0.796826 2.48726 0
-0.331254 3.59876 0
0.0632673 1.51186 0
0.741155 0.473137 0
0.646495 8.86962 0
0.0500351 9.98406 0
2.37994 -4.28314 0
3.85731 -5.63697 0
2.99995 -5.20998 0
5.57105 -5.48859 0
4.68884 -5.28006 0
0.629466 -2.29206 0
1.25561 -2.94972 0
0.757036 -1.39062 0
2.16327 -3.13417 0
2.99228 -3.47467 0
6.15226 -4.78917 0
6.65395 -5.76643 0
7.0738 -6.97365 0
-1.01915 5.81777 0
-0.372269 6.87969 0
1.12199 7.76484 0
0.557726 7.07564 0
-0.000644464 4.72293 0
0.606834 3.82572 0
1.33826 -0.641564 0
0.539009 2.64967 0
0.965754 1.57398 0
1.90927 0.213674 0
1.614 1.06431 0
2.12817 7.57912 0
1.79838 8.70816 0
1.34657 9.89812 0
3.82121 -4.34957 0
5.11419 -4.4467 0
5.84288 -3.93302 0
3.7823 -3.19951 0
1.81139 -1.8818 0
3.01774 -2.57275 0
6.78017 -3.94618 0
7.37909 -4.89567 0
7.93938 -6.00347 0
0.483188 5.87911 0
1.42748 6.73828 0
2.37296 6.66519 0
1.20951 4.5541 0
1.48755 3.39583 0
2.43459 -0.691665 0
2.82652 0.142414 0
1.78812 2.16165 0
2.6106 1.14939 0
3.07028 7.16602 0
2.90292 8.37316 0
2.62135 9.64605 0
4.90941 -3.32647 0
6.11794 -3.1073 0
4.17115 -2.27439 0
3.24298 -1.50238 0
6.72811 -2.31202 0
7.22842 -3.04113 0
7.96184 -3.91101 0
8.65846 -4.92006 0
2.02288 5.59768 0
3.08499 6.15039 0
2.36302 4.12515 0
2.41898 3.05925 0
3.524 -0.46078 0
3.61394 0.612848 0
2.96043 2.28684 0
3.54386 1.52438 0
4.0102 5.89519 0
3.98264 6.7897 0
3.97188 7.93572 0
3.852 9.22898 0
5.56699 -1.91551 0
4.5076 -1.12929 0
6.71102 -1.33568 0
7.58892 -2.03568 0
8.39417 -2.86076 0
9.2347 -3.75455 0
3.41798 4.87539 0
3.33775 3.384 0
4.6897 0.129883 0
4.51759 1.30934 0
4.06387 2.44278 0
4.56875 5.1504 0
4.84164 6.18808 0
4.97883 7.37796 0
5.01661 8.65265 0
5.88171 -0.434817 0
7.008 -0.48813 0
7.75638 -1.08492 0
8.68206 -1.74547 0
9.64329 -2.52074 0
4.55118 3.82645 0
5.81625 1.09821 0
5.36991 2.53419 0
5.37823 4.61889 0
5.61026 5.52145 0
5.89556 6.66993 0
6.09681 7.93051 0
6.84381 0.463343 0
7.85058 -0.0257305 0
8.85798 -0.584179 0
9.89954 -1.24658 0
6.95824 1.34899 0
5.71945 3.77723 0
6.53961 2.19679 0
6.37837 3.08697 0
6.2905 4.68539 0
6.6916 5.83645 0
7.07385 7.07402 0
7.78182 0.967293 0
8.85727 0.572599 0
9.98355 0.0500329 0
7.61398 2.0037 0
6.8274 3.90301 0
7.26753 2.94594 0
7.37688 4.88466 0
7.93204 6.09823 0
8.72095 1.72663 0
9.89778 1.34651 0
8.41936 2.83746 0
7.98034 3.91537 0
8.65261 5.01657 0
9.6457 2.62134 0
9.23426 3.85424 0
CELLS 542 2168
3 2 0 4
3 0 1 7
3 4 0 7
3 1 5 8
3 7 1 8
3 3 2 13
3 13 2 4
3 11 3 14
3 14 3 13
3 13 4 15
3 4 7 16
3 15 4 16
3 5 6 17
3 8 5 17
3 6 9 18
3 17 6 18
3 7 8 19
3 16 7 19
3 8 17 20
3 19 8 20
3 9 10 23
3 18 9 23
3 10 21 24
3 23 10 24
3 12 11 25
3 25 11 14
3 26 12 27
3 27 12 25
3 14 13 29
3 29 13 15
3 25 14 30
3 30 14 29
3 29 15 31
3 15 16 33
3 31 15 33
3 16 19 34
3 33 16 34
3 17 18 35
3 20 17 35
3 18 23 36
3 35 18 36
3 19 20 37
3 34 19 37
3 20 35 38
3 37 20 38
3 21 22 39
3 24 21 39
3 22 32 40
3 39 22 40
3 23 24 41
3 36 23 41
3 24 39 42
3 41 24 42
3 27 25 44
3 44 25 30
3 28 26 45
3 45 26 27
3 45 27 46
3 46 27 44
3 47 28 48
3 48 28 45
3 30 29 50
3 50 29 31
3 44 30 51
3 51 30 50
3 50 31 52
3 31 33 52
3 32 43 53
3 40 32 53
3 53 43 54
3 33 34 55
3 34 37 55
3 33 55 52
3 35 36 56
3 38 35 56
3 36 41 57
3 56 36 57
3 37 38 58
3 38 56 58
3 37 58 55
3 39 40 59
3 42 39 59
3 40 53 60
3 59 40 60
3 41 42 61
3 57 41 61
3 42 59 62
3 61 42 62
3 43 63 54
3 46 44 64
3 64 44 51
3 48 45 65
3 65 45 46
3 65 46 66
3 66 46 64
3 49 47 67
3 67 47 48
3 67 48 68
3 68 48 65
3 69 49 70
3 70 49 67
3 52 55 72
3 64 51 73
3 51 50 73
3 50 52 73
3 73 52 74
3 74 52 72
3 53 54 75
3 60 53 75
3 54 63 76
3 54 76 77
3 75 54 77
3 55 58 78
3 72 55 78
3 72 78 79
3 56 57 80
3 57 61 80
3 56 80 58
3 58 80 81
3 78 58 81
3 59 60 82
3 62 59 82
3 60 75 83
3 82 60 83
3 61 62 84
3 62 82 84
3 61 84 80
3 63 85 76
3 66 64 86
3 64 73 86
3 68 65 87
3 87 65 66
3 87 66 86
3 70 67 88
3 88 67 68
3 88 68 89
3 89 68 87
3 71 69 90
3 90 69 70
3 90 70 91
3 91 70 88
3 92 71 93
3 93 71 90
3 74 72 94
3 94 72 79
3 86 73 95
3 95 73 74
3 95 74 96
3 96 74 94
3 97 86 95
3 76 85 99
3 75 77 100
3 83 75 100
3 76 99 101
3 77 76 101
3 77 101 102
3 100 77 102
3 94 79 103
3 78 81 104
3 79 78 104
3 79 104 103
3 80 84 105
3 81 80 105
3 81 105 106
3 104 81 106
3 82 83 107
3 83 100 107
3 82 107 84
3 84 107 108
3 105 84 108
3 85 109 99
3 89 87 110
3 87 86 110
3 110 86 97
3 91 88 111
3 111 88 89
3 111 89 110
3 93 90 112
3 112 90 91
3 112 91 113
3 113 91 111
3 98 92 114
3 114 92 93
3 114 93 115
3 115 93 112
3 116 98 114
3 117 103 118
3 96 94 119
3 94 103 119
3 119 103 117
3 97 95 120
3 120 95 96
3 120 96 119
3 121 110 97
3 121 97 122
3 122 97 120
3 123 119 117
3 124 98 116
3 99 109 125
3 99 125 126
3 101 99 126
3 100 102 127
3 100 127 107
3 101 126 128
3 102 101 128
3 102 128 127
3 104 106 129
3 104 129 103
3 103 129 118
3 105 108 130
3 106 105 130
3 106 130 129
3 107 127 131
3 108 107 131
3 108 131 132
3 108 132 130
3 109 134 125
3 125 134 133
3 113 111 135
3 111 110 135
3 135 110 121
3 115 112 136
3 136 112 113
3 136 113 135
3 116 114 137
3 137 114 115
3 137 115 138
3 138 115 136
3 139 124 116
3 139 116 140
3 140 116 137
3 141 135 121
3 118 129 142
3 118 142 143
3 117 118 143
3 123 117 143
3 122 120 144
3 120 119 144
3 144 119 123
3 141 121 145
3 145 121 122
3 145 122 144
3 146 141 145
3 147 144 123
3 147 123 148
3 143 148 123
3 150 124 139
3 149 150 139
3 131 127 151
3 125 133 152
3 126 125 152
3 126 152 153
3 128 126 153
3 128 153 154
3 128 154 127
3 127 154 151
3 152 133 155
3 130 132 156
3 130 156 129
3 129 156 142
3 131 151 157
3 132 131 157
3 132 157 156
3 156 158 142
3 157 151 159
3 133 160 155
3 134 161 133
3 133 161 160
3 138 136 162
3 136 135 162
3 162 135 141
3 140 137 163
3 163 137 138
3 163 138 162
3 149 139 164
3 164 139 140
3 164 140 165
3 165 140 163
3 166 149 164
3 167 162 141
3 167 141 146
3 142 158 168
3 143 142 168
3 143 168 148
3 146 145 169
3 145 144 169
3 169 144 147
3 170 167 146
3 170 146 169
3 171 169 147
3 171 147 148
3 171 148 172
3 168 172 148
3 173 149 166
3 174 150 149
3 173 174 149
3 154 175 151
3 151 175 159
3 152 155 176
3 153 152 176
3 153 176 177
3 153 177 154
3 154 177 175
3 155 160 178
3 155 178 179
3 176 155 179
3 156 157 180
3 156 180 158
3 157 159 181
3 157 181 180
3 158 180 182
3 158 182 168
3 159 175 183
3 159 183 181
3 175 184 183
3 160 186 178
3 178 186 185
3 161 187 160
3 160 187 186
3 165 163 188
3 163 162 188
3 188 162 167
3 166 164 189
3 189 164 165
3 189 165 188
3 190 173 166
3 190 166 191
3 191 166 189
3 192 188 167
3 192 167 170
3 193 192 170
3 182 194 168
3 194 172 168
3 193 170 195
3 170 169 195
3 195 169 171
3 196 195 171
3 196 171 172
3 194 197 172
3 197 198 172
3 198 196 172
3 200 173 190
3 199 200 190
3 201 174 173
3 200 201 173
3 176 179 202
3 177 176 202
3 177 202 175
3 175 202 184
3 178 185 203
3 178 203 179
3 179 203 202
3 203 185 204
3 202 205 184
3 183 206 181
3 180 181 206
3 180 206 182
3 182 206 194
3 183 184 207
3 205 207 184
3 183 207 206
3 185 208 204
3 186 209 185
3 185 209 208
3 187 210 186
3 186 210 209
3 191 189 211
3 189 188 211
3 211 188 192
3 199 190 212
3 212 190 191
3 212 191 211
3 213 199 212
3 214 211 192
3 214 192 193
3 215 214 193
3 215 193 195
3 206 216 194
3 216 197 194
3 216 217 197
3 215 195 218
3 218 195 196
3 198 218 196
3 217 219 197
3 219 218 198
3 197 219 198
3 220 199 213
3 221 200 199
3 220 221 199
3 222 201 200
3 221 222 200
3 203 204 223
3 203 223 202
3 202 223 205
3 204 208 224
3 204 224 223
3 205 223 225
3 205 225 207
3 207 225 226
3 207 226 206
3 226 216 206
3 208 228 224
3 224 228 227
3 209 229 208
3 229 228 208
3 210 230 209
3 209 230 229
3 213 212 231
3 212 211 231
3 231 211 214
3 232 220 213
3 232 213 231
3 233 231 214
3 233 214 215
3 234 233 215
3 234 215 218
3 226 235 216
3 235 217 216
3 235 236 217
3 217 236 219
3 237 234 218
3 237 218 219
3 236 238 219
3 238 237 219
3 240 220 232
3 239 240 232
3 241 221 220
3 240 241 220
3 242 222 221
3 241 242 221
3 224 227 243
3 224 243 223
3 223 243 225
3 225 243 244
3 225 244 226
3 226 244 235
3 227 245 243
3 228 246 227
3 227 246 245
3 229 247 228
3 228 247 246
3 230 248 229
3 229 248 247
3 239 232 249
3 232 231 249
3 249 231 233
3 250 249 233
3 250 233 234
3 237 250 234
3 244 251 235
3 235 251 236
3 251 252 236
3 236 252 238
3 252 253 238
3 253 250 237
3 253 237 238
3 254 239 249
3 255 240 239
3 254 255 239
3 256 241 240
3 255 256 240
3 257 242 241
3 256 257 241
3 245 258 243
3 243 258 244
3 244 258 251
3 245 259 258
3 246 260 245
3 245 260 259
3 247 261 246
3 246 261 260
3 248 262 247
3 247 262 261
3 254 249 263
3 263 249 250
3 253 263 250
3 258 264 251
3 251 264 252
3 264 265 252
3 265 263 253
3 252 265 253
3 266 254 263
3 267 255 254
3 266 267 254
3 268 256 255
3 267 268 255
3 269 257 256
3 268 269 256
3 259 270 258
3 270 264 258
3 260 271 259
3 259 271 270
3 261 272 260
3 260 272 271
3 262 273 261
3 273 272 261
3 270 274 264
3 275 266 263
3 275 263 265
3 274 276 264
3 276 265 264
3 276 277 265
3 277 275 265
3 278 267 266
3 275 278 266
3 279 268 267
3 278 279 267
3 280 269 268
3 279 280 268
3 271 281 270
3 270 281 274
3 272 282 271
3 271 282 281
3 273 283 272
3 272 283 282
3 281 284 274
3 274 284 276
3 285 278 275
3 277 285 275
3 284 286 276
3 286 285 277
3 276 286 277
3 287 279 278
3 285 287 278
3 288 280 279
3 287 288 279
3 282 289 281
3 281 289 284
3 283 290 282
3 282 290 289
3 289 291 284
3 284 291 286
3 291 292 286
3 292 287 285
3 286 292 285
3 293 288 287
3 292 293 287
3 290 294 289
3 289 294 291
3 294 295 291
3 295 293 292
3 291 295 292
CELL_TYPES 542
5
5
5
5
5
5
5
5
5
5
5
5
5
5
5
5
5
5
5
5
5
5
5
5
5
5
5
5
5
5
5
5
5
5
5
5
5
5
5
5
5
5
5
5
5
5
5
5
5
5
5
5
5
5
5
5
5
5
5
5
5
5
5
5
5
5
5
5
5
5
5
5
5
5
5
5
5
5
5
5
5
5
5
5
5
5
5
5
5
5
5
5
5
5
5
5
5
5
5
5
5
5
5
5
5
5
5
5
5
5
5
5
5
5
5
5
5
5
5
5
5
5
5
5
5
5
5
5
5
5
5
5
5
5
5
5
5
5
5
5
5
5
5
5
5
5
5
5
5
5
5
5
5
5
5
5
5
5
5
5
5
5
5
5
5
5
5
5
5
5
5
5
5
5
5
5
5
5
5
5
5
5
5
5
5
5
5
5
5
5
5
5
5
5
5
5
5
5
5
5
5
5
5
5
5
5
5
5
5
5
5
5
5
5
5
5
5
5
5
5
5
5
5
5
5
5
5
5
5
5
5
5
5
5
5
5
5
5
5
5
5
5
5
5
5
5
5
5
5
5
5
5
5
5
5
5
5
5
5
5
5
5
5
5
5
5
5
5
5
5
5
5
5
5
5
5
5
5
5
5
5
5
5
5
5
5
5
5
5
5
5
5
5
5
5
5
5
5
5
5
5
5
5
5
5
5
5
5
5
5
5
5
5
5
5
5
5
5
5
5
5
5
5
5
5
5
5
5
5
5
5
5
5
5
5
5
5
5
5
5
5
5
5
5
5
5
5
5
5
5
5
5
5
5
5
5
5
5
5
5
5
5
5
5
5
5
5
5
5
5
5
5
5
5
5
5
5
5
5
5
5
5
5
5
5
5
5
5
5
5
5
5
5
5
5
5
5
5
5
5
5
5
5
5
5
5
5
5
5
5
5
5
5
5
5
5
5
5
5
5
5
5
5
5
5
5
5
5
5
5
5
5
5
5
5
5
5
5
5
5
5
5
5
5
5
5
5
5
5
5
5
5
5
5
5
5
5
5
5
5
5
5
5
5
5
5
5
5
5
5
5
5
5
5
5
5
5
5
5
5
5
5
5
5
5
5
5
5
5
5
5
5
5
5
5
5
5
5
5
5
5
5
5
5
5
5
5
5
5
5
5
5
5
5
5
5
5
5
5
5
5
5
5
5
5
5
5
5
5
5
5
5
5
5
5
5
5
5
5
5
5
5
POINT_DATA 296
SCALARS concentrations float 4
LOOKUP_TABLE default
0 0.984462 0.160751 10.2808
0 0.984456 0.160568 10.2568
0 0.984463 0.160287 10.2252
0 0.984473 0.158705 10.211
0 0.984944 0.0938774 0.519977
0 0.984444 0.160111 10.2133
0 0.984447 0.158752 10.2322
0 0.984956 0.0938602 0.526835
0 0.984935 0.0938562 0.512284
0 0.984452 0.159758 10.1672
0 0.984467 0.159979 10.1793
0 0.984479 0.158927 10.058
0 0.984502 0.158376 10.1676
0 0.984956 0.0938732 0.493135
0 0.984953 0.0937818 0.460736
0 0.985954 0.0939435 0.509626
0 0.985939 0.0939121 0.522093
0 0.984939 0.0938229 0.48965
0 0.98493 0.09382 0.489918
0 0.98595 0.0939103 0.521541
0 0.985929 0.0938889 0.503077
0 0.984479 0.160813 10.2916
0 0.984498 0.160373 10.4714
0 0.984946 0.0938025 0.499728
0 0.984951 0.0938173 0.496426
0 0.984973 0.0937663 0.459876
0 0.984524 0.159039 10.0679
0 0.984976 0.0937989 0.4833
0 0.984545 0.159505 10.123
0 0.985937 0.0939314 0.482729
0 0.985955 0.0938388 0.460464
0 0.98687 0.0935488 0.429515
0 0.984541 0.15998 10.3273
0 0.987011 0.0933844 0.417919
0 0.986851 0.0935745 0.459907
0 0.985925 0.0938733 0.489544
0 0.985912 0.0938834 0.497275
0 0.987007 0.0934129 0.424626
0 0.986831 0.0936112 0.450405
0 0.984998 0.093882 0.485361
0 0.985017 0.0938918 0.484808
0 0.985923 0.0938796 0.502099
0 0.985926 0.0938815 0.495824
0 0.984625 0.149645 8.18324
0 0.985956 0.0939035 0.480439
0 0.985013 0.0937792 0.501739
0 0.985983 0.0939529 0.511429
0 0.984549 0.158932 10.082
0 0.985023 0.0937489 0.504147
0 0.984551 0.158782 10.0205
0 0.987009 0.0934148 0.397207
0 0.986861 0.0935704 0.420177
0 0.987685 0.092636 0.285711
0 0.985105 0.0938492 0.55632
0 0.985114 0.093736 0.566948
0 0.987688 0.0926536 0.3006
0 0.986993 0.0934552 0.420795
0 0.986823 0.093599 0.446777
0 0.987681 0.0927 0.304326
0 0.986014 0.0938576 0.489593
0 0.986106 0.0938383 0.544863
0 0.986984 0.0934796 0.424868
0 0.986839 0.0936143 0.452298
0 0.984633 0.158778 10.1712
0 0.987049 0.0933848 0.403853
0 0.985998 0.0939114 0.520482
0 0.986909 0.0935749 0.453187
0 0.98502 0.0937234 0.494771
0 0.986019 0.0938465 0.504737
0 0.98457 0.157588 9.95709
0 0.984998 0.0937446 0.493317
0 0.984541 0.155211 10.3218
0 0.988218 0.0923252 0.25089
0 0.987698 0.092639 0.280384
0 0.988233 0.0923248 0.246698
0 0.986141 0.0937895 0.570388
0 0.985154 0.0936602 0.479906
0 0.986137 0.0937987 0.582803
0 0.988233 0.0923348 0.254462
0 0.988691 0.0921862 0.235957
0 0.987675 0.0927117 0.297776
0 0.988228 0.0923722 0.256092
0 0.987052 0.0933274 0.435893
0 0.986943 0.0934063 0.488206
0 0.987685 0.0927002 0.29603
0 0.984674 0.159144 10.115
0 0.987717 0.0926049 0.291756
0 0.987078 0.0933959 0.426343
0 0.985974 0.0938842 0.493662
0 0.986926 0.0935715 0.443638
0 0.984987 0.0938329 0.405545
0 0.98593 0.0938864 0.426426
0 0.984601 0.158709 9.8963
0 0.984997 0.0937776 0.417306
0 0.988762 0.0920944 0.220518
0 0.988228 0.0923304 0.250719
0 0.988705 0.0921569 0.22706
0 0.988262 0.0923047 0.253605
0 0.984604 0.159156 10.0562
0 0.985177 0.0936508 0.473919
0 0.987084 0.0933513 0.484007
0 0.98612 0.0936745 0.497097
0 0.98694 0.0934998 0.510448
0 0.98907 0.0918135 0.176396
0 0.988768 0.0921213 0.224852
0 0.98824 0.0923775 0.246616
0 0.988714 0.0922198 0.232405
0 0.987715 0.092672 0.314726
0 0.988251 0.0923323 0.234875
0 0.984699 0.158773 10.047
0 0.987759 0.0926189 0.294321
0 0.98707 0.0934478 0.386728
0 0.985927 0.0938768 0.437473
0 0.986873 0.0936473 0.395289
0 0.98505 0.0937317 0.510143
0 0.985962 0.0938606 0.446858
0 0.985073 0.0936856 0.494753
0 0.989322 0.0916313 0.141629
0 0.989338 0.0916273 0.142282
0 0.989078 0.0917663 0.163452
0 0.988778 0.0920838 0.216664
0 0.988277 0.0922911 0.253751
0 0.988726 0.0921631 0.233691
0 0.989381 0.0915071 0.114459
0 0.984613 0.158993 10.068
0 0.985176 0.0936568 0.48444
0 0.986147 0.093612 0.478054
0 0.987726 0.0927848 0.345
0 0.987054 0.0934181 0.456373
0 0.989106 0.0918181 0.171567
0 0.988796 0.0921189 0.207612
0 0.988309 0.0923164 0.230217
0 0.988758 0.0920948 0.19379
0 0.985142 0.0936824 0.500519
0 0.984691 0.158935 10.0712
0 0.987774 0.0926353 0.279594
0 0.987063 0.0934593 0.38057
0 0.986024 0.093836 0.50344
0 0.986925 0.0935767 0.419156
0 0.985111 0.0936789 0.486376
0 0.986077 0.0937951 0.501967
0 0.988305 0.0922799 0.251238
0 0.989415 0.0915233 0.118745
0 0.989517 0.0913001 0.083466
0 0.989111 0.0917334 0.153055
0 0.988819 0.0920652 0.217095
0 0.988764 0.0921597 0.232962
0 0.989385 0.0914639 0.10209
0 0.989552 0.0911132 0.0420508
0 0.985111 0.0936775 0.489798
0 0.984632 0.159351 10.1199
0 0.988318 0.0923405 0.236695
0 0.986125 0.0936566 0.485086
0 0.987008 0.0935167 0.458096
0 0.987822 0.0928192 0.33332
0 0.986066 0.093772 0.504594
0 0.989148 0.0917959 0.15492
0 0.988869 0.0920511 0.185104
0 0.989436 0.0915329 0.111806
0 0.988719 0.0923195 0.232552
0 0.985163 0.0936887 0.498523
0 0.984705 0.158904 10.0371
0 0.987789 0.0926053 0.289202
0 0.987125 0.0933813 0.424029
0 0.986082 0.093808 0.509029
0 0.986977 0.0935315 0.461286
0 0.986071 0.0938457 0.518581
0 0.98829 0.0922909 0.253004
0 0.989568 0.0911147 0.0399976
0 0.989143 0.0917079 0.14643
0 0.988826 0.0921039 0.217123
0 0.989426 0.0914014 0.088684
0 0.989546 0.0911463 0.0358882
0 0.985116 0.0936604 0.490728
0 0.984648 0.158534 10.0185
0 0.988281 0.0924197 0.254446
0 0.987042 0.0933867 0.427991
0 0.987722 0.0929288 0.345999
0 0.986093 0.0937944 0.464483
0 0.98696 0.0933935 0.409175
0 0.989258 0.091708 0.133824
0 0.989095 0.091921 0.166108
0 0.989459 0.0914941 0.0969869
0 0.988865 0.0921671 0.208172
0 0.988433 0.0924876 0.264358
0 0.986187 0.0937522 0.514479
0 0.98518 0.0936431 0.40055
0 0.984746 0.158224 9.87532
0 0.987776 0.092588 0.302573
0 0.987124 0.0933514 0.432604
0 0.986048 0.0938345 0.506657
0 0.986968 0.0935287 0.457464
0 0.988279 0.092326 0.253393
0 0.98875 0.0922023 0.228678
0 0.989481 0.0913889 0.0705526
0 0.989143 0.0917398 0.147082
0 0.989394 0.0915004 0.102149
0 0.989409 0.0915158 0.0903142
0 0.989388 0.0915446 0.105405
0 0.986057 0.0938393 0.487995
0 0.985104 0.0936453 0.472624
0 0.984648 0.158764 10.0434
0 0.987774 0.0926969 0.304861
0 0.987131 0.0932891 0.427725
0 0.987035 0.0934841 0.514499
0 0.988238 0.0924661 0.266995
0 0.9892 0.0917071 0.123783
0 0.988796 0.0921438 0.197185
0 0.986266 0.0937051 0.561249
0 0.985271 0.093829 0.459477
0 0.984737 0.155046 10.456
0 0.987745 0.0925724 0.289812
0 0.987103 0.0933658 0.417351
0 0.986957 0.093656 0.457328
0 0.988254 0.092317 0.247085
0 0.988802 0.0921267 0.21734
0 0.989232 0.0917549 0.123151
0 0.98915 0.0919213 0.16225
0 0.989117 0.0918051 0.15991
0 0.989127 0.0918677 0.170636
0 0.986033 0.0938612 0.481475
0 0.985097 0.0935958 0.439082
0 0.984638 0.157852 9.93329
0 0.987755 0.092652 0.331126
0 0.987242 0.0931953 0.488957
0 0.988318 0.0922966 0.230198
0 0.988873 0.0919941 0.160789
0 0.987163 0.0933476 0.551627
0 0.98635 0.0936958 0.629852
0 0.985341 0.0936249 0.615021
0 0.984826 0.149916 8.22693
0 0.987763 0.0925785 0.286995
0 0.987139 0.0934476 0.427495
0 0.988271 0.0922952 0.25447
0 0.988734 0.0922156 0.246552
0 0.988809 0.0920811 0.182246
0 0.988792 0.0921595 0.223483
0 0.988808 0.0921604 0.244226
0 0.988745 0.0922393 0.259872
0 0.987005 0.093594 0.449407
0 0.986065 0.0938665 0.486923
0 0.985095 0.0935836 0.433851
0 0.984637 0.156204 9.90181
0 0.987795 0.0924953 0.31327
0 0.988335 0.0921856 0.205675
0 0.987223 0.0932579 0.472539
0 0.986335 0.0937785 0.579418
0 0.985346 0.0936544 0.529848
0 0.984828 0.150061 8.32004
0 0.987793 0.0925962 0.302523
0 0.9883 0.0923224 0.276119
0 0.988341 0.0921886 0.22316
0 0.988332 0.0922644 0.260825
0 0.988331 0.0923001 0.277476
0 0.987134 0.0933986 0.401052
0 0.986044 0.093841 0.4963
0 0.985101 0.0936333 0.465278
0 0.984628 0.158159 9.95887
0 0.98781 0.0925653 0.297927
0 0.987025 0.0934767 0.464266
0 0.986237 0.0937179 0.502168
0 0.985299 0.0935793 0.441948
0 0.984798 0.15899 10.219
0 0.987822 0.0926336 0.30417
0 0.987834 0.0925906 0.296684
0 0.987843 0.0926114 0.294004
0 0.986953 0.093563 0.405671
0 0.986009 0.093805 0.445078
0 0.985098 0.0936635 0.50572
0 0.984648 0.158736 10.0015
0 0.987165 0.0933626 0.427798
0 0.986169 0.0937364 0.492704
0 0.985261 0.0936051 0.450283
0 0.984794 0.158197 10.0066
0 0.987013 0.0935622 0.424363
0 0.98711 0.093407 0.366263
0 0.987159 0.0934088 0.386648
0 0.986956 0.093577 0.375373
0 0.98597 0.0938551 0.465146
0 0.985057 0.0936912 0.436438
0 0.984666 0.158307 9.86212
0 0.986097 0.0938093 0.503006
0 0.985186 0.093626 0.478601
0 0.984758 0.158627 10.0184
0 0.986047 0.0938338 0.455673
0 0.985951 0.0938366 0.401185
0 0.985989 0.0938442 0.458632
0 0.985037 0.0936667 0.456923
0 0.984637 0.153369 10.0864
0 0.985151 0.0936511 0.503065
0 0.98472 0.158601 9.99776
0 0.985086 0.0936977 0.435057
0 0.985069 0.0936859 0.444465
0 0.984698 0.157432 9.64109
0 0.984697 0.158592 9.90437
0 0.984652 0.154591 10.2327
VECTORS fa_u float
0.00950076 0.0039281 0
0.00889188 0.00511244 0
0.00987684 0.00264626 0
0.0101166 0.00138489 0
0.000488159 0.000179098 0
0.00812531 0.00618798 0
0.00724979 0.00722065 0
0.000471729 0.000234579 0
0.000427534 0.000282222 0
0.00619196 0.00806423 0
0.00508658 0.00881731 0
0.010058 -6.05385e-06 0
0.0100715 -0.00139477 0
0.000481948 0.000104446 0
0.000458941 4.06228e-05 0
0.00048458 0.000157798 0
0.000478512 0.000208823 0
0.000375133 0.000314694 0
0.000339254 0.00035345 0
0.000450804 0.00026226 0
0.000406154 0.000296859 0
0.0039349 0.00950966 0
0.0027241 0.0101108 0
0.000295155 0.000403251 0
0.00022883 0.00044054 0
0.000458086 -4.05316e-05 0
0.00971972 -0.00262465 0
0.000472066 -0.000103599 0
0.00934944 -0.00388114 0
0.000478053 6.70296e-05 0
0.000460453 3.15009e-06 0
0.000418292 9.75461e-05 0
0.00142277 0.0102288 0
0.000388911 0.000152985 0
0.000411746 0.000204891 0
0.000357349 0.000334597 0
0.000321823 0.000379094 0
0.000356075 0.000231339 0
0.000350202 0.000283237 0
0.000143746 0.000463586 0
7.61075e-05 0.000478797 0
0.00026483 0.000426578 0
0.00020059 0.000453437 0
-7.08174e-06 0.00818324 0
0.000473871 -7.91739e-05 0
0.000470263 -0.000174913 0
0.000488357 -0.000151879 0
0.00873401 -0.00503633 0
0.000450911 -0.000225483 0
0.00794361 -0.00610819 0
0.00039616 2.88188e-05 0
0.000419326 -2.67284e-05 0
0.000278904 6.1997e-05 0
2.74679e-05 0.000555642 0
-1.96655e-05 0.000566607 0
0.000272164 0.000127621 0
0.000294729 0.000300338 0
0.000269974 0.000355983 0
0.000242953 0.000183271 0
9.93615e-05 0.000479405 0
2.3e-05 0.000544377 0
0.000211453 0.000368511 0
0.000153025 0.000425625 0
-0.00146235 0.0100655 0
0.000393607 -9.03905e-05 0
0.000471552 -0.000220318 0
0.000419009 -0.000172654 0
0.000422731 -0.000257093 0
0.000443701 -0.000240601 0
0.00696637 -0.00711431 0
0.000393696 -0.000297264 0
0.00628883 -0.00818476 0
0.000238516 7.78217e-05 0
0.000279534 -2.18209e-05 0
0.000245792 2.11243e-05 0
-1.14542e-05 0.000570273 0
-4.88352e-05 0.000477415 0
-2.38645e-05 0.000582314 0
0.000219956 0.000127947 0
0.000215174 9.68292e-05 0
0.000196416 0.00022381 0
0.000193165 0.000168138 0
6.78323e-05 0.000430583 0
1.09279e-05 0.000488084 0
0.000125316 0.000268197 0
-0.00265975 0.0097591 0
0.00027164 -0.000106457 0
0.000375884 -0.000201196 0
0.000416567 -0.000264904 0
0.000380057 -0.000228848 0
0.000289324 -0.000284181 0
0.00033839 -0.000259482 0
0.00504911 -0.00851137 0
0.00020806 -0.00036174 0
0.000214929 4.93338e-05 0
0.000244884 -5.37767e-05 0
0.000226921 -7.92966e-06 0
0.00022515 -0.000116718 0
0.00388224 -0.00927661 0
-0.000117943 0.000459009 0
-2.06008e-05 0.000483569 0
-9.11375e-05 0.000488671 0
-6.36793e-05 0.000506461 0
0.000161572 7.07825e-05 0
0.000181281 0.000133026 0
0.000147766 0.000197446 0
0.000158333 0.000170126 0
4.23617e-05 0.000311862 0
8.95086e-05 0.000217151 0
-0.0038445 0.00928236 0
0.000245285 -0.000162666 0
0.000313031 -0.000227091 0
0.000256895 -0.000354101 0
0.000265406 -0.000292939 0
0.0001887 -0.00047396 0
0.000173538 -0.000411785 0
0.000135307 -0.000475891 0
0.000137722 3.30363e-05 0
0.000118532 7.87042e-05 0
0.000163452 -1.55766e-07 0
0.000207094 -6.3683e-05 0
0.000188682 -0.000169672 0
0.000194479 -0.000129573 0
0.000112705 -1.99626e-05 0
0.00261118 -0.00972351 0
-0.000193578 0.000444082 0
-0.000155292 0.000452128 0
-3.8767e-05 0.000342815 0
-0.000123262 0.000439411 0
0.000117833 0.000124702 0
0.00010228 0.00018067 0
1.90255e-05 0.00022943 0
5.16303e-05 0.000186786 0
-0.000258012 0.000428892 0
-0.00504788 0.00871481 0
0.000185343 -0.000209334 0
0.000198806 -0.000324515 0
0.000153972 -0.000479316 0
0.000151985 -0.00039063 0
9.43899e-05 -0.00047713 0
0.000122005 -0.000486914 0
0.000136953 -0.000210628 0
6.50118e-05 9.93673e-05 0
7.5038e-05 3.65496e-05 0
0.000132507 -7.66021e-05 0
0.000145218 -0.000161376 0
0.000100955 -0.000209951 0
7.32025e-05 -7.11606e-05 0
3.49068e-05 -2.34475e-05 0
4.57212e-05 -0.000487659 0
0.00133826 -0.010031 0
-4.83633e-05 0.000231701 0
-0.000218387 0.000433146 0
-0.000178612 0.00042184 0
-0.000107866 0.000315384 0
-0.000284575 0.000416691 0
4.76645e-05 0.000147406 0
-5.10416e-06 0.000185034 0
1.46229e-05 0.000110846 0
-7.05189e-05 0.000221602 0
-0.000327779 0.000375615 0
-0.00616469 0.00792087 0
0.000120874 -0.00026273 0
0.000125244 -0.00040511 0
7.9383e-05 -0.000502801 0
0.000103371 -0.000449554 0
2.67111e-05 -0.000517893 0
7.98197e-05 -0.000240083 0
2.36046e-06 3.99279e-05 0
6.55513e-05 -0.000130938 0
4.90352e-05 -0.000211514 0
1.83919e-05 -8.67559e-05 0
-2.50478e-05 -2.57015e-05 0
-1.83622e-05 -0.000490384 0
2.11399e-05 -0.0100185 0
-0.000118612 0.000225108 0
-0.000208839 0.00037358 0
-0.000171964 0.000300239 0
-0.000338781 0.00031776 0
-0.000253343 0.000321313 0
-1.59289e-05 0.000132872 0
-5.41443e-05 0.000157036 0
-4.06804e-05 8.8043e-05 0
-0.000105449 0.000179488 0
-0.000153965 0.000214895 0
-0.000438495 0.000269093 0
-0.000319404 0.000241705 0
-0.00703865 0.00692671 0
6.84107e-05 -0.000294738 0
5.99086e-05 -0.000428436 0
-5.10271e-05 -0.000504081 0
-5.10442e-06 -0.000457436 0
2.58953e-05 -0.000252066 0
-1.20521e-05 -0.00022836 0
-6.00053e-05 3.71085e-05 0
-6.66806e-06 -0.000146931 0
-3.10494e-05 -9.73162e-05 0
-8.82921e-05 -1.90041e-05 0
-7.59269e-05 -7.31116e-05 0
-0.000127683 -0.000470995 0
-8.65449e-05 -0.000464632 0
-0.00128889 -0.00996033 0
-0.000190004 0.000238408 0
-0.000336045 0.000264617 0
-0.000443363 0.000261033 0
-0.00018744 0.000190138 0
-8.32658e-05 9.15917e-05 0
-0.000140321 0.000138534 0
-0.000521572 0.000207277 0
-0.000407834 0.000211637 0
-0.00822279 0.00645864 0
-6.44004e-06 -0.00028974 0
-6.90816e-05 -0.000411594 0
-0.000163973 -0.000426922 0
-5.36624e-05 -0.000241187 0
-7.54102e-05 -0.000203839 0
-0.000116746 3.91979e-05 0
-0.000159923 -2.73804e-05 0
-8.79803e-05 -0.000133532 0
-0.000145043 -8.98841e-05 0
-0.00020345 -0.000436379 0
-0.000153267 -0.000411463 0
-0.00254767 -0.00960102 0
-0.000264393 0.000199351 0
-0.000438563 0.000216198 0
-0.00019581 0.000121036 0
-0.000146873 6.5432e-05 0
-0.000503478 0.000225393 0
-0.000570323 0.000267294 0
-0.00055965 0.000255034 0
-0.00701316 0.00430093 0
-0.00010507 -0.00026707 0
-0.00021142 -0.000371555 0
-0.00013298 -0.000216959 0
-0.000150279 -0.000195459 0
-0.000182246 4.51452e-07 0
-0.000210797 -7.42227e-05 0
-0.000187487 -0.000156508 0
-0.000226481 -0.000127437 0
-0.000273992 -0.000356224 0
-0.000251341 -0.00041704 0
-0.000196128 -0.000386988 0
-0.00380551 -0.00914132 0
-0.000289739 0.000119121 0
-0.000201807 3.97017e-05 0
-0.000454529 0.000129215 0
-0.000534728 0.000223139 0
-0.000489478 0.000202857 0
-0.00771987 0.00310269 0
-0.000197599 -0.000229074 0
-0.000202286 -0.000187943 0
-0.000216461 -5.42652e-05 0
-0.000232463 -0.000118281 0
-0.000229449 -0.000156033 0
-0.000274647 -0.000292253 0
-0.000302986 -0.000393082 0
-0.000260011 -0.000385847 0
-0.00501502 -0.00860399 0
-0.000297927 1.06431e-07 0
-0.000462982 3.45087e-05 0
-0.000486462 0.000124608 0
-0.000415988 0.00014924 0
-0.00991425 0.00247718 0
-0.00023854 -0.000188727 0
-0.000277874 -0.000103956 0
-0.000254167 -0.000147775 0
-0.000304874 -0.000267621 0
-0.000286764 -0.000340383 0
-0.000322368 -0.000389656 0
-0.00613191 -0.00790119 0
-0.000423487 -6.05795e-05 0
-0.000492703 9.44383e-07 0
-0.000446186 6.05988e-05 0
-0.00992306 0.00129032 0
-0.000411757 -0.000102665 0
-0.000295585 -0.000216282 0
-0.000359055 -0.000143445 0
-0.00033794 -0.000163405 0