# vtk DataFile Version 2.0
CellBP Time: 0.36
ASCII
DATASET UNSTRUCTURED_GRID
POINTS 296 double
-9.17754 -3.77227 0
-8.59982 -4.94405 0
-9.59722 -2.53507 0
-9.8508 -1.25331 0
-8.35676 -2.8183 0
-7.87406 -6.03037 0
-7.01268 -7.01265 0
-7.91644 -3.87425 0
-7.34192 -4.86729 0
-6.03042 -7.8741 0
-4.94409 -8.59996 0
-9.94974 0.0499946 0
-9.85085 1.35333 0
-8.65692 -1.68347 0
-8.78659 -0.528794 0
-7.58913 -2.00379 0
-7.22513 -2.90611 0
-6.637 -5.77826 0
-5.82185 -6.59623 0
-6.78967 -3.88846 0
-6.22002 -4.67541 0
-3.77226 -9.17772 0
-2.53504 -9.59759 0
-4.90601 -7.30809 0
-3.91263 -7.88547 0
-8.79303 0.642564 0
-9.59738 2.63512 0
-8.62256 1.77362 0
-9.17767 3.87233 0
-7.74405 -0.928702 0
-7.79432 0.0802592 0
-6.95231 -1.31569 0
-1.25366 -9.85272 0
-6.44117 -2.1529 0
-6.31897 -3.05584 0
-5.53604 -5.47401 0
-4.79548 -6.11488 0
-5.65869 -3.7567 0
-5.26903 -4.5612 0
-2.86586 -8.36312 0
-1.77834 -8.63937 0
-3.92779 -6.72292 0
-3.05632 -7.15195 0
0.0500528 -9.93818 0
-7.70527 1.14323 0
-8.33787 2.91506 0
-7.55137 2.11166 0
-8.59997 5.04414 0
-7.87939 3.97783 0
-7.87418 6.13046 0
-6.77856 -0.396814 0
-6.95638 0.552492 0
-5.77135 -1.00334 0
-0.590721 -8.80886 0
0.565699 -8.77007 0
-5.30301 -2.48014 0
-4.49169 -5.09536 0
-3.90223 -5.77488 0
-4.43879 -3.80458 0
-2.06219 -7.56129 0
-1.13533 -7.78516 0
-2.99434 -6.10166 0
-2.30883 -6.61933 0
1.35375 -9.85283 0
-6.68928 1.42191 0
-7.17165 3.11778 0
-6.65894 2.37279 0
-7.29415 4.98821 0
-6.71758 4.0027 0
-7.01277 7.11274 0
-6.57199 5.89365 0
-6.03048 7.97419 0
-4.45307 -1.181 0
-5.81458 0.513731 0
-4.65613 -0.0103626 0
0.00855419 -7.84745 0
1.7385 -8.6431 0
0.948942 -7.76282 0
-4.03846 -2.40628 0
-3.4855 -1.39113 0
-3.2944 -4.80516 0
-3.2658 -3.26766 0
-1.37846 -6.6751 0
-0.508676 -7.02455 0
-1.97546 -5.53685 0
2.63508 -9.59784 0
-5.50728 2.03684 0
-6.09448 3.072 0
-6.10468 4.86925 0
-5.76145 3.99123 0
-5.76094 6.71667 0
-5.45178 5.61897 0
-4.94415 8.70008 0
-4.83818 7.40411 0
-3.50147 -0.42427 0
-4.44928 1.24901 0
-3.71145 0.592072 0
-4.06215 2.31975 0
-3.77233 9.2779 0
2.86249 -8.33234 0
0.419719 -6.79512 0
2.02196 -7.52541 0
1.30607 -6.90526 0
-2.44465 -0.873776 0
-2.83834 -2.13105 0
-2.29435 -4.09727 0
-2.32559 -2.9735 0
-0.442313 -5.86104 0
-1.22266 -4.49904 0
3.87218 -9.17788 0
-4.78977 3.39172 0
-5.08777 4.59395 0
-4.64693 6.28108 0
-4.5387 5.35949 0
-3.84355 7.99297 0
-3.82656 6.84538 0
-2.78317 8.42246 0
-1.649 -0.137888 0
-1.45022 -0.890552 0
-2.48911 0.507262 0
-3.25361 1.44413 0
-3.23902 3.3165 0
-2.91096 2.37171 0
-1.35507 0.627089 0
-2.53514 9.69791 0
3.93262 -7.88664 0
2.96452 -7.15748 0
0.954135 -5.82194 0
2.07432 -6.41534 0
-1.68294 -1.99201 0
-1.43438 -3.2777 0
0.0902822 -4.74695 0
-0.566123 -3.69437 0
4.93213 -7.31846 0
5.04383 -8.59986 0
-3.77697 4.55158 0
-3.73468 5.75199 0
-2.88786 7.28958 0
-3.00963 6.35356 0
-1.66248 8.73334 0
-1.94003 7.61909 0
-2.33839 4.05164 0
-0.730689 -1.32721 0
-0.836862 -0.25762 0
-1.9362 1.68075 0
-2.12576 2.87579 0
-1.30656 3.54463 0
-0.869439 1.35079 0
-0.282342 0.456015 0
-0.533486 8.8714 0
-1.2537 9.95273 0
1.11284 -4.5746 0
3.9102 -6.71715 0
2.98797 -6.09466 0
2.11793 -5.42495 0
4.78463 -6.20518 0
-0.558811 -2.47677 0
0.495167 -3.4638 0
0.0535947 -1.61045 0
1.48195 -3.68213 0
5.86745 -6.61429 0
6.12987 -7.87362 0
-2.47572 5.34851 0
-2.13043 6.53439 0
-0.904036 7.80312 0
-1.27232 6.93198 0
0.0862243 7.88021 0
-1.14446 4.49471 0
0.150348 -0.617658 0
-0.797415 2.48847 0
-0.331632 3.60069 0
0.0631251 1.51268 0
0.741454 0.473383 0
0.646789 8.8741 0
0.0500165 10.0383 0
2.38109 -4.28532 0
3.85938 -5.64047 0
3.00158 -5.21285 0
5.57441 -5.49184 0
4.69144 -5.28318 0
0.629718 -2.29335 0
1.25622 -2.95124 0
0.757514 -1.39145 0
2.16439 -3.13587 0
2.99388 -3.47667 0
6.15601 -4.79204 0
6.65714 -5.76917 0
7.11124 -7.01106 0
-1.01966 5.82049 0
-0.372602 6.88367 0
1.12264 7.76956 0
0.557991 7.0799 0
-0.000756076 4.72525 0
0.607017 3.82783 0
1.33893 -0.641921 0
0.539116 2.65103 0
0.966102 1.57489 0
1.91021 0.213825 0
1.61478 1.06498 0
2.12943 7.58369 0
1.79925 8.71253 0
1.35373 9.9528 0
3.8231 -4.35181 0
5.11718 -4.44931 0
5.84652 -3.93553 0
3.78421 -3.20122 0
1.81232 -1.88268 0
3.01926 -2.57401 0
6.7844 -3.94855 0
7.38281 -4.89809 0
7.98261 -6.03686 0
0.483382 5.88183 0
1.42824 6.7422 0
2.37443 6.66937 0
1.21003 4.55634 0
1.48822 3.39769 0
2.43585 -0.692066 0
2.82811 0.14256 0
1.78894 2.16285 0
2.61196 1.15013 0
3.07215 7.17042 0
2.90435 8.37723 0
2.63518 9.69802 0
4.91182 -3.32823 0
6.12152 -3.1092 0
4.17316 -2.27547 0
3.24458 -1.50302 0
6.73217 -2.31357 0
7.23301 -3.04326 0
7.9662 -3.91321 0
8.70394 -4.94654 0
2.02377 5.60025 0
3.08676 6.15409 0
2.36407 4.12716 0
2.42019 3.06099 0
3.52585 -0.460933 0
3.61589 0.613273 0
2.96198 2.28815 0
3.54579 1.52531 0
4.01263 5.89876 0
3.98493 6.7939 0
3.97376 7.9396 0
3.87239 9.27814 0
5.56956 -1.9165 0
4.50962 -1.12977 0
6.71494 -1.33652 0
7.59366 -2.03711 0
8.39857 -2.86245 0
9.28356 -3.77458 0
3.41956 4.87762 0
3.33932 3.38567 0
4.69174 0.130042 0
4.51964 1.31007 0
4.06576 2.44402 0
4.57141 5.15337 0
4.84454 6.19183 0
4.98129 7.38167 0
5.04412 8.70013 0
5.88445 -0.435038 0
7.01222 -0.488453 0
7.76097 -1.08572 0
8.68632 -1.74657 0
9.6968 -2.53481 0
4.55329 3.82824 0
5.8189 1.09879 0
5.37235 2.53542 0
5.38143 4.62164 0
5.6135 5.52473 0
5.8985 6.67329 0
6.1304 7.97413 0
6.84779 0.463647 0
7.85518 -0.025722 0
8.8623 -0.5846 0
9.95223 -1.25359 0
6.96242 1.34988 0
5.72275 3.77943 0
6.54337 2.19815 0
6.38217 3.08887 0
6.29429 4.68817 0
6.69487 5.83924 0
7.11267 7.11263 0
7.78648 0.967935 0
8.86165 0.5729 0
10.0378 0.0500306 0
7.61855 2.00504 0
6.83148 3.90536 0
7.27195 2.94776 0
7.38054 4.88699 0
7.97418 6.13044 0
8.72531 1.72752 0
9.95234 1.35368 0
8.4236 2.83895 0
7.9844 3.91733 0
8.69964 5.04384 0
9.69718 2.635 0
9.28478 3.87521 0
CELLS 542 2168
3 2 0 4
3 0 1 7
3 4 0 7
3 1 5 8
3 7 1 8
3 3 2 13
3 13 2 4
3 11 3 14
3 14 3 13
3 13 4 15
3 4 7 16
3 15 4 16
3 5 6 17
3 8 5 17
3 6 9 18
3 17 6 18
3 7 8 19
3 16 7 19
3 8 17 20
3 19 8 20
3 9 10 23
3 18 9 23
3 10 21 24
3 23 10 24
3 12 11 25
3 25 11 14
3 26 12 27
3 27 12 25
3 14 13 29
3 29 13 15
3 25 14 30
3 30 14 29
3 29 15 31
3 15 16 33
3 31 15 33
3 16 19 34
3 33 16 34
3 17 18 35
3 20 17 35
3 18 23 36
3 35 18 36
3 19 20 37
3 34 19 37
3 20 35 38
3 37 20 38
3 21 22 39
3 24 21 39
3 22 32 40
3 39 22 40
3 23 24 41
3 36 23 41
3 24 39 42
3 41 24 42
3 27 25 44
3 44 25 30
3 28 26 45
3 45 26 27
3 45 27 46
3 46 27 44
3 47 28 48
3 48 28 45
3 30 29 50
3 50 29 31
3 44 30 51
3 51 30 50
3 50 31 52
3 31 33 52
3 32 43 53
3 40 32 53
3 53 43 54
3 33 34 55
3 34 37 55
3 33 55 52
3 35 36 56
3 38 35 56
3 36 41 57
3 56 36 57
3 37 38 58
3 38 56 58
3 37 58 55
3 39 40 59
3 42 39 59
3 40 53 60
3 59 40 60
3 41 42 61
3 57 41 61
3 42 59 62
3 61 42 62
3 43 63 54
3 46 44 64
3 64 44 51
3 48 45 65
3 65 45 46
3 65 46 66
3 66 46 64
3 49 47 67
3 67 47 48
3 67 48 68
3 68 48 65
3 69 49 70
3 70 49 67
3 52 55 72
3 64 51 73
3 51 50 73
3 50 52 73
3 73 52 74
3 74 52 72
3 53 54 75
3 60 53 75
3 54 63 76
3 54 76 77
3 75 54 77
3 55 58 78
3 72 55 78
3 72 78 79
3 56 57 80
3 57 61 80
3 56 80 58
3 58 80 81
3 78 58 81
3 59 60 82
3 62 59 82
3 60 75 83
3 82 60 83
3 61 62 84
3 62 82 84
3 61 84 80
3 63 85 76
3 66 64 86
3 64 73 86
3 68 65 87
3 87 65 66
3 87 66 86
3 70 67 88
3 88 67 68
3 88 68 89
3 89 68 87
3 71 69 90
3 90 69 70
3 90 70 91
3 91 70 88
3 92 71 93
3 93 71 90
3 74 72 94
3 94 72 79
3 86 73 95
3 95 73 74
3 95 74 96
3 96 74 94
3 97 86 95
3 76 85 99
3 75 77 100
3 83 75 100
3 76 99 101
3 77 76 101
3 77 101 102
3 100 77 102
3 94 79 103
3 78 81 104
3 79 78 104
3 79 104 103
3 80 84 105
3 81 80 105
3 81 105 106
3 104 81 106
3 82 83 107
3 83 100 107
3 82 107 84
3 84 107 108
3 105 84 108
3 85 109 99
3 89 87 110
3 87 86 110
3 110 86 97
3 91 88 111
3 111 88 89
3 111 89 110
3 93 90 112
3 112 90 91
3 112 91 113
3 113 91 111
3 98 92 114
3 114 92 93
3 114 93 115
3 115 93 112
3 116 98 114
3 117 103 118
3 96 94 119
3 94 103 119
3 119 103 117
3 97 95 120
3 120 95 96
3 120 96 119
3 121 110 97
3 121 97 122
3 122 97 120
3 123 119 117
3 124 98 116
3 99 109 125
3 99 125 126
3 101 99 126
3 100 102 127
3 100 127 107
3 101 126 128
3 102 101 128
3 102 128 127
3 104 106 129
3 104 129 103
3 103 129 118
3 105 108 130
3 106 105 130
3 106 130 129
3 107 127 131
3 108 107 131
3 108 131 132
3 108 132 130
3 109 134 125
3 125 134 133
3 113 111 135
3 111 110 135
3 135 110 121
3 115 112 136
3 136 112 113
3 136 113 135
3 116 114 137
3 137 114 115
3 137 115 138
3 138 115 136
3 139 124 116
3 139 116 140
3 140 116 137
3 141 135 121
3 118 129 142
3 118 142 143
3 117 118 143
3 123 117 143
3 122 120 144
3 120 119 144
3 144 119 123
3 141 121 145
3 145 121 122
3 145 122 144
3 146 141 145
3 147 144 123
3 147 123 148
3 143 148 123
3 150 124 139
3 149 150 139
3 131 127 151
3 125 133 152
3 126 125 152
3 126 152 153
3 128 126 153
3 128 153 154
3 128 154 127
3 127 154 151
3 152 133 155
3 130 132 156
3 130 156 129
3 129 156 142
3 131 151 157
3 132 131 157
3 132 157 156
3 156 158 142
3 157 151 159
3 133 160 155
3 134 161 133
3 133 161 160
3 138 136 162
3 136 135 162
3 162 135 141
3 140 137 163
3 163 137 138
3 163 138 162
3 149 139 164
3 164 139 140
3 164 140 165
3 165 140 163
3 166 149 164
3 167 162 141
3 167 141 146
3 142 158 168
3 143 142 168
3 143 168 148
3 146 145 169
3 145 144 169
3 169 144 147
3 170 167 146
3 170 146 169
3 171 169 147
3 171 147 148
3 171 148 172
3 168 172 148
3 173 149 166
3 174 150 149
3 173 174 149
3 154 175 151
3 151 175 159
3 152 155 176
3 153 152 176
3 153 176 177
3 153 177 154
3 154 177 175
3 155 160 178
3 155 178 179
3 176 155 179
3 156 157 180
3 156 180 158
3 157 159 181
3 157 181 180
3 158 180 182
3 158 182 168
3 159 175 183
3 159 183 181
3 175 184 183
3 160 186 178
3 178 186 185
3 161 187 160
3 160 187 186
3 165 163 188
3 163 162 188
3 188 162 167
3 166 164 189
3 189 164 165
3 189 165 188
3 190 173 166
3 190 166 191
3 191 166 189
3 192 188 167
3 192 167 170
3 193 192 170
3 182 194 168
3 194 172 168
3 193 170 195
3 170 169 195
3 195 169 171
3 196 195 171
3 196 171 172
3 194 197 172
3 197 198 172
3 198 196 172
3 200 173 190
3 199 200 190
3 201 174 173
3 200 201 173
3 176 179 202
3 177 176 202
3 177 202 175
3 175 202 184
3 178 185 203
3 178 203 179
3 179 203 202
3 203 185 204
3 202 205 184
3 183 206 181
3 180 181 206
3 180 206 182
3 182 206 194
3 183 184 207
3 205 207 184
3 183 207 206
3 185 208 204
3 186 209 185
3 185 209 208
3 187 210 186
3 186 210 209
3 191 189 211
3 189 188 211
3 211 188 192
3 199 190 212
3 212 190 191
3 212 191 211
3 213 199 212
3 214 211 192
3 214 192 193
3 215 214 193
3 215 193 195
3 206 216 194
3 216 197 194
3 216 217 197
3 215 195 218
3 218 195 196
3 198 218 196
3 217 219 197
3 219 218 198
3 197 219 198
3 220 199 213
3 221 200 199
3 220 221 199
3 222 201 200
3 221 222 200
3 203 204 223
3 203 223 202
3 202 223 205
3 204 208 224
3 204 224 223
3 205 223 225
3 205 225 207
3 207 225 226
3 207 226 206
3 226 216 206
3 208 228 224
3 224 228 227
3 209 229 208
3 229 228 208
3 210 230 209
3 209 230 229
3 213 212 231
3 212 211 231
3 231 211 214
3 232 220 213
3 232 213 231
3 233 231 214
3 233 214 215
3 234 233 215
3 234 215 218
3 226 235 216
3 235 217 216
3 235 236 217
3 217 236 219
3 237 234 218
3 237 218 219
3 236 238 219
3 238 237 219
3 240 220 232
3 239 240 232
3 241 221 220
3 240 241 220
3 242 222 221
3 241 242 221
3 224 227 243
3 224 243 223
3 223 243 225
3 225 243 244
3 225 244 226
3 226 244 235
3 227 245 243
3 228 246 227
3 227 246 245
3 229 247 228
3 228 247 246
3 230 248 229
3 229 248 247
3 239 232 249
3 232 231 249
3 249 231 233
3 250 249 233
3 250 233 234
3 237 250 234
3 244 251 235
3 235 251 236
3 251 252 236
3 236 252 238
3 252 253 238
3 253 250 237
3 253 237 238
3 254 239 249
3 255 240 239
3 254 255 239
3 256 241 240
3 255 256 240
3 257 242 241
3 256 257 241
3 245 258 243
3 243 258 244
3 244 258 251
3 245 259 258
3 246 260 245
3 245 260 259
3 247 261 246
3 246 261 260
3 248 262 247
3 247 262 261
3 254 249 263
3 263 249 250
3 253 263 250
3 258 264 251
3 251 264 252
3 264 265 252
3 265 263 253
3 252 265 253
3 266 254 263
3 267 255 254
3 266 267 254
3 268 256 255
3 267 268 255
3 269 257 256
3 268 269 256
3 259 270 258
3 270 264 258
3 260 271 259
3 259 271 270
3 261 272 260
3 260 272 271
3 262 273 261
3 273 272 261
3 270 274 264
3 275 266 263
3 275 263 265
3 274 276 264
3 276 265 264
3 276 277 265
3 277 275 265
3 278 267 266
3 275 278 266
3 279 268 267
3 278 279 267
3 280 269 268
3 279 280 268
3 271 281 270
3 270 281 274
3 272 282 271
3 271 282 281
3 273 283 272
3 272 283 282
3 281 284 274
3 274 284 276
3 285 278 275
3 277 285 275
3 284 286 276
3 286 285 277
3 276 286 277
3 287 279 278
3 285 287 278
3 288 280 279
3 287 288 279
3 282 289 281
3 281 289 284
3 283 290 282
3 282 290 289
3 289 291 284
3 284 291 286
3 291 292 286
3 292 287 285
3 286 292 285
3 293 288 287
3 292 293 287
3 290 294 289
3 289 294 291
3 294 295 291
3 295 293 292
3 291 295 292
CELL_TYPES 542
5
5
5
5
5
5
5
5
5
5
5
5
5
5
5
5
5
5
5
5
5
5
5
5
5
5
5
5
5
5
5
5
5
5
5
5
5
5
5
5
5
5
5
5
5
5
5
5
5
5
5
5
5
5
5
5
5
5
5
5
5
5
5
5
5
5
5
5
5
5
5
5
5
5
5
5
5
5
5
5
5
5
5
5
5
5
5
5
5
5
5
5
5
5
5
5
5
5
5
5
5
5
5
5
5
5
5
5
5
5
5
5
5
5
5
5
5
5
5
5
5
5
5
5
5
5
5
5
5
5
5
5
5
5
5
5
5
5
5
5
5
5
5
5
5
5
5
5
5
5
5
5
5
5
5
5
5
5
5
5
5
5
5
5
5
5
5
5
5
5
5
5
5
5
5
5
5
5
5
5
5
5
5
5
5
5
5
5
5
5
5
5
5
5
5
5
5
5
5
5
5
5
5
5
5
5
5
5
5
5
5
5
5
5
5
5
5
5
5
5
5
5
5
5
5
5
5
5
5
5
5
5
5
5
5
5
5
5
5
5
5
5
5
5
5
5
5
5
5
5
5
5
5
5
5
5
5
5
5
5
5
5
5
5
5
5
5
5
5
5
5
5
5
5
5
5
5
5
5
5
5
5
5
5
5
5
5
5
5
5
5
5
5
5
5
5
5
5
5
5
5
5
5
5
5
5
5
5
5
5
5
5
5
5
5
5
5
5
5
5
5
5
5
5
5
5
5
5
5
5
5
5
5
5
5
5
5
5
5
5
5
5
5
5
5
5
5
5
5
5
5
5
5
5
5
5
5
5
5
5
5
5
5
5
5
5
5
5
5
5
5
5
5
5
5
5
5
5
5
5
5
5
5
5
5
5
5
5
5
5
5
5
5
5
5
5
5
5
5
5
5
5
5
5
5
5
5
5
5
5
5
5
5
5
5
5
5
5
5
5
5
5
5
5
5
5
5
5
5
5
5
5
5
5
5
5
5
5
5
5
5
5
5
5
5
5
5
5
5
5
5
5
5
5
5
5
5
5
5
5
5
5
5
5
5
5
5
5
5
5
5
5
5
5
5
5
5
5
5
5
5
5
5
5
5
5
5
5
5
5
5
5
5
5
5
5
5
5
5
5
5
5
5
5
5
5
5
5
5
5
5
5
5
5
5
5
5
5
5
5
5
5
5
5
5
5
5
5
5
5
5
5
5
5
5
5
5
5
5
5
5
5
POINT_DATA 296
SCALARS concentrations float 4
LOOKUP_TABLE default
0 0.996339 0.106132 3.73483
0 0.996328 0.106026 3.71985
0 0.996355 0.106104 3.74697
0 0.996376 0.106106 3.76554
0 0.996647 0.0908681 0.295498
0 0.996322 0.105902 3.7151
0 0.996321 0.1058 3.7127
0 0.996642 0.090868 0.298453
0 0.996624 0.0908702 0.320112
0 0.996323 0.105754 3.71102
0 0.996322 0.105768 3.71345
0 0.996395 0.106199 3.7853
0 0.996394 0.106047 3.75193
0 0.99667 0.0908777 0.327984
0 0.996681 0.0910532 0.402456
0 0.997287 0.0908448 0.315
0 0.997266 0.0908248 0.30253
0 0.996626 0.0908384 0.331411
0 0.996623 0.0908214 0.331212
0 0.997263 0.0908275 0.314633
0 0.997246 0.0908104 0.326764
0 0.996318 0.105946 3.75167
0 0.996319 0.106109 3.79014
0 0.996632 0.0908101 0.322732
0 0.996627 0.0908144 0.316476
0 0.996694 0.0910498 0.400742
0 0.996394 0.105844 3.68881
0 0.996683 0.0908357 0.320006
0 0.996392 0.105894 3.68015
0 0.997285 0.0909134 0.365799
0 0.997298 0.0908106 0.373792
0 0.997819 0.0905923 0.28266
0 0.996339 0.105727 3.70897
0 0.997892 0.0904774 0.245441
0 0.997795 0.0905703 0.264954
0 0.997246 0.0907969 0.331188
0 0.997245 0.0907895 0.328672
0 0.997878 0.0904721 0.258026
0 0.997778 0.0905719 0.28523
0 0.996638 0.0908489 0.321728
0 0.996629 0.0908795 0.332789
0 0.997257 0.0907854 0.324034
0 0.99725 0.0907905 0.322944
0 0.996363 0.105697 3.69755
0 0.997299 0.090892 0.357091
0 0.996688 0.0908145 0.285284
0 0.997302 0.0908467 0.318024
0 0.996392 0.105734 3.65458
0 0.996681 0.0908059 0.287917
0 0.99639 0.105643 3.66026
0 0.997898 0.0904678 0.274621
0 0.997819 0.0905622 0.299544
0 0.998264 0.0900758 0.169396
0 0.996657 0.090863 0.337117
0 0.99666 0.0908289 0.331406
0 0.99826 0.0900802 0.168449
0 0.997875 0.0904778 0.268942
0 0.997791 0.0905557 0.284151
0 0.998256 0.0900871 0.181739
0 0.997276 0.0907994 0.325284
0 0.997286 0.0908062 0.328926
0 0.997887 0.0904868 0.27127
0 0.997798 0.0905737 0.287564
0 0.996397 0.10557 3.64756
0 0.997917 0.0904889 0.263006
0 0.997292 0.0908194 0.304724
0 0.997827 0.0905687 0.266318
0 0.996684 0.0907914 0.308189
0 0.997295 0.0907867 0.311791
0 0.996388 0.105585 3.67052
0 0.996674 0.0907734 0.322894
0 0.996387 0.105574 3.6782
0 0.998545 0.0898865 0.122234
0 0.998272 0.0900698 0.173566
0 0.998556 0.089865 0.122348
0 0.997293 0.0908038 0.330922
0 0.996713 0.0907998 0.310279
0 0.997295 0.0907974 0.324435
0 0.998551 0.0898954 0.131827
0 0.99879 0.0898053 0.107072
0 0.998266 0.0900813 0.18809
0 0.998554 0.0899022 0.144857
0 0.997897 0.0904444 0.261483
0 0.997804 0.0905123 0.273288
0 0.99828 0.0900833 0.191086
0 0.996447 0.105796 3.65904
0 0.99827 0.0900717 0.167284
0 0.997904 0.0904669 0.251759
0 0.997281 0.0907923 0.32815
0 0.997813 0.0905537 0.277317
0 0.996679 0.0907588 0.324554
0 0.997282 0.0907821 0.332755
0 0.996387 0.105547 3.66983
0 0.996676 0.090747 0.316476
0 0.998827 0.0897532 0.0906499
0 0.998549 0.0898829 0.123817
0 0.998799 0.0897722 0.0973214
0 0.998554 0.0898795 0.125497
0 0.996386 0.105635 3.68075
0 0.996768 0.0907716 0.275775
0 0.997889 0.0904722 0.262648
0 0.997334 0.0907307 0.295547
0 0.997819 0.0905464 0.271433
0 0.998981 0.0896585 0.0713259
0 0.99883 0.0897792 0.110822
0 0.998571 0.0898927 0.153297
0 0.998808 0.0898058 0.129597
0 0.998285 0.0900993 0.188348
0 0.99858 0.0898869 0.149977
0 0.996503 0.105844 3.64301
0 0.998272 0.0900567 0.171241
0 0.9979 0.0904713 0.26779
0 0.997276 0.0907716 0.328829
0 0.997806 0.0905709 0.290139
0 0.996681 0.0907547 0.309847
0 0.997287 0.0907627 0.3222
0 0.996678 0.0907567 0.304118
0 0.999102 0.0895776 0.0551343
0 0.999109 0.0895775 0.0616604
0 0.998984 0.0896271 0.0592579
0 0.998832 0.0897525 0.0923541
0 0.998551 0.0898688 0.131228
0 0.9988 0.08979 0.109622
0 0.999127 0.0895485 0.0474018
0 0.996385 0.105591 3.66311
0 0.996827 0.0907493 0.253137
0 0.997414 0.0906759 0.266386
0 0.998295 0.0901477 0.190337
0 0.997929 0.090483 0.253046
0 0.998999 0.0896418 0.0870228
0 0.998851 0.0897594 0.12321
0 0.998608 0.0899025 0.141425
0 0.998831 0.0897769 0.11907
0 0.996846 0.0907543 0.274828
0 0.99654 0.106026 3.69769
0 0.998276 0.0900508 0.176948
0 0.997901 0.0904698 0.267524
0 0.997287 0.0907615 0.317194
0 0.997815 0.0905425 0.279569
0 0.996683 0.0907637 0.302616
0 0.997292 0.0907562 0.312514
0 0.998565 0.0898648 0.137202
0 0.999141 0.0895468 0.0560162
0 0.999188 0.0894808 0.0317523
0 0.998998 0.0896257 0.0690344
0 0.998845 0.0897579 0.108231
0 0.998816 0.0897997 0.123664
0 0.999127 0.0895583 0.0564374
0 0.9992 0.0894797 0.0297044
0 0.996678 0.090763 0.301529
0 0.996385 0.105713 3.6847
0 0.998623 0.0899022 0.138578
0 0.99746 0.0906885 0.263449
0 0.997955 0.0905248 0.253393
0 0.998379 0.0901481 0.19107
0 0.997453 0.0907742 0.301442
0 0.999016 0.0896491 0.0855611
0 0.998882 0.0897786 0.106124
0 0.999145 0.0895893 0.0524982
0 0.998824 0.0898616 0.137465
0 0.996847 0.0908254 0.35128
0 0.99655 0.106232 3.79256
0 0.998283 0.0900406 0.176145
0 0.997908 0.0904486 0.258249
0 0.997287 0.0907651 0.311832
0 0.997818 0.0905382 0.273052
0 0.997287 0.090782 0.313114
0 0.998562 0.0898719 0.139579
0 0.999203 0.0894816 0.00865309
0 0.999011 0.0896376 0.0819175
0 0.998852 0.0897799 0.118741
0 0.999143 0.0895693 0.0609267
0 0.999192 0.089526 0.0381453
0 0.996687 0.0907526 0.29837
0 0.996391 0.105531 3.64137
0 0.998639 0.0899379 0.16184
0 0.998017 0.0904966 0.243092
0 0.99837 0.0902025 0.205423
0 0.997444 0.0908992 0.358425
0 0.997989 0.0905616 0.26155
0 0.999064 0.089666 0.0707515
0 0.998995 0.0897271 0.10022
0 0.999154 0.089586 0.0509063
0 0.998912 0.0897978 0.142716
0 0.998742 0.089958 0.180096
0 0.99742 0.09098 0.324652
0 0.996826 0.091077 0.432643
0 0.996553 0.106347 3.79703
0 0.99828 0.0900404 0.172288
0 0.997911 0.0904408 0.250453
0 0.997286 0.0907715 0.30798
0 0.997832 0.0905352 0.26611
0 0.998568 0.0898827 0.138933
0 0.998823 0.0898087 0.127006
0 0.999163 0.0895646 0.052616
0 0.999015 0.0896526 0.0899256
0 0.99913 0.0895957 0.0754384
0 0.999138 0.0895863 0.0834837
0 0.999128 0.089592 0.0837956
0 0.997303 0.0907676 0.303482
0 0.996696 0.0907412 0.292672
0 0.996401 0.10561 3.6538
0 0.998427 0.0901405 0.189839
0 0.998061 0.0905419 0.226471
0 0.997956 0.090716 0.210029
0 0.998687 0.0900053 0.177021
0 0.999056 0.0896342 0.0946691
0 0.998916 0.0898016 0.164094
0 0.997426 0.0911154 0.203504
0 0.996834 0.0914831 0.296954
0 0.996562 0.106779 3.78221
0 0.99828 0.0900298 0.164155
0 0.99792 0.0904415 0.244736
0 0.997843 0.0905828 0.271755
0 0.99857 0.0898728 0.136749
0 0.998859 0.0897731 0.125847
0 0.999076 0.08963 0.11752
0 0.999047 0.0896593 0.139693
0 0.999013 0.0896526 0.106623
0 0.999026 0.0896546 0.126267
0 0.997303 0.090774 0.301926
0 0.996711 0.0906999 0.27937
0 0.996419 0.105439 3.60936
0 0.998435 0.0902108 0.155515
0 0.998075 0.0905641 0.144874
0 0.998745 0.0899299 0.176654
0 0.998957 0.0897346 0.160235
0 0.998025 0.0906685 0.145458
0 0.997452 0.0910727 0.108834
0 0.99684 0.0917714 0.0380573
0 0.99656 0.106552 3.54348
0 0.998306 0.0900299 0.163204
0 0.997957 0.0904714 0.249134
0 0.998592 0.0898661 0.14132
0 0.998837 0.0898061 0.142275
0 0.998935 0.0897419 0.169395
0 0.998906 0.0897647 0.167733
0 0.998877 0.0897798 0.148642
0 0.99886 0.0898024 0.16344
0 0.997895 0.0905525 0.265353
0 0.997341 0.0907711 0.300903
0 0.99673 0.090691 0.27393
0 0.99644 0.10531 3.57656
0 0.998477 0.0901191 0.150032
0 0.998762 0.0898641 0.178724
0 0.998127 0.090499 0.209633
0 0.997478 0.0910175 0.233494
0 0.996864 0.0913966 0.142833
0 0.996574 0.106485 3.50609
0 0.998335 0.0900423 0.168942
0 0.998616 0.0898897 0.152855
0 0.998738 0.0898447 0.174963
0 0.998676 0.0898618 0.16362
0 0.998641 0.0898851 0.156406
0 0.997986 0.0904567 0.243741
0 0.997358 0.0907575 0.305254
0 0.996757 0.0907157 0.285814
0 0.996456 0.105553 3.63656
0 0.9985 0.0900491 0.182836
0 0.998048 0.0905055 0.262219
0 0.9975 0.0907893 0.310344
0 0.996878 0.090879 0.309715
0 0.996593 0.106509 3.68035
0 0.998361 0.090086 0.165227
0 0.998452 0.0900539 0.17135
0 0.998393 0.0900725 0.153117
0 0.997904 0.090566 0.259386
0 0.997377 0.0907599 0.313892
0 0.996771 0.090725 0.307765
0 0.996471 0.105741 3.69679
0 0.99812 0.0904279 0.241591
0 0.997512 0.0906977 0.320595
0 0.996898 0.0907378 0.347359
0 0.996597 0.106258 3.75053
0 0.997998 0.0905765 0.23711
0 0.997996 0.0905027 0.212545
0 0.998045 0.0904681 0.19737
0 0.997922 0.0905669 0.199023
0 0.997368 0.090818 0.30855
0 0.99678 0.0907431 0.32498
0 0.996487 0.105749 3.7071
0 0.997469 0.0907595 0.312363
0 0.996881 0.0907162 0.341314
0 0.996589 0.106214 3.81387
0 0.997435 0.0908754 0.24458
0 0.997383 0.0908946 0.231591
0 0.997393 0.0907815 0.203485
0 0.996774 0.0907892 0.297412
0 0.996505 0.105494 3.60491
0 0.996854 0.0908049 0.307
0 0.996575 0.106135 3.74812
0 0.996818 0.0911117 0.162406
0 0.996798 0.0911304 0.137902
0 0.996519 0.105745 3.60334
0 0.996555 0.106106 3.67576
0 0.996531 0.106062 3.41828
VECTORS fa_u float
0.00346662 0.00138979 0
0.00324222 0.00182353 0
0.00362063 0.000964771 0
0.00372575 0.000545932 0
0.000288168 6.54082e-05 0
0.00295496 0.00225171 0
0.00261184 0.00263864 0
0.000274534 0.00011707 0
0.000262495 0.000183216 0
0.00223506 0.00296246 0
0.0018366 0.00322748 0
0.0037853 -3.62836e-07 0
0.00371221 -0.000544516 0
0.000326652 2.9529e-05 0
0.000402431 4.46214e-06 0
0.00031102 4.991e-05 0
0.000286708 9.65554e-05 0
0.000236402 0.000232265 0
0.000202219 0.000262314 0
0.000270282 0.000161063 0
0.000249681 0.000210793 0
0.00143203 0.00346761 0
0.00100128 0.00365548 0
0.00016803 0.000275539 0
0.000138 0.000284803 0
0.000400718 -4.42807e-06 0
0.00356437 -0.000950042 0
0.000318833 -2.73727e-05 0
0.00341535 -0.00137075 0
0.00036579 2.52424e-06 0
0.000373791 8.84052e-07 0
0.00028183 2.1648e-05 0
0.000522297 0.00367201 0
0.000236463 6.57741e-05 0
0.000239608 0.000113087 0
0.000219272 0.000248204 0
0.000188282 0.000269398 0
0.000205676 0.000155804 0
0.000202484 0.000200889 0
0.000114231 0.000300766 0
8.78058e-05 0.000320996 0
0.000153373 0.000285438 0
0.000131628 0.000294901 0
3.4112e-05 0.00369739 0
0.000356993 -8.34894e-06 0
0.000278702 -6.09267e-05 0
0.000315038 -4.34788e-05 0
0.00318403 -0.00179386 0
0.000264027 -0.000114831 0
0.00290879 -0.0022218 0
0.000274607 2.75062e-06 0
0.000299534 -2.49205e-06 0
0.000167298 2.65732e-05 0
5.11825e-05 0.000333209 0
7.41151e-06 0.000331323 0
0.000148591 7.93448e-05 0
0.000163663 0.00021341 0
0.000147673 0.000242764 0
0.000124184 0.000132693 0
0.000102766 0.000308624 0
6.86033e-05 0.000321692 0
0.000120035 0.000243268 0
0.000105635 0.000267459 0
-0.000473483 0.0036167 0
0.00026204 -2.2522e-05 0
0.000285839 -0.000105607 0
0.000256564 -7.14171e-05 0
0.00025079 -0.000179123 0
0.00026904 -0.000157579 0
0.0025823 -0.00260853 0
0.000228009 -0.000228632 0
0.00221869 -0.00293369 0
0.000114625 4.24555e-05 0
0.000173211 -1.10899e-05 0
0.000122191 6.19009e-06 0
1.66276e-05 0.000330504 0
-4.45097e-05 0.00030707 0
-2.75799e-05 0.00032326 0
0.000100965 8.47611e-05 0
9.1912e-05 5.49232e-05 0
9.81217e-05 0.000160468 0
8.64101e-05 0.000116262 0
7.2281e-05 0.000251294 0
3.67906e-05 0.0002708 0
7.456e-05 0.000175939 0
-0.000998647 0.00352013 0
0.000157561 -5.62019e-05 0
0.000224613 -0.000113718 0
0.000249595 -0.000213037 0
0.000225053 -0.000162036 0
0.000196204 -0.000258534 0
0.000222004 -0.000247871 0
0.00182067 -0.00318635 0
0.000163604 -0.000270907 0
8.79035e-05 2.21446e-05 0
0.000119169 -3.36072e-05 0
9.65632e-05 -1.21246e-05 0
0.000103871 -7.04303e-05 0
0.00140741 -0.00340105 0
-0.000103628 0.000255564 0
-2.78767e-06 0.000262633 0
-8.56413e-05 0.000282867 0
-5.63656e-05 0.000265516 0
6.20487e-05 3.51758e-05 0
7.60417e-05 8.06174e-05 0
7.19223e-05 0.000135378 0
7.17418e-05 0.000107928 0
3.94351e-05 0.000184174 0
5.27578e-05 0.000140391 0
-0.00147833 0.00332957 0
0.000131521 -0.000109661 0
0.000190277 -0.000188432 0
0.000185067 -0.000271807 0
0.000175808 -0.000230808 0
0.000131581 -0.00028052 0
0.000152243 -0.000283963 0
9.92455e-05 -0.000287468 0
5.47381e-05 6.59775e-06 0
5.09763e-05 3.46904e-05 0
5.84344e-05 -9.84479e-06 0
8.15302e-05 -4.33833e-05 0
7.8578e-05 -0.000105102 0
7.5429e-05 -7.95453e-05 0
4.11248e-05 -2.3573e-05 0
0.00095765 -0.00353571 0
-0.000146697 0.000206296 0
-0.000126682 0.000234335 0
-2.74333e-05 0.00018835 0
-0.000101681 0.000231718 0
5.19121e-05 6.98434e-05 0
5.25133e-05 0.000111459 0
1.39621e-05 0.000140734 0
3.20668e-05 0.000114671 0
-0.000176396 0.000210749 0
-0.00190199 0.00317102 0
9.66991e-05 -0.000148189 0
0.000133111 -0.000232057 0
0.000114033 -0.000295988 0
0.000111217 -0.000256496 0
6.31741e-05 -0.000295949 0
8.05391e-05 -0.000301957 0
5.21339e-05 -0.000126911 0
3.2005e-05 4.59728e-05 0
3.10675e-05 6.55887e-06 0
4.44353e-05 -5.28323e-05 0
4.98221e-05 -9.6082e-05 0
3.10045e-05 -0.000119714 0
2.3119e-05 -5.14848e-05 0
1.10013e-05 -2.75921e-05 0
2.62703e-05 -0.000300382 0
0.00049527 -0.00365127 0
-4.1307e-05 0.000132278 0
-0.000160975 0.000208548 0
-0.00014021 0.000211067 0
-9.2371e-05 0.000167258 0
-0.000192303 0.000232135 0
2.74897e-05 8.10249e-05 0
-5.9436e-06 0.000105958 0
6.45451e-06 5.20999e-05 0
-6.47484e-05 0.000121261 0
-0.000209916 0.000281661 0
-0.00228271 0.00302865 0
5.77927e-05 -0.000166394 0
7.39508e-05 -0.000247435 0
4.11245e-05 -0.000309108 0
5.00814e-05 -0.00026842 0
4.00821e-06 -0.000313088 0
2.41328e-05 -0.000137477 0
-9.65894e-07 8.59901e-06 0
1.69836e-05 -8.01376e-05 0
6.47475e-06 -0.000118564 0
-2.22165e-06 -6.08862e-05 0
-2.33952e-05 -3.01285e-05 0
-1.56836e-05 -0.000297957 0
1.18821e-05 -0.00364135 0
-0.000111284 0.000117508 0
-0.000160049 0.000182969 0
-0.000138883 0.000151361 0
-0.000221578 0.00028173 0
-0.000174972 0.000194406 0
-1.72998e-05 6.86039e-05 0
-5.28994e-05 8.51221e-05 0
-3.21961e-05 3.94317e-05 0
-0.000107645 9.37044e-05 0
-0.000144618 0.000107332 0
-0.000161732 0.000281499 0
-0.00025047 0.000352768 0
-0.0026125 0.00275541 0
2.35342e-05 -0.000170673 0
1.76874e-05 -0.000249828 0
-4.41927e-05 -0.000304793 0
-2.01894e-05 -0.000265343 0
-4.6018e-06 -0.000138857 0
-2.53656e-05 -0.000124448 0
-5.19273e-05 8.48482e-06 0
-1.93172e-05 -8.78264e-05 0
-3.267e-05 -6.79972e-05 0
-8.036e-05 -2.26229e-05 0
-6.30234e-05 -5.52245e-05 0
-8.96682e-05 -0.000289933 0
-5.99138e-05 -0.000286474 0
-0.000475793 -0.00362269 0
-0.000147207 0.000119869 0
-0.000141992 0.00017643 0
-0.000117509 0.000174079 0
-0.000152463 8.99525e-05 0
-8.2444e-05 4.65321e-05 0
-0.000147767 7.13567e-05 0
-8.95921e-05 0.000182721 0
-0.00011295 0.000274635 0
-0.00301551 0.00228294 0
-1.85627e-05 -0.000163102 0
-5.50939e-05 -0.000238454 0
-0.00010449 -0.000250864 0
-4.48537e-05 -0.000129184 0
-5.7865e-05 -0.000111755 0
-0.00011633 1.66855e-05 0
-0.000138754 -1.61625e-05 0
-6.80971e-05 -8.20437e-05 0
-0.000113153 -5.60338e-05 0
-0.000132498 -0.0002713 0
-0.000102949 -0.00025971 0
-0.000946872 -0.00348295 0
-0.000130613 8.44113e-05 0
-0.000118481 8.33721e-05 0
-0.000168193 5.40168e-05 0
-0.000155928 3.68981e-05 0
-0.000143845 -2.16023e-05 0
-0.000108095 1.26608e-05 0
2.70821e-05 2.67379e-05 0
-0.00312194 0.00167622 0
-6.89161e-05 -0.000147939 0
-0.000123901 -0.00021614 0
-8.33732e-05 -0.000114107 0
-9.53165e-05 -0.000105627 0
-0.000169187 8.39175e-06 0
-0.000165665 -2.6256e-05 0
-0.000121256 -8.59732e-05 0
-0.000152728 -5.8195e-05 0
-0.000159383 -0.000212154 0
-0.000157808 -0.000256202 0
-0.000134204 -0.000238803 0
-0.00139395 -0.00329373 0
-0.000147817 2.56862e-05 0
-0.00017718 2.34368e-05 0
-0.000205071 -4.34964e-05 0
-0.000220938 -7.55377e-05 0
-0.00012176 -7.46717e-05 0
-0.0032359 0.00134968 0
-0.000112489 -0.000126046 0
-0.000116088 -9.94403e-05 0
-0.000174963 2.3711e-07 0
-0.000160388 -3.23591e-05 0
-0.00013824 -7.31603e-05 0
-0.0001624 -0.000181758 0
-0.000188227 -0.000240314 0
-0.000166486 -0.000232319 0
-0.00183881 -0.00313741 0
-0.000182743 5.85155e-06 0
-0.000261583 -1.82516e-05 0
-0.000306137 -5.09274e-05 0
-0.0003061 -4.71801e-05 0
-0.00354395 0.000992689 0
-0.000129225 -0.00010296 0
-0.000171339 -1.93717e-06 0
-0.00014399 -5.20739e-05 0
-0.000176298 -0.000190264 0
-0.000200005 -0.000241923 0
-0.000190852 -0.000241444 0
-0.00224606 -0.00293624 0
-0.000240937 1.77654e-05 0
-0.000320454 -9.51245e-06 0
-0.000346393 -2.58763e-05 0
-0.00371738 0.000497583 0
-0.000235565 2.70243e-05 0
-0.000157403 -0.000142827 0
-0.000196232 -2.11692e-05 0