# vtk DataFile Version 2.0
CellBP Time: 0.56
ASCII
DATASET UNSTRUCTURED_GRID
POINTS 296 double
-9.20541 -3.77711 0
-8.60796 -4.9646 0
-9.62487 -2.54054 0
-9.87668 -1.2533 0
-8.3648 -2.83307 0
-7.89962 -6.04612 0
-7.02893 -7.02539 0
-7.93045 -3.87268 0
-7.35449 -4.87002 0
-6.0439 -7.88737 0
-4.96188 -8.62845 0
-9.96288 0.0524503 0
-9.87002 1.35094 0
-8.67464 -1.68768 0
-8.79518 -0.527592 0
-7.60557 -2.00223 0
-7.23945 -2.90912 0
-6.64517 -5.78187 0
-5.82805 -6.59761 0
-6.80362 -3.89504 0
-6.23016 -4.6823 0
-3.77929 -9.19695 0
-2.55084 -9.63247 0
-4.91385 -7.32388 0
-3.9171 -7.89291 0
-8.8019 0.645708 0
-9.61676 2.64317 0
-8.62373 1.77173 0
-9.19909 3.87538 0
-7.75871 -0.926763 0
-7.80591 0.0825277 0
-6.96445 -1.31427 0
-1.26376 -9.86041 0
-6.4521 -2.15526 0
-6.32824 -3.05856 0
-5.54404 -5.48177 0
-4.80489 -6.1299 0
-5.66921 -3.76023 0
-5.2792 -4.56347 0
-2.86806 -8.36723 0
-1.78286 -8.64413 0
-3.93199 -6.72855 0
-3.06272 -7.15352 0
0.0492081 -9.95933 0
-7.71602 1.14414 0
-8.33451 2.91348 0
-7.56307 2.11214 0
-8.62132 5.05701 0
-7.89281 3.98518 0
-7.90722 6.15251 0
-6.78894 -0.394695 0
-6.95752 0.548864 0
-5.77977 -1.00598 0
-0.60004 -8.80486 0
0.571306 -8.78262 0
-5.30068 -2.48364 0
-4.49765 -5.09765 0
-3.91004 -5.77895 0
-4.44766 -3.80287 0
-2.06692 -7.56542 0
-1.1363 -7.79267 0
-2.99797 -6.10222 0
-2.30423 -6.6248 0
1.36843 -9.83664 0
-6.69043 1.42129 0
-7.17962 3.12051 0
-6.67718 2.38277 0
-7.30863 4.99044 0
-6.71515 4.00248 0
-7.03419 7.14119 0
-6.58382 5.89486 0
-6.04851 7.98775 0
-4.44901 -1.18163 0
-5.8185 0.507369 0
-4.65708 -0.00825756 0
0.00452235 -7.82053 0
1.74531 -8.6591 0
0.945378 -7.75301 0
-4.03409 -2.41153 0
-3.48307 -1.39143 0
-3.29873 -4.80265 0
-3.27485 -3.25952 0
-1.37115 -6.68047 0
-0.505402 -7.02552 0
-1.9743 -5.5413 0
2.64223 -9.62196 0
-5.51154 2.03593 0
-6.10823 3.07518 0
-6.1006 4.86695 0
-5.78025 3.99715 0
-5.77149 6.72442 0
-5.45128 5.60939 0
-4.956 8.71047 0
-4.8124 7.41999 0
-3.49847 -0.425823 0
-4.45337 1.27188 0
-3.71019 0.59017 0
-4.06824 2.31989 0
-3.7799 9.29596 0
2.88474 -8.35016 0
0.430117 -6.80174 0
2.03258 -7.54239 0
1.31642 -6.91446 0
-2.43847 -0.875085 0
-2.83188 -2.13361 0
-2.29343 -4.09968 0
-2.31868 -2.97687 0
-0.437525 -5.86511 0
-1.22567 -4.50806 0
3.88132 -9.20219 0
-4.7994 3.39354 0
-5.10841 4.60048 0
-4.67529 6.28932 0
-4.56358 5.37337 0
-3.86402 7.99911 0
-3.84099 6.88999 0
-2.7628 8.41369 0
-1.64543 -0.144291 0
-1.44009 -0.893961 0
-2.48397 0.494641 0
-3.27039 1.47431 0
-3.25755 3.31084 0
-2.92645 2.35063 0
-1.36091 0.619598 0
-2.53852 9.72089 0
3.94135 -7.88945 0
2.98503 -7.17437 0
0.962668 -5.82906 0
2.08387 -6.42394 0
-1.67345 -1.99862 0
-1.42661 -3.28275 0
0.0976142 -4.75378 0
-0.557778 -3.69893 0
4.91959 -7.31596 0
5.06402 -8.62424 0
-3.80135 4.55697 0
-3.7548 5.77239 0
-2.89648 7.33608 0
-3.0031 6.36396 0
-1.65088 8.77677 0
-1.97317 7.63513 0
-2.36345 4.01934 0
-0.712457 -1.33584 0
-0.827864 -0.255668 0
-1.95897 1.64594 0
-2.16874 2.85612 0
-1.34909 3.55644 0
-0.881411 1.34639 0
-0.27309 0.449173 0
-0.533391 8.8753 0
-1.26084 9.96744 0
1.12387 -4.58675 0
3.93105 -6.74592 0
3.00354 -6.11151 0
2.13136 -5.43705 0
4.80073 -6.2189 0
-0.545731 -2.48682 0
0.491953 -3.51347 0
0.0636646 -1.62002 0
1.50438 -3.6758 0
5.88242 -6.62694 0
6.16914 -7.90874 0
-2.47267 5.34258 0
-2.13106 6.54345 0
-0.90638 7.80081 0
-1.27061 6.9403 0
0.0850959 7.88779 0
-1.12061 4.48571 0
0.16164 -0.640423 0
-0.805133 2.48549 0
-0.300786 3.6014 0
0.0613684 1.53102 0
0.741412 0.45844 0
0.66174 8.8772 0
0.0426616 10.0622 0
2.37367 -4.26725 0
3.87671 -5.65707 0
3.01592 -5.24729 0
5.57839 -5.48713 0
4.70171 -5.2945 0
0.635544 -2.30284 0
1.26488 -2.96182 0
0.766983 -1.39718 0
2.17145 -3.14609 0
3.01129 -3.48607 0
6.17334 -4.79419 0
6.67031 -5.77902 0
7.1327 -7.03443 0
-1.02143 5.83249 0
-0.375485 6.88211 0
1.11851 7.76754 0
0.553644 7.08008 0
-0.00213596 4.7183 0
0.60667 3.81757 0
1.35024 -0.654962 0
0.551048 2.62337 0
0.965675 1.56935 0
1.91578 0.178286 0
1.61968 1.05692 0
2.13247 7.59149 0
1.81334 8.71163 0
1.35326 9.96973 0
3.85805 -4.35548 0
5.12827 -4.47908 0
5.88324 -3.97147 0
3.81339 -3.19832 0
1.83969 -1.86463 0
3.00248 -2.59199 0
6.79658 -3.95578 0
7.39616 -4.91825 0
7.99614 -6.04705 0
0.474412 5.89297 0
1.42383 6.74228 0
2.37146 6.67019 0
1.20274 4.5484 0
1.49609 3.43246 0
2.44019 -0.700586 0
2.83437 0.135858 0
1.77673 2.1521 0
2.63299 1.13432 0
3.06707 7.16971 0
2.90011 8.39521 0
2.63673 9.71882 0
4.93057 -3.31837 0
6.14742 -3.11023 0
4.17601 -2.30825 0
3.25966 -1.50969 0
6.76573 -2.32285 0
7.25743 -3.06284 0
8.01438 -3.90977 0
8.73405 -4.98103 0
2.00459 5.61756 0
3.08291 6.15959 0
2.35142 4.12079 0
2.41156 3.05479 0
3.53225 -0.466779 0
3.61008 0.593483 0
2.95841 2.31543 0
3.54816 1.53158 0
4.01931 5.89022 0
3.98494 6.79481 0
3.95203 7.96353 0
3.89175 9.29041 0
5.58199 -1.93978 0
4.47278 -1.14205 0
6.74451 -1.344 0
7.62954 -2.04715 0
8.43493 -2.89184 0
9.31027 -3.76429 0
3.41893 4.88043 0
3.34993 3.38775 0
4.67731 0.145985 0
4.57111 1.32816 0
4.04239 2.41844 0
4.56814 5.17449 0
4.85752 6.18457 0
4.98183 7.3865 0
5.05369 8.71642 0
5.89024 -0.427941 0
7.04075 -0.490664 0
7.78116 -1.08163 0
8.66303 -1.79409 0
9.72999 -2.54067 0
4.55947 3.8297 0
5.81518 1.08292 0
5.38317 2.53885 0
5.39784 4.65005 0
5.63967 5.53641 0
5.90503 6.6812 0
6.13873 7.99075 0
6.87126 0.48093 0
7.89128 -0.0531616 0
8.91896 -0.618137 0
9.98046 -1.20023 0
6.99175 1.33171 0
5.73043 3.7831 0
6.57412 2.18933 0
6.37042 3.07097 0
6.29082 4.67097 0
6.70027 5.86001 0
7.12862 7.13252 0
7.77257 0.975343 0
8.81316 0.556831 0
10.0596 0.0278088 0
7.60276 1.98244 0
6.85153 3.93472 0
7.26721 2.92975 0
7.3923 4.89894 0
7.9888 6.14737 0
8.71545 1.7311 0
10.0008 1.33838 0
8.43955 2.84844 0
7.96667 3.9023 0
8.71667 5.05832 0
9.72011 2.64339 0
9.30402 3.88201 0
CELLS 542 2168
3 2 0 4
3 0 1 7
3 4 0 7
3 1 5 8
3 7 1 8
3 3 2 13
3 13 2 4
3 11 3 14
3 14 3 13
3 13 4 15
3 4 7 16
3 15 4 16
3 5 6 17
3 8 5 17
3 6 9 18
3 17 6 18
3 7 8 19
3 16 7 19
3 8 17 20
3 19 8 20
3 9 10 23
3 18 9 23
3 10 21 24
3 23 10 24
3 12 11 25
3 25 11 14
3 26 12 27
3 27 12 25
3 14 13 29
3 29 13 15
3 25 14 30
3 30 14 29
3 29 15 31
3 15 16 33
3 31 15 33
3 16 19 34
3 33 16 34
3 17 18 35
3 20 17 35
3 18 23 36
3 35 18 36
3 19 20 37
3 34 19 37
3 20 35 38
3 37 20 38
3 21 22 39
3 24 21 39
3 22 32 40
3 39 22 40
3 23 24 41
3 36 23 41
3 24 39 42
3 41 24 42
3 27 25 44
3 44 25 30
3 28 26 45
3 45 26 27
3 45 27 46
3 46 27 44
3 47 28 48
3 48 28 45
3 30 29 50
3 50 29 31
3 44 30 51
3 51 30 50
3 50 31 52
3 31 33 52
3 32 43 53
3 40 32 53
3 53 43 54
3 33 34 55
3 34 37 55
3 33 55 52
3 35 36 56
3 38 35 56
3 36 41 57
3 56 36 57
3 37 38 58
3 38 56 58
3 37 58 55
3 39 40 59
3 42 39 59
3 40 53 60
3 59 40 60
3 41 42 61
3 57 41 61
3 42 59 62
3 61 42 62
3 43 63 54
3 46 44 64
3 64 44 51
3 48 45 65
3 65 45 46
3 65 46 66
3 66 46 64
3 49 47 67
3 67 47 48
3 67 48 68
3 68 48 65
3 69 49 70
3 70 49 67
3 52 55 72
3 64 51 73
3 51 50 73
3 50 52 73
3 73 52 74
3 74 52 72
3 53 54 75
3 60 53 75
3 54 63 76
3 54 76 77
3 75 54 77
3 55 58 78
3 72 55 78
3 72 78 79
3 56 57 80
3 57 61 80
3 56 80 58
3 58 80 81
3 78 58 81
3 59 60 82
3 62 59 82
3 60 75 83
3 82 60 83
3 61 62 84
3 62 82 84
3 61 84 80
3 63 85 76
3 66 64 86
3 64 73 86
3 68 65 87
3 87 65 66
3 87 66 86
3 70 67 88
3 88 67 68
3 88 68 89
3 89 68 87
3 71 69 90
3 90 69 70
3 90 70 91
3 91 70 88
3 92 71 93
3 93 71 90
3 74 72 94
3 94 72 79
3 86 73 95
3 95 73 74
3 95 74 96
3 96 74 94
3 97 86 95
3 76 85 99
3 75 77 100
3 83 75 100
3 76 99 101
3 77 76 101
3 77 101 102
3 100 77 102
3 94 79 103
3 78 81 104
3 79 78 104
3 79 104 103
3 80 84 105
3 81 80 105
3 81 105 106
3 104 81 106
3 82 83 107
3 83 100 107
3 82 107 84
3 84 107 108
3 105 84 108
3 85 109 99
3 89 87 110
3 87 86 110
3 110 86 97
3 91 88 111
3 111 88 89
3 111 89 110
3 93 90 112
3 112 90 91
3 112 91 113
3 113 91 111
3 98 92 114
3 114 92 93
3 114 93 115
3 115 93 112
3 116 98 114
3 117 103 118
3 96 94 119
3 94 103 119
3 119 103 117
3 97 95 120
3 120 95 96
3 120 96 119
3 121 110 97
3 121 97 122
3 122 97 120
3 123 119 117
3 124 98 116
3 99 109 125
3 99 125 126
3 101 99 126
3 100 102 127
3 100 127 107
3 101 126 128
3 102 101 128
3 102 128 127
3 104 106 129
3 104 129 103
3 103 129 118
3 105 108 130
3 106 105 130
3 106 130 129
3 107 127 131
3 108 107 131
3 108 131 132
3 108 132 130
3 109 134 125
3 125 134 133
3 113 111 135
3 111 110 135
3 135 110 121
3 115 112 136
3 136 112 113
3 136 113 135
3 116 114 137
3 137 114 115
3 137 115 138
3 138 115 136
3 139 124 116
3 139 116 140
3 140 116 137
3 141 135 121
3 118 129 142
3 118 142 143
3 117 118 143
3 123 117 143
3 122 120 144
3 120 119 144
3 144 119 123
3 141 121 145
3 145 121 122
3 145 122 144
3 146 141 145
3 147 144 123
3 147 123 148
3 143 148 123
3 150 124 139
3 149 150 139
3 131 127 151
3 125 133 152
3 126 125 152
3 126 152 153
3 128 126 153
3 128 153 154
3 128 154 127
3 127 154 151
3 152 133 155
3 130 132 156
3 130 156 129
3 129 156 142
3 131 151 157
3 132 131 157
3 132 157 156
3 156 158 142
3 157 151 159
3 133 160 155
3 134 161 133
3 133 161 160
3 138 136 162
3 136 135 162
3 162 135 141
3 140 137 163
3 163 137 138
3 163 138 162
3 149 139 164
3 164 139 140
3 164 140 165
3 165 140 163
3 166 149 164
3 167 162 141
3 167 141 146
3 142 158 168
3 143 142 168
3 143 168 148
3 146 145 169
3 145 144 169
3 169 144 147
3 170 167 146
3 170 146 169
3 171 169 147
3 171 147 148
3 171 148 172
3 168 172 148
3 173 149 166
3 174 150 149
3 173 174 149
3 154 175 151
3 151 175 159
3 152 155 176
3 153 152 176
3 153 176 177
3 153 177 154
3 154 177 175
3 155 160 178
3 155 178 179
3 176 155 179
3 156 157 180
3 156 180 158
3 157 159 181
3 157 181 180
3 158 180 182
3 158 182 168
3 159 175 183
3 159 183 181
3 175 184 183
3 160 186 178
3 178 186 185
3 161 187 160
3 160 187 186
3 165 163 188
3 163 162 188
3 188 162 167
3 166 164 189
3 189 164 165
3 189 165 188
3 190 173 166
3 190 166 191
3 191 166 189
3 192 188 167
3 192 167 170
3 193 192 170
3 182 194 168
3 194 172 168
3 193 170 195
3 170 169 195
3 195 169 171
3 196 195 171
3 196 171 172
3 194 197 172
3 197 198 172
3 198 196 172
3 200 173 190
3 199 200 190
3 201 174 173
3 200 201 173
3 176 179 202
3 177 176 202
3 177 202 175
3 175 202 184
3 178 185 203
3 178 203 179
3 179 203 202
3 203 185 204
3 202 205 184
3 183 206 181
3 180 181 206
3 180 206 182
3 182 206 194
3 183 184 207
3 205 207 184
3 183 207 206
3 185 208 204
3 186 209 185
3 185 209 208
3 187 210 186
3 186 210 209
3 191 189 211
3 189 188 211
3 211 188 192
3 199 190 212
3 212 190 191
3 212 191 211
3 213 199 212
3 214 211 192
3 214 192 193
3 215 214 193
3 215 193 195
3 206 216 194
3 216 197 194
3 216 217 197
3 215 195 218
3 218 195 196
3 198 218 196
3 217 219 197
3 219 218 198
3 197 219 198
3 220 199 213
3 221 200 199
3 220 221 199
3 222 201 200
3 221 222 200
3 203 204 223
3 203 223 202
3 202 223 205
3 204 208 224
3 204 224 223
3 205 223 225
3 205 225 207
3 207 225 226
3 207 226 206
3 226 216 206
3 208 228 224
3 224 228 227
3 209 229 208
3 229 228 208
3 210 230 209
3 209 230 229
3 213 212 231
3 212 211 231
3 231 211 214
3 232 220 213
3 232 213 231
3 233 231 214
3 233 214 215
3 234 233 215
3 234 215 218
3 226 235 216
3 235 217 216
3 235 236 217
3 217 236 219
3 237 234 218
3 237 218 219
3 236 238 219
3 238 237 219
3 240 220 232
3 239 240 232
3 241 221 220
3 240 241 220
3 242 222 221
3 241 242 221
3 224 227 243
3 224 243 223
3 223 243 225
3 225 243 244
3 225 244 226
3 226 244 235
3 227 245 243
3 228 246 227
3 227 246 245
3 229 247 228
3 228 247 246
3 230 248 229
3 229 248 247
3 239 232 249
3 232 231 249
3 249 231 233
3 250 249 233
3 250 233 234
3 237 250 234
3 244 251 235
3 235 251 236
3 251 252 236
3 236 252 238
3 252 253 238
3 253 250 237
3 253 237 238
3 254 239 249
3 255 240 239
3 254 255 239
3 256 241 240
3 255 256 240
3 257 242 241
3 256 257 241
3 245 258 243
3 243 258 244
3 244 258 251
3 245 259 258
3 246 260 245
3 245 260 259
3 247 261 246
3 246 261 260
3 248 262 247
3 247 262 261
3 254 249 263
3 263 249 250
3 253 263 250
3 258 264 251
3 251 264 252
3 264 265 252
3 265 263 253
3 252 265 253
3 266 254 263
3 267 255 254
3 266 267 254
3 268 256 255
3 267 268 255
3 269 257 256
3 268 269 256
3 259 270 258
3 270 264 258
3 260 271 259
3 259 271 270
3 261 272 260
3 260 272 271
3 262 273 261
3 273 272 261
3 270 274 264
3 275 266 263
3 275 263 265
3 274 276 264
3 276 265 264
3 276 277 265
3 277 275 265
3 278 267 266
3 275 278 266
3 279 268 267
3 278 279 267
3 280 269 268
3 279 280 268
3 271 281 270
3 270 281 274
3 272 282 271
3 271 282 281
3 273 283 272
3 272 283 282
3 281 284 274
3 274 284 276
3 285 278 275
3 277 285 275
3 284 286 276
3 286 285 277
3 276 286 277
3 287 279 278
3 285 287 278
3 288 280 279
3 287 288 279
3 282 289 281
3 281 289 284
3 283 290 282
3 282 290 289
3 289 291 284
3 284 291 286
3 291 292 286
3 292 287 285
3 286 292 285
3 293 288 287
3 292 293 287
3 290 294 289
3 289 294 291
3 294 295 291
3 295 293 292
3 291 295 292
CELL_TYPES 542
5
5
5
5
5
5
5
5
5
5
5
5
5
5
5
5
5
5
5
5
5
5
5
5
5
5
5
5
5
5
5
5
5
5
5
5
5
5
5
5
5
5
5
5
5
5
5
5
5
5
5
5
5
5
5
5
5
5
5
5
5
5
5
5
5
5
5
5
5
5
5
5
5
5
5
5
5
5
5
5
5
5
5
5
5
5
5
5
5
5
5
5
5
5
5
5
5
5
5
5
5
5
5
5
5
5
5
5
5
5
5
5
5
5
5
5
5
5
5
5
5
5
5
5
5
5
5
5
5
5
5
5
5
5
5
5
5
5
5
5
5
5
5
5
5
5
5
5
5
5
5
5
5
5
5
5
5
5
5
5
5
5
5
5
5
5
5
5
5
5
5
5
5
5
5
5
5
5
5
5
5
5
5
5
5
5
5
5
5
5
5
5
5
5
5
5
5
5
5
5
5
5
5
5
5
5
5
5
5
5
5
5
5
5
5
5
5
5
5
5
5
5
5
5
5
5
5
5
5
5
5
5
5
5
5
5
5
5
5
5
5
5
5
5
5
5
5
5
5
5
5
5
5
5
5
5
5
5
5
5
5
5
5
5
5
5
5
5
5
5
5
5
5
5
5
5
5
5
5
5
5
5
5
5
5
5
5
5
5
5
5
5
5
5
5
5
5
5
5
5
5
5
5
5
5
5
5
5
5
5
5
5
5
5
5
5
5
5
5
5
5
5
5
5
5
5
5
5
5
5
5
5
5
5
5
5
5
5
5
5
5
5
5
5
5
5
5
5
5
5
5
5
5
5
5
5
5
5
5
5
5
5
5
5
5
5
5
5
5
5
5
5
5
5
5
5
5
5
5
5
5
5
5
5
5
5
5
5
5
5
5
5
5
5
5
5
5
5
5
5
5
5
5
5
5
5
5
5
5
5
5
5
5
5
5
5
5
5
5
5
5
5
5
5
5
5
5
5
5
5
5
5
5
5
5
5
5
5
5
5
5
5
5
5
5
5
5
5
5
5
5
5
5
5
5
5
5
5
5
5
5
5
5
5
5
5
5
5
5
5
5
5
5
5
5
5
5
5
5
5
5
5
5
5
5
5
5
5
5
5
5
5
5
5
5
5
5
5
5
5
5
5
5
5
5
5
5
5
5
5
5
5
5
5
5
5
5
5
5
5
5
5
5
5
5
5
5
5
5
5
5
5
5
5
5
5
5
5
5
5
5
5
POINT_DATA 296
SCALARS concentrations float 4
LOOKUP_TABLE default
0 1.00235 0.00488196 142.058
0 1.00382 0.00454259 153.061
0 1.00152 0.0407337 127.342
0 1.00105 0.126765 103.116
0 1.00255 0.00711344 132.81
0 1.00368 0.0066105 145.135
0 1.00299 0.0670608 115.244
0 1.00295 0.0895 67.2744
0 1.00251 0.0702815 152.893
0 1.0022 0.102599 78.155
0 1.00405 0.00348925 43.8826
0 1.0015 0.0635342 93.801
0 1.00086 0.0599591 14.1848
0 1.0022 0.0548016 120.952
0 1.00165 0.0549619 84.2747
0 1.00343 0.0241952 128.808
0 1.00269 0.0267104 123.972
0 1.00249 0.102066 92.6588
0 1.00169 0.0781771 177.837
0 1.00182 0.0327957 134.057
0 1.00168 0.0224908 51.1143
0 1.00414 0.095744 46.9136
0 1.0032 0.06985 25.8594
0 1.0029 0.0968668 58.4457
0 1.00419 0.027687 52.0442
0 1.00137 0.0819946 62.0949
0 1.00183 0.0346976 99.5476
0 1.00151 0.0676153 28.6258
0 1.00346 0.0583781 96.7362
0 1.00275 0.0447939 14.9418
0 1.0016 0.0980157 106.249
0 1.00279 0.0768867 68.5033
0 1.00192 0.0747695 38.2088
0 1.00201 0.0731141 120.098
0 1.00186 0.0898202 106.493
0 1.00214 0.0168185 129.317
0 1.00197 0.0993138 84.1349
0 1.00164 0.0885529 59.4843
0 1.00256 0.0867498 124.594
0 1.00362 0.102461 128.104
0 1.00247 0.0915503 65.6789
0 1.00308 0.0929711 83.8306
0 1.00353 0.0925973 130.494
0 1.00119 0.123666 71.0562
0 1.0016 0.0508976 20.7873
0 1.00243 0.0804584 81.3854
0 1.00241 0.0906734 25.9711
0 1.0039 0.0329718 88.8108
0 1.0034 0.0665676 76.869
0 1.00383 0.106972 65.2405
0 1.00209 0.0809836 91.994
0 1.00094 0.0740679 65.267
0 1.00235 0.0362497 101.535
0 1.00118 0.0689754 45.305
0 1.00132 0.0487754 58.367
0 1.0014 0.0827282 54.6103
0 1.00228 0.095285 113.711
0 1.0024 0.0273512 41.7609
0 1.00142 0.0845241 64.6494
0 1.00308 0.103166 129.091
0 1.00261 0.0580442 49.2483
0 1.00265 0.097807 144.726
0 1.00286 0.0278447 101.024
0 1.00196 0.0760307 23.43
0 1.00182 0.0664551 37.3392
0 1.00258 0.0909197 24.9939
0 1.00309 0.061672 17.6376
0 1.00352 0.0476939 72.2462
0 1.00223 0.0560265 74.5599
0 1.00314 0.0391653 9.3768
0 1.00293 0.0682866 81.2056
0 1.00223 0.0367421 41.867
0 1.00232 0.0573081 83.0759
0 1.00194 0.0710916 76.8031
0 1.00257 0.109716 79.4334
0 1.00187 0.0770234 52.2278
0 1.00201 0.0939534 81.7123
0 1.00189 0.0833337 61.8408
0 1.00136 0.0142689 52.7566
0 1.00254 0.0782862 81.332
0 1.00184 0.07491 121.44
0 1.00128 0.0624157 72.3016
0 1.00262 0.0512487 97.3154
0 1.00269 0.0650716 167.712
0 1.0016 0.0702263 103.062
0 1.00157 0.109721 27.6994
0 1.00201 0.079901 27.1088
0 1.00234 0.0781244 44.5232
0 1.00192 0.071239 73.2654
0 1.00134 0.0916446 33.8051
0 1.00222 0.0862049 53.9064
0 1.00174 0.0690258 44.1983
0 1.00198 0.0458516 31.5618
0 1.00182 0.0485781 25.4088
0 1.00166 0.100994 14.3682
0 1.00191 0.081503 63.7423
0 1.00117 0.0763114 19.7177
0 1.00177 0.0713435 9.76002
0 1.00229 0.0775458 12.3429
0 1.00206 0.0404883 84.5097
0 1.0021 0.103557 146.681
0 1.00253 0.0281273 78.5257
0 1.00207 0.111128 91.4921
0 1.00248 0.114083 85.137
0 1.00216 0.0614223 50.5214
0 1.00138 0.0680747 45.5166
0 1.00139 0.0986973 44.8667
0 1.00175 0.101846 139.62
0 1.00189 0.00297866 20.503
0 1.00154 0.135408 59.1862
0 1.00198 0.0984359 38.3487
0 1.00181 0.0835814 65.6765
0 1.00166 0.0692088 46.3093
0 1.00183 0.0685418 27.1821
0 1.00215 0.0517304 12.386
0 1.00204 0.0505712 15.9911
0 1.00201 0.064162 12.3179
0 1.00252 0.105141 43.8916
0 1.0035 0.079218 72.7232
0 1.0015 0.0286406 34.9488
0 1.00172 0.044328 66.5254
0 1.00229 0.0571778 62.9143
0 1.00199 0.0605661 56.3198
0 1.00226 0.0319712 60.5663
0 1.00159 0.0741018 55.5393
0 1.00235 0.0280606 26.3805
0 1.00199 0.0871841 34.9118
0 1.00164 0.102321 128.414
0 1.00174 0.103883 94.949
0 1.00263 0.0448599 34.9923
0 1.00219 0.0972556 75.2381
0 1.00171 0.0901136 70.5774
0 1.00234 0.0632632 104.693
0 1.00282 0.0111979 58.5539
0 1.00297 0.0715349 115.97
0 1.00225 0.0745316 21.4838
0 1.00187 0.0558383 32.4062
0 1.00201 0.0571426 17.2195
0 1.00196 0.0541821 14.118
0 1.00152 0.0402183 29.8468
0 1.00188 0.0490325 24.1348
0 1.00232 0.080471 40.9366
0 1.00305 0.101576 129.64
0 1.00257 0.0986878 116.971
0 1.00207 0.0448812 48.9082
0 1.00204 0.0474676 22.9609
0 1.00184 0.0557615 60.4127
0 1.0024 0.03747 19.0479
0 1.00262 0.0221041 36.0446
0 1.00162 0.0489113 50.5723
0 1.00119 0.0291454 40.9419
0 1.00141 0.0673093 37.3838
0 1.00171 0.0839959 45.376
0 1.00151 0.0789565 145.012
0 1.00175 0.109723 97.4201
0 1.00225 0.111286 76.5647
0 1.00229 0.0864433 96.1389
0 1.00133 0.0918578 110.515
0 1.00259 0.0222962 24.4137
0 1.00104 0.0994403 114.137
0 1.00186 0.107452 103.819
0 1.00252 0.0368901 111.495
0 1.00215 0.0889311 66.9754
0 1.00194 0.0564958 19.6902
0 1.00183 0.0536128 23.5562
0 1.00187 0.053028 12.9363
0 1.00185 0.107492 23.7984
0 1.00193 0.0731711 47.0966
0 1.00238 0.0932678 144.293
0 1.00185 0.0541857 50.4263
0 1.00133 0.0794725 40.5346
0 1.00262 0.059495 21.484
0 1.00284 0.105747 80.6675
0 1.00211 0.0539809 22.6431
0 1.00157 0.0678182 15.255
0 1.00215 0.0450674 46.5396
0 1.00144 0.074607 141.494
0 1.00221 0.0495842 33.9473
0 1.00217 0.0593959 54.5062
0 1.00164 0.126234 4.8885
0 1.00201 0.0440575 36.6309
0 1.00077 0.0517886 40.0918
0 1.00253 0.0958801 145.093
0 1.00128 0.0586811 51.2121
0 1.00231 0.107838 129.491
0 1.00202 0.103234 106.895
0 1.00097 0.113376 48.5257
0 1.00098 0.109447 57.0925
0 1.00187 0.0491604 31.0751
0 1.00181 0.0619705 56.3219
0 1.00197 0.118357 27.0814
0 1.00135 0.0824159 50.4148
0 1.00131 0.0696296 26.227
0 1.00138 0.043553 37.2831
0 1.00191 0.0950731 157.771
0 1.0018 0.0474702 25.8129
0 1.00288 0.113141 24.057
0 1.00233 0.10819 94.6444
0 1.00324 0.0977033 92.3467
0 1.0022 0.0561422 5.7763
0 1.00333 0.0535965 18.5401
0 1.00309 0.0433227 96.5913
0 1.00158 0.0577515 16.4445
0 1.0018 0.0933888 74.8458
0 1.00215 0.0555922 10.6086
0 1.0016 0.100401 75.9874
0 1.00137 0.100046 117.799
0 1.00151 0.0601478 22.6191
0 1.00238 0.129839 40.7701
0 1.00214 0.0862064 72.8302
0 1.00137 0.122495 56.4561
0 1.00155 0.0546905 29.6499
0 1.00159 0.107133 32.6556
0 1.00199 0.109445 37.4169
0 1.00187 0.0773094 15.3064
0 1.00223 0.0754466 30.3632
0 1.00128 0.102 43.7937
0 1.00131 0.118271 87.0867
0 1.00236 0.0597955 35.0052
0 1.00223 0.0891141 50.4127
0 1.00172 0.0715286 24.3754
0 1.00294 0.102021 104.347
0 1.00413 0.135705 52.4812
0 1.00169 0.0611391 40.9093
0 1.00215 0.106205 60.8492
0 1.00194 0.0586242 28.1962
0 1.00159 0.0646029 36.4939
0 1.00249 0.0904657 8.81087
0 1.00248 0.0625835 15.3057
0 1.00265 0.0534647 22.9476
0 1.0026 0.0500394 25.5151
0 1.00208 0.0514969 30.134
0 1.0019 0.10634 26.0872
0 1.00243 0.0542797 36.6505
0 1.00222 0.0532772 10.33
0 1.00143 0.117229 71.5201
0 1.00135 0.0854787 42.4529
0 1.00226 0.0794998 34.0299
0 1.00206 0.0875796 42.9641
0 1.00186 0.0819894 39.7349
0 1.00229 0.0957158 60.7967
0 1.00232 0.0496136 7.46867
0 1.00323 0.142596 28.0835
0 1.00206 0.0729785 28.1365
0 1.00214 0.0530452 36.8346
0 1.00209 0.105099 38.064
0 1.00241 0.0673386 9.71347
0 1.00234 0.0560178 13.6812
0 1.00244 0.067936 10.1413
0 1.00213 0.0982289 37.8943
0 1.00264 0.0379115 10.1628
0 1.002 0.0763687 25.3915
0 1.00232 0.070499 44.4738
0 1.00274 0.0810074 26.043
0 1.00182 0.0722385 25.6627
0 1.00263 0.0713757 18.3366
0 1.00246 0.13969 27.7279
0 1.002 0.0641128 123.053
0 1.00202 0.12035 56.6474
0 1.00195 0.0738297 22.9436
0 1.00239 0.0650811 14.559
0 1.00212 0.0530077 22.4832
0 1.002 0.0836774 7.43518
0 1.00238 0.0679584 137.702
0 1.00219 0.0621263 25.4325
0 1.00215 0.135653 110.77
0 1.00217 0.0629814 18.7608
0 1.00216 0.0636194 9.55557
0 1.00284 0.137551 86.9248
0 1.00266 0.121207 72.8614
0 1.002 0.0702818 26.5214
0 1.00215 0.0603893 32.6049
0 1.00206 0.0524339 14.3234
0 1.00184 0.065963 33.6559
0 1.00212 0.0611605 15.8405
0 1.00184 0.091505 53.1408
0 1.00176 0.0622084 40.4315
0 1.00143 0.0567654 20.8719
0 1.00235 0.0612206 22.2046
0 1.00215 0.0728666 27.8619
0 1.00259 0.114405 83.6305
0 1.00213 0.0584181 9.60308
0 1.0021 0.0703152 19.5745
0 1.0021 0.0684337 15.7326
0 1.00191 0.0644467 33.2266
0 1.00226 0.0655583 28.6665
0 1.00198 0.056962 15.4197
0 1.00187 0.134451 83.918
0 1.00156 0.156343 38.1311
0 1.00173 0.0609381 6.99103
0 1.00187 0.0616873 11.4452
0 1.00178 0.0903754 42.4016
0 1.00203 0.0661394 50.0466
0 1.00153 0.151464 18.9016
0 1.00148 0.149441 68.4164
0 1.00206 0.0732201 29.2273
VECTORS fa_u float
0.00674489 0.00282953 -0
0.00426171 0.00245257 -0
0.00659038 0.00175287 -0
0.00610782 0.000796199 -0
1e-08 0 0
0.00655306 0.00502111 -0
0.00419782 0.0042308 -0
1e-08 0 0
1e-08 0 0
0.00326636 0.00421177 -0
0.0044111 0.00762795 -0
0.00719555 -1.83998e-05 -0
0.00562843 -0.000751954 0
1e-08 0 0
1e-08 0 0
1e-08 0 0
1e-08 0 0
1e-08 0 0
1e-08 0 0
1e-08 0 0
1e-08 0 0
0.00169153 0.00406203 -0
0.00265805 0.0100782 -0
1e-08 0 0
1e-08 0 0
1e-08 0 0
0.00653369 -0.00173647 0
1e-08 0 0
0.00576632 -0.00237797 0
1e-08 0 0
1e-08 0 0
1e-08 0 0
0.000475136 0.00377949 -0
1e-08 0 0
1e-08 0 0
1e-08 0 0
1e-08 0 0
1e-08 0 0
1e-08 0 0
1e-08 0 0
1e-08 0 0
1e-08 0 0
1e-08 0 0
-9.5811e-05 0.0106132 -0
1e-08 0 0
1e-08 0 0
1e-08 0 0
0.00499324 -0.0028328 0
1e-08 0 0
0.00639898 -0.00487291 0
1e-08 0 0
1e-08 0 0
1e-08 0 0
1e-08 0 0
1e-08 0 0
1e-08 0 0
1e-08 0 0
1e-08 0 0
1e-08 0 0
1e-08 0 0
1e-08 0 0
1e-08 0 0
1e-08 0 0
-0.000271392 0.00208593 0
1e-08 0 0
1e-08 0 0
1e-08 0 0
1e-08 0 0
1e-08 0 0
0.00507754 -0.00514245 0
1e-08 0 0
0.00360731 -0.00477714 0
1e-08 0 0
1e-08 0 0
1e-08 0 0
1e-08 0 0
1e-08 0 0
1e-08 0 0
1e-08 0 0
1e-08 0 0
1e-08 0 0
1e-08 0 0
1e-08 0 0
1e-08 0 0
1e-08 0 0
-0.00238777 0.00945728 0
1e-08 0 0
1e-08 0 0
1e-08 0 0
1e-08 0 0
1e-08 0 0
1e-08 0 0
0.00284957 -0.00494153 0
1e-08 0 0
1e-08 0 0
1e-08 0 0
1e-08 0 0
1e-08 0 0
0.00255371 -0.00610991 0
1e-08 0 0
1e-08 0 0
1e-08 0 0
1e-08 0 0
1e-08 0 0
1e-08 0 0
1e-08 0 0
1e-08 0 0
1e-08 0 0
1e-08 0 0
-0.00236615 0.00574338 0
1e-08 0 0
1e-08 0 0
1e-08 0 0
1e-08 0 0
1e-08 0 0
1e-08 0 0
1e-08 0 0
1e-08 0 0
1e-08 0 0
1e-08 0 0
1e-08 0 0
1e-08 0 0
1e-08 0 0
1e-08 0 0
0.00190133 -0.0071329 0
1e-08 0 0
1e-08 0 0
1e-08 0 0
1e-08 0 0
1e-08 0 0
1e-08 0 0
1e-08 0 0
1e-08 0 0
1e-08 0 0
-0.00268511 0.00474934 0
1e-08 0 0
1e-08 0 0
1e-08 0 0
1e-08 0 0
1e-08 0 0
1e-08 0 0
1e-08 0 0
1e-08 0 0
1e-08 0 0
1e-08 0 0
1e-08 0 0
1e-08 0 0
1e-08 0 0
1e-08 0 0
1e-08 0 0
0.000698598 -0.00528354 0
1e-08 0 0
1e-08 0 0
1e-08 0 0
1e-08 0 0
1e-08 0 0
1e-08 0 0
1e-08 0 0
1e-08 0 0
1e-08 0 0
1e-08 0 0
-0.00609784 0.00793462 0
1e-08 0 0
1e-08 0 0
1e-08 0 0
1e-08 0 0
1e-08 0 0
1e-08 0 0
1e-08 0 0
1e-08 0 0
1e-08 0 0
1e-08 0 0
1e-08 0 0
1e-08 0 0
6.81434e-06 -0.00776631 0
1e-08 0 0
1e-08 0 0
1e-08 0 0
1e-08 0 0
1e-08 0 0
1e-08 0 0
1e-08 0 0
1e-08 0 0
1e-08 0 0
1e-08 0 0
1e-08 0 0
1e-08 0 0
-0.00362785 0.00356024 0
1e-08 0 0
1e-08 0 0
1e-08 0 0
1e-08 0 0
1e-08 0 0
1e-08 0 0
1e-08 0 0
1e-08 0 0
1e-08 0 0
1e-08 0 0
1e-08 0 0
1e-08 0 0
1e-08 0 0
-0.000750475 -0.00566986 0
1e-08 0 0
1e-08 0 0
1e-08 0 0
1e-08 0 0
1e-08 0 0
1e-08 0 0
1e-08 0 0
1e-08 0 0
-0.00385349 0.00300514 0
1e-08 0 0
1e-08 0 0
1e-08 0 0
1e-08 0 0
1e-08 0 0
1e-08 0 0
1e-08 0 0
1e-08 0 0
1e-08 0 0
1e-08 0 0
1e-08 0 0
-0.00180555 -0.00674696 0
1e-08 0 0
1e-08 0 0
1e-08 0 0
1e-08 0 0
1e-08 0 0
1e-08 0 0
1e-08 0 0
-0.00868499 0.00499976 0
1e-08 0 0
1e-08 0 0
1e-08 0 0
1e-08 0 0
1e-08 0 0
1e-08 0 0
1e-08 0 0
1e-08 0 0
1e-08 0 0
1e-08 0 0
1e-08 0 0
-0.00245576 -0.00592127 0
1e-08 0 0
1e-08 0 0
1e-08 0 0
1e-08 0 0
1e-08 0 0
-0.00437653 0.00178611 0
1e-08 0 0
1e-08 0 0
1e-08 0 0
1e-08 0 0
1e-08 0 0
1e-08 0 0
1e-08 0 0
1e-08 0 0
-0.00327358 -0.00565968 0
1e-08 0 0
1e-08 0 0
1e-08 0 0
1e-08 0 0
-0.00769604 0.00201157 0
1e-08 0 0
1e-08 0 0
1e-08 0 0
1e-08 0 0
1e-08 0 0
1e-08 0 0
-0.00360131 -0.00471779 0
1e-08 0 0
1e-08 0 0
1e-08 0 0
-0.00552071 0.000708534 0
1e-08 0 0
1e-08 0 0
1e-08 0 0
1e-08 0 0
1e-08 0 0
1e-08 0 0
-0.00516949 -0.00518826 0
1e-08 0 0
1e-08 0 0
-0.00468366 3.74767e-05 0
1e-08 0 0
1e-08 0 0
1e-08 0 0
1e-08 0 0
-0.00499949 -0.0038277 0
1e-08 0 0
-0.0103838 -0.00134789 0
1e-08 0 0
1e-08 0 0
-0.00521913 -0.00303013 0
-0.00458765 -0.00125664 0
-0.00678129 -0.00281772 0
