# vtk DataFile Version 2.0
CellBP Time: 0.76
ASCII
DATASET UNSTRUCTURED_GRID
POINTS 296 double
-9.16061 -3.76526 0
-8.58367 -4.93475 0
-9.57894 -2.53013 0
-9.83189 -1.25074 0
-8.35499 -2.8175 0
-7.85958 -6.01936 0
-6.99925 -6.99945 0
-7.91464 -3.87347 0
-7.34037 -4.86614 0
-6.0187 -7.85903 0
-4.93442 -8.58337 0
-9.93086 0.0499858 0
-9.83201 1.35078 0
-8.65527 -1.68304 0
-8.78509 -0.528649 0
-7.58744 -2.00326 0
-7.22346 -2.90541 0
-6.6355 -5.77719 0
-5.8207 -6.59506 0
-6.78808 -3.88755 0
-6.21861 -4.67435 0
-3.76468 -9.15954 0
-2.53091 -9.58221 0
-4.90506 -7.30681 0
-3.91179 -7.88416 0
-8.79155 0.642447 0
-9.57904 2.63026 0
-8.62104 1.7733 0
-9.16166 3.86569 0
-7.74241 -0.928465 0
-7.79276 0.0802904 0
-6.95092 -1.31539 0
-1.25121 -9.8334 0
-6.43991 -2.15244 0
-6.31766 -3.05521 0
-5.53481 -5.47283 0
-4.79444 -6.11361 0
-5.65757 -3.75595 0
-5.26792 -4.56025 0
-2.86516 -8.36202 0
-1.77831 -8.63815 0
-3.92693 -6.72158 0
-3.05559 -7.15066 0
0.0499338 -9.91914 0
-7.70368 1.14301 0
-8.3364 2.91454 0
-7.54977 2.11124 0
-8.58353 5.03462 0
-7.87802 3.97712 0
-7.85915 6.11897 0
-6.77723 -0.396714 0
-6.95498 0.552442 0
-5.77044 -1.00315 0
-0.590754 -8.80731 0
0.56554 -8.76852 0
-5.30215 -2.47976 0
-4.49077 -5.09436 0
-3.90138 -5.77372 0
-4.43803 -3.80399 0
-2.06176 -7.55994 0
-1.13521 -7.78372 0
-2.99366 -6.10049 0
-2.30829 -6.61804 0
1.35121 -9.83412 0
-6.68799 1.42169 0
-7.17016 3.11712 0
-6.65761 2.37231 0
-7.29289 4.98734 0
-6.71621 4.00189 0
-6.99938 7.09945 0
-6.57085 5.89264 0
-6.01894 7.95925 0
-4.45231 -1.18077 0
-5.81366 0.513693 0
-4.65536 -0.010303 0
0.00845939 -7.84586 0
1.7382 -8.64158 0
0.948702 -7.7612 0
-4.03777 -2.4059 0
-3.48484 -1.39086 0
-3.29379 -4.80442 0
-3.26521 -3.26713 0
-1.37817 -6.67387 0
-0.508622 -7.02321 0
-1.97508 -5.53598 0
2.6302 -9.57944 0
-5.50645 2.03655 0
-6.09331 3.07139 0
-6.10341 4.86824 0
-5.76028 3.99043 0
-5.75993 6.71552 0
-5.45064 5.61782 0
-4.93467 8.68376 0
-4.83733 7.40284 0
-3.50083 -0.424151 0
-4.44854 1.24885 0
-3.71078 0.592028 0
-4.0615 2.31942 0
-3.76501 9.26035 0
2.86197 -8.33072 0
0.419623 -6.79377 0
2.0215 -7.5238 0
1.30576 -6.9038 0
-2.44418 -0.873604 0
-2.8378 -2.13067 0
-2.29391 -4.09662 0
-2.32513 -2.97298 0
-0.442193 -5.8601 0
-1.22242 -4.49834 0
3.86535 -9.16136 0
-4.78904 3.39121 0
-5.08677 4.59305 0
-4.64595 6.27978 0
-4.53775 5.35837 0
-3.84284 7.99162 0
-3.82573 6.84399 0
-2.78255 8.42113 0
-1.64861 -0.13783 0
-1.44989 -0.890358 0
-2.48864 0.507228 0
-3.25302 1.44393 0
-3.23849 3.31601 0
-2.91041 2.37134 0
-1.35475 0.627002 0
-2.53007 9.67919 0
3.932 -7.88503 0
2.96398 -7.15591 0
0.954018 -5.82091 0
2.07392 -6.41395 0
-1.68261 -1.99166 0
-1.43411 -3.27714 0
0.0903184 -4.74621 0
-0.56601 -3.69377 0
4.93139 -7.3171 0
5.03423 -8.58345 0
-3.77638 4.55089 0
-3.73393 5.75084 0
-2.88721 7.28814 0
-3.00899 6.35226 0
-1.6619 8.73236 0
-1.93952 7.6178 0
-2.338 4.05102 0
-0.730526 -1.32694 0
-0.836656 -0.257543 0
-1.93581 1.68051 0
-2.12534 2.87533 0
-1.30628 3.54402 0
-0.86922 1.35057 0
-0.282244 0.455934 0
-0.533428 8.87063 0
-1.25157 9.93679 0
1.11271 -4.57386 0
3.90953 -6.71562 0
2.98745 -6.09325 0
2.11766 -5.42394 0
4.78379 -6.20386 0
-0.558709 -2.47633 0
0.49513 -3.46323 0
0.0536086 -1.61014 0
1.48175 -3.68146 0
5.86655 -6.61322 0
6.11828 -7.85868 0
-2.47534 5.34769 0
-2.12999 6.53317 0
-0.903784 7.80193 0
-1.27202 6.93072 0
0.0861449 7.87897 0
-1.14426 4.494 0
0.150336 -0.617553 0
-0.79722 2.48808 0
-0.33151 3.60006 0
0.0631779 1.51242 0
0.741366 0.473307 0
0.646325 8.87299 0
0.0499655 10.0224 0
2.38078 -4.28463 0
3.85875 -5.63924 0
3.0011 -5.21188 0
5.57331 -5.49081 0
4.69061 -5.28214 0
0.629644 -2.29296 0
1.25605 -2.95079 0
0.757368 -1.3912 0
2.16408 -3.13537 0
2.99341 -3.47607 0
6.15471 -4.79117 0
6.65611 -5.76839 0
7.09921 -6.99909 0
-1.0195 5.81961 0
-0.372504 6.88249 0
1.12232 7.76814 0
0.557875 7.07863 0
-0.000728256 4.72448 0
0.606959 3.82713 0
1.33873 -0.641814 0
0.539089 2.65059 0
0.966003 1.57461 0
1.90993 0.21378 0
1.61455 1.06477 0
2.12907 7.58224 0
1.79876 8.71099 0
1.35113 9.9338 0
3.82252 -4.3511 0
5.11618 -4.4485 0
5.84526 -3.93476 0
3.78362 -3.20072 0
1.81205 -1.88242 0
3.01881 -2.57365 0
6.78287 -3.94778 0
7.38146 -4.89736 0
7.96776 -6.02543 0
0.48331 5.88095 0
1.428 6.74097 0
2.37398 6.66804 0
1.20987 4.55559 0
1.48802 3.39707 0
2.43547 -0.691947 0
2.82764 0.142518 0
1.7887 2.16247 0
2.61156 1.1499 0
3.07158 7.16903 0
2.90424 8.37589 0
2.63048 9.68029 0
4.91103 -3.32771 0
6.12029 -3.10859 0
4.17253 -2.27516 0
3.2441 -1.50284 0
6.73079 -2.31301 0
7.23135 -3.04248 0
7.96453 -3.91239 0
8.68723 -4.93683 0
2.0235 5.5994 0
3.08621 6.1529 0
2.36376 4.12647 0
2.41984 3.06041 0
3.52529 -0.460886 0
3.6153 0.613153 0
2.96153 2.28773 0
3.54522 1.52503 0
4.01187 5.8976 0
3.98417 6.79262 0
3.97309 7.9386 0
3.8667 9.26419 0
5.56873 -1.91619 0
4.509 -1.12963 0
6.71368 -1.33618 0
7.59198 -2.03651 0
8.3969 -2.86175 0
9.26564 -3.7672 0
3.41909 4.87686 0
3.33886 3.38511 0
4.69112 0.130005 0
4.51902 1.30985 0
4.0652 2.44362 0
4.57059 5.15236 0
4.84362 6.1906 0
4.98042 7.38049 0
5.0345 8.68347 0
5.8836 -0.434948 0
7.01092 -0.488301 0
7.75951 -1.08531 0
8.68471 -1.74611 0
9.67864 -2.53005 0
4.55265 3.82763 0
5.81808 1.09861 0
5.37159 2.53502 0
5.38044 4.62074 0
5.61259 5.52368 0
5.89764 6.67216 0
6.11877 7.95901 0
6.84657 0.463538 0
7.8538 -0.0256786 0
8.86101 -0.584041 0
9.9341 -1.25114 0
6.96111 1.34952 0
5.72168 3.77872 0
6.54214 2.19767 0
6.38091 3.08825 0
6.29316 4.68736 0
6.69421 5.83839 0
7.09909 7.09907 0
7.78513 0.967613 0
8.86058 0.572628 0
10.0225 0.0501401 0
7.61706 2.00446 0
6.83013 3.90471 0
7.27045 2.94714 0
7.37945 4.88661 0
7.96212 6.12126 0
8.72399 1.72705 0
9.93322 1.35119 0
8.42216 2.83834 0
7.98295 3.91678 0
8.68311 5.03429 0
9.68039 2.63061 0
9.26709 3.86791 0
CELLS 542 2168
3 2 0 4
3 0 1 7
3 4 0 7
3 1 5 8
3 7 1 8
3 3 2 13
3 13 2 4
3 11 3 14
3 14 3 13
3 13 4 15
3 4 7 16
3 15 4 16
3 5 6 17
3 8 5 17
3 6 9 18
3 17 6 18
3 7 8 19
3 16 7 19
3 8 17 20
3 19 8 20
3 9 10 23
3 18 9 23
3 10 21 24
3 23 10 24
3 12 11 25
3 25 11 14
3 26 12 27
3 27 12 25
3 14 13 29
3 29 13 15
3 25 14 30
3 30 14 29
3 29 15 31
3 15 16 33
3 31 15 33
3 16 19 34
3 33 16 34
3 17 18 35
3 20 17 35
3 18 23 36
3 35 18 36
3 19 20 37
3 34 19 37
3 20 35 38
3 37 20 38
3 21 22 39
3 24 21 39
3 22 32 40
3 39 22 40
3 23 24 41
3 36 23 41
3 24 39 42
3 41 24 42
3 27 25 44
3 44 25 30
3 28 26 45
3 45 26 27
3 45 27 46
3 46 27 44
3 47 28 48
3 48 28 45
3 30 29 50
3 50 29 31
3 44 30 51
3 51 30 50
3 50 31 52
3 31 33 52
3 32 43 53
3 40 32 53
3 53 43 54
3 33 34 55
3 34 37 55
3 33 55 52
3 35 36 56
3 38 35 56
3 36 41 57
3 56 36 57
3 37 38 58
3 38 56 58
3 37 58 55
3 39 40 59
3 42 39 59
3 40 53 60
3 59 40 60
3 41 42 61
3 57 41 61
3 42 59 62
3 61 42 62
3 43 63 54
3 46 44 64
3 64 44 51
3 48 45 65
3 65 45 46
3 65 46 66
3 66 46 64
3 49 47 67
3 67 47 48
3 67 48 68
3 68 48 65
3 69 49 70
3 70 49 67
3 52 55 72
3 64 51 73
3 51 50 73
3 50 52 73
3 73 52 74
3 74 52 72
3 53 54 75
3 60 53 75
3 54 63 76
3 54 76 77
3 75 54 77
3 55 58 78
3 72 55 78
3 72 78 79
3 56 57 80
3 57 61 80
3 56 80 58
3 58 80 81
3 78 58 81
3 59 60 82
3 62 59 82
3 60 75 83
3 82 60 83
3 61 62 84
3 62 82 84
3 61 84 80
3 63 85 76
3 66 64 86
3 64 73 86
3 68 65 87
3 87 65 66
3 87 66 86
3 70 67 88
3 88 67 68
3 88 68 89
3 89 68 87
3 71 69 90
3 90 69 70
3 90 70 91
3 91 70 88
3 92 71 93
3 93 71 90
3 74 72 94
3 94 72 79
3 86 73 95
3 95 73 74
3 95 74 96
3 96 74 94
3 97 86 95
3 76 85 99
3 75 77 100
3 83 75 100
3 76 99 101
3 77 76 101
3 77 101 102
3 100 77 102
3 94 79 103
3 78 81 104
3 79 78 104
3 79 104 103
3 80 84 105
3 81 80 105
3 81 105 106
3 104 81 106
3 82 83 107
3 83 100 107
3 82 107 84
3 84 107 108
3 105 84 108
3 85 109 99
3 89 87 110
3 87 86 110
3 110 86 97
3 91 88 111
3 111 88 89
3 111 89 110
3 93 90 112
3 112 90 91
3 112 91 113
3 113 91 111
3 98 92 114
3 114 92 93
3 114 93 115
3 115 93 112
3 116 98 114
3 117 103 118
3 96 94 119
3 94 103 119
3 119 103 117
3 97 95 120
3 120 95 96
3 120 96 119
3 121 110 97
3 121 97 122
3 122 97 120
3 123 119 117
3 124 98 116
3 99 109 125
3 99 125 126
3 101 99 126
3 100 102 127
3 100 127 107
3 101 126 128
3 102 101 128
3 102 128 127
3 104 106 129
3 104 129 103
3 103 129 118
3 105 108 130
3 106 105 130
3 106 130 129
3 107 127 131
3 108 107 131
3 108 131 132
3 108 132 130
3 109 134 125
3 125 134 133
3 113 111 135
3 111 110 135
3 135 110 121
3 115 112 136
3 136 112 113
3 136 113 135
3 116 114 137
3 137 114 115
3 137 115 138
3 138 115 136
3 139 124 116
3 139 116 140
3 140 116 137
3 141 135 121
3 118 129 142
3 118 142 143
3 117 118 143
3 123 117 143
3 122 120 144
3 120 119 144
3 144 119 123
3 141 121 145
3 145 121 122
3 145 122 144
3 146 141 145
3 147 144 123
3 147 123 148
3 143 148 123
3 150 124 139
3 149 150 139
3 131 127 151
3 125 133 152
3 126 125 152
3 126 152 153
3 128 126 153
3 128 153 154
3 128 154 127
3 127 154 151
3 152 133 155
3 130 132 156
3 130 156 129
3 129 156 142
3 131 151 157
3 132 131 157
3 132 157 156
3 156 158 142
3 157 151 159
3 133 160 155
3 134 161 133
3 133 161 160
3 138 136 162
3 136 135 162
3 162 135 141
3 140 137 163
3 163 137 138
3 163 138 162
3 149 139 164
3 164 139 140
3 164 140 165
3 165 140 163
3 166 149 164
3 167 162 141
3 167 141 146
3 142 158 168
3 143 142 168
3 143 168 148
3 146 145 169
3 145 144 169
3 169 144 147
3 170 167 146
3 170 146 169
3 171 169 147
3 171 147 148
3 171 148 172
3 168 172 148
3 173 149 166
3 174 150 149
3 173 174 149
3 154 175 151
3 151 175 159
3 152 155 176
3 153 152 176
3 153 176 177
3 153 177 154
3 154 177 175
3 155 160 178
3 155 178 179
3 176 155 179
3 156 157 180
3 156 180 158
3 157 159 181
3 157 181 180
3 158 180 182
3 158 182 168
3 159 175 183
3 159 183 181
3 175 184 183
3 160 186 178
3 178 186 185
3 161 187 160
3 160 187 186
3 165 163 188
3 163 162 188
3 188 162 167
3 166 164 189
3 189 164 165
3 189 165 188
3 190 173 166
3 190 166 191
3 191 166 189
3 192 188 167
3 192 167 170
3 193 192 170
3 182 194 168
3 194 172 168
3 193 170 195
3 170 169 195
3 195 169 171
3 196 195 171
3 196 171 172
3 194 197 172
3 197 198 172
3 198 196 172
3 200 173 190
3 199 200 190
3 201 174 173
3 200 201 173
3 176 179 202
3 177 176 202
3 177 202 175
3 175 202 184
3 178 185 203
3 178 203 179
3 179 203 202
3 203 185 204
3 202 205 184
3 183 206 181
3 180 181 206
3 180 206 182
3 182 206 194
3 183 184 207
3 205 207 184
3 183 207 206
3 185 208 204
3 186 209 185
3 185 209 208
3 187 210 186
3 186 210 209
3 191 189 211
3 189 188 211
3 211 188 192
3 199 190 212
3 212 190 191
3 212 191 211
3 213 199 212
3 214 211 192
3 214 192 193
3 215 214 193
3 215 193 195
3 206 216 194
3 216 197 194
3 216 217 197
3 215 195 218
3 218 195 196
3 198 218 196
3 217 219 197
3 219 218 198
3 197 219 198
3 220 199 213
3 221 200 199
3 220 221 199
3 222 201 200
3 221 222 200
3 203 204 223
3 203 223 202
3 202 223 205
3 204 208 224
3 204 224 223
3 205 223 225
3 205 225 207
3 207 225 226
3 207 226 206
3 226 216 206
3 208 228 224
3 224 228 227
3 209 229 208
3 229 228 208
3 210 230 209
3 209 230 229
3 213 212 231
3 212 211 231
3 231 211 214
3 232 220 213
3 232 213 231
3 233 231 214
3 233 214 215
3 234 233 215
3 234 215 218
3 226 235 216
3 235 217 216
3 235 236 217
3 217 236 219
3 237 234 218
3 237 218 219
3 236 238 219
3 238 237 219
3 240 220 232
3 239 240 232
3 241 221 220
3 240 241 220
3 242 222 221
3 241 242 221
3 224 227 243
3 224 243 223
3 223 243 225
3 225 243 244
3 225 244 226
3 226 244 235
3 227 245 243
3 228 246 227
3 227 246 245
3 229 247 228
3 228 247 246
3 230 248 229
3 229 248 247
3 239 232 249
3 232 231 249
3 249 231 233
3 250 249 233
3 250 233 234
3 237 250 234
3 244 251 235
3 235 251 236
3 251 252 236
3 236 252 238
3 252 253 238
3 253 250 237
3 253 237 238
3 254 239 249
3 255 240 239
3 254 255 239
3 256 241 240
3 255 256 240
3 257 242 241
3 256 257 241
3 245 258 243
3 243 258 244
3 244 258 251
3 245 259 258
3 246 260 245
3 245 260 259
3 247 261 246
3 246 261 260
3 248 262 247
3 247 262 261
3 254 249 263
3 263 249 250
3 253 263 250
3 258 264 251
3 251 264 252
3 264 265 252
3 265 263 253
3 252 265 253
3 266 254 263
3 267 255 254
3 266 267 254
3 268 256 255
3 267 268 255
3 269 257 256
3 268 269 256
3 259 270 258
3 270 264 258
3 260 271 259
3 259 271 270
3 261 272 260
3 260 272 271
3 262 273 261
3 273 272 261
3 270 274 264
3 275 266 263
3 275 263 265
3 274 276 264
3 276 265 264
3 276 277 265
3 277 275 265
3 278 267 266
3 275 278 266
3 279 268 267
3 278 279 267
3 280 269 268
3 279 280 268
3 271 281 270
3 270 281 274
3 272 282 271
3 271 282 281
3 273 283 272
3 272 283 282
3 281 284 274
3 274 284 276
3 285 278 275
3 277 285 275
3 284 286 276
3 286 285 277
3 276 286 277
3 287 279 278
3 285 287 278
3 288 280 279
3 287 288 279
3 282 289 281
3 281 289 284
3 283 290 282
3 282 290 289
3 289 291 284
3 284 291 286
3 291 292 286
3 292 287 285
3 286 292 285
3 293 288 287
3 292 293 287
3 290 294 289
3 289 294 291
3 294 295 291
3 295 293 292
3 291 295 292
CELL_TYPES 542
5
5
5
5
5
5
5
5
5
5
5
5
5
5
5
5
5
5
5
5
5
5
5
5
5
5
5
5
5
5
5
5
5
5
5
5
5
5
5
5
5
5
5
5
5
5
5
5
5
5
5
5
5
5
5
5
5
5
5
5
5
5
5
5
5
5
5
5
5
5
5
5
5
5
5
5
5
5
5
5
5
5
5
5
5
5
5
5
5
5
5
5
5
5
5
5
5
5
5
5
5
5
5
5
5
5
5
5
5
5
5
5
5
5
5
5
5
5
5
5
5
5
5
5
5
5
5
5
5
5
5
5
5
5
5
5
5
5
5
5
5
5
5
5
5
5
5
5
5
5
5
5
5
5
5
5
5
5
5
5
5
5
5
5
5
5
5
5
5
5
5
5
5
5
5
5
5
5
5
5
5
5
5
5
5
5
5
5
5
5
5
5
5
5
5
5
5
5
5
5
5
5
5
5
5
5
5
5
5
5
5
5
5
5
5
5
5
5
5
5
5
5
5
5
5
5
5
5
5
5
5
5
5
5
5
5
5
5
5
5
5
5
5
5
5
5
5
5
5
5
5
5
5
5
5
5
5
5
5
5
5
5
5
5
5
5
5
5
5
5
5
5
5
5
5
5
5
5
5
5
5
5
5
5
5
5
5
5
5
5
5
5
5
5
5
5
5
5
5
5
5
5
5
5
5
5
5
5
5
5
5
5
5
5
5
5
5
5
5
5
5
5
5
5
5
5
5
5
5
5
5
5
5
5
5
5
5
5
5
5
5
5
5
5
5
5
5
5
5
5
5
5
5
5
5
5
5
5
5
5
5
5
5
5
5
5
5
5
5
5
5
5
5
5
5
5
5
5
5
5
5
5
5
5
5
5
5
5
5
5
5
5
5
5
5
5
5
5
5
5
5
5
5
5
5
5
5
5
5
5
5
5
5
5
5
5
5
5
5
5
5
5
5
5
5
5
5
5
5
5
5
5
5
5
5
5
5
5
5
5
5
5
5
5
5
5
5
5
5
5
5
5
5
5
5
5
5
5
5
5
5
5
5
5
5
5
5
5
5
5
5
5
5
5
5
5
5
5
5
5
5
5
5
5
5
5
5
5
5
5
5
5
5
5
5
5
5
5
5
5
5
5
5
5
5
5
5
5
5
5
5
5
5
5
5
5
5
5
5
5
5
5
5
5
5
5
5
5
5
5
5
5
5
5
5
5
5
5
5
5
5
5
POINT_DATA 296
SCALARS concentrations float 4
LOOKUP_TABLE default
0 0.992316 0.122901 7.26874
0 0.992164 0.130591 6.00871
0 0.99213 0.130387 6.39757
0 0.992078 0.130066 6.6665
0 0.992491 0.0936824 0.711503
0 0.992305 0.122588 7.2146
0 0.992129 0.130063 6.34977
0 0.992454 0.0935852 0.743588
0 0.992439 0.0935744 0.732378
0 0.992096 0.129943 6.65558
0 0.992162 0.129911 6.76415
0 0.992095 0.129496 6.62785
0 0.992083 0.129638 6.63405
0 0.992436 0.0932086 0.515957
0 0.992472 0.0931329 0.437479
0 0.993208 0.0933093 0.544681
0 0.993085 0.093268 0.596873
0 0.992487 0.0936425 0.690291
0 0.992439 0.0931718 0.493898
0 0.993072 0.093308 0.625124
0 0.993073 0.093254 0.583541
0 0.992128 0.130598 7.14066
0 0.991887 0.124532 4.07793
0 0.992542 0.0931339 0.420069
0 0.992618 0.0931329 0.386106
0 0.992499 0.0931313 0.406536
0 0.99206 0.129318 6.57494
0 0.992468 0.0931502 0.394155
0 0.992049 0.128597 6.70274
0 0.993271 0.0932451 0.469484
0 0.993337 0.093193 0.426619
0 0.994059 0.0929026 0.385606
0 0.992105 0.130023 7.02531
0 0.994125 0.0927503 0.369953
0 0.993898 0.0928941 0.412715
0 0.993192 0.093276 0.520453
0 0.993304 0.0932055 0.445411
0 0.994066 0.092764 0.371594
0 0.993943 0.0929325 0.403372
0 0.992535 0.0930068 0.262512
0 0.992482 0.0929642 0.192612
0 0.993453 0.093199 0.393326
0 0.9935 0.0931309 0.295757
0 0.992164 0.12956 6.65823
0 0.993335 0.0932573 0.421636
0 0.99246 0.0931841 0.399501
0 0.993315 0.0932967 0.421141
0 0.99206 0.129293 6.57652
0 0.992453 0.0931569 0.398629
0 0.99208 0.129196 6.56231
0 0.994222 0.0928042 0.358477
0 0.994102 0.092944 0.375977
0 0.994793 0.0921813 0.256209
0 0.992609 0.0931844 0.374176
0 0.992553 0.0931593 0.403058
0 0.994782 0.0921813 0.256203
0 0.994192 0.0928264 0.357778
0 0.994149 0.092948 0.369512
0 0.994789 0.0922179 0.260461
0 0.993549 0.0930828 0.220818
0 0.993501 0.0931139 0.259671
0 0.994343 0.0928525 0.329037
0 0.994259 0.0929536 0.302651
0 0.992138 0.129091 6.55708
0 0.994222 0.0927985 0.340328
0 0.993294 0.0932577 0.414249
0 0.994072 0.0929524 0.359477
0 0.992475 0.0931083 0.393293
0 0.99331 0.0932155 0.409446
0 0.992096 0.129142 6.55669
0 0.992478 0.0930925 0.401097
0 0.992117 0.129173 6.56943
0 0.995249 0.0919188 0.226864
0 0.994779 0.0921929 0.244259
0 0.995229 0.0919276 0.20872
0 0.993469 0.0932214 0.399198
0 0.992556 0.0931269 0.419569
0 0.993395 0.0932315 0.444767
0 0.995267 0.0919242 0.235909
0 0.995603 0.0917939 0.210588
0 0.994827 0.0922373 0.26295
0 0.995251 0.0919539 0.235827
0 0.994359 0.0927526 0.281596
0 0.99418 0.0928457 0.312487
0 0.994845 0.0922434 0.247001
0 0.992145 0.129381 6.60707
0 0.994746 0.0921669 0.216959
0 0.99419 0.0928075 0.333002
0 0.993309 0.0932386 0.421674
0 0.994065 0.0929536 0.364631
0 0.992501 0.0930844 0.408575
0 0.993322 0.0932334 0.429285
0 0.992174 0.129148 6.57076
0 0.992538 0.0930734 0.404134
0 0.995644 0.0917312 0.180919
0 0.995188 0.0919384 0.184783
0 0.995587 0.0917917 0.170974
0 0.995192 0.0919248 0.175536
0 0.992286 0.129403 6.66036
0 0.992589 0.0932958 0.569312
0 0.994232 0.0928153 0.360983
0 0.99339 0.0931612 0.526874
0 0.994076 0.0929369 0.443753
0 0.995874 0.0915141 0.137293
0 0.99565 0.0917433 0.197471
0 0.995244 0.0919636 0.221548
0 0.995596 0.0918247 0.204449
0 0.994812 0.092244 0.240227
0 0.995237 0.0919422 0.199254
0 0.992201 0.126734 6.82156
0 0.994756 0.0921783 0.221559
0 0.994208 0.0928445 0.352484
0 0.993336 0.0932235 0.431065
0 0.994078 0.0930065 0.389178
0 0.992647 0.093077 0.387895
0 0.993418 0.0932061 0.419777
0 0.992787 0.0930339 0.351259
0 0.996073 0.0913948 0.100722
0 0.996078 0.091384 0.09829
0 0.995884 0.0914991 0.117207
0 0.995637 0.0917483 0.151526
0 0.995194 0.0919189 0.182603
0 0.995588 0.091818 0.162938
0 0.996125 0.0913223 0.0842412
0 0.992338 0.129613 7.0161
0 0.992605 0.0933404 0.572393
0 0.993429 0.0930873 0.529789
0 0.994761 0.0923201 0.282512
0 0.994178 0.0928459 0.440644
0 0.995892 0.091519 0.130989
0 0.995649 0.0917542 0.171217
0 0.995265 0.0919341 0.188148
0 0.995622 0.0917476 0.156701
0 0.992562 0.0931315 0.3928
0 0.992163 0.129402 6.58415
0 0.994778 0.0921864 0.237099
0 0.994244 0.0928513 0.361439
0 0.993564 0.093175 0.378787
0 0.994193 0.092951 0.370325
0 0.992782 0.0929172 0.312944
0 0.993722 0.0930385 0.249051
0 0.995224 0.091911 0.191295
0 0.996141 0.0913146 0.0774488
0 0.996227 0.0911629 0.0515765
0 0.995909 0.0914959 0.111278
0 0.99566 0.0917488 0.157532
0 0.995613 0.0918157 0.178526
0 0.996125 0.0913004 0.080167
0 0.996256 0.0910481 0.0333747
0 0.992682 0.0928247 0.20958
0 0.992113 0.12401 4.35674
0 0.995245 0.091941 0.187328
0 0.993427 0.0931495 0.516598
0 0.994139 0.0929208 0.457209
0 0.994811 0.0923203 0.295886
0 0.993373 0.0931902 0.415702
0 0.99593 0.0915151 0.113262
0 0.995711 0.0917121 0.140802
0 0.996165 0.0913255 0.0774876
0 0.995574 0.0919075 0.167685
0 0.992553 0.0931056 0.358653
0 0.992149 0.129426 6.55902
0 0.994839 0.0921677 0.238729
0 0.994441 0.0927778 0.306019
0 0.993805 0.0928999 0.10423
0 0.994461 0.0928499 0.241485
0 0.993777 0.0929276 0.122095
0 0.995249 0.0919154 0.200961
0 0.99627 0.0910334 0.0244848
0 0.995927 0.091476 0.11386
0 0.995676 0.0917648 0.178005
0 0.996152 0.0912492 0.0712119
0 0.996251 0.0910642 0.0359189
0 0.992802 0.0929176 0.353131
0 0.992143 0.123745 4.26354
0 0.995185 0.091992 0.188964
0 0.994167 0.0928214 0.398667
0 0.994708 0.0924038 0.30466
0 0.993385 0.093194 0.38624
0 0.994115 0.0928249 0.342986
0 0.996028 0.0914543 0.0972651
0 0.995894 0.0916055 0.115789
0 0.996188 0.0912922 0.0757575
0 0.995695 0.0917915 0.144917
0 0.995327 0.0920477 0.191234
0 0.993411 0.0931804 0.387475
0 0.992555 0.0930672 0.351789
0 0.992164 0.128114 6.56247
0 0.994936 0.0921513 0.223231
0 0.994593 0.0926964 0.212269
0 0.993696 0.0930957 0.304469
0 0.994453 0.0928284 0.232586
0 0.99529 0.091939 0.213441
0 0.995639 0.0918335 0.200325
0 0.996206 0.0912105 0.0675942
0 0.995931 0.0914865 0.123681
0 0.996128 0.0913161 0.0839358
0 0.996152 0.0913101 0.0873989
0 0.996128 0.0913443 0.0891954
0 0.9936 0.0930705 0.332679
0 0.992974 0.0933767 0.520507
0 0.992504 0.129801 6.74938
0 0.994779 0.0922351 0.232284
0 0.994261 0.0927537 0.320279
0 0.994167 0.09295 0.359136
0 0.995207 0.0920589 0.202346
0 0.995988 0.0914508 0.102405
0 0.99567 0.0917905 0.15784
0 0.993436 0.0931678 0.410808
0 0.992607 0.0930606 0.376726
0 0.992194 0.129147 6.52152
0 0.994956 0.0921341 0.217164
0 0.994468 0.0927109 0.275488
0 0.994305 0.0929236 0.314254
0 0.995297 0.09193 0.216676
0 0.995686 0.0917754 0.1884
0 0.996025 0.0914841 0.122888
0 0.995963 0.0916106 0.14757
0 0.995918 0.0915368 0.129462
0 0.99593 0.0915802 0.133049
0 0.993558 0.0930931 0.31345
0 0.992783 0.093117 0.386091
0 0.99264 0.121808 7.53353
0 0.994828 0.0922532 0.238714
0 0.994341 0.092741 0.332809
0 0.995336 0.0919504 0.19896
0 0.995763 0.0916851 0.158153
0 0.994243 0.0928443 0.360245
0 0.993442 0.0931943 0.451482
0 0.992625 0.0930864 0.426683
0 0.992227 0.12989 6.67617
0 0.994936 0.0921343 0.228037
0 0.994447 0.0927809 0.296259
0 0.995293 0.0919117 0.212197
0 0.995625 0.0918436 0.193851
0 0.995726 0.0917476 0.177517
0 0.995686 0.0917996 0.179893
0 0.995665 0.0918014 0.172796
0 0.995615 0.0918565 0.180051
0 0.99437 0.0929016 0.320834
0 0.993596 0.0930691 0.301064
0 0.992663 0.0927073 0.211883
0 0.9922 0.12278 3.51778
0 0.994911 0.0921474 0.232014
0 0.995386 0.0918633 0.195061
0 0.994372 0.0927064 0.316099
0 0.993467 0.0932362 0.482779
0 0.992658 0.0930929 0.47982
0 0.992261 0.13011 6.65607
0 0.994927 0.0921438 0.233278
0 0.995269 0.0919259 0.200407
0 0.995368 0.0918455 0.188686
0 0.995294 0.0918804 0.181503
0 0.995261 0.0919022 0.180735
0 0.99448 0.0927613 0.304992
0 0.99368 0.0931267 0.353284
0 0.992828 0.0929604 0.353947
0 0.992335 0.129452 6.8819
0 0.994966 0.0921564 0.222597
0 0.994274 0.0928332 0.298718
0 0.993479 0.0930722 0.389475
0 0.992797 0.0933767 0.550019
0 0.992384 0.129691 6.34495
0 0.994909 0.0921598 0.22174
0 0.99495 0.0921376 0.20871
0 0.99491 0.092133 0.207308
0 0.994371 0.0928765 0.286733
0 0.993687 0.0930343 0.265588
0 0.992861 0.0929646 0.334552
0 0.992432 0.12943 6.73322
0 0.994449 0.0927357 0.263303
0 0.993565 0.0930449 0.28881
0 0.992736 0.0932813 0.478688
0 0.992562 0.122193 7.49679
0 0.99435 0.0928843 0.294816
0 0.994453 0.0927541 0.276295
0 0.994453 0.0927702 0.306045
0 0.994334 0.0929017 0.30802
0 0.993675 0.0930355 0.218152
0 0.992736 0.0927827 0.21072
0 0.992371 0.129369 6.91367
0 0.993569 0.0930383 0.26242
0 0.992634 0.0927244 0.168429
0 0.992174 0.123653 3.61093
0 0.993629 0.093136 0.35192
0 0.993648 0.0930776 0.263697
0 0.993628 0.0931506 0.35632
0 0.992698 0.0927718 0.207375
0 0.992167 0.122387 3.74889
0 0.99278 0.093006 0.343073
0 0.992303 0.129773 6.89295
0 0.9928 0.0930261 0.347744
0 0.992814 0.0929724 0.326501
0 0.992348 0.128897 6.80828
0 0.992377 0.128458 6.7452
0 0.99239 0.128977 6.5793
VECTORS fa_u float
0.00671476 0.00278328 0
0.00521301 0.00298815 0
0.00615995 0.00172743 0
0.00660071 0.000934244 0
0.000602943 0.000377752 0
0.00574331 0.00436634 0
0.00456021 0.0044186 0
0.000702091 0.00024493 0
0.000559163 0.000472985 0
0.00409533 0.00524643 0
0.003414 0.00583938 0
0.00662785 2.03715e-06 0
0.00657293 -0.000898403 0
0.000485378 0.000174986 0
0.000434105 5.42277e-05 0
0.000512773 0.000183687 0
0.000549421 0.000233225 0
0.000611473 0.000320316 0
0.00038442 0.000310091 0
0.000542571 0.000310478 0
0.000470237 0.000345539 0
0.00276297 0.00658446 0
0.00107882 0.00393264 0
0.000279884 0.000313245 0
0.000280114 0.000265732 0
0.000406251 -1.52197e-05 0
0.00635568 -0.00168382 0
0.000387663 -7.12433e-05 0
0.00619587 -0.00255693 0
0.000462075 8.30764e-05 0
0.00042564 2.8884e-05 0
0.000374824 9.05461e-05 0
0.000880735 0.00696988 0
0.000347006 0.000128265 0
0.000373666 0.000175235 0
0.000393959 0.0003401 0
0.0002995 0.000329683 0
0.000308897 0.000206554 0
0.000309162 0.000259091 0
0.000260051 3.58626e-05 0
-0.000167379 9.53072e-05 0
0.000252221 0.000301811 0
0.000215911 0.000202124 0
-4.91262e-05 0.00665805 0
0.000420553 -3.02035e-05 0
0.000375604 -0.000136099 0
0.000411159 -9.11476e-05 0
0.00569711 -0.00328535 0
0.000360827 -0.000169437 0
0.00521511 -0.00398328 0
0.000354922 5.03617e-05 0
0.000375529 1.83559e-05 0
0.00024418 7.75825e-05 0
-0.00010806 0.000358232 0
-0.000100681 0.000390281 0
0.000230014 0.000112844 0
0.000249707 0.000256226 0
0.000234125 0.000285875 0
0.000211198 0.000152431 0
9.19519e-05 0.000200763 0
-4.80334e-05 0.00025519 0
0.000198804 0.000262187 0
0.000151767 0.000261848 0
-0.000877036 0.00649816 0
0.000339213 -2.75306e-05 0
0.000381389 -0.000161695 0
0.000343508 -0.000105955 0
0.000325615 -0.000220577 0
0.000351872 -0.000209361 0
0.00464588 -0.00462666 0
0.000295953 -0.000270722 0
0.00400458 -0.00520777 0
0.000210899 8.35992e-05 0
0.000243312 2.14961e-05 0
0.000204293 4.27597e-05 0
-8.15706e-05 0.000390776 0
-0.000128819 0.000399304 0
-0.000115726 0.000429447 0
0.000204251 0.000118043 0
0.000191379 8.78709e-05 0
0.000184082 0.000187767 0
0.000184384 0.000147027 0
7.52015e-05 0.000271369 0
-1.24804e-05 0.000312237 0
0.000123628 0.000213836 0
-0.00166062 0.00639498 0
0.00020847 -6.00954e-05 0
0.000295539 -0.00015345 0
0.00032433 -0.000269479 0
0.000295248 -0.000213974 0
0.000261881 -0.000313611 0
0.000293234 -0.000313527 0
0.00329178 -0.00568675 0
0.000224294 -0.000336179 0
0.000174644 4.72365e-05 0
0.000183302 -2.33517e-05 0
0.000170962 2.05934e-06 0
0.000154456 -8.34042e-05 0
0.00256921 -0.00614488 0
-0.000229679 0.000520925 0
-5.33583e-05 0.000357017 0
-0.00019563 0.000489209 0
-0.000129302 0.000424497 0
0.000127788 5.01948e-05 0
0.000163553 0.000110659 0
0.00014066 0.000171167 0
0.000145326 0.000143804 0
3.97489e-05 0.000236915 0
8.01072e-05 0.000182441 0
-0.00262498 0.00629628 0
0.000174169 -0.000136944 0
0.000251642 -0.000246822 0
0.000250242 -0.000350993 0
0.000239838 -0.000306491 0
0.000203243 -0.000330385 0
0.000212473 -0.000362033 0
0.00024098 -0.000255562 0
9.99267e-05 1.26346e-05 0
8.5577e-05 4.83476e-05 0
0.000117007 -6.84448e-06 0
0.000143702 -4.80598e-05 0
0.000124514 -0.000133568 0
0.000129885 -9.83803e-05 0
7.9923e-05 -2.66248e-05 0
0.00186044 -0.00676494 0
-0.000171458 0.000546109 0
-0.000179498 0.000498454 0
-3.71128e-05 0.000280064 0
-0.000138553 0.000418294 0
9.24542e-05 9.27915e-05 0
8.54469e-05 0.000148372 0
1.76973e-05 0.000187313 0
3.78129e-05 0.00015207 0
-0.000158322 0.00035948 0
-0.00337034 0.00565613 0
0.000139562 -0.000191673 0
0.000186272 -0.000309743 0
0.000187749 -0.000328984 0
0.000159196 -0.000334361 0
0.000309861 4.38219e-05 0
0.000179595 -0.000172546 0
8.90884e-05 -0.000169284 0
4.0155e-05 6.62261e-05 0
4.92794e-05 1.52207e-05 0
9.13924e-05 -6.34848e-05 0
9.68571e-05 -0.000124238 0
6.42517e-05 -0.000166563 0
5.22804e-05 -6.07742e-05 0
2.14891e-05 -2.5536e-05 0
-1.21796e-05 0.000209225 0
0.000600248 -0.00431519 0
-3.06348e-05 0.000184806 0
-0.000165097 0.000489506 0
-0.000153911 0.000430525 0
-7.90104e-05 0.000285142 0
-0.000191455 0.000368989 0
2.81686e-05 0.000109704 0
-6.63406e-06 0.000140646 0
-1.18383e-06 7.74785e-05 0
-5.01855e-05 0.000159999 0
-0.000215979 0.000286331 0
-0.00401239 0.00518858 0
8.70291e-05 -0.000222301 0
0.000113266 -0.000284286 0
9.32517e-05 -4.65625e-05 0
8.36611e-05 -0.00022653 0
-8.20962e-05 -9.03737e-05 0
4.13549e-05 -0.000196659 0
-8.13577e-06 2.30936e-05 0
4.53787e-05 -0.000104426 0
2.31698e-05 -0.000176491 0
1.04287e-05 -7.04441e-05 0
-2.77957e-05 -2.275e-05 0
-0.000343882 -8.02891e-05 0
-3.41649e-05 -0.0042634 0
-8.55e-05 0.000168514 0
-0.000158372 0.000365861 0
-0.000131289 0.00027492 0
-0.000269662 0.000276521 0
-0.000204553 0.000275313 0
-2.39772e-05 9.42635e-05 0
-4.74518e-05 0.000105619 0
-4.57541e-05 6.03802e-05 0
-9.156e-05 0.000112328 0
-0.000136299 0.000134138 0
-0.000312256 0.000229418 0
-0.00025544 0.000241879 0
-0.00462126 0.00465939 0
2.8664e-05 -0.000221383 0
1.81015e-05 -0.000211496 0
-0.00015019 -0.000264847 0
-4.95661e-05 -0.000227243 0
-4.64994e-06 -0.000213391 0
-2.47098e-05 -0.000198795 0
-6.2974e-05 2.4561e-05 0
-1.27728e-05 -0.00012302 0
-3.05354e-05 -7.81845e-05 0
-8.65054e-05 -1.2465e-05 0
-6.88489e-05 -5.67067e-05 0
-6.33068e-05 -0.0003266 0
-0.000269117 -0.000445538 0
-0.000985046 -0.00667711 0
-0.000157396 0.000170828 0
-0.000255444 0.000193202 0
-0.000311207 0.000179245 0
-0.000173638 0.000103894 0
-8.47445e-05 5.74912e-05 0
-0.000139707 7.3454e-05 0
-0.000361438 0.000195259 0
-0.000311278 0.000212199 0
-0.00516725 0.00397866 0
-2.9128e-05 -0.000215202 0
-6.47994e-05 -0.000267759 0
-0.000105332 -0.000296075 0
-5.21681e-05 -0.000210302 0
-6.11866e-05 -0.000178188 0
-0.000119525 2.85541e-05 0
-0.000147348 -8.09039e-06 0
-7.03591e-05 -0.000108674 0
-0.000119679 -5.8129e-05 0
-0.000113034 -0.00029236 0
0.000178051 -0.000342584 0
-0.00193244 -0.00728147 0
-0.000216256 0.000101082 0
-0.000305688 0.000131594 0
-0.000190628 5.69739e-05 0
-0.000153861 3.65944e-05 0
-0.000338756 0.000122559 0
-0.000415612 0.00017636 0
-0.000383404 0.000187244 0
-0.00578273 0.00333635 0
-7.2987e-05 -0.000216042 0
-0.000134261 -0.00026409 0
-8.5273e-05 -0.00019431 0
-9.91533e-05 -0.000166574 0
-0.000176945 1.42371e-05 0
-0.00017855 -2.19379e-05 0
-0.000126553 -0.000117655 0
-0.00016657 -6.83576e-05 0
-0.00018422 -0.000262673 0
-0.000195067 -0.000229322 0
-0.000191315 -9.10661e-05 0
-0.00128977 -0.00327281 0
-0.000223967 6.05746e-05 0
-0.000192396 3.21343e-05 0
-0.00030491 8.3356e-05 0
-0.000461059 0.000143178 0
-0.000461415 0.00013162 0
-0.00615574 0.00253182 0
-0.000114464 -0.000203265 0
-0.000119145 -0.000161144 0
-0.00018864 4.12647e-06 0
-0.000176952 -4.03889e-05 0
-0.000148604 -0.000102869 0
-0.000168689 -0.000254095 0
-0.000201329 -0.000290303 0
-0.000246344 -0.000254152 0
-0.0034418 -0.00595941 0
-0.000220391 3.12636e-05 0
-0.00029455 4.97239e-05 0
-0.000360943 0.000146325 0
-0.000543145 8.66906e-05 0
-0.00614694 0.00157275 0
-0.000149755 -0.000163529 0
-0.000207524 -2.22165e-05 0
-0.00018873 -8.57765e-05 0
-0.000185864 -0.000218336 0
-0.000100476 -0.000245849 0
-0.000142624 -0.000302627 0
-0.00410075 -0.00534042 0
-0.000262908 -1.44291e-05 0
-0.000285764 4.18312e-05 0
-0.000303712 0.000370002 0
-0.00743134 0.000988451 0
-0.000283225 -8.18553e-05 0
-0.000224504 -0.000161048 0
-0.000291367 -9.36405e-05 0