# vtk DataFile Version 2.0
CellBP Time: 0.32
ASCII
DATASET UNSTRUCTURED_GRID
POINTS 296 double
-9.19749 -3.77936 0
-8.61867 -4.95319 0
-9.61837 -2.5416 0
-9.87238 -1.25876 0
-8.36664 -2.82415 0
-7.89141 -6.04322 0
-7.02865 -7.02455 0
-7.92627 -3.88146 0
-7.35194 -4.87289 0
-6.04349 -7.88481 0
-4.95487 -8.61561 0
-9.95622 0.0485445 0
-9.86827 1.35367 0
-8.66598 -1.68703 0
-8.79383 -0.530031 0
-7.60025 -2.0036 0
-7.23473 -2.91079 0
-6.64532 -5.78197 0
-5.82762 -6.59836 0
-6.79945 -3.89608 0
-6.22879 -4.68198 0
-3.78128 -9.19027 0
-2.53799 -9.61907 0
-4.91337 -7.31806 0
-3.91579 -7.89094 0
-8.79957 0.644422 0
-9.61445 2.63813 0
-8.62752 1.7752 0
-9.19286 3.87578 0
-7.75585 -0.926718 0
-7.8008 0.0782294 0
-6.96167 -1.31589 0
-1.25722 -9.87375 0
-6.44889 -2.15562 0
-6.32852 -3.06258 0
-5.54292 -5.47893 0
-4.80231 -6.1242 0
-5.66678 -3.76537 0
-5.27715 -4.5679 0
-2.86898 -8.3688 0
-1.78094 -8.64577 0
-3.93171 -6.72993 0
-3.06289 -7.15505 0
0.0464344 -9.95733 0
-7.70263 1.13776 0
-8.33448 2.91455 0
-7.56121 2.11235 0
-8.61693 5.05542 0
-7.88949 3.98101 0
-7.89255 6.14318 0
-6.78634 -0.397841 0
-6.95553 0.546051 0
-5.77505 -1.00729 0
-0.59332 -8.81534 0
0.563931 -8.77816 0
-5.3075 -2.48502 0
-4.49729 -5.09607 0
-3.90903 -5.77992 0
-4.4437 -3.80564 0
-2.06879 -7.56618 0
-1.13779 -7.79035 0
-2.99891 -6.10458 0
-2.30579 -6.6238 0
1.35598 -9.87072 0
-6.69023 1.4191 0
-7.1776 3.11663 0
-6.66999 2.37618 0
-7.30195 4.99241 0
-6.71176 3.99778 0
-7.03328 7.12731 0
-6.57939 5.8983 0
-6.04114 7.98716 0
-4.45456 -1.18223 0
-5.81872 0.515196 0
-4.6586 -0.0111298 0
0.0064582 -7.85414 0
1.73998 -8.65491 0
0.948579 -7.77036 0
-4.04076 -2.40652 0
-3.48492 -1.39125 0
-3.29876 -4.80852 0
-3.26371 -3.27216 0
-1.37255 -6.67992 0
-0.508323 -7.02933 0
-1.97724 -5.53999 0
2.64301 -9.62018 0
-5.50978 2.03712 0
-6.10626 3.07538 0
-6.09784 4.86668 0
-5.77969 3.99562 0
-5.76665 6.72395 0
-5.45039 5.60668 0
-4.95298 8.71154 0
-4.8225 7.40527 0
-3.50152 -0.425793 0
-4.45276 1.24883 0
-3.71475 0.593679 0
-4.06451 2.32205 0
-3.77812 9.29557 0
2.86437 -8.34371 0
0.423526 -6.80161 0
2.02364 -7.53505 0
1.31065 -6.91308 0
-2.44413 -0.875557 0
-2.83734 -2.13254 0
-2.29529 -4.10002 0
-2.32523 -2.97277 0
-0.442543 -5.86788 0
-1.22094 -4.50379 0
3.87887 -9.19604 0
-4.79675 3.39361 0
-5.10924 4.59962 0
-4.67511 6.28696 0
-4.56108 5.37165 0
-3.87069 7.99055 0
-3.83587 6.87822 0
-2.7668 8.41339 0
-1.64788 -0.142985 0
-1.44667 -0.890043 0
-2.47523 0.497553 0
-3.25499 1.44369 0
-3.22881 3.31685 0
-2.9036 2.34468 0
-1.35245 0.623215 0
-2.54165 9.71861 0
3.93565 -7.89678 0
2.97176 -7.16822 0
0.958397 -5.83079 0
2.07804 -6.42526 0
-1.67837 -1.9961 0
-1.43192 -3.27706 0
0.0921871 -4.75295 0
-0.563178 -3.70017 0
4.93619 -7.32818 0
5.05313 -8.61859 0
-3.788 4.55967 0
-3.75114 5.77344 0
-2.90071 7.31715 0
-3.00637 6.37043 0
-1.66265 8.739 0
-1.95024 7.62349 0
-2.33563 4.0315 0
-0.723251 -1.33251 0
-0.835029 -0.260028 0
-1.9546 1.64816 0
-2.14874 2.87125 0
-1.32073 3.55634 0
-0.868686 1.34568 0
-0.279302 0.448508 0
-0.53217 8.88038 0
-1.25808 9.97221 0
1.11596 -4.58167 0
3.91496 -6.72823 0
2.99222 -6.10524 0
2.1207 -5.43188 0
4.79141 -6.21529 0
-0.553277 -2.48257 0
0.497353 -3.47011 0
0.059509 -1.61743 0
1.48552 -3.68999 0
5.87156 -6.62316 0
6.14303 -7.89318 0
-2.46772 5.3472 0
-2.12907 6.54126 0
-0.906695 7.80905 0
-1.27382 6.936 0
0.0837345 7.88522 0
-1.15502 4.49045 0
0.154967 -0.626752 0
-0.803058 2.49825 0
-0.33533 3.61545 0
0.0642828 1.5069 0
0.745035 0.467399 0
0.645534 8.88049 0
0.0491689 10.0549 0
2.38626 -4.29463 0
3.86437 -5.64983 0
3.00688 -5.22333 0
5.57988 -5.49967 0
4.69757 -5.29298 0
0.629211 -2.29673 0
1.25393 -2.95611 0
0.756731 -1.39956 0
2.16436 -3.14328 0
3.0007 -3.48436 0
6.16346 -4.79937 0
6.66397 -5.77698 0
7.12818 -7.02961 0
-1.02038 5.81409 0
-0.372875 6.88267 0
1.12049 7.77196 0
0.556283 7.08053 0
-0.0064959 4.73595 0
0.605309 3.82663 0
1.34184 -0.647823 0
0.539702 2.64732 0
0.970203 1.57036 0
1.90964 0.207531 0
1.61911 1.06072 0
2.12871 7.58449 0
1.7998 8.71883 0
1.35763 9.97233 0
3.82855 -4.35888 0
5.12307 -4.45664 0
5.85302 -3.94166 0
3.79027 -3.20762 0
1.81637 -1.887 0
3.01993 -2.58017 0
6.79243 -3.9536 0
7.38775 -4.90352 0
7.99141 -6.04515 0
0.477982 5.89043 0
1.42564 6.75087 0
2.37351 6.6779 0
1.20832 4.55522 0
1.48994 3.39561 0
2.43475 -0.697335 0
2.83062 0.139182 0
1.79096 2.15996 0
2.61711 1.14756 0
3.07113 7.17128 0
2.90546 8.38116 0
2.63782 9.71349 0
4.9202 -3.33466 0
6.13008 -3.11422 0
4.17851 -2.2805 0
3.2467 -1.50739 0
6.74096 -2.31699 0
7.24046 -3.04681 0
7.97271 -3.91709 0
8.7163 -4.95319 0
2.02306 5.6007 0
3.08655 6.16143 0
2.36352 4.12626 0
2.42106 3.05973 0
3.5263 -0.465693 0
3.62169 0.610941 0
2.96471 2.28652 0
3.55026 1.52425 0
4.01324 5.90069 0
3.985 6.79573 0
3.97299 7.94242 0
3.87684 9.2938 0
5.57627 -1.92017 0
4.51435 -1.13363 0
6.72447 -1.33943 0
7.60182 -2.03988 0
8.40674 -2.86525 0
9.29421 -3.77876 0
3.42084 4.87884 0
3.34222 3.38579 0
4.69544 0.127399 0
4.52498 1.30897 0
4.07141 2.44388 0
4.57379 5.15651 0
4.84812 6.19496 0
4.98233 7.38517 0
5.05354 8.71553 0
5.89163 -0.436692 0
7.0219 -0.49037 0
7.7701 -1.08818 0
8.69515 -1.74864 0
9.71821 -2.54057 0
4.55933 3.82921 0
5.82762 1.09892 0
5.3773 2.53673 0
5.38697 4.62553 0
5.61722 5.52852 0
5.90384 6.67779 0
6.14075 7.98779 0
6.85601 0.46365 0
7.86223 -0.0256919 0
8.87034 -0.58554 0
9.97494 -1.25729 0
6.97012 1.35152 0
5.73052 3.78271 0
6.55004 2.2007 0
6.3909 3.09179 0
6.29622 4.6911 0
6.70162 5.84488 0
7.12434 7.12559 0
7.79565 0.96893 0
8.86878 0.573671 0
10.0613 0.0490453 0
7.62794 2.00733 0
6.83935 3.91062 0
7.27941 2.95156 0
7.38975 4.89252 0
7.9912 6.14235 0
8.73463 1.72987 0
9.97489 1.35667 0
8.43623 2.84276 0
7.99091 3.92186 0
8.7151 5.05424 0
9.71705 2.64088 0
9.29649 3.88018 0
CELLS 542 2168
3 2 0 4
3 0 1 7
3 4 0 7
3 1 5 8
3 7 1 8
3 3 2 13
3 13 2 4
3 11 3 14
3 14 3 13
3 13 4 15
3 4 7 16
3 15 4 16
3 5 6 17
3 8 5 17
3 6 9 18
3 17 6 18
3 7 8 19
3 16 7 19
3 8 17 20
3 19 8 20
3 9 10 23
3 18 9 23
3 10 21 24
3 23 10 24
3 12 11 25
3 25 11 14
3 26 12 27
3 27 12 25
3 14 13 29
3 29 13 15
3 25 14 30
3 30 14 29
3 29 15 31
3 15 16 33
3 31 15 33
3 16 19 34
3 33 16 34
3 17 18 35
3 20 17 35
3 18 23 36
3 35 18 36
3 19 20 37
3 34 19 37
3 20 35 38
3 37 20 38
3 21 22 39
3 24 21 39
3 22 32 40
3 39 22 40
3 23 24 41
3 36 23 41
3 24 39 42
3 41 24 42
3 27 25 44
3 44 25 30
3 28 26 45
3 45 26 27
3 45 27 46
3 46 27 44
3 47 28 48
3 48 28 45
3 30 29 50
3 50 29 31
3 44 30 51
3 51 30 50
3 50 31 52
3 31 33 52
3 32 43 53
3 40 32 53
3 53 43 54
3 33 34 55
3 34 37 55
3 33 55 52
3 35 36 56
3 38 35 56
3 36 41 57
3 56 36 57
3 37 38 58
3 38 56 58
3 37 58 55
3 39 40 59
3 42 39 59
3 40 53 60
3 59 40 60
3 41 42 61
3 57 41 61
3 42 59 62
3 61 42 62
3 43 63 54
3 46 44 64
3 64 44 51
3 48 45 65
3 65 45 46
3 65 46 66
3 66 46 64
3 49 47 67
3 67 47 48
3 67 48 68
3 68 48 65
3 69 49 70
3 70 49 67
3 52 55 72
3 64 51 73
3 51 50 73
3 50 52 73
3 73 52 74
3 74 52 72
3 53 54 75
3 60 53 75
3 54 63 76
3 54 76 77
3 75 54 77
3 55 58 78
3 72 55 78
3 72 78 79
3 56 57 80
3 57 61 80
3 56 80 58
3 58 80 81
3 78 58 81
3 59 60 82
3 62 59 82
3 60 75 83
3 82 60 83
3 61 62 84
3 62 82 84
3 61 84 80
3 63 85 76
3 66 64 86
3 64 73 86
3 68 65 87
3 87 65 66
3 87 66 86
3 70 67 88
3 88 67 68
3 88 68 89
3 89 68 87
3 71 69 90
3 90 69 70
3 90 70 91
3 91 70 88
3 92 71 93
3 93 71 90
3 74 72 94
3 94 72 79
3 86 73 95
3 95 73 74
3 95 74 96
3 96 74 94
3 97 86 95
3 76 85 99
3 75 77 100
3 83 75 100
3 76 99 101
3 77 76 101
3 77 101 102
3 100 77 102
3 94 79 103
3 78 81 104
3 79 78 104
3 79 104 103
3 80 84 105
3 81 80 105
3 81 105 106
3 104 81 106
3 82 83 107
3 83 100 107
3 82 107 84
3 84 107 108
3 105 84 108
3 85 109 99
3 89 87 110
3 87 86 110
3 110 86 97
3 91 88 111
3 111 88 89
3 111 89 110
3 93 90 112
3 112 90 91
3 112 91 113
3 113 91 111
3 98 92 114
3 114 92 93
3 114 93 115
3 115 93 112
3 116 98 114
3 117 103 118
3 96 94 119
3 94 103 119
3 119 103 117
3 97 95 120
3 120 95 96
3 120 96 119
3 121 110 97
3 121 97 122
3 122 97 120
3 123 119 117
3 124 98 116
3 99 109 125
3 99 125 126
3 101 99 126
3 100 102 127
3 100 127 107
3 101 126 128
3 102 101 128
3 102 128 127
3 104 106 129
3 104 129 103
3 103 129 118
3 105 108 130
3 106 105 130
3 106 130 129
3 107 127 131
3 108 107 131
3 108 131 132
3 108 132 130
3 109 134 125
3 125 134 133
3 113 111 135
3 111 110 135
3 135 110 121
3 115 112 136
3 136 112 113
3 136 113 135
3 116 114 137
3 137 114 115
3 137 115 138
3 138 115 136
3 139 124 116
3 139 116 140
3 140 116 137
3 141 135 121
3 118 129 142
3 118 142 143
3 117 118 143
3 123 117 143
3 122 120 144
3 120 119 144
3 144 119 123
3 141 121 145
3 145 121 122
3 145 122 144
3 146 141 145
3 147 144 123
3 147 123 148
3 143 148 123
3 150 124 139
3 149 150 139
3 131 127 151
3 125 133 152
3 126 125 152
3 126 152 153
3 128 126 153
3 128 153 154
3 128 154 127
3 127 154 151
3 152 133 155
3 130 132 156
3 130 156 129
3 129 156 142
3 131 151 157
3 132 131 157
3 132 157 156
3 156 158 142
3 157 151 159
3 133 160 155
3 134 161 133
3 133 161 160
3 138 136 162
3 136 135 162
3 162 135 141
3 140 137 163
3 163 137 138
3 163 138 162
3 149 139 164
3 164 139 140
3 164 140 165
3 165 140 163
3 166 149 164
3 167 162 141
3 167 141 146
3 142 158 168
3 143 142 168
3 143 168 148
3 146 145 169
3 145 144 169
3 169 144 147
3 170 167 146
3 170 146 169
3 171 169 147
3 171 147 148
3 171 148 172
3 168 172 148
3 173 149 166
3 174 150 149
3 173 174 149
3 154 175 151
3 151 175 159
3 152 155 176
3 153 152 176
3 153 176 177
3 153 177 154
3 154 177 175
3 155 160 178
3 155 178 179
3 176 155 179
3 156 157 180
3 156 180 158
3 157 159 181
3 157 181 180
3 158 180 182
3 158 182 168
3 159 175 183
3 159 183 181
3 175 184 183
3 160 186 178
3 178 186 185
3 161 187 160
3 160 187 186
3 165 163 188
3 163 162 188
3 188 162 167
3 166 164 189
3 189 164 165
3 189 165 188
3 190 173 166
3 190 166 191
3 191 166 189
3 192 188 167
3 192 167 170
3 193 192 170
3 182 194 168
3 194 172 168
3 193 170 195
3 170 169 195
3 195 169 171
3 196 195 171
3 196 171 172
3 194 197 172
3 197 198 172
3 198 196 172
3 200 173 190
3 199 200 190
3 201 174 173
3 200 201 173
3 176 179 202
3 177 176 202
3 177 202 175
3 175 202 184
3 178 185 203
3 178 203 179
3 179 203 202
3 203 185 204
3 202 205 184
3 183 206 181
3 180 181 206
3 180 206 182
3 182 206 194
3 183 184 207
3 205 207 184
3 183 207 206
3 185 208 204
3 186 209 185
3 185 209 208
3 187 210 186
3 186 210 209
3 191 189 211
3 189 188 211
3 211 188 192
3 199 190 212
3 212 190 191
3 212 191 211
3 213 199 212
3 214 211 192
3 214 192 193
3 215 214 193
3 215 193 195
3 206 216 194
3 216 197 194
3 216 217 197
3 215 195 218
3 218 195 196
3 198 218 196
3 217 219 197
3 219 218 198
3 197 219 198
3 220 199 213
3 221 200 199
3 220 221 199
3 222 201 200
3 221 222 200
3 203 204 223
3 203 223 202
3 202 223 205
3 204 208 224
3 204 224 223
3 205 223 225
3 205 225 207
3 207 225 226
3 207 226 206
3 226 216 206
3 208 228 224
3 224 228 227
3 209 229 208
3 229 228 208
3 210 230 209
3 209 230 229
3 213 212 231
3 212 211 231
3 231 211 214
3 232 220 213
3 232 213 231
3 233 231 214
3 233 214 215
3 234 233 215
3 234 215 218
3 226 235 216
3 235 217 216
3 235 236 217
3 217 236 219
3 237 234 218
3 237 218 219
3 236 238 219
3 238 237 219
3 240 220 232
3 239 240 232
3 241 221 220
3 240 241 220
3 242 222 221
3 241 242 221
3 224 227 243
3 224 243 223
3 223 243 225
3 225 243 244
3 225 244 226
3 226 244 235
3 227 245 243
3 228 246 227
3 227 246 245
3 229 247 228
3 228 247 246
3 230 248 229
3 229 248 247
3 239 232 249
3 232 231 249
3 249 231 233
3 250 249 233
3 250 233 234
3 237 250 234
3 244 251 235
3 235 251 236
3 251 252 236
3 236 252 238
3 252 253 238
3 253 250 237
3 253 237 238
3 254 239 249
3 255 240 239
3 254 255 239
3 256 241 240
3 255 256 240
3 257 242 241
3 256 257 241
3 245 258 243
3 243 258 244
3 244 258 251
3 245 259 258
3 246 260 245
3 245 260 259
3 247 261 246
3 246 261 260
3 248 262 247
3 247 262 261
3 254 249 263
3 263 249 250
3 253 263 250
3 258 264 251
3 251 264 252
3 264 265 252
3 265 263 253
3 252 265 253
3 266 254 263
3 267 255 254
3 266 267 254
3 268 256 255
3 267 268 255
3 269 257 256
3 268 269 256
3 259 270 258
3 270 264 258
3 260 271 259
3 259 271 270
3 261 272 260
3 260 272 271
3 262 273 261
3 273 272 261
3 270 274 264
3 275 266 263
3 275 263 265
3 274 276 264
3 276 265 264
3 276 277 265
3 277 275 265
3 278 267 266
3 275 278 266
3 279 268 267
3 278 279 267
3 280 269 268
3 279 280 268
3 271 281 270
3 270 281 274
3 272 282 271
3 271 282 281
3 273 283 272
3 272 283 282
3 281 284 274
3 274 284 276
3 285 278 275
3 277 285 275
3 284 286 276
3 286 285 277
3 276 286 277
3 287 279 278
3 285 287 278
3 288 280 279
3 287 288 279
3 282 289 281
3 281 289 284
3 283 290 282
3 282 290 289
3 289 291 284
3 284 291 286
3 291 292 286
3 292 287 285
3 286 292 285
3 293 288 287
3 292 293 287
3 290 294 289
3 289 294 291
3 294 295 291
3 295 293 292
3 291 295 292
CELL_TYPES 542
5
5
5
5
5
5
5
5
5
5
5
5
5
5
5
5
5
5
5
5
5
5
5
5
5
5
5
5
5
5
5
5
5
5
5
5
5
5
5
5
5
5
5
5
5
5
5
5
5
5
5
5
5
5
5
5
5
5
5
5
5
5
5
5
5
5
5
5
5
5
5
5
5
5
5
5
5
5
5
5
5
5
5
5
5
5
5
5
5
5
5
5
5
5
5
5
5
5
5
5
5
5
5
5
5
5
5
5
5
5
5
5
5
5
5
5
5
5
5
5
5
5
5
5
5
5
5
5
5
5
5
5
5
5
5
5
5
5
5
5
5
5
5
5
5
5
5
5
5
5
5
5
5
5
5
5
5
5
5
5
5
5
5
5
5
5
5
5
5
5
5
5
5
5
5
5
5
5
5
5
5
5
5
5
5
5
5
5
5
5
5
5
5
5
5
5
5
5
5
5
5
5
5
5
5
5
5
5
5
5
5
5
5
5
5
5
5
5
5
5
5
5
5
5
5
5
5
5
5
5
5
5
5
5
5
5
5
5
5
5
5
5
5
5
5
5
5
5
5
5
5
5
5
5
5
5
5
5
5
5
5
5
5
5
5
5
5
5
5
5
5
5
5
5
5
5
5
5
5
5
5
5
5
5
5
5
5
5
5
5
5
5
5
5
5
5
5
5
5
5
5
5
5
5
5
5
5
5
5
5
5
5
5
5
5
5
5
5
5
5
5
5
5
5
5
5
5
5
5
5
5
5
5
5
5
5
5
5
5
5
5
5
5
5
5
5
5
5
5
5
5
5
5
5
5
5
5
5
5
5
5
5
5
5
5
5
5
5
5
5
5
5
5
5
5
5
5
5
5
5
5
5
5
5
5
5
5
5
5
5
5
5
5
5
5
5
5
5
5
5
5
5
5
5
5
5
5
5
5
5
5
5
5
5
5
5
5
5
5
5
5
5
5
5
5
5
5
5
5
5
5
5
5
5
5
5
5
5
5
5
5
5
5
5
5
5
5
5
5
5
5
5
5
5
5
5
5
5
5
5
5
5
5
5
5
5
5
5
5
5
5
5
5
5
5
5
5
5
5
5
5
5
5
5
5
5
5
5
5
5
5
5
5
5
5
5
5
5
5
5
5
5
5
5
5
5
5
5
5
5
5
5
5
5
5
5
5
5
5
5
5
5
5
5
5
5
5
5
5
5
5
5
5
5
5
5
5
5
5
5
5
5
POINT_DATA 296
SCALARS concentrations float 4
LOOKUP_TABLE default
0 1.00093 0.0497146 38.3775
0 1.00018 0.0491488 39.9166
0 1.00104 0.0407863 38.2761
0 1.00142 0.0543863 59.3956
0 1.00099 0.0493091 19.1434
0 1.00012 0.0450235 15.7001
0 1.00071 0.0578623 82.1934
0 1.00054 0.0724921 49.8419
0 0.999949 0.0595082 26.0251
0 1.00078 0.0189851 77.9519
0 0.999997 0.151466 89.1661
0 1.00097 0.0598728 44.3007
0 1.00021 0.0657386 70.6705
0 1.0011 0.0607048 23.3721
0 1.0014 0.0600212 45.1767
0 1.00125 0.044255 16.5344
0 1.00098 0.0518586 40.4989
0 1.00035 0.0616139 57.221
0 1.00105 0.0707684 79.6371
0 1.00021 0.0800747 71.6536
0 0.999974 0.0659126 51.2654
0 1.00137 0.0431784 112.592
0 1.00201 0.0473046 185.93
0 1.00067 0 5.59429
0 1.00078 0.113981 85.678
0 1.001 0.0647488 58.4065
0 0.999956 0.0651227 42.5679
0 1.00039 0.0633324 8.37337
0 1.0011 0.0672348 80.7353
0 1.00163 0.0454327 16.9183
0 1.00155 0.0601297 37.609
0 1.00196 0.0480141 19.9226
0 1.00133 0.0384588 125.382
0 1.0016 0.0934506 27.3564
0 1.00129 0.127437 109.738
0 1.00058 0.111705 21.5985
0 1.00163 0.0286085 187.869
0 1.00087 0.111038 167.677
0 1.00007 0.0617714 107.692
0 1.00178 0.114718 71.7994
0 1.00175 0.112511 69.491
0 1.00105 0.108936 136.489
0 1.00109 0.065654 70.7464
0 1.00074 0.0415814 91.0895
0 1.00115 0.05161 9.92248
0 1.00082 0.0517229 2.07173
0 1.00105 0.05674 20.4552
0 1.00171 0.0740901 63.8962
0 1.0016 0.0524783 44.1808
0 1.00154 0.0715935 56.343
0 1.0022 0.0514547 32.294
0 1.0017 0.0511429 14.356
0 1.00178 0.084539 95.2212
0 1.00139 0.110823 57.0844
0 1.00127 0.106999 78.3931
0 1.00142 0.0686378 98.1358
0 1.00171 0.0507673 70.8966
0 1.00225 0.0765805 106.43
0 1.00153 0.0877284 24.8798
0 1.00133 0.0646121 73.4571
0 1.0014 0.0696173 25.4114
0 1.00116 0.0791409 73.4158
0 1.00083 0.0670581 61.9965
0 1.0003 0.0371177 67.2207
0 1.00146 0.0548468 30.8357
0 1.00144 0.0656707 56.1659
0 1.00112 0.05397 1.41878
0 1.00156 0.065646 52.8826
0 1.00149 0.0470952 28.5279
0 1.00186 0.015582 150.114
0 1.00154 0.0633499 65.7654
0 1.00161 0.0831212 115.55
0 1.00122 0.0878418 60.7028
0 1.00199 0.0870819 47.6671
0 1.0014 0.0405945 75.3791
0 1.00153 0.0727699 68.2883
0 1.00079 0.10626 94.3957
0 1.00195 0.0749175 41.4891
0 1.0015 0.0762129 14.2129
0 1.00114 0.0918865 55.6376
0 1.00222 0.0801042 97.0007
0 1.00211 0.0650362 38.0303
0 1.00103 0.0655535 50.6915
0 1.00097 0.0740432 57.4306
0 1.00171 0.0837874 90.0104
0 0.999238 0.0768814 77.6522
0 1.00131 0.071615 18.539
0 1.00102 0.0542719 15.2999
0 1.00137 0.0457755 22.7958
0 1.00115 0.0495092 26.8249
0 1.00193 0.0634245 17.844
0 1.00151 0.0457138 20.2526
0 1.00114 0.0439246 36.4757
0 1.00147 0.0419223 39.6203
0 1.00136 0.0868347 81.0882
0 1.0017 0.130246 50.5225
0 1.00162 0.0826452 81.6616
0 1.00136 0.0588553 11.2118
0 1.00197 0.0437746 36.3734
0 0.999937 0.0735325 68.998
0 1.00111 0.0683042 68.8662
0 1.00148 0.0813465 65.2547
0 1.00163 0.0685037 66.4847
0 1.0014 0.0968048 67.2481
0 1.00134 0.0915543 77.4906
0 1.00215 0.0857254 96.9484
0 1.00233 0.0929285 14.8529
0 1.00121 0.0605501 130.773
0 1.00165 0.0296728 110.566
0 0.999851 0.0881852 63.3465
0 1.00104 0.0584422 7.57238
0 1.00123 0.0492691 36.281
0 1.00185 0.0465801 31.4303
0 1.00148 0.0495577 31.5827
0 1.00178 0.0446935 21.3024
0 1.00191 0.0459458 10.1271
0 1.00228 0.0401187 26.5585
0 1.00187 0.129159 129.553
0 1.00104 0.0269691 8.49414
0 1.00225 0.0510295 27.4488
0 1.00222 0.0818395 9.80922
0 1.00135 0.0529064 28.6377
0 1.00185 0.0469911 38.4725
0 1.00146 0.0648273 77.0232
0 1.00159 0.0370872 63.1122
0 1.00098 0.0769989 53.3741
0 1.00101 0.0670376 52.656
0 1.00053 0.0697016 123.83
0 1.00105 0.0942092 78.8945
0 1.00155 0.0334758 84.4173
0 1.00191 0.0697765 42.409
0 1.0007 0.10723 103.803
0 1.00093 0.0996728 134.486
0 1.00205 0.0758959 38.0009
0 1.00185 0.0718751 63.1326
0 1.00132 0.0510635 30.3247
0 1.00168 0.0483544 17.2013
0 1.00215 0.0479763 4.19508
0 1.00193 0.0516304 37.0053
0 1.00139 0.0788103 89.1861
0 1.00196 0.0525135 50.1782
0 1.00131 0.0506057 36.5962
0 1.00093 0.0255369 91.4091
0 1.00017 0.0435986 25.7843
0 1.00209 0.0454757 31.0743
0 1.00168 0.0526371 16.352
0 1.00143 0.0552849 37.9472
0 1.00138 0.075515 91.2283
0 1.00008 0.0851872 151.213
0 1.00105 0.0764394 116.789
0 1.00051 0.0754968 65.042
0 1.00066 0.0971271 101.504
0 1.00134 0.0889553 44.6231
0 1.00105 0.093939 70.0487
0 1.0006 0.091774 75.5717
0 1.00176 0.0771967 34.2922
0 1.00104 0.104547 139.28
0 1.0009 0.0806616 78.2349
0 1.00054 0.101836 142.847
0 1.0018 0.0821113 84.7158
0 1.00223 0.0761166 49.8887
0 1.00255 0.102176 58.9709
0 1.00147 0.0543271 37.504
0 1.00184 0.0603364 55.5386
0 1.00162 0.0860016 2.56244
0 1.00155 0.0680842 31.6749
0 1.00144 0.0897328 5.20106
0 1.00138 0.0563814 12.0336
0 1.00043 0.0506137 195.448
0 1.0018 0.0573588 26.0876
0 1.00167 0.0555755 29.522
0 1.00192 0.11147 121.871
0 1.00194 0.118807 125.957
0 1.00183 0.101933 24.5895
0 1.00153 0.0566883 69.8438
0 1.00153 0.0955856 109.042
0 1.00136 0.0884602 46.6136
0 1.0011 0.103774 98.0477
0 1.00155 0.0829013 37.3402
0 1.00161 0.0784265 56.2005
0 1.00065 0.0747624 76.1956
0 1.0013 0.0741078 77.4398
0 1.00081 0.0740845 83.5979
0 1.00176 0.0728345 73.6418
0 1.00177 0.0960301 76.7882
0 1.0015 0.0925125 56.004
0 1.0019 0.0804072 52.9899
0 1.00248 0.0798505 62.1717
0 1.00165 0.0584304 31.2166
0 1.00162 0.0636485 62.8398
0 1.00141 0.0744576 30.3065
0 1.00158 0.0653254 45.6282
0 1.0016 0.0587289 4.85346
0 1.00177 0.0763276 30.9256
0 1.00155 0.0796409 59.6913
0 1.00221 0.123822 80.9092
0 1.00314 0.124521 123.41
0 1.00184 0.0722952 67.2326
0 1.00238 0.103661 105.162
0 1.00156 0.0653226 40.4467
0 1.00223 0.102032 75.2902
0 1.00285 0.0955661 108.017
0 1.0016 0.0949935 60.783
0 1.00167 0.096794 44.8968
0 1.00141 0.0945042 43.0175
0 1.0018 0.100537 74.973
0 1.00134 0.0793786 74.7624
0 1.00164 0.0726452 66.6924
0 1.00179 0.0947599 48.9144
0 1.0012 0.105059 66.3252
0 1.0014 0.0885851 76.3684
0 1.00171 0.0637369 12.0769
0 1.00147 0.0644742 22.0724
0 1.00136 0.0643518 19.5383
0 1.00194 0.0786013 41.2125
0 1.00211 0.119951 80.6638
0 1.00159 0.0719 64.9825
0 1.00121 0.0762085 55.3023
0 1.0021 0.10083 77.2636
0 1.0011 0.0942891 94.7544
0 1.0015 0.0663967 34.2545
0 1.00111 0.0985624 70.5057
0 1.00165 0.0943958 47.2537
0 1.00177 0.0856376 67.9756
0 1.00159 0.0844702 59.486
0 1.00174 0.078239 45.0789
0 1.00157 0.0743826 55.8929
0 1.00188 0.0813445 49.6542
0 1.00161 0.09171 41.8491
0 1.00073 0.111385 49.5557
0 0.999742 0.0820031 40.6348
0 1.00179 0.0861391 58.074
0 1.00163 0.0639057 12.6642
0 1.00248 0.113167 44.1891
0 1.00229 0.0979031 46.6353
0 1.00139 0.0712098 55.2909
0 1.00111 0.0969891 72.6876
0 1.00145 0.0859084 66.8299
0 1.00117 0.100602 53.0758
0 1.00199 0.0770334 22.916
0 1.00164 0.0754541 29.7786
0 1.00113 0.0890124 10.8447
0 1.00038 0.0858748 16.4307
0 1.00179 0.0802286 38.6542
0 1.00154 0.0752004 40.8105
0 1.00212 0.0824925 54.0978
0 1.00165 0.0910297 39.5106
0 1.00073 0.11147 40.9296
0 0.999847 0.0791525 78.2506
0 1.00205 0.109031 34.3855
0 1.00172 0.100393 48.3452
0 1.00123 0.073963 42.2218
0 1.00093 0.0824921 45.7544
0 1.00094 0.0865358 70.7857
0 1.00209 0.0778208 19.7072
0 1.00163 0.0773067 42.8018
0 1.00201 0.0845786 23.9975
0 1.00194 0.0796273 99.8742
0 1.00179 0.0951434 38.26
0 1.00212 0.0944872 61.5783
0 1.00178 0.0913162 41.7914
0 1.00129 0.116434 24.3531
0 1.00049 0.0536997 21.7095
0 1.00172 0.135962 99.1107
0 1.00116 0.104718 67.0946
0 1.0012 0.111254 49.3478
0 1.00214 0.0834622 55.2717
0 1.00122 0.0708454 14.9252
0 1.00155 0.0713203 53.0853
0 1.00232 0.0714673 9.42804
0 1.00211 0.089421 25.2597
0 1.00199 0.107153 58.172
0 1.00202 0.116883 40.8147
0 1.00179 0.0443542 69.2175
0 1.00169 0.102032 19.4701
0 1.00226 0.112997 77.0825
0 1.00115 0.108744 29.9771
0 1.00169 0.113765 64.3935
0 1.00135 0.059709 11.8836
0 1.00134 0.0614275 4.75331
0 1.00142 0.0758273 58.4026
0 1.00258 0.107185 20.2557
0 1.00217 0.083458 59.1086
0 1.00233 0.0511785 58.6099
0 1.00221 0.0916294 36.1592
0 1.00135 0.0810013 32.2734
0 1.00125 0.0715459 9.44932
0 1.0012 0.0589981 25.5009
0 1.00145 0.0710079 75.6724
0 1.00215 0.0697686 24.5402
0 1.00187 0.0515232 54.476
0 1.0016 0.0527684 7.00764
0 1.00104 0.0694774 29.8174
0 1.00106 0.0599407 18.0991
0 1.00133 0.0726355 2.2631
0 1.0011 0.0716688 26.2465
VECTORS fa_u float
0.00597801 0.00247813 -0
0.00559069 0.00322541 -0
0.00644108 0.0017246 -0
0.00652024 0.000850479 -0
1e-08 0 0
0.00532793 0.00408982 -0
0.00467199 0.00468805 -0
1e-08 0 0
1e-08 0 0
0.00371329 0.00483988 -0
0.00351093 0.00608402 -0
0.00656447 -1.03334e-05 -0
0.00616637 -0.000813846 0
1e-08 0 0
1e-08 0 0
1e-08 0 0
1e-08 0 0
1e-08 0 0
1e-08 0 0
1e-08 0 0
1e-08 0 0
0.0022139 0.00533232 -0
0.00183264 0.00676794 -0
1e-08 0 0
1e-08 0 0
1e-08 0 0
0.00652646 -0.00174777 0
1e-08 0 0
0.00557071 -0.0022988 0
1e-08 0 0
1e-08 0 0
1e-08 0 0
0.000865871 0.00661547 -0
1e-08 0 0
1e-08 0 0
1e-08 0 0
1e-08 0 0
1e-08 0 0
1e-08 0 0
1e-08 0 0
1e-08 0 0
1e-08 0 0
1e-08 0 0
-7.44819e-06 0.00643779 -0
1e-08 0 0
1e-08 0 0
1e-08 0 0
0.00586426 -0.00336303 0
1e-08 0 0
0.00514108 -0.00392961 0
1e-08 0 0
1e-08 0 0
1e-08 0 0
1e-08 0 0
1e-08 0 0
1e-08 0 0
1e-08 0 0
1e-08 0 0
1e-08 0 0
1e-08 0 0
1e-08 0 0
1e-08 0 0
1e-08 0 0
-0.000779329 0.006002 0
1e-08 0 0
1e-08 0 0
1e-08 0 0
1e-08 0 0
1e-08 0 0
0.00517957 -0.00520045 0
1e-08 0 0
0.00370322 -0.0048628 0
1e-08 0 0
1e-08 0 0
1e-08 0 0
1e-08 0 0
1e-08 0 0
1e-08 0 0
1e-08 0 0
1e-08 0 0
1e-08 0 0
1e-08 0 0
1e-08 0 0
1e-08 0 0
1e-08 0 0
-0.00188113 0.0070342 0
1e-08 0 0
1e-08 0 0
1e-08 0 0
1e-08 0 0
1e-08 0 0
1e-08 0 0
0.00302356 -0.00522952 0
1e-08 0 0
1e-08 0 0
1e-08 0 0
1e-08 0 0
1e-08 0 0
0.00254275 -0.00608839 0
1e-08 0 0
1e-08 0 0
1e-08 0 0
1e-08 0 0
1e-08 0 0
1e-08 0 0
1e-08 0 0
1e-08 0 0
1e-08 0 0
1e-08 0 0
-0.00233794 0.00562575 0
1e-08 0 0
1e-08 0 0
1e-08 0 0
1e-08 0 0
1e-08 0 0
1e-08 0 0
1e-08 0 0
1e-08 0 0
1e-08 0 0
1e-08 0 0
1e-08 0 0
1e-08 0 0
1e-08 0 0
1e-08 0 0
0.00178924 -0.00666382 0
1e-08 0 0
1e-08 0 0
1e-08 0 0
1e-08 0 0
1e-08 0 0
1e-08 0 0
1e-08 0 0
1e-08 0 0
1e-08 0 0
-0.00321872 0.00559363 0
1e-08 0 0
1e-08 0 0
1e-08 0 0
1e-08 0 0
1e-08 0 0
1e-08 0 0
1e-08 0 0
1e-08 0 0
1e-08 0 0
1e-08 0 0
1e-08 0 0
1e-08 0 0
1e-08 0 0
1e-08 0 0
1e-08 0 0
0.00085189 -0.00656253 0
1e-08 0 0
1e-08 0 0
1e-08 0 0
1e-08 0 0
1e-08 0 0
1e-08 0 0
1e-08 0 0
1e-08 0 0
1e-08 0 0
1e-08 0 0
-0.00405956 0.00530139 0
1e-08 0 0
1e-08 0 0
1e-08 0 0
1e-08 0 0
1e-08 0 0
1e-08 0 0
1e-08 0 0
1e-08 0 0
1e-08 0 0
1e-08 0 0
1e-08 0 0
1e-08 0 0
2.81904e-07 -0.00605971 0
1e-08 0 0
1e-08 0 0
1e-08 0 0
1e-08 0 0
1e-08 0 0
1e-08 0 0
1e-08 0 0
1e-08 0 0
1e-08 0 0
1e-08 0 0
1e-08 0 0
1e-08 0 0
-0.00462827 0.00462915 0
1e-08 0 0
1e-08 0 0
1e-08 0 0
1e-08 0 0
1e-08 0 0
1e-08 0 0
1e-08 0 0
1e-08 0 0
1e-08 0 0
1e-08 0 0
1e-08 0 0
1e-08 0 0
1e-08 0 0
-0.000926782 -0.00702652 0
1e-08 0 0
1e-08 0 0
1e-08 0 0
1e-08 0 0
1e-08 0 0
1e-08 0 0
1e-08 0 0
1e-08 0 0
-0.00541061 0.00413824 0
1e-08 0 0
1e-08 0 0
1e-08 0 0
1e-08 0 0
1e-08 0 0
1e-08 0 0
1e-08 0 0
1e-08 0 0
1e-08 0 0
1e-08 0 0
1e-08 0 0
-0.00160163 -0.00594642 0
1e-08 0 0
1e-08 0 0
1e-08 0 0
1e-08 0 0
1e-08 0 0
1e-08 0 0
1e-08 0 0
-0.00546747 0.00314289 0
1e-08 0 0
1e-08 0 0
1e-08 0 0
1e-08 0 0
1e-08 0 0
1e-08 0 0
1e-08 0 0
1e-08 0 0
1e-08 0 0
1e-08 0 0
1e-08 0 0
-0.00246127 -0.00595792 0
1e-08 0 0
1e-08 0 0
1e-08 0 0
1e-08 0 0
1e-08 0 0
-0.00570482 0.00236908 0
1e-08 0 0
1e-08 0 0
1e-08 0 0
1e-08 0 0
1e-08 0 0
1e-08 0 0
1e-08 0 0
1e-08 0 0
-0.00336694 -0.00583647 0
1e-08 0 0
1e-08 0 0
1e-08 0 0
1e-08 0 0
-0.00644789 0.00174075 0
1e-08 0 0
1e-08 0 0
1e-08 0 0
1e-08 0 0
1e-08 0 0
1e-08 0 0
-0.00391191 -0.00509502 0
1e-08 0 0
1e-08 0 0
1e-08 0 0
-0.00651984 0.000863776 0
1e-08 0 0
1e-08 0 0
1e-08 0 0
1e-08 0 0
1e-08 0 0
1e-08 0 0
-0.00443645 -0.00444847 0
1e-08 0 0
1e-08 0 0
-0.00662537 -1.3876e-07 0
1e-08 0 0
1e-08 0 0
1e-08 0 0
1e-08 0 0
-0.00554394 -0.00425765 0
1e-08 0 0
-0.00658391 -0.000874458 0
1e-08 0 0
1e-08 0 0
-0.00534119 -0.00308191 0
-0.00611741 -0.00164455 0
-0.00618156 -0.00256638 0
