# vtk DataFile Version 2.0
CellBP Time: 2.72
ASCII
DATASET UNSTRUCTURED_GRID
POINTS 296 double
-9.05871 -3.72322 0
-8.48761 -4.8795 0
-9.47244 -2.50187 0
-9.72362 -1.23601 0
-8.34583 -2.8145 0
-7.7722 -5.95257 0
-6.9217 -6.92195 0
-7.9061 -3.86918 0
-7.33235 -4.86091 0
-5.95184 -7.77201 0
-4.8796 -8.48837 0
-9.8217 0.0499431 0
-9.72407 1.33595 0
-8.64569 -1.68122 0
-8.77555 -0.528008 0
-7.57793 -2.00061 0
-7.21443 -2.90174 0
-6.62845 -5.7709 0
-5.81433 -6.58784 0
-6.77971 -3.88261 0
-6.21093 -4.66843 0
-3.72279 -9.05835 0
-2.50171 -9.4733 0
-4.89955 -7.29885 0
-3.90739 -7.87569 0
-8.78207 0.641741 0
-9.47327 2.602 0
-8.61163 1.77142 0
-9.06048 3.82386 0
-7.73256 -0.927421 0
-7.78311 0.0803044 0
-6.94228 -1.31381 0
-1.23687 -9.72496 0
-6.43209 -2.14973 0
-6.30966 -3.05135 0
-5.52798 -5.46593 0
-4.78839 -6.10592 0
-5.65064 -3.75123 0
-5.26115 -4.55431 0
-2.86214 -8.35251 0
-1.77594 -8.62789 0
-3.92202 -6.71319 0
-3.05164 -7.14164 0
0.0499304 -9.81253 0
-7.69392 1.14167 0
-8.32726 2.91143 0
-7.54007 2.1087 0
-8.48939 4.98025 0
-7.86945 3.97289 0
-7.77236 6.05243 0
-6.76888 -0.396365 0
-6.94614 0.551926 0
-5.76465 -1.00218 0
-0.589943 -8.79714 0
0.565207 -8.75857 0
-5.29674 -2.47729 0
-4.48513 -5.08797 0
-3.89636 -5.76631 0
-4.43337 -3.80006 0
-2.05907 -7.55036 0
-1.13367 -7.77371 0
-2.98973 -6.0928 0
-2.30515 -6.60948 0
1.33682 -9.72594 0
-6.67984 1.42017 0
-7.16104 3.11319 0
-6.64919 2.36935 0
-7.28505 4.98206 0
-6.70776 3.99708 0
-6.92234 7.0225 0
-6.5638 5.88645 0
-5.95258 7.87292 0
-4.44765 -1.17944 0
-5.80778 0.513163 0
-4.65049 -0.0101334 0
0.00840676 -7.83585 0
1.73671 -8.6322 0
0.947635 -7.75133 0
-4.03361 -2.40334 0
-3.4808 -1.38911 0
-3.29018 -4.79944 0
-3.26171 -3.26354 0
-1.37639 -6.66573 0
-0.508023 -7.01453 0
-1.97281 -5.53022 0
2.6018 -9.4739 0
-5.50095 2.03459 0
-6.08584 3.06763 0
-6.09568 4.86227 0
-5.75286 3.98556 0
-5.75386 6.70845 0
-5.44373 5.61095 0
-4.88128 8.59146 0
-4.83219 7.39485 0
-3.49677 -0.423416 0
-4.44374 1.24772 0
-3.70643 0.591653 0
-4.05718 2.3172 0
-3.72415 9.16175 0
2.85921 -8.32191 0
0.419174 -6.78528 0
2.01918 -7.5148 0
1.30406 -6.89508 0
-2.44123 -0.872347 0
-2.83452 -2.12804 0
-2.29136 -4.09224 0
-2.32235 -2.96939 0
-0.441475 -5.85392 0
-1.221 -4.49355 0
3.82346 -9.06054 0
-4.7842 3.38793 0
-5.08038 4.58754 0
-4.64007 6.27192 0
-4.53179 5.35153 0
-3.83856 7.98283 0
-3.82078 6.83544 0
-2.77945 8.412 0
-1.64603 -0.137327 0
-1.44774 -0.888871 0
-2.48557 0.507034 0
-3.2491 1.44257 0
-3.23496 3.31278 0
-2.90678 2.36884 0
-1.3526 0.626469 0
-2.5019 9.57418 0
3.92793 -7.87677 0
2.96064 -7.14753 0
0.953098 -5.81436 0
2.07121 -6.40583 0
-1.68057 -1.98915 0
-1.43246 -3.27323 0
0.0904092 -4.7412 0
-0.565335 -3.68961 0
4.92613 -7.30927 0
4.97954 -8.489 0
-3.77258 4.54648 0
-3.7292 5.74379 0
-2.88345 7.27899 0
-3.00504 6.34425 0
-1.66035 8.72264 0
-1.93701 7.60821 0
-2.33549 4.04701 0
-0.729449 -1.32495 0
-0.835296 -0.256892 0
-1.9333 1.6789 0
-2.12267 2.87223 0
-1.30449 3.54 0
-0.867827 1.34905 0
-0.281654 0.455396 0
-0.532821 8.86054 0
-1.23688 9.82601 0
1.1115 -4.56888 0
3.905 -6.70767 0
2.98377 -6.08522 0
2.11544 -5.41764 0
4.77801 -6.19616 0
-0.558055 -2.47321 0
0.494699 -3.45914 0
0.0536327 -1.60783 0
1.48002 -3.67669 0
5.86029 -6.60615 0
6.05176 -7.77213 0
-2.47295 5.34247 0
-2.12735 6.52524 0
-0.902674 7.79194 0
-1.27035 6.92191 0
0.0861941 7.86884 0
-1.14296 4.48939 0
0.150184 -0.616746 0
-0.796011 2.48545 0
-0.330787 3.59592 0
0.0634048 1.51061 0
0.740604 0.472747 0
0.645996 8.86332 0
0.0500564 9.91099 0
2.37809 -4.27994 0
3.85422 -5.63211 0
2.99746 -5.20587 0
5.56626 -5.48397 0
4.68501 -5.27567 0
0.628972 -2.2901 0
1.25456 -2.9474 0
0.756198 -1.38935 0
2.16143 -3.13163 0
2.98973 -3.47173 0
6.14729 -4.78499 0
6.64921 -5.76211 0
7.02253 -6.92173 0
-1.01854 5.81391 0
-0.371947 6.87413 0
1.12098 7.75837 0
0.55722 7.06971 0
-0.00059277 4.71956 0
0.606469 3.82262 0
1.3371 -0.641022 0
0.538762 2.64762 0
0.965125 1.5726 0
1.90768 0.213439 0
1.6127 1.06329 0
2.12634 7.5728 0
1.79706 8.70201 0
1.33706 9.82563 0
3.81831 -4.34636 0
5.10997 -4.44295 0
5.83798 -3.92943 0
3.77931 -3.19704 0
1.80981 -1.88047 0
3.01523 -2.57087 0
6.77478 -3.94276 0
7.37416 -4.8919 0
7.88163 -5.9592 0
0.482801 5.87522 0
1.42633 6.73278 0
2.37085 6.65931 0
1.20868 4.55084 0
1.48647 3.39307 0
2.43248 -0.691052 0
2.82395 0.142222 0
1.78678 2.15984 0
2.60844 1.14831 0
3.06768 7.1599 0
2.90083 8.36735 0
2.60258 9.5757 0
4.90587 -3.32399 0
6.11309 -3.10466 0
4.16799 -2.27281 0
3.24036 -1.50141 0
6.72267 -2.31014 0
7.22254 -3.03852 0
7.95638 -3.90828 0
8.59261 -4.88255 0
2.02155 5.59399 0
3.08249 6.14517 0
2.36147 4.12225 0
2.41713 3.0567 0
3.52104 -0.460499 0
3.6109 0.612305 0
2.95808 2.28492 0
3.54091 1.5231 0
4.0068 5.89015 0
3.97947 6.78387 0
3.96919 7.93017 0
3.82414 9.16185 0
5.56324 -1.91411 0
4.50443 -1.12853 0
6.70553 -1.33467 0
7.58251 -2.0341 0
8.38813 -2.85865 0
9.16462 -3.72557 0
3.41572 4.87219 0
3.33545 3.3816 0
4.68653 0.129787 0
4.51449 1.30841 0
4.06108 2.44107 0
4.56493 5.1462 0
4.83757 6.18296 0
4.97534 7.37277 0
4.98005 8.58949 0
5.87768 -0.434408 0
7.00203 -0.487689 0
7.74995 -1.08403 0
8.67581 -1.74416 0
9.573 -2.50188 0
4.54812 3.82392 0
5.81233 1.09756 0
5.36632 2.53255 0
5.37362 4.61497 0
5.60551 5.51686 0
5.89137 6.66534 0
6.05238 7.87261 0
6.83815 0.463079 0
7.84415 -0.0256983 0
8.8517 -0.583638 0
9.8273 -1.23699 0
6.95229 1.34791 0
5.71466 3.77409 0
6.53421 2.195 0
6.37292 3.08427 0
6.28522 4.68145 0
6.68662 5.83239 0
7.02238 7.02225 0
7.77542 0.966622 0
8.85099 0.572318 0
9.91067 0.0499701 0
7.60773 2.00201 0
6.82172 3.89961 0
7.26163 2.94354 0
7.37193 4.88107 0
7.87635 6.05556 0
8.71498 1.7257 0
9.82539 1.33698 0
8.41369 2.83544 0
7.97492 3.91278 0
8.58958 4.98006 0
9.57501 2.60279 0
9.1668 3.82634 0
CELLS 542 2168
3 2 0 4
3 0 1 7
3 4 0 7
3 1 5 8
3 7 1 8
3 3 2 13
3 13 2 4
3 11 3 14
3 14 3 13
3 13 4 15
3 4 7 16
3 15 4 16
3 5 6 17
3 8 5 17
3 6 9 18
3 17 6 18
3 7 8 19
3 16 7 19
3 8 17 20
3 19 8 20
3 9 10 23
3 18 9 23
3 10 21 24
3 23 10 24
3 12 11 25
3 25 11 14
3 26 12 27
3 27 12 25
3 14 13 29
3 29 13 15
3 25 14 30
3 30 14 29
3 29 15 31
3 15 16 33
3 31 15 33
3 16 19 34
3 33 16 34
3 17 18 35
3 20 17 35
3 18 23 36
3 35 18 36
3 19 20 37
3 34 19 37
3 20 35 38
3 37 20 38
3 21 22 39
3 24 21 39
3 22 32 40
3 39 22 40
3 23 24 41
3 36 23 41
3 24 39 42
3 41 24 42
3 27 25 44
3 44 25 30
3 28 26 45
3 45 26 27
3 45 27 46
3 46 27 44
3 47 28 48
3 48 28 45
3 30 29 50
3 50 29 31
3 44 30 51
3 51 30 50
3 50 31 52
3 31 33 52
3 32 43 53
3 40 32 53
3 53 43 54
3 33 34 55
3 34 37 55
3 33 55 52
3 35 36 56
3 38 35 56
3 36 41 57
3 56 36 57
3 37 38 58
3 38 56 58
3 37 58 55
3 39 40 59
3 42 39 59
3 40 53 60
3 59 40 60
3 41 42 61
3 57 41 61
3 42 59 62
3 61 42 62
3 43 63 54
3 46 44 64
3 64 44 51
3 48 45 65
3 65 45 46
3 65 46 66
3 66 46 64
3 49 47 67
3 67 47 48
3 67 48 68
3 68 48 65
3 69 49 70
3 70 49 67
3 52 55 72
3 64 51 73
3 51 50 73
3 50 52 73
3 73 52 74
3 74 52 72
3 53 54 75
3 60 53 75
3 54 63 76
3 54 76 77
3 75 54 77
3 55 58 78
3 72 55 78
3 72 78 79
3 56 57 80
3 57 61 80
3 56 80 58
3 58 80 81
3 78 58 81
3 59 60 82
3 62 59 82
3 60 75 83
3 82 60 83
3 61 62 84
3 62 82 84
3 61 84 80
3 63 85 76
3 66 64 86
3 64 73 86
3 68 65 87
3 87 65 66
3 87 66 86
3 70 67 88
3 88 67 68
3 88 68 89
3 89 68 87
3 71 69 90
3 90 69 70
3 90 70 91
3 91 70 88
3 92 71 93
3 93 71 90
3 74 72 94
3 94 72 79
3 86 73 95
3 95 73 74
3 95 74 96
3 96 74 94
3 97 86 95
3 76 85 99
3 75 77 100
3 83 75 100
3 76 99 101
3 77 76 101
3 77 101 102
3 100 77 102
3 94 79 103
3 78 81 104
3 79 78 104
3 79 104 103
3 80 84 105
3 81 80 105
3 81 105 106
3 104 81 106
3 82 83 107
3 83 100 107
3 82 107 84
3 84 107 108
3 105 84 108
3 85 109 99
3 89 87 110
3 87 86 110
3 110 86 97
3 91 88 111
3 111 88 89
3 111 89 110
3 93 90 112
3 112 90 91
3 112 91 113
3 113 91 111
3 98 92 114
3 114 92 93
3 114 93 115
3 115 93 112
3 116 98 114
3 117 103 118
3 96 94 119
3 94 103 119
3 119 103 117
3 97 95 120
3 120 95 96
3 120 96 119
3 121 110 97
3 121 97 122
3 122 97 120
3 123 119 117
3 124 98 116
3 99 109 125
3 99 125 126
3 101 99 126
3 100 102 127
3 100 127 107
3 101 126 128
3 102 101 128
3 102 128 127
3 104 106 129
3 104 129 103
3 103 129 118
3 105 108 130
3 106 105 130
3 106 130 129
3 107 127 131
3 108 107 131
3 108 131 132
3 108 132 130
3 109 134 125
3 125 134 133
3 113 111 135
3 111 110 135
3 135 110 121
3 115 112 136
3 136 112 113
3 136 113 135
3 116 114 137
3 137 114 115
3 137 115 138
3 138 115 136
3 139 124 116
3 139 116 140
3 140 116 137
3 141 135 121
3 118 129 142
3 118 142 143
3 117 118 143
3 123 117 143
3 122 120 144
3 120 119 144
3 144 119 123
3 141 121 145
3 145 121 122
3 145 122 144
3 146 141 145
3 147 144 123
3 147 123 148
3 143 148 123
3 150 124 139
3 149 150 139
3 131 127 151
3 125 133 152
3 126 125 152
3 126 152 153
3 128 126 153
3 128 153 154
3 128 154 127
3 127 154 151
3 152 133 155
3 130 132 156
3 130 156 129
3 129 156 142
3 131 151 157
3 132 131 157
3 132 157 156
3 156 158 142
3 157 151 159
3 133 160 155
3 134 161 133
3 133 161 160
3 138 136 162
3 136 135 162
3 162 135 141
3 140 137 163
3 163 137 138
3 163 138 162
3 149 139 164
3 164 139 140
3 164 140 165
3 165 140 163
3 166 149 164
3 167 162 141
3 167 141 146
3 142 158 168
3 143 142 168
3 143 168 148
3 146 145 169
3 145 144 169
3 169 144 147
3 170 167 146
3 170 146 169
3 171 169 147
3 171 147 148
3 171 148 172
3 168 172 148
3 173 149 166
3 174 150 149
3 173 174 149
3 154 175 151
3 151 175 159
3 152 155 176
3 153 152 176
3 153 176 177
3 153 177 154
3 154 177 175
3 155 160 178
3 155 178 179
3 176 155 179
3 156 157 180
3 156 180 158
3 157 159 181
3 157 181 180
3 158 180 182
3 158 182 168
3 159 175 183
3 159 183 181
3 175 184 183
3 160 186 178
3 178 186 185
3 161 187 160
3 160 187 186
3 165 163 188
3 163 162 188
3 188 162 167
3 166 164 189
3 189 164 165
3 189 165 188
3 190 173 166
3 190 166 191
3 191 166 189
3 192 188 167
3 192 167 170
3 193 192 170
3 182 194 168
3 194 172 168
3 193 170 195
3 170 169 195
3 195 169 171
3 196 195 171
3 196 171 172
3 194 197 172
3 197 198 172
3 198 196 172
3 200 173 190
3 199 200 190
3 201 174 173
3 200 201 173
3 176 179 202
3 177 176 202
3 177 202 175
3 175 202 184
3 178 185 203
3 178 203 179
3 179 203 202
3 203 185 204
3 202 205 184
3 183 206 181
3 180 181 206
3 180 206 182
3 182 206 194
3 183 184 207
3 205 207 184
3 183 207 206
3 185 208 204
3 186 209 185
3 185 209 208
3 187 210 186
3 186 210 209
3 191 189 211
3 189 188 211
3 211 188 192
3 199 190 212
3 212 190 191
3 212 191 211
3 213 199 212
3 214 211 192
3 214 192 193
3 215 214 193
3 215 193 195
3 206 216 194
3 216 197 194
3 216 217 197
3 215 195 218
3 218 195 196
3 198 218 196
3 217 219 197
3 219 218 198
3 197 219 198
3 220 199 213
3 221 200 199
3 220 221 199
3 222 201 200
3 221 222 200
3 203 204 223
3 203 223 202
3 202 223 205
3 204 208 224
3 204 224 223
3 205 223 225
3 205 225 207
3 207 225 226
3 207 226 206
3 226 216 206
3 208 228 224
3 224 228 227
3 209 229 208
3 229 228 208
3 210 230 209
3 209 230 229
3 213 212 231
3 212 211 231
3 231 211 214
3 232 220 213
3 232 213 231
3 233 231 214
3 233 214 215
3 234 233 215
3 234 215 218
3 226 235 216
3 235 217 216
3 235 236 217
3 217 236 219
3 237 234 218
3 237 218 219
3 236 238 219
3 238 237 219
3 240 220 232
3 239 240 232
3 241 221 220
3 240 241 220
3 242 222 221
3 241 242 221
3 224 227 243
3 224 243 223
3 223 243 225
3 225 243 244
3 225 244 226
3 226 244 235
3 227 245 243
3 228 246 227
3 227 246 245
3 229 247 228
3 228 247 246
3 230 248 229
3 229 248 247
3 239 232 249
3 232 231 249
3 249 231 233
3 250 249 233
3 250 233 234
3 237 250 234
3 244 251 235
3 235 251 236
3 251 252 236
3 236 252 238
3 252 253 238
3 253 250 237
3 253 237 238
3 254 239 249
3 255 240 239
3 254 255 239
3 256 241 240
3 255 256 240
3 257 242 241
3 256 257 241
3 245 258 243
3 243 258 244
3 244 258 251
3 245 259 258
3 246 260 245
3 245 260 259
3 247 261 246
3 246 261 260
3 248 262 247
3 247 262 261
3 254 249 263
3 263 249 250
3 253 263 250
3 258 264 251
3 251 264 252
3 264 265 252
3 265 263 253
3 252 265 253
3 266 254 263
3 267 255 254
3 266 267 254
3 268 256 255
3 267 268 255
3 269 257 256
3 268 269 256
3 259 270 258
3 270 264 258
3 260 271 259
3 259 271 270
3 261 272 260
3 260 272 271
3 262 273 261
3 273 272 261
3 270 274 264
3 275 266 263
3 275 263 265
3 274 276 264
3 276 265 264
3 276 277 265
3 277 275 265
3 278 267 266
3 275 278 266
3 279 268 267
3 278 279 267
3 280 269 268
3 279 280 268
3 271 281 270
3 270 281 274
3 272 282 271
3 271 282 281
3 273 283 272
3 272 283 282
3 281 284 274
3 274 284 276
3 285 278 275
3 277 285 275
3 284 286 276
3 286 285 277
3 276 286 277
3 287 279 278
3 285 287 278
3 288 280 279
3 287 288 279
3 282 289 281
3 281 289 284
3 283 290 282
3 282 290 289
3 289 291 284
3 284 291 286
3 291 292 286
3 292 287 285
3 286 292 285
3 293 288 287
3 292 293 287
3 290 294 289
3 289 294 291
3 294 295 291
3 295 293 292
3 291 295 292
CELL_TYPES 542
5
5
5
5
5
5
5
5
5
5
5
5
5
5
5
5
5
5
5
5
5
5
5
5
5
5
5
5
5
5
5
5
5
5
5
5
5
5
5
5
5
5
5
5
5
5
5
5
5
5
5
5
5
5
5
5
5
5
5
5
5
5
5
5
5
5
5
5
5
5
5
5
5
5
5
5
5
5
5
5
5
5
5
5
5
5
5
5
5
5
5
5
5
5
5
5
5
5
5
5
5
5
5
5
5
5
5
5
5
5
5
5
5
5
5
5
5
5
5
5
5
5
5
5
5
5
5
5
5
5
5
5
5
5
5
5
5
5
5
5
5
5
5
5
5
5
5
5
5
5
5
5
5
5
5
5
5
5
5
5
5
5
5
5
5
5
5
5
5
5
5
5
5
5
5
5
5
5
5
5
5
5
5
5
5
5
5
5
5
5
5
5
5
5
5
5
5
5
5
5
5
5
5
5
5
5
5
5
5
5
5
5
5
5
5
5
5
5
5
5
5
5
5
5
5
5
5
5
5
5
5
5
5
5
5
5
5
5
5
5
5
5
5
5
5
5
5
5
5
5
5
5
5
5
5
5
5
5
5
5
5
5
5
5
5
5
5
5
5
5
5
5
5
5
5
5
5
5
5
5
5
5
5
5
5
5
5
5
5
5
5
5
5
5
5
5
5
5
5
5
5
5
5
5
5
5
5
5
5
5
5
5
5
5
5
5
5
5
5
5
5
5
5
5
5
5
5
5
5
5
5
5
5
5
5
5
5
5
5
5
5
5
5
5
5
5
5
5
5
5
5
5
5
5
5
5
5
5
5
5
5
5
5
5
5
5
5
5
5
5
5
5
5
5
5
5
5
5
5
5
5
5
5
5
5
5
5
5
5
5
5
5
5
5
5
5
5
5
5
5
5
5
5
5
5
5
5
5
5
5
5
5
5
5
5
5
5
5
5
5
5
5
5
5
5
5
5
5
5
5
5
5
5
5
5
5
5
5
5
5
5
5
5
5
5
5
5
5
5
5
5
5
5
5
5
5
5
5
5
5
5
5
5
5
5
5
5
5
5
5
5
5
5
5
5
5
5
5
5
5
5
5
5
5
5
5
5
5
5
5
5
5
5
5
5
5
5
5
5
5
5
5
5
5
5
5
5
5
5
5
5
5
5
5
5
5
5
5
5
5
5
5
5
5
5
5
5
5
5
5
5
5
5
5
5
5
5
5
5
5
5
5
POINT_DATA 296
SCALARS concentrations float 4
LOOKUP_TABLE default
0 0.970298 0.180005 11.1963
0 0.970302 0.179781 11.1714
0 0.970298 0.179383 11.1402
0 0.970294 0.177938 11.1176
0 0.970731 0.0936489 0.470199
0 0.970306 0.179259 11.1195
0 0.970294 0.178789 11.0824
0 0.970743 0.0936289 0.470894
0 0.970733 0.0936299 0.472579
0 0.970228 0.178557 11.077
0 0.970008 0.178953 11.1653
0 0.970269 0.177426 10.9378
0 0.970269 0.175937 11.1242
0 0.97074 0.0936467 0.467267
0 0.970723 0.0936029 0.445299
0 0.971579 0.0935932 0.456804
0 0.971565 0.0935591 0.456006
0 0.970748 0.0935815 0.461034
0 0.970727 0.0935833 0.460235
0 0.971572 0.0935538 0.458636
0 0.971559 0.0935343 0.456456
0 0.969697 0.171824 11.8424
0 0.970097 0.180977 11.3563
0 0.970637 0.0936152 0.47344
0 0.97036 0.0937287 0.286618
0 0.970725 0.0936272 0.417653
0 0.970289 0.177501 10.949
0 0.970717 0.0936433 0.426468
0 0.970343 0.178104 11.0257
0 0.971565 0.0936067 0.454744
0 0.971577 0.0935513 0.431581
0 0.972345 0.0932749 0.405416
0 0.970546 0.178895 11.0058
0 0.972461 0.0931208 0.383053
0 0.972323 0.0932812 0.412145
0 0.971578 0.0935309 0.45638
0 0.971571 0.0935546 0.450934
0 0.972446 0.0931363 0.390009
0 0.972308 0.0933111 0.422109
0 0.970391 0.0937742 0.24658
0 0.970751 0.0937297 0.491806
0 0.971498 0.0935843 0.354316
0 0.971413 0.0935982 0.31894
0 0.970974 0.172197 8.8099
0 0.971576 0.0936072 0.438395
0 0.970755 0.0935878 0.458943
0 0.971589 0.0936423 0.455492
0 0.970376 0.177446 10.9643
0 0.970784 0.0935418 0.462346
0 0.970413 0.177201 10.9273
0 0.972461 0.0931721 0.385546
0 0.972338 0.09332 0.407503
0 0.973025 0.0924647 0.277691
0 0.971154 0.0936563 0.673646
0 0.971189 0.0935771 0.694886
0 0.973019 0.0924695 0.278266
0 0.972471 0.0931856 0.404075
0 0.97237 0.0933346 0.395029
0 0.973009 0.0925063 0.28701
0 0.971506 0.0935748 0.338366
0 0.971712 0.0935197 0.551126
0 0.972501 0.093252 0.371896
0 0.972343 0.0933762 0.366833
0 0.970709 0.176978 10.8183
0 0.972492 0.0931532 0.384291
0 0.971598 0.0935848 0.461726
0 0.972367 0.0933155 0.412397
0 0.970809 0.0935047 0.446941
0 0.971627 0.0935098 0.448213
0 0.970526 0.177077 10.9189
0 0.970833 0.0934774 0.43715
0 0.97086 0.177277 10.8582
0 0.973471 0.0921789 0.234066
0 0.973039 0.0924795 0.280515
0 0.973492 0.0921862 0.23768
0 0.971774 0.0934508 0.582243
0 0.970948 0.0934825 0.449373
0 0.971698 0.093474 0.578922
0 0.973471 0.0921828 0.23122
0 0.973869 0.092054 0.210745
0 0.973043 0.0925337 0.296288
0 0.973467 0.0922174 0.238128
0 0.97248 0.0930992 0.372705
0 0.972329 0.0931375 0.438621
0 0.973059 0.0925417 0.290094
0 0.970498 0.177217 10.9717
0 0.973053 0.0924467 0.274974
0 0.972509 0.0931426 0.388212
0 0.971609 0.0935131 0.44197
0 0.972383 0.0932749 0.405488
0 0.970991 0.0934344 0.441654
0 0.971619 0.0934712 0.444278
0 0.971423 0.17146 8.69079
0 0.971387 0.0935107 0.686391
0 0.973939 0.0919747 0.199786
0 0.973491 0.0921966 0.237874
0 0.973896 0.0920363 0.212238
0 0.973519 0.0921671 0.226656
0 0.971415 0.171938 8.72792
0 0.970849 0.0934867 0.447997
0 0.972421 0.0930988 0.413985
0 0.971607 0.0933866 0.436219
0 0.972281 0.0932425 0.435404
0 0.974196 0.0917227 0.150317
0 0.973927 0.0919948 0.196376
0 0.973492 0.0922306 0.23992
0 0.973879 0.0920852 0.210934
0 0.973031 0.0925101 0.27408
0 0.973509 0.0921997 0.226551
0 0.970436 0.176887 10.9094
0 0.97308 0.0924321 0.264559
0 0.972496 0.0931314 0.373676
0 0.971723 0.0934115 0.567688
0 0.972317 0.0932547 0.424159
0 0.971662 0.093585 0.873731
0 0.971881 0.0933315 0.677108
0 0.971384 0.093519 0.672011
0 0.974415 0.0915643 0.119216
0 0.974424 0.0915601 0.117393
0 0.974212 0.0916839 0.144906
0 0.973962 0.091974 0.196545
0 0.973524 0.0921397 0.205022
0 0.973919 0.0920461 0.200471
0 0.974466 0.0914537 0.0975904
0 0.970855 0.177517 10.8872
0 0.970841 0.0934905 0.450483
0 0.971637 0.0933455 0.419822
0 0.973021 0.0926273 0.2878
0 0.972412 0.0931957 0.387359
0 0.97422 0.0917284 0.146452
0 0.973956 0.0920017 0.193056
0 0.973557 0.0922009 0.217955
0 0.973933 0.0919894 0.187751
0 0.970825 0.0935206 0.443739
0 0.970414 0.17704 10.9139
0 0.973058 0.0923936 0.236782
0 0.972446 0.0930389 0.408617
0 0.971882 0.0933265 0.661894
0 0.972325 0.0931103 0.473191
0 0.971003 0.0934482 0.434728
0 0.971744 0.0933794 0.543647
0 0.973541 0.092123 0.187887
0 0.974487 0.0914684 0.101131
0 0.974577 0.0912632 0.0627725
0 0.974243 0.0916632 0.13463
0 0.973999 0.0919607 0.177004
0 0.973954 0.0920469 0.185918
0 0.974468 0.0914181 0.0898423
0 0.974605 0.0910841 0.0309215
0 0.970856 0.0934763 0.437443
0 0.970537 0.177899 11.0046
0 0.973555 0.0922393 0.224749
0 0.971651 0.0933915 0.427617
0 0.972392 0.0932922 0.405227
0 0.973111 0.0926743 0.296082
0 0.971627 0.093496 0.441784
0 0.974257 0.0917178 0.143936
0 0.974025 0.091966 0.184633
0 0.974502 0.0914836 0.106042
0 0.973881 0.0922282 0.227979
0 0.970796 0.0935132 0.433036
0 0.97038 0.176358 10.9401
0 0.973041 0.0923477 0.219531
0 0.972461 0.0929959 0.395935
0 0.971635 0.093447 0.432978
0 0.972338 0.0931905 0.405495
0 0.971633 0.0935103 0.439199
0 0.973535 0.0921452 0.194091
0 0.974617 0.0910911 0.0398988
0 0.974271 0.0916451 0.127845
0 0.97401 0.0920018 0.183907
0 0.974503 0.0913617 0.0835623
0 0.974603 0.0911354 0.0513486
0 0.97084 0.0934633 0.440818
0 0.970441 0.176776 10.8885
0 0.97349 0.0923208 0.243843
0 0.972435 0.0931784 0.39247
0 0.973004 0.0927776 0.320705
0 0.971626 0.0935547 0.440601
0 0.972392 0.0931983 0.396232
0 0.974346 0.0916527 0.135354
0 0.974199 0.0918602 0.168682
0 0.974517 0.0914571 0.10293
0 0.973986 0.0920942 0.206101
0 0.973601 0.0923922 0.258487
0 0.971539 0.0935372 0.361667
0 0.970685 0.0934809 0.446682
0 0.97031 0.176013 10.7786
0 0.973065 0.0923891 0.235321
0 0.972518 0.0930785 0.358093
0 0.971641 0.0935072 0.445018
0 0.972422 0.0932546 0.396717
0 0.973547 0.0921916 0.212449
0 0.973953 0.0920956 0.203627
0 0.974541 0.091362 0.0875387
0 0.974277 0.0916774 0.137157
0 0.974484 0.0914644 0.102959
0 0.974493 0.0914913 0.105553
0 0.974481 0.0915155 0.109889
0 0.97165 0.0935108 0.44858
0 0.970842 0.0934477 0.440276
0 0.970424 0.176996 10.9076
0 0.973055 0.0925772 0.294512
0 0.972524 0.0931401 0.375732
0 0.972393 0.0933466 0.380168
0 0.973447 0.0923873 0.263204
0 0.974287 0.0916658 0.135252
0 0.973928 0.0920835 0.202715
0 0.971509 0.0935025 0.335648
0 0.97047 0.09357 0.293224
0 0.97013 0.176091 10.9008
0 0.973092 0.0924105 0.253604
0 0.972548 0.0931155 0.378765
0 0.972405 0.0933723 0.423217
0 0.973533 0.0921914 0.218704
0 0.973995 0.092032 0.192396
0 0.974329 0.0917143 0.13941
0 0.97427 0.0918705 0.159822
0 0.974256 0.0917495 0.144861
0 0.974255 0.0918164 0.150295
0 0.97161 0.0935317 0.452234
0 0.970837 0.0933849 0.431194
0 0.970429 0.175765 10.7894
0 0.973059 0.0925796 0.301262
0 0.97256 0.0931086 0.357137
0 0.973536 0.0922385 0.234916
0 0.974011 0.0919443 0.176239
0 0.972471 0.0932198 0.374409
0 0.971578 0.093544 0.344344
0 0.970478 0.0935855 0.256386
0 0.969826 0.17174 11.4683
0 0.973094 0.0924166 0.258161
0 0.972524 0.0931774 0.387122
0 0.973518 0.0921647 0.209386
0 0.97392 0.0921097 0.197967
0 0.973966 0.0920177 0.184798
0 0.973943 0.0920739 0.191513
0 0.973963 0.0920637 0.186814
0 0.973891 0.0921333 0.199769
0 0.972377 0.093279 0.406446
0 0.971618 0.0935188 0.449475
0 0.970833 0.0933775 0.430398
0 0.970435 0.174851 10.7077
0 0.97309 0.0924419 0.275702
0 0.973558 0.0921268 0.210346
0 0.972562 0.0930961 0.388637
0 0.97168 0.0935442 0.447129
0 0.970755 0.0935033 0.452508
0 0.970158 0.177778 11.0589
0 0.973057 0.092403 0.249623
0 0.973493 0.0921746 0.205394
0 0.973547 0.0920961 0.203159
0 0.97351 0.092135 0.211064
0 0.973499 0.0921543 0.207671
0 0.972497 0.0930738 0.393592
0 0.971644 0.0934551 0.452638
0 0.970874 0.093417 0.433776
0 0.970454 0.176148 10.8273
0 0.973102 0.0924523 0.274602
0 0.972426 0.0932547 0.417329
0 0.971699 0.0934606 0.446595
0 0.970852 0.0934506 0.431444
0 0.970369 0.176732 10.8485
0 0.973059 0.0924066 0.256951
0 0.973127 0.0924294 0.274971
0 0.973117 0.0924108 0.270519
0 0.97241 0.0932025 0.42433
0 0.971752 0.0934018 0.549385
0 0.970979 0.0933868 0.436523
0 0.970525 0.176933 10.8993
0 0.972581 0.0931344 0.382812
0 0.9717 0.093451 0.441069
0 0.970883 0.0934361 0.435453
0 0.970437 0.176155 10.7979
0 0.972491 0.0933105 0.377046
0 0.972569 0.0930868 0.386364
0 0.972623 0.0931515 0.349006
0 0.97248 0.0932778 0.367933
0 0.971741 0.0934315 0.454736
0 0.971169 0.0933662 0.666116
0 0.970711 0.176447 10.7355
0 0.971619 0.0935109 0.365112
0 0.970797 0.0934572 0.45526
0 0.970407 0.176701 10.8494
0 0.971574 0.0935291 0.328948
0 0.971664 0.0934823 0.432993
0 0.971533 0.0934949 0.240546
0 0.970888 0.0935467 0.491274
0 0.970821 0.168629 8.66947
0 0.970536 0.0935408 0.293106
0 0.97021 0.1767 10.9669
0 0.970448 0.0934921 0.226969
0 0.970558 0.0934369 0.230391
0 0.970137 0.169572 11.0844
0 0.969834 0.170899 11.3566
0 0.970025 0.175329 11.0651
VECTORS fa_u float
0.0103488 0.0042731 0
0.00968345 0.0055705 0
0.0107629 0.00287471 0
0.0110133 0.00151955 0
0.000447068 0.000145661 0
0.00883294 0.00675447 0
0.00785142 0.00782148 0
0.000426235 0.000200161 0
0.000393228 0.000262113 0
0.00676963 0.00876769 0
0.00555752 0.00968385 0
0.0109378 1.80598e-05 0
0.0110211 -0.00151128 0
0.000458418 9.05074e-05 0
0.000443166 4.35381e-05 0
0.000440854 0.000119654 0
0.000425083 0.000165063 0
0.000344338 0.000306567 0
0.000311975 0.00033836 0
0.000397934 0.000228025 0
0.000359273 0.000281557 0
0.00451436 0.0109483 0
0.0029726 0.0109603 0
0.000320544 0.000348421 0
0.000251269 0.00013789 0
0.000416358 -3.28663e-05 0
0.0105742 -0.00284015 0
0.000418197 -8.35832e-05 0
0.0101843 -0.00422452 0
0.000451749 5.21071e-05 0
0.0004315 8.33771e-06 0
0.000399325 7.0009e-05 0
0.00147061 0.0109071 0
0.000364596 0.000117473 0
0.000374887 0.000171239 0
0.000315783 0.00032949 0
0.000292478 0.000343218 0
0.000324434 0.000216447 0
0.000312474 0.00028379 0
-6.68956e-05 0.000237332 0
-1.94388e-05 0.000491422 0
0.00024344 0.000257442 0
0.000155659 0.000278376 0
-1.5336e-05 0.00880988 0
0.000434195 -6.05379e-05 0
0.000431476 -0.000156388 0
0.00043912 -0.000121022 0
0.00949231 -0.00548737 0
0.000420083 -0.000193118 0
0.00866642 -0.00665573 0
0.000385146 1.75582e-05 0
0.000406961 -2.10166e-05 0
0.000274678 4.07964e-05 0
-9.69815e-05 0.000666629 0
9.28997e-05 0.000688648 0
0.00025657 0.000107719 0
0.000261582 0.000307979 0
0.000237141 0.000315931 0
0.00021936 0.000185083 0
-1.11056e-06 0.000338364 0
-1.3726e-05 0.000550955 0
0.000184777 0.000322744 0
0.000135931 0.000340718 0
-0.00147683 0.010717 0
0.000378429 -6.6864e-05 0
0.000427525 -0.000174394 0
0.000390766 -0.000131809 0
0.000385516 -0.000226127 0
0.000402151 -0.000197913 0
0.00770882 -0.00773286 0
0.000334143 -0.000281866 0
0.00664272 -0.00858928 0
0.000226851 5.76688e-05 0
0.000279695 -2.14251e-05 0
0.000237543 8.06775e-06 0
-4.45225e-07 0.000582243 0
-7.15739e-06 0.000449316 0
8.39935e-06 0.000578861 0
0.000200118 0.000115826 0
0.000195509 7.86752e-05 0
0.000174197 0.000239671 0
0.000167194 0.000169561 0
7.02572e-05 0.000366023 0
2.81143e-05 0.000437719 0
0.000118291 0.00026488 0
-0.00282639 0.0106014 0
0.000263236 -7.94804e-05 0
0.00035456 -0.000158099 0
0.000369932 -0.000241843 0
0.000356794 -0.000192662 0
0.000230522 -0.00037672 0
0.000314593 -0.00031371 0
0.00439184 -0.00749944 0
0.000204867 -0.000655104 0
0.000197037 3.3028e-05 0
0.000233245 -4.67001e-05 0
0.000211695 -1.51696e-05 0
0.000207978 -9.00992e-05 0
0.0033013 -0.00807948 0
-0.00012673 0.000429698 0
-1.62834e-05 0.000413664 0
-9.17847e-05 0.000426453 0
-6.52843e-05 0.000430482 0
0.000138979 5.72699e-05 0
0.000155234 0.000120275 0
0.00012373 0.000205554 0
0.00012954 0.000166471 0
3.9501e-05 0.000271219 0
6.99172e-05 0.000215493 0
-0.00417568 0.0100787 0
0.00023257 -0.000126108 0
0.000305183 -0.000215632 0
0.000269645 -0.000499561 0
0.000280684 -0.000318005 0
0.000388616 -0.000782549 0
0.000279608 -0.00061668 0
0.000386393 -0.000549818 0
0.000117021 2.2769e-05 0
9.56068e-05 6.81212e-05 0
0.000144669 -8.27827e-06 0
0.000187735 -5.81872e-05 0
0.000161745 -0.000125987 0
0.00017 -0.000106248 0
9.44718e-05 -2.44738e-05 0
0.00279775 -0.0105216 0
-0.000203779 0.000401758 0
-0.000163691 0.000386595 0
-4.78069e-05 0.000283802 0
-0.000131017 0.000364529 0
9.11362e-05 0.00011464 0
7.38673e-05 0.000178365 0
3.57746e-07 0.000217954 0
2.62202e-05 0.000185911 0
-0.000254546 0.00036347 0
-0.00548082 0.00943789 0
0.000170966 -0.000163819 0
0.000223489 -0.000342082 0
0.000312832 -0.0005833 0
0.00020744 -0.000425298 0
0.000146493 -0.000409302 0
0.000219752 -0.000497254 0
0.000102992 -0.000157144 0
4.23283e-05 9.18465e-05 0
5.53232e-05 2.96602e-05 0
0.000113662 -7.21539e-05 0
0.000117366 -0.000132498 0
6.90074e-05 -0.000172637 0
5.66645e-05 -6.97193e-05 0
1.7941e-05 -2.51845e-05 0
2.1509e-05 -0.000436914 0
0.00147876 -0.0109048 0
-6.09725e-05 0.00021632 0
-0.000220132 0.000366604 0
-0.000179516 0.000363294 0
-0.000106965 0.000276085 0
-0.000273225 0.000347162 0
2.33436e-05 0.00014203 0
-2.68525e-05 0.00018267 0
-7.53651e-06 0.000105774 0
-8.22244e-05 0.000212635 0
-0.000287111 0.000324172 0
-0.00666464 0.00867576 0
8.67879e-05 -0.000201647 0
0.000126117 -0.000375312 0
5.0859e-05 -0.000429981 0
7.12098e-05 -0.000399193 0
-2.92499e-05 -0.000438224 0
3.85875e-05 -0.000190216 0
-1.56867e-05 3.66857e-05 0
4.68243e-05 -0.000118961 0
1.93058e-05 -0.000182891 0
3.43277e-07 -8.35616e-05 0
-4.38285e-05 -2.67533e-05 0
-5.0865e-05 -0.000437873 0
1.57093e-05 -0.0108885 0
-0.000123377 0.000210328 0
-0.000218465 0.000326045 0
-0.000171473 0.000271015 0
-0.000309009 0.000314074 0
-0.000266843 0.000292907 0
-3.77805e-05 0.000129974 0
-7.20371e-05 0.000152526 0
-6.01883e-05 8.34987e-05 0
-0.000118796 0.000168419 0
-0.000167054 0.000197252 0
-0.000242284 0.000268517 0
-0.000298483 0.000332314 0
-0.00757695 0.00766605 0
1.42325e-05 -0.000234891 0
-7.57287e-06 -0.000358013 0
-8.31495e-05 -0.000437181 0
-5.58313e-05 -0.000392769 0
-1.17791e-05 -0.000212123 0
-3.10064e-05 -0.000201253 0
-8.0364e-05 3.47081e-05 0
-2.2906e-05 -0.000135231 0
-4.71352e-05 -9.1536e-05 0
-0.000104286 -1.6302e-05 0
-8.6929e-05 -6.72231e-05 0
-0.00012293 -0.000431407 0
-9.81655e-05 -0.000429193 0
-0.00141779 -0.010815 0
-0.000197929 0.000218086 0
-0.000280348 0.000250159 0
-0.000303141 0.000229419 0
-0.000199856 0.000171271 0
-0.000102712 8.79968e-05 0
-0.000158615 0.000126233 0
-0.00027856 0.000187254 0
-0.000113255 0.000270469 0
-0.00866487 0.00661411 0
-3.9532e-05 -0.000250504 0
-8.32529e-05 -0.000369502 0
-0.000133209 -0.000401706 0
-5.64466e-05 -0.000211295 0
-6.88098e-05 -0.00017967 0
-0.000133788 3.91885e-05 0
-0.000159358 -1.21599e-05 0
-8.46426e-05 -0.00011756 0
-0.000133522 -6.89975e-05 0
-0.000164005 -0.000421447 0
-0.000140317 -0.000407725 0
-0.00277783 -0.0104257 0
-0.000243479 0.000177417 0
-0.000309567 0.000178087 0
-0.00020603 0.000112858 0
-0.000163825 6.49727e-05 0
-0.000353612 0.000123046 0
-0.00033066 9.61084e-05 0
-0.000256012 -1.38419e-05 0
-0.00994803 0.00570604 0
-8.18417e-05 -0.000244845 0
-0.000150454 -0.000356689 0
-8.97919e-05 -0.000189155 0
-0.000108892 -0.000165328 0
-0.000183786 1.93109e-05 0
-0.000188577 -3.34058e-05 0
-0.000141504 -0.000121967 0
-0.000182658 -8.08925e-05 0
-0.000220393 -0.000341505 0
-0.000205076 -0.000399964 0
-0.00017817 -0.000391788 0
-0.00410353 -0.00989016 0
-0.000253644 0.000108057 0
-0.000203016 5.50454e-05 0
-0.000379419 8.41402e-05 0
-0.000435114 0.000102955 0
-0.000440832 0.000102134 0
-0.0102045 0.00426247 0
-0.000133203 -0.000211113 0
-0.000135863 -0.000154039 0
-0.000203035 -7.1004e-06 0
-0.000202297 -6.01998e-05 0
-0.000177701 -0.000107468 0
-0.000270648 -0.00028577 0
-0.000299139 -0.000339702 0
-0.000249925 -0.000354541 0
-0.00543925 -0.00936187 0
-0.000273038 2.92639e-05 0
-0.000415993 3.33604e-05 0
-0.00044118 6.93343e-05 0
-0.00042266 8.6616e-05 0
-0.0104857 0.00278205 0
-0.000199108 -0.000162419 0
-0.000270505 -4.9354e-05 0
-0.000248679 -0.000106485 0
-0.000322402 -0.000275886 0
-0.000428434 -0.000343901 0
-0.000330173 -0.000285549 0
-0.00665249 -0.00863365 0
-0.000382229 -2.11193e-05 0
-0.000440754 1.66729e-05 0
-0.000432907 4.70121e-05 0
-0.0107047 0.00141636 0
-0.000371281 -6.56784e-05 0
-0.0003273 -0.000205308 0
-0.000333978 -0.000101312 0
-0.000320352 -0.000180969 0