# vtk DataFile Version 2.0
CellBP Time: 0.12
ASCII
DATASET UNSTRUCTURED_GRID
POINTS 296 double
-9.18568 -3.77565 0
-8.60748 -4.94849 0
-9.60561 -2.53717 0
-9.85992 -1.25424 0
-8.35759 -2.81864 0
-7.88104 -6.03572 0
-7.01886 -7.01883 0
-7.91723 -3.87473 0
-7.34267 -4.86786 0
-6.03572 -7.88102 0
-4.94845 -8.60752 0
-9.95911 0.0499913 0
-9.85993 1.35426 0
-8.65792 -1.68361 0
-8.7877 -0.52886 0
-7.58994 -2.00412 0
-7.22588 -2.90655 0
-6.63767 -5.7789 0
-5.82244 -6.59693 0
-6.7904 -3.88902 0
-6.22071 -4.67603 0
-3.77564 -9.18586 0
-2.53737 -9.60618 0
-4.90651 -7.30885 0
-3.91304 -7.88628 0
-8.79414 0.642631 0
-9.60565 2.6372 0
-8.62354 1.77376 0
-9.1857 3.87567 0
-7.74485 -0.928829 0
-7.79517 0.0802635 0
-6.95284 -1.31592 0
-1.25483 -9.86135 0
-6.44167 -2.15324 0
-6.31956 -3.05628 0
-5.53667 -5.47469 0
-4.79603 -6.11561 0
-5.65921 -3.75716 0
-5.26958 -4.56175 0
-2.86618 -8.36398 0
-1.77856 -8.64029 0
-3.92824 -6.72371 0
-3.05669 -7.15278 0
0.050027 -9.94687 0
-7.70606 1.14338 0
-8.33868 2.9154 0
-7.55217 2.11197 0
-8.60751 5.04851 0
-7.88015 3.9783 0
-7.88106 6.13574 0
-6.77901 -0.396862 0
-6.95691 0.552558 0
-5.77155 -1.00347 0
-0.590824 -8.80979 0
0.565707 -8.77099 0
-5.3033 -2.4804 0
-4.49215 -5.09592 0
-3.90266 -5.77553 0
-4.43909 -3.80491 0
-2.06247 -7.56216 0
-1.1355 -7.78607 0
-2.99467 -6.10231 0
-2.30911 -6.62006 0
1.35488 -9.86137 0
-6.68975 1.42212 0
-7.17241 3.11824 0
-6.65953 2.37315 0
-7.29486 4.98877 0
-6.7183 4.00323 0
-7.01887 7.11885 0
-6.57264 5.89428 0
-6.03572 7.98104 0
-4.45323 -1.18112 0
-5.81477 0.513792 0
-4.65628 -0.0103817 0
0.00853144 -7.84837 0
1.73861 -8.644 0
0.949008 -7.76373 0
-4.03866 -2.40648 0
-3.48567 -1.39125 0
-3.29466 -4.80554 0
-3.266 -3.2679 0
-1.37864 -6.67578 0
-0.508754 -7.02529 0
-1.97564 -5.53728 0
2.63737 -9.60625 0
-5.50754 2.03706 0
-6.095 3.07241 0
-6.10536 4.86987 0
-5.76203 3.99172 0
-5.7615 6.71737 0
-5.45241 5.61965 0
-4.94845 8.70754 0
-4.83866 7.40485 0
-3.50162 -0.424318 0
-4.44945 1.24911 0
-3.7116 0.592101 0
-4.06233 2.31993 0
-3.77564 9.2859 0
2.86271 -8.33318 0
0.419725 -6.79584 0
2.02212 -7.52626 0
1.30617 -6.90601 0
-2.44478 -0.873843 0
-2.8385 -2.13121 0
-2.29451 -4.09755 0
-2.32575 -2.97371 0
-0.442394 -5.8615 0
-1.22278 -4.49935 0
3.87558 -9.18592 0
-4.79007 3.39201 0
-5.08828 4.59446 0
-4.64746 6.28182 0
-4.5392 5.36011 0
-3.84393 7.99376 0
-3.827 6.84616 0
-2.78346 8.42329 0
-1.64914 -0.137904 0
-1.45034 -0.890621 0
-2.48923 0.507278 0
-3.25376 1.44422 0
-3.23921 3.31673 0
-2.91112 2.37187 0
-1.35518 0.627129 0
-2.53739 9.70625 0
3.93293 -7.88742 0
2.96474 -7.15826 0
0.954163 -5.82242 0
2.07448 -6.41602 0
-1.68305 -1.99214 0
-1.4345 -3.27792 0
0.0902417 -4.74726 0
-0.56619 -3.6946 0
4.93257 -7.31917 0
5.04829 -8.60741 0
-3.77723 4.55194 0
-3.73507 5.7526 0
-2.88819 7.29041 0
-3.00996 6.35425 0
-1.66266 8.7342 0
-1.94026 7.61995 0
-2.33853 4.0519 0
-0.730767 -1.32731 0
-0.836946 -0.25764 0
-1.93631 1.68084 0
-2.12589 2.87597 0
-1.30665 3.54487 0
-0.869514 1.35088 0
-0.282388 0.456059 0
-0.533551 8.87228 0
-1.25485 9.96134 0
1.11287 -4.57489 0
3.9105 -6.71787 0
2.98816 -6.09531 0
2.11802 -5.42539 0
4.7851 -6.20587 0
-0.558873 -2.47693 0
0.495154 -3.46402 0
0.0535636 -1.61056 0
1.482 -3.68238 0
5.86817 -6.61498 0
6.13535 -7.88044 0
-2.47589 5.34891 0
-2.13065 6.53506 0
-0.904151 7.804 0
-1.27247 6.93272 0
0.0862149 7.88112 0
-1.14454 4.495 0
0.15033 -0.617683 0
-0.797479 2.48862 0
-0.331674 3.60093 0
0.0631015 1.51279 0
0.741474 0.47343 0
0.646839 8.87497 0
0.0500014 10.0469 0
2.38119 -4.28558 0
3.85961 -5.64103 0
3.00174 -5.21326 0
5.57507 -5.49242 0
4.69178 -5.28365 0
0.629722 -2.29348 0
1.25626 -2.9514 0
0.757547 -1.39153 0
2.1645 -3.13604 0
2.99403 -3.47687 0
6.15681 -4.79261 0
6.658 -5.7699 0
7.11794 -7.01737 0
-1.01974 5.82091 0
-0.372658 6.88437 0
1.12276 7.77045 0
0.55804 7.08065 0
-0.000769069 4.72556 0
0.607041 3.82809 0
1.339 -0.641943 0
0.539125 2.6512 0
0.966135 1.57501 0
1.91032 0.213861 0
1.61487 1.06507 0
2.12967 7.58455 0
1.79941 8.71337 0
1.35486 9.96135 0
3.82329 -4.35206 0
5.11764 -4.44964 0
5.84717 -3.93589 0
3.78443 -3.20137 0
1.81242 -1.88276 0
3.01943 -2.57411 0
6.78522 -3.94897 0
7.38361 -4.89864 0
7.98961 -6.04236 0
0.483411 5.88224 0
1.42837 6.74288 0
2.3747 6.6701 0
1.2101 4.55664 0
1.48831 3.39793 0
2.43601 -0.692092 0
2.82831 0.142595 0
1.78904 2.16301 0
2.61213 1.15023 0
3.0725 7.17123 0
2.90463 8.37801 0
2.6374 9.70626 0
4.91216 -3.32836 0
6.12219 -3.10941 0
4.17343 -2.27552 0
3.24479 -1.50306 0
6.733 -2.31374 0
7.23395 -3.04358 0
7.96684 -3.9136 0
8.71198 -4.95162 0
2.02391 5.60064 0
3.08707 6.15472 0
2.36421 4.12742 0
2.42035 3.06121 0
3.5261 -0.460928 0
3.61616 0.613338 0
2.96219 2.28833 0
3.54606 1.52544 0
4.01307 5.89938 0
3.98537 6.79467 0
3.97413 7.94034 0
3.87566 9.28595 0
5.57001 -1.91656 0
4.50993 -1.12978 0
6.71569 -1.3366 0
7.59464 -2.03729 0
8.39927 -2.86269 0
9.29187 -3.77806 0
3.41981 4.87796 0
3.33955 3.3859 0
4.69206 0.130081 0
4.51996 1.31018 0
4.06605 2.44419 0
4.57189 5.15387 0
4.8451 6.19251 0
4.98177 7.38236 0
5.04845 8.70755 0
5.88491 -0.435037 0
7.01302 -0.488468 0
7.76192 -1.08581 0
8.6872 -1.74669 0
9.7047 -2.53677 0
4.55366 3.82851 0
5.81936 1.09889 0
5.37281 2.53562 0
5.38206 4.62213 0
5.61416 5.52535 0
5.89908 6.67393 0
6.13572 7.98102 0
6.84851 0.463723 0
7.85611 -0.025687 0
8.86322 -0.584632 0
9.96105 -1.25469 0
6.96323 1.35007 0
5.72342 3.77983 0
6.54413 2.19842 0
6.38297 3.08925 0
6.29508 4.68871 0
6.69555 5.83981 0
7.11885 7.11879 0
7.7874 0.968077 0
8.86255 0.57297 0
10.0467 0.0499934 0
7.61947 2.0053 0
6.83233 3.90584 0
7.27285 2.94812 0
7.38125 4.88745 0
7.98088 6.13562 0
8.72614 1.72768 0
9.96108 1.35472 0
8.42428 2.83922 0
7.98509 3.91762 0
8.7065 5.04789 0
9.70506 2.63694 0
9.29338 3.87873 0
CELLS 542 2168
3 2 0 4
3 0 1 7
3 4 0 7
3 1 5 8
3 7 1 8
3 3 2 13
3 13 2 4
3 11 3 14
3 14 3 13
3 13 4 15
3 4 7 16
3 15 4 16
3 5 6 17
3 8 5 17
3 6 9 18
3 17 6 18
3 7 8 19
3 16 7 19
3 8 17 20
3 19 8 20
3 9 10 23
3 18 9 23
3 10 21 24
3 23 10 24
3 12 11 25
3 25 11 14
3 26 12 27
3 27 12 25
3 14 13 29
3 29 13 15
3 25 14 30
3 30 14 29
3 29 15 31
3 15 16 33
3 31 15 33
3 16 19 34
3 33 16 34
3 17 18 35
3 20 17 35
3 18 23 36
3 35 18 36
3 19 20 37
3 34 19 37
3 20 35 38
3 37 20 38
3 21 22 39
3 24 21 39
3 22 32 40
3 39 22 40
3 23 24 41
3 36 23 41
3 24 39 42
3 41 24 42
3 27 25 44
3 44 25 30
3 28 26 45
3 45 26 27
3 45 27 46
3 46 27 44
3 47 28 48
3 48 28 45
3 30 29 50
3 50 29 31
3 44 30 51
3 51 30 50
3 50 31 52
3 31 33 52
3 32 43 53
3 40 32 53
3 53 43 54
3 33 34 55
3 34 37 55
3 33 55 52
3 35 36 56
3 38 35 56
3 36 41 57
3 56 36 57
3 37 38 58
3 38 56 58
3 37 58 55
3 39 40 59
3 42 39 59
3 40 53 60
3 59 40 60
3 41 42 61
3 57 41 61
3 42 59 62
3 61 42 62
3 43 63 54
3 46 44 64
3 64 44 51
3 48 45 65
3 65 45 46
3 65 46 66
3 66 46 64
3 49 47 67
3 67 47 48
3 67 48 68
3 68 48 65
3 69 49 70
3 70 49 67
3 52 55 72
3 64 51 73
3 51 50 73
3 50 52 73
3 73 52 74
3 74 52 72
3 53 54 75
3 60 53 75
3 54 63 76
3 54 76 77
3 75 54 77
3 55 58 78
3 72 55 78
3 72 78 79
3 56 57 80
3 57 61 80
3 56 80 58
3 58 80 81
3 78 58 81
3 59 60 82
3 62 59 82
3 60 75 83
3 82 60 83
3 61 62 84
3 62 82 84
3 61 84 80
3 63 85 76
3 66 64 86
3 64 73 86
3 68 65 87
3 87 65 66
3 87 66 86
3 70 67 88
3 88 67 68
3 88 68 89
3 89 68 87
3 71 69 90
3 90 69 70
3 90 70 91
3 91 70 88
3 92 71 93
3 93 71 90
3 74 72 94
3 94 72 79
3 86 73 95
3 95 73 74
3 95 74 96
3 96 74 94
3 97 86 95
3 76 85 99
3 75 77 100
3 83 75 100
3 76 99 101
3 77 76 101
3 77 101 102
3 100 77 102
3 94 79 103
3 78 81 104
3 79 78 104
3 79 104 103
3 80 84 105
3 81 80 105
3 81 105 106
3 104 81 106
3 82 83 107
3 83 100 107
3 82 107 84
3 84 107 108
3 105 84 108
3 85 109 99
3 89 87 110
3 87 86 110
3 110 86 97
3 91 88 111
3 111 88 89
3 111 89 110
3 93 90 112
3 112 90 91
3 112 91 113
3 113 91 111
3 98 92 114
3 114 92 93
3 114 93 115
3 115 93 112
3 116 98 114
3 117 103 118
3 96 94 119
3 94 103 119
3 119 103 117
3 97 95 120
3 120 95 96
3 120 96 119
3 121 110 97
3 121 97 122
3 122 97 120
3 123 119 117
3 124 98 116
3 99 109 125
3 99 125 126
3 101 99 126
3 100 102 127
3 100 127 107
3 101 126 128
3 102 101 128
3 102 128 127
3 104 106 129
3 104 129 103
3 103 129 118
3 105 108 130
3 106 105 130
3 106 130 129
3 107 127 131
3 108 107 131
3 108 131 132
3 108 132 130
3 109 134 125
3 125 134 133
3 113 111 135
3 111 110 135
3 135 110 121
3 115 112 136
3 136 112 113
3 136 113 135
3 116 114 137
3 137 114 115
3 137 115 138
3 138 115 136
3 139 124 116
3 139 116 140
3 140 116 137
3 141 135 121
3 118 129 142
3 118 142 143
3 117 118 143
3 123 117 143
3 122 120 144
3 120 119 144
3 144 119 123
3 141 121 145
3 145 121 122
3 145 122 144
3 146 141 145
3 147 144 123
3 147 123 148
3 143 148 123
3 150 124 139
3 149 150 139
3 131 127 151
3 125 133 152
3 126 125 152
3 126 152 153
3 128 126 153
3 128 153 154
3 128 154 127
3 127 154 151
3 152 133 155
3 130 132 156
3 130 156 129
3 129 156 142
3 131 151 157
3 132 131 157
3 132 157 156
3 156 158 142
3 157 151 159
3 133 160 155
3 134 161 133
3 133 161 160
3 138 136 162
3 136 135 162
3 162 135 141
3 140 137 163
3 163 137 138
3 163 138 162
3 149 139 164
3 164 139 140
3 164 140 165
3 165 140 163
3 166 149 164
3 167 162 141
3 167 141 146
3 142 158 168
3 143 142 168
3 143 168 148
3 146 145 169
3 145 144 169
3 169 144 147
3 170 167 146
3 170 146 169
3 171 169 147
3 171 147 148
3 171 148 172
3 168 172 148
3 173 149 166
3 174 150 149
3 173 174 149
3 154 175 151
3 151 175 159
3 152 155 176
3 153 152 176
3 153 176 177
3 153 177 154
3 154 177 175
3 155 160 178
3 155 178 179
3 176 155 179
3 156 157 180
3 156 180 158
3 157 159 181
3 157 181 180
3 158 180 182
3 158 182 168
3 159 175 183
3 159 183 181
3 175 184 183
3 160 186 178
3 178 186 185
3 161 187 160
3 160 187 186
3 165 163 188
3 163 162 188
3 188 162 167
3 166 164 189
3 189 164 165
3 189 165 188
3 190 173 166
3 190 166 191
3 191 166 189
3 192 188 167
3 192 167 170
3 193 192 170
3 182 194 168
3 194 172 168
3 193 170 195
3 170 169 195
3 195 169 171
3 196 195 171
3 196 171 172
3 194 197 172
3 197 198 172
3 198 196 172
3 200 173 190
3 199 200 190
3 201 174 173
3 200 201 173
3 176 179 202
3 177 176 202
3 177 202 175
3 175 202 184
3 178 185 203
3 178 203 179
3 179 203 202
3 203 185 204
3 202 205 184
3 183 206 181
3 180 181 206
3 180 206 182
3 182 206 194
3 183 184 207
3 205 207 184
3 183 207 206
3 185 208 204
3 186 209 185
3 185 209 208
3 187 210 186
3 186 210 209
3 191 189 211
3 189 188 211
3 211 188 192
3 199 190 212
3 212 190 191
3 212 191 211
3 213 199 212
3 214 211 192
3 214 192 193
3 215 214 193
3 215 193 195
3 206 216 194
3 216 197 194
3 216 217 197
3 215 195 218
3 218 195 196
3 198 218 196
3 217 219 197
3 219 218 198
3 197 219 198
3 220 199 213
3 221 200 199
3 220 221 199
3 222 201 200
3 221 222 200
3 203 204 223
3 203 223 202
3 202 223 205
3 204 208 224
3 204 224 223
3 205 223 225
3 205 225 207
3 207 225 226
3 207 226 206
3 226 216 206
3 208 228 224
3 224 228 227
3 209 229 208
3 229 228 208
3 210 230 209
3 209 230 229
3 213 212 231
3 212 211 231
3 231 211 214
3 232 220 213
3 232 213 231
3 233 231 214
3 233 214 215
3 234 233 215
3 234 215 218
3 226 235 216
3 235 217 216
3 235 236 217
3 217 236 219
3 237 234 218
3 237 218 219
3 236 238 219
3 238 237 219
3 240 220 232
3 239 240 232
3 241 221 220
3 240 241 220
3 242 222 221
3 241 242 221
3 224 227 243
3 224 243 223
3 223 243 225
3 225 243 244
3 225 244 226
3 226 244 235
3 227 245 243
3 228 246 227
3 227 246 245
3 229 247 228
3 228 247 246
3 230 248 229
3 229 248 247
3 239 232 249
3 232 231 249
3 249 231 233
3 250 249 233
3 250 233 234
3 237 250 234
3 244 251 235
3 235 251 236
3 251 252 236
3 236 252 238
3 252 253 238
3 253 250 237
3 253 237 238
3 254 239 249
3 255 240 239
3 254 255 239
3 256 241 240
3 255 256 240
3 257 242 241
3 256 257 241
3 245 258 243
3 243 258 244
3 244 258 251
3 245 259 258
3 246 260 245
3 245 260 259
3 247 261 246
3 246 261 260
3 248 262 247
3 247 262 261
3 254 249 263
3 263 249 250
3 253 263 250
3 258 264 251
3 251 264 252
3 264 265 252
3 265 263 253
3 252 265 253
3 266 254 263
3 267 255 254
3 266 267 254
3 268 256 255
3 267 268 255
3 269 257 256
3 268 269 256
3 259 270 258
3 270 264 258
3 260 271 259
3 259 271 270
3 261 272 260
3 260 272 271
3 262 273 261
3 273 272 261
3 270 274 264
3 275 266 263
3 275 263 265
3 274 276 264
3 276 265 264
3 276 277 265
3 277 275 265
3 278 267 266
3 275 278 266
3 279 268 267
3 278 279 267
3 280 269 268
3 279 280 268
3 271 281 270
3 270 281 274
3 272 282 271
3 271 282 281
3 273 283 272
3 272 283 282
3 281 284 274
3 274 284 276
3 285 278 275
3 277 285 275
3 284 286 276
3 286 285 277
3 276 286 277
3 287 279 278
3 285 287 278
3 288 280 279
3 287 288 279
3 282 289 281
3 281 289 284
3 283 290 282
3 282 290 289
3 289 291 284
3 284 291 286
3 291 292 286
3 292 287 285
3 286 292 285
3 293 288 287
3 292 293 287
3 290 294 289
3 289 294 291
3 294 295 291
3 295 293 292
3 291 295 292
CELL_TYPES 542
5
5
5
5
5
5
5
5
5
5
5
5
5
5
5
5
5
5
5
5
5
5
5
5
5
5
5
5
5
5
5
5
5
5
5
5
5
5
5
5
5
5
5
5
5
5
5
5
5
5
5
5
5
5
5
5
5
5
5
5
5
5
5
5
5
5
5
5
5
5
5
5
5
5
5
5
5
5
5
5
5
5
5
5
5
5
5
5
5
5
5
5
5
5
5
5
5
5
5
5
5
5
5
5
5
5
5
5
5
5
5
5
5
5
5
5
5
5
5
5
5
5
5
5
5
5
5
5
5
5
5
5
5
5
5
5
5
5
5
5
5
5
5
5
5
5
5
5
5
5
5
5
5
5
5
5
5
5
5
5
5
5
5
5
5
5
5
5
5
5
5
5
5
5
5
5
5
5
5
5
5
5
5
5
5
5
5
5
5
5
5
5
5
5
5
5
5
5
5
5
5
5
5
5
5
5
5
5
5
5
5
5
5
5
5
5
5
5
5
5
5
5
5
5
5
5
5
5
5
5
5
5
5
5
5
5
5
5
5
5
5
5
5
5
5
5
5
5
5
5
5
5
5
5
5
5
5
5
5
5
5
5
5
5
5
5
5
5
5
5
5
5
5
5
5
5
5
5
5
5
5
5
5
5
5
5
5
5
5
5
5
5
5
5
5
5
5
5
5
5
5
5
5
5
5
5
5
5
5
5
5
5
5
5
5
5
5
5
5
5
5
5
5
5
5
5
5
5
5
5
5
5
5
5
5
5
5
5
5
5
5
5
5
5
5
5
5
5
5
5
5
5
5
5
5
5
5
5
5
5
5
5
5
5
5
5
5
5
5
5
5
5
5
5
5
5
5
5
5
5
5
5
5
5
5
5
5
5
5
5
5
5
5
5
5
5
5
5
5
5
5
5
5
5
5
5
5
5
5
5
5
5
5
5
5
5
5
5
5
5
5
5
5
5
5
5
5
5
5
5
5
5
5
5
5
5
5
5
5
5
5
5
5
5
5
5
5
5
5
5
5
5
5
5
5
5
5
5
5
5
5
5
5
5
5
5
5
5
5
5
5
5
5
5
5
5
5
5
5
5
5
5
5
5
5
5
5
5
5
5
5
5
5
5
5
5
5
5
5
5
5
5
5
5
5
5
5
5
5
5
5
5
5
5
5
5
5
5
5
5
5
5
5
5
5
5
5
5
5
5
5
5
5
5
5
5
5
5
5
5
5
5
POINT_DATA 296
SCALARS concentrations float 4
LOOKUP_TABLE default
0 0.998757 0.0701875 1.51913
0 0.998672 0.0700861 1.41252
0 0.99882 0.0705531 1.68126
0 0.998849 0.0709089 1.25492
0 0.999039 0.0681388 0.150093
0 0.998631 0.0700737 1.40047
0 0.998624 0.0700697 1.41566
0 0.998928 0.0680745 0.145516
0 0.998849 0.0680667 0.136299
0 0.998626 0.0700636 1.42468
0 0.998626 0.0700588 1.42581
0 0.999053 0.0750309 0.545528
0 0.998858 0.0708927 1.2546
0 0.999114 0.0683201 0.0889791
0 0.999236 0.0697819 0.167448
0 0.999516 0.0681502 0.154753
0 0.999379 0.0680126 0.168734
0 0.99883 0.0680614 0.138323
0 0.998826 0.0680601 0.145732
0 0.999282 0.0679548 0.132788
0 0.999231 0.0679419 0.114154
0 0.99862 0.0700733 1.43576
0 0.998616 0.070091 1.44778
0 0.998833 0.0680563 0.148037
0 0.998828 0.0680579 0.150178
0 0.999243 0.0697707 0.176629
0 0.998836 0.0705164 1.66079
0 0.999112 0.0683095 0.0809734
0 0.998778 0.0701662 1.50615
0 0.999696 0.0687521 0.15847
0 0.999688 0.0686467 0.106237
0 0.999842 0.0682606 0.231663
0 0.998625 0.0700459 1.41714
0 0.99973 0.0679584 0.201952
0 0.999598 0.0678726 0.150817
0 0.999223 0.06794 0.110902
0 0.999223 0.0679387 0.115301
0 0.999584 0.0678052 0.103218
0 0.999522 0.0678228 0.0838137
0 0.998831 0.0680683 0.155225
0 0.99882 0.0680765 0.160206
0 0.999231 0.0679373 0.116712
0 0.999225 0.0679384 0.119294
0 0.998632 0.070052 1.41707
0 0.999692 0.0686903 0.156615
0 0.999056 0.0681215 0.140101
0 0.999521 0.0681632 0.159655
0 0.998697 0.0700604 1.39738
0 0.998939 0.0680568 0.137157
0 0.998657 0.0700513 1.38799
0 0.999897 0.0682498 0.259381
0 0.999888 0.068328 0.242319
0 0.999861 0.0679002 0.236773
0 0.998833 0.0680693 0.154739
0 0.998826 0.0680578 0.144824
0 0.999772 0.0677354 0.138614
0 0.999568 0.0677977 0.0748677
0 0.999532 0.0678216 0.0815779
0 0.999735 0.0676856 0.0707027
0 0.999236 0.0679408 0.118457
0 0.999238 0.067944 0.118575
0 0.999578 0.067801 0.0805016
0 0.999535 0.0678255 0.0852458
0 0.998642 0.0700373 1.39469
0 0.999839 0.0681651 0.246151
0 0.999385 0.0680012 0.163564
0 0.9997 0.0679647 0.180435
0 0.998874 0.0680419 0.122514
0 0.999292 0.0679451 0.129604
0 0.998648 0.0700503 1.40499
0 0.998846 0.0680412 0.126247
0 0.99865 0.0700478 1.41664
0 0.99984 0.0676957 0.160188
0 0.999885 0.0679395 0.25631
0 0.99986 0.067723 0.185276
0 0.999238 0.0679427 0.116096
0 0.998853 0.0680476 0.12873
0 0.999232 0.0679411 0.110707
0 0.99982 0.0676359 0.0964989
0 0.99986 0.0676115 0.0990003
0 0.999742 0.0676874 0.0635457
0 0.999822 0.0676196 0.0703432
0 0.99958 0.0677929 0.0765168
0 0.999532 0.0678141 0.0757566
0 0.999751 0.0676916 0.0663481
0 0.998669 0.0700621 1.39394
0 0.999815 0.0677931 0.173907
0 0.999636 0.0678428 0.145318
0 0.999244 0.067937 0.109876
0 0.999553 0.067826 0.101413
0 0.998847 0.0680397 0.133616
0 0.999237 0.0679359 0.108585
0 0.998651 0.0700389 1.4149
0 0.998847 0.0680355 0.135701
0 0.999867 0.0676116 0.105295
0 0.999852 0.0676974 0.161149
0 0.999866 0.0676282 0.120489
0 0.999831 0.0676478 0.110425
0 0.998648 0.0700463 1.41904
0 0.998902 0.068036 0.117406
0 0.999565 0.0677955 0.075583
0 0.999259 0.0679235 0.102596
0 0.999527 0.0678178 0.077404
0 0.999896 0.0675584 0.0486387
0 0.999871 0.067582 0.0661978
0 0.999836 0.0676234 0.071141
0 0.999877 0.0675852 0.065371
0 0.999747 0.0676908 0.065354
0 0.99984 0.0676231 0.0714064
0 0.99874 0.0700651 1.40319
0 0.999752 0.0676896 0.08653
0 0.999579 0.0677967 0.0782729
0 0.999236 0.0679339 0.112354
0 0.999534 0.0678233 0.0801326
0 0.99885 0.0680362 0.136302
0 0.999244 0.0679306 0.111716
0 0.998846 0.0680352 0.135235
0 0.999926 0.0675356 0.02146
0 0.999932 0.0675351 0.0232584
0 0.999895 0.0675581 0.0490214
0 0.99987 0.0675993 0.0881931
0 0.999822 0.0676165 0.0688512
0 0.999866 0.0675901 0.0709371
0 0.999935 0.0675337 0.0174008
0 0.998646 0.0700366 1.4112
0 0.999015 0.0680362 0.118959
0 0.999351 0.0679151 0.111136
0 0.999742 0.0676953 0.0688868
0 0.999595 0.067798 0.0989533
0 0.999911 0.0675474 0.0413691
0 0.999892 0.0675774 0.0631904
0 0.999839 0.0676213 0.0685338
0 0.999887 0.0675811 0.0630215
0 0.999164 0.0680909 0.128769
0 0.998859 0.0701718 1.52406
0 0.999743 0.0676818 0.0585522
0 0.999582 0.0677972 0.075985
0 0.999243 0.0679287 0.111747
0 0.999544 0.0678176 0.0812741
0 0.998847 0.0680355 0.13457
0 0.999243 0.0679264 0.109333
0 0.999829 0.0676166 0.0672
0 0.999945 0.0675244 0.0209799
0 0.999955 0.0675207 0.00536929
0 0.999903 0.0675506 0.0386755
0 0.999879 0.0675753 0.0591115
0 0.999878 0.067584 0.0661855
0 0.999937 0.0675334 0.0246278
0 0.999959 0.0675214 0.0122368
0 0.998843 0.0680341 0.133371
0 0.998643 0.0700516 1.42042
0 0.999844 0.0676239 0.0755398
0 0.999501 0.0679601 0.122045
0 0.999682 0.0678375 0.131058
0 0.999795 0.0677064 0.101223
0 0.99967 0.0680815 0.107017
0 0.999919 0.0675431 0.0416518
0 0.999889 0.0675739 0.0587445
0 0.999945 0.0675266 0.020242
0 0.999885 0.0676086 0.0854865
0 0.999277 0.0682618 0.195368
0 0.998959 0.0705717 1.73596
0 0.999749 0.0676824 0.0627892
0 0.999586 0.0677919 0.0760549
0 0.999239 0.0679266 0.109711
0 0.999542 0.0678146 0.0799086
0 0.999238 0.0679295 0.109801
0 0.999831 0.0676182 0.0713252
0 0.999961 0.0675152 0.0011615
0 0.999912 0.0675466 0.0428556
0 0.999885 0.0675779 0.0657723
0 0.999943 0.0675297 0.028268
0 0.999957 0.0675231 0.0162536
0 0.998848 0.0680297 0.130553
0 0.998646 0.0700267 1.40391
0 0.999907 0.0676718 0.118601
0 0.999863 0.0679294 0.140311
0 0.999889 0.0677728 0.135901
0 0.999889 0.0685683 0.174194
0 1.00003 0.0681414 0.122702
0 0.999923 0.0675427 0.0331921
0 0.999905 0.0675713 0.0589001
0 0.999945 0.0675312 0.0158768
0 0.999916 0.0676124 0.0959224
0 0.999972 0.0676944 0.137754
0 0.999919 0.068386 0.227349
0 0.999539 0.0695157 0.289478
0 0.999122 0.0710617 1.44537
0 0.999748 0.0676809 0.0635752
0 0.999585 0.0677884 0.0737028
0 0.999236 0.0679259 0.108801
0 0.999547 0.0678141 0.0762873
0 0.999831 0.0676197 0.0720823
0 0.999879 0.0675862 0.0698259
0 0.999948 0.0675299 0.011954
0 0.999914 0.0675477 0.0477834
0 0.99994 0.0675325 0.0335734
0 0.999943 0.0675354 0.0243914
0 0.999941 0.0675342 0.0322661
0 0.999245 0.0679244 0.106687
0 0.998851 0.0680254 0.127541
0 0.99865 0.0700404 1.41293
0 1.00004 0.0678376 0.152446
0 1.00011 0.0680694 0.14273
0 1.00014 0.0680825 0.189679
0 1.00005 0.0677177 0.125853
0 0.999929 0.0675535 0.0418332
0 0.999963 0.0676272 0.103016
0 1.00001 0.0684633 0.201957
0 0.999803 0.069753 0.130283
0 0.999642 0.0761424 1.36515
0 0.999746 0.0676775 0.0620011
0 0.999587 0.0677879 0.0732234
0 0.999551 0.0678211 0.0816831
0 0.999832 0.0676183 0.0710683
0 0.999889 0.0675792 0.0667385
0 0.999937 0.0675512 0.035244
0 0.999936 0.0675537 0.0392746
0 0.99992 0.0675497 0.0488181
0 0.999932 0.0675504 0.0440283
0 0.999245 0.0679259 0.110748
0 0.998858 0.0680111 0.121085
0 0.998657 0.0700205 1.40011
0 1.00015 0.0678339 0.109247
0 1.00012 0.0679467 0.197211
0 1.00006 0.0676755 0.09896
0 0.999962 0.0675927 0.0695211
0 0.999967 0.0678535 0.22548
0 0.999829 0.0681521 0.20775
0 0.999814 0.0688896 0.101013
0 0.999743 0.0736399 1.60348
0 0.999759 0.0676787 0.0605406
0 0.999612 0.0677932 0.0764803
0 0.99985 0.0676166 0.067913
0 0.999898 0.0675853 0.0660105
0 0.999955 0.0675773 0.0490705
0 0.999944 0.0675717 0.0439816
0 0.999921 0.0675767 0.0576889
0 0.999936 0.0675782 0.0489663
0 0.9996 0.0678165 0.0759617
0 0.999273 0.0679267 0.108881
0 0.998869 0.0680121 0.12169
0 0.998668 0.0700034 1.38962
0 1.00009 0.0676843 0.0704161
0 1.00002 0.067619 0.0511676
0 0.999909 0.0677485 0.111953
0 0.999636 0.0680043 0.141605
0 0.999616 0.0685863 0.144595
0 0.999729 0.0728076 1.14352
0 0.999796 0.0676767 0.0570774
0 0.999887 0.0676123 0.0579618
0 0.999975 0.0675933 0.0280459
0 0.999952 0.0675917 0.0228395
0 0.999926 0.0676003 0.0391909
0 0.999672 0.0677818 0.0709017
0 0.999303 0.0679228 0.108239
0 0.998893 0.0680237 0.129096
0 0.998679 0.0700302 1.41119
0 0.999994 0.0676412 0.0112718
0 0.999828 0.0677618 0.0338241
0 0.999538 0.0678943 0.0796527
0 0.999255 0.0680778 0.103394
0 0.999363 0.0713955 2.46176
0 0.99985 0.067662 0.0507678
0 0.99993 0.0676324 0.0363577
0 0.999892 0.0676331 0.060046
0 0.999657 0.0677968 0.091663
0 0.999334 0.0679139 0.111437
0 0.998913 0.0680265 0.135072
0 0.998696 0.0700517 1.43296
0 0.99982 0.0677426 0.0417717
0 0.999486 0.0678678 0.0279289
0 0.999076 0.0680175 0.0967002
0 0.998965 0.0702712 1.64618
0 0.999725 0.0677571 0.10035
0 0.999705 0.0677481 0.115406
0 0.99975 0.0677156 0.123307
0 0.999689 0.0677552 0.141108
0 0.999347 0.0679054 0.120617
0 0.998939 0.0680186 0.134972
0 0.998721 0.070071 1.46005
0 0.999438 0.0678728 0.0690281
0 0.999029 0.0680117 0.109804
0 0.998827 0.0701343 1.50446
0 0.999396 0.067877 0.0869357
0 0.999359 0.0679079 0.111392
0 0.999427 0.0678272 0.0792003
0 0.999034 0.0680422 0.134799
0 0.998815 0.0701681 1.57181
0 0.999089 0.0680407 0.135021
0 0.998865 0.0702433 1.62218
0 0.999178 0.0683184 0.159436
0 0.999167 0.0683602 0.148205
0 0.999018 0.071069 2.16179
0 0.999034 0.0711214 2.19927
0 0.999085 0.0739403 2.03268
VECTORS fa_u float
0.00143118 0.00050939 0
0.00126554 0.000627397 0
0.00159383 0.000535093 0
0.00115782 0.00048401 0
0.000150008 5.05257e-06 0
0.00113488 0.000820584 0
0.00100131 0.00100073 0
0.000145167 -1.00607e-05 0
0.000132207 3.31497e-05 0
0.0008573 0.00113788 0
0.000702887 0.00124052 0
0.000545516 -3.56042e-06 0
0.00115947 -0.000479209 0
3.51751e-05 8.17312e-05 0
-0.00015493 6.35259e-05 0
0.000149853 -3.86348e-05 0
0.000161102 -5.01741e-05 0
0.000113245 7.94279e-05 0
9.44647e-05 0.000110969 0
0.000131709 -1.68997e-05 0
0.000109366 3.27169e-05 0
0.000544055 0.00132869 0
0.00037878 0.00139735 0
7.70462e-05 0.000126407 0
6.2899e-05 0.000136372 0
-0.000163444 -6.69625e-05 0
0.00157603 -0.000523781 0
3.22106e-05 -7.42911e-05 0
0.00141997 -0.000502161 0
0.000158367 -5.72225e-06 0
0.000106039 6.46769e-06 0
0.000221234 -6.87271e-05 0
0.000197555 0.0014033 0
0.000185514 -7.98054e-05 0
0.000139954 -5.62026e-05 0
8.46115e-05 7.16953e-05 0
6.75129e-05 9.3468e-05 0
0.000103092 -5.10125e-06 0
7.78157e-05 3.11361e-05 0
5.14594e-05 0.000146447 0
3.86385e-05 0.000155477 0
5.20137e-05 0.00010448 0
4.54788e-05 0.000110285 0
1.52939e-05 0.00141698 0
0.000156397 8.26783e-06 0
0.0001401 5.71338e-07 0
0.000154527 4.0136e-05 0
0.00125188 -0.000620849 0
0.000136441 1.40005e-05 0
0.00112382 -0.000814578 0
0.0002589 -1.57835e-05 0
0.000241416 2.09036e-05 0
0.00023363 -3.84501e-05 0
1.95521e-05 0.000153499 0
-2.69727e-06 0.000144798 0
0.000135458 -2.9412e-05 0
5.2209e-05 5.366e-05 0
4.11509e-05 7.04383e-05 0
6.7014e-05 2.25389e-05 0
3.60145e-05 0.00011285 0
2.37519e-05 0.000116172 0
3.19818e-05 7.3876e-05 0
2.86237e-05 8.02965e-05 0
-0.000179668 0.00138306 0
0.000235703 7.09517e-05 0
0.00015618 4.85894e-05 0
0.000164167 7.48737e-05 0
0.000119191 -2.83396e-05 0
0.000128603 1.60723e-05 0
0.00099326 -0.000993694 0
0.000102389 -7.38571e-05 0
0.000852544 -0.00113139 0
0.000159969 -8.36148e-06 0
0.000255605 1.89948e-05 0
0.000185246 -3.33313e-06 0
2.81696e-06 0.000116061 0
-3.17107e-05 0.000124763 0
-1.95619e-05 0.000108965 0
9.51205e-05 1.62521e-05 0
9.79367e-05 1.44724e-05 0
3.56894e-05 5.25768e-05 0
5.33361e-05 4.58631e-05 0
2.00502e-05 7.38431e-05 0
9.62332e-06 7.51429e-05 0
2.2604e-05 6.23789e-05 0
-0.000393236 0.00133732 0
0.000168788 4.18862e-05 0
0.000138808 4.30105e-05 0
0.000104026 -3.53741e-05 0
0.000101316 4.43832e-06 0
8.44492e-05 -0.000103545 0
8.19272e-05 -7.12644e-05 0
0.00069769 -0.00123093 0
6.88439e-05 -0.000116941 0
0.000105187 4.77732e-06 0
0.000161029 6.2145e-06 0
0.000120431 -3.74387e-06 0
0.000110038 -9.24443e-06 0
0.000537528 -0.00131329 0
-6.98406e-05 9.43746e-05 0
-5.4776e-06 7.53843e-05 0
-5.84956e-05 8.42859e-05 0
-3.59407e-05 6.8554e-05 0
4.65344e-05 1.41519e-05 0
5.62154e-05 3.49569e-05 0
3.17462e-05 6.36648e-05 0
3.76544e-05 5.34371e-05 0
1.09178e-05 6.44356e-05 0
2.15275e-05 6.8084e-05 0
-0.000606006 0.00126558 0
8.6392e-05 -4.88495e-06 0
7.1523e-05 -3.1798e-05 0
6.31478e-05 -9.29284e-05 0
5.33512e-05 -5.97904e-05 0
5.44915e-05 -0.000124936 0
4.97764e-05 -0.000100014 0
4.03834e-05 -0.000129065 0
2.13769e-05 1.88668e-06 0
1.79509e-05 1.47891e-05 0
4.8625e-05 -6.22124e-06 0
8.65813e-05 -1.67841e-05 0
5.51368e-05 -4.12361e-05 0
6.12723e-05 -3.57462e-05 0
1.32235e-05 -1.13105e-05 0
0.000362634 -0.00136382 0
-9.10933e-05 7.65059e-05 0
-9.38135e-05 5.95839e-05 0
-2.23015e-05 6.51769e-05 0
-7.57709e-05 6.36437e-05 0
2.35715e-05 3.39969e-05 0
2.31897e-05 5.87815e-05 0
2.0818e-06 6.85022e-05 0
1.36932e-05 6.15158e-05 0
-5.44584e-05 0.000116687 0
-0.000801979 0.00129599 0
3.98542e-05 -4.28952e-05 0
3.56291e-05 -6.7114e-05 0
3.66807e-05 -0.000105555 0
2.81247e-05 -7.62527e-05 0
2.40869e-05 -0.000132397 0
2.50665e-05 -0.000106421 0
2.71708e-05 -6.14621e-05 0
8.53826e-06 1.91638e-05 0
5.15534e-06 1.50058e-06 0
2.77703e-05 -2.69185e-05 0
3.0817e-05 -5.04429e-05 0
1.443e-05 -6.45933e-05 0
4.33388e-06 -2.42435e-05 0
-1.26341e-06 -1.21714e-05 0
8.49571e-06 -0.0001331 0
0.000185041 -0.00140832 0
-3.11132e-05 6.88348e-05 0
-0.00010395 6.39479e-05 0
-0.000115934 6.11191e-05 0
-7.58169e-05 6.70662e-05 0
-3.55496e-05 0.00010094 0
1.06289e-05 4.02728e-05 0
-5.4522e-06 5.84909e-05 0
3.39574e-06 1.99551e-05 0
-4.38827e-05 7.33639e-05 0
0.000122263 0.000152383 0
-0.000941706 0.00145834 0
1.72295e-05 -6.03791e-05 0
1.76386e-05 -7.39813e-05 0
1.17983e-05 -0.000109075 0
1.13801e-05 -7.90941e-05 0
-5.48875e-07 -0.000109799 0
9.2978e-06 -7.07166e-05 0
-6.86589e-07 9.36842e-07 0
4.73654e-06 -4.25931e-05 0
7.04893e-07 -6.57685e-05 0
-5.18557e-06 -2.77883e-05 0
-7.30177e-06 -1.45211e-05 0
-8.60769e-06 -0.000130269 0
6.83108e-07 -0.00140391 0
-8.91356e-05 7.82366e-05 0
-0.000122723 6.80167e-05 0
-0.000114674 7.29301e-05 0
8.88544e-05 0.000149827 0
-5.88601e-05 0.000107663 0
-4.64722e-06 3.28652e-05 0
-2.68175e-05 5.24409e-05 0
-7.00022e-06 1.42502e-05 0
-6.48563e-05 7.06737e-05 0
-9.99128e-05 9.48343e-05 0
0.000210176 8.66817e-05 0
0.000284857 5.15151e-05 0
-0.000788811 0.00121115 0
4.65202e-06 -6.34048e-05 0
2.93585e-06 -7.36443e-05 0
-1.57165e-05 -0.00010766 0
-6.84364e-06 -7.59797e-05 0
-3.2943e-06 -7.2007e-05 0
-1.21299e-05 -6.87643e-05 0
-1.19269e-05 8.04111e-07 0
-1.08305e-05 -4.65398e-05 0
-1.29741e-05 -3.09652e-05 0
-2.03561e-05 -1.34377e-05 0
-1.85059e-05 -2.64317e-05 0
-2.93004e-05 -0.000102585 0
-2.4883e-05 -0.00012509 0
-0.0001834 -0.00140097 0
-0.000109599 0.000105963 0
4.53921e-05 0.00013532 0
0.000174112 7.52529e-05 0
-7.87962e-05 9.81328e-05 0
-3.03192e-05 2.88229e-05 0
-7.39905e-05 7.16778e-05 0
0.000200623 2.31741e-05 0
0.000126295 -3.19858e-05 0
-0.00117004 0.000703315 0
-7.49633e-06 -6.15463e-05 0
-1.46399e-05 -7.1745e-05 0
-2.69258e-05 -7.71176e-05 0
-1.77898e-05 -6.88057e-05 0
-2.35457e-05 -6.24469e-05 0
-3.42228e-05 8.42273e-06 0
-3.78456e-05 -1.0498e-05 0
-2.38465e-05 -4.25976e-05 0
-3.19473e-05 -3.02962e-05 0
-4.07196e-05 -0.000102991 0
-3.97675e-05 -0.000114368 0
-0.000359971 -0.00135304 0
4.19319e-06 0.000109166 0
0.000193365 3.87563e-05 0
-5.75887e-05 8.04775e-05 0
-5.70158e-05 3.97792e-05 0
0.000215572 -6.61068e-05 0
0.000194179 -7.3854e-05 0
-9.7791e-05 -2.53073e-05 0
0.00108538 -0.0011803 0
-1.78706e-05 -5.78429e-05 0
-2.68522e-05 -7.16114e-05 0
-2.62369e-05 -6.26403e-05 0
-3.14773e-05 -5.80221e-05 0
-4.79182e-05 1.05719e-05 0
-4.08338e-05 -1.63396e-05 0
-3.37227e-05 -4.68058e-05 0
-3.6216e-05 -3.29561e-05 0
-2.26071e-05 -7.25197e-05 0
-3.94107e-05 -0.000101498 0
-4.81448e-05 -0.000111761 0
-0.000530203 -0.0012845 0
5.99779e-05 3.68928e-05 0
-3.58887e-05 3.64708e-05 0
9.30489e-05 -6.22533e-05 0
9.59941e-05 -0.000104101 0
-0.000135639 -5.0097e-05 0
0.00106227 -0.000423345 0
-1.66348e-05 -5.45995e-05 0
-2.22348e-05 -5.35274e-05 0
-2.71252e-05 7.12731e-06 0
-1.82822e-05 -1.36896e-05 0
-1.17992e-05 -3.73725e-05 0
1.88944e-06 -7.08765e-05 0
-2.91078e-05 -0.000104251 0
-5.35665e-05 -0.000117458 0
-0.000698996 -0.00122591 0
8.1974e-06 7.73661e-06 0
2.28226e-05 -2.4964e-05 0
1.26512e-05 -7.86416e-05 0
-8.85283e-05 -5.34134e-05 0
-0.00229722 0.0008849 0
2.38808e-05 -4.48004e-05 0
2.35807e-05 2.76737e-05 0
6.0046e-05 6.03995e-08 0
5.22471e-05 -7.5315e-05 0
8.07459e-06 -0.000111144 0
-4.20088e-05 -0.000128374 0
-0.00085458 -0.00115025 0
1.40711e-05 3.93304e-05 0