# vtk DataFile Version 2.0
CellBP Time: 0.8
ASCII
DATASET UNSTRUCTURED_GRID
POINTS 296 double
-9.23357 -3.77747 0
-8.62607 -4.96399 0
-9.623 -2.54631 0
-9.86523 -1.26332 0
-8.37191 -2.83983 0
-7.89739 -6.05472 0
-6.99284 -7.05888 0
-7.94176 -3.86953 0
-7.37756 -4.90087 0
-6.05006 -7.89395 0
-4.97437 -8.64768 0
-9.95762 0.0612323 0
-9.88747 1.33471 0
-8.67378 -1.68738 0
-8.79367 -0.536251 0
-7.59317 -1.98162 0
-7.23983 -2.91844 0
-6.6746 -5.77028 0
-5.83241 -6.62785 0
-6.80923 -3.90611 0
-6.22885 -4.6827 0
-3.78136 -9.1979 0
-2.55146 -9.63239 0
-4.91734 -7.32462 0
-3.91878 -7.88973 0
-8.80252 0.645516 0
-9.63352 2.63154 0
-8.61119 1.7706 0
-9.19682 3.87887 0
-7.76192 -0.928664 0
-7.81271 0.0816486 0
-6.97999 -1.3006 0
-1.26592 -9.86044 0
-6.44683 -2.16417 0
-6.34504 -3.09257 0
-5.53569 -5.48131 0
-4.80335 -6.12772 0
-5.6738 -3.76618 0
-5.28316 -4.56832 0
-2.87177 -8.36973 0
-1.78641 -8.6452 0
-3.92503 -6.73762 0
-3.06164 -7.16064 0
0.0481512 -9.96189 0
-7.71612 1.14226 0
-8.33733 2.87833 0
-7.56213 2.11192 0
-8.62996 5.06321 0
-7.86515 3.95892 0
-7.90806 6.15418 0
-6.81476 -0.408985 0
-6.95664 0.545023 0
-5.77764 -1.0111 0
-0.60158 -8.8042 0
0.577106 -8.7866 0
-5.30499 -2.4885 0
-4.50206 -5.10444 0
-3.90689 -5.78472 0
-4.48684 -3.80456 0
-2.06058 -7.55576 0
-1.12774 -7.79227 0
-3.00155 -6.11101 0
-2.29305 -6.61473 0
1.36896 -9.8329 0
-6.67157 1.43935 0
-7.17821 3.12435 0
-6.67386 2.38332 0
-7.30924 4.99157 0
-6.71578 4.00208 0
-7.03523 7.14057 0
-6.56845 5.90592 0
-6.04581 7.98548 0
-4.45415 -1.18598 0
-5.82046 0.508188 0
-4.66966 -0.0278254 0
0.00329255 -7.82326 0
1.74497 -8.66102 0
0.937116 -7.7555 0
-4.03718 -2.41361 0
-3.47753 -1.39017 0
-3.29496 -4.81159 0
-3.27137 -3.26415 0
-1.37133 -6.68189 0
-0.506569 -7.01797 0
-1.9793 -5.54147 0
2.66678 -9.65024 0
-5.51183 2.01343 0
-6.08909 3.09703 0
-6.10143 4.87395 0
-5.78194 3.99853 0
-5.77235 6.72219 0
-5.44917 5.6102 0
-4.95589 8.71129 0
-4.80538 7.42243 0
-3.50867 -0.433011 0
-4.45654 1.25734 0
-3.68029 0.594129 0
-4.06657 2.31955 0
-3.80355 9.29892 0
2.89627 -8.34558 0
0.430218 -6.80145 0
2.03759 -7.54276 0
1.30271 -6.90626 0
-2.43788 -0.880557 0
-2.82949 -2.12837 0
-2.2953 -4.10919 0
-2.31231 -2.96981 0
-0.436685 -5.87285 0
-1.22731 -4.5132 0
3.87973 -9.18452 0
-4.79885 3.39348 0
-5.11002 4.6014 0
-4.67545 6.2875 0
-4.56643 5.39348 0
-3.88498 7.99475 0
-3.85848 6.8932 0
-2.77435 8.4336 0
-1.64652 -0.145662 0
-1.43989 -0.896251 0
-2.48461 0.492236 0
-3.26958 1.47256 0
-3.25329 3.30261 0
-2.92291 2.35092 0
-1.36263 0.619666 0
-2.54298 9.72045 0
3.93914 -7.88771 0
2.98873 -7.17976 0
0.962084 -5.83615 0
2.07136 -6.4123 0
-1.67074 -1.99999 0
-1.43145 -3.28625 0
0.0980129 -4.75437 0
-0.557238 -3.70206 0
4.9231 -7.32241 0
5.06759 -8.63419 0
-3.80091 4.55645 0
-3.76433 5.79061 0
-2.89221 7.33149 0
-3.00648 6.36836 0
-1.6622 8.79256 0
-1.9824 7.63906 0
-2.36275 4.0171 0
-0.716697 -1.33653 0
-0.827603 -0.256689 0
-1.97022 1.63392 0
-2.16698 2.85446 0
-1.3395 3.54076 0
-0.878711 1.34401 0
-0.271029 0.448787 0
-0.531856 8.8796 0
-1.26249 9.971 0
1.12512 -4.58871 0
3.93233 -6.75077 0
2.99935 -6.11514 0
2.14533 -5.42936 0
4.79786 -6.22402 0
-0.544309 -2.48886 0
0.490084 -3.51077 0
0.0720468 -1.62553 0
1.5007 -3.67753 0
5.86522 -6.61633 0
6.16813 -7.91654 0
-2.47489 5.34264 0
-2.12477 6.53871 0
-0.911944 7.79754 0
-1.26429 6.9408 0
0.097298 7.87644 0
-1.11443 4.48053 0
0.160641 -0.641875 0
-0.815769 2.47845 0
-0.284916 3.60237 0
0.0373093 1.54654 0
0.735489 0.449359 0
0.654534 8.82734 0
0.044641 10.054 0
2.37828 -4.26062 0
3.87847 -5.64388 0
3.01829 -5.24945 0
5.57559 -5.48074 0
4.71302 -5.29963 0
0.639848 -2.30508 0
1.27139 -2.96879 0
0.764956 -1.39791 0
2.17235 -3.14778 0
3.015 -3.47272 0
6.16918 -4.78301 0
6.66936 -5.78047 0
7.16604 -7.00826 0
-1.02292 5.84279 0
-0.37634 6.88629 0
1.11862 7.75925 0
0.556815 7.09174 0
-0.0324456 4.7432 0
0.603739 3.80328 0
1.34598 -0.656542 0
0.579655 2.6197 0
0.968521 1.56928 0
1.91554 0.178432 0
1.62557 1.06882 0
2.13099 7.61117 0
1.82264 8.72813 0
1.34796 9.979 0
3.86113 -4.35811 0
5.14654 -4.49402 0
5.88468 -3.97479 0
3.82251 -3.17782 0
1.85201 -1.86789 0
3.01836 -2.59921 0
6.80155 -3.95914 0
7.40188 -4.93548 0
7.99674 -6.04642 0
0.483703 5.90812 0
1.41953 6.76081 0
2.37439 6.68745 0
1.17564 4.54879 0
1.50808 3.41086 0
2.46588 -0.705211 0
2.83536 0.151344 0
1.74282 2.14993 0
2.63362 1.1169 0
3.07123 7.17819 0
2.89143 8.45186 0
2.6454 9.70156 0
4.93198 -3.30445 0
6.15011 -3.1004 0
4.17589 -2.30663 0
3.25923 -1.50922 0
6.77471 -2.32044 0
7.27539 -3.08429 0
8.01085 -3.92161 0
8.72641 -4.97616 0
2.02724 5.60952 0
3.09256 6.1873 0
2.37112 4.11067 0
2.39174 3.01723 0
3.54598 -0.487616 0
3.59158 0.591072 0
2.95912 2.33175 0
3.53586 1.50738 0
3.9972 5.90753 0
4.03086 6.82723 0
3.95462 7.96703 0
3.86373 9.29044 0
5.55612 -1.9107 0
4.50707 -1.15379 0
6.75503 -1.34111 0
7.62879 -2.04439 0
8.43318 -2.89271 0
9.3112 -3.76495 0
3.38716 4.90311 0
3.35032 3.39148 0
4.67682 0.145253 0
4.57242 1.33109 0
4.01549 2.4506 0
4.532 5.17176 0
4.84479 6.17187 0
4.96415 7.40693 0
5.05349 8.71814 0
5.90342 -0.413481 0
7.04222 -0.486385 0
7.77398 -1.08761 0
8.66348 -1.79535 0
9.73261 -2.56634 0
4.54494 3.81888 0
5.82925 1.09607 0
5.3812 2.54607 0
5.38097 4.67348 0
5.66325 5.57237 0
5.88694 6.70584 0
6.14079 7.98701 0
6.89967 0.492009 0
7.87117 -0.0876521 0
8.92104 -0.620846 0
9.99215 -1.177 0
6.99516 1.3274 0
5.708 3.78368 0
6.56273 2.16697 0
6.36149 3.06954 0
6.27209 4.66811 0
6.72766 5.85587 0
7.15264 7.11449 0
7.76309 0.980648 0
8.81779 0.565027 0
10.0712 0.0503762 0
7.60148 1.96533 0
6.87828 3.94348 0
7.24132 2.93815 0
7.43563 4.87271 0
7.97991 6.16394 0
8.69156 1.73602 0
10.0007 1.30832 0
8.45074 2.85787 0
8.01136 3.89723 0
8.71847 5.06177 0
9.68751 2.66052 0
9.30653 3.91017 0
CELLS 542 2168
3 2 0 4
3 0 1 7
3 4 0 7
3 1 5 8
3 7 1 8
3 3 2 13
3 13 2 4
3 11 3 14
3 14 3 13
3 13 4 15
3 4 7 16
3 15 4 16
3 5 6 17
3 8 5 17
3 6 9 18
3 17 6 18
3 7 8 19
3 16 7 19
3 8 17 20
3 19 8 20
3 9 10 23
3 18 9 23
3 10 21 24
3 23 10 24
3 12 11 25
3 25 11 14
3 26 12 27
3 27 12 25
3 14 13 29
3 29 13 15
3 25 14 30
3 30 14 29
3 29 15 31
3 15 16 33
3 31 15 33
3 16 19 34
3 33 16 34
3 17 18 35
3 20 17 35
3 18 23 36
3 35 18 36
3 19 20 37
3 34 19 37
3 20 35 38
3 37 20 38
3 21 22 39
3 24 21 39
3 22 32 40
3 39 22 40
3 23 24 41
3 36 23 41
3 24 39 42
3 41 24 42
3 27 25 44
3 44 25 30
3 28 26 45
3 45 26 27
3 45 27 46
3 46 27 44
3 47 28 48
3 48 28 45
3 30 29 50
3 50 29 31
3 44 30 51
3 51 30 50
3 50 31 52
3 31 33 52
3 32 43 53
3 40 32 53
3 53 43 54
3 33 34 55
3 34 37 55
3 33 55 52
3 35 36 56
3 38 35 56
3 36 41 57
3 56 36 57
3 37 38 58
3 38 56 58
3 37 58 55
3 39 40 59
3 42 39 59
3 40 53 60
3 59 40 60
3 41 42 61
3 57 41 61
3 42 59 62
3 61 42 62
3 43 63 54
3 46 44 64
3 64 44 51
3 48 45 65
3 65 45 46
3 65 46 66
3 66 46 64
3 49 47 67
3 67 47 48
3 67 48 68
3 68 48 65
3 69 49 70
3 70 49 67
3 52 55 72
3 64 51 73
3 51 50 73
3 50 52 73
3 73 52 74
3 74 52 72
3 53 54 75
3 60 53 75
3 54 63 76
3 54 76 77
3 75 54 77
3 55 58 78
3 72 55 78
3 72 78 79
3 56 57 80
3 57 61 80
3 56 80 58
3 58 80 81
3 78 58 81
3 59 60 82
3 62 59 82
3 60 75 83
3 82 60 83
3 61 62 84
3 62 82 84
3 61 84 80
3 63 85 76
3 66 64 86
3 64 73 86
3 68 65 87
3 87 65 66
3 87 66 86
3 70 67 88
3 88 67 68
3 88 68 89
3 89 68 87
3 71 69 90
3 90 69 70
3 90 70 91
3 91 70 88
3 92 71 93
3 93 71 90
3 74 72 94
3 94 72 79
3 86 73 95
3 95 73 74
3 95 74 96
3 96 74 94
3 97 86 95
3 76 85 99
3 75 77 100
3 83 75 100
3 76 99 101
3 77 76 101
3 77 101 102
3 100 77 102
3 94 79 103
3 78 81 104
3 79 78 104
3 79 104 103
3 80 84 105
3 81 80 105
3 81 105 106
3 104 81 106
3 82 83 107
3 83 100 107
3 82 107 84
3 84 107 108
3 105 84 108
3 85 109 99
3 89 87 110
3 87 86 110
3 110 86 97
3 91 88 111
3 111 88 89
3 111 89 110
3 93 90 112
3 112 90 91
3 112 91 113
3 113 91 111
3 98 92 114
3 114 92 93
3 114 93 115
3 115 93 112
3 116 98 114
3 117 103 118
3 96 94 119
3 94 103 119
3 119 103 117
3 97 95 120
3 120 95 96
3 120 96 119
3 121 110 97
3 121 97 122
3 122 97 120
3 123 119 117
3 124 98 116
3 99 109 125
3 99 125 126
3 101 99 126
3 100 102 127
3 100 127 107
3 101 126 128
3 102 101 128
3 102 128 127
3 104 106 129
3 104 129 103
3 103 129 118
3 105 108 130
3 106 105 130
3 106 130 129
3 107 127 131
3 108 107 131
3 108 131 132
3 108 132 130
3 109 134 125
3 125 134 133
3 113 111 135
3 111 110 135
3 135 110 121
3 115 112 136
3 136 112 113
3 136 113 135
3 116 114 137
3 137 114 115
3 137 115 138
3 138 115 136
3 139 124 116
3 139 116 140
3 140 116 137
3 141 135 121
3 118 129 142
3 118 142 143
3 117 118 143
3 123 117 143
3 122 120 144
3 120 119 144
3 144 119 123
3 141 121 145
3 145 121 122
3 145 122 144
3 146 141 145
3 147 144 123
3 147 123 148
3 143 148 123
3 150 124 139
3 149 150 139
3 131 127 151
3 125 133 152
3 126 125 152
3 126 152 153
3 128 126 153
3 128 153 154
3 128 154 127
3 127 154 151
3 152 133 155
3 130 132 156
3 130 156 129
3 129 156 142
3 131 151 157
3 132 131 157
3 132 157 156
3 156 158 142
3 157 151 159
3 133 160 155
3 134 161 133
3 133 161 160
3 138 136 162
3 136 135 162
3 162 135 141
3 140 137 163
3 163 137 138
3 163 138 162
3 149 139 164
3 164 139 140
3 164 140 165
3 165 140 163
3 166 149 164
3 167 162 141
3 167 141 146
3 142 158 168
3 143 142 168
3 143 168 148
3 146 145 169
3 145 144 169
3 169 144 147
3 170 167 146
3 170 146 169
3 171 169 147
3 171 147 148
3 171 148 172
3 168 172 148
3 173 149 166
3 174 150 149
3 173 174 149
3 154 175 151
3 151 175 159
3 152 155 176
3 153 152 176
3 153 176 177
3 153 177 154
3 154 177 175
3 155 160 178
3 155 178 179
3 176 155 179
3 156 157 180
3 156 180 158
3 157 159 181
3 157 181 180
3 158 180 182
3 158 182 168
3 159 175 183
3 159 183 181
3 175 184 183
3 160 186 178
3 178 186 185
3 161 187 160
3 160 187 186
3 165 163 188
3 163 162 188
3 188 162 167
3 166 164 189
3 189 164 165
3 189 165 188
3 190 173 166
3 190 166 191
3 191 166 189
3 192 188 167
3 192 167 170
3 193 192 170
3 182 194 168
3 194 172 168
3 193 170 195
3 170 169 195
3 195 169 171
3 196 195 171
3 196 171 172
3 194 197 172
3 197 198 172
3 198 196 172
3 200 173 190
3 199 200 190
3 201 174 173
3 200 201 173
3 176 179 202
3 177 176 202
3 177 202 175
3 175 202 184
3 178 185 203
3 178 203 179
3 179 203 202
3 203 185 204
3 202 205 184
3 183 206 181
3 180 181 206
3 180 206 182
3 182 206 194
3 183 184 207
3 205 207 184
3 183 207 206
3 185 208 204
3 186 209 185
3 185 209 208
3 187 210 186
3 186 210 209
3 191 189 211
3 189 188 211
3 211 188 192
3 199 190 212
3 212 190 191
3 212 191 211
3 213 199 212
3 214 211 192
3 214 192 193
3 215 214 193
3 215 193 195
3 206 216 194
3 216 197 194
3 216 217 197
3 215 195 218
3 218 195 196
3 198 218 196
3 217 219 197
3 219 218 198
3 197 219 198
3 220 199 213
3 221 200 199
3 220 221 199
3 222 201 200
3 221 222 200
3 203 204 223
3 203 223 202
3 202 223 205
3 204 208 224
3 204 224 223
3 205 223 225
3 205 225 207
3 207 225 226
3 207 226 206
3 226 216 206
3 208 228 224
3 224 228 227
3 209 229 208
3 229 228 208
3 210 230 209
3 209 230 229
3 213 212 231
3 212 211 231
3 231 211 214
3 232 220 213
3 232 213 231
3 233 231 214
3 233 214 215
3 234 233 215
3 234 215 218
3 226 235 216
3 235 217 216
3 235 236 217
3 217 236 219
3 237 234 218
3 237 218 219
3 236 238 219
3 238 237 219
3 240 220 232
3 239 240 232
3 241 221 220
3 240 241 220
3 242 222 221
3 241 242 221
3 224 227 243
3 224 243 223
3 223 243 225
3 225 243 244
3 225 244 226
3 226 244 235
3 227 245 243
3 228 246 227
3 227 246 245
3 229 247 228
3 228 247 246
3 230 248 229
3 229 248 247
3 239 232 249
3 232 231 249
3 249 231 233
3 250 249 233
3 250 233 234
3 237 250 234
3 244 251 235
3 235 251 236
3 251 252 236
3 236 252 238
3 252 253 238
3 253 250 237
3 253 237 238
3 254 239 249
3 255 240 239
3 254 255 239
3 256 241 240
3 255 256 240
3 257 242 241
3 256 257 241
3 245 258 243
3 243 258 244
3 244 258 251
3 245 259 258
3 246 260 245
3 245 260 259
3 247 261 246
3 246 261 260
3 248 262 247
3 247 262 261
3 254 249 263
3 263 249 250
3 253 263 250
3 258 264 251
3 251 264 252
3 264 265 252
3 265 263 253
3 252 265 253
3 266 254 263
3 267 255 254
3 266 267 254
3 268 256 255
3 267 268 255
3 269 257 256
3 268 269 256
3 259 270 258
3 270 264 258
3 260 271 259
3 259 271 270
3 261 272 260
3 260 272 271
3 262 273 261
3 273 272 261
3 270 274 264
3 275 266 263
3 275 263 265
3 274 276 264
3 276 265 264
3 276 277 265
3 277 275 265
3 278 267 266
3 275 278 266
3 279 268 267
3 278 279 267
3 280 269 268
3 279 280 268
3 271 281 270
3 270 281 274
3 272 282 271
3 271 282 281
3 273 283 272
3 272 283 282
3 281 284 274
3 274 284 276
3 285 278 275
3 277 285 275
3 284 286 276
3 286 285 277
3 276 286 277
3 287 279 278
3 285 287 278
3 288 280 279
3 287 288 279
3 282 289 281
3 281 289 284
3 283 290 282
3 282 290 289
3 289 291 284
3 284 291 286
3 291 292 286
3 292 287 285
3 286 292 285
3 293 288 287
3 292 293 287
3 290 294 289
3 289 294 291
3 294 295 291
3 295 293 292
3 291 295 292
CELL_TYPES 542
5
5
5
5
5
5
5
5
5
5
5
5
5
5
5
5
5
5
5
5
5
5
5
5
5
5
5
5
5
5
5
5
5
5
5
5
5
5
5
5
5
5
5
5
5
5
5
5
5
5
5
5
5
5
5
5
5
5
5
5
5
5
5
5
5
5
5
5
5
5
5
5
5
5
5
5
5
5
5
5
5
5
5
5
5
5
5
5
5
5
5
5
5
5
5
5
5
5
5
5
5
5
5
5
5
5
5
5
5
5
5
5
5
5
5
5
5
5
5
5
5
5
5
5
5
5
5
5
5
5
5
5
5
5
5
5
5
5
5
5
5
5
5
5
5
5
5
5
5
5
5
5
5
5
5
5
5
5
5
5
5
5
5
5
5
5
5
5
5
5
5
5
5
5
5
5
5
5
5
5
5
5
5
5
5
5
5
5
5
5
5
5
5
5
5
5
5
5
5
5
5
5
5
5
5
5
5
5
5
5
5
5
5
5
5
5
5
5
5
5
5
5
5
5
5
5
5
5
5
5
5
5
5
5
5
5
5
5
5
5
5
5
5
5
5
5
5
5
5
5
5
5
5
5
5
5
5
5
5
5
5
5
5
5
5
5
5
5
5
5
5
5
5
5
5
5
5
5
5
5
5
5
5
5
5
5
5
5
5
5
5
5
5
5
5
5
5
5
5
5
5
5
5
5
5
5
5
5
5
5
5
5
5
5
5
5
5
5
5
5
5
5
5
5
5
5
5
5
5
5
5
5
5
5
5
5
5
5
5
5
5
5
5
5
5
5
5
5
5
5
5
5
5
5
5
5
5
5
5
5
5
5
5
5
5
5
5
5
5
5
5
5
5
5
5
5
5
5
5
5
5
5
5
5
5
5
5
5
5
5
5
5
5
5
5
5
5
5
5
5
5
5
5
5
5
5
5
5
5
5
5
5
5
5
5
5
5
5
5
5
5
5
5
5
5
5
5
5
5
5
5
5
5
5
5
5
5
5
5
5
5
5
5
5
5
5
5
5
5
5
5
5
5
5
5
5
5
5
5
5
5
5
5
5
5
5
5
5
5
5
5
5
5
5
5
5
5
5
5
5
5
5
5
5
5
5
5
5
5
5
5
5
5
5
5
5
5
5
5
5
5
5
5
5
5
5
5
5
5
5
5
5
5
5
5
5
5
5
5
5
5
5
5
5
5
5
5
5
5
5
5
5
5
5
5
5
5
5
5
5
5
5
POINT_DATA 296
SCALARS concentrations float 4
LOOKUP_TABLE default
0 1.00314 0.0493781 33.8468
0 1.00287 0.0508266 11.5235
0 1.00218 0.071313 38.0783
0 1.00169 0.0286997 72.4575
0 1.00355 0.103937 87.7427
0 1.00268 0.00525515 85.573
0 1.00273 0.0408239 41.3656
0 1.00305 0.0382772 16.0273
0 1.0023 0.0486418 29.3536
0 1.00334 0.0285868 130.307
0 1.00419 0.0577807 29.8267
0 1.00247 0.0575694 16.0583
0 1.00295 0.111693 12.5944
0 1.00249 0.0995391 53.5699
0 1.00228 0.0282169 135.43
0 1.0037 0.0417031 37.3345
0 1.00308 0.0644229 94.9593
0 1.00245 0.102322 50.8574
0 1.00268 0.0553075 23.273
0 1.00239 0.0403403 116.269
0 1.00195 0.012586 65.4079
0 1.0029 0.113348 87.4614
0 1.00259 0.11162 103.388
0 1.00297 0.112798 144.321
0 1.0034 0.106817 139.454
0 1.00287 0.0736576 45.0951
0 1.00264 0.0941837 27.1147
0 1.00325 0.0968717 82.3457
0 1.00171 0.0647696 68.0819
0 1.00288 0.0859552 44.7507
0 1.00313 0.064146 85.1486
0 1.00295 0.0864166 38.3679
0 1.0032 0.124482 116.976
0 1.00273 0.0233862 43.3584
0 1.00195 0.100629 22.4992
0 1.00267 0.0489972 22.6158
0 1.00213 0.0116476 124.321
0 1.00271 0.0614596 86.3159
0 1.00311 0.101139 132.291
0 1.00254 0.0882021 93.9179
0 1.00247 0.0917175 136.997
0 1.00186 0.069959 106.613
0 1.00295 0.0474989 60.278
0 1.00233 0.0849549 91.71
0 1.00286 0.0627502 55.93
0 1.0028 0.110463 20.7067
0 1.00311 0.0880097 40.2852
0 1.00172 0.0958325 10.8712
0 1.00211 0.109584 20.5741
0 1.00145 0.0407796 50.9318
0 1.0029 0.0756572 54.3874
0 1.00299 0.0710587 63.3086
0 1.00226 0.0527224 70.0144
0 1.00228 0.112838 134.277
0 1.00295 0.0528384 43.6309
0 1.00261 0.0977369 66.9641
0 1.0037 0.0797374 88.3474
0 1.00228 0.0245759 107.402
0 1.00343 0.0787247 17.0107
0 1.00136 0.0067278 156.538
0 1.0012 0.0951106 112.683
0 1.00219 0.0381408 65.201
0 1.00177 0.00496756 150.014
0 1.00357 0.0966317 59.674
0 1.00288 0.0542984 33.446
0 1.00284 0.0788302 11.4107
0 1.00283 0.0706399 84.85
0 1.00184 0.0578481 17.7684
0 1.00242 0.0874839 29.5901
0 1.00105 0.0666387 56.2113
0 1.00162 0.0434329 20.2762
0 1.00225 0.0354372 52.0765
0 1.00253 0.0472695 29.1181
0 1.00258 0.0796042 39.5416
0 1.00193 0.0624411 40.295
0 1.00257 0.110751 96.0214
0 1.00373 0.128202 52.6745
0 1.00352 0.0995824 83.7559
0 1.00344 0.0501534 11.7647
0 1.00361 0.0805198 51.65
0 1.00277 0.0281787 108.81
0 1.00245 0.0339861 77.0022
0 1.00141 0.0591492 75.3914
0 1.00219 0.0848417 60.632
0 1.00215 0.0405118 89.1123
0 1.00392 0.0151801 38.6942
0 1.00302 0.0569269 116.833
0 1.00286 0.0977289 21.9073
0 1.00234 0.071685 109.77
0 1.00245 0.0940501 20.9311
0 1.00182 0.0595022 41.5241
0 1.0026 0.0609745 38.7389
0 1.00274 0.0613175 19.541
0 1.00281 0.0362194 59.6131
0 1.00202 0.0761105 45.377
0 1.00256 0.0706536 23.5738
0 1.00191 0.0463874 12.2259
0 1.00269 0.0733121 29.6496
0 1.00215 0.115708 78.8476
0 1.00354 0.0355378 19.9434
0 1.00316 0.0686811 23.4384
0 1.00304 0.0943046 145.027
0 1.00305 0.0690759 32.0183
0 1.00254 0.0908105 18.8267
0 1.00272 0.0376585 52.4887
0 1.0018 0.0822288 65.1443
0 1.00142 0.0778879 52.4159
0 1.0027 0.0734315 101.565
0 1.00242 0.0813889 97.006
0 1.00351 0.0226045 52.6473
0 1.00264 0.0940235 61.4806
0 1.00219 0.0690848 22.381
0 1.0028 0.0714095 47.9527
0 1.00261 0.0706125 102.532
0 1.0021 0.0594632 43.2698
0 1.00247 0.0747529 40.1272
0 1.00169 0.0526184 97.1427
0 1.00228 0.0889961 7.0891
0 1.00245 0.0659039 62.7785
0 1.0018 0.0719382 20.9952
0 1.00211 0.0667242 109.808
0 1.00239 0.0605733 53.9513
0 1.00196 0.0583054 119.325
0 1.00162 0.0447158 43.2467
0 1.00231 0.0415594 51.4904
0 1.00312 0.0323591 74.1867
0 1.00284 0.0615493 38.5939
0 1.00303 0.0660607 87.2804
0 1.00286 0.0551005 73.0252
0 1.00214 0.0817149 48.7729
0 1.002 0.0950008 72.4762
0 1.00259 0.0952695 116.996
0 1.00246 0.0897595 61.516
0 1.00264 0.0495283 95.2391
0 1.00314 0.123001 25.9546
0 1.00204 0.0857014 25.8629
0 1.00212 0.0675215 51.0453
0 1.00155 0.0821817 12.7972
0 1.00165 0.04318 41.846
0 1.00193 0.0463665 11.665
0 1.00189 0.0636984 46.2274
0 1.00194 0.0820546 50.1271
0 1.00237 0.072277 88.3817
0 1.00191 0.0278828 62.7999
0 1.00189 0.0355832 20.9936
0 1.00218 0.0638364 35.1729
0 1.00229 0.0560376 26.3293
0 1.00176 0.0809071 61.6468
0 1.00188 0.0897361 33.0557
0 1.0018 0.0639986 20.9233
0 1.00178 0.0595977 17.1682
0 1.00257 0.0561965 53.8802
0 1.00272 0.0972792 115.05
0 1.0029 0.118851 43.7157
0 1.0029 0.0534072 31.6475
0 1.00233 0.0396086 38.0598
0 1.00234 0.0663248 43.8971
0 1.0023 0.0522673 46.3866
0 1.00199 0.00513275 79.2678
0 1.00169 0.0612831 80.5468
0 1.00245 0.0274384 15.083
0 1.00266 0.0885342 103.715
0 1.00161 0.0470436 49.8705
0 1.00201 0.0681363 99.4628
0 1.00226 0.0419512 19.7556
0 1.00248 0.0547942 30.9192
0 1.00199 0.0522518 45.3374
0 1.00217 0.0803764 77.6381
0 1.00199 0.0743532 13.0201
0 1.00226 0.0635003 37.0825
0 1.00222 0.0325353 68.5028
0 1.00228 0.0485896 74.2838
0 1.00211 0.0881105 61.0342
0 1.00148 0.0268471 27.8509
0 1.00163 0.123652 27.286
0 1.00243 0.0460685 43.9525
0 1.00334 0.122192 28.6034
0 1.00288 0.105005 108.877
0 1.002 0.127546 41.2866
0 1.00267 0.102473 63.7985
0 1.00234 0.0833147 26.3148
0 1.00175 0.00585262 59.1207
0 1.0021 0.0803993 80.5399
0 1.00195 0.0859795 181.912
0 1.00242 0.0447438 47.3206
0 1.00185 0.0619241 84.1431
0 1.00214 0.0385807 107.951
0 1.00255 0.0243248 67.8895
0 1.00247 0.0607394 56.3302
0 1.00243 0.0588271 23.8105
0 1.00147 0.0397935 21.9309
0 1.00211 0.0498154 18.4911
0 1.00228 0.0294863 11.1029
0 1.00094 0.0480056 61.1212
0 1.00219 0.0185213 108.362
0 1.00218 0.0728394 73.0263
0 1.00295 0.0704404 53.3635
0 1.00184 0.0822628 69.9395
0 1.00223 0.0450242 18.4169
0 1.00135 0.0464628 25.8495
0 1.00051 0.0470832 16.8364
0 1.00089 0.0534124 13.4662
0 1.00252 0.116858 99.6056
0 1.00195 0.0383069 48.42
0 1.00209 0.0966631 77.9862
0 1.0018 0.0447151 45.9386
0 1.00227 0.0544217 38.7932
0 1.00244 0.0418135 65.5439
0 1.00224 0.067258 72.4306
0 1.00181 0.111153 61.6702
0 1.00148 0.099134 82.5865
0 1.00218 0.0452867 8.04171
0 1.00184 0.0454618 23.0165
0 1.00171 0.0448899 18.2399
0 1.00101 0.0729074 70.7267
0 1.00078 0.111919 51.8946
0 1.00193 0.0636895 71.0753
0 1.00223 0.0660836 62.92
0 1.00266 0.00757133 146.451
0 1.00238 0.0635068 48.5561
0 1.00163 0.053509 46.8837
0 1.00061 0.0933962 97.7253
0 0.999431 0.123088 76.5521
0 1.00194 0.114454 122.138
0 1.00218 0.0573755 57.941
0 1.00205 0.0638755 91.1038
0 1.00192 0.0881329 104.12
0 1.00193 0.0702624 60.6486
0 1.00247 0.108304 138.293
0 1.00268 0.111732 91.9747
0 1.00213 0.107747 75.5907
0 1.00175 0.0378546 27.4838
0 1.00177 0.0429116 37.0808
0 1.00142 0.0862675 114.351
0 1.00217 0.0474285 154.471
0 1.00178 0.0439778 21.837
0 1.00225 0.0483513 32.4415
0 1.00309 0.0476521 13.1615
0 1.00247 0.0502901 45.694
0 1.00156 0.0315965 49.1466
0 1.00166 0.0511106 69.4196
0 1.00161 0.10629 35.3987
0 1.00071 0.127262 79.5672
0 1.00214 0.0368711 51.1109
0 1.00241 0.0639295 82.625
0 1.00216 0.0678165 49.2611
0 1.00295 0.0787092 95.2782
0 1.0035 0.12251 113.143
0 1.0033 0.13211 63.5355
0 1.00171 0.0378259 18.2951
0 1.00268 0.113179 124.534
0 1.0029 0.101345 94.0047
0 1.00272 0.0726581 22.1248
0 1.00289 0.0498297 89.177
0 1.00168 0.0304853 34.0103
0 1.00179 0.0306637 34.0432
0 1.00185 0.0271659 16.1745
0 1.00177 0.0594607 18.4088
0 1.00275 0.0481555 48.5635
0 1.00245 0.0747001 59.0817
0 1.00322 0.100659 154.115
0 1.00415 0.125074 122.831
0 1.00413 0.0257091 32.475
0 1.00226 0.0669922 98.4425
0 1.00256 0.00440839 146.488
0 1.00223 0.0399208 105.918
0 1.00191 0.0328723 48.4707
0 1.0014 0.0274539 31.921
0 1.00152 0.0210258 36.8961
0 1.00177 0.0126697 73.2964
0 1.00274 0.105909 78.9999
0 1.00351 0.0367667 22.2487
0 1.00404 0.125927 120.829
0 1.00463 0.0145847 48.0332
0 1.00217 0.0288956 131.935
0 1.00195 0.029782 14.2314
0 1.00111 0.0125611 99.2475
0 1.00146 0.0212188 27.0646
0 1.00148 0.0285098 8.9136
0 1.00116 0.0173201 6.46129
0 1.00128 0.0113448 92.9453
0 1.00383 0.0312957 42.6057
0 1.0035 0.0333039 134.299
0 1.00377 0.00628702 138.683
0 1.00209 0.0408361 122.937
0 1.0016 0.0319442 40.4061
0 1.00124 0.0194197 23.2144
0 1.0013 0.0245958 52.6344
0 1.00115 0.0133363 72.5464
0 1.003 0.0165509 24.5411
0 1.00282 0.016424 15.3638
0 1.0021 0.0210748 57.0389
0 1.00161 0.0187835 33.0004
0 1.00142 0.0689789 12.5916
0 1.00248 0.0137902 67.9929
0 1.00225 0.00802494 130.472
VECTORS fa_u float
0.00975042 0.00402058 -0
0.00435879 0.00255754 -0
0.00533964 0.00134153 -0
0.00513779 0.000659313 -0
1e-08 0 0
0.0061379 0.00478528 -0
0.0034199 0.00343494 -0
1e-08 0 0
1e-08 0 0
0.00309957 0.0039378 -0
0.0060409 0.0105104 -0
0.00595101 5.09457e-05 -0
0.00728289 -0.000918309 0
1e-08 0 0
1e-08 0 0
1e-08 0 0
1e-08 0 0
1e-08 0 0
1e-08 0 0
1e-08 0 0
1e-08 0 0
0.00122921 0.0030245 -0
0.00261079 0.00991229 -0
1e-08 0 0
1e-08 0 0
1e-08 0 0
0.0074768 -0.00202969 0
1e-08 0 0
0.00420628 -0.00173596 0
1e-08 0 0
1e-08 0 0
1e-08 0 0
0.00046419 0.00366223 -0
1e-08 0 0
1e-08 0 0
1e-08 0 0
1e-08 0 0
1e-08 0 0
1e-08 0 0
1e-08 0 0
1e-08 0 0
1e-08 0 0
1e-08 0 0
-0.000119419 0.0114266 -0
1e-08 0 0
1e-08 0 0
1e-08 0 0
0.0063111 -0.00357468 0
1e-08 0 0
0.00588348 -0.00451657 0
1e-08 0 0
1e-08 0 0
1e-08 0 0
1e-08 0 0
1e-08 0 0
1e-08 0 0
1e-08 0 0
1e-08 0 0
1e-08 0 0
1e-08 0 0
1e-08 0 0
1e-08 0 0
1e-08 0 0
-8.07866e-05 0.000678803 0
1e-08 0 0
1e-08 0 0
1e-08 0 0
1e-08 0 0
1e-08 0 0
0.00519971 -0.00528757 0
1e-08 0 0
0.00327574 -0.00433646 0
1e-08 0 0
1e-08 0 0
1e-08 0 0
1e-08 0 0
1e-08 0 0
1e-08 0 0
1e-08 0 0
1e-08 0 0
1e-08 0 0
1e-08 0 0
1e-08 0 0
1e-08 0 0
1e-08 0 0
-0.00487443 0.0188755 0
1e-08 0 0
1e-08 0 0
1e-08 0 0
1e-08 0 0
1e-08 0 0
1e-08 0 0
0.0026019 -0.00444187 0
1e-08 0 0
1e-08 0 0
1e-08 0 0
1e-08 0 0
1e-08 0 0
0.00324515 -0.00775915 0
1e-08 0 0
1e-08 0 0
1e-08 0 0
1e-08 0 0
1e-08 0 0
1e-08 0 0
1e-08 0 0
1e-08 0 0
1e-08 0 0
1e-08 0 0
-0.000675177 0.00159536 0
1e-08 0 0
1e-08 0 0
1e-08 0 0
1e-08 0 0
1e-08 0 0
1e-08 0 0
1e-08 0 0
1e-08 0 0
1e-08 0 0
1e-08 0 0
1e-08 0 0
1e-08 0 0
1e-08 0 0
1e-08 0 0
0.00162196 -0.00613243 0
1e-08 0 0
1e-08 0 0
1e-08 0 0
1e-08 0 0
1e-08 0 0
1e-08 0 0
1e-08 0 0
1e-08 0 0
1e-08 0 0
-0.00381414 0.00688363 0
1e-08 0 0
1e-08 0 0
1e-08 0 0
1e-08 0 0
1e-08 0 0
1e-08 0 0
1e-08 0 0
1e-08 0 0
1e-08 0 0
1e-08 0 0
1e-08 0 0
1e-08 0 0
1e-08 0 0
1e-08 0 0
1e-08 0 0
0.000821119 -0.00637026 0
1e-08 0 0
1e-08 0 0
1e-08 0 0
1e-08 0 0
1e-08 0 0
1e-08 0 0
1e-08 0 0
1e-08 0 0
1e-08 0 0
1e-08 0 0
-0.00589786 0.00761189 0
1e-08 0 0
1e-08 0 0
1e-08 0 0
1e-08 0 0
1e-08 0 0
1e-08 0 0
1e-08 0 0
1e-08 0 0
1e-08 0 0
1e-08 0 0
1e-08 0 0
1e-08 0 0
1.70695e-05 -0.00557084 0
1e-08 0 0
1e-08 0 0
1e-08 0 0
1e-08 0 0
1e-08 0 0
1e-08 0 0
1e-08 0 0
1e-08 0 0
1e-08 0 0
1e-08 0 0
1e-08 0 0
1e-08 0 0
-0.00391847 0.00383149 0
1e-08 0 0
1e-08 0 0
1e-08 0 0
1e-08 0 0
1e-08 0 0
1e-08 0 0
1e-08 0 0
1e-08 0 0
1e-08 0 0
1e-08 0 0
1e-08 0 0
1e-08 0 0
1e-08 0 0
-0.00119117 -0.00879023 0
1e-08 0 0
1e-08 0 0
1e-08 0 0
1e-08 0 0
1e-08 0 0
1e-08 0 0
1e-08 0 0
1e-08 0 0
-0.00400481 0.00307514 0
1e-08 0 0
1e-08 0 0
1e-08 0 0
1e-08 0 0
1e-08 0 0
1e-08 0 0
1e-08 0 0
1e-08 0 0
1e-08 0 0
1e-08 0 0
1e-08 0 0
-0.00132781 -0.00485141 0
1e-08 0 0
1e-08 0 0
1e-08 0 0
1e-08 0 0
1e-08 0 0
1e-08 0 0
1e-08 0 0
-0.00721163 0.00415494 0
1e-08 0 0
1e-08 0 0
1e-08 0 0
1e-08 0 0
1e-08 0 0
1e-08 0 0
1e-08 0 0
1e-08 0 0
1e-08 0 0
1e-08 0 0
1e-08 0 0
-0.00218435 -0.00534876 0
1e-08 0 0
1e-08 0 0
1e-08 0 0
1e-08 0 0
1e-08 0 0
-0.00439182 0.00183377 0
1e-08 0 0
1e-08 0 0
1e-08 0 0
1e-08 0 0
1e-08 0 0
1e-08 0 0
1e-08 0 0
1e-08 0 0
-0.00387947 -0.00677733 0
1e-08 0 0
1e-08 0 0
1e-08 0 0
1e-08 0 0
-0.00843883 0.00222045 0
1e-08 0 0
1e-08 0 0
1e-08 0 0
1e-08 0 0
1e-08 0 0
1e-08 0 0
-0.003272 -0.00428299 0
1e-08 0 0
1e-08 0 0
1e-08 0 0
-0.00541641 0.000700914 0
1e-08 0 0
1e-08 0 0
1e-08 0 0
1e-08 0 0
1e-08 0 0
1e-08 0 0
-0.0055247 -0.00557334 0
1e-08 0 0
1e-08 0 0
-0.00580153 1.99127e-05 0
1e-08 0 0
1e-08 0 0
1e-08 0 0
1e-08 0 0
-0.00484773 -0.00369786 0
1e-08 0 0
-0.01093 -0.00160682 0
1e-08 0 0
1e-08 0 0
-0.00458543 -0.00269908 0
-0.00167291 -0.000446317 0
-0.0110053 -0.00444129 0
