# vtk DataFile Version 2.0
CellBP Time: 0.68
ASCII
DATASET UNSTRUCTURED_GRID
POINTS 296 double
-9.1671 -3.76793 0
-8.5868 -4.93654 0
-9.58272 -2.53128 0
-9.83599 -1.25132 0
-8.35545 -2.8177 0
-7.86511 -6.02361 0
-7.00212 -7.00213 0
-7.91516 -3.87365 0
-7.34079 -4.86649 0
-6.02124 -7.86229 0
-4.93658 -8.58705 0
-9.93502 0.0500045 0
-9.83611 1.35136 0
-8.65571 -1.68315 0
-8.78546 -0.528679 0
-7.58778 -2.00331 0
-7.22382 -2.90552 0
-6.63587 -5.77746 0
-5.82099 -6.59536 0
-6.78834 -3.8877 0
-6.21887 -4.67459 0
-3.7665 -9.1638 0
-2.53114 -9.58293 0
-4.90528 -7.30708 0
-3.91205 -7.88434 0
-8.79189 0.642465 0
-9.583 2.63129 0
-8.62135 1.77339 0
-9.16569 3.86735 0
-7.74279 -0.928518 0
-7.79311 0.0802576 0
-6.95118 -1.31545 0
-1.25176 -9.83792 0
-6.44014 -2.15253 0
-6.31785 -3.05528 0
-5.53499 -5.47309 0
-4.79464 -6.11389 0
-5.65774 -3.75608 0
-5.2681 -4.56042 0
-2.86542 -8.3619 0
-1.77805 -8.63809 0
-3.92714 -6.72181 0
-3.05579 -7.15076 0
0.0499871 -9.92331 0
-7.70403 1.14304 0
-8.33676 2.91473 0
-7.55014 2.11135 0
-8.58708 5.03667 0
-7.87841 3.97725 0
-7.86242 6.12145 0
-6.77752 -0.396785 0
-6.95529 0.552401 0
-5.77063 -1.00325 0
-0.590606 -8.80758 0
0.565676 -8.76886 0
-5.30234 -2.47986 0
-4.49094 -5.09455 0
-3.90158 -5.77394 0
-4.43822 -3.80411 0
-2.06182 -7.56003 0
-1.13512 -7.78388 0
-2.99385 -6.10068 0
-2.30842 -6.61823 0
1.35177 -9.83821 0
-6.68828 1.42171 0
-7.17053 3.11727 0
-6.65792 2.37241 0
-7.29318 4.9875 0
-6.71655 4.00206 0
-7.00229 7.10234 0
-6.5711 5.89286 0
-6.02145 7.96252 0
-4.4525 -1.18087 0
-5.81385 0.513638 0
-4.65552 -0.0103716 0
0.00856809 -7.84618 0
1.73839 -8.64195 0
0.948855 -7.76159 0
-4.03797 -2.40601 0
-3.48502 -1.39095 0
-3.29397 -4.80457 0
-3.2654 -3.26725 0
-1.37823 -6.67408 0
-0.508586 -7.02346 0
-1.97519 -5.53616 0
2.63115 -9.5833 0
-5.5066 2.03659 0
-6.09357 3.07153 0
-6.10369 4.86847 0
-5.76054 3.99062 0
-5.76015 6.71579 0
-5.45088 5.61809 0
-4.93673 8.68733 0
-4.83751 7.40313 0
-3.50098 -0.424204 0
-4.44867 1.24885 0
-3.71091 0.592009 0
-4.06159 2.31948 0
-3.76663 9.26422 0
2.86237 -8.33137 0
0.419696 -6.79408 0
2.02178 -7.52437 0
1.30592 -6.90423 0
-2.4443 -0.873644 0
-2.83796 -2.13076 0
-2.29405 -4.09676 0
-2.32527 -2.9731 0
-0.442221 -5.8603 0
-1.2225 -4.49849 0
3.86701 -9.16533 0
-4.78916 3.39132 0
-5.08697 4.59326 0
-4.64615 6.28009 0
-4.53793 5.35863 0
-3.84301 7.99189 0
-3.8259 6.84429 0
-2.78278 8.42131 0
-1.64871 -0.137836 0
-1.44998 -0.890391 0
-2.48873 0.507231 0
-3.25312 1.44396 0
-3.23857 3.31612 0
-2.9105 2.37141 0
-1.35482 0.627026 0
-2.53131 9.68361 0
3.93215 -7.88579 0
2.9642 -7.15651 0
0.954055 -5.82117 0
2.07405 -6.41439 0
-1.6827 -1.99173 0
-1.4342 -3.27726 0
0.0903036 -4.74638 0
-0.566049 -3.6939 0
4.93149 -7.31746 0
5.0363 -8.58679 0
-3.77647 4.55105 0
-3.73406 5.7511 0
-2.88737 7.2884 0
-3.00911 6.35255 0
-1.66226 8.73215 0
-1.93969 7.61788 0
-2.33806 4.05116 0
-0.730575 -1.32699 0
-0.836712 -0.25755 0
-1.93589 1.68056 0
-2.12542 2.87542 0
-1.30633 3.54416 0
-0.869277 1.35062 0
-0.282278 0.455959 0
-0.533436 8.8702 0
-1.25179 9.93797 0
1.11273 -4.57403 0
3.90969 -6.71623 0
2.98759 -6.09371 0
2.11771 -5.42422 0
4.78396 -6.20424 0
-0.558744 -2.47642 0
0.495126 -3.46335 0
0.0535952 -1.6102 0
1.48178 -3.68161 0
5.86678 -6.6135 0
6.12076 -7.8619 0
-2.4754 5.34788 0
-2.13008 6.5334 0
-0.903886 7.80186 0
-1.27209 6.93088 0
0.0861885 7.87892 0
-1.14429 4.49416 0
0.150327 -0.617567 0
-0.797268 2.48817 0
-0.331536 3.60021 0
0.0631533 1.51248 0
0.741374 0.47333 0
0.646648 8.87293 0
0.0499917 10.0235 0
2.38082 -4.28479 0
3.85888 -5.63963 0
3.00119 -5.21216 0
5.57355 -5.49109 0
4.69079 -5.28241 0
0.62965 -2.29304 0
1.25608 -2.95088 0
0.757391 -1.39125 0
2.16413 -3.13546 0
2.9935 -3.47618 0
6.15499 -4.7914 0
6.65633 -5.76867 0
7.10219 -7.00211 0
-1.01952 5.8198 0
-0.372526 6.88263 0
1.12238 7.7682 0
0.557879 7.07873 0
-0.000723426 4.72467 0
0.606976 3.82731 0
1.33877 -0.64183 0
0.539088 2.6507 0
0.966014 1.57467 0
1.90999 0.213795 0
1.61459 1.06483 0
2.12908 7.58236 0
1.79889 8.71123 0
1.35187 9.93817 0
3.82263 -4.35126 0
5.11641 -4.44867 0
5.84554 -3.93492 0
3.78376 -3.2008 0
1.8121 -1.88247 0
3.01891 -2.57371 0
6.78318 -3.94798 0
7.3817 -4.89757 0
7.97096 -6.02791 0
0.483335 5.88113 0
1.42803 6.74113 0
2.37405 6.66819 0
1.20991 4.55579 0
1.48806 3.39724 0
2.43557 -0.691966 0
2.82775 0.142527 0
1.78874 2.16257 0
2.61164 1.14996 0
3.07168 7.16911 0
2.90402 8.37595 0
2.63235 9.68741 0
4.91122 -3.32778 0
6.12055 -3.10871 0
4.17269 -2.27519 0
3.24422 -1.50287 0
6.73103 -2.31314 0
7.23169 -3.04268 0
7.96485 -3.9126 0
8.69081 -4.93895 0
2.02356 5.59959 0
3.08632 6.15307 0
2.36382 4.12666 0
2.41991 3.06057 0
3.52543 -0.460896 0
3.61544 0.613167 0
2.96162 2.28784 0
3.54533 1.52508 0
4.01201 5.89781 0
3.98436 6.79273 0
3.97333 7.93852 0
3.8668 9.26472 0
5.56892 -1.91624 0
4.50916 -1.12965 0
6.71387 -1.33627 0
7.59225 -2.03669 0
8.3973 -2.86193 0
9.26945 -3.76881 0
3.41917 4.87705 0
3.33894 3.38526 0
4.69127 0.129991 0
4.51915 1.30988 0
4.0653 2.44371 0
4.5707 5.1526 0
4.84377 6.19083 0
4.98067 7.38066 0
5.03676 8.68732 0
5.88376 -0.434986 0
7.01107 -0.488337 0
7.75965 -1.08545 0
8.68504 -1.74627 0
9.68253 -2.53097 0
4.55275 3.82779 0
5.81824 1.09862 0
5.37173 2.53509 0
5.38056 4.62093 0
5.61261 5.52388 0
5.89772 6.67243 0
6.12139 7.96241 0
6.84674 0.463577 0
7.85386 -0.0256278 0
8.86101 -0.584341 0
9.94133 -1.25209 0
6.96134 1.34961 0
5.72186 3.77885 0
6.54241 2.19775 0
6.38117 3.08833 0
6.29326 4.68746 0
6.69399 5.83855 0
7.10225 7.10229 0
7.78527 0.967802 0
8.86051 0.572898 0
10.0231 0.050008 0
7.61736 2.00461 0
6.83034 3.90471 0
7.27079 2.9472 0
7.37956 4.88639 0
7.96267 6.12165 0
8.72426 1.72733 0
9.9376 1.35177 0
8.42252 2.83841 0
7.98324 3.91675 0
8.68699 5.03645 0
9.68467 2.63176 0
9.27093 3.86946 0
CELLS 542 2168
3 2 0 4
3 0 1 7
3 4 0 7
3 1 5 8
3 7 1 8
3 3 2 13
3 13 2 4
3 11 3 14
3 14 3 13
3 13 4 15
3 4 7 16
3 15 4 16
3 5 6 17
3 8 5 17
3 6 9 18
3 17 6 18
3 7 8 19
3 16 7 19
3 8 17 20
3 19 8 20
3 9 10 23
3 18 9 23
3 10 21 24
3 23 10 24
3 12 11 25
3 25 11 14
3 26 12 27
3 27 12 25
3 14 13 29
3 29 13 15
3 25 14 30
3 30 14 29
3 29 15 31
3 15 16 33
3 31 15 33
3 16 19 34
3 33 16 34
3 17 18 35
3 20 17 35
3 18 23 36
3 35 18 36
3 19 20 37
3 34 19 37
3 20 35 38
3 37 20 38
3 21 22 39
3 24 21 39
3 22 32 40
3 39 22 40
3 23 24 41
3 36 23 41
3 24 39 42
3 41 24 42
3 27 25 44
3 44 25 30
3 28 26 45
3 45 26 27
3 45 27 46
3 46 27 44
3 47 28 48
3 48 28 45
3 30 29 50
3 50 29 31
3 44 30 51
3 51 30 50
3 50 31 52
3 31 33 52
3 32 43 53
3 40 32 53
3 53 43 54
3 33 34 55
3 34 37 55
3 33 55 52
3 35 36 56
3 38 35 56
3 36 41 57
3 56 36 57
3 37 38 58
3 38 56 58
3 37 58 55
3 39 40 59
3 42 39 59
3 40 53 60
3 59 40 60
3 41 42 61
3 57 41 61
3 42 59 62
3 61 42 62
3 43 63 54
3 46 44 64
3 64 44 51
3 48 45 65
3 65 45 46
3 65 46 66
3 66 46 64
3 49 47 67
3 67 47 48
3 67 48 68
3 68 48 65
3 69 49 70
3 70 49 67
3 52 55 72
3 64 51 73
3 51 50 73
3 50 52 73
3 73 52 74
3 74 52 72
3 53 54 75
3 60 53 75
3 54 63 76
3 54 76 77
3 75 54 77
3 55 58 78
3 72 55 78
3 72 78 79
3 56 57 80
3 57 61 80
3 56 80 58
3 58 80 81
3 78 58 81
3 59 60 82
3 62 59 82
3 60 75 83
3 82 60 83
3 61 62 84
3 62 82 84
3 61 84 80
3 63 85 76
3 66 64 86
3 64 73 86
3 68 65 87
3 87 65 66
3 87 66 86
3 70 67 88
3 88 67 68
3 88 68 89
3 89 68 87
3 71 69 90
3 90 69 70
3 90 70 91
3 91 70 88
3 92 71 93
3 93 71 90
3 74 72 94
3 94 72 79
3 86 73 95
3 95 73 74
3 95 74 96
3 96 74 94
3 97 86 95
3 76 85 99
3 75 77 100
3 83 75 100
3 76 99 101
3 77 76 101
3 77 101 102
3 100 77 102
3 94 79 103
3 78 81 104
3 79 78 104
3 79 104 103
3 80 84 105
3 81 80 105
3 81 105 106
3 104 81 106
3 82 83 107
3 83 100 107
3 82 107 84
3 84 107 108
3 105 84 108
3 85 109 99
3 89 87 110
3 87 86 110
3 110 86 97
3 91 88 111
3 111 88 89
3 111 89 110
3 93 90 112
3 112 90 91
3 112 91 113
3 113 91 111
3 98 92 114
3 114 92 93
3 114 93 115
3 115 93 112
3 116 98 114
3 117 103 118
3 96 94 119
3 94 103 119
3 119 103 117
3 97 95 120
3 120 95 96
3 120 96 119
3 121 110 97
3 121 97 122
3 122 97 120
3 123 119 117
3 124 98 116
3 99 109 125
3 99 125 126
3 101 99 126
3 100 102 127
3 100 127 107
3 101 126 128
3 102 101 128
3 102 128 127
3 104 106 129
3 104 129 103
3 103 129 118
3 105 108 130
3 106 105 130
3 106 130 129
3 107 127 131
3 108 107 131
3 108 131 132
3 108 132 130
3 109 134 125
3 125 134 133
3 113 111 135
3 111 110 135
3 135 110 121
3 115 112 136
3 136 112 113
3 136 113 135
3 116 114 137
3 137 114 115
3 137 115 138
3 138 115 136
3 139 124 116
3 139 116 140
3 140 116 137
3 141 135 121
3 118 129 142
3 118 142 143
3 117 118 143
3 123 117 143
3 122 120 144
3 120 119 144
3 144 119 123
3 141 121 145
3 145 121 122
3 145 122 144
3 146 141 145
3 147 144 123
3 147 123 148
3 143 148 123
3 150 124 139
3 149 150 139
3 131 127 151
3 125 133 152
3 126 125 152
3 126 152 153
3 128 126 153
3 128 153 154
3 128 154 127
3 127 154 151
3 152 133 155
3 130 132 156
3 130 156 129
3 129 156 142
3 131 151 157
3 132 131 157
3 132 157 156
3 156 158 142
3 157 151 159
3 133 160 155
3 134 161 133
3 133 161 160
3 138 136 162
3 136 135 162
3 162 135 141
3 140 137 163
3 163 137 138
3 163 138 162
3 149 139 164
3 164 139 140
3 164 140 165
3 165 140 163
3 166 149 164
3 167 162 141
3 167 141 146
3 142 158 168
3 143 142 168
3 143 168 148
3 146 145 169
3 145 144 169
3 169 144 147
3 170 167 146
3 170 146 169
3 171 169 147
3 171 147 148
3 171 148 172
3 168 172 148
3 173 149 166
3 174 150 149
3 173 174 149
3 154 175 151
3 151 175 159
3 152 155 176
3 153 152 176
3 153 176 177
3 153 177 154
3 154 177 175
3 155 160 178
3 155 178 179
3 176 155 179
3 156 157 180
3 156 180 158
3 157 159 181
3 157 181 180
3 158 180 182
3 158 182 168
3 159 175 183
3 159 183 181
3 175 184 183
3 160 186 178
3 178 186 185
3 161 187 160
3 160 187 186
3 165 163 188
3 163 162 188
3 188 162 167
3 166 164 189
3 189 164 165
3 189 165 188
3 190 173 166
3 190 166 191
3 191 166 189
3 192 188 167
3 192 167 170
3 193 192 170
3 182 194 168
3 194 172 168
3 193 170 195
3 170 169 195
3 195 169 171
3 196 195 171
3 196 171 172
3 194 197 172
3 197 198 172
3 198 196 172
3 200 173 190
3 199 200 190
3 201 174 173
3 200 201 173
3 176 179 202
3 177 176 202
3 177 202 175
3 175 202 184
3 178 185 203
3 178 203 179
3 179 203 202
3 203 185 204
3 202 205 184
3 183 206 181
3 180 181 206
3 180 206 182
3 182 206 194
3 183 184 207
3 205 207 184
3 183 207 206
3 185 208 204
3 186 209 185
3 185 209 208
3 187 210 186
3 186 210 209
3 191 189 211
3 189 188 211
3 211 188 192
3 199 190 212
3 212 190 191
3 212 191 211
3 213 199 212
3 214 211 192
3 214 192 193
3 215 214 193
3 215 193 195
3 206 216 194
3 216 197 194
3 216 217 197
3 215 195 218
3 218 195 196
3 198 218 196
3 217 219 197
3 219 218 198
3 197 219 198
3 220 199 213
3 221 200 199
3 220 221 199
3 222 201 200
3 221 222 200
3 203 204 223
3 203 223 202
3 202 223 205
3 204 208 224
3 204 224 223
3 205 223 225
3 205 225 207
3 207 225 226
3 207 226 206
3 226 216 206
3 208 228 224
3 224 228 227
3 209 229 208
3 229 228 208
3 210 230 209
3 209 230 229
3 213 212 231
3 212 211 231
3 231 211 214
3 232 220 213
3 232 213 231
3 233 231 214
3 233 214 215
3 234 233 215
3 234 215 218
3 226 235 216
3 235 217 216
3 235 236 217
3 217 236 219
3 237 234 218
3 237 218 219
3 236 238 219
3 238 237 219
3 240 220 232
3 239 240 232
3 241 221 220
3 240 241 220
3 242 222 221
3 241 242 221
3 224 227 243
3 224 243 223
3 223 243 225
3 225 243 244
3 225 244 226
3 226 244 235
3 227 245 243
3 228 246 227
3 227 246 245
3 229 247 228
3 228 247 246
3 230 248 229
3 229 248 247
3 239 232 249
3 232 231 249
3 249 231 233
3 250 249 233
3 250 233 234
3 237 250 234
3 244 251 235
3 235 251 236
3 251 252 236
3 236 252 238
3 252 253 238
3 253 250 237
3 253 237 238
3 254 239 249
3 255 240 239
3 254 255 239
3 256 241 240
3 255 256 240
3 257 242 241
3 256 257 241
3 245 258 243
3 243 258 244
3 244 258 251
3 245 259 258
3 246 260 245
3 245 260 259
3 247 261 246
3 246 261 260
3 248 262 247
3 247 262 261
3 254 249 263
3 263 249 250
3 253 263 250
3 258 264 251
3 251 264 252
3 264 265 252
3 265 263 253
3 252 265 253
3 266 254 263
3 267 255 254
3 266 267 254
3 268 256 255
3 267 268 255
3 269 257 256
3 268 269 256
3 259 270 258
3 270 264 258
3 260 271 259
3 259 271 270
3 261 272 260
3 260 272 271
3 262 273 261
3 273 272 261
3 270 274 264
3 275 266 263
3 275 263 265
3 274 276 264
3 276 265 264
3 276 277 265
3 277 275 265
3 278 267 266
3 275 278 266
3 279 268 267
3 278 279 267
3 280 269 268
3 279 280 268
3 271 281 270
3 270 281 274
3 272 282 271
3 271 282 281
3 273 283 272
3 272 283 282
3 281 284 274
3 274 284 276
3 285 278 275
3 277 285 275
3 284 286 276
3 286 285 277
3 276 286 277
3 287 279 278
3 285 287 278
3 288 280 279
3 287 288 279
3 282 289 281
3 281 289 284
3 283 290 282
3 282 290 289
3 289 291 284
3 284 291 286
3 291 292 286
3 292 287 285
3 286 292 285
3 293 288 287
3 292 293 287
3 290 294 289
3 289 294 291
3 294 295 291
3 295 293 292
3 291 295 292
CELL_TYPES 542
5
5
5
5
5
5
5
5
5
5
5
5
5
5
5
5
5
5
5
5
5
5
5
5
5
5
5
5
5
5
5
5
5
5
5
5
5
5
5
5
5
5
5
5
5
5
5
5
5
5
5
5
5
5
5
5
5
5
5
5
5
5
5
5
5
5
5
5
5
5
5
5
5
5
5
5
5
5
5
5
5
5
5
5
5
5
5
5
5
5
5
5
5
5
5
5
5
5
5
5
5
5
5
5
5
5
5
5
5
5
5
5
5
5
5
5
5
5
5
5
5
5
5
5
5
5
5
5
5
5
5
5
5
5
5
5
5
5
5
5
5
5
5
5
5
5
5
5
5
5
5
5
5
5
5
5
5
5
5
5
5
5
5
5
5
5
5
5
5
5
5
5
5
5
5
5
5
5
5
5
5
5
5
5
5
5
5
5
5
5
5
5
5
5
5
5
5
5
5
5
5
5
5
5
5
5
5
5
5
5
5
5
5
5
5
5
5
5
5
5
5
5
5
5
5
5
5
5
5
5
5
5
5
5
5
5
5
5
5
5
5
5
5
5
5
5
5
5
5
5
5
5
5
5
5
5
5
5
5
5
5
5
5
5
5
5
5
5
5
5
5
5
5
5
5
5
5
5
5
5
5
5
5
5
5
5
5
5
5
5
5
5
5
5
5
5
5
5
5
5
5
5
5
5
5
5
5
5
5
5
5
5
5
5
5
5
5
5
5
5
5
5
5
5
5
5
5
5
5
5
5
5
5
5
5
5
5
5
5
5
5
5
5
5
5
5
5
5
5
5
5
5
5
5
5
5
5
5
5
5
5
5
5
5
5
5
5
5
5
5
5
5
5
5
5
5
5
5
5
5
5
5
5
5
5
5
5
5
5
5
5
5
5
5
5
5
5
5
5
5
5
5
5
5
5
5
5
5
5
5
5
5
5
5
5
5
5
5
5
5
5
5
5
5
5
5
5
5
5
5
5
5
5
5
5
5
5
5
5
5
5
5
5
5
5
5
5
5
5
5
5
5
5
5
5
5
5
5
5
5
5
5
5
5
5
5
5
5
5
5
5
5
5
5
5
5
5
5
5
5
5
5
5
5
5
5
5
5
5
5
5
5
5
5
5
5
5
5
5
5
5
5
5
5
5
5
5
5
5
5
5
5
5
5
5
5
5
5
5
5
5
5
5
5
5
5
5
5
5
5
5
5
5
5
5
5
5
5
5
5
5
5
POINT_DATA 296
SCALARS concentrations float 4
LOOKUP_TABLE default
0 0.993731 0.117901 3.58077
0 0.993689 0.12658 6.05947
0 0.993362 0.126202 6.11254
0 0.993115 0.125743 6.17694
0 0.993864 0.0932002 0.591142
0 0.99373 0.117608 3.55155
0 0.99335 0.125882 6.06823
0 0.994016 0.093077 0.572132
0 0.994007 0.0930781 0.568271
0 0.993083 0.125587 6.168
0 0.992961 0.125561 6.14563
0 0.993007 0.125302 6.08687
0 0.992961 0.1255 6.10764
0 0.993574 0.0929989 0.397701
0 0.993423 0.0929796 0.393582
0 0.994366 0.0930431 0.55224
0 0.994459 0.0929507 0.5668
0 0.99386 0.0931801 0.59773
0 0.993542 0.0929802 0.403444
0 0.994543 0.0929681 0.674758
0 0.994444 0.0929487 0.572762
0 0.992922 0.12596 6.20963
0 0.992927 0.126317 6.27335
0 0.99339 0.0930028 0.40262
0 0.993323 0.0930253 0.405763
0 0.993369 0.0929909 0.40058
0 0.992946 0.125232 6.07646
0 0.99333 0.0930214 0.405996
0 0.992927 0.123207 6.04872
0 0.994227 0.0930601 0.434327
0 0.99419 0.0930296 0.410995
0 0.994904 0.092707 0.415819
0 0.992963 0.125512 6.13914
0 0.995008 0.0925335 0.400197
0 0.99492 0.09266 0.501232
0 0.994333 0.0930235 0.557247
0 0.994185 0.093036 0.439413
0 0.995012 0.0925386 0.439095
0 0.994877 0.0927204 0.459172
0 0.993335 0.0930736 0.417605
0 0.993336 0.0931113 0.427156
0 0.994142 0.0930645 0.418403
0 0.994129 0.0930831 0.420183
0 0.992984 0.125429 6.09555
0 0.994166 0.0931065 0.41336
0 0.993319 0.0931638 0.319454
0 0.994154 0.0931839 0.379124
0 0.992955 0.125214 6.06801
0 0.993318 0.0931284 0.314484
0 0.992978 0.125127 6.0433
0 0.995011 0.0926323 0.351583
0 0.994906 0.0927867 0.365076
0 0.99551 0.0920201 0.239839
0 0.993383 0.093075 0.41642
0 0.993359 0.0930118 0.384069
0 0.995479 0.091997 0.240072
0 0.994979 0.0926408 0.385992
0 0.994851 0.0927891 0.375933
0 0.99548 0.0920448 0.241309
0 0.994175 0.0930914 0.423934
0 0.994204 0.0930888 0.423826
0 0.994994 0.0927178 0.353367
0 0.994878 0.0928453 0.37844
0 0.992945 0.125113 6.00945
0 0.995053 0.0926756 0.329166
0 0.994138 0.0931404 0.360947
0 0.994914 0.0928354 0.334624
0 0.993355 0.0929782 0.391445
0 0.994162 0.0931017 0.365831
0 0.992993 0.125052 6.04152
0 0.993368 0.0929449 0.390604
0 0.993005 0.12506 6.03993
0 0.995923 0.0917924 0.176895
0 0.995562 0.0920734 0.250393
0 0.995959 0.0918132 0.200658
0 0.99423 0.0930737 0.408793
0 0.99332 0.0929628 0.34775
0 0.994216 0.0930571 0.375742
0 0.995929 0.091794 0.166271
0 0.996303 0.0917016 0.151373
0 0.995519 0.0921011 0.237456
0 0.995944 0.091833 0.175869
0 0.995026 0.0926424 0.340046
0 0.99491 0.092723 0.353168
0 0.995557 0.0921308 0.24366
0 0.992801 0.125466 6.21378
0 0.99557 0.0920818 0.24844
0 0.995034 0.0926956 0.322384
0 0.994169 0.0930862 0.409284
0 0.994913 0.092826 0.349694
0 0.993388 0.0929297 0.386419
0 0.99419 0.0930698 0.41606
0 0.993009 0.125023 6.03962
0 0.993386 0.0929222 0.38593
0 0.996355 0.0916448 0.154229
0 0.995966 0.0918421 0.219654
0 0.996315 0.0916983 0.182228
0 0.995973 0.0918304 0.218401
0 0.99301 0.125212 6.07821
0 0.993167 0.0930374 0.215861
0 0.995047 0.0926662 0.328753
0 0.99417 0.0929062 0.256168
0 0.994949 0.0927469 0.298965
0 0.996591 0.0914604 0.110345
0 0.996368 0.0916616 0.143866
0 0.995981 0.0918585 0.188279
0 0.996338 0.091734 0.162281
0 0.995577 0.092134 0.240309
0 0.995999 0.0918475 0.189768
0 0.992611 0.118897 6.42143
0 0.995572 0.0920828 0.250827
0 0.995046 0.092702 0.35281
0 0.994185 0.0930556 0.415789
0 0.994913 0.0928431 0.383441
0 0.993394 0.0929371 0.389669
0 0.994194 0.0930439 0.413268
0 0.993392 0.0929377 0.387915
0 0.996774 0.0913466 0.0859228
0 0.996794 0.0913405 0.0866156
0 0.996587 0.091433 0.115849
0 0.996362 0.0916556 0.178472
0 0.995959 0.091816 0.208589
0 0.996313 0.0917174 0.190349
0 0.996814 0.091271 0.0720893
0 0.993019 0.125117 6.06455
0 0.99319 0.0930895 0.20208
0 0.994211 0.0928173 0.233175
0 0.995606 0.0921959 0.235952
0 0.995078 0.0926568 0.273722
0 0.99663 0.0914623 0.114213
0 0.996405 0.0916725 0.156476
0 0.996042 0.0918399 0.180923
0 0.996376 0.091666 0.153364
0 0.99336 0.0929917 0.360777
0 0.992834 0.125557 6.2283
0 0.995567 0.0920683 0.249313
0 0.995037 0.0926947 0.357178
0 0.994191 0.0930411 0.40984
0 0.994911 0.0927966 0.370301
0 0.993411 0.0929394 0.382842
0 0.994195 0.0930261 0.403136
0 0.995971 0.0918066 0.195735
0 0.996859 0.0912712 0.0789709
0 0.996926 0.0911312 0.0425753
0 0.996607 0.091421 0.116596
0 0.996379 0.0916528 0.167824
0 0.99634 0.0917209 0.172463
0 0.996817 0.0912483 0.0714498
0 0.996949 0.0910266 0.0201072
0 0.993473 0.0929219 0.379015
0 0.993061 0.125371 6.10549
0 0.996052 0.0918408 0.180076
0 0.994236 0.0929034 0.244955
0 0.995065 0.0927262 0.278985
0 0.995703 0.0921943 0.231711
0 0.99427 0.0930771 0.328712
0 0.996665 0.091451 0.115751
0 0.996454 0.0916282 0.14445
0 0.996878 0.0912763 0.0848747
0 0.996339 0.0918039 0.181998
0 0.993445 0.0931024 0.30396
0 0.993014 0.125534 6.08134
0 0.995567 0.0920517 0.235047
0 0.995039 0.0926554 0.339418
0 0.994202 0.0930243 0.40259
0 0.994907 0.0927763 0.357554
0 0.994269 0.0930215 0.427321
0 0.99597 0.0918159 0.18613
0 0.996971 0.0910182 0.0373822
0 0.996637 0.0914103 0.109509
0 0.996405 0.0916777 0.158038
0 0.996856 0.0912108 0.0673653
0 0.996952 0.0910442 0.0447053
0 0.993639 0.092884 0.385996
0 0.993189 0.125062 6.0661
0 0.996033 0.0918973 0.201185
0 0.99511 0.0926808 0.27953
0 0.995643 0.0922887 0.251593
0 0.994289 0.0930925 0.350728
0 0.99505 0.0927238 0.303978
0 0.996746 0.0913907 0.106055
0 0.99662 0.0915236 0.131915
0 0.996895 0.0912371 0.087098
0 0.996453 0.0916969 0.172969
0 0.996149 0.0919481 0.223696
0 0.994269 0.093083 0.349677
0 0.993453 0.0930673 0.305165
0 0.993079 0.122956 5.97439
0 0.995561 0.0920436 0.223553
0 0.995041 0.0926151 0.335954
0 0.994399 0.0929952 0.539026
0 0.994959 0.0927256 0.411757
0 0.995982 0.0918288 0.181241
0 0.996364 0.0917379 0.164322
0 0.99691 0.0911564 0.0777393
0 0.996656 0.0914272 0.111195
0 0.996842 0.0912712 0.0840527
0 0.996859 0.0912459 0.0926568
0 0.996841 0.0912878 0.0940996
0 0.994453 0.0929437 0.533915
0 0.993892 0.0930463 0.575596
0 0.993434 0.1254 5.95981
0 0.995676 0.09215 0.244236
0 0.995143 0.0926493 0.305511
0 0.994991 0.092825 0.326946
0 0.996024 0.0919587 0.222413
0 0.996707 0.0913758 0.117507
0 0.996422 0.0916919 0.178746
0 0.994284 0.0930254 0.375607
0 0.993491 0.092958 0.37397
0 0.99311 0.125184 6.05437
0 0.995553 0.0920022 0.223002
0 0.995087 0.0925617 0.388816
0 0.994982 0.0927711 0.447535
0 0.995975 0.0918127 0.175489
0 0.996409 0.0916836 0.155448
0 0.996736 0.0913998 0.124803
0 0.996677 0.0915153 0.14678
0 0.996645 0.0914658 0.12379
0 0.996655 0.0914959 0.140722
0 0.994389 0.0929991 0.526537
0 0.993896 0.0929764 0.555435
0 0.993713 0.116782 3.43918
0 0.995639 0.09215 0.23959
0 0.995143 0.092596 0.311235
0 0.996087 0.0918347 0.200435
0 0.996485 0.0915847 0.157836
0 0.995082 0.0926662 0.384968
0 0.994379 0.093019 0.401161
0 0.993569 0.0929464 0.368311
0 0.993151 0.125768 6.13613
0 0.995569 0.0919879 0.224621
0 0.995079 0.0926329 0.375951
0 0.995984 0.0917966 0.176448
0 0.996355 0.0917425 0.173021
0 0.996438 0.0916389 0.167692
0 0.996413 0.0916928 0.1829
0 0.996409 0.0917055 0.178337
0 0.996365 0.0917558 0.196894
0 0.994957 0.0927688 0.367063
0 0.994287 0.0930088 0.428401
0 0.993662 0.0928098 0.379481
0 0.993467 0.124707 5.84589
0 0.995654 0.092004 0.228702
0 0.996094 0.0917412 0.181702
0 0.99519 0.0925354 0.388766
0 0.99452 0.093008 0.52128
0 0.993742 0.0929021 0.369373
0 0.993282 0.125914 6.16796
0 0.995584 0.0920159 0.223089
0 0.995999 0.0918199 0.193131
0 0.996079 0.0917307 0.185049
0 0.996046 0.0917858 0.200101
0 0.99603 0.0918139 0.202765
0 0.995091 0.0926335 0.335592
0 0.994244 0.0930118 0.401488
0 0.993527 0.0928674 0.3733
0 0.99324 0.124974 6.04993
0 0.995666 0.0920105 0.246443
0 0.995072 0.0926869 0.438539
0 0.994559 0.0929115 0.531056
0 0.993989 0.0930449 0.542568
0 0.993532 0.125713 5.96272
0 0.995628 0.0920588 0.237617
0 0.995661 0.0920373 0.233723
0 0.995662 0.0920584 0.231568
0 0.995004 0.0927779 0.358442
0 0.994276 0.0930002 0.394628
0 0.993485 0.0928819 0.37084
0 0.993133 0.125184 6.06198
0 0.995157 0.0926182 0.368778
0 0.994502 0.0929676 0.545177
0 0.993997 0.0930592 0.599894
0 0.993804 0.117286 3.48242
0 0.995008 0.0927927 0.336464
0 0.995141 0.0926643 0.330391
0 0.995138 0.0926751 0.305072
0 0.995026 0.0928171 0.329309
0 0.994289 0.0930435 0.396419
0 0.993497 0.0928609 0.364147
0 0.993116 0.125001 6.01964
0 0.994335 0.093041 0.40032
0 0.993722 0.0929001 0.410042
0 0.993533 0.125689 5.98536
0 0.994267 0.09306 0.344219
0 0.994292 0.093055 0.385108
0 0.994255 0.0930783 0.344173
0 0.993483 0.0928586 0.362207
0 0.993125 0.124252 5.90015
0 0.993543 0.0930367 0.312752
0 0.99328 0.125375 6.11499
0 0.993467 0.0930596 0.284566
0 0.993483 0.092902 0.363771
0 0.993118 0.124651 5.95727
0 0.993131 0.123065 6.01739
0 0.993109 0.124929 6.01746
VECTORS fa_u float
0.00330578 0.00137613 0
0.0052564 0.00301453 0
0.00592029 0.00152095 0
0.00611857 0.000847191 0
0.000500433 0.000314668 0
0.00284692 0.00212333 0
0.00427637 0.00430535 0
0.000533823 0.000205834 0
0.000445812 0.000352397 0
0.00377963 0.00487429 0
0.00308866 0.00531309 0
0.00608683 2.23609e-05 0
0.00605299 -0.000815179 0
0.000375698 0.000130448 0
0.000391338 4.19728e-05 0
0.000506921 0.000219089 0
0.000509194 0.000248965 0
0.000532911 0.000270716 0
0.000316804 0.000249804 0
0.000586322 0.000333955 0
0.000481932 0.000309513 0
0.00237166 0.00573888 0
0.00161864 0.00606093 0
0.000245802 0.00031888 0
0.000180864 0.000363225 0
0.000399907 -2.32229e-05 0
0.00586902 -0.00157417 0
0.000402354 -5.42604e-05 0
0.00559004 -0.00231052 0
0.000429469 6.47827e-05 0
0.000410981 -3.39248e-06 0
0.000406945 8.5449e-05 0
0.00079816 0.00608703 0
0.000378069 0.00013123 0
0.000443597 0.000233357 0
0.00045116 0.000327076 0
0.000302265 0.000318936 0
0.000373682 0.000230578 0
0.000357926 0.000287624 0
0.00013795 0.000394162 0
9.74184e-05 0.000415899 0
0.000207892 0.0003631 0
0.000162917 0.000387314 0
-7.13004e-06 0.00609555 0
0.000410934 -4.47212e-05 0
0.000314319 -5.70492e-05 0
0.000373678 -6.40308e-05 0
0.00526144 -0.00302291 0
0.000258242 -0.000179475 0
0.00479119 -0.00368321 0
0.000351511 -7.08241e-06 0
0.000363106 -3.78692e-05 0
0.000239633 9.93564e-06 0
4.76276e-05 0.000413687 0
9.99785e-06 0.000383939 0
0.000221959 9.14821e-05 0
0.000265571 0.000280111 0
0.000206369 0.000314225 0
0.000180087 0.000160619 0
0.00012168 0.000406096 0
7.71972e-05 0.000416736 0
0.000147234 0.000321232 0
0.000126758 0.000356581 0
-0.000799064 0.00595608 0
0.000323546 -6.0567e-05 0
0.000330361 -0.00014541 0
0.000317098 -0.000106876 0
0.000307198 -0.000242608 0
0.000299832 -0.000209601 0
0.00427336 -0.00427064 0
0.000287142 -0.000264804 0
0.00368889 -0.00478255 0
0.000174477 2.9146e-05 0
0.000245363 -4.99347e-05 0
0.000199359 -2.27919e-05 0
1.77127e-05 0.000408409 0
-7.18484e-06 0.000347676 0
-7.91117e-06 0.000375659 0
0.000140813 8.84167e-05 0
0.000140335 5.67431e-05 0
0.000124906 0.00020195 0
0.000110572 0.000136761 0
8.2735e-05 0.000329827 0
4.0541e-05 0.000350833 0
8.12357e-05 0.000229719 0
-0.00165111 0.0059904 0
0.000231832 -8.93109e-05 0
0.000285848 -0.000149072 0
0.000312795 -0.000263955 0
0.000285836 -0.000201455 0
0.000257678 -0.000287961 0
0.000295373 -0.00029302 0
0.00303312 -0.00522276 0
0.000221478 -0.000316053 0
0.000153635 1.35252e-05 0
0.000209249 -6.68036e-05 0
0.000179105 -3.35901e-05 0
0.000193554 -0.000101174 0
0.00233653 -0.00561117 0
4.38377e-05 0.000211363 0
3.01868e-06 0.000328739 0
-1.4289e-05 0.00025577 0
-3.16946e-05 0.00029728 0
0.000100809 4.4873e-05 0
0.000105343 9.79814e-05 0
8.08318e-05 0.000170045 0
8.63151e-05 0.000137422 0
3.6788e-05 0.000237477 0
5.0832e-05 0.000182833 0
-0.00246682 0.0059287 0
0.000210882 -0.000135804 0
0.000268371 -0.000229024 0
0.000261009 -0.000323658 0
0.000261197 -0.000280719 0
0.000178418 -0.000346423 0
0.000220043 -0.000349816 0
0.00013194 -0.000364787 0
8.40878e-05 1.76626e-05 0
6.5161e-05 5.70641e-05 0
0.000114815 -1.54428e-05 0
0.000165365 -6.7134e-05 0
0.00015832 -0.000135809 0
0.000155913 -0.000109197 0
6.84532e-05 -2.2606e-05 0
0.00157259 -0.00585711 0
-0.000159291 0.000124349 0
-8.67916e-05 0.000216421 0
-2.85053e-05 0.000234224 0
-9.30948e-05 0.000257404 0
6.1817e-05 9.60374e-05 0
5.12401e-05 0.000147849 0
7.21891e-06 0.000180779 0
2.08855e-05 0.000151935 0
-0.000218662 0.000286962 0
-0.00309676 0.00540387 0
0.000172212 -0.000180277 0
0.000211119 -0.000288106 0
0.00016587 -0.000374775 0
0.000175588 -0.000326024 0
7.2469e-05 -0.000375921 0
0.000114124 -0.000386645 0
0.000109805 -0.000162034 0
2.43878e-05 7.51109e-05 0
3.46375e-05 2.47569e-05 0
9.40541e-05 -6.89092e-05 0
0.00010886 -0.000127727 0
6.76061e-05 -0.000158659 0
3.99587e-05 -5.92315e-05 0
6.48702e-06 -1.9032e-05 0
-6.48638e-06 -0.000378959 0
0.00078057 -0.00605538 0
-5.10814e-05 0.000172679 0
-0.000157442 0.000187656 0
-0.000132933 0.000245278 0
-9.65155e-05 0.000210654 0
-0.000202087 0.000259254 0
1.28502e-05 0.000115036 0
-2.24114e-05 0.0001427 0
-1.22463e-05 8.39865e-05 0
-7.74197e-05 0.00016471 0
-0.000181746 0.00024364 0
-0.00372208 0.00480924 0
0.000107871 -0.000208833 0
0.000119179 -0.000317807 0
3.99043e-05 -0.000400608 0
7.63238e-05 -0.000349313 0
-4.72273e-05 -0.000424703 0
5.41359e-05 -0.000178083 0
-2.03584e-05 3.13523e-05 0
3.75495e-05 -0.000102871 0
2.23436e-05 -0.00015645 0
-4.83364e-06 -6.71917e-05 0
-4.0766e-05 -1.83493e-05 0
-9.95891e-05 -0.000372927 0
-1.56856e-05 -0.00606608 0
-0.000122841 0.000159329 0
-0.000173042 0.00021953 0
-0.000153629 0.000199241 0
-0.000259656 0.000235774 0
-0.000206479 0.000223089 0
-3.57681e-05 9.98412e-05 0
-6.5925e-05 0.000114261 0
-5.53592e-05 6.72415e-05 0
-0.000115408 0.000128838 0
-0.000159535 0.000156807 0
-0.000287757 0.00019867 0
-0.000257687 0.000163471 0
-0.00421523 0.00423381 0
4.58287e-05 -0.000218805 0
1.50958e-05 -0.000335615 0
-0.000151086 -0.000517419 0
-6.94509e-05 -0.000405858 0
6.55783e-06 -0.000181123 0
-2.21453e-05 -0.000162823 0
-7.12296e-05 3.11407e-05 0
-2.17559e-05 -0.000109046 0
-4.36728e-05 -7.1816e-05 0
-9.21738e-05 -9.44835e-06 0
-7.89343e-05 -5.12259e-05 0
-0.000138744 -0.000515573 0
-0.000227334 -0.0005288 0
-0.00072449 -0.00591561 0
-0.000177626 0.000167631 0
-0.00023041 0.00020062 0
-0.000271597 0.000182013 0
-0.000174374 0.000138063 0
-9.43412e-05 7.00541e-05 0
-0.000146415 0.000102533 0
-0.000336784 0.000166304 0
-0.000326363 0.000182595 0
-0.00480208 0.0036872 0
-2.05869e-05 -0.00022205 0
-8.68825e-05 -0.000378985 0
-0.000138464 -0.000425576 0
-4.69056e-05 -0.000169105 0
-6.49391e-05 -0.000141234 0
-0.000119559 3.57951e-05 0
-0.000146417 -1.03138e-05 0
-8.21386e-05 -9.26134e-05 0
-0.000128671 -5.69767e-05 0
-0.000139222 -0.000507798 0
-6.83443e-05 -0.000551214 0
-0.000894865 -0.00332072 0
-0.000192984 0.000141988 0
-0.000281146 0.000133507 0
-0.000177017 9.40175e-05 0
-0.000147392 5.64609e-05 0
-0.000375834 8.33635e-05 0
-0.000385234 0.000111913 0
-0.000345909 0.00012649 0
-0.0053431 0.00301718 0
-8.07525e-05 -0.000209604 0
-0.000145901 -0.000346486 0
-9.6297e-05 -0.000147853 0
-0.000114459 -0.000129752 0
-0.000167127 1.37566e-05 0
-0.0001793 -3.61055e-05 0
-0.000147978 -9.95327e-05 0
-0.000182523 -7.38412e-05 0
-0.000209793 -0.000301201 0
-0.000167629 -0.000394243 0
-9.92995e-05 -0.000366258 0
-0.0022855 -0.00538061 0
-0.000214867 7.83358e-05 0
-0.000177103 4.06238e-05 0
-0.00038505 5.36256e-05 0
-0.000518796 5.0827e-05 0
-0.000365135 5.57949e-05 0
-0.00571676 0.00231568 0
-0.000144375 -0.000170073 0
-0.000149766 -0.000121942 0
-0.00018424 -1.72878e-05 0
-0.000190322 -6.17899e-05 0
-0.000179825 -9.36824e-05 0
-0.000243079 -0.000231375 0
-0.000251282 -0.000313129 0
-0.000184548 -0.000324492 0
-0.00301143 -0.00524719 0
-0.000246126 1.24998e-05 0
-0.000436845 3.85003e-05 0
-0.000527316 6.29099e-05 0
-0.00054254 -5.53821e-06 0
-0.00574671 0.0015904 0
-0.000196261 -0.000133953 0
-0.000228956 -4.69627e-05 0
-0.000210871 -9.56925e-05 0
-0.000285123 -0.000217222 0
-0.000291957 -0.000265503 0
-0.000250192 -0.000273727 0
-0.00368271 -0.00481511 0
-0.000368567 1.24659e-05 0
-0.000536428 9.72815e-05 0
-0.00057592 0.000167895 0
-0.00344814 0.000487396 0
-0.000333645 -4.34582e-05 0
-0.00027712 -0.000179896 0
-0.000285331 -0.000107959 0