# vtk DataFile Version 2.0
CellBP Time: 1.24
ASCII
DATASET UNSTRUCTURED_GRID
POINTS 296 double
-9.13555 -3.755 0
-8.55967 -4.9209 0
-9.55271 -2.52335 0
-9.80538 -1.2472 0
-8.35296 -2.817 0
-7.83837 -6.00301 0
-6.98014 -6.98024 0
-7.91287 -3.87249 0
-7.33863 -4.86506 0
-6.00237 -7.83789 0
-4.92103 -8.56013 0
-9.90452 0.0499705 0
-9.80552 1.34721 0
-8.65282 -1.68273 0
-8.78258 -0.528421 0
-7.58516 -2.00266 0
-7.22139 -2.90457 0
-6.63399 -5.77552 0
-5.81904 -6.59325 0
-6.78619 -3.88642 0
-6.21683 -4.67293 0
-3.75465 -9.13503 0
-2.52326 -9.5535 0
-4.90374 -7.30488 0
-3.91084 -7.88194 0
-8.78903 0.642183 0
-9.55328 2.6235 0
-8.61855 1.77291 0
-9.13681 3.85549 0
-7.73998 -0.928209 0
-7.79032 0.0802756 0
-6.9489 -1.31501 0
-1.24762 -9.80734 0
-6.43809 -2.1518 0
-6.31578 -3.05431 0
-5.53317 -5.47115 0
-4.79294 -6.11172 0
-5.65594 -3.75485 0
-5.26632 -4.55885 0
-2.86453 -8.35915 0
-1.77732 -8.63521 0
-3.92578 -6.71946 0
-3.05468 -7.14823 0
0.0500281 -9.89237 0
-7.70124 1.14265 0
-8.33418 2.91384 0
-7.54737 2.11062 0
-8.56093 5.02153 0
-7.87601 3.97612 0
-7.83805 6.1027 0
-6.77529 -0.396645 0
-6.9529 0.552279 0
-5.76911 -1.00294 0
-0.590378 -8.80483 0
0.565496 -8.76617 0
-5.30089 -2.47919 0
-4.48945 -5.09285 0
-3.90022 -5.77194 0
-4.43697 -3.80307 0
-2.06103 -7.55733 0
-1.13469 -7.78111 0
-2.99277 -6.09862 0
-2.30756 -6.61591 0
1.34771 -9.80766 0
-6.68609 1.42128 0
-7.16797 3.11617 0
-6.65562 2.37159 0
-7.29106 4.98604 0
-6.7142 4.00071 0
-6.98027 7.0805 0
-6.56909 5.89102 0
-6.00466 7.94082 0
-4.45124 -1.18049 0
-5.81232 0.513531 0
-4.65423 -0.0102919 0
0.00849739 -7.84342 0
1.73788 -8.63935 0
0.948469 -7.75885 0
-4.03683 -2.40531 0
-3.48393 -1.39047 0
-3.29299 -4.80324 0
-3.26443 -3.26629 0
-1.37775 -6.67189 0
-0.508458 -7.02111 0
-1.97458 -5.53462 0
2.62318 -9.5536 0
-5.50516 2.03607 0
-6.09155 3.07049 0
-6.10155 4.86675 0
-5.75853 3.98926 0
-5.75833 6.71406 0
-5.44895 5.61618 0
-4.92119 8.66036 0
-4.83632 7.4011 0
-3.4999 -0.423997 0
-4.44741 1.24857 0
-3.70976 0.591925 0
-4.06047 2.31889 0
-3.75478 9.23553 0
2.86141 -8.32875 0
0.41953 -6.79176 0
2.02101 -7.5217 0
1.30539 -6.90176 0
-2.44352 -0.873318 0
-2.83707 -2.13006 0
-2.29335 -4.09559 0
-2.32452 -2.97214 0
-0.442035 -5.85864 0
-1.22211 -4.4972 0
3.8551 -9.13676 0
-4.78789 3.39042 0
-5.08525 4.59172 0
-4.64455 6.27796 0
-4.53633 5.35674 0
-3.84194 7.98959 0
-3.82461 6.842 0
-2.78195 8.41892 0
-1.64803 -0.13771 0
-1.44941 -0.890014 0
-2.48794 0.507184 0
-3.2521 1.4436 0
-3.23764 3.31525 0
-2.90955 2.37075 0
-1.35426 0.62689 0
-2.52327 9.65372 0
3.93104 -7.88323 0
2.96321 -7.15399 0
0.953809 -5.81936 0
2.0733 -6.41206 0
-1.68216 -1.99108 0
-1.43375 -3.27622 0
0.0903373 -4.74502 0
-0.565858 -3.69279 0
4.9301 -7.31528 0
5.02085 -8.56027 0
-3.77547 4.54983 0
-3.7328 5.74916 0
-2.88635 7.28593 0
-3.00803 6.35035 0
-1.66174 8.72968 0
-1.93897 7.61532 0
-2.33739 4.05008 0
-0.730279 -1.32648 0
-0.836344 -0.257386 0
-1.93523 1.68015 0
-2.12471 2.87461 0
-1.30585 3.54309 0
-0.868895 1.35023 0
-0.282099 0.455826 0
-0.533235 8.86769 0
-1.24777 9.90801 0
1.11243 -4.57268 0
3.90841 -6.71382 0
2.98657 -6.0914 0
2.11713 -5.42247 0
4.78235 -6.20204 0
-0.558558 -2.47561 0
0.495033 -3.46227 0
0.0536241 -1.60961 0
1.48135 -3.68033 0
5.86509 -6.61152 0
6.10197 -7.8374 0
-2.47474 5.34643 0
-2.12933 6.53124 0
-0.903529 7.79922 0
-1.27161 6.9285 0
0.0862492 7.87624 0
-1.14393 4.49292 0
0.150316 -0.617359 0
-0.79693 2.48749 0
-0.331323 3.59911 0
0.0632453 1.51202 0
0.741212 0.473197 0
0.646531 8.87039 0
0.0500183 9.99348 0
2.38013 -4.28352 0
3.85762 -5.63759 0
3.00022 -5.21048 0
5.57164 -5.48917 0
4.68922 -5.2806 0
0.629499 -2.29229 0
1.25571 -2.94999 0
0.757113 -1.39077 0
2.16346 -3.13448 0
2.99253 -3.47502 0
6.15295 -4.7897 0
6.65473 -5.76694 0
7.08034 -6.97995 0
-1.01925 5.81824 0
-0.372343 6.88038 0
1.12209 7.76565 0
0.557765 7.07639 0
-0.000673815 4.72333 0
0.606865 3.8261 0
1.33837 -0.641618 0
0.539032 2.64992 0
0.965821 1.57416 0
1.90943 0.213721 0
1.61414 1.06445 0
2.12835 7.57985 0
1.79848 8.70887 0
1.34773 9.9075 0
3.82149 -4.34996 0
5.11466 -4.44714 0
5.8435 -3.93344 0
3.7826 -3.19981 0
1.81154 -1.88196 0
3.01798 -2.57298 0
6.78093 -3.9466 0
7.37979 -4.89634 0
7.94927 -6.0112 0
0.483215 5.87958 0
1.42763 6.73898 0
2.37323 6.66591 0
1.20961 4.55449 0
1.48768 3.39616 0
2.4348 -0.691722 0
2.8268 0.142469 0
1.78827 2.16188 0
2.61085 1.14955 0
3.07058 7.16669 0
2.90301 8.37367 0
2.62367 9.65531 0
4.90979 -3.32677 0
6.11855 -3.10759 0
4.17147 -2.27457 0
3.24324 -1.50249 0
6.72884 -2.31228 0
7.22923 -3.04148 0
7.96258 -3.91142 0
8.66373 -4.92347 0
2.02306 5.59814 0
3.08532 6.15104 0
2.36323 4.1255 0
2.41922 3.05957 0
3.52432 -0.460777 0
3.61429 0.61297 0
2.96073 2.2871 0
3.54421 1.52459 0
4.01061 5.89581 0
3.98302 6.79036 0
3.9722 7.93614 0
3.85544 9.23724 0
5.56743 -1.91566 0
4.50794 -1.12935 0
6.71171 -1.33582 0
7.58974 -2.03592 0
8.3949 -2.86099 0
9.24078 -3.757 0
3.41827 4.87578 0
3.33805 3.3843 0
4.69005 0.129958 0
4.51794 1.30951 0
4.06421 2.44303 0
4.56915 5.15091 0
4.84211 6.18874 0
4.97927 7.37856 0
5.02152 8.66084 0
5.88218 -0.434821 0
7.00874 -0.488177 0
7.75717 -1.08506 0
8.68276 -1.74564 0
9.65267 -2.52305 0
4.5515 3.82674 0
5.81668 1.09834 0
5.37027 2.5344 0
5.3787 4.61935 0
5.6108 5.52205 0
5.89613 6.67055 0
6.10262 7.93786 0
6.84448 0.4634 0
7.85137 -0.0257431 0
8.85874 -0.584255 0
9.90895 -1.2478 0
6.9589 1.34911 0
5.7199 3.77757 0
6.54017 2.19698 0
6.37892 3.08724 0
6.29116 4.68593 0
6.69243 5.83702 0
7.08037 7.08025 0
7.78262 0.967383 0
8.85806 0.572642 0
9.99298 0.0500164 0
7.61476 2.00391 0
6.82809 3.90343 0
7.26831 2.94624 0
7.37766 4.8853 0
7.94172 6.10559 0
8.72175 1.72682 0
9.90703 1.34778 0
8.42022 2.83788 0
7.98128 3.91574 0
8.66007 5.02088 0
9.65437 2.62384 0
9.24549 3.85901 0
CELLS 542 2168
3 2 0 4
3 0 1 7
3 4 0 7
3 1 5 8
3 7 1 8
3 3 2 13
3 13 2 4
3 11 3 14
3 14 3 13
3 13 4 15
3 4 7 16
3 15 4 16
3 5 6 17
3 8 5 17
3 6 9 18
3 17 6 18
3 7 8 19
3 16 7 19
3 8 17 20
3 19 8 20
3 9 10 23
3 18 9 23
3 10 21 24
3 23 10 24
3 12 11 25
3 25 11 14
3 26 12 27
3 27 12 25
3 14 13 29
3 29 13 15
3 25 14 30
3 30 14 29
3 29 15 31
3 15 16 33
3 31 15 33
3 16 19 34
3 33 16 34
3 17 18 35
3 20 17 35
3 18 23 36
3 35 18 36
3 19 20 37
3 34 19 37
3 20 35 38
3 37 20 38
3 21 22 39
3 24 21 39
3 22 32 40
3 39 22 40
3 23 24 41
3 36 23 41
3 24 39 42
3 41 24 42
3 27 25 44
3 44 25 30
3 28 26 45
3 45 26 27
3 45 27 46
3 46 27 44
3 47 28 48
3 48 28 45
3 30 29 50
3 50 29 31
3 44 30 51
3 51 30 50
3 50 31 52
3 31 33 52
3 32 43 53
3 40 32 53
3 53 43 54
3 33 34 55
3 34 37 55
3 33 55 52
3 35 36 56
3 38 35 56
3 36 41 57
3 56 36 57
3 37 38 58
3 38 56 58
3 37 58 55
3 39 40 59
3 42 39 59
3 40 53 60
3 59 40 60
3 41 42 61
3 57 41 61
3 42 59 62
3 61 42 62
3 43 63 54
3 46 44 64
3 64 44 51
3 48 45 65
3 65 45 46
3 65 46 66
3 66 46 64
3 49 47 67
3 67 47 48
3 67 48 68
3 68 48 65
3 69 49 70
3 70 49 67
3 52 55 72
3 64 51 73
3 51 50 73
3 50 52 73
3 73 52 74
3 74 52 72
3 53 54 75
3 60 53 75
3 54 63 76
3 54 76 77
3 75 54 77
3 55 58 78
3 72 55 78
3 72 78 79
3 56 57 80
3 57 61 80
3 56 80 58
3 58 80 81
3 78 58 81
3 59 60 82
3 62 59 82
3 60 75 83
3 82 60 83
3 61 62 84
3 62 82 84
3 61 84 80
3 63 85 76
3 66 64 86
3 64 73 86
3 68 65 87
3 87 65 66
3 87 66 86
3 70 67 88
3 88 67 68
3 88 68 89
3 89 68 87
3 71 69 90
3 90 69 70
3 90 70 91
3 91 70 88
3 92 71 93
3 93 71 90
3 74 72 94
3 94 72 79
3 86 73 95
3 95 73 74
3 95 74 96
3 96 74 94
3 97 86 95
3 76 85 99
3 75 77 100
3 83 75 100
3 76 99 101
3 77 76 101
3 77 101 102
3 100 77 102
3 94 79 103
3 78 81 104
3 79 78 104
3 79 104 103
3 80 84 105
3 81 80 105
3 81 105 106
3 104 81 106
3 82 83 107
3 83 100 107
3 82 107 84
3 84 107 108
3 105 84 108
3 85 109 99
3 89 87 110
3 87 86 110
3 110 86 97
3 91 88 111
3 111 88 89
3 111 89 110
3 93 90 112
3 112 90 91
3 112 91 113
3 113 91 111
3 98 92 114
3 114 92 93
3 114 93 115
3 115 93 112
3 116 98 114
3 117 103 118
3 96 94 119
3 94 103 119
3 119 103 117
3 97 95 120
3 120 95 96
3 120 96 119
3 121 110 97
3 121 97 122
3 122 97 120
3 123 119 117
3 124 98 116
3 99 109 125
3 99 125 126
3 101 99 126
3 100 102 127
3 100 127 107
3 101 126 128
3 102 101 128
3 102 128 127
3 104 106 129
3 104 129 103
3 103 129 118
3 105 108 130
3 106 105 130
3 106 130 129
3 107 127 131
3 108 107 131
3 108 131 132
3 108 132 130
3 109 134 125
3 125 134 133
3 113 111 135
3 111 110 135
3 135 110 121
3 115 112 136
3 136 112 113
3 136 113 135
3 116 114 137
3 137 114 115
3 137 115 138
3 138 115 136
3 139 124 116
3 139 116 140
3 140 116 137
3 141 135 121
3 118 129 142
3 118 142 143
3 117 118 143
3 123 117 143
3 122 120 144
3 120 119 144
3 144 119 123
3 141 121 145
3 145 121 122
3 145 122 144
3 146 141 145
3 147 144 123
3 147 123 148
3 143 148 123
3 150 124 139
3 149 150 139
3 131 127 151
3 125 133 152
3 126 125 152
3 126 152 153
3 128 126 153
3 128 153 154
3 128 154 127
3 127 154 151
3 152 133 155
3 130 132 156
3 130 156 129
3 129 156 142
3 131 151 157
3 132 131 157
3 132 157 156
3 156 158 142
3 157 151 159
3 133 160 155
3 134 161 133
3 133 161 160
3 138 136 162
3 136 135 162
3 162 135 141
3 140 137 163
3 163 137 138
3 163 138 162
3 149 139 164
3 164 139 140
3 164 140 165
3 165 140 163
3 166 149 164
3 167 162 141
3 167 141 146
3 142 158 168
3 143 142 168
3 143 168 148
3 146 145 169
3 145 144 169
3 169 144 147
3 170 167 146
3 170 146 169
3 171 169 147
3 171 147 148
3 171 148 172
3 168 172 148
3 173 149 166
3 174 150 149
3 173 174 149
3 154 175 151
3 151 175 159
3 152 155 176
3 153 152 176
3 153 176 177
3 153 177 154
3 154 177 175
3 155 160 178
3 155 178 179
3 176 155 179
3 156 157 180
3 156 180 158
3 157 159 181
3 157 181 180
3 158 180 182
3 158 182 168
3 159 175 183
3 159 183 181
3 175 184 183
3 160 186 178
3 178 186 185
3 161 187 160
3 160 187 186
3 165 163 188
3 163 162 188
3 188 162 167
3 166 164 189
3 189 164 165
3 189 165 188
3 190 173 166
3 190 166 191
3 191 166 189
3 192 188 167
3 192 167 170
3 193 192 170
3 182 194 168
3 194 172 168
3 193 170 195
3 170 169 195
3 195 169 171
3 196 195 171
3 196 171 172
3 194 197 172
3 197 198 172
3 198 196 172
3 200 173 190
3 199 200 190
3 201 174 173
3 200 201 173
3 176 179 202
3 177 176 202
3 177 202 175
3 175 202 184
3 178 185 203
3 178 203 179
3 179 203 202
3 203 185 204
3 202 205 184
3 183 206 181
3 180 181 206
3 180 206 182
3 182 206 194
3 183 184 207
3 205 207 184
3 183 207 206
3 185 208 204
3 186 209 185
3 185 209 208
3 187 210 186
3 186 210 209
3 191 189 211
3 189 188 211
3 211 188 192
3 199 190 212
3 212 190 191
3 212 191 211
3 213 199 212
3 214 211 192
3 214 192 193
3 215 214 193
3 215 193 195
3 206 216 194
3 216 197 194
3 216 217 197
3 215 195 218
3 218 195 196
3 198 218 196
3 217 219 197
3 219 218 198
3 197 219 198
3 220 199 213
3 221 200 199
3 220 221 199
3 222 201 200
3 221 222 200
3 203 204 223
3 203 223 202
3 202 223 205
3 204 208 224
3 204 224 223
3 205 223 225
3 205 225 207
3 207 225 226
3 207 226 206
3 226 216 206
3 208 228 224
3 224 228 227
3 209 229 208
3 229 228 208
3 210 230 209
3 209 230 229
3 213 212 231
3 212 211 231
3 231 211 214
3 232 220 213
3 232 213 231
3 233 231 214
3 233 214 215
3 234 233 215
3 234 215 218
3 226 235 216
3 235 217 216
3 235 236 217
3 217 236 219
3 237 234 218
3 237 218 219
3 236 238 219
3 238 237 219
3 240 220 232
3 239 240 232
3 241 221 220
3 240 241 220
3 242 222 221
3 241 242 221
3 224 227 243
3 224 243 223
3 223 243 225
3 225 243 244
3 225 244 226
3 226 244 235
3 227 245 243
3 228 246 227
3 227 246 245
3 229 247 228
3 228 247 246
3 230 248 229
3 229 248 247
3 239 232 249
3 232 231 249
3 249 231 233
3 250 249 233
3 250 233 234
3 237 250 234
3 244 251 235
3 235 251 236
3 251 252 236
3 236 252 238
3 252 253 238
3 253 250 237
3 253 237 238
3 254 239 249
3 255 240 239
3 254 255 239
3 256 241 240
3 255 256 240
3 257 242 241
3 256 257 241
3 245 258 243
3 243 258 244
3 244 258 251
3 245 259 258
3 246 260 245
3 245 260 259
3 247 261 246
3 246 261 260
3 248 262 247
3 247 262 261
3 254 249 263
3 263 249 250
3 253 263 250
3 258 264 251
3 251 264 252
3 264 265 252
3 265 263 253
3 252 265 253
3 266 254 263
3 267 255 254
3 266 267 254
3 268 256 255
3 267 268 255
3 269 257 256
3 268 269 256
3 259 270 258
3 270 264 258
3 260 271 259
3 259 271 270
3 261 272 260
3 260 272 271
3 262 273 261
3 273 272 261
3 270 274 264
3 275 266 263
3 275 263 265
3 274 276 264
3 276 265 264
3 276 277 265
3 277 275 265
3 278 267 266
3 275 278 266
3 279 268 267
3 278 279 267
3 280 269 268
3 279 280 268
3 271 281 270
3 270 281 274
3 272 282 271
3 271 282 281
3 273 283 272
3 272 283 282
3 281 284 274
3 274 284 276
3 285 278 275
3 277 285 275
3 284 286 276
3 286 285 277
3 276 286 277
3 287 279 278
3 285 287 278
3 288 280 279
3 287 288 279
3 282 289 281
3 281 289 284
3 283 290 282
3 282 290 289
3 289 291 284
3 284 291 286
3 291 292 286
3 292 287 285
3 286 292 285
3 293 288 287
3 292 293 287
3 290 294 289
3 289 294 291
3 294 295 291
3 295 293 292
3 291 295 292
CELL_TYPES 542
5
5
5
5
5
5
5
5
5
5
5
5
5
5
5
5
5
5
5
5
5
5
5
5
5
5
5
5
5
5
5
5
5
5
5
5
5
5
5
5
5
5
5
5
5
5
5
5
5
5
5
5
5
5
5
5
5
5
5
5
5
5
5
5
5
5
5
5
5
5
5
5
5
5
5
5
5
5
5
5
5
5
5
5
5
5
5
5
5
5
5
5
5
5
5
5
5
5
5
5
5
5
5
5
5
5
5
5
5
5
5
5
5
5
5
5
5
5
5
5
5
5
5
5
5
5
5
5
5
5
5
5
5
5
5
5
5
5
5
5
5
5
5
5
5
5
5
5
5
5
5
5
5
5
5
5
5
5
5
5
5
5
5
5
5
5
5
5
5
5
5
5
5
5
5
5
5
5
5
5
5
5
5
5
5
5
5
5
5
5
5
5
5
5
5
5
5
5
5
5
5
5
5
5
5
5
5
5
5
5
5
5
5
5
5
5
5
5
5
5
5
5
5
5
5
5
5
5
5
5
5
5
5
5
5
5
5
5
5
5
5
5
5
5
5
5
5
5
5
5
5
5
5
5
5
5
5
5
5
5
5
5
5
5
5
5
5
5
5
5
5
5
5
5
5
5
5
5
5
5
5
5
5
5
5
5
5
5
5
5
5
5
5
5
5
5
5
5
5
5
5
5
5
5
5
5
5
5
5
5
5
5
5
5
5
5
5
5
5
5
5
5
5
5
5
5
5
5
5
5
5
5
5
5
5
5
5
5
5
5
5
5
5
5
5
5
5
5
5
5
5
5
5
5
5
5
5
5
5
5
5
5
5
5
5
5
5
5
5
5
5
5
5
5
5
5
5
5
5
5
5
5
5
5
5
5
5
5
5
5
5
5
5
5
5
5
5
5
5
5
5
5
5
5
5
5
5
5
5
5
5
5
5
5
5
5
5
5
5
5
5
5
5
5
5
5
5
5
5
5
5
5
5
5
5
5
5
5
5
5
5
5
5
5
5
5
5
5
5
5
5
5
5
5
5
5
5
5
5
5
5
5
5
5
5
5
5
5
5
5
5
5
5
5
5
5
5
5
5
5
5
5
5
5
5
5
5
5
5
5
5
5
5
5
5
5
5
5
5
5
5
5
5
5
5
5
5
5
5
5
5
5
5
5
5
5
5
5
5
5
5
5
5
5
5
5
5
5
5
5
5
5
5
5
5
5
5
5
5
5
5
5
POINT_DATA 296
SCALARS concentrations float 4
LOOKUP_TABLE default
0 0.986397 0.153641 9.45657
0 0.986396 0.153508 9.42541
0 0.986502 0.153278 9.21768
0 0.986637 0.147986 10.0034
0 0.986852 0.0937639 0.527216
0 0.986504 0.153002 9.20309
0 0.986607 0.147918 10.0546
0 0.986835 0.0937171 0.506112
0 0.986848 0.0937594 0.529705
0 0.986479 0.15276 9.15914
0 0.986375 0.152969 9.32366
0 0.986649 0.152073 8.85432
0 0.986666 0.147727 9.97482
0 0.986917 0.0938672 0.742376
0 0.986917 0.0937766 0.766512
0 0.987752 0.0937796 0.570939
0 0.987795 0.0937572 0.501897
0 0.986935 0.0938332 0.719047
0 0.986908 0.0938249 0.735256
0 0.987798 0.0937652 0.503017
0 0.987735 0.0937477 0.560054
0 0.98645 0.15364 9.26019
0 0.986593 0.148966 10.2153
0 0.986801 0.0936991 0.541162
0 0.986786 0.0937138 0.534578
0 0.986933 0.0937635 0.771415
0 0.986566 0.152173 9.07492
0 0.986937 0.0938074 0.74042
0 0.986489 0.152561 9.2922
0 0.987666 0.0937805 0.609619
0 0.987611 0.0936592 0.631032
0 0.988658 0.0933599 0.426456
0 0.986521 0.152637 9.14037
0 0.988879 0.0932211 0.393268
0 0.98874 0.0934163 0.424119
0 0.987727 0.0937447 0.587449
0 0.987678 0.0937321 0.570144
0 0.988855 0.0932587 0.40044
0 0.988622 0.0934424 0.446276
0 0.986912 0.0939203 0.725139
0 0.986927 0.0939803 0.773621
0 0.987694 0.0937367 0.516573
0 0.987677 0.09376 0.567365
0 0.986443 0.152328 9.28541
0 0.987686 0.0937672 0.610374
0 0.986915 0.0936896 0.518512
0 0.987767 0.0938098 0.57788
0 0.986547 0.151539 9.28842
0 0.986925 0.0936385 0.475604
0 0.986701 0.151972 9.11023
0 0.988746 0.0932209 0.393477
0 0.988566 0.0933691 0.43782
0 0.989572 0.0925006 0.268134
0 0.986881 0.0938063 0.555111
0 0.986869 0.0936821 0.510025
0 0.989591 0.0925285 0.283328
0 0.988793 0.0932915 0.410055
0 0.988621 0.0934288 0.435263
0 0.989547 0.0925692 0.280256
0 0.98775 0.0937858 0.608026
0 0.987761 0.0937757 0.599224
0 0.988802 0.0933325 0.415518
0 0.988615 0.0934834 0.464848
0 0.986471 0.151581 9.23348
0 0.988856 0.0932249 0.397987
0 0.987844 0.0937779 0.501476
0 0.988753 0.093421 0.43441
0 0.987035 0.0936401 0.497648
0 0.987909 0.0937098 0.490272
0 0.98676 0.147275 10.1722
0 0.987142 0.0936561 0.687425
0 0.98658 0.14391 6.67605
0 0.990113 0.0922046 0.241453
0 0.989571 0.092507 0.268038
0 0.990136 0.0922088 0.244724
0 0.987823 0.0937714 0.523564
0 0.986966 0.0936036 0.480234
0 0.987876 0.0937496 0.504895
0 0.990107 0.092215 0.239209
0 0.990531 0.0920697 0.216493
0 0.989549 0.092588 0.287449
0 0.990097 0.0922559 0.245602
0 0.988807 0.0932386 0.417949
0 0.988651 0.093346 0.438207
0 0.98956 0.0926049 0.29744
0 0.986534 0.152004 9.29169
0 0.989617 0.0924962 0.286108
0 0.988954 0.0932586 0.406077
0 0.987931 0.0937224 0.563828
0 0.988801 0.0934149 0.447748
0 0.987106 0.0937187 0.534737
0 0.988012 0.0937214 0.535922
0 0.986584 0.152122 9.46829
0 0.987043 0.0935146 0.327577
0 0.990611 0.0919854 0.201814
0 0.990133 0.0922234 0.252048
0 0.990569 0.0920503 0.221323
0 0.990148 0.0922006 0.253991
0 0.986629 0.152276 9.36795
0 0.987024 0.0935698 0.465679
0 0.988866 0.0933122 0.421213
0 0.987932 0.0936207 0.476405
0 0.988758 0.0934482 0.447146
0 0.990886 0.0917296 0.14189
0 0.990593 0.0920124 0.201747
0 0.990121 0.0922746 0.255776
0 0.990547 0.0921129 0.227257
0 0.989572 0.0926216 0.304193
0 0.990132 0.0922529 0.254307
0 0.986585 0.151712 9.2489
0 0.989644 0.0925053 0.301828
0 0.988999 0.0932866 0.442501
0 0.988014 0.093657 0.496888
0 0.988871 0.0934584 0.478856
0 0.987107 0.0935321 0.469162
0 0.988093 0.0936817 0.459206
0 0.987115 0.0935632 0.457762
0 0.991142 0.0915781 0.109878
0 0.991148 0.0915739 0.110843
0 0.990909 0.091691 0.138731
0 0.990636 0.0919877 0.208051
0 0.990138 0.0921892 0.256485
0 0.990578 0.0920695 0.226773
0 0.991207 0.091469 0.092365
0 0.986626 0.151994 9.29693
0 0.987075 0.0935611 0.45939
0 0.987998 0.0935399 0.460961
0 0.989587 0.0927466 0.329651
0 0.988896 0.0933582 0.433221
0 0.990913 0.0917398 0.147957
0 0.990628 0.0920283 0.213816
0 0.990173 0.0922611 0.252783
0 0.990589 0.0920214 0.212789
0 0.98711 0.0935675 0.456672
0 0.986623 0.151897 9.28017
0 0.989663 0.0925054 0.320679
0 0.989063 0.0932866 0.44921
0 0.988084 0.0936908 0.496878
0 0.988948 0.0934358 0.465906
0 0.987083 0.0935938 0.454138
0 0.988053 0.0936953 0.489804
0 0.990149 0.0921857 0.255824
0 0.991221 0.0914832 0.10107
0 0.991334 0.0912843 0.0603778
0 0.990945 0.0916737 0.138319
0 0.990655 0.0919861 0.2069
0 0.990591 0.0920805 0.224334
0 0.991208 0.0914311 0.0886585
0 0.991367 0.0911082 0.0285136
0 0.987024 0.0935962 0.464457
0 0.986587 0.15214 9.33893
0 0.990148 0.0922904 0.251891
0 0.988035 0.0935696 0.468486
0 0.98885 0.093436 0.449577
0 0.989651 0.0927615 0.332816
0 0.988067 0.0936699 0.485515
0 0.99095 0.0917315 0.151999
0 0.990678 0.0919903 0.200036
0 0.991234 0.0914942 0.109079
0 0.990506 0.0922607 0.24458
0 0.987132 0.0935352 0.442742
0 0.986639 0.151935 9.32019
0 0.989673 0.0925003 0.320416
0 0.989054 0.0932721 0.442481
0 0.987999 0.093723 0.490391
0 0.988873 0.0934391 0.456282
0 0.98795 0.0937575 0.502885
0 0.990129 0.0922077 0.253761
0 0.991373 0.0911044 0.0440405
0 0.990966 0.0916563 0.135449
0 0.990654 0.0920284 0.211699
0 0.991238 0.0913618 0.0750295
0 0.991348 0.0911116 0.0352549
0 0.986986 0.0935737 0.48687
0 0.986555 0.151435 9.2485
0 0.990068 0.0923649 0.266014
0 0.988927 0.0933074 0.440391
0 0.989528 0.0928604 0.3578
0 0.988154 0.0937206 0.44364
0 0.988936 0.0933363 0.448691
0 0.991046 0.0916611 0.138663
0 0.990873 0.0918701 0.175112
0 0.991249 0.0914613 0.106321
0 0.990634 0.0921178 0.22127
0 0.990208 0.0924383 0.288281
0 0.98816 0.093662 0.426408
0 0.987065 0.093507 0.278724
0 0.986588 0.151439 9.40946
0 0.989643 0.0925112 0.306059
0 0.989011 0.0932682 0.42517
0 0.98787 0.093735 0.51578
0 0.988842 0.0934321 0.445942
0 0.99014 0.0922472 0.256966
0 0.990596 0.0921227 0.231327
0 0.991274 0.0913604 0.0898998
0 0.990963 0.0916771 0.138776
0 0.991201 0.0914476 0.0897107
0 0.991209 0.0914807 0.105686
0 0.991191 0.0914962 0.100396
0 0.987808 0.0937165 0.570537
0 0.98698 0.0935813 0.527634
0 0.986563 0.151828 9.2298
0 0.989614 0.0926498 0.341968
0 0.989093 0.093252 0.447761
0 0.98897 0.0934765 0.478048
0 0.990043 0.0924424 0.30002
0 0.990983 0.0916735 0.144578
0 0.990582 0.0921132 0.227385
0 0.988163 0.0936774 0.441118
0 0.9871 0.0935076 0.276453
0 0.986509 0.143375 6.77838
0 0.989628 0.0924993 0.294065
0 0.988928 0.0932497 0.412676
0 0.988716 0.0935073 0.465922
0 0.990135 0.0922378 0.252248
0 0.990646 0.0920468 0.214918
0 0.99103 0.0917245 0.155589
0 0.990959 0.0918826 0.180328
0 0.990932 0.0917396 0.14739
0 0.990932 0.0918159 0.161907
0 0.987782 0.0937445 0.58414
0 0.987033 0.0936152 0.700644
0 0.98666 0.150981 8.98011
0 0.989618 0.0926562 0.35855
0 0.989091 0.0932412 0.448239
0 0.990147 0.0922927 0.269878
0 0.99068 0.0919733 0.202855
0 0.988924 0.0933795 0.458106
0 0.988113 0.0937381 0.509844
0 0.987152 0.0935355 0.460652
0 0.986599 0.152519 9.55571
0 0.989616 0.0924844 0.277938
0 0.988906 0.0933 0.422499
0 0.990127 0.0922063 0.247466
0 0.99056 0.0921272 0.22949
0 0.990631 0.0920531 0.215433
0 0.990595 0.0921072 0.224289
0 0.990603 0.092079 0.217444
0 0.990526 0.0921639 0.235607
0 0.988824 0.0934344 0.460056
0 0.987858 0.0937244 0.559657
0 0.987062 0.0935904 0.67824
0 0.986753 0.145662 9.82018
0 0.989631 0.0925288 0.312231
0 0.990177 0.0921835 0.242938
0 0.989003 0.0932643 0.425261
0 0.988039 0.0937758 0.506942
0 0.987132 0.0935705 0.467278
0 0.986654 0.152419 9.38971
0 0.989622 0.0924842 0.298495
0 0.9901 0.0922199 0.260726
0 0.990159 0.0921521 0.240402
0 0.990102 0.0921878 0.258308
0 0.990095 0.0922027 0.266538
0 0.9891 0.0932575 0.450968
0 0.98804 0.093688 0.501103
0 0.987096 0.0935353 0.494762
0 0.986715 0.151324 9.01354
0 0.989646 0.0925545 0.30703
0 0.988846 0.0934448 0.451254
0 0.987995 0.0937027 0.481958
0 0.987068 0.0935732 0.452339
0 0.986634 0.151593 9.24084
0 0.989681 0.0925127 0.356642
0 0.989664 0.0925129 0.329326
0 0.989697 0.0924977 0.364369
0 0.989092 0.0934171 0.488667
0 0.988257 0.0936532 0.435437
0 0.987188 0.0934763 0.438996
0 0.986688 0.15192 9.2685
0 0.989041 0.0932916 0.446057
0 0.988044 0.0936762 0.484733
0 0.987089 0.0935679 0.443887
0 0.98662 0.1505 9.20698
0 0.988996 0.0934596 0.488038
0 0.989266 0.0932645 0.490091
0 0.989194 0.0932737 0.483702
0 0.98916 0.0934392 0.50458
0 0.988374 0.0936468 0.433925
0 0.98727 0.0934741 0.246647
0 0.986708 0.151722 9.44081
0 0.98812 0.0937036 0.505466
0 0.987153 0.0935349 0.4544
0 0.986655 0.151381 9.24881
0 0.988261 0.0936946 0.468243
0 0.988446 0.0936679 0.405331
0 0.988342 0.0936398 0.448767
0 0.987297 0.0933772 0.247485
0 0.986705 0.142233 6.68321
0 0.987236 0.0935 0.457826
0 0.986715 0.151675 9.29681
0 0.987258 0.0934826 0.302025
0 0.987307 0.0933878 0.236142
0 0.986737 0.151185 9.56614
0 0.986726 0.151925 9.49887
0 0.986683 0.143421 6.83974
VECTORS fa_u float
0.00876099 0.00355974 0
0.00815072 0.00473331 0
0.00893294 0.00227335 0
0.00991671 0.00131438 0
0.00051132 0.000128485 0
0.00725071 0.00566782 0
0.0071132 0.00710616 0
0.000456417 0.000218707 0
0.000413063 0.000331612 0
0.00566844 0.00719435 0
0.00466998 0.00806982 0
0.00885432 9.67291e-07 0
0.00988963 -0.00130081 0
0.000742117 1.96341e-05 0
0.000755928 0.00012694 0
0.000556453 0.000127796 0
0.000468113 0.000181027 0
0.000451166 0.000559891 0
0.000567906 0.000466994 0
0.000431884 0.00025788 0
0.000420625 0.000369776 0
0.00346352 0.00858809 0
0.0026267 0.0098718 0
0.000336966 0.00042345 0
0.000209469 0.000491829 0
0.000760439 -0.000129668 0
0.00879741 -0.00222705 0
0.0007401 -2.17524e-05 0
0.00860558 -0.00350557 0
0.000605068 7.43539e-05 0
0.000631031 1.09105e-06 0
0.000415934 9.41435e-05 0
0.00131211 0.00904571 0
0.000368534 0.000137267 0
0.00038427 0.00017948 0
0.000410481 0.00042024 0
0.000375028 0.00042944 0
0.000334801 0.000219682 0
0.00033114 0.00029918 0
0.000118837 0.000715335 0
0.000274686 0.000723213 0
0.000252484 0.000450665 0
0.000190856 0.0005343 0
5.6981e-05 0.00928524 0
0.000604624 -8.35811e-05 0
0.000503466 -0.000124004 0
0.000564949 -0.000121563 0
0.00802036 -0.00468492 0
0.000420946 -0.000221368 0
0.00718386 -0.00560253 0
0.000392572 2.66787e-05 0
0.000436481 -3.42253e-05 0
0.000263718 4.84667e-05 0
8.6518e-05 0.000548328 0
-2.46569e-05 0.000509429 0
0.000259029 0.0001148 0
0.000261757 0.000315639 0
0.000236577 0.000365356 0
0.000210006 0.000185582 0
0.000165716 0.000585008 0
0.000126843 0.000585645 0
0.000179011 0.00037498 0
0.000154328 0.000438483 0
-0.001211 0.00915372 0
0.000387518 -9.06834e-05 0
0.000460225 -0.000199175 0
0.000406034 -0.000154431 0
0.00037795 -0.000323739 0
0.000407904 -0.000271994 0
0.00726185 -0.00712309 0
0.000458305 -0.000512356 0
0.00414568 -0.00523287 0
0.00023304 6.31798e-05 0
0.000266139 -3.18468e-05 0
0.000244665 5.34985e-06 0
-5.94201e-06 0.00052353 0
-8.08031e-05 0.000473388 0
-6.77969e-05 0.000500322 0
0.000202303 0.00012765 0
0.000198316 8.68326e-05 0
0.000154171 0.000242606 0
0.000160015 0.000186321 0
9.24571e-05 0.000407594 0
2.83429e-05 0.000437289 0
0.000103825 0.000278731 0
-0.00241954 0.00897114 0
0.000265173 -0.000107429 0
0.000355776 -0.000195762 0
0.000408301 -0.000388834 0
0.000355811 -0.000271804 0
0.000491764 -0.000210028 0
0.000390136 -0.000367432 0
0.00471508 -0.00821076 0
9.16655e-05 -0.00031449 0
0.000199094 3.30216e-05 0
0.000243669 -6.44503e-05 0
0.000220025 -2.39308e-05 0
0.000222083 -0.00012325 0
0.00355352 -0.00866781 0
-0.000138811 0.000444509 0
-3.02019e-05 0.000420128 0
-0.00011919 0.000461255 0
-8.68189e-05 0.000438636 0
0.000128746 5.96418e-05 0
0.000150056 0.000134851 0
0.000114966 0.000228482 0
0.000124829 0.000189904 0
3.60839e-05 0.000302045 0
6.87602e-05 0.000244835 0
-0.00355874 0.00853684 0
0.000239742 -0.000183368 0
0.000313306 -0.000312484 0
0.000310598 -0.000387849 0
0.000301404 -0.0003721 0
0.000171882 -0.000436542 0
0.000201743 -0.000412516 0
0.00015691 -0.00043003 0
0.000107285 2.37276e-05 0
8.54103e-05 7.06482e-05 0
0.000138299 -1.09411e-05 0
0.000194454 -7.39771e-05 0
0.000183101 -0.000179607 0
0.000182906 -0.000134058 0
8.96585e-05 -2.21954e-05 0
0.00241332 -0.00897824 0
-0.000205214 0.000411007 0
-0.000171677 0.000427799 0
-3.86103e-05 0.000327382 0
-0.00013035 0.000413146 0
8.2044e-05 0.000123126 0
7.17892e-05 0.000201404 0
8.87137e-06 0.000252627 0
3.02103e-05 0.000210634 0
-0.0002581 0.000376741 0
-0.00465971 0.0080255 0
0.000197988 -0.000252262 0
0.000240776 -0.000379232 0
0.00019417 -0.000457369 0
0.000209298 -0.000416249 0
0.000101182 -0.000442723 0
0.000148581 -0.000466724 0
0.000135777 -0.000216819 0
3.7374e-05 9.39063e-05 0
5.05548e-05 3.30106e-05 0
0.00011485 -7.70812e-05 0
0.000132867 -0.000158601 0
9.19581e-05 -0.00020462 0
6.09703e-05 -6.43658e-05 0
2.33178e-05 -1.64105e-05 0
3.20749e-05 -0.000463348 0
0.00124732 -0.00925526 0
-5.46193e-05 0.000245898 0
-0.000246968 0.000398103 0
-0.000195896 0.000404653 0
-0.000107928 0.00031483 0
-0.000305506 0.000377347 0
2.18328e-05 0.000150423 0
-2.18786e-05 0.000198836 0
-6.7857e-06 0.000108867 0
-8.55528e-05 0.000229129 0
-0.000264035 0.000355396 0
-0.00565088 0.00741171 0
0.000142442 -0.000287014 0
0.000162724 -0.000411474 0
7.08531e-05 -0.000485246 0
0.000101463 -0.000444858 0
4.72927e-06 -0.000502863 0
7.25458e-05 -0.00024317 0
-1.13538e-05 4.25518e-05 0
5.85813e-05 -0.000122125 0
3.70632e-05 -0.000208429 0
1.30131e-05 -7.38924e-05 0
-3.27506e-05 -1.30502e-05 0
-4.27763e-05 -0.000484987 0
9.63465e-06 -0.00924849 0
-0.00014096 0.000225597 0
-0.000264055 0.000352447 0
-0.000198887 0.00029743 0
-0.000307636 0.000319651 0
-0.000315696 0.000318841 0
-3.70878e-05 0.000133611 0
-7.4883e-05 0.000158293 0
-5.88957e-05 8.85178e-05 0
-0.000135118 0.000175225 0
-0.000197445 0.00021005 0
-0.000336964 0.000261302 0
-0.000105112 0.000258144 0
-0.00656685 0.00673903 0
5.58541e-05 -0.00030092 0
3.23301e-05 -0.000423939 0
-7.50649e-05 -0.000510289 0
-2.45068e-05 -0.000445269 0
6.15152e-06 -0.000256892 0
-2.38881e-05 -0.000230091 0
-7.71683e-05 4.61196e-05 0
-1.15823e-05 -0.000138292 0
-3.64544e-05 -8.19701e-05 0
-0.000105683 -8.01925e-07 0
-8.39999e-05 -5.49852e-05 0
-0.000182444 -0.00054058 0
-0.000150533 -0.000505705 0
-0.00125547 -0.00914402 0
-0.000246631 0.000236887 0
-0.000349812 0.000279501 0
-0.000392843 0.000272405 0
-0.00023737 0.000183486 0
-0.000110116 9.36879e-05 0
-0.00018416 0.000133375 0
-0.000395022 0.000196322 0
-0.000275024 2.80759e-05 0
-0.00536315 0.00414525 0
-2.37036e-05 -0.000293108 0
-7.00188e-05 -0.000406693 0
-0.000154875 -0.000439428 0
-5.68656e-05 -0.000245755 0
-7.33694e-05 -0.000202007 0
-0.000146346 5.28277e-05 0
-0.000180316 2.09898e-06 0
-8.78719e-05 -0.000118331 0
-0.000150458 -5.98014e-05 0
-0.000230545 -0.000536721 0
-0.000332399 -0.000616776 0
-0.00243447 -0.00864383 0
-0.000295272 0.000203403 0
-0.000386236 0.000227464 0
-0.000240075 0.00012328 0
-0.000188659 7.45537e-05 0
-0.000419564 0.000183921 0
-0.000458339 0.000223309 0
-0.00042885 0.000168189 0
-0.00832418 0.0046925 0
-8.70472e-05 -0.000263955 0
-0.000191624 -0.000376544 0
-0.000113492 -0.000219907 0
-0.000132851 -0.000187127 0
-0.000213113 3.15356e-05 0
-0.00022295 -2.44726e-05 0
-0.000172482 -0.000132408 0
-0.000220656 -8.25928e-05 0
-0.00028763 -0.000359055 0
-0.000261173 -0.000494979 0
-0.000200285 -0.000647994 0
-0.00376761 -0.00906868 0
-0.000287738 0.000121222 0
-0.000234665 6.28583e-05 0
-0.000414247 9.6156e-05 0
-0.000481829 0.00015758 0
-0.000435769 0.000168686 0
-0.00869362 0.00354791 0
-0.000186003 -0.000233457 0
-0.000185287 -0.000183431 0
-0.000240395 -1.82307e-06 0
-0.000249185 -6.8041e-05 0
-0.00023193 -0.000131342 0
-0.000334675 -0.000302265 0
-0.000327051 -0.000379661 0
-0.00024391 -0.000430462 0
-0.0044285 -0.00785062 0
-0.00030555 3.01065e-05 0
-0.000450614 2.4034e-05 0
-0.00047586 7.64266e-05 0
-0.00043872 0.000110158 0
-0.00892662 0.00238927 0
-0.000287767 -0.000210675 0
-0.000322295 -6.76846e-05 0
-0.000329941 -0.000154609 0
-0.000393897 -0.000289207 0
-0.000310469 -0.000305309 0
-0.000260956 -0.000353015 0
-0.00558502 -0.00739681 0
-0.000442811 -5.37185e-05 0
-0.000484017 -2.63504e-05 0
-0.000442832 3.05831e-05 0
-0.00912663 0.00121371 0
-0.000472774 -0.0001211 0
-0.000417905 -0.000256016 0
-0.000449093 -0.000179676 0
-0.000449464 -0.00022931 0