# vtk DataFile Version 2.0
CellBP Time: 3.96
ASCII
DATASET UNSTRUCTURED_GRID
POINTS 296 double
-9.00433 -3.70084 0
-8.43678 -4.85032 0
-9.41568 -2.4868 0
-9.66555 -1.22811 0
-8.34038 -2.81261 0
-7.72556 -5.91697 0
-6.8802 -6.88059 0
-7.90096 -3.86666 0
-7.3276 -4.85772 0
-5.91638 -7.72588 0
-4.85028 -8.4377 0
-9.76365 0.0498586 0
-9.66607 1.32794 0
-8.6401 -1.68013 0
-8.77 -0.527642 0
-7.57267 -1.99912 0
-7.20941 -2.89968 0
-6.62419 -5.76721 0
-5.8106 -6.58365 0
-6.77504 -3.87985 0
-6.20667 -4.66514 0
-3.70035 -9.00425 0
-2.48651 -9.41644 0
-4.89646 -7.2942 0
-3.90487 -7.87038 0
-8.77653 0.641332 0
-9.41678 2.58693 0
-8.60614 1.77033 0
-9.00636 3.80152 0
-7.72715 -0.926837 0
-7.77781 0.0803153 0
-6.93754 -1.31293 0
-1.22924 -9.66683 0
-6.4278 -2.14821 0
-6.30527 -3.0492 0
-5.52419 -5.46213 0
-4.78509 -6.10168 0
-5.64684 -3.74862 0
-5.25743 -4.55105 0
-2.85994 -8.34687 0
-1.77456 -8.62216 0
-3.91936 -6.70839 0
-3.04942 -7.13657 0
0.049911 -9.75157 0
-7.68855 1.14096 0
-8.32198 2.90965 0
-7.53475 2.10733 0
-8.43878 4.95114 0
-7.86451 3.97053 0
-7.72928 6.0194 0
-6.76429 -0.396153 0
-6.94128 0.551661 0
-5.76148 -1.00161 0
-0.589375 -8.79153 0
0.564817 -8.75311 0
-5.29378 -2.47591 0
-4.48204 -5.08447 0
-3.89361 -5.7622 0
-4.43082 -3.7979 0
-2.05741 -7.54504 0
-1.13278 -7.76841 0
-2.98757 -6.08854 0
-2.30341 -6.60471 0
1.32918 -9.66812 0
-6.67537 1.41934 0
-7.15606 3.11105 0
-6.64458 2.36771 0
-7.28083 4.97952 0
-6.70323 3.99451 0
-6.88087 6.98105 0
-6.56032 5.88292 0
-5.917 7.8266 0
-4.44509 -1.17868 0
-5.80457 0.512893 0
-4.64783 -0.0100168 0
0.00832997 -7.83053 0
1.73572 -8.62676 0
0.946937 -7.74608 0
-4.03132 -2.40192 0
-3.47858 -1.38812 0
-3.2882 -4.79672 0
-3.25977 -3.26156 0
-1.37539 -6.66125 0
-0.50772 -7.0098 0
-1.97158 -5.52705 0
2.58661 -9.41754 0
-5.49796 2.0335 0
-6.08178 3.06554 0
-6.0916 4.85901 0
-5.74884 3.98284 0
-5.75035 6.70435 0
-5.44007 5.60717 0
-4.851 8.53906 0
-4.82917 7.3906 0
-3.49455 -0.422994 0
-4.44112 1.2471 0
-3.70406 0.591454 0
-4.05484 2.31596 0
-3.70071 9.10547 0
2.85754 -8.31674 0
0.418905 -6.7806 0
2.01784 -7.50981 0
1.30309 -6.89028 0
-2.4396 -0.871645 0
-2.83271 -2.12658 0
-2.28995 -4.08982 0
-2.32081 -2.9674 0
-0.441086 -5.85048 0
-1.22021 -4.4909 0
3.80106 -9.00671 0
-4.78158 3.38608 0
-5.07691 4.58443 0
-4.63687 6.26778 0
-4.52855 5.34773 0
-3.83634 7.97829 0
-3.81814 6.83104 0
-2.77785 8.40703 0
-1.6446 -0.137046 0
-1.44655 -0.888045 0
-2.48389 0.506928 0
-3.24697 1.44181 0
-3.23304 3.31096 0
-2.90479 2.36744 0
-1.35141 0.626175 0
-2.48651 9.51749 0
3.9256 -7.87189 0
2.95882 -7.14286 0
0.952607 -5.8107 0
2.06974 -6.40129 0
-1.67945 -1.98776 0
-1.43154 -3.27106 0
0.0904692 -4.73841 0
-0.564957 -3.68731 0
4.92313 -7.3047 0
4.95028 -8.43852 0
-3.7705 4.54397 0
-3.72662 5.73988 0
-2.88156 7.27423 0
-3.00289 6.33988 0
-1.65917 8.71784 0
-1.9357 7.60329 0
-2.3341 4.04474 0
-0.728855 -1.32384 0
-0.834547 -0.25653 0
-1.93192 1.67801 0
-2.1212 2.8705 0
-1.3035 3.53776 0
-0.867056 1.34822 0
-0.281329 0.455102 0
-0.532822 8.8556 0
-1.22973 9.77212 0
1.11085 -4.56611 0
3.90255 -6.70322 0
2.98177 -6.08074 0
2.11424 -5.41413 0
4.77488 -6.19191 0
-0.557692 -2.47147 0
0.494467 -3.45687 0
0.0536405 -1.60655 0
1.47908 -3.67406 0
5.85669 -6.6021 0
6.01647 -7.72619 0
-2.4716 5.33951 0
-2.12588 6.52089 0
-0.902047 7.7868 0
-1.26941 6.91716 0
0.0861465 7.86357 0
-1.14222 4.48679 0
0.150093 -0.616295 0
-0.795341 2.48399 0
-0.330387 3.5936 0
0.0635284 1.50961 0
0.740171 0.47244 0
0.645538 8.85799 0
0.050005 9.85237 0
2.37663 -4.27736 0
3.85178 -5.62815 0
2.99548 -5.20254 0
5.56236 -5.48023 0
4.68196 -5.27211 0
0.628594 -2.28852 0
1.25373 -2.94553 0
0.755539 -1.38832 0
2.15997 -3.12959 0
2.98771 -3.46938 0
6.14303 -4.78162 0
6.64515 -5.75859 0
6.98188 -6.88064 0
-1.01798 5.81073 0
-0.371603 6.86959 0
1.12019 7.7531 0
0.55686 7.06487 0
-0.000516337 4.71681 0
0.60618 3.82011 0
1.33618 -0.640578 0
0.538567 2.64596 0
0.964623 1.57148 0
1.9064 0.213252 0
1.61164 1.06247 0
2.12486 7.56768 0
1.79595 8.69679 0
1.32948 9.76776 0
3.81602 -4.34378 0
5.10653 -4.43993 0
5.83389 -3.92652 0
3.77693 -3.19506 0
1.80856 -1.87939 0
3.01323 -2.56936 0
6.77016 -3.93993 0
7.36952 -4.88875 0
7.83607 -5.92409 0
0.48252 5.87205 0
1.42539 6.72831 0
2.36911 6.65454 0
1.208 4.54819 0
1.48557 3.39084 0
2.43078 -0.690558 0
2.82185 0.142056 0
1.78569 2.15837 0
2.60666 1.14742 0
3.06552 7.15497 0
2.89905 8.36246 0
2.58761 9.51953 0
4.90304 -3.32201 0
6.10907 -3.10254 0
4.16546 -2.27157 0
3.23825 -1.50064 0
6.71813 -2.30857 0
7.21754 -3.03622 0
7.95143 -3.90554 0
8.54216 -4.85369 0
2.02044 5.591 0
3.08041 6.14094 0
2.36016 4.11989 0
2.41559 3.05462 0
3.51863 -0.460296 0
3.60841 0.611835 0
2.95612 2.28336 0
3.53847 1.52202 0
4.00398 5.88607 0
3.97685 6.77916 0
3.96688 7.9255 0
3.80193 9.10831 0
5.5602 -1.91304 0
4.50187 -1.12797 0
6.70106 -1.33388 0
7.57726 -2.03275 0
8.38302 -2.85679 0
9.11064 -3.70344 0
3.41382 4.86961 0
3.33353 3.37964 0
4.68396 0.129666 0
4.51195 1.30763 0
4.05877 2.43966 0
4.56184 5.14279 0
4.83428 6.17877 0
4.97236 7.36834 0
4.9509 8.53914 0
5.87441 -0.434127 0
6.9972 -0.487358 0
7.74484 -1.08327 0
8.67057 -1.74297 0
9.51665 -2.48686 0
4.54561 3.82185 0
5.80917 1.097 0
5.36342 2.53119 0
5.36988 4.6118 0
5.60186 5.51319 0
5.88783 6.66133 0
6.01688 7.82637 0
6.83356 0.462832 0
7.83907 -0.0257141 0
8.84685 -0.582935 0
9.76931 -1.22924 0
6.94742 1.34699 0
5.71079 3.77153 0
6.52978 2.19349 0
6.36843 3.08208 0
6.28082 4.67833 0
6.68276 5.82914 0
6.98119 6.98103 0
7.77018 0.965883 0
8.84624 0.571701 0
9.85682 0.0499376 0
7.60248 2.00053 0
6.81701 3.89694 0
7.25646 2.94145 0
7.36728 4.8784 0
7.82877 6.01895 0
8.70961 1.72443 0
9.76744 1.3293 0
8.40841 2.83376 0
7.96998 3.91027 0
8.53986 4.95123 0
9.51874 2.58794 0
9.11329 3.80429 0
CELLS 542 2168
3 2 0 4
3 0 1 7
3 4 0 7
3 1 5 8
3 7 1 8
3 3 2 13
3 13 2 4
3 11 3 14
3 14 3 13
3 13 4 15
3 4 7 16
3 15 4 16
3 5 6 17
3 8 5 17
3 6 9 18
3 17 6 18
3 7 8 19
3 16 7 19
3 8 17 20
3 19 8 20
3 9 10 23
3 18 9 23
3 10 21 24
3 23 10 24
3 12 11 25
3 25 11 14
3 26 12 27
3 27 12 25
3 14 13 29
3 29 13 15
3 25 14 30
3 30 14 29
3 29 15 31
3 15 16 33
3 31 15 33
3 16 19 34
3 33 16 34
3 17 18 35
3 20 17 35
3 18 23 36
3 35 18 36
3 19 20 37
3 34 19 37
3 20 35 38
3 37 20 38
3 21 22 39
3 24 21 39
3 22 32 40
3 39 22 40
3 23 24 41
3 36 23 41
3 24 39 42
3 41 24 42
3 27 25 44
3 44 25 30
3 28 26 45
3 45 26 27
3 45 27 46
3 46 27 44
3 47 28 48
3 48 28 45
3 30 29 50
3 50 29 31
3 44 30 51
3 51 30 50
3 50 31 52
3 31 33 52
3 32 43 53
3 40 32 53
3 53 43 54
3 33 34 55
3 34 37 55
3 33 55 52
3 35 36 56
3 38 35 56
3 36 41 57
3 56 36 57
3 37 38 58
3 38 56 58
3 37 58 55
3 39 40 59
3 42 39 59
3 40 53 60
3 59 40 60
3 41 42 61
3 57 41 61
3 42 59 62
3 61 42 62
3 43 63 54
3 46 44 64
3 64 44 51
3 48 45 65
3 65 45 46
3 65 46 66
3 66 46 64
3 49 47 67
3 67 47 48
3 67 48 68
3 68 48 65
3 69 49 70
3 70 49 67
3 52 55 72
3 64 51 73
3 51 50 73
3 50 52 73
3 73 52 74
3 74 52 72
3 53 54 75
3 60 53 75
3 54 63 76
3 54 76 77
3 75 54 77
3 55 58 78
3 72 55 78
3 72 78 79
3 56 57 80
3 57 61 80
3 56 80 58
3 58 80 81
3 78 58 81
3 59 60 82
3 62 59 82
3 60 75 83
3 82 60 83
3 61 62 84
3 62 82 84
3 61 84 80
3 63 85 76
3 66 64 86
3 64 73 86
3 68 65 87
3 87 65 66
3 87 66 86
3 70 67 88
3 88 67 68
3 88 68 89
3 89 68 87
3 71 69 90
3 90 69 70
3 90 70 91
3 91 70 88
3 92 71 93
3 93 71 90
3 74 72 94
3 94 72 79
3 86 73 95
3 95 73 74
3 95 74 96
3 96 74 94
3 97 86 95
3 76 85 99
3 75 77 100
3 83 75 100
3 76 99 101
3 77 76 101
3 77 101 102
3 100 77 102
3 94 79 103
3 78 81 104
3 79 78 104
3 79 104 103
3 80 84 105
3 81 80 105
3 81 105 106
3 104 81 106
3 82 83 107
3 83 100 107
3 82 107 84
3 84 107 108
3 105 84 108
3 85 109 99
3 89 87 110
3 87 86 110
3 110 86 97
3 91 88 111
3 111 88 89
3 111 89 110
3 93 90 112
3 112 90 91
3 112 91 113
3 113 91 111
3 98 92 114
3 114 92 93
3 114 93 115
3 115 93 112
3 116 98 114
3 117 103 118
3 96 94 119
3 94 103 119
3 119 103 117
3 97 95 120
3 120 95 96
3 120 96 119
3 121 110 97
3 121 97 122
3 122 97 120
3 123 119 117
3 124 98 116
3 99 109 125
3 99 125 126
3 101 99 126
3 100 102 127
3 100 127 107
3 101 126 128
3 102 101 128
3 102 128 127
3 104 106 129
3 104 129 103
3 103 129 118
3 105 108 130
3 106 105 130
3 106 130 129
3 107 127 131
3 108 107 131
3 108 131 132
3 108 132 130
3 109 134 125
3 125 134 133
3 113 111 135
3 111 110 135
3 135 110 121
3 115 112 136
3 136 112 113
3 136 113 135
3 116 114 137
3 137 114 115
3 137 115 138
3 138 115 136
3 139 124 116
3 139 116 140
3 140 116 137
3 141 135 121
3 118 129 142
3 118 142 143
3 117 118 143
3 123 117 143
3 122 120 144
3 120 119 144
3 144 119 123
3 141 121 145
3 145 121 122
3 145 122 144
3 146 141 145
3 147 144 123
3 147 123 148
3 143 148 123
3 150 124 139
3 149 150 139
3 131 127 151
3 125 133 152
3 126 125 152
3 126 152 153
3 128 126 153
3 128 153 154
3 128 154 127
3 127 154 151
3 152 133 155
3 130 132 156
3 130 156 129
3 129 156 142
3 131 151 157
3 132 131 157
3 132 157 156
3 156 158 142
3 157 151 159
3 133 160 155
3 134 161 133
3 133 161 160
3 138 136 162
3 136 135 162
3 162 135 141
3 140 137 163
3 163 137 138
3 163 138 162
3 149 139 164
3 164 139 140
3 164 140 165
3 165 140 163
3 166 149 164
3 167 162 141
3 167 141 146
3 142 158 168
3 143 142 168
3 143 168 148
3 146 145 169
3 145 144 169
3 169 144 147
3 170 167 146
3 170 146 169
3 171 169 147
3 171 147 148
3 171 148 172
3 168 172 148
3 173 149 166
3 174 150 149
3 173 174 149
3 154 175 151
3 151 175 159
3 152 155 176
3 153 152 176
3 153 176 177
3 153 177 154
3 154 177 175
3 155 160 178
3 155 178 179
3 176 155 179
3 156 157 180
3 156 180 158
3 157 159 181
3 157 181 180
3 158 180 182
3 158 182 168
3 159 175 183
3 159 183 181
3 175 184 183
3 160 186 178
3 178 186 185
3 161 187 160
3 160 187 186
3 165 163 188
3 163 162 188
3 188 162 167
3 166 164 189
3 189 164 165
3 189 165 188
3 190 173 166
3 190 166 191
3 191 166 189
3 192 188 167
3 192 167 170
3 193 192 170
3 182 194 168
3 194 172 168
3 193 170 195
3 170 169 195
3 195 169 171
3 196 195 171
3 196 171 172
3 194 197 172
3 197 198 172
3 198 196 172
3 200 173 190
3 199 200 190
3 201 174 173
3 200 201 173
3 176 179 202
3 177 176 202
3 177 202 175
3 175 202 184
3 178 185 203
3 178 203 179
3 179 203 202
3 203 185 204
3 202 205 184
3 183 206 181
3 180 181 206
3 180 206 182
3 182 206 194
3 183 184 207
3 205 207 184
3 183 207 206
3 185 208 204
3 186 209 185
3 185 209 208
3 187 210 186
3 186 210 209
3 191 189 211
3 189 188 211
3 211 188 192
3 199 190 212
3 212 190 191
3 212 191 211
3 213 199 212
3 214 211 192
3 214 192 193
3 215 214 193
3 215 193 195
3 206 216 194
3 216 197 194
3 216 217 197
3 215 195 218
3 218 195 196
3 198 218 196
3 217 219 197
3 219 218 198
3 197 219 198
3 220 199 213
3 221 200 199
3 220 221 199
3 222 201 200
3 221 222 200
3 203 204 223
3 203 223 202
3 202 223 205
3 204 208 224
3 204 224 223
3 205 223 225
3 205 225 207
3 207 225 226
3 207 226 206
3 226 216 206
3 208 228 224
3 224 228 227
3 209 229 208
3 229 228 208
3 210 230 209
3 209 230 229
3 213 212 231
3 212 211 231
3 231 211 214
3 232 220 213
3 232 213 231
3 233 231 214
3 233 214 215
3 234 233 215
3 234 215 218
3 226 235 216
3 235 217 216
3 235 236 217
3 217 236 219
3 237 234 218
3 237 218 219
3 236 238 219
3 238 237 219
3 240 220 232
3 239 240 232
3 241 221 220
3 240 241 220
3 242 222 221
3 241 242 221
3 224 227 243
3 224 243 223
3 223 243 225
3 225 243 244
3 225 244 226
3 226 244 235
3 227 245 243
3 228 246 227
3 227 246 245
3 229 247 228
3 228 247 246
3 230 248 229
3 229 248 247
3 239 232 249
3 232 231 249
3 249 231 233
3 250 249 233
3 250 233 234
3 237 250 234
3 244 251 235
3 235 251 236
3 251 252 236
3 236 252 238
3 252 253 238
3 253 250 237
3 253 237 238
3 254 239 249
3 255 240 239
3 254 255 239
3 256 241 240
3 255 256 240
3 257 242 241
3 256 257 241
3 245 258 243
3 243 258 244
3 244 258 251
3 245 259 258
3 246 260 245
3 245 260 259
3 247 261 246
3 246 261 260
3 248 262 247
3 247 262 261
3 254 249 263
3 263 249 250
3 253 263 250
3 258 264 251
3 251 264 252
3 264 265 252
3 265 263 253
3 252 265 253
3 266 254 263
3 267 255 254
3 266 267 254
3 268 256 255
3 267 268 255
3 269 257 256
3 268 269 256
3 259 270 258
3 270 264 258
3 260 271 259
3 259 271 270
3 261 272 260
3 260 272 271
3 262 273 261
3 273 272 261
3 270 274 264
3 275 266 263
3 275 263 265
3 274 276 264
3 276 265 264
3 276 277 265
3 277 275 265
3 278 267 266
3 275 278 266
3 279 268 267
3 278 279 267
3 280 269 268
3 279 280 268
3 271 281 270
3 270 281 274
3 272 282 271
3 271 282 281
3 273 283 272
3 272 283 282
3 281 284 274
3 274 284 276
3 285 278 275
3 277 285 275
3 284 286 276
3 286 285 277
3 276 286 277
3 287 279 278
3 285 287 278
3 288 280 279
3 287 288 279
3 282 289 281
3 281 289 284
3 283 290 282
3 282 290 289
3 289 291 284
3 284 291 286
3 291 292 286
3 292 287 285
3 286 292 285
3 293 288 287
3 292 293 287
3 290 294 289
3 289 294 291
3 294 295 291
3 295 293 292
3 291 295 292
CELL_TYPES 542
5
5
5
5
5
5
5
5
5
5
5
5
5
5
5
5
5
5
5
5
5
5
5
5
5
5
5
5
5
5
5
5
5
5
5
5
5
5
5
5
5
5
5
5
5
5
5
5
5
5
5
5
5
5
5
5
5
5
5
5
5
5
5
5
5
5
5
5
5
5
5
5
5
5
5
5
5
5
5
5
5
5
5
5
5
5
5
5
5
5
5
5
5
5
5
5
5
5
5
5
5
5
5
5
5
5
5
5
5
5
5
5
5
5
5
5
5
5
5
5
5
5
5
5
5
5
5
5
5
5
5
5
5
5
5
5
5
5
5
5
5
5
5
5
5
5
5
5
5
5
5
5
5
5
5
5
5
5
5
5
5
5
5
5
5
5
5
5
5
5
5
5
5
5
5
5
5
5
5
5
5
5
5
5
5
5
5
5
5
5
5
5
5
5
5
5
5
5
5
5
5
5
5
5
5
5
5
5
5
5
5
5
5
5
5
5
5
5
5
5
5
5
5
5
5
5
5
5
5
5
5
5
5
5
5
5
5
5
5
5
5
5
5
5
5
5
5
5
5
5
5
5
5
5
5
5
5
5
5
5
5
5
5
5
5
5
5
5
5
5
5
5
5
5
5
5
5
5
5
5
5
5
5
5
5
5
5
5
5
5
5
5
5
5
5
5
5
5
5
5
5
5
5
5
5
5
5
5
5
5
5
5
5
5
5
5
5
5
5
5
5
5
5
5
5
5
5
5
5
5
5
5
5
5
5
5
5
5
5
5
5
5
5
5
5
5
5
5
5
5
5
5
5
5
5
5
5
5
5
5
5
5
5
5
5
5
5
5
5
5
5
5
5
5
5
5
5
5
5
5
5
5
5
5
5
5
5
5
5
5
5
5
5
5
5
5
5
5
5
5
5
5
5
5
5
5
5
5
5
5
5
5
5
5
5
5
5
5
5
5
5
5
5
5
5
5
5
5
5
5
5
5
5
5
5
5
5
5
5
5
5
5
5
5
5
5
5
5
5
5
5
5
5
5
5
5
5
5
5
5
5
5
5
5
5
5
5
5
5
5
5
5
5
5
5
5
5
5
5
5
5
5
5
5
5
5
5
5
5
5
5
5
5
5
5
5
5
5
5
5
5
5
5
5
5
5
5
5
5
5
5
5
5
5
5
5
5
5
5
5
5
5
5
5
5
5
5
5
5
5
5
5
5
5
5
5
5
5
5
5
5
5
POINT_DATA 296
SCALARS concentrations float 4
LOOKUP_TABLE default
0 0.958989 0.152071 8.14931
0 0.958986 0.151868 8.12659
0 0.958997 0.151666 8.10577
0 0.959011 0.151095 8.04441
0 0.95939 0.093481 0.441276
0 0.958984 0.151451 8.08023
0 0.958984 0.151116 8.04422
0 0.959396 0.0934652 0.44098
0 0.959382 0.0934674 0.43837
0 0.958985 0.15073 8.05348
0 0.958983 0.151216 8.05564
0 0.959025 0.149985 7.97272
0 0.959031 0.150701 8.00029
0 0.959406 0.0934527 0.4325
0 0.959411 0.0933914 0.419504
0 0.960132 0.0933119 0.408767
0 0.960116 0.0932919 0.408974
0 0.959388 0.0934187 0.425524
0 0.959382 0.0934194 0.422731
0 0.960122 0.093293 0.409205
0 0.960107 0.093276 0.402096
0 0.958979 0.152088 8.15175
0 0.958981 0.152696 8.22054
0 0.95939 0.0934137 0.421567
0 0.959382 0.0934256 0.426423
0 0.959425 0.0933778 0.416264
0 0.959061 0.150357 7.963
0 0.959426 0.0933911 0.41935
0 0.959166 0.150757 8.03323
0 0.960125 0.0933053 0.403797
0 0.96014 0.0932348 0.390948
0 0.960802 0.0930215 0.357951
0 0.959 0.151085 8.04635
0 0.960903 0.0928944 0.339467
0 0.960783 0.0930473 0.367117
0 0.960107 0.0932672 0.396479
0 0.9601 0.0932674 0.3955
0 0.960896 0.0929207 0.343621
0 0.960766 0.0930782 0.366945
0 0.959395 0.0934786 0.440929
0 0.959382 0.093532 0.456395
0 0.960108 0.0932682 0.397159
0 0.960094 0.093276 0.402935
0 0.959021 0.150563 7.98463
0 0.960141 0.0932883 0.400262
0 0.959502 0.0933931 0.419355
0 0.960168 0.0933278 0.40871
0 0.959355 0.150375 8.26851
0 0.959673 0.0933542 0.392897
0 0.959444 0.145403 4.26687
0 0.960906 0.0929165 0.338508
0 0.960799 0.0930416 0.359133
0 0.961401 0.0922963 0.236261
0 0.959411 0.0934844 0.449467
0 0.959404 0.0934228 0.432379
0 0.9614 0.0923141 0.241646
0 0.960888 0.092954 0.344565
0 0.960771 0.0930671 0.363535
0 0.961392 0.0923519 0.245903
0 0.960124 0.093286 0.410375
0 0.960137 0.093286 0.413236
0 0.960889 0.0929837 0.352894
0 0.960766 0.0931023 0.376351
0 0.959042 0.149743 7.88761
0 0.960935 0.0928989 0.337072
0 0.96026 0.0932943 0.395644
0 0.960842 0.0930536 0.364084
0 0.95986 0.0931667 0.275997
0 0.960461 0.0931914 0.296319
0 0.959375 0.150088 8.21692
0 0.959856 0.0931595 0.276858
0 0.959201 0.149974 7.94584
0 0.961798 0.092051 0.196429
0 0.961414 0.0923017 0.236466
0 0.961815 0.0920519 0.196037
0 0.960148 0.0932821 0.410284
0 0.959444 0.0933526 0.411389
0 0.960142 0.093273 0.402598
0 0.961805 0.0920606 0.198388
0 0.962158 0.0919458 0.180495
0 0.961394 0.092364 0.24766
0 0.9618 0.0920929 0.203858
0 0.960898 0.0928956 0.343744
0 0.960782 0.0929791 0.358887
0 0.961402 0.0923733 0.252524
0 0.959062 0.150209 7.93822
0 0.961426 0.0922799 0.234879
0 0.961011 0.092907 0.331526
0 0.96054 0.0931914 0.263666
0 0.960975 0.0930324 0.336198
0 0.959692 0.0932957 0.385403
0 0.960456 0.0932083 0.305319
0 0.959134 0.149909 7.92195
0 0.95954 0.0933021 0.406413
0 0.962218 0.091872 0.16864
0 0.961812 0.0920615 0.198459
0 0.962179 0.0919246 0.177053
0 0.961831 0.0920411 0.19668
0 0.959212 0.15033 7.98799
0 0.959459 0.0933162 0.403853
0 0.960897 0.0929464 0.350504
0 0.960153 0.0931641 0.378209
0 0.960789 0.0930532 0.364206
0 0.962451 0.0916495 0.134713
0 0.962213 0.0918958 0.172947
0 0.961812 0.0921041 0.205915
0 0.962168 0.0919783 0.186336
0 0.961416 0.0923828 0.255495
0 0.961825 0.0920822 0.202846
0 0.959075 0.149868 7.90525
0 0.961461 0.0922847 0.23654
0 0.96107 0.0929306 0.327077
0 0.960274 0.0932446 0.389741
0 0.960918 0.0930891 0.359514
0 0.959553 0.0933168 0.409546
0 0.960221 0.0932354 0.397288
0 0.95971 0.0933019 0.385716
0 0.962646 0.0915079 0.115104
0 0.962652 0.0915041 0.113591
0 0.962464 0.0916131 0.129176
0 0.962236 0.0918708 0.169567
0 0.961832 0.0920294 0.19694
0 0.96219 0.0919384 0.182039
0 0.962688 0.091407 0.0977621
0 0.959387 0.150334 8.25139
0 0.959465 0.0933133 0.415197
0 0.960182 0.093099 0.369778
0 0.961424 0.0924858 0.270882
0 0.960887 0.0929822 0.349263
0 0.962469 0.0916557 0.135203
0 0.962229 0.0919028 0.173413
0 0.961872 0.0920867 0.204025
0 0.962201 0.0918912 0.171182
0 0.959436 0.0933731 0.431182
0 0.959072 0.149956 7.91999
0 0.961464 0.0922895 0.239821
0 0.960973 0.0929473 0.350083
0 0.960294 0.0932266 0.386861
0 0.960863 0.0930461 0.366749
0 0.959884 0.0931548 0.279846
0 0.960481 0.0931642 0.294441
0 0.961846 0.0920245 0.196834
0 0.962701 0.0914197 0.0976966
0 0.962783 0.0912362 0.0700355
0 0.962486 0.0915932 0.126103
0 0.962254 0.0918636 0.169939
0 0.962203 0.0919418 0.182398
0 0.962683 0.0913708 0.0879527
0 0.962801 0.0910704 0.0363928
0 0.959878 0.0931508 0.278524
0 0.95946 0.145867 4.31358
0 0.96187 0.092113 0.206701
0 0.960163 0.0931362 0.38574
0 0.960832 0.0930492 0.361888
0 0.961479 0.092501 0.267454
0 0.960116 0.0932405 0.403819
0 0.962493 0.0916435 0.131901
0 0.962282 0.091865 0.167601
0 0.962708 0.0914301 0.097919
0 0.962157 0.0920984 0.201269
0 0.959403 0.093395 0.408106
0 0.959038 0.148987 7.95714
0 0.96146 0.0922763 0.238614
0 0.961032 0.0928991 0.332609
0 0.96056 0.0931598 0.260503
0 0.960989 0.0930189 0.335298
0 0.960476 0.0932057 0.305158
0 0.961834 0.0920388 0.198253
0 0.962807 0.0910748 0.0365729
0 0.962498 0.0915728 0.120137
0 0.962251 0.0918948 0.173653
0 0.962704 0.0913132 0.0749035
0 0.962787 0.0911006 0.0383655
0 0.95972 0.0932789 0.383446
0 0.959398 0.149954 8.20429
0 0.961802 0.0921771 0.205756
0 0.960839 0.092943 0.346117
0 0.96136 0.0925807 0.276051
0 0.960116 0.0933063 0.432239
0 0.960773 0.0929609 0.362174
0 0.962569 0.0915809 0.122274
0 0.962441 0.0917662 0.14851
0 0.962717 0.0914033 0.0923552
0 0.962254 0.0919776 0.174699
0 0.9619 0.0922436 0.209058
0 0.960102 0.0932764 0.418777
0 0.959376 0.0934133 0.455275
0 0.958993 0.148865 7.84392
0 0.961467 0.0922746 0.235974
0 0.961081 0.0928775 0.318598
0 0.96029 0.0932344 0.387128
0 0.960948 0.0930156 0.34679
0 0.96184 0.0920675 0.202283
0 0.962205 0.0919752 0.188572
0 0.962734 0.0913133 0.07914
0 0.962498 0.0915964 0.125095
0 0.962681 0.0914019 0.0930079
0 0.96269 0.0914267 0.103181
0 0.962677 0.0914476 0.104157
0 0.960217 0.0932363 0.393809
0 0.959561 0.0932723 0.399046
0 0.959229 0.149975 7.9449
0 0.961381 0.0923974 0.237397
0 0.960874 0.092906 0.343829
0 0.960756 0.0930954 0.3831
0 0.961749 0.0922372 0.203593
0 0.96252 0.0915933 0.122131
0 0.962204 0.0919724 0.168421
0 0.960122 0.0932651 0.422793
0 0.959401 0.0934374 0.459738
0 0.959008 0.145958 8.02684
0 0.96146 0.0922603 0.233838
0 0.960992 0.0928888 0.337939
0 0.960862 0.0931175 0.375352
0 0.961839 0.0920613 0.202504
0 0.962253 0.0919183 0.180534
0 0.962556 0.0916374 0.136433
0 0.962508 0.091779 0.16296
0 0.962485 0.0916635 0.139566
0 0.96249 0.0917285 0.151773
0 0.96017 0.0932554 0.398288
0 0.959501 0.0932073 0.389778
0 0.959142 0.149071 7.82041
0 0.961361 0.0924004 0.239406
0 0.960908 0.0928817 0.342244
0 0.961846 0.092113 0.190558
0 0.962286 0.0918511 0.162199
0 0.960863 0.0929942 0.358602
0 0.960168 0.0932944 0.404927
0 0.959427 0.093366 0.392415
0 0.958999 0.150198 7.9533
0 0.961463 0.0922635 0.233785
0 0.960971 0.0929487 0.345881
0 0.961841 0.0920438 0.1966
0 0.962196 0.0919951 0.188798
0 0.962258 0.0919183 0.182187
0 0.962235 0.0919697 0.188816
0 0.962236 0.0919585 0.180466
0 0.962179 0.0920256 0.190191
0 0.960843 0.0930595 0.367311
0 0.960172 0.093256 0.403621
0 0.959486 0.0932038 0.395397
0 0.959122 0.148428 7.75201
0 0.961434 0.0922937 0.230034
0 0.961899 0.0920184 0.18888
0 0.961037 0.0928829 0.326569
0 0.960283 0.0932819 0.401955
0 0.959527 0.0933373 0.416184
0 0.959076 0.15046 7.94846
0 0.961438 0.0922677 0.227589
0 0.961819 0.0920626 0.190039
0 0.961895 0.0919896 0.187929
0 0.961833 0.0920259 0.185515
0 0.961813 0.0920456 0.182871
0 0.960929 0.0929017 0.339352
0 0.960157 0.0932336 0.401538
0 0.959483 0.0932628 0.412381
0 0.959113 0.149346 7.85516
0 0.961509 0.0923105 0.236621
0 0.96101 0.0930145 0.331918
0 0.96048 0.0931597 0.30471
0 0.959707 0.0932816 0.395461
0 0.959218 0.149733 7.90825
0 0.961413 0.0922843 0.22443
0 0.961473 0.092279 0.227572
0 0.961422 0.0922684 0.221304
0 0.960808 0.093039 0.376813
0 0.960166 0.0932189 0.393517
0 0.959473 0.0932771 0.408808
0 0.959106 0.149889 7.90248
0 0.961101 0.0929006 0.31636
0 0.96058 0.0931169 0.257619
0 0.959908 0.093119 0.274584
0 0.95942 0.149464 8.15098
0 0.960937 0.0930529 0.349095
0 0.960921 0.0929126 0.351375
0 0.960964 0.0929189 0.34685
0 0.960821 0.093059 0.382175
0 0.96016 0.0932681 0.431856
0 0.959457 0.0932622 0.381166
0 0.959087 0.149403 7.84723
0 0.960483 0.0931792 0.289774
0 0.959907 0.0930933 0.264269
0 0.959508 0.144985 4.24429
0 0.960288 0.093254 0.385079
0 0.960166 0.0932649 0.424989
0 0.96018 0.0932658 0.422533
0 0.959441 0.093353 0.4544
0 0.959059 0.147718 7.6842
0 0.959727 0.0932679 0.37073
0 0.959422 0.149855 8.1728
0 0.959528 0.0932806 0.377385
0 0.959469 0.0933704 0.45047
0 0.959081 0.145403 7.96704
0 0.959215 0.149691 7.89269
0 0.959083 0.148981 7.82311
VECTORS fa_u float
0.00753679 0.00309968 0
0.00704951 0.004043 0
0.0078347 0.0020787 0
0.00797081 0.00108573 0
0.000417386 0.000143226 0
0.00642609 0.00489851 0
0.00570115 0.00567507 0
0.000396524 0.000192958 0
0.000364602 0.000243379 0
0.00491186 0.00638217 0
0.00402976 0.00697528 0
0.00797271 -9.60933e-06 0
0.00792462 -0.00109769 0
0.000424477 8.29225e-05 0
0.000418488 2.91729e-05 0
0.000393041 0.000112294 0
0.000378548 0.000154793 0
0.000321847 0.000278361 0
0.000281392 0.000315468 0
0.00035339 0.00020631 0
0.000319762 0.00024379 0
0.00311972 0.00753116 0
0.00212947 0.00793994 0
0.000239244 0.000347103 0
0.000195572 0.00037893 0
0.00041529 -2.84562e-05 0
0.00769337 -0.0020546 0
0.000411647 -8.00071e-05 0
0.00743078 -0.00305225 0
0.000401316 4.46973e-05 0
0.00039094 2.48833e-06 0
0.00035158 6.72323e-05 0
0.00104903 0.00797767 0
0.00031994 0.000113473 0
0.000330553 0.000159717 0
0.000280655 0.000280051 0
0.000244726 0.000310692 0
0.00028516 0.000191727 0
0.000277537 0.000240045 0
0.000151073 0.000414241 0
9.87385e-05 0.000445586 0
0.000199311 0.000343527 0
0.000164732 0.000367723 0
-1.14685e-05 0.00798463 0
0.000396761 -5.28241e-05 0
0.000400313 -0.000124931 0
0.000395666 -0.000102433 0
0.00720254 -0.00406099 0
0.000380216 -9.90161e-05 0
0.00337923 -0.00260518 0
0.000338093 1.67584e-05 0
0.00035862 -1.91956e-05 0
0.000232447 4.22778e-05 0
3.6672e-05 0.000447968 0
-2.03245e-05 0.000431901 0
0.000219611 0.000100816 0
0.000229499 0.000257012 0
0.000204506 0.000300558 0
0.000190011 0.000156091 0
0.000115622 0.00039375 0
6.31055e-05 0.000408389 0
0.000161866 0.000313582 0
0.000131206 0.000352739 0
-0.00104949 0.00781748 0
0.000331328 -6.1965e-05 0
0.000368763 -0.000143347 0
0.00034308 -0.000121873 0
9.8614e-05 0.000257778 0
0.000281368 -9.29364e-05 0
0.00576395 -0.00585617 0
-0.000204951 -0.000186133 0
0.00483284 -0.00630715 0
0.000188345 5.57719e-05 0
0.000235642 -1.97182e-05 0
0.000195825 9.11393e-06 0
-3.78264e-06 0.000410266 0
-6.81892e-05 0.000405698 0
-4.48423e-05 0.000400093 0
0.000169852 0.00010251 0
0.000165532 7.1956e-05 0
0.000147937 0.000198621 0
0.000145155 0.000143137 0
7.51278e-05 0.000335433 0
2.37503e-05 0.000358101 0
9.41708e-05 0.000234308 0
-0.00206843 0.007664 0
0.000220815 -8.00542e-05 0
0.000297505 -0.00014629 0
0.000204519 -0.000166408 0
0.000281758 -0.000183416 0
0.000187575 -0.000336677 0
0.0001694 -0.000254014 0
0.00397035 -0.00685519 0
0.000216496 -0.000343949 0
0.000165672 3.15022e-05 0
0.000193299 -4.49612e-05 0
0.000176548 -1.33569e-05 0
0.000174692 -9.03656e-05 0
0.00308495 -0.00736824 0
-0.000123541 0.000384493 0
-1.84131e-05 0.00035002 0
-9.18011e-05 0.000366898 0
-6.62884e-05 0.000358122 0
0.000124341 5.18362e-05 0
0.000136719 0.000105918 0
0.000107101 0.00017587 0
0.000117616 0.000144525 0
3.1036e-05 0.000253603 0
6.07482e-05 0.000193536 0
-0.00303812 0.00729813 0
0.000194483 -0.000134639 0
0.000243233 -0.00021867 0
0.000223014 -0.000319628 0
0.000227287 -0.000278552 0
0.000191037 -0.000362261 0
0.000201928 -0.000342144 0
0.000200243 -0.000329666 0
0.000112883 2.25048e-05 0
9.51923e-05 6.19785e-05 0
0.000129042 -5.88162e-06 0
0.000160873 -5.35977e-05 0
0.000145838 -0.000132351 0
0.000151484 -0.00010095 0
9.58378e-05 -1.93012e-05 0
0.00222989 -0.00794437 0
-0.00018262 0.000372879 0
-0.00012988 0.000346218 0
-3.25044e-05 0.000268925 0
-9.90758e-05 0.000334916 0
8.87556e-05 0.000101991 0
7.18634e-05 0.000157822 0
5.91503e-06 0.000203939 0
3.00432e-05 0.000168525 0
-0.000243829 0.00035562 0
-0.00397953 0.0068476 0
0.000155732 -0.000182377 0
0.000194195 -0.000291283 0
0.00016432 -0.000350229 0
0.000165698 -0.000327184 0
0.000257893 0.00010865 0
0.000136829 -0.000260717 0
0.000107367 -0.000164972 0
5.07808e-05 8.34622e-05 0
6.36684e-05 2.91773e-05 0
0.000108784 -6.37797e-05 0
0.000114786 -0.000125313 0
7.82628e-05 -0.000164755 0
6.43776e-05 -5.99266e-05 0
3.07362e-05 -1.94864e-05 0
-0.000276738 3.14928e-05 0
0.000572539 -0.00427541 0
-4.21619e-05 0.000202356 0
-0.000185351 0.000338291 0
-0.000134748 0.000335866 0
-7.37068e-05 0.000257097 0
-0.000242324 0.000323031 0
3.09087e-05 0.000128228 0
-1.5419e-05 0.00016689 0
4.66463e-06 9.78078e-05 0
-6.19968e-05 0.000191483 0
-0.000283354 0.000293702 0
-0.00484355 0.00631317 0
0.000102991 -0.000215243 0
0.000115854 -0.00031178 0
3.05651e-05 -0.000258703 0
7.19593e-05 -0.000327485 0
-6.10215e-05 -0.000298995 0
5.73759e-05 -0.000189769 0
-1.94721e-06 3.6521e-05 0
5.47795e-05 -0.000106921 0
3.06472e-05 -0.000170928 0
1.24292e-05 -7.38651e-05 0
-3.16834e-05 -2.1635e-05 0
-0.000106256 -0.00036843 0
-7.68454e-05 -0.00820393 0
-8.96192e-05 0.000185213 0
-0.000172205 0.000300237 0
-0.000126968 0.000245119 0
-0.000321029 0.000289431 0
-0.000235293 0.000275331 0
-2.63293e-05 0.000119406 0
-5.74582e-05 0.000136944 0
-4.71239e-05 7.94281e-05 0
-9.77888e-05 0.000144765 0
-0.000130547 0.000163288 0
-0.00032351 0.000265924 0
-0.000359417 0.000279454 0
-0.00547021 0.00562174 0
4.23463e-05 -0.000232143 0
1.91418e-05 -0.000318023 0
-7.48684e-05 -0.000379819 0
-3.95033e-05 -0.000344533 0
3.51638e-06 -0.000202252 0
-2.5341e-05 -0.000186862 0
-7.09086e-05 3.51442e-05 0
-1.59148e-05 -0.000124078 0
-3.98421e-05 -8.40421e-05 0
-0.000102315 -1.33442e-05 0
-8.382e-05 -6.18287e-05 0
-0.000112028 -0.000377539 0
-9.58777e-05 -0.000387356 0
-0.00105197 -0.00787494 0
-0.000149913 0.000184074 0
-0.000256133 0.000229377 0
-0.000311952 0.000222377 0
-0.000158163 0.000128197 0
-9.28995e-05 7.92827e-05 0
-0.00013737 9.74439e-05 0
-0.000347636 0.000240632 0
-0.000346798 0.000301811 0
-0.00635177 0.00490767 0
-2.44259e-05 -0.000232558 0
-7.33788e-05 -0.000329877 0
-0.000126248 -0.000353483 0
-5.42757e-05 -0.000195095 0
-6.96292e-05 -0.000166566 0
-0.000131846 3.50811e-05 0
-0.00016254 -1.16912e-05 0
-8.52346e-05 -0.000110516 0
-0.000137377 -6.45178e-05 0
-0.000154587 -0.000367065 0
-0.000134707 -0.000365761 0
-0.00201703 -0.00755582 0
-0.000201661 0.000129027 0
-0.000306673 0.00015193 0
-0.000177896 6.83041e-05 0
-0.000155453 4.6293e-05 0
-0.000344895 9.81958e-05 0
-0.000369129 0.000166462 0
-0.000336988 0.000201068 0
-0.00692895 0.00390442 0
-8.04123e-05 -0.00021952 0
-0.000143489 -0.000314714 0
-9.2255e-05 -0.00017361 0
-0.000110339 -0.000153199 0
-0.00018184 1.12499e-05 0
-0.000186631 -2.86414e-05 0
-0.00014073 -0.000112974 0
-0.000176595 -7.0617e-05 0
-0.000195364 -0.000311047 0
-0.000186844 -0.000357769 0
-0.000171825 -0.000356111 0
-0.00296812 -0.00716128 0
-0.000223326 5.51472e-05 0
-0.000187051 2.62204e-05 0
-0.000323615 4.38208e-05 0
-0.000389786 9.8157e-05 0
-0.000390204 0.000144741 0
-0.00735335 0.00301766 0
-0.000124283 -0.000190658 0
-0.000127053 -0.000141323 0
-0.000187873 -4.59701e-06 0
-0.000180374 -4.33714e-05 0
-0.000156815 -9.40785e-05 0
-0.000219466 -0.000258833 0
-0.000243297 -0.000319436 0
-0.000226502 -0.000344608 0
-0.00393223 -0.00680009 0
-0.000236144 1.50214e-05 0
-0.000331143 2.26791e-05 0
-0.000292512 8.5353e-05 0
-0.000369157 0.00014182 0
-0.00763941 0.00204449 0
-0.000167887 -0.000148939 0
-0.000226215 -2.48172e-05 0
-0.000203894 -8.60388e-05 0
-0.000289337 -0.000241396 0
-0.000282678 -0.000273767 0
-0.000275753 -0.000301802 0
-0.00481262 -0.006268 0
-0.000316269 -7.56375e-06 0
-0.000257486 8.28142e-06 0
2.12398e-05 0.000273761 0
-0.00807205 0.00113158 0
-0.000343982 -5.9534e-05 0
-0.00029328 -0.000193522 0
-0.000330475 -0.000105316 0
-0.000343725 -0.000167065 0