# vtk DataFile Version 2.0
CellBP Time: 0.92
ASCII
DATASET UNSTRUCTURED_GRID
POINTS 296 double
-9.2349 -3.7777 0
-8.62779 -4.96533 0
-9.62465 -2.54587 0
-9.86606 -1.26195 0
-8.36665 -2.84441 0
-7.90047 -6.05791 0
-6.99064 -7.05279 0
-7.9428 -3.87272 0
-7.37771 -4.90369 0
-6.0516 -7.88817 0
-4.97266 -8.6435 0
-9.95144 0.0579986 0
-9.88873 1.3359 0
-8.67511 -1.68923 0
-8.79975 -0.530315 0
-7.59163 -1.98027 0
-7.24067 -2.92127 0
-6.67188 -5.77392 0
-5.82966 -6.63141 0
-6.81835 -3.91185 0
-6.23139 -4.68478 0
-3.77014 -9.20687 0
-2.55025 -9.63626 0
-4.93456 -7.33527 0
-3.93119 -7.89779 0
-8.80039 0.64472 0
-9.63544 2.6326 0
-8.60949 1.76536 0
-9.20185 3.8817 0
-7.75762 -0.935931 0
-7.81158 0.0782575 0
-6.98181 -1.30129 0
-1.25992 -9.89489 0
-6.44727 -2.1644 0
-6.34221 -3.09714 0
-5.53316 -5.48582 0
-4.80232 -6.13364 0
-5.67107 -3.765 0
-5.2809 -4.57537 0
-2.86592 -8.37097 0
-1.77665 -8.65632 0
-3.92217 -6.74005 0
-3.06081 -7.16108 0
0.0551664 -9.95817 0
-7.71485 1.14008 0
-8.3397 2.87975 0
-7.56311 2.11173 0
-8.63025 5.06251 0
-7.87476 3.96252 0
-7.91147 6.15814 0
-6.81297 -0.4108 0
-6.95808 0.543891 0
-5.77893 -1.01061 0
-0.614176 -8.84185 0
0.59884 -8.79042 0
-5.30515 -2.4904 0
-4.49724 -5.10512 0
-3.9101 -5.78301 0
-4.48443 -3.81616 0
-2.05727 -7.55357 0
-1.12789 -7.79469 0
-3.00046 -6.11221 0
-2.28652 -6.61481 0
1.35384 -9.84562 0
-6.67236 1.43934 0
-7.17301 3.1196 0
-6.67082 2.37882 0
-7.31295 4.99603 0
-6.714 3.99965 0
-7.03494 7.14241 0
-6.56836 5.90829 0
-6.04552 7.98897 0
-4.45638 -1.18408 0
-5.81824 0.507904 0
-4.67433 -0.0261834 0
0.00476918 -7.82337 0
1.77295 -8.67514 0
0.941972 -7.75845 0
-4.03759 -2.41538 0
-3.47842 -1.38654 0
-3.29402 -4.80976 0
-3.2756 -3.27103 0
-1.37143 -6.68336 0
-0.491522 -7.00977 0
-1.97679 -5.54 0
2.66337 -9.65166 0
-5.51641 2.01586 0
-6.0864 3.09464 0
-6.10596 4.87689 0
-5.78219 3.99861 0
-5.77376 6.72679 0
-5.44695 5.60599 0
-4.95491 8.70923 0
-4.80678 7.42585 0
-3.51275 -0.43262 0
-4.4606 1.25727 0
-3.67937 0.595593 0
-4.06723 2.3194 0
-3.80295 9.29916 0
2.91376 -8.33956 0
0.438154 -6.79962 0
2.03725 -7.54975 0
1.29876 -6.91097 0
-2.44226 -0.878751 0
-2.83287 -2.12663 0
-2.29354 -4.11211 0
-2.31047 -2.97005 0
-0.437971 -5.87602 0
-1.22441 -4.51499 0
3.87768 -9.18754 0
-4.80226 3.39374 0
-5.11001 4.59996 0
-4.67376 6.28791 0
-4.56981 5.39492 0
-3.88183 7.99333 0
-3.85831 6.8932 0
-2.77599 8.4329 0
-1.64873 -0.14512 0
-1.4442 -0.897816 0
-2.48644 0.484214 0
-3.2734 1.47406 0
-3.25677 3.30624 0
-2.92844 2.35869 0
-1.3641 0.620623 0
-2.54244 9.72356 0
3.94254 -7.89225 0
3.00897 -7.19342 0
0.9484 -5.84167 0
2.07295 -6.41895 0
-1.671 -2.00554 0
-1.43214 -3.28677 0
0.0951896 -4.7617 0
-0.566479 -3.69408 0
4.94753 -7.34406 0
5.06756 -8.63605 0
-3.80374 4.55832 0
-3.76437 5.78845 0
-2.90569 7.33321 0
-3.00665 6.36948 0
-1.66049 8.7911 0
-1.98246 7.64226 0
-2.35874 4.01526 0
-0.715723 -1.3407 0
-0.825883 -0.26642 0
-1.97121 1.62992 0
-2.16787 2.8543 0
-1.34222 3.54273 0
-0.880727 1.34424 0
-0.268948 0.446115 0
-0.526268 8.87461 0
-1.26324 9.97336 0
1.14229 -4.57565 0
3.936 -6.7566 0
3.01671 -6.11829 0
2.16749 -5.42553 0
4.79625 -6.22825 0
-0.545163 -2.48788 0
0.495756 -3.48898 0
0.0702325 -1.62761 0
1.4955 -3.6749 0
5.86975 -6.6176 0
6.15313 -7.9001 0
-2.47203 5.3421 0
-2.12687 6.5417 0
-0.910997 7.79724 0
-1.26295 6.94261 0
0.0982337 7.87661 0
-1.11772 4.48627 0
0.159249 -0.640816 0
-0.817312 2.47793 0
-0.287826 3.60893 0
0.0378802 1.54444 0
0.737512 0.448573 0
0.65538 8.82501 0
0.0352851 10.0615 0
2.39375 -4.28326 0
3.8604 -5.66369 0
3.02184 -5.25648 0
5.55605 -5.46847 0
4.71592 -5.32353 0
0.639261 -2.30073 0
1.26962 -2.97222 0
0.784961 -1.40565 0
2.17357 -3.14835 0
3.02888 -3.46456 0
6.16721 -4.78438 0
6.67224 -5.78109 0
7.16482 -7.00996 0
-1.02235 5.84532 0
-0.3761 6.89034 0
1.11854 7.76046 0
0.559154 7.09101 0
-0.0331248 4.74668 0
0.600852 3.80861 0
1.34791 -0.659967 0
0.580395 2.61905 0
0.963195 1.56982 0
1.9169 0.179469 0
1.6267 1.06646 0
2.13335 7.60919 0
1.82198 8.72992 0
1.34962 9.97928 0
3.87773 -4.39845 0
5.14818 -4.49504 0
5.88714 -3.9696 0
3.82558 -3.17111 0
1.83765 -1.88247 0
3.03166 -2.58597 0
6.80269 -3.95798 0
7.40863 -4.92807 0
7.98539 -6.08846 0
0.483628 5.90975 0
1.42302 6.76008 0
2.37741 6.68698 0
1.17683 4.53881 0
1.51147 3.40905 0
2.47305 -0.707755 0
2.83425 0.152692 0
1.74059 2.15286 0
2.63358 1.09869 0
3.07471 7.17873 0
2.89659 8.45185 0
2.63663 9.71471 0
4.93334 -3.3171 0
6.16045 -3.08982 0
4.17822 -2.28648 0
3.25775 -1.48637 0
6.77253 -2.31972 0
7.28091 -3.08228 0
8.01072 -3.92182 0
8.73826 -4.97899 0
2.0302 5.60779 0
3.09345 6.18926 0
2.37354 4.11607 0
2.38145 3.03255 0
3.54155 -0.492231 0
3.59219 0.587568 0
2.95915 2.32856 0
3.5368 1.50763 0
4.00025 5.90564 0
4.03263 6.82734 0
3.95796 7.96859 0
3.86512 9.29422 0
5.55941 -1.90857 0
4.50105 -1.14274 0
6.75248 -1.33986 0
7.63068 -2.03892 0
8.43449 -2.89184 0
9.30512 -3.75578 0
3.3884 4.904 0
3.35537 3.3872 0
4.67816 0.144133 0
4.57137 1.33124 0
4.0115 2.44844 0
4.53405 5.17175 0
4.84646 6.17336 0
4.96384 7.41068 0
5.05369 8.72468 0
5.90538 -0.420093 0
7.04298 -0.485219 0
7.77397 -1.08671 0
8.6668 -1.7957 0
9.72988 -2.56752 0
4.54685 3.82078 0
5.84361 1.10005 0
5.38411 2.54305 0
5.38318 4.67211 0
5.66421 5.57369 0
5.88884 6.70908 0
6.14237 7.98965 0
6.90726 0.494645 0
7.87153 -0.0864656 0
8.92139 -0.620966 0
9.98933 -1.17778 0
7.00089 1.32685 0
5.70727 3.78461 0
6.56533 2.16798 0
6.36268 3.07061 0
6.27309 4.66312 0
6.72505 5.85939 0
7.15552 7.1171 0
7.76572 0.980761 0
8.81374 0.562445 0
10.0704 0.0509312 0
7.60399 1.96632 0
6.8773 3.94657 0
7.24219 2.93745 0
7.4359 4.8785 0
7.98095 6.16494 0
8.69475 1.735 0
9.99948 1.30972 0
8.45186 2.85605 0
8.01312 3.89641 0
8.72063 5.063 0
9.68895 2.65823 0
9.30662 3.90779 0
CELLS 542 2168
3 2 0 4
3 0 1 7
3 4 0 7
3 1 5 8
3 7 1 8
3 3 2 13
3 13 2 4
3 11 3 14
3 14 3 13
3 13 4 15
3 4 7 16
3 15 4 16
3 5 6 17
3 8 5 17
3 6 9 18
3 17 6 18
3 7 8 19
3 16 7 19
3 8 17 20
3 19 8 20
3 9 10 23
3 18 9 23
3 10 21 24
3 23 10 24
3 12 11 25
3 25 11 14
3 26 12 27
3 27 12 25
3 14 13 29
3 29 13 15
3 25 14 30
3 30 14 29
3 29 15 31
3 15 16 33
3 31 15 33
3 16 19 34
3 33 16 34
3 17 18 35
3 20 17 35
3 18 23 36
3 35 18 36
3 19 20 37
3 34 19 37
3 20 35 38
3 37 20 38
3 21 22 39
3 24 21 39
3 22 32 40
3 39 22 40
3 23 24 41
3 36 23 41
3 24 39 42
3 41 24 42
3 27 25 44
3 44 25 30
3 28 26 45
3 45 26 27
3 45 27 46
3 46 27 44
3 47 28 48
3 48 28 45
3 30 29 50
3 50 29 31
3 44 30 51
3 51 30 50
3 50 31 52
3 31 33 52
3 32 43 53
3 40 32 53
3 53 43 54
3 33 34 55
3 34 37 55
3 33 55 52
3 35 36 56
3 38 35 56
3 36 41 57
3 56 36 57
3 37 38 58
3 38 56 58
3 37 58 55
3 39 40 59
3 42 39 59
3 40 53 60
3 59 40 60
3 41 42 61
3 57 41 61
3 42 59 62
3 61 42 62
3 43 63 54
3 46 44 64
3 64 44 51
3 48 45 65
3 65 45 46
3 65 46 66
3 66 46 64
3 49 47 67
3 67 47 48
3 67 48 68
3 68 48 65
3 69 49 70
3 70 49 67
3 52 55 72
3 64 51 73
3 51 50 73
3 50 52 73
3 73 52 74
3 74 52 72
3 53 54 75
3 60 53 75
3 54 63 76
3 54 76 77
3 75 54 77
3 55 58 78
3 72 55 78
3 72 78 79
3 56 57 80
3 57 61 80
3 56 80 58
3 58 80 81
3 78 58 81
3 59 60 82
3 62 59 82
3 60 75 83
3 82 60 83
3 61 62 84
3 62 82 84
3 61 84 80
3 63 85 76
3 66 64 86
3 64 73 86
3 68 65 87
3 87 65 66
3 87 66 86
3 70 67 88
3 88 67 68
3 88 68 89
3 89 68 87
3 71 69 90
3 90 69 70
3 90 70 91
3 91 70 88
3 92 71 93
3 93 71 90
3 74 72 94
3 94 72 79
3 86 73 95
3 95 73 74
3 95 74 96
3 96 74 94
3 97 86 95
3 76 85 99
3 75 77 100
3 83 75 100
3 76 99 101
3 77 76 101
3 77 101 102
3 100 77 102
3 94 79 103
3 78 81 104
3 79 78 104
3 79 104 103
3 80 84 105
3 81 80 105
3 81 105 106
3 104 81 106
3 82 83 107
3 83 100 107
3 82 107 84
3 84 107 108
3 105 84 108
3 85 109 99
3 89 87 110
3 87 86 110
3 110 86 97
3 91 88 111
3 111 88 89
3 111 89 110
3 93 90 112
3 112 90 91
3 112 91 113
3 113 91 111
3 98 92 114
3 114 92 93
3 114 93 115
3 115 93 112
3 116 98 114
3 117 103 118
3 96 94 119
3 94 103 119
3 119 103 117
3 97 95 120
3 120 95 96
3 120 96 119
3 121 110 97
3 121 97 122
3 122 97 120
3 123 119 117
3 124 98 116
3 99 109 125
3 99 125 126
3 101 99 126
3 100 102 127
3 100 127 107
3 101 126 128
3 102 101 128
3 102 128 127
3 104 106 129
3 104 129 103
3 103 129 118
3 105 108 130
3 106 105 130
3 106 130 129
3 107 127 131
3 108 107 131
3 108 131 132
3 108 132 130
3 109 134 125
3 125 134 133
3 113 111 135
3 111 110 135
3 135 110 121
3 115 112 136
3 136 112 113
3 136 113 135
3 116 114 137
3 137 114 115
3 137 115 138
3 138 115 136
3 139 124 116
3 139 116 140
3 140 116 137
3 141 135 121
3 118 129 142
3 118 142 143
3 117 118 143
3 123 117 143
3 122 120 144
3 120 119 144
3 144 119 123
3 141 121 145
3 145 121 122
3 145 122 144
3 146 141 145
3 147 144 123
3 147 123 148
3 143 148 123
3 150 124 139
3 149 150 139
3 131 127 151
3 125 133 152
3 126 125 152
3 126 152 153
3 128 126 153
3 128 153 154
3 128 154 127
3 127 154 151
3 152 133 155
3 130 132 156
3 130 156 129
3 129 156 142
3 131 151 157
3 132 131 157
3 132 157 156
3 156 158 142
3 157 151 159
3 133 160 155
3 134 161 133
3 133 161 160
3 138 136 162
3 136 135 162
3 162 135 141
3 140 137 163
3 163 137 138
3 163 138 162
3 149 139 164
3 164 139 140
3 164 140 165
3 165 140 163
3 166 149 164
3 167 162 141
3 167 141 146
3 142 158 168
3 143 142 168
3 143 168 148
3 146 145 169
3 145 144 169
3 169 144 147
3 170 167 146
3 170 146 169
3 171 169 147
3 171 147 148
3 171 148 172
3 168 172 148
3 173 149 166
3 174 150 149
3 173 174 149
3 154 175 151
3 151 175 159
3 152 155 176
3 153 152 176
3 153 176 177
3 153 177 154
3 154 177 175
3 155 160 178
3 155 178 179
3 176 155 179
3 156 157 180
3 156 180 158
3 157 159 181
3 157 181 180
3 158 180 182
3 158 182 168
3 159 175 183
3 159 183 181
3 175 184 183
3 160 186 178
3 178 186 185
3 161 187 160
3 160 187 186
3 165 163 188
3 163 162 188
3 188 162 167
3 166 164 189
3 189 164 165
3 189 165 188
3 190 173 166
3 190 166 191
3 191 166 189
3 192 188 167
3 192 167 170
3 193 192 170
3 182 194 168
3 194 172 168
3 193 170 195
3 170 169 195
3 195 169 171
3 196 195 171
3 196 171 172
3 194 197 172
3 197 198 172
3 198 196 172
3 200 173 190
3 199 200 190
3 201 174 173
3 200 201 173
3 176 179 202
3 177 176 202
3 177 202 175
3 175 202 184
3 178 185 203
3 178 203 179
3 179 203 202
3 203 185 204
3 202 205 184
3 183 206 181
3 180 181 206
3 180 206 182
3 182 206 194
3 183 184 207
3 205 207 184
3 183 207 206
3 185 208 204
3 186 209 185
3 185 209 208
3 187 210 186
3 186 210 209
3 191 189 211
3 189 188 211
3 211 188 192
3 199 190 212
3 212 190 191
3 212 191 211
3 213 199 212
3 214 211 192
3 214 192 193
3 215 214 193
3 215 193 195
3 206 216 194
3 216 197 194
3 216 217 197
3 215 195 218
3 218 195 196
3 198 218 196
3 217 219 197
3 219 218 198
3 197 219 198
3 220 199 213
3 221 200 199
3 220 221 199
3 222 201 200
3 221 222 200
3 203 204 223
3 203 223 202
3 202 223 205
3 204 208 224
3 204 224 223
3 205 223 225
3 205 225 207
3 207 225 226
3 207 226 206
3 226 216 206
3 208 228 224
3 224 228 227
3 209 229 208
3 229 228 208
3 210 230 209
3 209 230 229
3 213 212 231
3 212 211 231
3 231 211 214
3 232 220 213
3 232 213 231
3 233 231 214
3 233 214 215
3 234 233 215
3 234 215 218
3 226 235 216
3 235 217 216
3 235 236 217
3 217 236 219
3 237 234 218
3 237 218 219
3 236 238 219
3 238 237 219
3 240 220 232
3 239 240 232
3 241 221 220
3 240 241 220
3 242 222 221
3 241 242 221
3 224 227 243
3 224 243 223
3 223 243 225
3 225 243 244
3 225 244 226
3 226 244 235
3 227 245 243
3 228 246 227
3 227 246 245
3 229 247 228
3 228 247 246
3 230 248 229
3 229 248 247
3 239 232 249
3 232 231 249
3 249 231 233
3 250 249 233
3 250 233 234
3 237 250 234
3 244 251 235
3 235 251 236
3 251 252 236
3 236 252 238
3 252 253 238
3 253 250 237
3 253 237 238
3 254 239 249
3 255 240 239
3 254 255 239
3 256 241 240
3 255 256 240
3 257 242 241
3 256 257 241
3 245 258 243
3 243 258 244
3 244 258 251
3 245 259 258
3 246 260 245
3 245 260 259
3 247 261 246
3 246 261 260
3 248 262 247
3 247 262 261
3 254 249 263
3 263 249 250
3 253 263 250
3 258 264 251
3 251 264 252
3 264 265 252
3 265 263 253
3 252 265 253
3 266 254 263
3 267 255 254
3 266 267 254
3 268 256 255
3 267 268 255
3 269 257 256
3 268 269 256
3 259 270 258
3 270 264 258
3 260 271 259
3 259 271 270
3 261 272 260
3 260 272 271
3 262 273 261
3 273 272 261
3 270 274 264
3 275 266 263
3 275 263 265
3 274 276 264
3 276 265 264
3 276 277 265
3 277 275 265
3 278 267 266
3 275 278 266
3 279 268 267
3 278 279 267
3 280 269 268
3 279 280 268
3 271 281 270
3 270 281 274
3 272 282 271
3 271 282 281
3 273 283 272
3 272 283 282
3 281 284 274
3 274 284 276
3 285 278 275
3 277 285 275
3 284 286 276
3 286 285 277
3 276 286 277
3 287 279 278
3 285 287 278
3 288 280 279
3 287 288 279
3 282 289 281
3 281 289 284
3 283 290 282
3 282 290 289
3 289 291 284
3 284 291 286
3 291 292 286
3 292 287 285
3 286 292 285
3 293 288 287
3 292 293 287
3 290 294 289
3 289 294 291
3 294 295 291
3 295 293 292
3 291 295 292
CELL_TYPES 542
5
5
5
5
5
5
5
5
5
5
5
5
5
5
5
5
5
5
5
5
5
5
5
5
5
5
5
5
5
5
5
5
5
5
5
5
5
5
5
5
5
5
5
5
5
5
5
5
5
5
5
5
5
5
5
5
5
5
5
5
5
5
5
5
5
5
5
5
5
5
5
5
5
5
5
5
5
5
5
5
5
5
5
5
5
5
5
5
5
5
5
5
5
5
5
5
5
5
5
5
5
5
5
5
5
5
5
5
5
5
5
5
5
5
5
5
5
5
5
5
5
5
5
5
5
5
5
5
5
5
5
5
5
5
5
5
5
5
5
5
5
5
5
5
5
5
5
5
5
5
5
5
5
5
5
5
5
5
5
5
5
5
5
5
5
5
5
5
5
5
5
5
5
5
5
5
5
5
5
5
5
5
5
5
5
5
5
5
5
5
5
5
5
5
5
5
5
5
5
5
5
5
5
5
5
5
5
5
5
5
5
5
5
5
5
5
5
5
5
5
5
5
5
5
5
5
5
5
5
5
5
5
5
5
5
5
5
5
5
5
5
5
5
5
5
5
5
5
5
5
5
5
5
5
5
5
5
5
5
5
5
5
5
5
5
5
5
5
5
5
5
5
5
5
5
5
5
5
5
5
5
5
5
5
5
5
5
5
5
5
5
5
5
5
5
5
5
5
5
5
5
5
5
5
5
5
5
5
5
5
5
5
5
5
5
5
5
5
5
5
5
5
5
5
5
5
5
5
5
5
5
5
5
5
5
5
5
5
5
5
5
5
5
5
5
5
5
5
5
5
5
5
5
5
5
5
5
5
5
5
5
5
5
5
5
5
5
5
5
5
5
5
5
5
5
5
5
5
5
5
5
5
5
5
5
5
5
5
5
5
5
5
5
5
5
5
5
5
5
5
5
5
5
5
5
5
5
5
5
5
5
5
5
5
5
5
5
5
5
5
5
5
5
5
5
5
5
5
5
5
5
5
5
5
5
5
5
5
5
5
5
5
5
5
5
5
5
5
5
5
5
5
5
5
5
5
5
5
5
5
5
5
5
5
5
5
5
5
5
5
5
5
5
5
5
5
5
5
5
5
5
5
5
5
5
5
5
5
5
5
5
5
5
5
5
5
5
5
5
5
5
5
5
5
5
5
5
5
5
5
5
5
5
5
5
5
5
5
5
5
5
5
5
5
5
5
5
5
5
5
5
5
5
5
5
5
5
5
5
5
5
5
POINT_DATA 296
SCALARS concentrations float 4
LOOKUP_TABLE default
0 1.00251 0.0331236 99.4493
0 1.0024 0.0568476 62.1539
0 1.00385 0.103595 97.6101
0 1.00336 0.0583271 69.2978
0 1.00306 0.0674061 85.4273
0 1.00356 0.095216 75.8467
0 1.00243 0.00937121 139.24
0 1.00241 0.0283881 83.8016
0 1.00322 0.0588059 36.9696
0 1.00111 0.104007 61.6753
0 1.00181 0.0263791 54.2624
0 1.00296 0.00535694 85.2108
0 1.00359 0.0836422 40.7995
0 1.00366 0.0340807 79.483
0 1.00239 0.0123236 51.489
0 1.00297 0.0225503 83.4569
0 1.00253 0.0184001 47.2053
0 1.00349 0.082584 10.2849
0 1.00154 0.047727 94.4048
0 1.00256 0.0118203 122.397
0 1.00278 0.032036 75.2475
0 1.00191 0.076805 37.6588
0 1.00186 0.11022 63.5424
0 1.00139 0.0911646 46.8233
0 1.00233 0.0933984 68.5003
0 1.00269 0.0620919 38.8437
0 1.00383 0.0856149 40.4756
0 1.00318 0.0725107 9.8651
0 1.0047 0.106187 111.909
0 1.00253 0.0156641 31.1661
0 1.00202 0.0847487 20.2184
0 1.00241 0.0768555 18.292
0 1.00338 0.0801456 34.4052
0 1.0023 0.0392696 73.1775
0 1.0023 0.0612793 93.5824
0 1.0028 0.0536754 96.4781
0 1.00154 0.0738959 79.4646
0 1.00242 0.075221 69.3046
0 1.00299 0.0804927 81.2409
0 1.00208 0.0451143 95.7108
0 1.00266 0.0968541 64.1257
0 1.00221 0.093879 80.7778
0 1.00254 0.0777513 82.3817
0 1.00279 0.00558607 134.825
0 1.00182 0.0141509 97.337
0 1.00399 0.0265851 57.2506
0 1.00212 0.026063 61.3468
0 1.00325 0.0809487 14.1203
0 1.00393 0.00991201 67.6373
0 1.00258 0.126975 143.734
0 1.00271 0.0360708 120.062
0 1.00231 0.032752 44.4588
0 1.00193 0.0256396 46.5146
0 1.00345 0.0865606 49.5026
0 1.00211 0.0155918 46.213
0 1.00245 0.0646113 74.1131
0 1.00288 0.0561386 70.3301
0 1.00219 0.0978549 82.2738
0 1.00338 0.0318323 36.198
0 1.00234 0.095164 92.3667
0 1.00345 0.0970359 97.9624
0 1.00224 0.0446256 45.1232
0 1.00175 0.0909338 70.9426
0 1.00152 0.0492463 44.6052
0 1.00184 0.0749567 24.3062
0 1.00273 0.00444313 6.06246
0 1.00198 0.0673584 20.3019
0 1.00315 0.0288749 191.38
0 1.00327 0.0643499 57.8166
0 1.00241 0.0413882 11.7885
0 1.00296 0.11524 88.631
0 1.00197 0.126751 85.0372
0 1.00236 0.0989368 61.971
0 1.00225 0.0158186 46.6261
0 1.00198 0.0506217 96.9068
0 1.00295 0.0799106 63.3472
0 1.0017 0.0626505 19.7668
0 1.00201 0.0623274 74.3368
0 1.00352 0.0484621 20.5859
0 1.00342 0.0310863 49.0782
0 1.00239 0.0556503 58.2172
0 1.00304 0.0303019 44.0826
0 1.00272 0.0625354 109.063
0 1.00345 0.0272162 45.1033
0 1.00198 0.0771222 20.5692
0 1.00103 0.117605 96.3493
0 1.00237 0.0622571 13.6943
0 1.00295 0.0186572 52.3182
0 1.00334 0.0809005 90.3109
0 1.00347 0.0526192 48.8229
0 1.00278 0.117144 150.666
0 1.00319 0.00713151 47.3266
0 1.00125 0.0886999 35.4923
0 1.00214 0.119424 120.599
0 1.00237 0.0805016 56.4537
0 1.00196 0.0208596 80.7776
0 1.00198 0.0328821 25.7596
0 1.00236 0.0793388 27.2278
0 1.00213 0.0746155 10.1772
0 1.00162 0.00715255 111.664
0 1.00327 0.0120116 65.442
0 1.00203 0.0937524 86.687
0 1.00184 0.0178908 27.685
0 1.00262 0.0758544 96.5258
0 1.00338 0.0490772 77.7657
0 1.00246 0.0561227 75.9605
0 1.00271 0.0656515 9.54944
0 1.00296 0.0655183 122.17
0 1.00265 0.0597589 61.2088
0 1.00076 0.112825 124.198
0 1.00303 0.01799 71.1892
0 1.00293 0.0761106 62.4684
0 1.00298 0.0717443 29.7169
0 1.00249 0.0955266 61.4859
0 1.00192 0.0646586 53.5108
0 1.00249 0.0869088 39.0921
0 1.00297 0.0734098 18.6106
0 1.00228 0.0838674 35.9029
0 1.00258 0.0924323 66.0714
0 1.00245 0.0331541 36.3475
0 1.00254 0.0785035 45.4373
0 1.00308 0.0543274 80.7061
0 1.00282 0.0285989 27.9489
0 1.00237 0.0473451 56.8281
0 1.00356 0.0714062 93.6381
0 1.00184 0.0831335 48.8035
0 1.00254 0.033391 45.2473
0 1.00296 0.0214743 26.3512
0 1.00192 0.0745328 103.017
0 1.00255 0.0436584 25.715
0 1.00274 0.100026 96.3452
0 1.00303 0.101037 105.821
0 1.00293 0.030436 32.1563
0 1.00233 0.0115459 89.153
0 1.00174 0.188584 21.464
0 1.00316 0.0989524 106.163
0 1.00304 0.0442113 34.8517
0 1.00222 0.0571907 30.2245
0 1.00259 0.0352523 80.3677
0 1.00319 0.067243 44.4561
0 1.00268 0.0851268 98.7495
0 1.00319 0.0756202 8.65827
0 1.00232 0.0444422 21.6088
0 1.00259 0.0313565 34.8601
0 1.00252 0.0329441 25.681
0 1.00277 0.0783589 10.7418
0 1.00295 0.0497494 55.4092
0 1.00203 0.0807995 62.1493
0 1.00269 0.0928722 24.7171
0 1.00255 0.0475356 4.69528
0 1.00321 0.0559481 71.3289
0 1.00323 0.0360595 2.1233
0 1.00257 0.0553467 55.7504
0 1.00251 0.0810694 29.1294
0 1.00248 0.0352605 19.5508
0 1.00272 0.0679001 93.2743
0 1.00258 0.0995235 55.5281
0 1.00309 0.0370536 28.4275
0 1.00228 0.083511 63.3484
0 1.00364 0.0410176 40.8933
0 1.00207 0.0345786 126.002
0 1.00136 0.036812 16.4852
0 1.00317 0.0391239 54.8715
0 1.00248 0.0871885 69.134
0 1.00273 0.0894428 22.2801
0 1.00279 0.0817469 78.2632
0 1.00255 0.0804805 52.8977
0 1.00294 0.0745727 13.8555
0 1.00243 0.0959995 55.261
0 1.00242 0.0293475 52.085
0 1.00265 0.0280537 20.369
0 1.0028 0.0437128 58.3522
0 1.00283 0.0782347 43.1393
0 1.00253 0.111818 65.941
0 1.00248 0.0549781 26.2887
0 1.00304 0.0312542 40.1673
0 1.00243 0.0743882 28.1657
0 1.00263 0.0819751 61.0163
0 1.00295 0.0708342 23.5421
0 1.00247 0.0880882 38.3902
0 1.00291 0.0883642 98.5773
0 1.00332 0.080114 67.2673
0 1.00256 0.0353077 26.25
0 1.00317 0.100987 120.445
0 1.00288 0.0369965 23.0751
0 1.00231 0.0808845 158.649
0 1.00203 0.0728442 78.4505
0 1.0008 0.117127 121.307
0 1.00298 0.0930676 29.9672
0 1.00279 0.0552144 8.7025
0 1.00281 0.0670781 53.3928
0 1.00259 0.0709525 23.378
0 1.00308 0.0318903 35.7556
0 1.00277 0.0272648 35.7703
0 1.00268 0.0604555 95.3432
0 1.00281 0.0682044 53.3521
0 1.00343 0.0281756 95.2738
0 1.00216 0.088512 33.9985
0 1.00248 0.0226026 57.7515
0 1.0029 0.0536239 6.85535
0 1.00285 0.0689714 56.817
0 1.00286 0.0806831 53.0396
0 1.00277 0.0779673 27.4428
0 1.00239 0.0624047 62.8089
0 1.00197 0.0815742 38.6351
0 1.00257 0.0404518 52.896
0 1.00274 0.0407079 18.7662
0 1.00268 0.0366708 18.8266
0 1.00216 0.0653786 55.5358
0 1.00256 0.0743375 10.154
0 1.00149 0.04137 32.7736
0 1.00291 0.0617103 70.7695
0 1.00293 0.068042 36.8282
0 1.00294 0.0693666 32.4433
0 1.00286 0.0387786 6.94829
0 1.0028 0.0828527 70.1724
0 1.00303 0.0510794 40.264
0 1.00206 0.0686782 72.4242
0 1.00245 0.0459546 88.5118
0 1.00156 0.0435717 6.37796
0 1.00279 0.0564286 15.674
0 1.00257 0.0993843 38.1885
0 1.00276 0.0516558 10.9397
0 1.0025 0.0877043 52.8888
0 1.00229 0.0465104 25.929
0 1.00242 0.0462869 34.7082
0 1.00268 0.0442052 35.5749
0 1.00224 0.112165 154.384
0 1.00206 0.067863 32.1043
0 1.00255 0.099275 100.68
0 1.00303 0.0610522 16.8288
0 1.00301 0.0665761 46.7307
0 1.00309 0.0684346 40.2435
0 1.00286 0.0562415 55.2638
0 1.00207 0.0828018 33.468
0 1.00287 0.0498153 64.3207
0 1.00212 0.0546536 77.9585
0 1.00179 0.0516668 84.142
0 1.002 0.0651817 30.3315
0 1.0029 0.0896845 74.1788
0 1.00305 0.0536487 0.498252
0 1.0029 0.0803301 39.9456
0 1.00265 0.094198 13.9424
0 1.00192 0.0467792 57.5497
0 1.00235 0.0490531 33.3483
0 1.00171 0.100626 153.067
0 1.00262 0.0535905 20.9739
0 1.0023 0.0948785 49.0859
0 1.00279 0.0655195 20.534
0 1.00291 0.0686883 14.0744
0 1.00223 0.0465013 115.005
0 1.00257 0.0815225 34.4686
0 1.00228 0.084333 26.4813
0 1.00226 0.0842489 50.1894
0 1.00299 0.0894719 40.716
0 1.00273 0.0900679 5.36881
0 1.00279 0.0591948 59.4244
0 1.00253 0.0502007 26.7548
0 1.00205 0.048837 39.5499
0 1.00144 0.0596855 45.891
0 1.00193 0.109611 161.996
0 1.00269 0.0974803 68.2595
0 1.00262 0.126664 97.4645
0 1.00296 0.0741133 51.7853
0 1.00272 0.0951606 49.3291
0 1.00293 0.0680116 59.3461
0 1.00377 0.0727133 66.9278
0 1.00294 0.0626146 39.1488
0 1.00243 0.0581836 62.8191
0 1.00243 0.100881 55.1189
0 1.00219 0.0644298 31.2539
0 1.00113 0.100342 35.544
0 1.00235 0.0993227 111.194
0 1.00305 0.112331 73.0359
0 1.0028 0.0590016 61.26
0 1.00339 0.0427086 8.70517
0 1.00299 0.0781176 21.1935
0 1.00294 0.0436858 75.5657
0 1.00346 0.0352068 54.1494
0 1.00257 0.0627471 76.6238
0 1.00226 0.0706689 126.212
0 1.00118 0.0761386 45.1516
0 1.00087 0.111378 110.271
0 1.0025 0.1043 70.4734
0 1.00254 0.0466477 56.3478
0 1.00295 0.0411569 34.1786
0 1.00268 0.0459071 76.4671
0 1.00287 0.0338842 24.7566
0 1.00236 0.0699464 122.705
0 1.00084 0.0712376 89.5088
0 1.00049 0.109697 50.1913
0 1.00237 0.0464873 92.9393
0 1.00265 0.0552778 88.8632
0 1.00229 0.0550055 60.6827
0 1.0012 0.0990231 60.3717
0 1.00218 0.0967879 60.8203
VECTORS fa_u float
0.00966281 0.00398122 -0
0.00428377 0.00250696 -0
0.00540993 0.00135726 -0
0.0055332 0.000694423 -0
1e-08 0 0
0.00692961 0.00543477 -0
0.00285709 0.00288614 -0
1e-08 0 0
1e-08 0 0
0.0032426 0.00411355 -0
0.00560466 0.00969651 -0
0.00494759 4.31669e-05 -0
0.00786622 -0.000965475 0
1e-08 0 0
1e-08 0 0
1e-08 0 0
1e-08 0 0
1e-08 0 0
1e-08 0 0
1e-08 0 0
1e-08 0 0
0.00143436 0.00349995 -0
0.00199532 0.00727985 -0
1e-08 0 0
1e-08 0 0
1e-08 0 0
0.00725171 -0.00195656 0
1e-08 0 0
0.00476609 -0.00197161 0
1e-08 0 0
1e-08 0 0
1e-08 0 0
0.00103951 0.00841354 -0
1e-08 0 0
1e-08 0 0
1e-08 0 0
1e-08 0 0
1e-08 0 0
1e-08 0 0
1e-08 0 0
1e-08 0 0
1e-08 0 0
1e-08 0 0
-0.000129687 0.00687943 -0
1e-08 0 0
1e-08 0 0
1e-08 0 0
0.00556798 -0.00315617 0
1e-08 0 0
0.00649032 -0.00497815 0
1e-08 0 0
1e-08 0 0
1e-08 0 0
1e-08 0 0
1e-08 0 0
1e-08 0 0
1e-08 0 0
1e-08 0 0
1e-08 0 0
1e-08 0 0
1e-08 0 0
1e-08 0 0
1e-08 0 0
-0.000163034 0.0013873 0
1e-08 0 0
1e-08 0 0
1e-08 0 0
1e-08 0 0
1e-08 0 0
0.00488817 -0.00498195 0
1e-08 0 0
0.00353855 -0.00469759 0
1e-08 0 0
1e-08 0 0
1e-08 0 0
1e-08 0 0
1e-08 0 0
1e-08 0 0
1e-08 0 0
1e-08 0 0
1e-08 0 0
1e-08 0 0
1e-08 0 0
1e-08 0 0
1e-08 0 0
-0.00452574 0.0173569 0
1e-08 0 0
1e-08 0 0
1e-08 0 0
1e-08 0 0
1e-08 0 0
1e-08 0 0
0.00235692 -0.00403418 0
1e-08 0 0
1e-08 0 0
1e-08 0 0
1e-08 0 0
1e-08 0 0
0.00324286 -0.00771281 0
1e-08 0 0
1e-08 0 0
1e-08 0 0
1e-08 0 0
1e-08 0 0
1e-08 0 0
1e-08 0 0
1e-08 0 0
1e-08 0 0
1e-08 0 0
-0.00070746 0.00167474 0
1e-08 0 0
1e-08 0 0
1e-08 0 0
1e-08 0 0
1e-08 0 0
1e-08 0 0
1e-08 0 0
1e-08 0 0
1e-08 0 0
1e-08 0 0
1e-08 0 0
1e-08 0 0
1e-08 0 0
1e-08 0 0
0.00168924 -0.00636334 0
1e-08 0 0
1e-08 0 0
1e-08 0 0
1e-08 0 0
1e-08 0 0
1e-08 0 0
1e-08 0 0
1e-08 0 0
1e-08 0 0
-0.00488585 0.00863534 0
1e-08 0 0
1e-08 0 0
1e-08 0 0
1e-08 0 0
1e-08 0 0
1e-08 0 0
1e-08 0 0
1e-08 0 0
1e-08 0 0
1e-08 0 0
1e-08 0 0
1e-08 0 0
1e-08 0 0
1e-08 0 0
1e-08 0 0
0.000778395 -0.00593773 0
1e-08 0 0
1e-08 0 0
1e-08 0 0
1e-08 0 0
1e-08 0 0
1e-08 0 0
1e-08 0 0
1e-08 0 0
1e-08 0 0
1e-08 0 0
-0.00363501 0.00468824 0
1e-08 0 0
1e-08 0 0
1e-08 0 0
1e-08 0 0
1e-08 0 0
1e-08 0 0
1e-08 0 0
1e-08 0 0
1e-08 0 0
1e-08 0 0
1e-08 0 0
1e-08 0 0
1.46101e-05 -0.00645263 0
1e-08 0 0
1e-08 0 0
1e-08 0 0
1e-08 0 0
1e-08 0 0
1e-08 0 0
1e-08 0 0
1e-08 0 0
1e-08 0 0
1e-08 0 0
1e-08 0 0
1e-08 0 0
-0.00402074 0.00406653 0
1e-08 0 0
1e-08 0 0
1e-08 0 0
1e-08 0 0
1e-08 0 0
1e-08 0 0
1e-08 0 0
1e-08 0 0
1e-08 0 0
1e-08 0 0
1e-08 0 0
1e-08 0 0
1e-08 0 0
-0.000984431 -0.00738483 0
1e-08 0 0
1e-08 0 0
1e-08 0 0
1e-08 0 0
1e-08 0 0
1e-08 0 0
1e-08 0 0
1e-08 0 0
-0.00527654 0.00408787 0
1e-08 0 0
1e-08 0 0
1e-08 0 0
1e-08 0 0
1e-08 0 0
1e-08 0 0
1e-08 0 0
1e-08 0 0
1e-08 0 0
1e-08 0 0
1e-08 0 0
-0.00161771 -0.00594016 0
1e-08 0 0
1e-08 0 0
1e-08 0 0
1e-08 0 0
1e-08 0 0
1e-08 0 0
1e-08 0 0
-0.00847416 0.00479429 0
1e-08 0 0
1e-08 0 0
1e-08 0 0
1e-08 0 0
1e-08 0 0
1e-08 0 0
1e-08 0 0
1e-08 0 0
1e-08 0 0
1e-08 0 0
1e-08 0 0
-0.00197987 -0.0048337 0
1e-08 0 0
1e-08 0 0
1e-08 0 0
1e-08 0 0
1e-08 0 0
-0.00290686 0.00119532 0
1e-08 0 0
1e-08 0 0
1e-08 0 0
1e-08 0 0
1e-08 0 0
1e-08 0 0
1e-08 0 0
1e-08 0 0
-0.00406375 -0.00709367 0
1e-08 0 0
1e-08 0 0
1e-08 0 0
1e-08 0 0
-0.00905498 0.00240321 0
1e-08 0 0
1e-08 0 0
1e-08 0 0
1e-08 0 0
1e-08 0 0
1e-08 0 0
-0.00313493 -0.00409875 0
1e-08 0 0
1e-08 0 0
1e-08 0 0
-0.00526299 0.00068449 0
1e-08 0 0
1e-08 0 0
1e-08 0 0
1e-08 0 0
1e-08 0 0
1e-08 0 0
-0.00572371 -0.0057672 0
1e-08 0 0
1e-08 0 0
-0.00597416 2.43799e-05 0
1e-08 0 0
1e-08 0 0
1e-08 0 0
1e-08 0 0
-0.00464076 -0.00353601 0
1e-08 0 0
-0.010751 -0.00157297 0
1e-08 0 0
1e-08 0 0
-0.00485756 -0.00285293 0
-0.00178828 -0.000476901 0
-0.0105429 -0.0042453 0
