# vtk DataFile Version 2.0
CellBP Time: 0.48
ASCII
DATASET UNSTRUCTURED_GRID
POINTS 296 double
-9.20003 -3.78419 0
-8.62051 -4.95681 0
-9.61829 -2.54239 0
-9.87585 -1.25799 0
-8.36944 -2.82594 0
-7.89523 -6.04628 0
-7.0298 -7.03153 0
-7.9294 -3.87553 0
-7.35428 -4.87679 0
-6.04212 -7.88939 0
-4.95318 -8.6256 0
-9.95937 0.0510512 0
-9.86978 1.35894 0
-8.66993 -1.68804 0
-8.79463 -0.530507 0
-7.60268 -2.0057 0
-7.23606 -2.91335 0
-6.64333 -5.78367 0
-5.82714 -6.60209 0
-6.80438 -3.89937 0
-6.22873 -4.6811 0
-3.77878 -9.1951 0
-2.54755 -9.63053 0
-4.91569 -7.32191 0
-3.91731 -7.89014 0
-8.80064 0.644714 0
-9.61501 2.64121 0
-8.63056 1.77926 0
-9.19786 3.87726 0
-7.75785 -0.928227 0
-7.80292 0.0800146 0
-6.96275 -1.31728 0
-1.26414 -9.85808 0
-6.4484 -2.16076 0
-6.32505 -3.06514 0
-5.53917 -5.48901 0
-4.80794 -6.13127 0
-5.66564 -3.765 0
-5.27506 -4.56729 0
-2.86703 -8.37042 0
-1.78116 -8.64486 0
-3.93112 -6.72841 0
-3.06423 -7.15382 0
0.0499056 -9.96228 0
-7.70418 1.1384 0
-8.33551 2.91521 0
-7.56104 2.11238 0
-8.6184 5.05447 0
-7.89089 3.9821 0
-7.90473 6.15164 0
-6.78703 -0.398113 0
-6.9565 0.545725 0
-5.77642 -1.00833 0
-0.600546 -8.81115 0
0.57225 -8.78322 0
-5.29903 -2.4829 0
-4.50019 -5.10046 0
-3.90679 -5.78009 0
-4.44819 -3.80432 0
-2.06612 -7.56674 0
-1.13443 -7.79129 0
-2.99779 -6.10657 0
-2.30706 -6.62434 0
1.3676 -9.83266 0
-6.68969 1.41926 0
-7.17756 3.12156 0
-6.6716 2.37792 0
-7.30552 4.98904 0
-6.71408 4.00134 0
-7.03246 7.12932 0
-6.58331 5.89221 0
-6.04569 7.99272 0
-4.45243 -1.18459 0
-5.81799 0.509014 0
-4.65527 -0.0108858 0
0.00291021 -7.81818 0
1.74022 -8.65334 0
0.943002 -7.75061 0
-4.03588 -2.4101 0
-3.48106 -1.3955 0
-3.30149 -4.80398 0
-3.27337 -3.25995 0
-1.37405 -6.68145 0
-0.507961 -7.02677 0
-1.97806 -5.5446 0
2.64095 -9.61887 0
-5.51098 2.03661 0
-6.1084 3.07717 0
-6.10139 4.8693 0
-5.7799 3.99868 0
-5.77073 6.72368 0
-5.4527 5.6114 0
-4.95467 8.71383 0
-4.82336 7.40883 0
-3.49817 -0.426325 0
-4.45255 1.27055 0
-3.71099 0.590252 0
-4.0677 2.32141 0
-3.77981 9.29873 0
2.88173 -8.3487 0
0.427774 -6.80136 0
2.03595 -7.54031 0
1.31553 -6.91563 0
-2.4403 -0.878778 0
-2.83509 -2.1316 0
-2.29022 -4.10091 0
-2.31792 -2.97917 0
-0.440198 -5.8676 0
-1.21852 -4.50481 0
3.88243 -9.20486 0
-4.80064 3.39486 0
-5.10986 4.60353 0
-4.67749 6.29336 0
-4.56211 5.37615 0
-3.8735 7.99413 0
-3.83875 6.88313 0
-2.76696 8.41801 0
-1.64913 -0.14391 0
-1.44494 -0.893723 0
-2.4756 0.497351 0
-3.27256 1.47574 0
-3.25795 3.31384 0
-2.92706 2.35283 0
-1.36401 0.622921 0
-2.53973 9.72382 0
3.94679 -7.89781 0
2.98061 -7.17299 0
0.958508 -5.82778 0
2.0799 -6.42295 0
-1.67512 -1.99897 0
-1.42769 -3.2854 0
0.0965072 -4.75711 0
-0.55961 -3.70087 0
4.94207 -7.3313 0
5.05865 -8.62309 0
-3.80162 4.55936 0
-3.7535 5.77723 0
-2.90285 7.32325 0
-3.00946 6.37588 0
-1.66497 8.74477 0
-1.95334 7.62899 0
-2.36323 4.02044 0
-0.717738 -1.33645 0
-0.831566 -0.25212 0
-1.95832 1.64653 0
-2.16764 2.85701 0
-1.35055 3.55937 0
-0.883866 1.35102 0
-0.280075 0.450053 0
-0.532329 8.87816 0
-1.25752 9.97694 0
1.12119 -4.58657 0
3.92647 -6.74438 0
2.99514 -6.10792 0
2.12716 -5.4368 0
4.79476 -6.22071 0
-0.549778 -2.48451 0
0.487939 -3.51234 0
0.0616797 -1.61986 0
1.50006 -3.67365 0
5.87853 -6.62498 0
6.16607 -7.91046 0
-2.47444 5.3464 0
-2.13449 6.54276 0
-0.904613 7.80363 0
-1.27828 6.94032 0
0.0818361 7.89069 0
-1.12224 4.48663 0
0.156226 -0.638683 0
-0.804309 2.48576 0
-0.302122 3.60251 0
0.0620412 1.53095 0
0.736869 0.458319 0
0.64346 8.88276 0
0.0446855 10.0627 0
2.39455 -4.2984 0
3.87131 -5.65542 0
3.01334 -5.23031 0
5.57588 -5.48701 0
4.69924 -5.29238 0
0.636715 -2.30131 0
1.26139 -2.9595 0
0.761138 -1.39561 0
2.17237 -3.14871 0
3.00829 -3.48678 0
6.1686 -4.79579 0
6.66799 -5.77672 0
7.13018 -7.0315 0
-1.02508 5.81697 0
-0.378603 6.88652 0
1.11601 7.77123 0
0.549452 7.08384 0
-0.00332761 4.72773 0
0.600422 3.8258 0
1.34452 -0.652283 0
0.553706 2.61598 0
0.968165 1.56747 0
1.91346 0.179433 0
1.61977 1.0599 0
2.12282 7.58555 0
1.79489 8.71899 0
1.35445 9.9727 0
3.83285 -4.36417 0
5.12607 -4.47733 0
5.86671 -3.96234 0
3.81077 -3.19784 0
1.83515 -1.86368 0
3.02605 -2.58681 0
6.79725 -3.95564 0
7.3938 -4.91847 0
7.99328 -6.04479 0
0.472757 5.891 0
1.42174 6.74584 0
2.36939 6.67383 0
1.2013 4.55061 0
1.49675 3.43521 0
2.43753 -0.700631 0
2.83182 0.136342 0
1.77896 2.15106 0
2.63204 1.1344 0
3.06475 7.17235 0
2.8953 8.39724 0
2.63479 9.71852 0
4.92284 -3.33033 0
6.14727 -3.11193 0
4.18622 -2.28212 0
3.25123 -1.51082 0
6.76859 -2.32428 0
7.26788 -3.05793 0
7.98797 -3.93235 0
8.7211 -4.95619 0
2.0173 5.6014 0
3.08128 6.16132 0
2.34914 4.12596 0
2.41211 3.05389 0
3.53156 -0.466101 0
3.61028 0.592432 0
2.95936 2.31705 0
3.54935 1.53109 0
4.01867 5.888 0
3.98169 6.7973 0
3.96921 7.9451 0
3.89044 9.29059 0
5.58858 -1.94073 0
4.51672 -1.13802 0
6.74608 -1.34536 0
7.63131 -2.04195 0
8.41154 -2.89931 0
9.3054 -3.76727 0
3.41519 4.87848 0
3.34457 3.386 0
4.67674 0.146057 0
4.56989 1.32651 0
4.04117 2.41565 0
4.56743 5.17592 0
4.85777 6.18269 0
4.97941 7.38822 0
5.04776 8.71583 0
5.89006 -0.4318 0
7.04034 -0.489926 0
7.78782 -1.07691 0
8.67534 -1.78536 0
9.7292 -2.54175 0
4.55412 3.82921 0
5.82239 1.09885 0
5.38242 2.53574 0
5.39196 4.64299 0
5.62986 5.53591 0
5.89841 6.67939 0
6.13851 7.98884 0
6.86885 0.47977 0
7.88575 -0.0335653 0
8.89969 -0.604953 0
9.97953 -1.21203 0
7.00288 1.34699 0
5.72568 3.77807 0
6.56247 2.20448 0
6.39159 3.08457 0
6.2996 4.68605 0
6.69854 5.8577 0
7.1237 7.12874 0
7.79749 0.979225 0
8.81651 0.556365 0
10.0629 0.0316567 0
7.6136 1.99024 0
6.84616 3.9281 0
7.28287 2.94648 0
7.38675 4.89368 0
7.98616 6.14478 0
8.7356 1.72747 0
9.99157 1.35146 0
8.4414 2.85032 0
7.97632 3.90738 0
8.71398 5.0563 0
9.7186 2.64085 0
9.30489 3.88389 0
CELLS 542 2168
3 2 0 4
3 0 1 7
3 4 0 7
3 1 5 8
3 7 1 8
3 3 2 13
3 13 2 4
3 11 3 14
3 14 3 13
3 13 4 15
3 4 7 16
3 15 4 16
3 5 6 17
3 8 5 17
3 6 9 18
3 17 6 18
3 7 8 19
3 16 7 19
3 8 17 20
3 19 8 20
3 9 10 23
3 18 9 23
3 10 21 24
3 23 10 24
3 12 11 25
3 25 11 14
3 26 12 27
3 27 12 25
3 14 13 29
3 29 13 15
3 25 14 30
3 30 14 29
3 29 15 31
3 15 16 33
3 31 15 33
3 16 19 34
3 33 16 34
3 17 18 35
3 20 17 35
3 18 23 36
3 35 18 36
3 19 20 37
3 34 19 37
3 20 35 38
3 37 20 38
3 21 22 39
3 24 21 39
3 22 32 40
3 39 22 40
3 23 24 41
3 36 23 41
3 24 39 42
3 41 24 42
3 27 25 44
3 44 25 30
3 28 26 45
3 45 26 27
3 45 27 46
3 46 27 44
3 47 28 48
3 48 28 45
3 30 29 50
3 50 29 31
3 44 30 51
3 51 30 50
3 50 31 52
3 31 33 52
3 32 43 53
3 40 32 53
3 53 43 54
3 33 34 55
3 34 37 55
3 33 55 52
3 35 36 56
3 38 35 56
3 36 41 57
3 56 36 57
3 37 38 58
3 38 56 58
3 37 58 55
3 39 40 59
3 42 39 59
3 40 53 60
3 59 40 60
3 41 42 61
3 57 41 61
3 42 59 62
3 61 42 62
3 43 63 54
3 46 44 64
3 64 44 51
3 48 45 65
3 65 45 46
3 65 46 66
3 66 46 64
3 49 47 67
3 67 47 48
3 67 48 68
3 68 48 65
3 69 49 70
3 70 49 67
3 52 55 72
3 64 51 73
3 51 50 73
3 50 52 73
3 73 52 74
3 74 52 72
3 53 54 75
3 60 53 75
3 54 63 76
3 54 76 77
3 75 54 77
3 55 58 78
3 72 55 78
3 72 78 79
3 56 57 80
3 57 61 80
3 56 80 58
3 58 80 81
3 78 58 81
3 59 60 82
3 62 59 82
3 60 75 83
3 82 60 83
3 61 62 84
3 62 82 84
3 61 84 80
3 63 85 76
3 66 64 86
3 64 73 86
3 68 65 87
3 87 65 66
3 87 66 86
3 70 67 88
3 88 67 68
3 88 68 89
3 89 68 87
3 71 69 90
3 90 69 70
3 90 70 91
3 91 70 88
3 92 71 93
3 93 71 90
3 74 72 94
3 94 72 79
3 86 73 95
3 95 73 74
3 95 74 96
3 96 74 94
3 97 86 95
3 76 85 99
3 75 77 100
3 83 75 100
3 76 99 101
3 77 76 101
3 77 101 102
3 100 77 102
3 94 79 103
3 78 81 104
3 79 78 104
3 79 104 103
3 80 84 105
3 81 80 105
3 81 105 106
3 104 81 106
3 82 83 107
3 83 100 107
3 82 107 84
3 84 107 108
3 105 84 108
3 85 109 99
3 89 87 110
3 87 86 110
3 110 86 97
3 91 88 111
3 111 88 89
3 111 89 110
3 93 90 112
3 112 90 91
3 112 91 113
3 113 91 111
3 98 92 114
3 114 92 93
3 114 93 115
3 115 93 112
3 116 98 114
3 117 103 118
3 96 94 119
3 94 103 119
3 119 103 117
3 97 95 120
3 120 95 96
3 120 96 119
3 121 110 97
3 121 97 122
3 122 97 120
3 123 119 117
3 124 98 116
3 99 109 125
3 99 125 126
3 101 99 126
3 100 102 127
3 100 127 107
3 101 126 128
3 102 101 128
3 102 128 127
3 104 106 129
3 104 129 103
3 103 129 118
3 105 108 130
3 106 105 130
3 106 130 129
3 107 127 131
3 108 107 131
3 108 131 132
3 108 132 130
3 109 134 125
3 125 134 133
3 113 111 135
3 111 110 135
3 135 110 121
3 115 112 136
3 136 112 113
3 136 113 135
3 116 114 137
3 137 114 115
3 137 115 138
3 138 115 136
3 139 124 116
3 139 116 140
3 140 116 137
3 141 135 121
3 118 129 142
3 118 142 143
3 117 118 143
3 123 117 143
3 122 120 144
3 120 119 144
3 144 119 123
3 141 121 145
3 145 121 122
3 145 122 144
3 146 141 145
3 147 144 123
3 147 123 148
3 143 148 123
3 150 124 139
3 149 150 139
3 131 127 151
3 125 133 152
3 126 125 152
3 126 152 153
3 128 126 153
3 128 153 154
3 128 154 127
3 127 154 151
3 152 133 155
3 130 132 156
3 130 156 129
3 129 156 142
3 131 151 157
3 132 131 157
3 132 157 156
3 156 158 142
3 157 151 159
3 133 160 155
3 134 161 133
3 133 161 160
3 138 136 162
3 136 135 162
3 162 135 141
3 140 137 163
3 163 137 138
3 163 138 162
3 149 139 164
3 164 139 140
3 164 140 165
3 165 140 163
3 166 149 164
3 167 162 141
3 167 141 146
3 142 158 168
3 143 142 168
3 143 168 148
3 146 145 169
3 145 144 169
3 169 144 147
3 170 167 146
3 170 146 169
3 171 169 147
3 171 147 148
3 171 148 172
3 168 172 148
3 173 149 166
3 174 150 149
3 173 174 149
3 154 175 151
3 151 175 159
3 152 155 176
3 153 152 176
3 153 176 177
3 153 177 154
3 154 177 175
3 155 160 178
3 155 178 179
3 176 155 179
3 156 157 180
3 156 180 158
3 157 159 181
3 157 181 180
3 158 180 182
3 158 182 168
3 159 175 183
3 159 183 181
3 175 184 183
3 160 186 178
3 178 186 185
3 161 187 160
3 160 187 186
3 165 163 188
3 163 162 188
3 188 162 167
3 166 164 189
3 189 164 165
3 189 165 188
3 190 173 166
3 190 166 191
3 191 166 189
3 192 188 167
3 192 167 170
3 193 192 170
3 182 194 168
3 194 172 168
3 193 170 195
3 170 169 195
3 195 169 171
3 196 195 171
3 196 171 172
3 194 197 172
3 197 198 172
3 198 196 172
3 200 173 190
3 199 200 190
3 201 174 173
3 200 201 173
3 176 179 202
3 177 176 202
3 177 202 175
3 175 202 184
3 178 185 203
3 178 203 179
3 179 203 202
3 203 185 204
3 202 205 184
3 183 206 181
3 180 181 206
3 180 206 182
3 182 206 194
3 183 184 207
3 205 207 184
3 183 207 206
3 185 208 204
3 186 209 185
3 185 209 208
3 187 210 186
3 186 210 209
3 191 189 211
3 189 188 211
3 211 188 192
3 199 190 212
3 212 190 191
3 212 191 211
3 213 199 212
3 214 211 192
3 214 192 193
3 215 214 193
3 215 193 195
3 206 216 194
3 216 197 194
3 216 217 197
3 215 195 218
3 218 195 196
3 198 218 196
3 217 219 197
3 219 218 198
3 197 219 198
3 220 199 213
3 221 200 199
3 220 221 199
3 222 201 200
3 221 222 200
3 203 204 223
3 203 223 202
3 202 223 205
3 204 208 224
3 204 224 223
3 205 223 225
3 205 225 207
3 207 225 226
3 207 226 206
3 226 216 206
3 208 228 224
3 224 228 227
3 209 229 208
3 229 228 208
3 210 230 209
3 209 230 229
3 213 212 231
3 212 211 231
3 231 211 214
3 232 220 213
3 232 213 231
3 233 231 214
3 233 214 215
3 234 233 215
3 234 215 218
3 226 235 216
3 235 217 216
3 235 236 217
3 217 236 219
3 237 234 218
3 237 218 219
3 236 238 219
3 238 237 219
3 240 220 232
3 239 240 232
3 241 221 220
3 240 241 220
3 242 222 221
3 241 242 221
3 224 227 243
3 224 243 223
3 223 243 225
3 225 243 244
3 225 244 226
3 226 244 235
3 227 245 243
3 228 246 227
3 227 246 245
3 229 247 228
3 228 247 246
3 230 248 229
3 229 248 247
3 239 232 249
3 232 231 249
3 249 231 233
3 250 249 233
3 250 233 234
3 237 250 234
3 244 251 235
3 235 251 236
3 251 252 236
3 236 252 238
3 252 253 238
3 253 250 237
3 253 237 238
3 254 239 249
3 255 240 239
3 254 255 239
3 256 241 240
3 255 256 240
3 257 242 241
3 256 257 241
3 245 258 243
3 243 258 244
3 244 258 251
3 245 259 258
3 246 260 245
3 245 260 259
3 247 261 246
3 246 261 260
3 248 262 247
3 247 262 261
3 254 249 263
3 263 249 250
3 253 263 250
3 258 264 251
3 251 264 252
3 264 265 252
3 265 263 253
3 252 265 253
3 266 254 263
3 267 255 254
3 266 267 254
3 268 256 255
3 267 268 255
3 269 257 256
3 268 269 256
3 259 270 258
3 270 264 258
3 260 271 259
3 259 271 270
3 261 272 260
3 260 272 271
3 262 273 261
3 273 272 261
3 270 274 264
3 275 266 263
3 275 263 265
3 274 276 264
3 276 265 264
3 276 277 265
3 277 275 265
3 278 267 266
3 275 278 266
3 279 268 267
3 278 279 267
3 280 269 268
3 279 280 268
3 271 281 270
3 270 281 274
3 272 282 271
3 271 282 281
3 273 283 272
3 272 283 282
3 281 284 274
3 274 284 276
3 285 278 275
3 277 285 275
3 284 286 276
3 286 285 277
3 276 286 277
3 287 279 278
3 285 287 278
3 288 280 279
3 287 288 279
3 282 289 281
3 281 289 284
3 283 290 282
3 282 290 289
3 289 291 284
3 284 291 286
3 291 292 286
3 292 287 285
3 286 292 285
3 293 288 287
3 292 293 287
3 290 294 289
3 289 294 291
3 294 295 291
3 295 293 292
3 291 295 292
CELL_TYPES 542
5
5
5
5
5
5
5
5
5
5
5
5
5
5
5
5
5
5
5
5
5
5
5
5
5
5
5
5
5
5
5
5
5
5
5
5
5
5
5
5
5
5
5
5
5
5
5
5
5
5
5
5
5
5
5
5
5
5
5
5
5
5
5
5
5
5
5
5
5
5
5
5
5
5
5
5
5
5
5
5
5
5
5
5
5
5
5
5
5
5
5
5
5
5
5
5
5
5
5
5
5
5
5
5
5
5
5
5
5
5
5
5
5
5
5
5
5
5
5
5
5
5
5
5
5
5
5
5
5
5
5
5
5
5
5
5
5
5
5
5
5
5
5
5
5
5
5
5
5
5
5
5
5
5
5
5
5
5
5
5
5
5
5
5
5
5
5
5
5
5
5
5
5
5
5
5
5
5
5
5
5
5
5
5
5
5
5
5
5
5
5
5
5
5
5
5
5
5
5
5
5
5
5
5
5
5
5
5
5
5
5
5
5
5
5
5
5
5
5
5
5
5
5
5
5
5
5
5
5
5
5
5
5
5
5
5
5
5
5
5
5
5
5
5
5
5
5
5
5
5
5
5
5
5
5
5
5
5
5
5
5
5
5
5
5
5
5
5
5
5
5
5
5
5
5
5
5
5
5
5
5
5
5
5
5
5
5
5
5
5
5
5
5
5
5
5
5
5
5
5
5
5
5
5
5
5
5
5
5
5
5
5
5
5
5
5
5
5
5
5
5
5
5
5
5
5
5
5
5
5
5
5
5
5
5
5
5
5
5
5
5
5
5
5
5
5
5
5
5
5
5
5
5
5
5
5
5
5
5
5
5
5
5
5
5
5
5
5
5
5
5
5
5
5
5
5
5
5
5
5
5
5
5
5
5
5
5
5
5
5
5
5
5
5
5
5
5
5
5
5
5
5
5
5
5
5
5
5
5
5
5
5
5
5
5
5
5
5
5
5
5
5
5
5
5
5
5
5
5
5
5
5
5
5
5
5
5
5
5
5
5
5
5
5
5
5
5
5
5
5
5
5
5
5
5
5
5
5
5
5
5
5
5
5
5
5
5
5
5
5
5
5
5
5
5
5
5
5
5
5
5
5
5
5
5
5
5
5
5
5
5
5
5
5
5
5
5
5
5
5
5
5
5
5
5
5
5
5
5
5
5
5
5
5
5
5
5
5
5
5
5
5
5
5
5
5
5
5
5
5
5
5
5
5
5
5
5
5
5
5
5
5
POINT_DATA 296
SCALARS concentrations float 4
LOOKUP_TABLE default
0 1.0029 0.0948426 107.611
0 1.00304 0.0964968 63.1642
0 1.00171 0.10322 83.3105
0 1.0021 0.0750135 40.6532
0 1.00227 0.090134 66.2647
0 1.00238 0.0799762 78.9088
0 1.00233 0.103927 113.526
0 1.00291 0.0206772 56.8293
0 1.00263 0.0582386 87.1242
0 1.00234 0.035082 85.8822
0 1.00267 0.0963418 136.642
0 1.00221 0.0831466 42.073
0 1.00188 0.119496 118.182
0 1.00202 0.0811463 46.0191
0 1.00283 0.115329 35.7495
0 1.00269 0.0885018 54.9744
0 1.00227 0.0933466 106.916
0 1.0019 0.0343314 74.2555
0 1.00188 0.0809925 91.0213
0 1.00244 0.0934916 72.3112
0 1.00146 0.0901579 74.4982
0 1.00198 0.0266766 79.6704
0 1.00156 0.00475092 146.184
0 1.00194 0.0288771 101.582
0 1.00201 0.0649436 26.9763
0 1.00231 0.116776 77.5336
0 1.00126 0.0858456 73.8335
0 1.00216 0.133358 159.636
0 1.00103 0.0694667 24.1072
0 1.00314 0.092437 30.4281
0 1.00302 0.10358 47.8946
0 1.0034 0.0978219 27.1514
0 1.00201 0.00949294 94.0371
0 1.00285 0.0647882 116.108
0 1.00179 0.0264762 159.026
0 1.00098 0.0960925 118.599
0 1.00115 0.0321103 84.6279
0 1.00133 0.0220542 168.888
0 1.00072 0.0892215 98.6991
0 1.00149 0.0338873 105.106
0 1.00131 0.0225895 81.2733
0 1.00141 0.0265505 71.268
0 1.00165 0.0509107 54.2683
0 1.00211 0.0750071 75.6775
0 1.00271 0.117837 46.8944
0 1.0013 0.0986197 54.5904
0 1.00225 0.0633584 73.0324
0 1.0017 0.0816187 23.293
0 1.00143 0.0776216 38.5317
0 1.00134 0.0592872 40.7001
0 1.0027 0.102783 16.7348
0 1.00283 0.114973 25.0912
0 1.00267 0.100664 42.8313
0 1.00145 0.00576544 143.833
0 1.00143 0.0874541 134.405
0 1.00197 0.0112665 96.6652
0 1.00117 0.0302272 43.6654
0 1.00142 0.0545403 71.2201
0 1.00118 0.0156334 16.9631
0 1.00169 0.0771806 116.295
0 1.00108 0.081264 82.82
0 1.00149 0.0395052 89.8153
0 1.00178 0.0527903 20.1625
0 1.00079 0.0073364 105.887
0 1.00286 0.11671 55.6825
0 1.00114 0.0847389 136.455
0 1.00168 0.118675 101.192
0 1.00154 0.0752692 54.4322
0 1.0013 0.0885168 103.986
0 1.00104 0.134395 24.4046
0 1.00109 0.0736104 38.6999
0 1.00213 0.124815 24.327
0 1.00221 0.0863275 70.2218
0 1.00277 0.0696418 43.3416
0 1.00277 0.0790244 65.9016
0 1.00067 0.00784462 96.9562
0 1.00005 0.0567568 79.3311
0 1.00038 0.0149536 40.6468
0 1.00149 0.0694815 108.579
0 1.00154 0.0326919 138.968
0 1.00115 0.0446476 68.0558
0 1.00075 0.0514427 30.6409
0 1.00239 0.0479549 33.9591
0 1.00174 0.067606 58.29
0 1.00134 0.0200924 95.6093
0 1.00002 0.0457096 35.2414
0 1.00261 0.0984919 39.9291
0 1.00155 0.102038 81.9657
0 1.00152 0.0832681 56.1435
0 1.0018 0.0831342 62.5857
0 1.00124 0.0775559 52.8792
0 1.00149 0.0849915 78.8057
0 1.00285 0.105328 40.0185
0 1.00214 0.0923858 10.5467
0 1.00252 0.0382805 82.3922
0 1.00251 0.0998585 38.0707
0 1.00306 0.090967 10.6701
0 1.00244 0.085206 56.4681
0 1.00265 0.102026 75.2935
0 1.00059 0.0994397 76.8206
0 1.0009 0.039587 85.977
0 1.00033 0.0870301 107.123
0 1.00062 0.0506945 99.9945
0 1.00134 0.0975116 94.8445
0 1.00125 0.0604989 16.9088
0 1.00097 0.087891 109.534
0 1.00086 0.0950126 102.904
0 1.00142 0.0428315 50.134
0 1.00105 0.063374 91.2878
0 1.00112 0.104232 127.66
0 1.00229 0.0876899 79.1036
0 1.00207 0.0886572 85.1424
0 1.00143 0.106279 121.813
0 1.00206 0.0888618 86.4004
0 1.00258 0.0992184 32.4247
0 1.00196 0.0993841 74.2674
0 1.00232 0.107295 70.0807
0 1.00169 0.0934381 60.0626
0 1.00215 0.109066 39.0688
0 1.00205 0.0858072 17.5343
0 1.0023 0.059229 24.9653
0 1.00217 0.0635363 31.0863
0 1.00206 0.0660448 16.4218
0 1.00164 0.0802642 17.16
0 1.00235 0.110592 129.838
0 1.00185 0.095207 69.0649
0 1.00147 0.0175364 52.0831
0 1.0009 0.0366435 51.5962
0 1.00077 0.0360704 31.8318
0 1.00162 0.0695006 65.7196
0 1.00178 0.0630914 129.824
0 1.00088 0.0865691 135.806
0 1.00151 0.0930939 47.3044
0 1.00192 0.0912856 93.8833
0 1.00171 0.0993995 51.9376
0 1.00223 0.0720474 62.7434
0 1.00191 0.089108 85.7945
0 1.00203 0.109877 124.248
0 1.00171 0.114179 82.9454
0 1.00175 0.120647 66.5834
0 1.00148 0.112587 93.3999
0 1.00208 0.0650231 39.4513
0 1.00213 0.0917076 92.0393
0 1.00206 0.0317383 16.533
0 1.00213 0.0821026 19.2636
0 1.00204 0.0680265 41.6385
0 1.00182 0.0636441 23.042
0 1.00201 0.0750575 20.2072
0 1.00199 0.105767 36.5275
0 1.00186 0.0913905 60.7583
0 1.00166 0.105093 87.9971
0 1.00074 0.0974394 119.669
0 1.00129 0.0136597 84.2823
0 1.00042 0.0626962 38.9123
0 1.00023 0.0428147 83.4243
0 1.00125 0.0594342 121.535
0 1.00228 0.0809368 43.0392
0 1.00163 0.0276214 27.7576
0 1.00257 0.070197 111
0 1.00077 0.0331188 30.4045
0 1.00143 0.082998 54.1576
0 1.00139 0.0967261 46.3979
0 1.00191 0.0767787 64.3993
0 1.00163 0.0878039 65.3991
0 1.00143 0.0909296 63.8559
0 1.00153 0.100143 97.1481
0 1.00185 0.0975357 111.499
0 1.00192 0.0540268 62.713
0 1.00236 0.0303359 48.902
0 1.00199 0.0742619 41.4585
0 1.00155 0.0525915 60.6763
0 1.00197 0.0649528 23.4098
0 1.00234 0.115864 82.9343
0 1.00192 0.115203 111.94
0 1.00202 0.000998279 4.47042
0 1.00052 0.10781 98.5034
0 1.00091 0.0686558 112.838
0 1.00066 0.0977093 56.7452
0 1.00076 0.0998668 89.1158
0 1.00098 0.0727439 4.90117
0 1.00236 0.0497056 68.4147
0 1.00155 0.0443547 40.9791
0 1.00273 0.039807 78.5042
0 1.00101 0.0640349 138.884
0 1.00118 0.056048 129.089
0 1.00096 0.092224 104.242
0 1.00105 0.0502797 29.5947
0 1.00122 0.0442811 37.8252
0 1.00232 0.113765 90.2935
0 1.00215 0.0988197 116.278
0 1.00181 0.0941826 113.867
0 1.00222 0.0826424 168.392
0 1.00213 0.00587539 109.419
0 1.00202 0.0952301 83.4095
0 1.00264 0.0564176 35.0442
0 1.0025 0.110219 38.3893
0 1.00227 0.055919 100.273
0 1.00223 0.0411671 13.9899
0 1.00201 0.0606479 29.808
0 1.00194 0.111151 132.038
0 1.00148 0.123484 114.447
0 1.00169 0.0984876 46.3571
0 1.00116 0.0751007 158.721
0 1.00092 0.0891038 72.9194
0 1.00138 0.0880005 137.792
0 1.00119 0.0347578 64.6256
0 1.00208 0.0357863 47.4139
0 1.00214 0.00330257 160.893
0 1.00088 0.0693204 71.76
0 1.00056 0.0997051 120.644
0 1.00086 0.0883767 25.1368
0 1.00276 0.0999131 93.0035
0 1.00245 0.0915932 110.592
0 1.00244 0.0921701 116.916
0 1.00215 0.0840466 90.0446
0 1.00241 0.00837365 135.357
0 1.00271 0.0700128 70.1013
0 1.00308 0.0567416 38.1858
0 1.00237 0.0969857 21.3667
0 1.00216 0.021066 51.2264
0 1.00224 0.102114 151.102
0 1.00152 0.0878968 70.5402
0 1.00133 0.0870214 62.9054
0 1.00145 0.0661728 144.681
0 1.00213 0.0525522 133.524
0 1.00273 0.00278705 143.123
0 1.0029 0.0784284 143.449
0 1.00233 0.0254904 116.044
0 1.0008 0.0171197 174.462
0 1.00127 0.0828267 166.764
0 1.0012 0.0926744 123.645
0 1.00212 0.107261 123.194
0 1.00241 0.0999322 111.075
0 1.00184 0.114262 84.1548
0 1.0021 0.111617 65.9946
0 1.00303 0.0510135 31.8299
0 1.00287 0.0173345 20.4848
0 1.0025 0.00952781 78.6241
0 1.00259 0.0184935 27.5781
0 1.00314 0.0118418 89.4162
0 1.00292 0.110385 107.071
0 1.00147 0.117547 139.818
0 1.00115 0.0772893 65.0449
0 1.00312 0.0244023 161.852
0 1.00345 0.000999621 34.4628
0 1.00249 0.039951 94.5398
0 1.00056 0.00692714 157.455
0 1.00164 0.0805107 164.585
0 1.00275 0.00618624 130.002
0 1.00238 0.0745553 152.598
0 1.00283 0.113351 103.634
0 1.00256 0.0102586 47.9913
0 1.00218 0.00609625 114.606
0 1.00287 0.0121664 124.88
0 1.00296 0.0109524 83.9558
0 1.00316 0.00679486 101.501
0 1.00181 0.105786 126.918
0 1.00087 0.109426 103.486
0 1.00313 0.0551099 100.392
0 1.00199 0.00712955 117.457
0 1.00012 0.0139211 170.57
0 1.00146 0.0932786 139.811
0 1.00289 0.018208 32.8842
0 1.00312 0.107355 87.6279
0 1.00189 0.00274437 142.854
0 1.00294 0.073122 90.5401
0 1.00182 0.00450836 152.214
0 1.00204 0.00521245 144.239
0 1.00166 0.10479 143.948
0 1.00102 0.118208 99.2589
0 1.00118 0.00674482 105.955
0 1.00019 0.00321058 139.575
0 1.00061 0.0893567 152.494
0 1.00218 0.00441277 141.24
0 1.00002 0.00280301 139.148
0 1.00315 0.0656522 162.41
0 1.00224 0.00296674 140.464
0 1.00459 0.00290527 135.455
0 1.00136 0.00323095 141.235
0 1.00134 0.00658796 148.565
0 1.00103 0.117327 121.091
0 1.00093 0.0024895 143.458
0 1.00203 0.0032399 149.298
0 1.00169 0.00362641 143.036
0 1.00172 0.00276189 143.599
0 1.00342 0.0054573 141.275
0 1.00355 0.00310198 144.61
0 1.0022 0.0889541 149.596
0 1.00136 0.104367 127.199
0 1.00327 0.00342784 154.318
0 1.00393 0.00271641 142.888
0 1.00345 0.0186313 95.0322
0 1.00398 0.00310808 141.082
0 1.0037 0.0919815 105.537
0 1.00372 0.0938033 128.161
0 1.00404 0.00883174 150.708
VECTORS fa_u float
0.00632509 0.00261389 -0
0.00543433 0.00313458 -0
0.00592412 0.00158486 -0
0.00678477 0.000892309 -0
1e-08 0 0
0.00536952 0.00411688 -0
0.00487903 0.00490551 -0
1e-08 0 0
1e-08 0 0
0.00337091 0.00439133 -0
0.00388269 0.0067303 -0
0.00663006 -1.53826e-05 -0
0.0061571 -0.000818585 0
1e-08 0 0
1e-08 0 0
1e-08 0 0
1e-08 0 0
1e-08 0 0
1e-08 0 0
1e-08 0 0
1e-08 0 0
0.00183375 0.00438971 -0
0.00262699 0.00996411 -0
1e-08 0 0
1e-08 0 0
1e-08 0 0
0.00616756 -0.00164559 0
1e-08 0 0
0.00612597 -0.00252985 0
1e-08 0 0
1e-08 0 0
1e-08 0 0
0.000447701 0.00350519 -0
1e-08 0 0
1e-08 0 0
1e-08 0 0
1e-08 0 0
1e-08 0 0
1e-08 0 0
1e-08 0 0
1e-08 0 0
1e-08 0 0
1e-08 0 0
-0.000114019 0.0118052 -0
1e-08 0 0
1e-08 0 0
1e-08 0 0
0.00470617 -0.00267577 0
1e-08 0 0
0.006954 -0.00531541 0
1e-08 0 0
1e-08 0 0
1e-08 0 0
1e-08 0 0
1e-08 0 0
1e-08 0 0
1e-08 0 0
1e-08 0 0
1e-08 0 0
1e-08 0 0
1e-08 0 0
1e-08 0 0
1e-08 0 0
-0.000234062 0.00176596 0
1e-08 0 0
1e-08 0 0
1e-08 0 0
1e-08 0 0
1e-08 0 0
0.00408123 -0.00412103 0
1e-08 0 0
0.00419023 -0.0054947 0
1e-08 0 0
1e-08 0 0
1e-08 0 0
1e-08 0 0
1e-08 0 0
1e-08 0 0
1e-08 0 0
1e-08 0 0
1e-08 0 0
1e-08 0 0
1e-08 0 0
1e-08 0 0
1e-08 0 0
-0.00224223 0.00898195 0
1e-08 0 0
1e-08 0 0
1e-08 0 0
1e-08 0 0
1e-08 0 0
1e-08 0 0
0.00283304 -0.0049152 0
1e-08 0 0
1e-08 0 0
1e-08 0 0
1e-08 0 0
1e-08 0 0
0.00254153 -0.00607698 0
1e-08 0 0
1e-08 0 0
1e-08 0 0
1e-08 0 0
1e-08 0 0
1e-08 0 0
1e-08 0 0
1e-08 0 0
1e-08 0 0
1e-08 0 0
-0.0027345 0.00663921 0
1e-08 0 0
1e-08 0 0
1e-08 0 0
1e-08 0 0
1e-08 0 0
1e-08 0 0
1e-08 0 0
1e-08 0 0
1e-08 0 0
1e-08 0 0
1e-08 0 0
1e-08 0 0
1e-08 0 0
1e-08 0 0
0.0018095 -0.00672962 0
1e-08 0 0
1e-08 0 0
1e-08 0 0
1e-08 0 0
1e-08 0 0
1e-08 0 0
1e-08 0 0
1e-08 0 0
1e-08 0 0
-0.00236583 0.00417391 0
1e-08 0 0
1e-08 0 0
1e-08 0 0
1e-08 0 0
1e-08 0 0
1e-08 0 0
1e-08 0 0
1e-08 0 0
1e-08 0 0
1e-08 0 0
1e-08 0 0
1e-08 0 0
1e-08 0 0
1e-08 0 0
1e-08 0 0
0.000827515 -0.00631128 0
1e-08 0 0
1e-08 0 0
1e-08 0 0
1e-08 0 0
1e-08 0 0
1e-08 0 0
1e-08 0 0
1e-08 0 0
1e-08 0 0
1e-08 0 0
-0.00647779 0.00843117 0
1e-08 0 0
1e-08 0 0
1e-08 0 0
1e-08 0 0
1e-08 0 0
1e-08 0 0
1e-08 0 0
1e-08 0 0
1e-08 0 0
1e-08 0 0
1e-08 0 0
1e-08 0 0
-1.11512e-05 -0.00686691 0
1e-08 0 0
1e-08 0 0
1e-08 0 0
1e-08 0 0
1e-08 0 0
1e-08 0 0
1e-08 0 0
1e-08 0 0
1e-08 0 0
1e-08 0 0
1e-08 0 0
1e-08 0 0
-0.00347158 0.00340002 0
1e-08 0 0
1e-08 0 0
1e-08 0 0
1e-08 0 0
1e-08 0 0
1e-08 0 0
1e-08 0 0
1e-08 0 0
1e-08 0 0
1e-08 0 0
1e-08 0 0
1e-08 0 0
1e-08 0 0
-0.000813677 -0.00612368 0
1e-08 0 0
1e-08 0 0
1e-08 0 0
1e-08 0 0
1e-08 0 0
1e-08 0 0
1e-08 0 0
1e-08 0 0
-0.00504996 0.00387126 0
1e-08 0 0
1e-08 0 0
1e-08 0 0
1e-08 0 0
1e-08 0 0
1e-08 0 0
1e-08 0 0
1e-08 0 0
1e-08 0 0
1e-08 0 0
1e-08 0 0
-0.00172576 -0.0064161 0
1e-08 0 0
1e-08 0 0
1e-08 0 0
1e-08 0 0
1e-08 0 0
1e-08 0 0
1e-08 0 0
-0.00575655 0.00331645 0
1e-08 0 0
1e-08 0 0
1e-08 0 0
1e-08 0 0
1e-08 0 0
1e-08 0 0
1e-08 0 0
1e-08 0 0
1e-08 0 0
1e-08 0 0
1e-08 0 0
-0.00256275 -0.00616726 0
1e-08 0 0
1e-08 0 0
1e-08 0 0
1e-08 0 0
1e-08 0 0
-0.00538294 0.00224753 0
1e-08 0 0
1e-08 0 0
1e-08 0 0
1e-08 0 0
1e-08 0 0
1e-08 0 0
1e-08 0 0
1e-08 0 0
-0.00309188 -0.00533954 0
1e-08 0 0
1e-08 0 0
1e-08 0 0
1e-08 0 0
-0.00783412 0.0020668 0
1e-08 0 0
1e-08 0 0
1e-08 0 0
1e-08 0 0
1e-08 0 0
1e-08 0 0
-0.00389468 -0.00509434 0
1e-08 0 0
1e-08 0 0
1e-08 0 0
-0.00540152 0.000700374 0
1e-08 0 0
1e-08 0 0
1e-08 0 0
1e-08 0 0
1e-08 0 0
1e-08 0 0
-0.00478747 -0.00479682 0
1e-08 0 0
1e-08 0 0
-0.00567267 2.66456e-05 0
1e-08 0 0
1e-08 0 0
1e-08 0 0
1e-08 0 0
-0.00512779 -0.00393478 0
1e-08 0 0
-0.00893766 -0.00117927 0
1e-08 0 0
1e-08 0 0
-0.00492987 -0.00287549 0
-0.0046498 -0.00126081 0
-0.00742559 -0.00308841 0
