# vtk DataFile Version 2.0
CellBP Time: 1.04
ASCII
DATASET UNSTRUCTURED_GRID
POINTS 296 double
-9.14633 -3.75939 0
-8.5697 -4.92672 0
-9.56376 -2.5262 0
-9.81669 -1.2487 0
-8.35395 -2.81731 0
-7.84737 -6.01001 0
-6.98825 -6.98833 0
-7.91378 -3.87294 0
-7.33947 -4.86567 0
-6.00939 -7.84685 0
-4.92679 -8.57012 0
-9.91561 0.0499747 0
-9.81682 1.34868 0
-8.65405 -1.68288 0
-8.78382 -0.528587 0
-7.58621 -2.00296 0
-7.22233 -2.90497 0
-6.63482 -5.77639 0
-5.81994 -6.59409 0
-6.78707 -3.88695 0
-6.21765 -4.67361 0
-3.75891 -9.1456 0
-2.52623 -9.56464 0
-4.90439 -7.3057 0
-3.91131 -7.88285 0
-8.79025 0.642329 0
-9.56425 2.6263 0
-8.61974 1.77301 0
-9.14754 3.85994 0
-7.74108 -0.928362 0
-7.79143 0.0802586 0
-6.94975 -1.31522 0
-1.24925 -9.81853 0
-6.43885 -2.15211 0
-6.31658 -3.05471 0
-5.53395 -5.47191 0
-4.79365 -6.11253 0
-5.65664 -3.75532 0
-5.26701 -4.55945 0
-2.86482 -8.36026 0
-1.77767 -8.63635 0
-3.92631 -6.72031 0
-3.0551 -7.14916 0
0.0499504 -9.90387 0
-7.70231 1.14278 0
-8.33518 2.91407 0
-7.5484 2.11081 0
-8.57106 5.02743 0
-7.8768 3.97641 0
-7.84715 6.10969 0
-6.7761 -0.396716 0
-6.95377 0.552325 0
-5.76967 -1.00308 0
-0.590467 -8.80588 0
0.565584 -8.76719 0
-5.30144 -2.47946 0
-4.49002 -5.09347 0
-3.90074 -5.77266 0
-4.43744 -3.80347 0
-2.06133 -7.55834 0
-1.13485 -7.78215 0
-2.99318 -6.09935 0
-2.30789 -6.61674 0
1.34922 -9.81906 0
-6.68687 1.42143 0
-7.1688 3.11646 0
-6.6564 2.37183 0
-7.29168 4.98665 0
-6.71493 4.00117 0
-6.98858 7.08867 0
-6.56986 5.89187 0
-6.00963 7.94716 0
-4.45172 -1.18065 0
-5.81289 0.51357 0
-4.65473 -0.0103334 0
0.00855387 -7.84445 0
1.73807 -8.64033 0
0.948633 -7.75987 0
-4.03726 -2.4056 0
-3.48435 -1.39067 0
-3.29336 -4.80373 0
-3.2648 -3.26667 0
-1.37792 -6.67267 0
-0.50848 -7.02196 0
-1.97481 -5.53517 0
2.62618 -9.56473 0
-5.5057 2.03627 0
-6.09222 3.07084 0
-6.1022 4.86743 0
-5.75917 3.98975 0
-5.75907 6.71461 0
-5.44962 5.61692 0
-4.92704 8.67054 0
-4.83663 7.40181 0
-3.50031 -0.424093 0
-4.44791 1.24868 0
-3.7102 0.591952 0
-4.06091 2.31914 0
-3.75917 9.24626 0
2.8617 -8.32967 0
0.419617 -6.79261 0
2.02128 -7.52266 0
1.3056 -6.90267 0
-2.4438 -0.873457 0
-2.83741 -2.13035 0
-2.29362 -4.09604 0
-2.32481 -2.97253 0
-0.442101 -5.85924 0
-1.22226 -4.49769 0
3.85952 -9.14735 0
-4.78836 3.39079 0
-5.08582 4.59232 0
-4.64512 6.27874 0
-4.5369 5.35747 0
-3.84232 7.99046 0
-3.82506 6.84284 0
-2.78228 8.41979 0
-1.64827 -0.137765 0
-1.4496 -0.890166 0
-2.48822 0.507196 0
-3.25249 1.44375 0
-3.23799 3.31562 0
-2.9099 2.37103 0
-1.35445 0.626944 0
-2.5262 9.66482 0
3.93145 -7.88409 0
2.96356 -7.15488 0
0.953904 -5.82004 0
2.07358 -6.41291 0
-1.68236 -1.99134 0
-1.43392 -3.27663 0
0.0903232 -4.74554 0
-0.565932 -3.69322 0
4.93062 -7.31607 0
5.02662 -8.57021 0
-3.77584 4.55033 0
-3.73327 5.74991 0
-2.88675 7.28684 0
-3.00845 6.35118 0
-1.66193 8.73053 0
-1.93927 7.61623 0
-2.33763 4.05053 0
-0.730376 -1.32668 0
-0.836462 -0.257451 0
-1.93545 1.68032 0
-2.12495 2.87496 0
-1.306 3.54355 0
-0.869012 1.35039 0
-0.282145 0.45588 0
-0.5333 8.86854 0
-1.24927 9.91945 0
1.11254 -4.5732 0
3.90888 -6.71465 0
2.98695 -6.09224 0
2.11735 -5.42312 0
4.78294 -6.20282 0
-0.558621 -2.47593 0
0.495074 -3.46268 0
0.0536282 -1.60983 0
1.48152 -3.68081 0
5.86566 -6.61224 0
6.10897 -7.84656 0
-2.47498 5.34701 0
-2.12963 6.53203 0
-0.903663 7.80013 0
-1.27179 6.92935 0
0.0862562 7.87719 0
-1.14403 4.49342 0
0.150338 -0.617438 0
-0.797028 2.48778 0
-0.331369 3.59958 0
0.0632343 1.51222 0
0.741293 0.473252 0
0.646596 8.8713 0
0.0499741 10.005 0
2.38041 -4.284 0
3.8581 -5.63832 0
3.0006 -5.2111 0
5.57231 -5.48983 0
4.68982 -5.28125 0
0.629571 -2.29258 0
1.25587 -2.95033 0
0.757237 -1.39095 0
2.16373 -3.13484 0
2.99293 -3.47545 0
6.15367 -4.79025 0
6.65514 -5.7675 0
7.08849 -6.98829 0
-1.01933 5.81882 0
-0.372389 6.88118 0
1.12225 7.76661 0
0.557843 7.07724 0
-0.000661717 4.72387 0
0.606934 3.8266 0
1.33854 -0.641697 0
0.539078 2.65026 0
0.965916 1.57438 0
1.90967 0.213755 0
1.61434 1.06461 0
2.12866 7.58083 0
1.79873 8.70982 0
1.34924 9.9188 0
3.82196 -4.35043 0
5.11535 -4.44768 0
5.84428 -3.93396 0
3.78308 -3.20018 0
1.81178 -1.88215 0
3.01836 -2.57324 0
6.78175 -3.94705 0
7.38043 -4.89659 0
7.9557 -6.01618 0
0.483284 5.88015 0
1.42779 6.73976 0
2.37355 6.66676 0
1.20974 4.55501 0
1.48784 3.39662 0
2.43512 -0.691812 0
2.8272 0.142498 0
1.78847 2.16217 0
2.61118 1.14972 0
3.07101 7.16765 0
2.90348 8.37466 0
2.6267 9.66612 0
4.91037 -3.32714 0
6.11932 -3.10801 0
4.17197 -2.2748 0
3.24365 -1.50263 0
6.72963 -2.31263 0
7.23013 -3.04195 0
7.96343 -3.91183 0
8.67399 -4.92928 0
2.02324 5.59867 0
3.08569 6.15178 0
2.36346 4.12597 0
2.41949 3.05998 0
3.52478 -0.460817 0
3.61477 0.613052 0
2.96109 2.28741 0
3.54467 1.52479 0
4.01113 5.89654 0
3.98352 6.79126 0
3.9726 7.93715 0
3.85978 9.24772 0
5.56802 -1.91588 0
4.50845 -1.12946 0
6.71249 -1.336 0
7.59061 -2.03626 0
8.3958 -2.8614 0
9.25153 -3.76142 0
3.4186 4.87626 0
3.3384 3.38469 0
4.69055 0.129977 0
4.51844 1.30966 0
4.06465 2.4433 0
4.56973 5.15152 0
4.84272 6.18951 0
4.97977 7.37938 0
5.02704 8.67065 0
5.8828 -0.434876 0
7.00955 -0.488223 0
7.75801 -1.08522 0
8.68354 -1.74594 0
9.66388 -2.52598 0
4.552 3.82715 0
5.8173 1.09846 0
5.37086 2.53467 0
5.3794 4.61992 0
5.61141 5.52269 0
5.89668 6.67125 0
6.10957 7.94703 0
6.8453 0.463501 0
7.8522 -0.0256422 0
8.85948 -0.584217 0
9.92045 -1.24928 0
6.9598 1.34933 0
5.72065 3.77804 0
6.54102 2.19728 0
6.37976 3.08764 0
6.29186 4.68643 0
6.69277 5.8375 0
7.08858 7.08854 0
7.78355 0.967584 0
8.85894 0.572776 0
10.0046 0.0499764 0
7.61568 2.00415 0
6.82884 3.90384 0
7.26917 2.94657 0
7.37822 4.88553 0
7.94817 6.11057 0
8.72265 1.72698 0
9.91846 1.34922 0
8.42095 2.83794 0
7.98181 3.91608 0
8.67029 5.02687 0
9.66576 2.62677 0
9.2531 3.86212 0
CELLS 542 2168
3 2 0 4
3 0 1 7
3 4 0 7
3 1 5 8
3 7 1 8
3 3 2 13
3 13 2 4
3 11 3 14
3 14 3 13
3 13 4 15
3 4 7 16
3 15 4 16
3 5 6 17
3 8 5 17
3 6 9 18
3 17 6 18
3 7 8 19
3 16 7 19
3 8 17 20
3 19 8 20
3 9 10 23
3 18 9 23
3 10 21 24
3 23 10 24
3 12 11 25
3 25 11 14
3 26 12 27
3 27 12 25
3 14 13 29
3 29 13 15
3 25 14 30
3 30 14 29
3 29 15 31
3 15 16 33
3 31 15 33
3 16 19 34
3 33 16 34
3 17 18 35
3 20 17 35
3 18 23 36
3 35 18 36
3 19 20 37
3 34 19 37
3 20 35 38
3 37 20 38
3 21 22 39
3 24 21 39
3 22 32 40
3 39 22 40
3 23 24 41
3 36 23 41
3 24 39 42
3 41 24 42
3 27 25 44
3 44 25 30
3 28 26 45
3 45 26 27
3 45 27 46
3 46 27 44
3 47 28 48
3 48 28 45
3 30 29 50
3 50 29 31
3 44 30 51
3 51 30 50
3 50 31 52
3 31 33 52
3 32 43 53
3 40 32 53
3 53 43 54
3 33 34 55
3 34 37 55
3 33 55 52
3 35 36 56
3 38 35 56
3 36 41 57
3 56 36 57
3 37 38 58
3 38 56 58
3 37 58 55
3 39 40 59
3 42 39 59
3 40 53 60
3 59 40 60
3 41 42 61
3 57 41 61
3 42 59 62
3 61 42 62
3 43 63 54
3 46 44 64
3 64 44 51
3 48 45 65
3 65 45 46
3 65 46 66
3 66 46 64
3 49 47 67
3 67 47 48
3 67 48 68
3 68 48 65
3 69 49 70
3 70 49 67
3 52 55 72
3 64 51 73
3 51 50 73
3 50 52 73
3 73 52 74
3 74 52 72
3 53 54 75
3 60 53 75
3 54 63 76
3 54 76 77
3 75 54 77
3 55 58 78
3 72 55 78
3 72 78 79
3 56 57 80
3 57 61 80
3 56 80 58
3 58 80 81
3 78 58 81
3 59 60 82
3 62 59 82
3 60 75 83
3 82 60 83
3 61 62 84
3 62 82 84
3 61 84 80
3 63 85 76
3 66 64 86
3 64 73 86
3 68 65 87
3 87 65 66
3 87 66 86
3 70 67 88
3 88 67 68
3 88 68 89
3 89 68 87
3 71 69 90
3 90 69 70
3 90 70 91
3 91 70 88
3 92 71 93
3 93 71 90
3 74 72 94
3 94 72 79
3 86 73 95
3 95 73 74
3 95 74 96
3 96 74 94
3 97 86 95
3 76 85 99
3 75 77 100
3 83 75 100
3 76 99 101
3 77 76 101
3 77 101 102
3 100 77 102
3 94 79 103
3 78 81 104
3 79 78 104
3 79 104 103
3 80 84 105
3 81 80 105
3 81 105 106
3 104 81 106
3 82 83 107
3 83 100 107
3 82 107 84
3 84 107 108
3 105 84 108
3 85 109 99
3 89 87 110
3 87 86 110
3 110 86 97
3 91 88 111
3 111 88 89
3 111 89 110
3 93 90 112
3 112 90 91
3 112 91 113
3 113 91 111
3 98 92 114
3 114 92 93
3 114 93 115
3 115 93 112
3 116 98 114
3 117 103 118
3 96 94 119
3 94 103 119
3 119 103 117
3 97 95 120
3 120 95 96
3 120 96 119
3 121 110 97
3 121 97 122
3 122 97 120
3 123 119 117
3 124 98 116
3 99 109 125
3 99 125 126
3 101 99 126
3 100 102 127
3 100 127 107
3 101 126 128
3 102 101 128
3 102 128 127
3 104 106 129
3 104 129 103
3 103 129 118
3 105 108 130
3 106 105 130
3 106 130 129
3 107 127 131
3 108 107 131
3 108 131 132
3 108 132 130
3 109 134 125
3 125 134 133
3 113 111 135
3 111 110 135
3 135 110 121
3 115 112 136
3 136 112 113
3 136 113 135
3 116 114 137
3 137 114 115
3 137 115 138
3 138 115 136
3 139 124 116
3 139 116 140
3 140 116 137
3 141 135 121
3 118 129 142
3 118 142 143
3 117 118 143
3 123 117 143
3 122 120 144
3 120 119 144
3 144 119 123
3 141 121 145
3 145 121 122
3 145 122 144
3 146 141 145
3 147 144 123
3 147 123 148
3 143 148 123
3 150 124 139
3 149 150 139
3 131 127 151
3 125 133 152
3 126 125 152
3 126 152 153
3 128 126 153
3 128 153 154
3 128 154 127
3 127 154 151
3 152 133 155
3 130 132 156
3 130 156 129
3 129 156 142
3 131 151 157
3 132 131 157
3 132 157 156
3 156 158 142
3 157 151 159
3 133 160 155
3 134 161 133
3 133 161 160
3 138 136 162
3 136 135 162
3 162 135 141
3 140 137 163
3 163 137 138
3 163 138 162
3 149 139 164
3 164 139 140
3 164 140 165
3 165 140 163
3 166 149 164
3 167 162 141
3 167 141 146
3 142 158 168
3 143 142 168
3 143 168 148
3 146 145 169
3 145 144 169
3 169 144 147
3 170 167 146
3 170 146 169
3 171 169 147
3 171 147 148
3 171 148 172
3 168 172 148
3 173 149 166
3 174 150 149
3 173 174 149
3 154 175 151
3 151 175 159
3 152 155 176
3 153 152 176
3 153 176 177
3 153 177 154
3 154 177 175
3 155 160 178
3 155 178 179
3 176 155 179
3 156 157 180
3 156 180 158
3 157 159 181
3 157 181 180
3 158 180 182
3 158 182 168
3 159 175 183
3 159 183 181
3 175 184 183
3 160 186 178
3 178 186 185
3 161 187 160
3 160 187 186
3 165 163 188
3 163 162 188
3 188 162 167
3 166 164 189
3 189 164 165
3 189 165 188
3 190 173 166
3 190 166 191
3 191 166 189
3 192 188 167
3 192 167 170
3 193 192 170
3 182 194 168
3 194 172 168
3 193 170 195
3 170 169 195
3 195 169 171
3 196 195 171
3 196 171 172
3 194 197 172
3 197 198 172
3 198 196 172
3 200 173 190
3 199 200 190
3 201 174 173
3 200 201 173
3 176 179 202
3 177 176 202
3 177 202 175
3 175 202 184
3 178 185 203
3 178 203 179
3 179 203 202
3 203 185 204
3 202 205 184
3 183 206 181
3 180 181 206
3 180 206 182
3 182 206 194
3 183 184 207
3 205 207 184
3 183 207 206
3 185 208 204
3 186 209 185
3 185 209 208
3 187 210 186
3 186 210 209
3 191 189 211
3 189 188 211
3 211 188 192
3 199 190 212
3 212 190 191
3 212 191 211
3 213 199 212
3 214 211 192
3 214 192 193
3 215 214 193
3 215 193 195
3 206 216 194
3 216 197 194
3 216 217 197
3 215 195 218
3 218 195 196
3 198 218 196
3 217 219 197
3 219 218 198
3 197 219 198
3 220 199 213
3 221 200 199
3 220 221 199
3 222 201 200
3 221 222 200
3 203 204 223
3 203 223 202
3 202 223 205
3 204 208 224
3 204 224 223
3 205 223 225
3 205 225 207
3 207 225 226
3 207 226 206
3 226 216 206
3 208 228 224
3 224 228 227
3 209 229 208
3 229 228 208
3 210 230 209
3 209 230 229
3 213 212 231
3 212 211 231
3 231 211 214
3 232 220 213
3 232 213 231
3 233 231 214
3 233 214 215
3 234 233 215
3 234 215 218
3 226 235 216
3 235 217 216
3 235 236 217
3 217 236 219
3 237 234 218
3 237 218 219
3 236 238 219
3 238 237 219
3 240 220 232
3 239 240 232
3 241 221 220
3 240 241 220
3 242 222 221
3 241 242 221
3 224 227 243
3 224 243 223
3 223 243 225
3 225 243 244
3 225 244 226
3 226 244 235
3 227 245 243
3 228 246 227
3 227 246 245
3 229 247 228
3 228 247 246
3 230 248 229
3 229 248 247
3 239 232 249
3 232 231 249
3 249 231 233
3 250 249 233
3 250 233 234
3 237 250 234
3 244 251 235
3 235 251 236
3 251 252 236
3 236 252 238
3 252 253 238
3 253 250 237
3 253 237 238
3 254 239 249
3 255 240 239
3 254 255 239
3 256 241 240
3 255 256 240
3 257 242 241
3 256 257 241
3 245 258 243
3 243 258 244
3 244 258 251
3 245 259 258
3 246 260 245
3 245 260 259
3 247 261 246
3 246 261 260
3 248 262 247
3 247 262 261
3 254 249 263
3 263 249 250
3 253 263 250
3 258 264 251
3 251 264 252
3 264 265 252
3 265 263 253
3 252 265 253
3 266 254 263
3 267 255 254
3 266 267 254
3 268 256 255
3 267 268 255
3 269 257 256
3 268 269 256
3 259 270 258
3 270 264 258
3 260 271 259
3 259 271 270
3 261 272 260
3 260 272 271
3 262 273 261
3 273 272 261
3 270 274 264
3 275 266 263
3 275 263 265
3 274 276 264
3 276 265 264
3 276 277 265
3 277 275 265
3 278 267 266
3 275 278 266
3 279 268 267
3 278 279 267
3 280 269 268
3 279 280 268
3 271 281 270
3 270 281 274
3 272 282 271
3 271 282 281
3 273 283 272
3 272 283 282
3 281 284 274
3 274 284 276
3 285 278 275
3 277 285 275
3 284 286 276
3 286 285 277
3 276 286 277
3 287 279 278
3 285 287 278
3 288 280 279
3 287 288 279
3 282 289 281
3 281 289 284
3 283 290 282
3 282 290 289
3 289 291 284
3 284 291 286
3 291 292 286
3 292 287 285
3 286 292 285
3 293 288 287
3 292 293 287
3 290 294 289
3 289 294 291
3 294 295 291
3 295 293 292
3 291 295 292
CELL_TYPES 542
5
5
5
5
5
5
5
5
5
5
5
5
5
5
5
5
5
5
5
5
5
5
5
5
5
5
5
5
5
5
5
5
5
5
5
5
5
5
5
5
5
5
5
5
5
5
5
5
5
5
5
5
5
5
5
5
5
5
5
5
5
5
5
5
5
5
5
5
5
5
5
5
5
5
5
5
5
5
5
5
5
5
5
5
5
5
5
5
5
5
5
5
5
5
5
5
5
5
5
5
5
5
5
5
5
5
5
5
5
5
5
5
5
5
5
5
5
5
5
5
5
5
5
5
5
5
5
5
5
5
5
5
5
5
5
5
5
5
5
5
5
5
5
5
5
5
5
5
5
5
5
5
5
5
5
5
5
5
5
5
5
5
5
5
5
5
5
5
5
5
5
5
5
5
5
5
5
5
5
5
5
5
5
5
5
5
5
5
5
5
5
5
5
5
5
5
5
5
5
5
5
5
5
5
5
5
5
5
5
5
5
5
5
5
5
5
5
5
5
5
5
5
5
5
5
5
5
5
5
5
5
5
5
5
5
5
5
5
5
5
5
5
5
5
5
5
5
5
5
5
5
5
5
5
5
5
5
5
5
5
5
5
5
5
5
5
5
5
5
5
5
5
5
5
5
5
5
5
5
5
5
5
5
5
5
5
5
5
5
5
5
5
5
5
5
5
5
5
5
5
5
5
5
5
5
5
5
5
5
5
5
5
5
5
5
5
5
5
5
5
5
5
5
5
5
5
5
5
5
5
5
5
5
5
5
5
5
5
5
5
5
5
5
5
5
5
5
5
5
5
5
5
5
5
5
5
5
5
5
5
5
5
5
5
5
5
5
5
5
5
5
5
5
5
5
5
5
5
5
5
5
5
5
5
5
5
5
5
5
5
5
5
5
5
5
5
5
5
5
5
5
5
5
5
5
5
5
5
5
5
5
5
5
5
5
5
5
5
5
5
5
5
5
5
5
5
5
5
5
5
5
5
5
5
5
5
5
5
5
5
5
5
5
5
5
5
5
5
5
5
5
5
5
5
5
5
5
5
5
5
5
5
5
5
5
5
5
5
5
5
5
5
5
5
5
5
5
5
5
5
5
5
5
5
5
5
5
5
5
5
5
5
5
5
5
5
5
5
5
5
5
5
5
5
5
5
5
5
5
5
5
5
5
5
5
5
5
5
5
5
5
5
5
5
5
5
5
5
5
5
5
5
5
5
5
5
5
5
5
5
5
5
POINT_DATA 296
SCALARS concentrations float 4
LOOKUP_TABLE default
0 0.98875 0.143617 8.4364
0 0.98874 0.14394 8.40358
0 0.988772 0.143811 8.36384
0 0.988798 0.143492 8.31446
0 0.989216 0.0935978 0.464607
0 0.988738 0.143175 8.37491
0 0.98874 0.143463 8.3089
0 0.989211 0.093576 0.47081
0 0.989189 0.0935769 0.474148
0 0.988741 0.14343 8.2892
0 0.988746 0.143561 8.32061
0 0.988818 0.142948 8.24497
0 0.988829 0.143321 8.2837
0 0.989248 0.0935541 0.452935
0 0.989255 0.0934831 0.45186
0 0.990186 0.0936604 0.472301
0 0.99015 0.0936353 0.472071
0 0.989196 0.0935475 0.461647
0 0.989191 0.0935207 0.447857
0 0.990146 0.0936342 0.476518
0 0.99012 0.0936181 0.473139
0 0.988758 0.144166 8.45313
0 0.988773 0.143155 8.56962
0 0.989206 0.0935157 0.452323
0 0.989203 0.0935397 0.485072
0 0.989268 0.0934715 0.469959
0 0.988833 0.142985 8.23026
0 0.989265 0.0934959 0.480539
0 0.98885 0.143115 8.18796
0 0.990183 0.0936475 0.473849
0 0.990189 0.0935621 0.472939
0 0.991041 0.0932842 0.41005
0 0.988793 0.143363 8.34519
0 0.991154 0.0931335 0.380246
0 0.990987 0.0933102 0.412706
0 0.990122 0.0936143 0.470257
0 0.990119 0.0936147 0.47145
0 0.991117 0.0931579 0.383744
0 0.990951 0.0933452 0.420455
0 0.989228 0.0936716 0.54487
0 0.98922 0.0937162 0.559838
0 0.990134 0.0936203 0.488074
0 0.990122 0.0936469 0.522552
0 0.988811 0.143103 8.25989
0 0.990175 0.0936161 0.50114
0 0.989308 0.093537 0.459993
0 0.990209 0.093677 0.530475
0 0.988964 0.138523 8.33471
0 0.989391 0.0937583 0.576065
0 0.988886 0.142674 8.10886
0 0.991168 0.0931541 0.391847
0 0.991012 0.0932916 0.427441
0 0.991785 0.092443 0.262735
0 0.989257 0.0936004 0.499785
0 0.989253 0.0935213 0.456818
0 0.99176 0.0924556 0.254804
0 0.991107 0.0931996 0.400934
0 0.990967 0.0933385 0.434273
0 0.991736 0.0924957 0.26258
0 0.990164 0.0936467 0.543852
0 0.990193 0.0936479 0.534773
0 0.991123 0.0932395 0.43888
0 0.990979 0.0933793 0.478114
0 0.988845 0.142498 8.16115
0 0.991167 0.0931145 0.414087
0 0.990274 0.0937155 0.616142
0 0.991033 0.0933121 0.505904
0 0.989413 0.0937199 0.566167
0 0.990313 0.0936596 0.591773
0 0.988888 0.142743 8.18783
0 0.989335 0.0934591 0.444642
0 0.988899 0.142813 8.19685
0 0.99227 0.0921546 0.207508
0 0.991795 0.0924374 0.269774
0 0.992308 0.0921561 0.217195
0 0.99021 0.0936224 0.488741
0 0.989312 0.0934538 0.434319
0 0.990205 0.0936052 0.469621
0 0.992258 0.0921587 0.198292
0 0.992705 0.0920275 0.182726
0 0.991745 0.0925131 0.28471
0 0.992247 0.0921934 0.208379
0 0.991154 0.0931292 0.433482
0 0.991014 0.0932341 0.44266
0 0.991774 0.0925146 0.308268
0 0.988891 0.142909 8.22005
0 0.99178 0.0923945 0.281105
0 0.991183 0.0931432 0.479257
0 0.990288 0.0936691 0.594734
0 0.991055 0.0933144 0.524178
0 0.989327 0.093418 0.456849
0 0.990232 0.0935982 0.51191
0 0.988904 0.14277 8.20108
0 0.989324 0.0934005 0.444559
0 0.992798 0.0919495 0.180653
0 0.992305 0.0921529 0.223727
0 0.992766 0.092004 0.199388
0 0.992323 0.0921224 0.220535
0 0.98891 0.14304 8.24741
0 0.989353 0.0934222 0.43338
0 0.991154 0.0931828 0.411391
0 0.990228 0.0934799 0.440903
0 0.991018 0.0933062 0.417866
0 0.993071 0.0917038 0.134954
0 0.992765 0.0919691 0.16827
0 0.992274 0.0922029 0.225111
0 0.992711 0.0920558 0.187893
0 0.991802 0.0925202 0.307685
0 0.992303 0.0921706 0.230052
0 0.988932 0.142559 8.21041
0 0.9918 0.0923994 0.286008
0 0.991189 0.0931677 0.457154
0 0.990207 0.0935702 0.481938
0 0.991029 0.0933405 0.450661
0 0.989348 0.0934154 0.439927
0 0.990242 0.0935583 0.469811
0 0.98935 0.0934338 0.460432
0 0.993318 0.0915529 0.121588
0 0.993318 0.0915492 0.112634
0 0.99311 0.0916627 0.146592
0 0.992847 0.0919367 0.194665
0 0.992324 0.0921122 0.2162
0 0.992795 0.092007 0.204755
0 0.993385 0.0914439 0.109516
0 0.988919 0.142853 8.26518
0 0.989391 0.0934169 0.440596
0 0.990293 0.0933987 0.431534
0 0.99181 0.0926339 0.307629
0 0.991156 0.0932162 0.400915
0 0.99309 0.091707 0.131157
0 0.992798 0.0919685 0.180768
0 0.992365 0.0921716 0.229618
0 0.992771 0.0919519 0.184541
0 0.989389 0.0934276 0.450577
0 0.988951 0.142853 8.22783
0 0.991824 0.0924111 0.268557
0 0.991206 0.0931704 0.404335
0 0.990256 0.0935654 0.478829
0 0.991084 0.0932995 0.430647
0 0.989351 0.0935571 0.518745
0 0.990258 0.093587 0.51465
0 0.992343 0.0921083 0.213263
0 0.993387 0.0914563 0.0993437
0 0.993492 0.0912706 0.0726262
0 0.993153 0.0916359 0.146102
0 0.992866 0.0919258 0.186143
0 0.992789 0.0920032 0.189094
0 0.993389 0.0914036 0.0952613
0 0.99353 0.0910989 0.0394688
0 0.989336 0.0935916 0.549252
0 0.988923 0.141728 8.36936
0 0.992367 0.0921995 0.228431
0 0.990312 0.0934339 0.446286
0 0.991129 0.0932918 0.417737
0 0.991898 0.0926479 0.304831
0 0.990283 0.0935396 0.474582
0 0.993132 0.0916853 0.136931
0 0.992874 0.0919174 0.180264
0 0.993405 0.091454 0.104051
0 0.99273 0.0921682 0.2258
0 0.989386 0.0934233 0.456851
0 0.988954 0.142833 8.22735
0 0.991849 0.0924035 0.27565
0 0.99124 0.093145 0.429432
0 0.990237 0.0936164 0.550837
0 0.991087 0.0933117 0.481027
0 0.990235 0.0936451 0.550366
0 0.992318 0.0921135 0.217123
0 0.993535 0.0910793 0.0424863
0 0.993159 0.0916111 0.117759
0 0.992832 0.0919422 0.165826
0 0.993418 0.0913378 0.0624557
0 0.993524 0.0911017 0.0230692
0 0.989346 0.0935076 0.506466
0 0.988921 0.141124 8.28528
0 0.992323 0.0922713 0.244233
0 0.991185 0.093173 0.406954
0 0.991803 0.092742 0.327409
0 0.990287 0.0935864 0.489379
0 0.991125 0.093191 0.417515
0 0.993236 0.0916056 0.130186
0 0.99308 0.0917984 0.162548
0 0.993427 0.0914087 0.0986657
0 0.992868 0.0920313 0.205118
0 0.99247 0.0923361 0.259958
0 0.990256 0.0935648 0.485305
0 0.989355 0.0933865 0.456578
0 0.98895 0.142243 8.16086
0 0.991836 0.0923995 0.304756
0 0.991232 0.0931372 0.458444
0 0.990233 0.093599 0.520038
0 0.991102 0.0932992 0.480155
0 0.992306 0.0921339 0.221178
0 0.992756 0.0920179 0.173186
0 0.993456 0.0913091 0.0772944
0 0.993144 0.0916213 0.0932987
0 0.99339 0.0914168 0.0628063
0 0.993406 0.0914273 0.0860169
0 0.99339 0.0914561 0.0781548
0 0.990247 0.0935877 0.514006
0 0.989349 0.0933932 0.472397
0 0.988919 0.142694 8.26742
0 0.991862 0.0925406 0.299584
0 0.991241 0.0931152 0.402361
0 0.99106 0.0933265 0.436888
0 0.992301 0.0923371 0.256658
0 0.99319 0.0916054 0.130381
0 0.992821 0.0920218 0.200815
0 0.990243 0.0935422 0.474894
0 0.989362 0.0934009 0.454537
0 0.988941 0.142403 8.16212
0 0.991819 0.0923755 0.302103
0 0.991232 0.0931248 0.443
0 0.991086 0.0933914 0.473093
0 0.992288 0.0921236 0.2112
0 0.992815 0.0919543 0.156609
0 0.993237 0.0916442 0.13053
0 0.993176 0.0917894 0.148266
0 0.993131 0.0916823 0.108402
0 0.993152 0.0917421 0.133355
0 0.990219 0.0936165 0.510415
0 0.989355 0.0933983 0.477423
0 0.988933 0.141609 8.18429
0 0.991817 0.0925381 0.291232
0 0.991216 0.0930835 0.395734
0 0.992381 0.0921862 0.221874
0 0.992906 0.09188 0.1685
0 0.991114 0.0932246 0.467419
0 0.990281 0.0936006 0.49233
0 0.989368 0.0934295 0.442441
0 0.988934 0.143289 8.24893
0 0.99183 0.0923735 0.284525
0 0.991242 0.093187 0.436728
0 0.9923 0.0921046 0.207928
0 0.992754 0.0920358 0.18257
0 0.992857 0.0919461 0.17405
0 0.992833 0.091999 0.183531
0 0.992832 0.0919933 0.18
0 0.992774 0.0920626 0.198617
0 0.991121 0.0933193 0.455875
0 0.990258 0.0936094 0.501931
0 0.989364 0.0933821 0.461569
0 0.988953 0.140268 8.10369
0 0.99183 0.0923959 0.267794
0 0.992399 0.0920699 0.195597
0 0.991242 0.0931057 0.469577
0 0.990351 0.0936754 0.59185
0 0.989407 0.0934474 0.428441
0 0.988938 0.143357 8.24053
0 0.99184 0.0923824 0.287493
0 0.992316 0.092127 0.221174
0 0.992387 0.092035 0.191446
0 0.99235 0.0920793 0.208339
0 0.992342 0.0921078 0.220025
0 0.991261 0.0931286 0.434003
0 0.990274 0.0935592 0.486379
0 0.989389 0.0933627 0.438862
0 0.988955 0.142345 8.1699
0 0.991853 0.0924036 0.287036
0 0.9911 0.0932941 0.533811
0 0.990366 0.0936312 0.605077
0 0.989486 0.0936407 0.561364
0 0.988973 0.142591 8.07628
0 0.991865 0.0924045 0.300082
0 0.99186 0.0923755 0.278904
0 0.991879 0.0923797 0.286976
0 0.991134 0.0932875 0.468206
0 0.990307 0.0935481 0.512885
0 0.989407 0.0933686 0.454247
0 0.988967 0.142784 8.21446
0 0.991236 0.0931298 0.471521
0 0.990359 0.093609 0.62861
0 0.989513 0.0937566 0.628785
0 0.989092 0.137568 8.30162
0 0.991103 0.0932915 0.465853
0 0.991282 0.093128 0.438405
0 0.991267 0.0931208 0.417478
0 0.991147 0.0932904 0.45582
0 0.990305 0.0935787 0.527083
0 0.989426 0.0934215 0.499257
0 0.988997 0.142457 8.21325
0 0.990288 0.0935852 0.540004
0 0.989431 0.0934802 0.489719
0 0.989008 0.141166 8.13574
0 0.990283 0.0935568 0.489844
0 0.990323 0.0935741 0.516074
0 0.990289 0.0935467 0.485869
0 0.989415 0.093391 0.497422
0 0.989025 0.139939 8.07867
0 0.989411 0.0933915 0.455029
0 0.988987 0.142695 8.19326
0 0.989407 0.0933459 0.43955
0 0.989426 0.0933395 0.45512
0 0.989015 0.141862 8.13689
0 0.988985 0.142714 8.18307
0 0.988996 0.142316 8.14915
VECTORS fa_u float
0.00780227 0.00320896 0
0.00728788 0.00418412 0
0.00808468 0.00214287 0
0.00823782 0.00112632 0
0.000440504 0.000147701 0
0.00665398 0.00508564 0
0.00587739 0.00587316 0
0.000424136 0.00020438 0
0.000397335 0.00025873 0
0.00505323 0.00657082 0
0.0041741 0.00719788 0
0.00824497 -2.07416e-06 0
0.00820432 -0.00114404 0
0.00044548 8.1838e-05 0
0.000451317 2.21353e-05 0
0.000457761 0.00011629 0
0.000441332 0.000167562 0
0.000349178 0.000301981 0
0.000288443 0.000342603 0
0.000414507 0.000235062 0
0.000375384 0.000288007 0
0.00325695 0.00780049 0
0.00221848 0.00827748 0
0.000230642 0.000389102 0
0.000191865 0.000445514 0
0.000467281 -5.01019e-05 0
0.00795046 -0.00212778 0
0.000462043 -0.000132038 0
0.0075933 -0.00306341 0
0.000472422 3.67384e-05 0
0.000472757 -1.31265e-05 0
0.000406561 5.33757e-05 0
0.00105321 0.00827847 0
0.000365968 0.000103217 0
0.000377842 0.000166018 0
0.000323367 0.000341432 0
0.000266594 0.000388835 0
0.000319561 0.000212463 0
0.00031031 0.000283708 0
0.000174 0.00051634 0
0.000120443 0.000546728 0
0.000204667 0.000443089 0
0.000172961 0.000493097 0
-2.50917e-05 0.00825985 0
0.00049183 -9.61463e-05 0
0.000409751 -0.000209039 0
0.000496463 -0.000186891 0
0.00721835 -0.00416688 0
0.000470662 -0.000332156 0
0.00639741 -0.00498265 0
0.000391835 -3.13884e-06 0
0.000425536 -4.0311e-05 0
0.000262335 1.44894e-05 0
6.31284e-05 0.000495782 0
6.54091e-06 0.000456771 0
0.000238928 8.85365e-05 0
0.000245449 0.000317022 0
0.000208926 0.000380714 0
0.000194927 0.000175931 0
0.000142472 0.000524858 0
0.000104756 0.000524412 0
0.000159268 0.000408962 0
0.00013665 0.00045817 0
-0.00107821 0.00808962 0
0.000401519 -0.000101247 0
0.000533005 -0.00030909 0
0.000459306 -0.000212077 0
0.000518759 -0.000226789 0
0.000517049 -0.000287846 0
0.00580254 -0.00577677 0
0.000376084 -0.000237207 0
0.00500519 -0.00649126 0
0.000205087 3.16026e-05 0
0.000266429 -4.23528e-05 0
0.000216621 -1.57861e-05 0
2.90618e-05 0.000487877 0
-5.51564e-05 0.000430802 0
-2.60649e-05 0.000468897 0
0.000173703 9.56406e-05 0
0.000173882 5.61591e-05 0
0.000141526 0.000247043 0
0.000137547 0.000156533 0
9.05549e-05 0.000423918 0
5.53316e-05 0.000439188 0
8.97346e-05 0.000294919 0
-0.00213129 0.00793894 0
0.000262187 -0.000101382 0
0.000423948 -0.000223506 0
0.000516472 -0.000294898 0
0.000450912 -0.000267285 0
0.000327102 -0.000318928 0
0.000405425 -0.000312541 0
0.00410311 -0.00710086 0
0.000247767 -0.000369113 0
0.000180331 1.07823e-05 0
0.000215773 -5.91258e-05 0
0.000196807 -3.19754e-05 0
0.00020002 -9.28852e-05 0
0.00317868 -0.00761024 0
-0.000126845 0.000414402 0
5.67598e-06 0.000411352 0
-0.000100215 0.000429363 0
-6.1176e-05 0.000413364 0
0.000128034 4.26593e-05 0
0.000132868 0.000103252 0
9.48906e-05 0.000204134 0
0.000106698 0.000154659 0
3.93739e-05 0.000305155 0
5.38665e-05 0.000223656 0
-0.00315279 0.00758094 0
0.000245454 -0.000146808 0
0.000374668 -0.000261943 0
0.000306618 -0.00037182 0
0.000318005 -0.000319324 0
0.000175343 -0.000403473 0
0.000227584 -0.000411008 0
0.000124732 -0.000443215 0
0.000120343 1.7357e-05 0
9.47213e-05 6.09444e-05 0
0.000145643 -1.66535e-05 0
0.00018431 -6.26441e-05 0
0.00017754 -0.000123377 0
0.000180602 -9.64743e-05 0
0.000107706 -1.9831e-05 0
0.0021958 -0.00796816 0
-0.000191559 0.000396774 0
-0.000159589 0.00040094 0
-3.23727e-05 0.000305921 0
-0.00012139 0.000382096 0
8.03308e-05 0.000103678 0
5.93337e-05 0.000170753 0
5.45855e-06 0.000229553 0
2.2504e-05 0.000183164 0
-0.000249445 0.000375229 0
-0.00413305 0.00711443 0
0.00019436 -0.00018533 0
0.000230232 -0.000332385 0
0.000155347 -0.000452929 0
0.000178457 -0.000391931 0
8.68528e-05 -0.000511423 0
0.000103457 -0.000504144 0
0.00014186 -0.000159238 0
4.60351e-05 8.80337e-05 0
6.5797e-05 3.07459e-05 0
0.000132907 -6.06759e-05 0
0.000148551 -0.000112168 0
0.000114669 -0.000150358 0
8.08037e-05 -5.04526e-05 0
3.74601e-05 -1.24309e-05 0
2.6264e-05 -0.000548624 0
0.00112976 -0.00829276 0
-5.34492e-05 0.00022209 0
-0.000223633 0.000386212 0
-0.000178866 0.000377507 0
-0.000102529 0.000287071 0
-0.000285358 0.000379209 0
2.30945e-05 0.000134969 0
-2.02622e-05 0.000179121 0
1.97005e-06 0.000104032 0
-7.73753e-05 0.000212129 0
-0.000301249 0.000343456 0
-0.0050165 0.00652104 0
0.000130892 -0.000242591 0
0.00012175 -0.000411812 0
5.37006e-05 -0.000548213 0
8.2699e-05 -0.000473865 0
1.40455e-05 -0.000550187 0
9.1536e-05 -0.000196885 0
-3.74706e-07 4.24847e-05 0
8.07754e-05 -8.56886e-05 0
6.42668e-05 -0.000152866 0
2.83792e-05 -5.56358e-05 0
-2.14538e-05 -8.48073e-06 0
-3.67706e-05 -0.000505129 0
-3.05713e-05 -0.00828523 0
-0.000124668 0.000210019 0
-0.000223253 0.000340249 0
-0.000174991 0.000276721 0
-0.000345788 0.000346298 0
-0.000270325 0.000318187 0
-2.77656e-05 0.000127191 0
-6.42437e-05 0.000149314 0
-4.66357e-05 8.69484e-05 0
-0.00011545 0.000169542 0
-0.000163394 0.00020219 0
-0.000368002 0.000316379 0
-0.000336002 0.000309137 0
-0.00574421 0.00579687 0
7.04015e-05 -0.000296513 0
4.53154e-05 -0.000456198 0
-4.79803e-05 -0.00051782 0
-7.23532e-06 -0.000480101 0
3.35108e-05 -0.000218625 0
1.11914e-07 -0.000173186 0
-6.21638e-05 4.59358e-05 0
6.2115e-06 -9.30917e-05 0
-2.24299e-05 -5.86645e-05 0
-8.59492e-05 3.41187e-06 0
-6.76293e-05 -3.91721e-05 0
-0.000118641 -0.000500127 0
-7.27652e-05 -0.000466759 0
-0.0011027 -0.00819356 0
-0.000195522 0.000226985 0
-0.000288927 0.000280028 0
-0.000343067 0.000270511 0
-0.000183904 0.000179032 0
-9.05571e-05 9.38005e-05 0
-0.000149369 0.000134222 0
-0.000409055 0.000241242 0
-0.000371839 0.000261419 0
-0.00647079 0.00497484 0
-1.74932e-06 -0.000302098 0
-5.95595e-05 -0.000438978 0
-0.000139246 -0.000452136 0
-4.00636e-05 -0.000207366 0
-5.92026e-05 -0.000144988 0
-0.000119199 5.3195e-05 0
-0.000148152 5.8294e-06 0
-7.21837e-05 -8.08736e-05 0
-0.000125588 -4.48483e-05 0
-0.000181129 -0.000477196 0
-0.000131901 -0.000458841 0
-0.00209919 -0.0079105 0
-0.000223005 0.00018731 0
-0.000347669 0.000189029 0
-0.000186615 0.000120013 0
-0.00015011 7.65457e-05 0
-0.000453429 0.0001135 0
-0.000467429 0.000154593 0
-0.000409075 0.000168559 0
-0.00716827 0.00408176 0
-8.97374e-05 -0.000270003 0
-0.000187477 -0.000394442 0
-0.000109296 -0.000176886 0
-0.000121754 -0.000136044 0
-0.000171044 3.22079e-05 0
-0.000182436 -2.00223e-05 0
-0.000152326 -9.59009e-05 0
-0.000187693 -6.49627e-05 0
-0.000265005 -0.000370937 0
-0.000234519 -0.000443775 0
-0.000194635 -0.000418525 0
-0.00311626 -0.00748055 0
-0.000247077 0.000103279 0
-0.000185901 6.08199e-05 0
-0.000464988 6.54896e-05 0
-0.000588917 5.88464e-05 0
-0.00042342 6.53979e-05 0
-0.0076266 0.00312111 0
-0.000184055 -0.000220853 0
-0.000169619 -0.000141941 0
-0.000191444 8.3011e-07 0
-0.000201003 -5.47956e-05 0
-0.000195165 -0.000101595 0
-0.000309357 -0.000304395 0
-0.000312435 -0.000372759 0
-0.00024705 -0.00036272 0
-0.00412037 -0.00705477 0
-0.000285237 3.20851e-05 0
-0.000531918 4.49183e-05 0
-0.000602279 5.81208e-05 0
-0.000561339 5.30315e-06 0
-0.0077839 0.00215342 0
-0.000243121 -0.0001759 0
-0.000275397 -4.40852e-05 0
-0.00026039 -0.000120632 0
-0.000365886 -0.000292139 0
-0.000379158 -0.000345383 0
-0.000306199 -0.000335534 0
-0.00500399 -0.0065144 0
-0.000471428 9.37739e-06 0
-0.000623713 7.8312e-05 0
-0.000612426 0.000142494 0
-0.00822278 0.00114136 0
-0.000462184 -5.83542e-05 0
-0.000367064 -0.000239715 0
-0.000394536 -0.00013649 0
-0.000402883 -0.000213207 0