# vtk DataFile Version 2.0
CellBP Time: 3.6
ASCII
DATASET UNSTRUCTURED_GRID
POINTS 296 double
-9.01935 -3.70701 0
-8.45086 -4.85839 0
-9.43131 -2.49094 0
-9.68146 -1.23028 0
-8.34194 -2.81315 0
-7.73841 -5.92677 0
-6.89159 -6.89191 0
-7.90244 -3.86738 0
-7.32896 -4.85862 0
-5.92743 -7.74023 0
-4.85832 -8.45161 0
-9.78168 0.0498778 0
-9.68193 1.33014 0
-8.64167 -1.68042 0
-8.77163 -0.527679 0
-7.57414 -1.99956 0
-7.21081 -2.90027 0
-6.62538 -5.76826 0
-5.81163 -6.58492 0
-6.77636 -3.88061 0
-6.20788 -4.66604 0
-3.70655 -9.01923 0
-2.49072 -9.43219 0
-4.89745 -7.29551 0
-3.90561 -7.87178 0
-8.77814 0.641374 0
-9.43232 2.59108 0
-8.60767 1.77063 0
-9.02137 3.80773 0
-7.72866 -0.927005 0
-7.77929 0.0803111 0
-6.93885 -1.31321 0
-1.23134 -9.68289 0
-6.42898 -2.14866 0
-6.3065 -3.0498 0
-5.52525 -5.46319 0
-4.78603 -6.10286 0
-5.64791 -3.74932 0
-5.25848 -4.55193 0
-2.8605 -8.34842 0
-1.77491 -8.6238 0
-3.92012 -6.70969 0
-3.05002 -7.13795 0
0.049925 -9.76773 0
-7.69005 1.14117 0
-8.32349 2.91017 0
-7.53623 2.10776 0
-8.45306 4.9593 0
-7.86595 3.97112 0
-7.73889 6.02677 0
-6.76556 -0.396227 0
-6.94263 0.551751 0
-5.76233 -1.00179 0
-0.589508 -8.79316 0
0.564884 -8.75471 0
-5.29461 -2.47629 0
-4.48291 -5.08542 0
-3.89437 -5.76332 0
-4.43153 -3.79846 0
-2.05782 -7.54651 0
-1.133 -7.76992 0
-2.98815 -6.08971 0
-2.30387 -6.60603 0
1.33131 -9.68406 0
-6.6766 1.41962 0
-7.15746 3.11167 0
-6.64588 2.36822 0
-7.28182 4.97987 0
-6.70447 3.99516 0
-6.89246 6.99271 0
-6.56091 5.88384 0
-5.92684 7.83938 0
-4.44581 -1.1789 0
-5.80544 0.512968 0
-4.64856 -0.0100665 0
0.008337 -7.83204 0
1.73597 -8.62829 0
0.947098 -7.74757 0
-4.03197 -2.40231 0
-3.47922 -1.3884 0
-3.28874 -4.79745 0
-3.26032 -3.2621 0
-1.37566 -6.66249 0
-0.507811 -7.01112 0
-1.97191 -5.52792 0
2.59082 -9.4331 0
-5.49881 2.03383 0
-6.08293 3.06615 0
-6.09267 4.85984 0
-5.74998 3.98359 0
-5.75127 6.70551 0
-5.44102 5.60818 0
-4.85909 8.553 0
-4.83001 7.39187 0
-3.49518 -0.423125 0
-4.44186 1.24727 0
-3.70473 0.591495 0
-4.05551 2.31631 0
-3.70692 9.1204 0
2.85801 -8.31818 0
0.41896 -6.78191 0
2.0182 -7.51119 0
1.30334 -6.89162 0
-2.44008 -0.871846 0
-2.83324 -2.12698 0
-2.29034 -4.09048 0
-2.32126 -2.96795 0
-0.441204 -5.85144 0
-1.22043 -4.49164 0
3.80726 -9.02156 0
-4.78235 3.38661 0
-5.07791 4.58528 0
-4.63776 6.26896 0
-4.52947 5.34878 0
-3.83703 7.97967 0
-3.8189 6.83233 0
-2.77841 8.40842 0
-1.64502 -0.13713 0
-1.4469 -0.88828 0
-2.48437 0.506948 0
-3.24758 1.44201 0
-3.23359 3.31147 0
-2.90536 2.36783 0
-1.35176 0.626253 0
-2.49087 9.53336 0
3.92626 -7.87324 0
2.95933 -7.14415 0
0.952725 -5.81171 0
2.07014 -6.40255 0
-1.67978 -1.98815 0
-1.43181 -3.27167 0
0.0904373 -4.73918 0
-0.565072 -3.68795 0
4.92399 -7.30599 0
4.95837 -8.45246 0
-3.77111 4.54467 0
-3.72736 5.74098 0
-2.88214 7.27559 0
-3.00351 6.34112 0
-1.65967 8.71877 0
-1.93612 7.60458 0
-2.3345 4.04537 0
-0.72903 -1.32415 0
-0.834767 -0.256634 0
-1.93231 1.67825 0
-2.12162 2.87098 0
-1.30378 3.53838 0
-0.867279 1.34845 0
-0.281424 0.455182 0
-0.532587 8.85663 0
-1.23132 9.78408 0
1.11102 -4.56687 0
3.90325 -6.70444 0
2.98234 -6.08198 0
2.11456 -5.4151 0
4.77577 -6.19309 0
-0.557802 -2.47196 0
0.494522 -3.4575 0
0.0536365 -1.60691 0
1.47933 -3.67479 0
5.85768 -6.60325 0
6.02673 -7.73953 0
-2.47198 5.34033 0
-2.1263 6.5221 0
-0.902216 7.78812 0
-1.26968 6.91846 0
0.086205 7.86495 0
-1.14243 4.48751 0
0.15012 -0.616424 0
-0.795532 2.4844 0
-0.330499 3.59425 0
0.0634948 1.50989 0
0.740298 0.472524 0
0.645724 8.85946 0
0.0500777 9.86878 0
2.37702 -4.27807 0
3.85248 -5.62926 0
2.99603 -5.20347 0
5.56346 -5.48129 0
4.68283 -5.27312 0
0.628697 -2.28896 0
1.25395 -2.94605 0
0.755724 -1.38861 0
2.16036 -3.13015 0
2.98825 -3.47003 0
6.14419 -4.78258 0
6.64634 -5.75958 0
6.99312 -6.8921 0
-1.01813 5.81161 0
-0.371696 6.87083 0
1.12042 7.75456 0
0.556968 7.0662 0
-0.000537289 4.71758 0
0.606264 3.82081 0
1.33644 -0.640702 0
0.538625 2.64642 0
0.96477 1.57179 0
1.90676 0.213302 0
1.61194 1.0627 0
2.12527 7.5691 0
1.79627 8.69825 0
1.33159 9.78376 0
3.81665 -4.3445 0
5.10749 -4.4408 0
5.83503 -3.92735 0
3.77758 -3.19561 0
1.8089 -1.87969 0
3.01377 -2.56977 0
6.77141 -3.94073 0
7.37076 -4.88969 0
7.84843 -5.93362 0
0.482598 5.87293 0
1.42565 6.72955 0
2.36959 6.65587 0
1.20819 4.54893 0
1.48582 3.39146 0
2.43125 -0.690691 0
2.82243 0.142102 0
1.786 2.15878 0
2.60715 1.14766 0
3.06611 7.15634 0
2.89955 8.36384 0
2.59174 9.53503 0
4.90383 -3.32257 0
6.11019 -3.10314 0
4.16615 -2.2719 0
3.23883 -1.50084 0
6.71941 -2.30898 0
7.21891 -3.03683 0
7.95274 -3.90624 0
8.55619 -4.86165 0
2.02074 5.59183 0
3.08097 6.14212 0
2.36051 4.12054 0
2.41601 3.05519 0
3.51929 -0.460346 0
3.60909 0.611959 0
2.95665 2.28379 0
3.53913 1.52231 0
4.00474 5.88721 0
3.97756 6.78047 0
3.96752 7.92682 0
3.80806 9.12308 0
5.56106 -1.91331 0
4.50257 -1.12811 0
6.70233 -1.33407 0
7.57873 -2.03309 0
8.38445 -2.85728 0
9.12555 -3.70957 0
3.41433 4.87032 0
3.33404 3.38018 0
4.68468 0.129699 0
4.51265 1.30783 0
4.05939 2.44004 0
4.56268 5.14375 0
4.83519 6.17994 0
4.97319 7.36959 0
4.95896 8.55304 0
5.87534 -0.434192 0
6.99855 -0.487434 0
7.74621 -1.08349 0
8.67204 -1.74333 0
9.53222 -2.49103 0
4.54628 3.82242 0
5.81007 1.09714 0
5.36422 2.53154 0
5.37091 4.61268 0
5.60289 5.51422 0
5.88883 6.66245 0
6.02669 7.83914 0
6.83485 0.462887 0
7.8404 -0.0257183 0
8.84789 -0.58336 0
9.78564 -1.23147 0
6.94878 1.34721 0
5.71186 3.77224 0
6.53102 2.19387 0
6.36967 3.08267 0
6.28204 4.67921 0
6.68389 5.83007 0
6.99253 6.99242 0
7.77154 0.966079 0
8.84719 0.57207 0
9.86885 0.0499221 0
7.6039 2.0009 0
6.81831 3.89769 0
7.25785 2.942 0
7.36856 4.87921 0
7.84137 6.0287 0
8.71104 1.72477 0
9.78377 1.33154 0
8.40979 2.83422 0
7.97132 3.91096 0
8.55324 4.95898 0
9.53431 2.59206 0
9.12813 3.81035 0
CELLS 542 2168
3 2 0 4
3 0 1 7
3 4 0 7
3 1 5 8
3 7 1 8
3 3 2 13
3 13 2 4
3 11 3 14
3 14 3 13
3 13 4 15
3 4 7 16
3 15 4 16
3 5 6 17
3 8 5 17
3 6 9 18
3 17 6 18
3 7 8 19
3 16 7 19
3 8 17 20
3 19 8 20
3 9 10 23
3 18 9 23
3 10 21 24
3 23 10 24
3 12 11 25
3 25 11 14
3 26 12 27
3 27 12 25
3 14 13 29
3 29 13 15
3 25 14 30
3 30 14 29
3 29 15 31
3 15 16 33
3 31 15 33
3 16 19 34
3 33 16 34
3 17 18 35
3 20 17 35
3 18 23 36
3 35 18 36
3 19 20 37
3 34 19 37
3 20 35 38
3 37 20 38
3 21 22 39
3 24 21 39
3 22 32 40
3 39 22 40
3 23 24 41
3 36 23 41
3 24 39 42
3 41 24 42
3 27 25 44
3 44 25 30
3 28 26 45
3 45 26 27
3 45 27 46
3 46 27 44
3 47 28 48
3 48 28 45
3 30 29 50
3 50 29 31
3 44 30 51
3 51 30 50
3 50 31 52
3 31 33 52
3 32 43 53
3 40 32 53
3 53 43 54
3 33 34 55
3 34 37 55
3 33 55 52
3 35 36 56
3 38 35 56
3 36 41 57
3 56 36 57
3 37 38 58
3 38 56 58
3 37 58 55
3 39 40 59
3 42 39 59
3 40 53 60
3 59 40 60
3 41 42 61
3 57 41 61
3 42 59 62
3 61 42 62
3 43 63 54
3 46 44 64
3 64 44 51
3 48 45 65
3 65 45 46
3 65 46 66
3 66 46 64
3 49 47 67
3 67 47 48
3 67 48 68
3 68 48 65
3 69 49 70
3 70 49 67
3 52 55 72
3 64 51 73
3 51 50 73
3 50 52 73
3 73 52 74
3 74 52 72
3 53 54 75
3 60 53 75
3 54 63 76
3 54 76 77
3 75 54 77
3 55 58 78
3 72 55 78
3 72 78 79
3 56 57 80
3 57 61 80
3 56 80 58
3 58 80 81
3 78 58 81
3 59 60 82
3 62 59 82
3 60 75 83
3 82 60 83
3 61 62 84
3 62 82 84
3 61 84 80
3 63 85 76
3 66 64 86
3 64 73 86
3 68 65 87
3 87 65 66
3 87 66 86
3 70 67 88
3 88 67 68
3 88 68 89
3 89 68 87
3 71 69 90
3 90 69 70
3 90 70 91
3 91 70 88
3 92 71 93
3 93 71 90
3 74 72 94
3 94 72 79
3 86 73 95
3 95 73 74
3 95 74 96
3 96 74 94
3 97 86 95
3 76 85 99
3 75 77 100
3 83 75 100
3 76 99 101
3 77 76 101
3 77 101 102
3 100 77 102
3 94 79 103
3 78 81 104
3 79 78 104
3 79 104 103
3 80 84 105
3 81 80 105
3 81 105 106
3 104 81 106
3 82 83 107
3 83 100 107
3 82 107 84
3 84 107 108
3 105 84 108
3 85 109 99
3 89 87 110
3 87 86 110
3 110 86 97
3 91 88 111
3 111 88 89
3 111 89 110
3 93 90 112
3 112 90 91
3 112 91 113
3 113 91 111
3 98 92 114
3 114 92 93
3 114 93 115
3 115 93 112
3 116 98 114
3 117 103 118
3 96 94 119
3 94 103 119
3 119 103 117
3 97 95 120
3 120 95 96
3 120 96 119
3 121 110 97
3 121 97 122
3 122 97 120
3 123 119 117
3 124 98 116
3 99 109 125
3 99 125 126
3 101 99 126
3 100 102 127
3 100 127 107
3 101 126 128
3 102 101 128
3 102 128 127
3 104 106 129
3 104 129 103
3 103 129 118
3 105 108 130
3 106 105 130
3 106 130 129
3 107 127 131
3 108 107 131
3 108 131 132
3 108 132 130
3 109 134 125
3 125 134 133
3 113 111 135
3 111 110 135
3 135 110 121
3 115 112 136
3 136 112 113
3 136 113 135
3 116 114 137
3 137 114 115
3 137 115 138
3 138 115 136
3 139 124 116
3 139 116 140
3 140 116 137
3 141 135 121
3 118 129 142
3 118 142 143
3 117 118 143
3 123 117 143
3 122 120 144
3 120 119 144
3 144 119 123
3 141 121 145
3 145 121 122
3 145 122 144
3 146 141 145
3 147 144 123
3 147 123 148
3 143 148 123
3 150 124 139
3 149 150 139
3 131 127 151
3 125 133 152
3 126 125 152
3 126 152 153
3 128 126 153
3 128 153 154
3 128 154 127
3 127 154 151
3 152 133 155
3 130 132 156
3 130 156 129
3 129 156 142
3 131 151 157
3 132 131 157
3 132 157 156
3 156 158 142
3 157 151 159
3 133 160 155
3 134 161 133
3 133 161 160
3 138 136 162
3 136 135 162
3 162 135 141
3 140 137 163
3 163 137 138
3 163 138 162
3 149 139 164
3 164 139 140
3 164 140 165
3 165 140 163
3 166 149 164
3 167 162 141
3 167 141 146
3 142 158 168
3 143 142 168
3 143 168 148
3 146 145 169
3 145 144 169
3 169 144 147
3 170 167 146
3 170 146 169
3 171 169 147
3 171 147 148
3 171 148 172
3 168 172 148
3 173 149 166
3 174 150 149
3 173 174 149
3 154 175 151
3 151 175 159
3 152 155 176
3 153 152 176
3 153 176 177
3 153 177 154
3 154 177 175
3 155 160 178
3 155 178 179
3 176 155 179
3 156 157 180
3 156 180 158
3 157 159 181
3 157 181 180
3 158 180 182
3 158 182 168
3 159 175 183
3 159 183 181
3 175 184 183
3 160 186 178
3 178 186 185
3 161 187 160
3 160 187 186
3 165 163 188
3 163 162 188
3 188 162 167
3 166 164 189
3 189 164 165
3 189 165 188
3 190 173 166
3 190 166 191
3 191 166 189
3 192 188 167
3 192 167 170
3 193 192 170
3 182 194 168
3 194 172 168
3 193 170 195
3 170 169 195
3 195 169 171
3 196 195 171
3 196 171 172
3 194 197 172
3 197 198 172
3 198 196 172
3 200 173 190
3 199 200 190
3 201 174 173
3 200 201 173
3 176 179 202
3 177 176 202
3 177 202 175
3 175 202 184
3 178 185 203
3 178 203 179
3 179 203 202
3 203 185 204
3 202 205 184
3 183 206 181
3 180 181 206
3 180 206 182
3 182 206 194
3 183 184 207
3 205 207 184
3 183 207 206
3 185 208 204
3 186 209 185
3 185 209 208
3 187 210 186
3 186 210 209
3 191 189 211
3 189 188 211
3 211 188 192
3 199 190 212
3 212 190 191
3 212 191 211
3 213 199 212
3 214 211 192
3 214 192 193
3 215 214 193
3 215 193 195
3 206 216 194
3 216 197 194
3 216 217 197
3 215 195 218
3 218 195 196
3 198 218 196
3 217 219 197
3 219 218 198
3 197 219 198
3 220 199 213
3 221 200 199
3 220 221 199
3 222 201 200
3 221 222 200
3 203 204 223
3 203 223 202
3 202 223 205
3 204 208 224
3 204 224 223
3 205 223 225
3 205 225 207
3 207 225 226
3 207 226 206
3 226 216 206
3 208 228 224
3 224 228 227
3 209 229 208
3 229 228 208
3 210 230 209
3 209 230 229
3 213 212 231
3 212 211 231
3 231 211 214
3 232 220 213
3 232 213 231
3 233 231 214
3 233 214 215
3 234 233 215
3 234 215 218
3 226 235 216
3 235 217 216
3 235 236 217
3 217 236 219
3 237 234 218
3 237 218 219
3 236 238 219
3 238 237 219
3 240 220 232
3 239 240 232
3 241 221 220
3 240 241 220
3 242 222 221
3 241 242 221
3 224 227 243
3 224 243 223
3 223 243 225
3 225 243 244
3 225 244 226
3 226 244 235
3 227 245 243
3 228 246 227
3 227 246 245
3 229 247 228
3 228 247 246
3 230 248 229
3 229 248 247
3 239 232 249
3 232 231 249
3 249 231 233
3 250 249 233
3 250 233 234
3 237 250 234
3 244 251 235
3 235 251 236
3 251 252 236
3 236 252 238
3 252 253 238
3 253 250 237
3 253 237 238
3 254 239 249
3 255 240 239
3 254 255 239
3 256 241 240
3 255 256 240
3 257 242 241
3 256 257 241
3 245 258 243
3 243 258 244
3 244 258 251
3 245 259 258
3 246 260 245
3 245 260 259
3 247 261 246
3 246 261 260
3 248 262 247
3 247 262 261
3 254 249 263
3 263 249 250
3 253 263 250
3 258 264 251
3 251 264 252
3 264 265 252
3 265 263 253
3 252 265 253
3 266 254 263
3 267 255 254
3 266 267 254
3 268 256 255
3 267 268 255
3 269 257 256
3 268 269 256
3 259 270 258
3 270 264 258
3 260 271 259
3 259 271 270
3 261 272 260
3 260 272 271
3 262 273 261
3 273 272 261
3 270 274 264
3 275 266 263
3 275 263 265
3 274 276 264
3 276 265 264
3 276 277 265
3 277 275 265
3 278 267 266
3 275 278 266
3 279 268 267
3 278 279 267
3 280 269 268
3 279 280 268
3 271 281 270
3 270 281 274
3 272 282 271
3 271 282 281
3 273 283 272
3 272 283 282
3 281 284 274
3 274 284 276
3 285 278 275
3 277 285 275
3 284 286 276
3 286 285 277
3 276 286 277
3 287 279 278
3 285 287 278
3 288 280 279
3 287 288 279
3 282 289 281
3 281 289 284
3 283 290 282
3 282 290 289
3 289 291 284
3 284 291 286
3 291 292 286
3 292 287 285
3 286 292 285
3 293 288 287
3 292 293 287
3 290 294 289
3 289 294 291
3 294 295 291
3 295 293 292
3 291 295 292
CELL_TYPES 542
5
5
5
5
5
5
5
5
5
5
5
5
5
5
5
5
5
5
5
5
5
5
5
5
5
5
5
5
5
5
5
5
5
5
5
5
5
5
5
5
5
5
5
5
5
5
5
5
5
5
5
5
5
5
5
5
5
5
5
5
5
5
5
5
5
5
5
5
5
5
5
5
5
5
5
5
5
5
5
5
5
5
5
5
5
5
5
5
5
5
5
5
5
5
5
5
5
5
5
5
5
5
5
5
5
5
5
5
5
5
5
5
5
5
5
5
5
5
5
5
5
5
5
5
5
5
5
5
5
5
5
5
5
5
5
5
5
5
5
5
5
5
5
5
5
5
5
5
5
5
5
5
5
5
5
5
5
5
5
5
5
5
5
5
5
5
5
5
5
5
5
5
5
5
5
5
5
5
5
5
5
5
5
5
5
5
5
5
5
5
5
5
5
5
5
5
5
5
5
5
5
5
5
5
5
5
5
5
5
5
5
5
5
5
5
5
5
5
5
5
5
5
5
5
5
5
5
5
5
5
5
5
5
5
5
5
5
5
5
5
5
5
5
5
5
5
5
5
5
5
5
5
5
5
5
5
5
5
5
5
5
5
5
5
5
5
5
5
5
5
5
5
5
5
5
5
5
5
5
5
5
5
5
5
5
5
5
5
5
5
5
5
5
5
5
5
5
5
5
5
5
5
5
5
5
5
5
5
5
5
5
5
5
5
5
5
5
5
5
5
5
5
5
5
5
5
5
5
5
5
5
5
5
5
5
5
5
5
5
5
5
5
5
5
5
5
5
5
5
5
5
5
5
5
5
5
5
5
5
5
5
5
5
5
5
5
5
5
5
5
5
5
5
5
5
5
5
5
5
5
5
5
5
5
5
5
5
5
5
5
5
5
5
5
5
5
5
5
5
5
5
5
5
5
5
5
5
5
5
5
5
5
5
5
5
5
5
5
5
5
5
5
5
5
5
5
5
5
5
5
5
5
5
5
5
5
5
5
5
5
5
5
5
5
5
5
5
5
5
5
5
5
5
5
5
5
5
5
5
5
5
5
5
5
5
5
5
5
5
5
5
5
5
5
5
5
5
5
5
5
5
5
5
5
5
5
5
5
5
5
5
5
5
5
5
5
5
5
5
5
5
5
5
5
5
5
5
5
5
5
5
5
5
5
5
5
5
5
5
5
5
5
5
5
5
5
5
5
5
5
5
5
5
5
5
5
5
5
5
5
5
5
POINT_DATA 296
SCALARS concentrations float 4
LOOKUP_TABLE default
0 0.962175 0.160612 9.12368
0 0.962169 0.160376 9.10224
0 0.962224 0.160274 9.10074
0 0.962112 0.159919 9.08567
0 0.962606 0.0935268 0.44253
0 0.962203 0.160039 9.0796
0 0.962078 0.159944 9.08525
0 0.962595 0.0935166 0.429189
0 0.962593 0.0935137 0.441411
0 0.961545 0.14799 7.87019
0 0.962051 0.160053 9.09245
0 0.961623 0.147353 7.79868
0 0.962121 0.159506 9.04143
0 0.962666 0.0934771 0.467961
0 0.962425 0.0934091 0.433788
0 0.963387 0.0933601 0.431231
0 0.963347 0.0933544 0.417153
0 0.962638 0.0934484 0.465796
0 0.962382 0.0934467 0.443309
0 0.96335 0.0933562 0.417233
0 0.963352 0.0933258 0.428394
0 0.962177 0.160725 9.15015
0 0.96212 0.16127 9.19447
0 0.96238 0.0934327 0.439157
0 0.962618 0.093445 0.465188
0 0.962433 0.0933963 0.439022
0 0.96222 0.158825 8.93489
0 0.962646 0.0934291 0.470072
0 0.962133 0.158999 8.89457
0 0.963409 0.0933393 0.437668
0 0.963431 0.0932313 0.429319
0 0.964091 0.0930649 0.398796
0 0.962109 0.159401 8.98534
0 0.964156 0.0929379 0.368043
0 0.964016 0.0930985 0.382313
0 0.963375 0.093305 0.434194
0 0.963375 0.0932704 0.438808
0 0.964138 0.0929673 0.373813
0 0.964038 0.0931207 0.40816
0 0.962578 0.0935213 0.444783
0 0.962521 0.0935978 0.452721
0 0.963371 0.0933088 0.434036
0 0.963327 0.0933267 0.428984
0 0.962116 0.158794 8.92108
0 0.963404 0.0933195 0.434758
0 0.962589 0.0934817 0.414944
0 0.963367 0.0934012 0.43265
0 0.962135 0.155135 9.12544
0 0.962553 0.0935317 0.418349
0 0.962108 0.158143 8.78838
0 0.964214 0.0929311 0.387849
0 0.964103 0.0930527 0.402102
0 0.96467 0.0923128 0.281131
0 0.962525 0.0935644 0.452929
0 0.962511 0.093502 0.443163
0 0.964634 0.0923335 0.259203
0 0.964173 0.0929738 0.397159
0 0.964057 0.0930864 0.412017
0 0.964646 0.0923728 0.285841
0 0.96332 0.0933607 0.420586
0 0.963297 0.0933788 0.421712
0 0.964159 0.0930243 0.396286
0 0.964 0.0931599 0.40046
0 0.962135 0.157866 8.82421
0 0.964202 0.0929387 0.371015
0 0.963319 0.0933905 0.409087
0 0.964032 0.0931119 0.370194
0 0.962541 0.0935283 0.425288
0 0.963303 0.093348 0.39942
0 0.962137 0.158087 8.83248
0 0.962519 0.0934393 0.415195
0 0.962158 0.158105 8.85647
0 0.965037 0.0920545 0.208585
0 0.964702 0.0923153 0.283387
0 0.96508 0.0920575 0.220669
0 0.963293 0.0933829 0.423673
0 0.962554 0.0934267 0.430195
0 0.963288 0.0933721 0.420935
0 0.965038 0.0920668 0.206804
0 0.965397 0.0919479 0.174144
0 0.964663 0.0923781 0.298567
0 0.965048 0.092101 0.223231
0 0.9641 0.092963 0.360309
0 0.963958 0.093061 0.369973
0 0.96464 0.092405 0.279965
0 0.962159 0.158381 8.88524
0 0.964663 0.0923147 0.236713
0 0.964111 0.0929766 0.333309
0 0.963274 0.093384 0.411394
0 0.96397 0.0931272 0.357587
0 0.962544 0.0934105 0.433999
0 0.963281 0.0933833 0.415602
0 0.962164 0.157041 8.9091
0 0.962557 0.0934079 0.425309
0 0.965471 0.0918722 0.164622
0 0.965082 0.0920794 0.213182
0 0.965445 0.0919299 0.183956
0 0.965085 0.0920739 0.196191
0 0.962168 0.158462 8.8893
0 0.962571 0.0933918 0.433617
0 0.964076 0.0930298 0.364686
0 0.963302 0.0932576 0.40254
0 0.96397 0.0931413 0.383059
0 0.965714 0.0916515 0.117095
0 0.96546 0.0919014 0.166586
0 0.96506 0.0921158 0.227509
0 0.96542 0.0919874 0.189544
0 0.964624 0.0924313 0.264315
0 0.965055 0.0921049 0.211807
0 0.962173 0.158016 8.84363
0 0.964645 0.0923342 0.215664
0 0.964102 0.0930244 0.336517
0 0.96329 0.0933632 0.412307
0 0.963987 0.0931964 0.377864
0 0.962573 0.0934244 0.417016
0 0.963319 0.0933397 0.404034
0 0.96257 0.0934044 0.414331
0 0.965926 0.0915089 0.0985706
0 0.965932 0.0915111 0.0973108
0 0.965735 0.0916132 0.120527
0 0.965508 0.0918849 0.174724
0 0.965078 0.0920726 0.192502
0 0.965462 0.0919671 0.185625
0 0.965973 0.0914039 0.0878564
0 0.96217 0.158319 8.85941
0 0.96257 0.0933949 0.440938
0 0.963327 0.0931933 0.39451
0 0.964634 0.0925483 0.284416
0 0.964075 0.0930691 0.369064
0 0.965735 0.0916655 0.124556
0 0.965481 0.091918 0.174668
0 0.965098 0.0921235 0.21079
0 0.965445 0.0919148 0.173
0 0.962796 0.0934417 0.419262
0 0.962338 0.158138 8.8451
0 0.964662 0.0923493 0.229197
0 0.964137 0.0930372 0.348849
0 0.963321 0.0933412 0.402473
0 0.964021 0.0931395 0.36925
0 0.962577 0.0934072 0.425638
0 0.963322 0.0933242 0.406696
0 0.965093 0.0920698 0.196547
0 0.965984 0.091432 0.0897918
0 0.966072 0.0912375 0.0569102
0 0.965765 0.0916025 0.126936
0 0.965524 0.0918945 0.174538
0 0.965466 0.0919788 0.187011
0 0.965968 0.0913726 0.0890515
0 0.96609 0.0910615 0.0362539
0 0.962575 0.0933969 0.433519
0 0.962176 0.158763 8.91608
0 0.965102 0.0921598 0.22112
0 0.963303 0.093238 0.397515
0 0.964015 0.0931417 0.37649
0 0.964698 0.0925699 0.283715
0 0.963255 0.0933405 0.405172
0 0.965757 0.0916618 0.129291
0 0.965529 0.0918956 0.174456
0 0.965984 0.0914456 0.0954059
0 0.965401 0.0921436 0.219889
0 0.962796 0.0935096 0.421551
0 0.962811 0.157656 7.74287
0 0.964672 0.0923342 0.236857
0 0.964141 0.0929911 0.348694
0 0.963315 0.0933341 0.416247
0 0.964009 0.0931233 0.376311
0 0.963319 0.0933553 0.422274
0 0.965071 0.092084 0.201101
0 0.96609 0.0910807 0.0319168
0 0.965773 0.0915911 0.125531
0 0.965509 0.0919315 0.18021
0 0.965985 0.0913233 0.0810894
0 0.966063 0.0911125 0.0388771
0 0.962587 0.0933674 0.426721
0 0.962184 0.157912 8.83201
0 0.965041 0.092233 0.226504
0 0.964013 0.0930269 0.343085
0 0.964574 0.0926539 0.282376
0 0.963264 0.093381 0.406236
0 0.963948 0.0930399 0.343851
0 0.965828 0.0916 0.125383
0 0.96569 0.091794 0.163526
0 0.965983 0.0914163 0.093492
0 0.965503 0.0920178 0.201668
0 0.965152 0.0923019 0.236351
0 0.963257 0.0933604 0.404251
0 0.962504 0.0934647 0.413204
0 0.962317 0.153849 8.97209
0 0.964653 0.0923322 0.241819
0 0.964138 0.092969 0.353475
0 0.963317 0.0933369 0.417457
0 0.964031 0.0931092 0.379207
0 0.965067 0.0921156 0.209137
0 0.965449 0.0920177 0.195442
0 0.965995 0.0913227 0.0761107
0 0.96576 0.0916223 0.129987
0 0.96595 0.0914212 0.0958621
0 0.965942 0.0914432 0.0992166
0 0.965935 0.0914684 0.103154
0 0.963327 0.0933384 0.41596
0 0.962589 0.0933478 0.418446
0 0.962189 0.158101 8.85197
0 0.964605 0.0924671 0.243551
0 0.964063 0.0929829 0.33046
0 0.96394 0.0931747 0.368188
0 0.96501 0.0922997 0.23331
0 0.965769 0.0916096 0.133769
0 0.965459 0.0920136 0.203223
0 0.963266 0.093339 0.410564
0 0.962521 0.093412 0.407274
0 0.962101 0.157126 8.6678
0 0.964645 0.0923176 0.244596
0 0.964145 0.0929719 0.355722
0 0.964022 0.0932129 0.39618
0 0.965054 0.0921093 0.211478
0 0.965487 0.0919576 0.186397
0 0.965797 0.0916562 0.142971
0 0.965741 0.0918084 0.169344
0 0.96573 0.0916908 0.141799
0 0.965728 0.091757 0.156822
0 0.963298 0.0933622 0.420471
0 0.962586 0.0932861 0.406633
0 0.962196 0.157095 8.74182
0 0.964602 0.0924707 0.247741
0 0.964113 0.092957 0.334096
0 0.965103 0.092166 0.220154
0 0.96553 0.0918824 0.18507
0 0.964029 0.0930689 0.3605
0 0.963288 0.0933656 0.423811
0 0.962538 0.0934092 0.44737
0 0.962134 0.158534 8.88915
0 0.964654 0.0923204 0.246819
0 0.964143 0.0930392 0.367116
0 0.96505 0.0920886 0.207797
0 0.965421 0.0920353 0.199945
0 0.965485 0.0919554 0.195248
0 0.965459 0.092012 0.201992
0 0.965468 0.0919975 0.196716
0 0.965411 0.0920708 0.210402
0 0.964023 0.0931549 0.38638
0 0.963312 0.0933628 0.421682
0 0.962582 0.0932852 0.408804
0 0.9622 0.156362 8.66284
0 0.964657 0.0923528 0.238009
0 0.965126 0.0920648 0.204922
0 0.964128 0.0929728 0.329532
0 0.963304 0.0933928 0.420009
0 0.962554 0.0933982 0.447321
0 0.96216 0.158697 8.91198
0 0.964642 0.092326 0.246938
0 0.965042 0.0921088 0.21237
0 0.965103 0.0920382 0.194491
0 0.965059 0.0920776 0.203481
0 0.965052 0.0920964 0.212471
0 0.96413 0.0929883 0.358175
0 0.963309 0.0933333 0.416388
0 0.962588 0.0933401 0.420027
0 0.962196 0.157355 8.77067
0 0.964667 0.0923729 0.228476
0 0.963987 0.0931249 0.356758
0 0.963303 0.0933302 0.399133
0 0.962545 0.0933994 0.407821
0 0.962161 0.157803 8.81017
0 0.964646 0.0923512 0.252623
0 0.964647 0.0923417 0.225378
0 0.964654 0.0923387 0.24502
0 0.96402 0.0931273 0.380186
0 0.963329 0.0933033 0.408868
0 0.962591 0.0933432 0.418684
0 0.962197 0.157944 8.83283
0 0.964106 0.0929991 0.33174
0 0.963309 0.0933051 0.391344
0 0.96257 0.0934535 0.407426
0 0.962143 0.157185 8.67678
0 0.963983 0.0931496 0.364998
0 0.964143 0.0929981 0.356898
0 0.964124 0.0930084 0.349048
0 0.964022 0.093145 0.380599
0 0.963328 0.0933411 0.413106
0 0.962597 0.0933076 0.408244
0 0.962204 0.157439 8.77574
0 0.963283 0.0933518 0.403855
0 0.962559 0.0934631 0.414643
0 0.962164 0.15436 9.03287
0 0.963293 0.0933627 0.416881
0 0.963334 0.0933404 0.415168
0 0.963298 0.0933415 0.418565
0 0.962581 0.0932947 0.406192
0 0.96221 0.155708 8.5905
0 0.962555 0.0933952 0.409504
0 0.962141 0.157613 8.72989
0 0.962568 0.0933444 0.430642
0 0.962587 0.0933127 0.419759
0 0.962204 0.156493 8.68182
0 0.962174 0.157759 8.80539
0 0.962196 0.157134 8.74855
VECTORS fa_u float
0.00843533 0.00347659 0
0.00789497 0.00452993 0
0.00879564 0.00233673 0
0.00900406 0.00121505 0
0.000422407 0.000131927 0
0.00722021 0.00550525 0
0.0064283 0.00642018 0
0.00038424 0.000191212 0
0.000357059 0.000259523 0
0.00479947 0.00623738 0
0.004556 0.00786864 0
0.00779867 -9.412e-06 0
0.00895789 -0.00122624 0
0.000459882 8.65812e-05 0
0.00042896 6.45401e-05 0
0.000421896 8.92405e-05 0
0.000391305 0.000144558 0
0.000349501 0.00030792 0
0.000322346 0.000304328 0
0.000350991 0.000225585 0
0.000320304 0.000284477 0
0.00350421 0.00845256 0
0.00239074 0.00887821 0
0.000211607 0.000384813 0
0.000208362 0.000415915 0
0.000432697 -7.42566e-05 0
0.00863121 -0.00230962 0
0.000462503 -8.40134e-05 0
0.0082289 -0.00337619 0
0.000436518 3.17052e-05 0
0.000429319 -2.49066e-07 0
0.000397351 3.39162e-05 0
0.00118352 0.00890706 0
0.000357118 8.90065e-05 0
0.000344498 0.000165785 0
0.00029508 0.000318516 0
0.000265505 0.00034937 0
0.000289138 0.000236928 0
0.000281545 0.000295512 0
0.000166484 0.00041245 0
0.000111127 0.00043887 0
0.000221123 0.000373486 0
0.00019752 0.000380806 0
-6.40989e-06 0.00892108 0
0.000433052 -3.8482e-05 0
0.000398179 -0.000116757 0
0.000427154 -6.87465e-05 0
0.00791124 -0.00454817 0
0.000364494 -0.000205329 0
0.00696877 -0.00535462 0
0.000387845 -1.71559e-06 0
0.000402062 -5.66631e-06 0
0.000280495 1.88889e-05 0
3.43096e-05 0.000451627 0
-3.41289e-05 0.000441847 0
0.000236147 0.000106869 0
0.000247008 0.000311001 0
0.000233573 0.000339414 0
0.000198975 0.000205217 0
0.000144513 0.000394979 0
7.54563e-05 0.000414906 0
0.000204413 0.000339496 0
0.000168905 0.000363097 0
-0.00116782 0.00874659 0
0.000370475 -2.00135e-05 0
0.000386861 -0.000133007 0
0.000362639 -7.44097e-05 0
0.000373745 -0.000202939 0
0.000352462 -0.000187902 0
0.00624518 -0.00624583 0
0.000306293 -0.000280307 0
0.00538262 -0.0070331 0
0.000204001 4.34903e-05 0
0.000282542 -2.18619e-05 0
0.000220422 -1.04266e-05 0
-1.35927e-05 0.000423455 0
-8.19489e-05 0.000422317 0
-6.30631e-05 0.000416184 0
0.000169007 0.000119184 0
0.000160119 6.84695e-05 0
0.000174241 0.000242451 0
0.000144488 0.000170163 0
9.61097e-05 0.000347254 0
2.34325e-05 0.00036923 0
0.000120125 0.000252884 0
-0.00230233 0.00858177 0
0.000229711 -5.71455e-05 0
0.000307648 -0.00012825 0
0.000319676 -0.000258945 0
0.000296623 -0.000199708 0
0.000268485 -0.000340985 0
0.00027856 -0.000308431 0
0.00445294 -0.00771643 0
0.00022889 -0.000358464 0
0.000163737 1.70462e-05 0
0.000206995 -5.09887e-05 0
0.000181395 -3.05868e-05 0
0.000173482 -9.16244e-05 0
0.00341914 -0.00820543 0
-0.000129772 0.000413742 0
-3.53829e-05 0.000362966 0
-0.000105405 0.000388494 0
-8.63755e-05 0.000373194 0
0.000107626 4.61303e-05 0
0.000122951 0.000112401 0
0.000116037 0.000195693 0
0.000108661 0.000155305 0
2.70378e-05 0.000262928 0
6.16536e-05 0.000202635 0
-0.00338682 0.0081694 0
0.00017583 -0.000124879 0
0.000238435 -0.000237471 0
0.000233644 -0.000339717 0
0.000230095 -0.000299729 0
0.000186636 -0.000372919 0
0.000199081 -0.000351582 0
0.000137801 -0.000390745 0
9.75784e-05 1.39513e-05 0
7.86008e-05 5.73699e-05 0
0.000118989 -1.91936e-05 0
0.000160698 -6.85898e-05 0
0.000136485 -0.000135753 0
0.000148264 -0.000111688 0
8.3174e-05 -2.8299e-05 0
0.00231983 -0.00855029 0
-0.000177663 0.000403561 0
-0.000131205 0.000372053 0
-5.28984e-05 0.000279453 0
-0.000114201 0.000350951 0
7.26113e-05 0.000101201 0
6.38076e-05 0.000162596 0
-8.67786e-06 0.000210611 0
2.1152e-05 0.000171702 0
-0.000224924 0.000353821 0
-0.00444127 0.00764924 0
0.000139586 -0.000181788 0
0.000183995 -0.00029638 0
0.000152753 -0.000372359 0
0.000159907 -0.000332829 0
7.46131e-05 -0.000419047 0
0.00010181 -0.000393747 0
0.000101094 -0.000168554 0
3.99348e-05 8.04225e-05 0
5.1934e-05 2.3273e-05 0
0.00010181 -7.5811e-05 0
0.000111101 -0.000134611 0
7.54048e-05 -0.000171135 0
5.71102e-05 -6.83271e-05 0
2.52493e-05 -2.60156e-05 0
1.71233e-05 -0.000433181 0
0.00118501 -0.00883698 0
-6.24177e-05 0.000212127 0
-0.000173832 0.000357492 0
-0.000137987 0.000350292 0
-9.10981e-05 0.000268692 0
-0.00023467 0.000330294 0
2.12561e-05 0.000127532 0
-2.77267e-05 0.000172239 0
-5.37184e-07 9.54044e-05 0
-8.14735e-05 0.000204238 0
-0.000307347 0.000288519 0
-0.00471668 0.00614044 0
9.58542e-05 -0.000216594 0
0.000108484 -0.000331389 0
4.12915e-05 -0.000414194 0
6.63433e-05 -0.000370416 0
-8.31787e-06 -0.000422192 0
5.33701e-05 -0.000193889 0
-4.38019e-06 3.16149e-05 0
5.0972e-05 -0.000114717 0
3.07832e-05 -0.000177561 0
1.19978e-05 -8.01969e-05 0
-2.82853e-05 -2.66715e-05 0
-3.60869e-05 -0.000425192 0
5.79114e-06 -0.00883201 0
-0.000112432 0.00019663 0
-0.000163598 0.000301568 0
-0.000134202 0.000248447 0
-0.000295897 0.00027834 0
-0.000221584 0.000262933 0
-3.23519e-05 0.000121137 0
-7.2018e-05 0.000146813 0
-4.966e-05 7.92126e-05 0
-0.000121177 0.000161202 0
-0.000157899 0.000175869 0
-0.000320209 0.000246749 0
-0.000284583 0.000299583 0
-0.00632355 0.00636483 0
3.58893e-05 -0.000239141 0
1.71234e-05 -0.00035306 0
-6.51209e-05 -0.000412346 0
-3.46444e-05 -0.000377622 0
2.88913e-06 -0.000209117 0
-2.10387e-05 -0.000194306 0
-6.80762e-05 3.40362e-05 0
-1.2255e-05 -0.000129408 0
-3.38967e-05 -8.96692e-05 0
-9.78982e-05 -1.61208e-05 0
-7.79949e-05 -6.75096e-05 0
-0.000114341 -0.000399937 0
-8.66388e-05 -0.000409378 0
-0.00115048 -0.00877689 0
-0.000163358 0.000180641 0
-0.000256964 0.000207782 0
-0.000311745 0.000195902 0
-0.000184758 0.000142472 0
-0.000101177 8.75057e-05 0
-0.000164133 0.000119833 0
-0.000358479 0.000200138 0
-0.000334194 0.000232779 0
-0.00687562 0.00527794 0
-2.62228e-05 -0.000243187 0
-7.40472e-05 -0.00034793 0
-0.000133244 -0.000373102 0
-5.15384e-05 -0.000205102 0
-6.53416e-05 -0.000174569 0
-0.000136929 4.11214e-05 0
-0.000168911 -1.21122e-05 0
-8.11127e-05 -0.000116308 0
-0.000139706 -7.12422e-05 0
-0.000163648 -0.000387318 0
-0.00013585 -0.000383269 0
-0.0022498 -0.00844736 0
-0.0002114 0.000129173 0
-0.000302349 0.000142146 0
-0.000198591 9.50236e-05 0
-0.000172699 6.65278e-05 0
-0.000337343 0.000127119 0
-0.000387021 0.000172714 0
-0.000400626 0.000199095 0
-0.00770528 0.00443235 0
-8.31541e-05 -0.00023239 0
-0.000158218 -0.000331271 0
-9.7817e-05 -0.000183334 0
-0.000117409 -0.000161843 0
-0.000194085 2.12796e-05 0
-0.000198772 -3.59228e-05 0
-0.000153932 -0.000122483 0
-0.000192819 -8.42007e-05 0
-0.000218238 -0.000318844 0
-0.000201192 -0.000370591 0
-0.000177019 -0.00036849 0
-0.00331783 -0.0080023 0
-0.000221042 8.82537e-05 0
-0.000197919 5.31115e-05 0
-0.000318858 8.31918e-05 0
-0.000402495 0.000120025 0
-0.000419286 0.00015587 0
-0.00824175 0.00339071 0
-0.000144788 -0.000200038 0
-0.000150119 -0.000150218 0
-0.000194424 -5.1039e-06 0
-0.000193468 -6.30456e-05 0
-0.000182421 -0.000108932 0
-0.000244076 -0.000262138 0
-0.00025858 -0.000326366 0
-0.000233079 -0.000349423 0
-0.00439469 -0.00759022 0
-0.000226173 3.23545e-05 0
-0.000354262 4.21313e-05 0
-0.000392651 7.16364e-05 0
-0.000396632 9.48736e-05 0
-0.00851747 0.00225207 0
-0.000198111 -0.000156749 0
-0.000220142 -4.82956e-05 0
-0.000219714 -0.000108445 0
-0.00029347 -0.000241695 0
-0.000293997 -0.000284146 0
-0.000280124 -0.00031117 0
-0.00538252 -0.00700339 0
-0.000331156 -1.96772e-05 0
-0.000391304 5.63591e-06 0
-0.000407423 1.69234e-06 0
-0.00860065 0.00114695 0
-0.000354261 -8.78823e-05 0
-0.000298033 -0.000196347 0