# vtk DataFile Version 2.0
CellBP Time: 3.12
ASCII
DATASET UNSTRUCTURED_GRID
POINTS 296 double
-9.04048 -3.71571 0
-8.47068 -4.86977 0
-9.4534 -2.4968 0
-9.70412 -1.23337 0
-8.34404 -2.81389 0
-7.75655 -5.94063 0
-6.90778 -6.90806 0
-7.90443 -3.86836 0
-7.33082 -4.85986 0
-5.93988 -7.7564 0
-4.86977 -8.47142 0
-9.80204 0.0498993 0
-9.70457 1.33326 0
-8.64384 -1.68087 0
-8.7737 -0.527903 0
-7.57617 -2.00012 0
-7.21276 -2.90106 0
-6.62705 -5.76968 0
-5.8131 -6.58644 0
-6.77817 -3.8817 0
-6.20953 -4.66732 0
-3.71532 -9.04038 0
-2.49664 -9.4543 0
-4.89856 -7.29729 0
-3.90659 -7.87376 0
-8.78021 0.641608 0
-9.45428 2.59695 0
-8.6098 1.77106 0
-9.04232 3.81636 0
-7.73074 -0.927234 0
-7.78132 0.0803033 0
-6.9407 -1.31352 0
-1.23431 -9.70543 0
-6.43066 -2.14922 0
-6.30821 -3.05063 0
-5.52672 -5.46465 0
-4.78729 -6.10449 0
-5.64939 -3.75035 0
-5.25992 -4.55322 0
-2.86126 -8.35052 0
-1.77541 -8.62602 0
-3.92114 -6.7115 0
-3.05088 -7.13987 0
0.0499368 -9.79041 0
-7.69211 1.14144 0
-8.32552 2.91085 0
-7.53829 2.10825 0
-8.4724 4.97044 0
-7.86783 3.97207 0
-7.75679 6.04051 0
-6.76734 -0.396293 0
-6.94451 0.55184 0
-5.76359 -1.00198 0
-0.589684 -8.7954 0
0.565007 -8.7569 0
-5.29576 -2.47682 0
-4.48411 -5.0868 0
-3.89545 -5.76492 0
-4.43253 -3.79933 0
-2.05844 -7.54852 0
-1.13333 -7.77199 0
-2.98902 -6.09137 0
-2.30457 -6.60786 0
1.33429 -9.70647 0
-6.67835 1.41989 0
-7.15938 3.11247 0
-6.64766 2.3688 0
-7.28358 4.98102 0
-6.70624 3.99616 0
-6.90846 7.00869 0
-6.56247 5.88524 0
-5.94064 7.85734 0
-4.4468 -1.17917 0
-5.80672 0.513077 0
-4.6496 -0.0100871 0
0.00837352 -7.83414 0
1.73634 -8.6304 0
0.947362 -7.74965 0
-4.03285 -2.40286 0
-3.48006 -1.38876 0
-3.28952 -4.79854 0
-3.26106 -3.26287 0
-1.37606 -6.66423 0
-0.507927 -7.01296 0
-1.97241 -5.52916 0
2.5967 -9.45498 0
-5.49997 2.03422 0
-6.0845 3.06691 0
-6.09429 4.86112 0
-5.75152 3.98462 0
-5.75263 6.70711 0
-5.44246 5.60965 0
-4.87026 8.57231 0
-4.83116 7.3936 0
-3.49603 -0.423266 0
-4.44287 1.24751 0
-3.70565 0.59159 0
-4.05641 2.31678 0
-3.71562 9.14133 0
2.85865 -8.32021 0
0.419083 -6.78372 0
2.01872 -7.51313 0
1.30373 -6.89348 0
-2.44068 -0.872103 0
-2.83391 -2.12754 0
-2.29089 -4.09142 0
-2.32183 -2.96871 0
-0.441346 -5.85276 0
-1.22073 -4.49266 0
3.81595 -9.04246 0
-4.78334 3.38729 0
-5.07923 4.58646 0
-4.63898 6.27061 0
-4.53071 5.35024 0
-3.83794 7.98155 0
-3.81992 6.83409 0
-2.77908 8.4104 0
-1.64555 -0.137229 0
-1.44733 -0.888588 0
-2.48501 0.507001 0
-3.24839 1.44231 0
-3.23432 3.31215 0
-2.90611 2.36836 0
-1.3522 0.626371 0
-2.49677 9.55521 0
3.92717 -7.87516 0
2.96003 -7.14597 0
0.952942 -5.81312 0
2.07072 -6.4043 0
-1.68019 -1.98867 0
-1.43214 -3.27249 0
0.0904386 -4.74024 0
-0.565197 -3.68883 0
4.92514 -7.30775 0
4.96973 -8.47202 0
-3.77189 4.5456 0
-3.72834 5.74247 0
-2.8829 7.27748 0
-3.00432 6.3428 0
-1.66005 8.72083 0
-1.93664 7.60655 0
-2.33501 4.04622 0
-0.729241 -1.32457 0
-0.835039 -0.256769 0
-1.93283 1.6786 0
-2.12217 2.87164 0
-1.30415 3.53924 0
-0.867563 1.34877 0
-0.281538 0.455299 0
-0.532694 8.85873 0
-1.23432 9.80656 0
1.11129 -4.56793 0
3.90419 -6.70618 0
2.9831 -6.08372 0
2.11504 -5.41645 0
4.77697 -6.19472 0
-0.557922 -2.47262 0
0.494631 -3.45837 0
0.0536435 -1.6074 0
1.47971 -3.6758 0
5.85909 -6.60478 0
6.03982 -7.75657 0
-2.47247 5.34144 0
-2.12684 6.52377 0
-0.90244 7.79016 0
-1.27002 6.9203 0
0.0862312 7.86703 0
-1.14269 4.4885 0
0.15016 -0.616593 0
-0.795777 2.48496 0
-0.330637 3.59513 0
0.0634551 1.51028 0
0.740466 0.472646 0
0.645892 8.86155 0
0.0500628 9.8914 0
2.37759 -4.27906 0
3.85341 -5.63078 0
2.99679 -5.20475 0
5.56495 -5.4827 0
4.684 -5.27447 0
0.628852 -2.28957 0
1.25428 -2.94677 0
0.755982 -1.389 0
2.16093 -3.13094 0
2.98904 -3.47094 0
6.1458 -4.78385 0
6.64786 -5.76096 0
7.00875 -6.90784 0
-1.01832 5.81282 0
-0.371794 6.87259 0
1.12074 7.7566 0
0.557131 7.06808 0
-0.000545799 4.71863 0
0.606385 3.82178 0
1.33679 -0.64087 0
0.538706 2.64706 0
0.964964 1.57222 0
1.90725 0.21338 0
1.61235 1.06302 0
2.12585 7.57109 0
1.79671 8.70029 0
1.33453 9.8062 0
3.81753 -4.34549 0
5.10881 -4.44193 0
5.83659 -3.92844 0
3.7785 -3.19637 0
1.80939 -1.8801 0
3.01455 -2.57035 0
6.77318 -3.94179 0
7.37247 -4.89088 0
7.86625 -5.94731 0
0.482728 5.87415 0
1.42603 6.73129 0
2.37026 6.65772 0
1.20846 4.54995 0
1.48617 3.39232 0
2.4319 -0.69088 0
2.82324 0.142169 0
1.78642 2.15935 0
2.60783 1.14801 0
3.06694 7.15826 0
2.90024 8.36575 0
2.59754 9.55681 0
4.90492 -3.32332 0
6.11173 -3.10395 0
4.16712 -2.27238 0
3.23964 -1.50115 0
6.72113 -2.30961 0
7.22081 -3.0377 0
7.95464 -3.90723 0
8.57588 -4.87295 0
2.02117 5.59298 0
3.08177 6.14376 0
2.36101 4.12145 0
2.4166 3.056 0
3.52022 -0.460426 0
3.61005 0.612145 0
2.95741 2.28439 0
3.54007 1.52273 0
4.00583 5.88879 0
3.97857 6.7823 0
3.96841 7.92864 0
3.81667 9.14384 0
5.56222 -1.91375 0
4.50356 -1.12834 0
6.70403 -1.33442 0
7.58074 -2.03365 0
8.38645 -2.85801 0
9.14655 -3.71821 0
3.41505 4.87133 0
3.33478 3.38094 0
4.68566 0.129746 0
4.51362 1.30814 0
4.06028 2.44059 0
4.56388 5.14506 0
4.83646 6.18155 0
4.97434 7.37131 0
4.97027 8.57257 0
5.87658 -0.434314 0
7.0004 -0.487587 0
7.7482 -1.0838 0
8.67405 -1.74379 0
9.55408 -2.49684 0
4.54725 3.82322 0
5.81127 1.09737 0
5.36534 2.53208 0
5.37235 4.61391 0
5.60434 5.51565 0
5.89021 6.66399 0
6.04047 7.85707 0
6.8366 0.462988 0
7.8424 -0.0257241 0
8.84992 -0.583511 0
9.80791 -1.23444 0
6.95062 1.34759 0
5.71334 3.77322 0
6.53269 2.19447 0
6.37137 3.08353 0
6.2837 4.68043 0
6.68545 5.83137 0
7.00849 7.00838 0
7.77357 0.966335 0
8.84924 0.572159 0
9.89109 0.0499305 0
7.60588 2.00147 0
6.82008 3.89874 0
7.25975 2.94279 0
7.37025 4.88032 0
7.85917 6.04233 0
8.71306 1.72516 0
9.80609 1.33448 0
8.41174 2.8349 0
7.97316 3.91186 0
8.57272 4.97026 0
9.55617 2.59782 0
9.14898 3.81898 0
CELLS 542 2168
3 2 0 4
3 0 1 7
3 4 0 7
3 1 5 8
3 7 1 8
3 3 2 13
3 13 2 4
3 11 3 14
3 14 3 13
3 13 4 15
3 4 7 16
3 15 4 16
3 5 6 17
3 8 5 17
3 6 9 18
3 17 6 18
3 7 8 19
3 16 7 19
3 8 17 20
3 19 8 20
3 9 10 23
3 18 9 23
3 10 21 24
3 23 10 24
3 12 11 25
3 25 11 14
3 26 12 27
3 27 12 25
3 14 13 29
3 29 13 15
3 25 14 30
3 30 14 29
3 29 15 31
3 15 16 33
3 31 15 33
3 16 19 34
3 33 16 34
3 17 18 35
3 20 17 35
3 18 23 36
3 35 18 36
3 19 20 37
3 34 19 37
3 20 35 38
3 37 20 38
3 21 22 39
3 24 21 39
3 22 32 40
3 39 22 40
3 23 24 41
3 36 23 41
3 24 39 42
3 41 24 42
3 27 25 44
3 44 25 30
3 28 26 45
3 45 26 27
3 45 27 46
3 46 27 44
3 47 28 48
3 48 28 45
3 30 29 50
3 50 29 31
3 44 30 51
3 51 30 50
3 50 31 52
3 31 33 52
3 32 43 53
3 40 32 53
3 53 43 54
3 33 34 55
3 34 37 55
3 33 55 52
3 35 36 56
3 38 35 56
3 36 41 57
3 56 36 57
3 37 38 58
3 38 56 58
3 37 58 55
3 39 40 59
3 42 39 59
3 40 53 60
3 59 40 60
3 41 42 61
3 57 41 61
3 42 59 62
3 61 42 62
3 43 63 54
3 46 44 64
3 64 44 51
3 48 45 65
3 65 45 46
3 65 46 66
3 66 46 64
3 49 47 67
3 67 47 48
3 67 48 68
3 68 48 65
3 69 49 70
3 70 49 67
3 52 55 72
3 64 51 73
3 51 50 73
3 50 52 73
3 73 52 74
3 74 52 72
3 53 54 75
3 60 53 75
3 54 63 76
3 54 76 77
3 75 54 77
3 55 58 78
3 72 55 78
3 72 78 79
3 56 57 80
3 57 61 80
3 56 80 58
3 58 80 81
3 78 58 81
3 59 60 82
3 62 59 82
3 60 75 83
3 82 60 83
3 61 62 84
3 62 82 84
3 61 84 80
3 63 85 76
3 66 64 86
3 64 73 86
3 68 65 87
3 87 65 66
3 87 66 86
3 70 67 88
3 88 67 68
3 88 68 89
3 89 68 87
3 71 69 90
3 90 69 70
3 90 70 91
3 91 70 88
3 92 71 93
3 93 71 90
3 74 72 94
3 94 72 79
3 86 73 95
3 95 73 74
3 95 74 96
3 96 74 94
3 97 86 95
3 76 85 99
3 75 77 100
3 83 75 100
3 76 99 101
3 77 76 101
3 77 101 102
3 100 77 102
3 94 79 103
3 78 81 104
3 79 78 104
3 79 104 103
3 80 84 105
3 81 80 105
3 81 105 106
3 104 81 106
3 82 83 107
3 83 100 107
3 82 107 84
3 84 107 108
3 105 84 108
3 85 109 99
3 89 87 110
3 87 86 110
3 110 86 97
3 91 88 111
3 111 88 89
3 111 89 110
3 93 90 112
3 112 90 91
3 112 91 113
3 113 91 111
3 98 92 114
3 114 92 93
3 114 93 115
3 115 93 112
3 116 98 114
3 117 103 118
3 96 94 119
3 94 103 119
3 119 103 117
3 97 95 120
3 120 95 96
3 120 96 119
3 121 110 97
3 121 97 122
3 122 97 120
3 123 119 117
3 124 98 116
3 99 109 125
3 99 125 126
3 101 99 126
3 100 102 127
3 100 127 107
3 101 126 128
3 102 101 128
3 102 128 127
3 104 106 129
3 104 129 103
3 103 129 118
3 105 108 130
3 106 105 130
3 106 130 129
3 107 127 131
3 108 107 131
3 108 131 132
3 108 132 130
3 109 134 125
3 125 134 133
3 113 111 135
3 111 110 135
3 135 110 121
3 115 112 136
3 136 112 113
3 136 113 135
3 116 114 137
3 137 114 115
3 137 115 138
3 138 115 136
3 139 124 116
3 139 116 140
3 140 116 137
3 141 135 121
3 118 129 142
3 118 142 143
3 117 118 143
3 123 117 143
3 122 120 144
3 120 119 144
3 144 119 123
3 141 121 145
3 145 121 122
3 145 122 144
3 146 141 145
3 147 144 123
3 147 123 148
3 143 148 123
3 150 124 139
3 149 150 139
3 131 127 151
3 125 133 152
3 126 125 152
3 126 152 153
3 128 126 153
3 128 153 154
3 128 154 127
3 127 154 151
3 152 133 155
3 130 132 156
3 130 156 129
3 129 156 142
3 131 151 157
3 132 131 157
3 132 157 156
3 156 158 142
3 157 151 159
3 133 160 155
3 134 161 133
3 133 161 160
3 138 136 162
3 136 135 162
3 162 135 141
3 140 137 163
3 163 137 138
3 163 138 162
3 149 139 164
3 164 139 140
3 164 140 165
3 165 140 163
3 166 149 164
3 167 162 141
3 167 141 146
3 142 158 168
3 143 142 168
3 143 168 148
3 146 145 169
3 145 144 169
3 169 144 147
3 170 167 146
3 170 146 169
3 171 169 147
3 171 147 148
3 171 148 172
3 168 172 148
3 173 149 166
3 174 150 149
3 173 174 149
3 154 175 151
3 151 175 159
3 152 155 176
3 153 152 176
3 153 176 177
3 153 177 154
3 154 177 175
3 155 160 178
3 155 178 179
3 176 155 179
3 156 157 180
3 156 180 158
3 157 159 181
3 157 181 180
3 158 180 182
3 158 182 168
3 159 175 183
3 159 183 181
3 175 184 183
3 160 186 178
3 178 186 185
3 161 187 160
3 160 187 186
3 165 163 188
3 163 162 188
3 188 162 167
3 166 164 189
3 189 164 165
3 189 165 188
3 190 173 166
3 190 166 191
3 191 166 189
3 192 188 167
3 192 167 170
3 193 192 170
3 182 194 168
3 194 172 168
3 193 170 195
3 170 169 195
3 195 169 171
3 196 195 171
3 196 171 172
3 194 197 172
3 197 198 172
3 198 196 172
3 200 173 190
3 199 200 190
3 201 174 173
3 200 201 173
3 176 179 202
3 177 176 202
3 177 202 175
3 175 202 184
3 178 185 203
3 178 203 179
3 179 203 202
3 203 185 204
3 202 205 184
3 183 206 181
3 180 181 206
3 180 206 182
3 182 206 194
3 183 184 207
3 205 207 184
3 183 207 206
3 185 208 204
3 186 209 185
3 185 209 208
3 187 210 186
3 186 210 209
3 191 189 211
3 189 188 211
3 211 188 192
3 199 190 212
3 212 190 191
3 212 191 211
3 213 199 212
3 214 211 192
3 214 192 193
3 215 214 193
3 215 193 195
3 206 216 194
3 216 197 194
3 216 217 197
3 215 195 218
3 218 195 196
3 198 218 196
3 217 219 197
3 219 218 198
3 197 219 198
3 220 199 213
3 221 200 199
3 220 221 199
3 222 201 200
3 221 222 200
3 203 204 223
3 203 223 202
3 202 223 205
3 204 208 224
3 204 224 223
3 205 223 225
3 205 225 207
3 207 225 226
3 207 226 206
3 226 216 206
3 208 228 224
3 224 228 227
3 209 229 208
3 229 228 208
3 210 230 209
3 209 230 229
3 213 212 231
3 212 211 231
3 231 211 214
3 232 220 213
3 232 213 231
3 233 231 214
3 233 214 215
3 234 233 215
3 234 215 218
3 226 235 216
3 235 217 216
3 235 236 217
3 217 236 219
3 237 234 218
3 237 218 219
3 236 238 219
3 238 237 219
3 240 220 232
3 239 240 232
3 241 221 220
3 240 241 220
3 242 222 221
3 241 242 221
3 224 227 243
3 224 243 223
3 223 243 225
3 225 243 244
3 225 244 226
3 226 244 235
3 227 245 243
3 228 246 227
3 227 246 245
3 229 247 228
3 228 247 246
3 230 248 229
3 229 248 247
3 239 232 249
3 232 231 249
3 249 231 233
3 250 249 233
3 250 233 234
3 237 250 234
3 244 251 235
3 235 251 236
3 251 252 236
3 236 252 238
3 252 253 238
3 253 250 237
3 253 237 238
3 254 239 249
3 255 240 239
3 254 255 239
3 256 241 240
3 255 256 240
3 257 242 241
3 256 257 241
3 245 258 243
3 243 258 244
3 244 258 251
3 245 259 258
3 246 260 245
3 245 260 259
3 247 261 246
3 246 261 260
3 248 262 247
3 247 262 261
3 254 249 263
3 263 249 250
3 253 263 250
3 258 264 251
3 251 264 252
3 264 265 252
3 265 263 253
3 252 265 253
3 266 254 263
3 267 255 254
3 266 267 254
3 268 256 255
3 267 268 255
3 269 257 256
3 268 269 256
3 259 270 258
3 270 264 258
3 260 271 259
3 259 271 270
3 261 272 260
3 260 272 271
3 262 273 261
3 273 272 261
3 270 274 264
3 275 266 263
3 275 263 265
3 274 276 264
3 276 265 264
3 276 277 265
3 277 275 265
3 278 267 266
3 275 278 266
3 279 268 267
3 278 279 267
3 280 269 268
3 279 280 268
3 271 281 270
3 270 281 274
3 272 282 271
3 271 282 281
3 273 283 272
3 272 283 282
3 281 284 274
3 274 284 276
3 285 278 275
3 277 285 275
3 284 286 276
3 286 285 277
3 276 286 277
3 287 279 278
3 285 287 278
3 288 280 279
3 287 288 279
3 282 289 281
3 281 289 284
3 283 290 282
3 282 290 289
3 289 291 284
3 284 291 286
3 291 292 286
3 292 287 285
3 286 292 285
3 293 288 287
3 292 293 287
3 290 294 289
3 289 294 291
3 294 295 291
3 295 293 292
3 291 295 292
CELL_TYPES 542
5
5
5
5
5
5
5
5
5
5
5
5
5
5
5
5
5
5
5
5
5
5
5
5
5
5
5
5
5
5
5
5
5
5
5
5
5
5
5
5
5
5
5
5
5
5
5
5
5
5
5
5
5
5
5
5
5
5
5
5
5
5
5
5
5
5
5
5
5
5
5
5
5
5
5
5
5
5
5
5
5
5
5
5
5
5
5
5
5
5
5
5
5
5
5
5
5
5
5
5
5
5
5
5
5
5
5
5
5
5
5
5
5
5
5
5
5
5
5
5
5
5
5
5
5
5
5
5
5
5
5
5
5
5
5
5
5
5
5
5
5
5
5
5
5
5
5
5
5
5
5
5
5
5
5
5
5
5
5
5
5
5
5
5
5
5
5
5
5
5
5
5
5
5
5
5
5
5
5
5
5
5
5
5
5
5
5
5
5
5
5
5
5
5
5
5
5
5
5
5
5
5
5
5
5
5
5
5
5
5
5
5
5
5
5
5
5
5
5
5
5
5
5
5
5
5
5
5
5
5
5
5
5
5
5
5
5
5
5
5
5
5
5
5
5
5
5
5
5
5
5
5
5
5
5
5
5
5
5
5
5
5
5
5
5
5
5
5
5
5
5
5
5
5
5
5
5
5
5
5
5
5
5
5
5
5
5
5
5
5
5
5
5
5
5
5
5
5
5
5
5
5
5
5
5
5
5
5
5
5
5
5
5
5
5
5
5
5
5
5
5
5
5
5
5
5
5
5
5
5
5
5
5
5
5
5
5
5
5
5
5
5
5
5
5
5
5
5
5
5
5
5
5
5
5
5
5
5
5
5
5
5
5
5
5
5
5
5
5
5
5
5
5
5
5
5
5
5
5
5
5
5
5
5
5
5
5
5
5
5
5
5
5
5
5
5
5
5
5
5
5
5
5
5
5
5
5
5
5
5
5
5
5
5
5
5
5
5
5
5
5
5
5
5
5
5
5
5
5
5
5
5
5
5
5
5
5
5
5
5
5
5
5
5
5
5
5
5
5
5
5
5
5
5
5
5
5
5
5
5
5
5
5
5
5
5
5
5
5
5
5
5
5
5
5
5
5
5
5
5
5
5
5
5
5
5
5
5
5
5
5
5
5
5
5
5
5
5
5
5
5
5
5
5
5
5
5
5
5
5
5
5
5
5
5
5
5
5
5
5
5
5
5
5
5
5
5
5
5
5
5
5
5
5
5
5
5
5
5
5
5
5
POINT_DATA 296
SCALARS concentrations float 4
LOOKUP_TABLE default
0 0.966454 0.171321 10.2759
0 0.966444 0.169942 10.3095
0 0.966474 0.170837 10.2226
0 0.966499 0.170153 10.1681
0 0.96689 0.0936318 0.45829
0 0.966443 0.170588 10.2032
0 0.966444 0.170237 10.1608
0 0.966888 0.0936406 0.441747
0 0.96687 0.0936452 0.444477
0 0.966441 0.170155 10.1547
0 0.966433 0.170318 10.1811
0 0.966517 0.169151 10.0646
0 0.96652 0.169626 10.1163
0 0.966917 0.0935987 0.466652
0 0.966928 0.0935213 0.456496
0 0.967716 0.0935234 0.445423
0 0.967692 0.0935098 0.429459
0 0.966878 0.0935757 0.453683
0 0.966869 0.0935673 0.462432
0 0.967694 0.0935095 0.421595
0 0.967676 0.0934971 0.428078
0 0.966423 0.170031 10.356
0 0.966423 0.172089 10.3599
0 0.966873 0.093562 0.454359
0 0.966857 0.0936037 0.442577
0 0.966945 0.0935038 0.448903
0 0.966522 0.169196 10.0614
0 0.966932 0.0935236 0.447023
0 0.966526 0.169677 10.109
0 0.967715 0.0935067 0.450195
0 0.967734 0.0934255 0.435381
0 0.968458 0.093198 0.393533
0 0.966443 0.170059 10.1452
0 0.968565 0.0930685 0.36319
0 0.968429 0.0932387 0.383465
0 0.967675 0.0934839 0.440083
0 0.967664 0.0934851 0.44185
0 0.968552 0.0931032 0.363304
0 0.968407 0.0932744 0.397958
0 0.966867 0.0936649 0.449862
0 0.966853 0.0936981 0.470927
0 0.967668 0.0934906 0.430876
0 0.967647 0.0934988 0.423997
0 0.966468 0.169035 10.1127
0 0.967733 0.0934786 0.440385
0 0.966944 0.093527 0.444596
0 0.967738 0.0935214 0.443772
0 0.966536 0.169104 10.053
0 0.966944 0.0935021 0.440525
0 0.966545 0.168783 10.0233
0 0.968575 0.0930771 0.374782
0 0.968459 0.0932082 0.396573
0 0.969116 0.0924116 0.260885
0 0.966887 0.0936558 0.472027
0 0.966883 0.0935864 0.460215
0 0.969113 0.0924411 0.260552
0 0.968542 0.0931375 0.378969
0 0.968407 0.0932638 0.397714
0 0.969103 0.0924838 0.269683
0 0.967681 0.0935166 0.432175
0 0.967697 0.0935157 0.44333
0 0.968535 0.093176 0.377289
0 0.968397 0.0933087 0.397747
0 0.966496 0.168375 9.98003
0 0.968604 0.0930515 0.367355
0 0.967733 0.0934921 0.436945
0 0.968478 0.0932199 0.393152
0 0.966959 0.0934743 0.439581
0 0.967749 0.0934368 0.428643
0 0.966549 0.168591 10.007
0 0.966954 0.0934627 0.442459
0 0.96655 0.168617 10.0107
0 0.969551 0.0921468 0.22051
0 0.969131 0.092409 0.261601
0 0.969568 0.0921416 0.218438
0 0.967709 0.0935053 0.446802
0 0.966932 0.0935015 0.443367
0 0.967702 0.0934895 0.442079
0 0.96956 0.0921635 0.224677
0 0.969942 0.0920312 0.206705
0 0.969102 0.0924971 0.27325
0 0.969554 0.0922002 0.232408
0 0.968544 0.0930863 0.367329
0 0.968414 0.0931748 0.389167
0 0.969107 0.0925122 0.274272
0 0.966528 0.168936 10.0357
0 0.969136 0.0923849 0.254938
0 0.9686 0.0930689 0.367722
0 0.96774 0.0934623 0.437195
0 0.968476 0.0932175 0.394071
0 0.966963 0.0934608 0.443503
0 0.967746 0.0934653 0.441983
0 0.96655 0.168189 10.0284
0 0.96696 0.0934686 0.440249
0 0.970005 0.091946 0.189771
0 0.969565 0.0921479 0.217682
0 0.969963 0.0919993 0.195192
0 0.969583 0.0921275 0.214836
0 0.966552 0.168658 10.0774
0 0.966961 0.093459 0.434691
0 0.968537 0.0931334 0.383975
0 0.967721 0.0933634 0.419007
0 0.968416 0.0932433 0.401235
0 0.970258 0.0917048 0.153874
0 0.970002 0.0919792 0.201772
0 0.969565 0.0922132 0.23526
0 0.969954 0.0920715 0.217681
0 0.969117 0.0925218 0.281771
0 0.969574 0.0921902 0.231391
0 0.966553 0.168517 9.9919
0 0.969153 0.0923959 0.258353
0 0.96861 0.0931099 0.379753
0 0.96774 0.0934668 0.443379
0 0.968474 0.0932882 0.413463
0 0.966968 0.0934849 0.441295
0 0.967753 0.0934573 0.441127
0 0.966968 0.0934823 0.444479
0 0.970468 0.0915464 0.124623
0 0.970474 0.0915447 0.127974
0 0.970272 0.091661 0.140426
0 0.970025 0.0919396 0.185239
0 0.969583 0.0921196 0.218255
0 0.969977 0.0920149 0.200174
0 0.970517 0.0914364 0.102961
0 0.966558 0.168854 10.0362
0 0.966981 0.0934469 0.435423
0 0.967769 0.093287 0.406186
0 0.969118 0.092626 0.30135
0 0.968533 0.0931608 0.387269
0 0.970277 0.0917143 0.159794
0 0.970018 0.0919889 0.204266
0 0.969616 0.0921926 0.232417
0 0.969981 0.0919769 0.199871
0 0.966959 0.0934697 0.444978
0 0.966555 0.168675 10.0112
0 0.969161 0.0924097 0.267255
0 0.96861 0.0931331 0.389916
0 0.96775 0.093452 0.441096
0 0.968481 0.0932441 0.408868
0 0.966977 0.0934697 0.448297
0 0.967757 0.0934302 0.439529
0 0.969598 0.092118 0.221638
0 0.970528 0.0914543 0.111885
0 0.970619 0.0912518 0.0738589
0 0.970299 0.0916397 0.137285
0 0.970047 0.0919366 0.189518
0 0.969992 0.0920249 0.205288
0 0.970516 0.0914005 0.0955109
0 0.970643 0.0910762 0.0372574
0 0.96697 0.0934577 0.445097
0 0.96656 0.169365 10.0873
0 0.969606 0.0922169 0.236331
0 0.967766 0.0933175 0.414419
0 0.968494 0.0932302 0.399782
0 0.969184 0.092638 0.302979
0 0.967718 0.093424 0.436159
0 0.970299 0.0917016 0.154949
0 0.970061 0.0919442 0.193317
0 0.970533 0.091468 0.111503
0 0.969918 0.0921972 0.234506
0 0.966939 0.0934737 0.447474
0 0.96654 0.168611 10.0079
0 0.969163 0.0923992 0.269541
0 0.968612 0.0930852 0.382854
0 0.967751 0.0934355 0.440288
0 0.968479 0.0932188 0.404107
0 0.967751 0.0934581 0.439973
0 0.969583 0.0921355 0.223611
0 0.970646 0.0910864 0.0404369
0 0.970314 0.0916225 0.134759
0 0.970042 0.0919757 0.19479
0 0.970539 0.0913446 0.0830024
0 0.970626 0.0911264 0.0414457
0 0.966976 0.0934315 0.434603
0 0.966563 0.168414 9.98603
0 0.969545 0.0922886 0.246697
0 0.968519 0.093115 0.381778
0 0.969078 0.0927289 0.317605
0 0.967712 0.0934866 0.442943
0 0.968451 0.0931386 0.385399
0 0.970374 0.0916321 0.139391
0 0.970227 0.0918344 0.173527
0 0.97054 0.0914436 0.103577
0 0.970025 0.0920671 0.211724
0 0.969659 0.092365 0.260108
0 0.967696 0.0934748 0.432052
0 0.966908 0.0934443 0.433958
0 0.966525 0.167636 9.89524
0 0.96915 0.092396 0.265967
0 0.968613 0.0930565 0.374293
0 0.967743 0.0934406 0.432444
0 0.968497 0.0932007 0.39524
0 0.969583 0.0921677 0.225976
0 0.969981 0.0920647 0.207303
0 0.97056 0.0913516 0.0854617
0 0.970306 0.0916529 0.136418
0 0.970508 0.0914449 0.0986286
0 0.970508 0.0914759 0.106818
0 0.970498 0.0914964 0.107675
0 0.96775 0.0934434 0.43095
0 0.966973 0.0934147 0.426568
0 0.966564 0.168641 10.0041
0 0.969113 0.092541 0.285541
0 0.968557 0.0930886 0.371358
0 0.968416 0.0932947 0.399232
0 0.969506 0.0923673 0.257956
0 0.970314 0.0916494 0.139849
0 0.969975 0.0920678 0.211434
0 0.967699 0.0934515 0.418486
0 0.966924 0.0934836 0.423651
0 0.966518 0.16761 9.90241
0 0.96914 0.092377 0.258636
0 0.968612 0.0930576 0.369786
0 0.968481 0.0933097 0.411182
0 0.969566 0.0921606 0.222023
0 0.970022 0.0920028 0.195418
0 0.970351 0.0917011 0.148705
0 0.970293 0.0918556 0.174338
0 0.970279 0.0917265 0.147552
0 0.970277 0.0917982 0.161914
0 0.96772 0.0934692 0.436992
0 0.966969 0.0933534 0.416072
0 0.966568 0.167523 9.88657
0 0.969089 0.0925541 0.283149
0 0.968578 0.0930697 0.361675
0 0.969593 0.0922292 0.235757
0 0.970053 0.0919347 0.189147
0 0.968492 0.0931859 0.38375
0 0.967726 0.0935014 0.43081
0 0.966933 0.0935147 0.426456
0 0.966518 0.167795 10.1029
0 0.969147 0.0923813 0.257773
0 0.96861 0.0931311 0.383023
0 0.969562 0.092143 0.219185
0 0.969952 0.0920877 0.210245
0 0.97001 0.0920078 0.200868
0 0.969986 0.0920622 0.20918
0 0.969999 0.0920488 0.204562
0 0.969935 0.0921231 0.218528
0 0.968485 0.0932558 0.406075
0 0.967737 0.0934706 0.440484
0 0.966967 0.0933514 0.419632
0 0.966571 0.166698 9.80344
0 0.969134 0.0924296 0.263169
0 0.969622 0.0921214 0.217788
0 0.968609 0.0930717 0.371078
0 0.967746 0.0935039 0.44238
0 0.966954 0.0934808 0.43571
0 0.966531 0.169142 10.0579
0 0.969133 0.0923936 0.261686
0 0.96955 0.0921677 0.225355
0 0.969609 0.0920866 0.212058
0 0.969561 0.0921262 0.219176
0 0.969551 0.0921511 0.223706
0 0.968592 0.0930879 0.379868
0 0.967733 0.0934449 0.439285
0 0.966974 0.0934074 0.433324
0 0.966569 0.167797 9.9209
0 0.969167 0.0924397 0.267769
0 0.968482 0.0932208 0.398246
0 0.967752 0.0934225 0.43284
0 0.966958 0.0934471 0.43879
0 0.966548 0.168219 9.95354
0 0.969127 0.0924229 0.270195
0 0.969152 0.0924037 0.263757
0 0.969136 0.092404 0.267093
0 0.968466 0.0932375 0.406397
0 0.967746 0.0934211 0.435843
0 0.966974 0.0934153 0.435786
0 0.966567 0.168428 9.99056
0 0.968614 0.0930885 0.375653
0 0.967765 0.0933939 0.426594
0 0.966982 0.0934199 0.43457
0 0.966563 0.167697 9.91073
0 0.968488 0.0932456 0.403036
0 0.968591 0.0931027 0.38455
0 0.968608 0.0931018 0.381867
0 0.968475 0.0932546 0.409271
0 0.967737 0.0934667 0.444034
0 0.966973 0.0933947 0.430031
0 0.96657 0.167831 9.93156
0 0.967746 0.0934375 0.432887
0 0.966976 0.0934139 0.430487
0 0.966568 0.168204 9.96379
0 0.967748 0.0934539 0.437977
0 0.967747 0.0934665 0.44421
0 0.967733 0.0934554 0.441736
0 0.966954 0.0933906 0.429248
0 0.966573 0.165505 9.7529
0 0.966977 0.0934205 0.431705
0 0.966568 0.168177 9.96172
0 0.966968 0.0934056 0.432464
0 0.966971 0.0933953 0.432495
0 0.96657 0.166616 9.82545
0 0.966566 0.168061 9.97065
0 0.966569 0.167422 9.89135
VECTORS fa_u float
0.00949735 0.00392371 0
0.00893877 0.00513658 0
0.00987753 0.00263358 0
0.0100754 0.00137002 0
0.000434872 0.000144627 0
0.00811402 0.00618606 0
0.00719928 0.00717025 0
0.000396609 0.000194529 0
0.000364097 0.000254937 0
0.00618563 0.00805337 0
0.00508841 0.00881839 0
0.0100646 -1.2785e-05 0
0.0100213 -0.00138318 0
0.000459535 8.11934e-05 0
0.000455668 2.74877e-05 0
0.00043092 0.000112734 0
0.000399384 0.000157885 0
0.000337152 0.000303572 0
0.00030444 0.00034808 0
0.000359323 0.00022052 0
0.000328921 0.000273975 0
0.00396705 0.00956606 0
0.00269457 0.0100033 0
0.000258283 0.000373807 0
0.000206931 0.000391221 0
0.000447841 -3.08612e-05 0
0.00972011 -0.00259826 0
0.000438959 -8.45288e-05 0
0.00934055 -0.0038659 0
0.000447963 4.47651e-05 0
0.000435371 2.97483e-06 0
0.000387447 6.89403e-05 0
0.00133672 0.0100568 0
0.000343593 0.000117689 0
0.000344071 0.000169294 0
0.000301988 0.00032012 0
0.000272177 0.000348068 0
0.000292921 0.000214912 0
0.000289615 0.000272935 0
0.000154177 0.000422617 0
9.76743e-05 0.000460687 0
0.000221972 0.0003693 0
0.000176712 0.000385417 0
-3.68504e-06 0.0101127 0
0.000436945 -5.49369e-05 0
0.000420737 -0.000143685 0
0.000430051 -0.000109498 0
0.00870425 -0.00502981 0
0.000392955 -0.000199119 0
0.0079537 -0.00609967 0
0.000374283 1.9325e-05 0
0.000396173 -1.77967e-05 0
0.00025604 5.00454e-05 0
2.87864e-05 0.000471149 0
-2.8123e-05 0.000459354 0
0.000233562 0.000115483 0
0.000245938 0.000288326 0
0.000224892 0.000328024 0
0.000200098 0.000180802 0
0.000117668 0.000415848 0
6.02527e-05 0.000439216 0
0.000176459 0.000333481 0
0.000138089 0.000373007 0
-0.00131793 0.00989263 0
0.000361882 -6.31751e-05 0
0.000400115 -0.000175581 0
0.000370556 -0.000131364 0
0.000360756 -0.000251171 0
0.000368227 -0.000219417 0
0.0070806 -0.00707143 0
0.000328737 -0.000296145 0
0.00609862 -0.00793855 0
0.000208763 7.10104e-05 0
0.000261079 -1.65175e-05 0
0.000217809 1.65727e-05 0
-9.65466e-06 0.000446697 0
-7.62657e-05 0.000436758 0
-5.4006e-05 0.000438768 0
0.000186321 0.000125555 0
0.000185142 9.19199e-05 0
0.000161147 0.000220675 0
0.000159599 0.000168942 0
7.64691e-05 0.000359282 0
2.26887e-05 0.000388505 0
0.000103033 0.000254183 0
-0.00260652 0.00969132 0
0.0002397 -8.68176e-05 0
0.000325436 -0.000171204 0
0.000339521 -0.000275437 0
0.000323196 -0.00022547 0
0.000289455 -0.000336023 0
0.000308382 -0.000316622 0
0.00501927 -0.00868197 0
0.000243834 -0.000366557 0
0.000184771 4.32711e-05 0
0.00021242 -4.75728e-05 0
0.000194871 -1.1181e-05 0
0.000188772 -0.000102564 0
0.00386462 -0.0093069 0
-0.000134133 0.000413479 0
-2.05691e-05 0.000383423 0
-0.000107612 0.000404953 0
-7.7454e-05 0.000393688 0
0.000138751 6.6524e-05 0
0.000153673 0.000130754 0
0.00012069 0.000201943 0
0.000132781 0.000172494 0
3.56594e-05 0.000279506 0
7.15952e-05 0.000220036 0
-0.00382902 0.00922912 0
0.000207917 -0.000153352 0
0.000279213 -0.000257394 0
0.000266007 -0.000354719 0
0.000265574 -0.000316894 0
0.000193593 -0.000396564 0
0.000222914 -0.000380661 0
0.000141828 -0.000421244 0
0.000121424 2.80542e-05 0
0.000103687 7.50092e-05 0
0.000140346 -4.73318e-06 0
0.000174956 -6.08603e-05 0
0.000155822 -0.000152822 0
0.000162542 -0.000116832 0
0.000100416 -2.27523e-05 0
0.00260859 -0.00969125 0
-0.000188647 0.000392436 0
-0.000148701 0.000377988 0
-3.63885e-05 0.000299145 0
-0.000119085 0.000368505 0
0.000100657 0.000124106 0
8.42916e-05 0.000186064 0
1.10486e-05 0.000232155 0
3.92018e-05 0.000195989 0
-0.000241088 0.000374008 0
-0.00501082 0.00866698 0
0.000166988 -0.000208663 0
0.000213471 -0.000326289 0
0.000166513 -0.000408459 0
0.000180644 -0.000366799 0
8.56554e-05 -0.000440038 0
0.000115445 -0.000424097 0
0.000115713 -0.000189035 0
5.49812e-05 9.74443e-05 0
6.5881e-05 3.33891e-05 0
0.000115375 -7.44029e-05 0
0.000122319 -0.000144759 0
8.5672e-05 -0.000186557 0
6.59667e-05 -6.90704e-05 0
2.93595e-05 -2.29376e-05 0
3.08811e-05 -0.000444025 0
0.00133035 -0.00999915 0
-4.92136e-05 0.00023115 0
-0.000198972 0.000363529 0
-0.000161981 0.000365496 0
-9.5632e-05 0.000287491 0
-0.000253495 0.000354929 0
3.7422e-05 0.000150362 0
-1.38747e-05 0.000192818 0
5.08889e-06 0.000111386 0
-7.56753e-05 0.00022196 0
-0.000288151 0.000342347 0
-0.00608741 0.00794358 0
0.000113314 -0.000244566 0
0.000125141 -0.000361824 0
5.80619e-05 -0.000436443 0
8.33879e-05 -0.00039541 0
6.71335e-06 -0.000439921 0
6.61116e-05 -0.000213614 0
-4.58705e-06 4.01759e-05 0
5.86823e-05 -0.000121311 0
3.84615e-05 -0.000190955 0
1.27751e-05 -8.20134e-05 0
-3.41133e-05 -2.35379e-05 0
-2.59779e-05 -0.000433826 0
7.98173e-06 -0.00998603 0
-0.000119242 0.000215964 0
-0.000197891 0.000326487 0
-0.000160197 0.000274243 0
-0.000309464 0.000316908 0
-0.000244645 0.000297794 0
-2.78233e-05 0.000136586 0
-6.64052e-05 0.000160318 0
-5.21584e-05 8.94856e-05 0
-0.000121101 0.00017367 0
-0.000167814 0.000198732 0
-0.000327768 0.00028149 0
-0.000316254 0.000297158 0
-0.00696075 0.00703305 0
5.32026e-05 -0.000260592 0
3.48551e-05 -0.000372667 0
-5.73013e-05 -0.000428631 0
-2.17096e-05 -0.000394643 0
1.34206e-05 -0.000225577 0
-1.78794e-05 -0.000206531 0
-7.58033e-05 3.9466e-05 0
-1.18427e-05 -0.000135903 0
-3.90768e-05 -9.05571e-05 0
-0.000106108 -1.23007e-05 0
-8.56471e-05 -6.52578e-05 0
-0.000116969 -0.000414772 0
-8.4703e-05 -0.000418074 0
-0.00129605 -0.00991984 0
-0.000187288 0.000215539 0
-0.000272249 0.000252562 0
-0.000320089 0.000238599 0
-0.000196601 0.000167001 0
-0.000104116 9.33675e-05 0
-0.000167252 0.000129349 0
-0.000356162 0.000219726 0
-0.000341157 0.000251181 0
-0.00784453 0.00604326 0
-1.5231e-05 -0.000258187 0
-6.95646e-05 -0.000363184 0
-0.000139281 -0.000386874 0
-5.04009e-05 -0.000216227 0
-6.96954e-05 -0.000182568 0
-0.000141776 4.48629e-05 0
-0.000174085 -9.38626e-06 0
-8.79167e-05 -0.0001185 0
-0.000146264 -6.94493e-05 0
-0.000175107 -0.000400374 0
-0.000141988 -0.000391095 0
-0.00254368 -0.00955374 0
-0.000230133 0.000164961 0
-0.000319927 0.000168689 0
-0.000210331 0.0001065 0
-0.000176345 6.84051e-05 0
-0.000365404 0.000117235 0
-0.000396855 0.000167641 0
-0.00038076 0.000192059 0
-0.00876086 0.00503158 0
-8.6912e-05 -0.000242679 0
-0.000170557 -0.000342954 0
-0.000105841 -0.000191936 0
-0.000125496 -0.000168682 0
-0.000199732 2.13322e-05 0
-0.000206314 -3.45071e-05 0
-0.000161156 -0.000125992 0
-0.000201546 -8.44614e-05 0
-0.000234134 -0.00033178 0
-0.00021692 -0.000383369 0
-0.000187754 -0.000375285 0
-0.0037558 -0.00905546 0
-0.000247457 8.95692e-05 0
-0.000211837 5.05664e-05 0
-0.000366367 5.89416e-05 0
-0.000431618 9.6985e-05 0
-0.000414258 0.000135031 0
-0.00930065 0.00382886 0
-0.000157404 -0.000209055 0
-0.000160022 -0.000158675 0
-0.000211957 -6.55715e-06 0
-0.000210299 -6.17445e-05 0
-0.000192692 -0.000113641 0
-0.000260125 -0.00027683 0
-0.000275917 -0.000341819 0
-0.000245027 -0.000357395 0
-0.0049706 -0.00858588 0
-0.000266698 2.39212e-05 0
-0.000397613 2.24376e-05 0
-0.000429731 5.17831e-05 0
-0.000431508 7.96109e-05 0
-0.00961877 0.00255972 0
-0.000212006 -0.000167507 0
-0.000259741 -4.58506e-05 0
-0.000242997 -0.000110864 0
-0.000313026 -0.000259178 0
-0.000312539 -0.000303773 0
-0.000292311 -0.000323208 0
-0.00608262 -0.00792547 0
-0.000374971 -2.26225e-05 0
-0.000426579 -3.54868e-06 0
-0.00043353 3.00459e-05 0
-0.00982622 0.00129155 0
-0.000396124 -7.43215e-05 0
-0.000323636 -0.000207697 0