# vtk DataFile Version 2.0
CellBP Time: 3
ASCII
DATASET UNSTRUCTURED_GRID
POINTS 296 double
-9.04605 -3.71791 0
-8.47575 -4.87268 0
-9.45906 -2.49829 0
-9.70991 -1.23415 0
-8.34455 -2.81409 0
-7.76126 -5.94432 0
-6.91191 -6.91219 0
-7.90497 -3.86865 0
-7.33134 -4.8602 0
-5.94346 -7.76101 0
-4.87284 -8.47655 0
-9.80787 0.0499147 0
-9.71034 1.33406 0
-8.64439 -1.68099 0
-8.77425 -0.52794 0
-7.57669 -2.0003 0
-7.21329 -2.90132 0
-6.62748 -5.77001 0
-5.81347 -6.58685 0
-6.77868 -3.88199 0
-6.21002 -4.66765 0
-3.71758 -9.04579 0
-2.49811 -9.46011 0
-4.89885 -7.29775 0
-3.90685 -7.87431 0
-8.78075 0.641647 0
-9.4599 2.59845 0
-8.61033 1.77116 0
-9.04771 3.81858 0
-7.73129 -0.927297 0
-7.78185 0.0803041 0
-6.94117 -1.31362 0
-1.23506 -9.71122 0
-6.4311 -2.1494 0
-6.30868 -3.05087 0
-5.52711 -5.46503 0
-4.78762 -6.10492 0
-5.6498 -3.75062 0
-5.26033 -4.55354 0
-2.86149 -8.3511 0
-1.77555 -8.62655 0
-3.9214 -6.71201 0
-3.05111 -7.14039 0
0.0499401 -9.79626 0
-7.69264 1.14151 0
-8.32604 2.91102 0
-7.53881 2.10838 0
-8.47745 4.97336 0
-7.86833 3.97231 0
-7.7614 6.04406 0
-6.7678 -0.396309 0
-6.94499 0.55187 0
-5.76391 -1.00204 0
-0.589728 -8.79597 0
0.565042 -8.75747 0
-5.29606 -2.47696 0
-4.48442 -5.08715 0
-3.89572 -5.76535 0
-4.43279 -3.79954 0
-2.05864 -7.54907 0
-1.13343 -7.77252 0
-2.98924 -6.0918 0
-2.30476 -6.60835 0
1.33505 -9.71224 0
-6.67879 1.41997 0
-7.15988 3.11268 0
-6.64812 2.36895 0
-7.28403 4.98132 0
-6.7067 3.99642 0
-6.91256 7.01282 0
-6.56287 5.88559 0
-5.94416 7.86197 0
-4.44705 -1.17925 0
-5.80704 0.513104 0
-4.64987 -0.0100996 0
0.00838432 -7.83469 0
1.73643 -8.63093 0
0.947435 -7.75019 0
-4.03307 -2.403 0
-3.48028 -1.38887 0
-3.28972 -4.7988 0
-3.26125 -3.26306 0
-1.37618 -6.66468 0
-0.507959 -7.01344 0
-1.97254 -5.52947 0
2.5982 -9.46061 0
-5.50027 2.03432 0
-6.0849 3.06711 0
-6.09471 4.86144 0
-5.75193 3.98488 0
-5.75297 6.70752 0
-5.44284 5.61003 0
-4.87317 8.57739 0
-4.83145 7.39405 0
-3.49626 -0.423314 0
-4.44314 1.24757 0
-3.70589 0.591607 0
-4.05664 2.31689 0
-3.71788 9.14673 0
2.85882 -8.32071 0
0.419122 -6.78418 0
2.01886 -7.51362 0
1.30384 -6.89396 0
-2.44085 -0.872184 0
-2.83409 -2.12769 0
-2.29103 -4.09165 0
-2.32199 -2.96891 0
-0.441383 -5.85308 0
-1.22081 -4.49291 0
3.81816 -9.04783 0
-4.7836 3.38746 0
-5.07958 4.58675 0
-4.6393 6.27103 0
-4.53103 5.35061 0
-3.83818 7.98204 0
-3.82019 6.83456 0
-2.77926 8.41091 0
-1.6457 -0.13726 0
-1.44746 -0.88868 0
-2.48518 0.50701 0
-3.24861 1.44239 0
-3.23451 3.31232 0
-2.90631 2.36849 0
-1.35232 0.626404 0
-2.49831 9.56083 0
3.9274 -7.87564 0
2.96022 -7.14643 0
0.953004 -5.81347 0
2.07088 -6.40474 0
-1.68031 -1.98883 0
-1.43224 -3.27271 0
0.0904376 -4.74051 0
-0.565239 -3.68905 0
4.92544 -7.30821 0
4.97263 -8.47707 0
-3.77209 4.54583 0
-3.72859 5.74285 0
-2.88311 7.27797 0
-3.00454 6.34324 0
-1.66016 8.72136 0
-1.93678 7.60706 0
-2.33515 4.04643 0
-0.729305 -1.32469 0
-0.835115 -0.256806 0
-1.93297 1.67869 0
-2.12232 2.87181 0
-1.30424 3.53946 0
-0.867636 1.34886 0
-0.281566 0.455334 0
-0.532721 8.85927 0
-1.23512 9.81233 0
1.11136 -4.5682 0
3.90443 -6.70662 0
2.9833 -6.08416 0
2.11516 -5.4168 0
4.77728 -6.19515 0
-0.557964 -2.4728 0
0.494657 -3.45859 0
0.0536454 -1.60753 0
1.47981 -3.67606 0
5.85945 -6.60518 0
6.04335 -7.76119 0
-2.47259 5.34172 0
-2.12698 6.5242 0
-0.902496 7.79068 0
-1.2701 6.92078 0
0.0862421 7.86756 0
-1.14275 4.48874 0
0.150175 -0.616639 0
-0.795839 2.48511 0
-0.330668 3.59536 0
0.0634485 1.51038 0
0.740517 0.472681 0
0.64594 8.86208 0
0.0500407 9.89721 0
2.37774 -4.27932 0
3.85364 -5.63117 0
2.99698 -5.20508 0
5.56536 -5.48306 0
4.68431 -5.27483 0
0.628895 -2.28973 0
1.25438 -2.94696 0
0.756056 -1.38911 0
2.16108 -3.13114 0
2.98923 -3.47117 0
6.14626 -4.78418 0
6.64826 -5.76128 0
7.01281 -6.912 0
-1.01836 5.81313 0
-0.371813 6.87304 0
1.12082 7.75713 0
0.557177 7.06856 0
-0.000542299 4.7189 0
0.606418 3.82202 0
1.3369 -0.640915 0
0.538729 2.64723 0
0.965018 1.57234 0
1.90739 0.213398 0
1.61245 1.0631 0
2.126 7.5716 0
1.79682 8.7008 0
1.33527 9.81197 0
3.81776 -4.34574 0
5.10917 -4.44224 0
5.83703 -3.92874 0
3.77873 -3.19656 0
1.80953 -1.88021 0
3.01475 -2.5705 0
6.77366 -3.94208 0
7.37295 -4.8912 0
7.87088 -5.95102 0
0.482765 5.87446 0
1.42612 6.73173 0
2.37043 6.65819 0
1.20853 4.55021 0
1.48625 3.39254 0
2.43208 -0.690933 0
2.82345 0.14218 0
1.78652 2.1595 0
2.60801 1.1481 0
3.06715 7.15875 0
2.90041 8.36623 0
2.59904 9.56242 0
4.9052 -3.32352 0
6.11215 -3.10418 0
4.16737 -2.2725 0
3.23985 -1.50122 0
6.7216 -2.3098 0
7.22133 -3.03797 0
7.95517 -3.90751 0
8.5809 -4.87586 0
2.02128 5.59328 0
3.08197 6.14419 0
2.36113 4.12169 0
2.41675 3.0562 0
3.52046 -0.460451 0
3.6103 0.612183 0
2.95759 2.28455 0
3.54031 1.52283 0
4.0061 5.8892 0
3.97882 6.78278 0
3.96863 7.9291 0
3.81889 9.14918 0
5.56252 -1.91386 0
4.50381 -1.1284 0
6.70448 -1.3345 0
7.58126 -2.0338 0
8.38693 -2.85821 0
9.1521 -3.72037 0
3.41523 4.87159 0
3.33496 3.38113 0
4.68591 0.129751 0
4.51387 1.30821 0
4.0605 2.44072 0
4.56418 5.1454 0
4.83679 6.18197 0
4.97463 7.37174 0
4.97318 8.57759 0
5.87689 -0.434342 0
7.00089 -0.487618 0
7.74873 -1.08388 0
8.67457 -1.74391 0
9.55971 -2.4983 0
4.54749 3.82342 0
5.81158 1.09741 0
5.36562 2.5322 0
5.37271 4.61422 0
5.60471 5.51602 0
5.89056 6.66438 0
6.04402 7.86168 0
6.83705 0.46301 0
7.84292 -0.0257235 0
8.85045 -0.583556 0
9.81367 -1.23519 0
6.9511 1.34767 0
5.71372 3.77347 0
6.53312 2.1946 0
6.3718 3.08374 0
6.28413 4.68075 0
6.68586 5.83171 0
7.01259 7.01249 0
7.77409 0.966391 0
8.84977 0.572185 0
9.8969 0.0499462 0
7.60639 2.0016 0
6.82053 3.89901 0
7.26024 2.94298 0
7.37069 4.8806 0
7.86376 6.04588 0
8.71358 1.72525 0
9.81185 1.33524 0
8.41223 2.83505 0
7.97362 3.91209 0
8.57771 4.97319 0
9.56178 2.59932 0
9.15432 3.82122 0
CELLS 542 2168
3 2 0 4
3 0 1 7
3 4 0 7
3 1 5 8
3 7 1 8
3 3 2 13
3 13 2 4
3 11 3 14
3 14 3 13
3 13 4 15
3 4 7 16
3 15 4 16
3 5 6 17
3 8 5 17
3 6 9 18
3 17 6 18
3 7 8 19
3 16 7 19
3 8 17 20
3 19 8 20
3 9 10 23
3 18 9 23
3 10 21 24
3 23 10 24
3 12 11 25
3 25 11 14
3 26 12 27
3 27 12 25
3 14 13 29
3 29 13 15
3 25 14 30
3 30 14 29
3 29 15 31
3 15 16 33
3 31 15 33
3 16 19 34
3 33 16 34
3 17 18 35
3 20 17 35
3 18 23 36
3 35 18 36
3 19 20 37
3 34 19 37
3 20 35 38
3 37 20 38
3 21 22 39
3 24 21 39
3 22 32 40
3 39 22 40
3 23 24 41
3 36 23 41
3 24 39 42
3 41 24 42
3 27 25 44
3 44 25 30
3 28 26 45
3 45 26 27
3 45 27 46
3 46 27 44
3 47 28 48
3 48 28 45
3 30 29 50
3 50 29 31
3 44 30 51
3 51 30 50
3 50 31 52
3 31 33 52
3 32 43 53
3 40 32 53
3 53 43 54
3 33 34 55
3 34 37 55
3 33 55 52
3 35 36 56
3 38 35 56
3 36 41 57
3 56 36 57
3 37 38 58
3 38 56 58
3 37 58 55
3 39 40 59
3 42 39 59
3 40 53 60
3 59 40 60
3 41 42 61
3 57 41 61
3 42 59 62
3 61 42 62
3 43 63 54
3 46 44 64
3 64 44 51
3 48 45 65
3 65 45 46
3 65 46 66
3 66 46 64
3 49 47 67
3 67 47 48
3 67 48 68
3 68 48 65
3 69 49 70
3 70 49 67
3 52 55 72
3 64 51 73
3 51 50 73
3 50 52 73
3 73 52 74
3 74 52 72
3 53 54 75
3 60 53 75
3 54 63 76
3 54 76 77
3 75 54 77
3 55 58 78
3 72 55 78
3 72 78 79
3 56 57 80
3 57 61 80
3 56 80 58
3 58 80 81
3 78 58 81
3 59 60 82
3 62 59 82
3 60 75 83
3 82 60 83
3 61 62 84
3 62 82 84
3 61 84 80
3 63 85 76
3 66 64 86
3 64 73 86
3 68 65 87
3 87 65 66
3 87 66 86
3 70 67 88
3 88 67 68
3 88 68 89
3 89 68 87
3 71 69 90
3 90 69 70
3 90 70 91
3 91 70 88
3 92 71 93
3 93 71 90
3 74 72 94
3 94 72 79
3 86 73 95
3 95 73 74
3 95 74 96
3 96 74 94
3 97 86 95
3 76 85 99
3 75 77 100
3 83 75 100
3 76 99 101
3 77 76 101
3 77 101 102
3 100 77 102
3 94 79 103
3 78 81 104
3 79 78 104
3 79 104 103
3 80 84 105
3 81 80 105
3 81 105 106
3 104 81 106
3 82 83 107
3 83 100 107
3 82 107 84
3 84 107 108
3 105 84 108
3 85 109 99
3 89 87 110
3 87 86 110
3 110 86 97
3 91 88 111
3 111 88 89
3 111 89 110
3 93 90 112
3 112 90 91
3 112 91 113
3 113 91 111
3 98 92 114
3 114 92 93
3 114 93 115
3 115 93 112
3 116 98 114
3 117 103 118
3 96 94 119
3 94 103 119
3 119 103 117
3 97 95 120
3 120 95 96
3 120 96 119
3 121 110 97
3 121 97 122
3 122 97 120
3 123 119 117
3 124 98 116
3 99 109 125
3 99 125 126
3 101 99 126
3 100 102 127
3 100 127 107
3 101 126 128
3 102 101 128
3 102 128 127
3 104 106 129
3 104 129 103
3 103 129 118
3 105 108 130
3 106 105 130
3 106 130 129
3 107 127 131
3 108 107 131
3 108 131 132
3 108 132 130
3 109 134 125
3 125 134 133
3 113 111 135
3 111 110 135
3 135 110 121
3 115 112 136
3 136 112 113
3 136 113 135
3 116 114 137
3 137 114 115
3 137 115 138
3 138 115 136
3 139 124 116
3 139 116 140
3 140 116 137
3 141 135 121
3 118 129 142
3 118 142 143
3 117 118 143
3 123 117 143
3 122 120 144
3 120 119 144
3 144 119 123
3 141 121 145
3 145 121 122
3 145 122 144
3 146 141 145
3 147 144 123
3 147 123 148
3 143 148 123
3 150 124 139
3 149 150 139
3 131 127 151
3 125 133 152
3 126 125 152
3 126 152 153
3 128 126 153
3 128 153 154
3 128 154 127
3 127 154 151
3 152 133 155
3 130 132 156
3 130 156 129
3 129 156 142
3 131 151 157
3 132 131 157
3 132 157 156
3 156 158 142
3 157 151 159
3 133 160 155
3 134 161 133
3 133 161 160
3 138 136 162
3 136 135 162
3 162 135 141
3 140 137 163
3 163 137 138
3 163 138 162
3 149 139 164
3 164 139 140
3 164 140 165
3 165 140 163
3 166 149 164
3 167 162 141
3 167 141 146
3 142 158 168
3 143 142 168
3 143 168 148
3 146 145 169
3 145 144 169
3 169 144 147
3 170 167 146
3 170 146 169
3 171 169 147
3 171 147 148
3 171 148 172
3 168 172 148
3 173 149 166
3 174 150 149
3 173 174 149
3 154 175 151
3 151 175 159
3 152 155 176
3 153 152 176
3 153 176 177
3 153 177 154
3 154 177 175
3 155 160 178
3 155 178 179
3 176 155 179
3 156 157 180
3 156 180 158
3 157 159 181
3 157 181 180
3 158 180 182
3 158 182 168
3 159 175 183
3 159 183 181
3 175 184 183
3 160 186 178
3 178 186 185
3 161 187 160
3 160 187 186
3 165 163 188
3 163 162 188
3 188 162 167
3 166 164 189
3 189 164 165
3 189 165 188
3 190 173 166
3 190 166 191
3 191 166 189
3 192 188 167
3 192 167 170
3 193 192 170
3 182 194 168
3 194 172 168
3 193 170 195
3 170 169 195
3 195 169 171
3 196 195 171
3 196 171 172
3 194 197 172
3 197 198 172
3 198 196 172
3 200 173 190
3 199 200 190
3 201 174 173
3 200 201 173
3 176 179 202
3 177 176 202
3 177 202 175
3 175 202 184
3 178 185 203
3 178 203 179
3 179 203 202
3 203 185 204
3 202 205 184
3 183 206 181
3 180 181 206
3 180 206 182
3 182 206 194
3 183 184 207
3 205 207 184
3 183 207 206
3 185 208 204
3 186 209 185
3 185 209 208
3 187 210 186
3 186 210 209
3 191 189 211
3 189 188 211
3 211 188 192
3 199 190 212
3 212 190 191
3 212 191 211
3 213 199 212
3 214 211 192
3 214 192 193
3 215 214 193
3 215 193 195
3 206 216 194
3 216 197 194
3 216 217 197
3 215 195 218
3 218 195 196
3 198 218 196
3 217 219 197
3 219 218 198
3 197 219 198
3 220 199 213
3 221 200 199
3 220 221 199
3 222 201 200
3 221 222 200
3 203 204 223
3 203 223 202
3 202 223 205
3 204 208 224
3 204 224 223
3 205 223 225
3 205 225 207
3 207 225 226
3 207 226 206
3 226 216 206
3 208 228 224
3 224 228 227
3 209 229 208
3 229 228 208
3 210 230 209
3 209 230 229
3 213 212 231
3 212 211 231
3 231 211 214
3 232 220 213
3 232 213 231
3 233 231 214
3 233 214 215
3 234 233 215
3 234 215 218
3 226 235 216
3 235 217 216
3 235 236 217
3 217 236 219
3 237 234 218
3 237 218 219
3 236 238 219
3 238 237 219
3 240 220 232
3 239 240 232
3 241 221 220
3 240 241 220
3 242 222 221
3 241 242 221
3 224 227 243
3 224 243 223
3 223 243 225
3 225 243 244
3 225 244 226
3 226 244 235
3 227 245 243
3 228 246 227
3 227 246 245
3 229 247 228
3 228 247 246
3 230 248 229
3 229 248 247
3 239 232 249
3 232 231 249
3 249 231 233
3 250 249 233
3 250 233 234
3 237 250 234
3 244 251 235
3 235 251 236
3 251 252 236
3 236 252 238
3 252 253 238
3 253 250 237
3 253 237 238
3 254 239 249
3 255 240 239
3 254 255 239
3 256 241 240
3 255 256 240
3 257 242 241
3 256 257 241
3 245 258 243
3 243 258 244
3 244 258 251
3 245 259 258
3 246 260 245
3 245 260 259
3 247 261 246
3 246 261 260
3 248 262 247
3 247 262 261
3 254 249 263
3 263 249 250
3 253 263 250
3 258 264 251
3 251 264 252
3 264 265 252
3 265 263 253
3 252 265 253
3 266 254 263
3 267 255 254
3 266 267 254
3 268 256 255
3 267 268 255
3 269 257 256
3 268 269 256
3 259 270 258
3 270 264 258
3 260 271 259
3 259 271 270
3 261 272 260
3 260 272 271
3 262 273 261
3 273 272 261
3 270 274 264
3 275 266 263
3 275 263 265
3 274 276 264
3 276 265 264
3 276 277 265
3 277 275 265
3 278 267 266
3 275 278 266
3 279 268 267
3 278 279 267
3 280 269 268
3 279 280 268
3 271 281 270
3 270 281 274
3 272 282 271
3 271 282 281
3 273 283 272
3 272 283 282
3 281 284 274
3 274 284 276
3 285 278 275
3 277 285 275
3 284 286 276
3 286 285 277
3 276 286 277
3 287 279 278
3 285 287 278
3 288 280 279
3 287 288 279
3 282 289 281
3 281 289 284
3 283 290 282
3 282 290 289
3 289 291 284
3 284 291 286
3 291 292 286
3 292 287 285
3 286 292 285
3 293 288 287
3 292 293 287
3 290 294 289
3 289 294 291
3 294 295 291
3 295 293 292
3 291 295 292
CELL_TYPES 542
5
5
5
5
5
5
5
5
5
5
5
5
5
5
5
5
5
5
5
5
5
5
5
5
5
5
5
5
5
5
5
5
5
5
5
5
5
5
5
5
5
5
5
5
5
5
5
5
5
5
5
5
5
5
5
5
5
5
5
5
5
5
5
5
5
5
5
5
5
5
5
5
5
5
5
5
5
5
5
5
5
5
5
5
5
5
5
5
5
5
5
5
5
5
5
5
5
5
5
5
5
5
5
5
5
5
5
5
5
5
5
5
5
5
5
5
5
5
5
5
5
5
5
5
5
5
5
5
5
5
5
5
5
5
5
5
5
5
5
5
5
5
5
5
5
5
5
5
5
5
5
5
5
5
5
5
5
5
5
5
5
5
5
5
5
5
5
5
5
5
5
5
5
5
5
5
5
5
5
5
5
5
5
5
5
5
5
5
5
5
5
5
5
5
5
5
5
5
5
5
5
5
5
5
5
5
5
5
5
5
5
5
5
5
5
5
5
5
5
5
5
5
5
5
5
5
5
5
5
5
5
5
5
5
5
5
5
5
5
5
5
5
5
5
5
5
5
5
5
5
5
5
5
5
5
5
5
5
5
5
5
5
5
5
5
5
5
5
5
5
5
5
5
5
5
5
5
5
5
5
5
5
5
5
5
5
5
5
5
5
5
5
5
5
5
5
5
5
5
5
5
5
5
5
5
5
5
5
5
5
5
5
5
5
5
5
5
5
5
5
5
5
5
5
5
5
5
5
5
5
5
5
5
5
5
5
5
5
5
5
5
5
5
5
5
5
5
5
5
5
5
5
5
5
5
5
5
5
5
5
5
5
5
5
5
5
5
5
5
5
5
5
5
5
5
5
5
5
5
5
5
5
5
5
5
5
5
5
5
5
5
5
5
5
5
5
5
5
5
5
5
5
5
5
5
5
5
5
5
5
5
5
5
5
5
5
5
5
5
5
5
5
5
5
5
5
5
5
5
5
5
5
5
5
5
5
5
5
5
5
5
5
5
5
5
5
5
5
5
5
5
5
5
5
5
5
5
5
5
5
5
5
5
5
5
5
5
5
5
5
5
5
5
5
5
5
5
5
5
5
5
5
5
5
5
5
5
5
5
5
5
5
5
5
5
5
5
5
5
5
5
5
5
5
5
5
5
5
5
5
5
5
5
5
5
5
5
5
5
5
5
5
5
5
5
5
5
5
5
5
5
5
5
5
5
5
5
5
5
5
5
5
POINT_DATA 296
SCALARS concentrations float 4
LOOKUP_TABLE default
0 0.967604 0.173972 10.425
0 0.967582 0.170165 10.7593
0 0.967613 0.173494 10.5049
0 0.967634 0.172747 10.4446
0 0.968021 0.0936643 0.476094
0 0.967595 0.17325 10.3468
0 0.967578 0.172934 10.4395
0 0.968013 0.0937352 0.394216
0 0.967999 0.0937404 0.394375
0 0.967573 0.172836 10.432
0 0.96758 0.172956 10.3248
0 0.967659 0.171728 10.3376
0 0.967666 0.172109 10.4025
0 0.968054 0.0936044 0.465168
0 0.968074 0.0935284 0.451365
0 0.968862 0.0935504 0.446313
0 0.968803 0.0935467 0.397339
0 0.968011 0.0936046 0.468892
0 0.967995 0.0935669 0.466609
0 0.968809 0.0935439 0.388134
0 0.968795 0.0935307 0.39099
0 0.96755 0.169847 10.8325
0 0.967565 0.174743 10.5125
0 0.968005 0.0935898 0.469327
0 0.967982 0.0937034 0.398119
0 0.968091 0.0935155 0.451753
0 0.967667 0.171764 10.3446
0 0.968075 0.0935354 0.456108
0 0.967666 0.172265 10.3888
0 0.968878 0.0935257 0.44826
0 0.968895 0.0934447 0.437659
0 0.969637 0.0932171 0.392911
0 0.967574 0.172674 10.4274
0 0.969729 0.093092 0.347163
0 0.969566 0.0932626 0.35225
0 0.968822 0.0935055 0.442054
0 0.968812 0.0935074 0.44509
0 0.969704 0.093125 0.3413
0 0.969574 0.093294 0.378898
0 0.967985 0.0937756 0.401582
0 0.967978 0.0937517 0.496626
0 0.968789 0.0935324 0.402393
0 0.96876 0.0935477 0.39955
0 0.967592 0.170793 10.4194
0 0.968883 0.0934988 0.446989
0 0.968086 0.0935365 0.451981
0 0.968884 0.0935421 0.452019
0 0.967671 0.171683 10.3268
0 0.968085 0.0935112 0.441911
0 0.967678 0.171364 10.2968
0 0.969751 0.0930937 0.379082
0 0.969621 0.0932252 0.400517
0 0.970299 0.0924234 0.265012
0 0.968013 0.0936998 0.467618
0 0.968016 0.0936332 0.448202
0 0.970293 0.0924573 0.259211
0 0.969727 0.0931554 0.382988
0 0.969576 0.0932885 0.383727
0 0.970289 0.0924965 0.275951
0 0.968786 0.093572 0.401065
0 0.968837 0.0935674 0.448672
0 0.96969 0.093209 0.365173
0 0.969533 0.0933475 0.377006
0 0.967629 0.170937 10.2517
0 0.969757 0.0930676 0.371082
0 0.96888 0.0935127 0.443834
0 0.969628 0.0932384 0.398458
0 0.968098 0.0934844 0.4384
0 0.968898 0.0934579 0.433162
0 0.967682 0.171166 10.2798
0 0.968091 0.093478 0.447595
0 0.967673 0.171165 10.2846
0 0.970731 0.0921517 0.224495
0 0.970298 0.0924182 0.263084
0 0.970743 0.0921468 0.219371
0 0.968865 0.0935459 0.439102
0 0.968073 0.0935244 0.447343
0 0.968857 0.0935292 0.440838
0 0.970737 0.0921668 0.230848
0 0.971113 0.0920298 0.205426
0 0.970288 0.0925117 0.286331
0 0.970728 0.0922022 0.242325
0 0.969707 0.0931278 0.358493
0 0.969593 0.0932129 0.392345
0 0.970288 0.0925366 0.285039
0 0.967674 0.17152 10.3132
0 0.970295 0.0923962 0.256658
0 0.969755 0.0930869 0.373221
0 0.968888 0.0934877 0.443221
0 0.969633 0.0932385 0.400676
0 0.968092 0.0934899 0.452933
0 0.968889 0.0935006 0.44931
0 0.967662 0.169887 10.3328
0 0.968075 0.0935372 0.438656
0 0.971182 0.0919479 0.186348
0 0.970731 0.0921554 0.216635
0 0.971138 0.0920043 0.192266
0 0.97075 0.0921373 0.217628
0 0.967665 0.170362 10.3826
0 0.968106 0.0934736 0.446524
0 0.969718 0.0931664 0.39172
0 0.968869 0.0933918 0.426734
0 0.96958 0.0932738 0.407125
0 0.971435 0.0917042 0.143441
0 0.971168 0.0919746 0.197196
0 0.970739 0.0922178 0.248818
0 0.971115 0.092067 0.218194
0 0.970307 0.0925459 0.298167
0 0.970754 0.0921987 0.24731
0 0.9677 0.171103 10.2718
0 0.970315 0.0924108 0.265563
0 0.969768 0.0931373 0.387746
0 0.968874 0.093521 0.446406
0 0.96963 0.0933286 0.420099
0 0.968077 0.0935547 0.429222
0 0.968881 0.0935194 0.435125
0 0.968087 0.0935472 0.441077
0 0.97166 0.0915496 0.117182
0 0.971665 0.0915456 0.116263
0 0.971454 0.0916654 0.135166
0 0.9712 0.0919464 0.183407
0 0.970752 0.0921335 0.227912
0 0.97115 0.0920235 0.20402
0 0.971709 0.091441 0.0998176
0 0.967685 0.171407 10.3099
0 0.968129 0.0934562 0.438471
0 0.968919 0.0933083 0.414744
0 0.970291 0.0926448 0.31377
0 0.969687 0.0931831 0.395179
0 0.971451 0.0917108 0.146076
0 0.971184 0.0919868 0.204162
0 0.970795 0.0922014 0.246357
0 0.971155 0.0919784 0.205134
0 0.968106 0.0934756 0.441595
0 0.967698 0.171272 10.2853
0 0.970329 0.0924363 0.279402
0 0.969768 0.0931811 0.396077
0 0.968881 0.0935133 0.435293
0 0.969637 0.0932975 0.410929
0 0.968112 0.093494 0.455656
0 0.968898 0.0934808 0.441794
0 0.970769 0.0921353 0.236066
0 0.971723 0.0914557 0.101502
0 0.97182 0.0912565 0.0698589
0 0.971478 0.0916443 0.13657
0 0.97122 0.0919449 0.197042
0 0.971162 0.0920351 0.216744
0 0.9717 0.0914032 0.0934112
0 0.971839 0.091079 0.0365319
0 0.968112 0.0934694 0.450392
0 0.967698 0.171965 10.363
0 0.970772 0.0922242 0.242138
0 0.968927 0.0933351 0.41812
0 0.969654 0.0932481 0.406771
0 0.970344 0.0926506 0.309633
0 0.968881 0.0934415 0.437106
0 0.97148 0.0917011 0.146588
0 0.971237 0.0919467 0.19349
0 0.97173 0.0914697 0.103689
0 0.971086 0.092201 0.235159
0 0.968076 0.0934815 0.45041
0 0.967675 0.171185 10.2835
0 0.970333 0.0924314 0.284541
0 0.969773 0.0931317 0.389103
0 0.968899 0.0934666 0.446795
0 0.969638 0.093256 0.410447
0 0.9689 0.0934809 0.446297
0 0.970752 0.0921514 0.237839
0 0.971847 0.0910892 0.0383206
0 0.971487 0.091626 0.136883
0 0.971208 0.0919836 0.20263
0 0.97172 0.0913453 0.078601
0 0.971817 0.0911236 0.0348217
0 0.968118 0.0934409 0.436367
0 0.967703 0.170995 10.2618
0 0.970712 0.0922936 0.251841
0 0.969695 0.0931303 0.388226
0 0.970247 0.0927398 0.326031
0 0.968855 0.0935155 0.447332
0 0.969629 0.0931565 0.387668
0 0.97156 0.0916337 0.131761
0 0.971403 0.0918357 0.16798
0 0.971734 0.0914441 0.0953332
0 0.971195 0.0920679 0.211084
0 0.970833 0.0923691 0.268551
0 0.968802 0.0935151 0.405157
0 0.968041 0.0934796 0.457788
0 0.967666 0.170217 10.1626
0 0.970317 0.0924199 0.278185
0 0.969772 0.0930812 0.382084
0 0.968892 0.0934601 0.437994
0 0.969652 0.0932186 0.40137
0 0.970746 0.0921793 0.235662
0 0.971144 0.0920715 0.212103
0 0.97175 0.0913506 0.0764598
0 0.971475 0.0916557 0.135565
0 0.971686 0.0914452 0.0944084
0 0.971691 0.0914742 0.0999823
0 0.971679 0.091496 0.104681
0 0.968897 0.0934629 0.436342
0 0.968116 0.0934258 0.429194
0 0.967705 0.171233 10.2777
0 0.970296 0.0925522 0.294308
0 0.969721 0.0931149 0.360123
0 0.969555 0.093326 0.371057
0 0.97069 0.092377 0.270932
0 0.971491 0.0916487 0.131798
0 0.971146 0.0920681 0.21626
0 0.968804 0.0934934 0.386755
0 0.968046 0.0935877 0.382757
0 0.967676 0.170171 10.0478
0 0.970299 0.0923882 0.264935
0 0.969765 0.0930716 0.374885
0 0.969633 0.0933264 0.415487
0 0.970726 0.0921682 0.226349
0 0.971187 0.0920086 0.19854
0 0.971525 0.0916996 0.140459
0 0.971465 0.0918561 0.170804
0 0.971452 0.0917297 0.148945
0 0.971454 0.0918007 0.163975
0 0.968867 0.0934898 0.44098
0 0.96811 0.0933644 0.418576
0 0.967709 0.170085 10.158
0 0.970273 0.0925761 0.286317
0 0.969729 0.0931003 0.338694
0 0.970774 0.0922371 0.248562
0 0.971221 0.0919341 0.189748
0 0.96965 0.0932136 0.359643
0 0.968829 0.0935434 0.390745
0 0.968051 0.0936177 0.374467
0 0.967653 0.167744 10.585
0 0.970304 0.092391 0.261194
0 0.969764 0.0931498 0.386713
0 0.970726 0.0921536 0.225202
0 0.971122 0.0920965 0.217363
0 0.971174 0.0920089 0.20094
0 0.971152 0.0920674 0.212155
0 0.971174 0.0920576 0.213711
0 0.971107 0.0921326 0.226919
0 0.969641 0.0932822 0.410329
0 0.968883 0.0934937 0.444005
0 0.968107 0.0933608 0.420866
0 0.96771 0.169233 10.0751
0 0.970317 0.0924472 0.270039
0 0.970793 0.0921265 0.227365
0 0.969785 0.093091 0.374563
0 0.968885 0.0935327 0.445927
0 0.968082 0.0935201 0.456329
0 0.967685 0.171736 10.2031
0 0.970296 0.0924122 0.269112
0 0.97072 0.0921827 0.23698
0 0.97077 0.0920928 0.218387
0 0.970725 0.0921387 0.228773
0 0.970723 0.0921671 0.237183
0 0.969753 0.0931229 0.386426
0 0.968877 0.0934774 0.442639
0 0.968112 0.0934201 0.437892
0 0.967705 0.170355 10.1956
0 0.970337 0.0924499 0.27846
0 0.969653 0.093238 0.404302
0 0.968907 0.0934409 0.433353
0 0.968089 0.0934545 0.441943
0 0.967687 0.170818 10.2263
0 0.970297 0.0924511 0.284158
0 0.970309 0.0924211 0.274768
0 0.970301 0.0924312 0.282475
0 0.969626 0.0932831 0.41318
0 0.968887 0.0934679 0.436976
0 0.968102 0.0934392 0.437713
0 0.967699 0.170991 10.2642
0 0.969771 0.0931102 0.386085
0 0.968919 0.0934154 0.431259
0 0.968122 0.0934265 0.433779
0 0.967696 0.170281 10.1823
0 0.969636 0.0932761 0.415458
0 0.969753 0.0931486 0.39676
0 0.969759 0.0931382 0.396491
0 0.969631 0.093301 0.422949
0 0.968876 0.0935213 0.444402
0 0.968093 0.093448 0.424634
0 0.967687 0.170343 10.2033
0 0.96889 0.0934669 0.443456
0 0.968117 0.0934273 0.434924
0 0.967707 0.170782 10.2341
0 0.968889 0.0934911 0.453334
0 0.968889 0.093521 0.453004
0 0.968873 0.0935004 0.456346
0 0.968074 0.0934559 0.426708
0 0.967688 0.167161 10.0537
0 0.968115 0.0934445 0.441855
0 0.967707 0.170733 10.2362
0 0.968105 0.0934342 0.447201
0 0.9681 0.0934314 0.442101
0 0.967688 0.168823 10.119
0 0.967704 0.170335 10.2695
0 0.967702 0.169894 10.1737
VECTORS fa_u float
0.00960105 0.00406208 0
0.00932302 0.00537058 0
0.0101456 0.00272381 0
0.0103486 0.00141257 0
0.000458824 0.00012707 0
0.00827551 0.00621071 0
0.00740466 0.00735897 0
0.00035972 0.000161269 0
0.000314431 0.000238044 0
0.00633692 0.00828668 0
0.00508792 0.00898414 0
0.0103376 -2.42788e-06 0
0.0103059 -0.00141465 0
0.000459142 7.46262e-05 0
0.000450414 2.9288e-05 0
0.000436937 9.10012e-05 0
0.000381625 0.000110638 0
0.000330047 0.000333059 0
0.000304954 0.000353168 0
0.000329182 0.000205638 0
0.000272608 0.000280283 0
0.0041352 0.0100121 0
0.00281878 0.0101275 0
0.000282206 0.000375004 0
0.000196917 0.000346009 0
0.000450677 -3.11558e-05 0
0.00999362 -0.00267157 0
0.000447265 -8.93757e-05 0
0.00959834 -0.0039748 0
0.00044629 4.19703e-05 0
0.000437614 6.30376e-06 0
0.000387787 6.32452e-05 0
0.00139025 0.0103343 0
0.000334221 9.39065e-05 0
0.000320163 0.000146888 0
0.000289507 0.000334062 0
0.000278922 0.000346854 0
0.000269673 0.000209193 0
0.000255356 0.000279923 0
0.000126533 0.000381126 0
8.35598e-05 0.000489546 0
0.000234331 0.000327123 0
0.000170177 0.000361497 0
-2.96251e-06 0.0104194 0
0.000443524 -5.55513e-05 0
0.000426595 -0.000149344 0
0.000437046 -0.000115379 0
0.008944 -0.00516206 0
0.000392114 -0.000203794 0
0.00818279 -0.00625024 0
0.000378264 2.48978e-05 0
0.000400288 -1.35519e-05 0
0.000260362 4.94253e-05 0
3.05893e-05 0.000466617 0
-2.11667e-05 0.000447702 0
0.000234032 0.000111442 0
0.000242875 0.000296128 0
0.000228376 0.000308368 0
0.000201578 0.000188455 0
7.19362e-05 0.000394561 0
4.26171e-05 0.000446643 0
0.000171387 0.000322456 0
0.000121882 0.000356761 0
-0.00135814 0.0101613 0
0.000365178 -6.59328e-05 0
0.000403897 -0.000183998 0
0.000373198 -0.000139614 0
0.00035601 -0.000255835 0
0.000368288 -0.000228019 0
0.00729556 -0.0072422 0
0.000329844 -0.000302563 0
0.00629337 -0.00813427 0
0.000214009 6.78105e-05 0
0.000262571 -1.64296e-05 0
0.000218799 1.5836e-05 0
-5.6728e-06 0.000439066 0
-7.72366e-05 0.000440625 0
-4.54239e-05 0.000438492 0
0.000193626 0.000125698 0
0.000187118 8.47733e-05 0
0.000164619 0.000234278 0
0.000165352 0.000177145 0
5.50399e-05 0.000354243 0
2.1943e-05 0.000391731 0
9.87322e-05 0.000267393 0
-0.00268615 0.00995729 0
0.000238938 -9.37112e-05 0
0.000326064 -0.000181593 0
0.000339311 -0.000285155 0
0.000323224 -0.000236786 0
0.000300221 -0.00033914 0
0.000310859 -0.000324417 0
0.00518736 -0.00893635 0
0.000250619 -0.000360013 0
0.000182558 3.73933e-05 0
0.000210517 -5.1121e-05 0
0.000191728 -1.43687e-05 0
0.000187271 -0.000110868 0
0.00396635 -0.00959511 0
-0.000137094 0.000424957 0
-7.78243e-06 0.000391642 0
-0.000103542 0.000413982 0
-6.47411e-05 0.000401944 0
0.000131647 5.69599e-05 0
0.000152733 0.000124736 0
0.000120218 0.000217849 0
0.000130592 0.000174799 0
3.88467e-05 0.000295625 0
6.92118e-05 0.000237427 0
-0.00395537 0.00947968 0
0.00020793 -0.000165193 0
0.0002795 -0.000268751 0
0.000270561 -0.000355071 0
0.000266325 -0.000324891 0
0.000187481 -0.000386112 0
0.000222358 -0.000374019 0
0.00013093 -0.000421197 0
0.000114745 2.3774e-05 0
9.54676e-05 6.6355e-05 0
0.000134976 -7.1645e-06 0
0.000171672 -6.45531e-05 0
0.000157033 -0.00016518 0
0.000162308 -0.000123613 0
9.75602e-05 -2.11082e-05 0
0.00264908 -0.00996378 0
-0.000190364 0.000394992 0
-0.000151772 0.000385977 0
-2.53654e-05 0.000312743 0
-0.000114781 0.000378142 0
9.15208e-05 0.000113851 0
7.67122e-05 0.000189202 0
1.56064e-05 0.000245862 0
3.52841e-05 0.000202077 0
-0.000241 0.000370034 0
-0.00516706 0.00889315 0
0.00016824 -0.000223071 0
0.000214778 -0.000332788 0
0.000160623 -0.000404575 0
0.000180959 -0.000368939 0
8.20054e-05 -0.000448216 0
0.00011324 -0.000427035 0
0.00012079 -0.000202823 0
4.92256e-05 8.8767e-05 0
6.24232e-05 3.13625e-05 0
0.000114477 -7.44738e-05 0
0.000125521 -0.000151888 0
9.2899e-05 -0.000195826 0
6.74639e-05 -6.46086e-05 0
3.14208e-05 -1.86363e-05 0
3.696e-05 -0.000448873 0
0.00133907 -0.0102761 0
-4.40957e-05 0.00023809 0
-0.000205451 0.000364162 0
-0.000169282 0.000369873 0
-9.38644e-05 0.000295063 0
-0.000254207 0.000355584 0
3.14453e-05 0.000143175 0
-1.18872e-05 0.000193125 0
5.78213e-06 0.000103527 0
-7.25976e-05 0.000223672 0
-0.000285324 0.00034851 0
-0.00626949 0.00815128 0
0.000119833 -0.000258077 0
0.000129222 -0.000367019 0
6.48936e-05 -0.000442058 0
9.11143e-05 -0.000400206 0
1.61103e-05 -0.000446006 0
7.54818e-05 -0.000225543 0
-1.13304e-06 3.83038e-05 0
6.25796e-05 -0.000121741 0
4.58611e-05 -0.000197371 0
1.64935e-05 -7.6851e-05 0
-2.83954e-05 -2.01557e-05 0
-1.80456e-05 -0.000435994 0
-1.07992e-05 -0.0102617 0
-0.00012342 0.000219526 0
-0.000209404 0.000326908 0
-0.000170078 0.000278154 0
-0.000298937 0.00033278 0
-0.000246146 0.000299498 0
-2.40065e-05 0.000129556 0
-6.08914e-05 0.000156555 0
-4.55743e-05 8.37341e-05 0
-0.00012003 0.000173636 0
-0.000176873 0.000202078 0
-0.000284097 0.000288862 0
-0.000318503 0.000328825 0
-0.00717827 0.00719378 0
6.46021e-05 -0.00027058 0
4.58185e-05 -0.000379327 0
-5.18169e-05 -0.000434918 0
-1.32411e-05 -0.000401152 0
2.25528e-05 -0.000234581 0
-1.43373e-05 -0.000211618 0
-6.66503e-05 3.74678e-05 0
-9.35465e-06 -0.000135242 0
-3.71177e-05 -8.68057e-05 0
-9.90023e-05 -1.39642e-05 0
-8.29808e-05 -6.38152e-05 0
-0.00011834 -0.000419989 0
-8.20216e-05 -0.000421284 0
-0.00133956 -0.01019 0
-0.000197406 0.000218285 0
-0.000256406 0.000252872 0
-0.000293112 0.000227528 0
-0.000208835 0.000172603 0
-9.68337e-05 8.94095e-05 0
-0.000171107 0.000132253 0
-0.000327043 0.000206452 0
-0.000295157 0.000243691 0
-0.00802878 0.00604134 0
-7.56176e-06 -0.000264827 0
-6.69924e-05 -0.00036885 0
-0.000143518 -0.000389913 0
-4.95531e-05 -0.000220858 0
-7.31658e-05 -0.000184567 0
-0.000134327 4.1048e-05 0
-0.000170129 -1.51635e-05 0
-9.05445e-05 -0.000118264 0
-0.000146358 -7.39394e-05 0
-0.000181914 -0.00040171 0
-0.000145834 -0.00039235 0
-0.00261514 -0.00981557 0
-0.000234165 0.000164754 0
-0.000301807 0.000153708 0
-0.000221431 0.000112922 0
-0.000176934 6.85463e-05 0
-0.000348816 8.75814e-05 0
-0.000372367 0.000118425 0
-0.000339391 0.000158239 0
-0.00919111 0.00525021 0
-9.04973e-05 -0.000245016 0
-0.000179584 -0.000342485 0
-0.000114357 -0.000194006 0
-0.000134556 -0.000170708 0
-0.00020018 1.74597e-05 0
-0.000207497 -4.42108e-05 0
-0.000169053 -0.000130741 0
-0.000206266 -9.4587e-05 0
-0.000245113 -0.000329073 0
-0.000226059 -0.000382149 0
-0.000194182 -0.000373392 0
-0.00385714 -0.00930755 0
-0.000253543 9.29356e-05 0
-0.000220775 5.43416e-05 0
-0.000370355 5.59867e-05 0
-0.000438662 8.01677e-05 0
-0.000440534 0.00011902 0
-0.00939508 0.00397928 0
-0.000169852 -0.000208738 0
-0.000172688 -0.000162291 0
-0.000218003 -1.29369e-05 0
-0.000216123 -7.50209e-05 0
-0.000202585 -0.000123351 0
-0.000271616 -0.000274863 0
-0.000282347 -0.000340895 0
-0.000250081 -0.000359457 0
-0.00510199 -0.0088272 0
-0.000277268 2.57303e-05 0
-0.000403468 2.59586e-05 0
-0.000430748 4.74499e-05 0
-0.000436021 7.2102e-05 0
-0.00987477 0.00265841 0
-0.000225908 -0.00017237 0
-0.000268653 -5.76484e-05 0
-0.000253631 -0.000124351 0
-0.000321369 -0.000259692 0
-0.00031456 -0.000303315 0
-0.000289626 -0.000328192 0
-0.00624517 -0.00814565 0
-0.000385281 -2.49003e-05 0
-0.000431251 -2.5578e-06 0
-0.000432718 3.03191e-05 0
-0.0100942 0.00133668 0
-0.000406751 -8.46091e-05 0
-0.000334287 -0.000213707 0
-0.000372437 -0.000135998 0
-0.000378612 -0.000188519 0