# vtk DataFile Version 2.0
CellBP Time: 3.52
ASCII
DATASET UNSTRUCTURED_GRID
POINTS 296 double
-9.0228 -3.70844 0
-8.4541 -4.86025 0
-9.4349 -2.49192 0
-9.68525 -1.23087 0
-8.34229 -2.81323 0
-7.74139 -5.929 0
-6.89436 -6.89457 0
-7.90274 -3.86754 0
-7.32923 -4.85886 0
-5.9295 -7.74289 0
-4.86017 -8.45498 0
-9.78498 0.0498804 0
-9.68573 1.33073 0
-8.64206 -1.68046 0
-8.77177 -0.52782 0
-7.57453 -1.99958 0
-7.21115 -2.90036 0
-6.62565 -5.76853 0
-5.81186 -6.58495 0
-6.77664 -3.88083 0
-6.20813 -4.66633 0
-3.70796 -9.02268 0
-2.4917 -9.4358 0
-4.89741 -7.29571 0
-3.9058 -7.87212 0
-8.77829 0.641538 0
-9.43591 2.59209 0
-8.60807 1.77064 0
-9.02463 3.80916 0
-7.72906 -0.926995 0
-7.77968 0.0803248 0
-6.93924 -1.31318 0
-1.23184 -9.68656 0
-6.4293 -2.14871 0
-6.30678 -3.04994 0
-5.5255 -5.4635 0
-4.78627 -6.10318 0
-5.64815 -3.74955 0
-5.25872 -4.55225 0
-2.86067 -8.34874 0
-1.77502 -8.62415 0
-3.92033 -6.71001 0
-3.05025 -7.13827 0
0.0499327 -9.77142 0
-7.69043 1.14116 0
-8.32384 2.91019 0
-7.53661 2.10771 0
-8.45719 4.96163 0
-7.86634 3.97143 0
-7.74175 6.02883 0
-6.76596 -0.396191 0
-6.94304 0.551752 0
-5.7626 -1.00178 0
-0.589536 -8.79353 0
0.564921 -8.75506 0
-5.2948 -2.47638 0
-4.48314 -5.08575 0
-3.89463 -5.76366 0
-4.43171 -3.79867 0
-2.05798 -7.54683 0
-1.13307 -7.77025 0
-2.98838 -6.09002 0
-2.30405 -6.60634 0
1.3318 -9.6877 0
-6.67696 1.41959 0
-7.15776 3.11169 0
-6.64616 2.36819 0
-7.2823 4.98002 0
-6.70471 3.99526 0
-6.89509 6.9953 0
-6.56112 5.8841 0
-5.92912 7.84235 0
-4.44598 -1.17893 0
-5.80572 0.513001 0
-4.64876 -0.010037 0
0.00835661 -7.83238 0
1.73605 -8.62862 0
0.947165 -7.7479 0
-4.03211 -2.40241 0
-3.47934 -1.38845 0
-3.28891 -4.79769 0
-3.26044 -3.26225 0
-1.37575 -6.66278 0
-0.507827 -7.01142 0
-1.97203 -5.52814 0
2.59176 -9.43667 0
-5.499 2.03386 0
-6.08313 3.06619 0
-6.09287 4.86006 0
-5.75014 3.98371 0
-5.75145 6.70583 0
-5.44119 5.60845 0
-4.86093 8.55621 0
-4.83021 7.39219 0
-3.49532 -0.42313 0
-4.44205 1.24732 0
-3.70489 0.591539 0
-4.05566 2.31639 0
-3.70835 9.12384 0
2.85811 -8.31852 0
0.419004 -6.7822 0
2.01829 -7.5115 0
1.30343 -6.89192 0
-2.44016 -0.871885 0
-2.83333 -2.12708 0
-2.29045 -4.09065 0
-2.32134 -2.96808 0
-0.441224 -5.85165 0
-1.22049 -4.49181 0
3.80866 -9.02499 0
-4.78247 3.38669 0
-5.07804 4.58546 0
-4.63793 6.26925 0
-4.52964 5.34903 0
-3.8372 7.97999 0
-3.81907 6.83262 0
-2.77854 8.40872 0
-1.6451 -0.13714 0
-1.44696 -0.888329 0
-2.48447 0.506972 0
-3.24772 1.44208 0
-3.23372 3.31157 0
-2.90549 2.36792 0
-1.35183 0.62628 0
-2.49184 9.53689 0
3.92638 -7.8736 0
2.95942 -7.14445 0
0.952787 -5.81194 0
2.07024 -6.40283 0
-1.67984 -1.98824 0
-1.43186 -3.2718 0
0.0904519 -4.73935 0
-0.56509 -3.68809 0
4.92414 -7.30631 0
4.96026 -8.45567 0
-3.77122 4.5448 0
-3.72752 5.74121 0
-2.88229 7.27589 0
-3.00365 6.34138 0
-1.65973 8.71911 0
-1.93621 7.6049 0
-2.33459 4.0455 0
-0.729064 -1.32422 0
-0.834809 -0.256654 0
-1.9324 1.67832 0
-2.12172 2.87109 0
-1.30385 3.53852 0
-0.867327 1.34851 0
-0.281446 0.455206 0
-0.532589 8.85699 0
-1.23182 9.78774 0
1.11108 -4.56705 0
3.90334 -6.70474 0
2.98243 -6.08227 0
2.11465 -5.41533 0
4.77589 -6.19334 0
-0.557822 -2.47207 0
0.494548 -3.45765 0
0.053632 -1.60699 0
1.47941 -3.67497 0
5.85809 -6.60352 0
6.02832 -7.74143 0
-2.47206 5.34049 0
-2.12639 6.52236 0
-0.902239 7.78846 0
-1.26972 6.91876 0
0.0862237 7.8653 0
-1.14247 4.48766 0
0.150118 -0.61645 0
-0.795575 2.4845 0
-0.330521 3.59439 0
0.0634824 1.50996 0
0.740316 0.472549 0
0.64576 8.85981 0
0.0500823 9.87248 0
2.37713 -4.27824 0
3.85255 -5.62948 0
2.99613 -5.20367 0
5.56366 -5.48146 0
4.68294 -5.27328 0
0.628721 -2.28906 0
1.25402 -2.94618 0
0.755761 -1.38868 0
2.16047 -3.1303 0
2.9884 -3.47018 0
6.14443 -4.7827 0
6.64661 -5.75998 0
6.99646 -6.89545 0
-1.01815 5.8118 0
-0.371695 6.87112 0
1.12048 7.75489 0
0.557008 7.06651 0
-0.000532062 4.71775 0
0.606283 3.82097 0
1.33649 -0.640731 0
0.538633 2.64653 0
0.964793 1.57187 0
1.90684 0.213318 0
1.612 1.06276 0
2.12536 7.56942 0
1.79634 8.69858 0
1.33208 9.78742 0
3.81678 -4.34464 0
5.10766 -4.4409 0
5.83527 -3.92743 0
3.77775 -3.19573 0
1.80899 -1.87977 0
3.01393 -2.56988 0
6.77171 -3.94082 0
7.37106 -4.88983 0
7.85112 -5.93585 0
0.482628 5.87313 0
1.42572 6.72984 0
2.36969 6.65617 0
1.20823 4.5491 0
1.48587 3.39161 0
2.43137 -0.690728 0
2.82258 0.142112 0
1.78606 2.15888 0
2.60727 1.14773 0
3.06624 7.15666 0
2.89965 8.36415 0
2.59269 9.53857 0
4.904 -3.32266 0
6.11044 -3.10322 0
4.16634 -2.27199 0
3.23899 -1.50091 0
6.71966 -2.3091 0
7.21921 -3.03696 0
7.95309 -3.90637 0
8.55939 -4.86354 0
2.02081 5.59202 0
3.08109 6.14239 0
2.36059 4.1207 0
2.41611 3.05533 0
3.51948 -0.460368 0
3.60927 0.611988 0
2.95679 2.28389 0
3.53931 1.52238 0
4.00492 5.88747 0
3.97772 6.78078 0
3.96766 7.92712 0
3.80945 9.12646 0
5.56125 -1.9134 0
4.50276 -1.12817 0
6.70254 -1.33418 0
7.57901 -2.03325 0
8.38479 -2.85744 0
9.12898 -3.71098 0
3.41444 4.87049 0
3.33417 3.3803 0
4.68486 0.129698 0
4.51283 1.30788 0
4.05956 2.44013 0
4.56288 5.14396 0
4.8354 6.1802 0
4.97338 7.36988 0
4.96079 8.55623 0
5.87551 -0.434231 0
6.99876 -0.487497 0
7.74647 -1.0836 0
8.67235 -1.74346 0
9.53582 -2.49194 0
4.54645 3.82254 0
5.81024 1.09718 0
5.36441 2.53163 0
5.37116 4.61287 0
5.60313 5.51445 0
5.88906 6.6627 0
6.02894 7.84206 0
6.83504 0.46291 0
7.84065 -0.0257309 0
8.84834 -0.583282 0
9.78912 -1.23183 0
6.949 1.34732 0
5.71211 3.77238 0
6.53126 2.194 0
6.36995 3.08282 0
6.28232 4.67939 0
6.68415 5.83027 0
6.99514 6.99501 0
7.7718 0.966158 0
8.84768 0.57197 0
9.87358 0.049947 0
7.60418 2.00106 0
6.81859 3.89785 0
7.25814 2.94216 0
7.36884 4.87937 0
7.84426 6.03091 0
8.71136 1.72488 0
9.78728 1.33187 0
8.41011 2.83438 0
7.97162 3.91111 0
8.55641 4.96083 0
9.53792 2.59298 0
9.13153 3.81178 0
CELLS 542 2168
3 2 0 4
3 0 1 7
3 4 0 7
3 1 5 8
3 7 1 8
3 3 2 13
3 13 2 4
3 11 3 14
3 14 3 13
3 13 4 15
3 4 7 16
3 15 4 16
3 5 6 17
3 8 5 17
3 6 9 18
3 17 6 18
3 7 8 19
3 16 7 19
3 8 17 20
3 19 8 20
3 9 10 23
3 18 9 23
3 10 21 24
3 23 10 24
3 12 11 25
3 25 11 14
3 26 12 27
3 27 12 25
3 14 13 29
3 29 13 15
3 25 14 30
3 30 14 29
3 29 15 31
3 15 16 33
3 31 15 33
3 16 19 34
3 33 16 34
3 17 18 35
3 20 17 35
3 18 23 36
3 35 18 36
3 19 20 37
3 34 19 37
3 20 35 38
3 37 20 38
3 21 22 39
3 24 21 39
3 22 32 40
3 39 22 40
3 23 24 41
3 36 23 41
3 24 39 42
3 41 24 42
3 27 25 44
3 44 25 30
3 28 26 45
3 45 26 27
3 45 27 46
3 46 27 44
3 47 28 48
3 48 28 45
3 30 29 50
3 50 29 31
3 44 30 51
3 51 30 50
3 50 31 52
3 31 33 52
3 32 43 53
3 40 32 53
3 53 43 54
3 33 34 55
3 34 37 55
3 33 55 52
3 35 36 56
3 38 35 56
3 36 41 57
3 56 36 57
3 37 38 58
3 38 56 58
3 37 58 55
3 39 40 59
3 42 39 59
3 40 53 60
3 59 40 60
3 41 42 61
3 57 41 61
3 42 59 62
3 61 42 62
3 43 63 54
3 46 44 64
3 64 44 51
3 48 45 65
3 65 45 46
3 65 46 66
3 66 46 64
3 49 47 67
3 67 47 48
3 67 48 68
3 68 48 65
3 69 49 70
3 70 49 67
3 52 55 72
3 64 51 73
3 51 50 73
3 50 52 73
3 73 52 74
3 74 52 72
3 53 54 75
3 60 53 75
3 54 63 76
3 54 76 77
3 75 54 77
3 55 58 78
3 72 55 78
3 72 78 79
3 56 57 80
3 57 61 80
3 56 80 58
3 58 80 81
3 78 58 81
3 59 60 82
3 62 59 82
3 60 75 83
3 82 60 83
3 61 62 84
3 62 82 84
3 61 84 80
3 63 85 76
3 66 64 86
3 64 73 86
3 68 65 87
3 87 65 66
3 87 66 86
3 70 67 88
3 88 67 68
3 88 68 89
3 89 68 87
3 71 69 90
3 90 69 70
3 90 70 91
3 91 70 88
3 92 71 93
3 93 71 90
3 74 72 94
3 94 72 79
3 86 73 95
3 95 73 74
3 95 74 96
3 96 74 94
3 97 86 95
3 76 85 99
3 75 77 100
3 83 75 100
3 76 99 101
3 77 76 101
3 77 101 102
3 100 77 102
3 94 79 103
3 78 81 104
3 79 78 104
3 79 104 103
3 80 84 105
3 81 80 105
3 81 105 106
3 104 81 106
3 82 83 107
3 83 100 107
3 82 107 84
3 84 107 108
3 105 84 108
3 85 109 99
3 89 87 110
3 87 86 110
3 110 86 97
3 91 88 111
3 111 88 89
3 111 89 110
3 93 90 112
3 112 90 91
3 112 91 113
3 113 91 111
3 98 92 114
3 114 92 93
3 114 93 115
3 115 93 112
3 116 98 114
3 117 103 118
3 96 94 119
3 94 103 119
3 119 103 117
3 97 95 120
3 120 95 96
3 120 96 119
3 121 110 97
3 121 97 122
3 122 97 120
3 123 119 117
3 124 98 116
3 99 109 125
3 99 125 126
3 101 99 126
3 100 102 127
3 100 127 107
3 101 126 128
3 102 101 128
3 102 128 127
3 104 106 129
3 104 129 103
3 103 129 118
3 105 108 130
3 106 105 130
3 106 130 129
3 107 127 131
3 108 107 131
3 108 131 132
3 108 132 130
3 109 134 125
3 125 134 133
3 113 111 135
3 111 110 135
3 135 110 121
3 115 112 136
3 136 112 113
3 136 113 135
3 116 114 137
3 137 114 115
3 137 115 138
3 138 115 136
3 139 124 116
3 139 116 140
3 140 116 137
3 141 135 121
3 118 129 142
3 118 142 143
3 117 118 143
3 123 117 143
3 122 120 144
3 120 119 144
3 144 119 123
3 141 121 145
3 145 121 122
3 145 122 144
3 146 141 145
3 147 144 123
3 147 123 148
3 143 148 123
3 150 124 139
3 149 150 139
3 131 127 151
3 125 133 152
3 126 125 152
3 126 152 153
3 128 126 153
3 128 153 154
3 128 154 127
3 127 154 151
3 152 133 155
3 130 132 156
3 130 156 129
3 129 156 142
3 131 151 157
3 132 131 157
3 132 157 156
3 156 158 142
3 157 151 159
3 133 160 155
3 134 161 133
3 133 161 160
3 138 136 162
3 136 135 162
3 162 135 141
3 140 137 163
3 163 137 138
3 163 138 162
3 149 139 164
3 164 139 140
3 164 140 165
3 165 140 163
3 166 149 164
3 167 162 141
3 167 141 146
3 142 158 168
3 143 142 168
3 143 168 148
3 146 145 169
3 145 144 169
3 169 144 147
3 170 167 146
3 170 146 169
3 171 169 147
3 171 147 148
3 171 148 172
3 168 172 148
3 173 149 166
3 174 150 149
3 173 174 149
3 154 175 151
3 151 175 159
3 152 155 176
3 153 152 176
3 153 176 177
3 153 177 154
3 154 177 175
3 155 160 178
3 155 178 179
3 176 155 179
3 156 157 180
3 156 180 158
3 157 159 181
3 157 181 180
3 158 180 182
3 158 182 168
3 159 175 183
3 159 183 181
3 175 184 183
3 160 186 178
3 178 186 185
3 161 187 160
3 160 187 186
3 165 163 188
3 163 162 188
3 188 162 167
3 166 164 189
3 189 164 165
3 189 165 188
3 190 173 166
3 190 166 191
3 191 166 189
3 192 188 167
3 192 167 170
3 193 192 170
3 182 194 168
3 194 172 168
3 193 170 195
3 170 169 195
3 195 169 171
3 196 195 171
3 196 171 172
3 194 197 172
3 197 198 172
3 198 196 172
3 200 173 190
3 199 200 190
3 201 174 173
3 200 201 173
3 176 179 202
3 177 176 202
3 177 202 175
3 175 202 184
3 178 185 203
3 178 203 179
3 179 203 202
3 203 185 204
3 202 205 184
3 183 206 181
3 180 181 206
3 180 206 182
3 182 206 194
3 183 184 207
3 205 207 184
3 183 207 206
3 185 208 204
3 186 209 185
3 185 209 208
3 187 210 186
3 186 210 209
3 191 189 211
3 189 188 211
3 211 188 192
3 199 190 212
3 212 190 191
3 212 191 211
3 213 199 212
3 214 211 192
3 214 192 193
3 215 214 193
3 215 193 195
3 206 216 194
3 216 197 194
3 216 217 197
3 215 195 218
3 218 195 196
3 198 218 196
3 217 219 197
3 219 218 198
3 197 219 198
3 220 199 213
3 221 200 199
3 220 221 199
3 222 201 200
3 221 222 200
3 203 204 223
3 203 223 202
3 202 223 205
3 204 208 224
3 204 224 223
3 205 223 225
3 205 225 207
3 207 225 226
3 207 226 206
3 226 216 206
3 208 228 224
3 224 228 227
3 209 229 208
3 229 228 208
3 210 230 209
3 209 230 229
3 213 212 231
3 212 211 231
3 231 211 214
3 232 220 213
3 232 213 231
3 233 231 214
3 233 214 215
3 234 233 215
3 234 215 218
3 226 235 216
3 235 217 216
3 235 236 217
3 217 236 219
3 237 234 218
3 237 218 219
3 236 238 219
3 238 237 219
3 240 220 232
3 239 240 232
3 241 221 220
3 240 241 220
3 242 222 221
3 241 242 221
3 224 227 243
3 224 243 223
3 223 243 225
3 225 243 244
3 225 244 226
3 226 244 235
3 227 245 243
3 228 246 227
3 227 246 245
3 229 247 228
3 228 247 246
3 230 248 229
3 229 248 247
3 239 232 249
3 232 231 249
3 249 231 233
3 250 249 233
3 250 233 234
3 237 250 234
3 244 251 235
3 235 251 236
3 251 252 236
3 236 252 238
3 252 253 238
3 253 250 237
3 253 237 238
3 254 239 249
3 255 240 239
3 254 255 239
3 256 241 240
3 255 256 240
3 257 242 241
3 256 257 241
3 245 258 243
3 243 258 244
3 244 258 251
3 245 259 258
3 246 260 245
3 245 260 259
3 247 261 246
3 246 261 260
3 248 262 247
3 247 262 261
3 254 249 263
3 263 249 250
3 253 263 250
3 258 264 251
3 251 264 252
3 264 265 252
3 265 263 253
3 252 265 253
3 266 254 263
3 267 255 254
3 266 267 254
3 268 256 255
3 267 268 255
3 269 257 256
3 268 269 256
3 259 270 258
3 270 264 258
3 260 271 259
3 259 271 270
3 261 272 260
3 260 272 271
3 262 273 261
3 273 272 261
3 270 274 264
3 275 266 263
3 275 263 265
3 274 276 264
3 276 265 264
3 276 277 265
3 277 275 265
3 278 267 266
3 275 278 266
3 279 268 267
3 278 279 267
3 280 269 268
3 279 280 268
3 271 281 270
3 270 281 274
3 272 282 271
3 271 282 281
3 273 283 272
3 272 283 282
3 281 284 274
3 274 284 276
3 285 278 275
3 277 285 275
3 284 286 276
3 286 285 277
3 276 286 277
3 287 279 278
3 285 287 278
3 288 280 279
3 287 288 279
3 282 289 281
3 281 289 284
3 283 290 282
3 282 290 289
3 289 291 284
3 284 291 286
3 291 292 286
3 292 287 285
3 286 292 285
3 293 288 287
3 292 293 287
3 290 294 289
3 289 294 291
3 294 295 291
3 295 293 292
3 291 295 292
CELL_TYPES 542
5
5
5
5
5
5
5
5
5
5
5
5
5
5
5
5
5
5
5
5
5
5
5
5
5
5
5
5
5
5
5
5
5
5
5
5
5
5
5
5
5
5
5
5
5
5
5
5
5
5
5
5
5
5
5
5
5
5
5
5
5
5
5
5
5
5
5
5
5
5
5
5
5
5
5
5
5
5
5
5
5
5
5
5
5
5
5
5
5
5
5
5
5
5
5
5
5
5
5
5
5
5
5
5
5
5
5
5
5
5
5
5
5
5
5
5
5
5
5
5
5
5
5
5
5
5
5
5
5
5
5
5
5
5
5
5
5
5
5
5
5
5
5
5
5
5
5
5
5
5
5
5
5
5
5
5
5
5
5
5
5
5
5
5
5
5
5
5
5
5
5
5
5
5
5
5
5
5
5
5
5
5
5
5
5
5
5
5
5
5
5
5
5
5
5
5
5
5
5
5
5
5
5
5
5
5
5
5
5
5
5
5
5
5
5
5
5
5
5
5
5
5
5
5
5
5
5
5
5
5
5
5
5
5
5
5
5
5
5
5
5
5
5
5
5
5
5
5
5
5
5
5
5
5
5
5
5
5
5
5
5
5
5
5
5
5
5
5
5
5
5
5
5
5
5
5
5
5
5
5
5
5
5
5
5
5
5
5
5
5
5
5
5
5
5
5
5
5
5
5
5
5
5
5
5
5
5
5
5
5
5
5
5
5
5
5
5
5
5
5
5
5
5
5
5
5
5
5
5
5
5
5
5
5
5
5
5
5
5
5
5
5
5
5
5
5
5
5
5
5
5
5
5
5
5
5
5
5
5
5
5
5
5
5
5
5
5
5
5
5
5
5
5
5
5
5
5
5
5
5
5
5
5
5
5
5
5
5
5
5
5
5
5
5
5
5
5
5
5
5
5
5
5
5
5
5
5
5
5
5
5
5
5
5
5
5
5
5
5
5
5
5
5
5
5
5
5
5
5
5
5
5
5
5
5
5
5
5
5
5
5
5
5
5
5
5
5
5
5
5
5
5
5
5
5
5
5
5
5
5
5
5
5
5
5
5
5
5
5
5
5
5
5
5
5
5
5
5
5
5
5
5
5
5
5
5
5
5
5
5
5
5
5
5
5
5
5
5
5
5
5
5
5
5
5
5
5
5
5
5
5
5
5
5
5
5
5
5
5
5
5
5
5
5
5
5
5
5
5
5
5
5
5
5
5
5
5
5
5
5
5
5
POINT_DATA 296
SCALARS concentrations float 4
LOOKUP_TABLE default
0 0.962849 0.162345 9.32559
0 0.96284 0.162096 9.30208
0 0.96291 0.161949 9.31828
0 0.963095 0.161591 9.18409
0 0.963271 0.0935566 0.450305
0 0.96288 0.16172 9.28804
0 0.963051 0.161622 9.17087
0 0.963277 0.0935482 0.450132
0 0.963249 0.0935474 0.449674
0 0.963206 0.15532 7.72717
0 0.963053 0.16174 9.18253
0 0.963244 0.154571 7.71155
0 0.963112 0.161229 9.12255
0 0.963313 0.0934943 0.439634
0 0.963406 0.0932721 0.64859
0 0.964048 0.0933804 0.397615
0 0.96406 0.0933924 0.412163
0 0.963276 0.0934712 0.432748
0 0.963365 0.0933153 0.650455
0 0.964058 0.0933957 0.413014
0 0.964001 0.0933494 0.391474
0 0.962865 0.162419 9.36548
0 0.962804 0.163055 9.39513
0 0.963367 0.0932881 0.666104
0 0.963256 0.0934674 0.43139
0 0.963418 0.0932545 0.643932
0 0.962929 0.160608 9.10954
0 0.963336 0.0934306 0.426666
0 0.962785 0.160894 9.23595
0 0.963959 0.0932452 0.399662
0 0.963971 0.0931208 0.382332
0 0.964751 0.0930416 0.321337
0 0.962808 0.161181 9.19001
0 0.964897 0.092965 0.332663
0 0.964774 0.0931385 0.371511
0 0.963922 0.0932259 0.391664
0 0.963912 0.0931648 0.386669
0 0.964873 0.0929956 0.337197
0 0.964688 0.0931104 0.332111
0 0.963236 0.0935569 0.450982
0 0.963218 0.0936194 0.464131
0 0.963908 0.0932167 0.395497
0 0.963963 0.0933447 0.389471
0 0.962822 0.160573 9.1291
0 0.963964 0.0932277 0.403867
0 0.963327 0.0934889 0.449992
0 0.964075 0.0933981 0.437431
0 0.962727 0.153009 8.5534
0 0.963295 0.0937845 0.2835
0 0.962778 0.160076 9.14048
0 0.964844 0.0929023 0.279189
0 0.964701 0.0930069 0.296694
0 0.965413 0.092329 0.217792
0 0.963239 0.0935736 0.458274
0 0.963223 0.0935115 0.452309
0 0.965409 0.0923704 0.244816
0 0.964806 0.0929537 0.286815
0 0.964663 0.0930516 0.300279
0 0.965383 0.0923966 0.231741
0 0.964021 0.093392 0.415435
0 0.964028 0.0934011 0.425764
0 0.964813 0.0930206 0.317901
0 0.964712 0.093186 0.369461
0 0.962847 0.159641 9.03377
0 0.964861 0.0929078 0.322203
0 0.964191 0.0934972 0.469913
0 0.964804 0.0931368 0.427526
0 0.963295 0.0937316 0.300363
0 0.964189 0.0934471 0.475868
0 0.962861 0.159995 9.01142
0 0.963298 0.0934204 0.441715
0 0.962869 0.159927 8.99821
0 0.965814 0.0920915 0.198282
0 0.965399 0.0923139 0.205316
0 0.965829 0.0920826 0.189198
0 0.964022 0.093398 0.429008
0 0.963263 0.0934444 0.444428
0 0.964 0.0933883 0.430918
0 0.965808 0.0921058 0.201824
0 0.966164 0.0919864 0.186255
0 0.965376 0.0923992 0.219763
0 0.965796 0.0921394 0.202936
0 0.964846 0.0929879 0.353315
0 0.964705 0.0930794 0.374445
0 0.965379 0.0924313 0.250294
0 0.962877 0.160183 9.08562
0 0.965377 0.0923019 0.251369
0 0.964914 0.0929992 0.433039
0 0.964159 0.0934582 0.46804
0 0.964795 0.0931581 0.469352
0 0.963293 0.0934331 0.429998
0 0.964062 0.0933991 0.457494
0 0.962856 0.157621 9.17513
0 0.963268 0.0934961 0.391431
0 0.966231 0.0919061 0.170471
0 0.965799 0.0920815 0.188085
0 0.966187 0.0919521 0.170488
0 0.965791 0.0920588 0.194741
0 0.96287 0.160241 9.05905
0 0.963288 0.0934089 0.432216
0 0.964808 0.0930442 0.369612
0 0.964004 0.0932734 0.412051
0 0.964676 0.0931535 0.389031
0 0.966459 0.0916784 0.136166
0 0.966209 0.0919365 0.176632
0 0.965802 0.0921531 0.206169
0 0.966157 0.0920243 0.189663
0 0.965374 0.0924532 0.268225
0 0.965805 0.0921354 0.211163
0 0.9629 0.159843 9.02783
0 0.965374 0.0923203 0.276522
0 0.964878 0.0930416 0.418807
0 0.964018 0.0934065 0.417916
0 0.964714 0.0932144 0.408117
0 0.963278 0.0935191 0.399951
0 0.964037 0.0934005 0.41053
0 0.963288 0.0934379 0.439922
0 0.966662 0.0915286 0.11069
0 0.966661 0.0915271 0.109616
0 0.966477 0.091635 0.124391
0 0.966234 0.0918899 0.159144
0 0.965789 0.0920609 0.204454
0 0.96618 0.0919582 0.176156
0 0.966708 0.0914192 0.0911871
0 0.962887 0.160122 9.09218
0 0.963319 0.093394 0.421248
0 0.964047 0.0932011 0.400871
0 0.965355 0.0925581 0.284959
0 0.964774 0.0930726 0.374498
0 0.966467 0.0916875 0.134649
0 0.966217 0.0919483 0.178781
0 0.965841 0.0921417 0.21424
0 0.966188 0.0919382 0.179296
0 0.963309 0.0934253 0.434764
0 0.962877 0.160023 9.00143
0 0.96538 0.092354 0.261239
0 0.964851 0.0930682 0.370599
0 0.964042 0.0933949 0.413934
0 0.964742 0.0931838 0.38666
0 0.963299 0.093412 0.434303
0 0.964056 0.0933518 0.421166
0 0.965819 0.0920706 0.210089
0 0.966712 0.0914417 0.0929627
0 0.966804 0.0912462 0.062002
0 0.966497 0.0916079 0.118921
0 0.966252 0.0918886 0.171662
0 0.966202 0.0919787 0.193946
0 0.966704 0.0913793 0.0828432
0 0.966828 0.0910654 0.0296976
0 0.963291 0.0934025 0.422275
0 0.962886 0.160573 9.12086
0 0.965825 0.0921641 0.213206
0 0.964081 0.0932398 0.425499
0 0.964732 0.0931367 0.396419
0 0.965402 0.0925649 0.283915
0 0.96414 0.0934208 0.460597
0 0.966492 0.0916788 0.133685
0 0.96627 0.0919092 0.171937
0 0.966724 0.0914568 0.0966634
0 0.966133 0.0921426 0.205196
0 0.963288 0.0937232 0.29943
0 0.96279 0.159882 9.1192
0 0.965403 0.0923563 0.257002
0 0.964879 0.0930263 0.361818
0 0.96405 0.0933502 0.416552
0 0.964756 0.0931454 0.386486
0 0.964046 0.093374 0.419518
0 0.965813 0.092092 0.215426
0 0.966835 0.0910857 0.0361872
0 0.966508 0.0915912 0.121627
0 0.966246 0.0919337 0.183984
0 0.966725 0.0913248 0.0736524
0 0.966818 0.091117 0.0433094
0 0.963298 0.0933827 0.420624
0 0.962891 0.159702 9.02089
0 0.965754 0.0922168 0.219153
0 0.964794 0.093037 0.415963
0 0.96529 0.0926422 0.315252
0 0.964144 0.0934728 0.485525
0 0.964763 0.0930724 0.452061
0 0.966578 0.0916138 0.122308
0 0.966441 0.0918008 0.148183
0 0.966742 0.0914301 0.0931687
0 0.966242 0.0920107 0.177476
0 0.965869 0.092279 0.229197
0 0.964141 0.0934543 0.474737
0 0.96327 0.0936973 0.287449
0 0.962753 0.151753 8.38163
0 0.965399 0.0923492 0.256762
0 0.96488 0.0929865 0.359722
0 0.964033 0.0933588 0.419651
0 0.96476 0.0931261 0.38133
0 0.965807 0.0921223 0.216376
0 0.966184 0.0920221 0.195414
0 0.966765 0.0913387 0.0802041
0 0.966499 0.0916245 0.125779
0 0.966698 0.0914244 0.091724
0 0.966716 0.0914567 0.0984554
0 0.966698 0.0914762 0.101608
0 0.964037 0.0933603 0.422388
0 0.963297 0.0933672 0.424687
0 0.962898 0.159896 9.04398
0 0.965334 0.0924462 0.290394
0 0.964857 0.0929959 0.429486
0 0.964722 0.0931924 0.453208
0 0.965714 0.092272 0.227806
0 0.966532 0.0916205 0.118622
0 0.966194 0.0920003 0.170361
0 0.964046 0.0933354 0.452908
0 0.963314 0.0934054 0.442061
0 0.962792 0.159025 9.0325
0 0.965378 0.0923267 0.248635
0 0.964865 0.0929874 0.35852
0 0.964738 0.093231 0.398807
0 0.965785 0.0921162 0.209461
0 0.966227 0.0919642 0.182953
0 0.966572 0.0916681 0.126156
0 0.966514 0.0918152 0.149139
0 0.966483 0.0916987 0.138183
0 0.966493 0.0917653 0.145553
0 0.964012 0.0933825 0.425279
0 0.963294 0.0933028 0.415936
0 0.962906 0.158866 8.9412
0 0.965307 0.0924477 0.282986
0 0.964816 0.0929408 0.37293
0 0.965804 0.0921403 0.196487
0 0.966277 0.0918779 0.151102
0 0.964726 0.093056 0.390386
0 0.964026 0.0933589 0.438305
0 0.963311 0.0934027 0.427238
0 0.962878 0.160431 9.0571
0 0.965382 0.0923306 0.24555
0 0.964871 0.0930558 0.368592
0 0.965789 0.0920984 0.205986
0 0.96617 0.0920458 0.196996
0 0.966234 0.0919501 0.165419
0 0.966209 0.0920074 0.177306
0 0.966222 0.0920062 0.186991
0 0.966159 0.0920711 0.191686
0 0.96476 0.0931723 0.388086
0 0.964036 0.0933807 0.422998
0 0.963294 0.0932976 0.41227
0 0.96291 0.158111 8.86318
0 0.965342 0.092327 0.243931
0 0.965835 0.0920435 0.181556
0 0.964875 0.0929733 0.404864
0 0.964071 0.0933904 0.460135
0 0.963321 0.0933951 0.42352
0 0.962914 0.160578 9.09186
0 0.965382 0.0923388 0.247419
0 0.965788 0.0921194 0.208803
0 0.965823 0.0920179 0.181729
0 0.965781 0.0920649 0.190515
0 0.965785 0.0920984 0.19967
0 0.964869 0.0930052 0.360085
0 0.96404 0.0933503 0.417255
0 0.963306 0.0933495 0.417742
0 0.962907 0.159117 8.96938
0 0.965385 0.0923505 0.271308
0 0.964792 0.0931503 0.465354
0 0.96417 0.0934049 0.464332
0 0.963326 0.0933898 0.435989
0 0.962905 0.159693 8.97401
0 0.965379 0.0923609 0.248988
0 0.965371 0.0923252 0.261677
0 0.965366 0.0923344 0.242929
0 0.964746 0.0931442 0.384102
0 0.964056 0.0933206 0.414103
0 0.963311 0.0933518 0.418391
0 0.962908 0.159711 9.03268
0 0.964906 0.0930147 0.434498
0 0.964189 0.0933966 0.471765
0 0.963332 0.0936583 0.302858
0 0.962837 0.159078 9.04214
0 0.96478 0.0931706 0.445053
0 0.964853 0.0930101 0.360879
0 0.964851 0.0930047 0.378678
0 0.964724 0.0931524 0.388344
0 0.964043 0.0933607 0.423834
0 0.963314 0.09332 0.417606
0 0.962918 0.159194 8.98202
0 0.964179 0.0934436 0.466205
0 0.963326 0.0937046 0.276789
0 0.96279 0.152256 8.4537
0 0.964079 0.093365 0.44953
0 0.964039 0.0933596 0.42558
0 0.964025 0.0933492 0.427198
0 0.963295 0.0933136 0.420984
0 0.962928 0.15743 8.79932
0 0.963343 0.093384 0.428455
0 0.962819 0.159511 9.07769
0 0.963322 0.0933411 0.414363
0 0.963309 0.0933291 0.418852
0 0.962927 0.15825 8.88075
0 0.962899 0.159631 8.96212
0 0.962925 0.158936 8.93326
VECTORS fa_u float
0.00862338 0.0035502 0
0.00806726 0.0046312 0
0.00901324 0.0023647 0
0.00911023 0.00116239 0
0.000413649 0.000177957 0
0.00736524 0.0056587 0
0.00644351 0.0065258 0
0.000404653 0.000197167 0
0.000390902 0.000222266 0
0.00470164 0.00613219 0
0.00466601 0.00790868 0
0.00771154 -1.36539e-05 0
0.00904558 -0.00118252 0
0.000425854 0.000109209 0
0.000645993 -5.79818e-05 0
0.000364884 0.000157978 0
0.000372509 0.000176396 0
0.000339864 0.000267886 0
0.000340221 0.000554384 0
0.000367385 0.000188703 0
0.000336982 0.000199237 0
0.00361356 0.00864028 0
0.00242826 0.0090759 0
0.000462568 0.000479296 0
0.00017945 0.000392294 0
0.000640876 6.26648e-05 0
0.00881441 -0.00229999 0
0.000403435 -0.000138865 0
0.00857406 -0.00343339 0
0.000392941 7.29865e-05 0
0.000382171 1.10937e-05 0
0.000302611 0.000108091 0
0.00119624 0.00911182 0
0.000302653 0.000138079 0
0.000334662 0.000161313 0
0.000289531 0.000263766 0
0.000238433 0.000304406 0
0.000294357 0.000164487 0
0.000274013 0.000187655 0
0.000116475 0.000435681 0
7.93348e-05 0.0004573 0
0.00018313 0.000350544 0
0.00010937 0.0003738 0
-1.29269e-06 0.0091291 0
0.000393157 -9.23935e-05 0
0.000395172 -0.000215249 0
0.000385285 -0.000207126 0
0.00739624 -0.00429608 0
0.000279808 -4.55999e-05 0
0.00718811 -0.00564618 0
0.000275514 4.5148e-05 0
0.000295576 -2.57354e-05 0
0.000209045 6.11005e-05 0
3.19279e-05 0.00045716 0
-1.75058e-05 0.00045197 0
0.000222305 0.000102546 0
0.000201978 0.000203637 0
0.00015363 0.000258002 0
0.000187332 0.000136422 0
8.28401e-05 0.000407092 0
5.25687e-05 0.000422506 0
0.00010952 0.00029844 0
9.14555e-05 0.000357962 0
-0.00118704 0.00895544 0
0.000302555 -0.000110794 0
0.000398732 -0.000248659 0
0.000369646 -0.000214802 0
0.000161986 -0.00025294 0
0.000402413 -0.000253997 0
0.00635881 -0.00638523 0
0.000355525 -0.000262135 0
0.00547489 -0.00714096 0
0.000187985 6.30658e-05 0
0.000205044 -1.05555e-05 0
0.000187602 2.45205e-05 0
-1.79524e-06 0.000429004 0
-6.63483e-05 0.000439448 0
-3.99606e-05 0.000429061 0
0.000174871 0.000100763 0
0.00017071 7.44922e-05 0
0.000125379 0.000180488 0
0.000145179 0.000141796 0
6.0672e-05 0.000348066 0
2.32961e-05 0.00037372 0
7.56872e-05 0.000238576 0
-0.00236681 0.00877193 0
0.000229076 -0.000103492 0
0.000367837 -0.000228515 0
0.000386191 -0.00026442 0
0.000393646 -0.000255605 0
0.000317406 -0.00029009 0
0.000359402 -0.000283074 0
0.00460027 -0.00793855 0
0.000223642 -0.000321251 0
0.000165987 3.88388e-05 0
0.000184348 -3.73058e-05 0
0.000170481 -1.59193e-06 0
0.000168757 -9.71858e-05 0
0.00349239 -0.00835881 0
-0.00013689 0.000409966 0
-1.11909e-05 0.000369443 0
-9.84493e-05 0.000400118 0
-6.23e-05 0.00038401 0
0.000125626 5.25291e-05 0
0.000140593 0.000106922 0
9.91682e-05 0.000180752 0
0.000116835 0.000149403 0
2.94057e-05 0.000266608 0
5.51907e-05 0.000203823 0
-0.00347905 0.00833054 0
0.00022099 -0.000166215 0
0.000331648 -0.000255751 0
0.000274448 -0.000315169 0
0.000281861 -0.000295151 0
0.000163437 -0.000365033 0
0.000201218 -0.000357835 0
0.000121554 -0.000422795 0
0.000108282 2.29627e-05 0
9.07932e-05 6.14181e-05 0
0.000124377 -1.91044e-06 0
0.000151478 -4.87967e-05 0
0.000138949 -0.000149981 0
0.000139932 -0.000107004 0
8.89846e-05 -1.99205e-05 0
0.00236064 -0.00878038 0
-0.000216642 0.000361271 0
-0.000162952 0.000366256 0
-2.70662e-05 0.000283671 0
-0.000109776 0.000358047 0
8.57646e-05 0.000103802 0
6.6591e-05 0.000165916 0
7.49862e-06 0.000214109 0
2.57569e-05 0.000177436 0
-0.000275163 0.000336608 0
-0.00449582 0.00779829 0
0.000159479 -0.000206912 0
0.000197841 -0.000313373 0
0.000133682 -0.000391753 0
0.000155889 -0.000353843 0
8.24155e-05 -0.000426411 0
0.000101756 -0.000408689 0
9.91386e-05 -0.000185226 0
4.2376e-05 8.27426e-05 0
5.54564e-05 2.77279e-05 0
9.96976e-05 -6.48283e-05 0
0.000104205 -0.000136415 0
7.37276e-05 -0.000179386 0
5.58554e-05 -6.11815e-05 0
2.13823e-05 -2.06093e-05 0
3.51058e-05 -0.000420813 0
0.00120028 -0.00904154 0
-4.09163e-05 0.000209243 0
-0.000252 0.000342849 0
-0.000178017 0.0003542 0
-8.41222e-05 0.000271166 0
-0.000303968 0.000346053 0
2.36608e-05 0.000131575 0
-1.69586e-05 0.000171098 0
-4.1656e-06 9.65736e-05 0
-6.39319e-05 0.000194983 0
-0.000108171 0.000279208 0
-0.00547193 0.00729505 0
9.75468e-05 -0.00023777 0
0.000104943 -0.000346264 0
5.72635e-05 -0.000412597 0
7.72425e-05 -0.000378689 0
9.05937e-06 -0.00041942 0
5.72679e-05 -0.000207675 0
-1.16962e-05 3.42449e-05 0
4.86604e-05 -0.000111469 0
3.19871e-05 -0.000181182 0
5.9235e-06 -7.34138e-05 0
-3.77535e-05 -2.1222e-05 0
-2.42922e-05 -0.000419922 0
1.26009e-05 -0.00902088 0
-0.000103181 0.000193344 0
-0.000251009 0.000331692 0
-0.000167824 0.000266868 0
-0.00034378 0.000342855 0
-0.000307851 0.00033104 0
-3.14671e-05 0.00011819 0
-5.85663e-05 0.000136119 0
-5.36425e-05 7.61766e-05 0
-9.99329e-05 0.000146667 0
-0.000144312 0.000178059 0
-0.000338485 0.000332871 0
-0.000265169 0.000110959 0
-0.00590247 0.00595085 0
4.83422e-05 -0.00025217 0
3.6358e-05 -0.00035788 0
-5.62832e-05 -0.000415859 0
-1.85779e-05 -0.000380877 0
1.14043e-05 -0.000216075 0
-2.10796e-05 -0.000194273 0
-7.32368e-05 3.26968e-05 0
-1.7159e-05 -0.000124603 0
-4.26476e-05 -8.12063e-05 0
-9.75667e-05 -1.31992e-05 0
-8.27347e-05 -5.89836e-05 0
-0.000117202 -0.000405802 0
-8.75385e-05 -0.000415567 0
-0.00116395 -0.00896876 0
-0.000191498 0.000218306 0
-0.00030607 0.000301295 0
-0.000332521 0.00030794 0
-0.000169654 0.000152029 0
-9.11316e-05 7.59363e-05 0
-0.000134651 0.000104365 0
-0.000349684 0.000287832 0
-0.000330351 0.000293745 0
-0.0072372 0.00540453 0
-1.49835e-05 -0.000248183 0
-6.86515e-05 -0.000351885 0
-0.000138093 -0.000374135 0
-5.10288e-05 -0.00020315 0
-7.12044e-05 -0.000168528 0
-0.000121439 3.41736e-05 0
-0.000148551 -1.32289e-05 0
-8.57178e-05 -0.000108384 0
-0.000129773 -6.59136e-05 0
-0.000172646 -0.000388659 0
-0.000144331 -0.000390092 0
-0.00229779 -0.0086409 0
-0.000220374 0.000177528 0
-0.000313589 0.000201838 0
-0.00017521 8.893e-05 0
-0.000142706 4.9667e-05 0
-0.000375141 0.000108029 0
-0.000396236 0.000187371 0
-0.000360267 0.000229651 0
-0.00787657 0.00447109 0
-8.60514e-05 -0.000229978 0
-0.000166565 -0.00032881 0
-0.00010238 -0.000178741 0
-0.000119149 -0.000156878 0
-0.000165056 1.09623e-05 0
-0.000173254 -3.76901e-05 0
-0.000143892 -0.000119418 0
-0.000172333 -8.3934e-05 0
-0.000222232 -0.000318156 0
-0.000208086 -0.000368276 0
-0.000184717 -0.000368574 0
-0.00339925 -0.00818542 0
-0.000231292 7.75013e-05 0
-0.000178248 3.45021e-05 0
-0.000404028 2.60095e-05 0
-0.000456815 5.5175e-05 0
-0.000407841 0.000114171 0
-0.00840848 0.00345823 0
-0.000146766 -0.000199189 0
-0.000144044 -0.000151162 0
-0.000181174 -1.41868e-05 0
-0.000179263 -6.45045e-05 0
-0.000164243 -0.000113545 0
-0.000239867 -0.000268561 0
-0.000258681 -0.000327393 0
-0.000234843 -0.00034548 0
-0.00449935 -0.00775923 0
-0.000271055 1.17096e-05 0
-0.000465353 1.05036e-06 0
-0.000464121 1.40108e-05 0
-0.00043401 4.14919e-05 0
-0.00866307 0.00234179 0
-0.000185736 -0.000165823 0
-0.000257891 -4.43531e-05 0
-0.000215173 -0.000112762 0
-0.000284163 -0.000258429 0
-0.0002891 -0.000296484 0
-0.00027707 -0.000313502 0
-0.00550265 -0.0071631 0
-0.000434271 -1.40435e-05 0
-0.000471715 -6.86583e-06 0
-0.000278128 0.000119867 0
-0.00894967 0.00128985 0
-0.0004432 -4.05712e-05 0
-0.000292143 -0.000211863 0
-0.000364893 -0.000101241 0