# vtk DataFile Version 2.0
CellBP Time: 1
ASCII
DATASET UNSTRUCTURED_GRID
POINTS 296 double
-9.23491 -3.77974 0
-8.62647 -4.96935 0
-9.62642 -2.54628 0
-9.86694 -1.26129 0
-8.37311 -2.84435 0
-7.90014 -6.05566 0
-6.99257 -7.05693 0
-7.94243 -3.87202 0
-7.37635 -4.90519 0
-6.05329 -7.88667 0
-4.9716 -8.64342 0
-9.95401 0.0587189 0
-9.88751 1.33383 0
-8.67645 -1.69033 0
-8.80169 -0.531256 0
-7.59628 -1.98259 0
-7.24228 -2.92097 0
-6.67166 -5.7744 0
-5.83534 -6.62933 0
-6.81738 -3.91194 0
-6.23341 -4.68717 0
-3.76615 -9.20748 0
-2.53456 -9.63176 0
-4.93643 -7.33325 0
-3.9318 -7.89724 0
-8.80095 0.638033 0
-9.64167 2.63536 0
-8.61142 1.76799 0
-9.20206 3.88117 0
-7.76068 -0.934691 0
-7.80564 0.068487 0
-6.97554 -1.30782 0
-1.25838 -9.89317 0
-6.45067 -2.16529 0
-6.34641 -3.10039 0
-5.53912 -5.48268 0
-4.80455 -6.13726 0
-5.67568 -3.76339 0
-5.2842 -4.57443 0
-2.86933 -8.37089 0
-1.77461 -8.65395 0
-3.923 -6.73635 0
-3.05975 -7.1626 0
0.0584368 -9.96062 0
-7.72029 1.14354 0
-8.34232 2.87978 0
-7.5691 2.11471 0
-8.63513 5.0669 0
-7.87612 3.96416 0
-7.90846 6.15523 0
-6.8197 -0.408198 0
-6.96299 0.546346 0
-5.78045 -1.01305 0
-0.61363 -8.83942 0
0.597529 -8.79096 0
-5.30849 -2.4912 0
-4.50309 -5.10341 0
-3.90747 -5.78175 0
-4.48807 -3.81511 0
-2.05358 -7.55288 0
-1.1174 -7.78313 0
-3.00201 -6.11116 0
-2.28688 -6.6131 0
1.35622 -9.84718 0
-6.67662 1.44086 0
-7.17551 3.12014 0
-6.6752 2.38237 0
-7.32052 4.99534 0
-6.71148 3.99697 0
-7.03616 7.14304 0
-6.56857 5.90656 0
-6.0409 7.97924 0
-4.45448 -1.18869 0
-5.82102 0.507637 0
-4.67293 -0.0143427 0
0.00437546 -7.82562 0
1.77306 -8.67495 0
0.937961 -7.75939 0
-4.04812 -2.40444 0
-3.4799 -1.37179 0
-3.29575 -4.81257 0
-3.27772 -3.27213 0
-1.37064 -6.68043 0
-0.49194 -7.00952 0
-1.97846 -5.54053 0
2.66962 -9.64687 0
-5.51089 2.00459 0
-6.09166 3.09685 0
-6.10529 4.87599 0
-5.78367 3.99955 0
-5.77157 6.72606 0
-5.44854 5.60777 0
-4.95285 8.71008 0
-4.80395 7.42351 0
-3.51392 -0.434295 0
-4.46191 1.25596 0
-3.67615 0.589928 0
-4.06696 2.32118 0
-3.80228 9.29852 0
2.91314 -8.34298 0
0.43615 -6.8002 0
2.03923 -7.55357 0
1.29861 -6.91325 0
-2.44425 -0.882647 0
-2.83628 -2.11853 0
-2.29194 -4.10904 0
-2.31424 -2.97094 0
-0.433223 -5.8764 0
-1.22174 -4.51468 0
3.87944 -9.18781 0
-4.80315 3.39242 0
-5.11116 4.60191 0
-4.67447 6.28806 0
-4.5701 5.39512 0
-3.88115 7.99192 0
-3.85515 6.89228 0
-2.77256 8.43137 0
-1.65023 -0.146265 0
-1.44341 -0.900417 0
-2.48816 0.493813 0
-3.27485 1.47778 0
-3.2579 3.30402 0
-2.92786 2.36524 0
-1.36101 0.624368 0
-2.54163 9.72178 0
3.95598 -7.88602 0
3.00878 -7.19397 0
0.947339 -5.84311 0
2.05865 -6.40284 0
-1.6745 -2.00681 0
-1.43597 -3.27739 0
0.0971054 -4.76358 0
-0.563605 -3.69446 0
4.94687 -7.34524 0
5.06897 -8.63853 0
-3.80329 4.55864 0
-3.76579 5.79178 0
-2.90506 7.33134 0
-3.00619 6.36858 0
-1.66255 8.79208 0
-1.98006 7.64108 0
-2.35977 4.01372 0
-0.71983 -1.32575 0
-0.825123 -0.263738 0
-1.97553 1.63667 0
-2.16949 2.85399 0
-1.3425 3.53913 0
-0.879926 1.34383 0
-0.269687 0.445505 0
-0.525865 8.87276 0
-1.25849 9.97002 0
1.14424 -4.57813 0
3.93856 -6.75585 0
3.00749 -6.11347 0
2.16757 -5.42781 0
4.80812 -6.24841 0
-0.536734 -2.49832 0
0.492769 -3.4882 0
0.0567112 -1.62895 0
1.49342 -3.67322 0
5.86534 -6.62274 0
6.15428 -7.90168 0
-2.47042 5.34197 0
-2.12362 6.54453 0
-0.904865 7.79277 0
-1.26236 6.94185 0
0.101605 7.87236 0
-1.11975 4.48577 0
0.162748 -0.6514 0
-0.815328 2.47478 0
-0.285555 3.6064 0
0.0374676 1.54226 0
0.736631 0.44747 0
0.659695 8.82679 0
0.0324162 10.0622 0
2.39488 -4.28523 0
3.86147 -5.65921 0
3.01237 -5.26233 0
5.55957 -5.47092 0
4.73017 -5.3428 0
0.641641 -2.30108 0
1.27033 -2.97196 0
0.784262 -1.40293 0
2.17361 -3.14613 0
3.02787 -3.4624 0
6.17669 -4.78208 0
6.67101 -5.78543 0
7.16754 -7.01193 0
-1.02129 5.84317 0
-0.374461 6.88928 0
1.12079 7.76101 0
0.561298 7.08997 0
-0.0291362 4.74277 0
0.601065 3.80753 0
1.34579 -0.65659 0
0.580433 2.62014 0
0.965419 1.56872 0
1.91649 0.167144 0
1.62819 1.06418 0
2.13224 7.61004 0
1.82127 8.72891 0
1.35131 9.97962 0
3.87841 -4.40267 0
5.15036 -4.49672 0
5.8877 -3.96374 0
3.82419 -3.16638 0
1.83761 -1.8841 0
3.03143 -2.58881 0
6.8052 -3.96237 0
7.40989 -4.92614 0
7.9851 -6.0906 0
0.48704 5.9078 0
1.42414 6.75936 0
2.37869 6.68655 0
1.17725 4.53714 0
1.50928 3.40844 0
2.47527 -0.706851 0
2.83191 0.158728 0
1.74394 2.14925 0
2.63073 1.09116 0
3.07448 7.17702 0
2.89752 8.45083 0
2.63494 9.71503 0
4.93275 -3.32144 0
6.16352 -3.09018 0
4.17589 -2.28575 0
3.25789 -1.48626 0
6.77679 -2.32375 0
7.2782 -3.08258 0
8.01321 -3.92143 0
8.73556 -4.98 0
2.02994 5.60744 0
3.09926 6.18213 0
2.37401 4.10968 0
2.38105 3.03711 0
3.54325 -0.493316 0
3.59258 0.588385 0
2.9599 2.32938 0
3.53263 1.49739 0
3.99668 5.91214 0
4.03212 6.8286 0
3.95954 7.96895 0
3.86812 9.2942 0
5.56057 -1.91041 0
4.50026 -1.14538 0
6.7585 -1.34563 0
7.63699 -2.03569 0
8.42978 -2.89575 0
9.30286 -3.75734 0
3.38878 4.9086 0
3.35495 3.39005 0
4.67749 0.152529 0
4.56971 1.33231 0
4.0122 2.44779 0
4.54402 5.16584 0
4.84763 6.17431 0
4.96365 7.40709 0
5.05168 8.72331 0
5.90551 -0.417024 0
7.04425 -0.485419 0
7.78043 -1.09053 0
8.66588 -1.8011 0
9.7388 -2.57231 0
4.55089 3.80895 0
5.85382 1.11425 0
5.38177 2.53648 0
5.38341 4.66567 0
5.66691 5.57443 0
5.88467 6.71032 0
6.13828 7.99953 0
6.90623 0.493426 0
7.87222 -0.10515 0
8.9044 -0.620069 0
9.98684 -1.1869 0
7.00154 1.32114 0
5.70418 3.78433 0
6.56651 2.17208 0
6.3574 3.0716 0
6.27113 4.66432 0
6.72575 5.85904 0
7.15245 7.11836 0
7.76548 0.978502 0
8.81645 0.559316 0
10.071 0.0496264 0
7.60213 1.96586 0
6.8772 3.94615 0
7.24317 2.94298 0
7.43281 4.87818 0
7.97804 6.16833 0
8.68907 1.73612 0
9.99746 1.31359 0
8.4527 2.85478 0
8.01467 3.89674 0
8.71493 5.06526 0
9.69771 2.65429 0
9.31345 3.89794 0
CELLS 542 2168
3 2 0 4
3 0 1 7
3 4 0 7
3 1 5 8
3 7 1 8
3 3 2 13
3 13 2 4
3 11 3 14
3 14 3 13
3 13 4 15
3 4 7 16
3 15 4 16
3 5 6 17
3 8 5 17
3 6 9 18
3 17 6 18
3 7 8 19
3 16 7 19
3 8 17 20
3 19 8 20
3 9 10 23
3 18 9 23
3 10 21 24
3 23 10 24
3 12 11 25
3 25 11 14
3 26 12 27
3 27 12 25
3 14 13 29
3 29 13 15
3 25 14 30
3 30 14 29
3 29 15 31
3 15 16 33
3 31 15 33
3 16 19 34
3 33 16 34
3 17 18 35
3 20 17 35
3 18 23 36
3 35 18 36
3 19 20 37
3 34 19 37
3 20 35 38
3 37 20 38
3 21 22 39
3 24 21 39
3 22 32 40
3 39 22 40
3 23 24 41
3 36 23 41
3 24 39 42
3 41 24 42
3 27 25 44
3 44 25 30
3 28 26 45
3 45 26 27
3 45 27 46
3 46 27 44
3 47 28 48
3 48 28 45
3 30 29 50
3 50 29 31
3 44 30 51
3 51 30 50
3 50 31 52
3 31 33 52
3 32 43 53
3 40 32 53
3 53 43 54
3 33 34 55
3 34 37 55
3 33 55 52
3 35 36 56
3 38 35 56
3 36 41 57
3 56 36 57
3 37 38 58
3 38 56 58
3 37 58 55
3 39 40 59
3 42 39 59
3 40 53 60
3 59 40 60
3 41 42 61
3 57 41 61
3 42 59 62
3 61 42 62
3 43 63 54
3 46 44 64
3 64 44 51
3 48 45 65
3 65 45 46
3 65 46 66
3 66 46 64
3 49 47 67
3 67 47 48
3 67 48 68
3 68 48 65
3 69 49 70
3 70 49 67
3 52 55 72
3 64 51 73
3 51 50 73
3 50 52 73
3 73 52 74
3 74 52 72
3 53 54 75
3 60 53 75
3 54 63 76
3 54 76 77
3 75 54 77
3 55 58 78
3 72 55 78
3 72 78 79
3 56 57 80
3 57 61 80
3 56 80 58
3 58 80 81
3 78 58 81
3 59 60 82
3 62 59 82
3 60 75 83
3 82 60 83
3 61 62 84
3 62 82 84
3 61 84 80
3 63 85 76
3 66 64 86
3 64 73 86
3 68 65 87
3 87 65 66
3 87 66 86
3 70 67 88
3 88 67 68
3 88 68 89
3 89 68 87
3 71 69 90
3 90 69 70
3 90 70 91
3 91 70 88
3 92 71 93
3 93 71 90
3 74 72 94
3 94 72 79
3 86 73 95
3 95 73 74
3 95 74 96
3 96 74 94
3 97 86 95
3 76 85 99
3 75 77 100
3 83 75 100
3 76 99 101
3 77 76 101
3 77 101 102
3 100 77 102
3 94 79 103
3 78 81 104
3 79 78 104
3 79 104 103
3 80 84 105
3 81 80 105
3 81 105 106
3 104 81 106
3 82 83 107
3 83 100 107
3 82 107 84
3 84 107 108
3 105 84 108
3 85 109 99
3 89 87 110
3 87 86 110
3 110 86 97
3 91 88 111
3 111 88 89
3 111 89 110
3 93 90 112
3 112 90 91
3 112 91 113
3 113 91 111
3 98 92 114
3 114 92 93
3 114 93 115
3 115 93 112
3 116 98 114
3 117 103 118
3 96 94 119
3 94 103 119
3 119 103 117
3 97 95 120
3 120 95 96
3 120 96 119
3 121 110 97
3 121 97 122
3 122 97 120
3 123 119 117
3 124 98 116
3 99 109 125
3 99 125 126
3 101 99 126
3 100 102 127
3 100 127 107
3 101 126 128
3 102 101 128
3 102 128 127
3 104 106 129
3 104 129 103
3 103 129 118
3 105 108 130
3 106 105 130
3 106 130 129
3 107 127 131
3 108 107 131
3 108 131 132
3 108 132 130
3 109 134 125
3 125 134 133
3 113 111 135
3 111 110 135
3 135 110 121
3 115 112 136
3 136 112 113
3 136 113 135
3 116 114 137
3 137 114 115
3 137 115 138
3 138 115 136
3 139 124 116
3 139 116 140
3 140 116 137
3 141 135 121
3 118 129 142
3 118 142 143
3 117 118 143
3 123 117 143
3 122 120 144
3 120 119 144
3 144 119 123
3 141 121 145
3 145 121 122
3 145 122 144
3 146 141 145
3 147 144 123
3 147 123 148
3 143 148 123
3 150 124 139
3 149 150 139
3 131 127 151
3 125 133 152
3 126 125 152
3 126 152 153
3 128 126 153
3 128 153 154
3 128 154 127
3 127 154 151
3 152 133 155
3 130 132 156
3 130 156 129
3 129 156 142
3 131 151 157
3 132 131 157
3 132 157 156
3 156 158 142
3 157 151 159
3 133 160 155
3 134 161 133
3 133 161 160
3 138 136 162
3 136 135 162
3 162 135 141
3 140 137 163
3 163 137 138
3 163 138 162
3 149 139 164
3 164 139 140
3 164 140 165
3 165 140 163
3 166 149 164
3 167 162 141
3 167 141 146
3 142 158 168
3 143 142 168
3 143 168 148
3 146 145 169
3 145 144 169
3 169 144 147
3 170 167 146
3 170 146 169
3 171 169 147
3 171 147 148
3 171 148 172
3 168 172 148
3 173 149 166
3 174 150 149
3 173 174 149
3 154 175 151
3 151 175 159
3 152 155 176
3 153 152 176
3 153 176 177
3 153 177 154
3 154 177 175
3 155 160 178
3 155 178 179
3 176 155 179
3 156 157 180
3 156 180 158
3 157 159 181
3 157 181 180
3 158 180 182
3 158 182 168
3 159 175 183
3 159 183 181
3 175 184 183
3 160 186 178
3 178 186 185
3 161 187 160
3 160 187 186
3 165 163 188
3 163 162 188
3 188 162 167
3 166 164 189
3 189 164 165
3 189 165 188
3 190 173 166
3 190 166 191
3 191 166 189
3 192 188 167
3 192 167 170
3 193 192 170
3 182 194 168
3 194 172 168
3 193 170 195
3 170 169 195
3 195 169 171
3 196 195 171
3 196 171 172
3 194 197 172
3 197 198 172
3 198 196 172
3 200 173 190
3 199 200 190
3 201 174 173
3 200 201 173
3 176 179 202
3 177 176 202
3 177 202 175
3 175 202 184
3 178 185 203
3 178 203 179
3 179 203 202
3 203 185 204
3 202 205 184
3 183 206 181
3 180 181 206
3 180 206 182
3 182 206 194
3 183 184 207
3 205 207 184
3 183 207 206
3 185 208 204
3 186 209 185
3 185 209 208
3 187 210 186
3 186 210 209
3 191 189 211
3 189 188 211
3 211 188 192
3 199 190 212
3 212 190 191
3 212 191 211
3 213 199 212
3 214 211 192
3 214 192 193
3 215 214 193
3 215 193 195
3 206 216 194
3 216 197 194
3 216 217 197
3 215 195 218
3 218 195 196
3 198 218 196
3 217 219 197
3 219 218 198
3 197 219 198
3 220 199 213
3 221 200 199
3 220 221 199
3 222 201 200
3 221 222 200
3 203 204 223
3 203 223 202
3 202 223 205
3 204 208 224
3 204 224 223
3 205 223 225
3 205 225 207
3 207 225 226
3 207 226 206
3 226 216 206
3 208 228 224
3 224 228 227
3 209 229 208
3 229 228 208
3 210 230 209
3 209 230 229
3 213 212 231
3 212 211 231
3 231 211 214
3 232 220 213
3 232 213 231
3 233 231 214
3 233 214 215
3 234 233 215
3 234 215 218
3 226 235 216
3 235 217 216
3 235 236 217
3 217 236 219
3 237 234 218
3 237 218 219
3 236 238 219
3 238 237 219
3 240 220 232
3 239 240 232
3 241 221 220
3 240 241 220
3 242 222 221
3 241 242 221
3 224 227 243
3 224 243 223
3 223 243 225
3 225 243 244
3 225 244 226
3 226 244 235
3 227 245 243
3 228 246 227
3 227 246 245
3 229 247 228
3 228 247 246
3 230 248 229
3 229 248 247
3 239 232 249
3 232 231 249
3 249 231 233
3 250 249 233
3 250 233 234
3 237 250 234
3 244 251 235
3 235 251 236
3 251 252 236
3 236 252 238
3 252 253 238
3 253 250 237
3 253 237 238
3 254 239 249
3 255 240 239
3 254 255 239
3 256 241 240
3 255 256 240
3 257 242 241
3 256 257 241
3 245 258 243
3 243 258 244
3 244 258 251
3 245 259 258
3 246 260 245
3 245 260 259
3 247 261 246
3 246 261 260
3 248 262 247
3 247 262 261
3 254 249 263
3 263 249 250
3 253 263 250
3 258 264 251
3 251 264 252
3 264 265 252
3 265 263 253
3 252 265 253
3 266 254 263
3 267 255 254
3 266 267 254
3 268 256 255
3 267 268 255
3 269 257 256
3 268 269 256
3 259 270 258
3 270 264 258
3 260 271 259
3 259 271 270
3 261 272 260
3 260 272 271
3 262 273 261
3 273 272 261
3 270 274 264
3 275 266 263
3 275 263 265
3 274 276 264
3 276 265 264
3 276 277 265
3 277 275 265
3 278 267 266
3 275 278 266
3 279 268 267
3 278 279 267
3 280 269 268
3 279 280 268
3 271 281 270
3 270 281 274
3 272 282 271
3 271 282 281
3 273 283 272
3 272 283 282
3 281 284 274
3 274 284 276
3 285 278 275
3 277 285 275
3 284 286 276
3 286 285 277
3 276 286 277
3 287 279 278
3 285 287 278
3 288 280 279
3 287 288 279
3 282 289 281
3 281 289 284
3 283 290 282
3 282 290 289
3 289 291 284
3 284 291 286
3 291 292 286
3 292 287 285
3 286 292 285
3 293 288 287
3 292 293 287
3 290 294 289
3 289 294 291
3 294 295 291
3 295 293 292
3 291 295 292
CELL_TYPES 542
5
5
5
5
5
5
5
5
5
5
5
5
5
5
5
5
5
5
5
5
5
5
5
5
5
5
5
5
5
5
5
5
5
5
5
5
5
5
5
5
5
5
5
5
5
5
5
5
5
5
5
5
5
5
5
5
5
5
5
5
5
5
5
5
5
5
5
5
5
5
5
5
5
5
5
5
5
5
5
5
5
5
5
5
5
5
5
5
5
5
5
5
5
5
5
5
5
5
5
5
5
5
5
5
5
5
5
5
5
5
5
5
5
5
5
5
5
5
5
5
5
5
5
5
5
5
5
5
5
5
5
5
5
5
5
5
5
5
5
5
5
5
5
5
5
5
5
5
5
5
5
5
5
5
5
5
5
5
5
5
5
5
5
5
5
5
5
5
5
5
5
5
5
5
5
5
5
5
5
5
5
5
5
5
5
5
5
5
5
5
5
5
5
5
5
5
5
5
5
5
5
5
5
5
5
5
5
5
5
5
5
5
5
5
5
5
5
5
5
5
5
5
5
5
5
5
5
5
5
5
5
5
5
5
5
5
5
5
5
5
5
5
5
5
5
5
5
5
5
5
5
5
5
5
5
5
5
5
5
5
5
5
5
5
5
5
5
5
5
5
5
5
5
5
5
5
5
5
5
5
5
5
5
5
5
5
5
5
5
5
5
5
5
5
5
5
5
5
5
5
5
5
5
5
5
5
5
5
5
5
5
5
5
5
5
5
5
5
5
5
5
5
5
5
5
5
5
5
5
5
5
5
5
5
5
5
5
5
5
5
5
5
5
5
5
5
5
5
5
5
5
5
5
5
5
5
5
5
5
5
5
5
5
5
5
5
5
5
5
5
5
5
5
5
5
5
5
5
5
5
5
5
5
5
5
5
5
5
5
5
5
5
5
5
5
5
5
5
5
5
5
5
5
5
5
5
5
5
5
5
5
5
5
5
5
5
5
5
5
5
5
5
5
5
5
5
5
5
5
5
5
5
5
5
5
5
5
5
5
5
5
5
5
5
5
5
5
5
5
5
5
5
5
5
5
5
5
5
5
5
5
5
5
5
5
5
5
5
5
5
5
5
5
5
5
5
5
5
5
5
5
5
5
5
5
5
5
5
5
5
5
5
5
5
5
5
5
5
5
5
5
5
5
5
5
5
5
5
5
5
5
5
5
5
5
5
5
5
5
5
5
5
5
5
5
5
5
5
5
5
5
5
5
5
5
5
5
5
5
5
5
5
POINT_DATA 296
SCALARS concentrations float 4
LOOKUP_TABLE default
0 1.00301 0.0995464 109.508
0 1.00289 0.0844255 46.8958
0 1.00204 0.0702957 178.637
0 1.00162 0.085883 104.153
0 1.00281 0.0964443 146.629
0 1.00063 0.0696907 111.868
0 1.00059 0.0793279 66.9008
0 1.00326 0.0975886 88.7426
0 1.00203 0.0924146 17.7684
0 1.00252 0.109127 135.755
0 1.00293 0.0938351 35.9858
0 1.00209 0.0751214 49.2587
0 1.00436 0.0693615 72.2415
0 1.00196 0.0978411 114.537
0 1.00169 0.0818098 81.6809
0 1.00267 0.0886594 97.1857
0 1.0032 0.0876726 110.918
0 1.0009 0.0232147 73.9645
0 1.00193 0.110415 128.576
0 1.00265 0.0825906 97.2114
0 1.00209 0.0946395 140.012
0 1.0034 0.0807459 76.8917
0 1.00321 0.0352992 18.7526
0 1.00266 0.0909599 116.649
0 1.00286 0.10018 95.7767
0 1.00277 0.00653768 108.364
0 1.00426 0.00277359 159.133
0 1.00396 0.031568 36.9162
0 1.00315 0.0978849 64.1634
0 1.00225 0.084527 87.2937
0 1.00227 0.0106554 80.3798
0 1.00224 0.00996222 71.1882
0 1.00213 0.0780453 48.89
0 1.00276 0.0934578 159.788
0 1.00346 0.0166716 116.282
0 1.00221 0.110791 152.14
0 1.00308 0.0342229 72.732
0 1.00228 0.0353195 103.467
0 1.0018 0.0311957 98.2792
0 1.00318 0.104735 32.4258
0 1.00259 0.0861449 42.9715
0 1.00249 0.0620617 106.866
0 1.00266 0.0361725 63.5549
0 1.00156 0.0697584 11.7222
0 1.00298 0.0832287 68.9312
0 1.00335 0.0913563 81.6384
0 1.00347 0.0772301 102.366
0 1.003 0.0867239 168.541
0 1.00334 0.0795559 44.3384
0 1.00257 0.0744489 39.6371
0 1.00229 0.093559 85.5319
0 1.00261 0.0911944 85.8793
0 1.0024 0.0340812 83.0872
0 1.00146 0.058112 56.6739
0 1.00247 0.0836649 25.0544
0 1.00235 0.0193897 118.245
0 1.00288 0.103271 150.883
0 1.00298 0.0746328 35.7368
0 1.00229 0.0904313 133.732
0 1.00301 0.053424 57.3012
0 1.00172 0.0537685 25.9129
0 1.00204 0.093195 121.539
0 1.00306 0.0921325 71.2314
0 1.00277 0.113954 17.1602
0 1.0032 0.0263921 110.53
0 1.00307 0.0749704 54.814
0 1.00344 0.0433116 82.1343
0 1.00326 0.0716789 40.1724
0 1.00284 0.00525652 83.104
0 1.00297 0.102697 37.2482
0 1.00303 0.0732785 53.2833
0 1.00307 0.0495293 20.1531
0 1.00226 0.0596946 52.5591
0 1.00263 0.0465854 73.3293
0 1.00258 0.0089772 120.841
0 1.00153 0.108064 90.8727
0 1.00279 0.080039 62.2154
0 1.00293 0.105934 81.9575
0 1.00238 0.00796559 146.96
0 1.00264 0.00523752 156.174
0 1.00312 0.0161363 109.446
0 1.00368 0.0492737 98.4972
0 1.00263 0.0566713 80.9753
0 1.00116 0.0966542 80.524
0 1.00244 0.0698929 83.6557
0 1.00184 0.0408376 36.9616
0 1.00291 0.0113153 106.803
0 1.00255 0.0720758 71.6254
0 1.00307 0.0929321 37.9719
0 1.0022 0.0890155 60.7827
0 1.00294 0.0664304 25.732
0 1.00281 0.0784273 27.924
0 1.00237 0.0525505 20.7138
0 1.00259 0.0697451 25.7876
0 1.00203 0.079557 70.5129
0 1.00273 0.0800531 80.8977
0 1.00247 0.00508799 111.21
0 1.00321 0.0385113 60.7453
0 1.00193 0.091996 22.9171
0 1.00192 0.0779793 41.0324
0 1.00164 0.0834716 39.1084
0 1.00278 0.0388006 69.4019
0 1.00267 0.0884637 49.781
0 1.00233 0.0203805 74.9139
0 1.00288 0.0101121 129.875
0 1.00397 0.0497314 61.8121
0 1.0043 0.0762523 87.1796
0 1.0019 0.0821732 17.1757
0 1.00283 0.0411124 106.459
0 1.00191 0.125936 94.457
0 1.0034 0.0862779 63.3258
0 1.00285 0.0687152 55.1596
0 1.00287 0.0826085 61.2734
0 1.00319 0.0666419 65.4144
0 1.00199 0.0856956 44.1698
0 1.00267 0.062969 35.0574
0 1.00195 0.0661684 92.34
0 1.00235 0.0609923 30.8058
0 1.0026 0.0649381 55.4048
0 1.0024 0.00993938 121.859
0 1.00296 0.0400081 50.6182
0 1.00296 0.0657332 55.6987
0 1.00263 0.0133302 108.511
0 1.00198 0.017073 112.333
0 1.00164 0.0343526 65.0241
0 1.00249 0.0357099 15.7588
0 1.00291 0.0951236 33.7135
0 1.00215 0.0907255 47.4867
0 1.00293 0.0266261 25.7894
0 1.0031 0.0275723 78.222
0 1.00427 0.0587472 32.979
0 1.00245 0.0755874 47.8847
0 1.00365 0.0574518 92.3422
0 1.00216 0.0822321 47.5611
0 1.00266 0.211986 13.194
0 1.00279 0.044971 82.2841
0 1.00297 0.0443576 74.5364
0 1.00275 0.0977235 57.272
0 1.00303 0.0358338 37.4382
0 1.00207 0.102483 94.4795
0 1.00253 0.0696143 35.4203
0 1.00212 0.0574897 58.4145
0 1.00285 0.0102907 70.5177
0 1.0024 0.0333775 73.7172
0 1.00208 0.010345 111.097
0 1.0021 0.0663022 32.8213
0 1.00267 0.0785095 78.5965
0 1.00127 0.0454588 27.5001
0 1.00179 0.0682461 43.2458
0 1.00292 0.0786092 70.1127
0 1.00184 0.0690223 104.307
0 1.00248 0.0753527 94.1689
0 1.00237 0.0559916 44.4695
0 1.00308 0.0303378 24.3817
0 1.00278 0.0987385 49.7062
0 1.0014 0.0220603 55.3135
0 1.00328 0.0539996 6.08807
0 1.00269 0.0286684 87.8456
0 1.00258 0.0117797 43.7769
0 1.00238 0.034448 81.6028
0 1.00208 0.0816714 89.401
0 1.00267 0.101187 14.6045
0 1.00233 0.0673671 87.9128
0 1.00256 0.0159485 73.7586
0 1.00224 0.041569 2.71083
0 1.00172 0.047353 76.6598
0 1.0032 0.0270965 103.262
0 1.00247 0.0438216 68.7897
0 1.00235 0.0540556 19.8462
0 1.00197 0.00953909 148.176
0 1.00244 0.0370338 125.367
0 1.00193 0.0206097 82.7802
0 1.00218 0.02804 82.936
0 1.00335 0.0467081 16.5038
0 1.00326 0.100446 92.5803
0 1.00328 0.0884199 82.4091
0 1.00261 0.0364164 31.1544
0 1.00355 0.0326656 28.1198
0 1.00125 0.0391457 51.9251
0 1.00223 0.0333734 46.9509
0 1.002 0.0708895 75.4282
0 1.00182 0.0654532 39.9073
0 1.0027 0.0227785 71.8004
0 1.0026 0.0636096 38.7465
0 1.00364 0.0327657 77.7878
0 1.00201 0.0670009 44.0937
0 1.00249 0.108264 88.2468
0 1.00308 0.109255 80.5953
0 1.00256 0.0668998 49.5529
0 1.00259 0.0906295 43.3036
0 1.00269 0.0395948 26.3082
0 1.00288 0.0737976 69.5426
0 1.00261 0.0338429 127.715
0 1.00241 0.0801246 68.6287
0 1.00249 0.034136 77.0724
0 1.0021 0.041974 63.2865
0 1.00218 0.0637398 21.1472
0 1.00179 0.053089 11.9487
0 1.00162 0.0743095 60.5767
0 1.00206 0.0684274 73.5946
0 1.00204 0.0359233 103.24
0 1.00234 0.0455258 78.392
0 1.00339 0.0416266 45.5807
0 1.00259 0.0548811 79.0229
0 1.00201 0.0436999 18.8218
0 1.00301 0.0195046 116.508
0 1.00227 0.0318951 83.965
0 1.00252 0.0228048 80.7123
0 1.00254 0.0798965 113.791
0 1.00189 0.0546784 62.267
0 1.00233 0.109213 30.1144
0 1.00254 0.0542139 32.4096
0 1.00216 0.076922 59.6536
0 1.00286 0.0751222 50.5948
0 1.00255 0.086122 44.9455
0 1.00299 0.0530496 46.9686
0 1.00214 0.0390976 78.8768
0 1.002 0.0719038 31.1713
0 1.00234 0.0775522 84.7081
0 1.00194 0.0344666 74.4435
0 1.00274 0.0550218 67.6525
0 1.00249 0.0476196 38.1536
0 1.00247 0.103554 71.5689
0 1.00281 0.0517862 16.2701
0 1.00235 0.0515941 115.463
0 1.00254 0.0402844 64.9104
0 1.00202 0.0270293 87.2137
0 1.0027 0.0737166 73.591
0 1.00242 0.0623325 30.3139
0 1.00117 0.0769152 4.39312
0 1.00015 0.110665 102.747
0 1.0027 0.0780759 55.3968
0 1.00336 0.0344873 59.5204
0 1.00323 0.0345963 72.083
0 1.00317 0.0263646 59.3501
0 1.00237 0.0589455 73.8868
0 1.00268 0.0519645 75.377
0 1.00242 0.0487531 73.1486
0 1.00243 0.0295451 37.9914
0 1.00308 0.038132 13.5912
0 1.00279 0.0708663 45.7541
0 1.00197 0.0566616 63.6622
0 1.00247 0.0584489 82.538
0 1.0027 0.0775636 65.3037
0 1.00287 0.0528904 71.4766
0 1.00251 0.0719355 75.6598
0 1.00217 0.00417316 137.79
0 1.00126 0.0446546 30.2555
0 1.00022 0.0960083 109.372
0 1.00301 0.0283094 41.052
0 1.00264 0.0284838 34.6121
0 1.00311 0.0222766 69.7818
0 1.00285 0.0542455 36.673
0 1.00243 0.0876653 57.6355
0 1.00241 0.0306482 32.3477
0 1.00291 0.0570655 12.1951
0 1.00227 0.0419669 71.9318
0 1.00192 0.095849 80.7041
0 1.00264 0.0470303 58.4108
0 1.00222 0.0843493 44.5731
0 1.00201 0.0727033 67.0328
0 1.00199 0.0492814 37.5124
0 1.00173 0.0499419 38.6576
0 1.00218 0.0273465 12.8647
0 1.00248 0.0180714 22.5826
0 1.00284 0.034259 70.2749
0 1.00118 0.0332273 67.408
0 1.00221 0.0572227 63.9483
0 1.00209 0.0297079 91.4223
0 1.00191 0.019059 16.6891
0 1.0018 0.0726133 80.5093
0 1.00165 0.043132 22.9194
0 1.00216 0.00337396 149.088
0 1.00251 0.0452742 26.6172
0 1.00147 0.014971 103.276
0 1.0021 0.0783944 104.288
0 1.00243 0.0362028 60.0814
0 1.00358 0.064125 96.335
0 1.00196 0.093004 87.9916
0 1.00186 0.0411374 32.3353
0 1.00121 0.083596 80.2065
0 1.00183 0.052557 113.142
0 1.00271 0.0767036 87.3272
0 1.00312 0.0567143 63.6448
0 1.00123 0.0670599 117.324
0 1.00378 0.0661121 72.9458
0 1.00262 0.0250141 92.806
0 1.0031 0.0951294 115.535
0 1.00187 0.0906062 5.96953
0 1.00285 0.10521 108.755
0 1.00383 0.115136 135.294
0 1.00272 0.0119919 131.049
0 1.00443 0.0266698 121.347
0 1.0042 0.0895458 145.925
0 1.00335 0.0049637 93.9942
0 1.00468 0.0132413 105.225
VECTORS fa_u float
0.0095626 0.0039463 -0
0.00442293 0.00259394 -0
0.00556113 0.00139562 -0
0.00534075 0.000671622 -0
1e-08 0 0
0.00637276 0.0049878 -0
0.00331537 0.00334405 -0
1e-08 0 0
1e-08 0 0
0.00306113 0.00389947 -0
0.00559742 0.00969259 -0
0.00533818 4.23148e-05 -0
0.00688527 -0.000834629 0
1e-08 0 0
1e-08 0 0
1e-08 0 0
1e-08 0 0
1e-08 0 0
1e-08 0 0
1e-08 0 0
1e-08 0 0
0.0015966 0.00393688 -0
0.00169768 0.00620894 -0
1e-08 0 0
1e-08 0 0
1e-08 0 0
0.00845314 -0.00227462 0
1e-08 0 0
0.00398673 -0.00165033 0
1e-08 0 0
1e-08 0 0
1e-08 0 0
0.00108724 0.00857276 -0
1e-08 0 0
1e-08 0 0
1e-08 0 0
1e-08 0 0
1e-08 0 0
1e-08 0 0
1e-08 0 0
1e-08 0 0
1e-08 0 0
1e-08 0 0
-0.000127925 0.00727353 -0
1e-08 0 0
1e-08 0 0
1e-08 0 0
0.00672063 -0.00382302 0
1e-08 0 0
0.00545043 -0.00419773 0
1e-08 0 0
1e-08 0 0
1e-08 0 0
1e-08 0 0
1e-08 0 0
1e-08 0 0
1e-08 0 0
1e-08 0 0
1e-08 0 0
1e-08 0 0
1e-08 0 0
1e-08 0 0
1e-08 0 0
-0.000186464 0.00155187 0
1e-08 0 0
1e-08 0 0
1e-08 0 0
1e-08 0 0
1e-08 0 0
0.00587047 -0.00601065 0
1e-08 0 0
0.00264415 -0.00351527 0
1e-08 0 0
1e-08 0 0
1e-08 0 0
1e-08 0 0
1e-08 0 0
1e-08 0 0
1e-08 0 0
1e-08 0 0
1e-08 0 0
1e-08 0 0
1e-08 0 0
1e-08 0 0
1e-08 0 0
-0.00426487 0.0163205 0
1e-08 0 0
1e-08 0 0
1e-08 0 0
1e-08 0 0
1e-08 0 0
1e-08 0 0
0.0027412 -0.00465139 0
1e-08 0 0
1e-08 0 0
1e-08 0 0
1e-08 0 0
1e-08 0 0
0.00325362 -0.00775445 0
1e-08 0 0
1e-08 0 0
1e-08 0 0
1e-08 0 0
1e-08 0 0
1e-08 0 0
1e-08 0 0
1e-08 0 0
1e-08 0 0
1e-08 0 0
-0.000726978 0.00172984 0
1e-08 0 0
1e-08 0 0
1e-08 0 0
1e-08 0 0
1e-08 0 0
1e-08 0 0
1e-08 0 0
1e-08 0 0
1e-08 0 0
1e-08 0 0
1e-08 0 0
1e-08 0 0
1e-08 0 0
1e-08 0 0
0.00170131 -0.00644503 0
1e-08 0 0
1e-08 0 0
1e-08 0 0
1e-08 0 0
1e-08 0 0
1e-08 0 0
1e-08 0 0
1e-08 0 0
1e-08 0 0
-0.00501078 0.00886276 0
1e-08 0 0
1e-08 0 0
1e-08 0 0
1e-08 0 0
1e-08 0 0
1e-08 0 0
1e-08 0 0
1e-08 0 0
1e-08 0 0
1e-08 0 0
1e-08 0 0
1e-08 0 0
1e-08 0 0
1e-08 0 0
1e-08 0 0
0.000721564 -0.0054564 0
1e-08 0 0
1e-08 0 0
1e-08 0 0
1e-08 0 0
1e-08 0 0
1e-08 0 0
1e-08 0 0
1e-08 0 0
1e-08 0 0
1e-08 0 0
-0.00353791 0.00456445 0
1e-08 0 0
1e-08 0 0
1e-08 0 0
1e-08 0 0
1e-08 0 0
1e-08 0 0
1e-08 0 0
1e-08 0 0
1e-08 0 0
1e-08 0 0
1e-08 0 0
1e-08 0 0
2.50854e-05 -0.00681703 0
1e-08 0 0
1e-08 0 0
1e-08 0 0
1e-08 0 0
1e-08 0 0
1e-08 0 0
1e-08 0 0
1e-08 0 0
1e-08 0 0
1e-08 0 0
1e-08 0 0
1e-08 0 0
-0.00420521 0.00425103 0
1e-08 0 0
1e-08 0 0
1e-08 0 0
1e-08 0 0
1e-08 0 0
1e-08 0 0
1e-08 0 0
1e-08 0 0
1e-08 0 0
1e-08 0 0
1e-08 0 0
1e-08 0 0
1e-08 0 0
-0.00099123 -0.00743125 0
1e-08 0 0
1e-08 0 0
1e-08 0 0
1e-08 0 0
1e-08 0 0
1e-08 0 0
1e-08 0 0
1e-08 0 0
-0.00530702 0.00409538 0
1e-08 0 0
1e-08 0 0
1e-08 0 0
1e-08 0 0
1e-08 0 0
1e-08 0 0
1e-08 0 0
1e-08 0 0
1e-08 0 0
1e-08 0 0
1e-08 0 0
-0.00158052 -0.00580354 0
1e-08 0 0
1e-08 0 0
1e-08 0 0
1e-08 0 0
1e-08 0 0
1e-08 0 0
1e-08 0 0
-0.00822939 0.00464772 0
1e-08 0 0
1e-08 0 0
1e-08 0 0
1e-08 0 0
1e-08 0 0
1e-08 0 0
1e-08 0 0
1e-08 0 0
1e-08 0 0
1e-08 0 0
1e-08 0 0
-0.00210204 -0.00512251 0
1e-08 0 0
1e-08 0 0
1e-08 0 0
1e-08 0 0
1e-08 0 0
-0.00236945 0.000987309 0
1e-08 0 0
1e-08 0 0
1e-08 0 0
1e-08 0 0
1e-08 0 0
1e-08 0 0
1e-08 0 0
1e-08 0 0
-0.00359676 -0.00630679 0
1e-08 0 0
1e-08 0 0
1e-08 0 0
1e-08 0 0
-0.0110573 0.00294229 0
1e-08 0 0
1e-08 0 0
1e-08 0 0
1e-08 0 0
1e-08 0 0
1e-08 0 0
-0.00372621 -0.00487733 0
1e-08 0 0
1e-08 0 0
1e-08 0 0
-0.00445758 0.000564802 0
1e-08 0 0
1e-08 0 0
1e-08 0 0
1e-08 0 0
1e-08 0 0
1e-08 0 0
-0.00529345 -0.00531822 0
1e-08 0 0
1e-08 0 0
-0.00632559 2.686e-05 0
1e-08 0 0
1e-08 0 0
1e-08 0 0
1e-08 0 0
-0.00490847 -0.00373553 0
1e-08 0 0
-0.00976585 -0.00139964 0
1e-08 0 0
1e-08 0 0
-0.00432134 -0.00254174 0
-0.00229344 -0.000607012 0
-0.0106723 -0.00435036 0
