# vtk DataFile Version 2.0
CellBP Time: 0.4
ASCII
DATASET UNSTRUCTURED_GRID
POINTS 296 double
-9.19713 -3.77943 0
-8.61769 -4.95346 0
-9.61872 -2.54093 0
-9.87233 -1.25393 0
-8.36662 -2.82105 0
-7.89107 -6.04383 0
-7.0278 -7.02672 0
-7.92795 -3.88037 0
-7.35319 -4.87398 0
-6.04423 -7.88829 0
-4.95586 -8.62189 0
-9.95517 0.0527725 0
-9.86725 1.35773 0
-8.6712 -1.68855 0
-8.79446 -0.533271 0
-7.59955 -2.00109 0
-7.23683 -2.91013 0
-6.64607 -5.78517 0
-5.82666 -6.59996 0
-6.80339 -3.89767 0
-6.22876 -4.67775 0
-3.78184 -9.19582 0
-2.54012 -9.6152 0
-4.91276 -7.32393 0
-3.91681 -7.88912 0
-8.7994 0.6413 0
-9.6157 2.63983 0
-8.62693 1.77637 0
-9.18981 3.88227 0
-7.75496 -0.923695 0
-7.80325 0.0792532 0
-6.96078 -1.3138 0
-1.25873 -9.8739 0
-6.44826 -2.15602 0
-6.32711 -3.06155 0
-5.54095 -5.48604 0
-4.80424 -6.13005 0
-5.66858 -3.75948 0
-5.2767 -4.56598 0
-2.86824 -8.36921 0
-1.77975 -8.64551 0
-3.93107 -6.72706 0
-3.06475 -7.15223 0
0.047729 -9.96142 0
-7.70413 1.13696 0
-8.33482 2.91582 0
-7.5607 2.11184 0
-8.61901 5.05197 0
-7.89141 3.97904 0
-7.88823 6.14735 0
-6.78769 -0.398389 0
-6.95668 0.545287 0
-5.77842 -1.00654 0
-0.593716 -8.81791 0
0.566758 -8.78043 0
-5.30615 -2.48308 0
-4.49709 -5.09646 0
-3.908 -5.77857 0
-4.44191 -3.80675 0
-2.07173 -7.56542 0
-1.1385 -7.78798 0
-2.99831 -6.10203 0
-2.30739 -6.62224 0
1.35555 -9.87462 0
-6.69043 1.41731 0
-7.17525 3.1209 0
-6.67044 2.37514 0
-7.30452 4.98604 0
-6.71466 3.99688 0
-7.03004 7.13118 0
-6.58119 5.89119 0
-6.04205 7.99278 0
-4.45107 -1.18307 0
-5.81409 0.516971 0
-4.65378 -0.00952149 0
0.00809669 -7.85654 0
1.74286 -8.65156 0
0.948894 -7.77412 0
-4.0366 -2.40889 0
-3.48364 -1.39026 0
-3.30004 -4.80559 0
-3.26147 -3.27323 0
-1.375 -6.68104 0
-0.508414 -7.02584 0
-1.97436 -5.5401 0
2.64152 -9.62278 0
-5.51028 2.0382 0
-6.1077 3.07327 0
-6.10158 4.86581 0
-5.77767 3.99555 0
-5.7706 6.71906 0
-5.45309 5.61022 0
-4.95113 8.71624 0
-4.82335 7.41135 0
-3.49837 -0.426275 0
-4.45212 1.27182 0
-3.71142 0.592044 0
-4.06612 2.31737 0
-3.77899 9.29959 0
2.87993 -8.34513 0
0.424801 -6.79954 0
2.03173 -7.53757 0
1.31344 -6.91222 0
-2.44114 -0.876594 0
-2.83637 -2.13231 0
-2.29455 -4.09953 0
-2.32084 -2.97682 0
-0.442917 -5.86721 0
-1.22186 -4.49979 0
3.87815 -9.19942 0
-4.8002 3.39008 0
-5.10717 4.59818 0
-4.67653 6.28896 0
-4.55976 5.37029 0
-3.87274 7.99394 0
-3.83625 6.87788 0
-2.76634 8.41919 0
-1.64667 -0.140726 0
-1.44311 -0.891887 0
-2.47835 0.500484 0
-3.26304 1.45083 0
-3.24041 3.31217 0
-2.91451 2.34591 0
-1.36453 0.622545 0
-2.54025 9.7221 0
3.94364 -7.89457 0
2.97499 -7.16793 0
0.958457 -5.82933 0
2.07632 -6.42692 0
-1.67585 -1.99627 0
-1.43012 -3.27997 0
0.0950248 -4.75062 0
-0.560455 -3.69727 0
4.93723 -7.33073 0
5.05726 -8.62285 0
-3.79655 4.55637 0
-3.75244 5.77116 0
-2.90102 7.31721 0
-3.00699 6.37204 0
-1.66494 8.74592 0
-1.95125 7.6255 0
-2.34759 4.02308 0
-0.717887 -1.33142 0
-0.830771 -0.259512 0
-1.95767 1.64522 0
-2.15704 2.85999 0
-1.33384 3.55471 0
-0.882739 1.35098 0
-0.279302 0.455026 0
-0.533108 8.87596 0
-1.25793 9.97495 0
1.11699 -4.58178 0
3.91844 -6.72971 0
2.994 -6.10758 0
2.12255 -5.43539 0
4.79395 -6.21735 0
-0.552087 -2.48196 0
0.49937 -3.46945 0
0.0619346 -1.61596 0
1.48858 -3.69142 0
5.87516 -6.62634 0
6.16278 -7.90771 0
-2.47205 5.34227 0
-2.13425 6.54141 0
-0.903092 7.80345 0
-1.27611 6.93932 0
0.0853191 7.88985 0
-1.15345 4.49602 0
0.153456 -0.620041 0
-0.800303 2.48564 0
-0.332196 3.62064 0
0.0613786 1.51705 0
0.740693 0.461107 0
0.644437 8.87885 0
0.0473187 10.0601 0
2.39347 -4.29543 0
3.86601 -5.6519 0
3.01008 -5.22803 0
5.57326 -5.48349 0
4.69642 -5.29161 0
0.633333 -2.30022 0
1.25746 -2.95879 0
0.760006 -1.40054 0
2.16889 -3.14476 0
3.00327 -3.48397 0
6.16683 -4.79318 0
6.66256 -5.77918 0
7.12518 -7.03314 0
-1.01994 5.81607 0
-0.377066 6.88621 0
1.12023 7.77005 0
0.554169 7.08281 0
-0.00550207 4.73855 0
0.605294 3.83094 0
1.34482 -0.648473 0
0.556668 2.61967 0
0.968796 1.57236 0
1.91196 0.20545 0
1.62043 1.062 0
2.12574 7.58689 0
1.79604 8.7179 0
1.35231 9.97143 0
3.83066 -4.35814 0
5.12359 -4.47443 0
5.86425 -3.95814 0
3.79492 -3.2057 0
1.81931 -1.8875 0
3.02365 -2.58177 0
6.79405 -3.95536 0
7.39305 -4.91608 0
7.99369 -6.0413 0
0.476142 5.88938 0
1.42524 6.74649 0
2.37308 6.67425 0
1.20259 4.55094 0
1.48907 3.39691 0
2.43835 -0.700148 0
2.83331 0.137374 0
1.7794 2.15396 0
2.61766 1.14658 0
3.06823 7.173 0
2.89706 8.39597 0
2.63693 9.71711 0
4.92067 -3.32688 0
6.14204 -3.11002 0
4.18172 -2.27431 0
3.25098 -1.50507 0
6.76074 -2.3243 0
7.26179 -3.05365 0
7.98699 -3.92792 0
8.71759 -4.9512 0
2.02005 5.60032 0
3.08518 6.15979 0
2.35198 4.12827 0
2.41555 3.05736 0
3.52873 -0.466273 0
3.62279 0.610874 0
2.96301 2.28669 0
3.5535 1.51949 0
4.01342 5.90098 0
3.98514 6.7993 0
3.97166 7.94405 0
3.89396 9.28801 0
5.58248 -1.93668 0
4.51922 -1.13154 0
6.73957 -1.34514 0
7.62182 -2.03987 0
8.41072 -2.89688 0
9.30033 -3.7811 0
3.42158 4.87878 0
3.349 3.38799 0
4.69757 0.127103 0
4.52674 1.30827 0
4.0714 2.44357 0
4.57377 5.15822 0
4.84658 6.19607 0
4.98086 7.38822 0
5.05103 8.71306 0
5.88542 -0.430749 0
7.03104 -0.494658 0
7.78082 -1.07466 0
8.67356 -1.78413 0
9.72069 -2.53818 0
4.55706 3.83101 0
5.81666 1.10422 0
5.38011 2.53924 0
5.38629 4.62744 0
5.62008 5.52783 0
5.90286 6.67566 0
6.14018 7.98699 0
6.86229 0.471178 0
7.87669 -0.0293814 0
8.89914 -0.602947 0
9.97594 -1.25296 0
6.99863 1.35231 0
5.72953 3.77998 0
6.55099 2.20879 0
6.39111 3.09086 0
6.29707 4.69353 0
6.70204 5.8504 0
7.12674 7.1247 0
7.79719 0.98292 0
8.8754 0.576084 0
10.0619 0.0533291 0
7.62783 2.00862 0
6.84109 3.91013 0
7.28001 2.95803 0
7.38937 4.89862 0
7.99045 6.14722 0
8.73718 1.73451 0
9.97466 1.36072 0
8.4374 2.84851 0
7.99251 3.9265 0
8.71623 5.05992 0
9.71765 2.6467 0
9.29617 3.88611 0
CELLS 542 2168
3 2 0 4
3 0 1 7
3 4 0 7
3 1 5 8
3 7 1 8
3 3 2 13
3 13 2 4
3 11 3 14
3 14 3 13
3 13 4 15
3 4 7 16
3 15 4 16
3 5 6 17
3 8 5 17
3 6 9 18
3 17 6 18
3 7 8 19
3 16 7 19
3 8 17 20
3 19 8 20
3 9 10 23
3 18 9 23
3 10 21 24
3 23 10 24
3 12 11 25
3 25 11 14
3 26 12 27
3 27 12 25
3 14 13 29
3 29 13 15
3 25 14 30
3 30 14 29
3 29 15 31
3 15 16 33
3 31 15 33
3 16 19 34
3 33 16 34
3 17 18 35
3 20 17 35
3 18 23 36
3 35 18 36
3 19 20 37
3 34 19 37
3 20 35 38
3 37 20 38
3 21 22 39
3 24 21 39
3 22 32 40
3 39 22 40
3 23 24 41
3 36 23 41
3 24 39 42
3 41 24 42
3 27 25 44
3 44 25 30
3 28 26 45
3 45 26 27
3 45 27 46
3 46 27 44
3 47 28 48
3 48 28 45
3 30 29 50
3 50 29 31
3 44 30 51
3 51 30 50
3 50 31 52
3 31 33 52
3 32 43 53
3 40 32 53
3 53 43 54
3 33 34 55
3 34 37 55
3 33 55 52
3 35 36 56
3 38 35 56
3 36 41 57
3 56 36 57
3 37 38 58
3 38 56 58
3 37 58 55
3 39 40 59
3 42 39 59
3 40 53 60
3 59 40 60
3 41 42 61
3 57 41 61
3 42 59 62
3 61 42 62
3 43 63 54
3 46 44 64
3 64 44 51
3 48 45 65
3 65 45 46
3 65 46 66
3 66 46 64
3 49 47 67
3 67 47 48
3 67 48 68
3 68 48 65
3 69 49 70
3 70 49 67
3 52 55 72
3 64 51 73
3 51 50 73
3 50 52 73
3 73 52 74
3 74 52 72
3 53 54 75
3 60 53 75
3 54 63 76
3 54 76 77
3 75 54 77
3 55 58 78
3 72 55 78
3 72 78 79
3 56 57 80
3 57 61 80
3 56 80 58
3 58 80 81
3 78 58 81
3 59 60 82
3 62 59 82
3 60 75 83
3 82 60 83
3 61 62 84
3 62 82 84
3 61 84 80
3 63 85 76
3 66 64 86
3 64 73 86
3 68 65 87
3 87 65 66
3 87 66 86
3 70 67 88
3 88 67 68
3 88 68 89
3 89 68 87
3 71 69 90
3 90 69 70
3 90 70 91
3 91 70 88
3 92 71 93
3 93 71 90
3 74 72 94
3 94 72 79
3 86 73 95
3 95 73 74
3 95 74 96
3 96 74 94
3 97 86 95
3 76 85 99
3 75 77 100
3 83 75 100
3 76 99 101
3 77 76 101
3 77 101 102
3 100 77 102
3 94 79 103
3 78 81 104
3 79 78 104
3 79 104 103
3 80 84 105
3 81 80 105
3 81 105 106
3 104 81 106
3 82 83 107
3 83 100 107
3 82 107 84
3 84 107 108
3 105 84 108
3 85 109 99
3 89 87 110
3 87 86 110
3 110 86 97
3 91 88 111
3 111 88 89
3 111 89 110
3 93 90 112
3 112 90 91
3 112 91 113
3 113 91 111
3 98 92 114
3 114 92 93
3 114 93 115
3 115 93 112
3 116 98 114
3 117 103 118
3 96 94 119
3 94 103 119
3 119 103 117
3 97 95 120
3 120 95 96
3 120 96 119
3 121 110 97
3 121 97 122
3 122 97 120
3 123 119 117
3 124 98 116
3 99 109 125
3 99 125 126
3 101 99 126
3 100 102 127
3 100 127 107
3 101 126 128
3 102 101 128
3 102 128 127
3 104 106 129
3 104 129 103
3 103 129 118
3 105 108 130
3 106 105 130
3 106 130 129
3 107 127 131
3 108 107 131
3 108 131 132
3 108 132 130
3 109 134 125
3 125 134 133
3 113 111 135
3 111 110 135
3 135 110 121
3 115 112 136
3 136 112 113
3 136 113 135
3 116 114 137
3 137 114 115
3 137 115 138
3 138 115 136
3 139 124 116
3 139 116 140
3 140 116 137
3 141 135 121
3 118 129 142
3 118 142 143
3 117 118 143
3 123 117 143
3 122 120 144
3 120 119 144
3 144 119 123
3 141 121 145
3 145 121 122
3 145 122 144
3 146 141 145
3 147 144 123
3 147 123 148
3 143 148 123
3 150 124 139
3 149 150 139
3 131 127 151
3 125 133 152
3 126 125 152
3 126 152 153
3 128 126 153
3 128 153 154
3 128 154 127
3 127 154 151
3 152 133 155
3 130 132 156
3 130 156 129
3 129 156 142
3 131 151 157
3 132 131 157
3 132 157 156
3 156 158 142
3 157 151 159
3 133 160 155
3 134 161 133
3 133 161 160
3 138 136 162
3 136 135 162
3 162 135 141
3 140 137 163
3 163 137 138
3 163 138 162
3 149 139 164
3 164 139 140
3 164 140 165
3 165 140 163
3 166 149 164
3 167 162 141
3 167 141 146
3 142 158 168
3 143 142 168
3 143 168 148
3 146 145 169
3 145 144 169
3 169 144 147
3 170 167 146
3 170 146 169
3 171 169 147
3 171 147 148
3 171 148 172
3 168 172 148
3 173 149 166
3 174 150 149
3 173 174 149
3 154 175 151
3 151 175 159
3 152 155 176
3 153 152 176
3 153 176 177
3 153 177 154
3 154 177 175
3 155 160 178
3 155 178 179
3 176 155 179
3 156 157 180
3 156 180 158
3 157 159 181
3 157 181 180
3 158 180 182
3 158 182 168
3 159 175 183
3 159 183 181
3 175 184 183
3 160 186 178
3 178 186 185
3 161 187 160
3 160 187 186
3 165 163 188
3 163 162 188
3 188 162 167
3 166 164 189
3 189 164 165
3 189 165 188
3 190 173 166
3 190 166 191
3 191 166 189
3 192 188 167
3 192 167 170
3 193 192 170
3 182 194 168
3 194 172 168
3 193 170 195
3 170 169 195
3 195 169 171
3 196 195 171
3 196 171 172
3 194 197 172
3 197 198 172
3 198 196 172
3 200 173 190
3 199 200 190
3 201 174 173
3 200 201 173
3 176 179 202
3 177 176 202
3 177 202 175
3 175 202 184
3 178 185 203
3 178 203 179
3 179 203 202
3 203 185 204
3 202 205 184
3 183 206 181
3 180 181 206
3 180 206 182
3 182 206 194
3 183 184 207
3 205 207 184
3 183 207 206
3 185 208 204
3 186 209 185
3 185 209 208
3 187 210 186
3 186 210 209
3 191 189 211
3 189 188 211
3 211 188 192
3 199 190 212
3 212 190 191
3 212 191 211
3 213 199 212
3 214 211 192
3 214 192 193
3 215 214 193
3 215 193 195
3 206 216 194
3 216 197 194
3 216 217 197
3 215 195 218
3 218 195 196
3 198 218 196
3 217 219 197
3 219 218 198
3 197 219 198
3 220 199 213
3 221 200 199
3 220 221 199
3 222 201 200
3 221 222 200
3 203 204 223
3 203 223 202
3 202 223 205
3 204 208 224
3 204 224 223
3 205 223 225
3 205 225 207
3 207 225 226
3 207 226 206
3 226 216 206
3 208 228 224
3 224 228 227
3 209 229 208
3 229 228 208
3 210 230 209
3 209 230 229
3 213 212 231
3 212 211 231
3 231 211 214
3 232 220 213
3 232 213 231
3 233 231 214
3 233 214 215
3 234 233 215
3 234 215 218
3 226 235 216
3 235 217 216
3 235 236 217
3 217 236 219
3 237 234 218
3 237 218 219
3 236 238 219
3 238 237 219
3 240 220 232
3 239 240 232
3 241 221 220
3 240 241 220
3 242 222 221
3 241 242 221
3 224 227 243
3 224 243 223
3 223 243 225
3 225 243 244
3 225 244 226
3 226 244 235
3 227 245 243
3 228 246 227
3 227 246 245
3 229 247 228
3 228 247 246
3 230 248 229
3 229 248 247
3 239 232 249
3 232 231 249
3 249 231 233
3 250 249 233
3 250 233 234
3 237 250 234
3 244 251 235
3 235 251 236
3 251 252 236
3 236 252 238
3 252 253 238
3 253 250 237
3 253 237 238
3 254 239 249
3 255 240 239
3 254 255 239
3 256 241 240
3 255 256 240
3 257 242 241
3 256 257 241
3 245 258 243
3 243 258 244
3 244 258 251
3 245 259 258
3 246 260 245
3 245 260 259
3 247 261 246
3 246 261 260
3 248 262 247
3 247 262 261
3 254 249 263
3 263 249 250
3 253 263 250
3 258 264 251
3 251 264 252
3 264 265 252
3 265 263 253
3 252 265 253
3 266 254 263
3 267 255 254
3 266 267 254
3 268 256 255
3 267 268 255
3 269 257 256
3 268 269 256
3 259 270 258
3 270 264 258
3 260 271 259
3 259 271 270
3 261 272 260
3 260 272 271
3 262 273 261
3 273 272 261
3 270 274 264
3 275 266 263
3 275 263 265
3 274 276 264
3 276 265 264
3 276 277 265
3 277 275 265
3 278 267 266
3 275 278 266
3 279 268 267
3 278 279 267
3 280 269 268
3 279 280 268
3 271 281 270
3 270 281 274
3 272 282 271
3 271 282 281
3 273 283 272
3 272 283 282
3 281 284 274
3 274 284 276
3 285 278 275
3 277 285 275
3 284 286 276
3 286 285 277
3 276 286 277
3 287 279 278
3 285 287 278
3 288 280 279
3 287 288 279
3 282 289 281
3 281 289 284
3 283 290 282
3 282 290 289
3 289 291 284
3 284 291 286
3 291 292 286
3 292 287 285
3 286 292 285
3 293 288 287
3 292 293 287
3 290 294 289
3 289 294 291
3 294 295 291
3 295 293 292
3 291 295 292
CELL_TYPES 542
5
5
5
5
5
5
5
5
5
5
5
5
5
5
5
5
5
5
5
5
5
5
5
5
5
5
5
5
5
5
5
5
5
5
5
5
5
5
5
5
5
5
5
5
5
5
5
5
5
5
5
5
5
5
5
5
5
5
5
5
5
5
5
5
5
5
5
5
5
5
5
5
5
5
5
5
5
5
5
5
5
5
5
5
5
5
5
5
5
5
5
5
5
5
5
5
5
5
5
5
5
5
5
5
5
5
5
5
5
5
5
5
5
5
5
5
5
5
5
5
5
5
5
5
5
5
5
5
5
5
5
5
5
5
5
5
5
5
5
5
5
5
5
5
5
5
5
5
5
5
5
5
5
5
5
5
5
5
5
5
5
5
5
5
5
5
5
5
5
5
5
5
5
5
5
5
5
5
5
5
5
5
5
5
5
5
5
5
5
5
5
5
5
5
5
5
5
5
5
5
5
5
5
5
5
5
5
5
5
5
5
5
5
5
5
5
5
5
5
5
5
5
5
5
5
5
5
5
5
5
5
5
5
5
5
5
5
5
5
5
5
5
5
5
5
5
5
5
5
5
5
5
5
5
5
5
5
5
5
5
5
5
5
5
5
5
5
5
5
5
5
5
5
5
5
5
5
5
5
5
5
5
5
5
5
5
5
5
5
5
5
5
5
5
5
5
5
5
5
5
5
5
5
5
5
5
5
5
5
5
5
5
5
5
5
5
5
5
5
5
5
5
5
5
5
5
5
5
5
5
5
5
5
5
5
5
5
5
5
5
5
5
5
5
5
5
5
5
5
5
5
5
5
5
5
5
5
5
5
5
5
5
5
5
5
5
5
5
5
5
5
5
5
5
5
5
5
5
5
5
5
5
5
5
5
5
5
5
5
5
5
5
5
5
5
5
5
5
5
5
5
5
5
5
5
5
5
5
5
5
5
5
5
5
5
5
5
5
5
5
5
5
5
5
5
5
5
5
5
5
5
5
5
5
5
5
5
5
5
5
5
5
5
5
5
5
5
5
5
5
5
5
5
5
5
5
5
5
5
5
5
5
5
5
5
5
5
5
5
5
5
5
5
5
5
5
5
5
5
5
5
5
5
5
5
5
5
5
5
5
5
5
5
5
5
5
5
5
5
5
5
5
5
5
5
5
5
5
5
5
5
5
5
5
5
5
5
5
5
5
5
5
5
5
5
5
5
5
5
5
5
5
5
5
5
5
5
5
5
5
5
5
POINT_DATA 296
SCALARS concentrations float 4
LOOKUP_TABLE default
0 1.00148 0.111012 104.011
0 1.00139 0.11086 107.016
0 1.00051 0.104353 92.8265
0 0.999646 0.115484 138.483
0 1.00141 0.100044 142.582
0 1.00149 0.109706 77.5406
0 1.00164 0.109112 88.447
0 1.00123 0.0949696 52.1258
0 1.00087 0.0631665 48.8917
0 1.00196 0.0884243 15.0376
0 1.0022 0.0529586 7.20226
0 0.999641 0.113906 144.584
0 1.00105 0.107133 119.354
0 1.00079 0.0107651 71.6033
0 0.999978 0.0508247 36.9888
0 1.00172 0.0930204 140.982
0 1.00143 0.0542074 46.1336
0 1.00116 0.0985789 25.067
0 1.00162 0.126413 119.095
0 1.00092 0.0247429 64.369
0 1.00087 0.0739216 146.727
0 1.00317 0.102664 73.1889
0 1.00354 0.078198 19.1743
0 1.00187 0.0682207 29.1617
0 1.00238 0.0754658 19.658
0 1.0002 0.0576421 27.2736
0 1.0018 0.0208498 76.0015
0 1.00164 0.0866255 77.8945
0 1.00026 0.0816543 173.839
0 1.00137 0.0834089 145.622
0 1.00062 0.0394928 45.6159
0 1.00185 0.0751669 125.909
0 1.00384 0.101273 92.6252
0 1.00223 0.0482944 81.1732
0 1.00219 0.0805695 44.2915
0 1.00136 0.0373142 32.9097
0 1.00179 0.0687915 43.281
0 1.00208 0.0740963 61.8893
0 1.00169 0.086702 44.9825
0 1.00243 0.0691538 58.5977
0 1.00263 0.0703459 63.5649
0 1.00153 0.0736399 34.2429
0 1.00161 0.0300005 59.3433
0 1.00301 0.108985 92.5382
0 1.00087 0.053435 17.9872
0 1.00113 0.0486991 73.1821
0 1.00103 0.0677295 39.4019
0 1.00004 0.0137475 45.1113
0 1.00026 0.0115058 53.111
0 1.00079 0.0723782 162.311
0 1.00125 0.0362666 15.6384
0 1.00114 0.0539091 14.6247
0 1.00205 0.0362058 45.433
0 1.00293 0.0553147 60.1451
0 1.00257 0.0438649 58.8476
0 1.00234 0.0807453 96.9451
0 1.00204 0.0749808 129.425
0 1.00159 0.101192 22.8563
0 1.00166 0.0668916 96.2395
0 1.00147 0.0367288 66.8315
0 1.00203 0.0186239 63.6559
0 1.00135 0.0537975 70.4405
0 1.00222 0.0436593 31.4016
0 1.00311 0.106258 26.8168
0 1.00102 0.0531888 22.8886
0 1.00035 0.0927707 130.607
0 1.00008 0.0580655 8.09296
0 1.00048 0.00672707 74.802
0 1.00047 0.0191981 39.743
0 1.00218 0.0800315 110.402
0 1.00197 0.00547698 44.9813
0 1.00176 0.114208 71.8197
0 1.0016 0.101061 135.005
0 1.00137 0.0504745 188.064
0 1.00155 0.0959174 152.86
0 1.00261 0.0833945 56.0578
0 1.00223 0.0570446 99.2151
0 1.00193 0.0785808 75.0861
0 1.00136 0.111415 144.029
0 1.0008 0.063504 90.1788
0 1.00116 0.0408017 29.6519
0 1.00116 0.103147 85.5821
0 1.00183 0.0492617 69.6903
0 1.00158 0.0303644 47.0695
0 1.00161 0.0386987 59.2697
0 1.00229 0.126292 66.8491
0 1.00017 0.0333603 92.2346
0 0.999476 0.0404565 43.3456
0 1.00171 0.0138243 62.5187
0 1.00012 0.0192981 41.316
0 1.00258 0.00844944 86.8778
0 1.00269 0.030259 118.791
0 1.00141 0.0964196 129.052
0 1.00247 0.0494375 159.086
0 1.00105 0.0862856 120.535
0 1.00065 0.0340495 69.2915
0 1.00146 0.0583729 51.7952
0 0.999237 0.0164461 105.409
0 1.00166 0.072652 147.364
0 1.00171 0.0316524 31.5104
0 1.0018 0.0562125 60.4188
0 1.00102 0.0378372 4.62637
0 1.00156 0.0535373 56.183
0 1.00161 0.0710501 70.3399
0 1.00139 0.067885 72.5604
0 1.001 0.0727161 24.7273
0 1.00113 0.0601156 53.6201
0 1.0018 0.0934438 61.3291
0 1.0019 0.0849908 75.1209
0 1.00208 0.048592 44.4697
0 0.999564 0.0168896 106.635
0 1.00115 0.0228294 64.8999
0 1.00317 0.0390524 53.3023
0 1.00245 0.0257582 62.5633
0 1.00262 0.0337957 97.0795
0 1.0036 0.0389443 36.2356
0 1.00241 0.0684701 159.931
0 1.00274 0.0686966 67.5557
0 1.00227 0.0935416 78.5227
0 1.00172 0.0169803 134.656
0 1.00062 0.00384261 126.777
0 1.00026 0.00346948 137.638
0 0.999743 0.00404075 144.152
0 1.00247 0.0108203 85.0902
0 1.00167 0.0942674 116.604
0 1.00224 0.0352037 32.9985
0 1.00102 0.058713 52.9605
0 1.00163 0.066593 45.787
0 1.00105 0.0898542 100.494
0 1.00101 0.098183 56.9404
0 1.00098 0.0688207 69.1213
0 1.00194 0.0724499 54.6516
0 1.00143 0.0775082 63.7854
0 1.00208 0.0425252 65.5645
0 1.0023 0.0302812 78.7826
0 1.00142 0.00656924 130.477
0 1.00309 0.0206894 75.4511
0 1.0037 0.0494133 11.2289
0 1.00375 0.053972 14.9946
0 1.00245 0.0575587 136.322
0 1.0027 0.0496726 17.5349
0 1.00311 0.00360671 132.473
0 1.00146 0.0958797 83.3854
0 1.00265 0.0937794 101.13
0 1.00152 0.0142322 110.776
0 1.00228 0.00456198 133.293
0 1.00489 0.00343791 138.257
0 1.00233 0.00773117 104.911
0 1.00264 0.0584287 125.763
0 1.00247 0.0271499 51.9349
0 1.0027 0.0395497 85.0855
0 1.0015 0.0555473 70.0826
0 1.00176 0.0571799 38.6506
0 1.00115 0.0939487 54.9692
0 1.00184 0.069987 52.7793
0 1.00214 0.0523152 41.947
0 1.00102 0.0701752 23.7752
0 1.00144 0.0957281 55.1211
0 1.00161 0.0788203 31.4518
0 1.00199 0.0827124 18.2304
0 1.00152 0.0494497 58.0555
0 1.00143 0.0271276 32.5711
0 1.00362 0.00769898 116.718
0 1.00337 0.0199004 76.7359
0 1.00222 0.025254 61.6019
0 1.00235 0.033086 72.3643
0 1.00204 0.0324824 46.1863
0 1.00378 0.0117336 182.743
0 1.00207 0.069759 38.7305
0 1.00312 0.00800725 127.506
0 1.00387 0.0219079 183.593
0 1.00249 0.00346445 96.792
0 1.00245 0.0586386 45.4115
0 1.00206 0.0525288 36.6399
0 1.00217 0.11436 98.9613
0 1.00229 0.0415539 34.1382
0 1.00176 0.0649689 64.2632
0 1.00193 0.0279491 44.5523
0 1.00228 0.0356131 25.0627
0 1.00246 0.0485186 27.1834
0 1.00162 0.0633598 70.3023
0 1.00188 0.0710246 41.1628
0 1.00159 0.0649798 4.45291
0 1.00218 0.054482 27.8889
0 1.00235 0.0681663 14.4643
0 1.0023 0.0451141 31.1986
0 1.00189 0.115746 102.823
0 1.00141 0.0836072 148.589
0 1.00251 0.0524785 64.1779
0 1.00205 0.0320285 94.738
0 1.00216 0.0291283 51.5075
0 1.00143 0.0556284 70.8422
0 1.00153 0.0994639 111.382
0 1.00176 0.0599898 145.343
0 1.00219 0.100467 40.4481
0 1.00254 0.0426932 76.8658
0 1.00271 0.0772271 48.3749
0 1.00238 0.0969696 42.3216
0 1.00219 0.0729701 55.7697
0 1.0021 0.0501998 87.25
0 1.00229 0.0613208 47.0109
0 1.00208 0.0295904 88.7177
0 1.00237 0.0649409 37.9133
0 1.00258 0.0412133 36.7053
0 1.00181 0.0406546 32.6692
0 1.00209 0.0875712 27.0738
0 1.00164 0.0908837 10.4968
0 1.0019 0.052334 43.786
0 1.00152 0.0525333 30.8591
0 1.00166 0.0341069 32.5877
0 1.00141 0.0754521 90.1504
0 1.00121 0.0344992 7.00901
0 1.00166 0.0261736 53.1622
0 1.00195 0.0270237 44.1061
0 1.00107 0.0134846 81.6891
0 1.00179 0.102074 66.6518
0 1.00176 0.0891288 71.0869
0 1.00236 0.0922936 59.4854
0 1.00247 0.0510297 30.7832
0 1.00226 0.0738422 49.104
0 1.00191 0.0535203 77.8762
0 1.00177 0.0219517 28.1246
0 1.00192 0.0237522 35.742
0 1.00208 0.0431278 41.6431
0 1.00146 0.0423245 17.4244
0 1.00182 0.0445121 40.9885
0 1.00135 0.0689992 68.1834
0 1.00131 0.039746 34.7846
0 1.00143 0.0393281 31.0398
0 1.0021 0.0409124 38.8348
0 1.00176 0.0557822 90.8235
0 1.00163 0.0660631 20.3327
0 1.00201 0.0342747 28.1535
0 1.00146 0.050007 32.2165
0 1.0018 0.0539103 54.0183
0 1.00123 0.0833268 23.4862
0 1.00209 0.0692706 42.9069
0 1.00216 0.0632096 33.9644
0 1.00209 0.0590073 46.1715
0 1.002 0.096214 31.5957
0 1.00141 0.046375 89.9011
0 1.00127 0.0639782 51.867
0 1.00157 0.00937443 123.909
0 1.00153 0.0410257 47.252
0 1.00101 0.0710638 56.1564
0 1.00144 0.0419372 36.4477
0 1.00144 0.0403285 29.525
0 1.00209 0.0350225 21.5416
0 1.00265 0.0754573 100.168
0 1.00197 0.0454713 55.7954
0 1.00178 0.0489237 47.6188
0 1.00155 0.088371 36.0621
0 1.00197 0.0773119 28.483
0 1.00176 0.0851548 45.4449
0 1.00225 0.0958929 50.0862
0 1.00142 0.100286 16.8733
0 1.0004 0.0403921 93.8114
0 1.00017 0.0550147 45.316
0 1.00149 0.0485269 19.7233
0 1.00202 0.0449376 15.4603
0 1.0016 0.0393748 9.32698
0 1.00193 0.0313603 31.8505
0 1.00237 0.116962 8.74744
0 1.00167 0.0694537 55.8963
0 1.00193 0.0468917 24.2484
0 1.00149 0.0597015 67.6966
0 1.00116 0.0560663 51.3861
0 1.00104 0.0526469 79.1563
0 1.00084 0.0635302 83.0317
0 1.00034 0.0581074 55.7609
0 1.00218 0.0468006 43.9353
0 1.00212 0.0468365 31.3381
0 1.00156 0.0363768 14.3096
0 1.00194 0.112809 47.5868
0 1.00258 0.0375446 27.201
0 1.00123 0.0428081 32.5705
0 1.00218 0.0466929 45.8156
0 1.00152 0.0444569 25.7193
0 1.00102 0.0543348 55.2786
0 1.00058 0.0819049 152.434
0 1.00046 0.0541003 68.404
0 1.0027 0.0418211 24.2552
0 1.00164 0.134009 57.5438
0 1.00129 0.115758 60.8322
0 1.00322 0.0772403 44.3878
0 1.0018 0.0497144 55.3704
0 1.00248 0.0666869 167.075
0 1.00135 0.0782958 168.364
0 1.00104 0.070599 143.191
0 1.00244 0.129715 108.655
0 1.00148 0.115593 86.7953
0 1.003 0.102545 146.501
0 1.00181 0.0868061 118.23
0 1.00124 0.102183 154.266
0 1.00268 0.0964356 155.659
0 1.00231 0.0885209 158.696
VECTORS fa_u float
0.00597665 0.00247989 -0
0.00551303 0.00317981 -0
0.00655116 0.00175145 -0
0.00649347 0.000842325 -0
1e-08 0 0
0.00533105 0.00408814 -0
0.00460071 0.00460666 -0
1e-08 0 0
1e-08 0 0
0.00370075 0.00480686 -0
0.00364412 0.0063053 -0
0.006493 -1.26196e-05 -0
0.00604476 -0.00079318 0
1e-08 0 0
1e-08 0 0
1e-08 0 0
1e-08 0 0
1e-08 0 0
1e-08 0 0
1e-08 0 0
1e-08 0 0
0.00240889 0.0058584 -0
0.00158131 0.00588403 -0
1e-08 0 0
1e-08 0 0
1e-08 0 0
0.00684201 -0.00183599 0
1e-08 0 0
0.00539556 -0.00222943 0
1e-08 0 0
1e-08 0 0
1e-08 0 0
0.000883995 0.00660752 -0
1e-08 0 0
1e-08 0 0
1e-08 0 0
1e-08 0 0
1e-08 0 0
1e-08 0 0
1e-08 0 0
1e-08 0 0
1e-08 0 0
1e-08 0 0
1.87138e-06 0.00674301 -0
1e-08 0 0
1e-08 0 0
1e-08 0 0
0.00595493 -0.00342189 0
1e-08 0 0
0.00502098 -0.00383715 0
1e-08 0 0
1e-08 0 0
1e-08 0 0
1e-08 0 0
1e-08 0 0
1e-08 0 0
1e-08 0 0
1e-08 0 0
1e-08 0 0
1e-08 0 0
1e-08 0 0
1e-08 0 0
1e-08 0 0
-0.000795424 0.00609254 0
1e-08 0 0
1e-08 0 0
1e-08 0 0
1e-08 0 0
1e-08 0 0
0.00500263 -0.00500466 0
1e-08 0 0
0.00399334 -0.00523754 0
1e-08 0 0
1e-08 0 0
1e-08 0 0
1e-08 0 0
1e-08 0 0
1e-08 0 0
1e-08 0 0
1e-08 0 0
1e-08 0 0
1e-08 0 0
1e-08 0 0
1e-08 0 0
1e-08 0 0
-0.00183223 0.00684531 0
1e-08 0 0
1e-08 0 0
1e-08 0 0
1e-08 0 0
1e-08 0 0
1e-08 0 0
0.00291689 -0.00505128 0
1e-08 0 0
1e-08 0 0
1e-08 0 0
1e-08 0 0
1e-08 0 0
0.00259558 -0.00622118 0
1e-08 0 0
1e-08 0 0
1e-08 0 0
1e-08 0 0
1e-08 0 0
1e-08 0 0
1e-08 0 0
1e-08 0 0
1e-08 0 0
1e-08 0 0
-0.00227213 0.00548924 0
1e-08 0 0
1e-08 0 0
1e-08 0 0
1e-08 0 0
1e-08 0 0
1e-08 0 0
1e-08 0 0
1e-08 0 0
1e-08 0 0
1e-08 0 0
1e-08 0 0
1e-08 0 0
1e-08 0 0
1e-08 0 0
0.00176997 -0.00660715 0
1e-08 0 0
1e-08 0 0
1e-08 0 0
1e-08 0 0
1e-08 0 0
1e-08 0 0
1e-08 0 0
1e-08 0 0
1e-08 0 0
-0.0026597 0.0047042 0
1e-08 0 0
1e-08 0 0
1e-08 0 0
1e-08 0 0
1e-08 0 0
1e-08 0 0
1e-08 0 0
1e-08 0 0
1e-08 0 0
1e-08 0 0
1e-08 0 0
1e-08 0 0
1e-08 0 0
1e-08 0 0
1e-08 0 0
0.000828442 -0.00634242 0
1e-08 0 0
1e-08 0 0
1e-08 0 0
1e-08 0 0
1e-08 0 0
1e-08 0 0
1e-08 0 0
1e-08 0 0
1e-08 0 0
1e-08 0 0
-0.00618712 0.0080483 0
1e-08 0 0
1e-08 0 0
1e-08 0 0
1e-08 0 0
1e-08 0 0
1e-08 0 0
1e-08 0 0
1e-08 0 0
1e-08 0 0
1e-08 0 0
1e-08 0 0
1e-08 0 0
-9.0815e-06 -0.00673278 0
1e-08 0 0
1e-08 0 0
1e-08 0 0
1e-08 0 0
1e-08 0 0
1e-08 0 0
1e-08 0 0
1e-08 0 0
1e-08 0 0
1e-08 0 0
1e-08 0 0
1e-08 0 0
-0.00353107 0.0034639 0
1e-08 0 0
1e-08 0 0
1e-08 0 0
1e-08 0 0
1e-08 0 0
1e-08 0 0
1e-08 0 0
1e-08 0 0
1e-08 0 0
1e-08 0 0
1e-08 0 0
1e-08 0 0
1e-08 0 0
-0.000814072 -0.00614674 0
1e-08 0 0
1e-08 0 0
1e-08 0 0
1e-08 0 0
1e-08 0 0
1e-08 0 0
1e-08 0 0
1e-08 0 0
-0.0053289 0.00407592 0
1e-08 0 0
1e-08 0 0
1e-08 0 0
1e-08 0 0
1e-08 0 0
1e-08 0 0
1e-08 0 0
1e-08 0 0
1e-08 0 0
1e-08 0 0
1e-08 0 0
-0.00174836 -0.0065022 0
1e-08 0 0
1e-08 0 0
1e-08 0 0
1e-08 0 0
1e-08 0 0
1e-08 0 0
1e-08 0 0
-0.00508426 0.00293924 0
1e-08 0 0
1e-08 0 0
1e-08 0 0
1e-08 0 0
1e-08 0 0
1e-08 0 0
1e-08 0 0
1e-08 0 0
1e-08 0 0
1e-08 0 0
1e-08 0 0
-0.00255226 -0.00613655 0
1e-08 0 0
1e-08 0 0
1e-08 0 0
1e-08 0 0
1e-08 0 0
-0.006489 0.00269749 0
1e-08 0 0
1e-08 0 0
1e-08 0 0
1e-08 0 0
1e-08 0 0
1e-08 0 0
1e-08 0 0
1e-08 0 0
-0.00308905 -0.00533323 0
1e-08 0 0
1e-08 0 0
1e-08 0 0
1e-08 0 0
-0.00621134 0.0016599 0
1e-08 0 0
1e-08 0 0
1e-08 0 0
1e-08 0 0
1e-08 0 0
1e-08 0 0
-0.00392452 -0.00512866 0
1e-08 0 0
1e-08 0 0
1e-08 0 0
-0.00640482 0.000843383 0
1e-08 0 0
1e-08 0 0
1e-08 0 0
1e-08 0 0
1e-08 0 0
1e-08 0 0
-0.00446043 -0.00448591 0
1e-08 0 0
1e-08 0 0
-0.00666726 -3.25504e-06 0
1e-08 0 0
1e-08 0 0
1e-08 0 0
1e-08 0 0
-0.00551708 -0.00424709 0
1e-08 0 0
-0.00642689 -0.000853219 0
1e-08 0 0
1e-08 0 0
-0.00554729 -0.00320338 0
-0.00625734 -0.00168116 0
-0.00604052 -0.00250665 0
