# vtk DataFile Version 2.0
CellBP Time: 1.84
ASCII
DATASET UNSTRUCTURED_GRID
POINTS 296 double
-9.10181 -3.74099 0
-8.52815 -4.9028 0
-9.51767 -2.51393 0
-9.7696 -1.24236 0
-8.34999 -2.81584 0
-7.80932 -5.98095 0
-6.95468 -6.95486 0
-7.90998 -3.87107 0
-7.33595 -4.86333 0
-5.98023 -7.8089 0
-4.903 -8.52885 0
-9.86839 0.0499 0
-9.77237 1.34259 0
-8.64994 -1.68207 0
-8.77974 -0.528269 0
-7.58208 -2.00173 0
-7.21837 -2.90333 0
-6.63165 -5.77368 0
-5.81713 -6.59099 0
-6.78337 -3.88479 0
-6.21427 -4.67102 0
-3.74058 -9.10132 0
-2.51449 -9.5209 0
-4.90197 -7.30231 0
-3.90936 -7.87921 0
-8.78622 0.642034 0
-9.51836 2.6141 0
-8.61573 1.77227 0
-9.10354 3.84171 0
-7.73684 -0.927824 0
-7.7873 0.0803368 0
-6.94603 -1.31445 0
-1.24299 -9.77128 0
-6.43546 -2.15088 0
-6.3131 -3.05302 0
-5.53094 -5.46893 0
-4.79098 -6.10924 0
-5.65363 -3.75328 0
-5.26408 -4.55689 0
-2.8634 -8.35637 0
-1.77674 -8.63226 0
-3.92413 -6.71674 0
-3.05333 -7.14541 0
0.0499783 -9.85648 0
-7.69816 1.14225 0
-8.33127 2.91278 0
-7.54428 2.10977 0
-8.52964 5.00349 0
-7.87321 3.97471 0
-7.80929 6.08074 0
-6.77254 -0.396466 0
-6.95003 0.552168 0
-5.76719 -1.00259 0
-0.590177 -8.80167 0
0.565297 -8.76302 0
-5.29909 -2.47836 0
-4.48757 -5.09076 0
-3.89853 -5.76953 0
-4.43542 -3.80177 0
-2.06014 -7.55438 0
-1.13426 -7.77804 0
-2.99144 -6.09617 0
-2.30651 -6.61321 0
1.34298 -9.77199 0
-6.68345 1.42081 0
-7.165 3.11484 0
-6.6529 2.37059 0
-7.28849 4.98434 0
-6.71142 3.99912 0
-6.95527 7.05542 0
-6.56689 5.88916 0
-5.98094 7.90979 0
-4.44972 -1.18004 0
-5.81041 0.51339 0
-4.65265 -0.0102183 0
0.00841717 -7.84023 0
1.73733 -8.6363 0
0.948042 -7.75566 0
-4.03546 -2.40447 0
-3.48261 -1.38989 0
-3.29177 -4.80164 0
-3.26327 -3.26512 0
-1.37717 -6.66932 0
-0.508306 -7.01836 0
-1.97383 -5.5328 0
2.61385 -9.51878 0
-5.50339 2.03543 0
-6.08912 3.06923 0
-6.09903 4.86483 0
-5.75609 3.98766 0
-5.75649 6.71157 0
-5.44671 5.61392 0
-4.90326 8.62941 0
-4.83442 7.39847 0
-3.49858 -0.423751 0
-4.44587 1.24821 0
-3.70836 0.591812 0
-4.05908 2.31818 0
-3.74093 9.20232 0
2.86046 -8.32582 0
0.419342 -6.78901 0
2.02018 -7.51872 0
1.30478 -6.89891 0
-2.44255 -0.872908 0
-2.83599 -2.12921 0
-2.2925 -4.09418 0
-2.32359 -2.97098 0
-0.441809 -5.85666 0
-1.22163 -4.49567 0
3.84128 -9.10336 0
-4.78631 3.38936 0
-5.08315 4.58992 0
-4.64261 6.27539 0
-4.53438 5.35451 0
-3.84053 7.98683 0
-3.82294 6.83923 0
-2.78097 8.41599 0
-1.64718 -0.137549 0
-1.44869 -0.889532 0
-2.48693 0.507123 0
-3.25084 1.44317 0
-3.2365 3.31421 0
-2.90838 2.36995 0
-1.35355 0.626714 0
-2.51396 9.61912 0
3.9298 -7.88047 0
2.9621 -7.15119 0
0.953497 -5.81723 0
2.07238 -6.40936 0
-1.68148 -1.99027 0
-1.43319 -3.27496 0
0.0903766 -4.74341 0
-0.565622 -3.69145 0
4.92838 -7.31277 0
5.00295 -8.52937 0
-3.77423 4.54839 0
-3.73126 5.74685 0
-2.88516 7.28297 0
-3.00676 6.34773 0
-1.66116 8.72664 0
-1.93817 7.61225 0
-2.33658 4.04877 0
-0.729915 -1.32584 0
-0.83589 -0.25718 0
-1.93441 1.67963 0
-2.12385 2.87361 0
-1.30527 3.54179 0
-0.86844 1.34974 0
-0.281903 0.455641 0
-0.53305 8.86462 0
-1.24305 9.87222 0
1.11205 -4.57106 0
3.90696 -6.71115 0
2.98536 -6.0887 0
2.1164 -5.42038 0
4.78049 -6.19947 0
-0.55833 -2.47459 0
0.49491 -3.46094 0
0.0536421 -1.60886 0
1.48081 -3.67879 0
5.863 -6.60923 0
6.07991 -7.80884 0
-2.47397 5.34472 0
-2.12849 6.52865 0
-0.903152 7.79605 0
-1.27106 6.92565 0
0.0862496 7.87304 0
-1.14351 4.49141 0
0.15027 -0.617105 0
-0.796542 2.48663 0
-0.331097 3.59776 0
0.0633157 1.51142 0
0.740962 0.473 0
0.646332 8.86738 0
0.0500216 9.95749 0
2.37928 -4.28199 0
3.85618 -5.63519 0
2.99904 -5.20847 0
5.5693 -5.48689 0
4.68744 -5.27844 0
0.629291 -2.29137 0
1.25524 -2.9489 0
0.756738 -1.39017 0
2.16261 -3.13328 0
2.99136 -3.47363 0
6.15044 -4.78762 0
6.65221 -5.76486 0
7.05519 -6.95474 0
-1.01893 5.81638 0
-0.37215 6.87768 0
1.12165 7.76251 0
0.557553 7.07351 0
-0.000633673 4.72173 0
0.606696 3.82463 0
1.33784 -0.641372 0
0.538916 2.64895 0
0.965529 1.5735 0
1.9087 0.213593 0
1.61353 1.06395 0
2.12756 7.57684 0
1.79794 8.70596 0
1.34311 9.87175 0
3.82016 -4.34841 0
5.11267 -4.44533 0
5.84114 -3.93171 0
3.78122 -3.19865 0
1.81082 -1.88133 0
3.01682 -2.5721 0
6.77823 -3.94488 0
7.37721 -4.89428 0
7.91854 -5.98757 0
0.483053 5.87771 0
1.42709 6.73632 0
2.37226 6.66309 0
1.20922 4.55295 0
1.48716 3.39486 0
2.43382 -0.691447 0
2.82559 0.142353 0
1.78764 2.16101 0
2.60983 1.14901 0
3.0694 7.16381 0
2.90222 8.37106 0
2.61451 9.62045 0
4.90815 -3.32561 0
6.11624 -3.10635 0
4.17001 -2.27384 0
3.24203 -1.50204 0
6.72625 -2.31133 0
7.22634 -3.04013 0
7.95988 -3.90991 0
8.63298 -4.9057 0
2.02243 5.59638 0
3.08417 6.14856 0
2.36248 4.12413 0
2.41832 3.05835 0
3.52293 -0.460671 0
3.61285 0.612671 0
2.9596 2.28617 0
3.54281 1.52394 0
4.00904 5.89344 0
3.98155 6.78762 0
3.97094 7.93373 0
3.84185 9.20457 0
5.56569 -1.91501 0
4.50647 -1.12901 0
6.70919 -1.33528 0
7.58669 -2.03506 0
8.39203 -2.85991 0
9.20773 -3.74337 0
3.41722 4.8743 0
3.33695 3.38317 0
4.68859 0.129875 0
4.51651 1.30903 0
4.06289 2.4422 0
4.56741 5.14897 0
4.8402 6.18629 0
4.97757 7.37614 0
5.00339 8.62981 0
5.88038 -0.434633 0
7.00603 -0.487908 0
7.75415 -1.08455 0
8.67982 -1.74494 0
9.61788 -2.51385 0
4.55011 3.82559 0
5.81496 1.098 0
5.36867 2.53361 0
5.37657 4.61755 0
5.60855 5.51987 0
5.8941 6.66831 0
6.08211 7.91128 0
6.84196 0.463285 0
7.84837 -0.0256843 0
8.85576 -0.58399 0
9.87345 -1.24316 0
6.95624 1.34857 0
5.71772 3.77612 0
6.53776 2.19608 0
6.37642 3.08594 0
6.28855 4.68403 0
6.68985 5.83508 0
7.05524 7.05517 0
7.7796 0.967017 0
8.85507 0.572488 0
9.95953 0.0499659 0
7.61177 2.00298 0
6.82529 3.90176 0
7.26538 2.94496 0
7.37502 4.88345 0
7.9112 6.08218 0
8.71882 1.72622 0
9.87394 1.34344 0
8.41726 2.83665 0
7.97833 3.91434 0
8.62952 5.00318 0
9.62 2.61475 0
9.20975 3.8442 0
CELLS 542 2168
3 2 0 4
3 0 1 7
3 4 0 7
3 1 5 8
3 7 1 8
3 3 2 13
3 13 2 4
3 11 3 14
3 14 3 13
3 13 4 15
3 4 7 16
3 15 4 16
3 5 6 17
3 8 5 17
3 6 9 18
3 17 6 18
3 7 8 19
3 16 7 19
3 8 17 20
3 19 8 20
3 9 10 23
3 18 9 23
3 10 21 24
3 23 10 24
3 12 11 25
3 25 11 14
3 26 12 27
3 27 12 25
3 14 13 29
3 29 13 15
3 25 14 30
3 30 14 29
3 29 15 31
3 15 16 33
3 31 15 33
3 16 19 34
3 33 16 34
3 17 18 35
3 20 17 35
3 18 23 36
3 35 18 36
3 19 20 37
3 34 19 37
3 20 35 38
3 37 20 38
3 21 22 39
3 24 21 39
3 22 32 40
3 39 22 40
3 23 24 41
3 36 23 41
3 24 39 42
3 41 24 42
3 27 25 44
3 44 25 30
3 28 26 45
3 45 26 27
3 45 27 46
3 46 27 44
3 47 28 48
3 48 28 45
3 30 29 50
3 50 29 31
3 44 30 51
3 51 30 50
3 50 31 52
3 31 33 52
3 32 43 53
3 40 32 53
3 53 43 54
3 33 34 55
3 34 37 55
3 33 55 52
3 35 36 56
3 38 35 56
3 36 41 57
3 56 36 57
3 37 38 58
3 38 56 58
3 37 58 55
3 39 40 59
3 42 39 59
3 40 53 60
3 59 40 60
3 41 42 61
3 57 41 61
3 42 59 62
3 61 42 62
3 43 63 54
3 46 44 64
3 64 44 51
3 48 45 65
3 65 45 46
3 65 46 66
3 66 46 64
3 49 47 67
3 67 47 48
3 67 48 68
3 68 48 65
3 69 49 70
3 70 49 67
3 52 55 72
3 64 51 73
3 51 50 73
3 50 52 73
3 73 52 74
3 74 52 72
3 53 54 75
3 60 53 75
3 54 63 76
3 54 76 77
3 75 54 77
3 55 58 78
3 72 55 78
3 72 78 79
3 56 57 80
3 57 61 80
3 56 80 58
3 58 80 81
3 78 58 81
3 59 60 82
3 62 59 82
3 60 75 83
3 82 60 83
3 61 62 84
3 62 82 84
3 61 84 80
3 63 85 76
3 66 64 86
3 64 73 86
3 68 65 87
3 87 65 66
3 87 66 86
3 70 67 88
3 88 67 68
3 88 68 89
3 89 68 87
3 71 69 90
3 90 69 70
3 90 70 91
3 91 70 88
3 92 71 93
3 93 71 90
3 74 72 94
3 94 72 79
3 86 73 95
3 95 73 74
3 95 74 96
3 96 74 94
3 97 86 95
3 76 85 99
3 75 77 100
3 83 75 100
3 76 99 101
3 77 76 101
3 77 101 102
3 100 77 102
3 94 79 103
3 78 81 104
3 79 78 104
3 79 104 103
3 80 84 105
3 81 80 105
3 81 105 106
3 104 81 106
3 82 83 107
3 83 100 107
3 82 107 84
3 84 107 108
3 105 84 108
3 85 109 99
3 89 87 110
3 87 86 110
3 110 86 97
3 91 88 111
3 111 88 89
3 111 89 110
3 93 90 112
3 112 90 91
3 112 91 113
3 113 91 111
3 98 92 114
3 114 92 93
3 114 93 115
3 115 93 112
3 116 98 114
3 117 103 118
3 96 94 119
3 94 103 119
3 119 103 117
3 97 95 120
3 120 95 96
3 120 96 119
3 121 110 97
3 121 97 122
3 122 97 120
3 123 119 117
3 124 98 116
3 99 109 125
3 99 125 126
3 101 99 126
3 100 102 127
3 100 127 107
3 101 126 128
3 102 101 128
3 102 128 127
3 104 106 129
3 104 129 103
3 103 129 118
3 105 108 130
3 106 105 130
3 106 130 129
3 107 127 131
3 108 107 131
3 108 131 132
3 108 132 130
3 109 134 125
3 125 134 133
3 113 111 135
3 111 110 135
3 135 110 121
3 115 112 136
3 136 112 113
3 136 113 135
3 116 114 137
3 137 114 115
3 137 115 138
3 138 115 136
3 139 124 116
3 139 116 140
3 140 116 137
3 141 135 121
3 118 129 142
3 118 142 143
3 117 118 143
3 123 117 143
3 122 120 144
3 120 119 144
3 144 119 123
3 141 121 145
3 145 121 122
3 145 122 144
3 146 141 145
3 147 144 123
3 147 123 148
3 143 148 123
3 150 124 139
3 149 150 139
3 131 127 151
3 125 133 152
3 126 125 152
3 126 152 153
3 128 126 153
3 128 153 154
3 128 154 127
3 127 154 151
3 152 133 155
3 130 132 156
3 130 156 129
3 129 156 142
3 131 151 157
3 132 131 157
3 132 157 156
3 156 158 142
3 157 151 159
3 133 160 155
3 134 161 133
3 133 161 160
3 138 136 162
3 136 135 162
3 162 135 141
3 140 137 163
3 163 137 138
3 163 138 162
3 149 139 164
3 164 139 140
3 164 140 165
3 165 140 163
3 166 149 164
3 167 162 141
3 167 141 146
3 142 158 168
3 143 142 168
3 143 168 148
3 146 145 169
3 145 144 169
3 169 144 147
3 170 167 146
3 170 146 169
3 171 169 147
3 171 147 148
3 171 148 172
3 168 172 148
3 173 149 166
3 174 150 149
3 173 174 149
3 154 175 151
3 151 175 159
3 152 155 176
3 153 152 176
3 153 176 177
3 153 177 154
3 154 177 175
3 155 160 178
3 155 178 179
3 176 155 179
3 156 157 180
3 156 180 158
3 157 159 181
3 157 181 180
3 158 180 182
3 158 182 168
3 159 175 183
3 159 183 181
3 175 184 183
3 160 186 178
3 178 186 185
3 161 187 160
3 160 187 186
3 165 163 188
3 163 162 188
3 188 162 167
3 166 164 189
3 189 164 165
3 189 165 188
3 190 173 166
3 190 166 191
3 191 166 189
3 192 188 167
3 192 167 170
3 193 192 170
3 182 194 168
3 194 172 168
3 193 170 195
3 170 169 195
3 195 169 171
3 196 195 171
3 196 171 172
3 194 197 172
3 197 198 172
3 198 196 172
3 200 173 190
3 199 200 190
3 201 174 173
3 200 201 173
3 176 179 202
3 177 176 202
3 177 202 175
3 175 202 184
3 178 185 203
3 178 203 179
3 179 203 202
3 203 185 204
3 202 205 184
3 183 206 181
3 180 181 206
3 180 206 182
3 182 206 194
3 183 184 207
3 205 207 184
3 183 207 206
3 185 208 204
3 186 209 185
3 185 209 208
3 187 210 186
3 186 210 209
3 191 189 211
3 189 188 211
3 211 188 192
3 199 190 212
3 212 190 191
3 212 191 211
3 213 199 212
3 214 211 192
3 214 192 193
3 215 214 193
3 215 193 195
3 206 216 194
3 216 197 194
3 216 217 197
3 215 195 218
3 218 195 196
3 198 218 196
3 217 219 197
3 219 218 198
3 197 219 198
3 220 199 213
3 221 200 199
3 220 221 199
3 222 201 200
3 221 222 200
3 203 204 223
3 203 223 202
3 202 223 205
3 204 208 224
3 204 224 223
3 205 223 225
3 205 225 207
3 207 225 226
3 207 226 206
3 226 216 206
3 208 228 224
3 224 228 227
3 209 229 208
3 229 228 208
3 210 230 209
3 209 230 229
3 213 212 231
3 212 211 231
3 231 211 214
3 232 220 213
3 232 213 231
3 233 231 214
3 233 214 215
3 234 233 215
3 234 215 218
3 226 235 216
3 235 217 216
3 235 236 217
3 217 236 219
3 237 234 218
3 237 218 219
3 236 238 219
3 238 237 219
3 240 220 232
3 239 240 232
3 241 221 220
3 240 241 220
3 242 222 221
3 241 242 221
3 224 227 243
3 224 243 223
3 223 243 225
3 225 243 244
3 225 244 226
3 226 244 235
3 227 245 243
3 228 246 227
3 227 246 245
3 229 247 228
3 228 247 246
3 230 248 229
3 229 248 247
3 239 232 249
3 232 231 249
3 249 231 233
3 250 249 233
3 250 233 234
3 237 250 234
3 244 251 235
3 235 251 236
3 251 252 236
3 236 252 238
3 252 253 238
3 253 250 237
3 253 237 238
3 254 239 249
3 255 240 239
3 254 255 239
3 256 241 240
3 255 256 240
3 257 242 241
3 256 257 241
3 245 258 243
3 243 258 244
3 244 258 251
3 245 259 258
3 246 260 245
3 245 260 259
3 247 261 246
3 246 261 260
3 248 262 247
3 247 262 261
3 254 249 263
3 263 249 250
3 253 263 250
3 258 264 251
3 251 264 252
3 264 265 252
3 265 263 253
3 252 265 253
3 266 254 263
3 267 255 254
3 266 267 254
3 268 256 255
3 267 268 255
3 269 257 256
3 268 269 256
3 259 270 258
3 270 264 258
3 260 271 259
3 259 271 270
3 261 272 260
3 260 272 271
3 262 273 261
3 273 272 261
3 270 274 264
3 275 266 263
3 275 263 265
3 274 276 264
3 276 265 264
3 276 277 265
3 277 275 265
3 278 267 266
3 275 278 266
3 279 268 267
3 278 279 267
3 280 269 268
3 279 280 268
3 271 281 270
3 270 281 274
3 272 282 271
3 271 282 281
3 273 283 272
3 272 283 282
3 281 284 274
3 274 284 276
3 285 278 275
3 277 285 275
3 284 286 276
3 286 285 277
3 276 286 277
3 287 279 278
3 285 287 278
3 288 280 279
3 287 288 279
3 282 289 281
3 281 289 284
3 283 290 282
3 282 290 289
3 289 291 284
3 284 291 286
3 291 292 286
3 292 287 285
3 286 292 285
3 293 288 287
3 292 293 287
3 290 294 289
3 289 294 291
3 294 295 291
3 295 293 292
3 291 295 292
CELL_TYPES 542
5
5
5
5
5
5
5
5
5
5
5
5
5
5
5
5
5
5
5
5
5
5
5
5
5
5
5
5
5
5
5
5
5
5
5
5
5
5
5
5
5
5
5
5
5
5
5
5
5
5
5
5
5
5
5
5
5
5
5
5
5
5
5
5
5
5
5
5
5
5
5
5
5
5
5
5
5
5
5
5
5
5
5
5
5
5
5
5
5
5
5
5
5
5
5
5
5
5
5
5
5
5
5
5
5
5
5
5
5
5
5
5
5
5
5
5
5
5
5
5
5
5
5
5
5
5
5
5
5
5
5
5
5
5
5
5
5
5
5
5
5
5
5
5
5
5
5
5
5
5
5
5
5
5
5
5
5
5
5
5
5
5
5
5
5
5
5
5
5
5
5
5
5
5
5
5
5
5
5
5
5
5
5
5
5
5
5
5
5
5
5
5
5
5
5
5
5
5
5
5
5
5
5
5
5
5
5
5
5
5
5
5
5
5
5
5
5
5
5
5
5
5
5
5
5
5
5
5
5
5
5
5
5
5
5
5
5
5
5
5
5
5
5
5
5
5
5
5
5
5
5
5
5
5
5
5
5
5
5
5
5
5
5
5
5
5
5
5
5
5
5
5
5
5
5
5
5
5
5
5
5
5
5
5
5
5
5
5
5
5
5
5
5
5
5
5
5
5
5
5
5
5
5
5
5
5
5
5
5
5
5
5
5
5
5
5
5
5
5
5
5
5
5
5
5
5
5
5
5
5
5
5
5
5
5
5
5
5
5
5
5
5
5
5
5
5
5
5
5
5
5
5
5
5
5
5
5
5
5
5
5
5
5
5
5
5
5
5
5
5
5
5
5
5
5
5
5
5
5
5
5
5
5
5
5
5
5
5
5
5
5
5
5
5
5
5
5
5
5
5
5
5
5
5
5
5
5
5
5
5
5
5
5
5
5
5
5
5
5
5
5
5
5
5
5
5
5
5
5
5
5
5
5
5
5
5
5
5
5
5
5
5
5
5
5
5
5
5
5
5
5
5
5
5
5
5
5
5
5
5
5
5
5
5
5
5
5
5
5
5
5
5
5
5
5
5
5
5
5
5
5
5
5
5
5
5
5
5
5
5
5
5
5
5
5
5
5
5
5
5
5
5
5
5
5
5
5
5
5
5
5
5
5
5
5
5
5
5
5
5
5
5
5
5
5
5
5
5
5
5
5
5
5
5
5
5
5
5
5
5
5
5
POINT_DATA 296
SCALARS concentrations float 4
LOOKUP_TABLE default
0 0.979009 0.1798 12.4242
0 0.979051 0.179571 12.2424
0 0.978923 0.175253 12.4404
0 0.979108 0.178615 12.2863
0 0.979507 0.0942453 0.517785
0 0.979081 0.179071 12.1915
0 0.979114 0.178662 12.1746
0 0.979601 0.0940658 0.545887
0 0.979602 0.0940483 0.531606
0 0.979145 0.178606 12.1848
0 0.979179 0.178396 12.2274
0 0.979275 0.1772 11.9182
0 0.979443 0.170166 10.4046
0 0.979545 0.0942121 0.509944
0 0.979687 0.0939698 0.524107
0 0.980661 0.0941467 0.543964
0 0.980662 0.0941246 0.548511
0 0.979625 0.093992 0.537056
0 0.979631 0.0939819 0.549062
0 0.98067 0.0940643 0.550848
0 0.980639 0.0940281 0.544939
0 0.979243 0.180039 12.1975
0 0.979374 0.172528 10.6313
0 0.979661 0.0939827 0.543167
0 0.97969 0.0939838 0.512857
0 0.979841 0.0938189 0.560245
0 0.979322 0.177678 11.8969
0 0.979838 0.0938542 0.573265
0 0.979239 0.176757 12.2053
0 0.980665 0.0941142 0.540291
0 0.980707 0.0938887 0.528671
0 0.981643 0.0937021 0.501982
0 0.979277 0.178691 12.036
0 0.981787 0.0935382 0.489148
0 0.981613 0.09374 0.521657
0 0.980639 0.0940101 0.543761
0 0.980637 0.0940051 0.539991
0 0.981732 0.0935407 0.478432
0 0.981546 0.0937413 0.499486
0 0.979806 0.0939419 0.561418
0 0.979796 0.0939483 0.582967
0 0.980658 0.0939817 0.521631
0 0.980662 0.0939253 0.515679
0 0.97922 0.177865 12.0909
0 0.980725 0.0939098 0.543738
0 0.979749 0.093986 0.524222
0 0.98071 0.0940083 0.549541
0 0.979213 0.17747 12.0422
0 0.979712 0.0939768 0.531486
0 0.979212 0.177179 12.0142
0 0.981749 0.0935015 0.448314
0 0.981571 0.0936058 0.45044
0 0.982441 0.0927092 0.330518
0 0.979726 0.0940305 0.532293
0 0.979669 0.0939898 0.543261
0 0.982424 0.0927399 0.347491
0 0.981729 0.0935715 0.459922
0 0.981574 0.0937087 0.471253
0 0.982408 0.0927806 0.333289
0 0.980721 0.0938812 0.516914
0 0.980706 0.0939098 0.518387
0 0.98173 0.0935615 0.420543
0 0.981551 0.093672 0.435081
0 0.979197 0.176883 11.959
0 0.981756 0.0934302 0.40886
0 0.980705 0.0940504 0.544361
0 0.981609 0.0936653 0.461147
0 0.979721 0.093909 0.524732
0 0.980734 0.0939982 0.535586
0 0.979206 0.176996 11.9676
0 0.979704 0.0938814 0.512711
0 0.979204 0.177025 11.9766
0 0.98296 0.0923813 0.262684
0 0.982444 0.0926892 0.285487
0 0.983002 0.09238 0.25482
0 0.980691 0.093992 0.530798
0 0.979704 0.0939219 0.527067
0 0.980682 0.0940117 0.544333
0 0.982962 0.0923951 0.264575
0 0.983445 0.0922407 0.231115
0 0.98244 0.0927895 0.314568
0 0.982981 0.0924378 0.266
0 0.981726 0.0934126 0.38065
0 0.981545 0.0935426 0.418348
0 0.982455 0.0927796 0.279563
0 0.979176 0.177424 12.0182
0 0.982464 0.092677 0.293003
0 0.981802 0.0935217 0.448013
0 0.980722 0.0940178 0.537633
0 0.981659 0.0937124 0.489046
0 0.979703 0.0938725 0.507333
0 0.980711 0.0940081 0.531862
0 0.979207 0.177045 11.9909
0 0.979697 0.0938666 0.514494
0 0.983541 0.0921451 0.216475
0 0.983012 0.0923939 0.25692
0 0.983502 0.0922133 0.231082
0 0.983034 0.0923732 0.259112
0 0.979199 0.177501 12.0307
0 0.979697 0.0938989 0.522714
0 0.981715 0.0935415 0.441478
0 0.980716 0.0938968 0.530333
0 0.981584 0.0937115 0.499829
0 0.983855 0.0918593 0.165928
0 0.983528 0.0921784 0.221245
0 0.98303 0.0924511 0.261304
0 0.98349 0.0922867 0.241788
0 0.982458 0.0927972 0.287326
0 0.98305 0.0924223 0.249828
0 0.979117 0.176973 12.1173
0 0.982495 0.0927041 0.320474
0 0.98181 0.0935678 0.465766
0 0.98069 0.0939999 0.533044
0 0.981621 0.0937715 0.497048
0 0.979709 0.0938977 0.524351
0 0.980707 0.0939934 0.539679
0 0.979709 0.0939385 0.523436
0 0.984125 0.0916752 0.13675
0 0.984132 0.0916716 0.135751
0 0.98388 0.0918108 0.161275
0 0.98358 0.0921444 0.220358
0 0.983014 0.0923593 0.257615
0 0.98351 0.0922328 0.234618
0 0.984187 0.0915445 0.114103
0 0.979203 0.175938 12.1122
0 0.979614 0.0940433 0.47675
0 0.980764 0.09387 0.513503
0 0.982453 0.0929523 0.358388
0 0.981744 0.093642 0.507132
0 0.983888 0.0918683 0.171087
0 0.983585 0.0921899 0.227115
0 0.983087 0.0924306 0.25641
0 0.983544 0.0921778 0.223204
0 0.979576 0.094075 0.473261
0 0.978985 0.173238 12.1532
0 0.982481 0.0927072 0.319547
0 0.981783 0.093582 0.470338
0 0.980713 0.0940049 0.546643
0 0.981626 0.0937263 0.500901
0 0.979725 0.0939406 0.522005
0 0.98073 0.0939897 0.546135
0 0.983018 0.0923549 0.257484
0 0.984204 0.0915647 0.118935
0 0.984317 0.0913288 0.0776199
0 0.98391 0.0917842 0.154103
0 0.983585 0.0921357 0.215101
0 0.983514 0.0922395 0.234427
0 0.984183 0.0914987 0.103792
0 0.984347 0.0911148 0.039977
0 0.97973 0.0938879 0.519987
0 0.979212 0.177794 12.0612
0 0.983043 0.0924647 0.276666
0 0.980729 0.0939161 0.509003
0 0.981691 0.0937526 0.532335
0 0.982521 0.0929857 0.393875
0 0.980686 0.0940399 0.533037
0 0.983925 0.0918546 0.170815
0 0.983628 0.0921414 0.216517
0 0.984214 0.0915806 0.122369
0 0.983425 0.0924363 0.26594
0 0.979654 0.0939082 0.516795
0 0.979087 0.17708 12.1232
0 0.982477 0.0926977 0.324788
0 0.981798 0.0935399 0.47538
0 0.980731 0.0939978 0.544277
0 0.981643 0.0937116 0.505018
0 0.980745 0.0940109 0.542353
0 0.983005 0.0923764 0.265048
0 0.984354 0.0911268 0.0437076
0 0.983925 0.0917604 0.147749
0 0.983587 0.0921802 0.225754
0 0.984214 0.0914301 0.0935011
0 0.984326 0.0911657 0.0498618
0 0.97976 0.0938449 0.51279
0 0.979244 0.176826 11.9698
0 0.982945 0.0925474 0.298761
0 0.981713 0.0936107 0.50736
0 0.982384 0.0931048 0.428555
0 0.980695 0.0940324 0.545161
0 0.981632 0.0936233 0.501756
0 0.984018 0.0917744 0.153707
0 0.983827 0.0920079 0.189316
0 0.984225 0.0915475 0.116504
0 0.983562 0.0922775 0.235605
0 0.983092 0.0926298 0.304151
0 0.980697 0.0939894 0.537199
0 0.979667 0.0938446 0.50118
0 0.979153 0.176124 11.8554
0 0.982477 0.0926983 0.330534
0 0.981824 0.0935093 0.467087
0 0.980748 0.0939771 0.53167
0 0.981696 0.0936775 0.486735
0 0.983027 0.0924138 0.272268
0 0.983529 0.0922864 0.246997
0 0.984248 0.0914332 0.0984252
0 0.983926 0.0917951 0.159265
0 0.984177 0.0915454 0.116808
0 0.984181 0.091576 0.125086
0 0.984166 0.091603 0.12882
0 0.980757 0.0939663 0.525326
0 0.979774 0.0938215 0.510983
0 0.979271 0.177099 11.9926
0 0.982427 0.0928566 0.363294
0 0.981756 0.0935141 0.469404
0 0.981605 0.0937469 0.496494
0 0.982925 0.0926284 0.303031
0 0.983945 0.0917871 0.15662
0 0.98352 0.0922733 0.236746
0 0.98073 0.0939502 0.529726
0 0.979727 0.0938539 0.51192
0 0.9792 0.176109 11.8673
0 0.982496 0.0926729 0.317318
0 0.98185 0.0934923 0.444429
0 0.981678 0.093774 0.476
0 0.983037 0.0924044 0.263126
0 0.983594 0.0922115 0.233392
0 0.984 0.0918436 0.172487
0 0.983931 0.0920258 0.207271
0 0.983904 0.0918792 0.17859
0 0.98391 0.0919611 0.195924
0 0.980716 0.0939681 0.515647
0 0.979787 0.0937457 0.500449
0 0.979309 0.176023 11.8688
0 0.982437 0.0928511 0.33991
0 0.981843 0.0934669 0.435709
0 0.983083 0.0924633 0.268467
0 0.983646 0.0921185 0.215807
0 0.981752 0.0935921 0.441818
0 0.980784 0.0939922 0.532588
0 0.979771 0.0938752 0.526959
0 0.979249 0.177429 12.0608
0 0.982523 0.0926629 0.287864
0 0.981821 0.0935168 0.409131
0 0.983052 0.0923778 0.247262
0 0.983525 0.0923097 0.249919
0 0.983615 0.0922075 0.23268
0 0.983591 0.0922766 0.245835
0 0.98359 0.0922618 0.246354
0 0.983529 0.0923509 0.260102
0 0.981658 0.0936166 0.4207
0 0.980753 0.0938927 0.51159
0 0.979832 0.0937226 0.482906
0 0.979364 0.175242 11.7614
0 0.982548 0.0926973 0.28899
0 0.983159 0.0923388 0.237894
0 0.981869 0.0934185 0.371623
0 0.980804 0.0939759 0.514809
0 0.979825 0.0938649 0.528102
0 0.97931 0.177582 12.0986
0 0.982511 0.0926496 0.256206
0 0.98306 0.0924023 0.253994
0 0.983159 0.0923035 0.221579
0 0.98311 0.0923556 0.238905
0 0.98309 0.0923852 0.256734
0 0.981823 0.0934267 0.385461
0 0.980782 0.0938196 0.505965
0 0.979954 0.0936824 0.54128
0 0.979457 0.176461 11.7501
0 0.982585 0.0926847 0.231191
0 0.981657 0.0935209 0.366839
0 0.980806 0.0938115 0.483887
0 0.979882 0.0938221 0.500706
0 0.979399 0.176846 11.9606
0 0.982552 0.0926899 0.281689
0 0.982575 0.0926435 0.221012
0 0.982597 0.0926753 0.281552
0 0.981701 0.0936236 0.432176
0 0.980803 0.0938237 0.495877
0 0.979966 0.093697 0.534816
0 0.979594 0.169174 10.3001
0 0.981823 0.0933478 0.315696
0 0.98084 0.0936659 0.474455
0 0.980055 0.0937412 0.525245
0 0.979553 0.176426 11.7356
0 0.981668 0.0935431 0.369905
0 0.981913 0.0934948 0.417643
0 0.981883 0.0934552 0.379339
0 0.981771 0.0936723 0.448534
0 0.980818 0.0939383 0.509126
0 0.979885 0.0937532 0.482781
0 0.97948 0.176542 11.7626
0 0.980824 0.0937004 0.484119
0 0.980168 0.0935478 0.575837
0 0.979802 0.169166 10.1324
0 0.980814 0.0938404 0.490797
0 0.980846 0.093943 0.515777
0 0.980811 0.0939195 0.506096
0 0.979848 0.0937492 0.50449
0 0.979419 0.174433 11.6949
0 0.980066 0.0937146 0.536105
0 0.97981 0.169157 10.1317
0 0.979918 0.0937668 0.497734
0 0.979879 0.0937642 0.517145
0 0.979411 0.175381 11.829
0 0.979579 0.176999 11.8034
0 0.979456 0.176068 11.8935
VECTORS fa_u float
0.0114765 0.00475946 0
0.0106026 0.00612054 0
0.0120243 0.0031906 0
0.012182 0.00159763 0
0.000457357 0.000242748 0
0.00968919 0.0073995 0
0.0086228 0.00859472 0
0.000491545 0.000237437 0
0.000452749 0.000278611 0
0.00741926 0.00966559 0
0.00608944 0.0106032 0
0.0119181 -4.85226e-05 0
0.0103093 -0.00140556 0
0.000505844 6.45328e-05 0
0.000522448 4.1662e-05 0
0.000515209 0.000174519 0
0.000506597 0.000210297 0
0.000414819 0.000341108 0
0.000379555 0.000396746 0
0.000487233 0.000256979 0
0.000444363 0.000315437 0
0.00467072 0.0112678 0
0.00275762 0.0102674 0
0.000331261 0.000430461 0
0.000241435 0.000452473 0
0.00055356 -8.62952e-05 0
0.011504 -0.0030321 0
0.000571188 -4.87495e-05 0
0.0112904 -0.00463658 0
0.000531117 9.91444e-05 0
0.000527643 3.29516e-05 0
0.000483977 0.000133237 0
0.00158557 0.0119311 0
0.000460885 0.000163862 0
0.000479759 0.000204835 0
0.000394465 0.000374264 0
0.00035553 0.000406434 0
0.000407859 0.000250097 0
0.000382872 0.000320773 0
0.000136272 0.000544629 0
0.000175826 0.00055582 0
0.000293693 0.000431095 0
0.000227491 0.000462788 0
2.3298e-05 0.0120909 0
0.000540175 -6.21433e-05 0
0.000493919 -0.000175648 0
0.000529344 -0.000147612 0
0.0104234 -0.00603056 0
0.000466113 -0.000255374 0
0.00952575 -0.00732134 0
0.000442119 7.42669e-05 0
0.000450439 7.58877e-07 0
0.000322438 7.26374e-05 0
3.80541e-05 0.000530931 0
-6.61037e-05 0.000539224 0
0.000318944 0.00013793 0
0.000312492 0.000337456 0
0.00028965 0.000371729 0
0.000255252 0.000214307 0
0.000151194 0.000494308 0
7.22872e-05 0.000513322 0
0.000226967 0.000354037 0
0.000174303 0.00039864 0
-0.00156528 0.0118561 0
0.000399611 -8.64725e-05 0
0.000484732 -0.000247716 0
0.000419824 -0.000190799 0
0.000425934 -0.000306469 0
0.000451364 -0.00028831 0
0.00846715 -0.00845759 0
0.000385307 -0.000338248 0
0.00729988 -0.00949478 0
0.000252734 7.16136e-05 0
0.000284909 -1.81488e-05 0
0.00025459 1.08163e-05 0
-5.09679e-05 0.000528345 0
-0.000126479 0.000511666 0
-0.000121578 0.000530582 0
0.000224702 0.000139674 0
0.000211914 9.22311e-05 0
0.000195456 0.000246475 0
0.0001824 0.000193614 0
8.08569e-05 0.000371963 0
-7.41466e-06 0.000418282 0
0.000116095 0.000254318 0
-0.00309622 0.0116126 0
0.000269555 -0.000114851 0
0.000383362 -0.000231839 0
0.000422271 -0.000332771 0
0.000402195 -0.000278217 0
0.00033159 -0.000383973 0
0.000378449 -0.000373702 0
0.00600943 -0.0103764 0
0.000278665 -0.000432492 0
0.00021357 3.53453e-05 0
0.000249233 -6.23746e-05 0
0.000230054 -2.17655e-05 0
0.00023034 -0.000118669 0
0.00461902 -0.0111086 0
-0.000168509 0.000494807 0
-7.36228e-05 0.000435296 0
-0.000176415 0.00050013 0
-0.000146984 0.000477729 0
0.000152579 6.52054e-05 0
0.000168973 0.000142821 0
0.000134612 0.000223962 0
0.000143212 0.000194813 0
2.14382e-05 0.000286525 0
7.47793e-05 0.000238374 0
-0.00461467 0.0112041 0
0.000265401 -0.000179628 0
0.000355113 -0.000301386 0
0.000318627 -0.000427332 0
0.000327184 -0.000374175 0
0.000227171 -0.000472586 0
0.000263649 -0.000470896 0
0.000161861 -0.000497781 0
0.000134229 2.61382e-05 0
0.000110814 7.84139e-05 0
0.000160979 -9.77052e-06 0
0.00020904 -6.97124e-05 0
0.000192771 -0.000170894 0
0.00019633 -0.000128452 0
0.000111103 -2.59915e-05 0
0.00314243 -0.0116975 0
-0.000147321 0.000453417 0
-0.000197999 0.000473795 0
-6.81406e-05 0.000351851 0
-0.000187158 0.000471332 0
0.000105108 0.000134993 0
8.77931e-05 0.00020946 0
4.79745e-06 0.000256366 0
3.88434e-05 0.000219798 0
-0.000309154 0.000358329 0
-0.00608845 0.0105181 0
0.00020821 -0.000242402 0
0.000254655 -0.000395435 0
0.000197719 -0.000509633 0
0.000210218 -0.000454653 0
0.000101905 -0.000511962 0
0.000138486 -0.000528285 0
0.000133454 -0.000220201 0
5.49233e-05 0.000105494 0
6.96749e-05 3.42092e-05 0
0.000131674 -8.00599e-05 0
0.000142289 -0.000161314 0
9.06732e-05 -0.000216181 0
7.08624e-05 -7.58367e-05 0
2.95392e-05 -2.69368e-05 0
3.31505e-05 -0.000518929 0
0.00157374 -0.0119581 0
-6.20216e-05 0.000269624 0
-0.000243889 0.000446769 0
-0.000224918 0.000482486 0
-0.00013709 0.000369247 0
-0.000311069 0.000432857 0
3.48586e-05 0.000167221 0
-1.74364e-05 0.000215814 0
2.01341e-07 0.000122369 0
-8.65754e-05 0.000251453 0
-0.000342242 0.000387231 0
-0.00741566 0.00959059 0
0.000126575 -0.000299109 0
0.000142029 -0.000453668 0
6.88686e-05 -0.000539902 0
9.53047e-05 -0.000495944 0
1.08266e-05 -0.000542245 0
6.49226e-05 -0.000256973 0
-9.4733e-06 4.26687e-05 0
5.95623e-05 -0.000135212 0
3.18541e-05 -0.000223496 0
9.51475e-06 -9.30157e-05 0
-4.09804e-05 -2.84043e-05 0
-2.18208e-05 -0.000512326 0
-3.16733e-06 -0.0119698 0
-0.000145575 0.000260895 0
-0.000260462 0.0004354 0
-0.000216897 0.000369614 0
-0.000376539 0.000394231 0
-0.000307674 0.000396354 0
-3.52185e-05 0.000149617 0
-7.5098e-05 0.000173784 0
-6.33826e-05 9.77537e-05 0
-0.000139514 0.000189857 0
-0.000201246 0.000228053 0
-0.000405178 0.000352723 0
-0.000363646 0.000344881 0
-0.00836623 0.00839975 0
5.20063e-05 -0.000326417 0
3.76215e-05 -0.000465569 0
-5.09127e-05 -0.000529226 0
-2.09093e-05 -0.000486286 0
3.00503e-06 -0.000272251 0
-3.25172e-05 -0.000244848 0
-8.87126e-05 4.26333e-05 0
-2.26321e-05 -0.000157649 0
-4.88751e-05 -0.000106091 0
-0.000123909 -1.71214e-05 0
-0.000101927 -7.8774e-05 0
-9.97087e-05 -0.000515776 0
-7.53303e-05 -0.0005054 0
-0.00155176 -0.0118918 0
-0.000235966 0.000276229 0
-0.000339595 0.00032406 0
-0.000397528 0.000297452 0
-0.000236287 0.000189726 0
-0.000121037 9.93976e-05 0
-0.000193977 0.000135726 0
-0.000442236 0.000291611 0
-0.000410017 0.00030651 0
-0.00940665 0.00723511 0
-2.1084e-05 -0.000316616 0
-6.08892e-05 -0.000440238 0
-0.000114829 -0.000461942 0
-6.26963e-05 -0.000255548 0
-8.85289e-05 -0.00021595 0
-0.000165926 4.71177e-05 0
-0.000206676 -1.56867e-05 0
-0.000107888 -0.000142318 0
-0.000175599 -8.68991e-05 0
-0.000159765 -0.000490273 0
-0.000134963 -0.000481907 0
-0.00305706 -0.0114683 0
-0.000278805 0.000194439 0
-0.000376893 0.000218617 0
-0.00024278 0.000114598 0
-0.00020413 7.00254e-05 0
-0.000393653 0.000200602 0
-0.000464165 0.000261153 0
-0.000454836 0.0002661 0
-0.0104553 0.00601251 0
-7.86264e-05 -0.000276918 0
-0.000140838 -0.000384126 0
-0.000116943 -0.00021786 0
-0.000151102 -0.000199067 0
-0.000231842 1.97276e-05 0
-0.000241205 -4.74818e-05 0
-0.000194116 -0.000151688 0
-0.000237421 -0.000106228 0
-0.000232093 -0.000350887 0
-0.000234218 -0.000454826 0
-0.000204249 -0.000437585 0
-0.00453455 -0.0108521 0
-0.000263138 0.000119471 0
-0.000230549 5.866e-05 0
-0.000342001 0.000145394 0
-0.000471777 0.000206047 0
-0.000476793 0.000227068 0
-0.0111877 0.00460583 0
-0.000150826 -0.000207107 0
-0.000183845 -0.000175254 0
-0.000221255 -1.19753e-05 0
-0.000223623 -8.4073e-05 0
-0.000220018 -0.000132304 0
-0.00027798 -0.000267035 0
-0.000318616 -0.000393045 0
-0.000346984 -0.000415434 0
-0.00590891 -0.0101562 0
-0.000226178 4.7884e-05 0
-0.000356865 8.4956e-05 0
-0.00046535 0.00013265 0
-0.000477458 0.000150799 0
-0.0115679 0.00303935 0
-0.000230336 -0.000162156 0
-0.00021072 -6.66594e-05 0
-0.000243841 -0.000140758 0
-0.000355094 -0.000246342 0
-0.000367773 -0.000332621 0
-0.000315369 -0.000431938 0
-0.00627197 -0.00817037 0
-0.000315255 -1.66753e-05 0
-0.000474026 2.01836e-05 0
-0.000525244 6.99155e-07 0
-0.0116412 0.00148551 0
-0.000348512 -0.000123971 0
-0.000356758 -0.00021714 0
-0.000322729 -0.00019936 0
-0.000377686 -0.000241942 0