# vtk DataFile Version 2.0
CellBP Time: 2.76
ASCII
DATASET UNSTRUCTURED_GRID
POINTS 296 double
-9.05686 -3.72247 0
-8.48587 -4.87851 0
-9.47051 -2.50136 0
-9.72165 -1.23574 0
-8.34565 -2.81444 0
-7.77062 -5.95136 0
-6.92031 -6.92055 0
-7.90593 -3.86909 0
-7.3322 -4.8608 0
-5.95063 -7.77044 0
-4.87853 -8.48664 0
-9.8197 0.0499304 0
-9.72207 1.33568 0
-8.6455 -1.6812 0
-8.77534 -0.528018 0
-7.57775 -2.00057 0
-7.21426 -2.90167 0
-6.62832 -5.77077 0
-5.81424 -6.58768 0
-6.77955 -3.88252 0
-6.2108 -4.66831 0
-3.72206 -9.05665 0
-2.50125 -9.47131 0
-4.89951 -7.29864 0
-3.90729 -7.87527 0
-8.78183 0.64172 0
-9.47133 2.6015 0
-8.61141 1.77138 0
-9.05864 3.8231 0
-7.73237 -0.927418 0
-7.7829 0.0802876 0
-6.94212 -1.31379 0
-1.23667 -9.72301 0
-6.43194 -2.14968 0
-6.30952 -3.05127 0
-5.52787 -5.46578 0
-4.78832 -6.10573 0
-5.65052 -3.75114 0
-5.26104 -4.55419 0
-2.86185 -8.35211 0
-1.77573 -8.62773 0
-3.92194 -6.71286 0
-3.0515 -7.14133 0
0.0499358 -9.81045 0
-7.6937 1.14165 0
-8.32708 2.91139 0
-7.53987 2.10867 0
-8.48766 4.97927 0
-7.8693 3.97282 0
-7.77075 6.05122 0
-6.76871 -0.396365 0
-6.94595 0.551911 0
-5.76454 -1.00216 0
-0.5898 -8.79716 0
0.565134 -8.75862 0
-5.29665 -2.47724 0
-4.48505 -5.08781 0
-3.89628 -5.76608 0
-4.4333 -3.79998 0
-2.05881 -7.55009 0
-1.13349 -7.77364 0
-2.98963 -6.09258 0
-2.30501 -6.60924 0
1.33663 -9.724 0
-6.67968 1.42014 0
-7.16087 3.11312 0
-6.64903 2.36929 0
-7.2849 4.98196 0
-6.70762 3.99698 0
-6.92092 7.02108 0
-6.56363 5.88636 0
-5.95144 7.87133 0
-4.44758 -1.17941 0
-5.80768 0.513149 0
-4.65041 -0.0101303 0
0.00843177 -7.83582 0
1.7366 -8.63205 0
0.947544 -7.75132 0
-4.03355 -2.4033 0
-3.48075 -1.38907 0
-3.29012 -4.79932 0
-3.26165 -3.26347 0
-1.37626 -6.66559 0
-0.507959 -7.01445 0
-1.97275 -5.53009 0
2.60129 -9.47197 0
-5.50087 2.03454 0
-6.08572 3.06755 0
-6.09553 4.86218 0
-5.75273 3.98547 0
-5.75365 6.7084 0
-5.44356 5.6109 0
-4.88031 8.58966 0
-4.83208 7.395 0
-3.49672 -0.4234 0
-4.44367 1.24769 0
-3.70637 0.591642 0
-4.05712 2.31714 0
-3.7233 9.15988 0
2.8591 -8.32176 0
0.419166 -6.78521 0
2.01907 -7.51467 0
1.30398 -6.89501 0
-2.44118 -0.872324 0
-2.83447 -2.128 0
-2.29131 -4.09215 0
-2.32231 -2.96933 0
-0.441441 -5.85383 0
-1.22096 -4.49346 0
3.82268 -9.0587 0
-4.78413 3.38786 0
-5.08026 4.58747 0
-4.63994 6.27201 0
-4.53168 5.35152 0
-3.83868 7.98307 0
-3.82076 6.83559 0
-2.77963 8.412 0
-1.64598 -0.137317 0
-1.4477 -0.888845 0
-2.48552 0.507028 0
-3.24905 1.44253 0
-3.23491 3.31271 0
-2.90672 2.36877 0
-1.35256 0.626459 0
-2.50133 9.57231 0
3.92784 -7.87662 0
2.96055 -7.1474 0
0.953077 -5.81428 0
2.07113 -6.40571 0
-1.68054 -1.98911 0
-1.43243 -3.27316 0
0.0904147 -4.74111 0
-0.565319 -3.68954 0
4.92602 -7.30912 0
4.97854 -8.48727 0
-3.77253 4.54643 0
-3.72915 5.74381 0
-2.88358 7.27905 0
-3.00505 6.34428 0
-1.66044 8.72245 0
-1.93715 7.60814 0
-2.33544 4.04693 0
-0.72942 -1.32491 0
-0.835263 -0.25688 0
-1.93325 1.67886 0
-2.12262 2.87216 0
-1.30444 3.53991 0
-0.867792 1.34903 0
-0.281631 0.455388 0
-0.532863 8.86034 0
-1.23661 9.82401 0
1.11148 -4.56879 0
3.90491 -6.70752 0
2.98369 -6.08508 0
2.11539 -5.41754 0
4.77789 -6.19601 0
-0.558035 -2.47315 0
0.494698 -3.45906 0
0.0536445 -1.60779 0
1.48 -3.6766 0
5.86015 -6.60602 0
6.05056 -7.77055 0
-2.47293 5.34243 0
-2.1274 6.52521 0
-0.902733 7.79177 0
-1.27041 6.92182 0
0.0861694 7.86866 0
-1.14292 4.48929 0
0.150193 -0.616731 0
-0.795974 2.4854 0
-0.330753 3.59583 0
0.0634221 1.51058 0
0.740599 0.472737 0
0.645973 8.86314 0
0.0500438 9.90897 0
2.37804 -4.27985 0
3.85413 -5.63197 0
2.99739 -5.20576 0
5.56609 -5.48385 0
4.68489 -5.27555 0
0.628969 -2.29005 0
1.25454 -2.94733 0
0.756186 -1.38932 0
2.16139 -3.13156 0
2.98966 -3.47165 0
6.14702 -4.78486 0
6.64904 -5.76203 0
7.02114 -6.92031 0
-1.01854 5.81383 0
-0.371963 6.87399 0
1.12095 7.7582 0
0.557207 7.06955 0
-0.000575199 4.71946 0
0.606472 3.82253 0
1.33707 -0.641007 0
0.538766 2.64756 0
0.965114 1.57256 0
1.90763 0.213431 0
1.61266 1.06326 0
2.1263 7.57264 0
1.79703 8.70184 0
1.3368 9.82365 0
3.81822 -4.34627 0
5.10979 -4.44284 0
5.83776 -3.9293 0
3.77921 -3.19697 0
1.80977 -1.88043 0
3.01516 -2.57082 0
6.77452 -3.94261 0
7.37382 -4.89178 0
7.88008 -5.95793 0
0.4828 5.87511 0
1.4263 6.73264 0
2.3708 6.65915 0
1.20866 4.55074 0
1.48643 3.39299 0
2.43242 -0.691038 0
2.82387 0.142211 0
1.78674 2.15979 0
2.60837 1.14827 0
3.06761 7.15974 0
2.90078 8.3672 0
2.60207 9.57378 0
4.90574 -3.32391 0
6.11289 -3.10456 0
4.16789 -2.27277 0
3.24028 -1.50139 0
6.72246 -2.31003 0
7.22228 -3.03834 0
7.95608 -3.90803 0
8.59108 -4.88166 0
2.02151 5.59388 0
3.08243 6.14503 0
2.36141 4.12216 0
2.41707 3.05662 0
3.52095 -0.4605 0
3.6108 0.61228 0
2.958 2.28487 0
3.54081 1.52305 0
4.00672 5.89002 0
3.9794 6.78371 0
3.96912 7.93001 0
3.82339 9.16001 0
5.56311 -1.91407 0
4.50433 -1.12852 0
6.70536 -1.33464 0
7.58231 -2.03402 0
8.38797 -2.85854 0
9.16273 -3.72488 0
3.41565 4.87211 0
3.33537 3.38153 0
4.68643 0.129769 0
4.51438 1.30837 0
4.06098 2.44102 0
4.56487 5.14611 0
4.8375 6.18281 0
4.97526 7.37261 0
4.97906 8.58777 0
5.87755 -0.434415 0
7.00185 -0.487701 0
7.74976 -1.08401 0
8.67563 -1.74411 0
9.57108 -2.50138 0
4.54803 3.82387 0
5.81219 1.09752 0
5.36618 2.5325 0
5.37349 4.61492 0
5.6055 5.5168 0
5.8913 6.66519 0
6.05117 7.87104 0
6.83795 0.463023 0
7.84396 -0.0257502 0
8.85152 -0.58365 0
9.82535 -1.23674 0
6.95204 1.34783 0
5.71449 3.77405 0
6.53395 2.19492 0
6.37266 3.08424 0
6.28502 4.68144 0
6.68666 5.83242 0
7.02098 7.02089 0
7.77514 0.966502 0
8.85082 0.572241 0
9.90869 0.0499769 0
7.60743 2.0019 0
6.82148 3.89963 0
7.26123 2.94344 0
7.37165 4.88116 0
7.87477 6.05421 0
8.71465 1.72553 0
9.82339 1.33679 0
8.41328 2.83539 0
7.97458 3.91266 0
8.58811 4.97912 0
9.57326 2.60237 0
9.16495 3.82556 0
CELLS 542 2168
3 2 0 4
3 0 1 7
3 4 0 7
3 1 5 8
3 7 1 8
3 3 2 13
3 13 2 4
3 11 3 14
3 14 3 13
3 13 4 15
3 4 7 16
3 15 4 16
3 5 6 17
3 8 5 17
3 6 9 18
3 17 6 18
3 7 8 19
3 16 7 19
3 8 17 20
3 19 8 20
3 9 10 23
3 18 9 23
3 10 21 24
3 23 10 24
3 12 11 25
3 25 11 14
3 26 12 27
3 27 12 25
3 14 13 29
3 29 13 15
3 25 14 30
3 30 14 29
3 29 15 31
3 15 16 33
3 31 15 33
3 16 19 34
3 33 16 34
3 17 18 35
3 20 17 35
3 18 23 36
3 35 18 36
3 19 20 37
3 34 19 37
3 20 35 38
3 37 20 38
3 21 22 39
3 24 21 39
3 22 32 40
3 39 22 40
3 23 24 41
3 36 23 41
3 24 39 42
3 41 24 42
3 27 25 44
3 44 25 30
3 28 26 45
3 45 26 27
3 45 27 46
3 46 27 44
3 47 28 48
3 48 28 45
3 30 29 50
3 50 29 31
3 44 30 51
3 51 30 50
3 50 31 52
3 31 33 52
3 32 43 53
3 40 32 53
3 53 43 54
3 33 34 55
3 34 37 55
3 33 55 52
3 35 36 56
3 38 35 56
3 36 41 57
3 56 36 57
3 37 38 58
3 38 56 58
3 37 58 55
3 39 40 59
3 42 39 59
3 40 53 60
3 59 40 60
3 41 42 61
3 57 41 61
3 42 59 62
3 61 42 62
3 43 63 54
3 46 44 64
3 64 44 51
3 48 45 65
3 65 45 46
3 65 46 66
3 66 46 64
3 49 47 67
3 67 47 48
3 67 48 68
3 68 48 65
3 69 49 70
3 70 49 67
3 52 55 72
3 64 51 73
3 51 50 73
3 50 52 73
3 73 52 74
3 74 52 72
3 53 54 75
3 60 53 75
3 54 63 76
3 54 76 77
3 75 54 77
3 55 58 78
3 72 55 78
3 72 78 79
3 56 57 80
3 57 61 80
3 56 80 58
3 58 80 81
3 78 58 81
3 59 60 82
3 62 59 82
3 60 75 83
3 82 60 83
3 61 62 84
3 62 82 84
3 61 84 80
3 63 85 76
3 66 64 86
3 64 73 86
3 68 65 87
3 87 65 66
3 87 66 86
3 70 67 88
3 88 67 68
3 88 68 89
3 89 68 87
3 71 69 90
3 90 69 70
3 90 70 91
3 91 70 88
3 92 71 93
3 93 71 90
3 74 72 94
3 94 72 79
3 86 73 95
3 95 73 74
3 95 74 96
3 96 74 94
3 97 86 95
3 76 85 99
3 75 77 100
3 83 75 100
3 76 99 101
3 77 76 101
3 77 101 102
3 100 77 102
3 94 79 103
3 78 81 104
3 79 78 104
3 79 104 103
3 80 84 105
3 81 80 105
3 81 105 106
3 104 81 106
3 82 83 107
3 83 100 107
3 82 107 84
3 84 107 108
3 105 84 108
3 85 109 99
3 89 87 110
3 87 86 110
3 110 86 97
3 91 88 111
3 111 88 89
3 111 89 110
3 93 90 112
3 112 90 91
3 112 91 113
3 113 91 111
3 98 92 114
3 114 92 93
3 114 93 115
3 115 93 112
3 116 98 114
3 117 103 118
3 96 94 119
3 94 103 119
3 119 103 117
3 97 95 120
3 120 95 96
3 120 96 119
3 121 110 97
3 121 97 122
3 122 97 120
3 123 119 117
3 124 98 116
3 99 109 125
3 99 125 126
3 101 99 126
3 100 102 127
3 100 127 107
3 101 126 128
3 102 101 128
3 102 128 127
3 104 106 129
3 104 129 103
3 103 129 118
3 105 108 130
3 106 105 130
3 106 130 129
3 107 127 131
3 108 107 131
3 108 131 132
3 108 132 130
3 109 134 125
3 125 134 133
3 113 111 135
3 111 110 135
3 135 110 121
3 115 112 136
3 136 112 113
3 136 113 135
3 116 114 137
3 137 114 115
3 137 115 138
3 138 115 136
3 139 124 116
3 139 116 140
3 140 116 137
3 141 135 121
3 118 129 142
3 118 142 143
3 117 118 143
3 123 117 143
3 122 120 144
3 120 119 144
3 144 119 123
3 141 121 145
3 145 121 122
3 145 122 144
3 146 141 145
3 147 144 123
3 147 123 148
3 143 148 123
3 150 124 139
3 149 150 139
3 131 127 151
3 125 133 152
3 126 125 152
3 126 152 153
3 128 126 153
3 128 153 154
3 128 154 127
3 127 154 151
3 152 133 155
3 130 132 156
3 130 156 129
3 129 156 142
3 131 151 157
3 132 131 157
3 132 157 156
3 156 158 142
3 157 151 159
3 133 160 155
3 134 161 133
3 133 161 160
3 138 136 162
3 136 135 162
3 162 135 141
3 140 137 163
3 163 137 138
3 163 138 162
3 149 139 164
3 164 139 140
3 164 140 165
3 165 140 163
3 166 149 164
3 167 162 141
3 167 141 146
3 142 158 168
3 143 142 168
3 143 168 148
3 146 145 169
3 145 144 169
3 169 144 147
3 170 167 146
3 170 146 169
3 171 169 147
3 171 147 148
3 171 148 172
3 168 172 148
3 173 149 166
3 174 150 149
3 173 174 149
3 154 175 151
3 151 175 159
3 152 155 176
3 153 152 176
3 153 176 177
3 153 177 154
3 154 177 175
3 155 160 178
3 155 178 179
3 176 155 179
3 156 157 180
3 156 180 158
3 157 159 181
3 157 181 180
3 158 180 182
3 158 182 168
3 159 175 183
3 159 183 181
3 175 184 183
3 160 186 178
3 178 186 185
3 161 187 160
3 160 187 186
3 165 163 188
3 163 162 188
3 188 162 167
3 166 164 189
3 189 164 165
3 189 165 188
3 190 173 166
3 190 166 191
3 191 166 189
3 192 188 167
3 192 167 170
3 193 192 170
3 182 194 168
3 194 172 168
3 193 170 195
3 170 169 195
3 195 169 171
3 196 195 171
3 196 171 172
3 194 197 172
3 197 198 172
3 198 196 172
3 200 173 190
3 199 200 190
3 201 174 173
3 200 201 173
3 176 179 202
3 177 176 202
3 177 202 175
3 175 202 184
3 178 185 203
3 178 203 179
3 179 203 202
3 203 185 204
3 202 205 184
3 183 206 181
3 180 181 206
3 180 206 182
3 182 206 194
3 183 184 207
3 205 207 184
3 183 207 206
3 185 208 204
3 186 209 185
3 185 209 208
3 187 210 186
3 186 210 209
3 191 189 211
3 189 188 211
3 211 188 192
3 199 190 212
3 212 190 191
3 212 191 211
3 213 199 212
3 214 211 192
3 214 192 193
3 215 214 193
3 215 193 195
3 206 216 194
3 216 197 194
3 216 217 197
3 215 195 218
3 218 195 196
3 198 218 196
3 217 219 197
3 219 218 198
3 197 219 198
3 220 199 213
3 221 200 199
3 220 221 199
3 222 201 200
3 221 222 200
3 203 204 223
3 203 223 202
3 202 223 205
3 204 208 224
3 204 224 223
3 205 223 225
3 205 225 207
3 207 225 226
3 207 226 206
3 226 216 206
3 208 228 224
3 224 228 227
3 209 229 208
3 229 228 208
3 210 230 209
3 209 230 229
3 213 212 231
3 212 211 231
3 231 211 214
3 232 220 213
3 232 213 231
3 233 231 214
3 233 214 215
3 234 233 215
3 234 215 218
3 226 235 216
3 235 217 216
3 235 236 217
3 217 236 219
3 237 234 218
3 237 218 219
3 236 238 219
3 238 237 219
3 240 220 232
3 239 240 232
3 241 221 220
3 240 241 220
3 242 222 221
3 241 242 221
3 224 227 243
3 224 243 223
3 223 243 225
3 225 243 244
3 225 244 226
3 226 244 235
3 227 245 243
3 228 246 227
3 227 246 245
3 229 247 228
3 228 247 246
3 230 248 229
3 229 248 247
3 239 232 249
3 232 231 249
3 249 231 233
3 250 249 233
3 250 233 234
3 237 250 234
3 244 251 235
3 235 251 236
3 251 252 236
3 236 252 238
3 252 253 238
3 253 250 237
3 253 237 238
3 254 239 249
3 255 240 239
3 254 255 239
3 256 241 240
3 255 256 240
3 257 242 241
3 256 257 241
3 245 258 243
3 243 258 244
3 244 258 251
3 245 259 258
3 246 260 245
3 245 260 259
3 247 261 246
3 246 261 260
3 248 262 247
3 247 262 261
3 254 249 263
3 263 249 250
3 253 263 250
3 258 264 251
3 251 264 252
3 264 265 252
3 265 263 253
3 252 265 253
3 266 254 263
3 267 255 254
3 266 267 254
3 268 256 255
3 267 268 255
3 269 257 256
3 268 269 256
3 259 270 258
3 270 264 258
3 260 271 259
3 259 271 270
3 261 272 260
3 260 272 271
3 262 273 261
3 273 272 261
3 270 274 264
3 275 266 263
3 275 263 265
3 274 276 264
3 276 265 264
3 276 277 265
3 277 275 265
3 278 267 266
3 275 278 266
3 279 268 267
3 278 279 267
3 280 269 268
3 279 280 268
3 271 281 270
3 270 281 274
3 272 282 271
3 271 282 281
3 273 283 272
3 272 283 282
3 281 284 274
3 274 284 276
3 285 278 275
3 277 285 275
3 284 286 276
3 286 285 277
3 276 286 277
3 287 279 278
3 285 287 278
3 288 280 279
3 287 288 279
3 282 289 281
3 281 289 284
3 283 290 282
3 282 290 289
3 289 291 284
3 284 291 286
3 291 292 286
3 292 287 285
3 286 292 285
3 293 288 287
3 292 293 287
3 290 294 289
3 289 294 291
3 294 295 291
3 295 293 292
3 291 295 292
CELL_TYPES 542
5
5
5
5
5
5
5
5
5
5
5
5
5
5
5
5
5
5
5
5
5
5
5
5
5
5
5
5
5
5
5
5
5
5
5
5
5
5
5
5
5
5
5
5
5
5
5
5
5
5
5
5
5
5
5
5
5
5
5
5
5
5
5
5
5
5
5
5
5
5
5
5
5
5
5
5
5
5
5
5
5
5
5
5
5
5
5
5
5
5
5
5
5
5
5
5
5
5
5
5
5
5
5
5
5
5
5
5
5
5
5
5
5
5
5
5
5
5
5
5
5
5
5
5
5
5
5
5
5
5
5
5
5
5
5
5
5
5
5
5
5
5
5
5
5
5
5
5
5
5
5
5
5
5
5
5
5
5
5
5
5
5
5
5
5
5
5
5
5
5
5
5
5
5
5
5
5
5
5
5
5
5
5
5
5
5
5
5
5
5
5
5
5
5
5
5
5
5
5
5
5
5
5
5
5
5
5
5
5
5
5
5
5
5
5
5
5
5
5
5
5
5
5
5
5
5
5
5
5
5
5
5
5
5
5
5
5
5
5
5
5
5
5
5
5
5
5
5
5
5
5
5
5
5
5
5
5
5
5
5
5
5
5
5
5
5
5
5
5
5
5
5
5
5
5
5
5
5
5
5
5
5
5
5
5
5
5
5
5
5
5
5
5
5
5
5
5
5
5
5
5
5
5
5
5
5
5
5
5
5
5
5
5
5
5
5
5
5
5
5
5
5
5
5
5
5
5
5
5
5
5
5
5
5
5
5
5
5
5
5
5
5
5
5
5
5
5
5
5
5
5
5
5
5
5
5
5
5
5
5
5
5
5
5
5
5
5
5
5
5
5
5
5
5
5
5
5
5
5
5
5
5
5
5
5
5
5
5
5
5
5
5
5
5
5
5
5
5
5
5
5
5
5
5
5
5
5
5
5
5
5
5
5
5
5
5
5
5
5
5
5
5
5
5
5
5
5
5
5
5
5
5
5
5
5
5
5
5
5
5
5
5
5
5
5
5
5
5
5
5
5
5
5
5
5
5
5
5
5
5
5
5
5
5
5
5
5
5
5
5
5
5
5
5
5
5
5
5
5
5
5
5
5
5
5
5
5
5
5
5
5
5
5
5
5
5
5
5
5
5
5
5
5
5
5
5
5
5
5
5
5
5
5
5
5
5
5
5
5
5
5
5
5
5
5
5
5
5
5
5
5
5
5
5
5
5
5
5
5
5
5
5
POINT_DATA 296
SCALARS concentrations float 4
LOOKUP_TABLE default
0 0.969907 0.179165 11.1058
0 0.969905 0.178945 11.0849
0 0.96991 0.17855 11.0465
0 0.969918 0.177318 11.0173
0 0.970339 0.0936457 0.467672
0 0.969898 0.178421 11.0237
0 0.969883 0.177952 10.9781
0 0.970347 0.0936246 0.469514
0 0.970327 0.0936262 0.471395
0 0.969862 0.177739 10.9862
0 0.969822 0.178065 11.1213
0 0.969923 0.176632 10.8695
0 0.969925 0.17578 11.0269
0 0.970353 0.0936341 0.465633
0 0.970352 0.0935796 0.462823
0 0.971184 0.0935799 0.458188
0 0.971165 0.093549 0.45315
0 0.97033 0.0935806 0.457355
0 0.970321 0.0935812 0.454771
0 0.971165 0.0935445 0.45409
0 0.971141 0.0935266 0.452113
0 0.969742 0.173619 11.4175
0 0.969886 0.180125 11.3043
0 0.970316 0.0936039 0.476522
0 0.970238 0.0938147 0.455985
0 0.970365 0.0935965 0.46903
0 0.969934 0.176696 10.87
0 0.970354 0.0936126 0.467563
0 0.969962 0.177267 10.9325
0 0.971175 0.0935845 0.465376
0 0.97119 0.0935215 0.4623
0 0.971943 0.0932562 0.410789
0 0.970009 0.178062 10.8806
0 0.972056 0.093107 0.380964
0 0.971916 0.0932706 0.405829
0 0.971152 0.0935257 0.456457
0 0.971163 0.0935497 0.46779
0 0.972032 0.0931256 0.382186
0 0.971883 0.0933018 0.418325
0 0.97027 0.0938848 0.453441
0 0.970369 0.0937397 0.482895
0 0.971176 0.0936266 0.473196
0 0.97114 0.0936476 0.472405
0 0.970188 0.168506 9.08075
0 0.971189 0.0935785 0.473795
0 0.970381 0.0935679 0.454294
0 0.971201 0.0936145 0.470591
0 0.970006 0.17665 10.8774
0 0.970409 0.0935273 0.44367
0 0.970066 0.176427 10.8632
0 0.972058 0.0931456 0.398958
0 0.971937 0.0932906 0.4272
0 0.972615 0.0924443 0.2727
0 0.970521 0.0935466 0.47874
0 0.970533 0.0934473 0.480379
0 0.97261 0.0924589 0.267024
0 0.972043 0.0931784 0.41728
0 0.971955 0.0933462 0.460546
0 0.972593 0.0924958 0.278409
0 0.971195 0.0936443 0.467181
0 0.97124 0.0934923 0.459111
0 0.972098 0.0932633 0.453516
0 0.971959 0.0933994 0.463551
0 0.970119 0.176219 10.6847
0 0.972089 0.0931252 0.396252
0 0.971217 0.0935632 0.45217
0 0.971973 0.0932924 0.417039
0 0.970457 0.0934931 0.447116
0 0.971264 0.0934919 0.438391
0 0.970146 0.176355 10.8485
0 0.970489 0.0934672 0.455355
0 0.970278 0.176576 10.7318
0 0.973064 0.0921657 0.216544
0 0.972627 0.0924518 0.278397
0 0.973078 0.0921671 0.219054
0 0.971263 0.0933931 0.440976
0 0.970484 0.0934839 0.428784
0 0.971227 0.0934139 0.43121
0 0.973067 0.0921743 0.216564
0 0.973474 0.0920464 0.193422
0 0.972622 0.0925246 0.316219
0 0.973059 0.0922082 0.23019
0 0.972078 0.0931099 0.395389
0 0.97191 0.0931164 0.364687
0 0.972648 0.0925381 0.31877
0 0.970082 0.176533 10.8759
0 0.972652 0.092425 0.269898
0 0.97213 0.0931244 0.382765
0 0.971272 0.0934962 0.439834
0 0.97203 0.093261 0.396831
0 0.970565 0.093434 0.430084
0 0.971286 0.0934586 0.427191
0 0.970496 0.167915 8.93045
0 0.970719 0.0933688 0.442836
0 0.973538 0.0919659 0.179288
0 0.973078 0.0921782 0.221589
0 0.97349 0.092024 0.190305
0 0.97313 0.0921563 0.21832
0 0.970492 0.168379 8.96759
0 0.970474 0.0934729 0.448687
0 0.972022 0.0930751 0.333932
0 0.971231 0.0933762 0.414557
0 0.971904 0.093216 0.361366
0 0.973808 0.0917207 0.139139
0 0.973534 0.0919897 0.185129
0 0.973085 0.0922221 0.241206
0 0.973483 0.092079 0.203999
0 0.972638 0.0925105 0.255252
0 0.97311 0.0921964 0.227639
0 0.970066 0.176117 10.834
0 0.972721 0.0924239 0.255836
0 0.972172 0.0931199 0.352148
0 0.971305 0.0933578 0.404207
0 0.972004 0.0932303 0.347701
0 0.970834 0.0932583 0.478374
0 0.971369 0.0932213 0.396312
0 0.970723 0.0933898 0.440137
0 0.97403 0.0915661 0.11676
0 0.97404 0.0915616 0.117082
0 0.973818 0.0916814 0.132076
0 0.973563 0.0919661 0.183553
0 0.973174 0.0921428 0.205603
0 0.973537 0.0920435 0.201765
0 0.974076 0.0914557 0.100003
0 0.970279 0.176819 10.7587
0 0.970474 0.0934697 0.451078
0 0.97128 0.093325 0.413751
0 0.97265 0.0926218 0.252931
0 0.972056 0.0931815 0.367452
0 0.973832 0.0917267 0.142948
0 0.973561 0.0919978 0.190142
0 0.973172 0.0922017 0.211244
0 0.973539 0.0919876 0.186677
0 0.970436 0.0935038 0.449166
0 0.970035 0.176244 10.8365
0 0.972746 0.0923965 0.201067
0 0.97213 0.0930062 0.271269
0 0.97137 0.0932254 0.395755
0 0.971993 0.0930545 0.282855
0 0.970581 0.0934561 0.42882
0 0.97133 0.0933369 0.399685
0 0.973216 0.0921331 0.19111
0 0.974097 0.0914691 0.102842
0 0.974187 0.0912688 0.0697029
0 0.973853 0.0916618 0.138054
0 0.973631 0.0919623 0.191282
0 0.97359 0.0920496 0.20474
0 0.974072 0.0914168 0.0970932
0 0.974207 0.0910867 0.037702
0 0.970514 0.0934705 0.454298
0 0.970158 0.177177 10.9317
0 0.973178 0.092237 0.219832
0 0.971274 0.0933698 0.427542
0 0.972027 0.0932737 0.400459
0 0.972744 0.0926654 0.288142
0 0.971219 0.0934847 0.450986
0 0.973864 0.0917155 0.143122
0 0.973633 0.0919628 0.184561
0 0.974104 0.0914813 0.104577
0 0.973491 0.0922221 0.229656
0 0.970398 0.0935104 0.44435
0 0.96999 0.175742 10.8392
0 0.972744 0.0923547 0.159334
0 0.972143 0.092968 0.267342
0 0.971302 0.0934404 0.423355
0 0.972024 0.0931716 0.34075
0 0.971299 0.093496 0.439709
0 0.973201 0.0921521 0.199026
0 0.974216 0.0910913 0.03659
0 0.973879 0.0916418 0.14104
0 0.973624 0.0919999 0.197658
0 0.974097 0.0913554 0.0851923
0 0.974194 0.0911239 0.0441401
0 0.970495 0.0934506 0.443119
0 0.970097 0.176014 10.8282
0 0.973099 0.0923126 0.246407
0 0.972038 0.0931634 0.395742
0 0.972617 0.0927648 0.321103
0 0.971211 0.09356 0.466832
0 0.971966 0.0931931 0.412913
0 0.973945 0.0916478 0.133611
0 0.973797 0.0918537 0.169043
0 0.97411 0.0914515 0.0977202
0 0.973581 0.0920858 0.207649
0 0.973189 0.0923848 0.262571
0 0.971187 0.0935918 0.45326
0 0.970336 0.0934842 0.450539
0 0.969939 0.17517 10.7024
0 0.972744 0.0923931 0.210622
0 0.972191 0.0930729 0.345112
0 0.971285 0.0934916 0.438438
0 0.972074 0.0932441 0.393442
0 0.973181 0.0921922 0.218838
0 0.973553 0.09209 0.210953
0 0.974131 0.0913537 0.0830171
0 0.973868 0.0916696 0.140763
0 0.97407 0.0914539 0.102642
0 0.974082 0.0914797 0.110019
0 0.974068 0.0915034 0.113518
0 0.971281 0.0934958 0.437464
0 0.970477 0.0934353 0.430099
0 0.970063 0.176199 10.8315
0 0.972636 0.092571 0.304917
0 0.97209 0.0931566 0.422019
0 0.971965 0.0933868 0.455785
0 0.973019 0.092384 0.272258
0 0.973877 0.0916583 0.133355
0 0.973512 0.0920776 0.20592
0 0.971179 0.0935758 0.439858
0 0.970277 0.0936619 0.405852
0 0.969879 0.175203 10.8398
0 0.97273 0.0924078 0.255741
0 0.972179 0.0931062 0.37454
0 0.972032 0.0933606 0.41658
0 0.973143 0.0921863 0.224799
0 0.973588 0.092026 0.199441
0 0.973918 0.0917063 0.144402
0 0.973864 0.091862 0.173503
0 0.973846 0.0917413 0.152881
0 0.97385 0.091808 0.166141
0 0.97124 0.0935176 0.443524
0 0.970465 0.0933729 0.420235
0 0.970054 0.174975 10.7019
0 0.972615 0.0925885 0.331803
0 0.972124 0.0931429 0.423751
0 0.973107 0.092238 0.245121
0 0.973597 0.0919394 0.183135
0 0.972028 0.0932534 0.43661
0 0.971224 0.0936199 0.458435
0 0.970291 0.0936971 0.4021
0 0.969778 0.172775 11.0302
0 0.972714 0.0924115 0.2596
0 0.972151 0.0931689 0.379558
0 0.973128 0.0921643 0.21625
0 0.973521 0.0921083 0.210727
0 0.973558 0.0920128 0.198035
0 0.97354 0.0920697 0.210456
0 0.973565 0.0920628 0.205698
0 0.973493 0.0921325 0.220641
0 0.972001 0.0932723 0.391891
0 0.971244 0.0935079 0.443974
0 0.970462 0.0933674 0.428169
0 0.970059 0.17409 10.6255
0 0.972648 0.0924492 0.297995
0 0.973137 0.0921262 0.222261
0 0.972109 0.0931029 0.405032
0 0.971243 0.0935594 0.468788
0 0.970396 0.0935163 0.454753
0 0.969908 0.176882 10.9954
0 0.972676 0.0924051 0.242792
0 0.973105 0.0921813 0.21722
0 0.973132 0.0920952 0.220742
0 0.973099 0.0921387 0.233633
0 0.973098 0.0921625 0.227341
0 0.972095 0.0930658 0.348383
0 0.971239 0.0934525 0.430427
0 0.97048 0.0934149 0.436888
0 0.970074 0.175379 10.7468
0 0.972668 0.0924548 0.28812
0 0.971972 0.0932594 0.430442
0 0.971242 0.0934678 0.454952
0 0.97042 0.0934638 0.4372
0 0.969977 0.175875 10.759
0 0.972659 0.0924208 0.253045
0 0.972696 0.0924405 0.31424
0 0.972692 0.0924309 0.304525
0 0.971986 0.093209 0.391921
0 0.97127 0.0933577 0.428219
0 0.970512 0.0933975 0.416941
0 0.9701 0.176163 10.8021
0 0.972142 0.0931554 0.430259
0 0.97126 0.0934591 0.456108
0 0.970446 0.0934408 0.435195
0 0.970006 0.175308 10.6996
0 0.972065 0.0933508 0.464686
0 0.972139 0.0931128 0.396301
0 0.972204 0.0932017 0.450577
0 0.972058 0.0933358 0.450623
0 0.971292 0.0934615 0.444742
0 0.970581 0.0932552 0.465418
0 0.970153 0.17565 10.616
0 0.971259 0.0935672 0.459552
0 0.970425 0.0934543 0.448307
0 0.970002 0.175841 10.7593
0 0.971259 0.0936016 0.453205
0 0.971266 0.0935256 0.440102
0 0.971256 0.0936223 0.449927
0 0.97047 0.0935492 0.414998
0 0.970197 0.164998 8.96168
0 0.970349 0.0936323 0.406777
0 0.969946 0.1758 10.9077
0 0.970319 0.0936074 0.40129
0 0.970361 0.0935576 0.394432
0 0.96994 0.170614 10.6326
0 0.969819 0.171922 10.9452
0 0.969902 0.174629 11.002
VECTORS fa_u float
0.0102685 0.00423049 0
0.00961065 0.00552353 0
0.0106749 0.00284072 0
0.0109148 0.00149912 0
0.000444301 0.000145992 0
0.00875571 0.00669769 0
0.00777046 0.00775485 0
0.000422518 0.000204748 0
0.00038924 0.000265904 0
0.00671766 0.00869312 0
0.00558902 0.00961487 0
0.0108695 6.62577e-06 0
0.0109246 -0.00149843 0
0.000459186 7.72193e-05 0
0.000462288 2.225e-05 0
0.000443919 0.000113457 0
0.000421913 0.000165331 0
0.000332573 0.000313957 0
0.000277535 0.000360266 0
0.000390751 0.000231326 0
0.000348035 0.000288579 0
0.00437751 0.0105449 0
0.00289579 0.0109271 0
0.00026284 0.000397478 0
0.000270047 0.00036742 0
0.000467291 -4.03484e-05 0
0.0105003 -0.00281088 0
0.000459659 -8.561e-05 0
0.0101 -0.00418429 0
0.000464008 3.56576e-05 0
0.000462211 -9.07192e-06 0
0.000405875 6.33494e-05 0
0.00140269 0.0107898 0
0.000362288 0.00011782 0
0.000367117 0.000172979 0
0.000293152 0.000349879 0
0.000254215 0.000392686 0
0.000312301 0.000220306 0
0.000295951 0.00029565 0
0.000135945 0.000432583 0
0.000127322 0.000465807 0
0.000233962 0.00041131 0
0.000223588 0.000416142 0
-9.90534e-06 0.00908074 0
0.000469756 -6.17283e-05 0
0.000432021 -0.000140503 0
0.000457625 -0.000109705 0
0.00942314 -0.00543347 0
0.000404083 -0.000183192 0
0.00862556 -0.00660363 0
0.000398859 8.87773e-06 0
0.000426307 -2.76162e-05 0
0.000269462 4.19015e-05 0
1.46475e-05 0.000478516 0
3.95524e-05 0.000478748 0
0.000242988 0.000110718 0
0.000240243 0.000341183 0
0.000226609 0.000400938 0
0.000204006 0.000189456 0
0.000188908 0.000427284 0
0.000130983 0.00044003 0
0.000213196 0.00040028 0
0.000210157 0.000413175 0
-0.0013961 0.0105931 0
0.000390099 -6.95598e-05 0
0.000419112 -0.000169714 0
0.000394778 -0.000134429 0
0.000386477 -0.000224829 0
0.00039031 -0.000199613 0
0.00765754 -0.00768459 0
0.000373344 -0.000260696 0
0.00650793 -0.00853339 0
0.000207886 6.06217e-05 0
0.000277143 -2.63926e-05 0
0.000218944 6.94049e-06 0
2.55782e-05 0.000440234 0
-8.09529e-05 0.000421073 0
-5.48764e-05 0.000427704 0
0.000182732 0.000116228 0
0.000176241 7.96947e-05 0
0.000170436 0.000266357 0
0.000154666 0.000170487 0
0.000163875 0.000359829 0
8.01449e-05 0.000355771 0
0.000141142 0.00028582 0
-0.00279848 0.0105097 0
0.000252462 -9.54348e-05 0
0.00034375 -0.000168359 0
0.0003771 -0.000226383 0
0.000345854 -0.000194576 0
0.000309328 -0.000298812 0
0.00035143 -0.000242876 0
0.00445618 -0.00773921 0
0.000209934 -0.000389912 0
0.000175972 3.43214e-05 0
0.000213857 -5.80246e-05 0
0.000189293 -1.96028e-05 0
0.000188302 -0.000110481 0
0.00345684 -0.00827454 0
-0.000172709 0.000414115 0
-1.57143e-05 0.000333562 0
-0.000150975 0.000386088 0
-0.000110825 0.000343953 0
0.0001271 5.66152e-05 0
0.000142687 0.000117953 0
0.00012125 0.000208516 0
0.00012279 0.000162905 0
5.9829e-05 0.000248141 0
7.56192e-05 0.000214712 0
-0.00415657 0.010005 0
0.000214057 -0.000140112 0
0.000300319 -0.000183893 0
0.000284623 -0.000287007 0
0.000280422 -0.000205571 0
0.000213821 -0.000427927 0
0.000212253 -0.000334681 0
0.00018112 -0.000401143 0
0.000114495 2.28851e-05 0
9.61684e-05 6.6782e-05 0
0.000131658 -1.04883e-05 0
0.000169627 -7.01308e-05 0
0.000150088 -0.000140521 0
0.000158727 -0.000124559 0
9.67053e-05 -2.54696e-05 0
0.00282928 -0.01038 0
-0.000220136 0.000393715 0
-0.000192742 0.000366116 0
-5.35794e-05 0.000247191 0
-0.000163018 0.000329312 0
8.97816e-05 0.000111235 0
7.43944e-05 0.000174985 0
3.447e-06 0.000211216 0
3.01276e-05 0.00018423 0
-0.00026155 0.00036516 0
-0.00544355 0.00937007 0
0.000153394 -0.000129993 0
0.000190026 -0.00019359 0
0.00013506 -0.000371995 0
0.000121499 -0.00025543 0
4.11088e-05 -0.000426845 0
4.9553e-05 -0.000396601 0
0.000104174 -0.000160221 0
5.0527e-05 8.9574e-05 0
6.30368e-05 2.97465e-05 0
0.000111925 -8.08196e-05 0
0.000119581 -0.000149295 0
8.43698e-05 -0.000186549 0
6.53086e-05 -7.18462e-05 0
2.89397e-05 -2.41647e-05 0
-2.64687e-05 -0.000453527 0
0.00146811 -0.0108327 0
-6.12915e-05 0.000211114 0
-0.000230851 0.000359861 0
-0.000192619 0.000351091 0
-0.000113965 0.000264647 0
-0.00028682 0.000348027 0
2.99244e-05 0.000139959 0
-2.13221e-05 0.000183325 0
3.26868e-06 0.000104526 0
-7.92628e-05 0.000215544 0
-0.000305849 0.00032234 0
-0.00660211 0.00859654 0
6.17107e-05 -0.000146898 0
3.23723e-05 -0.000265375 0
-2.51369e-05 -0.000422609 0
-1.14862e-05 -0.000340556 0
-5.29683e-05 -0.000436507 0
4.96102e-05 -0.000192744 0
-4.25895e-06 3.63413e-05 0
6.01997e-05 -0.000127547 0
3.86046e-05 -0.000193852 0
1.23784e-05 -8.42882e-05 0
-3.54582e-05 -2.62881e-05 0
-6.05618e-05 -0.000438961 0
1.60064e-06 -0.0108282 0
-0.000123484 0.000213232 0
-0.000224534 0.000325878 0
-0.000174347 0.000269648 0
-0.000350451 0.000308409 0
-0.000287103 0.000296764 0
-2.94023e-05 0.000130335 0
-6.66815e-05 0.000155336 0
-5.10607e-05 8.33189e-05 0
-0.00011738 0.000171289 0
-0.000169774 0.000200301 0
-0.000354018 0.000283048 0
-0.000335664 0.000300525 0
-0.00751222 0.00762287 0
7.611e-07 -0.00021062 0
-3.44491e-05 -0.000343388 0
-8.27581e-05 -0.000430557 0
-5.82735e-05 -0.000389102 0
1.89483e-06 -0.00021883 0
-2.04157e-05 -0.000209962 0
-7.58634e-05 3.37132e-05 0
-1.35733e-05 -0.000140107 0
-4.30479e-05 -9.31782e-05 0
-0.000108407 -1.87645e-05 0
-9.00659e-05 -6.90974e-05 0
-0.000120122 -0.000420649 0
-9.57968e-05 -0.000419295 0
-0.0014144 -0.0107387 0
-0.000209645 0.000221412 0
-0.000331509 0.000261154 0
-0.000375631 0.00025815 0
-0.000211398 0.000171567 0
-0.000101157 8.68962e-05 0
-0.000164013 0.00012451 0
-0.000375386 0.00022926 0
-0.000289417 0.000284523 0
-0.00857299 0.0066336 0
-3.2117e-05 -0.000253717 0
-7.91302e-05 -0.000366085 0
-0.000132323 -0.000395006 0
-5.33141e-05 -0.000218386 0
-7.30828e-05 -0.000185568 0
-0.000140058 3.51532e-05 0
-0.000172535 -1.83037e-05 0
-9.29233e-05 -0.000121399 0
-0.000148514 -7.44748e-05 0
-0.000160149 -0.000413601 0
-0.000137542 -0.000397089 0
-0.00275531 -0.0103411 0
-0.000275131 0.000185461 0
-0.000370778 0.000205155 0
-0.00022007 0.000107951 0
-0.000173427 5.88354e-05 0
-0.000403387 0.000167055 0
-0.000417421 0.000189532 0
-0.000380366 0.000130407 0
-0.00956216 0.0054982 0
-8.41482e-05 -0.000245583 0
-0.000147855 -0.000349576 0
-0.000100621 -0.000191415 0
-0.000125254 -0.000169462 0
-0.000197762 1.03866e-05 0
-0.000206064 -4.2767e-05 0
-0.000161608 -0.000127257 0
-0.000202453 -8.77233e-05 0
-0.000199747 -0.000337165 0
-0.000189819 -0.00040135 0
-0.00017212 -0.00039205 0
-0.00406637 -0.00981666 0
-0.000277268 0.000109195 0
-0.000217632 4.51271e-05 0
-0.000395746 8.62297e-05 0
-0.000450677 0.000129045 0
-0.000430243 0.000147282 0
-0.0101754 0.00416659 0
-0.000133037 -0.000203098 0
-0.000152673 -0.000154516 0
-0.000219757 -2.08307e-05 0
-0.000223423 -6.83127e-05 0
-0.000199513 -0.000108989 0
-0.000231991 -0.000259906 0
-0.000256065 -0.000345974 0
-0.000229802 -0.000371568 0
-0.0053899 -0.00929744 0
-0.00028787 1.20026e-05 0
-0.000430338 9.46975e-06 0
-0.000451061 5.93776e-05 0
-0.000427003 9.38716e-05 0
-0.0104032 0.00274365 0
-0.000207453 -0.000144897 0
-0.000306199 -7.06329e-05 0
-0.000286635 -0.00010284 0
-0.000324009 -0.0002205 0
-0.000323118 -0.00028101 0
-0.000289917 -0.000299647 0
-0.00659885 -0.00855227 0
-0.000425135 -6.62066e-05 0
-0.000454994 -3.18514e-05 0
-0.000434658 2.16247e-05 0
-0.0106077 0.00139906 0
-0.000451897 -0.000108271 0
-0.000360655 -0.000164264 0
-0.000432354 -0.000126843 0
-0.00042832 -0.000140011 0
-0.000381171 -0.000229138 0