# vtk DataFile Version 2.0
CellBP Time: 0.88
ASCII
DATASET UNSTRUCTURED_GRID
POINTS 296 double
-9.1547 -3.76286 0
-8.57737 -4.93111 0
-9.57233 -2.52851 0
-9.82551 -1.24992 0
-8.35464 -2.81753 0
-7.85455 -6.01548 0
-6.99452 -6.99454 0
-7.91444 -3.87323 0
-7.34007 -4.86609 0
-6.0148 -7.85386 0
-4.93128 -8.57787 0
-9.9245 0.0499901 0
-9.82563 1.34993 0
-8.65478 -1.68298 0
-8.78456 -0.528588 0
-7.58693 -2.00308 0
-7.22302 -2.90519 0
-6.63535 -5.77688 0
-5.82038 -6.59467 0
-6.78768 -3.8873 0
-6.2182 -4.67408 0
-3.76242 -9.1541 0
-2.52886 -9.5745 0
-4.90475 -7.30635 0
-3.91163 -7.88356 0
-8.79102 0.642439 0
-9.57276 2.62857 0
-8.6205 1.77325 0
-9.15557 3.8631 0
-7.74185 -0.92837 0
-7.79219 0.0803216 0
-6.95038 -1.31524 0
-1.25046 -9.8276 0
-6.4394 -2.15221 0
-6.31713 -3.05492 0
-5.5344 -5.47249 0
-4.79404 -6.11319 0
-5.65708 -3.75564 0
-5.26744 -4.55991 0
-2.8651 -8.36121 0
-1.77793 -8.63736 0
-3.92663 -6.72101 0
-3.05537 -7.14991 0
0.0499865 -9.91281 0
-7.70312 1.14297 0
-8.33588 2.91445 0
-7.54923 2.11116 0
-8.57975 5.03245 0
-7.87752 3.97687 0
-7.85388 6.11501 0
-6.77673 -0.396664 0
-6.95446 0.552425 0
-5.77008 -1.00307 0
-0.590538 -8.80668 0
0.565581 -8.76794 0
-5.30177 -2.47957 0
-4.49035 -5.09401 0
-3.90104 -5.77329 0
-4.4377 -3.80374 0
-2.06154 -7.55912 0
-1.13499 -7.78295 0
-2.99342 -6.09999 0
-2.30809 -6.61742 0
1.3504 -9.82777 0
-6.68754 1.42162 0
-7.1697 3.11698 0
-6.65718 2.3722 0
-7.29243 4.98703 0
-6.71583 4.00167 0
-6.99479 7.09487 0
-6.57053 5.89227 0
-6.01502 7.95413 0
-4.45205 -1.1807 0
-5.81333 0.513651 0
-4.65509 -0.0103099 0
0.00852951 -7.84522 0
1.73814 -8.64103 0
0.948668 -7.76063 0
-4.03753 -2.40575 0
-3.48464 -1.39078 0
-3.29357 -4.80414 0
-3.26502 -3.26693 0
-1.37806 -6.67332 0
-0.508556 -7.02265 0
-1.97496 -5.53567 0
2.62848 -9.57322 0
-5.50616 2.03645 0
-6.09296 3.07123 0
-6.10309 4.86791 0
-5.75997 3.99019 0
-5.75963 6.71512 0
-5.45033 5.61742 0
-4.93146 8.67815 0
-4.83703 7.40241 0
-3.50062 -0.424122 0
-4.44828 1.24878 0
-3.71054 0.591995 0
-4.06126 2.31929 0
-3.76264 9.25446 0
2.8619 -8.33031 0
0.419603 -6.79329 0
2.02142 -7.52335 0
1.30568 -6.90335 0
-2.44403 -0.873536 0
-2.83764 -2.13053 0
-2.29379 -4.09639 0
-2.325 -2.97279 0
-0.442166 -5.85976 0
-1.22236 -4.49808 0
3.86291 -9.15552 0
-4.7888 3.39103 0
-5.08648 4.59274 0
-4.64563 6.27935 0
-4.53744 5.35799 0
-3.84262 7.9911 0
-3.82543 6.84351 0
-2.78253 8.42048 0
-1.64847 -0.137794 0
-1.44977 -0.890267 0
-2.48847 0.507217 0
-3.2528 1.44384 0
-3.23829 3.31582 0
-2.91021 2.37118 0
-1.35462 0.626978 0
-2.52864 9.67365 0
3.93176 -7.8847 0
2.96382 -7.15552 0
0.953957 -5.82056 0
2.07377 -6.41355 0
-1.68251 -1.99152 0
-1.43403 -3.27693 0
0.0903153 -4.74594 0
-0.565973 -3.69354 0
4.93106 -7.31668 0
5.03105 -8.57787 0
-3.77618 4.55064 0
-3.73365 5.75047 0
-2.88702 7.28754 0
-3.00873 6.35183 0
-1.66211 8.73145 0
-1.93947 7.61696 0
-2.33786 4.0508 0
-0.730459 -1.32683 0
-0.836574 -0.257496 0
-1.93567 1.68041 0
-2.1252 2.87514 0
-1.30618 3.54379 0
-0.869141 1.35048 0
-0.282207 0.455909 0
-0.533382 8.86961 0
-1.25066 9.92965 0
1.11264 -4.57358 0
3.90927 -6.71526 0
2.98725 -6.09285 0
2.11753 -5.42361 0
4.78343 -6.20344 0
-0.558664 -2.47616 0
0.495113 -3.463 0
0.0536236 -1.61001 0
1.48166 -3.68118 0
5.86618 -6.61282 0
6.11438 -7.85361 0
-2.47519 5.34743 0
-2.12983 6.53269 0
-0.903783 7.80089 0
-1.27195 6.93004 0
0.0862208 7.87794 0
-1.14418 4.49376 0
0.150335 -0.617502 0
-0.797153 2.48792 0
-0.331468 3.59983 0
0.0631884 1.51231 0
0.741321 0.473276 0
0.646638 8.87218 0
0.0500169 10.0152 0
2.38062 -4.28436 0
3.85849 -5.63888 0
3.0009 -5.21156 0
5.57289 -5.49042 0
4.69029 -5.28179 0
0.629618 -2.2928 0
1.25598 -2.95059 0
0.757312 -1.39109 0
2.16393 -3.13514 0
2.9932 -3.47581 0
6.15428 -4.7908 0
6.65571 -5.76804 0
7.09473 -6.99459 0
-1.01944 5.81932 0
-0.372485 6.88184 0
1.1223 7.7673 0
0.557822 7.0779 0
-0.000716618 4.72424 0
0.606935 3.82689 0
1.33864 -0.641769 0
0.539069 2.65041 0
0.965945 1.57448 0
1.9098 0.213757 0
1.61443 1.06469 0
2.12883 7.58152 0
1.79885 8.71049 0
1.3505 9.92786 0
3.82228 -4.35083 0
5.11583 -4.44817 0
5.84484 -3.93443 0
3.78338 -3.2005 0
1.81192 -1.88231 0
3.01861 -2.57349 0
6.78241 -3.94748 0
7.38104 -4.89704 0
7.96272 -6.02156 0
0.483271 5.88063 0
1.42786 6.74039 0
2.37374 6.6674 0
1.2098 4.55535 0
1.48794 3.39686 0
2.43531 -0.691902 0
2.82743 0.142492 0
1.78858 2.16231 0
2.61137 1.14981 0
3.07129 7.16831 0
2.90375 8.37543 0
2.62908 9.67498 0
4.91074 -3.32748 0
6.11988 -3.10836 0
4.17228 -2.27502 0
3.24389 -1.50277 0
6.73035 -2.31284 0
7.23089 -3.04223 0
7.96409 -3.91212 0
8.68167 -4.93364 0
2.02338 5.59909 0
3.086 6.15235 0
2.36364 4.12626 0
2.41969 3.06022 0
3.52506 -0.460874 0
3.61506 0.613093 0
2.96133 2.28758 0
3.54498 1.52491 0
4.01158 5.89708 0
3.98392 6.7919 0
3.97294 7.93791 0
3.86347 9.25674 0
5.56842 -1.91607 0
4.50875 -1.12957 0
6.71322 -1.33612 0
7.59152 -2.0364 0
8.3965 -2.86152 0
9.2596 -3.76471 0
3.41892 4.87661 0
3.33868 3.38493 0
4.69088 0.129982 0
4.51879 1.30976 0
4.06498 2.44349 0
4.57024 5.152 0
4.84323 6.19006 0
4.98021 7.37993 0
5.03152 8.67841 0
5.88326 -0.434925 0
7.01037 -0.488297 0
7.75895 -1.08534 0
8.68432 -1.74601 0
9.67204 -2.52826 0
4.55241 3.82745 0
5.81776 1.09855 0
5.37132 2.53489 0
5.37996 4.62038 0
5.61199 5.52321 0
5.89716 6.67178 0
6.11502 7.95412 0
6.84603 0.463519 0
7.85315 -0.0257417 0
8.86045 -0.584367 0
9.93066 -1.2507 0
6.96053 1.34947 0
5.72124 3.77842 0
6.54168 2.19752 0
6.38042 3.08797 0
6.29251 4.68689 0
6.69348 5.83806 0
7.095 7.09497 0
7.7844 0.967614 0
8.85989 0.57268 0
10.0142 0.0500549 0
7.61643 2.00437 0
6.82953 3.90424 0
7.26989 2.94686 0
7.37895 4.88603 0
7.95599 6.11656 0
8.72338 1.7271 0
9.92733 1.35039 0
8.42162 2.83817 0
7.98248 3.91638 0
8.67813 5.03136 0
9.67433 2.62902 0
9.2613 3.86547 0
CELLS 542 2168
3 2 0 4
3 0 1 7
3 4 0 7
3 1 5 8
3 7 1 8
3 3 2 13
3 13 2 4
3 11 3 14
3 14 3 13
3 13 4 15
3 4 7 16
3 15 4 16
3 5 6 17
3 8 5 17
3 6 9 18
3 17 6 18
3 7 8 19
3 16 7 19
3 8 17 20
3 19 8 20
3 9 10 23
3 18 9 23
3 10 21 24
3 23 10 24
3 12 11 25
3 25 11 14
3 26 12 27
3 27 12 25
3 14 13 29
3 29 13 15
3 25 14 30
3 30 14 29
3 29 15 31
3 15 16 33
3 31 15 33
3 16 19 34
3 33 16 34
3 17 18 35
3 20 17 35
3 18 23 36
3 35 18 36
3 19 20 37
3 34 19 37
3 20 35 38
3 37 20 38
3 21 22 39
3 24 21 39
3 22 32 40
3 39 22 40
3 23 24 41
3 36 23 41
3 24 39 42
3 41 24 42
3 27 25 44
3 44 25 30
3 28 26 45
3 45 26 27
3 45 27 46
3 46 27 44
3 47 28 48
3 48 28 45
3 30 29 50
3 50 29 31
3 44 30 51
3 51 30 50
3 50 31 52
3 31 33 52
3 32 43 53
3 40 32 53
3 53 43 54
3 33 34 55
3 34 37 55
3 33 55 52
3 35 36 56
3 38 35 56
3 36 41 57
3 56 36 57
3 37 38 58
3 38 56 58
3 37 58 55
3 39 40 59
3 42 39 59
3 40 53 60
3 59 40 60
3 41 42 61
3 57 41 61
3 42 59 62
3 61 42 62
3 43 63 54
3 46 44 64
3 64 44 51
3 48 45 65
3 65 45 46
3 65 46 66
3 66 46 64
3 49 47 67
3 67 47 48
3 67 48 68
3 68 48 65
3 69 49 70
3 70 49 67
3 52 55 72
3 64 51 73
3 51 50 73
3 50 52 73
3 73 52 74
3 74 52 72
3 53 54 75
3 60 53 75
3 54 63 76
3 54 76 77
3 75 54 77
3 55 58 78
3 72 55 78
3 72 78 79
3 56 57 80
3 57 61 80
3 56 80 58
3 58 80 81
3 78 58 81
3 59 60 82
3 62 59 82
3 60 75 83
3 82 60 83
3 61 62 84
3 62 82 84
3 61 84 80
3 63 85 76
3 66 64 86
3 64 73 86
3 68 65 87
3 87 65 66
3 87 66 86
3 70 67 88
3 88 67 68
3 88 68 89
3 89 68 87
3 71 69 90
3 90 69 70
3 90 70 91
3 91 70 88
3 92 71 93
3 93 71 90
3 74 72 94
3 94 72 79
3 86 73 95
3 95 73 74
3 95 74 96
3 96 74 94
3 97 86 95
3 76 85 99
3 75 77 100
3 83 75 100
3 76 99 101
3 77 76 101
3 77 101 102
3 100 77 102
3 94 79 103
3 78 81 104
3 79 78 104
3 79 104 103
3 80 84 105
3 81 80 105
3 81 105 106
3 104 81 106
3 82 83 107
3 83 100 107
3 82 107 84
3 84 107 108
3 105 84 108
3 85 109 99
3 89 87 110
3 87 86 110
3 110 86 97
3 91 88 111
3 111 88 89
3 111 89 110
3 93 90 112
3 112 90 91
3 112 91 113
3 113 91 111
3 98 92 114
3 114 92 93
3 114 93 115
3 115 93 112
3 116 98 114
3 117 103 118
3 96 94 119
3 94 103 119
3 119 103 117
3 97 95 120
3 120 95 96
3 120 96 119
3 121 110 97
3 121 97 122
3 122 97 120
3 123 119 117
3 124 98 116
3 99 109 125
3 99 125 126
3 101 99 126
3 100 102 127
3 100 127 107
3 101 126 128
3 102 101 128
3 102 128 127
3 104 106 129
3 104 129 103
3 103 129 118
3 105 108 130
3 106 105 130
3 106 130 129
3 107 127 131
3 108 107 131
3 108 131 132
3 108 132 130
3 109 134 125
3 125 134 133
3 113 111 135
3 111 110 135
3 135 110 121
3 115 112 136
3 136 112 113
3 136 113 135
3 116 114 137
3 137 114 115
3 137 115 138
3 138 115 136
3 139 124 116
3 139 116 140
3 140 116 137
3 141 135 121
3 118 129 142
3 118 142 143
3 117 118 143
3 123 117 143
3 122 120 144
3 120 119 144
3 144 119 123
3 141 121 145
3 145 121 122
3 145 122 144
3 146 141 145
3 147 144 123
3 147 123 148
3 143 148 123
3 150 124 139
3 149 150 139
3 131 127 151
3 125 133 152
3 126 125 152
3 126 152 153
3 128 126 153
3 128 153 154
3 128 154 127
3 127 154 151
3 152 133 155
3 130 132 156
3 130 156 129
3 129 156 142
3 131 151 157
3 132 131 157
3 132 157 156
3 156 158 142
3 157 151 159
3 133 160 155
3 134 161 133
3 133 161 160
3 138 136 162
3 136 135 162
3 162 135 141
3 140 137 163
3 163 137 138
3 163 138 162
3 149 139 164
3 164 139 140
3 164 140 165
3 165 140 163
3 166 149 164
3 167 162 141
3 167 141 146
3 142 158 168
3 143 142 168
3 143 168 148
3 146 145 169
3 145 144 169
3 169 144 147
3 170 167 146
3 170 146 169
3 171 169 147
3 171 147 148
3 171 148 172
3 168 172 148
3 173 149 166
3 174 150 149
3 173 174 149
3 154 175 151
3 151 175 159
3 152 155 176
3 153 152 176
3 153 176 177
3 153 177 154
3 154 177 175
3 155 160 178
3 155 178 179
3 176 155 179
3 156 157 180
3 156 180 158
3 157 159 181
3 157 181 180
3 158 180 182
3 158 182 168
3 159 175 183
3 159 183 181
3 175 184 183
3 160 186 178
3 178 186 185
3 161 187 160
3 160 187 186
3 165 163 188
3 163 162 188
3 188 162 167
3 166 164 189
3 189 164 165
3 189 165 188
3 190 173 166
3 190 166 191
3 191 166 189
3 192 188 167
3 192 167 170
3 193 192 170
3 182 194 168
3 194 172 168
3 193 170 195
3 170 169 195
3 195 169 171
3 196 195 171
3 196 171 172
3 194 197 172
3 197 198 172
3 198 196 172
3 200 173 190
3 199 200 190
3 201 174 173
3 200 201 173
3 176 179 202
3 177 176 202
3 177 202 175
3 175 202 184
3 178 185 203
3 178 203 179
3 179 203 202
3 203 185 204
3 202 205 184
3 183 206 181
3 180 181 206
3 180 206 182
3 182 206 194
3 183 184 207
3 205 207 184
3 183 207 206
3 185 208 204
3 186 209 185
3 185 209 208
3 187 210 186
3 186 210 209
3 191 189 211
3 189 188 211
3 211 188 192
3 199 190 212
3 212 190 191
3 212 191 211
3 213 199 212
3 214 211 192
3 214 192 193
3 215 214 193
3 215 193 195
3 206 216 194
3 216 197 194
3 216 217 197
3 215 195 218
3 218 195 196
3 198 218 196
3 217 219 197
3 219 218 198
3 197 219 198
3 220 199 213
3 221 200 199
3 220 221 199
3 222 201 200
3 221 222 200
3 203 204 223
3 203 223 202
3 202 223 205
3 204 208 224
3 204 224 223
3 205 223 225
3 205 225 207
3 207 225 226
3 207 226 206
3 226 216 206
3 208 228 224
3 224 228 227
3 209 229 208
3 229 228 208
3 210 230 209
3 209 230 229
3 213 212 231
3 212 211 231
3 231 211 214
3 232 220 213
3 232 213 231
3 233 231 214
3 233 214 215
3 234 233 215
3 234 215 218
3 226 235 216
3 235 217 216
3 235 236 217
3 217 236 219
3 237 234 218
3 237 218 219
3 236 238 219
3 238 237 219
3 240 220 232
3 239 240 232
3 241 221 220
3 240 241 220
3 242 222 221
3 241 242 221
3 224 227 243
3 224 243 223
3 223 243 225
3 225 243 244
3 225 244 226
3 226 244 235
3 227 245 243
3 228 246 227
3 227 246 245
3 229 247 228
3 228 247 246
3 230 248 229
3 229 248 247
3 239 232 249
3 232 231 249
3 249 231 233
3 250 249 233
3 250 233 234
3 237 250 234
3 244 251 235
3 235 251 236
3 251 252 236
3 236 252 238
3 252 253 238
3 253 250 237
3 253 237 238
3 254 239 249
3 255 240 239
3 254 255 239
3 256 241 240
3 255 256 240
3 257 242 241
3 256 257 241
3 245 258 243
3 243 258 244
3 244 258 251
3 245 259 258
3 246 260 245
3 245 260 259
3 247 261 246
3 246 261 260
3 248 262 247
3 247 262 261
3 254 249 263
3 263 249 250
3 253 263 250
3 258 264 251
3 251 264 252
3 264 265 252
3 265 263 253
3 252 265 253
3 266 254 263
3 267 255 254
3 266 267 254
3 268 256 255
3 267 268 255
3 269 257 256
3 268 269 256
3 259 270 258
3 270 264 258
3 260 271 259
3 259 271 270
3 261 272 260
3 260 272 271
3 262 273 261
3 273 272 261
3 270 274 264
3 275 266 263
3 275 263 265
3 274 276 264
3 276 265 264
3 276 277 265
3 277 275 265
3 278 267 266
3 275 278 266
3 279 268 267
3 278 279 267
3 280 269 268
3 279 280 268
3 271 281 270
3 270 281 274
3 272 282 271
3 271 282 281
3 273 283 272
3 272 283 282
3 281 284 274
3 274 284 276
3 285 278 275
3 277 285 275
3 284 286 276
3 286 285 277
3 276 286 277
3 287 279 278
3 285 287 278
3 288 280 279
3 287 288 279
3 282 289 281
3 281 289 284
3 283 290 282
3 282 290 289
3 289 291 284
3 284 291 286
3 291 292 286
3 292 287 285
3 286 292 285
3 293 288 287
3 292 293 287
3 290 294 289
3 289 294 291
3 294 295 291
3 295 293 292
3 291 295 292
CELL_TYPES 542
5
5
5
5
5
5
5
5
5
5
5
5
5
5
5
5
5
5
5
5
5
5
5
5
5
5
5
5
5
5
5
5
5
5
5
5
5
5
5
5
5
5
5
5
5
5
5
5
5
5
5
5
5
5
5
5
5
5
5
5
5
5
5
5
5
5
5
5
5
5
5
5
5
5
5
5
5
5
5
5
5
5
5
5
5
5
5
5
5
5
5
5
5
5
5
5
5
5
5
5
5
5
5
5
5
5
5
5
5
5
5
5
5
5
5
5
5
5
5
5
5
5
5
5
5
5
5
5
5
5
5
5
5
5
5
5
5
5
5
5
5
5
5
5
5
5
5
5
5
5
5
5
5
5
5
5
5
5
5
5
5
5
5
5
5
5
5
5
5
5
5
5
5
5
5
5
5
5
5
5
5
5
5
5
5
5
5
5
5
5
5
5
5
5
5
5
5
5
5
5
5
5
5
5
5
5
5
5
5
5
5
5
5
5
5
5
5
5
5
5
5
5
5
5
5
5
5
5
5
5
5
5
5
5
5
5
5
5
5
5
5
5
5
5
5
5
5
5
5
5
5
5
5
5
5
5
5
5
5
5
5
5
5
5
5
5
5
5
5
5
5
5
5
5
5
5
5
5
5
5
5
5
5
5
5
5
5
5
5
5
5
5
5
5
5
5
5
5
5
5
5
5
5
5
5
5
5
5
5
5
5
5
5
5
5
5
5
5
5
5
5
5
5
5
5
5
5
5
5
5
5
5
5
5
5
5
5
5
5
5
5
5
5
5
5
5
5
5
5
5
5
5
5
5
5
5
5
5
5
5
5
5
5
5
5
5
5
5
5
5
5
5
5
5
5
5
5
5
5
5
5
5
5
5
5
5
5
5
5
5
5
5
5
5
5
5
5
5
5
5
5
5
5
5
5
5
5
5
5
5
5
5
5
5
5
5
5
5
5
5
5
5
5
5
5
5
5
5
5
5
5
5
5
5
5
5
5
5
5
5
5
5
5
5
5
5
5
5
5
5
5
5
5
5
5
5
5
5
5
5
5
5
5
5
5
5
5
5
5
5
5
5
5
5
5
5
5
5
5
5
5
5
5
5
5
5
5
5
5
5
5
5
5
5
5
5
5
5
5
5
5
5
5
5
5
5
5
5
5
5
5
5
5
5
5
5
5
5
5
5
5
5
5
5
5
5
5
5
5
5
5
5
5
5
5
5
5
5
5
5
5
5
POINT_DATA 296
SCALARS concentrations float 4
LOOKUP_TABLE default
0 0.990569 0.133929 7.56818
0 0.990557 0.136195 7.60598
0 0.990599 0.136126 7.51536
0 0.990648 0.135867 7.41829
0 0.991027 0.0936118 0.49288
0 0.990581 0.133555 7.5119
0 0.99061 0.135839 7.48801
0 0.991024 0.0935559 0.495413
0 0.991019 0.0935459 0.488238
0 0.990647 0.135904 7.42774
0 0.99066 0.136077 7.35915
0 0.990693 0.135365 7.32657
0 0.99072 0.135636 7.37743
0 0.991069 0.0934056 0.469365
0 0.991103 0.0933218 0.447948
0 0.991987 0.0935634 0.520174
0 0.991964 0.0935514 0.517079
0 0.991053 0.0935484 0.471106
0 0.991064 0.0933555 0.458856
0 0.991996 0.0935736 0.535886
0 0.991982 0.0935255 0.50567
0 0.990671 0.136467 7.29897
0 0.990801 0.129631 6.89314
0 0.9911 0.0933403 0.456705
0 0.991121 0.0933834 0.441732
0 0.991143 0.0933045 0.429456
0 0.99076 0.135375 7.39893
0 0.991143 0.0933068 0.419885
0 0.990798 0.135677 7.53729
0 0.991979 0.0934871 0.488525
0 0.992017 0.0933967 0.46174
0 0.992803 0.093154 0.462629
0 0.990709 0.135759 7.1811
0 0.992936 0.0930234 0.465749
0 0.992824 0.0932227 0.506768
0 0.991986 0.0935007 0.503554
0 0.991957 0.0934376 0.484086
0 0.992968 0.0930607 0.48635
0 0.992811 0.0932218 0.485923
0 0.991235 0.093727 0.305857
0 0.991242 0.0938147 0.281027
0 0.99198 0.0934318 0.492812
0 0.992055 0.0935058 0.494422
0 0.990727 0.135655 7.28926
0 0.992038 0.0934365 0.446444
0 0.991165 0.0932748 0.408001
0 0.992044 0.0934418 0.41895
0 0.990735 0.129117 5.99529
0 0.991124 0.0930646 0.521442
0 0.990838 0.135516 7.44948
0 0.992918 0.0930011 0.41301
0 0.992811 0.0931275 0.410642
0 0.993491 0.0923265 0.312771
0 0.991186 0.0934516 0.449811
0 0.99115 0.0933373 0.447009
0 0.993515 0.0923519 0.361759
0 0.992924 0.0930523 0.445802
0 0.992742 0.0931496 0.441285
0 0.993516 0.0923813 0.35396
0 0.992118 0.0935218 0.501939
0 0.99214 0.0935248 0.485987
0 0.992877 0.0930438 0.416947
0 0.992753 0.093186 0.465392
0 0.990761 0.135066 7.29678
0 0.99299 0.0929538 0.352878
0 0.991972 0.093272 0.372247
0 0.992856 0.0930709 0.330228
0 0.991157 0.0930438 0.509748
0 0.992014 0.0931747 0.345329
0 0.990841 0.135147 7.37266
0 0.991225 0.0932079 0.3992
0 0.990832 0.135175 7.35333
0 0.993938 0.0920313 0.244476
0 0.993521 0.092321 0.265114
0 0.993962 0.0920415 0.22197
0 0.992056 0.0934376 0.486392
0 0.991192 0.0932642 0.455286
0 0.992023 0.0934036 0.468584
0 0.99396 0.0920304 0.259691
0 0.994356 0.0918955 0.202909
0 0.993484 0.0923734 0.296471
0 0.993966 0.0920617 0.249303
0 0.992909 0.092949 0.406066
0 0.992782 0.0930513 0.41246
0 0.993478 0.0923653 0.264719
0 0.9908 0.135356 7.38259
0 0.99357 0.0922822 0.220898
0 0.993007 0.0928958 0.278869
0 0.992025 0.0932592 0.374251
0 0.992888 0.093028 0.298201
0 0.991251 0.0932255 0.415002
0 0.992126 0.0933682 0.410998
0 0.990835 0.13525 7.34949
0 0.991244 0.0932156 0.433637
0 0.994427 0.0918348 0.179453
0 0.993987 0.0920543 0.204568
0 0.994391 0.0919013 0.183818
0 0.99404 0.0920335 0.197195
0 0.990847 0.135647 7.29786
0 0.991235 0.0932849 0.47849
0 0.992905 0.0929893 0.386744
0 0.992061 0.0932926 0.467209
0 0.992799 0.0931096 0.416581
0 0.994711 0.0916025 0.135335
0 0.994436 0.0918396 0.190609
0 0.993987 0.0920754 0.22229
0 0.994405 0.0919269 0.202058
0 0.993513 0.0923716 0.258631
0 0.994015 0.0920528 0.202424
0 0.990834 0.134408 7.36478
0 0.993627 0.0922839 0.218214
0 0.993064 0.0929655 0.326841
0 0.992127 0.093378 0.441007
0 0.992944 0.0931644 0.390451
0 0.991247 0.0932378 0.450064
0 0.992098 0.0933594 0.457321
0 0.991297 0.0932932 0.44538
0 0.994938 0.0914768 0.110716
0 0.994957 0.0914634 0.113932
0 0.994723 0.0915863 0.126658
0 0.994471 0.0918518 0.172333
0 0.994069 0.0920243 0.207129
0 0.994439 0.0919226 0.190609
0 0.994983 0.0913894 0.0930816
0 0.990908 0.135471 7.0452
0 0.991257 0.0933022 0.466298
0 0.992125 0.0932201 0.458538
0 0.993553 0.0924742 0.28524
0 0.992946 0.0930236 0.403154
0 0.994756 0.0916047 0.140534
0 0.994496 0.0918574 0.180673
0 0.994084 0.0920543 0.202205
0 0.994475 0.0918526 0.174217
0 0.991226 0.0932586 0.415563
0 0.990825 0.135298 7.33473
0 0.993653 0.0923024 0.250433
0 0.993054 0.0929998 0.371508
0 0.992084 0.0933673 0.484142
0 0.992857 0.0930978 0.404493
0 0.991473 0.0936963 0.287029
0 0.992203 0.0934448 0.503753
0 0.9941 0.0920153 0.21028
0 0.995021 0.091383 0.0997929
0 0.995101 0.0912204 0.06683
0 0.994762 0.0915735 0.130792
0 0.994534 0.0918479 0.188398
0 0.994504 0.0919191 0.205458
0 0.994984 0.0913536 0.0945134
0 0.995118 0.0910693 0.0331645
0 0.991599 0.0938971 0.15855
0 0.991124 0.128791 6.46108
0 0.994086 0.092073 0.212515
0 0.992123 0.0932712 0.44363
0 0.99291 0.0931017 0.416123
0 0.993643 0.0924867 0.296532
0 0.992072 0.0933573 0.421773
0 0.994799 0.0916004 0.13702
0 0.99456 0.0918163 0.166646
0 0.995032 0.0913911 0.0974176
0 0.994409 0.0920392 0.204885
0 0.991212 0.0932478 0.385399
0 0.9908 0.135288 7.29657
0 0.993616 0.0922717 0.238705
0 0.992972 0.0929356 0.38101
0 0.992305 0.093504 0.533241
0 0.992843 0.0930859 0.46132
0 0.992302 0.0935556 0.557565
0 0.99408 0.0920131 0.203878
0 0.995135 0.0910629 0.036123
0 0.994805 0.0915486 0.146334
0 0.99457 0.0918578 0.202966
0 0.995018 0.0912833 0.0914065
0 0.995113 0.0910741 0.0495154
0 0.991487 0.0936908 0.318633
0 0.99114 0.128428 6.4083
0 0.994019 0.0921348 0.223441
0 0.992935 0.0929973 0.377958
0 0.993529 0.0925782 0.308081
0 0.992084 0.0933935 0.415091
0 0.992868 0.0930123 0.359778
0 0.994875 0.0915305 0.116905
0 0.994725 0.0917035 0.144564
0 0.995039 0.0913573 0.0891695
0 0.994516 0.0919158 0.181285
0 0.994139 0.0921987 0.230608
0 0.992108 0.0933774 0.420044
0 0.991209 0.0932149 0.379278
0 0.9908 0.134567 7.23167
0 0.993555 0.0922455 0.229104
0 0.992982 0.0929162 0.438037
0 0.992228 0.0935264 0.581151
0 0.992872 0.0931086 0.509471
0 0.994084 0.0920291 0.210936
0 0.99453 0.0919236 0.21545
0 0.995059 0.0912711 0.0839064
0 0.994825 0.0915492 0.158043
0 0.995004 0.0913501 0.114063
0 0.995019 0.0913725 0.116187
0 0.995007 0.0913888 0.121782
0 0.99223 0.0934892 0.552039
0 0.99137 0.0934534 0.477719
0 0.990934 0.135516 7.03772
0 0.993574 0.0923966 0.261266
0 0.993006 0.0929441 0.35209
0 0.992899 0.0931465 0.394501
0 0.993996 0.0922069 0.23539
0 0.994818 0.091538 0.121625
0 0.994477 0.0919152 0.187324
0 0.992149 0.0933534 0.433468
0 0.991267 0.0932222 0.400832
0 0.990827 0.134945 7.24157
0 0.993559 0.0922344 0.252748
0 0.993017 0.0929368 0.445613
0 0.992921 0.0931965 0.513582
0 0.994096 0.0920186 0.223271
0 0.994581 0.0918584 0.208225
0 0.99487 0.0915745 0.145762
0 0.994831 0.0917053 0.177037
0 0.994818 0.0915984 0.163887
0 0.994823 0.0916587 0.170433
0 0.992223 0.0934961 0.548821
0 0.991453 0.0936193 0.324109
0 0.990956 0.132596 7.02379
0 0.993591 0.0924058 0.270698
0 0.993095 0.0929154 0.362989
0 0.994115 0.0920762 0.223764
0 0.994576 0.0917908 0.178989
0 0.993005 0.0930001 0.381153
0 0.992173 0.0933683 0.442428
0 0.991294 0.0932403 0.43423
0 0.990861 0.135749 7.39777
0 0.993628 0.0922444 0.273513
0 0.993081 0.0929937 0.44366
0 0.994117 0.0919999 0.216799
0 0.994525 0.0919315 0.211137
0 0.994557 0.091851 0.197466
0 0.994549 0.0919022 0.204442
0 0.994569 0.0918926 0.201212
0 0.994508 0.0919599 0.20689
0 0.992932 0.0930941 0.445786
0 0.992238 0.093437 0.511269
0 0.991462 0.0933929 0.310493
0 0.991114 0.127748 6.62131
0 0.993675 0.0922717 0.262696
0 0.994168 0.0919696 0.213411
0 0.993142 0.0928693 0.355542
0 0.992153 0.0932982 0.449396
0 0.991317 0.0932061 0.44253
0 0.990906 0.135963 7.50242
0 0.993632 0.0922441 0.247528
0 0.994107 0.0920184 0.204908
0 0.994167 0.0919414 0.202732
0 0.99412 0.0919818 0.195931
0 0.99411 0.0920021 0.193891
0 0.993034 0.0929136 0.382447
0 0.99217 0.0933501 0.505075
0 0.991383 0.0932107 0.446144
0 0.990986 0.135061 7.11837
0 0.993718 0.0922743 0.262443
0 0.993021 0.0930298 0.390927
0 0.99224 0.0932563 0.4123
0 0.991287 0.0930628 0.531129
0 0.990923 0.135763 7.49072
0 0.993622 0.092263 0.228236
0 0.993681 0.0922496 0.236078
0 0.993642 0.092245 0.21853
0 0.992916 0.0930751 0.425614
0 0.992247 0.0933871 0.471581
0 0.99139 0.0932214 0.431904
0 0.990955 0.135567 7.19333
0 0.993151 0.0929189 0.377732
0 0.992273 0.0932869 0.432852
0 0.991426 0.0934055 0.403244
0 0.990892 0.126589 5.75721
0 0.992997 0.0930808 0.400745
0 0.993055 0.0929296 0.375684
0 0.99307 0.0929169 0.357805
0 0.992924 0.0930783 0.398556
0 0.992259 0.0934215 0.485044
0 0.991512 0.0934878 0.279097
0 0.991019 0.135115 7.04582
0 0.992311 0.0933843 0.432139
0 0.991506 0.0934139 0.247873
0 0.991151 0.128755 6.87075
0 0.992207 0.0933431 0.461373
0 0.992253 0.0934122 0.466752
0 0.992159 0.0933389 0.462182
0 0.991498 0.0934233 0.282365
0 0.991189 0.127437 6.4587
0 0.991408 0.093227 0.41264
0 0.991015 0.135315 7.19249
0 0.991364 0.0931804 0.422627
0 0.991385 0.0931955 0.416066
0 0.991028 0.134536 6.97854
0 0.990965 0.135193 7.27407
0 0.990967 0.13507 7.18515
VECTORS fa_u float
0.00700396 0.00286739 0
0.00659187 0.00379451 0
0.00727524 0.00188452 0
0.00735235 0.000986897 0
0.000461089 0.000174149 0
0.00595772 0.00457539 0
0.00527124 0.0053183 0
0.000434352 0.00023827 0
0.000418087 0.000252151 0
0.00451374 0.00589893 0
0.00368153 0.00637209 0
0.00732657 6.16814e-06 0
0.00731158 -0.000983479 0
0.000453031 0.000122742 0
0.000441666 7.47546e-05 0
0.000480839 0.000198431 0
0.000462358 0.000231509 0
0.000369087 0.000292773 0
0.000334691 0.000313896 0
0.000461166 0.000272945 0
0.000422839 0.000277324 0
0.00283284 0.0067268 0
0.00179595 0.00665507 0
0.000284192 0.000357512 0
0.000203712 0.000391955 0
0.00042921 1.45337e-05 0
0.00714719 -0.00191359 0
0.000419097 -2.57141e-05 0
0.00693695 -0.00294779 0
0.000475009 0.000114116 0
0.000457976 5.88367e-05 0
0.000434867 0.000157849 0
0.000882864 0.00712663 0
0.000416368 0.000208709 0
0.000440087 0.000251272 0
0.000403206 0.000301648 0
0.000350865 0.000333516 0
0.000414337 0.000254678 0
0.000402268 0.000272584 0
0.000159202 0.000261157 0
2.07862e-05 0.000280257 0
0.000274977 0.000408963 0
0.00021679 0.000444359 0
2.95499e-06 0.00728926 0
0.000446443 1.20024e-06 0
0.000399192 -8.43251e-05 0
0.000417329 -3.68151e-05 0
0.00519529 -0.00299207 0
0.000442602 -0.00027569 0
0.00595292 -0.00447855 0
0.000404622 8.28118e-05 0
0.000409471 3.09985e-05 0
0.000296382 9.99182e-05 0
5.81847e-05 0.000446032 0
-2.57528e-05 0.000446266 0
0.000317367 0.00017363 0
0.00035251 0.000272903 0
0.000302441 0.000321344 0
0.000291969 0.000200104 0
0.000153482 0.000477897 0
8.4807e-05 0.00047853 0
0.000225848 0.000350482 0
0.000179658 0.000429317 0
-0.000942361 0.00723568 0
0.000352569 -1.47561e-05 0
0.000355927 -0.000109014 0
0.000323978 -6.39441e-05 0
0.000445527 -0.000247687 0
0.000294698 -0.000180015 0
0.00522613 -0.00520035 0
0.000258865 -0.000303891 0
0.00447504 -0.00583485 0
0.000227454 8.96285e-05 0
0.000264929 9.89292e-06 0
0.000219988 2.95985e-05 0
1.50488e-06 0.00048639 0
-9.59773e-05 0.000445055 0
-7.66679e-05 0.000462269 0
0.000220154 0.000137739 0
0.000181787 9.01415e-05 0
0.000214044 0.000205134 0
0.000187556 0.00016424 0
0.0001012 0.000393253 0
2.74945e-05 0.000411543 0
0.000119103 0.000236412 0
-0.00190758 0.00713188 0
0.000211983 -6.21218e-05 0
0.00025158 -0.000120313 0
0.000253846 -0.000275002 0
0.000224823 -0.000195904 0
0.000235928 -0.000341416 0
0.000237298 -0.000335572 0
0.00366572 -0.00637004 0
0.000232236 -0.000366207 0
0.000174605 4.14318e-05 0
0.000200526 -4.04655e-05 0
0.000183515 -1.05637e-05 0
0.000168634 -0.000102218 0
0.00276335 -0.00675445 0
-0.000149897 0.000454404 0
-4.07425e-05 0.000384592 0
-0.000144684 0.000444242 0
-0.000110429 0.000401678 0
0.000122111 5.83485e-05 0
0.000146805 0.000121574 0
0.000130738 0.000179779 0
0.000129325 0.00015525 0
3.2148e-05 0.000256626 0
6.901e-05 0.000190298 0
-0.00283439 0.00679751 0
0.000163066 -0.000145006 0
0.00020192 -0.000257009 0
0.000246911 -0.000365406 0
0.000225021 -0.000319089 0
0.000187787 -0.000409015 0
0.000235479 -0.000392036 0
9.37477e-05 -0.000435401 0
0.000107686 2.57238e-05 0
9.14204e-05 6.79909e-05 0
0.000126474 -6.82427e-06 0
0.000160573 -6.25701e-05 0
0.00013066 -0.000160719 0
0.000143759 -0.000125161 0
9.01159e-05 -2.33088e-05 0
0.00182461 -0.00680483 0
-0.000187685 0.000426859 0
-0.000163197 0.000428513 0
-4.67109e-05 0.000281389 0
-0.000134421 0.000380085 0
8.8012e-05 0.000109562 0
7.82238e-05 0.000162861 0
8.99173e-06 0.000202005 0
3.81165e-05 0.000169996 0
-0.000208503 0.000359471 0
-0.00370053 0.0063328 0
0.000139348 -0.000208084 0
0.000204994 -0.000309831 0
0.000164585 -0.000455308 0
0.000191879 -0.000356086 0
4.35228e-05 -0.000283711 0
8.69146e-05 -0.000496198 0
9.46913e-05 -0.000187753 0
4.96688e-05 8.65542e-05 0
5.88115e-05 3.17404e-05 0
0.000102592 -8.11255e-05 0
0.000103279 -0.000157567 0
6.65808e-05 -0.00019437 0
5.69436e-05 -7.54335e-05 0
2.33714e-05 -2.353e-05 0
-1.08095e-05 -0.000158182 0
0.00085554 -0.00640419 0
-4.30854e-05 0.000208101 0
-0.000185357 0.000403051 0
-0.00015599 0.000385779 0
-9.16654e-05 0.000282008 0
-0.000229196 0.000354064 0
3.63715e-05 0.000132105 0
-5.63915e-06 0.000166551 0
7.73909e-06 9.71097e-05 0
-6.33052e-05 0.000194859 0
-0.000246069 0.000296618 0
-0.00445841 0.00577603 0
0.000102138 -0.00021575 0
0.000124271 -0.000360174 0
2.55196e-05 -0.00053263 0
6.07647e-05 -0.0004573 0
-1.59053e-05 -0.000557338 0
4.77526e-05 -0.000198207 0
-6.7406e-06 3.54885e-05 0
4.54557e-05 -0.000139095 0
2.1462e-05 -0.000201828 0
3.26189e-06 -9.13483e-05 0
-4.17333e-05 -2.66479e-05 0
-4.7762e-05 -0.000315033 0
8.38106e-06 -0.00640829 0
-0.000105532 0.000196949 0
-0.000177151 0.000333871 0
-0.000145388 0.000271618 0
-0.00029837 0.000288576 0
-0.000227054 0.000279082 0
-2.05635e-05 0.000115082 0
-5.46032e-05 0.000133856 0
-4.80981e-05 7.50852e-05 0
-0.000110402 0.00014379 0
-0.000157838 0.000168128 0
-0.000336221 0.000251779 0
-0.000285169 0.000250061 0
-0.00509843 0.00512865 0
2.99228e-05 -0.000227142 0
-7.47423e-07 -0.000438037 0
-9.82744e-05 -0.000572781 0
-6.9588e-05 -0.000504696 0
-8.17428e-06 -0.000210777 0
-3.09652e-05 -0.000213213 0
-7.87278e-05 2.9021e-05 0
-2.32505e-05 -0.000156323 0
-5.09715e-05 -0.000102041 0
-0.000114312 -2.07905e-05 0
-9.70745e-05 -7.35355e-05 0
-0.00014686 -0.000532146 0
-7.9563e-05 -0.000471047 0
-0.000879343 -0.00698257 0
-0.000176481 0.000192652 0
-0.00027542 0.000219342 0
-0.000335311 0.000207841 0
-0.000193909 0.000133447 0
-0.000100309 6.87805e-05 0
-0.000161728 9.45206e-05 0
-0.000375116 0.000217214 0
-0.000330232 0.000227186 0
-0.00574077 0.00441405 0
-4.81859e-05 -0.000248113 0
-0.000119085 -0.000429406 0
-0.000179876 -0.000481052 0
-6.2132e-05 -0.000214452 0
-7.29146e-05 -0.000195042 0
-0.000143223 2.70876e-05 0
-0.000175643 -2.21661e-05 0
-9.62898e-05 -0.000132617 0
-0.000151947 -7.71966e-05 0
-0.000197217 -0.000512162 0
-7.68597e-05 -0.000314864 0
-0.00177998 -0.0067945 0
-0.000237432 0.000130013 0
-0.000330381 0.000150365 0
-0.000211453 7.31966e-05 0
-0.000174414 4.02102e-05 0
-0.00036038 0.000124113 0
-0.000397624 0.000194004 0
-0.000378537 0.000212756 0
-0.00640956 0.00369385 0
-9.36108e-05 -0.000256995 0
-0.000157626 -0.000414715 0
-9.10257e-05 -0.000196765 0
-0.00011652 -0.000176073 0
-0.00019742 4.27271e-06 0
-0.000200178 -4.15387e-05 0
-0.000152478 -0.000131289 0
-0.000188006 -8.63551e-05 0
-0.000207073 -0.000394774 0
-0.000201994 -0.000469674 0
-0.000157173 -0.000267774 0
-0.00259343 -0.00609228 0
-0.000252449 7.26555e-05 0
-0.000211089 3.13941e-05 0
-0.000349815 6.35608e-05 0
-0.000435232 0.000111936 0
-0.000407653 0.000172198 0
-0.00693708 0.00285713 0
-0.000114462 -0.000219473 0
-0.000130221 -0.000158208 0
-0.00020251 -9.46843e-06 0
-0.000187819 -5.57921e-05 0
-0.00016233 -0.000106032 0
-0.00023393 -0.000302561 0
-0.00027814 -0.000421591 0
-0.000204698 -0.000396413 0
-0.0036128 -0.00613342 0
-0.00026126 2.48888e-05 0
-0.000390448 1.93508e-05 0
-0.000409787 4.54507e-05 0
-0.000528661 5.11376e-05 0
-0.00724717 0.0018946 0
-0.000165964 -0.000156676 0
-0.000234513 -2.71391e-05 0
-0.000198015 -9.24411e-05 0
-0.000318859 -0.000281915 0
-0.000323268 -0.000343345 0
-0.000280898 -0.000328082 0
-0.00437765 -0.00570791 0
-0.000377669 -6.89612e-06 0
-0.000432749 -9.44038e-06 0
-0.000388154 0.000109279 0
-0.00570875 0.000745433 0
-0.000397978 -4.70137e-05 0
-0.000305516 -0.000218629 0