# vtk DataFile Version 2.0
CellBP Time: 1.68
ASCII
DATASET UNSTRUCTURED_GRID
POINTS 296 double
-9.11111 -3.74488 0
-8.53661 -4.90772 0
-9.52892 -2.51692 0
-9.77964 -1.24365 0
-8.35049 -2.81624 0
-7.8171 -5.9869 0
-6.96164 -6.96178 0
-7.91077 -3.87149 0
-7.3367 -4.86379 0
-5.98627 -7.81675 0
-4.9079 -8.5374 0
-9.87803 0.0499767 0
-9.77975 1.34366 0
-8.65056 -1.682 0
-8.78062 -0.528342 0
-7.58287 -2.00198 0
-7.21915 -2.90367 0
-6.63233 -5.77423 0
-5.81773 -6.59164 0
-6.78418 -3.88521 0
-6.21501 -4.67153 0
-3.74432 -9.11039 0
-2.5164 -9.52802 0
-4.90252 -7.30303 0
-3.90979 -7.87998 0
-8.7871 0.642079 0
-9.52747 2.61657 0
-8.61658 1.7724 0
-9.11314 3.84563 0
-7.73768 -0.927931 0
-7.78816 0.0802476 0
-6.94685 -1.31464 0
-1.24427 -9.78091 0
-6.43624 -2.15114 0
-6.31389 -3.05335 0
-5.53157 -5.46954 0
-4.79155 -6.10992 0
-5.6543 -3.75369 0
-5.2647 -4.55741 0
-2.86368 -8.35717 0
-1.77694 -8.63308 0
-3.92461 -6.71745 0
-3.05372 -7.14615 0
0.0499551 -9.8663 0
-7.69901 1.1423 0
-8.33226 2.91332 0
-7.54516 2.11003 0
-8.53797 5.00823 0
-7.87428 3.97508 0
-7.81707 6.08667 0
-6.77329 -0.396582 0
-6.95078 0.552131 0
-5.76774 -1.0027 0
-0.590203 -8.80253 0
0.565411 -8.76388 0
-5.29962 -2.47858 0
-4.48808 -5.09131 0
-3.899 -5.77015 0
-4.43584 -3.80212 0
-2.06038 -7.55515 0
-1.13435 -7.77885 0
-2.99181 -6.09677 0
-2.3068 -6.61387 0
1.34424 -9.78166 0
-6.68411 1.42091 0
-7.16583 3.11525 0
-6.65357 2.37087 0
-7.2892 4.98483 0
-6.7122 3.99959 0
-6.96217 7.0623 0
-6.5675 5.88973 0
-5.98687 7.91752 0
-4.45014 -1.18015 0
-5.81089 0.513414 0
-4.65308 -0.0102349 0
0.00850574 -7.84108 0
1.73753 -8.63712 0
0.948241 -7.75652 0
-4.03583 -2.40469 0
-3.48296 -1.39005 0
-3.2921 -4.80205 0
-3.26358 -3.26543 0
-1.37731 -6.66994 0
-0.508293 -7.01904 0
-1.97402 -5.53323 0
2.61632 -9.52822 0
-5.50383 2.03561 0
-6.08972 3.0696 0
-6.09968 4.86539 0
-5.75671 3.98812 0
-5.75703 6.71219 0
-5.4473 5.61454 0
-4.90812 8.63789 0
-4.8349 7.39916 0
-3.49894 -0.423813 0
-4.44629 1.24831 0
-3.70875 0.591849 0
-4.05946 2.31838 0
-3.74453 9.21117 0
2.86071 -8.32663 0
0.419462 -6.78973 0
2.02047 -7.51954 0
1.30502 -6.89969 0
-2.4428 -0.873021 0
-2.83627 -2.12944 0
-2.29272 -4.09454 0
-2.32383 -2.97129 0
-0.441839 -5.85714 0
-1.22175 -4.49606 0
3.84503 -9.11264 0
-4.78673 3.38966 0
-5.08369 4.59043 0
-4.64314 6.27606 0
-4.5349 5.35511 0
-3.84089 7.98761 0
-3.82339 6.83996 0
-2.78115 8.4171 0
-1.6474 -0.137599 0
-1.44887 -0.889669 0
-2.48721 0.507137 0
-3.25119 1.44329 0
-3.23683 3.3145 0
-2.90871 2.37018 0
-1.35373 0.626754 0
-2.51664 9.62912 0
3.92987 -7.88109 0
2.96239 -7.15195 0
0.95362 -5.8178 0
2.07269 -6.41014 0
-1.68165 -1.99049 0
-1.43333 -3.27529 0
0.0903797 -4.74382 0
-0.565678 -3.6918 0
4.92885 -7.31313 0
5.00867 -8.53928 0
-3.77458 4.5488 0
-3.73168 5.74746 0
-2.88548 7.28384 0
-3.00711 6.34843 0
-1.66155 8.72769 0
-1.9384 7.61315 0
-2.33681 4.04914 0
-0.730004 -1.32602 0
-0.836004 -0.257244 0
-1.93464 1.67977 0
-2.12409 2.87389 0
-1.30543 3.54216 0
-0.868557 1.34987 0
-0.281947 0.455682 0
-0.533123 8.86548 0
-1.24437 9.8817 0
1.11216 -4.5715 0
3.90734 -6.71187 0
2.98574 -6.08951 0
2.11664 -5.42099 0
4.78099 -6.20014 0
-0.558384 -2.47487 0
0.494946 -3.4613 0
0.0536455 -1.60907 0
1.48095 -3.67921 0
5.86358 -6.60984 0
6.08608 -7.81672 0
-2.47419 5.34519 0
-2.12872 6.52934 0
-0.903279 7.79697 0
-1.2712 6.92643 0
0.0862613 7.87391 0
-1.14362 4.49184 0
0.150292 -0.617181 0
-0.796643 2.48687 0
-0.331154 3.59814 0
0.0633061 1.51158 0
0.741039 0.473045 0
0.646392 8.86822 0
0.0499925 9.96727 0
2.37951 -4.28242 0
3.8566 -5.63592 0
2.9994 -5.20909 0
5.5699 -5.48755 0
4.68794 -5.2791 0
0.629352 -2.29162 0
1.25537 -2.94919 0
0.756847 -1.39034 0
2.16284 -3.1336 0
2.99168 -3.47402 0
6.15108 -4.7882 0
6.6528 -5.76543 0
7.06207 -6.96157 0
-1.01901 5.81689 0
-0.372183 6.87841 0
1.12175 7.76336 0
0.557611 7.07429 0
-0.000642882 4.72219 0
0.606745 3.82505 0
1.33799 -0.641444 0
0.538955 2.64922 0
0.965618 1.57367 0
1.9089 0.213622 0
1.61371 1.06408 0
2.12773 7.57767 0
1.79808 8.70677 0
1.34438 9.88144 0
3.82053 -4.34888 0
5.11321 -4.44587 0
5.84177 -3.9322 0
3.78159 -3.19897 0
1.81102 -1.8815 0
3.01713 -2.57232 0
6.77894 -3.94534 0
7.37787 -4.89477 0
7.92625 -5.99348 0
0.48309 5.87823 0
1.4272 6.73704 0
2.37246 6.66385 0
1.20932 4.55338 0
1.4873 3.39522 0
2.43409 -0.691522 0
2.82593 0.142381 0
1.78782 2.16124 0
2.61011 1.14915 0
3.06967 7.1646 0
2.90243 8.37183 0
2.61702 9.62985 0
4.90859 -3.32593 0
6.11685 -3.1067 0
4.17039 -2.27403 0
3.24235 -1.50216 0
6.7269 -2.31163 0
7.22709 -3.04053 0
7.96061 -3.91033 0
8.64148 -4.91059 0
2.02257 5.59685 0
3.08442 6.1492 0
2.36268 4.1245 0
2.41857 3.05868 0
3.52331 -0.460696 0
3.61325 0.612751 0
2.95992 2.28641 0
3.5432 1.52411 0
4.00943 5.89403 0
3.98191 6.78835 0
3.97125 7.93445 0
3.84559 9.21352 0
5.56613 -1.91519 0
4.50685 -1.1291 0
6.70979 -1.33547 0
7.58746 -2.03536 0
8.3928 -2.86026 0
9.21682 -3.74712 0
3.41748 4.87466 0
3.33725 3.38346 0
4.68896 0.129904 0
4.51689 1.30916 0
4.06326 2.44242 0
4.56787 5.14943 0
4.8407 6.18691 0
4.97804 7.37679 0
5.00821 8.63812 0
5.88079 -0.434686 0
7.00665 -0.488011 0
7.75489 -1.08474 0
8.68058 -1.74519 0
9.62734 -2.51634 0
4.5505 3.82588 0
5.81535 1.09811 0
5.36909 2.53384 0
5.37715 4.61798 0
5.60914 5.5204 0
5.89462 6.66892 0
6.08659 7.91714 0
6.84252 0.463328 0
7.84911 -0.0257086 0
8.85654 -0.58406 0
9.88299 -1.24439 0
6.95684 1.34876 0
5.71831 3.77649 0
6.53833 2.19638 0
6.37705 3.08632 0
6.28924 4.68448 0
6.69047 5.83556 0
7.06201 7.06199 0
7.78033 0.967146 0
8.85586 0.57254 0
9.96678 0.0499831 0
7.61249 2.00328 0
6.82601 3.9022 0
7.2661 2.94535 0
7.37571 4.88388 0
7.91887 6.08812 0
8.71958 1.72638 0
9.88113 1.34434 0
8.418 2.83697 0
7.97905 3.91474 0
8.63796 5.00808 0
9.62934 2.61714 0
9.2188 3.84789 0
CELLS 542 2168
3 2 0 4
3 0 1 7
3 4 0 7
3 1 5 8
3 7 1 8
3 3 2 13
3 13 2 4
3 11 3 14
3 14 3 13
3 13 4 15
3 4 7 16
3 15 4 16
3 5 6 17
3 8 5 17
3 6 9 18
3 17 6 18
3 7 8 19
3 16 7 19
3 8 17 20
3 19 8 20
3 9 10 23
3 18 9 23
3 10 21 24
3 23 10 24
3 12 11 25
3 25 11 14
3 26 12 27
3 27 12 25
3 14 13 29
3 29 13 15
3 25 14 30
3 30 14 29
3 29 15 31
3 15 16 33
3 31 15 33
3 16 19 34
3 33 16 34
3 17 18 35
3 20 17 35
3 18 23 36
3 35 18 36
3 19 20 37
3 34 19 37
3 20 35 38
3 37 20 38
3 21 22 39
3 24 21 39
3 22 32 40
3 39 22 40
3 23 24 41
3 36 23 41
3 24 39 42
3 41 24 42
3 27 25 44
3 44 25 30
3 28 26 45
3 45 26 27
3 45 27 46
3 46 27 44
3 47 28 48
3 48 28 45
3 30 29 50
3 50 29 31
3 44 30 51
3 51 30 50
3 50 31 52
3 31 33 52
3 32 43 53
3 40 32 53
3 53 43 54
3 33 34 55
3 34 37 55
3 33 55 52
3 35 36 56
3 38 35 56
3 36 41 57
3 56 36 57
3 37 38 58
3 38 56 58
3 37 58 55
3 39 40 59
3 42 39 59
3 40 53 60
3 59 40 60
3 41 42 61
3 57 41 61
3 42 59 62
3 61 42 62
3 43 63 54
3 46 44 64
3 64 44 51
3 48 45 65
3 65 45 46
3 65 46 66
3 66 46 64
3 49 47 67
3 67 47 48
3 67 48 68
3 68 48 65
3 69 49 70
3 70 49 67
3 52 55 72
3 64 51 73
3 51 50 73
3 50 52 73
3 73 52 74
3 74 52 72
3 53 54 75
3 60 53 75
3 54 63 76
3 54 76 77
3 75 54 77
3 55 58 78
3 72 55 78
3 72 78 79
3 56 57 80
3 57 61 80
3 56 80 58
3 58 80 81
3 78 58 81
3 59 60 82
3 62 59 82
3 60 75 83
3 82 60 83
3 61 62 84
3 62 82 84
3 61 84 80
3 63 85 76
3 66 64 86
3 64 73 86
3 68 65 87
3 87 65 66
3 87 66 86
3 70 67 88
3 88 67 68
3 88 68 89
3 89 68 87
3 71 69 90
3 90 69 70
3 90 70 91
3 91 70 88
3 92 71 93
3 93 71 90
3 74 72 94
3 94 72 79
3 86 73 95
3 95 73 74
3 95 74 96
3 96 74 94
3 97 86 95
3 76 85 99
3 75 77 100
3 83 75 100
3 76 99 101
3 77 76 101
3 77 101 102
3 100 77 102
3 94 79 103
3 78 81 104
3 79 78 104
3 79 104 103
3 80 84 105
3 81 80 105
3 81 105 106
3 104 81 106
3 82 83 107
3 83 100 107
3 82 107 84
3 84 107 108
3 105 84 108
3 85 109 99
3 89 87 110
3 87 86 110
3 110 86 97
3 91 88 111
3 111 88 89
3 111 89 110
3 93 90 112
3 112 90 91
3 112 91 113
3 113 91 111
3 98 92 114
3 114 92 93
3 114 93 115
3 115 93 112
3 116 98 114
3 117 103 118
3 96 94 119
3 94 103 119
3 119 103 117
3 97 95 120
3 120 95 96
3 120 96 119
3 121 110 97
3 121 97 122
3 122 97 120
3 123 119 117
3 124 98 116
3 99 109 125
3 99 125 126
3 101 99 126
3 100 102 127
3 100 127 107
3 101 126 128
3 102 101 128
3 102 128 127
3 104 106 129
3 104 129 103
3 103 129 118
3 105 108 130
3 106 105 130
3 106 130 129
3 107 127 131
3 108 107 131
3 108 131 132
3 108 132 130
3 109 134 125
3 125 134 133
3 113 111 135
3 111 110 135
3 135 110 121
3 115 112 136
3 136 112 113
3 136 113 135
3 116 114 137
3 137 114 115
3 137 115 138
3 138 115 136
3 139 124 116
3 139 116 140
3 140 116 137
3 141 135 121
3 118 129 142
3 118 142 143
3 117 118 143
3 123 117 143
3 122 120 144
3 120 119 144
3 144 119 123
3 141 121 145
3 145 121 122
3 145 122 144
3 146 141 145
3 147 144 123
3 147 123 148
3 143 148 123
3 150 124 139
3 149 150 139
3 131 127 151
3 125 133 152
3 126 125 152
3 126 152 153
3 128 126 153
3 128 153 154
3 128 154 127
3 127 154 151
3 152 133 155
3 130 132 156
3 130 156 129
3 129 156 142
3 131 151 157
3 132 131 157
3 132 157 156
3 156 158 142
3 157 151 159
3 133 160 155
3 134 161 133
3 133 161 160
3 138 136 162
3 136 135 162
3 162 135 141
3 140 137 163
3 163 137 138
3 163 138 162
3 149 139 164
3 164 139 140
3 164 140 165
3 165 140 163
3 166 149 164
3 167 162 141
3 167 141 146
3 142 158 168
3 143 142 168
3 143 168 148
3 146 145 169
3 145 144 169
3 169 144 147
3 170 167 146
3 170 146 169
3 171 169 147
3 171 147 148
3 171 148 172
3 168 172 148
3 173 149 166
3 174 150 149
3 173 174 149
3 154 175 151
3 151 175 159
3 152 155 176
3 153 152 176
3 153 176 177
3 153 177 154
3 154 177 175
3 155 160 178
3 155 178 179
3 176 155 179
3 156 157 180
3 156 180 158
3 157 159 181
3 157 181 180
3 158 180 182
3 158 182 168
3 159 175 183
3 159 183 181
3 175 184 183
3 160 186 178
3 178 186 185
3 161 187 160
3 160 187 186
3 165 163 188
3 163 162 188
3 188 162 167
3 166 164 189
3 189 164 165
3 189 165 188
3 190 173 166
3 190 166 191
3 191 166 189
3 192 188 167
3 192 167 170
3 193 192 170
3 182 194 168
3 194 172 168
3 193 170 195
3 170 169 195
3 195 169 171
3 196 195 171
3 196 171 172
3 194 197 172
3 197 198 172
3 198 196 172
3 200 173 190
3 199 200 190
3 201 174 173
3 200 201 173
3 176 179 202
3 177 176 202
3 177 202 175
3 175 202 184
3 178 185 203
3 178 203 179
3 179 203 202
3 203 185 204
3 202 205 184
3 183 206 181
3 180 181 206
3 180 206 182
3 182 206 194
3 183 184 207
3 205 207 184
3 183 207 206
3 185 208 204
3 186 209 185
3 185 209 208
3 187 210 186
3 186 210 209
3 191 189 211
3 189 188 211
3 211 188 192
3 199 190 212
3 212 190 191
3 212 191 211
3 213 199 212
3 214 211 192
3 214 192 193
3 215 214 193
3 215 193 195
3 206 216 194
3 216 197 194
3 216 217 197
3 215 195 218
3 218 195 196
3 198 218 196
3 217 219 197
3 219 218 198
3 197 219 198
3 220 199 213
3 221 200 199
3 220 221 199
3 222 201 200
3 221 222 200
3 203 204 223
3 203 223 202
3 202 223 205
3 204 208 224
3 204 224 223
3 205 223 225
3 205 225 207
3 207 225 226
3 207 226 206
3 226 216 206
3 208 228 224
3 224 228 227
3 209 229 208
3 229 228 208
3 210 230 209
3 209 230 229
3 213 212 231
3 212 211 231
3 231 211 214
3 232 220 213
3 232 213 231
3 233 231 214
3 233 214 215
3 234 233 215
3 234 215 218
3 226 235 216
3 235 217 216
3 235 236 217
3 217 236 219
3 237 234 218
3 237 218 219
3 236 238 219
3 238 237 219
3 240 220 232
3 239 240 232
3 241 221 220
3 240 241 220
3 242 222 221
3 241 242 221
3 224 227 243
3 224 243 223
3 223 243 225
3 225 243 244
3 225 244 226
3 226 244 235
3 227 245 243
3 228 246 227
3 227 246 245
3 229 247 228
3 228 247 246
3 230 248 229
3 229 248 247
3 239 232 249
3 232 231 249
3 249 231 233
3 250 249 233
3 250 233 234
3 237 250 234
3 244 251 235
3 235 251 236
3 251 252 236
3 236 252 238
3 252 253 238
3 253 250 237
3 253 237 238
3 254 239 249
3 255 240 239
3 254 255 239
3 256 241 240
3 255 256 240
3 257 242 241
3 256 257 241
3 245 258 243
3 243 258 244
3 244 258 251
3 245 259 258
3 246 260 245
3 245 260 259
3 247 261 246
3 246 261 260
3 248 262 247
3 247 262 261
3 254 249 263
3 263 249 250
3 253 263 250
3 258 264 251
3 251 264 252
3 264 265 252
3 265 263 253
3 252 265 253
3 266 254 263
3 267 255 254
3 266 267 254
3 268 256 255
3 267 268 255
3 269 257 256
3 268 269 256
3 259 270 258
3 270 264 258
3 260 271 259
3 259 271 270
3 261 272 260
3 260 272 271
3 262 273 261
3 273 272 261
3 270 274 264
3 275 266 263
3 275 263 265
3 274 276 264
3 276 265 264
3 276 277 265
3 277 275 265
3 278 267 266
3 275 278 266
3 279 268 267
3 278 279 267
3 280 269 268
3 279 280 268
3 271 281 270
3 270 281 274
3 272 282 271
3 271 282 281
3 273 283 272
3 272 283 282
3 281 284 274
3 274 284 276
3 285 278 275
3 277 285 275
3 284 286 276
3 286 285 277
3 276 286 277
3 287 279 278
3 285 287 278
3 288 280 279
3 287 288 279
3 282 289 281
3 281 289 284
3 283 290 282
3 282 290 289
3 289 291 284
3 284 291 286
3 291 292 286
3 292 287 285
3 286 292 285
3 293 288 287
3 292 293 287
3 290 294 289
3 289 294 291
3 294 295 291
3 295 293 292
3 291 295 292
CELL_TYPES 542
5
5
5
5
5
5
5
5
5
5
5
5
5
5
5
5
5
5
5
5
5
5
5
5
5
5
5
5
5
5
5
5
5
5
5
5
5
5
5
5
5
5
5
5
5
5
5
5
5
5
5
5
5
5
5
5
5
5
5
5
5
5
5
5
5
5
5
5
5
5
5
5
5
5
5
5
5
5
5
5
5
5
5
5
5
5
5
5
5
5
5
5
5
5
5
5
5
5
5
5
5
5
5
5
5
5
5
5
5
5
5
5
5
5
5
5
5
5
5
5
5
5
5
5
5
5
5
5
5
5
5
5
5
5
5
5
5
5
5
5
5
5
5
5
5
5
5
5
5
5
5
5
5
5
5
5
5
5
5
5
5
5
5
5
5
5
5
5
5
5
5
5
5
5
5
5
5
5
5
5
5
5
5
5
5
5
5
5
5
5
5
5
5
5
5
5
5
5
5
5
5
5
5
5
5
5
5
5
5
5
5
5
5
5
5
5
5
5
5
5
5
5
5
5
5
5
5
5
5
5
5
5
5
5
5
5
5
5
5
5
5
5
5
5
5
5
5
5
5
5
5
5
5
5
5
5
5
5
5
5
5
5
5
5
5
5
5
5
5
5
5
5
5
5
5
5
5
5
5
5
5
5
5
5
5
5
5
5
5
5
5
5
5
5
5
5
5
5
5
5
5
5
5
5
5
5
5
5
5
5
5
5
5
5
5
5
5
5
5
5
5
5
5
5
5
5
5
5
5
5
5
5
5
5
5
5
5
5
5
5
5
5
5
5
5
5
5
5
5
5
5
5
5
5
5
5
5
5
5
5
5
5
5
5
5
5
5
5
5
5
5
5
5
5
5
5
5
5
5
5
5
5
5
5
5
5
5
5
5
5
5
5
5
5
5
5
5
5
5
5
5
5
5
5
5
5
5
5
5
5
5
5
5
5
5
5
5
5
5
5
5
5
5
5
5
5
5
5
5
5
5
5
5
5
5
5
5
5
5
5
5
5
5
5
5
5
5
5
5
5
5
5
5
5
5
5
5
5
5
5
5
5
5
5
5
5
5
5
5
5
5
5
5
5
5
5
5
5
5
5
5
5
5
5
5
5
5
5
5
5
5
5
5
5
5
5
5
5
5
5
5
5
5
5
5
5
5
5
5
5
5
5
5
5
5
5
5
5
5
5
5
5
5
5
5
5
5
5
5
5
5
5
5
5
5
5
5
5
5
5
5
5
POINT_DATA 296
SCALARS concentrations float 4
LOOKUP_TABLE default
0 0.981403 0.173179 11.469
0 0.981139 0.172835 11.5863
0 0.981747 0.167422 9.93442
0 0.981414 0.171901 11.2839
0 0.981909 0.0938833 0.842189
0 0.981066 0.172315 11.5183
0 0.981045 0.171853 11.486
0 0.981665 0.0939262 0.530508
0 0.981568 0.0939658 0.523589
0 0.981009 0.171785 11.4044
0 0.98099 0.1699 11.6247
0 0.981176 0.168886 11.4995
0 0.981071 0.171351 11.333
0 0.981919 0.0939115 0.844632
0 0.981686 0.0939352 0.484232
0 0.982613 0.0938844 0.62288
0 0.982575 0.093879 0.597563
0 0.981564 0.0939347 0.527782
0 0.98154 0.0939495 0.522055
0 0.982588 0.093954 0.51388
0 0.982578 0.0939734 0.520462
0 0.980987 0.172972 11.5521
0 0.981018 0.173666 11.6987
0 0.981536 0.0939992 0.484905
0 0.981519 0.0940217 0.487999
0 0.981644 0.0939514 0.470096
0 0.980896 0.170978 11.5524
0 0.981585 0.0939475 0.514871
0 0.980622 0.165295 11.3191
0 0.982576 0.0939453 0.589227
0 0.982622 0.0939277 0.500462
0 0.983472 0.0935448 0.447525
0 0.981053 0.171763 11.4572
0 0.983637 0.0933826 0.414171
0 0.983491 0.0935946 0.456603
0 0.982574 0.0939892 0.530238
0 0.98255 0.0940129 0.519599
0 0.983679 0.0934759 0.433112
0 0.9835 0.0937066 0.480753
0 0.981542 0.0940343 0.541581
0 0.981536 0.0940776 0.562086
0 0.98256 0.0940211 0.515663
0 0.982536 0.0940303 0.523715
0 0.98109 0.170518 11.4265
0 0.98268 0.0940406 0.528865
0 0.981408 0.0940571 0.312756
0 0.982722 0.0941227 0.492629
0 0.980929 0.170939 11.5401
0 0.981414 0.0940207 0.317472
0 0.981145 0.170695 11.2962
0 0.98364 0.0934548 0.424913
0 0.983546 0.0936602 0.471001
0 0.984358 0.0926589 0.281397
0 0.981583 0.0940416 0.542956
0 0.981582 0.0939696 0.527475
0 0.984374 0.0926827 0.295683
0 0.98365 0.0935619 0.45473
0 0.983474 0.093724 0.480126
0 0.984358 0.0927578 0.324625
0 0.98258 0.094029 0.548041
0 0.982607 0.0940233 0.54588
0 0.983637 0.0936129 0.466029
0 0.983472 0.0937687 0.495219
0 0.981142 0.17025 11.2783
0 0.983789 0.0934941 0.466008
0 0.982693 0.0940698 0.485897
0 0.983671 0.0937026 0.50991
0 0.981645 0.093848 0.510109
0 0.982736 0.0939896 0.484365
0 0.981207 0.170453 11.2971
0 0.981687 0.093817 0.51149
0 0.981215 0.170346 11.3181
0 0.984922 0.0923565 0.25119
0 0.984384 0.092686 0.312618
0 0.984935 0.092356 0.251544
0 0.982629 0.0940119 0.53695
0 0.98165 0.0938654 0.514962
0 0.982614 0.0939902 0.528941
0 0.984923 0.0923706 0.259303
0 0.98539 0.0922199 0.23551
0 0.984338 0.0927906 0.334139
0 0.984898 0.0924206 0.274813
0 0.983663 0.093494 0.458301
0 0.98351 0.0935986 0.474503
0 0.984353 0.0928061 0.342737
0 0.981246 0.170864 11.3499
0 0.98441 0.0926562 0.335429
0 0.983802 0.0934982 0.484594
0 0.982697 0.0939666 0.547077
0 0.983632 0.093666 0.505401
0 0.981701 0.093814 0.513294
0 0.982667 0.0939501 0.547034
0 0.981172 0.170574 11.2872
0 0.981708 0.0938024 0.508687
0 0.985474 0.0921243 0.215253
0 0.98492 0.0923633 0.258619
0 0.985421 0.0921874 0.223525
0 0.984937 0.0923329 0.252817
0 0.980979 0.171015 11.5514
0 0.98175 0.0937848 0.50841
0 0.983667 0.0935433 0.460303
0 0.982615 0.0938105 0.494405
0 0.983504 0.0936636 0.46673
0 0.985775 0.0918409 0.168136
0 0.985451 0.0921564 0.227655
0 0.98491 0.0924414 0.28524
0 0.985385 0.0922656 0.252385
0 0.984379 0.092812 0.348295
0 0.98493 0.0924134 0.283311
0 0.981503 0.170615 11.163
0 0.98441 0.0926537 0.325701
0 0.983733 0.0935042 0.475191
0 0.982667 0.0939411 0.545563
0 0.983544 0.0937056 0.503639
0 0.981681 0.0938337 0.50799
0 0.982731 0.09394 0.543562
0 0.981477 0.0939731 0.304637
0 0.986044 0.0916624 0.136404
0 0.986042 0.091657 0.136103
0 0.985806 0.0917941 0.15653
0 0.985498 0.0921157 0.208914
0 0.98493 0.0923173 0.243449
0 0.985438 0.092199 0.219663
0 0.986117 0.0915368 0.116591
0 0.980705 0.16468 11.2174
0 0.981994 0.0937143 0.773671
0 0.98267 0.0936514 0.533573
0 0.984385 0.0929241 0.351768
0 0.983623 0.0935318 0.438489
0 0.985789 0.0918482 0.17325
0 0.985468 0.0921689 0.237915
0 0.984992 0.0924117 0.278164
0 0.98543 0.0921551 0.23537
0 0.981983 0.0937138 0.799845
0 0.981815 0.165671 9.77474
0 0.984398 0.0926543 0.311696
0 0.983744 0.0935183 0.479011
0 0.982764 0.0939803 0.480338
0 0.983656 0.0936732 0.508095
0 0.981488 0.0939733 0.307728
0 0.982748 0.0939632 0.470162
0 0.984955 0.0923105 0.242271
0 0.986108 0.0915498 0.11715
0 0.986232 0.0913238 0.0784631
0 0.98585 0.0917683 0.150225
0 0.985531 0.0921056 0.201476
0 0.985464 0.0922032 0.217936
0 0.986122 0.0914923 0.109268
0 0.986271 0.0911191 0.0487967
0 0.981675 0.0938245 0.499896
0 0.980984 0.1713 11.574
0 0.984991 0.0924348 0.270647
0 0.98269 0.0936392 0.548924
0 0.98356 0.0935726 0.44268
0 0.984467 0.0929164 0.330002
0 0.982617 0.0937926 0.577392
0 0.985821 0.0918319 0.171984
0 0.985535 0.0921135 0.222118
0 0.986117 0.0915601 0.119696
0 0.985374 0.0924071 0.269293
0 0.981741 0.0937843 0.514318
0 0.981505 0.170711 11.1761
0 0.984432 0.0926437 0.325596
0 0.983829 0.0934882 0.483278
0 0.982756 0.0939726 0.477891
0 0.983679 0.093663 0.502973
0 0.982729 0.0939599 0.537207
0 0.984944 0.0923297 0.248756
0 0.986264 0.0911178 0.0378908
0 0.985874 0.0917446 0.145199
0 0.98553 0.092147 0.209983
0 0.986149 0.0914227 0.0970337
0 0.986245 0.0911562 0.0460055
0 0.981728 0.093784 0.495631
0 0.981179 0.170388 11.2492
0 0.98493 0.0925103 0.275983
0 0.9836 0.0934323 0.420448
0 0.984336 0.0930027 0.334395
0 0.982625 0.0939429 0.521511
0 0.98353 0.0934879 0.440123
0 0.98592 0.0917472 0.155118
0 0.985745 0.0919795 0.198309
0 0.98613 0.091523 0.113363
0 0.985509 0.0922502 0.246024
0 0.985074 0.0926 0.302355
0 0.982633 0.0939636 0.528924
0 0.981645 0.0937902 0.507599
0 0.981258 0.169674 11.2163
0 0.984431 0.0926445 0.328383
0 0.983802 0.0934544 0.468648
0 0.982684 0.0939302 0.532454
0 0.983618 0.0936202 0.48589
0 0.984948 0.0923712 0.253291
0 0.985457 0.0922518 0.229699
0 0.986156 0.0914113 0.0926195
0 0.985863 0.0917763 0.152431
0 0.986106 0.0915325 0.113792
0 0.986091 0.0915554 0.117746
0 0.986085 0.0915856 0.121993
0 0.982684 0.0939341 0.532557
0 0.98172 0.0937685 0.502497
0 0.981232 0.170601 11.2927
0 0.984396 0.0928031 0.320445
0 0.983706 0.0934696 0.438607
0 0.983546 0.0937383 0.494025
0 0.984886 0.092608 0.308714
0 0.985854 0.0917595 0.160712
0 0.985446 0.0922498 0.252502
0 0.982646 0.0939593 0.530939
0 0.981666 0.0938523 0.511011
0 0.981193 0.169397 11.2227
0 0.984403 0.092628 0.306081
0 0.983747 0.0934468 0.448012
0 0.983595 0.0937521 0.49873
0 0.98494 0.0923707 0.253862
0 0.985513 0.0921828 0.223572
0 0.985896 0.0918167 0.170302
0 0.985824 0.0919975 0.199897
0 0.985824 0.091858 0.170848
0 0.985812 0.0919354 0.185508
0 0.982657 0.093964 0.535446
0 0.981713 0.0937006 0.494496
0 0.981245 0.169543 11.1854
0 0.984374 0.0928422 0.34956
0 0.983736 0.0934743 0.455668
0 0.98498 0.0924482 0.289389
0 0.985534 0.0920936 0.22563
0 0.983619 0.0936167 0.477964
0 0.982668 0.0940146 0.541016
0 0.981672 0.0938743 0.512695
0 0.981184 0.170214 11.3884
0 0.984424 0.0926399 0.304406
0 0.983771 0.0935363 0.459651
0 0.984949 0.0923519 0.256126
0 0.985429 0.0922813 0.245402
0 0.985478 0.0921804 0.237418
0 0.98545 0.0922462 0.243676
0 0.985479 0.092233 0.23804
0 0.985393 0.0923192 0.253534
0 0.983623 0.0936836 0.483637
0 0.982686 0.0939621 0.530645
0 0.981713 0.0936923 0.488767
0 0.981246 0.168688 11.1048
0 0.984414 0.0927004 0.330719
0 0.985006 0.0923234 0.26681
0 0.983758 0.0934749 0.454913
0 0.982685 0.094019 0.54423
0 0.98169 0.0938719 0.513578
0 0.981193 0.170338 11.3976
0 0.984423 0.0926518 0.309041
0 0.984935 0.0923786 0.263481
0 0.984987 0.092285 0.253355
0 0.984931 0.0923319 0.256372
0 0.984928 0.0923595 0.259954
0 0.983754 0.0934776 0.448327
0 0.982681 0.0939266 0.522811
0 0.981721 0.09375 0.494675
0 0.981239 0.169788 11.2185
0 0.984445 0.0927115 0.326689
0 0.983597 0.0936517 0.482471
0 0.982688 0.0939153 0.527385
0 0.981692 0.0938077 0.511153
0 0.98121 0.170163 11.2535
0 0.984411 0.0926828 0.314415
0 0.984425 0.0926672 0.313924
0 0.984411 0.0926635 0.31203
0 0.983592 0.0936549 0.478323
0 0.982694 0.0938945 0.517466
0 0.981719 0.093755 0.495165
0 0.981235 0.170389 11.2855
0 0.983759 0.0934894 0.452839
0 0.982704 0.0938789 0.51736
0 0.98172 0.0937755 0.502988
0 0.981225 0.169675 11.1944
0 0.983604 0.0936758 0.482779
0 0.983741 0.0934927 0.452004
0 0.983754 0.0934987 0.453493
0 0.983593 0.0936785 0.484268
0 0.98268 0.0939479 0.528452
0 0.981718 0.0937306 0.491792
0 0.981239 0.169859 11.2238
0 0.982681 0.0939285 0.523672
0 0.981714 0.0937666 0.496682
0 0.981231 0.170198 11.2561
0 0.982685 0.0939455 0.52693
0 0.98269 0.0939501 0.53014
0 0.982668 0.0939434 0.528799
0 0.981695 0.0937221 0.492834
0 0.981245 0.167794 11.0262
0 0.981717 0.0937716 0.497506
0 0.981232 0.170187 11.2534
0 0.981709 0.0937569 0.496674
0 0.981714 0.0937426 0.496504
0 0.981241 0.16887 11.1099
0 0.981233 0.17021 11.258
0 0.981238 0.169273 11.1964
VECTORS fa_u float
0.0106108 0.00435297 0
0.0100595 0.00574885 0
0.00960164 0.00254972 0
0.0111796 0.00153055 0
0.000834258 0.000115308 0
0.00915551 0.00698916 0
0.00812542 0.00811816 0
0.000492655 0.0001968 0
0.000427436 0.000302396 0
0.00693734 0.00905176 0
0.00581181 0.0100676 0
0.0114995 2.52937e-05 0
0.0112353 -0.00148511 0
0.000770629 0.000345735 0
0.000480537 5.97093e-05 0
0.000595462 0.000182769 0
0.000562065 0.000202891 0
0.00039091 0.000354603 0
0.000349685 0.000387636 0
0.000434317 0.000274667 0
0.000397846 0.000335559 0
0.00443724 0.0106659 0
0.00303086 0.0112992 0
0.000266508 0.0004051 0
0.000223378 0.000433872 0
0.000465481 -6.57035e-05 0
0.011179 -0.00291336 0
0.000502744 -0.000111084 0
0.0104568 -0.00433339 0
0.000578327 0.00011281 0
0.000499436 -3.20283e-05 0
0.000437535 9.40297e-05 0
0.0014931 0.0113595 0
0.000383471 0.000156484 0
0.000402456 0.000215674 0
0.000369282 0.000380504 0
0.000322549 0.000407363 0
0.000343144 0.00026427 0
0.000351339 0.000328153 0
0.000175746 0.000512273 0
0.000126325 0.000547707 0
0.000250888 0.000450515 0
0.000198269 0.000484734 0
-4.09329e-06 0.0114265 0
0.000512096 -0.000132118 0
0.000304508 7.13537e-05 0
0.000477114 -0.000122661 0
0.00996004 -0.00582844 0
0.000161948 -0.000273059 0
0.00894348 -0.00690052 0
0.000424909 1.76538e-06 0
0.000464949 -7.52559e-05 0
0.000277024 4.94195e-05 0
5.94589e-05 0.000539691 0
-6.43033e-06 0.000527435 0
0.0002622 0.000136673 0
0.000296928 0.000344403 0
0.000263104 0.000401619 0
0.000239627 0.000218999 0
0.000150956 0.00052684 0
9.27283e-05 0.000537946 0
0.000203821 0.000419094 0
0.000161579 0.000468117 0
-0.00149247 0.0111791 0
0.000448676 -0.000125908 0
0.000444543 -0.000196157 0
0.000476316 -0.00018202 0
0.000416918 -0.000293924 0
0.000416293 -0.000247609 0
0.0079908 -0.00798573 0
0.000401138 -0.000317349 0
0.0068996 -0.00897195 0
0.00023964 7.52937e-05 0
0.000310145 -3.92399e-05 0
0.000251264 1.18532e-05 0
1.5404e-05 0.000536729 0
-7.33045e-05 0.000509717 0
-3.37761e-05 0.000527862 0
0.000216617 0.000142532 0
0.000214919 9.63061e-05 0
0.000188754 0.000275718 0
0.000186417 0.000201918 0
0.000101345 0.000446955 0
4.66659e-05 0.000472202 0
0.000122643 0.000320043 0
-0.00298808 0.0109495 0
0.000315502 -0.000113891 0
0.000439951 -0.000203161 0
0.000452676 -0.000307209 0
0.000438917 -0.000250563 0
0.000336597 -0.000387521 0
0.000401588 -0.000371448 0
0.00568178 -0.00975284 0
0.00026083 -0.000436727 0
0.000211418 4.04485e-05 0
0.000251903 -5.85521e-05 0
0.000222896 -1.6751e-05 0
0.000226742 -0.000111824 0
0.00449538 -0.0106408 0
-0.000192447 0.00047058 0
3.55364e-07 0.000460303 0
-0.000110178 0.000481972 0
-6.05788e-05 0.000462782 0
0.000155371 6.4263e-05 0
0.00017589 0.000144532 0
0.000138664 0.000249267 0
0.000150733 0.00020243 0
5.29567e-05 0.000344246 0
8.44928e-05 0.000270419 0
-0.00432993 0.010289 0
0.000276546 -0.000172056 0
0.000376805 -0.000289524 0
0.00031172 -0.000447739 0
0.000328456 -0.000381796 0
0.000239587 -0.000447942 0
0.000247701 -0.000483843 0
0.000244892 -0.000181194 0
0.00013478 2.0986e-05 0
0.000114367 7.37846e-05 0
0.000156091 -1.17174e-05 0
0.000197692 -6.75484e-05 0
0.000181714 -0.00016201 0
0.000181798 -0.000123294 0
0.000112001 -3.23921e-05 0
0.00291508 -0.010832 0
-0.00048067 0.000606237 0
-0.000225361 0.000483645 0
-2.61366e-05 0.000350796 0
-0.000120888 0.000421496 0
0.000109283 0.000134435 0
9.28002e-05 0.00021907 0
1.71881e-05 0.000277632 0
4.30034e-05 0.000231409 0
-0.000303037 0.000740217 0
-0.00491441 0.0084495 0
0.000201653 -0.000237678 0
0.000241132 -0.000413893 0
0.000197282 -0.000437955 0
0.000200999 -0.000466648 0
-0.00012237 -0.000282352 0
0.000125692 -0.000453049 0
0.000126511 -0.000206616 0
5.88134e-05 0.000101317 0
7.33987e-05 2.77324e-05 0
0.000126159 -8.15562e-05 0
0.00013247 -0.000151803 0
8.95832e-05 -0.000198673 0
7.46292e-05 -7.98118e-05 0
3.60955e-05 -3.28365e-05 0
1.49325e-05 -0.000499673 0
0.00146029 -0.0114815 0
-5.54562e-05 0.000264905 0
-0.000277416 0.000473664 0
-0.000181672 0.000403684 0
-9.89553e-05 0.000314816 0
-0.000322521 0.000478916 0
3.76748e-05 0.000167807 0
-1.91297e-05 0.000221293 0
3.58597e-06 0.000119643 0
-9.26662e-05 0.000252847 0
-0.000313042 0.000408077 0
-0.00677162 0.00889102 0
0.000128234 -0.00029928 0
0.00014683 -0.000460433 0
4.64676e-05 -0.000475627 0
0.000111962 -0.000490354 0
2.53782e-05 -0.000536607 0
6.77405e-05 -0.000239355 0
-3.41616e-06 3.77365e-05 0
6.32957e-05 -0.000130677 0
3.70399e-05 -0.00020669 0
1.81799e-05 -9.53154e-05 0
-3.28946e-05 -3.2163e-05 0
-1.50315e-05 -0.000495403 0
-2.78558e-05 -0.0112491 0
-0.000143393 0.000235807 0
-0.000239052 0.000345877 0
-0.000180949 0.000281208 0
-0.000389345 0.000346963 0
-0.000305316 0.000317002 0
-3.52261e-05 0.000151065 0
-8.16344e-05 0.000180727 0
-6.01213e-05 9.61068e-05 0
-0.000148094 0.000196458 0
-0.00020566 0.000221636 0
-0.000425989 0.000313519 0
-0.000385943 0.000329704 0
-0.00786024 0.00800142 0
6.19155e-05 -0.000322493 0
5.80548e-05 -0.000465038 0
-6.33127e-05 -0.000528676 0
-1.73531e-05 -0.00048558 0
5.44462e-06 -0.000253232 0
-2.85071e-05 -0.000227923 0
-8.29597e-05 4.11833e-05 0
-1.40308e-05 -0.000151784 0
-3.93008e-05 -0.000106789 0
-0.000116383 -1.78683e-05 0
-9.21054e-05 -7.99929e-05 0
-0.000152193 -0.000510347 0
-9.84009e-05 -0.000492768 0
-0.00146374 -0.0111975 0
-0.000230854 0.000222241 0
-0.0003486 0.000266186 0
-0.000410991 0.00027413 0
-0.000244801 0.000188087 0
-0.000121788 0.000104862 0
-0.000203104 0.00015002 0
-0.000457761 0.00026898 0
-0.000421448 0.000288987 0
-0.00888206 0.00685996 0
-2.72585e-05 -0.000304864 0
-9.51569e-05 -0.000437789 0
-0.000183549 -0.000463726 0
-6.99681e-05 -0.00024403 0
-8.40433e-05 -0.000207174 0
-0.000162453 5.11058e-05 0
-0.000199515 -1.23524e-05 0
-9.77102e-05 -0.000140149 0
-0.000164788 -8.51947e-05 0
-0.000224368 -0.00048617 0
-0.000175709 -0.000462226 0
-0.00287822 -0.0108087 0
-0.000293449 0.000189948 0
-0.000403309 0.000212073 0
-0.000258691 0.000129712 0
-0.000210013 8.24843e-05 0
-0.000450005 0.000161074 0
-0.000494414 0.000219666 0
-0.000457259 0.000231883 0
-0.00987482 0.00567309 0
-0.000115728 -0.000281549 0
-0.000213546 -0.000407035 0
-0.000128248 -0.000221705 0
-0.000144597 -0.000198277 0
-0.000235759 2.80233e-05 0
-0.000240237 -4.07907e-05 0
-0.00018308 -0.000152134 0
-0.00023185 -0.000102591 0
-0.000279022 -0.000395033 0
-0.000264122 -0.000460243 0
-0.000222723 -0.000435072 0
-0.00426195 -0.0102544 0
-0.000307982 0.000120508 0
-0.000257777 6.88357e-05 0
-0.000445433 9.23849e-05 0
-0.000526836 0.000136493 0
-0.000486328 0.000165068 0
-0.0105416 0.00433355 0
-0.000185376 -0.00024727 0
-0.00018348 -0.000189096 0
-0.000253351 -1.46215e-06 0
-0.000245979 -7.22557e-05 0
-0.000220744 -0.000137288 0
-0.000302181 -0.000331185 0
-0.000325689 -0.000408972 0
-0.000279447 -0.000408182 0
-0.00563061 -0.00970317 0
-0.000323826 4.31555e-05 0
-0.000480255 4.61901e-05 0
-0.000521052 8.14843e-05 0
-0.000500266 0.000104932 0
-0.0108782 0.00288189 0
-0.000242032 -0.000200691 0
-0.000310344 -4.72724e-05 0
-0.000282999 -0.00013143 0
-0.000362861 -0.000311649 0
-0.000366413 -0.000365394 0
-0.000329725 -0.000369418 0
-0.00688095 -0.00894514 0
-0.000452655 -1.28939e-05 0
-0.000517221 1.20001e-05 0
-0.000500768 4.72049e-05 0
-0.0111002 0.00144988 0
-0.00047608 -8.01456e-05 0
-0.000376321 -0.000250381 0
-0.000430848 -0.000141513 0
-0.000434846 -0.00021313 0
-0.000424307 -0.000315 0