# vtk DataFile Version 2.0
CellBP Time: 1.48
ASCII
DATASET UNSTRUCTURED_GRID
POINTS 296 double
-9.12227 -3.74945 0
-8.5472 -4.91378 0
-9.53864 -2.51948 0
-9.79129 -1.24526 0
-8.35181 -2.81654 0
-7.82674 -5.99427 0
-6.97018 -6.97033 0
-7.91176 -3.87194 0
-7.33759 -4.8644 0
-5.99353 -7.82615 0
-4.91517 -8.54999 0
-9.8925 0.0499541 0
-9.79147 1.34524 0
-8.65185 -1.68235 0
-8.78188 -0.528286 0
-7.584 -2.0023 0
-7.2202 -2.9041 0
-6.63311 -5.77495 0
-5.81838 -6.59249 0
-6.78509 -3.88577 0
-6.21584 -4.6722 0
-3.74887 -9.12143 0
-2.51959 -9.53977 0
-4.9031 -7.30419 0
-3.91052 -7.88107 0
-8.78835 0.642039 0
-9.53931 2.61964 0
-8.61762 1.77254 0
-9.12362 3.84997 0
-7.73893 -0.928039 0
-7.78934 0.0802805 0
-6.94779 -1.31482 0
-1.24585 -9.7931 0
-6.43704 -2.15146 0
-6.31472 -3.0538 0
-5.53232 -5.47034 0
-4.79223 -6.11091 0
-5.65504 -3.7542 0
-5.26544 -4.55806 0
-2.86414 -8.35816 0
-1.77727 -8.63417 0
-3.92522 -6.71853 0
-3.05427 -7.14725 0
0.0499653 -9.87847 0
-7.7002 1.14245 0
-8.33307 2.91341 0
-7.5462 2.11028 0
-8.54858 5.01446 0
-7.87491 3.9756 0
-7.82664 6.09407 0
-6.77421 -0.396608 0
-6.95179 0.552228 0
-5.76833 -1.00283 0
-0.590435 -8.80345 0
0.565571 -8.76475 0
-5.30019 -2.47887 0
-4.48871 -5.09203 0
-3.89958 -5.77103 0
-4.43636 -3.80254 0
-2.06073 -7.5562 0
-1.13456 -7.77983 0
-2.99226 -6.09767 0
-2.30717 -6.61486 0
1.34586 -9.79382 0
-6.68503 1.42112 0
-7.16678 3.11568 0
-6.65451 2.37123 0
-7.29005 4.98541 0
-6.71308 4.00011 0
-6.97068 7.07082 0
-6.5683 5.89038 0
-5.99425 7.92712 0
-4.45065 -1.18032 0
-5.81152 0.51348 0
-4.65361 -0.0102674 0
0.00850778 -7.84206 0
1.73774 -8.63814 0
0.948385 -7.75748 0
-4.0363 -2.40499 0
-3.48342 -1.39026 0
-3.2925 -4.80259 0
-3.26398 -3.26583 0
-1.37749 -6.67084 0
-0.508353 -7.01996 0
-1.97426 -5.53388 0
2.61953 -9.5399 0
-5.50444 2.03584 0
-6.09056 3.07003 0
-6.10057 4.86603 0
-5.75756 3.98865 0
-5.75769 6.71295 0
-5.44809 5.61527 0
-4.91418 8.64828 0
-4.83543 7.40001 0
-3.49939 -0.423908 0
-4.44681 1.24844 0
-3.70923 0.591884 0
-4.05994 2.31864 0
-3.74932 9.22251 0
2.86104 -8.32759 0
0.419494 -6.79065 0
2.02071 -7.52052 0
1.30518 -6.90062 0
-2.44313 -0.873168 0
-2.83665 -2.12974 0
-2.29301 -4.09503 0
-2.32415 -2.9717 0
-0.44192 -5.85786 0
-1.22191 -4.49661 0
3.84967 -9.12364 0
-4.78728 3.39003 0
-5.08443 4.59103 0
-4.64377 6.27693 0
-4.53556 5.35587 0
-3.84134 7.98853 0
-3.8239 6.84091 0
-2.78156 8.41777 0
-1.64768 -0.137655 0
-1.4491 -0.889836 0
-2.48754 0.507158 0
-3.25162 1.44345 0
-3.23722 3.31486 0
-2.90911 2.37046 0
-1.35396 0.626815 0
-2.51958 9.64003 0
3.93053 -7.88215 0
2.96277 -7.1529 0
0.95369 -5.81855 0
2.07293 -6.41103 0
-1.68188 -1.99077 0
-1.43352 -3.27574 0
0.0903582 -4.7444 0
-0.565757 -3.69227 0
4.92945 -7.31427 0
5.01374 -8.54798 0
-3.775 4.54929 0
-3.73219 5.74827 0
-2.88588 7.28478 0
-3.00753 6.34934 0
-1.66152 8.72847 0
-1.93867 7.61411 0
-2.33709 4.04959 0
-0.730113 -1.32624 0
-0.836142 -0.257316 0
-1.93491 1.67995 0
-2.12438 2.87423 0
-1.30563 3.5426 0
-0.868702 1.35004 0
-0.282002 0.455741 0
-0.533169 8.86649 0
-1.24592 9.8939 0
1.11228 -4.57206 0
3.90786 -6.71278 0
2.9861 -6.09037 0
2.11685 -5.42168 0
4.78165 -6.20102 0
-0.558452 -2.47522 0
0.494993 -3.46175 0
0.053653 -1.60932 0
1.48114 -3.67973 0
5.86423 -6.61062 0
6.09333 -7.82622 0
-2.47446 5.34579 0
-2.12901 6.53024 0
-0.903391 7.79797 0
-1.27141 6.92739 0
0.0862367 7.87499 0
-1.14377 4.49235 0
0.15032 -0.617271 0
-0.79677 2.48716 0
-0.33123 3.5986 0
0.0632873 1.51178 0
0.741129 0.473104 0
0.646444 8.86923 0
0.0500077 9.9793 0
2.37981 -4.28292 0
3.85711 -5.63666 0
2.99979 -5.20971 0
5.57067 -5.48826 0
4.68859 -5.27976 0
0.629433 -2.29193 0
1.25554 -2.94956 0
0.756983 -1.39054 0
2.16313 -3.134 0
2.9921 -3.47448 0
6.15181 -4.78884 0
6.65351 -5.76611 0
7.07048 -6.97017 0
-1.01913 5.81753 0
-0.372275 6.87934 0
1.1219 7.76443 0
0.557667 7.07526 0
-0.000653405 4.72273 0
0.606812 3.82554 0
1.33818 -0.641534 0
0.539 2.64954 0
0.965722 1.57389 0
1.90915 0.213659 0
1.61392 1.06425 0
2.12804 7.5787 0
1.79828 8.70777 0
1.34593 9.89339 0
3.82103 -4.34936 0
5.11394 -4.44643 0
5.84254 -3.93274 0
3.78211 -3.19937 0
1.81126 -1.88171 0
3.01754 -2.57263 0
6.77965 -3.94583 0
7.37843 -4.89541 0
7.93597 -6.00102 0
0.483153 5.87886 0
1.4274 6.73793 0
2.37284 6.66479 0
1.20947 4.5539 0
1.48749 3.39566 0
2.43442 -0.691622 0
2.82634 0.142421 0
1.78804 2.16154 0
2.61047 1.14934 0
3.07012 7.16558 0
2.90278 8.37276 0
2.62011 9.64146 0
4.90922 -3.32635 0
6.11763 -3.10712 0
4.17093 -2.27431 0
3.24277 -1.50232 0
6.72776 -2.31193 0
7.22791 -3.04085 0
7.9612 -3.91064 0
8.65215 -4.91675 0
2.02281 5.59744 0
3.08486 6.15003 0
2.36296 4.12497 0
2.4189 3.0591 0
3.52378 -0.460737 0
3.61374 0.612863 0
2.96032 2.28674 0
3.54369 1.52435 0
4.01001 5.89483 0
3.98245 6.78928 0
3.97171 7.93532 0
3.85019 9.22458 0
5.56679 -1.91546 0
4.50738 -1.12924 0
6.71069 -1.33567 0
7.58842 -2.03554 0
8.39365 -2.86035 0
9.22827 -3.75184 0
3.41787 4.87518 0
3.33765 3.38386 0
4.68948 0.129937 0
4.5174 1.30935 0
4.06373 2.44272 0
4.5685 5.1501 0
4.84137 6.18774 0
4.97861 7.37762 0
5.01426 8.64852 0
5.88147 -0.434768 0
7.00764 -0.488119 0
7.75593 -1.08489 0
8.68159 -1.74533 0
9.63919 -2.51947 0
4.551 3.82629 0
5.81599 1.09824 0
5.36968 2.53413 0
5.37789 4.61861 0
5.60988 5.52113 0
5.8953 6.66967 0
6.09396 7.9267 0
6.84346 0.463367 0
7.85016 -0.0257374 0
8.85753 -0.584146 0
9.89492 -1.2459 0
6.95781 1.34895 0
5.71908 3.77701 0
6.5392 2.1967 0
6.37793 3.08677 0
6.29009 4.68512 0
6.69122 5.83619 0
7.07051 7.07046 0
7.7814 0.96726 0
8.85688 0.572583 0
9.97879 0.050023 0
7.61352 2.00356 0
6.82691 3.90274 0
7.26708 2.94576 0
7.37651 4.88442 0
7.9284 6.09541 0
8.72059 1.72656 0
9.89306 1.34592 0
8.41893 2.83729 0
7.97992 3.91516 0
8.64826 5.01406 0
9.64094 2.62024 0
9.22993 3.85253 0
CELLS 542 2168
3 2 0 4
3 0 1 7
3 4 0 7
3 1 5 8
3 7 1 8
3 3 2 13
3 13 2 4
3 11 3 14
3 14 3 13
3 13 4 15
3 4 7 16
3 15 4 16
3 5 6 17
3 8 5 17
3 6 9 18
3 17 6 18
3 7 8 19
3 16 7 19
3 8 17 20
3 19 8 20
3 9 10 23
3 18 9 23
3 10 21 24
3 23 10 24
3 12 11 25
3 25 11 14
3 26 12 27
3 27 12 25
3 14 13 29
3 29 13 15
3 25 14 30
3 30 14 29
3 29 15 31
3 15 16 33
3 31 15 33
3 16 19 34
3 33 16 34
3 17 18 35
3 20 17 35
3 18 23 36
3 35 18 36
3 19 20 37
3 34 19 37
3 20 35 38
3 37 20 38
3 21 22 39
3 24 21 39
3 22 32 40
3 39 22 40
3 23 24 41
3 36 23 41
3 24 39 42
3 41 24 42
3 27 25 44
3 44 25 30
3 28 26 45
3 45 26 27
3 45 27 46
3 46 27 44
3 47 28 48
3 48 28 45
3 30 29 50
3 50 29 31
3 44 30 51
3 51 30 50
3 50 31 52
3 31 33 52
3 32 43 53
3 40 32 53
3 53 43 54
3 33 34 55
3 34 37 55
3 33 55 52
3 35 36 56
3 38 35 56
3 36 41 57
3 56 36 57
3 37 38 58
3 38 56 58
3 37 58 55
3 39 40 59
3 42 39 59
3 40 53 60
3 59 40 60
3 41 42 61
3 57 41 61
3 42 59 62
3 61 42 62
3 43 63 54
3 46 44 64
3 64 44 51
3 48 45 65
3 65 45 46
3 65 46 66
3 66 46 64
3 49 47 67
3 67 47 48
3 67 48 68
3 68 48 65
3 69 49 70
3 70 49 67
3 52 55 72
3 64 51 73
3 51 50 73
3 50 52 73
3 73 52 74
3 74 52 72
3 53 54 75
3 60 53 75
3 54 63 76
3 54 76 77
3 75 54 77
3 55 58 78
3 72 55 78
3 72 78 79
3 56 57 80
3 57 61 80
3 56 80 58
3 58 80 81
3 78 58 81
3 59 60 82
3 62 59 82
3 60 75 83
3 82 60 83
3 61 62 84
3 62 82 84
3 61 84 80
3 63 85 76
3 66 64 86
3 64 73 86
3 68 65 87
3 87 65 66
3 87 66 86
3 70 67 88
3 88 67 68
3 88 68 89
3 89 68 87
3 71 69 90
3 90 69 70
3 90 70 91
3 91 70 88
3 92 71 93
3 93 71 90
3 74 72 94
3 94 72 79
3 86 73 95
3 95 73 74
3 95 74 96
3 96 74 94
3 97 86 95
3 76 85 99
3 75 77 100
3 83 75 100
3 76 99 101
3 77 76 101
3 77 101 102
3 100 77 102
3 94 79 103
3 78 81 104
3 79 78 104
3 79 104 103
3 80 84 105
3 81 80 105
3 81 105 106
3 104 81 106
3 82 83 107
3 83 100 107
3 82 107 84
3 84 107 108
3 105 84 108
3 85 109 99
3 89 87 110
3 87 86 110
3 110 86 97
3 91 88 111
3 111 88 89
3 111 89 110
3 93 90 112
3 112 90 91
3 112 91 113
3 113 91 111
3 98 92 114
3 114 92 93
3 114 93 115
3 115 93 112
3 116 98 114
3 117 103 118
3 96 94 119
3 94 103 119
3 119 103 117
3 97 95 120
3 120 95 96
3 120 96 119
3 121 110 97
3 121 97 122
3 122 97 120
3 123 119 117
3 124 98 116
3 99 109 125
3 99 125 126
3 101 99 126
3 100 102 127
3 100 127 107
3 101 126 128
3 102 101 128
3 102 128 127
3 104 106 129
3 104 129 103
3 103 129 118
3 105 108 130
3 106 105 130
3 106 130 129
3 107 127 131
3 108 107 131
3 108 131 132
3 108 132 130
3 109 134 125
3 125 134 133
3 113 111 135
3 111 110 135
3 135 110 121
3 115 112 136
3 136 112 113
3 136 113 135
3 116 114 137
3 137 114 115
3 137 115 138
3 138 115 136
3 139 124 116
3 139 116 140
3 140 116 137
3 141 135 121
3 118 129 142
3 118 142 143
3 117 118 143
3 123 117 143
3 122 120 144
3 120 119 144
3 144 119 123
3 141 121 145
3 145 121 122
3 145 122 144
3 146 141 145
3 147 144 123
3 147 123 148
3 143 148 123
3 150 124 139
3 149 150 139
3 131 127 151
3 125 133 152
3 126 125 152
3 126 152 153
3 128 126 153
3 128 153 154
3 128 154 127
3 127 154 151
3 152 133 155
3 130 132 156
3 130 156 129
3 129 156 142
3 131 151 157
3 132 131 157
3 132 157 156
3 156 158 142
3 157 151 159
3 133 160 155
3 134 161 133
3 133 161 160
3 138 136 162
3 136 135 162
3 162 135 141
3 140 137 163
3 163 137 138
3 163 138 162
3 149 139 164
3 164 139 140
3 164 140 165
3 165 140 163
3 166 149 164
3 167 162 141
3 167 141 146
3 142 158 168
3 143 142 168
3 143 168 148
3 146 145 169
3 145 144 169
3 169 144 147
3 170 167 146
3 170 146 169
3 171 169 147
3 171 147 148
3 171 148 172
3 168 172 148
3 173 149 166
3 174 150 149
3 173 174 149
3 154 175 151
3 151 175 159
3 152 155 176
3 153 152 176
3 153 176 177
3 153 177 154
3 154 177 175
3 155 160 178
3 155 178 179
3 176 155 179
3 156 157 180
3 156 180 158
3 157 159 181
3 157 181 180
3 158 180 182
3 158 182 168
3 159 175 183
3 159 183 181
3 175 184 183
3 160 186 178
3 178 186 185
3 161 187 160
3 160 187 186
3 165 163 188
3 163 162 188
3 188 162 167
3 166 164 189
3 189 164 165
3 189 165 188
3 190 173 166
3 190 166 191
3 191 166 189
3 192 188 167
3 192 167 170
3 193 192 170
3 182 194 168
3 194 172 168
3 193 170 195
3 170 169 195
3 195 169 171
3 196 195 171
3 196 171 172
3 194 197 172
3 197 198 172
3 198 196 172
3 200 173 190
3 199 200 190
3 201 174 173
3 200 201 173
3 176 179 202
3 177 176 202
3 177 202 175
3 175 202 184
3 178 185 203
3 178 203 179
3 179 203 202
3 203 185 204
3 202 205 184
3 183 206 181
3 180 181 206
3 180 206 182
3 182 206 194
3 183 184 207
3 205 207 184
3 183 207 206
3 185 208 204
3 186 209 185
3 185 209 208
3 187 210 186
3 186 210 209
3 191 189 211
3 189 188 211
3 211 188 192
3 199 190 212
3 212 190 191
3 212 191 211
3 213 199 212
3 214 211 192
3 214 192 193
3 215 214 193
3 215 193 195
3 206 216 194
3 216 197 194
3 216 217 197
3 215 195 218
3 218 195 196
3 198 218 196
3 217 219 197
3 219 218 198
3 197 219 198
3 220 199 213
3 221 200 199
3 220 221 199
3 222 201 200
3 221 222 200
3 203 204 223
3 203 223 202
3 202 223 205
3 204 208 224
3 204 224 223
3 205 223 225
3 205 225 207
3 207 225 226
3 207 226 206
3 226 216 206
3 208 228 224
3 224 228 227
3 209 229 208
3 229 228 208
3 210 230 209
3 209 230 229
3 213 212 231
3 212 211 231
3 231 211 214
3 232 220 213
3 232 213 231
3 233 231 214
3 233 214 215
3 234 233 215
3 234 215 218
3 226 235 216
3 235 217 216
3 235 236 217
3 217 236 219
3 237 234 218
3 237 218 219
3 236 238 219
3 238 237 219
3 240 220 232
3 239 240 232
3 241 221 220
3 240 241 220
3 242 222 221
3 241 242 221
3 224 227 243
3 224 243 223
3 223 243 225
3 225 243 244
3 225 244 226
3 226 244 235
3 227 245 243
3 228 246 227
3 227 246 245
3 229 247 228
3 228 247 246
3 230 248 229
3 229 248 247
3 239 232 249
3 232 231 249
3 249 231 233
3 250 249 233
3 250 233 234
3 237 250 234
3 244 251 235
3 235 251 236
3 251 252 236
3 236 252 238
3 252 253 238
3 253 250 237
3 253 237 238
3 254 239 249
3 255 240 239
3 254 255 239
3 256 241 240
3 255 256 240
3 257 242 241
3 256 257 241
3 245 258 243
3 243 258 244
3 244 258 251
3 245 259 258
3 246 260 245
3 245 260 259
3 247 261 246
3 246 261 260
3 248 262 247
3 247 262 261
3 254 249 263
3 263 249 250
3 253 263 250
3 258 264 251
3 251 264 252
3 264 265 252
3 265 263 253
3 252 265 253
3 266 254 263
3 267 255 254
3 266 267 254
3 268 256 255
3 267 268 255
3 269 257 256
3 268 269 256
3 259 270 258
3 270 264 258
3 260 271 259
3 259 271 270
3 261 272 260
3 260 272 271
3 262 273 261
3 273 272 261
3 270 274 264
3 275 266 263
3 275 263 265
3 274 276 264
3 276 265 264
3 276 277 265
3 277 275 265
3 278 267 266
3 275 278 266
3 279 268 267
3 278 279 267
3 280 269 268
3 279 280 268
3 271 281 270
3 270 281 274
3 272 282 271
3 271 282 281
3 273 283 272
3 272 283 282
3 281 284 274
3 274 284 276
3 285 278 275
3 277 285 275
3 284 286 276
3 286 285 277
3 276 286 277
3 287 279 278
3 285 287 278
3 288 280 279
3 287 288 279
3 282 289 281
3 281 289 284
3 283 290 282
3 282 290 289
3 289 291 284
3 284 291 286
3 291 292 286
3 292 287 285
3 286 292 285
3 293 288 287
3 292 293 287
3 290 294 289
3 289 294 291
3 294 295 291
3 295 293 292
3 291 295 292
CELL_TYPES 542
5
5
5
5
5
5
5
5
5
5
5
5
5
5
5
5
5
5
5
5
5
5
5
5
5
5
5
5
5
5
5
5
5
5
5
5
5
5
5
5
5
5
5
5
5
5
5
5
5
5
5
5
5
5
5
5
5
5
5
5
5
5
5
5
5
5
5
5
5
5
5
5
5
5
5
5
5
5
5
5
5
5
5
5
5
5
5
5
5
5
5
5
5
5
5
5
5
5
5
5
5
5
5
5
5
5
5
5
5
5
5
5
5
5
5
5
5
5
5
5
5
5
5
5
5
5
5
5
5
5
5
5
5
5
5
5
5
5
5
5
5
5
5
5
5
5
5
5
5
5
5
5
5
5
5
5
5
5
5
5
5
5
5
5
5
5
5
5
5
5
5
5
5
5
5
5
5
5
5
5
5
5
5
5
5
5
5
5
5
5
5
5
5
5
5
5
5
5
5
5
5
5
5
5
5
5
5
5
5
5
5
5
5
5
5
5
5
5
5
5
5
5
5
5
5
5
5
5
5
5
5
5
5
5
5
5
5
5
5
5
5
5
5
5
5
5
5
5
5
5
5
5
5
5
5
5
5
5
5
5
5
5
5
5
5
5
5
5
5
5
5
5
5
5
5
5
5
5
5
5
5
5
5
5
5
5
5
5
5
5
5
5
5
5
5
5
5
5
5
5
5
5
5
5
5
5
5
5
5
5
5
5
5
5
5
5
5
5
5
5
5
5
5
5
5
5
5
5
5
5
5
5
5
5
5
5
5
5
5
5
5
5
5
5
5
5
5
5
5
5
5
5
5
5
5
5
5
5
5
5
5
5
5
5
5
5
5
5
5
5
5
5
5
5
5
5
5
5
5
5
5
5
5
5
5
5
5
5
5
5
5
5
5
5
5
5
5
5
5
5
5
5
5
5
5
5
5
5
5
5
5
5
5
5
5
5
5
5
5
5
5
5
5
5
5
5
5
5
5
5
5
5
5
5
5
5
5
5
5
5
5
5
5
5
5
5
5
5
5
5
5
5
5
5
5
5
5
5
5
5
5
5
5
5
5
5
5
5
5
5
5
5
5
5
5
5
5
5
5
5
5
5
5
5
5
5
5
5
5
5
5
5
5
5
5
5
5
5
5
5
5
5
5
5
5
5
5
5
5
5
5
5
5
5
5
5
5
5
5
5
5
5
5
5
5
5
5
5
5
5
5
5
5
5
5
5
5
5
5
5
5
5
POINT_DATA 296
SCALARS concentrations float 4
LOOKUP_TABLE default
0 0.983538 0.164295 10.6872
0 0.983523 0.164081 10.6457
0 0.983573 0.163913 10.6684
0 0.983548 0.163092 10.7596
0 0.98406 0.0938851 0.50873
0 0.98354 0.163669 10.6181
0 0.983569 0.162948 10.6521
0 0.98404 0.0938785 0.501032
0 0.984025 0.0938844 0.510616
0 0.98353 0.163612 10.7132
0 0.983375 0.155586 8.71794
0 0.983413 0.154611 8.61772
0 0.983573 0.162729 10.7183
0 0.984086 0.0938437 0.519893
0 0.983988 0.0936713 0.329933
0 0.98511 0.0939305 0.508332
0 0.985049 0.0939207 0.512026
0 0.984066 0.0938389 0.513861
0 0.984066 0.0938049 0.517329
0 0.985031 0.0939267 0.515402
0 0.98504 0.0939049 0.518835
0 0.983509 0.164728 10.834
0 0.983545 0.164608 10.8316
0 0.983976 0.0937001 0.330382
0 0.983944 0.0936898 0.313764
0 0.984011 0.0936683 0.332912
0 0.983627 0.162584 10.508
0 0.984103 0.0937753 0.512749
0 0.983609 0.162954 10.5187
0 0.985098 0.0938744 0.409722
0 0.985113 0.0937493 0.381554
0 0.98605 0.0935442 0.423292
0 0.983593 0.163149 10.388
0 0.986126 0.0933917 0.43149
0 0.985917 0.0935892 0.463085
0 0.985084 0.0938749 0.506702
0 0.985073 0.0938303 0.410447
0 0.986065 0.0934266 0.440991
0 0.985947 0.0936231 0.473443
0 0.984044 0.0938724 0.543591
0 0.98404 0.0939879 0.532848
0 0.985067 0.0937799 0.372586
0 0.985023 0.0938306 0.396117
0 0.983776 0.158265 10.7466
0 0.985119 0.0938529 0.420606
0 0.984119 0.093793 0.498834
0 0.985132 0.0939463 0.514145
0 0.98359 0.162389 10.4338
0 0.984082 0.0937795 0.488764
0 0.983587 0.16217 10.3889
0 0.986207 0.0933949 0.403179
0 0.986071 0.0935461 0.411106
0 0.986793 0.0926282 0.309959
0 0.984171 0.0941111 0.696533
0 0.984148 0.094057 0.719519
0 0.986735 0.0926506 0.303902
0 0.986163 0.0934562 0.425721
0 0.986046 0.0935763 0.406245
0 0.986751 0.0926971 0.316958
0 0.985057 0.0939027 0.528122
0 0.985064 0.0939486 0.626275
0 0.986189 0.0934705 0.405828
0 0.985976 0.0936308 0.438385
0 0.983638 0.161823 10.1832
0 0.986214 0.0933835 0.415037
0 0.985087 0.0939284 0.517242
0 0.986017 0.0935878 0.463791
0 0.984069 0.0937603 0.486997
0 0.985061 0.0938721 0.507435
0 0.983607 0.161517 10.4645
0 0.984059 0.0937509 0.502928
0 0.98362 0.160457 10.496
0 0.987266 0.0923105 0.24195
0 0.98683 0.0926304 0.313095
0 0.98731 0.0923094 0.247986
0 0.985051 0.0939585 0.643497
0 0.984076 0.0938112 0.509368
0 0.985001 0.0939345 0.641614
0 0.987264 0.0923221 0.240176
0 0.987737 0.0921755 0.210369
0 0.986818 0.0927108 0.328129
0 0.987286 0.0923613 0.256538
0 0.986072 0.0933753 0.448982
0 0.985845 0.0934862 0.502422
0 0.986804 0.0927156 0.323362
0 0.983625 0.162486 10.413
0 0.98679 0.0926059 0.298758
0 0.986114 0.093411 0.436058
0 0.98503 0.093904 0.517162
0 0.985939 0.093589 0.461755
0 0.984077 0.0937937 0.530561
0 0.985037 0.0939039 0.53348
0 0.983624 0.162064 10.4317
0 0.98408 0.0937569 0.520111
0 0.987829 0.0920849 0.196934
0 0.987303 0.0923221 0.245874
0 0.987783 0.0921483 0.211031
0 0.987308 0.0922991 0.231784
0 0.98362 0.162534 10.4303
0 0.984109 0.0937279 0.507164
0 0.985965 0.0934352 0.471987
0 0.985011 0.0937658 0.516107
0 0.985819 0.0935725 0.496057
0 0.988143 0.0918165 0.151884
0 0.987814 0.0921128 0.201717
0 0.987328 0.0923726 0.267386
0 0.987768 0.0922113 0.228121
0 0.986737 0.0927152 0.309626
0 0.987334 0.0923427 0.25546
0 0.98367 0.162187 10.3977
0 0.986773 0.0926125 0.289934
0 0.986103 0.0934532 0.443061
0 0.98503 0.0938849 0.53068
0 0.98594 0.0936546 0.479633
0 0.984096 0.0937333 0.49183
0 0.985059 0.0938729 0.520156
0 0.984102 0.0937346 0.489335
0 0.988414 0.0916536 0.134617
0 0.988416 0.0916456 0.130491
0 0.988169 0.0917739 0.148526
0 0.98786 0.092085 0.196016
0 0.987304 0.0922877 0.225895
0 0.987796 0.0921711 0.207109
0 0.988477 0.0915338 0.117532
0 0.983635 0.162381 10.4207
0 0.984164 0.0937028 0.490595
0 0.985119 0.0936659 0.483818
0 0.986732 0.0928398 0.322745
0 0.986027 0.0934797 0.445708
0 0.988169 0.0918204 0.156726
0 0.987862 0.0921162 0.215119
0 0.987379 0.0923457 0.246292
0 0.987831 0.0921027 0.213621
0 0.984137 0.0937161 0.48584
0 0.983677 0.162352 10.429
0 0.986787 0.0926178 0.289834
0 0.986114 0.0934625 0.443652
0 0.985067 0.093861 0.509474
0 0.985964 0.0935942 0.46664
0 0.984123 0.0937399 0.49898
0 0.985086 0.0938412 0.51248
0 0.987331 0.0922835 0.227801
0 0.988482 0.091539 0.112681
0 0.988598 0.0913305 0.0831125
0 0.988205 0.0917527 0.144348
0 0.987888 0.092082 0.19239
0 0.987826 0.092179 0.211127
0 0.988477 0.0914877 0.107668
0 0.988631 0.0911377 0.0543155
0 0.984125 0.0937267 0.496052
0 0.983648 0.162804 10.4825
0 0.98739 0.0923774 0.254353
0 0.985158 0.0936937 0.479739
0 0.986054 0.0935646 0.457657
0 0.986882 0.0928663 0.335155
0 0.985062 0.0938111 0.501164
0 0.988208 0.0917993 0.16021
0 0.987934 0.092066 0.208962
0 0.988489 0.0915393 0.111764
0 0.987781 0.0923479 0.25992
0 0.984076 0.0937265 0.507954
0 0.983647 0.162302 10.3996
0 0.986801 0.0926039 0.290256
0 0.986131 0.0934065 0.434584
0 0.985089 0.093855 0.516657
0 0.985977 0.0935714 0.46565
0 0.9851 0.0938817 0.516365
0 0.987325 0.0923046 0.235022
0 0.988629 0.0911201 0.0329068
0 0.988229 0.0917284 0.140469
0 0.987901 0.0921217 0.204829
0 0.988509 0.0914139 0.0941025
0 0.988612 0.0911377 0.0418779
0 0.984141 0.093693 0.4833
0 0.98366 0.161952 10.3847
0 0.98735 0.0924554 0.277117
0 0.986099 0.0934268 0.430469
0 0.986796 0.0929685 0.358346
0 0.984984 0.093888 0.544356
0 0.985952 0.0934449 0.438658
0 0.988304 0.0917125 0.146646
0 0.988138 0.0919321 0.19048
0 0.988501 0.0914886 0.102919
0 0.987918 0.0921918 0.238441
0 0.987495 0.0925297 0.28746
0 0.984952 0.0939099 0.638748
0 0.984038 0.0937606 0.532025
0 0.983631 0.161481 10.3071
0 0.9868 0.092607 0.293697
0 0.986153 0.0933841 0.431879
0 0.9851 0.0938588 0.509871
0 0.986022 0.0935571 0.459206
0 0.987342 0.0923418 0.243756
0 0.987839 0.092218 0.223129
0 0.988531 0.0913741 0.0850156
0 0.988232 0.0917523 0.146473
0 0.988476 0.0915121 0.106585
0 0.988475 0.09152 0.111242
0 0.988461 0.0915586 0.110295
0 0.985113 0.09386 0.513825
0 0.984146 0.0936725 0.480966
0 0.983668 0.162169 10.414
0 0.986802 0.0927402 0.311855
0 0.986007 0.093366 0.434891
0 0.98576 0.0936057 0.547911
0 0.98729 0.0925268 0.267177
0 0.988251 0.0917124 0.152399
0 0.98787 0.0921864 0.232687
0 0.98501 0.0939396 0.739095
0 0.984205 0.0940872 0.723139
0 0.983696 0.159803 10.1655
0 0.986808 0.0925898 0.290998
0 0.98617 0.0933849 0.429113
0 0.986011 0.0936763 0.481813
0 0.987336 0.0923303 0.241727
0 0.987891 0.0921459 0.208451
0 0.988302 0.0917669 0.165868
0 0.988231 0.0919478 0.190491
0 0.988198 0.0918283 0.152325
0 0.988197 0.0918973 0.1649
0 0.985075 0.0938887 0.522959
0 0.984145 0.0936191 0.47901
0 0.983679 0.161242 10.3038
0 0.986684 0.0927268 0.290428
0 0.985963 0.0933289 0.482047
0 0.987393 0.0923688 0.242086
0 0.987968 0.0920355 0.211456
0 0.985862 0.0934742 0.532365
0 0.985057 0.0939696 0.752978
0 0.98436 0.0940439 0.868839
0 0.983944 0.15809 10.5349
0 0.986822 0.0925881 0.28802
0 0.986163 0.093464 0.444876
0 0.987326 0.0923086 0.233833
0 0.987799 0.0922395 0.218094
0 0.987919 0.092123 0.225801
0 0.987868 0.092195 0.226691
0 0.987849 0.0921892 0.206501
0 0.987779 0.0922683 0.226085
0 0.986005 0.0936146 0.469812
0 0.985089 0.093894 0.521777
0 0.984138 0.093617 0.480265
0 0.983683 0.160098 10.2567
0 0.986746 0.0925849 0.266331
0 0.987448 0.0922533 0.230828
0 0.98607 0.0933437 0.436465
0 0.985045 0.0939559 0.661075
0 0.98426 0.0940569 0.727407
0 0.983956 0.158246 10.4942
0 0.986795 0.0925995 0.288259
0 0.987299 0.0923331 0.234069
0 0.987435 0.0922311 0.233238
0 0.987343 0.0922817 0.235578
0 0.987302 0.0923097 0.231533
0 0.98613 0.0934143 0.43736
0 0.985074 0.093864 0.511131
0 0.984139 0.0936713 0.481204
0 0.983673 0.16152 10.3243
0 0.986868 0.0926261 0.286054
0 0.985984 0.0935372 0.45606
0 0.985044 0.093816 0.535853
0 0.984118 0.0937543 0.517282
0 0.983734 0.161924 10.1465
0 0.986782 0.0926286 0.296021
0 0.986865 0.0926059 0.296132
0 0.986809 0.0926034 0.295272
0 0.985968 0.0935911 0.468063
0 0.98508 0.0938408 0.516859
0 0.984132 0.093679 0.483847
0 0.983666 0.162074 10.3758
0 0.986206 0.0933979 0.425656
0 0.985118 0.0937812 0.506949
0 0.984143 0.0936766 0.513102
0 0.983691 0.161551 10.2981
0 0.986059 0.0935941 0.467896
0 0.986123 0.0934269 0.443221
0 0.986181 0.0934259 0.441893
0 0.985991 0.0936073 0.476732
0 0.985057 0.0938876 0.527466
0 0.984127 0.0936968 0.503829
0 0.983677 0.161589 10.3626
0 0.985136 0.0938395 0.505878
0 0.984171 0.0936618 0.486092
0 0.983705 0.162027 10.3829
0 0.985133 0.0938714 0.518829
0 0.985078 0.0938879 0.5373
0 0.985077 0.0938751 0.52566
0 0.984107 0.0936691 0.511648
0 0.983684 0.158395 10.202
0 0.984185 0.0936725 0.479659
0 0.983712 0.161965 10.3653
0 0.984158 0.0937076 0.50346
0 0.98414 0.0936898 0.51523
0 0.983696 0.160671 10.3036
0 0.983713 0.161925 10.3991
0 0.983701 0.159709 10.3637
VECTORS fa_u float
0.0098755 0.00408544 0
0.00923123 0.00530246 0
0.0103052 0.00276014 0
0.0106644 0.00142767 0
0.000476816 0.00017735 0
0.00844488 0.00643653 0
0.00754699 0.00751739 0
0.000450956 0.000218339 0
0.000421941 0.000287568 0
0.00649889 0.00851683 0
0.00436428 0.00754689 0
0.00861772 -6.23722e-06 0
0.0106227 -0.00142816 0
0.000494497 0.000160506 0
0.000296399 0.000144926 0
0.000485794 0.000149684 0
0.000478109 0.000183255 0
0.000397218 0.000325992 0
0.000391055 0.000338682 0
0.000442229 0.000264713 0
0.0004025 0.00032739 0
0.00418379 0.00999358 0
0.00277909 0.010469 0
0.000279906 0.000175513 0
2.50772e-05 0.000312761 0
0.000294443 -0.000155349 0
0.0101496 -0.00272092 0
0.000486493 -0.000161974 0
0.00971873 -0.00402352 0
0.000396608 0.00010283 0
0.000381554 -5.27757e-07 0
0.000415096 8.28963e-05 0
0.00138022 0.0102959 0
0.000413968 0.000121714 0
0.000421603 0.000191569 0
0.000371504 0.000344575 0
0.00030284 0.000277046 0
0.000355473 0.000260983 0
0.000341603 0.000327805 0
9.65312e-05 0.000534951 0
4.10007e-05 0.000531268 0
0.000189723 0.000320665 0
9.34066e-05 0.000384947 0
2.41119e-06 0.0107466 0
0.000403582 -0.000118453 0
0.000468751 -0.00017061 0
0.000492874 -0.000146355 0
0.00904106 -0.00520801 0
0.000440604 -0.000211562 0
0.00825129 -0.00631226 0
0.000402961 1.32602e-05 0
0.000410158 -2.79045e-05 0
0.000307891 3.5747e-05 0
-8.31692e-05 0.00069155 0
0.00010353 0.000712031 0
0.000279498 0.00011932 0
0.000277629 0.000322739 0
0.000230132 0.000334775 0
0.000229791 0.000218308 0
9.88037e-05 0.000518797 0
4.27439e-05 0.000624814 0
0.000185407 0.000361 0
0.000137644 0.000416216 0
-0.00135483 0.0100926 0
0.000408577 -7.2942e-05 0
0.000479781 -0.000193261 0
0.000443262 -0.000136458 0
0.000398185 -0.000280384 0
0.000441905 -0.00024942 0
0.00741666 -0.0073823 0
0.000361583 -0.000349563 0
0.00639719 -0.00832115 0
0.000235551 5.52758e-05 0
0.000312153 -2.42696e-05 0
0.000247979 1.92362e-06 0
7.78651e-06 0.000643449 0
-2.13292e-05 0.000508921 0
-7.47788e-06 0.00064157 0
0.000203033 0.000128305 0
0.000195563 7.75259e-05 0
0.000182288 0.000272837 0
0.000169565 0.000192509 0
0.000107361 0.000435957 0
4.8869e-05 0.000500039 0
0.000129445 0.000296322 0
-0.00268112 0.0100619 0
0.000286046 -8.62223e-05 0
0.000396096 -0.000182359 0
0.000398489 -0.000329641 0
0.000384295 -0.000255997 0
0.000345401 -0.000402732 0
0.000364935 -0.000389131 0
0.00521757 -0.00903314 0
0.000291022 -0.00043107 0
0.00019513 2.65957e-05 0
0.000240653 -5.04026e-05 0
0.000210034 -2.04932e-05 0
0.000209068 -0.000100073 0
0.0040025 -0.00963172 0
-0.000144794 0.000486055 0
-1.38702e-05 0.000471783 0
-0.000119847 0.000501999 0
-8.54929e-05 0.000488634 0
0.000142667 5.21059e-05 0
0.00015695 0.000126714 0
0.000131231 0.000232967 0
0.000135289 0.000183673 0
5.17934e-05 0.000305264 0
8.06411e-05 0.000242398 0
-0.00398209 0.00960493 0
0.000241573 -0.000160325 0
0.000327221 -0.000298713 0
0.000322342 -0.000421564 0
0.000310853 -0.000365264 0
0.000234015 -0.00043259 0
0.000276774 -0.000440408 0
0.000167369 -0.000459822 0
0.000133604 1.64806e-05 0
0.000113441 6.44917e-05 0
0.000147964 -1.29132e-05 0
0.000186016 -6.18066e-05 0
0.000167186 -0.000151913 0
0.000172701 -0.000114319 0
0.000113558 -3.03039e-05 0
0.00270757 -0.0100628 0
-0.000216639 0.000440172 0
-0.000190607 0.00044469 0
-4.95322e-05 0.000318922 0
-0.000159258 0.000416284 0
0.000102638 0.000118442 0
8.42095e-05 0.000197952 0
8.87467e-06 0.000246132 0
3.84391e-05 0.000210134 0
-0.000266299 0.000406357 0
-0.00522679 0.00902469 0
0.000186295 -0.000222032 0
0.000248445 -0.000367562 0
0.000202798 -0.000467372 0
0.000212857 -0.000415265 0
9.583e-05 -0.000489691 0
0.000136565 -0.000493949 0
0.000119827 -0.000193739 0
6.46123e-05 9.23159e-05 0
7.96502e-05 2.37389e-05 0
0.000123655 -7.44704e-05 0
0.000128121 -0.000143524 0
8.70306e-05 -0.000192354 0
7.76083e-05 -7.46288e-05 0
4.32935e-05 -3.28e-05 0
2.62833e-05 -0.000495355 0
0.00137279 -0.0103922 0
-6.42503e-05 0.000246104 0
-0.000234457 0.000418545 0
-0.000203698 0.000409825 0
-0.000124801 0.000311053 0
-0.000287788 0.000410297 0
4.0032e-05 0.000155128 0
-1.72108e-05 0.000208252 0
1.22458e-05 0.000111091 0
-9.09113e-05 0.000243502 0
-0.000346323 0.000371588 0
-0.0063345 0.00824779 0
0.000118641 -0.000264901 0
0.000139891 -0.000411454 0
6.02354e-05 -0.000513134 0
8.70451e-05 -0.000457442 0
-5.10217e-06 -0.00051634 0
6.30498e-05 -0.000226407 0
6.42595e-06 3.22733e-05 0
6.54854e-05 -0.00012427 0
3.828e-05 -0.00020122 0
2.35567e-05 -9.11063e-05 0
-2.50207e-05 -3.35816e-05 0
-4.1509e-05 -0.000481514 0
-7.4467e-06 -0.0103847 0
-0.000138761 0.000239873 0
-0.00021758 0.000371433 0
-0.000186006 0.00030629 0
-0.0004039 0.00036495 0
-0.000267869 0.000347372 0
-2.76043e-05 0.000144024 0
-7.62227e-05 0.000174564 0
-5.16608e-05 8.90137e-05 0
-0.000141461 0.000191945 0
-0.000185341 0.000219732 0
-0.000540646 0.000340149 0
-0.000438055 0.000301925 0
-0.00727372 0.00730267 0
4.69336e-05 -0.000289922 0
2.59678e-05 -0.000431098 0
-7.96279e-05 -0.000503614 0
-3.78308e-05 -0.000457645 0
7.69586e-06 -0.000243634 0
-1.65368e-05 -0.000222515 0
-7.73708e-05 3.52337e-05 0
-5.41746e-06 -0.000146373 0
-2.92751e-05 -0.000102486 0
-0.000109908 -1.71774e-05 0
-8.04739e-05 -7.54254e-05 0
-0.000140917 -0.000494124 0
-0.000104189 -0.000469546 0
-0.00135964 -0.0103249 0
-0.000194921 0.000243433 0
-0.000318057 0.000296596 0
-0.000454688 0.000305721 0
-0.000200336 0.000176774 0
-0.000116779 9.79195e-05 0
-0.00018801 0.000137097 0
-0.000661988 0.000328685 0
-0.000684316 0.000233758 0
-0.00806954 0.00618215 0
-2.27324e-05 -0.000290109 0
-8.34467e-05 -0.000420921 0
-0.000153495 -0.000456709 0
-4.85091e-05 -0.00023681 0
-6.1059e-05 -0.000199308 0
-0.00015918 4.66235e-05 0
-0.000190428 -4.88127e-06 0
-7.90698e-05 -0.000130195 0
-0.000148659 -7.13625e-05 0
-0.000197377 -0.000484281 0
-0.000161495 -0.000450966 0
-0.00265529 -0.00995575 0
-0.000232857 0.000173569 0
-0.000425816 0.000225941 0
-0.000219393 0.000102334 0
-0.000199454 7.02264e-05 0
-0.000498069 0.00018799 0
-0.00066394 0.000355189 0
-0.000774212 0.000394305 0
-0.00914598 0.0052282 0
-8.51351e-05 -0.000275151 0
-0.00017872 -0.000407399 0
-9.60179e-05 -0.00021321 0
-0.000114714 -0.000185488 0
-0.000223939 2.89423e-05 0
-0.000225735 -2.07962e-05 0
-0.00015722 -0.000133882 0
-0.00021231 -7.77124e-05 0
-0.000252994 -0.000395875 0
-0.000239398 -0.000463616 0
-0.000202358 -0.000435552 0
-0.00392673 -0.00947532 0
-0.000254235 7.93532e-05 0
-0.000225673 4.85115e-05 0
-0.000431192 6.76379e-05 0
-0.000613992 0.00024502 0
-0.000593635 0.000420378 0
-0.00971201 0.00397567 0
-0.000156536 -0.000242053 0
-0.000154725 -0.000175637 0
-0.000233073 8.77675e-06 0
-0.000231249 -4.4956e-05 0
-0.000200972 -0.000114969 0
-0.000288313 -0.000328876 0
-0.000310697 -0.00040586 0
-0.000261422 -0.000404 0
-0.00516836 -0.0089375 0
-0.000285126 2.30162e-05 0
-0.000455842 1.40936e-05 0
-0.000527924 9.18398e-05 0
-0.000484201 0.000182014 0
-0.00980429 0.00261287 0
-0.000226953 -0.000190054 0
-0.000294824 -2.77963e-05 0
-0.000274634 -0.000108452 0
-0.000356343 -0.000303484 0
-0.000369255 -0.000361654 0
-0.000322408 -0.000360779 0
-0.00631304 -0.00823427 0
-0.000425032 -2.3041e-05 0
-0.000506843 -1.03337e-05 0
-0.00051014 5.50555e-05 0
-0.010204 0.00138864 0
-0.000462004 -7.40206e-05 0
-0.000374988 -0.00023628 0
-0.000425061 -0.000120796 0
-0.000433733 -0.000197862 0
-0.000428085 -0.000308161 0