# vtk DataFile Version 2.0
CellBP Time: 1.16
ASCII
DATASET UNSTRUCTURED_GRID
POINTS 296 double
-9.13982 -3.75672 0
-8.56366 -4.92321 0
-9.55706 -2.52441 0
-9.81289 -1.24824 0
-8.35341 -2.81712 0
-7.84187 -6.00583 0
-6.98554 -6.98565 0
-7.91326 -3.87267 0
-7.33902 -4.86533 0
-6.00521 -7.84137 0
-4.92331 -8.56407 0
-9.90886 0.0499622 0
-9.81303 1.34822 0
-8.65341 -1.68279 0
-8.78324 -0.528508 0
-7.58562 -2.00278 0
-7.2218 -2.90473 0
-6.63437 -5.77595 0
-5.81945 -6.59367 0
-6.78658 -3.88663 0
-6.21719 -4.67322 0
-3.75625 -9.13921 0
-2.52524 -9.56092 0
-4.90403 -7.30528 0
-3.91107 -7.88237 0
-8.78969 0.642245 0
-9.55762 2.62455 0
-8.61915 1.77294 0
-9.14104 3.85718 0
-7.74049 -0.928276 0
-7.79084 0.0802524 0
-6.9493 -1.31508 0
-1.24835 -9.81174 0
-6.43846 -2.15191 0
-6.31616 -3.05446 0
-5.5335 -5.47151 0
-4.79322 -6.11211 0
-5.65627 -3.75506 0
-5.26662 -4.55913 0
-2.86469 -8.35969 0
-1.77752 -8.63578 0
-3.92602 -6.71985 0
-3.05489 -7.14865 0
0.0499998 -9.89696 0
-7.70176 1.14269 0
-8.33461 2.91394 0
-7.54783 2.1107 0
-8.56492 5.02385 0
-7.87633 3.97628 0
-7.8416 6.10552 0
-6.77569 -0.396679 0
-6.95332 0.552275 0
-5.76943 -1.00299 0
-0.590436 -8.80533 0
0.565512 -8.76661 0
-5.30118 -2.47931 0
-4.48969 -5.09316 0
-3.90044 -5.77229 0
-4.43719 -3.80329 0
-2.06119 -7.55779 0
-1.13477 -7.78157 0
-2.99297 -6.09898 0
-2.30773 -6.61629 0
1.34833 -9.81226 0
-6.68648 1.42132 0
-7.16835 3.11631 0
-6.65599 2.37169 0
-7.29138 4.98627 0
-6.71452 4.00091 0
-6.98591 7.08599 0
-6.56945 5.89136 0
-6.00552 7.94177 0
-4.45149 -1.18055 0
-5.81265 0.513538 0
-4.6545 -0.0103025 0
0.00849586 -7.84388 0
1.73793 -8.63976 0
0.948501 -7.75928 0
-4.03703 -2.40545 0
-3.48411 -1.39056 0
-3.29316 -4.80351 0
-3.26459 -3.26649 0
-1.37786 -6.67226 0
-0.5085 -7.02149 0
-1.97471 -5.53492 0
2.62439 -9.55809 0
-5.50544 2.03615 0
-6.09188 3.07066 0
-6.10186 4.86703 0
-5.75883 3.9895 0
-5.75866 6.71418 0
-5.44924 5.61647 0
-4.92358 8.66463 0
-4.83633 7.40139 0
-3.50008 -0.42403 0
-4.44767 1.24862 0
-3.70997 0.591945 0
-4.06068 2.31902 0
-3.75654 9.2399 0
2.86151 -8.32912 0
0.419523 -6.79214 0
2.02109 -7.5221 0
1.30544 -6.90215 0
-2.44362 -0.873375 0
-2.8372 -2.1302 0
-2.29347 -4.09583 0
-2.32463 -2.97233 0
-0.442098 -5.85894 0
-1.22219 -4.49745 0
3.85688 -9.14103 0
-4.78811 3.39062 0
-5.08551 4.59202 0
-4.64475 6.27828 0
-4.53658 5.35708 0
-3.84208 7.98995 0
-3.82478 6.84235 0
-2.7821 8.41925 0
-1.64811 -0.13773 0
-1.44947 -0.890078 0
-2.48805 0.507197 0
-3.25227 1.44368 0
-3.2378 3.31544 0
-2.9097 2.37089 0
-1.35432 0.626917 0
-2.52448 9.65819 0
3.9312 -7.88357 0
2.96334 -7.15435 0
0.953818 -5.81967 0
2.07339 -6.41242 0
-1.68223 -1.9912 0
-1.43381 -3.27642 0
0.090314 -4.74526 0
-0.565889 -3.69299 0
4.93031 -7.31558 0
5.02319 -8.56429 0
-3.77566 4.5501 0
-3.73302 5.7495 0
-2.88655 7.2863 0
-3.00825 6.35071 0
-1.66182 8.73002 0
-1.93912 7.61568 0
-2.33751 4.05029 0
-0.730305 -1.32657 0
-0.836379 -0.257414 0
-1.93532 1.68023 0
-2.12481 2.87477 0
-1.30592 3.54329 0
-0.868937 1.3503 0
-0.282111 0.455846 0
-0.533235 8.86805 0
-1.2484 9.91259 0
1.11247 -4.5729 0
3.90861 -6.71414 0
2.98673 -6.09173 0
2.11722 -5.42274 0
4.78259 -6.20233 0
-0.558575 -2.47574 0
0.495051 -3.46244 0
0.0536359 -1.6097 0
1.48143 -3.68053 0
5.86528 -6.6118 0
6.1048 -7.84114 0
-2.47488 5.3467 0
-2.1295 6.53158 0
-0.903566 7.7996 0
-1.27169 6.92886 0
0.0862945 7.87665 0
-1.14398 4.49314 0
0.150332 -0.617397 0
-0.796969 2.48762 0
-0.331343 3.59931 0
0.0632436 1.5121 0
0.741251 0.473215 0
0.646592 8.87079 0
0.0500016 9.99809 0
2.38026 -4.28371 0
3.85784 -5.63786 0
3.00039 -5.21072 0
5.57187 -5.48941 0
4.68949 -5.28085 0
0.629537 -2.29241 0
1.25578 -2.95013 0
0.757173 -1.39085 0
2.16359 -3.13462 0
2.99271 -3.47519 0
6.1532 -4.78989 0
6.65472 -5.76713 0
7.0837 -6.98348 0
-1.01928 5.81851 0
-0.372327 6.88074 0
1.12219 7.76608 0
0.557845 7.07677 0
-0.000656614 4.72358 0
0.606901 3.82632 0
1.33845 -0.641656 0
0.539052 2.65006 0
0.965864 1.57425 0
1.90954 0.213728 0
1.61423 1.06451 0
2.12849 7.58029 0
1.79861 8.70932 0
1.34835 9.91205 0
3.82171 -4.35015 0
5.11495 -4.44736 0
5.84382 -3.93365 0
3.78281 -3.19996 0
1.81165 -1.88204 0
3.01815 -2.57308 0
6.78124 -3.94675 0
7.37998 -4.89627 0
7.95032 -6.01205 0
0.48328 5.87986 0
1.42773 6.73934 0
2.37338 6.6663 0
1.20968 4.55474 0
1.48775 3.39636 0
2.43495 -0.691764 0
2.82698 0.142473 0
1.78836 2.162 0
2.611 1.14961 0
3.07077 7.16713 0
2.90324 8.37416 0
2.62495 9.65964 0
4.91004 -3.32693 0
6.11887 -3.10779 0
4.17168 -2.27467 0
3.24342 -1.50255 0
6.72918 -2.31244 0
7.2296 -3.04168 0
7.96293 -3.91155 0
8.66805 -4.92585 0
2.02316 5.59842 0
3.08548 6.1514 0
2.36333 4.12573 0
2.41934 3.05975 0
3.52452 -0.460799 0
3.61449 0.612994 0
2.96089 2.28722 0
3.54441 1.52466 0
4.01083 5.89615 0
3.98324 6.79075 0
3.97239 7.93663 0
3.85834 9.2442 0
5.56767 -1.91576 0
4.50815 -1.1294 0
6.71204 -1.33591 0
7.59012 -2.03606 0
8.39525 -2.86113 0
9.24518 -3.75878 0
3.41842 4.87603 0
3.3382 3.38448 0
4.69026 0.129964 0
4.51816 1.30957 0
4.06441 2.44314 0
4.5694 5.15121 0
4.84235 6.18908 0
4.97948 7.37894 0
5.02371 8.66481 0
5.88243 -0.434842 0
7.00909 -0.488192 0
7.75752 -1.08513 0
8.68309 -1.74572 0
9.65714 -2.52426 0
4.55174 3.82694 0
5.81694 1.0984 0
5.37055 2.53453 0
5.37899 4.61961 0
5.611 5.52232 0
5.89629 6.67085 0
6.10543 7.94156 0
6.84483 0.463461 0
7.85174 -0.025706 0
8.85906 -0.584282 0
9.91355 -1.24842 0
6.95928 1.34923 0
5.72023 3.77779 0
6.54054 2.19713 0
6.37927 3.08742 0
6.29139 4.68611 0
6.69236 5.8372 0
7.08376 7.08375 0
7.78301 0.967472 0
8.8584 0.572686 0
9.9976 0.0500301 0
7.61512 2.004 0
6.82833 3.90357 0
7.26862 2.94637 0
7.37778 4.88526 0
7.94277 6.10643 0
8.72212 1.72686 0
9.91171 1.34837 0
8.42043 2.83777 0
7.98132 3.91586 0
8.66448 5.02346 0
9.65916 2.62502 0
9.24684 3.85952 0
CELLS 542 2168
3 2 0 4
3 0 1 7
3 4 0 7
3 1 5 8
3 7 1 8
3 3 2 13
3 13 2 4
3 11 3 14
3 14 3 13
3 13 4 15
3 4 7 16
3 15 4 16
3 5 6 17
3 8 5 17
3 6 9 18
3 17 6 18
3 7 8 19
3 16 7 19
3 8 17 20
3 19 8 20
3 9 10 23
3 18 9 23
3 10 21 24
3 23 10 24
3 12 11 25
3 25 11 14
3 26 12 27
3 27 12 25
3 14 13 29
3 29 13 15
3 25 14 30
3 30 14 29
3 29 15 31
3 15 16 33
3 31 15 33
3 16 19 34
3 33 16 34
3 17 18 35
3 20 17 35
3 18 23 36
3 35 18 36
3 19 20 37
3 34 19 37
3 20 35 38
3 37 20 38
3 21 22 39
3 24 21 39
3 22 32 40
3 39 22 40
3 23 24 41
3 36 23 41
3 24 39 42
3 41 24 42
3 27 25 44
3 44 25 30
3 28 26 45
3 45 26 27
3 45 27 46
3 46 27 44
3 47 28 48
3 48 28 45
3 30 29 50
3 50 29 31
3 44 30 51
3 51 30 50
3 50 31 52
3 31 33 52
3 32 43 53
3 40 32 53
3 53 43 54
3 33 34 55
3 34 37 55
3 33 55 52
3 35 36 56
3 38 35 56
3 36 41 57
3 56 36 57
3 37 38 58
3 38 56 58
3 37 58 55
3 39 40 59
3 42 39 59
3 40 53 60
3 59 40 60
3 41 42 61
3 57 41 61
3 42 59 62
3 61 42 62
3 43 63 54
3 46 44 64
3 64 44 51
3 48 45 65
3 65 45 46
3 65 46 66
3 66 46 64
3 49 47 67
3 67 47 48
3 67 48 68
3 68 48 65
3 69 49 70
3 70 49 67
3 52 55 72
3 64 51 73
3 51 50 73
3 50 52 73
3 73 52 74
3 74 52 72
3 53 54 75
3 60 53 75
3 54 63 76
3 54 76 77
3 75 54 77
3 55 58 78
3 72 55 78
3 72 78 79
3 56 57 80
3 57 61 80
3 56 80 58
3 58 80 81
3 78 58 81
3 59 60 82
3 62 59 82
3 60 75 83
3 82 60 83
3 61 62 84
3 62 82 84
3 61 84 80
3 63 85 76
3 66 64 86
3 64 73 86
3 68 65 87
3 87 65 66
3 87 66 86
3 70 67 88
3 88 67 68
3 88 68 89
3 89 68 87
3 71 69 90
3 90 69 70
3 90 70 91
3 91 70 88
3 92 71 93
3 93 71 90
3 74 72 94
3 94 72 79
3 86 73 95
3 95 73 74
3 95 74 96
3 96 74 94
3 97 86 95
3 76 85 99
3 75 77 100
3 83 75 100
3 76 99 101
3 77 76 101
3 77 101 102
3 100 77 102
3 94 79 103
3 78 81 104
3 79 78 104
3 79 104 103
3 80 84 105
3 81 80 105
3 81 105 106
3 104 81 106
3 82 83 107
3 83 100 107
3 82 107 84
3 84 107 108
3 105 84 108
3 85 109 99
3 89 87 110
3 87 86 110
3 110 86 97
3 91 88 111
3 111 88 89
3 111 89 110
3 93 90 112
3 112 90 91
3 112 91 113
3 113 91 111
3 98 92 114
3 114 92 93
3 114 93 115
3 115 93 112
3 116 98 114
3 117 103 118
3 96 94 119
3 94 103 119
3 119 103 117
3 97 95 120
3 120 95 96
3 120 96 119
3 121 110 97
3 121 97 122
3 122 97 120
3 123 119 117
3 124 98 116
3 99 109 125
3 99 125 126
3 101 99 126
3 100 102 127
3 100 127 107
3 101 126 128
3 102 101 128
3 102 128 127
3 104 106 129
3 104 129 103
3 103 129 118
3 105 108 130
3 106 105 130
3 106 130 129
3 107 127 131
3 108 107 131
3 108 131 132
3 108 132 130
3 109 134 125
3 125 134 133
3 113 111 135
3 111 110 135
3 135 110 121
3 115 112 136
3 136 112 113
3 136 113 135
3 116 114 137
3 137 114 115
3 137 115 138
3 138 115 136
3 139 124 116
3 139 116 140
3 140 116 137
3 141 135 121
3 118 129 142
3 118 142 143
3 117 118 143
3 123 117 143
3 122 120 144
3 120 119 144
3 144 119 123
3 141 121 145
3 145 121 122
3 145 122 144
3 146 141 145
3 147 144 123
3 147 123 148
3 143 148 123
3 150 124 139
3 149 150 139
3 131 127 151
3 125 133 152
3 126 125 152
3 126 152 153
3 128 126 153
3 128 153 154
3 128 154 127
3 127 154 151
3 152 133 155
3 130 132 156
3 130 156 129
3 129 156 142
3 131 151 157
3 132 131 157
3 132 157 156
3 156 158 142
3 157 151 159
3 133 160 155
3 134 161 133
3 133 161 160
3 138 136 162
3 136 135 162
3 162 135 141
3 140 137 163
3 163 137 138
3 163 138 162
3 149 139 164
3 164 139 140
3 164 140 165
3 165 140 163
3 166 149 164
3 167 162 141
3 167 141 146
3 142 158 168
3 143 142 168
3 143 168 148
3 146 145 169
3 145 144 169
3 169 144 147
3 170 167 146
3 170 146 169
3 171 169 147
3 171 147 148
3 171 148 172
3 168 172 148
3 173 149 166
3 174 150 149
3 173 174 149
3 154 175 151
3 151 175 159
3 152 155 176
3 153 152 176
3 153 176 177
3 153 177 154
3 154 177 175
3 155 160 178
3 155 178 179
3 176 155 179
3 156 157 180
3 156 180 158
3 157 159 181
3 157 181 180
3 158 180 182
3 158 182 168
3 159 175 183
3 159 183 181
3 175 184 183
3 160 186 178
3 178 186 185
3 161 187 160
3 160 187 186
3 165 163 188
3 163 162 188
3 188 162 167
3 166 164 189
3 189 164 165
3 189 165 188
3 190 173 166
3 190 166 191
3 191 166 189
3 192 188 167
3 192 167 170
3 193 192 170
3 182 194 168
3 194 172 168
3 193 170 195
3 170 169 195
3 195 169 171
3 196 195 171
3 196 171 172
3 194 197 172
3 197 198 172
3 198 196 172
3 200 173 190
3 199 200 190
3 201 174 173
3 200 201 173
3 176 179 202
3 177 176 202
3 177 202 175
3 175 202 184
3 178 185 203
3 178 203 179
3 179 203 202
3 203 185 204
3 202 205 184
3 183 206 181
3 180 181 206
3 180 206 182
3 182 206 194
3 183 184 207
3 205 207 184
3 183 207 206
3 185 208 204
3 186 209 185
3 185 209 208
3 187 210 186
3 186 210 209
3 191 189 211
3 189 188 211
3 211 188 192
3 199 190 212
3 212 190 191
3 212 191 211
3 213 199 212
3 214 211 192
3 214 192 193
3 215 214 193
3 215 193 195
3 206 216 194
3 216 197 194
3 216 217 197
3 215 195 218
3 218 195 196
3 198 218 196
3 217 219 197
3 219 218 198
3 197 219 198
3 220 199 213
3 221 200 199
3 220 221 199
3 222 201 200
3 221 222 200
3 203 204 223
3 203 223 202
3 202 223 205
3 204 208 224
3 204 224 223
3 205 223 225
3 205 225 207
3 207 225 226
3 207 226 206
3 226 216 206
3 208 228 224
3 224 228 227
3 209 229 208
3 229 228 208
3 210 230 209
3 209 230 229
3 213 212 231
3 212 211 231
3 231 211 214
3 232 220 213
3 232 213 231
3 233 231 214
3 233 214 215
3 234 233 215
3 234 215 218
3 226 235 216
3 235 217 216
3 235 236 217
3 217 236 219
3 237 234 218
3 237 218 219
3 236 238 219
3 238 237 219
3 240 220 232
3 239 240 232
3 241 221 220
3 240 241 220
3 242 222 221
3 241 242 221
3 224 227 243
3 224 243 223
3 223 243 225
3 225 243 244
3 225 244 226
3 226 244 235
3 227 245 243
3 228 246 227
3 227 246 245
3 229 247 228
3 228 247 246
3 230 248 229
3 229 248 247
3 239 232 249
3 232 231 249
3 249 231 233
3 250 249 233
3 250 233 234
3 237 250 234
3 244 251 235
3 235 251 236
3 251 252 236
3 236 252 238
3 252 253 238
3 253 250 237
3 253 237 238
3 254 239 249
3 255 240 239
3 254 255 239
3 256 241 240
3 255 256 240
3 257 242 241
3 256 257 241
3 245 258 243
3 243 258 244
3 244 258 251
3 245 259 258
3 246 260 245
3 245 260 259
3 247 261 246
3 246 261 260
3 248 262 247
3 247 262 261
3 254 249 263
3 263 249 250
3 253 263 250
3 258 264 251
3 251 264 252
3 264 265 252
3 265 263 253
3 252 265 253
3 266 254 263
3 267 255 254
3 266 267 254
3 268 256 255
3 267 268 255
3 269 257 256
3 268 269 256
3 259 270 258
3 270 264 258
3 260 271 259
3 259 271 270
3 261 272 260
3 260 272 271
3 262 273 261
3 273 272 261
3 270 274 264
3 275 266 263
3 275 263 265
3 274 276 264
3 276 265 264
3 276 277 265
3 277 275 265
3 278 267 266
3 275 278 266
3 279 268 267
3 278 279 267
3 280 269 268
3 279 280 268
3 271 281 270
3 270 281 274
3 272 282 271
3 271 282 281
3 273 283 272
3 272 283 282
3 281 284 274
3 274 284 276
3 285 278 275
3 277 285 275
3 284 286 276
3 286 285 277
3 276 286 277
3 287 279 278
3 285 287 278
3 288 280 279
3 287 288 279
3 282 289 281
3 281 289 284
3 283 290 282
3 282 290 289
3 289 291 284
3 284 291 286
3 291 292 286
3 292 287 285
3 286 292 285
3 293 288 287
3 292 293 287
3 290 294 289
3 289 294 291
3 294 295 291
3 295 293 292
3 291 295 292
CELL_TYPES 542
5
5
5
5
5
5
5
5
5
5
5
5
5
5
5
5
5
5
5
5
5
5
5
5
5
5
5
5
5
5
5
5
5
5
5
5
5
5
5
5
5
5
5
5
5
5
5
5
5
5
5
5
5
5
5
5
5
5
5
5
5
5
5
5
5
5
5
5
5
5
5
5
5
5
5
5
5
5
5
5
5
5
5
5
5
5
5
5
5
5
5
5
5
5
5
5
5
5
5
5
5
5
5
5
5
5
5
5
5
5
5
5
5
5
5
5
5
5
5
5
5
5
5
5
5
5
5
5
5
5
5
5
5
5
5
5
5
5
5
5
5
5
5
5
5
5
5
5
5
5
5
5
5
5
5
5
5
5
5
5
5
5
5
5
5
5
5
5
5
5
5
5
5
5
5
5
5
5
5
5
5
5
5
5
5
5
5
5
5
5
5
5
5
5
5
5
5
5
5
5
5
5
5
5
5
5
5
5
5
5
5
5
5
5
5
5
5
5
5
5
5
5
5
5
5
5
5
5
5
5
5
5
5
5
5
5
5
5
5
5
5
5
5
5
5
5
5
5
5
5
5
5
5
5
5
5
5
5
5
5
5
5
5
5
5
5
5
5
5
5
5
5
5
5
5
5
5
5
5
5
5
5
5
5
5
5
5
5
5
5
5
5
5
5
5
5
5
5
5
5
5
5
5
5
5
5
5
5
5
5
5
5
5
5
5
5
5
5
5
5
5
5
5
5
5
5
5
5
5
5
5
5
5
5
5
5
5
5
5
5
5
5
5
5
5
5
5
5
5
5
5
5
5
5
5
5
5
5
5
5
5
5
5
5
5
5
5
5
5
5
5
5
5
5
5
5
5
5
5
5
5
5
5
5
5
5
5
5
5
5
5
5
5
5
5
5
5
5
5
5
5
5
5
5
5
5
5
5
5
5
5
5
5
5
5
5
5
5
5
5
5
5
5
5
5
5
5
5
5
5
5
5
5
5
5
5
5
5
5
5
5
5
5
5
5
5
5
5
5
5
5
5
5
5
5
5
5
5
5
5
5
5
5
5
5
5
5
5
5
5
5
5
5
5
5
5
5
5
5
5
5
5
5
5
5
5
5
5
5
5
5
5
5
5
5
5
5
5
5
5
5
5
5
5
5
5
5
5
5
5
5
5
5
5
5
5
5
5
5
5
5
5
5
5
5
5
5
5
5
5
5
5
5
5
5
5
5
5
5
5
5
5
POINT_DATA 296
SCALARS concentrations float 4
LOOKUP_TABLE default
0 0.98754 0.149896 9.13498
0 0.987527 0.149847 9.08982
0 0.987649 0.149844 8.98668
0 0.987851 0.139492 7.07235
0 0.988006 0.0936394 0.471252
0 0.987596 0.149471 8.96371
0 0.987718 0.139284 7.07054
0 0.987967 0.0936389 0.480119
0 0.987991 0.0936315 0.464815
0 0.987606 0.149362 8.90168
0 0.987552 0.149451 9.01498
0 0.987845 0.148986 8.70679
0 0.987883 0.139273 7.04055
0 0.988166 0.0935617 0.589724
0 0.988245 0.0933815 0.55098
0 0.988935 0.093608 0.524713
0 0.988871 0.0936505 0.469004
0 0.988104 0.0935366 0.581589
0 0.988091 0.0935044 0.588592
0 0.988888 0.093659 0.472718
0 0.988917 0.093586 0.517362
0 0.987587 0.15021 9.04484
0 0.987692 0.139967 7.25246
0 0.987999 0.0935477 0.446001
0 0.987984 0.0935721 0.458966
0 0.988267 0.0933849 0.553707
0 0.987724 0.148798 8.82604
0 0.988198 0.0934907 0.580983
0 0.987646 0.148973 8.98883
0 0.988979 0.0935177 0.525479
0 0.989014 0.0933767 0.549275
0 0.989718 0.0931992 0.389473
0 0.987589 0.149252 8.90853
0 0.989853 0.093112 0.341584
0 0.989708 0.0933262 0.386426
0 0.988934 0.0935307 0.524498
0 0.988876 0.093552 0.517806
0 0.989862 0.0931573 0.359666
0 0.989701 0.0933046 0.416527
0 0.988087 0.0936302 0.618308
0 0.988078 0.0936109 0.638722
0 0.988853 0.0935924 0.466318
0 0.988864 0.0935791 0.528852
0 0.98751 0.148776 8.92612
0 0.989011 0.0935055 0.527025
0 0.988083 0.0935659 0.484321
0 0.98897 0.0936279 0.541913
0 0.98765 0.147202 8.97356
0 0.988042 0.0936109 0.502067
0 0.987734 0.148503 8.79387
0 0.98984 0.0930313 0.344795
0 0.989715 0.0931636 0.401451
0 0.9905 0.0924136 0.181977
0 0.987996 0.0936384 0.475592
0 0.987913 0.0936021 0.465503
0 0.990519 0.0924766 0.213252
0 0.98983 0.0931564 0.369452
0 0.989643 0.0932973 0.400014
0 0.990498 0.0925061 0.22146
0 0.988938 0.0935466 0.561857
0 0.98893 0.0935809 0.554944
0 0.989795 0.0931965 0.37285
0 0.989663 0.0933197 0.438692
0 0.987485 0.148006 8.8252
0 0.989903 0.0930661 0.357528
0 0.988923 0.0936807 0.506496
0 0.989757 0.093302 0.423232
0 0.988096 0.0935853 0.490282
0 0.988941 0.0936213 0.504629
0 0.987834 0.138552 6.96255
0 0.988193 0.0934478 0.596749
0 0.987689 0.148489 8.7433
0 0.991047 0.092186 0.171605
0 0.990517 0.0923992 0.185437
0 0.991065 0.0921732 0.165648
0 0.98889 0.0936621 0.48122
0 0.987939 0.0935479 0.457713
0 0.98885 0.0936807 0.474214
0 0.991053 0.0922041 0.183269
0 0.991484 0.0920795 0.181062
0 0.990469 0.0925124 0.217838
0 0.991027 0.0922362 0.187047
0 0.989836 0.0930896 0.383767
0 0.989675 0.0932266 0.413964
0 0.990476 0.0925139 0.228192
0 0.987498 0.148404 8.88292
0 0.990551 0.0924187 0.227011
0 0.989905 0.09316 0.379232
0 0.988966 0.0935949 0.553749
0 0.989749 0.0933108 0.43396
0 0.988181 0.0934374 0.567902
0 0.988992 0.0935306 0.540351
0 0.987588 0.14833 8.83773
0 0.988049 0.0934724 0.426321
0 0.991557 0.0919917 0.171862
0 0.991072 0.0921833 0.188199
0 0.991518 0.0920426 0.18037
0 0.991088 0.0921656 0.197833
0 0.987544 0.148569 8.90464
0 0.987971 0.0935166 0.453529
0 0.989818 0.0932324 0.388968
0 0.988876 0.09357 0.45882
0 0.989687 0.0933901 0.422204
0 0.991814 0.0917442 0.145795
0 0.991538 0.092023 0.177101
0 0.991028 0.0922436 0.185457
0 0.991477 0.0921118 0.183869
0 0.990495 0.0925432 0.250872
0 0.991038 0.0922172 0.192009
0 0.987523 0.148114 8.8502
0 0.990558 0.0924343 0.239806
0 0.989904 0.093157 0.398675
0 0.988944 0.0935594 0.515173
0 0.989736 0.0933233 0.435331
0 0.987993 0.0935123 0.450095
0 0.988909 0.0936162 0.464747
0 0.98798 0.0935233 0.473064
0 0.992037 0.0915811 0.127222
0 0.992041 0.0915764 0.12156
0 0.991835 0.091697 0.143744
0 0.991579 0.0919798 0.181968
0 0.991059 0.0921591 0.196875
0 0.991515 0.0920575 0.193712
0 0.992092 0.0914687 0.107952
0 0.987536 0.14835 8.9066
0 0.987993 0.0935107 0.459027
0 0.988937 0.0934939 0.452058
0 0.99051 0.0927002 0.298076
0 0.989835 0.0933103 0.416189
0 0.991828 0.0917478 0.141288
0 0.991543 0.0920237 0.175178
0 0.991087 0.0922268 0.209285
0 0.991503 0.0920087 0.17753
0 0.987967 0.0935276 0.472139
0 0.987525 0.148311 8.86729
0 0.990537 0.0924324 0.230508
0 0.989877 0.0931921 0.38605
0 0.988898 0.0936482 0.478285
0 0.989738 0.0933659 0.416841
0 0.987996 0.0935549 0.48773
0 0.988926 0.093649 0.494314
0 0.991055 0.0921595 0.197361
0 0.992102 0.0914762 0.101284
0 0.992205 0.0912784 0.0755956
0 0.991855 0.0916738 0.137233
0 0.991569 0.091977 0.178051
0 0.9915 0.0920664 0.188932
0 0.992087 0.0914318 0.0910876
0 0.992237 0.091107 0.0386643
0 0.98799 0.0935547 0.489463
0 0.98754 0.148251 8.98616
0 0.991074 0.0922649 0.234068
0 0.988928 0.0935288 0.467211
0 0.989785 0.0933921 0.439773
0 0.990588 0.0927279 0.319306
0 0.988869 0.0936394 0.494301
0 0.991851 0.0917271 0.139058
0 0.991588 0.0919739 0.183214
0 0.992113 0.0914798 0.10205
0 0.991422 0.0922366 0.234847
0 0.987949 0.0935251 0.477209
0 0.987512 0.148282 8.86426
0 0.990545 0.092455 0.250784
0 0.989921 0.0932208 0.404022
0 0.988925 0.0936661 0.506476
0 0.989786 0.0933864 0.44792
0 0.988912 0.0936855 0.503908
0 0.991043 0.0921832 0.210968
0 0.992244 0.0910847 0.0380936
0 0.991861 0.0916543 0.119607
0 0.99156 0.0920132 0.17789
0 0.992118 0.0913666 0.0676483
0 0.992225 0.0911239 0.0244713
0 0.988016 0.0935088 0.470168
0 0.987564 0.147606 8.88568
0 0.990991 0.0923398 0.255506
0 0.989802 0.0932656 0.424981
0 0.990452 0.0928252 0.34359
0 0.988867 0.093694 0.50521
0 0.989721 0.0932859 0.432743
0 0.991936 0.0916453 0.129456
0 0.99177 0.0918508 0.166611
0 0.992127 0.0914418 0.0944645
0 0.991536 0.0920923 0.208334
0 0.991112 0.0924089 0.265879
0 0.988859 0.0936748 0.494639
0 0.987922 0.0934897 0.465593
0 0.987502 0.147649 8.77724
0 0.990555 0.0924722 0.275917
0 0.989933 0.0932036 0.411703
0 0.988909 0.0936263 0.483369
0 0.989772 0.0933456 0.428567
0 0.991049 0.0922127 0.212293
0 0.9915 0.0920989 0.185773
0 0.992151 0.0913454 0.0723046
0 0.99186 0.0916738 0.114543
0 0.992089 0.0914536 0.0773916
0 0.992091 0.0914712 0.0834516
0 0.99208 0.0914988 0.085112
0 0.988957 0.093537 0.524247
0 0.988084 0.093441 0.445844
0 0.987623 0.148292 8.867
0 0.990485 0.0926153 0.308432
0 0.989849 0.0932146 0.418144
0 0.989696 0.0934407 0.451819
0 0.990933 0.092412 0.266698
0 0.991867 0.091651 0.127004
0 0.991473 0.0920844 0.204125
0 0.988869 0.0936524 0.481309
0 0.987946 0.093502 0.453228
0 0.987496 0.147734 8.77376
0 0.990529 0.0924341 0.250664
0 0.989887 0.0931301 0.379817
0 0.989742 0.0933487 0.435766
0 0.991029 0.092194 0.191324
0 0.991552 0.0920294 0.171424
0 0.991908 0.091698 0.128976
0 0.991839 0.0918542 0.152848
0 0.991837 0.0917401 0.126582
0 0.991828 0.0918043 0.141056
0 0.988962 0.0935323 0.528448
0 0.988206 0.0933266 0.562529
0 0.987745 0.147589 8.66564
0 0.99046 0.092623 0.308257
0 0.989881 0.0931971 0.40797
0 0.991034 0.0922608 0.238809
0 0.991563 0.0919414 0.174945
0 0.98978 0.0933382 0.435688
0 0.988893 0.0937061 0.489845
0 0.987953 0.0935257 0.450784
0 0.987492 0.148671 8.89176
0 0.99052 0.0923973 0.214917
0 0.989897 0.0931622 0.386501
0 0.991029 0.0921711 0.18908
0 0.991478 0.0921142 0.190477
0 0.991513 0.092017 0.187177
0 0.991488 0.0920763 0.197356
0 0.991523 0.0920701 0.190534
0 0.991439 0.0921441 0.210089
0 0.98976 0.0933336 0.428823
0 0.988959 0.0935724 0.521689
0 0.988207 0.0933491 0.553076
0 0.987877 0.137156 6.88435
0 0.990513 0.0924931 0.288832
0 0.991068 0.092147 0.219622
0 0.989907 0.0932181 0.425016
0 0.988908 0.0937403 0.511504
0 0.987976 0.0935282 0.466669
0 0.987507 0.148741 8.89807
0 0.990522 0.0924253 0.240064
0 0.991021 0.0922004 0.213253
0 0.991055 0.092115 0.21507
0 0.99101 0.0921599 0.222829
0 0.991016 0.0921859 0.224106
0 0.989909 0.0931906 0.401227
0 0.988929 0.0936133 0.480353
0 0.988104 0.0934311 0.435612
0 0.987753 0.147995 8.6811
0 0.990549 0.0925098 0.299323
0 0.989756 0.093398 0.463461
0 0.988906 0.093669 0.515591
0 0.987979 0.0935655 0.489128
0 0.987541 0.148034 8.83675
0 0.990537 0.0924784 0.282928
0 0.990538 0.0924725 0.289977
0 0.990537 0.0924641 0.287339
0 0.989781 0.0933708 0.451918
0 0.988938 0.093611 0.494882
0 0.988049 0.0934553 0.462518
0 0.987653 0.148321 8.85732
0 0.989914 0.0932445 0.433188
0 0.988923 0.0936478 0.512364
0 0.988005 0.0935807 0.499016
0 0.987559 0.146158 8.84266
0 0.989775 0.0934086 0.450946
0 0.989927 0.0932226 0.427959
0 0.989923 0.0932343 0.421968
0 0.989785 0.0933971 0.45384
0 0.988938 0.0936637 0.514234
0 0.988036 0.0934513 0.479168
0 0.987615 0.147894 8.82785
0 0.988906 0.0936711 0.498102
0 0.987998 0.0935049 0.47842
0 0.987568 0.147588 8.86921
0 0.988919 0.0936671 0.485105
0 0.988946 0.0936665 0.504128
0 0.988915 0.0936579 0.488296
0 0.988011 0.0934367 0.471929
0 0.987601 0.146148 8.68494
0 0.987997 0.0934769 0.448894
0 0.987551 0.148027 8.81173
0 0.987996 0.0934474 0.439209
0 0.988016 0.0934386 0.454058
0 0.987584 0.14716 8.7201
0 0.987546 0.148071 8.81939
0 0.987562 0.147613 8.76056
VECTORS fa_u float
0.00844997 0.00347073 0
0.0078665 0.00455445 0
0.00868628 0.00230413 0
0.00701391 0.000907276 0
0.000454187 0.000125668 0
0.0071289 0.00543387 0
0.0050084 0.00499084 0
0.000426072 0.000221307 0
0.000355858 0.000299029 0
0.00540737 0.00707108 0
0.00450936 0.00780612 0
0.00870678 -1.03235e-05 0
0.0069806 -0.000916779 0
0.000589403 1.94446e-05 0
0.000545169 7.98131e-05 0
0.000512567 0.000112243 0
0.00043372 0.000178468 0
0.000377001 0.000442849 0
0.000461369 0.000365484 0
0.000390688 0.00026613 0
0.000381048 0.000349951 0
0.00348943 0.00834464 0
0.00186447 0.0070087 0
0.000279138 0.000347849 0
0.000161451 0.000429632 0
0.000542509 -0.000110794 0
0.00853073 -0.00226398 0
0.000579311 -4.40456e-05 0
0.00830876 -0.0034298 0
0.000523466 4.59445e-05 0
0.00054883 -2.20916e-05 0
0.00038105 8.05612e-05 0
0.00114187 0.00883505 0
0.000315719 0.00013039 0
0.000340278 0.000183128 0
0.000379552 0.000361992 0
0.00035873 0.000373411 0
0.000292361 0.000209487 0
0.000315812 0.000271583 0
8.95005e-05 0.000611797 0
0.000200148 0.000606553 0
0.00021785 0.000412303 0
0.000144057 0.000508854 0
2.59458e-05 0.00892608 0
0.000518158 -9.62693e-05 0
0.000463964 -0.000138941 0
0.000525105 -0.000133917 0
0.00775629 -0.00451273 0
0.000447618 -0.000227397 0
0.00698189 -0.00534653 0
0.000344772 3.95543e-06 0
0.000397297 -5.7597e-05 0
0.000177123 4.17504e-05 0
7.50861e-05 0.000469627 0
-2.32353e-05 0.000464923 0
0.000190786 9.52739e-05 0
0.000256161 0.000266225 0
0.000231263 0.000326387 0
0.000175707 0.000134803 0
0.000123215 0.00054818 0
0.000111082 0.000543713 0
0.000142379 0.000344594 0
0.000111249 0.000424352 0
-0.00114636 0.00875043 0
0.000337935 -0.000116731 0
0.000458533 -0.000215142 0
0.000387136 -0.000171028 0
0.000370472 -0.000321134 0
0.000425758 -0.000270888 0
0.00492568 -0.00492086 0
0.000390323 -0.000451395 0
0.00532168 -0.00693722 0
0.000163556 5.19383e-05 0
0.000179435 -4.67981e-05 0
0.000165647 7.92823e-07 0
-6.21326e-06 0.00048118 0
-9.36202e-05 0.000448036 0
-7.93376e-05 0.00046753 0
0.000159194 9.0802e-05 0
0.000167227 6.94146e-05 0
0.000127751 0.000176445 0
0.00013738 0.000126938 0
5.85076e-05 0.000379281 0
1.4607e-05 0.000413706 0
6.66739e-05 0.000218234 0
-0.00231055 0.00857715 0
0.000202671 -0.000102266 0
0.000330904 -0.000185256 0
0.000417144 -0.000364183 0
0.000360916 -0.000240958 0
0.000448111 -0.000348869 0
0.000397008 -0.000366558 0
0.00445399 -0.00763331 0
0.000270244 -0.000329724 0
0.00016947 2.85748e-05 0
0.00017917 -5.75932e-05 0
0.000179444 -1.82556e-05 0
0.000178888 -8.44806e-05 0
0.00342116 -0.0082212 0
-0.0001509 0.000427689 0
-5.30161e-05 0.000385338 0
-0.000141099 0.000436586 0
-0.000114583 0.000406358 0
0.000136298 5.17615e-05 0
0.000143747 0.000103448 0
9.13985e-05 0.000161371 0
0.000117642 0.000141309 0
2.40003e-06 0.000250861 0
4.4366e-05 0.000186813 0
-0.00339999 0.00817105 0
0.000207671 -0.000119914 0
0.000314957 -0.000244425 0
0.00034961 -0.000378387 0
0.000300705 -0.000314784 0
0.000185608 -0.000410043 0
0.000234076 -0.000401495 0
0.000124686 -0.000456336 0
0.000124855 2.44259e-05 0
0.000103298 6.40803e-05 0
0.000143667 -4.70339e-06 0
0.00017443 -5.18292e-05 0
0.000159803 -0.000114991 0
0.000170704 -9.15658e-05 0
0.000106855 -1.53477e-05 0
0.00230345 -0.00860358 0
-0.000201724 0.000412327 0
-0.000175825 0.000416464 0
-6.5488e-05 0.000290793 0
-0.000147645 0.00038912 0
9.45497e-05 0.000104988 0
6.79382e-05 0.000161468 0
-1.1508e-05 0.000208969 0
2.31752e-05 0.000176011 0
-0.000257686 0.000395617 0
-0.00444668 0.00767176 0
0.000160904 -0.000165057 0
0.000212851 -0.00032207 0
0.000146439 -0.000455316 0
0.000156492 -0.000386351 0
8.75444e-05 -0.000479808 0
0.000105428 -0.00048294 0
0.000115325 -0.00016016 0
5.3013e-05 8.63019e-05 0
6.86716e-05 3.16055e-05 0
0.000124913 -5.68311e-05 0
0.000133496 -0.000117818 0
9.25316e-05 -0.000164722 0
7.43803e-05 -5.25787e-05 0
3.58958e-05 -1.43675e-05 0
5.12817e-05 -0.000486769 0
0.00117703 -0.00890874 0
-6.09763e-05 0.000225987 0
-0.000226014 0.000408906 0
-0.000182605 0.00040007 0
-0.000110469 0.000299588 0
-0.000290132 0.000400196 0
2.99828e-05 0.000135787 0
-2.04635e-05 0.000182067 0
6.53892e-06 0.00010184 0
-7.51589e-05 0.000222496 0
-0.000312739 0.000360448 0
-0.00540181 0.00702821 0
9.57918e-05 -0.000231768 0
0.000100688 -0.000391275 0
7.79111e-05 -0.000500448 0
8.68059e-05 -0.000439428 0
4.33376e-05 -0.000502041 0
6.72732e-05 -0.000199955 0
1.13393e-06 3.80767e-05 0
6.82544e-05 -9.82202e-05 0
4.77901e-05 -0.00017135 0
2.25785e-05 -6.37691e-05 0
-2.06507e-05 -1.31297e-05 0
-1.55743e-05 -0.00046991 0
-7.30678e-06 -0.00888567 0
-0.000120333 0.000225395 0
-0.000219952 0.000363635 0
-0.000172101 0.000297381 0
-0.000360699 0.000353742 0
-0.000277339 0.000332188 0
-2.44783e-05 0.000127121 0
-6.07472e-05 0.000155142 0
-4.41205e-05 8.3528e-05 0
-0.00011149 0.000175991 0
-0.000162948 0.000210095 0
-0.000384365 0.000311338 0
-0.000346332 0.000311177 0
-0.00618537 0.00622745 0
5.90593e-05 -0.000269522 0
6.81003e-05 -0.000406032 0
-4.35935e-05 -0.0004814 0
2.36254e-05 -0.000427916 0
2.93711e-05 -0.000210251 0
-4.55694e-06 -0.000185717 0
-5.94078e-05 4.12149e-05 0
-1.81925e-06 -0.000114528 0
-2.53942e-05 -7.31067e-05 0
-8.3375e-05 -3.57412e-06 0
-6.75031e-05 -5.184e-05 0
-0.000160954 -0.000498927 0
-0.000112915 -0.000431309 0
-0.00118574 -0.00878736 0
-0.000197303 0.000237069 0
-0.00031013 0.000280469 0
-0.000367738 0.000262506 0
-0.000196561 0.000180254 0
-8.90808e-05 9.05248e-05 0
-0.000154056 0.000133918 0
-0.000414496 0.000244645 0
-0.000372577 0.000258072 0
-0.00695996 0.00534207 0
1.92783e-05 -0.000249922 0
-3.63042e-05 -0.000378078 0
-0.00013695 -0.000413687 0
-2.99804e-05 -0.000188961 0
-5.90236e-05 -0.000160942 0
-0.00011912 4.94484e-05 0
-0.000152836 -1.89942e-06 0
-7.48076e-05 -0.000102112 0
-0.000127749 -5.98082e-05 0
-0.000201023 -0.00048872 0
-0.000258437 -0.000499649 0
-0.00224196 -0.0083706 0
-0.000247589 0.000183636 0
-0.000362492 0.000187187 0
-0.000208667 0.000116139 0
-0.000159127 7.26933e-05 0
-0.000415469 0.000131185 0
-0.00045251 0.000187569 0
-0.00040593 0.000196028 0
-0.00771366 0.004423 0
-6.38634e-05 -0.000205209 0
-0.000177787 -0.000343184 0
-9.77809e-05 -0.000161833 0
-0.000117362 -0.000150025 0
-0.000185032 2.82515e-05 0
-0.000195336 -2.81682e-05 0
-0.000152024 -0.000114856 0
-0.000194609 -7.91479e-05 0
-0.000265285 -0.000336917 0
-0.00023027 -0.000468118 0
-0.000157511 -0.000530173 0
-0.00263278 -0.00636103 0
-0.000270346 0.000101672 0
-0.000211559 5.89629e-05 0
-0.000419031 7.10773e-05 0
-0.000499051 0.000112181 0
-0.000443854 0.000144128 0
-0.00822803 0.00338752 0
-0.000167082 -0.000172378 0
-0.000161686 -0.000139048 0
-0.00021507 1.50317e-07 0
-0.000214941 -5.8761e-05 0
-0.000195778 -0.000109061 0
-0.000305755 -0.000259801 0
-0.000317565 -0.000360404 0
-0.000221862 -0.00037488 0
-0.00433895 -0.00751897 0
-0.000297424 3.36596e-05 0
-0.000461983 3.69856e-05 0
-0.000511114 6.78027e-05 0
-0.000477239 0.000107188 0
-0.00854103 0.00226694 0
-0.000234406 -0.000158436 0
-0.000287391 -3.86386e-05 0
-0.000263718 -0.000114091 0
-0.000369436 -0.000260282 0
-0.000380812 -0.000316055 0
-0.000322536 -0.000331502 0
-0.00536113 -0.00705056 0
-0.000433144 -6.19366e-06 0
-0.000512176 1.38631e-05 0
-0.000497617 3.73407e-05 0
-0.00876629 0.00115962 0
-0.000446314 -6.44651e-05 0
-0.000367201 -0.000219801 0
-0.000403055 -0.000124915 0