# vtk DataFile Version 2.0
CellBP Time: 3.84
ASCII
DATASET UNSTRUCTURED_GRID
POINTS 296 double
-9.00925 -3.70287 0
-8.4414 -4.85296 0
-9.42082 -2.48817 0
-9.67081 -1.22883 0
-8.34089 -2.81278 0
-7.7298 -5.92019 0
-6.88397 -6.88433 0
-7.90143 -3.86689 0
-7.32804 -4.85802 0
-5.91962 -7.73009 0
-4.85293 -8.4423 0
-9.76895 0.0498668 0
-9.67132 1.32867 0
-8.64063 -1.68023 0
-8.77052 -0.527676 0
-7.57316 -1.99925 0
-7.20987 -2.89986 0
-6.62459 -5.76756 0
-5.81095 -6.58405 0
-6.77546 -3.88011 0
-6.20706 -4.66544 0
-3.70239 -9.00919 0
-2.48789 -9.42161 0
-4.89675 -7.29463 0
-3.90511 -7.87085 0
-8.77705 0.641371 0
-9.4219 2.58831 0
-8.60666 1.77043 0
-9.01129 3.80354 0
-7.72765 -0.926887 0
-7.7783 0.0803156 0
-6.93799 -1.313 0
-1.22993 -9.67208 0
-6.4282 -2.14835 0
-6.30567 -3.0494 0
-5.52454 -5.46249 0
-4.7854 -6.10207 0
-5.64719 -3.74887 0
-5.25777 -4.55136 0
-2.86013 -8.34737 0
-1.77469 -8.62269 0
-3.91961 -6.70882 0
-3.04963 -7.13702 0
0.0499239 -9.75685 0
-7.68904 1.14102 0
-8.32247 2.9098 0
-7.53524 2.10745 0
-8.44368 4.95386 0
-7.86498 3.97066 0
-7.73022 6.02013 0
-6.76473 -0.396169 0
-6.94174 0.551687 0
-5.76178 -1.00166 0
-0.589417 -8.79207 0
0.564851 -8.75364 0
-5.29406 -2.47603 0
-4.48233 -5.0848 0
-3.89387 -5.76258 0
-4.43105 -3.79811 0
-2.05756 -7.54552 0
-1.13285 -7.76891 0
-2.98778 -6.08893 0
-2.30358 -6.60514 0
1.32988 -9.67333 0
-6.67578 1.41942 0
-7.15652 3.11122 0
-6.64501 2.36786 0
-7.28098 4.97925 0
-6.70359 3.99463 0
-6.88478 6.98506 0
-6.56013 5.88316 0
-5.92023 7.83082 0
-4.44533 -1.17875 0
-5.80488 0.512919 0
-4.64808 -0.0100253 0
0.0083444 -7.83103 0
1.73581 -8.62726 0
0.947006 -7.74657 0
-4.03153 -2.40206 0
-3.47878 -1.38821 0
-3.28838 -4.79698 0
-3.25995 -3.26175 0
-1.37549 -6.66166 0
-0.507745 -7.01023 0
-1.9717 -5.52734 0
2.58798 -9.42265 0
-5.49825 2.0336 0
-6.08215 3.06572 0
-6.09187 4.85923 0
-5.74919 3.98306 0
-5.75059 6.70476 0
-5.4403 5.60748 0
-4.85365 8.54363 0
-4.82944 7.39102 0
-3.49475 -0.423032 0
-4.44137 1.24715 0
-3.70428 0.591473 0
-4.05506 2.31607 0
-3.70277 9.11037 0
2.85769 -8.31723 0
0.418942 -6.78103 0
2.01796 -7.51026 0
1.30318 -6.89072 0
-2.43975 -0.87171 0
-2.83287 -2.12671 0
-2.29008 -4.09004 0
-2.32095 -2.96758 0
-0.44112 -5.85079 0
-1.22028 -4.49114 0
3.8031 -9.01158 0
-4.78182 3.38625 0
-5.07722 4.5847 0
-4.63714 6.26817 0
-4.52884 5.34808 0
-3.83657 7.97873 0
-3.81839 6.83146 0
-2.77808 8.40744 0
-1.64474 -0.137073 0
-1.44666 -0.888122 0
-2.48404 0.506937 0
-3.24717 1.44188 0
-3.23322 3.31112 0
-2.90497 2.36757 0
-1.35153 0.626199 0
-2.48806 9.52288 0
3.9258 -7.87238 0
2.95896 -7.1433 0
0.952662 -5.81104 0
2.06986 -6.40171 0
-1.67955 -1.98789 0
-1.43162 -3.27126 0
0.0904711 -4.73866 0
-0.564989 -3.68752 0
4.92337 -7.3051 0
4.95296 -8.443 0
-3.7707 4.54419 0
-3.72686 5.74024 0
-2.88176 7.27466 0
-3.0031 6.34028 0
-1.65947 8.71776 0
-1.93586 7.60363 0
-2.33423 4.04494 0
-0.728909 -1.32394 0
-0.834618 -0.256567 0
-1.93205 1.67809 0
-2.12134 2.87066 0
-1.30359 3.53796 0
-0.86713 1.34829 0
-0.281361 0.455125 0
-0.532513 8.85561 0
-1.22989 9.77331 0
1.11092 -4.56636 0
3.90274 -6.70363 0
2.98192 -6.08116 0
2.11434 -5.41446 0
4.77517 -6.19227 0
-0.557724 -2.47163 0
0.494494 -3.45708 0
0.0536417 -1.60667 0
1.47917 -3.67431 0
5.85704 -6.60235 0
6.01962 -7.7303 0
-2.47172 5.33977 0
-2.12602 6.52128 0
-0.902086 7.78713 0
-1.26949 6.91756 0
0.0862145 7.86395 0
-1.14229 4.48703 0
0.150102 -0.616342 0
-0.795404 2.48413 0
-0.33042 3.59381 0
0.0635178 1.5097 0
0.740215 0.472465 0
0.645658 8.85844 0
0.0500929 9.85796 0
2.37674 -4.2776 0
3.85198 -5.62851 0
2.99563 -5.20285 0
5.5628 -5.48054 0
4.68226 -5.27244 0
0.628632 -2.28867 0
1.25381 -2.94571 0
0.755602 -1.38842 0
2.16009 -3.12978 0
2.98787 -3.4696 0
6.14347 -4.78195 0
6.64554 -5.75891 0
6.98541 -6.88452 0
-1.01802 5.81102 0
-0.371625 6.86998 0
1.12028 7.75357 0
0.55691 7.06529 0
-0.000515554 4.71706 0
0.606216 3.82034 0
1.33627 -0.640624 0
0.538591 2.64612 0
0.964676 1.57158 0
1.90653 0.213266 0
1.61175 1.06254 0
2.12499 7.56814 0
1.79606 8.69726 0
1.33019 9.77301 0
3.8162 -4.34402 0
5.10686 -4.44022 0
5.8343 -3.92682 0
3.77712 -3.19523 0
1.80868 -1.87949 0
3.0134 -2.56949 0
6.7706 -3.94027 0
7.36991 -4.88902 0
7.83964 -5.9269 0
0.482554 5.87234 0
1.42549 6.72872 0
2.36926 6.65498 0
1.20807 4.54844 0
1.48566 3.39105 0
2.43094 -0.690602 0
2.82205 0.142067 0
1.78579 2.15851 0
2.60683 1.1475 0
3.06571 7.15542 0
2.89921 8.36291 0
2.58897 9.52461 0
4.90328 -3.32219 0
6.10945 -3.10275 0
4.16567 -2.27166 0
3.23844 -1.5007 0
6.71855 -2.3087 0
7.21798 -3.03646 0
7.95181 -3.90581 0
8.54683 -4.85618 0
2.02054 5.59127 0
3.08057 6.14134 0
2.36026 4.1201 0
2.41572 3.05481 0
3.51886 -0.460311 0
3.60863 0.611862 0
2.95629 2.28349 0
3.53868 1.5221 0
4.00421 5.88646 0
3.97707 6.77961 0
3.96708 7.92595 0
3.80393 9.11316 0
5.56047 -1.9131 0
4.5021 -1.128 0
6.70146 -1.33393 0
7.57774 -2.03287 0
8.38349 -2.85698 0
9.11545 -3.7054 0
3.41396 4.86985 0
3.33367 3.37981 0
4.68419 0.129665 0
4.51217 1.30766 0
4.05895 2.43977 0
4.56211 5.14312 0
4.83458 6.17917 0
4.97264 7.36878 0
4.95353 8.5437 0
5.8747 -0.434146 0
6.99762 -0.487386 0
7.74523 -1.08336 0
8.67104 -1.74314 0
9.52173 -2.48822 0
4.5458 3.82203 0
5.80945 1.09702 0
5.36367 2.53128 0
5.37025 4.6121 0
5.60222 5.51352 0
5.88818 6.66169 0
6.02007 7.83052 0
6.83396 0.462828 0
7.83942 -0.0257275 0
8.84688 -0.583249 0
9.77484 -1.23004 0
6.94785 1.34705 0
5.71117 3.77177 0
6.53019 2.19362 0
6.36887 3.0823 0
6.28131 4.67861 0
6.68315 5.82938 0
6.98484 6.98473 0
7.77055 0.965971 0
8.84619 0.571978 0
9.85803 0.049913 0
7.60293 2.00069 0
6.81749 3.89722 0
7.25695 2.9417 0
7.36767 4.87865 0
7.8328 6.02225 0
8.71003 1.72461 0
9.77292 1.33011 0
8.40881 2.83397 0
7.9704 3.91048 0
8.54379 4.95351 0
9.52378 2.58927 0
9.1182 3.80616 0
CELLS 542 2168
3 2 0 4
3 0 1 7
3 4 0 7
3 1 5 8
3 7 1 8
3 3 2 13
3 13 2 4
3 11 3 14
3 14 3 13
3 13 4 15
3 4 7 16
3 15 4 16
3 5 6 17
3 8 5 17
3 6 9 18
3 17 6 18
3 7 8 19
3 16 7 19
3 8 17 20
3 19 8 20
3 9 10 23
3 18 9 23
3 10 21 24
3 23 10 24
3 12 11 25
3 25 11 14
3 26 12 27
3 27 12 25
3 14 13 29
3 29 13 15
3 25 14 30
3 30 14 29
3 29 15 31
3 15 16 33
3 31 15 33
3 16 19 34
3 33 16 34
3 17 18 35
3 20 17 35
3 18 23 36
3 35 18 36
3 19 20 37
3 34 19 37
3 20 35 38
3 37 20 38
3 21 22 39
3 24 21 39
3 22 32 40
3 39 22 40
3 23 24 41
3 36 23 41
3 24 39 42
3 41 24 42
3 27 25 44
3 44 25 30
3 28 26 45
3 45 26 27
3 45 27 46
3 46 27 44
3 47 28 48
3 48 28 45
3 30 29 50
3 50 29 31
3 44 30 51
3 51 30 50
3 50 31 52
3 31 33 52
3 32 43 53
3 40 32 53
3 53 43 54
3 33 34 55
3 34 37 55
3 33 55 52
3 35 36 56
3 38 35 56
3 36 41 57
3 56 36 57
3 37 38 58
3 38 56 58
3 37 58 55
3 39 40 59
3 42 39 59
3 40 53 60
3 59 40 60
3 41 42 61
3 57 41 61
3 42 59 62
3 61 42 62
3 43 63 54
3 46 44 64
3 64 44 51
3 48 45 65
3 65 45 46
3 65 46 66
3 66 46 64
3 49 47 67
3 67 47 48
3 67 48 68
3 68 48 65
3 69 49 70
3 70 49 67
3 52 55 72
3 64 51 73
3 51 50 73
3 50 52 73
3 73 52 74
3 74 52 72
3 53 54 75
3 60 53 75
3 54 63 76
3 54 76 77
3 75 54 77
3 55 58 78
3 72 55 78
3 72 78 79
3 56 57 80
3 57 61 80
3 56 80 58
3 58 80 81
3 78 58 81
3 59 60 82
3 62 59 82
3 60 75 83
3 82 60 83
3 61 62 84
3 62 82 84
3 61 84 80
3 63 85 76
3 66 64 86
3 64 73 86
3 68 65 87
3 87 65 66
3 87 66 86
3 70 67 88
3 88 67 68
3 88 68 89
3 89 68 87
3 71 69 90
3 90 69 70
3 90 70 91
3 91 70 88
3 92 71 93
3 93 71 90
3 74 72 94
3 94 72 79
3 86 73 95
3 95 73 74
3 95 74 96
3 96 74 94
3 97 86 95
3 76 85 99
3 75 77 100
3 83 75 100
3 76 99 101
3 77 76 101
3 77 101 102
3 100 77 102
3 94 79 103
3 78 81 104
3 79 78 104
3 79 104 103
3 80 84 105
3 81 80 105
3 81 105 106
3 104 81 106
3 82 83 107
3 83 100 107
3 82 107 84
3 84 107 108
3 105 84 108
3 85 109 99
3 89 87 110
3 87 86 110
3 110 86 97
3 91 88 111
3 111 88 89
3 111 89 110
3 93 90 112
3 112 90 91
3 112 91 113
3 113 91 111
3 98 92 114
3 114 92 93
3 114 93 115
3 115 93 112
3 116 98 114
3 117 103 118
3 96 94 119
3 94 103 119
3 119 103 117
3 97 95 120
3 120 95 96
3 120 96 119
3 121 110 97
3 121 97 122
3 122 97 120
3 123 119 117
3 124 98 116
3 99 109 125
3 99 125 126
3 101 99 126
3 100 102 127
3 100 127 107
3 101 126 128
3 102 101 128
3 102 128 127
3 104 106 129
3 104 129 103
3 103 129 118
3 105 108 130
3 106 105 130
3 106 130 129
3 107 127 131
3 108 107 131
3 108 131 132
3 108 132 130
3 109 134 125
3 125 134 133
3 113 111 135
3 111 110 135
3 135 110 121
3 115 112 136
3 136 112 113
3 136 113 135
3 116 114 137
3 137 114 115
3 137 115 138
3 138 115 136
3 139 124 116
3 139 116 140
3 140 116 137
3 141 135 121
3 118 129 142
3 118 142 143
3 117 118 143
3 123 117 143
3 122 120 144
3 120 119 144
3 144 119 123
3 141 121 145
3 145 121 122
3 145 122 144
3 146 141 145
3 147 144 123
3 147 123 148
3 143 148 123
3 150 124 139
3 149 150 139
3 131 127 151
3 125 133 152
3 126 125 152
3 126 152 153
3 128 126 153
3 128 153 154
3 128 154 127
3 127 154 151
3 152 133 155
3 130 132 156
3 130 156 129
3 129 156 142
3 131 151 157
3 132 131 157
3 132 157 156
3 156 158 142
3 157 151 159
3 133 160 155
3 134 161 133
3 133 161 160
3 138 136 162
3 136 135 162
3 162 135 141
3 140 137 163
3 163 137 138
3 163 138 162
3 149 139 164
3 164 139 140
3 164 140 165
3 165 140 163
3 166 149 164
3 167 162 141
3 167 141 146
3 142 158 168
3 143 142 168
3 143 168 148
3 146 145 169
3 145 144 169
3 169 144 147
3 170 167 146
3 170 146 169
3 171 169 147
3 171 147 148
3 171 148 172
3 168 172 148
3 173 149 166
3 174 150 149
3 173 174 149
3 154 175 151
3 151 175 159
3 152 155 176
3 153 152 176
3 153 176 177
3 153 177 154
3 154 177 175
3 155 160 178
3 155 178 179
3 176 155 179
3 156 157 180
3 156 180 158
3 157 159 181
3 157 181 180
3 158 180 182
3 158 182 168
3 159 175 183
3 159 183 181
3 175 184 183
3 160 186 178
3 178 186 185
3 161 187 160
3 160 187 186
3 165 163 188
3 163 162 188
3 188 162 167
3 166 164 189
3 189 164 165
3 189 165 188
3 190 173 166
3 190 166 191
3 191 166 189
3 192 188 167
3 192 167 170
3 193 192 170
3 182 194 168
3 194 172 168
3 193 170 195
3 170 169 195
3 195 169 171
3 196 195 171
3 196 171 172
3 194 197 172
3 197 198 172
3 198 196 172
3 200 173 190
3 199 200 190
3 201 174 173
3 200 201 173
3 176 179 202
3 177 176 202
3 177 202 175
3 175 202 184
3 178 185 203
3 178 203 179
3 179 203 202
3 203 185 204
3 202 205 184
3 183 206 181
3 180 181 206
3 180 206 182
3 182 206 194
3 183 184 207
3 205 207 184
3 183 207 206
3 185 208 204
3 186 209 185
3 185 209 208
3 187 210 186
3 186 210 209
3 191 189 211
3 189 188 211
3 211 188 192
3 199 190 212
3 212 190 191
3 212 191 211
3 213 199 212
3 214 211 192
3 214 192 193
3 215 214 193
3 215 193 195
3 206 216 194
3 216 197 194
3 216 217 197
3 215 195 218
3 218 195 196
3 198 218 196
3 217 219 197
3 219 218 198
3 197 219 198
3 220 199 213
3 221 200 199
3 220 221 199
3 222 201 200
3 221 222 200
3 203 204 223
3 203 223 202
3 202 223 205
3 204 208 224
3 204 224 223
3 205 223 225
3 205 225 207
3 207 225 226
3 207 226 206
3 226 216 206
3 208 228 224
3 224 228 227
3 209 229 208
3 229 228 208
3 210 230 209
3 209 230 229
3 213 212 231
3 212 211 231
3 231 211 214
3 232 220 213
3 232 213 231
3 233 231 214
3 233 214 215
3 234 233 215
3 234 215 218
3 226 235 216
3 235 217 216
3 235 236 217
3 217 236 219
3 237 234 218
3 237 218 219
3 236 238 219
3 238 237 219
3 240 220 232
3 239 240 232
3 241 221 220
3 240 241 220
3 242 222 221
3 241 242 221
3 224 227 243
3 224 243 223
3 223 243 225
3 225 243 244
3 225 244 226
3 226 244 235
3 227 245 243
3 228 246 227
3 227 246 245
3 229 247 228
3 228 247 246
3 230 248 229
3 229 248 247
3 239 232 249
3 232 231 249
3 249 231 233
3 250 249 233
3 250 233 234
3 237 250 234
3 244 251 235
3 235 251 236
3 251 252 236
3 236 252 238
3 252 253 238
3 253 250 237
3 253 237 238
3 254 239 249
3 255 240 239
3 254 255 239
3 256 241 240
3 255 256 240
3 257 242 241
3 256 257 241
3 245 258 243
3 243 258 244
3 244 258 251
3 245 259 258
3 246 260 245
3 245 260 259
3 247 261 246
3 246 261 260
3 248 262 247
3 247 262 261
3 254 249 263
3 263 249 250
3 253 263 250
3 258 264 251
3 251 264 252
3 264 265 252
3 265 263 253
3 252 265 253
3 266 254 263
3 267 255 254
3 266 267 254
3 268 256 255
3 267 268 255
3 269 257 256
3 268 269 256
3 259 270 258
3 270 264 258
3 260 271 259
3 259 271 270
3 261 272 260
3 260 272 271
3 262 273 261
3 273 272 261
3 270 274 264
3 275 266 263
3 275 263 265
3 274 276 264
3 276 265 264
3 276 277 265
3 277 275 265
3 278 267 266
3 275 278 266
3 279 268 267
3 278 279 267
3 280 269 268
3 279 280 268
3 271 281 270
3 270 281 274
3 272 282 271
3 271 282 281
3 273 283 272
3 272 283 282
3 281 284 274
3 274 284 276
3 285 278 275
3 277 285 275
3 284 286 276
3 286 285 277
3 276 286 277
3 287 279 278
3 285 287 278
3 288 280 279
3 287 288 279
3 282 289 281
3 281 289 284
3 283 290 282
3 282 290 289
3 289 291 284
3 284 291 286
3 291 292 286
3 292 287 285
3 286 292 285
3 293 288 287
3 292 293 287
3 290 294 289
3 289 294 291
3 294 295 291
3 295 293 292
3 291 295 292
CELL_TYPES 542
5
5
5
5
5
5
5
5
5
5
5
5
5
5
5
5
5
5
5
5
5
5
5
5
5
5
5
5
5
5
5
5
5
5
5
5
5
5
5
5
5
5
5
5
5
5
5
5
5
5
5
5
5
5
5
5
5
5
5
5
5
5
5
5
5
5
5
5
5
5
5
5
5
5
5
5
5
5
5
5
5
5
5
5
5
5
5
5
5
5
5
5
5
5
5
5
5
5
5
5
5
5
5
5
5
5
5
5
5
5
5
5
5
5
5
5
5
5
5
5
5
5
5
5
5
5
5
5
5
5
5
5
5
5
5
5
5
5
5
5
5
5
5
5
5
5
5
5
5
5
5
5
5
5
5
5
5
5
5
5
5
5
5
5
5
5
5
5
5
5
5
5
5
5
5
5
5
5
5
5
5
5
5
5
5
5
5
5
5
5
5
5
5
5
5
5
5
5
5
5
5
5
5
5
5
5
5
5
5
5
5
5
5
5
5
5
5
5
5
5
5
5
5
5
5
5
5
5
5
5
5
5
5
5
5
5
5
5
5
5
5
5
5
5
5
5
5
5
5
5
5
5
5
5
5
5
5
5
5
5
5
5
5
5
5
5
5
5
5
5
5
5
5
5
5
5
5
5
5
5
5
5
5
5
5
5
5
5
5
5
5
5
5
5
5
5
5
5
5
5
5
5
5
5
5
5
5
5
5
5
5
5
5
5
5
5
5
5
5
5
5
5
5
5
5
5
5
5
5
5
5
5
5
5
5
5
5
5
5
5
5
5
5
5
5
5
5
5
5
5
5
5
5
5
5
5
5
5
5
5
5
5
5
5
5
5
5
5
5
5
5
5
5
5
5
5
5
5
5
5
5
5
5
5
5
5
5
5
5
5
5
5
5
5
5
5
5
5
5
5
5
5
5
5
5
5
5
5
5
5
5
5
5
5
5
5
5
5
5
5
5
5
5
5
5
5
5
5
5
5
5
5
5
5
5
5
5
5
5
5
5
5
5
5
5
5
5
5
5
5
5
5
5
5
5
5
5
5
5
5
5
5
5
5
5
5
5
5
5
5
5
5
5
5
5
5
5
5
5
5
5
5
5
5
5
5
5
5
5
5
5
5
5
5
5
5
5
5
5
5
5
5
5
5
5
5
5
5
5
5
5
5
5
5
5
5
5
5
5
5
5
5
5
5
5
5
5
5
5
5
5
5
5
5
5
5
5
5
5
5
5
5
POINT_DATA 296
SCALARS concentrations float 4
LOOKUP_TABLE default
0 0.959999 0.15493 8.47121
0 0.959995 0.15472 8.44817
0 0.960002 0.154488 8.41657
0 0.960016 0.153864 8.36229
0 0.960404 0.0935128 0.445734
0 0.959989 0.154268 8.39138
0 0.959988 0.153889 8.36356
0 0.960412 0.0934952 0.451343
0 0.960396 0.0934999 0.443544
0 0.959988 0.152754 8.41299
0 0.959986 0.153988 8.37676
0 0.96003 0.15199 8.32448
0 0.960032 0.153443 8.31642
0 0.960418 0.0934874 0.430764
0 0.960421 0.0934452 0.421912
0 0.961159 0.0933523 0.411219
0 0.961145 0.0933288 0.415292
0 0.960399 0.0934538 0.42416
0 0.96039 0.093474 0.425128
0 0.961152 0.0933304 0.416319
0 0.961133 0.093317 0.405361
0 0.959983 0.154918 8.46408
0 0.959992 0.155563 8.54159
0 0.960397 0.0934706 0.426007
0 0.960389 0.0934648 0.428707
0 0.960434 0.0934351 0.420211
0 0.960037 0.1531 8.26549
0 0.960422 0.0934296 0.419982
0 0.960048 0.153506 8.32101
0 0.96115 0.0933486 0.404322
0 0.961162 0.093275 0.391973
0 0.961842 0.0930554 0.357507
0 0.960016 0.153887 8.36691
0 0.961948 0.0929235 0.340068
0 0.961827 0.0930778 0.371113
0 0.96113 0.0933114 0.397709
0 0.96112 0.0933088 0.396633
0 0.96194 0.0929509 0.344734
0 0.961804 0.0931144 0.367728
0 0.960408 0.093515 0.445966
0 0.960403 0.0935624 0.461237
0 0.961127 0.0933139 0.399759
0 0.961117 0.0933195 0.406949
0 0.960035 0.153348 8.30963
0 0.96116 0.0933347 0.402841
0 0.960439 0.0934323 0.427606
0 0.961167 0.093374 0.413277
0 0.960063 0.15273 8.29191
0 0.960446 0.0934088 0.430117
0 0.960072 0.152779 8.24473
0 0.961945 0.0929482 0.335696
0 0.961834 0.0930768 0.357844
0 0.962455 0.0923167 0.232319
0 0.960435 0.0935098 0.451106
0 0.960421 0.0934487 0.438928
0 0.962456 0.0923338 0.240881
0 0.961926 0.0929873 0.342418
0 0.961803 0.0931032 0.362419
0 0.962445 0.0923737 0.243001
0 0.961156 0.0933255 0.416267
0 0.961178 0.0933207 0.41773
0 0.961926 0.0930184 0.352943
0 0.961809 0.0931382 0.379823
0 0.960057 0.152503 8.21005
0 0.961969 0.0929323 0.33604
0 0.961167 0.0933425 0.412925
0 0.961853 0.0930915 0.36725
0 0.960465 0.0933754 0.421234
0 0.961188 0.0932834 0.403683
0 0.960079 0.152644 8.22569
0 0.960463 0.0933512 0.412648
0 0.960086 0.152687 8.23043
0 0.962864 0.0920685 0.196176
0 0.962463 0.0923227 0.230981
0 0.962877 0.09207 0.193896
0 0.961184 0.0933144 0.414674
0 0.960458 0.0933858 0.424362
0 0.961163 0.0933069 0.411171
0 0.96287 0.0920784 0.198364
0 0.96323 0.0919614 0.18279
0 0.962443 0.0923858 0.242819
0 0.962862 0.0921113 0.202313
0 0.961952 0.092926 0.347946
0 0.961836 0.0930087 0.363205
0 0.962459 0.0923956 0.252523
0 0.960084 0.152987 8.24556
0 0.962468 0.0923025 0.232331
0 0.961972 0.0929448 0.343611
0 0.961185 0.0933019 0.404542
0 0.961862 0.0930795 0.367722
0 0.960475 0.0933431 0.411257
0 0.961195 0.0932977 0.403604
0 0.960092 0.152567 8.23523
0 0.960475 0.0933379 0.414383
0 0.963289 0.091887 0.171078
0 0.962871 0.0920807 0.196511
0 0.963247 0.0919411 0.177402
0 0.962888 0.0920608 0.19688
0 0.960095 0.153057 8.2755
0 0.960486 0.0933534 0.408047
0 0.961939 0.092974 0.354267
0 0.961174 0.0931989 0.38811
0 0.961813 0.0930805 0.369552
0 0.963525 0.0916595 0.138026
0 0.963284 0.0919108 0.175232
0 0.962875 0.0921222 0.204167
0 0.963238 0.0919945 0.186793
0 0.962477 0.0924051 0.259801
0 0.962893 0.0921001 0.205471
0 0.9601 0.152627 8.21262
0 0.962488 0.0923085 0.238461
0 0.96199 0.0929731 0.350472
0 0.96119 0.0932895 0.404676
0 0.961866 0.0931321 0.378617
0 0.960485 0.0933517 0.419394
0 0.961203 0.0932751 0.404319
0 0.960485 0.0933484 0.419005
0 0.963721 0.0915117 0.115607
0 0.963728 0.0915078 0.114223
0 0.963536 0.091623 0.130965
0 0.963303 0.0918866 0.170634
0 0.962889 0.0920482 0.198712
0 0.963256 0.0919552 0.183413
0 0.963765 0.0914088 0.0974072
0 0.960098 0.152897 8.25746
0 0.960512 0.0933447 0.394692
0 0.961232 0.0931324 0.373229
0 0.962468 0.0925041 0.272194
0 0.961922 0.0930048 0.355995
0 0.963544 0.0916653 0.137305
0 0.963301 0.0919174 0.175466
0 0.962937 0.0921023 0.207463
0 0.963274 0.0919051 0.174565
0 0.96051 0.0934615 0.486961
0 0.960095 0.152693 8.28939
0 0.9625 0.0923125 0.242448
0 0.961992 0.0929808 0.354609
0 0.961202 0.093269 0.403639
0 0.961875 0.0930803 0.371694
0 0.960494 0.0933504 0.418918
0 0.96121 0.0932523 0.400872
0 0.962906 0.0920422 0.198535
0 0.963779 0.0914214 0.0964889
0 0.963863 0.0912316 0.0684479
0 0.963558 0.0916025 0.127112
0 0.963322 0.0918785 0.172243
0 0.963273 0.0919576 0.185148
0 0.963763 0.0913741 0.0891814
0 0.963886 0.0910666 0.0386661
0 0.96049 0.0933451 0.418892
0 0.9601 0.153293 8.30042
0 0.962922 0.0921202 0.206607
0 0.96126 0.0931632 0.415509
0 0.961905 0.0930657 0.381712
0 0.962526 0.0925091 0.273006
0 0.961218 0.0932391 0.442567
0 0.963568 0.0916517 0.132921
0 0.96335 0.0918726 0.168306
0 0.963786 0.0914322 0.0943034
0 0.963217 0.0920991 0.203963
0 0.960391 0.0934897 0.514262
0 0.960085 0.149847 8.48855
0 0.962505 0.0922977 0.240261
0 0.961997 0.0929341 0.347268
0 0.961207 0.0932655 0.40402
0 0.961877 0.0930629 0.369572
0 0.961208 0.0932911 0.409491
0 0.962895 0.0920565 0.200751
0 0.96389 0.091074 0.0308357
0 0.963574 0.0915823 0.122525
0 0.963321 0.0919101 0.175942
0 0.963786 0.091319 0.077107
0 0.96387 0.0911116 0.0366698
0 0.960499 0.093322 0.416257
0 0.960107 0.152503 8.21549
0 0.962872 0.0921728 0.216333
0 0.961956 0.0929461 0.371441
0 0.962444 0.0925839 0.297062
0 0.961101 0.0932921 0.42672
0 0.9619 0.0929573 0.365704
0 0.963642 0.0915832 0.119605
0 0.963507 0.0917654 0.149419
0 0.963794 0.0914052 0.0871977
0 0.963322 0.0919723 0.185563
0 0.962992 0.09224 0.235144
0 0.961023 0.0932076 0.382745
0 0.959788 0.0933815 0.504194
0 0.959591 0.151863 8.12635
0 0.962495 0.0922966 0.240665
0 0.962001 0.0929165 0.345673
0 0.961201 0.0932758 0.406873
0 0.961894 0.0930545 0.36931
0 0.962895 0.092086 0.204892
0 0.963264 0.0919901 0.187678
0 0.96381 0.0913182 0.070567
0 0.963568 0.0916057 0.123292
0 0.963758 0.0914081 0.0902457
0 0.963758 0.0914326 0.0912344
0 0.963749 0.0914531 0.0971464
0 0.961211 0.0932766 0.404731
0 0.9605 0.093305 0.41275
0 0.960113 0.152685 8.23612
0 0.962501 0.0923983 0.263051
0 0.961995 0.0928818 0.340822
0 0.961866 0.093054 0.353701
0 0.962867 0.0922418 0.24123
0 0.963588 0.0915904 0.121579
0 0.963284 0.091969 0.193329
0 0.961084 0.0932014 0.379617
0 0.95982 0.093332 0.54224
0 0.958787 0.141506 9.55251
0 0.962486 0.0922819 0.237942
0 0.962 0.0929205 0.345424
0 0.961885 0.0931531 0.383263
0 0.962881 0.0920759 0.20226
0 0.963305 0.0919262 0.178387
0 0.963616 0.0916381 0.129546
0 0.963556 0.0917815 0.155154
0 0.963546 0.0916649 0.136478
0 0.963545 0.0917282 0.149651
0 0.961198 0.0932949 0.404052
0 0.960504 0.0932413 0.397553
0 0.960123 0.151754 8.13122
0 0.962499 0.0924052 0.265891
0 0.962036 0.092875 0.329793
0 0.962947 0.0921156 0.223244
0 0.96335 0.0918487 0.17228
0 0.961967 0.0930002 0.360008
0 0.961254 0.0932691 0.413819
0 0.960416 0.0933247 0.448642
0 0.959626 0.153522 8.20525
0 0.9625 0.0922812 0.238017
0 0.962023 0.0929801 0.355084
0 0.96289 0.0920512 0.203913
0 0.96325 0.0919981 0.199803
0 0.9633 0.0919185 0.181712
0 0.963279 0.0919708 0.194206
0 0.963301 0.0919578 0.19835
0 0.963243 0.0920273 0.211874
0 0.961937 0.0930833 0.371568
0 0.961238 0.0932863 0.399143
0 0.960517 0.0932329 0.389357
0 0.960136 0.15108 8.05291
0 0.962539 0.0923054 0.250767
0 0.96296 0.09202 0.203682
0 0.962058 0.0929146 0.344523
0 0.961282 0.0933017 0.407764
0 0.960555 0.0933264 0.426451
0 0.960126 0.153419 8.34063
0 0.96252 0.0922822 0.246719
0 0.962905 0.0920696 0.221062
0 0.962942 0.0919931 0.196976
0 0.962916 0.0920336 0.213684
0 0.96292 0.0920543 0.224099
0 0.962057 0.0929143 0.346749
0 0.961261 0.0932443 0.397522
0 0.960549 0.0932739 0.397632
0 0.960148 0.152031 8.16364
0 0.962549 0.0923251 0.249204
0 0.961928 0.0930615 0.363328
0 0.961269 0.0932419 0.388035
0 0.960548 0.0933117 0.402288
0 0.960168 0.152464 8.2353
0 0.962548 0.0923027 0.25821
0 0.962548 0.0922982 0.249896
0 0.962558 0.0922868 0.257451
0 0.961945 0.0930331 0.35368
0 0.961275 0.0931989 0.399446
0 0.960568 0.0932663 0.412167
0 0.960173 0.152646 8.25071
0 0.96205 0.0929408 0.347031
0 0.961274 0.0932211 0.382412
0 0.960556 0.0933064 0.391894
0 0.960163 0.151948 8.15564
0 0.961954 0.0930748 0.369814
0 0.962056 0.0928932 0.336187
0 0.962069 0.092926 0.342034
0 0.961944 0.0930289 0.352683
0 0.961142 0.0932167 0.38181
0 0.960461 0.093224 0.429872
0 0.960161 0.152302 8.21179
0 0.96127 0.0932565 0.394861
0 0.960557 0.0933029 0.396879
0 0.960165 0.152054 8.21677
0 0.961275 0.0932501 0.405484
0 0.961102 0.0931876 0.385939
0 0.961142 0.0932207 0.387632
0 0.959873 0.093268 0.526128
0 0.959701 0.150892 7.94729
0 0.960572 0.0932908 0.41348
0 0.960178 0.152408 8.22882
0 0.960468 0.0932675 0.434004
0 0.959923 0.0932927 0.513701
0 0.958908 0.140957 9.47031
0 0.960162 0.152568 8.24953
0 0.959732 0.152195 8.08456
VECTORS fa_u float
0.00783615 0.00321809 0
0.00732553 0.00420812 0
0.00813783 0.0021481 0
0.00828663 0.00112239 0
0.000420216 0.000148653 0
0.0066661 0.00509691 0
0.00592218 0.00590566 0
0.000405888 0.000197397 0
0.000371371 0.000242518 0
0.00513282 0.00666578 0
0.00419847 0.00724865 0
0.00832448 -7.87954e-06 0
0.0082392 -0.00113064 0
0.000422653 8.31951e-05 0
0.000420809 3.04866e-05 0
0.00039395 0.000117918 0
0.000383386 0.000159633 0
0.000321527 0.000276645 0
0.00028365 0.000316666 0
0.000361056 0.000207268 0
0.000325799 0.00024119 0
0.00324853 0.00781586 0
0.00221412 0.00824963 0
0.00024278 0.000350058 0
0.000196629 0.000380955 0
0.000419296 -2.77234e-05 0
0.00798859 -0.0021215 0
0.000412083 -8.10698e-05 0
0.0076921 -0.00317346 0
0.000401518 4.75378e-05 0
0.000391951 4.13986e-06 0
0.00035017 7.20572e-05 0
0.00109118 0.00829545 0
0.000319217 0.000117246 0
0.000334304 0.00016114 0
0.000283934 0.000278485 0
0.000246705 0.000310571 0
0.000288863 0.000188148 0
0.000281983 0.000236029 0
0.00014596 0.000421404 0
9.29549e-05 0.000451774 0
0.000198995 0.000346711 0
0.000159694 0.000374307 0
-2.61777e-06 0.00830963 0
0.00039927 -5.35165e-05 0
0.00040208 -0.000145529 0
0.000398636 -0.00010903 0
0.00717967 -0.00414828 0
0.000382095 -0.000197495 0
0.00654022 -0.00502007 0
0.000335082 2.02824e-05 0
0.000357364 -1.85189e-05 0
0.000227865 4.52741e-05 0
3.67678e-05 0.000449605 0
-1.41861e-05 0.000438699 0
0.000219252 9.97611e-05 0
0.00023122 0.000252562 0
0.000203282 0.00030004 0
0.000191272 0.000149881 0
0.000109375 0.000401641 0
6.16622e-05 0.000413154 0
0.000156198 0.000316498 0
0.000123888 0.00035905 0
-0.00108217 0.00813842 0
0.000329866 -6.41173e-05 0
0.000375844 -0.00017102 0
0.000343992 -0.000128615 0
0.000348017 -0.000237323 0
0.000347588 -0.000205287 0
0.0058206 -0.00581228 0
0.000310176 -0.000272156 0
0.00501808 -0.00652371 0
0.000187806 5.66911e-05 0
0.000230216 -1.87735e-05 0
0.000193588 1.09297e-05 0
3.52693e-06 0.000414659 0
-6.79106e-05 0.000418893 0
-3.80167e-05 0.00040941 0
0.00017163 9.94557e-05 0
0.000168139 7.1703e-05 0
0.00014526 0.000194578 0
0.000146693 0.000139326 0
7.07396e-05 0.000340679 0
2.7925e-05 0.00036213 0
8.84676e-05 0.000236519 0
-0.00215186 0.00795982 0
0.000217091 -8.27593e-05 0
0.000303297 -0.000161491 0
0.000317698 -0.000250443 0
0.000303513 -0.000207604 0
0.000269878 -0.00031032 0
0.000284495 -0.000286284 0
0.00412573 -0.00712723 0
0.000228939 -0.000345398 0
0.000167993 3.23429e-05 0
0.000191195 -4.53991e-05 0
0.000176929 -1.29444e-05 0
0.000173457 -9.31364e-05 0
0.00317607 -0.00764175 0
-0.000140756 0.000383002 0
-7.38442e-06 0.00035419 0
-0.000102571 0.000374311 0
-6.37498e-05 0.000364012 0
0.000128067 5.14779e-05 0
0.000140516 0.000104697 0
0.000105258 0.000174943 0
0.000119677 0.000143419 0
3.39907e-05 0.000257568 0
6.01847e-05 0.000196459 0
-0.00315004 0.00758448 0
0.000193947 -0.000138738 0
0.000261228 -0.000233646 0
0.000243111 -0.000323511 0
0.000246016 -0.000287797 0
0.000183495 -0.000377121 0
0.000203835 -0.000349178 0
0.000133971 -0.00039701 0
0.000113782 2.04629e-05 0
9.70384e-05 6.02533e-05 0
0.000130767 -7.19885e-06 0
0.00016141 -5.53432e-05 0
0.000145189 -0.000135671 0
0.000150988 -0.000104129 0
9.47757e-05 -2.24885e-05 0
0.00214927 -0.00797285 0
-0.000203062 0.000338449 0
-0.000160505 0.000336954 0
-2.55806e-05 0.000270989 0
-0.000115641 0.000336689 0
9.20396e-05 0.000101889 0
7.34172e-05 0.000159368 0
1.2386e-05 0.000207093 0
3.32436e-05 0.00017137 0
-0.000295694 0.000386905 0
-0.00409876 0.00720515 0
0.000156104 -0.000185507 0
0.000196188 -0.000295394 0
0.000152532 -0.000373709 0
0.000164471 -0.000333325 0
7.96112e-05 -0.000411284 0
0.000104287 -0.00038707 0
0.000106269 -0.000167699 0
5.24521e-05 8.0987e-05 0
6.36046e-05 2.52898e-05 0
0.000108105 -6.68655e-05 0
0.000113946 -0.000129166 0
7.8511e-05 -0.000167677 0
6.28722e-05 -6.32487e-05 0
3.02857e-05 -2.40384e-05 0
2.68326e-05 -0.000418032 0
0.00109811 -0.00822746 0
-4.03287e-05 0.000202632 0
-0.000236454 0.000341668 0
-0.000179072 0.000337102 0
-9.03353e-05 0.000257628 0
-0.000257584 0.000359883 0
3.37493e-05 0.000128565 0
-1.03478e-05 0.000167987 0
7.513e-06 9.40036e-05 0
-6.58301e-05 0.000193048 0
-0.000289617 0.000424955 0
-0.00517356 0.00672977 0
0.000101461 -0.000217787 0
0.000111573 -0.000328856 0
4.96113e-05 -0.000400962 0
7.23078e-05 -0.000362429 0
2.14052e-06 -0.000409485 0
5.86184e-05 -0.000192002 0
-2.36345e-07 3.08348e-05 0
5.51337e-05 -0.000109419 0
3.5702e-05 -0.000172282 0
1.45499e-05 -7.57217e-05 0
-2.64713e-05 -2.53761e-05 0
-2.73295e-05 -0.000415359 0
1.00852e-05 -0.00821549 0
-0.000112471 0.000184798 0
-0.000206697 0.000308617 0
-0.000163222 0.000248202 0
-0.000259752 0.000338554 0
-0.000225971 0.000287535 0
-2.28306e-05 0.000117406 0
-5.74661e-05 0.000137926 0
-4.3675e-05 7.54714e-05 0
-0.000110636 0.000148974 0
-0.000161444 0.000170964 0
-0.000279099 0.000261911 0
-0.000400137 0.000306762 0
-0.00583414 0.00565689 0
4.40239e-05 -0.000236604 0
2.73287e-05 -0.000344591 0
-5.63807e-05 -0.000402948 0
-2.38036e-05 -0.000368543 0
1.13267e-05 -0.000204579 0
-1.5682e-05 -0.000187022 0
-6.3497e-05 3.0787e-05 0
-8.94189e-06 -0.000122967 0
-3.19734e-05 -8.43919e-05 0
-8.97252e-05 -1.65257e-05 0
-7.32435e-05 -6.38186e-05 0
-0.000111704 -0.00038901 0
-8.21118e-05 -0.0004045 0
-0.00106455 -0.00816704 0
-0.00018422 0.000187773 0
-0.000248544 0.000233207 0
-0.000289445 0.000203288 0
-0.000191112 0.000147202 0
-9.17651e-05 7.97542e-05 0
-0.000156144 0.000113997 0
-0.000336972 0.000174811 0
-0.000384355 0.000382486 0
-0.00759109 0.00579877 0
-1.68866e-05 -0.000237342 0
-6.78932e-05 -0.000338686 0
-0.000136347 -0.00035819 0
-4.78445e-05 -0.00019652 0
-6.54386e-05 -0.000165951 0
-0.000123941 3.76927e-05 0
-0.00015441 -1.51809e-05 0
-7.98629e-05 -0.000110671 0
-0.000131184 -7.20144e-05 0
-0.000167613 -0.000367646 0
-0.000135674 -0.000373686 0
-0.00209414 -0.00785693 0
-0.000221963 0.000146392 0
-0.000297829 0.000141639 0
-0.000199181 0.00010082 0
-0.000160303 6.31148e-05 0
-0.00034016 0.000117887 0
-0.000386424 0.000148063 0
-0.000408823 0.00018478 0
-0.00706402 0.00417442 0
-8.61807e-05 -0.000221867 0
-0.000169223 -0.000312167 0
-0.000106053 -0.000174165 0
-0.000123496 -0.000157066 0
-0.000180909 1.70639e-05 0
-0.000188882 -4.51648e-05 0
-0.000154849 -0.000123954 0
-0.000189984 -9.37909e-05 0
-0.000225544 -0.000295283 0
-0.000204869 -0.000342554 0
-0.000177711 -0.000346436 0
-0.00309514 -0.00743434 0
-0.000232292 9.44689e-05 0
-0.000196744 5.27092e-05 0
-0.000336709 7.29589e-05 0
-0.000394973 0.000101329 0
-0.000406937 0.000127524 0
-0.00770874 0.00318456 0
-0.000159419 -0.000188297 0
-0.000162853 -0.000149489 0
-0.000196261 -1.67696e-05 0
-0.000198738 -7.85096e-05 0
-0.000189495 -0.000119634 0
-0.000241785 -0.000248545 0
-0.000251785 -0.000307617 0
-0.000227069 -0.000326422 0
-0.00409999 -0.0070594 0
-0.000248058 2.3867e-05 0
-0.000362296 2.73683e-05 0
-0.000383425 5.96338e-05 0
-0.000393078 8.55868e-05 0
-0.00795925 0.00211434 0
-0.000205489 -0.000156355 0
-0.00024163 -6.37395e-05 0
-0.0002281 -0.00011938 0
-0.000262285 -0.000237269 0
-0.000274931 -0.000289777 0
-0.000266007 -0.000314836 0
-0.00502643 -0.00654288 0
-0.000345469 -3.289e-05 0
-0.000382388 -4.26505e-06 0
-0.000390624 3.1531e-05 0
-0.00808462 0.00107396 0
-0.000360641 -8.18601e-05 0
-0.000278135 -0.000188846 0
-0.000322187 -0.000114819 0