# vtk DataFile Version 2.0
CellBP Time: 0.72
ASCII
DATASET UNSTRUCTURED_GRID
POINTS 296 double
-9.16537 -3.76718 0
-8.58492 -4.93546 0
-9.58068 -2.53061 0
-9.83396 -1.25103 0
-8.35538 -2.81783 0
-7.86361 -6.02248 0
-7.00052 -7.00069 0
-7.91515 -3.87363 0
-7.34077 -4.86648 0
-6.01996 -7.86066 0
-4.93554 -8.58523 0
-9.93297 0.049968 0
-9.83406 1.35106 0
-8.65553 -1.68322 0
-8.78529 -0.528751 0
-7.58775 -2.00345 0
-7.22382 -2.90562 0
-6.63597 -5.77733 0
-5.82096 -6.59516 0
-6.78849 -3.88777 0
-6.21897 -4.67454 0
-3.76571 -9.16187 0
-2.53061 -9.58093 0
-4.90525 -7.3069 0
-3.91201 -7.88418 0
-8.79174 0.642388 0
-9.581 2.63081 0
-8.62121 1.77329 0
-9.16361 3.86649 0
-7.74266 -0.928609 0
-7.79297 0.0801836 0
-6.95115 -1.31555 0
-1.2515 -9.8359 0
-6.44017 -2.15261 0
-6.31796 -3.05538 0
-5.53512 -5.47299 0
-4.79467 -6.11372 0
-5.65787 -3.7561 0
-5.2682 -4.56039 0
-2.86538 -8.36175 0
-1.77802 -8.63793 0
-3.92712 -6.72165 0
-3.05575 -7.15061 0
0.0499829 -9.92126 0
-7.70387 1.14295 0
-8.33649 2.91456 0
-7.54991 2.11121 0
-8.58531 5.0356 0
-7.8781 3.97717 0
-7.86079 6.12021 0
-6.77743 -0.396835 0
-6.95516 0.552351 0
-5.77062 -1.00326 0
-0.59062 -8.80741 0
0.565628 -8.76866 0
-5.30238 -2.47989 0
-4.49101 -5.09448 0
-3.90158 -5.77382 0
-4.43825 -3.8041 0
-2.06179 -7.55988 0
-1.13512 -7.78371 0
-2.99381 -6.10056 0
-2.30839 -6.6181 0
1.35153 -9.83615 0
-6.68813 1.42164 0
-7.17027 3.11716 0
-6.65771 2.37232 0
-7.293 4.98744 0
-6.71629 4.00198 0
-7.00086 7.10092 0
-6.57096 5.89278 0
-6.02021 7.96091 0
-4.45246 -1.18085 0
-5.81379 0.513635 0
-4.65548 -0.0103478 0
0.00851965 -7.84598 0
1.73833 -8.64174 0
0.948774 -7.76136 0
-4.03793 -2.40598 0
-3.48496 -1.39092 0
-3.29395 -4.80451 0
-3.26535 -3.26721 0
-1.37821 -6.67394 0
-0.508611 -7.0233 0
-1.97516 -5.53607 0
2.63072 -9.5814 0
-5.50651 2.03656 0
-6.09339 3.07145 0
-6.10352 4.86838 0
-5.76036 3.99054 0
-5.76004 6.71567 0
-5.45075 5.61798 0
-4.93572 8.68556 0
-4.83743 7.40299 0
-3.50092 -0.424175 0
-4.44862 1.24886 0
-3.71086 0.592029 0
-4.06155 2.31947 0
-3.76585 9.26233 0
2.86225 -8.33115 0
0.419637 -6.79389 0
2.02165 -7.52407 0
1.30582 -6.90397 0
-2.44423 -0.873622 0
-2.83788 -2.13073 0
-2.294 -4.0967 0
-2.3252 -2.97305 0
-0.442223 -5.86018 0
-1.22246 -4.49841 0
3.86636 -9.16381 0
-4.78908 3.39127 0
-5.08685 4.59318 0
-4.64606 6.27995 0
-4.53784 5.35852 0
-3.84295 7.99174 0
-3.82583 6.84414 0
-2.78272 8.42116 0
-1.64864 -0.137829 0
-1.44991 -0.890373 0
-2.48868 0.50724 0
-3.25308 1.44396 0
-3.23854 3.31608 0
-2.91046 2.37139 0
-1.35477 0.627018 0
-2.53076 9.68163 0
3.93205 -7.88557 0
2.96408 -7.15623 0
0.954013 -5.82099 0
2.07396 -6.41411 0
-1.68264 -1.9917 0
-1.43414 -3.2772 0
0.0903077 -4.74626 0
-0.566016 -3.69382 0
4.93137 -7.31731 0
5.03525 -8.58516 0
-3.77644 4.55098 0
-3.73401 5.75098 0
-2.88731 7.28825 0
-3.00906 6.35241 0
-1.66218 8.73199 0
-1.93962 7.61772 0
-2.33804 4.0511 0
-0.730522 -1.32697 0
-0.836658 -0.257547 0
-1.93585 1.68054 0
-2.12539 2.87538 0
-1.30631 3.5441 0
-0.869234 1.35059 0
-0.282238 0.455942 0
-0.533348 8.87004 0
-1.25149 9.93591 0
1.11271 -4.5739 0
3.90955 -6.71594 0
2.98748 -6.09343 0
2.11766 -5.42401 0
4.78378 -6.204 0
-0.558702 -2.47637 0
0.495143 -3.46327 0
0.0536287 -1.61017 0
1.48177 -3.6815 0
5.86655 -6.61327 0
6.1195 -7.86024 0
-2.47538 5.34779 0
-2.13003 6.53327 0
-0.903799 7.80171 0
-1.27203 6.93075 0
0.0862949 7.87879 0
-1.14427 4.49409 0
0.150358 -0.617563 0
-0.797236 2.48813 0
-0.331513 3.60014 0
0.0631838 1.51245 0
0.741393 0.473311 0
0.646726 8.87276 0
0.0499624 10.0215 0
2.3808 -4.28466 0
3.85876 -5.63937 0
3.00111 -5.21194 0
5.57338 -5.49084 0
4.69065 -5.28219 0
0.62967 -2.29299 0
1.25608 -2.95082 0
0.757404 -1.39122 0
2.16412 -3.13538 0
2.99346 -3.47608 0
6.15485 -4.79113 0
6.65617 -5.76838 0
7.10062 -7.00051 0
-1.01949 5.81972 0
-0.372446 6.88253 0
1.12248 7.76818 0
0.557975 7.07869 0
-0.000702905 4.7246 0
0.606987 3.82723 0
1.33877 -0.641826 0
0.539106 2.65064 0
0.96603 1.57463 0
1.90998 0.21378 0
1.61459 1.06479 0
2.12907 7.58235 0
1.79899 8.71121 0
1.35146 9.93608 0
3.82257 -4.35111 0
5.11628 -4.44848 0
5.84542 -3.93471 0
3.7837 -3.20071 0
1.8121 -1.88244 0
3.01888 -2.57365 0
6.78307 -3.94776 0
7.38161 -4.89736 0
7.96931 -6.02666 0
0.483368 5.88109 0
1.42807 6.74112 0
2.37402 6.6682 0
1.20992 4.55572 0
1.48806 3.39716 0
2.43555 -0.691959 0
2.82772 0.142516 0
1.78874 2.16251 0
2.61163 1.14992 0
3.07159 7.16913 0
2.90393 8.37598 0
2.63188 9.68561 0
4.91114 -3.32767 0
6.12047 -3.10855 0
4.17265 -2.27514 0
3.24419 -1.50285 0
6.73101 -2.31301 0
7.23159 -3.04248 0
7.96474 -3.91241 0
8.68903 -4.93788 0
2.02355 5.59957 0
3.08625 6.15306 0
2.36381 4.12659 0
2.4199 3.06049 0
3.5254 -0.460895 0
3.6154 0.613148 0
2.9616 2.28778 0
3.5453 1.52504 0
4.0119 5.89774 0
3.98423 6.79266 0
3.97319 7.93842 0
3.86611 9.26272 0
5.56889 -1.91618 0
4.50913 -1.12963 0
6.71387 -1.33623 0
7.59225 -2.03658 0
8.39716 -2.86179 0
9.26757 -3.76803 0
3.41913 4.877 0
3.33892 3.38519 0
4.69124 0.129977 0
4.51911 1.30984 0
4.06526 2.44366 0
4.57061 5.1525 0
4.84364 6.19073 0
4.98052 7.38056 0
5.03578 8.68556 0
5.88376 -0.434995 0
7.01107 -0.488383 0
7.75964 -1.08545 0
8.68502 -1.74618 0
9.68045 -2.53055 0
4.55269 3.82771 0
5.81818 1.09856 0
5.37164 2.53503 0
5.38044 4.62083 0
5.61247 5.52377 0
5.89758 6.67232 0
6.12012 7.96077 0
6.84668 0.463457 0
7.85386 -0.0257838 0
8.86102 -0.584463 0
9.93947 -1.25189 0
6.96118 1.34948 0
5.72171 3.77877 0
6.54222 2.19766 0
6.38096 3.08826 0
6.29309 4.68736 0
6.69385 5.83845 0
7.10079 7.10085 0
7.7851 0.967608 0
8.86037 0.572753 0
10.0209 0.0501299 0
7.61712 2.00447 0
6.83014 3.90464 0
7.27052 2.94712 0
7.3794 4.88632 0
7.96107 6.12045 0
8.72399 1.72714 0
9.93556 1.35159 0
8.4222 2.83833 0
7.98305 3.9167 0
8.68523 5.03544 0
9.68248 2.63117 0
9.26904 3.86862 0
CELLS 542 2168
3 2 0 4
3 0 1 7
3 4 0 7
3 1 5 8
3 7 1 8
3 3 2 13
3 13 2 4
3 11 3 14
3 14 3 13
3 13 4 15
3 4 7 16
3 15 4 16
3 5 6 17
3 8 5 17
3 6 9 18
3 17 6 18
3 7 8 19
3 16 7 19
3 8 17 20
3 19 8 20
3 9 10 23
3 18 9 23
3 10 21 24
3 23 10 24
3 12 11 25
3 25 11 14
3 26 12 27
3 27 12 25
3 14 13 29
3 29 13 15
3 25 14 30
3 30 14 29
3 29 15 31
3 15 16 33
3 31 15 33
3 16 19 34
3 33 16 34
3 17 18 35
3 20 17 35
3 18 23 36
3 35 18 36
3 19 20 37
3 34 19 37
3 20 35 38
3 37 20 38
3 21 22 39
3 24 21 39
3 22 32 40
3 39 22 40
3 23 24 41
3 36 23 41
3 24 39 42
3 41 24 42
3 27 25 44
3 44 25 30
3 28 26 45
3 45 26 27
3 45 27 46
3 46 27 44
3 47 28 48
3 48 28 45
3 30 29 50
3 50 29 31
3 44 30 51
3 51 30 50
3 50 31 52
3 31 33 52
3 32 43 53
3 40 32 53
3 53 43 54
3 33 34 55
3 34 37 55
3 33 55 52
3 35 36 56
3 38 35 56
3 36 41 57
3 56 36 57
3 37 38 58
3 38 56 58
3 37 58 55
3 39 40 59
3 42 39 59
3 40 53 60
3 59 40 60
3 41 42 61
3 57 41 61
3 42 59 62
3 61 42 62
3 43 63 54
3 46 44 64
3 64 44 51
3 48 45 65
3 65 45 46
3 65 46 66
3 66 46 64
3 49 47 67
3 67 47 48
3 67 48 68
3 68 48 65
3 69 49 70
3 70 49 67
3 52 55 72
3 64 51 73
3 51 50 73
3 50 52 73
3 73 52 74
3 74 52 72
3 53 54 75
3 60 53 75
3 54 63 76
3 54 76 77
3 75 54 77
3 55 58 78
3 72 55 78
3 72 78 79
3 56 57 80
3 57 61 80
3 56 80 58
3 58 80 81
3 78 58 81
3 59 60 82
3 62 59 82
3 60 75 83
3 82 60 83
3 61 62 84
3 62 82 84
3 61 84 80
3 63 85 76
3 66 64 86
3 64 73 86
3 68 65 87
3 87 65 66
3 87 66 86
3 70 67 88
3 88 67 68
3 88 68 89
3 89 68 87
3 71 69 90
3 90 69 70
3 90 70 91
3 91 70 88
3 92 71 93
3 93 71 90
3 74 72 94
3 94 72 79
3 86 73 95
3 95 73 74
3 95 74 96
3 96 74 94
3 97 86 95
3 76 85 99
3 75 77 100
3 83 75 100
3 76 99 101
3 77 76 101
3 77 101 102
3 100 77 102
3 94 79 103
3 78 81 104
3 79 78 104
3 79 104 103
3 80 84 105
3 81 80 105
3 81 105 106
3 104 81 106
3 82 83 107
3 83 100 107
3 82 107 84
3 84 107 108
3 105 84 108
3 85 109 99
3 89 87 110
3 87 86 110
3 110 86 97
3 91 88 111
3 111 88 89
3 111 89 110
3 93 90 112
3 112 90 91
3 112 91 113
3 113 91 111
3 98 92 114
3 114 92 93
3 114 93 115
3 115 93 112
3 116 98 114
3 117 103 118
3 96 94 119
3 94 103 119
3 119 103 117
3 97 95 120
3 120 95 96
3 120 96 119
3 121 110 97
3 121 97 122
3 122 97 120
3 123 119 117
3 124 98 116
3 99 109 125
3 99 125 126
3 101 99 126
3 100 102 127
3 100 127 107
3 101 126 128
3 102 101 128
3 102 128 127
3 104 106 129
3 104 129 103
3 103 129 118
3 105 108 130
3 106 105 130
3 106 130 129
3 107 127 131
3 108 107 131
3 108 131 132
3 108 132 130
3 109 134 125
3 125 134 133
3 113 111 135
3 111 110 135
3 135 110 121
3 115 112 136
3 136 112 113
3 136 113 135
3 116 114 137
3 137 114 115
3 137 115 138
3 138 115 136
3 139 124 116
3 139 116 140
3 140 116 137
3 141 135 121
3 118 129 142
3 118 142 143
3 117 118 143
3 123 117 143
3 122 120 144
3 120 119 144
3 144 119 123
3 141 121 145
3 145 121 122
3 145 122 144
3 146 141 145
3 147 144 123
3 147 123 148
3 143 148 123
3 150 124 139
3 149 150 139
3 131 127 151
3 125 133 152
3 126 125 152
3 126 152 153
3 128 126 153
3 128 153 154
3 128 154 127
3 127 154 151
3 152 133 155
3 130 132 156
3 130 156 129
3 129 156 142
3 131 151 157
3 132 131 157
3 132 157 156
3 156 158 142
3 157 151 159
3 133 160 155
3 134 161 133
3 133 161 160
3 138 136 162
3 136 135 162
3 162 135 141
3 140 137 163
3 163 137 138
3 163 138 162
3 149 139 164
3 164 139 140
3 164 140 165
3 165 140 163
3 166 149 164
3 167 162 141
3 167 141 146
3 142 158 168
3 143 142 168
3 143 168 148
3 146 145 169
3 145 144 169
3 169 144 147
3 170 167 146
3 170 146 169
3 171 169 147
3 171 147 148
3 171 148 172
3 168 172 148
3 173 149 166
3 174 150 149
3 173 174 149
3 154 175 151
3 151 175 159
3 152 155 176
3 153 152 176
3 153 176 177
3 153 177 154
3 154 177 175
3 155 160 178
3 155 178 179
3 176 155 179
3 156 157 180
3 156 180 158
3 157 159 181
3 157 181 180
3 158 180 182
3 158 182 168
3 159 175 183
3 159 183 181
3 175 184 183
3 160 186 178
3 178 186 185
3 161 187 160
3 160 187 186
3 165 163 188
3 163 162 188
3 188 162 167
3 166 164 189
3 189 164 165
3 189 165 188
3 190 173 166
3 190 166 191
3 191 166 189
3 192 188 167
3 192 167 170
3 193 192 170
3 182 194 168
3 194 172 168
3 193 170 195
3 170 169 195
3 195 169 171
3 196 195 171
3 196 171 172
3 194 197 172
3 197 198 172
3 198 196 172
3 200 173 190
3 199 200 190
3 201 174 173
3 200 201 173
3 176 179 202
3 177 176 202
3 177 202 175
3 175 202 184
3 178 185 203
3 178 203 179
3 179 203 202
3 203 185 204
3 202 205 184
3 183 206 181
3 180 181 206
3 180 206 182
3 182 206 194
3 183 184 207
3 205 207 184
3 183 207 206
3 185 208 204
3 186 209 185
3 185 209 208
3 187 210 186
3 186 210 209
3 191 189 211
3 189 188 211
3 211 188 192
3 199 190 212
3 212 190 191
3 212 191 211
3 213 199 212
3 214 211 192
3 214 192 193
3 215 214 193
3 215 193 195
3 206 216 194
3 216 197 194
3 216 217 197
3 215 195 218
3 218 195 196
3 198 218 196
3 217 219 197
3 219 218 198
3 197 219 198
3 220 199 213
3 221 200 199
3 220 221 199
3 222 201 200
3 221 222 200
3 203 204 223
3 203 223 202
3 202 223 205
3 204 208 224
3 204 224 223
3 205 223 225
3 205 225 207
3 207 225 226
3 207 226 206
3 226 216 206
3 208 228 224
3 224 228 227
3 209 229 208
3 229 228 208
3 210 230 209
3 209 230 229
3 213 212 231
3 212 211 231
3 231 211 214
3 232 220 213
3 232 213 231
3 233 231 214
3 233 214 215
3 234 233 215
3 234 215 218
3 226 235 216
3 235 217 216
3 235 236 217
3 217 236 219
3 237 234 218
3 237 218 219
3 236 238 219
3 238 237 219
3 240 220 232
3 239 240 232
3 241 221 220
3 240 241 220
3 242 222 221
3 241 242 221
3 224 227 243
3 224 243 223
3 223 243 225
3 225 243 244
3 225 244 226
3 226 244 235
3 227 245 243
3 228 246 227
3 227 246 245
3 229 247 228
3 228 247 246
3 230 248 229
3 229 248 247
3 239 232 249
3 232 231 249
3 249 231 233
3 250 249 233
3 250 233 234
3 237 250 234
3 244 251 235
3 235 251 236
3 251 252 236
3 236 252 238
3 252 253 238
3 253 250 237
3 253 237 238
3 254 239 249
3 255 240 239
3 254 255 239
3 256 241 240
3 255 256 240
3 257 242 241
3 256 257 241
3 245 258 243
3 243 258 244
3 244 258 251
3 245 259 258
3 246 260 245
3 245 260 259
3 247 261 246
3 246 261 260
3 248 262 247
3 247 262 261
3 254 249 263
3 263 249 250
3 253 263 250
3 258 264 251
3 251 264 252
3 264 265 252
3 265 263 253
3 252 265 253
3 266 254 263
3 267 255 254
3 266 267 254
3 268 256 255
3 267 268 255
3 269 257 256
3 268 269 256
3 259 270 258
3 270 264 258
3 260 271 259
3 259 271 270
3 261 272 260
3 260 272 271
3 262 273 261
3 273 272 261
3 270 274 264
3 275 266 263
3 275 263 265
3 274 276 264
3 276 265 264
3 276 277 265
3 277 275 265
3 278 267 266
3 275 278 266
3 279 268 267
3 278 279 267
3 280 269 268
3 279 280 268
3 271 281 270
3 270 281 274
3 272 282 271
3 271 282 281
3 273 283 272
3 272 283 282
3 281 284 274
3 274 284 276
3 285 278 275
3 277 285 275
3 284 286 276
3 286 285 277
3 276 286 277
3 287 279 278
3 285 287 278
3 288 280 279
3 287 288 279
3 282 289 281
3 281 289 284
3 283 290 282
3 282 290 289
3 289 291 284
3 284 291 286
3 291 292 286
3 292 287 285
3 286 292 285
3 293 288 287
3 292 293 287
3 290 294 289
3 289 294 291
3 294 295 291
3 295 293 292
3 291 295 292
CELL_TYPES 542
5
5
5
5
5
5
5
5
5
5
5
5
5
5
5
5
5
5
5
5
5
5
5
5
5
5
5
5
5
5
5
5
5
5
5
5
5
5
5
5
5
5
5
5
5
5
5
5
5
5
5
5
5
5
5
5
5
5
5
5
5
5
5
5
5
5
5
5
5
5
5
5
5
5
5
5
5
5
5
5
5
5
5
5
5
5
5
5
5
5
5
5
5
5
5
5
5
5
5
5
5
5
5
5
5
5
5
5
5
5
5
5
5
5
5
5
5
5
5
5
5
5
5
5
5
5
5
5
5
5
5
5
5
5
5
5
5
5
5
5
5
5
5
5
5
5
5
5
5
5
5
5
5
5
5
5
5
5
5
5
5
5
5
5
5
5
5
5
5
5
5
5
5
5
5
5
5
5
5
5
5
5
5
5
5
5
5
5
5
5
5
5
5
5
5
5
5
5
5
5
5
5
5
5
5
5
5
5
5
5
5
5
5
5
5
5
5
5
5
5
5
5
5
5
5
5
5
5
5
5
5
5
5
5
5
5
5
5
5
5
5
5
5
5
5
5
5
5
5
5
5
5
5
5
5
5
5
5
5
5
5
5
5
5
5
5
5
5
5
5
5
5
5
5
5
5
5
5
5
5
5
5
5
5
5
5
5
5
5
5
5
5
5
5
5
5
5
5
5
5
5
5
5
5
5
5
5
5
5
5
5
5
5
5
5
5
5
5
5
5
5
5
5
5
5
5
5
5
5
5
5
5
5
5
5
5
5
5
5
5
5
5
5
5
5
5
5
5
5
5
5
5
5
5
5
5
5
5
5
5
5
5
5
5
5
5
5
5
5
5
5
5
5
5
5
5
5
5
5
5
5
5
5
5
5
5
5
5
5
5
5
5
5
5
5
5
5
5
5
5
5
5
5
5
5
5
5
5
5
5
5
5
5
5
5
5
5
5
5
5
5
5
5
5
5
5
5
5
5
5
5
5
5
5
5
5
5
5
5
5
5
5
5
5
5
5
5
5
5
5
5
5
5
5
5
5
5
5
5
5
5
5
5
5
5
5
5
5
5
5
5
5
5
5
5
5
5
5
5
5
5
5
5
5
5
5
5
5
5
5
5
5
5
5
5
5
5
5
5
5
5
5
5
5
5
5
5
5
5
5
5
5
5
5
5
5
5
5
5
5
5
5
5
5
5
5
5
5
5
5
5
5
5
5
5
5
5
5
5
5
5
5
POINT_DATA 296
SCALARS concentrations float 4
LOOKUP_TABLE default
0 0.992956 0.116963 4.30125
0 0.993003 0.129038 6.36678
0 0.992802 0.128551 6.41756
0 0.992656 0.127953 6.42041
0 0.993185 0.0930463 0.487731
0 0.992955 0.116661 4.27029
0 0.992797 0.128219 6.38768
0 0.993273 0.0928762 0.483597
0 0.993263 0.0928806 0.485482
0 0.992635 0.127808 6.42871
0 0.992542 0.127746 6.43369
0 0.99258 0.127419 6.34881
0 0.992539 0.127573 6.39178
0 0.993071 0.0930886 0.403247
0 0.992984 0.0930602 0.392375
0 0.993826 0.0930097 0.398712
0 0.993859 0.092887 0.39444
0 0.993185 0.0930054 0.486305
0 0.993052 0.0930448 0.407103
0 0.993856 0.0927788 0.398565
0 0.99385 0.0928701 0.396838
0 0.9925 0.12813 6.48497
0 0.992482 0.128489 6.52364
0 0.992967 0.0930665 0.40644
0 0.99292 0.0930928 0.405878
0 0.992959 0.0930608 0.396594
0 0.99252 0.127278 6.36201
0 0.99292 0.0930849 0.407074
0 0.992523 0.126099 6.45528
0 0.9938 0.0931341 0.398737
0 0.993795 0.0931063 0.396645
0 0.994526 0.0927354 0.30181
0 0.992499 0.127616 6.3782
0 0.994637 0.0925391 0.231258
0 0.99449 0.092593 0.247706
0 0.993806 0.0929697 0.397971
0 0.993777 0.0930882 0.395061
0 0.99462 0.0924972 0.210382
0 0.994492 0.0926984 0.281945
0 0.992915 0.0931446 0.406495
0 0.992891 0.0931843 0.411809
0 0.993769 0.0931324 0.403741
0 0.993744 0.0931573 0.407368
0 0.992525 0.127489 6.36254
0 0.993778 0.0931801 0.421051
0 0.992917 0.0932013 0.467141
0 0.993763 0.0932511 0.466914
0 0.992518 0.127263 6.35898
0 0.992908 0.0931714 0.464885
0 0.992529 0.127167 6.31756
0 0.994654 0.0927005 0.308303
0 0.994531 0.0928587 0.357212
0 0.995207 0.092073 0.165066
0 0.992927 0.093149 0.415401
0 0.992929 0.093105 0.418698
0 0.995207 0.0920294 0.105883
0 0.994637 0.0926655 0.27957
0 0.994519 0.0928506 0.337501
0 0.995207 0.092081 0.1346
0 0.993765 0.093169 0.41116
0 0.993771 0.093169 0.418554
0 0.994651 0.0927885 0.334203
0 0.994501 0.0929215 0.367405
0 0.992528 0.127134 6.30831
0 0.994659 0.0927304 0.360688
0 0.993735 0.0932186 0.472406
0 0.994511 0.0928952 0.407653
0 0.992921 0.0930443 0.406292
0 0.993749 0.0931689 0.458008
0 0.992541 0.127105 6.28738
0 0.992921 0.0930147 0.391319
0 0.99255 0.127131 6.29229
0 0.995656 0.09185 0.141182
0 0.995197 0.092119 0.22643
0 0.995637 0.0918603 0.167902
0 0.993792 0.0931712 0.43608
0 0.992952 0.0930864 0.392387
0 0.993802 0.0931869 0.441594
0 0.995677 0.0918533 0.130745
0 0.996019 0.0917589 0.155218
0 0.995214 0.0921557 0.201608
0 0.995663 0.0918916 0.155124
0 0.994626 0.0927168 0.339651
0 0.994488 0.0928052 0.368472
0 0.995197 0.0921895 0.23902
0 0.99249 0.127412 6.38612
0 0.995162 0.0921037 0.254202
0 0.994617 0.092746 0.382068
0 0.993738 0.0931596 0.427858
0 0.994485 0.0928849 0.399614
0 0.992934 0.0930074 0.385324
0 0.993745 0.0931475 0.417738
0 0.992563 0.127099 6.29724
0 0.99294 0.0930001 0.385491
0 0.996047 0.0916926 0.151828
0 0.99559 0.09187 0.190419
0 0.995979 0.0917359 0.161697
0 0.995576 0.0918539 0.19086
0 0.992581 0.127304 6.34236
0 0.992944 0.0933538 0.234659
0 0.994619 0.0927741 0.382374
0 0.993848 0.093176 0.379115
0 0.994537 0.0929302 0.408693
0 0.996272 0.0915022 0.133491
0 0.996069 0.0917165 0.156308
0 0.995649 0.0919132 0.18465
0 0.996013 0.0917891 0.170783
0 0.995176 0.0921993 0.260059
0 0.995625 0.0918979 0.198622
0 0.99248 0.123299 6.09146
0 0.995152 0.0921102 0.24998
0 0.994613 0.0927635 0.360782
0 0.993744 0.0931385 0.411622
0 0.994479 0.0929184 0.377115
0 0.992966 0.0930122 0.388684
0 0.993773 0.0931267 0.409135
0 0.992984 0.0930098 0.391504
0 0.996442 0.0913837 0.113041
0 0.996453 0.0913775 0.113053
0 0.99626 0.0914672 0.120719
0 0.99601 0.0916869 0.154429
0 0.995568 0.0918497 0.183904
0 0.995951 0.0917506 0.1653
0 0.996481 0.0913047 0.0938773
0 0.992603 0.127223 6.34444
0 0.992974 0.093402 0.230736
0 0.993899 0.0930979 0.344029
0 0.995178 0.0923034 0.308969
0 0.994661 0.0928571 0.405625
0 0.996288 0.0915031 0.133915
0 0.996048 0.0917182 0.167814
0 0.995645 0.091898 0.212356
0 0.995999 0.0917089 0.169893
0 0.993009 0.0930832 0.388665
0 0.992526 0.127446 6.4004
0 0.995162 0.0921156 0.231006
0 0.994627 0.0927692 0.347721
0 0.993795 0.0931221 0.408834
0 0.994522 0.0928766 0.365544
0 0.993008 0.0930132 0.398085
0 0.99382 0.0931042 0.407187
0 0.995603 0.0918519 0.181708
0 0.996504 0.0912995 0.0934149
0 0.996581 0.0911613 0.0696113
0 0.996269 0.0914534 0.11303
0 0.996027 0.0916914 0.153985
0 0.995995 0.0917678 0.170879
0 0.996481 0.0912796 0.0853321
0 0.996606 0.0910498 0.0438068
0 0.99303 0.092999 0.393407
0 0.992635 0.127534 6.38988
0 0.995629 0.0919115 0.226714
0 0.993924 0.0931636 0.3742
0 0.994645 0.0929324 0.418586
0 0.995253 0.0923236 0.331145
0 0.99388 0.0931719 0.465317
0 0.996298 0.0914825 0.126016
0 0.996069 0.0916698 0.164657
0 0.996516 0.0912953 0.0860474
0 0.995933 0.0918585 0.207108
0 0.993053 0.0931247 0.467215
0 0.992609 0.127488 6.38944
0 0.995199 0.0921091 0.226377
0 0.994679 0.0927312 0.337113
0 0.993817 0.0931008 0.403173
0 0.994559 0.0928532 0.355428
0 0.993829 0.093087 0.39659
0 0.995627 0.0918678 0.184506
0 0.996618 0.0910194 0.0271864
0 0.996298 0.0914455 0.11479
0 0.996069 0.0917269 0.163358
0 0.996514 0.0912372 0.0770414
0 0.996603 0.0910507 0.0299992
0 0.993118 0.092958 0.388677
0 0.992718 0.127228 6.30958
0 0.99559 0.0919639 0.24634
0 0.994683 0.0928256 0.415968
0 0.995179 0.0924027 0.35421
0 0.993881 0.0931623 0.484838
0 0.994617 0.092797 0.422201
0 0.996376 0.0914134 0.108873
0 0.99624 0.0915562 0.138824
0 0.996535 0.0912506 0.0724462
0 0.996055 0.0917362 0.179395
0 0.995718 0.0919917 0.241162
0 0.993874 0.0931436 0.478033
0 0.993047 0.0930828 0.467862
0 0.992668 0.125717 6.38752
0 0.995225 0.0921027 0.21674
0 0.994688 0.0926816 0.309869
0 0.993838 0.0929527 0.395005
0 0.994555 0.0927496 0.311211
0 0.995657 0.0918861 0.174064
0 0.996035 0.0917938 0.169151
0 0.996556 0.0911687 0.0528261
0 0.996315 0.0914648 0.11951
0 0.996495 0.0912975 0.0848303
0 0.996509 0.0912688 0.070273
0 0.996492 0.091313 0.0813867
0 0.993884 0.0928959 0.403209
0 0.993219 0.0928766 0.467526
0 0.99286 0.127647 6.2783
0 0.995229 0.0922015 0.304226
0 0.994721 0.0927041 0.396183
0 0.994594 0.0928911 0.414593
0 0.995605 0.0919984 0.239278
0 0.996339 0.0913977 0.101273
0 0.996034 0.091726 0.170682
0 0.993878 0.0931072 0.427038
0 0.993074 0.0930186 0.415819
0 0.992677 0.127173 6.34998
0 0.995223 0.0920526 0.174186
0 0.994681 0.0925742 0.262938
0 0.994558 0.0927733 0.310256
0 0.995659 0.0918722 0.161002
0 0.996076 0.0917373 0.158772
0 0.996382 0.0914295 0.101607
0 0.996327 0.0915529 0.122723
0 0.996298 0.0915033 0.120411
0 0.996301 0.0915301 0.120235
0 0.993839 0.0929759 0.394065
0 0.993227 0.0928298 0.453027
0 0.992949 0.115762 4.18522
0 0.995229 0.0921892 0.275448
0 0.994735 0.092663 0.339059
0 0.995701 0.0918748 0.187372
0 0.996121 0.0916206 0.136018
0 0.994623 0.092704 0.317761
0 0.993905 0.0931057 0.409553
0 0.993109 0.0930347 0.396212
0 0.992709 0.127859 6.42526
0 0.995237 0.0920362 0.156377
0 0.994696 0.0926719 0.285856
0 0.995658 0.0918554 0.16303
0 0.99601 0.0917954 0.167799
0 0.996087 0.0916812 0.141342
0 0.996056 0.0917323 0.155272
0 0.996047 0.0917478 0.163426
0 0.995996 0.0917927 0.173167
0 0.994591 0.0928411 0.34051
0 0.993846 0.0930766 0.390724
0 0.993143 0.0928844 0.372195
0 0.992889 0.126908 6.16237
0 0.995261 0.0920488 0.189751
0 0.995733 0.0917842 0.148137
0 0.994727 0.0925406 0.268113
0 0.993921 0.0929868 0.404954
0 0.993197 0.0929963 0.385437
0 0.992797 0.128057 6.39067
0 0.995238 0.0920748 0.197607
0 0.995639 0.0918699 0.180577
0 0.99572 0.0917669 0.149474
0 0.995668 0.0918131 0.179117
0 0.995644 0.0918462 0.190319
0 0.994714 0.0927072 0.33049
0 0.993842 0.093091 0.402634
0 0.993079 0.0929472 0.384112
0 0.992765 0.12712 6.28506
0 0.995285 0.092038 0.166934
0 0.9946 0.0926676 0.305142
0 0.993948 0.0928526 0.405266
0 0.993287 0.0929143 0.467185
0 0.992937 0.127912 6.27012
0 0.995243 0.0921077 0.236617
0 0.995285 0.0920581 0.224161
0 0.995268 0.0920849 0.254008
0 0.9946 0.0928514 0.371863
0 0.993869 0.0930789 0.407149
0 0.993065 0.0929576 0.391336
0 0.992698 0.127314 6.34631
0 0.994737 0.0926255 0.315078
0 0.993931 0.0928985 0.401944
0 0.993305 0.0928492 0.474113
0 0.993023 0.116218 4.22862
0 0.994637 0.0928354 0.383888
0 0.994734 0.0927265 0.362821
0 0.994767 0.0927211 0.374272
0 0.994634 0.0928767 0.403444
0 0.993874 0.0931193 0.420082
0 0.993073 0.092934 0.381778
0 0.992689 0.127067 6.30006
0 0.9939 0.0930776 0.435262
0 0.993203 0.0929371 0.399437
0 0.992949 0.127845 6.31178
0 0.993893 0.0931232 0.456601
0 0.993895 0.0931282 0.425958
0 0.993885 0.0931407 0.457589
0 0.993062 0.0929261 0.378925
0 0.992697 0.126239 6.15266
0 0.993125 0.0930658 0.452256
0 0.992812 0.127461 6.37539
0 0.99309 0.0930806 0.455358
0 0.993082 0.0929621 0.392073
0 0.992694 0.126642 6.23444
0 0.992741 0.125956 6.43902
0 0.992702 0.126949 6.31961
VECTORS fa_u float
0.00395939 0.00168047 0
0.00552168 0.00316968 0
0.00618286 0.00171968 0
0.00635733 0.00089778 0
0.000449315 0.00018973 0
0.00342711 0.0025476 0
0.00458299 0.00444956 0
0.000452576 0.000170414 0
0.000369652 0.000314723 0
0.00395687 0.0050667 0
0.0032178 0.00557118 0
0.0063488 -1.26452e-05 0
0.006333 -0.000864839 0
0.000399783 5.27442e-05 0
0.000391011 -3.26804e-05 0
0.000394121 6.0337e-05 0
0.000376343 0.000118106 0
0.000382745 0.000299999 0
0.000252472 0.00031936 0
0.000340462 0.000207219 0
0.000286335 0.000274759 0
0.00246614 0.00599774 0
0.0016766 0.00630451 0
0.000190786 0.00035888 0
0.000153284 0.000375821 0
0.000387158 -8.5997e-05 0
0.00615858 -0.00159594 0
0.000390739 -0.000114156 0
0.00596604 -0.00246517 0
0.000397195 -3.50357e-05 0
0.000389219 -7.63914e-05 0
0.000300441 -2.87188e-05 0
0.00082287 0.00632489 0
0.000230581 1.76882e-05 0
0.000232416 8.56815e-05 0
0.000239862 0.000317564 0
0.000185539 0.000348782 0
0.000152543 0.000144883 0
0.000163175 0.000229928 0
0.000124788 0.000386868 0
8.18091e-05 0.000403601 0
0.000149509 0.000375038 0
0.000135913 0.000384026 0
-6.15849e-06 0.00636254 0
0.000405036 -0.000115022 0
0.000435804 -0.000168211 0
0.000439818 -0.000156742 0
0.00548719 -0.00321362 0
0.000422051 -0.000194913 0
0.00500886 -0.00385005 0
0.000301588 -6.39936e-05 0
0.000347571 -8.24331e-05 0
0.000164273 -1.61658e-05 0
2.29121e-05 0.000414769 0
-2.07959e-05 0.000418182 0
0.000101652 2.96325e-05 0
0.00011933 0.000252824 0
0.000128497 0.000312082 0
7.42004e-05 0.000112301 0
0.00010374 0.000397858 0
5.12611e-05 0.000415403 0
0.000117295 0.000312944 0
0.000109477 0.000350715 0
-0.000804191 0.00625684 0
0.000345164 -0.000104679 0
0.000433786 -0.000187077 0
0.000379792 -0.000148118 0
0.000346319 -0.000212454 0
0.000410424 -0.000203282 0
0.00445607 -0.0044356 0
0.000305993 -0.000243924 0
0.00384197 -0.00498319 0
0.000138002 2.97956e-05 0
0.000220993 -4.93212e-05 0
0.000167842 -4.48253e-06 0
-2.36273e-05 0.000435439 0
-2.76271e-05 0.000391414 0
-5.86263e-05 0.000437685 0
0.000108598 7.28069e-05 0
0.000142169 6.22946e-05 0
8.62894e-05 0.000182209 0
9.94914e-05 0.000119016 0
6.48227e-05 0.000333408 0
8.15528e-06 0.000368382 0
7.70596e-05 0.000226257 0
-0.00162327 0.00617637 0
0.00023764 -9.02538e-05 0
0.000344956 -0.000164261 0
0.000352801 -0.000242062 0
0.000347034 -0.000198139 0
0.000259841 -0.00028453 0
0.000307754 -0.000282475 0
0.00315414 -0.00545038 0
0.000214669 -0.000320188 0
0.00014867 3.08076e-05 0
0.00018497 -4.523e-05 0
0.000161453 -8.89503e-06 0
0.000171483 -8.37934e-05 0
0.00243542 -0.00585613 0
7.33639e-06 0.000234544 0
-4.28074e-05 0.00037997 0
-7.72268e-05 0.000371166 0
-9.17726e-05 0.000398255 0
0.000123942 4.95786e-05 0
0.000125147 9.36516e-05 0
8.96361e-05 0.000161434 0
0.000109553 0.000131016 0
2.23888e-05 0.000259093 0
6.14174e-05 0.000188888 0
-0.00234832 0.00562061 0
0.000212538 -0.000131597 0
0.000285748 -0.000220254 0
0.000253167 -0.00032456 0
0.000254779 -0.000278035 0
0.000172106 -0.000348504 0
0.000206411 -0.000353251 0
0.000139797 -0.000365694 0
0.000111454 1.8871e-05 0
9.89621e-05 5.46585e-05 0
0.000120693 -2.50256e-06 0
0.000147606 -4.53943e-05 0
0.000136299 -0.000123464 0
0.000136967 -9.2542e-05 0
9.12845e-05 -2.19108e-05 0
0.0016596 -0.00612353 0
-0.000182183 0.000141592 0
-0.00013971 0.000314384 0
-5.39339e-05 0.000304225 0
-0.000136542 0.000381953 0
9.57088e-05 9.36643e-05 0
7.72142e-05 0.000148995 0
7.61275e-06 0.000212219 0
3.95459e-05 0.000165227 0
-0.000262093 0.000286998 0
-0.00325491 0.00551096 0
0.000151578 -0.000174322 0
0.000192206 -0.00028977 0
0.0001611 -0.000375756 0
0.000160458 -0.000328444 0
0.000110536 -0.000382431 0
0.000134897 -0.000384192 0
9.19858e-05 -0.000156705 0
5.86621e-05 7.26987e-05 0
6.66015e-05 2.0248e-05 0
9.63334e-05 -5.91232e-05 0
9.8183e-05 -0.000118623 0
6.64078e-05 -0.000157447 0
6.01502e-05 -6.0527e-05 0
3.53921e-05 -2.58153e-05 0
6.20446e-05 -0.000388484 0
0.000840062 -0.00633442 0
-4.73077e-05 0.000221723 0
-0.000226281 0.000298031 0
-0.000186325 0.00037483 0
-0.000113831 0.000310965 0
-0.000294602 0.00036018 0
4.19505e-05 0.000118828 0
-2.68682e-06 0.000164635 0
1.73051e-05 8.42893e-05 0
-5.89054e-05 0.000198554 0
-0.000313324 0.00034658 0
-0.00389466 0.00506523 0
9.27561e-05 -0.000206501 0
0.000118981 -0.000315419 0
0.000101815 -0.000390105 0
0.000108811 -0.000338363 0
4.75153e-05 -0.000393733 0
5.34211e-05 -0.000176603 0
9.88289e-06 2.53264e-05 0
5.0125e-05 -0.000103267 0
3.33759e-05 -0.000159912 0
1.99063e-05 -7.44253e-05 0
-1.33511e-05 -2.68645e-05 0
-3.01962e-05 -0.000387502 0
-4.7597e-05 -0.0063094 0
-0.000112641 0.000219079 0
-0.000228051 0.000347882 0
-0.000178229 0.000306103 0
-0.000318252 0.000365764 0
-0.000258378 0.000333907 0
-9.8234e-06 0.000108429 0
-4.27698e-05 0.000132072 0
-2.87232e-05 6.65089e-05 0
-9.31296e-05 0.000153328 0
-0.000144452 0.000193113 0
-0.000312941 0.000361363 0
-0.000311939 0.000348696 0
-0.00450138 0.00453189 0
5.89274e-05 -0.000208576 0
8.08057e-05 -0.000299148 0
-4.35795e-05 -0.000392593 0
2.72907e-05 -0.000310012 0
2.38566e-05 -0.000172421 0
-4.62805e-06 -0.000169088 0
-4.60993e-05 2.57963e-05 0
-7.42045e-07 -0.000119508 0
-1.7795e-05 -8.29428e-05 0
-6.81715e-05 -1.70567e-05 0
-5.28395e-05 -6.19013e-05 0
-0.00010769 -0.000388562 0
-0.000146475 -0.000443989 0
-0.000896476 -0.00621397 0
-0.000182237 0.000243604 0
-0.000259384 0.000299468 0
-0.000276557 0.000308875 0
-0.000163112 0.000175066 0
-6.97452e-05 7.34295e-05 0
-0.000124771 0.000116466 0
-0.000306578 0.000297273 0
-0.000292184 0.000295861 0
-0.00505019 0.00384939 0
1.81692e-05 -0.000173236 0
-3.05228e-05 -0.000261161 0
-0.000114363 -0.000288409 0
-2.45321e-05 -0.000159122 0
-4.26344e-05 -0.00015294 0
-9.65301e-05 3.17156e-05 0
-0.000121836 -1.47347e-05 0
-5.54578e-05 -0.000106879 0
-0.000100841 -6.54799e-05 0
-0.000161201 -0.000359585 0
-9.7449e-05 -0.000442422 0
-0.00107196 -0.00404561 0
-0.00019069 0.000198769 0
-0.000244303 0.000235111 0
-0.00015149 0.000110267 0
-0.000123793 5.63575e-05 0
-0.000271751 0.000164693 0
-0.000338391 0.000230705 0
-0.000316473 0.000238389 0
-0.00557509 0.00319411 0
-5.49126e-05 -0.000146418 0
-0.000156428 -0.000239257 0
-7.34937e-05 -0.000145524 0
-8.70466e-05 -0.000143456 0
-0.00014092 1.0924e-05 0
-0.000149948 -4.03122e-05 0
-0.000118205 -0.000112853 0
-0.000152761 -8.15534e-05 0
-0.000230166 -0.00025094 0
-0.000219239 -0.000323419 0
-0.00015539 -0.000338206 0
-0.0022833 -0.00572376 0
-0.000158036 0.000105025 0
-0.000142175 4.16036e-05 0
-0.000261348 5.98486e-05 0
-0.000389389 0.000111193 0
-0.000361524 0.00013365 0
-0.00592215 0.00240183 0
-0.000131596 -0.000147414 0
-0.000123966 -0.000131304 0
-0.000146956 -2.73203e-05 0
-0.000163834 -7.23976e-05 0
-0.00015906 -0.000104505 0
-0.000248163 -0.000218263 0
-0.000285385 -0.000284024 0
-0.000238642 -0.000300985 0
-0.0030967 -0.00546923 0
-0.000166843 -5.51427e-06 0
-0.000304709 -1.62534e-05 0
-0.000403622 3.6466e-05 0
-0.000466366 2.76505e-05 0
-0.00607666 0.00154554 0
-0.000189578 -0.000141591 0
-0.000207176 -8.55918e-05 0
-0.000226455 -0.000115058 0
-0.000302253 -0.000216623 0
-0.000314941 -0.000258036 0
-0.000284786 -0.000268404 0
-0.00386586 -0.00503297 0
-0.000300273 -9.54476e-05 0
-0.000399727 -4.21574e-05 0
-0.000469528 6.57831e-05 0
-0.00419524 0.000530273 0
-0.000356453 -0.000142517 0
-0.000314047 -0.000181696 0