# vtk DataFile Version 2.0
CellBP Time: 0.56
ASCII
DATASET UNSTRUCTURED_GRID
POINTS 296 double
-9.16916 -3.76879 0
-8.59199 -4.93953 0
-9.5885 -2.53275 0
-9.84192 -1.25213 0
-8.35602 -2.818 0
-7.8669 -6.02493 0
-7.0063 -7.00637 0
-7.91575 -3.87391 0
-7.34129 -4.86688 0
-6.02492 -7.86705 0
-4.93957 -8.59221 0
-9.94092 0.0499762 0
-9.84204 1.35215 0
-8.65617 -1.68327 0
-8.78592 -0.528703 0
-7.58837 -2.00354 0
-7.2244 -2.9058 0
-6.63643 -5.77781 0
-5.82134 -6.59569 0
-6.78899 -3.88809 0
-6.2194 -4.67497 0
-3.76879 -9.16936 0
-2.53271 -9.58878 0
-4.90557 -7.30747 0
-3.91227 -7.88479 0
-8.79237 0.642495 0
-9.58883 2.6329 0
-8.62186 1.77346 0
-9.17218 3.87003 0
-7.7433 -0.928562 0
-7.7936 0.0802822 0
-6.95166 -1.31553 0
-1.25255 -9.84385 0
-6.44057 -2.15268 0
-6.31835 -3.05556 0
-5.53548 -5.47349 0
-4.79498 -6.11428 0
-5.65815 -3.75636 0
-5.26849 -4.56077 0
-2.86559 -8.36238 0
-1.77817 -8.6386 0
-3.92739 -6.72225 0
-3.05599 -7.15123 0
0.0499848 -9.92926 0
-7.70451 1.14309 0
-8.33737 2.91499 0
-7.55062 2.11146 0
-8.59234 5.03966 0
-7.87901 3.97751 0
-7.86713 6.12509 0
-6.77794 -0.396751 0
-6.95572 0.552466 0
-5.77091 -1.00325 0
-0.59066 -8.80811 0
0.565694 -8.76937 0
-5.30259 -2.47998 0
-4.49124 -5.09489 0
-3.90183 -5.77432 0
-4.43842 -3.80431 0
-2.06198 -7.56053 0
-1.13522 -7.7844 0
-2.99403 -6.10107 0
-2.30859 -6.61867 0
1.35251 -9.84396 0
-6.68867 1.4218 0
-7.17095 3.11747 0
-6.65828 2.37255 0
-7.29358 4.98783 0
-6.71695 4.00233 0
-7.00644 7.1065 0
-6.57146 5.8932 0
-6.02503 7.96717 0
-4.4527 -1.18091 0
-5.81416 0.513722 0
-4.65576 -0.0103397 0
0.00857267 -7.84671 0
1.73844 -8.64242 0
0.948927 -7.76212 0
-4.03813 -2.40612 0
-3.48518 -1.39103 0
-3.29412 -4.80481 0
-3.26553 -3.26742 0
-1.37834 -6.67449 0
-0.508636 -7.02391 0
-1.97531 -5.53643 0
2.63264 -9.58898 0
-5.5069 2.03672 0
-6.09391 3.07172 0
-6.10407 4.8688 0
-5.7609 3.99087 0
-5.76047 6.71614 0
-5.45125 5.61844 0
-4.93969 8.69241 0
-4.83779 7.40351 0
-3.50116 -0.424227 0
-4.44893 1.24894 0
-3.71112 0.59205 0
-4.06184 2.31961 0
-3.76891 9.26969 0
2.86223 -8.33153 0
0.419721 -6.79453 0
2.02186 -7.52476 0
1.30603 -6.90467 0
-2.44442 -0.873704 0
-2.83809 -2.13089 0
-2.29416 -4.09696 0
-2.32539 -2.97327 0
-0.442281 -5.8606 0
-1.22258 -4.49871 0
3.8698 -9.17203 0
-4.78944 3.39149 0
-5.08731 4.59354 0
-4.64649 6.28047 0
-4.53827 5.35897 0
-3.84324 7.99232 0
-3.82618 6.84472 0
-2.78295 8.42177 0
-1.64882 -0.137862 0
-1.45007 -0.890462 0
-2.48887 0.507241 0
-3.25332 1.44403 0
-3.23877 3.31628 0
-2.9107 2.37154 0
-1.35492 0.627048 0
-2.53285 9.68933 0
3.93234 -7.88579 0
2.96435 -7.15686 0
0.954107 -5.8215 0
2.07423 -6.41481 0
-1.6828 -1.99185 0
-1.43429 -3.27744 0
0.0902737 -4.7466 0
-0.566106 -3.69408 0
4.93175 -7.31784 0
5.03934 -8.5919 0
-3.7767 4.55126 0
-3.73434 5.75145 0
-2.88758 7.28887 0
-3.00933 6.35295 0
-1.66235 8.73262 0
-1.93983 7.61836 0
-2.3382 4.05135 0
-0.730637 -1.32708 0
-0.836781 -0.257581 0
-1.93601 1.68063 0
-2.12556 2.87557 0
-1.30642 3.54435 0
-0.869344 1.35069 0
-0.282317 0.455982 0
-0.533449 8.87068 0
-1.25256 9.94387 0
1.11278 -4.57427 0
3.90988 -6.71652 0
2.9878 -6.09412 0
2.11786 -5.42455 0
4.78421 -6.20462 0
-0.558795 -2.47656 0
0.49512 -3.46353 0
0.0535692 -1.6103 0
1.48186 -3.68183 0
5.86722 -6.61393 0
6.12447 -7.8666 0
-2.47554 5.34813 0
-2.13023 6.5338 0
-0.903947 7.80236 0
-1.27219 6.93132 0
0.0862209 7.87945 0
-1.14436 4.49438 0
0.150312 -0.617601 0
-0.797329 2.48829 0
-0.331579 3.6004 0
0.0631286 1.51256 0
0.741383 0.473355 0
0.646733 8.87339 0
0.0500005 10.0294 0
2.38099 -4.28503 0
3.8591 -5.63997 0
3.00142 -5.21247 0
5.57388 -5.49141 0
4.69103 -5.28271 0
0.629653 -2.29316 0
1.25613 -2.95103 0
0.757417 -1.39133 0
2.16426 -3.13564 0
2.99371 -3.47641 0
6.15539 -4.79168 0
6.65677 -5.76913 0
7.10708 -7.00707 0
-1.01958 5.82007 0
-0.372558 6.88305 0
1.12253 7.76881 0
0.557941 7.07922 0
-0.000745125 4.72489 0
0.60698 3.82751 0
1.33881 -0.641863 0
0.539085 2.65083 0
0.96603 1.57477 0
1.91007 0.213812 0
1.61465 1.06489 0
2.12923 7.58296 0
1.79911 8.71183 0
1.35257 9.94399 0
3.82288 -4.35151 0
5.11671 -4.44892 0
5.84591 -3.93516 0
3.784 -3.20101 0
1.81219 -1.88255 0
3.0191 -2.57386 0
6.78363 -3.94819 0
7.38215 -4.89784 0
7.97574 -6.03165 0
0.483346 5.88141 0
1.42812 6.74158 0
2.37421 6.6687 0
1.20995 4.556 0
1.48812 3.39742 0
2.43568 -0.692007 0
2.82791 0.142547 0
1.78881 2.16269 0
2.61178 1.15003 0
3.07186 7.1697 0
2.90413 8.37657 0
2.63292 9.6895 0
4.9115 -3.32799 0
6.12095 -3.10891 0
4.17293 -2.27534 0
3.2444 -1.50294 0
6.73152 -2.31328 0
7.2322 -3.04285 0
7.96532 -3.91279 0
8.69607 -4.9419 0
2.02364 5.59985 0
3.0865 6.15349 0
2.36392 4.12685 0
2.42003 3.06074 0
3.52564 -0.46091 0
3.61566 0.613224 0
2.96179 2.28797 0
3.54556 1.52519 0
4.01228 5.89818 0
3.98459 6.7932 0
3.97348 7.93896 0
3.86907 9.27003 0
5.56923 -1.91636 0
4.5094 -1.12971 0
6.71436 -1.33635 0
7.59288 -2.03679 0
8.39777 -2.86203 0
9.275 -3.77102 0
3.41935 4.87727 0
3.33913 3.38542 0
4.69152 0.130026 0
4.51942 1.30997 0
4.06555 2.44384 0
4.57103 5.15288 0
4.84411 6.19121 0
4.98092 7.38105 0
5.03972 8.69246 0
5.88409 -0.434996 0
7.01158 -0.48838 0
7.76026 -1.08553 0
8.68566 -1.7463 0
9.68812 -2.53251 0
4.55303 3.82795 0
5.81855 1.0987 0
5.37205 2.53522 0
5.38096 4.62119 0
5.613 5.5242 0
5.89805 6.67275 0
6.12498 7.96709 0
6.84718 0.463583 0
7.85445 -0.0257338 0
8.86164 -0.584495 0
9.94348 -1.25241 0
6.96174 1.34968 0
5.72225 3.77907 0
6.54278 2.1979 0
6.38156 3.08854 0
6.29368 4.68775 0
6.69436 5.83883 0
7.1064 7.10643 0
7.78576 0.967789 0
8.861 0.572826 0
10.029 0.0500336 0
7.6178 2.00473 0
6.83075 3.90499 0
7.27123 2.94742 0
7.37995 4.88667 0
7.96725 6.12519 0
8.72486 1.72745 0
9.94365 1.35257 0
8.42313 2.83857 0
7.98367 3.91701 0
8.69208 5.03944 0
9.69145 2.63351 0
9.27651 3.87171 0
CELLS 542 2168
3 2 0 4
3 0 1 7
3 4 0 7
3 1 5 8
3 7 1 8
3 3 2 13
3 13 2 4
3 11 3 14
3 14 3 13
3 13 4 15
3 4 7 16
3 15 4 16
3 5 6 17
3 8 5 17
3 6 9 18
3 17 6 18
3 7 8 19
3 16 7 19
3 8 17 20
3 19 8 20
3 9 10 23
3 18 9 23
3 10 21 24
3 23 10 24
3 12 11 25
3 25 11 14
3 26 12 27
3 27 12 25
3 14 13 29
3 29 13 15
3 25 14 30
3 30 14 29
3 29 15 31
3 15 16 33
3 31 15 33
3 16 19 34
3 33 16 34
3 17 18 35
3 20 17 35
3 18 23 36
3 35 18 36
3 19 20 37
3 34 19 37
3 20 35 38
3 37 20 38
3 21 22 39
3 24 21 39
3 22 32 40
3 39 22 40
3 23 24 41
3 36 23 41
3 24 39 42
3 41 24 42
3 27 25 44
3 44 25 30
3 28 26 45
3 45 26 27
3 45 27 46
3 46 27 44
3 47 28 48
3 48 28 45
3 30 29 50
3 50 29 31
3 44 30 51
3 51 30 50
3 50 31 52
3 31 33 52
3 32 43 53
3 40 32 53
3 53 43 54
3 33 34 55
3 34 37 55
3 33 55 52
3 35 36 56
3 38 35 56
3 36 41 57
3 56 36 57
3 37 38 58
3 38 56 58
3 37 58 55
3 39 40 59
3 42 39 59
3 40 53 60
3 59 40 60
3 41 42 61
3 57 41 61
3 42 59 62
3 61 42 62
3 43 63 54
3 46 44 64
3 64 44 51
3 48 45 65
3 65 45 46
3 65 46 66
3 66 46 64
3 49 47 67
3 67 47 48
3 67 48 68
3 68 48 65
3 69 49 70
3 70 49 67
3 52 55 72
3 64 51 73
3 51 50 73
3 50 52 73
3 73 52 74
3 74 52 72
3 53 54 75
3 60 53 75
3 54 63 76
3 54 76 77
3 75 54 77
3 55 58 78
3 72 55 78
3 72 78 79
3 56 57 80
3 57 61 80
3 56 80 58
3 58 80 81
3 78 58 81
3 59 60 82
3 62 59 82
3 60 75 83
3 82 60 83
3 61 62 84
3 62 82 84
3 61 84 80
3 63 85 76
3 66 64 86
3 64 73 86
3 68 65 87
3 87 65 66
3 87 66 86
3 70 67 88
3 88 67 68
3 88 68 89
3 89 68 87
3 71 69 90
3 90 69 70
3 90 70 91
3 91 70 88
3 92 71 93
3 93 71 90
3 74 72 94
3 94 72 79
3 86 73 95
3 95 73 74
3 95 74 96
3 96 74 94
3 97 86 95
3 76 85 99
3 75 77 100
3 83 75 100
3 76 99 101
3 77 76 101
3 77 101 102
3 100 77 102
3 94 79 103
3 78 81 104
3 79 78 104
3 79 104 103
3 80 84 105
3 81 80 105
3 81 105 106
3 104 81 106
3 82 83 107
3 83 100 107
3 82 107 84
3 84 107 108
3 105 84 108
3 85 109 99
3 89 87 110
3 87 86 110
3 110 86 97
3 91 88 111
3 111 88 89
3 111 89 110
3 93 90 112
3 112 90 91
3 112 91 113
3 113 91 111
3 98 92 114
3 114 92 93
3 114 93 115
3 115 93 112
3 116 98 114
3 117 103 118
3 96 94 119
3 94 103 119
3 119 103 117
3 97 95 120
3 120 95 96
3 120 96 119
3 121 110 97
3 121 97 122
3 122 97 120
3 123 119 117
3 124 98 116
3 99 109 125
3 99 125 126
3 101 99 126
3 100 102 127
3 100 127 107
3 101 126 128
3 102 101 128
3 102 128 127
3 104 106 129
3 104 129 103
3 103 129 118
3 105 108 130
3 106 105 130
3 106 130 129
3 107 127 131
3 108 107 131
3 108 131 132
3 108 132 130
3 109 134 125
3 125 134 133
3 113 111 135
3 111 110 135
3 135 110 121
3 115 112 136
3 136 112 113
3 136 113 135
3 116 114 137
3 137 114 115
3 137 115 138
3 138 115 136
3 139 124 116
3 139 116 140
3 140 116 137
3 141 135 121
3 118 129 142
3 118 142 143
3 117 118 143
3 123 117 143
3 122 120 144
3 120 119 144
3 144 119 123
3 141 121 145
3 145 121 122
3 145 122 144
3 146 141 145
3 147 144 123
3 147 123 148
3 143 148 123
3 150 124 139
3 149 150 139
3 131 127 151
3 125 133 152
3 126 125 152
3 126 152 153
3 128 126 153
3 128 153 154
3 128 154 127
3 127 154 151
3 152 133 155
3 130 132 156
3 130 156 129
3 129 156 142
3 131 151 157
3 132 131 157
3 132 157 156
3 156 158 142
3 157 151 159
3 133 160 155
3 134 161 133
3 133 161 160
3 138 136 162
3 136 135 162
3 162 135 141
3 140 137 163
3 163 137 138
3 163 138 162
3 149 139 164
3 164 139 140
3 164 140 165
3 165 140 163
3 166 149 164
3 167 162 141
3 167 141 146
3 142 158 168
3 143 142 168
3 143 168 148
3 146 145 169
3 145 144 169
3 169 144 147
3 170 167 146
3 170 146 169
3 171 169 147
3 171 147 148
3 171 148 172
3 168 172 148
3 173 149 166
3 174 150 149
3 173 174 149
3 154 175 151
3 151 175 159
3 152 155 176
3 153 152 176
3 153 176 177
3 153 177 154
3 154 177 175
3 155 160 178
3 155 178 179
3 176 155 179
3 156 157 180
3 156 180 158
3 157 159 181
3 157 181 180
3 158 180 182
3 158 182 168
3 159 175 183
3 159 183 181
3 175 184 183
3 160 186 178
3 178 186 185
3 161 187 160
3 160 187 186
3 165 163 188
3 163 162 188
3 188 162 167
3 166 164 189
3 189 164 165
3 189 165 188
3 190 173 166
3 190 166 191
3 191 166 189
3 192 188 167
3 192 167 170
3 193 192 170
3 182 194 168
3 194 172 168
3 193 170 195
3 170 169 195
3 195 169 171
3 196 195 171
3 196 171 172
3 194 197 172
3 197 198 172
3 198 196 172
3 200 173 190
3 199 200 190
3 201 174 173
3 200 201 173
3 176 179 202
3 177 176 202
3 177 202 175
3 175 202 184
3 178 185 203
3 178 203 179
3 179 203 202
3 203 185 204
3 202 205 184
3 183 206 181
3 180 181 206
3 180 206 182
3 182 206 194
3 183 184 207
3 205 207 184
3 183 207 206
3 185 208 204
3 186 209 185
3 185 209 208
3 187 210 186
3 186 210 209
3 191 189 211
3 189 188 211
3 211 188 192
3 199 190 212
3 212 190 191
3 212 191 211
3 213 199 212
3 214 211 192
3 214 192 193
3 215 214 193
3 215 193 195
3 206 216 194
3 216 197 194
3 216 217 197
3 215 195 218
3 218 195 196
3 198 218 196
3 217 219 197
3 219 218 198
3 197 219 198
3 220 199 213
3 221 200 199
3 220 221 199
3 222 201 200
3 221 222 200
3 203 204 223
3 203 223 202
3 202 223 205
3 204 208 224
3 204 224 223
3 205 223 225
3 205 225 207
3 207 225 226
3 207 226 206
3 226 216 206
3 208 228 224
3 224 228 227
3 209 229 208
3 229 228 208
3 210 230 209
3 209 230 229
3 213 212 231
3 212 211 231
3 231 211 214
3 232 220 213
3 232 213 231
3 233 231 214
3 233 214 215
3 234 233 215
3 234 215 218
3 226 235 216
3 235 217 216
3 235 236 217
3 217 236 219
3 237 234 218
3 237 218 219
3 236 238 219
3 238 237 219
3 240 220 232
3 239 240 232
3 241 221 220
3 240 241 220
3 242 222 221
3 241 242 221
3 224 227 243
3 224 243 223
3 223 243 225
3 225 243 244
3 225 244 226
3 226 244 235
3 227 245 243
3 228 246 227
3 227 246 245
3 229 247 228
3 228 247 246
3 230 248 229
3 229 248 247
3 239 232 249
3 232 231 249
3 249 231 233
3 250 249 233
3 250 233 234
3 237 250 234
3 244 251 235
3 235 251 236
3 251 252 236
3 236 252 238
3 252 253 238
3 253 250 237
3 253 237 238
3 254 239 249
3 255 240 239
3 254 255 239
3 256 241 240
3 255 256 240
3 257 242 241
3 256 257 241
3 245 258 243
3 243 258 244
3 244 258 251
3 245 259 258
3 246 260 245
3 245 260 259
3 247 261 246
3 246 261 260
3 248 262 247
3 247 262 261
3 254 249 263
3 263 249 250
3 253 263 250
3 258 264 251
3 251 264 252
3 264 265 252
3 265 263 253
3 252 265 253
3 266 254 263
3 267 255 254
3 266 267 254
3 268 256 255
3 267 268 255
3 269 257 256
3 268 269 256
3 259 270 258
3 270 264 258
3 260 271 259
3 259 271 270
3 261 272 260
3 260 272 271
3 262 273 261
3 273 272 261
3 270 274 264
3 275 266 263
3 275 263 265
3 274 276 264
3 276 265 264
3 276 277 265
3 277 275 265
3 278 267 266
3 275 278 266
3 279 268 267
3 278 279 267
3 280 269 268
3 279 280 268
3 271 281 270
3 270 281 274
3 272 282 271
3 271 282 281
3 273 283 272
3 272 283 282
3 281 284 274
3 274 284 276
3 285 278 275
3 277 285 275
3 284 286 276
3 286 285 277
3 276 286 277
3 287 279 278
3 285 287 278
3 288 280 279
3 287 288 279
3 282 289 281
3 281 289 284
3 283 290 282
3 282 290 289
3 289 291 284
3 284 291 286
3 291 292 286
3 292 287 285
3 286 292 285
3 293 288 287
3 292 293 287
3 290 294 289
3 289 294 291
3 294 295 291
3 295 293 292
3 291 295 292
CELL_TYPES 542
5
5
5
5
5
5
5
5
5
5
5
5
5
5
5
5
5
5
5
5
5
5
5
5
5
5
5
5
5
5
5
5
5
5
5
5
5
5
5
5
5
5
5
5
5
5
5
5
5
5
5
5
5
5
5
5
5
5
5
5
5
5
5
5
5
5
5
5
5
5
5
5
5
5
5
5
5
5
5
5
5
5
5
5
5
5
5
5
5
5
5
5
5
5
5
5
5
5
5
5
5
5
5
5
5
5
5
5
5
5
5
5
5
5
5
5
5
5
5
5
5
5
5
5
5
5
5
5
5
5
5
5
5
5
5
5
5
5
5
5
5
5
5
5
5
5
5
5
5
5
5
5
5
5
5
5
5
5
5
5
5
5
5
5
5
5
5
5
5
5
5
5
5
5
5
5
5
5
5
5
5
5
5
5
5
5
5
5
5
5
5
5
5
5
5
5
5
5
5
5
5
5
5
5
5
5
5
5
5
5
5
5
5
5
5
5
5
5
5
5
5
5
5
5
5
5
5
5
5
5
5
5
5
5
5
5
5
5
5
5
5
5
5
5
5
5
5
5
5
5
5
5
5
5
5
5
5
5
5
5
5
5
5
5
5
5
5
5
5
5
5
5
5
5
5
5
5
5
5
5
5
5
5
5
5
5
5
5
5
5
5
5
5
5
5
5
5
5
5
5
5
5
5
5
5
5
5
5
5
5
5
5
5
5
5
5
5
5
5
5
5
5
5
5
5
5
5
5
5
5
5
5
5
5
5
5
5
5
5
5
5
5
5
5
5
5
5
5
5
5
5
5
5
5
5
5
5
5
5
5
5
5
5
5
5
5
5
5
5
5
5
5
5
5
5
5
5
5
5
5
5
5
5
5
5
5
5
5
5
5
5
5
5
5
5
5
5
5
5
5
5
5
5
5
5
5
5
5
5
5
5
5
5
5
5
5
5
5
5
5
5
5
5
5
5
5
5
5
5
5
5
5
5
5
5
5
5
5
5
5
5
5
5
5
5
5
5
5
5
5
5
5
5
5
5
5
5
5
5
5
5
5
5
5
5
5
5
5
5
5
5
5
5
5
5
5
5
5
5
5
5
5
5
5
5
5
5
5
5
5
5
5
5
5
5
5
5
5
5
5
5
5
5
5
5
5
5
5
5
5
5
5
5
5
5
5
5
5
5
5
5
5
5
5
5
5
5
5
5
5
5
5
5
5
5
5
5
5
5
5
5
5
POINT_DATA 296
SCALARS concentrations float 4
LOOKUP_TABLE default
0 0.99423 0.119296 5.34355
0 0.994215 0.119175 5.31676
0 0.994253 0.119165 5.33384
0 0.994283 0.119054 5.31827
0 0.994613 0.0927145 0.374116
0 0.99421 0.119005 5.29171
0 0.994212 0.118869 5.27676
0 0.994606 0.0927084 0.362079
0 0.994582 0.0927137 0.36212
0 0.994213 0.118828 5.27671
0 0.99421 0.118889 5.29022
0 0.994318 0.118889 5.25294
0 0.994321 0.11912 5.20961
0 0.994639 0.0927024 0.386944
0 0.994655 0.0926791 0.38799
0 0.995405 0.0927419 0.392427
0 0.995382 0.0927281 0.378762
0 0.994585 0.0926875 0.364921
0 0.994577 0.092684 0.374393
0 0.995375 0.0927352 0.373924
0 0.995347 0.0927264 0.376095
0 0.994207 0.119223 5.34694
0 0.994219 0.119501 5.3902
0 0.994584 0.0926833 0.381482
0 0.994575 0.0926958 0.386151
0 0.994697 0.0926747 0.382069
0 0.994308 0.118795 5.10316
0 0.99471 0.0926927 0.363519
0 0.994395 0.111411 4.4874
0 0.995394 0.0927406 0.40349
0 0.995412 0.0926742 0.402491
0 0.996079 0.0924175 0.3413
0 0.994265 0.118816 5.26745
0 0.996179 0.0923082 0.314037
0 0.996051 0.0924488 0.333178
0 0.995341 0.0927237 0.3836
0 0.99533 0.0927259 0.391247
0 0.996146 0.0923382 0.314228
0 0.996007 0.0924811 0.342626
0 0.994594 0.0927404 0.391182
0 0.994605 0.092774 0.389611
0 0.995337 0.0927257 0.394433
0 0.995328 0.0927332 0.394676
0 0.994322 0.11872 5.26188
0 0.995455 0.0927339 0.422595
0 0.994779 0.0930291 0.16251
0 0.995553 0.0928221 0.389386
0 0.994322 0.118754 5.08938
0 0.994777 0.0929736 0.149949
0 0.994344 0.11877 5.14567
0 0.996164 0.0923021 0.327018
0 0.996054 0.0924144 0.361186
0 0.996653 0.0917796 0.224884
0 0.994669 0.092734 0.370434
0 0.994696 0.0926587 0.347062
0 0.996644 0.0918094 0.224439
0 0.99612 0.0923684 0.326833
0 0.996002 0.0924739 0.349368
0 0.996614 0.0918433 0.23027
0 0.995379 0.09274 0.390997
0 0.995432 0.0927368 0.382173
0 0.996122 0.0923886 0.332551
0 0.996017 0.0924986 0.351555
0 0.99442 0.118533 5.2828
0 0.996201 0.0922885 0.336842
0 0.99555 0.0927695 0.386239
0 0.99612 0.0924235 0.378338
0 0.994732 0.0926487 0.335655
0 0.995548 0.0927362 0.367141
0 0.994348 0.118624 5.21715
0 0.994705 0.0926077 0.354041
0 0.994334 0.118552 5.23666
0 0.99702 0.0915716 0.188269
0 0.996642 0.0917662 0.218841
0 0.997035 0.0915567 0.179719
0 0.995477 0.0927085 0.359145
0 0.994798 0.0925668 0.340049
0 0.995481 0.0926489 0.332422
0 0.997007 0.0915862 0.185237
0 0.997328 0.0914778 0.166598
0 0.996608 0.0918495 0.232127
0 0.996988 0.0916094 0.186005
0 0.996177 0.0923169 0.312968
0 0.996104 0.0923892 0.315901
0 0.996639 0.0918531 0.230256
0 0.994574 0.119281 5.40795
0 0.996632 0.0917388 0.203959
0 0.996207 0.0922839 0.338009
0 0.995453 0.0926984 0.395366
0 0.996092 0.0924157 0.350902
0 0.994688 0.0925982 0.365603
0 0.995419 0.0926877 0.386548
0 0.994329 0.118484 5.22074
0 0.99468 0.0925912 0.36274
0 0.997393 0.0914162 0.154811
0 0.997017 0.0915574 0.167266
0 0.997364 0.0914487 0.154571
0 0.997028 0.0915442 0.1591
0 0.994322 0.118629 5.23484
0 0.994872 0.0924829 0.551347
0 0.996242 0.0923182 0.283288
0 0.995459 0.0924226 0.321726
0 0.99613 0.0923451 0.265981
0 0.997581 0.0912516 0.113154
0 0.997363 0.0914381 0.15138
0 0.997006 0.0916122 0.184552
0 0.997321 0.0914964 0.159876
0 0.996705 0.0918568 0.222789
0 0.99705 0.0915961 0.179737
0 0.994634 0.111496 3.6462
0 0.996649 0.0917513 0.19978
0 0.996182 0.0923182 0.318239
0 0.995411 0.0926882 0.385153
0 0.996066 0.0924698 0.34495
0 0.994685 0.092606 0.359707
0 0.995431 0.0926833 0.380668
0 0.994676 0.0926085 0.356676
0 0.997751 0.0911449 0.0826375
0 0.997751 0.091139 0.0779081
0 0.997605 0.0912244 0.110194
0 0.997412 0.0914077 0.143732
0 0.997036 0.0915467 0.166497
0 0.997371 0.0914603 0.150942
0 0.997793 0.0910833 0.0700859
0 0.994317 0.118551 5.21654
0 0.994923 0.0924866 0.577059
0 0.995527 0.0922874 0.310472
0 0.99676 0.0918943 0.20076
0 0.996234 0.0922277 0.227925
0 0.997593 0.0912495 0.10568
0 0.997391 0.0914363 0.147929
0 0.997138 0.0915932 0.171966
0 0.997398 0.091437 0.149269
0 0.994914 0.0926006 0.355013
0 0.994648 0.119578 5.33912
0 0.996674 0.0917784 0.211317
0 0.996202 0.0923484 0.320198
0 0.995427 0.0926844 0.377946
0 0.996094 0.0924474 0.340259
0 0.994677 0.0926132 0.355746
0 0.995424 0.0926752 0.373636
0 0.997057 0.091552 0.175147
0 0.997805 0.0910876 0.0685832
0 0.997873 0.0909594 0.0333731
0 0.997628 0.0912136 0.106077
0 0.997426 0.091413 0.146561
0 0.997378 0.0914768 0.159949
0 0.997793 0.0910714 0.0685259
0 0.997897 0.0908992 0.0222987
0 0.994671 0.0926057 0.352539
0 0.994314 0.118747 5.25139
0 0.997175 0.0915886 0.158833
0 0.995551 0.0923869 0.355555
0 0.996196 0.092255 0.242466
0 0.99683 0.0918591 0.169423
0 0.995659 0.0926726 0.346076
0 0.997641 0.0912482 0.110475
0 0.997497 0.0914121 0.142994
0 0.997832 0.0911106 0.0840277
0 0.997426 0.0915513 0.15806
0 0.994945 0.0929413 0.151772
0 0.994547 0.119113 5.19271
0 0.996688 0.0917787 0.217805
0 0.996204 0.0923234 0.315798
0 0.995415 0.0926852 0.373328
0 0.99608 0.09244 0.334628
0 0.995417 0.0927043 0.374832
0 0.997041 0.0915675 0.177915
0 0.997915 0.0909144 0.043002
0 0.997636 0.0912112 0.103202
0 0.997416 0.0914456 0.151555
0 0.997818 0.0910562 0.0670091
0 0.997909 0.0909489 0.0595285
0 0.994686 0.0925847 0.346315
0 0.994323 0.118422 5.19588
0 0.997132 0.0916068 0.144596
0 0.996254 0.0922323 0.274944
0 0.99673 0.0919031 0.183035
0 0.995694 0.0927451 0.371873
0 0.996247 0.0923231 0.330361
0 0.997739 0.0912133 0.110667
0 0.997656 0.0913211 0.126446
0 0.997865 0.0910869 0.0933373
0 0.99752 0.0914506 0.138005
0 0.997224 0.0916404 0.158999
0 0.995688 0.0927327 0.342984
0 0.994936 0.0929014 0.147918
0 0.994595 0.111392 4.42267
0 0.996671 0.0917807 0.215111
0 0.996198 0.0923104 0.308343
0 0.995419 0.0926867 0.369387
0 0.996099 0.0924308 0.327808
0 0.997039 0.0915902 0.179152
0 0.997374 0.0915028 0.162946
0 0.997887 0.0910255 0.0903503
0 0.997641 0.091235 0.110216
0 0.997812 0.0911144 0.0895893
0 0.997856 0.0910862 0.103841
0 0.99783 0.0911273 0.10301
0 0.99544 0.0926802 0.3673
0 0.994697 0.0925667 0.341809
0 0.994336 0.118534 5.21471
0 0.996763 0.091794 0.187031
0 0.996336 0.0922575 0.310213
0 0.996216 0.0924229 0.323852
0 0.997097 0.0916486 0.150191
0 0.997733 0.0911912 0.114397
0 0.99749 0.0914398 0.131579
0 0.995599 0.0926632 0.350717
0 0.994889 0.0926843 0.301004
0 0.994497 0.118872 5.03156
0 0.996668 0.0917686 0.208906
0 0.996213 0.0923075 0.304047
0 0.996114 0.0924967 0.339304
0 0.997044 0.0915817 0.177185
0 0.997432 0.0914553 0.156885
0 0.997767 0.0912051 0.122992
0 0.997722 0.0912958 0.134795
0 0.997657 0.091268 0.12508
0 0.99769 0.0912867 0.130475
0 0.995435 0.0926922 0.37177
0 0.994712 0.0925166 0.3336
0 0.994356 0.118221 5.15797
0 0.996747 0.091812 0.182424
0 0.996316 0.0922311 0.257339
0 0.997185 0.0915619 0.140382
0 0.997558 0.0913584 0.130957
0 0.996233 0.0923399 0.26993
0 0.995566 0.0926634 0.335314
0 0.994859 0.0926669 0.318821
0 0.994488 0.119417 5.21139
0 0.996702 0.0917626 0.206634
0 0.996253 0.0923459 0.313963
0 0.997075 0.0915602 0.173518
0 0.997408 0.0915016 0.164562
0 0.997523 0.0914014 0.140593
0 0.997487 0.0914408 0.143088
0 0.997466 0.0914614 0.15088
0 0.99743 0.0914925 0.147807
0 0.996163 0.0924449 0.333736
0 0.995472 0.0926908 0.375749
0 0.994729 0.0925124 0.336583
0 0.994377 0.117987 5.11522
0 0.996793 0.091734 0.157864
0 0.997214 0.0914967 0.135673
0 0.996332 0.0922485 0.265229
0 0.995567 0.0926849 0.345608
0 0.994841 0.0926223 0.331143
0 0.994491 0.119396 5.31936
0 0.996727 0.0917582 0.205157
0 0.997092 0.0915653 0.165587
0 0.99718 0.0914771 0.132436
0 0.997112 0.0915075 0.132685
0 0.997099 0.0915404 0.143341
0 0.996264 0.0922994 0.301724
0 0.995484 0.0926667 0.373063
0 0.994754 0.0925535 0.349085
0 0.994393 0.11838 5.18536
0 0.996806 0.0917413 0.180438
0 0.996211 0.0923735 0.325188
0 0.995573 0.0926284 0.360177
0 0.994842 0.0925773 0.341957
0 0.994495 0.119038 5.28142
0 0.996727 0.0917663 0.189973
0 0.996758 0.0917123 0.176796
0 0.996728 0.0917239 0.165366
0 0.996144 0.0924127 0.316949
0 0.995499 0.0926418 0.365452
0 0.994769 0.0925576 0.35099
0 0.994411 0.118648 5.23588
0 0.99633 0.0922664 0.314157
0 0.995614 0.0926269 0.39172
0 0.994882 0.0925801 0.354066
0 0.994522 0.118893 5.23185
0 0.996231 0.0924072 0.358094
0 0.996255 0.0922829 0.286932
0 0.996311 0.0922645 0.311041
0 0.996187 0.0923999 0.320548
0 0.995504 0.0926628 0.358767
0 0.994789 0.092533 0.337506
0 0.994436 0.118565 5.21377
0 0.995667 0.0927222 0.372327
0 0.99489 0.0926093 0.342501
0 0.994523 0.119098 5.17459
0 0.995667 0.092718 0.365761
0 0.995564 0.0926718 0.365336
0 0.995646 0.0927052 0.338099
0 0.994813 0.0925235 0.316828
0 0.994471 0.118037 5.08349
0 0.994941 0.0929114 0.156526
0 0.994506 0.118899 5.08684
0 0.99493 0.0929773 0.13726
0 0.994863 0.0926044 0.303909
0 0.994479 0.118446 5.05946
0 0.994579 0.111472 4.44158
0 0.994482 0.118611 5.03855
VECTORS fa_u float
0.00494103 0.00203465 0
0.00461399 0.00264177 0
0.00515267 0.00137835 0
0.00526873 0.000724197 0
0.000353825 0.000121534 0
0.00421347 0.00320138 0
0.00375008 0.00371229 0
0.000329185 0.000150794 0
0.000306433 0.000192951 0
0.00323206 0.00417102 0
0.00265881 0.00457353 0
0.00525292 -1.1806e-05 0
0.00516058 -0.000713038 0
0.000377573 8.46416e-05 0
0.00038634 3.57412e-05 0
0.000377391 0.000107586 0
0.000354912 0.00013228 0
0.000280703 0.000233181 0
0.000252367 0.000276552 0
0.000329829 0.00017616 0
0.000304816 0.000220306 0
0.00204773 0.00493929 0
0.00138486 0.00520926 0
0.000217465 0.000313428 0
0.000176759 0.000343321 0
0.000380128 -3.84665e-05 0
0.00494307 -0.00126819 0
0.000354509 -8.04305e-05 0
0.00414578 -0.00171734 0
0.000399498 5.6612e-05 0
0.00040241 8.08412e-06 0
0.000334008 7.01774e-05 0
0.000669952 0.00522467 0
0.00029968 9.38678e-05 0
0.000307124 0.000129161 0
0.000274559 0.000267893 0
0.000242887 0.000306725 0
0.000268449 0.000163322 0
0.000264599 0.000217669 0
0.000133377 0.000367741 0
8.61123e-05 0.000379975 0
0.000196814 0.000341821 0
0.000158512 0.000361446 0
-2.24508e-05 0.00526183 0
0.000416966 -6.87471e-05 0
0.000149249 6.42988e-05 0
0.00037963 -8.66188e-05 0
0.00439077 -0.00257352 0
6.51246e-05 -0.000135068 0
0.00409638 -0.00311409 0
0.00032543 3.21836e-05 0
0.000361101 -7.84365e-06 0
0.000221003 4.16001e-05 0
4.27493e-05 0.000367959 0
1.62515e-05 0.000346682 0
0.000209779 7.97872e-05 0
0.000219721 0.000241955 0
0.000195817 0.000289334 0
0.000182867 0.000139943 0
0.000108349 0.000375685 0
6.44062e-05 0.000376707 0
0.000147438 0.00029808 0
0.000115213 0.00033214 0
-0.000734469 0.0052315 0
0.000333133 -4.98471e-05 0
0.00035888 -0.00014278 0
0.000359202 -0.000118801 0
0.000288745 -0.000171146 0
0.000324256 -0.000172195 0
0.00370947 -0.00366858 0
0.000274553 -0.000223531 0
0.00319633 -0.00414802 0
0.000183023 4.41343e-05 0
0.000218805 3.92883e-06 0
0.000179088 1.50483e-05 0
2.87769e-05 0.00035799 0
-3.88069e-05 0.000337827 0
1.52296e-05 0.000332073 0
0.000164661 8.48501e-05 0
0.000157179 5.52238e-05 0
0.00013659 0.000187686 0
0.000134223 0.000128771 0
6.09644e-05 0.000306973 0
3.00316e-05 0.000314471 0
7.41964e-05 0.000217974 0
-0.0014794 0.00520167 0
0.000195742 -5.73073e-05 0
0.000307743 -0.000139801 0
0.000324005 -0.000226572 0
0.000296422 -0.000187794 0
0.000233512 -0.000281315 0
0.000270929 -0.000275711 0
0.00261464 -0.00451883 0
0.000189581 -0.000309256 0
0.000153239 2.20121e-05 0
0.000164931 -2.78509e-05 0
0.000154181 -1.09723e-05 0
0.000140186 -7.52374e-05 0
0.00200763 -0.00483457 0
-0.000261595 0.000485337 0
1.78417e-05 0.000282726 0
-5.33648e-05 0.00031727 0
-1.05666e-06 0.000265979 0
0.000106894 3.71148e-05 0
0.000122687 8.86782e-05 0
8.64143e-05 0.00016307 0
9.53937e-05 0.000128298 0
1.91208e-05 0.000221967 0
3.52895e-05 0.000176239 0
-0.0014132 0.0033612 0
0.00015952 -0.000120273 0
0.000231886 -0.000217957 0
0.000215884 -0.000318963 0
0.00020719 -0.000275794 0
0.000150707 -0.000326614 0
0.000178963 -0.000335977 0
0.000110699 -0.000339062 0
8.20494e-05 9.84163e-06 0
6.3263e-05 4.54693e-05 0
0.000109275 -1.4197e-05 0
0.000135027 -4.92599e-05 0
0.000112549 -0.000122695 0
0.000119502 -9.22104e-05 0
6.50515e-05 -2.60831e-05 0
0.00134941 -0.00503898 0
-0.000149951 0.000557236 0
-0.000106654 0.000291578 0
-6.81986e-06 0.000200644 0
-3.61783e-05 0.000225035 0
6.09689e-05 8.63199e-05 0
4.22714e-05 0.00014176 0
-7.4513e-06 0.000171804 0
1.4924e-06 0.000149262 0
-0.000202382 0.000291678 0
-0.00260461 0.00466071 0
0.000122459 -0.000172216 0
0.000159524 -0.000277631 0
0.000137317 -0.000352118 0
0.000140491 -0.000309901 0
6.42713e-05 -0.000349892 0
9.59945e-05 -0.000361094 0
8.30627e-05 -0.000154198 0
1.49291e-05 6.69386e-05 0
2.89337e-05 1.66315e-05 0
8.4498e-05 -6.41287e-05 0
8.86114e-05 -0.00011674 0
5.71549e-05 -0.000149389 0
3.52915e-05 -5.87394e-05 0
-2.04766e-06 -2.22044e-05 0
1.84827e-05 -0.000352054 0
0.00067954 -0.00520724 0
-3.71432e-05 0.000154429 0
-0.000192793 0.000298748 0
-0.000101009 0.000220424 0
-3.52524e-05 0.000165715 0
-0.000231692 0.000257074 0
-1.89983e-06 0.000110459 0
-3.5847e-05 0.000138428 0
-2.79317e-05 7.92494e-05 0
-6.10531e-05 0.000145793 0
-3.22802e-05 0.0001483 0
-0.00312248 0.00414902 0
8.3869e-05 -0.00020101 0
9.86546e-05 -0.000299993 0
4.45621e-05 -0.000370659 0
6.45338e-05 -0.000328346 0
-1.99576e-06 -0.000374827 0
4.26302e-05 -0.000172733 0
-3.38293e-05 2.65471e-05 0
3.09515e-05 -9.8451e-05 0
1.41632e-05 -0.000150892 0
-1.45192e-05 -6.54172e-05 0
-5.61807e-05 -1.96819e-05 0
-2.78573e-05 -0.000345193 0
-6.12383e-06 -0.00519588 0
-7.01583e-05 0.000126435 0
-0.000169778 0.000216263 0
-9.6356e-05 0.000155619 0
-0.000278632 0.00024628 0
-0.000235088 0.000232103 0
-5.10053e-05 9.8212e-05 0
-6.71348e-05 0.000107152 0
-6.90194e-05 6.28345e-05 0
-8.88569e-05 0.000105593 0
-0.000106367 0.000118181 0
-0.000262908 0.000220267 0
-0.000147191 -1.46469e-05 0
-0.00313659 0.00311799 0
3.35267e-05 -0.000212483 0
2.03864e-05 -0.000307668 0
-5.72865e-05 -0.000364917 0
-2.81098e-05 -0.000326601 0
-4.07581e-06 -0.000179106 0
-3.44661e-05 -0.000159259 0
-8.62296e-05 2.69747e-05 0
-3.36549e-05 -0.000104951 0
-5.80319e-05 -6.82536e-05 0
-0.000103364 -9.93947e-06 0
-9.09928e-05 -4.82848e-05 0
-0.000104647 -0.000352077 0
-7.14066e-05 -0.000334267 0
-0.000682719 -0.00516982 0
-0.000129007 0.000135417 0
-0.000227762 0.00021061 0
-0.000251006 0.000204636 0
-0.00011958 9.08743e-05 0
-9.66694e-05 6.11685e-05 0
-0.000112087 6.89178e-05 0
-0.000282602 0.000207698 0
-0.000243302 0.000177221 0
-0.00402487 0.00301944 0
-2.58379e-05 -0.000207302 0
-6.79369e-05 -0.00029636 0
-0.00012152 -0.000316797 0
-5.73737e-05 -0.000167638 0
-7.60038e-05 -0.000137245 0
-0.000119643 2.85044e-05 0
-0.000134622 -6.82898e-06 0
-8.94043e-05 -8.74744e-05 0
-0.000120629 -4.97206e-05 0
-0.00014841 -0.000340862 0
-0.000111868 -0.000314284 0
-0.00133048 -0.00498342 0
-0.000147776 0.000106962 0
-0.000223452 0.000127643 0
-0.000130656 5.13425e-05 0
-0.00012575 3.65595e-05 0
-0.000257087 8.22724e-05 0
-0.000299963 0.000149858 0
-0.000274828 0.000161604 0
-0.00451293 0.00260616 0
-7.8979e-05 -0.000190945 0
-0.000139519 -0.00028126 0
-9.27685e-05 -0.000146637 0
-0.00010642 -0.00012552 0
-0.00013995 1.3433e-05 0
-0.000141602 -2.05668e-05 0
-0.000119347 -9.23106e-05 0
-0.000135533 -5.89728e-05 0
-0.000176738 -0.000283096 0
-0.000174226 -0.000332916 0
-0.000142059 -0.000305135 0
-0.00195359 -0.00472747 0
-0.00015118 4.54477e-05 0
-0.000133184 2.5869e-05 0
-0.000262716 3.64305e-05 0
-0.000335836 8.16033e-05 0
-0.000308089 0.000121397 0
-0.00490724 0.00205294 0
-0.000114872 -0.000169982 0
-0.000110365 -0.000123446 0
-0.000132419 2.09485e-06 0
-0.000126907 -3.87287e-05 0
-0.000113866 -8.70698e-05 0
-0.000179324 -0.000242653 0
-0.000211409 -0.00030738 0
-0.000181843 -0.000297982 0
-0.00259098 -0.00449164 0
-0.000179479 1.85786e-05 0
-0.000324981 1.15828e-05 0
-0.000358343 3.63052e-05 0
-0.00033361 7.50937e-05 0
-0.00510004 0.00137223 0
-0.000125564 -0.00014256 0
-0.00017522 -2.35559e-05 0
-0.000142355 -8.41491e-05 0
-0.000213607 -0.000234156 0
-0.000234209 -0.000280538 0
-0.00021552 -0.000277029 0
-0.0031867 -0.00415444 0
-0.000313524 -1.99473e-05 0
-0.000390701 -2.82429e-05 0
-0.000353731 1.54e-05 0
-0.00518627 0.000689134 0
-0.000351643 -6.76649e-05 0
-0.000222884 -0.0001807 0
-0.0002963 -9.46213e-05 0