# vtk DataFile Version 2.0
CellBP Time: 0.32
ASCII
DATASET UNSTRUCTURED_GRID
POINTS 296 double
-9.17903 -3.77282 0
-8.60125 -4.94485 0
-9.59877 -2.53544 0
-9.85246 -1.25356 0
-8.35688 -2.81829 0
-7.87536 -6.03142 0
-7.01383 -7.01389 0
-7.91658 -3.87433 0
-7.34207 -4.86744 0
-6.03139 -7.87545 0
-4.94489 -8.60139 0
-9.95158 0.0499924 0
-9.8525 1.35358 0
-8.65707 -1.68342 0
-8.78688 -0.528755 0
-7.58927 -2.00379 0
-7.22526 -2.90617 0
-6.63713 -5.77844 0
-5.82195 -6.5964 0
-6.78981 -3.88859 0
-6.22015 -4.67557 0
-3.77288 -9.17923 0
-2.53549 -9.59918 0
-4.90609 -7.30824 0
-3.91269 -7.8856 0
-8.79331 0.642523 0
-9.59891 2.63549 0
-8.62271 1.77358 0
-9.17914 3.87287 0
-7.74425 -0.928664 0
-7.79454 0.0802609 0
-6.95244 -1.31569 0
-1.25392 -9.85435 0
-6.44128 -2.15295 0
-6.31908 -3.05594 0
-5.53614 -5.47418 0
-4.79556 -6.11504 0
-5.65878 -3.75683 0
-5.26911 -4.56135 0
-2.86592 -8.36325 0
-1.77839 -8.63953 0
-3.92786 -6.72307 0
-3.05638 -7.1521 0
0.0499844 -9.93985 0
-7.70546 1.14319 0
-8.33798 2.91506 0
-7.55151 2.11165 0
-8.60137 5.04493 0
-7.87952 3.97791 0
-7.87546 6.1315 0
-6.77868 -0.39681 0
-6.95652 0.552487 0
-5.77139 -1.00337 0
-0.590769 -8.80904 0
0.565664 -8.77028 0
-5.30305 -2.48023 0
-4.49174 -5.09551 0
-3.90228 -5.77503 0
-4.43881 -3.80469 0
-2.06226 -7.56144 0
-1.1354 -7.78533 0
-2.99439 -6.10179 0
-2.30889 -6.61946 0
1.35391 -9.85448 0
-6.6894 1.42192 0
-7.17179 3.11784 0
-6.65906 2.37284 0
-7.29429 4.98836 0
-6.71772 4.00282 0
-7.01391 7.11397 0
-6.57212 5.89383 0
-6.03145 7.97553 0
-4.45305 -1.18104 0
-5.81462 0.513746 0
-4.65612 -0.0103685 0
0.00850837 -7.84764 0
1.7385 -8.64332 0
0.948924 -7.76302 0
-4.03845 -2.40636 0
-3.48547 -1.39118 0
-3.29442 -4.80527 0
-3.2658 -3.26774 0
-1.37853 -6.67523 0
-0.508739 -7.02469 0
-1.97551 -5.53695 0
2.63551 -9.59941 0
-5.50733 2.0369 0
-6.09459 3.0721 0
-6.10481 4.86941 0
-5.76156 3.99137 0
-5.76104 6.71685 0
-5.45189 5.61915 0
-4.94496 8.7015 0
-4.83827 7.40426 0
-3.50143 -0.424291 0
-4.44927 1.24904 0
-3.71141 0.592081 0
-4.06214 2.31982 0
-3.77296 9.2794 0
2.86255 -8.33249 0
0.419673 -6.79528 0
2.02199 -7.52559 0
1.30607 -6.90542 0
-2.44461 -0.873803 0
-2.83831 -2.13111 0
-2.29437 -4.09735 0
-2.32559 -2.97357 0
-0.442384 -5.86114 0
-1.22272 -4.49911 0
3.87288 -9.17926 0
-4.78981 3.39182 0
-5.08786 4.5941 0
-4.64702 6.28125 0
-4.53878 5.35965 0
-3.84362 7.99311 0
-3.82663 6.84554 0
-2.78323 8.4226 0
-1.64899 -0.137896 0
-1.45021 -0.890571 0
-2.48906 0.507261 0
-3.25358 1.44415 0
-3.23902 3.31658 0
-2.91094 2.37176 0
-1.35506 0.627092 0
-2.53558 9.69946 0
3.93273 -7.88669 0
2.96462 -7.15759 0
0.954104 -5.82204 0
2.07438 -6.41548 0
-1.68294 -1.99204 0
-1.43442 -3.27775 0
0.0902176 -4.74701 0
-0.566185 -3.69441 0
4.93227 -7.31844 0
5.04472 -8.6011 0
-3.77699 4.55169 0
-3.73474 5.75213 0
-2.88792 7.28973 0
-3.00968 6.3537 0
-1.66253 8.73349 0
-1.94008 7.61925 0
-2.33839 4.05172 0
-0.730718 -1.32722 0
-0.836873 -0.257624 0
-1.93617 1.68077 0
-2.12575 2.87584 0
-1.30657 3.54469 0
-0.869439 1.3508 0
-0.282362 0.456024 0
-0.53351 8.87156 0
-1.25394 9.95434 0
1.11282 -4.57466 0
3.91034 -6.71718 0
2.9881 -6.09474 0
2.11798 -5.42504 0
4.78481 -6.20521 0
-0.55886 -2.47679 0
0.495107 -3.46384 0
0.0535435 -1.61046 0
1.48195 -3.68218 0
5.86761 -6.61438 0
6.13088 -7.87491 0
-2.47575 5.34861 0
-2.13048 6.53453 0
-0.904072 7.80328 0
-1.27236 6.93212 0
0.0862098 7.88038 0
-1.14448 4.49478 0
0.150307 -0.617648 0
-0.797419 2.48849 0
-0.331645 3.60074 0
0.0631069 1.51269 0
0.741423 0.473401 0
0.646789 8.87427 0
0.0499962 10.0399 0
2.38118 -4.28537 0
3.85956 -5.64051 0
3.00172 -5.21292 0
5.5746 -5.49197 0
4.69163 -5.28321 0
0.629667 -2.29335 0
1.2562 -2.95127 0
0.757475 -1.39145 0
2.16445 -3.1359 0
2.99402 -3.47672 0
6.15608 -4.79223 0
6.65734 -5.76949 0
7.11241 -7.01247 0
-1.01969 5.82058 0
-0.372628 6.88381 0
1.12265 7.76973 0
0.55799 7.08004 0
-0.000768311 4.72531 0
0.607016 3.82788 0
1.33891 -0.641904 0
0.539106 2.65106 0
0.966089 1.57492 0
1.91022 0.213854 0
1.61478 1.06501 0
2.12949 7.58385 0
1.79928 8.71269 0
1.35394 9.95441 0
3.82329 -4.35185 0
5.11735 -4.44938 0
5.84661 -3.93563 0
3.78442 -3.20127 0
1.81233 -1.88268 0
3.0194 -2.57405 0
6.78432 -3.94868 0
7.3827 -4.89841 0
7.98406 -6.03817 0
0.48338 5.88191 0
1.42827 6.74232 0
2.3745 6.66949 0
1.21005 4.5564 0
1.48825 3.39774 0
2.43591 -0.692053 0
2.8282 0.142591 0
1.78896 2.16289 0
2.61202 1.15017 0
3.07224 7.17055 0
2.90442 8.37737 0
2.63561 9.69956 0
4.91204 -3.32827 0
6.12164 -3.10925 0
4.17338 -2.27551 0
3.24472 -1.50303 0
6.73228 -2.31352 0
7.23296 -3.04318 0
7.96584 -3.91313 0
8.70495 -4.94717 0
2.02382 5.60032 0
3.08686 6.15419 0
2.36414 4.1272 0
2.42027 3.06104 0
3.526 -0.460924 0
3.61604 0.613312 0
2.96208 2.28821 0
3.54593 1.52537 0
4.01277 5.89884 0
3.98505 6.794 0
3.97386 7.93971 0
3.87303 9.27957 0
5.5698 -1.91655 0
4.50985 -1.1298 0
6.71514 -1.3365 0
7.59376 -2.03695 0
8.39849 -2.86218 0
9.28458 -3.77496 0
3.41967 4.87767 0
3.33945 3.38572 0
4.69195 0.13005 0
4.51982 1.31011 0
4.06592 2.44407 0
4.57156 5.15343 0
4.84469 6.19192 0
4.9814 7.38175 0
5.04496 8.70147 0
5.88467 -0.435066 0
7.01243 -0.488453 0
7.76118 -1.08563 0
8.68652 -1.7464 0
9.6984 -2.53509 0
4.55346 3.82829 0
5.81909 1.0988 0
5.37254 2.53546 0
5.38158 4.62172 0
5.61365 5.52484 0
5.89862 6.67339 0
6.1314 7.9754 0
6.84799 0.463612 0
7.85539 -0.0257369 0
8.86252 -0.584539 0
9.95397 -1.25367 0
6.96259 1.34982 0
5.72289 3.77951 0
6.54353 2.19815 0
6.3823 3.08892 0
6.29441 4.68831 0
6.695 5.8394 0
7.11383 7.11386 0
7.78667 0.967849 0
8.86186 0.572847 0
10.0395 0.0500463 0
7.61867 2.00491 0
6.83152 3.90547 0
7.27201 2.94774 0
7.38061 4.88718 0
7.97546 6.13154 0
8.72549 1.72738 0
9.95407 1.35379 0
8.42358 2.83876 0
7.98428 3.91739 0
8.70101 5.0447 0
9.69877 2.6353 0
9.28582 3.87559 0
CELLS 542 2168
3 2 0 4
3 0 1 7
3 4 0 7
3 1 5 8
3 7 1 8
3 3 2 13
3 13 2 4
3 11 3 14
3 14 3 13
3 13 4 15
3 4 7 16
3 15 4 16
3 5 6 17
3 8 5 17
3 6 9 18
3 17 6 18
3 7 8 19
3 16 7 19
3 8 17 20
3 19 8 20
3 9 10 23
3 18 9 23
3 10 21 24
3 23 10 24
3 12 11 25
3 25 11 14
3 26 12 27
3 27 12 25
3 14 13 29
3 29 13 15
3 25 14 30
3 30 14 29
3 29 15 31
3 15 16 33
3 31 15 33
3 16 19 34
3 33 16 34
3 17 18 35
3 20 17 35
3 18 23 36
3 35 18 36
3 19 20 37
3 34 19 37
3 20 35 38
3 37 20 38
3 21 22 39
3 24 21 39
3 22 32 40
3 39 22 40
3 23 24 41
3 36 23 41
3 24 39 42
3 41 24 42
3 27 25 44
3 44 25 30
3 28 26 45
3 45 26 27
3 45 27 46
3 46 27 44
3 47 28 48
3 48 28 45
3 30 29 50
3 50 29 31
3 44 30 51
3 51 30 50
3 50 31 52
3 31 33 52
3 32 43 53
3 40 32 53
3 53 43 54
3 33 34 55
3 34 37 55
3 33 55 52
3 35 36 56
3 38 35 56
3 36 41 57
3 56 36 57
3 37 38 58
3 38 56 58
3 37 58 55
3 39 40 59
3 42 39 59
3 40 53 60
3 59 40 60
3 41 42 61
3 57 41 61
3 42 59 62
3 61 42 62
3 43 63 54
3 46 44 64
3 64 44 51
3 48 45 65
3 65 45 46
3 65 46 66
3 66 46 64
3 49 47 67
3 67 47 48
3 67 48 68
3 68 48 65
3 69 49 70
3 70 49 67
3 52 55 72
3 64 51 73
3 51 50 73
3 50 52 73
3 73 52 74
3 74 52 72
3 53 54 75
3 60 53 75
3 54 63 76
3 54 76 77
3 75 54 77
3 55 58 78
3 72 55 78
3 72 78 79
3 56 57 80
3 57 61 80
3 56 80 58
3 58 80 81
3 78 58 81
3 59 60 82
3 62 59 82
3 60 75 83
3 82 60 83
3 61 62 84
3 62 82 84
3 61 84 80
3 63 85 76
3 66 64 86
3 64 73 86
3 68 65 87
3 87 65 66
3 87 66 86
3 70 67 88
3 88 67 68
3 88 68 89
3 89 68 87
3 71 69 90
3 90 69 70
3 90 70 91
3 91 70 88
3 92 71 93
3 93 71 90
3 74 72 94
3 94 72 79
3 86 73 95
3 95 73 74
3 95 74 96
3 96 74 94
3 97 86 95
3 76 85 99
3 75 77 100
3 83 75 100
3 76 99 101
3 77 76 101
3 77 101 102
3 100 77 102
3 94 79 103
3 78 81 104
3 79 78 104
3 79 104 103
3 80 84 105
3 81 80 105
3 81 105 106
3 104 81 106
3 82 83 107
3 83 100 107
3 82 107 84
3 84 107 108
3 105 84 108
3 85 109 99
3 89 87 110
3 87 86 110
3 110 86 97
3 91 88 111
3 111 88 89
3 111 89 110
3 93 90 112
3 112 90 91
3 112 91 113
3 113 91 111
3 98 92 114
3 114 92 93
3 114 93 115
3 115 93 112
3 116 98 114
3 117 103 118
3 96 94 119
3 94 103 119
3 119 103 117
3 97 95 120
3 120 95 96
3 120 96 119
3 121 110 97
3 121 97 122
3 122 97 120
3 123 119 117
3 124 98 116
3 99 109 125
3 99 125 126
3 101 99 126
3 100 102 127
3 100 127 107
3 101 126 128
3 102 101 128
3 102 128 127
3 104 106 129
3 104 129 103
3 103 129 118
3 105 108 130
3 106 105 130
3 106 130 129
3 107 127 131
3 108 107 131
3 108 131 132
3 108 132 130
3 109 134 125
3 125 134 133
3 113 111 135
3 111 110 135
3 135 110 121
3 115 112 136
3 136 112 113
3 136 113 135
3 116 114 137
3 137 114 115
3 137 115 138
3 138 115 136
3 139 124 116
3 139 116 140
3 140 116 137
3 141 135 121
3 118 129 142
3 118 142 143
3 117 118 143
3 123 117 143
3 122 120 144
3 120 119 144
3 144 119 123
3 141 121 145
3 145 121 122
3 145 122 144
3 146 141 145
3 147 144 123
3 147 123 148
3 143 148 123
3 150 124 139
3 149 150 139
3 131 127 151
3 125 133 152
3 126 125 152
3 126 152 153
3 128 126 153
3 128 153 154
3 128 154 127
3 127 154 151
3 152 133 155
3 130 132 156
3 130 156 129
3 129 156 142
3 131 151 157
3 132 131 157
3 132 157 156
3 156 158 142
3 157 151 159
3 133 160 155
3 134 161 133
3 133 161 160
3 138 136 162
3 136 135 162
3 162 135 141
3 140 137 163
3 163 137 138
3 163 138 162
3 149 139 164
3 164 139 140
3 164 140 165
3 165 140 163
3 166 149 164
3 167 162 141
3 167 141 146
3 142 158 168
3 143 142 168
3 143 168 148
3 146 145 169
3 145 144 169
3 169 144 147
3 170 167 146
3 170 146 169
3 171 169 147
3 171 147 148
3 171 148 172
3 168 172 148
3 173 149 166
3 174 150 149
3 173 174 149
3 154 175 151
3 151 175 159
3 152 155 176
3 153 152 176
3 153 176 177
3 153 177 154
3 154 177 175
3 155 160 178
3 155 178 179
3 176 155 179
3 156 157 180
3 156 180 158
3 157 159 181
3 157 181 180
3 158 180 182
3 158 182 168
3 159 175 183
3 159 183 181
3 175 184 183
3 160 186 178
3 178 186 185
3 161 187 160
3 160 187 186
3 165 163 188
3 163 162 188
3 188 162 167
3 166 164 189
3 189 164 165
3 189 165 188
3 190 173 166
3 190 166 191
3 191 166 189
3 192 188 167
3 192 167 170
3 193 192 170
3 182 194 168
3 194 172 168
3 193 170 195
3 170 169 195
3 195 169 171
3 196 195 171
3 196 171 172
3 194 197 172
3 197 198 172
3 198 196 172
3 200 173 190
3 199 200 190
3 201 174 173
3 200 201 173
3 176 179 202
3 177 176 202
3 177 202 175
3 175 202 184
3 178 185 203
3 178 203 179
3 179 203 202
3 203 185 204
3 202 205 184
3 183 206 181
3 180 181 206
3 180 206 182
3 182 206 194
3 183 184 207
3 205 207 184
3 183 207 206
3 185 208 204
3 186 209 185
3 185 209 208
3 187 210 186
3 186 210 209
3 191 189 211
3 189 188 211
3 211 188 192
3 199 190 212
3 212 190 191
3 212 191 211
3 213 199 212
3 214 211 192
3 214 192 193
3 215 214 193
3 215 193 195
3 206 216 194
3 216 197 194
3 216 217 197
3 215 195 218
3 218 195 196
3 198 218 196
3 217 219 197
3 219 218 198
3 197 219 198
3 220 199 213
3 221 200 199
3 220 221 199
3 222 201 200
3 221 222 200
3 203 204 223
3 203 223 202
3 202 223 205
3 204 208 224
3 204 224 223
3 205 223 225
3 205 225 207
3 207 225 226
3 207 226 206
3 226 216 206
3 208 228 224
3 224 228 227
3 209 229 208
3 229 228 208
3 210 230 209
3 209 230 229
3 213 212 231
3 212 211 231
3 231 211 214
3 232 220 213
3 232 213 231
3 233 231 214
3 233 214 215
3 234 233 215
3 234 215 218
3 226 235 216
3 235 217 216
3 235 236 217
3 217 236 219
3 237 234 218
3 237 218 219
3 236 238 219
3 238 237 219
3 240 220 232
3 239 240 232
3 241 221 220
3 240 241 220
3 242 222 221
3 241 242 221
3 224 227 243
3 224 243 223
3 223 243 225
3 225 243 244
3 225 244 226
3 226 244 235
3 227 245 243
3 228 246 227
3 227 246 245
3 229 247 228
3 228 247 246
3 230 248 229
3 229 248 247
3 239 232 249
3 232 231 249
3 249 231 233
3 250 249 233
3 250 233 234
3 237 250 234
3 244 251 235
3 235 251 236
3 251 252 236
3 236 252 238
3 252 253 238
3 253 250 237
3 253 237 238
3 254 239 249
3 255 240 239
3 254 255 239
3 256 241 240
3 255 256 240
3 257 242 241
3 256 257 241
3 245 258 243
3 243 258 244
3 244 258 251
3 245 259 258
3 246 260 245
3 245 260 259
3 247 261 246
3 246 261 260
3 248 262 247
3 247 262 261
3 254 249 263
3 263 249 250
3 253 263 250
3 258 264 251
3 251 264 252
3 264 265 252
3 265 263 253
3 252 265 253
3 266 254 263
3 267 255 254
3 266 267 254
3 268 256 255
3 267 268 255
3 269 257 256
3 268 269 256
3 259 270 258
3 270 264 258
3 260 271 259
3 259 271 270
3 261 272 260
3 260 272 271
3 262 273 261
3 273 272 261
3 270 274 264
3 275 266 263
3 275 263 265
3 274 276 264
3 276 265 264
3 276 277 265
3 277 275 265
3 278 267 266
3 275 278 266
3 279 268 267
3 278 279 267
3 280 269 268
3 279 280 268
3 271 281 270
3 270 281 274
3 272 282 271
3 271 282 281
3 273 283 272
3 272 283 282
3 281 284 274
3 274 284 276
3 285 278 275
3 277 285 275
3 284 286 276
3 286 285 277
3 276 286 277
3 287 279 278
3 285 287 278
3 288 280 279
3 287 288 279
3 282 289 281
3 281 289 284
3 283 290 282
3 282 290 289
3 289 291 284
3 284 291 286
3 291 292 286
3 292 287 285
3 286 292 285
3 293 288 287
3 292 293 287
3 290 294 289
3 289 294 291
3 294 295 291
3 295 293 292
3 291 295 292
CELL_TYPES 542
5
5
5
5
5
5
5
5
5
5
5
5
5
5
5
5
5
5
5
5
5
5
5
5
5
5
5
5
5
5
5
5
5
5
5
5
5
5
5
5
5
5
5
5
5
5
5
5
5
5
5
5
5
5
5
5
5
5
5
5
5
5
5
5
5
5
5
5
5
5
5
5
5
5
5
5
5
5
5
5
5
5
5
5
5
5
5
5
5
5
5
5
5
5
5
5
5
5
5
5
5
5
5
5
5
5
5
5
5
5
5
5
5
5
5
5
5
5
5
5
5
5
5
5
5
5
5
5
5
5
5
5
5
5
5
5
5
5
5
5
5
5
5
5
5
5
5
5
5
5
5
5
5
5
5
5
5
5
5
5
5
5
5
5
5
5
5
5
5
5
5
5
5
5
5
5
5
5
5
5
5
5
5
5
5
5
5
5
5
5
5
5
5
5
5
5
5
5
5
5
5
5
5
5
5
5
5
5
5
5
5
5
5
5
5
5
5
5
5
5
5
5
5
5
5
5
5
5
5
5
5
5
5
5
5
5
5
5
5
5
5
5
5
5
5
5
5
5
5
5
5
5
5
5
5
5
5
5
5
5
5
5
5
5
5
5
5
5
5
5
5
5
5
5
5
5
5
5
5
5
5
5
5
5
5
5
5
5
5
5
5
5
5
5
5
5
5
5
5
5
5
5
5
5
5
5
5
5
5
5
5
5
5
5
5
5
5
5
5
5
5
5
5
5
5
5
5
5
5
5
5
5
5
5
5
5
5
5
5
5
5
5
5
5
5
5
5
5
5
5
5
5
5
5
5
5
5
5
5
5
5
5
5
5
5
5
5
5
5
5
5
5
5
5
5
5
5
5
5
5
5
5
5
5
5
5
5
5
5
5
5
5
5
5
5
5
5
5
5
5
5
5
5
5
5
5
5
5
5
5
5
5
5
5
5
5
5
5
5
5
5
5
5
5
5
5
5
5
5
5
5
5
5
5
5
5
5
5
5
5
5
5
5
5
5
5
5
5
5
5
5
5
5
5
5
5
5
5
5
5
5
5
5
5
5
5
5
5
5
5
5
5
5
5
5
5
5
5
5
5
5
5
5
5
5
5
5
5
5
5
5
5
5
5
5
5
5
5
5
5
5
5
5
5
5
5
5
5
5
5
5
5
5
5
5
5
5
5
5
5
5
5
5
5
5
5
5
5
5
5
5
5
5
5
5
5
5
5
5
5
5
5
POINT_DATA 296
SCALARS concentrations float 4
LOOKUP_TABLE default
0 0.996748 0.102779 3.42984
0 0.996743 0.102633 3.37431
0 0.996762 0.102838 3.42556
0 0.996789 0.102887 3.35393
0 0.997049 0.089887 0.31279
0 0.996738 0.10251 3.322
0 0.996729 0.102435 3.30308
0 0.997051 0.0898377 0.2727
0 0.997035 0.0898291 0.248708
0 0.996719 0.102416 3.31651
0 0.996708 0.102442 3.34617
0 0.996812 0.103102 3.2043
0 0.996806 0.10284 3.34401
0 0.997067 0.0899556 0.307817
0 0.997082 0.0902993 0.229642
0 0.997663 0.0898777 0.299818
0 0.997651 0.0898148 0.283476
0 0.997031 0.0898151 0.245003
0 0.997013 0.0898193 0.259407
0 0.997655 0.0897887 0.260166
0 0.997634 0.0897769 0.254114
0 0.9967 0.102597 3.39699
0 0.996701 0.102731 3.42513
0 0.997007 0.0898226 0.276742
0 0.996992 0.0898326 0.290344
0 0.997095 0.0902977 0.227746
0 0.996798 0.102623 3.37555
0 0.997079 0.0899193 0.300357
0 0.996795 0.102587 3.38424
0 0.997665 0.0900515 0.281139
0 0.99768 0.0899391 0.261456
0 0.998176 0.0896994 0.243435
0 0.996726 0.102395 3.3261
0 0.998247 0.08953 0.221933
0 0.99816 0.089574 0.231056
0 0.997619 0.0897775 0.261026
0 0.997596 0.0897826 0.272808
0 0.998233 0.0894776 0.210552
0 0.998127 0.0895675 0.231121
0 0.996998 0.0898651 0.299739
0 0.996996 0.0898893 0.298267
0 0.997587 0.0897847 0.280983
0 0.99757 0.0897911 0.285983
0 0.996764 0.102351 3.29013
0 0.997675 0.0900214 0.280526
0 0.997085 0.0898394 0.303388
0 0.997673 0.0898824 0.29926
0 0.996799 0.102397 3.31781
0 0.997083 0.089784 0.261896
0 0.996797 0.102303 3.27209
0 0.998251 0.0895936 0.234584
0 0.998172 0.0896845 0.246545
0 0.998599 0.0892211 0.172679
0 0.997036 0.0898634 0.277776
0 0.997061 0.0898128 0.249728
0 0.998591 0.0891602 0.161792
0 0.998196 0.0894888 0.220653
0 0.998094 0.0895634 0.238999
0 0.998563 0.0891465 0.160782
0 0.997598 0.0897975 0.285812
0 0.997625 0.0897992 0.279983
0 0.998168 0.089499 0.22488
0 0.99808 0.0895787 0.242593
0 0.996815 0.102224 3.24944
0 0.998266 0.0895959 0.226477
0 0.997669 0.0898077 0.280161
0 0.998179 0.0896002 0.238964
0 0.997086 0.0897618 0.23614
0 0.997677 0.089756 0.253446
0 0.996787 0.102262 3.25863
0 0.997069 0.0897596 0.234239
0 0.996777 0.102269 3.27415
0 0.998852 0.0890291 0.165043
0 0.998605 0.0892292 0.176608
0 0.998864 0.0890207 0.166499
0 0.997659 0.0897866 0.266897
0 0.997133 0.0897634 0.229986
0 0.997693 0.0897657 0.252762
0 0.998839 0.0889991 0.150634
0 0.999047 0.0889392 0.155638
0 0.998534 0.0891378 0.15495
0 0.99881 0.088988 0.139306
0 0.998188 0.0894578 0.213624
0 0.998126 0.0895175 0.224342
0 0.998534 0.0891336 0.148055
0 0.996872 0.10242 3.31381
0 0.9986 0.0891748 0.157892
0 0.998254 0.0894837 0.210358
0 0.99766 0.0897626 0.25043
0 0.998167 0.0895464 0.220654
0 0.997061 0.0897642 0.246546
0 0.997648 0.0897642 0.255952
0 0.996771 0.102256 3.28881
0 0.997049 0.0897633 0.259712
0 0.999085 0.0889049 0.156501
0 0.998857 0.0890181 0.1593
0 0.999067 0.0889204 0.157557
0 0.998853 0.0889839 0.144383
0 0.996769 0.102331 3.31758
0 0.997187 0.0897302 0.238197
0 0.99824 0.0894728 0.211718
0 0.997745 0.0896922 0.235278
0 0.998203 0.0895316 0.218198
0 0.999189 0.0887956 0.122021
0 0.999059 0.08889 0.132354
0 0.9988 0.0889678 0.121457
0 0.999018 0.0888944 0.1174
0 0.998573 0.0891428 0.15127
0 0.99882 0.0889558 0.116294
0 0.996914 0.102517 3.37782
0 0.998592 0.0891165 0.147929
0 0.998238 0.089474 0.207928
0 0.997627 0.0897629 0.263924
0 0.998135 0.0895664 0.229915
0 0.997049 0.0897713 0.269418
0 0.997625 0.0897579 0.269269
0 0.997047 0.0897686 0.270226
0 0.999281 0.0886871 0.0893035
0 0.99928 0.0886788 0.0756033
0 0.999202 0.0887707 0.122461
0 0.999087 0.0888809 0.143236
0 0.99883 0.0889473 0.126004
0 0.99905 0.0888882 0.130859
0 0.999302 0.0886539 0.0748767
0 0.996771 0.102286 3.30813
0 0.997219 0.0897413 0.284472
0 0.997805 0.0896478 0.243041
0 0.998641 0.0891842 0.161538
0 0.998313 0.0894735 0.208199
0 0.999187 0.0887427 0.0858699
0 0.999052 0.088842 0.097074
0 0.998891 0.0889715 0.126708
0 0.999061 0.0888584 0.103992
0 0.997205 0.0898215 0.337794
0 0.996928 0.102784 3.45206
0 0.998572 0.0891009 0.140098
0 0.998209 0.0894754 0.213248
0 0.997621 0.0897552 0.271676
0 0.998119 0.0895434 0.230261
0 0.997056 0.0897681 0.266777
0 0.997629 0.0897468 0.270196
0 0.998822 0.0889366 0.113788
0 0.999312 0.0886331 0.0495643
0 0.99935 0.0885636 0.0351154
0 0.999204 0.0887392 0.0991974
0 0.999072 0.0888466 0.110053
0 0.99904 0.0888794 0.108061
0 0.999302 0.0886617 0.061541
0 0.999369 0.088573 0.0212946
0 0.997059 0.0897605 0.260204
0 0.996775 0.10238 3.32448
0 0.998955 0.0889807 0.133041
0 0.997805 0.0896949 0.282372
0 0.998311 0.0895204 0.226493
0 0.998737 0.0891864 0.155702
0 0.997755 0.0898187 0.306512
0 0.99922 0.0887403 0.0794238
0 0.99915 0.0888719 0.118115
0 0.999343 0.0886851 0.068352
0 0.999149 0.0889526 0.129876
0 0.997201 0.0899329 0.29581
0 0.996936 0.103084 3.42374
0 0.998558 0.0890902 0.135723
0 0.998206 0.0894557 0.212061
0 0.997634 0.0897499 0.269753
0 0.998127 0.0895361 0.23151
0 0.997645 0.0897601 0.26981
0 0.998815 0.0889434 0.115561
0 0.999392 0.0885798 0.0381607
0 0.99921 0.0887405 0.0800875
0 0.999079 0.0888664 0.107994
0 0.999328 0.0886788 0.0567677
0 0.999399 0.0886419 0.0497397
0 0.997075 0.0897446 0.252481
0 0.996786 0.102217 3.27891
0 0.998971 0.0890125 0.117125
0 0.99832 0.0895205 0.226105
0 0.998694 0.0892372 0.157865
0 0.997756 0.0899705 0.256344
0 0.99825 0.0896147 0.224883
0 0.999313 0.088777 0.0997116
0 0.999295 0.0888465 0.111752
0 0.999393 0.088706 0.0838568
0 0.999241 0.088904 0.106733
0 0.999056 0.0890176 0.104
0 0.997763 0.0899746 0.250312
0 0.99723 0.0902483 0.178251
0 0.996975 0.103203 3.23911
0 0.998561 0.0890902 0.140214
0 0.998228 0.0894446 0.212572
0 0.997655 0.0897466 0.265653
0 0.998166 0.0895275 0.229783
0 0.998834 0.0889539 0.123503
0 0.999068 0.088894 0.118383
0 0.999417 0.0886947 0.079125
0 0.999233 0.088765 0.0879123
0 0.999342 0.088714 0.0682879
0 0.999407 0.0887179 0.0736723
0 0.999371 0.0887158 0.0699287
0 0.997676 0.0897407 0.265102
0 0.997089 0.0897298 0.248588
0 0.996801 0.10228 3.29039
0 0.998699 0.0891783 0.12689
0 0.998305 0.0895254 0.174251
0 0.998204 0.0896385 0.195207
0 0.998955 0.0890174 0.0762776
0 0.999361 0.0887715 0.0949845
0 0.999235 0.0888822 0.0671647
0 0.99778 0.0901012 0.319313
0 0.997283 0.0907021 0.342867
0 0.99703 0.103719 3.10949
0 0.998583 0.0890787 0.142057
0 0.998258 0.0894413 0.212669
0 0.998188 0.089566 0.239231
0 0.998855 0.0889454 0.12397
0 0.999115 0.088864 0.109299
0 0.999388 0.0887647 0.0799394
0 0.999357 0.0887736 0.06909
0 0.999263 0.0887651 0.0820303
0 0.999309 0.0887603 0.0678776
0 0.997671 0.0897482 0.271264
0 0.997105 0.0896924 0.245552
0 0.996822 0.102136 3.26028
0 0.998654 0.089169 0.0828141
0 0.998308 0.0894415 0.13987
0 0.999009 0.0889329 0.0360287
0 0.999278 0.0888304 0.0545453
0 0.99825 0.0895123 0.179443
0 0.997796 0.0899921 0.34684
0 0.997296 0.0911114 0.504563
0 0.997037 0.103276 3.66087
0 0.998617 0.0890747 0.139225
0 0.998285 0.0894657 0.219179
0 0.998879 0.0889336 0.112824
0 0.999104 0.0888807 0.0984674
0 0.999254 0.0888211 0.0489998
0 0.999215 0.0888241 0.0511094
0 0.999152 0.0888464 0.07215
0 0.999153 0.088848 0.0553214
0 0.998204 0.0895398 0.234817
0 0.997689 0.0897533 0.279698
0 0.997115 0.0896935 0.256393
0 0.99684 0.102038 3.24786
0 0.998684 0.0890237 0.0127451
0 0.999033 0.0888681 0.00707299
0 0.998331 0.089361 0.125068
0 0.997798 0.0899041 0.297632
0 0.997306 0.0905284 0.423948
0 0.997042 0.10318 3.73004
0 0.998625 0.0890771 0.131262
0 0.998887 0.0889326 0.0885133
0 0.999017 0.08886 0.0158508
0 0.998954 0.0888663 0.0293666
0 0.998909 0.0888994 0.0508591
0 0.998269 0.0894402 0.203182
0 0.997682 0.0897446 0.27539
0 0.997123 0.0897325 0.273426
0 0.996846 0.102269 3.31018
0 0.998723 0.0889931 0.036965
0 0.998254 0.0894205 0.166126
0 0.997777 0.0897094 0.237047
0 0.997268 0.0898487 0.272605
0 0.997046 0.103295 3.34429
0 0.99862 0.0890806 0.103468
0 0.998698 0.0890034 0.0469832
0 0.998647 0.0890097 0.0519591
0 0.998177 0.0895232 0.207739
0 0.997688 0.0897385 0.257805
0 0.997125 0.08975 0.267566
0 0.996851 0.10246 3.33828
0 0.99835 0.0893524 0.149718
0 0.997773 0.0896568 0.233882
0 0.997234 0.0897481 0.241616
0 0.997006 0.103018 3.29448
0 0.998254 0.0894736 0.193306
0 0.998263 0.089418 0.168076
0 0.998319 0.0893351 0.161929
0 0.99821 0.0894306 0.197023
0 0.997699 0.0897645 0.250857
0 0.997146 0.0897435 0.232725
0 0.996872 0.102481 3.28484
0 0.997771 0.0897111 0.255166
0 0.997223 0.0897385 0.246914
0 0.996976 0.102983 3.33247
0 0.997769 0.089779 0.289441
0 0.997728 0.0898013 0.27865
0 0.997753 0.0896447 0.297513
0 0.997181 0.0897749 0.246729
0 0.996918 0.102237 3.15766
0 0.997246 0.0898099 0.278458
0 0.996981 0.102855 3.29846
0 0.997238 0.0901789 0.368052
0 0.997221 0.0902094 0.357723
0 0.996958 0.102518 3.24721
0 0.99699 0.102858 3.33778
0 0.996965 0.102909 3.57633
VECTORS fa_u float
0.00316114 0.0013308 0
0.00293325 0.00166794 0
0.00330159 0.000913211 0
0.00332185 0.000462764 0
0.000289531 0.00011836 0
0.00266779 0.00197955 0
0.00237061 0.00230012 0
0.000250411 0.00010798 0
0.000221769 0.00011258 0
0.00204062 0.0026144 0
0.0016794 0.00289421 0
0.0032043 -2.38873e-06 0
0.00331187 -0.000462485 0
0.000289989 0.000103234 0
0.000224006 5.05651e-05 0
0.000283976 9.6167e-05 0
0.000266126 9.76517e-05 0
0.000202651 0.000137691 0
0.00018477 0.000182076 0
0.000237094 0.00010711 0
0.000219685 0.000127719 0
0.00130013 0.00313834 0
0.000886813 0.00330833 0
0.000160479 0.000225461 0
0.000131865 0.000258672 0
0.000221399 -5.33904e-05 0
0.00325365 -0.000898951 0
0.000283219 -0.000100009 0
0.00311979 -0.00131147 0
0.000275288 5.70618e-05 0
0.000261444 2.57423e-06 0
0.000238432 4.91003e-05 0
0.000425539 0.00329877 0
0.000214889 5.54743e-05 0
0.000219261 7.28819e-05 0
0.000203906 0.000162962 0
0.000185608 0.000199935 0
0.000193112 8.39049e-05 0
0.000197133 0.000120647 0
0.000101235 0.000282125 0
6.31319e-05 0.000291509 0
0.000150959 0.000236988 0
0.000119488 0.000259825 0
-3.44804e-05 0.00328995 0
0.000273266 -6.34075e-05 0
0.000282124 -0.00011158 0
0.000285898 -8.84224e-05 0
0.00288546 -0.00163768 0
0.000240924 -0.000102689 0
0.0026269 -0.00195089 0
0.000234264 1.22609e-05 0
0.000246019 -1.61095e-05 0
0.00017238 1.01671e-05 0
1.50667e-05 0.000277367 0
-2.94331e-05 0.000247987 0
0.000159483 2.72382e-05 0
0.000171338 0.000139035 0
0.00015463 0.000182236 0
0.000147443 6.41204e-05 0
7.44134e-05 0.000275955 0
2.85762e-05 0.000278521 0
0.000113473 0.000194152 0
8.14831e-05 0.000228499 0
-0.000477479 0.00321417 0
0.000223547 -3.63113e-05 0
0.000262536 -9.78008e-05 0
0.000229816 -6.54863e-05 0
0.000210452 -0.000107108 0
0.000232252 -0.000101458 0
0.00233647 -0.00227147 0
0.000191437 -0.000134981 0
0.00200984 -0.00258468 0
0.000164474 1.36903e-05 0
0.000176552 -4.4603e-06 0
0.000166483 2.27824e-06 0
-2.53623e-05 0.000265689 0
-5.85767e-05 0.000222401 0
-5.20687e-05 0.000247341 0
0.000147091 3.24804e-05 0
0.000153992 2.25754e-05 0
0.00011334 0.000105657 0
0.000124346 6.28031e-05 0
2.75298e-05 0.000211843 0
-1.38491e-05 0.000223914 0
5.06966e-05 0.000139104 0
-0.000897236 0.00319003 0
0.000156542 -2.06038e-05 0
0.000199273 -6.73854e-05 0
0.000213774 -0.000130444 0
0.000200066 -9.3068e-05 0
0.000170766 -0.000177831 0
0.000196339 -0.000164202 0
0.00164244 -0.00284932 0
0.000144391 -0.000215874 0
0.000156322 7.49374e-06 0
0.000158747 -1.32605e-05 0
0.000157391 -7.23687e-06 0
0.000140538 -3.30955e-05 0
0.00125786 -0.00306988 0
-7.51398e-05 0.000226035 0
-4.57404e-05 0.000206718 0
-7.03902e-05 0.000224502 0
-6.5661e-05 0.000208085 0
0.000120675 1.80732e-05 0
0.000125142 4.30947e-05 0
7.53188e-05 9.52833e-05 0
9.35147e-05 7.09764e-05 0
-1.70025e-05 0.000150311 0
1.58047e-05 0.000115215 0
-0.00127758 0.00312689 0
0.000139758 -4.84828e-05 0
0.000175589 -0.000111368 0
0.000169479 -0.000202318 0
0.000167599 -0.00015739 0
0.000112389 -0.000244856 0
0.000139201 -0.000230496 0
7.87711e-05 -0.00025849 0
8.92864e-05 1.74441e-06 0
7.09084e-05 2.62271e-05 0
0.000121907 -1.16367e-05 0
0.000140797 -2.63242e-05 0
0.000110426 -6.0689e-05 0
0.000120919 -5.00278e-05 0
7.12245e-05 -2.30996e-05 0
0.000843343 -0.00319883 0
-8.52727e-05 0.000271391 0
-6.85299e-05 0.00023318 0
-5.60609e-05 0.000151499 0
-6.89143e-05 0.000196462 0
6.78472e-05 5.26345e-05 0
3.69289e-05 8.97754e-05 0
-3.88884e-05 0.000120593 0
-1.49306e-05 0.000102914 0
-0.000109374 0.000319597 0
-0.00166671 0.00302305 0
0.00010987 -8.69254e-05 0
0.000130603 -0.000168575 0
9.82125e-05 -0.000253303 0
0.000104302 -0.000205284 0
4.35347e-05 -0.000263201 0
6.14494e-05 -0.000263116 0
7.08054e-05 -8.90744e-05 0
1.73932e-05 4.64122e-05 0
3.43147e-05 7.45622e-06 0
8.89053e-05 -4.39997e-05 0
8.38113e-05 -7.13249e-05 0
4.31552e-05 -9.90696e-05 0
3.85518e-05 -4.79693e-05 0
3.21031e-06 -2.10512e-05 0
1.10239e-05 -0.00025997 0
0.000424038 -0.00329732 0
-5.86247e-05 0.000119428 0
-7.41647e-05 0.000272458 0
-5.37715e-05 0.000220017 0
-4.78144e-05 0.000148178 0
-9.20161e-05 0.000292374 0
-7.52542e-06 7.90665e-05 0
-5.58738e-05 0.000104064 0
-3.19719e-05 6.04135e-05 0
-6.34616e-05 0.000113316 0
-0.000130523 0.000265456 0
-0.00206241 0.00273285 0
6.01401e-05 -0.000121671 0
6.1608e-05 -0.000202915 0
2.24076e-05 -0.000268821 0
3.29699e-05 -0.00022915 0
-7.80298e-06 -0.000269697 0
2.4651e-05 -0.000112901 0
-3.14445e-05 2.16213e-05 0
2.77342e-05 -7.5132e-05 0
5.93263e-06 -0.000107831 0
-9.55836e-06 -5.59572e-05 0
-4.71683e-05 -1.57859e-05 0
-2.1422e-05 -0.000251571 0
-7.34473e-06 -0.0032789 0
-3.8236e-05 0.000110709 0
-3.44121e-05 0.000223471 0
-3.33668e-05 0.000154298 0
-0.000133277 0.000218973 0
-4.86992e-05 0.000219547 0
-5.84139e-05 8.08097e-05 0
-6.94617e-05 8.75421e-05 0
-6.48268e-05 5.31925e-05 0
-5.75865e-05 8.98649e-05 0
-2.5163e-05 0.00010091 0
-0.000202914 0.000146567 0
-0.000148112 9.91769e-05 0
-0.00234638 0.00223301 0
1.2207e-05 -0.000139682 0
2.78319e-06 -0.000212554 0
-4.17818e-05 -0.000262347 0
-2.4751e-05 -0.000228446 0
-9.10719e-06 -0.000123167 0
-2.26909e-05 -0.000116188 0
-7.3698e-05 2.87988e-05 0
-2.28339e-05 -8.48951e-05 0
-4.09959e-05 -5.46129e-05 0
-7.36416e-05 2.12671e-06 0
-6.23383e-05 -3.16854e-05 0
-6.69655e-05 -0.000256504 0
-5.06197e-05 -0.00024338 0
-0.000435425 -0.00326145 0
-5.81465e-06 0.000126757 0
-6.01153e-05 0.000163553 0
-0.000139217 0.000136837 0
7.12541e-06 7.5944e-05 0
-7.4201e-05 5.92981e-05 0
-3.18927e-05 5.91097e-05 0
-0.000297686 0.000115515 0
-0.000342123 2.25766e-05 0
-0.00256045 0.00176437 0
-2.06488e-05 -0.000140549 0
-4.21063e-05 -0.000208459 0
-6.71884e-05 -0.000229602 0
-3.0526e-05 -0.000120153 0
-3.82598e-05 -0.000102384 0
-7.25636e-05 3.35384e-05 0
-6.85921e-05 8.27951e-06 0
-4.92285e-05 -6.56165e-05 0
-6.31966e-05 -2.47702e-05 0
-8.75123e-05 -0.00025676 0
-7.52758e-05 -0.000233729 0
-0.000842857 -0.00314945 0
1.25259e-05 8.18613e-05 0
-0.000109062 8.75734e-05 0
4.18398e-06 3.5785e-05 0
-4.11828e-05 3.57655e-05 0
-0.000161738 7.77221e-05 0
-0.00030694 0.000161512 0
-0.000472446 0.000177141 0
-0.00322741 0.00172796 0
-3.32208e-05 -0.000135204 0
-6.55373e-05 -0.000209151 0
-3.16911e-05 -0.000108282 0
-4.12067e-05 -8.94306e-05 0
-4.57941e-05 1.74323e-05 0
-5.11093e-05 1.11548e-07 0
-4.4882e-05 -5.6491e-05 0
-4.96709e-05 -2.4357e-05 0
-8.56384e-05 -0.000218644 0
-9.8533e-05 -0.000261768 0
-9.11756e-05 -0.000239634 0
-0.00123102 -0.00300553 0
8.55095e-06 9.45081e-06 0
-4.91345e-07 7.05591e-06 0
-0.000124068 1.57791e-05 0
-0.00026208 0.000141063 0
-0.000343333 0.000248705 0
-0.00342889 0.00146831 0
-3.27179e-05 -0.000127119 0
-2.46142e-05 -8.5022e-05 0
-1.56964e-05 2.2067e-06 0
-2.74463e-05 -1.04449e-05 0
-2.15573e-05 -4.60644e-05 0
-8.32147e-05 -0.00018536 0
-0.000124626 -0.000245577 0
-0.00011872 -0.000246307 0
-0.00163105 -0.00288044 0
-3.45792e-05 -1.30649e-05 0
-0.000166087 -3.56714e-06 0
-0.000227236 6.74908e-05 0
-0.000225057 0.000153828 0
-0.00318484 0.0010203 0
-2.62273e-05 -0.000100089 0
-4.6112e-05 -9.00605e-06 0
-3.01426e-05 -4.23223e-05 0
-0.000119542 -0.000169897 0
-0.000146137 -0.000212386 0
-0.000146647 -0.0002238 0
-0.00201275 -0.00266326 0
-0.00014702 -2.82982e-05 0
-0.000232867 -2.17646e-05 0
-0.000236602 4.89648e-05 0
-0.00324432 0.000572688 0
-0.000182262 -6.4405e-05 0