# vtk DataFile Version 2.0
CellBP Time: 0.2
ASCII
DATASET UNSTRUCTURED_GRID
POINTS 296 double
-9.18317 -3.77448 0
-8.60513 -4.94707 0
-9.60308 -2.53653 0
-9.85688 -1.25417 0
-8.3573 -2.81834 0
-7.87891 -6.03414 0
-7.01698 -7.01703 0
-7.91696 -3.87447 0
-7.34242 -4.86766 0
-6.03411 -7.87897 0
-4.94712 -8.60524 0
-9.95651 0.0499899 0
-9.85689 1.35419 0
-8.65754 -1.68338 0
-8.78764 -0.528653 0
-7.58977 -2.0038 0
-7.2257 -2.90626 0
-6.63743 -5.77872 0
-5.82223 -6.59672 0
-6.79018 -3.88879 0
-6.22048 -4.67584 0
-3.77461 -9.18339 0
-2.53667 -9.60357 0
-4.90632 -7.30859 0
-3.91288 -7.88599 0
-8.79407 0.642416 0
-9.60316 2.63656 0
-8.62318 1.77353 0
-9.18322 3.87451 0
-7.74492 -0.928599 0
-7.79521 0.0802593 0
-6.95298 -1.31567 0
-1.2545 -9.85874 0
-6.44169 -2.15301 0
-6.31945 -3.05607 0
-5.53644 -5.4745 0
-4.79582 -6.11539 0
-5.65907 -3.75703 0
-5.26939 -4.56161 0
-2.86607 -8.36366 0
-1.77849 -8.63996 0
-3.92807 -6.72345 0
-3.05656 -7.1525 0
0.0499987 -9.94427 0
-7.70611 1.14313 0
-8.33839 2.9151 0
-7.55202 2.11166 0
-8.60519 5.04712 0
-7.87989 3.97805 0
-7.87896 6.13418 0
-6.77922 -0.396803 0
-6.9571 0.552476 0
-5.77171 -1.0034 0
-0.590811 -8.80946 0
0.565674 -8.77069 0
-5.30329 -2.48033 0
-4.49198 -5.09579 0
-3.9025 -5.77535 0
-4.439 -3.80487 0
-2.06238 -7.56186 0
-1.13546 -7.78576 0
-2.99456 -6.10213 0
-2.30902 -6.61983 0
1.3545 -9.85883 0
-6.6899 1.42192 0
-7.17222 3.11796 0
-6.65949 2.37291 0
-7.29462 4.98858 0
-6.71809 4.00301 0
-7.01702 7.11707 0
-6.57241 5.8941 0
-6.03413 7.97901 0
-4.45324 -1.1811 0
-5.81497 0.51376 0
-4.65633 -0.0103713 0
0.00850344 -7.84807 0
1.73856 -8.6437 0
0.948958 -7.76344 0
-4.0386 -2.40648 0
-3.48561 -1.39125 0
-3.29457 -4.80549 0
-3.26593 -3.2679 0
-1.37861 -6.67558 0
-0.508767 -7.02506 0
-1.97561 -5.5372 0
2.63667 -9.60369 0
-5.5076 2.03697 0
-6.09492 3.07224 0
-6.10513 4.86968 0
-5.76187 3.99158 0
-5.76129 6.71716 0
-5.45218 5.61946 0
-4.94715 8.7053 0
-4.83848 7.4046 0
-3.50156 -0.424317 0
-4.44947 1.24909 0
-3.71156 0.592102 0
-4.0623 2.31992 0
-3.77465 9.28348 0
2.86267 -8.33286 0
0.419681 -6.79564 0
2.02208 -7.52597 0
1.30612 -6.90579 0
-2.44469 -0.873843 0
-2.83842 -2.13121 0
-2.29447 -4.09753 0
-2.32569 -2.97371 0
-0.442413 -5.86141 0
-1.22278 -4.49931 0
3.8746 -9.18335 0
-4.79 3.39197 0
-5.08811 4.59435 0
-4.64727 6.2816 0
-4.53902 5.35995 0
-3.84379 7.99348 0
-3.82684 6.84591 0
-2.78336 8.42298 0
-1.64905 -0.137905 0
-1.45026 -0.890611 0
-2.48914 0.507276 0
-3.2537 1.44422 0
-3.23915 3.31673 0
-2.91106 2.37187 0
-1.35511 0.627117 0
-2.53672 9.70372 0
3.93291 -7.88703 0
2.96477 -7.15795 0
0.954131 -5.82232 0
2.07448 -6.41581 0
-1.683 -1.99212 0
-1.43448 -3.2779 0
0.0902102 -4.74722 0
-0.566209 -3.69457 0
4.93253 -7.31877 0
5.04698 -8.60493 0
-3.77714 4.5519 0
-3.73494 5.75244 0
-2.88808 7.29012 0
-3.00985 6.35404 0
-1.6626 8.73389 0
-1.94019 7.61965 0
-2.33849 4.05189 0
-0.73074 -1.32728 0
-0.836899 -0.257634 0
-1.93624 1.68083 0
-2.12583 2.87596 0
-1.30662 3.54485 0
-0.869466 1.35085 0
-0.282366 0.456046 0
-0.533534 8.87196 0
-1.25451 9.95873 0
1.11286 -4.57485 0
3.91057 -6.71753 0
2.98826 -6.09508 0
2.11807 -5.4253 0
4.78513 -6.20556 0
-0.558876 -2.47689 0
0.495118 -3.46398 0
0.0535477 -1.61052 0
1.482 -3.68235 0
5.86796 -6.61468 0
6.1336 -7.87838 0
-2.47585 5.34885 0
-2.13059 6.53487 0
-0.904119 7.80369 0
-1.27243 6.93249 0
0.0862126 7.8808 0
-1.14452 4.49497 0
0.15032 -0.617663 0
-0.797447 2.48859 0
-0.331662 3.6009 0
0.0631106 1.51275 0
0.741454 0.473423 0
0.646817 8.87466 0
0.0499998 10.0443 0
2.38128 -4.28555 0
3.85979 -5.64083 0
3.00187 -5.21317 0
5.57507 -5.49238 0
4.69195 -5.28356 0
0.629688 -2.29344 0
1.25624 -2.95137 0
0.757514 -1.39149 0
2.16453 -3.13602 0
2.99414 -3.47688 0
6.15642 -4.79265 0
6.6579 -5.76991 0
7.11539 -7.01548 0
-1.01972 5.82083 0
-0.372647 6.88416 0
1.12271 7.77014 0
0.558021 7.08041 0
-0.000766014 4.72552 0
0.607044 3.82805 0
1.33896 -0.641918 0
0.539128 2.65116 0
0.966126 1.57498 0
1.9103 0.213871 0
1.61485 1.06506 0
2.1296 7.58425 0
1.79936 8.71307 0
1.35452 9.95877 0
3.82346 -4.35208 0
5.11762 -4.44971 0
5.84688 -3.93597 0
3.78454 -3.20141 0
1.81241 -1.88272 0
3.01951 -2.57413 0
6.78452 -3.94908 0
7.38267 -4.89897 0
7.9878 -6.04103 0
0.483408 5.88216 0
1.42834 6.74267 0
2.37463 6.66985 0
1.21011 4.5566 0
1.48832 3.39789 0
2.436 -0.692067 0
2.82833 0.142612 0
1.78904 2.16298 0
2.61214 1.15023 0
3.0724 7.17093 0
2.90454 8.37772 0
2.63674 9.70377 0
4.91219 -3.32845 0
6.12185 -3.10948 0
4.17351 -2.27558 0
3.24484 -1.50306 0
6.73249 -2.3136 0
7.2331 -3.04332 0
7.96535 -3.91305 0
8.70711 -4.94842 0
2.02391 5.60056 0
3.08702 6.15451 0
2.36423 4.12738 0
2.42038 3.06119 0
3.52615 -0.460916 0
3.61619 0.613351 0
2.96221 2.28832 0
3.54609 1.52544 0
4.01296 5.89917 0
3.98524 6.79438 0
3.97402 7.94005 0
3.87469 9.28357 0
5.56993 -1.91659 0
4.50999 -1.1298 0
6.71539 -1.33647 0
7.59403 -2.03696 0
8.39843 -2.86193 0
9.28687 -3.77596 0
3.4198 4.87788 0
3.33957 3.38587 0
4.69211 0.13008 0
4.51998 1.31017 0
4.06606 2.44418 0
4.57176 5.15371 0
4.84492 6.19227 0
4.98161 7.38209 0
5.04716 8.70527 0
5.88486 -0.435031 0
7.01275 -0.488408 0
7.76157 -1.08562 0
8.68688 -1.74643 0
9.70246 -2.53619 0
4.55359 3.82845 0
5.81928 1.09884 0
5.37269 2.53555 0
5.3818 4.62199 0
5.6139 5.52517 0
5.89886 6.67372 0
6.13409 7.97892 0
6.84829 0.463646 0
7.8558 -0.0256907 0
8.86294 -0.584536 0
9.95822 -1.25425 0
6.96288 1.34986 0
5.72308 3.77971 0
6.54378 2.19822 0
6.38253 3.08905 0
6.29467 4.6886 0
6.69526 5.83969 0
7.11691 7.11697 0
7.78707 0.967898 0
8.86228 0.572888 0
10.044 0.0500526 0
7.61895 2.00492 0
6.83169 3.90568 0
7.27225 2.94783 0
7.38086 4.88743 0
7.97878 6.13409 0
8.72587 1.72741 0
9.95839 1.35436 0
8.42362 2.83851 0
7.98408 3.91757 0
8.7047 5.04687 0
9.70301 2.6364 0
9.28811 3.87651 0
CELLS 542 2168
3 2 0 4
3 0 1 7
3 4 0 7
3 1 5 8
3 7 1 8
3 3 2 13
3 13 2 4
3 11 3 14
3 14 3 13
3 13 4 15
3 4 7 16
3 15 4 16
3 5 6 17
3 8 5 17
3 6 9 18
3 17 6 18
3 7 8 19
3 16 7 19
3 8 17 20
3 19 8 20
3 9 10 23
3 18 9 23
3 10 21 24
3 23 10 24
3 12 11 25
3 25 11 14
3 26 12 27
3 27 12 25
3 14 13 29
3 29 13 15
3 25 14 30
3 30 14 29
3 29 15 31
3 15 16 33
3 31 15 33
3 16 19 34
3 33 16 34
3 17 18 35
3 20 17 35
3 18 23 36
3 35 18 36
3 19 20 37
3 34 19 37
3 20 35 38
3 37 20 38
3 21 22 39
3 24 21 39
3 22 32 40
3 39 22 40
3 23 24 41
3 36 23 41
3 24 39 42
3 41 24 42
3 27 25 44
3 44 25 30
3 28 26 45
3 45 26 27
3 45 27 46
3 46 27 44
3 47 28 48
3 48 28 45
3 30 29 50
3 50 29 31
3 44 30 51
3 51 30 50
3 50 31 52
3 31 33 52
3 32 43 53
3 40 32 53
3 53 43 54
3 33 34 55
3 34 37 55
3 33 55 52
3 35 36 56
3 38 35 56
3 36 41 57
3 56 36 57
3 37 38 58
3 38 56 58
3 37 58 55
3 39 40 59
3 42 39 59
3 40 53 60
3 59 40 60
3 41 42 61
3 57 41 61
3 42 59 62
3 61 42 62
3 43 63 54
3 46 44 64
3 64 44 51
3 48 45 65
3 65 45 46
3 65 46 66
3 66 46 64
3 49 47 67
3 67 47 48
3 67 48 68
3 68 48 65
3 69 49 70
3 70 49 67
3 52 55 72
3 64 51 73
3 51 50 73
3 50 52 73
3 73 52 74
3 74 52 72
3 53 54 75
3 60 53 75
3 54 63 76
3 54 76 77
3 75 54 77
3 55 58 78
3 72 55 78
3 72 78 79
3 56 57 80
3 57 61 80
3 56 80 58
3 58 80 81
3 78 58 81
3 59 60 82
3 62 59 82
3 60 75 83
3 82 60 83
3 61 62 84
3 62 82 84
3 61 84 80
3 63 85 76
3 66 64 86
3 64 73 86
3 68 65 87
3 87 65 66
3 87 66 86
3 70 67 88
3 88 67 68
3 88 68 89
3 89 68 87
3 71 69 90
3 90 69 70
3 90 70 91
3 91 70 88
3 92 71 93
3 93 71 90
3 74 72 94
3 94 72 79
3 86 73 95
3 95 73 74
3 95 74 96
3 96 74 94
3 97 86 95
3 76 85 99
3 75 77 100
3 83 75 100
3 76 99 101
3 77 76 101
3 77 101 102
3 100 77 102
3 94 79 103
3 78 81 104
3 79 78 104
3 79 104 103
3 80 84 105
3 81 80 105
3 81 105 106
3 104 81 106
3 82 83 107
3 83 100 107
3 82 107 84
3 84 107 108
3 105 84 108
3 85 109 99
3 89 87 110
3 87 86 110
3 110 86 97
3 91 88 111
3 111 88 89
3 111 89 110
3 93 90 112
3 112 90 91
3 112 91 113
3 113 91 111
3 98 92 114
3 114 92 93
3 114 93 115
3 115 93 112
3 116 98 114
3 117 103 118
3 96 94 119
3 94 103 119
3 119 103 117
3 97 95 120
3 120 95 96
3 120 96 119
3 121 110 97
3 121 97 122
3 122 97 120
3 123 119 117
3 124 98 116
3 99 109 125
3 99 125 126
3 101 99 126
3 100 102 127
3 100 127 107
3 101 126 128
3 102 101 128
3 102 128 127
3 104 106 129
3 104 129 103
3 103 129 118
3 105 108 130
3 106 105 130
3 106 130 129
3 107 127 131
3 108 107 131
3 108 131 132
3 108 132 130
3 109 134 125
3 125 134 133
3 113 111 135
3 111 110 135
3 135 110 121
3 115 112 136
3 136 112 113
3 136 113 135
3 116 114 137
3 137 114 115
3 137 115 138
3 138 115 136
3 139 124 116
3 139 116 140
3 140 116 137
3 141 135 121
3 118 129 142
3 118 142 143
3 117 118 143
3 123 117 143
3 122 120 144
3 120 119 144
3 144 119 123
3 141 121 145
3 145 121 122
3 145 122 144
3 146 141 145
3 147 144 123
3 147 123 148
3 143 148 123
3 150 124 139
3 149 150 139
3 131 127 151
3 125 133 152
3 126 125 152
3 126 152 153
3 128 126 153
3 128 153 154
3 128 154 127
3 127 154 151
3 152 133 155
3 130 132 156
3 130 156 129
3 129 156 142
3 131 151 157
3 132 131 157
3 132 157 156
3 156 158 142
3 157 151 159
3 133 160 155
3 134 161 133
3 133 161 160
3 138 136 162
3 136 135 162
3 162 135 141
3 140 137 163
3 163 137 138
3 163 138 162
3 149 139 164
3 164 139 140
3 164 140 165
3 165 140 163
3 166 149 164
3 167 162 141
3 167 141 146
3 142 158 168
3 143 142 168
3 143 168 148
3 146 145 169
3 145 144 169
3 169 144 147
3 170 167 146
3 170 146 169
3 171 169 147
3 171 147 148
3 171 148 172
3 168 172 148
3 173 149 166
3 174 150 149
3 173 174 149
3 154 175 151
3 151 175 159
3 152 155 176
3 153 152 176
3 153 176 177
3 153 177 154
3 154 177 175
3 155 160 178
3 155 178 179
3 176 155 179
3 156 157 180
3 156 180 158
3 157 159 181
3 157 181 180
3 158 180 182
3 158 182 168
3 159 175 183
3 159 183 181
3 175 184 183
3 160 186 178
3 178 186 185
3 161 187 160
3 160 187 186
3 165 163 188
3 163 162 188
3 188 162 167
3 166 164 189
3 189 164 165
3 189 165 188
3 190 173 166
3 190 166 191
3 191 166 189
3 192 188 167
3 192 167 170
3 193 192 170
3 182 194 168
3 194 172 168
3 193 170 195
3 170 169 195
3 195 169 171
3 196 195 171
3 196 171 172
3 194 197 172
3 197 198 172
3 198 196 172
3 200 173 190
3 199 200 190
3 201 174 173
3 200 201 173
3 176 179 202
3 177 176 202
3 177 202 175
3 175 202 184
3 178 185 203
3 178 203 179
3 179 203 202
3 203 185 204
3 202 205 184
3 183 206 181
3 180 181 206
3 180 206 182
3 182 206 194
3 183 184 207
3 205 207 184
3 183 207 206
3 185 208 204
3 186 209 185
3 185 209 208
3 187 210 186
3 186 210 209
3 191 189 211
3 189 188 211
3 211 188 192
3 199 190 212
3 212 190 191
3 212 191 211
3 213 199 212
3 214 211 192
3 214 192 193
3 215 214 193
3 215 193 195
3 206 216 194
3 216 197 194
3 216 217 197
3 215 195 218
3 218 195 196
3 198 218 196
3 217 219 197
3 219 218 198
3 197 219 198
3 220 199 213
3 221 200 199
3 220 221 199
3 222 201 200
3 221 222 200
3 203 204 223
3 203 223 202
3 202 223 205
3 204 208 224
3 204 224 223
3 205 223 225
3 205 225 207
3 207 225 226
3 207 226 206
3 226 216 206
3 208 228 224
3 224 228 227
3 209 229 208
3 229 228 208
3 210 230 209
3 209 230 229
3 213 212 231
3 212 211 231
3 231 211 214
3 232 220 213
3 232 213 231
3 233 231 214
3 233 214 215
3 234 233 215
3 234 215 218
3 226 235 216
3 235 217 216
3 235 236 217
3 217 236 219
3 237 234 218
3 237 218 219
3 236 238 219
3 238 237 219
3 240 220 232
3 239 240 232
3 241 221 220
3 240 241 220
3 242 222 221
3 241 242 221
3 224 227 243
3 224 243 223
3 223 243 225
3 225 243 244
3 225 244 226
3 226 244 235
3 227 245 243
3 228 246 227
3 227 246 245
3 229 247 228
3 228 247 246
3 230 248 229
3 229 248 247
3 239 232 249
3 232 231 249
3 249 231 233
3 250 249 233
3 250 233 234
3 237 250 234
3 244 251 235
3 235 251 236
3 251 252 236
3 236 252 238
3 252 253 238
3 253 250 237
3 253 237 238
3 254 239 249
3 255 240 239
3 254 255 239
3 256 241 240
3 255 256 240
3 257 242 241
3 256 257 241
3 245 258 243
3 243 258 244
3 244 258 251
3 245 259 258
3 246 260 245
3 245 260 259
3 247 261 246
3 246 261 260
3 248 262 247
3 247 262 261
3 254 249 263
3 263 249 250
3 253 263 250
3 258 264 251
3 251 264 252
3 264 265 252
3 265 263 253
3 252 265 253
3 266 254 263
3 267 255 254
3 266 267 254
3 268 256 255
3 267 268 255
3 269 257 256
3 268 269 256
3 259 270 258
3 270 264 258
3 260 271 259
3 259 271 270
3 261 272 260
3 260 272 271
3 262 273 261
3 273 272 261
3 270 274 264
3 275 266 263
3 275 263 265
3 274 276 264
3 276 265 264
3 276 277 265
3 277 275 265
3 278 267 266
3 275 278 266
3 279 268 267
3 278 279 267
3 280 269 268
3 279 280 268
3 271 281 270
3 270 281 274
3 272 282 271
3 271 282 281
3 273 283 272
3 272 283 282
3 281 284 274
3 274 284 276
3 285 278 275
3 277 285 275
3 284 286 276
3 286 285 277
3 276 286 277
3 287 279 278
3 285 287 278
3 288 280 279
3 287 288 279
3 282 289 281
3 281 289 284
3 283 290 282
3 282 290 289
3 289 291 284
3 284 291 286
3 291 292 286
3 292 287 285
3 286 292 285
3 293 288 287
3 292 293 287
3 290 294 289
3 289 294 291
3 294 295 291
3 295 293 292
3 291 295 292
CELL_TYPES 542
5
5
5
5
5
5
5
5
5
5
5
5
5
5
5
5
5
5
5
5
5
5
5
5
5
5
5
5
5
5
5
5
5
5
5
5
5
5
5
5
5
5
5
5
5
5
5
5
5
5
5
5
5
5
5
5
5
5
5
5
5
5
5
5
5
5
5
5
5
5
5
5
5
5
5
5
5
5
5
5
5
5
5
5
5
5
5
5
5
5
5
5
5
5
5
5
5
5
5
5
5
5
5
5
5
5
5
5
5
5
5
5
5
5
5
5
5
5
5
5
5
5
5
5
5
5
5
5
5
5
5
5
5
5
5
5
5
5
5
5
5
5
5
5
5
5
5
5
5
5
5
5
5
5
5
5
5
5
5
5
5
5
5
5
5
5
5
5
5
5
5
5
5
5
5
5
5
5
5
5
5
5
5
5
5
5
5
5
5
5
5
5
5
5
5
5
5
5
5
5
5
5
5
5
5
5
5
5
5
5
5
5
5
5
5
5
5
5
5
5
5
5
5
5
5
5
5
5
5
5
5
5
5
5
5
5
5
5
5
5
5
5
5
5
5
5
5
5
5
5
5
5
5
5
5
5
5
5
5
5
5
5
5
5
5
5
5
5
5
5
5
5
5
5
5
5
5
5
5
5
5
5
5
5
5
5
5
5
5
5
5
5
5
5
5
5
5
5
5
5
5
5
5
5
5
5
5
5
5
5
5
5
5
5
5
5
5
5
5
5
5
5
5
5
5
5
5
5
5
5
5
5
5
5
5
5
5
5
5
5
5
5
5
5
5
5
5
5
5
5
5
5
5
5
5
5
5
5
5
5
5
5
5
5
5
5
5
5
5
5
5
5
5
5
5
5
5
5
5
5
5
5
5
5
5
5
5
5
5
5
5
5
5
5
5
5
5
5
5
5
5
5
5
5
5
5
5
5
5
5
5
5
5
5
5
5
5
5
5
5
5
5
5
5
5
5
5
5
5
5
5
5
5
5
5
5
5
5
5
5
5
5
5
5
5
5
5
5
5
5
5
5
5
5
5
5
5
5
5
5
5
5
5
5
5
5
5
5
5
5
5
5
5
5
5
5
5
5
5
5
5
5
5
5
5
5
5
5
5
5
5
5
5
5
5
5
5
5
5
5
5
5
5
5
5
5
5
5
5
5
5
5
5
5
5
5
5
5
5
5
5
5
5
5
5
5
5
5
5
5
5
5
5
5
5
5
5
5
5
5
5
5
POINT_DATA 296
SCALARS concentrations float 4
LOOKUP_TABLE default
0 0.997944 0.0884106 2.37289
0 0.997943 0.0882275 2.28629
0 0.997943 0.0886668 2.36241
0 0.997967 0.0888805 2.27674
0 0.998187 0.0824699 0.284362
0 0.997923 0.0881374 2.21504
0 0.997896 0.0881074 2.19454
0 0.9982 0.082375 0.234081
0 0.998179 0.0823531 0.201371
0 0.997878 0.0881058 2.2081
0 0.997868 0.0881154 2.23095
0 0.998005 0.089962 1.5913
0 0.99798 0.0888606 2.27433
0 0.998175 0.0826251 0.275682
0 0.998192 0.0837321 0.25193
0 0.998664 0.0824386 0.220966
0 0.998687 0.0823257 0.209094
0 0.998153 0.0823436 0.194118
0 0.998122 0.0823493 0.203603
0 0.998693 0.0822648 0.189831
0 0.998653 0.0822454 0.184244
0 0.997859 0.0881783 2.26559
0 0.997855 0.0882358 2.28611
0 0.998111 0.0823527 0.21621
0 0.998098 0.08236 0.226254
0 0.998202 0.0837354 0.259142
0 0.997969 0.0885731 2.33124
0 0.998184 0.0826024 0.268386
0 0.99798 0.088335 2.34419
0 0.998647 0.082924 0.169189
0 0.998652 0.0827222 0.0679707
0 0.999086 0.0824561 0.124095
0 0.997871 0.0880868 2.22065
0 0.999158 0.082167 0.105311
0 0.999096 0.0821202 0.134513
0 0.998616 0.0822419 0.187761
0 0.998583 0.0822455 0.195189
0 0.999129 0.0820253 0.124155
0 0.999019 0.082067 0.149981
0 0.9981 0.082382 0.235142
0 0.998093 0.0823977 0.236433
0 0.998573 0.0822483 0.201782
0 0.998559 0.0822536 0.206813
0 0.997901 0.0880725 2.1939
0 0.998657 0.0828664 0.173927
0 0.998214 0.0824368 0.275353
0 0.998673 0.0824497 0.217584
0 0.997985 0.0881352 2.24972
0 0.998224 0.0823401 0.223512
0 0.997967 0.0880585 2.18404
0 0.999135 0.0823801 0.0548393
0 0.999064 0.0824526 0.065187
0 0.999439 0.082048 0.0164101
0 0.998121 0.0823811 0.223535
0 0.998146 0.0823473 0.202084
0 0.999416 0.0818755 0.0670859
0 0.999049 0.0820082 0.134606
0 0.99896 0.0820583 0.150163
0 0.999347 0.0818083 0.0889026
0 0.998576 0.0822585 0.208538
0 0.99859 0.0822612 0.205395
0 0.999013 0.0820145 0.134059
0 0.998944 0.0820698 0.154514
0 0.997951 0.08801 2.16106
0 0.999161 0.0823455 0.0936845
0 0.9987 0.0823134 0.206113
0 0.999101 0.0821837 0.126418
0 0.998217 0.0823077 0.189903
0 0.998705 0.0822435 0.182667
0 0.997939 0.0880406 2.16758
0 0.99818 0.0823055 0.18455
0 0.99792 0.08805 2.1838
0 0.999612 0.0818396 0.0822787
0 0.999443 0.0820859 0.0121359
0 0.999634 0.0818729 0.0695495
0 0.998618 0.0822531 0.19687
0 0.998219 0.0823152 0.187613
0 0.998659 0.0822402 0.186627
0 0.999564 0.0817472 0.0916141
0 0.999699 0.0817295 0.107344
0 0.999292 0.081789 0.0737844
0 0.999504 0.0817059 0.079946
0 0.999021 0.0819925 0.126318
0 0.998973 0.082035 0.141664
0 0.999281 0.0817868 0.0629245
0 0.998014 0.0881013 2.21452
0 0.99943 0.0819302 0.0393883
0 0.999159 0.0820585 0.109756
0 0.998669 0.0822342 0.181921
0 0.999074 0.0820673 0.140399
0 0.998155 0.0823115 0.193317
0 0.998632 0.0822329 0.184959
0 0.997913 0.088044 2.198
0 0.998138 0.0823124 0.203619
0 0.999733 0.0817327 0.111586
0 0.999618 0.0818327 0.0755158
0 0.999729 0.0817575 0.106164
0 0.999581 0.0817562 0.0817227
0 0.997911 0.0880752 2.21793
0 0.998284 0.0822938 0.19613
0 0.999069 0.0820013 0.129856
0 0.998724 0.0821983 0.173765
0 0.999064 0.082047 0.141099
0 0.999747 0.081629 0.101559
0 0.999673 0.0816631 0.0924331
0 0.999477 0.0816871 0.0505368
0 0.999627 0.0816468 0.0659486
0 0.999312 0.0817899 0.0681014
0 0.999488 0.0816782 0.0419057
0 0.998068 0.0881815 2.29726
0 0.999385 0.0818082 0.0793227
0 0.999096 0.0820067 0.129665
0 0.9986 0.0822325 0.189033
0 0.998995 0.082059 0.146179
0 0.998138 0.0823182 0.21204
0 0.998595 0.0822306 0.194129
0 0.998137 0.0823165 0.213752
0 0.99977 0.0815622 0.0815678
0 0.999763 0.0815517 0.0676734
0 0.99976 0.0816263 0.103597
0 0.999716 0.0816978 0.101842
0 0.999527 0.0816897 0.0709565
0 0.999675 0.081665 0.0854188
0 0.999775 0.0815438 0.068836
0 0.997913 0.0880508 2.21119
0 0.998332 0.0823126 0.242708
0 0.998796 0.0821785 0.182848
0 0.999387 0.0818185 0.0812919
0 0.999171 0.0820143 0.126257
0 0.999722 0.0815741 0.060189
0 0.99964 0.0816154 0.0416926
0 0.999551 0.0816887 0.056749
0 0.999654 0.0816223 0.0460528
0 0.998363 0.0824102 0.287
0 0.998107 0.08844 2.40763
0 0.999327 0.0817735 0.067875
0 0.999041 0.0819986 0.125538
0 0.998592 0.0822295 0.197335
0 0.99897 0.0820465 0.144051
0 0.998142 0.0823164 0.213239
0 0.998599 0.0822246 0.19768
0 0.999497 0.0816718 0.0476436
0 0.999773 0.0815056 0.0369
0 0.999786 0.0814867 0.0393019
0 0.999743 0.0815862 0.076695
0 0.999664 0.0816234 0.0636359
0 0.999639 0.0816323 0.0473536
0 0.999773 0.0815333 0.0495122
0 0.999797 0.0814796 0.0209674
0 0.998142 0.0823119 0.210298
0 0.997913 0.0880933 2.22335
0 0.99963 0.0817049 0.0615143
0 0.998823 0.0822373 0.218137
0 0.9992 0.0820653 0.145727
0 0.999496 0.0818381 0.0724412
0 0.998824 0.0823571 0.218107
0 0.999742 0.0815585 0.0436887
0 0.999727 0.081635 0.0660096
0 0.999801 0.0815276 0.0443442
0 0.999769 0.0816971 0.0626124
0 0.998403 0.0825365 0.227079
0 0.99817 0.0889176 2.42685
0 0.999302 0.0817628 0.054206
0 0.999037 0.0819895 0.125603
0 0.9986 0.0822258 0.198477
0 0.998977 0.082043 0.147657
0 0.998607 0.0822318 0.200127
0 0.999489 0.0816727 0.0427424
0 0.999816 0.0814703 0.0203468
0 0.999736 0.0815639 0.0470875
0 0.999666 0.0816253 0.0484876
0 0.99979 0.0815276 0.0369618
0 0.999832 0.0815022 0.0245788
0 0.998154 0.0823026 0.206417
0 0.997921 0.088019 2.19368
0 0.999686 0.0817628 0.0469812
0 0.999244 0.0821349 0.155
0 0.999504 0.0819052 0.0793232
0 0.998866 0.0826846 0.109073
0 0.99924 0.0823172 0.133928
0 0.999816 0.0815839 0.064879
0 0.999841 0.0816418 0.0653367
0 0.999848 0.0815434 0.0523822
0 0.999843 0.0816959 0.0500771
0 0.999768 0.0817815 0.0444979
0 0.998749 0.0824247 0.150133
0 0.998348 0.0834404 0.174746
0 0.998224 0.0895198 2.41796
0 0.999304 0.0817635 0.0585356
0 0.999053 0.0819833 0.128237
0 0.998615 0.0822239 0.197908
0 0.999006 0.0820389 0.148677
0 0.999507 0.0816772 0.0473303
0 0.999668 0.0816393 0.0508706
0 0.999866 0.081535 0.0445032
0 0.999759 0.0815751 0.0472589
0 0.999813 0.0815439 0.0372729
0 0.99987 0.0815448 0.0304326
0 0.999842 0.0815431 0.0289898
0 0.998631 0.082221 0.198896
0 0.998166 0.0822936 0.204355
0 0.997933 0.0880521 2.20259
0 0.999557 0.0819346 0.0698041
0 0.999315 0.0821382 0.0202361
0 0.99924 0.0821234 0.108539
0 0.999738 0.0817825 0.0462424
0 0.999882 0.081597 0.0556446
0 0.999861 0.0816884 0.0332381
0 0.998573 0.0826548 0.417516
0 0.997869 0.083905 0.751818
0 0.997915 0.0916261 1.70165
0 0.999322 0.0817575 0.0609142
0 0.999075 0.0819829 0.130341
0 0.99902 0.0820609 0.1575
0 0.999525 0.0816739 0.0479625
0 0.9997 0.0816265 0.0465122
0 0.999891 0.0815778 0.0361972
0 0.999867 0.0815691 0.0153762
0 0.999789 0.0815747 0.0356659
0 0.999826 0.0815618 0.00996388
0 0.998624 0.0822261 0.202688
0 0.998178 0.0822686 0.200925
0 0.99795 0.0879883 2.18296
0 0.99959 0.0818875 0.0294041
0 0.999334 0.0820086 0.127397
0 0.999766 0.0817163 0.0376895
0 0.999869 0.0816339 0.0331258
0 0.999299 0.0819851 0.228066
0 0.998584 0.0824049 0.531197
0 0.997436 0.0837413 1.3483
0 0.997037 0.0898655 4.56698
0 0.999346 0.081757 0.0608557
0 0.999089 0.0819976 0.135976
0 0.99954 0.0816691 0.0454648
0 0.999696 0.0816311 0.0397338
0 0.999831 0.0816002 0.0291011
0 0.999785 0.0815853 0.0207661
0 0.999729 0.0816075 0.0262141
0 0.999737 0.0815963 0.0187594
0 0.999031 0.0820448 0.151353
0 0.998638 0.0822294 0.206952
0 0.998184 0.082271 0.207056
0 0.997963 0.0879417 2.17577
0 0.999598 0.081722 0.0162712
0 0.999738 0.0816471 0.0433523
0 0.999354 0.0818656 0.146697
0 0.998813 0.0822879 0.405335
0 0.997877 0.0831164 0.969629
0 0.997016 0.0896813 4.63239
0 0.99935 0.0817578 0.0585496
0 0.999547 0.081664 0.0402286
0 0.999677 0.0816246 0.0375879
0 0.999615 0.0816145 0.0250393
0 0.999575 0.0816377 0.0275673
0 0.999103 0.0819705 0.124711
0 0.998655 0.0822159 0.197947
0 0.998201 0.0822952 0.213765
0 0.99797 0.0880455 2.22014
0 0.999534 0.0816815 0.0251644
0 0.999258 0.0818984 0.129132
0 0.998952 0.0821241 0.209404
0 0.998416 0.0823365 0.284941
0 0.997905 0.0901186 2.48894
0 0.999372 0.0817472 0.0490058
0 0.999459 0.0816806 0.0223334
0 0.999416 0.0817016 0.0461625
0 0.999076 0.0820074 0.150847
0 0.998705 0.0821934 0.189951
0 0.998241 0.0822956 0.201301
0 0.997998 0.088151 2.24663
0 0.99926 0.0818528 0.107361
0 0.998914 0.0820822 0.161802
0 0.99851 0.0822484 0.168772
0 0.998293 0.0889346 2.43329
0 0.999148 0.0819337 0.191968
0 0.999145 0.0819269 0.161371
0 0.999178 0.0818429 0.179557
0 0.999099 0.0819194 0.223354
0 0.998724 0.0821871 0.222918
0 0.998287 0.0822694 0.189545
0 0.998059 0.0882562 2.24596
0 0.998826 0.0821181 0.201578
0 0.998439 0.082248 0.168871
0 0.998278 0.0885928 2.32325
0 0.99866 0.0822151 0.383126
0 0.998617 0.0822564 0.39098
0 0.998574 0.0820911 0.396822
0 0.998206 0.0823065 0.267066
0 0.998074 0.0884167 2.24916
0 0.998285 0.0823307 0.273163
0 0.998173 0.0887006 2.3427
0 0.997856 0.0828571 0.816332
0 0.997832 0.0829109 0.849737
0 0.997764 0.0892088 2.19296
0 0.997805 0.0893664 2.25126
0 0.997285 0.0904697 4.38251
VECTORS fa_u float
0.00217259 0.000954188 0
0.00199034 0.00112502 0
0.0022646 0.000672719 0
0.00225862 0.000286648 0
0.000211768 0.000189779 0
0.00179331 0.00130017 0
0.00158519 0.00151761 0
0.000194038 0.000130932 0
0.000176698 9.65816e-05 0
0.00135937 0.00174006 0
0.00111561 0.00193199 0
0.0015913 -4.39776e-06 0
0.00225622 -0.000286398 0
0.000179377 0.000209343 0
-0.000180176 0.000176083 0
0.000123851 0.000182994 0
0.000152885 0.000142641 0
0.000165072 0.000102143 0
0.000150374 0.000137266 0
0.000161779 9.93142e-05 0
0.000162853 8.61668e-05 0
0.000864578 0.00209413 0
0.000594403 0.00220748 0
0.000128346 0.000173995 0
0.000103545 0.000201169 0
-0.000182106 -0.000184368 0
0.00223524 -0.000662104 0
0.000169694 -0.00020793 0
0.00214704 -0.000940978 0
-5.24397e-05 0.000160857 0
-6.79504e-05 1.65977e-06 0
-2.49173e-05 0.000121568 0
0.000291205 0.00220148 0
4.97499e-05 9.28184e-05 0
0.000110902 7.61206e-05 0
0.000155239 0.000105618 0
0.000139808 0.000136207 0
0.000116798 4.21023e-05 0
0.000137283 6.03976e-05 0
7.93634e-05 0.000221344 0
4.93255e-05 0.00023123 0
0.000110686 0.000168714 0
8.82964e-05 0.000187017 0
-1.83415e-05 0.00219382 0
-3.56006e-05 -0.000170244 0
0.000205393 -0.000183392 0
0.000121187 -0.000180711 0
0.00195944 -0.00110538 0
0.000185073 -0.000125321 0
0.00176722 -0.00128334 0
-4.44537e-05 3.21126e-05 0
-4.76056e-05 -4.45315e-05 0
2.08829e-06 1.62767e-05 0
9.85241e-06 0.000223318 0
-2.73572e-05 0.000200224 0
6.68694e-05 5.38628e-06 0
0.000116219 6.79108e-05 0
0.000105439 0.000106918 0
8.86998e-05 6.00256e-06 0
5.55736e-05 0.000200997 0
2.06389e-05 0.000204356 0
7.29879e-05 0.000112448 0
5.46253e-05 0.000144536 0
-0.000322439 0.00213687 0
-1.94549e-05 -9.16422e-05 0
0.000154005 -0.000136985 0
7.36481e-05 -0.00010275 0
0.000166954 -9.04965e-05 0
0.000157624 -9.23138e-05 0
0.00156453 -0.00150022 0
0.000155923 -9.87265e-05 0
0.00134248 -0.00172242 0
8.22662e-05 -1.43335e-06 0
-1.00457e-05 -6.80917e-06 0
6.94033e-05 4.50724e-06 0
-2.53527e-05 0.000195231 0
-4.76179e-05 0.000181469 0
-4.60308e-05 0.000180861 0
9.10149e-05 -1.04609e-05 0
0.000107266 -4.09335e-06 0
6.61681e-05 3.26485e-05 0
7.98721e-05 3.43701e-06 0
1.57074e-05 0.000125337 0
-1.58018e-05 0.00014078 0
2.51502e-05 5.76798e-05 0
-0.000610589 0.00212868 0
3.6641e-05 -1.44525e-05 0
9.34017e-05 -5.76403e-05 0
0.000159999 -8.65765e-05 0
0.000130104 -5.27714e-05 0
0.000140019 -0.000133289 0
0.000151654 -0.000105882 0
0.00109589 -0.00190532 0
0.000117328 -0.000166418 0
0.000111581 -1.08118e-06 0
7.55017e-05 1.45925e-06 0
0.000106137 2.37784e-06 0
8.16591e-05 3.2221e-06 0
0.000839974 -0.00205272 0
-4.75301e-05 0.000190284 0
-4.18645e-05 0.000122923 0
-4.79439e-05 0.00016702 0
-5.12012e-05 0.000131482 0
0.000101517 2.93825e-06 0
9.23965e-05 2.59933e-06 0
4.30822e-05 2.64177e-05 0
6.38007e-05 1.66939e-05 0
-1.91546e-05 6.53521e-05 0
2.54474e-06 4.18284e-05 0
-0.000865924 0.00212781 0
7.9251e-05 -3.37198e-06 0
0.00012014 -4.87786e-05 0
0.000128893 -0.000138275 0
0.000118608 -8.5442e-05 0
9.08049e-05 -0.000191613 0
0.000104429 -0.000163648 0
6.40634e-05 -0.000203926 0
8.15637e-05 -8.17741e-07 0
6.64767e-05 1.26701e-05 0
0.000103501 -4.45299e-06 0
0.000101842 -2.60484e-07 0
7.08746e-05 -3.40813e-06 0
8.52009e-05 -6.09705e-06 0
6.73785e-05 -1.40904e-05 0
0.000564823 -0.00213784 0
-3.15419e-05 0.00024065 0
-1.8337e-05 0.000181927 0
-4.23445e-05 6.93924e-05 0
-3.37648e-05 0.000121658 0
5.60908e-05 2.18299e-05 0
2.31948e-05 3.46449e-05 0
-3.27793e-05 4.63246e-05 0
-1.48186e-05 4.36035e-05 0
-1.92784e-05 0.000286352 0
-0.00114095 0.00212012 0
6.53907e-05 -1.81956e-05 0
8.60848e-05 -9.13744e-05 0
7.24187e-05 -0.000183566 0
6.91879e-05 -0.000126348 0
3.64302e-05 -0.000210104 0
4.7045e-05 -0.000192001 0
4.23418e-05 -2.18421e-05 0
2.26672e-05 2.91172e-05 0
3.90764e-05 4.20405e-06 0
7.45394e-05 -1.80553e-05 0
5.98829e-05 -2.15304e-05 0
2.83797e-05 -3.79071e-05 0
3.95882e-05 -2.97362e-05 0
1.45779e-05 -1.50703e-05 0
1.06358e-05 -0.000210029 0
0.000285964 -0.00220488 0
-3.49679e-05 5.06089e-05 0
1.52522e-05 0.000217603 0
1.57422e-05 0.000144874 0
-8.62529e-06 7.19259e-05 0
3.67874e-05 0.000214982 0
-1.75746e-06 4.36534e-05 0
-3.9897e-05 5.2588e-05 0
-1.60534e-05 4.13363e-05 0
-3.16615e-05 5.40172e-05 0
-1.11145e-05 0.000226806 0
-0.00146021 0.00193839 0
3.1656e-05 -4.40021e-05 0
3.83708e-05 -0.000119598 0
1.84293e-05 -0.000197619 0
2.28943e-05 -0.000145871 0
-3.06151e-06 -0.000200104 0
1.39073e-05 -4.04166e-05 0
-1.19832e-05 1.64437e-05 0
2.62017e-05 -3.91241e-05 0
7.27565e-06 -4.79387e-05 0
2.85331e-06 -3.68515e-05 0
-2.21005e-05 -1.07557e-05 0
-1.5456e-05 -0.000205838 0
-1.82816e-06 -0.00219368 0
8.27119e-06 4.62474e-05 0
7.40613e-05 0.000136161 0
3.73132e-05 6.99993e-05 0
9.34493e-05 5.62506e-05 0
0.000107099 8.0414e-05 0
-3.60319e-05 5.39535e-05 0
-4.04176e-05 5.13352e-05 0
-3.48491e-05 3.9108e-05 0
-1.65408e-05 4.72664e-05 0
2.57946e-05 3.62589e-05 0
-0.000142576 -4.70337e-05 0
0.000145899 -9.61749e-05 0
-0.00180195 0.00161231 0
6.36817e-06 -5.81881e-05 0
4.30543e-06 -0.000128165 0
-2.82377e-05 -0.000195883 0
-1.3043e-05 -0.000148104 0
-8.34628e-07 -4.73229e-05 0
-3.06482e-06 -5.07782e-05 0
-3.79497e-05 2.32454e-05 0
-3.80447e-06 -4.71055e-05 0
-1.49639e-05 -3.41372e-05 0
-2.99595e-05 5.34512e-06 0
-2.29119e-05 -1.7761e-05 0
-4.42578e-05 -0.000193909 0
-3.81988e-05 -0.000200753 0
-0.000288225 -0.00218365 0
6.41771e-05 2.74573e-05 0
2.00484e-05 2.74982e-06 0
-0.000102336 -3.61668e-05 0
4.13888e-05 2.06235e-05 0
-3.34668e-05 4.44555e-05 0
1.05477e-05 3.15201e-05 0
-0.000406338 -9.5965e-05 0
-0.000668118 -0.000344743 0
-0.00144139 0.000904438 0
-4.54288e-06 -6.07446e-05 0
-1.95979e-05 -0.000128859 0
-3.40493e-05 -0.000153775 0
-4.76971e-07 -4.79601e-05 0
-1.69287e-06 -4.64814e-05 0
-2.137e-05 2.92158e-05 0
-6.13762e-06 1.40981e-05 0
-7.80003e-06 -3.48026e-05 0
-4.98597e-06 -8.62664e-06 0
-5.727e-05 -0.000194428 0
-5.63399e-05 -0.000192864 0
-0.000559995 -0.00210991 0
2.91185e-05 -4.08808e-06 0
-0.000123601 -3.08654e-05 0
3.38694e-05 1.65335e-05 0
8.66566e-06 3.19723e-05 0
-0.000212199 8.35807e-05 0
-0.000502972 0.000170847 0
-0.00127745 0.000431323 0
-0.00400996 0.00218575 0
1.64058e-06 -6.08335e-05 0
-2.58736e-05 -0.000133492 0
1.33945e-05 -4.34469e-05 0
9.46405e-06 -3.85903e-05 0
1.44597e-05 2.52546e-05 0
1.76945e-05 1.08689e-05 0
1.31215e-05 -2.26938e-05 0
1.79294e-05 -5.51827e-06 0
-5.10704e-05 -0.000142477 0
-6.78299e-05 -0.00019552 0
-6.89876e-05 -0.000195226 0
-0.000819603 -0.00201549 0
-3.94113e-06 1.57866e-05 0
3.55718e-05 2.47804e-05 0
-0.000121769 8.18067e-05 0
-0.000340738 0.000219532 0
-0.000730115 0.000638054 0
-0.00427288 0.00178928 0
8.38044e-06 -5.79467e-05 0
2.13719e-05 -3.4082e-05 0
3.40472e-05 1.59261e-05 0
2.48095e-05 -3.38445e-06 0
2.09219e-05 -1.79508e-05 0
-6.04703e-05 -0.00010907 0
-0.000100961 -0.000170264 0
-9.57558e-05 -0.000191119 0
-0.00109251 -0.00193274 0
-5.10362e-06 2.46415e-05 0
-0.000120072 4.75168e-05 0
-0.000175504 0.000114229 0
-0.000201007 0.00020196 0
-0.00235483 0.000805994 0
-1.07809e-05 -4.78052e-05 0
-1.59146e-05 -1.56687e-05 0
-2.65435e-05 -3.7768e-05 0
-0.000116609 -9.56931e-05 0
-0.000136385 -0.000132214 0
-0.000125815 -0.000157138 0
-0.00136535 -0.00178415 0
-0.000105279 -2.10414e-05 0