# vtk DataFile Version 2.0
CellBP Time: 0.48
ASCII
DATASET UNSTRUCTURED_GRID
POINTS 296 double
-9.17266 -3.77024 0
-8.59526 -4.94141 0
-9.59217 -2.53373 0
-9.84567 -1.25265 0
-8.35634 -2.81812 0
-7.86989 -6.02719 0
-7.00898 -7.00899 0
-7.91604 -3.87404 0
-7.34156 -4.86704 0
-6.02723 -7.86999 0
-4.94147 -8.59545 0
-9.94462 0.0499912 0
-9.84558 1.35269 0
-8.65651 -1.68336 0
-8.78625 -0.528753 0
-7.58871 -2.00364 0
-7.22472 -2.90592 0
-6.63667 -5.77799 0
-5.82157 -6.59591 0
-6.78928 -3.88822 0
-6.21967 -4.67514 0
-3.77024 -9.17285 0
-2.53367 -9.59246 0
-4.90576 -7.30774 0
-3.91243 -7.88508 0
-8.7927 0.642557 0
-9.59201 2.63378 0
-8.6222 1.77365 0
-9.17785 3.87238 0
-7.74365 -0.928641 0
-7.79395 0.0802557 0
-6.95196 -1.31561 0
-1.25299 -9.84755 0
-6.44086 -2.15276 0
-6.31863 -3.05566 0
-5.53573 -5.4737 0
-4.7952 -6.11454 0
-5.6584 -3.75649 0
-5.26873 -4.56094 0
-2.8657 -8.3627 0
-1.77823 -8.63893 0
-3.92756 -6.72255 0
-3.05613 -7.15155 0
0.0500248 -9.933 0
-7.70491 1.14319 0
-8.33777 2.91525 0
-7.55109 2.11166 0
-8.5952 5.04127 0
-7.87946 3.97758 0
-7.86998 6.1272 0
-6.77824 -0.396807 0
-6.95605 0.55245 0
-5.77113 -1.00329 0
-0.590682 -8.80841 0
0.565677 -8.76965 0
-5.3028 -2.48004 0
-4.49144 -5.0951 0
-3.902 -5.77457 0
-4.43859 -3.80442 0
-2.06206 -7.56086 0
-1.13527 -7.78472 0
-2.99416 -6.10134 0
-2.30868 -6.61896 0
1.35304 -9.84774 0
-6.68899 1.42184 0
-7.17144 3.11765 0
-6.65866 2.37267 0
-7.29392 4.9879 0
-6.71739 4.00247 0
-7.00908 7.10908 0
-6.57171 5.89336 0
-6.02731 7.97012 0
-4.45289 -1.18095 0
-5.81436 0.513692 0
-4.65594 -0.0103595 0
0.00854731 -7.84701 0
1.73843 -8.6427 0
0.948889 -7.76238 0
-4.03829 -2.40619 0
-3.48534 -1.39107 0
-3.29424 -4.80497 0
-3.26565 -3.26753 0
-1.37839 -6.67476 0
-0.508655 -7.02418 0
-1.97536 -5.53663 0
2.63371 -9.59283 0
-5.50706 2.03674 0
-6.09421 3.07184 0
-6.10438 4.86897 0
-5.76118 3.99103 0
-5.76067 6.71638 0
-5.45148 5.61868 0
-4.94156 8.69563 0
-4.83795 7.40378 0
-3.50131 -0.424244 0
-4.44908 1.24895 0
-3.71128 0.592056 0
-4.06196 2.31967 0
-3.77034 9.27312 0
2.86238 -8.33194 0
0.419697 -6.79476 0
2.02185 -7.525 0
1.30599 -6.90488 0
-2.44452 -0.873735 0
-2.8382 -2.13096 0
-2.29423 -4.09711 0
-2.32547 -2.97338 0
-0.442287 -5.8608 0
-1.2226 -4.49887 0
3.87019 -9.17302 0
-4.78956 3.39159 0
-5.08749 4.59373 0
-4.64666 6.28075 0
-4.53843 5.35921 0
-3.84336 7.9926 0
-3.82633 6.84501 0
-2.78304 8.42206 0
-1.64889 -0.137872 0
-1.45012 -0.890504 0
-2.48898 0.507255 0
-3.25345 1.44408 0
-3.23887 3.31639 0
-2.91081 2.37162 0
-1.35497 0.62707 0
-2.5338 9.69291 0
3.9325 -7.88624 0
2.9644 -7.15709 0
0.954101 -5.82167 0
2.07422 -6.41499 0
-1.68284 -1.99192 0
-1.43431 -3.27756 0
0.0902881 -4.74676 0
-0.566094 -3.69422 0
4.93205 -7.31807 0
5.04122 -8.59521 0
-3.7768 4.55142 0
-3.73447 5.7517 0
-2.88769 7.28918 0
-3.00945 6.35322 0
-1.6624 8.73292 0
-1.93991 7.61867 0
-2.33828 4.05149 0
-0.730636 -1.32714 0
-0.836795 -0.257599 0
-1.93609 1.68069 0
-2.12564 2.87568 0
-1.30648 3.54449 0
-0.869369 1.35074 0
-0.282305 0.455998 0
-0.533457 8.87098 0
-1.25302 9.94757 0
1.11281 -4.5744 0
3.91007 -6.71677 0
2.98784 -6.0943 0
2.11786 -5.42469 0
4.78456 -6.2049 0
-0.558778 -2.47666 0
0.495159 -3.46366 0
0.0536056 -1.61037 0
1.4819 -3.68196 0
5.86762 -6.61414 0
6.12655 -7.86923 0
-2.47562 5.34831 0
-2.13032 6.53406 0
-0.903982 7.80268 0
-1.27225 6.93161 0
0.0862258 7.87977 0
-1.1444 4.49454 0
0.150353 -0.617628 0
-0.797353 2.48838 0
-0.33159 3.60054 0
0.0631501 1.51262 0
0.74144 0.473369 0
0.646762 8.87369 0
0.0500164 10.0331 0
2.38102 -4.28513 0
3.85924 -5.64017 0
3.00145 -5.2126 0
5.57423 -5.49172 0
4.69125 -5.28295 0
0.629705 -2.29325 0
1.25619 -2.95113 0
0.757485 -1.39139 0
2.16432 -3.13574 0
2.99376 -3.4765 0
6.15567 -4.79199 0
6.657 -5.76943 0
7.11135 -7.01127 0
-1.01961 5.82026 0
-0.372575 6.88332 0
1.12258 7.76913 0
0.557966 7.07951 0
-0.00074072 4.72506 0
0.607014 3.82766 0
1.33889 -0.64189 0
0.539121 2.65092 0
0.966087 1.57482 0
1.91015 0.213819 0
1.61473 1.06494 0
2.12932 7.58327 0
1.79917 8.71212 0
1.35306 9.94768 0
3.82294 -4.35162 0
5.1169 -4.44912 0
5.84613 -3.93535 0
3.78406 -3.20107 0
1.81227 -1.88261 0
3.01917 -2.57392 0
6.7839 -3.9484 0
7.38235 -4.89808 0
7.97824 -6.03365 0
0.48337 5.88159 0
1.42818 6.74185 0
2.37431 6.66898 0
1.21 4.55615 0
1.48819 3.39754 0
2.43578 -0.692035 0
2.82801 0.142553 0
1.78889 2.16276 0
2.61187 1.15008 0
3.07199 7.17 0
2.90423 8.37685 0
2.63386 9.69307 0
4.91158 -3.32806 0
6.12112 -3.109 0
4.17301 -2.27537 0
3.24448 -1.50298 0
6.73173 -2.31336 0
7.23248 -3.04299 0
7.96561 -3.91298 0
8.69914 -4.9438 0
2.02371 5.60002 0
3.08662 6.15375 0
2.364 4.12699 0
2.42012 3.06085 0
3.52573 -0.460924 0
3.61576 0.613242 0
2.96188 2.28806 0
3.54565 1.52524 0
4.01243 5.89844 0
3.98473 6.7935 0
3.9736 7.93924 0
3.87046 9.27343 0
5.56932 -1.9164 0
4.50948 -1.12973 0
6.71455 -1.33641 0
7.59316 -2.03689 0
8.39807 -2.86219 0
9.2785 -3.77251 0
3.41944 4.87743 0
3.33921 3.38554 0
4.69159 0.130018 0
4.51948 1.31 0
4.0656 2.44392 0
4.57116 5.15311 0
4.84427 6.19149 0
4.98107 7.38132 0
5.04156 8.69566 0
5.88421 -0.435027 0
7.01183 -0.488415 0
7.76054 -1.0856 0
8.68592 -1.74641 0
9.69177 -2.53347 0
4.5531 3.82809 0
5.81865 1.09871 0
5.37211 2.53531 0
5.3811 4.62141 0
5.61318 5.52445 0
5.89822 6.673 0
6.12725 7.97003 0
6.84744 0.463603 0
7.85479 -0.0256856 0
8.86192 -0.584505 0
9.94711 -1.25287 0
6.96207 1.34978 0
5.72239 3.77925 0
6.54303 2.198 0
6.38181 3.08868 0
6.2939 4.68794 0
6.69455 5.83901 0
7.10902 7.10903 0
7.78618 0.96794 0
8.8613 0.572976 0
10.0325 0.0500874 0
7.61826 2.00489 0
6.83106 3.90513 0
7.27166 2.94753 0
7.3802 4.88678 0
7.97012 6.12736 0
8.72523 1.72769 0
9.94687 1.35303 0
8.42359 2.83865 0
7.98402 3.91705 0
8.69513 5.04116 0
9.6973 2.63508 0
9.27957 3.87296 0
CELLS 542 2168
3 2 0 4
3 0 1 7
3 4 0 7
3 1 5 8
3 7 1 8
3 3 2 13
3 13 2 4
3 11 3 14
3 14 3 13
3 13 4 15
3 4 7 16
3 15 4 16
3 5 6 17
3 8 5 17
3 6 9 18
3 17 6 18
3 7 8 19
3 16 7 19
3 8 17 20
3 19 8 20
3 9 10 23
3 18 9 23
3 10 21 24
3 23 10 24
3 12 11 25
3 25 11 14
3 26 12 27
3 27 12 25
3 14 13 29
3 29 13 15
3 25 14 30
3 30 14 29
3 29 15 31
3 15 16 33
3 31 15 33
3 16 19 34
3 33 16 34
3 17 18 35
3 20 17 35
3 18 23 36
3 35 18 36
3 19 20 37
3 34 19 37
3 20 35 38
3 37 20 38
3 21 22 39
3 24 21 39
3 22 32 40
3 39 22 40
3 23 24 41
3 36 23 41
3 24 39 42
3 41 24 42
3 27 25 44
3 44 25 30
3 28 26 45
3 45 26 27
3 45 27 46
3 46 27 44
3 47 28 48
3 48 28 45
3 30 29 50
3 50 29 31
3 44 30 51
3 51 30 50
3 50 31 52
3 31 33 52
3 32 43 53
3 40 32 53
3 53 43 54
3 33 34 55
3 34 37 55
3 33 55 52
3 35 36 56
3 38 35 56
3 36 41 57
3 56 36 57
3 37 38 58
3 38 56 58
3 37 58 55
3 39 40 59
3 42 39 59
3 40 53 60
3 59 40 60
3 41 42 61
3 57 41 61
3 42 59 62
3 61 42 62
3 43 63 54
3 46 44 64
3 64 44 51
3 48 45 65
3 65 45 46
3 65 46 66
3 66 46 64
3 49 47 67
3 67 47 48
3 67 48 68
3 68 48 65
3 69 49 70
3 70 49 67
3 52 55 72
3 64 51 73
3 51 50 73
3 50 52 73
3 73 52 74
3 74 52 72
3 53 54 75
3 60 53 75
3 54 63 76
3 54 76 77
3 75 54 77
3 55 58 78
3 72 55 78
3 72 78 79
3 56 57 80
3 57 61 80
3 56 80 58
3 58 80 81
3 78 58 81
3 59 60 82
3 62 59 82
3 60 75 83
3 82 60 83
3 61 62 84
3 62 82 84
3 61 84 80
3 63 85 76
3 66 64 86
3 64 73 86
3 68 65 87
3 87 65 66
3 87 66 86
3 70 67 88
3 88 67 68
3 88 68 89
3 89 68 87
3 71 69 90
3 90 69 70
3 90 70 91
3 91 70 88
3 92 71 93
3 93 71 90
3 74 72 94
3 94 72 79
3 86 73 95
3 95 73 74
3 95 74 96
3 96 74 94
3 97 86 95
3 76 85 99
3 75 77 100
3 83 75 100
3 76 99 101
3 77 76 101
3 77 101 102
3 100 77 102
3 94 79 103
3 78 81 104
3 79 78 104
3 79 104 103
3 80 84 105
3 81 80 105
3 81 105 106
3 104 81 106
3 82 83 107
3 83 100 107
3 82 107 84
3 84 107 108
3 105 84 108
3 85 109 99
3 89 87 110
3 87 86 110
3 110 86 97
3 91 88 111
3 111 88 89
3 111 89 110
3 93 90 112
3 112 90 91
3 112 91 113
3 113 91 111
3 98 92 114
3 114 92 93
3 114 93 115
3 115 93 112
3 116 98 114
3 117 103 118
3 96 94 119
3 94 103 119
3 119 103 117
3 97 95 120
3 120 95 96
3 120 96 119
3 121 110 97
3 121 97 122
3 122 97 120
3 123 119 117
3 124 98 116
3 99 109 125
3 99 125 126
3 101 99 126
3 100 102 127
3 100 127 107
3 101 126 128
3 102 101 128
3 102 128 127
3 104 106 129
3 104 129 103
3 103 129 118
3 105 108 130
3 106 105 130
3 106 130 129
3 107 127 131
3 108 107 131
3 108 131 132
3 108 132 130
3 109 134 125
3 125 134 133
3 113 111 135
3 111 110 135
3 135 110 121
3 115 112 136
3 136 112 113
3 136 113 135
3 116 114 137
3 137 114 115
3 137 115 138
3 138 115 136
3 139 124 116
3 139 116 140
3 140 116 137
3 141 135 121
3 118 129 142
3 118 142 143
3 117 118 143
3 123 117 143
3 122 120 144
3 120 119 144
3 144 119 123
3 141 121 145
3 145 121 122
3 145 122 144
3 146 141 145
3 147 144 123
3 147 123 148
3 143 148 123
3 150 124 139
3 149 150 139
3 131 127 151
3 125 133 152
3 126 125 152
3 126 152 153
3 128 126 153
3 128 153 154
3 128 154 127
3 127 154 151
3 152 133 155
3 130 132 156
3 130 156 129
3 129 156 142
3 131 151 157
3 132 131 157
3 132 157 156
3 156 158 142
3 157 151 159
3 133 160 155
3 134 161 133
3 133 161 160
3 138 136 162
3 136 135 162
3 162 135 141
3 140 137 163
3 163 137 138
3 163 138 162
3 149 139 164
3 164 139 140
3 164 140 165
3 165 140 163
3 166 149 164
3 167 162 141
3 167 141 146
3 142 158 168
3 143 142 168
3 143 168 148
3 146 145 169
3 145 144 169
3 169 144 147
3 170 167 146
3 170 146 169
3 171 169 147
3 171 147 148
3 171 148 172
3 168 172 148
3 173 149 166
3 174 150 149
3 173 174 149
3 154 175 151
3 151 175 159
3 152 155 176
3 153 152 176
3 153 176 177
3 153 177 154
3 154 177 175
3 155 160 178
3 155 178 179
3 176 155 179
3 156 157 180
3 156 180 158
3 157 159 181
3 157 181 180
3 158 180 182
3 158 182 168
3 159 175 183
3 159 183 181
3 175 184 183
3 160 186 178
3 178 186 185
3 161 187 160
3 160 187 186
3 165 163 188
3 163 162 188
3 188 162 167
3 166 164 189
3 189 164 165
3 189 165 188
3 190 173 166
3 190 166 191
3 191 166 189
3 192 188 167
3 192 167 170
3 193 192 170
3 182 194 168
3 194 172 168
3 193 170 195
3 170 169 195
3 195 169 171
3 196 195 171
3 196 171 172
3 194 197 172
3 197 198 172
3 198 196 172
3 200 173 190
3 199 200 190
3 201 174 173
3 200 201 173
3 176 179 202
3 177 176 202
3 177 202 175
3 175 202 184
3 178 185 203
3 178 203 179
3 179 203 202
3 203 185 204
3 202 205 184
3 183 206 181
3 180 181 206
3 180 206 182
3 182 206 194
3 183 184 207
3 205 207 184
3 183 207 206
3 185 208 204
3 186 209 185
3 185 209 208
3 187 210 186
3 186 210 209
3 191 189 211
3 189 188 211
3 211 188 192
3 199 190 212
3 212 190 191
3 212 191 211
3 213 199 212
3 214 211 192
3 214 192 193
3 215 214 193
3 215 193 195
3 206 216 194
3 216 197 194
3 216 217 197
3 215 195 218
3 218 195 196
3 198 218 196
3 217 219 197
3 219 218 198
3 197 219 198
3 220 199 213
3 221 200 199
3 220 221 199
3 222 201 200
3 221 222 200
3 203 204 223
3 203 223 202
3 202 223 205
3 204 208 224
3 204 224 223
3 205 223 225
3 205 225 207
3 207 225 226
3 207 226 206
3 226 216 206
3 208 228 224
3 224 228 227
3 209 229 208
3 229 228 208
3 210 230 209
3 209 230 229
3 213 212 231
3 212 211 231
3 231 211 214
3 232 220 213
3 232 213 231
3 233 231 214
3 233 214 215
3 234 233 215
3 234 215 218
3 226 235 216
3 235 217 216
3 235 236 217
3 217 236 219
3 237 234 218
3 237 218 219
3 236 238 219
3 238 237 219
3 240 220 232
3 239 240 232
3 241 221 220
3 240 241 220
3 242 222 221
3 241 242 221
3 224 227 243
3 224 243 223
3 223 243 225
3 225 243 244
3 225 244 226
3 226 244 235
3 227 245 243
3 228 246 227
3 227 246 245
3 229 247 228
3 228 247 246
3 230 248 229
3 229 248 247
3 239 232 249
3 232 231 249
3 249 231 233
3 250 249 233
3 250 233 234
3 237 250 234
3 244 251 235
3 235 251 236
3 251 252 236
3 236 252 238
3 252 253 238
3 253 250 237
3 253 237 238
3 254 239 249
3 255 240 239
3 254 255 239
3 256 241 240
3 255 256 240
3 257 242 241
3 256 257 241
3 245 258 243
3 243 258 244
3 244 258 251
3 245 259 258
3 246 260 245
3 245 260 259
3 247 261 246
3 246 261 260
3 248 262 247
3 247 262 261
3 254 249 263
3 263 249 250
3 253 263 250
3 258 264 251
3 251 264 252
3 264 265 252
3 265 263 253
3 252 265 253
3 266 254 263
3 267 255 254
3 266 267 254
3 268 256 255
3 267 268 255
3 269 257 256
3 268 269 256
3 259 270 258
3 270 264 258
3 260 271 259
3 259 271 270
3 261 272 260
3 260 272 271
3 262 273 261
3 273 272 261
3 270 274 264
3 275 266 263
3 275 263 265
3 274 276 264
3 276 265 264
3 276 277 265
3 277 275 265
3 278 267 266
3 275 278 266
3 279 268 267
3 278 279 267
3 280 269 268
3 279 280 268
3 271 281 270
3 270 281 274
3 272 282 271
3 271 282 281
3 273 283 272
3 272 283 282
3 281 284 274
3 274 284 276
3 285 278 275
3 277 285 275
3 284 286 276
3 286 285 277
3 276 286 277
3 287 279 278
3 285 287 278
3 288 280 279
3 287 288 279
3 282 289 281
3 281 289 284
3 283 290 282
3 282 290 289
3 289 291 284
3 284 291 286
3 291 292 286
3 292 287 285
3 286 292 285
3 293 288 287
3 292 293 287
3 290 294 289
3 289 294 291
3 294 295 291
3 295 293 292
3 291 295 292
CELL_TYPES 542
5
5
5
5
5
5
5
5
5
5
5
5
5
5
5
5
5
5
5
5
5
5
5
5
5
5
5
5
5
5
5
5
5
5
5
5
5
5
5
5
5
5
5
5
5
5
5
5
5
5
5
5
5
5
5
5
5
5
5
5
5
5
5
5
5
5
5
5
5
5
5
5
5
5
5
5
5
5
5
5
5
5
5
5
5
5
5
5
5
5
5
5
5
5
5
5
5
5
5
5
5
5
5
5
5
5
5
5
5
5
5
5
5
5
5
5
5
5
5
5
5
5
5
5
5
5
5
5
5
5
5
5
5
5
5
5
5
5
5
5
5
5
5
5
5
5
5
5
5
5
5
5
5
5
5
5
5
5
5
5
5
5
5
5
5
5
5
5
5
5
5
5
5
5
5
5
5
5
5
5
5
5
5
5
5
5
5
5
5
5
5
5
5
5
5
5
5
5
5
5
5
5
5
5
5
5
5
5
5
5
5
5
5
5
5
5
5
5
5
5
5
5
5
5
5
5
5
5
5
5
5
5
5
5
5
5
5
5
5
5
5
5
5
5
5
5
5
5
5
5
5
5
5
5
5
5
5
5
5
5
5
5
5
5
5
5
5
5
5
5
5
5
5
5
5
5
5
5
5
5
5
5
5
5
5
5
5
5
5
5
5
5
5
5
5
5
5
5
5
5
5
5
5
5
5
5
5
5
5
5
5
5
5
5
5
5
5
5
5
5
5
5
5
5
5
5
5
5
5
5
5
5
5
5
5
5
5
5
5
5
5
5
5
5
5
5
5
5
5
5
5
5
5
5
5
5
5
5
5
5
5
5
5
5
5
5
5
5
5
5
5
5
5
5
5
5
5
5
5
5
5
5
5
5
5
5
5
5
5
5
5
5
5
5
5
5
5
5
5
5
5
5
5
5
5
5
5
5
5
5
5
5
5
5
5
5
5
5
5
5
5
5
5
5
5
5
5
5
5
5
5
5
5
5
5
5
5
5
5
5
5
5
5
5
5
5
5
5
5
5
5
5
5
5
5
5
5
5
5
5
5
5
5
5
5
5
5
5
5
5
5
5
5
5
5
5
5
5
5
5
5
5
5
5
5
5
5
5
5
5
5
5
5
5
5
5
5
5
5
5
5
5
5
5
5
5
5
5
5
5
5
5
5
5
5
5
5
5
5
5
5
5
5
5
5
5
5
5
5
5
5
5
5
5
5
5
5
5
5
5
5
5
POINT_DATA 296
SCALARS concentrations float 4
LOOKUP_TABLE default
0 0.995076 0.114486 4.72293
0 0.995072 0.114375 4.71126
0 0.995094 0.114374 4.70082
0 0.995141 0.114261 4.69219
0 0.995424 0.0923184 0.33419
0 0.995071 0.114218 4.69212
0 0.995073 0.114089 4.6753
0 0.995426 0.0923179 0.34205
0 0.995414 0.0923169 0.355038
0 0.995073 0.114042 4.67117
0 0.995071 0.114082 4.68249
0 0.995211 0.114144 4.69791
0 0.99526 0.114388 4.78571
0 0.99546 0.0922955 0.337159
0 0.995517 0.0922864 0.346522
0 0.996157 0.0923175 0.338497
0 0.996136 0.0923095 0.340315
0 0.995421 0.0922804 0.35618
0 0.995416 0.0922648 0.353273
0 0.996145 0.0923142 0.354232
0 0.996132 0.0922954 0.360427
0 0.995067 0.114356 4.73781
0 0.995069 0.114594 4.7848
0 0.995424 0.0922562 0.347726
0 0.995417 0.0922642 0.346358
0 0.9956 0.0922615 0.340942
0 0.995311 0.114541 4.90582
0 0.995636 0.092194 0.313405
0 0.995382 0.103464 1.28261
0 0.996183 0.0923141 0.347546
0 0.996264 0.0922297 0.339773
0 0.996785 0.0920022 0.283462
0 0.995093 0.11403 4.67698
0 0.996869 0.0919009 0.264585
0 0.996763 0.0920307 0.297594
0 0.996133 0.0922815 0.360964
0 0.996128 0.0922764 0.35749
0 0.996869 0.0919196 0.287903
0 0.996754 0.0920436 0.316819
0 0.995429 0.0923063 0.355444
0 0.995421 0.0923431 0.366861
0 0.996136 0.0922744 0.353581
0 0.996124 0.0922824 0.353956
0 0.995124 0.113957 4.65186
0 0.996341 0.0922635 0.321302
0 0.995706 0.0923469 0.191568
0 0.996419 0.0922526 0.216963
0 0.995323 0.114486 4.90197
0 0.995707 0.0923087 0.188565
0 0.995283 0.114047 4.73366
0 0.996912 0.0918861 0.269824
0 0.996884 0.0919856 0.28937
0 0.997322 0.0914071 0.167162
0 0.995455 0.0923206 0.366926
0 0.995464 0.0922758 0.355407
0 0.997319 0.091435 0.183624
0 0.996866 0.0919336 0.296391
0 0.99676 0.092029 0.31205
0 0.997318 0.0914554 0.201444
0 0.996155 0.0922925 0.357477
0 0.996171 0.0922973 0.361055
0 0.996868 0.0919519 0.296727
0 0.996759 0.0920557 0.315143
0 0.99517 0.113741 4.59197
0 0.997064 0.0918791 0.250416
0 0.996432 0.0921484 0.182827
0 0.997018 0.0919722 0.236205
0 0.995663 0.0921736 0.32422
0 0.996431 0.0921884 0.236295
0 0.995239 0.113816 4.66185
0 0.99561 0.0921839 0.339852
0 0.995188 0.113773 4.62756
0 0.997663 0.0912053 0.132731
0 0.997378 0.0914024 0.181097
0 0.997681 0.0911891 0.133192
0 0.996185 0.0922924 0.362532
0 0.995537 0.092233 0.33226
0 0.996196 0.0922818 0.356011
0 0.997675 0.0912208 0.148867
0 0.997968 0.0911176 0.126391
0 0.997322 0.0914575 0.204409
0 0.997674 0.0912382 0.161937
0 0.99688 0.0918952 0.28529
0 0.996776 0.0919711 0.300721
0 0.997331 0.091466 0.204629
0 0.995242 0.114023 4.62836
0 0.997432 0.0914018 0.201311
0 0.997097 0.0918639 0.252214
0 0.996346 0.0922359 0.341533
0 0.996977 0.0919889 0.281469
0 0.995549 0.0921823 0.339025
0 0.996274 0.0922497 0.357099
0 0.995161 0.113744 4.6187
0 0.995499 0.0921805 0.33638
0 0.998012 0.0910584 0.110446
0 0.997694 0.0912 0.151088
0 0.997979 0.0910852 0.119317
0 0.99771 0.0911934 0.157606
0 0.995154 0.113877 4.64422
0 0.995627 0.0921946 0.304281
0 0.996882 0.0919261 0.292216
0 0.996258 0.0921944 0.327652
0 0.996806 0.0920123 0.305913
0 0.998204 0.0909275 0.0946877
0 0.998015 0.0910867 0.129998
0 0.997685 0.0912409 0.165255
0 0.99798 0.0911361 0.145658
0 0.997344 0.0914788 0.204483
0 0.997696 0.0912335 0.15956
0 0.995331 0.114075 4.65658
0 0.99742 0.091403 0.208334
0 0.996996 0.0919098 0.301003
0 0.996204 0.0922512 0.354523
0 0.996833 0.0920399 0.321525
0 0.99549 0.0921947 0.337206
0 0.996185 0.0922474 0.350454
0 0.995486 0.0921973 0.335407
0 0.998356 0.0908445 0.0813627
0 0.998361 0.090842 0.0824246
0 0.99821 0.0908968 0.0848154
0 0.998025 0.0910524 0.11733
0 0.997695 0.0911883 0.154168
0 0.997986 0.0911023 0.133359
0 0.998388 0.0907965 0.0697061
0 0.995156 0.113815 4.62969
0 0.995729 0.0921643 0.285801
0 0.996381 0.0921232 0.300451
0 0.997363 0.0915377 0.215877
0 0.996944 0.0919365 0.28963
0 0.99822 0.0909272 0.102461
0 0.998029 0.0910858 0.133761
0 0.997737 0.0912395 0.155484
0 0.998009 0.0910937 0.128518
0 0.995774 0.0921423 0.290075
0 0.995391 0.114386 4.76003
0 0.997368 0.0914057 0.197205
0 0.996906 0.0919248 0.293924
0 0.996179 0.0922485 0.348227
0 0.996794 0.0920151 0.306204
0 0.995494 0.0922042 0.33501
0 0.996187 0.0922414 0.345368
0 0.997695 0.0911908 0.148293
0 0.998401 0.0908014 0.0689517
0 0.998463 0.0907034 0.0498193
0 0.998227 0.0908924 0.0876036
0 0.998038 0.0910636 0.123562
0 0.997999 0.0911237 0.135693
0 0.998386 0.0907915 0.0671221
0 0.998479 0.0906692 0.0327837
0 0.995491 0.0922023 0.333252
0 0.995157 0.113986 4.65642
0 0.997751 0.091238 0.157038
0 0.996474 0.0921189 0.280397
0 0.996998 0.0919761 0.288837
0 0.997459 0.0915334 0.218739
0 0.996525 0.0921643 0.213747
0 0.998242 0.0909311 0.095073
0 0.998077 0.0910756 0.119421
0 0.998412 0.0908262 0.0632331
0 0.997993 0.0911928 0.152171
0 0.995831 0.0922568 0.201101
0 0.99544 0.114792 4.95951
0 0.997352 0.0914026 0.187382
0 0.996904 0.0919027 0.283245
0 0.996184 0.0922524 0.346325
0 0.9968 0.0920112 0.303004
0 0.996189 0.0922729 0.348839
0 0.997687 0.0912082 0.150029
0 0.998489 0.090674 0.0175216
0 0.99824 0.0909014 0.0905668
0 0.998042 0.0911 0.130459
0 0.998405 0.0907866 0.0607799
0 0.998477 0.0907006 0.0304052
0 0.995504 0.0921888 0.328506
0 0.995166 0.113719 4.60012
0 0.997752 0.0912678 0.177029
0 0.997113 0.0919025 0.254537
0 0.997455 0.0915898 0.233895
0 0.996551 0.0921491 0.214716
0 0.997116 0.091914 0.240063
0 0.99831 0.0909079 0.0812503
0 0.998216 0.0909896 0.106244
0 0.998429 0.0907974 0.0580637
0 0.998086 0.0910993 0.143172
0 0.997854 0.0912902 0.193136
0 0.99654 0.0922224 0.225686
0 0.995822 0.0922074 0.15445
0 0.99551 0.103581 1.35464
0 0.997349 0.0914074 0.18693
0 0.996915 0.0918938 0.279892
0 0.996192 0.0922603 0.344266
0 0.996826 0.0920068 0.300265
0 0.997697 0.0912284 0.15386
0 0.998005 0.0911463 0.140777
0 0.998446 0.0907453 0.0547309
0 0.998243 0.0909209 0.0938678
0 0.998391 0.0908229 0.0697634
0 0.998413 0.0907776 0.0776734
0 0.998394 0.0908181 0.0762683
0 0.996212 0.0922569 0.340302
0 0.995516 0.0921758 0.321931
0 0.995179 0.113821 4.61179
0 0.997526 0.0914714 0.223361
0 0.997197 0.0918731 0.257877
0 0.997082 0.0920573 0.277976
0 0.997763 0.0913182 0.20252
0 0.998288 0.0908658 0.0910872
0 0.998064 0.0910929 0.153888
0 0.996482 0.0923196 0.297079
0 0.995794 0.092342 0.286697
0 0.995457 0.114839 4.91437
0 0.997353 0.0913971 0.183986
0 0.996931 0.0918957 0.27786
0 0.996835 0.0920702 0.308514
0 0.997697 0.0912197 0.152355
0 0.998043 0.0911008 0.132633
0 0.998319 0.0908643 0.106947
0 0.998278 0.0909363 0.12864
0 0.998236 0.0909323 0.101892
0 0.998252 0.0909361 0.11724
0 0.9962 0.0922672 0.339341
0 0.995529 0.0921288 0.308698
0 0.995199 0.113564 4.558
0 0.997503 0.0915063 0.231317
0 0.997124 0.0919088 0.283096
0 0.99781 0.0912257 0.187086
0 0.99812 0.0910096 0.142146
0 0.99701 0.0920183 0.290227
0 0.996436 0.0923563 0.302881
0 0.995761 0.0924772 0.237895
0 0.995419 0.114806 4.76516
0 0.997374 0.0913961 0.181981
0 0.996948 0.0919327 0.28039
0 0.997704 0.0912024 0.149103
0 0.998 0.0911382 0.143639
0 0.998094 0.0910406 0.154814
0 0.998071 0.0910771 0.162004
0 0.998046 0.0910991 0.146402
0 0.998019 0.0911279 0.165973
0 0.996854 0.0920238 0.2991
0 0.996224 0.0922636 0.338904
0 0.99554 0.0921204 0.305706
0 0.995216 0.11337 4.5219
0 0.997487 0.0914145 0.214741
0 0.997826 0.091156 0.176563
0 0.99709 0.0918961 0.295925
0 0.996406 0.0923574 0.337271
0 0.995727 0.0923915 0.266764
0 0.995393 0.114663 4.68547
0 0.997377 0.0913957 0.182169
0 0.997709 0.09121 0.159645
0 0.997828 0.091137 0.179075
0 0.997787 0.0911708 0.1845
0 0.997744 0.0911963 0.176972
0 0.996959 0.0918951 0.282596
0 0.996235 0.0922399 0.342535
0 0.995557 0.0921515 0.31898
0 0.995223 0.113702 4.59212
0 0.997527 0.0913943 0.219156
0 0.997042 0.0919611 0.319438
0 0.996436 0.0922274 0.358569
0 0.995724 0.0922265 0.333578
0 0.995385 0.11438 4.65019
0 0.997413 0.0914176 0.204377
0 0.997556 0.0913855 0.224778
0 0.997506 0.0914059 0.225288
0 0.996905 0.0920103 0.316136
0 0.996288 0.0922231 0.351062
0 0.995586 0.0921535 0.333775
0 0.99524 0.113927 4.64449
0 0.997197 0.0918531 0.28142
0 0.99651 0.0921463 0.342879
0 0.995786 0.0921417 0.356772
0 0.995413 0.11421 4.70416
0 0.997153 0.0919702 0.259768
0 0.997078 0.0919117 0.296961
0 0.997221 0.0918733 0.259289
0 0.997084 0.0920104 0.274598
0 0.996362 0.0922591 0.357185
0 0.995652 0.092141 0.33963
0 0.995288 0.113854 4.63809
0 0.996564 0.0921677 0.255744
0 0.99582 0.0921049 0.342151
0 0.995447 0.114443 4.81599
0 0.996581 0.092151 0.184881
0 0.996465 0.0922677 0.317131
0 0.996545 0.0921956 0.196765
0 0.99572 0.0921457 0.322252
0 0.995364 0.113421 4.56448
0 0.995872 0.0922987 0.220332
0 0.995485 0.11468 4.93628
0 0.995856 0.0924101 0.15542
0 0.995792 0.0922317 0.260125
0 0.995418 0.113882 4.65526
0 0.995541 0.10363 1.30855
0 0.995466 0.114462 4.80734
VECTORS fa_u float
0.00437063 0.00178987 0
0.0040904 0.00233764 0
0.00454387 0.00120456 0
0.00464962 0.000630628 0
0.000317758 0.000103503 0
0.00373014 0.0028464 0
0.00330396 0.00330792 0
0.000305913 0.000153023 0
0.000288853 0.000206436 0
0.0028341 0.00371318 0
0.00233184 0.00406058 0
0.00469791 -9.49499e-07 0
0.0047462 -0.000613664 0
0.000333385 5.03049e-05 0
0.000346285 1.28144e-05 0
0.000327911 8.39921e-05 0
0.000312368 0.000135057 0
0.00025904 0.000244465 0
0.000223326 0.000273729 0
0.000296963 0.000193114 0
0.000274944 0.000233053 0
0.00181476 0.00437647 0
0.00125819 0.00461641 0
0.000187667 0.000292736 0
0.000155825 0.000309326 0
0.000340808 9.56535e-06 0
0.0047579 -0.0011956 0
0.000309573 4.88586e-05 0
0.00118921 -0.000480501 0
0.000347193 1.56658e-05 0
0.000339679 -7.97345e-06 0
0.000280547 4.05472e-05 0
0.000638392 0.00463321 0
0.000246457 9.62523e-05 0
0.000259798 0.000145146 0
0.000245335 0.000264775 0
0.000214862 0.000285715 0
0.000226199 0.000178106 0
0.000228543 0.000219414 0
0.000129031 0.000331197 0
9.6857e-05 0.000353844 0
0.000176946 0.00030612 0
0.000150311 0.000320455 0
1.11846e-05 0.00465185 0
0.000321301 -2.52604e-07 0
5.57882e-05 0.000183265 0
0.000213951 3.60272e-05 0
0.00421927 -0.0024954 0
-7.27272e-05 -0.000173975 0
0.0037341 -0.00290931 0
0.000269736 -6.91377e-06 0
0.000288019 -2.79293e-05 0
0.000164225 3.11971e-05 0
5.14891e-05 0.000363296 0
-1.42824e-06 0.000355404 0
0.000157457 9.44712e-05 0
0.000191233 0.000226446 0
0.000174931 0.000258407 0
0.00014456 0.000140293 0
0.000112706 0.000339245 0
6.95073e-05 0.000354301 0
0.000141866 0.000260616 0
0.000119271 0.000291701 0
-0.000622449 0.00454958 0
0.000246453 -4.43757e-05 0
0.000161825 -8.50797e-05 0
0.000222854 -7.82859e-05 0
0.000193319 -0.000260282 0
0.00014533 -0.000186319 0
0.00329426 -0.00329859 0
0.000225899 -0.000253907 0
0.00281996 -0.00366909 0
0.000123426 4.88215e-05 0
0.000177878 -3.39943e-05 0
0.000133185 1.42212e-06 0
8.64896e-06 0.000362428 0
-5.73725e-05 0.000327269 0
-3.86961e-05 0.000353902 0
0.000118026 9.0727e-05 0
0.000111413 5.96815e-05 0
0.000120853 0.000164856 0
0.000109832 0.000118998 0
7.38397e-05 0.000275568 0
3.03449e-05 0.000299186 0
8.50259e-05 0.000186128 0
-0.001255 0.00445496 0
0.000183487 -8.2816e-05 0
0.000217672 -0.0001274 0
0.000242442 -0.000240554 0
0.000220094 -0.000175452 0
0.000216291 -0.000261068 0
0.000249734 -0.000255249 0
0.00230668 -0.00400145 0
0.000184971 -0.000280958 0
0.000107753 2.42368e-05 0
0.000143199 -4.81852e-05 0
0.000118299 -1.55475e-05 0
0.000135511 -8.04774e-05 0
0.00177614 -0.00429116 0
-0.000108493 0.000284282 0
-1.23874e-05 0.000291953 0
-9.69939e-05 0.000312966 0
-6.72582e-05 0.000298428 0
8.669e-05 3.80866e-05 0
9.93296e-05 8.38644e-05 0
8.96732e-05 0.00013881 0
9.34282e-05 0.000111747 0
3.45755e-05 0.000201539 0
5.73816e-05 0.000148885 0
-0.0018267 0.00428334 0
0.000171461 -0.000118339 0
0.000229297 -0.000195001 0
0.000218845 -0.000278915 0
0.000218252 -0.000236102 0
0.000147406 -0.000303281 0
0.000178686 -0.000301478 0
0.000110584 -0.000316653 0
8.06729e-05 1.05721e-05 0
7.20072e-05 4.01096e-05 0
8.44422e-05 -7.947e-06 0
0.000107871 -4.61549e-05 0
0.000111442 -0.000106529 0
0.000105249 -8.18973e-05 0
6.64148e-05 -2.11664e-05 0
0.00120452 -0.00447025 0
-0.000118911 0.000259889 0
-0.000126972 0.000272303 0
-3.34458e-05 0.00021327 0
-0.000110158 0.000267863 0
7.10832e-05 7.37938e-05 0
6.3619e-05 0.000117664 0
1.02912e-05 0.000155143 0
3.25606e-05 0.000124325 0
-8.58319e-05 0.000277085 0
-0.00236022 0.00413367 0
0.000130024 -0.00014827 0
0.000166658 -0.000242109 0
0.00013144 -0.000322468 0
0.000134231 -0.000275214 0
7.07226e-05 -0.00032746 0
9.14767e-05 -0.000333034 0
7.51652e-05 -0.000127833 0
4.29792e-05 5.39178e-05 0
4.81648e-05 1.27324e-05 0
7.05256e-05 -5.19667e-05 0
7.59604e-05 -9.74555e-05 0
5.08544e-05 -0.000125803 0
4.42796e-05 -5.0445e-05 0
2.37384e-05 -2.2611e-05 0
2.9332e-05 -0.000331959 0
0.000619701 -0.004615 0
-4.15511e-05 0.000151442 0
-0.000126218 0.000250383 0
-0.000142088 0.000251471 0
-9.29332e-05 0.000198015 0
-6.94297e-05 0.000202157 0
3.18734e-05 8.9571e-05 0
-7.87812e-06 0.000119161 0
8.58826e-06 6.26472e-05 0
-6.00914e-05 0.000139803 0
0.000118786 0.00016227 0
-0.00295339 0.00398425 0
7.53293e-05 -0.000171574 0
8.7815e-05 -0.000269288 0
4.56108e-05 -0.000343309 0
5.76327e-05 -0.000297473 0
3.3893e-06 -0.000348823 0
3.73857e-05 -0.000145296 0
2.37822e-06 1.73594e-05 0
3.67884e-05 -8.27584e-05 0
2.09018e-05 -0.000128774 0
1.06298e-05 -5.98432e-05 0
-2.03723e-05 -2.2571e-05 0
-1.75361e-05 -0.000328038 0
9.84067e-06 -0.00460011 0
-0.000106492 0.000141416 0
-0.000147643 0.000207342 0
-0.000144418 0.000183984 0
-0.000154456 0.000149152 0
-0.000162177 0.000177 0
-1.67075e-05 7.95139e-05 0
-4.79275e-05 9.48194e-05 0
-3.23223e-05 4.82354e-05 0
-9.57441e-05 0.000106449 0
-0.000141359 0.000131601 0
-0.000202134 0.00010038 0
-0.000136353 -7.25442e-05 0
-0.000936642 0.000978644 0
3.0161e-05 -0.000184481 0
1.99975e-05 -0.000279177 0
-4.88308e-05 -0.000340786 0
-2.2086e-05 -0.000299452 0
3.16832e-06 -0.000153827 0
-1.52715e-05 -0.000139946 0
-5.19269e-05 1.72935e-05 0
-7.75956e-06 -9.35465e-05 0
-2.57627e-05 -6.48322e-05 0
-7.64534e-05 -1.37124e-05 0
-5.97666e-05 -4.73794e-05 0
-9.44027e-05 -0.000326946 0
-6.51535e-05 -0.000315269 0
-0.000602712 -0.00457224 0
-0.000166605 0.000148771 0
-0.000198211 0.000164963 0
-0.000230925 0.00015474 0
-0.000165968 0.000116057 0
-7.49271e-05 5.17958e-05 0
-0.0001321 7.89379e-05 0
-0.000257585 0.000148007 0
-0.000265465 0.000108275 0
-0.00396089 0.00290902 0
-1.58486e-05 -0.000183303 0
-5.6065e-05 -0.000272145 0
-0.000105301 -0.000289987 0
-3.69174e-05 -0.000147814 0
-4.81368e-05 -0.000123589 0
-0.000104698 2.18148e-05 0
-0.000128184 -1.08261e-05 0
-6.10469e-05 -8.15792e-05 0
-0.000107013 -4.78898e-05 0
-0.000136551 -0.000310654 0
-0.000108831 -0.000288878 0
-0.00118967 -0.0044 0
-0.000193568 0.000126646 0
-0.000246737 0.000138795 0
-0.000172955 7.13266e-05 0
-0.000137252 3.69763e-05 0
-0.000279189 7.92815e-05 0
-0.000281423 0.000111974 0
-0.000221689 8.6302e-05 0
-0.00418195 0.00228431 0
-6.27437e-05 -0.000170822 0
-0.000123907 -0.000251527 0
-7.35482e-05 -0.000129701 0
-8.88734e-05 -0.000112844 0
-0.000154653 7.06861e-06 0
-0.000159942 -2.57672e-05 0
-0.000120407 -8.32798e-05 0
-0.000156384 -5.55978e-05 0
-0.000175133 -0.000242465 0
-0.000167637 -0.00029454 0
-0.00014078 -0.000271361 0
-0.00174473 -0.00417175 0
-0.000205289 6.3008e-05 0
-0.000174651 2.59139e-05 0
-0.000295362 1.8246e-05 0
-0.000334836 4.04556e-05 0
-0.000261083 5.47616e-05 0
-0.00433407 0.0017803 0
-0.000114306 -0.000141844 0
-0.000120478 -0.000104746 0
-0.000178593 -1.31187e-05 0
-0.000179471 -4.27853e-05 0
-0.000161251 -7.2919e-05 0
-0.000202622 -0.000196989 0
-0.000219348 -0.00026309 0
-0.000182669 -0.000261497 0
-0.00230315 -0.00397279 0
-0.000219147 1.97327e-06 0
-0.000319421 -3.28373e-06 0
-0.000358335 1.29508e-05 0
-0.000332304 2.91222e-05 0
-0.00448497 0.00122851 0
-0.000173798 -0.000107536 0
-0.000221891 -3.59102e-05 0
-0.000214187 -6.9847e-05 0
-0.000255562 -0.000186091 0
-0.00025769 -0.000238412 0
-0.000222629 -0.000248681 0
-0.00282562 -0.00368607 0
-0.000281303 -8.1173e-06 0
-0.000342123 2.27535e-05 0
-0.000355297 3.24067e-05 0
-0.00465966 0.000645512 0
-0.000259086 -1.88126e-05 0
-0.000258846 -0.00014555 0
-0.000251074 -6.47507e-05 0