# vtk DataFile Version 2.0
CellBP Time: 3.2
ASCII
DATASET UNSTRUCTURED_GRID
POINTS 296 double
-9.03688 -3.71424 0
-8.4673 -4.86783 0
-9.44965 -2.49582 0
-9.7003 -1.23285 0
-8.34368 -2.81375 0
-7.75348 -5.93827 0
-6.90505 -6.90533 0
-7.90407 -3.86819 0
-7.33048 -4.85965 0
-5.93752 -7.75335 0
-4.86782 -8.46808 0
-9.7982 0.0498988 0
-9.70074 1.33274 0
-8.64349 -1.68079 0
-8.77334 -0.527879 0
-7.57583 -2.00002 0
-7.21243 -2.90092 0
-6.62677 -5.76945 0
-5.81286 -6.58618 0
-6.77784 -3.88151 0
-6.20923 -4.66712 0
-3.71383 -9.03678 0
-2.49566 -9.45054 0
-4.89836 -7.29699 0
-3.90642 -7.87341 0
-8.77985 0.641573 0
-9.45055 2.59595 0
-8.60944 1.77098 0
-9.03875 3.81488 0
-7.73039 -0.927198 0
-7.78098 0.0802953 0
-6.94039 -1.31347 0
-1.23383 -9.70159 0
-6.43038 -2.14913 0
-6.30791 -3.05049 0
-5.52646 -5.46442 0
-4.78708 -6.10421 0
-5.64913 -3.75019 0
-5.25967 -4.55302 0
-2.86113 -8.35014 0
-1.77533 -8.62564 0
-3.92097 -6.71118 0
-3.05074 -7.13952 0
0.049933 -9.78656 0
-7.69176 1.14138 0
-8.32517 2.91072 0
-7.53793 2.10815 0
-8.46906 4.96851 0
-7.8675 3.97191 0
-7.75374 6.03816 0
-6.76705 -0.39629 0
-6.94419 0.55181 0
-5.76339 -1.00196 0
-0.589649 -8.79503 0
0.564988 -8.75653 0
-5.29557 -2.47674 0
-4.4839 -5.08657 0
-3.89527 -5.76464 0
-4.43236 -3.7992 0
-2.05833 -7.54817 0
-1.13327 -7.77165 0
-2.98888 -6.09108 0
-2.30445 -6.60754 0
1.33379 -9.70266 0
-6.67805 1.41983 0
-7.15904 3.11232 0
-6.64735 2.36869 0
-7.28327 4.98082 0
-6.70593 3.99599 0
-6.90574 7.00597 0
-6.5622 5.88501 0
-5.9383 7.85429 0
-4.44664 -1.17914 0
-5.80651 0.513047 0
-4.64943 -0.0100933 0
0.00836721 -7.83379 0
1.73628 -8.63004 0
0.947315 -7.7493 0
-4.03271 -2.40278 0
-3.47992 -1.38871 0
-3.2894 -4.79836 0
-3.26094 -3.26275 0
-1.37599 -6.66394 0
-0.507911 -7.01266 0
-1.97234 -5.52895 0
2.5957 -9.45126 0
-5.49977 2.03415 0
-6.08422 3.06678 0
-6.094 4.86091 0
-5.75125 3.98445 0
-5.7524 6.70685 0
-5.44221 5.60941 0
-4.86833 8.56898 0
-4.83096 7.39331 0
-3.49589 -0.423251 0
-4.4427 1.24746 0
-3.70549 0.591569 0
-4.05625 2.3167 0
-3.71414 9.13777 0
2.85854 -8.31985 0
0.419057 -6.78342 0
2.01862 -7.5128 0
1.30366 -6.89317 0
-2.44058 -0.872068 0
-2.83381 -2.12746 0
-2.29081 -4.09127 0
-2.32175 -2.96859 0
-0.441331 -5.85254 0
-1.22069 -4.49249 0
3.81447 -9.0389 0
-4.78316 3.38718 0
-5.07899 4.58626 0
-4.63877 6.27034 0
-4.53049 5.35001 0
-3.83778 7.98123 0
-3.81975 6.8338 0
-2.77897 8.41007 0
-1.64546 -0.137214 0
-1.44727 -0.88854 0
-2.4849 0.50699 0
-3.24825 1.44226 0
-3.23419 3.31204 0
-2.90598 2.36827 0
-1.35213 0.626352 0
-2.49577 9.5515 0
3.92701 -7.87483 0
2.95991 -7.14565 0
0.9529 -5.81289 0
2.07062 -6.404 0
-1.68013 -1.98859 0
-1.4321 -3.27236 0
0.0904303 -4.74007 0
-0.565188 -3.68869 0
4.92494 -7.30746 0
4.9678 -8.4687 0
-3.77175 4.54545 0
-3.72817 5.74222 0
-2.88278 7.27716 0
-3.00419 6.34252 0
-1.65999 8.72049 0
-1.93656 7.60622 0
-2.33493 4.04608 0
-0.729214 -1.3245 0
-0.834998 -0.256746 0
-1.93275 1.67854 0
-2.12208 2.87153 0
-1.30409 3.5391 0
-0.867517 1.34872 0
-0.281523 0.455281 0
-0.532683 8.85838 0
-1.23381 9.80274 0
1.11124 -4.56776 0
3.90402 -6.70588 0
2.98297 -6.08342 0
2.11495 -5.41623 0
4.77676 -6.19445 0
-0.557912 -2.47251 0
0.494608 -3.45823 0
0.0536369 -1.60732 0
1.47965 -3.67563 0
5.85885 -6.60453 0
6.03748 -7.75353 0
-2.47239 5.34126 0
-2.12676 6.52349 0
-0.90241 7.78981 0
-1.26997 6.91999 0
0.0862169 7.86668 0
-1.14265 4.48833 0
0.15015 -0.616563 0
-0.795739 2.48487 0
-0.33062 3.59498 0
0.0634582 1.51021 0
0.740435 0.472627 0
0.645855 8.86119 0
0.0500662 9.88756 0
2.3775 -4.2789 0
3.85324 -5.63052 0
2.99666 -5.20453 0
5.5647 -5.48247 0
4.6838 -5.27424 0
0.628824 -2.28947 0
1.25423 -2.94665 0
0.755937 -1.38894 0
2.16084 -3.13081 0
2.98891 -3.47079 0
6.14552 -4.78364 0
6.6476 -5.76074 0
7.00605 -6.90512 0
-1.0183 5.81262 0
-0.371788 6.87229 0
1.12068 7.75625 0
0.557095 7.06776 0
-0.000552005 4.71845 0
0.606359 3.82161 0
1.33673 -0.640841 0
0.538688 2.64696 0
0.964928 1.57215 0
1.90717 0.213365 0
1.61228 1.06296 0
2.12575 7.57075 0
1.79663 8.69994 0
1.33403 9.80238 0
3.81739 -4.34532 0
5.10859 -4.44174 0
5.83633 -3.92825 0
3.77835 -3.19624 0
1.80931 -1.88004 0
3.01443 -2.57026 0
6.77287 -3.94161 0
7.37217 -4.89068 0
7.86321 -5.94497 0
0.482698 5.87394 0
1.42596 6.731 0
2.37015 6.65741 0
1.20841 4.54978 0
1.4861 3.39218 0
2.4318 -0.690852 0
2.82311 0.142153 0
1.78634 2.15925 0
2.60772 1.14795 0
3.0668 7.15793 0
2.90012 8.36542 0
2.59655 9.5531 0
4.90474 -3.32319 0
6.11147 -3.10381 0
4.16697 -2.27231 0
3.23952 -1.5011 0
6.72084 -2.3095 0
7.22049 -3.03754 0
7.95432 -3.90705 0
8.57252 -4.87103 0
2.0211 5.59279 0
3.08164 6.14348 0
2.36093 4.1213 0
2.4165 3.05586 0
3.52007 -0.46042 0
3.60989 0.612108 0
2.95728 2.28429 0
3.53991 1.52266 0
4.00565 5.88852 0
3.9784 6.78199 0
3.96826 7.92833 0
3.8152 9.14031 0
5.56202 -1.91368 0
4.5034 -1.12831 0
6.70374 -1.33436 0
7.5804 -2.03355 0
8.38612 -2.85788 0
9.14298 -3.71675 0
3.41493 4.87116 0
3.33466 3.38081 0
4.68549 0.129729 0
4.51346 1.30808 0
4.06013 2.4405 0
4.56369 5.14484 0
4.83625 6.18128 0
4.97416 7.37102 0
4.96834 8.56925 0
5.87636 -0.434305 0
7.00008 -0.487568 0
7.74786 -1.08375 0
8.67372 -1.74371 0
9.55036 -2.49585 0
4.54709 3.82308 0
5.81106 1.09732 0
5.36515 2.53199 0
5.37211 4.6137 0
5.6041 5.51541 0
5.88998 6.66373 0
6.03813 7.85403 0
6.83629 0.462965 0
7.84205 -0.0257282 0
8.84957 -0.583478 0
9.80411 -1.23393 0
6.9503 1.34752 0
5.7131 3.77306 0
6.5324 2.19437 0
6.37108 3.08339 0
6.28343 4.68023 0
6.68519 5.83115 0
7.00577 7.00567 0
7.77321 0.966289 0
8.84888 0.572136 0
9.88724 0.0499363 0
7.60554 2.00138 0
6.81978 3.89857 0
7.25943 2.94266 0
7.36997 4.88013 0
7.85614 6.04002 0
8.71271 1.7251 0
9.80228 1.33398 0
8.41141 2.83478 0
7.97285 3.91172 0
8.5694 4.96834 0
9.55245 2.59684 0
9.14543 3.81751 0
CELLS 542 2168
3 2 0 4
3 0 1 7
3 4 0 7
3 1 5 8
3 7 1 8
3 3 2 13
3 13 2 4
3 11 3 14
3 14 3 13
3 13 4 15
3 4 7 16
3 15 4 16
3 5 6 17
3 8 5 17
3 6 9 18
3 17 6 18
3 7 8 19
3 16 7 19
3 8 17 20
3 19 8 20
3 9 10 23
3 18 9 23
3 10 21 24
3 23 10 24
3 12 11 25
3 25 11 14
3 26 12 27
3 27 12 25
3 14 13 29
3 29 13 15
3 25 14 30
3 30 14 29
3 29 15 31
3 15 16 33
3 31 15 33
3 16 19 34
3 33 16 34
3 17 18 35
3 20 17 35
3 18 23 36
3 35 18 36
3 19 20 37
3 34 19 37
3 20 35 38
3 37 20 38
3 21 22 39
3 24 21 39
3 22 32 40
3 39 22 40
3 23 24 41
3 36 23 41
3 24 39 42
3 41 24 42
3 27 25 44
3 44 25 30
3 28 26 45
3 45 26 27
3 45 27 46
3 46 27 44
3 47 28 48
3 48 28 45
3 30 29 50
3 50 29 31
3 44 30 51
3 51 30 50
3 50 31 52
3 31 33 52
3 32 43 53
3 40 32 53
3 53 43 54
3 33 34 55
3 34 37 55
3 33 55 52
3 35 36 56
3 38 35 56
3 36 41 57
3 56 36 57
3 37 38 58
3 38 56 58
3 37 58 55
3 39 40 59
3 42 39 59
3 40 53 60
3 59 40 60
3 41 42 61
3 57 41 61
3 42 59 62
3 61 42 62
3 43 63 54
3 46 44 64
3 64 44 51
3 48 45 65
3 65 45 46
3 65 46 66
3 66 46 64
3 49 47 67
3 67 47 48
3 67 48 68
3 68 48 65
3 69 49 70
3 70 49 67
3 52 55 72
3 64 51 73
3 51 50 73
3 50 52 73
3 73 52 74
3 74 52 72
3 53 54 75
3 60 53 75
3 54 63 76
3 54 76 77
3 75 54 77
3 55 58 78
3 72 55 78
3 72 78 79
3 56 57 80
3 57 61 80
3 56 80 58
3 58 80 81
3 78 58 81
3 59 60 82
3 62 59 82
3 60 75 83
3 82 60 83
3 61 62 84
3 62 82 84
3 61 84 80
3 63 85 76
3 66 64 86
3 64 73 86
3 68 65 87
3 87 65 66
3 87 66 86
3 70 67 88
3 88 67 68
3 88 68 89
3 89 68 87
3 71 69 90
3 90 69 70
3 90 70 91
3 91 70 88
3 92 71 93
3 93 71 90
3 74 72 94
3 94 72 79
3 86 73 95
3 95 73 74
3 95 74 96
3 96 74 94
3 97 86 95
3 76 85 99
3 75 77 100
3 83 75 100
3 76 99 101
3 77 76 101
3 77 101 102
3 100 77 102
3 94 79 103
3 78 81 104
3 79 78 104
3 79 104 103
3 80 84 105
3 81 80 105
3 81 105 106
3 104 81 106
3 82 83 107
3 83 100 107
3 82 107 84
3 84 107 108
3 105 84 108
3 85 109 99
3 89 87 110
3 87 86 110
3 110 86 97
3 91 88 111
3 111 88 89
3 111 89 110
3 93 90 112
3 112 90 91
3 112 91 113
3 113 91 111
3 98 92 114
3 114 92 93
3 114 93 115
3 115 93 112
3 116 98 114
3 117 103 118
3 96 94 119
3 94 103 119
3 119 103 117
3 97 95 120
3 120 95 96
3 120 96 119
3 121 110 97
3 121 97 122
3 122 97 120
3 123 119 117
3 124 98 116
3 99 109 125
3 99 125 126
3 101 99 126
3 100 102 127
3 100 127 107
3 101 126 128
3 102 101 128
3 102 128 127
3 104 106 129
3 104 129 103
3 103 129 118
3 105 108 130
3 106 105 130
3 106 130 129
3 107 127 131
3 108 107 131
3 108 131 132
3 108 132 130
3 109 134 125
3 125 134 133
3 113 111 135
3 111 110 135
3 135 110 121
3 115 112 136
3 136 112 113
3 136 113 135
3 116 114 137
3 137 114 115
3 137 115 138
3 138 115 136
3 139 124 116
3 139 116 140
3 140 116 137
3 141 135 121
3 118 129 142
3 118 142 143
3 117 118 143
3 123 117 143
3 122 120 144
3 120 119 144
3 144 119 123
3 141 121 145
3 145 121 122
3 145 122 144
3 146 141 145
3 147 144 123
3 147 123 148
3 143 148 123
3 150 124 139
3 149 150 139
3 131 127 151
3 125 133 152
3 126 125 152
3 126 152 153
3 128 126 153
3 128 153 154
3 128 154 127
3 127 154 151
3 152 133 155
3 130 132 156
3 130 156 129
3 129 156 142
3 131 151 157
3 132 131 157
3 132 157 156
3 156 158 142
3 157 151 159
3 133 160 155
3 134 161 133
3 133 161 160
3 138 136 162
3 136 135 162
3 162 135 141
3 140 137 163
3 163 137 138
3 163 138 162
3 149 139 164
3 164 139 140
3 164 140 165
3 165 140 163
3 166 149 164
3 167 162 141
3 167 141 146
3 142 158 168
3 143 142 168
3 143 168 148
3 146 145 169
3 145 144 169
3 169 144 147
3 170 167 146
3 170 146 169
3 171 169 147
3 171 147 148
3 171 148 172
3 168 172 148
3 173 149 166
3 174 150 149
3 173 174 149
3 154 175 151
3 151 175 159
3 152 155 176
3 153 152 176
3 153 176 177
3 153 177 154
3 154 177 175
3 155 160 178
3 155 178 179
3 176 155 179
3 156 157 180
3 156 180 158
3 157 159 181
3 157 181 180
3 158 180 182
3 158 182 168
3 159 175 183
3 159 183 181
3 175 184 183
3 160 186 178
3 178 186 185
3 161 187 160
3 160 187 186
3 165 163 188
3 163 162 188
3 188 162 167
3 166 164 189
3 189 164 165
3 189 165 188
3 190 173 166
3 190 166 191
3 191 166 189
3 192 188 167
3 192 167 170
3 193 192 170
3 182 194 168
3 194 172 168
3 193 170 195
3 170 169 195
3 195 169 171
3 196 195 171
3 196 171 172
3 194 197 172
3 197 198 172
3 198 196 172
3 200 173 190
3 199 200 190
3 201 174 173
3 200 201 173
3 176 179 202
3 177 176 202
3 177 202 175
3 175 202 184
3 178 185 203
3 178 203 179
3 179 203 202
3 203 185 204
3 202 205 184
3 183 206 181
3 180 181 206
3 180 206 182
3 182 206 194
3 183 184 207
3 205 207 184
3 183 207 206
3 185 208 204
3 186 209 185
3 185 209 208
3 187 210 186
3 186 210 209
3 191 189 211
3 189 188 211
3 211 188 192
3 199 190 212
3 212 190 191
3 212 191 211
3 213 199 212
3 214 211 192
3 214 192 193
3 215 214 193
3 215 193 195
3 206 216 194
3 216 197 194
3 216 217 197
3 215 195 218
3 218 195 196
3 198 218 196
3 217 219 197
3 219 218 198
3 197 219 198
3 220 199 213
3 221 200 199
3 220 221 199
3 222 201 200
3 221 222 200
3 203 204 223
3 203 223 202
3 202 223 205
3 204 208 224
3 204 224 223
3 205 223 225
3 205 225 207
3 207 225 226
3 207 226 206
3 226 216 206
3 208 228 224
3 224 228 227
3 209 229 208
3 229 228 208
3 210 230 209
3 209 230 229
3 213 212 231
3 212 211 231
3 231 211 214
3 232 220 213
3 232 213 231
3 233 231 214
3 233 214 215
3 234 233 215
3 234 215 218
3 226 235 216
3 235 217 216
3 235 236 217
3 217 236 219
3 237 234 218
3 237 218 219
3 236 238 219
3 238 237 219
3 240 220 232
3 239 240 232
3 241 221 220
3 240 241 220
3 242 222 221
3 241 242 221
3 224 227 243
3 224 243 223
3 223 243 225
3 225 243 244
3 225 244 226
3 226 244 235
3 227 245 243
3 228 246 227
3 227 246 245
3 229 247 228
3 228 247 246
3 230 248 229
3 229 248 247
3 239 232 249
3 232 231 249
3 249 231 233
3 250 249 233
3 250 233 234
3 237 250 234
3 244 251 235
3 235 251 236
3 251 252 236
3 236 252 238
3 252 253 238
3 253 250 237
3 253 237 238
3 254 239 249
3 255 240 239
3 254 255 239
3 256 241 240
3 255 256 240
3 257 242 241
3 256 257 241
3 245 258 243
3 243 258 244
3 244 258 251
3 245 259 258
3 246 260 245
3 245 260 259
3 247 261 246
3 246 261 260
3 248 262 247
3 247 262 261
3 254 249 263
3 263 249 250
3 253 263 250
3 258 264 251
3 251 264 252
3 264 265 252
3 265 263 253
3 252 265 253
3 266 254 263
3 267 255 254
3 266 267 254
3 268 256 255
3 267 268 255
3 269 257 256
3 268 269 256
3 259 270 258
3 270 264 258
3 260 271 259
3 259 271 270
3 261 272 260
3 260 272 271
3 262 273 261
3 273 272 261
3 270 274 264
3 275 266 263
3 275 263 265
3 274 276 264
3 276 265 264
3 276 277 265
3 277 275 265
3 278 267 266
3 275 278 266
3 279 268 267
3 278 279 267
3 280 269 268
3 279 280 268
3 271 281 270
3 270 281 274
3 272 282 271
3 271 282 281
3 273 283 272
3 272 283 282
3 281 284 274
3 274 284 276
3 285 278 275
3 277 285 275
3 284 286 276
3 286 285 277
3 276 286 277
3 287 279 278
3 285 287 278
3 288 280 279
3 287 288 279
3 282 289 281
3 281 289 284
3 283 290 282
3 282 290 289
3 289 291 284
3 284 291 286
3 291 292 286
3 292 287 285
3 286 292 285
3 293 288 287
3 292 293 287
3 290 294 289
3 289 294 291
3 294 295 291
3 295 293 292
3 291 295 292
CELL_TYPES 542
5
5
5
5
5
5
5
5
5
5
5
5
5
5
5
5
5
5
5
5
5
5
5
5
5
5
5
5
5
5
5
5
5
5
5
5
5
5
5
5
5
5
5
5
5
5
5
5
5
5
5
5
5
5
5
5
5
5
5
5
5
5
5
5
5
5
5
5
5
5
5
5
5
5
5
5
5
5
5
5
5
5
5
5
5
5
5
5
5
5
5
5
5
5
5
5
5
5
5
5
5
5
5
5
5
5
5
5
5
5
5
5
5
5
5
5
5
5
5
5
5
5
5
5
5
5
5
5
5
5
5
5
5
5
5
5
5
5
5
5
5
5
5
5
5
5
5
5
5
5
5
5
5
5
5
5
5
5
5
5
5
5
5
5
5
5
5
5
5
5
5
5
5
5
5
5
5
5
5
5
5
5
5
5
5
5
5
5
5
5
5
5
5
5
5
5
5
5
5
5
5
5
5
5
5
5
5
5
5
5
5
5
5
5
5
5
5
5
5
5
5
5
5
5
5
5
5
5
5
5
5
5
5
5
5
5
5
5
5
5
5
5
5
5
5
5
5
5
5
5
5
5
5
5
5
5
5
5
5
5
5
5
5
5
5
5
5
5
5
5
5
5
5
5
5
5
5
5
5
5
5
5
5
5
5
5
5
5
5
5
5
5
5
5
5
5
5
5
5
5
5
5
5
5
5
5
5
5
5
5
5
5
5
5
5
5
5
5
5
5
5
5
5
5
5
5
5
5
5
5
5
5
5
5
5
5
5
5
5
5
5
5
5
5
5
5
5
5
5
5
5
5
5
5
5
5
5
5
5
5
5
5
5
5
5
5
5
5
5
5
5
5
5
5
5
5
5
5
5
5
5
5
5
5
5
5
5
5
5
5
5
5
5
5
5
5
5
5
5
5
5
5
5
5
5
5
5
5
5
5
5
5
5
5
5
5
5
5
5
5
5
5
5
5
5
5
5
5
5
5
5
5
5
5
5
5
5
5
5
5
5
5
5
5
5
5
5
5
5
5
5
5
5
5
5
5
5
5
5
5
5
5
5
5
5
5
5
5
5
5
5
5
5
5
5
5
5
5
5
5
5
5
5
5
5
5
5
5
5
5
5
5
5
5
5
5
5
5
5
5
5
5
5
5
5
5
5
5
5
5
5
5
5
5
5
5
5
5
5
5
5
5
5
5
5
5
5
5
5
5
5
5
5
5
5
5
5
5
5
5
5
5
POINT_DATA 296
SCALARS concentrations float 4
LOOKUP_TABLE default
0 0.965714 0.169553 10.0954
0 0.965708 0.16879 10.1023
0 0.965725 0.169064 10.0397
0 0.965744 0.168395 9.96918
0 0.966143 0.0936082 0.46056
0 0.965702 0.168825 10.0185
0 0.965697 0.16846 9.97532
0 0.966146 0.0936054 0.464425
0 0.966128 0.0936115 0.465094
0 0.965695 0.168384 9.96857
0 0.965693 0.168569 9.99392
0 0.965762 0.16741 9.86913
0 0.965769 0.167902 9.92609
0 0.966164 0.093581 0.452458
0 0.966172 0.0935124 0.443104
0 0.96696 0.093494 0.437046
0 0.966939 0.0934746 0.436409
0 0.96613 0.093553 0.449906
0 0.966119 0.0935454 0.445431
0 0.966942 0.093477 0.439653
0 0.966921 0.0934633 0.435139
0 0.965688 0.168985 10.1378
0 0.965684 0.170319 10.1744
0 0.966126 0.0935428 0.449111
0 0.966115 0.0935736 0.459705
0 0.96619 0.0934972 0.444677
0 0.965775 0.167458 9.8798
0 0.966181 0.0935148 0.450225
0 0.965781 0.16793 9.92881
0 0.966955 0.0934862 0.437175
0 0.966974 0.0934101 0.42759
0 0.967694 0.0931757 0.385015
0 0.965698 0.16831 9.96457
0 0.967802 0.09304 0.361101
0 0.967667 0.0932066 0.390421
0 0.966918 0.093454 0.430522
0 0.966907 0.0934568 0.431674
0 0.967786 0.093072 0.366894
0 0.96764 0.0932448 0.396288
0 0.966128 0.0936286 0.468427
0 0.96611 0.0936691 0.46993
0 0.966913 0.0934599 0.436351
0 0.966897 0.0934678 0.439736
0 0.965719 0.167497 9.90733
0 0.966974 0.093463 0.439022
0 0.966196 0.0935165 0.451684
0 0.966982 0.0935036 0.446977
0 0.965791 0.167369 9.87079
0 0.966197 0.0934926 0.447998
0 0.965797 0.167054 9.8368
0 0.96781 0.0930604 0.368178
0 0.967695 0.0931936 0.392546
0 0.968347 0.0923948 0.254059
0 0.966139 0.0936254 0.458477
0 0.966132 0.0935641 0.451472
0 0.968339 0.0924159 0.254147
0 0.967771 0.0931115 0.37426
0 0.967639 0.0932366 0.396772
0 0.968324 0.0924596 0.262058
0 0.966931 0.0934793 0.438128
0 0.966946 0.093479 0.433869
0 0.967769 0.0931461 0.382178
0 0.967637 0.093276 0.403945
0 0.965748 0.166648 9.7936
0 0.967842 0.0930371 0.367345
0 0.966979 0.0934742 0.442756
0 0.967717 0.093204 0.396571
0 0.966212 0.0934662 0.442617
0 0.966996 0.0934203 0.433882
0 0.965799 0.166869 9.81729
0 0.966204 0.0934532 0.438071
0 0.965801 0.166905 9.82235
0 0.968776 0.0921327 0.208596
0 0.968364 0.0923984 0.258198
0 0.968798 0.0921318 0.211596
0 0.966954 0.0934752 0.434221
0 0.96618 0.093491 0.446536
0 0.966944 0.0934656 0.437027
0 0.968778 0.0921455 0.207793
0 0.969163 0.0920216 0.189101
0 0.968322 0.0924748 0.266455
0 0.968768 0.0921825 0.21429
0 0.967783 0.0930549 0.364602
0 0.967653 0.093146 0.37937
0 0.968334 0.092487 0.268507
0 0.965782 0.1672 9.85361
0 0.96837 0.0923753 0.25606
0 0.96784 0.0930541 0.371502
0 0.966986 0.0934457 0.436912
0 0.967716 0.0932024 0.396697
0 0.966212 0.0934462 0.434334
0 0.96699 0.0934459 0.43458
0 0.965804 0.166689 9.83027
0 0.966209 0.0934439 0.432152
0 0.969231 0.0919404 0.178236
0 0.968797 0.0921418 0.216288
0 0.969192 0.0919951 0.190397
0 0.968814 0.0921225 0.214007
0 0.965805 0.167151 9.87792
0 0.966209 0.0934546 0.445041
0 0.967773 0.0931098 0.375678
0 0.96696 0.0933475 0.422562
0 0.967651 0.093224 0.398305
0 0.969482 0.0917048 0.137575
0 0.96922 0.0919707 0.179162
0 0.968782 0.0921968 0.218363
0 0.96917 0.0920613 0.194626
0 0.968348 0.0925008 0.271665
0 0.968797 0.092175 0.216198
0 0.965806 0.166785 9.81089
0 0.968386 0.0923863 0.258546
0 0.967847 0.0930942 0.37705
0 0.966982 0.0934413 0.431216
0 0.967711 0.0932681 0.403995
0 0.966218 0.0934597 0.434777
0 0.966994 0.0934287 0.427913
0 0.966216 0.0934595 0.434856
0 0.969695 0.0915496 0.113412
0 0.969701 0.0915493 0.11253
0 0.969498 0.0916624 0.13405
0 0.969253 0.091938 0.182243
0 0.96881 0.0921147 0.212177
0 0.969203 0.0920131 0.195203
0 0.969744 0.0914386 0.0954498
0 0.965808 0.167136 9.84566
0 0.966227 0.0934454 0.443007
0 0.967006 0.0932759 0.412612
0 0.968349 0.0926107 0.293042
0 0.967765 0.0931462 0.387176
0 0.969501 0.0917157 0.138776
0 0.969239 0.091983 0.183892
0 0.968845 0.0921813 0.219296
0 0.969208 0.0919718 0.184052
0 0.966203 0.0934648 0.440594
0 0.965805 0.166937 9.82336
0 0.968391 0.0923985 0.258602
0 0.967844 0.0931114 0.375883
0 0.966992 0.0934244 0.427334
0 0.967716 0.0932199 0.393221
0 0.966224 0.0934579 0.436215
0 0.966999 0.0934075 0.425849
0 0.968824 0.0921131 0.210999
0 0.969758 0.0914623 0.099967
0 0.969848 0.0912577 0.0648036
0 0.969523 0.0916416 0.131475
0 0.969271 0.0919355 0.181654
0 0.969216 0.0920229 0.196243
0 0.96974 0.0914012 0.0890522
0 0.969871 0.0910743 0.0319669
0 0.966218 0.0934505 0.437111
0 0.965808 0.167626 9.89377
0 0.968835 0.0922096 0.225778
0 0.967003 0.0933069 0.415735
0 0.967725 0.093218 0.399805
0 0.968413 0.0926272 0.297839
0 0.966958 0.093407 0.426968
0 0.969528 0.0917061 0.140862
0 0.969292 0.0919436 0.181375
0 0.969765 0.0914766 0.104109
0 0.969148 0.0921931 0.223023
0 0.966185 0.0934575 0.433082
0 0.965786 0.166878 9.81499
0 0.968393 0.0923875 0.255134
0 0.967847 0.0930653 0.368386
0 0.966995 0.0934193 0.43015
0 0.967717 0.0932017 0.39311
0 0.966995 0.0934437 0.435959
0 0.968811 0.0921307 0.214349
0 0.969877 0.0910939 0.0397451
0 0.969537 0.091624 0.128214
0 0.969267 0.0919741 0.188102
0 0.969764 0.0913442 0.0791583
0 0.969854 0.0911248 0.0413955
0 0.966226 0.0934248 0.434794
0 0.965813 0.166686 9.79739
0 0.968773 0.0922798 0.236897
0 0.967751 0.0931014 0.377423
0 0.968306 0.0927172 0.312312
0 0.966956 0.0934582 0.430273
0 0.967686 0.0931187 0.376048
0 0.969606 0.0916382 0.130999
0 0.969459 0.0918353 0.162762
0 0.969773 0.0914491 0.0988154
0 0.969255 0.0920618 0.199244
0 0.968887 0.0923525 0.246553
0 0.966946 0.0934387 0.425972
0 0.966159 0.0934196 0.425059
0 0.965773 0.165915 9.71504
0 0.968382 0.0923865 0.256929
0 0.967851 0.0930432 0.368103
0 0.966988 0.0934251 0.433349
0 0.967736 0.0931874 0.393176
0 0.968813 0.0921626 0.22004
0 0.969209 0.0920621 0.203092
0 0.96979 0.0913539 0.0809803
0 0.969532 0.0916538 0.133516
0 0.969734 0.091445 0.0971817
0 0.969735 0.091477 0.101259
0 0.969724 0.0914972 0.106219
0 0.966996 0.0934258 0.432646
0 0.966226 0.0934058 0.432219
0 0.965817 0.166906 9.82095
0 0.968343 0.0925244 0.275517
0 0.967795 0.0930606 0.362984
0 0.967659 0.0932605 0.39548
0 0.968732 0.0923488 0.243425
0 0.969544 0.0916494 0.129885
0 0.969201 0.0920568 0.195153
0 0.966952 0.0934154 0.423262
0 0.966181 0.093443 0.430192
0 0.965769 0.16591 9.71648
0 0.968375 0.0923689 0.254846
0 0.967851 0.0930436 0.368058
0 0.967721 0.093293 0.40925
0 0.968799 0.0921553 0.218699
0 0.969251 0.0920002 0.192784
0 0.969578 0.0916997 0.137342
0 0.969518 0.0918546 0.165067
0 0.969506 0.0917267 0.146598
0 0.969505 0.0917989 0.158335
0 0.966966 0.0934506 0.435435
0 0.966221 0.0933427 0.420489
0 0.965823 0.165805 9.70737
0 0.968319 0.0925282 0.271866
0 0.967817 0.0930368 0.357721
0 0.968817 0.0922113 0.219515
0 0.969278 0.0919263 0.173415
0 0.967731 0.0931556 0.379769
0 0.966976 0.0934635 0.431144
0 0.96619 0.0934734 0.436022
0 0.965773 0.166733 9.89363
0 0.968383 0.0923713 0.25367
0 0.96785 0.0931145 0.378029
0 0.968797 0.0921363 0.214808
0 0.969184 0.0920835 0.206967
0 0.969234 0.0920023 0.18852
0 0.969212 0.0920601 0.201721
0 0.96923 0.0920461 0.201238
0 0.969164 0.092121 0.213759
0 0.967726 0.0932376 0.397821
0 0.966982 0.0934519 0.434437
0 0.966217 0.0933407 0.418484
0 0.965824 0.164996 9.62254
0 0.968362 0.0924074 0.253228
0 0.968845 0.0921085 0.204591
0 0.967842 0.0930505 0.36573
0 0.966991 0.0934749 0.434659
0 0.966207 0.0934548 0.432367
0 0.965785 0.167418 9.87417
0 0.96837 0.0923819 0.254578
0 0.968785 0.0921607 0.219203
0 0.968834 0.0920813 0.204909
0 0.968791 0.0921231 0.2144
0 0.968786 0.0921462 0.217889
0 0.967833 0.0930688 0.368762
0 0.966977 0.0934245 0.428307
0 0.966223 0.0933962 0.425953
0 0.965819 0.16608 9.73414
0 0.968393 0.092428 0.263187
0 0.967713 0.0932063 0.396679
0 0.966992 0.0934034 0.427297
0 0.966208 0.0934302 0.429933
0 0.965801 0.166492 9.77655
0 0.968364 0.092411 0.259651
0 0.968381 0.0923971 0.261583
0 0.968371 0.0923953 0.259374
0 0.967708 0.0932156 0.392864
0 0.966991 0.0933975 0.422734
0 0.966222 0.0934015 0.425499
0 0.965816 0.166708 9.79925
0 0.967845 0.0930774 0.377612
0 0.967004 0.0933828 0.429557
0 0.96623 0.0934146 0.432942
0 0.965815 0.165977 9.72342
0 0.967723 0.0932335 0.404493
0 0.967831 0.093083 0.371898
0 0.967844 0.0930876 0.377348
0 0.967715 0.0932352 0.399021
0 0.966983 0.0934411 0.429988
0 0.966223 0.0933743 0.419865
0 0.96582 0.166131 9.74157
0 0.966987 0.0934262 0.43864
0 0.966226 0.0934129 0.437504
0 0.965823 0.166481 9.77865
0 0.966992 0.0934387 0.438473
0 0.966993 0.0934418 0.431355
0 0.966978 0.0934353 0.433659
0 0.966205 0.0933672 0.4187
0 0.965825 0.164041 9.55238
0 0.966229 0.0934149 0.437365
0 0.965824 0.166464 9.77957
0 0.96622 0.0933941 0.429859
0 0.966222 0.0933787 0.423168
0 0.965821 0.165005 9.6354
0 0.965821 0.166419 9.78414
0 0.965821 0.165741 9.70503
VECTORS fa_u float
0.00933627 0.00384069 0
0.00876001 0.00503171 0
0.00970445 0.00257285 0
0.00987865 0.00134045 0
0.000434306 0.000153279 0
0.0079603 0.00608311 0
0.00706243 0.00704479 0
0.000416817 0.000204828 0
0.000388165 0.000256205 0
0.00607978 0.00789991 0
0.00500581 0.00864987 0
0.00986912 -1.01599e-05 0
0.00983323 -0.0013546 0
0.000443543 8.93771e-05 0
0.000442226 2.78901e-05 0
0.000420482 0.000119182 0
0.000403646 0.0001659 0
0.000342382 0.000291873 0
0.000296539 0.000332376 0
0.000379881 0.000221326 0
0.000347109 0.000262414 0
0.00388055 0.00936572 0
0.00262831 0.00982903 0
0.000251019 0.000372411 0
0.000205756 0.000411087 0
0.000443078 -3.76695e-05 0
0.00954529 -0.0025491 0
0.000440533 -9.29141e-05 0
0.00917495 -0.00379495 0
0.000435023 4.33247e-05 0
0.000427561 -4.98261e-06 0
0.000379391 6.55695e-05 0
0.00129497 0.00988007 0
0.000341948 0.000116041 0
0.000352202 0.000168471 0
0.000304748 0.000304101 0
0.00026373 0.000341744 0
0.000304304 0.000204964 0
0.000298893 0.000260205 0
0.000158026 0.000440967 0
0.000100479 0.000459063 0
0.00021279 0.00038095 0
0.00017532 0.000403275 0
-6.413e-06 0.00990733 0
0.000434162 -6.51392e-05 0
0.000426709 -0.000148113 0
0.000431446 -0.000116801 0
0.00854726 -0.00493729 0
0.000401836 -0.000198067 0
0.00780573 -0.00598609 0
0.000368056 9.47271e-06 0
0.000391504 -2.85793e-05 0
0.000251398 3.66732e-05 0
3.51209e-05 0.00045713 0
-2.58593e-05 0.000450731 0
0.00023233 0.000103022 0
0.000245829 0.000282204 0
0.000217789 0.000331656 0
0.000199659 0.000169737 0
0.000122723 0.000420589 0
6.47052e-05 0.000429017 0
0.000169251 0.000342657 0
0.000136083 0.000380333 0
-0.00128771 0.00970857 0
0.000360232 -7.19411e-05 0
0.000405897 -0.000176862 0
0.000372862 -0.000135064 0
0.000368303 -0.000245484 0
0.000377094 -0.000214603 0
0.00694522 -0.00693851 0
0.000330725 -0.000287275 0
0.0059823 -0.00779041 0
0.000201508 5.3916e-05 0
0.00025667 -2.80471e-05 0
0.000211571 3.20505e-06 0
-9.70276e-06 0.000434112 0
-7.79965e-05 0.000439671 0
-5.69287e-05 0.000433303 0
0.000177454 0.000108111 0
0.00017395 7.41649e-05 0
0.000153288 0.000217947 0
0.000147757 0.000155203 0
7.48294e-05 0.00035684 0
1.99759e-05 0.000378844 0
9.27246e-05 0.000251989 0
-0.00255474 0.00951667 0
0.000240037 -8.91568e-05 0
0.000330902 -0.000168873 0
0.000346988 -0.000265503 0
0.000331749 -0.000217511 0
0.000286493 -0.000326447 0
0.000310663 -0.000303889 0
0.00491984 -0.00851054 0
0.000240626 -0.000358963 0
0.000175765 2.95757e-05 0
0.000209749 -5.27793e-05 0
0.000189447 -1.89984e-05 0
0.000189387 -9.96579e-05 0
0.00379008 -0.00912187 0
-0.000136673 0.000423535 0
-2.69689e-05 0.000374709 0
-0.00011135 0.000407627 0
-8.26719e-05 0.000389631 0
0.000126362 5.43998e-05 0
0.00013876 0.000113335 0
0.000105172 0.000191367 0
0.000115416 0.000156712 0
2.50092e-05 0.000270511 0
5.58784e-05 0.000208852 0
-0.00376195 0.00906098 0
0.000213496 -0.000145827 0
0.000286357 -0.000245289 0
0.000262977 -0.000341745 0
0.0002673 -0.000302923 0
0.000191534 -0.000390315 0
0.00021738 -0.000368585 0
0.000138636 -0.000412165 0
0.000111062 2.29681e-05 0
9.08219e-05 6.64406e-05 0
0.000133727 -9.29328e-06 0
0.000171608 -6.13447e-05 0
0.000155896 -0.000143929 0
0.00016023 -0.000111492 0
9.28381e-05 -2.21754e-05 0
0.00256272 -0.00950628 0
-0.000190225 0.000400087 0
-0.00015059 0.00038415 0
-4.42708e-05 0.000289678 0
-0.000122758 0.0003672 0
8.4057e-05 0.000110423 0
6.59452e-05 0.000171661 0
-2.13433e-07 0.000219296 0
2.43463e-05 0.000182434 0
-0.00024137 0.000368597 0
-0.00492432 0.00849998 0
0.000168994 -0.000195744 0
0.000210101 -0.000311681 0
0.000160213 -0.000396164 0
0.000172851 -0.000353193 0
7.97461e-05 -0.000428864 0
0.000106959 -0.000412198 0
0.000110944 -0.000179476 0
4.35657e-05 8.99746e-05 0
5.69677e-05 3.08899e-05 0
0.000110465 -7.12956e-05 0
0.000118168 -0.000137966 0
7.81236e-05 -0.000180022 0
6.03357e-05 -6.54973e-05 0
2.42294e-05 -2.08523e-05 0
2.1677e-05 -0.000436573 0
0.00130832 -0.00980688 0
-5.35884e-05 0.000219326 0
-0.000197913 0.000365604 0
-0.000162004 0.000365512 0
-9.70343e-05 0.000281589 0
-0.000250313 0.000345897 0
2.44121e-05 0.00013873 0
-2.0628e-05 0.000180198 0
-1.38076e-06 0.0001041 0
-7.43569e-05 0.000210263 0
-0.000287574 0.000323823 0
-0.00597629 0.00778575 0
0.000104973 -0.000232539 0
0.00011385 -0.000350352 0
4.62305e-05 -0.000427659 0
7.0376e-05 -0.000386759 0
-6.24816e-06 -0.000435914 0
5.59055e-05 -0.00020693 0
-8.32158e-06 3.88642e-05 0
5.26102e-05 -0.000116923 0
3.00841e-05 -0.00018568 0
8.51377e-06 -7.86992e-05 0
-3.48532e-05 -2.23348e-05 0
-3.65918e-05 -0.000433251 0
9.51494e-06 -0.00979739 0
-0.000113923 0.000207705 0
-0.000194938 0.000323183 0
-0.000157164 0.000269886 0
-0.000308476 0.000299962 0
-0.00024133 0.000288395 0
-3.0313e-05 0.000127444 0
-6.43978e-05 0.000149481 0
-5.19523e-05 8.40562e-05 0
-0.000112414 0.000164504 0
-0.00015662 0.000190416 0
-0.000330879 0.000268274 0
-0.000318055 0.000281986 0
-0.00683288 0.00690606 0
3.94957e-05 -0.000253875 0
2.06142e-05 -0.000367525 0
-6.7628e-05 -0.00042804 0
-3.36576e-05 -0.000391733 0
3.13956e-06 -0.000220017 0
-2.46517e-05 -0.00020159 0
-7.18349e-05 3.73839e-05 0
-1.68614e-05 -0.000132447 0
-4.10775e-05 -8.80734e-05 0
-0.000100248 -1.42711e-05 0
-8.40466e-05 -6.49507e-05 0
-0.000120595 -0.0004155 0
-9.20896e-05 -0.000422295 0
-0.00127249 -0.00973816 0
-0.000178323 0.000210025 0
-0.000269745 0.000242888 0
-0.000320393 0.000231846 0
-0.000183616 0.000159815 0
-9.60131e-05 8.74737e-05 0
-0.000152877 0.000121298 0
-0.000361203 0.000220642 0
-0.000351607 0.000247867 0
-0.00769528 0.00593235 0
-2.5384e-05 -0.000253578 0
-7.64269e-05 -0.000360035 0
-0.000139654 -0.000384684 0
-5.54293e-05 -0.000211558 0
-7.23687e-05 -0.000178686 0
-0.000131577 3.93716e-05 0
-0.000164427 -1.45218e-05 0
-8.8174e-05 -0.000117116 0
-0.000141162 -7.17162e-05 0
-0.000171503 -0.000400237 0
-0.000142638 -0.000395557 0
-0.00249948 -0.00938006 0
-0.000220472 0.000159069 0
-0.000315518 0.000168559 0
-0.000195877 9.90915e-05 0
-0.000162378 6.08787e-05 0
-0.000359356 0.000122833 0
-0.000393078 0.000177129 0
-0.000386985 0.000200893 0
-0.00858147 0.00492366 0
-8.79106e-05 -0.00023795 0
-0.000165503 -0.000339875 0
-0.000104462 -0.000187697 0
-0.000123754 -0.000165892 0
-0.000188016 1.37785e-05 0
-0.000197613 -4.05059e-05 0
-0.000157007 -0.00012588 0
-0.00019485 -8.78989e-05 0
-0.000224478 -0.000328438 0
-0.000207974 -0.000381421 0
-0.000182169 -0.000376754 0
-0.00368934 -0.00888718 0
-0.000239197 8.31207e-05 0
-0.000200277 4.17936e-05 0
-0.000360798 5.98587e-05 0
-0.00042164 0.000105585 0
-0.00040739 0.000144826 0
-0.00913445 0.00374979 0
-0.000150155 -0.00020558 0
-0.000154047 -0.000155948 0
-0.000204352 -1.51011e-05 0
-0.00020374 -6.67617e-05 0
-0.000185636 -0.000114082 0
-0.00024827 -0.000272667 0
-0.000264325 -0.000337015 0
-0.000236234 -0.000354443 0
-0.00488031 -0.00842235 0
-0.000262715 1.57595e-05 0
-0.000396153 2.04113e-05 0
-0.000423708 5.52652e-05 0
-0.000420372 9.01651e-05 0
-0.00944961 0.00250717 0
-0.000201367 -0.00016392 0
-0.000256646 -5.05831e-05 0
-0.000234984 -0.000109804 0
-0.000299697 -0.000254016 0
-0.00030031 -0.00029752 0
-0.000283162 -0.000317599 0
-0.00596996 -0.00777076 0
-0.00037665 -2.69332e-05 0
-0.000429517 -5.85478e-06 0
-0.00043159 3.41903e-05 0
-0.00963989 0.00127177 0
-0.000397056 -7.72119e-05 0
-0.000311194 -0.000203633 0
-0.000357446 -0.00012093 0