# vtk DataFile Version 2.0
CellBP Time: 3.8
ASCII
DATASET UNSTRUCTURED_GRID
POINTS 296 double
-9.01093 -3.70355 0
-8.44297 -4.85386 0
-9.42255 -2.48863 0
-9.67257 -1.22908 0
-8.34106 -2.81286 0
-7.73122 -5.92127 0
-6.88523 -6.88557 0
-7.90161 -3.86698 0
-7.32821 -4.85811 0
-5.92071 -7.7315 0
-4.85382 -8.44384 0
-9.77072 0.0498649 0
-9.67307 1.32892 0
-8.64078 -1.68027 0
-8.77066 -0.52769 0
-7.5733 -1.99932 0
-7.21002 -2.89994 0
-6.62473 -5.76765 0
-5.81105 -6.58414 0
-6.77561 -3.88018 0
-6.2072 -4.66552 0
-3.70307 -9.01084 0
-2.48835 -9.42337 0
-4.89683 -7.29474 0
-3.90517 -7.871 0
-8.77719 0.64138 0
-9.42361 2.58877 0
-8.60681 1.77047 0
-9.01294 3.80424 0
-7.72778 -0.926923 0
-7.77842 0.0803111 0
-6.9381 -1.31305 0
-1.23016 -9.67387 0
-6.42831 -2.14841 0
-6.30581 -3.04946 0
-5.52465 -5.46257 0
-4.78548 -6.10216 0
-5.64731 -3.74893 0
-5.25789 -4.55143 0
-2.86018 -8.34756 0
-1.77472 -8.62288 0
-3.91966 -6.70895 0
-3.04967 -7.13718 0
0.0499246 -9.75864 0
-7.68918 1.14105 0
-8.32264 2.90987 0
-7.53539 2.10751 0
-8.44523 4.95476 0
-7.86513 3.97074 0
-7.73163 6.02122 0
-6.76483 -0.396185 0
-6.94185 0.551698 0
-5.76186 -1.00168 0
-0.589438 -8.79225 0
0.564842 -8.75381 0
-5.29414 -2.47607 0
-4.48241 -5.08487 0
-3.89393 -5.76268 0
-4.43113 -3.79815 0
-2.0576 -7.54569 0
-1.13288 -7.76908 0
-2.98782 -6.08905 0
-2.30361 -6.60529 0
1.33011 -9.67509 0
-6.6759 1.41945 0
-7.15666 3.1113 0
-6.64514 2.36792 0
-7.28111 4.97934 0
-6.70372 3.99471 0
-6.88604 6.9863 0
-6.56025 5.88327 0
-5.92132 7.83222 0
-4.44541 -1.17877 0
-5.80496 0.512927 0
-4.64816 -0.0100312 0
0.00833097 -7.83119 0
1.73582 -8.62743 0
0.946997 -7.74673 0
-4.03161 -2.40209 0
-3.47886 -1.38824 0
-3.28844 -4.79705 0
-3.26001 -3.2618 0
-1.37552 -6.6618 0
-0.507762 -7.01038 0
-1.97173 -5.52743 0
2.58845 -9.42436 0
-5.49833 2.03364 0
-6.08226 3.06578 0
-6.09199 4.85932 0
-5.74931 3.98315 0
-5.7507 6.70489 0
-5.44041 5.6076 0
-4.85454 8.54517 0
-4.82953 7.39116 0
-3.49483 -0.423046 0
-4.44145 1.24717 0
-3.70437 0.59148 0
-4.05513 2.31611 0
-3.70345 9.11202 0
2.85772 -8.31739 0
0.418927 -6.78118 0
2.01796 -7.51042 0
1.30318 -6.89086 0
-2.43982 -0.871733 0
-2.83294 -2.12676 0
-2.29013 -4.09012 0
-2.32101 -2.96764 0
-0.441142 -5.8509 0
-1.22031 -4.49123 0
3.80381 -9.01319 0
-4.7819 3.3863 0
-5.07732 4.58479 0
-4.63724 6.2683 0
-4.52894 5.34819 0
-3.83665 7.97889 0
-3.81847 6.8316 0
-2.77814 8.4076 0
-1.64479 -0.137081 0
-1.44671 -0.888149 0
-2.48411 0.506943 0
-3.24724 1.44191 0
-3.23329 3.31118 0
-2.90505 2.36761 0
-1.35157 0.626212 0
-2.48852 9.5246 0
3.9259 -7.8725 0
2.959 -7.14343 0
0.952648 -5.81115 0
2.06987 -6.40184 0
-1.6796 -1.98793 0
-1.43166 -3.27133 0
0.0904523 -4.73875 0
-0.565011 -3.68759 0
4.92358 -7.30524 0
4.95385 -8.44444 0
-3.77077 4.54427 0
-3.72694 5.74036 0
-2.88182 7.27481 0
-3.00316 6.34042 0
-1.6595 8.71792 0
-1.9359 7.60378 0
-2.33428 4.04501 0
-0.728935 -1.32398 0
-0.834648 -0.256576 0
-1.9321 1.67812 0
-2.12139 2.87071 0
-1.30364 3.53803 0
-0.867161 1.34832 0
-0.281373 0.455138 0
-0.532525 8.85578 0
-1.23013 9.77508 0
1.11092 -4.56644 0
3.90284 -6.70373 0
2.98196 -6.08126 0
2.11434 -5.41455 0
4.77532 -6.19239 0
-0.557744 -2.47169 0
0.494489 -3.45715 0
0.0536373 -1.60671 0
1.47918 -3.67438 0
5.85718 -6.60258 0
6.02087 -7.73195 0
-2.47177 5.33986 0
-2.12607 6.52141 0
-0.902108 7.78729 0
-1.26953 6.91771 0
0.0862093 7.86412 0
-1.14232 4.48711 0
0.150105 -0.616353 0
-0.795433 2.48418 0
-0.330443 3.59388 0
0.0635105 1.50973 0
0.740229 0.472476 0
0.645666 8.85861 0
0.0500886 9.85974 0
2.37678 -4.27766 0
3.85207 -5.62858 0
2.99568 -5.20291 0
5.56295 -5.48065 0
4.6824 -5.2725 0
0.628639 -2.28872 0
1.25383 -2.94576 0
0.755622 -1.38845 0
2.16014 -3.12983 0
2.98794 -3.46965 0
6.14364 -4.78204 0
6.64579 -5.75906 0
6.9866 -6.88576 0
-1.01805 5.81111 0
-0.371642 6.87012 0
1.12029 7.75373 0
0.556912 7.06545 0
-0.000529964 4.71715 0
0.606213 3.82042 0
1.3363 -0.640633 0
0.538589 2.64617 0
0.964688 1.57162 0
1.90656 0.213272 0
1.61178 1.06257 0
2.12503 7.5683 0
1.79609 8.69743 0
1.33042 9.77478 0
3.8163 -4.34406 0
5.10702 -4.44028 0
5.83448 -3.92691 0
3.77722 -3.19529 0
1.80871 -1.87952 0
3.01347 -2.56953 0
6.77078 -3.94036 0
7.37015 -4.88924 0
7.84365 -5.93002 0
0.482551 5.87243 0
1.4255 6.72886 0
2.36931 6.65513 0
1.20808 4.54852 0
1.48567 3.39111 0
2.43099 -0.690615 0
2.82211 0.142073 0
1.78582 2.15855 0
2.60688 1.14752 0
3.06577 7.15557 0
2.89926 8.36307 0
2.58942 9.52632 0
4.90342 -3.32226 0
6.10961 -3.10286 0
4.16576 -2.27171 0
3.23851 -1.50073 0
6.7187 -2.30881 0
7.21815 -3.03657 0
7.952 -3.9059 0
8.54839 -4.85711 0
2.02056 5.59136 0
3.08065 6.14146 0
2.3603 4.12017 0
2.41577 3.05487 0
3.51893 -0.460317 0
3.60871 0.611881 0
2.95635 2.28354 0
3.53876 1.52214 0
4.00433 5.88656 0
3.97717 6.77974 0
3.96716 7.92608 0
3.80461 9.11478 0
5.56058 -1.91317 0
4.50218 -1.12803 0
6.7016 -1.334 0
7.5779 -2.03297 0
8.38365 -2.85707 0
9.11714 -3.70607 0
3.41404 4.86992 0
3.33376 3.37987 0
4.68427 0.129677 0
4.51226 1.30771 0
4.05905 2.43982 0
4.56227 5.14321 0
4.83472 6.17926 0
4.97275 7.36888 0
4.95442 8.54522 0
5.8748 -0.434159 0
6.99776 -0.487402 0
7.74537 -1.08341 0
8.67119 -1.7432 0
9.52345 -2.48868 0
4.54595 3.82211 0
5.80956 1.09708 0
5.36382 2.53137 0
5.37045 4.61219 0
5.60239 5.51361 0
5.88832 6.66178 0
6.02116 7.83193 0
6.8341 0.462874 0
7.83956 -0.0257092 0
8.84703 -0.583263 0
9.77658 -1.23027 0
6.94801 1.34715 0
5.71137 3.77188 0
6.53037 2.19375 0
6.36907 3.08243 0
6.2815 4.67872 0
6.68331 5.8295 0
6.98609 6.98602 0
7.7707 0.966046 0
8.84633 0.572017 0
9.8598 0.0499237 0
7.6031 2.0008 0
6.81768 3.89733 0
7.25713 2.94181 0
7.36797 4.87878 0
7.83425 6.02334 0
8.71018 1.72468 0
9.77468 1.33035 0
8.409 2.83405 0
7.97065 3.91067 0
8.54816 4.95604 0
9.52553 2.5897 0
9.11987 3.80687 0
CELLS 542 2168
3 2 0 4
3 0 1 7
3 4 0 7
3 1 5 8
3 7 1 8
3 3 2 13
3 13 2 4
3 11 3 14
3 14 3 13
3 13 4 15
3 4 7 16
3 15 4 16
3 5 6 17
3 8 5 17
3 6 9 18
3 17 6 18
3 7 8 19
3 16 7 19
3 8 17 20
3 19 8 20
3 9 10 23
3 18 9 23
3 10 21 24
3 23 10 24
3 12 11 25
3 25 11 14
3 26 12 27
3 27 12 25
3 14 13 29
3 29 13 15
3 25 14 30
3 30 14 29
3 29 15 31
3 15 16 33
3 31 15 33
3 16 19 34
3 33 16 34
3 17 18 35
3 20 17 35
3 18 23 36
3 35 18 36
3 19 20 37
3 34 19 37
3 20 35 38
3 37 20 38
3 21 22 39
3 24 21 39
3 22 32 40
3 39 22 40
3 23 24 41
3 36 23 41
3 24 39 42
3 41 24 42
3 27 25 44
3 44 25 30
3 28 26 45
3 45 26 27
3 45 27 46
3 46 27 44
3 47 28 48
3 48 28 45
3 30 29 50
3 50 29 31
3 44 30 51
3 51 30 50
3 50 31 52
3 31 33 52
3 32 43 53
3 40 32 53
3 53 43 54
3 33 34 55
3 34 37 55
3 33 55 52
3 35 36 56
3 38 35 56
3 36 41 57
3 56 36 57
3 37 38 58
3 38 56 58
3 37 58 55
3 39 40 59
3 42 39 59
3 40 53 60
3 59 40 60
3 41 42 61
3 57 41 61
3 42 59 62
3 61 42 62
3 43 63 54
3 46 44 64
3 64 44 51
3 48 45 65
3 65 45 46
3 65 46 66
3 66 46 64
3 49 47 67
3 67 47 48
3 67 48 68
3 68 48 65
3 69 49 70
3 70 49 67
3 52 55 72
3 64 51 73
3 51 50 73
3 50 52 73
3 73 52 74
3 74 52 72
3 53 54 75
3 60 53 75
3 54 63 76
3 54 76 77
3 75 54 77
3 55 58 78
3 72 55 78
3 72 78 79
3 56 57 80
3 57 61 80
3 56 80 58
3 58 80 81
3 78 58 81
3 59 60 82
3 62 59 82
3 60 75 83
3 82 60 83
3 61 62 84
3 62 82 84
3 61 84 80
3 63 85 76
3 66 64 86
3 64 73 86
3 68 65 87
3 87 65 66
3 87 66 86
3 70 67 88
3 88 67 68
3 88 68 89
3 89 68 87
3 71 69 90
3 90 69 70
3 90 70 91
3 91 70 88
3 92 71 93
3 93 71 90
3 74 72 94
3 94 72 79
3 86 73 95
3 95 73 74
3 95 74 96
3 96 74 94
3 97 86 95
3 76 85 99
3 75 77 100
3 83 75 100
3 76 99 101
3 77 76 101
3 77 101 102
3 100 77 102
3 94 79 103
3 78 81 104
3 79 78 104
3 79 104 103
3 80 84 105
3 81 80 105
3 81 105 106
3 104 81 106
3 82 83 107
3 83 100 107
3 82 107 84
3 84 107 108
3 105 84 108
3 85 109 99
3 89 87 110
3 87 86 110
3 110 86 97
3 91 88 111
3 111 88 89
3 111 89 110
3 93 90 112
3 112 90 91
3 112 91 113
3 113 91 111
3 98 92 114
3 114 92 93
3 114 93 115
3 115 93 112
3 116 98 114
3 117 103 118
3 96 94 119
3 94 103 119
3 119 103 117
3 97 95 120
3 120 95 96
3 120 96 119
3 121 110 97
3 121 97 122
3 122 97 120
3 123 119 117
3 124 98 116
3 99 109 125
3 99 125 126
3 101 99 126
3 100 102 127
3 100 127 107
3 101 126 128
3 102 101 128
3 102 128 127
3 104 106 129
3 104 129 103
3 103 129 118
3 105 108 130
3 106 105 130
3 106 130 129
3 107 127 131
3 108 107 131
3 108 131 132
3 108 132 130
3 109 134 125
3 125 134 133
3 113 111 135
3 111 110 135
3 135 110 121
3 115 112 136
3 136 112 113
3 136 113 135
3 116 114 137
3 137 114 115
3 137 115 138
3 138 115 136
3 139 124 116
3 139 116 140
3 140 116 137
3 141 135 121
3 118 129 142
3 118 142 143
3 117 118 143
3 123 117 143
3 122 120 144
3 120 119 144
3 144 119 123
3 141 121 145
3 145 121 122
3 145 122 144
3 146 141 145
3 147 144 123
3 147 123 148
3 143 148 123
3 150 124 139
3 149 150 139
3 131 127 151
3 125 133 152
3 126 125 152
3 126 152 153
3 128 126 153
3 128 153 154
3 128 154 127
3 127 154 151
3 152 133 155
3 130 132 156
3 130 156 129
3 129 156 142
3 131 151 157
3 132 131 157
3 132 157 156
3 156 158 142
3 157 151 159
3 133 160 155
3 134 161 133
3 133 161 160
3 138 136 162
3 136 135 162
3 162 135 141
3 140 137 163
3 163 137 138
3 163 138 162
3 149 139 164
3 164 139 140
3 164 140 165
3 165 140 163
3 166 149 164
3 167 162 141
3 167 141 146
3 142 158 168
3 143 142 168
3 143 168 148
3 146 145 169
3 145 144 169
3 169 144 147
3 170 167 146
3 170 146 169
3 171 169 147
3 171 147 148
3 171 148 172
3 168 172 148
3 173 149 166
3 174 150 149
3 173 174 149
3 154 175 151
3 151 175 159
3 152 155 176
3 153 152 176
3 153 176 177
3 153 177 154
3 154 177 175
3 155 160 178
3 155 178 179
3 176 155 179
3 156 157 180
3 156 180 158
3 157 159 181
3 157 181 180
3 158 180 182
3 158 182 168
3 159 175 183
3 159 183 181
3 175 184 183
3 160 186 178
3 178 186 185
3 161 187 160
3 160 187 186
3 165 163 188
3 163 162 188
3 188 162 167
3 166 164 189
3 189 164 165
3 189 165 188
3 190 173 166
3 190 166 191
3 191 166 189
3 192 188 167
3 192 167 170
3 193 192 170
3 182 194 168
3 194 172 168
3 193 170 195
3 170 169 195
3 195 169 171
3 196 195 171
3 196 171 172
3 194 197 172
3 197 198 172
3 198 196 172
3 200 173 190
3 199 200 190
3 201 174 173
3 200 201 173
3 176 179 202
3 177 176 202
3 177 202 175
3 175 202 184
3 178 185 203
3 178 203 179
3 179 203 202
3 203 185 204
3 202 205 184
3 183 206 181
3 180 181 206
3 180 206 182
3 182 206 194
3 183 184 207
3 205 207 184
3 183 207 206
3 185 208 204
3 186 209 185
3 185 209 208
3 187 210 186
3 186 210 209
3 191 189 211
3 189 188 211
3 211 188 192
3 199 190 212
3 212 190 191
3 212 191 211
3 213 199 212
3 214 211 192
3 214 192 193
3 215 214 193
3 215 193 195
3 206 216 194
3 216 197 194
3 216 217 197
3 215 195 218
3 218 195 196
3 198 218 196
3 217 219 197
3 219 218 198
3 197 219 198
3 220 199 213
3 221 200 199
3 220 221 199
3 222 201 200
3 221 222 200
3 203 204 223
3 203 223 202
3 202 223 205
3 204 208 224
3 204 224 223
3 205 223 225
3 205 225 207
3 207 225 226
3 207 226 206
3 226 216 206
3 208 228 224
3 224 228 227
3 209 229 208
3 229 228 208
3 210 230 209
3 209 230 229
3 213 212 231
3 212 211 231
3 231 211 214
3 232 220 213
3 232 213 231
3 233 231 214
3 233 214 215
3 234 233 215
3 234 215 218
3 226 235 216
3 235 217 216
3 235 236 217
3 217 236 219
3 237 234 218
3 237 218 219
3 236 238 219
3 238 237 219
3 240 220 232
3 239 240 232
3 241 221 220
3 240 241 220
3 242 222 221
3 241 242 221
3 224 227 243
3 224 243 223
3 223 243 225
3 225 243 244
3 225 244 226
3 226 244 235
3 227 245 243
3 228 246 227
3 227 246 245
3 229 247 228
3 228 247 246
3 230 248 229
3 229 248 247
3 239 232 249
3 232 231 249
3 249 231 233
3 250 249 233
3 250 233 234
3 237 250 234
3 244 251 235
3 235 251 236
3 251 252 236
3 236 252 238
3 252 253 238
3 253 250 237
3 253 237 238
3 254 239 249
3 255 240 239
3 254 255 239
3 256 241 240
3 255 256 240
3 257 242 241
3 256 257 241
3 245 258 243
3 243 258 244
3 244 258 251
3 245 259 258
3 246 260 245
3 245 260 259
3 247 261 246
3 246 261 260
3 248 262 247
3 247 262 261
3 254 249 263
3 263 249 250
3 253 263 250
3 258 264 251
3 251 264 252
3 264 265 252
3 265 263 253
3 252 265 253
3 266 254 263
3 267 255 254
3 266 267 254
3 268 256 255
3 267 268 255
3 269 257 256
3 268 269 256
3 259 270 258
3 270 264 258
3 260 271 259
3 259 271 270
3 261 272 260
3 260 272 271
3 262 273 261
3 273 272 261
3 270 274 264
3 275 266 263
3 275 263 265
3 274 276 264
3 276 265 264
3 276 277 265
3 277 275 265
3 278 267 266
3 275 278 266
3 279 268 267
3 278 279 267
3 280 269 268
3 279 280 268
3 271 281 270
3 270 281 274
3 272 282 271
3 271 282 281
3 273 283 272
3 272 283 282
3 281 284 274
3 274 284 276
3 285 278 275
3 277 285 275
3 284 286 276
3 286 285 277
3 276 286 277
3 287 279 278
3 285 287 278
3 288 280 279
3 287 288 279
3 282 289 281
3 281 289 284
3 283 290 282
3 282 290 289
3 289 291 284
3 284 291 286
3 291 292 286
3 292 287 285
3 286 292 285
3 293 288 287
3 292 293 287
3 290 294 289
3 289 294 291
3 294 295 291
3 295 293 292
3 291 295 292
CELL_TYPES 542
5
5
5
5
5
5
5
5
5
5
5
5
5
5
5
5
5
5
5
5
5
5
5
5
5
5
5
5
5
5
5
5
5
5
5
5
5
5
5
5
5
5
5
5
5
5
5
5
5
5
5
5
5
5
5
5
5
5
5
5
5
5
5
5
5
5
5
5
5
5
5
5
5
5
5
5
5
5
5
5
5
5
5
5
5
5
5
5
5
5
5
5
5
5
5
5
5
5
5
5
5
5
5
5
5
5
5
5
5
5
5
5
5
5
5
5
5
5
5
5
5
5
5
5
5
5
5
5
5
5
5
5
5
5
5
5
5
5
5
5
5
5
5
5
5
5
5
5
5
5
5
5
5
5
5
5
5
5
5
5
5
5
5
5
5
5
5
5
5
5
5
5
5
5
5
5
5
5
5
5
5
5
5
5
5
5
5
5
5
5
5
5
5
5
5
5
5
5
5
5
5
5
5
5
5
5
5
5
5
5
5
5
5
5
5
5
5
5
5
5
5
5
5
5
5
5
5
5
5
5
5
5
5
5
5
5
5
5
5
5
5
5
5
5
5
5
5
5
5
5
5
5
5
5
5
5
5
5
5
5
5
5
5
5
5
5
5
5
5
5
5
5
5
5
5
5
5
5
5
5
5
5
5
5
5
5
5
5
5
5
5
5
5
5
5
5
5
5
5
5
5
5
5
5
5
5
5
5
5
5
5
5
5
5
5
5
5
5
5
5
5
5
5
5
5
5
5
5
5
5
5
5
5
5
5
5
5
5
5
5
5
5
5
5
5
5
5
5
5
5
5
5
5
5
5
5
5
5
5
5
5
5
5
5
5
5
5
5
5
5
5
5
5
5
5
5
5
5
5
5
5
5
5
5
5
5
5
5
5
5
5
5
5
5
5
5
5
5
5
5
5
5
5
5
5
5
5
5
5
5
5
5
5
5
5
5
5
5
5
5
5
5
5
5
5
5
5
5
5
5
5
5
5
5
5
5
5
5
5
5
5
5
5
5
5
5
5
5
5
5
5
5
5
5
5
5
5
5
5
5
5
5
5
5
5
5
5
5
5
5
5
5
5
5
5
5
5
5
5
5
5
5
5
5
5
5
5
5
5
5
5
5
5
5
5
5
5
5
5
5
5
5
5
5
5
5
5
5
5
5
5
5
5
5
5
5
5
5
5
5
5
5
5
5
5
5
5
5
5
5
5
5
5
5
5
5
5
5
5
5
5
5
POINT_DATA 296
SCALARS concentrations float 4
LOOKUP_TABLE default
0 0.960333 0.155885 8.56509
0 0.960329 0.15567 8.54137
0 0.960343 0.155432 8.53344
0 0.960367 0.154799 8.48181
0 0.960743 0.0935191 0.444566
0 0.960328 0.155208 8.50767
0 0.960338 0.154822 8.48581
0 0.960749 0.0935033 0.439001
0 0.960735 0.0935048 0.440051
0 0.960337 0.153169 8.56546
0 0.960334 0.154919 8.4943
0 0.960378 0.152403 8.4712
0 0.96038 0.154364 8.43168
0 0.960765 0.0935016 0.454087
0 0.960774 0.0934973 0.458779
0 0.961505 0.093365 0.42675
0 0.961487 0.0933389 0.416875
0 0.960746 0.0934651 0.445334
0 0.960743 0.0935262 0.464008
0 0.961494 0.0933408 0.416496
0 0.96148 0.0933286 0.419051
0 0.960321 0.155856 8.57655
0 0.960325 0.156514 8.63854
0 0.960751 0.0935261 0.463702
0 0.960737 0.0934786 0.444623
0 0.960787 0.0934856 0.451634
0 0.960375 0.154009 8.37941
0 0.960771 0.0934374 0.434945
0 0.960383 0.154421 8.41969
0 0.961503 0.0933763 0.442493
0 0.961522 0.0933065 0.437302
0 0.962191 0.09307 0.386621
0 0.960351 0.15482 8.46498
0 0.962291 0.0929298 0.355265
0 0.962168 0.0930838 0.377135
0 0.961484 0.0933369 0.433086
0 0.96148 0.0933421 0.444733
0 0.962284 0.0929577 0.360183
0 0.962155 0.0931281 0.394533
0 0.960747 0.0935194 0.438527
0 0.960739 0.0935728 0.452405
0 0.961484 0.0933432 0.434488
0 0.961468 0.0933334 0.417868
0 0.960375 0.154274 8.41484
0 0.961518 0.0933577 0.432155
0 0.96078 0.0934365 0.426011
0 0.96152 0.093385 0.425512
0 0.960402 0.153493 8.39892
0 0.960785 0.0934282 0.431983
0 0.960415 0.153686 8.35467
0 0.962298 0.0929619 0.372153
0 0.962191 0.0930933 0.394742
0 0.962799 0.092316 0.252664
0 0.96077 0.0935222 0.452031
0 0.960761 0.0934559 0.443146
0 0.962796 0.092331 0.249471
0 0.96228 0.0930022 0.37881
0 0.962161 0.0931226 0.400908
0 0.96279 0.0923737 0.261688
0 0.9615 0.0933373 0.413121
0 0.961515 0.093334 0.416213
0 0.962282 0.0930325 0.377728
0 0.962158 0.093149 0.387949
0 0.960401 0.153416 8.31448
0 0.962325 0.0929432 0.363618
0 0.961514 0.0933564 0.420853
0 0.962206 0.0931007 0.38184
0 0.960805 0.0933971 0.432923
0 0.961531 0.0933001 0.41641
0 0.960421 0.153548 8.33926
0 0.960804 0.0933601 0.425763
0 0.960426 0.153587 8.33868
0 0.963204 0.0920607 0.198245
0 0.962813 0.0923224 0.256105
0 0.963223 0.0920623 0.200587
0 0.961519 0.0933249 0.417666
0 0.960811 0.0933859 0.425821
0 0.961508 0.0933125 0.416261
0 0.963212 0.0920708 0.199494
0 0.963576 0.0919527 0.175361
0 0.962795 0.0923874 0.266756
0 0.963209 0.0921049 0.207243
0 0.962294 0.0929345 0.349825
0 0.962171 0.0930172 0.362623
0 0.962807 0.092398 0.262128
0 0.960431 0.153908 8.35643
0 0.962817 0.0923017 0.247059
0 0.962319 0.0929527 0.357173
0 0.961527 0.0933155 0.417165
0 0.962206 0.0930893 0.379124
0 0.960817 0.0933467 0.416689
0 0.961538 0.093306 0.410717
0 0.960431 0.153423 8.3402
0 0.960818 0.0933447 0.413432
0 0.963639 0.0918786 0.162335
0 0.963219 0.0920734 0.201684
0 0.963598 0.0919319 0.172683
0 0.963237 0.0920555 0.196521
0 0.960435 0.153965 8.37833
0 0.960852 0.0933559 0.415864
0 0.962276 0.0929793 0.356444
0 0.961545 0.0932064 0.401751
0 0.962165 0.0930863 0.380808
0 0.963884 0.0916545 0.124329
0 0.963635 0.0919031 0.166738
0 0.963226 0.0921162 0.209049
0 0.963591 0.0919869 0.182381
0 0.962818 0.0924073 0.25745
0 0.963241 0.0920961 0.203039
0 0.960435 0.153557 8.33356
0 0.962834 0.0923087 0.243336
0 0.962334 0.0929801 0.35752
0 0.961537 0.0932981 0.40731
0 0.962213 0.0931399 0.382332
0 0.960828 0.0933627 0.41935
0 0.961551 0.0932863 0.406803
0 0.960828 0.0933593 0.4223
0 0.96409 0.0915107 0.103562
0 0.964097 0.0915067 0.10361
0 0.963897 0.0916177 0.117815
0 0.963657 0.091879 0.162624
0 0.963239 0.0920469 0.19545
0 0.96361 0.0919507 0.176042
0 0.964134 0.0914082 0.086751
0 0.960439 0.153806 8.36237
0 0.960859 0.093363 0.411854
0 0.961622 0.0931548 0.396059
0 0.962817 0.0925081 0.279218
0 0.962299 0.0930203 0.382013
0 0.963906 0.0916606 0.126642
0 0.963659 0.0919109 0.169071
0 0.963284 0.0921026 0.205298
0 0.96363 0.0919013 0.168534
0 0.960809 0.0936285 0.414299
0 0.96039 0.153637 8.47977
0 0.962848 0.0923156 0.243808
0 0.962342 0.0929891 0.357773
0 0.96155 0.0932816 0.407808
0 0.962225 0.0930904 0.375642
0 0.960835 0.0933601 0.422646
0 0.961556 0.0932641 0.405049
0 0.963258 0.0920436 0.196143
0 0.96415 0.0914207 0.0918576
0 0.964235 0.0912332 0.0621518
0 0.96392 0.091599 0.115696
0 0.963679 0.0918768 0.16465
0 0.963629 0.0919591 0.181142
0 0.964129 0.0913738 0.081363
0 0.964253 0.0910692 0.0343479
0 0.960829 0.093354 0.420422
0 0.960439 0.154208 8.40578
0 0.963278 0.0921273 0.217023
0 0.961646 0.0932539 0.419976
0 0.962311 0.0931147 0.419123
0 0.962897 0.0925286 0.303238
0 0.961588 0.0933395 0.416791
0 0.963933 0.0916486 0.126959
0 0.963709 0.0918745 0.168549
0 0.964156 0.0914316 0.0946351
0 0.963576 0.0921083 0.213217
0 0.960842 0.0936787 0.401126
0 0.96039 0.149282 8.40622
0 0.962856 0.0923021 0.2421
0 0.962346 0.0929431 0.350914
0 0.96155 0.0932766 0.406237
0 0.962224 0.0930724 0.371951
0 0.961551 0.0933022 0.410161
0 0.963248 0.0920598 0.199732
0 0.964257 0.0910728 0.0337949
0 0.963935 0.0915828 0.116749
0 0.963678 0.091913 0.174695
0 0.964148 0.0913219 0.0750021
0 0.96423 0.0911143 0.0353324
0 0.960837 0.0933306 0.415579
0 0.960444 0.153406 8.31785
0 0.963235 0.0921914 0.23817
0 0.962347 0.0930086 0.401103
0 0.96283 0.0926217 0.335296
0 0.961599 0.0933136 0.405147
0 0.962268 0.092992 0.370975
0 0.964007 0.0915853 0.121422
0 0.963869 0.0917721 0.154347
0 0.96416 0.0914069 0.0904344
0 0.963683 0.091985 0.193967
0 0.963351 0.0922559 0.240146
0 0.961596 0.0931324 0.376674
0 0.960943 0.0932649 0.400027
0 0.960523 0.152626 8.29546
0 0.962846 0.0923017 0.241504
0 0.962348 0.0929248 0.346664
0 0.961547 0.0932866 0.407419
0 0.962242 0.0930637 0.370263
0 0.96325 0.0920906 0.205885
0 0.963624 0.0919965 0.191392
0 0.96417 0.0913204 0.0719964
0 0.963928 0.0916114 0.126022
0 0.964116 0.0914164 0.0934092
0 0.964112 0.0914406 0.0934423
0 0.964103 0.091464 0.10071
0 0.961562 0.0932863 0.406517
0 0.960841 0.0933124 0.411674
0 0.960449 0.153589 8.33663
0 0.962861 0.0924165 0.271458
0 0.962349 0.0928747 0.324623
0 0.962191 0.0930031 0.313848
0 0.963217 0.0922515 0.225708
0 0.963949 0.0915987 0.126085
0 0.963643 0.0919832 0.190444
0 0.961562 0.0931149 0.347641
0 0.960989 0.0931485 0.404861
0 0.960667 0.142532 6.20709
0 0.962842 0.0922878 0.239902
0 0.962356 0.0929289 0.348088
0 0.962248 0.093163 0.386976
0 0.963245 0.0920841 0.207434
0 0.96367 0.091938 0.185377
0 0.963974 0.0916479 0.132442
0 0.963914 0.091796 0.159127
0 0.963907 0.0916801 0.143129
0 0.963905 0.0917462 0.153766
0 0.961554 0.0933051 0.408724
0 0.960848 0.0932472 0.39953
0 0.960461 0.152643 8.23221
0 0.962826 0.0923951 0.219743
0 0.962338 0.0928394 0.277008
0 0.963301 0.0921262 0.203756
0 0.963712 0.0918626 0.171025
0 0.962286 0.0929985 0.335142
0 0.961574 0.0932617 0.384949
0 0.960918 0.093316 0.407022
0 0.960622 0.154399 8.29042
0 0.962868 0.0922898 0.241905
0 0.962392 0.0929905 0.356395
0 0.963264 0.0920647 0.205954
0 0.963622 0.0920163 0.200597
0 0.963667 0.0919339 0.184224
0 0.963647 0.0919893 0.193761
0 0.963671 0.0919796 0.194504
0 0.963612 0.0920485 0.203202
0 0.962293 0.093095 0.367994
0 0.961589 0.0932991 0.408008
0 0.960863 0.0932405 0.399854
0 0.960476 0.151955 8.16052
0 0.962884 0.0923061 0.222517
0 0.96333 0.0920325 0.196878
0 0.962417 0.0929242 0.338719
0 0.961606 0.0933109 0.403225
0 0.960887 0.0933358 0.418749
0 0.960538 0.154283 8.41959
0 0.96289 0.0922923 0.234531
0 0.963278 0.0920844 0.200943
0 0.963318 0.0920073 0.194769
0 0.963285 0.0920463 0.1919
0 0.963287 0.0920677 0.191
0 0.962389 0.0929154 0.319006
0 0.96159 0.0932585 0.398281
0 0.960886 0.0932902 0.415917
0 0.96049 0.152911 8.28084
0 0.962927 0.0923383 0.251089
0 0.962306 0.0930772 0.372399
0 0.961625 0.0932567 0.398624
0 0.960882 0.0933239 0.414815
0 0.960504 0.153328 8.33795
0 0.962891 0.0922948 0.197387
0 0.96291 0.0923019 0.226545
0 0.962893 0.0922734 0.183285
0 0.962247 0.0929981 0.302345
0 0.961602 0.0932028 0.38098
0 0.960905 0.0932871 0.419074
0 0.960517 0.153523 8.35929
0 0.96242 0.0929532 0.34689
0 0.961635 0.0932387 0.399105
0 0.960903 0.0933246 0.41344
0 0.960502 0.152806 8.27477
0 0.96229 0.0930803 0.354683
0 0.962363 0.0928461 0.257565
0 0.962383 0.0928975 0.28648
0 0.962249 0.0929716 0.279554
0 0.961591 0.0931348 0.340886
0 0.960959 0.0932298 0.401522
0 0.960582 0.153154 8.29761
0 0.961605 0.0932735 0.404137
0 0.960896 0.0933277 0.422255
0 0.960506 0.15277 8.34458
0 0.9616 0.093253 0.387913
0 0.961622 0.0930898 0.340665
0 0.961586 0.0931524 0.346302
0 0.961021 0.0931023 0.384422
0 0.960693 0.151721 8.00761
0 0.960906 0.0933119 0.424257
0 0.960519 0.153267 8.33643
0 0.960945 0.0932728 0.402401
0 0.961025 0.0931428 0.38508
0 0.960757 0.141921 6.15563
0 0.960567 0.153416 8.33385
0 0.960668 0.153033 8.15425
VECTORS fa_u float
0.00792173 0.00325683 0
0.00740678 0.00425377 0
0.00824982 0.00218174 0
0.00840635 0.00112892 0
0.000424086 0.000133378 0
0.00676044 0.00516497 0
0.00600333 0.00599741 0
0.000394252 0.0001931 0
0.00035808 0.000255781 0
0.00522282 0.00678891 0
0.00426089 0.00734833 0
0.00847119 -1.17107e-05 0
0.00835432 -0.00113957 0
0.000448293 7.23061e-05 0
0.000457954 2.74965e-05 0
0.000414817 0.000100212 0
0.000388283 0.000151726 0
0.000325722 0.00030369 0
0.000306407 0.000348452 0
0.000355093 0.000217665 0
0.000320654 0.000269786 0
0.00329065 0.00792015 0
0.00224678 0.00834124 0
0.000265841 0.000379932 0
0.000217105 0.000388014 0
0.00045048 -3.22588e-05 0
0.00809933 -0.00214834 0
0.000428817 -7.27553e-05 0
0.00778681 -0.00320261 0
0.000441391 3.12117e-05 0
0.000437302 -4.80355e-07 0
0.000382706 5.48801e-05 0
0.00111326 0.00839146 0
0.000338483 0.0001079 0
0.000339181 0.000164886 0
0.000292296 0.000319573 0
0.00027311 0.000350996 0
0.000290812 0.000212509 0
0.000285465 0.000272334 0
0.000161023 0.000407894 0
9.96421e-05 0.000441296 0
0.000232744 0.000366892 0
0.000187189 0.000373596 0
-2.94428e-06 0.00841484 0
0.0004299 -4.4095e-05 0
0.000406301 -0.000128084 0
0.000414955 -9.41953e-05 0
0.00727716 -0.00419343 0
0.000387773 -0.00019037 0
0.00662924 -0.00508465 0
0.000372018 1.00185e-05 0
0.000394401 -1.63946e-05 0
0.000249626 3.90665e-05 0
3.1137e-05 0.000450957 0
-3.1035e-05 0.000442058 0
0.000226185 0.000105241 0
0.000244411 0.000289414 0
0.000229688 0.000328589 0
0.00019551 0.000173943 0
0.00012437 0.000393956 0
6.34643e-05 0.000411346 0
0.000184525 0.00032959 0
0.000145175 0.000359762 0
-0.00110542 0.00824067 0
0.000359344 -5.55872e-05 0
0.000388275 -0.000162357 0
0.000362493 -0.000120002 0
0.000356425 -0.000245729 0
0.000361148 -0.000207289 0
0.00589844 -0.00589506 0
0.000317404 -0.000283776 0
0.00508046 -0.00661229 0
0.000190283 5.5619e-05 0
0.000255364 -1.94713e-05 0
0.000200419 8.2031e-06 0
-1.07683e-05 0.000417527 0
-9.04479e-05 0.000416104 0
-6.54725e-05 0.00041108 0
0.00016795 0.00010766 0
0.000159775 7.22748e-05 0
0.00015794 0.000214973 0
0.000143285 0.00014973 0
7.85902e-05 0.000340883 0
2.18053e-05 0.000361967 0
9.98566e-05 0.000242363 0
-0.00217788 0.00806763 0
0.000233712 -8.0103e-05 0
0.000319497 -0.000159669 0
0.000328574 -0.000257033 0
0.000315722 -0.000209892 0
0.000274343 -0.000313632 0
0.000290552 -0.00029029 0
0.00417733 -0.00721865 0
0.000231442 -0.000342579 0
0.000159276 3.13664e-05 0
0.000196613 -4.49379e-05 0
0.000172176 -1.32317e-05 0
0.000173816 -9.16972e-05 0
0.00321621 -0.00773643 0
-0.000152295 0.000386975 0
-2.923e-05 0.000355244 0
-0.000135459 0.000378225 0
-9.83972e-05 0.000367876 0
0.000113457 5.08449e-05 0
0.000128628 0.000106096 0
0.00010635 0.000179975 0
0.000110732 0.000144918 0
2.52186e-05 0.000256212 0
5.66105e-05 0.000194987 0
-0.00315952 0.0077114 0
0.000199334 -0.000139564 0
0.000267955 -0.000236687 0
0.000245911 -0.000324699 0
0.000248245 -0.000290779 0
0.000185347 -0.000376166 0
0.00020562 -0.000351012 0
0.000135321 -0.000400032 0
0.000101335 2.13615e-05 0
8.46456e-05 5.9751e-05 0
0.000117702 -5.16562e-06 0
0.000153542 -5.35875e-05 0
0.000140135 -0.000136246 0
0.000142969 -0.000102716 0
8.45544e-05 -1.93981e-05 0
0.00217651 -0.00807415 0
-0.000175533 0.000372575 0
-0.000173682 0.000355946 0
-5.30823e-05 0.000274126 0
-0.000151723 0.000350591 0
7.94186e-05 9.86447e-05 0
6.46661e-05 0.000156216 0
-3.08214e-06 0.000205274 0
2.34373e-05 0.000166897 0
-0.000167761 0.000378814 0
-0.004162 0.00738811 0
0.00015436 -0.000188721 0
0.000195833 -0.000299418 0
0.000154073 -0.000377583 0
0.000164507 -0.000337705 0
8.00052e-05 -0.000415005 0
0.000105149 -0.000391163 0
9.92193e-05 -0.000169197 0
4.43242e-05 8.04561e-05 0
5.5882e-05 2.72038e-05 0
9.6874e-05 -6.3254e-05 0
0.000104199 -0.000127485 0
6.9188e-05 -0.000167408 0
5.54896e-05 -5.9505e-05 0
2.73426e-05 -2.07886e-05 0
2.56183e-05 -0.00041964 0
0.00111054 -0.0083321 0
-6.00762e-05 0.000208542 0
-0.00019807 0.000370335 0
-0.000193385 0.000371841 0
-0.000119217 0.000278819 0
-0.000202753 0.000364151 0
2.49731e-05 0.000124478 0
-2.19791e-05 0.000167109 0
2.73817e-06 9.45955e-05 0
-7.66365e-05 0.000198968 0
-0.000263203 0.000302698 0
-0.00513861 0.00665276 0
9.77172e-05 -0.000221504 0
0.000110902 -0.000332929 0
4.81912e-05 -0.000403369 0
7.01451e-05 -0.000365277 0
-2.59093e-06 -0.000410153 0
5.00177e-05 -0.000193368 0
-1.14788e-06 3.37754e-05 0
4.64723e-05 -0.000107101 0
2.57944e-05 -0.00017278 0
1.08861e-05 -7.42078e-05 0
-2.61637e-05 -2.37453e-05 0
-3.10055e-05 -0.000414421 0
7.64292e-06 -0.00831785 0
-0.000118517 0.000206588 0
-0.000181833 0.00035752 0
-0.000172617 0.000287449 0
-0.000233087 0.000331382 0
-0.000183113 0.000322633 0
-2.77695e-05 0.000118204 0
-6.38635e-05 0.000140515 0
-4.48692e-05 7.85183e-05 0
-0.000112433 0.000158058 0
-0.000151597 0.000186249 0
-0.000252879 0.000279168 0
-0.000298785 0.000265987 0
-0.00596501 0.00576483 0
3.7248e-05 -0.000238614 0
2.12628e-05 -0.000346011 0
-6.39087e-05 -0.000402375 0
-3.23687e-05 -0.000368845 0
2.06451e-07 -0.000205885 0
-2.64582e-05 -0.000189555 0
-6.2966e-05 3.49108e-05 0
-1.64451e-05 -0.000124944 0
-3.51352e-05 -8.65493e-05 0
-9.21187e-05 -1.56719e-05 0
-7.59295e-05 -6.61611e-05 0
-0.00011731 -0.000389223 0
-8.73951e-05 -0.00040229 0
-0.00108025 -0.00826634 0
-0.000157403 0.000221165 0
-0.000197853 0.00025736 0
-0.000238723 0.000203745 0
-0.000165073 0.000153932 0
-9.27476e-05 8.5412e-05 0
-0.000149518 0.000117955 0
-0.00029848 0.000178225 0
-0.000293411 0.000278967 0
-0.0049577 0.00373485 0
-2.73901e-05 -0.000238333 0
-7.67772e-05 -0.000339516 0
-0.000137547 -0.000361706 0
-5.76609e-05 -0.000199258 0
-7.21568e-05 -0.000170758 0
-0.000126169 4.02752e-05 0
-0.000158498 -1.41268e-05 0
-8.38447e-05 -0.000115999 0
-0.000134549 -7.44349e-05 0
-0.00016298 -0.000374824 0
-0.00013833 -0.000374819 0
-0.00211993 -0.00795457 0
-0.000172535 0.000136084 0
-0.000258415 9.97755e-05 0
-0.000183139 8.93126e-05 0
-0.00015906 6.28458e-05 0
-0.000329763 5.98014e-05 0
-0.000368929 0.000109896 0
-0.000366269 0.00017752 0
-0.00715803 0.00418255 0
-8.8487e-05 -0.00022514 0
-0.000155054 -0.000320898 0
-0.000102286 -0.000178759 0
-0.000119083 -0.000161426 0
-0.000183406 1.7335e-05 0
-0.000189705 -3.9434e-05 0
-0.000148409 -0.000125723 0
-0.000183434 -8.74251e-05 0
-0.000185656 -0.000317728 0
-0.000182831 -0.000364752 0
-0.000171502 -0.000361207 0
-0.00312857 -0.00753699 0
-0.000215177 5.66826e-05 0
-0.000192467 4.14417e-05 0
-0.000337237 3.16522e-05 0
-0.000400183 4.94378e-05 0
-0.000407104 9.80695e-05 0
-0.00777229 0.00323743 0
-0.000129963 -0.000195229 0
-0.000134955 -0.00014888 0
-0.000194654 -6.69076e-06 0
-0.000183728 -5.54047e-05 0
-0.000158859 -0.000106041 0
-0.000175208 -0.000266584 0
-0.000209028 -0.000339021 0
-0.000210177 -0.000358904 0
-0.00414513 -0.00716869 0
-0.000250238 2.06549e-05 0
-0.000371734 2.22482e-05 0
-0.00039724 3.31968e-05 0
-0.000410731 5.8061e-05 0
-0.00805844 0.0021408 0
-0.000136865 -0.00014223 0
-0.000225664 -1.99661e-05 0
-0.000169131 -7.06269e-05 0
-0.000187145 -0.000237464 0
-0.000223973 -0.000308192 0
-0.000243411 -0.000341137 0
-0.00508987 -0.00663106 0
-0.000346845 5.6015e-06 0
-0.00039885 1.42718e-05 0
-0.000412193 3.20929e-05 0
-0.00820334 0.00108495 0
-0.00035447 -1.22953e-05 0
-0.000203636 -0.000157708 0
-0.000284025 -3.74221e-05 0