# vtk DataFile Version 2.0
CellBP Time: 0.32
ASCII
DATASET UNSTRUCTURED_GRID
POINTS 320 double
-50.000000 -50.000000 0.000000
-50.000000 -43.333376 0.000000
-45.688254 -45.491033 0.000000
-43.333377 -50.000000 0.000000
-50.000000 -36.666743 0.000000
-36.666735 -50.000000 0.000000
-45.080981 -39.969706 0.000000
-40.026989 -44.152156 0.000000
-30.000093 -50.000000 0.000000
-50.000000 -30.000104 0.000000
-44.846952 -33.448849 0.000000
-33.144770 -44.675557 0.000000
-39.868959 -36.786905 0.000000
-35.128460 -39.801146 0.000000
-23.333438 -50.000000 0.000000
-26.539007 -44.666681 0.000000
-50.000000 -23.333453 0.000000
-44.665219 -26.803832 0.000000
-39.364118 -30.225585 0.000000
-29.606057 -39.359238 0.000000
-33.368007 -33.655299 0.000000
-50.000000 -16.666786 0.000000
-16.666765 -50.000000 0.000000
-10.000068 -50.000000 0.000000
-19.964720 -44.588798 0.000000
-23.215749 -39.114646 0.000000
-44.691919 -20.096827 0.000000
-39.367805 -23.528123 0.000000
-34.105993 -26.936943 0.000000
-26.384209 -33.577073 0.000000
-29.155977 -28.926463 0.000000
-50.000000 -10.000100 0.000000
-44.666389 -13.410121 0.000000
-50.000000 -3.333395 0.000000
-3.333351 -50.000000 0.000000
3.333375 -50.000000 0.000000
-13.343473 -44.599122 0.000000
-6.684625 -44.610842 0.000000
-16.693594 -39.153401 0.000000
-20.106904 -33.342692 0.000000
-39.338201 -16.804856 0.000000
-34.018522 -20.274762 0.000000
-28.780669 -23.448936 0.000000
-23.510336 -27.349874 0.000000
-44.635553 -6.705618 0.000000
-39.293069 -10.101925 0.000000
-50.000000 3.333322 0.000000
-44.626905 -0.015786 0.000000
10.000096 -50.000000 0.000000
16.666800 -50.000000 0.000000
-0.016103 -44.618907 0.000000
6.651514 -44.635551 0.000000
-10.044623 -39.222677 0.000000
-3.368226 -39.220544 0.000000
-13.484282 -33.798909 0.000000
-16.709912 -28.271391 0.000000
-33.948122 -13.514390 0.000000
-28.601353 -16.892594 0.000000
-23.291033 -20.312826 0.000000
-18.660087 -23.282102 0.000000
-39.267652 -3.392997 0.000000
-33.904609 -6.796838 0.000000
-50.000000 10.000035 0.000000
-44.606930 6.673156 0.000000
-39.261123 3.325527 0.000000
-50.000000 16.666733 0.000000
23.333482 -50.000000 0.000000
30.000140 -50.000000 0.000000
13.317231 -44.663031 0.000000
19.989353 -44.700149 0.000000
3.307657 -39.245234 0.000000
9.971736 -39.290339 0.000000
-6.735196 -33.791451 0.000000
-0.032398 -33.829772 0.000000
-10.095983 -28.293876 0.000000
-13.122879 -22.898909 0.000000
-28.532988 -10.215337 0.000000
-23.066353 -13.663173 0.000000
-16.976655 -17.208191 0.000000
-33.884998 -0.065482 0.000000
-28.563415 -3.578580 0.000000
-44.564244 13.380136 0.000000
-39.190247 10.014894 0.000000
-33.905980 6.615936 0.000000
-50.000000 23.333413 0.000000
-44.557819 20.137911 0.000000
-50.000000 30.000067 0.000000
36.666781 -50.000000 0.000000
43.333413 -50.000000 0.000000
26.662997 -44.745267 0.000000
33.315119 -44.875856 0.000000
16.631591 -39.357751 0.000000
23.328126 -39.437076 0.000000
6.642752 -33.879584 0.000000
13.290836 -33.965554 0.000000
-3.345474 -28.362820 0.000000
3.356752 -28.451453 0.000000
-6.626036 -22.846571 0.000000
-9.972356 -17.314739 0.000000
-23.186114 -7.015066 0.000000
-17.809887 -10.335021 0.000000
-12.837052 -12.586759 0.000000
-28.607656 3.088411 0.000000
-23.264559 -0.467971 0.000000
-39.039194 16.746453 0.000000
-28.721664 9.926521 0.000000
-33.761915 13.318532 0.000000
-44.521680 26.716634 0.000000
-38.467741 23.892365 0.000000
-44.632064 33.085275 0.000000
-50.000000 36.666707 0.000000
-50.000000 43.333352 0.000000
39.922232 -45.069475 0.000000
45.474525 -45.660317 0.000000
50.000000 -50.000000 0.000000
36.626664 -39.981869 0.000000
30.012185 -39.458539 0.000000
19.904197 -34.092752 0.000000
26.584955 -34.319417 0.000000
9.988877 -28.513822 0.000000
16.611103 -28.659831 0.000000
0.052347 -22.958653 0.000000
6.812200 -23.159050 0.000000
-3.401811 -17.297680 0.000000
-6.874399 -11.045896 0.000000
-17.879144 -3.830845 0.000000
-12.555710 -7.037253 0.000000
-23.311089 6.074157 0.000000
-18.038520 2.457745 0.000000
-23.121802 12.095436 0.000000
-33.572112 19.788899 0.000000
-27.941225 16.885147 0.000000
-33.292622 24.722488 0.000000
-39.473251 30.052449 0.000000
-35.159969 28.137262 0.000000
-39.815657 35.101136 0.000000
-43.991508 39.981898 0.000000
-45.430917 45.684964 0.000000
-50.000000 50.000000 0.000000
44.117103 -39.898814 0.000000
50.000000 -43.333421 0.000000
39.639279 -35.047272 0.000000
33.462789 -33.424443 0.000000
22.984827 -28.817859 0.000000
28.730909 -29.247713 0.000000
13.460765 -23.121948 0.000000
20.054851 -23.438644 0.000000
3.391301 -17.586559 0.000000
10.128057 -17.839898 0.000000
0.138597 -12.037632 0.000000
-2.160060 -6.278390 0.000000
-7.441096 -3.724514 0.000000
-12.653082 -0.800981 0.000000
-18.160625 8.572937 0.000000
-12.969769 5.197259 0.000000
-18.639730 13.752280 0.000000
-21.504906 17.495318 0.000000
-28.940564 23.158069 0.000000
-24.346193 21.554837 0.000000
-30.323244 28.634585 0.000000
-34.253156 33.375414 0.000000
-36.955773 39.577979 0.000000
-39.838600 45.102615 0.000000
-43.333356 50.000000 0.000000
44.585115 -32.971913 0.000000
50.000000 -36.666790 0.000000
39.129247 -29.581684 0.000000
33.500517 -26.367590 0.000000
27.182643 -23.322160 0.000000
23.065513 -18.647803 0.000000
16.988836 -16.979329 0.000000
6.714675 -12.221424 0.000000
12.349725 -12.732176 0.000000
-3.387295 -1.493818 0.000000
3.959340 -7.060874 0.000000
1.030133 -2.124468 0.000000
-7.034161 2.335671 0.000000
-8.463513 7.853823 0.000000
-12.848097 11.934340 0.000000
-15.693262 17.700884 0.000000
-19.287161 22.983233 0.000000
-24.170946 27.355027 0.000000
-27.286242 33.626162 0.000000
-30.406533 39.161314 0.000000
-33.447654 44.738838 0.000000
-36.666719 50.000000 0.000000
44.547715 -26.499692 0.000000
50.000000 -30.000157 0.000000
39.040054 -23.179203 0.000000
33.449905 -19.899980 0.000000
28.040296 -16.574672 0.000000
22.684375 -13.124493 0.000000
17.177031 -9.911629 0.000000
10.961418 -6.657021 0.000000
-1.351167 2.303320 0.000000
6.243024 -1.746629 0.000000
2.914717 1.601971 0.000000
-3.557366 7.216031 0.000000
-6.312064 12.448037 0.000000
-9.629241 17.700009 0.000000
-13.166536 23.111868 0.000000
-17.316414 28.185274 0.000000
-20.570458 33.474530 0.000000
-23.665731 39.064063 0.000000
-26.830623 44.585393 0.000000
-30.000071 50.000000 0.000000
44.528767 -19.930391 0.000000
50.000000 -23.333505 0.000000
39.036493 -16.593999 0.000000
33.576591 -13.281208 0.000000
28.151301 -9.964864 0.000000
22.726591 -6.604473 0.000000
17.264877 -3.337828 0.000000
12.046438 0.188470 0.000000
1.930104 6.307234 0.000000
7.070898 3.860636 0.000000
-0.210393 12.007476 0.000000
-3.272661 17.529356 0.000000
-6.701391 22.978466 0.000000
-10.568119 28.267660 0.000000
-13.723738 33.661685 0.000000
-16.945436 39.080507 0.000000
-20.140222 44.548527 0.000000
-23.333409 50.000000 0.000000
44.536417 -13.303483 0.000000
50.000000 -16.666826 0.000000
39.080090 -9.966554 0.000000
33.646982 -6.640808 0.000000
28.235980 -3.307182 0.000000
22.845644 0.018679 0.000000
17.533652 3.365339 0.000000
12.220029 6.601462 0.000000
6.735511 10.878055 0.000000
3.301461 17.194740 0.000000
-0.081745 22.850399 0.000000
-3.518254 28.312441 0.000000
-6.831074 33.774245 0.000000
-10.137090 39.170595 0.000000
-13.435367 44.563639 0.000000
-16.666728 50.000000 0.000000
44.554523 -6.654577 0.000000
50.000000 -10.000119 0.000000
39.123575 -3.321240 0.000000
33.713556 0.008790 0.000000
28.333258 3.343763 0.000000
23.002534 6.693927 0.000000
17.831537 10.024610 0.000000
12.653687 12.223390 0.000000
9.792422 17.235247 0.000000
6.477270 22.722427 0.000000
3.188432 28.269274 0.000000
-0.115827 33.734623 0.000000
-3.425062 39.168534 0.000000
-6.725180 44.581903 0.000000
-10.000029 50.000000 0.000000
44.575803 0.001963 0.000000
50.000000 -3.333391 0.000000
39.166902 3.331950 0.000000
33.779223 6.655592 0.000000
28.424296 9.995237 0.000000
23.046275 13.416692 0.000000
16.947350 17.021594 0.000000
12.901652 22.671512 0.000000
9.814494 28.232384 0.000000
6.604096 33.718691 0.000000
3.286544 39.164416 0.000000
-0.029824 44.584645 0.000000
-3.333319 50.000000 0.000000
44.586811 6.665432 0.000000
50.000000 3.333341 0.000000
39.198017 9.981899 0.000000
33.843346 13.277186 0.000000
28.541608 16.585057 0.000000
23.386333 20.084432 0.000000
18.531613 23.111724 0.000000
16.393521 28.298792 0.000000
13.328854 33.754803 0.000000
9.986442 39.181970 0.000000
6.665867 44.584443 0.000000
3.333392 50.000000 0.000000
44.608926 13.317717 0.000000
50.000000 10.000060 0.000000
39.251326 16.612366 0.000000
33.931746 19.862880 0.000000
28.612095 22.926028 0.000000
23.279560 27.207419 0.000000
19.901226 33.303208 0.000000
16.573595 39.041018 0.000000
13.268099 44.526842 0.000000
10.000093 50.000000 0.000000
44.632078 19.972736 0.000000
50.000000 16.666757 0.000000
39.298431 23.262005 0.000000
34.043669 26.514644 0.000000
28.965601 28.539446 0.000000
26.202222 33.410095 0.000000
23.066553 38.968851 0.000000
19.888320 44.507090 0.000000
16.666779 50.000000 0.000000
44.639746 26.642692 0.000000
50.000000 23.333432 0.000000
39.293262 29.966545 0.000000
33.212234 33.371169 0.000000
29.411925 39.045793 0.000000
26.422156 44.505947 0.000000
23.333446 50.000000 0.000000
44.774867 33.291630 0.000000
50.000000 30.000089 0.000000
39.738076 36.596190 0.000000
34.830889 39.525476 0.000000
32.833636 44.514172 0.000000
30.000096 50.000000 0.000000
44.978125 39.877723 0.000000
50.000000 36.666734 0.000000
39.734664 43.968890 0.000000
36.666738 50.000000 0.000000
45.621152 45.409650 0.000000
50.000000 43.333373 0.000000
43.333378 50.000000 0.000000
50.000000 50.000000 0.000000
CELLS 578 2312
3 1 0 2
3 0 3 2
3 4 1 6
3 6 1 2
3 3 5 7
3 3 7 2
3 6 2 7
3 9 4 10
3 10 4 6
3 5 8 11
3 7 5 11
3 10 6 12
3 12 6 7
3 7 11 13
3 7 13 12
3 8 14 15
3 11 8 15
3 16 9 17
3 17 9 10
3 17 10 18
3 18 10 12
3 11 15 19
3 13 11 19
3 18 12 20
3 13 19 20
3 20 12 13
3 14 22 24
3 15 14 24
3 15 24 25
3 19 15 25
3 21 16 26
3 26 16 17
3 26 17 27
3 27 17 18
3 27 18 28
3 28 18 20
3 19 25 29
3 19 29 20
3 28 20 30
3 30 20 29
3 31 21 32
3 32 21 26
3 22 23 36
3 24 22 36
3 23 34 37
3 36 23 37
3 24 36 38
3 25 24 38
3 25 38 39
3 29 25 39
3 32 26 40
3 40 26 27
3 40 27 41
3 41 27 28
3 41 28 42
3 42 28 30
3 29 39 43
3 29 43 30
3 42 30 43
3 33 31 44
3 44 31 32
3 44 32 45
3 45 32 40
3 46 33 47
3 47 33 44
3 34 35 50
3 37 34 50
3 35 48 51
3 50 35 51
3 36 37 52
3 38 36 52
3 37 50 53
3 52 37 53
3 38 52 54
3 39 38 54
3 39 54 55
3 43 39 55
3 45 40 56
3 56 40 41
3 56 41 57
3 57 41 42
3 57 42 58
3 58 42 43
3 43 55 59
3 43 59 58
3 47 44 60
3 60 44 45
3 60 45 61
3 61 45 56
3 62 46 63
3 63 46 47
3 63 47 64
3 64 47 60
3 48 49 68
3 51 48 68
3 49 66 69
3 68 49 69
3 50 51 70
3 53 50 70
3 51 68 71
3 70 51 71
3 52 53 72
3 54 52 72
3 53 70 73
3 72 53 73
3 54 72 74
3 55 54 74
3 55 74 75
3 59 55 75
3 61 56 76
3 76 56 57
3 76 57 77
3 77 57 58
3 77 58 78
3 59 75 78
3 78 58 59
3 64 60 79
3 79 60 61
3 79 61 80
3 80 61 76
3 65 62 81
3 81 62 63
3 81 63 82
3 82 63 64
3 82 64 83
3 83 64 79
3 84 65 85
3 85 65 81
3 66 67 89
3 69 66 89
3 67 87 90
3 89 67 90
3 68 69 91
3 71 68 91
3 69 89 92
3 91 69 92
3 70 71 93
3 73 70 93
3 71 91 94
3 93 71 94
3 72 73 95
3 74 72 95
3 73 93 96
3 95 73 96
3 74 95 97
3 75 74 97
3 75 97 98
3 78 75 98
3 80 76 99
3 99 76 77
3 99 77 100
3 100 77 78
3 100 78 101
3 98 101 78
3 83 79 102
3 102 79 80
3 102 80 103
3 103 80 99
3 85 81 104
3 104 81 82
3 105 83 102
3 104 82 106
3 106 82 83
3 106 83 105
3 86 84 107
3 107 84 85
3 107 85 108
3 108 85 104
3 109 86 107
3 110 86 109
3 87 88 112
3 90 87 112
3 112 88 113
3 88 114 113
3 90 112 115
3 89 90 116
3 92 89 116
3 116 90 115
3 91 92 117
3 94 91 117
3 92 116 118
3 117 92 118
3 93 94 119
3 96 93 119
3 94 117 120
3 119 94 120
3 95 96 121
3 97 95 121
3 96 119 122
3 121 96 122
3 97 121 123
3 98 97 123
3 98 123 124
3 98 124 101
3 103 99 125
3 125 99 100
3 125 100 126
3 126 100 101
3 126 101 124
3 105 102 127
3 127 102 103
3 127 103 128
3 128 103 125
3 129 105 127
3 108 104 130
3 130 104 106
3 130 106 131
3 131 106 105
3 131 105 129
3 108 130 132
3 109 107 133
3 133 107 108
3 133 108 134
3 108 132 134
3 135 109 133
3 111 110 136
3 136 110 109
3 136 109 135
3 137 111 136
3 138 111 137
3 112 113 139
3 115 112 139
3 114 140 113
3 140 139 113
3 139 141 115
3 116 115 142
3 118 116 142
3 142 115 141
3 117 118 143
3 120 117 143
3 118 142 144
3 143 118 144
3 119 120 145
3 122 119 145
3 120 143 146
3 145 120 146
3 121 122 147
3 123 121 147
3 122 145 148
3 147 122 148
3 123 147 149
3 124 123 149
3 124 149 150
3 151 126 124
3 124 150 151
3 128 125 152
3 152 125 126
3 152 126 151
3 129 127 153
3 153 127 128
3 128 152 154
3 153 128 154
3 155 129 153
3 131 129 156
3 156 129 155
3 132 130 157
3 130 131 157
3 157 131 158
3 131 156 158
3 132 157 159
3 132 159 134
3 135 133 160
3 160 133 134
3 160 134 159
3 136 135 161
3 135 160 161
3 162 137 136
3 161 162 136
3 163 138 137
3 162 163 137
3 139 164 141
3 140 165 139
3 139 165 164
3 141 164 166
3 141 166 142
3 166 167 142
3 144 142 167
3 167 168 144
3 143 144 168
3 146 143 168
3 168 169 146
3 145 146 170
3 148 145 170
3 170 146 169
3 147 148 171
3 149 147 171
3 148 170 172
3 171 148 172
3 173 151 150
3 149 171 174
3 150 149 174
3 150 174 175
3 150 175 173
3 154 152 176
3 152 151 176
3 176 151 173
3 154 176 177
3 155 153 178
3 177 178 154
3 154 178 153
3 156 155 179
3 155 178 179
3 180 158 156
3 179 180 156
3 181 159 157
3 180 181 158
3 181 157 158
3 182 160 159
3 181 182 159
3 183 161 160
3 182 183 160
3 184 162 161
3 184 161 183
3 185 163 162
3 184 185 162
3 164 186 166
3 165 187 164
3 164 187 186
3 166 186 188
3 166 188 167
3 167 188 189
3 167 189 168
3 168 189 190
3 168 190 169
3 169 190 191
3 169 191 170
3 192 172 170
3 170 191 192
3 192 193 172
3 171 172 193
3 174 171 193
3 194 173 175
3 176 173 194
3 175 174 195
3 193 195 174
3 195 196 175
3 175 196 194
3 197 177 176
3 194 197 176
3 198 178 177
3 197 198 177
3 199 179 178
3 198 199 178
3 200 180 179
3 199 200 179
3 201 181 180
3 200 201 180
3 202 182 181
3 201 202 181
3 203 183 182
3 202 203 182
3 204 184 183
3 203 204 183
3 205 185 184
3 204 205 184
3 186 206 188
3 187 207 186
3 186 207 206
3 188 206 208
3 188 208 189
3 189 208 209
3 189 209 190
3 190 209 210
3 190 210 191
3 191 210 211
3 191 211 192
3 192 211 212
3 192 212 193
3 193 212 213
3 193 213 195
3 214 197 194
3 214 194 196
3 195 213 215
3 195 215 196
3 196 215 214
3 216 198 197
3 214 216 197
3 217 199 198
3 216 217 198
3 218 200 199
3 217 218 199
3 219 201 200
3 218 219 200
3 220 202 201
3 219 220 201
3 221 203 202
3 220 221 202
3 222 204 203
3 221 222 203
3 223 205 204
3 222 223 204
3 206 224 208
3 207 225 206
3 206 225 224
3 208 224 226
3 208 226 209
3 209 226 227
3 209 227 210
3 210 227 228
3 210 228 211
3 211 228 229
3 211 229 212
3 212 229 230
3 212 230 213
3 213 230 231
3 213 231 215
3 232 216 214
3 215 231 232
3 232 214 215
3 233 217 216
3 232 233 216
3 234 218 217
3 233 234 217
3 235 219 218
3 234 235 218
3 236 220 219
3 235 236 219
3 237 221 220
3 236 237 220
3 238 222 221
3 237 238 221
3 239 223 222
3 238 239 222
3 224 240 226
3 225 241 224
3 224 241 240
3 226 240 242
3 226 242 227
3 227 242 243
3 227 243 228
3 228 243 244
3 228 244 229
3 244 245 229
3 229 245 230
3 230 245 246
3 230 246 231
3 231 246 247
3 231 247 232
3 248 233 232
3 248 232 247
3 249 234 233
3 248 249 233
3 250 235 234
3 249 250 234
3 251 236 235
3 250 251 235
3 252 237 236
3 251 252 236
3 253 238 237
3 252 253 237
3 254 239 238
3 253 254 238
3 240 255 242
3 241 256 240
3 240 256 255
3 242 255 257
3 242 257 243
3 243 257 258
3 243 258 244
3 244 258 259
3 244 259 245
3 245 259 260
3 245 260 246
3 246 260 261
3 246 261 247
3 248 247 261
3 262 249 248
3 261 262 248
3 263 250 249
3 262 263 249
3 264 251 250
3 263 264 250
3 265 252 251
3 264 265 251
3 266 253 252
3 265 266 252
3 267 254 253
3 266 267 253
3 255 268 257
3 256 269 255
3 255 269 268
3 257 268 270
3 257 270 258
3 258 270 271
3 258 271 259
3 259 271 272
3 259 272 260
3 260 272 273
3 260 273 261
3 274 262 261
3 261 273 274
3 275 263 262
3 274 275 262
3 276 264 263
3 275 276 263
3 277 265 264
3 276 277 264
3 278 266 265
3 277 278 265
3 279 267 266
3 278 279 266
3 268 280 270
3 269 281 268
3 268 281 280
3 270 280 282
3 270 282 271
3 271 282 283
3 271 283 272
3 283 284 272
3 272 284 273
3 285 275 274
3 273 284 285
3 285 274 273
3 286 276 275
3 285 286 275
3 287 277 276
3 286 287 276
3 288 278 277
3 287 288 277
3 289 279 278
3 288 289 278
3 280 290 282
3 281 291 280
3 280 291 290
3 282 290 292
3 282 292 283
3 283 292 293
3 283 293 284
3 284 293 294
3 284 294 285
3 295 286 285
3 295 285 294
3 296 287 286
3 295 296 286
3 297 288 287
3 296 297 287
3 298 289 288
3 297 298 288
3 290 299 292
3 291 300 290
3 290 300 299
3 292 299 301
3 292 301 293
3 293 301 302
3 293 302 294
3 294 302 295
3 303 296 295
3 303 295 302
3 304 297 296
3 303 304 296
3 305 298 297
3 304 305 297
3 299 306 301
3 300 307 299
3 299 307 306
3 301 306 308
3 301 308 302
3 309 303 302
3 302 308 309
3 310 304 303
3 309 310 303
3 311 305 304
3 310 311 304
3 306 312 308
3 307 313 306
3 306 313 312
3 314 310 309
3 308 312 314
3 314 309 308
3 315 311 310
3 314 315 310
3 312 316 314
3 313 317 312
3 312 317 316
3 318 315 314
3 318 314 316
3 317 319 316
3 319 318 316
CELL_TYPES 578
5
5
5
5
5
5
5
5
5
5
5
5
5
5
5
5
5
5
5
5
5
5
5
5
5
5
5
5
5
5
5
5
5
5
5
5
5
5
5
5
5
5
5
5
5
5
5
5
5
5
5
5
5
5
5
5
5
5
5
5
5
5
5
5
5
5
5
5
5
5
5
5
5
5
5
5
5
5
5
5
5
5
5
5
5
5
5
5
5
5
5
5
5
5
5
5
5
5
5
5
5
5
5
5
5
5
5
5
5
5
5
5
5
5
5
5
5
5
5
5
5
5
5
5
5
5
5
5
5
5
5
5
5
5
5
5
5
5
5
5
5
5
5
5
5
5
5
5
5
5
5
5
5
5
5
5
5
5
5
5
5
5
5
5
5
5
5
5
5
5
5
5
5
5
5
5
5
5
5
5
5
5
5
5
5
5
5
5
5
5
5
5
5
5
5
5
5
5
5
5
5
5
5
5
5
5
5
5
5
5
5
5
5
5
5
5
5
5
5
5
5
5
5
5
5
5
5
5
5
5
5
5
5
5
5
5
5
5
5
5
5
5
5
5
5
5
5
5
5
5
5
5
5
5
5
5
5
5
5
5
5
5
5
5
5
5
5
5
5
5
5
5
5
5
5
5
5
5
5
5
5
5
5
5
5
5
5
5
5
5
5
5
5
5
5
5
5
5
5
5
5
5
5
5
5
5
5
5
5
5
5
5
5
5
5
5
5
5
5
5
5
5
5
5
5
5
5
5
5
5
5
5
5
5
5
5
5
5
5
5
5
5
5
5
5
5
5
5
5
5
5
5
5
5
5
5
5
5
5
5
5
5
5
5
5
5
5
5
5
5
5
5
5
5
5
5
5
5
5
5
5
5
5
5
5
5
5
5
5
5
5
5
5
5
5
5
5
5
5
5
5
5
5
5
5
5
5
5
5
5
5
5
5
5
5
5
5
5
5
5
5
5
5
5
5
5
5
5
5
5
5
5
5
5
5
5
5
5
5
5
5
5
5
5
5
5
5
5
5
5
5
5
5
5
5
5
5
5
5
5
5
5
5
5
5
5
5
5
5
5
5
5
5
5
5
5
5
5
5
5
5
5
5
5
5
5
5
5
5
5
5
5
5
5
5
5
5
5
5
5
5
5
5
5
5
5
5
5
5
5
5
5
5
5
5
5
5
5
5
5
5
5
5
5
5
5
5
5
5
5
5
5
5
5
5
5
5
5
5
5
5
5
5
5
5
5
5
5
5
5
5
5
5
5
5
5
5
5
5
5
5
5
5
5
5
5
5
5
5
5
5
5
5
5
5
5
5
5
POINT_DATA 320
SCALARS theta_e float 1
LOOKUP_TABLE default
0.999999
0.999999
0.999999
0.999999
0.999999
0.999999
0.999999
0.999999
0.999999
0.999999
0.999999
0.999999
0.999999
0.999999
0.999999
0.999999
0.999999
0.999999
0.999999
0.999999
0.999999
1.000000
0.999999
0.999998
0.999999
0.999999
0.999999
0.999999
0.999999
0.999999
0.999999
1.000000
1.000000
1.000000
0.999998
0.999998
0.999998
0.999998
0.999998
0.999998
0.999999
0.999999
0.999998
0.999998
1.000000
1.000000
1.000000
1.000000
0.999998
0.999998
0.999998
0.999998
0.999998
0.999998
0.999997
0.999997
0.999999
0.999998
0.999998
0.999997
1.000000
0.999999
1.000001
1.000000
1.000000
1.000001
0.999998
0.999997
0.999998
0.999998
0.999997
0.999998
0.999997
0.999996
0.999996
0.999998
0.999999
0.999998
1.000000
1.000000
1.000000
1.000001
1.000001
1.000001
1.000001
1.000001
1.000001
0.999997
0.999997
0.999998
0.999997
0.999998
0.999998
0.999996
0.999997
0.999995
0.999995
0.999999
1.000011
1.000000
1.000004
1.000015
1.000001
1.000002
1.000001
1.000002
1.000001
1.000001
1.000001
1.000001
1.000002
1.000002
0.999997
0.999997
0.999997
0.999997
0.999998
0.999997
0.999998
0.999995
0.999996
0.999999
0.999995
1.000023
1.000051
1.000005
1.000022
1.000002
1.000003
1.000003
1.000001
1.000002
1.000001
1.000001
1.000001
1.000002
1.000002
1.000002
1.000002
0.999997
0.999997
0.999998
0.999998
0.999997
0.999998
0.999993
0.999995
1.000017
1.000000
1.000075
1.000066
1.000029
1.000005
1.000002
0.999996
1.000002
1.000003
1.000001
1.000002
1.000001
1.000001
1.000002
1.000002
1.000002
0.999997
0.999997
0.999998
0.999998
0.999997
0.999995
0.999994
1.000043
1.000005
0.999986
1.000066
0.999971
0.999989
0.999974
0.999994
1.000002
1.000003
1.000002
1.000002
1.000002
1.000002
1.000002
0.999998
0.999998
0.999998
0.999998
0.999997
0.999994
0.999999
1.000031
0.999928
0.999993
0.999872
0.999957
0.999981
0.999999
1.000003
1.000002
1.000002
1.000002
1.000002
1.000002
0.999998
0.999998
0.999998
0.999998
0.999996
0.999996
1.000004
1.000014
0.999916
0.999948
0.999974
0.999998
1.000003
1.000003
1.000002
1.000002
1.000002
1.000002
0.999998
0.999998
0.999998
0.999998
0.999997
0.999998
1.000003
1.000000
0.999978
0.999998
1.000004
1.000003
1.000002
1.000002
1.000002
1.000002
0.999999
0.999998
0.999999
0.999998
0.999998
1.000000
1.000004
1.000005
1.000004
1.000005
1.000003
1.000002
1.000001
1.000001
1.000001
0.999999
0.999999
0.999999
0.999999
0.999999
1.000001
1.000004
1.000004
1.000003
1.000002
1.000001
1.000001
1.000001
0.999999
0.999999
0.999999
0.999999
1.000000
1.000001
1.000002
1.000001
1.000001
1.000001
1.000001
1.000001
0.999999
0.999999
0.999999
1.000000
1.000000
1.000000
1.000001
1.000001
1.000001
1.000001
1.000000
0.999999
1.000000
1.000000
1.000000
1.000000
1.000000
1.000001
1.000001
1.000000
1.000000
1.000000
1.000000
1.000000
1.000000
1.000001
1.000000
1.000000
1.000000
1.000000
1.000000
1.000000
1.000000
1.000000
1.000000
1.000000
1.000000
1.000000
1.000000
1.000000
VECTORS fa_u float
0.000000 0.000000 0.000000
0.000000 0.000000 0.000000
0.000000 0.000000 0.000000
0.000000 0.000000 0.000000
0.000000 0.000000 0.000000
0.000000 0.000000 0.000000
0.000000 0.000000 0.000000
0.000000 0.000000 0.000000
0.000000 0.000000 0.000000
0.000000 0.000000 0.000000
0.000000 0.000000 0.000000
0.000000 0.000000 0.000000
0.000000 0.000000 0.000000
0.000000 0.000000 0.000000
0.000000 0.000000 0.000000
0.000000 0.000000 0.000000
0.000000 0.000000 0.000000
0.000000 0.000000 0.000000
0.000000 0.000000 0.000000
0.000000 0.000000 0.000000
0.000000 0.000000 0.000000
0.000000 0.000000 0.000000
0.000000 0.000000 0.000000
0.000000 0.000000 0.000000
0.000000 0.000000 0.000000
0.000000 0.000000 0.000000
0.000000 0.000000 0.000000
0.000000 0.000000 0.000000
0.000000 0.000000 0.000000
0.000000 0.000000 0.000000
0.000000 0.000000 0.000000
0.000000 0.000000 0.000000
0.000000 0.000000 0.000000
0.000000 0.000000 0.000000
0.000000 0.000000 0.000000
0.000000 0.000000 0.000000
0.000000 0.000000 0.000000
0.000000 0.000000 0.000000
0.000000 0.000000 0.000000
0.000000 0.000000 0.000000
0.000000 0.000000 0.000000
0.000000 0.000000 0.000000
0.000000 0.000000 0.000000
0.000000 0.000000 0.000000
0.000000 0.000000 0.000000
0.000000 0.000000 0.000000
0.000000 0.000000 0.000000
0.000000 0.000000 0.000000
0.000000 0.000000 0.000000
0.000000 0.000000 0.000000
0.000000 0.000000 0.000000
0.000000 0.000000 0.000000
0.000000 0.000000 0.000000
0.000000 0.000000 0.000000
0.000000 0.000000 0.000000
0.000000 0.000000 0.000000
0.000000 0.000000 0.000000
0.000000 0.000000 0.000000
0.000000 0.000000 0.000000
0.000000 0.000000 0.000000
0.000000 0.000000 0.000000
0.000000 0.000000 0.000000
0.000000 0.000000 0.000000
0.000000 0.000000 0.000000
0.000000 0.000000 0.000000
0.000000 0.000000 0.000000
0.000000 0.000000 0.000000
0.000000 0.000000 0.000000
0.000000 0.000000 0.000000
0.000000 0.000000 0.000000
0.000000 0.000000 0.000000
0.000000 0.000000 0.000000
0.000000 0.000000 0.000000
0.000000 0.000000 0.000000
0.000000 0.000000 0.000000
0.000000 0.000000 0.000000
0.000000 0.000000 0.000000
0.000000 0.000000 0.000000
0.000000 0.000000 0.000000
0.000000 0.000000 0.000000
0.000000 0.000000 0.000000
0.000000 0.000000 0.000000
0.000000 0.000000 0.000000
0.000000 0.000000 0.000000
0.000000 0.000000 0.000000
0.000000 0.000000 0.000000
0.000000 0.000000 0.000000
0.000000 0.000000 0.000000
0.000000 0.000000 0.000000
0.000000 0.000000 0.000000
0.000000 0.000000 0.000000
0.000000 0.000000 0.000000
0.000000 0.000000 0.000000
0.000000 0.000000 0.000000
0.000000 0.000000 0.000000
0.000000 0.000000 0.000000
0.000000 0.000000 0.000000
0.000000 0.000000 0.000000
0.000000 0.000000 0.000000
0.000000 0.000000 0.000000
0.000000 0.000000 0.000000
0.000000 0.000000 0.000000
0.000000 0.000000 0.000000
0.000000 0.000000 0.000000
0.000000 0.000000 0.000000
0.000000 0.000000 0.000000
0.000000 0.000000 0.000000
0.000000 0.000000 0.000000
0.000000 0.000000 0.000000
0.000000 0.000000 0.000000
0.000000 0.000000 0.000000
0.000000 0.000000 0.000000
0.000000 0.000000 0.000000
0.000000 0.000000 0.000000
0.000000 0.000000 0.000000
0.000000 0.000000 0.000000
0.000000 0.000000 0.000000
0.000000 0.000000 0.000000
0.000000 0.000000 0.000000
0.000000 0.000000 0.000000
0.000000 0.000000 0.000000
0.000000 0.000000 0.000000
0.000000 0.000000 0.000000
0.000000 0.000000 0.000000
0.000000 0.000000 0.000000
0.000000 0.000000 0.000000
0.000000 0.000000 0.000000
0.000000 0.000000 0.000000
0.000000 0.000000 0.000000
0.000000 0.000000 0.000000
0.000000 0.000000 0.000000
0.000000 0.000000 0.000000
0.000000 0.000000 0.000000
0.000000 0.000000 0.000000
0.000000 0.000000 0.000000
0.000000 0.000000 0.000000
0.000000 0.000000 0.000000
0.000000 0.000000 0.000000
0.000000 0.000000 0.000000
0.000000 0.000000 0.000000
0.000000 0.000000 0.000000
0.000000 0.000000 0.000000
0.000000 0.000000 0.000000
0.000000 0.000000 0.000000
0.000000 0.000000 0.000000
0.000000 0.000000 0.000000
0.000000 0.000000 0.000000
0.000000 0.000000 0.000000
0.000000 0.000000 0.000000
0.000000 0.000000 0.000000
0.000000 0.000000 0.000000
0.000000 0.000000 0.000000
0.000000 0.000000 0.000000
0.000000 0.000000 0.000000
0.000000 0.000000 0.000000
0.000000 0.000000 0.000000
0.000000 0.000000 0.000000
0.000000 0.000000 0.000000
0.000000 0.000000 0.000000
0.000000 0.000000 0.000000
0.000000 0.000000 0.000000
0.000000 0.000000 0.000000
0.000000 0.000000 0.000000
0.000000 0.000000 0.000000
0.000000 0.000000 0.000000
0.000000 0.000000 0.000000
0.000000 0.000000 0.000000
0.000000 0.000000 0.000000
0.000000 0.000000 0.000000
0.000000 0.000000 0.000000
0.000000 0.000000 0.000000
0.000000 0.000000 0.000000
0.000000 0.000000 0.000000
0.000000 0.000000 0.000000
0.000000 0.000000 0.000000
0.000000 0.000000 0.000000
0.000000 0.000000 0.000000
0.000000 0.000000 0.000000
0.000000 0.000000 0.000000
0.000000 0.000000 0.000000
0.000000 0.000000 0.000000
0.000000 0.000000 0.000000
0.000000 0.000000 0.000000
0.000000 0.000000 0.000000
0.000000 0.000000 0.000000
0.000000 0.000000 0.000000
0.000000 0.000000 0.000000
0.000000 0.000000 0.000000
0.000000 0.000000 0.000000
0.000000 0.000000 0.000000
0.000000 0.000000 0.000000
0.000000 0.000000 0.000000
0.000000 0.000000 0.000000
0.000000 0.000000 0.000000
0.000000 0.000000 0.000000
0.000000 0.000000 0.000000
0.000000 0.000000 0.000000
0.000000 0.000000 0.000000
0.000000 0.000000 0.000000
0.000000 0.000000 0.000000
0.000000 0.000000 0.000000
0.000000 0.000000 0.000000
0.000000 0.000000 0.000000
0.000000 0.000000 0.000000
0.000000 0.000000 0.000000
0.000000 0.000000 0.000000
0.000000 0.000000 0.000000
0.000000 0.000000 0.000000
0.000000 0.000000 0.000000
0.000000 0.000000 0.000000
0.000000 0.000000 0.000000
0.000000 0.000000 0.000000
0.000000 0.000000 0.000000
0.000000 0.000000 0.000000
0.000000 0.000000 0.000000
0.000000 0.000000 0.000000
0.000000 0.000000 0.000000
0.000000 0.000000 0.000000
0.000000 0.000000 0.000000
0.000000 0.000000 0.000000
0.000000 0.000000 0.000000
0.000000 0.000000 0.000000
0.000000 0.000000 0.000000
0.000000 0.000000 0.000000
0.000000 0.000000 0.000000
0.000000 0.000000 0.000000
0.000000 0.000000 0.000000
0.000000 0.000000 0.000000
0.000000 0.000000 0.000000
0.000000 0.000000 0.000000
0.000000 0.000000 0.000000
0.000000 0.000000 0.000000
0.000000 0.000000 0.000000
0.000000 0.000000 0.000000
0.000000 0.000000 0.000000
0.000000 0.000000 0.000000
0.000000 0.000000 0.000000
0.000000 0.000000 0.000000
0.000000 0.000000 0.000000
0.000000 0.000000 0.000000
0.000000 0.000000 0.000000
0.000000 0.000000 0.000000
0.000000 0.000000 0.000000
0.000000 0.000000 0.000000
0.000000 0.000000 0.000000
0.000000 0.000000 0.000000
0.000000 0.000000 0.000000
0.000000 0.000000 0.000000
0.000000 0.000000 0.000000
0.000000 0.000000 0.000000
0.000000 0.000000 0.000000
0.000000 0.000000 0.000000
0.000000 0.000000 0.000000
0.000000 0.000000 0.000000
0.000000 0.000000 0.000000
0.000000 0.000000 0.000000
0.000000 0.000000 0.000000
0.000000 0.000000 0.000000
0.000000 0.000000 0.000000
0.000000 0.000000 0.000000
0.000000 0.000000 0.000000
0.000000 0.000000 0.000000
0.000000 0.000000 0.000000
0.000000 0.000000 0.000000
0.000000 0.000000 0.000000
0.000000 0.000000 0.000000
0.000000 0.000000 0.000000
0.000000 0.000000 0.000000
0.000000 0.000000 0.000000
0.000000 0.000000 0.000000
0.000000 0.000000 0.000000
0.000000 0.000000 0.000000
0.000000 0.000000 0.000000
0.000000 0.000000 0.000000
0.000000 0.000000 0.000000
0.000000 0.000000 0.000000
0.000000 0.000000 0.000000
0.000000 0.000000 0.000000
0.000000 0.000000 0.000000
0.000000 0.000000 0.000000
0.000000 0.000000 0.000000
0.000000 0.000000 0.000000
0.000000 0.000000 0.000000
0.000000 0.000000 0.000000
0.000000 0.000000 0.000000
0.000000 0.000000 0.000000
0.000000 0.000000 0.000000
0.000000 0.000000 0.000000
0.000000 0.000000 0.000000
0.000000 0.000000 0.000000
0.000000 0.000000 0.000000
0.000000 0.000000 0.000000
0.000000 0.000000 0.000000
0.000000 0.000000 0.000000
0.000000 0.000000 0.000000
0.000000 0.000000 0.000000
0.000000 0.000000 -50.000000
-50.000000 0.000000 -50.000000
-43.333376 0.000000 -45.688254
-45.491033 0.000000 -43.333377
-50.000000 0.000000 -50.000000
-36.666743 0.000000 -36.666735
-50.000000 0.000000 -45.080981
-39.969706 0.000000 -40.026989
-44.152156 0.000000 -30.000093
-50.000000 0.000000 -50.000000
-30.000104 0.000000 -44.846952
-33.448849 0.000000 -33.144770
-44.675557 0.000000 -39.868959
-36.786905 0.000000 -35.128460
-39.801146 0.000000 -23.333438
-50.000000 0.000000 -26.539007
-44.666681 0.000000 -50.000000
-23.333453 0.000000 -44.665219
-26.803832 0.000000 -39.364118
-30.225585 0.000000 -29.606057
-39.359238 0.000000 -33.368007
-33.655299 0.000000 -50.000000
-16.666786 0.000000 -16.666765
-50.000000 0.000000 -10.000068
