# vtk DataFile Version 2.0
CellBP Time: 0.36
ASCII
DATASET UNSTRUCTURED_GRID
POINTS 320 double
-50.000000 -50.000000 0.000000
-50.000000 -43.333386 0.000000
-45.688255 -45.491029 0.000000
-43.333395 -50.000000 0.000000
-50.000000 -36.666753 0.000000
-36.666761 -50.000000 0.000000
-45.080983 -39.969700 0.000000
-40.026993 -44.152152 0.000000
-30.000128 -50.000000 0.000000
-50.000000 -30.000116 0.000000
-44.846954 -33.448840 0.000000
-33.144778 -44.675553 0.000000
-39.868964 -36.786897 0.000000
-35.128467 -39.801138 0.000000
-23.333478 -50.000000 0.000000
-26.539018 -44.666679 0.000000
-50.000000 -23.333464 0.000000
-44.665222 -26.803819 0.000000
-39.364124 -30.225573 0.000000
-29.606067 -39.359232 0.000000
-33.368016 -33.655289 0.000000
-50.000000 -16.666796 0.000000
-16.666803 -50.000000 0.000000
-10.000098 -50.000000 0.000000
-19.964732 -44.588798 0.000000
-23.215763 -39.114643 0.000000
-44.691922 -20.096810 0.000000
-39.367812 -23.528108 0.000000
-34.106002 -26.936929 0.000000
-26.384222 -33.577064 0.000000
-29.155989 -28.926450 0.000000
-50.000000 -10.000107 0.000000
-44.666391 -13.410101 0.000000
-50.000000 -3.333398 0.000000
-3.333366 -50.000000 0.000000
3.333380 -50.000000 0.000000
-13.343486 -44.599124 0.000000
-6.684638 -44.610847 0.000000
-16.693611 -39.153402 0.000000
-20.106922 -33.342688 0.000000
-39.338207 -16.804838 0.000000
-34.018531 -20.274746 0.000000
-28.780682 -23.448920 0.000000
-23.510354 -27.349860 0.000000
-44.635555 -6.705596 0.000000
-39.293074 -10.101904 0.000000
-50.000000 3.333321 0.000000
-44.626906 -0.015764 0.000000
10.000120 -50.000000 0.000000
16.666837 -50.000000 0.000000
-0.016115 -44.618912 0.000000
6.651504 -44.635556 0.000000
-10.044640 -39.222682 0.000000
-3.368241 -39.220552 0.000000
-13.484304 -33.798913 0.000000
-16.709939 -28.271383 0.000000
-33.948131 -13.514371 0.000000
-28.601365 -16.892576 0.000000
-23.291046 -20.312806 0.000000
-18.660107 -23.282080 0.000000
-39.267654 -3.392974 0.000000
-33.904615 -6.796813 0.000000
-50.000000 10.000035 0.000000
-44.606929 6.673176 0.000000
-39.261122 3.325551 0.000000
-50.000000 16.666731 0.000000
23.333524 -50.000000 0.000000
30.000182 -50.000000 0.000000
13.317224 -44.663035 0.000000
19.989349 -44.700153 0.000000
3.307646 -39.245244 0.000000
9.971730 -39.290348 0.000000
-6.735216 -33.791460 0.000000
-0.032415 -33.829787 0.000000
-10.096012 -28.293886 0.000000
-13.122908 -22.898908 0.000000
-28.533005 -10.215311 0.000000
-23.066373 -13.663147 0.000000
-16.976668 -17.208152 0.000000
-33.885000 -0.065454 0.000000
-28.563423 -3.578541 0.000000
-44.564242 13.380152 0.000000
-39.190242 10.014914 0.000000
-33.905975 6.615962 0.000000
-50.000000 23.333408 0.000000
-44.557816 20.137924 0.000000
-50.000000 30.000060 0.000000
36.666813 -50.000000 0.000000
43.333431 -50.000000 0.000000
26.662995 -44.745268 0.000000
33.315119 -44.875854 0.000000
16.631590 -39.357759 0.000000
23.328127 -39.437080 0.000000
6.642742 -33.879599 0.000000
13.290836 -33.965567 0.000000
-3.345495 -28.362833 0.000000
3.356731 -28.451475 0.000000
-6.626074 -22.846591 0.000000
-9.972428 -17.314709 0.000000
-23.186148 -7.015028 0.000000
-17.809904 -10.334995 0.000000
-12.837060 -12.586653 0.000000
-28.607651 3.088443 0.000000
-23.264549 -0.467921 0.000000
-39.039188 16.746469 0.000000
-28.721651 9.926552 0.000000
-33.761905 13.318553 0.000000
-44.521675 26.716645 0.000000
-38.467731 23.892377 0.000000
-44.632059 33.085282 0.000000
-50.000000 36.666698 0.000000
-50.000000 43.333344 0.000000
39.922232 -45.069472 0.000000
45.474521 -45.660311 0.000000
50.000000 -50.000000 0.000000
36.626666 -39.981868 0.000000
30.012187 -39.458540 0.000000
19.904201 -34.092760 0.000000
26.584960 -34.319420 0.000000
9.988872 -28.513845 0.000000
16.611112 -28.659845 0.000000
0.052329 -22.958660 0.000000
6.812181 -23.159089 0.000000
-3.401889 -17.297723 0.000000
-6.874658 -11.046238 0.000000
-17.879170 -3.830883 0.000000
-12.555753 -7.037262 0.000000
-23.311085 6.074220 0.000000
-18.038548 2.457937 0.000000
-23.121758 12.095455 0.000000
-33.572097 19.788912 0.000000
-27.941200 16.885161 0.000000
-33.292607 24.722498 0.000000
-39.473242 30.052457 0.000000
-35.159955 28.137270 0.000000
-39.815649 35.101141 0.000000
-43.991504 39.981903 0.000000
-45.430916 45.684968 0.000000
-50.000000 50.000000 0.000000
44.117102 -39.898808 0.000000
50.000000 -43.333441 0.000000
39.639281 -35.047268 0.000000
33.462794 -33.424442 0.000000
22.984835 -28.817865 0.000000
28.730917 -29.247715 0.000000
13.460772 -23.121978 0.000000
20.054865 -23.438651 0.000000
3.391336 -17.586554 0.000000
10.128097 -17.839942 0.000000
0.137990 -12.038390 0.000000
-2.161058 -6.278319 0.000000
-7.442247 -3.725338 0.000000
-12.654083 -0.800650 0.000000
-18.160512 8.572967 0.000000
-12.969675 5.197442 0.000000
-18.639696 13.752301 0.000000
-21.504876 17.495332 0.000000
-28.940544 23.158078 0.000000
-24.346166 21.554847 0.000000
-30.323228 28.634590 0.000000
-34.253144 33.375418 0.000000
-36.955765 39.577981 0.000000
-39.838596 45.102616 0.000000
-43.333341 50.000000 0.000000
44.585115 -32.971907 0.000000
50.000000 -36.666822 0.000000
39.129252 -29.581678 0.000000
33.500526 -26.367588 0.000000
27.182655 -23.322163 0.000000
23.065528 -18.647807 0.000000
16.988849 -16.979330 0.000000
6.714725 -12.221678 0.000000
12.349676 -12.732170 0.000000
-3.386244 -1.494743 0.000000
3.959342 -7.061898 0.000000
1.031750 -2.125527 0.000000
-7.034199 2.334441 0.000000
-8.464353 7.854219 0.000000
-12.848045 11.934415 0.000000
-15.693227 17.700898 0.000000
-19.287130 22.983239 0.000000
-24.170926 27.355031 0.000000
-27.286228 33.626162 0.000000
-30.406523 39.161314 0.000000
-33.447647 44.738838 0.000000
-36.666697 50.000000 0.000000
44.547718 -26.499683 0.000000
50.000000 -30.000199 0.000000
39.040062 -23.179196 0.000000
33.449920 -19.899973 0.000000
28.040321 -16.574672 0.000000
22.684428 -13.124492 0.000000
17.177095 -9.911675 0.000000
10.961963 -6.656777 0.000000
-1.351213 2.302795 0.000000
6.244293 -1.744361 0.000000
2.915866 1.600286 0.000000
-3.557250 7.215641 0.000000
-6.311918 12.447926 0.000000
-9.629178 17.699910 0.000000
-13.166494 23.111835 0.000000
-17.316390 28.185261 0.000000
-20.570441 33.474523 0.000000
-23.665719 39.064060 0.000000
-26.830614 44.585391 0.000000
-30.000044 50.000000 0.000000
44.528772 -19.930377 0.000000
50.000000 -23.333549 0.000000
39.036504 -16.593986 0.000000
33.576612 -13.281194 0.000000
28.151337 -9.964847 0.000000
22.726643 -6.604443 0.000000
17.264923 -3.337813 0.000000
12.047523 0.189466 0.000000
1.930393 6.305561 0.000000
7.072008 3.860522 0.000000
-0.209824 12.007942 0.000000
-3.272770 17.529263 0.000000
-6.701386 22.978436 0.000000
-10.568108 28.267637 0.000000
-13.723726 33.661672 0.000000
-16.945426 39.080500 0.000000
-20.140214 44.548524 0.000000
-23.333380 50.000000 0.000000
44.536424 -13.303464 0.000000
50.000000 -16.666864 0.000000
39.080102 -9.966534 0.000000
33.647002 -6.640781 0.000000
28.236006 -3.307143 0.000000
22.845664 0.018734 0.000000
17.533742 3.365582 0.000000
12.220113 6.601760 0.000000
6.735674 10.878169 0.000000
3.301484 17.194701 0.000000
-0.081770 22.850326 0.000000
-3.518252 28.312404 0.000000
-6.831070 33.774222 0.000000
-10.137085 39.170584 0.000000
-13.435362 44.563635 0.000000
-16.666702 50.000000 0.000000
44.554529 -6.654553 0.000000
50.000000 -10.000142 0.000000
39.123586 -3.321213 0.000000
33.713569 0.008825 0.000000
28.333270 3.343808 0.000000
23.002558 6.694018 0.000000
17.831462 10.024752 0.000000
12.653496 12.223407 0.000000
9.792348 17.235198 0.000000
6.477231 22.722411 0.000000
3.188403 28.269241 0.000000
-0.115837 33.734601 0.000000
-3.425066 39.168521 0.000000
-6.725182 44.581898 0.000000
-10.000011 50.000000 0.000000
44.575808 0.001990 0.000000
50.000000 -3.333395 0.000000
39.166906 3.331982 0.000000
33.779224 6.655632 0.000000
28.424293 9.995293 0.000000
23.046243 13.416758 0.000000
16.947262 17.021623 0.000000
12.901592 22.671507 0.000000
9.814460 28.232374 0.000000
6.604073 33.718675 0.000000
3.286530 39.164404 0.000000
-0.029833 44.584640 0.000000
-3.333313 50.000000 0.000000
44.586813 6.665459 0.000000
50.000000 3.333355 0.000000
39.198015 9.981931 0.000000
33.843337 13.277225 0.000000
28.541583 16.585100 0.000000
23.386288 20.084463 0.000000
18.531565 23.111736 0.000000
16.393485 28.298792 0.000000
13.328826 33.754797 0.000000
9.986421 39.181963 0.000000
6.665851 44.584438 0.000000
3.333384 50.000000 0.000000
44.608925 13.317742 0.000000
50.000000 10.000085 0.000000
39.251319 16.612394 0.000000
33.931729 19.862909 0.000000
28.612067 22.926053 0.000000
23.279527 27.207432 0.000000
19.901197 33.303210 0.000000
16.573571 39.041016 0.000000
13.268080 44.526839 0.000000
10.000075 50.000000 0.000000
44.632075 19.972757 0.000000
50.000000 16.666785 0.000000
39.298421 23.262027 0.000000
34.043650 26.514663 0.000000
28.965575 28.539462 0.000000
26.202197 33.410104 0.000000
23.066530 38.968854 0.000000
19.888300 44.507090 0.000000
16.666755 50.000000 0.000000
44.639741 26.642709 0.000000
50.000000 23.333456 0.000000
39.293251 29.966560 0.000000
33.212216 33.371180 0.000000
29.411905 39.045799 0.000000
26.422137 44.505949 0.000000
23.333420 50.000000 0.000000
44.774860 33.291642 0.000000
50.000000 30.000105 0.000000
39.738065 36.596199 0.000000
34.830875 39.525483 0.000000
32.833621 44.514175 0.000000
30.000072 50.000000 0.000000
44.978119 39.877731 0.000000
50.000000 36.666741 0.000000
39.734654 43.968894 0.000000
36.666719 50.000000 0.000000
45.621147 45.409654 0.000000
50.000000 43.333371 0.000000
43.333364 50.000000 0.000000
50.000000 50.000000 0.000000
CELLS 578 2312
3 1 0 2
3 0 3 2
3 4 1 6
3 6 1 2
3 3 5 7
3 3 7 2
3 6 2 7
3 9 4 10
3 10 4 6
3 5 8 11
3 7 5 11
3 10 6 12
3 12 6 7
3 7 11 13
3 7 13 12
3 8 14 15
3 11 8 15
3 16 9 17
3 17 9 10
3 17 10 18
3 18 10 12
3 11 15 19
3 13 11 19
3 18 12 20
3 13 19 20
3 20 12 13
3 14 22 24
3 15 14 24
3 15 24 25
3 19 15 25
3 21 16 26
3 26 16 17
3 26 17 27
3 27 17 18
3 27 18 28
3 28 18 20
3 19 25 29
3 19 29 20
3 28 20 30
3 30 20 29
3 31 21 32
3 32 21 26
3 22 23 36
3 24 22 36
3 23 34 37
3 36 23 37
3 24 36 38
3 25 24 38
3 25 38 39
3 29 25 39
3 32 26 40
3 40 26 27
3 40 27 41
3 41 27 28
3 41 28 42
3 42 28 30
3 29 39 43
3 29 43 30
3 42 30 43
3 33 31 44
3 44 31 32
3 44 32 45
3 45 32 40
3 46 33 47
3 47 33 44
3 34 35 50
3 37 34 50
3 35 48 51
3 50 35 51
3 36 37 52
3 38 36 52
3 37 50 53
3 52 37 53
3 38 52 54
3 39 38 54
3 39 54 55
3 43 39 55
3 45 40 56
3 56 40 41
3 56 41 57
3 57 41 42
3 57 42 58
3 58 42 43
3 43 55 59
3 43 59 58
3 47 44 60
3 60 44 45
3 60 45 61
3 61 45 56
3 62 46 63
3 63 46 47
3 63 47 64
3 64 47 60
3 48 49 68
3 51 48 68
3 49 66 69
3 68 49 69
3 50 51 70
3 53 50 70
3 51 68 71
3 70 51 71
3 52 53 72
3 54 52 72
3 53 70 73
3 72 53 73
3 54 72 74
3 55 54 74
3 55 74 75
3 59 55 75
3 61 56 76
3 76 56 57
3 76 57 77
3 77 57 58
3 77 58 78
3 59 75 78
3 78 58 59
3 64 60 79
3 79 60 61
3 79 61 80
3 80 61 76
3 65 62 81
3 81 62 63
3 81 63 82
3 82 63 64
3 82 64 83
3 83 64 79
3 84 65 85
3 85 65 81
3 66 67 89
3 69 66 89
3 67 87 90
3 89 67 90
3 68 69 91
3 71 68 91
3 69 89 92
3 91 69 92
3 70 71 93
3 73 70 93
3 71 91 94
3 93 71 94
3 72 73 95
3 74 72 95
3 73 93 96
3 95 73 96
3 74 95 97
3 75 74 97
3 75 97 98
3 78 75 98
3 80 76 99
3 99 76 77
3 99 77 100
3 100 77 78
3 100 78 101
3 98 101 78
3 83 79 102
3 102 79 80
3 102 80 103
3 103 80 99
3 85 81 104
3 104 81 82
3 105 83 102
3 104 82 106
3 106 82 83
3 106 83 105
3 86 84 107
3 107 84 85
3 107 85 108
3 108 85 104
3 109 86 107
3 110 86 109
3 87 88 112
3 90 87 112
3 112 88 113
3 88 114 113
3 90 112 115
3 89 90 116
3 92 89 116
3 116 90 115
3 91 92 117
3 94 91 117
3 92 116 118
3 117 92 118
3 93 94 119
3 96 93 119
3 94 117 120
3 119 94 120
3 95 96 121
3 97 95 121
3 96 119 122
3 121 96 122
3 97 121 123
3 98 97 123
3 98 123 124
3 98 124 101
3 103 99 125
3 125 99 100
3 125 100 126
3 126 100 101
3 126 101 124
3 105 102 127
3 127 102 103
3 127 103 128
3 128 103 125
3 129 105 127
3 108 104 130
3 130 104 106
3 130 106 131
3 131 106 105
3 131 105 129
3 108 130 132
3 109 107 133
3 133 107 108
3 133 108 134
3 108 132 134
3 135 109 133
3 111 110 136
3 136 110 109
3 136 109 135
3 137 111 136
3 138 111 137
3 112 113 139
3 115 112 139
3 114 140 113
3 140 139 113
3 139 141 115
3 116 115 142
3 118 116 142
3 142 115 141
3 117 118 143
3 120 117 143
3 118 142 144
3 143 118 144
3 119 120 145
3 122 119 145
3 120 143 146
3 145 120 146
3 121 122 147
3 123 121 147
3 122 145 148
3 147 122 148
3 123 147 149
3 124 123 149
3 124 149 150
3 151 126 124
3 124 150 151
3 128 125 152
3 152 125 126
3 152 126 151
3 129 127 153
3 153 127 128
3 128 152 154
3 153 128 154
3 155 129 153
3 131 129 156
3 156 129 155
3 132 130 157
3 130 131 157
3 157 131 158
3 131 156 158
3 132 157 159
3 132 159 134
3 135 133 160
3 160 133 134
3 160 134 159
3 136 135 161
3 135 160 161
3 162 137 136
3 161 162 136
3 163 138 137
3 162 163 137
3 139 164 141
3 140 165 139
3 139 165 164
3 141 164 166
3 141 166 142
3 166 167 142
3 144 142 167
3 167 168 144
3 143 144 168
3 146 143 168
3 168 169 146
3 145 146 170
3 148 145 170
3 170 146 169
3 147 148 171
3 149 147 171
3 148 170 172
3 171 148 172
3 173 151 150
3 149 171 174
3 150 149 174
3 150 174 175
3 150 175 173
3 154 152 176
3 152 151 176
3 176 151 173
3 154 176 177
3 155 153 178
3 177 178 154
3 154 178 153
3 156 155 179
3 155 178 179
3 180 158 156
3 179 180 156
3 181 159 157
3 180 181 158
3 181 157 158
3 182 160 159
3 181 182 159
3 183 161 160
3 182 183 160
3 184 162 161
3 184 161 183
3 185 163 162
3 184 185 162
3 164 186 166
3 165 187 164
3 164 187 186
3 166 186 188
3 166 188 167
3 167 188 189
3 167 189 168
3 168 189 190
3 168 190 169
3 169 190 191
3 169 191 170
3 192 172 170
3 170 191 192
3 192 193 172
3 171 172 193
3 174 171 193
3 194 173 175
3 176 173 194
3 175 174 195
3 193 195 174
3 195 196 175
3 175 196 194
3 197 177 176
3 194 197 176
3 198 178 177
3 197 198 177
3 199 179 178
3 198 199 178
3 200 180 179
3 199 200 179
3 201 181 180
3 200 201 180
3 202 182 181
3 201 202 181
3 203 183 182
3 202 203 182
3 204 184 183
3 203 204 183
3 205 185 184
3 204 205 184
3 186 206 188
3 187 207 186
3 186 207 206
3 188 206 208
3 188 208 189
3 189 208 209
3 189 209 190
3 190 209 210
3 190 210 191
3 191 210 211
3 191 211 192
3 192 211 212
3 192 212 193
3 193 212 213
3 193 213 195
3 214 197 194
3 214 194 196
3 195 213 215
3 195 215 196
3 196 215 214
3 216 198 197
3 214 216 197
3 217 199 198
3 216 217 198
3 218 200 199
3 217 218 199
3 219 201 200
3 218 219 200
3 220 202 201
3 219 220 201
3 221 203 202
3 220 221 202
3 222 204 203
3 221 222 203
3 223 205 204
3 222 223 204
3 206 224 208
3 207 225 206
3 206 225 224
3 208 224 226
3 208 226 209
3 209 226 227
3 209 227 210
3 210 227 228
3 210 228 211
3 211 228 229
3 211 229 212
3 212 229 230
3 212 230 213
3 213 230 231
3 213 231 215
3 232 216 214
3 215 231 232
3 232 214 215
3 233 217 216
3 232 233 216
3 234 218 217
3 233 234 217
3 235 219 218
3 234 235 218
3 236 220 219
3 235 236 219
3 237 221 220
3 236 237 220
3 238 222 221
3 237 238 221
3 239 223 222
3 238 239 222
3 224 240 226
3 225 241 224
3 224 241 240
3 226 240 242
3 226 242 227
3 227 242 243
3 227 243 228
3 228 243 244
3 228 244 229
3 244 245 229
3 229 245 230
3 230 245 246
3 230 246 231
3 231 246 247
3 231 247 232
3 248 233 232
3 248 232 247
3 249 234 233
3 248 249 233
3 250 235 234
3 249 250 234
3 251 236 235
3 250 251 235
3 252 237 236
3 251 252 236
3 253 238 237
3 252 253 237
3 254 239 238
3 253 254 238
3 240 255 242
3 241 256 240
3 240 256 255
3 242 255 257
3 242 257 243
3 243 257 258
3 243 258 244
3 244 258 259
3 244 259 245
3 245 259 260
3 245 260 246
3 246 260 261
3 246 261 247
3 248 247 261
3 262 249 248
3 261 262 248
3 263 250 249
3 262 263 249
3 264 251 250
3 263 264 250
3 265 252 251
3 264 265 251
3 266 253 252
3 265 266 252
3 267 254 253
3 266 267 253
3 255 268 257
3 256 269 255
3 255 269 268
3 257 268 270
3 257 270 258
3 258 270 271
3 258 271 259
3 259 271 272
3 259 272 260
3 260 272 273
3 260 273 261
3 274 262 261
3 261 273 274
3 275 263 262
3 274 275 262
3 276 264 263
3 275 276 263
3 277 265 264
3 276 277 264
3 278 266 265
3 277 278 265
3 279 267 266
3 278 279 266
3 268 280 270
3 269 281 268
3 268 281 280
3 270 280 282
3 270 282 271
3 271 282 283
3 271 283 272
3 283 284 272
3 272 284 273
3 285 275 274
3 273 284 285
3 285 274 273
3 286 276 275
3 285 286 275
3 287 277 276
3 286 287 276
3 288 278 277
3 287 288 277
3 289 279 278
3 288 289 278
3 280 290 282
3 281 291 280
3 280 291 290
3 282 290 292
3 282 292 283
3 283 292 293
3 283 293 284
3 284 293 294
3 284 294 285
3 295 286 285
3 295 285 294
3 296 287 286
3 295 296 286
3 297 288 287
3 296 297 287
3 298 289 288
3 297 298 288
3 290 299 292
3 291 300 290
3 290 300 299
3 292 299 301
3 292 301 293
3 293 301 302
3 293 302 294
3 294 302 295
3 303 296 295
3 303 295 302
3 304 297 296
3 303 304 296
3 305 298 297
3 304 305 297
3 299 306 301
3 300 307 299
3 299 307 306
3 301 306 308
3 301 308 302
3 309 303 302
3 302 308 309
3 310 304 303
3 309 310 303
3 311 305 304
3 310 311 304
3 306 312 308
3 307 313 306
3 306 313 312
3 314 310 309
3 308 312 314
3 314 309 308
3 315 311 310
3 314 315 310
3 312 316 314
3 313 317 312
3 312 317 316
3 318 315 314
3 318 314 316
3 317 319 316
3 319 318 316
CELL_TYPES 578
5
5
5
5
5
5
5
5
5
5
5
5
5
5
5
5
5
5
5
5
5
5
5
5
5
5
5
5
5
5
5
5
5
5
5
5
5
5
5
5
5
5
5
5
5
5
5
5
5
5
5
5
5
5
5
5
5
5
5
5
5
5
5
5
5
5
5
5
5
5
5
5
5
5
5
5
5
5
5
5
5
5
5
5
5
5
5
5
5
5
5
5
5
5
5
5
5
5
5
5
5
5
5
5
5
5
5
5
5
5
5
5
5
5
5
5
5
5
5
5
5
5
5
5
5
5
5
5
5
5
5
5
5
5
5
5
5
5
5
5
5
5
5
5
5
5
5
5
5
5
5
5
5
5
5
5
5
5
5
5
5
5
5
5
5
5
5
5
5
5
5
5
5
5
5
5
5
5
5
5
5
5
5
5
5
5
5
5
5
5
5
5
5
5
5
5
5
5
5
5
5
5
5
5
5
5
5
5
5
5
5
5
5
5
5
5
5
5
5
5
5
5
5
5
5
5
5
5
5
5
5
5
5
5
5
5
5
5
5
5
5
5
5
5
5
5
5
5
5
5
5
5
5
5
5
5
5
5
5
5
5
5
5
5
5
5
5
5
5
5
5
5
5
5
5
5
5
5
5
5
5
5
5
5
5
5
5
5
5
5
5
5
5
5
5
5
5
5
5
5
5
5
5
5
5
5
5
5
5
5
5
5
5
5
5
5
5
5
5
5
5
5
5
5
5
5
5
5
5
5
5
5
5
5
5
5
5
5
5
5
5
5
5
5
5
5
5
5
5
5
5
5
5
5
5
5
5
5
5
5
5
5
5
5
5
5
5
5
5
5
5
5
5
5
5
5
5
5
5
5
5
5
5
5
5
5
5
5
5
5
5
5
5
5
5
5
5
5
5
5
5
5
5
5
5
5
5
5
5
5
5
5
5
5
5
5
5
5
5
5
5
5
5
5
5
5
5
5
5
5
5
5
5
5
5
5
5
5
5
5
5
5
5
5
5
5
5
5
5
5
5
5
5
5
5
5
5
5
5
5
5
5
5
5
5
5
5
5
5
5
5
5
5
5
5
5
5
5
5
5
5
5
5
5
5
5
5
5
5
5
5
5
5
5
5
5
5
5
5
5
5
5
5
5
5
5
5
5
5
5
5
5
5
5
5
5
5
5
5
5
5
5
5
5
5
5
5
5
5
5
5
5
5
5
5
5
5
5
5
5
5
5
5
5
5
5
5
5
5
5
5
5
5
5
5
5
5
5
5
5
5
5
5
5
5
5
5
5
5
5
5
5
5
5
5
5
5
5
POINT_DATA 320
SCALARS theta_e float 1
LOOKUP_TABLE default
0.999999
0.999999
0.999999
0.999999
0.999999
0.999999
0.999999
0.999999
0.999999
0.999999
0.999999
0.999999
0.999999
0.999999
0.999999
0.999999
0.999999
0.999999
0.999999
0.999999
0.999999
1.000000
0.999999
0.999999
0.999999
0.999999
0.999999
0.999999
0.999999
0.999999
0.999999
1.000000
1.000000
1.000000
0.999999
0.999999
0.999999
0.999999
0.999999
0.999999
0.999999
0.999999
0.999999
1.000000
1.000000
1.000000
1.000000
1.000000
0.999999
0.999999
0.999999
0.999999
0.999999
0.999999
0.999999
1.000001
1.000000
1.000000
1.000002
1.000003
1.000000
1.000000
1.000000
1.000000
1.000000
1.000001
0.999998
0.999998
0.999999
0.999999
0.999999
0.999999
1.000000
1.000000
1.000002
1.000006
1.000001
1.000004
1.000008
1.000000
1.000001
1.000000
1.000000
1.000000
1.000001
1.000001
1.000001
0.999998
0.999998
0.999998
0.999998
0.999999
0.999998
0.999999
0.999999
1.000004
1.000004
1.000011
1.000010
1.000004
1.000006
1.000007
1.000000
1.000003
1.000000
1.000000
1.000000
1.000001
1.000001
1.000001
1.000001
1.000001
0.999998
0.999998
0.999998
0.999998
0.999998
0.999999
0.999999
1.000002
1.000000
1.000013
1.000011
1.000013
0.999978
1.000002
0.999981
1.000002
1.000007
1.000000
1.000000
0.999999
1.000001
1.000001
1.000001
1.000001
1.000001
1.000001
1.000001
0.999998
0.999998
0.999998
0.999998
0.999999
0.999999
1.000006
1.000001
1.000023
1.000020
1.000002
0.999984
0.999951
0.999990
1.000009
1.000026
1.000003
0.999999
1.000000
0.999999
1.000001
1.000001
1.000001
1.000001
1.000001
0.999998
0.999998
0.999998
0.999999
0.999999
1.000001
1.000008
1.000032
1.000021
0.999971
1.000038
0.999995
1.000011
1.000061
1.000020
1.000002
0.999999
1.000000
1.000001
1.000001
1.000001
1.000001
0.999998
0.999998
0.999999
0.999999
1.000000
1.000003
1.000011
1.000021
0.999940
0.999971
0.999865
1.000035
1.000033
1.000010
1.000000
0.999999
1.000000
1.000001
1.000001
1.000001
0.999999
0.999999
0.999999
0.999999
1.000000
1.000001
0.999997
0.999955
0.999958
0.999918
1.000029
1.000017
1.000003
0.999999
1.000000
1.000000
1.000001
1.000001
0.999999
0.999999
0.999999
0.999999
1.000000
0.999997
0.999984
0.999970
1.000002
1.000015
1.000005
1.000000
1.000000
1.000000
1.000001
1.000001
0.999999
0.999999
0.999999
0.999999
0.999999
0.999996
0.999990
0.999992
1.000003
1.000002
1.000000
0.999999
1.000000
1.000000
1.000001
0.999999
0.999999
0.999999
0.999999
0.999999
0.999997
0.999997
0.999999
0.999999
0.999999
1.000000
1.000000
1.000000
0.999999
0.999999
0.999999
0.999999
0.999999
0.999999
0.999999
0.999999
0.999999
1.000000
1.000000
1.000000
0.999999
0.999999
0.999999
0.999999
0.999999
0.999999
0.999999
1.000000
1.000000
1.000000
0.999999
0.999999
0.999999
0.999999
0.999999
1.000000
1.000000
1.000000
1.000000
1.000000
0.999999
1.000000
1.000000
1.000000
1.000000
1.000000
1.000000
1.000000
1.000000
1.000000
1.000000
1.000000
1.000000
1.000000
1.000000
1.000000
1.000000
1.000000
1.000000
1.000000
VECTORS fa_u float
0.000000 0.000000 0.000000
0.000000 0.000000 0.000000
0.000000 0.000000 0.000000
0.000000 0.000000 0.000000
0.000000 0.000000 0.000000
0.000000 0.000000 0.000000
0.000000 0.000000 0.000000
0.000000 0.000000 0.000000
0.000000 0.000000 0.000000
0.000000 0.000000 0.000000
0.000000 0.000000 0.000000
0.000000 0.000000 0.000000
0.000000 0.000000 0.000000
0.000000 0.000000 0.000000
0.000000 0.000000 0.000000
0.000000 0.000000 0.000000
0.000000 0.000000 0.000000
0.000000 0.000000 0.000000
0.000000 0.000000 0.000000
0.000000 0.000000 0.000000
0.000000 0.000000 0.000000
0.000000 0.000000 0.000000
0.000000 0.000000 0.000000
0.000000 0.000000 0.000000
0.000000 0.000000 0.000000
0.000000 0.000000 0.000000
0.000000 0.000000 0.000000
0.000000 0.000000 0.000000
0.000000 0.000000 0.000000
0.000000 0.000000 0.000000
0.000000 0.000000 0.000000
0.000000 0.000000 0.000000
0.000000 0.000000 0.000000
0.000000 0.000000 0.000000
0.000000 0.000000 0.000000
0.000000 0.000000 0.000000
0.000000 0.000000 0.000000
0.000000 0.000000 0.000000
0.000000 0.000000 0.000000
0.000000 0.000000 0.000000
0.000000 0.000000 0.000000
0.000000 0.000000 0.000000
0.000000 0.000000 0.000000
0.000000 0.000000 0.000000
0.000000 0.000000 0.000000
0.000000 0.000000 0.000000
0.000000 0.000000 0.000000
0.000000 0.000000 0.000000
0.000000 0.000000 0.000000
0.000000 0.000000 0.000000
0.000000 0.000000 0.000000
0.000000 0.000000 0.000000
0.000000 0.000000 0.000000
0.000000 0.000000 0.000000
0.000000 0.000000 0.000000
0.000000 0.000000 0.000000
0.000000 0.000000 0.000000
0.000000 0.000000 0.000000
0.000000 0.000000 0.000000
0.000000 0.000000 0.000000
0.000000 0.000000 0.000000
0.000000 0.000000 0.000000
0.000000 0.000000 0.000000
0.000000 0.000000 0.000000
0.000000 0.000000 0.000000
0.000000 0.000000 0.000000
0.000000 0.000000 0.000000
0.000000 0.000000 0.000000
0.000000 0.000000 0.000000
0.000000 0.000000 0.000000
0.000000 0.000000 0.000000
0.000000 0.000000 0.000000
0.000000 0.000000 0.000000
0.000000 0.000000 0.000000
0.000000 0.000000 0.000000
0.000000 0.000000 0.000000
0.000000 0.000000 0.000000
0.000000 0.000000 0.000000
0.000000 0.000000 0.000000
0.000000 0.000000 0.000000
0.000000 0.000000 0.000000
0.000000 0.000000 0.000000
0.000000 0.000000 0.000000
0.000000 0.000000 0.000000
0.000000 0.000000 0.000000
0.000000 0.000000 0.000000
0.000000 0.000000 0.000000
0.000000 0.000000 0.000000
0.000000 0.000000 0.000000
0.000000 0.000000 0.000000
0.000000 0.000000 0.000000
0.000000 0.000000 0.000000
0.000000 0.000000 0.000000
0.000000 0.000000 0.000000
0.000000 0.000000 0.000000
0.000000 0.000000 0.000000
0.000000 0.000000 0.000000
0.000000 0.000000 0.000000
0.000000 0.000000 0.000000
0.000000 0.000000 0.000000
0.000000 0.000000 0.000000
0.000000 0.000000 0.000000
0.000000 0.000000 0.000000
0.000000 0.000000 0.000000
0.000000 0.000000 0.000000
0.000000 0.000000 0.000000
0.000000 0.000000 0.000000
0.000000 0.000000 0.000000
0.000000 0.000000 0.000000
0.000000 0.000000 0.000000
0.000000 0.000000 0.000000
0.000000 0.000000 0.000000
0.000000 0.000000 0.000000
0.000000 0.000000 0.000000
0.000000 0.000000 0.000000
0.000000 0.000000 0.000000
0.000000 0.000000 0.000000
0.000000 0.000000 0.000000
0.000000 0.000000 0.000000
0.000000 0.000000 0.000000
0.000000 0.000000 0.000000
0.000000 0.000000 0.000000
0.000000 0.000000 0.000000
0.000000 0.000000 0.000000
0.000000 0.000000 0.000000
0.000000 0.000000 0.000000
0.000000 0.000000 0.000000
0.000000 0.000000 0.000000
0.000000 0.000000 0.000000
0.000000 0.000000 0.000000
0.000000 0.000000 0.000000
0.000000 0.000000 0.000000
0.000000 0.000000 0.000000
0.000000 0.000000 0.000000
0.000000 0.000000 0.000000
0.000000 0.000000 0.000000
0.000000 0.000000 0.000000
0.000000 0.000000 0.000000
0.000000 0.000000 0.000000
0.000000 0.000000 0.000000
0.000000 0.000000 0.000000
0.000000 0.000000 0.000000
0.000000 0.000000 0.000000
0.000000 0.000000 0.000000
0.000000 0.000000 0.000000
0.000000 0.000000 0.000000
0.000000 0.000000 0.000000
0.000000 0.000000 0.000000
0.000000 0.000000 0.000000
0.000000 0.000000 0.000000
0.000000 0.000000 0.000000
0.000000 0.000000 0.000000
0.000000 0.000000 0.000000
0.000000 0.000000 0.000000
0.000000 0.000000 0.000000
0.000000 0.000000 0.000000
0.000000 0.000000 0.000000
0.000000 0.000000 0.000000
0.000000 0.000000 0.000000
0.000000 0.000000 0.000000
0.000000 0.000000 0.000000
0.000000 0.000000 0.000000
0.000000 0.000000 0.000000
0.000000 0.000000 0.000000
0.000000 0.000000 0.000000
0.000000 0.000000 0.000000
0.000000 0.000000 0.000000
0.000000 0.000000 0.000000
0.000000 0.000000 0.000000
0.000000 0.000000 0.000000
0.000000 0.000000 0.000000
0.000000 0.000000 0.000000
0.000000 0.000000 0.000000
0.000000 0.000000 0.000000
0.000000 0.000000 0.000000
0.000000 0.000000 0.000000
0.000000 0.000000 0.000000
0.000000 0.000000 0.000000
0.000000 0.000000 0.000000
0.000000 0.000000 0.000000
0.000000 0.000000 0.000000
0.000000 0.000000 0.000000
0.000000 0.000000 0.000000
0.000000 0.000000 0.000000
0.000000 0.000000 0.000000
0.000000 0.000000 0.000000
0.000000 0.000000 0.000000
0.000000 0.000000 0.000000
0.000000 0.000000 0.000000
0.000000 0.000000 0.000000
0.000000 0.000000 0.000000
0.000000 0.000000 0.000000
0.000000 0.000000 0.000000
0.000000 0.000000 0.000000
0.000000 0.000000 0.000000
0.000000 0.000000 0.000000
0.000000 0.000000 0.000000
0.000000 0.000000 0.000000
0.000000 0.000000 0.000000
0.000000 0.000000 0.000000
0.000000 0.000000 0.000000
0.000000 0.000000 0.000000
0.000000 0.000000 0.000000
0.000000 0.000000 0.000000
0.000000 0.000000 0.000000
0.000000 0.000000 0.000000
0.000000 0.000000 0.000000
0.000000 0.000000 0.000000
0.000000 0.000000 0.000000
0.000000 0.000000 0.000000
0.000000 0.000000 0.000000
0.000000 0.000000 0.000000
0.000000 0.000000 0.000000
0.000000 0.000000 0.000000
0.000000 0.000000 0.000000
0.000000 0.000000 0.000000
0.000000 0.000000 0.000000
0.000000 0.000000 0.000000
0.000000 0.000000 0.000000
0.000000 0.000000 0.000000
0.000000 0.000000 0.000000
0.000000 0.000000 0.000000
0.000000 0.000000 0.000000
0.000000 0.000000 0.000000
0.000000 0.000000 0.000000
0.000000 0.000000 0.000000
0.000000 0.000000 0.000000
0.000000 0.000000 0.000000
0.000000 0.000000 0.000000
0.000000 0.000000 0.000000
0.000000 0.000000 0.000000
0.000000 0.000000 0.000000
0.000000 0.000000 0.000000
0.000000 0.000000 0.000000
0.000000 0.000000 0.000000
0.000000 0.000000 0.000000
0.000000 0.000000 0.000000
0.000000 0.000000 0.000000
0.000000 0.000000 0.000000
0.000000 0.000000 0.000000
0.000000 0.000000 0.000000
0.000000 0.000000 0.000000
0.000000 0.000000 0.000000
0.000000 0.000000 0.000000
0.000000 0.000000 0.000000
0.000000 0.000000 0.000000
0.000000 0.000000 0.000000
0.000000 0.000000 0.000000
0.000000 0.000000 0.000000
0.000000 0.000000 0.000000
0.000000 0.000000 0.000000
0.000000 0.000000 0.000000
0.000000 0.000000 0.000000
0.000000 0.000000 0.000000
0.000000 0.000000 0.000000
0.000000 0.000000 0.000000
0.000000 0.000000 0.000000
0.000000 0.000000 0.000000
0.000000 0.000000 0.000000
0.000000 0.000000 0.000000
0.000000 0.000000 0.000000
0.000000 0.000000 0.000000
0.000000 0.000000 0.000000
0.000000 0.000000 0.000000
0.000000 0.000000 0.000000
0.000000 0.000000 0.000000
0.000000 0.000000 0.000000
0.000000 0.000000 0.000000
0.000000 0.000000 0.000000
0.000000 0.000000 0.000000
0.000000 0.000000 0.000000
0.000000 0.000000 0.000000
0.000000 0.000000 0.000000
0.000000 0.000000 0.000000
0.000000 0.000000 0.000000
0.000000 0.000000 0.000000
0.000000 0.000000 0.000000
0.000000 0.000000 0.000000
0.000000 0.000000 0.000000
0.000000 0.000000 0.000000
0.000000 0.000000 0.000000
0.000000 0.000000 0.000000
0.000000 0.000000 0.000000
0.000000 0.000000 0.000000
0.000000 0.000000 0.000000
0.000000 0.000000 0.000000
0.000000 0.000000 0.000000
0.000000 0.000000 0.000000
0.000000 0.000000 0.000000
0.000000 0.000000 0.000000
0.000000 0.000000 0.000000
0.000000 0.000000 0.000000
0.000000 0.000000 0.000000
0.000000 0.000000 0.000000
0.000000 0.000000 0.000000
0.000000 0.000000 0.000000
0.000000 0.000000 -50.000000
-50.000000 0.000000 -50.000000
-43.333386 0.000000 -45.688255
-45.491029 0.000000 -43.333395
-50.000000 0.000000 -50.000000
-36.666753 0.000000 -36.666761
-50.000000 0.000000 -45.080983
-39.969700 0.000000 -40.026993
-44.152152 0.000000 -30.000128
-50.000000 0.000000 -50.000000
-30.000116 0.000000 -44.846954
-33.448840 0.000000 -33.144778
-44.675553 0.000000 -39.868964
-36.786897 0.000000 -35.128467
-39.801138 0.000000 -23.333478
-50.000000 0.000000 -26.539018
-44.666679 0.000000 -50.000000
-23.333464 0.000000 -44.665222
-26.803819 0.000000 -39.364124
-30.225573 0.000000 -29.606067
-39.359232 0.000000 -33.368016
-33.655289 0.000000 -50.000000
-16.666796 0.000000 -16.666803
-50.000000 0.000000 -10.000098
