# vtk DataFile Version 2.0
CellBP Time: 0.4
ASCII
DATASET UNSTRUCTURED_GRID
POINTS 320 double
-50.000000 -50.000000 0.000000
-50.000000 -43.333380 0.000000
-45.688256 -45.491022 0.000000
-43.333401 -50.000000 0.000000
-50.000000 -36.666748 0.000000
-36.666778 -50.000000 0.000000
-45.080984 -39.969690 0.000000
-40.026995 -44.152144 0.000000
-30.000153 -50.000000 0.000000
-50.000000 -30.000110 0.000000
-44.846955 -33.448825 0.000000
-33.144786 -44.675546 0.000000
-39.868967 -36.786884 0.000000
-35.128473 -39.801127 0.000000
-23.333510 -50.000000 0.000000
-26.539028 -44.666673 0.000000
-50.000000 -23.333455 0.000000
-44.665224 -26.803798 0.000000
-39.364128 -30.225554 0.000000
-29.606075 -39.359221 0.000000
-33.368023 -33.655272 0.000000
-50.000000 -16.666781 0.000000
-16.666836 -50.000000 0.000000
-10.000125 -50.000000 0.000000
-19.964744 -44.588794 0.000000
-23.215774 -39.114632 0.000000
-44.691924 -20.096785 0.000000
-39.367817 -23.528085 0.000000
-34.106009 -26.936907 0.000000
-26.384231 -33.577047 0.000000
-29.155998 -28.926429 0.000000
-50.000000 -10.000087 0.000000
-44.666393 -13.410072 0.000000
-50.000000 -3.333372 0.000000
-3.333383 -50.000000 0.000000
3.333373 -50.000000 0.000000
-13.343499 -44.599121 0.000000
-6.684652 -44.610844 0.000000
-16.693624 -39.153393 0.000000
-20.106935 -33.342672 0.000000
-39.338212 -16.804812 0.000000
-34.018538 -20.274722 0.000000
-28.780689 -23.448894 0.000000
-23.510365 -27.349833 0.000000
-44.635557 -6.705566 0.000000
-39.293078 -10.101874 0.000000
-50.000000 3.333352 0.000000
-44.626908 -0.015733 0.000000
10.000123 -50.000000 0.000000
16.666847 -50.000000 0.000000
-0.016130 -44.618909 0.000000
6.651488 -44.635553 0.000000
-10.044655 -39.222674 0.000000
-3.368256 -39.220544 0.000000
-13.484319 -33.798900 0.000000
-16.709957 -28.271359 0.000000
-33.948140 -13.514343 0.000000
-28.601373 -16.892550 0.000000
-23.291051 -20.312776 0.000000
-18.660117 -23.282043 0.000000
-39.267658 -3.392942 0.000000
-33.904623 -6.796778 0.000000
-50.000000 10.000066 0.000000
-44.606931 6.673206 0.000000
-39.261124 3.325583 0.000000
-50.000000 16.666759 0.000000
23.333536 -50.000000 0.000000
30.000190 -50.000000 0.000000
13.317208 -44.663031 0.000000
19.989334 -44.700147 0.000000
3.307633 -39.245233 0.000000
9.971716 -39.290336 0.000000
-6.735230 -33.791447 0.000000
-0.032429 -33.829773 0.000000
-10.096029 -28.293874 0.000000
-13.122922 -22.898886 0.000000
-28.533021 -10.215279 0.000000
-23.066386 -13.663113 0.000000
-16.976669 -17.208101 0.000000
-33.885006 -0.065417 0.000000
-28.563432 -3.578494 0.000000
-44.564242 13.380179 0.000000
-39.190243 10.014945 0.000000
-33.905976 6.615997 0.000000
-50.000000 23.333432 0.000000
-44.557816 20.137948 0.000000
-50.000000 30.000079 0.000000
36.666815 -50.000000 0.000000
43.333423 -50.000000 0.000000
26.662982 -44.745262 0.000000
33.315109 -44.875846 0.000000
16.631576 -39.357747 0.000000
23.328115 -39.437068 0.000000
6.642728 -33.879580 0.000000
13.290823 -33.965548 0.000000
-3.345504 -28.362812 0.000000
3.356714 -28.451452 0.000000
-6.626094 -22.846584 0.000000
-9.972477 -17.314663 0.000000
-23.186182 -7.014984 0.000000
-17.809910 -10.334965 0.000000
-12.837052 -12.586540 0.000000
-28.607653 3.088482 0.000000
-23.264539 -0.467869 0.000000
-39.039187 16.746495 0.000000
-28.721651 9.926593 0.000000
-33.761905 13.318585 0.000000
-44.521675 26.716665 0.000000
-38.467729 23.892398 0.000000
-44.632057 33.085297 0.000000
-50.000000 36.666711 0.000000
-50.000000 43.333354 0.000000
39.922224 -45.069464 0.000000
45.474515 -45.660304 0.000000
50.000000 -50.000000 0.000000
36.626658 -39.981857 0.000000
30.012175 -39.458528 0.000000
19.904188 -34.092741 0.000000
26.584948 -34.319403 0.000000
9.988858 -28.513820 0.000000
16.611100 -28.659818 0.000000
0.052337 -22.958619 0.000000
6.812164 -23.159060 0.000000
-3.401926 -17.297753 0.000000
-6.874793 -11.046617 0.000000
-17.879192 -3.830914 0.000000
-12.555865 -7.037270 0.000000
-23.311095 6.074288 0.000000
-18.038582 2.458124 0.000000
-23.121731 12.095482 0.000000
-33.572093 19.788936 0.000000
-27.941189 16.885185 0.000000
-33.292604 24.722519 0.000000
-39.473240 30.052475 0.000000
-35.159953 28.137288 0.000000
-39.815648 35.101154 0.000000
-43.991504 39.981913 0.000000
-45.430917 45.684974 0.000000
-50.000000 50.000000 0.000000
44.117096 -39.898795 0.000000
50.000000 -43.333433 0.000000
39.639272 -35.047253 0.000000
33.462784 -33.424426 0.000000
22.984820 -28.817842 0.000000
28.730905 -29.247695 0.000000
13.460754 -23.121952 0.000000
20.054847 -23.438619 0.000000
3.391415 -17.586469 0.000000
10.128113 -17.839888 0.000000
0.137763 -12.039099 0.000000
-2.161539 -6.279502 0.000000
-7.443832 -3.726408 0.000000
-12.655017 -0.800380 0.000000
-18.160415 8.572992 0.000000
-12.969516 5.197528 0.000000
-18.639688 13.752330 0.000000
-21.504868 17.495360 0.000000
-28.940539 23.158099 0.000000
-24.346158 21.554871 0.000000
-30.323225 28.634606 0.000000
-34.253143 33.375430 0.000000
-36.955765 39.577989 0.000000
-39.838597 45.102621 0.000000
-43.333346 50.000000 0.000000
44.585110 -32.971890 0.000000
50.000000 -36.666821 0.000000
39.129245 -29.581659 0.000000
33.500516 -26.367568 0.000000
27.182639 -23.322143 0.000000
23.065500 -18.647786 0.000000
16.988801 -16.979285 0.000000
6.714751 -12.221783 0.000000
12.349524 -12.732058 0.000000
-3.387170 -1.496242 0.000000
3.960285 -7.063188 0.000000
1.032868 -2.128290 0.000000
-7.034447 2.334452 0.000000
-8.465021 7.854874 0.000000
-12.848030 11.934508 0.000000
-15.693218 17.700932 0.000000
-19.287120 22.983262 0.000000
-24.170921 27.355048 0.000000
-27.286227 33.626174 0.000000
-30.406523 39.161322 0.000000
-33.447648 44.738843 0.000000
-36.666697 50.000000 0.000000
44.547715 -26.499662 0.000000
50.000000 -30.000199 0.000000
39.040056 -23.179176 0.000000
33.449914 -19.899954 0.000000
28.040313 -16.574661 0.000000
22.684430 -13.124486 0.000000
17.177047 -9.911762 0.000000
10.962865 -6.657083 0.000000
-1.350301 2.302557 0.000000
6.247557 -1.743637 0.000000
2.914771 1.597937 0.000000
-3.557720 7.216519 0.000000
-6.311797 12.447811 0.000000
-9.629136 17.699842 0.000000
-13.166471 23.111825 0.000000
-17.316382 28.185268 0.000000
-20.570439 33.474530 0.000000
-23.665719 39.064066 0.000000
-26.830616 44.585395 0.000000
-30.000040 50.000000 0.000000
44.528770 -19.930354 0.000000
50.000000 -23.333547 0.000000
39.036502 -16.593965 0.000000
33.576613 -13.281174 0.000000
28.151345 -9.964834 0.000000
22.726661 -6.604452 0.000000
17.264942 -3.337949 0.000000
12.049329 0.189922 0.000000
1.928275 6.306274 0.000000
7.072325 3.861366 0.000000
-0.209552 12.008535 0.000000
-3.272885 17.529200 0.000000
-6.701397 22.978434 0.000000
-10.568114 28.267638 0.000000
-13.723728 33.661676 0.000000
-16.945429 39.080504 0.000000
-20.140218 44.548526 0.000000
-23.333376 50.000000 0.000000
44.536425 -13.303438 0.000000
50.000000 -16.666855 0.000000
39.080105 -9.966509 0.000000
33.647010 -6.640757 0.000000
28.236023 -3.307123 0.000000
22.845700 0.018736 0.000000
17.533977 3.365798 0.000000
12.220135 6.602080 0.000000
6.735613 10.878790 0.000000
3.301468 17.194720 0.000000
-0.081816 22.850291 0.000000
-3.518264 28.312397 0.000000
-6.831080 33.774220 0.000000
-10.137093 39.170585 0.000000
-13.435369 44.563636 0.000000
-16.666701 50.000000 0.000000
44.554533 -6.654525 0.000000
50.000000 -10.000120 0.000000
39.123592 -3.321184 0.000000
33.713583 0.008856 0.000000
28.333296 3.343841 0.000000
23.002636 6.694112 0.000000
17.831445 10.024919 0.000000
12.653356 12.223512 0.000000
9.792270 17.235227 0.000000
6.477181 22.722445 0.000000
3.188363 28.269243 0.000000
-0.115859 33.734604 0.000000
-3.425082 39.168522 0.000000
-6.725194 44.581899 0.000000
-10.000016 50.000000 0.000000
44.575812 0.002020 0.000000
50.000000 -3.333356 0.000000
39.166914 3.332015 0.000000
33.779236 6.655672 0.000000
28.424317 9.995355 0.000000
23.046243 13.416844 0.000000
16.947203 17.021698 0.000000
12.901539 22.671546 0.000000
9.814423 28.232400 0.000000
6.604043 33.718685 0.000000
3.286509 39.164409 0.000000
-0.029850 44.584641 0.000000
-3.333327 50.000000 0.000000
44.586817 6.665490 0.000000
50.000000 3.333410 0.000000
39.198020 9.981968 0.000000
33.843343 13.277273 0.000000
28.541578 16.585158 0.000000
23.386262 20.084520 0.000000
18.531531 23.111785 0.000000
16.393453 28.298823 0.000000
13.328798 33.754817 0.000000
9.986396 39.181972 0.000000
6.665830 44.584441 0.000000
3.333364 50.000000 0.000000
44.608927 13.317774 0.000000
50.000000 10.000149 0.000000
39.251321 16.612431 0.000000
33.931725 19.862951 0.000000
28.612053 22.926098 0.000000
23.279505 27.207470 0.000000
19.901172 33.303234 0.000000
16.573547 39.041030 0.000000
13.268058 44.526844 0.000000
10.000051 50.000000 0.000000
44.632075 19.972788 0.000000
50.000000 16.666850 0.000000
39.298417 23.262060 0.000000
34.043640 26.514696 0.000000
28.965560 28.539494 0.000000
26.202179 33.410129 0.000000
23.066510 38.968869 0.000000
19.888279 44.507096 0.000000
16.666732 50.000000 0.000000
44.639738 26.642736 0.000000
50.000000 23.333514 0.000000
39.293244 29.966586 0.000000
33.212204 33.371203 0.000000
29.411889 39.045814 0.000000
26.422120 44.505956 0.000000
23.333401 50.000000 0.000000
44.774857 33.291663 0.000000
50.000000 30.000151 0.000000
39.738058 36.596217 0.000000
34.830863 39.525497 0.000000
32.833607 44.514182 0.000000
30.000061 50.000000 0.000000
44.978115 39.877745 0.000000
50.000000 36.666773 0.000000
39.734645 43.968902 0.000000
36.666713 50.000000 0.000000
45.621144 45.409661 0.000000
50.000000 43.333393 0.000000
43.333367 50.000000 0.000000
50.000000 50.000000 0.000000
CELLS 578 2312
3 1 0 2
3 0 3 2
3 4 1 6
3 6 1 2
3 3 5 7
3 3 7 2
3 6 2 7
3 9 4 10
3 10 4 6
3 5 8 11
3 7 5 11
3 10 6 12
3 12 6 7
3 7 11 13
3 7 13 12
3 8 14 15
3 11 8 15
3 16 9 17
3 17 9 10
3 17 10 18
3 18 10 12
3 11 15 19
3 13 11 19
3 18 12 20
3 13 19 20
3 20 12 13
3 14 22 24
3 15 14 24
3 15 24 25
3 19 15 25
3 21 16 26
3 26 16 17
3 26 17 27
3 27 17 18
3 27 18 28
3 28 18 20
3 19 25 29
3 19 29 20
3 28 20 30
3 30 20 29
3 31 21 32
3 32 21 26
3 22 23 36
3 24 22 36
3 23 34 37
3 36 23 37
3 24 36 38
3 25 24 38
3 25 38 39
3 29 25 39
3 32 26 40
3 40 26 27
3 40 27 41
3 41 27 28
3 41 28 42
3 42 28 30
3 29 39 43
3 29 43 30
3 42 30 43
3 33 31 44
3 44 31 32
3 44 32 45
3 45 32 40
3 46 33 47
3 47 33 44
3 34 35 50
3 37 34 50
3 35 48 51
3 50 35 51
3 36 37 52
3 38 36 52
3 37 50 53
3 52 37 53
3 38 52 54
3 39 38 54
3 39 54 55
3 43 39 55
3 45 40 56
3 56 40 41
3 56 41 57
3 57 41 42
3 57 42 58
3 58 42 43
3 43 55 59
3 43 59 58
3 47 44 60
3 60 44 45
3 60 45 61
3 61 45 56
3 62 46 63
3 63 46 47
3 63 47 64
3 64 47 60
3 48 49 68
3 51 48 68
3 49 66 69
3 68 49 69
3 50 51 70
3 53 50 70
3 51 68 71
3 70 51 71
3 52 53 72
3 54 52 72
3 53 70 73
3 72 53 73
3 54 72 74
3 55 54 74
3 55 74 75
3 59 55 75
3 61 56 76
3 76 56 57
3 76 57 77
3 77 57 58
3 77 58 78
3 59 75 78
3 78 58 59
3 64 60 79
3 79 60 61
3 79 61 80
3 80 61 76
3 65 62 81
3 81 62 63
3 81 63 82
3 82 63 64
3 82 64 83
3 83 64 79
3 84 65 85
3 85 65 81
3 66 67 89
3 69 66 89
3 67 87 90
3 89 67 90
3 68 69 91
3 71 68 91
3 69 89 92
3 91 69 92
3 70 71 93
3 73 70 93
3 71 91 94
3 93 71 94
3 72 73 95
3 74 72 95
3 73 93 96
3 95 73 96
3 74 95 97
3 75 74 97
3 75 97 98
3 78 75 98
3 80 76 99
3 99 76 77
3 99 77 100
3 100 77 78
3 100 78 101
3 98 101 78
3 83 79 102
3 102 79 80
3 102 80 103
3 103 80 99
3 85 81 104
3 104 81 82
3 105 83 102
3 104 82 106
3 106 82 83
3 106 83 105
3 86 84 107
3 107 84 85
3 107 85 108
3 108 85 104
3 109 86 107
3 110 86 109
3 87 88 112
3 90 87 112
3 112 88 113
3 88 114 113
3 90 112 115
3 89 90 116
3 92 89 116
3 116 90 115
3 91 92 117
3 94 91 117
3 92 116 118
3 117 92 118
3 93 94 119
3 96 93 119
3 94 117 120
3 119 94 120
3 95 96 121
3 97 95 121
3 96 119 122
3 121 96 122
3 97 121 123
3 98 97 123
3 98 123 124
3 98 124 101
3 103 99 125
3 125 99 100
3 125 100 126
3 126 100 101
3 126 101 124
3 105 102 127
3 127 102 103
3 127 103 128
3 128 103 125
3 129 105 127
3 108 104 130
3 130 104 106
3 130 106 131
3 131 106 105
3 131 105 129
3 108 130 132
3 109 107 133
3 133 107 108
3 133 108 134
3 108 132 134
3 135 109 133
3 111 110 136
3 136 110 109
3 136 109 135
3 137 111 136
3 138 111 137
3 112 113 139
3 115 112 139
3 114 140 113
3 140 139 113
3 139 141 115
3 116 115 142
3 118 116 142
3 142 115 141
3 117 118 143
3 120 117 143
3 118 142 144
3 143 118 144
3 119 120 145
3 122 119 145
3 120 143 146
3 145 120 146
3 121 122 147
3 123 121 147
3 122 145 148
3 147 122 148
3 123 147 149
3 124 123 149
3 124 149 150
3 151 126 124
3 124 150 151
3 128 125 152
3 152 125 126
3 152 126 151
3 129 127 153
3 153 127 128
3 128 152 154
3 153 128 154
3 155 129 153
3 131 129 156
3 156 129 155
3 132 130 157
3 130 131 157
3 157 131 158
3 131 156 158
3 132 157 159
3 132 159 134
3 135 133 160
3 160 133 134
3 160 134 159
3 136 135 161
3 135 160 161
3 162 137 136
3 161 162 136
3 163 138 137
3 162 163 137
3 139 164 141
3 140 165 139
3 139 165 164
3 141 164 166
3 141 166 142
3 166 167 142
3 144 142 167
3 167 168 144
3 143 144 168
3 146 143 168
3 168 169 146
3 145 146 170
3 148 145 170
3 170 146 169
3 147 148 171
3 149 147 171
3 148 170 172
3 171 148 172
3 173 151 150
3 149 171 174
3 150 149 174
3 150 174 175
3 150 175 173
3 154 152 176
3 152 151 176
3 176 151 173
3 154 176 177
3 155 153 178
3 177 178 154
3 154 178 153
3 156 155 179
3 155 178 179
3 180 158 156
3 179 180 156
3 181 159 157
3 180 181 158
3 181 157 158
3 182 160 159
3 181 182 159
3 183 161 160
3 182 183 160
3 184 162 161
3 184 161 183
3 185 163 162
3 184 185 162
3 164 186 166
3 165 187 164
3 164 187 186
3 166 186 188
3 166 188 167
3 167 188 189
3 167 189 168
3 168 189 190
3 168 190 169
3 169 190 191
3 169 191 170
3 192 172 170
3 170 191 192
3 192 193 172
3 171 172 193
3 174 171 193
3 194 173 175
3 176 173 194
3 175 174 195
3 193 195 174
3 195 196 175
3 175 196 194
3 197 177 176
3 194 197 176
3 198 178 177
3 197 198 177
3 199 179 178
3 198 199 178
3 200 180 179
3 199 200 179
3 201 181 180
3 200 201 180
3 202 182 181
3 201 202 181
3 203 183 182
3 202 203 182
3 204 184 183
3 203 204 183
3 205 185 184
3 204 205 184
3 186 206 188
3 187 207 186
3 186 207 206
3 188 206 208
3 188 208 189
3 189 208 209
3 189 209 190
3 190 209 210
3 190 210 191
3 191 210 211
3 191 211 192
3 192 211 212
3 192 212 193
3 193 212 213
3 193 213 195
3 214 197 194
3 214 194 196
3 195 213 215
3 195 215 196
3 196 215 214
3 216 198 197
3 214 216 197
3 217 199 198
3 216 217 198
3 218 200 199
3 217 218 199
3 219 201 200
3 218 219 200
3 220 202 201
3 219 220 201
3 221 203 202
3 220 221 202
3 222 204 203
3 221 222 203
3 223 205 204
3 222 223 204
3 206 224 208
3 207 225 206
3 206 225 224
3 208 224 226
3 208 226 209
3 209 226 227
3 209 227 210
3 210 227 228
3 210 228 211
3 211 228 229
3 211 229 212
3 212 229 230
3 212 230 213
3 213 230 231
3 213 231 215
3 232 216 214
3 215 231 232
3 232 214 215
3 233 217 216
3 232 233 216
3 234 218 217
3 233 234 217
3 235 219 218
3 234 235 218
3 236 220 219
3 235 236 219
3 237 221 220
3 236 237 220
3 238 222 221
3 237 238 221
3 239 223 222
3 238 239 222
3 224 240 226
3 225 241 224
3 224 241 240
3 226 240 242
3 226 242 227
3 227 242 243
3 227 243 228
3 228 243 244
3 228 244 229
3 244 245 229
3 229 245 230
3 230 245 246
3 230 246 231
3 231 246 247
3 231 247 232
3 248 233 232
3 248 232 247
3 249 234 233
3 248 249 233
3 250 235 234
3 249 250 234
3 251 236 235
3 250 251 235
3 252 237 236
3 251 252 236
3 253 238 237
3 252 253 237
3 254 239 238
3 253 254 238
3 240 255 242
3 241 256 240
3 240 256 255
3 242 255 257
3 242 257 243
3 243 257 258
3 243 258 244
3 244 258 259
3 244 259 245
3 245 259 260
3 245 260 246
3 246 260 261
3 246 261 247
3 248 247 261
3 262 249 248
3 261 262 248
3 263 250 249
3 262 263 249
3 264 251 250
3 263 264 250
3 265 252 251
3 264 265 251
3 266 253 252
3 265 266 252
3 267 254 253
3 266 267 253
3 255 268 257
3 256 269 255
3 255 269 268
3 257 268 270
3 257 270 258
3 258 270 271
3 258 271 259
3 259 271 272
3 259 272 260
3 260 272 273
3 260 273 261
3 274 262 261
3 261 273 274
3 275 263 262
3 274 275 262
3 276 264 263
3 275 276 263
3 277 265 264
3 276 277 264
3 278 266 265
3 277 278 265
3 279 267 266
3 278 279 266
3 268 280 270
3 269 281 268
3 268 281 280
3 270 280 282
3 270 282 271
3 271 282 283
3 271 283 272
3 283 284 272
3 272 284 273
3 285 275 274
3 273 284 285
3 285 274 273
3 286 276 275
3 285 286 275
3 287 277 276
3 286 287 276
3 288 278 277
3 287 288 277
3 289 279 278
3 288 289 278
3 280 290 282
3 281 291 280
3 280 291 290
3 282 290 292
3 282 292 283
3 283 292 293
3 283 293 284
3 284 293 294
3 284 294 285
3 295 286 285
3 295 285 294
3 296 287 286
3 295 296 286
3 297 288 287
3 296 297 287
3 298 289 288
3 297 298 288
3 290 299 292
3 291 300 290
3 290 300 299
3 292 299 301
3 292 301 293
3 293 301 302
3 293 302 294
3 294 302 295
3 303 296 295
3 303 295 302
3 304 297 296
3 303 304 296
3 305 298 297
3 304 305 297
3 299 306 301
3 300 307 299
3 299 307 306
3 301 306 308
3 301 308 302
3 309 303 302
3 302 308 309
3 310 304 303
3 309 310 303
3 311 305 304
3 310 311 304
3 306 312 308
3 307 313 306
3 306 313 312
3 314 310 309
3 308 312 314
3 314 309 308
3 315 311 310
3 314 315 310
3 312 316 314
3 313 317 312
3 312 317 316
3 318 315 314
3 318 314 316
3 317 319 316
3 319 318 316
CELL_TYPES 578
5
5
5
5
5
5
5
5
5
5
5
5
5
5
5
5
5
5
5
5
5
5
5
5
5
5
5
5
5
5
5
5
5
5
5
5
5
5
5
5
5
5
5
5
5
5
5
5
5
5
5
5
5
5
5
5
5
5
5
5
5
5
5
5
5
5
5
5
5
5
5
5
5
5
5
5
5
5
5
5
5
5
5
5
5
5
5
5
5
5
5
5
5
5
5
5
5
5
5
5
5
5
5
5
5
5
5
5
5
5
5
5
5
5
5
5
5
5
5
5
5
5
5
5
5
5
5
5
5
5
5
5
5
5
5
5
5
5
5
5
5
5
5
5
5
5
5
5
5
5
5
5
5
5
5
5
5
5
5
5
5
5
5
5
5
5
5
5
5
5
5
5
5
5
5
5
5
5
5
5
5
5
5
5
5
5
5
5
5
5
5
5
5
5
5
5
5
5
5
5
5
5
5
5
5
5
5
5
5
5
5
5
5
5
5
5
5
5
5
5
5
5
5
5
5
5
5
5
5
5
5
5
5
5
5
5
5
5
5
5
5
5
5
5
5
5
5
5
5
5
5
5
5
5
5
5
5
5
5
5
5
5
5
5
5
5
5
5
5
5
5
5
5
5
5
5
5
5
5
5
5
5
5
5
5
5
5
5
5
5
5
5
5
5
5
5
5
5
5
5
5
5
5
5
5
5
5
5
5
5
5
5
5
5
5
5
5
5
5
5
5
5
5
5
5
5
5
5
5
5
5
5
5
5
5
5
5
5
5
5
5
5
5
5
5
5
5
5
5
5
5
5
5
5
5
5
5
5
5
5
5
5
5
5
5
5
5
5
5
5
5
5
5
5
5
5
5
5
5
5
5
5
5
5
5
5
5
5
5
5
5
5
5
5
5
5
5
5
5
5
5
5
5
5
5
5
5
5
5
5
5
5
5
5
5
5
5
5
5
5
5
5
5
5
5
5
5
5
5
5
5
5
5
5
5
5
5
5
5
5
5
5
5
5
5
5
5
5
5
5
5
5
5
5
5
5
5
5
5
5
5
5
5
5
5
5
5
5
5
5
5
5
5
5
5
5
5
5
5
5
5
5
5
5
5
5
5
5
5
5
5
5
5
5
5
5
5
5
5
5
5
5
5
5
5
5
5
5
5
5
5
5
5
5
5
5
5
5
5
5
5
5
5
5
5
5
5
5
5
5
5
5
5
5
5
5
5
5
5
5
5
5
5
5
5
5
5
5
5
5
5
5
5
5
5
5
5
5
5
5
5
5
5
5
5
5
5
5
5
5
5
5
5
5
5
5
5
5
POINT_DATA 320
SCALARS theta_e float 1
LOOKUP_TABLE default
1.000000
1.000000
1.000000
1.000000
1.000000
1.000000
1.000000
1.000000
1.000000
1.000000
1.000000
1.000000
1.000000
1.000000
1.000000
1.000000
1.000000
1.000000
1.000000
1.000000
1.000000
1.000000
1.000000
1.000000
1.000000
1.000000
1.000000
1.000000
1.000000
1.000000
1.000001
1.000000
1.000000
1.000000
1.000000
1.000000
1.000000
1.000000
1.000000
1.000001
1.000000
1.000001
1.000002
1.000002
1.000000
1.000000
1.000000
1.000000
1.000000
1.000000
1.000000
1.000000
1.000000
1.000000
1.000001
1.000002
1.000002
1.000003
1.000004
1.000004
1.000000
1.000002
1.000000
1.000000
1.000000
1.000000
1.000000
1.000000
1.000000
1.000000
1.000000
1.000000
1.000001
1.000001
1.000002
1.000004
1.000004
1.000005
1.000003
1.000002
1.000005
1.000000
1.000000
1.000001
1.000000
1.000000
1.000000
1.000000
1.000000
1.000000
1.000000
1.000000
1.000000
1.000000
1.000000
1.000002
1.000001
1.000003
0.999997
1.000004
0.999995
0.999986
1.000004
1.000004
1.000000
1.000003
1.000000
1.000000
0.999999
1.000000
1.000000
1.000000
1.000000
1.000000
1.000000
1.000000
1.000000
1.000000
1.000000
1.000000
1.000000
1.000003
1.000001
1.000000
0.999974
0.999987
0.999946
1.000006
0.999997
1.000005
0.999999
1.000001
0.999999
1.000000
0.999999
1.000000
1.000000
1.000000
1.000000
1.000000
1.000000
1.000000
1.000000
1.000000
1.000000
0.999999
0.999999
1.000005
1.000000
1.000019
1.000013
0.999929
0.999955
1.000010
1.000004
1.000009
1.000002
0.999999
0.999999
0.999999
0.999999
1.000000
1.000000
1.000000
1.000000
1.000000
1.000000
1.000000
0.999999
0.999998
0.999996
1.000011
0.999995
0.999982
1.000029
1.000031
0.999986
1.000038
1.000018
1.000007
1.000000
0.999998
0.999999
0.999999
1.000000
1.000000
1.000000
1.000000
0.999999
0.999999
0.999999
0.999996
0.999991
0.999994
1.000000
1.000003
1.000007
1.000035
1.000033
1.000013
1.000001
0.999998
0.999998
0.999999
0.999999
1.000000
0.999999
0.999999
0.999999
0.999999
0.999998
0.999993
0.999988
0.999986
1.000024
1.000017
1.000029
1.000015
1.000003
0.999998
0.999998
0.999999
0.999999
0.999999
0.999999
0.999999
0.999999
0.999999
0.999997
0.999993
0.999992
1.000007
1.000028
1.000014
1.000002
0.999997
0.999997
0.999998
0.999999
0.999999
0.999999
0.999999
0.999999
0.999998
0.999997
0.999995
0.999999
1.000009
1.000007
1.000000
0.999997
0.999997
0.999998
0.999999
0.999999
0.999999
0.999999
0.999999
0.999998
0.999997
0.999997
0.999999
0.999997
0.999996
0.999997
0.999998
0.999999
0.999999
0.999999
0.999999
0.999999
0.999998
0.999998
0.999997
0.999996
0.999997
0.999997
0.999998
0.999999
0.999999
0.999999
0.999999
0.999999
0.999998
0.999998
0.999997
0.999998
0.999998
0.999999
0.999999
0.999999
0.999999
0.999999
0.999999
0.999998
0.999998
0.999999
0.999999
0.999999
0.999999
0.999999
0.999999
0.999999
0.999999
0.999999
0.999999
0.999999
0.999999
0.999999
0.999999
0.999999
0.999999
0.999999
0.999999
0.999999
0.999999
0.999999
0.999999
0.999999
0.999999
VECTORS fa_u float
0.000000 0.000000 0.000000
0.000000 0.000000 0.000000
0.000000 0.000000 0.000000
0.000000 0.000000 0.000000
0.000000 0.000000 0.000000
0.000000 0.000000 0.000000
0.000000 0.000000 0.000000
0.000000 0.000000 0.000000
0.000000 0.000000 0.000000
0.000000 0.000000 0.000000
0.000000 0.000000 0.000000
0.000000 0.000000 0.000000
0.000000 0.000000 0.000000
0.000000 0.000000 0.000000
0.000000 0.000000 0.000000
0.000000 0.000000 0.000000
0.000000 0.000000 0.000000
0.000000 0.000000 0.000000
0.000000 0.000000 0.000000
0.000000 0.000000 0.000000
0.000000 0.000000 0.000000
0.000000 0.000000 0.000000
0.000000 0.000000 0.000000
0.000000 0.000000 0.000000
0.000000 0.000000 0.000000
0.000000 0.000000 0.000000
0.000000 0.000000 0.000000
0.000000 0.000000 0.000000
0.000000 0.000000 0.000000
0.000000 0.000000 0.000000
0.000000 0.000000 0.000000
0.000000 0.000000 0.000000
0.000000 0.000000 0.000000
0.000000 0.000000 0.000000
0.000000 0.000000 0.000000
0.000000 0.000000 0.000000
0.000000 0.000000 0.000000
0.000000 0.000000 0.000000
0.000000 0.000000 0.000000
0.000000 0.000000 0.000000
0.000000 0.000000 0.000000
0.000000 0.000000 0.000000
0.000000 0.000000 0.000000
0.000000 0.000000 0.000000
0.000000 0.000000 0.000000
0.000000 0.000000 0.000000
0.000000 0.000000 0.000000
0.000000 0.000000 0.000000
0.000000 0.000000 0.000000
0.000000 0.000000 0.000000
0.000000 0.000000 0.000000
0.000000 0.000000 0.000000
0.000000 0.000000 0.000000
0.000000 0.000000 0.000000
0.000000 0.000000 0.000000
0.000000 0.000000 0.000000
0.000000 0.000000 0.000000
0.000000 0.000000 0.000000
0.000000 0.000000 0.000000
0.000000 0.000000 0.000000
0.000000 0.000000 0.000000
0.000000 0.000000 0.000000
0.000000 0.000000 0.000000
0.000000 0.000000 0.000000
0.000000 0.000000 0.000000
0.000000 0.000000 0.000000
0.000000 0.000000 0.000000
0.000000 0.000000 0.000000
0.000000 0.000000 0.000000
0.000000 0.000000 0.000000
0.000000 0.000000 0.000000
0.000000 0.000000 0.000000
0.000000 0.000000 0.000000
0.000000 0.000000 0.000000
0.000000 0.000000 0.000000
0.000000 0.000000 0.000000
0.000000 0.000000 0.000000
0.000000 0.000000 0.000000
0.000000 0.000000 0.000000
0.000000 0.000000 0.000000
0.000000 0.000000 0.000000
0.000000 0.000000 0.000000
0.000000 0.000000 0.000000
0.000000 0.000000 0.000000
0.000000 0.000000 0.000000
0.000000 0.000000 0.000000
0.000000 0.000000 0.000000
0.000000 0.000000 0.000000
0.000000 0.000000 0.000000
0.000000 0.000000 0.000000
0.000000 0.000000 0.000000
0.000000 0.000000 0.000000
0.000000 0.000000 0.000000
0.000000 0.000000 0.000000
0.000000 0.000000 0.000000
0.000000 0.000000 0.000000
0.000000 0.000000 0.000000
0.000000 0.000000 0.000000
0.000000 0.000000 0.000000
0.000000 0.000000 0.000000
0.000000 0.000000 0.000000
0.000000 0.000000 0.000000
0.000000 0.000000 0.000000
0.000000 0.000000 0.000000
0.000000 0.000000 0.000000
0.000000 0.000000 0.000000
0.000000 0.000000 0.000000
0.000000 0.000000 0.000000
0.000000 0.000000 0.000000
0.000000 0.000000 0.000000
0.000000 0.000000 0.000000
0.000000 0.000000 0.000000
0.000000 0.000000 0.000000
0.000000 0.000000 0.000000
0.000000 0.000000 0.000000
0.000000 0.000000 0.000000
0.000000 0.000000 0.000000
0.000000 0.000000 0.000000
0.000000 0.000000 0.000000
0.000000 0.000000 0.000000
0.000000 0.000000 0.000000
0.000000 0.000000 0.000000
0.000000 0.000000 0.000000
0.000000 0.000000 0.000000
0.000000 0.000000 0.000000
0.000000 0.000000 0.000000
0.000000 0.000000 0.000000
0.000000 0.000000 0.000000
0.000000 0.000000 0.000000
0.000000 0.000000 0.000000
0.000000 0.000000 0.000000
0.000000 0.000000 0.000000
0.000000 0.000000 0.000000
0.000000 0.000000 0.000000
0.000000 0.000000 0.000000
0.000000 0.000000 0.000000
0.000000 0.000000 0.000000
0.000000 0.000000 0.000000
0.000000 0.000000 0.000000
0.000000 0.000000 0.000000
0.000000 0.000000 0.000000
0.000000 0.000000 0.000000
0.000000 0.000000 0.000000
0.000000 0.000000 0.000000
0.000000 0.000000 0.000000
0.000000 0.000000 0.000000
0.000000 0.000000 0.000000
0.000000 0.000000 0.000000
0.000000 0.000000 0.000000
0.000000 0.000000 0.000000
0.000000 0.000000 0.000000
0.000000 0.000000 0.000000
0.000000 0.000000 0.000000
0.000000 0.000000 0.000000
0.000000 0.000000 0.000000
0.000000 0.000000 0.000000
0.000000 0.000000 0.000000
0.000000 0.000000 0.000000
0.000000 0.000000 0.000000
0.000000 0.000000 0.000000
0.000000 0.000000 0.000000
0.000000 0.000000 0.000000
0.000000 0.000000 0.000000
0.000000 0.000000 0.000000
0.000000 0.000000 0.000000
0.000000 0.000000 0.000000
0.000000 0.000000 0.000000
0.000000 0.000000 0.000000
0.000000 0.000000 0.000000
0.000000 0.000000 0.000000
0.000000 0.000000 0.000000
0.000000 0.000000 0.000000
0.000000 0.000000 0.000000
0.000000 0.000000 0.000000
0.000000 0.000000 0.000000
0.000000 0.000000 0.000000
0.000000 0.000000 0.000000
0.000000 0.000000 0.000000
0.000000 0.000000 0.000000
0.000000 0.000000 0.000000
0.000000 0.000000 0.000000
0.000000 0.000000 0.000000
0.000000 0.000000 0.000000
0.000000 0.000000 0.000000
0.000000 0.000000 0.000000
0.000000 0.000000 0.000000
0.000000 0.000000 0.000000
0.000000 0.000000 0.000000
0.000000 0.000000 0.000000
0.000000 0.000000 0.000000
0.000000 0.000000 0.000000
0.000000 0.000000 0.000000
0.000000 0.000000 0.000000
0.000000 0.000000 0.000000
0.000000 0.000000 0.000000
0.000000 0.000000 0.000000
0.000000 0.000000 0.000000
0.000000 0.000000 0.000000
0.000000 0.000000 0.000000
0.000000 0.000000 0.000000
0.000000 0.000000 0.000000
0.000000 0.000000 0.000000
0.000000 0.000000 0.000000
0.000000 0.000000 0.000000
0.000000 0.000000 0.000000
0.000000 0.000000 0.000000
0.000000 0.000000 0.000000
0.000000 0.000000 0.000000
0.000000 0.000000 0.000000
0.000000 0.000000 0.000000
0.000000 0.000000 0.000000
0.000000 0.000000 0.000000
0.000000 0.000000 0.000000
0.000000 0.000000 0.000000
0.000000 0.000000 0.000000
0.000000 0.000000 0.000000
0.000000 0.000000 0.000000
0.000000 0.000000 0.000000
0.000000 0.000000 0.000000
0.000000 0.000000 0.000000
0.000000 0.000000 0.000000
0.000000 0.000000 0.000000
0.000000 0.000000 0.000000
0.000000 0.000000 0.000000
0.000000 0.000000 0.000000
0.000000 0.000000 0.000000
0.000000 0.000000 0.000000
0.000000 0.000000 0.000000
0.000000 0.000000 0.000000
0.000000 0.000000 0.000000
0.000000 0.000000 0.000000
0.000000 0.000000 0.000000
0.000000 0.000000 0.000000
0.000000 0.000000 0.000000
0.000000 0.000000 0.000000
0.000000 0.000000 0.000000
0.000000 0.000000 0.000000
0.000000 0.000000 0.000000
0.000000 0.000000 0.000000
0.000000 0.000000 0.000000
0.000000 0.000000 0.000000
0.000000 0.000000 0.000000
0.000000 0.000000 0.000000
0.000000 0.000000 0.000000
0.000000 0.000000 0.000000
0.000000 0.000000 0.000000
0.000000 0.000000 0.000000
0.000000 0.000000 0.000000
0.000000 0.000000 0.000000
0.000000 0.000000 0.000000
0.000000 0.000000 0.000000
0.000000 0.000000 0.000000
0.000000 0.000000 0.000000
0.000000 0.000000 0.000000
0.000000 0.000000 0.000000
0.000000 0.000000 0.000000
0.000000 0.000000 0.000000
0.000000 0.000000 0.000000
0.000000 0.000000 0.000000
0.000000 0.000000 0.000000
0.000000 0.000000 0.000000
0.000000 0.000000 0.000000
0.000000 0.000000 0.000000
0.000000 0.000000 0.000000
0.000000 0.000000 0.000000
0.000000 0.000000 0.000000
0.000000 0.000000 0.000000
0.000000 0.000000 0.000000
0.000000 0.000000 0.000000
0.000000 0.000000 0.000000
0.000000 0.000000 0.000000
0.000000 0.000000 0.000000
0.000000 0.000000 0.000000
0.000000 0.000000 0.000000
0.000000 0.000000 0.000000
0.000000 0.000000 0.000000
0.000000 0.000000 0.000000
0.000000 0.000000 0.000000
0.000000 0.000000 0.000000
0.000000 0.000000 0.000000
0.000000 0.000000 0.000000
0.000000 0.000000 0.000000
0.000000 0.000000 0.000000
0.000000 0.000000 0.000000
0.000000 0.000000 0.000000
0.000000 0.000000 0.000000
0.000000 0.000000 0.000000
0.000000 0.000000 0.000000
0.000000 0.000000 0.000000
0.000000 0.000000 0.000000
0.000000 0.000000 0.000000
0.000000 0.000000 0.000000
0.000000 0.000000 0.000000
0.000000 0.000000 0.000000
0.000000 0.000000 0.000000
0.000000 0.000000 0.000000
0.000000 0.000000 -50.000000
-50.000000 0.000000 -50.000000
-43.333380 0.000000 -45.688256
-45.491022 0.000000 -43.333401
-50.000000 0.000000 -50.000000
-36.666748 0.000000 -36.666778
-50.000000 0.000000 -45.080984
-39.969690 0.000000 -40.026995
-44.152144 0.000000 -30.000153
-50.000000 0.000000 -50.000000
-30.000110 0.000000 -44.846955
-33.448825 0.000000 -33.144786
-44.675546 0.000000 -39.868967
-36.786884 0.000000 -35.128473
-39.801127 0.000000 -23.333510
-50.000000 0.000000 -26.539028
-44.666673 0.000000 -50.000000
-23.333455 0.000000 -44.665224
-26.803798 0.000000 -39.364128
-30.225554 0.000000 -29.606075
-39.359221 0.000000 -33.368023
-33.655272 0.000000 -50.000000
-16.666781 0.000000 -16.666836
-50.000000 0.000000 -10.000125
