# vtk DataFile Version 2.0
CellBP Time: 0.16
ASCII
DATASET UNSTRUCTURED_GRID
POINTS 320 double
-50.000000 -50.000000 0.000000
-50.000000 -43.333357 0.000000
-45.688261 -45.491039 0.000000
-43.333356 -50.000000 0.000000
-50.000000 -36.666701 0.000000
-36.666697 -50.000000 0.000000
-45.080988 -39.969710 0.000000
-40.026998 -44.152162 0.000000
-30.000038 -50.000000 0.000000
-50.000000 -30.000043 0.000000
-44.846958 -33.448852 0.000000
-33.144776 -44.675562 0.000000
-39.868966 -36.786908 0.000000
-35.128468 -39.801152 0.000000
-23.333375 -50.000000 0.000000
-26.539013 -44.666682 0.000000
-50.000000 -23.333379 0.000000
-44.665221 -26.803836 0.000000
-39.364123 -30.225589 0.000000
-29.606064 -39.359241 0.000000
-33.368016 -33.655304 0.000000
-50.000000 -16.666709 0.000000
-16.666705 -50.000000 0.000000
-10.000029 -50.000000 0.000000
-19.964725 -44.588795 0.000000
-23.215753 -39.114645 0.000000
-44.691919 -20.096831 0.000000
-39.367807 -23.528123 0.000000
-34.105999 -26.936945 0.000000
-26.384214 -33.577076 0.000000
-29.155984 -28.926467 0.000000
-50.000000 -10.000031 0.000000
-44.666388 -13.410123 0.000000
-50.000000 -3.333345 0.000000
-3.333346 -50.000000 0.000000
3.333340 -50.000000 0.000000
-13.343477 -44.599113 0.000000
-6.684626 -44.610830 0.000000
-16.693594 -39.153391 0.000000
-20.106904 -33.342687 0.000000
-39.338204 -16.804854 0.000000
-34.018528 -20.274756 0.000000
-28.780681 -23.448940 0.000000
-23.510338 -27.349886 0.000000
-44.635551 -6.705616 0.000000
-39.293074 -10.101920 0.000000
-50.000000 3.333345 0.000000
-44.626903 -0.015777 0.000000
10.000024 -50.000000 0.000000
16.666704 -50.000000 0.000000
-0.016102 -44.618892 0.000000
6.651518 -44.635536 0.000000
-10.044620 -39.222660 0.000000
-3.368221 -39.220521 0.000000
-13.484274 -33.798890 0.000000
-16.709892 -28.271388 0.000000
-33.948128 -13.514381 0.000000
-28.601366 -16.892583 0.000000
-23.291060 -20.312832 0.000000
-18.660092 -23.282133 0.000000
-39.267655 -3.392990 0.000000
-33.904615 -6.796835 0.000000
-50.000000 10.000033 0.000000
-44.606930 6.673172 0.000000
-39.261128 3.325537 0.000000
-50.000000 16.666715 0.000000
23.333376 -50.000000 0.000000
30.000042 -50.000000 0.000000
13.317237 -44.663018 0.000000
19.989356 -44.700139 0.000000
3.307659 -39.245209 0.000000
9.971735 -39.290316 0.000000
-6.735187 -33.791423 0.000000
-0.032389 -33.829733 0.000000
-10.095962 -28.293840 0.000000
-13.122865 -22.898874 0.000000
-28.532983 -10.215334 0.000000
-23.066347 -13.663176 0.000000
-16.976700 -17.208250 0.000000
-33.885004 -0.065480 0.000000
-28.563420 -3.578601 0.000000
-44.564246 13.380158 0.000000
-39.190256 10.014907 0.000000
-33.905993 6.615942 0.000000
-50.000000 23.333388 0.000000
-44.557819 20.137934 0.000000
-50.000000 30.000050 0.000000
36.666703 -50.000000 0.000000
43.333360 -50.000000 0.000000
26.662998 -44.745262 0.000000
33.315118 -44.875856 0.000000
16.631585 -39.357730 0.000000
23.328119 -39.437061 0.000000
6.642753 -33.879545 0.000000
13.290823 -33.965518 0.000000
-3.345464 -28.362777 0.000000
3.356780 -28.451394 0.000000
-6.626013 -22.846502 0.000000
-9.972202 -17.314769 0.000000
-23.186065 -7.015088 0.000000
-17.809885 -10.334974 0.000000
-12.837123 -12.587076 0.000000
-28.607675 3.088410 0.000000
-23.264605 -0.468014 0.000000
-39.039201 16.746466 0.000000
-28.721684 9.926524 0.000000
-33.761929 13.318539 0.000000
-44.521687 26.716658 0.000000
-38.467757 23.892384 0.000000
-44.632081 33.085296 0.000000
-50.000000 36.666706 0.000000
-50.000000 43.333364 0.000000
39.922233 -45.069478 0.000000
45.474531 -45.660323 0.000000
50.000000 -50.000000 0.000000
36.626660 -39.981867 0.000000
30.012180 -39.458531 0.000000
19.904180 -34.092725 0.000000
26.584940 -34.319401 0.000000
9.988866 -28.513752 0.000000
16.611070 -28.659790 0.000000
0.052368 -22.958635 0.000000
6.812213 -23.158909 0.000000
-3.401621 -17.297626 0.000000
-6.873535 -11.043359 0.000000
-17.879116 -3.830666 0.000000
-12.555314 -7.036909 0.000000
-23.311108 6.074098 0.000000
-18.038528 2.457387 0.000000
-23.121886 12.095472 0.000000
-33.572138 19.788916 0.000000
-27.941270 16.885183 0.000000
-33.292660 24.722513 0.000000
-39.473279 30.052475 0.000000
-35.160006 28.137285 0.000000
-39.815683 35.101157 0.000000
-43.991523 39.981919 0.000000
-45.430926 45.684975 0.000000
-50.000000 50.000000 0.000000
44.117105 -39.898820 0.000000
50.000000 -43.333364 0.000000
39.639276 -35.047271 0.000000
33.462778 -33.424435 0.000000
22.984802 -28.817831 0.000000
28.730889 -29.247698 0.000000
13.460728 -23.121858 0.000000
20.054808 -23.438615 0.000000
3.391015 -17.586489 0.000000
10.127901 -17.839776 0.000000
0.139488 -12.033374 0.000000
-2.158386 -6.279920 0.000000
-7.436173 -3.721835 0.000000
-12.649495 -0.801723 0.000000
-18.160943 8.572995 0.000000
-12.969483 5.197054 0.000000
-18.639751 13.752301 0.000000
-21.504946 17.495329 0.000000
-28.940607 23.158108 0.000000
-24.346241 21.554855 0.000000
-30.323285 28.634612 0.000000
-34.253187 33.375432 0.000000
-36.955793 39.577991 0.000000
-39.838613 45.102626 0.000000
-43.333370 50.000000 0.000000
44.585114 -32.971915 0.000000
50.000000 -36.666709 0.000000
39.129236 -29.581682 0.000000
33.500497 -26.367578 0.000000
27.182615 -23.322135 0.000000
23.065483 -18.647771 0.000000
16.988809 -16.979312 0.000000
6.714310 -12.220388 0.000000
12.349911 -12.732155 0.000000
-3.387658 -1.495636 0.000000
3.956582 -7.055583 0.000000
1.022259 -2.121279 0.000000
-7.033278 2.336684 0.000000
-8.459860 7.850411 0.000000
-12.848013 11.934186 0.000000
-15.693299 17.700885 0.000000
-19.287215 22.983242 0.000000
-24.170984 27.355045 0.000000
-27.286271 33.626176 0.000000
-30.406558 39.161322 0.000000
-33.447675 44.738846 0.000000
-36.666718 50.000000 0.000000
44.547708 -26.499696 0.000000
50.000000 -30.000053 0.000000
39.040038 -23.179199 0.000000
33.449873 -19.899971 0.000000
28.040241 -16.574638 0.000000
22.684242 -13.124457 0.000000
17.176874 -9.911440 0.000000
10.958924 -6.655784 0.000000
-1.350612 2.306024 0.000000
6.236880 -1.745292 0.000000
2.912134 1.602194 0.000000
-3.556280 7.212867 0.000000
-6.312412 12.448075 0.000000
-9.629367 17.700325 0.000000
-13.166614 23.111976 0.000000
-17.316460 28.185311 0.000000
-20.570496 33.474550 0.000000
-23.665760 39.064076 0.000000
-26.830653 44.585399 0.000000
-30.000061 50.000000 0.000000
44.528756 -19.930399 0.000000
50.000000 -23.333390 0.000000
39.036469 -16.593999 0.000000
33.576545 -13.281205 0.000000
28.151219 -9.964859 0.000000
22.726466 -6.604492 0.000000
17.264769 -3.337773 0.000000
12.042242 0.188275 0.000000
1.934197 6.309062 0.000000
7.067792 3.857831 0.000000
-0.211079 12.003541 0.000000
-3.272282 17.529483 0.000000
-6.701393 22.978512 0.000000
-10.568140 28.267712 0.000000
-13.723778 33.661713 0.000000
-16.945470 39.080523 0.000000
-20.140257 44.548533 0.000000
-23.333397 50.000000 0.000000
44.536403 -13.303494 0.000000
50.000000 -16.666718 0.000000
39.080063 -9.966561 0.000000
33.646940 -6.640819 0.000000
28.235930 -3.307212 0.000000
22.845636 0.018624 0.000000
17.533597 3.364819 0.000000
12.219467 6.600796 0.000000
6.734958 10.876329 0.000000
3.301241 17.194949 0.000000
-0.081767 22.850590 0.000000
-3.518297 28.312527 0.000000
-6.831110 33.774296 0.000000
-10.137123 39.170620 0.000000
-13.435401 44.563647 0.000000
-16.666723 50.000000 0.000000
44.554508 -6.654590 0.000000
50.000000 -10.000036 0.000000
39.123553 -3.321252 0.000000
33.713528 0.008770 0.000000
28.333236 3.343743 0.000000
23.002479 6.693849 0.000000
17.831685 10.024405 0.000000
12.654079 12.223632 0.000000
9.792452 17.235451 0.000000
6.477293 22.722509 0.000000
3.188439 28.269363 0.000000
-0.115845 33.734679 0.000000
-3.425083 39.168567 0.000000
-6.725206 44.581913 0.000000
-10.000037 50.000000 0.000000
44.575792 0.001952 0.000000
50.000000 -3.333346 0.000000
39.166891 3.331935 0.000000
33.779219 6.655571 0.000000
28.424297 9.995196 0.000000
23.046323 13.416647 0.000000
16.947504 17.021646 0.000000
12.901716 22.671569 0.000000
9.814510 28.232440 0.000000
6.604097 33.718743 0.000000
3.286536 39.164448 0.000000
-0.029837 44.584656 0.000000
-3.333343 50.000000 0.000000
44.586805 6.665426 0.000000
50.000000 3.333348 0.000000
39.198018 9.981888 0.000000
33.843356 13.277167 0.000000
28.541644 16.585033 0.000000
23.386400 20.084434 0.000000
18.531669 23.111778 0.000000
16.393544 28.298841 0.000000
13.328867 33.754841 0.000000
9.986448 39.181997 0.000000
6.665869 44.584452 0.000000
3.333355 50.000000 0.000000
44.608926 13.317718 0.000000
50.000000 10.000038 0.000000
39.251333 16.612361 0.000000
33.931765 19.862874 0.000000
28.612128 22.926030 0.000000
23.279592 27.207442 0.000000
19.901250 33.303232 0.000000
16.573611 39.041037 0.000000
13.268112 44.526849 0.000000
10.000048 50.000000 0.000000
44.632081 19.972742 0.000000
50.000000 16.666720 0.000000
39.298442 23.262008 0.000000
34.043688 26.514649 0.000000
28.965627 28.539455 0.000000
26.202245 33.410109 0.000000
23.066572 38.968865 0.000000
19.888337 44.507097 0.000000
16.666731 50.000000 0.000000
44.639752 26.642700 0.000000
50.000000 23.333393 0.000000
39.293274 29.966553 0.000000
33.212252 33.371179 0.000000
29.411943 39.045803 0.000000
26.422173 44.505954 0.000000
23.333403 50.000000 0.000000
44.774875 33.291638 0.000000
50.000000 30.000057 0.000000
39.738087 36.596198 0.000000
34.830904 39.525486 0.000000
32.833651 44.514180 0.000000
30.000064 50.000000 0.000000
44.978133 39.877730 0.000000
50.000000 36.666715 0.000000
39.734677 43.968897 0.000000
36.666717 50.000000 0.000000
45.621159 45.409656 0.000000
50.000000 43.333369 0.000000
43.333371 50.000000 0.000000
50.000000 50.000000 0.000000
CELLS 578 2312
3 1 0 2
3 0 3 2
3 4 1 6
3 6 1 2
3 3 5 7
3 3 7 2
3 6 2 7
3 9 4 10
3 10 4 6
3 5 8 11
3 7 5 11
3 10 6 12
3 12 6 7
3 7 11 13
3 7 13 12
3 8 14 15
3 11 8 15
3 16 9 17
3 17 9 10
3 17 10 18
3 18 10 12
3 11 15 19
3 13 11 19
3 18 12 20
3 13 19 20
3 20 12 13
3 14 22 24
3 15 14 24
3 15 24 25
3 19 15 25
3 21 16 26
3 26 16 17
3 26 17 27
3 27 17 18
3 27 18 28
3 28 18 20
3 19 25 29
3 19 29 20
3 28 20 30
3 30 20 29
3 31 21 32
3 32 21 26
3 22 23 36
3 24 22 36
3 23 34 37
3 36 23 37
3 24 36 38
3 25 24 38
3 25 38 39
3 29 25 39
3 32 26 40
3 40 26 27
3 40 27 41
3 41 27 28
3 41 28 42
3 42 28 30
3 29 39 43
3 29 43 30
3 42 30 43
3 33 31 44
3 44 31 32
3 44 32 45
3 45 32 40
3 46 33 47
3 47 33 44
3 34 35 50
3 37 34 50
3 35 48 51
3 50 35 51
3 36 37 52
3 38 36 52
3 37 50 53
3 52 37 53
3 38 52 54
3 39 38 54
3 39 54 55
3 43 39 55
3 45 40 56
3 56 40 41
3 56 41 57
3 57 41 42
3 57 42 58
3 58 42 43
3 43 55 59
3 43 59 58
3 47 44 60
3 60 44 45
3 60 45 61
3 61 45 56
3 62 46 63
3 63 46 47
3 63 47 64
3 64 47 60
3 48 49 68
3 51 48 68
3 49 66 69
3 68 49 69
3 50 51 70
3 53 50 70
3 51 68 71
3 70 51 71
3 52 53 72
3 54 52 72
3 53 70 73
3 72 53 73
3 54 72 74
3 55 54 74
3 55 74 75
3 59 55 75
3 61 56 76
3 76 56 57
3 76 57 77
3 77 57 58
3 77 58 78
3 59 75 78
3 78 58 59
3 64 60 79
3 79 60 61
3 79 61 80
3 80 61 76
3 65 62 81
3 81 62 63
3 81 63 82
3 82 63 64
3 82 64 83
3 83 64 79
3 84 65 85
3 85 65 81
3 66 67 89
3 69 66 89
3 67 87 90
3 89 67 90
3 68 69 91
3 71 68 91
3 69 89 92
3 91 69 92
3 70 71 93
3 73 70 93
3 71 91 94
3 93 71 94
3 72 73 95
3 74 72 95
3 73 93 96
3 95 73 96
3 74 95 97
3 75 74 97
3 75 97 98
3 78 75 98
3 80 76 99
3 99 76 77
3 99 77 100
3 100 77 78
3 100 78 101
3 98 101 78
3 83 79 102
3 102 79 80
3 102 80 103
3 103 80 99
3 85 81 104
3 104 81 82
3 105 83 102
3 104 82 106
3 106 82 83
3 106 83 105
3 86 84 107
3 107 84 85
3 107 85 108
3 108 85 104
3 109 86 107
3 110 86 109
3 87 88 112
3 90 87 112
3 112 88 113
3 88 114 113
3 90 112 115
3 89 90 116
3 92 89 116
3 116 90 115
3 91 92 117
3 94 91 117
3 92 116 118
3 117 92 118
3 93 94 119
3 96 93 119
3 94 117 120
3 119 94 120
3 95 96 121
3 97 95 121
3 96 119 122
3 121 96 122
3 97 121 123
3 98 97 123
3 98 123 124
3 98 124 101
3 103 99 125
3 125 99 100
3 125 100 126
3 126 100 101
3 126 101 124
3 105 102 127
3 127 102 103
3 127 103 128
3 128 103 125
3 129 105 127
3 108 104 130
3 130 104 106
3 130 106 131
3 131 106 105
3 131 105 129
3 108 130 132
3 109 107 133
3 133 107 108
3 133 108 134
3 108 132 134
3 135 109 133
3 111 110 136
3 136 110 109
3 136 109 135
3 137 111 136
3 138 111 137
3 112 113 139
3 115 112 139
3 114 140 113
3 140 139 113
3 139 141 115
3 116 115 142
3 118 116 142
3 142 115 141
3 117 118 143
3 120 117 143
3 118 142 144
3 143 118 144
3 119 120 145
3 122 119 145
3 120 143 146
3 145 120 146
3 121 122 147
3 123 121 147
3 122 145 148
3 147 122 148
3 123 147 149
3 124 123 149
3 124 149 150
3 151 126 124
3 124 150 151
3 128 125 152
3 152 125 126
3 152 126 151
3 129 127 153
3 153 127 128
3 128 152 154
3 153 128 154
3 155 129 153
3 131 129 156
3 156 129 155
3 132 130 157
3 130 131 157
3 157 131 158
3 131 156 158
3 132 157 159
3 132 159 134
3 135 133 160
3 160 133 134
3 160 134 159
3 136 135 161
3 135 160 161
3 162 137 136
3 161 162 136
3 163 138 137
3 162 163 137
3 139 164 141
3 140 165 139
3 139 165 164
3 141 164 166
3 141 166 142
3 166 167 142
3 144 142 167
3 167 168 144
3 143 144 168
3 146 143 168
3 168 169 146
3 145 146 170
3 148 145 170
3 170 146 169
3 147 148 171
3 149 147 171
3 148 170 172
3 171 148 172
3 173 151 150
3 149 171 174
3 150 149 174
3 150 174 175
3 150 175 173
3 154 152 176
3 152 151 176
3 176 151 173
3 154 176 177
3 155 153 178
3 177 178 154
3 154 178 153
3 156 155 179
3 155 178 179
3 180 158 156
3 179 180 156
3 181 159 157
3 180 181 158
3 181 157 158
3 182 160 159
3 181 182 159
3 183 161 160
3 182 183 160
3 184 162 161
3 184 161 183
3 185 163 162
3 184 185 162
3 164 186 166
3 165 187 164
3 164 187 186
3 166 186 188
3 166 188 167
3 167 188 189
3 167 189 168
3 168 189 190
3 168 190 169
3 169 190 191
3 169 191 170
3 192 172 170
3 170 191 192
3 192 193 172
3 171 172 193
3 174 171 193
3 194 173 175
3 176 173 194
3 175 174 195
3 193 195 174
3 195 196 175
3 175 196 194
3 197 177 176
3 194 197 176
3 198 178 177
3 197 198 177
3 199 179 178
3 198 199 178
3 200 180 179
3 199 200 179
3 201 181 180
3 200 201 180
3 202 182 181
3 201 202 181
3 203 183 182
3 202 203 182
3 204 184 183
3 203 204 183
3 205 185 184
3 204 205 184
3 186 206 188
3 187 207 186
3 186 207 206
3 188 206 208
3 188 208 189
3 189 208 209
3 189 209 190
3 190 209 210
3 190 210 191
3 191 210 211
3 191 211 192
3 192 211 212
3 192 212 193
3 193 212 213
3 193 213 195
3 214 197 194
3 214 194 196
3 195 213 215
3 195 215 196
3 196 215 214
3 216 198 197
3 214 216 197
3 217 199 198
3 216 217 198
3 218 200 199
3 217 218 199
3 219 201 200
3 218 219 200
3 220 202 201
3 219 220 201
3 221 203 202
3 220 221 202
3 222 204 203
3 221 222 203
3 223 205 204
3 222 223 204
3 206 224 208
3 207 225 206
3 206 225 224
3 208 224 226
3 208 226 209
3 209 226 227
3 209 227 210
3 210 227 228
3 210 228 211
3 211 228 229
3 211 229 212
3 212 229 230
3 212 230 213
3 213 230 231
3 213 231 215
3 232 216 214
3 215 231 232
3 232 214 215
3 233 217 216
3 232 233 216
3 234 218 217
3 233 234 217
3 235 219 218
3 234 235 218
3 236 220 219
3 235 236 219
3 237 221 220
3 236 237 220
3 238 222 221
3 237 238 221
3 239 223 222
3 238 239 222
3 224 240 226
3 225 241 224
3 224 241 240
3 226 240 242
3 226 242 227
3 227 242 243
3 227 243 228
3 228 243 244
3 228 244 229
3 244 245 229
3 229 245 230
3 230 245 246
3 230 246 231
3 231 246 247
3 231 247 232
3 248 233 232
3 248 232 247
3 249 234 233
3 248 249 233
3 250 235 234
3 249 250 234
3 251 236 235
3 250 251 235
3 252 237 236
3 251 252 236
3 253 238 237
3 252 253 237
3 254 239 238
3 253 254 238
3 240 255 242
3 241 256 240
3 240 256 255
3 242 255 257
3 242 257 243
3 243 257 258
3 243 258 244
3 244 258 259
3 244 259 245
3 245 259 260
3 245 260 246
3 246 260 261
3 246 261 247
3 248 247 261
3 262 249 248
3 261 262 248
3 263 250 249
3 262 263 249
3 264 251 250
3 263 264 250
3 265 252 251
3 264 265 251
3 266 253 252
3 265 266 252
3 267 254 253
3 266 267 253
3 255 268 257
3 256 269 255
3 255 269 268
3 257 268 270
3 257 270 258
3 258 270 271
3 258 271 259
3 259 271 272
3 259 272 260
3 260 272 273
3 260 273 261
3 274 262 261
3 261 273 274
3 275 263 262
3 274 275 262
3 276 264 263
3 275 276 263
3 277 265 264
3 276 277 264
3 278 266 265
3 277 278 265
3 279 267 266
3 278 279 266
3 268 280 270
3 269 281 268
3 268 281 280
3 270 280 282
3 270 282 271
3 271 282 283
3 271 283 272
3 283 284 272
3 272 284 273
3 285 275 274
3 273 284 285
3 285 274 273
3 286 276 275
3 285 286 275
3 287 277 276
3 286 287 276
3 288 278 277
3 287 288 277
3 289 279 278
3 288 289 278
3 280 290 282
3 281 291 280
3 280 291 290
3 282 290 292
3 282 292 283
3 283 292 293
3 283 293 284
3 284 293 294
3 284 294 285
3 295 286 285
3 295 285 294
3 296 287 286
3 295 296 286
3 297 288 287
3 296 297 287
3 298 289 288
3 297 298 288
3 290 299 292
3 291 300 290
3 290 300 299
3 292 299 301
3 292 301 293
3 293 301 302
3 293 302 294
3 294 302 295
3 303 296 295
3 303 295 302
3 304 297 296
3 303 304 296
3 305 298 297
3 304 305 297
3 299 306 301
3 300 307 299
3 299 307 306
3 301 306 308
3 301 308 302
3 309 303 302
3 302 308 309
3 310 304 303
3 309 310 303
3 311 305 304
3 310 311 304
3 306 312 308
3 307 313 306
3 306 313 312
3 314 310 309
3 308 312 314
3 314 309 308
3 315 311 310
3 314 315 310
3 312 316 314
3 313 317 312
3 312 317 316
3 318 315 314
3 318 314 316
3 317 319 316
3 319 318 316
CELL_TYPES 578
5
5
5
5
5
5
5
5
5
5
5
5
5
5
5
5
5
5
5
5
5
5
5
5
5
5
5
5
5
5
5
5
5
5
5
5
5
5
5
5
5
5
5
5
5
5
5
5
5
5
5
5
5
5
5
5
5
5
5
5
5
5
5
5
5
5
5
5
5
5
5
5
5
5
5
5
5
5
5
5
5
5
5
5
5
5
5
5
5
5
5
5
5
5
5
5
5
5
5
5
5
5
5
5
5
5
5
5
5
5
5
5
5
5
5
5
5
5
5
5
5
5
5
5
5
5
5
5
5
5
5
5
5
5
5
5
5
5
5
5
5
5
5
5
5
5
5
5
5
5
5
5
5
5
5
5
5
5
5
5
5
5
5
5
5
5
5
5
5
5
5
5
5
5
5
5
5
5
5
5
5
5
5
5
5
5
5
5
5
5
5
5
5
5
5
5
5
5
5
5
5
5
5
5
5
5
5
5
5
5
5
5
5
5
5
5
5
5
5
5
5
5
5
5
5
5
5
5
5
5
5
5
5
5
5
5
5
5
5
5
5
5
5
5
5
5
5
5
5
5
5
5
5
5
5
5
5
5
5
5
5
5
5
5
5
5
5
5
5
5
5
5
5
5
5
5
5
5
5
5
5
5
5
5
5
5
5
5
5
5
5
5
5
5
5
5
5
5
5
5
5
5
5
5
5
5
5
5
5
5
5
5
5
5
5
5
5
5
5
5
5
5
5
5
5
5
5
5
5
5
5
5
5
5
5
5
5
5
5
5
5
5
5
5
5
5
5
5
5
5
5
5
5
5
5
5
5
5
5
5
5
5
5
5
5
5
5
5
5
5
5
5
5
5
5
5
5
5
5
5
5
5
5
5
5
5
5
5
5
5
5
5
5
5
5
5
5
5
5
5
5
5
5
5
5
5
5
5
5
5
5
5
5
5
5
5
5
5
5
5
5
5
5
5
5
5
5
5
5
5
5
5
5
5
5
5
5
5
5
5
5
5
5
5
5
5
5
5
5
5
5
5
5
5
5
5
5
5
5
5
5
5
5
5
5
5
5
5
5
5
5
5
5
5
5
5
5
5
5
5
5
5
5
5
5
5
5
5
5
5
5
5
5
5
5
5
5
5
5
5
5
5
5
5
5
5
5
5
5
5
5
5
5
5
5
5
5
5
5
5
5
5
5
5
5
5
5
5
5
5
5
5
5
5
5
5
5
5
5
5
5
5
5
5
5
5
5
5
5
5
5
5
5
5
5
5
5
5
5
5
5
5
5
5
5
5
5
5
5
5
5
5
5
5
5
5
5
5
POINT_DATA 320
SCALARS theta_e float 1
LOOKUP_TABLE default
1.000000
1.000000
1.000000
1.000000
1.000000
1.000000
1.000000
1.000000
1.000000
1.000000
1.000000
1.000000
1.000000
1.000000
1.000000
1.000000
1.000000
1.000000
1.000000
1.000000
1.000000
0.999999
1.000000
1.000000
1.000000
1.000000
0.999999
0.999999
0.999999
1.000000
0.999999
0.999999
0.999999
0.999999
1.000000
1.000000
1.000000
0.999999
1.000000
0.999999
0.999999
0.999999
0.999999
0.999999
0.999999
0.999999
0.999999
0.999999
1.000000
1.000000
0.999999
0.999999
0.999999
0.999999
0.999999
0.999999
0.999999
0.999999
0.999999
1.000000
0.999999
0.999999
0.999999
0.999999
0.999999
0.999999
1.000000
1.000000
0.999999
0.999999
0.999999
0.999999
0.999999
0.999999
0.999999
1.000000
0.999999
1.000000
1.000000
0.999999
0.999999
0.999999
0.999999
0.999999
0.999999
0.999999
0.999999
1.000000
1.000000
1.000000
1.000000
0.999999
0.999999
0.999999
0.999999
0.999999
0.999999
1.000000
1.000000
1.000000
1.000000
1.000001
0.999999
1.000000
0.999999
0.999999
0.999999
0.999999
0.999999
0.999999
0.999999
0.999999
1.000000
1.000000
0.999999
1.000000
0.999999
0.999999
0.999999
0.999999
0.999999
1.000000
1.000000
1.000000
1.000004
1.000001
1.000003
1.000000
1.000001
1.000000
0.999999
0.999999
0.999999
0.999999
0.999999
0.999999
0.999999
0.999999
0.999999
1.000000
0.999999
1.000000
0.999999
0.999999
0.999999
0.999999
0.999999
1.000000
1.000000
1.000004
1.000010
1.000008
1.000004
1.000001
1.000004
1.000000
0.999999
0.999999
0.999999
0.999999
0.999999
0.999999
0.999999
0.999999
1.000000
1.000000
1.000000
0.999999
0.999999
1.000000
1.000000
1.000002
1.000001
1.000009
1.000008
1.000008
1.000008
1.000005
1.000001
1.000000
0.999999
0.999999
0.999999
0.999999
0.999999
0.999999
1.000000
1.000000
1.000000
0.999999
0.999999
1.000000
1.000000
1.000004
1.000005
1.000009
1.000005
1.000007
1.000003
1.000001
1.000000
0.999999
0.999999
0.999999
0.999999
0.999999
1.000000
1.000000
0.999999
0.999999
1.000000
1.000000
1.000001
1.000005
1.000006
1.000006
1.000004
1.000001
1.000000
0.999999
0.999999
0.999999
0.999999
0.999999
1.000000
1.000000
0.999999
1.000000
1.000000
1.000000
1.000001
1.000003
1.000003
1.000001
1.000000
1.000000
0.999999
0.999999
0.999999
0.999999
1.000000
1.000000
1.000000
1.000000
1.000000
1.000000
1.000001
1.000001
1.000001
1.000000
1.000000
0.999999
0.999999
0.999999
0.999999
1.000000
1.000000
1.000000
1.000000
1.000000
1.000000
1.000000
1.000000
1.000000
0.999999
0.999999
0.999999
0.999999
1.000000
1.000000
0.999999
0.999999
1.000000
1.000000
1.000000
1.000000
0.999999
0.999999
0.999999
0.999999
0.999999
1.000000
0.999999
0.999999
0.999999
0.999999
0.999999
0.999999
0.999999
0.999999
0.999999
0.999999
0.999999
0.999999
0.999999
0.999999
0.999999
0.999999
0.999999
0.999999
0.999999
0.999999
0.999999
0.999999
0.999999
0.999999
0.999999
0.999999
0.999999
0.999999
0.999999
0.999999
0.999999
0.999999
0.999999
0.999999
0.999999
0.999999
0.999999
0.999999
VECTORS fa_u float
0.000000 0.000000 0.000000
0.000000 0.000000 0.000000
0.000000 0.000000 0.000000
0.000000 0.000000 0.000000
0.000000 0.000000 0.000000
0.000000 0.000000 0.000000
0.000000 0.000000 0.000000
0.000000 0.000000 0.000000
0.000000 0.000000 0.000000
0.000000 0.000000 0.000000
0.000000 0.000000 0.000000
0.000000 0.000000 0.000000
0.000000 0.000000 0.000000
0.000000 0.000000 0.000000
0.000000 0.000000 0.000000
0.000000 0.000000 0.000000
0.000000 0.000000 0.000000
0.000000 0.000000 0.000000
0.000000 0.000000 0.000000
0.000000 0.000000 0.000000
0.000000 0.000000 0.000000
0.000000 0.000000 0.000000
0.000000 0.000000 0.000000
0.000000 0.000000 0.000000
0.000000 0.000000 0.000000
0.000000 0.000000 0.000000
0.000000 0.000000 0.000000
0.000000 0.000000 0.000000
0.000000 0.000000 0.000000
0.000000 0.000000 0.000000
0.000000 0.000000 0.000000
0.000000 0.000000 0.000000
0.000000 0.000000 0.000000
0.000000 0.000000 0.000000
0.000000 0.000000 0.000000
0.000000 0.000000 0.000000
0.000000 0.000000 0.000000
0.000000 0.000000 0.000000
0.000000 0.000000 0.000000
0.000000 0.000000 0.000000
0.000000 0.000000 0.000000
0.000000 0.000000 0.000000
0.000000 0.000000 0.000000
0.000000 0.000000 0.000000
0.000000 0.000000 0.000000
0.000000 0.000000 0.000000
0.000000 0.000000 0.000000
0.000000 0.000000 0.000000
0.000000 0.000000 0.000000
0.000000 0.000000 0.000000
0.000000 0.000000 0.000000
0.000000 0.000000 0.000000
0.000000 0.000000 0.000000
0.000000 0.000000 0.000000
0.000000 0.000000 0.000000
0.000000 0.000000 0.000000
0.000000 0.000000 0.000000
0.000000 0.000000 0.000000
0.000000 0.000000 0.000000
0.000000 0.000000 0.000000
0.000000 0.000000 0.000000
0.000000 0.000000 0.000000
0.000000 0.000000 0.000000
0.000000 0.000000 0.000000
0.000000 0.000000 0.000000
0.000000 0.000000 0.000000
0.000000 0.000000 0.000000
0.000000 0.000000 0.000000
0.000000 0.000000 0.000000
0.000000 0.000000 0.000000
0.000000 0.000000 0.000000
0.000000 0.000000 0.000000
0.000000 0.000000 0.000000
0.000000 0.000000 0.000000
0.000000 0.000000 0.000000
0.000000 0.000000 0.000000
0.000000 0.000000 0.000000
0.000000 0.000000 0.000000
0.000000 0.000000 0.000000
0.000000 0.000000 0.000000
0.000000 0.000000 0.000000
0.000000 0.000000 0.000000
0.000000 0.000000 0.000000
0.000000 0.000000 0.000000
0.000000 0.000000 0.000000
0.000000 0.000000 0.000000
0.000000 0.000000 0.000000
0.000000 0.000000 0.000000
0.000000 0.000000 0.000000
0.000000 0.000000 0.000000
0.000000 0.000000 0.000000
0.000000 0.000000 0.000000
0.000000 0.000000 0.000000
0.000000 0.000000 0.000000
0.000000 0.000000 0.000000
0.000000 0.000000 0.000000
0.000000 0.000000 0.000000
0.000000 0.000000 0.000000
0.000000 0.000000 0.000000
0.000000 0.000000 0.000000
0.000000 0.000000 0.000000
0.000000 0.000000 0.000000
0.000000 0.000000 0.000000
0.000000 0.000000 0.000000
0.000000 0.000000 0.000000
0.000000 0.000000 0.000000
0.000000 0.000000 0.000000
0.000000 0.000000 0.000000
0.000000 0.000000 0.000000
0.000000 0.000000 0.000000
0.000000 0.000000 0.000000
0.000000 0.000000 0.000000
0.000000 0.000000 0.000000
0.000000 0.000000 0.000000
0.000000 0.000000 0.000000
0.000000 0.000000 0.000000
0.000000 0.000000 0.000000
0.000000 0.000000 0.000000
0.000000 0.000000 0.000000
0.000000 0.000000 0.000000
0.000000 0.000000 0.000000
0.000000 0.000000 0.000000
0.000000 0.000000 0.000000
0.000000 0.000000 0.000000
0.000000 0.000000 0.000000
0.000000 0.000000 0.000000
0.000000 0.000000 0.000000
0.000000 0.000000 0.000000
0.000000 0.000000 0.000000
0.000000 0.000000 0.000000
0.000000 0.000000 0.000000
0.000000 0.000000 0.000000
0.000000 0.000000 0.000000
0.000000 0.000000 0.000000
0.000000 0.000000 0.000000
0.000000 0.000000 0.000000
0.000000 0.000000 0.000000
0.000000 0.000000 0.000000
0.000000 0.000000 0.000000
0.000000 0.000000 0.000000
0.000000 0.000000 0.000000
0.000000 0.000000 0.000000
0.000000 0.000000 0.000000
0.000000 0.000000 0.000000
0.000000 0.000000 0.000000
0.000000 0.000000 0.000000
0.000000 0.000000 0.000000
0.000000 0.000000 0.000000
0.000000 0.000000 0.000000
0.000000 0.000000 0.000000
0.000000 0.000000 0.000000
0.000000 0.000000 0.000000
0.000000 0.000000 0.000000
0.000000 0.000000 0.000000
0.000000 0.000000 0.000000
0.000000 0.000000 0.000000
0.000000 0.000000 0.000000
0.000000 0.000000 0.000000
0.000000 0.000000 0.000000
0.000000 0.000000 0.000000
0.000000 0.000000 0.000000
0.000000 0.000000 0.000000
0.000000 0.000000 0.000000
0.000000 0.000000 0.000000
0.000000 0.000000 0.000000
0.000000 0.000000 0.000000
0.000000 0.000000 0.000000
0.000000 0.000000 0.000000
0.000000 0.000000 0.000000
0.000000 0.000000 0.000000
0.000000 0.000000 0.000000
0.000000 0.000000 0.000000
0.000000 0.000000 0.000000
0.000000 0.000000 0.000000
0.000000 0.000000 0.000000
0.000000 0.000000 0.000000
0.000000 0.000000 0.000000
0.000000 0.000000 0.000000
0.000000 0.000000 0.000000
0.000000 0.000000 0.000000
0.000000 0.000000 0.000000
0.000000 0.000000 0.000000
0.000000 0.000000 0.000000
0.000000 0.000000 0.000000
0.000000 0.000000 0.000000
0.000000 0.000000 0.000000
0.000000 0.000000 0.000000
0.000000 0.000000 0.000000
0.000000 0.000000 0.000000
0.000000 0.000000 0.000000
0.000000 0.000000 0.000000
0.000000 0.000000 0.000000
0.000000 0.000000 0.000000
0.000000 0.000000 0.000000
0.000000 0.000000 0.000000
0.000000 0.000000 0.000000
0.000000 0.000000 0.000000
0.000000 0.000000 0.000000
0.000000 0.000000 0.000000
0.000000 0.000000 0.000000
0.000000 0.000000 0.000000
0.000000 0.000000 0.000000
0.000000 0.000000 0.000000
0.000000 0.000000 0.000000
0.000000 0.000000 0.000000
0.000000 0.000000 0.000000
0.000000 0.000000 0.000000
0.000000 0.000000 0.000000
0.000000 0.000000 0.000000
0.000000 0.000000 0.000000
0.000000 0.000000 0.000000
0.000000 0.000000 0.000000
0.000000 0.000000 0.000000
0.000000 0.000000 0.000000
0.000000 0.000000 0.000000
0.000000 0.000000 0.000000
0.000000 0.000000 0.000000
0.000000 0.000000 0.000000
0.000000 0.000000 0.000000
0.000000 0.000000 0.000000
0.000000 0.000000 0.000000
0.000000 0.000000 0.000000
0.000000 0.000000 0.000000
0.000000 0.000000 0.000000
0.000000 0.000000 0.000000
0.000000 0.000000 0.000000
0.000000 0.000000 0.000000
0.000000 0.000000 0.000000
0.000000 0.000000 0.000000
0.000000 0.000000 0.000000
0.000000 0.000000 0.000000
0.000000 0.000000 0.000000
0.000000 0.000000 0.000000
0.000000 0.000000 0.000000
0.000000 0.000000 0.000000
0.000000 0.000000 0.000000
0.000000 0.000000 0.000000
0.000000 0.000000 0.000000
0.000000 0.000000 0.000000
0.000000 0.000000 0.000000
0.000000 0.000000 0.000000
0.000000 0.000000 0.000000
0.000000 0.000000 0.000000
0.000000 0.000000 0.000000
0.000000 0.000000 0.000000
0.000000 0.000000 0.000000
0.000000 0.000000 0.000000
0.000000 0.000000 0.000000
0.000000 0.000000 0.000000
0.000000 0.000000 0.000000
0.000000 0.000000 0.000000
0.000000 0.000000 0.000000
0.000000 0.000000 0.000000
0.000000 0.000000 0.000000
0.000000 0.000000 0.000000
0.000000 0.000000 0.000000
0.000000 0.000000 0.000000
0.000000 0.000000 0.000000
0.000000 0.000000 0.000000
0.000000 0.000000 0.000000
0.000000 0.000000 0.000000
0.000000 0.000000 0.000000
0.000000 0.000000 0.000000
0.000000 0.000000 0.000000
0.000000 0.000000 0.000000
0.000000 0.000000 0.000000
0.000000 0.000000 0.000000
0.000000 0.000000 0.000000
0.000000 0.000000 0.000000
0.000000 0.000000 0.000000
0.000000 0.000000 0.000000
0.000000 0.000000 0.000000
0.000000 0.000000 0.000000
0.000000 0.000000 0.000000
0.000000 0.000000 0.000000
0.000000 0.000000 0.000000
0.000000 0.000000 0.000000
0.000000 0.000000 0.000000
0.000000 0.000000 0.000000
0.000000 0.000000 0.000000
0.000000 0.000000 0.000000
0.000000 0.000000 0.000000
0.000000 0.000000 0.000000
0.000000 0.000000 0.000000
0.000000 0.000000 0.000000
0.000000 0.000000 0.000000
0.000000 0.000000 0.000000
0.000000 0.000000 0.000000
0.000000 0.000000 0.000000
0.000000 0.000000 0.000000
0.000000 0.000000 0.000000
0.000000 0.000000 0.000000
0.000000 0.000000 0.000000
0.000000 0.000000 0.000000
0.000000 0.000000 0.000000
0.000000 0.000000 0.000000
0.000000 0.000000 -50.000000
-50.000000 0.000000 -50.000000
-43.333357 0.000000 -45.688261
-45.491039 0.000000 -43.333356
-50.000000 0.000000 -50.000000
-36.666701 0.000000 -36.666697
-50.000000 0.000000 -45.080988
-39.969710 0.000000 -40.026998
-44.152162 0.000000 -30.000038
-50.000000 0.000000 -50.000000
-30.000043 0.000000 -44.846958
-33.448852 0.000000 -33.144776
-44.675562 0.000000 -39.868966
-36.786908 0.000000 -35.128468
-39.801152 0.000000 -23.333375
-50.000000 0.000000 -26.539013
-44.666682 0.000000 -50.000000
-23.333379 0.000000 -44.665221
-26.803836 0.000000 -39.364123
-30.225589 0.000000 -29.606064
-39.359241 0.000000 -33.368016
-33.655304 0.000000 -50.000000
-16.666709 0.000000 -16.666705
-50.000000 0.000000 -10.000029
