# vtk DataFile Version 2.0
CellBP Time: 0.84
ASCII
DATASET UNSTRUCTURED_GRID
POINTS 320 double
-50.000000 -50.000000 0.000000
-50.000000 -43.333330 0.000000
-45.688277 -45.491007 0.000000
-43.333407 -50.000000 0.000000
-50.000000 -36.666668 0.000000
-36.666814 -50.000000 0.000000
-45.081002 -39.969654 0.000000
-40.027037 -44.152118 0.000000
-30.000228 -50.000000 0.000000
-50.000000 -30.000012 0.000000
-44.846966 -33.448770 0.000000
-33.144857 -44.675516 0.000000
-39.868999 -36.786832 0.000000
-35.128527 -39.801077 0.000000
-23.333628 -50.000000 0.000000
-26.539130 -44.666643 0.000000
-50.000000 -23.333353 0.000000
-44.665225 -26.803733 0.000000
-39.364145 -30.225480 0.000000
-29.606154 -39.359163 0.000000
-33.368070 -33.655194 0.000000
-50.000000 -16.666692 0.000000
-16.666983 -50.000000 0.000000
-10.000274 -50.000000 0.000000
-19.964877 -44.588772 0.000000
-23.215890 -39.114574 0.000000
-44.691916 -20.096720 0.000000
-39.367812 -23.528001 0.000000
-34.106028 -26.936807 0.000000
-26.384313 -33.576949 0.000000
-29.156049 -28.926317 0.000000
-50.000000 -10.000033 0.000000
-44.666372 -13.410018 0.000000
-50.000000 -3.333368 0.000000
-3.333493 -50.000000 0.000000
3.333331 -50.000000 0.000000
-13.343657 -44.599112 0.000000
-6.684830 -44.610853 0.000000
-16.693781 -39.153358 0.000000
-20.107070 -33.342579 0.000000
-39.338189 -16.804735 0.000000
-34.018517 -20.274612 0.000000
-28.780701 -23.448751 0.000000
-23.510446 -27.349666 0.000000
-44.635530 -6.705539 0.000000
-39.293024 -10.101812 0.000000
-50.000000 3.333298 0.000000
-44.626878 -0.015738 0.000000
10.000158 -50.000000 0.000000
16.666944 -50.000000 0.000000
-0.016317 -44.618931 0.000000
6.651305 -44.635582 0.000000
-10.044843 -39.222657 0.000000
-3.368466 -39.220561 0.000000
-13.484522 -33.798846 0.000000
-16.710148 -28.271198 0.000000
-33.948090 -13.514250 0.000000
-28.601318 -16.892399 0.000000
-23.291049 -20.312559 0.000000
-18.660215 -23.281773 0.000000
-39.267594 -3.392924 0.000000
-33.904515 -6.796698 0.000000
-50.000000 9.999963 0.000000
-44.606905 6.673169 0.000000
-39.261060 3.325560 0.000000
-50.000000 16.666623 0.000000
23.333668 -50.000000 0.000000
30.000323 -50.000000 0.000000
13.317039 -44.663061 0.000000
19.989192 -44.700174 0.000000
3.307433 -39.245274 0.000000
9.971541 -39.290385 0.000000
-6.735460 -33.791431 0.000000
-0.032683 -33.829822 0.000000
-10.096297 -28.293825 0.000000
-13.123130 -22.898717 0.000000
-28.532948 -10.215141 0.000000
-23.066313 -13.662846 0.000000
-16.976669 -17.207678 0.000000
-33.884895 -0.065409 0.000000
-28.563235 -3.578356 0.000000
-44.564223 13.380116 0.000000
-39.190189 10.014871 0.000000
-33.905856 6.615916 0.000000
-50.000000 23.333291 0.000000
-44.557810 20.137876 0.000000
-50.000000 29.999950 0.000000
36.666915 -50.000000 0.000000
43.333478 -50.000000 0.000000
26.662873 -44.745277 0.000000
33.315033 -44.875846 0.000000
16.631436 -39.357803 0.000000
23.328007 -39.437114 0.000000
6.642504 -33.879659 0.000000
13.290670 -33.965640 0.000000
-3.345796 -28.362799 0.000000
3.356362 -28.451553 0.000000
-6.626477 -22.846534 0.000000
-9.972997 -17.314217 0.000000
-23.186086 -7.014732 0.000000
-17.809787 -10.334622 0.000000
-12.837039 -12.585503 0.000000
-28.607424 3.088393 0.000000
-23.264035 -0.467801 0.000000
-39.039165 16.746408 0.000000
-28.721551 9.926468 0.000000
-33.761860 13.318479 0.000000
-44.521675 26.716594 0.000000
-38.467731 23.892298 0.000000
-44.632073 33.085236 0.000000
-50.000000 36.666613 0.000000
-50.000000 43.333294 0.000000
39.922174 -45.069461 0.000000
45.474476 -45.660296 0.000000
50.000000 -50.000000 0.000000
36.626602 -39.981874 0.000000
30.012089 -39.458556 0.000000
19.904086 -34.092823 0.000000
26.584867 -34.319455 0.000000
9.988624 -28.514001 0.000000
16.611023 -28.659965 0.000000
0.051883 -22.958573 0.000000
6.811763 -23.159374 0.000000
-3.402805 -17.297553 0.000000
-6.876319 -11.049161 0.000000
-17.878700 -3.830867 0.000000
-12.556270 -7.036831 0.000000
-23.310914 6.074223 0.000000
-18.038100 2.458596 0.000000
-23.121516 12.095085 0.000000
-33.572074 19.788801 0.000000
-27.941138 16.884953 0.000000
-33.292632 24.722394 0.000000
-39.473267 30.052393 0.000000
-35.159988 28.137185 0.000000
-39.815686 35.101092 0.000000
-43.991532 39.981876 0.000000
-45.430944 45.684957 0.000000
-50.000000 50.000000 0.000000
44.117056 -39.898794 0.000000
50.000000 -43.333549 0.000000
39.639222 -35.047276 0.000000
33.462725 -33.424465 0.000000
22.984742 -28.817916 0.000000
28.730843 -29.247757 0.000000
13.460686 -23.122333 0.000000
20.054791 -23.438679 0.000000
3.390990 -17.586674 0.000000
10.128394 -17.840600 0.000000
0.136001 -12.044275 0.000000
-2.158614 -6.280676 0.000000
-7.449159 -3.732573 0.000000
-12.657391 -0.798602 0.000000
-18.159596 8.572234 0.000000
-12.967774 5.197308 0.000000
-18.639870 13.751890 0.000000
-21.504979 17.495089 0.000000
-28.940584 23.157923 0.000000
-24.346223 21.554686 0.000000
-30.323277 28.634483 0.000000
-34.253193 33.375349 0.000000
-36.955819 39.577941 0.000000
-39.838645 45.102600 0.000000
-43.333351 50.000000 0.000000
44.585076 -32.971913 0.000000
50.000000 -36.667016 0.000000
39.129213 -29.581692 0.000000
33.500475 -26.367626 0.000000
27.182582 -23.322236 0.000000
23.065431 -18.647876 0.000000
16.988720 -16.979284 0.000000
6.715720 -12.225607 0.000000
12.349229 -12.732038 0.000000
-3.383108 -1.500062 0.000000
3.971850 -7.075166 0.000000
1.041575 -2.133808 0.000000
-7.036030 2.337999 0.000000
-8.468451 7.859813 0.000000
-12.848582 11.934638 0.000000
-15.693475 17.700772 0.000000
-19.287236 22.983115 0.000000
-24.171018 27.354917 0.000000
-27.286312 33.626089 0.000000
-30.406605 39.161271 0.000000
-33.447723 44.738819 0.000000
-36.666727 50.000000 0.000000
44.547702 -26.499691 0.000000
50.000000 -30.000463 0.000000
39.040043 -23.179230 0.000000
33.449917 -19.900023 0.000000
28.040347 -16.574795 0.000000
22.684669 -13.124568 0.000000
17.177411 -9.912027 0.000000
10.966825 -6.660231 0.000000
-1.355746 2.300471 0.000000
6.253478 -1.737723 0.000000
2.914313 1.599021 0.000000
-3.559029 7.216126 0.000000
-6.310737 12.447831 0.000000
-9.629324 17.698923 0.000000
-13.166557 23.111472 0.000000
-17.316505 28.185094 0.000000
-20.570561 33.474425 0.000000
-23.665835 39.064005 0.000000
-26.830721 44.585368 0.000000
-30.000101 50.000000 0.000000
44.528772 -19.930385 0.000000
50.000000 -23.333842 0.000000
39.036512 -16.594020 0.000000
33.576639 -13.281235 0.000000
28.151403 -9.964873 0.000000
22.726597 -6.604370 0.000000
17.264015 -3.338092 0.000000
12.053931 0.192690 0.000000
1.933654 6.308754 0.000000
7.076164 3.872634 0.000000
-0.208211 12.012977 0.000000
-3.274113 17.528516 0.000000
-6.701835 22.978168 0.000000
-10.568372 28.267479 0.000000
-13.723920 33.661590 0.000000
-16.945592 39.080450 0.000000
-20.140359 44.548502 0.000000
-23.333474 50.000000 0.000000
44.536445 -13.303471 0.000000
50.000000 -16.667134 0.000000
39.080140 -9.966563 0.000000
33.647074 -6.640817 0.000000
28.236107 -3.307213 0.000000
22.845655 0.018316 0.000000
17.534931 3.366196 0.000000
12.221373 6.602930 0.000000
6.737150 10.884850 0.000000
3.300466 17.195355 0.000000
-0.082550 22.850228 0.000000
-3.518619 28.312337 0.000000
-6.831335 33.774160 0.000000
-10.137295 39.170543 0.000000
-13.435542 44.563615 0.000000
-16.666837 50.000000 0.000000
44.554567 -6.654558 0.000000
50.000000 -10.000324 0.000000
39.123639 -3.321224 0.000000
33.713652 0.008817 0.000000
28.333348 3.343701 0.000000
23.003111 6.694229 0.000000
17.831625 10.025280 0.000000
12.653527 12.223540 0.000000
9.792244 17.235916 0.000000
6.476755 22.722840 0.000000
3.187950 28.269309 0.000000
-0.116146 33.734624 0.000000
-3.425318 39.168514 0.000000
-6.725394 44.581892 0.000000
-10.000181 50.000000 0.000000
44.575849 0.001989 0.000000
50.000000 -3.333441 0.000000
39.166960 3.331994 0.000000
33.779287 6.655640 0.000000
28.424513 9.995437 0.000000
23.046340 13.417018 0.000000
16.947155 17.021942 0.000000
12.901386 22.671928 0.000000
9.814176 28.232631 0.000000
6.603772 33.718763 0.000000
3.286276 39.164442 0.000000
-0.030061 44.584650 0.000000
-3.333489 50.000000 0.000000
44.586849 6.665463 0.000000
50.000000 3.333458 0.000000
39.198052 9.981960 0.000000
33.843421 13.277330 0.000000
28.541605 16.585276 0.000000
23.386238 20.084682 0.000000
18.531462 23.111963 0.000000
16.393343 28.299001 0.000000
13.328616 33.754946 0.000000
9.986188 39.182028 0.000000
6.665627 44.584467 0.000000
3.333241 50.000000 0.000000
44.608947 13.317753 0.000000
50.000000 10.000314 0.000000
39.251353 16.612456 0.000000
33.931735 19.863015 0.000000
28.612040 22.926198 0.000000
23.279455 27.207598 0.000000
19.901050 33.303340 0.000000
16.573388 39.041102 0.000000
13.267873 44.526877 0.000000
10.000000 50.000000 0.000000
44.632085 19.972784 0.000000
50.000000 16.667089 0.000000
39.298417 23.262091 0.000000
34.043618 26.514749 0.000000
28.965512 28.539576 0.000000
26.202098 33.410212 0.000000
23.066390 38.968927 0.000000
19.888129 44.507131 0.000000
16.666761 50.000000 0.000000
44.639728 26.642743 0.000000
50.000000 23.333781 0.000000
39.293220 29.966613 0.000000
33.212149 33.371244 0.000000
29.411800 39.045855 0.000000
26.422003 44.505980 0.000000
23.333492 50.000000 0.000000
44.774830 33.291676 0.000000
50.000000 30.000394 0.000000
39.738016 36.596237 0.000000
34.830796 39.525515 0.000000
32.833522 44.514192 0.000000
30.000175 50.000000 0.000000
44.978081 39.877750 0.000000
50.000000 36.666956 0.000000
39.734580 43.968904 0.000000
36.666817 50.000000 0.000000
45.621104 45.409649 0.000000
50.000000 43.333497 0.000000
43.333444 50.000000 0.000000
50.000000 50.000000 0.000000
CELLS 578 2312
3 1 0 2
3 0 3 2
3 4 1 6
3 6 1 2
3 3 5 7
3 3 7 2
3 6 2 7
3 9 4 10
3 10 4 6
3 5 8 11
3 7 5 11
3 10 6 12
3 12 6 7
3 7 11 13
3 7 13 12
3 8 14 15
3 11 8 15
3 16 9 17
3 17 9 10
3 17 10 18
3 18 10 12
3 11 15 19
3 13 11 19
3 18 12 20
3 13 19 20
3 20 12 13
3 14 22 24
3 15 14 24
3 15 24 25
3 19 15 25
3 21 16 26
3 26 16 17
3 26 17 27
3 27 17 18
3 27 18 28
3 28 18 20
3 19 25 29
3 19 29 20
3 28 20 30
3 30 20 29
3 31 21 32
3 32 21 26
3 22 23 36
3 24 22 36
3 23 34 37
3 36 23 37
3 24 36 38
3 25 24 38
3 25 38 39
3 29 25 39
3 32 26 40
3 40 26 27
3 40 27 41
3 41 27 28
3 41 28 42
3 42 28 30
3 29 39 43
3 29 43 30
3 42 30 43
3 33 31 44
3 44 31 32
3 44 32 45
3 45 32 40
3 46 33 47
3 47 33 44
3 34 35 50
3 37 34 50
3 35 48 51
3 50 35 51
3 36 37 52
3 38 36 52
3 37 50 53
3 52 37 53
3 38 52 54
3 39 38 54
3 39 54 55
3 43 39 55
3 45 40 56
3 56 40 41
3 56 41 57
3 57 41 42
3 57 42 58
3 58 42 43
3 43 55 59
3 43 59 58
3 47 44 60
3 60 44 45
3 60 45 61
3 61 45 56
3 62 46 63
3 63 46 47
3 63 47 64
3 64 47 60
3 48 49 68
3 51 48 68
3 49 66 69
3 68 49 69
3 50 51 70
3 53 50 70
3 51 68 71
3 70 51 71
3 52 53 72
3 54 52 72
3 53 70 73
3 72 53 73
3 54 72 74
3 55 54 74
3 55 74 75
3 59 55 75
3 61 56 76
3 76 56 57
3 76 57 77
3 77 57 58
3 77 58 78
3 59 75 78
3 78 58 59
3 64 60 79
3 79 60 61
3 79 61 80
3 80 61 76
3 65 62 81
3 81 62 63
3 81 63 82
3 82 63 64
3 82 64 83
3 83 64 79
3 84 65 85
3 85 65 81
3 66 67 89
3 69 66 89
3 67 87 90
3 89 67 90
3 68 69 91
3 71 68 91
3 69 89 92
3 91 69 92
3 70 71 93
3 73 70 93
3 71 91 94
3 93 71 94
3 72 73 95
3 74 72 95
3 73 93 96
3 95 73 96
3 74 95 97
3 75 74 97
3 75 97 98
3 78 75 98
3 80 76 99
3 99 76 77
3 99 77 100
3 100 77 78
3 100 78 101
3 98 101 78
3 83 79 102
3 102 79 80
3 102 80 103
3 103 80 99
3 85 81 104
3 104 81 82
3 105 83 102
3 104 82 106
3 106 82 83
3 106 83 105
3 86 84 107
3 107 84 85
3 107 85 108
3 108 85 104
3 109 86 107
3 110 86 109
3 87 88 112
3 90 87 112
3 112 88 113
3 88 114 113
3 90 112 115
3 89 90 116
3 92 89 116
3 116 90 115
3 91 92 117
3 94 91 117
3 92 116 118
3 117 92 118
3 93 94 119
3 96 93 119
3 94 117 120
3 119 94 120
3 95 96 121
3 97 95 121
3 96 119 122
3 121 96 122
3 97 121 123
3 98 97 123
3 98 123 124
3 98 124 101
3 103 99 125
3 125 99 100
3 125 100 126
3 126 100 101
3 126 101 124
3 105 102 127
3 127 102 103
3 127 103 128
3 128 103 125
3 129 105 127
3 108 104 130
3 130 104 106
3 130 106 131
3 131 106 105
3 131 105 129
3 108 130 132
3 109 107 133
3 133 107 108
3 133 108 134
3 108 132 134
3 135 109 133
3 111 110 136
3 136 110 109
3 136 109 135
3 137 111 136
3 138 111 137
3 112 113 139
3 115 112 139
3 114 140 113
3 140 139 113
3 139 141 115
3 116 115 142
3 118 116 142
3 142 115 141
3 117 118 143
3 120 117 143
3 118 142 144
3 143 118 144
3 119 120 145
3 122 119 145
3 120 143 146
3 145 120 146
3 121 122 147
3 123 121 147
3 122 145 148
3 147 122 148
3 123 147 149
3 124 123 149
3 124 149 150
3 151 126 124
3 124 150 151
3 128 125 152
3 152 125 126
3 152 126 151
3 129 127 153
3 153 127 128
3 128 152 154
3 153 128 154
3 155 129 153
3 131 129 156
3 156 129 155
3 132 130 157
3 130 131 157
3 157 131 158
3 131 156 158
3 132 157 159
3 132 159 134
3 135 133 160
3 160 133 134
3 160 134 159
3 136 135 161
3 135 160 161
3 162 137 136
3 161 162 136
3 163 138 137
3 162 163 137
3 139 164 141
3 140 165 139
3 139 165 164
3 141 164 166
3 141 166 142
3 166 167 142
3 144 142 167
3 167 168 144
3 143 144 168
3 146 143 168
3 168 169 146
3 145 146 170
3 148 145 170
3 170 146 169
3 147 148 171
3 149 147 171
3 148 170 172
3 171 148 172
3 173 151 150
3 149 171 174
3 150 149 174
3 150 174 175
3 150 175 173
3 154 152 176
3 152 151 176
3 176 151 173
3 154 176 177
3 155 153 178
3 177 178 154
3 154 178 153
3 156 155 179
3 155 178 179
3 180 158 156
3 179 180 156
3 181 159 157
3 180 181 158
3 181 157 158
3 182 160 159
3 181 182 159
3 183 161 160
3 182 183 160
3 184 162 161
3 184 161 183
3 185 163 162
3 184 185 162
3 164 186 166
3 165 187 164
3 164 187 186
3 166 186 188
3 166 188 167
3 167 188 189
3 167 189 168
3 168 189 190
3 168 190 169
3 169 190 191
3 169 191 170
3 192 172 170
3 170 191 192
3 192 193 172
3 171 172 193
3 174 171 193
3 194 173 175
3 176 173 194
3 175 174 195
3 193 195 174
3 195 196 175
3 175 196 194
3 197 177 176
3 194 197 176
3 198 178 177
3 197 198 177
3 199 179 178
3 198 199 178
3 200 180 179
3 199 200 179
3 201 181 180
3 200 201 180
3 202 182 181
3 201 202 181
3 203 183 182
3 202 203 182
3 204 184 183
3 203 204 183
3 205 185 184
3 204 205 184
3 186 206 188
3 187 207 186
3 186 207 206
3 188 206 208
3 188 208 189
3 189 208 209
3 189 209 190
3 190 209 210
3 190 210 191
3 191 210 211
3 191 211 192
3 192 211 212
3 192 212 193
3 193 212 213
3 193 213 195
3 214 197 194
3 214 194 196
3 195 213 215
3 195 215 196
3 196 215 214
3 216 198 197
3 214 216 197
3 217 199 198
3 216 217 198
3 218 200 199
3 217 218 199
3 219 201 200
3 218 219 200
3 220 202 201
3 219 220 201
3 221 203 202
3 220 221 202
3 222 204 203
3 221 222 203
3 223 205 204
3 222 223 204
3 206 224 208
3 207 225 206
3 206 225 224
3 208 224 226
3 208 226 209
3 209 226 227
3 209 227 210
3 210 227 228
3 210 228 211
3 211 228 229
3 211 229 212
3 212 229 230
3 212 230 213
3 213 230 231
3 213 231 215
3 232 216 214
3 215 231 232
3 232 214 215
3 233 217 216
3 232 233 216
3 234 218 217
3 233 234 217
3 235 219 218
3 234 235 218
3 236 220 219
3 235 236 219
3 237 221 220
3 236 237 220
3 238 222 221
3 237 238 221
3 239 223 222
3 238 239 222
3 224 240 226
3 225 241 224
3 224 241 240
3 226 240 242
3 226 242 227
3 227 242 243
3 227 243 228
3 228 243 244
3 228 244 229
3 244 245 229
3 229 245 230
3 230 245 246
3 230 246 231
3 231 246 247
3 231 247 232
3 248 233 232
3 248 232 247
3 249 234 233
3 248 249 233
3 250 235 234
3 249 250 234
3 251 236 235
3 250 251 235
3 252 237 236
3 251 252 236
3 253 238 237
3 252 253 237
3 254 239 238
3 253 254 238
3 240 255 242
3 241 256 240
3 240 256 255
3 242 255 257
3 242 257 243
3 243 257 258
3 243 258 244
3 244 258 259
3 244 259 245
3 245 259 260
3 245 260 246
3 246 260 261
3 246 261 247
3 248 247 261
3 262 249 248
3 261 262 248
3 263 250 249
3 262 263 249
3 264 251 250
3 263 264 250
3 265 252 251
3 264 265 251
3 266 253 252
3 265 266 252
3 267 254 253
3 266 267 253
3 255 268 257
3 256 269 255
3 255 269 268
3 257 268 270
3 257 270 258
3 258 270 271
3 258 271 259
3 259 271 272
3 259 272 260
3 260 272 273
3 260 273 261
3 274 262 261
3 261 273 274
3 275 263 262
3 274 275 262
3 276 264 263
3 275 276 263
3 277 265 264
3 276 277 264
3 278 266 265
3 277 278 265
3 279 267 266
3 278 279 266
3 268 280 270
3 269 281 268
3 268 281 280
3 270 280 282
3 270 282 271
3 271 282 283
3 271 283 272
3 283 284 272
3 272 284 273
3 285 275 274
3 273 284 285
3 285 274 273
3 286 276 275
3 285 286 275
3 287 277 276
3 286 287 276
3 288 278 277
3 287 288 277
3 289 279 278
3 288 289 278
3 280 290 282
3 281 291 280
3 280 291 290
3 282 290 292
3 282 292 283
3 283 292 293
3 283 293 284
3 284 293 294
3 284 294 285
3 295 286 285
3 295 285 294
3 296 287 286
3 295 296 286
3 297 288 287
3 296 297 287
3 298 289 288
3 297 298 288
3 290 299 292
3 291 300 290
3 290 300 299
3 292 299 301
3 292 301 293
3 293 301 302
3 293 302 294
3 294 302 295
3 303 296 295
3 303 295 302
3 304 297 296
3 303 304 296
3 305 298 297
3 304 305 297
3 299 306 301
3 300 307 299
3 299 307 306
3 301 306 308
3 301 308 302
3 309 303 302
3 302 308 309
3 310 304 303
3 309 310 303
3 311 305 304
3 310 311 304
3 306 312 308
3 307 313 306
3 306 313 312
3 314 310 309
3 308 312 314
3 314 309 308
3 315 311 310
3 314 315 310
3 312 316 314
3 313 317 312
3 312 317 316
3 318 315 314
3 318 314 316
3 317 319 316
3 319 318 316
CELL_TYPES 578
5
5
5
5
5
5
5
5
5
5
5
5
5
5
5
5
5
5
5
5
5
5
5
5
5
5
5
5
5
5
5
5
5
5
5
5
5
5
5
5
5
5
5
5
5
5
5
5
5
5
5
5
5
5
5
5
5
5
5
5
5
5
5
5
5
5
5
5
5
5
5
5
5
5
5
5
5
5
5
5
5
5
5
5
5
5
5
5
5
5
5
5
5
5
5
5
5
5
5
5
5
5
5
5
5
5
5
5
5
5
5
5
5
5
5
5
5
5
5
5
5
5
5
5
5
5
5
5
5
5
5
5
5
5
5
5
5
5
5
5
5
5
5
5
5
5
5
5
5
5
5
5
5
5
5
5
5
5
5
5
5
5
5
5
5
5
5
5
5
5
5
5
5
5
5
5
5
5
5
5
5
5
5
5
5
5
5
5
5
5
5
5
5
5
5
5
5
5
5
5
5
5
5
5
5
5
5
5
5
5
5
5
5
5
5
5
5
5
5
5
5
5
5
5
5
5
5
5
5
5
5
5
5
5
5
5
5
5
5
5
5
5
5
5
5
5
5
5
5
5
5
5
5
5
5
5
5
5
5
5
5
5
5
5
5
5
5
5
5
5
5
5
5
5
5
5
5
5
5
5
5
5
5
5
5
5
5
5
5
5
5
5
5
5
5
5
5
5
5
5
5
5
5
5
5
5
5
5
5
5
5
5
5
5
5
5
5
5
5
5
5
5
5
5
5
5
5
5
5
5
5
5
5
5
5
5
5
5
5
5
5
5
5
5
5
5
5
5
5
5
5
5
5
5
5
5
5
5
5
5
5
5
5
5
5
5
5
5
5
5
5
5
5
5
5
5
5
5
5
5
5
5
5
5
5
5
5
5
5
5
5
5
5
5
5
5
5
5
5
5
5
5
5
5
5
5
5
5
5
5
5
5
5
5
5
5
5
5
5
5
5
5
5
5
5
5
5
5
5
5
5
5
5
5
5
5
5
5
5
5
5
5
5
5
5
5
5
5
5
5
5
5
5
5
5
5
5
5
5
5
5
5
5
5
5
5
5
5
5
5
5
5
5
5
5
5
5
5
5
5
5
5
5
5
5
5
5
5
5
5
5
5
5
5
5
5
5
5
5
5
5
5
5
5
5
5
5
5
5
5
5
5
5
5
5
5
5
5
5
5
5
5
5
5
5
5
5
5
5
5
5
5
5
5
5
5
5
5
5
5
5
5
5
5
5
5
5
5
5
5
5
5
5
5
5
5
5
5
5
5
5
5
5
5
5
5
5
5
5
5
5
5
5
5
5
5
5
5
POINT_DATA 320
SCALARS theta_e float 1
LOOKUP_TABLE default
1.000000
1.000000
1.000000
1.000000
1.000000
1.000000
1.000000
1.000000
1.000000
1.000000
1.000000
1.000000
1.000000
1.000000
1.000000
1.000000
1.000000
1.000000
1.000000
1.000000
1.000000
1.000000
1.000000
1.000000
1.000000
1.000000
1.000000
1.000000
1.000000
1.000000
0.999999
1.000000
1.000000
1.000000
1.000000
1.000000
1.000000
0.999999
0.999999
0.999999
1.000000
1.000000
0.999999
0.999999
1.000000
1.000000
1.000000
1.000000
0.999999
0.999999
0.999999
0.999999
0.999999
0.999999
0.999999
0.999999
0.999999
0.999999
0.999998
0.999999
1.000000
0.999999
1.000000
1.000000
1.000000
1.000000
0.999999
0.999999
0.999999
0.999999
0.999999
0.999999
0.999999
0.999999
1.000000
1.000001
0.999998
0.999997
1.000000
0.999999
0.999996
1.000000
1.000000
0.999999
1.000000
1.000000
1.000000
0.999999
0.999999
0.999999
0.999999
0.999999
0.999999
0.999999
0.999999
1.000001
1.000002
1.000005
1.000010
0.999995
0.999998
1.000009
0.999996
0.999992
1.000000
0.999996
0.999999
1.000000
1.000000
1.000000
1.000000
1.000000
0.999999
0.999999
0.999999
0.999999
0.999999
0.999999
0.999999
1.000001
1.000000
1.000007
1.000006
1.000015
1.000023
0.999996
1.000015
0.999991
0.999995
0.999992
1.000000
0.999997
1.000000
1.000000
1.000000
1.000000
1.000000
1.000000
1.000000
0.999999
0.999999
0.999999
0.999999
1.000000
0.999999
1.000003
1.000001
1.000009
1.000006
1.000002
1.000009
1.000030
1.000018
0.999993
1.000024
0.999991
0.999994
0.999999
0.999997
1.000000
1.000000
1.000000
1.000000
1.000000
0.999999
0.999999
0.999999
1.000000
1.000000
1.000002
1.000003
0.999985
0.999996
0.999991
0.999954
0.999948
1.000034
1.000074
1.000012
0.999994
0.999995
0.999999
1.000000
1.000000
1.000000
1.000000
0.999999
0.999999
1.000000
1.000000
1.000001
1.000002
0.999996
0.999968
0.999976
0.999941
0.999948
1.000050
1.000043
1.000002
0.999995
0.999998
0.999999
1.000000
1.000000
1.000000
1.000000
0.999999
1.000000
1.000000
1.000001
1.000000
0.999991
0.999977
0.999995
0.999979
1.000021
1.000006
0.999997
0.999997
0.999999
1.000000
1.000000
1.000000
1.000000
1.000000
1.000000
1.000001
1.000001
0.999999
0.999992
0.999993
1.000004
1.000004
0.999999
0.999997
0.999999
0.999999
1.000000
1.000000
1.000000
1.000000
1.000000
1.000001
1.000000
0.999998
0.999996
0.999998
1.000000
0.999999
0.999998
0.999999
0.999999
1.000000
1.000000
1.000000
1.000000
1.000000
1.000000
1.000000
0.999999
0.999998
0.999999
0.999999
0.999999
0.999999
0.999999
1.000000
1.000000
1.000000
1.000000
1.000000
1.000000
0.999999
0.999999
0.999999
0.999999
0.999999
0.999999
0.999999
1.000000
1.000000
1.000000
1.000000
1.000000
0.999999
0.999999
0.999999
0.999999
0.999999
1.000000
1.000000
1.000000
1.000000
1.000000
1.000000
0.999999
1.000000
1.000000
1.000000
1.000000
1.000000
1.000000
1.000000
1.000000
1.000000
1.000000
1.000000
1.000000
1.000000
1.000000
1.000000
1.000000
1.000000
1.000000
1.000000
1.000000
1.000000
1.000000
1.000000
VECTORS fa_u float
0.000000 0.000000 0.000000
0.000000 0.000000 0.000000
0.000000 0.000000 0.000000
0.000000 0.000000 0.000000
0.000000 0.000000 0.000000
0.000000 0.000000 0.000000
0.000000 0.000000 0.000000
0.000000 0.000000 0.000000
0.000000 0.000000 0.000000
0.000000 0.000000 0.000000
0.000000 0.000000 0.000000
0.000000 0.000000 0.000000
0.000000 0.000000 0.000000
0.000000 0.000000 0.000000
0.000000 0.000000 0.000000
0.000000 0.000000 0.000000
0.000000 0.000000 0.000000
0.000000 0.000000 0.000000
0.000000 0.000000 0.000000
0.000000 0.000000 0.000000
0.000000 0.000000 0.000000
0.000000 0.000000 0.000000
0.000000 0.000000 0.000000
0.000000 0.000000 0.000000
0.000000 0.000000 0.000000
0.000000 0.000000 0.000000
0.000000 0.000000 0.000000
0.000000 0.000000 0.000000
0.000000 0.000000 0.000000
0.000000 0.000000 0.000000
0.000000 0.000000 0.000000
0.000000 0.000000 0.000000
0.000000 0.000000 0.000000
0.000000 0.000000 0.000000
0.000000 0.000000 0.000000
0.000000 0.000000 0.000000
0.000000 0.000000 0.000000
0.000000 0.000000 0.000000
0.000000 0.000000 0.000000
0.000000 0.000000 0.000000
0.000000 0.000000 0.000000
0.000000 0.000000 0.000000
0.000000 0.000000 0.000000
0.000000 0.000000 0.000000
0.000000 0.000000 0.000000
0.000000 0.000000 0.000000
0.000000 0.000000 0.000000
0.000000 0.000000 0.000000
0.000000 0.000000 0.000000
0.000000 0.000000 0.000000
0.000000 0.000000 0.000000
0.000000 0.000000 0.000000
0.000000 0.000000 0.000000
0.000000 0.000000 0.000000
0.000000 0.000000 0.000000
0.000000 0.000000 0.000000
0.000000 0.000000 0.000000
0.000000 0.000000 0.000000
0.000000 0.000000 0.000000
0.000000 0.000000 0.000000
0.000000 0.000000 0.000000
0.000000 0.000000 0.000000
0.000000 0.000000 0.000000
0.000000 0.000000 0.000000
0.000000 0.000000 0.000000
0.000000 0.000000 0.000000
0.000000 0.000000 0.000000
0.000000 0.000000 0.000000
0.000000 0.000000 0.000000
0.000000 0.000000 0.000000
0.000000 0.000000 0.000000
0.000000 0.000000 0.000000
0.000000 0.000000 0.000000
0.000000 0.000000 0.000000
0.000000 0.000000 0.000000
0.000000 0.000000 0.000000
0.000000 0.000000 0.000000
0.000000 0.000000 0.000000
0.000000 0.000000 0.000000
0.000000 0.000000 0.000000
0.000000 0.000000 0.000000
0.000000 0.000000 0.000000
0.000000 0.000000 0.000000
0.000000 0.000000 0.000000
0.000000 0.000000 0.000000
0.000000 0.000000 0.000000
0.000000 0.000000 0.000000
0.000000 0.000000 0.000000
0.000000 0.000000 0.000000
0.000000 0.000000 0.000000
0.000000 0.000000 0.000000
0.000000 0.000000 0.000000
0.000000 0.000000 0.000000
0.000000 0.000000 0.000000
0.000000 0.000000 0.000000
0.000000 0.000000 0.000000
0.000000 0.000000 0.000000
0.000000 0.000000 0.000000
0.000000 0.000000 0.000000
0.000000 0.000000 0.000000
0.000000 0.000000 0.000000
0.000000 0.000000 0.000000
0.000000 0.000000 0.000000
0.000000 0.000000 0.000000
0.000000 0.000000 0.000000
0.000000 0.000000 0.000000
0.000000 0.000000 0.000000
0.000000 0.000000 0.000000
0.000000 0.000000 0.000000
0.000000 0.000000 0.000000
0.000000 0.000000 0.000000
0.000000 0.000000 0.000000
0.000000 0.000000 0.000000
0.000000 0.000000 0.000000
0.000000 0.000000 0.000000
0.000000 0.000000 0.000000
0.000000 0.000000 0.000000
0.000000 0.000000 0.000000
0.000000 0.000000 0.000000
0.000000 0.000000 0.000000
0.000000 0.000000 0.000000
0.000000 0.000000 0.000000
0.000000 0.000000 0.000000
0.000000 0.000000 0.000000
0.000000 0.000000 0.000000
0.000000 0.000000 0.000000
0.000000 0.000000 0.000000
0.000000 0.000000 0.000000
0.000000 0.000000 0.000000
0.000000 0.000000 0.000000
0.000000 0.000000 0.000000
0.000000 0.000000 0.000000
0.000000 0.000000 0.000000
0.000000 0.000000 0.000000
0.000000 0.000000 0.000000
0.000000 0.000000 0.000000
0.000000 0.000000 0.000000
0.000000 0.000000 0.000000
0.000000 0.000000 0.000000
0.000000 0.000000 0.000000
0.000000 0.000000 0.000000
0.000000 0.000000 0.000000
0.000000 0.000000 0.000000
0.000000 0.000000 0.000000
0.000000 0.000000 0.000000
0.000000 0.000000 0.000000
0.000000 0.000000 0.000000
0.000000 0.000000 0.000000
0.000000 0.000000 0.000000
0.000000 0.000000 0.000000
0.000000 0.000000 0.000000
0.000000 0.000000 0.000000
0.000000 0.000000 0.000000
0.000000 0.000000 0.000000
0.000000 0.000000 0.000000
0.000000 0.000000 0.000000
0.000000 0.000000 0.000000
0.000000 0.000000 0.000000
0.000000 0.000000 0.000000
0.000000 0.000000 0.000000
0.000000 0.000000 0.000000
0.000000 0.000000 0.000000
0.000000 0.000000 0.000000
0.000000 0.000000 0.000000
0.000000 0.000000 0.000000
0.000000 0.000000 0.000000
0.000000 0.000000 0.000000
0.000000 0.000000 0.000000
0.000000 0.000000 0.000000
0.000000 0.000000 0.000000
0.000000 0.000000 0.000000
0.000000 0.000000 0.000000
0.000000 0.000000 0.000000
0.000000 0.000000 0.000000
0.000000 0.000000 0.000000
0.000000 0.000000 0.000000
0.000000 0.000000 0.000000
0.000000 0.000000 0.000000
0.000000 0.000000 0.000000
0.000000 0.000000 0.000000
0.000000 0.000000 0.000000
0.000000 0.000000 0.000000
0.000000 0.000000 0.000000
0.000000 0.000000 0.000000
0.000000 0.000000 0.000000
0.000000 0.000000 0.000000
0.000000 0.000000 0.000000
0.000000 0.000000 0.000000
0.000000 0.000000 0.000000
0.000000 0.000000 0.000000
0.000000 0.000000 0.000000
0.000000 0.000000 0.000000
0.000000 0.000000 0.000000
0.000000 0.000000 0.000000
0.000000 0.000000 0.000000
0.000000 0.000000 0.000000
0.000000 0.000000 0.000000
0.000000 0.000000 0.000000
0.000000 0.000000 0.000000
0.000000 0.000000 0.000000
0.000000 0.000000 0.000000
0.000000 0.000000 0.000000
0.000000 0.000000 0.000000
0.000000 0.000000 0.000000
0.000000 0.000000 0.000000
0.000000 0.000000 0.000000
0.000000 0.000000 0.000000
0.000000 0.000000 0.000000
0.000000 0.000000 0.000000
0.000000 0.000000 0.000000
0.000000 0.000000 0.000000
0.000000 0.000000 0.000000
0.000000 0.000000 0.000000
0.000000 0.000000 0.000000
0.000000 0.000000 0.000000
0.000000 0.000000 0.000000
0.000000 0.000000 0.000000
0.000000 0.000000 0.000000
0.000000 0.000000 0.000000
0.000000 0.000000 0.000000
0.000000 0.000000 0.000000
0.000000 0.000000 0.000000
0.000000 0.000000 0.000000
0.000000 0.000000 0.000000
0.000000 0.000000 0.000000
0.000000 0.000000 0.000000
0.000000 0.000000 0.000000
0.000000 0.000000 0.000000
0.000000 0.000000 0.000000
0.000000 0.000000 0.000000
0.000000 0.000000 0.000000
0.000000 0.000000 0.000000
0.000000 0.000000 0.000000
0.000000 0.000000 0.000000
0.000000 0.000000 0.000000
0.000000 0.000000 0.000000
0.000000 0.000000 0.000000
0.000000 0.000000 0.000000
0.000000 0.000000 0.000000
0.000000 0.000000 0.000000
0.000000 0.000000 0.000000
0.000000 0.000000 0.000000
0.000000 0.000000 0.000000
0.000000 0.000000 0.000000
0.000000 0.000000 0.000000
0.000000 0.000000 0.000000
0.000000 0.000000 0.000000
0.000000 0.000000 0.000000
0.000000 0.000000 0.000000
0.000000 0.000000 0.000000
0.000000 0.000000 0.000000
0.000000 0.000000 0.000000
0.000000 0.000000 0.000000
0.000000 0.000000 0.000000
0.000000 0.000000 0.000000
0.000000 0.000000 0.000000
0.000000 0.000000 0.000000
0.000000 0.000000 0.000000
0.000000 0.000000 0.000000
0.000000 0.000000 0.000000
0.000000 0.000000 0.000000
0.000000 0.000000 0.000000
0.000000 0.000000 0.000000
0.000000 0.000000 0.000000
0.000000 0.000000 0.000000
0.000000 0.000000 0.000000
0.000000 0.000000 0.000000
0.000000 0.000000 0.000000
0.000000 0.000000 0.000000
0.000000 0.000000 0.000000
0.000000 0.000000 0.000000
0.000000 0.000000 0.000000
0.000000 0.000000 0.000000
0.000000 0.000000 0.000000
0.000000 0.000000 0.000000
0.000000 0.000000 0.000000
0.000000 0.000000 0.000000
0.000000 0.000000 0.000000
0.000000 0.000000 0.000000
0.000000 0.000000 0.000000
0.000000 0.000000 0.000000
0.000000 0.000000 0.000000
0.000000 0.000000 0.000000
0.000000 0.000000 0.000000
0.000000 0.000000 0.000000
0.000000 0.000000 0.000000
0.000000 0.000000 0.000000
0.000000 0.000000 0.000000
0.000000 0.000000 0.000000
0.000000 0.000000 0.000000
0.000000 0.000000 0.000000
0.000000 0.000000 0.000000
0.000000 0.000000 0.000000
0.000000 0.000000 0.000000
0.000000 0.000000 0.000000
0.000000 0.000000 0.000000
0.000000 0.000000 -50.000000
-50.000000 0.000000 -50.000000
-43.333330 0.000000 -45.688277
-45.491007 0.000000 -43.333407
-50.000000 0.000000 -50.000000
-36.666668 0.000000 -36.666814
-50.000000 0.000000 -45.081002
-39.969654 0.000000 -40.027037
-44.152118 0.000000 -30.000228
-50.000000 0.000000 -50.000000
-30.000012 0.000000 -44.846966
-33.448770 0.000000 -33.144857
-44.675516 0.000000 -39.868999
-36.786832 0.000000 -35.128527
-39.801077 0.000000 -23.333628
-50.000000 0.000000 -26.539130
-44.666643 0.000000 -50.000000
-23.333353 0.000000 -44.665225
-26.803733 0.000000 -39.364145
-30.225480 0.000000 -29.606154
-39.359163 0.000000 -33.368070
-33.655194 0.000000 -50.000000
-16.666692 0.000000 -16.666983
-50.000000 0.000000 -10.000274
