# vtk DataFile Version 2.0
CellBP Time: 0.64
ASCII
DATASET UNSTRUCTURED_GRID
POINTS 320 double
-50.000000 -50.000000 0.000000
-50.000000 -43.333349 0.000000
-45.688267 -45.491020 0.000000
-43.333391 -50.000000 0.000000
-50.000000 -36.666708 0.000000
-36.666780 -50.000000 0.000000
-45.080989 -39.969681 0.000000
-40.027013 -44.152135 0.000000
-30.000178 -50.000000 0.000000
-50.000000 -30.000070 0.000000
-44.846955 -33.448812 0.000000
-33.144818 -44.675531 0.000000
-39.868976 -36.786867 0.000000
-35.128493 -39.801106 0.000000
-23.333565 -50.000000 0.000000
-26.539078 -44.666657 0.000000
-50.000000 -23.333423 0.000000
-44.665219 -26.803786 0.000000
-39.364127 -30.225532 0.000000
-29.606106 -39.359192 0.000000
-33.368033 -33.655239 0.000000
-50.000000 -16.666764 0.000000
-16.666920 -50.000000 0.000000
-10.000227 -50.000000 0.000000
-19.964815 -44.588780 0.000000
-23.215828 -39.114598 0.000000
-44.691917 -20.096780 0.000000
-39.367805 -23.528067 0.000000
-34.106000 -26.936873 0.000000
-26.384258 -33.576995 0.000000
-29.156002 -28.926379 0.000000
-50.000000 -10.000088 0.000000
-44.666382 -13.410078 0.000000
-50.000000 -3.333387 0.000000
-3.333481 -50.000000 0.000000
3.333300 -50.000000 0.000000
-13.343590 -44.599112 0.000000
-6.684764 -44.610844 0.000000
-16.693707 -39.153365 0.000000
-20.106992 -33.342611 0.000000
-39.338194 -16.804808 0.000000
-34.018507 -20.274696 0.000000
-28.780662 -23.448836 0.000000
-23.510377 -27.349742 0.000000
-44.635549 -6.705587 0.000000
-39.293053 -10.101885 0.000000
-50.000000 3.333329 0.000000
-44.626904 -0.015767 0.000000
10.000087 -50.000000 0.000000
16.666848 -50.000000 0.000000
-0.016255 -44.618917 0.000000
6.651360 -44.635566 0.000000
-10.044765 -39.222650 0.000000
-3.368392 -39.220540 0.000000
-13.484426 -33.798849 0.000000
-16.710036 -28.271246 0.000000
-33.948105 -13.514345 0.000000
-28.601303 -16.892512 0.000000
-23.290992 -20.312674 0.000000
-18.660117 -23.281883 0.000000
-39.267643 -3.392974 0.000000
-33.904582 -6.796793 0.000000
-50.000000 10.000042 0.000000
-44.606932 6.673165 0.000000
-39.261120 3.325542 0.000000
-50.000000 16.666737 0.000000
23.333564 -50.000000 0.000000
30.000229 -50.000000 0.000000
13.317086 -44.663047 0.000000
19.989229 -44.700163 0.000000
3.307492 -39.245247 0.000000
9.971586 -39.290362 0.000000
-6.735368 -33.791408 0.000000
-0.032603 -33.829778 0.000000
-10.096173 -28.293806 0.000000
-13.122984 -22.898735 0.000000
-28.532982 -10.215287 0.000000
-23.066263 -13.663024 0.000000
-16.976560 -17.207872 0.000000
-33.884992 -0.065458 0.000000
-28.563373 -3.578492 0.000000
-44.564246 13.380137 0.000000
-39.190247 10.014896 0.000000
-33.905969 6.615936 0.000000
-50.000000 23.333414 0.000000
-44.557825 20.137912 0.000000
-50.000000 30.000061 0.000000
36.666846 -50.000000 0.000000
43.333437 -50.000000 0.000000
26.662899 -44.745272 0.000000
33.315051 -44.875848 0.000000
16.631468 -39.357781 0.000000
23.328029 -39.437099 0.000000
6.642563 -33.879616 0.000000
13.290702 -33.965604 0.000000
-3.345691 -28.362749 0.000000
3.356459 -28.451486 0.000000
-6.626310 -22.846474 0.000000
-9.972596 -17.314290 0.000000
-23.186171 -7.015003 0.000000
-17.809604 -10.334861 0.000000
-12.836911 -12.585953 0.000000
-28.607618 3.088384 0.000000
-23.264355 -0.467957 0.000000
-39.039204 16.746458 0.000000
-28.721693 9.926544 0.000000
-33.761934 13.318542 0.000000
-44.521682 26.716633 0.000000
-38.467747 23.892356 0.000000
-44.632066 33.085271 0.000000
-50.000000 36.666695 0.000000
-50.000000 43.333349 0.000000
39.922186 -45.069464 0.000000
45.474488 -45.660303 0.000000
50.000000 -50.000000 0.000000
36.626615 -39.981871 0.000000
30.012109 -39.458549 0.000000
19.904099 -34.092794 0.000000
26.584881 -34.319443 0.000000
9.988682 -28.513928 0.000000
16.611014 -28.659907 0.000000
0.052006 -22.958507 0.000000
6.811875 -23.159256 0.000000
-3.402572 -17.297422 0.000000
-6.876528 -11.047215 0.000000
-17.879028 -3.831407 0.000000
-12.555480 -7.036925 0.000000
-23.311193 6.074269 0.000000
-18.038695 2.458428 0.000000
-23.121710 12.095329 0.000000
-33.572114 19.788885 0.000000
-27.941208 16.885097 0.000000
-33.292637 24.722470 0.000000
-39.473260 30.052438 0.000000
-35.159981 28.137247 0.000000
-39.815668 35.101128 0.000000
-43.991518 39.981897 0.000000
-45.430928 45.684965 0.000000
-50.000000 50.000000 0.000000
44.117067 -39.898798 0.000000
50.000000 -43.333495 0.000000
39.639235 -35.047270 0.000000
33.462737 -33.424455 0.000000
22.984750 -28.817903 0.000000
28.730853 -29.247743 0.000000
13.460644 -23.122167 0.000000
20.054786 -23.438689 0.000000
3.391130 -17.586637 0.000000
10.128157 -17.840282 0.000000
0.136821 -12.042781 0.000000
-2.161337 -6.280838 0.000000
-7.446579 -3.724872 0.000000
-12.658079 -0.799111 0.000000
-18.160143 8.572670 0.000000
-12.969157 5.197906 0.000000
-18.639871 13.752207 0.000000
-21.504975 17.495299 0.000000
-28.940586 23.158034 0.000000
-24.346219 21.554829 0.000000
-30.323263 28.634562 0.000000
-34.253173 33.375402 0.000000
-36.955793 39.577973 0.000000
-39.838618 45.102614 0.000000
-43.333369 50.000000 0.000000
44.585086 -32.971908 0.000000
50.000000 -36.666931 0.000000
39.129219 -29.581684 0.000000
33.500481 -26.367611 0.000000
27.182591 -23.322214 0.000000
23.065440 -18.647868 0.000000
16.988709 -16.979362 0.000000
6.714984 -12.223720 0.000000
12.349194 -12.732216 0.000000
-3.380171 -1.497730 0.000000
3.967337 -7.071343 0.000000
1.039907 -2.133460 0.000000
-7.035711 2.339316 0.000000
-8.467687 7.859550 0.000000
-12.848427 11.934804 0.000000
-15.693371 17.700985 0.000000
-19.287189 22.983263 0.000000
-24.170980 27.355023 0.000000
-27.286273 33.626154 0.000000
-30.406564 39.161309 0.000000
-33.447683 44.738837 0.000000
-36.666731 50.000000 0.000000
44.547704 -26.499682 0.000000
50.000000 -30.000352 0.000000
39.040043 -23.179213 0.000000
33.449909 -19.900004 0.000000
28.040326 -16.574760 0.000000
22.684584 -13.124571 0.000000
17.177311 -9.912061 0.000000
10.965923 -6.659343 0.000000
-1.353255 2.300192 0.000000
6.252346 -1.740535 0.000000
2.914797 1.598691 0.000000
-3.557391 7.217361 0.000000
-6.310741 12.448889 0.000000
-9.629157 17.699634 0.000000
-13.166478 23.111758 0.000000
-17.316429 28.185237 0.000000
-20.570490 33.474505 0.000000
-23.665772 39.064050 0.000000
-26.830664 44.585388 0.000000
-30.000083 50.000000 0.000000
44.528770 -19.930373 0.000000
50.000000 -23.333721 0.000000
39.036507 -16.594001 0.000000
33.576633 -13.281218 0.000000
28.151400 -9.964870 0.000000
22.726669 -6.604419 0.000000
17.264451 -3.337994 0.000000
12.051963 0.191956 0.000000
1.929239 6.305893 0.000000
7.072312 3.868856 0.000000
-0.206922 12.009642 0.000000
-3.273107 17.528650 0.000000
-6.701464 22.978306 0.000000
-10.568187 28.267590 0.000000
-13.723796 33.661654 0.000000
-16.945498 39.080489 0.000000
-20.140281 44.548520 0.000000
-23.333426 50.000000 0.000000
44.536437 -13.303455 0.000000
50.000000 -16.667018 0.000000
39.080123 -9.966538 0.000000
33.647044 -6.640784 0.000000
28.236064 -3.307152 0.000000
22.845649 0.018519 0.000000
17.534663 3.366276 0.000000
12.220432 6.602580 0.000000
6.736416 10.880725 0.000000
3.301046 17.194826 0.000000
-0.082111 22.850144 0.000000
-3.518375 28.312339 0.000000
-6.831171 33.774184 0.000000
-10.137174 39.170567 0.000000
-13.435447 44.563628 0.000000
-16.666758 50.000000 0.000000
44.554553 -6.654540 0.000000
50.000000 -10.000235 0.000000
39.123616 -3.321202 0.000000
33.713616 0.008844 0.000000
28.333313 3.343777 0.000000
23.002930 6.694287 0.000000
17.831358 10.025189 0.000000
12.653270 12.223589 0.000000
9.792020 17.235457 0.000000
6.476948 22.722575 0.000000
3.188165 28.269226 0.000000
-0.115982 33.734597 0.000000
-3.425186 39.168513 0.000000
-6.725286 44.581894 0.000000
-10.000082 50.000000 0.000000
44.575833 0.002006 0.000000
50.000000 -3.333395 0.000000
39.166933 3.332011 0.000000
33.779254 6.655667 0.000000
28.424420 9.995439 0.000000
23.046217 13.416971 0.000000
16.947070 17.021838 0.000000
12.901390 22.671659 0.000000
9.814286 28.232476 0.000000
6.603906 33.718696 0.000000
3.286399 39.164414 0.000000
-0.029951 44.584640 0.000000
-3.333395 50.000000 0.000000
44.586832 6.665479 0.000000
50.000000 3.333452 0.000000
39.198030 9.981972 0.000000
33.843371 13.277321 0.000000
28.541552 16.585236 0.000000
23.386192 20.084600 0.000000
18.531443 23.111868 0.000000
16.393358 28.298884 0.000000
13.328692 33.754861 0.000000
9.986287 39.181986 0.000000
6.665729 44.584447 0.000000
3.333301 50.000000 0.000000
44.608933 13.317766 0.000000
50.000000 10.000258 0.000000
39.251327 16.612452 0.000000
33.931707 19.862992 0.000000
28.612011 22.926149 0.000000
23.279448 27.207529 0.000000
19.901088 33.303271 0.000000
16.573457 39.041055 0.000000
13.267962 44.526854 0.000000
10.000008 50.000000 0.000000
44.632073 19.972789 0.000000
50.000000 16.666994 0.000000
39.298404 23.262080 0.000000
34.043609 26.514723 0.000000
28.965513 28.539533 0.000000
26.202120 33.410167 0.000000
23.066436 38.968891 0.000000
19.888197 44.507110 0.000000
16.666717 50.000000 0.000000
44.639726 26.642743 0.000000
50.000000 23.333662 0.000000
39.293221 29.966601 0.000000
33.212162 33.371221 0.000000
29.411833 39.045831 0.000000
26.422052 44.505966 0.000000
23.333414 50.000000 0.000000
44.774836 33.291673 0.000000
50.000000 30.000277 0.000000
39.738027 36.596228 0.000000
34.830819 39.525505 0.000000
32.833556 44.514187 0.000000
30.000089 50.000000 0.000000
44.978093 39.877750 0.000000
50.000000 36.666862 0.000000
39.734606 43.968904 0.000000
36.666744 50.000000 0.000000
45.621121 45.409657 0.000000
50.000000 43.333438 0.000000
43.333391 50.000000 0.000000
50.000000 50.000000 0.000000
CELLS 578 2312
3 1 0 2
3 0 3 2
3 4 1 6
3 6 1 2
3 3 5 7
3 3 7 2
3 6 2 7
3 9 4 10
3 10 4 6
3 5 8 11
3 7 5 11
3 10 6 12
3 12 6 7
3 7 11 13
3 7 13 12
3 8 14 15
3 11 8 15
3 16 9 17
3 17 9 10
3 17 10 18
3 18 10 12
3 11 15 19
3 13 11 19
3 18 12 20
3 13 19 20
3 20 12 13
3 14 22 24
3 15 14 24
3 15 24 25
3 19 15 25
3 21 16 26
3 26 16 17
3 26 17 27
3 27 17 18
3 27 18 28
3 28 18 20
3 19 25 29
3 19 29 20
3 28 20 30
3 30 20 29
3 31 21 32
3 32 21 26
3 22 23 36
3 24 22 36
3 23 34 37
3 36 23 37
3 24 36 38
3 25 24 38
3 25 38 39
3 29 25 39
3 32 26 40
3 40 26 27
3 40 27 41
3 41 27 28
3 41 28 42
3 42 28 30
3 29 39 43
3 29 43 30
3 42 30 43
3 33 31 44
3 44 31 32
3 44 32 45
3 45 32 40
3 46 33 47
3 47 33 44
3 34 35 50
3 37 34 50
3 35 48 51
3 50 35 51
3 36 37 52
3 38 36 52
3 37 50 53
3 52 37 53
3 38 52 54
3 39 38 54
3 39 54 55
3 43 39 55
3 45 40 56
3 56 40 41
3 56 41 57
3 57 41 42
3 57 42 58
3 58 42 43
3 43 55 59
3 43 59 58
3 47 44 60
3 60 44 45
3 60 45 61
3 61 45 56
3 62 46 63
3 63 46 47
3 63 47 64
3 64 47 60
3 48 49 68
3 51 48 68
3 49 66 69
3 68 49 69
3 50 51 70
3 53 50 70
3 51 68 71
3 70 51 71
3 52 53 72
3 54 52 72
3 53 70 73
3 72 53 73
3 54 72 74
3 55 54 74
3 55 74 75
3 59 55 75
3 61 56 76
3 76 56 57
3 76 57 77
3 77 57 58
3 77 58 78
3 59 75 78
3 78 58 59
3 64 60 79
3 79 60 61
3 79 61 80
3 80 61 76
3 65 62 81
3 81 62 63
3 81 63 82
3 82 63 64
3 82 64 83
3 83 64 79
3 84 65 85
3 85 65 81
3 66 67 89
3 69 66 89
3 67 87 90
3 89 67 90
3 68 69 91
3 71 68 91
3 69 89 92
3 91 69 92
3 70 71 93
3 73 70 93
3 71 91 94
3 93 71 94
3 72 73 95
3 74 72 95
3 73 93 96
3 95 73 96
3 74 95 97
3 75 74 97
3 75 97 98
3 78 75 98
3 80 76 99
3 99 76 77
3 99 77 100
3 100 77 78
3 100 78 101
3 98 101 78
3 83 79 102
3 102 79 80
3 102 80 103
3 103 80 99
3 85 81 104
3 104 81 82
3 105 83 102
3 104 82 106
3 106 82 83
3 106 83 105
3 86 84 107
3 107 84 85
3 107 85 108
3 108 85 104
3 109 86 107
3 110 86 109
3 87 88 112
3 90 87 112
3 112 88 113
3 88 114 113
3 90 112 115
3 89 90 116
3 92 89 116
3 116 90 115
3 91 92 117
3 94 91 117
3 92 116 118
3 117 92 118
3 93 94 119
3 96 93 119
3 94 117 120
3 119 94 120
3 95 96 121
3 97 95 121
3 96 119 122
3 121 96 122
3 97 121 123
3 98 97 123
3 98 123 124
3 98 124 101
3 103 99 125
3 125 99 100
3 125 100 126
3 126 100 101
3 126 101 124
3 105 102 127
3 127 102 103
3 127 103 128
3 128 103 125
3 129 105 127
3 108 104 130
3 130 104 106
3 130 106 131
3 131 106 105
3 131 105 129
3 108 130 132
3 109 107 133
3 133 107 108
3 133 108 134
3 108 132 134
3 135 109 133
3 111 110 136
3 136 110 109
3 136 109 135
3 137 111 136
3 138 111 137
3 112 113 139
3 115 112 139
3 114 140 113
3 140 139 113
3 139 141 115
3 116 115 142
3 118 116 142
3 142 115 141
3 117 118 143
3 120 117 143
3 118 142 144
3 143 118 144
3 119 120 145
3 122 119 145
3 120 143 146
3 145 120 146
3 121 122 147
3 123 121 147
3 122 145 148
3 147 122 148
3 123 147 149
3 124 123 149
3 124 149 150
3 151 126 124
3 124 150 151
3 128 125 152
3 152 125 126
3 152 126 151
3 129 127 153
3 153 127 128
3 128 152 154
3 153 128 154
3 155 129 153
3 131 129 156
3 156 129 155
3 132 130 157
3 130 131 157
3 157 131 158
3 131 156 158
3 132 157 159
3 132 159 134
3 135 133 160
3 160 133 134
3 160 134 159
3 136 135 161
3 135 160 161
3 162 137 136
3 161 162 136
3 163 138 137
3 162 163 137
3 139 164 141
3 140 165 139
3 139 165 164
3 141 164 166
3 141 166 142
3 166 167 142
3 144 142 167
3 167 168 144
3 143 144 168
3 146 143 168
3 168 169 146
3 145 146 170
3 148 145 170
3 170 146 169
3 147 148 171
3 149 147 171
3 148 170 172
3 171 148 172
3 173 151 150
3 149 171 174
3 150 149 174
3 150 174 175
3 150 175 173
3 154 152 176
3 152 151 176
3 176 151 173
3 154 176 177
3 155 153 178
3 177 178 154
3 154 178 153
3 156 155 179
3 155 178 179
3 180 158 156
3 179 180 156
3 181 159 157
3 180 181 158
3 181 157 158
3 182 160 159
3 181 182 159
3 183 161 160
3 182 183 160
3 184 162 161
3 184 161 183
3 185 163 162
3 184 185 162
3 164 186 166
3 165 187 164
3 164 187 186
3 166 186 188
3 166 188 167
3 167 188 189
3 167 189 168
3 168 189 190
3 168 190 169
3 169 190 191
3 169 191 170
3 192 172 170
3 170 191 192
3 192 193 172
3 171 172 193
3 174 171 193
3 194 173 175
3 176 173 194
3 175 174 195
3 193 195 174
3 195 196 175
3 175 196 194
3 197 177 176
3 194 197 176
3 198 178 177
3 197 198 177
3 199 179 178
3 198 199 178
3 200 180 179
3 199 200 179
3 201 181 180
3 200 201 180
3 202 182 181
3 201 202 181
3 203 183 182
3 202 203 182
3 204 184 183
3 203 204 183
3 205 185 184
3 204 205 184
3 186 206 188
3 187 207 186
3 186 207 206
3 188 206 208
3 188 208 189
3 189 208 209
3 189 209 190
3 190 209 210
3 190 210 191
3 191 210 211
3 191 211 192
3 192 211 212
3 192 212 193
3 193 212 213
3 193 213 195
3 214 197 194
3 214 194 196
3 195 213 215
3 195 215 196
3 196 215 214
3 216 198 197
3 214 216 197
3 217 199 198
3 216 217 198
3 218 200 199
3 217 218 199
3 219 201 200
3 218 219 200
3 220 202 201
3 219 220 201
3 221 203 202
3 220 221 202
3 222 204 203
3 221 222 203
3 223 205 204
3 222 223 204
3 206 224 208
3 207 225 206
3 206 225 224
3 208 224 226
3 208 226 209
3 209 226 227
3 209 227 210
3 210 227 228
3 210 228 211
3 211 228 229
3 211 229 212
3 212 229 230
3 212 230 213
3 213 230 231
3 213 231 215
3 232 216 214
3 215 231 232
3 232 214 215
3 233 217 216
3 232 233 216
3 234 218 217
3 233 234 217
3 235 219 218
3 234 235 218
3 236 220 219
3 235 236 219
3 237 221 220
3 236 237 220
3 238 222 221
3 237 238 221
3 239 223 222
3 238 239 222
3 224 240 226
3 225 241 224
3 224 241 240
3 226 240 242
3 226 242 227
3 227 242 243
3 227 243 228
3 228 243 244
3 228 244 229
3 244 245 229
3 229 245 230
3 230 245 246
3 230 246 231
3 231 246 247
3 231 247 232
3 248 233 232
3 248 232 247
3 249 234 233
3 248 249 233
3 250 235 234
3 249 250 234
3 251 236 235
3 250 251 235
3 252 237 236
3 251 252 236
3 253 238 237
3 252 253 237
3 254 239 238
3 253 254 238
3 240 255 242
3 241 256 240
3 240 256 255
3 242 255 257
3 242 257 243
3 243 257 258
3 243 258 244
3 244 258 259
3 244 259 245
3 245 259 260
3 245 260 246
3 246 260 261
3 246 261 247
3 248 247 261
3 262 249 248
3 261 262 248
3 263 250 249
3 262 263 249
3 264 251 250
3 263 264 250
3 265 252 251
3 264 265 251
3 266 253 252
3 265 266 252
3 267 254 253
3 266 267 253
3 255 268 257
3 256 269 255
3 255 269 268
3 257 268 270
3 257 270 258
3 258 270 271
3 258 271 259
3 259 271 272
3 259 272 260
3 260 272 273
3 260 273 261
3 274 262 261
3 261 273 274
3 275 263 262
3 274 275 262
3 276 264 263
3 275 276 263
3 277 265 264
3 276 277 264
3 278 266 265
3 277 278 265
3 279 267 266
3 278 279 266
3 268 280 270
3 269 281 268
3 268 281 280
3 270 280 282
3 270 282 271
3 271 282 283
3 271 283 272
3 283 284 272
3 272 284 273
3 285 275 274
3 273 284 285
3 285 274 273
3 286 276 275
3 285 286 275
3 287 277 276
3 286 287 276
3 288 278 277
3 287 288 277
3 289 279 278
3 288 289 278
3 280 290 282
3 281 291 280
3 280 291 290
3 282 290 292
3 282 292 283
3 283 292 293
3 283 293 284
3 284 293 294
3 284 294 285
3 295 286 285
3 295 285 294
3 296 287 286
3 295 296 286
3 297 288 287
3 296 297 287
3 298 289 288
3 297 298 288
3 290 299 292
3 291 300 290
3 290 300 299
3 292 299 301
3 292 301 293
3 293 301 302
3 293 302 294
3 294 302 295
3 303 296 295
3 303 295 302
3 304 297 296
3 303 304 296
3 305 298 297
3 304 305 297
3 299 306 301
3 300 307 299
3 299 307 306
3 301 306 308
3 301 308 302
3 309 303 302
3 302 308 309
3 310 304 303
3 309 310 303
3 311 305 304
3 310 311 304
3 306 312 308
3 307 313 306
3 306 313 312
3 314 310 309
3 308 312 314
3 314 309 308
3 315 311 310
3 314 315 310
3 312 316 314
3 313 317 312
3 312 317 316
3 318 315 314
3 318 314 316
3 317 319 316
3 319 318 316
CELL_TYPES 578
5
5
5
5
5
5
5
5
5
5
5
5
5
5
5
5
5
5
5
5
5
5
5
5
5
5
5
5
5
5
5
5
5
5
5
5
5
5
5
5
5
5
5
5
5
5
5
5
5
5
5
5
5
5
5
5
5
5
5
5
5
5
5
5
5
5
5
5
5
5
5
5
5
5
5
5
5
5
5
5
5
5
5
5
5
5
5
5
5
5
5
5
5
5
5
5
5
5
5
5
5
5
5
5
5
5
5
5
5
5
5
5
5
5
5
5
5
5
5
5
5
5
5
5
5
5
5
5
5
5
5
5
5
5
5
5
5
5
5
5
5
5
5
5
5
5
5
5
5
5
5
5
5
5
5
5
5
5
5
5
5
5
5
5
5
5
5
5
5
5
5
5
5
5
5
5
5
5
5
5
5
5
5
5
5
5
5
5
5
5
5
5
5
5
5
5
5
5
5
5
5
5
5
5
5
5
5
5
5
5
5
5
5
5
5
5
5
5
5
5
5
5
5
5
5
5
5
5
5
5
5
5
5
5
5
5
5
5
5
5
5
5
5
5
5
5
5
5
5
5
5
5
5
5
5
5
5
5
5
5
5
5
5
5
5
5
5
5
5
5
5
5
5
5
5
5
5
5
5
5
5
5
5
5
5
5
5
5
5
5
5
5
5
5
5
5
5
5
5
5
5
5
5
5
5
5
5
5
5
5
5
5
5
5
5
5
5
5
5
5
5
5
5
5
5
5
5
5
5
5
5
5
5
5
5
5
5
5
5
5
5
5
5
5
5
5
5
5
5
5
5
5
5
5
5
5
5
5
5
5
5
5
5
5
5
5
5
5
5
5
5
5
5
5
5
5
5
5
5
5
5
5
5
5
5
5
5
5
5
5
5
5
5
5
5
5
5
5
5
5
5
5
5
5
5
5
5
5
5
5
5
5
5
5
5
5
5
5
5
5
5
5
5
5
5
5
5
5
5
5
5
5
5
5
5
5
5
5
5
5
5
5
5
5
5
5
5
5
5
5
5
5
5
5
5
5
5
5
5
5
5
5
5
5
5
5
5
5
5
5
5
5
5
5
5
5
5
5
5
5
5
5
5
5
5
5
5
5
5
5
5
5
5
5
5
5
5
5
5
5
5
5
5
5
5
5
5
5
5
5
5
5
5
5
5
5
5
5
5
5
5
5
5
5
5
5
5
5
5
5
5
5
5
5
5
5
5
5
5
5
5
5
5
5
5
5
5
5
5
5
5
5
5
5
5
5
5
5
5
5
5
5
5
5
5
5
5
5
5
5
5
5
5
5
5
5
5
5
POINT_DATA 320
SCALARS theta_e float 1
LOOKUP_TABLE default
0.999999
0.999999
0.999999
0.999999
0.999999
0.999999
0.999999
0.999999
0.999999
0.999999
0.999999
0.999999
0.999999
0.999999
0.999999
0.999999
0.999999
0.999999
0.999999
0.999999
0.999999
0.999999
0.999999
0.999999
0.999999
0.999999
0.999999
0.999999
0.999999
0.999999
0.999999
0.999999
0.999999
0.999999
0.999999
1.000000
0.999999
0.999999
0.999999
0.999999
0.999999
0.999999
0.999999
0.999999
0.999999
0.999999
1.000000
0.999999
1.000000
1.000000
1.000000
1.000000
0.999999
1.000000
0.999999
0.999999
0.999999
1.000000
1.000000
0.999999
0.999999
1.000000
1.000000
1.000000
1.000000
1.000000
1.000000
1.000000
1.000000
1.000000
1.000000
1.000000
0.999999
0.999999
0.999998
0.999997
1.000001
1.000002
1.000000
1.000000
1.000002
1.000000
1.000000
1.000001
1.000000
1.000000
1.000000
1.000000
1.000000
1.000000
1.000000
1.000000
1.000000
0.999999
1.000000
0.999996
0.999996
0.999994
0.999995
1.000006
1.000005
0.999999
1.000003
1.000007
1.000000
1.000003
1.000001
1.000000
1.000000
1.000000
1.000000
1.000000
1.000000
1.000000
1.000000
1.000000
1.000000
1.000000
1.000000
0.999997
0.999999
0.999992
0.999992
0.999996
1.000006
1.000011
1.000001
1.000007
1.000007
1.000005
1.000000
1.000002
1.000000
1.000000
1.000000
1.000000
1.000000
1.000000
0.999999
1.000000
1.000000
1.000000
1.000000
1.000000
1.000000
0.999995
0.999998
0.999994
0.999989
1.000035
1.000099
1.000041
1.000010
1.000006
0.999993
1.000007
1.000005
1.000001
1.000002
1.000000
1.000000
1.000000
1.000000
1.000000
1.000000
1.000000
1.000000
1.000000
1.000000
0.999998
0.999992
1.000013
0.999989
1.000161
1.000076
1.000133
1.000040
0.999983
0.999998
1.000006
1.000003
1.000001
1.000000
1.000000
1.000000
1.000000
1.000000
1.000000
1.000000
1.000000
1.000000
0.999996
0.999986
0.999989
1.000075
0.999981
0.999988
0.999998
0.999987
1.000003
1.000005
1.000002
1.000000
1.000000
1.000000
1.000000
1.000000
1.000000
1.000000
1.000000
1.000000
0.999993
0.999972
0.999930
0.999962
0.999919
0.999968
0.999992
1.000003
1.000002
1.000001
1.000000
1.000000
1.000000
1.000000
1.000000
1.000000
1.000001
1.000000
0.999993
0.999970
0.999952
0.999963
0.999985
1.000000
1.000002
1.000001
1.000000
1.000000
1.000000
1.000000
1.000000
1.000000
1.000001
1.000001
0.999997
0.999991
0.999987
0.999993
0.999999
1.000001
1.000000
1.000000
1.000000
1.000000
1.000000
1.000000
1.000000
1.000001
1.000001
1.000001
0.999999
1.000000
1.000000
1.000000
1.000000
1.000000
1.000000
1.000000
1.000000
1.000000
1.000000
1.000001
1.000001
1.000001
1.000000
1.000000
1.000000
1.000000
1.000000
1.000000
1.000000
1.000000
1.000000
1.000000
1.000000
0.999999
0.999999
1.000000
1.000000
1.000000
1.000000
1.000000
1.000000
1.000000
0.999999
1.000000
1.000000
1.000000
1.000000
1.000000
1.000000
1.000000
1.000000
1.000000
1.000000
1.000000
1.000000
1.000000
1.000000
1.000000
1.000000
1.000000
1.000000
1.000000
1.000000
1.000000
1.000000
1.000000
1.000000
VECTORS fa_u float
0.000000 0.000000 0.000000
0.000000 0.000000 0.000000
0.000000 0.000000 0.000000
0.000000 0.000000 0.000000
0.000000 0.000000 0.000000
0.000000 0.000000 0.000000
0.000000 0.000000 0.000000
0.000000 0.000000 0.000000
0.000000 0.000000 0.000000
0.000000 0.000000 0.000000
0.000000 0.000000 0.000000
0.000000 0.000000 0.000000
0.000000 0.000000 0.000000
0.000000 0.000000 0.000000
0.000000 0.000000 0.000000
0.000000 0.000000 0.000000
0.000000 0.000000 0.000000
0.000000 0.000000 0.000000
0.000000 0.000000 0.000000
0.000000 0.000000 0.000000
0.000000 0.000000 0.000000
0.000000 0.000000 0.000000
0.000000 0.000000 0.000000
0.000000 0.000000 0.000000
0.000000 0.000000 0.000000
0.000000 0.000000 0.000000
0.000000 0.000000 0.000000
0.000000 0.000000 0.000000
0.000000 0.000000 0.000000
0.000000 0.000000 0.000000
0.000000 0.000000 0.000000
0.000000 0.000000 0.000000
0.000000 0.000000 0.000000
0.000000 0.000000 0.000000
0.000000 0.000000 0.000000
0.000000 0.000000 0.000000
0.000000 0.000000 0.000000
0.000000 0.000000 0.000000
0.000000 0.000000 0.000000
0.000000 0.000000 0.000000
0.000000 0.000000 0.000000
0.000000 0.000000 0.000000
0.000000 0.000000 0.000000
0.000000 0.000000 0.000000
0.000000 0.000000 0.000000
0.000000 0.000000 0.000000
0.000000 0.000000 0.000000
0.000000 0.000000 0.000000
0.000000 0.000000 0.000000
0.000000 0.000000 0.000000
0.000000 0.000000 0.000000
0.000000 0.000000 0.000000
0.000000 0.000000 0.000000
0.000000 0.000000 0.000000
0.000000 0.000000 0.000000
0.000000 0.000000 0.000000
0.000000 0.000000 0.000000
0.000000 0.000000 0.000000
0.000000 0.000000 0.000000
0.000000 0.000000 0.000000
0.000000 0.000000 0.000000
0.000000 0.000000 0.000000
0.000000 0.000000 0.000000
0.000000 0.000000 0.000000
0.000000 0.000000 0.000000
0.000000 0.000000 0.000000
0.000000 0.000000 0.000000
0.000000 0.000000 0.000000
0.000000 0.000000 0.000000
0.000000 0.000000 0.000000
0.000000 0.000000 0.000000
0.000000 0.000000 0.000000
0.000000 0.000000 0.000000
0.000000 0.000000 0.000000
0.000000 0.000000 0.000000
0.000000 0.000000 0.000000
0.000000 0.000000 0.000000
0.000000 0.000000 0.000000
0.000000 0.000000 0.000000
0.000000 0.000000 0.000000
0.000000 0.000000 0.000000
0.000000 0.000000 0.000000
0.000000 0.000000 0.000000
0.000000 0.000000 0.000000
0.000000 0.000000 0.000000
0.000000 0.000000 0.000000
0.000000 0.000000 0.000000
0.000000 0.000000 0.000000
0.000000 0.000000 0.000000
0.000000 0.000000 0.000000
0.000000 0.000000 0.000000
0.000000 0.000000 0.000000
0.000000 0.000000 0.000000
0.000000 0.000000 0.000000
0.000000 0.000000 0.000000
0.000000 0.000000 0.000000
0.000000 0.000000 0.000000
0.000000 0.000000 0.000000
0.000000 0.000000 0.000000
0.000000 0.000000 0.000000
0.000000 0.000000 0.000000
0.000000 0.000000 0.000000
0.000000 0.000000 0.000000
0.000000 0.000000 0.000000
0.000000 0.000000 0.000000
0.000000 0.000000 0.000000
0.000000 0.000000 0.000000
0.000000 0.000000 0.000000
0.000000 0.000000 0.000000
0.000000 0.000000 0.000000
0.000000 0.000000 0.000000
0.000000 0.000000 0.000000
0.000000 0.000000 0.000000
0.000000 0.000000 0.000000
0.000000 0.000000 0.000000
0.000000 0.000000 0.000000
0.000000 0.000000 0.000000
0.000000 0.000000 0.000000
0.000000 0.000000 0.000000
0.000000 0.000000 0.000000
0.000000 0.000000 0.000000
0.000000 0.000000 0.000000
0.000000 0.000000 0.000000
0.000000 0.000000 0.000000
0.000000 0.000000 0.000000
0.000000 0.000000 0.000000
0.000000 0.000000 0.000000
0.000000 0.000000 0.000000
0.000000 0.000000 0.000000
0.000000 0.000000 0.000000
0.000000 0.000000 0.000000
0.000000 0.000000 0.000000
0.000000 0.000000 0.000000
0.000000 0.000000 0.000000
0.000000 0.000000 0.000000
0.000000 0.000000 0.000000
0.000000 0.000000 0.000000
0.000000 0.000000 0.000000
0.000000 0.000000 0.000000
0.000000 0.000000 0.000000
0.000000 0.000000 0.000000
0.000000 0.000000 0.000000
0.000000 0.000000 0.000000
0.000000 0.000000 0.000000
0.000000 0.000000 0.000000
0.000000 0.000000 0.000000
0.000000 0.000000 0.000000
0.000000 0.000000 0.000000
0.000000 0.000000 0.000000
0.000000 0.000000 0.000000
0.000000 0.000000 0.000000
0.000000 0.000000 0.000000
0.000000 0.000000 0.000000
0.000000 0.000000 0.000000
0.000000 0.000000 0.000000
0.000000 0.000000 0.000000
0.000000 0.000000 0.000000
0.000000 0.000000 0.000000
0.000000 0.000000 0.000000
0.000000 0.000000 0.000000
0.000000 0.000000 0.000000
0.000000 0.000000 0.000000
0.000000 0.000000 0.000000
0.000000 0.000000 0.000000
0.000000 0.000000 0.000000
0.000000 0.000000 0.000000
0.000000 0.000000 0.000000
0.000000 0.000000 0.000000
0.000000 0.000000 0.000000
0.000000 0.000000 0.000000
0.000000 0.000000 0.000000
0.000000 0.000000 0.000000
0.000000 0.000000 0.000000
0.000000 0.000000 0.000000
0.000000 0.000000 0.000000
0.000000 0.000000 0.000000
0.000000 0.000000 0.000000
0.000000 0.000000 0.000000
0.000000 0.000000 0.000000
0.000000 0.000000 0.000000
0.000000 0.000000 0.000000
0.000000 0.000000 0.000000
0.000000 0.000000 0.000000
0.000000 0.000000 0.000000
0.000000 0.000000 0.000000
0.000000 0.000000 0.000000
0.000000 0.000000 0.000000
0.000000 0.000000 0.000000
0.000000 0.000000 0.000000
0.000000 0.000000 0.000000
0.000000 0.000000 0.000000
0.000000 0.000000 0.000000
0.000000 0.000000 0.000000
0.000000 0.000000 0.000000
0.000000 0.000000 0.000000
0.000000 0.000000 0.000000
0.000000 0.000000 0.000000
0.000000 0.000000 0.000000
0.000000 0.000000 0.000000
0.000000 0.000000 0.000000
0.000000 0.000000 0.000000
0.000000 0.000000 0.000000
0.000000 0.000000 0.000000
0.000000 0.000000 0.000000
0.000000 0.000000 0.000000
0.000000 0.000000 0.000000
0.000000 0.000000 0.000000
0.000000 0.000000 0.000000
0.000000 0.000000 0.000000
0.000000 0.000000 0.000000
0.000000 0.000000 0.000000
0.000000 0.000000 0.000000
0.000000 0.000000 0.000000
0.000000 0.000000 0.000000
0.000000 0.000000 0.000000
0.000000 0.000000 0.000000
0.000000 0.000000 0.000000
0.000000 0.000000 0.000000
0.000000 0.000000 0.000000
0.000000 0.000000 0.000000
0.000000 0.000000 0.000000
0.000000 0.000000 0.000000
0.000000 0.000000 0.000000
0.000000 0.000000 0.000000
0.000000 0.000000 0.000000
0.000000 0.000000 0.000000
0.000000 0.000000 0.000000
0.000000 0.000000 0.000000
0.000000 0.000000 0.000000
0.000000 0.000000 0.000000
0.000000 0.000000 0.000000
0.000000 0.000000 0.000000
0.000000 0.000000 0.000000
0.000000 0.000000 0.000000
0.000000 0.000000 0.000000
0.000000 0.000000 0.000000
0.000000 0.000000 0.000000
0.000000 0.000000 0.000000
0.000000 0.000000 0.000000
0.000000 0.000000 0.000000
0.000000 0.000000 0.000000
0.000000 0.000000 0.000000
0.000000 0.000000 0.000000
0.000000 0.000000 0.000000
0.000000 0.000000 0.000000
0.000000 0.000000 0.000000
0.000000 0.000000 0.000000
0.000000 0.000000 0.000000
0.000000 0.000000 0.000000
0.000000 0.000000 0.000000
0.000000 0.000000 0.000000
0.000000 0.000000 0.000000
0.000000 0.000000 0.000000
0.000000 0.000000 0.000000
0.000000 0.000000 0.000000
0.000000 0.000000 0.000000
0.000000 0.000000 0.000000
0.000000 0.000000 0.000000
0.000000 0.000000 0.000000
0.000000 0.000000 0.000000
0.000000 0.000000 0.000000
0.000000 0.000000 0.000000
0.000000 0.000000 0.000000
0.000000 0.000000 0.000000
0.000000 0.000000 0.000000
0.000000 0.000000 0.000000
0.000000 0.000000 0.000000
0.000000 0.000000 0.000000
0.000000 0.000000 0.000000
0.000000 0.000000 0.000000
0.000000 0.000000 0.000000
0.000000 0.000000 0.000000
0.000000 0.000000 0.000000
0.000000 0.000000 0.000000
0.000000 0.000000 0.000000
0.000000 0.000000 0.000000
0.000000 0.000000 0.000000
0.000000 0.000000 0.000000
0.000000 0.000000 0.000000
0.000000 0.000000 0.000000
0.000000 0.000000 0.000000
0.000000 0.000000 0.000000
0.000000 0.000000 0.000000
0.000000 0.000000 0.000000
0.000000 0.000000 0.000000
0.000000 0.000000 0.000000
0.000000 0.000000 0.000000
0.000000 0.000000 0.000000
0.000000 0.000000 0.000000
0.000000 0.000000 0.000000
0.000000 0.000000 0.000000
0.000000 0.000000 0.000000
0.000000 0.000000 0.000000
0.000000 0.000000 0.000000
0.000000 0.000000 0.000000
0.000000 0.000000 0.000000
0.000000 0.000000 -50.000000
-50.000000 0.000000 -50.000000
-43.333349 0.000000 -45.688267
-45.491020 0.000000 -43.333391
-50.000000 0.000000 -50.000000
-36.666708 0.000000 -36.666780
-50.000000 0.000000 -45.080989
-39.969681 0.000000 -40.027013
-44.152135 0.000000 -30.000178
-50.000000 0.000000 -50.000000
-30.000070 0.000000 -44.846955
-33.448812 0.000000 -33.144818
-44.675531 0.000000 -39.868976
-36.786867 0.000000 -35.128493
-39.801106 0.000000 -23.333565
-50.000000 0.000000 -26.539078
-44.666657 0.000000 -50.000000
-23.333423 0.000000 -44.665219
-26.803786 0.000000 -39.364127
-30.225532 0.000000 -29.606106
-39.359192 0.000000 -33.368033
-33.655239 0.000000 -50.000000
-16.666764 0.000000 -16.666920
-50.000000 0.000000 -10.000227
