# vtk DataFile Version 2.0
CellBP Time: 0.48
ASCII
DATASET UNSTRUCTURED_GRID
POINTS 320 double
-50.000000 -50.000000 0.000000
-50.000000 -43.333348 0.000000
-45.688258 -45.491015 0.000000
-43.333384 -50.000000 0.000000
-50.000000 -36.666707 0.000000
-36.666763 -50.000000 0.000000
-45.080982 -39.969673 0.000000
-40.026996 -44.152132 0.000000
-30.000141 -50.000000 0.000000
-50.000000 -30.000063 0.000000
-44.846952 -33.448798 0.000000
-33.144790 -44.675533 0.000000
-39.868965 -36.786860 0.000000
-35.128473 -39.801105 0.000000
-23.333503 -50.000000 0.000000
-26.539036 -44.666660 0.000000
-50.000000 -23.333403 0.000000
-44.665220 -26.803765 0.000000
-39.364123 -30.225521 0.000000
-29.606077 -39.359196 0.000000
-33.368019 -33.655238 0.000000
-50.000000 -16.666727 0.000000
-16.666833 -50.000000 0.000000
-10.000123 -50.000000 0.000000
-19.964758 -44.588782 0.000000
-23.215783 -39.114606 0.000000
-44.691921 -20.096747 0.000000
-39.367810 -23.528047 0.000000
-34.106000 -26.936866 0.000000
-26.384231 -33.577007 0.000000
-29.155991 -28.926384 0.000000
-50.000000 -10.000032 0.000000
-44.666389 -13.410034 0.000000
-50.000000 -3.333319 0.000000
-3.333377 -50.000000 0.000000
3.333386 -50.000000 0.000000
-13.343520 -44.599112 0.000000
-6.684680 -44.610838 0.000000
-16.693642 -39.153370 0.000000
-20.106945 -33.342631 0.000000
-39.338203 -16.804773 0.000000
-34.018523 -20.274679 0.000000
-28.780672 -23.448841 0.000000
-23.510360 -27.349771 0.000000
-44.635554 -6.705532 0.000000
-39.293067 -10.101836 0.000000
-50.000000 3.333401 0.000000
-44.626907 -0.015704 0.000000
10.000141 -50.000000 0.000000
16.666868 -50.000000 0.000000
-0.016166 -44.618906 0.000000
6.651448 -44.635551 0.000000
-10.044681 -39.222653 0.000000
-3.368291 -39.220528 0.000000
-13.484343 -33.798864 0.000000
-16.709976 -28.271296 0.000000
-33.948124 -13.514303 0.000000
-28.601345 -16.892500 0.000000
-23.291020 -20.312704 0.000000
-18.660107 -23.281953 0.000000
-39.267651 -3.392910 0.000000
-33.904605 -6.796739 0.000000
-50.000000 10.000110 0.000000
-44.606931 6.673231 0.000000
-39.261121 3.325610 0.000000
-50.000000 16.666796 0.000000
23.333558 -50.000000 0.000000
30.000211 -50.000000 0.000000
13.317166 -44.663030 0.000000
19.989295 -44.700147 0.000000
3.307593 -39.245223 0.000000
9.971675 -39.290330 0.000000
-6.735261 -33.791415 0.000000
-0.032473 -33.829753 0.000000
-10.096064 -28.293833 0.000000
-13.122936 -22.898814 0.000000
-28.533002 -10.215234 0.000000
-23.066347 -13.663040 0.000000
-16.976623 -17.207971 0.000000
-33.884997 -0.065386 0.000000
-28.563406 -3.578444 0.000000
-44.564244 13.380200 0.000000
-39.190244 10.014966 0.000000
-33.905971 6.616016 0.000000
-50.000000 23.333461 0.000000
-44.557819 20.137967 0.000000
-50.000000 30.000099 0.000000
36.666830 -50.000000 0.000000
43.333431 -50.000000 0.000000
26.662950 -44.745261 0.000000
33.315086 -44.875843 0.000000
16.631537 -39.357746 0.000000
23.328080 -39.437069 0.000000
6.642681 -33.879569 0.000000
13.290781 -33.965544 0.000000
-3.345542 -28.362767 0.000000
3.356650 -28.451434 0.000000
-6.626155 -22.846543 0.000000
-9.972563 -17.314508 0.000000
-23.186174 -7.014932 0.000000
-17.809812 -10.334891 0.000000
-12.836973 -12.586254 0.000000
-28.607634 3.088493 0.000000
-23.264462 -0.467844 0.000000
-39.039193 16.746515 0.000000
-28.721659 9.926611 0.000000
-33.761914 13.318604 0.000000
-44.521678 26.716679 0.000000
-38.467737 23.892411 0.000000
-44.632062 33.085307 0.000000
-50.000000 36.666723 0.000000
-50.000000 43.333362 0.000000
39.922209 -45.069461 0.000000
45.474505 -45.660301 0.000000
50.000000 -50.000000 0.000000
36.626640 -39.981855 0.000000
30.012148 -39.458528 0.000000
19.904150 -34.092743 0.000000
26.584918 -34.319407 0.000000
9.988800 -28.513821 0.000000
16.611058 -28.659822 0.000000
0.052294 -22.958552 0.000000
6.812083 -23.159066 0.000000
-3.402089 -17.297739 0.000000
-6.875246 -11.046962 0.000000
-17.879129 -3.831034 0.000000
-12.555715 -7.037080 0.000000
-23.311119 6.074321 0.000000
-18.038605 2.458334 0.000000
-23.121719 12.095448 0.000000
-33.572103 19.788947 0.000000
-27.941197 16.885181 0.000000
-33.292621 24.722526 0.000000
-39.473250 30.052483 0.000000
-35.159968 28.137296 0.000000
-39.815659 35.101162 0.000000
-43.991511 39.981920 0.000000
-45.430922 45.684976 0.000000
-50.000000 50.000000 0.000000
44.117084 -39.898790 0.000000
50.000000 -43.333456 0.000000
39.639256 -35.047251 0.000000
33.462763 -33.424427 0.000000
22.984784 -28.817850 0.000000
28.730879 -29.247702 0.000000
13.460687 -23.121978 0.000000
20.054806 -23.438632 0.000000
3.391472 -17.586415 0.000000
10.128070 -17.839896 0.000000
0.137596 -12.041043 0.000000
-2.161673 -6.280487 0.000000
-7.444313 -3.724990 0.000000
-12.656369 -0.799800 0.000000
-18.160285 8.572869 0.000000
-12.969154 5.197736 0.000000
-18.639772 13.752301 0.000000
-21.504916 17.495361 0.000000
-28.940562 23.158100 0.000000
-24.346188 21.554880 0.000000
-30.323245 28.634612 0.000000
-34.253159 33.375439 0.000000
-36.955778 39.577996 0.000000
-39.838607 45.102625 0.000000
-43.333357 50.000000 0.000000
44.585100 -32.971887 0.000000
50.000000 -36.666858 0.000000
39.129233 -29.581658 0.000000
33.500498 -26.367574 0.000000
27.182611 -23.322162 0.000000
23.065455 -18.647822 0.000000
16.988709 -16.979318 0.000000
6.714597 -12.221946 0.000000
12.349225 -12.732095 0.000000
-3.383624 -1.496137 0.000000
3.961907 -7.064785 0.000000
1.035326 -2.128924 0.000000
-7.035528 2.334145 0.000000
-8.465975 7.856457 0.000000
-12.848229 11.934591 0.000000
-15.693285 17.700970 0.000000
-19.287154 22.983286 0.000000
-24.170948 27.355061 0.000000
-27.286248 33.626185 0.000000
-30.406542 39.161330 0.000000
-33.447664 44.738847 0.000000
-36.666712 50.000000 0.000000
44.547710 -26.499656 0.000000
50.000000 -30.000249 0.000000
39.040050 -23.179178 0.000000
33.449910 -19.899966 0.000000
28.040311 -16.574702 0.000000
22.684470 -13.124552 0.000000
17.177040 -9.912018 0.000000
10.963937 -6.657849 0.000000
-1.354831 2.302574 0.000000
6.251369 -1.740806 0.000000
2.915005 1.595882 0.000000
-3.559565 7.218491 0.000000
-6.311674 12.448351 0.000000
-9.629163 17.699795 0.000000
-13.166481 23.111819 0.000000
-17.316405 28.185277 0.000000
-20.570463 33.474539 0.000000
-23.665743 39.064072 0.000000
-26.830637 44.585399 0.000000
-30.000059 50.000000 0.000000
44.528771 -19.930345 0.000000
50.000000 -23.333602 0.000000
39.036506 -16.593966 0.000000
33.576629 -13.281186 0.000000
28.151388 -9.964864 0.000000
22.726733 -6.604512 0.000000
17.265000 -3.338203 0.000000
12.052453 0.191670 0.000000
1.928244 6.304865 0.000000
7.073073 3.864913 0.000000
-0.208583 12.009229 0.000000
-3.273009 17.529091 0.000000
-6.701430 22.978443 0.000000
-10.568148 28.267650 0.000000
-13.723758 33.661688 0.000000
-16.945459 39.080511 0.000000
-20.140246 44.548530 0.000000
-23.333397 50.000000 0.000000
44.536431 -13.303426 0.000000
50.000000 -16.666901 0.000000
39.080120 -9.966504 0.000000
33.647041 -6.640755 0.000000
28.236079 -3.307123 0.000000
22.845773 0.018702 0.000000
17.534420 3.366276 0.000000
12.220046 6.602749 0.000000
6.736030 10.879181 0.000000
3.301460 17.194740 0.000000
-0.081896 22.850238 0.000000
-3.518296 28.312396 0.000000
-6.831115 33.774224 0.000000
-10.137127 39.170591 0.000000
-13.435402 44.563639 0.000000
-16.666725 50.000000 0.000000
44.554544 -6.654508 0.000000
50.000000 -10.000139 0.000000
39.123613 -3.321167 0.000000
33.713621 0.008879 0.000000
28.333354 3.343867 0.000000
23.002800 6.694281 0.000000
17.831347 10.025168 0.000000
12.653141 12.223627 0.000000
9.792127 17.235258 0.000000
6.477107 22.722506 0.000000
3.188291 28.269252 0.000000
-0.115905 33.734617 0.000000
-3.425124 39.168530 0.000000
-6.725233 44.581902 0.000000
-10.000042 50.000000 0.000000
44.575825 0.002043 0.000000
50.000000 -3.333333 0.000000
39.166934 3.332047 0.000000
33.779267 6.655716 0.000000
28.424374 9.995450 0.000000
23.046232 13.416974 0.000000
16.947103 17.021804 0.000000
12.901458 22.671599 0.000000
9.814368 28.232448 0.000000
6.603989 33.718706 0.000000
3.286463 39.164422 0.000000
-0.029892 44.584646 0.000000
-3.333351 50.000000 0.000000
44.586827 6.665520 0.000000
50.000000 3.333477 0.000000
39.198035 9.982011 0.000000
33.843364 13.277339 0.000000
28.541573 16.585245 0.000000
23.386221 20.084602 0.000000
18.531481 23.111855 0.000000
16.393407 28.298871 0.000000
13.328752 33.754852 0.000000
9.986350 39.181990 0.000000
6.665787 44.584449 0.000000
3.333343 50.000000 0.000000
44.608933 13.317808 0.000000
50.000000 10.000251 0.000000
39.251328 16.612480 0.000000
33.931722 19.863011 0.000000
28.612034 22.926161 0.000000
23.279475 27.207528 0.000000
19.901134 33.303271 0.000000
16.573508 39.041054 0.000000
13.268016 44.526855 0.000000
10.000040 50.000000 0.000000
44.632076 19.972824 0.000000
50.000000 16.666968 0.000000
39.298415 23.262104 0.000000
34.043628 26.514741 0.000000
28.965538 28.539543 0.000000
26.202152 33.410169 0.000000
23.066477 38.968894 0.000000
19.888244 44.507109 0.000000
16.666734 50.000000 0.000000
44.639735 26.642770 0.000000
50.000000 23.333630 0.000000
39.293236 29.966621 0.000000
33.212186 33.371236 0.000000
29.411864 39.045838 0.000000
26.422090 44.505969 0.000000
23.333416 50.000000 0.000000
44.774849 33.291691 0.000000
50.000000 30.000250 0.000000
39.738045 36.596241 0.000000
34.830845 39.525517 0.000000
32.833585 44.514194 0.000000
30.000084 50.000000 0.000000
44.978106 39.877762 0.000000
50.000000 36.666847 0.000000
39.734628 43.968913 0.000000
36.666737 50.000000 0.000000
45.621132 45.409666 0.000000
50.000000 43.333438 0.000000
43.333389 50.000000 0.000000
50.000000 50.000000 0.000000
CELLS 578 2312
3 1 0 2
3 0 3 2
3 4 1 6
3 6 1 2
3 3 5 7
3 3 7 2
3 6 2 7
3 9 4 10
3 10 4 6
3 5 8 11
3 7 5 11
3 10 6 12
3 12 6 7
3 7 11 13
3 7 13 12
3 8 14 15
3 11 8 15
3 16 9 17
3 17 9 10
3 17 10 18
3 18 10 12
3 11 15 19
3 13 11 19
3 18 12 20
3 13 19 20
3 20 12 13
3 14 22 24
3 15 14 24
3 15 24 25
3 19 15 25
3 21 16 26
3 26 16 17
3 26 17 27
3 27 17 18
3 27 18 28
3 28 18 20
3 19 25 29
3 19 29 20
3 28 20 30
3 30 20 29
3 31 21 32
3 32 21 26
3 22 23 36
3 24 22 36
3 23 34 37
3 36 23 37
3 24 36 38
3 25 24 38
3 25 38 39
3 29 25 39
3 32 26 40
3 40 26 27
3 40 27 41
3 41 27 28
3 41 28 42
3 42 28 30
3 29 39 43
3 29 43 30
3 42 30 43
3 33 31 44
3 44 31 32
3 44 32 45
3 45 32 40
3 46 33 47
3 47 33 44
3 34 35 50
3 37 34 50
3 35 48 51
3 50 35 51
3 36 37 52
3 38 36 52
3 37 50 53
3 52 37 53
3 38 52 54
3 39 38 54
3 39 54 55
3 43 39 55
3 45 40 56
3 56 40 41
3 56 41 57
3 57 41 42
3 57 42 58
3 58 42 43
3 43 55 59
3 43 59 58
3 47 44 60
3 60 44 45
3 60 45 61
3 61 45 56
3 62 46 63
3 63 46 47
3 63 47 64
3 64 47 60
3 48 49 68
3 51 48 68
3 49 66 69
3 68 49 69
3 50 51 70
3 53 50 70
3 51 68 71
3 70 51 71
3 52 53 72
3 54 52 72
3 53 70 73
3 72 53 73
3 54 72 74
3 55 54 74
3 55 74 75
3 59 55 75
3 61 56 76
3 76 56 57
3 76 57 77
3 77 57 58
3 77 58 78
3 59 75 78
3 78 58 59
3 64 60 79
3 79 60 61
3 79 61 80
3 80 61 76
3 65 62 81
3 81 62 63
3 81 63 82
3 82 63 64
3 82 64 83
3 83 64 79
3 84 65 85
3 85 65 81
3 66 67 89
3 69 66 89
3 67 87 90
3 89 67 90
3 68 69 91
3 71 68 91
3 69 89 92
3 91 69 92
3 70 71 93
3 73 70 93
3 71 91 94
3 93 71 94
3 72 73 95
3 74 72 95
3 73 93 96
3 95 73 96
3 74 95 97
3 75 74 97
3 75 97 98
3 78 75 98
3 80 76 99
3 99 76 77
3 99 77 100
3 100 77 78
3 100 78 101
3 98 101 78
3 83 79 102
3 102 79 80
3 102 80 103
3 103 80 99
3 85 81 104
3 104 81 82
3 105 83 102
3 104 82 106
3 106 82 83
3 106 83 105
3 86 84 107
3 107 84 85
3 107 85 108
3 108 85 104
3 109 86 107
3 110 86 109
3 87 88 112
3 90 87 112
3 112 88 113
3 88 114 113
3 90 112 115
3 89 90 116
3 92 89 116
3 116 90 115
3 91 92 117
3 94 91 117
3 92 116 118
3 117 92 118
3 93 94 119
3 96 93 119
3 94 117 120
3 119 94 120
3 95 96 121
3 97 95 121
3 96 119 122
3 121 96 122
3 97 121 123
3 98 97 123
3 98 123 124
3 98 124 101
3 103 99 125
3 125 99 100
3 125 100 126
3 126 100 101
3 126 101 124
3 105 102 127
3 127 102 103
3 127 103 128
3 128 103 125
3 129 105 127
3 108 104 130
3 130 104 106
3 130 106 131
3 131 106 105
3 131 105 129
3 108 130 132
3 109 107 133
3 133 107 108
3 133 108 134
3 108 132 134
3 135 109 133
3 111 110 136
3 136 110 109
3 136 109 135
3 137 111 136
3 138 111 137
3 112 113 139
3 115 112 139
3 114 140 113
3 140 139 113
3 139 141 115
3 116 115 142
3 118 116 142
3 142 115 141
3 117 118 143
3 120 117 143
3 118 142 144
3 143 118 144
3 119 120 145
3 122 119 145
3 120 143 146
3 145 120 146
3 121 122 147
3 123 121 147
3 122 145 148
3 147 122 148
3 123 147 149
3 124 123 149
3 124 149 150
3 151 126 124
3 124 150 151
3 128 125 152
3 152 125 126
3 152 126 151
3 129 127 153
3 153 127 128
3 128 152 154
3 153 128 154
3 155 129 153
3 131 129 156
3 156 129 155
3 132 130 157
3 130 131 157
3 157 131 158
3 131 156 158
3 132 157 159
3 132 159 134
3 135 133 160
3 160 133 134
3 160 134 159
3 136 135 161
3 135 160 161
3 162 137 136
3 161 162 136
3 163 138 137
3 162 163 137
3 139 164 141
3 140 165 139
3 139 165 164
3 141 164 166
3 141 166 142
3 166 167 142
3 144 142 167
3 167 168 144
3 143 144 168
3 146 143 168
3 168 169 146
3 145 146 170
3 148 145 170
3 170 146 169
3 147 148 171
3 149 147 171
3 148 170 172
3 171 148 172
3 173 151 150
3 149 171 174
3 150 149 174
3 150 174 175
3 150 175 173
3 154 152 176
3 152 151 176
3 176 151 173
3 154 176 177
3 155 153 178
3 177 178 154
3 154 178 153
3 156 155 179
3 155 178 179
3 180 158 156
3 179 180 156
3 181 159 157
3 180 181 158
3 181 157 158
3 182 160 159
3 181 182 159
3 183 161 160
3 182 183 160
3 184 162 161
3 184 161 183
3 185 163 162
3 184 185 162
3 164 186 166
3 165 187 164
3 164 187 186
3 166 186 188
3 166 188 167
3 167 188 189
3 167 189 168
3 168 189 190
3 168 190 169
3 169 190 191
3 169 191 170
3 192 172 170
3 170 191 192
3 192 193 172
3 171 172 193
3 174 171 193
3 194 173 175
3 176 173 194
3 175 174 195
3 193 195 174
3 195 196 175
3 175 196 194
3 197 177 176
3 194 197 176
3 198 178 177
3 197 198 177
3 199 179 178
3 198 199 178
3 200 180 179
3 199 200 179
3 201 181 180
3 200 201 180
3 202 182 181
3 201 202 181
3 203 183 182
3 202 203 182
3 204 184 183
3 203 204 183
3 205 185 184
3 204 205 184
3 186 206 188
3 187 207 186
3 186 207 206
3 188 206 208
3 188 208 189
3 189 208 209
3 189 209 190
3 190 209 210
3 190 210 191
3 191 210 211
3 191 211 192
3 192 211 212
3 192 212 193
3 193 212 213
3 193 213 195
3 214 197 194
3 214 194 196
3 195 213 215
3 195 215 196
3 196 215 214
3 216 198 197
3 214 216 197
3 217 199 198
3 216 217 198
3 218 200 199
3 217 218 199
3 219 201 200
3 218 219 200
3 220 202 201
3 219 220 201
3 221 203 202
3 220 221 202
3 222 204 203
3 221 222 203
3 223 205 204
3 222 223 204
3 206 224 208
3 207 225 206
3 206 225 224
3 208 224 226
3 208 226 209
3 209 226 227
3 209 227 210
3 210 227 228
3 210 228 211
3 211 228 229
3 211 229 212
3 212 229 230
3 212 230 213
3 213 230 231
3 213 231 215
3 232 216 214
3 215 231 232
3 232 214 215
3 233 217 216
3 232 233 216
3 234 218 217
3 233 234 217
3 235 219 218
3 234 235 218
3 236 220 219
3 235 236 219
3 237 221 220
3 236 237 220
3 238 222 221
3 237 238 221
3 239 223 222
3 238 239 222
3 224 240 226
3 225 241 224
3 224 241 240
3 226 240 242
3 226 242 227
3 227 242 243
3 227 243 228
3 228 243 244
3 228 244 229
3 244 245 229
3 229 245 230
3 230 245 246
3 230 246 231
3 231 246 247
3 231 247 232
3 248 233 232
3 248 232 247
3 249 234 233
3 248 249 233
3 250 235 234
3 249 250 234
3 251 236 235
3 250 251 235
3 252 237 236
3 251 252 236
3 253 238 237
3 252 253 237
3 254 239 238
3 253 254 238
3 240 255 242
3 241 256 240
3 240 256 255
3 242 255 257
3 242 257 243
3 243 257 258
3 243 258 244
3 244 258 259
3 244 259 245
3 245 259 260
3 245 260 246
3 246 260 261
3 246 261 247
3 248 247 261
3 262 249 248
3 261 262 248
3 263 250 249
3 262 263 249
3 264 251 250
3 263 264 250
3 265 252 251
3 264 265 251
3 266 253 252
3 265 266 252
3 267 254 253
3 266 267 253
3 255 268 257
3 256 269 255
3 255 269 268
3 257 268 270
3 257 270 258
3 258 270 271
3 258 271 259
3 259 271 272
3 259 272 260
3 260 272 273
3 260 273 261
3 274 262 261
3 261 273 274
3 275 263 262
3 274 275 262
3 276 264 263
3 275 276 263
3 277 265 264
3 276 277 264
3 278 266 265
3 277 278 265
3 279 267 266
3 278 279 266
3 268 280 270
3 269 281 268
3 268 281 280
3 270 280 282
3 270 282 271
3 271 282 283
3 271 283 272
3 283 284 272
3 272 284 273
3 285 275 274
3 273 284 285
3 285 274 273
3 286 276 275
3 285 286 275
3 287 277 276
3 286 287 276
3 288 278 277
3 287 288 277
3 289 279 278
3 288 289 278
3 280 290 282
3 281 291 280
3 280 291 290
3 282 290 292
3 282 292 283
3 283 292 293
3 283 293 284
3 284 293 294
3 284 294 285
3 295 286 285
3 295 285 294
3 296 287 286
3 295 296 286
3 297 288 287
3 296 297 287
3 298 289 288
3 297 298 288
3 290 299 292
3 291 300 290
3 290 300 299
3 292 299 301
3 292 301 293
3 293 301 302
3 293 302 294
3 294 302 295
3 303 296 295
3 303 295 302
3 304 297 296
3 303 304 296
3 305 298 297
3 304 305 297
3 299 306 301
3 300 307 299
3 299 307 306
3 301 306 308
3 301 308 302
3 309 303 302
3 302 308 309
3 310 304 303
3 309 310 303
3 311 305 304
3 310 311 304
3 306 312 308
3 307 313 306
3 306 313 312
3 314 310 309
3 308 312 314
3 314 309 308
3 315 311 310
3 314 315 310
3 312 316 314
3 313 317 312
3 312 317 316
3 318 315 314
3 318 314 316
3 317 319 316
3 319 318 316
CELL_TYPES 578
5
5
5
5
5
5
5
5
5
5
5
5
5
5
5
5
5
5
5
5
5
5
5
5
5
5
5
5
5
5
5
5
5
5
5
5
5
5
5
5
5
5
5
5
5
5
5
5
5
5
5
5
5
5
5
5
5
5
5
5
5
5
5
5
5
5
5
5
5
5
5
5
5
5
5
5
5
5
5
5
5
5
5
5
5
5
5
5
5
5
5
5
5
5
5
5
5
5
5
5
5
5
5
5
5
5
5
5
5
5
5
5
5
5
5
5
5
5
5
5
5
5
5
5
5
5
5
5
5
5
5
5
5
5
5
5
5
5
5
5
5
5
5
5
5
5
5
5
5
5
5
5
5
5
5
5
5
5
5
5
5
5
5
5
5
5
5
5
5
5
5
5
5
5
5
5
5
5
5
5
5
5
5
5
5
5
5
5
5
5
5
5
5
5
5
5
5
5
5
5
5
5
5
5
5
5
5
5
5
5
5
5
5
5
5
5
5
5
5
5
5
5
5
5
5
5
5
5
5
5
5
5
5
5
5
5
5
5
5
5
5
5
5
5
5
5
5
5
5
5
5
5
5
5
5
5
5
5
5
5
5
5
5
5
5
5
5
5
5
5
5
5
5
5
5
5
5
5
5
5
5
5
5
5
5
5
5
5
5
5
5
5
5
5
5
5
5
5
5
5
5
5
5
5
5
5
5
5
5
5
5
5
5
5
5
5
5
5
5
5
5
5
5
5
5
5
5
5
5
5
5
5
5
5
5
5
5
5
5
5
5
5
5
5
5
5
5
5
5
5
5
5
5
5
5
5
5
5
5
5
5
5
5
5
5
5
5
5
5
5
5
5
5
5
5
5
5
5
5
5
5
5
5
5
5
5
5
5
5
5
5
5
5
5
5
5
5
5
5
5
5
5
5
5
5
5
5
5
5
5
5
5
5
5
5
5
5
5
5
5
5
5
5
5
5
5
5
5
5
5
5
5
5
5
5
5
5
5
5
5
5
5
5
5
5
5
5
5
5
5
5
5
5
5
5
5
5
5
5
5
5
5
5
5
5
5
5
5
5
5
5
5
5
5
5
5
5
5
5
5
5
5
5
5
5
5
5
5
5
5
5
5
5
5
5
5
5
5
5
5
5
5
5
5
5
5
5
5
5
5
5
5
5
5
5
5
5
5
5
5
5
5
5
5
5
5
5
5
5
5
5
5
5
5
5
5
5
5
5
5
5
5
5
5
5
5
5
5
5
5
5
5
5
5
5
5
5
5
5
5
5
5
5
5
5
5
5
5
5
5
5
5
5
5
5
5
5
5
POINT_DATA 320
SCALARS theta_e float 1
LOOKUP_TABLE default
1.000001
1.000001
1.000001
1.000001
1.000001
1.000001
1.000001
1.000001
1.000001
1.000001
1.000001
1.000001
1.000001
1.000001
1.000001
1.000001
1.000001
1.000001
1.000001
1.000001
1.000001
1.000001
1.000001
1.000000
1.000001
1.000001
1.000001
1.000001
1.000001
1.000001
1.000001
1.000000
1.000001
1.000000
1.000000
1.000000
1.000000
1.000000
1.000000
1.000000
1.000001
1.000001
1.000001
1.000001
1.000000
1.000001
1.000000
1.000000
1.000000
1.000000
1.000000
1.000000
1.000000
0.999999
0.999999
1.000000
1.000001
1.000001
1.000000
1.000000
1.000001
1.000001
1.000000
1.000000
1.000000
0.999999
1.000000
1.000000
1.000000
1.000000
0.999999
0.999999
0.999998
0.999998
0.999998
0.999999
1.000000
0.999999
0.999999
1.000001
0.999999
1.000000
1.000000
1.000000
0.999999
0.999999
0.999999
1.000000
1.000000
1.000000
1.000000
0.999999
0.999999
0.999997
0.999998
0.999998
0.999998
1.000002
1.000002
0.999996
0.999992
0.999995
0.999999
0.999994
1.000000
0.999999
1.000000
0.999999
0.999999
0.999999
0.999999
0.999999
1.000000
1.000000
1.000000
1.000000
0.999999
0.999998
0.999999
0.999998
0.999998
1.000005
1.000006
1.000020
1.000007
0.999983
0.999976
0.999996
0.999990
0.999998
1.000000
0.999999
0.999999
0.999999
0.999999
0.999999
0.999999
0.999998
0.999998
1.000000
1.000000
1.000000
0.999999
0.999998
0.999998
1.000003
1.000000
1.000032
1.000022
1.000065
1.000034
0.999969
0.999977
0.999999
1.000015
1.000000
0.999999
0.999999
0.999999
0.999999
0.999999
0.999999
0.999999
0.999998
1.000000
1.000000
0.999999
0.999999
0.999999
1.000002
1.000010
1.000054
1.000029
0.999974
1.000059
0.999996
1.000006
1.000043
1.000014
1.000002
0.999999
0.999999
0.999999
0.999999
0.999999
0.999999
0.999999
0.999999
0.999999
0.999999
1.000000
1.000007
1.000014
1.000008
0.999970
0.999946
0.999905
1.000040
1.000031
1.000011
1.000001
0.999999
0.999999
0.999999
0.999999
0.999999
0.999999
0.999999
0.999999
1.000000
1.000003
1.000009
0.999997
0.999936
0.999992
0.999911
1.000043
1.000018
1.000004
1.000000
0.999999
0.999999
0.999999
0.999999
0.999999
0.999999
0.999999
1.000001
1.000004
1.000004
0.999979
0.999947
0.999993
1.000012
1.000004
1.000000
0.999999
0.999999
0.999999
0.999999
0.999999
0.999999
0.999999
1.000001
1.000003
0.999999
0.999984
0.999980
0.999996
1.000000
0.999999
0.999999
0.999999
0.999999
0.999999
0.999999
0.999999
0.999999
1.000001
1.000002
0.999999
0.999994
0.999997
0.999999
0.999999
0.999999
0.999999
0.999999
0.999999
0.999999
0.999999
1.000000
1.000001
1.000000
0.999999
0.999999
0.999999
0.999999
0.999999
0.999999
0.999999
0.999999
0.999999
1.000000
1.000000
1.000000
0.999999
0.999999
0.999999
0.999999
0.999999
0.999999
0.999999
0.999999
0.999999
0.999999
0.999999
0.999999
0.999999
0.999999
0.999999
0.999999
0.999999
0.999999
0.999999
0.999999
0.999999
0.999999
0.999999
0.999999
0.999999
0.999999
0.999999
0.999999
0.999999
0.999999
0.999999
0.999999
0.999999
0.999999
VECTORS fa_u float
0.000000 0.000000 0.000000
0.000000 0.000000 0.000000
0.000000 0.000000 0.000000
0.000000 0.000000 0.000000
0.000000 0.000000 0.000000
0.000000 0.000000 0.000000
0.000000 0.000000 0.000000
0.000000 0.000000 0.000000
0.000000 0.000000 0.000000
0.000000 0.000000 0.000000
0.000000 0.000000 0.000000
0.000000 0.000000 0.000000
0.000000 0.000000 0.000000
0.000000 0.000000 0.000000
0.000000 0.000000 0.000000
0.000000 0.000000 0.000000
0.000000 0.000000 0.000000
0.000000 0.000000 0.000000
0.000000 0.000000 0.000000
0.000000 0.000000 0.000000
0.000000 0.000000 0.000000
0.000000 0.000000 0.000000
0.000000 0.000000 0.000000
0.000000 0.000000 0.000000
0.000000 0.000000 0.000000
0.000000 0.000000 0.000000
0.000000 0.000000 0.000000
0.000000 0.000000 0.000000
0.000000 0.000000 0.000000
0.000000 0.000000 0.000000
0.000000 0.000000 0.000000
0.000000 0.000000 0.000000
0.000000 0.000000 0.000000
0.000000 0.000000 0.000000
0.000000 0.000000 0.000000
0.000000 0.000000 0.000000
0.000000 0.000000 0.000000
0.000000 0.000000 0.000000
0.000000 0.000000 0.000000
0.000000 0.000000 0.000000
0.000000 0.000000 0.000000
0.000000 0.000000 0.000000
0.000000 0.000000 0.000000
0.000000 0.000000 0.000000
0.000000 0.000000 0.000000
0.000000 0.000000 0.000000
0.000000 0.000000 0.000000
0.000000 0.000000 0.000000
0.000000 0.000000 0.000000
0.000000 0.000000 0.000000
0.000000 0.000000 0.000000
0.000000 0.000000 0.000000
0.000000 0.000000 0.000000
0.000000 0.000000 0.000000
0.000000 0.000000 0.000000
0.000000 0.000000 0.000000
0.000000 0.000000 0.000000
0.000000 0.000000 0.000000
0.000000 0.000000 0.000000
0.000000 0.000000 0.000000
0.000000 0.000000 0.000000
0.000000 0.000000 0.000000
0.000000 0.000000 0.000000
0.000000 0.000000 0.000000
0.000000 0.000000 0.000000
0.000000 0.000000 0.000000
0.000000 0.000000 0.000000
0.000000 0.000000 0.000000
0.000000 0.000000 0.000000
0.000000 0.000000 0.000000
0.000000 0.000000 0.000000
0.000000 0.000000 0.000000
0.000000 0.000000 0.000000
0.000000 0.000000 0.000000
0.000000 0.000000 0.000000
0.000000 0.000000 0.000000
0.000000 0.000000 0.000000
0.000000 0.000000 0.000000
0.000000 0.000000 0.000000
0.000000 0.000000 0.000000
0.000000 0.000000 0.000000
0.000000 0.000000 0.000000
0.000000 0.000000 0.000000
0.000000 0.000000 0.000000
0.000000 0.000000 0.000000
0.000000 0.000000 0.000000
0.000000 0.000000 0.000000
0.000000 0.000000 0.000000
0.000000 0.000000 0.000000
0.000000 0.000000 0.000000
0.000000 0.000000 0.000000
0.000000 0.000000 0.000000
0.000000 0.000000 0.000000
0.000000 0.000000 0.000000
0.000000 0.000000 0.000000
0.000000 0.000000 0.000000
0.000000 0.000000 0.000000
0.000000 0.000000 0.000000
0.000000 0.000000 0.000000
0.000000 0.000000 0.000000
0.000000 0.000000 0.000000
0.000000 0.000000 0.000000
0.000000 0.000000 0.000000
0.000000 0.000000 0.000000
0.000000 0.000000 0.000000
0.000000 0.000000 0.000000
0.000000 0.000000 0.000000
0.000000 0.000000 0.000000
0.000000 0.000000 0.000000
0.000000 0.000000 0.000000
0.000000 0.000000 0.000000
0.000000 0.000000 0.000000
0.000000 0.000000 0.000000
0.000000 0.000000 0.000000
0.000000 0.000000 0.000000
0.000000 0.000000 0.000000
0.000000 0.000000 0.000000
0.000000 0.000000 0.000000
0.000000 0.000000 0.000000
0.000000 0.000000 0.000000
0.000000 0.000000 0.000000
0.000000 0.000000 0.000000
0.000000 0.000000 0.000000
0.000000 0.000000 0.000000
0.000000 0.000000 0.000000
0.000000 0.000000 0.000000
0.000000 0.000000 0.000000
0.000000 0.000000 0.000000
0.000000 0.000000 0.000000
0.000000 0.000000 0.000000
0.000000 0.000000 0.000000
0.000000 0.000000 0.000000
0.000000 0.000000 0.000000
0.000000 0.000000 0.000000
0.000000 0.000000 0.000000
0.000000 0.000000 0.000000
0.000000 0.000000 0.000000
0.000000 0.000000 0.000000
0.000000 0.000000 0.000000
0.000000 0.000000 0.000000
0.000000 0.000000 0.000000
0.000000 0.000000 0.000000
0.000000 0.000000 0.000000
0.000000 0.000000 0.000000
0.000000 0.000000 0.000000
0.000000 0.000000 0.000000
0.000000 0.000000 0.000000
0.000000 0.000000 0.000000
0.000000 0.000000 0.000000
0.000000 0.000000 0.000000
0.000000 0.000000 0.000000
0.000000 0.000000 0.000000
0.000000 0.000000 0.000000
0.000000 0.000000 0.000000
0.000000 0.000000 0.000000
0.000000 0.000000 0.000000
0.000000 0.000000 0.000000
0.000000 0.000000 0.000000
0.000000 0.000000 0.000000
0.000000 0.000000 0.000000
0.000000 0.000000 0.000000
0.000000 0.000000 0.000000
0.000000 0.000000 0.000000
0.000000 0.000000 0.000000
0.000000 0.000000 0.000000
0.000000 0.000000 0.000000
0.000000 0.000000 0.000000
0.000000 0.000000 0.000000
0.000000 0.000000 0.000000
0.000000 0.000000 0.000000
0.000000 0.000000 0.000000
0.000000 0.000000 0.000000
0.000000 0.000000 0.000000
0.000000 0.000000 0.000000
0.000000 0.000000 0.000000
0.000000 0.000000 0.000000
0.000000 0.000000 0.000000
0.000000 0.000000 0.000000
0.000000 0.000000 0.000000
0.000000 0.000000 0.000000
0.000000 0.000000 0.000000
0.000000 0.000000 0.000000
0.000000 0.000000 0.000000
0.000000 0.000000 0.000000
0.000000 0.000000 0.000000
0.000000 0.000000 0.000000
0.000000 0.000000 0.000000
0.000000 0.000000 0.000000
0.000000 0.000000 0.000000
0.000000 0.000000 0.000000
0.000000 0.000000 0.000000
0.000000 0.000000 0.000000
0.000000 0.000000 0.000000
0.000000 0.000000 0.000000
0.000000 0.000000 0.000000
0.000000 0.000000 0.000000
0.000000 0.000000 0.000000
0.000000 0.000000 0.000000
0.000000 0.000000 0.000000
0.000000 0.000000 0.000000
0.000000 0.000000 0.000000
0.000000 0.000000 0.000000
0.000000 0.000000 0.000000
0.000000 0.000000 0.000000
0.000000 0.000000 0.000000
0.000000 0.000000 0.000000
0.000000 0.000000 0.000000
0.000000 0.000000 0.000000
0.000000 0.000000 0.000000
0.000000 0.000000 0.000000
0.000000 0.000000 0.000000
0.000000 0.000000 0.000000
0.000000 0.000000 0.000000
0.000000 0.000000 0.000000
0.000000 0.000000 0.000000
0.000000 0.000000 0.000000
0.000000 0.000000 0.000000
0.000000 0.000000 0.000000
0.000000 0.000000 0.000000
0.000000 0.000000 0.000000
0.000000 0.000000 0.000000
0.000000 0.000000 0.000000
0.000000 0.000000 0.000000
0.000000 0.000000 0.000000
0.000000 0.000000 0.000000
0.000000 0.000000 0.000000
0.000000 0.000000 0.000000
0.000000 0.000000 0.000000
0.000000 0.000000 0.000000
0.000000 0.000000 0.000000
0.000000 0.000000 0.000000
0.000000 0.000000 0.000000
0.000000 0.000000 0.000000
0.000000 0.000000 0.000000
0.000000 0.000000 0.000000
0.000000 0.000000 0.000000
0.000000 0.000000 0.000000
0.000000 0.000000 0.000000
0.000000 0.000000 0.000000
0.000000 0.000000 0.000000
0.000000 0.000000 0.000000
0.000000 0.000000 0.000000
0.000000 0.000000 0.000000
0.000000 0.000000 0.000000
0.000000 0.000000 0.000000
0.000000 0.000000 0.000000
0.000000 0.000000 0.000000
0.000000 0.000000 0.000000
0.000000 0.000000 0.000000
0.000000 0.000000 0.000000
0.000000 0.000000 0.000000
0.000000 0.000000 0.000000
0.000000 0.000000 0.000000
0.000000 0.000000 0.000000
0.000000 0.000000 0.000000
0.000000 0.000000 0.000000
0.000000 0.000000 0.000000
0.000000 0.000000 0.000000
0.000000 0.000000 0.000000
0.000000 0.000000 0.000000
0.000000 0.000000 0.000000
0.000000 0.000000 0.000000
0.000000 0.000000 0.000000
0.000000 0.000000 0.000000
0.000000 0.000000 0.000000
0.000000 0.000000 0.000000
0.000000 0.000000 0.000000
0.000000 0.000000 0.000000
0.000000 0.000000 0.000000
0.000000 0.000000 0.000000
0.000000 0.000000 0.000000
0.000000 0.000000 0.000000
0.000000 0.000000 0.000000
0.000000 0.000000 0.000000
0.000000 0.000000 0.000000
0.000000 0.000000 0.000000
0.000000 0.000000 0.000000
0.000000 0.000000 0.000000
0.000000 0.000000 0.000000
0.000000 0.000000 0.000000
0.000000 0.000000 0.000000
0.000000 0.000000 0.000000
0.000000 0.000000 0.000000
0.000000 0.000000 0.000000
0.000000 0.000000 0.000000
0.000000 0.000000 0.000000
0.000000 0.000000 0.000000
0.000000 0.000000 0.000000
0.000000 0.000000 0.000000
0.000000 0.000000 0.000000
0.000000 0.000000 0.000000
0.000000 0.000000 0.000000
0.000000 0.000000 0.000000
0.000000 0.000000 0.000000
0.000000 0.000000 0.000000
0.000000 0.000000 0.000000
0.000000 0.000000 -50.000000
-50.000000 0.000000 -50.000000
-43.333348 0.000000 -45.688258
-45.491015 0.000000 -43.333384
-50.000000 0.000000 -50.000000
-36.666707 0.000000 -36.666763
-50.000000 0.000000 -45.080982
-39.969673 0.000000 -40.026996
-44.152132 0.000000 -30.000141
-50.000000 0.000000 -50.000000
-30.000063 0.000000 -44.846952
-33.448798 0.000000 -33.144790
-44.675533 0.000000 -39.868965
-36.786860 0.000000 -35.128473
-39.801105 0.000000 -23.333503
-50.000000 0.000000 -26.539036
-44.666660 0.000000 -50.000000
-23.333403 0.000000 -44.665220
-26.803765 0.000000 -39.364123
-30.225521 0.000000 -29.606077
-39.359196 0.000000 -33.368019
-33.655238 0.000000 -50.000000
-16.666727 0.000000 -16.666833
-50.000000 0.000000 -10.000123
