# vtk DataFile Version 2.0
CellBP Time: 0.8
ASCII
DATASET UNSTRUCTURED_GRID
POINTS 320 double
-50.000000 -50.000000 0.000000
-50.000000 -43.333343 0.000000
-45.688276 -45.491012 0.000000
-43.333407 -50.000000 0.000000
-50.000000 -36.666683 0.000000
-36.666805 -50.000000 0.000000
-45.081000 -39.969663 0.000000
-40.027032 -44.152123 0.000000
-30.000213 -50.000000 0.000000
-50.000000 -30.000030 0.000000
-44.846963 -33.448783 0.000000
-33.144847 -44.675521 0.000000
-39.868993 -36.786843 0.000000
-35.128518 -39.801086 0.000000
-23.333609 -50.000000 0.000000
-26.539115 -44.666647 0.000000
-50.000000 -23.333375 0.000000
-44.665223 -26.803750 0.000000
-39.364140 -30.225496 0.000000
-29.606141 -39.359172 0.000000
-33.368060 -33.655208 0.000000
-50.000000 -16.666716 0.000000
-16.666964 -50.000000 0.000000
-10.000259 -50.000000 0.000000
-19.964859 -44.588774 0.000000
-23.215873 -39.114582 0.000000
-44.691916 -20.096739 0.000000
-39.367809 -23.528022 0.000000
-34.106020 -26.936827 0.000000
-26.384298 -33.576964 0.000000
-29.156035 -28.926337 0.000000
-50.000000 -10.000054 0.000000
-44.666374 -13.410039 0.000000
-50.000000 -3.333381 0.000000
-3.333489 -50.000000 0.000000
3.333324 -50.000000 0.000000
-13.343637 -44.599113 0.000000
-6.684809 -44.610851 0.000000
-16.693760 -39.153362 0.000000
-20.107048 -33.342591 0.000000
-39.338189 -16.804758 0.000000
-34.018512 -20.274637 0.000000
-28.780690 -23.448776 0.000000
-23.510427 -27.349690 0.000000
-44.635533 -6.705558 0.000000
-39.293029 -10.101837 0.000000
-50.000000 3.333299 0.000000
-44.626883 -0.015753 0.000000
10.000140 -50.000000 0.000000
16.666919 -50.000000 0.000000
-0.016297 -44.618929 0.000000
6.651323 -44.635579 0.000000
-10.044820 -39.222658 0.000000
-3.368443 -39.220559 0.000000
-13.484495 -33.798852 0.000000
-16.710117 -28.271217 0.000000
-33.948091 -13.514280 0.000000
-28.601308 -16.892431 0.000000
-23.291034 -20.312592 0.000000
-18.660190 -23.281807 0.000000
-39.267604 -3.392945 0.000000
-33.904527 -6.796729 0.000000
-50.000000 9.999978 0.000000
-44.606910 6.673159 0.000000
-39.261072 3.325546 0.000000
-50.000000 16.666651 0.000000
23.333640 -50.000000 0.000000
30.000298 -50.000000 0.000000
13.317054 -44.663059 0.000000
19.989204 -44.700173 0.000000
3.307453 -39.245270 0.000000
9.971556 -39.290381 0.000000
-6.735433 -33.791430 0.000000
-0.032658 -33.829816 0.000000
-10.096263 -28.293828 0.000000
-13.123092 -22.898729 0.000000
-28.532952 -10.215185 0.000000
-23.066289 -13.662890 0.000000
-16.976642 -17.207733 0.000000
-33.884914 -0.065431 0.000000
-28.563260 -3.578396 0.000000
-44.564228 13.380112 0.000000
-39.190202 10.014867 0.000000
-33.905880 6.615909 0.000000
-50.000000 23.333324 0.000000
-44.557814 20.137877 0.000000
-50.000000 29.999982 0.000000
36.666896 -50.000000 0.000000
43.333467 -50.000000 0.000000
26.662881 -44.745277 0.000000
33.315039 -44.875848 0.000000
16.631447 -39.357800 0.000000
23.328015 -39.437112 0.000000
6.642523 -33.879652 0.000000
13.290682 -33.965636 0.000000
-3.345762 -28.362794 0.000000
3.356389 -28.451541 0.000000
-6.626426 -22.846533 0.000000
-9.972889 -17.314247 0.000000
-23.186103 -7.014807 0.000000
-17.809726 -10.334670 0.000000
-12.837034 -12.585598 0.000000
-28.607462 3.088376 0.000000
-23.264089 -0.467851 0.000000
-39.039175 16.746412 0.000000
-28.721584 9.926473 0.000000
-33.761878 13.318485 0.000000
-44.521677 26.716597 0.000000
-38.467736 23.892305 0.000000
-44.632071 33.085240 0.000000
-50.000000 36.666638 0.000000
-50.000000 43.333312 0.000000
39.922178 -45.069463 0.000000
45.474480 -45.660300 0.000000
50.000000 -50.000000 0.000000
36.626606 -39.981875 0.000000
30.012096 -39.458556 0.000000
19.904094 -34.092819 0.000000
26.584874 -34.319455 0.000000
9.988643 -28.513991 0.000000
16.611027 -28.659956 0.000000
0.051917 -22.958555 0.000000
6.811797 -23.159356 0.000000
-3.402750 -17.297511 0.000000
-6.876263 -11.049255 0.000000
-17.878761 -3.831016 0.000000
-12.556010 -7.036855 0.000000
-23.310974 6.074217 0.000000
-18.038212 2.458545 0.000000
-23.121558 12.095125 0.000000
-33.572083 19.788813 0.000000
-27.941154 16.884975 0.000000
-33.292633 24.722405 0.000000
-39.473264 30.052398 0.000000
-35.159985 28.137194 0.000000
-39.815681 35.101096 0.000000
-43.991528 39.981877 0.000000
-45.430939 45.684956 0.000000
-50.000000 50.000000 0.000000
44.117059 -39.898796 0.000000
50.000000 -43.333534 0.000000
39.639227 -35.047276 0.000000
33.462730 -33.424466 0.000000
22.984748 -28.817918 0.000000
28.730849 -29.247758 0.000000
13.460681 -23.122301 0.000000
20.054796 -23.438688 0.000000
3.391067 -17.586669 0.000000
10.128340 -17.840526 0.000000
0.136442 -12.044429 0.000000
-2.158697 -6.281641 0.000000
-7.448722 -3.731323 0.000000
-12.657512 -0.798871 0.000000
-18.159703 8.572295 0.000000
-12.968037 5.197315 0.000000
-18.639884 13.751945 0.000000
-21.504981 17.495128 0.000000
-28.940585 23.157940 0.000000
-24.346223 21.554712 0.000000
-30.323273 28.634495 0.000000
-34.253187 33.375357 0.000000
-36.955813 39.577947 0.000000
-39.838638 45.102602 0.000000
-43.333363 50.000000 0.000000
44.585079 -32.971914 0.000000
50.000000 -36.666994 0.000000
39.129217 -29.581694 0.000000
33.500480 -26.367627 0.000000
27.182589 -23.322238 0.000000
23.065437 -18.647886 0.000000
16.988716 -16.979313 0.000000
6.715603 -12.225148 0.000000
12.349203 -12.732098 0.000000
-3.382963 -1.499910 0.000000
3.971317 -7.075265 0.000000
1.041863 -2.134506 0.000000
-7.036327 2.338140 0.000000
-8.468974 7.860218 0.000000
-12.848594 11.934747 0.000000
-15.693454 17.700829 0.000000
-19.287225 22.983148 0.000000
-24.171010 27.354938 0.000000
-27.286303 33.626102 0.000000
-30.406595 39.161279 0.000000
-33.447713 44.738822 0.000000
-36.666740 50.000000 0.000000
44.547705 -26.499692 0.000000
50.000000 -30.000436 0.000000
39.040046 -23.179231 0.000000
33.449921 -19.900026 0.000000
28.040352 -16.574799 0.000000
22.684669 -13.124588 0.000000
17.177408 -9.912076 0.000000
10.966889 -6.660024 0.000000
-1.354951 2.300286 0.000000
6.254322 -1.738413 0.000000
2.914782 1.599433 0.000000
-3.560231 7.217020 0.000000
-6.310652 12.448023 0.000000
-9.629261 17.699050 0.000000
-13.166532 23.111532 0.000000
-17.316486 28.185126 0.000000
-20.570543 33.474442 0.000000
-23.665820 39.064015 0.000000
-26.830706 44.585373 0.000000
-30.000111 50.000000 0.000000
44.528774 -19.930387 0.000000
50.000000 -23.333815 0.000000
39.036516 -16.594022 0.000000
33.576646 -13.281241 0.000000
28.151415 -9.964885 0.000000
22.726625 -6.604400 0.000000
17.264128 -3.338103 0.000000
12.054164 0.192425 0.000000
1.932961 6.308998 0.000000
7.076077 3.871973 0.000000
-0.207953 12.012671 0.000000
-3.273912 17.528529 0.000000
-6.701748 22.978189 0.000000
-10.568325 28.267501 0.000000
-13.723887 33.661604 0.000000
-16.945567 39.080458 0.000000
-20.140338 44.548506 0.000000
-23.333476 50.000000 0.000000
44.536447 -13.303473 0.000000
50.000000 -16.667110 0.000000
39.080143 -9.966565 0.000000
33.647080 -6.640821 0.000000
28.236118 -3.307216 0.000000
22.845693 0.018336 0.000000
17.534936 3.366186 0.000000
12.221258 6.602902 0.000000
6.736954 10.883976 0.000000
3.300642 17.195269 0.000000
-0.082452 22.850210 0.000000
-3.518558 28.312338 0.000000
-6.831291 33.774165 0.000000
-10.137262 39.170549 0.000000
-13.435516 44.563618 0.000000
-16.666829 50.000000 0.000000
44.554568 -6.654561 0.000000
50.000000 -10.000309 0.000000
39.123643 -3.321228 0.000000
33.713660 0.008813 0.000000
28.333365 3.343706 0.000000
23.003110 6.694233 0.000000
17.831619 10.025281 0.000000
12.653478 12.223594 0.000000
9.792188 17.235813 0.000000
6.476815 22.722794 0.000000
3.188008 28.269294 0.000000
-0.116100 33.734620 0.000000
-3.425281 39.168515 0.000000
-6.725363 44.581893 0.000000
-10.000162 50.000000 0.000000
44.575850 0.001986 0.000000
50.000000 -3.333437 0.000000
39.166964 3.331990 0.000000
33.779297 6.655638 0.000000
28.424518 9.995433 0.000000
23.046342 13.417011 0.000000
16.947152 17.021933 0.000000
12.901400 22.671869 0.000000
9.814215 28.232601 0.000000
6.603813 33.718750 0.000000
3.286314 39.164437 0.000000
-0.030028 44.584648 0.000000
-3.333464 50.000000 0.000000
44.586850 6.665461 0.000000
50.000000 3.333448 0.000000
39.198058 9.981956 0.000000
33.843427 13.277324 0.000000
28.541613 16.585266 0.000000
23.386248 20.084667 0.000000
18.531474 23.111947 0.000000
16.393361 28.298977 0.000000
13.328646 33.754929 0.000000
9.986222 39.182020 0.000000
6.665659 44.584463 0.000000
3.333265 50.000000 0.000000
44.608948 13.317751 0.000000
50.000000 10.000293 0.000000
39.251357 16.612451 0.000000
33.931743 19.863007 0.000000
28.612049 22.926187 0.000000
23.279468 27.207584 0.000000
19.901071 33.303325 0.000000
16.573415 39.041093 0.000000
13.267904 44.526873 0.000000
10.000017 50.000000 0.000000
44.632087 19.972781 0.000000
50.000000 16.667060 0.000000
39.298423 23.262085 0.000000
34.043627 26.514742 0.000000
28.965525 28.539566 0.000000
26.202115 33.410202 0.000000
23.066412 38.968919 0.000000
19.888155 44.507127 0.000000
16.666767 50.000000 0.000000
44.639731 26.642740 0.000000
50.000000 23.333747 0.000000
39.293227 29.966608 0.000000
33.212162 33.371237 0.000000
29.411817 39.045850 0.000000
26.422024 44.505977 0.000000
23.333489 50.000000 0.000000
44.774834 33.291673 0.000000
50.000000 30.000362 0.000000
39.738024 36.596233 0.000000
34.830809 39.525512 0.000000
32.833537 44.514191 0.000000
30.000167 50.000000 0.000000
44.978087 39.877748 0.000000
50.000000 36.666930 0.000000
39.734591 43.968903 0.000000
36.666807 50.000000 0.000000
45.621111 45.409650 0.000000
50.000000 43.333479 0.000000
43.333434 50.000000 0.000000
50.000000 50.000000 0.000000
CELLS 578 2312
3 1 0 2
3 0 3 2
3 4 1 6
3 6 1 2
3 3 5 7
3 3 7 2
3 6 2 7
3 9 4 10
3 10 4 6
3 5 8 11
3 7 5 11
3 10 6 12
3 12 6 7
3 7 11 13
3 7 13 12
3 8 14 15
3 11 8 15
3 16 9 17
3 17 9 10
3 17 10 18
3 18 10 12
3 11 15 19
3 13 11 19
3 18 12 20
3 13 19 20
3 20 12 13
3 14 22 24
3 15 14 24
3 15 24 25
3 19 15 25
3 21 16 26
3 26 16 17
3 26 17 27
3 27 17 18
3 27 18 28
3 28 18 20
3 19 25 29
3 19 29 20
3 28 20 30
3 30 20 29
3 31 21 32
3 32 21 26
3 22 23 36
3 24 22 36
3 23 34 37
3 36 23 37
3 24 36 38
3 25 24 38
3 25 38 39
3 29 25 39
3 32 26 40
3 40 26 27
3 40 27 41
3 41 27 28
3 41 28 42
3 42 28 30
3 29 39 43
3 29 43 30
3 42 30 43
3 33 31 44
3 44 31 32
3 44 32 45
3 45 32 40
3 46 33 47
3 47 33 44
3 34 35 50
3 37 34 50
3 35 48 51
3 50 35 51
3 36 37 52
3 38 36 52
3 37 50 53
3 52 37 53
3 38 52 54
3 39 38 54
3 39 54 55
3 43 39 55
3 45 40 56
3 56 40 41
3 56 41 57
3 57 41 42
3 57 42 58
3 58 42 43
3 43 55 59
3 43 59 58
3 47 44 60
3 60 44 45
3 60 45 61
3 61 45 56
3 62 46 63
3 63 46 47
3 63 47 64
3 64 47 60
3 48 49 68
3 51 48 68
3 49 66 69
3 68 49 69
3 50 51 70
3 53 50 70
3 51 68 71
3 70 51 71
3 52 53 72
3 54 52 72
3 53 70 73
3 72 53 73
3 54 72 74
3 55 54 74
3 55 74 75
3 59 55 75
3 61 56 76
3 76 56 57
3 76 57 77
3 77 57 58
3 77 58 78
3 59 75 78
3 78 58 59
3 64 60 79
3 79 60 61
3 79 61 80
3 80 61 76
3 65 62 81
3 81 62 63
3 81 63 82
3 82 63 64
3 82 64 83
3 83 64 79
3 84 65 85
3 85 65 81
3 66 67 89
3 69 66 89
3 67 87 90
3 89 67 90
3 68 69 91
3 71 68 91
3 69 89 92
3 91 69 92
3 70 71 93
3 73 70 93
3 71 91 94
3 93 71 94
3 72 73 95
3 74 72 95
3 73 93 96
3 95 73 96
3 74 95 97
3 75 74 97
3 75 97 98
3 78 75 98
3 80 76 99
3 99 76 77
3 99 77 100
3 100 77 78
3 100 78 101
3 98 101 78
3 83 79 102
3 102 79 80
3 102 80 103
3 103 80 99
3 85 81 104
3 104 81 82
3 105 83 102
3 104 82 106
3 106 82 83
3 106 83 105
3 86 84 107
3 107 84 85
3 107 85 108
3 108 85 104
3 109 86 107
3 110 86 109
3 87 88 112
3 90 87 112
3 112 88 113
3 88 114 113
3 90 112 115
3 89 90 116
3 92 89 116
3 116 90 115
3 91 92 117
3 94 91 117
3 92 116 118
3 117 92 118
3 93 94 119
3 96 93 119
3 94 117 120
3 119 94 120
3 95 96 121
3 97 95 121
3 96 119 122
3 121 96 122
3 97 121 123
3 98 97 123
3 98 123 124
3 98 124 101
3 103 99 125
3 125 99 100
3 125 100 126
3 126 100 101
3 126 101 124
3 105 102 127
3 127 102 103
3 127 103 128
3 128 103 125
3 129 105 127
3 108 104 130
3 130 104 106
3 130 106 131
3 131 106 105
3 131 105 129
3 108 130 132
3 109 107 133
3 133 107 108
3 133 108 134
3 108 132 134
3 135 109 133
3 111 110 136
3 136 110 109
3 136 109 135
3 137 111 136
3 138 111 137
3 112 113 139
3 115 112 139
3 114 140 113
3 140 139 113
3 139 141 115
3 116 115 142
3 118 116 142
3 142 115 141
3 117 118 143
3 120 117 143
3 118 142 144
3 143 118 144
3 119 120 145
3 122 119 145
3 120 143 146
3 145 120 146
3 121 122 147
3 123 121 147
3 122 145 148
3 147 122 148
3 123 147 149
3 124 123 149
3 124 149 150
3 151 126 124
3 124 150 151
3 128 125 152
3 152 125 126
3 152 126 151
3 129 127 153
3 153 127 128
3 128 152 154
3 153 128 154
3 155 129 153
3 131 129 156
3 156 129 155
3 132 130 157
3 130 131 157
3 157 131 158
3 131 156 158
3 132 157 159
3 132 159 134
3 135 133 160
3 160 133 134
3 160 134 159
3 136 135 161
3 135 160 161
3 162 137 136
3 161 162 136
3 163 138 137
3 162 163 137
3 139 164 141
3 140 165 139
3 139 165 164
3 141 164 166
3 141 166 142
3 166 167 142
3 144 142 167
3 167 168 144
3 143 144 168
3 146 143 168
3 168 169 146
3 145 146 170
3 148 145 170
3 170 146 169
3 147 148 171
3 149 147 171
3 148 170 172
3 171 148 172
3 173 151 150
3 149 171 174
3 150 149 174
3 150 174 175
3 150 175 173
3 154 152 176
3 152 151 176
3 176 151 173
3 154 176 177
3 155 153 178
3 177 178 154
3 154 178 153
3 156 155 179
3 155 178 179
3 180 158 156
3 179 180 156
3 181 159 157
3 180 181 158
3 181 157 158
3 182 160 159
3 181 182 159
3 183 161 160
3 182 183 160
3 184 162 161
3 184 161 183
3 185 163 162
3 184 185 162
3 164 186 166
3 165 187 164
3 164 187 186
3 166 186 188
3 166 188 167
3 167 188 189
3 167 189 168
3 168 189 190
3 168 190 169
3 169 190 191
3 169 191 170
3 192 172 170
3 170 191 192
3 192 193 172
3 171 172 193
3 174 171 193
3 194 173 175
3 176 173 194
3 175 174 195
3 193 195 174
3 195 196 175
3 175 196 194
3 197 177 176
3 194 197 176
3 198 178 177
3 197 198 177
3 199 179 178
3 198 199 178
3 200 180 179
3 199 200 179
3 201 181 180
3 200 201 180
3 202 182 181
3 201 202 181
3 203 183 182
3 202 203 182
3 204 184 183
3 203 204 183
3 205 185 184
3 204 205 184
3 186 206 188
3 187 207 186
3 186 207 206
3 188 206 208
3 188 208 189
3 189 208 209
3 189 209 190
3 190 209 210
3 190 210 191
3 191 210 211
3 191 211 192
3 192 211 212
3 192 212 193
3 193 212 213
3 193 213 195
3 214 197 194
3 214 194 196
3 195 213 215
3 195 215 196
3 196 215 214
3 216 198 197
3 214 216 197
3 217 199 198
3 216 217 198
3 218 200 199
3 217 218 199
3 219 201 200
3 218 219 200
3 220 202 201
3 219 220 201
3 221 203 202
3 220 221 202
3 222 204 203
3 221 222 203
3 223 205 204
3 222 223 204
3 206 224 208
3 207 225 206
3 206 225 224
3 208 224 226
3 208 226 209
3 209 226 227
3 209 227 210
3 210 227 228
3 210 228 211
3 211 228 229
3 211 229 212
3 212 229 230
3 212 230 213
3 213 230 231
3 213 231 215
3 232 216 214
3 215 231 232
3 232 214 215
3 233 217 216
3 232 233 216
3 234 218 217
3 233 234 217
3 235 219 218
3 234 235 218
3 236 220 219
3 235 236 219
3 237 221 220
3 236 237 220
3 238 222 221
3 237 238 221
3 239 223 222
3 238 239 222
3 224 240 226
3 225 241 224
3 224 241 240
3 226 240 242
3 226 242 227
3 227 242 243
3 227 243 228
3 228 243 244
3 228 244 229
3 244 245 229
3 229 245 230
3 230 245 246
3 230 246 231
3 231 246 247
3 231 247 232
3 248 233 232
3 248 232 247
3 249 234 233
3 248 249 233
3 250 235 234
3 249 250 234
3 251 236 235
3 250 251 235
3 252 237 236
3 251 252 236
3 253 238 237
3 252 253 237
3 254 239 238
3 253 254 238
3 240 255 242
3 241 256 240
3 240 256 255
3 242 255 257
3 242 257 243
3 243 257 258
3 243 258 244
3 244 258 259
3 244 259 245
3 245 259 260
3 245 260 246
3 246 260 261
3 246 261 247
3 248 247 261
3 262 249 248
3 261 262 248
3 263 250 249
3 262 263 249
3 264 251 250
3 263 264 250
3 265 252 251
3 264 265 251
3 266 253 252
3 265 266 252
3 267 254 253
3 266 267 253
3 255 268 257
3 256 269 255
3 255 269 268
3 257 268 270
3 257 270 258
3 258 270 271
3 258 271 259
3 259 271 272
3 259 272 260
3 260 272 273
3 260 273 261
3 274 262 261
3 261 273 274
3 275 263 262
3 274 275 262
3 276 264 263
3 275 276 263
3 277 265 264
3 276 277 264
3 278 266 265
3 277 278 265
3 279 267 266
3 278 279 266
3 268 280 270
3 269 281 268
3 268 281 280
3 270 280 282
3 270 282 271
3 271 282 283
3 271 283 272
3 283 284 272
3 272 284 273
3 285 275 274
3 273 284 285
3 285 274 273
3 286 276 275
3 285 286 275
3 287 277 276
3 286 287 276
3 288 278 277
3 287 288 277
3 289 279 278
3 288 289 278
3 280 290 282
3 281 291 280
3 280 291 290
3 282 290 292
3 282 292 283
3 283 292 293
3 283 293 284
3 284 293 294
3 284 294 285
3 295 286 285
3 295 285 294
3 296 287 286
3 295 296 286
3 297 288 287
3 296 297 287
3 298 289 288
3 297 298 288
3 290 299 292
3 291 300 290
3 290 300 299
3 292 299 301
3 292 301 293
3 293 301 302
3 293 302 294
3 294 302 295
3 303 296 295
3 303 295 302
3 304 297 296
3 303 304 296
3 305 298 297
3 304 305 297
3 299 306 301
3 300 307 299
3 299 307 306
3 301 306 308
3 301 308 302
3 309 303 302
3 302 308 309
3 310 304 303
3 309 310 303
3 311 305 304
3 310 311 304
3 306 312 308
3 307 313 306
3 306 313 312
3 314 310 309
3 308 312 314
3 314 309 308
3 315 311 310
3 314 315 310
3 312 316 314
3 313 317 312
3 312 317 316
3 318 315 314
3 318 314 316
3 317 319 316
3 319 318 316
CELL_TYPES 578
5
5
5
5
5
5
5
5
5
5
5
5
5
5
5
5
5
5
5
5
5
5
5
5
5
5
5
5
5
5
5
5
5
5
5
5
5
5
5
5
5
5
5
5
5
5
5
5
5
5
5
5
5
5
5
5
5
5
5
5
5
5
5
5
5
5
5
5
5
5
5
5
5
5
5
5
5
5
5
5
5
5
5
5
5
5
5
5
5
5
5
5
5
5
5
5
5
5
5
5
5
5
5
5
5
5
5
5
5
5
5
5
5
5
5
5
5
5
5
5
5
5
5
5
5
5
5
5
5
5
5
5
5
5
5
5
5
5
5
5
5
5
5
5
5
5
5
5
5
5
5
5
5
5
5
5
5
5
5
5
5
5
5
5
5
5
5
5
5
5
5
5
5
5
5
5
5
5
5
5
5
5
5
5
5
5
5
5
5
5
5
5
5
5
5
5
5
5
5
5
5
5
5
5
5
5
5
5
5
5
5
5
5
5
5
5
5
5
5
5
5
5
5
5
5
5
5
5
5
5
5
5
5
5
5
5
5
5
5
5
5
5
5
5
5
5
5
5
5
5
5
5
5
5
5
5
5
5
5
5
5
5
5
5
5
5
5
5
5
5
5
5
5
5
5
5
5
5
5
5
5
5
5
5
5
5
5
5
5
5
5
5
5
5
5
5
5
5
5
5
5
5
5
5
5
5
5
5
5
5
5
5
5
5
5
5
5
5
5
5
5
5
5
5
5
5
5
5
5
5
5
5
5
5
5
5
5
5
5
5
5
5
5
5
5
5
5
5
5
5
5
5
5
5
5
5
5
5
5
5
5
5
5
5
5
5
5
5
5
5
5
5
5
5
5
5
5
5
5
5
5
5
5
5
5
5
5
5
5
5
5
5
5
5
5
5
5
5
5
5
5
5
5
5
5
5
5
5
5
5
5
5
5
5
5
5
5
5
5
5
5
5
5
5
5
5
5
5
5
5
5
5
5
5
5
5
5
5
5
5
5
5
5
5
5
5
5
5
5
5
5
5
5
5
5
5
5
5
5
5
5
5
5
5
5
5
5
5
5
5
5
5
5
5
5
5
5
5
5
5
5
5
5
5
5
5
5
5
5
5
5
5
5
5
5
5
5
5
5
5
5
5
5
5
5
5
5
5
5
5
5
5
5
5
5
5
5
5
5
5
5
5
5
5
5
5
5
5
5
5
5
5
5
5
5
5
5
5
5
5
5
5
5
5
5
5
5
5
5
5
5
5
5
5
5
5
5
5
5
5
5
5
5
5
5
5
5
5
5
5
5
5
5
5
5
5
5
5
POINT_DATA 320
SCALARS theta_e float 1
LOOKUP_TABLE default
0.999999
0.999999
0.999999
0.999999
0.999999
0.999999
0.999999
0.999999
0.999999
1.000000
0.999999
0.999999
0.999999
0.999999
0.999999
0.999999
1.000000
1.000000
0.999999
0.999999
0.999999
1.000000
0.999999
0.999999
0.999999
0.999999
1.000000
1.000000
1.000000
0.999999
0.999999
1.000000
1.000000
1.000001
0.999999
0.999999
0.999999
0.999999
0.999999
0.999999
1.000000
1.000000
1.000000
1.000000
1.000001
1.000000
1.000001
1.000001
0.999999
0.999998
0.999999
0.999999
0.999999
0.999999
1.000000
1.000001
1.000000
1.000000
1.000001
1.000002
1.000001
1.000000
1.000001
1.000001
1.000001
1.000001
0.999998
0.999998
0.999998
0.999998
0.999999
0.999999
1.000000
1.000000
1.000002
1.000004
1.000000
1.000001
1.000004
1.000000
0.999998
1.000001
1.000001
1.000000
1.000001
1.000001
1.000001
0.999998
0.999998
0.999998
0.999998
0.999998
0.999998
1.000000
0.999999
1.000002
1.000002
1.000003
1.000003
0.999998
1.000004
1.000008
0.999997
0.999994
1.000001
0.999998
1.000001
1.000001
1.000001
1.000001
1.000001
1.000001
0.999998
0.999998
0.999998
0.999998
0.999998
0.999999
0.999998
1.000001
1.000000
1.000001
1.000001
0.999990
0.999990
1.000001
1.000014
0.999992
0.999995
0.999993
1.000001
0.999999
1.000001
1.000001
1.000001
1.000001
1.000001
1.000001
1.000001
0.999998
0.999998
0.999998
0.999998
0.999999
0.999999
1.000001
1.000000
0.999986
0.999995
0.999953
1.000000
1.000048
1.000032
0.999987
1.000018
0.999986
0.999995
1.000001
1.000000
1.000001
1.000001
1.000001
1.000001
1.000001
0.999998
0.999998
0.999998
0.999998
0.999999
1.000000
0.999999
0.999964
0.999985
1.000134
0.999955
1.000059
1.000095
1.000036
0.999987
0.999989
0.999998
1.000001
1.000001
1.000001
1.000001
1.000001
0.999998
0.999998
0.999998
0.999999
0.999999
0.999999
0.999990
0.999966
1.000129
0.999963
1.000024
1.000058
0.999996
0.999986
0.999995
1.000000
1.000001
1.000001
1.000001
1.000001
0.999998
0.999998
0.999999
0.999999
1.000000
0.999997
0.999988
0.999977
1.000019
0.999972
1.000004
0.999990
0.999994
0.999999
1.000001
1.000001
1.000001
1.000001
0.999999
0.999998
0.999999
0.999999
1.000000
0.999998
0.999994
0.999990
0.999992
0.999994
0.999996
0.999999
1.000000
1.000000
1.000000
1.000000
0.999999
0.999999
0.999999
1.000000
1.000000
1.000000
0.999998
0.999995
0.999997
0.999998
0.999999
1.000000
1.000000
1.000000
1.000000
0.999999
0.999999
0.999999
1.000000
1.000000
1.000001
1.000000
1.000000
1.000000
1.000000
1.000000
1.000000
1.000000
0.999999
0.999999
0.999999
1.000000
1.000000
1.000000
1.000000
1.000000
1.000000
1.000000
1.000000
1.000000
0.999999
0.999999
0.999999
1.000000
1.000000
1.000000
1.000000
1.000000
1.000000
1.000000
0.999999
0.999999
0.999999
0.999999
0.999999
0.999999
0.999999
0.999999
1.000000
0.999999
0.999999
0.999999
0.999999
0.999999
0.999999
0.999999
0.999999
0.999999
0.999999
0.999999
0.999999
0.999999
0.999999
0.999999
0.999999
0.999999
0.999999
0.999999
0.999999
0.999999
VECTORS fa_u float
0.000000 0.000000 0.000000
0.000000 0.000000 0.000000
0.000000 0.000000 0.000000
0.000000 0.000000 0.000000
0.000000 0.000000 0.000000
0.000000 0.000000 0.000000
0.000000 0.000000 0.000000
0.000000 0.000000 0.000000
0.000000 0.000000 0.000000
0.000000 0.000000 0.000000
0.000000 0.000000 0.000000
0.000000 0.000000 0.000000
0.000000 0.000000 0.000000
0.000000 0.000000 0.000000
0.000000 0.000000 0.000000
0.000000 0.000000 0.000000
0.000000 0.000000 0.000000
0.000000 0.000000 0.000000
0.000000 0.000000 0.000000
0.000000 0.000000 0.000000
0.000000 0.000000 0.000000
0.000000 0.000000 0.000000
0.000000 0.000000 0.000000
0.000000 0.000000 0.000000
0.000000 0.000000 0.000000
0.000000 0.000000 0.000000
0.000000 0.000000 0.000000
0.000000 0.000000 0.000000
0.000000 0.000000 0.000000
0.000000 0.000000 0.000000
0.000000 0.000000 0.000000
0.000000 0.000000 0.000000
0.000000 0.000000 0.000000
0.000000 0.000000 0.000000
0.000000 0.000000 0.000000
0.000000 0.000000 0.000000
0.000000 0.000000 0.000000
0.000000 0.000000 0.000000
0.000000 0.000000 0.000000
0.000000 0.000000 0.000000
0.000000 0.000000 0.000000
0.000000 0.000000 0.000000
0.000000 0.000000 0.000000
0.000000 0.000000 0.000000
0.000000 0.000000 0.000000
0.000000 0.000000 0.000000
0.000000 0.000000 0.000000
0.000000 0.000000 0.000000
0.000000 0.000000 0.000000
0.000000 0.000000 0.000000
0.000000 0.000000 0.000000
0.000000 0.000000 0.000000
0.000000 0.000000 0.000000
0.000000 0.000000 0.000000
0.000000 0.000000 0.000000
0.000000 0.000000 0.000000
0.000000 0.000000 0.000000
0.000000 0.000000 0.000000
0.000000 0.000000 0.000000
0.000000 0.000000 0.000000
0.000000 0.000000 0.000000
0.000000 0.000000 0.000000
0.000000 0.000000 0.000000
0.000000 0.000000 0.000000
0.000000 0.000000 0.000000
0.000000 0.000000 0.000000
0.000000 0.000000 0.000000
0.000000 0.000000 0.000000
0.000000 0.000000 0.000000
0.000000 0.000000 0.000000
0.000000 0.000000 0.000000
0.000000 0.000000 0.000000
0.000000 0.000000 0.000000
0.000000 0.000000 0.000000
0.000000 0.000000 0.000000
0.000000 0.000000 0.000000
0.000000 0.000000 0.000000
0.000000 0.000000 0.000000
0.000000 0.000000 0.000000
0.000000 0.000000 0.000000
0.000000 0.000000 0.000000
0.000000 0.000000 0.000000
0.000000 0.000000 0.000000
0.000000 0.000000 0.000000
0.000000 0.000000 0.000000
0.000000 0.000000 0.000000
0.000000 0.000000 0.000000
0.000000 0.000000 0.000000
0.000000 0.000000 0.000000
0.000000 0.000000 0.000000
0.000000 0.000000 0.000000
0.000000 0.000000 0.000000
0.000000 0.000000 0.000000
0.000000 0.000000 0.000000
0.000000 0.000000 0.000000
0.000000 0.000000 0.000000
0.000000 0.000000 0.000000
0.000000 0.000000 0.000000
0.000000 0.000000 0.000000
0.000000 0.000000 0.000000
0.000000 0.000000 0.000000
0.000000 0.000000 0.000000
0.000000 0.000000 0.000000
0.000000 0.000000 0.000000
0.000000 0.000000 0.000000
0.000000 0.000000 0.000000
0.000000 0.000000 0.000000
0.000000 0.000000 0.000000
0.000000 0.000000 0.000000
0.000000 0.000000 0.000000
0.000000 0.000000 0.000000
0.000000 0.000000 0.000000
0.000000 0.000000 0.000000
0.000000 0.000000 0.000000
0.000000 0.000000 0.000000
0.000000 0.000000 0.000000
0.000000 0.000000 0.000000
0.000000 0.000000 0.000000
0.000000 0.000000 0.000000
0.000000 0.000000 0.000000
0.000000 0.000000 0.000000
0.000000 0.000000 0.000000
0.000000 0.000000 0.000000
0.000000 0.000000 0.000000
0.000000 0.000000 0.000000
0.000000 0.000000 0.000000
0.000000 0.000000 0.000000
0.000000 0.000000 0.000000
0.000000 0.000000 0.000000
0.000000 0.000000 0.000000
0.000000 0.000000 0.000000
0.000000 0.000000 0.000000
0.000000 0.000000 0.000000
0.000000 0.000000 0.000000
0.000000 0.000000 0.000000
0.000000 0.000000 0.000000
0.000000 0.000000 0.000000
0.000000 0.000000 0.000000
0.000000 0.000000 0.000000
0.000000 0.000000 0.000000
0.000000 0.000000 0.000000
0.000000 0.000000 0.000000
0.000000 0.000000 0.000000
0.000000 0.000000 0.000000
0.000000 0.000000 0.000000
0.000000 0.000000 0.000000
0.000000 0.000000 0.000000
0.000000 0.000000 0.000000
0.000000 0.000000 0.000000
0.000000 0.000000 0.000000
0.000000 0.000000 0.000000
0.000000 0.000000 0.000000
0.000000 0.000000 0.000000
0.000000 0.000000 0.000000
0.000000 0.000000 0.000000
0.000000 0.000000 0.000000
0.000000 0.000000 0.000000
0.000000 0.000000 0.000000
0.000000 0.000000 0.000000
0.000000 0.000000 0.000000
0.000000 0.000000 0.000000
0.000000 0.000000 0.000000
0.000000 0.000000 0.000000
0.000000 0.000000 0.000000
0.000000 0.000000 0.000000
0.000000 0.000000 0.000000
0.000000 0.000000 0.000000
0.000000 0.000000 0.000000
0.000000 0.000000 0.000000
0.000000 0.000000 0.000000
0.000000 0.000000 0.000000
0.000000 0.000000 0.000000
0.000000 0.000000 0.000000
0.000000 0.000000 0.000000
0.000000 0.000000 0.000000
0.000000 0.000000 0.000000
0.000000 0.000000 0.000000
0.000000 0.000000 0.000000
0.000000 0.000000 0.000000
0.000000 0.000000 0.000000
0.000000 0.000000 0.000000
0.000000 0.000000 0.000000
0.000000 0.000000 0.000000
0.000000 0.000000 0.000000
0.000000 0.000000 0.000000
0.000000 0.000000 0.000000
0.000000 0.000000 0.000000
0.000000 0.000000 0.000000
0.000000 0.000000 0.000000
0.000000 0.000000 0.000000
0.000000 0.000000 0.000000
0.000000 0.000000 0.000000
0.000000 0.000000 0.000000
0.000000 0.000000 0.000000
0.000000 0.000000 0.000000
0.000000 0.000000 0.000000
0.000000 0.000000 0.000000
0.000000 0.000000 0.000000
0.000000 0.000000 0.000000
0.000000 0.000000 0.000000
0.000000 0.000000 0.000000
0.000000 0.000000 0.000000
0.000000 0.000000 0.000000
0.000000 0.000000 0.000000
0.000000 0.000000 0.000000
0.000000 0.000000 0.000000
0.000000 0.000000 0.000000
0.000000 0.000000 0.000000
0.000000 0.000000 0.000000
0.000000 0.000000 0.000000
0.000000 0.000000 0.000000
0.000000 0.000000 0.000000
0.000000 0.000000 0.000000
0.000000 0.000000 0.000000
0.000000 0.000000 0.000000
0.000000 0.000000 0.000000
0.000000 0.000000 0.000000
0.000000 0.000000 0.000000
0.000000 0.000000 0.000000
0.000000 0.000000 0.000000
0.000000 0.000000 0.000000
0.000000 0.000000 0.000000
0.000000 0.000000 0.000000
0.000000 0.000000 0.000000
0.000000 0.000000 0.000000
0.000000 0.000000 0.000000
0.000000 0.000000 0.000000
0.000000 0.000000 0.000000
0.000000 0.000000 0.000000
0.000000 0.000000 0.000000
0.000000 0.000000 0.000000
0.000000 0.000000 0.000000
0.000000 0.000000 0.000000
0.000000 0.000000 0.000000
0.000000 0.000000 0.000000
0.000000 0.000000 0.000000
0.000000 0.000000 0.000000
0.000000 0.000000 0.000000
0.000000 0.000000 0.000000
0.000000 0.000000 0.000000
0.000000 0.000000 0.000000
0.000000 0.000000 0.000000
0.000000 0.000000 0.000000
0.000000 0.000000 0.000000
0.000000 0.000000 0.000000
0.000000 0.000000 0.000000
0.000000 0.000000 0.000000
0.000000 0.000000 0.000000
0.000000 0.000000 0.000000
0.000000 0.000000 0.000000
0.000000 0.000000 0.000000
0.000000 0.000000 0.000000
0.000000 0.000000 0.000000
0.000000 0.000000 0.000000
0.000000 0.000000 0.000000
0.000000 0.000000 0.000000
0.000000 0.000000 0.000000
0.000000 0.000000 0.000000
0.000000 0.000000 0.000000
0.000000 0.000000 0.000000
0.000000 0.000000 0.000000
0.000000 0.000000 0.000000
0.000000 0.000000 0.000000
0.000000 0.000000 0.000000
0.000000 0.000000 0.000000
0.000000 0.000000 0.000000
0.000000 0.000000 0.000000
0.000000 0.000000 0.000000
0.000000 0.000000 0.000000
0.000000 0.000000 0.000000
0.000000 0.000000 0.000000
0.000000 0.000000 0.000000
0.000000 0.000000 0.000000
0.000000 0.000000 0.000000
0.000000 0.000000 0.000000
0.000000 0.000000 0.000000
0.000000 0.000000 0.000000
0.000000 0.000000 0.000000
0.000000 0.000000 0.000000
0.000000 0.000000 0.000000
0.000000 0.000000 0.000000
0.000000 0.000000 0.000000
0.000000 0.000000 0.000000
0.000000 0.000000 0.000000
0.000000 0.000000 0.000000
0.000000 0.000000 0.000000
0.000000 0.000000 0.000000
0.000000 0.000000 0.000000
0.000000 0.000000 0.000000
0.000000 0.000000 0.000000
0.000000 0.000000 0.000000
0.000000 0.000000 0.000000
0.000000 0.000000 0.000000
0.000000 0.000000 0.000000
0.000000 0.000000 0.000000
0.000000 0.000000 0.000000
0.000000 0.000000 -50.000000
-50.000000 0.000000 -50.000000
-43.333343 0.000000 -45.688276
-45.491012 0.000000 -43.333407
-50.000000 0.000000 -50.000000
-36.666683 0.000000 -36.666805
-50.000000 0.000000 -45.081000
-39.969663 0.000000 -40.027032
-44.152123 0.000000 -30.000213
-50.000000 0.000000 -50.000000
-30.000030 0.000000 -44.846963
-33.448783 0.000000 -33.144847
-44.675521 0.000000 -39.868993
-36.786843 0.000000 -35.128518
-39.801086 0.000000 -23.333609
-50.000000 0.000000 -26.539115
-44.666647 0.000000 -50.000000
-23.333375 0.000000 -44.665223
-26.803750 0.000000 -39.364140
-30.225496 0.000000 -29.606141
-39.359172 0.000000 -33.368060
-33.655208 0.000000 -50.000000
-16.666716 0.000000 -16.666964
-50.000000 0.000000 -10.000259
