# vtk DataFile Version 2.0
CellBP Time: 0.28
ASCII
DATASET UNSTRUCTURED_GRID
POINTS 320 double
-50.000000 -50.000000 0.000000
-50.000000 -43.333377 0.000000
-45.688255 -45.491036 0.000000
-43.333374 -50.000000 0.000000
-50.000000 -36.666740 0.000000
-36.666728 -50.000000 0.000000
-45.080982 -39.969710 0.000000
-40.026989 -44.152160 0.000000
-30.000082 -50.000000 0.000000
-50.000000 -30.000098 0.000000
-44.846953 -33.448855 0.000000
-33.144769 -44.675560 0.000000
-39.868959 -36.786909 0.000000
-35.128459 -39.801150 0.000000
-23.333425 -50.000000 0.000000
-26.539005 -44.666682 0.000000
-50.000000 -23.333444 0.000000
-44.665219 -26.803839 0.000000
-39.364118 -30.225592 0.000000
-29.606055 -39.359241 0.000000
-33.368006 -33.655304 0.000000
-50.000000 -16.666776 0.000000
-16.666754 -50.000000 0.000000
-10.000065 -50.000000 0.000000
-19.964717 -44.588797 0.000000
-23.215745 -39.114647 0.000000
-44.691919 -20.096836 0.000000
-39.367805 -23.528130 0.000000
-34.105991 -26.936950 0.000000
-26.384205 -33.577077 0.000000
-29.155973 -28.926469 0.000000
-50.000000 -10.000089 0.000000
-44.666388 -13.410131 0.000000
-50.000000 -3.333384 0.000000
-3.333361 -50.000000 0.000000
3.333350 -50.000000 0.000000
-13.343470 -44.599118 0.000000
-6.684621 -44.610837 0.000000
-16.693589 -39.153397 0.000000
-20.106897 -33.342691 0.000000
-39.338201 -16.804865 0.000000
-34.018521 -20.274769 0.000000
-28.780667 -23.448945 0.000000
-23.510329 -27.349882 0.000000
-44.635553 -6.705627 0.000000
-39.293071 -10.101934 0.000000
-50.000000 3.333332 0.000000
-44.626906 -0.015793 0.000000
10.000057 -50.000000 0.000000
16.666751 -50.000000 0.000000
-0.016101 -44.618899 0.000000
6.651515 -44.635543 0.000000
-10.044617 -39.222669 0.000000
-3.368221 -39.220532 0.000000
-13.484272 -33.798900 0.000000
-16.709896 -28.271390 0.000000
-33.948122 -13.514399 0.000000
-28.601352 -16.892601 0.000000
-23.291031 -20.312835 0.000000
-18.660076 -23.282115 0.000000
-39.267655 -3.393007 0.000000
-33.904612 -6.796851 0.000000
-50.000000 10.000046 0.000000
-44.606933 6.673151 0.000000
-39.261129 3.325520 0.000000
-50.000000 16.666746 0.000000
23.333428 -50.000000 0.000000
30.000090 -50.000000 0.000000
13.317231 -44.663024 0.000000
19.989351 -44.700143 0.000000
3.307660 -39.245220 0.000000
9.971735 -39.290325 0.000000
-6.735187 -33.791436 0.000000
-0.032391 -33.829751 0.000000
-10.095966 -28.293858 0.000000
-13.122859 -22.898895 0.000000
-28.532984 -10.215350 0.000000
-23.066343 -13.663187 0.000000
-16.976648 -17.208215 0.000000
-33.885006 -0.065494 0.000000
-28.563420 -3.578602 0.000000
-44.564248 13.380135 0.000000
-39.190257 10.014890 0.000000
-33.905994 6.615928 0.000000
-50.000000 23.333427 0.000000
-44.557823 20.137913 0.000000
-50.000000 30.000084 0.000000
36.666738 -50.000000 0.000000
43.333380 -50.000000 0.000000
26.662993 -44.745263 0.000000
33.315115 -44.875853 0.000000
16.631586 -39.357738 0.000000
23.328120 -39.437065 0.000000
6.642753 -33.879561 0.000000
13.290830 -33.965532 0.000000
-3.345463 -28.362794 0.000000
3.356764 -28.451420 0.000000
-6.626011 -22.846534 0.000000
-9.972283 -17.314739 0.000000
-23.186094 -7.015089 0.000000
-17.809871 -10.335030 0.000000
-12.837038 -12.586850 0.000000
-28.607672 3.088397 0.000000
-23.264579 -0.468002 0.000000
-39.039205 16.746453 0.000000
-28.721686 9.926512 0.000000
-33.761931 13.318528 0.000000
-44.521685 26.716638 0.000000
-38.467753 23.892369 0.000000
-44.632071 33.085278 0.000000
-50.000000 36.666725 0.000000
-50.000000 43.333372 0.000000
39.922230 -45.069474 0.000000
45.474526 -45.660319 0.000000
50.000000 -50.000000 0.000000
36.626659 -39.981865 0.000000
30.012179 -39.458532 0.000000
19.904187 -34.092734 0.000000
26.584944 -34.319404 0.000000
9.988873 -28.513785 0.000000
16.611088 -28.659804 0.000000
0.052360 -22.958624 0.000000
6.812207 -23.158987 0.000000
-3.401744 -17.297613 0.000000
-6.874283 -11.045487 0.000000
-17.879131 -3.830807 0.000000
-12.555640 -7.037170 0.000000
-23.311110 6.074121 0.000000
-18.038521 2.457595 0.000000
-23.121854 12.095442 0.000000
-33.572132 19.788902 0.000000
-27.941256 16.885155 0.000000
-33.292643 24.722494 0.000000
-39.473263 30.052454 0.000000
-35.159986 28.137268 0.000000
-39.815667 35.101141 0.000000
-43.991514 39.981902 0.000000
-45.430920 45.684965 0.000000
-50.000000 50.000000 0.000000
44.117102 -39.898814 0.000000
50.000000 -43.333387 0.000000
39.639275 -35.047268 0.000000
33.462780 -33.424435 0.000000
22.984811 -28.817839 0.000000
28.730895 -29.247700 0.000000
13.460751 -23.121901 0.000000
20.054828 -23.438618 0.000000
3.391241 -17.586510 0.000000
10.128011 -17.839827 0.000000
0.138739 -12.036595 0.000000
-2.159911 -6.279779 0.000000
-7.439894 -3.724977 0.000000
-12.651957 -0.801598 0.000000
-18.160753 8.572937 0.000000
-12.969837 5.196934 0.000000
-18.639774 13.752288 0.000000
-21.504943 17.495327 0.000000
-28.940589 23.158080 0.000000
-24.346225 21.554847 0.000000
-30.323265 28.634595 0.000000
-34.253171 33.375421 0.000000
-36.955782 39.577984 0.000000
-39.838606 45.102618 0.000000
-43.333381 50.000000 0.000000
44.585112 -32.971910 0.000000
50.000000 -36.666747 0.000000
39.129238 -29.581679 0.000000
33.500502 -26.367580 0.000000
27.182623 -23.322142 0.000000
23.065488 -18.647780 0.000000
16.988810 -16.979298 0.000000
6.714592 -12.221049 0.000000
12.349753 -12.732116 0.000000
-3.387635 -1.495237 0.000000
3.958013 -7.059214 0.000000
1.027478 -2.124942 0.000000
-7.034228 2.336319 0.000000
-8.463217 7.853327 0.000000
-12.848156 11.934307 0.000000
-15.693306 17.700900 0.000000
-19.287197 22.983248 0.000000
-24.170971 27.355040 0.000000
-27.286259 33.626172 0.000000
-30.406546 39.161320 0.000000
-33.447664 44.738842 0.000000
-36.666746 50.000000 0.000000
44.547710 -26.499690 0.000000
50.000000 -30.000104 0.000000
39.040042 -23.179198 0.000000
33.449884 -19.899972 0.000000
28.040262 -16.574654 0.000000
22.684310 -13.124471 0.000000
17.176940 -9.911556 0.000000
10.960699 -6.656645 0.000000
-1.350844 2.304311 0.000000
6.240856 -1.746737 0.000000
2.913964 1.601195 0.000000
-3.556815 7.215220 0.000000
-6.312152 12.448168 0.000000
-9.629309 17.700144 0.000000
-13.166580 23.111924 0.000000
-17.316442 28.185301 0.000000
-20.570478 33.474546 0.000000
-23.665746 39.064073 0.000000
-26.830636 44.585397 0.000000
-30.000100 50.000000 0.000000
44.528760 -19.930392 0.000000
50.000000 -23.333449 0.000000
39.036477 -16.593998 0.000000
33.576563 -13.281206 0.000000
28.151254 -9.964862 0.000000
22.726524 -6.604482 0.000000
17.264800 -3.337838 0.000000
12.045244 0.188137 0.000000
1.931897 6.307892 0.000000
7.070176 3.859570 0.000000
-0.210775 12.006540 0.000000
-3.272554 17.529463 0.000000
-6.701398 22.978517 0.000000
-10.568134 28.267698 0.000000
-13.723755 33.661707 0.000000
-16.945451 39.080519 0.000000
-20.140235 44.548532 0.000000
-23.333439 50.000000 0.000000
44.536409 -13.303488 0.000000
50.000000 -16.666775 0.000000
39.080072 -9.966560 0.000000
33.646955 -6.640817 0.000000
28.235945 -3.307202 0.000000
22.845616 0.018638 0.000000
17.533595 3.365135 0.000000
12.219989 6.601199 0.000000
6.735541 10.877704 0.000000
3.301421 17.194832 0.000000
-0.081736 22.850491 0.000000
-3.518264 28.312492 0.000000
-6.831085 33.774276 0.000000
-10.137102 39.170612 0.000000
-13.435378 44.563646 0.000000
-16.666759 50.000000 0.000000
44.554514 -6.654587 0.000000
50.000000 -10.000081 0.000000
39.123560 -3.321252 0.000000
33.713535 0.008771 0.000000
28.333238 3.343736 0.000000
23.002509 6.693864 0.000000
17.831603 10.024500 0.000000
12.653873 12.223414 0.000000
9.792489 17.235326 0.000000
6.477300 22.722472 0.000000
3.188447 28.269320 0.000000
-0.115826 33.734653 0.000000
-3.425066 39.168553 0.000000
-6.725187 44.581911 0.000000
-10.000058 50.000000 0.000000
44.575796 0.001950 0.000000
50.000000 -3.333370 0.000000
39.166892 3.331933 0.000000
33.779215 6.655568 0.000000
28.424293 9.995201 0.000000
23.046299 13.416649 0.000000
16.947426 17.021589 0.000000
12.901700 22.671536 0.000000
9.814517 28.232409 0.000000
6.604108 33.718716 0.000000
3.286548 39.164433 0.000000
-0.029824 44.584652 0.000000
-3.333343 50.000000 0.000000
44.586807 6.665418 0.000000
50.000000 3.333344 0.000000
39.198014 9.981881 0.000000
33.843347 13.277163 0.000000
28.541623 16.585031 0.000000
23.386367 20.084418 0.000000
18.531649 23.111730 0.000000
16.393545 28.298805 0.000000
13.328870 33.754818 0.000000
9.986452 39.181982 0.000000
6.665872 44.584448 0.000000
3.333374 50.000000 0.000000
44.608925 13.317704 0.000000
50.000000 10.000050 0.000000
39.251328 16.612350 0.000000
33.931754 19.862863 0.000000
28.612113 22.926015 0.000000
23.279582 27.207417 0.000000
19.901244 33.303213 0.000000
16.573608 39.041024 0.000000
13.268109 44.526845 0.000000
10.000082 50.000000 0.000000
44.632079 19.972725 0.000000
50.000000 16.666740 0.000000
39.298436 23.261994 0.000000
34.043679 26.514634 0.000000
28.965616 28.539440 0.000000
26.202237 33.410094 0.000000
23.066566 38.968853 0.000000
19.888331 44.507092 0.000000
16.666772 50.000000 0.000000
44.639749 26.642684 0.000000
50.000000 23.333413 0.000000
39.293268 29.966538 0.000000
33.212244 33.371164 0.000000
29.411935 39.045792 0.000000
26.422166 44.505948 0.000000
23.333442 50.000000 0.000000
44.774870 33.291624 0.000000
50.000000 30.000073 0.000000
39.738082 36.596187 0.000000
34.830897 39.525474 0.000000
32.833644 44.514172 0.000000
30.000094 50.000000 0.000000
44.978128 39.877720 0.000000
50.000000 36.666723 0.000000
39.734669 43.968888 0.000000
36.666737 50.000000 0.000000
45.621155 45.409649 0.000000
50.000000 43.333367 0.000000
43.333377 50.000000 0.000000
50.000000 50.000000 0.000000
CELLS 578 2312
3 1 0 2
3 0 3 2
3 4 1 6
3 6 1 2
3 3 5 7
3 3 7 2
3 6 2 7
3 9 4 10
3 10 4 6
3 5 8 11
3 7 5 11
3 10 6 12
3 12 6 7
3 7 11 13
3 7 13 12
3 8 14 15
3 11 8 15
3 16 9 17
3 17 9 10
3 17 10 18
3 18 10 12
3 11 15 19
3 13 11 19
3 18 12 20
3 13 19 20
3 20 12 13
3 14 22 24
3 15 14 24
3 15 24 25
3 19 15 25
3 21 16 26
3 26 16 17
3 26 17 27
3 27 17 18
3 27 18 28
3 28 18 20
3 19 25 29
3 19 29 20
3 28 20 30
3 30 20 29
3 31 21 32
3 32 21 26
3 22 23 36
3 24 22 36
3 23 34 37
3 36 23 37
3 24 36 38
3 25 24 38
3 25 38 39
3 29 25 39
3 32 26 40
3 40 26 27
3 40 27 41
3 41 27 28
3 41 28 42
3 42 28 30
3 29 39 43
3 29 43 30
3 42 30 43
3 33 31 44
3 44 31 32
3 44 32 45
3 45 32 40
3 46 33 47
3 47 33 44
3 34 35 50
3 37 34 50
3 35 48 51
3 50 35 51
3 36 37 52
3 38 36 52
3 37 50 53
3 52 37 53
3 38 52 54
3 39 38 54
3 39 54 55
3 43 39 55
3 45 40 56
3 56 40 41
3 56 41 57
3 57 41 42
3 57 42 58
3 58 42 43
3 43 55 59
3 43 59 58
3 47 44 60
3 60 44 45
3 60 45 61
3 61 45 56
3 62 46 63
3 63 46 47
3 63 47 64
3 64 47 60
3 48 49 68
3 51 48 68
3 49 66 69
3 68 49 69
3 50 51 70
3 53 50 70
3 51 68 71
3 70 51 71
3 52 53 72
3 54 52 72
3 53 70 73
3 72 53 73
3 54 72 74
3 55 54 74
3 55 74 75
3 59 55 75
3 61 56 76
3 76 56 57
3 76 57 77
3 77 57 58
3 77 58 78
3 59 75 78
3 78 58 59
3 64 60 79
3 79 60 61
3 79 61 80
3 80 61 76
3 65 62 81
3 81 62 63
3 81 63 82
3 82 63 64
3 82 64 83
3 83 64 79
3 84 65 85
3 85 65 81
3 66 67 89
3 69 66 89
3 67 87 90
3 89 67 90
3 68 69 91
3 71 68 91
3 69 89 92
3 91 69 92
3 70 71 93
3 73 70 93
3 71 91 94
3 93 71 94
3 72 73 95
3 74 72 95
3 73 93 96
3 95 73 96
3 74 95 97
3 75 74 97
3 75 97 98
3 78 75 98
3 80 76 99
3 99 76 77
3 99 77 100
3 100 77 78
3 100 78 101
3 98 101 78
3 83 79 102
3 102 79 80
3 102 80 103
3 103 80 99
3 85 81 104
3 104 81 82
3 105 83 102
3 104 82 106
3 106 82 83
3 106 83 105
3 86 84 107
3 107 84 85
3 107 85 108
3 108 85 104
3 109 86 107
3 110 86 109
3 87 88 112
3 90 87 112
3 112 88 113
3 88 114 113
3 90 112 115
3 89 90 116
3 92 89 116
3 116 90 115
3 91 92 117
3 94 91 117
3 92 116 118
3 117 92 118
3 93 94 119
3 96 93 119
3 94 117 120
3 119 94 120
3 95 96 121
3 97 95 121
3 96 119 122
3 121 96 122
3 97 121 123
3 98 97 123
3 98 123 124
3 98 124 101
3 103 99 125
3 125 99 100
3 125 100 126
3 126 100 101
3 126 101 124
3 105 102 127
3 127 102 103
3 127 103 128
3 128 103 125
3 129 105 127
3 108 104 130
3 130 104 106
3 130 106 131
3 131 106 105
3 131 105 129
3 108 130 132
3 109 107 133
3 133 107 108
3 133 108 134
3 108 132 134
3 135 109 133
3 111 110 136
3 136 110 109
3 136 109 135
3 137 111 136
3 138 111 137
3 112 113 139
3 115 112 139
3 114 140 113
3 140 139 113
3 139 141 115
3 116 115 142
3 118 116 142
3 142 115 141
3 117 118 143
3 120 117 143
3 118 142 144
3 143 118 144
3 119 120 145
3 122 119 145
3 120 143 146
3 145 120 146
3 121 122 147
3 123 121 147
3 122 145 148
3 147 122 148
3 123 147 149
3 124 123 149
3 124 149 150
3 151 126 124
3 124 150 151
3 128 125 152
3 152 125 126
3 152 126 151
3 129 127 153
3 153 127 128
3 128 152 154
3 153 128 154
3 155 129 153
3 131 129 156
3 156 129 155
3 132 130 157
3 130 131 157
3 157 131 158
3 131 156 158
3 132 157 159
3 132 159 134
3 135 133 160
3 160 133 134
3 160 134 159
3 136 135 161
3 135 160 161
3 162 137 136
3 161 162 136
3 163 138 137
3 162 163 137
3 139 164 141
3 140 165 139
3 139 165 164
3 141 164 166
3 141 166 142
3 166 167 142
3 144 142 167
3 167 168 144
3 143 144 168
3 146 143 168
3 168 169 146
3 145 146 170
3 148 145 170
3 170 146 169
3 147 148 171
3 149 147 171
3 148 170 172
3 171 148 172
3 173 151 150
3 149 171 174
3 150 149 174
3 150 174 175
3 150 175 173
3 154 152 176
3 152 151 176
3 176 151 173
3 154 176 177
3 155 153 178
3 177 178 154
3 154 178 153
3 156 155 179
3 155 178 179
3 180 158 156
3 179 180 156
3 181 159 157
3 180 181 158
3 181 157 158
3 182 160 159
3 181 182 159
3 183 161 160
3 182 183 160
3 184 162 161
3 184 161 183
3 185 163 162
3 184 185 162
3 164 186 166
3 165 187 164
3 164 187 186
3 166 186 188
3 166 188 167
3 167 188 189
3 167 189 168
3 168 189 190
3 168 190 169
3 169 190 191
3 169 191 170
3 192 172 170
3 170 191 192
3 192 193 172
3 171 172 193
3 174 171 193
3 194 173 175
3 176 173 194
3 175 174 195
3 193 195 174
3 195 196 175
3 175 196 194
3 197 177 176
3 194 197 176
3 198 178 177
3 197 198 177
3 199 179 178
3 198 199 178
3 200 180 179
3 199 200 179
3 201 181 180
3 200 201 180
3 202 182 181
3 201 202 181
3 203 183 182
3 202 203 182
3 204 184 183
3 203 204 183
3 205 185 184
3 204 205 184
3 186 206 188
3 187 207 186
3 186 207 206
3 188 206 208
3 188 208 189
3 189 208 209
3 189 209 190
3 190 209 210
3 190 210 191
3 191 210 211
3 191 211 192
3 192 211 212
3 192 212 193
3 193 212 213
3 193 213 195
3 214 197 194
3 214 194 196
3 195 213 215
3 195 215 196
3 196 215 214
3 216 198 197
3 214 216 197
3 217 199 198
3 216 217 198
3 218 200 199
3 217 218 199
3 219 201 200
3 218 219 200
3 220 202 201
3 219 220 201
3 221 203 202
3 220 221 202
3 222 204 203
3 221 222 203
3 223 205 204
3 222 223 204
3 206 224 208
3 207 225 206
3 206 225 224
3 208 224 226
3 208 226 209
3 209 226 227
3 209 227 210
3 210 227 228
3 210 228 211
3 211 228 229
3 211 229 212
3 212 229 230
3 212 230 213
3 213 230 231
3 213 231 215
3 232 216 214
3 215 231 232
3 232 214 215
3 233 217 216
3 232 233 216
3 234 218 217
3 233 234 217
3 235 219 218
3 234 235 218
3 236 220 219
3 235 236 219
3 237 221 220
3 236 237 220
3 238 222 221
3 237 238 221
3 239 223 222
3 238 239 222
3 224 240 226
3 225 241 224
3 224 241 240
3 226 240 242
3 226 242 227
3 227 242 243
3 227 243 228
3 228 243 244
3 228 244 229
3 244 245 229
3 229 245 230
3 230 245 246
3 230 246 231
3 231 246 247
3 231 247 232
3 248 233 232
3 248 232 247
3 249 234 233
3 248 249 233
3 250 235 234
3 249 250 234
3 251 236 235
3 250 251 235
3 252 237 236
3 251 252 236
3 253 238 237
3 252 253 237
3 254 239 238
3 253 254 238
3 240 255 242
3 241 256 240
3 240 256 255
3 242 255 257
3 242 257 243
3 243 257 258
3 243 258 244
3 244 258 259
3 244 259 245
3 245 259 260
3 245 260 246
3 246 260 261
3 246 261 247
3 248 247 261
3 262 249 248
3 261 262 248
3 263 250 249
3 262 263 249
3 264 251 250
3 263 264 250
3 265 252 251
3 264 265 251
3 266 253 252
3 265 266 252
3 267 254 253
3 266 267 253
3 255 268 257
3 256 269 255
3 255 269 268
3 257 268 270
3 257 270 258
3 258 270 271
3 258 271 259
3 259 271 272
3 259 272 260
3 260 272 273
3 260 273 261
3 274 262 261
3 261 273 274
3 275 263 262
3 274 275 262
3 276 264 263
3 275 276 263
3 277 265 264
3 276 277 264
3 278 266 265
3 277 278 265
3 279 267 266
3 278 279 266
3 268 280 270
3 269 281 268
3 268 281 280
3 270 280 282
3 270 282 271
3 271 282 283
3 271 283 272
3 283 284 272
3 272 284 273
3 285 275 274
3 273 284 285
3 285 274 273
3 286 276 275
3 285 286 275
3 287 277 276
3 286 287 276
3 288 278 277
3 287 288 277
3 289 279 278
3 288 289 278
3 280 290 282
3 281 291 280
3 280 291 290
3 282 290 292
3 282 292 283
3 283 292 293
3 283 293 284
3 284 293 294
3 284 294 285
3 295 286 285
3 295 285 294
3 296 287 286
3 295 296 286
3 297 288 287
3 296 297 287
3 298 289 288
3 297 298 288
3 290 299 292
3 291 300 290
3 290 300 299
3 292 299 301
3 292 301 293
3 293 301 302
3 293 302 294
3 294 302 295
3 303 296 295
3 303 295 302
3 304 297 296
3 303 304 296
3 305 298 297
3 304 305 297
3 299 306 301
3 300 307 299
3 299 307 306
3 301 306 308
3 301 308 302
3 309 303 302
3 302 308 309
3 310 304 303
3 309 310 303
3 311 305 304
3 310 311 304
3 306 312 308
3 307 313 306
3 306 313 312
3 314 310 309
3 308 312 314
3 314 309 308
3 315 311 310
3 314 315 310
3 312 316 314
3 313 317 312
3 312 317 316
3 318 315 314
3 318 314 316
3 317 319 316
3 319 318 316
CELL_TYPES 578
5
5
5
5
5
5
5
5
5
5
5
5
5
5
5
5
5
5
5
5
5
5
5
5
5
5
5
5
5
5
5
5
5
5
5
5
5
5
5
5
5
5
5
5
5
5
5
5
5
5
5
5
5
5
5
5
5
5
5
5
5
5
5
5
5
5
5
5
5
5
5
5
5
5
5
5
5
5
5
5
5
5
5
5
5
5
5
5
5
5
5
5
5
5
5
5
5
5
5
5
5
5
5
5
5
5
5
5
5
5
5
5
5
5
5
5
5
5
5
5
5
5
5
5
5
5
5
5
5
5
5
5
5
5
5
5
5
5
5
5
5
5
5
5
5
5
5
5
5
5
5
5
5
5
5
5
5
5
5
5
5
5
5
5
5
5
5
5
5
5
5
5
5
5
5
5
5
5
5
5
5
5
5
5
5
5
5
5
5
5
5
5
5
5
5
5
5
5
5
5
5
5
5
5
5
5
5
5
5
5
5
5
5
5
5
5
5
5
5
5
5
5
5
5
5
5
5
5
5
5
5
5
5
5
5
5
5
5
5
5
5
5
5
5
5
5
5
5
5
5
5
5
5
5
5
5
5
5
5
5
5
5
5
5
5
5
5
5
5
5
5
5
5
5
5
5
5
5
5
5
5
5
5
5
5
5
5
5
5
5
5
5
5
5
5
5
5
5
5
5
5
5
5
5
5
5
5
5
5
5
5
5
5
5
5
5
5
5
5
5
5
5
5
5
5
5
5
5
5
5
5
5
5
5
5
5
5
5
5
5
5
5
5
5
5
5
5
5
5
5
5
5
5
5
5
5
5
5
5
5
5
5
5
5
5
5
5
5
5
5
5
5
5
5
5
5
5
5
5
5
5
5
5
5
5
5
5
5
5
5
5
5
5
5
5
5
5
5
5
5
5
5
5
5
5
5
5
5
5
5
5
5
5
5
5
5
5
5
5
5
5
5
5
5
5
5
5
5
5
5
5
5
5
5
5
5
5
5
5
5
5
5
5
5
5
5
5
5
5
5
5
5
5
5
5
5
5
5
5
5
5
5
5
5
5
5
5
5
5
5
5
5
5
5
5
5
5
5
5
5
5
5
5
5
5
5
5
5
5
5
5
5
5
5
5
5
5
5
5
5
5
5
5
5
5
5
5
5
5
5
5
5
5
5
5
5
5
5
5
5
5
5
5
5
5
5
5
5
5
5
5
5
5
5
5
5
5
5
5
5
5
5
5
5
5
5
5
5
5
5
5
5
5
5
5
5
5
5
5
5
5
5
5
5
5
5
5
5
5
5
5
5
5
5
5
5
5
5
POINT_DATA 320
SCALARS theta_e float 1
LOOKUP_TABLE default
0.999999
0.999999
0.999999
0.999999
0.999999
0.999999
0.999999
0.999999
0.999999
1.000000
1.000000
0.999999
0.999999
0.999999
0.999999
0.999999
1.000000
1.000000
1.000000
0.999999
0.999999
1.000000
0.999999
0.999999
0.999999
0.999999
1.000000
1.000000
1.000000
0.999999
1.000000
1.000000
1.000000
1.000000
0.999999
0.999998
0.999999
0.999999
0.999999
0.999999
1.000000
1.000000
1.000000
0.999999
1.000000
1.000000
1.000000
1.000000
0.999998
0.999998
0.999998
0.999998
0.999999
0.999999
0.999999
0.999999
1.000000
1.000000
0.999998
0.999998
1.000000
1.000000
1.000001
1.000001
1.000000
1.000001
0.999998
0.999998
0.999998
0.999998
0.999998
0.999998
0.999999
0.999999
0.999998
0.999995
1.000000
0.999998
0.999994
1.000000
1.000000
1.000001
1.000000
1.000000
1.000001
1.000001
1.000001
0.999998
0.999998
0.999998
0.999998
0.999998
0.999998
0.999998
0.999998
0.999998
0.999999
0.999994
0.999990
0.999999
0.999995
0.999990
1.000001
1.000002
1.000001
1.000001
1.000000
1.000001
1.000001
1.000001
1.000001
1.000001
0.999998
0.999998
0.999998
0.999998
0.999998
0.999998
0.999998
0.999998
0.999998
0.999996
0.999999
0.999988
0.999991
1.000001
0.999998
1.000004
1.000007
1.000003
1.000000
1.000001
1.000001
1.000001
1.000001
1.000001
1.000001
1.000001
1.000001
0.999998
0.999998
0.999998
0.999998
0.999997
0.999998
0.999999
0.999997
0.999996
1.000002
0.999993
0.999994
1.000000
1.000006
1.000009
1.000012
1.000006
1.000002
1.000000
1.000000
1.000001
1.000001
1.000001
1.000001
1.000001
0.999998
0.999998
0.999998
0.999998
0.999997
0.999997
0.999999
1.000008
1.000007
0.999970
0.999995
0.999934
0.999999
1.000016
1.000010
1.000005
1.000001
1.000000
1.000001
1.000001
1.000001
1.000001
0.999998
0.999998
0.999998
0.999997
0.999996
0.999997
1.000003
1.000020
0.999953
0.999985
0.999933
1.000020
1.000017
1.000008
1.000003
1.000001
1.000001
1.000001
1.000001
1.000001
0.999998
0.999998
0.999998
0.999997
0.999996
0.999998
1.000011
1.000026
1.000013
1.000017
1.000023
1.000010
1.000004
1.000001
1.000001
1.000001
1.000001
1.000001
0.999998
0.999998
0.999998
0.999997
0.999996
0.999999
1.000011
1.000024
1.000023
1.000009
1.000005
1.000002
1.000001
1.000001
1.000001
1.000001
0.999998
0.999998
0.999998
0.999997
0.999997
0.999999
1.000006
1.000011
1.000008
1.000004
1.000002
1.000001
1.000001
1.000001
1.000001
0.999998
0.999998
0.999998
0.999997
0.999997
0.999999
1.000002
1.000002
1.000001
1.000000
1.000000
1.000001
1.000001
0.999999
0.999999
0.999998
0.999998
0.999998
0.999999
1.000000
1.000000
1.000000
1.000000
1.000001
1.000001
0.999999
0.999999
0.999999
0.999999
0.999999
0.999999
1.000000
1.000000
1.000000
1.000001
0.999999
0.999999
0.999999
0.999999
0.999999
1.000000
1.000000
1.000000
1.000000
0.999999
0.999999
1.000000
1.000000
1.000000
1.000000
1.000000
1.000000
1.000000
1.000000
1.000000
1.000000
1.000000
1.000000
1.000000
1.000000
1.000000
1.000000
1.000000
1.000000
1.000000
VECTORS fa_u float
0.000000 0.000000 0.000000
0.000000 0.000000 0.000000
0.000000 0.000000 0.000000
0.000000 0.000000 0.000000
0.000000 0.000000 0.000000
0.000000 0.000000 0.000000
0.000000 0.000000 0.000000
0.000000 0.000000 0.000000
0.000000 0.000000 0.000000
0.000000 0.000000 0.000000
0.000000 0.000000 0.000000
0.000000 0.000000 0.000000
0.000000 0.000000 0.000000
0.000000 0.000000 0.000000
0.000000 0.000000 0.000000
0.000000 0.000000 0.000000
0.000000 0.000000 0.000000
0.000000 0.000000 0.000000
0.000000 0.000000 0.000000
0.000000 0.000000 0.000000
0.000000 0.000000 0.000000
0.000000 0.000000 0.000000
0.000000 0.000000 0.000000
0.000000 0.000000 0.000000
0.000000 0.000000 0.000000
0.000000 0.000000 0.000000
0.000000 0.000000 0.000000
0.000000 0.000000 0.000000
0.000000 0.000000 0.000000
0.000000 0.000000 0.000000
0.000000 0.000000 0.000000
0.000000 0.000000 0.000000
0.000000 0.000000 0.000000
0.000000 0.000000 0.000000
0.000000 0.000000 0.000000
0.000000 0.000000 0.000000
0.000000 0.000000 0.000000
0.000000 0.000000 0.000000
0.000000 0.000000 0.000000
0.000000 0.000000 0.000000
0.000000 0.000000 0.000000
0.000000 0.000000 0.000000
0.000000 0.000000 0.000000
0.000000 0.000000 0.000000
0.000000 0.000000 0.000000
0.000000 0.000000 0.000000
0.000000 0.000000 0.000000
0.000000 0.000000 0.000000
0.000000 0.000000 0.000000
0.000000 0.000000 0.000000
0.000000 0.000000 0.000000
0.000000 0.000000 0.000000
0.000000 0.000000 0.000000
0.000000 0.000000 0.000000
0.000000 0.000000 0.000000
0.000000 0.000000 0.000000
0.000000 0.000000 0.000000
0.000000 0.000000 0.000000
0.000000 0.000000 0.000000
0.000000 0.000000 0.000000
0.000000 0.000000 0.000000
0.000000 0.000000 0.000000
0.000000 0.000000 0.000000
0.000000 0.000000 0.000000
0.000000 0.000000 0.000000
0.000000 0.000000 0.000000
0.000000 0.000000 0.000000
0.000000 0.000000 0.000000
0.000000 0.000000 0.000000
0.000000 0.000000 0.000000
0.000000 0.000000 0.000000
0.000000 0.000000 0.000000
0.000000 0.000000 0.000000
0.000000 0.000000 0.000000
0.000000 0.000000 0.000000
0.000000 0.000000 0.000000
0.000000 0.000000 0.000000
0.000000 0.000000 0.000000
0.000000 0.000000 0.000000
0.000000 0.000000 0.000000
0.000000 0.000000 0.000000
0.000000 0.000000 0.000000
0.000000 0.000000 0.000000
0.000000 0.000000 0.000000
0.000000 0.000000 0.000000
0.000000 0.000000 0.000000
0.000000 0.000000 0.000000
0.000000 0.000000 0.000000
0.000000 0.000000 0.000000
0.000000 0.000000 0.000000
0.000000 0.000000 0.000000
0.000000 0.000000 0.000000
0.000000 0.000000 0.000000
0.000000 0.000000 0.000000
0.000000 0.000000 0.000000
0.000000 0.000000 0.000000
0.000000 0.000000 0.000000
0.000000 0.000000 0.000000
0.000000 0.000000 0.000000
0.000000 0.000000 0.000000
0.000000 0.000000 0.000000
0.000000 0.000000 0.000000
0.000000 0.000000 0.000000
0.000000 0.000000 0.000000
0.000000 0.000000 0.000000
0.000000 0.000000 0.000000
0.000000 0.000000 0.000000
0.000000 0.000000 0.000000
0.000000 0.000000 0.000000
0.000000 0.000000 0.000000
0.000000 0.000000 0.000000
0.000000 0.000000 0.000000
0.000000 0.000000 0.000000
0.000000 0.000000 0.000000
0.000000 0.000000 0.000000
0.000000 0.000000 0.000000
0.000000 0.000000 0.000000
0.000000 0.000000 0.000000
0.000000 0.000000 0.000000
0.000000 0.000000 0.000000
0.000000 0.000000 0.000000
0.000000 0.000000 0.000000
0.000000 0.000000 0.000000
0.000000 0.000000 0.000000
0.000000 0.000000 0.000000
0.000000 0.000000 0.000000
0.000000 0.000000 0.000000
0.000000 0.000000 0.000000
0.000000 0.000000 0.000000
0.000000 0.000000 0.000000
0.000000 0.000000 0.000000
0.000000 0.000000 0.000000
0.000000 0.000000 0.000000
0.000000 0.000000 0.000000
0.000000 0.000000 0.000000
0.000000 0.000000 0.000000
0.000000 0.000000 0.000000
0.000000 0.000000 0.000000
0.000000 0.000000 0.000000
0.000000 0.000000 0.000000
0.000000 0.000000 0.000000
0.000000 0.000000 0.000000
0.000000 0.000000 0.000000
0.000000 0.000000 0.000000
0.000000 0.000000 0.000000
0.000000 0.000000 0.000000
0.000000 0.000000 0.000000
0.000000 0.000000 0.000000
0.000000 0.000000 0.000000
0.000000 0.000000 0.000000
0.000000 0.000000 0.000000
0.000000 0.000000 0.000000
0.000000 0.000000 0.000000
0.000000 0.000000 0.000000
0.000000 0.000000 0.000000
0.000000 0.000000 0.000000
0.000000 0.000000 0.000000
0.000000 0.000000 0.000000
0.000000 0.000000 0.000000
0.000000 0.000000 0.000000
0.000000 0.000000 0.000000
0.000000 0.000000 0.000000
0.000000 0.000000 0.000000
0.000000 0.000000 0.000000
0.000000 0.000000 0.000000
0.000000 0.000000 0.000000
0.000000 0.000000 0.000000
0.000000 0.000000 0.000000
0.000000 0.000000 0.000000
0.000000 0.000000 0.000000
0.000000 0.000000 0.000000
0.000000 0.000000 0.000000
0.000000 0.000000 0.000000
0.000000 0.000000 0.000000
0.000000 0.000000 0.000000
0.000000 0.000000 0.000000
0.000000 0.000000 0.000000
0.000000 0.000000 0.000000
0.000000 0.000000 0.000000
0.000000 0.000000 0.000000
0.000000 0.000000 0.000000
0.000000 0.000000 0.000000
0.000000 0.000000 0.000000
0.000000 0.000000 0.000000
0.000000 0.000000 0.000000
0.000000 0.000000 0.000000
0.000000 0.000000 0.000000
0.000000 0.000000 0.000000
0.000000 0.000000 0.000000
0.000000 0.000000 0.000000
0.000000 0.000000 0.000000
0.000000 0.000000 0.000000
0.000000 0.000000 0.000000
0.000000 0.000000 0.000000
0.000000 0.000000 0.000000
0.000000 0.000000 0.000000
0.000000 0.000000 0.000000
0.000000 0.000000 0.000000
0.000000 0.000000 0.000000
0.000000 0.000000 0.000000
0.000000 0.000000 0.000000
0.000000 0.000000 0.000000
0.000000 0.000000 0.000000
0.000000 0.000000 0.000000
0.000000 0.000000 0.000000
0.000000 0.000000 0.000000
0.000000 0.000000 0.000000
0.000000 0.000000 0.000000
0.000000 0.000000 0.000000
0.000000 0.000000 0.000000
0.000000 0.000000 0.000000
0.000000 0.000000 0.000000
0.000000 0.000000 0.000000
0.000000 0.000000 0.000000
0.000000 0.000000 0.000000
0.000000 0.000000 0.000000
0.000000 0.000000 0.000000
0.000000 0.000000 0.000000
0.000000 0.000000 0.000000
0.000000 0.000000 0.000000
0.000000 0.000000 0.000000
0.000000 0.000000 0.000000
0.000000 0.000000 0.000000
0.000000 0.000000 0.000000
0.000000 0.000000 0.000000
0.000000 0.000000 0.000000
0.000000 0.000000 0.000000
0.000000 0.000000 0.000000
0.000000 0.000000 0.000000
0.000000 0.000000 0.000000
0.000000 0.000000 0.000000
0.000000 0.000000 0.000000
0.000000 0.000000 0.000000
0.000000 0.000000 0.000000
0.000000 0.000000 0.000000
0.000000 0.000000 0.000000
0.000000 0.000000 0.000000
0.000000 0.000000 0.000000
0.000000 0.000000 0.000000
0.000000 0.000000 0.000000
0.000000 0.000000 0.000000
0.000000 0.000000 0.000000
0.000000 0.000000 0.000000
0.000000 0.000000 0.000000
0.000000 0.000000 0.000000
0.000000 0.000000 0.000000
0.000000 0.000000 0.000000
0.000000 0.000000 0.000000
0.000000 0.000000 0.000000
0.000000 0.000000 0.000000
0.000000 0.000000 0.000000
0.000000 0.000000 0.000000
0.000000 0.000000 0.000000
0.000000 0.000000 0.000000
0.000000 0.000000 0.000000
0.000000 0.000000 0.000000
0.000000 0.000000 0.000000
0.000000 0.000000 0.000000
0.000000 0.000000 0.000000
0.000000 0.000000 0.000000
0.000000 0.000000 0.000000
0.000000 0.000000 0.000000
0.000000 0.000000 0.000000
0.000000 0.000000 0.000000
0.000000 0.000000 0.000000
0.000000 0.000000 0.000000
0.000000 0.000000 0.000000
0.000000 0.000000 0.000000
0.000000 0.000000 0.000000
0.000000 0.000000 0.000000
0.000000 0.000000 0.000000
0.000000 0.000000 0.000000
0.000000 0.000000 0.000000
0.000000 0.000000 0.000000
0.000000 0.000000 0.000000
0.000000 0.000000 0.000000
0.000000 0.000000 0.000000
0.000000 0.000000 0.000000
0.000000 0.000000 0.000000
0.000000 0.000000 0.000000
0.000000 0.000000 0.000000
0.000000 0.000000 0.000000
0.000000 0.000000 0.000000
0.000000 0.000000 0.000000
0.000000 0.000000 0.000000
0.000000 0.000000 0.000000
0.000000 0.000000 0.000000
0.000000 0.000000 0.000000
0.000000 0.000000 0.000000
0.000000 0.000000 0.000000
0.000000 0.000000 0.000000
0.000000 0.000000 0.000000
0.000000 0.000000 0.000000
0.000000 0.000000 0.000000
0.000000 0.000000 0.000000
0.000000 0.000000 0.000000
0.000000 0.000000 -50.000000
-50.000000 0.000000 -50.000000
-43.333377 0.000000 -45.688255
-45.491036 0.000000 -43.333374
-50.000000 0.000000 -50.000000
-36.666740 0.000000 -36.666728
-50.000000 0.000000 -45.080982
-39.969710 0.000000 -40.026989
-44.152160 0.000000 -30.000082
-50.000000 0.000000 -50.000000
-30.000098 0.000000 -44.846953
-33.448855 0.000000 -33.144769
-44.675560 0.000000 -39.868959
-36.786909 0.000000 -35.128459
-39.801150 0.000000 -23.333425
-50.000000 0.000000 -26.539005
-44.666682 0.000000 -50.000000
-23.333444 0.000000 -44.665219
-26.803839 0.000000 -39.364118
-30.225592 0.000000 -29.606055
-39.359241 0.000000 -33.368006
-33.655304 0.000000 -50.000000
-16.666776 0.000000 -16.666754
-50.000000 0.000000 -10.000065
