# vtk DataFile Version 2.0
CellBP Time: 4
ASCII
DATASET UNSTRUCTURED_GRID
POINTS 296 double
-8.99687 -3.69733 0
-8.43071 -4.84651 0
-9.40964 -2.48466 0
-9.6596 -1.2283 0
-8.356 -2.81806 0
-7.71981 -5.91212 0
-6.87552 -6.87545 0
-7.91564 -3.87391 0
-7.34121 -4.86686 0
-5.91168 -7.71938 0
-4.84686 -8.43164 0
-9.74415 0.0500089 0
-9.66021 1.32841 0
-8.65602 -1.68369 0
-8.78458 -0.529525 0
-7.58804 -2.00365 0
-7.22417 -2.9058 0
-6.63637 -5.77778 0
-5.8213 -6.59566 0
-6.7888 -3.88801 0
-6.21924 -4.67486 0
-3.69785 -8.99771 0
-2.48431 -9.40819 0
-4.90553 -7.30748 0
-3.91228 -7.88478 0
-8.79105 0.643279 0
-9.41109 2.5851 0
-8.62163 1.77379 0
-8.99872 3.79806 0
-7.74257 -0.928818 0
-7.79283 0.0802638 0
-6.9511 -1.31561 0
-1.2282 -9.65987 0
-6.44018 -2.15265 0
-6.31802 -3.05545 0
-5.53535 -5.47337 0
-4.79487 -6.11416 0
-5.65787 -3.7562 0
-5.26824 -4.56057 0
-2.86558 -8.36234 0
-1.77817 -8.63854 0
-3.92731 -6.72212 0
-3.05593 -7.15109 0
0.0500278 -9.74463 0
-7.70381 1.1433 0
-8.33705 2.91488 0
-7.55023 2.11155 0
-8.43235 4.94734 0
-7.87862 3.97753 0
-7.72087 6.01284 0
-6.77731 -0.396798 0
-6.95505 0.552483 0
-5.77052 -1.00324 0
-0.590695 -8.80804 0
0.565615 -8.76929 0
-5.3023 -2.47988 0
-4.49103 -5.09467 0
-3.90165 -5.77407 0
-4.43819 -3.80414 0
-2.06194 -7.56037 0
-1.13522 -7.78423 0
-2.99388 -6.1008 0
-2.30848 -6.61837 0
1.32838 -9.66029 0
-6.68813 1.42183 0
-7.17067 3.11746 0
-6.65788 2.37253 0
-7.29348 4.98782 0
-6.71671 4.00228 0
-6.87616 6.97619 0
-6.5714 5.89319 0
-5.91286 7.82093 0
-4.45238 -1.18083 0
-5.81373 0.513693 0
-4.6554 -0.01033 0
0.00849371 -7.84651 0
1.73833 -8.64236 0
0.948776 -7.76188 0
-4.03786 -2.40597 0
-3.48488 -1.39089 0
-3.29394 -4.80459 0
-3.26531 -3.26721 0
-1.37829 -6.67419 0
-0.508655 -7.0236 0
-1.9752 -5.53617 0
2.58522 -9.41148 0
-5.50655 2.03665 0
-6.09358 3.07162 0
-6.1039 4.86871 0
-5.76059 3.99073 0
-5.76042 6.71616 0
-5.45109 5.61835 0
-4.84905 8.53535 0
-4.83775 7.40353 0
-3.50084 -0.424159 0
-4.44857 1.24889 0
-3.71077 0.592042 0
-4.06153 2.3195 0
-3.69829 9.09918 0
2.8622 -8.33159 0
0.41962 -6.79416 0
2.02167 -7.52454 0
1.30581 -6.90428 0
-2.44418 -0.873589 0
-2.83784 -2.13069 0
-2.294 -4.09671 0
-2.32519 -2.97301 0
-0.44226 -5.8603 0
-1.2225 -4.49842 0
3.79851 -8.99951 0
-4.78916 3.39137 0
-5.08703 4.59336 0
-4.64634 6.28037 0
-4.53801 5.35876 0
-3.84322 7.99231 0
-3.82607 6.8446 0
-2.78293 8.42174 0
-1.64858 -0.137791 0
-1.44988 -0.890313 0
-2.48861 0.507255 0
-3.253 1.44396 0
-3.23852 3.31612 0
-2.9104 2.3714 0
-1.35472 0.627035 0
-2.48507 9.51089 0
3.93221 -7.88591 0
2.96412 -7.15664 0
0.953981 -5.82113 0
2.07395 -6.41438 0
-1.68263 -1.99164 0
-1.43417 -3.27715 0
0.0902541 -4.74629 0
-0.566064 -3.69379 0
4.93153 -7.31786 0
4.94814 -8.43382 0
-3.77649 4.55109 0
-3.73413 5.75122 0
-2.8875 7.28872 0
-3.00917 6.35268 0
-1.66235 8.73259 0
-1.93979 7.6182 0
-2.33803 4.05114 0
-0.73054 -1.32689 0
-0.836653 -0.257494 0
-1.93579 1.68054 0
-2.12534 2.87538 0
-1.30628 3.5441 0
-0.869213 1.35059 0
-0.282258 0.455964 0
-0.533448 8.87064 0
-1.22831 9.76062 0
1.11263 -4.57392 0
3.90962 -6.71633 0
2.98746 -6.09368 0
2.11761 -5.42414 0
4.78377 -6.20443 0
-0.558745 -2.4763 0
0.495063 -3.46321 0
0.0535644 -1.61008 0
1.48165 -3.68143 0
5.86649 -6.61395 0
6.01278 -7.72093 0
-2.47542 5.34791 0
-2.13013 6.53352 0
-0.903929 7.80219 0
-1.27213 6.93102 0
0.0862127 7.87927 0
-1.14428 4.49412 0
0.150296 -0.617505 0
-0.797221 2.48812 0
-0.331518 3.60013 0
0.0631597 1.51244 0
0.741319 0.473337 0
0.646715 8.87336 0
0.0500711 9.84625 0
2.38067 -4.28467 0
3.8587 -5.6396 0
3.00103 -5.21208 0
5.57301 -5.49111 0
4.69046 -5.28238 0
0.629577 -2.29291 0
1.25596 -2.95074 0
0.75729 -1.39114 0
2.16397 -3.13531 0
2.99329 -3.47602 0
6.15446 -4.79117 0
6.65505 -5.76876 0
6.97632 -6.87621 0
-1.01954 5.81982 0
-0.372541 6.88275 0
1.12248 7.76863 0
0.557909 7.07892 0
-0.000736738 4.72461 0
0.606949 3.82721 0
1.33866 -0.641763 0
0.53907 2.65063 0
0.965965 1.57462 0
1.90986 0.213817 0
1.61449 1.0648 0
2.12915 7.58278 0
1.79907 8.71179 0
1.32849 9.76133 0
3.82243 -4.35116 0
5.11602 -4.44852 0
5.8451 -3.93462 0
3.78353 -3.20066 0
1.81196 -1.88237 0
3.01871 -2.57358 0
6.78277 -3.94745 0
7.38105 -4.89645 0
7.82176 -5.91354 0
0.483314 5.88115 0
1.42805 6.74128 0
2.37407 6.66838 0
1.20987 4.55573 0
1.488 3.39715 0
2.43539 -0.691888 0
2.82755 0.142562 0
1.78865 2.1625 0
2.61149 1.14993 0
3.07175 7.16952 0
2.90409 8.37653 0
2.58549 9.51216 0
4.91095 -3.32762 0
6.12025 -3.1084 0
4.17247 -2.27508 0
3.24402 -1.50278 0
6.73092 -2.31287 0
7.23158 -3.04227 0
7.96468 -3.91207 0
8.5322 -4.84728 0
2.02353 5.59961 0
3.08633 6.15321 0
2.36376 4.12661 0
2.41981 3.06049 0
3.52523 -0.460832 0
3.61525 0.613196 0
2.96148 2.28779 0
3.54516 1.52507 0
4.01204 5.89793 0
3.98446 6.79304 0
3.97344 7.93893 0
3.79907 9.10103 0
5.56874 -1.91608 0
4.50898 -1.12955 0
6.71384 -1.3361 0
7.59243 -2.0364 0
8.3974 -2.86141 0
9.09883 -3.69808 0
3.41914 4.87707 0
3.33886 3.38523 0
4.69112 0.130057 0
4.51903 1.30991 0
4.06519 2.44371 0
4.57072 5.15268 0
4.84392 6.1911 0
4.98085 7.38105 0
4.94784 8.53348 0
5.88367 -0.434883 0
7.01113 -0.488246 0
7.75995 -1.08532 0
8.68553 -1.74603 0
9.51174 -2.48522 0
4.5527 3.82781 0
5.81815 1.09867 0
5.37165 2.53512 0
5.38058 4.62103 0
5.61277 5.52413 0
5.89796 6.67278 0
6.01284 7.82077 0
6.84675 0.463608 0
7.8542 -0.0256423 0
8.86156 -0.584369 0
9.76181 -1.22859 0
6.9613 1.34962 0
5.72181 3.77892 0
6.54232 2.19778 0
6.38108 3.08839 0
6.29337 4.68768 0
6.69423 5.83887 0
6.97756 6.97734 0
7.78546 0.967763 0
8.86091 0.572862 0
9.84575 0.0499787 0
7.61743 2.0046 0
6.83036 3.9049 0
7.27079 2.9473 0
7.37973 4.88672 0
7.82281 6.01435 0
8.72453 1.72724 0
9.76171 1.32851 0
8.42255 2.83834 0
7.98318 3.91704 0
8.5338 4.94818 0
9.5114 2.58519 0
9.10051 3.79889 0
CELLS 542 2168
3 2 0 4
3 0 1 7
3 4 0 7
3 1 5 8
3 7 1 8
3 3 2 13
3 13 2 4
3 11 3 14
3 14 3 13
3 13 4 15
3 4 7 16
3 15 4 16
3 5 6 17
3 8 5 17
3 6 9 18
3 17 6 18
3 7 8 19
3 16 7 19
3 8 17 20
3 19 8 20
3 9 10 23
3 18 9 23
3 10 21 24
3 23 10 24
3 12 11 25
3 25 11 14
3 26 12 27
3 27 12 25
3 14 13 29
3 29 13 15
3 25 14 30
3 30 14 29
3 29 15 31
3 15 16 33
3 31 15 33
3 16 19 34
3 33 16 34
3 17 18 35
3 20 17 35
3 18 23 36
3 35 18 36
3 19 20 37
3 34 19 37
3 20 35 38
3 37 20 38
3 21 22 39
3 24 21 39
3 22 32 40
3 39 22 40
3 23 24 41
3 36 23 41
3 24 39 42
3 41 24 42
3 27 25 44
3 44 25 30
3 28 26 45
3 45 26 27
3 45 27 46
3 46 27 44
3 47 28 48
3 48 28 45
3 30 29 50
3 50 29 31
3 44 30 51
3 51 30 50
3 50 31 52
3 31 33 52
3 32 43 53
3 40 32 53
3 53 43 54
3 33 34 55
3 34 37 55
3 33 55 52
3 35 36 56
3 38 35 56
3 36 41 57
3 56 36 57
3 37 38 58
3 38 56 58
3 37 58 55
3 39 40 59
3 42 39 59
3 40 53 60
3 59 40 60
3 41 42 61
3 57 41 61
3 42 59 62
3 61 42 62
3 43 63 54
3 46 44 64
3 64 44 51
3 48 45 65
3 65 45 46
3 65 46 66
3 66 46 64
3 49 47 67
3 67 47 48
3 67 48 68
3 68 48 65
3 69 49 70
3 70 49 67
3 52 55 72
3 64 51 73
3 51 50 73
3 50 52 73
3 73 52 74
3 74 52 72
3 53 54 75
3 60 53 75
3 54 63 76
3 54 76 77
3 75 54 77
3 55 58 78
3 72 55 78
3 72 78 79
3 56 57 80
3 57 61 80
3 56 80 58
3 58 80 81
3 78 58 81
3 59 60 82
3 62 59 82
3 60 75 83
3 82 60 83
3 61 62 84
3 62 82 84
3 61 84 80
3 63 85 76
3 66 64 86
3 64 73 86
3 68 65 87
3 87 65 66
3 87 66 86
3 70 67 88
3 88 67 68
3 88 68 89
3 89 68 87
3 71 69 90
3 90 69 70
3 90 70 91
3 91 70 88
3 92 71 93
3 93 71 90
3 74 72 94
3 94 72 79
3 86 73 95
3 95 73 74
3 95 74 96
3 96 74 94
3 97 86 95
3 76 85 99
3 75 77 100
3 83 75 100
3 76 99 101
3 77 76 101
3 77 101 102
3 100 77 102
3 94 79 103
3 78 81 104
3 79 78 104
3 79 104 103
3 80 84 105
3 81 80 105
3 81 105 106
3 104 81 106
3 82 83 107
3 83 100 107
3 82 107 84
3 84 107 108
3 105 84 108
3 85 109 99
3 89 87 110
3 87 86 110
3 110 86 97
3 91 88 111
3 111 88 89
3 111 89 110
3 93 90 112
3 112 90 91
3 112 91 113
3 113 91 111
3 98 92 114
3 114 92 93
3 114 93 115
3 115 93 112
3 116 98 114
3 117 103 118
3 96 94 119
3 94 103 119
3 119 103 117
3 97 95 120
3 120 95 96
3 120 96 119
3 121 110 97
3 121 97 122
3 122 97 120
3 123 119 117
3 124 98 116
3 99 109 125
3 99 125 126
3 101 99 126
3 100 102 127
3 100 127 107
3 101 126 128
3 102 101 128
3 102 128 127
3 104 106 129
3 104 129 103
3 103 129 118
3 105 108 130
3 106 105 130
3 106 130 129
3 107 127 131
3 108 107 131
3 108 131 132
3 108 132 130
3 109 134 125
3 125 134 133
3 113 111 135
3 111 110 135
3 135 110 121
3 115 112 136
3 136 112 113
3 136 113 135
3 116 114 137
3 137 114 115
3 137 115 138
3 138 115 136
3 139 124 116
3 139 116 140
3 140 116 137
3 141 135 121
3 118 129 142
3 118 142 143
3 117 118 143
3 123 117 143
3 122 120 144
3 120 119 144
3 144 119 123
3 141 121 145
3 145 121 122
3 145 122 144
3 146 141 145
3 147 144 123
3 147 123 148
3 143 148 123
3 150 124 139
3 149 150 139
3 131 127 151
3 125 133 152
3 126 125 152
3 126 152 153
3 128 126 153
3 128 153 154
3 128 154 127
3 127 154 151
3 152 133 155
3 130 132 156
3 130 156 129
3 129 156 142
3 131 151 157
3 132 131 157
3 132 157 156
3 156 158 142
3 157 151 159
3 133 160 155
3 134 161 133
3 133 161 160
3 138 136 162
3 136 135 162
3 162 135 141
3 140 137 163
3 163 137 138
3 163 138 162
3 149 139 164
3 164 139 140
3 164 140 165
3 165 140 163
3 166 149 164
3 167 162 141
3 167 141 146
3 142 158 168
3 143 142 168
3 143 168 148
3 146 145 169
3 145 144 169
3 169 144 147
3 170 167 146
3 170 146 169
3 171 169 147
3 171 147 148
3 171 148 172
3 168 172 148
3 173 149 166
3 174 150 149
3 173 174 149
3 154 175 151
3 151 175 159
3 152 155 176
3 153 152 176
3 153 176 177
3 153 177 154
3 154 177 175
3 155 160 178
3 155 178 179
3 176 155 179
3 156 157 180
3 156 180 158
3 157 159 181
3 157 181 180
3 158 180 182
3 158 182 168
3 159 175 183
3 159 183 181
3 175 184 183
3 160 186 178
3 178 186 185
3 161 187 160
3 160 187 186
3 165 163 188
3 163 162 188
3 188 162 167
3 166 164 189
3 189 164 165
3 189 165 188
3 190 173 166
3 190 166 191
3 191 166 189
3 192 188 167
3 192 167 170
3 193 192 170
3 182 194 168
3 194 172 168
3 193 170 195
3 170 169 195
3 195 169 171
3 196 195 171
3 196 171 172
3 194 197 172
3 197 198 172
3 198 196 172
3 200 173 190
3 199 200 190
3 201 174 173
3 200 201 173
3 176 179 202
3 177 176 202
3 177 202 175
3 175 202 184
3 178 185 203
3 178 203 179
3 179 203 202
3 203 185 204
3 202 205 184
3 183 206 181
3 180 181 206
3 180 206 182
3 182 206 194
3 183 184 207
3 205 207 184
3 183 207 206
3 185 208 204
3 186 209 185
3 185 209 208
3 187 210 186
3 186 210 209
3 191 189 211
3 189 188 211
3 211 188 192
3 199 190 212
3 212 190 191
3 212 191 211
3 213 199 212
3 214 211 192
3 214 192 193
3 215 214 193
3 215 193 195
3 206 216 194
3 216 197 194
3 216 217 197
3 215 195 218
3 218 195 196
3 198 218 196
3 217 219 197
3 219 218 198
3 197 219 198
3 220 199 213
3 221 200 199
3 220 221 199
3 222 201 200
3 221 222 200
3 203 204 223
3 203 223 202
3 202 223 205
3 204 208 224
3 204 224 223
3 205 223 225
3 205 225 207
3 207 225 226
3 207 226 206
3 226 216 206
3 208 228 224
3 224 228 227
3 209 229 208
3 229 228 208
3 210 230 209
3 209 230 229
3 213 212 231
3 212 211 231
3 231 211 214
3 232 220 213
3 232 213 231
3 233 231 214
3 233 214 215
3 234 233 215
3 234 215 218
3 226 235 216
3 235 217 216
3 235 236 217
3 217 236 219
3 237 234 218
3 237 218 219
3 236 238 219
3 238 237 219
3 240 220 232
3 239 240 232
3 241 221 220
3 240 241 220
3 242 222 221
3 241 242 221
3 224 227 243
3 224 243 223
3 223 243 225
3 225 243 244
3 225 244 226
3 226 244 235
3 227 245 243
3 228 246 227
3 227 246 245
3 229 247 228
3 228 247 246
3 230 248 229
3 229 248 247
3 239 232 249
3 232 231 249
3 249 231 233
3 250 249 233
3 250 233 234
3 237 250 234
3 244 251 235
3 235 251 236
3 251 252 236
3 236 252 238
3 252 253 238
3 253 250 237
3 253 237 238
3 254 239 249
3 255 240 239
3 254 255 239
3 256 241 240
3 255 256 240
3 257 242 241
3 256 257 241
3 245 258 243
3 243 258 244
3 244 258 251
3 245 259 258
3 246 260 245
3 245 260 259
3 247 261 246
3 246 261 260
3 248 262 247
3 247 262 261
3 254 249 263
3 263 249 250
3 253 263 250
3 258 264 251
3 251 264 252
3 264 265 252
3 265 263 253
3 252 265 253
3 266 254 263
3 267 255 254
3 266 267 254
3 268 256 255
3 267 268 255
3 269 257 256
3 268 269 256
3 259 270 258
3 270 264 258
3 260 271 259
3 259 271 270
3 261 272 260
3 260 272 271
3 262 273 261
3 273 272 261
3 270 274 264
3 275 266 263
3 275 263 265
3 274 276 264
3 276 265 264
3 276 277 265
3 277 275 265
3 278 267 266
3 275 278 266
3 279 268 267
3 278 279 267
3 280 269 268
3 279 280 268
3 271 281 270
3 270 281 274
3 272 282 271
3 271 282 281
3 273 283 272
3 272 283 282
3 281 284 274
3 274 284 276
3 285 278 275
3 277 285 275
3 284 286 276
3 286 285 277
3 276 286 277
3 287 279 278
3 285 287 278
3 288 280 279
3 287 288 279
3 282 289 281
3 281 289 284
3 283 290 282
3 282 290 289
3 289 291 284
3 284 291 286
3 291 292 286
3 292 287 285
3 286 292 285
3 293 288 287
3 292 293 287
3 290 294 289
3 289 294 291
3 294 295 291
3 295 293 292
3 291 295 292
CELL_TYPES 542
5
5
5
5
5
5
5
5
5
5
5
5
5
5
5
5
5
5
5
5
5
5
5
5
5
5
5
5
5
5
5
5
5
5
5
5
5
5
5
5
5
5
5
5
5
5
5
5
5
5
5
5
5
5
5
5
5
5
5
5
5
5
5
5
5
5
5
5
5
5
5
5
5
5
5
5
5
5
5
5
5
5
5
5
5
5
5
5
5
5
5
5
5
5
5
5
5
5
5
5
5
5
5
5
5
5
5
5
5
5
5
5
5
5
5
5
5
5
5
5
5
5
5
5
5
5
5
5
5
5
5
5
5
5
5
5
5
5
5
5
5
5
5
5
5
5
5
5
5
5
5
5
5
5
5
5
5
5
5
5
5
5
5
5
5
5
5
5
5
5
5
5
5
5
5
5
5
5
5
5
5
5
5
5
5
5
5
5
5
5
5
5
5
5
5
5
5
5
5
5
5
5
5
5
5
5
5
5
5
5
5
5
5
5
5
5
5
5
5
5
5
5
5
5
5
5
5
5
5
5
5
5
5
5
5
5
5
5
5
5
5
5
5
5
5
5
5
5
5
5
5
5
5
5
5
5
5
5
5
5
5
5
5
5
5
5
5
5
5
5
5
5
5
5
5
5
5
5
5
5
5
5
5
5
5
5
5
5
5
5
5
5
5
5
5
5
5
5
5
5
5
5
5
5
5
5
5
5
5
5
5
5
5
5
5
5
5
5
5
5
5
5
5
5
5
5
5
5
5
5
5
5
5
5
5
5
5
5
5
5
5
5
5
5
5
5
5
5
5
5
5
5
5
5
5
5
5
5
5
5
5
5
5
5
5
5
5
5
5
5
5
5
5
5
5
5
5
5
5
5
5
5
5
5
5
5
5
5
5
5
5
5
5
5
5
5
5
5
5
5
5
5
5
5
5
5
5
5
5
5
5
5
5
5
5
5
5
5
5
5
5
5
5
5
5
5
5
5
5
5
5
5
5
5
5
5
5
5
5
5
5
5
5
5
5
5
5
5
5
5
5
5
5
5
5
5
5
5
5
5
5
5
5
5
5
5
5
5
5
5
5
5
5
5
5
5
5
5
5
5
5
5
5
5
5
5
5
5
5
5
5
5
5
5
5
5
5
5
5
5
5
5
5
5
5
5
5
5
5
5
5
5
5
5
5
5
5
5
5
5
5
5
5
5
5
5
5
5
5
5
5
5
5
5
5
5
5
5
5
5
5
5
POINT_DATA 296
SCALARS concentrations float 4
LOOKUP_TABLE default
0 0.959097 0.154992 8.88486
0 0.959157 0.154534 8.71264
0 0.958969 0.152273 8.43261
0 0.9591 0.153796 8.74277
0 0.959092 0.0914422 0.102082
0 0.959159 0.154088 8.58164
0 0.959168 0.153757 8.52886
0 0.959182 0.0912027 0.0719627
0 0.959198 0.0911715 0.0610375
0 0.959165 0.15386 8.72044
0 0.959131 0.153471 8.29174
0 0.959177 0.152952 8.5821
0 0.959175 0.153161 8.60973
0 0.959094 0.091437 0.0952786
0 0.959189 0.0912065 0.0705836
0 0.959221 0.0912036 0.0053986
0 0.959239 0.0912005 0.0328281
0 0.959205 0.0911599 0.0548206
0 0.959212 0.0911599 0.0595683
0 0.959267 0.0911596 0.0478929
0 0.959278 0.0911432 0.0490463
0 0.95917 0.155021 8.82001
0 0.959175 0.155596 8.69368
0 0.959195 0.0912025 0.0418731
0 0.959198 0.0912102 0.037566
0 0.959215 0.0911768 0.068618
0 0.959134 0.151926 8.24556
0 0.959194 0.0912094 0.0454627
0 0.959189 0.153196 8.55243
0 0.95924 0.0912041 0.0277121
0 0.959271 0.091161 0.0439696
0 0.95933 0.0911428 0.0182485
0 0.959165 0.153703 8.41615
0 0.959346 0.0911204 0.0220728
0 0.95934 0.0911348 0.0337137
0 0.959284 0.0911374 0.04819
0 0.959283 0.0911412 0.0424826
0 0.959363 0.0911053 0.0387511
0 0.959354 0.0911168 0.0434807
0 0.959222 0.0911735 0.0624249
0 0.959214 0.0911827 0.0528121
0 0.959283 0.0911397 0.0388408
0 0.959288 0.0911461 0.0415888
0 0.959185 0.153028 7.90809
0 0.95928 0.0911514 0.0423578
0 0.959203 0.0912106 0.0419383
0 0.959283 0.0911423 0.0391121
0 0.959211 0.15249 8.44348
0 0.959241 0.0911564 0.0585921
0 0.959235 0.152176 8.32421
0 0.959355 0.0911201 0.0276457
0 0.959351 0.0911237 0.0358247
0 0.959416 0.0910396 0.0196837
0 0.959219 0.0911967 0.0450399
0 0.959237 0.0913066 0.0342267
0 0.959419 0.0910376 0.024316
0 0.95937 0.0911009 0.0390271
0 0.959358 0.0911145 0.0384026
0 0.959424 0.091035 0.0287762
0 0.959297 0.0911461 0.0471079
0 0.9593 0.0911515 0.0448806
0 0.959374 0.0911059 0.0376169
0 0.959364 0.0911228 0.0413532
0 0.959208 0.151717 9.31094
0 0.959372 0.0910949 0.0325092
0 0.959297 0.0911405 0.0409933
0 0.959365 0.0911068 0.0347037
0 0.959258 0.0911481 0.0478417
0 0.959317 0.0911315 0.0442567
0 0.959294 0.152046 8.36994
0 0.959297 0.0911464 0.0454152
0 0.959424 0.151988 8.29157
0 0.959466 0.0910063 0.0208939
0 0.959423 0.0910337 0.0215658
0 0.959469 0.0910064 0.019221
0 0.959305 0.0911687 0.0375831
0 0.959242 0.0912994 0.026828
0 0.959308 0.0911612 0.0372075
0 0.959469 0.0910056 0.0233662
0 0.959509 0.0909939 0.0219474
0 0.959427 0.0910347 0.0279825
0 0.959471 0.0910071 0.0250413
0 0.95938 0.0911011 0.038008
0 0.959369 0.0911159 0.0368471
0 0.959431 0.0910383 0.0283238
0 0.959195 0.152324 7.81761
0 0.959433 0.0910212 0.0213489
0 0.959388 0.0910906 0.0338254
0 0.95934 0.0911339 0.04315
0 0.959389 0.0911071 0.0383384
0 0.95937 0.0911454 0.0364931
0 0.959382 0.0911336 0.0402053
0 0.959568 0.150975 5.37876
0 0.959497 0.0911465 0.0193806
0 0.959516 0.0909863 0.0194514
0 0.959472 0.0910028 0.019166
0 0.959512 0.0909906 0.0187514
0 0.959481 0.0909972 0.0190801
0 0.959425 0.152439 8.25922
0 0.959236 0.0911752 0.0426824
0 0.959382 0.0911112 0.0347544
0 0.959309 0.0911502 0.0330769
0 0.959371 0.0911233 0.0350119
0 0.959542 0.0909613 0.0175733
0 0.959516 0.0909871 0.0223256
0 0.959473 0.0910088 0.0249773
0 0.959511 0.0909958 0.0239452
0 0.959434 0.0910425 0.0279041
0 0.959475 0.0910078 0.0240011
0 0.959194 0.152011 8.33219
0 0.959448 0.0910214 0.0230377
0 0.95942 0.0910955 0.0357391
0 0.959441 0.0911315 0.035331
0 0.959438 0.091114 0.0375241
0 0.959498 0.0911499 0.0246102
0 0.959474 0.0911288 0.0329009
0 0.959367 0.0911489 0.0361188
0 0.959564 0.0909476 0.0154841
0 0.959564 0.0909468 0.0164019
0 0.959544 0.0909569 0.0150898
0 0.959521 0.0909819 0.0174008
0 0.95949 0.0909953 0.0193241
0 0.95952 0.0909871 0.0180454
0 0.959569 0.0909358 0.0124834
0 0.959288 0.152233 8.54698
0 0.95924 0.0911699 0.0452338
0 0.959315 0.0911316 0.0386835
0 0.959434 0.0910528 0.027928
0 0.959382 0.0911134 0.0350685
0 0.959544 0.0909616 0.018771
0 0.959518 0.0909886 0.0222916
0 0.95948 0.0910085 0.0232559
0 0.959514 0.0909873 0.021065
0 0.959243 0.0912231 0.0364859
0 0.959194 0.151949 7.77015
0 0.959468 0.0910225 0.0240009
0 0.959464 0.0910961 0.0340455
0 0.959441 0.0911299 0.0357922
0 0.959462 0.091108 0.0355671
0 0.959296 0.0911494 0.0463927
0 0.959382 0.0911283 0.0406798
0 0.959497 0.090995 0.0196752
0 0.959569 0.0909381 0.0149582
0 0.959579 0.0909195 0.0118278
0 0.959549 0.0909517 0.0130698
0 0.959529 0.0909786 0.0167565
0 0.959526 0.0909871 0.0183364
0 0.95957 0.0909291 0.00929346
0 0.959581 0.0909028 0.00600535
0 0.959258 0.0911455 0.050037
0 0.959236 0.15279 8.34027
0 0.959478 0.0910108 0.0223648
0 0.959318 0.0911405 0.0398356
0 0.95938 0.0911215 0.0389212
0 0.95944 0.0910549 0.0283159
0 0.959325 0.0911642 0.0462028
0 0.959545 0.0909611 0.0176709
0 0.959521 0.0909844 0.0197998
0 0.959568 0.0909395 0.0138385
0 0.959506 0.0910101 0.0222558
0 0.95929 0.0913454 0.0763247
0 0.959225 0.151782 8.35671
0 0.959474 0.0910214 0.024255
0 0.959444 0.0910919 0.0352402
0 0.959342 0.09113 0.0440571
0 0.959412 0.0911069 0.0392508
0 0.959319 0.0911326 0.0460253
0 0.959494 0.0909969 0.0203573
0 0.95958 0.0909068 0.00737766
0 0.959552 0.0909481 0.0115364
0 0.959528 0.0909823 0.0173839
0 0.959571 0.0909218 0.00631097
0 0.959578 0.0909043 0.000462396
0 0.959236 0.0911407 0.0471483
0 0.959203 0.151873 8.35523
0 0.959472 0.0910169 0.0218664
0 0.959385 0.0911077 0.0369368
0 0.959431 0.0910633 0.0292032
0 0.959332 0.0911423 0.0508219
0 0.959382 0.0911014 0.0374325
0 0.959551 0.0909542 0.0149522
0 0.959536 0.0909731 0.0163278
0 0.959568 0.0909375 0.0106273
0 0.959516 0.0909951 0.0183075
0 0.959481 0.0910222 0.0218967
0 0.95932 0.0911553 0.0443478
0 0.959285 0.0913275 0.0765271
0 0.959293 0.151073 8.89277
0 0.959459 0.0910217 0.0251274
0 0.959404 0.09109 0.0376309
0 0.959305 0.0911306 0.0455654
0 0.959382 0.0911054 0.0408918
0 0.959487 0.0910003 0.0210777
0 0.959519 0.0909913 0.0186512
0 0.959569 0.0909276 0.00657572
0 0.959549 0.0909507 0.0109257
0 0.959567 0.0909307 0.0062214
0 0.959564 0.0909372 0.00625543
0 0.959564 0.0909366 0.00618795
0 0.9593 0.0911309 0.0457225
0 0.959227 0.091139 0.0474044
0 0.959187 0.152053 8.3417
0 0.959434 0.0910362 0.0245554
0 0.959389 0.0910878 0.0346376
0 0.959372 0.0911173 0.0361005
0 0.959466 0.09102 0.0213951
0 0.959544 0.0909545 0.0114066
0 0.95951 0.0909927 0.0164595
0 0.959306 0.0911441 0.0379849
0 0.959241 0.09118 0.0349156
0 0.95922 0.151281 7.7842
0 0.959443 0.0910201 0.0252062
0 0.959387 0.0910902 0.0381135
0 0.959371 0.0911168 0.0428111
0 0.959478 0.0909996 0.0205235
0 0.95952 0.0909849 0.0167839
0 0.959547 0.0909598 0.0110179
0 0.959541 0.0909744 0.0127254
0 0.959543 0.0909577 0.0108054
0 0.959541 0.090966 0.0113584
0 0.959295 0.0911334 0.0459913
0 0.959223 0.091132 0.0464423
0 0.959183 0.151099 8.23656
0 0.959429 0.0910357 0.0229552
0 0.959381 0.091094 0.0325067
0 0.959473 0.0910066 0.0184083
0 0.959517 0.0909803 0.0142959
0 0.95937 0.0911063 0.0373968
0 0.959299 0.0911443 0.0411372
0 0.959224 0.0911906 0.0421896
0 0.959194 0.152817 8.41121
0 0.959436 0.0910199 0.0247398
0 0.959382 0.091097 0.0391153
0 0.959474 0.0909971 0.0193229
0 0.959511 0.0909927 0.0174037
0 0.959512 0.0909884 0.0156243
0 0.95951 0.0909931 0.0162772
0 0.959514 0.0909887 0.0158362
0 0.959506 0.0909973 0.0170668
0 0.959369 0.0911093 0.0418716
0 0.959296 0.0911329 0.0461918
0 0.95922 0.0911319 0.045207
0 0.95918 0.150387 8.13154
0 0.95943 0.0910266 0.0232464
0 0.959475 0.0909974 0.0176334
0 0.959379 0.091094 0.0373636
0 0.959296 0.091141 0.0449006
0 0.959216 0.0911561 0.0415554
0 0.959165 0.152576 8.27804
0 0.959431 0.09102 0.0240415
0 0.95947 0.0909986 0.0184636
0 0.959473 0.0909947 0.017411
0 0.959468 0.0909966 0.0174683
0 0.959469 0.0909967 0.0174515
0 0.959378 0.0910907 0.0378561
0 0.959296 0.0911301 0.0471636
0 0.959222 0.0911369 0.047984
0 0.959179 0.151283 8.22206
0 0.959431 0.0910294 0.0251592
0 0.959366 0.0911115 0.041614
0 0.959296 0.091132 0.0464203
0 0.95922 0.0911571 0.0519642
0 0.959178 0.151775 8.16201
0 0.959428 0.0910214 0.0228086
0 0.959429 0.0910252 0.022778
0 0.959427 0.0910196 0.0206786
0 0.959364 0.0911057 0.0398866
0 0.959296 0.0911272 0.0453088
0 0.959226 0.0911532 0.0528831
0 0.959184 0.151852 8.52121
0 0.959378 0.0910987 0.0383011
0 0.959298 0.0911337 0.046114
0 0.959222 0.0911593 0.0491692
0 0.959176 0.15109 8.53944
0 0.959365 0.0911142 0.0391438
0 0.959375 0.0910904 0.0344262
0 0.959375 0.0910939 0.0329822
0 0.959361 0.0911064 0.0350278
0 0.959294 0.0911312 0.0457932
0 0.959222 0.0911521 0.0466875
0 0.959187 0.151297 7.96188
0 0.959298 0.0911383 0.0473587
0 0.959228 0.091151 0.0505608
0 0.959187 0.151655 8.0968
0 0.959293 0.0911404 0.0419283
0 0.959291 0.0911332 0.0404559
0 0.959286 0.0911316 0.0377539
0 0.959226 0.0911396 0.0558094
0 0.959184 0.149527 8.1463
0 0.959232 0.0911525 0.057321
0 0.959194 0.151569 8.29475
0 0.959207 0.0911968 0.044376
0 0.959207 0.0911979 0.0414957
0 0.959189 0.150597 8.4974
0 0.959189 0.15185 8.51171
0 0.959145 0.15058 7.91338
VECTORS fa_u float
0.00820021 0.00342011 0
0.00757375 0.0043068 0
0.00814491 0.00218391 0
0.00867383 0.00109574 0
-7.02428e-05 7.40721e-05 0
0.00681866 0.00521061 0
0.00601382 0.00604776 0
4.94273e-05 5.23027e-05 0
4.74936e-05 3.83398e-05 0
0.00532684 0.00690441 0
0.00414919 0.00717894 0
0.00858209 1.1929e-05 0
0.00854285 -0.00107103 0
-2.83353e-05 -9.09677e-05 0
6.81322e-05 -1.84401e-05 0
1.43907e-06 5.20327e-06 0
6.07029e-06 3.2262e-05 0
4.10754e-05 3.63058e-05 0
4.05576e-05 4.36287e-05 0
3.20575e-05 3.55816e-05 0
3.60452e-05 3.32609e-05 0
0.0033426 0.00816208 0
0.00229977 0.00838398 0
3.95834e-05 1.36569e-05 0
-7.22571e-06 3.68646e-05 0
6.83373e-05 -6.1999e-06 0
0.00796647 -0.00212713 0
4.03097e-05 2.10236e-05 0
0.0078914 -0.00329695 0
2.07206e-05 -1.84016e-05 0
4.33224e-05 -7.51637e-06 0
1.80995e-05 2.32752e-06 0
0.00112776 0.00834025 0
1.65666e-05 1.45861e-05 0
2.2451e-05 2.51509e-05 0
3.50888e-05 3.3031e-05 0
3.08582e-05 2.91983e-05 0
2.85092e-05 2.62464e-05 0
3.20784e-05 2.93522e-05 0
2.2892e-05 5.80761e-05 0
1.91424e-05 4.92207e-05 0
2.02618e-05 3.31371e-05 0
1.34115e-05 3.9367e-05 0
-2.75352e-05 0.00790805 0
4.23545e-05 -5.29073e-07 0
2.53227e-05 -3.34302e-05 0
3.83874e-05 -7.49426e-06 0
0.00733087 -0.00418937 0
5.41314e-05 -2.24237e-05 0
0.00661641 -0.0050513 0
2.76274e-05 -1.00742e-06 0
3.58206e-05 -5.40897e-07 0
1.8375e-05 7.05731e-06 0
1.02384e-05 4.38608e-05 0
6.40364e-06 3.36223e-05 0
1.92712e-05 1.48287e-05 0
2.73461e-05 2.78443e-05 0
2.31254e-05 3.0659e-05 0
2.12154e-05 1.94417e-05 0
1.54385e-05 4.45062e-05 0
1.19965e-05 4.32476e-05 0
1.75039e-05 3.32963e-05 0
1.44789e-05 3.87356e-05 0
-0.00122378 0.00923016 0
3.24217e-05 -2.38356e-06 0
3.63418e-05 -1.89664e-05 0
3.30633e-05 -1.05435e-05 0
4.13865e-05 -2.39997e-05 0
3.85977e-05 -2.16534e-05 0
0.00593857 -0.00589824 0
3.66749e-05 -2.6786e-05 0
0.00504134 -0.00658293 0
1.82751e-05 1.01279e-05 0
2.15242e-05 1.33984e-06 0
1.85915e-05 4.87881e-06 0
6.75676e-06 3.69707e-05 0
-4.49784e-06 2.64482e-05 0
2.19978e-07 3.72069e-05 0
1.81723e-05 1.46883e-05 0
1.84346e-05 1.19103e-05 0
1.75636e-05 2.17839e-05 0
1.74558e-05 1.79544e-05 0
1.11644e-05 3.63313e-05 0
7.86732e-06 3.59974e-05 0
1.21659e-05 2.55779e-05 0
-0.0019906 0.00755993 0
2.06988e-05 -5.22822e-06 0
3.00845e-05 -1.54624e-05 0
3.50424e-05 -2.51784e-05 0
3.20122e-05 -2.10962e-05 0
3.10807e-05 -1.91242e-05 0
3.05944e-05 -2.60854e-05 0
0.00268473 -0.00466082 0
1.57158e-05 -1.13411e-05 0
1.78576e-05 7.71116e-06 0
1.91325e-05 -1.13253e-06 0
1.8553e-05 2.72046e-06 0
1.79032e-05 -6.5973e-06 0
0.00317084 -0.00762631 0
-1.98032e-05 3.78103e-05 0
2.65012e-06 3.46532e-05 0
-9.8225e-06 3.15848e-05 0
-3.64826e-06 3.48213e-05 0
1.47961e-05 9.4814e-06 0
1.66183e-05 1.49085e-05 0
1.43478e-05 2.04451e-05 0
1.54142e-05 1.83242e-05 0
7.17963e-06 2.69646e-05 0
9.85083e-06 2.18864e-05 0
-0.00317267 0.00770451 0
1.93548e-05 -1.2495e-05 0
2.71771e-05 -2.32097e-05 0
2.36298e-05 -2.62662e-05 0
2.53394e-05 -2.76762e-05 0
8.23971e-07 -2.45964e-05 0
1.61618e-05 -2.86577e-05 0
5.76781e-06 -3.56553e-05 0
1.40784e-05 6.44638e-06 0
1.27539e-05 1.03131e-05 0
1.46913e-05 3.44504e-06 0
1.72902e-05 -1.95918e-06 0
1.52716e-05 -1.18405e-05 0
1.62893e-05 -7.76514e-06 0
1.23603e-05 1.74901e-06 0
0.00219479 -0.00826037 0
-1.3926e-05 4.30368e-05 0
-1.33104e-05 3.63214e-05 0
6.6525e-07 2.79201e-05 0
-8.66518e-06 3.39811e-05 0
1.24021e-05 1.40904e-05 0
1.11554e-05 1.92995e-05 0
4.93976e-06 2.27252e-05 0
6.89578e-06 1.99043e-05 0
-1.9003e-05 3.11465e-05 0
-0.00387206 0.00673665 0
1.60498e-05 -1.78451e-05 0
1.93363e-05 -2.80215e-05 0
1.08018e-05 -3.41233e-05 0
1.53608e-05 -3.2079e-05 0
2.77604e-07 -4.63919e-05 0
7.52254e-06 -3.99782e-05 0
1.1487e-05 -1.59738e-05 0
8.76975e-06 1.21177e-05 0
9.71745e-06 6.74302e-06 0
1.26136e-05 -3.42295e-06 0
1.2687e-05 -1.09463e-05 0
9.19144e-06 -1.58663e-05 0
8.73135e-06 -3.18307e-06 0
5.89873e-06 1.12664e-06 0
4.17748e-06 -4.98623e-05 0
0.00109024 -0.0082687 0
-1.5271e-07 2.23643e-05 0
-1.66693e-05 3.61802e-05 0
-1.24733e-05 3.68684e-05 0
-4.76479e-06 2.79121e-05 0
-2.79016e-05 3.68267e-05 0
6.96077e-06 1.62422e-05 0
3.08335e-06 1.95583e-05 0
4.55588e-06 1.3067e-05 0
-1.94681e-06 2.21705e-05 0
-6.87247e-05 3.32022e-05 0
-0.00512118 0.00660365 0
1.0713e-05 -2.17609e-05 0
1.08328e-05 -3.35338e-05 0
3.78298e-06 -4.38944e-05 0
7.16882e-06 -3.85906e-05 0
5.18301e-07 -4.60224e-05 0
6.86273e-06 -1.91656e-05 0
3.22727e-06 6.63435e-06 0
7.37907e-06 -8.86785e-06 0
5.17538e-06 -1.65956e-05 0
3.85088e-06 -4.9999e-06 0
1.35914e-07 4.4197e-07 0
-2.63755e-06 -4.70744e-05 0
9.48038e-06 -0.00835523 0
-6.26431e-06 2.09499e-05 0
-1.57148e-05 3.34271e-05 0
-1.05995e-05 2.72118e-05 0
-3.38004e-05 3.79526e-05 0
-2.16907e-05 3.05075e-05 0
1.72939e-06 1.48519e-05 0
-1.0989e-06 1.62908e-05 0
-8.60173e-07 1.05924e-05 0
-6.17777e-06 1.72337e-05 0
-1.06158e-05 1.91512e-05 0
-2.92241e-05 3.33568e-05 0
-2.20246e-05 7.32893e-05 0
-0.00626069 0.00631547 0
5.20207e-06 -2.4583e-05 0
3.29512e-06 -3.74863e-05 0
-5.61369e-06 -4.52183e-05 0
-1.90354e-06 -4.08475e-05 0
2.32427e-06 -2.09492e-05 0
1.52413e-07 -1.86506e-05 0
-3.27087e-06 5.70452e-06 0
1.21156e-06 -1.08584e-05 0
-7.32175e-07 -6.17816e-06 0
-6.18074e-06 9.63728e-07 0
-4.78087e-06 -3.92862e-06 0
-1.13151e-05 -4.43003e-05 0
-9.13729e-06 -4.65155e-05 0
-0.00109014 -0.00827016 0
-1.29076e-05 2.08892e-05 0
-2.32578e-05 2.56679e-05 0
-2.81754e-05 2.25698e-05 0
-1.40378e-05 1.61459e-05 0
-5.50153e-06 9.99215e-06 0
-1.08489e-05 1.2378e-05 0
-3.19213e-05 2.05884e-05 0
-3.16385e-05 1.47683e-05 0
-0.00617063 0.00474522 0
-6.42808e-07 -2.5198e-05 0
-6.15199e-06 -3.76137e-05 0
-1.29662e-05 -4.08003e-05 0
-2.96473e-06 -2.03083e-05 0
-4.11458e-06 -1.62717e-05 0
-9.34997e-06 5.8285e-06 0
-1.26965e-05 8.58399e-07 0
-5.30555e-06 -9.41318e-06 0
-1.03588e-05 -4.65914e-06 0
-1.66969e-05 -4.28534e-05 0
-1.44412e-05 -4.41401e-05 0
-0.00212598 -0.00795745 0
-1.79428e-05 1.43177e-05 0
-2.9332e-05 1.40115e-05 0
-1.5787e-05 9.4677e-06 0
-1.24545e-05 7.0184e-06 0
-3.59501e-05 1.0301e-05 0
-3.83457e-05 1.48956e-05 0
-3.22169e-05 2.72403e-05 0
-0.00729099 0.00419403 0
-6.51048e-06 -2.38678e-05 0
-1.54843e-05 -3.592e-05 0
-7.33652e-06 -1.7876e-05 0
-8.86183e-06 -1.49786e-05 0
-1.52816e-05 3.25478e-06 0
-1.61895e-05 -1.6879e-06 0
-1.19048e-05 -1.04433e-05 0
-1.58141e-05 -6.41804e-06 0
-2.2294e-05 -3.5443e-05 0
-2.1174e-05 -4.1053e-05 0
-1.80751e-05 -4.14362e-05 0
-0.00311311 -0.00751202 0
-2.1925e-05 7.72576e-06 0
-1.69294e-05 4.93257e-06 0
-3.68252e-05 6.32007e-06 0
-4.41699e-05 8.06791e-06 0
-4.15159e-05 1.81207e-06 0
-0.00764585 0.00317282 0
-1.23573e-05 -2.06227e-05 0
-1.17142e-05 -1.42718e-05 0
-1.73979e-05 6.73763e-07 0
-1.69634e-05 -4.16961e-06 0
-1.4692e-05 -9.41804e-06 0
-2.35399e-05 -2.96473e-05 0
-2.83202e-05 -3.77143e-05 0
-2.7919e-05 -3.90255e-05 0
-0.0041291 -0.00711005 0
-2.4901e-05 3.59545e-06 0
-4.1399e-05 4.2247e-06 0
-4.6028e-05 6.02266e-06 0
-5.04882e-05 1.2297e-05 0
-0.00789457 0.00207223 0
-1.62793e-05 -1.59755e-05 0
-2.27349e-05 -1.40119e-06 0
-1.8828e-05 -8.55044e-06 0
-2.832e-05 -2.80877e-05 0
-2.99281e-05 -3.40175e-05 0
-3.49024e-05 -3.97297e-05 0