# vtk DataFile Version 2.0
CellBP Time: 1.56
ASCII
DATASET UNSTRUCTURED_GRID
POINTS 296 double
-9.11354 -3.74557 0
-8.53697 -4.90771 0
-9.53054 -2.51713 0
-9.78392 -1.24464 0
-8.35716 -2.81853 0
-7.81973 -5.98878 0
-6.96474 -6.96453 0
-7.9168 -3.8744 0
-7.3422 -4.8676 0
-5.98621 -7.81643 0
-4.90913 -8.53957 0
-9.86918 0.0499907 0
-9.78416 1.3447 0
-8.65725 -1.68384 0
-8.7859 -0.529589 0
-7.58924 -2.00398 0
-7.22529 -2.90626 0
-6.63735 -5.77861 0
-5.82214 -6.59652 0
-6.78985 -3.88863 0
-6.22019 -4.67561 0
-3.74607 -9.11439 0
-2.5168 -9.52959 0
-4.90614 -7.30848 0
-3.91281 -7.88592 0
-8.79236 0.643362 0
-9.53107 2.61728 0
-8.6229 1.774 0
-9.11485 3.84618 0
-7.74383 -0.92893 0
-7.79408 0.0802608 0
-6.95218 -1.3158 0
-1.24465 -9.78429 0
-6.44115 -2.15299 0
-6.31902 -3.05594 0
-5.53621 -5.47422 0
-4.79561 -6.1151 0
-5.65873 -3.75679 0
-5.26909 -4.56131 0
-2.86602 -8.36359 0
-1.77844 -8.63989 0
-3.92789 -6.72317 0
-3.05642 -7.15223 0
0.0499498 -9.86909 0
-7.70508 1.14346 0
-8.33825 2.91529 0
-7.55147 2.11185 0
-8.5402 5.00956 0
-7.87977 3.97809 0
-7.81982 6.08872 0
-6.77836 -0.396847 0
-6.95618 0.552532 0
-5.77123 -1.00337 0
-0.590805 -8.80939 0
0.565689 -8.77059 0
-5.30296 -2.48019 0
-4.49173 -5.09546 0
-3.90227 -5.775 0
-4.43876 -3.80462 0
-2.06228 -7.56159 0
-1.13541 -7.78549 0
-2.99437 -6.10176 0
-2.30887 -6.61946 0
1.34466 -9.78345 0
-6.68916 1.422 0
-7.17184 3.11795 0
-6.65895 2.37289 0
-7.29454 4.98851 0
-6.71779 4.00288 0
-6.96443 7.06437 0
-6.57235 5.89398 0
-5.98861 7.91965 0
-4.45295 -1.18101 0
-5.81445 0.513742 0
-4.656 -0.0103648 0
0.00851668 -7.84778 0
1.73856 -8.64362 0
0.948935 -7.76315 0
-4.03837 -2.40629 0
-3.48538 -1.39112 0
-3.29439 -4.8052 0
-3.26574 -3.26765 0
-1.37851 -6.67522 0
-0.508719 -7.0247 0
-1.97547 -5.53688 0
2.6177 -9.53255 0
-5.50722 2.03688 0
-6.09451 3.07209 0
-6.10488 4.86945 0
-5.76152 3.99134 0
-5.76123 6.71698 0
-5.45196 5.61918 0
-4.90991 8.64084 0
-4.83834 7.40451 0
-3.50134 -0.424261 0
-4.44916 1.24901 0
-3.71131 0.592075 0
-4.06205 2.31976 0
-3.74606 9.21444 0
2.86259 -8.33281 0
0.419687 -6.79525 0
2.02198 -7.52572 0
1.30605 -6.90541 0
-2.44455 -0.873751 0
-2.83825 -2.13102 0
-2.29432 -4.09725 0
-2.32554 -2.97346 0
-0.442347 -5.86107 0
-1.22268 -4.49902 0
3.84595 -9.11419 0
-4.78974 3.39176 0
-5.08782 4.59404 0
-4.64705 6.28131 0
-4.53875 5.35959 0
-3.84371 7.99342 0
-3.82664 6.84563 0
-2.7833 8.42293 0
-1.64891 -0.137863 0
-1.45015 -0.890505 0
-2.48899 0.507268 0
-3.25348 1.44412 0
-3.23895 3.31651 0
-2.91085 2.37169 0
-1.35499 0.627093 0
-2.51737 9.63156 0
3.93275 -7.88706 0
2.96455 -7.15774 0
0.954096 -5.82196 0
2.0743 -6.41544 0
-1.68289 -1.99195 0
-1.43437 -3.27764 0
0.0902391 -4.74691 0
-0.56615 -3.69431 0
4.93221 -7.31892 0
5.01007 -8.54111 0
-3.77694 4.55162 0
-3.7347 5.75208 0
-2.88793 7.28986 0
-3.00964 6.35368 0
-1.66256 8.73383 0
-1.94009 7.61939 0
-2.33833 4.05163 0
-0.730677 -1.32715 0
-0.836824 -0.257583 0
-1.9361 1.68073 0
-2.12567 2.87576 0
-1.3065 3.54459 0
-0.869386 1.35077 0
-0.282331 0.456024 0
-0.533527 8.8719 0
-1.2447 9.88431 0
1.11278 -4.57455 0
3.91019 -6.71738 0
2.98792 -6.09474 0
2.11788 -5.42495 0
4.78451 -6.20544 0
-0.558829 -2.47669 0
0.49511 -3.46372 0
0.0535573 -1.61037 0
1.48186 -3.68203 0
5.86736 -6.61488 0
6.08868 -7.81976 0
-2.4757 5.34855 0
-2.13044 6.53451 0
-0.904067 7.80342 0
-1.27234 6.93212 0
0.0862217 7.88052 0
-1.14443 4.49469 0
0.150313 -0.61761 0
-0.797369 2.48843 0
-0.331605 3.60064 0
0.063131 1.51266 0
0.741412 0.4734 0
0.646823 8.8746 0
0.0500257 9.97088 0
2.381 -4.28526 0
3.85926 -5.64053 0
3.00149 -5.21285 0
5.57392 -5.49199 0
4.69117 -5.28321 0
0.629656 -2.29326 0
1.25614 -2.95116 0
0.757436 -1.39137 0
2.1643 -3.13578 0
2.99375 -3.47657 0
6.15542 -4.79197 0
6.65596 -5.76964 0
7.06459 -6.96455 0
-1.01965 5.82052 0
-0.372607 6.8838 0
1.12267 7.76986 0
0.558 7.08004 0
-0.000748292 4.72522 0
0.607014 3.82777 0
1.33886 -0.641866 0
0.539111 2.65099 0
0.966072 1.57487 0
1.91013 0.213854 0
1.61472 1.06498 0
2.1295 7.58398 0
1.79933 8.71301 0
1.34478 9.88485 0
3.82294 -4.35176 0
5.11681 -4.44922 0
5.84603 -3.93531 0
3.78407 -3.20112 0
1.81223 -1.88261 0
3.01915 -2.57392 0
6.78381 -3.9481 0
7.38205 -4.89717 0
7.91985 -5.98885 0
0.483382 5.88186 0
1.42826 6.74232 0
2.37448 6.66949 0
1.21002 4.55631 0
1.4882 3.39764 0
2.43576 -0.692005 0
2.82801 0.142595 0
1.78889 2.16282 0
2.61188 1.15013 0
3.07226 7.17068 0
2.9045 8.37766 0
2.61752 9.63214 0
4.91159 -3.32808 0
6.12117 -3.1089 0
4.17304 -2.27536 0
3.24449 -1.50295 0
6.73196 -2.31323 0
7.23273 -3.04279 0
7.96579 -3.91265 0
8.64011 -4.90949 0
2.02378 5.60028 0
3.08681 6.15419 0
2.36405 4.12713 0
2.42015 3.06095 0
3.52576 -0.460882 0
3.6158 0.613298 0
2.96192 2.28814 0
3.54571 1.52531 0
4.01269 5.89888 0
3.98507 6.79415 0
3.97397 7.94001 0
3.84651 9.21555 0
5.56942 -1.91634 0
4.50955 -1.12969 0
6.71488 -1.33629 0
7.59366 -2.03671 0
8.39858 -2.86183 0
9.21445 -3.74603 0
3.41956 4.87765 0
3.33928 3.38566 0
4.69169 0.130082 0
4.51959 1.31008 0
4.06571 2.44402 0
4.57144 5.15347 0
4.84469 6.19208 0
4.98154 7.38207 0
5.00995 8.64091 0
5.8844 -0.43495 0
7.01227 -0.488324 0
7.76117 -1.08549 0
8.68674 -1.74629 0
9.6315 -2.51739 0
4.55326 3.82827 0
5.81886 1.0988 0
5.3723 2.53543 0
5.38145 4.62176 0
5.61364 5.52499 0
5.89878 6.6737 0
6.08884 7.91991 0
6.84782 0.463664 0
7.85543 -0.0256397 0
8.86279 -0.584466 0
9.88519 -1.24481 0
6.96243 1.34982 0
5.72269 3.77951 0
6.54333 2.19812 0
6.3821 3.08889 0
6.29438 4.68842 0
6.69514 5.83965 0
7.06494 7.06485 0
7.78671 0.967907 0
8.86214 0.572935 0
9.9699 0.0499935 0
7.61864 2.00492 0
6.83143 3.90554 0
7.27194 2.94776 0
7.38076 4.88737 0
7.92137 6.08991 0
8.72575 1.72746 0
9.8851 1.34479 0
8.42371 2.8387 0
7.98425 3.91759 0
8.64139 5.01026 0
9.63181 2.61742 0
9.21491 3.84625 0
CELLS 542 2168
3 2 0 4
3 0 1 7
3 4 0 7
3 1 5 8
3 7 1 8
3 3 2 13
3 13 2 4
3 11 3 14
3 14 3 13
3 13 4 15
3 4 7 16
3 15 4 16
3 5 6 17
3 8 5 17
3 6 9 18
3 17 6 18
3 7 8 19
3 16 7 19
3 8 17 20
3 19 8 20
3 9 10 23
3 18 9 23
3 10 21 24
3 23 10 24
3 12 11 25
3 25 11 14
3 26 12 27
3 27 12 25
3 14 13 29
3 29 13 15
3 25 14 30
3 30 14 29
3 29 15 31
3 15 16 33
3 31 15 33
3 16 19 34
3 33 16 34
3 17 18 35
3 20 17 35
3 18 23 36
3 35 18 36
3 19 20 37
3 34 19 37
3 20 35 38
3 37 20 38
3 21 22 39
3 24 21 39
3 22 32 40
3 39 22 40
3 23 24 41
3 36 23 41
3 24 39 42
3 41 24 42
3 27 25 44
3 44 25 30
3 28 26 45
3 45 26 27
3 45 27 46
3 46 27 44
3 47 28 48
3 48 28 45
3 30 29 50
3 50 29 31
3 44 30 51
3 51 30 50
3 50 31 52
3 31 33 52
3 32 43 53
3 40 32 53
3 53 43 54
3 33 34 55
3 34 37 55
3 33 55 52
3 35 36 56
3 38 35 56
3 36 41 57
3 56 36 57
3 37 38 58
3 38 56 58
3 37 58 55
3 39 40 59
3 42 39 59
3 40 53 60
3 59 40 60
3 41 42 61
3 57 41 61
3 42 59 62
3 61 42 62
3 43 63 54
3 46 44 64
3 64 44 51
3 48 45 65
3 65 45 46
3 65 46 66
3 66 46 64
3 49 47 67
3 67 47 48
3 67 48 68
3 68 48 65
3 69 49 70
3 70 49 67
3 52 55 72
3 64 51 73
3 51 50 73
3 50 52 73
3 73 52 74
3 74 52 72
3 53 54 75
3 60 53 75
3 54 63 76
3 54 76 77
3 75 54 77
3 55 58 78
3 72 55 78
3 72 78 79
3 56 57 80
3 57 61 80
3 56 80 58
3 58 80 81
3 78 58 81
3 59 60 82
3 62 59 82
3 60 75 83
3 82 60 83
3 61 62 84
3 62 82 84
3 61 84 80
3 63 85 76
3 66 64 86
3 64 73 86
3 68 65 87
3 87 65 66
3 87 66 86
3 70 67 88
3 88 67 68
3 88 68 89
3 89 68 87
3 71 69 90
3 90 69 70
3 90 70 91
3 91 70 88
3 92 71 93
3 93 71 90
3 74 72 94
3 94 72 79
3 86 73 95
3 95 73 74
3 95 74 96
3 96 74 94
3 97 86 95
3 76 85 99
3 75 77 100
3 83 75 100
3 76 99 101
3 77 76 101
3 77 101 102
3 100 77 102
3 94 79 103
3 78 81 104
3 79 78 104
3 79 104 103
3 80 84 105
3 81 80 105
3 81 105 106
3 104 81 106
3 82 83 107
3 83 100 107
3 82 107 84
3 84 107 108
3 105 84 108
3 85 109 99
3 89 87 110
3 87 86 110
3 110 86 97
3 91 88 111
3 111 88 89
3 111 89 110
3 93 90 112
3 112 90 91
3 112 91 113
3 113 91 111
3 98 92 114
3 114 92 93
3 114 93 115
3 115 93 112
3 116 98 114
3 117 103 118
3 96 94 119
3 94 103 119
3 119 103 117
3 97 95 120
3 120 95 96
3 120 96 119
3 121 110 97
3 121 97 122
3 122 97 120
3 123 119 117
3 124 98 116
3 99 109 125
3 99 125 126
3 101 99 126
3 100 102 127
3 100 127 107
3 101 126 128
3 102 101 128
3 102 128 127
3 104 106 129
3 104 129 103
3 103 129 118
3 105 108 130
3 106 105 130
3 106 130 129
3 107 127 131
3 108 107 131
3 108 131 132
3 108 132 130
3 109 134 125
3 125 134 133
3 113 111 135
3 111 110 135
3 135 110 121
3 115 112 136
3 136 112 113
3 136 113 135
3 116 114 137
3 137 114 115
3 137 115 138
3 138 115 136
3 139 124 116
3 139 116 140
3 140 116 137
3 141 135 121
3 118 129 142
3 118 142 143
3 117 118 143
3 123 117 143
3 122 120 144
3 120 119 144
3 144 119 123
3 141 121 145
3 145 121 122
3 145 122 144
3 146 141 145
3 147 144 123
3 147 123 148
3 143 148 123
3 150 124 139
3 149 150 139
3 131 127 151
3 125 133 152
3 126 125 152
3 126 152 153
3 128 126 153
3 128 153 154
3 128 154 127
3 127 154 151
3 152 133 155
3 130 132 156
3 130 156 129
3 129 156 142
3 131 151 157
3 132 131 157
3 132 157 156
3 156 158 142
3 157 151 159
3 133 160 155
3 134 161 133
3 133 161 160
3 138 136 162
3 136 135 162
3 162 135 141
3 140 137 163
3 163 137 138
3 163 138 162
3 149 139 164
3 164 139 140
3 164 140 165
3 165 140 163
3 166 149 164
3 167 162 141
3 167 141 146
3 142 158 168
3 143 142 168
3 143 168 148
3 146 145 169
3 145 144 169
3 169 144 147
3 170 167 146
3 170 146 169
3 171 169 147
3 171 147 148
3 171 148 172
3 168 172 148
3 173 149 166
3 174 150 149
3 173 174 149
3 154 175 151
3 151 175 159
3 152 155 176
3 153 152 176
3 153 176 177
3 153 177 154
3 154 177 175
3 155 160 178
3 155 178 179
3 176 155 179
3 156 157 180
3 156 180 158
3 157 159 181
3 157 181 180
3 158 180 182
3 158 182 168
3 159 175 183
3 159 183 181
3 175 184 183
3 160 186 178
3 178 186 185
3 161 187 160
3 160 187 186
3 165 163 188
3 163 162 188
3 188 162 167
3 166 164 189
3 189 164 165
3 189 165 188
3 190 173 166
3 190 166 191
3 191 166 189
3 192 188 167
3 192 167 170
3 193 192 170
3 182 194 168
3 194 172 168
3 193 170 195
3 170 169 195
3 195 169 171
3 196 195 171
3 196 171 172
3 194 197 172
3 197 198 172
3 198 196 172
3 200 173 190
3 199 200 190
3 201 174 173
3 200 201 173
3 176 179 202
3 177 176 202
3 177 202 175
3 175 202 184
3 178 185 203
3 178 203 179
3 179 203 202
3 203 185 204
3 202 205 184
3 183 206 181
3 180 181 206
3 180 206 182
3 182 206 194
3 183 184 207
3 205 207 184
3 183 207 206
3 185 208 204
3 186 209 185
3 185 209 208
3 187 210 186
3 186 210 209
3 191 189 211
3 189 188 211
3 211 188 192
3 199 190 212
3 212 190 191
3 212 191 211
3 213 199 212
3 214 211 192
3 214 192 193
3 215 214 193
3 215 193 195
3 206 216 194
3 216 197 194
3 216 217 197
3 215 195 218
3 218 195 196
3 198 218 196
3 217 219 197
3 219 218 198
3 197 219 198
3 220 199 213
3 221 200 199
3 220 221 199
3 222 201 200
3 221 222 200
3 203 204 223
3 203 223 202
3 202 223 205
3 204 208 224
3 204 224 223
3 205 223 225
3 205 225 207
3 207 225 226
3 207 226 206
3 226 216 206
3 208 228 224
3 224 228 227
3 209 229 208
3 229 228 208
3 210 230 209
3 209 230 229
3 213 212 231
3 212 211 231
3 231 211 214
3 232 220 213
3 232 213 231
3 233 231 214
3 233 214 215
3 234 233 215
3 234 215 218
3 226 235 216
3 235 217 216
3 235 236 217
3 217 236 219
3 237 234 218
3 237 218 219
3 236 238 219
3 238 237 219
3 240 220 232
3 239 240 232
3 241 221 220
3 240 241 220
3 242 222 221
3 241 242 221
3 224 227 243
3 224 243 223
3 223 243 225
3 225 243 244
3 225 244 226
3 226 244 235
3 227 245 243
3 228 246 227
3 227 246 245
3 229 247 228
3 228 247 246
3 230 248 229
3 229 248 247
3 239 232 249
3 232 231 249
3 249 231 233
3 250 249 233
3 250 233 234
3 237 250 234
3 244 251 235
3 235 251 236
3 251 252 236
3 236 252 238
3 252 253 238
3 253 250 237
3 253 237 238
3 254 239 249
3 255 240 239
3 254 255 239
3 256 241 240
3 255 256 240
3 257 242 241
3 256 257 241
3 245 258 243
3 243 258 244
3 244 258 251
3 245 259 258
3 246 260 245
3 245 260 259
3 247 261 246
3 246 261 260
3 248 262 247
3 247 262 261
3 254 249 263
3 263 249 250
3 253 263 250
3 258 264 251
3 251 264 252
3 264 265 252
3 265 263 253
3 252 265 253
3 266 254 263
3 267 255 254
3 266 267 254
3 268 256 255
3 267 268 255
3 269 257 256
3 268 269 256
3 259 270 258
3 270 264 258
3 260 271 259
3 259 271 270
3 261 272 260
3 260 272 271
3 262 273 261
3 273 272 261
3 270 274 264
3 275 266 263
3 275 263 265
3 274 276 264
3 276 265 264
3 276 277 265
3 277 275 265
3 278 267 266
3 275 278 266
3 279 268 267
3 278 279 267
3 280 269 268
3 279 280 268
3 271 281 270
3 270 281 274
3 272 282 271
3 271 282 281
3 273 283 272
3 272 283 282
3 281 284 274
3 274 284 276
3 285 278 275
3 277 285 275
3 284 286 276
3 286 285 277
3 276 286 277
3 287 279 278
3 285 287 278
3 288 280 279
3 287 288 279
3 282 289 281
3 281 289 284
3 283 290 282
3 282 290 289
3 289 291 284
3 284 291 286
3 291 292 286
3 292 287 285
3 286 292 285
3 293 288 287
3 292 293 287
3 290 294 289
3 289 294 291
3 294 295 291
3 295 293 292
3 291 295 292
CELL_TYPES 542
5
5
5
5
5
5
5
5
5
5
5
5
5
5
5
5
5
5
5
5
5
5
5
5
5
5
5
5
5
5
5
5
5
5
5
5
5
5
5
5
5
5
5
5
5
5
5
5
5
5
5
5
5
5
5
5
5
5
5
5
5
5
5
5
5
5
5
5
5
5
5
5
5
5
5
5
5
5
5
5
5
5
5
5
5
5
5
5
5
5
5
5
5
5
5
5
5
5
5
5
5
5
5
5
5
5
5
5
5
5
5
5
5
5
5
5
5
5
5
5
5
5
5
5
5
5
5
5
5
5
5
5
5
5
5
5
5
5
5
5
5
5
5
5
5
5
5
5
5
5
5
5
5
5
5
5
5
5
5
5
5
5
5
5
5
5
5
5
5
5
5
5
5
5
5
5
5
5
5
5
5
5
5
5
5
5
5
5
5
5
5
5
5
5
5
5
5
5
5
5
5
5
5
5
5
5
5
5
5
5
5
5
5
5
5
5
5
5
5
5
5
5
5
5
5
5
5
5
5
5
5
5
5
5
5
5
5
5
5
5
5
5
5
5
5
5
5
5
5
5
5
5
5
5
5
5
5
5
5
5
5
5
5
5
5
5
5
5
5
5
5
5
5
5
5
5
5
5
5
5
5
5
5
5
5
5
5
5
5
5
5
5
5
5
5
5
5
5
5
5
5
5
5
5
5
5
5
5
5
5
5
5
5
5
5
5
5
5
5
5
5
5
5
5
5
5
5
5
5
5
5
5
5
5
5
5
5
5
5
5
5
5
5
5
5
5
5
5
5
5
5
5
5
5
5
5
5
5
5
5
5
5
5
5
5
5
5
5
5
5
5
5
5
5
5
5
5
5
5
5
5
5
5
5
5
5
5
5
5
5
5
5
5
5
5
5
5
5
5
5
5
5
5
5
5
5
5
5
5
5
5
5
5
5
5
5
5
5
5
5
5
5
5
5
5
5
5
5
5
5
5
5
5
5
5
5
5
5
5
5
5
5
5
5
5
5
5
5
5
5
5
5
5
5
5
5
5
5
5
5
5
5
5
5
5
5
5
5
5
5
5
5
5
5
5
5
5
5
5
5
5
5
5
5
5
5
5
5
5
5
5
5
5
5
5
5
5
5
5
5
5
5
5
5
5
5
5
5
5
5
5
5
5
5
5
5
5
5
5
5
5
5
5
5
5
5
5
5
5
5
5
5
5
5
5
5
5
5
5
5
5
5
POINT_DATA 296
SCALARS concentrations float 4
LOOKUP_TABLE default
0 0.983545 0.171609 11.3661
0 0.98358 0.170384 14.8106
0 0.983581 0.171271 11.6322
0 0.983631 0.170633 11.6498
0 0.983611 0.091216 0.0775483
0 0.983514 0.171001 11.0683
0 0.983525 0.170874 10.7605
0 0.98361 0.0912988 0.195776
0 0.98359 0.0912937 0.195848
0 0.983566 0.169452 14.8898
0 0.983556 0.170478 12.1008
0 0.983655 0.169843 11.5598
0 0.983679 0.170143 11.6151
0 0.983666 0.0912076 0.0653399
0 0.983698 0.0911998 0.0569931
0 0.983762 0.0912129 0.0744483
0 0.983725 0.0912113 0.107129
0 0.983555 0.0912177 0.102321
0 0.983587 0.0912999 0.194183
0 0.983704 0.0911998 0.126658
0 0.983681 0.0912075 0.124923
0 0.983634 0.172193 11.2586
0 0.98368 0.173012 11.9761
0 0.983599 0.0913761 0.203146
0 0.983633 0.0913191 0.0961542
0 0.983724 0.0912031 0.059094
0 0.983677 0.169344 11.8355
0 0.983731 0.0912078 0.058106
0 0.983711 0.169981 10.9015
0 0.983798 0.0912143 0.062369
0 0.983826 0.0912064 0.0584159
0 0.983899 0.0911672 0.0565602
0 0.983658 0.170393 11.2264
0 0.983893 0.0911437 0.0641958
0 0.983842 0.0911604 0.0858262
0 0.983677 0.0912211 0.126595
0 0.983689 0.0912428 0.133744
0 0.983851 0.091141 0.0845135
0 0.983811 0.0911726 0.0973438
0 0.983707 0.0912556 0.0916606
0 0.983716 0.0912704 0.0748117
0 0.983719 0.0912481 0.119598
0 0.983767 0.0912492 0.0909177
0 0.983697 0.170283 11.5
0 0.983842 0.0912187 0.0614594
0 0.983748 0.0912516 0.0725358
0 0.983854 0.0912316 0.069188
0 0.983711 0.169374 11.7968
0 0.983764 0.0912391 0.0733906
0 0.983752 0.169109 11.3658
0 0.983941 0.0911555 0.0494901
0 0.98394 0.0911778 0.0533331
0 0.984009 0.0910618 0.0354189
0 0.983729 0.0912707 0.0535272
0 0.983745 0.0912555 0.0647122
0 0.983979 0.0910577 0.0447245
0 0.983843 0.0911629 0.0901699
0 0.983831 0.0911895 0.0947564
0 0.983961 0.091065 0.0524898
0 0.983813 0.0912431 0.0764827
0 0.983836 0.0912345 0.064325
0 0.983885 0.0911802 0.078285
0 0.983898 0.0912055 0.0721274
0 0.983682 0.168689 12.746
0 0.983972 0.0911588 0.0533163
0 0.983863 0.0912243 0.0726188
0 0.983962 0.0911831 0.0626921
0 0.983778 0.0912003 0.0708286
0 0.983876 0.0912174 0.078221
0 0.98388 0.168908 11.2612
0 0.983839 0.0912096 0.0910583
0 0.984027 0.168893 11.5856
0 0.984075 0.0910259 0.0297986
0 0.984038 0.0910677 0.0353577
0 0.984096 0.0910299 0.0287497
0 0.983848 0.0912315 0.0561414
0 0.983721 0.0912917 0.0439752
0 0.983848 0.0912196 0.0531241
0 0.984062 0.0910261 0.0335159
0 0.984144 0.091012 0.0260731
0 0.983973 0.0910745 0.0522821
0 0.98406 0.0910337 0.0358509
0 0.983945 0.0911713 0.0562421
0 0.983943 0.091181 0.0508246
0 0.98401 0.0910861 0.0447685
0 0.983646 0.168739 10.3226
0 0.984052 0.0910665 0.0409173
0 0.983985 0.0911608 0.0640447
0 0.983899 0.0912213 0.0912945
0 0.983977 0.0911826 0.0765247
0 0.983968 0.0912542 0.154397
0 0.983947 0.0912319 0.116991
0 0.983888 0.168949 11.2507
0 0.98397 0.0912495 0.148582
0 0.984165 0.0910037 0.0232585
0 0.984109 0.0910344 0.0319538
0 0.984166 0.0910138 0.0259779
0 0.984117 0.0910323 0.0360828
0 0.983767 0.169454 11.3966
0 0.98372 0.0912478 0.0408716
0 0.983968 0.0911702 0.0450243
0 0.983845 0.0911982 0.0431012
0 0.983954 0.09118 0.0439558
0 0.984207 0.0909742 0.017214
0 0.984153 0.0910071 0.0255795
0 0.984077 0.0910414 0.0346367
0 0.984147 0.0910222 0.0284241
0 0.984041 0.0910885 0.0357164
0 0.984101 0.0910424 0.0303684
0 0.983667 0.169021 11.846
0 0.984062 0.0910673 0.0493119
0 0.984008 0.0911682 0.0854127
0 0.983975 0.0912333 0.125972
0 0.984009 0.0911966 0.105082
0 0.983849 0.091208 0.0888234
0 0.98395 0.0912277 0.115023
0 0.983791 0.0911966 0.070918
0 0.984248 0.0909578 0.0137303
0 0.984249 0.0909594 0.0128693
0 0.984215 0.0909711 0.0175294
0 0.98418 0.0910081 0.027461
0 0.98412 0.0910308 0.0399096
0 0.984175 0.0910181 0.0331349
0 0.984258 0.0909451 0.0131492
0 0.983724 0.169316 11.3818
0 0.983737 0.091196 0.0482186
0 0.983856 0.0911918 0.0445566
0 0.984057 0.091098 0.0318151
0 0.983973 0.091168 0.0416828
0 0.984212 0.0909799 0.0173835
0 0.98417 0.0910166 0.0246548
0 0.984125 0.0910433 0.0262167
0 0.984176 0.0910164 0.0228102
0 0.983754 0.0912125 0.0630753
0 0.983683 0.168877 11.5857
0 0.98407 0.0910687 0.0573862
0 0.984021 0.0911716 0.0954384
0 0.983904 0.0912154 0.088732
0 0.983995 0.0911853 0.0902122
0 0.983765 0.0911945 0.0614577
0 0.983879 0.0912082 0.0737101
0 0.984123 0.0910301 0.0398159
0 0.984262 0.0909521 0.0101689
0 0.984276 0.0909238 0.00575123
0 0.984223 0.0909703 0.0208367
0 0.984185 0.0910076 0.0322127
0 0.984177 0.0910188 0.0345092
0 0.984258 0.0909411 0.0148375
0 0.984281 0.0909028 0.00651054
0 0.98377 0.0912027 0.0667207
0 0.983709 0.169684 11.5313
0 0.984133 0.0910447 0.0245382
0 0.983863 0.0911934 0.0520855
0 0.983971 0.0911804 0.046636
0 0.984073 0.0910979 0.0321195
0 0.983861 0.0912065 0.0584466
0 0.984227 0.0909829 0.0162388
0 0.984197 0.0910126 0.0204779
0 0.984267 0.0909556 0.0110933
0 0.984182 0.091045 0.0259282
0 0.983752 0.0912141 0.0632115
0 0.983715 0.169092 11.4466
0 0.984068 0.0910663 0.0517744
0 0.983994 0.0911591 0.0697532
0 0.98387 0.0912095 0.0684363
0 0.983969 0.0911775 0.0650137
0 0.98387 0.0912128 0.0661515
0 0.984119 0.0910325 0.0370899
0 0.984284 0.0909092 0.00375953
0 0.984226 0.0909679 0.0217331
0 0.984186 0.0910129 0.0308828
0 0.984263 0.0909342 0.0138555
0 0.984281 0.0909115 0.00828896
0 0.983766 0.0912035 0.064139
0 0.98373 0.168944 11.3632
0 0.984129 0.0910534 0.0278042
0 0.983978 0.0911638 0.047565
0 0.98406 0.0911111 0.037179
0 0.983854 0.0912179 0.0623988
0 0.983967 0.0911671 0.051243
0 0.984246 0.0909738 0.014665
0 0.984228 0.0909974 0.0188202
0 0.984272 0.0909514 0.0125243
0 0.9842 0.0910273 0.0247723
0 0.984147 0.0910659 0.0326097
0 0.983842 0.0912198 0.0640774
0 0.983725 0.0911931 0.0553025
0 0.983678 0.168057 11.3716
0 0.98406 0.0910654 0.0418563
0 0.983986 0.0911551 0.056433
0 0.983868 0.0912109 0.0636617
0 0.983971 0.091176 0.0580457
0 0.98412 0.091037 0.0343126
0 0.984179 0.0910251 0.0310735
0 0.984274 0.0909393 0.0119026
0 0.984228 0.0909724 0.0208814
0 0.98426 0.0909477 0.0156194
0 0.984266 0.0909537 0.0157514
0 0.984262 0.0909556 0.0165155
0 0.983871 0.0912108 0.062356
0 0.983757 0.0911878 0.0547686
0 0.9837 0.168838 11.4454
0 0.984065 0.0910872 0.0363513
0 0.983979 0.0911628 0.0527152
0 0.983952 0.0911945 0.0606571
0 0.984123 0.0910659 0.0346854
0 0.984241 0.090975 0.0176933
0 0.984192 0.0910272 0.02761
0 0.983829 0.0912267 0.0672882
0 0.983725 0.0912071 0.0695718
0 0.983674 0.168606 11.5779
0 0.98406 0.0910637 0.0373181
0 0.983989 0.0911566 0.0531526
0 0.983974 0.091192 0.0592402
0 0.984121 0.0910367 0.0319776
0 0.984188 0.0910177 0.028343
0 0.984245 0.0909822 0.0207153
0 0.984235 0.0910019 0.0249439
0 0.984228 0.090983 0.021476
0 0.984231 0.0909933 0.0231221
0 0.983871 0.0912143 0.0639091
0 0.983771 0.0911804 0.0595991
0 0.983715 0.16808 11.3306
0 0.984058 0.091089 0.0409046
0 0.983973 0.0911594 0.0564867
0 0.984134 0.0910462 0.0331922
0 0.984202 0.0910097 0.0262312
0 0.983959 0.0911731 0.0610148
0 0.983823 0.0912243 0.0674737
0 0.983674 0.0912897 0.0682292
0 0.983646 0.169954 11.8659
0 0.984065 0.0910643 0.0360301
0 0.983994 0.0911662 0.0546248
0 0.984125 0.0910342 0.0306941
0 0.984181 0.0910289 0.0297615
0 0.984195 0.0910194 0.028384
0 0.984191 0.0910266 0.0292614
0 0.98419 0.0910241 0.028588
0 0.984182 0.0910343 0.0303945
0 0.983979 0.0911826 0.0579775
0 0.983874 0.0912136 0.0634903
0 0.983769 0.0911797 0.0573927
0 0.983723 0.16729 11.1309
0 0.984063 0.0910697 0.0402224
0 0.984138 0.0910312 0.0311809
0 0.983984 0.0911587 0.0575306
0 0.983839 0.0912312 0.0712733
0 0.983678 0.0912984 0.0668522
0 0.983572 0.168785 11.2563
0 0.984067 0.0910652 0.0362227
0 0.984126 0.0910372 0.030884
0 0.984136 0.0910268 0.0294437
0 0.98413 0.0910319 0.0295575
0 0.984128 0.091035 0.030119
0 0.983995 0.0911586 0.0547293
0 0.983875 0.091209 0.0631028
0 0.983769 0.0911869 0.0579372
0 0.983716 0.168207 11.4758
0 0.984071 0.0910717 0.0388741
0 0.98397 0.091179 0.0594315
0 0.983859 0.0912102 0.0676356
0 0.98374 0.0912022 0.0720861
0 0.983655 0.168807 11.7437
0 0.984069 0.0910682 0.0369622
0 0.984071 0.0910668 0.0355468
0 0.98407 0.0910661 0.0353819
0 0.983979 0.0911788 0.0589595
0 0.98388 0.0912065 0.0658946
0 0.983772 0.0911845 0.0590718
0 0.983719 0.168852 11.2812
0 0.983993 0.0911595 0.0536056
0 0.98387 0.0912027 0.0629591
0 0.983759 0.0911883 0.0632887
0 0.983703 0.168127 11.4484
0 0.983977 0.0911808 0.0560157
0 0.983995 0.0911598 0.0541174
0 0.983995 0.0911602 0.0518206
0 0.983978 0.0911813 0.0567179
0 0.983878 0.0912123 0.0647663
0 0.983778 0.0912046 0.0670461
0 0.983723 0.168198 11.7185
0 0.983871 0.091208 0.0617981
0 0.983764 0.0911856 0.0586592
0 0.983712 0.1686 11.4276
0 0.983874 0.0912099 0.0610546
0 0.983876 0.0912131 0.0635687
0 0.983871 0.0912099 0.0602588
0 0.983769 0.0912048 0.0613577
0 0.98373 0.166418 10.6604
0 0.983768 0.0911868 0.0578187
0 0.983714 0.168508 11.3453
0 0.983767 0.0911862 0.0578134
0 0.983761 0.0911877 0.0525747
0 0.983709 0.167186 11.3889
0 0.983719 0.1687 11.4189
0 0.983711 0.16813 11.4138
VECTORS fa_u float
0.0104692 0.00442523 0
0.0128257 0.00740654 0
0.011248 0.00296465 0
0.0115491 0.00152828 0
5.65436e-05 5.30713e-05 0
0.00883277 0.00666999 0
0.00751096 0.0077055 0
0.000112197 0.000160437 0
0.000188968 5.14535e-05 0
0.00902503 0.0118429 0
0.00608893 0.0104573 0
0.0115598 -1.1394e-05 0
0.0115174 -0.00150277 0
6.09615e-05 2.3516e-05 0
5.64636e-05 7.75052e-06 0
6.5033e-05 3.62388e-05 0
8.30598e-05 6.76589e-05 0
7.04988e-05 7.41582e-05 0
7.7215e-05 0.000178171 0
0.000101625 7.55953e-05 0
0.000101023 7.34861e-05 0
0.0042894 0.0104094 0
0.00316161 0.0115512 0
0.00017195 0.000108174 0
6.51651e-05 7.07046e-05 0
5.76238e-05 -1.30998e-05 0
0.0114395 -0.00303595 0
5.62068e-05 -1.47342e-05 0
0.010064 -0.00419015 0
6.13059e-05 1.14668e-05 0
5.8361e-05 -2.53208e-06 0
5.4256e-05 1.59792e-05 0
0.0014927 0.0111267 0
5.60275e-05 3.13372e-05 0
7.07604e-05 4.85706e-05 0
8.14718e-05 9.68947e-05 0
8.79201e-05 0.000100784 0
6.60917e-05 5.26728e-05 0
7.10048e-05 6.65893e-05 0
4.76505e-05 7.83013e-05 0
4.48851e-05 5.98508e-05 0
8.13675e-05 8.76522e-05 0
5.31872e-05 7.3737e-05 0
-6.87703e-05 0.0114998 0
5.93526e-05 -1.5954e-05 0
5.72263e-05 -4.45712e-05 0
6.27297e-05 -2.91885e-05 0
0.0102158 -0.00589942 0
6.30735e-05 -3.75223e-05 0
0.00901647 -0.00691989 0
4.94794e-05 1.03278e-06 0
5.26395e-05 -8.57355e-06 0
3.46687e-05 7.25112e-06 0
3.68441e-07 5.35259e-05 0
7.75008e-06 6.42465e-05 0
3.83657e-05 2.29859e-05 0
5.97921e-05 6.74946e-05 0
6.00327e-05 7.33134e-05 0
3.84567e-05 3.57248e-05 0
3.74184e-05 6.67043e-05 0
2.18697e-05 6.04932e-05 0
4.56467e-05 6.35997e-05 0
3.62798e-05 6.23389e-05 0
-0.0016051 0.0126446 0
5.00327e-05 -1.84217e-05 0
5.99945e-05 -4.09164e-05 0
5.44398e-05 -3.10903e-05 0
4.31692e-05 -5.61525e-05 0
5.84464e-05 -5.1986e-05 0
0.00794099 -0.00798476 0
3.58795e-05 -8.36915e-05 0
0.00704693 -0.00919604 0
2.84235e-05 8.94784e-06 0
3.4372e-05 -8.29077e-06 0
2.86939e-05 -1.79158e-06 0
6.15375e-06 5.58031e-05 0
6.35628e-06 4.35134e-05 0
5.51975e-07 5.31212e-05 0
2.75693e-05 1.9059e-05 0
2.3938e-05 1.03335e-05 0
3.2832e-05 4.06875e-05 0
2.50391e-05 2.56579e-05 0
2.25071e-05 5.15423e-05 0
1.22163e-05 4.93346e-05 0
2.2298e-05 3.88203e-05 0
-0.00260763 0.00998782 0
3.4529e-05 -2.19539e-05 0
5.03907e-05 -3.95286e-05 0
5.37324e-05 -7.38073e-05 0
5.40373e-05 -5.41849e-05 0
5.3251e-05 -0.000144923 0
6.08788e-05 -9.99027e-05 0
0.00564487 -0.00973206 0
0.000121105 -8.60819e-05 0
2.31675e-05 2.05507e-06 0
2.88919e-05 -1.36492e-05 0
2.50768e-05 -6.7826e-06 0
2.74946e-05 -2.3367e-05 0
0.00435271 -0.0105326 0
-2.40215e-05 3.30674e-05 0
2.70682e-06 4.49429e-05 0
-1.16508e-05 4.14966e-05 0
-6.80389e-06 4.3426e-05 0
1.63354e-05 5.4292e-06 0
1.98494e-05 1.61343e-05 0
1.95291e-05 2.86061e-05 0
1.78074e-05 2.21546e-05 0
1.00224e-05 3.42814e-05 0
1.17869e-05 2.79877e-05 0
-0.00453782 0.0109424 0
3.45269e-05 -3.52073e-05 0
5.31147e-05 -6.68891e-05 0
7.57988e-05 -0.000100615 0
6.18667e-05 -8.49394e-05 0
6.89333e-05 -5.60161e-05 0
7.85784e-05 -8.39981e-05 0
4.19889e-05 -5.71515e-05 0
1.37262e-05 -3.38878e-07 0
1.11664e-05 6.39763e-06 0
1.67628e-05 -5.1273e-06 0
2.32477e-05 -1.46168e-05 0
2.51518e-05 -3.09866e-05 0
2.34687e-05 -2.3391e-05 0
1.09853e-05 -7.22658e-06 0
0.00295727 -0.0109909 0
-2.44488e-05 4.15607e-05 0
-2.22972e-05 3.85762e-05 0
-2.77794e-06 3.16935e-05 0
-1.60381e-05 3.84738e-05 0
1.12131e-05 1.32835e-05 0
1.05442e-05 2.22863e-05 0
2.50786e-06 2.60964e-05 0
4.86283e-06 2.22858e-05 0
-5.09576e-05 3.71727e-05 0
-0.00580469 0.0100266 0
3.40486e-05 -4.61939e-05 0
5.742e-05 -7.62328e-05 0
5.44373e-05 -7.0071e-05 0
5.3348e-05 -7.27477e-05 0
2.53647e-05 -5.59793e-05 0
3.40348e-05 -6.5382e-05 0
2.04851e-05 -3.41418e-05 0
4.45481e-06 9.14116e-06 0
5.70748e-06 7.0806e-07 0
1.45643e-05 -1.49014e-05 0
1.84298e-05 -2.64196e-05 0
1.39417e-05 -3.15676e-05 0
7.32262e-06 -1.29046e-05 0
1.75387e-06 -6.26986e-06 0
-5.26686e-08 -6.67207e-05 0
0.0014847 -0.0114353 0
-7.10513e-06 2.34871e-05 0
-3.31924e-05 4.01393e-05 0
-2.5155e-05 3.92701e-05 0
-1.38317e-05 2.89887e-05 0
-4.10313e-05 4.16225e-05 0
3.01238e-06 1.59569e-05 0
-2.92264e-06 2.02682e-05 0
-1.97695e-06 1.09158e-05 0
-1.17091e-05 2.31337e-05 0
-3.65401e-05 5.15802e-05 0
-0.00696798 0.00908143 0
2.62465e-05 -4.46286e-05 0
3.37799e-05 -6.10281e-05 0
1.5872e-05 -6.65703e-05 0
2.13154e-05 -6.14202e-05 0
5.477e-06 -6.59244e-05 0
1.29481e-05 -3.47564e-05 0
-3.13394e-06 2.07666e-06 0
7.72258e-06 -2.03147e-05 0
6.51444e-06 -3.01879e-05 0
6.38446e-07 -1.38408e-05 0
-6.07073e-06 -5.64385e-06 0
1.21295e-05 -6.29816e-05 0
1.56288e-05 -0.0113632 0
-1.80972e-05 2.11083e-05 0
-3.14701e-05 3.5666e-05 0
-2.47335e-05 2.77584e-05 0
-4.93937e-05 3.81297e-05 0
-3.90954e-05 3.3127e-05 0
-5.91554e-06 1.3419e-05 0
-1.06322e-05 1.55292e-05 0
-9.42689e-06 8.24568e-06 0
-1.79466e-05 1.70759e-05 0
-2.5311e-05 2.05609e-05 0
-5.46288e-05 3.34905e-05 0
-4.86945e-05 2.62148e-05 0
-0.00803625 0.00804569 0
1.24404e-05 -3.99648e-05 0
9.34217e-06 -5.56544e-05 0
-5.67959e-06 -6.34078e-05 0
-8.35959e-07 -5.80397e-05 0
4.16582e-06 -3.40587e-05 0
-1.84757e-06 -3.10186e-05 0
-1.1647e-05 2.45365e-06 0
-1.91547e-06 -2.07934e-05 0
-6.06122e-06 -1.43954e-05 0
-1.52682e-05 -3.87155e-06 0
-1.24883e-05 -1.08076e-05 0
-1.70462e-05 -5.99808e-05 0
-1.59598e-05 -5.23916e-05 0
-0.00147213 -0.0113504 0
-2.90375e-05 2.18687e-05 0
-4.43497e-05 2.84956e-05 0
-5.29984e-05 2.95034e-05 0
-3.00483e-05 1.73257e-05 0
-1.55671e-05 8.40956e-06 0
-2.45948e-05 1.25463e-05 0
-5.97398e-05 3.09654e-05 0
-6.23719e-05 3.08217e-05 0
-0.00922787 0.00699238 0
-2.94998e-07 -3.7317e-05 0
-8.83982e-06 -5.24123e-05 0
-1.95038e-05 -5.59375e-05 0
-6.05398e-06 -3.13993e-05 0
-9.53761e-06 -2.66901e-05 0
-2.04151e-05 3.51409e-06 0
-2.47518e-05 -3.08977e-06 0
-1.22605e-05 -1.76323e-05 0
-2.03755e-05 -1.09304e-05 0
-2.49073e-05 -5.88558e-05 0
-2.01549e-05 -5.60877e-05 0
-0.00296103 -0.0109368 0
-3.65515e-05 1.83624e-05 0
-5.17246e-05 2.27006e-05 0
-3.12536e-05 1.11773e-05 0
-2.55017e-05 6.14299e-06 0
-5.81306e-05 1.85376e-05 0
-6.29181e-05 2.43723e-05 0
-5.56861e-05 3.94243e-05 0
-0.0102628 0.00595601 0
-1.10913e-05 -3.42805e-05 0
-2.35837e-05 -4.92715e-05 0
-1.39245e-05 -2.73539e-05 0
-1.7091e-05 -2.43649e-05 0
-2.83624e-05 1.10671e-06 0
-2.86756e-05 -5.82539e-06 0
-2.19713e-05 -1.82903e-05 0
-2.76974e-05 -1.25172e-05 0
-3.30991e-05 -4.76009e-05 0
-3.0568e-05 -5.56472e-05 0
-2.30103e-05 -5.2578e-05 0
-0.00425394 -0.0102859 0
-3.83775e-05 1.20418e-05 0
-3.06826e-05 5.55226e-06 0
-5.63069e-05 1.18028e-05 0
-6.92187e-05 1.699e-05 0
-6.63872e-05 7.87173e-06 0
-0.0103996 0.0043072 0
-2.09725e-05 -2.95337e-05 0
-2.11813e-05 -2.24761e-05 0
-2.94129e-05 -1.3455e-06 0
-2.81917e-05 -8.8811e-06 0
-2.54381e-05 -1.61262e-05 0
-3.7196e-05 -4.01466e-05 0
-4.00797e-05 -4.874e-05 0
-3.37294e-05 -4.71067e-05 0
-0.00574043 -0.00993685 0
-3.86068e-05 4.55088e-06 0
-5.89961e-05 7.18116e-06 0
-6.6367e-05 1.30383e-05 0
-6.91824e-05 2.02537e-05 0
-0.0113539 0.00300052 0
-2.80917e-05 -2.40221e-05 0
-3.51062e-05 -5.57897e-06 0
-3.17494e-05 -1.56159e-05 0
-4.43419e-05 -3.88589e-05 0
-4.79241e-05 -4.52259e-05 0
-4.05436e-05 -4.29615e-05 0
-0.00687081 -0.0089475 0