# vtk DataFile Version 2.0
CellBP Time: 0.76
ASCII
DATASET UNSTRUCTURED_GRID
POINTS 296 double
-9.15677 -3.76356 0
-8.5805 -4.93283 0
-9.576 -2.52928 0
-9.83052 -1.25079 0
-8.35761 -2.81871 0
-7.85672 -6.01706 0
-6.99724 -6.99722 0
-7.91728 -3.87472 0
-7.34272 -4.86787 0
-6.01683 -7.85645 0
-4.93282 -8.58045 0
-9.91605 0.049996 0
-9.83082 1.35082 0
-8.6577 -1.68393 0
-8.78634 -0.529614 0
-7.58971 -2.00412 0
-7.22577 -2.90647 0
-6.63773 -5.77893 0
-5.82249 -6.59697 0
-6.79031 -3.8889 0
-6.22063 -4.67592 0
-3.76444 -9.15881 0
-2.5293 -9.576 0
-4.90654 -7.30889 0
-3.91306 -7.88632 0
-8.7928 0.643413 0
-9.57686 2.6295 0
-8.62334 1.7741 0
-9.15648 3.86346 0
-7.7443 -0.928974 0
-7.79454 0.0802739 0
-6.9526 -1.31587 0
-1.25077 -9.82998 0
-6.44153 -2.15312 0
-6.31942 -3.05613 0
-5.53659 -5.47458 0
-4.79595 -6.1155 0
-5.65909 -3.75702 0
-5.26944 -4.5616 0
-2.86616 -8.36403 0
-1.77849 -8.64041 0
-3.92817 -6.72359 0
-3.05661 -7.15265 0
0.0500058 -9.91596 0
-7.70555 1.14354 0
-8.33867 2.91545 0
-7.55195 2.112 0
-8.58119 5.03325 0
-7.88017 3.9783 0
-7.85684 6.11716 0
-6.77876 -0.39685 0
-6.9566 0.552574 0
-5.7715 -1.00341 0
-0.590883 -8.80992 0
0.56569 -8.77105 0
-5.30321 -2.4803 0
-4.49202 -5.09576 0
-3.90253 -5.77535 0
-4.43899 -3.8048 0
-2.06239 -7.56206 0
-1.13547 -7.78598 0
-2.99456 -6.10212 0
-2.30901 -6.61986 0
1.3509 -9.83103 0
-6.68956 1.42209 0
-7.17228 3.11816 0
-6.65936 2.37305 0
-7.2949 4.98878 0
-6.7182 4.00314 0
-6.99724 7.09728 0
-6.57267 5.89431 0
-6.01709 7.95684 0
-4.45317 -1.18106 0
-5.81472 0.513783 0
-4.65623 -0.010359 0
0.0085144 -7.84828 0
1.73862 -8.64404 0
0.948985 -7.76361 0
-4.03857 -2.4064 0
-3.48557 -1.39119 0
-3.29456 -4.80542 0
-3.26591 -3.26781 0
-1.37858 -6.67561 0
-0.508739 -7.02512 0
-1.97557 -5.53714 0
2.62944 -9.57654 0
-5.50749 2.03699 0
-6.09488 3.07229 0
-6.10527 4.86978 0
-5.7619 3.9916 0
-5.76153 6.71742 0
-5.45232 5.61957 0
-4.93327 8.68125 0
-4.83869 7.40491 0
-3.50153 -0.424283 0
-4.44939 1.24908 0
-3.71151 0.592106 0
-4.06226 2.31988 0
-3.76372 9.25711 0
2.86273 -8.3332 0
0.419711 -6.79566 0
2.0221 -7.52613 0
1.30613 -6.90582 0
-2.44468 -0.873798 0
-2.8384 -2.13113 0
-2.29444 -4.09744 0
-2.32566 -2.97362 0
-0.442374 -5.86136 0
-1.22273 -4.49923 0
3.86395 -9.15763 0
-4.78998 3.39193 0
-5.08815 4.59434 0
-4.64739 6.28173 0
-4.53906 5.35997 0
-3.84397 7.99377 0
-3.82693 6.84606 0
-2.78341 8.42333 0
-1.64903 -0.137874 0
-1.45025 -0.890564 0
-2.48914 0.507289 0
-3.25367 1.4442 0
-3.23912 3.31667 0
-2.91103 2.37183 0
-1.35509 0.627128 0
-2.5295 9.6768 0
3.93294 -7.88744 0
2.96472 -7.15813 0
0.954143 -5.82226 0
2.07444 -6.41582 0
-1.68298 -1.99206 0
-1.43444 -3.27781 0
0.0902405 -4.74713 0
-0.566175 -3.69449 0
4.93247 -7.31927 0
5.03344 -8.58155 0
-3.77713 4.55185 0
-3.73496 5.75245 0
-2.88813 7.29029 0
-3.00986 6.35408 0
-1.66265 8.73428 0
-1.94021 7.61984 0
-2.33846 4.05183 0
-0.730724 -1.32723 0
-0.836887 -0.257603 0
-1.93622 1.68082 0
-2.12581 2.87591 0
-1.3066 3.54479 0
-0.869455 1.35085 0
-0.282361 0.456056 0
-0.533549 8.87236 0
-1.25083 9.93071 0
1.11284 -4.57477 0
3.91041 -6.71776 0
2.98811 -6.09512 0
2.11799 -5.42524 0
4.78479 -6.20581 0
-0.558854 -2.47683 0
0.495134 -3.4639 0
0.053559 -1.61047 0
1.48195 -3.68225 0
5.86765 -6.61522 0
6.11705 -7.85673 0
-2.47583 5.3488 0
-2.13059 6.5349 0
-0.904128 7.8039 0
-1.27243 6.93255 0
0.0862125 7.88102 0
-1.14451 4.49491 0
0.150321 -0.617641 0
-0.797434 2.48856 0
-0.331652 3.60084 0
0.0631126 1.51274 0
0.741441 0.473428 0
0.646826 8.87506 0
0.0499775 10.0175 0
2.38113 -4.28547 0
3.85948 -5.64087 0
3.00166 -5.21312 0
5.57426 -5.49232 0
4.69143 -5.28352 0
0.62969 -2.29339 0
1.25621 -2.95131 0
0.757493 -1.39145 0
2.16442 -3.13594 0
2.99393 -3.47677 0
6.15579 -4.79226 0
6.65628 -5.76992 0
7.09722 -6.99717 0
-1.01971 5.8208 0
-0.372646 6.88421 0
1.12273 7.77035 0
0.558018 7.08048 0
-0.000770005 4.72546 0
0.607021 3.82799 0
1.33893 -0.641901 0
0.539114 2.65113 0
0.966101 1.57496 0
1.91023 0.213867 0
1.61479 1.06504 0
2.12962 7.58446 0
1.79942 8.71345 0
1.35083 9.931 0
3.82314 -4.35197 0
5.11711 -4.44948 0
5.84639 -3.93556 0
3.78427 -3.20129 0
1.81234 -1.88269 0
3.01932 -2.57405 0
6.78422 -3.94834 0
7.38241 -4.89741 0
7.95741 -6.01757 0
0.48339 5.88213 0
1.42832 6.74272 0
2.3746 6.66993 0
1.21006 4.55654 0
1.48825 3.39783 0
2.4359 -0.69205 0
2.82817 0.142601 0
1.78896 2.16294 0
2.61201 1.15019 0
3.07242 7.17114 0
2.90463 8.37809 0
2.62955 9.67692 0
4.91183 -3.32825 0
6.12152 -3.10909 0
4.17325 -2.27547 0
3.24466 -1.50302 0
6.73236 -2.31338 0
7.23317 -3.04299 0
7.96619 -3.91286 0
8.68041 -4.93282 0
2.02384 5.60053 0
3.08695 6.15457 0
2.36413 4.12733 0
2.42025 3.06112 0
3.52595 -0.460909 0
3.61599 0.613323 0
2.96205 2.28826 0
3.54589 1.52539 0
4.01288 5.89924 0
3.98525 6.79459 0
3.97413 7.94042 0
3.86413 9.25807 0
5.56968 -1.91644 0
4.50975 -1.12974 0
6.71527 -1.33637 0
7.59413 -2.03684 0
8.39901 -2.86197 0
9.25745 -3.76385 0
3.41967 4.87786 0
3.33941 3.38581 0
4.69189 0.130075 0
4.51978 1.31013 0
4.06587 2.44413 0
4.57164 5.15374 0
4.84492 6.19245 0
4.98174 7.38246 0
5.0332 8.68107 0
5.88467 -0.434994 0
7.0127 -0.488376 0
7.76165 -1.08557 0
8.68718 -1.74639 0
9.67664 -2.52948 0
4.55343 3.82842 0
5.81911 1.09882 0
5.37251 2.53551 0
5.3817 4.62201 0
5.61389 5.5253 0
5.89897 6.67404 0
6.11688 7.95641 0
6.84821 0.463653 0
7.8559 -0.0256712 0
8.86326 -0.584492 0
9.93089 -1.25084 0
6.96283 1.34986 0
5.72297 3.77969 0
6.54367 2.1982 0
6.38243 3.08904 0
6.2947 4.68866 0
6.6954 5.83988 0
7.09836 7.09831 0
7.78717 0.967908 0
8.86262 0.572886 0
10.0173 0.0500044 0
7.61905 2.00498 0
6.83178 3.90573 0
7.27232 2.94788 0
7.38111 4.88755 0
7.95774 6.11779 0
8.72617 1.72748 0
9.93082 1.35081 0
8.42407 2.83872 0
7.98453 3.9178 0
8.68497 5.03548 0
9.67674 2.62948 0
9.25571 3.8632 0
CELLS 542 2168
3 2 0 4
3 0 1 7
3 4 0 7
3 1 5 8
3 7 1 8
3 3 2 13
3 13 2 4
3 11 3 14
3 14 3 13
3 13 4 15
3 4 7 16
3 15 4 16
3 5 6 17
3 8 5 17
3 6 9 18
3 17 6 18
3 7 8 19
3 16 7 19
3 8 17 20
3 19 8 20
3 9 10 23
3 18 9 23
3 10 21 24
3 23 10 24
3 12 11 25
3 25 11 14
3 26 12 27
3 27 12 25
3 14 13 29
3 29 13 15
3 25 14 30
3 30 14 29
3 29 15 31
3 15 16 33
3 31 15 33
3 16 19 34
3 33 16 34
3 17 18 35
3 20 17 35
3 18 23 36
3 35 18 36
3 19 20 37
3 34 19 37
3 20 35 38
3 37 20 38
3 21 22 39
3 24 21 39
3 22 32 40
3 39 22 40
3 23 24 41
3 36 23 41
3 24 39 42
3 41 24 42
3 27 25 44
3 44 25 30
3 28 26 45
3 45 26 27
3 45 27 46
3 46 27 44
3 47 28 48
3 48 28 45
3 30 29 50
3 50 29 31
3 44 30 51
3 51 30 50
3 50 31 52
3 31 33 52
3 32 43 53
3 40 32 53
3 53 43 54
3 33 34 55
3 34 37 55
3 33 55 52
3 35 36 56
3 38 35 56
3 36 41 57
3 56 36 57
3 37 38 58
3 38 56 58
3 37 58 55
3 39 40 59
3 42 39 59
3 40 53 60
3 59 40 60
3 41 42 61
3 57 41 61
3 42 59 62
3 61 42 62
3 43 63 54
3 46 44 64
3 64 44 51
3 48 45 65
3 65 45 46
3 65 46 66
3 66 46 64
3 49 47 67
3 67 47 48
3 67 48 68
3 68 48 65
3 69 49 70
3 70 49 67
3 52 55 72
3 64 51 73
3 51 50 73
3 50 52 73
3 73 52 74
3 74 52 72
3 53 54 75
3 60 53 75
3 54 63 76
3 54 76 77
3 75 54 77
3 55 58 78
3 72 55 78
3 72 78 79
3 56 57 80
3 57 61 80
3 56 80 58
3 58 80 81
3 78 58 81
3 59 60 82
3 62 59 82
3 60 75 83
3 82 60 83
3 61 62 84
3 62 82 84
3 61 84 80
3 63 85 76
3 66 64 86
3 64 73 86
3 68 65 87
3 87 65 66
3 87 66 86
3 70 67 88
3 88 67 68
3 88 68 89
3 89 68 87
3 71 69 90
3 90 69 70
3 90 70 91
3 91 70 88
3 92 71 93
3 93 71 90
3 74 72 94
3 94 72 79
3 86 73 95
3 95 73 74
3 95 74 96
3 96 74 94
3 97 86 95
3 76 85 99
3 75 77 100
3 83 75 100
3 76 99 101
3 77 76 101
3 77 101 102
3 100 77 102
3 94 79 103
3 78 81 104
3 79 78 104
3 79 104 103
3 80 84 105
3 81 80 105
3 81 105 106
3 104 81 106
3 82 83 107
3 83 100 107
3 82 107 84
3 84 107 108
3 105 84 108
3 85 109 99
3 89 87 110
3 87 86 110
3 110 86 97
3 91 88 111
3 111 88 89
3 111 89 110
3 93 90 112
3 112 90 91
3 112 91 113
3 113 91 111
3 98 92 114
3 114 92 93
3 114 93 115
3 115 93 112
3 116 98 114
3 117 103 118
3 96 94 119
3 94 103 119
3 119 103 117
3 97 95 120
3 120 95 96
3 120 96 119
3 121 110 97
3 121 97 122
3 122 97 120
3 123 119 117
3 124 98 116
3 99 109 125
3 99 125 126
3 101 99 126
3 100 102 127
3 100 127 107
3 101 126 128
3 102 101 128
3 102 128 127
3 104 106 129
3 104 129 103
3 103 129 118
3 105 108 130
3 106 105 130
3 106 130 129
3 107 127 131
3 108 107 131
3 108 131 132
3 108 132 130
3 109 134 125
3 125 134 133
3 113 111 135
3 111 110 135
3 135 110 121
3 115 112 136
3 136 112 113
3 136 113 135
3 116 114 137
3 137 114 115
3 137 115 138
3 138 115 136
3 139 124 116
3 139 116 140
3 140 116 137
3 141 135 121
3 118 129 142
3 118 142 143
3 117 118 143
3 123 117 143
3 122 120 144
3 120 119 144
3 144 119 123
3 141 121 145
3 145 121 122
3 145 122 144
3 146 141 145
3 147 144 123
3 147 123 148
3 143 148 123
3 150 124 139
3 149 150 139
3 131 127 151
3 125 133 152
3 126 125 152
3 126 152 153
3 128 126 153
3 128 153 154
3 128 154 127
3 127 154 151
3 152 133 155
3 130 132 156
3 130 156 129
3 129 156 142
3 131 151 157
3 132 131 157
3 132 157 156
3 156 158 142
3 157 151 159
3 133 160 155
3 134 161 133
3 133 161 160
3 138 136 162
3 136 135 162
3 162 135 141
3 140 137 163
3 163 137 138
3 163 138 162
3 149 139 164
3 164 139 140
3 164 140 165
3 165 140 163
3 166 149 164
3 167 162 141
3 167 141 146
3 142 158 168
3 143 142 168
3 143 168 148
3 146 145 169
3 145 144 169
3 169 144 147
3 170 167 146
3 170 146 169
3 171 169 147
3 171 147 148
3 171 148 172
3 168 172 148
3 173 149 166
3 174 150 149
3 173 174 149
3 154 175 151
3 151 175 159
3 152 155 176
3 153 152 176
3 153 176 177
3 153 177 154
3 154 177 175
3 155 160 178
3 155 178 179
3 176 155 179
3 156 157 180
3 156 180 158
3 157 159 181
3 157 181 180
3 158 180 182
3 158 182 168
3 159 175 183
3 159 183 181
3 175 184 183
3 160 186 178
3 178 186 185
3 161 187 160
3 160 187 186
3 165 163 188
3 163 162 188
3 188 162 167
3 166 164 189
3 189 164 165
3 189 165 188
3 190 173 166
3 190 166 191
3 191 166 189
3 192 188 167
3 192 167 170
3 193 192 170
3 182 194 168
3 194 172 168
3 193 170 195
3 170 169 195
3 195 169 171
3 196 195 171
3 196 171 172
3 194 197 172
3 197 198 172
3 198 196 172
3 200 173 190
3 199 200 190
3 201 174 173
3 200 201 173
3 176 179 202
3 177 176 202
3 177 202 175
3 175 202 184
3 178 185 203
3 178 203 179
3 179 203 202
3 203 185 204
3 202 205 184
3 183 206 181
3 180 181 206
3 180 206 182
3 182 206 194
3 183 184 207
3 205 207 184
3 183 207 206
3 185 208 204
3 186 209 185
3 185 209 208
3 187 210 186
3 186 210 209
3 191 189 211
3 189 188 211
3 211 188 192
3 199 190 212
3 212 190 191
3 212 191 211
3 213 199 212
3 214 211 192
3 214 192 193
3 215 214 193
3 215 193 195
3 206 216 194
3 216 197 194
3 216 217 197
3 215 195 218
3 218 195 196
3 198 218 196
3 217 219 197
3 219 218 198
3 197 219 198
3 220 199 213
3 221 200 199
3 220 221 199
3 222 201 200
3 221 222 200
3 203 204 223
3 203 223 202
3 202 223 205
3 204 208 224
3 204 224 223
3 205 223 225
3 205 225 207
3 207 225 226
3 207 226 206
3 226 216 206
3 208 228 224
3 224 228 227
3 209 229 208
3 229 228 208
3 210 230 209
3 209 230 229
3 213 212 231
3 212 211 231
3 231 211 214
3 232 220 213
3 232 213 231
3 233 231 214
3 233 214 215
3 234 233 215
3 234 215 218
3 226 235 216
3 235 217 216
3 235 236 217
3 217 236 219
3 237 234 218
3 237 218 219
3 236 238 219
3 238 237 219
3 240 220 232
3 239 240 232
3 241 221 220
3 240 241 220
3 242 222 221
3 241 242 221
3 224 227 243
3 224 243 223
3 223 243 225
3 225 243 244
3 225 244 226
3 226 244 235
3 227 245 243
3 228 246 227
3 227 246 245
3 229 247 228
3 228 247 246
3 230 248 229
3 229 248 247
3 239 232 249
3 232 231 249
3 249 231 233
3 250 249 233
3 250 233 234
3 237 250 234
3 244 251 235
3 235 251 236
3 251 252 236
3 236 252 238
3 252 253 238
3 253 250 237
3 253 237 238
3 254 239 249
3 255 240 239
3 254 255 239
3 256 241 240
3 255 256 240
3 257 242 241
3 256 257 241
3 245 258 243
3 243 258 244
3 244 258 251
3 245 259 258
3 246 260 245
3 245 260 259
3 247 261 246
3 246 261 260
3 248 262 247
3 247 262 261
3 254 249 263
3 263 249 250
3 253 263 250
3 258 264 251
3 251 264 252
3 264 265 252
3 265 263 253
3 252 265 253
3 266 254 263
3 267 255 254
3 266 267 254
3 268 256 255
3 267 268 255
3 269 257 256
3 268 269 256
3 259 270 258
3 270 264 258
3 260 271 259
3 259 271 270
3 261 272 260
3 260 272 271
3 262 273 261
3 273 272 261
3 270 274 264
3 275 266 263
3 275 263 265
3 274 276 264
3 276 265 264
3 276 277 265
3 277 275 265
3 278 267 266
3 275 278 266
3 279 268 267
3 278 279 267
3 280 269 268
3 279 280 268
3 271 281 270
3 270 281 274
3 272 282 271
3 271 282 281
3 273 283 272
3 272 283 282
3 281 284 274
3 274 284 276
3 285 278 275
3 277 285 275
3 284 286 276
3 286 285 277
3 276 286 277
3 287 279 278
3 285 287 278
3 288 280 279
3 287 288 279
3 282 289 281
3 281 289 284
3 283 290 282
3 282 290 289
3 289 291 284
3 284 291 286
3 291 292 286
3 292 287 285
3 286 292 285
3 293 288 287
3 292 293 287
3 290 294 289
3 289 294 291
3 294 295 291
3 295 293 292
3 291 295 292
CELL_TYPES 542
5
5
5
5
5
5
5
5
5
5
5
5
5
5
5
5
5
5
5
5
5
5
5
5
5
5
5
5
5
5
5
5
5
5
5
5
5
5
5
5
5
5
5
5
5
5
5
5
5
5
5
5
5
5
5
5
5
5
5
5
5
5
5
5
5
5
5
5
5
5
5
5
5
5
5
5
5
5
5
5
5
5
5
5
5
5
5
5
5
5
5
5
5
5
5
5
5
5
5
5
5
5
5
5
5
5
5
5
5
5
5
5
5
5
5
5
5
5
5
5
5
5
5
5
5
5
5
5
5
5
5
5
5
5
5
5
5
5
5
5
5
5
5
5
5
5
5
5
5
5
5
5
5
5
5
5
5
5
5
5
5
5
5
5
5
5
5
5
5
5
5
5
5
5
5
5
5
5
5
5
5
5
5
5
5
5
5
5
5
5
5
5
5
5
5
5
5
5
5
5
5
5
5
5
5
5
5
5
5
5
5
5
5
5
5
5
5
5
5
5
5
5
5
5
5
5
5
5
5
5
5
5
5
5
5
5
5
5
5
5
5
5
5
5
5
5
5
5
5
5
5
5
5
5
5
5
5
5
5
5
5
5
5
5
5
5
5
5
5
5
5
5
5
5
5
5
5
5
5
5
5
5
5
5
5
5
5
5
5
5
5
5
5
5
5
5
5
5
5
5
5
5
5
5
5
5
5
5
5
5
5
5
5
5
5
5
5
5
5
5
5
5
5
5
5
5
5
5
5
5
5
5
5
5
5
5
5
5
5
5
5
5
5
5
5
5
5
5
5
5
5
5
5
5
5
5
5
5
5
5
5
5
5
5
5
5
5
5
5
5
5
5
5
5
5
5
5
5
5
5
5
5
5
5
5
5
5
5
5
5
5
5
5
5
5
5
5
5
5
5
5
5
5
5
5
5
5
5
5
5
5
5
5
5
5
5
5
5
5
5
5
5
5
5
5
5
5
5
5
5
5
5
5
5
5
5
5
5
5
5
5
5
5
5
5
5
5
5
5
5
5
5
5
5
5
5
5
5
5
5
5
5
5
5
5
5
5
5
5
5
5
5
5
5
5
5
5
5
5
5
5
5
5
5
5
5
5
5
5
5
5
5
5
5
5
5
5
5
5
5
5
5
5
5
5
5
5
5
5
5
5
5
5
5
5
5
5
5
5
5
5
5
5
5
5
5
5
5
5
5
5
5
5
5
5
5
5
5
5
5
5
5
POINT_DATA 296
SCALARS concentrations float 4
LOOKUP_TABLE default
0 0.993015 0.13369 7.46926
0 0.993028 0.133707 7.43979
0 0.993018 0.133415 7.39437
0 0.993029 0.133084 7.33768
0 0.993062 0.0911377 0.0526413
0 0.993026 0.133311 7.32023
0 0.993047 0.133175 7.41139
0 0.99307 0.0911684 0.0540843
0 0.993074 0.0911865 0.0511673
0 0.993093 0.133175 7.16607
0 0.993186 0.133021 7.63256
0 0.993041 0.132718 7.24055
0 0.993054 0.132836 7.15035
0 0.993069 0.0911358 0.0561969
0 0.993077 0.0911335 0.0558139
0 0.993164 0.0911555 0.0583938
0 0.993163 0.0911557 0.0572038
0 0.993083 0.0911551 0.0581723
0 0.993116 0.0911505 0.065605
0 0.993169 0.0911582 0.0597317
0 0.993176 0.0911626 0.0635378
0 0.993316 0.133441 6.1899
0 0.993174 0.134121 7.05843
0 0.993169 0.0911931 0.0667413
0 0.993273 0.0912885 0.0682806
0 0.993087 0.0911451 0.0546712
0 0.993065 0.132563 6.90839
0 0.993095 0.091188 0.0545516
0 0.993069 0.13215 8.49873
0 0.993165 0.0911565 0.0589151
0 0.99317 0.0911524 0.0565269
0 0.993252 0.0911172 0.0504854
0 0.993017 0.132176 7.95559
0 0.993267 0.0911011 0.0478289
0 0.993254 0.0911222 0.0529269
0 0.993195 0.0911626 0.0709658
0 0.993227 0.0911753 0.0797654
0 0.993275 0.0911079 0.0544734
0 0.993269 0.0911324 0.0646697
0 0.993275 0.0913294 0.0821983
0 0.993123 0.0914916 0.0916332
0 0.993273 0.0912006 0.0836373
0 0.993295 0.0912226 0.0875674
0 0.993037 0.133002 7.23206
0 0.993173 0.0911703 0.0560016
0 0.993102 0.0913965 0.0785255
0 0.993175 0.0912035 0.0594065
0 0.99307 0.132548 6.90728
0 0.993104 0.0913823 0.0775948
0 0.993063 0.132354 7.07905
0 0.993266 0.091106 0.0463756
0 0.993252 0.0911246 0.0480957
0 0.993331 0.0910276 0.0319649
0 0.993073 0.0913384 0.0421312
0 0.993089 0.0911653 0.0598214
0 0.993335 0.09103 0.0363228
0 0.993299 0.0911211 0.07052
0 0.993309 0.0911484 0.0817203
0 0.993345 0.0910367 0.0445545
0 0.993262 0.0912427 0.0692955
0 0.993204 0.0912052 0.046643
0 0.993333 0.0911458 0.0810772
0 0.993322 0.0911761 0.0786844
0 0.993052 0.132288 7.18839
0 0.993269 0.091105 0.0398811
0 0.993178 0.0911741 0.0632706
0 0.993255 0.0911163 0.0433059
0 0.993103 0.0911763 0.0534612
0 0.993181 0.0911808 0.0571882
0 0.993053 0.132255 7.15323
0 0.993097 0.0911337 0.0511176
0 0.993045 0.132252 7.13811
0 0.993384 0.0910003 0.0293202
0 0.99333 0.0910272 0.0268167
0 0.993384 0.0909992 0.0238573
0 0.993181 0.0911841 0.0342795
0 0.993089 0.0911343 0.0588064
0 0.993176 0.091164 0.0554067
0 0.99339 0.0910017 0.0348329
0 0.993433 0.0909896 0.0300512
0 0.993361 0.0910429 0.0542983
0 0.993397 0.0910055 0.0399638
0 0.99331 0.0911333 0.0574258
0 0.993274 0.0911272 0.042402
0 0.993365 0.0910509 0.0531096
0 0.993046 0.132488 7.23635
0 0.993331 0.0910134 0.0201542
0 0.993271 0.0910897 0.0381744
0 0.993183 0.0911568 0.0543803
0 0.99326 0.0911163 0.0434333
0 0.993093 0.0911257 0.0470343
0 0.993185 0.0911489 0.0538754
0 0.993066 0.132078 6.97175
0 0.993095 0.0911481 0.0426347
0 0.993439 0.0909808 0.0235845
0 0.993383 0.0909954 0.01836
0 0.993432 0.0909843 0.0189931
0 0.993387 0.0909883 0.0159083
0 0.993112 0.132513 7.67175
0 0.993086 0.0911257 0.0557378
0 0.993276 0.0911184 0.0423458
0 0.993173 0.0911418 0.0561364
0 0.993256 0.0911285 0.0496125
0 0.993472 0.0909566 0.0223115
0 0.993443 0.0909831 0.0329824
0 0.993404 0.0910076 0.0419915
0 0.993441 0.0909921 0.0376637
0 0.993352 0.0910468 0.040074
0 0.993403 0.0910065 0.0395309
0 0.99304 0.132272 7.19345
0 0.993338 0.0910134 0.0217214
0 0.99328 0.0911013 0.0420229
0 0.993188 0.0911534 0.0548399
0 0.993269 0.0911245 0.0495303
0 0.993131 0.0913146 0.0996828
0 0.9932 0.091169 0.067492
0 0.993127 0.0913018 0.0966553
0 0.993499 0.0909456 0.0163958
0 0.993501 0.090944 0.0201868
0 0.993473 0.0909517 0.014272
0 0.993441 0.0909756 0.0135374
0 0.993392 0.0909881 0.0163888
0 0.993438 0.0909804 0.0124267
0 0.993507 0.0909337 0.00796839
0 0.993056 0.132225 7.00185
0 0.99308 0.0911281 0.0532932
0 0.993175 0.09113 0.0537794
0 0.993341 0.0910554 0.0376984
0 0.993267 0.0911159 0.0492519
0 0.993477 0.0909555 0.0264432
0 0.99345 0.0909832 0.0346279
0 0.993402 0.0910064 0.0338388
0 0.993445 0.090982 0.0317331
0 0.993074 0.0911262 0.050555
0 0.99303 0.132241 7.25559
0 0.993347 0.0910197 0.0264981
0 0.99329 0.0911069 0.0487997
0 0.993207 0.0911491 0.0709555
0 0.993282 0.0911162 0.0565183
0 0.993085 0.0911489 0.0360751
0 0.993198 0.0911566 0.060786
0 0.9934 0.0909904 0.0189652
0 0.99351 0.0909343 0.0189782
0 0.993521 0.0909241 0.0118004
0 0.993479 0.0909453 0.00642884
0 0.993451 0.0909735 0.0119709
0 0.993448 0.0909853 0.0170521
0 0.993509 0.0909293 0.00273483
0 0.993526 0.0909145 0.00426166
0 0.993074 0.0911398 0.0288091
0 0.993023 0.132631 7.26241
0 0.993398 0.0910079 0.0302777
0 0.993173 0.0911303 0.0525979
0 0.993261 0.091122 0.0509026
0 0.993346 0.0910544 0.0379888
0 0.993167 0.0911401 0.0545524
0 0.993482 0.090954 0.0247694
0 0.993453 0.0909796 0.0270664
0 0.993512 0.0909348 0.0182946
0 0.993436 0.091007 0.0294268
0 0.993073 0.0911223 0.049914
0 0.993029 0.132274 7.25233
0 0.993355 0.0910174 0.0285332
0 0.993297 0.0910923 0.0481377
0 0.993185 0.0911498 0.0410947
0 0.993279 0.0911146 0.0444717
0 0.993183 0.0911571 0.0371859
0 0.993404 0.0909957 0.0217498
0 0.993527 0.0909095 0.0100115
0 0.993487 0.0909493 0.0101024
0 0.993459 0.0909879 0.0204691
0 0.993516 0.0909334 0.0112792
0 0.993528 0.090915 0.0131637
0 0.993086 0.091187 0.0322352
0 0.993028 0.132057 7.1536
0 0.99339 0.0910122 0.029776
0 0.993265 0.0911053 0.047439
0 0.993333 0.0910606 0.0387381
0 0.993168 0.0911515 0.0602619
0 0.993258 0.0911044 0.0490821
0 0.993492 0.0909478 0.0196432
0 0.993475 0.0909664 0.0216077
0 0.993515 0.0909279 0.0159073
0 0.99345 0.0909881 0.0251864
0 0.993405 0.0910192 0.0311719
0 0.993165 0.0911493 0.0581761
0 0.993071 0.0912078 0.0618084
0 0.993027 0.131793 7.43935
0 0.993357 0.0910199 0.0263862
0 0.993293 0.0910995 0.034143
0 0.993183 0.0911647 0.0408073
0 0.993279 0.0911259 0.0369398
0 0.993409 0.0910087 0.0265007
0 0.993457 0.0910076 0.0300981
0 0.993519 0.0909165 0.0156961
0 0.993493 0.0909656 0.0219526
0 0.993517 0.0909476 0.0217282
0 0.993516 0.090931 0.0245608
0 0.993517 0.0909446 0.0268643
0 0.993182 0.0911767 0.0441382
0 0.993083 0.0911789 0.0300702
0 0.993044 0.132356 7.27178
0 0.993338 0.0910359 0.0348842
0 0.993272 0.0910976 0.0479609
0 0.993254 0.0911236 0.0524554
0 0.993387 0.0910174 0.031688
0 0.993487 0.0909421 0.0183472
0 0.993445 0.0909851 0.0260419
0 0.993163 0.0911505 0.0586905
0 0.99307 0.0912639 0.0643764
0 0.993029 0.13189 6.59108
0 0.993359 0.0910345 0.0287171
0 0.993296 0.0911206 0.0389275
0 0.993282 0.0911667 0.0523756
0 0.993413 0.0910252 0.0369126
0 0.993466 0.0910105 0.0384204
0 0.993495 0.0909489 0.0253383
0 0.993492 0.0909668 0.0366914
0 0.993495 0.0909775 0.035369
0 0.993495 0.0909699 0.0405536
0 0.993181 0.0911971 0.0572412
0 0.99307 0.0911489 0.0399513
0 0.993023 0.131633 7.15984
0 0.993336 0.0910363 0.0355975
0 0.993271 0.0910982 0.0458663
0 0.993399 0.0910029 0.0306706
0 0.993457 0.0909722 0.0276669
0 0.993257 0.0911173 0.0465033
0 0.99316 0.0911528 0.0533841
0 0.993063 0.0911483 0.0487061
0 0.99302 0.132576 7.86319
0 0.993368 0.0910605 0.0433945
0 0.993309 0.0911685 0.0658626
0 0.993421 0.0910414 0.0505709
0 0.993464 0.0910264 0.0508753
0 0.993455 0.090985 0.0367615
0 0.99346 0.0909968 0.0478226
0 0.99347 0.0910144 0.0539852
0 0.993461 0.0910109 0.0563952
0 0.99331 0.0912352 0.0914054
0 0.993198 0.0912367 0.0748358
0 0.993076 0.0911621 0.0502713
0 0.993018 0.131314 7.13039
0 0.993341 0.0910278 0.0341082
0 0.993405 0.0909967 0.0337225
0 0.993271 0.0911138 0.0444852
0 0.993157 0.0911642 0.0525503
0 0.99306 0.0911237 0.0490972
0 0.993015 0.132711 7.19091
0 0.993382 0.0910987 0.0684999
0 0.993428 0.0910501 0.0620698
0 0.993412 0.0910031 0.0435141
0 0.993421 0.0910179 0.0558006
0 0.99343 0.0910314 0.0624754
0 0.993343 0.0912645 0.107825
0 0.993231 0.0913454 0.10815
0 0.993096 0.0912366 0.068465
0 0.993025 0.131811 7.30328
0 0.993351 0.0910412 0.0418485
0 0.993255 0.0911444 0.0486328
0 0.993152 0.091186 0.042358
0 0.993055 0.0911384 0.0526176
0 0.993014 0.132101 7.32506
0 0.993397 0.0911284 0.0860216
0 0.99337 0.0910547 0.0605735
0 0.993393 0.0910912 0.0804116
0 0.993351 0.0913436 0.125266
0 0.993272 0.091437 0.126688
0 0.993152 0.091554 0.124459
0 0.99306 0.131957 7.62877
0 0.993287 0.0911391 0.0626996
0 0.993159 0.0911986 0.048723
0 0.993036 0.0912993 0.028642
0 0.992998 0.131874 7.54012
0 0.993298 0.0911734 0.0910434
0 0.993366 0.0912848 0.12182
0 0.993338 0.0911782 0.106771
0 0.993352 0.0912635 0.124667
0 0.993298 0.0914878 0.129153
0 0.993212 0.0916278 0.13798
0 0.993144 0.131567 6.66535
0 0.993191 0.091228 0.080888
0 0.993056 0.0913716 0.0753514
0 0.992974 0.131255 6.43027
0 0.993248 0.0912196 0.121259
0 0.993306 0.0914008 0.130042
0 0.993293 0.0912904 0.131236
0 0.993212 0.0915986 0.0911384
0 0.993176 0.130652 6.70334
0 0.993137 0.0911868 0.0936879
0 0.993047 0.132092 7.49508
0 0.993241 0.0912397 0.159152
0 0.993254 0.0914508 0.140221
0 0.993181 0.128519 3.39775
0 0.99316 0.132021 7.21393
0 0.993262 0.131247 9.50016
VECTORS fa_u float
0.00690081 0.00285808 0
0.00644756 0.00371208 0
0.0071444 0.00190636 0
0.00727538 0.000954144 0
4.70056e-05 2.36978e-05 0
0.00581443 0.00444725 0
0.00524043 0.00524086 0
3.87475e-05 3.77325e-05 0
3.58561e-05 3.65026e-05 0
0.00436964 0.00567968 0
0.00379836 0.00662031 0
0.00724055 -4.79133e-06 0
0.00708805 -0.000941835 0
5.33862e-05 1.75502e-05 0
5.46043e-05 1.15573e-05 0
5.27597e-05 2.50249e-05 0
4.7065e-05 3.2514e-05 0
2.56445e-05 5.22147e-05 0
2.72219e-05 5.96908e-05 0
4.22027e-05 4.22707e-05 0
3.65486e-05 5.19736e-05 0
0.002362 0.00572152 0
0.00182355 0.00681881 0
2.90465e-05 6.00891e-05 0
2.87058e-05 6.19533e-05 0
5.45351e-05 3.85594e-06 0
0.00666885 -0.00180339 0
5.38875e-05 -8.48624e-06 0
0.00785374 -0.00324765 0
5.66977e-05 1.60115e-05 0
5.55461e-05 1.04846e-05 0
4.63023e-05 2.01215e-05 0
0.000982832 0.00789465 0
3.99105e-05 2.63582e-05 0
4.01672e-05 3.44653e-05 0
3.33366e-05 6.26483e-05 0
3.49122e-05 7.17193e-05 0
3.40846e-05 4.24922e-05 0
3.44137e-05 5.47528e-05 0
5.2219e-05 6.34801e-05 0
9.16211e-05 -1.48588e-06 0
3.67066e-05 7.51521e-05 0
4.76958e-05 7.34381e-05 0
3.10774e-06 0.00723206 0
5.59957e-05 8.15092e-07 0
6.72476e-05 -4.05464e-05 0
5.8186e-05 -1.19801e-05 0
0.00599262 -0.00343497 0
7.62454e-05 -1.44078e-05 0
0.00562866 -0.00429316 0
4.39979e-05 1.46591e-05 0
4.71343e-05 9.56859e-06 0
2.63207e-05 1.81376e-05 0
-4.00145e-05 -1.31862e-05 0
-1.2575e-05 5.84848e-05 0
2.5029e-05 2.6323e-05 0
3.25761e-05 6.25449e-05 0
3.68894e-05 7.29204e-05 0
2.33295e-05 3.79583e-05 0
5.27233e-05 4.4968e-05 0
3.14623e-05 3.44339e-05 0
3.95091e-05 7.07993e-05 0
4.50652e-05 6.45008e-05 0
-0.000909776 0.00713058 0
3.97564e-05 3.15096e-06 0
5.89335e-05 -2.30222e-05 0
4.2126e-05 -1.004e-05 0
4.57484e-05 -2.76619e-05 0
5.09216e-05 -2.60284e-05 0
0.00507781 -0.0050383 0
3.72785e-05 -3.4976e-05 0
0.00437671 -0.00563888 0
2.06103e-05 2.0854e-05 0
2.49082e-05 9.93567e-06 0
1.94555e-05 1.38077e-05 0
-3.66572e-06 3.40829e-05 0
-7.65464e-06 5.83061e-05 0
-7.41418e-06 5.49084e-05 0
2.03581e-05 2.82644e-05 0
1.94579e-05 2.29011e-05 0
2.58974e-05 4.77246e-05 0
2.05728e-05 3.42617e-05 0
3.19529e-05 4.77152e-05 0
1.62725e-05 3.91553e-05 0
2.66756e-05 4.59243e-05 0
-0.0018586 0.0069936 0
2.01098e-05 -1.33661e-06 0
3.45292e-05 -1.62793e-05 0
4.16197e-05 -3.50003e-05 0
3.46718e-05 -2.61594e-05 0
2.9317e-05 -3.67796e-05 0
3.46374e-05 -4.12651e-05 0
0.0034797 -0.00604127 0
1.40221e-05 -4.02628e-05 0
1.71801e-05 1.61578e-05 0
1.77807e-05 4.57543e-06 0
1.66253e-05 9.18346e-06 0
1.52507e-05 -4.52656e-06 0
0.00293471 -0.00708824 0
-1.36097e-05 5.40507e-05 0
3.02246e-06 4.22378e-05 0
-1.22182e-05 5.47906e-05 0
-6.98289e-06 4.91186e-05 0
1.34217e-05 1.78231e-05 0
1.81456e-05 2.75423e-05 0
2.05685e-05 3.6609e-05 0
1.88526e-05 3.26057e-05 0
1.53092e-05 3.70345e-05 0
1.69459e-05 3.57145e-05 0
-0.00274211 0.0066503 0
1.68516e-05 -1.37055e-05 0
2.79006e-05 -3.14242e-05 0
2.56452e-05 -4.84741e-05 0
2.7185e-05 -4.14032e-05 0
-3.64101e-06 -9.96163e-05 0
2.10322e-05 -6.41313e-05 0
7.39993e-05 -6.21799e-05 0
1.05292e-05 1.25682e-05 0
9.85615e-06 1.76171e-05 0
1.12981e-05 8.7203e-06 0
1.33675e-05 2.13796e-06 0
1.06505e-05 -1.24563e-05 0
1.08893e-05 -5.98725e-06 0
6.31429e-06 4.86055e-06 0
0.00181741 -0.00676187 0
-1.7714e-05 5.02631e-05 0
-1.68571e-05 5.10692e-05 0
9.54229e-07 3.76863e-05 0
-1.24399e-05 4.7655e-05 0
1.19669e-05 2.35805e-05 0
1.39973e-05 3.16728e-05 0
8.09573e-06 3.28561e-05 0
9.61248e-06 3.02422e-05 0
-2.8172e-05 4.19779e-05 0
-0.00362405 0.00628568 0
1.35615e-05 -2.27648e-05 0
2.07503e-05 -4.41683e-05 0
2.74128e-05 -6.54464e-05 0
2.04165e-05 -5.27018e-05 0
1.95944e-05 -3.02899e-05 0
2.8752e-05 -5.35562e-05 0
5.35596e-06 -1.81932e-05 0
5.17016e-06 1.82604e-05 0
3.55954e-06 1.12508e-05 0
6.25512e-06 -1.48439e-06 0
5.37937e-06 -1.06942e-05 0
6.7808e-08 -1.7052e-05 0
-1.54524e-07 -2.73046e-06 0
-3.65048e-06 2.19904e-06 0
3.76013e-06 -2.85627e-05 0
0.000928463 -0.00720282 0
-2.11246e-06 3.02039e-05 0
-2.41208e-05 4.67411e-05 0
-1.8693e-05 4.7346e-05 0
-8.80573e-06 3.69541e-05 0
-3.34217e-05 4.31157e-05 0
5.91138e-06 2.40537e-05 0
1.65012e-06 2.7016e-05 0
-4.11222e-07 1.829e-05 0
-7.04296e-06 2.85715e-05 0
-3.4803e-05 3.57792e-05 0
-0.00441081 0.00575683 0
7.23996e-06 -2.75994e-05 0
1.54707e-05 -4.5584e-05 0
9.91021e-06 -3.98818e-05 0
1.06292e-05 -4.31828e-05 0
-5.25552e-06 -3.68126e-05 0
-2.21544e-06 -2.16366e-05 0
-4.97315e-06 8.68896e-06 0
-3.19192e-06 -9.58493e-06 0
-8.45021e-06 -1.86434e-05 0
-8.98896e-06 -6.81314e-06 0
-1.30574e-05 -1.66987e-06 0
-1.70154e-05 -2.73785e-05 0
-2.09857e-05 -0.00715357 0
-1.34119e-05 2.65844e-05 0
-2.524e-05 4.01671e-05 0
-1.89546e-05 3.3784e-05 0
-4.56323e-05 3.93596e-05 0
-3.38492e-05 3.55427e-05 0
-3.24894e-06 1.93726e-05 0
-7.11933e-06 2.04012e-05 0
-9.08786e-06 1.30558e-05 0
-1.47554e-05 2.04116e-05 0
-2.1373e-05 2.2691e-05 0
-4.61491e-05 3.54221e-05 0
-5.1729e-05 3.38288e-05 0
-0.00524115 0.00527961 0
-2.34357e-06 -2.62819e-05 0
-2.84386e-06 -3.40243e-05 0
-1.92417e-05 -3.5986e-05 0
-1.45688e-05 -3.39455e-05 0
-1.31751e-05 -2.29935e-05 0
-1.996e-05 -2.25277e-05 0
-1.50914e-05 4.3151e-06 0
-1.63677e-05 -1.46292e-05 0
-1.87687e-05 -1.09475e-05 0
-2.39558e-05 -5.41818e-06 0
-2.46362e-05 -1.07121e-05 0
-3.16974e-05 -3.07158e-05 0
-1.25565e-05 -2.73231e-05 0
-0.000958661 -0.00720831 0
-2.44869e-05 2.48456e-05 0
-3.75002e-05 2.98994e-05 0
-4.39779e-05 2.85922e-05 0
-2.66917e-05 1.70788e-05 0
-1.54089e-05 9.95919e-06 0
-2.30674e-05 1.20862e-05 0
-4.90182e-05 3.22769e-05 0
-4.60705e-05 4.49647e-05 0
-0.00523088 0.00401002 0
-1.74972e-05 -2.27711e-05 0
-2.55739e-05 -2.93483e-05 0
-4.25873e-05 -3.04881e-05 0
-2.81077e-05 -2.39269e-05 0
-3.06541e-05 -2.31616e-05 0
-2.53238e-05 8.58265e-07 0
-3.54406e-05 -9.49868e-06 0
-3.03933e-05 -1.80889e-05 0
-3.68637e-05 -1.69016e-05 0
-4.98979e-05 -2.80492e-05 0
-3.46068e-05 -1.99618e-05 0
-0.00184188 -0.00691887 0
-3.15103e-05 1.65616e-05 0
-4.20071e-05 1.84152e-05 0
-2.99667e-05 6.53332e-06 0
-2.75985e-05 1.94428e-06 0
-4.54505e-05 9.83903e-06 0
-4.92752e-05 2.05381e-05 0
-4.16477e-05 2.52537e-05 0
-0.00682822 0.00389937 0
-3.68993e-05 -2.28368e-05 0
-5.83818e-05 -3.0487e-05 0
-4.32755e-05 -2.61658e-05 0
-4.326e-05 -2.67745e-05 0
-3.58616e-05 -8.08456e-06 0
-4.39934e-05 -1.87505e-05 0
-4.72605e-05 -2.6093e-05 0
-5.02869e-05 -2.55273e-05 0
-8.33467e-05 -3.7527e-05 0
-6.94191e-05 -2.79534e-05 0
-4.74141e-05 -1.67065e-05 0
-0.00271937 -0.00659148 0
-3.39963e-05 2.76115e-06 0
-3.33165e-05 -5.21689e-06 0
-4.44319e-05 -2.17817e-06 0
-5.1837e-05 8.62891e-06 0
-4.77541e-05 1.14051e-05 0
-0.00664294 0.00275328 0
-6.12119e-05 -3.07462e-05 0
-5.45048e-05 -2.96967e-05 0
-3.94688e-05 -1.8322e-05 0
-4.81518e-05 -2.81976e-05 0
-5.4248e-05 -3.09892e-05 0
-9.6018e-05 -4.90599e-05 0
-0.00010143 -3.75285e-05 0
-6.80707e-05 -7.33719e-06 0
-0.00362305 -0.00634124 0
-3.95316e-05 -1.37312e-05 0
-4.63349e-05 -1.47726e-05 0
-4.2358e-05 7.58112e-08 0
-5.18421e-05 9.00052e-06 0
-0.00708242 0.00186972 0
-7.42531e-05 -4.34303e-05 0
-5.0885e-05 -3.28612e-05 0
-6.67929e-05 -4.47743e-05 0
-0.000107544 -6.42326e-05 0
-0.000113515 -5.62497e-05 0