# vtk DataFile Version 2.0
CellBP Time: 0.52
ASCII
DATASET UNSTRUCTURED_GRID
POINTS 296 double
-9.16877 -3.76852 0
-8.59092 -4.93883 0
-9.58823 -2.53255 0
-9.84296 -1.25242 0
-8.35774 -2.81876 0
-7.86693 -6.02488 0
-7.00633 -7.00627 0
-7.91741 -3.87479 0
-7.34283 -4.8679 0
-6.02416 -7.86599 0
-4.93958 -8.59229 0
-9.92848 0.050021 0
-9.84306 1.35248 0
-8.65784 -1.68397 0
-8.78648 -0.529636 0
-7.58985 -2.00417 0
-7.2259 -2.90653 0
-6.63777 -5.77901 0
-5.82255 -6.59707 0
-6.79042 -3.88897 0
-6.22072 -4.676 0
-3.76873 -9.1692 0
-2.5324 -9.58771 0
-4.90659 -7.30908 0
-3.91324 -7.88648 0
-8.79294 0.643403 0
-9.58853 2.63267 0
-8.62348 1.77409 0
-9.16912 3.86869 0
-7.74445 -0.929006 0
-7.79468 0.0802509 0
-6.95272 -1.31591 0
-1.25245 -9.84323 0
-6.44164 -2.15317 0
-6.31954 -3.05619 0
-5.53666 -5.47469 0
-4.79603 -6.11563 0
-5.65918 -3.75709 0
-5.26953 -4.56169 0
-2.86634 -8.36404 0
-1.77849 -8.64035 0
-3.92827 -6.72373 0
-3.05673 -7.15275 0
0.0499664 -9.92859 0
-7.70568 1.14352 0
-8.33876 2.91542 0
-7.55205 2.11199 0
-8.59168 5.03926 0
-7.8802 3.97839 0
-7.8666 6.12458 0
-6.77888 -0.396876 0
-6.95672 0.552553 0
-5.77158 -1.00343 0
-0.590796 -8.80997 0
0.56573 -8.77118 0
-5.30329 -2.48034 0
-4.49209 -5.09586 0
-3.90261 -5.77547 0
-4.43905 -3.80486 0
-2.06247 -7.56211 0
-1.13547 -7.78603 0
-2.99464 -6.10222 0
-2.30909 -6.61995 0
1.35247 -9.84341 0
-6.68965 1.42208 0
-7.17237 3.1182 0
-6.65944 2.37307 0
-7.295 4.98888 0
-6.71828 4.00321 0
-7.00599 7.10596 0
-6.57276 5.89441 0
-6.02462 7.96658 0
-4.45323 -1.18109 0
-5.81479 0.51377 0
-4.65628 -0.010376 0
0.0085479 -7.84837 0
1.73865 -8.64417 0
0.949017 -7.76373 0
-4.03862 -2.40644 0
-3.48563 -1.39122 0
-3.29461 -4.80549 0
-3.26596 -3.26786 0
-1.37862 -6.67567 0
-0.508739 -7.02519 0
-1.97562 -5.53721 0
2.63264 -9.5886 0
-5.50753 2.037 0
-6.09495 3.07233 0
-6.10535 4.86988 0
-5.76196 3.99167 0
-5.76161 6.71752 0
-5.4524 5.61967 0
-4.93934 8.69176 0
-4.83874 7.40502 0
-3.50158 -0.424303 0
-4.44944 1.24908 0
-3.71156 0.5921 0
-4.0623 2.31991 0
-3.76863 9.26896 0
2.86276 -8.33333 0
0.419725 -6.79574 0
2.02213 -7.52626 0
1.30616 -6.90593 0
-2.44472 -0.87382 0
-2.83845 -2.13117 0
-2.29448 -4.0975 0
-2.32571 -2.97367 0
-0.442389 -5.86142 0
-1.22276 -4.49929 0
3.86864 -9.16897 0
-4.79002 3.39198 0
-5.08821 4.59442 0
-4.64745 6.28185 0
-4.53913 5.36007 0
-3.84399 7.99393 0
-3.82699 6.84619 0
-2.7835 8.42346 0
-1.64907 -0.137886 0
-1.45028 -0.890587 0
-2.48917 0.507286 0
-3.25371 1.44421 0
-3.23915 3.31671 0
-2.91106 2.37186 0
-1.35512 0.627133 0
-2.53266 9.6886 0
3.93297 -7.88755 0
2.96475 -7.15824 0
0.954151 -5.82234 0
2.07447 -6.41593 0
-1.68301 -1.9921 0
-1.43447 -3.27786 0
0.0902323 -4.74719 0
-0.566191 -3.69454 0
4.93251 -7.31937 0
5.03985 -8.59264 0
-3.77717 4.55191 0
-3.73501 5.75256 0
-2.88818 7.29043 0
-3.00991 6.3542 0
-1.66268 8.73438 0
-1.94025 7.61997 0
-2.33848 4.05189 0
-0.730741 -1.32726 0
-0.836904 -0.257613 0
-1.93625 1.68084 0
-2.12583 2.87596 0
-1.30661 3.54485 0
-0.869467 1.35087 0
-0.282365 0.456065 0
-0.533576 8.87246 0
-1.25247 9.94329 0
1.11284 -4.57483 0
3.91045 -6.71786 0
2.98814 -6.09522 0
2.11801 -5.42531 0
4.78483 -6.2059 0
-0.558868 -2.47687 0
0.495134 -3.46395 0
0.0535563 -1.6105 0
1.48196 -3.6823 0
5.86769 -6.61531 0
6.12463 -7.86659 0
-2.47585 5.34888 0
-2.13062 6.53501 0
-0.90415 7.80402 0
-1.27245 6.93267 0
0.0862072 7.88112 0
-1.14451 4.49498 0
0.150324 -0.617649 0
-0.79744 2.4886 0
-0.331648 3.6009 0
0.0631179 1.51277 0
0.741457 0.473441 0
0.64681 8.87511 0
0.0499794 10.0301 0
2.38116 -4.28552 0
3.85952 -5.64095 0
3.0017 -5.21319 0
5.5743 -5.49238 0
4.69148 -5.28358 0
0.629696 -2.29342 0
1.25623 -2.95135 0
0.757508 -1.39147 0
2.16445 -3.13598 0
2.99397 -3.47681 0
6.15588 -4.79229 0
6.65625 -5.76996 0
7.10629 -7.00632 0
-1.01971 5.82088 0
-0.372648 6.88431 0
1.12275 7.77044 0
0.558036 7.08058 0
-0.000757468 4.72553 0
0.607044 3.82806 0
1.33895 -0.641905 0
0.539131 2.65118 0
0.966124 1.575 0
1.91027 0.213883 0
1.61483 1.06507 0
2.12967 7.58454 0
1.79947 8.71349 0
1.35234 9.94231 0
3.82319 -4.35202 0
5.11717 -4.44952 0
5.84648 -3.93559 0
3.78432 -3.20132 0
1.81237 -1.88271 0
3.01937 -2.57408 0
6.78434 -3.94837 0
7.38258 -4.89731 0
7.96634 -6.02443 0
0.483411 5.88221 0
1.42836 6.74281 0
2.37467 6.67003 0
1.21009 4.55661 0
1.48829 3.3979 0
2.43594 -0.692051 0
2.82824 0.142621 0
1.78901 2.16299 0
2.61207 1.15023 0
3.0725 7.17123 0
2.90469 8.37816 0
2.63284 9.68923 0
4.9119 -3.32827 0
6.12162 -3.10912 0
4.17331 -2.27549 0
3.24471 -1.50303 0
6.73247 -2.31341 0
7.23331 -3.04304 0
7.96635 -3.91298 0
8.69219 -4.93957 0
2.02389 5.60061 0
3.08704 6.15466 0
2.36418 4.1274 0
2.42031 3.06119 0
3.52602 -0.460897 0
3.61607 0.613356 0
2.96213 2.28831 0
3.54597 1.52544 0
4.01301 5.89934 0
3.98536 6.79468 0
3.9742 7.94049 0
3.86886 9.26954 0
5.56975 -1.91645 0
4.50982 -1.12974 0
6.71538 -1.33638 0
7.59426 -2.03686 0
8.39912 -2.86201 0
9.26891 -3.76862 0
3.41976 4.87793 0
3.33949 3.38588 0
4.69196 0.1301 0
4.51986 1.31018 0
4.06595 2.44419 0
4.57179 5.15385 0
4.84508 6.19255 0
4.98184 7.38252 0
5.03942 8.69193 0
5.88475 -0.434979 0
7.01281 -0.488364 0
7.76177 -1.08558 0
8.68729 -1.74641 0
9.68875 -2.53269 0
4.55353 3.8285 0
5.8192 1.09886 0
5.37261 2.53558 0
5.38187 4.62213 0
5.61407 5.52542 0
5.89918 6.67411 0
6.12467 7.96664 0
6.84833 0.463693 0
7.85602 -0.0256413 0
8.86334 -0.584515 0
9.94353 -1.2525 0
6.96297 1.34993 0
5.72312 3.7798 0
6.54381 2.19829 0
6.38259 3.08915 0
6.29487 4.6888 0
6.69557 5.84004 0
7.10661 7.10658 0
7.7873 0.967978 0
8.8627 0.572964 0
10.0288 0.0500023 0
7.61922 2.00508 0
6.83195 3.90585 0
7.2725 2.94799 0
7.38121 4.88768 0
7.9671 6.12498 0
8.7263 1.72757 0
9.94339 1.35249 0
8.42423 2.83887 0
7.98474 3.91783 0
8.69308 5.04006 0
9.68871 2.63268 0
9.26925 3.86873 0
CELLS 542 2168
3 2 0 4
3 0 1 7
3 4 0 7
3 1 5 8
3 7 1 8
3 3 2 13
3 13 2 4
3 11 3 14
3 14 3 13
3 13 4 15
3 4 7 16
3 15 4 16
3 5 6 17
3 8 5 17
3 6 9 18
3 17 6 18
3 7 8 19
3 16 7 19
3 8 17 20
3 19 8 20
3 9 10 23
3 18 9 23
3 10 21 24
3 23 10 24
3 12 11 25
3 25 11 14
3 26 12 27
3 27 12 25
3 14 13 29
3 29 13 15
3 25 14 30
3 30 14 29
3 29 15 31
3 15 16 33
3 31 15 33
3 16 19 34
3 33 16 34
3 17 18 35
3 20 17 35
3 18 23 36
3 35 18 36
3 19 20 37
3 34 19 37
3 20 35 38
3 37 20 38
3 21 22 39
3 24 21 39
3 22 32 40
3 39 22 40
3 23 24 41
3 36 23 41
3 24 39 42
3 41 24 42
3 27 25 44
3 44 25 30
3 28 26 45
3 45 26 27
3 45 27 46
3 46 27 44
3 47 28 48
3 48 28 45
3 30 29 50
3 50 29 31
3 44 30 51
3 51 30 50
3 50 31 52
3 31 33 52
3 32 43 53
3 40 32 53
3 53 43 54
3 33 34 55
3 34 37 55
3 33 55 52
3 35 36 56
3 38 35 56
3 36 41 57
3 56 36 57
3 37 38 58
3 38 56 58
3 37 58 55
3 39 40 59
3 42 39 59
3 40 53 60
3 59 40 60
3 41 42 61
3 57 41 61
3 42 59 62
3 61 42 62
3 43 63 54
3 46 44 64
3 64 44 51
3 48 45 65
3 65 45 46
3 65 46 66
3 66 46 64
3 49 47 67
3 67 47 48
3 67 48 68
3 68 48 65
3 69 49 70
3 70 49 67
3 52 55 72
3 64 51 73
3 51 50 73
3 50 52 73
3 73 52 74
3 74 52 72
3 53 54 75
3 60 53 75
3 54 63 76
3 54 76 77
3 75 54 77
3 55 58 78
3 72 55 78
3 72 78 79
3 56 57 80
3 57 61 80
3 56 80 58
3 58 80 81
3 78 58 81
3 59 60 82
3 62 59 82
3 60 75 83
3 82 60 83
3 61 62 84
3 62 82 84
3 61 84 80
3 63 85 76
3 66 64 86
3 64 73 86
3 68 65 87
3 87 65 66
3 87 66 86
3 70 67 88
3 88 67 68
3 88 68 89
3 89 68 87
3 71 69 90
3 90 69 70
3 90 70 91
3 91 70 88
3 92 71 93
3 93 71 90
3 74 72 94
3 94 72 79
3 86 73 95
3 95 73 74
3 95 74 96
3 96 74 94
3 97 86 95
3 76 85 99
3 75 77 100
3 83 75 100
3 76 99 101
3 77 76 101
3 77 101 102
3 100 77 102
3 94 79 103
3 78 81 104
3 79 78 104
3 79 104 103
3 80 84 105
3 81 80 105
3 81 105 106
3 104 81 106
3 82 83 107
3 83 100 107
3 82 107 84
3 84 107 108
3 105 84 108
3 85 109 99
3 89 87 110
3 87 86 110
3 110 86 97
3 91 88 111
3 111 88 89
3 111 89 110
3 93 90 112
3 112 90 91
3 112 91 113
3 113 91 111
3 98 92 114
3 114 92 93
3 114 93 115
3 115 93 112
3 116 98 114
3 117 103 118
3 96 94 119
3 94 103 119
3 119 103 117
3 97 95 120
3 120 95 96
3 120 96 119
3 121 110 97
3 121 97 122
3 122 97 120
3 123 119 117
3 124 98 116
3 99 109 125
3 99 125 126
3 101 99 126
3 100 102 127
3 100 127 107
3 101 126 128
3 102 101 128
3 102 128 127
3 104 106 129
3 104 129 103
3 103 129 118
3 105 108 130
3 106 105 130
3 106 130 129
3 107 127 131
3 108 107 131
3 108 131 132
3 108 132 130
3 109 134 125
3 125 134 133
3 113 111 135
3 111 110 135
3 135 110 121
3 115 112 136
3 136 112 113
3 136 113 135
3 116 114 137
3 137 114 115
3 137 115 138
3 138 115 136
3 139 124 116
3 139 116 140
3 140 116 137
3 141 135 121
3 118 129 142
3 118 142 143
3 117 118 143
3 123 117 143
3 122 120 144
3 120 119 144
3 144 119 123
3 141 121 145
3 145 121 122
3 145 122 144
3 146 141 145
3 147 144 123
3 147 123 148
3 143 148 123
3 150 124 139
3 149 150 139
3 131 127 151
3 125 133 152
3 126 125 152
3 126 152 153
3 128 126 153
3 128 153 154
3 128 154 127
3 127 154 151
3 152 133 155
3 130 132 156
3 130 156 129
3 129 156 142
3 131 151 157
3 132 131 157
3 132 157 156
3 156 158 142
3 157 151 159
3 133 160 155
3 134 161 133
3 133 161 160
3 138 136 162
3 136 135 162
3 162 135 141
3 140 137 163
3 163 137 138
3 163 138 162
3 149 139 164
3 164 139 140
3 164 140 165
3 165 140 163
3 166 149 164
3 167 162 141
3 167 141 146
3 142 158 168
3 143 142 168
3 143 168 148
3 146 145 169
3 145 144 169
3 169 144 147
3 170 167 146
3 170 146 169
3 171 169 147
3 171 147 148
3 171 148 172
3 168 172 148
3 173 149 166
3 174 150 149
3 173 174 149
3 154 175 151
3 151 175 159
3 152 155 176
3 153 152 176
3 153 176 177
3 153 177 154
3 154 177 175
3 155 160 178
3 155 178 179
3 176 155 179
3 156 157 180
3 156 180 158
3 157 159 181
3 157 181 180
3 158 180 182
3 158 182 168
3 159 175 183
3 159 183 181
3 175 184 183
3 160 186 178
3 178 186 185
3 161 187 160
3 160 187 186
3 165 163 188
3 163 162 188
3 188 162 167
3 166 164 189
3 189 164 165
3 189 165 188
3 190 173 166
3 190 166 191
3 191 166 189
3 192 188 167
3 192 167 170
3 193 192 170
3 182 194 168
3 194 172 168
3 193 170 195
3 170 169 195
3 195 169 171
3 196 195 171
3 196 171 172
3 194 197 172
3 197 198 172
3 198 196 172
3 200 173 190
3 199 200 190
3 201 174 173
3 200 201 173
3 176 179 202
3 177 176 202
3 177 202 175
3 175 202 184
3 178 185 203
3 178 203 179
3 179 203 202
3 203 185 204
3 202 205 184
3 183 206 181
3 180 181 206
3 180 206 182
3 182 206 194
3 183 184 207
3 205 207 184
3 183 207 206
3 185 208 204
3 186 209 185
3 185 209 208
3 187 210 186
3 186 210 209
3 191 189 211
3 189 188 211
3 211 188 192
3 199 190 212
3 212 190 191
3 212 191 211
3 213 199 212
3 214 211 192
3 214 192 193
3 215 214 193
3 215 193 195
3 206 216 194
3 216 197 194
3 216 217 197
3 215 195 218
3 218 195 196
3 198 218 196
3 217 219 197
3 219 218 198
3 197 219 198
3 220 199 213
3 221 200 199
3 220 221 199
3 222 201 200
3 221 222 200
3 203 204 223
3 203 223 202
3 202 223 205
3 204 208 224
3 204 224 223
3 205 223 225
3 205 225 207
3 207 225 226
3 207 226 206
3 226 216 206
3 208 228 224
3 224 228 227
3 209 229 208
3 229 228 208
3 210 230 209
3 209 230 229
3 213 212 231
3 212 211 231
3 231 211 214
3 232 220 213
3 232 213 231
3 233 231 214
3 233 214 215
3 234 233 215
3 234 215 218
3 226 235 216
3 235 217 216
3 235 236 217
3 217 236 219
3 237 234 218
3 237 218 219
3 236 238 219
3 238 237 219
3 240 220 232
3 239 240 232
3 241 221 220
3 240 241 220
3 242 222 221
3 241 242 221
3 224 227 243
3 224 243 223
3 223 243 225
3 225 243 244
3 225 244 226
3 226 244 235
3 227 245 243
3 228 246 227
3 227 246 245
3 229 247 228
3 228 247 246
3 230 248 229
3 229 248 247
3 239 232 249
3 232 231 249
3 249 231 233
3 250 249 233
3 250 233 234
3 237 250 234
3 244 251 235
3 235 251 236
3 251 252 236
3 236 252 238
3 252 253 238
3 253 250 237
3 253 237 238
3 254 239 249
3 255 240 239
3 254 255 239
3 256 241 240
3 255 256 240
3 257 242 241
3 256 257 241
3 245 258 243
3 243 258 244
3 244 258 251
3 245 259 258
3 246 260 245
3 245 260 259
3 247 261 246
3 246 261 260
3 248 262 247
3 247 262 261
3 254 249 263
3 263 249 250
3 253 263 250
3 258 264 251
3 251 264 252
3 264 265 252
3 265 263 253
3 252 265 253
3 266 254 263
3 267 255 254
3 266 267 254
3 268 256 255
3 267 268 255
3 269 257 256
3 268 269 256
3 259 270 258
3 270 264 258
3 260 271 259
3 259 271 270
3 261 272 260
3 260 272 271
3 262 273 261
3 273 272 261
3 270 274 264
3 275 266 263
3 275 263 265
3 274 276 264
3 276 265 264
3 276 277 265
3 277 275 265
3 278 267 266
3 275 278 266
3 279 268 267
3 278 279 267
3 280 269 268
3 279 280 268
3 271 281 270
3 270 281 274
3 272 282 271
3 271 282 281
3 273 283 272
3 272 283 282
3 281 284 274
3 274 284 276
3 285 278 275
3 277 285 275
3 284 286 276
3 286 285 277
3 276 286 277
3 287 279 278
3 285 287 278
3 288 280 279
3 287 288 279
3 282 289 281
3 281 289 284
3 283 290 282
3 282 290 289
3 289 291 284
3 284 291 286
3 291 292 286
3 292 287 285
3 286 292 285
3 293 288 287
3 292 293 287
3 290 294 289
3 289 294 291
3 294 295 291
3 295 293 292
3 291 295 292
CELL_TYPES 542
5
5
5
5
5
5
5
5
5
5
5
5
5
5
5
5
5
5
5
5
5
5
5
5
5
5
5
5
5
5
5
5
5
5
5
5
5
5
5
5
5
5
5
5
5
5
5
5
5
5
5
5
5
5
5
5
5
5
5
5
5
5
5
5
5
5
5
5
5
5
5
5
5
5
5
5
5
5
5
5
5
5
5
5
5
5
5
5
5
5
5
5
5
5
5
5
5
5
5
5
5
5
5
5
5
5
5
5
5
5
5
5
5
5
5
5
5
5
5
5
5
5
5
5
5
5
5
5
5
5
5
5
5
5
5
5
5
5
5
5
5
5
5
5
5
5
5
5
5
5
5
5
5
5
5
5
5
5
5
5
5
5
5
5
5
5
5
5
5
5
5
5
5
5
5
5
5
5
5
5
5
5
5
5
5
5
5
5
5
5
5
5
5
5
5
5
5
5
5
5
5
5
5
5
5
5
5
5
5
5
5
5
5
5
5
5
5
5
5
5
5
5
5
5
5
5
5
5
5
5
5
5
5
5
5
5
5
5
5
5
5
5
5
5
5
5
5
5
5
5
5
5
5
5
5
5
5
5
5
5
5
5
5
5
5
5
5
5
5
5
5
5
5
5
5
5
5
5
5
5
5
5
5
5
5
5
5
5
5
5
5
5
5
5
5
5
5
5
5
5
5
5
5
5
5
5
5
5
5
5
5
5
5
5
5
5
5
5
5
5
5
5
5
5
5
5
5
5
5
5
5
5
5
5
5
5
5
5
5
5
5
5
5
5
5
5
5
5
5
5
5
5
5
5
5
5
5
5
5
5
5
5
5
5
5
5
5
5
5
5
5
5
5
5
5
5
5
5
5
5
5
5
5
5
5
5
5
5
5
5
5
5
5
5
5
5
5
5
5
5
5
5
5
5
5
5
5
5
5
5
5
5
5
5
5
5
5
5
5
5
5
5
5
5
5
5
5
5
5
5
5
5
5
5
5
5
5
5
5
5
5
5
5
5
5
5
5
5
5
5
5
5
5
5
5
5
5
5
5
5
5
5
5
5
5
5
5
5
5
5
5
5
5
5
5
5
5
5
5
5
5
5
5
5
5
5
5
5
5
5
5
5
5
5
5
5
5
5
5
5
5
5
5
5
5
5
5
5
5
5
5
5
5
5
5
5
5
5
5
5
5
5
5
5
5
5
5
5
5
5
5
5
5
5
5
5
5
5
5
5
5
5
POINT_DATA 296
SCALARS concentrations float 4
LOOKUP_TABLE default
0 0.995522 0.119817 5.4408
0 0.995532 0.119442 6.40245
0 0.99552 0.119591 5.64616
0 0.995518 0.119356 5.65733
0 0.995564 0.0908561 0.0306689
0 0.995547 0.119659 5.34305
0 0.995535 0.119353 5.48196
0 0.99557 0.0910482 0.0340028
0 0.99558 0.0912592 0.0782482
0 0.995527 0.119535 6.01164
0 0.995512 0.118878 4.94284
0 0.995515 0.119093 5.62222
0 0.995512 0.119138 5.63808
0 0.995564 0.0908332 0.035444
0 0.995562 0.0908243 0.0341359
0 0.995658 0.0908513 0.0371474
0 0.995657 0.0908569 0.03643
0 0.995581 0.091129 0.0860283
0 0.995575 0.0909648 0.0593771
0 0.995663 0.0908877 0.0588432
0 0.995663 0.0909375 0.0616201
0 0.995599 0.119754 5.91873
0 0.995707 0.119985 5.95197
0 0.995567 0.0911113 0.047769
0 0.99559 0.0912922 0.108847
0 0.995561 0.0908284 0.0327978
0 0.99553 0.118784 5.6303
0 0.995563 0.0908643 0.042284
0 0.99557 0.119214 5.51418
0 0.995656 0.09085 0.0397437
0 0.995658 0.0908448 0.0411356
0 0.995742 0.0908129 0.0335479
0 0.995622 0.119177 5.3749
0 0.995754 0.0907948 0.029943
0 0.99574 0.0908211 0.0405144
0 0.995665 0.0909198 0.0646962
0 0.995665 0.0909471 0.0426548
0 0.995756 0.0908269 0.0455615
0 0.995742 0.0908625 0.0538472
0 0.995685 0.0912122 0.182204
0 0.995692 0.0911589 0.201791
0 0.995675 0.0909509 0.0465291
0 0.995707 0.0910051 0.0982651
0 0.99556 0.119136 5.46693
0 0.995661 0.090864 0.0521703
0 0.995594 0.0911112 0.128969
0 0.995672 0.0909085 0.0832976
0 0.995535 0.118781 5.62957
0 0.995595 0.091098 0.126156
0 0.995522 0.118817 5.57836
0 0.995757 0.0908033 0.0357433
0 0.995746 0.0908225 0.0442523
0 0.995816 0.0907299 0.0225106
0 0.995622 0.0908969 0.0787857
0 0.995594 0.0908405 0.0481413
0 0.995815 0.0907363 0.0242663
0 0.995759 0.0908508 0.0482961
0 0.99575 0.0908769 0.048297
0 0.995815 0.0907543 0.0335337
0 0.995731 0.0909514 0.119396
0 0.995721 0.0909281 0.119674
0 0.995773 0.0908705 0.0669747
0 0.995775 0.0908916 0.0922521
0 0.995549 0.118775 5.46455
0 0.995766 0.0908102 0.0544763
0 0.995678 0.0908835 0.0848251
0 0.995757 0.0908288 0.0693712
0 0.995571 0.09086 0.0426825
0 0.995675 0.0908952 0.0797169
0 0.995528 0.118801 5.56929
0 0.99557 0.0908248 0.0348224
0 0.995535 0.118838 5.57005
0 0.995863 0.0907058 0.0207297
0 0.995822 0.0907325 0.0304192
0 0.995867 0.0907036 0.0223923
0 0.995696 0.0908699 0.0762005
0 0.995591 0.0908209 0.0399476
0 0.995679 0.0908501 0.0577551
0 0.995863 0.0907129 0.0236063
0 0.995905 0.0906975 0.0206093
0 0.99582 0.0907611 0.0382644
0 0.995863 0.0907188 0.029103
0 0.995788 0.0908326 0.0863023
0 0.995769 0.0908316 0.0818598
0 0.995828 0.0907628 0.0522246
0 0.995551 0.11896 5.54106
0 0.995826 0.0907277 0.0387601
0 0.99577 0.0908111 0.06327
0 0.995667 0.0908618 0.0524734
0 0.995755 0.0908355 0.0604948
0 0.995575 0.0908169 0.0369965
0 0.995666 0.0908491 0.0453927
0 0.995541 0.118829 5.56218
0 0.995579 0.0908146 0.0390574
0 0.995914 0.0906868 0.0185551
0 0.99587 0.0907045 0.0266176
0 0.995911 0.0906907 0.0210358
0 0.995873 0.0907056 0.0266212
0 0.995547 0.119012 5.58561
0 0.995593 0.0908283 0.0417217
0 0.99577 0.0908127 0.0627197
0 0.995675 0.0908361 0.0493203
0 0.99575 0.0908203 0.0526981
0 0.99594 0.090667 0.015931
0 0.99591 0.0906948 0.0230666
0 0.995867 0.090719 0.0352707
0 0.995905 0.0907038 0.0291924
0 0.995828 0.0907491 0.0532555
0 0.99587 0.0907145 0.0382663
0 0.995554 0.118809 5.65878
0 0.995828 0.0907376 0.0356643
0 0.995767 0.0908145 0.0456439
0 0.995666 0.0908432 0.04397
0 0.99575 0.0908269 0.0424102
0 0.995585 0.0908169 0.0406925
0 0.99567 0.0908406 0.0443138
0 0.995589 0.0908223 0.0409477
0 0.995965 0.0906554 0.0143389
0 0.995964 0.0906547 0.0158308
0 0.995944 0.0906621 0.0146623
0 0.99592 0.0906871 0.0209687
0 0.995872 0.0907095 0.0239457
0 0.995915 0.0906974 0.022121
0 0.995972 0.0906488 0.0111304
0 0.995554 0.11894 5.5351
0 0.995596 0.0909538 0.0500715
0 0.995679 0.0908485 0.0527739
0 0.995822 0.0907545 0.0441757
0 0.995759 0.0908152 0.0502369
0 0.995941 0.0906688 0.0203708
0 0.995913 0.0906936 0.0301923
0 0.995872 0.0907109 0.0376174
0 0.995909 0.0906898 0.0310007
0 0.995604 0.0909431 0.0574156
0 0.995556 0.11876 5.19114
0 0.995826 0.0907377 0.0267052
0 0.995765 0.0908073 0.0377662
0 0.995672 0.0908423 0.0443635
0 0.99575 0.0908182 0.0394612
0 0.995596 0.0908491 0.0388898
0 0.995675 0.0908498 0.0438123
0 0.995872 0.0907088 0.0188122
0 0.995969 0.090645 0.0170762
0 0.995981 0.0906345 0.0119028
0 0.995949 0.090664 0.0133358
0 0.995922 0.0906918 0.0173235
0 0.995914 0.0906978 0.0139222
0 0.995972 0.0906473 0.0072528
0 0.995985 0.090632 0.00622538
0 0.995606 0.0910033 0.0548589
0 0.995565 0.119113 5.38418
0 0.995869 0.0907123 0.0345203
0 0.995684 0.0908452 0.0578503
0 0.995756 0.0908252 0.0551147
0 0.995826 0.0907573 0.0418235
0 0.995694 0.0908679 0.0781816
0 0.995943 0.0906642 0.0232232
0 0.995917 0.0906856 0.0292664
0 0.99597 0.0906442 0.0190785
0 0.995901 0.0907113 0.0346874
0 0.995631 0.0908581 0.0713134
0 0.995576 0.118771 5.55999
0 0.995824 0.0907329 0.0215557
0 0.995764 0.0908038 0.0348487
0 0.995677 0.0908854 0.0489246
0 0.99575 0.0908257 0.0382575
0 0.995678 0.0909224 0.0701561
0 0.995868 0.0907052 0.0133222
0 0.995984 0.0906263 0.011627
0 0.99595 0.0906633 0.00761932
0 0.995919 0.0906901 0.00876021
0 0.995975 0.0906461 0.00199415
0 0.995984 0.0906376 0.00748532
0 0.99561 0.0911362 0.112207
0 0.99558 0.118858 5.28973
0 0.995863 0.0907209 0.0363417
0 0.995764 0.0908136 0.0620266
0 0.995817 0.0907673 0.0472521
0 0.995715 0.0908918 0.106493
0 0.995767 0.0908242 0.0765833
0 0.995951 0.0906571 0.0216702
0 0.995935 0.0906754 0.0256065
0 0.995971 0.0906438 0.0177544
0 0.995914 0.0906987 0.031018
0 0.995876 0.0907301 0.0398928
0 0.995717 0.0909275 0.0962605
0 0.99569 0.0910259 0.159353
0 0.995635 0.118357 5.25259
0 0.995821 0.0907299 0.0177937
0 0.995763 0.0908124 0.0377986
0 0.995679 0.0909293 0.0750505
0 0.995751 0.0908434 0.0495027
0 0.995867 0.090702 0.0112577
0 0.995912 0.0906982 0.0078648
0 0.995975 0.0906424 0.0143696
0 0.995949 0.0906672 0.0019573
0 0.995971 0.0906563 0.00372392
0 0.995971 0.0906582 0.0130682
0 0.99597 0.0906613 0.00900494
0 0.995679 0.0909101 0.0669973
0 0.995607 0.0910733 0.106309
0 0.995574 0.118187 6.68803
0 0.995825 0.0907517 0.0483361
0 0.995781 0.0908287 0.0734989
0 0.995766 0.0908649 0.0733465
0 0.995862 0.0907328 0.037792
0 0.995946 0.090661 0.0199156
0 0.99591 0.0907004 0.0292467
0 0.995697 0.0909212 0.0788232
0 0.995657 0.091272 0.196057
0 0.995691 0.118523 6.01201
0 0.995818 0.0907291 0.0179398
0 0.995764 0.0908283 0.0426454
0 0.995752 0.0908501 0.0474492
0 0.995865 0.0907096 0.0117759
0 0.995917 0.0906997 0.00835941
0 0.995952 0.0906709 0.0188111
0 0.995947 0.0906885 0.0187091
0 0.995946 0.0906786 0.0082674
0 0.995947 0.0906854 0.0142909
0 0.995678 0.0908714 0.0517556
0 0.995607 0.0908696 0.0474413
0 0.995575 0.118517 5.07149
0 0.995823 0.0907594 0.044239
0 0.995773 0.0908221 0.0479125
0 0.995871 0.0907173 0.0308812
0 0.995919 0.0906888 0.0227615
0 0.995759 0.0908187 0.0344492
0 0.995682 0.0908746 0.0289058
0 0.995589 0.0910317 0.0477962
0 0.995563 0.117939 5.22506
0 0.995821 0.0907413 0.0190014
0 0.995768 0.0908206 0.0368092
0 0.995867 0.0907157 0.01262
0 0.995911 0.090711 0.0126466
0 0.995916 0.0906979 0.0216679
0 0.995915 0.0907065 0.0206532
0 0.995917 0.0907083 0.0154209
0 0.99591 0.0907144 0.0194591
0 0.995758 0.0908311 0.0351406
0 0.995681 0.0908583 0.0475601
0 0.995605 0.0908292 0.0438778
0 0.995574 0.118222 5.32006
0 0.995825 0.0907367 0.0282603
0 0.995874 0.0907052 0.0238448
0 0.995769 0.0907977 0.0361538
0 0.995681 0.0908512 0.0453501
0 0.995602 0.0908446 0.0440793
0 0.995553 0.119253 5.57017
0 0.995824 0.0907422 0.0178767
0 0.995869 0.0907193 0.0155306
0 0.995874 0.0907037 0.0210335
0 0.995871 0.0907116 0.0202415
0 0.995871 0.0907173 0.0182846
0 0.995773 0.0908122 0.0290247
0 0.995684 0.090859 0.0345883
0 0.995607 0.0908304 0.0458231
0 0.995571 0.118582 5.46501
0 0.995827 0.0907332 0.0262712
0 0.995755 0.0908107 0.0407402
0 0.995679 0.0908341 0.0461917
0 0.995599 0.0908152 0.0454542
0 0.995565 0.118718 5.50507
0 0.995829 0.0907453 0.0196806
0 0.995829 0.0907322 0.0250176
0 0.995832 0.0907383 0.0233399
0 0.995769 0.0908304 0.0320001
0 0.995698 0.0908526 0.0338111
0 0.99561 0.0909123 0.0251424
0 0.995571 0.11884 5.47571
0 0.995771 0.090797 0.0379367
0 0.99568 0.0908286 0.0451796
0 0.995597 0.0908075 0.0426718
0 0.995561 0.118495 5.47567
0 0.995762 0.0908137 0.0408846
0 0.995788 0.0908141 0.0330689
0 0.995782 0.0908015 0.0373915
0 0.99578 0.0908212 0.0395603
0 0.995725 0.0908668 0.0366354
0 0.995649 0.0909268 0.0331346
0 0.995587 0.118452 5.5982
0 0.995683 0.090833 0.0454623
0 0.995598 0.0908057 0.0407152
0 0.995558 0.118674 5.51863
0 0.995698 0.0908354 0.0452846
0 0.995744 0.0908481 0.0437959
0 0.995725 0.0908384 0.0448293
0 0.99574 0.0908228 0.0401424
0 0.995684 0.117948 5.34208
0 0.995611 0.0908063 0.0401075
0 0.995564 0.118656 5.52401
0 0.995649 0.0908059 0.0395928
0 0.995736 0.0908084 0.0383487
0 0.995782 0.118035 4.34527
0 0.995591 0.118709 5.53865
0 0.995676 0.118518 5.50774
VECTORS fa_u float
0.00502283 0.00209129 0
0.00554352 0.00320325 0
0.00545493 0.00145699 0
0.00560821 0.000743945 0
2.93268e-05 8.97333e-06 0
0.00424216 0.00324842 0
0.00385254 0.00389998 0
1.63076e-05 2.98371e-05 0
4.01211e-05 6.71794e-05 0
0.00366448 0.00476565 0
0.00250828 0.00425913 0
0.00562219 1.79633e-05 0
0.00559393 -0.000704201 0
3.52039e-05 4.11792e-06 0
3.40911e-05 -1.74858e-06 0
3.57692e-05 1.00247e-05 0
2.98496e-05 2.08841e-05 0
7.37172e-05 4.43468e-05 0
4.25496e-05 4.14147e-05 0
3.8817e-05 4.4224e-05 0
4.07296e-05 4.62399e-05 0
0.00226379 0.0054687 0
0.00156811 0.00574168 0
3.49503e-05 -3.25631e-05 0
-0.000107109 1.93745e-05 0
3.0585e-05 -1.1843e-05 0
0.0054433 -0.00143899 0
2.67515e-05 -3.27459e-05 0
0.00509474 -0.00210946 0
3.97353e-05 -8.1773e-07 0
3.99456e-05 -9.82249e-06 0
3.33944e-05 3.20508e-06 0
0.000707223 0.00532817 0
2.69223e-05 1.31063e-05 0
2.97827e-05 2.74665e-05 0
4.6243e-05 4.52458e-05 0
2.79581e-05 3.22144e-05 0
2.95938e-05 3.46419e-05 0
3.36182e-05 4.20635e-05 0
-7.05408e-05 0.000167995 0
0.000119223 0.000162805 0
-5.97059e-06 4.61445e-05 0
-2.08576e-05 9.6026e-05 0
-3.86364e-05 0.00546679 0
4.57368e-05 -2.50976e-05 0
8.34156e-05 -9.83606e-05 0
7.01335e-05 -4.4942e-05 0
0.00486835 -0.00282687 0
0.000125306 1.46199e-05 0
0.00440838 -0.00341822 0
3.53586e-05 -5.22988e-06 0
4.20338e-05 -1.38355e-05 0
2.23459e-05 2.71753e-06 0
5.42483e-05 5.71342e-05 0
2.20278e-05 4.2806e-05 0
1.81681e-05 1.60864e-05 0
2.66369e-05 4.02863e-05 0
1.53414e-05 4.57956e-05 0
1.7643e-05 2.85173e-05 0
1.61307e-05 0.000118302 0
4.8417e-05 0.000109442 0
5.94655e-06 6.67102e-05 0
9.2564e-06 9.17866e-05 0
-0.000742814 0.00541382 0
4.97649e-05 -2.21612e-05 0
7.90947e-05 -3.06484e-05 0
6.36976e-05 -2.7477e-05 0
4.23388e-05 5.40597e-06 0
7.84891e-05 -1.39371e-05 0
0.00392576 -0.00395037 0
3.25152e-05 -1.24644e-05 0
0.00338253 -0.00442537 0
1.87037e-05 8.93842e-06 0
2.94662e-05 -7.55432e-06 0
2.23865e-05 5.1006e-07 0
2.87572e-05 7.05659e-05 0
1.76146e-06 3.99087e-05 0
1.05072e-05 5.67913e-05 0
1.49511e-05 1.82681e-05 0
1.59681e-05 1.30292e-05 0
1.26682e-05 3.61065e-05 0
1.21349e-05 2.64524e-05 0
1.87308e-05 8.42452e-05 0
2.38561e-05 7.83066e-05 0
9.2444e-06 5.13999e-05 0
-0.0014524 0.00534733 0
3.67063e-05 -1.24494e-05 0
5.97937e-05 -2.06834e-05 0
5.07439e-05 -1.3361e-05 0
5.83248e-05 -1.60572e-05 0
2.92649e-05 -2.26341e-05 0
4.02166e-05 -2.10505e-05 0
0.00277523 -0.00482037 0
2.62168e-05 -2.8951e-05 0
1.73648e-05 6.53868e-06 0
2.60587e-05 -5.42586e-06 0
2.10351e-05 1.62052e-07 0
2.57422e-05 -6.78447e-06 0
0.00213584 -0.00516113 0
-1.59507e-05 3.85522e-05 0
1.22837e-05 6.15051e-05 0
-8.58597e-06 4.85672e-05 0
-1.56222e-06 5.26749e-05 0
1.14154e-05 1.11124e-05 0
1.21249e-05 1.96229e-05 0
9.40047e-06 3.39949e-05 0
1.05205e-05 2.72308e-05 0
1.00605e-05 5.22966e-05 0
7.29671e-06 3.75642e-05 0
-0.00215729 0.00523143 0
3.41907e-05 -1.01458e-05 0
4.26826e-05 -1.61728e-05 0
3.34638e-05 -2.85224e-05 0
3.57185e-05 -2.28652e-05 0
2.18602e-05 -3.43222e-05 0
2.84984e-05 -3.39347e-05 0
1.62174e-05 -3.75993e-05 0
1.13913e-05 8.70879e-06 0
8.45476e-06 1.33839e-05 0
1.40431e-05 4.21575e-06 0
2.08385e-05 -2.33291e-06 0
2.28604e-05 -7.12742e-06 0
2.14416e-05 -5.44001e-06 0
9.9469e-06 4.99452e-06 0
0.00144042 -0.00534439 0
-2.75577e-05 4.18058e-05 0
-2.35796e-05 4.72133e-05 0
-6.61214e-07 4.41708e-05 0
-1.52156e-05 4.78772e-05 0
7.04973e-06 1.91121e-05 0
6.29344e-06 2.95291e-05 0
2.58783e-06 3.75283e-05 0
3.2994e-06 3.08246e-05 0
-4.61125e-05 3.42081e-05 0
-0.0025784 0.00450553 0
2.43441e-05 -1.09788e-05 0
2.83039e-05 -2.50034e-05 0
2.1742e-05 -3.86705e-05 0
2.42968e-05 -3.10942e-05 0
6.44112e-06 -3.83527e-05 0
1.34028e-05 -4.17119e-05 0
1.71126e-05 -7.81402e-06 0
3.53679e-06 1.67059e-05 0
5.57749e-06 1.05152e-05 0
1.33358e-05 3.57341e-08 0
1.65189e-05 -5.21815e-06 0
1.19642e-05 -7.11937e-06 0
7.08463e-06 1.55277e-06 0
2.3357e-06 5.7706e-06 0
-2.2235e-05 -5.01509e-05 0
0.000709132 -0.00533727 0
-5.89003e-06 3.40141e-05 0
-3.82071e-05 4.34382e-05 0
-2.69567e-05 4.80725e-05 0
-1.31602e-05 3.96991e-05 0
-5.97195e-05 5.04574e-05 0
1.80876e-06 2.31527e-05 0
-2.15791e-06 2.91867e-05 0
-7.30264e-07 1.90645e-05 0
-9.99882e-06 3.32151e-05 0
-6.65679e-05 2.55796e-05 0
-0.00337563 0.00441798 0
1.63626e-05 -1.40326e-05 0
1.74682e-05 -3.01545e-05 0
-5.55039e-07 -4.89215e-05 0
1.01828e-05 -3.68774e-05 0
-1.31722e-05 -6.89084e-05 0
9.81098e-06 -9.01257e-06 0
-1.65273e-06 1.15089e-05 0
7.40142e-06 -1.80915e-06 0
5.82104e-06 -6.54651e-06 0
1.49499e-06 1.31972e-06 0
-3.8666e-06 6.40932e-06 0
-4.7073e-05 -0.000101856 0
-1.78557e-05 -0.0052897 0
-1.70406e-05 3.20989e-05 0
-4.05407e-05 4.69441e-05 0
-2.67055e-05 3.89818e-05 0
-8.53382e-05 6.37043e-05 0
-5.50997e-05 5.31886e-05 0
-3.53236e-06 2.13804e-05 0
-7.96885e-06 2.43349e-05 0
-6.47593e-06 1.65313e-05 0
-1.53742e-05 2.69398e-05 0
-2.27612e-05 3.27622e-05 0
-5.019e-05 8.21404e-05 0
-0.000148437 5.79632e-05 0
-0.00372867 0.00369955 0
7.8932e-06 -1.59472e-05 0
2.16143e-06 -3.77368e-05 0
-9.8135e-06 -7.44061e-05 0
-5.60519e-06 -4.91843e-05 0
2.60912e-06 -1.09512e-05 0
-7.49432e-07 -7.82901e-06 0
-8.48686e-06 1.15957e-05 0
-3.72101e-07 -1.92161e-06 0
-3.53565e-06 1.16906e-06 0
-1.04508e-05 7.84596e-06 0
-8.27551e-06 3.55035e-06 0
-6.34848e-06 -6.66959e-05 0
2.68827e-05 -0.000102854 0
-0.000872734 -0.00663084 0
-3.05457e-05 3.74612e-05 0
-4.72593e-05 5.62908e-05 0
-4.06695e-05 6.10385e-05 0
-2.35546e-05 2.95536e-05 0
-1.1434e-05 1.63062e-05 0
-1.9081e-05 2.2165e-05 0
-2.90725e-05 7.32659e-05 0
3.5584e-05 0.000192801 0
-0.00477349 0.00365486 0
-1.57621e-06 -1.78704e-05 0
-8.32312e-06 -4.18253e-05 0
-1.41142e-05 -4.53014e-05 0
-4.58792e-06 -1.08454e-05 0
-6.24582e-06 -5.55603e-06 0
-1.41569e-05 1.23871e-05 0
-1.68948e-05 8.03705e-06 0
-8.24638e-06 -5.89162e-07 0
-1.39828e-05 2.95128e-06 0
-1.51573e-05 -4.94864e-05 0
-3.46269e-06 -4.73148e-05 0
-0.0013066 -0.00490028 0
-2.70514e-05 3.50044e-05 0
-2.83644e-05 3.86143e-05 0
-2.22918e-05 2.13711e-05 0
-1.76072e-05 1.44247e-05 0
-2.94945e-05 1.77995e-05 0
-2.1558e-05 1.92561e-05 0
2.44091e-05 -4.10935e-05 0
-0.00452294 0.00261616 0
-8.84352e-06 -1.6818e-05 0
-1.64972e-05 -3.29053e-05 0
-9.6476e-06 -8.13558e-06 0
-1.17455e-05 -4.68805e-06 0
-1.91852e-05 1.00711e-05 0
-1.9889e-05 5.56625e-06 0
-1.53647e-05 -1.31516e-06 0
-1.93913e-05 1.62253e-06 0
-1.99026e-05 -2.89612e-05 0
-2.00242e-05 -4.31392e-05 0
-1.63617e-05 -4.07131e-05 0
-0.00204072 -0.00491309 0
-2.17057e-05 1.80971e-05 0
-1.99812e-05 1.30125e-05 0
-3.43992e-05 1.11262e-05 0
-4.32264e-05 1.37151e-05 0
-4.3166e-05 8.92659e-06 0
-0.00515355 0.00211369 0
-1.37846e-05 -1.13825e-05 0
-1.4885e-05 -4.43121e-06 0
-1.98615e-05 6.92331e-06 0
-2.00277e-05 2.93395e-06 0
-1.82765e-05 -5.43222e-07 0
-2.28128e-05 -1.79446e-05 0
-1.82947e-05 -2.9354e-05 0
-2.11818e-05 -4.06336e-05 0
-0.00273658 -0.00473048 0
-2.47309e-05 8.86341e-06 0
-4.00871e-05 7.26582e-06 0
-4.50622e-05 1.01527e-05 0
-4.35502e-05 1.30178e-05 0
-0.00531289 0.00144186 0
-1.89917e-05 -5.16141e-06 0
-2.48678e-05 2.73384e-06 0
-2.33042e-05 -1.28986e-06 0
-2.87881e-05 -1.39731e-05 0
-2.75462e-05 -1.96061e-05 0