# vtk DataFile Version 2.0
CellBP Time: 2.4
ASCII
DATASET UNSTRUCTURED_GRID
POINTS 296 double
-9.0686 -3.72702 0
-8.4982 -4.8854 0
-9.48454 -2.50473 0
-9.73633 -1.2384 0
-8.3567 -2.81838 0
-7.78121 -5.95911 0
-6.93009 -6.93004 0
-7.91641 -3.87432 0
-7.34193 -4.86735 0
-5.95914 -7.78123 0
-4.88531 -8.49827 0
-9.82163 0.0500427 0
-9.7369 1.33842 0
-8.65677 -1.68377 0
-8.78542 -0.52955 0
-7.58877 -2.00386 0
-7.22487 -2.90611 0
-6.63701 -5.77834 0
-5.82187 -6.59629 0
-6.78948 -3.88843 0
-6.21987 -4.67535 0
-3.72757 -9.06966 0
-2.50496 -9.48516 0
-4.906 -7.30815 0
-3.91263 -7.88552 0
-8.7919 0.643338 0
-9.48533 2.60499 0
-8.62243 1.77392 0
-9.07003 3.82763 0
-7.74335 -0.928882 0
-7.79361 0.0802681 0
-6.95177 -1.31573 0
-1.23834 -9.73643 0
-6.44078 -2.15287 0
-6.31865 -3.05577 0
-5.53591 -5.47393 0
-4.79536 -6.11478 0
-5.65842 -3.75658 0
-5.26879 -4.56105 0
-2.86588 -8.36316 0
-1.77838 -8.63941 0
-3.9277 -6.7228 0
-3.05625 -7.15181 0
0.0500208 -9.8214 0
-7.7046 1.1434 0
-8.33781 2.91518 0
-7.55101 2.11175 0
-8.49909 4.98584 0
-7.87937 3.97792 0
-7.78376 6.06108 0
-6.77796 -0.396827 0
-6.95575 0.552517 0
-5.77096 -1.00332 0
-0.59077 -8.8089 0
0.565647 -8.77011 0
-5.30271 -2.48008 0
-4.49148 -5.09518 0
-3.90206 -5.77467 0
-4.43855 -3.80445 0
-2.06217 -7.56114 0
-1.13535 -7.78501 0
-2.9942 -6.10141 0
-2.30874 -6.61906 0
1.33856 -9.73742 0
-6.68878 1.42194 0
-7.17141 3.1178 0
-6.65855 2.37277 0
-7.29418 4.98834 0
-6.7174 4.0027 0
-6.93056 7.03053 0
-6.57206 5.89376 0
-5.96095 7.88361 0
-4.45273 -1.18095 0
-5.81418 0.513726 0
-4.65577 -0.0103516 0
0.00849794 -7.8473 0
1.73847 -8.64315 0
0.948867 -7.76266 0
-4.03818 -2.40618 0
-3.4852 -1.39103 0
-3.29423 -4.80497 0
-3.26558 -3.26749 0
-1.37843 -6.67484 0
-0.508704 -7.02428 0
-1.97538 -5.53662 0
2.60502 -9.48547 0
-5.50697 2.0368 0
-6.09417 3.07194 0
-6.10454 4.86923 0
-5.76119 3.99115 0
-5.76098 6.71681 0
-5.45168 5.61894 0
-4.886 8.59941 0
-4.83824 7.40422 0
-3.50115 -0.424224 0
-4.44894 1.24897 0
-3.71111 0.592063 0
-4.06186 2.31967 0
-3.72869 9.17259 0
2.86245 -8.33235 0
0.419655 -6.79483 0
2.02186 -7.52526 0
1.30595 -6.90497 0
-2.44441 -0.873691 0
-2.8381 -2.1309 0
-2.29421 -4.09705 0
-2.32541 -2.97329 0
-0.442321 -5.86078 0
-1.22261 -4.49879 0
3.82789 -9.07057 0
-4.78953 3.39163 0
-5.08755 4.59383 0
-4.64684 6.28103 0
-4.53851 5.35933 0
-3.84357 7.99309 0
-3.82648 6.84531 0
-2.78324 8.42255 0
-1.64879 -0.137836 0
-1.45005 -0.890434 0
-2.48885 0.507264 0
-3.2533 1.44406 0
-3.23879 3.31637 0
-2.91068 2.37159 0
-1.35489 0.627071 0
-2.50517 9.58579 0
3.93255 -7.88663 0
2.96439 -7.15731 0
0.954048 -5.82164 0
2.07417 -6.41503 0
-1.6828 -1.99184 0
-1.4343 -3.27746 0
0.0902407 -4.74667 0
-0.566121 -3.69411 0
4.93197 -7.31852 0
4.98635 -8.50002 0
-3.77679 4.55144 0
-3.73452 5.7518 0
-2.88781 7.28948 0
-3.0095 6.35335 0
-1.66253 8.73339 0
-1.94001 7.61897 0
-2.33823 4.05146 0
-0.730627 -1.32705 0
-0.836762 -0.25755 0
-1.93599 1.68066 0
-2.12555 2.87562 0
-1.30643 3.54441 0
-0.869323 1.3507 0
-0.282306 0.456001 0
-0.533508 8.87146 0
-1.23828 9.83616 0
1.11272 -4.57431 0
3.90997 -6.71698 0
2.98775 -6.09433 0
2.11777 -5.42464 0
4.78423 -6.20505 0
-0.5588 -2.47654 0
0.49509 -3.46353 0
0.0535577 -1.61026 0
1.48178 -3.6818 0
5.86705 -6.61454 0
6.05973 -7.78205 0
-2.47561 5.34832 0
-2.13035 6.53417 0
-0.904038 7.80297 0
-1.27228 6.93173 0
0.0862024 7.88006 0
-1.14438 4.49448 0
0.150305 -0.617571 0
-0.797317 2.48832 0
-0.331577 3.60045 0
0.0631391 1.51257 0
0.741375 0.473375 0
0.646759 8.87416 0
0.0500353 9.92424 0
2.38088 -4.28503 0
3.85905 -5.64018 0
3.00131 -5.21255 0
5.57358 -5.49166 0
4.6909 -5.28289 0
0.629624 -2.29313 0
1.25607 -2.951 0
0.757379 -1.39129 0
2.16417 -3.1356 0
2.99358 -3.47636 0
6.15507 -4.79167 0
6.65563 -5.76932 0
7.03104 -6.93102 0
-1.01962 5.82027 0
-0.372596 6.88342 0
1.12259 7.7694 0
0.557955 7.07963 0
-0.000750964 4.725 0
0.606985 3.82756 0
1.33878 -0.641828 0
0.539092 2.65085 0
0.966029 1.57477 0
1.91003 0.213838 0
1.61463 1.06491 0
2.12937 7.58353 0
1.79924 8.71256 0
1.33847 9.83712 0
3.82275 -4.35153 0
5.11652 -4.44895 0
5.84569 -3.93505 0
3.78387 -3.20095 0
1.81213 -1.88252 0
3.01899 -2.5738 0
6.78343 -3.94786 0
7.38171 -4.89689 0
7.88257 -5.96016 0
0.483349 5.8816 0
1.42817 6.74193 0
2.37432 6.66908 0
1.20996 4.55609 0
1.48812 3.39746 0
2.43562 -0.691962 0
2.82783 0.14258 0
1.7888 2.1627 0
2.61173 1.15005 0
3.07207 7.17024 0
2.90435 8.37726 0
2.60544 9.58671 0
4.91135 -3.3279 0
6.12083 -3.10872 0
4.17283 -2.27525 0
3.24431 -1.50289 0
6.73158 -2.3131 0
7.23231 -3.0426 0
7.96539 -3.91246 0
8.59801 -4.88523 0
2.02368 5.60003 0
3.08662 6.15382 0
2.36394 4.12694 0
2.42002 3.06077 0
3.52556 -0.460865 0
3.61559 0.613257 0
2.96175 2.288 0
3.5455 1.52522 0
4.01245 5.89853 0
3.98483 6.79374 0
3.97378 7.93963 0
3.8284 9.17179 0
5.56917 -1.91624 0
4.50933 -1.12964 0
6.71449 -1.33622 0
7.5932 -2.0366 0
8.39817 -2.86167 0
9.17133 -3.7281 0
3.4194 4.87743 0
3.33912 3.3855 0
4.69148 0.130069 0
4.51938 1.31001 0
4.06551 2.44391 0
4.57117 5.15317 0
4.8444 6.19171 0
4.98128 7.3817 0
4.9864 8.60033 0
5.88412 -0.43493 0
7.01184 -0.488302 0
7.76072 -1.08543 0
8.68632 -1.74621 0
9.58548 -2.505 0
4.55305 3.8281 0
5.81859 1.09874 0
5.37205 2.53531 0
5.38112 4.62149 0
5.61332 5.52467 0
5.89849 6.67336 0
6.05934 7.8814 0
6.84742 0.463636 0
7.85497 -0.0256479 0
8.86235 -0.584433 0
9.83839 -1.23866 0
6.962 1.34974 0
5.72235 3.77929 0
6.54294 2.19798 0
6.38171 3.0887 0
6.294 4.68815 0
6.69482 5.83938 0
7.03199 7.03172 0
7.78624 0.967846 0
8.8617 0.572899 0
9.92222 0.0499864 0
7.61818 2.00479 0
6.83102 3.9053 0
7.2715 2.94758 0
7.38039 4.88715 0
7.88347 6.06088 0
8.72531 1.72738 0
9.83796 1.3386 0
8.42328 2.83854 0
7.98384 3.91739 0
8.6008 4.98692 0
9.58621 2.60518 0
9.17054 3.82784 0
CELLS 542 2168
3 2 0 4
3 0 1 7
3 4 0 7
3 1 5 8
3 7 1 8
3 3 2 13
3 13 2 4
3 11 3 14
3 14 3 13
3 13 4 15
3 4 7 16
3 15 4 16
3 5 6 17
3 8 5 17
3 6 9 18
3 17 6 18
3 7 8 19
3 16 7 19
3 8 17 20
3 19 8 20
3 9 10 23
3 18 9 23
3 10 21 24
3 23 10 24
3 12 11 25
3 25 11 14
3 26 12 27
3 27 12 25
3 14 13 29
3 29 13 15
3 25 14 30
3 30 14 29
3 29 15 31
3 15 16 33
3 31 15 33
3 16 19 34
3 33 16 34
3 17 18 35
3 20 17 35
3 18 23 36
3 35 18 36
3 19 20 37
3 34 19 37
3 20 35 38
3 37 20 38
3 21 22 39
3 24 21 39
3 22 32 40
3 39 22 40
3 23 24 41
3 36 23 41
3 24 39 42
3 41 24 42
3 27 25 44
3 44 25 30
3 28 26 45
3 45 26 27
3 45 27 46
3 46 27 44
3 47 28 48
3 48 28 45
3 30 29 50
3 50 29 31
3 44 30 51
3 51 30 50
3 50 31 52
3 31 33 52
3 32 43 53
3 40 32 53
3 53 43 54
3 33 34 55
3 34 37 55
3 33 55 52
3 35 36 56
3 38 35 56
3 36 41 57
3 56 36 57
3 37 38 58
3 38 56 58
3 37 58 55
3 39 40 59
3 42 39 59
3 40 53 60
3 59 40 60
3 41 42 61
3 57 41 61
3 42 59 62
3 61 42 62
3 43 63 54
3 46 44 64
3 64 44 51
3 48 45 65
3 65 45 46
3 65 46 66
3 66 46 64
3 49 47 67
3 67 47 48
3 67 48 68
3 68 48 65
3 69 49 70
3 70 49 67
3 52 55 72
3 64 51 73
3 51 50 73
3 50 52 73
3 73 52 74
3 74 52 72
3 53 54 75
3 60 53 75
3 54 63 76
3 54 76 77
3 75 54 77
3 55 58 78
3 72 55 78
3 72 78 79
3 56 57 80
3 57 61 80
3 56 80 58
3 58 80 81
3 78 58 81
3 59 60 82
3 62 59 82
3 60 75 83
3 82 60 83
3 61 62 84
3 62 82 84
3 61 84 80
3 63 85 76
3 66 64 86
3 64 73 86
3 68 65 87
3 87 65 66
3 87 66 86
3 70 67 88
3 88 67 68
3 88 68 89
3 89 68 87
3 71 69 90
3 90 69 70
3 90 70 91
3 91 70 88
3 92 71 93
3 93 71 90
3 74 72 94
3 94 72 79
3 86 73 95
3 95 73 74
3 95 74 96
3 96 74 94
3 97 86 95
3 76 85 99
3 75 77 100
3 83 75 100
3 76 99 101
3 77 76 101
3 77 101 102
3 100 77 102
3 94 79 103
3 78 81 104
3 79 78 104
3 79 104 103
3 80 84 105
3 81 80 105
3 81 105 106
3 104 81 106
3 82 83 107
3 83 100 107
3 82 107 84
3 84 107 108
3 105 84 108
3 85 109 99
3 89 87 110
3 87 86 110
3 110 86 97
3 91 88 111
3 111 88 89
3 111 89 110
3 93 90 112
3 112 90 91
3 112 91 113
3 113 91 111
3 98 92 114
3 114 92 93
3 114 93 115
3 115 93 112
3 116 98 114
3 117 103 118
3 96 94 119
3 94 103 119
3 119 103 117
3 97 95 120
3 120 95 96
3 120 96 119
3 121 110 97
3 121 97 122
3 122 97 120
3 123 119 117
3 124 98 116
3 99 109 125
3 99 125 126
3 101 99 126
3 100 102 127
3 100 127 107
3 101 126 128
3 102 101 128
3 102 128 127
3 104 106 129
3 104 129 103
3 103 129 118
3 105 108 130
3 106 105 130
3 106 130 129
3 107 127 131
3 108 107 131
3 108 131 132
3 108 132 130
3 109 134 125
3 125 134 133
3 113 111 135
3 111 110 135
3 135 110 121
3 115 112 136
3 136 112 113
3 136 113 135
3 116 114 137
3 137 114 115
3 137 115 138
3 138 115 136
3 139 124 116
3 139 116 140
3 140 116 137
3 141 135 121
3 118 129 142
3 118 142 143
3 117 118 143
3 123 117 143
3 122 120 144
3 120 119 144
3 144 119 123
3 141 121 145
3 145 121 122
3 145 122 144
3 146 141 145
3 147 144 123
3 147 123 148
3 143 148 123
3 150 124 139
3 149 150 139
3 131 127 151
3 125 133 152
3 126 125 152
3 126 152 153
3 128 126 153
3 128 153 154
3 128 154 127
3 127 154 151
3 152 133 155
3 130 132 156
3 130 156 129
3 129 156 142
3 131 151 157
3 132 131 157
3 132 157 156
3 156 158 142
3 157 151 159
3 133 160 155
3 134 161 133
3 133 161 160
3 138 136 162
3 136 135 162
3 162 135 141
3 140 137 163
3 163 137 138
3 163 138 162
3 149 139 164
3 164 139 140
3 164 140 165
3 165 140 163
3 166 149 164
3 167 162 141
3 167 141 146
3 142 158 168
3 143 142 168
3 143 168 148
3 146 145 169
3 145 144 169
3 169 144 147
3 170 167 146
3 170 146 169
3 171 169 147
3 171 147 148
3 171 148 172
3 168 172 148
3 173 149 166
3 174 150 149
3 173 174 149
3 154 175 151
3 151 175 159
3 152 155 176
3 153 152 176
3 153 176 177
3 153 177 154
3 154 177 175
3 155 160 178
3 155 178 179
3 176 155 179
3 156 157 180
3 156 180 158
3 157 159 181
3 157 181 180
3 158 180 182
3 158 182 168
3 159 175 183
3 159 183 181
3 175 184 183
3 160 186 178
3 178 186 185
3 161 187 160
3 160 187 186
3 165 163 188
3 163 162 188
3 188 162 167
3 166 164 189
3 189 164 165
3 189 165 188
3 190 173 166
3 190 166 191
3 191 166 189
3 192 188 167
3 192 167 170
3 193 192 170
3 182 194 168
3 194 172 168
3 193 170 195
3 170 169 195
3 195 169 171
3 196 195 171
3 196 171 172
3 194 197 172
3 197 198 172
3 198 196 172
3 200 173 190
3 199 200 190
3 201 174 173
3 200 201 173
3 176 179 202
3 177 176 202
3 177 202 175
3 175 202 184
3 178 185 203
3 178 203 179
3 179 203 202
3 203 185 204
3 202 205 184
3 183 206 181
3 180 181 206
3 180 206 182
3 182 206 194
3 183 184 207
3 205 207 184
3 183 207 206
3 185 208 204
3 186 209 185
3 185 209 208
3 187 210 186
3 186 210 209
3 191 189 211
3 189 188 211
3 211 188 192
3 199 190 212
3 212 190 191
3 212 191 211
3 213 199 212
3 214 211 192
3 214 192 193
3 215 214 193
3 215 193 195
3 206 216 194
3 216 197 194
3 216 217 197
3 215 195 218
3 218 195 196
3 198 218 196
3 217 219 197
3 219 218 198
3 197 219 198
3 220 199 213
3 221 200 199
3 220 221 199
3 222 201 200
3 221 222 200
3 203 204 223
3 203 223 202
3 202 223 205
3 204 208 224
3 204 224 223
3 205 223 225
3 205 225 207
3 207 225 226
3 207 226 206
3 226 216 206
3 208 228 224
3 224 228 227
3 209 229 208
3 229 228 208
3 210 230 209
3 209 230 229
3 213 212 231
3 212 211 231
3 231 211 214
3 232 220 213
3 232 213 231
3 233 231 214
3 233 214 215
3 234 233 215
3 234 215 218
3 226 235 216
3 235 217 216
3 235 236 217
3 217 236 219
3 237 234 218
3 237 218 219
3 236 238 219
3 238 237 219
3 240 220 232
3 239 240 232
3 241 221 220
3 240 241 220
3 242 222 221
3 241 242 221
3 224 227 243
3 224 243 223
3 223 243 225
3 225 243 244
3 225 244 226
3 226 244 235
3 227 245 243
3 228 246 227
3 227 246 245
3 229 247 228
3 228 247 246
3 230 248 229
3 229 248 247
3 239 232 249
3 232 231 249
3 249 231 233
3 250 249 233
3 250 233 234
3 237 250 234
3 244 251 235
3 235 251 236
3 251 252 236
3 236 252 238
3 252 253 238
3 253 250 237
3 253 237 238
3 254 239 249
3 255 240 239
3 254 255 239
3 256 241 240
3 255 256 240
3 257 242 241
3 256 257 241
3 245 258 243
3 243 258 244
3 244 258 251
3 245 259 258
3 246 260 245
3 245 260 259
3 247 261 246
3 246 261 260
3 248 262 247
3 247 262 261
3 254 249 263
3 263 249 250
3 253 263 250
3 258 264 251
3 251 264 252
3 264 265 252
3 265 263 253
3 252 265 253
3 266 254 263
3 267 255 254
3 266 267 254
3 268 256 255
3 267 268 255
3 269 257 256
3 268 269 256
3 259 270 258
3 270 264 258
3 260 271 259
3 259 271 270
3 261 272 260
3 260 272 271
3 262 273 261
3 273 272 261
3 270 274 264
3 275 266 263
3 275 263 265
3 274 276 264
3 276 265 264
3 276 277 265
3 277 275 265
3 278 267 266
3 275 278 266
3 279 268 267
3 278 279 267
3 280 269 268
3 279 280 268
3 271 281 270
3 270 281 274
3 272 282 271
3 271 282 281
3 273 283 272
3 272 283 282
3 281 284 274
3 274 284 276
3 285 278 275
3 277 285 275
3 284 286 276
3 286 285 277
3 276 286 277
3 287 279 278
3 285 287 278
3 288 280 279
3 287 288 279
3 282 289 281
3 281 289 284
3 283 290 282
3 282 290 289
3 289 291 284
3 284 291 286
3 291 292 286
3 292 287 285
3 286 292 285
3 293 288 287
3 292 293 287
3 290 294 289
3 289 294 291
3 294 295 291
3 295 293 292
3 291 295 292
CELL_TYPES 542
5
5
5
5
5
5
5
5
5
5
5
5
5
5
5
5
5
5
5
5
5
5
5
5
5
5
5
5
5
5
5
5
5
5
5
5
5
5
5
5
5
5
5
5
5
5
5
5
5
5
5
5
5
5
5
5
5
5
5
5
5
5
5
5
5
5
5
5
5
5
5
5
5
5
5
5
5
5
5
5
5
5
5
5
5
5
5
5
5
5
5
5
5
5
5
5
5
5
5
5
5
5
5
5
5
5
5
5
5
5
5
5
5
5
5
5
5
5
5
5
5
5
5
5
5
5
5
5
5
5
5
5
5
5
5
5
5
5
5
5
5
5
5
5
5
5
5
5
5
5
5
5
5
5
5
5
5
5
5
5
5
5
5
5
5
5
5
5
5
5
5
5
5
5
5
5
5
5
5
5
5
5
5
5
5
5
5
5
5
5
5
5
5
5
5
5
5
5
5
5
5
5
5
5
5
5
5
5
5
5
5
5
5
5
5
5
5
5
5
5
5
5
5
5
5
5
5
5
5
5
5
5
5
5
5
5
5
5
5
5
5
5
5
5
5
5
5
5
5
5
5
5
5
5
5
5
5
5
5
5
5
5
5
5
5
5
5
5
5
5
5
5
5
5
5
5
5
5
5
5
5
5
5
5
5
5
5
5
5
5
5
5
5
5
5
5
5
5
5
5
5
5
5
5
5
5
5
5
5
5
5
5
5
5
5
5
5
5
5
5
5
5
5
5
5
5
5
5
5
5
5
5
5
5
5
5
5
5
5
5
5
5
5
5
5
5
5
5
5
5
5
5
5
5
5
5
5
5
5
5
5
5
5
5
5
5
5
5
5
5
5
5
5
5
5
5
5
5
5
5
5
5
5
5
5
5
5
5
5
5
5
5
5
5
5
5
5
5
5
5
5
5
5
5
5
5
5
5
5
5
5
5
5
5
5
5
5
5
5
5
5
5
5
5
5
5
5
5
5
5
5
5
5
5
5
5
5
5
5
5
5
5
5
5
5
5
5
5
5
5
5
5
5
5
5
5
5
5
5
5
5
5
5
5
5
5
5
5
5
5
5
5
5
5
5
5
5
5
5
5
5
5
5
5
5
5
5
5
5
5
5
5
5
5
5
5
5
5
5
5
5
5
5
5
5
5
5
5
5
5
5
5
5
5
5
5
5
5
5
5
5
5
5
5
5
5
5
5
5
5
5
5
5
5
5
5
5
5
5
5
5
5
POINT_DATA 296
SCALARS concentrations float 4
LOOKUP_TABLE default
0 0.974323 0.190008 12.7063
0 0.97429 0.189427 12.207
0 0.974292 0.188774 12.1559
0 0.974333 0.188376 12.5363
0 0.974356 0.0911847 0.0546137
0 0.974295 0.189121 12.5268
0 0.974307 0.188541 12.5363
0 0.974359 0.0911876 0.0579915
0 0.97434 0.0911776 0.0487721
0 0.974344 0.18863 11.9795
0 0.974374 0.188786 12.6187
0 0.974322 0.187241 12.1085
0 0.974346 0.187583 12.2728
0 0.974361 0.0911811 0.0519112
0 0.974379 0.0911757 0.0549649
0 0.974457 0.0911688 0.0510111
0 0.974451 0.0911673 0.0511563
0 0.974351 0.0911675 0.0523689
0 0.97437 0.0911761 0.0523842
0 0.974447 0.0911677 0.0508539
0 0.974443 0.0911649 0.0494956
0 0.974497 0.190175 12.4566
0 0.974655 0.190781 10.7245
0 0.974398 0.091177 0.0530919
0 0.974448 0.0911688 0.0495747
0 0.974382 0.091166 0.0446371
0 0.974383 0.186954 12.2104
0 0.974415 0.0911664 0.0497594
0 0.974399 0.187569 12.3664
0 0.974464 0.0911695 0.0506812
0 0.974477 0.091161 0.048323
0 0.974549 0.0911306 0.0438529
0 0.974515 0.188558 12.3752
0 0.974557 0.0911144 0.0410935
0 0.974537 0.0911346 0.0448317
0 0.974451 0.0911641 0.0504361
0 0.974465 0.0911649 0.0507985
0 0.97455 0.0911184 0.0414175
0 0.974533 0.0911391 0.0452405
0 0.974573 0.0911763 0.0452225
0 0.974583 0.0911822 0.0445908
0 0.97449 0.091165 0.0502336
0 0.974533 0.0911655 0.0486455
0 0.974386 0.187709 12.1747
0 0.974496 0.0911674 0.0478368
0 0.974445 0.0911651 0.0472524
0 0.974525 0.0911712 0.0472093
0 0.974369 0.186925 12.2796
0 0.974459 0.091158 0.0402445
0 0.974289 0.184284 10.0322
0 0.974573 0.0911183 0.0412689
0 0.974572 0.091135 0.0435119
0 0.974629 0.0910397 0.027199
0 0.974461 0.0911792 0.0525528
0 0.974398 0.0911721 0.0545826
0 0.974619 0.0910419 0.0276616
0 0.974554 0.0911234 0.0427953
0 0.974549 0.0911385 0.0457003
0 0.974615 0.0910473 0.0286816
0 0.974563 0.0911671 0.0485343
0 0.974539 0.0911678 0.0500783
0 0.974576 0.0911277 0.043539
0 0.974581 0.0911434 0.0461338
0 0.97434 0.1863 12.2175
0 0.974609 0.0911159 0.0390478
0 0.974553 0.0911647 0.040693
0 0.97462 0.0911345 0.0390621
0 0.97442 0.0911458 0.0401988
0 0.974574 0.0911521 0.0278946
0 0.974337 0.186298 12.2081
0 0.974423 0.0911373 0.0173769
0 0.974313 0.184206 10.1992
0 0.974673 0.0910111 0.0219538
0 0.97465 0.0910414 0.0269749
0 0.974687 0.0910117 0.0218747
0 0.974498 0.0911682 0.0524692
0 0.974374 0.0911639 0.0523587
0 0.974469 0.0911674 0.0531046
0 0.974668 0.0910126 0.0221871
0 0.974714 0.0909996 0.0197051
0 0.97462 0.0910495 0.0294942
0 0.974666 0.0910172 0.0232843
0 0.97459 0.0911172 0.0423535
0 0.974568 0.0911285 0.0451762
0 0.974628 0.0910513 0.0304615
0 0.97432 0.186755 12.0495
0 0.974682 0.0910385 0.0241232
0 0.974657 0.0911145 0.0302075
0 0.974588 0.0911492 0.0138083
0 0.97467 0.0911283 0.0232938
0 0.97444 0.0911382 0.0267318
0 0.974607 0.0911458 0.00468716
0 0.974349 0.186328 12.1542
0 0.974445 0.0911401 0.0248573
0 0.974728 0.0909909 0.0181812
0 0.974706 0.0910137 0.0213422
0 0.974733 0.0909978 0.0192467
0 0.974731 0.0910116 0.0192772
0 0.974311 0.184657 9.90148
0 0.974367 0.0911602 0.0516126
0 0.974564 0.0911248 0.0451821
0 0.974457 0.0911534 0.0506203
0 0.974539 0.0911391 0.0480486
0 0.974751 0.0909648 0.013422
0 0.974717 0.0909942 0.0188045
0 0.974669 0.0910193 0.0242011
0 0.97471 0.0910048 0.0210896
0 0.974626 0.0910533 0.0317862
0 0.974671 0.0910172 0.0245354
0 0.974321 0.186216 12.1519
0 0.974719 0.0910381 0.018784
0 0.974699 0.0911137 0.0160564
0 0.974616 0.0911464 0.000682146
0 0.974703 0.0911327 0.0117005
0 0.974441 0.0911459 0.0225306
0 0.974616 0.0911477 0.00345737
0 0.974456 0.0911643 0.0387033
0 0.974777 0.0909499 0.0106722
0 0.974773 0.0909491 0.010494
0 0.974763 0.0909615 0.0129757
0 0.974752 0.0909924 0.0178043
0 0.97475 0.0910108 0.0174705
0 0.974762 0.0910012 0.0183281
0 0.974787 0.0909394 0.00913288
0 0.974446 0.186491 11.8202
0 0.974368 0.0911584 0.0525125
0 0.974458 0.091145 0.0492244
0 0.974618 0.0910666 0.0346919
0 0.974547 0.0911306 0.0464912
0 0.974748 0.0909666 0.0140233
0 0.974717 0.0909965 0.0201531
0 0.974673 0.0910181 0.0253487
0 0.974713 0.0909953 0.0206315
0 0.974366 0.0911612 0.0525656
0 0.974319 0.186254 12.0977
0 0.97474 0.0910388 0.0150558
0 0.974713 0.0911168 0.0121369
0 0.97461 0.0911561 0.0109785
0 0.974699 0.0911321 0.0132488
0 0.974565 0.0912309 0.0426761
0 0.974618 0.0911652 0.0244635
0 0.974756 0.0910114 0.0172035
0 0.974777 0.09094 0.00930675
0 0.974791 0.0909168 0.00469143
0 0.974777 0.090961 0.0129032
0 0.974771 0.0909931 0.0168471
0 0.974767 0.0910034 0.018548
0 0.97479 0.0909364 0.00960799
0 0.974796 0.0909032 0.00406946
0 0.974561 0.0912394 0.0390217
0 0.974568 0.187003 13.09
0 0.974669 0.0910215 0.0261876
0 0.974457 0.0911488 0.0500773
0 0.974541 0.0911395 0.0480607
0 0.974621 0.091069 0.0350591
0 0.974452 0.0911613 0.052093
0 0.974749 0.0909666 0.0149274
0 0.974721 0.0909927 0.0204671
0 0.974776 0.0909429 0.0106385
0 0.974704 0.0910219 0.0257653
0 0.974367 0.0911618 0.0537031
0 0.974323 0.186268 12.0751
0 0.974736 0.09104 0.016066
0 0.974695 0.0911184 0.0195183
0 0.974618 0.0911667 0.0392493
0 0.974674 0.0911367 0.0296026
0 0.974584 0.0911805 0.0440476
0 0.974744 0.0910143 0.0194295
0 0.974791 0.0909033 0.00400592
0 0.974779 0.0909594 0.0134429
0 0.974759 0.0909983 0.0195101
0 0.974788 0.0909296 0.0100357
0 0.97479 0.0909053 0.00736379
0 0.97449 0.0911883 0.0472636
0 0.974489 0.185738 11.0739
0 0.97466 0.0910297 0.0272049
0 0.974543 0.0911249 0.0450552
0 0.974607 0.0910796 0.0366745
0 0.97445 0.0911677 0.0518626
0 0.974535 0.0911263 0.0443316
0 0.974757 0.0909597 0.0142973
0 0.974739 0.0909806 0.018304
0 0.974776 0.0909408 0.0112429
0 0.974715 0.0910065 0.0227077
0 0.974673 0.0910397 0.028202
0 0.974442 0.0911623 0.0471838
0 0.974359 0.0911602 0.0523366
0 0.974321 0.18524 11.9589
0 0.974711 0.0910421 0.021742
0 0.974659 0.0911207 0.0347309
0 0.974541 0.0911777 0.0498502
0 0.974624 0.0911433 0.0426366
0 0.974722 0.0910188 0.0230365
0 0.974741 0.0910088 0.0228337
0 0.974779 0.0909306 0.0104063
0 0.974767 0.0909625 0.0157698
0 0.97478 0.0909399 0.012967
0 0.974773 0.0909433 0.0137663
0 0.974774 0.0909455 0.0146089
0 0.97451 0.0911786 0.050513
0 0.974442 0.0911958 0.0479967
0 0.974425 0.186148 12.6277
0 0.974611 0.0910573 0.0313655
0 0.974546 0.0911192 0.0404776
0 0.97453 0.0911435 0.0416656
0 0.974656 0.0910389 0.0272656
0 0.974749 0.0909615 0.0151259
0 0.97471 0.0910064 0.0222883
0 0.974446 0.0911645 0.0423348
0 0.974339 0.0911672 0.0455092
0 0.974305 0.185741 11.751
0 0.974676 0.0910431 0.0275636
0 0.97461 0.0911266 0.0431993
0 0.974579 0.0911574 0.0492201
0 0.974698 0.0910189 0.0249747
0 0.974733 0.0910018 0.0230453
0 0.974754 0.0909685 0.0170484
0 0.974747 0.0909861 0.0211992
0 0.974753 0.0909704 0.0186085
0 0.974748 0.0909785 0.0205591
0 0.974486 0.0911774 0.0502942
0 0.974403 0.0911621 0.0441262
0 0.974369 0.184835 11.5485
0 0.974609 0.0910579 0.028762
0 0.974552 0.0911191 0.0363902
0 0.974666 0.0910238 0.0244688
0 0.974719 0.0909927 0.020472
0 0.974546 0.0911357 0.0393856
0 0.974458 0.0911752 0.0419282
0 0.97436 0.0912471 0.0342276
0 0.97428 0.186482 13.4882
0 0.974649 0.0910437 0.0298591
0 0.974581 0.0911319 0.0453436
0 0.974682 0.091016 0.0255142
0 0.974718 0.0910107 0.0255141
0 0.974714 0.091002 0.023017
0 0.974712 0.0910081 0.0252989
0 0.974718 0.0910057 0.0253658
0 0.974708 0.0910144 0.0270592
0 0.974562 0.0911427 0.0479238
0 0.974482 0.0911741 0.0512629
0 0.974385 0.091159 0.040552
0 0.97434 0.183973 11.7686
0 0.974616 0.0910462 0.026857
0 0.97467 0.0910126 0.0233058
0 0.974557 0.0911244 0.040073
0 0.974462 0.0911808 0.0455519
0 0.97438 0.0912194 0.0377967
0 0.974343 0.18695 10.8323
0 0.974632 0.0910416 0.0299408
0 0.974672 0.0910172 0.0269033
0 0.974669 0.0910092 0.024439
0 0.974665 0.0910129 0.0264105
0 0.974667 0.091015 0.0270903
0 0.974568 0.091121 0.0440221
0 0.974479 0.0911632 0.0521859
0 0.974407 0.0911899 0.0543513
0 0.974341 0.185015 11.57
0 0.974619 0.0910493 0.0298289
0 0.974539 0.0911428 0.0447135
0 0.974453 0.0911679 0.0463671
0 0.974359 0.091168 0.043935
0 0.974315 0.185574 12.547
0 0.974623 0.091044 0.0315178
0 0.974618 0.0910439 0.0316009
0 0.97462 0.0910422 0.032673
0 0.974549 0.0911402 0.0469306
0 0.974468 0.0911629 0.048397
0 0.974396 0.0911867 0.0520151
0 0.974382 0.185945 12.8019
0 0.974554 0.0911258 0.0438362
0 0.974449 0.0911637 0.0481703
0 0.974353 0.0911677 0.0468716
0 0.974309 0.185112 11.7947
0 0.97454 0.0911431 0.0489278
0 0.974561 0.0911244 0.0465108
0 0.974558 0.0911241 0.0477975
0 0.974546 0.0911423 0.0516526
0 0.97446 0.0911705 0.0501262
0 0.974356 0.0911572 0.0376344
0 0.974318 0.185022 11.6105
0 0.974446 0.091167 0.0500247
0 0.974344 0.0911573 0.0463083
0 0.974292 0.18556 12.2478
0 0.974452 0.091168 0.0545734
0 0.974464 0.0911701 0.0557156
0 0.97446 0.091167 0.0570598
0 0.974363 0.0911627 0.046934
0 0.974301 0.182862 11.7742
0 0.974347 0.0911595 0.0461857
0 0.974292 0.185613 12.0226
0 0.974366 0.0911684 0.057693
0 0.974381 0.0911731 0.0617429
0 0.97433 0.18398 11.4379
0 0.974301 0.185641 11.7685
0 0.974336 0.185069 12.5902
VECTORS fa_u float
0.0117273 0.00489092 0
0.0105881 0.00607494 0
0.0117382 0.00315913 0
0.0124325 0.00160987 0
4.50229e-05 3.09126e-05 0
0.00991936 0.00765029 0
0.00885483 0.00887417 0
5.62233e-05 1.4211e-05 0
3.81874e-05 3.03387e-05 0
0.00729398 0.009503 0
0.00632001 0.010922 0
0.0121084 4.1547e-05 0
0.0121613 -0.00164999 0
5.18004e-05 -3.38859e-06 0
5.30797e-05 1.42719e-05 0
4.90896e-05 1.38686e-05 0
4.73715e-05 1.93107e-05 0
4.04782e-05 3.32267e-05 0
3.04298e-05 4.26396e-05 0
4.45241e-05 2.45707e-05 0
3.88429e-05 3.06765e-05 0
0.00475237 0.0115145 0
0.00278174 0.0103574 0
3.34575e-05 4.12231e-05 0
2.23067e-05 4.42726e-05 0
4.44305e-05 -4.28991e-06 0
0.0117929 -0.00316594 0
4.92201e-05 -7.30671e-06 0
0.011423 -0.00473734 0
5.04262e-05 5.07806e-06 0
4.82882e-05 1.83314e-06 0
4.32039e-05 7.5167e-06 0
0.00162761 0.0122677 0
3.8847e-05 1.34009e-05 0
4.05433e-05 1.91344e-05 0
3.4651e-05 3.66484e-05 0
3.05509e-05 4.05848e-05 0
3.41243e-05 2.34721e-05 0
3.34511e-05 3.04586e-05 0
1.87528e-05 4.1151e-05 0
2.96208e-06 4.44923e-05 0
2.48581e-05 4.36519e-05 0
1.93099e-05 4.46487e-05 0
-8.78694e-06 0.0121747 0
4.76155e-05 -4.59586e-06 0
4.70839e-05 -3.98694e-06 0
4.67451e-05 -6.6041e-06 0
0.0106416 -0.00612737 0
4.02148e-05 1.547e-06 0
0.00796813 -0.00609535 0
4.12393e-05 1.56287e-06 0
4.3476e-05 -1.76711e-06 0
2.68744e-05 4.18982e-06 0
-3.57126e-07 5.25516e-05 0
-5.40803e-06 5.43141e-05 0
2.51163e-05 1.15903e-05 0
2.73657e-05 3.29022e-05 0
2.46175e-05 3.85032e-05 0
2.13788e-05 1.91202e-05 0
1.18095e-05 4.70756e-05 0
4.40631e-06 4.98841e-05 0
1.86127e-05 3.936e-05 0
1.43062e-05 4.38596e-05 0
-0.00158582 0.0121141 0
3.86689e-05 -5.42657e-06 0
4.03481e-05 -5.2864e-06 0
3.81669e-05 -8.31454e-06 0
1.65945e-05 3.66137e-05 0
2.77402e-05 2.93116e-06 0
0.0086191 -0.00864567 0
-1.71036e-05 3.06992e-06 0
0.0062108 -0.00809005 0
2.11736e-05 5.80073e-06 0
2.68708e-05 -2.3673e-06 0
2.18721e-05 3.37455e-07 0
-3.21622e-06 5.23706e-05 0
-8.12682e-06 5.17241e-05 0
-7.68683e-06 5.25453e-05 0
1.86904e-05 1.19556e-05 0
1.81044e-05 7.77947e-06 0
1.61646e-05 2.467e-05 0
1.54513e-05 1.74189e-05 0
6.98263e-06 4.1774e-05 0
7.18909e-07 4.51704e-05 0
9.29339e-06 2.90092e-05 0
-0.00311727 0.0116393 0
2.3198e-05 -6.6169e-06 0
2.92194e-05 -7.66295e-06 0
1.34182e-05 3.25903e-06 0
2.25307e-05 -5.9135e-06 0
2.51487e-06 2.66133e-05 0
3.59471e-06 3.0079e-06 0
0.00609747 -0.0105141 0
-2.46406e-05 3.27461e-06 0
1.79947e-05 2.59792e-06 0
2.07321e-05 -5.06638e-06 0
1.90833e-05 -2.5022e-06 0
1.72064e-05 -8.69198e-06 0
0.00380595 -0.00914079 0
-1.8011e-05 4.8368e-05 0
-4.25245e-06 4.49816e-05 0
-1.38513e-05 4.86883e-05 0
-1.0658e-05 4.68516e-05 0
1.24252e-05 5.07588e-06 0
1.42305e-05 1.22925e-05 0
1.06406e-05 2.17364e-05 0
1.1785e-05 1.74896e-05 0
1.83191e-06 3.17333e-05 0
5.15182e-06 2.39885e-05 0
-0.00465751 0.011224 0
1.65266e-05 -8.92806e-06 0
1.43561e-05 -7.1909e-06 0
6.32042e-07 -2.56606e-07 0
8.6074e-06 -7.92559e-06 0
2.08852e-06 2.24336e-05 0
-3.37877e-06 -7.33056e-07 0
-3.86687e-05 1.63657e-06 0
1.0608e-05 1.1685e-06 0
8.46968e-06 6.19582e-06 0
1.28151e-05 -2.03507e-06 0
1.64576e-05 -6.79269e-06 0
1.25328e-05 -1.21715e-05 0
1.45088e-05 -1.11989e-05 0
8.25256e-06 -3.91212e-06 0
0.00301216 -0.01143 0
-2.17173e-05 4.78113e-05 0
-1.84896e-05 4.56199e-05 0
-6.09738e-06 3.41519e-05 0
-1.53718e-05 4.38764e-05 0
7.86475e-06 1.16103e-05 0
6.07616e-06 1.92153e-05 0
-1.14501e-06 2.53228e-05 0
1.44339e-06 2.05809e-05 0
-2.98015e-05 4.33015e-05 0
-0.00604976 0.0104763 0
9.52219e-06 -1.16621e-05 0
5.6899e-06 -1.07205e-05 0
-7.30046e-06 -8.19945e-06 0
1.46182e-06 -1.31679e-05 0
-2.53667e-05 -3.43188e-05 0
-1.35225e-05 -2.03864e-05 0
7.42176e-06 -1.55203e-05 0
3.02337e-06 8.80198e-06 0
4.31218e-06 1.84786e-06 0
9.78276e-06 -8.41366e-06 0
9.6518e-06 -1.38082e-05 0
5.16754e-06 -1.78136e-05 0
4.47794e-06 -8.50068e-06 0
4.83386e-07 -4.04065e-06 0
-5.76439e-06 -3.85935e-05 0
0.00173679 -0.0129743 0
-7.30965e-06 2.51468e-05 0
-2.39468e-05 4.39805e-05 0
-1.98717e-05 4.37601e-05 0
-1.21244e-05 3.28959e-05 0
-2.98036e-05 4.27251e-05 0
1.10957e-06 1.48861e-05 0
-3.79225e-06 2.01127e-05 0
-2.10872e-06 1.04274e-05 0
-9.90411e-06 2.37857e-05 0
-3.36761e-05 4.18323e-05 0
-0.00735533 0.00957635 0
3.58278e-06 -1.56615e-05 0
-1.49316e-06 -1.94611e-05 0
-1.1288e-05 -3.75911e-05 0
-5.95256e-06 -2.8998e-05 0
-1.14813e-05 -4.25249e-05 0
1.68169e-06 -1.93565e-05 0
-3.10693e-06 2.52871e-06 0
3.28874e-06 -1.30344e-05 0
2.03174e-07 -1.95091e-05 0
-1.24796e-06 -9.95778e-06 0
-6.04917e-06 -4.19916e-06 0
-1.80691e-05 -4.36733e-05 0
9.7185e-06 -0.0110739 0
-1.4012e-05 2.3319e-05 0
-2.31392e-05 3.86594e-05 0
-1.90449e-05 3.13418e-05 0
-3.49032e-05 3.83601e-05 0
-2.74771e-05 3.47894e-05 0
-5.34744e-06 1.32596e-05 0
-9.01783e-06 1.59284e-05 0
-8.06272e-06 7.83551e-06 0
-1.42502e-05 1.76797e-05 0
-1.88657e-05 2.09628e-05 0
-3.35399e-05 3.31872e-05 0
-3.59767e-05 3.80105e-05 0
-0.00845971 0.00845266 0
-2.36977e-06 -2.16124e-05 0
-6.68002e-06 -3.40825e-05 0
-1.46028e-05 -4.76634e-05 0
-1.13621e-05 -4.10948e-05 0
-3.71424e-06 -2.27351e-05 0
-5.65068e-06 -2.21235e-05 0
-1.01241e-05 2.40711e-06 0
-4.21603e-06 -1.51958e-05 0
-6.76011e-06 -1.10655e-05 0
-1.33283e-05 -3.44467e-06 0
-1.16006e-05 -8.87966e-06 0
-1.75096e-05 -4.73812e-05 0
-1.04479e-05 -4.68457e-05 0
-0.00164638 -0.0125199 0
-2.05487e-05 2.3697e-05 0
-2.89195e-05 2.83213e-05 0
-3.2951e-05 2.55001e-05 0
-2.13501e-05 1.69583e-05 0
-1.26772e-05 8.25123e-06 0
-1.86487e-05 1.22063e-05 0
-3.52119e-05 2.35022e-05 0
-2.80172e-05 3.58626e-05 0
-0.00931838 0.00715918 0
-7.72828e-06 -2.6458e-05 0
-1.34625e-05 -4.1048e-05 0
-1.9396e-05 -4.52373e-05 0
-9.27437e-06 -2.31889e-05 0
-1.05525e-05 -2.04874e-05 0
-1.68388e-05 2.66528e-06 0
-2.09039e-05 -3.52584e-06 0
-1.20725e-05 -1.41609e-05 0
-1.81667e-05 -9.62547e-06 0
-2.18966e-05 -4.52775e-05 0
-1.88412e-05 -3.99015e-05 0
-0.00295358 -0.0111644 0
-2.36902e-05 1.63102e-05 0
-3.2712e-05 1.59427e-05 0
-2.26403e-05 9.28107e-06 0
-1.98527e-05 4.9976e-06 0
-3.82295e-05 9.47255e-06 0
-3.92798e-05 1.46655e-05 0
-3.27915e-05 9.81027e-06 0
-0.0116826 0.00674156 0
-1.25924e-05 -2.70739e-05 0
-2.11254e-05 -4.01218e-05 0
-1.4159e-05 -2.12249e-05 0
-1.63807e-05 -1.95612e-05 0
-2.30124e-05 -4.61413e-07 0
-2.44619e-05 -6.45374e-06 0
-2.0159e-05 -1.53961e-05 0
-2.44936e-05 -1.15007e-05 0
-2.81678e-05 -3.8772e-05 0
-2.69429e-05 -4.36115e-05 0
-1.62597e-05 -3.71496e-05 0
-0.00448655 -0.0108799 0
-2.603e-05 6.61318e-06 0
-2.31767e-05 2.44993e-06 0
-3.99627e-05 2.97101e-06 0
-4.50893e-05 6.47529e-06 0
-3.58514e-05 1.19694e-05 0
-0.00998738 0.00419425 0
-1.88501e-05 -2.32621e-05 0
-1.98176e-05 -1.81949e-05 0
-2.41327e-05 -3.85663e-06 0
-2.47049e-05 -9.33706e-06 0
-2.32148e-05 -1.39627e-05 0
-3.04634e-05 -3.17794e-05 0
-3.27274e-05 -4.06483e-05 0
-4.12851e-05 -3.53498e-05 0
-0.00586917 -0.00997086 0
-2.98172e-05 -8.32064e-07 0
-4.46994e-05 -1.12598e-06 0
-4.63299e-05 1.85759e-06 0
-4.39327e-05 -4.46841e-07 0
-0.0121214 0.00324029 0
-2.53399e-05 -1.87419e-05 0
-3.05056e-05 -8.24771e-06 0
-2.94673e-05 -1.41139e-05 0
-3.70247e-05 -2.88385e-05 0
-3.39167e-05 -3.45244e-05 0
-2.18235e-05 -4.72155e-05 0