# vtk DataFile Version 2.0
CellBP Time: 3.48
ASCII
DATASET UNSTRUCTURED_GRID
POINTS 296 double
-9.01946 -3.70668 0
-8.45174 -4.85855 0
-9.4328 -2.49089 0
-9.68349 -1.2314 0
-8.35601 -2.81823 0
-7.7389 -5.9267 0
-6.89241 -6.89236 0
-7.91585 -3.87409 0
-7.34142 -4.86704 0
-5.92646 -7.73862 0
-4.8586 -8.45194 0
-9.76833 0.0500269 0
-9.68427 1.33149 0
-8.6561 -1.68356 0
-8.78484 -0.529465 0
-7.58816 -2.00369 0
-7.2243 -2.90591 0
-6.63657 -5.77797 0
-5.82148 -6.59587 0
-6.78897 -3.88816 0
-6.21941 -4.67503 0
-3.70713 -9.0202 0
-2.49061 -9.43141 0
-4.90568 -7.30768 0
-3.91238 -7.885 0
-8.79133 0.643321 0
-9.43391 2.59117 0
-8.62188 1.77382 0
-9.02065 3.80719 0
-7.74274 -0.928784 0
-7.79305 0.080298 0
-6.95124 -1.31562 0
-1.23135 -9.68364 0
-6.44031 -2.15271 0
-6.31817 -3.05556 0
-5.53552 -5.47355 0
-4.79502 -6.11435 0
-5.65802 -3.75632 0
-5.2684 -4.56072 0
-2.86568 -8.36259 0
-1.77824 -8.63879 0
-3.92743 -6.72232 0
-3.05603 -7.1513 0
0.0500402 -9.76735 0
-7.70404 1.14334 0
-8.33727 2.91499 0
-7.55046 2.11161 0
-8.45327 4.95937 0
-7.87886 3.97765 0
-7.73956 6.02715 0
-6.77747 -0.396788 0
-6.95524 0.552506 0
-5.77063 -1.00326 0
-0.5907 -8.8083 0
0.565599 -8.76954 0
-5.3024 -2.47994 0
-4.49116 -5.09483 0
-3.90178 -5.77425 0
-4.43829 -3.80424 0
-2.06201 -7.56059 0
-1.13526 -7.78446 0
-2.99398 -6.10098 0
-2.30856 -6.61858 0
1.33166 -9.68497 0
-6.68832 1.42186 0
-7.17089 3.11756 0
-6.65808 2.3726 0
-7.2937 4.98796 0
-6.71692 4.0024 0
-6.89295 6.99298 0
-6.57159 5.89335 0
-5.92736 7.83981 0
-4.45248 -1.18087 0
-5.81385 0.513705 0
-4.65551 -0.0103375 0
0.00849147 -7.84674 0
1.73837 -8.64258 0
0.948795 -7.76211 0
-4.03795 -2.40604 0
-3.48497 -1.39094 0
-3.29403 -4.80471 0
-3.26539 -3.2673 0
-1.37833 -6.67438 0
-0.508671 -7.0238 0
-1.97525 -5.53631 0
2.59131 -9.43408 0
-5.50668 2.0367 0
-6.09376 3.07171 0
-6.10409 4.86885 0
-5.76077 3.99085 0
-5.76059 6.71633 0
-5.45126 5.61851 0
-4.85922 8.55305 0
-4.83789 7.40371 0
-3.50093 -0.424182 0
-4.44868 1.24891 0
-3.71087 0.592044 0
-4.06163 2.31955 0
-3.70725 9.12088 0
2.86226 -8.33182 0
0.419629 -6.79436 0
2.02171 -7.52474 0
1.30585 -6.90448 0
-2.44425 -0.873624 0
-2.83792 -2.13076 0
-2.29407 -4.09681 0
-2.32525 -2.9731 0
-0.442279 -5.86044 0
-1.22253 -4.49854 0
3.80771 -9.02181 0
-4.78927 3.39144 0
-5.08718 4.59349 0
-4.64649 6.28054 0
-4.53816 5.35891 0
-3.8433 7.99254 0
-3.82618 6.84479 0
-2.783 8.42204 0
-1.64865 -0.137811 0
-1.44993 -0.890355 0
-2.48869 0.507252 0
-3.25309 1.44399 0
-3.2386 3.31618 0
-2.91049 2.37145 0
-1.35477 0.627039 0
-2.49187 9.53625 0
3.9322 -7.88608 0
2.96417 -7.15681 0
0.954001 -5.82128 0
2.07401 -6.41456 0
-1.68268 -1.9917 0
-1.43421 -3.27725 0
0.0902502 -4.7464 0
-0.566081 -3.69389 0
4.93167 -7.31792 0
4.95938 -8.45333 0
-3.77658 4.55118 0
-3.73425 5.75137 0
-2.88758 7.28895 0
-3.00927 6.35287 0
-1.66243 8.73288 0
-1.93985 7.61844 0
-2.33809 4.05123 0
-0.730568 -1.32695 0
-0.836688 -0.257517 0
-1.93585 1.68057 0
-2.12541 2.87545 0
-1.30633 3.54418 0
-0.869249 1.35062 0
-0.282274 0.455968 0
-0.533472 8.87091 0
-1.23139 9.7838 0
1.11266 -4.57404 0
3.9097 -6.71648 0
2.98753 -6.09386 0
2.11765 -5.42429 0
4.78391 -6.20457 0
-0.558762 -2.47638 0
0.495072 -3.46331 0
0.0535617 -1.61014 0
1.48169 -3.68154 0
5.8667 -6.61409 0
6.02748 -7.74 0
-2.47548 5.34802 0
-2.13019 6.5337 0
-0.90396 7.80243 0
-1.27217 6.93123 0
0.0862157 7.87951 0
-1.14431 4.49422 0
0.150297 -0.617532 0
-0.797252 2.48817 0
-0.331536 3.60022 0
0.063152 1.51247 0
0.741335 0.473341 0
0.646736 8.87361 0
0.0500373 9.86993 0
2.38074 -4.28478 0
3.8588 -5.63975 0
3.00111 -5.21222 0
5.57319 -5.49126 0
4.6906 -5.28252 0
0.629591 -2.29298 0
1.256 -2.95082 0
0.757317 -1.39119 0
2.16403 -3.1354 0
2.99338 -3.47613 0
6.15466 -4.79132 0
6.65525 -5.76894 0
6.99358 -6.89349 0
-1.01956 5.81995 0
-0.372551 6.88295 0
1.12252 7.76886 0
0.557931 7.07913 0
-0.000739499 4.72472 0
0.60696 3.82731 0
1.33869 -0.641789 0
0.539076 2.65069 0
0.965983 1.57466 0
1.90991 0.213816 0
1.61453 1.06482 0
2.12922 7.58301 0
1.79913 8.71204 0
1.33158 9.78485 0
3.82252 -4.35127 0
5.11618 -4.44865 0
5.84528 -3.93475 0
3.78364 -3.20075 0
1.81201 -1.88242 0
3.0188 -2.57365 0
6.78297 -3.94758 0
7.38126 -4.8966 0
7.84021 -5.92766 0
0.483329 5.88128 0
1.42809 6.74148 0
2.37415 6.66859 0
1.2099 4.55583 0
1.48804 3.39723 0
2.43546 -0.691918 0
2.82763 0.142559 0
1.7887 2.16256 0
2.61156 1.14996 0
3.07185 7.16974 0
2.90417 8.37676 0
2.59159 9.53502 0
4.91108 -3.32771 0
6.12043 -3.1085 0
4.17258 -2.27514 0
3.24411 -1.50282 0
6.73113 -2.31294 0
7.23181 -3.04237 0
7.96489 -3.9122 0
8.5528 -4.85922 0
2.02358 5.59973 0
3.08642 6.1534 0
2.36381 4.1267 0
2.41987 3.06057 0
3.52533 -0.460851 0
3.61535 0.613205 0
2.96156 2.28784 0
3.54526 1.52511 0
4.01215 5.89811 0
3.98457 6.79326 0
3.97355 7.93915 0
3.80808 9.12277 0
5.56888 -1.91614 0
4.50909 -1.12959 0
6.71405 -1.33615 0
7.59268 -2.03646 0
8.39765 -2.86146 0
9.12089 -3.70718 0
3.41921 4.87718 0
3.33893 3.3853 0
4.69123 0.130051 0
4.51913 1.30993 0
4.06529 2.44376 0
4.57084 5.15283 0
4.84405 6.19129 0
4.98099 7.38127 0
4.95974 8.55393 0
5.88381 -0.434906 0
7.01136 -0.488273 0
7.7602 -1.08536 0
8.6858 -1.7461 0
9.53462 -2.49127 0
4.5528 3.82789 0
5.81829 1.09868 0
5.37177 2.53517 0
5.38072 4.62115 0
5.6129 5.52429 0
5.89811 6.673 0
6.02729 7.8395 0
6.84696 0.463605 0
7.85444 -0.0256557 0
8.86182 -0.584398 0
9.78546 -1.23171 0
6.96152 1.34964 0
5.72195 3.77901 0
6.5425 2.19782 0
6.38126 3.08846 0
6.29353 4.6878 0
6.69432 5.83904 0
6.99418 6.99401 0
7.78571 0.967776 0
8.86116 0.572856 0
9.86931 0.0499549 0
7.61766 2.00464 0
6.83055 3.90499 0
7.27101 2.94736 0
7.37994 4.88677 0
7.8425 6.0294 0
8.72478 1.72729 0
9.78524 1.33165 0
8.4228 2.83837 0
7.98339 3.91714 0
8.55441 4.96009 0
9.5344 2.59138 0
9.12202 3.80785 0
CELLS 542 2168
3 2 0 4
3 0 1 7
3 4 0 7
3 1 5 8
3 7 1 8
3 3 2 13
3 13 2 4
3 11 3 14
3 14 3 13
3 13 4 15
3 4 7 16
3 15 4 16
3 5 6 17
3 8 5 17
3 6 9 18
3 17 6 18
3 7 8 19
3 16 7 19
3 8 17 20
3 19 8 20
3 9 10 23
3 18 9 23
3 10 21 24
3 23 10 24
3 12 11 25
3 25 11 14
3 26 12 27
3 27 12 25
3 14 13 29
3 29 13 15
3 25 14 30
3 30 14 29
3 29 15 31
3 15 16 33
3 31 15 33
3 16 19 34
3 33 16 34
3 17 18 35
3 20 17 35
3 18 23 36
3 35 18 36
3 19 20 37
3 34 19 37
3 20 35 38
3 37 20 38
3 21 22 39
3 24 21 39
3 22 32 40
3 39 22 40
3 23 24 41
3 36 23 41
3 24 39 42
3 41 24 42
3 27 25 44
3 44 25 30
3 28 26 45
3 45 26 27
3 45 27 46
3 46 27 44
3 47 28 48
3 48 28 45
3 30 29 50
3 50 29 31
3 44 30 51
3 51 30 50
3 50 31 52
3 31 33 52
3 32 43 53
3 40 32 53
3 53 43 54
3 33 34 55
3 34 37 55
3 33 55 52
3 35 36 56
3 38 35 56
3 36 41 57
3 56 36 57
3 37 38 58
3 38 56 58
3 37 58 55
3 39 40 59
3 42 39 59
3 40 53 60
3 59 40 60
3 41 42 61
3 57 41 61
3 42 59 62
3 61 42 62
3 43 63 54
3 46 44 64
3 64 44 51
3 48 45 65
3 65 45 46
3 65 46 66
3 66 46 64
3 49 47 67
3 67 47 48
3 67 48 68
3 68 48 65
3 69 49 70
3 70 49 67
3 52 55 72
3 64 51 73
3 51 50 73
3 50 52 73
3 73 52 74
3 74 52 72
3 53 54 75
3 60 53 75
3 54 63 76
3 54 76 77
3 75 54 77
3 55 58 78
3 72 55 78
3 72 78 79
3 56 57 80
3 57 61 80
3 56 80 58
3 58 80 81
3 78 58 81
3 59 60 82
3 62 59 82
3 60 75 83
3 82 60 83
3 61 62 84
3 62 82 84
3 61 84 80
3 63 85 76
3 66 64 86
3 64 73 86
3 68 65 87
3 87 65 66
3 87 66 86
3 70 67 88
3 88 67 68
3 88 68 89
3 89 68 87
3 71 69 90
3 90 69 70
3 90 70 91
3 91 70 88
3 92 71 93
3 93 71 90
3 74 72 94
3 94 72 79
3 86 73 95
3 95 73 74
3 95 74 96
3 96 74 94
3 97 86 95
3 76 85 99
3 75 77 100
3 83 75 100
3 76 99 101
3 77 76 101
3 77 101 102
3 100 77 102
3 94 79 103
3 78 81 104
3 79 78 104
3 79 104 103
3 80 84 105
3 81 80 105
3 81 105 106
3 104 81 106
3 82 83 107
3 83 100 107
3 82 107 84
3 84 107 108
3 105 84 108
3 85 109 99
3 89 87 110
3 87 86 110
3 110 86 97
3 91 88 111
3 111 88 89
3 111 89 110
3 93 90 112
3 112 90 91
3 112 91 113
3 113 91 111
3 98 92 114
3 114 92 93
3 114 93 115
3 115 93 112
3 116 98 114
3 117 103 118
3 96 94 119
3 94 103 119
3 119 103 117
3 97 95 120
3 120 95 96
3 120 96 119
3 121 110 97
3 121 97 122
3 122 97 120
3 123 119 117
3 124 98 116
3 99 109 125
3 99 125 126
3 101 99 126
3 100 102 127
3 100 127 107
3 101 126 128
3 102 101 128
3 102 128 127
3 104 106 129
3 104 129 103
3 103 129 118
3 105 108 130
3 106 105 130
3 106 130 129
3 107 127 131
3 108 107 131
3 108 131 132
3 108 132 130
3 109 134 125
3 125 134 133
3 113 111 135
3 111 110 135
3 135 110 121
3 115 112 136
3 136 112 113
3 136 113 135
3 116 114 137
3 137 114 115
3 137 115 138
3 138 115 136
3 139 124 116
3 139 116 140
3 140 116 137
3 141 135 121
3 118 129 142
3 118 142 143
3 117 118 143
3 123 117 143
3 122 120 144
3 120 119 144
3 144 119 123
3 141 121 145
3 145 121 122
3 145 122 144
3 146 141 145
3 147 144 123
3 147 123 148
3 143 148 123
3 150 124 139
3 149 150 139
3 131 127 151
3 125 133 152
3 126 125 152
3 126 152 153
3 128 126 153
3 128 153 154
3 128 154 127
3 127 154 151
3 152 133 155
3 130 132 156
3 130 156 129
3 129 156 142
3 131 151 157
3 132 131 157
3 132 157 156
3 156 158 142
3 157 151 159
3 133 160 155
3 134 161 133
3 133 161 160
3 138 136 162
3 136 135 162
3 162 135 141
3 140 137 163
3 163 137 138
3 163 138 162
3 149 139 164
3 164 139 140
3 164 140 165
3 165 140 163
3 166 149 164
3 167 162 141
3 167 141 146
3 142 158 168
3 143 142 168
3 143 168 148
3 146 145 169
3 145 144 169
3 169 144 147
3 170 167 146
3 170 146 169
3 171 169 147
3 171 147 148
3 171 148 172
3 168 172 148
3 173 149 166
3 174 150 149
3 173 174 149
3 154 175 151
3 151 175 159
3 152 155 176
3 153 152 176
3 153 176 177
3 153 177 154
3 154 177 175
3 155 160 178
3 155 178 179
3 176 155 179
3 156 157 180
3 156 180 158
3 157 159 181
3 157 181 180
3 158 180 182
3 158 182 168
3 159 175 183
3 159 183 181
3 175 184 183
3 160 186 178
3 178 186 185
3 161 187 160
3 160 187 186
3 165 163 188
3 163 162 188
3 188 162 167
3 166 164 189
3 189 164 165
3 189 165 188
3 190 173 166
3 190 166 191
3 191 166 189
3 192 188 167
3 192 167 170
3 193 192 170
3 182 194 168
3 194 172 168
3 193 170 195
3 170 169 195
3 195 169 171
3 196 195 171
3 196 171 172
3 194 197 172
3 197 198 172
3 198 196 172
3 200 173 190
3 199 200 190
3 201 174 173
3 200 201 173
3 176 179 202
3 177 176 202
3 177 202 175
3 175 202 184
3 178 185 203
3 178 203 179
3 179 203 202
3 203 185 204
3 202 205 184
3 183 206 181
3 180 181 206
3 180 206 182
3 182 206 194
3 183 184 207
3 205 207 184
3 183 207 206
3 185 208 204
3 186 209 185
3 185 209 208
3 187 210 186
3 186 210 209
3 191 189 211
3 189 188 211
3 211 188 192
3 199 190 212
3 212 190 191
3 212 191 211
3 213 199 212
3 214 211 192
3 214 192 193
3 215 214 193
3 215 193 195
3 206 216 194
3 216 197 194
3 216 217 197
3 215 195 218
3 218 195 196
3 198 218 196
3 217 219 197
3 219 218 198
3 197 219 198
3 220 199 213
3 221 200 199
3 220 221 199
3 222 201 200
3 221 222 200
3 203 204 223
3 203 223 202
3 202 223 205
3 204 208 224
3 204 224 223
3 205 223 225
3 205 225 207
3 207 225 226
3 207 226 206
3 226 216 206
3 208 228 224
3 224 228 227
3 209 229 208
3 229 228 208
3 210 230 209
3 209 230 229
3 213 212 231
3 212 211 231
3 231 211 214
3 232 220 213
3 232 213 231
3 233 231 214
3 233 214 215
3 234 233 215
3 234 215 218
3 226 235 216
3 235 217 216
3 235 236 217
3 217 236 219
3 237 234 218
3 237 218 219
3 236 238 219
3 238 237 219
3 240 220 232
3 239 240 232
3 241 221 220
3 240 241 220
3 242 222 221
3 241 242 221
3 224 227 243
3 224 243 223
3 223 243 225
3 225 243 244
3 225 244 226
3 226 244 235
3 227 245 243
3 228 246 227
3 227 246 245
3 229 247 228
3 228 247 246
3 230 248 229
3 229 248 247
3 239 232 249
3 232 231 249
3 249 231 233
3 250 249 233
3 250 233 234
3 237 250 234
3 244 251 235
3 235 251 236
3 251 252 236
3 236 252 238
3 252 253 238
3 253 250 237
3 253 237 238
3 254 239 249
3 255 240 239
3 254 255 239
3 256 241 240
3 255 256 240
3 257 242 241
3 256 257 241
3 245 258 243
3 243 258 244
3 244 258 251
3 245 259 258
3 246 260 245
3 245 260 259
3 247 261 246
3 246 261 260
3 248 262 247
3 247 262 261
3 254 249 263
3 263 249 250
3 253 263 250
3 258 264 251
3 251 264 252
3 264 265 252
3 265 263 253
3 252 265 253
3 266 254 263
3 267 255 254
3 266 267 254
3 268 256 255
3 267 268 255
3 269 257 256
3 268 269 256
3 259 270 258
3 270 264 258
3 260 271 259
3 259 271 270
3 261 272 260
3 260 272 271
3 262 273 261
3 273 272 261
3 270 274 264
3 275 266 263
3 275 263 265
3 274 276 264
3 276 265 264
3 276 277 265
3 277 275 265
3 278 267 266
3 275 278 266
3 279 268 267
3 278 279 267
3 280 269 268
3 279 280 268
3 271 281 270
3 270 281 274
3 272 282 271
3 271 282 281
3 273 283 272
3 272 283 282
3 281 284 274
3 274 284 276
3 285 278 275
3 277 285 275
3 284 286 276
3 286 285 277
3 276 286 277
3 287 279 278
3 285 287 278
3 288 280 279
3 287 288 279
3 282 289 281
3 281 289 284
3 283 290 282
3 282 290 289
3 289 291 284
3 284 291 286
3 291 292 286
3 292 287 285
3 286 292 285
3 293 288 287
3 292 293 287
3 290 294 289
3 289 294 291
3 294 295 291
3 295 293 292
3 291 295 292
CELL_TYPES 542
5
5
5
5
5
5
5
5
5
5
5
5
5
5
5
5
5
5
5
5
5
5
5
5
5
5
5
5
5
5
5
5
5
5
5
5
5
5
5
5
5
5
5
5
5
5
5
5
5
5
5
5
5
5
5
5
5
5
5
5
5
5
5
5
5
5
5
5
5
5
5
5
5
5
5
5
5
5
5
5
5
5
5
5
5
5
5
5
5
5
5
5
5
5
5
5
5
5
5
5
5
5
5
5
5
5
5
5
5
5
5
5
5
5
5
5
5
5
5
5
5
5
5
5
5
5
5
5
5
5
5
5
5
5
5
5
5
5
5
5
5
5
5
5
5
5
5
5
5
5
5
5
5
5
5
5
5
5
5
5
5
5
5
5
5
5
5
5
5
5
5
5
5
5
5
5
5
5
5
5
5
5
5
5
5
5
5
5
5
5
5
5
5
5
5
5
5
5
5
5
5
5
5
5
5
5
5
5
5
5
5
5
5
5
5
5
5
5
5
5
5
5
5
5
5
5
5
5
5
5
5
5
5
5
5
5
5
5
5
5
5
5
5
5
5
5
5
5
5
5
5
5
5
5
5
5
5
5
5
5
5
5
5
5
5
5
5
5
5
5
5
5
5
5
5
5
5
5
5
5
5
5
5
5
5
5
5
5
5
5
5
5
5
5
5
5
5
5
5
5
5
5
5
5
5
5
5
5
5
5
5
5
5
5
5
5
5
5
5
5
5
5
5
5
5
5
5
5
5
5
5
5
5
5
5
5
5
5
5
5
5
5
5
5
5
5
5
5
5
5
5
5
5
5
5
5
5
5
5
5
5
5
5
5
5
5
5
5
5
5
5
5
5
5
5
5
5
5
5
5
5
5
5
5
5
5
5
5
5
5
5
5
5
5
5
5
5
5
5
5
5
5
5
5
5
5
5
5
5
5
5
5
5
5
5
5
5
5
5
5
5
5
5
5
5
5
5
5
5
5
5
5
5
5
5
5
5
5
5
5
5
5
5
5
5
5
5
5
5
5
5
5
5
5
5
5
5
5
5
5
5
5
5
5
5
5
5
5
5
5
5
5
5
5
5
5
5
5
5
5
5
5
5
5
5
5
5
5
5
5
5
5
5
5
5
5
5
5
5
5
5
5
5
5
5
5
5
5
5
5
5
5
5
5
5
5
5
5
5
5
5
5
5
5
5
5
5
5
5
5
5
5
5
5
5
5
5
5
5
5
5
5
POINT_DATA 296
SCALARS concentrations float 4
LOOKUP_TABLE default
0 0.964011 0.166836 9.87282
0 0.963869 0.166684 9.86355
0 0.964196 0.16586 9.6876
0 0.964051 0.165531 9.94494
0 0.9641 0.0912877 0.171691
0 0.963825 0.166276 9.888
0 0.963816 0.165934 9.91751
0 0.963955 0.0911979 0.0893611
0 0.963886 0.0911786 0.064434
0 0.963813 0.165947 9.7511
0 0.963805 0.165999 10.1358
0 0.963876 0.164708 9.62079
0 0.963822 0.165007 9.57621
0 0.964119 0.0913108 0.173151
0 0.963973 0.0912129 0.0923182
0 0.964078 0.09119 0.123308
0 0.964041 0.0911821 0.111506
0 0.963864 0.0911673 0.0571236
0 0.963858 0.0911677 0.0565105
0 0.963985 0.0911632 0.0803986
0 0.963952 0.0911526 0.0629937
0 0.96383 0.167267 9.91178
0 0.963847 0.168094 10.1156
0 0.963853 0.0911708 0.0523544
0 0.963859 0.0911743 0.0546042
0 0.963888 0.0911733 0.0539366
0 0.963816 0.164528 9.75626
0 0.963863 0.0911668 0.0514331
0 0.963817 0.165079 10.0182
0 0.96405 0.0911819 0.110995
0 0.963991 0.0911571 0.076584
0 0.964076 0.0911313 0.0940199
0 0.963822 0.16611 9.70839
0 0.964077 0.0911144 0.0861409
0 0.964051 0.0911315 0.0825788
0 0.96394 0.0911489 0.055068
0 0.963935 0.0911492 0.0517592
0 0.96404 0.0911087 0.0607044
0 0.964015 0.0911255 0.0539518
0 0.963878 0.0911811 0.067889
0 0.963876 0.0912036 0.0789971
0 0.963936 0.0911496 0.0521298
0 0.96394 0.0911537 0.05617
0 0.963752 0.164145 10.4823
0 0.963956 0.0911546 0.0590019
0 0.963861 0.0911612 0.053415
0 0.963945 0.0911554 0.0532821
0 0.963818 0.164404 9.46373
0 0.963862 0.0911657 0.0504233
0 0.963827 0.164115 9.886
0 0.964063 0.0911114 0.0734742
0 0.964034 0.091123 0.0618302
0 0.9641 0.0910332 0.0492158
0 0.963831 0.0912934 0.0677066
0 0.963834 0.0913202 0.0609696
0 0.964094 0.0910357 0.0478628
0 0.964024 0.0911098 0.0459576
0 0.964009 0.0911243 0.0471413
0 0.964083 0.0910381 0.0374871
0 0.963945 0.0911609 0.0621104
0 0.963933 0.0911739 0.0621193
0 0.964024 0.0911154 0.0470865
0 0.964011 0.0911329 0.053257
0 0.963837 0.164193 9.46663
0 0.964037 0.0911018 0.0466358
0 0.963944 0.091151 0.0501234
0 0.964022 0.0911198 0.0452231
0 0.96387 0.0911605 0.050766
0 0.96395 0.0911448 0.0482942
0 0.96383 0.163894 9.71213
0 0.963877 0.0911546 0.0507675
0 0.963843 0.16394 9.57645
0 0.964131 0.0910033 0.0339965
0 0.964094 0.0910314 0.0373294
0 0.964134 0.0910026 0.0314726
0 0.963926 0.0911721 0.0596568
0 0.963903 0.0912046 0.0722388
0 0.963943 0.0911876 0.0634616
0 0.964129 0.091005 0.0323324
0 0.964167 0.0909914 0.0277912
0 0.964079 0.0910399 0.0329953
0 0.964125 0.0910089 0.0292719
0 0.964022 0.09111 0.0499247
0 0.964004 0.0911218 0.0523227
0 0.96408 0.0910426 0.0344585
0 0.963891 0.164418 9.54446
0 0.964092 0.0910281 0.029132
0 0.964039 0.091103 0.0407673
0 0.963958 0.0911487 0.0499616
0 0.964032 0.0911205 0.0444704
0 0.963887 0.0911594 0.047384
0 0.963971 0.0911515 0.0507073
0 0.963862 0.16396 10.0009
0 0.963907 0.0911618 0.0503959
0 0.964176 0.0909821 0.0253875
0 0.964134 0.0910037 0.0274834
0 0.964173 0.0909879 0.0252707
0 0.964142 0.0910028 0.0260982
0 0.963869 0.164233 9.94643
0 0.963941 0.0911895 0.0699929
0 0.964019 0.0911182 0.0516126
0 0.963975 0.0911622 0.0685528
0 0.964018 0.0911382 0.0588413
0 0.964202 0.0909581 0.0181066
0 0.964173 0.0909867 0.0244126
0 0.964126 0.0910108 0.0277289
0 0.964167 0.0909968 0.0249
0 0.964079 0.0910442 0.0364621
0 0.964127 0.0910084 0.0272755
0 0.963964 0.16372 9.31686
0 0.964104 0.0910309 0.0300134
0 0.964057 0.0911099 0.0443302
0 0.963987 0.0911571 0.0514913
0 0.964056 0.0911342 0.0502588
0 0.963924 0.0911915 0.0416462
0 0.96401 0.0911671 0.048404
0 0.963945 0.091259 0.0396174
0 0.964228 0.0909433 0.0144624
0 0.964227 0.0909438 0.013662
0 0.964207 0.0909534 0.0169512
0 0.964184 0.0909828 0.0226743
0 0.964153 0.0910046 0.0283365
0 0.964185 0.0909927 0.0253239
0 0.964237 0.0909319 0.0132336
0 0.9639 0.162995 7.52063
0 0.964028 0.0913077 0.171157
0 0.964011 0.0911564 0.0887238
0 0.964083 0.0910576 0.0403724
0 0.964043 0.0911211 0.0634022
0 0.964204 0.0909604 0.0168537
0 0.964175 0.0909884 0.0221914
0 0.964132 0.0910086 0.0275174
0 0.964171 0.0909867 0.0218154
0 0.964029 0.091331 0.188545
0 0.96408 0.163689 10.3691
0 0.964123 0.0910366 0.0343931
0 0.964086 0.0911232 0.0493109
0 0.964032 0.091187 0.0352717
0 0.964092 0.0911471 0.0492484
0 0.963951 0.0912543 0.0417792
0 0.964043 0.0911874 0.0274109
0 0.964169 0.0910077 0.0312663
0 0.964234 0.0909355 0.0102348
0 0.964247 0.0909139 0.00765916
0 0.964217 0.0909532 0.0177752
0 0.964201 0.0909864 0.0263021
0 0.964203 0.0909978 0.0309069
0 0.964242 0.0909296 0.0145114
0 0.964253 0.0908976 0.00829213
0 0.963926 0.0911789 0.0414439
0 0.963879 0.164633 10.1505
0 0.964133 0.0910104 0.0279808
0 0.964029 0.0911541 0.102101
0 0.964052 0.0911203 0.0747869
0 0.964096 0.0910533 0.043726
0 0.964004 0.091173 0.0980153
0 0.964207 0.0909597 0.0151379
0 0.964181 0.0909834 0.0199218
0 0.964236 0.0909383 0.00874433
0 0.964166 0.0910088 0.0243962
0 0.96393 0.0911913 0.0788859
0 0.963964 0.163804 9.41082
0 0.964144 0.0910426 0.0370363
0 0.964114 0.0911335 0.045391
0 0.964035 0.0911843 0.0371372
0 0.964106 0.0911527 0.0459715
0 0.964013 0.0911689 0.0486731
0 0.964177 0.0910111 0.0327025
0 0.964251 0.0909018 0.000748184
0 0.964227 0.0909534 0.0206885
0 0.964211 0.0909926 0.0301275
0 0.964247 0.0909251 0.0148423
0 0.964253 0.0909057 0.00863734
0 0.963909 0.0911604 0.0468803
0 0.963859 0.163706 9.75424
0 0.964129 0.0910141 0.0280351
0 0.964053 0.0911068 0.0697801
0 0.964089 0.091057 0.0477296
0 0.963962 0.0911612 0.0633939
0 0.964035 0.0911131 0.0600235
0 0.964217 0.0909536 0.0117344
0 0.964201 0.0909719 0.0146516
0 0.964238 0.0909373 0.00619643
0 0.96418 0.090995 0.0183145
0 0.964142 0.0910252 0.025298
0 0.963937 0.0911543 0.0431955
0 0.963846 0.0912189 0.0575303
0 0.963849 0.16324 9.45807
0 0.96415 0.0910443 0.0367986
0 0.964106 0.0911248 0.0470212
0 0.963994 0.0911557 0.0505144
0 0.964083 0.0911325 0.049881
0 0.964178 0.0910137 0.0325896
0 0.964206 0.0910018 0.0314261
0 0.964243 0.0909289 0.00607365
0 0.96423 0.090957 0.0217339
0 0.964246 0.0909361 0.0168066
0 0.964242 0.0909409 0.0127743
0 0.964244 0.090942 0.0164641
0 0.963983 0.0911508 0.0496279
0 0.963896 0.091153 0.0469005
0 0.963848 0.163929 9.71131
0 0.96409 0.0910422 0.0339165
0 0.964034 0.0911061 0.0411594
0 0.964019 0.091133 0.0372655
0 0.964128 0.0910281 0.023073
0 0.964214 0.0909564 0.00945851
0 0.964177 0.0909978 0.0161416
0 0.963952 0.0911676 0.0385256
0 0.963832 0.0912381 0.0277134
0 0.963753 0.162569 9.6306
0 0.96414 0.0910363 0.034734
0 0.964082 0.0911092 0.0457051
0 0.964062 0.0911347 0.0485475
0 0.964172 0.0910107 0.0311961
0 0.964207 0.0909936 0.0289669
0 0.964222 0.0909643 0.0127392
0 0.964221 0.0909809 0.0196757
0 0.964227 0.0909643 0.0222824
0 0.964225 0.0909731 0.0221315
0 0.963973 0.0911519 0.0487403
0 0.963887 0.0911442 0.0454318
0 0.96384 0.162832 9.55539
0 0.964089 0.0910486 0.0242621
0 0.964044 0.0911093 0.0325822
0 0.964141 0.0910157 0.0189434
0 0.96419 0.0909866 0.0155331
0 0.96404 0.0911228 0.0350193
0 0.963973 0.0911666 0.0426557
0 0.963915 0.0912678 0.050677
0 0.963825 0.164717 9.82682
0 0.964132 0.0910314 0.0324274
0 0.964074 0.0911133 0.0448493
0 0.964169 0.0910068 0.0306931
0 0.964201 0.0910016 0.0307572
0 0.964191 0.0909958 0.0203033
0 0.964195 0.0910019 0.0256819
0 0.964204 0.0909978 0.0296446
0 0.964196 0.0910074 0.0301626
0 0.964067 0.091131 0.0512421
0 0.963975 0.0911533 0.0478913
0 0.96388 0.0911435 0.0434346
0 0.963834 0.162047 9.48004
0 0.9641 0.0910379 0.0217675
0 0.96415 0.091006 0.0194386
0 0.96405 0.0911121 0.0339258
0 0.963966 0.0911728 0.038604
0 0.963914 0.0912737 0.0464099
0 0.963916 0.164764 9.58823
0 0.964132 0.0910325 0.0356006
0 0.964169 0.0910089 0.0328216
0 0.964157 0.0910035 0.0234192
0 0.964162 0.0910076 0.0288061
0 0.964168 0.0910083 0.03215
0 0.964092 0.0911176 0.0596195
0 0.96399 0.091164 0.0541724
0 0.963874 0.0911497 0.0366835
0 0.963819 0.163072 9.55982
0 0.964109 0.0910405 0.0260603
0 0.964037 0.0911287 0.0392324
0 0.963954 0.091155 0.0383262
0 0.963859 0.0911722 0.0306138
0 0.963832 0.163256 9.57864
0 0.964138 0.0910368 0.043643
0 0.964119 0.0910368 0.0310582
0 0.964132 0.0910375 0.0396126
0 0.964096 0.0911399 0.0748437
0 0.96403 0.0911941 0.0785227
0 0.963897 0.0912131 0.0420392
0 0.963808 0.163521 9.95095
0 0.964056 0.0911125 0.0402584
0 0.963957 0.0911483 0.0435939
0 0.963857 0.0911592 0.0383886
0 0.963799 0.162967 9.68113
0 0.96405 0.09113 0.0467827
0 0.964103 0.0911225 0.069353
0 0.964073 0.091116 0.0500611
0 0.964079 0.0911417 0.0648841
0 0.964053 0.0911991 0.0875289
0 0.964002 0.0913888 0.122005
0 0.963889 0.162623 9.46417
0 0.963962 0.0911518 0.0473275
0 0.963871 0.0911645 0.0488865
0 0.963807 0.163332 9.59889
0 0.96397 0.0911541 0.0498913
0 0.964027 0.0911974 0.0798703
0 0.963986 0.0911651 0.0559145
0 0.963995 0.0913574 0.115155
0 0.964018 0.160505 8.20562
0 0.963874 0.0911573 0.0461656
0 0.96383 0.16351 9.57797
0 0.963868 0.0911595 0.0382609
0 0.963896 0.091178 0.0440339
0 0.963883 0.161617 9.66797
0 0.963807 0.163354 9.77853
0 0.963811 0.162914 9.57394
VECTORS fa_u float
0.00911194 0.00380068 0
0.00853419 0.00494543 0
0.00936361 0.00248444 0
0.00986032 0.00129455 0
0.000171474 -8.62465e-06 0
0.0078325 0.00603526 0
0.00700214 0.00702332 0
8.9133e-05 -6.38028e-06 0
6.31546e-05 1.27765e-05 0
0.00593749 0.007735 0
0.00505397 0.00878594 0
0.00962075 2.70086e-05 0
0.00948894 -0.00128995 0
0.000149802 8.6836e-05 0
6.9786e-05 6.04365e-05 0
0.000118799 3.30414e-05 0
0.000110756 1.29131e-05 0
4.98821e-05 2.78368e-05 0
4.15138e-05 3.83412e-05 0
7.91404e-05 1.41678e-05 0
5.87481e-05 2.27345e-05 0
0.00377208 0.00916596 0
0.00259048 0.00977826 0
3.38575e-05 3.9933e-05 0
1.64023e-05 5.20825e-05 0
5.03033e-05 1.94611e-05 0
0.00941284 -0.00256574 0
5.14331e-05 -5.68438e-08 0
0.0092601 -0.00382304 0
0.000102403 4.28187e-05 0
7.07231e-05 2.93829e-05 0
9.01927e-05 2.65519e-05 0
0.00128303 0.00962324 0
8.32618e-05 2.20848e-05 0
8.05905e-05 1.80122e-05 0
4.48561e-05 3.19439e-05 0
3.50747e-05 3.80629e-05 0
5.70157e-05 2.08382e-05 0
4.68532e-05 2.67501e-05 0
1.63019e-05 6.59027e-05 0
1.54444e-05 7.74726e-05 0
2.48846e-05 4.5807e-05 0
1.8948e-05 5.28776e-05 0
-6.86126e-06 0.0104823 0
5.82245e-05 9.54635e-06 0
5.1492e-05 -1.42035e-05 0
5.29671e-05 -5.7851e-06 0
0.00819418 -0.00473472 0
4.55226e-05 -2.16842e-05 0
0.00784293 -0.00601843 0
7.07807e-05 1.97118e-05 0
6.048e-05 1.28508e-05 0
4.77708e-05 1.18381e-05 0
2.44101e-05 6.31533e-05 0
-2.33065e-05 5.63392e-05 0
4.58005e-05 1.38982e-05 0
3.42066e-05 3.06922e-05 0
2.74761e-05 3.83062e-05 0
3.25014e-05 1.86798e-05 0
1.57851e-05 6.00711e-05 0
1.21743e-05 6.09147e-05 0
2.05647e-05 4.23584e-05 0
1.68327e-05 5.05269e-05 0
-0.00122036 0.00938764 0
4.66353e-05 -1.998e-07 0
4.64375e-05 -1.88655e-05 0
4.34901e-05 -1.23993e-05 0
3.79256e-05 -3.37466e-05 0
4.00834e-05 -2.69379e-05 0
0.00688988 -0.00684508 0
3.49485e-05 -3.68231e-05 0
0.00581844 -0.00760619 0
3.29951e-05 8.19037e-06 0
3.71851e-05 3.27979e-06 0
3.12886e-05 3.39784e-06 0
-5.51927e-07 5.96542e-05 0
-1.66009e-05 7.03054e-05 0
-1.32203e-05 6.20693e-05 0
2.95843e-05 1.30441e-05 0
2.63773e-05 8.7515e-06 0
2.15913e-05 2.49501e-05 0
2.30808e-05 1.80034e-05 0
1.10997e-05 4.86752e-05 0
5.15336e-06 5.20683e-05 0
1.3156e-05 3.18481e-05 0
-0.00241258 0.00923451 0
2.76207e-05 -9.2614e-06 0
3.54066e-05 -2.02074e-05 0
3.48371e-05 -3.58125e-05 0
3.38173e-05 -2.88792e-05 0
2.5038e-05 -4.02286e-05 0
2.94916e-05 -4.12489e-05 0
0.0050288 -0.00864456 0
2.20633e-05 -4.53095e-05 0
2.51263e-05 3.63234e-06 0
2.69258e-05 -5.50805e-06 0
2.51598e-05 -2.36454e-06 0
2.15395e-05 -1.47366e-05 0
0.0038439 -0.00917366 0
-4.08014e-05 5.68704e-05 0
-2.61714e-06 5.15462e-05 0
-2.6826e-05 6.30861e-05 0
-1.43056e-05 5.70758e-05 0
1.74902e-05 4.68402e-06 0
2.08644e-05 1.26749e-05 0
1.60652e-05 2.26009e-05 0
1.74842e-05 1.77288e-05 0
5.61362e-06 3.60274e-05 0
9.57495e-06 2.55396e-05 0
-0.00357794 0.00860245 0
2.15634e-05 -2.08764e-05 0
2.77098e-05 -3.46025e-05 0
2.41192e-05 -4.5493e-05 0
2.5384e-05 -4.33774e-05 0
3.14174e-05 -2.73377e-05 0
2.24033e-05 -4.29073e-05 0
2.47577e-05 3.09289e-05 0
1.44557e-05 -4.41744e-07 0
1.26583e-05 5.13988e-06 0
1.66091e-05 -3.38829e-06 0
2.04647e-05 -9.76317e-06 0
1.60823e-05 -2.33306e-05 0
1.76825e-05 -1.81282e-05 0
1.13325e-05 -6.834e-06 0
0.00192356 -0.00727048 0
-0.000132466 0.000108384 0
-4.75744e-05 7.48905e-05 0
-4.07e-06 4.01667e-05 0
-2.31897e-05 5.90091e-05 0
1.27461e-05 1.10266e-05 0
1.10745e-05 1.92306e-05 0
3.15528e-06 2.73359e-05 0
6.03766e-06 2.09633e-05 0
-2.57119e-05 0.000186783 0
-0.00519709 0.0089727 0
1.60271e-05 -3.04305e-05 0
2.02958e-05 -4.49405e-05 0
1.82304e-05 -3.01951e-05 0
1.82839e-05 -4.57286e-05 0
-4.1172e-05 7.09708e-06 0
5.42614e-06 -2.68684e-05 0
1.12038e-05 -2.91901e-05 0
7.15836e-06 7.31499e-06 0
7.65154e-06 -3.41504e-07 0
1.22986e-05 -1.28336e-05 0
1.25948e-05 -2.30905e-05 0
8.81088e-06 -2.96244e-05 0
6.91645e-06 -1.27571e-05 0
3.47192e-06 -7.53029e-06 0
-9.05667e-06 -4.04422e-05 0
0.00131364 -0.0100652 0
-3.12389e-06 2.78059e-05 0
-4.45158e-05 9.18858e-05 0
-2.98045e-05 6.85914e-05 0
-1.16288e-05 4.21513e-05 0
-2.94709e-05 9.34797e-05 0
5.83169e-06 1.39695e-05 0
1.30151e-06 1.98793e-05 0
2.48653e-06 8.38335e-06 0
-4.5453e-06 2.39691e-05 0
-1.76971e-05 7.68752e-05 0
-0.00572187 0.00747153 0
1.08272e-05 -3.54183e-05 0
1.24849e-05 -4.36402e-05 0
-2.52895e-06 -3.7051e-05 0
7.70933e-06 -4.53204e-05 0
2.57614e-07 -4.86724e-05 0
6.58306e-06 -3.20331e-05 0
6.87325e-07 -2.95572e-07 0
5.88776e-06 -1.9833e-05 0
4.26115e-06 -2.98246e-05 0
1.37588e-06 -1.47784e-05 0
-2.77148e-06 -8.18062e-06 0
-1.75325e-06 -4.68475e-05 0
-9.30648e-06 -0.00975423 0
-9.9856e-06 2.61964e-05 0
-2.64969e-05 6.45536e-05 0
-1.9314e-05 4.36472e-05 0
-2.33177e-05 5.89497e-05 0
-2.4209e-05 5.49249e-05 0
-3.57707e-07 1.17289e-05 0
-3.4764e-06 1.42333e-05 0
-3.46247e-06 5.13878e-06 0
-8.7528e-06 1.60875e-05 0
-1.4005e-05 2.10677e-05 0
-2.48965e-05 3.5299e-05 0
-5.30882e-06 5.72848e-05 0
-0.00666801 0.00670765 0
6.02483e-06 -3.63021e-05 0
4.99847e-06 -4.67548e-05 0
-2.40953e-06 -5.04569e-05 0
8.94935e-07 -4.9873e-05 0
1.96167e-06 -3.25305e-05 0
-1.77642e-06 -3.13758e-05 0
-5.93133e-06 -1.30711e-06 0
-1.48838e-06 -2.16829e-05 0
-4.15362e-06 -1.62852e-05 0
-9.91229e-06 -8.05785e-06 0
-8.92106e-06 -1.38377e-05 0
-8.9185e-06 -4.882e-05 0
-4.48411e-06 -4.66856e-05 0
-0.00127156 -0.0096277 0
-1.71104e-05 2.92842e-05 0
-2.29853e-05 3.41434e-05 0
-2.82421e-05 2.43126e-05 0
-1.65255e-05 1.6102e-05 0
-7.89247e-06 5.21271e-06 0
-1.33891e-05 9.01563e-06 0
-3.38191e-05 1.84524e-05 0
-2.60196e-05 9.5401e-06 0
-0.00762716 0.00588004 0
-1.52291e-09 -3.4734e-05 0
-4.08765e-06 -4.5522e-05 0
-1.31856e-05 -4.67225e-05 0
-5.25797e-06 -3.07498e-05 0
-8.28824e-06 -2.77559e-05 0
-1.26536e-05 -1.474e-06 0
-1.75726e-05 -8.85087e-06 0
-1.01708e-05 -1.98257e-05 0
-1.6025e-05 -1.52644e-05 0
-1.76249e-05 -4.54421e-05 0
-1.25869e-05 -4.36534e-05 0
-0.00247292 -0.00922985 0
-1.91298e-05 1.49231e-05 0
-2.95935e-05 1.36317e-05 0
-1.81406e-05 5.45621e-06 0
-1.55058e-05 9.21111e-07 0
-3.40708e-05 8.09534e-06 0
-3.93258e-05 1.65224e-05 0
-4.987e-05 9.00774e-06 0
-0.00853917 0.00486303 0
-8.94132e-06 -3.11704e-05 0
-2.01889e-05 -4.00484e-05 0
-1.31853e-05 -2.77167e-05 0
-1.5862e-05 -2.63515e-05 0
-1.95105e-05 -5.61808e-06 0
-2.22316e-05 -1.28575e-05 0
-1.99611e-05 -2.19171e-05 0
-2.38866e-05 -1.84176e-05 0
-3.4675e-05 -3.77279e-05 0
-2.66556e-05 -3.97876e-05 0
-1.74213e-05 -3.97877e-05 0
-0.00362291 -0.00876046 0
-2.15847e-05 2.81493e-06 0
-1.92557e-05 -2.66034e-06 0
-3.39128e-05 -9.39734e-07 0
-3.80827e-05 6.32259e-06 0
-3.486e-05 3.06375e-05 0
-0.00883808 0.00371786 0
-2.20964e-05 -2.79132e-05 0
-2.1322e-05 -2.49525e-05 0
-2.1074e-05 -1.02148e-05 0
-2.32554e-05 -1.69993e-05 0
-2.38582e-05 -2.15503e-05 0
-4.66952e-05 -3.70681e-05 0
-4.41426e-05 -3.14018e-05 0
-2.3546e-05 -2.81295e-05 0
-0.00474624 -0.0082984 0
-2.52622e-05 -6.40033e-06 0
-3.86679e-05 -6.63116e-06 0
-3.81744e-05 -3.4074e-06 0
-3.03911e-05 -3.68586e-06 0
-0.00923707 0.00253511 0
-3.26351e-05 -2.8977e-05 0
-2.68739e-05 -1.55694e-05 0
-3.04074e-05 -2.5388e-05 0
-6.0071e-05 -4.46438e-05 0
-6.95795e-05 -3.63936e-05 0
-4.14742e-05 -6.86891e-06 0