# vtk DataFile Version 2.0
CellBP Time: 1.32
ASCII
DATASET UNSTRUCTURED_GRID
POINTS 296 double
-9.12664 -3.75106 0
-8.55316 -4.91706 0
-9.54465 -2.52091 0
-9.79841 -1.24655 0
-8.3573 -2.81858 0
-7.83084 -5.99724 0
-6.9744 -6.9743 0
-7.91694 -3.87451 0
-7.34235 -4.86771 0
-5.99698 -7.83052 0
-4.91673 -8.55258 0
-9.88353 0.0499954 0
-9.79885 1.34662 0
-8.65739 -1.68386 0
-8.78604 -0.529592 0
-7.58937 -2.00401 0
-7.22542 -2.90631 0
-6.63744 -5.77876 0
-5.82225 -6.59677 0
-6.78996 -3.88872 0
-6.2203 -4.67573 0
-3.7514 -9.12721 0
-2.52062 -9.54382 0
-4.90633 -7.30867 0
-3.91289 -7.88608 0
-8.79249 0.643377 0
-9.54489 2.621 0
-8.62303 1.77407 0
-9.12977 3.85236 0
-7.74396 -0.928937 0
-7.79421 0.0802693 0
-6.95229 -1.31582 0
-1.24657 -9.79869 0
-6.44124 -2.15302 0
-6.31911 -3.05599 0
-5.53631 -5.47438 0
-4.79572 -6.11528 0
-5.65881 -3.75686 0
-5.26917 -4.56142 0
-2.86605 -8.36378 0
-1.77846 -8.64014 0
-3.92799 -6.72335 0
-3.05648 -7.15241 0
0.049934 -9.88412 0
-7.70522 1.1435 0
-8.33845 2.91544 0
-7.55163 2.11193 0
-8.55273 5.01674 0
-7.88 3.97815 0
-7.83114 6.09742 0
-6.77847 -0.396844 0
-6.9563 0.55255 0
-5.77129 -1.00338 0
-0.590932 -8.80963 0
0.565553 -8.77066 0
-5.30301 -2.48022 0
-4.4918 -5.09558 0
-3.90235 -5.77515 0
-4.43881 -3.80469 0
-2.06233 -7.56179 0
-1.13546 -7.78569 0
-2.99443 -6.10191 0
-2.30892 -6.61963 0
1.34645 -9.79736 0
-6.68928 1.42203 0
-7.17201 3.11805 0
-6.65908 2.37296 0
-7.29467 4.9886 0
-6.71794 4.00298 0
-6.97449 7.07447 0
-6.57245 5.89412 0
-5.9975 7.93123 0
-4.453 -1.18103 0
-5.81452 0.513757 0
-4.65605 -0.010363 0
0.00844985 -7.84793 0
1.73859 -8.64363 0
0.948902 -7.76324 0
-4.03841 -2.40633 0
-3.48542 -1.39114 0
-3.29443 -4.80528 0
-3.26578 -3.26771 0
-1.37855 -6.67537 0
-0.508758 -7.02485 0
-1.97551 -5.53698 0
2.62138 -9.54616 0
-5.50729 2.03692 0
-6.09463 3.07217 0
-6.10501 4.86958 0
-5.76164 3.99144 0
-5.76133 6.7172 0
-5.45208 5.61934 0
-4.9171 8.65324 0
-4.83851 7.40466 0
-3.50138 -0.42427 0
-4.44922 1.24904 0
-3.71135 0.592083 0
-4.0621 2.3198 0
-3.75151 9.22765 0
2.86264 -8.3329 0
0.419662 -6.79537 0
2.022 -7.52579 0
1.30604 -6.9055 0
-2.44457 -0.87377 0
-2.83828 -2.13106 0
-2.29435 -4.09732 0
-2.32556 -2.97352 0
-0.442369 -5.86117 0
-1.22269 -4.49909 0
3.85176 -9.12814 0
-4.78981 3.39182 0
-5.08792 4.59416 0
-4.64718 6.28148 0
-4.53885 5.35974 0
-3.8438 7.99356 0
-3.82676 6.8458 0
-2.78336 8.42307 0
-1.64894 -0.13787 0
-1.45017 -0.890528 0
-2.48902 0.507272 0
-3.25353 1.44414 0
-3.23899 3.31656 0
-2.91089 2.37174 0
-1.35501 0.6271 0
-2.52109 9.64549 0
3.93278 -7.88717 0
2.96458 -7.15783 0
0.954094 -5.82204 0
2.07432 -6.41553 0
-1.68291 -1.99199 0
-1.43439 -3.2777 0
0.0902325 -4.74698 0
-0.566157 -3.69437 0
4.93223 -7.31899 0
5.01734 -8.55367 0
-3.777 4.5517 0
-3.73479 5.75222 0
-2.88801 7.29001 0
-3.00972 6.35383 0
-1.6626 8.73398 0
-1.94014 7.61954 0
-2.33837 4.0517 0
-0.730684 -1.32718 0
-0.836834 -0.257593 0
-1.93613 1.68076 0
-2.1257 2.87581 0
-1.30653 3.54465 0
-0.869398 1.35079 0
-0.282333 0.45603 0
-0.533538 8.87206 0
-1.24653 9.89835 0
1.11279 -4.57461 0
3.91022 -6.71746 0
2.98796 -6.09482 0
2.1179 -5.42502 0
4.78457 -6.2055 0
-0.558832 -2.47674 0
0.495116 -3.46378 0
0.0535629 -1.6104 0
1.48188 -3.68209 0
5.86745 -6.61491 0
6.09837 -7.83238 0
-2.47574 5.34864 0
-2.13049 6.53465 0
-0.904091 7.80358 0
-1.27237 6.93227 0
0.0862173 7.88069 0
-1.14445 4.49476 0
0.150322 -0.617623 0
-0.797382 2.48847 0
-0.331614 3.6007 0
0.0631319 1.51268 0
0.741426 0.473404 0
0.646828 8.87476 0
0.0500116 9.98611 0
2.38103 -4.28531 0
3.85931 -5.6406 0
3.00152 -5.21291 0
5.57402 -5.49204 0
4.69123 -5.28327 0
0.629669 -2.2933 0
1.25616 -2.9512 0
0.757457 -1.3914 0
2.16433 -3.13582 0
2.9938 -3.47661 0
6.15555 -4.79203 0
6.65608 -5.76968 0
7.07469 -6.97469 0
-1.01967 5.82061 0
-0.372621 6.88393 0
1.12269 7.77002 0
0.558006 7.08019 0
-0.00075215 4.72529 0
0.607021 3.82784 0
1.33888 -0.641879 0
0.539117 2.65103 0
0.966086 1.57489 0
1.91017 0.213854 0
1.61474 1.06499 0
2.12954 7.58413 0
1.79935 8.71315 0
1.34658 9.89864 0
3.823 -4.3518 0
5.1169 -4.44927 0
5.84615 -3.93536 0
3.78413 -3.20116 0
1.81227 -1.88263 0
3.01921 -2.57396 0
6.78395 -3.94816 0
7.38219 -4.89723 0
7.93147 -5.99771 0
0.483386 5.88194 0
1.42828 6.74244 0
2.37452 6.66963 0
1.21004 4.55638 0
1.48822 3.3977 0
2.43581 -0.69202 0
2.82807 0.142594 0
1.78892 2.16286 0
2.61192 1.15014 0
3.07231 7.17082 0
2.90454 8.3778 0
2.62129 9.64616 0
4.91166 -3.32811 0
6.12128 -3.10895 0
4.1731 -2.27539 0
3.24454 -1.50297 0
6.73209 -2.31327 0
7.23287 -3.04284 0
7.96592 -3.91272 0
8.653 -4.91698 0
2.0238 5.60036 0
3.08686 6.15431 0
2.36408 4.12719 0
2.42019 3.061 0
3.52582 -0.460891 0
3.61586 0.613303 0
2.96196 2.28817 0
3.54577 1.52533 0
4.01276 5.899 0
3.98513 6.79429 0
3.97402 7.94014 0
3.85202 9.22891 0
5.5695 -1.91636 0
4.50961 -1.1297 0
6.715 -1.33632 0
7.59381 -2.03675 0
8.39873 -2.86186 0
9.22756 -3.75149 0
3.4196 4.87771 0
3.33933 3.38571 0
4.69176 0.130078 0
4.51965 1.3101 0
4.06576 2.44405 0
4.57152 5.15356 0
4.84478 6.19219 0
4.98161 7.38219 0
5.01699 8.6531 0
5.88449 -0.434964 0
7.0124 -0.488342 0
7.76132 -1.08552 0
8.68689 -1.74633 0
9.64584 -2.52119 0
4.55332 3.82832 0
5.81894 1.0988 0
5.37237 2.53545 0
5.38155 4.62185 0
5.61375 5.5251 0
5.89887 6.6738 0
6.09759 7.93134 0
6.84794 0.46366 0
7.85557 -0.0256516 0
8.86293 -0.584491 0
9.89959 -1.24673 0
6.96256 1.34984 0
5.72279 3.77957 0
6.54344 2.19815 0
6.38222 3.08895 0
6.29451 4.68852 0
6.6953 5.83974 0
7.07498 7.0749 0
7.78685 0.967911 0
8.86228 0.57293 0
9.98444 0.0499806 0
7.61877 2.00495 0
6.83156 3.90562 0
7.27207 2.94781 0
7.38087 4.88749 0
7.93329 6.09907 0
8.72589 1.72748 0
9.89931 1.34665 0
8.42383 2.83873 0
7.98436 3.91765 0
8.65355 5.0173 0
9.64575 2.62115 0
9.22797 3.85164 0
CELLS 542 2168
3 2 0 4
3 0 1 7
3 4 0 7
3 1 5 8
3 7 1 8
3 3 2 13
3 13 2 4
3 11 3 14
3 14 3 13
3 13 4 15
3 4 7 16
3 15 4 16
3 5 6 17
3 8 5 17
3 6 9 18
3 17 6 18
3 7 8 19
3 16 7 19
3 8 17 20
3 19 8 20
3 9 10 23
3 18 9 23
3 10 21 24
3 23 10 24
3 12 11 25
3 25 11 14
3 26 12 27
3 27 12 25
3 14 13 29
3 29 13 15
3 25 14 30
3 30 14 29
3 29 15 31
3 15 16 33
3 31 15 33
3 16 19 34
3 33 16 34
3 17 18 35
3 20 17 35
3 18 23 36
3 35 18 36
3 19 20 37
3 34 19 37
3 20 35 38
3 37 20 38
3 21 22 39
3 24 21 39
3 22 32 40
3 39 22 40
3 23 24 41
3 36 23 41
3 24 39 42
3 41 24 42
3 27 25 44
3 44 25 30
3 28 26 45
3 45 26 27
3 45 27 46
3 46 27 44
3 47 28 48
3 48 28 45
3 30 29 50
3 50 29 31
3 44 30 51
3 51 30 50
3 50 31 52
3 31 33 52
3 32 43 53
3 40 32 53
3 53 43 54
3 33 34 55
3 34 37 55
3 33 55 52
3 35 36 56
3 38 35 56
3 36 41 57
3 56 36 57
3 37 38 58
3 38 56 58
3 37 58 55
3 39 40 59
3 42 39 59
3 40 53 60
3 59 40 60
3 41 42 61
3 57 41 61
3 42 59 62
3 61 42 62
3 43 63 54
3 46 44 64
3 64 44 51
3 48 45 65
3 65 45 46
3 65 46 66
3 66 46 64
3 49 47 67
3 67 47 48
3 67 48 68
3 68 48 65
3 69 49 70
3 70 49 67
3 52 55 72
3 64 51 73
3 51 50 73
3 50 52 73
3 73 52 74
3 74 52 72
3 53 54 75
3 60 53 75
3 54 63 76
3 54 76 77
3 75 54 77
3 55 58 78
3 72 55 78
3 72 78 79
3 56 57 80
3 57 61 80
3 56 80 58
3 58 80 81
3 78 58 81
3 59 60 82
3 62 59 82
3 60 75 83
3 82 60 83
3 61 62 84
3 62 82 84
3 61 84 80
3 63 85 76
3 66 64 86
3 64 73 86
3 68 65 87
3 87 65 66
3 87 66 86
3 70 67 88
3 88 67 68
3 88 68 89
3 89 68 87
3 71 69 90
3 90 69 70
3 90 70 91
3 91 70 88
3 92 71 93
3 93 71 90
3 74 72 94
3 94 72 79
3 86 73 95
3 95 73 74
3 95 74 96
3 96 74 94
3 97 86 95
3 76 85 99
3 75 77 100
3 83 75 100
3 76 99 101
3 77 76 101
3 77 101 102
3 100 77 102
3 94 79 103
3 78 81 104
3 79 78 104
3 79 104 103
3 80 84 105
3 81 80 105
3 81 105 106
3 104 81 106
3 82 83 107
3 83 100 107
3 82 107 84
3 84 107 108
3 105 84 108
3 85 109 99
3 89 87 110
3 87 86 110
3 110 86 97
3 91 88 111
3 111 88 89
3 111 89 110
3 93 90 112
3 112 90 91
3 112 91 113
3 113 91 111
3 98 92 114
3 114 92 93
3 114 93 115
3 115 93 112
3 116 98 114
3 117 103 118
3 96 94 119
3 94 103 119
3 119 103 117
3 97 95 120
3 120 95 96
3 120 96 119
3 121 110 97
3 121 97 122
3 122 97 120
3 123 119 117
3 124 98 116
3 99 109 125
3 99 125 126
3 101 99 126
3 100 102 127
3 100 127 107
3 101 126 128
3 102 101 128
3 102 128 127
3 104 106 129
3 104 129 103
3 103 129 118
3 105 108 130
3 106 105 130
3 106 130 129
3 107 127 131
3 108 107 131
3 108 131 132
3 108 132 130
3 109 134 125
3 125 134 133
3 113 111 135
3 111 110 135
3 135 110 121
3 115 112 136
3 136 112 113
3 136 113 135
3 116 114 137
3 137 114 115
3 137 115 138
3 138 115 136
3 139 124 116
3 139 116 140
3 140 116 137
3 141 135 121
3 118 129 142
3 118 142 143
3 117 118 143
3 123 117 143
3 122 120 144
3 120 119 144
3 144 119 123
3 141 121 145
3 145 121 122
3 145 122 144
3 146 141 145
3 147 144 123
3 147 123 148
3 143 148 123
3 150 124 139
3 149 150 139
3 131 127 151
3 125 133 152
3 126 125 152
3 126 152 153
3 128 126 153
3 128 153 154
3 128 154 127
3 127 154 151
3 152 133 155
3 130 132 156
3 130 156 129
3 129 156 142
3 131 151 157
3 132 131 157
3 132 157 156
3 156 158 142
3 157 151 159
3 133 160 155
3 134 161 133
3 133 161 160
3 138 136 162
3 136 135 162
3 162 135 141
3 140 137 163
3 163 137 138
3 163 138 162
3 149 139 164
3 164 139 140
3 164 140 165
3 165 140 163
3 166 149 164
3 167 162 141
3 167 141 146
3 142 158 168
3 143 142 168
3 143 168 148
3 146 145 169
3 145 144 169
3 169 144 147
3 170 167 146
3 170 146 169
3 171 169 147
3 171 147 148
3 171 148 172
3 168 172 148
3 173 149 166
3 174 150 149
3 173 174 149
3 154 175 151
3 151 175 159
3 152 155 176
3 153 152 176
3 153 176 177
3 153 177 154
3 154 177 175
3 155 160 178
3 155 178 179
3 176 155 179
3 156 157 180
3 156 180 158
3 157 159 181
3 157 181 180
3 158 180 182
3 158 182 168
3 159 175 183
3 159 183 181
3 175 184 183
3 160 186 178
3 178 186 185
3 161 187 160
3 160 187 186
3 165 163 188
3 163 162 188
3 188 162 167
3 166 164 189
3 189 164 165
3 189 165 188
3 190 173 166
3 190 166 191
3 191 166 189
3 192 188 167
3 192 167 170
3 193 192 170
3 182 194 168
3 194 172 168
3 193 170 195
3 170 169 195
3 195 169 171
3 196 195 171
3 196 171 172
3 194 197 172
3 197 198 172
3 198 196 172
3 200 173 190
3 199 200 190
3 201 174 173
3 200 201 173
3 176 179 202
3 177 176 202
3 177 202 175
3 175 202 184
3 178 185 203
3 178 203 179
3 179 203 202
3 203 185 204
3 202 205 184
3 183 206 181
3 180 181 206
3 180 206 182
3 182 206 194
3 183 184 207
3 205 207 184
3 183 207 206
3 185 208 204
3 186 209 185
3 185 209 208
3 187 210 186
3 186 210 209
3 191 189 211
3 189 188 211
3 211 188 192
3 199 190 212
3 212 190 191
3 212 191 211
3 213 199 212
3 214 211 192
3 214 192 193
3 215 214 193
3 215 193 195
3 206 216 194
3 216 197 194
3 216 217 197
3 215 195 218
3 218 195 196
3 198 218 196
3 217 219 197
3 219 218 198
3 197 219 198
3 220 199 213
3 221 200 199
3 220 221 199
3 222 201 200
3 221 222 200
3 203 204 223
3 203 223 202
3 202 223 205
3 204 208 224
3 204 224 223
3 205 223 225
3 205 225 207
3 207 225 226
3 207 226 206
3 226 216 206
3 208 228 224
3 224 228 227
3 209 229 208
3 229 228 208
3 210 230 209
3 209 230 229
3 213 212 231
3 212 211 231
3 231 211 214
3 232 220 213
3 232 213 231
3 233 231 214
3 233 214 215
3 234 233 215
3 234 215 218
3 226 235 216
3 235 217 216
3 235 236 217
3 217 236 219
3 237 234 218
3 237 218 219
3 236 238 219
3 238 237 219
3 240 220 232
3 239 240 232
3 241 221 220
3 240 241 220
3 242 222 221
3 241 242 221
3 224 227 243
3 224 243 223
3 223 243 225
3 225 243 244
3 225 244 226
3 226 244 235
3 227 245 243
3 228 246 227
3 227 246 245
3 229 247 228
3 228 247 246
3 230 248 229
3 229 248 247
3 239 232 249
3 232 231 249
3 249 231 233
3 250 249 233
3 250 233 234
3 237 250 234
3 244 251 235
3 235 251 236
3 251 252 236
3 236 252 238
3 252 253 238
3 253 250 237
3 253 237 238
3 254 239 249
3 255 240 239
3 254 255 239
3 256 241 240
3 255 256 240
3 257 242 241
3 256 257 241
3 245 258 243
3 243 258 244
3 244 258 251
3 245 259 258
3 246 260 245
3 245 260 259
3 247 261 246
3 246 261 260
3 248 262 247
3 247 262 261
3 254 249 263
3 263 249 250
3 253 263 250
3 258 264 251
3 251 264 252
3 264 265 252
3 265 263 253
3 252 265 253
3 266 254 263
3 267 255 254
3 266 267 254
3 268 256 255
3 267 268 255
3 269 257 256
3 268 269 256
3 259 270 258
3 270 264 258
3 260 271 259
3 259 271 270
3 261 272 260
3 260 272 271
3 262 273 261
3 273 272 261
3 270 274 264
3 275 266 263
3 275 263 265
3 274 276 264
3 276 265 264
3 276 277 265
3 277 275 265
3 278 267 266
3 275 278 266
3 279 268 267
3 278 279 267
3 280 269 268
3 279 280 268
3 271 281 270
3 270 281 274
3 272 282 271
3 271 282 281
3 273 283 272
3 272 283 282
3 281 284 274
3 274 284 276
3 285 278 275
3 277 285 275
3 284 286 276
3 286 285 277
3 276 286 277
3 287 279 278
3 285 287 278
3 288 280 279
3 287 288 279
3 282 289 281
3 281 289 284
3 283 290 282
3 282 290 289
3 289 291 284
3 284 291 286
3 291 292 286
3 292 287 285
3 286 292 285
3 293 288 287
3 292 293 287
3 290 294 289
3 289 294 291
3 294 295 291
3 295 293 292
3 291 295 292
CELL_TYPES 542
5
5
5
5
5
5
5
5
5
5
5
5
5
5
5
5
5
5
5
5
5
5
5
5
5
5
5
5
5
5
5
5
5
5
5
5
5
5
5
5
5
5
5
5
5
5
5
5
5
5
5
5
5
5
5
5
5
5
5
5
5
5
5
5
5
5
5
5
5
5
5
5
5
5
5
5
5
5
5
5
5
5
5
5
5
5
5
5
5
5
5
5
5
5
5
5
5
5
5
5
5
5
5
5
5
5
5
5
5
5
5
5
5
5
5
5
5
5
5
5
5
5
5
5
5
5
5
5
5
5
5
5
5
5
5
5
5
5
5
5
5
5
5
5
5
5
5
5
5
5
5
5
5
5
5
5
5
5
5
5
5
5
5
5
5
5
5
5
5
5
5
5
5
5
5
5
5
5
5
5
5
5
5
5
5
5
5
5
5
5
5
5
5
5
5
5
5
5
5
5
5
5
5
5
5
5
5
5
5
5
5
5
5
5
5
5
5
5
5
5
5
5
5
5
5
5
5
5
5
5
5
5
5
5
5
5
5
5
5
5
5
5
5
5
5
5
5
5
5
5
5
5
5
5
5
5
5
5
5
5
5
5
5
5
5
5
5
5
5
5
5
5
5
5
5
5
5
5
5
5
5
5
5
5
5
5
5
5
5
5
5
5
5
5
5
5
5
5
5
5
5
5
5
5
5
5
5
5
5
5
5
5
5
5
5
5
5
5
5
5
5
5
5
5
5
5
5
5
5
5
5
5
5
5
5
5
5
5
5
5
5
5
5
5
5
5
5
5
5
5
5
5
5
5
5
5
5
5
5
5
5
5
5
5
5
5
5
5
5
5
5
5
5
5
5
5
5
5
5
5
5
5
5
5
5
5
5
5
5
5
5
5
5
5
5
5
5
5
5
5
5
5
5
5
5
5
5
5
5
5
5
5
5
5
5
5
5
5
5
5
5
5
5
5
5
5
5
5
5
5
5
5
5
5
5
5
5
5
5
5
5
5
5
5
5
5
5
5
5
5
5
5
5
5
5
5
5
5
5
5
5
5
5
5
5
5
5
5
5
5
5
5
5
5
5
5
5
5
5
5
5
5
5
5
5
5
5
5
5
5
5
5
5
5
5
5
5
5
5
5
5
5
5
5
5
5
5
5
5
5
5
5
5
5
5
5
5
5
5
5
5
5
5
5
5
5
5
5
5
5
5
5
5
5
5
5
5
5
5
5
5
5
POINT_DATA 296
SCALARS concentrations float 4
LOOKUP_TABLE default
0 0.986751 0.160813 10.671
0 0.986926 0.160609 9.57837
0 0.986632 0.160529 10.5015
0 0.9866 0.16001 10.4746
0 0.986723 0.0912277 0.0723304
0 0.986747 0.160256 10.5865
0 0.986623 0.160201 10.476
0 0.986865 0.0913518 0.132814
0 0.986862 0.0913633 0.139881
0 0.986591 0.160255 10.5313
0 0.986564 0.160398 10.4541
0 0.986597 0.159283 10.6158
0 0.986627 0.159594 10.2068
0 0.986674 0.0912034 0.0654462
0 0.986656 0.0911923 0.057532
0 0.986805 0.0912277 0.0849836
0 0.986854 0.0912501 0.107286
0 0.986715 0.0912285 0.0768533
0 0.986659 0.0912052 0.0696735
0 0.986883 0.0912546 0.116466
0 0.986845 0.0912544 0.109997
0 0.986547 0.161407 10.874
0 0.986459 0.162143 10.7823
0 0.986631 0.0912008 0.0657364
0 0.986608 0.091205 0.0638948
0 0.986674 0.0912289 0.0663231
0 0.9866 0.158984 10.908
0 0.98668 0.0912459 0.0683939
0 0.986583 0.158153 8.29579
0 0.986781 0.0912171 0.072792
0 0.986784 0.0912125 0.069175
0 0.986886 0.0911754 0.0739894
0 0.986353 0.158356 10.298
0 0.986912 0.0911641 0.0832377
0 0.986916 0.0911965 0.100974
0 0.986787 0.0912282 0.0862255
0 0.98675 0.0912184 0.074481
0 0.98692 0.0911764 0.0944642
0 0.986885 0.0911999 0.0914745
0 0.986576 0.0912189 0.0686896
0 0.986477 0.0912731 0.0724583
0 0.986728 0.0912149 0.0644936
0 0.986703 0.0912164 0.0552552
0 0.986558 0.159716 9.89414
0 0.986795 0.0912307 0.0629287
0 0.986662 0.0912792 0.067607
0 0.986804 0.0912556 0.0455332
0 0.986613 0.159081 10.7279
0 0.986669 0.0912663 0.0589574
0 0.986619 0.158762 10.4487
0 0.986897 0.0911595 0.065204
0 0.986888 0.091184 0.0640612
0 0.986965 0.0910686 0.0524405
0 0.986514 0.0913114 0.117064
0 0.986704 0.0913734 0.192328
0 0.986965 0.0910753 0.0625631
0 0.986874 0.0911721 0.072768
0 0.986838 0.091185 0.0635637
0 0.986951 0.0910828 0.0608206
0 0.986677 0.0912166 0.031894
0 0.98667 0.0912074 0.0167281
0 0.986842 0.0911712 0.0502609
0 0.986806 0.0911876 0.0377508
0 0.986753 0.158006 12.1426
0 0.986917 0.091171 0.0537283
0 0.986804 0.0912485 0.021931
0 0.986908 0.0912033 0.0460162
0 0.986684 0.0912018 0.0467113
0 0.986808 0.091235 0.0350384
0 0.986613 0.158648 10.3513
0 0.986675 0.0911872 0.0517744
0 0.986608 0.158717 10.3482
0 0.98701 0.0910347 0.0462866
0 0.986973 0.091073 0.0461849
0 0.987018 0.0910356 0.0433017
0 0.98672 0.0912359 0.0847156
0 0.986763 0.0913286 0.177107
0 0.986787 0.091223 0.115749
0 0.987005 0.0910379 0.0470831
0 0.987051 0.0910206 0.0418032
0 0.986931 0.0910811 0.0467708
0 0.986994 0.0910434 0.0437936
0 0.986823 0.0911518 0.0208036
0 0.98681 0.0911649 0.0381884
0 0.986918 0.0910795 0.0299196
0 0.986709 0.158911 9.59919
0 0.986983 0.0910762 0.0397893
0 0.986924 0.0911784 0.043288
0 0.9868 0.0912216 0.0537537
0 0.986905 0.0911941 0.0495224
0 0.986668 0.0911825 0.0546402
0 0.986789 0.0912126 0.0592566
0 0.986601 0.158713 10.2621
0 0.98666 0.0911814 0.0560108
0 0.987065 0.0910097 0.0387192
0 0.987025 0.09104 0.0397512
0 0.987065 0.0910184 0.0387744
0 0.987031 0.0910379 0.0362265
0 0.986586 0.159074 10.4797
0 0.986724 0.0912002 0.0769163
0 0.986854 0.0911595 0.0631418
0 0.986809 0.0911988 0.108978
0 0.986866 0.0911718 0.0876503
0 0.98709 0.09098 0.0298351
0 0.987053 0.0910148 0.0370556
0 0.986986 0.0910432 0.0348397
0 0.987041 0.0910268 0.034656
0 0.986921 0.0910772 0.0278081
0 0.986985 0.0910373 0.0263459
0 0.986667 0.158561 10.1051
0 0.986984 0.0910744 0.038074
0 0.986913 0.0911684 0.0531807
0 0.986777 0.0912077 0.0605756
0 0.986886 0.0911866 0.0580213
0 0.98665 0.0911852 0.0547861
0 0.986769 0.0912052 0.059025
0 0.986638 0.091186 0.050512
0 0.98712 0.0909626 0.0252964
0 0.987116 0.0909628 0.0228072
0 0.9871 0.090975 0.0285917
0 0.987077 0.0910125 0.035062
0 0.987029 0.0910356 0.0340144
0 0.987074 0.0910233 0.034968
0 0.987131 0.0909489 0.0218022
0 0.986575 0.158906 10.3396
0 0.986728 0.0912091 0.0715156
0 0.986821 0.0911948 0.0881549
0 0.986941 0.0910893 0.0504719
0 0.986893 0.0911643 0.085188
0 0.987087 0.090982 0.0247498
0 0.987048 0.0910148 0.0261297
0 0.986997 0.0910361 0.0288994
0 0.987044 0.091011 0.0226937
0 0.986771 0.0913374 0.117646
0 0.986695 0.158542 10.4298
0 0.986975 0.0910695 0.0378882
0 0.986895 0.0911625 0.053036
0 0.98676 0.0912051 0.0558404
0 0.98687 0.0911772 0.0531176
0 0.986635 0.0911917 0.0449324
0 0.986756 0.0912054 0.0510167
0 0.987025 0.091034 0.0319057
0 0.987123 0.090951 0.0152213
0 0.98714 0.0909277 0.0147915
0 0.987108 0.0909743 0.0257416
0 0.987081 0.0910124 0.0307699
0 0.987072 0.0910229 0.0303591
0 0.987134 0.090945 0.0190739
0 0.987147 0.0909077 0.0111444
0 0.986656 0.0912551 0.0412626
0 0.986582 0.159203 10.7716
0 0.987007 0.0910386 0.0374175
0 0.98684 0.0912216 0.0991837
0 0.986905 0.0911831 0.0897849
0 0.986965 0.0910939 0.0599023
0 0.986845 0.0912368 0.106656
0 0.987089 0.0909789 0.01776
0 0.987059 0.0910066 0.0246752
0 0.987124 0.0909513 0.0112213
0 0.987048 0.0910388 0.0371386
0 0.98676 0.0913471 0.122899
0 0.98675 0.158228 8.94818
0 0.986966 0.0910668 0.0347487
0 0.986884 0.0911571 0.0465396
0 0.986759 0.0912155 0.0483237
0 0.986864 0.0911782 0.0466131
0 0.986761 0.0912155 0.0488228
0 0.987019 0.0910353 0.0300355
0 0.987144 0.0909054 0.00230509
0 0.987111 0.0909717 0.0221343
0 0.987078 0.0910158 0.0280833
0 0.987138 0.0909375 0.0160391
0 0.987147 0.090914 0.00867102
0 0.986647 0.0912597 0.0387513
0 0.986613 0.158393 9.50222
0 0.987011 0.0910485 0.0455808
0 0.986918 0.0911689 0.0897789
0 0.986966 0.0911089 0.0691941
0 0.986826 0.0912461 0.101588
0 0.98691 0.091174 0.0899411
0 0.987103 0.0909691 0.0157919
0 0.987087 0.090992 0.0240378
0 0.987129 0.0909465 0.0103394
0 0.987066 0.0910208 0.0341278
0 0.987027 0.0910596 0.0470833
0 0.986792 0.0912197 0.0797666
0 0.986693 0.09121 0.0711941
0 0.986671 0.157798 10.3896
0 0.98696 0.0910672 0.0319462
0 0.986885 0.0911562 0.0429218
0 0.986754 0.0912136 0.04773
0 0.986868 0.0911761 0.04526
0 0.987018 0.0910388 0.0301014
0 0.987071 0.0910276 0.0299854
0 0.987135 0.0909353 0.00950856
0 0.987112 0.0909751 0.021829
0 0.987136 0.0909504 0.0179922
0 0.987132 0.090953 0.0161402
0 0.987134 0.0909572 0.0189205
0 0.986751 0.0912116 0.0517048
0 0.986624 0.0911905 0.0449855
0 0.986564 0.158343 10.9182
0 0.986971 0.0910837 0.0594582
0 0.986908 0.0911627 0.0764877
0 0.986877 0.0911852 0.0697989
0 0.987009 0.0910591 0.0449064
0 0.987102 0.0909696 0.0184297
0 0.987062 0.0910203 0.0329018
0 0.986773 0.0912052 0.0658863
0 0.986667 0.0911899 0.0604091
0 0.986619 0.158266 10.3042
0 0.986959 0.0910649 0.0315902
0 0.986883 0.0911571 0.0437971
0 0.986864 0.0911927 0.0518403
0 0.987017 0.0910394 0.031187
0 0.987077 0.0910208 0.0302354
0 0.987109 0.0909779 0.0196226
0 0.987105 0.0910001 0.0259379
0 0.987109 0.0909855 0.0251533
0 0.987107 0.0909939 0.0269435
0 0.98675 0.0912147 0.055883
0 0.986634 0.0911797 0.0485948
0 0.986571 0.157856 10.1222
0 0.986958 0.0910824 0.0487464
0 0.986887 0.0911496 0.0544914
0 0.987015 0.0910401 0.0358278
0 0.987071 0.0910046 0.0262864
0 0.986869 0.0911639 0.0525545
0 0.986767 0.0912079 0.0610132
0 0.986656 0.0911849 0.0539886
0 0.986599 0.159298 10.373
0 0.98696 0.0910679 0.0344036
0 0.986884 0.0911688 0.0516191
0 0.987018 0.0910391 0.0334349
0 0.987069 0.0910324 0.0343618
0 0.987067 0.0910165 0.0283695
0 0.987067 0.0910264 0.0322221
0 0.987074 0.0910262 0.0343177
0 0.987064 0.0910353 0.0356951
0 0.986866 0.0911902 0.0569763
0 0.986753 0.0912159 0.0592548
0 0.986639 0.0911793 0.0503852
0 0.986581 0.157124 9.95343
0 0.986955 0.0910643 0.036447
0 0.987016 0.0910273 0.0299788
0 0.986882 0.0911496 0.0489869
0 0.986764 0.0912082 0.0587419
0 0.986655 0.091183 0.0545792
0 0.9866 0.159414 10.3865
0 0.98696 0.0910723 0.0391753
0 0.987016 0.0910417 0.0363276
0 0.987016 0.0910264 0.0304419
0 0.987012 0.0910341 0.0339639
0 0.987014 0.0910376 0.0358977
0 0.986879 0.0911745 0.0552283
0 0.986748 0.0912249 0.0596232
0 0.986637 0.0912058 0.0528757
0 0.986585 0.157989 10.7172
0 0.986956 0.0910679 0.0359456
0 0.986862 0.0911717 0.053708
0 0.986761 0.0911982 0.0572975
0 0.986651 0.0911779 0.0519923
0 0.9866 0.15837 10.2579
0 0.986956 0.0910762 0.0427964
0 0.986955 0.091068 0.0387249
0 0.986954 0.0910721 0.0420695
0 0.986853 0.0912005 0.0573163
0 0.986737 0.0912466 0.0531942
0 0.986624 0.0912039 0.0572643
0 0.986575 0.15848 10.241
0 0.986881 0.0911558 0.0530206
0 0.986763 0.0911963 0.0588262
0 0.986655 0.091178 0.0539138
0 0.986599 0.157863 10.2357
0 0.986862 0.0911812 0.0602096
0 0.986869 0.0911751 0.0559815
0 0.986877 0.091168 0.0591154
0 0.986852 0.0911981 0.0614262
0 0.986717 0.0912559 0.0506476
0 0.986575 0.091335 0.0392543
0 0.986541 0.158139 10.8106
0 0.98676 0.0912051 0.0638196
0 0.986656 0.0911769 0.0566438
0 0.986606 0.158336 10.2164
0 0.986754 0.0912158 0.0670925
0 0.986721 0.0912536 0.0563549
0 0.986736 0.0912337 0.0679393
0 0.986544 0.091355 0.0444429
0 0.986465 0.15534 8.96517
0 0.986656 0.0911823 0.0623641
0 0.986605 0.158234 10.3448
0 0.986638 0.0912034 0.065827
0 0.986592 0.0912747 0.0650861
0 0.986488 0.15683 10.6287
0 0.986603 0.158473 10.3205
0 0.986559 0.157908 10.5931
VECTORS fa_u float
0.00984951 0.00410565 0
0.00829964 0.00478133 0
0.0101539 0.00267965 0
0.0103846 0.00137037 0
5.62053e-05 4.55263e-05 0
0.00841913 0.00641818 0
0.00737042 0.00744464 0
8.82849e-05 9.92236e-05 0
0.000138448 1.99705e-05 0
0.00639395 0.00836812 0
0.00519604 0.00907139 0
0.0106158 -6.04423e-06 0
0.0101187 -0.00133817 0
5.95792e-05 2.70836e-05 0
5.58055e-05 1.39884e-05 0
7.50444e-05 3.98816e-05 0
8.99311e-05 5.8504e-05 0
7.48592e-05 1.73935e-05 0
6.26625e-05 3.046e-05 0
0.000103292 5.38056e-05 0
0.000102866 3.89625e-05 0
0.00411856 0.0100638 0
0.00284268 0.0104008 0
5.64823e-05 3.36306e-05 0
4.81455e-05 4.20066e-05 0
6.61053e-05 -5.37081e-06 0
0.0105464 -0.00278528 0
6.15708e-05 2.97784e-05 0
0.00765621 -0.00319414 0
7.03401e-05 1.87336e-05 0
6.88116e-05 7.0812e-06 0
7.0247e-05 2.32335e-05 0
0.00136084 0.0102077 0
7.49978e-05 3.61089e-05 0
8.98846e-05 4.60062e-05 0
7.90771e-05 3.43753e-05 0
6.52058e-05 3.59948e-05 0
8.49311e-05 4.13544e-05 0
8.29843e-05 3.84862e-05 0
6.00553e-05 3.33411e-05 0
5.79817e-05 -4.34548e-05 0
5.33813e-05 3.6192e-05 0
4.66784e-05 2.95679e-05 0
-7.7352e-05 0.00989384 0
6.25515e-05 6.87947e-06 0
-9.86321e-06 6.68837e-05 0
4.33313e-05 1.39883e-05 0
0.00927242 -0.00539546 0
-4.53497e-05 -3.76746e-05 0
0.00829125 -0.00635852 0
6.46233e-05 8.68312e-06 0
6.39667e-05 3.47834e-06 0
5.1018e-05 1.21313e-05 0
-0.00011277 -3.1416e-05 0
-0.000136211 0.000135782 0
5.81397e-05 2.31064e-05 0
6.42869e-05 3.40937e-05 0
5.34294e-05 3.44331e-05 0
5.52999e-05 2.53191e-05 0
3.06172e-05 8.9341e-06 0
-1.46874e-05 8.00688e-06 0
4.12616e-05 2.86992e-05 0
3.06146e-05 2.20878e-05 0
-0.00156545 0.0120413 0
5.37179e-05 -1.05655e-06 0
2.14994e-05 -4.3291e-06 0
4.55564e-05 -6.48871e-06 0
2.53254e-05 -3.92501e-05 0
2.27817e-05 -2.66212e-05 0
0.0073162 -0.00732278 0
3.64808e-05 -3.67388e-05 0
0.00629448 -0.00821372 0
4.51351e-05 1.02605e-05 0
4.61849e-05 2.7606e-08 0
4.31965e-05 3.01757e-06 0
-6.38849e-05 5.56367e-05 0
1.27063e-05 0.00017665 0
-5.08485e-05 0.000103982 0
4.43385e-05 1.58401e-05 0
4.05154e-05 1.02961e-05 0
4.03327e-05 2.36808e-05 0
3.93644e-05 1.91916e-05 0
6.70595e-06 1.96932e-05 0
-2.04476e-05 3.22529e-05 0
2.1308e-05 2.10036e-05 0
-0.00238821 0.00929736 0
3.88503e-05 -8.59318e-06 0
3.97298e-05 -1.7187e-05 0
3.95165e-05 -3.64405e-05 0
4.09695e-05 -2.78202e-05 0
3.77954e-05 -3.94596e-05 0
4.33488e-05 -4.04008e-05 0
0.00512706 -0.00888951 0
3.56376e-05 -4.32107e-05 0
3.8498e-05 4.133e-06 0
3.93171e-05 -5.85846e-06 0
3.86788e-05 -2.72192e-06 0
3.37985e-05 -1.30392e-05 0
0.00401681 -0.00967929 0
-1.40174e-05 7.56282e-05 0
-3.08337e-05 5.51014e-05 0
-3.09986e-05 0.000104476 0
-3.65036e-05 7.96873e-05 0
2.94088e-05 5.02509e-06 0
3.43719e-05 1.38453e-05 0
2.77016e-05 2.11288e-05 0
2.95756e-05 1.80643e-05 0
-2.60221e-06 2.76861e-05 0
1.21809e-05 2.3361e-05 0
-0.00384483 0.00934503 0
3.33758e-05 -1.83217e-05 0
4.20316e-05 -3.2581e-05 0
4.11705e-05 -4.44341e-05 0
4.19427e-05 -4.0091e-05 0
3.22777e-05 -4.42681e-05 0
3.63875e-05 -4.64748e-05 0
2.3764e-05 -4.45728e-05 0
2.52928e-05 -4.23163e-07 0
2.21957e-05 5.24585e-06 0
2.83982e-05 -3.3202e-06 0
3.37205e-05 -9.6057e-06 0
2.77386e-05 -1.96863e-05 0
3.06122e-05 -1.69014e-05 0
2.0755e-05 -6.67585e-06 0
0.00269636 -0.00998187 0
-4.51343e-05 5.54741e-05 0
-4.02793e-05 7.84147e-05 0
-1.96013e-05 4.65102e-05 0
-3.74758e-05 7.6502e-05 0
2.17868e-05 1.17426e-05 0
1.75367e-05 1.93708e-05 0
-3.65948e-06 2.86668e-05 0
5.936e-06 2.19036e-05 0
-9.29026e-05 7.21777e-05 0
-0.00521308 0.00903351 0
2.81233e-05 -2.53889e-05 0
3.46851e-05 -4.01219e-05 0
2.83176e-05 -4.81276e-05 0
2.94514e-05 -4.42052e-05 0
1.57608e-05 -4.20776e-05 0
1.89842e-05 -4.7353e-05 0
2.05797e-05 -2.43813e-05 0
1.26262e-05 8.50096e-06 0
1.47905e-05 -1.67164e-07 0
2.26454e-05 -1.22399e-05 0
2.28255e-05 -2.06345e-05 0
1.5446e-05 -2.61361e-05 0
1.39948e-05 -1.29598e-05 0
8.01434e-06 -7.7439e-06 0
-1.01839e-06 -4.12501e-05 0
0.00141577 -0.0106782 0
-1.48409e-05 3.43484e-05 0
-5.99504e-05 7.9015e-05 0
-4.61664e-05 7.70065e-05 0
-2.81526e-05 5.28746e-05 0
-6.02771e-05 8.79892e-05 0
8.05346e-06 1.58291e-05 0
-4.05348e-06 2.434e-05 0
3.35071e-06 1.07093e-05 0
-1.59978e-05 3.35164e-05 0
-3.86263e-05 0.000116671 0
-0.00544142 0.00710358 0
1.86576e-05 -2.9315e-05 0
1.99301e-05 -4.20562e-05 0
8.34028e-06 -4.75985e-05 0
1.23158e-05 -4.49567e-05 0
3.70797e-07 -4.88214e-05 0
1.12782e-05 -2.78377e-05 0
2.2043e-06 6.74147e-07 0
1.15667e-05 -1.88717e-05 0
6.8718e-06 -2.72296e-05 0
4.3604e-06 -1.5435e-05 0
-3.00228e-06 -8.13468e-06 0
4.48875e-06 -3.84905e-05 0
5.11896e-06 -0.00950222 0
-2.55576e-05 3.77415e-05 0
-4.95671e-05 7.48555e-05 0
-3.95567e-05 5.67722e-05 0
-5.22749e-05 8.71056e-05 0
-5.11465e-05 7.39827e-05 0
-3.27212e-06 1.54492e-05 0
-1.14695e-05 2.1125e-05 0
-6.34456e-06 8.1639e-06 0
-2.10402e-05 2.68703e-05 0
-3.01919e-05 3.61288e-05 0
-4.3789e-05 6.66725e-05 0
-2.73214e-05 6.5743e-05 0
-0.00735645 0.00733666 0
7.68858e-06 -3.10072e-05 0
3.76295e-06 -4.27566e-05 0
-1.01677e-05 -4.66344e-05 0
-4.51649e-06 -4.50341e-05 0
1.62043e-06 -3.00578e-05 0
-3.22179e-06 -2.98118e-05 0
-9.44531e-06 1.09492e-06 0
-1.06303e-06 -2.18032e-05 0
-4.83658e-06 -1.733e-05 0
-1.43649e-05 -7.35902e-06 0
-1.20313e-05 -1.46026e-05 0
-2.09943e-05 -4.72506e-05 0
-2.15392e-05 -3.94937e-05 0
-0.00141923 -0.0108255 0
-3.63936e-05 4.7019e-05 0
-4.59282e-05 6.11634e-05 0
-4.59481e-05 5.25419e-05 0
-3.15648e-05 3.19413e-05 0
-1.49054e-05 1.08389e-05 0
-2.57321e-05 2.05034e-05 0
-4.66665e-05 4.65106e-05 0
-3.36508e-05 5.01685e-05 0
-0.00819193 0.00625046 0
-3.9563e-06 -3.13415e-05 0
-1.24516e-05 -4.19898e-05 0
-2.33363e-05 -4.62907e-05 0
-9.38995e-06 -2.97398e-05 0
-1.17088e-05 -2.78762e-05 0
-1.95148e-05 2.05404e-06 0
-2.48472e-05 -7.44265e-06 0
-1.34972e-05 -2.12253e-05 0
-2.16118e-05 -1.60898e-05 0
-2.96674e-05 -4.73577e-05 0
-2.30061e-05 -4.28039e-05 0
-0.0026259 -0.00977571 0
-3.4589e-05 3.43484e-05 0
-4.32788e-05 3.31097e-05 0
-3.09209e-05 1.80978e-05 0
-2.50996e-05 7.80918e-06 0
-4.82567e-05 2.0815e-05 0
-5.20328e-05 3.18622e-05 0
-4.37399e-05 3.16479e-05 0
-0.00899306 0.00516963 0
-1.52368e-05 -3.08455e-05 0
-2.8441e-05 -4.30772e-05 0
-1.82412e-05 -2.80206e-05 0
-2.06095e-05 -2.74951e-05 0
-2.83003e-05 -1.98008e-06 0
-2.99606e-05 -1.18587e-05 0
-2.51329e-05 -2.33675e-05 0
-3.02733e-05 -1.89122e-05 0
-3.71993e-05 -4.31568e-05 0
-3.51697e-05 -4.76888e-05 0
-3.04999e-05 -4.01051e-05 0
-0.00382691 -0.00918834 0
-3.34582e-05 1.44547e-05 0
-2.95987e-05 4.75875e-06 0
-4.83716e-05 7.73942e-06 0
-5.64647e-05 1.61974e-05 0
-4.98469e-05 2.22299e-05 0
-0.00960199 0.00395992 0
-2.59495e-05 -2.93483e-05 0
-2.56207e-05 -2.57541e-05 0
-2.96138e-05 -7.05211e-06 0
-3.00117e-05 -1.5901e-05 0
-2.86368e-05 -2.16466e-05 0
-3.97894e-05 -3.8301e-05 0
-4.01582e-05 -4.4071e-05 0
-3.35968e-05 -4.08301e-05 0
-0.00536285 -0.00927892 0
-3.59387e-05 -7.01827e-07 0
-5.36938e-05 -1.23664e-06 0
-5.71112e-05 4.61659e-06 0
-5.08092e-05 1.10281e-05 0
-0.0099067 0.00266128 0
-3.2856e-05 -2.74229e-05 0
-3.61331e-05 -1.39291e-05 0
-3.54629e-05 -2.26323e-05 0
-4.37546e-05 -3.70229e-05 0
-3.50811e-05 -3.99868e-05 0
-3.90578e-05 -4.1877e-05 0
-0.00624196 -0.00811889 0