# vtk DataFile Version 2.0
CellBP Time: 0.48
ASCII
DATASET UNSTRUCTURED_GRID
POINTS 296 double
-9.17027 -3.76914 0
-8.59329 -4.94018 0
-9.59007 -2.53305 0
-9.84488 -1.25269 0
-8.35775 -2.81874 0
-7.86845 -6.026 0
-7.00742 -7.00739 0
-7.91735 -3.87471 0
-7.34273 -4.86804 0
-6.02578 -7.86814 0
-4.93971 -8.59249 0
-9.9304 0.0499848 0
-9.84489 1.35266 0
-8.65785 -1.68396 0
-8.78649 -0.529626 0
-7.58985 -2.00416 0
-7.22587 -2.90651 0
-6.63787 -5.77912 0
-5.82262 -6.59711 0
-6.7904 -3.889 0
-6.22071 -4.67607 0
-3.76948 -9.17115 0
-2.53359 -9.59211 0
-4.90662 -7.30904 0
-3.91311 -7.88648 0
-8.79294 0.643424 0
-9.59006 2.63306 0
-8.62347 1.77415 0
-9.17158 3.8697 0
-7.74446 -0.928991 0
-7.79469 0.0802729 0
-6.95272 -1.3159 0
-1.25265 -9.84444 0
-6.44163 -2.15316 0
-6.31951 -3.0562 0
-5.5367 -5.47475 0
-4.79606 -6.11568 0
-5.65917 -3.75712 0
-5.26953 -4.56174 0
-2.86617 -8.36432 0
-1.77874 -8.64064 0
-3.92825 -6.72377 0
-3.0567 -7.15288 0
0.0500063 -9.93023 0
-7.7057 1.14357 0
-8.33887 2.91561 0
-7.55212 2.11206 0
-8.59304 5.04006 0
-7.88041 3.97833 0
-7.86803 6.12574 0
-6.77889 -0.39686 0
-6.95674 0.552578 0
-5.77158 -1.00343 0
-0.590905 -8.81003 0
0.565683 -8.7712 0
-5.30328 -2.48035 0
-4.49211 -5.09591 0
-3.90263 -5.77552 0
-4.43905 -3.80488 0
-2.06249 -7.56227 0
-1.13556 -7.78617 0
-2.99464 -6.10229 0
-2.3091 -6.62006 0
1.35273 -9.8452 0
-6.68969 1.42211 0
-7.17247 3.11824 0
-6.65951 2.37311 0
-7.29503 4.98883 0
-6.71837 4.00321 0
-7.00733 7.10734 0
-6.57278 5.8944 0
-6.0258 7.96812 0
-4.45323 -1.18109 0
-5.8148 0.513783 0
-4.65629 -0.0103726 0
0.0084922 -7.84843 0
1.73864 -8.64418 0
0.948992 -7.76377 0
-4.03862 -2.40646 0
-3.48562 -1.39123 0
-3.29462 -4.80553 0
-3.26596 -3.26788 0
-1.37865 -6.67577 0
-0.508781 -7.02527 0
-1.97563 -5.53726 0
2.63314 -9.59045 0
-5.50756 2.03701 0
-6.09501 3.07235 0
-6.1054 4.86986 0
-5.76202 3.99167 0
-5.76162 6.71752 0
-5.45243 5.61967 0
-4.9403 8.69345 0
-4.83876 7.40502 0
-3.50158 -0.424306 0
-4.44945 1.24909 0
-3.71157 0.592101 0
-4.06231 2.31991 0
-3.76937 9.27078 0
2.86278 -8.33333 0
0.419702 -6.79579 0
2.02214 -7.52627 0
1.30615 -6.90595 0
-2.44472 -0.873828 0
-2.83845 -2.13119 0
-2.29448 -4.09753 0
-2.32571 -2.97369 0
-0.442403 -5.86146 0
-1.22277 -4.49932 0
3.86943 -9.17095 0
-4.79005 3.39198 0
-5.08824 4.59442 0
-4.64748 6.28185 0
-4.53916 5.36007 0
-3.84401 7.99394 0
-3.82701 6.84619 0
-2.78353 8.42347 0
-1.64906 -0.137893 0
-1.45027 -0.890596 0
-2.48917 0.507281 0
-3.25372 1.44421 0
-3.23916 3.31671 0
-2.91107 2.37185 0
-1.35511 0.627125 0
-2.53314 9.69047 0
3.93305 -7.88758 0
2.96479 -7.15827 0
0.95415 -5.82236 0
2.07448 -6.41595 0
-1.68301 -1.99211 0
-1.43447 -3.27789 0
0.0902301 -4.74722 0
-0.566191 -3.69456 0
4.93255 -7.31943 0
5.04053 -8.59387 0
-3.77719 4.5519 0
-3.73503 5.75255 0
-2.88821 7.29043 0
-3.00993 6.3542 0
-1.66272 8.73439 0
-1.94028 7.61997 0
-2.33849 4.05187 0
-0.730735 -1.32727 0
-0.836898 -0.257622 0
-1.93625 1.68083 0
-2.12583 2.87595 0
-1.30661 3.54483 0
-0.869464 1.35086 0
-0.282359 0.456056 0
-0.533606 8.87245 0
-1.25265 9.94495 0
1.11285 -4.57485 0
3.9105 -6.71789 0
2.98817 -6.09525 0
2.11802 -5.42534 0
4.7849 -6.20595 0
-0.558864 -2.47688 0
0.495138 -3.46397 0
0.053563 -1.61051 0
1.48197 -3.68232 0
5.86777 -6.61531 0
6.12581 -7.86813 0
-2.47587 5.34887 0
-2.13064 6.535 0
-0.904178 7.804 0
-1.27247 6.93265 0
0.0861915 7.88109 0
-1.14452 4.49496 0
0.150331 -0.617658 0
-0.79744 2.48859 0
-0.33165 3.60088 0
0.0631228 1.51276 0
0.741465 0.473431 0
0.646811 8.87509 0
0.0500093 10.032 0
2.38117 -4.28554 0
3.85957 -5.64099 0
3.00172 -5.21322 0
5.57441 -5.49245 0
4.69154 -5.28363 0
0.629703 -2.29343 0
1.25624 -2.95136 0
0.757517 -1.39148 0
2.16447 -3.136 0
2.99399 -3.47683 0
6.15593 -4.7924 0
6.65651 -5.77003 0
7.10734 -7.00728 0
-1.01973 5.82085 0
-0.372665 6.88427 0
1.12276 7.77041 0
0.55803 7.08054 0
-0.000760126 4.7255 0
0.607046 3.82803 0
1.33896 -0.641913 0
0.539135 2.65116 0
0.966131 1.57498 0
1.91028 0.213873 0
1.61484 1.06506 0
2.1297 7.58452 0
1.7995 8.71349 0
1.35277 9.94568 0
3.82321 -4.35205 0
5.11722 -4.44958 0
5.8465 -3.93566 0
3.78434 -3.20134 0
1.81238 -1.88272 0
3.01938 -2.57409 0
6.78433 -3.94846 0
7.38248 -4.89766 0
7.97046 -6.02757 0
0.483409 5.88217 0
1.42837 6.74277 0
2.37469 6.67 0
1.2101 4.55658 0
1.4883 3.39787 0
2.43595 -0.692059 0
2.82825 0.142611 0
1.78901 2.16298 0
2.61208 1.15022 0
3.07253 7.17123 0
2.90472 8.37817 0
2.63323 9.69073 0
4.91191 -3.3283 0
6.12162 -3.10915 0
4.17332 -2.2755 0
3.24472 -1.50304 0
6.73247 -2.31341 0
7.23329 -3.04304 0
7.96625 -3.91287 0
8.69213 -4.93958 0
2.0239 5.60058 0
3.08706 6.15464 0
2.36419 4.12737 0
2.42032 3.06117 0
3.52603 -0.460905 0
3.61608 0.613346 0
2.96214 2.2883 0
3.54598 1.52542 0
4.01302 5.89933 0
3.98538 6.79468 0
3.97423 7.9405 0
3.86955 9.27126 0
5.56976 -1.91646 0
4.50983 -1.12975 0
6.71538 -1.33638 0
7.59427 -2.03686 0
8.39914 -2.862 0
9.27099 -3.76944 0
3.41977 4.87791 0
3.3395 3.38586 0
4.69197 0.130093 0
4.51987 1.31017 0
4.06596 2.44417 0
4.5718 5.15384 0
4.84508 6.19255 0
4.98187 7.38253 0
5.04038 8.6936 0
5.88476 -0.434985 0
7.01282 -0.488365 0
7.76178 -1.08558 0
8.68731 -1.74641 0
9.69068 -2.53324 0
4.55354 3.82849 0
5.81921 1.09886 0
5.37262 2.53557 0
5.38188 4.62212 0
5.61408 5.52541 0
5.89913 6.67411 0
6.12588 7.96823 0
6.84834 0.46369 0
7.85603 -0.0256419 0
8.86335 -0.584518 0
9.94544 -1.25278 0
6.96298 1.34993 0
5.72314 3.77979 0
6.54382 2.19828 0
6.38261 3.08914 0
6.29488 4.68878 0
6.69559 5.83997 0
7.10787 7.10784 0
7.78731 0.967978 0
8.8627 0.572963 0
10.0307 0.0499832 0
7.61923 2.00508 0
6.83197 3.90585 0
7.27251 2.94799 0
7.38123 4.88768 0
7.96865 6.12619 0
8.72631 1.72757 0
9.94531 1.35273 0
8.42424 2.83887 0
7.98475 3.91783 0
8.69375 5.04047 0
9.69057 2.63317 0
9.27102 3.86946 0
CELLS 542 2168
3 2 0 4
3 0 1 7
3 4 0 7
3 1 5 8
3 7 1 8
3 3 2 13
3 13 2 4
3 11 3 14
3 14 3 13
3 13 4 15
3 4 7 16
3 15 4 16
3 5 6 17
3 8 5 17
3 6 9 18
3 17 6 18
3 7 8 19
3 16 7 19
3 8 17 20
3 19 8 20
3 9 10 23
3 18 9 23
3 10 21 24
3 23 10 24
3 12 11 25
3 25 11 14
3 26 12 27
3 27 12 25
3 14 13 29
3 29 13 15
3 25 14 30
3 30 14 29
3 29 15 31
3 15 16 33
3 31 15 33
3 16 19 34
3 33 16 34
3 17 18 35
3 20 17 35
3 18 23 36
3 35 18 36
3 19 20 37
3 34 19 37
3 20 35 38
3 37 20 38
3 21 22 39
3 24 21 39
3 22 32 40
3 39 22 40
3 23 24 41
3 36 23 41
3 24 39 42
3 41 24 42
3 27 25 44
3 44 25 30
3 28 26 45
3 45 26 27
3 45 27 46
3 46 27 44
3 47 28 48
3 48 28 45
3 30 29 50
3 50 29 31
3 44 30 51
3 51 30 50
3 50 31 52
3 31 33 52
3 32 43 53
3 40 32 53
3 53 43 54
3 33 34 55
3 34 37 55
3 33 55 52
3 35 36 56
3 38 35 56
3 36 41 57
3 56 36 57
3 37 38 58
3 38 56 58
3 37 58 55
3 39 40 59
3 42 39 59
3 40 53 60
3 59 40 60
3 41 42 61
3 57 41 61
3 42 59 62
3 61 42 62
3 43 63 54
3 46 44 64
3 64 44 51
3 48 45 65
3 65 45 46
3 65 46 66
3 66 46 64
3 49 47 67
3 67 47 48
3 67 48 68
3 68 48 65
3 69 49 70
3 70 49 67
3 52 55 72
3 64 51 73
3 51 50 73
3 50 52 73
3 73 52 74
3 74 52 72
3 53 54 75
3 60 53 75
3 54 63 76
3 54 76 77
3 75 54 77
3 55 58 78
3 72 55 78
3 72 78 79
3 56 57 80
3 57 61 80
3 56 80 58
3 58 80 81
3 78 58 81
3 59 60 82
3 62 59 82
3 60 75 83
3 82 60 83
3 61 62 84
3 62 82 84
3 61 84 80
3 63 85 76
3 66 64 86
3 64 73 86
3 68 65 87
3 87 65 66
3 87 66 86
3 70 67 88
3 88 67 68
3 88 68 89
3 89 68 87
3 71 69 90
3 90 69 70
3 90 70 91
3 91 70 88
3 92 71 93
3 93 71 90
3 74 72 94
3 94 72 79
3 86 73 95
3 95 73 74
3 95 74 96
3 96 74 94
3 97 86 95
3 76 85 99
3 75 77 100
3 83 75 100
3 76 99 101
3 77 76 101
3 77 101 102
3 100 77 102
3 94 79 103
3 78 81 104
3 79 78 104
3 79 104 103
3 80 84 105
3 81 80 105
3 81 105 106
3 104 81 106
3 82 83 107
3 83 100 107
3 82 107 84
3 84 107 108
3 105 84 108
3 85 109 99
3 89 87 110
3 87 86 110
3 110 86 97
3 91 88 111
3 111 88 89
3 111 89 110
3 93 90 112
3 112 90 91
3 112 91 113
3 113 91 111
3 98 92 114
3 114 92 93
3 114 93 115
3 115 93 112
3 116 98 114
3 117 103 118
3 96 94 119
3 94 103 119
3 119 103 117
3 97 95 120
3 120 95 96
3 120 96 119
3 121 110 97
3 121 97 122
3 122 97 120
3 123 119 117
3 124 98 116
3 99 109 125
3 99 125 126
3 101 99 126
3 100 102 127
3 100 127 107
3 101 126 128
3 102 101 128
3 102 128 127
3 104 106 129
3 104 129 103
3 103 129 118
3 105 108 130
3 106 105 130
3 106 130 129
3 107 127 131
3 108 107 131
3 108 131 132
3 108 132 130
3 109 134 125
3 125 134 133
3 113 111 135
3 111 110 135
3 135 110 121
3 115 112 136
3 136 112 113
3 136 113 135
3 116 114 137
3 137 114 115
3 137 115 138
3 138 115 136
3 139 124 116
3 139 116 140
3 140 116 137
3 141 135 121
3 118 129 142
3 118 142 143
3 117 118 143
3 123 117 143
3 122 120 144
3 120 119 144
3 144 119 123
3 141 121 145
3 145 121 122
3 145 122 144
3 146 141 145
3 147 144 123
3 147 123 148
3 143 148 123
3 150 124 139
3 149 150 139
3 131 127 151
3 125 133 152
3 126 125 152
3 126 152 153
3 128 126 153
3 128 153 154
3 128 154 127
3 127 154 151
3 152 133 155
3 130 132 156
3 130 156 129
3 129 156 142
3 131 151 157
3 132 131 157
3 132 157 156
3 156 158 142
3 157 151 159
3 133 160 155
3 134 161 133
3 133 161 160
3 138 136 162
3 136 135 162
3 162 135 141
3 140 137 163
3 163 137 138
3 163 138 162
3 149 139 164
3 164 139 140
3 164 140 165
3 165 140 163
3 166 149 164
3 167 162 141
3 167 141 146
3 142 158 168
3 143 142 168
3 143 168 148
3 146 145 169
3 145 144 169
3 169 144 147
3 170 167 146
3 170 146 169
3 171 169 147
3 171 147 148
3 171 148 172
3 168 172 148
3 173 149 166
3 174 150 149
3 173 174 149
3 154 175 151
3 151 175 159
3 152 155 176
3 153 152 176
3 153 176 177
3 153 177 154
3 154 177 175
3 155 160 178
3 155 178 179
3 176 155 179
3 156 157 180
3 156 180 158
3 157 159 181
3 157 181 180
3 158 180 182
3 158 182 168
3 159 175 183
3 159 183 181
3 175 184 183
3 160 186 178
3 178 186 185
3 161 187 160
3 160 187 186
3 165 163 188
3 163 162 188
3 188 162 167
3 166 164 189
3 189 164 165
3 189 165 188
3 190 173 166
3 190 166 191
3 191 166 189
3 192 188 167
3 192 167 170
3 193 192 170
3 182 194 168
3 194 172 168
3 193 170 195
3 170 169 195
3 195 169 171
3 196 195 171
3 196 171 172
3 194 197 172
3 197 198 172
3 198 196 172
3 200 173 190
3 199 200 190
3 201 174 173
3 200 201 173
3 176 179 202
3 177 176 202
3 177 202 175
3 175 202 184
3 178 185 203
3 178 203 179
3 179 203 202
3 203 185 204
3 202 205 184
3 183 206 181
3 180 181 206
3 180 206 182
3 182 206 194
3 183 184 207
3 205 207 184
3 183 207 206
3 185 208 204
3 186 209 185
3 185 209 208
3 187 210 186
3 186 210 209
3 191 189 211
3 189 188 211
3 211 188 192
3 199 190 212
3 212 190 191
3 212 191 211
3 213 199 212
3 214 211 192
3 214 192 193
3 215 214 193
3 215 193 195
3 206 216 194
3 216 197 194
3 216 217 197
3 215 195 218
3 218 195 196
3 198 218 196
3 217 219 197
3 219 218 198
3 197 219 198
3 220 199 213
3 221 200 199
3 220 221 199
3 222 201 200
3 221 222 200
3 203 204 223
3 203 223 202
3 202 223 205
3 204 208 224
3 204 224 223
3 205 223 225
3 205 225 207
3 207 225 226
3 207 226 206
3 226 216 206
3 208 228 224
3 224 228 227
3 209 229 208
3 229 228 208
3 210 230 209
3 209 230 229
3 213 212 231
3 212 211 231
3 231 211 214
3 232 220 213
3 232 213 231
3 233 231 214
3 233 214 215
3 234 233 215
3 234 215 218
3 226 235 216
3 235 217 216
3 235 236 217
3 217 236 219
3 237 234 218
3 237 218 219
3 236 238 219
3 238 237 219
3 240 220 232
3 239 240 232
3 241 221 220
3 240 241 220
3 242 222 221
3 241 242 221
3 224 227 243
3 224 243 223
3 223 243 225
3 225 243 244
3 225 244 226
3 226 244 235
3 227 245 243
3 228 246 227
3 227 246 245
3 229 247 228
3 228 247 246
3 230 248 229
3 229 248 247
3 239 232 249
3 232 231 249
3 249 231 233
3 250 249 233
3 250 233 234
3 237 250 234
3 244 251 235
3 235 251 236
3 251 252 236
3 236 252 238
3 252 253 238
3 253 250 237
3 253 237 238
3 254 239 249
3 255 240 239
3 254 255 239
3 256 241 240
3 255 256 240
3 257 242 241
3 256 257 241
3 245 258 243
3 243 258 244
3 244 258 251
3 245 259 258
3 246 260 245
3 245 260 259
3 247 261 246
3 246 261 260
3 248 262 247
3 247 262 261
3 254 249 263
3 263 249 250
3 253 263 250
3 258 264 251
3 251 264 252
3 264 265 252
3 265 263 253
3 252 265 253
3 266 254 263
3 267 255 254
3 266 267 254
3 268 256 255
3 267 268 255
3 269 257 256
3 268 269 256
3 259 270 258
3 270 264 258
3 260 271 259
3 259 271 270
3 261 272 260
3 260 272 271
3 262 273 261
3 273 272 261
3 270 274 264
3 275 266 263
3 275 263 265
3 274 276 264
3 276 265 264
3 276 277 265
3 277 275 265
3 278 267 266
3 275 278 266
3 279 268 267
3 278 279 267
3 280 269 268
3 279 280 268
3 271 281 270
3 270 281 274
3 272 282 271
3 271 282 281
3 273 283 272
3 272 283 282
3 281 284 274
3 274 284 276
3 285 278 275
3 277 285 275
3 284 286 276
3 286 285 277
3 276 286 277
3 287 279 278
3 285 287 278
3 288 280 279
3 287 288 279
3 282 289 281
3 281 289 284
3 283 290 282
3 282 290 289
3 289 291 284
3 284 291 286
3 291 292 286
3 292 287 285
3 286 292 285
3 293 288 287
3 292 293 287
3 290 294 289
3 289 294 291
3 294 295 291
3 295 293 292
3 291 295 292
CELL_TYPES 542
5
5
5
5
5
5
5
5
5
5
5
5
5
5
5
5
5
5
5
5
5
5
5
5
5
5
5
5
5
5
5
5
5
5
5
5
5
5
5
5
5
5
5
5
5
5
5
5
5
5
5
5
5
5
5
5
5
5
5
5
5
5
5
5
5
5
5
5
5
5
5
5
5
5
5
5
5
5
5
5
5
5
5
5
5
5
5
5
5
5
5
5
5
5
5
5
5
5
5
5
5
5
5
5
5
5
5
5
5
5
5
5
5
5
5
5
5
5
5
5
5
5
5
5
5
5
5
5
5
5
5
5
5
5
5
5
5
5
5
5
5
5
5
5
5
5
5
5
5
5
5
5
5
5
5
5
5
5
5
5
5
5
5
5
5
5
5
5
5
5
5
5
5
5
5
5
5
5
5
5
5
5
5
5
5
5
5
5
5
5
5
5
5
5
5
5
5
5
5
5
5
5
5
5
5
5
5
5
5
5
5
5
5
5
5
5
5
5
5
5
5
5
5
5
5
5
5
5
5
5
5
5
5
5
5
5
5
5
5
5
5
5
5
5
5
5
5
5
5
5
5
5
5
5
5
5
5
5
5
5
5
5
5
5
5
5
5
5
5
5
5
5
5
5
5
5
5
5
5
5
5
5
5
5
5
5
5
5
5
5
5
5
5
5
5
5
5
5
5
5
5
5
5
5
5
5
5
5
5
5
5
5
5
5
5
5
5
5
5
5
5
5
5
5
5
5
5
5
5
5
5
5
5
5
5
5
5
5
5
5
5
5
5
5
5
5
5
5
5
5
5
5
5
5
5
5
5
5
5
5
5
5
5
5
5
5
5
5
5
5
5
5
5
5
5
5
5
5
5
5
5
5
5
5
5
5
5
5
5
5
5
5
5
5
5
5
5
5
5
5
5
5
5
5
5
5
5
5
5
5
5
5
5
5
5
5
5
5
5
5
5
5
5
5
5
5
5
5
5
5
5
5
5
5
5
5
5
5
5
5
5
5
5
5
5
5
5
5
5
5
5
5
5
5
5
5
5
5
5
5
5
5
5
5
5
5
5
5
5
5
5
5
5
5
5
5
5
5
5
5
5
5
5
5
5
5
5
5
5
5
5
5
5
5
5
5
5
5
5
5
5
5
5
5
5
5
5
5
5
5
5
5
5
5
5
5
5
5
5
5
5
5
5
5
5
5
5
5
5
5
5
5
5
5
5
5
5
5
5
5
5
5
POINT_DATA 296
SCALARS concentrations float 4
LOOKUP_TABLE default
0 0.995925 0.11704 5.51319
0 0.995957 0.117226 5.28237
0 0.995907 0.116953 5.40068
0 0.995909 0.116778 5.36657
0 0.995957 0.0906797 0.0538343
0 0.995905 0.116623 5.17591
0 0.995902 0.116735 5.57508
0 0.995986 0.0909692 0.133989
0 0.995976 0.0912232 0.146301
0 0.995923 0.116939 4.96816
0 0.995915 0.116229 6.37281
0 0.995911 0.116552 5.34411
0 0.99591 0.116637 5.4342
0 0.995954 0.0906532 0.047017
0 0.995953 0.0906477 0.0486887
0 0.996053 0.090681 0.062666
0 0.996061 0.0907208 0.0862021
0 0.995949 0.0910271 0.0417315
0 0.995963 0.0908209 0.0214742
0 0.996067 0.0907756 0.0780329
0 0.99606 0.0908118 0.0630874
0 0.995925 0.117391 5.47182
0 0.995894 0.115673 3.28492
0 0.995968 0.0909642 0.0417883
0 0.995973 0.0911531 0.0659901
0 0.995953 0.0906566 0.052386
0 0.995892 0.116508 5.65813
0 0.995945 0.0907013 0.0586483
0 0.995864 0.115863 4.58743
0 0.996046 0.0906745 0.0544136
0 0.996045 0.0906723 0.0512375
0 0.996136 0.0906428 0.0532411
0 0.995905 0.116784 5.78498
0 0.996153 0.090636 0.0605799
0 0.996144 0.0906799 0.0689767
0 0.996058 0.0907629 0.0218636
0 0.996062 0.0907677 0.0191992
0 0.996159 0.0906812 0.0546077
0 0.996144 0.0907057 0.0425062
0 0.995969 0.0909547 0.137755
0 0.995955 0.0908203 0.153414
0 0.996072 0.0907709 0.0366137
0 0.996075 0.0907979 0.0307845
0 0.995922 0.116589 5.46954
0 0.99604 0.0906975 0.0478635
0 0.995923 0.0909462 0.0944286
0 0.996033 0.0907499 0.0329824
0 0.995897 0.116504 5.65313
0 0.995925 0.0909323 0.0900437
0 0.995919 0.116339 5.36876
0 0.996144 0.0906335 0.0450405
0 0.996127 0.0906548 0.0426615
0 0.996209 0.0905661 0.0357388
0 0.995971 0.0906925 0.0543865
0 0.995976 0.0906636 0.0474569
0 0.996215 0.0905797 0.041088
0 0.996162 0.0906749 0.0255499
0 0.996153 0.090691 0.0229762
0 0.99622 0.0905904 0.0312213
0 0.996081 0.0907467 0.0243764
0 0.996083 0.0907178 0.0382364
0 0.996174 0.0906848 0.0176928
0 0.996165 0.0907054 0.00614544
0 0.995934 0.116221 5.2827
0 0.996142 0.0906493 0.0296738
0 0.996027 0.090732 0.000148373
0 0.996123 0.0906734 0.0166059
0 0.995953 0.0906976 0.0569682
0 0.996037 0.0907359 0.0295414
0 0.995927 0.116281 5.2798
0 0.995962 0.0906549 0.0509034
0 0.995932 0.116305 5.26016
0 0.996258 0.0905457 0.0298664
0 0.996206 0.0905703 0.0277083
0 0.996256 0.0905434 0.0275931
0 0.996083 0.0906915 0.0387043
0 0.995986 0.0906552 0.0494814
0 0.996081 0.0906827 0.0472037
0 0.996264 0.0905505 0.0285666
0 0.996301 0.0905369 0.0271194
0 0.996227 0.0905824 0.0179562
0 0.996268 0.0905513 0.0242651
0 0.996183 0.090663 0.00943065
0 0.996168 0.0906614 0.0238783
0 0.996236 0.0905893 0.0125189
0 0.995945 0.116398 5.26048
0 0.996204 0.0905693 0.0183789
0 0.996139 0.0906545 0.0170142
0 0.996046 0.0906958 0.0470008
0 0.996128 0.0906741 0.0303724
0 0.99597 0.090644 0.0475034
0 0.996053 0.0906784 0.0502997
0 0.995937 0.116293 5.24668
0 0.995975 0.0906408 0.0457203
0 0.996304 0.0905274 0.0255447
0 0.996253 0.0905445 0.023221
0 0.996298 0.0905311 0.0246618
0 0.996255 0.0905442 0.0214411
0 0.99594 0.116453 5.26562
0 0.995994 0.0906749 0.0538705
0 0.996179 0.090649 0.0349482
0 0.996083 0.0906738 0.0481496
0 0.996163 0.0906576 0.0437642
0 0.996333 0.0905081 0.0207482
0 0.99631 0.0905324 0.0237164
0 0.996276 0.0905485 0.0183181
0 0.996309 0.0905393 0.0218722
0 0.99624 0.0905878 0.0194912
0 0.996281 0.090549 0.0171703
0 0.995948 0.116314 5.14976
0 0.996208 0.0905759 0.0224004
0 0.996149 0.0906481 0.0386258
0 0.996059 0.0906699 0.0510297
0 0.996138 0.0906558 0.0464519
0 0.995981 0.0906428 0.0451297
0 0.996066 0.0906669 0.051366
0 0.995985 0.0906483 0.0448075
0 0.996353 0.0904986 0.0188261
0 0.996355 0.0904983 0.0180546
0 0.996331 0.090503 0.0195362
0 0.996304 0.0905269 0.0220697
0 0.996257 0.0905461 0.025222
0 0.996299 0.0905358 0.0236269
0 0.996356 0.0904905 0.0168175
0 0.995943 0.116357 5.24603
0 0.99599 0.0908044 0.0443478
0 0.996088 0.0906808 0.0370045
0 0.996237 0.0905939 0.0300237
0 0.996174 0.0906506 0.0404021
0 0.996339 0.0905092 0.0184479
0 0.996318 0.0905312 0.0188457
0 0.996285 0.0905509 0.0205346
0 0.996317 0.0905299 0.018538
0 0.995993 0.0907897 0.0129953
0 0.995938 0.116057 5.44299
0 0.996214 0.0905708 0.0314499
0 0.996158 0.0906355 0.045696
0 0.996072 0.090671 0.0546316
0 0.99615 0.0906472 0.0510879
0 0.995995 0.0906816 0.0494165
0 0.996082 0.0906875 0.0620005
0 0.996263 0.0905446 0.03222
0 0.996362 0.0904905 0.0146194
0 0.996368 0.09048 0.0130261
0 0.996333 0.090503 0.0191621
0 0.996308 0.0905288 0.0259463
0 0.996305 0.0905347 0.033528
0 0.996356 0.0904871 0.0167638
0 0.996369 0.0904743 0.0102696
0 0.996019 0.0909046 0.0810685
0 0.995954 0.116448 5.37482
0 0.996283 0.0905525 0.0234082
0 0.996091 0.0906682 0.0308182
0 0.996172 0.0906557 0.0365722
0 0.996243 0.090594 0.0301105
0 0.996095 0.090691 0.016858
0 0.996343 0.0905071 0.0164612
0 0.996324 0.0905278 0.019663
0 0.996363 0.0904896 0.0128079
0 0.996311 0.0905524 0.0245607
0 0.996008 0.0906859 0.0373845
0 0.995955 0.116299 5.24705
0 0.996222 0.090567 0.0393588
0 0.996171 0.0906398 0.0567019
0 0.996099 0.0907568 0.084086
0 0.996167 0.090678 0.072742
0 0.996124 0.090819 0.101298
0 0.996268 0.0905449 0.0409444
0 0.996371 0.0904693 0.00557078
0 0.996336 0.0905009 0.0227791
0 0.996313 0.0905294 0.0366915
0 0.996359 0.0904851 0.016113
0 0.996368 0.0904745 0.00620298
0 0.996079 0.0910434 0.112046
0 0.99601 0.116048 5.00061
0 0.996278 0.090558 0.0228523
0 0.99618 0.090642 0.0271451
0 0.996235 0.0906002 0.0268876
0 0.996105 0.0907096 0.0120625
0 0.99618 0.0906551 0.0168455
0 0.99635 0.0904998 0.0146323
0 0.996338 0.0905163 0.0174083
0 0.996363 0.0904842 0.0093471
0 0.99632 0.0905374 0.0206264
0 0.996289 0.0905666 0.023866
0 0.99611 0.0907373 0.0280248
0 0.996008 0.090755 0.0913289
0 0.995962 0.115967 5.4373
0 0.996232 0.0905769 0.0531038
0 0.996193 0.090685 0.0835256
0 0.996136 0.0908413 0.106022
0 0.996193 0.090739 0.0984203
0 0.996274 0.0905492 0.0468803
0 0.996309 0.0905393 0.0416177
0 0.996363 0.0904797 0.00442028
0 0.996337 0.0905045 0.0258913
0 0.996355 0.0904906 0.0168538
0 0.996355 0.090491 0.00775862
0 0.996354 0.0904928 0.0137624
0 0.996122 0.0907891 0.092356
0 0.996076 0.0909342 0.0982745
0 0.996077 0.116116 4.8311
0 0.996242 0.0905857 0.020537
0 0.996194 0.0906583 0.021099
0 0.996183 0.0906882 0.0367857
0 0.996275 0.0905658 0.0240077
0 0.996343 0.0904979 0.0120817
0 0.996314 0.0905352 0.0196975
0 0.996113 0.0907322 0.0548909
0 0.996025 0.0909757 0.17079
0 0.995966 0.114326 2.66321
0 0.99624 0.090594 0.0625451
0 0.9962 0.0907115 0.0910621
0 0.99618 0.0907148 0.0841796
0 0.996274 0.0905538 0.0455164
0 0.996311 0.0905357 0.0370265
0 0.996342 0.0905044 0.012059
0 0.996334 0.0905189 0.0156796
0 0.996333 0.0905098 0.0232324
0 0.996331 0.0905146 0.017685
0 0.996094 0.0907207 0.0701422
0 0.996017 0.0907096 0.0538026
0 0.996004 0.115732 5.17533
0 0.996239 0.0905891 0.02695
0 0.996193 0.0906465 0.0459018
0 0.996279 0.0905483 0.0238912
0 0.996317 0.0905207 0.0177871
0 0.996176 0.0906458 0.0553541
0 0.996106 0.0907062 0.0727784
0 0.996029 0.0908865 0.125274
0 0.995991 0.116012 6.82297
0 0.996237 0.0905902 0.0544658
0 0.99618 0.0906639 0.0649052
0 0.996269 0.0905514 0.0393172
0 0.996302 0.0905423 0.0343591
0 0.996308 0.0905282 0.0195802
0 0.996302 0.0905357 0.0210223
0 0.996304 0.0905369 0.0271413
0 0.996296 0.0905427 0.0244266
0 0.996159 0.0906622 0.0577721
0 0.996082 0.0906951 0.0591027
0 0.995995 0.0906625 0.0437379
0 0.995957 0.115631 5.09236
0 0.996235 0.0905643 0.0321278
0 0.996274 0.0905347 0.023356
0 0.996179 0.0906264 0.048801
0 0.996095 0.0906837 0.0589975
0 0.996013 0.0906854 0.0495251
0 0.995978 0.116485 4.99949
0 0.996225 0.0905734 0.0400021
0 0.996262 0.090549 0.0328178
0 0.996267 0.0905335 0.0223373
0 0.996259 0.090541 0.0235226
0 0.996258 0.0905462 0.0272535
0 0.996165 0.0906388 0.0515864
0 0.996075 0.0906886 0.0598349
0 0.995988 0.0906635 0.0375306
0 0.995946 0.116021 5.16573
0 0.996227 0.0905626 0.0320395
0 0.996158 0.0906412 0.0507568
0 0.996085 0.0906668 0.0551279
0 0.996002 0.090652 0.0469269
0 0.995965 0.116141 5.13289
0 0.996217 0.0905732 0.0344815
0 0.996218 0.0905622 0.0298226
0 0.996215 0.0905678 0.0302098
0 0.996148 0.0906582 0.0538521
0 0.996074 0.0906835 0.0611627
0 0.995993 0.0907706 0.0692884
0 0.995947 0.116178 5.12537
0 0.996166 0.0906274 0.0464517
0 0.996079 0.090661 0.0539949
0 0.995997 0.0906423 0.0486066
0 0.995959 0.115971 5.15748
0 0.996148 0.0906442 0.0488734
0 0.996158 0.0906424 0.0469001
0 0.996159 0.0906315 0.0444348
0 0.996144 0.090651 0.0475451
0 0.996068 0.090699 0.0594759
0 0.995991 0.0907843 0.0722944
0 0.995959 0.116149 5.40571
0 0.996071 0.0906648 0.0542165
0 0.99599 0.0906393 0.0491462
0 0.995953 0.116149 5.20844
0 0.996068 0.0906668 0.0531657
0 0.996066 0.0906795 0.0515122
0 0.996064 0.0906697 0.0514978
0 0.995979 0.0906597 0.0400984
0 0.995946 0.115374 4.98234
0 0.995986 0.0906392 0.0487765
0 0.995948 0.116139 5.21537
0 0.995982 0.0906388 0.0471808
0 0.99598 0.0906422 0.0443238
0 0.99594 0.115733 5.13995
0 0.995944 0.116192 5.23238
0 0.995942 0.116018 5.20512
VECTORS fa_u float
0.00508884 0.0021211 0
0.00456354 0.00266036 0
0.00521934 0.00138776 0
0.00532227 0.000688109 0
3.95598e-05 3.65124e-05 0
0.0040912 0.0031705 0
0.00393445 0.0039499 0
9.32923e-05 9.61752e-05 0
0.000135731 -5.45998e-05 0
0.00304424 0.00392622 0
0.00320519 0.00550813 0
0.00534407 -1.91562e-05 0
0.00538391 -0.000737569 0
4.36155e-05 1.7558e-05 0
4.75681e-05 1.03856e-05 0
5.53368e-05 2.94088e-05 0
7.48372e-05 4.27808e-05 0
-1.21774e-05 -3.99153e-05 0
-1.29182e-05 1.71541e-05 0
7.64799e-05 1.54904e-05 0
6.29124e-05 -4.69505e-06 0
0.00214063 0.00503572 0
0.000864443 0.00316914 0
2.16872e-05 3.57201e-05 0
5.01448e-05 4.28974e-05 0
5.16184e-05 8.93543e-06 0
0.00546574 -0.00146295 0
5.43406e-05 2.2062e-05 0
0.00423598 -0.00176098 0
5.18134e-05 1.66196e-05 0
4.95399e-05 1.308e-05 0
4.95742e-05 1.94168e-05 0
0.000725909 0.00573925 0
5.51444e-05 2.50803e-05 0
6.52574e-05 2.23441e-05 0
2.16967e-05 2.6963e-06 0
1.32321e-05 1.39112e-05 0
5.3379e-05 1.15187e-05 0
4.20397e-05 6.28053e-06 0
0.000107353 -8.63234e-05 0
-0.000115684 -0.000100762 0
2.78589e-05 2.37581e-05 0
2.66401e-05 -1.54271e-05 0
3.79253e-06 0.00546954 0
4.51586e-05 1.58622e-05 0
-1.38431e-05 9.34084e-05 0
1.92393e-05 2.67897e-05 0
0.00489296 -0.0028314 0
-7.01234e-05 -5.64852e-05 0
0.00427104 -0.00325296 0
4.34513e-05 1.18585e-05 0
4.12476e-05 1.08919e-05 0
3.41361e-05 1.05823e-05 0
-5.16053e-05 1.71694e-05 0
-2.61767e-05 3.95846e-05 0
3.92747e-05 1.20714e-05 0
2.41317e-05 8.39379e-06 0
1.66777e-05 1.58039e-05 0
3.03397e-05 7.36693e-06 0
2.16857e-07 -2.43754e-05 0
-3.60527e-05 -1.27366e-05 0
1.53195e-05 8.85142e-06 0
6.14474e-06 9.25059e-08 0
-0.000692835 0.00523707 0
2.82553e-05 9.06499e-06 0
-1.4834e-07 3.12243e-09 0
1.63507e-05 2.90013e-06 0
2.41025e-05 -5.16183e-05 0
-1.88023e-06 -2.94815e-05 0
0.00373834 -0.00372843 0
2.93728e-05 -4.1574e-05 0
0.00320231 -0.00417307 0
2.90219e-05 7.05224e-06 0
2.73411e-05 4.49597e-06 0
2.72676e-05 4.22537e-06 0
-2.69067e-05 2.78217e-05 0
-1.46817e-05 4.72531e-05 0
-1.72738e-05 4.39295e-05 0
2.72674e-05 8.51714e-06 0
2.60815e-05 7.43111e-06 0
1.57348e-05 8.65108e-06 0
2.18563e-05 1.05403e-05 0
-5.80895e-06 7.42922e-06 0
-1.54827e-05 1.81786e-05 0
6.02516e-06 1.09737e-05 0
-0.00137564 0.00507743 0
1.80654e-05 -3.38016e-06 0
1.22862e-05 -1.177e-05 0
2.23685e-05 -4.13368e-05 0
1.45056e-05 -2.66847e-05 0
2.48559e-05 -4.04816e-05 0
2.60819e-05 -4.30092e-05 0
0.00262465 -0.004543 0
1.84069e-05 -4.18513e-05 0
2.52044e-05 4.15613e-06 0
2.31242e-05 -2.11772e-06 0
2.46606e-05 -2.46523e-07 0
1.85919e-05 -1.06799e-05 0
0.00202387 -0.00486114 0
-5.04019e-06 5.36342e-05 0
-1.14058e-05 3.30346e-05 0
-8.71141e-06 4.7355e-05 0
-9.85763e-06 4.26396e-05 0
2.00872e-05 5.19555e-06 0
2.15731e-05 9.85234e-06 0
1.31376e-05 1.27655e-05 0
1.75062e-05 1.3112e-05 0
-1.86546e-06 1.94017e-05 0
5.81793e-06 1.61546e-05 0
-0.00198533 0.00475168 0
1.45339e-05 -1.70454e-05 0
2.04212e-05 -3.27861e-05 0
2.23464e-05 -4.58766e-05 0
2.21685e-05 -4.08208e-05 0
1.05993e-05 -4.38674e-05 0
1.55237e-05 -4.8964e-05 0
1.94009e-07 -4.48071e-05 0
1.87621e-05 1.55166e-06 0
1.68155e-05 6.57301e-06 0
1.94754e-05 -1.5394e-06 0
2.10256e-05 -6.70814e-06 0
1.40247e-05 -2.09633e-05 0
1.80732e-05 -1.52181e-05 0
1.60581e-05 -4.9966e-06 0
0.00137828 -0.00506174 0
3.30172e-05 2.96073e-05 0
2.78823e-06 3.68993e-05 0
-3.79854e-06 2.97824e-05 0
-5.47913e-06 4.00289e-05 0
1.51141e-05 1.05778e-05 0
1.07317e-05 1.54917e-05 0
8.22628e-07 2.05181e-05 0
5.00416e-06 1.78498e-05 0
-1.14625e-05 -6.12286e-06 0
-0.00272791 0.00471006 0
1.28443e-05 -2.87075e-05 0
1.61171e-05 -4.27593e-05 0
5.10717e-06 -5.43924e-05 0
9.46638e-06 -5.02032e-05 0
-1.61166e-05 -4.67145e-05 0
-6.71788e-06 -6.16355e-05 0
9.04012e-06 -3.09258e-05 0
1.11161e-05 9.49526e-06 0
1.28762e-05 1.97035e-06 0
1.5486e-05 -1.12859e-05 0
1.35021e-05 -2.21563e-05 0
8.5329e-06 -3.2424e-05 0
1.14985e-05 -1.21988e-05 0
8.48211e-06 -5.78948e-06 0
-3.82974e-05 -7.14521e-05 0
0.000741481 -0.00532343 0
-2.48084e-06 2.32764e-05 0
-1.17285e-06 3.07959e-05 0
-5.37702e-06 3.61748e-05 0
-4.26867e-06 2.98064e-05 0
-1.63795e-06 1.67783e-05 0
7.31502e-06 1.47466e-05 0
1.43196e-06 1.96108e-05 0
5.49751e-06 1.1568e-05 0
-3.83563e-06 2.42594e-05 0
4.63669e-06 3.70958e-05 0
-0.00318243 0.00417177 0
5.06605e-06 -3.90314e-05 0
-1.81063e-07 -5.67016e-05 0
-1.97375e-05 -8.17367e-05 0
-9.25339e-06 -7.2151e-05 0
-2.21931e-05 -9.8837e-05 0
3.38713e-06 -4.0804e-05 0
4.84389e-06 2.75144e-06 0
8.77827e-06 -2.10197e-05 0
4.71755e-06 -3.63869e-05 0
5.96749e-06 -1.49672e-05 0
1.66286e-06 -5.97594e-06 0
-3.23357e-05 -0.000107279 0
1.25818e-05 -0.00500059 0
-7.23159e-06 2.16779e-05 0
-5.71296e-06 2.65371e-05 0
-8.24087e-06 2.55936e-05 0
8.29056e-06 8.76187e-06 0
-7.11776e-06 1.52679e-05 0
1.36134e-06 1.45688e-05 0
-2.88769e-06 1.71671e-05 0
-1.00492e-06 9.29292e-06 0
-8.67592e-06 1.8713e-05 0
-1.33261e-05 1.9799e-05 0
-2.39216e-05 -1.45996e-05 0
9.13276e-05 4.7635e-07 0
-0.00381227 0.00387697 0
-2.98185e-06 -5.302e-05 0
-1.12572e-05 -8.27636e-05 0
-4.95324e-06 -0.000105906 0
-1.07482e-05 -9.78316e-05 0
-1.3638e-07 -4.68801e-05 0
-2.37064e-07 -4.1617e-05 0
-3.21213e-06 3.03664e-06 0
2.18317e-06 -2.57991e-05 0
6.80119e-07 -1.68401e-05 0
-6.50085e-06 -4.23498e-06 0
-4.46311e-06 -1.30186e-05 0
7.2962e-06 -9.20673e-05 0
3.47993e-05 -9.19069e-05 0
-0.000640048 -0.00478851 0
-1.23723e-05 1.63919e-05 0
-1.90475e-05 9.07523e-06 0
-3.63174e-05 5.85077e-06 0
-1.83646e-05 1.54632e-05 0
-7.13166e-06 9.75228e-06 0
-1.45915e-05 1.32318e-05 0
-5.40997e-05 -9.28611e-06 0
-9.3986e-05 -0.000142604 0
-0.00210875 0.00162662 0
-3.78697e-06 -6.24304e-05 0
-2.87973e-06 -9.10166e-05 0
-1.64577e-06 -8.41635e-05 0
-2.50824e-06 -4.54473e-05 0
-3.88954e-06 -3.68217e-05 0
-1.13133e-05 4.17482e-06 0
-1.52084e-05 -3.81478e-06 0
-4.91753e-06 -2.2706e-05 0
-1.15072e-05 -1.34292e-05 0
1.34304e-06 -7.01293e-05 0
1.80865e-05 -5.06715e-05 0
-0.0013482 -0.00499664 0
-2.41868e-05 1.1887e-05 0
-4.39903e-05 1.31083e-05 0
-2.15776e-05 1.02564e-05 0
-1.63751e-05 6.94531e-06 0
-5.19986e-05 1.89796e-05 0
-6.63735e-05 2.98538e-05 0
-9.43009e-05 8.24675e-05 0
-0.00592369 0.00338568 0
-2.14042e-06 -5.44238e-05 0
-6.09968e-06 -6.46179e-05 0
-5.73578e-06 -3.88966e-05 0
-9.10297e-06 -3.31313e-05 0
-1.95235e-05 1.48817e-06 0
-1.98206e-05 -7.00563e-06 0
-1.31471e-05 -2.37446e-05 0
-1.86759e-05 -1.57439e-05 0
-1.83373e-05 -5.47846e-05 0
-1.01327e-05 -5.82277e-05 0
2.57074e-06 -4.36623e-05 0
-0.0019693 -0.00469617 0
-3.04563e-05 1.0228e-05 0
-2.26809e-05 5.57461e-06 0
-4.74882e-05 1.12432e-05 0
-5.57352e-05 1.93465e-05 0
-4.2084e-05 2.61089e-05 0
-0.00461121 0.00193175 0
-9.59615e-06 -3.8834e-05 0
-1.19803e-05 -3.05528e-05 0
-2.22632e-05 -1.81792e-06 0
-2.0731e-05 -1.11147e-05 0
-1.70937e-05 -2.12263e-05 0
-2.45103e-05 -4.53916e-05 0
-3.03078e-05 -5.15911e-05 0
-1.19229e-05 -3.55864e-05 0
-0.00258733 -0.00447108 0
-3.18345e-05 3.61889e-06 0
-5.03875e-05 6.11196e-06 0
-5.39021e-05 1.15607e-05 0
-4.50788e-05 1.30398e-05 0
-0.00496184 0.00131405 0
-1.84331e-05 -2.9141e-05 0
-2.90754e-05 -6.63398e-06 0
-2.43332e-05 -1.79033e-05 0
-3.25806e-05 -4.28784e-05 0