# vtk DataFile Version 2.0
CellBP Time: 3.52
ASCII
DATASET UNSTRUCTURED_GRID
POINTS 296 double
-9.018 -3.70613 0
-8.45016 -4.85765 0
-9.42923 -2.48993 0
-9.68176 -1.23112 0
-8.35605 -2.81822 0
-7.73739 -5.92556 0
-6.89107 -6.89102 0
-7.91587 -3.87405 0
-7.34143 -4.86701 0
-5.92517 -7.73697 0
-4.85779 -8.45057 0
-9.76668 0.0500178 0
-9.68227 1.33126 0
-8.65613 -1.68359 0
-8.78484 -0.529514 0
-7.5882 -2.0037 0
-7.22433 -2.9059 0
-6.63656 -5.77794 0
-5.82147 -6.59584 0
-6.78899 -3.88814 0
-6.21942 -4.675 0
-3.70636 -9.01827 0
-2.49008 -9.42948 0
-4.90567 -7.30766 0
-3.91237 -7.88499 0
-8.79131 0.64329 0
-9.43206 2.59074 0
-8.62185 1.7738 0
-9.01902 3.8065 0
-7.74276 -0.928815 0
-7.79305 0.0802663 0
-6.95127 -1.31564 0
-1.23101 -9.68125 0
-6.44034 -2.15271 0
-6.3182 -3.05555 0
-5.53552 -5.47353 0
-4.79502 -6.11433 0
-5.65804 -3.75631 0
-5.2684 -4.5607 0
-2.86567 -8.36258 0
-1.77823 -8.63878 0
-3.92742 -6.72231 0
-3.05602 -7.15129 0
0.0500494 -9.76662 0
-7.70404 1.14332 0
-8.33725 2.91498 0
-7.55044 2.1116 0
-8.45147 4.95833 0
-7.87885 3.97763 0
-7.7381 6.02605 0
-6.77749 -0.396809 0
-6.95525 0.552485 0
-5.77065 -1.00327 0
-0.590697 -8.8083 0
0.5656 -8.76954 0
-5.30242 -2.47994 0
-4.49116 -5.09481 0
-3.90177 -5.77424 0
-4.4383 -3.80423 0
-2.062 -7.56059 0
-1.13526 -7.78445 0
-2.99397 -6.10097 0
-2.30855 -6.61857 0
1.33126 -9.68254 0
-6.68832 1.42185 0
-7.17088 3.11755 0
-6.65807 2.37259 0
-7.29367 4.98796 0
-6.7169 4.00239 0
-6.89165 6.99163 0
-6.57157 5.89336 0
-5.92608 7.83822 0
-4.45248 -1.18087 0
-5.81385 0.513696 0
-4.65551 -0.0103408 0
0.00849372 -7.84674 0
1.73837 -8.64256 0
0.948801 -7.76211 0
-4.03796 -2.40603 0
-3.48498 -1.39094 0
-3.29403 -4.8047 0
-3.2654 -3.26729 0
-1.37833 -6.67438 0
-0.50867 -7.0238 0
-1.97525 -5.5363 0
2.59074 -9.43214 0
-5.50667 2.03669 0
-6.09374 3.07171 0
-6.10407 4.86886 0
-5.76075 3.99085 0
-5.76058 6.71634 0
-5.45125 5.61851 0
-4.85984 8.55416 0
-4.83789 7.40378 0
-3.50094 -0.424181 0
-4.44868 1.24891 0
-3.71087 0.592044 0
-4.06162 2.31955 0
-3.70671 9.11939 0
2.8623 -8.3318 0
0.419631 -6.79436 0
2.02173 -7.52474 0
1.30586 -6.90448 0
-2.44425 -0.87362 0
-2.83793 -2.13075 0
-2.29407 -4.09681 0
-2.32526 -2.97309 0
-0.442279 -5.86044 0
-1.22253 -4.49853 0
3.80704 -9.02021 0
-4.78927 3.39144 0
-5.08717 4.59349 0
-4.64649 6.28056 0
-4.53815 5.35892 0
-3.8434 7.99253 0
-3.8262 6.84479 0
-2.78307 8.42183 0
-1.64865 -0.137806 0
-1.44993 -0.890349 0
-2.48869 0.507255 0
-3.25309 1.44399 0
-3.2386 3.31619 0
-2.91049 2.37145 0
-1.35478 0.627044 0
-2.49088 9.53263 0
3.93234 -7.88615 0
2.96421 -7.15684 0
0.954001 -5.82128 0
2.07402 -6.41458 0
-1.68269 -1.9917 0
-1.43421 -3.27724 0
0.0902477 -4.7464 0
-0.566084 -3.69388 0
4.93165 -7.3181 0
4.95805 -8.45102 0
-3.77658 4.55119 0
-3.73425 5.75138 0
-2.88761 7.28889 0
-3.00928 6.35285 0
-1.6623 8.73273 0
-1.93984 7.61836 0
-2.33809 4.05123 0
-0.730572 -1.32694 0
-0.836691 -0.257511 0
-1.93585 1.68058 0
-2.12541 2.87545 0
-1.30633 3.54418 0
-0.869249 1.35062 0
-0.282277 0.455975 0
-0.533431 8.87088 0
-1.23117 9.78235 0
1.11265 -4.57404 0
3.90973 -6.71654 0
2.98755 -6.09389 0
2.11765 -5.4243 0
4.7839 -6.20464 0
-0.558767 -2.47637 0
0.495066 -3.46331 0
0.0535561 -1.61013 0
1.48168 -3.68154 0
5.86666 -6.61413 0
6.02645 -7.73861 0
-2.47548 5.34802 0
-2.13019 6.53367 0
-0.903925 7.80237 0
-1.27216 6.93118 0
0.0862318 7.87948 0
-1.14431 4.49422 0
0.150293 -0.617524 0
-0.797252 2.48817 0
-0.331536 3.60022 0
0.06315 1.51248 0
0.74133 0.473349 0
0.646744 8.87359 0
0.0500156 9.86818 0
2.38073 -4.28478 0
3.8588 -5.63979 0
3.00111 -5.21223 0
5.57316 -5.49129 0
4.69058 -5.28255 0
0.629585 -2.29297 0
1.25599 -2.95082 0
0.75731 -1.39118 0
2.16402 -3.1354 0
2.99337 -3.47613 0
6.15462 -4.79133 0
6.65522 -5.76896 0
6.99199 -6.89184 0
-1.01956 5.81994 0
-0.372542 6.88292 0
1.12252 7.76884 0
0.557933 7.07911 0
-0.000739931 4.72472 0
0.606958 3.82731 0
1.33869 -0.64178 0
0.539074 2.65069 0
0.96598 1.57467 0
1.9099 0.213825 0
1.61452 1.06483 0
2.12922 7.58299 0
1.79912 8.71202 0
1.33133 9.78304 0
3.82251 -4.35128 0
5.11615 -4.44866 0
5.84525 -3.93475 0
3.78362 -3.20075 0
1.812 -1.88241 0
3.01878 -2.57365 0
6.78293 -3.94758 0
7.38123 -4.8966 0
7.83931 -5.92693 0
0.483328 5.88127 0
1.42809 6.74147 0
2.37414 6.66858 0
1.2099 4.55583 0
1.48803 3.39724 0
2.43545 -0.691908 0
2.82762 0.14257 0
1.78869 2.16256 0
2.61155 1.14997 0
3.07184 7.16972 0
2.90416 8.37674 0
2.59111 9.53323 0
4.91105 -3.32771 0
6.1204 -3.10849 0
4.17257 -2.27513 0
3.2441 -1.50281 0
6.73109 -2.31293 0
7.23177 -3.04235 0
7.96484 -3.91219 0
8.55125 -4.85834 0
2.02357 5.59973 0
3.08641 6.15338 0
2.36381 4.1267 0
2.41987 3.06057 0
3.52532 -0.460839 0
3.61534 0.613217 0
2.96156 2.28785 0
3.54525 1.52512 0
4.01215 5.8981 0
3.98456 6.79324 0
3.97354 7.93913 0
3.80736 9.12102 0
5.56885 -1.91613 0
4.50907 -1.12957 0
6.71402 -1.33613 0
7.59263 -2.03644 0
8.3976 -2.86144 0
9.1182 -3.70612 0
3.41921 4.87717 0
3.33893 3.38531 0
4.69122 0.130064 0
4.51912 1.30994 0
4.06528 2.44377 0
4.57084 5.15282 0
4.84405 6.19128 0
4.98099 7.38124 0
4.9588 8.55228 0
5.88379 -0.434892 0
7.01133 -0.488256 0
7.76016 -1.08534 0
8.68576 -1.74607 0
9.5332 -2.49086 0
4.5528 3.82789 0
5.81827 1.09869 0
5.37176 2.53518 0
5.38072 4.62116 0
5.61291 5.52428 0
5.89811 6.67297 0
6.02641 7.83842 0
6.84693 0.46362 0
7.85442 -0.0256383 0
8.86179 -0.584381 0
9.78366 -1.23147 0
6.96149 1.34965 0
5.72195 3.77903 0
6.54249 2.19784 0
6.38125 3.08848 0
6.29353 4.68781 0
6.69433 5.83903 0
6.99319 6.99312 0
7.78568 0.967792 0
8.86113 0.572875 0
9.86756 0.0499344 0
7.61764 2.00466 0
6.83054 3.90501 0
7.27099 2.94738 0
7.37993 4.88679 0
7.83917 6.0268 0
8.72476 1.72729 0
9.78306 1.33137 0
8.42277 2.83838 0
7.98337 3.91716 0
8.55358 4.95957 0
9.53289 2.59099 0
9.12038 3.80716 0
CELLS 542 2168
3 2 0 4
3 0 1 7
3 4 0 7
3 1 5 8
3 7 1 8
3 3 2 13
3 13 2 4
3 11 3 14
3 14 3 13
3 13 4 15
3 4 7 16
3 15 4 16
3 5 6 17
3 8 5 17
3 6 9 18
3 17 6 18
3 7 8 19
3 16 7 19
3 8 17 20
3 19 8 20
3 9 10 23
3 18 9 23
3 10 21 24
3 23 10 24
3 12 11 25
3 25 11 14
3 26 12 27
3 27 12 25
3 14 13 29
3 29 13 15
3 25 14 30
3 30 14 29
3 29 15 31
3 15 16 33
3 31 15 33
3 16 19 34
3 33 16 34
3 17 18 35
3 20 17 35
3 18 23 36
3 35 18 36
3 19 20 37
3 34 19 37
3 20 35 38
3 37 20 38
3 21 22 39
3 24 21 39
3 22 32 40
3 39 22 40
3 23 24 41
3 36 23 41
3 24 39 42
3 41 24 42
3 27 25 44
3 44 25 30
3 28 26 45
3 45 26 27
3 45 27 46
3 46 27 44
3 47 28 48
3 48 28 45
3 30 29 50
3 50 29 31
3 44 30 51
3 51 30 50
3 50 31 52
3 31 33 52
3 32 43 53
3 40 32 53
3 53 43 54
3 33 34 55
3 34 37 55
3 33 55 52
3 35 36 56
3 38 35 56
3 36 41 57
3 56 36 57
3 37 38 58
3 38 56 58
3 37 58 55
3 39 40 59
3 42 39 59
3 40 53 60
3 59 40 60
3 41 42 61
3 57 41 61
3 42 59 62
3 61 42 62
3 43 63 54
3 46 44 64
3 64 44 51
3 48 45 65
3 65 45 46
3 65 46 66
3 66 46 64
3 49 47 67
3 67 47 48
3 67 48 68
3 68 48 65
3 69 49 70
3 70 49 67
3 52 55 72
3 64 51 73
3 51 50 73
3 50 52 73
3 73 52 74
3 74 52 72
3 53 54 75
3 60 53 75
3 54 63 76
3 54 76 77
3 75 54 77
3 55 58 78
3 72 55 78
3 72 78 79
3 56 57 80
3 57 61 80
3 56 80 58
3 58 80 81
3 78 58 81
3 59 60 82
3 62 59 82
3 60 75 83
3 82 60 83
3 61 62 84
3 62 82 84
3 61 84 80
3 63 85 76
3 66 64 86
3 64 73 86
3 68 65 87
3 87 65 66
3 87 66 86
3 70 67 88
3 88 67 68
3 88 68 89
3 89 68 87
3 71 69 90
3 90 69 70
3 90 70 91
3 91 70 88
3 92 71 93
3 93 71 90
3 74 72 94
3 94 72 79
3 86 73 95
3 95 73 74
3 95 74 96
3 96 74 94
3 97 86 95
3 76 85 99
3 75 77 100
3 83 75 100
3 76 99 101
3 77 76 101
3 77 101 102
3 100 77 102
3 94 79 103
3 78 81 104
3 79 78 104
3 79 104 103
3 80 84 105
3 81 80 105
3 81 105 106
3 104 81 106
3 82 83 107
3 83 100 107
3 82 107 84
3 84 107 108
3 105 84 108
3 85 109 99
3 89 87 110
3 87 86 110
3 110 86 97
3 91 88 111
3 111 88 89
3 111 89 110
3 93 90 112
3 112 90 91
3 112 91 113
3 113 91 111
3 98 92 114
3 114 92 93
3 114 93 115
3 115 93 112
3 116 98 114
3 117 103 118
3 96 94 119
3 94 103 119
3 119 103 117
3 97 95 120
3 120 95 96
3 120 96 119
3 121 110 97
3 121 97 122
3 122 97 120
3 123 119 117
3 124 98 116
3 99 109 125
3 99 125 126
3 101 99 126
3 100 102 127
3 100 127 107
3 101 126 128
3 102 101 128
3 102 128 127
3 104 106 129
3 104 129 103
3 103 129 118
3 105 108 130
3 106 105 130
3 106 130 129
3 107 127 131
3 108 107 131
3 108 131 132
3 108 132 130
3 109 134 125
3 125 134 133
3 113 111 135
3 111 110 135
3 135 110 121
3 115 112 136
3 136 112 113
3 136 113 135
3 116 114 137
3 137 114 115
3 137 115 138
3 138 115 136
3 139 124 116
3 139 116 140
3 140 116 137
3 141 135 121
3 118 129 142
3 118 142 143
3 117 118 143
3 123 117 143
3 122 120 144
3 120 119 144
3 144 119 123
3 141 121 145
3 145 121 122
3 145 122 144
3 146 141 145
3 147 144 123
3 147 123 148
3 143 148 123
3 150 124 139
3 149 150 139
3 131 127 151
3 125 133 152
3 126 125 152
3 126 152 153
3 128 126 153
3 128 153 154
3 128 154 127
3 127 154 151
3 152 133 155
3 130 132 156
3 130 156 129
3 129 156 142
3 131 151 157
3 132 131 157
3 132 157 156
3 156 158 142
3 157 151 159
3 133 160 155
3 134 161 133
3 133 161 160
3 138 136 162
3 136 135 162
3 162 135 141
3 140 137 163
3 163 137 138
3 163 138 162
3 149 139 164
3 164 139 140
3 164 140 165
3 165 140 163
3 166 149 164
3 167 162 141
3 167 141 146
3 142 158 168
3 143 142 168
3 143 168 148
3 146 145 169
3 145 144 169
3 169 144 147
3 170 167 146
3 170 146 169
3 171 169 147
3 171 147 148
3 171 148 172
3 168 172 148
3 173 149 166
3 174 150 149
3 173 174 149
3 154 175 151
3 151 175 159
3 152 155 176
3 153 152 176
3 153 176 177
3 153 177 154
3 154 177 175
3 155 160 178
3 155 178 179
3 176 155 179
3 156 157 180
3 156 180 158
3 157 159 181
3 157 181 180
3 158 180 182
3 158 182 168
3 159 175 183
3 159 183 181
3 175 184 183
3 160 186 178
3 178 186 185
3 161 187 160
3 160 187 186
3 165 163 188
3 163 162 188
3 188 162 167
3 166 164 189
3 189 164 165
3 189 165 188
3 190 173 166
3 190 166 191
3 191 166 189
3 192 188 167
3 192 167 170
3 193 192 170
3 182 194 168
3 194 172 168
3 193 170 195
3 170 169 195
3 195 169 171
3 196 195 171
3 196 171 172
3 194 197 172
3 197 198 172
3 198 196 172
3 200 173 190
3 199 200 190
3 201 174 173
3 200 201 173
3 176 179 202
3 177 176 202
3 177 202 175
3 175 202 184
3 178 185 203
3 178 203 179
3 179 203 202
3 203 185 204
3 202 205 184
3 183 206 181
3 180 181 206
3 180 206 182
3 182 206 194
3 183 184 207
3 205 207 184
3 183 207 206
3 185 208 204
3 186 209 185
3 185 209 208
3 187 210 186
3 186 210 209
3 191 189 211
3 189 188 211
3 211 188 192
3 199 190 212
3 212 190 191
3 212 191 211
3 213 199 212
3 214 211 192
3 214 192 193
3 215 214 193
3 215 193 195
3 206 216 194
3 216 197 194
3 216 217 197
3 215 195 218
3 218 195 196
3 198 218 196
3 217 219 197
3 219 218 198
3 197 219 198
3 220 199 213
3 221 200 199
3 220 221 199
3 222 201 200
3 221 222 200
3 203 204 223
3 203 223 202
3 202 223 205
3 204 208 224
3 204 224 223
3 205 223 225
3 205 225 207
3 207 225 226
3 207 226 206
3 226 216 206
3 208 228 224
3 224 228 227
3 209 229 208
3 229 228 208
3 210 230 209
3 209 230 229
3 213 212 231
3 212 211 231
3 231 211 214
3 232 220 213
3 232 213 231
3 233 231 214
3 233 214 215
3 234 233 215
3 234 215 218
3 226 235 216
3 235 217 216
3 235 236 217
3 217 236 219
3 237 234 218
3 237 218 219
3 236 238 219
3 238 237 219
3 240 220 232
3 239 240 232
3 241 221 220
3 240 241 220
3 242 222 221
3 241 242 221
3 224 227 243
3 224 243 223
3 223 243 225
3 225 243 244
3 225 244 226
3 226 244 235
3 227 245 243
3 228 246 227
3 227 246 245
3 229 247 228
3 228 247 246
3 230 248 229
3 229 248 247
3 239 232 249
3 232 231 249
3 249 231 233
3 250 249 233
3 250 233 234
3 237 250 234
3 244 251 235
3 235 251 236
3 251 252 236
3 236 252 238
3 252 253 238
3 253 250 237
3 253 237 238
3 254 239 249
3 255 240 239
3 254 255 239
3 256 241 240
3 255 256 240
3 257 242 241
3 256 257 241
3 245 258 243
3 243 258 244
3 244 258 251
3 245 259 258
3 246 260 245
3 245 260 259
3 247 261 246
3 246 261 260
3 248 262 247
3 247 262 261
3 254 249 263
3 263 249 250
3 253 263 250
3 258 264 251
3 251 264 252
3 264 265 252
3 265 263 253
3 252 265 253
3 266 254 263
3 267 255 254
3 266 267 254
3 268 256 255
3 267 268 255
3 269 257 256
3 268 269 256
3 259 270 258
3 270 264 258
3 260 271 259
3 259 271 270
3 261 272 260
3 260 272 271
3 262 273 261
3 273 272 261
3 270 274 264
3 275 266 263
3 275 263 265
3 274 276 264
3 276 265 264
3 276 277 265
3 277 275 265
3 278 267 266
3 275 278 266
3 279 268 267
3 278 279 267
3 280 269 268
3 279 280 268
3 271 281 270
3 270 281 274
3 272 282 271
3 271 282 281
3 273 283 272
3 272 283 282
3 281 284 274
3 274 284 276
3 285 278 275
3 277 285 275
3 284 286 276
3 286 285 277
3 276 286 277
3 287 279 278
3 285 287 278
3 288 280 279
3 287 288 279
3 282 289 281
3 281 289 284
3 283 290 282
3 282 290 289
3 289 291 284
3 284 291 286
3 291 292 286
3 292 287 285
3 286 292 285
3 293 288 287
3 292 293 287
3 290 294 289
3 289 294 291
3 294 295 291
3 295 293 292
3 291 295 292
CELL_TYPES 542
5
5
5
5
5
5
5
5
5
5
5
5
5
5
5
5
5
5
5
5
5
5
5
5
5
5
5
5
5
5
5
5
5
5
5
5
5
5
5
5
5
5
5
5
5
5
5
5
5
5
5
5
5
5
5
5
5
5
5
5
5
5
5
5
5
5
5
5
5
5
5
5
5
5
5
5
5
5
5
5
5
5
5
5
5
5
5
5
5
5
5
5
5
5
5
5
5
5
5
5
5
5
5
5
5
5
5
5
5
5
5
5
5
5
5
5
5
5
5
5
5
5
5
5
5
5
5
5
5
5
5
5
5
5
5
5
5
5
5
5
5
5
5
5
5
5
5
5
5
5
5
5
5
5
5
5
5
5
5
5
5
5
5
5
5
5
5
5
5
5
5
5
5
5
5
5
5
5
5
5
5
5
5
5
5
5
5
5
5
5
5
5
5
5
5
5
5
5
5
5
5
5
5
5
5
5
5
5
5
5
5
5
5
5
5
5
5
5
5
5
5
5
5
5
5
5
5
5
5
5
5
5
5
5
5
5
5
5
5
5
5
5
5
5
5
5
5
5
5
5
5
5
5
5
5
5
5
5
5
5
5
5
5
5
5
5
5
5
5
5
5
5
5
5
5
5
5
5
5
5
5
5
5
5
5
5
5
5
5
5
5
5
5
5
5
5
5
5
5
5
5
5
5
5
5
5
5
5
5
5
5
5
5
5
5
5
5
5
5
5
5
5
5
5
5
5
5
5
5
5
5
5
5
5
5
5
5
5
5
5
5
5
5
5
5
5
5
5
5
5
5
5
5
5
5
5
5
5
5
5
5
5
5
5
5
5
5
5
5
5
5
5
5
5
5
5
5
5
5
5
5
5
5
5
5
5
5
5
5
5
5
5
5
5
5
5
5
5
5
5
5
5
5
5
5
5
5
5
5
5
5
5
5
5
5
5
5
5
5
5
5
5
5
5
5
5
5
5
5
5
5
5
5
5
5
5
5
5
5
5
5
5
5
5
5
5
5
5
5
5
5
5
5
5
5
5
5
5
5
5
5
5
5
5
5
5
5
5
5
5
5
5
5
5
5
5
5
5
5
5
5
5
5
5
5
5
5
5
5
5
5
5
5
5
5
5
5
5
5
5
5
5
5
5
5
5
5
5
5
5
5
5
5
5
5
5
5
5
5
5
5
5
5
5
5
5
5
5
5
5
5
5
5
5
5
5
5
5
5
5
5
5
POINT_DATA 296
SCALARS concentrations float 4
LOOKUP_TABLE default
0 0.963511 0.165997 9.42729
0 0.963466 0.165844 9.67356
0 0.963577 0.164717 11.4012
0 0.963516 0.164572 9.70969
0 0.96356 0.0913205 0.136079
0 0.963453 0.165392 9.7736
0 0.96345 0.165007 9.81751
0 0.963513 0.091196 0.057721
0 0.963497 0.0911803 0.0529406
0 0.963449 0.165057 9.84819
0 0.963432 0.165073 9.73606
0 0.963478 0.163973 9.2628
0 0.963478 0.164201 9.59401
0 0.963562 0.0913367 0.137553
0 0.963519 0.0912158 0.0572225
0 0.963589 0.0911583 0.0758694
0 0.96358 0.0911613 0.0655733
0 0.963493 0.0911687 0.052988
0 0.963493 0.0911672 0.0569141
0 0.963573 0.0911539 0.0501426
0 0.963569 0.0911501 0.0480697
0 0.96345 0.166352 9.98078
0 0.96346 0.167112 10.1118
0 0.963486 0.0911688 0.0525024
0 0.963485 0.091172 0.0516799
0 0.963514 0.0911769 0.0531971
0 0.96347 0.163625 9.6646
0 0.963514 0.0911679 0.0557831
0 0.963473 0.164094 9.80933
0 0.963583 0.0911652 0.0662618
0 0.963581 0.0911515 0.0504187
0 0.963642 0.0911049 0.0466584
0 0.963444 0.165151 10.1308
0 0.963652 0.0910875 0.0409975
0 0.963638 0.0911145 0.0425205
0 0.963569 0.0911482 0.0492925
0 0.963568 0.0911481 0.0494113
0 0.963652 0.0911028 0.0373874
0 0.96364 0.0911242 0.0427527
0 0.963498 0.0911738 0.0604216
0 0.963496 0.0911843 0.0664995
0 0.963569 0.0911475 0.0488665
0 0.96357 0.0911483 0.04982
0 0.963394 0.16344 9.20697
0 0.963585 0.0911542 0.0497522
0 0.963513 0.0911633 0.0497123
0 0.963591 0.0911566 0.0501177
0 0.963502 0.163634 9.54209
0 0.963532 0.0911668 0.0518397
0 0.963508 0.163149 9.73991
0 0.963656 0.0910986 0.0394472
0 0.963649 0.0911193 0.0415455
0 0.963708 0.0910208 0.0224806
0 0.963466 0.0912347 0.0531119
0 0.963465 0.0912474 0.0445506
0 0.963707 0.0910264 0.0220628
0 0.963656 0.0911092 0.0408862
0 0.963644 0.0911228 0.0440445
0 0.963711 0.0910366 0.0247606
0 0.963573 0.0911495 0.0511674
0 0.963566 0.0911532 0.0475257
0 0.963659 0.0911121 0.0417689
0 0.963646 0.0911259 0.0445744
0 0.963455 0.163248 9.95778
0 0.963672 0.0911027 0.0386803
0 0.963602 0.091153 0.0487503
0 0.96367 0.091122 0.0429706
0 0.963552 0.0911608 0.0493744
0 0.963622 0.0911461 0.046333
0 0.963515 0.163037 9.60624
0 0.963563 0.0911532 0.0399547
0 0.963474 0.163171 9.6287
0 0.963755 0.0909989 0.0163554
0 0.963718 0.0910294 0.0242045
0 0.963761 0.0910002 0.0173368
0 0.96356 0.0911531 0.0430154
0 0.963508 0.0911846 0.0647126
0 0.963564 0.0911662 0.0446267
0 0.963757 0.0910027 0.0170453
0 0.963801 0.090991 0.0141779
0 0.963715 0.091039 0.0267565
0 0.963761 0.0910087 0.0191427
0 0.963659 0.0911004 0.0379714
0 0.963641 0.0911103 0.0373748
0 0.963718 0.0910394 0.0266686
0 0.963483 0.163569 9.57683
0 0.963736 0.0910295 0.0253094
0 0.963696 0.0911051 0.0394576
0 0.963641 0.0911475 0.0429283
0 0.963701 0.0911211 0.0407401
0 0.96357 0.091152 0.0323295
0 0.96366 0.0911448 0.0358264
0 0.963399 0.160258 6.97681
0 0.963523 0.0911402 0.0299824
0 0.96381 0.0909822 0.0126458
0 0.963771 0.0910039 0.0189443
0 0.963809 0.0909886 0.0144603
0 0.963788 0.0910027 0.0196042
0 0.963573 0.163341 9.54695
0 0.96351 0.0911915 0.0537132
0 0.963652 0.0911107 0.0349095
0 0.96357 0.0911567 0.0417071
0 0.963637 0.091133 0.0355333
0 0.963841 0.0909603 0.00982149
0 0.96381 0.0909875 0.0149089
0 0.963766 0.0910104 0.0203068
0 0.963808 0.0909976 0.0176042
0 0.963717 0.0910404 0.0246181
0 0.963768 0.0910078 0.0196299
0 0.963478 0.163049 9.05076
0 0.963761 0.0910304 0.0251004
0 0.963731 0.0911069 0.0349445
0 0.96367 0.0911383 0.02265
0 0.963738 0.0911234 0.0325505
0 0.963559 0.0911914 0.0800474
0 0.963687 0.091142 0.0351962
0 0.963716 0.0913501 0.173713
0 0.963867 0.0909469 0.00756359
0 0.963868 0.0909474 0.0088746
0 0.963846 0.0909557 0.00892119
0 0.963825 0.090984 0.0148694
0 0.963806 0.0910013 0.0206478
0 0.963829 0.0909921 0.0176941
0 0.963876 0.0909349 0.00538872
0 0.963746 0.163108 9.19467
0 0.963504 0.0913076 0.0263004
0 0.96357 0.0911552 0.0273306
0 0.963714 0.0910582 0.0228579
0 0.963647 0.0911249 0.0281738
0 0.963845 0.0909627 0.0119672
0 0.963817 0.0909896 0.0166888
0 0.963771 0.0910101 0.017809
0 0.963813 0.0909884 0.0157857
0 0.963501 0.0913402 0.0271416
0 0.963469 0.162322 11.0936
0 0.963787 0.0910292 0.024688
0 0.963764 0.0911042 0.03419
0 0.963732 0.0911732 0.0824182
0 0.963773 0.0911205 0.0531445
0 0.963719 0.0913389 0.16177
0 0.963757 0.0911733 0.0981235
0 0.96382 0.0909988 0.0238418
0 0.963876 0.090939 0.0093503
0 0.963887 0.0909188 0.00480728
0 0.963857 0.0909538 0.0103535
0 0.963844 0.0909825 0.0177608
0 0.963845 0.0909889 0.0215608
0 0.963879 0.0909296 0.00616675
0 0.963891 0.0909001 0.000833301
0 0.963608 0.0911795 0.0590753
0 0.963617 0.163572 9.63423
0 0.963768 0.0910156 0.0159158
0 0.963567 0.091151 0.0207534
0 0.96364 0.0911295 0.0226264
0 0.963718 0.0910617 0.0181421
0 0.963566 0.0911837 0.030224
0 0.96385 0.0909625 0.0125808
0 0.963822 0.0909877 0.0145282
0 0.963878 0.0909414 0.0110038
0 0.963805 0.0910167 0.0170471
0 0.963507 0.091201 0.0546871
0 0.963473 0.163086 9.13631
0 0.963803 0.0910248 0.033869
0 0.963788 0.0911025 0.0660684
0 0.963721 0.0911762 0.0910326
0 0.963774 0.0911241 0.0782325
0 0.963667 0.0911575 0.0636074
0 0.963822 0.0909977 0.0271338
0 0.963891 0.0909041 0.00679236
0 0.963864 0.0909492 0.0118047
0 0.963846 0.0909831 0.0208627
0 0.963882 0.0909219 0.00599903
0 0.963889 0.0909055 0.00621375
0 0.963562 0.0911579 0.0465565
0 0.963526 0.162791 9.51812
0 0.963761 0.0910248 0.0166546
0 0.963645 0.0911211 0.0215814
0 0.963706 0.0910719 0.0174326
0 0.963575 0.0911793 0.0408444
0 0.963643 0.0911314 0.0292362
0 0.963859 0.0909571 0.0124029
0 0.963842 0.0909779 0.0138897
0 0.963879 0.0909392 0.0122504
0 0.963819 0.0910036 0.0175443
0 0.963777 0.0910363 0.0221043
0 0.963579 0.0911704 0.0447045
0 0.963496 0.0912233 0.0347117
0 0.96347 0.162308 9.77649
0 0.963797 0.0910234 0.0407437
0 0.963753 0.0911048 0.0625157
0 0.963633 0.0911495 0.0515989
0 0.963718 0.0911205 0.0532635
0 0.963812 0.0910031 0.0271197
0 0.963835 0.090994 0.0220902
0 0.963881 0.0909292 0.0119048
0 0.963861 0.0909519 0.0124266
0 0.963877 0.0909327 0.00847461
0 0.963876 0.0909403 0.0133917
0 0.963875 0.0909403 0.011266
0 0.963615 0.0911489 0.0483577
0 0.963539 0.0911532 0.0459556
0 0.963498 0.163037 9.55597
0 0.963716 0.0910568 0.0225085
0 0.963663 0.0911224 0.0371708
0 0.963656 0.0911446 0.0478156
0 0.963763 0.0910374 0.0258579
0 0.963854 0.0909594 0.0152657
0 0.963816 0.091004 0.0217284
0 0.963591 0.091174 0.0558152
0 0.963497 0.0912382 0.0409024
0 0.963443 0.162089 8.77905
0 0.963771 0.0910271 0.0325879
0 0.963709 0.0911037 0.0431334
0 0.963685 0.0911333 0.045478
0 0.963796 0.0910049 0.0239539
0 0.963831 0.0909891 0.0191575
0 0.963859 0.0909642 0.0184972
0 0.963853 0.0909798 0.021104
0 0.963853 0.0909616 0.0136873
0 0.963851 0.0909716 0.0175006
0 0.963603 0.0911522 0.0475168
0 0.963527 0.0911454 0.0461134
0 0.963486 0.161971 9.42571
0 0.963723 0.0910576 0.0323721
0 0.963679 0.0911137 0.0491302
0 0.963778 0.0910199 0.0273446
0 0.963827 0.0909878 0.0223644
0 0.963674 0.0911216 0.0551161
0 0.963602 0.0911643 0.0655461
0 0.963532 0.0912399 0.0845308
0 0.963469 0.163816 9.62372
0 0.963752 0.0910287 0.0269229
0 0.963693 0.0911131 0.0403302
0 0.963786 0.0910033 0.0217137
0 0.963821 0.0909986 0.0203538
0 0.963824 0.0909949 0.0245366
0 0.963822 0.0910001 0.024505
0 0.963824 0.0909953 0.0205867
0 0.963817 0.091005 0.0239325
0 0.96368 0.0911284 0.0428576
0 0.963601 0.0911539 0.0450115
0 0.963519 0.0911457 0.0457653
0 0.963479 0.161169 9.40719
0 0.963735 0.0910386 0.0351716
0 0.963784 0.091006 0.027187
0 0.963685 0.0911087 0.0504097
0 0.963601 0.0911662 0.0635484
0 0.963536 0.0912349 0.0850563
0 0.963513 0.163746 10.4982
0 0.963744 0.0910294 0.0264923
0 0.963782 0.0910054 0.02257
0 0.963784 0.0910016 0.0259569
0 0.963781 0.0910048 0.0250307
0 0.963781 0.0910048 0.0238099
0 0.963697 0.0911069 0.0428938
0 0.963608 0.091158 0.0455153
0 0.963511 0.091156 0.035841
0 0.963466 0.162216 9.483
0 0.963741 0.0910382 0.034595
0 0.963673 0.0911254 0.0506219
0 0.963598 0.0911514 0.0541487
0 0.963511 0.0911706 0.0500432
0 0.963479 0.162537 9.06056
0 0.963744 0.091029 0.0292458
0 0.963741 0.0910343 0.0310532
0 0.963743 0.0910315 0.0294031
0 0.963694 0.0911184 0.0519232
0 0.963634 0.0911655 0.0598002
0 0.963533 0.0912039 0.0393736
0 0.963458 0.162632 9.3642
0 0.963687 0.0911098 0.0459512
0 0.9636 0.0911453 0.0514094
0 0.963512 0.091157 0.0486321
0 0.96346 0.162066 9.51712
0 0.963676 0.0911276 0.0464806
0 0.963703 0.0911036 0.0471699
0 0.963691 0.0911112 0.0420307
0 0.963686 0.0911283 0.0467286
0 0.96365 0.0911537 0.0674403
0 0.963617 0.0913352 0.106426
0 0.963538 0.161966 8.79586
0 0.963599 0.0911495 0.0506983
0 0.963519 0.09116 0.0525525
0 0.963468 0.162525 9.35741
0 0.963601 0.0911521 0.0471007
0 0.963632 0.0911673 0.0575762
0 0.963609 0.0911577 0.0452191
0 0.963607 0.0913084 0.0927781
0 0.96363 0.159838 10.4502
0 0.963515 0.0911562 0.0504087
0 0.963475 0.162561 9.80695
0 0.963513 0.0911616 0.0379367
0 0.963533 0.0911733 0.0336876
0 0.963523 0.160857 8.66719
0 0.963459 0.162511 9.34948
0 0.963467 0.162083 9.37687
VECTORS fa_u float
0.00871981 0.00358312 0
0.00837595 0.00483956 0
0.0110178 0.00293184 0
0.00961991 0.00131731 0
0.000135871 -7.5316e-06 0
0.0077521 0.00595217 0
0.00693181 0.00695223 0
5.58592e-05 1.4542e-05 0
4.28086e-05 3.1147e-05 0
0.00601571 0.00779731 0
0.00486903 0.0084311 0
0.00926278 1.85892e-05 0
0.00951133 -0.00125681 0
0.000116575 7.30157e-05 0
5.45804e-05 1.71871e-05 0
7.30378e-05 2.05338e-05 0
6.35415e-05 1.61969e-05 0
3.64972e-05 3.84147e-05 0
3.30239e-05 4.63533e-05 0
4.33322e-05 2.52309e-05 0
3.48936e-05 3.30625e-05 0
0.00377517 0.00923926 0
0.00259655 0.00977272 0
3.30096e-05 4.08274e-05 0
1.60449e-05 4.91261e-05 0
5.24832e-05 -8.68538e-06 0
0.0093406 -0.00248147 0
5.47508e-05 -1.0682e-05 0
0.00906083 -0.00375823 0
6.42868e-05 1.6057e-05 0
5.04077e-05 1.05247e-06 0
4.56986e-05 9.41552e-06 0
0.00136915 0.0100379 0
3.86123e-05 1.37799e-05 0
3.78645e-05 1.9346e-05 0
3.06216e-05 3.86273e-05 0
2.79552e-05 4.07429e-05 0
2.78159e-05 2.49819e-05 0
2.79854e-05 3.23205e-05 0
1.98624e-05 5.70636e-05 0
1.48596e-05 6.48181e-05 0
2.26891e-05 4.32798e-05 0
1.90572e-05 4.6031e-05 0
1.29372e-06 0.00920697 0
4.87482e-05 -9.94469e-06 0
4.73016e-05 -1.52931e-05 0
4.78755e-05 -1.48228e-05 0
0.00826075 -0.00477614 0
4.39401e-05 -2.75068e-05 0
0.00773894 -0.00591393 0
3.94421e-05 6.38197e-07 0
4.11781e-05 -5.51274e-06 0
2.22195e-05 3.41638e-06 0
2.69477e-05 4.57679e-05 0
-1.91361e-05 4.02314e-05 0
1.87816e-05 1.15766e-05 0
2.33989e-05 3.35287e-05 0
2.24515e-05 3.78925e-05 0
1.54988e-05 1.931e-05 0
1.61844e-05 4.85404e-05 0
1.31001e-05 4.56846e-05 0
1.80292e-05 3.76774e-05 0
1.60375e-05 4.15894e-05 0
-0.0013614 0.00986428 0
3.71938e-05 -1.06202e-05 0
4.39635e-05 -2.10666e-05 0
3.94867e-05 -1.69489e-05 0
4.4866e-05 -2.06124e-05 0
4.04976e-05 -2.25098e-05 0
0.00678771 -0.00679756 0
3.39024e-05 -2.11424e-05 0
0.00588441 -0.00762139 0
1.52718e-05 5.85402e-06 0
2.37624e-05 -4.60507e-06 0
1.73357e-05 -1.93256e-07 0
3.37167e-06 4.2883e-05 0
-2.68767e-06 6.46568e-05 0
-2.06718e-06 4.45788e-05 0
1.22663e-05 1.18354e-05 0
1.16092e-05 8.13876e-06 0
1.31069e-05 2.33264e-05 0
1.01091e-05 1.62558e-05 0
1.06918e-05 3.6435e-05 0
5.98246e-06 3.68929e-05 0
9.50435e-06 2.49175e-05 0
-0.00245862 0.00925585 0
2.2838e-05 -1.09084e-05 0
3.44314e-05 -1.92713e-05 0
3.5996e-05 -2.33909e-05 0
3.41803e-05 -2.21688e-05 0
2.84712e-05 -1.53162e-05 0
2.82665e-05 -2.20122e-05 0
0.00352941 -0.00601823 0
6.65261e-06 2.92351e-05 0
1.22316e-05 3.20998e-06 0
1.78104e-05 -6.45588e-06 0
1.42893e-05 -2.21759e-06 0
1.60917e-05 -1.11974e-05 0
0.00362647 -0.00883136 0
2.96542e-06 5.36313e-05 0
1.87721e-06 3.4859e-05 0
-5.39552e-07 4.17036e-05 0
-1.11749e-06 3.55157e-05 0
7.61363e-06 6.20438e-06 0
8.74477e-06 1.2075e-05 0
7.95159e-06 1.86852e-05 0
7.6668e-06 1.5847e-05 0
4.70682e-06 2.4164e-05 0
5.25326e-06 1.89139e-05 0
-0.00348539 0.00835274 0
1.96055e-05 -1.56734e-05 0
2.66472e-05 -2.26064e-05 0
1.37842e-05 -1.79727e-05 0
2.01947e-05 -2.55286e-05 0
-7.54731e-05 -2.6672e-05 0
-8.48852e-06 -3.41572e-05 0
-4.96534e-05 -0.000166466 0
6.71426e-06 3.48233e-06 0
4.62628e-06 7.57338e-06 0
8.91143e-06 -4.1729e-07 0
1.33727e-05 -6.50148e-06 0
1.28877e-05 -1.6132e-05 0
1.31123e-05 -1.18806e-05 0
5.27552e-06 -1.09869e-06 0
0.00238058 -0.00888114 0
1.20871e-05 2.33583e-05 0
1.27502e-06 2.73008e-05 0
-6.86057e-08 2.28578e-05 0
-2.97383e-06 2.80164e-05 0
4.33176e-06 1.11557e-05 0
4.09297e-06 1.61791e-05 0
1.22159e-06 1.77671e-05 0
1.57893e-06 1.57066e-05 0
-2.68843e-05 -3.72831e-06 0
-0.00555722 0.00960135 0
1.27216e-05 -2.11579e-05 0
9.41952e-06 -3.28668e-05 0
-1.6603e-05 -8.07286e-05 0
1.6697e-06 -5.31183e-05 0
9.71501e-05 -0.00012935 0
1.45211e-05 -9.7043e-05 0
8.76351e-06 -2.21727e-05 0
6.51231e-07 9.32759e-06 0
1.715e-06 4.49096e-06 0
7.82872e-06 -6.77538e-06 0
9.5875e-06 -1.49508e-05 0
6.53376e-06 -2.0547e-05 0
3.10554e-06 -5.32771e-06 0
-8.16613e-07 -1.65933e-07 0
3.56783e-05 -4.70845e-05 0
0.00127439 -0.00954957 0
-4.09217e-06 1.53807e-05 0
-1.20676e-05 1.68843e-05 0
-8.41996e-06 2.10014e-05 0
-5.20699e-06 1.73788e-05 0
-2.89799e-05 8.58205e-06 0
-1.29126e-07 1.25801e-05 0
-2.95226e-06 1.42251e-05 0
-3.38993e-06 1.04686e-05 0
-8.29358e-06 1.48936e-05 0
-5.04837e-05 2.10258e-05 0
-0.00553542 0.00726851 0
6.70127e-06 -3.31994e-05 0
7.75447e-06 -6.56118e-05 0
3.52956e-05 -8.39116e-05 0
1.77785e-05 -7.61856e-05 0
2.02769e-05 -6.02889e-05 0
5.07414e-06 -2.66552e-05 0
-4.21785e-06 5.32409e-06 0
3.41741e-06 -1.12992e-05 0
2.62214e-06 -2.06972e-05 0
-1.2651e-06 -5.86411e-06 0
-6.20077e-06 4.0145e-07 0
1.06102e-05 -4.53313e-05 0
-3.30499e-05 -0.00951806 0
-1.20243e-05 1.15235e-05 0
-1.74968e-05 1.26339e-05 0
-1.31566e-05 1.14368e-05 0
-3.85664e-05 1.34497e-05 0
-2.79688e-05 8.51451e-06 0
-5.84389e-06 1.09398e-05 0
-8.55289e-06 1.09441e-05 0
-8.57827e-06 8.74558e-06 0
-1.3869e-05 1.07449e-05 0
-1.91065e-05 1.1115e-05 0
-4.2938e-05 1.24427e-05 0
-2.53044e-05 2.3761e-05 0
-0.00686696 0.00695878 0
7.1957e-06 -4.01033e-05 0
1.60342e-05 -6.04244e-05 0
3.26554e-06 -5.14955e-05 0
7.26177e-06 -5.27661e-05 0
1.9897e-06 -2.70466e-05 0
-2.21657e-06 -2.19787e-05 0
-1.05539e-05 5.50829e-06 0
-2.69952e-06 -1.21298e-05 0
-5.81526e-06 -6.16456e-06 0
-1.32648e-05 1.83872e-06 0
-1.08188e-05 -3.14278e-06 0
-8.28806e-06 -4.76422e-05 0
-3.7371e-06 -4.58034e-05 0
-0.00126134 -0.00947236 0
-2.10988e-05 7.84041e-06 0
-3.57274e-05 1.02579e-05 0
-4.5758e-05 1.38758e-05 0
-2.43709e-05 8.64243e-06 0
-1.32087e-05 7.65321e-06 0
-2.01336e-05 8.17091e-06 0
-5.49506e-05 9.78602e-06 0
-4.00855e-05 -8.13371e-06 0
-0.00693583 0.00538201 0
1.9382e-06 -3.25302e-05 0
-3.01326e-06 -4.3028e-05 0
-1.2673e-05 -4.36766e-05 0
-4.24279e-06 -2.35752e-05 0
-7.73792e-06 -1.75252e-05 0
-1.74778e-05 6.05577e-06 0
-2.09637e-05 2.42948e-06 0
-1.03455e-05 -8.96174e-06 0
-1.72144e-05 -3.15201e-06 0
-1.65294e-05 -4.45491e-05 0
-1.32154e-05 -4.41791e-05 0
-0.00244178 -0.00910394 0
-3.10075e-05 9.2998e-06 0
-4.70359e-05 1.41916e-05 0
-2.62703e-05 7.58931e-06 0
-2.1469e-05 6.26477e-06 0
-5.27926e-05 1.58341e-05 0
-6.26134e-05 1.9387e-05 0
-8.42514e-05 6.86725e-06 0
-0.00837331 0.0047438 0
-7.57633e-06 -2.58349e-05 0
-1.73174e-05 -3.64229e-05 0
-1.08575e-05 -1.88042e-05 0
-1.38848e-05 -1.48825e-05 0
-2.41204e-05 4.49981e-06 0
-2.44985e-05 5.63609e-07 0
-1.83857e-05 -9.26177e-06 0
-2.35216e-05 -4.41549e-06 0
-2.63311e-05 -3.38148e-05 0
-2.12327e-05 -3.96889e-05 0
-1.7386e-05 -4.23342e-05 0
-0.00359261 -0.00869416 0
-3.38419e-05 9.57945e-06 0
-2.64169e-05 6.42516e-06 0
-4.90323e-05 1.17036e-05 0
-6.01776e-05 2.04218e-05 0
-7.22601e-05 4.4867e-05 0
-0.00969622 0.00402447 0
-1.69799e-05 -2.03353e-05 0
-1.79376e-05 -1.36984e-05 0
-2.57767e-05 3.05276e-06 0
-2.49477e-05 -2.03709e-06 0
-2.24154e-05 -8.02899e-06 0
-3.25871e-05 -2.78919e-05 0
-3.32228e-05 -3.1111e-05 0
-1.57821e-05 -3.21792e-05 0
-0.00469397 -0.00823977 0
-3.39806e-05 6.49112e-06 0
-4.99166e-05 8.4209e-06 0
-5.2599e-05 1.28619e-05 0
-4.70204e-05 1.71289e-05 0
-0.0087294 0.00242723 0
-2.49052e-05 -1.53313e-05 0
-3.10532e-05 -4.36665e-08 0
-2.82468e-05 -8.16456e-06 0
-4.30489e-05 -2.90313e-05 0
-5.15522e-05 -3.03057e-05 0