# vtk DataFile Version 2.0
CellBP Time: 3.72
ASCII
DATASET UNSTRUCTURED_GRID
POINTS 296 double
-9.00912 -3.70245 0
-8.44189 -4.85286 0
-9.42125 -2.48778 0
-9.67255 -1.22992 0
-8.356 -2.81818 0
-7.72994 -5.91985 0
-6.88457 -6.88452 0
-7.91578 -3.874 0
-7.34134 -4.86694 0
-5.91979 -7.72987 0
-4.85203 -8.44058 0
-9.75705 0.049983 0
-9.67289 1.33 0
-8.65607 -1.6836 0
-8.78475 -0.529512 0
-7.58812 -2.00368 0
-7.22425 -2.90586 0
-6.63649 -5.77786 0
-5.82142 -6.59572 0
-6.7889 -3.88808 0
-6.21934 -4.67493 0
-3.7029 -9.01005 0
-2.48772 -9.42064 0
-4.90561 -7.30741 0
-3.91216 -7.88479 0
-8.79121 0.643289 0
-9.42309 2.5883 0
-8.62176 1.77379 0
-9.01044 3.80293 0
-7.74267 -0.928806 0
-7.79296 0.0802714 0
-6.95119 -1.31562 0
-1.22984 -9.67227 0
-6.44026 -2.15268 0
-6.31811 -3.05551 0
-5.53545 -5.47343 0
-4.79494 -6.11419 0
-5.65796 -3.75626 0
-5.26833 -4.56063 0
-2.86557 -8.36246 0
-1.77819 -8.63867 0
-3.92733 -6.72215 0
-3.05592 -7.15116 0
0.0500637 -9.7569 0
-7.70394 1.14332 0
-8.33716 2.91495 0
-7.55035 2.11158 0
-8.4434 4.95367 0
-7.87876 3.97759 0
-7.73079 6.02041 0
-6.77741 -0.3968 0
-6.95516 0.552487 0
-5.77059 -1.00326 0
-0.590686 -8.80818 0
0.56561 -8.76942 0
-5.30236 -2.47992 0
-4.49109 -5.09472 0
-3.9017 -5.77413 0
-4.43825 -3.80419 0
-2.06194 -7.56048 0
-1.13523 -7.78435 0
-2.99391 -6.10086 0
-2.30849 -6.61846 0
1.33012 -9.67352 0
-6.68824 1.42184 0
-7.17079 3.11752 0
-6.65799 2.37257 0
-7.2936 4.9879 0
-6.71682 4.00235 0
-6.88504 6.98499 0
-6.5715 5.89328 0
-5.92014 7.83052 0
-4.45243 -1.18086 0
-5.8138 0.513695 0
-4.65546 -0.0103375 0
0.00849899 -7.84663 0
1.73836 -8.64248 0
0.948792 -7.76201 0
-4.03791 -2.40601 0
-3.48493 -1.39092 0
-3.29398 -4.80464 0
-3.26535 -3.26725 0
-1.3783 -6.67429 0
-0.508656 -7.02371 0
-1.97522 -5.53624 0
2.58835 -9.42309 0
-5.50662 2.03668 0
-6.09367 3.07167 0
-6.104 4.86879 0
-5.76068 3.9908 0
-5.76051 6.71623 0
-5.45118 5.61843 0
-4.85411 8.54421 0
-4.83781 7.40363 0
-3.50089 -0.424175 0
-4.44863 1.2489 0
-3.71083 0.592041 0
-4.06158 2.31953 0
-3.70291 9.11017 0
2.86226 -8.33173 0
0.419629 -6.79427 0
2.0217 -7.52466 0
1.30584 -6.90439 0
-2.44422 -0.873611 0
-2.83789 -2.13073 0
-2.29403 -4.09676 0
-2.32522 -2.97306 0
-0.442266 -5.86038 0
-1.22251 -4.49848 0
3.80343 -9.01141 0
-4.78922 3.39141 0
-5.08711 4.59344 0
-4.64642 6.28046 0
-4.53809 5.35884 0
-3.84328 7.99242 0
-3.82613 6.8447 0
-2.78298 8.42183 0
-1.64862 -0.137805 0
-1.44991 -0.890339 0
-2.48866 0.507251 0
-3.25305 1.44398 0
-3.23857 3.31616 0
-2.91045 2.37142 0
-1.35475 0.627035 0
-2.48836 9.52334 0
3.93226 -7.88606 0
2.96416 -7.15676 0
0.953992 -5.82122 0
2.07399 -6.41449 0
-1.68266 -1.99168 0
-1.43419 -3.27721 0
0.0902514 -4.74635 0
-0.566074 -3.69384 0
4.93155 -7.31797 0
4.95365 -8.44339 0
-3.77654 4.55115 0
-3.7342 5.75131 0
-2.88755 7.28883 0
-3.00923 6.35278 0
-1.66234 8.73271 0
-1.93982 7.61831 0
-2.33807 4.05119 0
-0.730557 -1.32693 0
-0.836675 -0.25751 0
-1.93583 1.68056 0
-2.12538 2.87542 0
-1.30631 3.54414 0
-0.869235 1.3506 0
-0.282269 0.455964 0
-0.53346 8.87079 0
-1.22991 9.7729 0
1.11264 -4.57399 0
3.90966 -6.71644 0
2.98749 -6.09379 0
2.11763 -5.42423 0
4.78384 -6.20453 0
-0.558757 -2.47635 0
0.495064 -3.46327 0
0.0535594 -1.61011 0
1.48167 -3.6815 0
5.8666 -6.614 0
6.02133 -7.73198 0
-2.47545 5.34797 0
-2.13016 6.53362 0
-0.903939 7.80231 0
-1.27216 6.93113 0
0.0862119 7.8794 0
-1.1443 4.49418 0
0.150294 -0.617523 0
-0.79724 2.48815 0
-0.33153 3.60018 0
0.0631535 1.51246 0
0.741325 0.473338 0
0.64672 8.87349 0
0.0500317 9.85883 0
2.3807 -4.28473 0
3.85874 -5.6397 0
3.00107 -5.21216 0
5.57309 -5.49119 0
4.69052 -5.28246 0
0.629581 -2.29295 0
1.25597 -2.95079 0
0.757301 -1.39117 0
2.164 -3.13536 0
2.99333 -3.47608 0
6.15455 -4.79125 0
6.65514 -5.76888 0
6.98504 -6.88503 0
-1.01956 5.81989 0
-0.372549 6.88286 0
1.1225 7.76875 0
0.557917 7.07904 0
-0.000740481 4.72467 0
0.606954 3.82727 0
1.33867 -0.641779 0
0.539071 2.65066 0
0.965973 1.57464 0
1.90988 0.213816 0
1.61451 1.06481 0
2.12919 7.5829 0
1.7991 8.71192 0
1.33011 9.77377 0
3.82247 -4.35123 0
5.11609 -4.44859 0
5.84518 -3.93469 0
3.78358 -3.20071 0
1.81198 -1.8824 0
3.01875 -2.57362 0
6.78286 -3.94752 0
7.38116 -4.89651 0
7.83107 -5.92063 0
0.48332 5.88122 0
1.42807 6.74139 0
2.37412 6.66849 0
1.20989 4.55579 0
1.48802 3.3972 0
2.43542 -0.691905 0
2.82759 0.142562 0
1.78868 2.16253 0
2.61153 1.14995 0
3.07181 7.16963 0
2.90413 8.37665 0
2.58871 9.52425 0
4.91101 -3.32767 0
6.12034 -3.10845 0
4.17252 -2.27511 0
3.24407 -1.5028 0
6.73101 -2.3129 0
7.23169 -3.04232 0
7.96477 -3.91216 0
8.5437 -4.85396 0
2.02356 5.59968 0
3.08639 6.15331 0
2.36379 4.12666 0
2.41984 3.06053 0
3.52528 -0.46084 0
3.6153 0.613205 0
2.96153 2.28782 0
3.54522 1.5251 0
4.01212 5.89804 0
3.98453 6.79315 0
3.9735 7.93904 0
3.80382 9.11251 0
5.5688 -1.91611 0
4.50903 -1.12957 0
6.71394 -1.33612 0
7.59254 -2.03643 0
8.39752 -2.86143 0
9.10954 -3.70256 0
3.41919 4.87713 0
3.3389 3.38527 0
4.69118 0.130058 0
4.51909 1.30993 0
4.06525 2.44375 0
4.57081 5.15277 0
4.84403 6.19121 0
4.98095 7.38114 0
4.95416 8.54433 0
5.88374 -0.434889 0
7.01124 -0.488251 0
7.76006 -1.08533 0
8.68563 -1.74609 0
9.5235 -2.48824 0
4.55277 3.82787 0
5.81822 1.09868 0
5.37172 2.53516 0
5.38068 4.62112 0
5.61287 5.52424 0
5.89811 6.6729 0
6.02089 7.83127 0
6.84685 0.463616 0
7.85432 -0.0256306 0
8.86166 -0.58434 0
9.77541 -1.23035 0
6.96141 1.34964 0
5.7219 3.779 0
6.54242 2.19781 0
6.38118 3.08845 0
6.29348 4.68778 0
6.69431 5.83902 0
6.98543 6.98529 0
7.78559 0.967783 0
8.86105 0.572879 0
9.85779 0.0499272 0
7.61755 2.00463 0
6.83046 3.90498 0
7.2709 2.94735 0
7.37985 4.88679 0
7.83267 6.02179 0
8.72467 1.72727 0
9.77393 1.33013 0
8.42267 2.83835 0
7.98327 3.91712 0
8.54536 4.95482 0
9.52377 2.58849 0
9.11171 3.80355 0
CELLS 542 2168
3 2 0 4
3 0 1 7
3 4 0 7
3 1 5 8
3 7 1 8
3 3 2 13
3 13 2 4
3 11 3 14
3 14 3 13
3 13 4 15
3 4 7 16
3 15 4 16
3 5 6 17
3 8 5 17
3 6 9 18
3 17 6 18
3 7 8 19
3 16 7 19
3 8 17 20
3 19 8 20
3 9 10 23
3 18 9 23
3 10 21 24
3 23 10 24
3 12 11 25
3 25 11 14
3 26 12 27
3 27 12 25
3 14 13 29
3 29 13 15
3 25 14 30
3 30 14 29
3 29 15 31
3 15 16 33
3 31 15 33
3 16 19 34
3 33 16 34
3 17 18 35
3 20 17 35
3 18 23 36
3 35 18 36
3 19 20 37
3 34 19 37
3 20 35 38
3 37 20 38
3 21 22 39
3 24 21 39
3 22 32 40
3 39 22 40
3 23 24 41
3 36 23 41
3 24 39 42
3 41 24 42
3 27 25 44
3 44 25 30
3 28 26 45
3 45 26 27
3 45 27 46
3 46 27 44
3 47 28 48
3 48 28 45
3 30 29 50
3 50 29 31
3 44 30 51
3 51 30 50
3 50 31 52
3 31 33 52
3 32 43 53
3 40 32 53
3 53 43 54
3 33 34 55
3 34 37 55
3 33 55 52
3 35 36 56
3 38 35 56
3 36 41 57
3 56 36 57
3 37 38 58
3 38 56 58
3 37 58 55
3 39 40 59
3 42 39 59
3 40 53 60
3 59 40 60
3 41 42 61
3 57 41 61
3 42 59 62
3 61 42 62
3 43 63 54
3 46 44 64
3 64 44 51
3 48 45 65
3 65 45 46
3 65 46 66
3 66 46 64
3 49 47 67
3 67 47 48
3 67 48 68
3 68 48 65
3 69 49 70
3 70 49 67
3 52 55 72
3 64 51 73
3 51 50 73
3 50 52 73
3 73 52 74
3 74 52 72
3 53 54 75
3 60 53 75
3 54 63 76
3 54 76 77
3 75 54 77
3 55 58 78
3 72 55 78
3 72 78 79
3 56 57 80
3 57 61 80
3 56 80 58
3 58 80 81
3 78 58 81
3 59 60 82
3 62 59 82
3 60 75 83
3 82 60 83
3 61 62 84
3 62 82 84
3 61 84 80
3 63 85 76
3 66 64 86
3 64 73 86
3 68 65 87
3 87 65 66
3 87 66 86
3 70 67 88
3 88 67 68
3 88 68 89
3 89 68 87
3 71 69 90
3 90 69 70
3 90 70 91
3 91 70 88
3 92 71 93
3 93 71 90
3 74 72 94
3 94 72 79
3 86 73 95
3 95 73 74
3 95 74 96
3 96 74 94
3 97 86 95
3 76 85 99
3 75 77 100
3 83 75 100
3 76 99 101
3 77 76 101
3 77 101 102
3 100 77 102
3 94 79 103
3 78 81 104
3 79 78 104
3 79 104 103
3 80 84 105
3 81 80 105
3 81 105 106
3 104 81 106
3 82 83 107
3 83 100 107
3 82 107 84
3 84 107 108
3 105 84 108
3 85 109 99
3 89 87 110
3 87 86 110
3 110 86 97
3 91 88 111
3 111 88 89
3 111 89 110
3 93 90 112
3 112 90 91
3 112 91 113
3 113 91 111
3 98 92 114
3 114 92 93
3 114 93 115
3 115 93 112
3 116 98 114
3 117 103 118
3 96 94 119
3 94 103 119
3 119 103 117
3 97 95 120
3 120 95 96
3 120 96 119
3 121 110 97
3 121 97 122
3 122 97 120
3 123 119 117
3 124 98 116
3 99 109 125
3 99 125 126
3 101 99 126
3 100 102 127
3 100 127 107
3 101 126 128
3 102 101 128
3 102 128 127
3 104 106 129
3 104 129 103
3 103 129 118
3 105 108 130
3 106 105 130
3 106 130 129
3 107 127 131
3 108 107 131
3 108 131 132
3 108 132 130
3 109 134 125
3 125 134 133
3 113 111 135
3 111 110 135
3 135 110 121
3 115 112 136
3 136 112 113
3 136 113 135
3 116 114 137
3 137 114 115
3 137 115 138
3 138 115 136
3 139 124 116
3 139 116 140
3 140 116 137
3 141 135 121
3 118 129 142
3 118 142 143
3 117 118 143
3 123 117 143
3 122 120 144
3 120 119 144
3 144 119 123
3 141 121 145
3 145 121 122
3 145 122 144
3 146 141 145
3 147 144 123
3 147 123 148
3 143 148 123
3 150 124 139
3 149 150 139
3 131 127 151
3 125 133 152
3 126 125 152
3 126 152 153
3 128 126 153
3 128 153 154
3 128 154 127
3 127 154 151
3 152 133 155
3 130 132 156
3 130 156 129
3 129 156 142
3 131 151 157
3 132 131 157
3 132 157 156
3 156 158 142
3 157 151 159
3 133 160 155
3 134 161 133
3 133 161 160
3 138 136 162
3 136 135 162
3 162 135 141
3 140 137 163
3 163 137 138
3 163 138 162
3 149 139 164
3 164 139 140
3 164 140 165
3 165 140 163
3 166 149 164
3 167 162 141
3 167 141 146
3 142 158 168
3 143 142 168
3 143 168 148
3 146 145 169
3 145 144 169
3 169 144 147
3 170 167 146
3 170 146 169
3 171 169 147
3 171 147 148
3 171 148 172
3 168 172 148
3 173 149 166
3 174 150 149
3 173 174 149
3 154 175 151
3 151 175 159
3 152 155 176
3 153 152 176
3 153 176 177
3 153 177 154
3 154 177 175
3 155 160 178
3 155 178 179
3 176 155 179
3 156 157 180
3 156 180 158
3 157 159 181
3 157 181 180
3 158 180 182
3 158 182 168
3 159 175 183
3 159 183 181
3 175 184 183
3 160 186 178
3 178 186 185
3 161 187 160
3 160 187 186
3 165 163 188
3 163 162 188
3 188 162 167
3 166 164 189
3 189 164 165
3 189 165 188
3 190 173 166
3 190 166 191
3 191 166 189
3 192 188 167
3 192 167 170
3 193 192 170
3 182 194 168
3 194 172 168
3 193 170 195
3 170 169 195
3 195 169 171
3 196 195 171
3 196 171 172
3 194 197 172
3 197 198 172
3 198 196 172
3 200 173 190
3 199 200 190
3 201 174 173
3 200 201 173
3 176 179 202
3 177 176 202
3 177 202 175
3 175 202 184
3 178 185 203
3 178 203 179
3 179 203 202
3 203 185 204
3 202 205 184
3 183 206 181
3 180 181 206
3 180 206 182
3 182 206 194
3 183 184 207
3 205 207 184
3 183 207 206
3 185 208 204
3 186 209 185
3 185 209 208
3 187 210 186
3 186 210 209
3 191 189 211
3 189 188 211
3 211 188 192
3 199 190 212
3 212 190 191
3 212 191 211
3 213 199 212
3 214 211 192
3 214 192 193
3 215 214 193
3 215 193 195
3 206 216 194
3 216 197 194
3 216 217 197
3 215 195 218
3 218 195 196
3 198 218 196
3 217 219 197
3 219 218 198
3 197 219 198
3 220 199 213
3 221 200 199
3 220 221 199
3 222 201 200
3 221 222 200
3 203 204 223
3 203 223 202
3 202 223 205
3 204 208 224
3 204 224 223
3 205 223 225
3 205 225 207
3 207 225 226
3 207 226 206
3 226 216 206
3 208 228 224
3 224 228 227
3 209 229 208
3 229 228 208
3 210 230 209
3 209 230 229
3 213 212 231
3 212 211 231
3 231 211 214
3 232 220 213
3 232 213 231
3 233 231 214
3 233 214 215
3 234 233 215
3 234 215 218
3 226 235 216
3 235 217 216
3 235 236 217
3 217 236 219
3 237 234 218
3 237 218 219
3 236 238 219
3 238 237 219
3 240 220 232
3 239 240 232
3 241 221 220
3 240 241 220
3 242 222 221
3 241 242 221
3 224 227 243
3 224 243 223
3 223 243 225
3 225 243 244
3 225 244 226
3 226 244 235
3 227 245 243
3 228 246 227
3 227 246 245
3 229 247 228
3 228 247 246
3 230 248 229
3 229 248 247
3 239 232 249
3 232 231 249
3 249 231 233
3 250 249 233
3 250 233 234
3 237 250 234
3 244 251 235
3 235 251 236
3 251 252 236
3 236 252 238
3 252 253 238
3 253 250 237
3 253 237 238
3 254 239 249
3 255 240 239
3 254 255 239
3 256 241 240
3 255 256 240
3 257 242 241
3 256 257 241
3 245 258 243
3 243 258 244
3 244 258 251
3 245 259 258
3 246 260 245
3 245 260 259
3 247 261 246
3 246 261 260
3 248 262 247
3 247 262 261
3 254 249 263
3 263 249 250
3 253 263 250
3 258 264 251
3 251 264 252
3 264 265 252
3 265 263 253
3 252 265 253
3 266 254 263
3 267 255 254
3 266 267 254
3 268 256 255
3 267 268 255
3 269 257 256
3 268 269 256
3 259 270 258
3 270 264 258
3 260 271 259
3 259 271 270
3 261 272 260
3 260 272 271
3 262 273 261
3 273 272 261
3 270 274 264
3 275 266 263
3 275 263 265
3 274 276 264
3 276 265 264
3 276 277 265
3 277 275 265
3 278 267 266
3 275 278 266
3 279 268 267
3 278 279 267
3 280 269 268
3 279 280 268
3 271 281 270
3 270 281 274
3 272 282 271
3 271 282 281
3 273 283 272
3 272 283 282
3 281 284 274
3 274 284 276
3 285 278 275
3 277 285 275
3 284 286 276
3 286 285 277
3 276 286 277
3 287 279 278
3 285 287 278
3 288 280 279
3 287 288 279
3 282 289 281
3 281 289 284
3 283 290 282
3 282 290 289
3 289 291 284
3 284 291 286
3 291 292 286
3 292 287 285
3 286 292 285
3 293 288 287
3 292 293 287
3 290 294 289
3 289 294 291
3 294 295 291
3 295 293 292
3 291 295 292
CELL_TYPES 542
5
5
5
5
5
5
5
5
5
5
5
5
5
5
5
5
5
5
5
5
5
5
5
5
5
5
5
5
5
5
5
5
5
5
5
5
5
5
5
5
5
5
5
5
5
5
5
5
5
5
5
5
5
5
5
5
5
5
5
5
5
5
5
5
5
5
5
5
5
5
5
5
5
5
5
5
5
5
5
5
5
5
5
5
5
5
5
5
5
5
5
5
5
5
5
5
5
5
5
5
5
5
5
5
5
5
5
5
5
5
5
5
5
5
5
5
5
5
5
5
5
5
5
5
5
5
5
5
5
5
5
5
5
5
5
5
5
5
5
5
5
5
5
5
5
5
5
5
5
5
5
5
5
5
5
5
5
5
5
5
5
5
5
5
5
5
5
5
5
5
5
5
5
5
5
5
5
5
5
5
5
5
5
5
5
5
5
5
5
5
5
5
5
5
5
5
5
5
5
5
5
5
5
5
5
5
5
5
5
5
5
5
5
5
5
5
5
5
5
5
5
5
5
5
5
5
5
5
5
5
5
5
5
5
5
5
5
5
5
5
5
5
5
5
5
5
5
5
5
5
5
5
5
5
5
5
5
5
5
5
5
5
5
5
5
5
5
5
5
5
5
5
5
5
5
5
5
5
5
5
5
5
5
5
5
5
5
5
5
5
5
5
5
5
5
5
5
5
5
5
5
5
5
5
5
5
5
5
5
5
5
5
5
5
5
5
5
5
5
5
5
5
5
5
5
5
5
5
5
5
5
5
5
5
5
5
5
5
5
5
5
5
5
5
5
5
5
5
5
5
5
5
5
5
5
5
5
5
5
5
5
5
5
5
5
5
5
5
5
5
5
5
5
5
5
5
5
5
5
5
5
5
5
5
5
5
5
5
5
5
5
5
5
5
5
5
5
5
5
5
5
5
5
5
5
5
5
5
5
5
5
5
5
5
5
5
5
5
5
5
5
5
5
5
5
5
5
5
5
5
5
5
5
5
5
5
5
5
5
5
5
5
5
5
5
5
5
5
5
5
5
5
5
5
5
5
5
5
5
5
5
5
5
5
5
5
5
5
5
5
5
5
5
5
5
5
5
5
5
5
5
5
5
5
5
5
5
5
5
5
5
5
5
5
5
5
5
5
5
5
5
5
5
5
5
5
5
5
5
5
5
5
5
5
5
5
5
5
5
5
5
5
5
5
5
5
5
5
5
5
5
5
5
5
5
5
5
5
5
5
5
5
POINT_DATA 296
SCALARS concentrations float 4
LOOKUP_TABLE default
0 0.961605 0.161244 9.14515
0 0.961594 0.161186 9.34811
0 0.961649 0.160783 9.73557
0 0.961624 0.160002 9.15176
0 0.961672 0.0912136 0.0748295
0 0.961599 0.160761 9.29308
0 0.961618 0.160383 9.15693
0 0.961645 0.0911755 0.0469276
0 0.961641 0.0911699 0.0559993
0 0.961697 0.160328 8.90838
0 0.961803 0.159796 11.4389
0 0.961618 0.15939 9.07356
0 0.961634 0.159576 9.22991
0 0.961683 0.0912117 0.076391
0 0.961667 0.0911737 0.0442134
0 0.961754 0.0911475 0.0581568
0 0.96174 0.0911467 0.0554692
0 0.961645 0.0911635 0.0642485
0 0.961671 0.0911719 0.0933259
0 0.961727 0.0911445 0.0522431
0 0.961719 0.0911406 0.0593716
0 0.961702 0.161558 9.00951
0 0.961625 0.162359 9.33518
0 0.961749 0.09122 0.209124
0 0.961752 0.0912325 0.227507
0 0.961673 0.0911627 0.0478193
0 0.961648 0.159065 9.14882
0 0.961683 0.0911607 0.0506648
0 0.961634 0.159556 9.274
0 0.961756 0.091152 0.0547065
0 0.961758 0.0911424 0.0467822
0 0.96183 0.0911104 0.0476951
0 0.961609 0.160512 9.32157
0 0.961834 0.0910939 0.0445084
0 0.961809 0.0911127 0.0475858
0 0.96172 0.0911405 0.0782433
0 0.961736 0.0911459 0.113647
0 0.961812 0.0910963 0.0466602
0 0.961789 0.0911138 0.0602342
0 0.961675 0.0911836 0.10478
0 0.961652 0.0911801 0.0769192
0 0.96175 0.0911447 0.130508
0 0.961737 0.0911498 0.11992
0 0.961581 0.159394 9.04757
0 0.961759 0.0911466 0.047028
0 0.961682 0.091159 0.0484394
0 0.96176 0.0911498 0.0472763
0 0.961634 0.15905 9.05856
0 0.961676 0.0911584 0.0490522
0 0.96163 0.158647 9.18437
0 0.961845 0.0911005 0.0425562
0 0.961835 0.0911163 0.0429443
0 0.961894 0.0910256 0.0293059
0 0.961638 0.0911858 0.0628907
0 0.961636 0.0911843 0.0467418
0 0.96188 0.0910263 0.0305148
0 0.961801 0.0910978 0.0717945
0 0.961789 0.0911114 0.0937856
0 0.961865 0.0910292 0.0365944
0 0.961724 0.0911454 0.0837355
0 0.961721 0.0911446 0.063117
0 0.961802 0.0911014 0.0864784
0 0.961787 0.0911181 0.0819917
0 0.961606 0.158664 9.25847
0 0.961851 0.0910982 0.0385615
0 0.961758 0.0911458 0.0458505
0 0.961837 0.0911159 0.0406821
0 0.961676 0.0911542 0.0483965
0 0.961758 0.0911394 0.0442082
0 0.961634 0.158523 9.18207
0 0.961672 0.0911519 0.0483396
0 0.961618 0.158716 9.54727
0 0.961933 0.0909983 0.0237467
0 0.961903 0.0910286 0.0272356
0 0.961944 0.091 0.0225668
0 0.961724 0.0911451 0.0505986
0 0.961655 0.0911611 0.0510829
0 0.961731 0.0911481 0.0454502
0 0.961923 0.0909982 0.025724
0 0.961972 0.0909869 0.0214893
0 0.961858 0.0910288 0.0473419
0 0.961913 0.091001 0.0292813
0 0.961804 0.0910941 0.0564562
0 0.961795 0.0911061 0.0471346
0 0.961861 0.0910312 0.0445525
0 0.961603 0.15893 9.14061
0 0.961905 0.0910259 0.0246837
0 0.961848 0.0910988 0.0368067
0 0.961754 0.0911419 0.044403
0 0.961833 0.0911148 0.0390119
0 0.961673 0.0911612 0.057567
0 0.961751 0.0911442 0.0453188
0 0.96156 0.157682 8.47752
0 0.961638 0.0912516 0.0440209
0 0.961987 0.09098 0.0189454
0 0.961948 0.0910021 0.0212584
0 0.961988 0.0909868 0.0192211
0 0.961951 0.0909997 0.0196095
0 0.961609 0.158943 9.68805
0 0.961652 0.0911639 0.0345122
0 0.961816 0.0911047 0.0399408
0 0.961741 0.0911369 0.0391411
0 0.961812 0.0911206 0.0386815
0 0.96201 0.0909557 0.0145311
0 0.961973 0.0909808 0.0212667
0 0.961912 0.0910022 0.0308387
0 0.961962 0.0909894 0.0240993
0 0.961872 0.0910357 0.0327869
0 0.961919 0.0910011 0.0273812
0 0.961597 0.15837 8.79324
0 0.961905 0.0910262 0.0234276
0 0.961845 0.0911022 0.0362231
0 0.961741 0.0911533 0.0439486
0 0.961827 0.0911225 0.0396911
0 0.961631 0.091248 0.0423279
0 0.961734 0.091147 0.041342
0 0.961682 0.091209 0.07878
0 0.962039 0.0909427 0.0113688
0 0.962036 0.0909417 0.0109599
0 0.96202 0.090953 0.0130237
0 0.961997 0.0909814 0.0173532
0 0.96195 0.0909979 0.019308
0 0.961993 0.090989 0.0182992
0 0.962048 0.0909323 0.00982433
0 0.961662 0.15889 8.99188
0 0.961661 0.0911842 0.0337595
0 0.961752 0.091133 0.0352678
0 0.961887 0.0910511 0.0278559
0 0.961833 0.0911128 0.0357392
0 0.962007 0.0909562 0.0144569
0 0.961972 0.0909823 0.0208615
0 0.961934 0.0910042 0.02223
0 0.961973 0.0909821 0.0185806
0 0.961689 0.0913475 0.0809631
0 0.96162 0.158211 10.0788
0 0.961903 0.0910255 0.0234713
0 0.961838 0.0911028 0.0365913
0 0.961743 0.0911547 0.052251
0 0.961824 0.0911164 0.0419832
0 0.961682 0.0911973 0.0706047
0 0.961754 0.0911438 0.0544636
0 0.961951 0.0909971 0.0206963
0 0.962043 0.0909327 0.00766168
0 0.962057 0.0909138 0.00537206
0 0.962026 0.0909515 0.0127198
0 0.962 0.0909806 0.0176089
0 0.961994 0.0909899 0.0201706
0 0.96205 0.0909291 0.0102131
0 0.962063 0.090899 0.00567479
0 0.96166 0.0911497 0.0429753
0 0.961618 0.159087 9.34178
0 0.961946 0.0910086 0.0198667
0 0.961766 0.0911509 0.0504549
0 0.961839 0.0911227 0.0410506
0 0.961906 0.0910539 0.0272511
0 0.961767 0.0911613 0.057673
0 0.962013 0.0909562 0.012148
0 0.961991 0.0909809 0.0153789
0 0.962046 0.0909346 0.00674118
0 0.961985 0.0910075 0.0200072
0 0.961684 0.0912976 0.087453
0 0.961659 0.157997 7.73721
0 0.961902 0.0910239 0.0261992
0 0.961842 0.0910998 0.0424081
0 0.961752 0.0911431 0.0523629
0 0.961829 0.0911159 0.0467753
0 0.96175 0.0911419 0.0480148
0 0.961948 0.0910004 0.0224099
0 0.962062 0.0908986 0.00130155
0 0.962029 0.0909504 0.0136714
0 0.961999 0.0909867 0.0200594
0 0.962053 0.0909249 0.0100689
0 0.962062 0.0909066 0.00634031
0 0.961672 0.0911475 0.0506888
0 0.961619 0.158354 9.08651
0 0.96195 0.0910154 0.0227233
0 0.96185 0.0911094 0.0442606
0 0.961905 0.0910629 0.0325141
0 0.961752 0.0911693 0.0600494
0 0.961841 0.0911139 0.0476879
0 0.96203 0.09095 0.00948985
0 0.962018 0.0909692 0.0131497
0 0.962052 0.0909323 0.00776545
0 0.962002 0.0909925 0.0188628
0 0.961966 0.0910229 0.0264012
0 0.961719 0.0911758 0.048668
0 0.961631 0.091187 0.0496109
0 0.961608 0.157597 9.76916
0 0.961901 0.0910268 0.0285241
0 0.961843 0.091098 0.0421495
0 0.961754 0.0911405 0.0494046
0 0.961831 0.0911141 0.0438317
0 0.961948 0.0910063 0.0231917
0 0.961991 0.0909979 0.0213411
0 0.962056 0.0909255 0.00787108
0 0.962027 0.0909558 0.0145283
0 0.962049 0.0909359 0.0112852
0 0.962051 0.0909404 0.0108971
0 0.962048 0.090942 0.0115227
0 0.961758 0.0911428 0.0503477
0 0.961681 0.0911464 0.053152
0 0.961634 0.158554 9.11503
0 0.96191 0.0910416 0.0311799
0 0.961844 0.0911096 0.0449837
0 0.961817 0.0911328 0.0462573
0 0.961951 0.0910228 0.0279387
0 0.962031 0.0909516 0.0124158
0 0.961999 0.0909923 0.0212137
0 0.961708 0.0911628 0.0463925
0 0.961571 0.09134 0.0379272
0 0.961536 0.158023 9.34663
0 0.9619 0.0910272 0.0273799
0 0.961844 0.0910998 0.0412994
0 0.961831 0.0911301 0.0455481
0 0.961944 0.0910073 0.0217554
0 0.961994 0.0909922 0.0188574
0 0.962036 0.0909597 0.0148626
0 0.962029 0.0909783 0.017704
0 0.962023 0.0909638 0.014119
0 0.962024 0.0909724 0.0151155
0 0.961756 0.0911501 0.0500811
0 0.961688 0.0911421 0.053498
0 0.961646 0.157517 8.97937
0 0.961904 0.0910428 0.0332885
0 0.961839 0.0911009 0.0450923
0 0.96196 0.091008 0.026553
0 0.962007 0.0909804 0.0199422
0 0.961836 0.091114 0.0540044
0 0.961729 0.0911675 0.0574369
0 0.961587 0.0913616 0.0611089
0 0.961472 0.157983 8.60444
0 0.961898 0.0910294 0.0250669
0 0.961841 0.0911127 0.0374894
0 0.961942 0.0910053 0.0183601
0 0.961985 0.0910005 0.0179822
0 0.962001 0.0909908 0.0213265
0 0.961995 0.0909991 0.0204628
0 0.961991 0.0909965 0.0169
0 0.961986 0.0910055 0.0191292
0 0.961823 0.0911289 0.0305153
0 0.961753 0.091158 0.0453122
0 0.961691 0.0911494 0.0557164
0 0.961656 0.156757 8.90918
0 0.96191 0.0910264 0.0338144
0 0.961962 0.0909981 0.0250253
0 0.961856 0.0910983 0.0523481
0 0.961755 0.0911598 0.0672665
0 0.961649 0.0911665 0.0632528
0 0.961569 0.159449 10.0167
0 0.961893 0.0910301 0.0177062
0 0.961939 0.091006 0.0162477
0 0.961957 0.0909991 0.0226716
0 0.961947 0.091005 0.0199837
0 0.961941 0.0910054 0.0170356
0 0.961831 0.0911028 0.0196514
0 0.961742 0.091167 0.0274014
0 0.961682 0.0911807 0.0518355
0 0.961657 0.157799 8.92622
0 0.961914 0.0910319 0.0333109
0 0.961844 0.0911217 0.0548539
0 0.961768 0.0911522 0.0646928
0 0.961681 0.091267 0.0827051
0 0.96161 0.157905 9.3467
0 0.961892 0.0910297 0.0153144
0 0.961906 0.0910338 0.0273986
0 0.961898 0.0910324 0.0220902
0 0.961818 0.091117 0.0226723
0 0.961743 0.0911475 0.0228824
0 0.961663 0.0913161 0.0255604
0 0.961634 0.158336 8.59898
0 0.961854 0.0911089 0.0459739
0 0.961765 0.0911617 0.0610949
0 0.96169 0.0913109 0.0935482
0 0.961658 0.157301 8.10404
0 0.961835 0.0911261 0.0429382
0 0.961836 0.0911065 0.0283202
0 0.961844 0.0911091 0.037153
0 0.961827 0.0911254 0.0373585
0 0.96175 0.0911619 0.0339993
0 0.961687 0.0913127 0.0534068
0 0.96163 0.156891 10.1121
0 0.961753 0.0911515 0.0477691
0 0.961663 0.0911665 0.0443088
0 0.961621 0.157866 9.3736
0 0.961751 0.0911493 0.0442598
0 0.961754 0.0911556 0.0420351
0 0.961751 0.0911497 0.0429962
0 0.961694 0.091219 0.0546375
0 0.961679 0.156042 8.92067
0 0.961663 0.0911554 0.0436504
0 0.96161 0.158011 9.26281
0 0.961674 0.0911508 0.0449358
0 0.961681 0.0911575 0.0436154
0 0.961649 0.156584 8.42357
0 0.961621 0.158077 9.02991
0 0.961646 0.15768 9.00816
VECTORS fa_u float
0.0084576 0.00347889 0
0.00808189 0.00469791 0
0.00940681 0.00250862 0
0.00906795 0.0012357 0
7.47694e-05 2.99971e-06 0
0.00736833 0.00566297 0
0.006471 0.00647886 0
4.11181e-05 2.26163e-05 0
4.03585e-05 3.88216e-05 0
0.00540648 0.00708019 0
0.00571339 0.00990986 0
0.00907354 -1.57853e-05 0
0.00914731 -0.00123202 0
6.79083e-05 3.49866e-05 0
4.3406e-05 8.41113e-06 0
5.59062e-05 1.60222e-05 0
5.25219e-05 1.78402e-05 0
3.1477e-05 5.60096e-05 0
1.77976e-05 9.16132e-05 0
4.2779e-05 2.99883e-05 0
3.79798e-05 4.56346e-05 0
0.00345694 0.0083199 0
0.00238851 0.00902444 0
3.84491e-05 0.000205559 0
0.000170007 0.000151186 0
4.76827e-05 -3.61114e-06 0
0.00883521 -0.00237487 0
5.02415e-05 -6.53581e-06 0
0.00856487 -0.0035567 0
5.33706e-05 1.20161e-05 0
4.66343e-05 3.71815e-06 0
4.65705e-05 1.02964e-05 0
0.00124545 0.009238 0
4.2095e-05 1.44572e-05 0
4.27054e-05 2.09918e-05 0
3.43034e-05 7.03227e-05 0
4.24377e-05 0.000105426 0
3.56168e-05 3.01433e-05 0
3.65839e-05 4.78516e-05 0
7.88603e-05 6.89921e-05 0
3.87755e-05 6.64307e-05 0
6.56301e-05 0.000112805 0
7.76867e-05 9.13545e-05 0
1.2006e-05 0.00904757 0
4.68858e-05 -3.65395e-06 0
4.67148e-05 -1.28105e-05 0
4.63871e-05 -9.1264e-06 0
0.00783963 -0.00453847 0
4.35676e-05 -2.25385e-05 0
0.00728218 -0.00559665 0
4.23361e-05 4.32253e-06 0
4.29441e-05 1.46273e-07 0
2.87146e-05 5.8572e-06 0
3.0787e-05 5.48397e-05 0
-4.16895e-06 4.65555e-05 0
2.73082e-05 1.36167e-05 0
3.66648e-05 6.17264e-05 0
4.63156e-05 8.15512e-05 0
2.51145e-05 2.6616e-05 0
5.01534e-05 6.70542e-05 0
2.86602e-05 5.62348e-05 0
4.71141e-05 7.25174e-05 0
4.62581e-05 6.76965e-05 0
-0.00122207 0.00917746 0
3.82516e-05 -4.87906e-06 0
4.27559e-05 -1.65592e-05 0
3.89434e-05 -1.17663e-05 0
4.11814e-05 -2.54226e-05 0
3.88298e-05 -2.11333e-05 0
0.00647309 -0.00651226 0
3.40126e-05 -3.43491e-05 0
0.00585672 -0.00753984 0
2.27338e-05 6.86168e-06 0
2.72203e-05 -9.114e-07 0
2.25236e-05 1.39485e-06 0
1.05402e-05 4.94886e-05 0
5.54879e-07 5.10799e-05 0
1.36927e-07 4.545e-05 0
2.15082e-05 1.4111e-05 0
1.99236e-05 8.05223e-06 0
2.70431e-05 3.88577e-05 0
2.02864e-05 2.11152e-05 0
2.67089e-05 4.97387e-05 0
1.43145e-05 4.49084e-05 0
2.33618e-05 3.79362e-05 0
-0.002311 0.00884365 0
2.35532e-05 -7.38482e-06 0
3.32989e-05 -1.56818e-05 0
3.46611e-05 -2.77531e-05 0
3.27155e-05 -2.12515e-05 0
3.36788e-05 -4.66872e-05 0
3.04769e-05 -3.35403e-05 0
0.00426694 -0.0073254 0
3.64302e-05 -2.47121e-05 0
1.87491e-05 2.72019e-06 0
2.07915e-05 -4.43111e-06 0
1.91161e-05 -2.00566e-06 0
1.72521e-05 -9.32201e-06 0
0.00366324 -0.00896878 0
-7.39055e-06 3.37116e-05 0
4.50558e-06 3.96858e-05 0
-8.1008e-06 3.82937e-05 0
-4.71027e-06 3.83937e-05 0
1.38927e-05 4.25977e-06 0
1.71966e-05 1.2512e-05 0
1.81493e-05 2.49325e-05 0
1.626e-05 1.77873e-05 0
1.08858e-05 3.0927e-05 0
1.24088e-05 2.4408e-05 0
-0.00335991 0.00812601 0
1.91573e-05 -1.34852e-05 0
2.66477e-05 -2.45359e-05 0
2.58886e-05 -3.55142e-05 0
2.42181e-05 -3.14463e-05 0
-3.55357e-06 -4.21785e-05 0
1.65753e-05 -3.78738e-05 0
3.15492e-06 -7.87168e-05 0
1.1365e-05 -2.92759e-07 0
1.01101e-05 4.23155e-06 0
1.28221e-05 -2.28268e-06 0
1.60587e-05 -6.57645e-06 0
1.28308e-05 -1.44281e-05 0
1.41194e-05 -1.16405e-05 0
8.46942e-06 -4.97859e-06 0
0.00235284 -0.00867859 0
-2.70464e-05 2.02037e-05 0
-1.84094e-05 3.00818e-05 0
-9.48368e-07 2.78398e-05 0
-1.286e-05 3.33453e-05 0
1.06869e-05 9.73612e-06 0
1.08212e-05 1.78355e-05 0
3.91771e-06 2.18821e-05 0
5.72766e-06 1.76758e-05 0
-7.10101e-05 3.8892e-05 0
-0.00503748 0.00872956 0
1.32372e-05 -1.93824e-05 0
1.69514e-05 -3.2428e-05 0
8.97553e-06 -5.14743e-05 0
1.23889e-05 -4.01136e-05 0
3.40937e-05 -6.18275e-05 0
1.15562e-05 -5.32235e-05 0
8.2164e-06 -1.89954e-05 0
5.01929e-06 5.78862e-06 0
5.35918e-06 -3.71781e-07 0
9.43984e-06 -8.52544e-06 0
9.59403e-06 -1.47657e-05 0
5.90659e-06 -1.92864e-05 0
5.00604e-06 -8.90205e-06 0
1.84238e-06 -5.36739e-06 0
1.09948e-06 -4.29613e-05 0
0.00124894 -0.00925792 0
-4.92481e-06 1.92466e-05 0
-3.66978e-05 3.46261e-05 0
-2.37406e-05 3.34893e-05 0
-1.1288e-05 2.48033e-05 0
-4.10163e-05 4.05443e-05 0
4.07685e-06 1.14435e-05 0
-9.83568e-07 1.53474e-05 0
-8.60289e-08 6.74063e-06 0
-8.79851e-06 1.79687e-05 0
-4.16337e-05 7.69069e-05 0
-0.00469957 0.00614642 0
7.11263e-06 -2.52153e-05 0
8.95468e-06 -4.14519e-05 0
9.65339e-06 -5.14654e-05 0
7.6432e-06 -4.61466e-05 0
1.90569e-07 -4.80145e-05 0
3.84465e-06 -2.20777e-05 0
-1.30075e-06 4.54325e-08 0
3.99818e-06 -1.30737e-05 0
2.2624e-06 -1.99314e-05 0
4.67909e-07 -1.0058e-05 0
-3.69731e-06 -5.15068e-06 0
-6.19103e-06 -5.03093e-05 0
-2.09433e-05 -0.00908649 0
-1.48351e-05 1.72124e-05 0
-2.96495e-05 3.2862e-05 0
-2.17481e-05 2.417e-05 0
-3.98264e-05 4.49421e-05 0
-3.48319e-05 3.2571e-05 0
-3.31429e-06 8.89228e-06 0
-7.47722e-06 1.0817e-05 0
-6.31184e-06 4.5236e-06 0
-1.39876e-05 1.26551e-05 0
-2.06433e-05 1.64584e-05 0
-3.63011e-05 3.24162e-05 0
-2.89506e-05 4.02877e-05 0
-0.00692891 0.00688671 0
3.23607e-06 -2.83399e-05 0
3.54287e-06 -4.20003e-05 0
-6.5693e-06 -4.89659e-05 0
-2.25812e-06 -4.37734e-05 0
5.49227e-07 -2.31852e-05 0
-1.53839e-06 -2.12855e-05 0
-7.85927e-06 4.31184e-07 0
-1.37301e-06 -1.44633e-05 0
-3.58759e-06 -1.06997e-05 0
-1.024e-05 -3.72689e-06 0
-7.87913e-06 -8.40784e-06 0
-9.94345e-06 -4.93561e-05 0
-1.06116e-05 -5.20819e-05 0
-0.00120006 -0.00903569 0
-2.45593e-05 1.92101e-05 0
-3.56421e-05 2.74439e-05 0
-3.9746e-05 2.36642e-05 0
-2.42471e-05 1.38798e-05 0
-1.13309e-05 5.07572e-06 0
-1.91935e-05 9.03488e-06 0
-4.33505e-05 1.65227e-05 0
-2.44422e-05 2.90009e-05 0
-0.00738837 0.00572463 0
-9.61183e-07 -2.73631e-05 0
-5.37219e-06 -4.09485e-05 0
-8.89907e-06 -4.46703e-05 0
-2.84562e-06 -2.15685e-05 0
-4.84761e-06 -1.82237e-05 0
-1.47734e-05 1.62629e-06 0
-1.75225e-05 -2.52868e-06 0
-7.0326e-06 -1.22429e-05 0
-1.31049e-05 -7.53265e-06 0
-1.0163e-05 -4.9039e-05 0
-1.39298e-05 -5.16526e-05 0
-0.00232972 -0.00867188 0
-2.9695e-05 1.50443e-05 0
-4.24068e-05 1.5329e-05 0
-2.52019e-05 8.36221e-06 0
-1.95607e-05 3.88238e-06 0
-5.24387e-05 1.29094e-05 0
-5.55977e-05 1.44186e-05 0
-6.09112e-05 -4.91151e-06 0
-0.00747594 0.00425991 0
-3.81993e-06 -2.47741e-05 0
-6.30043e-06 -3.69562e-05 0
-5.23013e-06 -1.75994e-05 0
-8.59803e-06 -1.57934e-05 0
-2.1311e-05 8.11519e-07 0
-2.02377e-05 -3.02629e-06 0
-1.26153e-05 -1.12456e-05 0
-1.78674e-05 -6.83264e-06 0
-5.19434e-06 -3.00699e-05 0
-5.41431e-06 -4.49876e-05 0
-1.29234e-05 -5.41968e-05 0
-0.00341765 -0.00822759 0
-3.25319e-05 9.22409e-06 0
-2.46253e-05 4.4565e-06 0
-5.15187e-05 9.28154e-06 0
-6.6712e-05 8.61977e-06 0
-5.89786e-05 2.28571e-05 0
-0.00926228 0.00381364 0
-5.46349e-06 -1.68422e-05 0
-1.00279e-05 -1.2784e-05 0
-2.26627e-05 6.35626e-07 0
-1.97104e-05 -3.29373e-06 0
-1.52176e-05 -7.65749e-06 0
-1.00905e-05 -1.68629e-05 0
-9.01385e-07 -2.73866e-05 0
-1.91641e-06 -5.18001e-05 0
-0.00445172 -0.0077369 0
-3.29068e-05 5.17259e-06 0
-5.41112e-05 8.99612e-06 0
-6.37901e-05 1.07695e-05 0
-8.14865e-05 -1.41451e-05 0
-0.00900274 0.00251227 0
-1.27018e-05 -8.55529e-06 0
-2.73937e-05 -5.19189e-07 0
-2.15092e-05 -5.03327e-06 0
-2.00612e-05 -1.05633e-05 0
-1.87568e-05 -1.31068e-05 0
2.06949e-05 -1.50018e-05 0