# vtk DataFile Version 2.0
CellBP Time: 1.6
ASCII
DATASET UNSTRUCTURED_GRID
POINTS 296 double
-9.18592 -3.77564 0
-8.60757 -4.94844 0
-9.60627 -2.53739 0
-9.86138 -1.25486 0
-8.35806 -2.81887 0
-7.88111 -6.03575 0
-7.01888 -7.01887 0
-7.9177 -3.87494 0
-7.34311 -4.86814 0
-6.03575 -7.88109 0
-4.94845 -8.60756 0
-9.94692 0.0500003 0
-9.8614 1.35486 0
-8.65817 -1.68403 0
-8.78681 -0.529655 0
-7.59019 -2.00427 0
-7.22622 -2.90667 0
-6.63807 -5.77925 0
-5.82279 -6.59733 0
-6.79073 -3.88917 0
-6.22101 -4.67624 0
-3.77565 -9.18591 0
-2.53739 -9.60624 0
-4.9068 -7.30929 0
-3.91327 -7.88676 0
-8.79327 0.643435 0
-9.60629 2.63741 0
-8.62379 1.77418 0
-9.18595 3.87566 0
-7.74481 -0.929039 0
-7.79503 0.0802594 0
-6.95302 -1.31596 0
-1.25486 -9.86138 0
-6.44191 -2.15326 0
-6.31981 -3.05633 0
-5.53693 -5.47496 0
-4.79625 -6.11591 0
-5.65942 -3.75726 0
-5.26977 -4.56191 0
-2.86636 -8.3645 0
-1.77868 -8.64083 0
-3.92842 -6.72404 0
-3.05684 -7.15313 0
0.0499998 -9.94692 0
-7.70604 1.14359 0
-8.33912 2.91561 0
-7.55244 2.11211 0
-8.60761 5.04848 0
-7.8806 3.9785 0
-7.8811 6.13575 0
-6.77917 -0.396882 0
-6.95704 0.552581 0
-5.77177 -1.00347 0
-0.590878 -8.81033 0
0.565721 -8.77152 0
-5.30346 -2.48043 0
-4.49229 -5.0961 0
-3.90279 -5.77575 0
-4.4392 -3.805 0
-2.06257 -7.56253 0
-1.13557 -7.78645 0
-2.99477 -6.10252 0
-2.3092 -6.6203 0
1.35486 -9.86141 0
-6.68995 1.42215 0
-7.17274 3.11836 0
-6.65977 2.37319 0
-7.29528 4.98903 0
-6.71863 4.00338 0
-7.0189 7.1189 0
-6.57301 5.89461 0
-6.03576 7.98112 0
-4.45338 -1.18114 0
-5.81499 0.513792 0
-4.65644 -0.0103823 0
0.00852173 -7.84875 0
1.7387 -8.6445 0
0.949042 -7.7641 0
-4.03876 -2.40653 0
-3.48576 -1.39128 0
-3.29473 -4.80567 0
-3.26607 -3.26799 0
-1.37869 -6.676 0
-0.508782 -7.02553 0
-1.97569 -5.53743 0
2.6374 -9.6063 0
-5.50773 2.03707 0
-6.09523 3.07247 0
-6.10565 4.87008 0
-5.76225 3.99184 0
-5.76182 6.71776 0
-5.45266 5.61991 0
-4.94847 8.7076 0
-4.83893 7.40528 0
-3.50171 -0.42433 0
-4.4496 1.24912 0
-3.7117 0.59211 0
-4.06245 2.31997 0
-3.77566 9.28596 0
2.86287 -8.33364 0
0.419726 -6.79606 0
2.02222 -7.52659 0
1.30621 -6.90625 0
-2.44481 -0.873866 0
-2.83856 -2.13127 0
-2.29456 -4.09766 0
-2.3258 -2.97379 0
-0.442421 -5.86165 0
-1.22281 -4.49946 0
3.87566 -9.18596 0
-4.7902 3.39208 0
-5.08845 4.59461 0
-4.64768 6.28212 0
-4.53935 5.3603 0
-3.84415 7.99422 0
-3.82718 6.84649 0
-2.78361 8.42377 0
-1.64915 -0.137908 0
-1.45035 -0.890641 0
-2.48927 0.507287 0
-3.25384 1.44425 0
-3.23927 3.31681 0
-2.91118 2.37193 0
-1.35519 0.627143 0
-2.5374 9.7063 0
3.93313 -7.88785 0
2.96488 -7.15856 0
0.954178 -5.82257 0
2.07457 -6.41623 0
-1.68307 -1.99218 0
-1.43453 -3.278 0
0.0902259 -4.74737 0
-0.566214 -3.69469 0
4.93271 -7.31965 0
5.04847 -8.60761 0
-3.7773 4.55205 0
-3.73518 5.7528 0
-2.88832 7.29075 0
-3.01005 6.35448 0
-1.66275 8.7347 0
-1.94035 7.6203 0
-2.33857 4.05201 0
-0.730774 -1.32733 0
-0.836947 -0.257641 0
-1.93633 1.68088 0
-2.12592 2.87605 0
-1.30667 3.54496 0
-0.869512 1.35091 0
-0.282383 0.456074 0
-0.533584 8.87278 0
-1.25486 9.96141 0
1.11288 -4.575 0
3.91063 -6.71816 0
2.98828 -6.09552 0
2.11808 -5.42554 0
4.78507 -6.20619 0
-0.558888 -2.47698 0
0.495147 -3.4641 0
0.0535557 -1.61058 0
1.48202 -3.68247 0
5.86795 -6.61555 0
6.13575 -7.88111 0
-2.47594 5.34905 0
-2.13072 6.53528 0
-0.904193 7.80436 0
-1.27251 6.93297 0
0.0862155 7.88148 0
-1.14456 4.49512 0
0.150329 -0.617681 0
-0.797481 2.48867 0
-0.331675 3.60102 0
0.0631095 1.51282 0
0.741481 0.473449 0
0.646873 8.87547 0
0.0500002 10.0469 0
2.38125 -4.28568 0
3.8597 -5.64122 0
3.00183 -5.21341 0
5.57461 -5.49266 0
4.69171 -5.28383 0
0.629717 -2.29352 0
1.25628 -2.95146 0
0.757547 -1.39154 0
2.16454 -3.13611 0
2.9941 -3.47696 0
6.15617 -4.79257 0
6.65662 -5.77021 0
7.11891 -7.01892 0
-1.01975 5.82105 0
-0.372671 6.88459 0
1.12281 7.77081 0
0.558059 7.08089 0
-0.000765346 4.72568 0
0.607058 3.82819 0
1.33901 -0.641938 0
0.53914 2.65126 0
0.966151 1.57505 0
1.91034 0.213883 0
1.61489 1.06511 0
2.12977 7.5849 0
1.79951 8.71385 0
1.35486 9.96142 0
3.82334 -4.35219 0
5.11741 -4.44975 0
5.84675 -3.93582 0
3.78447 -3.20146 0
1.81244 -1.88278 0
3.01949 -2.57417 0
6.78463 -3.9486 0
7.38278 -4.89768 0
7.98112 -6.03577 0
0.483426 5.88238 0
1.42842 6.74309 0
2.37478 6.67033 0
1.21013 4.55675 0
1.48834 3.39801 0
2.43604 -0.692088 0
2.82836 0.14262 0
1.78907 2.16306 0
2.61217 1.15027 0
3.07264 7.17156 0
2.90479 8.37846 0
2.63741 9.70632 0
4.91207 -3.32842 0
6.12187 -3.10927 0
4.17346 -2.27557 0
3.24484 -1.50308 0
6.73275 -2.31351 0
7.23362 -3.04319 0
7.96658 -3.91307 0
8.70759 -4.94847 0
2.02396 5.60078 0
3.08717 6.15493 0
2.36426 4.12752 0
2.4204 3.06129 0
3.52616 -0.460918 0
3.61621 0.613373 0
2.96224 2.28839 0
3.54611 1.52549 0
4.01318 5.8996 0
3.98553 6.79499 0
3.97434 7.94077 0
3.87568 9.28599 0
5.56994 -1.91653 0
4.50997 -1.12978 0
6.71566 -1.33644 0
7.59461 -2.03696 0
8.39943 -2.86212 0
9.28593 -3.77566 0
3.41987 4.87808 0
3.3396 3.38598 0
4.69211 0.130099 0
4.52001 1.31021 0
4.06608 2.44426 0
4.57198 5.15405 0
4.84528 6.19282 0
4.98202 7.38279 0
5.04848 8.70761 0
5.88495 -0.435004 0
7.01312 -0.488391 0
7.76211 -1.08563 0
8.68761 -1.74648 0
9.70631 -2.53741 0
4.55368 3.82861 0
5.81939 1.09889 0
5.37279 2.53565 0
5.3821 4.62232 0
5.61431 5.52565 0
5.89935 6.67434 0
6.13576 7.98112 0
6.84862 0.463702 0
7.85636 -0.0256463 0
8.86366 -0.584548 0
9.96143 -1.25486 0
6.96328 1.34998 0
5.72336 3.77995 0
6.54409 2.19837 0
6.38288 3.08927 0
6.29515 4.68899 0
6.69581 5.8402 0
7.11889 7.11889 0
7.78765 0.968013 0
8.86301 0.572976 0
10.047 0.05 0
7.61956 2.00517 0
6.83226 3.90602 0
7.27283 2.94811 0
7.38147 4.88785 0
7.98114 6.13577 0
8.72661 1.72762 0
9.96142 1.35486 0
8.42453 2.83896 0
7.98502 3.91796 0
8.70763 5.04848 0
9.70631 2.6374 0
9.28598 3.87567 0
CELLS 542 2168
3 2 0 4
3 0 1 7
3 4 0 7
3 1 5 8
3 7 1 8
3 3 2 13
3 13 2 4
3 11 3 14
3 14 3 13
3 13 4 15
3 4 7 16
3 15 4 16
3 5 6 17
3 8 5 17
3 6 9 18
3 17 6 18
3 7 8 19
3 16 7 19
3 8 17 20
3 19 8 20
3 9 10 23
3 18 9 23
3 10 21 24
3 23 10 24
3 12 11 25
3 25 11 14
3 26 12 27
3 27 12 25
3 14 13 29
3 29 13 15
3 25 14 30
3 30 14 29
3 29 15 31
3 15 16 33
3 31 15 33
3 16 19 34
3 33 16 34
3 17 18 35
3 20 17 35
3 18 23 36
3 35 18 36
3 19 20 37
3 34 19 37
3 20 35 38
3 37 20 38
3 21 22 39
3 24 21 39
3 22 32 40
3 39 22 40
3 23 24 41
3 36 23 41
3 24 39 42
3 41 24 42
3 27 25 44
3 44 25 30
3 28 26 45
3 45 26 27
3 45 27 46
3 46 27 44
3 47 28 48
3 48 28 45
3 30 29 50
3 50 29 31
3 44 30 51
3 51 30 50
3 50 31 52
3 31 33 52
3 32 43 53
3 40 32 53
3 53 43 54
3 33 34 55
3 34 37 55
3 33 55 52
3 35 36 56
3 38 35 56
3 36 41 57
3 56 36 57
3 37 38 58
3 38 56 58
3 37 58 55
3 39 40 59
3 42 39 59
3 40 53 60
3 59 40 60
3 41 42 61
3 57 41 61
3 42 59 62
3 61 42 62
3 43 63 54
3 46 44 64
3 64 44 51
3 48 45 65
3 65 45 46
3 65 46 66
3 66 46 64
3 49 47 67
3 67 47 48
3 67 48 68
3 68 48 65
3 69 49 70
3 70 49 67
3 52 55 72
3 64 51 73
3 51 50 73
3 50 52 73
3 73 52 74
3 74 52 72
3 53 54 75
3 60 53 75
3 54 63 76
3 54 76 77
3 75 54 77
3 55 58 78
3 72 55 78
3 72 78 79
3 56 57 80
3 57 61 80
3 56 80 58
3 58 80 81
3 78 58 81
3 59 60 82
3 62 59 82
3 60 75 83
3 82 60 83
3 61 62 84
3 62 82 84
3 61 84 80
3 63 85 76
3 66 64 86
3 64 73 86
3 68 65 87
3 87 65 66
3 87 66 86
3 70 67 88
3 88 67 68
3 88 68 89
3 89 68 87
3 71 69 90
3 90 69 70
3 90 70 91
3 91 70 88
3 92 71 93
3 93 71 90
3 74 72 94
3 94 72 79
3 86 73 95
3 95 73 74
3 95 74 96
3 96 74 94
3 97 86 95
3 76 85 99
3 75 77 100
3 83 75 100
3 76 99 101
3 77 76 101
3 77 101 102
3 100 77 102
3 94 79 103
3 78 81 104
3 79 78 104
3 79 104 103
3 80 84 105
3 81 80 105
3 81 105 106
3 104 81 106
3 82 83 107
3 83 100 107
3 82 107 84
3 84 107 108
3 105 84 108
3 85 109 99
3 89 87 110
3 87 86 110
3 110 86 97
3 91 88 111
3 111 88 89
3 111 89 110
3 93 90 112
3 112 90 91
3 112 91 113
3 113 91 111
3 98 92 114
3 114 92 93
3 114 93 115
3 115 93 112
3 116 98 114
3 117 103 118
3 96 94 119
3 94 103 119
3 119 103 117
3 97 95 120
3 120 95 96
3 120 96 119
3 121 110 97
3 121 97 122
3 122 97 120
3 123 119 117
3 124 98 116
3 99 109 125
3 99 125 126
3 101 99 126
3 100 102 127
3 100 127 107
3 101 126 128
3 102 101 128
3 102 128 127
3 104 106 129
3 104 129 103
3 103 129 118
3 105 108 130
3 106 105 130
3 106 130 129
3 107 127 131
3 108 107 131
3 108 131 132
3 108 132 130
3 109 134 125
3 125 134 133
3 113 111 135
3 111 110 135
3 135 110 121
3 115 112 136
3 136 112 113
3 136 113 135
3 116 114 137
3 137 114 115
3 137 115 138
3 138 115 136
3 139 124 116
3 139 116 140
3 140 116 137
3 141 135 121
3 118 129 142
3 118 142 143
3 117 118 143
3 123 117 143
3 122 120 144
3 120 119 144
3 144 119 123
3 141 121 145
3 145 121 122
3 145 122 144
3 146 141 145
3 147 144 123
3 147 123 148
3 143 148 123
3 150 124 139
3 149 150 139
3 131 127 151
3 125 133 152
3 126 125 152
3 126 152 153
3 128 126 153
3 128 153 154
3 128 154 127
3 127 154 151
3 152 133 155
3 130 132 156
3 130 156 129
3 129 156 142
3 131 151 157
3 132 131 157
3 132 157 156
3 156 158 142
3 157 151 159
3 133 160 155
3 134 161 133
3 133 161 160
3 138 136 162
3 136 135 162
3 162 135 141
3 140 137 163
3 163 137 138
3 163 138 162
3 149 139 164
3 164 139 140
3 164 140 165
3 165 140 163
3 166 149 164
3 167 162 141
3 167 141 146
3 142 158 168
3 143 142 168
3 143 168 148
3 146 145 169
3 145 144 169
3 169 144 147
3 170 167 146
3 170 146 169
3 171 169 147
3 171 147 148
3 171 148 172
3 168 172 148
3 173 149 166
3 174 150 149
3 173 174 149
3 154 175 151
3 151 175 159
3 152 155 176
3 153 152 176
3 153 176 177
3 153 177 154
3 154 177 175
3 155 160 178
3 155 178 179
3 176 155 179
3 156 157 180
3 156 180 158
3 157 159 181
3 157 181 180
3 158 180 182
3 158 182 168
3 159 175 183
3 159 183 181
3 175 184 183
3 160 186 178
3 178 186 185
3 161 187 160
3 160 187 186
3 165 163 188
3 163 162 188
3 188 162 167
3 166 164 189
3 189 164 165
3 189 165 188
3 190 173 166
3 190 166 191
3 191 166 189
3 192 188 167
3 192 167 170
3 193 192 170
3 182 194 168
3 194 172 168
3 193 170 195
3 170 169 195
3 195 169 171
3 196 195 171
3 196 171 172
3 194 197 172
3 197 198 172
3 198 196 172
3 200 173 190
3 199 200 190
3 201 174 173
3 200 201 173
3 176 179 202
3 177 176 202
3 177 202 175
3 175 202 184
3 178 185 203
3 178 203 179
3 179 203 202
3 203 185 204
3 202 205 184
3 183 206 181
3 180 181 206
3 180 206 182
3 182 206 194
3 183 184 207
3 205 207 184
3 183 207 206
3 185 208 204
3 186 209 185
3 185 209 208
3 187 210 186
3 186 210 209
3 191 189 211
3 189 188 211
3 211 188 192
3 199 190 212
3 212 190 191
3 212 191 211
3 213 199 212
3 214 211 192
3 214 192 193
3 215 214 193
3 215 193 195
3 206 216 194
3 216 197 194
3 216 217 197
3 215 195 218
3 218 195 196
3 198 218 196
3 217 219 197
3 219 218 198
3 197 219 198
3 220 199 213
3 221 200 199
3 220 221 199
3 222 201 200
3 221 222 200
3 203 204 223
3 203 223 202
3 202 223 205
3 204 208 224
3 204 224 223
3 205 223 225
3 205 225 207
3 207 225 226
3 207 226 206
3 226 216 206
3 208 228 224
3 224 228 227
3 209 229 208
3 229 228 208
3 210 230 209
3 209 230 229
3 213 212 231
3 212 211 231
3 231 211 214
3 232 220 213
3 232 213 231
3 233 231 214
3 233 214 215
3 234 233 215
3 234 215 218
3 226 235 216
3 235 217 216
3 235 236 217
3 217 236 219
3 237 234 218
3 237 218 219
3 236 238 219
3 238 237 219
3 240 220 232
3 239 240 232
3 241 221 220
3 240 241 220
3 242 222 221
3 241 242 221
3 224 227 243
3 224 243 223
3 223 243 225
3 225 243 244
3 225 244 226
3 226 244 235
3 227 245 243
3 228 246 227
3 227 246 245
3 229 247 228
3 228 247 246
3 230 248 229
3 229 248 247
3 239 232 249
3 232 231 249
3 249 231 233
3 250 249 233
3 250 233 234
3 237 250 234
3 244 251 235
3 235 251 236
3 251 252 236
3 236 252 238
3 252 253 238
3 253 250 237
3 253 237 238
3 254 239 249
3 255 240 239
3 254 255 239
3 256 241 240
3 255 256 240
3 257 242 241
3 256 257 241
3 245 258 243
3 243 258 244
3 244 258 251
3 245 259 258
3 246 260 245
3 245 260 259
3 247 261 246
3 246 261 260
3 248 262 247
3 247 262 261
3 254 249 263
3 263 249 250
3 253 263 250
3 258 264 251
3 251 264 252
3 264 265 252
3 265 263 253
3 252 265 253
3 266 254 263
3 267 255 254
3 266 267 254
3 268 256 255
3 267 268 255
3 269 257 256
3 268 269 256
3 259 270 258
3 270 264 258
3 260 271 259
3 259 271 270
3 261 272 260
3 260 272 271
3 262 273 261
3 273 272 261
3 270 274 264
3 275 266 263
3 275 263 265
3 274 276 264
3 276 265 264
3 276 277 265
3 277 275 265
3 278 267 266
3 275 278 266
3 279 268 267
3 278 279 267
3 280 269 268
3 279 280 268
3 271 281 270
3 270 281 274
3 272 282 271
3 271 282 281
3 273 283 272
3 272 283 282
3 281 284 274
3 274 284 276
3 285 278 275
3 277 285 275
3 284 286 276
3 286 285 277
3 276 286 277
3 287 279 278
3 285 287 278
3 288 280 279
3 287 288 279
3 282 289 281
3 281 289 284
3 283 290 282
3 282 290 289
3 289 291 284
3 284 291 286
3 291 292 286
3 292 287 285
3 286 292 285
3 293 288 287
3 292 293 287
3 290 294 289
3 289 294 291
3 294 295 291
3 295 293 292
3 291 295 292
CELL_TYPES 542
5
5
5
5
5
5
5
5
5
5
5
5
5
5
5
5
5
5
5
5
5
5
5
5
5
5
5
5
5
5
5
5
5
5
5
5
5
5
5
5
5
5
5
5
5
5
5
5
5
5
5
5
5
5
5
5
5
5
5
5
5
5
5
5
5
5
5
5
5
5
5
5
5
5
5
5
5
5
5
5
5
5
5
5
5
5
5
5
5
5
5
5
5
5
5
5
5
5
5
5
5
5
5
5
5
5
5
5
5
5
5
5
5
5
5
5
5
5
5
5
5
5
5
5
5
5
5
5
5
5
5
5
5
5
5
5
5
5
5
5
5
5
5
5
5
5
5
5
5
5
5
5
5
5
5
5
5
5
5
5
5
5
5
5
5
5
5
5
5
5
5
5
5
5
5
5
5
5
5
5
5
5
5
5
5
5
5
5
5
5
5
5
5
5
5
5
5
5
5
5
5
5
5
5
5
5
5
5
5
5
5
5
5
5
5
5
5
5
5
5
5
5
5
5
5
5
5
5
5
5
5
5
5
5
5
5
5
5
5
5
5
5
5
5
5
5
5
5
5
5
5
5
5
5
5
5
5
5
5
5
5
5
5
5
5
5
5
5
5
5
5
5
5
5
5
5
5
5
5
5
5
5
5
5
5
5
5
5
5
5
5
5
5
5
5
5
5
5
5
5
5
5
5
5
5
5
5
5
5
5
5
5
5
5
5
5
5
5
5
5
5
5
5
5
5
5
5
5
5
5
5
5
5
5
5
5
5
5
5
5
5
5
5
5
5
5
5
5
5
5
5
5
5
5
5
5
5
5
5
5
5
5
5
5
5
5
5
5
5
5
5
5
5
5
5
5
5
5
5
5
5
5
5
5
5
5
5
5
5
5
5
5
5
5
5
5
5
5
5
5
5
5
5
5
5
5
5
5
5
5
5
5
5
5
5
5
5
5
5
5
5
5
5
5
5
5
5
5
5
5
5
5
5
5
5
5
5
5
5
5
5
5
5
5
5
5
5
5
5
5
5
5
5
5
5
5
5
5
5
5
5
5
5
5
5
5
5
5
5
5
5
5
5
5
5
5
5
5
5
5
5
5
5
5
5
5
5
5
5
5
5
5
5
5
5
5
5
5
5
5
5
5
5
5
5
5
5
5
5
5
5
5
5
5
5
5
5
5
5
5
5
5
5
5
5
5
5
5
5
5
5
5
5
5
5
5
5
5
5
5
5
5
POINT_DATA 296
SCALARS concentrations float 4
LOOKUP_TABLE default
0 0.999387 0.199627 15.0393
0 0.999386 0.199377 14.7794
0 0.999387 0.198823 14.5945
0 0.999386 0.198086 14.854
0 0.999387 0.0908773 0.000170807
0 0.999386 0.198688 13.3634
0 0.999386 0.198474 14.8938
0 0.999387 0.0908777 0.000276372
0 0.999386 0.0908784 0.000760338
0 0.999387 0.198351 14.0844
0 0.999387 0.198693 14.9451
0 0.999386 0.197219 14.653
0 0.999386 0.197478 14.5079
0 0.999387 0.0908774 0.000244297
0 0.999386 0.0908772 0.000245733
0 0.999387 0.0908774 0.00021561
0 0.999387 0.0908775 0.000147219
0 0.999387 0.0908784 0.000795935
0 0.999387 0.0908779 0.000283989
0 0.999387 0.0908778 0.000180999
0 0.999387 0.0908779 0.000233757
0 0.999386 0.199916 15.0482
0 0.999386 0.200878 14.9197
0 0.999387 0.0908779 0.000134629
0 0.999387 0.0908773 0.000146602
0 0.999386 0.0908772 0.000202334
0 0.999387 0.196782 14.5053
0 0.999387 0.0908773 0.000251762
0 0.999388 0.197446 14.712
0 0.999387 0.0908773 0.000242398
0 0.999387 0.0908772 0.000240012
0 0.999387 0.0908772 0.000207106
0 0.999386 0.198286 14.7031
0 0.999387 0.0908772 0.000165695
0 0.999387 0.0908774 0.000103774
0 0.999387 0.0908779 0.000216557
0 0.999387 0.0908776 0.000148126
0 0.999388 0.0908774 3.81382e-05
0 0.999388 0.0908776 6.09427e-05
0 0.999386 0.0908772 0.000177145
0 0.999386 0.0908772 0.000221998
0 0.999387 0.0908774 0.000180741
0 0.999387 0.0908773 0.000209089
0 0.999385 0.197592 14.6209
0 0.999387 0.0908774 0.000270678
0 0.999387 0.0908777 0.000358551
0 0.999387 0.0908775 0.000360829
0 0.99939 0.196541 13.9894
0 0.999389 0.0908793 0.000836195
0 0.999389 0.196314 14.4428
0 0.999387 0.0908771 0.000203875
0 0.999387 0.0908772 0.000226326
0 0.999387 0.0908768 0.000140816
0 0.999386 0.0908772 0.000207891
0 0.999385 0.0908772 0.000207856
0 0.999387 0.0908769 0.000114413
0 0.999388 0.0908774 0.000130559
0 0.999387 0.0908773 0.000188251
0 0.999388 0.0908769 0.00010983
0 0.999387 0.0908772 0.000222698
0 0.999386 0.0908772 0.000220685
0 0.999387 0.0908772 0.000211935
0 0.999387 0.0908772 0.000222849
0 0.999385 0.1962 14.642
0 0.999387 0.0908771 0.000250791
0 0.999388 0.090878 0.000543094
0 0.999387 0.0908774 0.000365295
0 0.999389 0.0908789 0.00075001
0 0.999388 0.090878 0.00059445
0 0.999388 0.196177 14.6289
0 0.999388 0.0908774 0.000381563
0 0.999387 0.196173 13.835
0 0.999387 0.0908767 0.000125636
0 0.999387 0.0908768 0.000154724
0 0.999387 0.0908767 0.000131369
0 0.999386 0.0908772 0.000191751
0 0.999385 0.0908775 0.000167883
0 0.999386 0.0908772 0.000128201
0 0.999388 0.0908767 0.000125068
0 0.999387 0.0908766 0.000131755
0 0.999387 0.0908769 0.000154116
0 0.999388 0.0908767 0.000137081
0 0.999387 0.090877 0.000194536
0 0.999387 0.0908771 0.000179564
0 0.999387 0.0908768 0.000166024
0 0.999384 0.196604 14.2668
0 0.999387 0.0908768 0.00020358
0 0.999388 0.0908774 0.000404865
0 0.999388 0.0908779 0.000550044
0 0.999388 0.0908776 0.000463496
0 0.999387 0.0908782 0.000373647
0 0.999388 0.0908776 0.000406935
0 0.999386 0.196197 14.509
0 0.999386 0.0908774 0.000114553
0 0.999387 0.0908766 0.00011807
0 0.999387 0.0908767 0.000144577
0 0.999387 0.0908766 0.000120187
0 0.999387 0.0908767 0.000156906
0 0.999386 0.196765 14.5614
0 0.999385 0.0908777 0.000230479
0 0.999386 0.090877 0.000148319
0 0.999386 0.0908772 7.01759e-05
0 0.999386 0.0908771 0.00011472
0 0.999387 0.0908765 0.000100172
0 0.999388 0.0908766 0.000132767
0 0.999387 0.0908767 0.00014833
0 0.999387 0.0908766 0.000144313
0 0.999387 0.0908768 0.000143778
0 0.999387 0.0908766 0.000139567
0 0.999385 0.196137 14.6404
0 0.999387 0.0908769 0.00023482
0 0.999388 0.0908773 0.000374323
0 0.999387 0.0908774 0.000296479
0 0.999387 0.0908773 0.000327622
0 0.999386 0.0908771 0.000165196
0 0.999387 0.0908772 0.000227892
0 0.999387 0.0908772 0.000224789
0 0.999387 0.0908764 7.61186e-05
0 0.999388 0.0908764 8.28922e-05
0 0.999387 0.0908765 8.12335e-05
0 0.999387 0.0908766 0.000113955
0 0.999387 0.0908766 0.000157864
0 0.999387 0.0908766 0.00012962
0 0.999388 0.0908764 4.85287e-05
0 0.999387 0.196489 14.4823
0 0.999386 0.0908777 0.000372631
0 0.999386 0.0908773 0.000207667
0 0.999387 0.0908768 0.000122522
0 0.999386 0.0908771 0.000146523
0 0.999387 0.0908765 0.000106013
0 0.999387 0.0908766 0.000129785
0 0.999387 0.0908766 0.00012127
0 0.999387 0.0908765 0.000114173
0 0.999387 0.0908774 0.00031806
0 0.999387 0.196274 14.1846
0 0.999387 0.0908768 0.000196871
0 0.999387 0.0908771 0.000247319
0 0.999387 0.0908772 0.000264963
0 0.999387 0.0908771 0.000248324
0 0.999387 0.0908776 0.000410011
0 0.999387 0.0908773 0.000362839
0 0.999387 0.0908766 0.000162589
0 0.999388 0.0908764 6.8996e-05
0 0.999388 0.0908763 3.60909e-05
0 0.999387 0.0908764 7.51006e-05
0 0.999387 0.0908766 0.00012517
0 0.999387 0.0908766 0.00015601
0 0.999388 0.0908764 5.50135e-05
0 0.999388 0.0908763 2.38002e-05
0 0.999388 0.0908782 0.000654264
0 0.999388 0.197149 14.3737
0 0.999387 0.0908767 0.000117985
0 0.999387 0.0908774 0.000317456
0 0.999387 0.0908772 0.000236231
0 0.999387 0.0908769 0.000149462
0 0.999387 0.0908775 0.000438505
0 0.999387 0.0908764 9.13122e-05
0 0.999387 0.0908765 0.000103206
0 0.999388 0.0908764 6.70635e-05
0 0.999387 0.0908767 0.000137627
0 0.999388 0.0908778 0.000540623
0 0.999387 0.196161 14.5152
0 0.999387 0.0908767 0.000189359
0 0.999387 0.0908771 0.000285549
0 0.999388 0.0908776 0.000503624
0 0.999387 0.0908772 0.000384432
0 0.999387 0.0908777 0.000522698
0 0.999387 0.0908767 0.000190361
0 0.999388 0.0908763 3.62904e-05
0 0.999387 0.0908764 9.78667e-05
0 0.999387 0.0908766 0.000168832
0 0.999388 0.0908764 7.72597e-05
0 0.999388 0.0908763 6.79408e-05
0 0.999387 0.0908783 0.000597832
0 0.999388 0.19592 14.3183
0 0.999387 0.0908767 0.000166235
0 0.999387 0.0908772 0.000310041
0 0.999387 0.0908769 0.000220465
0 0.999388 0.0908777 0.000560938
0 0.999387 0.0908772 0.000393977
0 0.999387 0.0908764 8.30006e-05
0 0.999387 0.0908765 0.000104195
0 0.999388 0.0908764 8.02569e-05
0 0.999387 0.0908766 0.000146798
0 0.999387 0.0908767 0.000209074
0 0.999388 0.0908778 0.000588638
0 0.999389 0.0908781 0.000652883
0 0.999389 0.195269 14.404
0 0.999387 0.0908768 0.000243492
0 0.999387 0.0908772 0.000402376
0 0.999387 0.0908778 0.000416677
0 0.999387 0.0908774 0.000415398
0 0.999387 0.0908767 0.000208112
0 0.999387 0.0908767 0.000193127
0 0.999388 0.0908763 8.65769e-05
0 0.999388 0.0908765 0.000130061
0 0.999388 0.0908764 0.000107851
0 0.999388 0.0908764 0.000117696
0 0.999388 0.0908764 0.000122227
0 0.999385 0.0908778 0.000250668
0 0.999385 0.0908777 0.000327399
0 0.999386 0.196204 14.4403
0 0.999387 0.0908768 0.000255446
0 0.999387 0.0908773 0.000426365
0 0.999388 0.0908775 0.000493177
0 0.999387 0.0908768 0.000231837
0 0.999387 0.0908764 0.000113791
0 0.999387 0.0908766 0.000176967
0 0.999388 0.0908778 0.000566143
0 0.999388 0.0908782 0.000557462
0 0.999389 0.195696 13.9783
0 0.999387 0.0908769 0.000244602
0 0.999387 0.0908773 0.000299191
0 0.999386 0.0908776 0.000199984
0 0.999387 0.0908767 0.000189024
0 0.999387 0.0908766 0.000178068
0 0.999388 0.0908765 0.000141889
0 0.999388 0.0908765 0.000172342
0 0.999388 0.0908765 0.000145406
0 0.999388 0.0908765 0.000158708
0 0.999384 0.0908779 0.000136322
0 0.999383 0.090878 0.000489984
0 0.999383 0.195004 14.3224
0 0.999387 0.0908769 0.000290511
0 0.999387 0.0908774 0.000416286
0 0.999387 0.0908767 0.000212269
0 0.999387 0.0908766 0.000169814
0 0.999387 0.0908776 0.000386089
0 0.999387 0.0908779 0.000525579
0 0.999388 0.090878 0.000548541
0 0.999388 0.197159 14.603
0 0.999387 0.0908769 0.000168209
0 0.999386 0.0908775 0.000108157
0 0.999387 0.0908767 0.000156765
0 0.999387 0.0908767 0.000176021
0 0.999387 0.0908766 0.000180162
0 0.999387 0.0908766 0.000183074
0 0.999387 0.0908766 0.000172745
0 0.999387 0.0908767 0.000185024
0 0.999385 0.0908775 5.13736e-05
0 0.999384 0.0908779 9.24683e-05
0 0.999382 0.090878 0.000303881
0 0.999381 0.193866 14.2867
0 0.999387 0.090877 0.000239839
0 0.999387 0.0908767 0.000181774
0 0.999387 0.0908776 0.00026215
0 0.999387 0.0908782 0.000412072
0 0.999387 0.0908788 0.000606258
0 0.999388 0.197159 15.2104
0 0.999387 0.0908769 0.000112918
0 0.999387 0.0908767 0.000151642
0 0.999387 0.0908767 0.000161944
0 0.999387 0.0908767 0.00016296
0 0.999387 0.0908767 0.00016113
0 0.999386 0.0908772 9.17782e-05
0 0.999384 0.0908778 5.42874e-05
0 0.999382 0.0908784 0.000240504
0 0.999381 0.195283 14.4272
0 0.999387 0.090877 0.000176913
0 0.999386 0.0908779 0.000149508
0 0.999386 0.0908784 0.000234485
0 0.999386 0.0908784 0.000400742
0 0.999387 0.19577 14.3351
0 0.999387 0.0908768 0.000137271
0 0.999387 0.0908769 0.000162576
0 0.999387 0.0908768 0.000169427
0 0.999386 0.0908773 0.000155766
0 0.999385 0.0908777 0.000147423
0 0.999383 0.090879 0.000320596
0 0.999381 0.195769 14.0333
0 0.999386 0.0908776 0.00012421
0 0.999385 0.0908784 0.000109434
0 0.999383 0.0908795 0.000682807
0 0.999384 0.195099 14.3756
0 0.999386 0.0908776 0.000170235
0 0.999386 0.0908771 0.00020115
0 0.999387 0.0908772 0.000215844
0 0.999387 0.0908772 0.000237048
0 0.999385 0.0908774 0.000231176
0 0.999384 0.090878 0.000285271
0 0.999383 0.195238 15.3424
0 0.999385 0.0908782 0.000139391
0 0.999383 0.0908795 0.000699959
0 0.999381 0.195178 13.3589
0 0.999386 0.0908777 0.000186155
0 0.999386 0.0908774 0.000253991
0 0.999386 0.0908774 0.000240072
0 0.999385 0.0908775 0.00025823
0 0.999385 0.193094 14.4672
0 0.999385 0.0908779 0.000226121
0 0.999383 0.195606 14.4592
0 0.999386 0.0908774 0.000203087
0 0.999386 0.0908772 0.000236017
0 0.999385 0.194168 14.2241
0 0.999385 0.195767 14.4646
0 0.999386 0.195144 14.456
VECTORS fa_u float
0.000442041 0.000183329 0
0.000407312 0.000235074 0
0.000448591 0.000120121 0
0.000468593 6.18195e-05 0
5.42859e-09 -2.6557e-10 0
0.000337285 0.000258945 0
0.000335127 0.000335095 0
4.16851e-09 -7.74341e-09 0
-7.61885e-09 -2.2963e-08 0
0.000272876 0.000355512 0
0.000237729 0.000411868 0
0.000466258 2.82963e-07 0
0.000457713 -6.00953e-05 0
7.74918e-09 -6.14577e-10 0
7.13211e-09 3.20513e-09 0
6.79729e-09 9.30578e-10 0
4.49475e-09 -1.31978e-09 0
-2.52692e-08 -1.70437e-09 0
-7.83983e-09 4.49394e-09 0
-4.72854e-10 -5.73993e-09 0
-6.27189e-09 -3.99867e-09 0
0.00018331 0.000442354 0
0.000122929 0.000458552 0
-5.1047e-10 4.25336e-09 0
2.36603e-09 4.0203e-09 0
6.07835e-09 -2.12245e-09 0
0.000445964 -0.000118964 0
7.11156e-09 -3.6882e-09 0
0.000432334 -0.00017955 0
7.61247e-09 1.24178e-09 0
7.63299e-09 2.52263e-10 0
6.40004e-09 1.57125e-09 0
6.10054e-05 0.000463858 0
5.05497e-09 1.49851e-09 0
3.30008e-09 1.14862e-10 0
-6.73158e-09 1.47278e-09 0
-1.06567e-09 4.59132e-09 0
1.09482e-09 5.2353e-10 0
-8.37349e-10 1.74909e-09 0
1.95142e-09 5.28818e-09 0
3.29265e-09 6.24965e-09 0
2.28224e-09 5.27895e-09 0
3.34435e-09 5.75155e-09 0
-2.26409e-07 0.000465236 0
8.17938e-09 -2.6983e-09 0
6.77271e-09 -9.18136e-09 0
9.6209e-09 -6.26613e-09 0
0.000385616 -0.000222376 0
1.46528e-08 -2.22095e-08 0
0.000364858 -0.00027943 0
6.43463e-09 8.2476e-10 0
7.17519e-09 -6.17126e-10 0
4.29643e-09 1.27193e-09 0
2.52271e-09 6.11517e-09 0
3.68523e-09 5.49215e-09 0
3.188e-09 1.75801e-09 0
9.52614e-10 4.04367e-09 0
2.57926e-09 5.40638e-09 0
2.1726e-09 2.73739e-09 0
3.35947e-09 6.23927e-09 0
2.9625e-09 6.36668e-09 0
3.57524e-09 5.71803e-09 0
3.61483e-09 6.10047e-09 0
-6.02511e-05 0.000461994 0
7.49707e-09 -2.73435e-09 0
1.29237e-08 -1.14725e-08 0
9.75742e-09 -6.31683e-09 0
2.38283e-08 -1.32668e-09 0
1.59304e-08 -1.01987e-08 0
0.000329072 -0.000329229 0
9.84506e-09 -7.10536e-09 0
0.000268203 -0.000349098 0
3.58636e-09 1.76628e-09 0
4.90776e-09 -3.91185e-10 0
4.11945e-09 7.09788e-10 0
2.41991e-09 5.60111e-09 0
5.34197e-09 -2.36018e-11 0
1.9829e-09 3.565e-09 0
3.0406e-09 2.56757e-09 0
3.47856e-09 2.34009e-09 0
2.79159e-09 4.03184e-09 0
2.85638e-09 3.29655e-09 0
2.78341e-09 5.52902e-09 0
2.07617e-09 5.32315e-09 0
2.79038e-09 4.48581e-09 0
-0.000117264 0.000438562 0
5.80009e-09 -2.88479e-09 0
1.0657e-08 -7.23846e-09 0
1.55882e-08 -7.95869e-09 0
1.24836e-08 -7.85339e-09 0
1.18282e-08 -1.20471e-09 0
1.12467e-08 -6.41719e-09 0
0.000230512 -0.000400011 0
2.48253e-09 -2.66901e-09 0
3.4789e-09 1.41852e-09 0
4.48905e-09 -1.00615e-09 0
3.82049e-09 1.71778e-10 0
4.30077e-09 -2.53591e-09 0
0.000177399 -0.000428038 0
-6.03594e-09 -4.16564e-09 0
1.29195e-09 4.53922e-09 0
-1.52778e-09 1.62853e-09 0
-3.63269e-10 3.63226e-09 0
2.63618e-09 1.7918e-09 0
3.02701e-09 2.947e-09 0
2.78279e-09 3.81224e-09 0
2.90489e-09 3.55645e-09 0
1.66772e-09 4.26022e-09 0
2.07271e-09 3.92765e-09 0
-0.000178772 0.000430189 0
6.04277e-09 -4.39487e-09 0
9.7958e-09 -6.77587e-09 0
7.42546e-09 -5.81908e-09 0
7.86638e-09 -6.84097e-09 0
3.8013e-10 -5.24277e-09 0
3.22861e-09 -6.49309e-09 0
-2.54869e-09 -6.68327e-09 0
2.2155e-09 9.78805e-10 0
1.87781e-09 1.85227e-09 0
2.5706e-09 2.7098e-10 0
3.44921e-09 -1.11855e-09 0
3.3065e-09 -3.78149e-09 0
3.14343e-09 -2.67029e-09 0
1.50562e-09 -3.42921e-10 0
0.000119162 -0.000445153 0
-1.15743e-08 2.57401e-09 0
-6.1752e-09 2.352e-09 0
-2.3203e-10 3.89173e-09 0
-2.97385e-09 3.59078e-09 0
2.05037e-09 2.67868e-09 0
2.04699e-09 3.58675e-09 0
6.48104e-10 3.80398e-09 0
1.05033e-09 3.47785e-09 0
-7.64163e-09 6.63571e-09 0
-0.000225295 0.000391104 0
3.89272e-09 -4.90814e-09 0
4.3516e-09 -6.55707e-09 0
5.26246e-12 -8.4311e-09 0
1.87133e-09 -7.67685e-09 0
-7.00829e-09 -1.10043e-08 0
-2.5667e-09 -1.12566e-08 0
1.6513e-09 -4.90295e-09 0
8.21396e-10 2.036e-09 0
7.62959e-10 8.58333e-10 0
1.77375e-09 -1.60139e-09 0
1.84212e-09 -3.53131e-09 0
5.98131e-10 -4.92805e-09 0
4.12563e-10 -1.70122e-09 0
-4.11553e-10 -6.35735e-10 0
-7.18999e-09 -1.95376e-08 0
5.92365e-05 -0.000453518 0
-1.33152e-09 3.51023e-09 0
-8.80209e-09 4.95603e-09 0
-5.95954e-09 4.58115e-09 0
-2.86647e-09 3.79495e-09 0
-1.21092e-08 6.93253e-09 0
6.73794e-10 2.82634e-09 0
-4.46975e-10 3.25345e-09 0
-4.19341e-10 2.09235e-09 0
-2.36075e-09 3.6885e-09 0
-1.70147e-08 2.53573e-09 0
-0.000281021 0.000366544 0
9.81253e-10 -5.94496e-09 0
-2.89543e-10 -9.08154e-09 0
-3.60356e-09 -1.56148e-08 0
-1.7232e-09 -1.21106e-08 0
-3.96877e-11 -1.66322e-08 0
-1.62152e-10 -6.05509e-09 0
-9.61964e-10 6.38821e-10 0
4.96415e-11 -3.11372e-09 0
-7.47714e-10 -5.31994e-09 0
-1.01479e-09 -2.23918e-09 0
-1.94868e-09 -9.36124e-10 0
9.46189e-09 -1.65029e-08 0
1.32426e-07 -0.000455608 0
-4.01821e-09 3.44003e-09 0
-8.11458e-09 5.61083e-09 0
-5.68585e-09 4.10899e-09 0
-1.59648e-08 7.98208e-09 0
-1.07607e-08 6.43164e-09 0
-1.22964e-09 2.33736e-09 0
-2.1495e-09 2.52427e-09 0
-2.07345e-09 1.49082e-09 0
-3.75741e-09 2.77509e-09 0
-5.58382e-09 3.61655e-09 0
-1.56327e-08 1.03174e-08 0
-1.7967e-08 1.04295e-08 0
-0.000324544 0.000323636 0
-9.08822e-10 -7.69442e-09 0
-1.35435e-09 -1.27317e-08 0
3.74761e-09 -1.2718e-08 0
-1.59251e-10 -1.3217e-08 0
-1.27201e-09 -6.49879e-09 0
-1.87774e-09 -5.85137e-09 0
-2.72636e-09 3.9531e-10 0
-1.71849e-09 -3.76488e-09 0
-2.26913e-09 -2.57454e-09 0
-3.6228e-09 -9.49246e-10 0
-3.27027e-09 -2.10517e-09 0
5.78351e-09 -5.49286e-09 0
8.66679e-09 -5.78076e-09 0
-5.97297e-05 -0.000455589 0
-6.99562e-09 4.13882e-09 0
-1.17714e-08 6.74504e-09 0
-1.34109e-08 8.14937e-09 0
-6.66073e-09 3.17101e-09 0
-3.34246e-09 1.39224e-09 0
-5.23065e-09 2.08552e-09 0
-1.53502e-08 9.42858e-09 0
-1.22624e-08 1.28173e-08 0
-0.000352684 0.000271017 0
-1.15011e-09 -7.69779e-09 0
5.04367e-10 -9.50685e-09 0
1.38765e-09 -6.21032e-09 0
-1.85814e-09 -5.7205e-09 0
-2.70172e-09 -4.9805e-09 0
-4.49589e-09 4.13869e-10 0
-5.41252e-09 -8.81973e-10 0
-3.24448e-09 -3.2986e-09 0
-4.57655e-09 -2.13504e-09 0
4.31962e-09 -3.96122e-10 0
1.51942e-08 3.49634e-09 0
-0.000118214 -0.000440138 0
-8.2388e-09 4.19217e-09 0
-1.16588e-08 6.28759e-09 0
-6.40772e-09 2.13604e-09 0
-5.31728e-09 9.61322e-10 0
-1.0869e-08 5.7266e-09 0
-1.41949e-08 8.84269e-09 0
-1.66508e-08 5.23553e-09 0
-0.000402682 0.000231869 0
-1.05572e-09 -5.24723e-09 0
2.20263e-10 -3.4345e-09 0
-2.43341e-09 -4.35445e-09 0
-3.59543e-09 -4.29463e-09 0
-5.73208e-09 -8.7172e-11 0
-5.68726e-09 -1.26102e-09 0
-4.50722e-09 -3.14627e-09 0
-5.46864e-09 -2.18084e-09 0
-5.39571e-10 -1.54309e-09 0
2.29257e-09 1.84431e-09 0
1.59236e-10 9.66816e-09 0
-0.000174176 -0.000419913 0
-7.13304e-09 2.71332e-09 0
-5.71072e-09 9.17968e-10 0