# vtk DataFile Version 2.0
CellBP Time: 1.96
ASCII
DATASET UNSTRUCTURED_GRID
POINTS 296 double
-9.18525 -3.77536 0
-8.60693 -4.94808 0
-9.60555 -2.5372 0
-9.86067 -1.25476 0
-8.35806 -2.81887 0
-7.88046 -6.03525 0
-7.01837 -7.01836 0
-7.9177 -3.87494 0
-7.34311 -4.86814 0
-6.03528 -7.88049 0
-4.94809 -8.60694 0
-9.94615 0.0500004 0
-9.86067 1.35476 0
-8.65817 -1.68403 0
-8.78681 -0.529655 0
-7.59019 -2.00427 0
-7.22622 -2.90667 0
-6.63807 -5.77925 0
-5.82279 -6.59733 0
-6.79073 -3.88917 0
-6.22101 -4.67624 0
-3.77537 -9.18524 0
-2.5372 -9.60552 0
-4.9068 -7.30929 0
-3.91327 -7.88676 0
-8.79327 0.643435 0
-9.60558 2.63722 0
-8.62379 1.77418 0
-9.18526 3.87538 0
-7.74481 -0.929039 0
-7.79503 0.0802594 0
-6.95302 -1.31596 0
-1.25476 -9.86066 0
-6.44191 -2.15326 0
-6.31981 -3.05633 0
-5.53693 -5.47496 0
-4.79625 -6.11591 0
-5.65942 -3.75726 0
-5.26977 -4.56191 0
-2.86636 -8.3645 0
-1.77868 -8.64083 0
-3.92842 -6.72404 0
-3.05684 -7.15313 0
0.0499999 -9.94619 0
-7.70604 1.14359 0
-8.33912 2.91561 0
-7.55244 2.11211 0
-8.60698 5.04812 0
-7.8806 3.9785 0
-7.88055 6.13533 0
-6.77917 -0.396882 0
-6.95704 0.552581 0
-5.77177 -1.00347 0
-0.590878 -8.81033 0
0.565721 -8.77152 0
-5.30346 -2.48043 0
-4.49229 -5.0961 0
-3.90279 -5.77575 0
-4.4392 -3.805 0
-2.06257 -7.56253 0
-1.13557 -7.78645 0
-2.99477 -6.10252 0
-2.3092 -6.6203 0
1.35477 -9.86068 0
-6.68995 1.42215 0
-7.17274 3.11836 0
-6.65977 2.37319 0
-7.29528 4.98903 0
-6.71863 4.00338 0
-7.01838 7.11839 0
-6.57301 5.89461 0
-6.03531 7.98053 0
-4.45338 -1.18114 0
-5.81499 0.513792 0
-4.65644 -0.0103823 0
0.00852172 -7.84875 0
1.7387 -8.6445 0
0.949042 -7.7641 0
-4.03876 -2.40653 0
-3.48576 -1.39128 0
-3.29473 -4.80567 0
-3.26607 -3.26799 0
-1.37869 -6.676 0
-0.508782 -7.02553 0
-1.97569 -5.53743 0
2.6372 -9.60558 0
-5.50773 2.03707 0
-6.09523 3.07247 0
-6.10565 4.87008 0
-5.76225 3.99184 0
-5.76182 6.71776 0
-5.45266 5.61991 0
-4.9481 8.70697 0
-4.83893 7.40528 0
-3.50171 -0.42433 0
-4.4496 1.24912 0
-3.7117 0.59211 0
-4.06245 2.31997 0
-3.77538 9.28528 0
2.86287 -8.33364 0
0.419726 -6.79606 0
2.02222 -7.52659 0
1.30621 -6.90625 0
-2.44481 -0.873866 0
-2.83856 -2.13127 0
-2.29456 -4.09766 0
-2.3258 -2.97379 0
-0.442421 -5.86165 0
-1.22281 -4.49946 0
3.87538 -9.18529 0
-4.7902 3.39208 0
-5.08845 4.59461 0
-4.64768 6.28212 0
-4.53935 5.3603 0
-3.84415 7.99422 0
-3.82718 6.84649 0
-2.78361 8.42377 0
-1.64915 -0.137908 0
-1.45035 -0.890641 0
-2.48927 0.507287 0
-3.25384 1.44425 0
-3.23927 3.31681 0
-2.91118 2.37193 0
-1.35519 0.627143 0
-2.5372 9.70556 0
3.93313 -7.88785 0
2.96488 -7.15856 0
0.954178 -5.82257 0
2.07457 -6.41623 0
-1.68307 -1.99218 0
-1.43453 -3.278 0
0.0902259 -4.74737 0
-0.566214 -3.69469 0
4.93271 -7.31965 0
5.04811 -8.60698 0
-3.7773 4.55205 0
-3.73518 5.7528 0
-2.88832 7.29075 0
-3.01005 6.35448 0
-1.66275 8.7347 0
-1.94035 7.6203 0
-2.33857 4.05201 0
-0.730774 -1.32733 0
-0.836947 -0.257641 0
-1.93633 1.68088 0
-2.12592 2.87605 0
-1.30667 3.54496 0
-0.869512 1.35091 0
-0.282383 0.456074 0
-0.533584 8.87278 0
-1.25477 9.96068 0
1.11288 -4.575 0
3.91063 -6.71816 0
2.98828 -6.09552 0
2.11808 -5.42554 0
4.78507 -6.20619 0
-0.558888 -2.47698 0
0.495147 -3.4641 0
0.0535557 -1.61058 0
1.48202 -3.68247 0
5.86795 -6.61555 0
6.13532 -7.88055 0
-2.47594 5.34905 0
-2.13072 6.53528 0
-0.904193 7.80436 0
-1.27251 6.93297 0
0.0862155 7.88148 0
-1.14456 4.49512 0
0.150329 -0.617681 0
-0.797481 2.48867 0
-0.331675 3.60102 0
0.0631095 1.51282 0
0.741481 0.473449 0
0.646873 8.87547 0
0.05 10.0462 0
2.38125 -4.28568 0
3.8597 -5.64122 0
3.00183 -5.21341 0
5.57461 -5.49266 0
4.69171 -5.28383 0
0.629717 -2.29352 0
1.25628 -2.95146 0
0.757547 -1.39154 0
2.16454 -3.13611 0
2.9941 -3.47696 0
6.15617 -4.79257 0
6.65662 -5.77021 0
7.11839 -7.01839 0
-1.01975 5.82105 0
-0.372671 6.88459 0
1.12281 7.77081 0
0.558059 7.08089 0
-0.000765344 4.72568 0
0.607058 3.82819 0
1.33901 -0.641938 0
0.53914 2.65126 0
0.966151 1.57505 0
1.91034 0.213883 0
1.61489 1.06511 0
2.12977 7.5849 0
1.79951 8.71385 0
1.35477 9.96068 0
3.82334 -4.35219 0
5.11741 -4.44975 0
5.84675 -3.93582 0
3.78447 -3.20146 0
1.81244 -1.88278 0
3.01949 -2.57417 0
6.78463 -3.9486 0
7.38278 -4.89768 0
7.98054 -6.03532 0
0.483426 5.88238 0
1.42842 6.74309 0
2.37478 6.67033 0
1.21013 4.55675 0
1.48834 3.39801 0
2.43604 -0.692088 0
2.82836 0.14262 0
1.78907 2.16306 0
2.61217 1.15027 0
3.07264 7.17156 0
2.90479 8.37846 0
2.63722 9.70561 0
4.91207 -3.32842 0
6.12187 -3.10927 0
4.17346 -2.27557 0
3.24484 -1.50308 0
6.73275 -2.31351 0
7.23362 -3.04319 0
7.96658 -3.91307 0
8.70695 -4.9481 0
2.02396 5.60078 0
3.08717 6.15493 0
2.36426 4.12752 0
2.4204 3.06129 0
3.52616 -0.460918 0
3.61621 0.613373 0
2.96224 2.28839 0
3.54611 1.52549 0
4.01318 5.8996 0
3.98553 6.79499 0
3.97434 7.94077 0
3.87541 9.28535 0
5.56994 -1.91653 0
4.50997 -1.12978 0
6.71566 -1.33644 0
7.59461 -2.03696 0
8.39943 -2.86212 0
9.28528 -3.77539 0
3.41987 4.87808 0
3.3396 3.38598 0
4.69211 0.130099 0
4.52001 1.31021 0
4.06608 2.44426 0
4.57198 5.15405 0
4.84528 6.19282 0
4.98202 7.38279 0
5.04811 8.70697 0
5.88495 -0.435004 0
7.01312 -0.488391 0
7.76211 -1.08563 0
8.68761 -1.74648 0
9.7056 -2.53722 0
4.55368 3.82861 0
5.81939 1.09889 0
5.37279 2.53565 0
5.3821 4.62232 0
5.61431 5.52565 0
5.89935 6.67434 0
6.13531 7.98053 0
6.84862 0.463702 0
7.85636 -0.0256463 0
8.86366 -0.584548 0
9.9607 -1.25477 0
6.96328 1.34998 0
5.72336 3.77995 0
6.54409 2.19837 0
6.38288 3.08927 0
6.29515 4.68899 0
6.69581 5.8402 0
7.11837 7.11837 0
7.78765 0.968013 0
8.86301 0.572976 0
10.0462 0.0499999 0
7.61956 2.00517 0
6.83226 3.90602 0
7.27283 2.94811 0
7.38147 4.88785 0
7.98056 6.13533 0
8.72661 1.72762 0
9.96069 1.35477 0
8.42453 2.83896 0
7.98502 3.91796 0
8.707 5.04812 0
9.7056 2.63721 0
9.2853 3.87539 0
CELLS 542 2168
3 2 0 4
3 0 1 7
3 4 0 7
3 1 5 8
3 7 1 8
3 3 2 13
3 13 2 4
3 11 3 14
3 14 3 13
3 13 4 15
3 4 7 16
3 15 4 16
3 5 6 17
3 8 5 17
3 6 9 18
3 17 6 18
3 7 8 19
3 16 7 19
3 8 17 20
3 19 8 20
3 9 10 23
3 18 9 23
3 10 21 24
3 23 10 24
3 12 11 25
3 25 11 14
3 26 12 27
3 27 12 25
3 14 13 29
3 29 13 15
3 25 14 30
3 30 14 29
3 29 15 31
3 15 16 33
3 31 15 33
3 16 19 34
3 33 16 34
3 17 18 35
3 20 17 35
3 18 23 36
3 35 18 36
3 19 20 37
3 34 19 37
3 20 35 38
3 37 20 38
3 21 22 39
3 24 21 39
3 22 32 40
3 39 22 40
3 23 24 41
3 36 23 41
3 24 39 42
3 41 24 42
3 27 25 44
3 44 25 30
3 28 26 45
3 45 26 27
3 45 27 46
3 46 27 44
3 47 28 48
3 48 28 45
3 30 29 50
3 50 29 31
3 44 30 51
3 51 30 50
3 50 31 52
3 31 33 52
3 32 43 53
3 40 32 53
3 53 43 54
3 33 34 55
3 34 37 55
3 33 55 52
3 35 36 56
3 38 35 56
3 36 41 57
3 56 36 57
3 37 38 58
3 38 56 58
3 37 58 55
3 39 40 59
3 42 39 59
3 40 53 60
3 59 40 60
3 41 42 61
3 57 41 61
3 42 59 62
3 61 42 62
3 43 63 54
3 46 44 64
3 64 44 51
3 48 45 65
3 65 45 46
3 65 46 66
3 66 46 64
3 49 47 67
3 67 47 48
3 67 48 68
3 68 48 65
3 69 49 70
3 70 49 67
3 52 55 72
3 64 51 73
3 51 50 73
3 50 52 73
3 73 52 74
3 74 52 72
3 53 54 75
3 60 53 75
3 54 63 76
3 54 76 77
3 75 54 77
3 55 58 78
3 72 55 78
3 72 78 79
3 56 57 80
3 57 61 80
3 56 80 58
3 58 80 81
3 78 58 81
3 59 60 82
3 62 59 82
3 60 75 83
3 82 60 83
3 61 62 84
3 62 82 84
3 61 84 80
3 63 85 76
3 66 64 86
3 64 73 86
3 68 65 87
3 87 65 66
3 87 66 86
3 70 67 88
3 88 67 68
3 88 68 89
3 89 68 87
3 71 69 90
3 90 69 70
3 90 70 91
3 91 70 88
3 92 71 93
3 93 71 90
3 74 72 94
3 94 72 79
3 86 73 95
3 95 73 74
3 95 74 96
3 96 74 94
3 97 86 95
3 76 85 99
3 75 77 100
3 83 75 100
3 76 99 101
3 77 76 101
3 77 101 102
3 100 77 102
3 94 79 103
3 78 81 104
3 79 78 104
3 79 104 103
3 80 84 105
3 81 80 105
3 81 105 106
3 104 81 106
3 82 83 107
3 83 100 107
3 82 107 84
3 84 107 108
3 105 84 108
3 85 109 99
3 89 87 110
3 87 86 110
3 110 86 97
3 91 88 111
3 111 88 89
3 111 89 110
3 93 90 112
3 112 90 91
3 112 91 113
3 113 91 111
3 98 92 114
3 114 92 93
3 114 93 115
3 115 93 112
3 116 98 114
3 117 103 118
3 96 94 119
3 94 103 119
3 119 103 117
3 97 95 120
3 120 95 96
3 120 96 119
3 121 110 97
3 121 97 122
3 122 97 120
3 123 119 117
3 124 98 116
3 99 109 125
3 99 125 126
3 101 99 126
3 100 102 127
3 100 127 107
3 101 126 128
3 102 101 128
3 102 128 127
3 104 106 129
3 104 129 103
3 103 129 118
3 105 108 130
3 106 105 130
3 106 130 129
3 107 127 131
3 108 107 131
3 108 131 132
3 108 132 130
3 109 134 125
3 125 134 133
3 113 111 135
3 111 110 135
3 135 110 121
3 115 112 136
3 136 112 113
3 136 113 135
3 116 114 137
3 137 114 115
3 137 115 138
3 138 115 136
3 139 124 116
3 139 116 140
3 140 116 137
3 141 135 121
3 118 129 142
3 118 142 143
3 117 118 143
3 123 117 143
3 122 120 144
3 120 119 144
3 144 119 123
3 141 121 145
3 145 121 122
3 145 122 144
3 146 141 145
3 147 144 123
3 147 123 148
3 143 148 123
3 150 124 139
3 149 150 139
3 131 127 151
3 125 133 152
3 126 125 152
3 126 152 153
3 128 126 153
3 128 153 154
3 128 154 127
3 127 154 151
3 152 133 155
3 130 132 156
3 130 156 129
3 129 156 142
3 131 151 157
3 132 131 157
3 132 157 156
3 156 158 142
3 157 151 159
3 133 160 155
3 134 161 133
3 133 161 160
3 138 136 162
3 136 135 162
3 162 135 141
3 140 137 163
3 163 137 138
3 163 138 162
3 149 139 164
3 164 139 140
3 164 140 165
3 165 140 163
3 166 149 164
3 167 162 141
3 167 141 146
3 142 158 168
3 143 142 168
3 143 168 148
3 146 145 169
3 145 144 169
3 169 144 147
3 170 167 146
3 170 146 169
3 171 169 147
3 171 147 148
3 171 148 172
3 168 172 148
3 173 149 166
3 174 150 149
3 173 174 149
3 154 175 151
3 151 175 159
3 152 155 176
3 153 152 176
3 153 176 177
3 153 177 154
3 154 177 175
3 155 160 178
3 155 178 179
3 176 155 179
3 156 157 180
3 156 180 158
3 157 159 181
3 157 181 180
3 158 180 182
3 158 182 168
3 159 175 183
3 159 183 181
3 175 184 183
3 160 186 178
3 178 186 185
3 161 187 160
3 160 187 186
3 165 163 188
3 163 162 188
3 188 162 167
3 166 164 189
3 189 164 165
3 189 165 188
3 190 173 166
3 190 166 191
3 191 166 189
3 192 188 167
3 192 167 170
3 193 192 170
3 182 194 168
3 194 172 168
3 193 170 195
3 170 169 195
3 195 169 171
3 196 195 171
3 196 171 172
3 194 197 172
3 197 198 172
3 198 196 172
3 200 173 190
3 199 200 190
3 201 174 173
3 200 201 173
3 176 179 202
3 177 176 202
3 177 202 175
3 175 202 184
3 178 185 203
3 178 203 179
3 179 203 202
3 203 185 204
3 202 205 184
3 183 206 181
3 180 181 206
3 180 206 182
3 182 206 194
3 183 184 207
3 205 207 184
3 183 207 206
3 185 208 204
3 186 209 185
3 185 209 208
3 187 210 186
3 186 210 209
3 191 189 211
3 189 188 211
3 211 188 192
3 199 190 212
3 212 190 191
3 212 191 211
3 213 199 212
3 214 211 192
3 214 192 193
3 215 214 193
3 215 193 195
3 206 216 194
3 216 197 194
3 216 217 197
3 215 195 218
3 218 195 196
3 198 218 196
3 217 219 197
3 219 218 198
3 197 219 198
3 220 199 213
3 221 200 199
3 220 221 199
3 222 201 200
3 221 222 200
3 203 204 223
3 203 223 202
3 202 223 205
3 204 208 224
3 204 224 223
3 205 223 225
3 205 225 207
3 207 225 226
3 207 226 206
3 226 216 206
3 208 228 224
3 224 228 227
3 209 229 208
3 229 228 208
3 210 230 209
3 209 230 229
3 213 212 231
3 212 211 231
3 231 211 214
3 232 220 213
3 232 213 231
3 233 231 214
3 233 214 215
3 234 233 215
3 234 215 218
3 226 235 216
3 235 217 216
3 235 236 217
3 217 236 219
3 237 234 218
3 237 218 219
3 236 238 219
3 238 237 219
3 240 220 232
3 239 240 232
3 241 221 220
3 240 241 220
3 242 222 221
3 241 242 221
3 224 227 243
3 224 243 223
3 223 243 225
3 225 243 244
3 225 244 226
3 226 244 235
3 227 245 243
3 228 246 227
3 227 246 245
3 229 247 228
3 228 247 246
3 230 248 229
3 229 248 247
3 239 232 249
3 232 231 249
3 249 231 233
3 250 249 233
3 250 233 234
3 237 250 234
3 244 251 235
3 235 251 236
3 251 252 236
3 236 252 238
3 252 253 238
3 253 250 237
3 253 237 238
3 254 239 249
3 255 240 239
3 254 255 239
3 256 241 240
3 255 256 240
3 257 242 241
3 256 257 241
3 245 258 243
3 243 258 244
3 244 258 251
3 245 259 258
3 246 260 245
3 245 260 259
3 247 261 246
3 246 261 260
3 248 262 247
3 247 262 261
3 254 249 263
3 263 249 250
3 253 263 250
3 258 264 251
3 251 264 252
3 264 265 252
3 265 263 253
3 252 265 253
3 266 254 263
3 267 255 254
3 266 267 254
3 268 256 255
3 267 268 255
3 269 257 256
3 268 269 256
3 259 270 258
3 270 264 258
3 260 271 259
3 259 271 270
3 261 272 260
3 260 272 271
3 262 273 261
3 273 272 261
3 270 274 264
3 275 266 263
3 275 263 265
3 274 276 264
3 276 265 264
3 276 277 265
3 277 275 265
3 278 267 266
3 275 278 266
3 279 268 267
3 278 279 267
3 280 269 268
3 279 280 268
3 271 281 270
3 270 281 274
3 272 282 271
3 271 282 281
3 273 283 272
3 272 283 282
3 281 284 274
3 274 284 276
3 285 278 275
3 277 285 275
3 284 286 276
3 286 285 277
3 276 286 277
3 287 279 278
3 285 287 278
3 288 280 279
3 287 288 279
3 282 289 281
3 281 289 284
3 283 290 282
3 282 290 289
3 289 291 284
3 284 291 286
3 291 292 286
3 292 287 285
3 286 292 285
3 293 288 287
3 292 293 287
3 290 294 289
3 289 294 291
3 294 295 291
3 295 293 292
3 291 295 292
CELL_TYPES 542
5
5
5
5
5
5
5
5
5
5
5
5
5
5
5
5
5
5
5
5
5
5
5
5
5
5
5
5
5
5
5
5
5
5
5
5
5
5
5
5
5
5
5
5
5
5
5
5
5
5
5
5
5
5
5
5
5
5
5
5
5
5
5
5
5
5
5
5
5
5
5
5
5
5
5
5
5
5
5
5
5
5
5
5
5
5
5
5
5
5
5
5
5
5
5
5
5
5
5
5
5
5
5
5
5
5
5
5
5
5
5
5
5
5
5
5
5
5
5
5
5
5
5
5
5
5
5
5
5
5
5
5
5
5
5
5
5
5
5
5
5
5
5
5
5
5
5
5
5
5
5
5
5
5
5
5
5
5
5
5
5
5
5
5
5
5
5
5
5
5
5
5
5
5
5
5
5
5
5
5
5
5
5
5
5
5
5
5
5
5
5
5
5
5
5
5
5
5
5
5
5
5
5
5
5
5
5
5
5
5
5
5
5
5
5
5
5
5
5
5
5
5
5
5
5
5
5
5
5
5
5
5
5
5
5
5
5
5
5
5
5
5
5
5
5
5
5
5
5
5
5
5
5
5
5
5
5
5
5
5
5
5
5
5
5
5
5
5
5
5
5
5
5
5
5
5
5
5
5
5
5
5
5
5
5
5
5
5
5
5
5
5
5
5
5
5
5
5
5
5
5
5
5
5
5
5
5
5
5
5
5
5
5
5
5
5
5
5
5
5
5
5
5
5
5
5
5
5
5
5
5
5
5
5
5
5
5
5
5
5
5
5
5
5
5
5
5
5
5
5
5
5
5
5
5
5
5
5
5
5
5
5
5
5
5
5
5
5
5
5
5
5
5
5
5
5
5
5
5
5
5
5
5
5
5
5
5
5
5
5
5
5
5
5
5
5
5
5
5
5
5
5
5
5
5
5
5
5
5
5
5
5
5
5
5
5
5
5
5
5
5
5
5
5
5
5
5
5
5
5
5
5
5
5
5
5
5
5
5
5
5
5
5
5
5
5
5
5
5
5
5
5
5
5
5
5
5
5
5
5
5
5
5
5
5
5
5
5
5
5
5
5
5
5
5
5
5
5
5
5
5
5
5
5
5
5
5
5
5
5
5
5
5
5
5
5
5
5
5
5
5
5
5
5
5
5
5
5
5
5
5
5
5
5
5
5
5
5
5
5
5
5
5
5
5
5
5
5
5
5
5
5
5
5
5
5
5
5
5
5
5
5
POINT_DATA 296
SCALARS concentrations float 4
LOOKUP_TABLE default
0 0.999237 0.219189 16.3458
0 0.999237 0.21892 16.4914
0 0.999237 0.218277 16.6271
0 0.999237 0.217403 16.0933
0 0.999237 0.0908772 0.000185092
0 0.999236 0.218162 17.7118
0 0.999237 0.217875 16.3207
0 0.999237 0.0908774 0.00017785
0 0.999237 0.0908784 0.000178986
0 0.999237 0.217728 16.7189
0 0.999238 0.218127 16.3648
0 0.999236 0.216194 17.643
0 0.999237 0.216698 16.2088
0 0.999237 0.0908773 0.000216992
0 0.999237 0.0908784 0.000181542
0 0.999238 0.0908773 0.00016836
0 0.999238 0.0908773 0.000155558
0 0.999237 0.0908784 0.00018664
0 0.999237 0.0908774 0.000139112
0 0.999238 0.0908775 0.000133406
0 0.999238 0.0908776 0.000117596
0 0.999239 0.219547 16.4601
0 0.999239 0.220648 16.7871
0 0.999238 0.0908777 0.000200912
0 0.999239 0.0908772 0.000239414
0 0.999237 0.0908785 0.000254323
0 0.999239 0.215898 16.3107
0 0.999238 0.0908777 0.00034924
0 0.999241 0.216681 16.6423
0 0.999238 0.0908776 0.000172673
0 0.999238 0.0908776 0.000203672
0 0.999239 0.0908772 0.000134823
0 0.999239 0.217645 16.4504
0 0.999239 0.0908771 0.000113361
0 0.999238 0.0908772 0.000106283
0 0.999238 0.0908776 0.000111627
0 0.999238 0.0908774 0.000136862
0 0.999239 0.0908772 7.54319e-05
0 0.999238 0.0908773 7.3958e-05
0 0.999239 0.0908771 0.000225727
0 0.999239 0.0908771 0.000210238
0 0.999239 0.0908773 0.000187341
0 0.999239 0.0908772 0.000216756
0 0.999239 0.216832 16.3006
0 0.999239 0.0908777 0.000323468
0 0.99924 0.0908779 0.000476328
0 0.99924 0.0908778 0.000458833
0 0.999242 0.215696 15.1906
0 0.999242 0.090879 0.00061976
0 0.999242 0.215236 15.0639
0 0.999239 0.0908772 0.00015549
0 0.999239 0.0908774 0.00022287
0 0.999239 0.0908768 0.00011698
0 0.999239 0.0908771 0.000192008
0 0.999239 0.0908771 0.000177964
0 0.999239 0.0908768 7.39319e-05
0 0.999239 0.0908772 8.74372e-05
0 0.999239 0.0908772 0.000133571
0 0.999239 0.0908768 4.88218e-05
0 0.999239 0.0908772 0.000213756
0 0.999239 0.0908772 0.000199436
0 0.999239 0.0908771 0.000156847
0 0.999239 0.0908771 0.00018679
0 0.999238 0.215225 16.3124
0 0.99924 0.0908773 0.000317644
0 0.999241 0.090878 0.000603779
0 0.99924 0.0908775 0.000477212
0 0.999242 0.0908794 0.000582607
0 0.999242 0.0908783 0.000662404
0 0.999241 0.215198 16.2279
0 0.999242 0.0908787 0.000543138
0 0.99924 0.215206 15.8768
0 0.99924 0.0908766 9.08091e-05
0 0.99924 0.0908768 0.000190152
0 0.99924 0.0908767 0.000145044
0 0.999239 0.0908772 0.000174311
0 0.999238 0.0908772 0.000127834
0 0.999239 0.0908772 0.000123223
0 0.99924 0.0908766 5.62529e-05
0 0.99924 0.0908766 6.59642e-05
0 0.999239 0.0908768 7.50438e-05
0 0.99924 0.0908767 5.10449e-05
0 0.99924 0.090877 0.000162413
0 0.99924 0.090877 0.000155373
0 0.99924 0.0908768 0.000104515
0 0.999238 0.215732 16.4816
0 0.99924 0.0908769 0.000297433
0 0.999241 0.0908775 0.000547467
0 0.999242 0.0908784 0.000666491
0 0.999241 0.0908778 0.000632242
0 0.99924 0.0908782 0.000508977
0 0.999241 0.0908781 0.000570591
0 0.99924 0.215219 16.2573
0 0.99924 0.0908779 0.000158679
0 0.99924 0.0908766 9.54291e-05
0 0.99924 0.0908767 0.000205146
0 0.99924 0.0908766 0.000144346
0 0.99924 0.0908767 0.000230898
0 0.999241 0.215879 16.3032
0 0.999238 0.0908775 0.00014925
0 0.99924 0.090877 0.000128433
0 0.999239 0.0908772 8.54918e-05
0 0.99924 0.0908771 0.00011201
0 0.99924 0.0908765 5.61511e-05
0 0.99924 0.0908766 4.45489e-05
0 0.99924 0.0908767 6.6782e-05
0 0.99924 0.0908766 5.17096e-05
0 0.99924 0.0908768 0.00010418
0 0.99924 0.0908766 7.74383e-05
0 0.999238 0.215153 16.3999
0 0.999241 0.090877 0.000350344
0 0.999241 0.0908776 0.000552096
0 0.99924 0.0908778 0.000413172
0 0.999241 0.0908776 0.000483539
0 0.99924 0.0908779 0.000204592
0 0.99924 0.0908777 0.000279288
0 0.999242 0.0908787 0.0003579
0 0.99924 0.0908764 6.36832e-05
0 0.99924 0.0908764 3.6145e-05
0 0.99924 0.0908764 9.66909e-05
0 0.99924 0.0908766 0.000171368
0 0.999241 0.0908767 0.000218447
0 0.99924 0.0908766 0.000198922
0 0.999241 0.0908764 7.13647e-05
0 0.999244 0.215486 17.0279
0 0.999239 0.0908778 0.000178876
0 0.99924 0.0908774 0.000141633
0 0.99924 0.0908768 0.000102693
0 0.99924 0.0908771 0.000129483
0 0.99924 0.0908765 3.45219e-05
0 0.99924 0.0908766 5.9054e-05
0 0.99924 0.0908766 8.59671e-05
0 0.99924 0.0908766 6.8733e-05
0 0.999239 0.0908784 3.5025e-05
0 0.999239 0.215304 15.8854
0 0.999241 0.0908769 0.000277015
0 0.99924 0.0908774 0.000327693
0 0.999241 0.090878 0.000269769
0 0.99924 0.0908775 0.000247461
0 0.999244 0.0908791 0.000457639
0 0.999242 0.0908782 0.000343631
0 0.99924 0.0908767 0.000177502
0 0.999241 0.0908764 2.40334e-05
0 0.999241 0.0908763 2.44014e-05
0 0.99924 0.0908765 0.000118767
0 0.99924 0.0908766 0.000168273
0 0.99924 0.0908766 0.000148134
0 0.999241 0.0908764 7.41361e-05
0 0.999241 0.0908763 3.17003e-05
0 0.999243 0.0908786 0.000510376
0 0.999245 0.216296 15.9107
0 0.999241 0.0908767 0.000103988
0 0.99924 0.0908776 0.000162658
0 0.99924 0.0908773 0.000171983
0 0.99924 0.0908769 0.000129499
0 0.99924 0.0908779 0.000227739
0 0.999241 0.0908765 5.047e-05
0 0.999241 0.0908765 8.25619e-05
0 0.999241 0.0908764 4.48817e-05
0 0.999241 0.0908767 0.000125275
0 0.99924 0.0908788 0.000369128
0 0.999239 0.214954 15.3215
0 0.99924 0.0908769 0.000169655
0 0.999241 0.0908775 0.000214814
0 0.999242 0.0908782 0.000420843
0 0.999241 0.0908778 0.000278984
0 0.999241 0.090878 0.000413807
0 0.99924 0.0908767 0.000140645
0 0.999241 0.0908763 1.97357e-05
0 0.99924 0.0908764 9.67774e-05
0 0.99924 0.0908766 0.000116075
0 0.999241 0.0908763 5.45371e-05
0 0.999241 0.0908763 2.77435e-05
0 0.999242 0.0908781 0.000433281
0 0.999243 0.21492 15.8928
0 0.999241 0.0908767 0.000146539
0 0.999241 0.0908773 0.000207698
0 0.999241 0.090877 0.000177324
0 0.999241 0.0908779 0.000354985
0 0.999241 0.0908774 0.00026878
0 0.999241 0.0908764 6.89957e-05
0 0.999241 0.0908765 9.7882e-05
0 0.999241 0.0908764 6.53024e-05
0 0.999241 0.0908766 0.0001338
0 0.999241 0.0908768 0.000181053
0 0.999242 0.0908777 0.000413558
0 0.999242 0.0908779 0.000421212
0 0.999241 0.214141 16.2397
0 0.99924 0.0908769 0.000152671
0 0.999241 0.0908775 0.00028031
0 0.99924 0.0908778 0.000337041
0 0.99924 0.0908775 0.000305234
0 0.99924 0.0908767 0.000130777
0 0.99924 0.0908766 0.000109774
0 0.999241 0.0908763 6.0628e-05
0 0.99924 0.0908764 7.18047e-05
0 0.99924 0.0908763 5.02564e-05
0 0.999241 0.0908764 6.73324e-05
0 0.999241 0.0908764 5.80641e-05
0 0.99924 0.0908777 0.000243075
0 0.99924 0.0908778 0.000212474
0 0.999241 0.215225 16.2766
0 0.999241 0.0908769 0.000203126
0 0.999241 0.0908773 0.000321205
0 0.999242 0.0908774 0.000393616
0 0.999241 0.0908768 0.00019429
0 0.999241 0.0908764 9.60039e-05
0 0.999241 0.0908766 0.00015245
0 0.999242 0.0908775 0.000440699
0 0.999242 0.0908777 0.00037442
0 0.999242 0.214648 15.7179
0 0.99924 0.0908769 0.000162184
0 0.99924 0.0908773 0.000245452
0 0.99924 0.0908774 0.000231405
0 0.99924 0.0908767 0.000118889
0 0.99924 0.0908766 9.72604e-05
0 0.999241 0.0908765 0.000103089
0 0.999241 0.0908766 0.000111373
0 0.99924 0.0908764 7.18149e-05
0 0.99924 0.0908765 8.90112e-05
0 0.999239 0.0908775 0.000194305
0 0.999239 0.0908783 0.000145112
0 0.999239 0.213831 16.1285
0 0.999241 0.0908769 0.000243347
0 0.999241 0.0908772 0.000354293
0 0.999241 0.0908767 0.000180016
0 0.999241 0.0908766 0.000135206
0 0.999241 0.0908773 0.00033874
0 0.999242 0.0908775 0.000437435
0 0.999242 0.0908774 0.000425672
0 0.999242 0.216332 16.5104
0 0.99924 0.0908768 0.000138807
0 0.999239 0.0908772 0.000182932
0 0.99924 0.0908766 0.00010671
0 0.99924 0.0908766 0.000102573
0 0.999241 0.0908766 0.00013125
0 0.999241 0.0908766 0.000121384
0 0.99924 0.0908766 0.000101793
0 0.99924 0.0908766 0.00011617
0 0.999239 0.0908773 0.000176529
0 0.999239 0.0908776 0.000154003
0 0.999238 0.090878 0.000106368
0 0.999238 0.212579 14.8872
0 0.999241 0.0908768 0.000210195
0 0.999241 0.0908767 0.000150514
0 0.999241 0.0908773 0.000240127
0 0.999241 0.0908778 0.000365666
0 0.999242 0.0908781 0.000497928
0 0.999242 0.216382 16.0207
0 0.99924 0.0908767 0.000119289
0 0.99924 0.0908766 0.000107612
0 0.999241 0.0908767 0.000121991
0 0.99924 0.0908767 0.000112839
0 0.99924 0.0908766 0.000110761
0 0.999239 0.0908772 0.000180427
0 0.999239 0.0908777 0.000206609
0 0.999238 0.0908777 0.000105983
0 0.999238 0.214152 16.2548
0 0.999241 0.0908769 0.000150007
0 0.99924 0.0908775 0.000155329
0 0.99924 0.090878 0.00022752
0 0.99924 0.0908779 0.000328872
0 0.999241 0.214715 16.103
0 0.99924 0.0908768 0.000125869
0 0.99924 0.0908768 0.000118687
0 0.99924 0.0908768 0.000124736
0 0.999239 0.0908773 0.000212766
0 0.999239 0.0908776 0.000268478
0 0.999239 0.090879 0.000491963
0 0.999238 0.214815 15.9817
0 0.99924 0.0908773 0.00011076
0 0.999239 0.0908779 6.79398e-05
0 0.999238 0.0908792 0.00044431
0 0.999239 0.213936 16.2497
0 0.99924 0.0908773 0.0001335
0 0.999239 0.0908772 0.000189819
0 0.99924 0.0908772 0.000162083
0 0.999239 0.0908772 0.000190071
0 0.999239 0.0908775 0.000277397
0 0.999239 0.0908783 0.000438006
0 0.99924 0.214003 17.1976
0 0.999239 0.0908778 7.03428e-05
0 0.999238 0.0908791 0.000381786
0 0.999236 0.214111 14.9858
0 0.999239 0.0908775 0.000163645
0 0.999239 0.0908774 0.000223931
0 0.999239 0.0908774 0.000204453
0 0.999239 0.0908774 0.000190006
0 0.999239 0.211592 15.8214
0 0.999239 0.0908776 0.00015976
0 0.999238 0.214529 16.3037
0 0.999239 0.0908773 0.000185355
0 0.999239 0.0908773 0.000209304
0 0.999239 0.212861 15.9304
0 0.999239 0.214717 16.2364
0 0.999239 0.213989 16.1791
VECTORS fa_u float
0.000480522 0.00019906 0
0.000454391 0.000262481 0
0.000510985 0.000137165 0
0.000507714 6.67698e-05 0
5.8889e-09 -9.25968e-11 0
0.000447046 0.000343192 0
0.000367389 0.000367047 0
5.44344e-09 1.54769e-09 0
5.57941e-09 1.14323e-09 0
0.000323974 0.000421969 0
0.000260115 0.000451105 0
0.000561397 4.49966e-07 0
0.000511358 -6.72513e-05 0
6.86425e-09 -7.46038e-10 0
5.74041e-09 -6.4589e-10 0
5.341e-09 -4.16311e-10 0
4.94641e-09 1.84614e-10 0
2.97191e-09 5.14179e-09 0
4.08739e-09 1.69924e-09 0
4.15827e-09 8.53462e-10 0
3.1522e-09 2.01629e-09 0
0.000200518 0.000483854 0
0.00013823 0.00051597 0
-2.60067e-09 5.84013e-09 0
1.3626e-09 7.4953e-09 0
4.95266e-09 -6.40002e-09 0
0.000501359 -0.000134181 0
5.32125e-09 -9.75594e-09 0
0.00048934 -0.000202426 0
5.23818e-09 -1.6584e-09 0
5.04943e-09 -4.06255e-09 0
4.06162e-09 -1.38129e-09 0
6.84424e-05 0.000518956 0
3.56312e-09 -5.61862e-10 0
3.38142e-09 5.87332e-11 0
1.94763e-09 2.97038e-09 0
9.16198e-10 4.25747e-09 0
2.31743e-09 6.25014e-10 0
1.66233e-09 1.66579e-09 0
2.21204e-09 6.8335e-09 0
1.77869e-09 6.44896e-09 0
3.20679e-10 5.95253e-09 0
1.42217e-09 6.74893e-09 0
-1.26891e-07 0.000518685 0
6.20726e-09 -8.21036e-09 0
6.618e-09 -1.36355e-08 0
8.62559e-09 -1.17796e-08 0
0.000418772 -0.00024139 0
1.05215e-08 -1.66795e-08 0
0.000380355 -0.000291703 0
3.96942e-09 -2.9535e-09 0
4.81434e-09 -5.20716e-09 0
3.19063e-09 -1.91713e-09 0
1.30191e-09 5.96934e-09 0
9.97818e-10 5.5742e-09 0
2.32305e-09 -3.71124e-10 0
9.59463e-10 2.61157e-09 0
7.46784e-10 4.18411e-09 0
1.2724e-09 8.91279e-10 0
1.65766e-09 6.59661e-09 0
1.30685e-09 6.21e-09 0
8.36832e-10 4.92019e-09 0
1.21577e-09 5.81796e-09 0
-6.72051e-05 0.000514689 0
6.68721e-09 -7.57899e-09 0
1.21315e-08 -1.48975e-08 0
1.01971e-08 -1.12516e-08 0
1.58686e-08 -9.58459e-09 0
1.58312e-08 -1.39154e-08 0
0.000365199 -0.000365058 0
1.66163e-08 -4.75251e-09 0
0.000307826 -0.000400584 0
2.64831e-09 -1.15581e-09 0
4.36197e-09 -4.19325e-09 0
3.72876e-09 -2.71978e-09 0
6.91294e-10 5.5033e-09 0
3.45438e-09 2.14785e-09 0
4.0567e-10 3.89989e-09 0
1.7795e-09 1.93223e-10 0
2.05689e-09 -4.18239e-10 0
6.57232e-10 2.29566e-09 0
1.03955e-09 1.248e-09 0
8.77489e-10 5.09291e-09 0
4.82905e-10 4.9203e-09 0
4.50555e-10 3.295e-09 0
-0.000135665 0.000506594 0
6.8623e-09 -6.51782e-09 0
1.28848e-08 -1.17239e-08 0
1.85009e-08 -1.03673e-08 0
1.6436e-08 -1.16012e-08 0
1.55783e-08 4.42894e-09 0
1.7362e-08 -5.311e-09 0
0.000258178 -0.000448273 0
5.04917e-09 -2.60806e-12 0
2.68297e-09 -1.42208e-09 0
4.92558e-09 -4.28367e-09 0
3.71172e-09 -2.70544e-09 0
5.63986e-09 -4.7088e-09 0
0.000198336 -0.000479354 0
-4.47489e-09 -1.59045e-09 0
-2.32056e-10 4.08013e-09 0
-1.67973e-09 2.1398e-09 0
-1.30524e-09 3.31655e-09 0
1.73356e-09 -4.32609e-10 0
1.30634e-09 5.5037e-10 0
4.43773e-10 2.07814e-09 0
7.80085e-10 1.44872e-09 0
-6.89059e-11 3.31429e-09 0
3.15846e-11 2.46388e-09 0
-0.000200196 0.000481915 0
9.03513e-09 -6.53014e-09 0
1.53555e-08 -8.53408e-09 0
1.28142e-08 -2.93964e-09 0
1.40803e-08 -6.20307e-09 0
3.82372e-09 -5.26884e-09 0
7.81534e-09 -4.23057e-09 0
1.64983e-10 -1.13871e-08 0
1.83225e-09 -8.65521e-10 0
1.14484e-09 1.10153e-10 0
2.55081e-09 -1.7203e-09 0
4.26736e-09 -3.39471e-09 0
5.66515e-09 -4.02768e-09 0
4.96255e-09 -3.92912e-09 0
1.7872e-09 -1.40091e-09 0
0.000140151 -0.000523386 0
-5.29598e-09 2.08555e-09 0
-4.14127e-09 1.7778e-09 0
-1.39023e-09 2.95719e-09 0
-2.95803e-09 2.86802e-09 0
6.93289e-10 8.52068e-10 0
1.63451e-10 1.87197e-09 0
-8.40619e-10 2.6031e-09 0
-3.84087e-10 2.15309e-09 0
4.85459e-10 1.00321e-09 0
-0.000251909 0.000438226 0
7.69836e-09 -4.29331e-09 0
9.41767e-09 -4.47588e-09 0
4.08915e-09 -7.54748e-09 0
6.08835e-09 -4.9935e-09 0
5.50579e-10 -1.45516e-08 0
1.61293e-09 -1.08147e-08 0
4.47605e-09 -3.44473e-09 0
1.50423e-10 7.49802e-10 0
7.02176e-10 -3.31393e-10 0
2.89811e-09 -2.42549e-09 0
4.1106e-09 -3.43115e-09 0
3.11688e-09 -3.53599e-09 0
1.56562e-09 -1.76458e-09 0
4.71557e-10 -8.91691e-10 0
-5.41378e-10 -1.62311e-08 0
6.60186e-05 -0.000501954 0
-2.12051e-09 2.5401e-09 0
-4.7015e-09 2.16432e-09 0
-4.58933e-09 2.98098e-09 0
-3.06889e-09 2.74984e-09 0
-6.97424e-09 1.96822e-09 0
-3.48298e-10 1.56773e-09 0
-1.3501e-09 2.25365e-09 0
-7.97041e-10 1.18503e-09 0
-2.71536e-09 2.91839e-09 0
-1.03673e-08 -5.52074e-09 0
-0.000296612 0.000386917 0
4.18065e-09 -3.4154e-09 0
3.11465e-09 -6.08449e-09 0
3.88805e-10 -1.33855e-08 0
1.26152e-09 -8.78715e-09 0
1.05689e-09 -1.31248e-08 0
2.56946e-09 -3.66419e-09 0
-5.9167e-10 2.10465e-10 0
1.89204e-09 -2.42965e-09 0
1.60537e-09 -3.32638e-09 0
5.65744e-10 -1.64056e-09 0
-7.26615e-10 -5.01355e-10 0
6.00278e-09 -1.24116e-08 0
1.71296e-08 -0.000505707 0
-3.79219e-09 2.71321e-09 0
-5.75357e-09 3.25183e-09 0
-4.80814e-09 2.95279e-09 0
-1.09141e-08 2.91067e-09 0
-7.73087e-09 3.65784e-09 0
-1.5209e-09 1.58329e-09 0
-2.35139e-09 2.04247e-09 0
-1.75019e-09 1.12008e-09 0
-3.43055e-09 2.52143e-09 0
-4.78016e-09 3.21565e-09 0
-1.16981e-08 6.02699e-09 0
-1.28479e-08 3.81726e-09 0
-0.000365985 0.000364805 0
1.54765e-09 -4.60487e-09 0
5.35278e-10 -8.90338e-09 0
9.07137e-10 -1.06862e-08 0
-3.01725e-11 -9.71248e-09 0
9.69605e-10 -4.04677e-09 0
1.71299e-10 -3.4888e-09 0
-1.82375e-09 6.29013e-10 0
2.16923e-10 -2.2745e-09 0
-5.0137e-10 -1.51853e-09 0
-2.1424e-09 -2.19062e-11 0
-1.5873e-09 -9.45555e-10 0
-6.22562e-12 -7.73463e-09 0
1.5277e-09 -6.58603e-09 0
-6.74684e-05 -0.000513508 0
-5.60822e-09 3.21308e-09 0
-9.08724e-09 4.67819e-09 0
-1.07784e-08 6.37949e-09 0
-5.35029e-09 3.0976e-09 0
-2.70219e-09 1.42486e-09 0
-4.25675e-09 2.3263e-09 0
-1.21861e-08 6.93858e-09 0
-9.26115e-09 7.49496e-09 0
-0.000396428 0.000304938 0
4.20997e-11 -5.16052e-09 0
-6.59483e-10 -7.78235e-09 0
-1.40636e-09 -7.22773e-09 0
-4.93657e-10 -3.7507e-09 0
-9.61216e-10 -2.94176e-09 0
-3.12559e-09 9.95494e-10 0
-3.53413e-09 2.62749e-10 0
-1.41119e-09 -1.79733e-09 0
-2.71159e-09 -8.18163e-10 0
-1.03624e-09 -6.09532e-09 0
2.24284e-09 -4.03616e-09 0
-0.000132669 -0.000495764 0
-6.68776e-09 3.90288e-09 0
-9.65154e-09 5.82592e-09 0
-5.10392e-09 2.60019e-09 0
-4.01788e-09 1.53816e-09 0
-9.09753e-09 5.78054e-09 0
-1.15716e-08 7.73562e-09 0
-1.3083e-08 3.50694e-09 0
-0.000455346 0.000262035 0
-1.0409e-09 -4.29243e-09 0
-1.85332e-09 -5.51797e-09 0
-1.52955e-09 -3.03149e-09 0
-2.01431e-09 -2.56814e-09 0
-4.07058e-09 9.34013e-10 0
-3.86232e-09 2.6632e-11 0
-2.74505e-09 -1.71935e-09 0
-3.58953e-09 -8.82937e-10 0
-3.12219e-09 -4.6695e-09 0
-1.50571e-09 -4.6633e-09 0
-1.92741e-09 -2.78221e-09 0
-0.000181457 -0.000437578 0
-5.84146e-09 3.25759e-09 0
-4.42776e-09 1.82556e-09 0
-6.25783e-09 4.38428e-09 0
-8.3298e-09 8.12397e-09 0
-1.00046e-08 1.22858e-08 0
-0.000471037 0.000194926 0
-2.1967e-09 -3.09554e-09 0