# vtk DataFile Version 2.0
CellBP Time: 1.44
ASCII
DATASET UNSTRUCTURED_GRID
POINTS 296 double
-9.18622 -3.77577 0
-8.60785 -4.94861 0
-9.60659 -2.53747 0
-9.86171 -1.2549 0
-8.35806 -2.81887 0
-7.88134 -6.03592 0
-7.01911 -7.01911 0
-7.9177 -3.87494 0
-7.34311 -4.86814 0
-6.03594 -7.88135 0
-4.94862 -8.60785 0
-9.94725 0.0500003 0
-9.86173 1.3549 0
-8.65817 -1.68403 0
-8.78681 -0.529655 0
-7.59019 -2.00427 0
-7.22622 -2.90667 0
-6.63807 -5.77925 0
-5.82279 -6.59733 0
-6.79073 -3.88917 0
-6.22101 -4.67624 0
-3.77577 -9.18621 0
-2.53748 -9.60656 0
-4.9068 -7.30929 0
-3.91327 -7.88676 0
-8.79327 0.643435 0
-9.60661 2.63749 0
-8.62379 1.77418 0
-9.18625 3.87579 0
-7.74481 -0.929039 0
-7.79503 0.0802594 0
-6.95302 -1.31596 0
-1.2549 -9.86171 0
-6.44191 -2.15326 0
-6.31981 -3.05633 0
-5.53693 -5.47496 0
-4.79625 -6.11591 0
-5.65942 -3.75726 0
-5.26977 -4.56191 0
-2.86636 -8.3645 0
-1.77868 -8.64083 0
-3.92842 -6.72404 0
-3.05684 -7.15313 0
0.0499999 -9.94725 0
-7.70604 1.14359 0
-8.33912 2.91561 0
-7.55244 2.11211 0
-8.60792 5.04866 0
-7.8806 3.9785 0
-7.88135 6.13595 0
-6.77917 -0.396882 0
-6.95704 0.552581 0
-5.77177 -1.00347 0
-0.590878 -8.81033 0
0.565721 -8.77152 0
-5.30346 -2.48043 0
-4.49229 -5.0961 0
-3.90279 -5.77575 0
-4.4392 -3.805 0
-2.06257 -7.56253 0
-1.13557 -7.78645 0
-2.99477 -6.10252 0
-2.3092 -6.6203 0
1.3549 -9.86174 0
-6.68995 1.42215 0
-7.17274 3.11836 0
-6.65977 2.37319 0
-7.29528 4.98903 0
-6.71863 4.00338 0
-7.01914 7.11915 0
-6.57301 5.89461 0
-6.03594 7.98136 0
-4.45338 -1.18114 0
-5.81499 0.513792 0
-4.65644 -0.0103823 0
0.00852172 -7.84875 0
1.7387 -8.6445 0
0.949042 -7.7641 0
-4.03876 -2.40653 0
-3.48576 -1.39128 0
-3.29473 -4.80567 0
-3.26607 -3.26799 0
-1.37869 -6.676 0
-0.508782 -7.02553 0
-1.97569 -5.53743 0
2.63747 -9.60659 0
-5.50773 2.03707 0
-6.09523 3.07247 0
-6.10565 4.87008 0
-5.76225 3.99184 0
-5.76182 6.71776 0
-5.45266 5.61992 0
-4.94863 8.70789 0
-4.83893 7.40528 0
-3.50171 -0.42433 0
-4.4496 1.24912 0
-3.7117 0.59211 0
-4.06245 2.31997 0
-3.77578 9.28626 0
2.86287 -8.33364 0
0.419726 -6.79606 0
2.02222 -7.52659 0
1.30621 -6.90625 0
-2.44481 -0.873866 0
-2.83856 -2.13127 0
-2.29456 -4.09766 0
-2.3258 -2.97379 0
-0.442421 -5.86165 0
-1.22281 -4.49946 0
3.87579 -9.18627 0
-4.7902 3.39208 0
-5.08845 4.59461 0
-4.64768 6.28212 0
-4.53935 5.3603 0
-3.84415 7.99422 0
-3.82718 6.84649 0
-2.78361 8.42377 0
-1.64915 -0.137908 0
-1.45035 -0.890641 0
-2.48927 0.507287 0
-3.25384 1.44425 0
-3.23927 3.31681 0
-2.91118 2.37193 0
-1.35519 0.627143 0
-2.53748 9.70661 0
3.93313 -7.88785 0
2.96488 -7.15856 0
0.954178 -5.82257 0
2.07457 -6.41623 0
-1.68307 -1.99218 0
-1.43453 -3.278 0
0.0902259 -4.74737 0
-0.566214 -3.69469 0
4.93271 -7.31965 0
5.04864 -8.6079 0
-3.7773 4.55205 0
-3.73518 5.7528 0
-2.88832 7.29075 0
-3.01005 6.35448 0
-1.66275 8.7347 0
-1.94035 7.6203 0
-2.33857 4.05201 0
-0.730774 -1.32733 0
-0.836947 -0.257641 0
-1.93633 1.68088 0
-2.12592 2.87605 0
-1.30667 3.54496 0
-0.869512 1.35091 0
-0.282383 0.456074 0
-0.533584 8.87278 0
-1.2549 9.96173 0
1.11288 -4.575 0
3.91063 -6.71816 0
2.98828 -6.09552 0
2.11808 -5.42554 0
4.78507 -6.20619 0
-0.558888 -2.47698 0
0.495147 -3.4641 0
0.0535557 -1.61058 0
1.48202 -3.68247 0
5.86795 -6.61555 0
6.13594 -7.88136 0
-2.47594 5.34905 0
-2.13072 6.53528 0
-0.904193 7.80436 0
-1.27251 6.93297 0
0.0862155 7.88148 0
-1.14456 4.49512 0
0.150329 -0.617681 0
-0.797481 2.48867 0
-0.331675 3.60102 0
0.0631095 1.51282 0
0.741481 0.473449 0
0.646873 8.87547 0
0.05 10.0473 0
2.38125 -4.28568 0
3.8597 -5.64122 0
3.00183 -5.21341 0
5.57461 -5.49266 0
4.69171 -5.28383 0
0.629717 -2.29352 0
1.25628 -2.95146 0
0.757547 -1.39154 0
2.16454 -3.13611 0
2.9941 -3.47696 0
6.15617 -4.79257 0
6.65662 -5.77021 0
7.11915 -7.01916 0
-1.01975 5.82105 0
-0.372671 6.88459 0
1.12281 7.77081 0
0.558059 7.08089 0
-0.000765342 4.72568 0
0.607058 3.82819 0
1.33901 -0.641938 0
0.53914 2.65126 0
0.966151 1.57505 0
1.91034 0.213883 0
1.61489 1.06511 0
2.12977 7.5849 0
1.79951 8.71385 0
1.3549 9.96174 0
3.82334 -4.35219 0
5.11741 -4.44975 0
5.84675 -3.93582 0
3.78447 -3.20146 0
1.81244 -1.88278 0
3.01949 -2.57417 0
6.78463 -3.9486 0
7.38278 -4.89768 0
7.98138 -6.03597 0
0.483426 5.88238 0
1.42842 6.74309 0
2.37478 6.67033 0
1.21013 4.55675 0
1.48834 3.39801 0
2.43604 -0.692088 0
2.82836 0.14262 0
1.78907 2.16306 0
2.61217 1.15027 0
3.07264 7.17156 0
2.90479 8.37846 0
2.6375 9.70663 0
4.91207 -3.32842 0
6.12187 -3.10927 0
4.17346 -2.27557 0
3.24484 -1.50308 0
6.73275 -2.31351 0
7.23362 -3.04319 0
7.96658 -3.91307 0
8.70787 -4.94863 0
2.02396 5.60078 0
3.08717 6.15493 0
2.36426 4.12752 0
2.4204 3.06129 0
3.52616 -0.460918 0
3.61621 0.613373 0
2.96224 2.28839 0
3.54611 1.52549 0
4.01318 5.8996 0
3.98553 6.79499 0
3.97434 7.94077 0
3.87581 9.2863 0
5.56994 -1.91653 0
4.50997 -1.12978 0
6.71566 -1.33644 0
7.59461 -2.03696 0
8.39943 -2.86212 0
9.28627 -3.77579 0
3.41987 4.87808 0
3.3396 3.38598 0
4.69211 0.130099 0
4.52001 1.31021 0
4.06608 2.44426 0
4.57198 5.15405 0
4.84528 6.19282 0
4.98202 7.38279 0
5.04865 8.7079 0
5.88495 -0.435004 0
7.01312 -0.488391 0
7.76211 -1.08563 0
8.68761 -1.74648 0
9.70662 -2.53749 0
4.55368 3.82861 0
5.81939 1.09889 0
5.37279 2.53565 0
5.3821 4.62232 0
5.61431 5.52565 0
5.89935 6.67434 0
6.13593 7.98134 0
6.84862 0.463702 0
7.85636 -0.0256463 0
8.86366 -0.584548 0
9.96176 -1.25491 0
6.96328 1.34998 0
5.72336 3.77995 0
6.54409 2.19837 0
6.38288 3.08927 0
6.29515 4.68899 0
6.69581 5.8402 0
7.11915 7.11915 0
7.78765 0.968013 0
8.86301 0.572976 0
10.0472 0.0499998 0
7.61956 2.00517 0
6.83226 3.90602 0
7.27283 2.94811 0
7.38147 4.88785 0
7.98141 6.13598 0
8.72661 1.72762 0
9.96175 1.35491 0
8.42453 2.83896 0
7.98502 3.91796 0
8.70791 5.04865 0
9.70663 2.63748 0
9.28629 3.87579 0
CELLS 542 2168
3 2 0 4
3 0 1 7
3 4 0 7
3 1 5 8
3 7 1 8
3 3 2 13
3 13 2 4
3 11 3 14
3 14 3 13
3 13 4 15
3 4 7 16
3 15 4 16
3 5 6 17
3 8 5 17
3 6 9 18
3 17 6 18
3 7 8 19
3 16 7 19
3 8 17 20
3 19 8 20
3 9 10 23
3 18 9 23
3 10 21 24
3 23 10 24
3 12 11 25
3 25 11 14
3 26 12 27
3 27 12 25
3 14 13 29
3 29 13 15
3 25 14 30
3 30 14 29
3 29 15 31
3 15 16 33
3 31 15 33
3 16 19 34
3 33 16 34
3 17 18 35
3 20 17 35
3 18 23 36
3 35 18 36
3 19 20 37
3 34 19 37
3 20 35 38
3 37 20 38
3 21 22 39
3 24 21 39
3 22 32 40
3 39 22 40
3 23 24 41
3 36 23 41
3 24 39 42
3 41 24 42
3 27 25 44
3 44 25 30
3 28 26 45
3 45 26 27
3 45 27 46
3 46 27 44
3 47 28 48
3 48 28 45
3 30 29 50
3 50 29 31
3 44 30 51
3 51 30 50
3 50 31 52
3 31 33 52
3 32 43 53
3 40 32 53
3 53 43 54
3 33 34 55
3 34 37 55
3 33 55 52
3 35 36 56
3 38 35 56
3 36 41 57
3 56 36 57
3 37 38 58
3 38 56 58
3 37 58 55
3 39 40 59
3 42 39 59
3 40 53 60
3 59 40 60
3 41 42 61
3 57 41 61
3 42 59 62
3 61 42 62
3 43 63 54
3 46 44 64
3 64 44 51
3 48 45 65
3 65 45 46
3 65 46 66
3 66 46 64
3 49 47 67
3 67 47 48
3 67 48 68
3 68 48 65
3 69 49 70
3 70 49 67
3 52 55 72
3 64 51 73
3 51 50 73
3 50 52 73
3 73 52 74
3 74 52 72
3 53 54 75
3 60 53 75
3 54 63 76
3 54 76 77
3 75 54 77
3 55 58 78
3 72 55 78
3 72 78 79
3 56 57 80
3 57 61 80
3 56 80 58
3 58 80 81
3 78 58 81
3 59 60 82
3 62 59 82
3 60 75 83
3 82 60 83
3 61 62 84
3 62 82 84
3 61 84 80
3 63 85 76
3 66 64 86
3 64 73 86
3 68 65 87
3 87 65 66
3 87 66 86
3 70 67 88
3 88 67 68
3 88 68 89
3 89 68 87
3 71 69 90
3 90 69 70
3 90 70 91
3 91 70 88
3 92 71 93
3 93 71 90
3 74 72 94
3 94 72 79
3 86 73 95
3 95 73 74
3 95 74 96
3 96 74 94
3 97 86 95
3 76 85 99
3 75 77 100
3 83 75 100
3 76 99 101
3 77 76 101
3 77 101 102
3 100 77 102
3 94 79 103
3 78 81 104
3 79 78 104
3 79 104 103
3 80 84 105
3 81 80 105
3 81 105 106
3 104 81 106
3 82 83 107
3 83 100 107
3 82 107 84
3 84 107 108
3 105 84 108
3 85 109 99
3 89 87 110
3 87 86 110
3 110 86 97
3 91 88 111
3 111 88 89
3 111 89 110
3 93 90 112
3 112 90 91
3 112 91 113
3 113 91 111
3 98 92 114
3 114 92 93
3 114 93 115
3 115 93 112
3 116 98 114
3 117 103 118
3 96 94 119
3 94 103 119
3 119 103 117
3 97 95 120
3 120 95 96
3 120 96 119
3 121 110 97
3 121 97 122
3 122 97 120
3 123 119 117
3 124 98 116
3 99 109 125
3 99 125 126
3 101 99 126
3 100 102 127
3 100 127 107
3 101 126 128
3 102 101 128
3 102 128 127
3 104 106 129
3 104 129 103
3 103 129 118
3 105 108 130
3 106 105 130
3 106 130 129
3 107 127 131
3 108 107 131
3 108 131 132
3 108 132 130
3 109 134 125
3 125 134 133
3 113 111 135
3 111 110 135
3 135 110 121
3 115 112 136
3 136 112 113
3 136 113 135
3 116 114 137
3 137 114 115
3 137 115 138
3 138 115 136
3 139 124 116
3 139 116 140
3 140 116 137
3 141 135 121
3 118 129 142
3 118 142 143
3 117 118 143
3 123 117 143
3 122 120 144
3 120 119 144
3 144 119 123
3 141 121 145
3 145 121 122
3 145 122 144
3 146 141 145
3 147 144 123
3 147 123 148
3 143 148 123
3 150 124 139
3 149 150 139
3 131 127 151
3 125 133 152
3 126 125 152
3 126 152 153
3 128 126 153
3 128 153 154
3 128 154 127
3 127 154 151
3 152 133 155
3 130 132 156
3 130 156 129
3 129 156 142
3 131 151 157
3 132 131 157
3 132 157 156
3 156 158 142
3 157 151 159
3 133 160 155
3 134 161 133
3 133 161 160
3 138 136 162
3 136 135 162
3 162 135 141
3 140 137 163
3 163 137 138
3 163 138 162
3 149 139 164
3 164 139 140
3 164 140 165
3 165 140 163
3 166 149 164
3 167 162 141
3 167 141 146
3 142 158 168
3 143 142 168
3 143 168 148
3 146 145 169
3 145 144 169
3 169 144 147
3 170 167 146
3 170 146 169
3 171 169 147
3 171 147 148
3 171 148 172
3 168 172 148
3 173 149 166
3 174 150 149
3 173 174 149
3 154 175 151
3 151 175 159
3 152 155 176
3 153 152 176
3 153 176 177
3 153 177 154
3 154 177 175
3 155 160 178
3 155 178 179
3 176 155 179
3 156 157 180
3 156 180 158
3 157 159 181
3 157 181 180
3 158 180 182
3 158 182 168
3 159 175 183
3 159 183 181
3 175 184 183
3 160 186 178
3 178 186 185
3 161 187 160
3 160 187 186
3 165 163 188
3 163 162 188
3 188 162 167
3 166 164 189
3 189 164 165
3 189 165 188
3 190 173 166
3 190 166 191
3 191 166 189
3 192 188 167
3 192 167 170
3 193 192 170
3 182 194 168
3 194 172 168
3 193 170 195
3 170 169 195
3 195 169 171
3 196 195 171
3 196 171 172
3 194 197 172
3 197 198 172
3 198 196 172
3 200 173 190
3 199 200 190
3 201 174 173
3 200 201 173
3 176 179 202
3 177 176 202
3 177 202 175
3 175 202 184
3 178 185 203
3 178 203 179
3 179 203 202
3 203 185 204
3 202 205 184
3 183 206 181
3 180 181 206
3 180 206 182
3 182 206 194
3 183 184 207
3 205 207 184
3 183 207 206
3 185 208 204
3 186 209 185
3 185 209 208
3 187 210 186
3 186 210 209
3 191 189 211
3 189 188 211
3 211 188 192
3 199 190 212
3 212 190 191
3 212 191 211
3 213 199 212
3 214 211 192
3 214 192 193
3 215 214 193
3 215 193 195
3 206 216 194
3 216 197 194
3 216 217 197
3 215 195 218
3 218 195 196
3 198 218 196
3 217 219 197
3 219 218 198
3 197 219 198
3 220 199 213
3 221 200 199
3 220 221 199
3 222 201 200
3 221 222 200
3 203 204 223
3 203 223 202
3 202 223 205
3 204 208 224
3 204 224 223
3 205 223 225
3 205 225 207
3 207 225 226
3 207 226 206
3 226 216 206
3 208 228 224
3 224 228 227
3 209 229 208
3 229 228 208
3 210 230 209
3 209 230 229
3 213 212 231
3 212 211 231
3 231 211 214
3 232 220 213
3 232 213 231
3 233 231 214
3 233 214 215
3 234 233 215
3 234 215 218
3 226 235 216
3 235 217 216
3 235 236 217
3 217 236 219
3 237 234 218
3 237 218 219
3 236 238 219
3 238 237 219
3 240 220 232
3 239 240 232
3 241 221 220
3 240 241 220
3 242 222 221
3 241 242 221
3 224 227 243
3 224 243 223
3 223 243 225
3 225 243 244
3 225 244 226
3 226 244 235
3 227 245 243
3 228 246 227
3 227 246 245
3 229 247 228
3 228 247 246
3 230 248 229
3 229 248 247
3 239 232 249
3 232 231 249
3 249 231 233
3 250 249 233
3 250 233 234
3 237 250 234
3 244 251 235
3 235 251 236
3 251 252 236
3 236 252 238
3 252 253 238
3 253 250 237
3 253 237 238
3 254 239 249
3 255 240 239
3 254 255 239
3 256 241 240
3 255 256 240
3 257 242 241
3 256 257 241
3 245 258 243
3 243 258 244
3 244 258 251
3 245 259 258
3 246 260 245
3 245 260 259
3 247 261 246
3 246 261 260
3 248 262 247
3 247 262 261
3 254 249 263
3 263 249 250
3 253 263 250
3 258 264 251
3 251 264 252
3 264 265 252
3 265 263 253
3 252 265 253
3 266 254 263
3 267 255 254
3 266 267 254
3 268 256 255
3 267 268 255
3 269 257 256
3 268 269 256
3 259 270 258
3 270 264 258
3 260 271 259
3 259 271 270
3 261 272 260
3 260 272 271
3 262 273 261
3 273 272 261
3 270 274 264
3 275 266 263
3 275 263 265
3 274 276 264
3 276 265 264
3 276 277 265
3 277 275 265
3 278 267 266
3 275 278 266
3 279 268 267
3 278 279 267
3 280 269 268
3 279 280 268
3 271 281 270
3 270 281 274
3 272 282 271
3 271 282 281
3 273 283 272
3 272 283 282
3 281 284 274
3 274 284 276
3 285 278 275
3 277 285 275
3 284 286 276
3 286 285 277
3 276 286 277
3 287 279 278
3 285 287 278
3 288 280 279
3 287 288 279
3 282 289 281
3 281 289 284
3 283 290 282
3 282 290 289
3 289 291 284
3 284 291 286
3 291 292 286
3 292 287 285
3 286 292 285
3 293 288 287
3 292 293 287
3 290 294 289
3 289 294 291
3 294 295 291
3 295 293 292
3 291 295 292
CELL_TYPES 542
5
5
5
5
5
5
5
5
5
5
5
5
5
5
5
5
5
5
5
5
5
5
5
5
5
5
5
5
5
5
5
5
5
5
5
5
5
5
5
5
5
5
5
5
5
5
5
5
5
5
5
5
5
5
5
5
5
5
5
5
5
5
5
5
5
5
5
5
5
5
5
5
5
5
5
5
5
5
5
5
5
5
5
5
5
5
5
5
5
5
5
5
5
5
5
5
5
5
5
5
5
5
5
5
5
5
5
5
5
5
5
5
5
5
5
5
5
5
5
5
5
5
5
5
5
5
5
5
5
5
5
5
5
5
5
5
5
5
5
5
5
5
5
5
5
5
5
5
5
5
5
5
5
5
5
5
5
5
5
5
5
5
5
5
5
5
5
5
5
5
5
5
5
5
5
5
5
5
5
5
5
5
5
5
5
5
5
5
5
5
5
5
5
5
5
5
5
5
5
5
5
5
5
5
5
5
5
5
5
5
5
5
5
5
5
5
5
5
5
5
5
5
5
5
5
5
5
5
5
5
5
5
5
5
5
5
5
5
5
5
5
5
5
5
5
5
5
5
5
5
5
5
5
5
5
5
5
5
5
5
5
5
5
5
5
5
5
5
5
5
5
5
5
5
5
5
5
5
5
5
5
5
5
5
5
5
5
5
5
5
5
5
5
5
5
5
5
5
5
5
5
5
5
5
5
5
5
5
5
5
5
5
5
5
5
5
5
5
5
5
5
5
5
5
5
5
5
5
5
5
5
5
5
5
5
5
5
5
5
5
5
5
5
5
5
5
5
5
5
5
5
5
5
5
5
5
5
5
5
5
5
5
5
5
5
5
5
5
5
5
5
5
5
5
5
5
5
5
5
5
5
5
5
5
5
5
5
5
5
5
5
5
5
5
5
5
5
5
5
5
5
5
5
5
5
5
5
5
5
5
5
5
5
5
5
5
5
5
5
5
5
5
5
5
5
5
5
5
5
5
5
5
5
5
5
5
5
5
5
5
5
5
5
5
5
5
5
5
5
5
5
5
5
5
5
5
5
5
5
5
5
5
5
5
5
5
5
5
5
5
5
5
5
5
5
5
5
5
5
5
5
5
5
5
5
5
5
5
5
5
5
5
5
5
5
5
5
5
5
5
5
5
5
5
5
5
5
5
5
5
5
5
5
5
5
5
5
5
5
5
5
5
5
5
5
5
5
5
5
5
5
5
5
5
5
5
5
5
5
5
5
5
POINT_DATA 296
SCALARS concentrations float 4
LOOKUP_TABLE default
0 0.999452 0.190482 14.1266
0 0.999451 0.190246 13.9278
0 0.999452 0.18973 13.8276
0 0.999452 0.189058 13.7762
0 0.999452 0.0908771 0.000278975
0 0.999451 0.189805 13.9432
0 0.999451 0.18942 14.0022
0 0.999452 0.0908773 0.000295772
0 0.999451 0.0908772 0.000197766
0 0.99945 0.189247 13.3501
0 0.999451 0.189624 14.0546
0 0.999452 0.188262 13.96
0 0.999452 0.188487 13.6736
0 0.999452 0.0908774 0.00035182
0 0.999453 0.0908772 0.000354491
0 0.999452 0.0908773 0.000310858
0 0.999452 0.0908773 0.000276218
0 0.999451 0.0908773 0.000192578
0 0.999451 0.0908778 0.000149817
0 0.999452 0.0908773 0.000246808
0 0.999452 0.0908773 0.000206208
0 0.999451 0.190747 14.2272
0 0.999451 0.191634 14.0556
0 0.999451 0.0908778 0.000121911
0 0.999451 0.0908772 0.000168077
0 0.999452 0.0908775 0.000262321
0 0.999453 0.187853 13.7678
0 0.999453 0.0908776 0.000263051
0 0.999453 0.188479 13.9733
0 0.999453 0.0908773 0.000335443
0 0.999453 0.0908773 0.000323043
0 0.999453 0.0908771 0.000266452
0 0.999451 0.189239 13.8664
0 0.999453 0.090877 0.000225853
0 0.999452 0.0908771 0.000223162
0 0.999452 0.0908774 0.000159976
0 0.999451 0.0908773 0.000120317
0 0.999452 0.0908771 0.000187464
0 0.999452 0.0908772 0.000176996
0 0.999451 0.0908772 0.000179158
0 0.999451 0.0908771 0.000205712
0 0.999451 0.0908773 0.00014055
0 0.999452 0.0908772 0.000180511
0 0.999451 0.188596 13.724
0 0.999453 0.0908775 0.000333373
0 0.999453 0.0908781 0.000291581
0 0.999453 0.0908779 0.000370188
0 0.999453 0.187426 11.9683
0 0.999453 0.0908802 0.000245936
0 0.999453 0.18744 14.0228
0 0.999453 0.0908771 0.000269916
0 0.999453 0.0908772 0.000300147
0 0.999453 0.0908767 0.00018269
0 0.999451 0.0908771 0.000191419
0 0.999451 0.0908772 0.000207534
0 0.999453 0.0908767 0.000151207
0 0.999452 0.0908771 0.000149397
0 0.999452 0.0908771 0.000146988
0 0.999453 0.0908768 0.000130035
0 0.999452 0.0908772 0.000192144
0 0.999452 0.0908772 0.000194491
0 0.999452 0.0908771 0.000156237
0 0.999452 0.0908771 0.000174949
0 0.999451 0.187321 13.6442
0 0.999453 0.0908773 0.000319726
0 0.999453 0.0908786 0.000392683
0 0.999453 0.0908777 0.000387064
0 0.999453 0.0908797 0.000206214
0 0.999453 0.0908787 0.00037194
0 0.999452 0.187263 13.1259
0 0.999453 0.0908779 0.000244853
0 0.999451 0.187244 13.9195
0 0.999453 0.0908766 0.00014653
0 0.999453 0.0908768 0.000221846
0 0.999453 0.0908767 0.000179861
0 0.999452 0.0908772 0.000180394
0 0.999451 0.0908776 0.000200527
0 0.999451 0.0908772 0.000141601
0 0.999453 0.0908766 0.000122635
0 0.999453 0.0908766 0.000125213
0 0.999452 0.0908767 0.000119467
0 0.999453 0.0908766 0.000111062
0 0.999452 0.090877 0.00015773
0 0.999452 0.090877 0.000153759
0 0.999452 0.0908767 0.000121319
0 0.99945 0.187674 14.2871
0 0.999453 0.090877 0.000262681
0 0.999453 0.0908778 0.000390365
0 0.999453 0.0908785 0.000351468
0 0.999453 0.090878 0.000400791
0 0.999452 0.0908787 0.000339776
0 0.999453 0.090878 0.000278765
0 0.999451 0.187316 13.7354
0 0.999451 0.0908775 0.000125454
0 0.999453 0.0908766 0.000140563
0 0.999453 0.0908767 0.000213057
0 0.999453 0.0908766 0.000175328
0 0.999453 0.0908768 0.000219648
0 0.999451 0.18784 13.7968
0 0.999451 0.090878 0.000108422
0 0.999452 0.090877 0.000129015
0 0.999451 0.0908773 7.18354e-05
0 0.999452 0.0908771 9.84404e-05
0 0.999453 0.0908765 0.000105099
0 0.999453 0.0908765 0.000105192
0 0.999453 0.0908766 0.000106396
0 0.999453 0.0908766 0.000103379
0 0.999452 0.0908768 0.000112808
0 0.999453 0.0908766 0.000100868
0 0.999451 0.18727 13.7597
0 0.999453 0.090877 0.000266371
0 0.999453 0.0908777 0.000334278
0 0.999452 0.0908776 0.000167124
0 0.999453 0.0908775 0.000268267
0 0.999452 0.0908771 0.000161261
0 0.999452 0.0908773 0.000140172
0 0.999452 0.0908773 0.00016409
0 0.999453 0.0908764 0.000116156
0 0.999453 0.0908764 9.49059e-05
0 0.999453 0.0908765 0.000132871
0 0.999453 0.0908766 0.000191423
0 0.999453 0.0908767 0.000210219
0 0.999453 0.0908767 0.000213086
0 0.999453 0.0908764 0.000124245
0 0.999452 0.187587 13.8295
0 0.999451 0.0908779 5.93534e-05
0 0.999452 0.0908775 6.55053e-05
0 0.999452 0.0908768 9.39141e-05
0 0.999452 0.0908772 8.30002e-05
0 0.999453 0.0908764 8.60033e-05
0 0.999453 0.0908765 9.30045e-05
0 0.999453 0.0908766 9.32244e-05
0 0.999453 0.0908765 8.56799e-05
0 0.999452 0.0908776 0.000100017
0 0.999451 0.187327 13.1587
0 0.999453 0.0908769 0.000211237
0 0.999453 0.0908772 0.000206313
0 0.999452 0.0908773 0.000204713
0 0.999453 0.0908771 0.000205349
0 0.999452 0.0908779 0.000122491
0 0.999452 0.0908775 0.000226509
0 0.999453 0.0908767 0.000196317
0 0.999453 0.0908764 7.2759e-05
0 0.999453 0.0908763 9.06192e-05
0 0.999453 0.0908765 0.00015567
0 0.999453 0.0908766 0.00019976
0 0.999453 0.0908767 0.000203357
0 0.999453 0.0908764 0.00012934
0 0.999453 0.0908763 9.57594e-05
0 0.999452 0.0908789 0.000126386
0 0.999452 0.188171 13.5547
0 0.999453 0.0908767 8.63321e-05
0 0.999452 0.0908775 9.83173e-05
0 0.999452 0.0908773 0.000103543
0 0.999453 0.0908769 8.9416e-05
0 0.999452 0.0908778 0.000122205
0 0.999453 0.0908764 7.41891e-05
0 0.999453 0.0908765 8.30836e-05
0 0.999453 0.0908764 6.33774e-05
0 0.999453 0.0908767 0.000100463
0 0.999452 0.0908781 6.79889e-05
0 0.999452 0.187297 13.9372
0 0.999453 0.0908768 0.000184117
0 0.999453 0.0908772 0.000235708
0 0.999452 0.090878 0.000253362
0 0.999453 0.0908774 0.000278579
0 0.999452 0.0908781 0.000278066
0 0.999453 0.0908767 0.000192661
0 0.999453 0.0908763 5.60372e-05
0 0.999453 0.0908765 0.000154886
0 0.999453 0.0908767 0.000192129
0 0.999453 0.0908764 0.000117841
0 0.999453 0.0908763 6.92371e-05
0 0.999452 0.0908788 0.00018196
0 0.999452 0.186958 12.6208
0 0.999453 0.0908767 9.86407e-05
0 0.999453 0.0908773 0.000131797
0 0.999453 0.090877 0.000111823
0 0.999453 0.090878 0.000143199
0 0.999453 0.0908775 0.000159567
0 0.999453 0.0908764 6.75176e-05
0 0.999453 0.0908765 7.71605e-05
0 0.999453 0.0908764 4.31805e-05
0 0.999453 0.0908766 9.31668e-05
0 0.999453 0.0908768 0.000123468
0 0.999453 0.0908782 0.000185753
0 0.999452 0.0908787 2.07901e-05
0 0.999452 0.186405 12.9971
0 0.999453 0.0908769 0.000208825
0 0.999453 0.0908775 0.000294534
0 0.999452 0.090878 0.000289744
0 0.999453 0.0908776 0.000314969
0 0.999453 0.0908768 0.000192249
0 0.999453 0.0908767 0.000184732
0 0.999453 0.0908763 2.54223e-05
0 0.999453 0.0908765 0.000140668
0 0.999453 0.0908764 0.000107335
0 0.999453 0.0908764 3.32404e-05
0 0.999453 0.0908764 7.52241e-05
0 0.999452 0.0908777 0.000274568
0 0.999452 0.0908777 0.000207771
0 0.999452 0.187322 13.7575
0 0.999453 0.090877 0.00013102
0 0.999453 0.0908776 0.000193968
0 0.999453 0.0908778 0.000262015
0 0.999453 0.0908769 0.000128172
0 0.999453 0.0908764 4.72106e-05
0 0.999453 0.0908767 9.27808e-05
0 0.999453 0.0908783 0.000317722
0 0.999453 0.090879 0.00022288
0 0.999452 0.186756 12.9425
0 0.999453 0.0908769 0.000214936
0 0.999453 0.0908774 0.000282603
0 0.999452 0.0908775 0.000261451
0 0.999453 0.0908768 0.000172029
0 0.999453 0.0908767 0.000152632
0 0.999453 0.0908765 2.324e-05
0 0.999453 0.0908765 1.08503e-05
0 0.999453 0.0908765 0.000106702
0 0.999453 0.0908765 5.88461e-05
0 0.999452 0.0908777 0.000244097
0 0.999451 0.0908775 0.000220592
0 0.999451 0.186205 13.5191
0 0.999453 0.0908771 0.000170264
0 0.999453 0.0908776 0.000281268
0 0.999453 0.0908768 0.00011867
0 0.999453 0.0908766 6.31954e-05
0 0.999453 0.0908777 0.000319386
0 0.999453 0.0908783 0.000427148
0 0.999454 0.0908788 0.000473193
0 0.999453 0.188209 13.8755
0 0.999453 0.0908769 0.000175537
0 0.999452 0.0908773 0.000183706
0 0.999453 0.0908767 0.000141167
0 0.999453 0.0908767 0.000128154
0 0.999453 0.0908766 4.25352e-05
0 0.999453 0.0908766 2.97359e-05
0 0.999453 0.0908766 9.1984e-05
0 0.999453 0.0908766 5.90311e-05
0 0.999452 0.0908774 0.000120473
0 0.999452 0.0908778 0.000163185
0 0.999451 0.0908777 0.000226588
0 0.999451 0.185354 13.391
0 0.999453 0.090877 0.000166041
0 0.999453 0.0908767 9.6497e-05
0 0.999452 0.0908776 0.000276363
0 0.999452 0.0908782 0.000431983
0 0.999453 0.0908791 0.000545813
0 0.999454 0.188174 13.3142
0 0.999452 0.0908768 0.000111602
0 0.999452 0.0908767 0.000108941
0 0.999452 0.0908767 6.56268e-05
0 0.999452 0.0908766 5.7282e-05
0 0.999452 0.0908766 8.06284e-05
0 0.999452 0.0908772 0.000142327
0 0.999452 0.0908777 0.000154407
0 0.999451 0.0908786 0.000159746
0 0.999451 0.18646 13.4598
0 0.999452 0.090877 0.000137926
0 0.999452 0.0908776 0.000304378
0 0.999451 0.090878 0.000451646
0 0.999452 0.0908781 0.000365215
0 0.999453 0.186909 13.5754
0 0.999452 0.0908768 0.00010913
0 0.999452 0.0908768 9.82796e-05
0 0.999452 0.0908767 0.000102187
0 0.999452 0.0908772 0.000228244
0 0.999452 0.0908777 0.000295199
0 0.999452 0.0908794 0.000534491
0 0.999451 0.186901 14.7725
0 0.999451 0.0908774 0.000245338
0 0.999451 0.0908779 0.000488361
0 0.999451 0.0908784 0.000721233
0 0.999451 0.186287 13.4597
0 0.999451 0.0908774 0.000233999
0 0.999452 0.0908771 0.000216154
0 0.999452 0.0908771 0.000180949
0 0.999452 0.0908772 0.000218471
0 0.999452 0.0908775 0.000353419
0 0.999453 0.0908782 0.00050581
0 0.999453 0.186445 13.1985
0 0.999451 0.0908778 0.000434788
0 0.99945 0.0908784 0.000828108
0 0.99945 0.186689 14.992
0 0.999451 0.0908775 0.000295997
0 0.999452 0.0908773 0.0002976
0 0.999451 0.0908773 0.000263478
0 0.999452 0.0908774 0.00031005
0 0.999453 0.184439 12.9532
0 0.99945 0.0908775 0.000378823
0 0.99945 0.186759 13.5458
0 0.999451 0.0908773 0.000264696
0 0.999451 0.0908772 0.000249194
0 0.999451 0.185432 13.4387
0 0.99945 0.186912 13.6056
0 0.999451 0.186336 13.4368
VECTORS fa_u float
0.000415196 0.000172246 0
0.000383766 0.000221661 0
0.000424977 0.000113968 0
0.00043463 5.70508e-05 0
8.39763e-09 2.87758e-09 0
0.000351773 0.000270372 0
0.00031526 0.000314842 0
9.40133e-09 4.35955e-10 0
5.94816e-09 2.05427e-09 0
0.000258591 0.000337023 0
0.00022335 0.000387448 0
0.000444205 2.88569e-07 0
0.000431363 -5.68469e-05 0
1.07595e-08 -3.09168e-09 0
1.1252e-08 7.92823e-10 0
9.88246e-09 4.22621e-10 0
8.66419e-09 1.47735e-09 0
5.74388e-09 2.1349e-09 0
4.25379e-09 -2.15197e-09 0
7.53591e-09 2.21046e-09 0
6.03009e-09 2.58686e-09 0
0.000173393 0.000418186 0
0.000115889 0.000431973 0
-2.60963e-09 2.8702e-09 0
2.1996e-09 4.87493e-09 0
8.12366e-09 -1.91808e-09 0
0.000423135 -0.000113485 0
6.86578e-09 -4.78773e-09 0
0.000410934 -0.000169788 0
1.05982e-08 -1.26805e-09 0
1.00794e-08 -2.01706e-09 0
8.45514e-09 -6.28614e-10 0
5.77611e-05 0.000437431 0
7.16112e-09 6.0515e-10 0
6.91131e-09 1.63033e-09 0
4.63777e-09 2.09847e-09 0
2.76957e-09 2.64325e-09 0
5.54037e-09 2.21058e-09 0
4.9335e-09 2.71662e-09 0
1.35686e-09 5.53697e-09 0
2.32584e-09 6.1186e-09 0
1.74585e-09 4.11746e-09 0
2.29657e-09 5.26476e-09 0
-1.13072e-07 0.000436697 0
9.62411e-09 -4.46138e-09 0
6.90654e-09 -6.19537e-09 0
9.83894e-09 -6.47674e-09 0
0.000329785 -0.000190454 0
6.58084e-09 -4.23479e-09 0
0.000353792 -0.000271899 0
8.34037e-09 -2.05039e-09 0
8.9683e-09 -3.28395e-09 0
5.69855e-09 -1.14869e-09 0
1.60403e-09 5.87595e-09 0
1.76128e-09 6.36452e-09 0
4.77937e-09 5.54326e-10 0
3.74403e-09 2.92931e-09 0
2.91575e-09 3.65708e-09 0
3.73807e-09 1.77408e-09 0
2.18667e-09 5.70959e-09 0
2.01247e-09 5.85233e-09 0
2.57422e-09 4.2531e-09 0
2.39662e-09 5.02457e-09 0
-5.63848e-05 0.00043048 0
8.90106e-09 -4.92691e-09 0
1.01132e-08 -7.33839e-09 0
1.01752e-08 -6.93956e-09 0
6.13586e-09 -2.32537e-09 0
1.01306e-08 -6.11893e-09 0
0.000295627 -0.00029504 0
7.36466e-09 -2.54257e-09 0
0.000269695 -0.000351342 0
4.62915e-09 -5.57308e-10 0
6.3579e-09 -3.06728e-09 0
5.34722e-09 -2.04005e-09 0
1.71026e-09 5.47943e-09 0
5.5302e-09 3.18287e-09 0
1.98418e-09 4.04534e-09 0
3.82436e-09 7.75712e-10 0
3.98422e-09 2.01538e-11 0
2.77466e-09 2.59848e-09 0
3.07734e-09 1.73757e-09 0
1.91976e-09 4.63728e-09 0
1.54329e-09 4.64282e-09 0
2.05256e-09 3.26945e-09 0
-0.000117787 0.00043909 0
6.89792e-09 -4.72046e-09 0
1.02505e-08 -7.0155e-09 0
1.01431e-08 -4.71082e-09 0
1.09427e-08 -6.54985e-09 0
8.14109e-09 7.1144e-09 0
8.67247e-09 -1.86284e-09 0
0.000218122 -0.000378741 0
-3.88607e-09 -9.13298e-10 0
4.33291e-09 -1.1095e-09 0
5.77163e-09 -3.5566e-09 0
5.02111e-09 -2.43164e-09 0
5.53487e-09 -4.26779e-09 0
0.000168019 -0.000405589 0
-3.37587e-09 -7.11223e-10 0
1.27558e-09 3.90206e-09 0
2.12819e-10 2.27587e-09 0
5.05581e-10 3.09129e-09 0
3.32394e-09 -3.68006e-10 0
3.20884e-09 9.5241e-10 0
2.36727e-09 2.42026e-09 0
2.72696e-09 1.83969e-09 0
1.36795e-09 3.31866e-09 0
1.69728e-09 2.72413e-09 0
-0.000167663 0.000404458 0
6.89257e-09 -4.93291e-09 0
9.28923e-09 -5.18164e-09 0
5.05029e-09 -1.66566e-09 0
7.4473e-09 -4.17189e-09 0
2.60453e-10 -5.1247e-09 0
1.87936e-09 -4.04498e-09 0
1.21037e-09 -5.07912e-09 0
3.52721e-09 -1.10441e-09 0
3.01985e-09 1.60359e-11 0
3.78143e-09 -1.89109e-09 0
5.03472e-09 -3.42819e-09 0
4.94953e-09 -4.49967e-09 0
5.18386e-09 -4.37048e-09 0
3.40835e-09 -2.00324e-09 0
0.000113944 -0.000425045 0
9.73334e-11 1.88611e-09 0
-1.53199e-09 1.41337e-09 0
4.68256e-10 2.95143e-09 0
-7.69056e-10 2.52661e-09 0
2.54196e-09 1.01366e-09 0
2.03779e-09 2.14602e-09 0
9.36305e-10 2.81475e-09 0
1.31547e-09 2.38797e-09 0
-3.03295e-09 -9.64259e-10 0
-0.000209213 0.000362692 0
5.13429e-09 -4.338e-09 0
4.71774e-09 -4.56514e-09 0
1.60902e-09 -6.31209e-09 0
2.9215e-09 -5.84471e-09 0
9.82142e-10 -3.77188e-09 0
1.30512e-09 -7.08836e-09 0
3.93081e-09 -4.85502e-09 0
2.20455e-09 7.07146e-10 0
2.79533e-09 -7.07581e-10 0
3.84062e-09 -3.12827e-09 0
4.38722e-09 -4.59949e-09 0
3.64316e-09 -5.34777e-09 0
3.08071e-09 -2.72898e-09 0
2.51744e-09 -1.7167e-09 0
-1.06112e-10 -4.02021e-09 0
5.64877e-05 -0.000427594 0
6.04891e-11 2.74641e-09 0
-2.50968e-09 1.86781e-09 0
-1.97403e-09 2.6379e-09 0
-6.9716e-10 2.75847e-09 0
-3.22615e-09 2.17089e-09 0
1.60191e-09 1.734e-09 0
7.9216e-10 2.52224e-09 0
1.64006e-09 1.17351e-09 0
-2.03762e-10 3.19023e-09 0
-1.30131e-09 1.72827e-09 0
-0.000269883 0.000351907 0
3.11414e-09 -4.96237e-09 0
2.27933e-09 -7.14548e-09 0
1.17268e-09 -7.97623e-09 0
1.86708e-09 -8.66551e-09 0
1.93616e-09 -8.63361e-09 0
3.05758e-09 -5.31353e-09 0
1.77208e-09 -1.97957e-10 0
3.15504e-09 -3.78619e-09 0
3.12926e-09 -5.25195e-09 0
2.53509e-09 -2.76289e-09 0
1.74496e-09 -1.34493e-09 0
2.53216e-09 -5.20688e-09 0
-5.27309e-08 -0.000401592 0
-1.1393e-09 2.92467e-09 0
-2.87455e-09 3.05365e-09 0
-1.97941e-09 2.9568e-09 0
-3.71091e-09 2.64417e-09 0
-3.77966e-09 3.3903e-09 0
1.09657e-09 1.84748e-09 0
3.11834e-10 2.43536e-09 0
9.48294e-10 9.94291e-10 0
-8.37582e-10 2.84378e-09 0
-1.85968e-09 3.46072e-09 0
-5.45947e-09 2.26493e-09 0
6.29368e-10 -2.03786e-10 0
-0.000292137 0.000292736 0
2.48596e-09 -6.16224e-09 0
2.23833e-09 -9.10085e-09 0
3.00917e-09 -8.71474e-09 0
2.49661e-09 -9.70634e-09 0
2.84928e-09 -5.41327e-09 0
2.57884e-09 -5.28228e-09 0
7.90898e-10 1.69877e-10 0
2.45028e-09 -3.74581e-09 0
2.06436e-09 -2.72091e-09 0
8.14481e-10 -6.74806e-10 0
1.32083e-09 -1.9962e-09 0
3.44624e-09 -8.02833e-09 0
3.37748e-09 -5.68343e-09 0
-5.72978e-05 -0.000433998 0
-2.60843e-09 3.25223e-09 0
-4.72035e-09 3.97647e-09 0
-6.88561e-09 4.70093e-09 0
-2.34639e-09 3.33586e-09 0
-2.39561e-11 1.50204e-09 0
-1.39125e-09 2.60391e-09 0
-9.58764e-09 3.20734e-09 0
-5.85442e-09 -4.00282e-09 0
-0.00032672 0.000250715 0
2.57772e-09 -6.33487e-09 0
2.86398e-09 -8.52415e-09 0
3.0945e-09 -7.7224e-09 0
2.42248e-09 -4.90875e-09 0
1.94527e-09 -4.45015e-09 0
1.31208e-11 7.3938e-10 0
6.57277e-11 -3.38942e-10 0
1.56909e-09 -3.01092e-09 0
6.7931e-10 -1.74491e-09 0
3.38517e-09 -6.99065e-09 0
3.26003e-09 -6.21622e-09 0
-0.0001114 -0.000415503 0
-3.89304e-09 3.76786e-09 0
-7.43094e-09 4.98824e-09 0
-2.55388e-09 2.78146e-09 0
-1.08481e-09 1.69316e-09 0
-8.8112e-09 5.06422e-09 0
-1.2095e-08 6.2006e-09 0
-1.5054e-08 3.01273e-10 0
-0.00038264 0.00022028 0
2.48709e-09 -5.0013e-09 0
2.42643e-09 -5.31811e-09 0
1.75425e-09 -4.13521e-09 0
1.26299e-09 -3.87733e-09 0
-1.07386e-09 8.23836e-10 0
-7.43984e-10 -5.84612e-10 0
6.48921e-10 -2.85408e-09 0
-2.45149e-10 -1.8623e-09 0
1.3989e-11 -3.8334e-09 0
2.29298e-09 -4.65883e-09 0
3.61431e-09 -6.23867e-09 0
-0.000163094 -0.00039365 0
-4.23108e-09 3.16425e-09 0
-2.40434e-09 1.90979e-09 0
-8.11298e-09 3.39288e-09 0
-1.25104e-08 5.69505e-09 0