# vtk DataFile Version 2.0
CellBP Time: 0.48
ASCII
DATASET UNSTRUCTURED_GRID
POINTS 296 double
-9.18799 -3.7765 0
-8.60954 -4.94958 0
-9.60846 -2.53798 0
-9.86368 -1.25516 0
-8.35806 -2.81887 0
-7.88288 -6.03711 0
-7.02049 -7.02048 0
-7.9177 -3.87494 0
-7.34311 -4.86814 0
-6.03711 -7.88288 0
-4.94959 -8.60953 0
-9.94922 0.05 0
-9.86364 1.35515 0
-8.65817 -1.68403 0
-8.78681 -0.529655 0
-7.59019 -2.00427 0
-7.22622 -2.90667 0
-6.63807 -5.77925 0
-5.82279 -6.59733 0
-6.79073 -3.88917 0
-6.22101 -4.67624 0
-3.77652 -9.18803 0
-2.53798 -9.60844 0
-4.9068 -7.30929 0
-3.91327 -7.88676 0
-8.79327 0.643435 0
-9.60847 2.63799 0
-8.62379 1.77418 0
-9.18804 3.87653 0
-7.74481 -0.929039 0
-7.79503 0.0802594 0
-6.95302 -1.31596 0
-1.25515 -9.86363 0
-6.44191 -2.15326 0
-6.31981 -3.05633 0
-5.53693 -5.47496 0
-4.79625 -6.11591 0
-5.65942 -3.75726 0
-5.26977 -4.56191 0
-2.86636 -8.3645 0
-1.77868 -8.64083 0
-3.92842 -6.72404 0
-3.05684 -7.15313 0
0.0500002 -9.94918 0
-7.70604 1.14359 0
-8.33912 2.91561 0
-7.55244 2.11211 0
-8.60955 5.0496 0
-7.8806 3.9785 0
-7.88289 6.13713 0
-6.77917 -0.396882 0
-6.95704 0.552581 0
-5.77177 -1.00347 0
-0.590878 -8.81033 0
0.565721 -8.77152 0
-5.30346 -2.48043 0
-4.49229 -5.0961 0
-3.90279 -5.77575 0
-4.4392 -3.805 0
-2.06257 -7.56253 0
-1.13557 -7.78645 0
-2.99477 -6.10252 0
-2.3092 -6.6203 0
1.35516 -9.86365 0
-6.68995 1.42215 0
-7.17274 3.11836 0
-6.65977 2.37319 0
-7.29528 4.98903 0
-6.71863 4.00338 0
-7.02049 7.12049 0
-6.57301 5.89461 0
-6.03712 7.9829 0
-4.45338 -1.18114 0
-5.81499 0.513792 0
-4.65644 -0.0103823 0
0.00852171 -7.84875 0
1.7387 -8.6445 0
0.949042 -7.7641 0
-4.03876 -2.40653 0
-3.48576 -1.39128 0
-3.29473 -4.80567 0
-3.26607 -3.26799 0
-1.37869 -6.676 0
-0.508782 -7.02553 0
-1.97569 -5.53743 0
2.63799 -9.6085 0
-5.50773 2.03707 0
-6.09523 3.07247 0
-6.10565 4.87008 0
-5.76225 3.99184 0
-5.76182 6.71776 0
-5.45266 5.61992 0
-4.94959 8.70956 0
-4.83893 7.40528 0
-3.50171 -0.42433 0
-4.4496 1.24912 0
-3.7117 0.59211 0
-4.06245 2.31997 0
-3.77652 9.28805 0
2.86287 -8.33364 0
0.419726 -6.79606 0
2.02222 -7.52659 0
1.30621 -6.90625 0
-2.44481 -0.873866 0
-2.83856 -2.13127 0
-2.29456 -4.09766 0
-2.3258 -2.97379 0
-0.442421 -5.86165 0
-1.22281 -4.49946 0
3.87652 -9.18805 0
-4.7902 3.39208 0
-5.08845 4.59461 0
-4.64768 6.28212 0
-4.53935 5.3603 0
-3.84415 7.99422 0
-3.82718 6.84649 0
-2.78361 8.42377 0
-1.64915 -0.137908 0
-1.45035 -0.890641 0
-2.48927 0.507287 0
-3.25384 1.44425 0
-3.23927 3.31681 0
-2.91118 2.37193 0
-1.35519 0.627143 0
-2.53798 9.70848 0
3.93313 -7.88785 0
2.96488 -7.15856 0
0.954178 -5.82257 0
2.07457 -6.41623 0
-1.68307 -1.99218 0
-1.43453 -3.278 0
0.0902259 -4.74737 0
-0.566214 -3.69469 0
4.93271 -7.31965 0
5.04959 -8.60955 0
-3.7773 4.55205 0
-3.73518 5.7528 0
-2.88832 7.29075 0
-3.01005 6.35448 0
-1.66275 8.7347 0
-1.94035 7.6203 0
-2.33857 4.05201 0
-0.730774 -1.32733 0
-0.836947 -0.257641 0
-1.93633 1.68088 0
-2.12592 2.87605 0
-1.30667 3.54496 0
-0.869512 1.35091 0
-0.282383 0.456074 0
-0.533584 8.87278 0
-1.25515 9.96359 0
1.11288 -4.575 0
3.91063 -6.71816 0
2.98828 -6.09552 0
2.11808 -5.42554 0
4.78507 -6.20619 0
-0.558888 -2.47698 0
0.495147 -3.4641 0
0.0535557 -1.61058 0
1.48202 -3.68247 0
5.86795 -6.61555 0
6.13712 -7.88289 0
-2.47594 5.34905 0
-2.13072 6.53528 0
-0.904193 7.80436 0
-1.27251 6.93297 0
0.0862155 7.88148 0
-1.14456 4.49512 0
0.150329 -0.617681 0
-0.797481 2.48867 0
-0.331675 3.60102 0
0.0631095 1.51282 0
0.741481 0.473449 0
0.646873 8.87547 0
0.0500001 10.0492 0
2.38125 -4.28568 0
3.8597 -5.64122 0
3.00183 -5.21341 0
5.57461 -5.49266 0
4.69171 -5.28383 0
0.629717 -2.29352 0
1.25628 -2.95146 0
0.757547 -1.39154 0
2.16454 -3.13611 0
2.9941 -3.47696 0
6.15617 -4.79257 0
6.65662 -5.77021 0
7.1205 -7.0205 0
-1.01975 5.82105 0
-0.372671 6.88459 0
1.12281 7.77081 0
0.558059 7.08089 0
-0.000765343 4.72568 0
0.607058 3.82819 0
1.33901 -0.641938 0
0.53914 2.65126 0
0.966151 1.57505 0
1.91034 0.213883 0
1.61489 1.06511 0
2.12977 7.5849 0
1.79951 8.71385 0
1.35516 9.96365 0
3.82334 -4.35219 0
5.11741 -4.44975 0
5.84675 -3.93582 0
3.78447 -3.20146 0
1.81244 -1.88278 0
3.01949 -2.57417 0
6.78463 -3.9486 0
7.38278 -4.89768 0
7.98289 -6.03713 0
0.483426 5.88239 0
1.42842 6.74309 0
2.37478 6.67033 0
1.21013 4.55675 0
1.48834 3.39801 0
2.43604 -0.692088 0
2.82836 0.14262 0
1.78907 2.16306 0
2.61217 1.15027 0
3.07264 7.17156 0
2.90479 8.37846 0
2.63799 9.70848 0
4.91207 -3.32842 0
6.12187 -3.10927 0
4.17346 -2.27557 0
3.24484 -1.50308 0
6.73275 -2.31351 0
7.23362 -3.04319 0
7.96658 -3.91307 0
8.70955 -4.9496 0
2.02396 5.60078 0
3.08717 6.15493 0
2.36426 4.12752 0
2.4204 3.06129 0
3.52616 -0.460918 0
3.61621 0.613373 0
2.96224 2.28839 0
3.54611 1.52549 0
4.01318 5.8996 0
3.98553 6.79499 0
3.97434 7.94077 0
3.87654 9.28806 0
5.56994 -1.91653 0
4.50997 -1.12978 0
6.71566 -1.33644 0
7.59461 -2.03696 0
8.39943 -2.86212 0
9.28804 -3.77653 0
3.41987 4.87808 0
3.3396 3.38598 0
4.69211 0.130099 0
4.52001 1.31021 0
4.06608 2.44426 0
4.57198 5.15405 0
4.84528 6.19282 0
4.98202 7.38279 0
5.0496 8.70956 0
5.88495 -0.435004 0
7.01312 -0.488391 0
7.76211 -1.08563 0
8.68761 -1.74648 0
9.70848 -2.53799 0
4.55368 3.82861 0
5.81939 1.09889 0
5.37279 2.53565 0
5.3821 4.62232 0
5.61431 5.52565 0
5.89935 6.67434 0
6.13713 7.98289 0
6.84862 0.463702 0
7.85636 -0.0256463 0
8.86366 -0.584548 0
9.96366 -1.25516 0
6.96328 1.34998 0
5.72336 3.77995 0
6.54409 2.19837 0
6.38288 3.08927 0
6.29515 4.68899 0
6.69581 5.8402 0
7.1205 7.1205 0
7.78765 0.968013 0
8.86302 0.572976 0
10.0492 0.0500001 0
7.61956 2.00517 0
6.83226 3.90602 0
7.27283 2.94811 0
7.38147 4.88785 0
7.98291 6.13713 0
8.72661 1.72762 0
9.96365 1.35516 0
8.42453 2.83896 0
7.98502 3.91796 0
8.70957 5.0496 0
9.70848 2.63798 0
9.28806 3.87653 0
CELLS 542 2168
3 2 0 4
3 0 1 7
3 4 0 7
3 1 5 8
3 7 1 8
3 3 2 13
3 13 2 4
3 11 3 14
3 14 3 13
3 13 4 15
3 4 7 16
3 15 4 16
3 5 6 17
3 8 5 17
3 6 9 18
3 17 6 18
3 7 8 19
3 16 7 19
3 8 17 20
3 19 8 20
3 9 10 23
3 18 9 23
3 10 21 24
3 23 10 24
3 12 11 25
3 25 11 14
3 26 12 27
3 27 12 25
3 14 13 29
3 29 13 15
3 25 14 30
3 30 14 29
3 29 15 31
3 15 16 33
3 31 15 33
3 16 19 34
3 33 16 34
3 17 18 35
3 20 17 35
3 18 23 36
3 35 18 36
3 19 20 37
3 34 19 37
3 20 35 38
3 37 20 38
3 21 22 39
3 24 21 39
3 22 32 40
3 39 22 40
3 23 24 41
3 36 23 41
3 24 39 42
3 41 24 42
3 27 25 44
3 44 25 30
3 28 26 45
3 45 26 27
3 45 27 46
3 46 27 44
3 47 28 48
3 48 28 45
3 30 29 50
3 50 29 31
3 44 30 51
3 51 30 50
3 50 31 52
3 31 33 52
3 32 43 53
3 40 32 53
3 53 43 54
3 33 34 55
3 34 37 55
3 33 55 52
3 35 36 56
3 38 35 56
3 36 41 57
3 56 36 57
3 37 38 58
3 38 56 58
3 37 58 55
3 39 40 59
3 42 39 59
3 40 53 60
3 59 40 60
3 41 42 61
3 57 41 61
3 42 59 62
3 61 42 62
3 43 63 54
3 46 44 64
3 64 44 51
3 48 45 65
3 65 45 46
3 65 46 66
3 66 46 64
3 49 47 67
3 67 47 48
3 67 48 68
3 68 48 65
3 69 49 70
3 70 49 67
3 52 55 72
3 64 51 73
3 51 50 73
3 50 52 73
3 73 52 74
3 74 52 72
3 53 54 75
3 60 53 75
3 54 63 76
3 54 76 77
3 75 54 77
3 55 58 78
3 72 55 78
3 72 78 79
3 56 57 80
3 57 61 80
3 56 80 58
3 58 80 81
3 78 58 81
3 59 60 82
3 62 59 82
3 60 75 83
3 82 60 83
3 61 62 84
3 62 82 84
3 61 84 80
3 63 85 76
3 66 64 86
3 64 73 86
3 68 65 87
3 87 65 66
3 87 66 86
3 70 67 88
3 88 67 68
3 88 68 89
3 89 68 87
3 71 69 90
3 90 69 70
3 90 70 91
3 91 70 88
3 92 71 93
3 93 71 90
3 74 72 94
3 94 72 79
3 86 73 95
3 95 73 74
3 95 74 96
3 96 74 94
3 97 86 95
3 76 85 99
3 75 77 100
3 83 75 100
3 76 99 101
3 77 76 101
3 77 101 102
3 100 77 102
3 94 79 103
3 78 81 104
3 79 78 104
3 79 104 103
3 80 84 105
3 81 80 105
3 81 105 106
3 104 81 106
3 82 83 107
3 83 100 107
3 82 107 84
3 84 107 108
3 105 84 108
3 85 109 99
3 89 87 110
3 87 86 110
3 110 86 97
3 91 88 111
3 111 88 89
3 111 89 110
3 93 90 112
3 112 90 91
3 112 91 113
3 113 91 111
3 98 92 114
3 114 92 93
3 114 93 115
3 115 93 112
3 116 98 114
3 117 103 118
3 96 94 119
3 94 103 119
3 119 103 117
3 97 95 120
3 120 95 96
3 120 96 119
3 121 110 97
3 121 97 122
3 122 97 120
3 123 119 117
3 124 98 116
3 99 109 125
3 99 125 126
3 101 99 126
3 100 102 127
3 100 127 107
3 101 126 128
3 102 101 128
3 102 128 127
3 104 106 129
3 104 129 103
3 103 129 118
3 105 108 130
3 106 105 130
3 106 130 129
3 107 127 131
3 108 107 131
3 108 131 132
3 108 132 130
3 109 134 125
3 125 134 133
3 113 111 135
3 111 110 135
3 135 110 121
3 115 112 136
3 136 112 113
3 136 113 135
3 116 114 137
3 137 114 115
3 137 115 138
3 138 115 136
3 139 124 116
3 139 116 140
3 140 116 137
3 141 135 121
3 118 129 142
3 118 142 143
3 117 118 143
3 123 117 143
3 122 120 144
3 120 119 144
3 144 119 123
3 141 121 145
3 145 121 122
3 145 122 144
3 146 141 145
3 147 144 123
3 147 123 148
3 143 148 123
3 150 124 139
3 149 150 139
3 131 127 151
3 125 133 152
3 126 125 152
3 126 152 153
3 128 126 153
3 128 153 154
3 128 154 127
3 127 154 151
3 152 133 155
3 130 132 156
3 130 156 129
3 129 156 142
3 131 151 157
3 132 131 157
3 132 157 156
3 156 158 142
3 157 151 159
3 133 160 155
3 134 161 133
3 133 161 160
3 138 136 162
3 136 135 162
3 162 135 141
3 140 137 163
3 163 137 138
3 163 138 162
3 149 139 164
3 164 139 140
3 164 140 165
3 165 140 163
3 166 149 164
3 167 162 141
3 167 141 146
3 142 158 168
3 143 142 168
3 143 168 148
3 146 145 169
3 145 144 169
3 169 144 147
3 170 167 146
3 170 146 169
3 171 169 147
3 171 147 148
3 171 148 172
3 168 172 148
3 173 149 166
3 174 150 149
3 173 174 149
3 154 175 151
3 151 175 159
3 152 155 176
3 153 152 176
3 153 176 177
3 153 177 154
3 154 177 175
3 155 160 178
3 155 178 179
3 176 155 179
3 156 157 180
3 156 180 158
3 157 159 181
3 157 181 180
3 158 180 182
3 158 182 168
3 159 175 183
3 159 183 181
3 175 184 183
3 160 186 178
3 178 186 185
3 161 187 160
3 160 187 186
3 165 163 188
3 163 162 188
3 188 162 167
3 166 164 189
3 189 164 165
3 189 165 188
3 190 173 166
3 190 166 191
3 191 166 189
3 192 188 167
3 192 167 170
3 193 192 170
3 182 194 168
3 194 172 168
3 193 170 195
3 170 169 195
3 195 169 171
3 196 195 171
3 196 171 172
3 194 197 172
3 197 198 172
3 198 196 172
3 200 173 190
3 199 200 190
3 201 174 173
3 200 201 173
3 176 179 202
3 177 176 202
3 177 202 175
3 175 202 184
3 178 185 203
3 178 203 179
3 179 203 202
3 203 185 204
3 202 205 184
3 183 206 181
3 180 181 206
3 180 206 182
3 182 206 194
3 183 184 207
3 205 207 184
3 183 207 206
3 185 208 204
3 186 209 185
3 185 209 208
3 187 210 186
3 186 210 209
3 191 189 211
3 189 188 211
3 211 188 192
3 199 190 212
3 212 190 191
3 212 191 211
3 213 199 212
3 214 211 192
3 214 192 193
3 215 214 193
3 215 193 195
3 206 216 194
3 216 197 194
3 216 217 197
3 215 195 218
3 218 195 196
3 198 218 196
3 217 219 197
3 219 218 198
3 197 219 198
3 220 199 213
3 221 200 199
3 220 221 199
3 222 201 200
3 221 222 200
3 203 204 223
3 203 223 202
3 202 223 205
3 204 208 224
3 204 224 223
3 205 223 225
3 205 225 207
3 207 225 226
3 207 226 206
3 226 216 206
3 208 228 224
3 224 228 227
3 209 229 208
3 229 228 208
3 210 230 209
3 209 230 229
3 213 212 231
3 212 211 231
3 231 211 214
3 232 220 213
3 232 213 231
3 233 231 214
3 233 214 215
3 234 233 215
3 234 215 218
3 226 235 216
3 235 217 216
3 235 236 217
3 217 236 219
3 237 234 218
3 237 218 219
3 236 238 219
3 238 237 219
3 240 220 232
3 239 240 232
3 241 221 220
3 240 241 220
3 242 222 221
3 241 242 221
3 224 227 243
3 224 243 223
3 223 243 225
3 225 243 244
3 225 244 226
3 226 244 235
3 227 245 243
3 228 246 227
3 227 246 245
3 229 247 228
3 228 247 246
3 230 248 229
3 229 248 247
3 239 232 249
3 232 231 249
3 249 231 233
3 250 249 233
3 250 233 234
3 237 250 234
3 244 251 235
3 235 251 236
3 251 252 236
3 236 252 238
3 252 253 238
3 253 250 237
3 253 237 238
3 254 239 249
3 255 240 239
3 254 255 239
3 256 241 240
3 255 256 240
3 257 242 241
3 256 257 241
3 245 258 243
3 243 258 244
3 244 258 251
3 245 259 258
3 246 260 245
3 245 260 259
3 247 261 246
3 246 261 260
3 248 262 247
3 247 262 261
3 254 249 263
3 263 249 250
3 253 263 250
3 258 264 251
3 251 264 252
3 264 265 252
3 265 263 253
3 252 265 253
3 266 254 263
3 267 255 254
3 266 267 254
3 268 256 255
3 267 268 255
3 269 257 256
3 268 269 256
3 259 270 258
3 270 264 258
3 260 271 259
3 259 271 270
3 261 272 260
3 260 272 271
3 262 273 261
3 273 272 261
3 270 274 264
3 275 266 263
3 275 263 265
3 274 276 264
3 276 265 264
3 276 277 265
3 277 275 265
3 278 267 266
3 275 278 266
3 279 268 267
3 278 279 267
3 280 269 268
3 279 280 268
3 271 281 270
3 270 281 274
3 272 282 271
3 271 282 281
3 273 283 272
3 272 283 282
3 281 284 274
3 274 284 276
3 285 278 275
3 277 285 275
3 284 286 276
3 286 285 277
3 276 286 277
3 287 279 278
3 285 287 278
3 288 280 279
3 287 288 279
3 282 289 281
3 281 289 284
3 283 290 282
3 282 290 289
3 289 291 284
3 284 291 286
3 291 292 286
3 292 287 285
3 286 292 285
3 293 288 287
3 292 293 287
3 290 294 289
3 289 294 291
3 294 295 291
3 295 293 292
3 291 295 292
CELL_TYPES 542
5
5
5
5
5
5
5
5
5
5
5
5
5
5
5
5
5
5
5
5
5
5
5
5
5
5
5
5
5
5
5
5
5
5
5
5
5
5
5
5
5
5
5
5
5
5
5
5
5
5
5
5
5
5
5
5
5
5
5
5
5
5
5
5
5
5
5
5
5
5
5
5
5
5
5
5
5
5
5
5
5
5
5
5
5
5
5
5
5
5
5
5
5
5
5
5
5
5
5
5
5
5
5
5
5
5
5
5
5
5
5
5
5
5
5
5
5
5
5
5
5
5
5
5
5
5
5
5
5
5
5
5
5
5
5
5
5
5
5
5
5
5
5
5
5
5
5
5
5
5
5
5
5
5
5
5
5
5
5
5
5
5
5
5
5
5
5
5
5
5
5
5
5
5
5
5
5
5
5
5
5
5
5
5
5
5
5
5
5
5
5
5
5
5
5
5
5
5
5
5
5
5
5
5
5
5
5
5
5
5
5
5
5
5
5
5
5
5
5
5
5
5
5
5
5
5
5
5
5
5
5
5
5
5
5
5
5
5
5
5
5
5
5
5
5
5
5
5
5
5
5
5
5
5
5
5
5
5
5
5
5
5
5
5
5
5
5
5
5
5
5
5
5
5
5
5
5
5
5
5
5
5
5
5
5
5
5
5
5
5
5
5
5
5
5
5
5
5
5
5
5
5
5
5
5
5
5
5
5
5
5
5
5
5
5
5
5
5
5
5
5
5
5
5
5
5
5
5
5
5
5
5
5
5
5
5
5
5
5
5
5
5
5
5
5
5
5
5
5
5
5
5
5
5
5
5
5
5
5
5
5
5
5
5
5
5
5
5
5
5
5
5
5
5
5
5
5
5
5
5
5
5
5
5
5
5
5
5
5
5
5
5
5
5
5
5
5
5
5
5
5
5
5
5
5
5
5
5
5
5
5
5
5
5
5
5
5
5
5
5
5
5
5
5
5
5
5
5
5
5
5
5
5
5
5
5
5
5
5
5
5
5
5
5
5
5
5
5
5
5
5
5
5
5
5
5
5
5
5
5
5
5
5
5
5
5
5
5
5
5
5
5
5
5
5
5
5
5
5
5
5
5
5
5
5
5
5
5
5
5
5
5
5
5
5
5
5
5
5
5
5
5
5
5
5
5
5
5
5
5
5
5
5
5
5
5
5
5
5
5
5
5
5
5
5
5
5
5
5
5
5
5
5
5
5
5
5
5
5
5
5
5
POINT_DATA 296
SCALARS concentrations float 4
LOOKUP_TABLE default
0 0.999839 0.125426 8.14753
0 0.999838 0.125488 6.9024
0 0.99984 0.125287 6.89525
0 0.999842 0.124824 5.30147
0 0.99984 0.090429 0.00090634
0 0.999837 0.125316 6.90932
0 0.999836 0.125167 6.91118
0 0.999838 0.0904274 0.00136656
0 0.999837 0.0904236 0.000713417
0 0.999836 0.12514 6.93462
0 0.999835 0.125249 6.98559
0 0.999842 0.124559 5.60701
0 0.99984 0.124801 6.86291
0 0.999841 0.0904282 0.000871917
0 0.999841 0.0904296 0.00204525
0 0.99984 0.0904259 0.00116887
0 0.999839 0.0904254 0.00101707
0 0.999837 0.0904222 0.000444183
0 0.999836 0.0904219 0.000379911
0 0.999838 0.0904246 0.000784479
0 0.999837 0.0904231 0.000437178
0 0.999834 0.125497 6.80238
0 0.999835 0.126033 7.14425
0 0.999836 0.0904225 0.000408147
0 0.999835 0.0904257 0.000437149
0 0.999841 0.090427 0.0020748
0 0.999839 0.124556 6.78168
0 0.999839 0.0904233 0.000990576
0 0.999838 0.124799 6.81293
0 0.99984 0.090426 0.001568
0 0.99984 0.0904253 0.00160022
0 0.999839 0.0904233 0.00124073
0 0.999836 0.125095 6.94071
0 0.999839 0.0904226 0.000924768
0 0.999838 0.0904231 0.00074491
0 0.999837 0.0904223 0.000238816
0 0.999837 0.0904222 0.000225151
0 0.999838 0.0904219 0.000429603
0 0.999837 0.0904218 0.000209461
0 0.999835 0.0904262 5.55326e-05
0 0.999836 0.0904227 0.000309598
0 0.999836 0.0904228 0.0002732
0 0.999836 0.0904229 0.000269928
0 0.999837 0.124842 6.8826
0 0.99984 0.0904244 0.00138909
0 0.999838 0.0904225 0.000553912
0 0.999839 0.0904235 0.000844107
0 0.999837 0.124538 6.74296
0 0.999838 0.0904228 0.000277623
0 0.999837 0.1244 6.69304
0 0.99984 0.0904227 0.00131515
0 0.99984 0.090423 0.00135409
0 0.999839 0.0904197 0.000755431
0 0.999837 0.0904225 0.000491726
0 0.999838 0.0904238 0.00066263
0 0.999838 0.0904197 0.000508812
0 0.999837 0.0904209 5.01938e-05
0 0.999837 0.0904212 0.000153067
0 0.999838 0.0904194 0.000203417
0 0.999836 0.0904231 0.000242369
0 0.999837 0.0904227 0.000329216
0 0.999837 0.090421 0.000234168
0 0.999837 0.0904217 0.000294184
0 0.999838 0.12434 6.79099
0 0.999839 0.0904219 0.000974011
0 0.999838 0.0904234 0.000431512
0 0.999839 0.0904223 0.000661312
0 0.999837 0.0904243 0.0001503
0 0.999838 0.0904241 0.000217144
0 0.999837 0.124336 7.00883
0 0.999837 0.0904292 0.000619181
0 0.999836 0.124366 6.686
0 0.999839 0.0904185 0.000482442
0 0.999839 0.0904196 0.000759949
0 0.999839 0.0904185 0.00053994
0 0.999838 0.0904236 0.000515715
0 0.999838 0.0904282 0.000991061
0 0.999838 0.0904255 0.000739109
0 0.999838 0.0904184 0.00033167
0 0.999838 0.0904179 0.000344162
0 0.999838 0.0904191 0.000123801
0 0.999838 0.0904183 0.000199868
0 0.999837 0.0904211 0.000355566
0 0.999838 0.0904219 0.000469458
0 0.999838 0.0904191 0.000268689
0 0.999839 0.124406 5.88843
0 0.999839 0.0904198 0.000508582
0 0.999838 0.0904223 0.000438309
0 0.999837 0.0904263 0.000374802
0 0.999838 0.0904238 0.00039782
0 0.999837 0.0904286 0.000783951
0 0.999837 0.0904268 0.000483554
0 0.999836 0.12435 6.70164
0 0.999836 0.0904238 0.000387671
0 0.999838 0.0904177 0.000395058
0 0.999839 0.0904188 0.000506552
0 0.999838 0.0904181 0.000450841
0 0.999838 0.0904191 0.000417597
0 0.999835 0.124555 6.74568
0 0.999839 0.0904287 0.0010243
0 0.999838 0.0904227 0.000652654
0 0.999838 0.0904259 0.00072496
0 0.999838 0.0904241 0.000789275
0 0.999838 0.0904169 0.000232781
0 0.999838 0.0904177 0.000229926
0 0.999838 0.0904183 0.000237283
0 0.999838 0.0904179 0.000227476
0 0.999838 0.0904197 0.000412215
0 0.999838 0.0904184 0.000318969
0 0.999838 0.124322 6.77436
0 0.999838 0.0904205 0.000374916
0 0.999838 0.0904241 0.000455101
0 0.999837 0.0904259 0.000461655
0 0.999837 0.0904249 0.000480692
0 0.999836 0.0904225 0.000153581
0 0.999836 0.090424 0.000237446
0 0.999835 0.0904224 0.000353837
0 0.999838 0.0904165 0.000189299
0 0.999838 0.0904164 0.000175104
0 0.999838 0.0904171 0.000279192
0 0.999838 0.0904182 0.000394451
0 0.999838 0.0904192 0.00033395
0 0.999838 0.0904187 0.000359645
0 0.999838 0.0904165 0.000160526
0 0.999835 0.124459 6.71338
0 0.999838 0.090424 0.000652519
0 0.999838 0.0904251 0.00068389
0 0.999838 0.0904209 0.000592518
0 0.999838 0.0904238 0.000761448
0 0.999838 0.0904169 0.000201859
0 0.999838 0.0904177 0.000291497
0 0.999838 0.0904188 0.000408127
0 0.999838 0.0904179 0.000348963
0 0.999838 0.0904225 0.000572651
0 0.999838 0.124372 6.75479
0 0.999838 0.0904206 0.000338832
0 0.999837 0.0904233 0.000370736
0 0.999836 0.0904231 0.000172029
0 0.999837 0.0904227 0.000257252
0 0.999835 0.0904245 0.00134774
0 0.999836 0.0904232 0.00053517
0 0.999838 0.090419 0.000261118
0 0.999838 0.0904164 0.000202627
0 0.999838 0.0904159 0.000114844
0 0.999838 0.0904174 0.000234249
0 0.999838 0.0904184 0.000267894
0 0.999838 0.0904185 0.000210356
0 0.999838 0.0904166 0.000111646
0 0.999838 0.0904159 4.56409e-05
0 0.999835 0.0904249 0.00148799
0 0.999835 0.124481 8.37831
0 0.999838 0.0904192 0.000462638
0 0.999838 0.0904235 0.000510247
0 0.999838 0.0904235 0.00065865
0 0.999838 0.090421 0.000590191
0 0.999838 0.0904228 0.000422702
0 0.999838 0.0904171 0.000291216
0 0.999838 0.0904181 0.000392109
0 0.999838 0.0904167 0.00025958
0 0.999838 0.0904191 0.000467633
0 0.999837 0.0904219 0.000538519
0 0.999837 0.124341 6.73764
0 0.999837 0.0904198 0.000237442
0 0.999837 0.0904217 0.000282652
0 0.999836 0.0904232 0.000684324
0 0.999836 0.090422 0.000406458
0 0.999836 0.0904232 0.000621866
0 0.999837 0.0904187 0.000190299
0 0.999838 0.0904161 0.000153631
0 0.999838 0.0904173 0.000133887
0 0.999838 0.0904182 0.000134803
0 0.999838 0.0904166 2.11758e-05
0 0.999838 0.0904164 0.000107086
0 0.999835 0.0904225 0.000661991
0 0.999835 0.124264 6.6857
0 0.999838 0.0904195 0.000417145
0 0.999838 0.0904222 0.000449135
0 0.999838 0.0904211 0.000499935
0 0.999838 0.0904225 0.000411005
0 0.999838 0.0904217 0.000320522
0 0.999838 0.0904173 0.000307717
0 0.999838 0.090418 0.000370213
0 0.999838 0.0904171 0.00025473
0 0.999838 0.0904188 0.000392399
0 0.999838 0.0904196 0.000360415
0 0.999838 0.0904223 0.000396629
0 0.999837 0.0904215 0.000513859
0 0.999837 0.124013 6.66972
0 0.999837 0.0904193 0.000205187
0 0.999836 0.0904214 0.000356129
0 0.999836 0.0904225 0.000391074
0 0.999837 0.0904217 0.000290186
0 0.999837 0.0904186 0.00013089
0 0.999838 0.0904184 7.15243e-05
0 0.999838 0.090417 0.000205437
0 0.999838 0.0904173 4.57432e-05
0 0.999838 0.090417 6.506e-05
0 0.999838 0.0904176 0.000190632
0 0.999838 0.0904175 0.000135171
0 0.999836 0.0904222 0.000405016
0 0.999836 0.0904217 0.000500829
0 0.999835 0.124356 6.72876
0 0.999838 0.09042 0.000305898
0 0.999838 0.0904213 0.000238059
0 0.999838 0.0904218 0.000242089
0 0.999838 0.0904195 0.000282232
0 0.999838 0.0904177 0.000262387
0 0.999838 0.0904188 0.000294201
0 0.999838 0.0904222 0.000413363
0 0.999837 0.0904214 0.00052738
0 0.999837 0.124177 6.70234
0 0.999837 0.0904191 0.000131545
0 0.999837 0.090421 0.000204865
0 0.999837 0.0904216 0.000316007
0 0.999838 0.0904186 4.50495e-05
0 0.999838 0.0904183 3.15919e-05
0 0.999838 0.0904181 0.000231407
0 0.999838 0.0904188 0.000226077
0 0.999838 0.0904179 9.55651e-05
0 0.999838 0.0904185 0.000177092
0 0.999836 0.0904221 0.000482776
0 0.999836 0.0904212 0.000500387
0 0.999836 0.123922 6.65971
0 0.999838 0.0904199 0.000156723
0 0.999838 0.0904212 0.000195987
0 0.999838 0.0904192 0.000187759
0 0.999838 0.0904186 0.000213172
0 0.999838 0.0904218 0.000234341
0 0.999837 0.0904225 0.000433746
0 0.999837 0.0904216 0.000556276
0 0.999837 0.124696 6.80633
0 0.999837 0.0904191 9.80699e-05
0 0.999837 0.090421 0.000340534
0 0.999838 0.0904187 3.78489e-05
0 0.999838 0.0904188 8.14261e-05
0 0.999838 0.0904192 0.000202282
0 0.999838 0.0904195 0.000195139
0 0.999838 0.0904191 0.000136855
0 0.999838 0.0904197 0.000175107
0 0.999837 0.0904215 0.000453167
0 0.999837 0.090422 0.000557065
0 0.999836 0.0904211 0.0005476
0 0.999836 0.123591 6.60529
0 0.999838 0.0904197 7.0982e-05
0 0.999838 0.0904192 0.000143846
0 0.999838 0.0904218 0.000164945
0 0.999838 0.0904228 0.00042564
0 0.999837 0.0904217 0.00055503
0 0.999837 0.124713 6.81005
0 0.999837 0.0904193 0.000163363
0 0.999838 0.0904192 0.000105731
0 0.999838 0.0904194 0.000139403
0 0.999838 0.0904198 0.000152274
0 0.999838 0.0904197 0.000146297
0 0.999837 0.0904215 0.000453154
0 0.999836 0.0904223 0.000639028
0 0.999836 0.0904214 0.000618765
0 0.999836 0.124019 6.68887
0 0.999838 0.0904203 5.82775e-05
0 0.999838 0.0904228 0.000188523
0 0.999838 0.090423 0.000399224
0 0.999837 0.0904219 0.000542218
0 0.999837 0.124194 6.7063
0 0.999838 0.0904203 0.000206162
0 0.999838 0.0904211 0.000104899
0 0.999838 0.0904213 0.000176078
0 0.999837 0.0904229 0.000551857
0 0.999836 0.0904232 0.000741035
0 0.999835 0.0904222 0.000689717
0 0.999835 0.124267 6.73835
0 0.999838 0.0904232 0.000126925
0 0.999838 0.0904236 0.000385983
0 0.999837 0.0904222 0.000548442
0 0.999837 0.123951 6.65791
0 0.999838 0.0904249 0.000180153
0 0.999837 0.0904238 0.000442755
0 0.999838 0.090425 0.000219665
0 0.999837 0.0904257 0.000392183
0 0.999836 0.0904249 0.000796671
0 0.999834 0.0904245 0.000911648
0 0.999834 0.124039 6.69069
0 0.999838 0.0904249 0.000389614
0 0.999837 0.0904228 0.000567858
0 0.999837 0.124156 6.69604
0 0.999837 0.090427 0.000408463
0 0.999836 0.0904274 0.00071748
0 0.999837 0.090428 0.000500987
0 0.999835 0.0904271 0.000979385
0 0.999833 0.122914 6.5938
0 0.999837 0.0904242 0.00059154
0 0.999837 0.124131 6.68959
0 0.999837 0.090429 0.000566363
0 0.999836 0.090431 0.000710308
0 0.999835 0.123619 6.5947
0 0.999837 0.124188 6.70473
0 0.999837 0.12397 6.65055
VECTORS fa_u float
0.000239487 9.9291e-05 0
0.000190188 0.000109852 0
0.000211887 5.69474e-05 0
0.00016725 2.20105e-05 0
2.81662e-08 6.19616e-09 0
0.000174291 0.00013401 0
0.00015536 0.000155644 0
3.69231e-08 -2.29681e-08 0
9.83646e-09 -2.04591e-08 0
0.000134224 0.000175141 0
0.000111251 0.000192437 0
0.000178415 -3.70052e-08 0
0.000216508 -2.85145e-05 0
2.12263e-08 -1.78659e-08 0
5.64773e-08 -3.2337e-08 0
3.6557e-08 -6.85138e-09 0
3.12996e-08 -8.22784e-09 0
-1.03388e-09 -1.4096e-08 0
-7.76979e-09 -9.2611e-09 0
2.17961e-08 -1.2167e-08 0
7.95386e-09 -1.14128e-08 0
8.29383e-05 0.000199931 0
5.88708e-05 0.000219574 0
-1.23451e-08 -4.03315e-09 0
-1.29071e-08 5.18616e-09 0
5.27568e-08 3.96908e-08 0
0.000208441 -5.5844e-05 0
1.35228e-08 2.84719e-08 0
0.000200293 -8.29414e-05 0
4.8506e-08 -1.16854e-08 0
5.08525e-08 2.59848e-09 0
3.91167e-08 -5.34427e-09 0
2.90449e-05 0.000218935 0
2.91437e-08 -4.06647e-09 0
2.29237e-08 -6.0277e-09 0
-1.24096e-09 -7.4971e-09 0
-6.42776e-09 -3.16402e-09 0
1.25647e-08 -5.38476e-09 0
4.21115e-09 -5.16612e-09 0
-7.08832e-10 1.61864e-09 0
-6.77758e-09 -7.14941e-09 0
-8.3631e-09 2.37279e-09 0
-7.42974e-09 4.30944e-09 0
1.85497e-07 0.000219004 0
4.07029e-08 1.72329e-08 0
2.88143e-09 1.73883e-08 0
2.23253e-08 1.49335e-08 0
0.000185815 -0.00010728 0
-2.4129e-09 8.49804e-09 0
0.00016887 -0.000129768 0
4.1783e-08 -2.33165e-09 0
4.27877e-08 5.07076e-09 0
2.39505e-08 -2.04624e-09 0
-1.27863e-08 -9.01825e-09 0
-2.00314e-08 -6.58119e-09 0
1.60756e-08 -1.92457e-09 0
-9.53341e-10 -1.28143e-09 0
-4.47401e-09 1.92506e-09 0
6.4727e-09 -1.68432e-11 0
-6.7303e-09 3.76568e-09 0
-1.02378e-08 2.21946e-09 0
-5.14703e-09 5.38782e-09 0
-6.1421e-09 7.06408e-09 0
-2.81282e-05 0.00021425 0
3.0261e-08 6.69576e-09 0
1.13681e-08 7.70043e-09 0
2.03758e-08 5.25656e-09 0
-4.60831e-09 -1.27907e-09 0
6.90888e-09 9.38626e-11 0
0.000157649 -0.000157749 0
3.06803e-09 -1.94619e-08 0
0.000129511 -0.000168786 0
1.53371e-08 -6.59581e-10 0
2.41784e-08 3.86494e-10 0
1.71507e-08 -1.01694e-09 0
-1.52894e-08 5.96002e-09 0
-2.90794e-08 1.22014e-08 0
-1.79139e-08 1.52383e-08 0
1.04501e-08 1.47548e-09 0
1.08276e-08 1.64096e-09 0
-2.73962e-10 3.9298e-09 0
4.57958e-09 4.41296e-09 0
-7.07453e-09 8.82949e-09 0
-1.03173e-08 1.08028e-08 0
-3.7926e-09 7.66242e-09 0
-4.84677e-05 0.000180992 0
1.6167e-08 7.1989e-10 0
1.3947e-08 6.93089e-12 0
8.72526e-09 -8.13037e-09 0
1.17766e-08 -4.64239e-09 0
2.45565e-08 4.38691e-09 0
1.37373e-08 -6.93076e-09 0
0.000106531 -0.000184729 0
7.48037e-09 9.8088e-09 0
1.25626e-08 4.50152e-10 0
1.6092e-08 -9.22792e-10 0
1.43203e-08 -8.53776e-10 0
1.3184e-08 -1.65859e-09 0
8.20688e-05 -0.000198338 0
1.64943e-08 2.81113e-08 0
-1.23433e-08 1.67011e-08 0
-7.11947e-09 2.19421e-08 0
-1.14314e-08 2.23622e-08 0
6.93974e-09 2.58935e-09 0
6.00099e-09 4.18511e-09 0
-6.52779e-10 7.52206e-09 0
2.11522e-09 6.92232e-09 0
-6.43175e-09 1.14315e-08 0
-3.33735e-09 9.58519e-09 0
-8.25459e-05 0.000199128 0
1.16332e-08 -2.64363e-09 0
1.28525e-08 -6.67237e-09 0
1.46061e-08 -1.56605e-09 0
1.39494e-08 -6.27457e-09 0
-8.7169e-10 4.80858e-09 0
7.55504e-09 -8.36707e-11 0
-9.55256e-09 -5.95947e-09 0
5.67241e-09 2.02629e-09 0
3.48922e-09 4.34401e-09 0
8.88141e-09 2.08511e-10 0
1.24561e-08 -1.5437e-09 0
1.0235e-08 -2.857e-09 0
1.1087e-08 -2.83566e-09 0
5.07086e-09 6.1427e-10 0
5.51948e-05 -0.000206365 0
1.98581e-08 6.06326e-09 0
6.02773e-09 2.09098e-08 0
-7.59954e-09 1.72544e-08 0
-5.26578e-09 2.36501e-08 0
1.86786e-09 6.14554e-09 0
-1.39561e-09 9.16982e-09 0
-5.09259e-09 1.19464e-08 0
-3.23781e-09 1.06214e-08 0
1.82181e-08 -3.63026e-10 0
-0.000107568 0.000186083 0
1.00696e-08 -3.85298e-09 0
1.09852e-08 -4.29986e-09 0
1.29932e-09 -5.31749e-09 0
6.78841e-09 -4.57425e-09 0
-1.73538e-08 -3.92169e-08 0
-9.79448e-10 -1.70009e-08 0
7.59144e-09 -3.3772e-09 0
-2.263e-10 6.44359e-09 0
1.61499e-09 3.27808e-09 0
7.31528e-09 -1.43029e-09 0
7.90109e-09 -3.19962e-09 0
5.59101e-09 -3.68016e-09 0
3.45986e-09 -8.06266e-10 0
4.21956e-10 1.38964e-09 0
3.61098e-08 -3.06252e-08 0
3.47892e-05 -0.000264317 0
-5.0818e-09 1.38161e-08 0
1.10694e-08 1.18776e-08 0
1.29799e-09 2.0918e-08 0
-4.14366e-09 1.8317e-08 0
1.2365e-08 5.29324e-09 0
-2.15745e-09 9.01182e-09 0
-4.44831e-09 1.1657e-08 0
-2.87855e-09 7.74199e-09 0
-4.95432e-09 1.40311e-08 0
1.68796e-08 -2.95108e-09 0
-0.000130614 0.00017001 0
6.48225e-09 -3.8813e-09 0
4.28014e-09 -7.91022e-09 0
7.60376e-09 -2.04044e-08 0
4.47432e-09 -1.21349e-08 0
1.55401e-08 -1.22499e-08 0
4.83094e-09 -3.65086e-09 0
-2.2691e-09 4.33001e-09 0
3.65485e-09 -2.18908e-09 0
3.06844e-09 -2.99729e-09 0
3.41965e-10 -5.80588e-10 0
-2.7662e-09 1.9897e-09 0
2.10634e-08 2.14373e-10 0
6.41898e-08 -0.000212738 0
-3.23953e-09 1.28721e-08 0
4.39383e-09 1.35992e-08 0
-1.16158e-09 1.58654e-08 0
1.29653e-08 1.71444e-09 0
6.50358e-09 7.85637e-09 0
-4.12856e-09 8.87858e-09 0
-5.06894e-09 1.06338e-08 0
-4.45645e-09 6.77044e-09 0
-5.01978e-09 1.14326e-08 0
-3.56467e-09 1.09003e-08 0
1.25949e-08 -8.05707e-10 0
1.6002e-08 -3.35981e-09 0
-0.000150156 0.000149983 0
4.27137e-09 -4.938e-09 0
6.68647e-09 -9.14907e-09 0
1.2382e-08 1.24007e-09 0
8.30597e-09 -4.03387e-09 0
3.00569e-09 -2.8831e-09 0
1.10647e-09 -1.98883e-09 0
-4.68958e-09 4.55414e-09 0
9.4014e-11 -1.45251e-09 0
-2.06715e-09 -1.12473e-10 0
-5.21775e-09 3.09356e-09 0
-4.11256e-09 1.2596e-09 0
9.99718e-09 8.13302e-09 0
1.33508e-08 8.70199e-09 0
-2.79341e-05 -0.000212279 0
1.58778e-10 9.73236e-09 0
5.86293e-09 4.79657e-09 0
7.62152e-09 1.1191e-09 0
-2.5388e-09 8.61427e-09 0
-5.04412e-09 6.65318e-09 0
-4.71929e-09 8.08486e-09 0
1.28795e-08 -2.66897e-09 0
1.61712e-08 -4.48356e-09 0
-0.00016925 0.000129759 0
3.56368e-09 -2.19562e-09 0
6.0855e-09 2.33698e-09 0
6.692e-09 7.50511e-09 0
1.07535e-09 -9.47873e-10 0
-8.98823e-10 -4.50166e-10 0
-5.87142e-09 4.44358e-09 0
-6.45678e-09 3.17178e-09 0
-3.03791e-09 1.34144e-10 0
-5.37101e-09 1.70477e-09 0
9.44819e-09 1.21128e-08 0
1.05527e-08 1.1923e-08 0
-5.48281e-05 -0.000204696 0
1.02317e-09 4.88084e-09 0
6.23424e-09 -1.5988e-10 0
-2.99188e-09 5.17137e-09 0
-5.0455e-09 4.53362e-09 0
7.32649e-09 -1.38752e-09 0
1.32676e-08 -3.80261e-09 0
1.68883e-08 -5.30069e-09 0
-0.000187581 0.000108254 0
2.18241e-09 2.23049e-09 0
5.56036e-09 9.30032e-09 0
-5.46394e-10 1.07327e-09 0
-2.38981e-09 1.00096e-09 0
-5.49181e-09 3.35705e-09 0
-5.5184e-09 2.84656e-09 0
-3.98671e-09 1.75206e-09 0
-4.9561e-09 2.54621e-09 0
7.95599e-09 1.20263e-08 0
1.01389e-08 1.45398e-08 0
1.05261e-08 1.38859e-08 0
-8.04103e-05 -0.00019419 0
3.91531e-10 2.22445e-09 0
-3.24194e-09 3.23113e-09 0
5.24013e-09 -2.96864e-10 0
1.32001e-08 -3.03189e-09 0
1.69156e-08 -5.07691e-09 0