# vtk DataFile Version 2.0
CellBP Time: 3.24
ASCII
DATASET UNSTRUCTURED_GRID
POINTS 296 double
-9.18316 -3.7745 0
-8.60497 -4.94695 0
-9.60343 -2.53663 0
-9.85839 -1.25446 0
-8.35806 -2.81887 0
-7.87869 -6.03389 0
-7.01676 -7.01676 0
-7.9177 -3.87494 0
-7.34311 -4.86814 0
-6.03391 -7.8787 0
-4.94694 -8.60495 0
-9.94391 0.0499993 0
-9.85843 1.35447 0
-8.65817 -1.68403 0
-8.78681 -0.529655 0
-7.59019 -2.00427 0
-7.22622 -2.90667 0
-6.63807 -5.77925 0
-5.82279 -6.59733 0
-6.79073 -3.88917 0
-6.22101 -4.67624 0
-3.77452 -9.1832 0
-2.53662 -9.60335 0
-4.9068 -7.30929 0
-3.91327 -7.88676 0
-8.79327 0.643435 0
-9.60339 2.63663 0
-8.62379 1.77418 0
-9.18324 3.87454 0
-7.74481 -0.929039 0
-7.79503 0.0802594 0
-6.95302 -1.31596 0
-1.25447 -9.85845 0
-6.44191 -2.15326 0
-6.31981 -3.05633 0
-5.53693 -5.47496 0
-4.79625 -6.11591 0
-5.65942 -3.75726 0
-5.26977 -4.56191 0
-2.86636 -8.3645 0
-1.77868 -8.64083 0
-3.92842 -6.72404 0
-3.05684 -7.15313 0
0.0499998 -9.94393 0
-7.70604 1.14359 0
-8.33912 2.91561 0
-7.55244 2.11211 0
-8.60497 5.04695 0
-7.8806 3.9785 0
-7.87867 6.13388 0
-6.77917 -0.396882 0
-6.95704 0.552581 0
-5.77177 -1.00347 0
-0.590878 -8.81033 0
0.565721 -8.77152 0
-5.30346 -2.48043 0
-4.49229 -5.0961 0
-3.90279 -5.77575 0
-4.4392 -3.805 0
-2.06257 -7.56253 0
-1.13557 -7.78645 0
-2.99477 -6.10252 0
-2.3092 -6.6203 0
1.35447 -9.85845 0
-6.68995 1.42215 0
-7.17274 3.11836 0
-6.65977 2.37319 0
-7.29528 4.98903 0
-6.71863 4.00338 0
-7.01679 7.1168 0
-6.57301 5.89461 0
-6.03392 7.97872 0
-4.45338 -1.18114 0
-5.81499 0.513792 0
-4.65644 -0.0103823 0
0.00852172 -7.84875 0
1.7387 -8.6445 0
0.949042 -7.7641 0
-4.03876 -2.40653 0
-3.48576 -1.39128 0
-3.29473 -4.80567 0
-3.26607 -3.26799 0
-1.37869 -6.676 0
-0.508782 -7.02553 0
-1.97569 -5.53743 0
2.63662 -9.60339 0
-5.50773 2.03707 0
-6.09523 3.07247 0
-6.10565 4.87008 0
-5.76225 3.99184 0
-5.76182 6.71776 0
-5.45266 5.61991 0
-4.94697 8.70502 0
-4.83893 7.40528 0
-3.50171 -0.42433 0
-4.4496 1.24912 0
-3.7117 0.59211 0
-4.06245 2.31997 0
-3.77451 9.2832 0
2.86287 -8.33364 0
0.419726 -6.79606 0
2.02222 -7.52659 0
1.30621 -6.90625 0
-2.44481 -0.873866 0
-2.83856 -2.13127 0
-2.29456 -4.09766 0
-2.3258 -2.97379 0
-0.442421 -5.86165 0
-1.22281 -4.49946 0
3.87452 -9.1832 0
-4.7902 3.39208 0
-5.08845 4.59461 0
-4.64768 6.28212 0
-4.53935 5.3603 0
-3.84415 7.99422 0
-3.82718 6.84649 0
-2.78361 8.42377 0
-1.64915 -0.137908 0
-1.45035 -0.890641 0
-2.48927 0.507287 0
-3.25384 1.44425 0
-3.23927 3.31681 0
-2.91118 2.37193 0
-1.35519 0.627143 0
-2.53663 9.70342 0
3.93313 -7.88785 0
2.96488 -7.15856 0
0.954178 -5.82257 0
2.07457 -6.41623 0
-1.68307 -1.99218 0
-1.43453 -3.278 0
0.0902259 -4.74737 0
-0.566214 -3.69469 0
4.93271 -7.31965 0
5.04696 -8.605 0
-3.7773 4.55205 0
-3.73518 5.75279 0
-2.88832 7.29075 0
-3.01005 6.35448 0
-1.66275 8.7347 0
-1.94035 7.6203 0
-2.33857 4.05201 0
-0.730774 -1.32733 0
-0.836946 -0.257641 0
-1.93633 1.68088 0
-2.12592 2.87605 0
-1.30667 3.54496 0
-0.869512 1.35091 0
-0.282383 0.456074 0
-0.533584 8.87278 0
-1.25447 9.95842 0
1.11288 -4.575 0
3.91063 -6.71816 0
2.98828 -6.09552 0
2.11808 -5.42554 0
4.78507 -6.20619 0
-0.558888 -2.47698 0
0.495147 -3.4641 0
0.0535557 -1.61058 0
1.48202 -3.68247 0
5.86795 -6.61555 0
6.13393 -7.87874 0
-2.47594 5.34905 0
-2.13072 6.53528 0
-0.904193 7.80436 0
-1.27251 6.93297 0
0.0862155 7.88148 0
-1.14456 4.49512 0
0.150329 -0.617681 0
-0.797481 2.48867 0
-0.331675 3.60102 0
0.0631095 1.51282 0
0.741481 0.473449 0
0.646873 8.87547 0
0.0500006 10.044 0
2.38125 -4.28568 0
3.8597 -5.64122 0
3.00183 -5.21341 0
5.57461 -5.49266 0
4.69171 -5.28383 0
0.629717 -2.29352 0
1.25628 -2.95146 0
0.757547 -1.39154 0
2.16454 -3.13611 0
2.9941 -3.47696 0
6.15617 -4.79257 0
6.65662 -5.77021 0
7.11679 -7.01679 0
-1.01975 5.82105 0
-0.372671 6.88459 0
1.12281 7.77081 0
0.558059 7.08089 0
-0.000765341 4.72568 0
0.607058 3.82819 0
1.33901 -0.641938 0
0.53914 2.65126 0
0.966151 1.57505 0
1.91034 0.213883 0
1.61489 1.06511 0
2.12977 7.5849 0
1.79951 8.71385 0
1.35447 9.95842 0
3.82334 -4.35219 0
5.11741 -4.44975 0
5.84675 -3.93582 0
3.78447 -3.20146 0
1.81244 -1.88278 0
3.01949 -2.57417 0
6.78463 -3.9486 0
7.38278 -4.89768 0
7.97874 -6.03394 0
0.483426 5.88238 0
1.42842 6.74309 0
2.37478 6.67033 0
1.21013 4.55675 0
1.48834 3.39801 0
2.43604 -0.692088 0
2.82836 0.14262 0
1.78907 2.16306 0
2.61217 1.15027 0
3.07264 7.17156 0
2.90479 8.37846 0
2.63664 9.70343 0
4.91207 -3.32842 0
6.12187 -3.10927 0
4.17346 -2.27557 0
3.24484 -1.50308 0
6.73275 -2.31351 0
7.23362 -3.04319 0
7.96658 -3.91307 0
8.705 -4.94698 0
2.02396 5.60078 0
3.08717 6.15493 0
2.36426 4.12752 0
2.4204 3.06129 0
3.52616 -0.460918 0
3.61621 0.613373 0
2.96224 2.28839 0
3.54611 1.52549 0
4.01318 5.8996 0
3.98553 6.79499 0
3.97434 7.94077 0
3.87452 9.2832 0
5.56994 -1.91653 0
4.50997 -1.12978 0
6.71566 -1.33644 0
7.59461 -2.03696 0
8.39943 -2.86212 0
9.28318 -3.77451 0
3.41987 4.87808 0
3.3396 3.38598 0
4.69211 0.130099 0
4.52001 1.31021 0
4.06608 2.44426 0
4.57198 5.15405 0
4.84528 6.19282 0
4.98202 7.38279 0
5.04698 8.70502 0
5.88495 -0.435004 0
7.01312 -0.488391 0
7.76211 -1.08563 0
8.68761 -1.74648 0
9.70342 -2.53664 0
4.55368 3.82861 0
5.81939 1.09889 0
5.37279 2.53565 0
5.3821 4.62232 0
5.61431 5.52565 0
5.89935 6.67434 0
6.13392 7.97872 0
6.84862 0.463702 0
7.85636 -0.0256463 0
8.86366 -0.584548 0
9.95846 -1.25447 0
6.96328 1.34998 0
5.72336 3.77995 0
6.54409 2.19837 0
6.38288 3.08927 0
6.29515 4.68899 0
6.69581 5.8402 0
7.11679 7.11678 0
7.78765 0.968013 0
8.86301 0.572976 0
10.044 0.0499994 0
7.61956 2.00517 0
6.83226 3.90602 0
7.27283 2.94811 0
7.38147 4.88785 0
7.97873 6.13393 0
8.72661 1.72762 0
9.95842 1.35447 0
8.42453 2.83896 0
7.98502 3.91796 0
8.70504 5.04699 0
9.7034 2.63662 0
9.28322 3.87452 0
CELLS 542 2168
3 2 0 4
3 0 1 7
3 4 0 7
3 1 5 8
3 7 1 8
3 3 2 13
3 13 2 4
3 11 3 14
3 14 3 13
3 13 4 15
3 4 7 16
3 15 4 16
3 5 6 17
3 8 5 17
3 6 9 18
3 17 6 18
3 7 8 19
3 16 7 19
3 8 17 20
3 19 8 20
3 9 10 23
3 18 9 23
3 10 21 24
3 23 10 24
3 12 11 25
3 25 11 14
3 26 12 27
3 27 12 25
3 14 13 29
3 29 13 15
3 25 14 30
3 30 14 29
3 29 15 31
3 15 16 33
3 31 15 33
3 16 19 34
3 33 16 34
3 17 18 35
3 20 17 35
3 18 23 36
3 35 18 36
3 19 20 37
3 34 19 37
3 20 35 38
3 37 20 38
3 21 22 39
3 24 21 39
3 22 32 40
3 39 22 40
3 23 24 41
3 36 23 41
3 24 39 42
3 41 24 42
3 27 25 44
3 44 25 30
3 28 26 45
3 45 26 27
3 45 27 46
3 46 27 44
3 47 28 48
3 48 28 45
3 30 29 50
3 50 29 31
3 44 30 51
3 51 30 50
3 50 31 52
3 31 33 52
3 32 43 53
3 40 32 53
3 53 43 54
3 33 34 55
3 34 37 55
3 33 55 52
3 35 36 56
3 38 35 56
3 36 41 57
3 56 36 57
3 37 38 58
3 38 56 58
3 37 58 55
3 39 40 59
3 42 39 59
3 40 53 60
3 59 40 60
3 41 42 61
3 57 41 61
3 42 59 62
3 61 42 62
3 43 63 54
3 46 44 64
3 64 44 51
3 48 45 65
3 65 45 46
3 65 46 66
3 66 46 64
3 49 47 67
3 67 47 48
3 67 48 68
3 68 48 65
3 69 49 70
3 70 49 67
3 52 55 72
3 64 51 73
3 51 50 73
3 50 52 73
3 73 52 74
3 74 52 72
3 53 54 75
3 60 53 75
3 54 63 76
3 54 76 77
3 75 54 77
3 55 58 78
3 72 55 78
3 72 78 79
3 56 57 80
3 57 61 80
3 56 80 58
3 58 80 81
3 78 58 81
3 59 60 82
3 62 59 82
3 60 75 83
3 82 60 83
3 61 62 84
3 62 82 84
3 61 84 80
3 63 85 76
3 66 64 86
3 64 73 86
3 68 65 87
3 87 65 66
3 87 66 86
3 70 67 88
3 88 67 68
3 88 68 89
3 89 68 87
3 71 69 90
3 90 69 70
3 90 70 91
3 91 70 88
3 92 71 93
3 93 71 90
3 74 72 94
3 94 72 79
3 86 73 95
3 95 73 74
3 95 74 96
3 96 74 94
3 97 86 95
3 76 85 99
3 75 77 100
3 83 75 100
3 76 99 101
3 77 76 101
3 77 101 102
3 100 77 102
3 94 79 103
3 78 81 104
3 79 78 104
3 79 104 103
3 80 84 105
3 81 80 105
3 81 105 106
3 104 81 106
3 82 83 107
3 83 100 107
3 82 107 84
3 84 107 108
3 105 84 108
3 85 109 99
3 89 87 110
3 87 86 110
3 110 86 97
3 91 88 111
3 111 88 89
3 111 89 110
3 93 90 112
3 112 90 91
3 112 91 113
3 113 91 111
3 98 92 114
3 114 92 93
3 114 93 115
3 115 93 112
3 116 98 114
3 117 103 118
3 96 94 119
3 94 103 119
3 119 103 117
3 97 95 120
3 120 95 96
3 120 96 119
3 121 110 97
3 121 97 122
3 122 97 120
3 123 119 117
3 124 98 116
3 99 109 125
3 99 125 126
3 101 99 126
3 100 102 127
3 100 127 107
3 101 126 128
3 102 101 128
3 102 128 127
3 104 106 129
3 104 129 103
3 103 129 118
3 105 108 130
3 106 105 130
3 106 130 129
3 107 127 131
3 108 107 131
3 108 131 132
3 108 132 130
3 109 134 125
3 125 134 133
3 113 111 135
3 111 110 135
3 135 110 121
3 115 112 136
3 136 112 113
3 136 113 135
3 116 114 137
3 137 114 115
3 137 115 138
3 138 115 136
3 139 124 116
3 139 116 140
3 140 116 137
3 141 135 121
3 118 129 142
3 118 142 143
3 117 118 143
3 123 117 143
3 122 120 144
3 120 119 144
3 144 119 123
3 141 121 145
3 145 121 122
3 145 122 144
3 146 141 145
3 147 144 123
3 147 123 148
3 143 148 123
3 150 124 139
3 149 150 139
3 131 127 151
3 125 133 152
3 126 125 152
3 126 152 153
3 128 126 153
3 128 153 154
3 128 154 127
3 127 154 151
3 152 133 155
3 130 132 156
3 130 156 129
3 129 156 142
3 131 151 157
3 132 131 157
3 132 157 156
3 156 158 142
3 157 151 159
3 133 160 155
3 134 161 133
3 133 161 160
3 138 136 162
3 136 135 162
3 162 135 141
3 140 137 163
3 163 137 138
3 163 138 162
3 149 139 164
3 164 139 140
3 164 140 165
3 165 140 163
3 166 149 164
3 167 162 141
3 167 141 146
3 142 158 168
3 143 142 168
3 143 168 148
3 146 145 169
3 145 144 169
3 169 144 147
3 170 167 146
3 170 146 169
3 171 169 147
3 171 147 148
3 171 148 172
3 168 172 148
3 173 149 166
3 174 150 149
3 173 174 149
3 154 175 151
3 151 175 159
3 152 155 176
3 153 152 176
3 153 176 177
3 153 177 154
3 154 177 175
3 155 160 178
3 155 178 179
3 176 155 179
3 156 157 180
3 156 180 158
3 157 159 181
3 157 181 180
3 158 180 182
3 158 182 168
3 159 175 183
3 159 183 181
3 175 184 183
3 160 186 178
3 178 186 185
3 161 187 160
3 160 187 186
3 165 163 188
3 163 162 188
3 188 162 167
3 166 164 189
3 189 164 165
3 189 165 188
3 190 173 166
3 190 166 191
3 191 166 189
3 192 188 167
3 192 167 170
3 193 192 170
3 182 194 168
3 194 172 168
3 193 170 195
3 170 169 195
3 195 169 171
3 196 195 171
3 196 171 172
3 194 197 172
3 197 198 172
3 198 196 172
3 200 173 190
3 199 200 190
3 201 174 173
3 200 201 173
3 176 179 202
3 177 176 202
3 177 202 175
3 175 202 184
3 178 185 203
3 178 203 179
3 179 203 202
3 203 185 204
3 202 205 184
3 183 206 181
3 180 181 206
3 180 206 182
3 182 206 194
3 183 184 207
3 205 207 184
3 183 207 206
3 185 208 204
3 186 209 185
3 185 209 208
3 187 210 186
3 186 210 209
3 191 189 211
3 189 188 211
3 211 188 192
3 199 190 212
3 212 190 191
3 212 191 211
3 213 199 212
3 214 211 192
3 214 192 193
3 215 214 193
3 215 193 195
3 206 216 194
3 216 197 194
3 216 217 197
3 215 195 218
3 218 195 196
3 198 218 196
3 217 219 197
3 219 218 198
3 197 219 198
3 220 199 213
3 221 200 199
3 220 221 199
3 222 201 200
3 221 222 200
3 203 204 223
3 203 223 202
3 202 223 205
3 204 208 224
3 204 224 223
3 205 223 225
3 205 225 207
3 207 225 226
3 207 226 206
3 226 216 206
3 208 228 224
3 224 228 227
3 209 229 208
3 229 228 208
3 210 230 209
3 209 230 229
3 213 212 231
3 212 211 231
3 231 211 214
3 232 220 213
3 232 213 231
3 233 231 214
3 233 214 215
3 234 233 215
3 234 215 218
3 226 235 216
3 235 217 216
3 235 236 217
3 217 236 219
3 237 234 218
3 237 218 219
3 236 238 219
3 238 237 219
3 240 220 232
3 239 240 232
3 241 221 220
3 240 241 220
3 242 222 221
3 241 242 221
3 224 227 243
3 224 243 223
3 223 243 225
3 225 243 244
3 225 244 226
3 226 244 235
3 227 245 243
3 228 246 227
3 227 246 245
3 229 247 228
3 228 247 246
3 230 248 229
3 229 248 247
3 239 232 249
3 232 231 249
3 249 231 233
3 250 249 233
3 250 233 234
3 237 250 234
3 244 251 235
3 235 251 236
3 251 252 236
3 236 252 238
3 252 253 238
3 253 250 237
3 253 237 238
3 254 239 249
3 255 240 239
3 254 255 239
3 256 241 240
3 255 256 240
3 257 242 241
3 256 257 241
3 245 258 243
3 243 258 244
3 244 258 251
3 245 259 258
3 246 260 245
3 245 260 259
3 247 261 246
3 246 261 260
3 248 262 247
3 247 262 261
3 254 249 263
3 263 249 250
3 253 263 250
3 258 264 251
3 251 264 252
3 264 265 252
3 265 263 253
3 252 265 253
3 266 254 263
3 267 255 254
3 266 267 254
3 268 256 255
3 267 268 255
3 269 257 256
3 268 269 256
3 259 270 258
3 270 264 258
3 260 271 259
3 259 271 270
3 261 272 260
3 260 272 271
3 262 273 261
3 273 272 261
3 270 274 264
3 275 266 263
3 275 263 265
3 274 276 264
3 276 265 264
3 276 277 265
3 277 275 265
3 278 267 266
3 275 278 266
3 279 268 267
3 278 279 267
3 280 269 268
3 279 280 268
3 271 281 270
3 270 281 274
3 272 282 271
3 271 282 281
3 273 283 272
3 272 283 282
3 281 284 274
3 274 284 276
3 285 278 275
3 277 285 275
3 284 286 276
3 286 285 277
3 276 286 277
3 287 279 278
3 285 287 278
3 288 280 279
3 287 288 279
3 282 289 281
3 281 289 284
3 283 290 282
3 282 290 289
3 289 291 284
3 284 291 286
3 291 292 286
3 292 287 285
3 286 292 285
3 293 288 287
3 292 293 287
3 290 294 289
3 289 294 291
3 294 295 291
3 295 293 292
3 291 295 292
CELL_TYPES 542
5
5
5
5
5
5
5
5
5
5
5
5
5
5
5
5
5
5
5
5
5
5
5
5
5
5
5
5
5
5
5
5
5
5
5
5
5
5
5
5
5
5
5
5
5
5
5
5
5
5
5
5
5
5
5
5
5
5
5
5
5
5
5
5
5
5
5
5
5
5
5
5
5
5
5
5
5
5
5
5
5
5
5
5
5
5
5
5
5
5
5
5
5
5
5
5
5
5
5
5
5
5
5
5
5
5
5
5
5
5
5
5
5
5
5
5
5
5
5
5
5
5
5
5
5
5
5
5
5
5
5
5
5
5
5
5
5
5
5
5
5
5
5
5
5
5
5
5
5
5
5
5
5
5
5
5
5
5
5
5
5
5
5
5
5
5
5
5
5
5
5
5
5
5
5
5
5
5
5
5
5
5
5
5
5
5
5
5
5
5
5
5
5
5
5
5
5
5
5
5
5
5
5
5
5
5
5
5
5
5
5
5
5
5
5
5
5
5
5
5
5
5
5
5
5
5
5
5
5
5
5
5
5
5
5
5
5
5
5
5
5
5
5
5
5
5
5
5
5
5
5
5
5
5
5
5
5
5
5
5
5
5
5
5
5
5
5
5
5
5
5
5
5
5
5
5
5
5
5
5
5
5
5
5
5
5
5
5
5
5
5
5
5
5
5
5
5
5
5
5
5
5
5
5
5
5
5
5
5
5
5
5
5
5
5
5
5
5
5
5
5
5
5
5
5
5
5
5
5
5
5
5
5
5
5
5
5
5
5
5
5
5
5
5
5
5
5
5
5
5
5
5
5
5
5
5
5
5
5
5
5
5
5
5
5
5
5
5
5
5
5
5
5
5
5
5
5
5
5
5
5
5
5
5
5
5
5
5
5
5
5
5
5
5
5
5
5
5
5
5
5
5
5
5
5
5
5
5
5
5
5
5
5
5
5
5
5
5
5
5
5
5
5
5
5
5
5
5
5
5
5
5
5
5
5
5
5
5
5
5
5
5
5
5
5
5
5
5
5
5
5
5
5
5
5
5
5
5
5
5
5
5
5
5
5
5
5
5
5
5
5
5
5
5
5
5
5
5
5
5
5
5
5
5
5
5
5
5
5
5
5
5
5
5
5
5
5
5
5
5
5
5
5
5
5
5
5
5
5
5
5
5
5
5
5
5
5
5
5
5
5
5
5
5
5
5
5
5
5
5
5
5
5
5
5
5
5
5
5
5
5
5
POINT_DATA 296
SCALARS concentrations float 4
LOOKUP_TABLE default
0 0.998789 0.227329 16.1682
0 0.998788 0.227034 16.3806
0 0.99879 0.226007 14.4378
0 0.998791 0.225314 16.7976
0 0.998789 0.0908785 0.000288417
0 0.998787 0.226353 16.5447
0 0.998786 0.22586 16.2849
0 0.998789 0.0908776 0.000279835
0 0.998788 0.0908778 0.000316106
0 0.998784 0.22581 16.317
0 0.998782 0.225546 17.0509
0 0.998791 0.224303 16.5791
0 0.998789 0.224651 15.8598
0 0.99879 0.0908794 0.000572481
0 0.998791 0.0908786 0.000649457
0 0.998789 0.0908777 0.000454397
0 0.998789 0.0908774 0.000354392
0 0.998787 0.090878 0.000267496
0 0.998786 0.0908775 7.91078e-05
0 0.998788 0.0908774 0.000297798
0 0.998788 0.0908774 0.000228482
0 0.998785 0.22744 14.6803
0 0.998787 0.228902 16.4269
0 0.998784 0.0908789 0.000490395
0 0.998785 0.0908805 0.00071158
0 0.99879 0.0908783 0.000497585
0 0.998786 0.22378 16.3855
0 0.998788 0.0908784 0.000542448
0 0.998782 0.223855 13.6262
0 0.99879 0.0908778 0.000526772
0 0.998789 0.0908778 0.000506693
0 0.998789 0.0908773 0.000397344
0 0.998787 0.225479 15.0263
0 0.998789 0.0908771 0.000323309
0 0.998789 0.0908771 0.000290355
0 0.998787 0.0908775 0.000128844
0 0.998787 0.0908778 9.32406e-05
0 0.998789 0.090877 0.000206589
0 0.998788 0.0908772 0.000143903
0 0.998787 0.0908789 0.000402017
0 0.998788 0.0908784 0.000125484
0 0.998787 0.0908782 0.000184543
0 0.998788 0.0908783 0.000286772
0 0.998788 0.22479 15.9431
0 0.998789 0.090878 0.0004415
0 0.998785 0.0908803 0.000813319
0 0.998787 0.0908784 0.000418876
0 0.99878 0.223427 16.678
0 0.998782 0.0908813 0.000771251
0 0.998782 0.222701 18.1291
0 0.998789 0.0908773 0.000378726
0 0.998789 0.0908775 0.000379823
0 0.998789 0.0908767 0.000220889
0 0.998788 0.0908784 0.000125486
0 0.998788 0.0908778 0.00025243
0 0.998789 0.0908767 0.000185071
0 0.998788 0.0908772 5.88228e-05
0 0.998788 0.0908775 5.84344e-05
0 0.998789 0.0908767 0.000121002
0 0.998788 0.0908782 0.000245721
0 0.998789 0.090878 0.000268418
0 0.998788 0.0908775 0.00015852
0 0.998789 0.0908777 0.000251208
0 0.998787 0.223058 15.8115
0 0.998788 0.0908774 0.000281303
0 0.998785 0.0908787 0.000456119
0 0.998787 0.0908778 0.000266815
0 0.998782 0.0908809 0.000496312
0 0.998784 0.0908789 0.000394917
0 0.998784 0.223019 15.4545
0 0.998784 0.0908792 0.000361621
0 0.998786 0.223111 16.2761
0 0.998789 0.0908766 0.000158302
0 0.998789 0.0908768 0.000201633
0 0.998789 0.0908766 0.000155022
0 0.998789 0.0908778 0.000294874
0 0.998787 0.0908778 0.000267671
0 0.998788 0.0908776 0.000289512
0 0.998789 0.0908766 0.000143172
0 0.998789 0.0908765 0.000144649
0 0.998789 0.0908768 0.000100314
0 0.998789 0.0908766 0.000134406
0 0.998789 0.0908775 0.000299943
0 0.998789 0.0908775 0.000335085
0 0.998789 0.0908769 0.000190896
0 0.998786 0.22357 16.3273
0 0.998788 0.0908769 0.000140733
0 0.998786 0.0908777 0.000231892
0 0.998784 0.0908786 0.00027939
0 0.998786 0.0908779 0.000228301
0 0.998786 0.0908777 0.000345061
0 0.998785 0.090878 0.000226558
0 0.998787 0.223058 15.745
0 0.998787 0.0908775 0.000345114
0 0.998789 0.0908765 0.000136545
0 0.998788 0.0908767 0.00012948
0 0.998789 0.0908766 0.000128046
0 0.998788 0.0908766 8.38131e-05
0 0.998789 0.223765 15.8746
0 0.998787 0.0908773 0.000154983
0 0.998789 0.0908773 0.000321741
0 0.998788 0.0908773 0.0002219
0 0.998789 0.0908773 0.000278405
0 0.998789 0.0908764 0.000120269
0 0.998789 0.0908765 0.000142402
0 0.998789 0.0908766 0.000152833
0 0.998789 0.0908765 0.000160328
0 0.998789 0.0908769 0.000257926
0 0.998789 0.0908766 0.000187692
0 0.998787 0.222992 15.9184
0 0.998787 0.0908769 7.82456e-05
0 0.998786 0.0908776 0.000137404
0 0.998786 0.0908775 0.000279143
0 0.998787 0.0908774 0.00014898
0 0.998788 0.0908774 0.000403006
0 0.998787 0.0908774 0.000359208
0 0.99879 0.0908779 0.00063973
0 0.998789 0.0908764 0.000115353
0 0.998789 0.0908764 0.00012255
0 0.998789 0.0908764 0.000104884
0 0.998788 0.0908766 0.000100633
0 0.998788 0.0908766 2.6108e-05
0 0.998788 0.0908766 6.57596e-05
0 0.998789 0.0908764 9.37216e-05
0 0.998791 0.223405 15.4043
0 0.998787 0.0908772 0.000249628
0 0.998788 0.0908771 0.000205232
0 0.998789 0.0908769 0.000247112
0 0.998788 0.0908771 0.000235614
0 0.998789 0.0908764 0.000135182
0 0.998789 0.0908765 0.000171328
0 0.998789 0.0908767 0.000205522
0 0.998789 0.0908765 0.000182863
0 0.998787 0.0908775 0.000349343
0 0.998787 0.223096 16.2519
0 0.998787 0.0908768 5.13341e-05
0 0.998787 0.0908772 0.000204075
0 0.998788 0.0908776 0.000510624
0 0.998788 0.0908773 0.000335936
0 0.998791 0.0908786 0.000908069
0 0.998789 0.0908778 0.000675524
0 0.998788 0.0908766 6.24141e-05
0 0.998789 0.0908763 0.000128238
0 0.998789 0.0908763 0.000109103
0 0.998789 0.0908764 7.31318e-05
0 0.998788 0.0908765 4.6557e-05
0 0.998788 0.0908765 6.07745e-05
0 0.998789 0.0908763 6.55842e-05
0 0.998789 0.0908763 7.51402e-05
0 0.998791 0.0908789 0.00104495
0 0.998792 0.224189 16.273
0 0.998789 0.0908767 0.000192813
0 0.998788 0.0908771 0.000264779
0 0.998788 0.0908771 0.000234909
0 0.998789 0.0908768 0.000210666
0 0.998788 0.0908772 0.000320423
0 0.998789 0.0908764 0.000151514
0 0.998789 0.0908765 0.000176573
0 0.998789 0.0908764 0.000135749
0 0.998789 0.0908766 0.000189225
0 0.998788 0.0908773 0.000422727
0 0.998788 0.223023 15.5947
0 0.998788 0.0908768 0.000160932
0 0.998788 0.0908773 0.00041579
0 0.998789 0.090878 0.000785161
0 0.998788 0.0908775 0.000552159
0 0.998789 0.0908781 0.000738426
0 0.998788 0.0908766 0.000103004
0 0.998789 0.0908763 9.47885e-05
0 0.998788 0.0908764 5.37678e-05
0 0.998788 0.0908765 7.5676e-05
0 0.998789 0.0908763 5.85146e-05
0 0.998789 0.0908763 6.91882e-05
0 0.998788 0.0908793 0.000967328
0 0.998791 0.222529 14.7749
0 0.998789 0.0908766 0.000168414
0 0.998788 0.090877 0.000238613
0 0.998788 0.0908768 0.000189695
0 0.998788 0.0908771 0.000332798
0 0.998788 0.090877 0.000254406
0 0.998789 0.0908764 0.000141257
0 0.998789 0.0908765 0.000148288
0 0.998789 0.0908764 0.000115044
0 0.998789 0.0908766 0.000151075
0 0.998788 0.0908767 0.000169266
0 0.998788 0.0908771 0.0002979
0 0.998788 0.0908771 0.000267182
0 0.998788 0.22188 16.0556
0 0.998788 0.0908768 0.00023174
0 0.998788 0.0908775 0.000491847
0 0.998787 0.090878 0.00053538
0 0.998787 0.0908776 0.00045337
0 0.998788 0.0908767 0.000120702
0 0.998788 0.0908766 9.34894e-05
0 0.998789 0.0908764 8.39992e-05
0 0.998788 0.0908765 6.49469e-05
0 0.998788 0.0908764 6.39641e-05
0 0.998788 0.0908765 8.58259e-05
0 0.998788 0.0908764 7.00998e-05
0 0.998785 0.0908779 0.00033559
0 0.998785 0.090878 0.000376236
0 0.998786 0.222902 16.7536
0 0.998788 0.0908767 0.000175182
0 0.998788 0.0908769 0.00025026
0 0.998788 0.090877 0.000305606
0 0.998788 0.0908767 0.000168904
0 0.998789 0.0908764 0.00010311
0 0.998788 0.0908765 0.000133434
0 0.998788 0.0908772 0.000370046
0 0.998788 0.0908771 0.0002029
0 0.998787 0.222436 15.4695
0 0.998787 0.0908769 0.000204388
0 0.998787 0.0908774 0.000290471
0 0.998786 0.0908777 0.000269632
0 0.998787 0.0908767 0.000128485
0 0.998788 0.0908766 9.73418e-05
0 0.998788 0.0908765 0.000102524
0 0.998788 0.0908766 0.000107479
0 0.998788 0.0908765 7.75112e-05
0 0.998788 0.0908766 8.87817e-05
0 0.998784 0.090878 0.000301149
0 0.998784 0.0908777 0.000223464
0 0.998784 0.221539 15.7542
0 0.998788 0.0908767 0.000204611
0 0.998788 0.090877 0.000347418
0 0.998788 0.0908766 0.000164703
0 0.998788 0.0908765 0.000120842
0 0.998788 0.0908773 0.000469138
0 0.998789 0.0908775 0.000539932
0 0.998789 0.0908776 0.000452087
0 0.998788 0.22424 15.735
0 0.998786 0.090877 0.00017346
0 0.998785 0.0908776 0.000278441
0 0.998787 0.0908768 0.000132582
0 0.998787 0.0908767 0.000114425
0 0.998788 0.0908766 0.00013265
0 0.998788 0.0908767 0.000129731
0 0.998787 0.0908767 0.000111757
0 0.998787 0.0908768 0.000123166
0 0.998784 0.0908779 0.000352739
0 0.998783 0.0908784 0.000384697
0 0.998783 0.0908784 0.000408296
0 0.998784 0.220318 16.5204
0 0.998788 0.0908768 0.000249889
0 0.998788 0.0908766 0.000169451
0 0.998788 0.0908774 0.00049099
0 0.998789 0.0908778 0.000654816
0 0.99879 0.0908781 0.000700357
0 0.99879 0.224319 16.2958
0 0.998786 0.0908771 0.0002006
0 0.998787 0.0908768 0.000130156
0 0.998788 0.0908767 0.000169635
0 0.998787 0.0908768 0.000156878
0 0.998787 0.0908768 0.00013138
0 0.998784 0.0908778 0.000341437
0 0.998782 0.0908784 0.000375177
0 0.998781 0.0908794 0.000668248
0 0.998781 0.221905 15.9195
0 0.998788 0.0908769 0.000285872
0 0.998788 0.0908776 0.000550338
0 0.998789 0.0908779 0.000685865
0 0.99879 0.0908782 0.000678261
0 0.998791 0.222454 15.5263
0 0.998786 0.0908771 0.00019721
0 0.998787 0.090877 0.000232599
0 0.998786 0.090877 0.000185342
0 0.998784 0.0908779 0.000329379
0 0.998783 0.0908785 0.000322654
0 0.998781 0.0908793 0.000527995
0 0.998779 0.222256 16.2451
0 0.998787 0.0908776 0.000451555
0 0.998788 0.090878 0.000668852
0 0.998789 0.0908784 0.000691478
0 0.99879 0.221632 15.9596
0 0.998786 0.0908777 0.000390127
0 0.998785 0.0908776 0.000277642
0 0.998786 0.0908776 0.00027475
0 0.998785 0.0908777 0.000271311
0 0.998784 0.0908782 0.000241779
0 0.998783 0.0908788 4.83647e-05
0 0.998782 0.221923 16.0029
0 0.998787 0.0908782 0.000634592
0 0.998788 0.0908795 0.00100492
0 0.99879 0.222061 14.4541
0 0.998785 0.0908782 0.000425847
0 0.998784 0.090878 0.000262546
0 0.998784 0.090878 0.000276482
0 0.998783 0.0908786 0.00024323
0 0.998783 0.21892 16.9382
0 0.998785 0.0908791 0.00081185
0 0.998787 0.222165 16.919
0 0.998784 0.0908783 0.000221423
0 0.998784 0.0908777 0.000184203
0 0.998783 0.220518 15.601
0 0.998783 0.222349 16.498
0 0.998783 0.221731 15.6172
VECTORS fa_u float
0.000474676 0.000198397 0
0.000451346 0.000260704 0
0.000443928 0.000118263 0
0.000530015 6.90851e-05 0
9.13813e-09 -8.48132e-10 0
0.00041777 0.000320343 0
0.000366048 0.000366777 0
8.58306e-09 2.37028e-09 0
9.73071e-09 2.54677e-09 0
0.000316926 0.000411255 0
0.000271369 0.000469816 0
0.000527544 -7.35711e-07 0
0.000500208 -6.68778e-05 0
1.7863e-08 -3.57017e-09 0
1.9305e-08 7.3747e-09 0
1.43882e-08 1.42797e-09 0
1.11412e-08 1.74327e-09 0
8.15423e-09 -2.44084e-09 0
2.47969e-09 4.32958e-10 0
9.22167e-09 2.18021e-09 0
7.18659e-09 1.09992e-09 0
0.000178178 0.000431808 0
0.000135015 0.000504965 0
4.96791e-09 -1.47924e-08 0
-2.06114e-08 -9.37289e-09 0
1.48745e-08 5.42568e-09 0
0.000504041 -0.000133364 0
1.26612e-08 1.17313e-08 0
0.000400924 -0.00016509 0
1.65649e-08 2.56202e-09 0
1.53847e-08 4.82296e-09 0
1.23932e-08 2.50339e-09 0
6.26462e-05 0.000474013 0
9.95693e-09 2.58756e-09 0
8.91695e-09 2.41841e-09 0
4.09976e-09 1.92082e-11 0
2.71165e-10 -2.95449e-09 0
6.15113e-09 2.3187e-09 0
4.26905e-09 1.65597e-09 0
-1.27739e-08 6.82829e-10 0
-2.97028e-09 2.66845e-09 0
-5.27926e-09 -2.57124e-09 0
-8.99559e-09 1.53167e-09 0
-2.03723e-07 0.000507309 0
1.20656e-08 7.19592e-09 0
-6.70962e-10 2.5871e-08 0
5.55888e-09 1.21141e-08 0
0.000458744 -0.000266815 0
-1.7247e-08 1.74588e-08 0
0.000456676 -0.000352454 0
1.16895e-08 2.92964e-09 0
1.12961e-08 4.2975e-09 0
6.55844e-09 2.52769e-09 0
-1.3637e-09 3.75288e-09 0
3.72281e-09 7.11747e-09 0
5.37495e-09 2.40619e-09 0
1.37383e-09 1.27122e-09 0
-1.54007e-09 1.04186e-09 0
2.92421e-09 2.50469e-09 0
-4.79393e-09 6.17674e-09 0
-4.72979e-10 8.52792e-09 0
-2.94749e-09 4.0933e-09 0
-3.13855e-09 7.3515e-09 0
-6.52744e-05 0.000498868 0
6.99523e-09 5.58459e-09 0
-3.63236e-09 1.40518e-08 0
2.39997e-09 8.14376e-09 0
-1.57829e-08 -5.5342e-10 0
-9.28338e-09 8.46928e-09 0
0.000347978 -0.000347475 0
-7.05083e-09 -9.09347e-09 0
0.000315743 -0.000410525 0
4.35484e-09 2.53149e-09 0
5.62033e-09 3.09452e-09 0
4.21138e-09 2.5684e-09 0
2.41843e-09 9.06584e-09 0
7.19905e-09 4.55168e-09 0
4.21806e-09 8.18984e-09 0
3.4651e-09 2.95763e-09 0
3.53028e-09 2.95333e-09 0
4.05145e-10 3.16615e-09 0
2.15659e-09 3.69324e-09 0
-2.41673e-10 9.5411e-09 0
1.54521e-09 1.05498e-08 0
-9.41241e-11 6.07356e-09 0
-0.000135015 0.000501682 0
2.14565e-09 3.93061e-09 0
-2.13868e-09 7.06205e-09 0
-8.85871e-09 7.47308e-10 0
-5.54724e-09 4.69059e-09 0
-1.79588e-09 -1.08319e-08 0
-5.23585e-09 -4.95546e-09 0
0.00025106 -0.000433561 0
-2.33933e-10 -1.0979e-08 0
3.52772e-09 2.53633e-09 0
3.12853e-09 2.68089e-09 0
3.4244e-09 2.20776e-09 0
1.70771e-09 2.04847e-09 0
0.000193112 -0.000466758 0
-3.9214e-09 2.99042e-09 0
2.8258e-09 9.84008e-09 0
1.94377e-09 6.78803e-09 0
2.61578e-09 8.46382e-09 0
2.56896e-09 2.83653e-09 0
2.67836e-09 3.6549e-09 0
1.14536e-09 4.72632e-09 0
2.11306e-09 4.64344e-09 0
1.39538e-09 8.08768e-09 0
1.21397e-09 5.84766e-09 0
-0.000193911 0.000467936 0
-8.66091e-10 2.33427e-09 0
-4.32526e-09 6.38826e-10 0
-2.28394e-09 -8.58365e-09 0
-3.03555e-09 -3.64117e-09 0
-2.42972e-09 -1.25913e-08 0
-1.27305e-09 -1.13589e-08 0
-5.42053e-09 -1.96212e-08 0
2.50935e-09 2.67878e-09 0
2.34327e-09 3.11698e-09 0
2.53552e-09 2.17012e-09 0
2.56757e-09 1.91344e-09 0
8.12593e-10 1.72764e-10 0
1.84226e-09 9.92209e-10 0
2.26185e-09 1.94362e-09 0
0.000126425 -0.000473578 0
-8.10928e-10 7.90165e-09 0
-7.71064e-10 6.48479e-09 0
1.75363e-09 7.66505e-09 0
9.17136e-10 7.4409e-09 0
2.0188e-09 3.79832e-09 0
1.60576e-09 5.20978e-09 0
1.47268e-09 6.37171e-09 0
1.43706e-09 5.63844e-09 0
-9.77292e-09 5.29686e-09 0
-0.000258331 0.000447986 0
-7.08723e-10 -1.47169e-09 0
-1.05954e-09 -6.40661e-09 0
-1.23015e-09 -1.62014e-08 0
-1.44028e-10 -1.06885e-08 0
-1.46084e-09 -2.88577e-08 0
4.64861e-10 -2.14901e-08 0
8.29562e-10 -1.80446e-09 0
1.80689e-09 3.65868e-09 0
2.06201e-09 2.79292e-09 0
2.0021e-09 1.18606e-09 0
1.48056e-09 -5.10951e-11 0
1.48055e-09 -1.24407e-09 0
1.82685e-09 1.00881e-09 0
1.543e-09 1.82642e-09 0
9.56504e-09 -3.18447e-08 0
6.76799e-05 -0.000513362 0
9.57035e-10 6.06019e-09 0
-3.86565e-09 7.48609e-09 0
-1.13085e-09 7.38876e-09 0
5.40444e-10 6.68154e-09 0
-6.22409e-09 8.07562e-09 0
1.44509e-09 4.5995e-09 0
1.20165e-09 5.48855e-09 0
1.29364e-09 4.12127e-09 0
4.14321e-10 6.00686e-09 0
-6.70911e-09 1.16585e-08 0
-0.000302694 0.000393207 0
6.93486e-10 -5.07366e-09 0
1.27217e-09 -1.31691e-08 0
5.35554e-09 -2.4403e-08 0
3.38242e-09 -1.7241e-08 0
1.19863e-08 -2.02095e-08 0
1.66905e-09 -2.82078e-09 0
1.10764e-09 2.80542e-09 0
1.70176e-09 1.765e-10 0
2.13157e-09 -1.12022e-09 0
1.55946e-09 1.01728e-09 0
9.41928e-10 1.98989e-09 0
2.51862e-08 -1.76941e-08 0
5.38104e-07 -0.000470135 0
-6.5915e-10 5.31824e-09 0
-3.23394e-09 6.86948e-09 0
-1.48494e-09 5.85056e-09 0
-7.16401e-09 7.79851e-09 0
-5.0173e-09 6.35284e-09 0
9.37541e-10 4.39591e-09 0
4.89021e-10 4.69309e-09 0
4.26749e-10 3.63574e-09 0
-8.54021e-10 4.73071e-09 0
-2.10486e-09 4.95772e-09 0
-7.9051e-09 5.23103e-09 0
-4.94807e-09 6.91346e-09 0
-0.000361426 0.00036108 0
2.76438e-09 -6.83619e-09 0
6.09887e-09 -1.44133e-08 0
1.27638e-08 -1.12828e-08 0
8.4804e-09 -1.16704e-08 0
3.15614e-09 -2.18861e-09 0
2.91977e-09 -5.6966e-10 0
1.39408e-11 2.67281e-09 0
2.02136e-09 4.3005e-10 0
1.54994e-09 1.31919e-09 0
1.61461e-10 2.72619e-09 0
9.28359e-10 2.0282e-09 0
9.49263e-09 -4.89071e-09 0
1.1368e-08 -3.75392e-09 0
-6.96807e-05 -0.000528523 0
-3.03967e-09 4.67259e-09 0
-5.99513e-09 5.24136e-09 0
-8.66475e-09 4.41422e-09 0
-3.44392e-09 4.1261e-09 0
-6.45841e-10 3.21677e-09 0
-2.22994e-09 3.61314e-09 0
-1.1533e-08 2.37396e-09 0
-6.20085e-09 1.79803e-09 0
-0.00039017 0.000300112 0
4.85838e-09 -4.32353e-09 0
7.66353e-09 -5.1671e-09 0
8.48177e-09 -1.29235e-09 0
4.05317e-09 -5.35415e-10 0
2.9886e-09 8.13751e-10 0
-1.05862e-09 3.08575e-09 0
-8.93588e-10 3.30117e-09 0
1.81116e-09 1.67416e-09 0
4.83573e-10 2.78333e-09 0
9.27693e-09 -2.40076e-09 0
3.80683e-09 -6.00574e-09 0
-0.00013221 -0.000483549 0
-5.29734e-09 3.78518e-09 0
-1.04798e-08 3.51902e-09 0
-4.05124e-09 3.32474e-09 0
-2.32186e-09 3.06503e-09 0
-1.45314e-08 3.41788e-09 0
-1.70449e-08 2.15484e-09 0
-1.39434e-08 -3.53848e-09 0
-0.000433862 0.000249905 0
5.51923e-09 5.35507e-11 0
8.43885e-09 2.69903e-09 0
4.00288e-09 1.33218e-09 0
2.94632e-09 2.13914e-09 0
-2.22493e-09 3.58691e-09 0
-1.1932e-09 3.95183e-09 0
1.8365e-09 3.04519e-09 0
3.08178e-10 3.907e-09 0
9.38786e-09 6.15218e-09 0
1.20698e-08 2.04022e-09 0
9.33981e-09 -9.03097e-09 0
-0.000201736 -0.000485427 0
-7.19281e-09 3.38954e-09 0
-3.99132e-09 3.62521e-09 0
-1.50931e-08 4.03536e-09 0
-2.05006e-08 3.72423e-09 0
-2.22804e-08 -4.69573e-10 0
-0.000479148 0.000198218 0