# vtk DataFile Version 2.0
CellBP Time: 3.6
ASCII
DATASET UNSTRUCTURED_GRID
POINTS 296 double
-9.18257 -3.77425 0
-8.60443 -4.94664 0
-9.60274 -2.53644 0
-9.85782 -1.25439 0
-8.35806 -2.81887 0
-7.87821 -6.03352 0
-7.01632 -7.01631 0
-7.9177 -3.87494 0
-7.34311 -4.86814 0
-6.03354 -7.87822 0
-4.94661 -8.60438 0
-9.94328 0.0499996 0
-9.85781 1.35439 0
-8.65817 -1.68403 0
-8.78681 -0.529655 0
-7.59019 -2.00427 0
-7.22622 -2.90667 0
-6.63807 -5.77925 0
-5.82279 -6.59733 0
-6.79073 -3.88917 0
-6.22101 -4.67624 0
-3.77424 -9.18253 0
-2.53646 -9.60275 0
-4.9068 -7.30929 0
-3.91327 -7.88676 0
-8.79327 0.643435 0
-9.60274 2.63646 0
-8.62379 1.77418 0
-9.18264 3.87429 0
-7.74481 -0.929039 0
-7.79503 0.0802594 0
-6.95302 -1.31596 0
-1.25438 -9.85777 0
-6.44191 -2.15326 0
-6.31981 -3.05633 0
-5.53693 -5.47496 0
-4.79625 -6.11591 0
-5.65942 -3.75726 0
-5.26977 -4.56191 0
-2.86636 -8.3645 0
-1.77868 -8.64083 0
-3.92842 -6.72404 0
-3.05684 -7.15313 0
0.0499996 -9.9433 0
-7.70604 1.14359 0
-8.33912 2.91561 0
-7.55244 2.11211 0
-8.6044 5.04662 0
-7.8806 3.9785 0
-7.87817 6.13351 0
-6.77917 -0.396882 0
-6.95704 0.552581 0
-5.77177 -1.00347 0
-0.590878 -8.81033 0
0.565721 -8.77152 0
-5.30346 -2.48043 0
-4.49229 -5.0961 0
-3.90279 -5.77575 0
-4.4392 -3.805 0
-2.06257 -7.56253 0
-1.13557 -7.78645 0
-2.99477 -6.10252 0
-2.3092 -6.6203 0
1.35439 -9.85782 0
-6.68995 1.42215 0
-7.17274 3.11836 0
-6.65977 2.37319 0
-7.29528 4.98903 0
-6.71863 4.00338 0
-7.01637 7.11638 0
-6.57301 5.89461 0
-6.03353 7.97822 0
-4.45338 -1.18114 0
-5.81499 0.513792 0
-4.65644 -0.0103823 0
0.00852172 -7.84875 0
1.7387 -8.6445 0
0.949042 -7.7641 0
-4.03876 -2.40653 0
-3.48576 -1.39128 0
-3.29473 -4.80567 0
-3.26607 -3.26799 0
-1.37869 -6.676 0
-0.508782 -7.02553 0
-1.97569 -5.53743 0
2.63645 -9.60277 0
-5.50773 2.03707 0
-6.09523 3.07247 0
-6.10565 4.87008 0
-5.76225 3.99184 0
-5.76182 6.71776 0
-5.45266 5.61991 0
-4.94665 8.70445 0
-4.83893 7.40528 0
-3.50171 -0.42433 0
-4.4496 1.24912 0
-3.7117 0.59211 0
-4.06245 2.31997 0
-3.77427 9.28261 0
2.86287 -8.33364 0
0.419726 -6.79606 0
2.02222 -7.52659 0
1.30621 -6.90625 0
-2.44481 -0.873866 0
-2.83856 -2.13127 0
-2.29456 -4.09766 0
-2.3258 -2.97379 0
-0.442421 -5.86165 0
-1.22281 -4.49946 0
3.87427 -9.18262 0
-4.7902 3.39208 0
-5.08845 4.59461 0
-4.64768 6.28212 0
-4.53935 5.3603 0
-3.84415 7.99422 0
-3.82718 6.84649 0
-2.78361 8.42377 0
-1.64915 -0.137908 0
-1.45035 -0.890641 0
-2.48927 0.507287 0
-3.25384 1.44425 0
-3.23927 3.31681 0
-2.91118 2.37193 0
-1.35519 0.627143 0
-2.53646 9.70281 0
3.93313 -7.88785 0
2.96488 -7.15856 0
0.954178 -5.82257 0
2.07457 -6.41623 0
-1.68307 -1.99218 0
-1.43453 -3.278 0
0.0902259 -4.74737 0
-0.566214 -3.69469 0
4.93271 -7.31965 0
5.04665 -8.60445 0
-3.7773 4.55205 0
-3.73518 5.75279 0
-2.88832 7.29075 0
-3.01005 6.35448 0
-1.66275 8.7347 0
-1.94035 7.6203 0
-2.33857 4.05201 0
-0.730774 -1.32733 0
-0.836946 -0.257641 0
-1.93633 1.68088 0
-2.12592 2.87605 0
-1.30667 3.54496 0
-0.869512 1.35091 0
-0.282383 0.456074 0
-0.533584 8.87278 0
-1.25439 9.9578 0
1.11288 -4.575 0
3.91063 -6.71816 0
2.98828 -6.09552 0
2.11808 -5.42554 0
4.78507 -6.20619 0
-0.558888 -2.47698 0
0.495147 -3.4641 0
0.0535557 -1.61058 0
1.48202 -3.68247 0
5.86795 -6.61555 0
6.13354 -7.87823 0
-2.47594 5.34905 0
-2.13072 6.53528 0
-0.904193 7.80436 0
-1.27251 6.93297 0
0.0862155 7.88148 0
-1.14456 4.49512 0
0.150329 -0.617681 0
-0.797481 2.48867 0
-0.331675 3.60102 0
0.0631095 1.51282 0
0.741481 0.473449 0
0.646873 8.87547 0
0.050001 10.0433 0
2.38125 -4.28568 0
3.8597 -5.64122 0
3.00183 -5.21341 0
5.57461 -5.49266 0
4.69171 -5.28383 0
0.629717 -2.29352 0
1.25628 -2.95146 0
0.757547 -1.39154 0
2.16454 -3.13611 0
2.9941 -3.47696 0
6.15617 -4.79257 0
6.65662 -5.77021 0
7.11634 -7.01635 0
-1.01975 5.82105 0
-0.372671 6.88459 0
1.12281 7.77081 0
0.558059 7.08089 0
-0.000765346 4.72568 0
0.607058 3.82819 0
1.33901 -0.641938 0
0.53914 2.65126 0
0.966151 1.57505 0
1.91034 0.213883 0
1.61489 1.06511 0
2.12977 7.5849 0
1.79951 8.71385 0
1.35439 9.9578 0
3.82334 -4.35219 0
5.11741 -4.44975 0
5.84675 -3.93582 0
3.78447 -3.20146 0
1.81244 -1.88278 0
3.01949 -2.57417 0
6.78463 -3.9486 0
7.38278 -4.89768 0
7.97824 -6.03356 0
0.483426 5.88238 0
1.42842 6.74309 0
2.37478 6.67033 0
1.21013 4.55675 0
1.48834 3.39801 0
2.43604 -0.692088 0
2.82836 0.14262 0
1.78907 2.16306 0
2.61217 1.15027 0
3.07264 7.17156 0
2.90479 8.37846 0
2.63647 9.70282 0
4.91207 -3.32842 0
6.12187 -3.10927 0
4.17346 -2.27557 0
3.24484 -1.50308 0
6.73275 -2.31351 0
7.23362 -3.04319 0
7.96658 -3.91307 0
8.70441 -4.94663 0
2.02396 5.60078 0
3.08717 6.15493 0
2.36426 4.12752 0
2.4204 3.06129 0
3.52616 -0.460918 0
3.61621 0.613373 0
2.96224 2.28839 0
3.54611 1.52549 0
4.01318 5.8996 0
3.98553 6.79499 0
3.97434 7.94077 0
3.87429 9.28264 0
5.56994 -1.91653 0
4.50997 -1.12978 0
6.71566 -1.33644 0
7.59461 -2.03696 0
8.39943 -2.86212 0
9.2826 -3.77428 0
3.41987 4.87808 0
3.3396 3.38598 0
4.69211 0.130099 0
4.52001 1.31021 0
4.06608 2.44426 0
4.57198 5.15405 0
4.84528 6.19282 0
4.98202 7.38279 0
5.04666 8.70446 0
5.88495 -0.435004 0
7.01312 -0.488391 0
7.76211 -1.08563 0
8.68761 -1.74648 0
9.70279 -2.53647 0
4.55368 3.82861 0
5.81939 1.09889 0
5.37279 2.53565 0
5.3821 4.62232 0
5.61431 5.52565 0
5.89935 6.67434 0
6.13355 7.97824 0
6.84862 0.463702 0
7.85636 -0.0256463 0
8.86366 -0.584548 0
9.95785 -1.25439 0
6.96328 1.34998 0
5.72336 3.77995 0
6.54409 2.19837 0
6.38288 3.08927 0
6.29515 4.68899 0
6.69581 5.8402 0
7.11632 7.11632 0
7.78765 0.968013 0
8.86301 0.572976 0
10.0433 0.05 0
7.61956 2.00517 0
6.83226 3.90602 0
7.27283 2.94811 0
7.38147 4.88785 0
7.97829 6.13359 0
8.72661 1.72762 0
9.95779 1.35439 0
8.42453 2.83896 0
7.98502 3.91796 0
8.70449 5.04667 0
9.70281 2.63646 0
9.28266 3.87429 0
CELLS 542 2168
3 2 0 4
3 0 1 7
3 4 0 7
3 1 5 8
3 7 1 8
3 3 2 13
3 13 2 4
3 11 3 14
3 14 3 13
3 13 4 15
3 4 7 16
3 15 4 16
3 5 6 17
3 8 5 17
3 6 9 18
3 17 6 18
3 7 8 19
3 16 7 19
3 8 17 20
3 19 8 20
3 9 10 23
3 18 9 23
3 10 21 24
3 23 10 24
3 12 11 25
3 25 11 14
3 26 12 27
3 27 12 25
3 14 13 29
3 29 13 15
3 25 14 30
3 30 14 29
3 29 15 31
3 15 16 33
3 31 15 33
3 16 19 34
3 33 16 34
3 17 18 35
3 20 17 35
3 18 23 36
3 35 18 36
3 19 20 37
3 34 19 37
3 20 35 38
3 37 20 38
3 21 22 39
3 24 21 39
3 22 32 40
3 39 22 40
3 23 24 41
3 36 23 41
3 24 39 42
3 41 24 42
3 27 25 44
3 44 25 30
3 28 26 45
3 45 26 27
3 45 27 46
3 46 27 44
3 47 28 48
3 48 28 45
3 30 29 50
3 50 29 31
3 44 30 51
3 51 30 50
3 50 31 52
3 31 33 52
3 32 43 53
3 40 32 53
3 53 43 54
3 33 34 55
3 34 37 55
3 33 55 52
3 35 36 56
3 38 35 56
3 36 41 57
3 56 36 57
3 37 38 58
3 38 56 58
3 37 58 55
3 39 40 59
3 42 39 59
3 40 53 60
3 59 40 60
3 41 42 61
3 57 41 61
3 42 59 62
3 61 42 62
3 43 63 54
3 46 44 64
3 64 44 51
3 48 45 65
3 65 45 46
3 65 46 66
3 66 46 64
3 49 47 67
3 67 47 48
3 67 48 68
3 68 48 65
3 69 49 70
3 70 49 67
3 52 55 72
3 64 51 73
3 51 50 73
3 50 52 73
3 73 52 74
3 74 52 72
3 53 54 75
3 60 53 75
3 54 63 76
3 54 76 77
3 75 54 77
3 55 58 78
3 72 55 78
3 72 78 79
3 56 57 80
3 57 61 80
3 56 80 58
3 58 80 81
3 78 58 81
3 59 60 82
3 62 59 82
3 60 75 83
3 82 60 83
3 61 62 84
3 62 82 84
3 61 84 80
3 63 85 76
3 66 64 86
3 64 73 86
3 68 65 87
3 87 65 66
3 87 66 86
3 70 67 88
3 88 67 68
3 88 68 89
3 89 68 87
3 71 69 90
3 90 69 70
3 90 70 91
3 91 70 88
3 92 71 93
3 93 71 90
3 74 72 94
3 94 72 79
3 86 73 95
3 95 73 74
3 95 74 96
3 96 74 94
3 97 86 95
3 76 85 99
3 75 77 100
3 83 75 100
3 76 99 101
3 77 76 101
3 77 101 102
3 100 77 102
3 94 79 103
3 78 81 104
3 79 78 104
3 79 104 103
3 80 84 105
3 81 80 105
3 81 105 106
3 104 81 106
3 82 83 107
3 83 100 107
3 82 107 84
3 84 107 108
3 105 84 108
3 85 109 99
3 89 87 110
3 87 86 110
3 110 86 97
3 91 88 111
3 111 88 89
3 111 89 110
3 93 90 112
3 112 90 91
3 112 91 113
3 113 91 111
3 98 92 114
3 114 92 93
3 114 93 115
3 115 93 112
3 116 98 114
3 117 103 118
3 96 94 119
3 94 103 119
3 119 103 117
3 97 95 120
3 120 95 96
3 120 96 119
3 121 110 97
3 121 97 122
3 122 97 120
3 123 119 117
3 124 98 116
3 99 109 125
3 99 125 126
3 101 99 126
3 100 102 127
3 100 127 107
3 101 126 128
3 102 101 128
3 102 128 127
3 104 106 129
3 104 129 103
3 103 129 118
3 105 108 130
3 106 105 130
3 106 130 129
3 107 127 131
3 108 107 131
3 108 131 132
3 108 132 130
3 109 134 125
3 125 134 133
3 113 111 135
3 111 110 135
3 135 110 121
3 115 112 136
3 136 112 113
3 136 113 135
3 116 114 137
3 137 114 115
3 137 115 138
3 138 115 136
3 139 124 116
3 139 116 140
3 140 116 137
3 141 135 121
3 118 129 142
3 118 142 143
3 117 118 143
3 123 117 143
3 122 120 144
3 120 119 144
3 144 119 123
3 141 121 145
3 145 121 122
3 145 122 144
3 146 141 145
3 147 144 123
3 147 123 148
3 143 148 123
3 150 124 139
3 149 150 139
3 131 127 151
3 125 133 152
3 126 125 152
3 126 152 153
3 128 126 153
3 128 153 154
3 128 154 127
3 127 154 151
3 152 133 155
3 130 132 156
3 130 156 129
3 129 156 142
3 131 151 157
3 132 131 157
3 132 157 156
3 156 158 142
3 157 151 159
3 133 160 155
3 134 161 133
3 133 161 160
3 138 136 162
3 136 135 162
3 162 135 141
3 140 137 163
3 163 137 138
3 163 138 162
3 149 139 164
3 164 139 140
3 164 140 165
3 165 140 163
3 166 149 164
3 167 162 141
3 167 141 146
3 142 158 168
3 143 142 168
3 143 168 148
3 146 145 169
3 145 144 169
3 169 144 147
3 170 167 146
3 170 146 169
3 171 169 147
3 171 147 148
3 171 148 172
3 168 172 148
3 173 149 166
3 174 150 149
3 173 174 149
3 154 175 151
3 151 175 159
3 152 155 176
3 153 152 176
3 153 176 177
3 153 177 154
3 154 177 175
3 155 160 178
3 155 178 179
3 176 155 179
3 156 157 180
3 156 180 158
3 157 159 181
3 157 181 180
3 158 180 182
3 158 182 168
3 159 175 183
3 159 183 181
3 175 184 183
3 160 186 178
3 178 186 185
3 161 187 160
3 160 187 186
3 165 163 188
3 163 162 188
3 188 162 167
3 166 164 189
3 189 164 165
3 189 165 188
3 190 173 166
3 190 166 191
3 191 166 189
3 192 188 167
3 192 167 170
3 193 192 170
3 182 194 168
3 194 172 168
3 193 170 195
3 170 169 195
3 195 169 171
3 196 195 171
3 196 171 172
3 194 197 172
3 197 198 172
3 198 196 172
3 200 173 190
3 199 200 190
3 201 174 173
3 200 201 173
3 176 179 202
3 177 176 202
3 177 202 175
3 175 202 184
3 178 185 203
3 178 203 179
3 179 203 202
3 203 185 204
3 202 205 184
3 183 206 181
3 180 181 206
3 180 206 182
3 182 206 194
3 183 184 207
3 205 207 184
3 183 207 206
3 185 208 204
3 186 209 185
3 185 209 208
3 187 210 186
3 186 210 209
3 191 189 211
3 189 188 211
3 211 188 192
3 199 190 212
3 212 190 191
3 212 191 211
3 213 199 212
3 214 211 192
3 214 192 193
3 215 214 193
3 215 193 195
3 206 216 194
3 216 197 194
3 216 217 197
3 215 195 218
3 218 195 196
3 198 218 196
3 217 219 197
3 219 218 198
3 197 219 198
3 220 199 213
3 221 200 199
3 220 221 199
3 222 201 200
3 221 222 200
3 203 204 223
3 203 223 202
3 202 223 205
3 204 208 224
3 204 224 223
3 205 223 225
3 205 225 207
3 207 225 226
3 207 226 206
3 226 216 206
3 208 228 224
3 224 228 227
3 209 229 208
3 229 228 208
3 210 230 209
3 209 230 229
3 213 212 231
3 212 211 231
3 231 211 214
3 232 220 213
3 232 213 231
3 233 231 214
3 233 214 215
3 234 233 215
3 234 215 218
3 226 235 216
3 235 217 216
3 235 236 217
3 217 236 219
3 237 234 218
3 237 218 219
3 236 238 219
3 238 237 219
3 240 220 232
3 239 240 232
3 241 221 220
3 240 241 220
3 242 222 221
3 241 242 221
3 224 227 243
3 224 243 223
3 223 243 225
3 225 243 244
3 225 244 226
3 226 244 235
3 227 245 243
3 228 246 227
3 227 246 245
3 229 247 228
3 228 247 246
3 230 248 229
3 229 248 247
3 239 232 249
3 232 231 249
3 249 231 233
3 250 249 233
3 250 233 234
3 237 250 234
3 244 251 235
3 235 251 236
3 251 252 236
3 236 252 238
3 252 253 238
3 253 250 237
3 253 237 238
3 254 239 249
3 255 240 239
3 254 255 239
3 256 241 240
3 255 256 240
3 257 242 241
3 256 257 241
3 245 258 243
3 243 258 244
3 244 258 251
3 245 259 258
3 246 260 245
3 245 260 259
3 247 261 246
3 246 261 260
3 248 262 247
3 247 262 261
3 254 249 263
3 263 249 250
3 253 263 250
3 258 264 251
3 251 264 252
3 264 265 252
3 265 263 253
3 252 265 253
3 266 254 263
3 267 255 254
3 266 267 254
3 268 256 255
3 267 268 255
3 269 257 256
3 268 269 256
3 259 270 258
3 270 264 258
3 260 271 259
3 259 271 270
3 261 272 260
3 260 272 271
3 262 273 261
3 273 272 261
3 270 274 264
3 275 266 263
3 275 263 265
3 274 276 264
3 276 265 264
3 276 277 265
3 277 275 265
3 278 267 266
3 275 278 266
3 279 268 267
3 278 279 267
3 280 269 268
3 279 280 268
3 271 281 270
3 270 281 274
3 272 282 271
3 271 282 281
3 273 283 272
3 272 283 282
3 281 284 274
3 274 284 276
3 285 278 275
3 277 285 275
3 284 286 276
3 286 285 277
3 276 286 277
3 287 279 278
3 285 287 278
3 288 280 279
3 287 288 279
3 282 289 281
3 281 289 284
3 283 290 282
3 282 290 289
3 289 291 284
3 284 291 286
3 291 292 286
3 292 287 285
3 286 292 285
3 293 288 287
3 292 293 287
3 290 294 289
3 289 294 291
3 294 295 291
3 295 293 292
3 291 295 292
CELL_TYPES 542
5
5
5
5
5
5
5
5
5
5
5
5
5
5
5
5
5
5
5
5
5
5
5
5
5
5
5
5
5
5
5
5
5
5
5
5
5
5
5
5
5
5
5
5
5
5
5
5
5
5
5
5
5
5
5
5
5
5
5
5
5
5
5
5
5
5
5
5
5
5
5
5
5
5
5
5
5
5
5
5
5
5
5
5
5
5
5
5
5
5
5
5
5
5
5
5
5
5
5
5
5
5
5
5
5
5
5
5
5
5
5
5
5
5
5
5
5
5
5
5
5
5
5
5
5
5
5
5
5
5
5
5
5
5
5
5
5
5
5
5
5
5
5
5
5
5
5
5
5
5
5
5
5
5
5
5
5
5
5
5
5
5
5
5
5
5
5
5
5
5
5
5
5
5
5
5
5
5
5
5
5
5
5
5
5
5
5
5
5
5
5
5
5
5
5
5
5
5
5
5
5
5
5
5
5
5
5
5
5
5
5
5
5
5
5
5
5
5
5
5
5
5
5
5
5
5
5
5
5
5
5
5
5
5
5
5
5
5
5
5
5
5
5
5
5
5
5
5
5
5
5
5
5
5
5
5
5
5
5
5
5
5
5
5
5
5
5
5
5
5
5
5
5
5
5
5
5
5
5
5
5
5
5
5
5
5
5
5
5
5
5
5
5
5
5
5
5
5
5
5
5
5
5
5
5
5
5
5
5
5
5
5
5
5
5
5
5
5
5
5
5
5
5
5
5
5
5
5
5
5
5
5
5
5
5
5
5
5
5
5
5
5
5
5
5
5
5
5
5
5
5
5
5
5
5
5
5
5
5
5
5
5
5
5
5
5
5
5
5
5
5
5
5
5
5
5
5
5
5
5
5
5
5
5
5
5
5
5
5
5
5
5
5
5
5
5
5
5
5
5
5
5
5
5
5
5
5
5
5
5
5
5
5
5
5
5
5
5
5
5
5
5
5
5
5
5
5
5
5
5
5
5
5
5
5
5
5
5
5
5
5
5
5
5
5
5
5
5
5
5
5
5
5
5
5
5
5
5
5
5
5
5
5
5
5
5
5
5
5
5
5
5
5
5
5
5
5
5
5
5
5
5
5
5
5
5
5
5
5
5
5
5
5
5
5
5
5
5
5
5
5
5
5
5
5
5
5
5
5
5
5
5
5
5
5
5
5
5
5
5
5
5
5
5
5
5
5
5
5
5
5
5
5
5
5
5
5
5
5
5
5
5
POINT_DATA 296
SCALARS concentrations float 4
LOOKUP_TABLE default
0 0.998658 0.22718 16.3336
0 0.99866 0.226866 16.0216
0 0.998656 0.225818 16.7309
0 0.998657 0.225079 15.0373
0 0.998657 0.0908786 0.000490226
0 0.998661 0.22626 15.9005
0 0.998661 0.225738 16.3537
0 0.998659 0.0908774 0.000215618
0 0.998661 0.0908774 0.000288888
0 0.998661 0.225611 15.3981
0 0.998661 0.225633 17.8266
0 0.99866 0.224165 16.4725
0 0.998661 0.224475 15.6607
0 0.998657 0.0908792 0.000543517
0 0.998659 0.0908785 0.000368293
0 0.998659 0.0908778 0.000186317
0 0.99866 0.0908775 0.000138338
0 0.998661 0.0908778 0.00036347
0 0.998661 0.0908777 0.000404473
0 0.99866 0.0908773 0.000158539
0 0.998661 0.0908774 0.000240369
0 0.99866 0.227287 17.6428
0 0.998656 0.228718 15.9515
0 0.998661 0.09088 0.000596917
0 0.99866 0.0908812 0.000803343
0 0.998661 0.0908774 0.000292136
0 0.99866 0.223317 17.4102
0 0.998661 0.0908784 0.000461567
0 0.998656 0.223728 14.2196
0 0.99866 0.0908777 0.000201978
0 0.99866 0.0908775 0.000179858
0 0.99866 0.0908772 8.3194e-05
0 0.998655 0.225314 16.6996
0 0.998661 0.0908771 3.23424e-05
0 0.998661 0.0908771 4.9663e-05
0 0.998661 0.0908778 0.000303565
0 0.99866 0.0908785 0.0003565
0 0.998661 0.0908771 0.000114894
0 0.998661 0.0908773 0.000186113
0 0.998658 0.0908805 0.000736768
0 0.998656 0.0908789 0.000362297
0 0.99866 0.0908792 0.000398678
0 0.998659 0.0908795 0.000371519
0 0.998656 0.224635 15.9697
0 0.998661 0.0908775 0.000240487
0 0.998658 0.0908798 0.000800137
0 0.99866 0.0908778 0.000294839
0 0.998655 0.223273 17.619
0 0.998656 0.0908801 0.000277883
0 0.998655 0.222603 17.6724
0 0.998661 0.0908771 8.79222e-05
0 0.998661 0.0908772 0.000129667
0 0.998661 0.0908767 3.90363e-05
0 0.998656 0.0908788 0.000270097
0 0.998657 0.0908775 0.00011457
0 0.998661 0.0908767 4.22509e-05
0 0.99866 0.0908776 0.000181725
0 0.99866 0.0908782 0.000201219
0 0.998661 0.0908768 8.9692e-05
0 0.998658 0.0908791 0.000235926
0 0.998657 0.0908784 0.000155469
0 0.99866 0.0908783 0.000154188
0 0.998659 0.0908785 0.000143135
0 0.998657 0.222901 15.901
0 0.998661 0.0908771 0.00012988
0 0.998659 0.0908782 0.000351614
0 0.99866 0.0908775 0.000204573
0 0.998656 0.0908805 0.000523778
0 0.998658 0.0908787 0.000417809
0 0.998656 0.222668 14.3053
0 0.998656 0.09088 0.000698453
0 0.998657 0.222954 16.2548
0 0.998661 0.0908766 4.63947e-05
0 0.998661 0.0908767 4.10756e-05
0 0.998662 0.0908766 2.4216e-05
0 0.998657 0.0908779 0.000153619
0 0.998657 0.0908775 3.78593e-05
0 0.998658 0.0908775 0.000106365
0 0.998661 0.0908766 6.23937e-05
0 0.998662 0.0908765 5.84294e-05
0 0.99866 0.0908771 9.39727e-05
0 0.998661 0.0908767 7.4714e-05
0 0.998659 0.0908779 0.000129923
0 0.998658 0.0908777 0.00015377
0 0.99866 0.0908773 9.02039e-05
0 0.998657 0.22343 16.3836
0 0.998661 0.0908769 9.19658e-05
0 0.99866 0.0908777 0.000268322
0 0.998658 0.0908788 0.000534679
0 0.998659 0.090878 0.000391625
0 0.998657 0.0908782 0.000603391
0 0.998658 0.0908785 0.000582694
0 0.998657 0.222666 16.4329
0 0.998657 0.0908784 0.000603326
0 0.998662 0.0908765 4.27048e-05
0 0.998662 0.0908767 2.40437e-05
0 0.998662 0.0908765 1.49354e-05
0 0.998661 0.0908767 6.83538e-05
0 0.99866 0.223601 15.8537
0 0.998658 0.0908776 0.000220687
0 0.998659 0.0908774 0.000142323
0 0.998658 0.0908773 9.85226e-05
0 0.998659 0.0908773 0.000115072
0 0.998662 0.0908764 5.64431e-05
0 0.998662 0.0908766 6.89729e-05
0 0.998661 0.0908768 7.6586e-05
0 0.998661 0.0908767 7.80194e-05
0 0.99866 0.0908771 0.000113195
0 0.99866 0.0908768 8.39764e-05
0 0.998658 0.222828 16.0098
0 0.998661 0.090877 0.00018059
0 0.99866 0.0908779 0.000413931
0 0.998659 0.0908782 0.000577798
0 0.99866 0.0908779 0.000472109
0 0.998658 0.0908788 0.000872529
0 0.998659 0.0908781 0.000536863
0 0.998661 0.0908783 0.000651386
0 0.998662 0.0908764 5.96152e-05
0 0.998662 0.0908764 6.53956e-05
0 0.998662 0.0908764 3.67434e-05
0 0.998662 0.0908766 1.66052e-05
0 0.998661 0.0908767 9.20155e-05
0 0.998662 0.0908766 4.81272e-05
0 0.998662 0.0908764 5.53535e-05
0 0.998663 0.223249 15.4028
0 0.998658 0.0908771 7.74924e-05
0 0.998659 0.0908772 8.44683e-05
0 0.99866 0.090877 0.000106742
0 0.998659 0.0908771 9.37107e-05
0 0.998662 0.0908765 6.95436e-05
0 0.998661 0.0908767 8.24287e-05
0 0.998661 0.0908768 9.3963e-05
0 0.998661 0.0908767 8.68182e-05
0 0.998659 0.0908772 0.000161421
0 0.998658 0.222942 16.1384
0 0.998661 0.090877 0.000202762
0 0.99866 0.0908776 0.000382743
0 0.998661 0.090878 0.000498823
0 0.998661 0.0908776 0.000352469
0 0.998664 0.0908782 0.000572481
0 0.998662 0.0908778 0.000442953
0 0.998662 0.0908767 9.95202e-05
0 0.998662 0.0908764 7.5218e-05
0 0.998662 0.0908763 7.28291e-05
0 0.998662 0.0908764 3.82971e-05
0 0.998662 0.0908766 6.02096e-05
0 0.998662 0.0908766 7.66729e-05
0 0.998663 0.0908763 5.50729e-05
0 0.998663 0.0908763 6.85072e-05
0 0.998665 0.0908784 0.000715726
0 0.998665 0.224078 15.9758
0 0.998661 0.0908767 8.78091e-05
0 0.998659 0.0908771 5.73137e-05
0 0.99866 0.0908771 7.12395e-05
0 0.99866 0.0908769 8.65068e-05
0 0.998659 0.0908771 3.56877e-05
0 0.998662 0.0908765 7.91093e-05
0 0.998661 0.0908766 8.84392e-05
0 0.998662 0.0908764 8.56785e-05
0 0.998661 0.0908767 9.30077e-05
0 0.998659 0.0908772 0.000165045
0 0.998659 0.22288 15.6804
0 0.998662 0.0908769 0.000163366
0 0.998662 0.0908773 0.000271812
0 0.998663 0.0908777 0.000483297
0 0.998662 0.0908773 0.000320301
0 0.998663 0.0908776 0.000424809
0 0.998662 0.0908766 0.000109355
0 0.998662 0.0908763 7.73733e-05
0 0.998662 0.0908764 6.07844e-05
0 0.998662 0.0908766 8.68262e-05
0 0.998663 0.0908763 6.91029e-05
0 0.998663 0.0908763 7.84142e-05
0 0.998663 0.0908789 0.000715549
0 0.998665 0.222426 15.63
0 0.998661 0.0908767 7.43258e-05
0 0.99866 0.090877 3.41318e-05
0 0.99866 0.0908769 6.01901e-05
0 0.998659 0.0908773 4.68082e-05
0 0.99866 0.090877 2.06432e-05
0 0.998662 0.0908765 8.58939e-05
0 0.998662 0.0908766 8.72149e-05
0 0.998662 0.0908764 8.43316e-05
0 0.998662 0.0908766 8.11774e-05
0 0.998661 0.0908767 7.70481e-05
0 0.998659 0.0908776 8.35056e-05
0 0.998659 0.0908772 6.59308e-05
0 0.998659 0.221706 15.9686
0 0.998662 0.0908767 0.000159679
0 0.998663 0.0908771 0.000285307
0 0.998662 0.0908777 0.000298917
0 0.998662 0.0908772 0.000247748
0 0.998662 0.0908766 0.000102786
0 0.998663 0.0908766 9.25342e-05
0 0.998662 0.0908763 7.6078e-05
0 0.998663 0.0908764 7.96502e-05
0 0.998663 0.0908764 8.29398e-05
0 0.998663 0.0908764 9.15193e-05
0 0.998663 0.0908764 8.8574e-05
0 0.998661 0.0908778 0.000202176
0 0.99866 0.0908779 0.000212808
0 0.998661 0.222753 16.425
0 0.998661 0.0908768 5.40432e-05
0 0.99866 0.0908772 6.6573e-05
0 0.99866 0.0908774 0.000115965
0 0.998661 0.0908767 7.76568e-05
0 0.998662 0.0908764 7.33785e-05
0 0.998662 0.0908766 7.66572e-05
0 0.99866 0.0908778 0.000160072
0 0.998658 0.0908784 0.000198374
0 0.998658 0.222291 15.4553
0 0.998662 0.0908767 0.000113742
0 0.998662 0.0908772 0.000123428
0 0.998661 0.0908776 0.000109569
0 0.998662 0.0908767 7.53131e-05
0 0.998663 0.0908766 8.42291e-05
0 0.998662 0.0908765 8.47522e-05
0 0.998663 0.0908766 9.69381e-05
0 0.998663 0.0908765 8.38258e-05
0 0.998663 0.0908766 8.90928e-05
0 0.99866 0.090878 0.000209017
0 0.998659 0.090878 0.00036311
0 0.998659 0.221395 15.5878
0 0.998661 0.0908769 8.68842e-05
0 0.998661 0.0908773 0.000136239
0 0.998662 0.0908767 8.15542e-05
0 0.998662 0.0908765 7.91396e-05
0 0.998661 0.0908774 0.000187445
0 0.99866 0.090878 0.000285683
0 0.998659 0.090879 0.000507021
0 0.998658 0.223834 17.2241
0 0.998662 0.0908769 3.49876e-05
0 0.998661 0.0908776 0.00011161
0 0.998663 0.0908768 4.99743e-05
0 0.998663 0.0908767 7.50679e-05
0 0.998662 0.0908766 8.94187e-05
0 0.998663 0.0908767 8.58349e-05
0 0.998663 0.0908767 7.49852e-05
0 0.998663 0.0908768 7.64476e-05
0 0.998661 0.090878 0.000156834
0 0.99866 0.0908784 0.000274538
0 0.998658 0.090878 0.000232864
0 0.998657 0.22009 15.7348
0 0.998661 0.0908768 9.96439e-05
0 0.998662 0.0908766 8.31253e-05
0 0.998662 0.0908772 0.000203394
0 0.998662 0.0908777 0.000347583
0 0.998662 0.0908783 0.000552695
0 0.998661 0.224169 15.939
0 0.998662 0.0908771 2.61418e-05
0 0.998663 0.0908769 4.09643e-05
0 0.998662 0.0908767 6.88228e-05
0 0.998662 0.0908768 5.43564e-05
0 0.998663 0.0908769 4.68256e-05
0 0.998661 0.090878 0.000125888
0 0.99866 0.0908784 0.000280893
0 0.998658 0.0908791 0.000490123
0 0.998657 0.22172 16.2761
0 0.998662 0.0908768 8.61976e-05
0 0.998662 0.0908773 0.000208751
0 0.998662 0.0908775 0.000364346
0 0.998662 0.0908777 0.000416899
0 0.998663 0.222313 16.0512
0 0.998662 0.0908773 5.35692e-05
0 0.998662 0.090877 2.1411e-05
0 0.998662 0.0908773 7.0602e-05
0 0.998661 0.0908784 0.000182088
0 0.99866 0.0908787 0.000283771
0 0.998658 0.0908785 0.000435029
0 0.998657 0.222255 15.2485
0 0.998662 0.0908773 0.000101379
0 0.998662 0.0908775 0.000293373
0 0.998663 0.0908778 0.000537974
0 0.998663 0.221461 15.4213
0 0.998661 0.0908778 0.00010391
0 0.998661 0.0908783 0.00020162
0 0.998661 0.0908781 0.000171465
0 0.998661 0.0908786 0.000264129
0 0.99866 0.0908791 0.000409162
0 0.998659 0.0908791 0.000387024
0 0.998658 0.221722 16.7563
0 0.998661 0.0908781 0.000251969
0 0.998662 0.0908789 0.000730637
0 0.998664 0.222031 15.7264
0 0.99866 0.0908788 0.000313162
0 0.998659 0.0908793 0.000486073
0 0.998659 0.0908791 0.000447898
0 0.998657 0.0908799 0.000785086
0 0.998657 0.218829 14.5246
0 0.998659 0.0908795 0.00045906
0 0.99866 0.221982 16.767
0 0.998657 0.0908795 0.000507128
0 0.998657 0.0908798 0.00071434
0 0.998655 0.220081 15.5127
0 0.998656 0.222202 15.834
0 0.998655 0.221405 14.9812
VECTORS fa_u float
0.000480139 0.000198972 0
0.000441621 0.000254701 0
0.000514173 0.000138028 0
0.000474699 6.00718e-05 0
-1.35449e-08 7.73721e-09 0
0.000401304 0.000308131 0
0.000367701 0.000368217 0
-3.54949e-10 6.85177e-09 0
4.17208e-09 8.19107e-09 0
0.000297496 0.000389311 0
0.000283623 0.000491243 0
0.000524153 -3.5566e-07 0
0.000493943 -6.59066e-05 0
-1.11851e-08 -1.31909e-08 0
2.91993e-09 -1.13495e-08 0
-5.51963e-09 -2.1638e-09 0
-3.51789e-09 2.64601e-09 0
8.73878e-09 7.57604e-09 0
8.77595e-09 9.4142e-09 0
2.09536e-09 4.58896e-09 0
5.72355e-09 5.07354e-09 0
0.000216082 0.000518142 0
0.000132167 0.000490065 0
9.46428e-09 1.64679e-08 0
1.57618e-08 2.01246e-08 0
8.66438e-09 -3.36739e-09 0
0.000535565 -0.000141694 0
1.45193e-08 -2.21354e-09 0
0.00041829 -0.000172512 0
-1.76537e-09 -6.17971e-09 0
3.98481e-09 -4.1079e-09 0
-1.0169e-09 -2.44412e-09 0
6.95867e-05 0.000526805 0
-8.74064e-10 -5.43256e-10 0
6.40137e-10 1.44481e-09 0
7.79988e-09 5.69793e-09 0
8.63054e-09 7.36175e-09 0
3.2083e-09 1.75287e-09 0
5.35854e-09 2.52138e-09 0
2.14289e-08 9.50891e-09 0
1.014e-08 -5.48455e-09 0
9.41162e-09 8.50611e-09 0
1.04259e-08 5.57255e-09 0
-3.89956e-07 0.000508155 0
7.6513e-09 1.22487e-10 0
7.76029e-09 2.42488e-08 0
5.56746e-09 7.55119e-09 0
0.000484487 -0.000282108 0
-7.48156e-09 4.71285e-09 0
0.000445296 -0.00034341 0
1.6267e-09 -2.27615e-09 0
4.06951e-09 -6.80382e-10 0
6.51559e-10 -1.05753e-09 0
-6.5309e-09 -5.58679e-09 0
-3.42074e-09 1.26055e-09 0
1.24971e-09 -4.95682e-10 0
5.44395e-09 1.94944e-09 0
5.87559e-09 2.54419e-09 0
2.84478e-09 -2.29094e-10 0
7.46873e-09 -7.58339e-10 0
9.45275e-10 -4.85585e-09 0
4.88178e-09 4.89501e-10 0
4.30658e-09 -1.48227e-09 0
-6.51602e-05 0.000501755 0
3.28482e-09 2.50793e-09 0
-1.05856e-10 1.11878e-08 0
9.33014e-10 6.44229e-09 0
1.19642e-09 1.66236e-08 0
-5.82855e-09 1.19489e-08 0
0.000321553 -0.000322186 0
-1.35834e-08 1.75907e-08 0
0.000315776 -0.000409644 0
9.29007e-10 -1.14732e-09 0
1.29415e-09 1.82969e-10 0
5.46517e-10 -5.43203e-10 0
-2.64005e-09 -4.1139e-09 0
7.75649e-10 -9.21748e-10 0
-2.07865e-09 -2.67099e-09 0
1.43897e-09 -1.36785e-09 0
9.71899e-10 -1.58496e-09 0
2.88854e-09 -7.73079e-10 0
1.76604e-09 -1.59158e-09 0
1.18662e-09 -3.96019e-09 0
-8.77206e-10 -4.81368e-09 0
1.54784e-09 -2.41717e-09 0
-0.000135179 0.000503494 0
-5.1354e-10 2.88093e-09 0
-3.3843e-09 7.83862e-09 0
-9.74673e-09 1.39448e-08 0
-7.60393e-09 9.87262e-09 0
-1.78824e-08 6.98965e-09 0
-1.39442e-08 1.22204e-08 0
0.000262169 -0.000452422 0
-9.37081e-09 1.67554e-08 0
6.58287e-10 -1.18877e-09 0
-1.8123e-10 7.43294e-10 0
2.13016e-10 -4.24828e-10 0
-1.35212e-09 1.70366e-09 0
0.000192899 -0.000466127 0
-6.72635e-09 -2.01695e-09 0
-1.6763e-09 -4.20706e-09 0
-2.26612e-09 -2.16629e-09 0
-1.72206e-09 -3.23135e-09 0
5.78527e-10 -1.70029e-09 0
9.62379e-10 -1.97246e-09 0
1.33509e-09 -2.0387e-09 0
8.01456e-10 -2.34964e-09 0
-3.98162e-10 -3.57979e-09 0
1.90027e-10 -2.66536e-09 0
-0.000195107 0.000470588 0
-3.87988e-09 4.23879e-09 0
-9.50207e-09 9.12098e-09 0
-1.44984e-08 1.13059e-08 0
-1.17183e-08 9.39973e-09 0
-2.75212e-08 3.66247e-09 0
-1.55936e-08 6.97615e-09 0
-1.80604e-08 -1.01701e-08 0
-9.82844e-12 -1.89692e-09 0
1.38679e-10 -2.07626e-09 0
2.08233e-11 -1.16899e-09 0
-5.28276e-10 1.02684e-11 0
-2.59201e-09 1.3617e-09 0
-1.44652e-09 5.02766e-10 0
-4.40522e-10 -1.70537e-09 0
0.00012659 -0.000473487 0
-3.03336e-10 2.44707e-09 0
-2.2127e-09 -1.52581e-09 0
-1.07825e-09 -3.22083e-09 0
-1.47562e-09 -2.59115e-09 0
4.01309e-10 -2.17618e-09 0
3.08373e-10 -2.60469e-09 0
-6.26909e-10 -2.92343e-09 0
-3.55274e-10 -2.73961e-09 0
-5.12122e-09 -3.94633e-10 0
-0.000256635 0.000444797 0
-5.59516e-09 3.21258e-09 0
-1.06443e-08 5.91806e-09 0
-1.57858e-08 -1.6562e-09 0
-1.10374e-08 1.99087e-09 0
-8.99674e-09 -1.58396e-08 0
-1.01915e-08 -9.7363e-09 0
-3.16414e-09 -1.27791e-10 0
-2.5544e-10 -2.37976e-09 0
-4.37888e-10 -2.27567e-09 0
-8.5411e-10 -8.69201e-10 0
-1.90311e-09 -2.20685e-10 0
-2.21935e-09 -1.01329e-09 0
-8.02489e-10 -1.55787e-09 0
-6.26224e-10 -2.08801e-09 0
-3.79756e-09 -2.24555e-08 0
6.59587e-05 -0.000504052 0
-7.18666e-10 -2.70007e-09 0
-1.8189e-09 -1.32502e-10 0
-1.31913e-09 -1.84348e-09 0
-9.93072e-10 -2.56726e-09 0
-8.78527e-10 7.19536e-10 0
-2.26096e-10 -2.50708e-09 0
-6.72434e-10 -2.73261e-09 0
-5.49391e-10 -2.67035e-09 0
-7.24726e-10 -2.86939e-09 0
-9.78304e-11 5.25081e-09 0
-0.000304238 0.000395459 0
-5.18924e-09 -3.06682e-10 0
-7.755e-09 -3.82961e-09 0
-3.94435e-09 -1.4864e-08 0
-4.79865e-09 -8.99159e-09 0
3.63646e-09 -1.30191e-08 0
-2.97431e-09 -1.80602e-09 0
-5.72036e-10 -2.39463e-09 0
-1.36555e-09 -1.36975e-09 0
-1.95776e-09 -1.94942e-09 0
-1.03642e-09 -1.93927e-09 0
-8.39959e-10 -2.3495e-09 0
1.88713e-08 -1.27392e-08 0
9.67052e-07 -0.000497346 0
-4.33765e-10 -2.32492e-09 0
-5.47717e-10 -9.37848e-10 0
-5.9177e-10 -1.82153e-09 0
8.51845e-10 1.22179e-09 0
4.8261e-10 -4.45601e-10 0
-7.93908e-10 -2.61529e-09 0
-8.26533e-10 -2.64923e-09 0
-6.51835e-10 -2.60305e-09 0
-4.22767e-10 -2.54823e-09 0
-1.46357e-10 -2.44729e-09 0
2.49286e-09 -9.1981e-10 0
-1.84742e-10 2.08976e-09 0
-0.000359434 0.000359156 0
-3.09347e-09 -4.03073e-09 0
-9.13232e-10 -9.0324e-09 0
6.92534e-09 -6.51985e-09 0
2.24476e-09 -7.55698e-09 0
-2.10129e-09 -2.50632e-09 0
-1.66505e-09 -2.42843e-09 0
-5.57548e-10 -2.35571e-09 0
-1.43718e-09 -2.08759e-09 0
-1.27013e-09 -2.3134e-09 0
-9.94334e-10 -2.73712e-09 0
-1.16316e-09 -2.5672e-09 0
6.40977e-09 5.48725e-10 0
6.71016e-09 9.09644e-10 0
-6.74631e-05 -0.00051827 0
9.35905e-11 -1.7171e-09 0
1.45285e-09 -1.54163e-09 0
1.43906e-09 -3.39783e-09 0
-2.28433e-10 -2.46045e-09 0
-5.51569e-10 -2.26882e-09 0
-3.33577e-10 -2.41631e-09 0
1.79189e-11 -5.09345e-09 0
6.09282e-09 1.64982e-09 0
-0.000389783 0.000299873 0
-5.60759e-10 -3.57557e-09 0
2.59434e-09 -2.94865e-09 0
3.39536e-09 7.91837e-10 0
-1.01793e-09 -2.16952e-09 0
-1.33799e-09 -2.3223e-09 0
-7.43871e-10 -2.59219e-09 0
-1.01333e-09 -2.91336e-09 0
-1.26851e-09 -2.34639e-09 0
-1.06398e-09 -2.62769e-09 0
5.40389e-09 3.87717e-09 0
1.10603e-08 3.34191e-09 0
-0.000129194 -0.00047888 0
2.50654e-10 -2.75326e-09 0
-8.01838e-10 -4.2603e-09 0
-4.2484e-10 -2.56003e-09 0
-6.54185e-10 -2.43176e-09 0
-4.30435e-09 -4.12887e-09 0
-5.78924e-09 -7.00857e-09 0
-4.6477e-09 -1.54494e-08 0
-0.000474881 0.000273619 0
5.25492e-10 -9.81479e-10 0
2.57896e-09 2.44164e-09 0
-4.31781e-10 -1.53043e-09 0
-1.01751e-09 -2.1611e-09 0
-9.08677e-10 -2.6963e-09 0
-7.36111e-10 -2.63019e-09 0
-8.39954e-10 -2.23329e-09 0
-6.05443e-10 -2.35601e-09 0
3.25403e-09 3.78362e-09 0
5.93122e-09 6.41363e-09 0
2.16716e-09 7.08572e-09 0
-0.000191304 -0.000462692 0
-1.3146e-09 -2.88529e-09 0