# vtk DataFile Version 2.0
CellBP Time: 0.92
ASCII
DATASET UNSTRUCTURED_GRID
POINTS 296 double
-9.18721 -3.77618 0
-8.60878 -4.94915 0
-9.60763 -2.53775 0
-9.86276 -1.25504 0
-8.35806 -2.81887 0
-7.88219 -6.03658 0
-7.01987 -7.01987 0
-7.9177 -3.87494 0
-7.34311 -4.86814 0
-6.03661 -7.88222 0
-4.94916 -8.60878 0
-9.94831 0.0500002 0
-9.86279 1.35504 0
-8.65817 -1.68403 0
-8.78681 -0.529655 0
-7.59019 -2.00427 0
-7.22622 -2.90667 0
-6.63807 -5.77925 0
-5.82279 -6.59733 0
-6.79073 -3.88917 0
-6.22101 -4.67624 0
-3.77619 -9.18722 0
-2.53775 -9.60759 0
-4.9068 -7.30929 0
-3.91327 -7.88676 0
-8.79327 0.643435 0
-9.60764 2.63777 0
-8.62379 1.77418 0
-9.18724 3.8762 0
-7.74481 -0.929039 0
-7.79503 0.0802594 0
-6.95302 -1.31596 0
-1.25504 -9.86277 0
-6.44191 -2.15326 0
-6.31981 -3.05633 0
-5.53693 -5.47496 0
-4.79625 -6.11591 0
-5.65942 -3.75726 0
-5.26977 -4.56191 0
-2.86636 -8.3645 0
-1.77868 -8.64083 0
-3.92842 -6.72404 0
-3.05684 -7.15313 0
0.05 -9.94832 0
-7.70604 1.14359 0
-8.33912 2.91561 0
-7.55244 2.11211 0
-8.60881 5.04917 0
-7.8806 3.9785 0
-7.88221 6.1366 0
-6.77917 -0.396882 0
-6.95704 0.552581 0
-5.77177 -1.00347 0
-0.590878 -8.81033 0
0.565721 -8.77152 0
-5.30346 -2.48043 0
-4.49229 -5.0961 0
-3.90279 -5.77575 0
-4.4392 -3.805 0
-2.06257 -7.56253 0
-1.13557 -7.78645 0
-2.99477 -6.10252 0
-2.3092 -6.6203 0
1.35504 -9.8628 0
-6.68995 1.42215 0
-7.17274 3.11836 0
-6.65977 2.37319 0
-7.29528 4.98903 0
-6.71863 4.00338 0
-7.01991 7.11991 0
-6.57301 5.89461 0
-6.03657 7.98218 0
-4.45338 -1.18114 0
-5.81499 0.513792 0
-4.65644 -0.0103823 0
0.00852173 -7.84875 0
1.7387 -8.6445 0
0.949042 -7.7641 0
-4.03876 -2.40653 0
-3.48576 -1.39128 0
-3.29473 -4.80567 0
-3.26607 -3.26799 0
-1.37869 -6.676 0
-0.508782 -7.02553 0
-1.97569 -5.53743 0
2.63775 -9.6076 0
-5.50773 2.03707 0
-6.09523 3.07247 0
-6.10565 4.87008 0
-5.76225 3.99184 0
-5.76182 6.71776 0
-5.45266 5.61992 0
-4.94916 8.70881 0
-4.83893 7.40528 0
-3.50171 -0.42433 0
-4.4496 1.24912 0
-3.7117 0.59211 0
-4.06245 2.31997 0
-3.77619 9.28725 0
2.86287 -8.33364 0
0.419726 -6.79606 0
2.02222 -7.52659 0
1.30621 -6.90625 0
-2.44481 -0.873866 0
-2.83856 -2.13127 0
-2.29456 -4.09766 0
-2.3258 -2.97379 0
-0.442421 -5.86165 0
-1.22281 -4.49946 0
3.8762 -9.18726 0
-4.7902 3.39208 0
-5.08845 4.59461 0
-4.64768 6.28212 0
-4.53935 5.3603 0
-3.84415 7.99422 0
-3.82718 6.84649 0
-2.78361 8.42377 0
-1.64915 -0.137908 0
-1.45035 -0.890641 0
-2.48927 0.507287 0
-3.25384 1.44425 0
-3.23927 3.31681 0
-2.91118 2.37193 0
-1.35519 0.627143 0
-2.53776 9.70764 0
3.93313 -7.88785 0
2.96488 -7.15856 0
0.954178 -5.82257 0
2.07457 -6.41623 0
-1.68307 -1.99218 0
-1.43453 -3.278 0
0.0902259 -4.74737 0
-0.566214 -3.69469 0
4.93271 -7.31965 0
5.04916 -8.60881 0
-3.7773 4.55205 0
-3.73518 5.7528 0
-2.88832 7.29075 0
-3.01005 6.35448 0
-1.66275 8.7347 0
-1.94035 7.6203 0
-2.33857 4.05201 0
-0.730774 -1.32733 0
-0.836947 -0.257641 0
-1.93633 1.68088 0
-2.12592 2.87605 0
-1.30667 3.54496 0
-0.869512 1.35091 0
-0.282383 0.456074 0
-0.533584 8.87278 0
-1.25504 9.9628 0
1.11288 -4.575 0
3.91063 -6.71816 0
2.98828 -6.09552 0
2.11808 -5.42554 0
4.78507 -6.20619 0
-0.558888 -2.47698 0
0.495147 -3.4641 0
0.0535557 -1.61058 0
1.48202 -3.68247 0
5.86795 -6.61555 0
6.1366 -7.88221 0
-2.47594 5.34905 0
-2.13072 6.53528 0
-0.904193 7.80436 0
-1.27251 6.93297 0
0.0862155 7.88148 0
-1.14456 4.49512 0
0.150329 -0.617681 0
-0.797481 2.48867 0
-0.331675 3.60102 0
0.0631095 1.51282 0
0.741481 0.473449 0
0.646873 8.87547 0
0.0499999 10.0483 0
2.38125 -4.28568 0
3.8597 -5.64122 0
3.00183 -5.21341 0
5.57461 -5.49266 0
4.69171 -5.28383 0
0.629717 -2.29352 0
1.25628 -2.95146 0
0.757547 -1.39154 0
2.16454 -3.13611 0
2.9941 -3.47696 0
6.15617 -4.79257 0
6.65662 -5.77021 0
7.11988 -7.01989 0
-1.01975 5.82105 0
-0.372671 6.88459 0
1.12281 7.77081 0
0.558059 7.08089 0
-0.000765344 4.72568 0
0.607058 3.82819 0
1.33901 -0.641938 0
0.53914 2.65126 0
0.966151 1.57505 0
1.91034 0.213883 0
1.61489 1.06511 0
2.12977 7.5849 0
1.79951 8.71385 0
1.35504 9.96279 0
3.82334 -4.35219 0
5.11741 -4.44975 0
5.84675 -3.93582 0
3.78447 -3.20146 0
1.81244 -1.88278 0
3.01949 -2.57417 0
6.78463 -3.9486 0
7.38278 -4.89768 0
7.98221 -6.03661 0
0.483426 5.88239 0
1.42842 6.74309 0
2.37478 6.67033 0
1.21013 4.55675 0
1.48834 3.39801 0
2.43604 -0.692088 0
2.82836 0.14262 0
1.78907 2.16306 0
2.61217 1.15027 0
3.07264 7.17156 0
2.90479 8.37846 0
2.63777 9.70766 0
4.91207 -3.32842 0
6.12187 -3.10927 0
4.17346 -2.27557 0
3.24484 -1.50308 0
6.73275 -2.31351 0
7.23362 -3.04319 0
7.96658 -3.91307 0
8.7088 -4.94917 0
2.02396 5.60078 0
3.08717 6.15493 0
2.36426 4.12752 0
2.4204 3.06129 0
3.52616 -0.460918 0
3.61621 0.613373 0
2.96224 2.28839 0
3.54611 1.52549 0
4.01318 5.8996 0
3.98553 6.79499 0
3.97434 7.94077 0
3.87621 9.28728 0
5.56994 -1.91653 0
4.50997 -1.12978 0
6.71566 -1.33644 0
7.59461 -2.03696 0
8.39943 -2.86212 0
9.28724 -3.7762 0
3.41987 4.87808 0
3.3396 3.38598 0
4.69211 0.130099 0
4.52001 1.31021 0
4.06608 2.44426 0
4.57198 5.15405 0
4.84528 6.19282 0
4.98202 7.38279 0
5.04918 8.70882 0
5.88495 -0.435004 0
7.01312 -0.488391 0
7.76211 -1.08563 0
8.68761 -1.74648 0
9.70765 -2.53777 0
4.55368 3.82861 0
5.81939 1.09889 0
5.37279 2.53565 0
5.3821 4.62232 0
5.61431 5.52565 0
5.89935 6.67434 0
6.13661 7.98221 0
6.84862 0.463702 0
7.85636 -0.0256463 0
8.86366 -0.584548 0
9.96281 -1.25505 0
6.96328 1.34998 0
5.72336 3.77995 0
6.54409 2.19837 0
6.38288 3.08927 0
6.29515 4.68899 0
6.69581 5.8402 0
7.1199 7.1199 0
7.78765 0.968013 0
8.86301 0.572976 0
10.0483 0.0499999 0
7.61956 2.00517 0
6.83226 3.90602 0
7.27283 2.94811 0
7.38147 4.88785 0
7.98223 6.13661 0
8.72661 1.72762 0
9.9628 1.35504 0
8.42453 2.83896 0
7.98502 3.91796 0
8.70883 5.04918 0
9.70765 2.63776 0
9.28727 3.8762 0
CELLS 542 2168
3 2 0 4
3 0 1 7
3 4 0 7
3 1 5 8
3 7 1 8
3 3 2 13
3 13 2 4
3 11 3 14
3 14 3 13
3 13 4 15
3 4 7 16
3 15 4 16
3 5 6 17
3 8 5 17
3 6 9 18
3 17 6 18
3 7 8 19
3 16 7 19
3 8 17 20
3 19 8 20
3 9 10 23
3 18 9 23
3 10 21 24
3 23 10 24
3 12 11 25
3 25 11 14
3 26 12 27
3 27 12 25
3 14 13 29
3 29 13 15
3 25 14 30
3 30 14 29
3 29 15 31
3 15 16 33
3 31 15 33
3 16 19 34
3 33 16 34
3 17 18 35
3 20 17 35
3 18 23 36
3 35 18 36
3 19 20 37
3 34 19 37
3 20 35 38
3 37 20 38
3 21 22 39
3 24 21 39
3 22 32 40
3 39 22 40
3 23 24 41
3 36 23 41
3 24 39 42
3 41 24 42
3 27 25 44
3 44 25 30
3 28 26 45
3 45 26 27
3 45 27 46
3 46 27 44
3 47 28 48
3 48 28 45
3 30 29 50
3 50 29 31
3 44 30 51
3 51 30 50
3 50 31 52
3 31 33 52
3 32 43 53
3 40 32 53
3 53 43 54
3 33 34 55
3 34 37 55
3 33 55 52
3 35 36 56
3 38 35 56
3 36 41 57
3 56 36 57
3 37 38 58
3 38 56 58
3 37 58 55
3 39 40 59
3 42 39 59
3 40 53 60
3 59 40 60
3 41 42 61
3 57 41 61
3 42 59 62
3 61 42 62
3 43 63 54
3 46 44 64
3 64 44 51
3 48 45 65
3 65 45 46
3 65 46 66
3 66 46 64
3 49 47 67
3 67 47 48
3 67 48 68
3 68 48 65
3 69 49 70
3 70 49 67
3 52 55 72
3 64 51 73
3 51 50 73
3 50 52 73
3 73 52 74
3 74 52 72
3 53 54 75
3 60 53 75
3 54 63 76
3 54 76 77
3 75 54 77
3 55 58 78
3 72 55 78
3 72 78 79
3 56 57 80
3 57 61 80
3 56 80 58
3 58 80 81
3 78 58 81
3 59 60 82
3 62 59 82
3 60 75 83
3 82 60 83
3 61 62 84
3 62 82 84
3 61 84 80
3 63 85 76
3 66 64 86
3 64 73 86
3 68 65 87
3 87 65 66
3 87 66 86
3 70 67 88
3 88 67 68
3 88 68 89
3 89 68 87
3 71 69 90
3 90 69 70
3 90 70 91
3 91 70 88
3 92 71 93
3 93 71 90
3 74 72 94
3 94 72 79
3 86 73 95
3 95 73 74
3 95 74 96
3 96 74 94
3 97 86 95
3 76 85 99
3 75 77 100
3 83 75 100
3 76 99 101
3 77 76 101
3 77 101 102
3 100 77 102
3 94 79 103
3 78 81 104
3 79 78 104
3 79 104 103
3 80 84 105
3 81 80 105
3 81 105 106
3 104 81 106
3 82 83 107
3 83 100 107
3 82 107 84
3 84 107 108
3 105 84 108
3 85 109 99
3 89 87 110
3 87 86 110
3 110 86 97
3 91 88 111
3 111 88 89
3 111 89 110
3 93 90 112
3 112 90 91
3 112 91 113
3 113 91 111
3 98 92 114
3 114 92 93
3 114 93 115
3 115 93 112
3 116 98 114
3 117 103 118
3 96 94 119
3 94 103 119
3 119 103 117
3 97 95 120
3 120 95 96
3 120 96 119
3 121 110 97
3 121 97 122
3 122 97 120
3 123 119 117
3 124 98 116
3 99 109 125
3 99 125 126
3 101 99 126
3 100 102 127
3 100 127 107
3 101 126 128
3 102 101 128
3 102 128 127
3 104 106 129
3 104 129 103
3 103 129 118
3 105 108 130
3 106 105 130
3 106 130 129
3 107 127 131
3 108 107 131
3 108 131 132
3 108 132 130
3 109 134 125
3 125 134 133
3 113 111 135
3 111 110 135
3 135 110 121
3 115 112 136
3 136 112 113
3 136 113 135
3 116 114 137
3 137 114 115
3 137 115 138
3 138 115 136
3 139 124 116
3 139 116 140
3 140 116 137
3 141 135 121
3 118 129 142
3 118 142 143
3 117 118 143
3 123 117 143
3 122 120 144
3 120 119 144
3 144 119 123
3 141 121 145
3 145 121 122
3 145 122 144
3 146 141 145
3 147 144 123
3 147 123 148
3 143 148 123
3 150 124 139
3 149 150 139
3 131 127 151
3 125 133 152
3 126 125 152
3 126 152 153
3 128 126 153
3 128 153 154
3 128 154 127
3 127 154 151
3 152 133 155
3 130 132 156
3 130 156 129
3 129 156 142
3 131 151 157
3 132 131 157
3 132 157 156
3 156 158 142
3 157 151 159
3 133 160 155
3 134 161 133
3 133 161 160
3 138 136 162
3 136 135 162
3 162 135 141
3 140 137 163
3 163 137 138
3 163 138 162
3 149 139 164
3 164 139 140
3 164 140 165
3 165 140 163
3 166 149 164
3 167 162 141
3 167 141 146
3 142 158 168
3 143 142 168
3 143 168 148
3 146 145 169
3 145 144 169
3 169 144 147
3 170 167 146
3 170 146 169
3 171 169 147
3 171 147 148
3 171 148 172
3 168 172 148
3 173 149 166
3 174 150 149
3 173 174 149
3 154 175 151
3 151 175 159
3 152 155 176
3 153 152 176
3 153 176 177
3 153 177 154
3 154 177 175
3 155 160 178
3 155 178 179
3 176 155 179
3 156 157 180
3 156 180 158
3 157 159 181
3 157 181 180
3 158 180 182
3 158 182 168
3 159 175 183
3 159 183 181
3 175 184 183
3 160 186 178
3 178 186 185
3 161 187 160
3 160 187 186
3 165 163 188
3 163 162 188
3 188 162 167
3 166 164 189
3 189 164 165
3 189 165 188
3 190 173 166
3 190 166 191
3 191 166 189
3 192 188 167
3 192 167 170
3 193 192 170
3 182 194 168
3 194 172 168
3 193 170 195
3 170 169 195
3 195 169 171
3 196 195 171
3 196 171 172
3 194 197 172
3 197 198 172
3 198 196 172
3 200 173 190
3 199 200 190
3 201 174 173
3 200 201 173
3 176 179 202
3 177 176 202
3 177 202 175
3 175 202 184
3 178 185 203
3 178 203 179
3 179 203 202
3 203 185 204
3 202 205 184
3 183 206 181
3 180 181 206
3 180 206 182
3 182 206 194
3 183 184 207
3 205 207 184
3 183 207 206
3 185 208 204
3 186 209 185
3 185 209 208
3 187 210 186
3 186 210 209
3 191 189 211
3 189 188 211
3 211 188 192
3 199 190 212
3 212 190 191
3 212 191 211
3 213 199 212
3 214 211 192
3 214 192 193
3 215 214 193
3 215 193 195
3 206 216 194
3 216 197 194
3 216 217 197
3 215 195 218
3 218 195 196
3 198 218 196
3 217 219 197
3 219 218 198
3 197 219 198
3 220 199 213
3 221 200 199
3 220 221 199
3 222 201 200
3 221 222 200
3 203 204 223
3 203 223 202
3 202 223 205
3 204 208 224
3 204 224 223
3 205 223 225
3 205 225 207
3 207 225 226
3 207 226 206
3 226 216 206
3 208 228 224
3 224 228 227
3 209 229 208
3 229 228 208
3 210 230 209
3 209 230 229
3 213 212 231
3 212 211 231
3 231 211 214
3 232 220 213
3 232 213 231
3 233 231 214
3 233 214 215
3 234 233 215
3 234 215 218
3 226 235 216
3 235 217 216
3 235 236 217
3 217 236 219
3 237 234 218
3 237 218 219
3 236 238 219
3 238 237 219
3 240 220 232
3 239 240 232
3 241 221 220
3 240 241 220
3 242 222 221
3 241 242 221
3 224 227 243
3 224 243 223
3 223 243 225
3 225 243 244
3 225 244 226
3 226 244 235
3 227 245 243
3 228 246 227
3 227 246 245
3 229 247 228
3 228 247 246
3 230 248 229
3 229 248 247
3 239 232 249
3 232 231 249
3 249 231 233
3 250 249 233
3 250 233 234
3 237 250 234
3 244 251 235
3 235 251 236
3 251 252 236
3 236 252 238
3 252 253 238
3 253 250 237
3 253 237 238
3 254 239 249
3 255 240 239
3 254 255 239
3 256 241 240
3 255 256 240
3 257 242 241
3 256 257 241
3 245 258 243
3 243 258 244
3 244 258 251
3 245 259 258
3 246 260 245
3 245 260 259
3 247 261 246
3 246 261 260
3 248 262 247
3 247 262 261
3 254 249 263
3 263 249 250
3 253 263 250
3 258 264 251
3 251 264 252
3 264 265 252
3 265 263 253
3 252 265 253
3 266 254 263
3 267 255 254
3 266 267 254
3 268 256 255
3 267 268 255
3 269 257 256
3 268 269 256
3 259 270 258
3 270 264 258
3 260 271 259
3 259 271 270
3 261 272 260
3 260 272 271
3 262 273 261
3 273 272 261
3 270 274 264
3 275 266 263
3 275 263 265
3 274 276 264
3 276 265 264
3 276 277 265
3 277 275 265
3 278 267 266
3 275 278 266
3 279 268 267
3 278 279 267
3 280 269 268
3 279 280 268
3 271 281 270
3 270 281 274
3 272 282 271
3 271 282 281
3 273 283 272
3 272 283 282
3 281 284 274
3 274 284 276
3 285 278 275
3 277 285 275
3 284 286 276
3 286 285 277
3 276 286 277
3 287 279 278
3 285 287 278
3 288 280 279
3 287 288 279
3 282 289 281
3 281 289 284
3 283 290 282
3 282 290 289
3 289 291 284
3 284 291 286
3 291 292 286
3 292 287 285
3 286 292 285
3 293 288 287
3 292 293 287
3 290 294 289
3 289 294 291
3 294 295 291
3 295 293 292
3 291 295 292
CELL_TYPES 542
5
5
5
5
5
5
5
5
5
5
5
5
5
5
5
5
5
5
5
5
5
5
5
5
5
5
5
5
5
5
5
5
5
5
5
5
5
5
5
5
5
5
5
5
5
5
5
5
5
5
5
5
5
5
5
5
5
5
5
5
5
5
5
5
5
5
5
5
5
5
5
5
5
5
5
5
5
5
5
5
5
5
5
5
5
5
5
5
5
5
5
5
5
5
5
5
5
5
5
5
5
5
5
5
5
5
5
5
5
5
5
5
5
5
5
5
5
5
5
5
5
5
5
5
5
5
5
5
5
5
5
5
5
5
5
5
5
5
5
5
5
5
5
5
5
5
5
5
5
5
5
5
5
5
5
5
5
5
5
5
5
5
5
5
5
5
5
5
5
5
5
5
5
5
5
5
5
5
5
5
5
5
5
5
5
5
5
5
5
5
5
5
5
5
5
5
5
5
5
5
5
5
5
5
5
5
5
5
5
5
5
5
5
5
5
5
5
5
5
5
5
5
5
5
5
5
5
5
5
5
5
5
5
5
5
5
5
5
5
5
5
5
5
5
5
5
5
5
5
5
5
5
5
5
5
5
5
5
5
5
5
5
5
5
5
5
5
5
5
5
5
5
5
5
5
5
5
5
5
5
5
5
5
5
5
5
5
5
5
5
5
5
5
5
5
5
5
5
5
5
5
5
5
5
5
5
5
5
5
5
5
5
5
5
5
5
5
5
5
5
5
5
5
5
5
5
5
5
5
5
5
5
5
5
5
5
5
5
5
5
5
5
5
5
5
5
5
5
5
5
5
5
5
5
5
5
5
5
5
5
5
5
5
5
5
5
5
5
5
5
5
5
5
5
5
5
5
5
5
5
5
5
5
5
5
5
5
5
5
5
5
5
5
5
5
5
5
5
5
5
5
5
5
5
5
5
5
5
5
5
5
5
5
5
5
5
5
5
5
5
5
5
5
5
5
5
5
5
5
5
5
5
5
5
5
5
5
5
5
5
5
5
5
5
5
5
5
5
5
5
5
5
5
5
5
5
5
5
5
5
5
5
5
5
5
5
5
5
5
5
5
5
5
5
5
5
5
5
5
5
5
5
5
5
5
5
5
5
5
5
5
5
5
5
5
5
5
5
5
5
5
5
5
5
5
5
5
5
5
5
5
5
5
5
5
5
5
5
5
5
5
5
5
5
5
5
5
5
5
5
5
5
5
5
5
5
5
5
5
5
5
5
POINT_DATA 296
SCALARS concentrations float 4
LOOKUP_TABLE default
0 0.999664 0.158109 11.0585
0 0.999665 0.158013 10.6218
0 0.999665 0.157652 10.4865
0 0.999666 0.15715 10.9001
0 0.999665 0.0908749 0.00030484
0 0.999666 0.157697 10.6582
0 0.999666 0.157424 10.6716
0 0.999665 0.0908752 0.000291181
0 0.999666 0.0908747 0.000419825
0 0.999666 0.157194 9.26731
0 0.999666 0.157562 10.7479
0 0.999666 0.156599 10.931
0 0.999665 0.156774 10.3907
0 0.999666 0.0908755 0.000716848
0 0.999666 0.0908759 0.000660371
0 0.999666 0.0908745 0.000323747
0 0.999666 0.0908744 0.000137391
0 0.999666 0.090875 0.000528448
0 0.999666 0.0908767 0.000850948
0 0.999666 0.0908747 0.000310602
0 0.999666 0.0908749 0.000489899
0 0.999666 0.158333 10.4568
0 0.999665 0.15898 10.908
0 0.999666 0.0908768 0.000865109
0 0.999666 0.0908754 0.000468918
0 0.999666 0.0908755 0.000318614
0 0.999664 0.156332 10.4363
0 0.999665 0.0908746 0.000253023
0 0.999663 0.156771 10.5255
0 0.999666 0.0908747 0.000439121
0 0.999666 0.0908748 0.000380798
0 0.999666 0.0908741 0.000241267
0 0.999665 0.157298 10.5725
0 0.999666 0.0908739 0.00013996
0 0.999666 0.0908741 0.000180331
0 0.999667 0.0908754 0.000658938
0 0.999667 0.0908756 0.000700252
0 0.999666 0.0908742 0.000304608
0 0.999667 0.0908747 0.000489475
0 0.999666 0.0908749 0.000166881
0 0.999666 0.0908743 0.000261071
0 0.999667 0.0908754 0.000600346
0 0.999666 0.0908748 0.000409311
0 0.999665 0.156848 10.4498
0 0.999666 0.0908747 0.000252771
0 0.999664 0.0908745 0.000435976
0 0.999665 0.0908746 0.000212385
0 0.999661 0.156108 10.1035
0 0.999663 0.0908751 0.00120112
0 0.999661 0.156057 10.5273
0 0.999666 0.0908741 0.000247375
0 0.999666 0.0908743 0.000238743
0 0.999666 0.0908734 0.000115031
0 0.999665 0.0908744 0.000280246
0 0.999665 0.0908749 0.000389577
0 0.999666 0.0908735 0.000124684
0 0.999667 0.0908747 0.000525396
0 0.999667 0.0908749 0.000560241
0 0.999667 0.0908737 0.000246928
0 0.999666 0.0908745 0.00029826
0 0.999666 0.0908744 0.000270658
0 0.999667 0.0908745 0.0004379
0 0.999666 0.0908744 0.000348432
0 0.999664 0.155952 10.2744
0 0.999666 0.0908741 0.000141141
0 0.999665 0.0908748 0.000423777
0 0.999665 0.0908744 0.000118359
0 0.999662 0.0908757 0.00111191
0 0.999664 0.0908752 0.000499381
0 0.999661 0.1557 9.63379
0 0.999662 0.0908772 0.000374503
0 0.999662 0.155806 11.6572
0 0.999666 0.0908732 9.8602e-05
0 0.999666 0.0908736 0.000118258
0 0.999666 0.0908733 8.94586e-05
0 0.999665 0.0908747 0.000310092
0 0.999664 0.0908772 0.000660965
0 0.999665 0.0908755 0.000457763
0 0.999667 0.0908733 0.000134229
0 0.999667 0.0908732 9.73766e-05
0 0.999667 0.0908738 0.000296434
0 0.999667 0.0908733 0.000169743
0 0.999666 0.090874 0.000241103
0 0.999666 0.0908742 0.000220938
0 0.999667 0.0908737 0.000227337
0 0.999663 0.156068 11.7618
0 0.999666 0.0908737 4.47868e-05
0 0.999665 0.0908745 0.000138848
0 0.999664 0.090876 0.000435705
0 0.999665 0.0908751 0.000200348
0 0.999662 0.0908784 0.000475925
0 0.999664 0.0908764 0.000232293
0 0.999663 0.155955 10.461
0 0.999663 0.0908765 0.000349299
0 0.999667 0.0908731 7.09614e-05
0 0.999666 0.0908735 7.53864e-05
0 0.999667 0.0908733 7.19328e-05
0 0.999666 0.0908736 5.74296e-05
0 0.999664 0.156322 10.5378
0 0.999663 0.0908779 0.000717978
0 0.999666 0.0908745 0.000277578
0 0.999664 0.0908759 0.0006296
0 0.999665 0.090875 0.000437907
0 0.999667 0.090873 6.29843e-05
0 0.999667 0.0908732 0.000115605
0 0.999667 0.0908734 0.000169754
0 0.999667 0.0908732 0.000136023
0 0.999666 0.0908737 0.000158335
0 0.999667 0.0908734 0.000130247
0 0.999662 0.15592 10.2846
0 0.999666 0.090874 1.91067e-05
0 0.999665 0.0908752 0.000107022
0 0.999664 0.0908762 0.000197229
0 0.999665 0.0908756 0.000120853
0 0.999664 0.0908749 0.000268634
0 0.999664 0.0908754 0.000233344
0 0.999664 0.0908744 0.000264397
0 0.999667 0.090873 4.48987e-05
0 0.999667 0.090873 5.46498e-05
0 0.999667 0.0908731 4.69104e-05
0 0.999667 0.0908733 6.94578e-05
0 0.999666 0.0908735 6.37352e-05
0 0.999666 0.0908734 7.70581e-05
0 0.999667 0.090873 3.00885e-05
0 0.999664 0.156147 10.5717
0 0.999661 0.0908765 0.00161071
0 0.999663 0.0908761 0.000932331
0 0.999666 0.0908741 0.000233451
0 0.999665 0.0908751 0.00056699
0 0.999667 0.090873 7.76286e-05
0 0.999667 0.0908732 0.000103714
0 0.999666 0.0908735 9.78315e-05
0 0.999667 0.0908732 6.83487e-05
0 0.999661 0.0908762 0.00171476
0 0.99966 0.155796 10.3899
0 0.999666 0.090874 7.42726e-05
0 0.999665 0.0908749 0.000154343
0 0.999665 0.0908747 0.000209267
0 0.999665 0.0908746 0.000177296
0 0.999664 0.090875 0.000393641
0 0.999665 0.0908745 0.000172483
0 0.999666 0.0908734 7.30337e-05
0 0.999667 0.0908729 5.07649e-05
0 0.999667 0.0908729 3.13158e-05
0 0.999667 0.0908731 5.3451e-05
0 0.999667 0.0908733 7.48169e-05
0 0.999666 0.0908733 7.52418e-05
0 0.999667 0.0908729 3.04906e-05
0 0.999667 0.0908728 1.25401e-05
0 0.999664 0.0908749 0.000280483
0 0.999664 0.156479 10.1008
0 0.999666 0.0908736 0.00011965
0 0.999663 0.0908758 0.00114005
0 0.999664 0.0908753 0.00076294
0 0.999665 0.0908743 0.000345019
0 0.999662 0.0908758 0.0012694
0 0.999667 0.090873 5.02961e-05
0 0.999667 0.0908733 2.68996e-05
0 0.999667 0.090873 5.382e-05
0 0.999666 0.0908735 8.03891e-05
0 0.999661 0.090876 0.00126911
0 0.99966 0.155948 10.4218
0 0.999666 0.0908737 9.44671e-05
0 0.999665 0.0908741 0.000130943
0 0.999665 0.0908743 9.69082e-05
0 0.999665 0.0908741 8.95729e-05
0 0.999665 0.0908742 4.81982e-05
0 0.999666 0.0908733 7.19599e-05
0 0.999667 0.0908728 4.41598e-05
0 0.999667 0.090873 4.93223e-05
0 0.999667 0.0908732 6.30516e-05
0 0.999667 0.0908729 1.46073e-05
0 0.999667 0.0908728 3.28947e-05
0 0.999665 0.090874 0.000112912
0 0.999664 0.15579 10.5219
0 0.999666 0.0908737 0.000181393
0 0.999664 0.0908751 0.000807384
0 0.999665 0.0908744 0.00046404
0 0.999663 0.0908756 0.00105882
0 0.999664 0.090875 0.000781143
0 0.999667 0.090873 3.19401e-05
0 0.999667 0.0908732 1.9611e-05
0 0.999667 0.0908729 5.85664e-05
0 0.999666 0.0908734 7.05375e-05
0 0.999666 0.0908737 0.000156871
0 0.999663 0.0908752 0.000844024
0 0.999661 0.0908762 0.00152155
0 0.99966 0.155124 10.808
0 0.999666 0.0908735 6.745e-05
0 0.999666 0.0908739 3.71051e-05
0 0.999665 0.0908739 8.47545e-05
0 0.999666 0.0908738 3.65717e-05
0 0.999666 0.0908733 6.26947e-05
0 0.999666 0.0908732 4.90128e-05
0 0.999667 0.0908729 6.2614e-05
0 0.999667 0.090873 2.86234e-05
0 0.999667 0.0908729 2.78208e-06
0 0.999667 0.0908729 6.71149e-05
0 0.999667 0.0908729 3.76391e-05
0 0.999665 0.0908738 0.000122414
0 0.999665 0.0908737 0.000122099
0 0.999664 0.155958 10.4852
0 0.999665 0.090874 0.000353461
0 0.999664 0.0908746 0.000545698
0 0.999665 0.0908745 0.000412582
0 0.999666 0.0908737 0.000162375
0 0.999667 0.090873 4.90922e-05
0 0.999666 0.0908734 7.00591e-05
0 0.999664 0.0908746 0.000433015
0 0.999663 0.0908748 0.000731787
0 0.999662 0.155643 10.4094
0 0.999666 0.0908733 4.3628e-05
0 0.999666 0.0908736 7.24697e-05
0 0.999666 0.0908737 0.000110612
0 0.999666 0.0908732 4.30775e-05
0 0.999666 0.0908731 2.53136e-05
0 0.999667 0.090873 8.26083e-05
0 0.999667 0.0908731 9.68528e-05
0 0.999667 0.090873 1.15086e-05
0 0.999667 0.090873 6.2658e-05
0 0.999665 0.0908738 0.000142672
0 0.999665 0.0908736 0.00013261
0 0.999665 0.155172 10.3484
0 0.999665 0.0908738 0.000199906
0 0.999665 0.090874 0.000198193
0 0.999666 0.0908734 8.16607e-05
0 0.999666 0.0908732 7.36947e-05
0 0.999666 0.0908739 0.000197826
0 0.999665 0.0908742 0.000242727
0 0.999664 0.0908742 0.000358342
0 0.999663 0.15658 10.5092
0 0.999666 0.0908732 4.82652e-05
0 0.999666 0.0908736 0.000102071
0 0.999666 0.0908731 2.66538e-05
0 0.999666 0.0908731 1.61797e-05
0 0.999666 0.0908732 0.000100296
0 0.999666 0.0908732 0.000105704
0 0.999666 0.0908731 4.05484e-05
0 0.999666 0.0908732 8.2387e-05
0 0.999665 0.0908736 0.000107851
0 0.999665 0.0908738 0.000148821
0 0.999665 0.0908736 0.000145317
0 0.999665 0.154573 10.2492
0 0.999666 0.0908735 0.000119317
0 0.999666 0.0908733 9.44249e-05
0 0.999666 0.0908737 0.000214067
0 0.999665 0.090874 0.00023607
0 0.999665 0.090874 0.000221177
0 0.999664 0.156611 10.5102
0 0.999666 0.0908732 3.89883e-05
0 0.999666 0.0908731 2.7145e-05
0 0.999666 0.0908732 0.000115174
0 0.999666 0.0908732 0.000107505
0 0.999666 0.0908731 6.62117e-05
0 0.999666 0.0908735 7.81477e-05
0 0.999665 0.0908738 0.000139407
0 0.999665 0.0908736 0.000153025
0 0.999665 0.155349 10.3394
0 0.999666 0.0908734 0.000150387
0 0.999666 0.0908738 0.000237961
0 0.999665 0.0908739 0.000253276
0 0.999665 0.0908738 0.0002188
0 0.999665 0.15567 10.4034
0 0.999666 0.0908732 4.07278e-05
0 0.999666 0.0908734 0.000138217
0 0.999666 0.0908733 8.9055e-05
0 0.999665 0.0908737 7.71579e-05
0 0.999665 0.0908739 0.000128794
0 0.999665 0.0908738 0.000144645
0 0.999664 0.155799 10.3764
0 0.999666 0.0908737 0.000217649
0 0.999665 0.0908738 0.000262098
0 0.999665 0.0908737 0.000245999
0 0.999665 0.15523 10.3483
0 0.999666 0.0908738 0.000202736
0 0.999665 0.0908737 6.71037e-05
0 0.999666 0.0908738 0.000144578
0 0.999665 0.0908739 0.000101693
0 0.999665 0.090874 0.000120844
0 0.999665 0.0908745 0.000167956
0 0.999664 0.155382 10.2937
0 0.999665 0.0908739 0.000261818
0 0.999665 0.0908737 0.000266588
0 0.999665 0.155605 10.3895
0 0.999665 0.090874 0.000219471
0 0.999665 0.0908742 9.63534e-05
0 0.999665 0.0908741 0.000146188
0 0.999665 0.0908747 0.000157521
0 0.999664 0.153901 10.7324
0 0.999665 0.0908738 0.000275917
0 0.999665 0.155562 10.3828
0 0.999665 0.0908742 0.000249756
0 0.999664 0.0908745 4.63708e-05
0 0.999664 0.154632 10.2144
0 0.999665 0.155671 10.3839
0 0.999664 0.155242 10.2763
VECTORS fa_u float
0.000325021 0.000134843 0
0.000292592 0.000169189 0
0.000322374 8.61205e-05 0
0.000343884 4.51783e-05 0
4.62225e-09 -8.52787e-09 0
0.000269066 0.000206447 0
0.000240206 0.000240016 0
-3.48769e-09 8.58386e-09 0
1.69413e-09 1.32509e-08 0
0.000179603 0.00023388 0
0.000171048 0.000296152 0
0.000347825 2.38005e-07 0
0.000327807 -4.31337e-05 0
2.11486e-08 -8.54608e-09 0
1.91909e-08 8.55886e-09 0
1.00379e-08 -2.31593e-09 0
3.73149e-09 2.2778e-09 0
2.08049e-09 1.6686e-08 0
6.28499e-09 2.63376e-08 0
1.87206e-09 9.7044e-09 0
4.11101e-09 1.50367e-08 0
0.000127462 0.000307351 0
8.98844e-05 0.00033525 0
2.43905e-08 1.27623e-08 0
1.48953e-08 8.73917e-10 0
9.07866e-09 4.51249e-09 0
0.000320725 -8.61116e-05 0
5.90358e-09 5.47443e-09 0
0.000309365 -0.000128317 0
1.39611e-08 -5.72234e-10 0
1.19126e-08 2.21574e-09 0
7.65828e-09 -5.37454e-10 0
4.39758e-05 0.000333529 0
4.25155e-09 1.32598e-09 0
2.75204e-09 5.03512e-09 0
7.75677e-09 1.94798e-08 0
1.3139e-08 1.79959e-08 0
3.2385e-09 9.13558e-09 0
6.25596e-09 1.42634e-08 0
5.07169e-09 1.57338e-09 0
7.04075e-09 4.40891e-09 0
1.51758e-08 1.16025e-08 0
1.11522e-08 6.72751e-09 0
-3.97532e-08 0.000332513 0
7.50942e-09 2.88111e-09 0
1.68549e-09 1.37699e-08 0
2.98387e-09 6.06367e-09 0
0.00027836 -0.00016085 0
-1.678e-08 3.4339e-08 0
0.000265925 -0.000203701 0
7.86716e-09 -2.60212e-10 0
7.56883e-09 6.51026e-10 0
3.62116e-09 5.33689e-10 0
8.13543e-09 3.65166e-09 0
1.212e-08 2.60297e-09 0
2.32326e-09 3.21603e-09 0
8.52728e-09 1.43798e-08 0
1.12761e-08 1.38074e-08 0
3.52665e-09 7.02133e-09 0
8.14243e-09 4.87574e-09 0
7.79128e-09 3.66985e-09 0
9.8944e-09 9.81099e-09 0
8.57698e-09 7.02556e-09 0
-4.2938e-05 0.000324097 0
4.31033e-09 1.2614e-09 0
-5.87766e-09 1.21362e-08 0
5.98365e-10 3.71835e-09 0
-3.52933e-08 -2.48579e-09 0
-1.35217e-08 8.34651e-09 0
0.000216795 -0.000216727 0
-1.18686e-08 -1.06952e-09 0
0.000225662 -0.000294391 0
2.65456e-09 1.6725e-09 0
3.76168e-09 -9.74847e-11 0
2.83652e-09 2.38923e-10 0
9.85153e-09 5.54213e-10 0
2.07019e-08 -3.7106e-09 0
1.38158e-08 -4.61433e-09 0
2.36205e-09 3.55859e-09 0
2.19963e-09 2.1823e-09 0
5.59093e-09 7.59693e-09 0
2.82373e-09 4.60429e-09 0
6.5166e-09 4.04866e-09 0
6.89763e-09 1.35894e-09 0
5.29791e-09 4.92551e-09 0
-9.70344e-05 0.000361462 0
1.40944e-09 2.10762e-10 0
-2.9642e-09 3.27619e-09 0
-1.38128e-08 1.19147e-09 0
-6.08655e-09 1.89616e-09 0
-9.18012e-09 -1.20442e-08 0
-6.1331e-09 -4.12555e-09 0
0.000166542 -0.000288209 0
6.34127e-09 -9.12821e-09 0
2.10886e-09 8.06974e-10 0
2.3322e-09 -5.61297e-10 0
2.26969e-09 -2.95897e-10 0
1.52666e-09 -1.00435e-09 0
0.000128372 -0.000309765 0
1.92047e-08 -1.23741e-08 0
8.49824e-09 -2.40688e-09 0
1.67017e-08 -1.10638e-08 0
1.1508e-08 -7.8567e-09 0
1.41675e-09 1.41755e-09 0
1.97533e-09 3.10319e-09 0
3.43808e-09 4.1661e-09 0
2.32993e-09 3.64762e-09 0
4.86318e-09 1.31638e-09 0
3.23817e-09 2.58666e-09 0
-0.000125082 0.000302406 0
-2.33104e-10 -5.61511e-10 0
-3.06148e-09 -1.49142e-09 0
-4.0074e-12 -6.27582e-09 0
-1.91028e-10 -3.8408e-09 0
6.7868e-09 -5.19676e-09 0
4.69395e-09 -5.75303e-09 0
8.1849e-09 -1.9462e-09 0
1.21721e-09 7.48007e-10 0
8.76969e-10 1.50163e-09 0
1.49265e-09 1.00694e-11 0
1.99927e-09 -9.42139e-10 0
1.33824e-09 -1.52384e-09 0
1.94937e-09 -1.48733e-09 0
9.57058e-10 -2.60891e-11 0
8.73287e-05 -0.000324856 0
4.44978e-08 -2.54318e-08 0
2.11108e-08 -2.08433e-08 0
6.22449e-09 -4.0542e-09 0
1.23763e-08 -1.31273e-08 0
1.10273e-09 2.21033e-09 0
1.8578e-09 2.72758e-09 0
3.1114e-09 9.94278e-11 0
1.66106e-09 1.40387e-09 0
1.12625e-08 -5.33886e-08 0
-0.000165326 0.000286299 0
1.07051e-09 -2.10699e-09 0
2.63659e-09 -4.14346e-09 0
5.84674e-09 -3.18684e-09 0
4.22953e-09 -3.73339e-09 0
9.60543e-09 8.03908e-09 0
5.42875e-09 8.0685e-10 0
1.61346e-09 -1.67254e-09 0
1.71123e-10 1.60625e-09 0
3.11237e-10 9.46612e-10 0
1.46207e-09 -8.68965e-10 0
1.78373e-09 -1.57667e-09 0
1.71292e-09 -1.67273e-09 0
8.43265e-10 -4.798e-10 0
8.79273e-11 3.89216e-10 0
-6.28788e-09 6.33381e-09 0
4.20065e-05 -0.00031865 0
2.59778e-09 -2.7833e-09 0
1.94737e-08 -3.06062e-08 0
1.29014e-08 -2.05648e-08 0
6.03267e-09 -9.17244e-09 0
1.68612e-08 -3.67045e-08 0
4.90647e-10 1.52335e-09 0
8.53383e-10 -6.61753e-11 0
-5.35225e-10 1.62676e-09 0
7.51034e-10 -2.44524e-09 0
2.55358e-08 -3.12845e-08 0
-0.00020184 0.000263121 0
2.24653e-09 -1.99718e-09 0
3.78107e-09 -1.75042e-09 0
1.96593e-09 2.37566e-09 0
2.84644e-09 -1.46299e-10 0
-1.30736e-09 8.01836e-10 0
1.75518e-09 -1.47049e-09 0
-6.60875e-10 1.24005e-09 0
1.19623e-09 -1.01595e-09 0
1.43443e-09 -1.40273e-09 0
4.16413e-10 -2.06498e-10 0
-6.08393e-10 8.51734e-10 0
-3.08019e-09 -1.84959e-09 0
-1.5111e-07 -0.000334805 0
1.94423e-09 -5.43461e-09 0
1.06534e-08 -2.33779e-08 0
6.28939e-09 -1.33593e-08 0
1.08979e-08 -3.18803e-08 0
8.60259e-09 -2.33198e-08 0
-5.91877e-10 8.26204e-10 0
-4.57283e-10 -4.2461e-10 0
-1.24122e-09 1.39007e-09 0
-3.88077e-10 -2.21069e-09 0
3.3947e-10 -4.98006e-09 0
1.82174e-09 -2.67949e-08 0
2.33886e-09 -4.8359e-08 0
-0.000243062 0.000243301 0
1.89763e-09 -1.0027e-09 0
1.16383e-09 -1.98737e-10 0
-1.45241e-09 -2.27237e-09 0
-2.3735e-10 -1.13925e-09 0
1.4592e-09 -1.36034e-09 0
9.32937e-10 -1.24977e-09 0
-1.44975e-09 1.36666e-09 0
6.40156e-10 -6.47879e-10 0
-5.11144e-14 8.85257e-11 0
-1.54155e-09 1.47796e-09 0
-8.91388e-10 7.99907e-10 0
-1.45575e-09 -3.61295e-09 0
-1.71092e-09 -3.48817e-09 0
-4.34795e-05 -0.000330793 0
2.75671e-09 -1.0904e-08 0
3.00529e-09 -1.7102e-08 0
-1.59801e-09 -1.30307e-08 0
-9.08161e-10 -5.08633e-09 0
-1.48894e-09 4.72472e-10 0
-1.61428e-09 -1.53745e-09 0
-3.61546e-09 -1.32957e-08 0
-5.58277e-09 -2.26062e-08 0
-0.000262735 0.000201694 0
8.21658e-10 -1.11897e-09 0
-4.69698e-10 -2.25764e-09 0
-1.04169e-09 -3.362e-09 0
6.67324e-10 -1.19731e-09 0
2.5113e-10 -7.65329e-10 0
-2.16312e-09 1.49344e-09 0
-2.4375e-09 1.88584e-09 0
-3.42919e-10 1.28498e-10 0
-1.56077e-09 1.24061e-09 0
-1.66279e-09 -4.22435e-09 0
-1.64516e-09 -3.88573e-09 0
-8.5232e-05 -0.000318064 0
-1.45524e-09 -6.19231e-09 0
-4.37317e-09 -4.54392e-09 0
-2.1086e-09 -1.51845e-09 0
-2.28681e-09 5.18989e-10 0
-6.26511e-09 -6.10921e-10 0
-6.13008e-09 -4.69845e-09 0
-6.21229e-09 -9.56152e-09 0
-0.000289537 0.000167312 0
3.5133e-11 -1.53539e-09 0
-1.06817e-09 -3.06722e-09 0
-1.99175e-11 -8.47889e-10 0
-4.23795e-10 -2.92325e-10 0
-2.70977e-09 1.68592e-09 0
-2.63365e-09 2.09213e-09 0
-1.14378e-09 5.97078e-10 0
-2.10287e-09 1.56539e-09 0
-1.53918e-09 -3.06728e-09 0
-1.85317e-09 -4.35779e-09 0
-1.86609e-09 -4.23071e-09 0
-0.000124858 -0.00030128 0
-3.77493e-09 -4.0576e-10 0
-2.83442e-09 9.96812e-10 0
-6.63383e-09 1.54593e-09 0
-7.51173e-09 5.92841e-12 0