# vtk DataFile Version 2.0
CellBP Time: 2.04
ASCII
DATASET UNSTRUCTURED_GRID
POINTS 296 double
-9.1851 -3.7753 0
-8.60679 -4.948 0
-9.60541 -2.53716 0
-9.8605 -1.25474 0
-8.35806 -2.81887 0
-7.8804 -6.03521 0
-7.01825 -7.01824 0
-7.9177 -3.87494 0
-7.34311 -4.86814 0
-6.0352 -7.88038 0
-4.94801 -8.6068 0
-9.94608 0.0499996 0
-9.86051 1.35474 0
-8.65817 -1.68403 0
-8.78681 -0.529655 0
-7.59019 -2.00427 0
-7.22622 -2.90667 0
-6.63807 -5.77925 0
-5.82279 -6.59733 0
-6.79073 -3.88917 0
-6.22101 -4.67624 0
-3.77531 -9.18509 0
-2.53716 -9.60538 0
-4.9068 -7.30929 0
-3.91327 -7.88676 0
-8.79327 0.643435 0
-9.60544 2.63718 0
-8.62379 1.77418 0
-9.18514 3.87533 0
-7.74481 -0.929039 0
-7.79503 0.0802594 0
-6.95302 -1.31596 0
-1.25474 -9.86051 0
-6.44191 -2.15326 0
-6.31981 -3.05633 0
-5.53693 -5.47496 0
-4.79625 -6.11591 0
-5.65942 -3.75726 0
-5.26977 -4.56191 0
-2.86636 -8.3645 0
-1.77868 -8.64083 0
-3.92842 -6.72404 0
-3.05684 -7.15313 0
0.0500001 -9.94603 0
-7.70604 1.14359 0
-8.33912 2.91561 0
-7.55244 2.11211 0
-8.60679 5.04801 0
-7.8806 3.9785 0
-7.88037 6.13519 0
-6.77917 -0.396882 0
-6.95704 0.552581 0
-5.77177 -1.00347 0
-0.590878 -8.81033 0
0.565721 -8.77152 0
-5.30346 -2.48043 0
-4.49229 -5.0961 0
-3.90279 -5.77575 0
-4.4392 -3.805 0
-2.06257 -7.56253 0
-1.13557 -7.78645 0
-2.99477 -6.10252 0
-2.3092 -6.6203 0
1.35475 -9.86054 0
-6.68995 1.42215 0
-7.17274 3.11836 0
-6.65977 2.37319 0
-7.29528 4.98903 0
-6.71863 4.00338 0
-7.01828 7.11828 0
-6.57301 5.89461 0
-6.0352 7.9804 0
-4.45338 -1.18114 0
-5.81499 0.513792 0
-4.65644 -0.0103823 0
0.00852172 -7.84875 0
1.7387 -8.6445 0
0.949042 -7.7641 0
-4.03876 -2.40653 0
-3.48576 -1.39128 0
-3.29473 -4.80567 0
-3.26607 -3.26799 0
-1.37869 -6.676 0
-0.508782 -7.02553 0
-1.97569 -5.53743 0
2.63717 -9.60545 0
-5.50773 2.03707 0
-6.09523 3.07247 0
-6.10565 4.87008 0
-5.76225 3.99184 0
-5.76182 6.71776 0
-5.45266 5.61991 0
-4.94803 8.70684 0
-4.83893 7.40528 0
-3.50171 -0.42433 0
-4.4496 1.24912 0
-3.7117 0.59211 0
-4.06245 2.31997 0
-3.77532 9.28514 0
2.86287 -8.33364 0
0.419726 -6.79606 0
2.02222 -7.52659 0
1.30621 -6.90625 0
-2.44481 -0.873866 0
-2.83856 -2.13127 0
-2.29456 -4.09766 0
-2.3258 -2.97379 0
-0.442421 -5.86165 0
-1.22281 -4.49946 0
3.87533 -9.18516 0
-4.7902 3.39208 0
-5.08845 4.59461 0
-4.64768 6.28212 0
-4.53935 5.3603 0
-3.84415 7.99422 0
-3.82718 6.84649 0
-2.78361 8.42377 0
-1.64915 -0.137908 0
-1.45035 -0.890641 0
-2.48927 0.507287 0
-3.25384 1.44425 0
-3.23927 3.31681 0
-2.91118 2.37193 0
-1.35519 0.627143 0
-2.53717 9.70547 0
3.93313 -7.88785 0
2.96488 -7.15856 0
0.954178 -5.82257 0
2.07457 -6.41623 0
-1.68307 -1.99218 0
-1.43453 -3.278 0
0.0902259 -4.74737 0
-0.566214 -3.69469 0
4.93271 -7.31965 0
5.04801 -8.60682 0
-3.7773 4.55205 0
-3.73518 5.7528 0
-2.88832 7.29075 0
-3.01005 6.35448 0
-1.66275 8.7347 0
-1.94035 7.6203 0
-2.33857 4.05201 0
-0.730774 -1.32733 0
-0.836946 -0.257641 0
-1.93633 1.68088 0
-2.12592 2.87605 0
-1.30667 3.54496 0
-0.869512 1.35091 0
-0.282383 0.456074 0
-0.533584 8.87278 0
-1.25474 9.9605 0
1.11288 -4.575 0
3.91063 -6.71816 0
2.98828 -6.09552 0
2.11808 -5.42554 0
4.78507 -6.20619 0
-0.558888 -2.47698 0
0.495147 -3.4641 0
0.0535557 -1.61058 0
1.48202 -3.68247 0
5.86795 -6.61555 0
6.13519 -7.88039 0
-2.47594 5.34905 0
-2.13072 6.53528 0
-0.904193 7.80436 0
-1.27251 6.93297 0
0.0862155 7.88148 0
-1.14456 4.49512 0
0.150329 -0.617681 0
-0.797481 2.48867 0
-0.331675 3.60102 0
0.0631095 1.51282 0
0.741481 0.473449 0
0.646873 8.87547 0
0.05 10.046 0
2.38125 -4.28568 0
3.8597 -5.64122 0
3.00183 -5.21341 0
5.57461 -5.49266 0
4.69171 -5.28383 0
0.629717 -2.29352 0
1.25628 -2.95146 0
0.757547 -1.39154 0
2.16454 -3.13611 0
2.9941 -3.47696 0
6.15617 -4.79257 0
6.65662 -5.77021 0
7.11829 -7.01829 0
-1.01975 5.82105 0
-0.372671 6.88459 0
1.12281 7.77081 0
0.558059 7.08089 0
-0.000765344 4.72568 0
0.607058 3.82819 0
1.33901 -0.641938 0
0.53914 2.65126 0
0.966151 1.57505 0
1.91034 0.213883 0
1.61489 1.06511 0
2.12977 7.5849 0
1.79951 8.71385 0
1.35475 9.96054 0
3.82334 -4.35219 0
5.11741 -4.44975 0
5.84675 -3.93582 0
3.78447 -3.20146 0
1.81244 -1.88278 0
3.01949 -2.57417 0
6.78463 -3.9486 0
7.38278 -4.89768 0
7.98039 -6.03521 0
0.483426 5.88238 0
1.42842 6.74309 0
2.37478 6.67033 0
1.21013 4.55675 0
1.48834 3.39801 0
2.43604 -0.692088 0
2.82836 0.14262 0
1.78907 2.16306 0
2.61217 1.15027 0
3.07264 7.17156 0
2.90479 8.37846 0
2.63718 9.70547 0
4.91207 -3.32842 0
6.12187 -3.10927 0
4.17346 -2.27557 0
3.24484 -1.50308 0
6.73275 -2.31351 0
7.23362 -3.04319 0
7.96658 -3.91307 0
8.70683 -4.94803 0
2.02396 5.60078 0
3.08717 6.15493 0
2.36426 4.12752 0
2.4204 3.06129 0
3.52616 -0.460918 0
3.61621 0.613373 0
2.96224 2.28839 0
3.54611 1.52549 0
4.01318 5.8996 0
3.98553 6.79499 0
3.97434 7.94077 0
3.87533 9.28514 0
5.56994 -1.91653 0
4.50997 -1.12978 0
6.71566 -1.33644 0
7.59461 -2.03696 0
8.39943 -2.86212 0
9.28512 -3.77532 0
3.41987 4.87808 0
3.3396 3.38598 0
4.69211 0.130099 0
4.52001 1.31021 0
4.06608 2.44426 0
4.57198 5.15405 0
4.84528 6.19282 0
4.98202 7.38279 0
5.04804 8.70685 0
5.88495 -0.435004 0
7.01312 -0.488391 0
7.76211 -1.08563 0
8.68761 -1.74648 0
9.70545 -2.53718 0
4.55368 3.82861 0
5.81939 1.09889 0
5.37279 2.53565 0
5.3821 4.62232 0
5.61431 5.52565 0
5.89935 6.67434 0
6.13521 7.9804 0
6.84862 0.463702 0
7.85636 -0.0256463 0
8.86366 -0.584548 0
9.96056 -1.25475 0
6.96328 1.34998 0
5.72336 3.77995 0
6.54409 2.19837 0
6.38288 3.08927 0
6.29515 4.68899 0
6.69581 5.8402 0
7.11831 7.11831 0
7.78765 0.968013 0
8.86301 0.572976 0
10.046 0.0500001 0
7.61956 2.00517 0
6.83226 3.90602 0
7.27283 2.94811 0
7.38147 4.88785 0
7.98044 6.13524 0
8.72661 1.72762 0
9.96055 1.35475 0
8.42453 2.83896 0
7.98502 3.91796 0
8.70687 5.04804 0
9.70546 2.63717 0
9.28517 3.87533 0
CELLS 542 2168
3 2 0 4
3 0 1 7
3 4 0 7
3 1 5 8
3 7 1 8
3 3 2 13
3 13 2 4
3 11 3 14
3 14 3 13
3 13 4 15
3 4 7 16
3 15 4 16
3 5 6 17
3 8 5 17
3 6 9 18
3 17 6 18
3 7 8 19
3 16 7 19
3 8 17 20
3 19 8 20
3 9 10 23
3 18 9 23
3 10 21 24
3 23 10 24
3 12 11 25
3 25 11 14
3 26 12 27
3 27 12 25
3 14 13 29
3 29 13 15
3 25 14 30
3 30 14 29
3 29 15 31
3 15 16 33
3 31 15 33
3 16 19 34
3 33 16 34
3 17 18 35
3 20 17 35
3 18 23 36
3 35 18 36
3 19 20 37
3 34 19 37
3 20 35 38
3 37 20 38
3 21 22 39
3 24 21 39
3 22 32 40
3 39 22 40
3 23 24 41
3 36 23 41
3 24 39 42
3 41 24 42
3 27 25 44
3 44 25 30
3 28 26 45
3 45 26 27
3 45 27 46
3 46 27 44
3 47 28 48
3 48 28 45
3 30 29 50
3 50 29 31
3 44 30 51
3 51 30 50
3 50 31 52
3 31 33 52
3 32 43 53
3 40 32 53
3 53 43 54
3 33 34 55
3 34 37 55
3 33 55 52
3 35 36 56
3 38 35 56
3 36 41 57
3 56 36 57
3 37 38 58
3 38 56 58
3 37 58 55
3 39 40 59
3 42 39 59
3 40 53 60
3 59 40 60
3 41 42 61
3 57 41 61
3 42 59 62
3 61 42 62
3 43 63 54
3 46 44 64
3 64 44 51
3 48 45 65
3 65 45 46
3 65 46 66
3 66 46 64
3 49 47 67
3 67 47 48
3 67 48 68
3 68 48 65
3 69 49 70
3 70 49 67
3 52 55 72
3 64 51 73
3 51 50 73
3 50 52 73
3 73 52 74
3 74 52 72
3 53 54 75
3 60 53 75
3 54 63 76
3 54 76 77
3 75 54 77
3 55 58 78
3 72 55 78
3 72 78 79
3 56 57 80
3 57 61 80
3 56 80 58
3 58 80 81
3 78 58 81
3 59 60 82
3 62 59 82
3 60 75 83
3 82 60 83
3 61 62 84
3 62 82 84
3 61 84 80
3 63 85 76
3 66 64 86
3 64 73 86
3 68 65 87
3 87 65 66
3 87 66 86
3 70 67 88
3 88 67 68
3 88 68 89
3 89 68 87
3 71 69 90
3 90 69 70
3 90 70 91
3 91 70 88
3 92 71 93
3 93 71 90
3 74 72 94
3 94 72 79
3 86 73 95
3 95 73 74
3 95 74 96
3 96 74 94
3 97 86 95
3 76 85 99
3 75 77 100
3 83 75 100
3 76 99 101
3 77 76 101
3 77 101 102
3 100 77 102
3 94 79 103
3 78 81 104
3 79 78 104
3 79 104 103
3 80 84 105
3 81 80 105
3 81 105 106
3 104 81 106
3 82 83 107
3 83 100 107
3 82 107 84
3 84 107 108
3 105 84 108
3 85 109 99
3 89 87 110
3 87 86 110
3 110 86 97
3 91 88 111
3 111 88 89
3 111 89 110
3 93 90 112
3 112 90 91
3 112 91 113
3 113 91 111
3 98 92 114
3 114 92 93
3 114 93 115
3 115 93 112
3 116 98 114
3 117 103 118
3 96 94 119
3 94 103 119
3 119 103 117
3 97 95 120
3 120 95 96
3 120 96 119
3 121 110 97
3 121 97 122
3 122 97 120
3 123 119 117
3 124 98 116
3 99 109 125
3 99 125 126
3 101 99 126
3 100 102 127
3 100 127 107
3 101 126 128
3 102 101 128
3 102 128 127
3 104 106 129
3 104 129 103
3 103 129 118
3 105 108 130
3 106 105 130
3 106 130 129
3 107 127 131
3 108 107 131
3 108 131 132
3 108 132 130
3 109 134 125
3 125 134 133
3 113 111 135
3 111 110 135
3 135 110 121
3 115 112 136
3 136 112 113
3 136 113 135
3 116 114 137
3 137 114 115
3 137 115 138
3 138 115 136
3 139 124 116
3 139 116 140
3 140 116 137
3 141 135 121
3 118 129 142
3 118 142 143
3 117 118 143
3 123 117 143
3 122 120 144
3 120 119 144
3 144 119 123
3 141 121 145
3 145 121 122
3 145 122 144
3 146 141 145
3 147 144 123
3 147 123 148
3 143 148 123
3 150 124 139
3 149 150 139
3 131 127 151
3 125 133 152
3 126 125 152
3 126 152 153
3 128 126 153
3 128 153 154
3 128 154 127
3 127 154 151
3 152 133 155
3 130 132 156
3 130 156 129
3 129 156 142
3 131 151 157
3 132 131 157
3 132 157 156
3 156 158 142
3 157 151 159
3 133 160 155
3 134 161 133
3 133 161 160
3 138 136 162
3 136 135 162
3 162 135 141
3 140 137 163
3 163 137 138
3 163 138 162
3 149 139 164
3 164 139 140
3 164 140 165
3 165 140 163
3 166 149 164
3 167 162 141
3 167 141 146
3 142 158 168
3 143 142 168
3 143 168 148
3 146 145 169
3 145 144 169
3 169 144 147
3 170 167 146
3 170 146 169
3 171 169 147
3 171 147 148
3 171 148 172
3 168 172 148
3 173 149 166
3 174 150 149
3 173 174 149
3 154 175 151
3 151 175 159
3 152 155 176
3 153 152 176
3 153 176 177
3 153 177 154
3 154 177 175
3 155 160 178
3 155 178 179
3 176 155 179
3 156 157 180
3 156 180 158
3 157 159 181
3 157 181 180
3 158 180 182
3 158 182 168
3 159 175 183
3 159 183 181
3 175 184 183
3 160 186 178
3 178 186 185
3 161 187 160
3 160 187 186
3 165 163 188
3 163 162 188
3 188 162 167
3 166 164 189
3 189 164 165
3 189 165 188
3 190 173 166
3 190 166 191
3 191 166 189
3 192 188 167
3 192 167 170
3 193 192 170
3 182 194 168
3 194 172 168
3 193 170 195
3 170 169 195
3 195 169 171
3 196 195 171
3 196 171 172
3 194 197 172
3 197 198 172
3 198 196 172
3 200 173 190
3 199 200 190
3 201 174 173
3 200 201 173
3 176 179 202
3 177 176 202
3 177 202 175
3 175 202 184
3 178 185 203
3 178 203 179
3 179 203 202
3 203 185 204
3 202 205 184
3 183 206 181
3 180 181 206
3 180 206 182
3 182 206 194
3 183 184 207
3 205 207 184
3 183 207 206
3 185 208 204
3 186 209 185
3 185 209 208
3 187 210 186
3 186 210 209
3 191 189 211
3 189 188 211
3 211 188 192
3 199 190 212
3 212 190 191
3 212 191 211
3 213 199 212
3 214 211 192
3 214 192 193
3 215 214 193
3 215 193 195
3 206 216 194
3 216 197 194
3 216 217 197
3 215 195 218
3 218 195 196
3 198 218 196
3 217 219 197
3 219 218 198
3 197 219 198
3 220 199 213
3 221 200 199
3 220 221 199
3 222 201 200
3 221 222 200
3 203 204 223
3 203 223 202
3 202 223 205
3 204 208 224
3 204 224 223
3 205 223 225
3 205 225 207
3 207 225 226
3 207 226 206
3 226 216 206
3 208 228 224
3 224 228 227
3 209 229 208
3 229 228 208
3 210 230 209
3 209 230 229
3 213 212 231
3 212 211 231
3 231 211 214
3 232 220 213
3 232 213 231
3 233 231 214
3 233 214 215
3 234 233 215
3 234 215 218
3 226 235 216
3 235 217 216
3 235 236 217
3 217 236 219
3 237 234 218
3 237 218 219
3 236 238 219
3 238 237 219
3 240 220 232
3 239 240 232
3 241 221 220
3 240 241 220
3 242 222 221
3 241 242 221
3 224 227 243
3 224 243 223
3 223 243 225
3 225 243 244
3 225 244 226
3 226 244 235
3 227 245 243
3 228 246 227
3 227 246 245
3 229 247 228
3 228 247 246
3 230 248 229
3 229 248 247
3 239 232 249
3 232 231 249
3 249 231 233
3 250 249 233
3 250 233 234
3 237 250 234
3 244 251 235
3 235 251 236
3 251 252 236
3 236 252 238
3 252 253 238
3 253 250 237
3 253 237 238
3 254 239 249
3 255 240 239
3 254 255 239
3 256 241 240
3 255 256 240
3 257 242 241
3 256 257 241
3 245 258 243
3 243 258 244
3 244 258 251
3 245 259 258
3 246 260 245
3 245 260 259
3 247 261 246
3 246 261 260
3 248 262 247
3 247 262 261
3 254 249 263
3 263 249 250
3 253 263 250
3 258 264 251
3 251 264 252
3 264 265 252
3 265 263 253
3 252 265 253
3 266 254 263
3 267 255 254
3 266 267 254
3 268 256 255
3 267 268 255
3 269 257 256
3 268 269 256
3 259 270 258
3 270 264 258
3 260 271 259
3 259 271 270
3 261 272 260
3 260 272 271
3 262 273 261
3 273 272 261
3 270 274 264
3 275 266 263
3 275 263 265
3 274 276 264
3 276 265 264
3 276 277 265
3 277 275 265
3 278 267 266
3 275 278 266
3 279 268 267
3 278 279 267
3 280 269 268
3 279 280 268
3 271 281 270
3 270 281 274
3 272 282 271
3 271 282 281
3 273 283 272
3 272 283 282
3 281 284 274
3 274 284 276
3 285 278 275
3 277 285 275
3 284 286 276
3 286 285 277
3 276 286 277
3 287 279 278
3 285 287 278
3 288 280 279
3 287 288 279
3 282 289 281
3 281 289 284
3 283 290 282
3 282 290 289
3 289 291 284
3 284 291 286
3 291 292 286
3 292 287 285
3 286 292 285
3 293 288 287
3 292 293 287
3 290 294 289
3 289 294 291
3 294 295 291
3 295 293 292
3 291 295 292
CELL_TYPES 542
5
5
5
5
5
5
5
5
5
5
5
5
5
5
5
5
5
5
5
5
5
5
5
5
5
5
5
5
5
5
5
5
5
5
5
5
5
5
5
5
5
5
5
5
5
5
5
5
5
5
5
5
5
5
5
5
5
5
5
5
5
5
5
5
5
5
5
5
5
5
5
5
5
5
5
5
5
5
5
5
5
5
5
5
5
5
5
5
5
5
5
5
5
5
5
5
5
5
5
5
5
5
5
5
5
5
5
5
5
5
5
5
5
5
5
5
5
5
5
5
5
5
5
5
5
5
5
5
5
5
5
5
5
5
5
5
5
5
5
5
5
5
5
5
5
5
5
5
5
5
5
5
5
5
5
5
5
5
5
5
5
5
5
5
5
5
5
5
5
5
5
5
5
5
5
5
5
5
5
5
5
5
5
5
5
5
5
5
5
5
5
5
5
5
5
5
5
5
5
5
5
5
5
5
5
5
5
5
5
5
5
5
5
5
5
5
5
5
5
5
5
5
5
5
5
5
5
5
5
5
5
5
5
5
5
5
5
5
5
5
5
5
5
5
5
5
5
5
5
5
5
5
5
5
5
5
5
5
5
5
5
5
5
5
5
5
5
5
5
5
5
5
5
5
5
5
5
5
5
5
5
5
5
5
5
5
5
5
5
5
5
5
5
5
5
5
5
5
5
5
5
5
5
5
5
5
5
5
5
5
5
5
5
5
5
5
5
5
5
5
5
5
5
5
5
5
5
5
5
5
5
5
5
5
5
5
5
5
5
5
5
5
5
5
5
5
5
5
5
5
5
5
5
5
5
5
5
5
5
5
5
5
5
5
5
5
5
5
5
5
5
5
5
5
5
5
5
5
5
5
5
5
5
5
5
5
5
5
5
5
5
5
5
5
5
5
5
5
5
5
5
5
5
5
5
5
5
5
5
5
5
5
5
5
5
5
5
5
5
5
5
5
5
5
5
5
5
5
5
5
5
5
5
5
5
5
5
5
5
5
5
5
5
5
5
5
5
5
5
5
5
5
5
5
5
5
5
5
5
5
5
5
5
5
5
5
5
5
5
5
5
5
5
5
5
5
5
5
5
5
5
5
5
5
5
5
5
5
5
5
5
5
5
5
5
5
5
5
5
5
5
5
5
5
5
5
5
5
5
5
5
5
5
5
5
5
5
5
5
5
5
5
5
5
5
5
5
5
5
5
5
5
5
5
5
5
5
5
5
5
5
5
POINT_DATA 296
SCALARS concentrations float 4
LOOKUP_TABLE default
0 0.99921 0.223089 16.809
0 0.999209 0.222789 16.7629
0 0.99921 0.222131 16.4682
0 0.99921 0.221232 16.8236
0 0.99921 0.0908771 0.000197622
0 0.999209 0.22203 15.4426
0 0.999209 0.221698 16.7892
0 0.99921 0.0908773 0.000194951
0 0.999209 0.0908782 8.70077e-05
0 0.99921 0.221612 16.0973
0 0.999209 0.221969 16.7281
0 0.99921 0.220036 15.0513
0 0.999209 0.220523 16.5232
0 0.99921 0.0908772 0.000175002
0 0.99921 0.0908782 0.000230128
0 0.99921 0.0908772 0.000238753
0 0.99921 0.0908772 0.000221287
0 0.999209 0.0908782 3.48061e-05
0 0.99921 0.0908772 0.000154528
0 0.99921 0.0908774 0.000187546
0 0.99921 0.0908775 0.000147647
0 0.999209 0.223445 16.8335
0 0.999209 0.224574 16.7502
0 0.99921 0.0908775 0.000182481
0 0.999209 0.0908771 0.000154464
0 0.99921 0.0908783 0.000257216
0 0.999208 0.219703 16.252
0 0.999209 0.0908776 0.000245631
0 0.999207 0.220492 16.0889
0 0.99921 0.0908774 0.000263152
0 0.99921 0.0908775 0.000272667
0 0.99921 0.0908771 0.00023565
0 0.999209 0.221488 16.4728
0 0.99921 0.090877 0.000208267
0 0.99921 0.0908771 0.000208017
0 0.99921 0.0908775 0.000161439
0 0.99921 0.0908773 0.000186232
0 0.99921 0.0908771 0.000185343
0 0.99921 0.0908772 0.000188129
0 0.999209 0.0908771 0.000161687
0 0.999209 0.0908771 0.00014829
0 0.99921 0.0908773 0.000189251
0 0.99921 0.0908772 0.000176864
0 0.999209 0.220655 16.4546
0 0.99921 0.0908776 0.000265263
0 0.999208 0.0908778 0.000184399
0 0.999209 0.0908777 0.00021247
0 0.999206 0.219466 17.4093
0 0.999206 0.0908789 9.90543e-05
0 0.999206 0.219072 17.3093
0 0.99921 0.0908771 0.000233887
0 0.99921 0.0908772 0.000245967
0 0.99921 0.0908767 0.000145108
0 0.999209 0.0908771 0.000170626
0 0.999209 0.0908771 0.000168125
0 0.99921 0.0908767 0.000143124
0 0.99921 0.0908771 0.000182599
0 0.99921 0.0908771 0.000185728
0 0.99921 0.0908768 0.000142771
0 0.99921 0.0908771 0.000178006
0 0.999209 0.0908771 0.000189815
0 0.99921 0.090877 0.000170622
0 0.99921 0.0908771 0.000171225
0 0.999209 0.218987 16.1496
0 0.999209 0.0908772 0.000179822
0 0.999208 0.0908779 0.000113532
0 0.999209 0.0908774 0.000122005
0 0.999206 0.0908792 0.000519514
0 0.999207 0.0908782 0.000167585
0 0.999207 0.218939 16.216
0 0.999207 0.0908787 0.000407671
0 0.999208 0.219056 16.4979
0 0.99921 0.0908766 0.000114075
0 0.99921 0.0908768 0.000128316
0 0.99921 0.0908766 9.97539e-05
0 0.999209 0.0908772 0.000215607
0 0.999209 0.0908772 0.000259466
0 0.999209 0.0908772 0.000251157
0 0.999211 0.0908766 0.00011814
0 0.999211 0.0908765 0.000105486
0 0.99921 0.0908768 0.000136656
0 0.99921 0.0908766 0.000120677
0 0.99921 0.090877 0.000165262
0 0.99921 0.090877 0.000190587
0 0.99921 0.0908767 0.000128389
0 0.999208 0.219583 15.9884
0 0.999209 0.0908768 6.19621e-05
0 0.999208 0.0908774 4.72165e-05
0 0.999207 0.0908782 0.000279254
0 0.999208 0.0908777 0.000114438
0 0.999208 0.090878 0.000502223
0 0.999208 0.090878 0.000366953
0 0.999209 0.219004 16.1905
0 0.999209 0.0908779 0.000457533
0 0.99921 0.0908765 8.71527e-05
0 0.99921 0.0908766 7.06201e-05
0 0.99921 0.0908766 7.31609e-05
0 0.999209 0.0908766 6.45233e-05
0 0.999209 0.219684 16.2841
0 0.999208 0.0908776 0.000318163
0 0.99921 0.090877 0.000212559
0 0.999209 0.0908772 0.000254053
0 0.999209 0.0908771 0.000240531
0 0.99921 0.0908764 6.97993e-05
0 0.999211 0.0908765 0.000103269
0 0.99921 0.0908766 0.000119775
0 0.99921 0.0908766 0.000112167
0 0.99921 0.0908767 0.000141228
0 0.99921 0.0908766 0.00011638
0 0.999206 0.218928 16.0249
0 0.999209 0.0908769 8.14363e-05
0 0.999208 0.0908775 0.000196577
0 0.999208 0.0908777 0.000437654
0 0.999208 0.0908775 0.000316398
0 0.999209 0.0908779 0.000381861
0 0.999209 0.0908777 0.00046272
0 0.999208 0.090879 0.00042699
0 0.99921 0.0908764 4.70806e-05
0 0.999211 0.0908764 5.87565e-05
0 0.99921 0.0908764 4.66054e-05
0 0.99921 0.0908765 5.10677e-05
0 0.999209 0.0908767 0.000117788
0 0.99921 0.0908766 7.35555e-05
0 0.99921 0.0908763 3.6287e-05
0 0.999208 0.219145 15.4727
0 0.999206 0.090878 0.000204028
0 0.999208 0.0908774 0.000222727
0 0.99921 0.0908768 0.000169981
0 0.999209 0.0908771 0.00022475
0 0.999211 0.0908764 8.00214e-05
0 0.99921 0.0908765 0.00010533
0 0.99921 0.0908766 0.000120252
0 0.99921 0.0908765 0.000103366
0 0.999206 0.0908785 0.000241226
0 0.999204 0.218883 16.9737
0 0.999209 0.0908769 0.000190015
0 0.999209 0.0908773 0.000365289
0 0.999209 0.0908781 0.000472004
0 0.999209 0.0908775 0.000434378
0 0.999207 0.0908794 0.000444195
0 0.999208 0.0908783 0.000414289
0 0.999209 0.0908767 0.000166301
0 0.999211 0.0908763 5.47215e-05
0 0.99921 0.0908763 2.64933e-05
0 0.99921 0.0908764 5.41587e-05
0 0.99921 0.0908766 0.000109558
0 0.99921 0.0908766 0.000151825
0 0.99921 0.0908763 5.34215e-05
0 0.99921 0.0908762 2.77476e-05
0 0.999206 0.0908788 0.000215558
0 0.999206 0.220022 16.9765
0 0.99921 0.0908766 0.000123432
0 0.999207 0.0908776 0.000174701
0 0.999208 0.0908773 0.00020769
0 0.999209 0.0908769 0.00016551
0 0.999207 0.0908778 0.000187216
0 0.99921 0.0908764 8.00969e-05
0 0.99921 0.0908765 9.95734e-05
0 0.99921 0.0908764 5.27818e-05
0 0.99921 0.0908766 0.000112513
0 0.999207 0.0908786 0.000410333
0 0.999206 0.218862 17.0021
0 0.999209 0.0908769 0.000251485
0 0.999209 0.0908776 0.000401117
0 0.999208 0.0908784 0.000301735
0 0.999209 0.0908779 0.000366303
0 0.999207 0.0908781 0.000167321
0 0.999209 0.0908767 0.000174561
0 0.99921 0.0908762 8.48074e-06
0 0.99921 0.0908764 9.31111e-05
0 0.99921 0.0908766 0.000149302
0 0.99921 0.0908763 6.58311e-05
0 0.99921 0.0908762 3.788e-05
0 0.999206 0.0908781 7.73171e-05
0 0.999205 0.218627 16.5515
0 0.999209 0.0908767 0.000108325
0 0.999208 0.0908773 0.000166212
0 0.999209 0.090877 0.000147312
0 0.999207 0.0908777 0.000184647
0 0.999208 0.0908773 0.000139875
0 0.99921 0.0908764 6.60449e-05
0 0.99921 0.0908765 7.68028e-05
0 0.99921 0.0908763 3.11872e-05
0 0.99921 0.0908766 7.95583e-05
0 0.999209 0.0908767 8.40889e-05
0 0.999207 0.0908775 9.95662e-05
0 0.999206 0.0908777 0.000174819
0 0.999206 0.217858 15.9596
0 0.999209 0.090877 0.000219416
0 0.999209 0.0908776 0.000254189
0 0.999208 0.0908778 0.000131525
0 0.999208 0.0908776 0.000179001
0 0.99921 0.0908767 0.000153673
0 0.99921 0.0908766 0.000149133
0 0.99921 0.0908763 1.21545e-05
0 0.99921 0.0908764 0.0001043
0 0.99921 0.0908763 7.89005e-05
0 0.99921 0.0908764 4.70509e-05
0 0.99921 0.0908764 7.28383e-05
0 0.999208 0.0908776 0.000147844
0 0.999207 0.0908776 0.000158335
0 0.999206 0.219023 16.1564
0 0.999209 0.0908769 9.49095e-05
0 0.999208 0.0908772 9.57915e-05
0 0.999208 0.0908773 5.86023e-05
0 0.999209 0.0908767 5.9787e-05
0 0.99921 0.0908764 3.13769e-05
0 0.99921 0.0908766 4.44341e-05
0 0.999207 0.0908774 4.80433e-05
0 0.999206 0.0908775 1.30368e-05
0 0.999205 0.21838 16.6101
0 0.999209 0.0908769 0.000142599
0 0.999209 0.0908772 0.000137833
0 0.999209 0.0908773 0.000143186
0 0.99921 0.0908767 0.000133465
0 0.99921 0.0908766 0.000131476
0 0.99921 0.0908764 2.36581e-05
0 0.99921 0.0908765 6.07778e-05
0 0.99921 0.0908764 0.000100397
0 0.99921 0.0908765 8.68856e-05
0 0.999208 0.0908773 0.00016482
0 0.999208 0.0908781 0.000151761
0 0.999207 0.217567 16.0317
0 0.999209 0.0908768 3.73459e-05
0 0.999208 0.0908771 2.35933e-05
0 0.999209 0.0908767 2.0624e-05
0 0.99921 0.0908765 2.00831e-05
0 0.999208 0.0908772 5.77278e-05
0 0.999207 0.0908774 5.04258e-05
0 0.999206 0.0908774 8.70083e-05
0 0.999206 0.220158 16.102
0 0.999209 0.0908767 0.000115376
0 0.999209 0.0908771 0.000163412
0 0.99921 0.0908766 0.000127476
0 0.99921 0.0908766 0.000130884
0 0.99921 0.0908766 5.04814e-05
0 0.99921 0.0908766 8.53929e-05
0 0.99921 0.0908766 0.000118568
0 0.99921 0.0908766 0.000110053
0 0.999209 0.0908772 0.000214347
0 0.999209 0.0908774 0.000231448
0 0.999208 0.0908778 0.000153369
0 0.999208 0.216331 17.1268
0 0.999209 0.0908768 2.66779e-05
0 0.999209 0.0908766 4.10369e-05
0 0.999209 0.0908772 0.000123796
0 0.999208 0.0908776 0.000168371
0 0.999207 0.0908779 0.000205457
0 0.999206 0.220138 16.8013
0 0.99921 0.0908767 0.000138919
0 0.99921 0.0908766 0.00012657
0 0.99921 0.0908766 7.47075e-05
0 0.99921 0.0908766 9.9871e-05
0 0.99921 0.0908766 0.000116201
0 0.99921 0.0908771 0.000213369
0 0.999209 0.0908775 0.000234814
0 0.999209 0.0908776 0.000356847
0 0.999209 0.217876 15.9637
0 0.999209 0.0908768 8.71532e-05
0 0.999209 0.0908774 0.000207339
0 0.999209 0.0908778 0.000303713
0 0.999208 0.0908777 0.000273663
0 0.999207 0.218487 16.2181
0 0.99921 0.0908767 0.00014915
0 0.99921 0.0908768 0.000111422
0 0.99921 0.0908768 0.000129926
0 0.99921 0.0908772 0.00021585
0 0.999209 0.0908775 0.000195517
0 0.999209 0.0908788 0.000346938
0 0.999209 0.218691 16.3748
0 0.999209 0.0908772 0.00019558
0 0.999209 0.0908778 0.000351344
0 0.99921 0.0908789 0.000608453
0 0.999209 0.217664 15.9057
0 0.999209 0.0908772 0.000200718
0 0.99921 0.0908771 0.000198173
0 0.99921 0.0908771 0.000176635
0 0.99921 0.0908772 0.000197595
0 0.999209 0.0908775 0.00017261
0 0.999208 0.0908782 0.000107156
0 0.999208 0.217605 15.0382
0 0.999209 0.0908777 0.000307589
0 0.99921 0.0908789 0.000600572
0 0.999211 0.218069 17.3827
0 0.999209 0.0908774 0.000208659
0 0.999209 0.0908773 0.000199004
0 0.999209 0.0908773 0.000189975
0 0.999209 0.0908773 0.000160501
0 0.999208 0.215298 16.0418
0 0.999209 0.0908775 0.00020148
0 0.99921 0.218266 15.98
0 0.999209 0.0908773 0.000143254
0 0.999209 0.0908772 0.000133774
0 0.999209 0.216563 16.0403
0 0.999209 0.218475 16.0991
0 0.999209 0.217727 16.0212
VECTORS fa_u float
0.000494098 0.000204805 0
0.000462313 0.00026604 0
0.000506202 0.000135477 0
0.000530706 7.01825e-05 0
5.41631e-09 3.19478e-09 0
0.000389848 0.000299126 0
0.000377404 0.000378113 0
6.16142e-09 7.19823e-10 0
2.61036e-09 -9.22513e-10 0
0.000311767 0.000406406 0
0.000266172 0.000460957 0
0.000478932 -3.87529e-07 0
0.00052123 -6.89163e-05 0
5.56035e-09 3.02427e-10 0
7.32178e-09 1.13156e-10 0
7.27957e-09 2.17346e-09 0
6.56877e-09 2.53609e-09 0
-1.51258e-10 1.09715e-09 0
8.34621e-10 4.84573e-09 0
5.48592e-09 2.34907e-09 0
3.86006e-09 2.67809e-09 0
0.000205091 0.000494822 0
0.00013811 0.000514786 0
4.44783e-09 3.73262e-09 0
2.158e-09 4.41593e-09 0
7.62228e-09 2.98134e-09 0
0.000499522 -0.000133825 0
6.98052e-09 3.51591e-09 0
0.000472819 -0.000196296 0
8.28879e-09 1.18787e-09 0
8.44984e-09 1.96905e-09 0
7.26668e-09 1.84959e-09 0
6.82767e-05 0.000519696 0
6.14171e-09 2.48936e-09 0
5.93163e-09 2.93734e-09 0
3.29342e-09 3.94234e-09 0
3.71131e-09 4.61976e-09 0
4.84599e-09 3.36127e-09 0
4.47173e-09 3.9798e-09 0
2.09796e-09 4.69769e-09 0
2.56916e-11 4.71852e-09 0
3.49573e-09 4.90345e-09 0
2.43916e-09 5.07176e-09 0
9.1018e-08 0.000523584 0
7.88179e-09 3.02023e-09 0
5.04578e-09 2.99469e-09 0
6.07713e-09 2.96252e-09 0
0.000479525 -0.000277363 0
2.39351e-09 -2.05076e-09 0
0.000436986 -0.000335263 0
7.26123e-09 1.63151e-09 0
7.5286e-09 2.13926e-09 0
4.29091e-09 1.70521e-09 0
-1.0489e-09 5.32703e-09 0
-1.36387e-09 5.17294e-09 0
3.91507e-09 2.32658e-09 0
3.91542e-09 4.2929e-09 0
3.6029e-09 4.68461e-09 0
3.34635e-09 3.07251e-09 0
1.1208e-09 5.55214e-09 0
-2.07016e-10 6.03635e-09 0
2.69975e-09 4.71035e-09 0
1.74208e-09 5.16234e-09 0
-6.75814e-05 0.000509416 0
5.3219e-09 2.10184e-09 0
3.56851e-09 5.62619e-10 0
3.57073e-09 1.52358e-09 0
4.32525e-09 -1.5955e-08 0
2.71743e-09 -4.58822e-09 0
0.000364775 -0.000364947 0
9.92992e-09 -8.34689e-09 0
0.000319248 -0.000416733 0
3.16209e-09 1.78241e-09 0
3.88032e-09 1.27042e-09 0
2.90749e-09 1.2735e-09 0
-1.36589e-09 6.72326e-09 0
-4.07612e-09 7.17981e-09 0
-1.85377e-09 7.77383e-09 0
2.92872e-09 2.35673e-09 0
2.76511e-09 1.9028e-09 0
2.61069e-09 3.47746e-09 0
2.52578e-09 2.89234e-09 0
5.3955e-10 5.23087e-09 0
-5.19885e-10 6.04213e-09 0
1.42261e-09 3.82962e-09 0
-0.000131705 0.000491406 0
1.96363e-09 1.77448e-10 0
1.39626e-09 -5.54751e-10 0
2.83564e-09 -8.42124e-09 0
6.50157e-10 -3.58289e-09 0
5.66924e-11 -1.59806e-08 0
2.61281e-09 -1.13803e-08 0
0.000258046 -0.000445896 0
4.89451e-09 -1.37112e-08 0
2.48076e-09 1.23953e-09 0
2.23398e-09 2.42729e-10 0
2.26822e-09 5.24046e-10 0
1.39283e-09 -1.50842e-09 0
0.000198614 -0.000478583 0
3.08201e-09 9.6434e-09 0
-9.36003e-10 6.69852e-09 0
-5.65363e-10 8.06415e-09 0
-1.08212e-09 7.57678e-09 0
1.7827e-09 1.32471e-09 0
2.30063e-09 2.34626e-09 0
1.84997e-09 3.33214e-09 0
2.02484e-09 2.93917e-09 0
2.95184e-10 4.48415e-09 0
1.05045e-09 3.5511e-09 0
-0.000194619 0.000471311 0
4.06651e-10 -2.55919e-09 0
3.28893e-10 -6.2464e-09 0
1.59578e-09 -1.38344e-08 0
7.2811e-10 -1.00414e-08 0
1.48325e-09 -1.20599e-08 0
2.38205e-09 -1.45297e-08 0
2.84527e-09 -1.32855e-08 0
1.40241e-09 5.26835e-10 0
1.30035e-09 1.34336e-09 0
1.48029e-09 8.92427e-11 0
1.49439e-09 -6.38226e-10 0
5.74534e-10 -3.7037e-09 0
8.68152e-10 -2.17357e-09 0
9.60866e-10 -6.40275e-10 0
0.000127576 -0.000475525 0
5.23439e-09 3.84046e-09 0
1.4558e-09 6.93601e-09 0
-1.7218e-10 5.40605e-09 0
-2.75232e-10 7.14624e-09 0
1.39336e-09 2.13121e-09 0
1.23856e-09 3.11433e-09 0
4.55925e-10 3.79916e-09 0
7.04474e-10 3.21275e-09 0
-7.43081e-09 1.9237e-09 0
-0.000271012 0.000467187 0
2.47966e-10 -6.04119e-09 0
1.14137e-09 -1.15673e-08 0
3.21677e-09 -1.46706e-08 0
2.32188e-09 -1.36254e-08 0
1.32954e-08 -4.79663e-09 0
6.16043e-09 -1.16547e-08 0
2.58639e-10 -5.28535e-09 0
8.14692e-10 1.53889e-09 0
7.48614e-10 3.87625e-10 0
7.17626e-10 -1.5668e-09 0
3.91756e-10 -3.46404e-09 0
2.13104e-10 -4.82637e-09 0
2.98863e-10 -1.67339e-09 0
1.35935e-10 -8.72399e-10 0
6.35982e-09 2.56885e-09 0
7.03316e-05 -0.000535592 0
2.89495e-10 3.91692e-09 0
1.23516e-10 5.5576e-09 0
3.9597e-10 6.59681e-09 0
2.19761e-10 5.26193e-09 0
-1.70417e-10 5.95477e-09 0
7.13643e-10 2.44673e-09 0
4.32302e-10 3.13879e-09 0
4.95057e-10 1.60489e-09 0
2.56969e-10 3.57092e-09 0
2.25537e-09 1.28605e-08 0
-0.000329536 0.000429061 0
9.02165e-10 -7.95121e-09 0
3.28936e-09 -1.23324e-08 0
6.97446e-09 -6.59845e-09 0
4.72954e-09 -1.06531e-08 0
3.48187e-09 -4.02779e-09 0
3.28515e-10 -5.5448e-09 0
1.4241e-10 2.2922e-10 0
5.20461e-11 -2.96233e-09 0
5.39232e-11 -4.75048e-09 0
-2.44719e-10 -2.0804e-09 0
-3.53095e-10 -1.15246e-09 0
-2.32301e-09 -8.10147e-10 0
-6.00497e-08 -0.000526668 0
3.72278e-10 3.42674e-09 0
3.52117e-10 5.27711e-09 0
3.27278e-10 4.67603e-09 0
1.7213e-09 5.61766e-09 0
7.41794e-10 4.38857e-09 0
3.99761e-10 2.06317e-09 0
2.20192e-10 2.43392e-09 0
6.98876e-13 9.92374e-10 0
-5.50155e-11 2.53094e-09 0
1.12686e-10 2.67333e-09 0
2.00925e-09 2.44956e-09 0
4.16635e-09 3.68582e-09 0
-0.00035844 0.000359744 0
1.55104e-09 -6.80734e-09 0
3.52951e-09 -7.27756e-09 0
7.79862e-10 -4.11181e-09 0
2.07492e-09 -5.3044e-09 0
2.70503e-10 -4.88239e-09 0
-3.32441e-10 -4.73373e-09 0
-3.78226e-10 -8.07688e-11 0
-4.69642e-10 -3.28542e-09 0
-6.54744e-10 -2.42373e-09 0
-8.25711e-10 -1.24887e-09 0
-8.86085e-10 -2.14164e-09 0
-5.62224e-10 -4.67066e-09 0
4.34197e-11 -5.03802e-09 0
-6.71613e-05 -0.00050969 0
4.54134e-10 2.98567e-09 0
1.23194e-09 2.78803e-09 0
1.45882e-09 1.16148e-09 0
3.40319e-11 1.90211e-09 0
-2.06143e-10 9.76898e-10 0
-2.54335e-10 1.39083e-09 0
1.48081e-09 3.79753e-10 0
4.14681e-10 1.11137e-11 0
-0.0004197 0.000321245 0
7.99074e-10 -4.46656e-09 0
5.18253e-10 -4.35509e-09 0
-1.20947e-09 -4.39269e-09 0
-4.37274e-10 -4.22428e-09 0
-9.6033e-10 -4.07185e-09 0
-7.05632e-10 -2.62279e-10 0
-1.21573e-09 -1.50404e-09 0
-1.09507e-09 -3.00109e-09 0
-1.33781e-09 -2.41946e-09 0
-2.71796e-09 -4.48534e-09 0
-1.56644e-09 -4.56791e-09 0
-0.000132097 -0.000492726 0
4.1879e-10 1.1121e-09 0
6.83575e-10 -3.10377e-10 0
-4.62805e-10 4.65275e-10 0
-6.32285e-10 9.26962e-11 0
-8.43071e-10 -1.632e-09 0
-3.85308e-11 -1.60408e-09 0
2.08855e-09 1.81744e-09 0
-0.000443405 0.000256726 0
-7.05367e-10 -3.60287e-09 0
-2.73106e-09 -4.42481e-09 0
-1.23857e-09 -3.86256e-09 0
-1.55706e-09 -3.86271e-09 0
-1.24699e-09 -1.01255e-09 0
-1.69816e-09 -2.12118e-09 0
-1.78553e-09 -3.32356e-09 0
-1.95504e-09 -2.90534e-09 0
-4.31638e-09 -5.28093e-09 0
-5.16732e-09 -5.24755e-09 0
-3.46772e-09 -3.43381e-09 0
-0.000208382 -0.000503559 0
-6.06768e-10 -5.93673e-10 0
-1.07782e-09 -7.37146e-10 0
-3.18447e-09 -2.31867e-09 0
-3.5362e-09 -4.02476e-09 0
-1.30514e-09 -6.40602e-09 0
-0.000493891 0.000204657 0
-2.21112e-09 -3.82764e-09 0
-1.75651e-09 -3.62422e-09 0