# vtk DataFile Version 2.0
CellBP Time: 1.08
ASCII
DATASET UNSTRUCTURED_GRID
POINTS 296 double
-9.18691 -3.77605 0
-8.6085 -4.94898 0
-9.6073 -2.53767 0
-9.86246 -1.255 0
-8.35806 -2.81887 0
-7.88193 -6.03638 0
-7.01964 -7.01963 0
-7.9177 -3.87494 0
-7.34311 -4.86814 0
-6.03639 -7.88194 0
-4.94899 -8.6085 0
-9.94799 0.0500001 0
-9.86246 1.355 0
-8.65817 -1.68403 0
-8.78681 -0.529655 0
-7.59019 -2.00427 0
-7.22622 -2.90667 0
-6.63807 -5.77925 0
-5.82279 -6.59733 0
-6.79073 -3.88917 0
-6.22101 -4.67624 0
-3.77606 -9.1869 0
-2.53767 -9.60728 0
-4.9068 -7.30929 0
-3.91327 -7.88676 0
-8.79327 0.643435 0
-9.60733 2.63768 0
-8.62379 1.77418 0
-9.18694 3.87607 0
-7.74481 -0.929039 0
-7.79503 0.0802594 0
-6.95302 -1.31596 0
-1.255 -9.86245 0
-6.44191 -2.15326 0
-6.31981 -3.05633 0
-5.53693 -5.47496 0
-4.79625 -6.11591 0
-5.65942 -3.75726 0
-5.26977 -4.56191 0
-2.86636 -8.3645 0
-1.77868 -8.64083 0
-3.92842 -6.72404 0
-3.05684 -7.15313 0
0.0500002 -9.94799 0
-7.70604 1.14359 0
-8.33912 2.91561 0
-7.55244 2.11211 0
-8.60851 5.049 0
-7.8806 3.9785 0
-7.88195 6.1364 0
-6.77917 -0.396882 0
-6.95704 0.552581 0
-5.77177 -1.00347 0
-0.590878 -8.81033 0
0.565721 -8.77152 0
-5.30346 -2.48043 0
-4.49229 -5.0961 0
-3.90279 -5.77575 0
-4.4392 -3.805 0
-2.06257 -7.56253 0
-1.13557 -7.78645 0
-2.99477 -6.10252 0
-2.3092 -6.6203 0
1.355 -9.86248 0
-6.68995 1.42215 0
-7.17274 3.11836 0
-6.65977 2.37319 0
-7.29528 4.98903 0
-6.71863 4.00338 0
-7.01966 7.11966 0
-6.57301 5.89461 0
-6.03638 7.98193 0
-4.45338 -1.18114 0
-5.81499 0.513792 0
-4.65644 -0.0103823 0
0.00852172 -7.84875 0
1.7387 -8.6445 0
0.949042 -7.7641 0
-4.03876 -2.40653 0
-3.48576 -1.39128 0
-3.29473 -4.80567 0
-3.26607 -3.26799 0
-1.37869 -6.676 0
-0.508782 -7.02553 0
-1.97569 -5.53743 0
2.63767 -9.6073 0
-5.50773 2.03707 0
-6.09523 3.07247 0
-6.10565 4.87008 0
-5.76225 3.99184 0
-5.76182 6.71776 0
-5.45266 5.61992 0
-4.949 8.70853 0
-4.83893 7.40528 0
-3.50171 -0.42433 0
-4.4496 1.24912 0
-3.7117 0.59211 0
-4.06245 2.31997 0
-3.77607 9.28695 0
2.86287 -8.33364 0
0.419726 -6.79606 0
2.02222 -7.52659 0
1.30621 -6.90625 0
-2.44481 -0.873866 0
-2.83856 -2.13127 0
-2.29456 -4.09766 0
-2.3258 -2.97379 0
-0.442421 -5.86165 0
-1.22281 -4.49946 0
3.87607 -9.18696 0
-4.7902 3.39208 0
-5.08845 4.59461 0
-4.64768 6.28212 0
-4.53935 5.3603 0
-3.84415 7.99422 0
-3.82718 6.84649 0
-2.78361 8.42377 0
-1.64915 -0.137908 0
-1.45035 -0.890641 0
-2.48927 0.507287 0
-3.25384 1.44425 0
-3.23927 3.31681 0
-2.91118 2.37193 0
-1.35519 0.627143 0
-2.53767 9.70733 0
3.93313 -7.88785 0
2.96488 -7.15856 0
0.954178 -5.82257 0
2.07457 -6.41623 0
-1.68307 -1.99218 0
-1.43453 -3.278 0
0.0902259 -4.74737 0
-0.566214 -3.69469 0
4.93271 -7.31965 0
5.04899 -8.60851 0
-3.7773 4.55205 0
-3.73518 5.7528 0
-2.88832 7.29075 0
-3.01005 6.35448 0
-1.66275 8.7347 0
-1.94035 7.6203 0
-2.33857 4.05201 0
-0.730774 -1.32733 0
-0.836947 -0.257641 0
-1.93633 1.68088 0
-2.12592 2.87605 0
-1.30667 3.54496 0
-0.869512 1.35091 0
-0.282383 0.456074 0
-0.533584 8.87278 0
-1.255 9.96246 0
1.11288 -4.575 0
3.91063 -6.71816 0
2.98828 -6.09552 0
2.11808 -5.42554 0
4.78507 -6.20619 0
-0.558888 -2.47698 0
0.495147 -3.4641 0
0.0535557 -1.61058 0
1.48202 -3.68247 0
5.86795 -6.61555 0
6.1364 -7.88196 0
-2.47594 5.34905 0
-2.13072 6.53528 0
-0.904193 7.80436 0
-1.27251 6.93297 0
0.0862155 7.88148 0
-1.14456 4.49512 0
0.150329 -0.617681 0
-0.797481 2.48867 0
-0.331675 3.60102 0
0.0631095 1.51282 0
0.741481 0.473449 0
0.646873 8.87547 0
0.0499998 10.048 0
2.38125 -4.28568 0
3.8597 -5.64122 0
3.00183 -5.21341 0
5.57461 -5.49266 0
4.69171 -5.28383 0
0.629717 -2.29352 0
1.25628 -2.95146 0
0.757547 -1.39154 0
2.16454 -3.13611 0
2.9941 -3.47696 0
6.15617 -4.79257 0
6.65662 -5.77021 0
7.11965 -7.01965 0
-1.01975 5.82105 0
-0.372671 6.88459 0
1.12281 7.77081 0
0.558059 7.08089 0
-0.000765348 4.72568 0
0.607058 3.82819 0
1.33901 -0.641938 0
0.53914 2.65126 0
0.966151 1.57505 0
1.91034 0.213883 0
1.61489 1.06511 0
2.12977 7.5849 0
1.79951 8.71385 0
1.355 9.96247 0
3.82334 -4.35219 0
5.11741 -4.44975 0
5.84675 -3.93582 0
3.78447 -3.20146 0
1.81244 -1.88278 0
3.01949 -2.57417 0
6.78463 -3.9486 0
7.38278 -4.89768 0
7.98193 -6.03639 0
0.483426 5.88239 0
1.42842 6.74309 0
2.37478 6.67033 0
1.21013 4.55675 0
1.48834 3.39801 0
2.43604 -0.692088 0
2.82836 0.14262 0
1.78907 2.16306 0
2.61217 1.15027 0
3.07264 7.17156 0
2.90479 8.37846 0
2.63769 9.70734 0
4.91207 -3.32842 0
6.12187 -3.10927 0
4.17346 -2.27557 0
3.24484 -1.50308 0
6.73275 -2.31351 0
7.23362 -3.04319 0
7.96658 -3.91307 0
8.70852 -4.949 0
2.02396 5.60078 0
3.08717 6.15493 0
2.36426 4.12752 0
2.4204 3.06129 0
3.52616 -0.460918 0
3.61621 0.613373 0
2.96224 2.28839 0
3.54611 1.52549 0
4.01318 5.8996 0
3.98553 6.79499 0
3.97434 7.94077 0
3.87609 9.28698 0
5.56994 -1.91653 0
4.50997 -1.12978 0
6.71566 -1.33644 0
7.59461 -2.03696 0
8.39943 -2.86212 0
9.28694 -3.77607 0
3.41987 4.87808 0
3.3396 3.38598 0
4.69211 0.130099 0
4.52001 1.31021 0
4.06608 2.44426 0
4.57198 5.15405 0
4.84528 6.19282 0
4.98202 7.38279 0
5.04901 8.70854 0
5.88495 -0.435004 0
7.01312 -0.488391 0
7.76211 -1.08563 0
8.68761 -1.74648 0
9.70734 -2.53769 0
4.55368 3.82861 0
5.81939 1.09889 0
5.37279 2.53565 0
5.3821 4.62232 0
5.61431 5.52565 0
5.89935 6.67434 0
6.13641 7.98195 0
6.84862 0.463702 0
7.85636 -0.0256463 0
8.86366 -0.584548 0
9.96249 -1.255 0
6.96328 1.34998 0
5.72336 3.77995 0
6.54409 2.19837 0
6.38288 3.08927 0
6.29515 4.68899 0
6.69581 5.8402 0
7.11968 7.11968 0
7.78765 0.968013 0
8.86301 0.572976 0
10.048 0.0500001 0
7.61956 2.00517 0
6.83226 3.90602 0
7.27283 2.94811 0
7.38147 4.88785 0
7.98197 6.13641 0
8.72661 1.72762 0
9.96248 1.355 0
8.42453 2.83896 0
7.98502 3.91796 0
8.70855 5.04901 0
9.70734 2.63768 0
9.28697 3.87608 0
CELLS 542 2168
3 2 0 4
3 0 1 7
3 4 0 7
3 1 5 8
3 7 1 8
3 3 2 13
3 13 2 4
3 11 3 14
3 14 3 13
3 13 4 15
3 4 7 16
3 15 4 16
3 5 6 17
3 8 5 17
3 6 9 18
3 17 6 18
3 7 8 19
3 16 7 19
3 8 17 20
3 19 8 20
3 9 10 23
3 18 9 23
3 10 21 24
3 23 10 24
3 12 11 25
3 25 11 14
3 26 12 27
3 27 12 25
3 14 13 29
3 29 13 15
3 25 14 30
3 30 14 29
3 29 15 31
3 15 16 33
3 31 15 33
3 16 19 34
3 33 16 34
3 17 18 35
3 20 17 35
3 18 23 36
3 35 18 36
3 19 20 37
3 34 19 37
3 20 35 38
3 37 20 38
3 21 22 39
3 24 21 39
3 22 32 40
3 39 22 40
3 23 24 41
3 36 23 41
3 24 39 42
3 41 24 42
3 27 25 44
3 44 25 30
3 28 26 45
3 45 26 27
3 45 27 46
3 46 27 44
3 47 28 48
3 48 28 45
3 30 29 50
3 50 29 31
3 44 30 51
3 51 30 50
3 50 31 52
3 31 33 52
3 32 43 53
3 40 32 53
3 53 43 54
3 33 34 55
3 34 37 55
3 33 55 52
3 35 36 56
3 38 35 56
3 36 41 57
3 56 36 57
3 37 38 58
3 38 56 58
3 37 58 55
3 39 40 59
3 42 39 59
3 40 53 60
3 59 40 60
3 41 42 61
3 57 41 61
3 42 59 62
3 61 42 62
3 43 63 54
3 46 44 64
3 64 44 51
3 48 45 65
3 65 45 46
3 65 46 66
3 66 46 64
3 49 47 67
3 67 47 48
3 67 48 68
3 68 48 65
3 69 49 70
3 70 49 67
3 52 55 72
3 64 51 73
3 51 50 73
3 50 52 73
3 73 52 74
3 74 52 72
3 53 54 75
3 60 53 75
3 54 63 76
3 54 76 77
3 75 54 77
3 55 58 78
3 72 55 78
3 72 78 79
3 56 57 80
3 57 61 80
3 56 80 58
3 58 80 81
3 78 58 81
3 59 60 82
3 62 59 82
3 60 75 83
3 82 60 83
3 61 62 84
3 62 82 84
3 61 84 80
3 63 85 76
3 66 64 86
3 64 73 86
3 68 65 87
3 87 65 66
3 87 66 86
3 70 67 88
3 88 67 68
3 88 68 89
3 89 68 87
3 71 69 90
3 90 69 70
3 90 70 91
3 91 70 88
3 92 71 93
3 93 71 90
3 74 72 94
3 94 72 79
3 86 73 95
3 95 73 74
3 95 74 96
3 96 74 94
3 97 86 95
3 76 85 99
3 75 77 100
3 83 75 100
3 76 99 101
3 77 76 101
3 77 101 102
3 100 77 102
3 94 79 103
3 78 81 104
3 79 78 104
3 79 104 103
3 80 84 105
3 81 80 105
3 81 105 106
3 104 81 106
3 82 83 107
3 83 100 107
3 82 107 84
3 84 107 108
3 105 84 108
3 85 109 99
3 89 87 110
3 87 86 110
3 110 86 97
3 91 88 111
3 111 88 89
3 111 89 110
3 93 90 112
3 112 90 91
3 112 91 113
3 113 91 111
3 98 92 114
3 114 92 93
3 114 93 115
3 115 93 112
3 116 98 114
3 117 103 118
3 96 94 119
3 94 103 119
3 119 103 117
3 97 95 120
3 120 95 96
3 120 96 119
3 121 110 97
3 121 97 122
3 122 97 120
3 123 119 117
3 124 98 116
3 99 109 125
3 99 125 126
3 101 99 126
3 100 102 127
3 100 127 107
3 101 126 128
3 102 101 128
3 102 128 127
3 104 106 129
3 104 129 103
3 103 129 118
3 105 108 130
3 106 105 130
3 106 130 129
3 107 127 131
3 108 107 131
3 108 131 132
3 108 132 130
3 109 134 125
3 125 134 133
3 113 111 135
3 111 110 135
3 135 110 121
3 115 112 136
3 136 112 113
3 136 113 135
3 116 114 137
3 137 114 115
3 137 115 138
3 138 115 136
3 139 124 116
3 139 116 140
3 140 116 137
3 141 135 121
3 118 129 142
3 118 142 143
3 117 118 143
3 123 117 143
3 122 120 144
3 120 119 144
3 144 119 123
3 141 121 145
3 145 121 122
3 145 122 144
3 146 141 145
3 147 144 123
3 147 123 148
3 143 148 123
3 150 124 139
3 149 150 139
3 131 127 151
3 125 133 152
3 126 125 152
3 126 152 153
3 128 126 153
3 128 153 154
3 128 154 127
3 127 154 151
3 152 133 155
3 130 132 156
3 130 156 129
3 129 156 142
3 131 151 157
3 132 131 157
3 132 157 156
3 156 158 142
3 157 151 159
3 133 160 155
3 134 161 133
3 133 161 160
3 138 136 162
3 136 135 162
3 162 135 141
3 140 137 163
3 163 137 138
3 163 138 162
3 149 139 164
3 164 139 140
3 164 140 165
3 165 140 163
3 166 149 164
3 167 162 141
3 167 141 146
3 142 158 168
3 143 142 168
3 143 168 148
3 146 145 169
3 145 144 169
3 169 144 147
3 170 167 146
3 170 146 169
3 171 169 147
3 171 147 148
3 171 148 172
3 168 172 148
3 173 149 166
3 174 150 149
3 173 174 149
3 154 175 151
3 151 175 159
3 152 155 176
3 153 152 176
3 153 176 177
3 153 177 154
3 154 177 175
3 155 160 178
3 155 178 179
3 176 155 179
3 156 157 180
3 156 180 158
3 157 159 181
3 157 181 180
3 158 180 182
3 158 182 168
3 159 175 183
3 159 183 181
3 175 184 183
3 160 186 178
3 178 186 185
3 161 187 160
3 160 187 186
3 165 163 188
3 163 162 188
3 188 162 167
3 166 164 189
3 189 164 165
3 189 165 188
3 190 173 166
3 190 166 191
3 191 166 189
3 192 188 167
3 192 167 170
3 193 192 170
3 182 194 168
3 194 172 168
3 193 170 195
3 170 169 195
3 195 169 171
3 196 195 171
3 196 171 172
3 194 197 172
3 197 198 172
3 198 196 172
3 200 173 190
3 199 200 190
3 201 174 173
3 200 201 173
3 176 179 202
3 177 176 202
3 177 202 175
3 175 202 184
3 178 185 203
3 178 203 179
3 179 203 202
3 203 185 204
3 202 205 184
3 183 206 181
3 180 181 206
3 180 206 182
3 182 206 194
3 183 184 207
3 205 207 184
3 183 207 206
3 185 208 204
3 186 209 185
3 185 209 208
3 187 210 186
3 186 210 209
3 191 189 211
3 189 188 211
3 211 188 192
3 199 190 212
3 212 190 191
3 212 191 211
3 213 199 212
3 214 211 192
3 214 192 193
3 215 214 193
3 215 193 195
3 206 216 194
3 216 197 194
3 216 217 197
3 215 195 218
3 218 195 196
3 198 218 196
3 217 219 197
3 219 218 198
3 197 219 198
3 220 199 213
3 221 200 199
3 220 221 199
3 222 201 200
3 221 222 200
3 203 204 223
3 203 223 202
3 202 223 205
3 204 208 224
3 204 224 223
3 205 223 225
3 205 225 207
3 207 225 226
3 207 226 206
3 226 216 206
3 208 228 224
3 224 228 227
3 209 229 208
3 229 228 208
3 210 230 209
3 209 230 229
3 213 212 231
3 212 211 231
3 231 211 214
3 232 220 213
3 232 213 231
3 233 231 214
3 233 214 215
3 234 233 215
3 234 215 218
3 226 235 216
3 235 217 216
3 235 236 217
3 217 236 219
3 237 234 218
3 237 218 219
3 236 238 219
3 238 237 219
3 240 220 232
3 239 240 232
3 241 221 220
3 240 241 220
3 242 222 221
3 241 242 221
3 224 227 243
3 224 243 223
3 223 243 225
3 225 243 244
3 225 244 226
3 226 244 235
3 227 245 243
3 228 246 227
3 227 246 245
3 229 247 228
3 228 247 246
3 230 248 229
3 229 248 247
3 239 232 249
3 232 231 249
3 249 231 233
3 250 249 233
3 250 233 234
3 237 250 234
3 244 251 235
3 235 251 236
3 251 252 236
3 236 252 238
3 252 253 238
3 253 250 237
3 253 237 238
3 254 239 249
3 255 240 239
3 254 255 239
3 256 241 240
3 255 256 240
3 257 242 241
3 256 257 241
3 245 258 243
3 243 258 244
3 244 258 251
3 245 259 258
3 246 260 245
3 245 260 259
3 247 261 246
3 246 261 260
3 248 262 247
3 247 262 261
3 254 249 263
3 263 249 250
3 253 263 250
3 258 264 251
3 251 264 252
3 264 265 252
3 265 263 253
3 252 265 253
3 266 254 263
3 267 255 254
3 266 267 254
3 268 256 255
3 267 268 255
3 269 257 256
3 268 269 256
3 259 270 258
3 270 264 258
3 260 271 259
3 259 271 270
3 261 272 260
3 260 272 271
3 262 273 261
3 273 272 261
3 270 274 264
3 275 266 263
3 275 263 265
3 274 276 264
3 276 265 264
3 276 277 265
3 277 275 265
3 278 267 266
3 275 278 266
3 279 268 267
3 278 279 267
3 280 269 268
3 279 280 268
3 271 281 270
3 270 281 274
3 272 282 271
3 271 282 281
3 273 283 272
3 272 283 282
3 281 284 274
3 274 284 276
3 285 278 275
3 277 285 275
3 284 286 276
3 286 285 277
3 276 286 277
3 287 279 278
3 285 287 278
3 288 280 279
3 287 288 279
3 282 289 281
3 281 289 284
3 283 290 282
3 282 290 289
3 289 291 284
3 284 291 286
3 291 292 286
3 292 287 285
3 286 292 285
3 293 288 287
3 292 293 287
3 290 294 289
3 289 294 291
3 294 295 291
3 295 293 292
3 291 295 292
CELL_TYPES 542
5
5
5
5
5
5
5
5
5
5
5
5
5
5
5
5
5
5
5
5
5
5
5
5
5
5
5
5
5
5
5
5
5
5
5
5
5
5
5
5
5
5
5
5
5
5
5
5
5
5
5
5
5
5
5
5
5
5
5
5
5
5
5
5
5
5
5
5
5
5
5
5
5
5
5
5
5
5
5
5
5
5
5
5
5
5
5
5
5
5
5
5
5
5
5
5
5
5
5
5
5
5
5
5
5
5
5
5
5
5
5
5
5
5
5
5
5
5
5
5
5
5
5
5
5
5
5
5
5
5
5
5
5
5
5
5
5
5
5
5
5
5
5
5
5
5
5
5
5
5
5
5
5
5
5
5
5
5
5
5
5
5
5
5
5
5
5
5
5
5
5
5
5
5
5
5
5
5
5
5
5
5
5
5
5
5
5
5
5
5
5
5
5
5
5
5
5
5
5
5
5
5
5
5
5
5
5
5
5
5
5
5
5
5
5
5
5
5
5
5
5
5
5
5
5
5
5
5
5
5
5
5
5
5
5
5
5
5
5
5
5
5
5
5
5
5
5
5
5
5
5
5
5
5
5
5
5
5
5
5
5
5
5
5
5
5
5
5
5
5
5
5
5
5
5
5
5
5
5
5
5
5
5
5
5
5
5
5
5
5
5
5
5
5
5
5
5
5
5
5
5
5
5
5
5
5
5
5
5
5
5
5
5
5
5
5
5
5
5
5
5
5
5
5
5
5
5
5
5
5
5
5
5
5
5
5
5
5
5
5
5
5
5
5
5
5
5
5
5
5
5
5
5
5
5
5
5
5
5
5
5
5
5
5
5
5
5
5
5
5
5
5
5
5
5
5
5
5
5
5
5
5
5
5
5
5
5
5
5
5
5
5
5
5
5
5
5
5
5
5
5
5
5
5
5
5
5
5
5
5
5
5
5
5
5
5
5
5
5
5
5
5
5
5
5
5
5
5
5
5
5
5
5
5
5
5
5
5
5
5
5
5
5
5
5
5
5
5
5
5
5
5
5
5
5
5
5
5
5
5
5
5
5
5
5
5
5
5
5
5
5
5
5
5
5
5
5
5
5
5
5
5
5
5
5
5
5
5
5
5
5
5
5
5
5
5
5
5
5
5
5
5
5
5
5
5
5
5
5
5
5
5
5
5
5
5
5
5
5
5
5
5
5
5
5
5
5
5
5
5
5
5
5
5
5
5
5
5
5
5
5
5
POINT_DATA 296
SCALARS concentrations float 4
LOOKUP_TABLE default
0 0.9996 0.168603 12.1241
0 0.9996 0.16842 11.7544
0 0.999601 0.168005 11.7166
0 0.999601 0.167457 11.3576
0 0.999601 0.090877 0.000318517
0 0.999599 0.168069 11.7681
0 0.999598 0.167764 11.7898
0 0.9996 0.0908773 0.000383648
0 0.999599 0.0908771 0.000272962
0 0.999597 0.16749 11.4094
0 0.999597 0.167928 11.8528
0 0.999601 0.166846 11.6638
0 0.9996 0.167009 11.5643
0 0.999601 0.0908775 0.000448846
0 0.999601 0.0908776 0.00057574
0 0.999601 0.0908769 0.000396762
0 0.999601 0.0908769 0.000320739
0 0.999599 0.0908774 0.000371714
0 0.999598 0.0908789 0.000855243
0 0.9996 0.0908771 0.000266929
0 0.9996 0.0908773 0.000255236
0 0.999598 0.168804 12.0355
0 0.999599 0.169536 11.9394
0 0.999598 0.0908788 0.000869949
0 0.999598 0.0908775 0.000319021
0 0.999601 0.0908776 0.000531519
0 0.999599 0.166511 11.5239
0 0.999599 0.0908772 0.000312436
0 0.999597 0.167014 11.5938
0 0.999601 0.090877 0.000471371
0 0.999601 0.0908771 0.000458518
0 0.999601 0.0908766 0.000349695
0 0.999599 0.167615 11.7238
0 0.999601 0.0908765 0.000270804
0 0.999601 0.0908767 0.000231472
0 0.999599 0.0908777 0.000383437
0 0.999599 0.0908778 0.000429902
0 0.9996 0.0908768 0.000157611
0 0.9996 0.0908771 0.000187992
0 0.999599 0.0908772 0.000272993
0 0.999599 0.0908768 0.000188857
0 0.999599 0.0908777 0.000385218
0 0.999599 0.0908772 0.00023471
0 0.999599 0.167097 11.5883
0 0.9996 0.0908772 0.000395233
0 0.999598 0.0908774 0.000307336
0 0.9996 0.0908773 0.000315287
0 0.999596 0.166322 12.0378
0 0.999597 0.0908786 0.000365039
0 0.999596 0.166204 11.5149
0 0.999601 0.0908766 0.000343448
0 0.999601 0.0908768 0.000351953
0 0.999601 0.0908762 0.000183462
0 0.999599 0.0908768 0.00019859
0 0.999599 0.0908771 0.000314669
0 0.999601 0.0908762 0.000135085
0 0.9996 0.0908771 0.000201113
0 0.9996 0.0908773 0.000240312
0 0.999601 0.0908764 6.92438e-05
0 0.9996 0.090877 0.00018648
0 0.9996 0.0908769 0.000201574
0 0.9996 0.090877 0.00016162
0 0.9996 0.0908769 0.000138134
0 0.999599 0.166072 11.3431
0 0.9996 0.0908768 0.000265208
0 0.999599 0.0908777 0.000292428
0 0.9996 0.0908771 0.000236538
0 0.999596 0.0908786 0.000241788
0 0.999598 0.0908779 0.000292959
0 0.999596 0.165882 11.4476
0 0.999596 0.0908788 0.000623975
0 0.999598 0.166034 12.3977
0 0.999601 0.090876 0.000108094
0 0.999601 0.0908763 0.000179601
0 0.999601 0.0908761 0.000116977
0 0.9996 0.090877 0.000279696
0 0.9996 0.0908782 0.000672667
0 0.9996 0.0908773 0.000415083
0 0.999601 0.0908761 7.59861e-05
0 0.999601 0.090876 8.17535e-05
0 0.999601 0.0908765 5.87874e-05
0 0.999601 0.0908762 3.18385e-05
0 0.9996 0.0908767 0.000140118
0 0.9996 0.0908767 0.000199875
0 0.999601 0.0908764 6.38985e-05
0 0.9996 0.166362 12.2245
0 0.9996 0.0908764 0.000146327
0 0.999599 0.0908772 0.000215679
0 0.999598 0.0908783 0.000377032
0 0.999599 0.0908775 0.000264981
0 0.999597 0.0908799 0.000612197
0 0.999598 0.0908782 0.000354814
0 0.999599 0.166084 11.4766
0 0.999598 0.0908782 0.000243094
0 0.999601 0.0908759 8.93187e-05
0 0.999601 0.0908762 0.000113596
0 0.999601 0.090876 9.40368e-05
0 0.999601 0.0908762 0.000101608
0 0.999599 0.166505 11.5609
0 0.999599 0.0908793 0.000793232
0 0.9996 0.0908769 0.000253522
0 0.999599 0.0908778 0.000464729
0 0.9996 0.0908772 0.00032429
0 0.999601 0.0908759 6.02631e-05
0 0.999601 0.090876 5.64437e-05
0 0.999601 0.0908762 2.99797e-05
0 0.999601 0.0908761 4.41681e-05
0 0.9996 0.0908764 0.000121302
0 0.999601 0.0908762 6.46139e-05
0 0.999598 0.166037 11.318
0 0.9996 0.0908766 0.000143479
0 0.999599 0.0908774 0.000274922
0 0.999599 0.090878 0.000297493
0 0.999599 0.0908775 0.000280949
0 0.999599 0.090877 0.000191939
0 0.999599 0.0908774 0.000184538
0 0.999599 0.0908768 0.000147279
0 0.999601 0.0908758 5.26375e-05
0 0.999601 0.0908759 4.98242e-05
0 0.999601 0.0908759 6.16156e-05
0 0.999601 0.0908761 7.78623e-05
0 0.999601 0.0908762 7.43495e-05
0 0.999601 0.0908761 6.4136e-05
0 0.999602 0.0908758 3.63397e-05
0 0.999599 0.166308 11.5826
0 0.999597 0.0908794 0.000462252
0 0.999598 0.0908784 0.000417908
0 0.9996 0.0908767 0.0001768
0 0.999599 0.0908775 0.000294523
0 0.999601 0.090876 4.95882e-05
0 0.999601 0.0908761 5.47481e-05
0 0.999601 0.0908763 9.31661e-05
0 0.999601 0.0908761 6.85242e-05
0 0.999595 0.090879 0.00016232
0 0.999595 0.165995 12.0925
0 0.9996 0.0908765 0.000131101
0 0.9996 0.0908771 0.000196027
0 0.999599 0.090877 0.000137883
0 0.9996 0.0908769 0.000144257
0 0.999599 0.0908771 3.18339e-05
0 0.999599 0.0908768 9.14663e-05
0 0.999601 0.0908761 6.04068e-05
0 0.999602 0.0908759 4.42897e-05
0 0.999602 0.0908758 3.60021e-05
0 0.999601 0.0908759 3.6017e-05
0 0.999601 0.090876 4.63622e-05
0 0.999601 0.0908761 5.60608e-05
0 0.999601 0.0908758 1.52695e-05
0 0.999602 0.0908757 1.93866e-05
0 0.999599 0.0908772 0.000249755
0 0.999598 0.166716 11.6991
0 0.9996 0.0908765 0.000105453
0 0.999597 0.0908786 0.000272899
0 0.999599 0.090878 0.000250097
0 0.9996 0.090877 0.000166745
0 0.999596 0.0908791 0.000186058
0 0.999601 0.090876 5.42979e-05
0 0.999601 0.0908762 7.10462e-05
0 0.999601 0.0908759 4.28239e-05
0 0.999601 0.0908765 7.23118e-05
0 0.999594 0.0908795 0.000247664
0 0.999594 0.166079 11.4187
0 0.9996 0.0908763 9.61045e-05
0 0.9996 0.0908767 0.000111434
0 0.999599 0.0908768 0.00012735
0 0.9996 0.0908767 0.000111594
0 0.9996 0.0908768 0.000184477
0 0.999601 0.0908761 8.28033e-05
0 0.999602 0.0908758 2.4653e-05
0 0.999601 0.0908759 3.66808e-05
0 0.999601 0.090876 7.69962e-05
0 0.999602 0.0908758 4.06617e-05
0 0.999602 0.0908758 4.03745e-05
0 0.999599 0.0908767 0.000218972
0 0.999599 0.165902 11.5666
0 0.9996 0.0908767 7.84532e-05
0 0.999598 0.0908781 0.000153921
0 0.999599 0.0908773 0.000125518
0 0.999596 0.0908794 0.000169224
0 0.999598 0.0908784 0.000129452
0 0.999601 0.090876 4.78269e-05
0 0.999601 0.0908762 4.68719e-05
0 0.999601 0.0908759 3.19835e-05
0 0.999601 0.0908764 3.46151e-05
0 0.9996 0.0908768 2.53908e-05
0 0.999596 0.0908793 0.00017367
0 0.999594 0.0908807 0.000191001
0 0.999593 0.165237 12.1709
0 0.9996 0.0908762 0.000107272
0 0.9996 0.0908766 0.000134137
0 0.9996 0.0908767 0.000207696
0 0.9996 0.0908766 0.000167224
0 0.999601 0.0908761 0.000115874
0 0.999601 0.0908761 0.000110246
0 0.999601 0.0908759 3.45843e-05
0 0.999601 0.0908759 7.6601e-05
0 0.999602 0.0908758 6.95169e-05
0 0.999602 0.0908759 6.68032e-05
0 0.999602 0.0908758 7.78154e-05
0 0.9996 0.0908768 0.000217512
0 0.9996 0.0908766 0.000195662
0 0.999599 0.166091 11.5545
0 0.999599 0.0908772 5.28006e-05
0 0.999598 0.0908782 0.000117347
0 0.999598 0.0908782 0.000145061
0 0.9996 0.0908768 1.57717e-05
0 0.999601 0.090876 2.615e-05
0 0.999601 0.0908764 1.91516e-05
0 0.999597 0.0908785 0.000192175
0 0.999595 0.0908798 0.000297811
0 0.999594 0.165553 12.6093
0 0.999601 0.0908762 0.000133423
0 0.9996 0.0908765 0.000181427
0 0.9996 0.0908767 0.000220697
0 0.999601 0.0908761 0.000134299
0 0.999601 0.0908761 0.000122725
0 0.999601 0.090876 5.66394e-05
0 0.999601 0.090876 9.34411e-05
0 0.999602 0.0908759 0.000104005
0 0.999601 0.090876 0.000106627
0 0.9996 0.0908769 0.000219023
0 0.9996 0.0908767 0.000177898
0 0.999599 0.165194 11.4349
0 0.999599 0.0908771 6.25536e-05
0 0.999599 0.0908774 0.000115988
0 0.9996 0.0908765 5.13817e-05
0 0.999601 0.0908762 5.21779e-05
0 0.999599 0.0908771 0.000133932
0 0.999598 0.0908777 0.000171607
0 0.999597 0.090878 0.000213559
0 0.999596 0.1668 11.5579
0 0.999601 0.0908763 0.000154409
0 0.9996 0.0908768 0.000215839
0 0.999601 0.0908762 0.000140136
0 0.999601 0.0908761 0.000139717
0 0.999601 0.0908761 8.77468e-05
0 0.999601 0.0908761 0.000115614
0 0.999601 0.0908761 0.000136527
0 0.999601 0.0908761 0.000134574
0 0.9996 0.0908771 0.000214669
0 0.9996 0.0908772 0.000199559
0 0.999599 0.0908769 0.000157849
0 0.999599 0.164511 11.3385
0 0.9996 0.0908766 8.44156e-05
0 0.999601 0.0908763 7.90921e-05
0 0.9996 0.0908767 0.000152834
0 0.999599 0.0908771 0.00018708
0 0.999598 0.0908772 0.00019022
0 0.999597 0.166833 11.5919
0 0.999601 0.0908764 0.000161916
0 0.999601 0.0908762 0.000140007
0 0.999601 0.0908761 0.000101706
0 0.999601 0.0908761 0.000118525
0 0.999601 0.0908761 0.00012966
0 0.9996 0.0908772 0.000197278
0 0.999599 0.0908778 0.000154394
0 0.999599 0.0908774 0.000124925
0 0.999599 0.165395 11.4439
0 0.999601 0.0908763 0.000114483
0 0.9996 0.0908767 0.000178541
0 0.9996 0.0908769 0.000190465
0 0.999599 0.0908769 0.00017762
0 0.999598 0.165761 11.4854
0 0.999601 0.0908764 0.00015327
0 0.999601 0.0908762 0.000127089
0 0.999601 0.0908762 0.000137652
0 0.9996 0.0908773 0.000196417
0 0.999599 0.0908779 0.000139214
0 0.999597 0.0908789 0.000111851
0 0.999597 0.165908 11.5017
0 0.9996 0.0908765 0.000175308
0 0.9996 0.0908767 0.000196404
0 0.999599 0.0908766 0.000176211
0 0.999599 0.16526 11.4294
0 0.999601 0.0908766 0.000185421
0 0.9996 0.0908769 0.000190977
0 0.999601 0.0908765 0.000175235
0 0.9996 0.0908768 0.000189463
0 0.999599 0.0908777 0.000171846
0 0.999597 0.090879 0.000181425
0 0.999596 0.165151 10.9588
0 0.9996 0.0908766 0.000199264
0 0.9996 0.0908765 0.000179744
0 0.999599 0.165685 11.4675
0 0.9996 0.0908767 0.000179239
0 0.9996 0.0908772 0.00018714
0 0.9996 0.0908769 0.000168495
0 0.999598 0.0908775 0.000192099
0 0.999597 0.163765 11.7265
0 0.9996 0.0908765 0.000172993
0 0.9996 0.165636 11.4564
0 0.999599 0.0908768 0.000111991
0 0.999599 0.090877 0.000127822
0 0.999599 0.164577 11.302
0 0.999599 0.165759 11.4493
0 0.999599 0.165281 11.446
VECTORS fa_u float
0.000356339 0.000147838 0
0.000323852 0.000187119 0
0.000360079 9.66411e-05 0
0.000358345 4.68795e-05 0
1.00188e-08 1.53147e-09 0
0.000296832 0.000228276 0
0.000265345 0.000265198 0
1.13315e-08 -4.54145e-09 0
6.54255e-09 -5.71271e-09 0
0.000220934 0.000288082 0
0.000188448 0.000326702 0
0.000371141 8.48855e-08 0
0.000364814 -4.81294e-05 0
1.35339e-08 -4.56247e-09 0
1.81822e-08 2.2425e-09 0
1.26248e-08 -6.06386e-11 0
1.01369e-08 -1.18491e-09 0
6.09508e-09 -1.01366e-08 0
2.05233e-10 -2.7213e-08 0
7.71751e-09 -3.54713e-09 0
4.44362e-09 -6.7981e-09 0
0.000146709 0.000353755 0
9.84291e-05 0.000366938 0
-2.59145e-08 -9.73215e-09 0
-1.01508e-08 -9.63527e-11 0
1.29692e-08 1.08557e-08 0
0.000354091 -9.52941e-05 0
6.69282e-09 7.35139e-09 0
0.000340777 -0.000141314 0
1.498e-08 7.54241e-10 0
1.38734e-08 4.51611e-09 0
1.10849e-08 9.69848e-10 0
4.90126e-05 0.000369817 0
8.60681e-09 4.17852e-10 0
7.28872e-09 -1.06011e-09 0
-3.88475e-10 -1.21948e-08 0
-7.57307e-09 -1.13919e-08 0
4.27601e-09 -2.6206e-09 0
1.27235e-09 -5.84501e-09 0
-8.1945e-09 2.88226e-09 0
-3.65114e-09 4.77307e-09 0
-1.0956e-08 -5.49683e-09 0
-7.46744e-09 1.24174e-10 0
1.74606e-07 0.00036874 0
1.06524e-08 6.685e-09 0
6.18294e-09 7.57681e-09 0
7.10041e-09 7.08754e-09 0
0.000331625 -0.000191693 0
3.60965e-09 1.10404e-08 0
0.000290808 -0.000222896 0
1.07143e-08 2.15306e-09 0
1.0426e-08 4.08888e-09 0
5.71087e-09 1.21046e-09 0
-3.90401e-09 4.96889e-09 0
-7.01729e-09 7.14231e-09 0
4.29659e-09 -1.24817e-10 0
-2.13511e-09 -6.03273e-09 0
-5.44094e-09 -5.37291e-09 0
1.49173e-09 -1.62155e-09 0
-4.9674e-09 3.24569e-09 0
-3.4399e-09 5.41364e-09 0
-4.90059e-09 -1.55946e-09 0
-4.12815e-09 1.50934e-09 0
-4.76644e-05 0.000357775 0
6.94894e-09 4.78826e-09 0
3.84059e-09 8.47546e-09 0
4.37896e-09 6.12165e-09 0
2.83697e-10 7.68844e-09 0
4.61917e-10 9.31047e-09 0
0.00025748 -0.000257664 0
-2.82758e-09 1.96525e-08 0
0.000239948 -0.000313128 0
3.34753e-09 7.90277e-10 0
5.01642e-09 2.73778e-09 0
3.27649e-09 1.76617e-09 0
-4.14177e-09 7.87744e-09 0
-1.23712e-08 1.7467e-08 0
-4.87173e-09 1.22766e-08 0
2.41281e-09 1.5633e-10 0
2.42863e-09 9.32186e-10 0
-1.26644e-09 -1.3767e-09 0
9.97065e-10 1.79525e-10 0
-2.51485e-09 3.68158e-09 0
-2.4053e-09 5.88762e-09 0
-1.62713e-09 1.21923e-09 0
-0.000100928 0.000375662 0
2.24793e-09 4.07753e-09 0
1.00772e-09 6.78851e-09 0
-4.03631e-09 1.12978e-08 0
-2.19624e-09 8.14061e-09 0
-1.9263e-08 -2.89974e-09 0
-8.28949e-09 7.66496e-09 0
0.000182905 -0.000316078 0
-3.95995e-09 -6.64474e-09 0
2.50392e-09 1.34461e-09 0
2.34768e-09 2.74844e-09 0
2.37038e-09 1.82616e-09 0
8.57235e-10 3.11744e-09 0
0.000140779 -0.000339863 0
6.80893e-09 2.43048e-08 0
-2.16661e-09 7.77067e-09 0
-1.16566e-09 1.47416e-08 0
-1.56589e-09 1.01994e-08 0
1.50997e-09 1.18197e-09 0
1.53824e-09 9.27118e-10 0
-1.99249e-10 9.32911e-10 0
7.85253e-10 1.16559e-09 0
-9.95413e-10 3.72924e-09 0
-3.30082e-10 2.02934e-09 0
-0.000137494 0.000332858 0
-9.16601e-10 4.47255e-09 0
-4.82824e-09 7.2949e-09 0
-9.36546e-09 1.37732e-09 0
-7.12024e-09 5.4057e-09 0
-2.7601e-09 -5.44824e-09 0
-5.54126e-09 -1.94288e-09 0
-1.10728e-09 -4.55373e-09 0
1.07936e-09 1.28076e-09 0
9.46005e-10 1.27223e-09 0
1.38293e-09 1.38978e-09 0
1.32959e-09 2.09058e-09 0
-7.02484e-10 2.25909e-09 0
1.93384e-10 2.03162e-09 0
5.61137e-10 1.01105e-09 0
9.56861e-05 -0.000355918 0
9.72342e-09 1.10365e-08 0
4.16435e-09 1.26289e-08 0
-2.7218e-10 5.61917e-09 0
7.60605e-10 9.34079e-09 0
8.36946e-10 1.33763e-09 0
2.93504e-10 1.71718e-09 0
-2.10178e-11 2.96446e-09 0
1.43689e-10 2.1757e-09 0
2.98992e-09 4.2116e-09 0
-0.000192661 0.000333075 0
-3.01232e-09 2.88589e-09 0
-5.87387e-09 2.09877e-09 0
-3.48076e-09 -2.67094e-09 0
-4.58234e-09 -2.69212e-10 0
8.92858e-10 4.78408e-10 0
-2.41994e-09 -1.61697e-09 0
-1.76127e-09 7.69767e-10 0
4.19923e-10 1.34528e-09 0
3.67813e-10 1.08493e-09 0
2.28302e-10 1.12309e-09 0
-8.44954e-10 1.20929e-09 0
-1.75634e-09 3.12103e-10 0
-3.31275e-10 3.55429e-10 0
-4.55147e-10 4.16391e-10 0
-7.93072e-09 -5.1129e-10 0
4.86518e-05 -0.000369072 0
5.20741e-10 3.31486e-09 0
5.18662e-09 6.96452e-09 0
3.07418e-09 7.3403e-09 0
1.15106e-09 5.17946e-09 0
5.18031e-09 2.86616e-09 0
2.97824e-10 1.70189e-09 0
2.46804e-10 2.24717e-09 0
2.48668e-11 1.36243e-09 0
5.04907e-10 2.24488e-09 0
5.5979e-09 5.54689e-09 0
-0.000221362 0.000288127 0
-3.05273e-09 1.80085e-10 0
-3.42455e-09 -9.19453e-10 0
-3.79788e-09 -1.41315e-09 0
-3.29191e-09 -1.33131e-09 0
-5.24486e-09 -2.63608e-09 0
-2.55963e-09 -6.24852e-10 0
-3.97562e-10 6.76252e-10 0
-1.16246e-09 1.0484e-10 0
-2.34326e-09 -7.15332e-10 0
-1.2589e-09 -2.98685e-10 0
-1.26687e-09 -2.13355e-10 0
-5.44942e-09 -4.34192e-09 0
-1.90009e-07 -0.000368049 0
1.03636e-09 2.27109e-09 0
3.70896e-09 3.1987e-09 0
2.04425e-09 3.43116e-09 0
5.33963e-09 -6.95215e-10 0
4.11402e-09 2.05951e-10 0
-7.7063e-11 1.51989e-09 0
3.27948e-11 1.4911e-09 0
-5.14468e-10 8.78102e-10 0
1.00962e-10 1.09681e-09 0
5.77944e-10 5.64568e-10 0
2.55448e-09 -4.90031e-09 0
5.83546e-09 -1.69852e-09 0
-0.000273753 0.00027394 0
-3.14932e-09 -1.31645e-09 0
-3.8287e-09 -1.88649e-09 0
-5.07182e-09 -4.2372e-09 0
-4.37476e-09 -3.02904e-09 0
-3.28611e-09 -1.67221e-09 0
-3.04656e-09 -1.73915e-09 0
-1.09857e-09 6.45617e-11 0
-2.19592e-09 -1.05784e-09 0
-2.01877e-09 -9.04224e-10 0
-1.94919e-09 -8.48031e-10 0
-2.21378e-09 -1.10912e-09 0
-5.02775e-09 -4.75658e-09 0
-4.44881e-09 -4.35552e-09 0
-4.78627e-05 -0.000364535 0
1.64655e-09 3.34149e-10 0
2.85351e-09 -2.40833e-09 0
9.91129e-10 -4.50817e-09 0
-1.56963e-10 -4.76676e-10 0
-7.25812e-10 4.06905e-10 0
-5.91838e-10 -1.45255e-10 0
-8.51682e-10 -6.0554e-09 0
-1.21164e-09 -9.39854e-09 0
-0.000318303 0.000244265 0
-3.61879e-09 -2.22007e-09 0
-4.34081e-09 -3.80589e-09 0
-5.07855e-09 -4.85021e-09 0
-3.59236e-09 -2.31448e-09 0
-3.2307e-09 -2.1937e-09 0
-1.73827e-09 -4.75998e-10 0
-2.67436e-09 -1.29933e-09 0
-2.81965e-09 -1.73258e-09 0
-2.92754e-09 -1.71496e-09 0
-4.93254e-09 -4.92355e-09 0
-4.21748e-09 -3.77575e-09 0
-9.41426e-05 -0.000351469 0
1.49862e-10 -1.9848e-09 0
-1.21752e-09 -3.48411e-09 0
-1.01984e-09 -1.2779e-09 0
-1.49402e-09 -7.24219e-10 0
-3.27004e-09 -2.73296e-09 0
-3.49443e-09 -4.19597e-09 0
-4.56038e-09 -5.03792e-09 0
-0.000318429 0.000184008 0
-3.89861e-09 -2.9902e-09 0
-4.81919e-09 -4.89329e-09 0
-3.65069e-09 -2.56049e-09 0
-3.61014e-09 -2.5946e-09 0
-2.42838e-09 -1.37795e-09 0
-3.11659e-09 -1.95463e-09 0
-3.58805e-09 -2.44921e-09 0
-3.5845e-09 -2.34264e-09 0
-4.70749e-09 -4.94963e-09 0
-4.06306e-09 -4.87988e-09 0
-3.51342e-09 -3.58939e-09 0
-0.000138127 -0.000333304 0
-1.81057e-09 -1.98417e-09 0
-1.90687e-09 -1.64246e-09 0
-4.29749e-09 -2.27639e-09 0
-5.16207e-09 -2.96477e-09 0
-5.07531e-09 -3.29808e-09 0
-0.000340705 0.000141327 0
-3.98268e-09 -3.26848e-09 0