# vtk DataFile Version 2.0
CellBP Time: 1.8
ASCII
DATASET UNSTRUCTURED_GRID
POINTS 296 double
-9.18556 -3.77549 0
-8.6072 -4.94823 0
-9.60601 -2.53732 0
-9.86101 -1.25481 0
-8.35806 -2.81887 0
-7.88076 -6.03548 0
-7.01862 -7.01861 0
-7.9177 -3.87494 0
-7.34311 -4.86814 0
-6.03552 -7.8808 0
-4.94825 -8.60721 0
-9.94651 0.0499998 0
-9.86101 1.35481 0
-8.65817 -1.68403 0
-8.78681 -0.529655 0
-7.59019 -2.00427 0
-7.22622 -2.90667 0
-6.63807 -5.77925 0
-5.82279 -6.59733 0
-6.79073 -3.88917 0
-6.22101 -4.67624 0
-3.77551 -9.18558 0
-2.53728 -9.60584 0
-4.9068 -7.30929 0
-3.91327 -7.88676 0
-8.79327 0.643435 0
-9.60614 2.63736 0
-8.62379 1.77418 0
-9.18557 3.8755 0
-7.7448 -0.929039 0
-7.79503 0.0802595 0
-6.95302 -1.31596 0
-1.2548 -9.86098 0
-6.44191 -2.15326 0
-6.31981 -3.05633 0
-5.53692 -5.47496 0
-4.79625 -6.11591 0
-5.65942 -3.75726 0
-5.26977 -4.56191 0
-2.86636 -8.3645 0
-1.77868 -8.64083 0
-3.92842 -6.72404 0
-3.05684 -7.15313 0
0.0500013 -9.94662 0
-7.70604 1.14359 0
-8.33912 2.91561 0
-7.55243 2.11211 0
-8.60725 5.04827 0
-7.88059 3.9785 0
-7.88074 6.13547 0
-6.77917 -0.396882 0
-6.95704 0.552581 0
-5.77177 -1.00347 0
-0.590878 -8.81033 0
0.565721 -8.77152 0
-5.30346 -2.48043 0
-4.49229 -5.0961 0
-3.90278 -5.77575 0
-4.4392 -3.805 0
-2.06257 -7.56253 0
-1.13557 -7.78645 0
-2.99477 -6.10252 0
-2.3092 -6.6203 0
1.35481 -9.86101 0
-6.68995 1.42215 0
-7.17274 3.11836 0
-6.65977 2.37319 0
-7.29528 4.98903 0
-6.71862 4.00338 0
-7.01862 7.11863 0
-6.57301 5.89461 0
-6.0355 7.98078 0
-4.45338 -1.18114 0
-5.81499 0.513792 0
-4.65644 -0.0103822 0
0.00852166 -7.84875 0
1.73869 -8.6445 0
0.949042 -7.7641 0
-4.03876 -2.40653 0
-3.48576 -1.39128 0
-3.29473 -4.80567 0
-3.26607 -3.26799 0
-1.37869 -6.676 0
-0.508782 -7.02553 0
-1.97569 -5.53742 0
2.6373 -9.60595 0
-5.50773 2.03707 0
-6.09523 3.07247 0
-6.10565 4.87008 0
-5.76225 3.99184 0
-5.76182 6.71776 0
-5.45266 5.61991 0
-4.94826 8.70725 0
-4.83893 7.40528 0
-3.50171 -0.42433 0
-4.4496 1.24912 0
-3.7117 0.59211 0
-4.06245 2.31997 0
-3.7755 9.28559 0
2.86287 -8.33364 0
0.419726 -6.79606 0
2.02222 -7.52659 0
1.30621 -6.90625 0
-2.44481 -0.873865 0
-2.83856 -2.13127 0
-2.29456 -4.09766 0
-2.3258 -2.97379 0
-0.442421 -5.86165 0
-1.22281 -4.49946 0
3.8755 -9.18559 0
-4.79019 3.39208 0
-5.08845 4.59461 0
-4.64768 6.28212 0
-4.53935 5.3603 0
-3.84414 7.99422 0
-3.82718 6.84649 0
-2.78361 8.42377 0
-1.64915 -0.137908 0
-1.45035 -0.890641 0
-2.48927 0.507287 0
-3.25384 1.44425 0
-3.23927 3.31681 0
-2.91118 2.37193 0
-1.35519 0.627143 0
-2.53729 9.70591 0
3.93313 -7.88785 0
2.96488 -7.15855 0
0.954178 -5.82257 0
2.07457 -6.41623 0
-1.68307 -1.99218 0
-1.43453 -3.278 0
0.0902259 -4.74737 0
-0.566214 -3.69469 0
4.93271 -7.31965 0
5.04826 -8.60724 0
-3.7773 4.55205 0
-3.73518 5.75279 0
-2.88832 7.29075 0
-3.01005 6.35448 0
-1.66275 8.7347 0
-1.94035 7.6203 0
-2.33857 4.05201 0
-0.730774 -1.32733 0
-0.836946 -0.257641 0
-1.93633 1.68088 0
-2.12592 2.87605 0
-1.30667 3.54496 0
-0.869512 1.35091 0
-0.282383 0.456073 0
-0.533584 8.87278 0
-1.25481 9.961 0
1.11288 -4.575 0
3.91063 -6.71816 0
2.98828 -6.09552 0
2.11808 -5.42554 0
4.78507 -6.20619 0
-0.558888 -2.47698 0
0.495147 -3.4641 0
0.0535556 -1.61058 0
1.48202 -3.68247 0
5.86795 -6.61555 0
6.13549 -7.88077 0
-2.47594 5.34904 0
-2.13072 6.53528 0
-0.904193 7.80436 0
-1.27251 6.93297 0
0.0862154 7.88148 0
-1.14456 4.49512 0
0.150329 -0.617681 0
-0.797481 2.48867 0
-0.331675 3.60102 0
0.0631095 1.51282 0
0.741481 0.473449 0
0.646873 8.87547 0
0.0499991 10.0466 0
2.38125 -4.28568 0
3.8597 -5.64122 0
3.00183 -5.21341 0
5.57461 -5.49266 0
4.69171 -5.28383 0
0.629717 -2.29352 0
1.25628 -2.95146 0
0.757547 -1.39154 0
2.16454 -3.13611 0
2.9941 -3.47696 0
6.15617 -4.79257 0
6.65662 -5.77021 0
7.11861 -7.01861 0
-1.01975 5.82105 0
-0.372671 6.88459 0
1.12281 7.7708 0
0.558059 7.08089 0
-0.00076535 4.72568 0
0.607058 3.82819 0
1.33901 -0.641937 0
0.53914 2.65126 0
0.966151 1.57505 0
1.91034 0.213883 0
1.61489 1.06511 0
2.12977 7.58489 0
1.79951 8.71385 0
1.35481 9.96102 0
3.82334 -4.35219 0
5.11741 -4.44975 0
5.84675 -3.93582 0
3.78447 -3.20146 0
1.81244 -1.88278 0
3.01949 -2.57417 0
6.78463 -3.9486 0
7.38278 -4.89768 0
7.98081 -6.03553 0
0.483425 5.88238 0
1.42842 6.74309 0
2.37478 6.67033 0
1.21013 4.55675 0
1.48834 3.39801 0
2.43604 -0.692088 0
2.82836 0.14262 0
1.78907 2.16306 0
2.61217 1.15027 0
3.07264 7.17156 0
2.90479 8.37846 0
2.63731 9.70591 0
4.91207 -3.32842 0
6.12187 -3.10927 0
4.17346 -2.27557 0
3.24484 -1.50308 0
6.73275 -2.31351 0
7.23362 -3.04319 0
7.96658 -3.91307 0
8.70722 -4.94825 0
2.02396 5.60077 0
3.08716 6.15492 0
2.36426 4.12752 0
2.4204 3.06129 0
3.52616 -0.460918 0
3.61621 0.613373 0
2.96224 2.28839 0
3.54611 1.52549 0
4.01318 5.89959 0
3.98553 6.79499 0
3.97434 7.94077 0
3.87552 9.28561 0
5.56993 -1.91653 0
4.50997 -1.12978 0
6.71566 -1.33644 0
7.59461 -2.03696 0
8.39943 -2.86212 0
9.28557 -3.7755 0
3.41987 4.87808 0
3.3396 3.38598 0
4.69211 0.130099 0
4.52001 1.31021 0
4.06608 2.44426 0
4.57198 5.15405 0
4.84528 6.19282 0
4.98202 7.38278 0
5.04828 8.70726 0
5.88495 -0.435004 0
7.01312 -0.488391 0
7.76211 -1.08563 0
8.68761 -1.74648 0
9.70589 -2.5373 0
4.55368 3.82861 0
5.81939 1.09889 0
5.37279 2.53565 0
5.3821 4.62232 0
5.61431 5.52565 0
5.89935 6.67434 0
6.13551 7.98078 0
6.84862 0.463702 0
7.85636 -0.0256463 0
8.86366 -0.584548 0
9.96102 -1.25481 0
6.96328 1.34998 0
5.72336 3.77995 0
6.54409 2.19837 0
6.38288 3.08927 0
6.29515 4.68899 0
6.69581 5.8402 0
7.11857 7.11856 0
7.78765 0.968013 0
8.86301 0.572976 0
10.0464 0.0499988 0
7.61956 2.00517 0
6.83226 3.90602 0
7.27283 2.94811 0
7.38147 4.88784 0
7.98085 6.13555 0
8.72661 1.72762 0
9.961 1.35481 0
8.42453 2.83896 0
7.98502 3.91796 0
8.70729 5.04828 0
9.70593 2.6373 0
9.28561 3.87551 0
CELLS 542 2168
3 2 0 4
3 0 1 7
3 4 0 7
3 1 5 8
3 7 1 8
3 3 2 13
3 13 2 4
3 11 3 14
3 14 3 13
3 13 4 15
3 4 7 16
3 15 4 16
3 5 6 17
3 8 5 17
3 6 9 18
3 17 6 18
3 7 8 19
3 16 7 19
3 8 17 20
3 19 8 20
3 9 10 23
3 18 9 23
3 10 21 24
3 23 10 24
3 12 11 25
3 25 11 14
3 26 12 27
3 27 12 25
3 14 13 29
3 29 13 15
3 25 14 30
3 30 14 29
3 29 15 31
3 15 16 33
3 31 15 33
3 16 19 34
3 33 16 34
3 17 18 35
3 20 17 35
3 18 23 36
3 35 18 36
3 19 20 37
3 34 19 37
3 20 35 38
3 37 20 38
3 21 22 39
3 24 21 39
3 22 32 40
3 39 22 40
3 23 24 41
3 36 23 41
3 24 39 42
3 41 24 42
3 27 25 44
3 44 25 30
3 28 26 45
3 45 26 27
3 45 27 46
3 46 27 44
3 47 28 48
3 48 28 45
3 30 29 50
3 50 29 31
3 44 30 51
3 51 30 50
3 50 31 52
3 31 33 52
3 32 43 53
3 40 32 53
3 53 43 54
3 33 34 55
3 34 37 55
3 33 55 52
3 35 36 56
3 38 35 56
3 36 41 57
3 56 36 57
3 37 38 58
3 38 56 58
3 37 58 55
3 39 40 59
3 42 39 59
3 40 53 60
3 59 40 60
3 41 42 61
3 57 41 61
3 42 59 62
3 61 42 62
3 43 63 54
3 46 44 64
3 64 44 51
3 48 45 65
3 65 45 46
3 65 46 66
3 66 46 64
3 49 47 67
3 67 47 48
3 67 48 68
3 68 48 65
3 69 49 70
3 70 49 67
3 52 55 72
3 64 51 73
3 51 50 73
3 50 52 73
3 73 52 74
3 74 52 72
3 53 54 75
3 60 53 75
3 54 63 76
3 54 76 77
3 75 54 77
3 55 58 78
3 72 55 78
3 72 78 79
3 56 57 80
3 57 61 80
3 56 80 58
3 58 80 81
3 78 58 81
3 59 60 82
3 62 59 82
3 60 75 83
3 82 60 83
3 61 62 84
3 62 82 84
3 61 84 80
3 63 85 76
3 66 64 86
3 64 73 86
3 68 65 87
3 87 65 66
3 87 66 86
3 70 67 88
3 88 67 68
3 88 68 89
3 89 68 87
3 71 69 90
3 90 69 70
3 90 70 91
3 91 70 88
3 92 71 93
3 93 71 90
3 74 72 94
3 94 72 79
3 86 73 95
3 95 73 74
3 95 74 96
3 96 74 94
3 97 86 95
3 76 85 99
3 75 77 100
3 83 75 100
3 76 99 101
3 77 76 101
3 77 101 102
3 100 77 102
3 94 79 103
3 78 81 104
3 79 78 104
3 79 104 103
3 80 84 105
3 81 80 105
3 81 105 106
3 104 81 106
3 82 83 107
3 83 100 107
3 82 107 84
3 84 107 108
3 105 84 108
3 85 109 99
3 89 87 110
3 87 86 110
3 110 86 97
3 91 88 111
3 111 88 89
3 111 89 110
3 93 90 112
3 112 90 91
3 112 91 113
3 113 91 111
3 98 92 114
3 114 92 93
3 114 93 115
3 115 93 112
3 116 98 114
3 117 103 118
3 96 94 119
3 94 103 119
3 119 103 117
3 97 95 120
3 120 95 96
3 120 96 119
3 121 110 97
3 121 97 122
3 122 97 120
3 123 119 117
3 124 98 116
3 99 109 125
3 99 125 126
3 101 99 126
3 100 102 127
3 100 127 107
3 101 126 128
3 102 101 128
3 102 128 127
3 104 106 129
3 104 129 103
3 103 129 118
3 105 108 130
3 106 105 130
3 106 130 129
3 107 127 131
3 108 107 131
3 108 131 132
3 108 132 130
3 109 134 125
3 125 134 133
3 113 111 135
3 111 110 135
3 135 110 121
3 115 112 136
3 136 112 113
3 136 113 135
3 116 114 137
3 137 114 115
3 137 115 138
3 138 115 136
3 139 124 116
3 139 116 140
3 140 116 137
3 141 135 121
3 118 129 142
3 118 142 143
3 117 118 143
3 123 117 143
3 122 120 144
3 120 119 144
3 144 119 123
3 141 121 145
3 145 121 122
3 145 122 144
3 146 141 145
3 147 144 123
3 147 123 148
3 143 148 123
3 150 124 139
3 149 150 139
3 131 127 151
3 125 133 152
3 126 125 152
3 126 152 153
3 128 126 153
3 128 153 154
3 128 154 127
3 127 154 151
3 152 133 155
3 130 132 156
3 130 156 129
3 129 156 142
3 131 151 157
3 132 131 157
3 132 157 156
3 156 158 142
3 157 151 159
3 133 160 155
3 134 161 133
3 133 161 160
3 138 136 162
3 136 135 162
3 162 135 141
3 140 137 163
3 163 137 138
3 163 138 162
3 149 139 164
3 164 139 140
3 164 140 165
3 165 140 163
3 166 149 164
3 167 162 141
3 167 141 146
3 142 158 168
3 143 142 168
3 143 168 148
3 146 145 169
3 145 144 169
3 169 144 147
3 170 167 146
3 170 146 169
3 171 169 147
3 171 147 148
3 171 148 172
3 168 172 148
3 173 149 166
3 174 150 149
3 173 174 149
3 154 175 151
3 151 175 159
3 152 155 176
3 153 152 176
3 153 176 177
3 153 177 154
3 154 177 175
3 155 160 178
3 155 178 179
3 176 155 179
3 156 157 180
3 156 180 158
3 157 159 181
3 157 181 180
3 158 180 182
3 158 182 168
3 159 175 183
3 159 183 181
3 175 184 183
3 160 186 178
3 178 186 185
3 161 187 160
3 160 187 186
3 165 163 188
3 163 162 188
3 188 162 167
3 166 164 189
3 189 164 165
3 189 165 188
3 190 173 166
3 190 166 191
3 191 166 189
3 192 188 167
3 192 167 170
3 193 192 170
3 182 194 168
3 194 172 168
3 193 170 195
3 170 169 195
3 195 169 171
3 196 195 171
3 196 171 172
3 194 197 172
3 197 198 172
3 198 196 172
3 200 173 190
3 199 200 190
3 201 174 173
3 200 201 173
3 176 179 202
3 177 176 202
3 177 202 175
3 175 202 184
3 178 185 203
3 178 203 179
3 179 203 202
3 203 185 204
3 202 205 184
3 183 206 181
3 180 181 206
3 180 206 182
3 182 206 194
3 183 184 207
3 205 207 184
3 183 207 206
3 185 208 204
3 186 209 185
3 185 209 208
3 187 210 186
3 186 210 209
3 191 189 211
3 189 188 211
3 211 188 192
3 199 190 212
3 212 190 191
3 212 191 211
3 213 199 212
3 214 211 192
3 214 192 193
3 215 214 193
3 215 193 195
3 206 216 194
3 216 197 194
3 216 217 197
3 215 195 218
3 218 195 196
3 198 218 196
3 217 219 197
3 219 218 198
3 197 219 198
3 220 199 213
3 221 200 199
3 220 221 199
3 222 201 200
3 221 222 200
3 203 204 223
3 203 223 202
3 202 223 205
3 204 208 224
3 204 224 223
3 205 223 225
3 205 225 207
3 207 225 226
3 207 226 206
3 226 216 206
3 208 228 224
3 224 228 227
3 209 229 208
3 229 228 208
3 210 230 209
3 209 230 229
3 213 212 231
3 212 211 231
3 231 211 214
3 232 220 213
3 232 213 231
3 233 231 214
3 233 214 215
3 234 233 215
3 234 215 218
3 226 235 216
3 235 217 216
3 235 236 217
3 217 236 219
3 237 234 218
3 237 218 219
3 236 238 219
3 238 237 219
3 240 220 232
3 239 240 232
3 241 221 220
3 240 241 220
3 242 222 221
3 241 242 221
3 224 227 243
3 224 243 223
3 223 243 225
3 225 243 244
3 225 244 226
3 226 244 235
3 227 245 243
3 228 246 227
3 227 246 245
3 229 247 228
3 228 247 246
3 230 248 229
3 229 248 247
3 239 232 249
3 232 231 249
3 249 231 233
3 250 249 233
3 250 233 234
3 237 250 234
3 244 251 235
3 235 251 236
3 251 252 236
3 236 252 238
3 252 253 238
3 253 250 237
3 253 237 238
3 254 239 249
3 255 240 239
3 254 255 239
3 256 241 240
3 255 256 240
3 257 242 241
3 256 257 241
3 245 258 243
3 243 258 244
3 244 258 251
3 245 259 258
3 246 260 245
3 245 260 259
3 247 261 246
3 246 261 260
3 248 262 247
3 247 262 261
3 254 249 263
3 263 249 250
3 253 263 250
3 258 264 251
3 251 264 252
3 264 265 252
3 265 263 253
3 252 265 253
3 266 254 263
3 267 255 254
3 266 267 254
3 268 256 255
3 267 268 255
3 269 257 256
3 268 269 256
3 259 270 258
3 270 264 258
3 260 271 259
3 259 271 270
3 261 272 260
3 260 272 271
3 262 273 261
3 273 272 261
3 270 274 264
3 275 266 263
3 275 263 265
3 274 276 264
3 276 265 264
3 276 277 265
3 277 275 265
3 278 267 266
3 275 278 266
3 279 268 267
3 278 279 267
3 280 269 268
3 279 280 268
3 271 281 270
3 270 281 274
3 272 282 271
3 271 282 281
3 273 283 272
3 272 283 282
3 281 284 274
3 274 284 276
3 285 278 275
3 277 285 275
3 284 286 276
3 286 285 277
3 276 286 277
3 287 279 278
3 285 287 278
3 288 280 279
3 287 288 279
3 282 289 281
3 281 289 284
3 283 290 282
3 282 290 289
3 289 291 284
3 284 291 286
3 291 292 286
3 292 287 285
3 286 292 285
3 293 288 287
3 292 293 287
3 290 294 289
3 289 294 291
3 294 295 291
3 295 293 292
3 291 295 292
CELL_TYPES 542
5
5
5
5
5
5
5
5
5
5
5
5
5
5
5
5
5
5
5
5
5
5
5
5
5
5
5
5
5
5
5
5
5
5
5
5
5
5
5
5
5
5
5
5
5
5
5
5
5
5
5
5
5
5
5
5
5
5
5
5
5
5
5
5
5
5
5
5
5
5
5
5
5
5
5
5
5
5
5
5
5
5
5
5
5
5
5
5
5
5
5
5
5
5
5
5
5
5
5
5
5
5
5
5
5
5
5
5
5
5
5
5
5
5
5
5
5
5
5
5
5
5
5
5
5
5
5
5
5
5
5
5
5
5
5
5
5
5
5
5
5
5
5
5
5
5
5
5
5
5
5
5
5
5
5
5
5
5
5
5
5
5
5
5
5
5
5
5
5
5
5
5
5
5
5
5
5
5
5
5
5
5
5
5
5
5
5
5
5
5
5
5
5
5
5
5
5
5
5
5
5
5
5
5
5
5
5
5
5
5
5
5
5
5
5
5
5
5
5
5
5
5
5
5
5
5
5
5
5
5
5
5
5
5
5
5
5
5
5
5
5
5
5
5
5
5
5
5
5
5
5
5
5
5
5
5
5
5
5
5
5
5
5
5
5
5
5
5
5
5
5
5
5
5
5
5
5
5
5
5
5
5
5
5
5
5
5
5
5
5
5
5
5
5
5
5
5
5
5
5
5
5
5
5
5
5
5
5
5
5
5
5
5
5
5
5
5
5
5
5
5
5
5
5
5
5
5
5
5
5
5
5
5
5
5
5
5
5
5
5
5
5
5
5
5
5
5
5
5
5
5
5
5
5
5
5
5
5
5
5
5
5
5
5
5
5
5
5
5
5
5
5
5
5
5
5
5
5
5
5
5
5
5
5
5
5
5
5
5
5
5
5
5
5
5
5
5
5
5
5
5
5
5
5
5
5
5
5
5
5
5
5
5
5
5
5
5
5
5
5
5
5
5
5
5
5
5
5
5
5
5
5
5
5
5
5
5
5
5
5
5
5
5
5
5
5
5
5
5
5
5
5
5
5
5
5
5
5
5
5
5
5
5
5
5
5
5
5
5
5
5
5
5
5
5
5
5
5
5
5
5
5
5
5
5
5
5
5
5
5
5
5
5
5
5
5
5
5
5
5
5
5
5
5
5
5
5
5
5
5
5
5
5
5
5
5
5
5
5
5
5
5
5
5
5
5
5
5
5
5
5
5
5
5
5
5
5
5
5
5
5
5
POINT_DATA 296
SCALARS concentrations float 4
LOOKUP_TABLE default
0 0.999282 0.210169 15.591
0 0.999293 0.210514 16.1911
0 0.999292 0.209903 16.1584
0 0.999299 0.209083 15.5485
0 0.999295 0.0909058 0.00314207
0 0.9993 0.209994 15.7708
0 0.999301 0.209534 15.6171
0 0.999295 0.0909055 0.00305255
0 0.999302 0.0908885 0.00126074
0 0.999296 0.209453 15.7094
0 0.999277 0.209782 15.7777
0 0.999303 0.20818 15.6518
0 0.999302 0.208432 15.3739
0 0.999301 0.0908884 0.000708395
0 0.999303 0.0908877 0.0021227
0 0.999308 0.0908896 0.00219292
0 0.999308 0.0908899 0.00191098
0 0.999303 0.0908868 0.00189222
0 0.999302 0.0908868 0.00173706
0 0.999307 0.0908895 0.00223734
0 0.999307 0.0908878 0.00247646
0 0.999253 0.210026 19.4695
0 0.999275 0.21215 15.8952
0 0.999294 0.0908876 0.00272717
0 0.999274 0.0908933 0.00623701
0 0.999304 0.0908873 0.00259725
0 0.999301 0.207682 15.4884
0 0.999303 0.0908866 0.00209346
0 0.9993 0.208434 15.5542
0 0.999307 0.090888 0.00237605
0 0.999306 0.0908873 0.00237888
0 0.99931 0.0908864 0.00245522
0 0.999296 0.209328 15.6825
0 0.999311 0.0908856 0.00248865
0 0.999311 0.0908865 0.00276304
0 0.999307 0.0908875 0.0023818
0 0.999305 0.0908877 0.00170064
0 0.999311 0.0908857 0.00232158
0 0.99931 0.0908865 0.00230628
0 0.999274 0.0908947 0.0070671
0 0.999294 0.0908883 0.00303399
0 0.9993 0.0908884 0.00197597
0 0.999295 0.0908889 0.00282669
0 0.999301 0.208557 15.6093
0 0.999306 0.0908876 0.00233663
0 0.999302 0.0908866 0.00212242
0 0.999306 0.0908878 0.00219118
0 0.999299 0.207639 15.1663
0 0.9993 0.0908878 0.00247177
0 0.999298 0.206746 16.9791
0 0.99931 0.0908857 0.00195433
0 0.999309 0.0908863 0.00192454
0 0.999312 0.0908825 0.00137989
0 0.999302 0.0908872 0.00166017
0 0.999305 0.0908882 0.00172205
0 0.999313 0.0908826 0.00152634
0 0.99931 0.0908858 0.00205627
0 0.999309 0.0908865 0.00164021
0 0.999312 0.0908828 0.00140654
0 0.9993 0.0908886 0.00215485
0 0.999306 0.0908879 0.00171966
0 0.999309 0.0908861 0.00112389
0 0.999308 0.0908868 0.00090052
0 0.999306 0.207006 15.5136
0 0.99931 0.0908855 0.00169417
0 0.999304 0.0908879 0.00191228
0 0.999309 0.0908864 0.00172497
0 0.999298 0.0909054 0.00392137
0 0.999302 0.0908889 0.00142826
0 0.999299 0.207033 15.1634
0 0.999298 0.0909042 0.00392029
0 0.999299 0.20712 15.468
0 0.999314 0.0908814 0.00100084
0 0.999312 0.0908826 0.00116474
0 0.999314 0.0908814 0.00095984
0 0.999307 0.0908879 0.00264786
0 0.999312 0.0909065 0.00314168
0 0.99931 0.0908895 0.00379803
0 0.999314 0.0908814 0.00102644
0 0.999316 0.0908809 0.000842799
0 0.999313 0.0908828 0.00146018
0 0.999314 0.0908816 0.00109199
0 0.99931 0.0908856 0.00165416
0 0.99931 0.0908861 0.00215043
0 0.999313 0.0908829 0.00151173
0 0.999314 0.206957 13.7033
0 0.999312 0.0908825 0.00109221
0 0.999309 0.0908857 0.00133002
0 0.9993 0.0908893 0.00099961
0 0.999307 0.0908864 0.00097978
0 0.9993 0.0908876 0.00236865
0 0.999302 0.090889 0.00137555
0 0.999299 0.207057 15.4686
0 0.999301 0.0908862 0.00179905
0 0.999316 0.0908806 0.000776374
0 0.999314 0.0908815 0.000953626
0 0.999316 0.0908808 0.000832548
0 0.999314 0.0908814 0.000942458
0 0.9993 0.207678 15.514
0 0.999311 0.0909075 0.0034451
0 0.99931 0.0908859 0.00233497
0 0.999312 0.0908898 0.0041204
0 0.99931 0.0908865 0.00291649
0 0.999317 0.0908795 0.000588499
0 0.999316 0.0908807 0.000823925
0 0.999314 0.0908816 0.00118011
0 0.999316 0.0908811 0.00095564
0 0.999312 0.090883 0.00148201
0 0.999314 0.0908815 0.00115436
0 0.999305 0.206948 15.5547
0 0.999312 0.0908825 0.000980841
0 0.999308 0.0908858 0.00101354
0 0.999304 0.0908876 0.00172774
0 0.999308 0.0908867 0.00139874
0 0.999301 0.0908862 0.00174815
0 0.999305 0.0908874 0.00184623
0 0.999302 0.0908862 0.00186273
0 0.999318 0.090879 0.000492749
0 0.999319 0.0908789 0.000484925
0 0.999318 0.0908794 0.000577665
0 0.999316 0.0908806 0.000811345
0 0.999314 0.0908813 0.000943116
0 0.999316 0.0908809 0.000891388
0 0.999319 0.0908785 0.00042165
0 0.9993 0.207385 15.4841
0 0.999304 0.0908883 0.00169132
0 0.99931 0.0908884 0.00337861
0 0.999312 0.0908835 0.00147484
0 0.99931 0.0908861 0.00261932
0 0.999318 0.0908796 0.000620142
0 0.999316 0.0908807 0.000899667
0 0.999314 0.0908816 0.00104126
0 0.999316 0.0908807 0.000862365
0 0.999295 0.0908969 0.00284759
0 0.999296 0.207145 15.7565
0 0.999312 0.0908826 0.00105484
0 0.99931 0.0908859 0.0015959
0 0.999305 0.0908873 0.0019349
0 0.999309 0.0908864 0.00177363
0 0.999302 0.0908863 0.00206169
0 0.999305 0.0908873 0.00200398
0 0.999314 0.0908813 0.000950052
0 0.999319 0.0908785 0.000419778
0 0.999319 0.0908777 0.000255761
0 0.999318 0.0908793 0.000589507
0 0.999316 0.0908806 0.000831489
0 0.999316 0.090881 0.00089677
0 0.999319 0.0908783 0.000410183
0 0.999319 0.0908769 0.000155872
0 0.999304 0.0908872 0.00262939
0 0.999301 0.208092 15.4891
0 0.999314 0.0908817 0.000969036
0 0.999306 0.0908878 0.00173068
0 0.99931 0.0908866 0.00234227
0 0.999312 0.0908836 0.00144542
0 0.999306 0.0908884 0.00119752
0 0.999318 0.0908795 0.000622588
0 0.999317 0.0908806 0.000785211
0 0.999319 0.0908786 0.000444714
0 0.999316 0.0908818 0.000958725
0 0.999295 0.0908996 0.00332427
0 0.999284 0.206698 15.9661
0 0.999312 0.0908825 0.00113621
0 0.99931 0.0908856 0.00166221
0 0.999305 0.0908875 0.00225284
0 0.999309 0.0908863 0.00177205
0 0.999307 0.0908881 0.00327759
0 0.999314 0.0908814 0.000951468
0 0.999319 0.0908769 0.000151751
0 0.999318 0.0908792 0.000583064
0 0.999316 0.0908808 0.000850895
0 0.999319 0.0908781 0.000380389
0 0.999319 0.0908771 0.000232427
0 0.999313 0.0908997 0.00692406
0 0.999309 0.20676 15.0733
0 0.999314 0.0908821 0.00106504
0 0.99931 0.090886 0.00203562
0 0.999312 0.0908841 0.00157919
0 0.999308 0.0908919 0.00176835
0 0.999311 0.0908863 0.00241006
0 0.999318 0.0908793 0.00056387
0 0.999317 0.0908801 0.000698269
0 0.999319 0.0908785 0.000438172
0 0.999316 0.0908812 0.000870988
0 0.999314 0.0908825 0.00117941
0 0.999311 0.0908925 0.00224341
0 0.999296 0.0909089 0.00443294
0 0.999289 0.206011 16.064
0 0.999312 0.0908825 0.00110025
0 0.999309 0.0908856 0.00170447
0 0.999307 0.0908889 0.00283245
0 0.999309 0.0908863 0.0020406
0 0.999314 0.0908816 0.000972102
0 0.999316 0.0908812 0.000924426
0 0.999319 0.0908781 0.000378772
0 0.999318 0.0908794 0.00061267
0 0.999319 0.0908785 0.000469828
0 0.999318 0.0908786 0.000485334
0 0.999318 0.0908787 0.000511862
0 0.999305 0.0908889 0.00159996
0 0.999301 0.0909121 0.00754154
0 0.999315 0.206606 15.2055
0 0.999312 0.0908832 0.00160656
0 0.999312 0.0908859 0.00277118
0 0.999312 0.0908871 0.00328714
0 0.999314 0.0908824 0.00124307
0 0.999318 0.0908794 0.000574946
0 0.999316 0.0908811 0.000880818
0 0.99931 0.090891 0.0024746
0 0.999299 0.0909114 0.00493058
0 0.999285 0.205466 14.3727
0 0.999312 0.0908824 0.00113835
0 0.99931 0.0908857 0.00192847
0 0.99931 0.090887 0.00226058
0 0.999314 0.0908815 0.00101928
0 0.999316 0.0908809 0.000890343
0 0.999318 0.0908796 0.000627606
0 0.999317 0.0908803 0.000753466
0 0.999317 0.0908797 0.000672034
0 0.999317 0.09088 0.000712568
0 0.999306 0.0908889 0.00150538
0 0.999291 0.0909028 0.00443869
0 0.999283 0.204892 15.6255
0 0.999312 0.0908832 0.00177422
0 0.999311 0.0908857 0.00266579
0 0.999314 0.0908818 0.00113167
0 0.999316 0.0908806 0.000799436
0 0.999312 0.0908865 0.00267159
0 0.999309 0.0908886 0.00231585
0 0.999302 0.0908913 0.00133803
0 0.999296 0.208104 16.1151
0 0.999312 0.0908825 0.00135345
0 0.999311 0.0908861 0.00222439
0 0.999314 0.0908815 0.0010544
0 0.999316 0.0908813 0.000956528
0 0.999316 0.0908809 0.000890065
0 0.999316 0.0908812 0.000925567
0 0.999316 0.0908811 0.000900638
0 0.999315 0.0908815 0.000950773
0 0.99931 0.0908868 0.00205337
0 0.999307 0.0908882 0.00175802
0 0.999301 0.0908874 0.000853893
0 0.999292 0.204744 15.5171
0 0.999313 0.0908827 0.00162977
0 0.999314 0.0908813 0.00110368
0 0.999312 0.090886 0.00238164
0 0.999308 0.0908915 0.00109446
0 0.999299 0.0908923 0.00134095
0 0.999294 0.208056 15.6416
0 0.999312 0.0908826 0.00140889
0 0.999314 0.0908816 0.00105013
0 0.999314 0.0908812 0.00113056
0 0.999314 0.0908814 0.00109929
0 0.999314 0.0908815 0.00103108
0 0.99931 0.0908859 0.00157772
0 0.999304 0.0908892 0.0015978
0 0.999298 0.0908885 0.00253746
0 0.999297 0.206044 15.4411
0 0.999313 0.0908828 0.00184945
0 0.999312 0.0908872 0.00207778
0 0.999305 0.0908929 0.0020045
0 0.999288 0.0909084 0.00727452
0 0.999287 0.206562 16.0237
0 0.999312 0.0908827 0.00137172
0 0.999313 0.0908826 0.00185692
0 0.999312 0.0908826 0.0015949
0 0.99931 0.090887 0.0019438
0 0.999303 0.09089 0.00119514
0 0.999278 0.0908998 0.00907011
0 0.999279 0.206798 15.4054
0 0.999313 0.0908862 0.00232504
0 0.999303 0.0908924 0.00253327
0 0.99927 0.0909178 0.0119167
0 0.99926 0.205169 15.5261
0 0.999313 0.0908872 0.00297543
0 0.999311 0.0908862 0.00263666
0 0.999312 0.0908863 0.00313203
0 0.999312 0.0908873 0.00347072
0 0.999309 0.0908923 0.00300307
0 0.99929 0.0909112 0.00994022
0 0.999261 0.204863 18.1467
0 0.999306 0.0908923 0.00169718
0 0.999277 0.0909013 0.0106286
0 0.999247 0.205261 18.5692
0 0.99931 0.0908936 0.00138038
0 0.999313 0.0908929 0.00412604
0 0.999312 0.0908941 0.00276409
0 0.999314 0.0909051 0.00315007
0 0.999304 0.203316 13.9336
0 0.99929 0.0909101 0.00613297
0 0.999273 0.206403 15.8933
0 0.999294 0.0909176 0.00715016
0 0.999308 0.0909032 0.00202266
0 0.999311 0.20473 14.7256
0 0.999276 0.205557 15.5244
0 0.999293 0.205765 15.3195
VECTORS fa_u float
0.000458281 0.000189997 0
0.000445128 0.000259403 0
0.000497157 0.000131125 0
0.00049068 6.33487e-05 0
-5.37528e-08 -8.43014e-08 0
0.000397731 0.000306003 0
0.000351334 0.00035144 0
-9.2651e-08 2.91614e-08 0
2.30592e-08 3.28272e-08 0
0.000304187 0.000396663 0
0.000250971 0.000434814 0
0.000498038 -1.8841e-07 0
0.000485108 -6.31152e-05 0
2.24535e-08 -1.98493e-09 0
6.62863e-08 -1.29751e-08 0
6.4387e-08 2.68954e-08 0
5.61012e-08 2.3456e-08 0
4.52465e-08 3.97247e-08 0
4.97054e-08 2.41759e-08 0
6.40764e-08 3.10241e-08 0
6.59713e-08 4.30971e-08 0
0.000237308 0.000572265 0
0.000131693 0.000488337 0
7.11684e-08 -4.96544e-08 0
5.70297e-08 -1.90091e-07 0
8.22695e-08 7.86115e-09 0
0.000476041 -0.00012758 0
6.63374e-08 -6.06085e-09 0
0.000456915 -0.000190229 0
7.31233e-08 1.92151e-08 0
7.54181e-08 6.4766e-09 0
7.35568e-08 2.6323e-08 0
6.5511e-05 0.000494698 0
7.32285e-08 3.01406e-08 0
8.13026e-08 3.34631e-08 0
5.51118e-08 5.20251e-08 0
4.72465e-08 2.63843e-08 0
6.47487e-08 3.55631e-08 0
5.57314e-08 4.77439e-08 0
-1.84027e-07 -1.29239e-07 0
-9.64893e-08 -3.17477e-09 0
2.96662e-08 -5.54366e-08 0
-3.7077e-08 -8.19475e-08 0
1.18723e-06 0.000496687 0
7.40805e-08 -6.34276e-09 0
6.53836e-08 -1.69112e-08 0
6.85036e-08 -1.29835e-08 0
0.000416497 -0.000243772 0
7.4125e-08 -2.62975e-08 0
0.000428883 -0.000328564 0
6.14101e-08 9.79716e-09 0
6.12311e-08 -9.77378e-10 0
4.26327e-08 1.05052e-08 0
-1.98462e-08 4.89566e-08 0
-1.75746e-08 5.19007e-08 0
4.43753e-08 1.97406e-08 0
4.03654e-08 5.14952e-08 0
3.36496e-08 3.98952e-08 0
3.32774e-08 2.99284e-08 0
-6.42444e-08 -2.39603e-08 0
-1.36654e-08 5.29858e-08 0
1.93655e-08 3.00651e-08 0
1.52116e-09 2.86141e-08 0
-6.21061e-05 0.00048972 0
5.29825e-08 -9.94787e-09 0
5.95181e-08 -1.2655e-08 0
5.25376e-08 -1.58919e-08 0
9.995e-08 -7.4696e-08 0
4.51563e-08 -5.13187e-09 0
0.000343075 -0.00033927 0
9.63276e-08 -7.92583e-08 0
0.000300424 -0.00038987 0
3.05502e-08 8.99414e-09 0
3.69365e-08 -3.04531e-09 0
3.05307e-08 8.30968e-10 0
-9.93408e-09 8.36669e-08 0
-7.37493e-08 6.74883e-08 0
-3.74964e-08 1.14889e-07 0
2.73798e-08 1.78075e-08 0
2.45507e-08 1.07915e-08 0
2.44128e-08 3.95322e-08 0
2.22183e-08 2.67154e-08 0
9.0132e-09 5.18577e-08 0
8.5375e-09 6.78918e-08 0
1.78844e-08 4.4655e-08 0
-0.000112293 0.000421332 0
3.24929e-08 -1.23305e-08 0
3.99073e-08 -1.40884e-08 0
2.5267e-08 -1.93209e-08 0
2.85449e-08 -1.25366e-08 0
4.48589e-08 -6.05671e-08 0
1.52045e-08 -4.10442e-08 0
0.000246305 -0.000426149 0
2.88807e-08 -4.94263e-08 0
2.44252e-08 3.70185e-09 0
2.91432e-08 -8.45282e-09 0
2.62567e-08 -3.52006e-09 0
2.59186e-08 -1.50851e-08 0
0.000188791 -0.000456126 0
3.98554e-08 1.02121e-07 0
-3.48196e-09 7.4217e-08 0
-3.35854e-08 1.26736e-07 0
-2.19939e-08 9.01587e-08 0
1.73044e-08 7.15672e-09 0
1.97173e-08 1.72792e-08 0
1.74576e-08 3.32464e-08 0
1.72475e-08 2.50438e-08 0
1.0112e-08 4.60606e-08 0
1.20663e-08 3.46931e-08 0
-0.000191742 0.000456302 0
2.54923e-08 -1.80062e-08 0
2.10052e-08 -2.44721e-08 0
2.27838e-08 -5.00331e-08 0
2.15931e-08 -3.8919e-08 0
2.0566e-08 -5.16847e-08 0
2.56966e-08 -5.28289e-08 0
1.66245e-08 -5.68928e-08 0
1.5515e-08 2.26305e-09 0
1.26409e-08 8.84884e-09 0
1.82427e-08 -2.25283e-09 0
2.38364e-08 -9.91669e-09 0
2.13217e-08 -2.11182e-08 0
2.26245e-08 -1.71068e-08 0
1.26872e-08 -4.36442e-09 0
0.000127304 -0.000475973 0
6.00596e-09 5.34816e-08 0
-1.32792e-08 1.06684e-07 0
-4.66354e-09 4.66971e-08 0
-2.45708e-08 7.96425e-08 0
1.18145e-08 1.58051e-08 0
1.06403e-08 2.65765e-08 0
3.12182e-09 3.29855e-08 0
4.98922e-09 2.6983e-08 0
8.87547e-08 1.82426e-08 0
-0.00025103 0.000433999 0
2.01079e-08 -2.68754e-08 0
2.50423e-08 -4.41774e-08 0
2.26657e-08 -5.72444e-08 0
2.43973e-08 -5.08909e-08 0
5.57084e-09 -6.53658e-08 0
1.663e-08 -6.15596e-08 0
1.54794e-08 -2.59668e-08 0
5.67783e-09 1.20905e-08 0
7.4392e-09 3.30004e-09 0
1.51424e-08 -1.10713e-08 0
1.66194e-08 -2.05868e-08 0
1.10607e-08 -2.63043e-08 0
7.93882e-09 -1.036e-08 0
2.57206e-09 -4.24083e-09 0
-2.11203e-08 -8.09575e-08 0
6.46053e-05 -0.000488611 0
-7.14613e-09 2.99951e-08 0
-1.24456e-08 5.36453e-08 0
-2.8522e-08 6.88573e-08 0
-1.61375e-08 4.30692e-08 0
-3.24897e-08 1.99099e-08 0
3.4093e-09 1.95151e-08 0
-2.70674e-09 2.48383e-08 0
-1.05825e-09 1.41111e-08 0
-1.13547e-08 2.83147e-08 0
-3.68246e-09 -1.05714e-07 0
-0.000308843 0.000403387 0
1.48476e-08 -3.29645e-08 0
1.79695e-08 -4.97453e-08 0
2.9656e-09 -7.1624e-08 0
1.21688e-08 -5.50579e-08 0
-1.89533e-08 -1.02556e-07 0
8.12534e-09 -2.91649e-08 0
-2.2601e-09 4.26713e-09 0
6.93031e-09 -1.72101e-08 0
3.95802e-09 -2.67845e-08 0
4.07101e-10 -1.20971e-08 0
-6.02589e-09 -4.28797e-09 0
-1.0418e-07 -1.94136e-07 0
-8.89653e-07 -0.000479632 0
-1.8914e-08 2.81204e-08 0
-4.08279e-08 5.02857e-08 0
-2.96365e-08 4.05796e-08 0
-5.46977e-08 1.32039e-08 0
-6.09633e-08 4.65245e-08 0
-5.25327e-09 1.7156e-08 0
-1.00478e-08 1.98172e-08 0
-8.72022e-09 1.08791e-08 0
-1.69628e-08 2.19174e-08 0
-2.52907e-08 2.7727e-08 0
-6.07682e-08 3.74573e-08 0
1.36091e-07 -3.70935e-08 0
-0.000361085 0.000361796 0
6.20275e-09 -3.4456e-08 0
1.74827e-09 -5.4208e-08 0
-2.89869e-09 -9.00818e-08 0
-1.09493e-08 -6.40018e-08 0
-6.71774e-13 -3.09322e-08 0
-4.16617e-09 -2.91186e-08 0
-1.12956e-08 4.20393e-09 0
-3.04039e-09 -1.92566e-08 0
-6.70275e-09 -1.33631e-08 0
-1.51446e-08 -3.02277e-09 0
-1.27689e-08 -1.01111e-08 0
-5.42521e-09 -5.06208e-08 0
2.27806e-07 -7.54366e-08 0
-6.24546e-05 -0.000479789 0
-3.73358e-08 3.4919e-08 0
-7.08054e-08 5.25554e-08 0
-8.25055e-08 6.42908e-08 0
-3.09796e-08 2.4593e-08 0
-1.45027e-08 1.11522e-08 0
-2.28862e-08 1.61792e-08 0
-6.32684e-08 4.68759e-08 0
3.63856e-08 -1.52613e-07 0
-0.000362796 0.000278456 0
-6.06909e-09 -3.571e-08 0
-1.81707e-08 -5.86117e-08 0
-3.15177e-08 -6.46589e-08 0
-9.55146e-09 -3.09952e-08 0
-1.10355e-08 -2.6093e-08 0
-1.94157e-08 4.674e-09 0
-2.38191e-08 -2.73156e-09 0
-1.28697e-08 -1.70777e-08 0
-2.00322e-08 -1.06213e-08 0
-3.58474e-08 -3.17722e-08 0
-6.86334e-08 1.23442e-07 0
-0.000126619 -0.00048081 0
-4.65138e-08 3.19953e-08 0
-7.3996e-08 4.14718e-08 0
-3.29654e-08 1.44908e-08 0
-2.42718e-08 7.61398e-09 0
-8.20554e-08 2.22172e-08 0
-6.2883e-08 3.84182e-08 0
1.54885e-08 3.96588e-08 0
-0.000444445 0.000255762 0
-1.7733e-08 -3.92464e-08 0
-3.36112e-08 -6.22904e-08 0
-1.65443e-08 -2.91882e-08 0
-1.78169e-08 -2.46769e-08 0
-2.82835e-08 1.47338e-09 0
-2.89254e-08 -5.54194e-09 0
-2.18938e-08 -1.8492e-08 0
-2.75645e-08 -1.2469e-08 0
-2.85568e-08 -5.87672e-08 0
-1.52087e-08 -5.38329e-08 0
-2.24914e-08 -1.52443e-08 0
-0.000189447 -0.000455961 0
-5.00091e-08 1.37278e-08 0
-3.46611e-08 5.65274e-09 0
-7.52085e-08 9.31865e-09 0
-2.55279e-08 2.36887e-08 0
4.24719e-08 4.09394e-09 0
-0.00045979 0.000190562 0
-2.51469e-08 -3.71136e-08 0
-2.2363e-08 -2.48285e-08 0
-3.59414e-08 -1.5396e-09 0
-3.38727e-08 -8.72821e-09 0