# vtk DataFile Version 2.0
CellBP Time: 1.72
ASCII
DATASET UNSTRUCTURED_GRID
POINTS 296 double
-9.18574 -3.77557 0
-8.60736 -4.94833 0
-9.6062 -2.53737 0
-9.86117 -1.25483 0
-8.35806 -2.81887 0
-7.88089 -6.03558 0
-7.01873 -7.01872 0
-7.9177 -3.87494 0
-7.34311 -4.86814 0
-6.03562 -7.88093 0
-4.94833 -8.60736 0
-9.94667 0.05 0
-9.86116 1.35483 0
-8.65817 -1.68403 0
-8.78681 -0.529655 0
-7.59019 -2.00427 0
-7.22622 -2.90667 0
-6.63807 -5.77925 0
-5.82279 -6.59733 0
-6.79073 -3.88917 0
-6.22101 -4.67624 0
-3.77562 -9.18584 0
-2.53733 -9.606 0
-4.9068 -7.30929 0
-3.91327 -7.88676 0
-8.79327 0.643435 0
-9.60629 2.63741 0
-8.62379 1.77418 0
-9.18572 3.87557 0
-7.7448 -0.929039 0
-7.79503 0.0802595 0
-6.95302 -1.31596 0
-1.25483 -9.86114 0
-6.44191 -2.15326 0
-6.31981 -3.05633 0
-5.53692 -5.47496 0
-4.79625 -6.11591 0
-5.65942 -3.75726 0
-5.26977 -4.56191 0
-2.86636 -8.3645 0
-1.77868 -8.64083 0
-3.92842 -6.72404 0
-3.05684 -7.15313 0
0.0499994 -9.94679 0
-7.70604 1.14359 0
-8.33912 2.91561 0
-7.55244 2.11211 0
-8.60737 5.04834 0
-7.88059 3.9785 0
-7.88089 6.13559 0
-6.77917 -0.396882 0
-6.95704 0.552581 0
-5.77177 -1.00347 0
-0.590878 -8.81033 0
0.565721 -8.77152 0
-5.30346 -2.48043 0
-4.49229 -5.0961 0
-3.90278 -5.77575 0
-4.4392 -3.805 0
-2.06257 -7.56253 0
-1.13557 -7.78645 0
-2.99477 -6.10252 0
-2.3092 -6.6203 0
1.35483 -9.86119 0
-6.68995 1.42215 0
-7.17274 3.11836 0
-6.65977 2.37319 0
-7.29528 4.98903 0
-6.71862 4.00338 0
-7.01872 7.11873 0
-6.57301 5.89461 0
-6.0356 7.98091 0
-4.45338 -1.18114 0
-5.81499 0.513792 0
-4.65644 -0.0103822 0
0.00852168 -7.84875 0
1.73869 -8.6445 0
0.949042 -7.7641 0
-4.03876 -2.40653 0
-3.48576 -1.39128 0
-3.29473 -4.80567 0
-3.26607 -3.26799 0
-1.37869 -6.676 0
-0.508782 -7.02553 0
-1.97569 -5.53742 0
2.63733 -9.60604 0
-5.50773 2.03707 0
-6.09523 3.07247 0
-6.10565 4.87008 0
-5.76225 3.99184 0
-5.76182 6.71776 0
-5.45266 5.61991 0
-4.94835 8.70739 0
-4.83893 7.40528 0
-3.50171 -0.42433 0
-4.4496 1.24912 0
-3.7117 0.59211 0
-4.06245 2.31997 0
-3.77557 9.28574 0
2.86287 -8.33364 0
0.419726 -6.79606 0
2.02222 -7.52659 0
1.30621 -6.90625 0
-2.44481 -0.873865 0
-2.83856 -2.13127 0
-2.29456 -4.09766 0
-2.3258 -2.97379 0
-0.442421 -5.86165 0
-1.22281 -4.49946 0
3.87558 -9.18576 0
-4.79019 3.39208 0
-5.08845 4.59461 0
-4.64768 6.28212 0
-4.53935 5.3603 0
-3.84414 7.99422 0
-3.82718 6.84649 0
-2.78361 8.42377 0
-1.64915 -0.137908 0
-1.45035 -0.890641 0
-2.48927 0.507287 0
-3.25384 1.44425 0
-3.23927 3.31681 0
-2.91118 2.37193 0
-1.35519 0.627143 0
-2.53733 9.70606 0
3.93313 -7.88785 0
2.96488 -7.15856 0
0.954178 -5.82257 0
2.07457 -6.41623 0
-1.68307 -1.99218 0
-1.43453 -3.278 0
0.0902259 -4.74737 0
-0.566214 -3.69469 0
4.93271 -7.31965 0
5.04835 -8.60739 0
-3.7773 4.55205 0
-3.73518 5.75279 0
-2.88832 7.29075 0
-3.01005 6.35448 0
-1.66275 8.7347 0
-1.94035 7.6203 0
-2.33857 4.05201 0
-0.730774 -1.32733 0
-0.836946 -0.257641 0
-1.93633 1.68088 0
-2.12592 2.87605 0
-1.30667 3.54496 0
-0.869512 1.35091 0
-0.282383 0.456073 0
-0.533584 8.87278 0
-1.25483 9.96116 0
1.11288 -4.575 0
3.91063 -6.71816 0
2.98828 -6.09552 0
2.11808 -5.42554 0
4.78507 -6.20619 0
-0.558888 -2.47698 0
0.495147 -3.4641 0
0.0535556 -1.61058 0
1.48202 -3.68247 0
5.86795 -6.61555 0
6.13563 -7.88095 0
-2.47594 5.34904 0
-2.13072 6.53528 0
-0.904193 7.80436 0
-1.27251 6.93297 0
0.0862155 7.88148 0
-1.14456 4.49512 0
0.150329 -0.617681 0
-0.797481 2.48867 0
-0.331675 3.60102 0
0.0631095 1.51282 0
0.741481 0.473449 0
0.646873 8.87547 0
0.0499981 10.0467 0
2.38125 -4.28568 0
3.8597 -5.64122 0
3.00183 -5.21341 0
5.57461 -5.49266 0
4.69171 -5.28383 0
0.629717 -2.29352 0
1.25628 -2.95146 0
0.757547 -1.39154 0
2.16454 -3.13611 0
2.9941 -3.47696 0
6.15617 -4.79257 0
6.65662 -5.77021 0
7.11874 -7.01875 0
-1.01975 5.82105 0
-0.372671 6.88459 0
1.12281 7.7708 0
0.558059 7.08089 0
-0.000765351 4.72568 0
0.607058 3.82819 0
1.33901 -0.641937 0
0.53914 2.65126 0
0.966151 1.57505 0
1.91034 0.213883 0
1.61489 1.06511 0
2.12977 7.58489 0
1.79951 8.71385 0
1.35482 9.9611 0
3.82334 -4.35219 0
5.11741 -4.44975 0
5.84675 -3.93582 0
3.78447 -3.20146 0
1.81244 -1.88278 0
3.01949 -2.57417 0
6.78463 -3.9486 0
7.38278 -4.89768 0
7.98098 -6.03566 0
0.483425 5.88238 0
1.42842 6.74309 0
2.37478 6.67033 0
1.21013 4.55675 0
1.48834 3.39801 0
2.43604 -0.692088 0
2.82836 0.14262 0
1.78907 2.16306 0
2.61217 1.15027 0
3.07264 7.17156 0
2.90479 8.37846 0
2.63737 9.70616 0
4.91207 -3.32842 0
6.12187 -3.10927 0
4.17346 -2.27557 0
3.24484 -1.50308 0
6.73275 -2.31351 0
7.23362 -3.04319 0
7.96658 -3.91307 0
8.70738 -4.94835 0
2.02396 5.60077 0
3.08716 6.15492 0
2.36426 4.12752 0
2.4204 3.06129 0
3.52616 -0.460918 0
3.61621 0.613373 0
2.96224 2.28839 0
3.54611 1.52549 0
4.01318 5.89959 0
3.98553 6.79499 0
3.97434 7.94077 0
3.87558 9.28577 0
5.56993 -1.91653 0
4.50997 -1.12978 0
6.71566 -1.33644 0
7.59461 -2.03696 0
8.39943 -2.86212 0
9.28574 -3.77557 0
3.41987 4.87808 0
3.3396 3.38598 0
4.69211 0.130099 0
4.52001 1.31021 0
4.06608 2.44426 0
4.57198 5.15405 0
4.84528 6.19282 0
4.98202 7.38278 0
5.04836 8.7074 0
5.88495 -0.435004 0
7.01312 -0.488391 0
7.76211 -1.08563 0
8.68761 -1.74648 0
9.70608 -2.53734 0
4.55368 3.82861 0
5.81939 1.09889 0
5.37279 2.53565 0
5.3821 4.62232 0
5.61431 5.52565 0
5.89935 6.67434 0
6.13561 7.98092 0
6.84862 0.463702 0
7.85636 -0.0256463 0
8.86366 -0.584548 0
9.96125 -1.25484 0
6.96328 1.34998 0
5.72336 3.77995 0
6.54409 2.19837 0
6.38288 3.08927 0
6.29515 4.68899 0
6.69581 5.8402 0
7.11875 7.11875 0
7.78765 0.968013 0
8.86301 0.572976 0
10.0467 0.049998 0
7.61956 2.00517 0
6.83226 3.90602 0
7.27283 2.94811 0
7.38147 4.88784 0
7.98093 6.13562 0
8.72661 1.72762 0
9.96118 1.35483 0
8.42453 2.83896 0
7.98502 3.91796 0
8.70743 5.04836 0
9.70618 2.63736 0
9.28578 3.87558 0
CELLS 542 2168
3 2 0 4
3 0 1 7
3 4 0 7
3 1 5 8
3 7 1 8
3 3 2 13
3 13 2 4
3 11 3 14
3 14 3 13
3 13 4 15
3 4 7 16
3 15 4 16
3 5 6 17
3 8 5 17
3 6 9 18
3 17 6 18
3 7 8 19
3 16 7 19
3 8 17 20
3 19 8 20
3 9 10 23
3 18 9 23
3 10 21 24
3 23 10 24
3 12 11 25
3 25 11 14
3 26 12 27
3 27 12 25
3 14 13 29
3 29 13 15
3 25 14 30
3 30 14 29
3 29 15 31
3 15 16 33
3 31 15 33
3 16 19 34
3 33 16 34
3 17 18 35
3 20 17 35
3 18 23 36
3 35 18 36
3 19 20 37
3 34 19 37
3 20 35 38
3 37 20 38
3 21 22 39
3 24 21 39
3 22 32 40
3 39 22 40
3 23 24 41
3 36 23 41
3 24 39 42
3 41 24 42
3 27 25 44
3 44 25 30
3 28 26 45
3 45 26 27
3 45 27 46
3 46 27 44
3 47 28 48
3 48 28 45
3 30 29 50
3 50 29 31
3 44 30 51
3 51 30 50
3 50 31 52
3 31 33 52
3 32 43 53
3 40 32 53
3 53 43 54
3 33 34 55
3 34 37 55
3 33 55 52
3 35 36 56
3 38 35 56
3 36 41 57
3 56 36 57
3 37 38 58
3 38 56 58
3 37 58 55
3 39 40 59
3 42 39 59
3 40 53 60
3 59 40 60
3 41 42 61
3 57 41 61
3 42 59 62
3 61 42 62
3 43 63 54
3 46 44 64
3 64 44 51
3 48 45 65
3 65 45 46
3 65 46 66
3 66 46 64
3 49 47 67
3 67 47 48
3 67 48 68
3 68 48 65
3 69 49 70
3 70 49 67
3 52 55 72
3 64 51 73
3 51 50 73
3 50 52 73
3 73 52 74
3 74 52 72
3 53 54 75
3 60 53 75
3 54 63 76
3 54 76 77
3 75 54 77
3 55 58 78
3 72 55 78
3 72 78 79
3 56 57 80
3 57 61 80
3 56 80 58
3 58 80 81
3 78 58 81
3 59 60 82
3 62 59 82
3 60 75 83
3 82 60 83
3 61 62 84
3 62 82 84
3 61 84 80
3 63 85 76
3 66 64 86
3 64 73 86
3 68 65 87
3 87 65 66
3 87 66 86
3 70 67 88
3 88 67 68
3 88 68 89
3 89 68 87
3 71 69 90
3 90 69 70
3 90 70 91
3 91 70 88
3 92 71 93
3 93 71 90
3 74 72 94
3 94 72 79
3 86 73 95
3 95 73 74
3 95 74 96
3 96 74 94
3 97 86 95
3 76 85 99
3 75 77 100
3 83 75 100
3 76 99 101
3 77 76 101
3 77 101 102
3 100 77 102
3 94 79 103
3 78 81 104
3 79 78 104
3 79 104 103
3 80 84 105
3 81 80 105
3 81 105 106
3 104 81 106
3 82 83 107
3 83 100 107
3 82 107 84
3 84 107 108
3 105 84 108
3 85 109 99
3 89 87 110
3 87 86 110
3 110 86 97
3 91 88 111
3 111 88 89
3 111 89 110
3 93 90 112
3 112 90 91
3 112 91 113
3 113 91 111
3 98 92 114
3 114 92 93
3 114 93 115
3 115 93 112
3 116 98 114
3 117 103 118
3 96 94 119
3 94 103 119
3 119 103 117
3 97 95 120
3 120 95 96
3 120 96 119
3 121 110 97
3 121 97 122
3 122 97 120
3 123 119 117
3 124 98 116
3 99 109 125
3 99 125 126
3 101 99 126
3 100 102 127
3 100 127 107
3 101 126 128
3 102 101 128
3 102 128 127
3 104 106 129
3 104 129 103
3 103 129 118
3 105 108 130
3 106 105 130
3 106 130 129
3 107 127 131
3 108 107 131
3 108 131 132
3 108 132 130
3 109 134 125
3 125 134 133
3 113 111 135
3 111 110 135
3 135 110 121
3 115 112 136
3 136 112 113
3 136 113 135
3 116 114 137
3 137 114 115
3 137 115 138
3 138 115 136
3 139 124 116
3 139 116 140
3 140 116 137
3 141 135 121
3 118 129 142
3 118 142 143
3 117 118 143
3 123 117 143
3 122 120 144
3 120 119 144
3 144 119 123
3 141 121 145
3 145 121 122
3 145 122 144
3 146 141 145
3 147 144 123
3 147 123 148
3 143 148 123
3 150 124 139
3 149 150 139
3 131 127 151
3 125 133 152
3 126 125 152
3 126 152 153
3 128 126 153
3 128 153 154
3 128 154 127
3 127 154 151
3 152 133 155
3 130 132 156
3 130 156 129
3 129 156 142
3 131 151 157
3 132 131 157
3 132 157 156
3 156 158 142
3 157 151 159
3 133 160 155
3 134 161 133
3 133 161 160
3 138 136 162
3 136 135 162
3 162 135 141
3 140 137 163
3 163 137 138
3 163 138 162
3 149 139 164
3 164 139 140
3 164 140 165
3 165 140 163
3 166 149 164
3 167 162 141
3 167 141 146
3 142 158 168
3 143 142 168
3 143 168 148
3 146 145 169
3 145 144 169
3 169 144 147
3 170 167 146
3 170 146 169
3 171 169 147
3 171 147 148
3 171 148 172
3 168 172 148
3 173 149 166
3 174 150 149
3 173 174 149
3 154 175 151
3 151 175 159
3 152 155 176
3 153 152 176
3 153 176 177
3 153 177 154
3 154 177 175
3 155 160 178
3 155 178 179
3 176 155 179
3 156 157 180
3 156 180 158
3 157 159 181
3 157 181 180
3 158 180 182
3 158 182 168
3 159 175 183
3 159 183 181
3 175 184 183
3 160 186 178
3 178 186 185
3 161 187 160
3 160 187 186
3 165 163 188
3 163 162 188
3 188 162 167
3 166 164 189
3 189 164 165
3 189 165 188
3 190 173 166
3 190 166 191
3 191 166 189
3 192 188 167
3 192 167 170
3 193 192 170
3 182 194 168
3 194 172 168
3 193 170 195
3 170 169 195
3 195 169 171
3 196 195 171
3 196 171 172
3 194 197 172
3 197 198 172
3 198 196 172
3 200 173 190
3 199 200 190
3 201 174 173
3 200 201 173
3 176 179 202
3 177 176 202
3 177 202 175
3 175 202 184
3 178 185 203
3 178 203 179
3 179 203 202
3 203 185 204
3 202 205 184
3 183 206 181
3 180 181 206
3 180 206 182
3 182 206 194
3 183 184 207
3 205 207 184
3 183 207 206
3 185 208 204
3 186 209 185
3 185 209 208
3 187 210 186
3 186 210 209
3 191 189 211
3 189 188 211
3 211 188 192
3 199 190 212
3 212 190 191
3 212 191 211
3 213 199 212
3 214 211 192
3 214 192 193
3 215 214 193
3 215 193 195
3 206 216 194
3 216 197 194
3 216 217 197
3 215 195 218
3 218 195 196
3 198 218 196
3 217 219 197
3 219 218 198
3 197 219 198
3 220 199 213
3 221 200 199
3 220 221 199
3 222 201 200
3 221 222 200
3 203 204 223
3 203 223 202
3 202 223 205
3 204 208 224
3 204 224 223
3 205 223 225
3 205 225 207
3 207 225 226
3 207 226 206
3 226 216 206
3 208 228 224
3 224 228 227
3 209 229 208
3 229 228 208
3 210 230 209
3 209 230 229
3 213 212 231
3 212 211 231
3 231 211 214
3 232 220 213
3 232 213 231
3 233 231 214
3 233 214 215
3 234 233 215
3 234 215 218
3 226 235 216
3 235 217 216
3 235 236 217
3 217 236 219
3 237 234 218
3 237 218 219
3 236 238 219
3 238 237 219
3 240 220 232
3 239 240 232
3 241 221 220
3 240 241 220
3 242 222 221
3 241 242 221
3 224 227 243
3 224 243 223
3 223 243 225
3 225 243 244
3 225 244 226
3 226 244 235
3 227 245 243
3 228 246 227
3 227 246 245
3 229 247 228
3 228 247 246
3 230 248 229
3 229 248 247
3 239 232 249
3 232 231 249
3 249 231 233
3 250 249 233
3 250 233 234
3 237 250 234
3 244 251 235
3 235 251 236
3 251 252 236
3 236 252 238
3 252 253 238
3 253 250 237
3 253 237 238
3 254 239 249
3 255 240 239
3 254 255 239
3 256 241 240
3 255 256 240
3 257 242 241
3 256 257 241
3 245 258 243
3 243 258 244
3 244 258 251
3 245 259 258
3 246 260 245
3 245 260 259
3 247 261 246
3 246 261 260
3 248 262 247
3 247 262 261
3 254 249 263
3 263 249 250
3 253 263 250
3 258 264 251
3 251 264 252
3 264 265 252
3 265 263 253
3 252 265 253
3 266 254 263
3 267 255 254
3 266 267 254
3 268 256 255
3 267 268 255
3 269 257 256
3 268 269 256
3 259 270 258
3 270 264 258
3 260 271 259
3 259 271 270
3 261 272 260
3 260 272 271
3 262 273 261
3 273 272 261
3 270 274 264
3 275 266 263
3 275 263 265
3 274 276 264
3 276 265 264
3 276 277 265
3 277 275 265
3 278 267 266
3 275 278 266
3 279 268 267
3 278 279 267
3 280 269 268
3 279 280 268
3 271 281 270
3 270 281 274
3 272 282 271
3 271 282 281
3 273 283 272
3 272 283 282
3 281 284 274
3 274 284 276
3 285 278 275
3 277 285 275
3 284 286 276
3 286 285 277
3 276 286 277
3 287 279 278
3 285 287 278
3 288 280 279
3 287 288 279
3 282 289 281
3 281 289 284
3 283 290 282
3 282 290 289
3 289 291 284
3 284 291 286
3 291 292 286
3 292 287 285
3 286 292 285
3 293 288 287
3 292 293 287
3 290 294 289
3 289 294 291
3 294 295 291
3 295 293 292
3 291 295 292
CELL_TYPES 542
5
5
5
5
5
5
5
5
5
5
5
5
5
5
5
5
5
5
5
5
5
5
5
5
5
5
5
5
5
5
5
5
5
5
5
5
5
5
5
5
5
5
5
5
5
5
5
5
5
5
5
5
5
5
5
5
5
5
5
5
5
5
5
5
5
5
5
5
5
5
5
5
5
5
5
5
5
5
5
5
5
5
5
5
5
5
5
5
5
5
5
5
5
5
5
5
5
5
5
5
5
5
5
5
5
5
5
5
5
5
5
5
5
5
5
5
5
5
5
5
5
5
5
5
5
5
5
5
5
5
5
5
5
5
5
5
5
5
5
5
5
5
5
5
5
5
5
5
5
5
5
5
5
5
5
5
5
5
5
5
5
5
5
5
5
5
5
5
5
5
5
5
5
5
5
5
5
5
5
5
5
5
5
5
5
5
5
5
5
5
5
5
5
5
5
5
5
5
5
5
5
5
5
5
5
5
5
5
5
5
5
5
5
5
5
5
5
5
5
5
5
5
5
5
5
5
5
5
5
5
5
5
5
5
5
5
5
5
5
5
5
5
5
5
5
5
5
5
5
5
5
5
5
5
5
5
5
5
5
5
5
5
5
5
5
5
5
5
5
5
5
5
5
5
5
5
5
5
5
5
5
5
5
5
5
5
5
5
5
5
5
5
5
5
5
5
5
5
5
5
5
5
5
5
5
5
5
5
5
5
5
5
5
5
5
5
5
5
5
5
5
5
5
5
5
5
5
5
5
5
5
5
5
5
5
5
5
5
5
5
5
5
5
5
5
5
5
5
5
5
5
5
5
5
5
5
5
5
5
5
5
5
5
5
5
5
5
5
5
5
5
5
5
5
5
5
5
5
5
5
5
5
5
5
5
5
5
5
5
5
5
5
5
5
5
5
5
5
5
5
5
5
5
5
5
5
5
5
5
5
5
5
5
5
5
5
5
5
5
5
5
5
5
5
5
5
5
5
5
5
5
5
5
5
5
5
5
5
5
5
5
5
5
5
5
5
5
5
5
5
5
5
5
5
5
5
5
5
5
5
5
5
5
5
5
5
5
5
5
5
5
5
5
5
5
5
5
5
5
5
5
5
5
5
5
5
5
5
5
5
5
5
5
5
5
5
5
5
5
5
5
5
5
5
5
5
5
5
5
5
5
5
5
5
5
5
5
5
5
5
5
5
5
5
5
5
5
5
5
5
5
5
5
5
5
5
5
5
5
5
5
5
POINT_DATA 296
SCALARS concentrations float 4
LOOKUP_TABLE default
0 0.999363 0.205837 14.4217
0 0.999345 0.206151 15.0833
0 0.999346 0.205562 14.9934
0 0.999335 0.204801 15.1522
0 0.99935 0.0909093 0.00960935
0 0.999334 0.205657 15.328
0 0.999333 0.20522 15.3505
0 0.999349 0.0909089 0.00947617
0 0.999336 0.0908895 0.00360355
0 0.999332 0.205131 15.2903
0 0.999331 0.205439 15.334
0 0.999329 0.203867 15.3793
0 0.999332 0.204164 15.2776
0 0.999337 0.0908894 0.00401541
0 0.999333 0.090888 0.00247106
0 0.999339 0.0908903 0.00406203
0 0.99934 0.090891 0.00478755
0 0.999334 0.0908869 0.00235491
0 0.999334 0.0908867 0.00202606
0 0.999338 0.0908902 0.00393289
0 0.999337 0.0908879 0.00239393
0 0.999332 0.206728 15.4228
0 0.999333 0.207747 15.6162
0 0.999334 0.0908866 0.00157351
0 0.999334 0.0908866 0.00146411
0 0.999332 0.0908879 0.00172262
0 0.999332 0.203422 15.1335
0 0.999334 0.0908865 0.00209289
0 0.999331 0.204144 15.2819
0 0.999337 0.0908881 0.00239623
0 0.999337 0.0908874 0.0017188
0 0.99934 0.0908864 0.00193794
0 0.999332 0.205015 15.2693
0 0.999341 0.0908856 0.00195193
0 0.99934 0.0908866 0.00219534
0 0.999337 0.0908875 0.0020455
0 0.999338 0.0908875 0.00200913
0 0.999341 0.0908858 0.00178449
0 0.999341 0.0908865 0.00182687
0 0.999334 0.0908871 0.00192535
0 0.999334 0.090887 0.00222768
0 0.999338 0.0908875 0.00200794
0 0.999338 0.0908875 0.00204907
0 0.999333 0.204272 15.1414
0 0.999337 0.0908877 0.00177138
0 0.999334 0.0908868 0.00162961
0 0.999338 0.0908878 0.00206144
0 0.999322 0.203387 15.4459
0 0.999333 0.0908887 0.00112623
0 0.999305 0.202143 15.7834
0 0.999341 0.0908857 0.00162174
0 0.999341 0.0908863 0.00165804
0 0.999344 0.0908826 0.00113981
0 0.999334 0.0908871 0.00217909
0 0.999334 0.090889 0.00299895
0 0.999344 0.0908826 0.00115241
0 0.999342 0.0908858 0.00174464
0 0.999342 0.0908864 0.0018968
0 0.999344 0.0908828 0.00120538
0 0.999338 0.0908876 0.00207856
0 0.999338 0.0908876 0.00201937
0 0.999342 0.090886 0.00183177
0 0.999341 0.0908866 0.00192075
0 0.999339 0.2028 14.6102
0 0.999342 0.0908856 0.00165152
0 0.999339 0.0908881 0.00209302
0 0.999342 0.0908864 0.0020231
0 0.999321 0.0909095 0.00569285
0 0.999339 0.09089 0.00120056
0 0.999322 0.202795 15.4008
0 0.999321 0.090908 0.00543074
0 0.999331 0.20287 15.1349
0 0.999347 0.0908814 0.000961226
0 0.999345 0.0908826 0.00115149
0 0.999347 0.0908814 0.000960927
0 0.999337 0.090888 0.00195543
0 0.999341 0.0909102 0.00848261
0 0.999335 0.0908902 0.00245049
0 0.999347 0.0908815 0.000982289
0 0.999349 0.0908809 0.000901525
0 0.999345 0.0908829 0.00125269
0 0.999347 0.0908816 0.00102033
0 0.999342 0.0908856 0.00166797
0 0.999341 0.0908861 0.00159568
0 0.999345 0.0908829 0.00125687
0 0.999352 0.202679 15.7113
0 0.999345 0.0908825 0.00126913
0 0.999343 0.0908858 0.00213348
0 0.999338 0.090891 0.000558389
0 0.999343 0.0908866 0.00234807
0 0.999333 0.0908885 0.00109408
0 0.999339 0.09089 0.00128038
0 0.999333 0.202814 15.046
0 0.999335 0.0908864 0.00151824
0 0.999349 0.0908806 0.000827001
0 0.999347 0.0908815 0.000982826
0 0.999349 0.0908808 0.000857883
0 0.999347 0.0908814 0.00102791
0 0.999332 0.203416 15.1283
0 0.999342 0.0909113 0.00870697
0 0.999341 0.090886 0.0013429
0 0.999335 0.090891 0.00273015
0 0.999339 0.0908866 0.00113124
0 0.99935 0.0908796 0.000637795
0 0.999349 0.0908807 0.000856882
0 0.999347 0.0908817 0.00103195
0 0.999349 0.0908811 0.000927484
0 0.999345 0.090883 0.00117379
0 0.999347 0.0908816 0.00100405
0 0.999339 0.202739 14.5827
0 0.999345 0.0908825 0.00151699
0 0.999344 0.090886 0.00226097
0 0.999339 0.0908879 0.00211086
0 0.999343 0.0908869 0.00236163
0 0.999335 0.0908863 0.00172092
0 0.999339 0.0908874 0.00214898
0 0.999334 0.0908863 0.00169169
0 0.999351 0.090879 0.000513215
0 0.999351 0.0908789 0.000512172
0 0.99935 0.0908794 0.000591019
0 0.999349 0.0908806 0.000803929
0 0.999347 0.0908813 0.0010337
0 0.999349 0.0908809 0.0008718
0 0.999351 0.0908785 0.000418968
0 0.999332 0.203132 15.1011
0 0.999335 0.0908895 0.00250232
0 0.999336 0.0908891 0.00237744
0 0.999344 0.0908836 0.00101545
0 0.99934 0.0908861 0.00113461
0 0.99935 0.0908796 0.000641962
0 0.999349 0.0908808 0.000863142
0 0.999347 0.0908816 0.000969849
0 0.999349 0.0908807 0.000857193
0 0.99934 0.0909009 0.00311678
0 0.999335 0.202864 15.2119
0 0.999345 0.0908826 0.00141754
0 0.999343 0.0908859 0.00201309
0 0.999338 0.0908874 0.00204646
0 0.999342 0.0908864 0.00195228
0 0.999333 0.0908864 0.00168276
0 0.999338 0.0908873 0.00190497
0 0.999347 0.0908813 0.000982027
0 0.999351 0.0908785 0.000442284
0 0.999352 0.0908777 0.000272848
0 0.99935 0.0908793 0.000562764
0 0.999349 0.0908806 0.000804464
0 0.999349 0.090881 0.000877484
0 0.999351 0.0908783 0.000395282
0 0.999352 0.0908769 0.00014779
0 0.999332 0.0908877 0.00193432
0 0.999331 0.203822 15.186
0 0.999347 0.0908818 0.000955407
0 0.999339 0.0908885 0.00282995
0 0.99934 0.0908867 0.0016374
0 0.999344 0.0908837 0.00104927
0 0.999341 0.0908891 0.00389637
0 0.99935 0.0908796 0.000646568
0 0.999349 0.0908806 0.000840099
0 0.999351 0.0908786 0.000469203
0 0.999348 0.0908818 0.00102495
0 0.999345 0.0909036 0.00367967
0 0.999343 0.202384 13.6532
0 0.999345 0.0908825 0.00119945
0 0.999342 0.0908857 0.00173299
0 0.999337 0.0908876 0.00166449
0 0.999342 0.0908864 0.00173475
0 0.999335 0.0908885 0.00100851
0 0.999347 0.0908814 0.000967444
0 0.999352 0.090877 0.000164543
0 0.99935 0.0908792 0.000564042
0 0.999349 0.0908808 0.000848179
0 0.999351 0.0908781 0.000369643
0 0.999352 0.0908772 0.000221264
0 0.999328 0.0909026 0.00138601
0 0.999327 0.202569 14.9361
0 0.999346 0.0908821 0.000979248
0 0.999341 0.090886 0.00205239
0 0.999344 0.0908841 0.00127192
0 0.999343 0.0908924 0.00569474
0 0.999341 0.0908862 0.0025543
0 0.999351 0.0908793 0.000604845
0 0.99935 0.0908801 0.00075989
0 0.999351 0.0908785 0.000465991
0 0.999349 0.0908812 0.000903682
0 0.999347 0.0908825 0.00101372
0 0.999344 0.0908924 0.0061622
0 0.999359 0.0909065 0.00948878
0 0.999354 0.20177 14.8828
0 0.999345 0.0908825 0.00114621
0 0.999342 0.0908856 0.00141479
0 0.999337 0.0908899 0.00210022
0 0.999341 0.0908865 0.00150221
0 0.999347 0.0908816 0.000994559
0 0.999349 0.0908812 0.000924891
0 0.999351 0.0908781 0.000399684
0 0.99935 0.0908794 0.000607276
0 0.999351 0.0908785 0.000462438
0 0.999351 0.0908787 0.000501696
0 0.999351 0.0908788 0.000515498
0 0.999342 0.0908899 0.00336371
0 0.999335 0.0909168 0.00322558
0 0.999325 0.202117 17.3042
0 0.999344 0.0908832 0.00111363
0 0.999341 0.0908858 0.00231112
0 0.99934 0.0908871 0.00257483
0 0.999346 0.0908825 0.000911193
0 0.99935 0.0908794 0.000617048
0 0.999349 0.0908812 0.000854259
0 0.999341 0.0908911 0.00527887
0 0.999357 0.0909083 0.0106007
0 0.999374 0.201312 12.5262
0 0.999345 0.0908825 0.00114373
0 0.999343 0.0908859 0.00201632
0 0.999343 0.090887 0.00283594
0 0.999347 0.0908816 0.000990239
0 0.999349 0.0908809 0.000873095
0 0.99935 0.0908796 0.000666337
0 0.99935 0.0908804 0.000789861
0 0.99935 0.0908797 0.000678299
0 0.99935 0.0908801 0.000744238
0 0.999342 0.0908897 0.00375789
0 0.999343 0.0909056 0.00198139
0 0.99934 0.200577 12.4748
0 0.999343 0.0908832 0.000941691
0 0.999341 0.0908856 0.00185215
0 0.999346 0.0908818 0.000829662
0 0.999349 0.0908806 0.000773734
0 0.999341 0.0908863 0.00241068
0 0.99934 0.090889 0.00390702
0 0.999343 0.090894 0.00460309
0 0.999353 0.203791 15.114
0 0.999345 0.0908825 0.00124607
0 0.999343 0.0908861 0.00226593
0 0.999347 0.0908815 0.000941575
0 0.999349 0.0908813 0.000926136
0 0.999349 0.090881 0.000830868
0 0.999349 0.0908812 0.000869014
0 0.999349 0.0908812 0.000888005
0 0.999348 0.0908815 0.000911039
0 0.999341 0.0908868 0.00187178
0 0.999339 0.0908883 0.00285529
0 0.999339 0.0908884 0.0024037
0 0.999341 0.200559 14.9588
0 0.999344 0.0908826 0.000987082
0 0.999347 0.0908814 0.000797269
0 0.999342 0.0908857 0.00249787
0 0.999343 0.0908913 0.00501811
0 0.999344 0.0908951 0.00429367
0 0.999345 0.203794 14.5389
0 0.999344 0.0908826 0.00104073
0 0.999347 0.0908816 0.000866868
0 0.999346 0.0908812 0.000765392
0 0.999346 0.0908814 0.000741879
0 0.999346 0.0908815 0.000769486
0 0.999341 0.0908859 0.0012325
0 0.999337 0.0908879 0.00203664
0 0.999336 0.0908866 0.00237382
0 0.999336 0.201834 14.9171
0 0.999344 0.0908827 0.00109765
0 0.999342 0.0908865 0.00288237
0 0.999344 0.0908911 0.00511968
0 0.999349 0.0909091 0.0049186
0 0.999347 0.202305 14.8002
0 0.999344 0.0908827 0.000694923
0 0.999344 0.0908826 0.000947227
0 0.999344 0.0908826 0.000677176
0 0.999339 0.090887 0.000882469
0 0.999335 0.0908897 0.00181541
0 0.999333 0.090888 0.00216546
0 0.999333 0.202573 14.9109
0 0.999342 0.0908858 0.00228468
0 0.999342 0.09089 0.00451603
0 0.999348 0.0909113 0.00540295
0 0.999354 0.200865 12.8095
0 0.999341 0.0908867 0.0027795
0 0.999339 0.0908862 0.000791186
0 0.999341 0.0908861 0.00220645
0 0.999339 0.0908876 0.00178912
0 0.999334 0.0908937 0.00232897
0 0.999336 0.0909075 0.00663045
0 0.999333 0.201871 14.6745
0 0.999342 0.0908903 0.00463541
0 0.999341 0.0908883 0.00283206
0 0.999343 0.202217 15.087
0 0.999345 0.0908934 0.00585603
0 0.999336 0.0908952 0.00372541
0 0.999342 0.0908954 0.00558033
0 0.999342 0.0909112 0.00844054
0 0.999345 0.199132 15.3336
0 0.999352 0.0909117 0.00602151
0 0.999346 0.202149 15.0696
0 0.999358 0.0909219 0.00775122
0 0.999347 0.0909084 0.00761159
0 0.999349 0.200603 14.479
0 0.999366 0.201233 12.3317
0 0.99936 0.201576 14.2297
VECTORS fa_u float
0.000423935 0.000175689 0
0.000415751 0.000239798 0
0.000460761 0.000123743 0
0.000478053 6.26544e-05 0
2.20135e-07 2.12214e-07 0
0.000387012 0.000296832 0
0.000345618 0.000345156 0
3.0153e-07 7.66976e-10 0
1.12785e-07 2.06742e-08 0
0.000296546 0.000385717 0
0.000244085 0.000422487 0
0.000489367 4.66531e-08 0
0.000482015 -6.31398e-05 0
1.12353e-07 6.08444e-08 0
5.99665e-08 5.08578e-08 0
1.15725e-07 5.75692e-08 0
1.41202e-07 5.71778e-08 0
6.01415e-08 4.46986e-08 0
4.62929e-08 4.48688e-08 0
1.18511e-07 4.02025e-08 0
6.46972e-08 4.02102e-08 0
0.000187577 0.000453488 0
0.000128152 0.000480097 0
3.10429e-08 3.92841e-08 0
1.84168e-08 4.27933e-08 0
4.68532e-08 -2.84485e-08 0
0.000465249 -0.000124215 0
6.50441e-08 -1.42907e-08 0
0.000449291 -0.000185999 0
7.28345e-08 2.25586e-08 0
5.45325e-08 4.17564e-09 0
5.99008e-08 1.46454e-08 0
6.31773e-05 0.000481743 0
5.81756e-08 2.17549e-08 0
6.36227e-08 2.88432e-08 0
4.53681e-08 4.66704e-08 0
3.83983e-08 5.1114e-08 0
4.74514e-08 3.11865e-08 0
4.3155e-08 3.89469e-08 0
1.43595e-08 5.95578e-08 0
2.02542e-08 6.79292e-08 0
3.14122e-08 5.56373e-08 0
2.69318e-08 5.9379e-08 0
-6.34058e-07 0.000481798 0
5.46342e-08 -1.38608e-08 0
4.7998e-08 -1.96222e-08 0
6.0591e-08 -2.51276e-08 0
0.000425936 -0.00024523 0
3.58363e-08 1.07986e-10 0
0.00039839 -0.000305803 0
5.1447e-08 4.01977e-09 0
5.2685e-08 -2.7854e-09 0
3.56265e-08 6.79461e-09 0
8.9562e-09 6.87576e-08 0
-2.27048e-08 9.26861e-08 0
3.31473e-08 1.56816e-08 0
3.6021e-08 4.22414e-08 0
3.32217e-08 5.039e-08 0
2.9191e-08 2.48798e-08 0
2.14521e-08 6.25642e-08 0
1.60287e-08 6.22248e-08 0
2.67811e-08 5.17698e-08 0
2.22803e-08 5.69123e-08 0
-6.30923e-05 0.000460594 0
5.10047e-08 -1.26552e-08 0
5.6326e-08 -3.55372e-08 0
5.68913e-08 -3.01251e-08 0
-3.70434e-08 1.77318e-07 0
3.6053e-08 -1.26312e-08 0
0.000345821 -0.000347218 0
-1.7214e-07 -1.5152e-08 0
0.000292906 -0.000382279 0
2.91955e-08 9.11789e-09 0
3.65253e-08 -2.90278e-09 0
3.05045e-08 2.09911e-09 0
1.00796e-08 6.13997e-08 0
-1.49868e-07 2.24487e-07 0
-7.3318e-09 7.7629e-08 0
2.65542e-08 1.64875e-08 0
2.61716e-08 1.17456e-08 0
2.33386e-08 3.23136e-08 0
2.2752e-08 2.31612e-08 0
1.37019e-08 5.12755e-08 0
9.85839e-09 4.98082e-08 0
1.47828e-08 3.71611e-08 0
-0.000129565 0.000482852 0
3.67788e-08 -1.66779e-08 0
5.56861e-08 -3.88296e-08 0
1.41743e-08 -1.07139e-08 0
5.99354e-08 -4.4611e-08 0
3.75683e-09 -3.46103e-08 0
2.14444e-08 -3.46413e-08 0
0.000239153 -0.000414753 0
2.71891e-08 -3.99328e-08 0
2.57691e-08 5.33256e-09 0
3.04419e-08 -7.16385e-09 0
2.7252e-08 -1.57996e-09 0
2.84782e-08 -1.60877e-08 0
0.000184172 -0.000444756 0
1.1653e-08 2.7681e-07 0
6.93074e-09 4.2165e-08 0
-2.53441e-08 8.30941e-08 0
-1.3669e-09 3.59699e-08 0
1.85964e-08 8.12677e-09 0
2.12696e-08 1.70597e-08 0
1.62506e-08 2.85333e-08 0
1.79106e-08 2.34562e-08 0
6.45221e-09 3.67882e-08 0
8.79886e-09 3.07133e-08 0
-0.000174202 0.000430081 0
3.86363e-08 -2.89359e-08 0
5.57813e-08 -4.54353e-08 0
4.60089e-08 -4.89349e-08 0
5.53441e-08 -5.08339e-08 0
2.73063e-08 -4.74656e-08 0
4.03848e-08 -5.51809e-08 0
2.18275e-08 -4.92053e-08 0
1.60297e-08 3.1199e-09 0
1.32755e-08 9.4531e-09 0
1.87809e-08 -9.75149e-10 0
2.41708e-08 -8.37608e-09 0
2.39505e-08 -2.25451e-08 0
2.24979e-08 -1.62292e-08 0
1.28315e-08 -3.61686e-09 0
0.000124247 -0.000464176 0
-2.6875e-08 7.4951e-08 0
-3.68093e-08 6.60908e-08 0
-2.0749e-09 3.22447e-08 0
-1.59122e-08 3.24076e-08 0
1.25566e-08 1.61122e-08 0
9.95087e-09 2.55991e-08 0
7.63962e-10 3.0851e-08 0
3.5278e-09 2.70467e-08 0
-9.50433e-08 2.83298e-08 0
-0.000239193 0.000420811 0
3.13163e-08 -3.24628e-08 0
4.10449e-08 -4.91785e-08 0
2.77414e-08 -5.89136e-08 0
3.00207e-08 -5.43858e-08 0
1.63568e-08 -5.09858e-08 0
1.97148e-08 -5.73204e-08 0
1.63851e-08 -2.66077e-08 0
6.04844e-09 1.27074e-08 0
7.76427e-09 3.88501e-09 0
1.47894e-08 -1.00964e-08 0
1.60569e-08 -1.99357e-08 0
1.02998e-08 -2.59523e-08 0
7.8396e-09 -9.8358e-09 0
2.76767e-09 -3.802e-09 0
1.52245e-08 -5.96374e-08 0
6.21923e-05 -0.000479197 0
-7.35286e-09 2.94984e-08 0
-6.64672e-08 6.07528e-08 0
-3.15536e-08 4.14608e-08 0
-1.24559e-08 3.09774e-08 0
-8.68334e-08 8.84962e-08 0
3.24755e-09 2.03158e-08 0
-3.55115e-09 2.6495e-08 0
-9.17394e-10 1.49018e-08 0
-1.13428e-08 3.05779e-08 0
-8.95197e-08 7.54688e-08 0
-0.000263824 0.000345162 0
1.64157e-08 -3.44558e-08 0
1.77692e-08 -5.22023e-08 0
1.69344e-08 -5.01837e-08 0
1.27959e-08 -5.3696e-08 0
8.68521e-09 -3.08932e-08 0
7.38194e-09 -2.98858e-08 0
-2.08166e-09 4.80414e-09 0
6.5563e-09 -1.67074e-08 0
3.51319e-09 -2.67594e-08 0
5.11699e-10 -1.17509e-08 0
-5.89162e-09 -3.85471e-09 0
1.65876e-08 -4.08645e-08 0
-1.89305e-06 -0.000475262 0
-1.48383e-08 2.73997e-08 0
-3.80164e-08 5.31015e-08 0
-2.15076e-08 3.42846e-08 0
-1.42098e-07 1.12445e-07 0
-5.1754e-08 6.26706e-08 0
-5.52562e-09 1.84359e-08 0
-1.06848e-08 2.16908e-08 0
-9.01353e-09 1.17737e-08 0
-1.70409e-08 2.31617e-08 0
-2.04189e-08 2.49708e-08 0
-1.44268e-07 1.32795e-07 0
-2.94487e-07 6.66353e-08 0
-0.000336102 0.000333623 0
5.70661e-09 -3.6023e-08 0
5.87915e-09 -4.46331e-08 0
-4.56663e-08 -4.87922e-08 0
-1.0417e-08 -4.66512e-08 0
-4.98578e-11 -3.16467e-08 0
-3.99264e-09 -2.91579e-08 0
-1.1722e-08 4.93361e-09 0
-3.05943e-09 -1.90798e-08 0
-6.58265e-09 -1.31603e-08 0
-1.57782e-08 -2.42785e-09 0
-1.31053e-08 -9.86477e-09 0
-5.89285e-08 -8.93503e-08 0
-1.00574e-07 -2.04789e-08 0
-6.95048e-05 -0.000546213 0
-2.12515e-08 2.83558e-08 0
-5.12935e-08 5.26978e-08 0
-6.20063e-08 5.35526e-08 0
-2.16183e-08 1.93212e-08 0
-1.53967e-08 1.21841e-08 0
-2.18371e-08 1.61872e-08 0
-1.26712e-07 1.10267e-07 0
-1.50701e-07 3.01779e-07 0
-0.000316667 0.000242056 0
-4.63759e-09 -3.60966e-08 0
-2.32343e-08 -5.98043e-08 0
-3.05807e-08 -8.48998e-08 0
-8.09418e-09 -3.04519e-08 0
-1.07336e-08 -2.56246e-08 0
-2.04473e-08 5.60942e-09 0
-2.50439e-08 -2.11842e-09 0
-1.33367e-08 -1.69699e-08 0
-2.12286e-08 -1.04959e-08 0
-2.51171e-08 -1.16908e-07 0
-1.78034e-08 -6.04817e-08 0
-0.000101874 -0.000383653 0
-2.39986e-08 1.79427e-08 0
-5.33408e-08 2.50624e-08 0
-2.38956e-08 1.12227e-08 0
-2.32594e-08 8.07181e-09 0
-7.57594e-08 1.20231e-08 0
-1.1832e-07 3.81584e-08 0
-1.33039e-07 6.12712e-08 0
-0.000416561 0.000240345 0
-1.29864e-08 -3.74628e-08 0
-2.17124e-08 -6.87548e-08 0
-1.40989e-08 -2.64362e-08 0
-1.77886e-08 -2.34952e-08 0
-2.63609e-08 2.01942e-09 0
-2.71442e-08 -5.27493e-09 0
-2.21208e-08 -1.75808e-08 0
-2.64339e-08 -1.19006e-08 0
-2.19754e-08 -5.53575e-08 0
-1.84632e-08 -8.89593e-08 0
-2.3734e-09 -7.64486e-08 0
-0.000183476 -0.000439206 0
-3.03221e-08 8.19067e-09 0
-2.48259e-08 5.22144e-09 0
-7.89421e-08 9.24908e-09 0
-1.59411e-07 9.1965e-09 0
-1.2821e-07 4.72058e-08 0
-0.000426816 0.000178474 0
-1.60907e-08 -2.89439e-08 0
-1.84837e-08 -2.04746e-08 0
-2.43434e-08 -7.41069e-10 0
-2.2557e-08 -6.96072e-09 0