# vtk DataFile Version 2.0
CellBP Time: 3.76
ASCII
DATASET UNSTRUCTURED_GRID
POINTS 296 double
-9.18234 -3.77416 0
-8.60415 -4.94648 0
-9.60265 -2.53642 0
-9.85754 -1.25435 0
-8.35806 -2.81887 0
-7.87802 -6.03338 0
-7.01614 -7.01613 0
-7.9177 -3.87494 0
-7.34311 -4.86814 0
-6.03338 -7.87801 0
-4.9465 -8.60419 0
-9.943 0.0500039 0
-9.85761 1.35436 0
-8.65817 -1.68403 0
-8.78681 -0.529655 0
-7.59019 -2.00427 0
-7.22622 -2.90667 0
-6.63806 -5.77925 0
-5.82279 -6.59733 0
-6.79073 -3.88917 0
-6.22101 -4.67624 0
-3.7742 -9.18241 0
-2.53638 -9.60248 0
-4.9068 -7.30929 0
-3.91327 -7.88676 0
-8.79327 0.643435 0
-9.60275 2.63645 0
-8.62379 1.77418 0
-9.18234 3.87417 0
-7.7448 -0.929039 0
-7.79503 0.0802594 0
-6.95302 -1.31596 0
-1.25435 -9.85752 0
-6.44191 -2.15326 0
-6.31981 -3.05633 0
-5.53692 -5.47495 0
-4.79625 -6.11591 0
-5.65942 -3.75726 0
-5.26977 -4.56191 0
-2.86636 -8.3645 0
-1.77868 -8.64083 0
-3.92842 -6.72404 0
-3.05684 -7.15313 0
0.0500005 -9.94313 0
-7.70604 1.14359 0
-8.33912 2.91561 0
-7.55243 2.11211 0
-8.60422 5.04652 0
-7.88059 3.9785 0
-7.87801 6.13338 0
-6.77917 -0.396882 0
-6.95704 0.552581 0
-5.77177 -1.00347 0
-0.590878 -8.81033 0
0.565721 -8.77152 0
-5.30346 -2.48043 0
-4.49229 -5.0961 0
-3.90278 -5.77575 0
-4.4392 -3.805 0
-2.06257 -7.56253 0
-1.13557 -7.78645 0
-2.99477 -6.10252 0
-2.3092 -6.6203 0
1.35435 -9.85751 0
-6.68995 1.42215 0
-7.17274 3.11836 0
-6.65977 2.37319 0
-7.29528 4.98903 0
-6.71862 4.00338 0
-7.01613 7.11613 0
-6.57301 5.89461 0
-6.03338 7.97802 0
-4.45338 -1.18114 0
-5.81499 0.513792 0
-4.65644 -0.0103822 0
0.00852166 -7.84875 0
1.73869 -8.6445 0
0.949042 -7.7641 0
-4.03876 -2.40653 0
-3.48576 -1.39128 0
-3.29473 -4.80567 0
-3.26607 -3.26799 0
-1.37869 -6.676 0
-0.508782 -7.02553 0
-1.97569 -5.53742 0
2.63638 -9.6025 0
-5.50773 2.03707 0
-6.09523 3.07247 0
-6.10565 4.87008 0
-5.76225 3.99184 0
-5.76182 6.71775 0
-5.45266 5.61991 0
-4.94653 8.70425 0
-4.83893 7.40528 0
-3.50171 -0.42433 0
-4.4496 1.24912 0
-3.7117 0.592109 0
-4.06244 2.31997 0
-3.77418 9.28239 0
2.86286 -8.33364 0
0.419726 -6.79606 0
2.02222 -7.52659 0
1.30621 -6.90625 0
-2.44481 -0.873865 0
-2.83855 -2.13127 0
-2.29456 -4.09766 0
-2.3258 -2.97379 0
-0.442421 -5.86165 0
-1.22281 -4.49946 0
3.87416 -9.18235 0
-4.79019 3.39208 0
-5.08845 4.59461 0
-4.64767 6.28212 0
-4.53935 5.3603 0
-3.84414 7.99422 0
-3.82717 6.84648 0
-2.78361 8.42377 0
-1.64915 -0.137908 0
-1.45035 -0.89064 0
-2.48927 0.507287 0
-3.25384 1.44425 0
-3.23927 3.31681 0
-2.91118 2.37193 0
-1.35519 0.627143 0
-2.53639 9.70254 0
3.93312 -7.88784 0
2.96488 -7.15855 0
0.954178 -5.82257 0
2.07457 -6.41622 0
-1.68307 -1.99218 0
-1.43453 -3.278 0
0.0902259 -4.74737 0
-0.566214 -3.69469 0
4.93271 -7.31964 0
5.04651 -8.60422 0
-3.7773 4.55205 0
-3.73518 5.75279 0
-2.88832 7.29075 0
-3.01005 6.35447 0
-1.66275 8.73469 0
-1.94035 7.6203 0
-2.33857 4.05201 0
-0.730774 -1.32733 0
-0.836946 -0.257641 0
-1.93633 1.68088 0
-2.12592 2.87605 0
-1.30667 3.54496 0
-0.869512 1.35091 0
-0.282383 0.456073 0
-0.533584 8.87278 0
-1.25435 9.95752 0
1.11288 -4.575 0
3.91063 -6.71816 0
2.98828 -6.09552 0
2.11808 -5.42554 0
4.78507 -6.20619 0
-0.558888 -2.47698 0
0.495147 -3.46409 0
0.0535556 -1.61058 0
1.48202 -3.68247 0
5.86795 -6.61555 0
6.13338 -7.87802 0
-2.47594 5.34904 0
-2.13072 6.53528 0
-0.904193 7.80436 0
-1.27251 6.93297 0
0.0862154 7.88148 0
-1.14456 4.49512 0
0.150329 -0.617681 0
-0.797481 2.48867 0
-0.331675 3.60102 0
0.0631095 1.51282 0
0.741481 0.473449 0
0.646873 8.87547 0
0.0500009 10.0431 0
2.38125 -4.28568 0
3.8597 -5.64122 0
3.00183 -5.21341 0
5.57461 -5.49266 0
4.6917 -5.28383 0
0.629717 -2.29352 0
1.25628 -2.95146 0
0.757546 -1.39154 0
2.16454 -3.13611 0
2.9941 -3.47696 0
6.15617 -4.79257 0
6.65662 -5.77021 0
7.11616 -7.01617 0
-1.01975 5.82105 0
-0.372671 6.88459 0
1.12281 7.7708 0
0.558059 7.08089 0
-0.000765343 4.72567 0
0.607058 3.82819 0
1.33901 -0.641937 0
0.53914 2.65126 0
0.966151 1.57505 0
1.91034 0.213883 0
1.61489 1.06511 0
2.12977 7.58489 0
1.79951 8.71385 0
1.35435 9.95752 0
3.82334 -4.35219 0
5.11741 -4.44975 0
5.84675 -3.93582 0
3.78447 -3.20146 0
1.81244 -1.88278 0
3.01949 -2.57417 0
6.78463 -3.9486 0
7.38278 -4.89768 0
7.97794 -6.03333 0
0.483425 5.88238 0
1.42842 6.74309 0
2.37478 6.67033 0
1.21013 4.55675 0
1.48834 3.39801 0
2.43604 -0.692088 0
2.82835 0.14262 0
1.78907 2.16306 0
2.61217 1.15027 0
3.07264 7.17156 0
2.90479 8.37846 0
2.63641 9.70258 0
4.91207 -3.32841 0
6.12187 -3.10927 0
4.17346 -2.27557 0
3.24484 -1.50308 0
6.73275 -2.31351 0
7.23362 -3.04319 0
7.96658 -3.91307 0
8.70425 -4.94653 0
2.02396 5.60077 0
3.08716 6.15492 0
2.36426 4.12752 0
2.4204 3.06129 0
3.52616 -0.460918 0
3.61621 0.613373 0
2.96224 2.28839 0
3.54611 1.52549 0
4.01318 5.89959 0
3.98553 6.79499 0
3.97434 7.94077 0
3.87419 9.2824 0
5.56993 -1.91653 0
4.50997 -1.12978 0
6.71566 -1.33644 0
7.5946 -2.03696 0
8.39943 -2.86212 0
9.28233 -3.77416 0
3.41987 4.87808 0
3.3396 3.38598 0
4.69211 0.130099 0
4.52001 1.31021 0
4.06608 2.44426 0
4.57198 5.15405 0
4.84528 6.19282 0
4.98202 7.38278 0
5.04653 8.70423 0
5.88495 -0.435004 0
7.01312 -0.488391 0
7.76211 -1.08563 0
8.68761 -1.74648 0
9.70253 -2.5364 0
4.55368 3.82861 0
5.81939 1.09889 0
5.37278 2.53565 0
5.3821 4.62232 0
5.61431 5.52565 0
5.89935 6.67434 0
6.13337 7.978 0
6.84862 0.463702 0
7.85636 -0.0256463 0
8.86366 -0.584548 0
9.95756 -1.25435 0
6.96328 1.34998 0
5.72336 3.77995 0
6.54409 2.19837 0
6.38287 3.08927 0
6.29515 4.68899 0
6.69581 5.8402 0
7.11615 7.11614 0
7.78765 0.968013 0
8.86301 0.572976 0
10.043 0.0500012 0
7.61956 2.00517 0
6.83226 3.90602 0
7.27282 2.94811 0
7.38147 4.88784 0
7.97804 6.13339 0
8.72661 1.72762 0
9.95756 1.35435 0
8.42453 2.83896 0
7.98502 3.91796 0
8.70424 5.04652 0
9.70255 2.63639 0
9.28235 3.87416 0
CELLS 542 2168
3 2 0 4
3 0 1 7
3 4 0 7
3 1 5 8
3 7 1 8
3 3 2 13
3 13 2 4
3 11 3 14
3 14 3 13
3 13 4 15
3 4 7 16
3 15 4 16
3 5 6 17
3 8 5 17
3 6 9 18
3 17 6 18
3 7 8 19
3 16 7 19
3 8 17 20
3 19 8 20
3 9 10 23
3 18 9 23
3 10 21 24
3 23 10 24
3 12 11 25
3 25 11 14
3 26 12 27
3 27 12 25
3 14 13 29
3 29 13 15
3 25 14 30
3 30 14 29
3 29 15 31
3 15 16 33
3 31 15 33
3 16 19 34
3 33 16 34
3 17 18 35
3 20 17 35
3 18 23 36
3 35 18 36
3 19 20 37
3 34 19 37
3 20 35 38
3 37 20 38
3 21 22 39
3 24 21 39
3 22 32 40
3 39 22 40
3 23 24 41
3 36 23 41
3 24 39 42
3 41 24 42
3 27 25 44
3 44 25 30
3 28 26 45
3 45 26 27
3 45 27 46
3 46 27 44
3 47 28 48
3 48 28 45
3 30 29 50
3 50 29 31
3 44 30 51
3 51 30 50
3 50 31 52
3 31 33 52
3 32 43 53
3 40 32 53
3 53 43 54
3 33 34 55
3 34 37 55
3 33 55 52
3 35 36 56
3 38 35 56
3 36 41 57
3 56 36 57
3 37 38 58
3 38 56 58
3 37 58 55
3 39 40 59
3 42 39 59
3 40 53 60
3 59 40 60
3 41 42 61
3 57 41 61
3 42 59 62
3 61 42 62
3 43 63 54
3 46 44 64
3 64 44 51
3 48 45 65
3 65 45 46
3 65 46 66
3 66 46 64
3 49 47 67
3 67 47 48
3 67 48 68
3 68 48 65
3 69 49 70
3 70 49 67
3 52 55 72
3 64 51 73
3 51 50 73
3 50 52 73
3 73 52 74
3 74 52 72
3 53 54 75
3 60 53 75
3 54 63 76
3 54 76 77
3 75 54 77
3 55 58 78
3 72 55 78
3 72 78 79
3 56 57 80
3 57 61 80
3 56 80 58
3 58 80 81
3 78 58 81
3 59 60 82
3 62 59 82
3 60 75 83
3 82 60 83
3 61 62 84
3 62 82 84
3 61 84 80
3 63 85 76
3 66 64 86
3 64 73 86
3 68 65 87
3 87 65 66
3 87 66 86
3 70 67 88
3 88 67 68
3 88 68 89
3 89 68 87
3 71 69 90
3 90 69 70
3 90 70 91
3 91 70 88
3 92 71 93
3 93 71 90
3 74 72 94
3 94 72 79
3 86 73 95
3 95 73 74
3 95 74 96
3 96 74 94
3 97 86 95
3 76 85 99
3 75 77 100
3 83 75 100
3 76 99 101
3 77 76 101
3 77 101 102
3 100 77 102
3 94 79 103
3 78 81 104
3 79 78 104
3 79 104 103
3 80 84 105
3 81 80 105
3 81 105 106
3 104 81 106
3 82 83 107
3 83 100 107
3 82 107 84
3 84 107 108
3 105 84 108
3 85 109 99
3 89 87 110
3 87 86 110
3 110 86 97
3 91 88 111
3 111 88 89
3 111 89 110
3 93 90 112
3 112 90 91
3 112 91 113
3 113 91 111
3 98 92 114
3 114 92 93
3 114 93 115
3 115 93 112
3 116 98 114
3 117 103 118
3 96 94 119
3 94 103 119
3 119 103 117
3 97 95 120
3 120 95 96
3 120 96 119
3 121 110 97
3 121 97 122
3 122 97 120
3 123 119 117
3 124 98 116
3 99 109 125
3 99 125 126
3 101 99 126
3 100 102 127
3 100 127 107
3 101 126 128
3 102 101 128
3 102 128 127
3 104 106 129
3 104 129 103
3 103 129 118
3 105 108 130
3 106 105 130
3 106 130 129
3 107 127 131
3 108 107 131
3 108 131 132
3 108 132 130
3 109 134 125
3 125 134 133
3 113 111 135
3 111 110 135
3 135 110 121
3 115 112 136
3 136 112 113
3 136 113 135
3 116 114 137
3 137 114 115
3 137 115 138
3 138 115 136
3 139 124 116
3 139 116 140
3 140 116 137
3 141 135 121
3 118 129 142
3 118 142 143
3 117 118 143
3 123 117 143
3 122 120 144
3 120 119 144
3 144 119 123
3 141 121 145
3 145 121 122
3 145 122 144
3 146 141 145
3 147 144 123
3 147 123 148
3 143 148 123
3 150 124 139
3 149 150 139
3 131 127 151
3 125 133 152
3 126 125 152
3 126 152 153
3 128 126 153
3 128 153 154
3 128 154 127
3 127 154 151
3 152 133 155
3 130 132 156
3 130 156 129
3 129 156 142
3 131 151 157
3 132 131 157
3 132 157 156
3 156 158 142
3 157 151 159
3 133 160 155
3 134 161 133
3 133 161 160
3 138 136 162
3 136 135 162
3 162 135 141
3 140 137 163
3 163 137 138
3 163 138 162
3 149 139 164
3 164 139 140
3 164 140 165
3 165 140 163
3 166 149 164
3 167 162 141
3 167 141 146
3 142 158 168
3 143 142 168
3 143 168 148
3 146 145 169
3 145 144 169
3 169 144 147
3 170 167 146
3 170 146 169
3 171 169 147
3 171 147 148
3 171 148 172
3 168 172 148
3 173 149 166
3 174 150 149
3 173 174 149
3 154 175 151
3 151 175 159
3 152 155 176
3 153 152 176
3 153 176 177
3 153 177 154
3 154 177 175
3 155 160 178
3 155 178 179
3 176 155 179
3 156 157 180
3 156 180 158
3 157 159 181
3 157 181 180
3 158 180 182
3 158 182 168
3 159 175 183
3 159 183 181
3 175 184 183
3 160 186 178
3 178 186 185
3 161 187 160
3 160 187 186
3 165 163 188
3 163 162 188
3 188 162 167
3 166 164 189
3 189 164 165
3 189 165 188
3 190 173 166
3 190 166 191
3 191 166 189
3 192 188 167
3 192 167 170
3 193 192 170
3 182 194 168
3 194 172 168
3 193 170 195
3 170 169 195
3 195 169 171
3 196 195 171
3 196 171 172
3 194 197 172
3 197 198 172
3 198 196 172
3 200 173 190
3 199 200 190
3 201 174 173
3 200 201 173
3 176 179 202
3 177 176 202
3 177 202 175
3 175 202 184
3 178 185 203
3 178 203 179
3 179 203 202
3 203 185 204
3 202 205 184
3 183 206 181
3 180 181 206
3 180 206 182
3 182 206 194
3 183 184 207
3 205 207 184
3 183 207 206
3 185 208 204
3 186 209 185
3 185 209 208
3 187 210 186
3 186 210 209
3 191 189 211
3 189 188 211
3 211 188 192
3 199 190 212
3 212 190 191
3 212 191 211
3 213 199 212
3 214 211 192
3 214 192 193
3 215 214 193
3 215 193 195
3 206 216 194
3 216 197 194
3 216 217 197
3 215 195 218
3 218 195 196
3 198 218 196
3 217 219 197
3 219 218 198
3 197 219 198
3 220 199 213
3 221 200 199
3 220 221 199
3 222 201 200
3 221 222 200
3 203 204 223
3 203 223 202
3 202 223 205
3 204 208 224
3 204 224 223
3 205 223 225
3 205 225 207
3 207 225 226
3 207 226 206
3 226 216 206
3 208 228 224
3 224 228 227
3 209 229 208
3 229 228 208
3 210 230 209
3 209 230 229
3 213 212 231
3 212 211 231
3 231 211 214
3 232 220 213
3 232 213 231
3 233 231 214
3 233 214 215
3 234 233 215
3 234 215 218
3 226 235 216
3 235 217 216
3 235 236 217
3 217 236 219
3 237 234 218
3 237 218 219
3 236 238 219
3 238 237 219
3 240 220 232
3 239 240 232
3 241 221 220
3 240 241 220
3 242 222 221
3 241 242 221
3 224 227 243
3 224 243 223
3 223 243 225
3 225 243 244
3 225 244 226
3 226 244 235
3 227 245 243
3 228 246 227
3 227 246 245
3 229 247 228
3 228 247 246
3 230 248 229
3 229 248 247
3 239 232 249
3 232 231 249
3 249 231 233
3 250 249 233
3 250 233 234
3 237 250 234
3 244 251 235
3 235 251 236
3 251 252 236
3 236 252 238
3 252 253 238
3 253 250 237
3 253 237 238
3 254 239 249
3 255 240 239
3 254 255 239
3 256 241 240
3 255 256 240
3 257 242 241
3 256 257 241
3 245 258 243
3 243 258 244
3 244 258 251
3 245 259 258
3 246 260 245
3 245 260 259
3 247 261 246
3 246 261 260
3 248 262 247
3 247 262 261
3 254 249 263
3 263 249 250
3 253 263 250
3 258 264 251
3 251 264 252
3 264 265 252
3 265 263 253
3 252 265 253
3 266 254 263
3 267 255 254
3 266 267 254
3 268 256 255
3 267 268 255
3 269 257 256
3 268 269 256
3 259 270 258
3 270 264 258
3 260 271 259
3 259 271 270
3 261 272 260
3 260 272 271
3 262 273 261
3 273 272 261
3 270 274 264
3 275 266 263
3 275 263 265
3 274 276 264
3 276 265 264
3 276 277 265
3 277 275 265
3 278 267 266
3 275 278 266
3 279 268 267
3 278 279 267
3 280 269 268
3 279 280 268
3 271 281 270
3 270 281 274
3 272 282 271
3 271 282 281
3 273 283 272
3 272 283 282
3 281 284 274
3 274 284 276
3 285 278 275
3 277 285 275
3 284 286 276
3 286 285 277
3 276 286 277
3 287 279 278
3 285 287 278
3 288 280 279
3 287 288 279
3 282 289 281
3 281 289 284
3 283 290 282
3 282 290 289
3 289 291 284
3 284 291 286
3 291 292 286
3 292 287 285
3 286 292 285
3 293 288 287
3 292 293 287
3 290 294 289
3 289 294 291
3 294 295 291
3 295 293 292
3 291 295 292
CELL_TYPES 542
5
5
5
5
5
5
5
5
5
5
5
5
5
5
5
5
5
5
5
5
5
5
5
5
5
5
5
5
5
5
5
5
5
5
5
5
5
5
5
5
5
5
5
5
5
5
5
5
5
5
5
5
5
5
5
5
5
5
5
5
5
5
5
5
5
5
5
5
5
5
5
5
5
5
5
5
5
5
5
5
5
5
5
5
5
5
5
5
5
5
5
5
5
5
5
5
5
5
5
5
5
5
5
5
5
5
5
5
5
5
5
5
5
5
5
5
5
5
5
5
5
5
5
5
5
5
5
5
5
5
5
5
5
5
5
5
5
5
5
5
5
5
5
5
5
5
5
5
5
5
5
5
5
5
5
5
5
5
5
5
5
5
5
5
5
5
5
5
5
5
5
5
5
5
5
5
5
5
5
5
5
5
5
5
5
5
5
5
5
5
5
5
5
5
5
5
5
5
5
5
5
5
5
5
5
5
5
5
5
5
5
5
5
5
5
5
5
5
5
5
5
5
5
5
5
5
5
5
5
5
5
5
5
5
5
5
5
5
5
5
5
5
5
5
5
5
5
5
5
5
5
5
5
5
5
5
5
5
5
5
5
5
5
5
5
5
5
5
5
5
5
5
5
5
5
5
5
5
5
5
5
5
5
5
5
5
5
5
5
5
5
5
5
5
5
5
5
5
5
5
5
5
5
5
5
5
5
5
5
5
5
5
5
5
5
5
5
5
5
5
5
5
5
5
5
5
5
5
5
5
5
5
5
5
5
5
5
5
5
5
5
5
5
5
5
5
5
5
5
5
5
5
5
5
5
5
5
5
5
5
5
5
5
5
5
5
5
5
5
5
5
5
5
5
5
5
5
5
5
5
5
5
5
5
5
5
5
5
5
5
5
5
5
5
5
5
5
5
5
5
5
5
5
5
5
5
5
5
5
5
5
5
5
5
5
5
5
5
5
5
5
5
5
5
5
5
5
5
5
5
5
5
5
5
5
5
5
5
5
5
5
5
5
5
5
5
5
5
5
5
5
5
5
5
5
5
5
5
5
5
5
5
5
5
5
5
5
5
5
5
5
5
5
5
5
5
5
5
5
5
5
5
5
5
5
5
5
5
5
5
5
5
5
5
5
5
5
5
5
5
5
5
5
5
5
5
5
5
5
5
5
5
5
5
5
5
5
5
5
5
5
5
5
5
5
5
5
5
5
5
5
5
5
5
5
5
5
5
5
5
5
5
POINT_DATA 296
SCALARS concentrations float 4
LOOKUP_TABLE default
0 0.998607 0.227229 15.8484
0 0.998621 0.22624 17.4523
0 0.9986 0.226249 16.1513
0 0.998601 0.225293 15.9577
0 0.998601 0.090887 0.00204101
0 0.998596 0.225082 14.1357
0 0.998574 0.224492 16.2677
0 0.998611 0.0909019 0.00686271
0 0.998613 0.0909205 0.00483748
0 0.998598 0.225603 16.7377
0 0.998593 0.226091 16.0966
0 0.998606 0.224211 16.3743
0 0.998609 0.223167 13.352
0 0.998602 0.0908862 0.00146383
0 0.998606 0.0908877 0.00118037
0 0.998604 0.0908865 0.00161909
0 0.998604 0.0908876 0.00184277
0 0.998594 0.0909261 0.00635512
0 0.998595 0.0909101 0.00534757
0 0.998608 0.0908895 0.00345443
0 0.998612 0.0908929 0.00309982
0 0.998581 0.226904 17.5356
0 0.998615 0.228382 15.4729
0 0.998604 0.090891 0.00274323
0 0.99859 0.0909004 0.00348502
0 0.998612 0.0909127 0.000800276
0 0.998606 0.223626 16.2706
0 0.998612 0.0909126 0.000985019
0 0.998603 0.224534 15.9418
0 0.998607 0.0908868 0.00227978
0 0.998612 0.0908895 0.00322703
0 0.998608 0.0908849 0.0015396
0 0.998613 0.225562 15.7679
0 0.998608 0.0908843 0.00103431
0 0.998608 0.0908852 0.00139437
0 0.998612 0.0908936 0.00250475
0 0.998609 0.0908885 0.0022631
0 0.99861 0.0908849 0.00215545
0 0.998612 0.0908861 0.00313779
0 0.998599 0.0909086 0.00669037
0 0.998615 0.0908977 0.00692526
0 0.998605 0.0908882 0.0016692
0 0.998603 0.0908875 0.00143377
0 0.9986 0.224671 15.7365
0 0.998615 0.0908914 0.00367102
0 0.998607 0.0908875 0.00108681
0 0.998612 0.0908898 0.00332493
0 0.998604 0.22363 15.7529
0 0.998604 0.0908852 0.00186788
0 0.998605 0.223158 15.6472
0 0.99861 0.0908845 0.00198827
0 0.998611 0.0908853 0.00279911
0 0.998611 0.0908817 0.000916309
0 0.998606 0.0908877 0.00314947
0 0.998598 0.0908875 0.00176986
0 0.998611 0.0908818 0.000815544
0 0.998612 0.0908849 0.00264324
0 0.99861 0.0908854 0.00232505
0 0.998612 0.0908819 0.00127502
0 0.998606 0.0908877 0.00288646
0 0.998608 0.0908866 0.00347457
0 0.998609 0.0908848 0.00189353
0 0.998608 0.0908853 0.00207737
0 0.998589 0.222904 16.5697
0 0.998611 0.0908844 0.00240609
0 0.998608 0.0908865 0.00236252
0 0.99861 0.0908852 0.00222293
0 0.998605 0.0908851 0.00246428
0 0.998606 0.0908858 0.00209218
0 0.998604 0.222914 16.136
0 0.998604 0.0908865 0.00258383
0 0.998611 0.222989 15.3851
0 0.998613 0.0908807 0.000721934
0 0.998611 0.0908817 0.0011379
0 0.998613 0.0908807 0.000771973
0 0.998606 0.0908863 0.00202055
0 0.99859 0.0908964 0.00280829
0 0.998604 0.0908866 0.000759584
0 0.998613 0.0908807 0.000729525
0 0.998615 0.0908803 0.000681513
0 0.998612 0.090882 0.00135138
0 0.998613 0.0908808 0.000828759
0 0.998609 0.0908843 0.00197359
0 0.998609 0.0908847 0.0019228
0 0.998611 0.090882 0.00130033
0 0.99858 0.2233 16.4385
0 0.998611 0.0908816 0.00104592
0 0.998609 0.0908843 0.00158685
0 0.998605 0.0908859 0.00194634
0 0.998608 0.0908849 0.00154072
0 0.998605 0.0908879 0.00273636
0 0.998605 0.090886 0.00206366
0 0.998623 0.222693 14.9076
0 0.998616 0.0909001 0.00557885
0 0.998615 0.09088 0.000666355
0 0.998613 0.0908807 0.000805001
0 0.998615 0.0908802 0.000714747
0 0.998613 0.0908806 0.000784786
0 0.998613 0.223181 14.7268
0 0.998591 0.0908956 0.00287719
0 0.998609 0.0908846 0.00157194
0 0.998603 0.0908862 2.02587e-05
0 0.998609 0.090885 0.00141911
0 0.998616 0.0908791 0.0005211
0 0.998615 0.0908801 0.000639974
0 0.998613 0.0908809 0.000890126
0 0.998615 0.0908804 0.000713841
0 0.998611 0.090882 0.00119619
0 0.998613 0.0908808 0.00089707
0 0.998591 0.222896 16.2159
0 0.998611 0.0908816 0.000922997
0 0.998608 0.0908844 0.00135996
0 0.998608 0.0908875 0.00329336
0 0.998608 0.0908852 0.00167302
0 0.998616 0.090905 0.00426244
0 0.998611 0.0908884 0.00410096
0 0.998613 0.0909006 0.0036084
0 0.998617 0.0908785 0.00045795
0 0.998617 0.0908785 0.000437541
0 0.998616 0.0908789 0.000524908
0 0.998615 0.09088 0.000691478
0 0.998613 0.0908806 0.000752452
0 0.998615 0.0908802 0.000740797
0 0.998617 0.0908781 0.000390808
0 0.998617 0.223066 15.321
0 0.998598 0.0908867 0.00112254
0 0.998604 0.0908861 0.000586311
0 0.998612 0.0908825 0.00127261
0 0.998609 0.0908848 0.00141222
0 0.998616 0.0908791 0.000506552
0 0.998615 0.0908801 0.000694059
0 0.998613 0.0908808 0.000895593
0 0.998615 0.09088 0.000708898
0 0.998611 0.0908995 0.00694915
0 0.998603 0.223012 15.8523
0 0.998611 0.0908816 0.000870986
0 0.998609 0.0908845 0.00185204
0 0.998611 0.0908887 0.00416332
0 0.998609 0.090885 0.00239308
0 0.998611 0.0908938 0.00457948
0 0.998609 0.090887 0.0033877
0 0.998613 0.0908806 0.000716871
0 0.998617 0.0908782 0.000369516
0 0.998617 0.0908774 0.000256116
0 0.998616 0.0908788 0.000515317
0 0.998615 0.0908799 0.000682269
0 0.998615 0.0908803 0.000716603
0 0.998617 0.090878 0.000362901
0 0.998617 0.0908768 0.000144124
0 0.998606 0.0908945 0.00168775
0 0.998607 0.2241 16.4248
0 0.998613 0.090881 0.000926731
0 0.998605 0.0908861 0.00205471
0 0.998609 0.0908851 0.00148517
0 0.998612 0.0908826 0.00125112
0 0.998605 0.0908868 0.00291187
0 0.998616 0.0908791 0.00051874
0 0.998615 0.09088 0.000696728
0 0.998617 0.0908783 0.000379825
0 0.998615 0.090881 0.000905388
0 0.998612 0.0909049 0.00820118
0 0.998624 0.222379 15.098
0 0.998611 0.0908816 0.000890731
0 0.998609 0.0908843 0.00192064
0 0.998608 0.0908865 0.00286196
0 0.998608 0.0908849 0.00193233
0 0.998608 0.0908863 0.002473
0 0.998613 0.0908807 0.000718079
0 0.998617 0.0908768 0.000128111
0 0.998616 0.0908788 0.000498124
0 0.998615 0.0908801 0.00069343
0 0.998617 0.0908778 0.000324513
0 0.998617 0.090877 0.00016773
0 0.998605 0.0908927 0.000971401
0 0.998605 0.222362 14.6519
0 0.998613 0.0908813 0.000973149
0 0.998608 0.0908846 0.00140271
0 0.998611 0.090883 0.00120476
0 0.998601 0.0908912 0.00206003
0 0.998607 0.090885 0.00112224
0 0.998616 0.0908788 0.000482467
0 0.998616 0.0908796 0.000626428
0 0.998617 0.0908782 0.000371634
0 0.998615 0.0908805 0.000832094
0 0.998614 0.0908816 0.00105434
0 0.998599 0.0908918 0.00101984
0 0.998593 0.0909105 0.00312981
0 0.998604 0.221781 15.1408
0 0.998611 0.0908816 0.000886754
0 0.998609 0.0908843 0.00165067
0 0.998609 0.0908872 0.00324604
0 0.998609 0.0908849 0.00201132
0 0.998613 0.0908808 0.000753349
0 0.998615 0.0908805 0.000751888
0 0.998617 0.0908778 0.000311797
0 0.998616 0.0908789 0.000519909
0 0.998617 0.0908782 0.000390511
0 0.998617 0.0908783 0.000395062
0 0.998617 0.0908784 0.00041876
0 0.99861 0.0908872 0.00372546
0 0.998613 0.0908992 0.00481766
0 0.998606 0.222877 16.2653
0 0.998611 0.0908822 0.00098276
0 0.998606 0.0908847 0.000741823
0 0.998606 0.090886 0.000851572
0 0.998613 0.0908816 0.00106331
0 0.998616 0.0908789 0.000528363
0 0.998615 0.0908804 0.000875307
0 0.998603 0.09089 0.00198341
0 0.998606 0.0909236 0.00689337
0 0.998596 0.221385 18.1331
0 0.998611 0.0908816 0.000924361
0 0.998609 0.0908843 0.00191539
0 0.998609 0.0908853 0.00229379
0 0.998613 0.0908808 0.000772639
0 0.998615 0.0908802 0.000728537
0 0.998616 0.0908791 0.000566347
0 0.998616 0.0908797 0.000665896
0 0.998616 0.0908792 0.000570818
0 0.998616 0.0908795 0.000618665
0 0.998609 0.0908871 0.0033537
0 0.998615 0.090899 0.00464295
0 0.998621 0.221062 14.3479
0 0.998611 0.0908822 0.000998962
0 0.998608 0.0908844 0.00116848
0 0.998613 0.090881 0.00098741
0 0.998615 0.09088 0.00076501
0 0.998607 0.0908848 0.00130901
0 0.998604 0.0908873 0.00222993
0 0.998613 0.0909042 0.00661428
0 0.998625 0.223081 13.9217
0 0.998611 0.0908816 0.000955695
0 0.998609 0.0908846 0.0018035
0 0.998613 0.0908807 0.000796423
0 0.998615 0.0908806 0.000796966
0 0.998615 0.0908803 0.000789896
0 0.998615 0.0908805 0.000807272
0 0.998615 0.0908804 0.000787521
0 0.998615 0.0908807 0.000847463
0 0.998609 0.0908851 0.00178727
0 0.998607 0.0908862 0.00213009
0 0.998605 0.0908865 0.00191389
0 0.998611 0.220258 15.2222
0 0.998611 0.0908818 0.00101988
0 0.998613 0.0908806 0.000885414
0 0.998608 0.0908843 0.00136277
0 0.998604 0.0908864 0.00191779
0 0.998601 0.0908889 0.00252156
0 0.998607 0.22414 16.2464
0 0.998611 0.0908816 0.00102341
0 0.998613 0.0908808 0.000854188
0 0.998613 0.0908805 0.000819668
0 0.998613 0.0908806 0.000838553
0 0.998613 0.0908807 0.000858349
0 0.998609 0.0908844 0.00163607
0 0.998606 0.0908859 0.00174477
0 0.998601 0.0908847 0.000906655
0 0.998601 0.221787 15.7153
0 0.998611 0.0908818 0.0010251
0 0.998608 0.0908849 0.00162883
0 0.998605 0.0908859 0.002267
0 0.998606 0.0908883 0.00385765
0 0.998605 0.222402 15.8305
0 0.998611 0.0908817 0.0010626
0 0.998611 0.0908817 0.0010024
0 0.998611 0.0908817 0.000985516
0 0.998609 0.090885 0.00170567
0 0.998606 0.0908858 0.00167115
0 0.998601 0.0908861 0.000724652
0 0.998598 0.222662 16.088
0 0.998609 0.0908844 0.00154773
0 0.998606 0.0908857 0.00221042
0 0.998606 0.0908856 0.00296532
0 0.998608 0.221568 15.4049
0 0.998609 0.0908851 0.00153694
0 0.998609 0.0908844 0.00139817
0 0.998609 0.0908844 0.00123744
0 0.998608 0.0908851 0.0012058
0 0.998606 0.090886 0.00162194
0 0.998601 0.0908863 0.000632463
0 0.998599 0.221827 15.4171
0 0.998606 0.0908859 0.00193188
0 0.998605 0.0908849 0.00202198
0 0.998605 0.222287 15.565
0 0.998604 0.0908862 0.00130967
0 0.998604 0.0908861 0.00117304
0 0.998603 0.0908859 0.000799892
0 0.998601 0.0908851 0.00173573
0 0.998599 0.219072 15.6055
0 0.998602 0.0908858 0.00177327
0 0.998603 0.22221 15.6227
0 0.998597 0.0908902 0.00104201
0 0.998598 0.0908907 0.00193233
0 0.998599 0.220422 15.7002
0 0.998597 0.222416 15.7039
0 0.998593 0.22148 16.5712
VECTORS fa_u float
0.000465908 0.000192983 0
0.000483628 0.00027294 0
0.00049611 0.000134168 0
0.000503208 6.79402e-05 0
5.95709e-08 2.58678e-08 0
0.000358931 0.000271084 0
0.000362619 0.000369399 0
1.1878e-07 1.83241e-07 0
1.53797e-07 -6.36346e-09 0
0.000322216 0.000424067 0
0.000257426 0.000442803 0
0.000521013 3.87758e-06 0
0.000421196 -5.56883e-05 0
4.64764e-08 -3.08902e-09 0
2.85129e-08 -2.44483e-08 0
5.13766e-08 -3.8344e-09 0
4.84535e-08 3.30231e-08 0
-6.66314e-08 -1.90927e-07 0
-1.69991e-07 7.55953e-09 0
6.13683e-08 9.11934e-08 0
6.49586e-08 7.42255e-08 0
0.000212957 0.000515744 0
0.000128914 0.00047517 0
8.05463e-08 3.36411e-08 0
5.75636e-08 -9.47825e-08 0
-2.5457e-08 -6.25653e-10 0
0.00049907 -0.000137735 0
-2.88357e-08 1.22841e-08 0
0.000468081 -0.000195498 0
6.96073e-08 -2.04265e-08 0
9.75614e-08 -3.20268e-08 0
4.87359e-08 -4.9824e-09 0
6.89204e-05 0.000496977 0
3.2676e-08 3.93028e-09 0
3.22272e-08 3.04957e-08 0
6.23866e-08 4.95998e-08 0
5.49107e-08 4.65885e-08 0
4.1823e-08 5.43592e-08 0
6.65668e-08 7.44161e-08 0
-1.93422e-07 8.89321e-08 0
9.78515e-08 1.97444e-07 0
4.62199e-08 2.61684e-08 0
2.05595e-09 4.55762e-08 0
4.22394e-07 0.000500735 0
1.15825e-07 -1.51464e-08 0
3.45811e-08 -2.8436e-10 0
1.0573e-07 3.81402e-09 0
0.000433512 -0.000251644 0
5.43504e-08 -2.40549e-08 0
0.000394169 -0.000304183 0
6.25915e-08 -9.2172e-09 0
8.80601e-08 -1.33585e-08 0
2.91506e-08 6.0325e-10 0
5.68543e-08 8.25275e-08 0
5.25024e-08 2.03737e-08 0
2.32481e-08 1.15307e-08 0
5.79445e-08 6.09636e-08 0
4.7554e-08 5.66753e-08 0
2.78414e-08 2.95105e-08 0
1.26023e-09 9.18383e-08 0
3.36099e-08 1.05328e-07 0
2.7928e-08 5.33885e-08 0
1.96574e-08 6.31111e-08 0
-6.80059e-05 0.000522841 0
7.61247e-08 -8.16829e-09 0
7.38767e-08 -1.39124e-08 0
6.95525e-08 -1.28715e-08 0
6.32623e-08 -4.63306e-08 0
6.06743e-08 -2.7397e-08 0
0.000363649 -0.000362471 0
6.767e-08 -4.66954e-08 0
0.000299758 -0.000387048 0
2.25253e-08 4.50762e-09 0
3.5918e-08 -4.57286e-09 0
2.45609e-08 -4.01466e-10 0
1.87782e-08 6.14904e-08 0
6.68821e-08 -5.92616e-08 0
1.38485e-08 1.98092e-08 0
1.99169e-08 1.19239e-08 0
2.04347e-08 7.25903e-09 0
2.37926e-08 3.58186e-08 0
1.74899e-08 1.97366e-08 0
1.61676e-08 6.06827e-08 0
9.30323e-09 6.04719e-08 0
1.48532e-08 3.86184e-08 0
-0.000134697 0.000505431 0
3.16405e-08 -1.032e-08 0
4.6452e-08 -1.97936e-08 0
5.24151e-08 -3.29891e-08 0
4.26927e-08 -2.4101e-08 0
2.62356e-08 -8.30242e-08 0
4.1419e-08 -5.09552e-08 0
0.000239333 -0.000409556 0
1.35233e-08 -1.77003e-07 0
2.10238e-08 2.75336e-09 0
2.48232e-08 -6.31972e-09 0
2.26262e-08 -2.30401e-09 0
2.20509e-08 -1.17196e-08 0
0.000179675 -0.000432791 0
-4.27064e-08 -8.09812e-08 0
-1.73983e-09 4.99889e-08 0
3.45549e-10 -5.44191e-10 0
-8.4659e-09 4.43551e-08 0
1.56009e-08 5.61721e-09 0
1.62673e-08 1.225e-08 0
1.29572e-08 2.51862e-08 0
1.34021e-08 1.83392e-08 0
5.00915e-09 3.77316e-08 0
7.65456e-09 2.74992e-08 0
-0.000198126 0.000476435 0
2.47327e-08 -1.5839e-08 0
3.42262e-08 -2.64802e-08 0
3.69281e-08 -9.80725e-08 0
3.21457e-08 -4.2434e-08 0
1.19879e-07 -6.34391e-08 0
5.53383e-08 -1.18177e-07 0
-1.66618e-08 -1.13604e-07 0
1.43945e-08 2.26672e-09 0
1.17523e-08 7.46458e-09 0
1.66427e-08 -1.41267e-09 0
2.06908e-08 -7.48415e-09 0
1.79915e-08 -1.57979e-08 0
1.93645e-08 -1.3441e-08 0
1.20175e-08 -3.19705e-09 0
0.000124333 -0.000471393 0
-3.52791e-08 5.5897e-09 0
-1.41098e-08 1.22055e-08 0
-6.32823e-09 3.99968e-08 0
-1.25217e-08 4.3157e-08 0
1.03142e-08 1.23863e-08 0
7.95542e-09 2.06023e-08 0
9.98537e-11 2.84975e-08 0
3.23486e-09 2.23239e-08 0
-2.10766e-07 6.68756e-08 0
-0.000252687 0.000436565 0
1.88567e-08 -2.03108e-08 0
2.92555e-08 -5.11574e-08 0
5.80244e-08 -1.19093e-07 0
3.29923e-08 -6.86291e-08 0
9.77681e-08 -1.08052e-07 0
4.29522e-08 -9.88696e-08 0
1.25999e-08 -1.90151e-08 0
5.69748e-09 1.02854e-08 0
7.48383e-09 3.22613e-09 0
1.37611e-08 -8.91657e-09 0
1.43268e-08 -1.63112e-08 0
9.33297e-09 -2.08048e-08 0
7.72566e-09 -8.58245e-09 0
3.22151e-09 -3.26395e-09 0
-3.36986e-09 -5.35982e-08 0
6.91728e-05 -0.000518038 0
-7.70278e-09 2.84647e-08 0
-4.54063e-08 4.70413e-08 0
-1.80367e-08 4.36806e-08 0
-1.26804e-08 3.7737e-08 0
-4.84889e-08 7.8955e-08 0
3.13707e-09 1.62054e-08 0
-2.72975e-09 2.20011e-08 0
2.10136e-11 1.2086e-08 0
-1.09314e-08 2.66549e-08 0
-5.44432e-08 2.55219e-07 0
-0.000293701 0.000380184 0
1.21148e-08 -2.56234e-08 0
2.27374e-08 -5.67274e-08 0
1.57265e-08 -8.9699e-08 0
1.33267e-08 -6.0025e-08 0
-5.58673e-09 -7.84921e-08 0
6.03827e-09 -2.20369e-08 0
-9.1103e-10 3.97337e-09 0
6.57603e-09 -1.44218e-08 0
3.59141e-09 -2.17707e-08 0
1.24272e-09 -1.02509e-08 0
-4.13673e-09 -3.37232e-09 0
9.76028e-09 -2.93285e-08 0
8.91298e-07 -0.000466221 0
-1.68562e-08 2.59756e-08 0
-2.23101e-08 3.86583e-08 0
-1.99096e-08 3.27599e-08 0
-5.09427e-09 6.53517e-08 0
-1.67547e-08 3.15349e-08 0
-3.95692e-09 1.48333e-08 0
-8.95584e-09 1.78077e-08 0
-6.81547e-09 9.6638e-09 0
-1.67711e-08 2.04883e-08 0
-2.37473e-08 2.3698e-08 0
-3.23171e-08 2.94722e-09 0
-1.10031e-08 9.89804e-08 0
-0.000341846 0.000339489 0
4.01802e-09 -2.79289e-08 0
8.64854e-10 -5.25172e-08 0
-3.03774e-08 -9.87209e-08 0
-8.72127e-09 -6.3403e-08 0
3.46051e-11 -2.39715e-08 0
-2.8589e-09 -2.37536e-08 0
-9.03507e-09 4.09889e-09 0
-1.85449e-09 -1.64392e-08 0
-4.79521e-09 -1.14635e-08 0
-1.23867e-08 -2.1437e-09 0
-1.01631e-08 -8.61776e-09 0
-3.82503e-08 -1.12203e-07 0
-1.23058e-07 -9.14158e-08 0
-6.72021e-05 -0.00051318 0
-2.20371e-08 2.2187e-08 0
-1.73338e-08 1.60226e-08 0
-2.64195e-08 6.02106e-09 0
-2.71122e-08 2.0241e-08 0
-1.31681e-08 1.04528e-08 0
-2.27823e-08 1.60223e-08 0
-6.24883e-08 8.8498e-09 0
-2.12979e-07 -5.24652e-08 0
-0.000458813 0.000349876 0
-3.69208e-09 -2.91804e-08 0
-1.44107e-08 -5.92192e-08 0
-2.49593e-08 -6.85879e-08 0
-6.61485e-09 -2.36787e-08 0
-8.54237e-09 -2.15507e-08 0
-1.72627e-08 5.17291e-09 0
-2.11235e-08 -1.6615e-09 0
-1.05223e-08 -1.48051e-08 0
-1.73909e-08 -9.22438e-09 0
-2.29604e-08 -1.04215e-07 0
2.46167e-08 -1.45673e-07 0
-0.000118144 -0.000440997 0
-2.70891e-08 1.66309e-08 0
-3.40697e-08 1.48885e-08 0
-2.78599e-08 1.45258e-08 0
-2.26936e-08 8.80674e-09 0
-3.89923e-08 1.46472e-08 0
-6.15608e-08 3.52852e-08 0
-1.03363e-07 1.83335e-07 0
-0.000381151 0.000225747 0
-1.16237e-08 -2.8101e-08 0
-2.49374e-08 -5.16857e-08 0
-1.29081e-08 -2.18083e-08 0
-1.50163e-08 -2.04355e-08 0
-2.49628e-08 2.9321e-09 0
-2.52674e-08 -4.62549e-09 0
-1.93592e-08 -1.59112e-08 0
-2.45644e-08 -1.1125e-08 0
-3.41215e-08 -4.54974e-08 0
-2.33232e-08 -6.36401e-08 0
1.48181e-08 -5.90695e-08 0
-0.000184759 -0.000447747 0
-2.97728e-08 1.29134e-08 0
-2.70214e-08 7.97533e-09 0
-4.25557e-08 8.32969e-09 0
-6.07224e-08 6.06001e-09 0
-7.93108e-08 -1.21484e-08 0
-0.000478134 0.000196556 0
-2.05491e-08 -2.52628e-08 0
-1.93832e-08 -1.9054e-08 0
-2.608e-08 -3.03258e-10 0