# vtk DataFile Version 2.0
CellBP Time: 3.28
ASCII
DATASET UNSTRUCTURED_GRID
POINTS 296 double
-9.18311 -3.77448 0
-8.6049 -4.94691 0
-9.60346 -2.53663 0
-9.85837 -1.25446 0
-8.35806 -2.81887 0
-7.87869 -6.0339 0
-7.01675 -7.01674 0
-7.9177 -3.87494 0
-7.34311 -4.86814 0
-6.03392 -7.87871 0
-4.94692 -8.60491 0
-9.94386 0.0499981 0
-9.85832 1.35445 0
-8.65817 -1.68403 0
-8.78681 -0.529655 0
-7.59019 -2.00427 0
-7.22622 -2.90667 0
-6.63806 -5.77925 0
-5.82279 -6.59733 0
-6.79073 -3.88917 0
-6.22101 -4.67624 0
-3.77453 -9.18322 0
-2.5366 -9.60329 0
-4.9068 -7.30929 0
-3.91327 -7.88676 0
-8.79327 0.643435 0
-9.60357 2.63668 0
-8.62379 1.77418 0
-9.18312 3.87449 0
-7.7448 -0.929039 0
-7.79503 0.0802595 0
-6.95302 -1.31596 0
-1.25446 -9.85835 0
-6.44191 -2.15326 0
-6.31981 -3.05633 0
-5.53692 -5.47496 0
-4.79625 -6.11591 0
-5.65942 -3.75726 0
-5.26977 -4.56191 0
-2.86636 -8.3645 0
-1.77868 -8.64083 0
-3.92842 -6.72404 0
-3.05684 -7.15313 0
0.0500029 -9.94395 0
-7.70604 1.14359 0
-8.33912 2.91561 0
-7.55243 2.11211 0
-8.60494 5.04694 0
-7.88059 3.9785 0
-7.87867 6.13389 0
-6.77917 -0.396882 0
-6.95704 0.552581 0
-5.77177 -1.00347 0
-0.590878 -8.81033 0
0.565721 -8.77152 0
-5.30346 -2.48043 0
-4.49229 -5.0961 0
-3.90278 -5.77575 0
-4.4392 -3.805 0
-2.06257 -7.56253 0
-1.13557 -7.78645 0
-2.99477 -6.10252 0
-2.3092 -6.6203 0
1.35446 -9.8584 0
-6.68995 1.42215 0
-7.17274 3.11836 0
-6.65977 2.37319 0
-7.29528 4.98903 0
-6.71862 4.00338 0
-7.01676 7.11676 0
-6.57301 5.89461 0
-6.03388 7.97867 0
-4.45338 -1.18114 0
-5.81499 0.513792 0
-4.65644 -0.0103822 0
0.00852164 -7.84875 0
1.73869 -8.6445 0
0.949042 -7.7641 0
-4.03876 -2.40653 0
-3.48576 -1.39128 0
-3.29473 -4.80567 0
-3.26607 -3.26799 0
-1.37869 -6.676 0
-0.508782 -7.02553 0
-1.97569 -5.53742 0
2.6366 -9.60333 0
-5.50773 2.03707 0
-6.09523 3.07247 0
-6.10565 4.87008 0
-5.76225 3.99184 0
-5.76182 6.71776 0
-5.45266 5.61991 0
-4.94694 8.70497 0
-4.83893 7.40528 0
-3.50171 -0.42433 0
-4.4496 1.24912 0
-3.7117 0.59211 0
-4.06245 2.31997 0
-3.77445 9.28305 0
2.86287 -8.33364 0
0.419726 -6.79606 0
2.02222 -7.52659 0
1.30621 -6.90625 0
-2.44481 -0.873865 0
-2.83855 -2.13127 0
-2.29456 -4.09766 0
-2.3258 -2.97379 0
-0.442421 -5.86165 0
-1.22281 -4.49946 0
3.87449 -9.18314 0
-4.79019 3.39208 0
-5.08845 4.59461 0
-4.64767 6.28212 0
-4.53935 5.3603 0
-3.84414 7.99422 0
-3.82718 6.84648 0
-2.78361 8.42377 0
-1.64915 -0.137908 0
-1.45035 -0.890641 0
-2.48927 0.507287 0
-3.25384 1.44425 0
-3.23927 3.31681 0
-2.91118 2.37193 0
-1.35519 0.627143 0
-2.53659 9.70328 0
3.93312 -7.88785 0
2.96488 -7.15855 0
0.954178 -5.82257 0
2.07457 -6.41622 0
-1.68307 -1.99218 0
-1.43453 -3.278 0
0.0902259 -4.74737 0
-0.566214 -3.69469 0
4.93271 -7.31964 0
5.04694 -8.60497 0
-3.7773 4.55205 0
-3.73518 5.75279 0
-2.88832 7.29075 0
-3.01005 6.35447 0
-1.66275 8.73469 0
-1.94035 7.6203 0
-2.33857 4.05201 0
-0.730774 -1.32733 0
-0.836946 -0.257641 0
-1.93633 1.68088 0
-2.12592 2.87605 0
-1.30667 3.54496 0
-0.869512 1.35091 0
-0.282383 0.456073 0
-0.533584 8.87278 0
-1.25446 9.95837 0
1.11288 -4.575 0
3.91063 -6.71816 0
2.98828 -6.09552 0
2.11808 -5.42554 0
4.78507 -6.20619 0
-0.558888 -2.47698 0
0.495147 -3.46409 0
0.0535556 -1.61058 0
1.48202 -3.68247 0
5.86795 -6.61555 0
6.13386 -7.87864 0
-2.47594 5.34904 0
-2.13072 6.53528 0
-0.904193 7.80436 0
-1.27251 6.93297 0
0.0862154 7.88148 0
-1.14456 4.49512 0
0.150329 -0.617681 0
-0.797481 2.48867 0
-0.331675 3.60102 0
0.0631095 1.51282 0
0.741481 0.473449 0
0.646873 8.87547 0
0.0500006 10.0438 0
2.38125 -4.28568 0
3.8597 -5.64122 0
3.00183 -5.21341 0
5.57461 -5.49266 0
4.6917 -5.28383 0
0.629717 -2.29352 0
1.25628 -2.95146 0
0.757546 -1.39154 0
2.16454 -3.13611 0
2.9941 -3.47696 0
6.15617 -4.79257 0
6.65662 -5.77021 0
7.11675 -7.01676 0
-1.01975 5.82105 0
-0.372671 6.88459 0
1.12281 7.7708 0
0.558059 7.08089 0
-0.000765343 4.72567 0
0.607058 3.82819 0
1.33901 -0.641937 0
0.53914 2.65126 0
0.966151 1.57505 0
1.91034 0.213883 0
1.61489 1.06511 0
2.12977 7.58489 0
1.79951 8.71385 0
1.35446 9.95838 0
3.82334 -4.35219 0
5.11741 -4.44975 0
5.84675 -3.93582 0
3.78447 -3.20146 0
1.81244 -1.88278 0
3.01949 -2.57417 0
6.78463 -3.9486 0
7.38278 -4.89768 0
7.97867 -6.03389 0
0.483425 5.88238 0
1.42842 6.74309 0
2.37478 6.67033 0
1.21013 4.55675 0
1.48834 3.39801 0
2.43604 -0.692088 0
2.82835 0.14262 0
1.78907 2.16306 0
2.61217 1.15027 0
3.07264 7.17156 0
2.90479 8.37846 0
2.63662 9.70336 0
4.91207 -3.32841 0
6.12187 -3.10927 0
4.17346 -2.27557 0
3.24484 -1.50308 0
6.73275 -2.31351 0
7.23362 -3.04319 0
7.96658 -3.91307 0
8.70486 -4.94689 0
2.02396 5.60077 0
3.08716 6.15492 0
2.36426 4.12752 0
2.4204 3.06129 0
3.52616 -0.460918 0
3.61621 0.613373 0
2.96224 2.28839 0
3.54611 1.52549 0
4.01318 5.89959 0
3.98553 6.79499 0
3.97434 7.94077 0
3.87451 9.28317 0
5.56993 -1.91653 0
4.50997 -1.12978 0
6.71566 -1.33644 0
7.5946 -2.03696 0
8.39943 -2.86212 0
9.28311 -3.77449 0
3.41987 4.87808 0
3.3396 3.38598 0
4.69211 0.130099 0
4.52001 1.31021 0
4.06608 2.44426 0
4.57198 5.15405 0
4.84528 6.19282 0
4.98202 7.38278 0
5.04695 8.70497 0
5.88495 -0.435004 0
7.01312 -0.488391 0
7.76211 -1.08563 0
8.68761 -1.74648 0
9.70334 -2.53661 0
4.55368 3.82861 0
5.81939 1.09889 0
5.37278 2.53565 0
5.3821 4.62232 0
5.61431 5.52565 0
5.89935 6.67434 0
6.1339 7.97868 0
6.84862 0.463702 0
7.85636 -0.0256463 0
8.86366 -0.584548 0
9.95837 -1.25446 0
6.96328 1.34998 0
5.72336 3.77995 0
6.54409 2.19837 0
6.38288 3.08927 0
6.29515 4.68899 0
6.69581 5.8402 0
7.11673 7.11673 0
7.78765 0.968013 0
8.86301 0.572976 0
10.0439 0.0499988 0
7.61956 2.00517 0
6.83226 3.90602 0
7.27282 2.94811 0
7.38147 4.88784 0
7.9787 6.1339 0
8.72661 1.72762 0
9.95837 1.35446 0
8.42453 2.83896 0
7.98502 3.91796 0
8.70496 5.04694 0
9.70337 2.63661 0
9.28311 3.87447 0
CELLS 542 2168
3 2 0 4
3 0 1 7
3 4 0 7
3 1 5 8
3 7 1 8
3 3 2 13
3 13 2 4
3 11 3 14
3 14 3 13
3 13 4 15
3 4 7 16
3 15 4 16
3 5 6 17
3 8 5 17
3 6 9 18
3 17 6 18
3 7 8 19
3 16 7 19
3 8 17 20
3 19 8 20
3 9 10 23
3 18 9 23
3 10 21 24
3 23 10 24
3 12 11 25
3 25 11 14
3 26 12 27
3 27 12 25
3 14 13 29
3 29 13 15
3 25 14 30
3 30 14 29
3 29 15 31
3 15 16 33
3 31 15 33
3 16 19 34
3 33 16 34
3 17 18 35
3 20 17 35
3 18 23 36
3 35 18 36
3 19 20 37
3 34 19 37
3 20 35 38
3 37 20 38
3 21 22 39
3 24 21 39
3 22 32 40
3 39 22 40
3 23 24 41
3 36 23 41
3 24 39 42
3 41 24 42
3 27 25 44
3 44 25 30
3 28 26 45
3 45 26 27
3 45 27 46
3 46 27 44
3 47 28 48
3 48 28 45
3 30 29 50
3 50 29 31
3 44 30 51
3 51 30 50
3 50 31 52
3 31 33 52
3 32 43 53
3 40 32 53
3 53 43 54
3 33 34 55
3 34 37 55
3 33 55 52
3 35 36 56
3 38 35 56
3 36 41 57
3 56 36 57
3 37 38 58
3 38 56 58
3 37 58 55
3 39 40 59
3 42 39 59
3 40 53 60
3 59 40 60
3 41 42 61
3 57 41 61
3 42 59 62
3 61 42 62
3 43 63 54
3 46 44 64
3 64 44 51
3 48 45 65
3 65 45 46
3 65 46 66
3 66 46 64
3 49 47 67
3 67 47 48
3 67 48 68
3 68 48 65
3 69 49 70
3 70 49 67
3 52 55 72
3 64 51 73
3 51 50 73
3 50 52 73
3 73 52 74
3 74 52 72
3 53 54 75
3 60 53 75
3 54 63 76
3 54 76 77
3 75 54 77
3 55 58 78
3 72 55 78
3 72 78 79
3 56 57 80
3 57 61 80
3 56 80 58
3 58 80 81
3 78 58 81
3 59 60 82
3 62 59 82
3 60 75 83
3 82 60 83
3 61 62 84
3 62 82 84
3 61 84 80
3 63 85 76
3 66 64 86
3 64 73 86
3 68 65 87
3 87 65 66
3 87 66 86
3 70 67 88
3 88 67 68
3 88 68 89
3 89 68 87
3 71 69 90
3 90 69 70
3 90 70 91
3 91 70 88
3 92 71 93
3 93 71 90
3 74 72 94
3 94 72 79
3 86 73 95
3 95 73 74
3 95 74 96
3 96 74 94
3 97 86 95
3 76 85 99
3 75 77 100
3 83 75 100
3 76 99 101
3 77 76 101
3 77 101 102
3 100 77 102
3 94 79 103
3 78 81 104
3 79 78 104
3 79 104 103
3 80 84 105
3 81 80 105
3 81 105 106
3 104 81 106
3 82 83 107
3 83 100 107
3 82 107 84
3 84 107 108
3 105 84 108
3 85 109 99
3 89 87 110
3 87 86 110
3 110 86 97
3 91 88 111
3 111 88 89
3 111 89 110
3 93 90 112
3 112 90 91
3 112 91 113
3 113 91 111
3 98 92 114
3 114 92 93
3 114 93 115
3 115 93 112
3 116 98 114
3 117 103 118
3 96 94 119
3 94 103 119
3 119 103 117
3 97 95 120
3 120 95 96
3 120 96 119
3 121 110 97
3 121 97 122
3 122 97 120
3 123 119 117
3 124 98 116
3 99 109 125
3 99 125 126
3 101 99 126
3 100 102 127
3 100 127 107
3 101 126 128
3 102 101 128
3 102 128 127
3 104 106 129
3 104 129 103
3 103 129 118
3 105 108 130
3 106 105 130
3 106 130 129
3 107 127 131
3 108 107 131
3 108 131 132
3 108 132 130
3 109 134 125
3 125 134 133
3 113 111 135
3 111 110 135
3 135 110 121
3 115 112 136
3 136 112 113
3 136 113 135
3 116 114 137
3 137 114 115
3 137 115 138
3 138 115 136
3 139 124 116
3 139 116 140
3 140 116 137
3 141 135 121
3 118 129 142
3 118 142 143
3 117 118 143
3 123 117 143
3 122 120 144
3 120 119 144
3 144 119 123
3 141 121 145
3 145 121 122
3 145 122 144
3 146 141 145
3 147 144 123
3 147 123 148
3 143 148 123
3 150 124 139
3 149 150 139
3 131 127 151
3 125 133 152
3 126 125 152
3 126 152 153
3 128 126 153
3 128 153 154
3 128 154 127
3 127 154 151
3 152 133 155
3 130 132 156
3 130 156 129
3 129 156 142
3 131 151 157
3 132 131 157
3 132 157 156
3 156 158 142
3 157 151 159
3 133 160 155
3 134 161 133
3 133 161 160
3 138 136 162
3 136 135 162
3 162 135 141
3 140 137 163
3 163 137 138
3 163 138 162
3 149 139 164
3 164 139 140
3 164 140 165
3 165 140 163
3 166 149 164
3 167 162 141
3 167 141 146
3 142 158 168
3 143 142 168
3 143 168 148
3 146 145 169
3 145 144 169
3 169 144 147
3 170 167 146
3 170 146 169
3 171 169 147
3 171 147 148
3 171 148 172
3 168 172 148
3 173 149 166
3 174 150 149
3 173 174 149
3 154 175 151
3 151 175 159
3 152 155 176
3 153 152 176
3 153 176 177
3 153 177 154
3 154 177 175
3 155 160 178
3 155 178 179
3 176 155 179
3 156 157 180
3 156 180 158
3 157 159 181
3 157 181 180
3 158 180 182
3 158 182 168
3 159 175 183
3 159 183 181
3 175 184 183
3 160 186 178
3 178 186 185
3 161 187 160
3 160 187 186
3 165 163 188
3 163 162 188
3 188 162 167
3 166 164 189
3 189 164 165
3 189 165 188
3 190 173 166
3 190 166 191
3 191 166 189
3 192 188 167
3 192 167 170
3 193 192 170
3 182 194 168
3 194 172 168
3 193 170 195
3 170 169 195
3 195 169 171
3 196 195 171
3 196 171 172
3 194 197 172
3 197 198 172
3 198 196 172
3 200 173 190
3 199 200 190
3 201 174 173
3 200 201 173
3 176 179 202
3 177 176 202
3 177 202 175
3 175 202 184
3 178 185 203
3 178 203 179
3 179 203 202
3 203 185 204
3 202 205 184
3 183 206 181
3 180 181 206
3 180 206 182
3 182 206 194
3 183 184 207
3 205 207 184
3 183 207 206
3 185 208 204
3 186 209 185
3 185 209 208
3 187 210 186
3 186 210 209
3 191 189 211
3 189 188 211
3 211 188 192
3 199 190 212
3 212 190 191
3 212 191 211
3 213 199 212
3 214 211 192
3 214 192 193
3 215 214 193
3 215 193 195
3 206 216 194
3 216 197 194
3 216 217 197
3 215 195 218
3 218 195 196
3 198 218 196
3 217 219 197
3 219 218 198
3 197 219 198
3 220 199 213
3 221 200 199
3 220 221 199
3 222 201 200
3 221 222 200
3 203 204 223
3 203 223 202
3 202 223 205
3 204 208 224
3 204 224 223
3 205 223 225
3 205 225 207
3 207 225 226
3 207 226 206
3 226 216 206
3 208 228 224
3 224 228 227
3 209 229 208
3 229 228 208
3 210 230 209
3 209 230 229
3 213 212 231
3 212 211 231
3 231 211 214
3 232 220 213
3 232 213 231
3 233 231 214
3 233 214 215
3 234 233 215
3 234 215 218
3 226 235 216
3 235 217 216
3 235 236 217
3 217 236 219
3 237 234 218
3 237 218 219
3 236 238 219
3 238 237 219
3 240 220 232
3 239 240 232
3 241 221 220
3 240 241 220
3 242 222 221
3 241 242 221
3 224 227 243
3 224 243 223
3 223 243 225
3 225 243 244
3 225 244 226
3 226 244 235
3 227 245 243
3 228 246 227
3 227 246 245
3 229 247 228
3 228 247 246
3 230 248 229
3 229 248 247
3 239 232 249
3 232 231 249
3 249 231 233
3 250 249 233
3 250 233 234
3 237 250 234
3 244 251 235
3 235 251 236
3 251 252 236
3 236 252 238
3 252 253 238
3 253 250 237
3 253 237 238
3 254 239 249
3 255 240 239
3 254 255 239
3 256 241 240
3 255 256 240
3 257 242 241
3 256 257 241
3 245 258 243
3 243 258 244
3 244 258 251
3 245 259 258
3 246 260 245
3 245 260 259
3 247 261 246
3 246 261 260
3 248 262 247
3 247 262 261
3 254 249 263
3 263 249 250
3 253 263 250
3 258 264 251
3 251 264 252
3 264 265 252
3 265 263 253
3 252 265 253
3 266 254 263
3 267 255 254
3 266 267 254
3 268 256 255
3 267 268 255
3 269 257 256
3 268 269 256
3 259 270 258
3 270 264 258
3 260 271 259
3 259 271 270
3 261 272 260
3 260 272 271
3 262 273 261
3 273 272 261
3 270 274 264
3 275 266 263
3 275 263 265
3 274 276 264
3 276 265 264
3 276 277 265
3 277 275 265
3 278 267 266
3 275 278 266
3 279 268 267
3 278 279 267
3 280 269 268
3 279 280 268
3 271 281 270
3 270 281 274
3 272 282 271
3 271 282 281
3 273 283 272
3 272 283 282
3 281 284 274
3 274 284 276
3 285 278 275
3 277 285 275
3 284 286 276
3 286 285 277
3 276 286 277
3 287 279 278
3 285 287 278
3 288 280 279
3 287 288 279
3 282 289 281
3 281 289 284
3 283 290 282
3 282 290 289
3 289 291 284
3 284 291 286
3 291 292 286
3 292 287 285
3 286 292 285
3 293 288 287
3 292 293 287
3 290 294 289
3 289 294 291
3 294 295 291
3 295 293 292
3 291 295 292
CELL_TYPES 542
5
5
5
5
5
5
5
5
5
5
5
5
5
5
5
5
5
5
5
5
5
5
5
5
5
5
5
5
5
5
5
5
5
5
5
5
5
5
5
5
5
5
5
5
5
5
5
5
5
5
5
5
5
5
5
5
5
5
5
5
5
5
5
5
5
5
5
5
5
5
5
5
5
5
5
5
5
5
5
5
5
5
5
5
5
5
5
5
5
5
5
5
5
5
5
5
5
5
5
5
5
5
5
5
5
5
5
5
5
5
5
5
5
5
5
5
5
5
5
5
5
5
5
5
5
5
5
5
5
5
5
5
5
5
5
5
5
5
5
5
5
5
5
5
5
5
5
5
5
5
5
5
5
5
5
5
5
5
5
5
5
5
5
5
5
5
5
5
5
5
5
5
5
5
5
5
5
5
5
5
5
5
5
5
5
5
5
5
5
5
5
5
5
5
5
5
5
5
5
5
5
5
5
5
5
5
5
5
5
5
5
5
5
5
5
5
5
5
5
5
5
5
5
5
5
5
5
5
5
5
5
5
5
5
5
5
5
5
5
5
5
5
5
5
5
5
5
5
5
5
5
5
5
5
5
5
5
5
5
5
5
5
5
5
5
5
5
5
5
5
5
5
5
5
5
5
5
5
5
5
5
5
5
5
5
5
5
5
5
5
5
5
5
5
5
5
5
5
5
5
5
5
5
5
5
5
5
5
5
5
5
5
5
5
5
5
5
5
5
5
5
5
5
5
5
5
5
5
5
5
5
5
5
5
5
5
5
5
5
5
5
5
5
5
5
5
5
5
5
5
5
5
5
5
5
5
5
5
5
5
5
5
5
5
5
5
5
5
5
5
5
5
5
5
5
5
5
5
5
5
5
5
5
5
5
5
5
5
5
5
5
5
5
5
5
5
5
5
5
5
5
5
5
5
5
5
5
5
5
5
5
5
5
5
5
5
5
5
5
5
5
5
5
5
5
5
5
5
5
5
5
5
5
5
5
5
5
5
5
5
5
5
5
5
5
5
5
5
5
5
5
5
5
5
5
5
5
5
5
5
5
5
5
5
5
5
5
5
5
5
5
5
5
5
5
5
5
5
5
5
5
5
5
5
5
5
5
5
5
5
5
5
5
5
5
5
5
5
5
5
5
5
5
5
5
5
5
5
5
5
5
5
5
5
5
5
5
5
5
5
5
5
5
5
5
5
5
5
5
5
5
5
5
5
5
5
5
5
5
5
5
5
POINT_DATA 296
SCALARS concentrations float 4
LOOKUP_TABLE default
0 0.998775 0.227456 16.0623
0 0.998774 0.227114 16.5227
0 0.998771 0.22647 16.1876
0 0.998764 0.225467 16.1163
0 0.998775 0.0908864 0.00278983
0 0.99878 0.22571 14.1893
0 0.998787 0.22595 15.6547
0 0.998775 0.0908865 0.00210698
0 0.998779 0.0909056 0.00197293
0 0.998798 0.22523 15.6498
0 0.998772 0.226258 16.4273
0 0.99876 0.224479 15.9779
0 0.998749 0.224282 17.286
0 0.99877 0.0908878 0.00146876
0 0.998767 0.0908866 7.03849e-05
0 0.998775 0.0908863 0.00197372
0 0.998776 0.0908861 0.00238808
0 0.998782 0.0909091 0.00251797
0 0.998788 0.0909041 0.00757636
0 0.998778 0.0908876 0.00328341
0 0.99878 0.0908889 0.00379976
0 0.998769 0.227805 16.43
0 0.998783 0.228869 15.6673
0 0.99878 0.0909042 0.00859444
0 0.998766 0.0908908 0.00153523
0 0.99876 0.0908978 0.00287004
0 0.998764 0.223909 15.9165
0 0.998761 0.0908967 0.00308501
0 0.998769 0.224754 16.0049
0 0.998775 0.0908863 0.00153178
0 0.998774 0.0908863 0.000799081
0 0.998778 0.0908848 0.00168861
0 0.998774 0.225783 15.9671
0 0.998778 0.0908842 0.00156846
0 0.998778 0.0908849 0.00205485
0 0.998778 0.0908901 0.00415919
0 0.998774 0.0908891 0.00323165
0 0.998779 0.0908844 0.00212994
0 0.998778 0.0908852 0.00243031
0 0.998775 0.0908936 0.00452591
0 0.998779 0.0908917 0.00472849
0 0.99877 0.0908877 0.00166242
0 0.998771 0.0908865 0.00165544
0 0.998766 0.224793 16.3241
0 0.998772 0.0908862 0.000408844
0 0.998771 0.0908853 0.0014705
0 0.998774 0.0908866 0.00116058
0 0.998768 0.223831 15.9456
0 0.998771 0.090885 0.000993324
0 0.998772 0.223347 15.9133
0 0.998779 0.0908843 0.00159922
0 0.998778 0.0908849 0.00154009
0 0.99878 0.0908816 0.00105076
0 0.99877 0.0908874 0.001545
0 0.998773 0.0908934 0.00245283
0 0.99878 0.0908817 0.00103232
0 0.998777 0.0908846 0.00154975
0 0.998775 0.0908852 0.000964958
0 0.99878 0.0908818 0.00099822
0 0.998775 0.0908862 0.00247205
0 0.998775 0.0908861 0.00228965
0 0.998776 0.0908846 0.000922749
0 0.998776 0.0908852 0.00136478
0 0.998775 0.223017 15.0722
0 0.998779 0.0908842 0.00146326
0 0.998775 0.0908861 0.00179472
0 0.998778 0.0908849 0.0016673
0 0.998772 0.0908856 0.00118189
0 0.998775 0.0908858 0.00195253
0 0.998779 0.222891 14.7181
0 0.998777 0.0908933 0.00225603
0 0.998771 0.22323 16.1421
0 0.998782 0.0908806 0.000795319
0 0.998781 0.0908816 0.00113414
0 0.998782 0.0908806 0.000840608
0 0.998775 0.0908864 0.00206468
0 0.998774 0.0908923 0.00253614
0 0.998776 0.0908862 0.0022815
0 0.998782 0.0908807 0.000769423
0 0.998783 0.0908802 0.000715739
0 0.998779 0.0908819 0.000766154
0 0.998782 0.0908808 0.000772921
0 0.998778 0.0908842 0.0014688
0 0.998778 0.0908846 0.00167167
0 0.99878 0.090882 0.000907502
0 0.998769 0.223739 16.0633
0 0.99878 0.0908816 0.0010723
0 0.998778 0.0908843 0.00164807
0 0.998777 0.0908862 0.00272537
0 0.998778 0.0908849 0.00198625
0 0.998777 0.0908932 0.00252819
0 0.998778 0.0908861 0.00290477
0 0.998754 0.223165 15.4597
0 0.998767 0.0908878 0.00322391
0 0.998784 0.0908799 0.000674439
0 0.998782 0.0908807 0.000862672
0 0.998784 0.0908801 0.000724875
0 0.998782 0.0908806 0.000840424
0 0.998738 0.222999 18.8689
0 0.99877 0.0908851 0.000974615
0 0.998778 0.0908845 0.00171641
0 0.998776 0.0908859 0.002113
0 0.998778 0.090885 0.00189948
0 0.998785 0.090879 0.000527397
0 0.998784 0.09088 0.000693096
0 0.998782 0.0908809 0.000796232
0 0.998784 0.0908804 0.000767285
0 0.99878 0.090882 0.00106069
0 0.998782 0.0908808 0.000831459
0 0.998771 0.223115 15.8422
0 0.99878 0.0908816 0.00109276
0 0.998779 0.0908844 0.00201869
0 0.998776 0.0908867 0.00225081
0 0.998779 0.0908852 0.002103
0 0.998748 0.0908987 0.00411336
0 0.998768 0.0908881 0.00303163
0 0.998746 0.0909094 0.00192171
0 0.998786 0.0908785 0.000440138
0 0.998786 0.0908785 0.000442639
0 0.998785 0.0908789 0.000499111
0 0.998784 0.0908799 0.000690497
0 0.998782 0.0908806 0.00088389
0 0.998783 0.0908802 0.000762025
0 0.998786 0.0908781 0.000367581
0 0.998751 0.222741 17.7882
0 0.998773 0.0908851 0.0025604
0 0.998774 0.0908853 0.00170396
0 0.99878 0.0908825 0.00118747
0 0.998778 0.0908847 0.00164589
0 0.998785 0.0908791 0.00055129
0 0.998784 0.0908801 0.000730607
0 0.998782 0.0908808 0.000850232
0 0.998784 0.09088 0.000720047
0 0.998771 0.0908934 0.00314682
0 0.998773 0.223261 15.4478
0 0.998781 0.0908817 0.00113915
0 0.998778 0.0908848 0.00112441
0 0.99876 0.0908913 0.00450748
0 0.998776 0.0908858 0.00110645
0 0.998753 0.0909032 0.000576129
0 0.99876 0.0908925 0.0044692
0 0.998782 0.0908806 0.000958994
0 0.998786 0.0908782 0.000384675
0 0.998786 0.0908774 0.000243476
0 0.998785 0.0908788 0.000504953
0 0.998784 0.0908799 0.000765058
0 0.998784 0.0908803 0.000919947
0 0.998786 0.090878 0.000357504
0 0.998786 0.0908768 0.000134053
0 0.998758 0.0909026 0.00276131
0 0.998754 0.224379 15.7208
0 0.998782 0.090881 0.000874211
0 0.998773 0.0908855 0.00153058
0 0.998777 0.090885 0.00145073
0 0.99878 0.0908826 0.00114998
0 0.998772 0.0908859 0.00113661
0 0.998785 0.0908791 0.000548248
0 0.998784 0.09088 0.000702282
0 0.998786 0.0908783 0.000396744
0 0.998783 0.090881 0.000891914
0 0.998768 0.0908946 0.0021504
0 0.998768 0.222958 16.8822
0 0.998781 0.0908817 0.000816232
0 0.998776 0.0908853 0.00113961
0 0.998762 0.0908918 0.00331361
0 0.998774 0.0908865 0.0016697
0 0.998765 0.09089 0.00221128
0 0.998783 0.0908807 0.00100348
0 0.998786 0.0908768 0.000136654
0 0.998785 0.0908788 0.000546808
0 0.998784 0.0908801 0.000898985
0 0.998786 0.0908778 0.000330612
0 0.998786 0.090877 0.000171001
0 0.998762 0.0908999 0.00185533
0 0.998763 0.222073 17.9256
0 0.998782 0.0908812 0.00094697
0 0.998777 0.0908845 0.00114387
0 0.99878 0.0908829 0.00114709
0 0.998772 0.0908867 0.00078651
0 0.998777 0.0908846 0.00103241
0 0.998785 0.0908788 0.000499561
0 0.998785 0.0908796 0.000633589
0 0.998786 0.0908782 0.000379288
0 0.998784 0.0908805 0.000809896
0 0.998782 0.0908816 0.00104696
0 0.998769 0.0908881 0.000993852
0 0.998766 0.090886 0.00168592
0 0.998767 0.222009 15.4815
0 0.998781 0.0908818 0.000629706
0 0.998776 0.090885 0.000635094
0 0.998769 0.0908876 0.00137582
0 0.998776 0.0908854 0.000486388
0 0.998782 0.0908808 0.00101008
0 0.998784 0.0908805 0.000950985
0 0.998786 0.0908778 0.000314166
0 0.998785 0.0908789 0.000574793
0 0.998786 0.0908782 0.000395021
0 0.998786 0.0908783 0.000393708
0 0.998786 0.0908784 0.000417876
0 0.998773 0.0908862 0.00141227
0 0.998766 0.0908871 0.00226393
0 0.998762 0.223199 15.725
0 0.99878 0.0908822 0.00107487
0 0.998778 0.0908844 0.000985513
0 0.998777 0.0908853 0.000656704
0 0.998782 0.0908816 0.00108589
0 0.998785 0.0908789 0.000513249
0 0.998784 0.0908804 0.000829409
0 0.998767 0.0908898 0.00132024
0 0.998752 0.0909092 0.00391144
0 0.998756 0.222587 15.9045
0 0.998781 0.0908817 0.000810052
0 0.998777 0.0908844 0.000844584
0 0.998777 0.0908854 0.00144062
0 0.998782 0.0908808 0.000963557
0 0.998784 0.0908803 0.000836688
0 0.998785 0.0908791 0.000544843
0 0.998785 0.0908798 0.000653497
0 0.998785 0.0908792 0.000588797
0 0.998785 0.0908795 0.000622278
0 0.998774 0.090886 0.00198896
0 0.998772 0.0908849 0.00226909
0 0.998769 0.221687 15.6085
0 0.998781 0.0908822 0.00115954
0 0.998778 0.0908844 0.000930472
0 0.998782 0.090881 0.00101031
0 0.998784 0.09088 0.000728486
0 0.998779 0.090885 0.00133875
0 0.998771 0.0908903 0.001216
0 0.998754 0.090913 0.00445716
0 0.998739 0.223296 18.5834
0 0.99878 0.0908816 0.00097101
0 0.998778 0.0908846 0.00143853
0 0.998782 0.0908807 0.000891799
0 0.998783 0.0908806 0.000859605
0 0.998784 0.0908803 0.000778006
0 0.998784 0.0908805 0.000825404
0 0.998784 0.0908804 0.000821629
0 0.998783 0.0908807 0.000884886
0 0.998777 0.090885 0.0014537
0 0.998774 0.090886 0.0021907
0 0.998774 0.0908847 0.00281884
0 0.998773 0.22053 15.5411
0 0.998781 0.0908817 0.00122055
0 0.998782 0.0908806 0.000927025
0 0.99878 0.0908844 0.00161926
0 0.998774 0.0908881 0.000284083
0 0.998761 0.0908965 0.00264259
0 0.998756 0.224415 16.1709
0 0.99878 0.0908816 0.000931863
0 0.998782 0.0908808 0.000891421
0 0.998782 0.0908805 0.000879474
0 0.998782 0.0908807 0.000897844
0 0.998782 0.0908808 0.000902574
0 0.998777 0.0908844 0.00120834
0 0.998774 0.0908859 0.00214661
0 0.998775 0.0908857 0.00323754
0 0.998776 0.222021 15.5259
0 0.998781 0.0908818 0.00123777
0 0.998779 0.090885 0.00163579
0 0.998774 0.0908872 0.00038005
0 0.998759 0.0909006 0.00397937
0 0.998749 0.222196 16.0774
0 0.99878 0.0908818 0.000966635
0 0.998781 0.0908817 0.00105399
0 0.998781 0.0908817 0.000968356
0 0.998777 0.0908851 0.000994546
0 0.998772 0.0908864 0.00144674
0 0.998775 0.0908897 0.00409071
0 0.998777 0.222886 15.5261
0 0.998779 0.0908845 0.001449
0 0.998774 0.0908859 0.000786242
0 0.998765 0.0908875 0.000918909
0 0.998755 0.221755 16.3849
0 0.998777 0.0908852 0.00118404
0 0.998777 0.0908845 0.00078128
0 0.998777 0.0908845 0.00084297
0 0.998776 0.0908852 0.000497126
0 0.99877 0.0908878 0.000664071
0 0.998767 0.0908954 0.00363388
0 0.998775 0.221997 15.8701
0 0.998773 0.0908861 0.000887639
0 0.998766 0.0908866 0.000176128
0 0.998761 0.222505 16.0369
0 0.998771 0.0908871 0.000727802
0 0.998768 0.0908895 0.00079687
0 0.998768 0.0908887 0.000604148
0 0.998757 0.0908952 0.000819689
0 0.998758 0.21923 16.0233
0 0.998766 0.0908857 0.000951774
0 0.998763 0.22241 16.2197
0 0.998762 0.0908996 0.00190259
0 0.998758 0.090905 0.00136348
0 0.998753 0.220594 16.1542
0 0.998763 0.222646 15.6091
0 0.998757 0.221366 17.4648
VECTORS fa_u float
0.000472789 0.000194156 0
0.000458029 0.000258115 0
0.000497073 0.000135031 0
0.000508351 6.75592e-05 0
7.46151e-08 4.80945e-08 0
0.000359 0.000273815 0
0.000350242 0.00035421 0
6.18394e-08 2.58994e-08 0
1.57794e-08 6.07629e-08 0
0.000303075 0.000395127 0
0.000261983 0.000452325 0
0.000508412 -1.87043e-06 0
0.000545272 -7.2251e-05 0
2.08332e-08 4.18354e-08 0
-1.47813e-09 -1.6826e-09 0
5.90875e-08 2.12828e-08 0
6.56419e-08 3.82804e-08 0
5.82585e-08 5.50039e-08 0
1.0525e-07 2.16891e-07 0
7.50407e-08 7.26945e-08 0
9.43949e-08 7.55538e-08 0
0.000199854 0.000483092 0
0.000130192 0.000481232 0
2.56717e-07 9.42573e-08 0
1.57983e-08 4.62256e-08 0
-5.02302e-08 7.62696e-08 0
0.000489378 -0.000130427 0
-4.98153e-08 -8.45858e-08 0
0.000470892 -0.00019396 0
4.8409e-08 5.67956e-09 0
2.24232e-08 1.19882e-08 0
5.35065e-08 4.91028e-09 0
6.87635e-05 0.000503398 0
4.71994e-08 1.62188e-08 0
5.49906e-08 3.5373e-08 0
1.09333e-07 7.45756e-08 0
8.66278e-08 5.54062e-08 0
5.45789e-08 4.01814e-08 0
6.49709e-08 4.19409e-08 0
-4.47864e-08 1.36873e-07 0
7.66292e-08 1.29484e-07 0
3.86019e-08 3.61678e-08 0
-8.41623e-09 5.19992e-08 0
2.78199e-06 0.000519425 0
1.28757e-08 -1.86021e-09 0
4.14675e-08 -2.16762e-08 0
2.86494e-08 -2.33025e-08 0
0.00043993 -0.00025279 0
2.87333e-08 -1.31692e-08 0
0.000402513 -0.000307219 0
5.08852e-08 -4.31952e-10 0
4.89956e-08 -9.80641e-10 0
3.32624e-08 3.39351e-09 0
4.29059e-08 2.39989e-08 0
-7.1428e-08 3.14592e-08 0
2.97516e-08 1.3923e-08 0
4.08208e-08 2.76664e-08 0
2.09674e-08 2.24312e-08 0
2.55156e-08 1.89173e-08 0
4.75992e-09 7.85163e-08 0
1.64305e-08 7.09797e-08 0
6.46312e-09 2.86416e-08 0
4.00839e-09 4.32417e-08 0
-6.2028e-05 0.000475569 0
4.58659e-08 -8.01321e-09 0
5.10682e-08 -2.5561e-08 0
5.00019e-08 -1.7733e-08 0
1.22624e-08 -3.55523e-08 0
4.91963e-08 -3.79446e-08 0
0.000330153 -0.000332161 0
2.04761e-08 -6.88044e-08 0
0.000311554 -0.000408363 0
2.44129e-08 6.66744e-09 0
3.59057e-08 -3.62637e-09 0
2.67472e-08 2.23683e-10 0
-1.17202e-08 6.46441e-08 0
4.39438e-08 6.7686e-08 0
-1.2354e-08 7.15382e-08 0
2.07077e-08 1.30617e-08 0
2.06911e-08 9.5168e-09 0
1.3966e-08 1.99821e-08 0
1.67257e-08 1.80314e-08 0
6.49937e-09 4.62829e-08 0
1.9396e-10 5.3192e-08 0
8.3071e-09 2.7656e-08 0
-0.000134738 0.000493053 0
3.22394e-08 -1.11724e-08 0
4.64841e-08 -2.42761e-08 0
5.50038e-08 -6.70458e-08 0
4.90441e-08 -3.98648e-08 0
7.92692e-08 -1.37143e-08 0
6.78842e-08 -6.27294e-08 0
0.000245963 -0.000426023 0
8.75557e-08 5.34566e-08 0
2.11059e-08 3.88597e-09 0
2.66557e-08 -6.55619e-09 0
2.29593e-08 -2.21084e-09 0
2.32021e-08 -1.3297e-08 0
0.000228727 -0.000555132 0
-1.97891e-08 2.38777e-08 0
-6.20969e-09 5.4262e-08 0
-5.1884e-09 6.7035e-08 0
-1.06444e-08 5.94968e-08 0
1.53001e-08 6.89444e-09 0
1.67301e-08 1.43699e-08 0
1.19201e-08 2.23568e-08 0
1.43745e-08 1.97348e-08 0
2.99414e-09 3.36181e-08 0
7.43319e-09 2.53913e-08 0
-0.000195107 0.00046481 0
2.72067e-08 -2.16529e-08 0
4.46783e-08 -4.61513e-08 0
7.03294e-08 -1.35389e-08 0
4.72243e-08 -4.74109e-08 0
7.83149e-08 1.04872e-07 0
4.54451e-08 8.50908e-08 0
-5.78955e-08 -1.9679e-08 0
1.37491e-08 2.6655e-09 0
1.14254e-08 8.23647e-09 0
1.58377e-08 -1.18022e-09 0
2.05354e-08 -7.81333e-09 0
1.82403e-08 -2.14085e-08 0
1.89438e-08 -1.51352e-08 0
1.12414e-08 -3.23062e-09 0
0.000146984 -0.000546601 0
-4.40333e-08 6.8547e-08 0
-1.43561e-08 5.22847e-08 0
-5.56013e-09 3.73738e-08 0
-1.36131e-08 5.0572e-08 0
1.07387e-08 1.38709e-08 0
8.87155e-09 2.14886e-08 0
4.96181e-10 2.70498e-08 0
3.75132e-09 2.26027e-08 0
-2.68821e-08 9.64555e-08 0
-0.000247963 0.000424423 0
2.10328e-08 -2.95216e-08 0
3.09386e-08 -1.79699e-08 0
-9.93464e-09 1.43083e-07 0
1.31197e-08 3.26712e-08 0
1.02312e-08 -1.52118e-08 0
-5.62539e-08 1.3061e-07 0
1.27351e-08 -2.77307e-08 0
5.53453e-09 1.09176e-08 0
6.95221e-09 3.41886e-09 0
1.29628e-08 -9.49384e-09 0
1.39289e-08 -1.99655e-08 0
9.68031e-09 -2.76257e-08 0
7.16712e-09 -8.83401e-09 0
2.78713e-09 -3.22906e-09 0
-7.74816e-08 -4.14343e-08 0
6.57315e-05 -0.000495896 0
-7.11475e-09 2.68921e-08 0
-1.21249e-08 4.71695e-08 0
-1.57862e-08 4.33788e-08 0
-1.23961e-08 3.44286e-08 0
-1.8119e-08 3.1301e-08 0
3.37784e-09 1.71151e-08 0
-2.501e-09 2.22062e-08 0
-2.07086e-10 1.26227e-08 0
-1.02674e-08 2.64583e-08 0
-4.41094e-08 5.23108e-08 0
-0.000326668 0.000426453 0
1.0885e-08 -2.35814e-08 0
-7.56704e-09 3.54641e-08 0
-3.75551e-08 9.85239e-08 0
-1.83011e-08 4.98781e-08 0
-3.36389e-08 6.18007e-08 0
6.99632e-09 -3.11546e-08 0
-1.25522e-09 4.1632e-09 0
6.32806e-09 -1.62079e-08 0
4.49443e-09 -2.82504e-08 0
1.01872e-09 -1.04706e-08 0
-4.36879e-09 -3.24355e-09 0
-1.3573e-08 -5.74549e-08 0
6.19264e-07 -0.000570392 0
-1.61496e-08 2.54393e-08 0
-1.88583e-08 3.11314e-08 0
-1.99933e-08 3.05374e-08 0
-1.68875e-08 1.84701e-08 0
-2.41014e-08 2.23231e-08 0
-3.94785e-09 1.5398e-08 0
-8.5551e-09 1.82556e-08 0
-6.87962e-09 9.91614e-09 0
-1.54046e-08 2.06599e-08 0
-2.2385e-08 2.46726e-08 0
2.86018e-08 1.3492e-08 0
-1.46232e-08 5.16143e-08 0
-0.000347532 0.000349135 0
2.13711e-09 -1.99229e-08 0
-9.32463e-09 1.79287e-08 0
-4.00051e-08 1.77808e-08 0
-1.37301e-08 7.1425e-09 0
1.85399e-09 -3.2087e-08 0
-1.93429e-09 -3.01984e-08 0
-9.08305e-09 4.17527e-09 0
-1.70669e-09 -1.82101e-08 0
-4.86833e-09 -1.15885e-08 0
-1.23609e-08 -2.03782e-09 0
-1.02547e-08 -8.4644e-09 0
-3.52607e-08 -2.78591e-08 0
-6.89139e-08 -2.09847e-08 0
-6.38438e-05 -0.000496279 0
-2.44675e-08 2.38986e-08 0
-2.37752e-08 2.04481e-08 0
-1.62492e-08 1.31384e-08 0
-2.71729e-08 2.13435e-08 0
-1.25173e-08 1.04898e-08 0
-2.11776e-08 1.57491e-08 0
3.27346e-08 -2.63302e-08 0
1.06542e-07 6.43387e-08 0
-0.000401607 0.000307944 0
-2.52785e-09 -2.56515e-08 0
-1.34555e-08 -2.32636e-08 0
-1.71901e-08 -4.24951e-08 0
-5.04797e-09 -3.02419e-08 0
-8.31152e-09 -2.52927e-08 0
-1.66291e-08 4.90311e-09 0
-2.07091e-08 -1.87971e-09 0
-1.06155e-08 -1.54379e-08 0
-1.74915e-08 -9.28012e-09 0
-2.80677e-08 -5.67241e-08 0
-4.35041e-08 -5.76243e-08 0
-0.000128544 -0.000479738 0
-3.11311e-08 1.98043e-08 0
-2.86999e-08 7.27454e-09 0
-2.88243e-08 1.42357e-08 0
-2.1711e-08 8.12172e-09 0
-4.22454e-08 5.47796e-09 0
1.00752e-08 -3.73581e-08 0
-6.47143e-09 -1.41679e-07 0
-0.000512874 0.000294318 0
-8.47177e-09 -2.97133e-08 0
-1.67626e-08 -4.25941e-08 0
-1.16955e-08 -2.58548e-08 0
-1.53253e-08 -2.26561e-08 0
-2.46646e-08 2.12591e-09 0
-2.57196e-08 -5.3212e-09 0
-2.01095e-08 -1.67071e-08 0
-2.55589e-08 -1.18134e-08 0
-2.35208e-08 -3.98303e-08 0
-3.02968e-08 -6.27797e-08 0
-4.68838e-08 -7.64668e-08 0
-0.000189421 -0.000456801 0
-3.67634e-08 1.25236e-08 0
-2.86497e-08 7.02281e-09 0
-5.04947e-08 1.02513e-08 0
-8.36905e-09 -3.4164e-09 0
6.06514e-08 5.8241e-08 0
-0.000474573 0.000198874 0
-1.64423e-08 -2.46755e-08 0
-1.95951e-08 -2.05085e-08 0
-2.79545e-08 -1.3017e-09 0