# vtk DataFile Version 2.0
CellBP Time: 3.48
ASCII
DATASET UNSTRUCTURED_GRID
POINTS 296 double
-9.18278 -3.77434 0
-8.60459 -4.94673 0
-9.60313 -2.53655 0
-9.85802 -1.25441 0
-8.35806 -2.81887 0
-7.87839 -6.03366 0
-7.01649 -7.01648 0
-7.9177 -3.87494 0
-7.34311 -4.86814 0
-6.03371 -7.87843 0
-4.94675 -8.60462 0
-9.9435 0.0499992 0
-9.85799 1.35441 0
-8.65817 -1.68403 0
-8.78681 -0.529654 0
-7.59019 -2.00427 0
-7.22622 -2.90667 0
-6.63806 -5.77925 0
-5.82279 -6.59733 0
-6.79073 -3.88917 0
-6.22101 -4.67624 0
-3.7744 -9.1829 0
-2.53651 -9.60294 0
-4.9068 -7.30929 0
-3.91327 -7.88676 0
-8.79327 0.643435 0
-9.60323 2.63658 0
-8.62379 1.77418 0
-9.1828 3.87436 0
-7.7448 -0.929039 0
-7.79503 0.0802595 0
-6.95302 -1.31596 0
-1.25441 -9.858 0
-6.44191 -2.15326 0
-6.31981 -3.05633 0
-5.53692 -5.47495 0
-4.79625 -6.11591 0
-5.65942 -3.75726 0
-5.26977 -4.56191 0
-2.86636 -8.3645 0
-1.77868 -8.64083 0
-3.92842 -6.72404 0
-3.05684 -7.15313 0
0.0500011 -9.94361 0
-7.70604 1.14359 0
-8.33912 2.91561 0
-7.55243 2.11211 0
-8.60464 5.04677 0
-7.88059 3.9785 0
-7.87839 6.13368 0
-6.77917 -0.396882 0
-6.95704 0.552581 0
-5.77177 -1.00347 0
-0.590878 -8.81033 0
0.565721 -8.77152 0
-5.30346 -2.48043 0
-4.49229 -5.0961 0
-3.90278 -5.77575 0
-4.4392 -3.805 0
-2.06257 -7.56253 0
-1.13557 -7.78645 0
-2.99477 -6.10252 0
-2.3092 -6.6203 0
1.35441 -9.85804 0
-6.68995 1.42215 0
-7.17274 3.11836 0
-6.65977 2.37319 0
-7.29528 4.98903 0
-6.71862 4.00338 0
-7.0165 7.1165 0
-6.57301 5.89461 0
-6.03366 7.97839 0
-4.45338 -1.18114 0
-5.81499 0.513792 0
-4.65644 -0.0103822 0
0.00852165 -7.84875 0
1.73869 -8.6445 0
0.949042 -7.7641 0
-4.03876 -2.40653 0
-3.48576 -1.39128 0
-3.29473 -4.80567 0
-3.26607 -3.26799 0
-1.37869 -6.676 0
-0.508782 -7.02553 0
-1.97569 -5.53742 0
2.6365 -9.60296 0
-5.50773 2.03707 0
-6.09523 3.07247 0
-6.10565 4.87008 0
-5.76225 3.99184 0
-5.76182 6.71776 0
-5.45266 5.61991 0
-4.94676 8.70464 0
-4.83893 7.40528 0
-3.50171 -0.42433 0
-4.4496 1.24912 0
-3.7117 0.59211 0
-4.06245 2.31997 0
-3.77433 9.28275 0
2.86287 -8.33364 0
0.419726 -6.79606 0
2.02222 -7.52659 0
1.30621 -6.90625 0
-2.44481 -0.873865 0
-2.83855 -2.13127 0
-2.29456 -4.09766 0
-2.3258 -2.97379 0
-0.442421 -5.86165 0
-1.22281 -4.49946 0
3.87436 -9.18282 0
-4.79019 3.39208 0
-5.08845 4.59461 0
-4.64767 6.28212 0
-4.53935 5.3603 0
-3.84414 7.99422 0
-3.82717 6.84648 0
-2.78361 8.42377 0
-1.64915 -0.137908 0
-1.45035 -0.890641 0
-2.48927 0.507287 0
-3.25384 1.44425 0
-3.23927 3.31681 0
-2.91118 2.37193 0
-1.35519 0.627143 0
-2.53652 9.70301 0
3.93312 -7.88785 0
2.96488 -7.15855 0
0.954178 -5.82257 0
2.07457 -6.41622 0
-1.68307 -1.99218 0
-1.43453 -3.278 0
0.0902259 -4.74737 0
-0.566214 -3.69469 0
4.93271 -7.31964 0
5.04676 -8.60465 0
-3.7773 4.55205 0
-3.73518 5.75279 0
-2.88832 7.29075 0
-3.01005 6.35447 0
-1.66275 8.73469 0
-1.94035 7.6203 0
-2.33857 4.05201 0
-0.730774 -1.32733 0
-0.836946 -0.257641 0
-1.93633 1.68088 0
-2.12592 2.87605 0
-1.30667 3.54496 0
-0.869512 1.35091 0
-0.282383 0.456073 0
-0.533584 8.87278 0
-1.25441 9.95802 0
1.11288 -4.575 0
3.91063 -6.71816 0
2.98828 -6.09552 0
2.11808 -5.42554 0
4.78507 -6.20619 0
-0.558888 -2.47698 0
0.495147 -3.46409 0
0.0535556 -1.61058 0
1.48202 -3.68247 0
5.86795 -6.61555 0
6.13366 -7.87839 0
-2.47594 5.34904 0
-2.13072 6.53528 0
-0.904193 7.80436 0
-1.27251 6.93297 0
0.0862154 7.88148 0
-1.14456 4.49512 0
0.150329 -0.617681 0
-0.797481 2.48867 0
-0.331675 3.60102 0
0.0631095 1.51282 0
0.741481 0.473449 0
0.646873 8.87547 0
0.0499998 10.0435 0
2.38125 -4.28568 0
3.8597 -5.64122 0
3.00183 -5.21341 0
5.57461 -5.49266 0
4.6917 -5.28383 0
0.629717 -2.29352 0
1.25628 -2.95146 0
0.757546 -1.39154 0
2.16454 -3.13611 0
2.9941 -3.47696 0
6.15617 -4.79257 0
6.65662 -5.77021 0
7.11649 -7.0165 0
-1.01975 5.82105 0
-0.372671 6.88459 0
1.12281 7.7708 0
0.558059 7.08089 0
-0.000765345 4.72567 0
0.607058 3.82819 0
1.33901 -0.641937 0
0.53914 2.65126 0
0.966151 1.57505 0
1.91034 0.213883 0
1.61489 1.06511 0
2.12977 7.58489 0
1.79951 8.71385 0
1.35442 9.95803 0
3.82334 -4.35219 0
5.11741 -4.44975 0
5.84675 -3.93582 0
3.78447 -3.20146 0
1.81244 -1.88278 0
3.01949 -2.57417 0
6.78463 -3.9486 0
7.38278 -4.89768 0
7.9785 -6.03376 0
0.483425 5.88238 0
1.42842 6.74309 0
2.37478 6.67033 0
1.21013 4.55675 0
1.48834 3.39801 0
2.43604 -0.692088 0
2.82835 0.14262 0
1.78907 2.16306 0
2.61217 1.15027 0
3.07264 7.17156 0
2.90479 8.37846 0
2.63651 9.70294 0
4.91207 -3.32841 0
6.12187 -3.10927 0
4.17346 -2.27557 0
3.24484 -1.50308 0
6.73275 -2.31351 0
7.23362 -3.04319 0
7.96658 -3.91307 0
8.70459 -4.94674 0
2.02396 5.60077 0
3.08716 6.15492 0
2.36426 4.12752 0
2.4204 3.06129 0
3.52616 -0.460918 0
3.61621 0.613373 0
2.96224 2.28839 0
3.54611 1.52549 0
4.01318 5.89959 0
3.98553 6.79499 0
3.97434 7.94077 0
3.87437 9.28284 0
5.56993 -1.91653 0
4.50997 -1.12978 0
6.71566 -1.33644 0
7.5946 -2.03696 0
8.39943 -2.86212 0
9.28278 -3.77435 0
3.41987 4.87808 0
3.3396 3.38598 0
4.69211 0.130099 0
4.52001 1.31021 0
4.06608 2.44426 0
4.57198 5.15405 0
4.84528 6.19282 0
4.98202 7.38278 0
5.04677 8.70466 0
5.88495 -0.435004 0
7.01312 -0.488391 0
7.76211 -1.08563 0
8.68761 -1.74648 0
9.70302 -2.53653 0
4.55368 3.82861 0
5.81939 1.09889 0
5.37278 2.53565 0
5.3821 4.62232 0
5.61431 5.52565 0
5.89935 6.67434 0
6.13368 7.9784 0
6.84862 0.463702 0
7.85636 -0.0256463 0
8.86366 -0.584548 0
9.95803 -1.25442 0
6.96328 1.34998 0
5.72336 3.77995 0
6.54409 2.19837 0
6.38288 3.08927 0
6.29515 4.68899 0
6.69581 5.8402 0
7.11647 7.11647 0
7.78765 0.968013 0
8.86301 0.572976 0
10.0435 0.0499985 0
7.61956 2.00517 0
6.83226 3.90602 0
7.27282 2.94811 0
7.38147 4.88784 0
7.97844 6.1337 0
8.72661 1.72762 0
9.95803 1.35442 0
8.42453 2.83896 0
7.98502 3.91796 0
8.70466 5.04677 0
9.70302 2.63652 0
9.28287 3.87438 0
CELLS 542 2168
3 2 0 4
3 0 1 7
3 4 0 7
3 1 5 8
3 7 1 8
3 3 2 13
3 13 2 4
3 11 3 14
3 14 3 13
3 13 4 15
3 4 7 16
3 15 4 16
3 5 6 17
3 8 5 17
3 6 9 18
3 17 6 18
3 7 8 19
3 16 7 19
3 8 17 20
3 19 8 20
3 9 10 23
3 18 9 23
3 10 21 24
3 23 10 24
3 12 11 25
3 25 11 14
3 26 12 27
3 27 12 25
3 14 13 29
3 29 13 15
3 25 14 30
3 30 14 29
3 29 15 31
3 15 16 33
3 31 15 33
3 16 19 34
3 33 16 34
3 17 18 35
3 20 17 35
3 18 23 36
3 35 18 36
3 19 20 37
3 34 19 37
3 20 35 38
3 37 20 38
3 21 22 39
3 24 21 39
3 22 32 40
3 39 22 40
3 23 24 41
3 36 23 41
3 24 39 42
3 41 24 42
3 27 25 44
3 44 25 30
3 28 26 45
3 45 26 27
3 45 27 46
3 46 27 44
3 47 28 48
3 48 28 45
3 30 29 50
3 50 29 31
3 44 30 51
3 51 30 50
3 50 31 52
3 31 33 52
3 32 43 53
3 40 32 53
3 53 43 54
3 33 34 55
3 34 37 55
3 33 55 52
3 35 36 56
3 38 35 56
3 36 41 57
3 56 36 57
3 37 38 58
3 38 56 58
3 37 58 55
3 39 40 59
3 42 39 59
3 40 53 60
3 59 40 60
3 41 42 61
3 57 41 61
3 42 59 62
3 61 42 62
3 43 63 54
3 46 44 64
3 64 44 51
3 48 45 65
3 65 45 46
3 65 46 66
3 66 46 64
3 49 47 67
3 67 47 48
3 67 48 68
3 68 48 65
3 69 49 70
3 70 49 67
3 52 55 72
3 64 51 73
3 51 50 73
3 50 52 73
3 73 52 74
3 74 52 72
3 53 54 75
3 60 53 75
3 54 63 76
3 54 76 77
3 75 54 77
3 55 58 78
3 72 55 78
3 72 78 79
3 56 57 80
3 57 61 80
3 56 80 58
3 58 80 81
3 78 58 81
3 59 60 82
3 62 59 82
3 60 75 83
3 82 60 83
3 61 62 84
3 62 82 84
3 61 84 80
3 63 85 76
3 66 64 86
3 64 73 86
3 68 65 87
3 87 65 66
3 87 66 86
3 70 67 88
3 88 67 68
3 88 68 89
3 89 68 87
3 71 69 90
3 90 69 70
3 90 70 91
3 91 70 88
3 92 71 93
3 93 71 90
3 74 72 94
3 94 72 79
3 86 73 95
3 95 73 74
3 95 74 96
3 96 74 94
3 97 86 95
3 76 85 99
3 75 77 100
3 83 75 100
3 76 99 101
3 77 76 101
3 77 101 102
3 100 77 102
3 94 79 103
3 78 81 104
3 79 78 104
3 79 104 103
3 80 84 105
3 81 80 105
3 81 105 106
3 104 81 106
3 82 83 107
3 83 100 107
3 82 107 84
3 84 107 108
3 105 84 108
3 85 109 99
3 89 87 110
3 87 86 110
3 110 86 97
3 91 88 111
3 111 88 89
3 111 89 110
3 93 90 112
3 112 90 91
3 112 91 113
3 113 91 111
3 98 92 114
3 114 92 93
3 114 93 115
3 115 93 112
3 116 98 114
3 117 103 118
3 96 94 119
3 94 103 119
3 119 103 117
3 97 95 120
3 120 95 96
3 120 96 119
3 121 110 97
3 121 97 122
3 122 97 120
3 123 119 117
3 124 98 116
3 99 109 125
3 99 125 126
3 101 99 126
3 100 102 127
3 100 127 107
3 101 126 128
3 102 101 128
3 102 128 127
3 104 106 129
3 104 129 103
3 103 129 118
3 105 108 130
3 106 105 130
3 106 130 129
3 107 127 131
3 108 107 131
3 108 131 132
3 108 132 130
3 109 134 125
3 125 134 133
3 113 111 135
3 111 110 135
3 135 110 121
3 115 112 136
3 136 112 113
3 136 113 135
3 116 114 137
3 137 114 115
3 137 115 138
3 138 115 136
3 139 124 116
3 139 116 140
3 140 116 137
3 141 135 121
3 118 129 142
3 118 142 143
3 117 118 143
3 123 117 143
3 122 120 144
3 120 119 144
3 144 119 123
3 141 121 145
3 145 121 122
3 145 122 144
3 146 141 145
3 147 144 123
3 147 123 148
3 143 148 123
3 150 124 139
3 149 150 139
3 131 127 151
3 125 133 152
3 126 125 152
3 126 152 153
3 128 126 153
3 128 153 154
3 128 154 127
3 127 154 151
3 152 133 155
3 130 132 156
3 130 156 129
3 129 156 142
3 131 151 157
3 132 131 157
3 132 157 156
3 156 158 142
3 157 151 159
3 133 160 155
3 134 161 133
3 133 161 160
3 138 136 162
3 136 135 162
3 162 135 141
3 140 137 163
3 163 137 138
3 163 138 162
3 149 139 164
3 164 139 140
3 164 140 165
3 165 140 163
3 166 149 164
3 167 162 141
3 167 141 146
3 142 158 168
3 143 142 168
3 143 168 148
3 146 145 169
3 145 144 169
3 169 144 147
3 170 167 146
3 170 146 169
3 171 169 147
3 171 147 148
3 171 148 172
3 168 172 148
3 173 149 166
3 174 150 149
3 173 174 149
3 154 175 151
3 151 175 159
3 152 155 176
3 153 152 176
3 153 176 177
3 153 177 154
3 154 177 175
3 155 160 178
3 155 178 179
3 176 155 179
3 156 157 180
3 156 180 158
3 157 159 181
3 157 181 180
3 158 180 182
3 158 182 168
3 159 175 183
3 159 183 181
3 175 184 183
3 160 186 178
3 178 186 185
3 161 187 160
3 160 187 186
3 165 163 188
3 163 162 188
3 188 162 167
3 166 164 189
3 189 164 165
3 189 165 188
3 190 173 166
3 190 166 191
3 191 166 189
3 192 188 167
3 192 167 170
3 193 192 170
3 182 194 168
3 194 172 168
3 193 170 195
3 170 169 195
3 195 169 171
3 196 195 171
3 196 171 172
3 194 197 172
3 197 198 172
3 198 196 172
3 200 173 190
3 199 200 190
3 201 174 173
3 200 201 173
3 176 179 202
3 177 176 202
3 177 202 175
3 175 202 184
3 178 185 203
3 178 203 179
3 179 203 202
3 203 185 204
3 202 205 184
3 183 206 181
3 180 181 206
3 180 206 182
3 182 206 194
3 183 184 207
3 205 207 184
3 183 207 206
3 185 208 204
3 186 209 185
3 185 209 208
3 187 210 186
3 186 210 209
3 191 189 211
3 189 188 211
3 211 188 192
3 199 190 212
3 212 190 191
3 212 191 211
3 213 199 212
3 214 211 192
3 214 192 193
3 215 214 193
3 215 193 195
3 206 216 194
3 216 197 194
3 216 217 197
3 215 195 218
3 218 195 196
3 198 218 196
3 217 219 197
3 219 218 198
3 197 219 198
3 220 199 213
3 221 200 199
3 220 221 199
3 222 201 200
3 221 222 200
3 203 204 223
3 203 223 202
3 202 223 205
3 204 208 224
3 204 224 223
3 205 223 225
3 205 225 207
3 207 225 226
3 207 226 206
3 226 216 206
3 208 228 224
3 224 228 227
3 209 229 208
3 229 228 208
3 210 230 209
3 209 230 229
3 213 212 231
3 212 211 231
3 231 211 214
3 232 220 213
3 232 213 231
3 233 231 214
3 233 214 215
3 234 233 215
3 234 215 218
3 226 235 216
3 235 217 216
3 235 236 217
3 217 236 219
3 237 234 218
3 237 218 219
3 236 238 219
3 238 237 219
3 240 220 232
3 239 240 232
3 241 221 220
3 240 241 220
3 242 222 221
3 241 242 221
3 224 227 243
3 224 243 223
3 223 243 225
3 225 243 244
3 225 244 226
3 226 244 235
3 227 245 243
3 228 246 227
3 227 246 245
3 229 247 228
3 228 247 246
3 230 248 229
3 229 248 247
3 239 232 249
3 232 231 249
3 249 231 233
3 250 249 233
3 250 233 234
3 237 250 234
3 244 251 235
3 235 251 236
3 251 252 236
3 236 252 238
3 252 253 238
3 253 250 237
3 253 237 238
3 254 239 249
3 255 240 239
3 254 255 239
3 256 241 240
3 255 256 240
3 257 242 241
3 256 257 241
3 245 258 243
3 243 258 244
3 244 258 251
3 245 259 258
3 246 260 245
3 245 260 259
3 247 261 246
3 246 261 260
3 248 262 247
3 247 262 261
3 254 249 263
3 263 249 250
3 253 263 250
3 258 264 251
3 251 264 252
3 264 265 252
3 265 263 253
3 252 265 253
3 266 254 263
3 267 255 254
3 266 267 254
3 268 256 255
3 267 268 255
3 269 257 256
3 268 269 256
3 259 270 258
3 270 264 258
3 260 271 259
3 259 271 270
3 261 272 260
3 260 272 271
3 262 273 261
3 273 272 261
3 270 274 264
3 275 266 263
3 275 263 265
3 274 276 264
3 276 265 264
3 276 277 265
3 277 275 265
3 278 267 266
3 275 278 266
3 279 268 267
3 278 279 267
3 280 269 268
3 279 280 268
3 271 281 270
3 270 281 274
3 272 282 271
3 271 282 281
3 273 283 272
3 272 283 282
3 281 284 274
3 274 284 276
3 285 278 275
3 277 285 275
3 284 286 276
3 286 285 277
3 276 286 277
3 287 279 278
3 285 287 278
3 288 280 279
3 287 288 279
3 282 289 281
3 281 289 284
3 283 290 282
3 282 290 289
3 289 291 284
3 284 291 286
3 291 292 286
3 292 287 285
3 286 292 285
3 293 288 287
3 292 293 287
3 290 294 289
3 289 294 291
3 294 295 291
3 295 293 292
3 291 295 292
CELL_TYPES 542
5
5
5
5
5
5
5
5
5
5
5
5
5
5
5
5
5
5
5
5
5
5
5
5
5
5
5
5
5
5
5
5
5
5
5
5
5
5
5
5
5
5
5
5
5
5
5
5
5
5
5
5
5
5
5
5
5
5
5
5
5
5
5
5
5
5
5
5
5
5
5
5
5
5
5
5
5
5
5
5
5
5
5
5
5
5
5
5
5
5
5
5
5
5
5
5
5
5
5
5
5
5
5
5
5
5
5
5
5
5
5
5
5
5
5
5
5
5
5
5
5
5
5
5
5
5
5
5
5
5
5
5
5
5
5
5
5
5
5
5
5
5
5
5
5
5
5
5
5
5
5
5
5
5
5
5
5
5
5
5
5
5
5
5
5
5
5
5
5
5
5
5
5
5
5
5
5
5
5
5
5
5
5
5
5
5
5
5
5
5
5
5
5
5
5
5
5
5
5
5
5
5
5
5
5
5
5
5
5
5
5
5
5
5
5
5
5
5
5
5
5
5
5
5
5
5
5
5
5
5
5
5
5
5
5
5
5
5
5
5
5
5
5
5
5
5
5
5
5
5
5
5
5
5
5
5
5
5
5
5
5
5
5
5
5
5
5
5
5
5
5
5
5
5
5
5
5
5
5
5
5
5
5
5
5
5
5
5
5
5
5
5
5
5
5
5
5
5
5
5
5
5
5
5
5
5
5
5
5
5
5
5
5
5
5
5
5
5
5
5
5
5
5
5
5
5
5
5
5
5
5
5
5
5
5
5
5
5
5
5
5
5
5
5
5
5
5
5
5
5
5
5
5
5
5
5
5
5
5
5
5
5
5
5
5
5
5
5
5
5
5
5
5
5
5
5
5
5
5
5
5
5
5
5
5
5
5
5
5
5
5
5
5
5
5
5
5
5
5
5
5
5
5
5
5
5
5
5
5
5
5
5
5
5
5
5
5
5
5
5
5
5
5
5
5
5
5
5
5
5
5
5
5
5
5
5
5
5
5
5
5
5
5
5
5
5
5
5
5
5
5
5
5
5
5
5
5
5
5
5
5
5
5
5
5
5
5
5
5
5
5
5
5
5
5
5
5
5
5
5
5
5
5
5
5
5
5
5
5
5
5
5
5
5
5
5
5
5
5
5
5
5
5
5
5
5
5
5
5
5
5
5
5
5
5
5
5
5
5
5
5
5
5
5
5
5
5
5
5
5
5
5
5
5
5
5
5
5
5
5
5
5
POINT_DATA 296
SCALARS concentrations float 4
LOOKUP_TABLE default
0 0.9987 0.227361 16.0293
0 0.998697 0.227032 16.7724
0 0.9987 0.226378 16.1403
0 0.998695 0.225408 16.1718
0 0.998702 0.0908855 0.00184383
0 0.998695 0.225983 15.224
0 0.998704 0.225853 15.901
0 0.998702 0.0908855 0.001275
0 0.9987 0.090898 0.000714203
0 0.99872 0.225467 15.4657
0 0.998704 0.226197 16.0923
0 0.998692 0.224395 16.1375
0 0.998684 0.22442 16.7561
0 0.9987 0.0908864 0.00143002
0 0.998698 0.0908851 0.000515326
0 0.998705 0.0908861 0.00187491
0 0.998705 0.0908859 0.00200928
0 0.998702 0.0909002 0.00130686
0 0.998712 0.0908994 0.00529409
0 0.998706 0.0908865 0.00212496
0 0.998707 0.0908865 0.0022678
0 0.998706 0.227736 16.2012
0 0.998728 0.22802 16.1067
0 0.99871 0.0909009 0.00681469
0 0.998698 0.090888 0.00289968
0 0.998692 0.0908929 0.00213139
0 0.998694 0.223819 16.1352
0 0.998693 0.0908927 0.00228826
0 0.998698 0.224665 16.0106
0 0.998704 0.0908861 0.00149435
0 0.998703 0.090886 0.000850858
0 0.998708 0.0908847 0.00165482
0 0.998703 0.225693 16.0029
0 0.998708 0.0908841 0.00160393
0 0.998708 0.0908848 0.00192038
0 0.998708 0.0908877 0.00297969
0 0.998706 0.0908873 0.00314361
0 0.998709 0.0908843 0.00194836
0 0.998708 0.0908851 0.00225386
0 0.99871 0.090897 0.00967873
0 0.998711 0.0908976 0.010885
0 0.998701 0.0908871 0.00226456
0 0.9987 0.0908871 0.00216762
0 0.99869 0.224746 16.1451
0 0.998702 0.090886 0.000545064
0 0.9987 0.0908851 0.00141957
0 0.998703 0.0908864 0.00108739
0 0.998698 0.223745 15.8804
0 0.9987 0.090885 0.00111156
0 0.998703 0.223251 15.7242
0 0.998708 0.0908843 0.00151578
0 0.998708 0.0908849 0.0014543
0 0.99871 0.0908816 0.00106887
0 0.998694 0.0908883 0.001974
0 0.998696 0.0908892 0.00246666
0 0.99871 0.0908817 0.00110311
0 0.998708 0.0908845 0.00176372
0 0.998706 0.090885 0.00138334
0 0.99871 0.0908818 0.00112504
0 0.998701 0.0908873 0.00284348
0 0.998701 0.090887 0.00200805
0 0.998705 0.0908846 0.000894448
0 0.998704 0.0908853 0.00088643
0 0.998702 0.223036 15.4357
0 0.998708 0.0908842 0.00140213
0 0.998704 0.090886 0.00166595
0 0.998708 0.0908849 0.00157534
0 0.998702 0.0908854 0.00133182
0 0.998705 0.0908859 0.00190722
0 0.998711 0.222964 15.2366
0 0.998709 0.090891 0.00330661
0 0.998693 0.223137 16.1411
0 0.998712 0.0908806 0.00083437
0 0.99871 0.0908816 0.00111012
0 0.998712 0.0908806 0.000858386
0 0.9987 0.0908862 0.000838385
0 0.998702 0.0909028 0.0057196
0 0.9987 0.0908873 0.00107054
0 0.998712 0.0908806 0.000829964
0 0.998713 0.0908802 0.00073943
0 0.998709 0.0908819 0.000872216
0 0.998712 0.0908808 0.00083145
0 0.998706 0.0908843 0.000949499
0 0.998705 0.0908847 0.000968759
0 0.998709 0.0908819 0.000760868
0 0.998707 0.223165 17.0833
0 0.99871 0.0908816 0.00105619
0 0.998708 0.0908843 0.00157707
0 0.998707 0.0908863 0.0027137
0 0.998708 0.0908849 0.00186781
0 0.998708 0.0908924 0.00308095
0 0.998709 0.0908865 0.00301113
0 0.998663 0.222128 16.2639
0 0.998689 0.0909054 0.00820461
0 0.998713 0.0908799 0.000689755
0 0.998712 0.0908807 0.000868564
0 0.998713 0.0908801 0.000739477
0 0.998712 0.0908806 0.000820046
0 0.998662 0.22314 17.9382
0 0.998702 0.0909023 0.00521752
0 0.998706 0.0908845 0.000892319
0 0.998699 0.0908878 0.00125729
0 0.998705 0.090885 0.000671089
0 0.998714 0.090879 0.000530636
0 0.998713 0.09088 0.000714476
0 0.998712 0.0908808 0.000820443
0 0.998713 0.0908804 0.00079412
0 0.99871 0.090882 0.000903086
0 0.998712 0.0908808 0.000843131
0 0.998704 0.223027 15.6142
0 0.99871 0.0908816 0.00104124
0 0.998709 0.0908845 0.00198746
0 0.998709 0.0908897 0.00177547
0 0.99871 0.0908856 0.00246187
0 0.998678 0.0909193 0.0104437
0 0.998706 0.0908935 0.00237879
0 0.998681 0.0909208 0.0131676
0 0.998715 0.0908785 0.000437596
0 0.998715 0.0908785 0.000442555
0 0.998715 0.0908789 0.000503474
0 0.998714 0.09088 0.000693996
0 0.998712 0.0908806 0.000825967
0 0.998713 0.0908803 0.0007301
0 0.998716 0.0908781 0.000364675
0 0.998675 0.222262 15.5152
0 0.998703 0.0908884 0.00273184
0 0.998702 0.0908871 0.00173005
0 0.99871 0.0908825 0.000936445
0 0.998706 0.0908847 0.000901887
0 0.998715 0.0908791 0.000562877
0 0.998714 0.0908801 0.0007665
0 0.998712 0.0908808 0.000874569
0 0.998713 0.09088 0.000774628
0 0.998693 0.0908988 0.00660024
0 0.998697 0.223186 15.8905
0 0.998711 0.0908817 0.00124792
0 0.998711 0.0908852 0.00198577
0 0.998704 0.0908961 0.00527519
0 0.998712 0.0908866 0.0011732
0 0.998693 0.0909056 0.011214
0 0.998705 0.0908931 0.00523646
0 0.998712 0.0908806 0.000896504
0 0.998716 0.0908781 0.000391614
0 0.998716 0.0908774 0.00023757
0 0.998715 0.0908789 0.000491377
0 0.998713 0.09088 0.000683778
0 0.998713 0.0908803 0.00077437
0 0.998715 0.090878 0.000347071
0 0.998716 0.0908768 0.000133128
0 0.998691 0.0909031 0.00343804
0 0.99869 0.224286 15.7779
0 0.998712 0.0908809 0.000887026
0 0.998706 0.0908866 0.00140383
0 0.998707 0.0908852 0.00160372
0 0.99871 0.0908826 0.00104965
0 0.998709 0.0908877 0.00109586
0 0.998715 0.090879 0.000578094
0 0.998714 0.0908799 0.000747099
0 0.998716 0.0908782 0.000411099
0 0.998713 0.090881 0.000906713
0 0.9987 0.0909024 0.00716186
0 0.998677 0.22172 15.9612
0 0.998712 0.0908817 0.00124349
0 0.998712 0.0908851 0.000439284
0 0.998705 0.0908906 0.00386229
0 0.998711 0.0908858 0.000411494
0 0.998702 0.0908901 0.00192703
0 0.998712 0.0908807 0.000945016
0 0.998716 0.0908768 0.00014012
0 0.998715 0.0908788 0.000485241
0 0.998714 0.0908802 0.000763922
0 0.998716 0.0908778 0.000318164
0 0.998716 0.090877 0.000179447
0 0.998686 0.0909028 0.00347068
0 0.998678 0.222143 17.8265
0 0.998712 0.0908812 0.000951241
0 0.99871 0.0908847 0.00203335
0 0.99871 0.090883 0.0014191
0 0.998715 0.0908884 0.00128549
0 0.998711 0.0908849 0.00216276
0 0.998715 0.0908788 0.00052122
0 0.998714 0.0908795 0.000642047
0 0.998716 0.0908782 0.000390813
0 0.998713 0.0908804 0.000781265
0 0.998712 0.0908816 0.000995976
0 0.998716 0.0908875 0.00148734
0 0.998726 0.0908984 0.00273673
0 0.998714 0.221926 15.8704
0 0.998712 0.0908817 0.000989046
0 0.99871 0.0908846 0.000488833
0 0.998699 0.0908913 0.00208129
0 0.998709 0.0908855 0.000514699
0 0.998712 0.0908808 0.00098557
0 0.998713 0.0908805 0.000857969
0 0.998716 0.0908778 0.000325125
0 0.998715 0.090879 0.000524322
0 0.998715 0.0908782 0.000389493
0 0.998715 0.0908783 0.000406562
0 0.998715 0.0908784 0.000424511
0 0.998697 0.0908902 0.00176154
0 0.99868 0.0909072 0.00409501
0 0.998677 0.223129 15.8304
0 0.998711 0.0908822 0.00127691
0 0.998711 0.0908844 0.00168011
0 0.99871 0.0908853 0.00117369
0 0.998711 0.0908815 0.000964299
0 0.998715 0.0908789 0.000510188
0 0.998713 0.0908804 0.000758177
0 0.998709 0.0908872 0.000313738
0 0.998713 0.0909079 0.00512923
0 0.998727 0.221238 11.359
0 0.998711 0.0908816 0.00108269
0 0.998708 0.0908846 0.00073717
0 0.998707 0.0908856 0.000796768
0 0.998712 0.0908808 0.000992935
0 0.998713 0.0908803 0.000805815
0 0.998715 0.0908791 0.000551969
0 0.998715 0.0908798 0.000657913
0 0.998714 0.0908792 0.000577988
0 0.998714 0.0908795 0.000617504
0 0.9987 0.0908881 0.00113108
0 0.998681 0.0909039 0.00426913
0 0.998666 0.220651 18.307
0 0.99871 0.0908822 0.00102001
0 0.998709 0.0908843 0.00105309
0 0.998712 0.090881 0.00085703
0 0.998714 0.09088 0.000686536
0 0.998708 0.0908848 0.0015792
0 0.998706 0.0908872 0.00121254
0 0.9987 0.0908999 0.00486785
0 0.998697 0.223653 17.2161
0 0.998711 0.0908816 0.00110548
0 0.998708 0.0908847 0.00121159
0 0.998712 0.0908807 0.000928671
0 0.998713 0.0908806 0.00084646
0 0.998713 0.0908803 0.000746054
0 0.998713 0.0908805 0.000775503
0 0.998713 0.0908805 0.000785207
0 0.998713 0.0908807 0.000815169
0 0.998707 0.0908851 0.00137825
0 0.998703 0.0908863 0.00121518
0 0.998696 0.0908872 0.00200646
0 0.998684 0.220451 15.7998
0 0.99871 0.0908817 0.00105189
0 0.998712 0.0908806 0.000821296
0 0.998709 0.0908843 0.00179699
0 0.998706 0.0908866 0.00168997
0 0.998703 0.0908923 0.00117574
0 0.998701 0.224302 16.4761
0 0.99871 0.0908817 0.00101581
0 0.998712 0.0908808 0.000873348
0 0.998712 0.0908805 0.000789817
0 0.998711 0.0908807 0.000788237
0 0.998711 0.0908808 0.000814437
0 0.998707 0.0908844 0.00127283
0 0.998703 0.0908859 0.00143862
0 0.998701 0.090885 0.00227257
0 0.998698 0.221941 15.8352
0 0.99871 0.0908818 0.00114467
0 0.998708 0.090885 0.00187901
0 0.998706 0.0908862 0.0015378
0 0.998698 0.0908934 0.00114395
0 0.998697 0.222336 15.1958
0 0.99871 0.0908817 0.00098929
0 0.99871 0.0908817 0.00100483
0 0.99871 0.0908817 0.00100498
0 0.998707 0.090885 0.00142733
0 0.998702 0.0908858 0.00134444
0 0.9987 0.0908875 0.00222689
0 0.998701 0.222808 15.672
0 0.998708 0.0908844 0.00157701
0 0.998705 0.0908859 0.00136069
0 0.998698 0.0908871 0.000559528
0 0.998692 0.221634 15.951
0 0.998707 0.0908851 0.00176508
0 0.998708 0.0908845 0.00165104
0 0.998708 0.0908845 0.00185508
0 0.998708 0.0908852 0.00216594
0 0.998704 0.0908864 0.00163912
0 0.998699 0.0908895 0.00137631
0 0.998697 0.221936 16.4344
0 0.998704 0.0908861 0.00162009
0 0.998698 0.0908857 0.000313315
0 0.998693 0.222413 15.956
0 0.998706 0.0908867 0.00289285
0 0.998706 0.0908872 0.00280189
0 0.998708 0.0908868 0.00337695
0 0.9987 0.0908874 0.00079821
0 0.998697 0.219175 15.213
0 0.998702 0.090887 0.00237675
0 0.998696 0.222313 15.9609
0 0.998711 0.0908966 0.00423699
0 0.998709 0.0908977 0.00382553
0 0.998702 0.220479 15.8107
0 0.998707 0.222548 15.9632
0 0.998714 0.221109 14.3022
VECTORS fa_u float
0.000471636 0.000194197 0
0.00046415 0.000263435 0
0.000496002 0.00013323 0
0.000510161 6.73389e-05 0
5.40255e-08 2.28801e-08 0
0.000385379 0.000293516 0
0.000355177 0.000360352 0
3.98821e-08 7.44181e-09 0
-5.76355e-09 -2.19829e-08 0
0.000298339 0.000391372 0
0.000255908 0.000443521 0
0.000513494 -7.52586e-07 0
0.00052855 -7.0108e-05 0
2.73217e-08 3.63878e-08 0
1.62591e-08 2.12685e-09 0
5.56839e-08 2.14142e-08 0
5.74889e-08 2.79775e-08 0
-4.01534e-08 1.08146e-08 0
2.64827e-08 1.66363e-07 0
5.24957e-08 4.26161e-08 0
5.37449e-08 4.8153e-08 0
0.000198031 0.000475968 0
0.000134081 0.000494664 0
1.96569e-07 9.15493e-08 0
3.97759e-08 8.32536e-08 0
-2.67677e-08 6.23148e-08 0
0.000495782 -0.000133415 0
-3.25845e-08 -6.51141e-08 0
0.000470997 -0.000194182 0
4.65748e-08 9.58107e-09 0
2.52326e-08 9.81485e-09 0
5.19897e-08 8.35104e-09 0
6.77815e-05 0.000504678 0
4.78616e-08 1.77214e-08 0
5.25086e-08 3.12545e-08 0
6.84842e-08 6.55707e-08 0
7.83355e-08 6.22047e-08 0
4.95516e-08 3.7259e-08 0
5.68607e-08 4.3707e-08 0
-5.83592e-08 3.02397e-07 0
2.20072e-07 2.67458e-07 0
5.68993e-08 4.42137e-08 0
1.39613e-08 6.75456e-08 0
9.81827e-07 0.000513736 0
1.72182e-08 -2.08403e-09 0
3.93066e-08 -2.22573e-08 0
2.8446e-08 -1.96986e-08 0
0.000437874 -0.000252205 0
2.97552e-08 -1.91221e-08 0
0.000396945 -0.000304592 0
4.8224e-08 8.78909e-10 0
4.62464e-08 -1.64738e-09 0
3.3699e-08 4.59941e-09 0
5.62249e-08 2.8003e-08 0
-6.53707e-08 4.34419e-08 0
3.1517e-08 1.54516e-08 0
4.35802e-08 3.53606e-08 0
3.31967e-08 2.8906e-08 0
2.80637e-08 2.22257e-08 0
1.72539e-08 8.88189e-08 0
2.36105e-08 5.93737e-08 0
1.55135e-08 2.38616e-08 0
5.15224e-09 2.77316e-08 0
-6.60391e-05 0.000486703 0
4.39136e-08 -7.88307e-09 0
4.70083e-08 -2.45012e-08 0
4.73514e-08 -1.64496e-08 0
1.93087e-08 -3.77238e-08 0
4.91484e-08 -3.56011e-08 0
0.000342843 -0.000342808 0
3.08866e-08 -1.00581e-07 0
0.000313248 -0.000407024 0
2.55196e-08 7.32321e-09 0
3.51529e-08 -3.47194e-09 0
2.7311e-08 3.9014e-10 0
1.17108e-09 2.66516e-08 0
-5.83804e-08 1.72379e-07 0
-3.50101e-11 3.40646e-08 0
2.21641e-08 1.436e-08 0
2.13475e-08 9.8934e-09 0
1.74296e-08 2.15982e-08 0
1.7944e-08 1.94414e-08 0
7.45983e-10 3.02038e-08 0
-1.08628e-09 3.08067e-08 0
7.21014e-09 2.31122e-08 0
-0.000140803 0.000525036 0
3.20044e-08 -1.02575e-08 0
4.5258e-08 -2.16788e-08 0
5.48371e-08 -6.67022e-08 0
4.78402e-08 -3.52656e-08 0
9.74432e-08 1.07595e-08 0
6.12556e-08 -7.36754e-08 0
0.000258683 -0.000448225 0
4.96088e-08 2.56313e-07 0
2.16026e-08 3.87827e-09 0
2.69106e-08 -6.29732e-09 0
2.34117e-08 -2.35699e-09 0
2.33603e-08 -1.16268e-08 0
0.000216525 -0.000528128 0
-2.07853e-08 1.64715e-07 0
2.46902e-09 2.8286e-08 0
-1.3242e-08 3.77518e-08 0
7.97386e-10 2.13391e-08 0
1.53693e-08 6.99154e-09 0
1.70712e-08 1.50145e-08 0
1.19654e-08 2.32029e-08 0
1.44097e-08 2.07575e-08 0
2.04278e-09 2.86634e-08 0
6.5821e-09 2.60084e-08 0
-0.000189076 0.00045946 0
2.70659e-08 -1.91099e-08 0
4.23638e-08 -4.69541e-08 0
5.23352e-08 -2.12775e-08 0
4.37831e-08 -6.49588e-08 0
-7.71194e-08 3.23244e-07 0
2.47017e-08 7.1549e-08 0
-2.55616e-08 4.18212e-07 0
1.36875e-08 2.55683e-09 0
1.13028e-08 8.39955e-09 0
1.59677e-08 -1.29993e-09 0
2.07736e-08 -7.49084e-09 0
1.85716e-08 -1.8597e-08 0
1.90125e-08 -1.33505e-08 0
1.11116e-08 -3.34409e-09 0
0.000127716 -0.000476885 0
-5.37535e-08 6.83145e-08 0
-4.37602e-08 3.33998e-08 0
-2.47162e-09 2.96949e-08 0
-1.63322e-08 2.35973e-08 0
1.05794e-08 1.44523e-08 0
8.50019e-09 2.28608e-08 0
8.96475e-10 2.78143e-08 0
3.61264e-09 2.43824e-08 0
2.09867e-07 -7.99226e-09 0
-0.000252601 0.000438017 0
2.22311e-08 -3.29022e-08 0
3.60115e-08 -5.19208e-08 0
-5.57197e-10 1.67855e-07 0
3.26942e-08 -1.80193e-08 0
-2.7443e-07 2.28068e-07 0
-5.17731e-08 1.58376e-07 0
1.34025e-08 -2.51822e-08 0
5.33626e-09 1.12607e-08 0
6.76712e-09 3.36923e-09 0
1.29018e-08 -8.83266e-09 0
1.36855e-08 -1.69147e-08 0
9.03378e-09 -2.29246e-08 0
6.99436e-09 -8.54655e-09 0
2.59622e-09 -3.34727e-09 0
5.82412e-09 1.09243e-07 0
6.62682e-05 -0.00049766 0
-5.83605e-09 2.76152e-08 0
-3.03474e-08 3.27784e-08 0
-3.51318e-08 3.70116e-08 0
-1.32482e-08 3.06598e-08 0
-2.02814e-08 2.83655e-08 0
3.21901e-09 1.81111e-08 0
-2.13726e-09 2.36763e-08 0
-4.14189e-10 1.30746e-08 0
-9.02765e-09 2.74028e-08 0
6.80639e-09 -2.27788e-07 0
-0.000308853 0.000403183 0
1.70874e-08 -3.5688e-08 0
1.37001e-08 -2.77352e-09 0
-5.2669e-08 1.1104e-07 0
-6.68846e-09 1.12565e-08 0
-1.62451e-08 5.91268e-08 0
7.03199e-09 -2.92365e-08 0
-1.51482e-09 4.19338e-09 0
5.90655e-09 -1.42659e-08 0
3.24045e-09 -2.4091e-08 0
7.75878e-10 -1.00942e-08 0
-4.64451e-09 -3.32153e-09 0
-5.97739e-08 9.28622e-08 0
-1.5705e-07 -0.000567237 0
-1.46259e-08 2.65002e-08 0
-3.92299e-08 5.14512e-08 0
-2.61913e-08 3.67836e-08 0
-2.31198e-08 3.37435e-08 0
-3.93377e-08 5.64675e-08 0
-4.04238e-09 1.6085e-08 0
-8.16478e-09 1.87274e-08 0
-7.17899e-09 1.01542e-08 0
-1.41932e-08 2.04099e-08 0
-1.99501e-08 2.46245e-08 0
8.76501e-09 4.65085e-08 0
8.12042e-08 3.14519e-08 0
-0.000357566 0.000356605 0
4.47252e-09 -3.11519e-08 0
-7.99739e-09 -1.33412e-08 0
1.16008e-08 6.52024e-08 0
-5.31593e-09 -1.54909e-08 0
-5.34804e-10 -3.13562e-08 0
-3.82513e-09 -2.70312e-08 0
-9.45408e-09 4.201e-09 0
-2.3425e-09 -1.65186e-08 0
-5.17224e-09 -1.12628e-08 0
-1.27697e-08 -2.07213e-09 0
-1.05458e-08 -8.44093e-09 0
7.56058e-09 5.55399e-08 0
9.41514e-08 9.00797e-08 0
-6.62809e-05 -0.000499342 0
-2.50097e-08 3.2022e-08 0
-3.05168e-08 4.38953e-08 0
-2.44045e-08 2.827e-08 0
-2.31106e-08 2.01842e-08 0
-1.24917e-08 1.03684e-08 0
-1.93852e-08 1.4361e-08 0
8.42008e-09 -5.36331e-09 0
1.61071e-07 -2.63462e-08 0
-0.000285732 0.000221356 0
-5.10419e-09 -3.40707e-08 0
-5.39882e-09 -2.28269e-08 0
-1.08349e-08 -2.29212e-08 0
-7.99824e-09 -3.0566e-08 0
-9.47826e-09 -2.38248e-08 0
-1.68936e-08 4.80483e-09 0
-2.0859e-08 -1.77847e-09 0
-1.08797e-08 -1.48284e-08 0
-1.74555e-08 -9.0213e-09 0
-2.30964e-08 2.76027e-08 0
-7.49498e-08 1.13296e-07 0
-0.000150811 -0.000562667 0
-2.60261e-08 1.93924e-08 0
-3.22686e-08 9.03419e-09 0
-2.48053e-08 1.13306e-08 0
-2.06426e-08 7.14917e-09 0
-5.01057e-08 3.8075e-09 0
-2.85891e-08 -2.59098e-08 0
-7.44177e-09 -1.54716e-07 0
-0.000475118 0.000272696 0
-1.09081e-08 -3.34422e-08 0
-1.70144e-08 -3.45953e-08 0
-1.30361e-08 -2.65194e-08 0
-1.54603e-08 -2.20553e-08 0
-2.36572e-08 1.97324e-09 0
-2.42455e-08 -4.59145e-09 0
-1.91071e-08 -1.6099e-08 0
-2.35704e-08 -1.08281e-08 0
-2.12118e-08 -3.83847e-08 0
-2.68661e-08 -2.78091e-08 0
-6.37836e-08 -2.81217e-09 0
-0.000191997 -0.000464644 0
-3.2293e-08 8.80156e-09 0
-2.5566e-08 5.41708e-09 0
-5.6632e-08 7.89885e-09 0
-5.37627e-08 1.14339e-09 0
-3.02455e-08 2.20194e-08 0
-0.000483724 0.000202164 0
-1.67881e-08 -2.76214e-08 0
-1.83087e-08 -2.09062e-08 0
-2.51239e-08 -6.35524e-10 0
-2.39035e-08 -7.59676e-09 0
-2.15416e-08 -1.44071e-08 0