# vtk DataFile Version 2.0
CellBP Time: 2.36
ASCII
DATASET UNSTRUCTURED_GRID
POINTS 296 double
-9.18463 -3.77511 0
-8.6063 -4.94772 0
-9.60502 -2.53706 0
-9.85989 -1.25466 0
-8.35806 -2.81887 0
-7.87992 -6.03484 0
-7.01781 -7.0178 0
-7.9177 -3.87494 0
-7.34311 -4.86814 0
-6.03489 -7.87997 0
-4.94773 -8.60631 0
-9.94548 0.0499985 0
-9.85991 1.35467 0
-8.65817 -1.68403 0
-8.78681 -0.529655 0
-7.59019 -2.00427 0
-7.22622 -2.90667 0
-6.63807 -5.77925 0
-5.82279 -6.59733 0
-6.79073 -3.88917 0
-6.22101 -4.67624 0
-3.77514 -9.18469 0
-2.53699 -9.60474 0
-4.9068 -7.30929 0
-3.91327 -7.88676 0
-8.79327 0.643435 0
-9.60514 2.6371 0
-8.62379 1.77418 0
-9.18461 3.87511 0
-7.7448 -0.929039 0
-7.79503 0.0802594 0
-6.95302 -1.31596 0
-1.25466 -9.8599 0
-6.44191 -2.15326 0
-6.31981 -3.05633 0
-5.53692 -5.47496 0
-4.79625 -6.11591 0
-5.65942 -3.75726 0
-5.26977 -4.56191 0
-2.86636 -8.3645 0
-1.77868 -8.64083 0
-3.92842 -6.72404 0
-3.05684 -7.15313 0
0.0500011 -9.94564 0
-7.70604 1.14359 0
-8.33912 2.91561 0
-7.55243 2.11211 0
-8.60634 5.04775 0
-7.88059 3.9785 0
-7.87997 6.13489 0
-6.77917 -0.396882 0
-6.95704 0.552581 0
-5.77177 -1.00347 0
-0.590878 -8.81033 0
0.565721 -8.77152 0
-5.30346 -2.48043 0
-4.49229 -5.0961 0
-3.90278 -5.77575 0
-4.4392 -3.805 0
-2.06257 -7.56253 0
-1.13557 -7.78645 0
-2.99477 -6.10252 0
-2.3092 -6.6203 0
1.35467 -9.85999 0
-6.68995 1.42215 0
-7.17274 3.11836 0
-6.65977 2.37319 0
-7.29528 4.98903 0
-6.71862 4.00338 0
-7.0179 7.1179 0
-6.57301 5.89461 0
-6.03492 7.98003 0
-4.45338 -1.18114 0
-5.81499 0.513792 0
-4.65644 -0.0103822 0
0.00852161 -7.84875 0
1.73869 -8.6445 0
0.949042 -7.7641 0
-4.03876 -2.40653 0
-3.48576 -1.39128 0
-3.29473 -4.80567 0
-3.26607 -3.26799 0
-1.37869 -6.676 0
-0.508782 -7.02553 0
-1.97569 -5.53742 0
2.63702 -9.60489 0
-5.50773 2.03707 0
-6.09523 3.07247 0
-6.10565 4.87008 0
-5.76225 3.99184 0
-5.76182 6.71776 0
-5.45266 5.61991 0
-4.94775 8.70636 0
-4.83893 7.40528 0
-3.50171 -0.42433 0
-4.4496 1.24912 0
-3.7117 0.59211 0
-4.06245 2.31997 0
-3.77511 9.28463 0
2.86287 -8.33364 0
0.419726 -6.79606 0
2.02222 -7.52659 0
1.30621 -6.90625 0
-2.44481 -0.873865 0
-2.83856 -2.13127 0
-2.29456 -4.09766 0
-2.3258 -2.97379 0
-0.442421 -5.86165 0
-1.22281 -4.49946 0
3.87511 -9.18464 0
-4.79019 3.39208 0
-5.08845 4.59461 0
-4.64767 6.28212 0
-4.53935 5.3603 0
-3.84414 7.99422 0
-3.82718 6.84648 0
-2.78361 8.42377 0
-1.64915 -0.137908 0
-1.45035 -0.890641 0
-2.48927 0.507287 0
-3.25384 1.44425 0
-3.23927 3.31681 0
-2.91118 2.37193 0
-1.35519 0.627143 0
-2.53702 9.7049 0
3.93313 -7.88785 0
2.96488 -7.15855 0
0.954178 -5.82257 0
2.07457 -6.41623 0
-1.68307 -1.99218 0
-1.43453 -3.278 0
0.0902259 -4.74737 0
-0.566214 -3.69469 0
4.93271 -7.31964 0
5.04775 -8.60636 0
-3.7773 4.55205 0
-3.73518 5.75279 0
-2.88832 7.29075 0
-3.01005 6.35448 0
-1.66275 8.73469 0
-1.94035 7.6203 0
-2.33857 4.05201 0
-0.730774 -1.32733 0
-0.836946 -0.257641 0
-1.93633 1.68088 0
-2.12592 2.87605 0
-1.30667 3.54496 0
-0.869512 1.35091 0
-0.282383 0.456073 0
-0.533584 8.87278 0
-1.25467 9.95997 0
1.11288 -4.575 0
3.91063 -6.71816 0
2.98828 -6.09552 0
2.11808 -5.42554 0
4.78507 -6.20619 0
-0.558888 -2.47698 0
0.495147 -3.46409 0
0.0535556 -1.61058 0
1.48202 -3.68247 0
5.86795 -6.61555 0
6.13487 -7.87996 0
-2.47594 5.34904 0
-2.13072 6.53528 0
-0.904193 7.80436 0
-1.27251 6.93297 0
0.0862155 7.88148 0
-1.14456 4.49512 0
0.150329 -0.617681 0
-0.797481 2.48867 0
-0.331675 3.60102 0
0.0631095 1.51282 0
0.741481 0.473449 0
0.646873 8.87547 0
0.0500011 10.0455 0
2.38125 -4.28568 0
3.8597 -5.64122 0
3.00183 -5.21341 0
5.57461 -5.49266 0
4.69171 -5.28383 0
0.629717 -2.29352 0
1.25628 -2.95146 0
0.757546 -1.39154 0
2.16454 -3.13611 0
2.9941 -3.47696 0
6.15617 -4.79257 0
6.65662 -5.77021 0
7.11789 -7.01789 0
-1.01975 5.82105 0
-0.372671 6.88459 0
1.12281 7.7708 0
0.558059 7.08089 0
-0.000765349 4.72567 0
0.607058 3.82819 0
1.33901 -0.641937 0
0.53914 2.65126 0
0.966151 1.57505 0
1.91034 0.213883 0
1.61489 1.06511 0
2.12977 7.58489 0
1.79951 8.71385 0
1.35467 9.95998 0
3.82334 -4.35219 0
5.11741 -4.44975 0
5.84675 -3.93582 0
3.78447 -3.20146 0
1.81244 -1.88278 0
3.01949 -2.57417 0
6.78463 -3.9486 0
7.38278 -4.89768 0
7.97991 -6.03484 0
0.483425 5.88238 0
1.42842 6.74309 0
2.37478 6.67033 0
1.21013 4.55675 0
1.48834 3.39801 0
2.43604 -0.692088 0
2.82836 0.14262 0
1.78907 2.16306 0
2.61217 1.15027 0
3.07264 7.17156 0
2.90479 8.37846 0
2.63703 9.7049 0
4.91207 -3.32841 0
6.12187 -3.10927 0
4.17346 -2.27557 0
3.24484 -1.50308 0
6.73275 -2.31351 0
7.23362 -3.04319 0
7.96658 -3.91307 0
8.70634 -4.94774 0
2.02396 5.60077 0
3.08716 6.15492 0
2.36426 4.12752 0
2.4204 3.06129 0
3.52616 -0.460918 0
3.61621 0.613373 0
2.96224 2.28839 0
3.54611 1.52549 0
4.01318 5.89959 0
3.98553 6.79499 0
3.97434 7.94077 0
3.87513 9.28465 0
5.56993 -1.91653 0
4.50997 -1.12978 0
6.71566 -1.33644 0
7.5946 -2.03696 0
8.39943 -2.86212 0
9.28462 -3.77511 0
3.41987 4.87808 0
3.3396 3.38598 0
4.69211 0.130099 0
4.52001 1.31021 0
4.06608 2.44426 0
4.57198 5.15405 0
4.84528 6.19282 0
4.98202 7.38278 0
5.04776 8.70636 0
5.88495 -0.435004 0
7.01312 -0.488391 0
7.76211 -1.08563 0
8.68761 -1.74648 0
9.70492 -2.53704 0
4.55368 3.82861 0
5.81939 1.09889 0
5.37278 2.53565 0
5.3821 4.62232 0
5.61431 5.52565 0
5.89935 6.67434 0
6.13492 7.98002 0
6.84862 0.463702 0
7.85636 -0.0256463 0
8.86366 -0.584548 0
9.95999 -1.25468 0
6.96328 1.34998 0
5.72336 3.77995 0
6.54409 2.19837 0
6.38288 3.08927 0
6.29515 4.68899 0
6.69581 5.8402 0
7.11783 7.11783 0
7.78765 0.968013 0
8.86301 0.572976 0
10.0455 0.0499997 0
7.61956 2.00517 0
6.83226 3.90602 0
7.27283 2.94811 0
7.38147 4.88784 0
7.97997 6.13488 0
8.72661 1.72762 0
9.96002 1.35468 0
8.42453 2.83896 0
7.98502 3.91796 0
8.70638 5.04776 0
9.70491 2.63703 0
9.28464 3.87512 0
CELLS 542 2168
3 2 0 4
3 0 1 7
3 4 0 7
3 1 5 8
3 7 1 8
3 3 2 13
3 13 2 4
3 11 3 14
3 14 3 13
3 13 4 15
3 4 7 16
3 15 4 16
3 5 6 17
3 8 5 17
3 6 9 18
3 17 6 18
3 7 8 19
3 16 7 19
3 8 17 20
3 19 8 20
3 9 10 23
3 18 9 23
3 10 21 24
3 23 10 24
3 12 11 25
3 25 11 14
3 26 12 27
3 27 12 25
3 14 13 29
3 29 13 15
3 25 14 30
3 30 14 29
3 29 15 31
3 15 16 33
3 31 15 33
3 16 19 34
3 33 16 34
3 17 18 35
3 20 17 35
3 18 23 36
3 35 18 36
3 19 20 37
3 34 19 37
3 20 35 38
3 37 20 38
3 21 22 39
3 24 21 39
3 22 32 40
3 39 22 40
3 23 24 41
3 36 23 41
3 24 39 42
3 41 24 42
3 27 25 44
3 44 25 30
3 28 26 45
3 45 26 27
3 45 27 46
3 46 27 44
3 47 28 48
3 48 28 45
3 30 29 50
3 50 29 31
3 44 30 51
3 51 30 50
3 50 31 52
3 31 33 52
3 32 43 53
3 40 32 53
3 53 43 54
3 33 34 55
3 34 37 55
3 33 55 52
3 35 36 56
3 38 35 56
3 36 41 57
3 56 36 57
3 37 38 58
3 38 56 58
3 37 58 55
3 39 40 59
3 42 39 59
3 40 53 60
3 59 40 60
3 41 42 61
3 57 41 61
3 42 59 62
3 61 42 62
3 43 63 54
3 46 44 64
3 64 44 51
3 48 45 65
3 65 45 46
3 65 46 66
3 66 46 64
3 49 47 67
3 67 47 48
3 67 48 68
3 68 48 65
3 69 49 70
3 70 49 67
3 52 55 72
3 64 51 73
3 51 50 73
3 50 52 73
3 73 52 74
3 74 52 72
3 53 54 75
3 60 53 75
3 54 63 76
3 54 76 77
3 75 54 77
3 55 58 78
3 72 55 78
3 72 78 79
3 56 57 80
3 57 61 80
3 56 80 58
3 58 80 81
3 78 58 81
3 59 60 82
3 62 59 82
3 60 75 83
3 82 60 83
3 61 62 84
3 62 82 84
3 61 84 80
3 63 85 76
3 66 64 86
3 64 73 86
3 68 65 87
3 87 65 66
3 87 66 86
3 70 67 88
3 88 67 68
3 88 68 89
3 89 68 87
3 71 69 90
3 90 69 70
3 90 70 91
3 91 70 88
3 92 71 93
3 93 71 90
3 74 72 94
3 94 72 79
3 86 73 95
3 95 73 74
3 95 74 96
3 96 74 94
3 97 86 95
3 76 85 99
3 75 77 100
3 83 75 100
3 76 99 101
3 77 76 101
3 77 101 102
3 100 77 102
3 94 79 103
3 78 81 104
3 79 78 104
3 79 104 103
3 80 84 105
3 81 80 105
3 81 105 106
3 104 81 106
3 82 83 107
3 83 100 107
3 82 107 84
3 84 107 108
3 105 84 108
3 85 109 99
3 89 87 110
3 87 86 110
3 110 86 97
3 91 88 111
3 111 88 89
3 111 89 110
3 93 90 112
3 112 90 91
3 112 91 113
3 113 91 111
3 98 92 114
3 114 92 93
3 114 93 115
3 115 93 112
3 116 98 114
3 117 103 118
3 96 94 119
3 94 103 119
3 119 103 117
3 97 95 120
3 120 95 96
3 120 96 119
3 121 110 97
3 121 97 122
3 122 97 120
3 123 119 117
3 124 98 116
3 99 109 125
3 99 125 126
3 101 99 126
3 100 102 127
3 100 127 107
3 101 126 128
3 102 101 128
3 102 128 127
3 104 106 129
3 104 129 103
3 103 129 118
3 105 108 130
3 106 105 130
3 106 130 129
3 107 127 131
3 108 107 131
3 108 131 132
3 108 132 130
3 109 134 125
3 125 134 133
3 113 111 135
3 111 110 135
3 135 110 121
3 115 112 136
3 136 112 113
3 136 113 135
3 116 114 137
3 137 114 115
3 137 115 138
3 138 115 136
3 139 124 116
3 139 116 140
3 140 116 137
3 141 135 121
3 118 129 142
3 118 142 143
3 117 118 143
3 123 117 143
3 122 120 144
3 120 119 144
3 144 119 123
3 141 121 145
3 145 121 122
3 145 122 144
3 146 141 145
3 147 144 123
3 147 123 148
3 143 148 123
3 150 124 139
3 149 150 139
3 131 127 151
3 125 133 152
3 126 125 152
3 126 152 153
3 128 126 153
3 128 153 154
3 128 154 127
3 127 154 151
3 152 133 155
3 130 132 156
3 130 156 129
3 129 156 142
3 131 151 157
3 132 131 157
3 132 157 156
3 156 158 142
3 157 151 159
3 133 160 155
3 134 161 133
3 133 161 160
3 138 136 162
3 136 135 162
3 162 135 141
3 140 137 163
3 163 137 138
3 163 138 162
3 149 139 164
3 164 139 140
3 164 140 165
3 165 140 163
3 166 149 164
3 167 162 141
3 167 141 146
3 142 158 168
3 143 142 168
3 143 168 148
3 146 145 169
3 145 144 169
3 169 144 147
3 170 167 146
3 170 146 169
3 171 169 147
3 171 147 148
3 171 148 172
3 168 172 148
3 173 149 166
3 174 150 149
3 173 174 149
3 154 175 151
3 151 175 159
3 152 155 176
3 153 152 176
3 153 176 177
3 153 177 154
3 154 177 175
3 155 160 178
3 155 178 179
3 176 155 179
3 156 157 180
3 156 180 158
3 157 159 181
3 157 181 180
3 158 180 182
3 158 182 168
3 159 175 183
3 159 183 181
3 175 184 183
3 160 186 178
3 178 186 185
3 161 187 160
3 160 187 186
3 165 163 188
3 163 162 188
3 188 162 167
3 166 164 189
3 189 164 165
3 189 165 188
3 190 173 166
3 190 166 191
3 191 166 189
3 192 188 167
3 192 167 170
3 193 192 170
3 182 194 168
3 194 172 168
3 193 170 195
3 170 169 195
3 195 169 171
3 196 195 171
3 196 171 172
3 194 197 172
3 197 198 172
3 198 196 172
3 200 173 190
3 199 200 190
3 201 174 173
3 200 201 173
3 176 179 202
3 177 176 202
3 177 202 175
3 175 202 184
3 178 185 203
3 178 203 179
3 179 203 202
3 203 185 204
3 202 205 184
3 183 206 181
3 180 181 206
3 180 206 182
3 182 206 194
3 183 184 207
3 205 207 184
3 183 207 206
3 185 208 204
3 186 209 185
3 185 209 208
3 187 210 186
3 186 210 209
3 191 189 211
3 189 188 211
3 211 188 192
3 199 190 212
3 212 190 191
3 212 191 211
3 213 199 212
3 214 211 192
3 214 192 193
3 215 214 193
3 215 193 195
3 206 216 194
3 216 197 194
3 216 217 197
3 215 195 218
3 218 195 196
3 198 218 196
3 217 219 197
3 219 218 198
3 197 219 198
3 220 199 213
3 221 200 199
3 220 221 199
3 222 201 200
3 221 222 200
3 203 204 223
3 203 223 202
3 202 223 205
3 204 208 224
3 204 224 223
3 205 223 225
3 205 225 207
3 207 225 226
3 207 226 206
3 226 216 206
3 208 228 224
3 224 228 227
3 209 229 208
3 229 228 208
3 210 230 209
3 209 230 229
3 213 212 231
3 212 211 231
3 231 211 214
3 232 220 213
3 232 213 231
3 233 231 214
3 233 214 215
3 234 233 215
3 234 215 218
3 226 235 216
3 235 217 216
3 235 236 217
3 217 236 219
3 237 234 218
3 237 218 219
3 236 238 219
3 238 237 219
3 240 220 232
3 239 240 232
3 241 221 220
3 240 241 220
3 242 222 221
3 241 242 221
3 224 227 243
3 224 243 223
3 223 243 225
3 225 243 244
3 225 244 226
3 226 244 235
3 227 245 243
3 228 246 227
3 227 246 245
3 229 247 228
3 228 247 246
3 230 248 229
3 229 248 247
3 239 232 249
3 232 231 249
3 249 231 233
3 250 249 233
3 250 233 234
3 237 250 234
3 244 251 235
3 235 251 236
3 251 252 236
3 236 252 238
3 252 253 238
3 253 250 237
3 253 237 238
3 254 239 249
3 255 240 239
3 254 255 239
3 256 241 240
3 255 256 240
3 257 242 241
3 256 257 241
3 245 258 243
3 243 258 244
3 244 258 251
3 245 259 258
3 246 260 245
3 245 260 259
3 247 261 246
3 246 261 260
3 248 262 247
3 247 262 261
3 254 249 263
3 263 249 250
3 253 263 250
3 258 264 251
3 251 264 252
3 264 265 252
3 265 263 253
3 252 265 253
3 266 254 263
3 267 255 254
3 266 267 254
3 268 256 255
3 267 268 255
3 269 257 256
3 268 269 256
3 259 270 258
3 270 264 258
3 260 271 259
3 259 271 270
3 261 272 260
3 260 272 271
3 262 273 261
3 273 272 261
3 270 274 264
3 275 266 263
3 275 263 265
3 274 276 264
3 276 265 264
3 276 277 265
3 277 275 265
3 278 267 266
3 275 278 266
3 279 268 267
3 278 279 267
3 280 269 268
3 279 280 268
3 271 281 270
3 270 281 274
3 272 282 271
3 271 282 281
3 273 283 272
3 272 283 282
3 281 284 274
3 274 284 276
3 285 278 275
3 277 285 275
3 284 286 276
3 286 285 277
3 276 286 277
3 287 279 278
3 285 287 278
3 288 280 279
3 287 288 279
3 282 289 281
3 281 289 284
3 283 290 282
3 282 290 289
3 289 291 284
3 284 291 286
3 291 292 286
3 292 287 285
3 286 292 285
3 293 288 287
3 292 293 287
3 290 294 289
3 289 294 291
3 294 295 291
3 295 293 292
3 291 295 292
CELL_TYPES 542
5
5
5
5
5
5
5
5
5
5
5
5
5
5
5
5
5
5
5
5
5
5
5
5
5
5
5
5
5
5
5
5
5
5
5
5
5
5
5
5
5
5
5
5
5
5
5
5
5
5
5
5
5
5
5
5
5
5
5
5
5
5
5
5
5
5
5
5
5
5
5
5
5
5
5
5
5
5
5
5
5
5
5
5
5
5
5
5
5
5
5
5
5
5
5
5
5
5
5
5
5
5
5
5
5
5
5
5
5
5
5
5
5
5
5
5
5
5
5
5
5
5
5
5
5
5
5
5
5
5
5
5
5
5
5
5
5
5
5
5
5
5
5
5
5
5
5
5
5
5
5
5
5
5
5
5
5
5
5
5
5
5
5
5
5
5
5
5
5
5
5
5
5
5
5
5
5
5
5
5
5
5
5
5
5
5
5
5
5
5
5
5
5
5
5
5
5
5
5
5
5
5
5
5
5
5
5
5
5
5
5
5
5
5
5
5
5
5
5
5
5
5
5
5
5
5
5
5
5
5
5
5
5
5
5
5
5
5
5
5
5
5
5
5
5
5
5
5
5
5
5
5
5
5
5
5
5
5
5
5
5
5
5
5
5
5
5
5
5
5
5
5
5
5
5
5
5
5
5
5
5
5
5
5
5
5
5
5
5
5
5
5
5
5
5
5
5
5
5
5
5
5
5
5
5
5
5
5
5
5
5
5
5
5
5
5
5
5
5
5
5
5
5
5
5
5
5
5
5
5
5
5
5
5
5
5
5
5
5
5
5
5
5
5
5
5
5
5
5
5
5
5
5
5
5
5
5
5
5
5
5
5
5
5
5
5
5
5
5
5
5
5
5
5
5
5
5
5
5
5
5
5
5
5
5
5
5
5
5
5
5
5
5
5
5
5
5
5
5
5
5
5
5
5
5
5
5
5
5
5
5
5
5
5
5
5
5
5
5
5
5
5
5
5
5
5
5
5
5
5
5
5
5
5
5
5
5
5
5
5
5
5
5
5
5
5
5
5
5
5
5
5
5
5
5
5
5
5
5
5
5
5
5
5
5
5
5
5
5
5
5
5
5
5
5
5
5
5
5
5
5
5
5
5
5
5
5
5
5
5
5
5
5
5
5
5
5
5
5
5
5
5
5
5
5
5
5
5
5
5
5
5
5
5
5
5
5
5
5
5
5
5
5
5
5
5
5
5
5
5
5
5
5
5
5
5
5
5
5
5
5
5
POINT_DATA 296
SCALARS concentrations float 4
LOOKUP_TABLE default
0 0.999114 0.227066 15.2356
0 0.999094 0.227202 16.6561
0 0.999084 0.226518 16.2684
0 0.999057 0.22465 18.8918
0 0.9991 0.0909008 0.00617001
0 0.999053 0.226146 16.6336
0 0.99904 0.22495 19.6307
0 0.999106 0.090898 0.005602
0 0.999081 0.0909048 0.00591037
0 0.999068 0.226 16.3131
0 0.999083 0.226369 16.3172
0 0.999072 0.224554 15.9004
0 0.999093 0.224023 17.8239
0 0.999073 0.0909054 0.00504643
0 0.999069 0.0909043 0.00403933
0 0.999094 0.0908894 0.00192086
0 0.9991 0.0908868 0.00240548
0 0.999059 0.0909123 0.00700803
0 0.999066 0.0909012 0.00533199
0 0.999099 0.0908884 0.0016633
0 0.999093 0.0908901 0.00187924
0 0.999069 0.227548 17.5975
0 0.999057 0.227851 19.5453
0 0.999085 0.0908881 0.00108673
0 0.999081 0.0909029 0.00284963
0 0.999085 0.0909069 0.00444694
0 0.999091 0.223978 15.7705
0 0.999091 0.0909035 0.00421489
0 0.999091 0.224831 16.0582
0 0.999088 0.0908913 0.00269639
0 0.999088 0.0908912 0.00212698
0 0.9991 0.0908855 0.000358761
0 0.999085 0.225165 17.6357
0 0.999102 0.0908844 0.00111764
0 0.999102 0.090885 0.00155483
0 0.99909 0.0908908 0.00249225
0 0.999094 0.0908883 0.0012846
0 0.999103 0.0908847 0.00130429
0 0.999102 0.0908857 0.000913592
0 0.999065 0.0909257 0.00282491
0 0.99907 0.0909325 0.00496144
0 0.999094 0.0908883 0.0013742
0 0.999085 0.0908946 0.00343975
0 0.999105 0.224394 14.1967
0 0.999091 0.0908892 0.00063139
0 0.99909 0.0908869 0.00169592
0 0.999093 0.0908876 0.000783597
0 0.999094 0.2239 16.2121
0 0.999094 0.0908855 0.00127848
0 0.999103 0.223291 15.1058
0 0.9991 0.0908846 0.000151369
0 0.999099 0.0908853 5.3577e-05
0 0.999104 0.0908817 0.000960942
0 0.999094 0.0909111 0.00546001
0 0.999103 0.0908998 0.00379813
0 0.999104 0.0908817 0.00106136
0 0.999103 0.0908848 0.00109645
0 0.999102 0.0908853 0.00096407
0 0.999105 0.0908819 0.00127986
0 0.99908 0.0908985 0.00406622
0 0.999087 0.0908944 0.00302728
0 0.999101 0.0908854 0.000722426
0 0.999097 0.0908873 0.00128097
0 0.999103 0.223242 15.6398
0 0.9991 0.0908843 0.000503323
0 0.999096 0.0908864 0.00123029
0 0.9991 0.090885 0.000883812
0 0.999099 0.090891 0.00207954
0 0.999099 0.0908866 0.00198932
0 0.999119 0.221932 15.0662
0 0.999108 0.0909045 0.00396947
0 0.999137 0.222255 13.0892
0 0.999106 0.0908807 0.000927893
0 0.999104 0.0908817 0.000881237
0 0.999106 0.0908807 0.000935895
0 0.999097 0.0908881 0.00235654
0 0.999098 0.0908905 0.00319051
0 0.999099 0.0908873 0.00265503
0 0.999106 0.0908807 0.000945016
0 0.999107 0.0908803 0.000810156
0 0.999105 0.090882 0.00122524
0 0.999106 0.0908808 0.00102876
0 0.999098 0.0908852 0.000603275
0 0.999099 0.0908853 0.000787102
0 0.999104 0.0908821 0.000857406
0 0.999097 0.22384 16.2715
0 0.999104 0.0908816 0.000865989
0 0.999101 0.0908845 0.00127649
0 0.999102 0.0908889 0.00342304
0 0.999101 0.0908853 0.00180131
0 0.999123 0.0909166 0.00812555
0 0.999107 0.0908933 0.00541733
0 0.999114 0.22324 15.7788
0 0.99912 0.0909076 0.00799784
0 0.999107 0.09088 0.000771105
0 0.999106 0.0908807 0.000901838
0 0.999107 0.0908802 0.000827825
0 0.999105 0.0908807 0.000774249
0 0.999096 0.223963 15.9111
0 0.999096 0.0908881 0.00298535
0 0.999101 0.0908847 0.00131748
0 0.999097 0.0908857 0.00192497
0 0.9991 0.0908851 0.0015524
0 0.999108 0.0908791 0.000557728
0 0.999107 0.0908801 0.000765741
0 0.999106 0.0908809 0.00102428
0 0.999107 0.0908804 0.000864845
0 0.999104 0.0908821 0.000878692
0 0.999106 0.0908808 0.000957245
0 0.999098 0.223188 15.8558
0 0.999103 0.0908817 0.000846093
0 0.999102 0.090885 0.00193676
0 0.999108 0.0908934 0.00586914
0 0.999102 0.0908865 0.0026484
0 0.999101 0.0908886 0.00341581
0 0.999102 0.0908896 0.00427221
0 0.999095 0.0908853 0.00183751
0 0.999109 0.0908785 0.000462437
0 0.999109 0.0908785 0.000450303
0 0.999108 0.0908789 0.000547845
0 0.999107 0.09088 0.000739958
0 0.999105 0.0908806 0.000651262
0 0.999107 0.0908803 0.000718173
0 0.999109 0.0908781 0.000389478
0 0.999093 0.223632 15.931
0 0.999097 0.0908858 0.00265106
0 0.999097 0.0908854 0.00170782
0 0.999104 0.0908825 0.00109014
0 0.9991 0.0908847 0.00132257
0 0.999108 0.0908791 0.000559446
0 0.999107 0.0908801 0.000805701
0 0.999106 0.0908809 0.000915239
0 0.999107 0.0908801 0.00079216
0 0.999098 0.0908859 0.00266392
0 0.999097 0.223328 15.5705
0 0.999103 0.0908817 0.000723385
0 0.999101 0.0908851 0.00192549
0 0.999098 0.0908864 0.00210057
0 0.9991 0.0908853 0.00166488
0 0.999094 0.0908849 0.00158702
0 0.999097 0.0908859 0.00165294
0 0.999105 0.0908806 0.000649609
0 0.999109 0.0908782 0.000387756
0 0.99911 0.0908774 0.000258736
0 0.999108 0.0908789 0.00051246
0 0.999107 0.09088 0.000644239
0 0.999107 0.0908803 0.000715715
0 0.999109 0.090878 0.000361175
0 0.99911 0.0908768 0.000141814
0 0.999093 0.090885 0.00120698
0 0.999092 0.224443 16.0195
0 0.999106 0.090881 0.000889325
0 0.999098 0.0908854 0.00198241
0 0.9991 0.090885 0.00144199
0 0.999104 0.0908826 0.00107261
0 0.999099 0.0908859 0.00203448
0 0.999108 0.0908791 0.000565178
0 0.999108 0.09088 0.000738583
0 0.999109 0.0908783 0.000400205
0 0.999107 0.090881 0.000905156
0 0.999097 0.0908877 0.00308331
0 0.999099 0.22323 15.8219
0 0.999103 0.0908817 0.000791817
0 0.999101 0.0908844 0.00133222
0 0.999098 0.0908858 0.00155745
0 0.999101 0.0908849 0.00151411
0 0.999098 0.0908861 0.00139001
0 0.999105 0.0908807 0.000767129
0 0.99911 0.0908768 0.000135708
0 0.999108 0.0908788 0.000498677
0 0.999107 0.0908801 0.000734846
0 0.999109 0.0908778 0.000324734
0 0.99911 0.090877 0.000169097
0 0.999091 0.0908878 0.000633271
0 0.999089 0.222936 16.265
0 0.999105 0.0908813 0.000944553
0 0.999101 0.0908845 0.00151624
0 0.999103 0.090883 0.001174
0 0.999097 0.0908884 0.000966337
0 0.999101 0.0908848 0.00144429
0 0.999109 0.0908788 0.000509302
0 0.999108 0.0908796 0.00064066
0 0.999109 0.0908782 0.000379309
0 0.999107 0.0908805 0.000805202
0 0.999106 0.0908816 0.00104873
0 0.999095 0.0908899 0.000872192
0 0.999077 0.0909112 0.00742477
0 0.999086 0.222071 16.0119
0 0.999104 0.0908817 0.000987448
0 0.999102 0.0908843 0.00151194
0 0.999097 0.090886 0.000953782
0 0.999102 0.0908849 0.00161606
0 0.999106 0.0908808 0.000879934
0 0.999107 0.0908805 0.000814973
0 0.99911 0.0908779 0.000315026
0 0.999108 0.0908789 0.000529724
0 0.999109 0.0908782 0.000392046
0 0.999109 0.0908783 0.000406158
0 0.999109 0.0908784 0.000425754
0 0.999097 0.0908863 0.000814374
0 0.999087 0.0908921 0.0013325
0 0.999084 0.223205 15.7137
0 0.999104 0.0908822 0.0011931
0 0.999102 0.0908845 0.00138355
0 0.999102 0.0908855 0.00155199
0 0.999105 0.0908816 0.0010887
0 0.999108 0.0908789 0.000513606
0 0.999107 0.0908805 0.000813021
0 0.999098 0.0908892 0.00109702
0 0.999076 0.0909142 0.00827411
0 0.999056 0.22128 17.7659
0 0.999104 0.0908816 0.00108299
0 0.999102 0.0908844 0.0014565
0 0.999101 0.0908855 0.00157867
0 0.999105 0.0908808 0.0008839
0 0.999107 0.0908803 0.000762828
0 0.999109 0.0908792 0.000560237
0 0.999108 0.0908798 0.000685655
0 0.999108 0.0908793 0.000577185
0 0.999108 0.0908795 0.000639709
0 0.999098 0.0908868 0.00179399
0 0.99909 0.0908892 0.00171616
0 0.999081 0.221624 16.5224
0 0.999104 0.0908822 0.0013293
0 0.999103 0.0908844 0.00169977
0 0.999106 0.090881 0.000960173
0 0.999107 0.09088 0.000719267
0 0.999101 0.0908849 0.00169836
0 0.9991 0.0908867 0.0022065
0 0.999095 0.0908897 0.00179223
0 0.99908 0.224455 15.831
0 0.999104 0.0908816 0.00105461
0 0.999102 0.0908848 0.00189513
0 0.999105 0.0908808 0.000871553
0 0.999107 0.0908806 0.000822879
0 0.999107 0.0908803 0.000782303
0 0.999107 0.0908805 0.000839622
0 0.999107 0.0908805 0.000817731
0 0.999107 0.0908808 0.000893467
0 0.999104 0.0908855 0.0025179
0 0.999104 0.090889 0.00309437
0 0.999099 0.0908883 0.00221387
0 0.999092 0.220612 15.9187
0 0.999104 0.0908818 0.00104717
0 0.999106 0.0908806 0.000822513
0 0.999101 0.0908844 0.0011205
0 0.999098 0.0908869 0.00219941
0 0.999099 0.0908863 0.00266604
0 0.999097 0.224513 15.9075
0 0.999104 0.0908817 0.00119935
0 0.999105 0.0908808 0.000934973
0 0.999106 0.0908805 0.000789509
0 0.999106 0.0908807 0.000868176
0 0.999106 0.0908808 0.000934425
0 0.999104 0.0908848 0.00199042
0 0.999104 0.0908909 0.00209794
0 0.999105 0.090907 0.00108194
0 0.999102 0.222093 15.9634
0 0.999104 0.0908818 0.000796155
0 0.999099 0.0908849 0.000751822
0 0.999095 0.0908872 0.00165903
0 0.999096 0.0908913 0.00358835
0 0.9991 0.222695 15.4623
0 0.999104 0.0908818 0.0012425
0 0.999104 0.0908817 0.000821958
0 0.999104 0.0908817 0.00103472
0 0.999102 0.0908854 0.00147956
0 0.999098 0.0908903 0.00120471
0 0.999085 0.090925 0.00908954
0 0.999094 0.222056 13.6087
0 0.9991 0.0908844 0.00073664
0 0.999094 0.0908875 0.00149727
0 0.999096 0.0908985 0.00469902
0 0.999097 0.221863 15.8737
0 0.999099 0.0908851 0.000844031
0 0.999102 0.0908846 0.0013031
0 0.999101 0.0908845 0.00101513
0 0.999101 0.0908852 0.00121549
0 0.999095 0.090888 0.000730972
0 0.999075 0.0909107 0.00668825
0 0.999059 0.220547 18.0416
0 0.999094 0.0908871 0.00156045
0 0.999099 0.0908999 0.00556799
0 0.999103 0.222336 16.4518
0 0.999094 0.0908862 0.00124424
0 0.999096 0.0908862 0.000652966
0 0.999095 0.0908866 0.000922588
0 0.999087 0.0908861 0.000576234
0 0.999075 0.219317 16.4805
0 0.999096 0.0908918 0.00424302
0 0.999102 0.22243 15.0723
0 0.999092 0.0908925 0.00271197
0 0.99909 0.090888 0.00121226
0 0.999086 0.220707 15.6614
0 0.999095 0.22263 16.4208
0 0.99909 0.221932 16.0611
VECTORS fa_u float
0.000447987 0.000185292 0
0.000459264 0.000264525 0
0.000500456 0.000132339 0
0.000596111 7.75687e-05 0
6.54501e-08 1.85099e-07 0
0.000419779 0.00032237 0
0.000440153 0.000443228 0
1.7793e-07 -1.07708e-08 0
2.85958e-08 -1.85881e-07 0
0.000315521 0.00041218 0
0.000258215 0.000450451 0
0.000505946 -1.45894e-06 0
0.000562323 -7.38675e-05 0
-1.17058e-07 1.0992e-07 0
-9.94089e-08 -8.14745e-08 0
-2.42471e-08 5.61063e-08 0
6.09343e-08 4.63221e-08 0
-1.54632e-07 -1.60673e-07 0
-1.66388e-07 -3.31752e-08 0
5.26909e-08 -4.98534e-09 0
-2.0542e-08 -5.61582e-08 0
0.000213492 0.000517655 0
0.000163075 0.000600168 0
-3.17237e-08 1.37604e-08 0
9.06167e-08 -3.25176e-09 0
8.24179e-08 -1.15021e-07 0
0.000485283 -0.000127752 0
1.34091e-07 2.64809e-09 0
0.000472424 -0.000194692 0
-8.53684e-08 8.58439e-09 0
-6.46814e-08 -1.9924e-08 0
6.58227e-09 9.327e-09 0
7.47964e-05 0.000556159 0
3.1123e-08 1.72073e-08 0
4.26173e-08 2.51296e-08 0
-6.22499e-08 -4.9132e-08 0
-3.78399e-08 -1.54585e-08 0
3.294e-08 2.52466e-08 0
2.1106e-08 1.99907e-08 0
7.82303e-08 -4.42711e-08 0
-1.472e-07 5.70597e-08 0
2.31824e-08 -3.70759e-08 0
2.47517e-08 -1.06617e-07 0
1.05441e-06 0.000451737 0
-1.4038e-08 -1.43727e-08 0
4.25465e-08 -3.31953e-08 0
9.36083e-09 -2.31102e-08 0
0.000447781 -0.000256147 0
3.04012e-08 -2.70318e-08 0
0.000381146 -0.00029286 0
4.36152e-09 2.04358e-09 0
-1.47783e-09 8.49956e-10 0
3.02926e-08 4.16167e-09 0
-8.62118e-08 1.50838e-07 0
-2.01983e-09 1.20839e-07 0
3.00916e-08 1.53321e-08 0
2.17085e-08 2.73128e-08 0
2.3498e-08 1.97205e-08 0
2.94482e-08 2.81305e-08 0
-3.98493e-08 -1.23098e-07 0
-8.75028e-08 -4.0278e-08 0
2.29863e-08 2.35752e-10 0
4.26529e-09 -4.05365e-08 0
-6.67573e-05 0.000493159 0
1.53053e-08 -4.71708e-09 0
2.66307e-08 -2.86943e-08 0
2.40266e-08 -1.46156e-08 0
1.42179e-08 -6.46252e-08 0
4.45566e-08 -4.49622e-08 0
0.000338952 -0.000339031 0
3.6468e-08 -1.20929e-07 0
0.000253466 -0.000330493 0
2.86918e-08 6.96669e-09 0
2.80342e-08 -6.11656e-10 0
2.97704e-08 7.61048e-10 0
-4.82384e-08 5.74091e-08 0
1.36858e-08 1.00595e-07 0
-1.15438e-09 8.4475e-08 0
2.5267e-08 1.63035e-08 0
2.39318e-08 9.58278e-09 0
2.44532e-08 3.0365e-08 0
2.2141e-08 2.41116e-08 0
-1.19436e-08 -1.50281e-08 0
-2.24945e-08 1.10124e-08 0
1.34038e-08 2.37629e-08 0
-0.000134775 0.000499909 0
2.68116e-08 -6.36063e-09 0
3.63933e-08 -1.80372e-08 0
6.75738e-08 -8.54256e-08 0
4.77221e-08 -3.17476e-08 0
9.16449e-08 -2.41767e-07 0
1.01091e-07 -1.39625e-07 0
0.000250392 -0.000435186 0
2.31108e-07 -1.06557e-07 0
2.42713e-08 3.59744e-09 0
2.83527e-08 -4.42802e-09 0
2.6267e-08 -1.97677e-09 0
2.32391e-08 -8.17931e-09 0
0.000193813 -0.000467723 0
-3.95127e-08 8.6386e-08 0
-6.91802e-09 4.13474e-08 0
-6.54198e-09 6.0902e-08 0
-3.73715e-09 4.92558e-08 0
1.65052e-08 6.52135e-09 0
1.8932e-08 1.53386e-08 0
1.64295e-08 2.81485e-08 0
1.63278e-08 2.21521e-08 0
3.08335e-09 2.77894e-08 0
9.44449e-09 2.89583e-08 0
-0.000191999 0.000466568 0
2.4525e-08 -1.11064e-08 0
4.6931e-08 -3.99428e-08 0
1.25278e-07 -1.38503e-07 0
5.57145e-08 -6.32269e-08 0
9.25907e-08 -5.69268e-08 0
1.01344e-07 -9.06061e-08 0
2.55712e-08 -5.25811e-08 0
1.44947e-08 2.53482e-09 0
1.18948e-08 7.98892e-09 0
1.73931e-08 -1.17e-09 0
2.25812e-08 -6.66908e-09 0
1.64186e-08 -1.26443e-08 0
1.95055e-08 -1.19063e-08 0
1.19999e-08 -3.09743e-09 0
0.000131439 -0.000489586 0
-3.24635e-08 7.78597e-08 0
-2.514e-08 4.8178e-08 0
-2.7429e-09 3.45794e-08 0
-1.24346e-08 4.02052e-08 0
1.11208e-08 1.39004e-08 0
9.63387e-09 2.37584e-08 0
2.00066e-09 2.9054e-08 0
4.3577e-09 2.48269e-08 0
-6.15754e-08 5.82556e-08 0
-0.000247504 0.000429201 0
1.54056e-08 -1.71026e-08 0
3.64641e-08 -4.92367e-08 0
3.20997e-08 -5.86275e-08 0
2.29541e-08 -4.77453e-08 0
7.32594e-09 -4.99648e-08 0
7.02905e-09 -5.21247e-08 0
9.51278e-09 -1.83515e-08 0
5.83345e-09 1.08722e-08 0
7.47591e-09 3.44851e-09 0
1.38128e-08 -8.66637e-09 0
1.33265e-08 -1.55769e-08 0
8.18425e-09 -2.12526e-08 0
7.66261e-09 -8.56524e-09 0
3.20227e-09 -3.17932e-09 0
1.47843e-08 -3.54465e-08 0
6.63633e-05 -0.000505402 0
-5.85017e-09 2.76869e-08 0
-3.74561e-08 5.07556e-08 0
-2.26005e-08 3.9932e-08 0
-1.11574e-08 3.22553e-08 0
-3.78372e-08 5.25283e-08 0
3.55075e-09 1.76299e-08 0
-1.98773e-09 2.34174e-08 0
7.31258e-11 1.27343e-08 0
-9.59678e-09 2.71561e-08 0
-3.24947e-08 9.25734e-08 0
-0.000307537 0.000398604 0
5.95546e-09 -2.44816e-08 0
5.56133e-09 -4.20249e-08 0
1.2589e-09 -4.95421e-08 0
1.70898e-09 -4.81486e-08 0
-2.37812e-10 -4.42294e-08 0
3.79148e-09 -2.41137e-08 0
-9.2996e-10 4.2169e-09 0
6.37243e-09 -1.45321e-08 0
3.27381e-09 -2.31524e-08 0
1.20834e-09 -1.02621e-08 0
-4.25207e-09 -3.29718e-09 0
2.0139e-08 -6.85164e-10 0
1.09661e-06 -0.00051755 0
-1.56057e-08 2.56866e-08 0
-2.97361e-08 3.79933e-08 0
-2.145e-08 3.05844e-08 0
1.14345e-08 2.85436e-08 0
-3.19243e-08 3.30592e-08 0
-3.75212e-09 1.57656e-08 0
-8.23901e-09 1.86466e-08 0
-6.69697e-09 1.00412e-08 0
-1.50276e-08 2.07516e-08 0
-2.22022e-08 2.49129e-08 0
1.77344e-08 -2.13477e-08 0
2.26031e-07 6.87515e-08 0
-0.000359493 0.000361045 0
8.23961e-10 -3.14097e-08 0
-1.31298e-09 -4.80918e-08 0
4.63397e-09 -2.99934e-08 0
-4.35957e-09 -5.12379e-08 0
-6.66294e-10 -2.79915e-08 0
-2.88629e-09 -2.57713e-08 0
-9.11373e-09 4.17407e-09 0
-1.9009e-09 -1.67483e-08 0
-4.91489e-09 -1.14659e-08 0
-1.27385e-08 -2.18116e-09 0
-1.05052e-08 -8.55424e-09 0
-6.19344e-09 -2.51623e-08 0
2.96334e-08 3.03253e-08 0
-6.68916e-05 -0.000495515 0
-2.74043e-08 2.62734e-08 0
-3.52292e-08 2.64018e-08 0
-4.28733e-08 2.45088e-08 0
-2.70263e-08 2.16718e-08 0
-1.25537e-08 1.04639e-08 0
-2.08331e-08 1.5338e-08 0
-2.24232e-08 -2.67526e-08 0
6.04139e-08 -2.56256e-07 0
-0.000447597 0.000345297 0
-3.89251e-09 -3.42401e-08 0
-5.97994e-09 -4.59583e-08 0
-1.74075e-08 -4.71204e-08 0
-6.50317e-09 -2.73635e-08 0
-8.67281e-09 -2.26708e-08 0
-1.7194e-08 4.70707e-09 0
-2.17195e-08 -2.06549e-09 0
-1.08432e-08 -1.48234e-08 0
-1.81509e-08 -9.21369e-09 0
-4.38499e-08 -3.65492e-08 0
-5.36047e-08 1.04197e-08 0
-0.000137387 -0.000507473 0
-3.44556e-08 2.4535e-08 0
-4.58785e-08 2.86447e-08 0
-2.71594e-08 1.39939e-08 0
-2.16198e-08 7.50998e-09 0
-4.54485e-08 2.92392e-08 0
-6.29555e-08 3.10831e-08 0
-4.53056e-08 -3.46361e-08 0
-0.000434696 0.000254547 0
-1.10069e-08 -3.17013e-08 0
-3.40227e-08 -4.97886e-08 0
-1.35043e-08 -2.42227e-08 0
-1.56701e-08 -2.09773e-08 0
-2.48448e-08 1.54541e-09 0
-2.61814e-08 -5.32133e-09 0
-2.05614e-08 -1.5946e-08 0
-2.6092e-08 -1.12905e-08 0
-5.10188e-08 -6.17753e-08 0
-7.00573e-08 -6.91872e-08 0
-6.19929e-08 -3.34577e-08 0
-0.000194027 -0.000467897 0
-2.98136e-08 1.48803e-08 0
-2.54961e-08 5.91101e-09 0
-3.1619e-08 1.64758e-08 0
-5.75407e-08 3.9837e-08 0
-8.32949e-08 1.60812e-08 0
-0.00046766 0.000193669 0
-2.45122e-08 -2.92503e-08 0
-2.16671e-08 -2.03874e-08 0
-2.50307e-08 -2.14101e-09 0