# vtk DataFile Version 2.0
CellBP Time: 3.24
ASCII
DATASET UNSTRUCTURED_GRID
POINTS 296 double
-9.18316 -3.7745 0
-8.60499 -4.94695 0
-9.60353 -2.53666 0
-9.85845 -1.25447 0
-8.35806 -2.81887 0
-7.87867 -6.03387 0
-7.01678 -7.01678 0
-7.9177 -3.87494 0
-7.34311 -4.86814 0
-6.03391 -7.87871 0
-4.94697 -8.60499 0
-9.94393 0.0500026 0
-9.85849 1.35448 0
-8.65817 -1.68403 0
-8.78681 -0.529654 0
-7.59019 -2.00427 0
-7.22622 -2.90667 0
-6.63806 -5.77925 0
-5.82279 -6.59733 0
-6.79073 -3.88917 0
-6.22101 -4.67624 0
-3.77456 -9.1833 0
-2.53661 -9.6033 0
-4.9068 -7.30929 0
-3.91327 -7.88676 0
-8.79327 0.643435 0
-9.60363 2.63669 0
-8.62379 1.77418 0
-9.18319 3.87452 0
-7.7448 -0.929039 0
-7.79503 0.0802595 0
-6.95302 -1.31596 0
-1.25447 -9.85841 0
-6.44191 -2.15326 0
-6.31981 -3.05633 0
-5.53692 -5.47496 0
-4.79625 -6.11591 0
-5.65942 -3.75726 0
-5.26977 -4.56191 0
-2.86636 -8.3645 0
-1.77868 -8.64083 0
-3.92842 -6.72404 0
-3.05684 -7.15313 0
0.0499983 -9.94405 0
-7.70604 1.14359 0
-8.33912 2.91561 0
-7.55243 2.11211 0
-8.60501 5.04698 0
-7.88059 3.9785 0
-7.87873 6.13393 0
-6.77917 -0.396882 0
-6.95704 0.552581 0
-5.77177 -1.00347 0
-0.590878 -8.81033 0
0.565721 -8.77152 0
-5.30346 -2.48043 0
-4.49229 -5.0961 0
-3.90278 -5.77575 0
-4.4392 -3.805 0
-2.06257 -7.56253 0
-1.13557 -7.78645 0
-2.99477 -6.10252 0
-2.3092 -6.6203 0
1.35447 -9.85841 0
-6.68995 1.42215 0
-7.17274 3.11836 0
-6.65977 2.37319 0
-7.29528 4.98903 0
-6.71862 4.00338 0
-7.01676 7.11677 0
-6.57301 5.89461 0
-6.03393 7.97874 0
-4.45338 -1.18114 0
-5.81499 0.513792 0
-4.65644 -0.0103822 0
0.00852165 -7.84875 0
1.73869 -8.6445 0
0.949042 -7.7641 0
-4.03876 -2.40653 0
-3.48576 -1.39128 0
-3.29473 -4.80567 0
-3.26607 -3.26799 0
-1.37869 -6.676 0
-0.508782 -7.02553 0
-1.97569 -5.53742 0
2.63663 -9.60342 0
-5.50773 2.03707 0
-6.09523 3.07247 0
-6.10565 4.87008 0
-5.76225 3.99184 0
-5.76182 6.71776 0
-5.45266 5.61991 0
-4.94697 8.70501 0
-4.83893 7.40528 0
-3.50171 -0.42433 0
-4.4496 1.24912 0
-3.7117 0.59211 0
-4.06245 2.31997 0
-3.77455 9.28328 0
2.86287 -8.33364 0
0.419726 -6.79606 0
2.02222 -7.52659 0
1.30621 -6.90625 0
-2.44481 -0.873865 0
-2.83855 -2.13127 0
-2.29456 -4.09766 0
-2.3258 -2.97379 0
-0.442421 -5.86165 0
-1.22281 -4.49946 0
3.87452 -9.18321 0
-4.79019 3.39208 0
-5.08845 4.59461 0
-4.64767 6.28212 0
-4.53935 5.3603 0
-3.84414 7.99422 0
-3.82718 6.84648 0
-2.78361 8.42377 0
-1.64915 -0.137908 0
-1.45035 -0.890641 0
-2.48927 0.507287 0
-3.25384 1.44425 0
-3.23927 3.31681 0
-2.91118 2.37193 0
-1.35519 0.627143 0
-2.53662 9.7034 0
3.93312 -7.88785 0
2.96488 -7.15855 0
0.954178 -5.82257 0
2.07457 -6.41622 0
-1.68307 -1.99218 0
-1.43453 -3.278 0
0.0902259 -4.74737 0
-0.566214 -3.69469 0
4.93271 -7.31964 0
5.04696 -8.605 0
-3.7773 4.55205 0
-3.73518 5.75279 0
-2.88832 7.29075 0
-3.01005 6.35447 0
-1.66275 8.73469 0
-1.94035 7.6203 0
-2.33857 4.05201 0
-0.730774 -1.32733 0
-0.836946 -0.257641 0
-1.93633 1.68088 0
-2.12592 2.87605 0
-1.30667 3.54496 0
-0.869512 1.35091 0
-0.282383 0.456073 0
-0.533584 8.87278 0
-1.25447 9.95843 0
1.11288 -4.575 0
3.91063 -6.71816 0
2.98828 -6.09552 0
2.11808 -5.42554 0
4.78507 -6.20619 0
-0.558888 -2.47698 0
0.495147 -3.46409 0
0.0535556 -1.61058 0
1.48202 -3.68247 0
5.86795 -6.61555 0
6.13393 -7.87874 0
-2.47594 5.34904 0
-2.13072 6.53528 0
-0.904193 7.80436 0
-1.27251 6.93297 0
0.0862155 7.88148 0
-1.14456 4.49512 0
0.150329 -0.617681 0
-0.797481 2.48867 0
-0.331675 3.60102 0
0.0631095 1.51282 0
0.741481 0.473449 0
0.646873 8.87547 0
0.0499993 10.044 0
2.38125 -4.28568 0
3.8597 -5.64122 0
3.00183 -5.21341 0
5.57461 -5.49266 0
4.6917 -5.28383 0
0.629717 -2.29352 0
1.25628 -2.95146 0
0.757546 -1.39154 0
2.16454 -3.13611 0
2.9941 -3.47696 0
6.15617 -4.79257 0
6.65662 -5.77021 0
7.11679 -7.0168 0
-1.01975 5.82105 0
-0.372671 6.88459 0
1.12281 7.7708 0
0.558059 7.08089 0
-0.000765344 4.72567 0
0.607058 3.82819 0
1.33901 -0.641937 0
0.53914 2.65126 0
0.966151 1.57505 0
1.91034 0.213883 0
1.61489 1.06511 0
2.12977 7.58489 0
1.79951 8.71385 0
1.35447 9.95844 0
3.82334 -4.35219 0
5.11741 -4.44975 0
5.84675 -3.93582 0
3.78447 -3.20146 0
1.81244 -1.88278 0
3.01949 -2.57417 0
6.78463 -3.9486 0
7.38278 -4.89768 0
7.97872 -6.03392 0
0.483425 5.88238 0
1.42842 6.74309 0
2.37478 6.67033 0
1.21013 4.55675 0
1.48834 3.39801 0
2.43604 -0.692088 0
2.82835 0.14262 0
1.78907 2.16306 0
2.61217 1.15027 0
3.07264 7.17156 0
2.90479 8.37846 0
2.63663 9.70342 0
4.91207 -3.32841 0
6.12187 -3.10927 0
4.17346 -2.27557 0
3.24484 -1.50308 0
6.73275 -2.31351 0
7.23362 -3.04319 0
7.96658 -3.91307 0
8.70506 -4.947 0
2.02396 5.60077 0
3.08716 6.15492 0
2.36426 4.12752 0
2.4204 3.06129 0
3.52616 -0.460918 0
3.61621 0.613373 0
2.96224 2.28839 0
3.54611 1.52549 0
4.01318 5.89959 0
3.98553 6.79499 0
3.97434 7.94077 0
3.87453 9.28323 0
5.56993 -1.91653 0
4.50997 -1.12978 0
6.71566 -1.33644 0
7.5946 -2.03696 0
8.39943 -2.86212 0
9.28317 -3.77451 0
3.41987 4.87808 0
3.3396 3.38598 0
4.69211 0.130099 0
4.52001 1.31021 0
4.06608 2.44426 0
4.57198 5.15405 0
4.84528 6.19282 0
4.98202 7.38278 0
5.04698 8.70501 0
5.88495 -0.435004 0
7.01312 -0.488391 0
7.76211 -1.08563 0
8.68761 -1.74648 0
9.70345 -2.53664 0
4.55368 3.82861 0
5.81939 1.09889 0
5.37278 2.53565 0
5.3821 4.62232 0
5.61431 5.52565 0
5.89935 6.67434 0
6.13393 7.97872 0
6.84862 0.463702 0
7.85636 -0.0256463 0
8.86366 -0.584548 0
9.95848 -1.25448 0
6.96328 1.34998 0
5.72336 3.77995 0
6.54409 2.19837 0
6.38288 3.08927 0
6.29515 4.68899 0
6.69581 5.8402 0
7.11677 7.11676 0
7.78765 0.968013 0
8.86301 0.572976 0
10.044 0.0500004 0
7.61956 2.00517 0
6.83226 3.90602 0
7.27282 2.94811 0
7.38147 4.88784 0
7.97878 6.13396 0
8.72661 1.72762 0
9.95847 1.35447 0
8.42453 2.83896 0
7.98502 3.91796 0
8.70504 5.04699 0
9.70342 2.63663 0
9.28323 3.87453 0
CELLS 542 2168
3 2 0 4
3 0 1 7
3 4 0 7
3 1 5 8
3 7 1 8
3 3 2 13
3 13 2 4
3 11 3 14
3 14 3 13
3 13 4 15
3 4 7 16
3 15 4 16
3 5 6 17
3 8 5 17
3 6 9 18
3 17 6 18
3 7 8 19
3 16 7 19
3 8 17 20
3 19 8 20
3 9 10 23
3 18 9 23
3 10 21 24
3 23 10 24
3 12 11 25
3 25 11 14
3 26 12 27
3 27 12 25
3 14 13 29
3 29 13 15
3 25 14 30
3 30 14 29
3 29 15 31
3 15 16 33
3 31 15 33
3 16 19 34
3 33 16 34
3 17 18 35
3 20 17 35
3 18 23 36
3 35 18 36
3 19 20 37
3 34 19 37
3 20 35 38
3 37 20 38
3 21 22 39
3 24 21 39
3 22 32 40
3 39 22 40
3 23 24 41
3 36 23 41
3 24 39 42
3 41 24 42
3 27 25 44
3 44 25 30
3 28 26 45
3 45 26 27
3 45 27 46
3 46 27 44
3 47 28 48
3 48 28 45
3 30 29 50
3 50 29 31
3 44 30 51
3 51 30 50
3 50 31 52
3 31 33 52
3 32 43 53
3 40 32 53
3 53 43 54
3 33 34 55
3 34 37 55
3 33 55 52
3 35 36 56
3 38 35 56
3 36 41 57
3 56 36 57
3 37 38 58
3 38 56 58
3 37 58 55
3 39 40 59
3 42 39 59
3 40 53 60
3 59 40 60
3 41 42 61
3 57 41 61
3 42 59 62
3 61 42 62
3 43 63 54
3 46 44 64
3 64 44 51
3 48 45 65
3 65 45 46
3 65 46 66
3 66 46 64
3 49 47 67
3 67 47 48
3 67 48 68
3 68 48 65
3 69 49 70
3 70 49 67
3 52 55 72
3 64 51 73
3 51 50 73
3 50 52 73
3 73 52 74
3 74 52 72
3 53 54 75
3 60 53 75
3 54 63 76
3 54 76 77
3 75 54 77
3 55 58 78
3 72 55 78
3 72 78 79
3 56 57 80
3 57 61 80
3 56 80 58
3 58 80 81
3 78 58 81
3 59 60 82
3 62 59 82
3 60 75 83
3 82 60 83
3 61 62 84
3 62 82 84
3 61 84 80
3 63 85 76
3 66 64 86
3 64 73 86
3 68 65 87
3 87 65 66
3 87 66 86
3 70 67 88
3 88 67 68
3 88 68 89
3 89 68 87
3 71 69 90
3 90 69 70
3 90 70 91
3 91 70 88
3 92 71 93
3 93 71 90
3 74 72 94
3 94 72 79
3 86 73 95
3 95 73 74
3 95 74 96
3 96 74 94
3 97 86 95
3 76 85 99
3 75 77 100
3 83 75 100
3 76 99 101
3 77 76 101
3 77 101 102
3 100 77 102
3 94 79 103
3 78 81 104
3 79 78 104
3 79 104 103
3 80 84 105
3 81 80 105
3 81 105 106
3 104 81 106
3 82 83 107
3 83 100 107
3 82 107 84
3 84 107 108
3 105 84 108
3 85 109 99
3 89 87 110
3 87 86 110
3 110 86 97
3 91 88 111
3 111 88 89
3 111 89 110
3 93 90 112
3 112 90 91
3 112 91 113
3 113 91 111
3 98 92 114
3 114 92 93
3 114 93 115
3 115 93 112
3 116 98 114
3 117 103 118
3 96 94 119
3 94 103 119
3 119 103 117
3 97 95 120
3 120 95 96
3 120 96 119
3 121 110 97
3 121 97 122
3 122 97 120
3 123 119 117
3 124 98 116
3 99 109 125
3 99 125 126
3 101 99 126
3 100 102 127
3 100 127 107
3 101 126 128
3 102 101 128
3 102 128 127
3 104 106 129
3 104 129 103
3 103 129 118
3 105 108 130
3 106 105 130
3 106 130 129
3 107 127 131
3 108 107 131
3 108 131 132
3 108 132 130
3 109 134 125
3 125 134 133
3 113 111 135
3 111 110 135
3 135 110 121
3 115 112 136
3 136 112 113
3 136 113 135
3 116 114 137
3 137 114 115
3 137 115 138
3 138 115 136
3 139 124 116
3 139 116 140
3 140 116 137
3 141 135 121
3 118 129 142
3 118 142 143
3 117 118 143
3 123 117 143
3 122 120 144
3 120 119 144
3 144 119 123
3 141 121 145
3 145 121 122
3 145 122 144
3 146 141 145
3 147 144 123
3 147 123 148
3 143 148 123
3 150 124 139
3 149 150 139
3 131 127 151
3 125 133 152
3 126 125 152
3 126 152 153
3 128 126 153
3 128 153 154
3 128 154 127
3 127 154 151
3 152 133 155
3 130 132 156
3 130 156 129
3 129 156 142
3 131 151 157
3 132 131 157
3 132 157 156
3 156 158 142
3 157 151 159
3 133 160 155
3 134 161 133
3 133 161 160
3 138 136 162
3 136 135 162
3 162 135 141
3 140 137 163
3 163 137 138
3 163 138 162
3 149 139 164
3 164 139 140
3 164 140 165
3 165 140 163
3 166 149 164
3 167 162 141
3 167 141 146
3 142 158 168
3 143 142 168
3 143 168 148
3 146 145 169
3 145 144 169
3 169 144 147
3 170 167 146
3 170 146 169
3 171 169 147
3 171 147 148
3 171 148 172
3 168 172 148
3 173 149 166
3 174 150 149
3 173 174 149
3 154 175 151
3 151 175 159
3 152 155 176
3 153 152 176
3 153 176 177
3 153 177 154
3 154 177 175
3 155 160 178
3 155 178 179
3 176 155 179
3 156 157 180
3 156 180 158
3 157 159 181
3 157 181 180
3 158 180 182
3 158 182 168
3 159 175 183
3 159 183 181
3 175 184 183
3 160 186 178
3 178 186 185
3 161 187 160
3 160 187 186
3 165 163 188
3 163 162 188
3 188 162 167
3 166 164 189
3 189 164 165
3 189 165 188
3 190 173 166
3 190 166 191
3 191 166 189
3 192 188 167
3 192 167 170
3 193 192 170
3 182 194 168
3 194 172 168
3 193 170 195
3 170 169 195
3 195 169 171
3 196 195 171
3 196 171 172
3 194 197 172
3 197 198 172
3 198 196 172
3 200 173 190
3 199 200 190
3 201 174 173
3 200 201 173
3 176 179 202
3 177 176 202
3 177 202 175
3 175 202 184
3 178 185 203
3 178 203 179
3 179 203 202
3 203 185 204
3 202 205 184
3 183 206 181
3 180 181 206
3 180 206 182
3 182 206 194
3 183 184 207
3 205 207 184
3 183 207 206
3 185 208 204
3 186 209 185
3 185 209 208
3 187 210 186
3 186 210 209
3 191 189 211
3 189 188 211
3 211 188 192
3 199 190 212
3 212 190 191
3 212 191 211
3 213 199 212
3 214 211 192
3 214 192 193
3 215 214 193
3 215 193 195
3 206 216 194
3 216 197 194
3 216 217 197
3 215 195 218
3 218 195 196
3 198 218 196
3 217 219 197
3 219 218 198
3 197 219 198
3 220 199 213
3 221 200 199
3 220 221 199
3 222 201 200
3 221 222 200
3 203 204 223
3 203 223 202
3 202 223 205
3 204 208 224
3 204 224 223
3 205 223 225
3 205 225 207
3 207 225 226
3 207 226 206
3 226 216 206
3 208 228 224
3 224 228 227
3 209 229 208
3 229 228 208
3 210 230 209
3 209 230 229
3 213 212 231
3 212 211 231
3 231 211 214
3 232 220 213
3 232 213 231
3 233 231 214
3 233 214 215
3 234 233 215
3 234 215 218
3 226 235 216
3 235 217 216
3 235 236 217
3 217 236 219
3 237 234 218
3 237 218 219
3 236 238 219
3 238 237 219
3 240 220 232
3 239 240 232
3 241 221 220
3 240 241 220
3 242 222 221
3 241 242 221
3 224 227 243
3 224 243 223
3 223 243 225
3 225 243 244
3 225 244 226
3 226 244 235
3 227 245 243
3 228 246 227
3 227 246 245
3 229 247 228
3 228 247 246
3 230 248 229
3 229 248 247
3 239 232 249
3 232 231 249
3 249 231 233
3 250 249 233
3 250 233 234
3 237 250 234
3 244 251 235
3 235 251 236
3 251 252 236
3 236 252 238
3 252 253 238
3 253 250 237
3 253 237 238
3 254 239 249
3 255 240 239
3 254 255 239
3 256 241 240
3 255 256 240
3 257 242 241
3 256 257 241
3 245 258 243
3 243 258 244
3 244 258 251
3 245 259 258
3 246 260 245
3 245 260 259
3 247 261 246
3 246 261 260
3 248 262 247
3 247 262 261
3 254 249 263
3 263 249 250
3 253 263 250
3 258 264 251
3 251 264 252
3 264 265 252
3 265 263 253
3 252 265 253
3 266 254 263
3 267 255 254
3 266 267 254
3 268 256 255
3 267 268 255
3 269 257 256
3 268 269 256
3 259 270 258
3 270 264 258
3 260 271 259
3 259 271 270
3 261 272 260
3 260 272 271
3 262 273 261
3 273 272 261
3 270 274 264
3 275 266 263
3 275 263 265
3 274 276 264
3 276 265 264
3 276 277 265
3 277 275 265
3 278 267 266
3 275 278 266
3 279 268 267
3 278 279 267
3 280 269 268
3 279 280 268
3 271 281 270
3 270 281 274
3 272 282 271
3 271 282 281
3 273 283 272
3 272 283 282
3 281 284 274
3 274 284 276
3 285 278 275
3 277 285 275
3 284 286 276
3 286 285 277
3 276 286 277
3 287 279 278
3 285 287 278
3 288 280 279
3 287 288 279
3 282 289 281
3 281 289 284
3 283 290 282
3 282 290 289
3 289 291 284
3 284 291 286
3 291 292 286
3 292 287 285
3 286 292 285
3 293 288 287
3 292 293 287
3 290 294 289
3 289 294 291
3 294 295 291
3 295 293 292
3 291 295 292
CELL_TYPES 542
5
5
5
5
5
5
5
5
5
5
5
5
5
5
5
5
5
5
5
5
5
5
5
5
5
5
5
5
5
5
5
5
5
5
5
5
5
5
5
5
5
5
5
5
5
5
5
5
5
5
5
5
5
5
5
5
5
5
5
5
5
5
5
5
5
5
5
5
5
5
5
5
5
5
5
5
5
5
5
5
5
5
5
5
5
5
5
5
5
5
5
5
5
5
5
5
5
5
5
5
5
5
5
5
5
5
5
5
5
5
5
5
5
5
5
5
5
5
5
5
5
5
5
5
5
5
5
5
5
5
5
5
5
5
5
5
5
5
5
5
5
5
5
5
5
5
5
5
5
5
5
5
5
5
5
5
5
5
5
5
5
5
5
5
5
5
5
5
5
5
5
5
5
5
5
5
5
5
5
5
5
5
5
5
5
5
5
5
5
5
5
5
5
5
5
5
5
5
5
5
5
5
5
5
5
5
5
5
5
5
5
5
5
5
5
5
5
5
5
5
5
5
5
5
5
5
5
5
5
5
5
5
5
5
5
5
5
5
5
5
5
5
5
5
5
5
5
5
5
5
5
5
5
5
5
5
5
5
5
5
5
5
5
5
5
5
5
5
5
5
5
5
5
5
5
5
5
5
5
5
5
5
5
5
5
5
5
5
5
5
5
5
5
5
5
5
5
5
5
5
5
5
5
5
5
5
5
5
5
5
5
5
5
5
5
5
5
5
5
5
5
5
5
5
5
5
5
5
5
5
5
5
5
5
5
5
5
5
5
5
5
5
5
5
5
5
5
5
5
5
5
5
5
5
5
5
5
5
5
5
5
5
5
5
5
5
5
5
5
5
5
5
5
5
5
5
5
5
5
5
5
5
5
5
5
5
5
5
5
5
5
5
5
5
5
5
5
5
5
5
5
5
5
5
5
5
5
5
5
5
5
5
5
5
5
5
5
5
5
5
5
5
5
5
5
5
5
5
5
5
5
5
5
5
5
5
5
5
5
5
5
5
5
5
5
5
5
5
5
5
5
5
5
5
5
5
5
5
5
5
5
5
5
5
5
5
5
5
5
5
5
5
5
5
5
5
5
5
5
5
5
5
5
5
5
5
5
5
5
5
5
5
5
5
5
5
5
5
5
5
5
5
5
5
5
5
5
5
5
5
5
5
5
5
5
5
5
5
5
5
5
5
5
5
5
5
5
5
5
5
5
5
5
5
5
5
5
5
5
5
5
5
POINT_DATA 296
SCALARS concentrations float 4
LOOKUP_TABLE default
0 0.998778 0.227454 16.4632
0 0.998784 0.227167 15.6975
0 0.998782 0.226471 16.1435
0 0.998791 0.225521 15.7465
0 0.998782 0.0908866 0.00101217
0 0.998789 0.225847 17.5737
0 0.998769 0.226023 16.2965
0 0.998781 0.0908868 0.00149382
0 0.998785 0.090907 0.00479689
0 0.998747 0.224959 17.9545
0 0.998772 0.226263 15.6802
0 0.998795 0.224481 16.0606
0 0.998799 0.224257 14.2966
0 0.998787 0.0908882 0.00288697
0 0.998792 0.0908873 0.00342149
0 0.998788 0.0908864 0.00169987
0 0.998787 0.0908861 0.00115979
0 0.998781 0.0909108 0.0048864
0 0.998764 0.0909035 0.00456834
0 0.998785 0.0908878 0.000963283
0 0.998783 0.0908896 0.00060314
0 0.998781 0.227806 16.0272
0 0.99877 0.228802 17.3469
0 0.998769 0.090902 0.00655765
0 0.998786 0.0908914 0.000769204
0 0.998796 0.090899 0.00336975
0 0.998789 0.22389 16.1682
0 0.998794 0.0908977 0.00302792
0 0.998786 0.224778 15.9279
0 0.998789 0.0908863 0.00241293
0 0.998792 0.0908864 0.00309732
0 0.998791 0.0908848 0.00151338
0 0.99878 0.225811 16.1286
0 0.998792 0.0908842 0.00126465
0 0.998791 0.0908849 0.0010219
0 0.998782 0.0908905 0.000615438
0 0.998784 0.0908893 0.00127181
0 0.998791 0.0908844 0.000697447
0 0.99879 0.0908854 0.000559028
0 0.99878 0.0908944 0.00221001
0 0.998778 0.0908922 0.00166638
0 0.99879 0.0908879 0.00138126
0 0.998791 0.0908867 0.00185011
0 0.998789 0.224856 15.2894
0 0.998793 0.0908863 0.00324119
0 0.998787 0.0908854 0.00190082
0 0.998791 0.0908867 0.00270603
0 0.998787 0.223868 15.7187
0 0.998787 0.090885 0.00233151
0 0.998787 0.223394 15.6134
0 0.998792 0.0908843 0.00157359
0 0.998792 0.0908848 0.00195692
0 0.998794 0.0908816 0.000949455
0 0.998787 0.0908878 0.00278937
0 0.998787 0.0908948 0.00337791
0 0.998794 0.0908817 0.000907246
0 0.998792 0.0908848 0.00113198
0 0.998793 0.0908854 0.00177323
0 0.998795 0.0908819 0.000948591
0 0.998788 0.0908862 0.00117586
0 0.998788 0.0908862 0.00137366
0 0.998794 0.0908847 0.00202094
0 0.998793 0.0908852 0.00194067
0 0.998786 0.223021 16.7461
0 0.998792 0.0908842 0.00168116
0 0.998789 0.0908861 0.00198245
0 0.998791 0.0908849 0.00164855
0 0.998786 0.0908856 0.00261816
0 0.998788 0.0908858 0.00184239
0 0.998788 0.222965 16.6546
0 0.998786 0.0908936 0.00354592
0 0.998786 0.223229 15.6284
0 0.998796 0.0908806 0.000833958
0 0.998794 0.0908816 0.00093478
0 0.998796 0.0908806 0.000804511
0 0.998788 0.0908865 0.00189178
0 0.998786 0.0908936 0.00288494
0 0.998787 0.0908862 0.00180535
0 0.998796 0.0908807 0.000871463
0 0.998798 0.0908802 0.000793334
0 0.998795 0.0908819 0.00130045
0 0.998796 0.0908808 0.000943453
0 0.998792 0.0908842 0.00146936
0 0.998791 0.0908846 0.00141963
0 0.998795 0.090882 0.00126368
0 0.998787 0.223796 15.4225
0 0.998794 0.0908816 0.000928506
0 0.998792 0.0908843 0.00134983
0 0.998787 0.0908861 0.00159218
0 0.998791 0.0908849 0.00127474
0 0.998786 0.0908939 0.00269403
0 0.998786 0.0908859 0.00116697
0 0.998792 0.223197 16.1869
0 0.99879 0.0908863 0.000373323
0 0.998798 0.0908799 0.000721941
0 0.998796 0.0908807 0.000805161
0 0.998798 0.0908801 0.000745837
0 0.998796 0.0908806 0.000802154
0 0.998781 0.223373 13.3093
0 0.998786 0.0908852 0.00221295
0 0.998791 0.0908845 0.00133497
0 0.998788 0.0908859 0.00162951
0 0.998791 0.090885 0.0013354
0 0.998799 0.090879 0.000560874
0 0.998798 0.09088 0.000758053
0 0.998796 0.0908809 0.000976647
0 0.998798 0.0908804 0.00082129
0 0.998794 0.090882 0.00107963
0 0.998796 0.0908808 0.000902029
0 0.998783 0.223128 15.8687
0 0.998794 0.0908816 0.000882506
0 0.998791 0.0908844 0.00102762
0 0.998789 0.0908861 0.000831832
0 0.998791 0.0908851 0.000987578
0 0.998795 0.0908873 0.00752471
0 0.998795 0.0908861 9.85137e-05
0 0.998783 0.0908967 0.0124929
0 0.9988 0.0908785 0.000461642
0 0.9988 0.0908785 0.000449983
0 0.998799 0.0908789 0.000535755
0 0.998798 0.0908799 0.000714785
0 0.998796 0.0908806 0.000790446
0 0.998798 0.0908802 0.000766198
0 0.9988 0.0908781 0.000387171
0 0.998764 0.222417 16.2305
0 0.998783 0.090885 0.000970629
0 0.998789 0.0908853 0.00154695
0 0.998794 0.0908825 0.00109312
0 0.998792 0.0908847 0.00144992
0 0.998799 0.0908791 0.000554473
0 0.998798 0.0908801 0.000746884
0 0.998796 0.0908808 0.000869431
0 0.998798 0.09088 0.000731631
0 0.99878 0.0908944 0.00156326
0 0.998777 0.223265 16.4558
0 0.998794 0.0908816 0.000868023
0 0.998794 0.0908845 0.00119164
0 0.998799 0.0908874 0.00111632
0 0.998796 0.0908851 0.00169242
0 0.998784 0.0908978 0.0092096
0 0.9988 0.090889 0.00200637
0 0.998796 0.0908806 0.000809434
0 0.9988 0.0908782 0.00038303
0 0.9988 0.0908774 0.000249142
0 0.998799 0.0908788 0.000519113
0 0.998798 0.0908799 0.000696089
0 0.998798 0.0908803 0.000727836
0 0.9988 0.090878 0.000355756
0 0.9988 0.0908767 0.000139206
0 0.998781 0.0908975 0.00646984
0 0.998774 0.22439 16.1389
0 0.998796 0.090881 0.00089212
0 0.998789 0.0908857 0.00129472
0 0.998792 0.090885 0.00169702
0 0.998795 0.0908826 0.00120088
0 0.99879 0.0908861 0.00148017
0 0.998799 0.0908791 0.000547622
0 0.998798 0.09088 0.000715165
0 0.9988 0.0908783 0.000397981
0 0.998797 0.090881 0.000892775
0 0.998783 0.0908958 0.00225613
0 0.998773 0.222823 15.3979
0 0.998795 0.0908816 0.00120257
0 0.998797 0.0908847 0.00244971
0 0.998799 0.0908901 0.0023514
0 0.998798 0.0908859 0.00358679
0 0.998796 0.0908893 0.00289173
0 0.998796 0.0908806 0.000901694
0 0.9988 0.0908768 0.000134258
0 0.998799 0.0908788 0.000475592
0 0.998798 0.0908801 0.000682763
0 0.9988 0.0908778 0.000313134
0 0.9988 0.090877 0.000180323
0 0.998779 0.0908956 0.00558478
0 0.99876 0.221754 15.9603
0 0.998796 0.0908812 0.000955753
0 0.998792 0.0908845 0.00177777
0 0.998794 0.0908829 0.0013763
0 0.998791 0.090887 0.0023052
0 0.998792 0.0908847 0.00198363
0 0.998799 0.0908788 0.000506603
0 0.998799 0.0908796 0.000634237
0 0.9988 0.0908782 0.000384966
0 0.998798 0.0908805 0.000781936
0 0.998796 0.0908816 0.000987738
0 0.998795 0.0908884 0.00340582
0 0.99879 0.0908865 0.00142647
0 0.998783 0.222025 16.0716
0 0.998796 0.0908816 0.00169974
0 0.998796 0.0908849 0.00347936
0 0.998793 0.0908875 0.00264303
0 0.998795 0.0908855 0.00345538
0 0.998796 0.0908808 0.000955434
0 0.998797 0.0908805 0.000746147
0 0.9988 0.0908779 0.000324855
0 0.998799 0.0908789 0.000487223
0 0.9988 0.0908782 0.000384769
0 0.9988 0.0908783 0.000413187
0 0.9988 0.0908784 0.000428526
0 0.99879 0.0908862 0.00246931
0 0.998788 0.0908868 0.00166567
0 0.998779 0.223222 15.8867
0 0.998794 0.0908822 0.00125074
0 0.998793 0.0908844 0.00222893
0 0.998794 0.0908853 0.00302386
0 0.998795 0.0908815 0.00096752
0 0.998799 0.0908789 0.000507881
0 0.998798 0.0908804 0.000747309
0 0.998797 0.0908905 0.00382581
0 0.998795 0.0909101 0.000214847
0 0.99879 0.222545 16.1462
0 0.998795 0.0908816 0.00154799
0 0.998793 0.0908844 0.00238346
0 0.998792 0.0908854 0.00196446
0 0.998796 0.0908808 0.000895046
0 0.998798 0.0908802 0.000722584
0 0.998799 0.0908792 0.000550822
0 0.998799 0.0908798 0.000660156
0 0.998799 0.0908792 0.000562684
0 0.998799 0.0908795 0.000617703
0 0.998788 0.090886 0.0015
0 0.998784 0.0908849 0.00148747
0 0.998784 0.221695 15.9301
0 0.998794 0.0908822 0.00130698
0 0.998793 0.0908843 0.00257075
0 0.998796 0.090881 0.000819015
0 0.998798 0.09088 0.000657392
0 0.998792 0.0908849 0.00259948
0 0.998795 0.090891 0.00429335
0 0.998794 0.0909139 0.000540987
0 0.998792 0.223093 13.4928
0 0.998794 0.0908816 0.00113062
0 0.998792 0.0908846 0.00151389
0 0.998796 0.0908807 0.000849706
0 0.998797 0.0908806 0.000796701
0 0.998798 0.0908803 0.000713827
0 0.998798 0.0908805 0.000762813
0 0.998798 0.0908804 0.000772959
0 0.998797 0.0908807 0.000812628
0 0.998792 0.0908851 0.00152543
0 0.998787 0.090886 0.00105988
0 0.998781 0.0908846 0.000716065
0 0.998779 0.22054 15.7759
0 0.998794 0.0908817 0.00104625
0 0.998796 0.0908806 0.000726941
0 0.998792 0.0908843 0.00199955
0 0.998794 0.0908887 0.00428059
0 0.998799 0.0908982 0.00461052
0 0.998792 0.224324 16.5099
0 0.998794 0.0908816 0.00108968
0 0.998796 0.0908808 0.000879342
0 0.998796 0.0908805 0.000736883
0 0.998796 0.0908807 0.000823446
0 0.998796 0.0908807 0.000873394
0 0.998793 0.0908844 0.00165767
0 0.998787 0.090886 0.000806968
0 0.99878 0.0908859 0.00028856
0 0.998777 0.222031 16.0801
0 0.998794 0.0908818 0.000977449
0 0.998791 0.090885 0.00212816
0 0.998792 0.0908875 0.00387391
0 0.998801 0.0909023 0.00595601
0 0.998807 0.222268 14.5607
0 0.998794 0.0908817 0.00124108
0 0.998794 0.0908817 0.00112036
0 0.998794 0.0908817 0.00129342
0 0.998793 0.0908852 0.00225964
0 0.998789 0.0908866 0.00152561
0 0.998778 0.0908904 0.00140668
0 0.998774 0.222906 16.1447
0 0.998792 0.0908845 0.00187479
0 0.998791 0.0908859 0.0028655
0 0.998792 0.0908878 0.00273802
0 0.998798 0.221741 15.1934
0 0.998793 0.0908852 0.00226172
0 0.998794 0.0908845 0.00245206
0 0.998794 0.0908846 0.00230611
0 0.998794 0.0908853 0.00282863
0 0.998793 0.0908885 0.002605
0 0.998783 0.0908966 0.00247022
0 0.998772 0.221897 16.4901
0 0.998791 0.0908862 0.00255811
0 0.998789 0.0908871 0.00179662
0 0.99879 0.22251 15.5547
0 0.998792 0.0908875 0.00218627
0 0.998795 0.0908903 0.0026645
0 0.998794 0.0908895 0.00219365
0 0.998791 0.0908967 6.67774e-05
0 0.998784 0.219216 14.9847
0 0.998788 0.0908863 0.00089299
0 0.998786 0.222392 15.4825
0 0.998783 0.0909006 0.00327845
0 0.998784 0.0909067 0.00432002
0 0.998783 0.220548 15.4026
0 0.998782 0.222647 16.1459
0 0.998772 0.221127 15.3253
VECTORS fa_u float
0.000483384 0.00020191 0
0.000429969 0.000254205 0
0.000496409 0.000132097 0
0.000496869 6.46155e-05 0
2.88035e-08 -1.44103e-08 0
0.000441991 0.00034255 0
0.000368402 0.000364934 0
3.44981e-08 3.27001e-08 0
1.03503e-07 1.12183e-07 0
0.000349289 0.000452097 0
0.000250274 0.000431634 0
0.00051104 2.57422e-06 0
0.000451047 -5.92013e-05 0
8.50586e-08 -3.46972e-08 0
1.08768e-07 4.75488e-09 0
5.4062e-08 1.73039e-09 0
3.68582e-08 1.84823e-09 0
1.52834e-07 2.85896e-08 0
3.74833e-09 -1.45316e-07 0
3.06432e-08 7.17084e-10 0
1.84607e-08 5.24676e-09 0
0.00019533 0.000471096 0
0.000141329 0.000533576 0
-2.05751e-07 -3.47409e-08 0
-1.23334e-08 2.11415e-08 0
1.02436e-07 -3.16881e-08 0
0.000496352 -0.000135331 0
8.91436e-08 3.65565e-08 0
0.000467958 -0.00019464 0
7.67697e-08 -1.2103e-09 0
9.78388e-08 -1.18722e-08 0
4.72518e-08 9.28566e-09 0
6.61992e-05 0.000508925 0
3.87443e-08 1.08728e-08 0
3.20474e-08 5.50559e-09 0
-1.53131e-08 -1.2207e-08 0
-4.01266e-08 5.25153e-09 0
1.9885e-08 9.85419e-09 0
6.47151e-09 1.65693e-08 0
6.11983e-08 -3.46407e-08 0
-5.24536e-08 -7.7567e-09 0
-1.46315e-08 4.14447e-08 0
4.14376e-08 4.18168e-08 0
-1.77164e-06 0.000486503 0
1.02651e-07 -9.97676e-09 0
5.89768e-08 -1.34184e-08 0
8.60232e-08 -3.76728e-09 0
0.000432489 -0.000251239 0
6.48283e-08 -3.60727e-08 0
0.000392744 -0.000304272 0
5.00378e-08 1.83328e-09 0
6.19935e-08 -5.85148e-09 0
2.94884e-08 6.57042e-09 0
-3.40437e-08 8.19692e-08 0
1.76364e-08 1.06028e-07 0
2.65441e-08 1.13492e-08 0
1.11002e-08 3.42664e-08 0
1.99594e-08 5.2776e-08 0
2.10367e-08 2.16457e-08 0
2.50977e-08 2.77499e-08 0
-1.61749e-09 4.36797e-08 0
3.22799e-08 5.56172e-08 0
3.25023e-08 5.25062e-08 0
-7.0271e-05 0.000528206 0
5.28499e-08 -8.27986e-09 0
5.9659e-08 -2.0496e-08 0
5.02411e-08 -1.5084e-08 0
7.35227e-08 -3.91779e-08 0
5.36861e-08 -2.35514e-08 0
0.000375831 -0.000373623 0
8.15939e-08 -7.79311e-08 0
0.000304269 -0.000393349 0
2.53136e-08 7.9627e-09 0
2.96394e-08 -2.49964e-09 0
2.55449e-08 1.67088e-09 0
5.38177e-09 5.99551e-08 0
-2.8907e-08 8.71283e-08 0
-4.21931e-09 5.7291e-08 0
2.3459e-08 1.47858e-08 0
2.31545e-08 1.00559e-08 0
2.30577e-08 3.43608e-08 0
2.07867e-08 2.16599e-08 0
1.49388e-08 4.43042e-08 0
6.31934e-09 4.47282e-08 0
1.74358e-08 3.62334e-08 0
-0.000123412 0.00047497 0
2.76073e-08 -1.05236e-08 0
3.86783e-08 -1.86765e-08 0
4.61188e-08 -2.09712e-08 0
3.62307e-08 -1.82382e-08 0
8.27158e-08 -2.25088e-08 0
2.99732e-08 -2.19192e-08 0
0.000257498 -0.00044608 0
1.16003e-08 2.55874e-09 0
2.25858e-08 4.19491e-09 0
2.48442e-08 -6.25756e-09 0
2.36438e-08 -2.0491e-09 0
2.25122e-08 -1.2029e-08 0
0.000163221 -0.000390783 0
-4.96754e-09 7.02405e-08 0
4.46791e-10 4.24761e-08 0
-2.21757e-08 4.68696e-08 0
-1.13397e-08 4.09513e-08 0
1.65398e-08 6.70442e-09 0
1.90312e-08 1.48205e-08 0
1.62765e-08 2.64735e-08 0
1.62679e-08 2.04526e-08 0
5.54751e-09 3.39029e-08 0
8.69157e-09 2.73549e-08 0
-0.000191356 0.000467277 0
2.34813e-08 -1.54009e-08 0
2.64632e-08 -1.92069e-08 0
1.15051e-08 -2.38376e-08 0
1.82537e-08 -2.55795e-08 0
4.02112e-08 2.36035e-07 0
-3.10909e-09 -3.99831e-10 0
-1.6298e-07 3.62575e-07 0
1.44908e-08 2.40733e-09 0
1.18993e-08 7.96397e-09 0
1.69954e-08 -1.33385e-09 0
2.13799e-08 -7.75941e-09 0
1.89023e-08 -1.65928e-08 0
2.01778e-08 -1.36843e-08 0
1.18582e-08 -3.34071e-09 0
0.000133828 -0.000498812 0
7.58651e-10 3.0876e-08 0
-2.16027e-08 4.42303e-08 0
-5.32952e-09 3.43722e-08 0
-1.95633e-08 4.17831e-08 0
1.12121e-08 1.36226e-08 0
9.17619e-09 2.19228e-08 0
4.63424e-10 2.76613e-08 0
3.38244e-09 2.30334e-08 0
4.69725e-08 -1.63688e-08 0
-0.000259712 0.000454675 0
1.73148e-08 -2.15194e-08 0
1.35235e-08 -3.54243e-08 0
-3.3336e-08 1.22665e-08 0
6.00566e-09 -5.35167e-08 0
-2.42437e-07 1.64626e-07 0
-5.50769e-08 -3.22864e-08 0
1.38611e-08 -2.17082e-08 0
5.61582e-09 1.08171e-08 0
7.23184e-09 3.24786e-09 0
1.39317e-08 -8.87451e-09 0
1.50516e-08 -1.62496e-08 0
1.01493e-08 -2.08174e-08 0
7.54811e-09 -8.4363e-09 0
2.8991e-09 -3.349e-09 0
1.08454e-07 1.74986e-07 0
6.69694e-05 -0.000509153 0
-6.8946e-09 2.75372e-08 0
-2.38964e-08 3.35594e-08 0
-2.65548e-08 4.70186e-08 0
-1.38217e-08 3.56247e-08 0
-3.48156e-08 3.17205e-08 0
3.17996e-09 1.71327e-08 0
-2.63362e-09 2.26036e-08 0
-3.16883e-10 1.26598e-08 0
-9.59913e-09 2.67371e-08 0
-3.1583e-08 -6.44693e-08 0
-0.000298697 0.000388384 0
1.11908e-08 -3.65929e-08 0
3.55638e-09 -7.78686e-08 0
-8.27426e-09 -7.43625e-08 0
5.56302e-09 -1.13996e-07 0
2.09546e-08 -8.9597e-08 0
7.46042e-09 -2.77049e-08 0
-1.3308e-09 4.05952e-09 0
6.59672e-09 -1.36198e-08 0
3.84933e-09 -2.13817e-08 0
9.569e-10 -9.91785e-09 0
-4.63e-09 -3.38915e-09 0
-1.07461e-07 1.41535e-07 0
-6.68207e-07 -0.000507856 0
-1.48869e-08 2.65192e-08 0
-3.22376e-08 4.64836e-08 0
-2.32185e-08 3.71322e-08 0
-6.37372e-08 3.63042e-08 0
-4.27333e-08 4.64527e-08 0
-4.15045e-09 1.55766e-08 0
-8.47041e-09 1.83177e-08 0
-7.13641e-09 9.95611e-09 0
-1.44459e-08 2.0258e-08 0
-1.99141e-08 2.43158e-08 0
-9.74445e-08 4.7426e-08 0
-4.31762e-08 1.40032e-08 0
-0.000363589 0.000359627 0
6.66617e-09 -5.36732e-08 0
1.2737e-08 -1.09978e-07 0
1.19216e-08 -8.32516e-08 0
1.12995e-08 -1.09368e-07 0
9.43926e-10 -3.03872e-08 0
-3.40569e-09 -2.34968e-08 0
-9.50838e-09 4.05482e-09 0
-2.25922e-09 -1.53379e-08 0
-5.26032e-09 -1.10557e-08 0
-1.29612e-08 -2.20582e-09 0
-1.07075e-08 -8.44276e-09 0
1.02308e-08 -7.79045e-08 0
1.59851e-08 -5.05335e-08 0
-6.71467e-05 -0.000501034 0
-2.59328e-08 3.01897e-08 0
-5.61188e-08 4.337e-08 0
-8.02645e-08 5.30631e-08 0
-2.28934e-08 2.05839e-08 0
-1.25216e-08 1.02165e-08 0
-1.8922e-08 1.44018e-08 0
-1.03735e-07 6.37097e-08 0
-2.31874e-09 -6.43118e-09 0
-0.00040682 0.000313778 0
3.18651e-10 -4.92559e-08 0
3.9388e-10 -7.58406e-08 0
-1.12891e-08 -6.14812e-08 0
-7.14271e-09 -2.75701e-08 0
-9.43763e-09 -2.09664e-08 0
-1.69261e-08 4.55031e-09 0
-2.09175e-08 -1.92783e-09 0
-1.09845e-08 -1.41391e-08 0
-1.75293e-08 -8.89119e-09 0
-6.21096e-09 -4.7324e-08 0
1.59841e-08 -4.45507e-08 0
-0.000131349 -0.000489581 0
-3.32253e-08 2.50131e-08 0
-6.9056e-08 4.38483e-08 0
-2.30962e-08 1.20723e-08 0
-1.97665e-08 6.84517e-09 0
-7.48837e-08 3.51319e-08 0
-1.20601e-07 6.41777e-08 0
1.67912e-08 3.79243e-09 0
-0.000370789 0.000216447 0
-1.07011e-08 -3.43479e-08 0
-2.11563e-08 -4.32774e-08 0
-1.38922e-08 -2.31956e-08 0
-1.55266e-08 -2.00399e-08 0
-2.26677e-08 1.44773e-09 0
-2.38035e-08 -4.749e-09 0
-1.91568e-08 -1.54258e-08 0
-2.35758e-08 -1.0621e-08 0
-3.02457e-08 -3.79637e-08 0
-1.52599e-08 -3.00753e-08 0
2.9268e-09 -2.25964e-08 0
-0.000191831 -0.00046389 0
-3.05126e-08 1.33154e-08 0
-2.26461e-08 4.71251e-09 0
-6.21763e-08 1.35022e-08 0
-1.30508e-07 3.89906e-08 0
-1.36594e-07 -5.35248e-08 0
-0.000486338 0.00019865 0
-2.14976e-08 -2.72049e-08 0
-1.98219e-08 -1.97485e-08 0
-2.3347e-08 -2.16895e-09 0