# vtk DataFile Version 2.0
CellBP Time: 2.44
ASCII
DATASET UNSTRUCTURED_GRID
POINTS 296 double
-9.18446 -3.77504 0
-8.60618 -4.94765 0
-9.60489 -2.53702 0
-9.85982 -1.25465 0
-8.35806 -2.81887 0
-7.87983 -6.03477 0
-7.01777 -7.01777 0
-7.9177 -3.87494 0
-7.34311 -4.86814 0
-6.0348 -7.87986 0
-4.94765 -8.60618 0
-9.94532 0.0499975 0
-9.85976 1.35464 0
-8.65817 -1.68403 0
-8.78681 -0.529655 0
-7.59019 -2.00427 0
-7.22622 -2.90667 0
-6.63806 -5.77925 0
-5.82279 -6.59733 0
-6.79073 -3.88917 0
-6.22101 -4.67624 0
-3.77508 -9.18455 0
-2.53696 -9.60462 0
-4.9068 -7.30929 0
-3.91327 -7.88676 0
-8.79327 0.643435 0
-9.60499 2.63706 0
-8.62379 1.77418 0
-9.18448 3.87505 0
-7.7448 -0.929039 0
-7.79503 0.0802595 0
-6.95302 -1.31596 0
-1.25465 -9.85974 0
-6.44191 -2.15326 0
-6.31981 -3.05633 0
-5.53692 -5.47496 0
-4.79625 -6.11591 0
-5.65942 -3.75726 0
-5.26977 -4.56191 0
-2.86636 -8.3645 0
-1.77868 -8.64083 0
-3.92842 -6.72404 0
-3.05684 -7.15313 0
0.0499996 -9.94544 0
-7.70604 1.14359 0
-8.33912 2.91561 0
-7.55243 2.11211 0
-8.60623 5.04768 0
-7.88059 3.9785 0
-7.87985 6.13479 0
-6.77917 -0.396882 0
-6.95704 0.552581 0
-5.77177 -1.00347 0
-0.590878 -8.81033 0
0.565721 -8.77152 0
-5.30346 -2.48043 0
-4.49229 -5.0961 0
-3.90278 -5.77575 0
-4.4392 -3.805 0
-2.06257 -7.56253 0
-1.13557 -7.78645 0
-2.99477 -6.10252 0
-2.3092 -6.6203 0
1.35466 -9.85984 0
-6.68995 1.42215 0
-7.17274 3.11836 0
-6.65977 2.37319 0
-7.29528 4.98903 0
-6.71862 4.00338 0
-7.0178 7.1178 0
-6.57301 5.89461 0
-6.03477 7.97983 0
-4.45338 -1.18114 0
-5.81499 0.513792 0
-4.65644 -0.0103822 0
0.00852163 -7.84875 0
1.7387 -8.6445 0
0.949042 -7.7641 0
-4.03876 -2.40653 0
-3.48576 -1.39128 0
-3.29473 -4.80567 0
-3.26607 -3.26799 0
-1.37869 -6.676 0
-0.508782 -7.02553 0
-1.97569 -5.53742 0
2.63698 -9.60475 0
-5.50773 2.03707 0
-6.09523 3.07247 0
-6.10565 4.87008 0
-5.76225 3.99184 0
-5.76182 6.71776 0
-5.45266 5.61991 0
-4.94768 8.70624 0
-4.83893 7.40528 0
-3.50171 -0.42433 0
-4.4496 1.24912 0
-3.7117 0.59211 0
-4.06245 2.31997 0
-3.77505 9.2845 0
2.86287 -8.33364 0
0.419726 -6.79606 0
2.02222 -7.52659 0
1.30621 -6.90625 0
-2.44481 -0.873865 0
-2.83856 -2.13127 0
-2.29456 -4.09766 0
-2.3258 -2.97379 0
-0.442421 -5.86165 0
-1.22281 -4.49946 0
3.87505 -9.1845 0
-4.79019 3.39208 0
-5.08845 4.59461 0
-4.64767 6.28212 0
-4.53935 5.3603 0
-3.84414 7.99422 0
-3.82718 6.84648 0
-2.78361 8.42377 0
-1.64915 -0.137908 0
-1.45035 -0.890641 0
-2.48927 0.507287 0
-3.25384 1.44425 0
-3.23927 3.31681 0
-2.91118 2.37193 0
-1.35519 0.627143 0
-2.53699 9.70477 0
3.93313 -7.88785 0
2.96488 -7.15855 0
0.954178 -5.82257 0
2.07457 -6.41623 0
-1.68307 -1.99218 0
-1.43453 -3.278 0
0.0902259 -4.74737 0
-0.566214 -3.69469 0
4.93271 -7.31964 0
5.04768 -8.60624 0
-3.7773 4.55205 0
-3.73518 5.75279 0
-2.88832 7.29075 0
-3.01005 6.35447 0
-1.66275 8.73469 0
-1.94035 7.6203 0
-2.33857 4.05201 0
-0.730774 -1.32733 0
-0.836946 -0.257641 0
-1.93633 1.68088 0
-2.12592 2.87605 0
-1.30667 3.54496 0
-0.869512 1.35091 0
-0.282383 0.456073 0
-0.533584 8.87278 0
-1.25465 9.95983 0
1.11288 -4.575 0
3.91063 -6.71816 0
2.98828 -6.09552 0
2.11808 -5.42554 0
4.78507 -6.20619 0
-0.558888 -2.47698 0
0.495147 -3.46409 0
0.0535556 -1.61058 0
1.48202 -3.68247 0
5.86795 -6.61555 0
6.13478 -7.87984 0
-2.47594 5.34904 0
-2.13072 6.53528 0
-0.904193 7.80436 0
-1.27251 6.93297 0
0.0862154 7.88148 0
-1.14456 4.49512 0
0.150329 -0.617681 0
-0.797481 2.48867 0
-0.331675 3.60102 0
0.0631095 1.51282 0
0.741481 0.473449 0
0.646873 8.87547 0
0.0500008 10.0454 0
2.38125 -4.28568 0
3.8597 -5.64122 0
3.00183 -5.21341 0
5.57461 -5.49266 0
4.69171 -5.28383 0
0.629717 -2.29352 0
1.25628 -2.95146 0
0.757546 -1.39154 0
2.16454 -3.13611 0
2.9941 -3.47696 0
6.15617 -4.79257 0
6.65662 -5.77021 0
7.11778 -7.01778 0
-1.01975 5.82105 0
-0.372671 6.88459 0
1.12281 7.7708 0
0.558059 7.08089 0
-0.000765347 4.72567 0
0.607058 3.82819 0
1.33901 -0.641937 0
0.53914 2.65126 0
0.966151 1.57505 0
1.91034 0.213883 0
1.61489 1.06511 0
2.12977 7.58489 0
1.79951 8.71385 0
1.35466 9.95984 0
3.82334 -4.35219 0
5.11741 -4.44975 0
5.84675 -3.93582 0
3.78447 -3.20146 0
1.81244 -1.88278 0
3.01949 -2.57417 0
6.78463 -3.9486 0
7.38278 -4.89768 0
7.9799 -6.03483 0
0.483425 5.88238 0
1.42842 6.74309 0
2.37478 6.67033 0
1.21013 4.55675 0
1.48834 3.39801 0
2.43604 -0.692088 0
2.82836 0.14262 0
1.78907 2.16306 0
2.61217 1.15027 0
3.07264 7.17156 0
2.90479 8.37846 0
2.637 9.7048 0
4.91207 -3.32841 0
6.12187 -3.10927 0
4.17346 -2.27557 0
3.24484 -1.50308 0
6.73275 -2.31351 0
7.23362 -3.04319 0
7.96658 -3.91307 0
8.70623 -4.94769 0
2.02396 5.60077 0
3.08716 6.15492 0
2.36426 4.12752 0
2.4204 3.06129 0
3.52616 -0.460918 0
3.61621 0.613373 0
2.96224 2.28839 0
3.54611 1.52549 0
4.01318 5.89959 0
3.98553 6.79499 0
3.97434 7.94077 0
3.87507 9.28453 0
5.56993 -1.91653 0
4.50997 -1.12978 0
6.71566 -1.33644 0
7.5946 -2.03696 0
8.39943 -2.86212 0
9.28448 -3.77506 0
3.41987 4.87808 0
3.3396 3.38598 0
4.69211 0.130099 0
4.52001 1.31021 0
4.06608 2.44426 0
4.57198 5.15405 0
4.84528 6.19282 0
4.98202 7.38278 0
5.04769 8.70625 0
5.88495 -0.435004 0
7.01312 -0.488391 0
7.76211 -1.08563 0
8.68761 -1.74648 0
9.70476 -2.537 0
4.55368 3.82861 0
5.81939 1.09889 0
5.37278 2.53565 0
5.3821 4.62232 0
5.61431 5.52565 0
5.89935 6.67434 0
6.1348 7.97985 0
6.84862 0.463702 0
7.85636 -0.0256463 0
8.86366 -0.584548 0
9.95985 -1.25465 0
6.96328 1.34998 0
5.72336 3.77995 0
6.54409 2.19837 0
6.38288 3.08927 0
6.29515 4.68899 0
6.69581 5.8402 0
7.11784 7.11784 0
7.78765 0.968013 0
8.86301 0.572976 0
10.0453 0.0499991 0
7.61956 2.00517 0
6.83226 3.90602 0
7.27283 2.94811 0
7.38147 4.88784 0
7.97988 6.13481 0
8.72661 1.72762 0
9.95983 1.35465 0
8.42453 2.83896 0
7.98502 3.91796 0
8.70633 5.04773 0
9.70478 2.63699 0
9.28451 3.87506 0
CELLS 542 2168
3 2 0 4
3 0 1 7
3 4 0 7
3 1 5 8
3 7 1 8
3 3 2 13
3 13 2 4
3 11 3 14
3 14 3 13
3 13 4 15
3 4 7 16
3 15 4 16
3 5 6 17
3 8 5 17
3 6 9 18
3 17 6 18
3 7 8 19
3 16 7 19
3 8 17 20
3 19 8 20
3 9 10 23
3 18 9 23
3 10 21 24
3 23 10 24
3 12 11 25
3 25 11 14
3 26 12 27
3 27 12 25
3 14 13 29
3 29 13 15
3 25 14 30
3 30 14 29
3 29 15 31
3 15 16 33
3 31 15 33
3 16 19 34
3 33 16 34
3 17 18 35
3 20 17 35
3 18 23 36
3 35 18 36
3 19 20 37
3 34 19 37
3 20 35 38
3 37 20 38
3 21 22 39
3 24 21 39
3 22 32 40
3 39 22 40
3 23 24 41
3 36 23 41
3 24 39 42
3 41 24 42
3 27 25 44
3 44 25 30
3 28 26 45
3 45 26 27
3 45 27 46
3 46 27 44
3 47 28 48
3 48 28 45
3 30 29 50
3 50 29 31
3 44 30 51
3 51 30 50
3 50 31 52
3 31 33 52
3 32 43 53
3 40 32 53
3 53 43 54
3 33 34 55
3 34 37 55
3 33 55 52
3 35 36 56
3 38 35 56
3 36 41 57
3 56 36 57
3 37 38 58
3 38 56 58
3 37 58 55
3 39 40 59
3 42 39 59
3 40 53 60
3 59 40 60
3 41 42 61
3 57 41 61
3 42 59 62
3 61 42 62
3 43 63 54
3 46 44 64
3 64 44 51
3 48 45 65
3 65 45 46
3 65 46 66
3 66 46 64
3 49 47 67
3 67 47 48
3 67 48 68
3 68 48 65
3 69 49 70
3 70 49 67
3 52 55 72
3 64 51 73
3 51 50 73
3 50 52 73
3 73 52 74
3 74 52 72
3 53 54 75
3 60 53 75
3 54 63 76
3 54 76 77
3 75 54 77
3 55 58 78
3 72 55 78
3 72 78 79
3 56 57 80
3 57 61 80
3 56 80 58
3 58 80 81
3 78 58 81
3 59 60 82
3 62 59 82
3 60 75 83
3 82 60 83
3 61 62 84
3 62 82 84
3 61 84 80
3 63 85 76
3 66 64 86
3 64 73 86
3 68 65 87
3 87 65 66
3 87 66 86
3 70 67 88
3 88 67 68
3 88 68 89
3 89 68 87
3 71 69 90
3 90 69 70
3 90 70 91
3 91 70 88
3 92 71 93
3 93 71 90
3 74 72 94
3 94 72 79
3 86 73 95
3 95 73 74
3 95 74 96
3 96 74 94
3 97 86 95
3 76 85 99
3 75 77 100
3 83 75 100
3 76 99 101
3 77 76 101
3 77 101 102
3 100 77 102
3 94 79 103
3 78 81 104
3 79 78 104
3 79 104 103
3 80 84 105
3 81 80 105
3 81 105 106
3 104 81 106
3 82 83 107
3 83 100 107
3 82 107 84
3 84 107 108
3 105 84 108
3 85 109 99
3 89 87 110
3 87 86 110
3 110 86 97
3 91 88 111
3 111 88 89
3 111 89 110
3 93 90 112
3 112 90 91
3 112 91 113
3 113 91 111
3 98 92 114
3 114 92 93
3 114 93 115
3 115 93 112
3 116 98 114
3 117 103 118
3 96 94 119
3 94 103 119
3 119 103 117
3 97 95 120
3 120 95 96
3 120 96 119
3 121 110 97
3 121 97 122
3 122 97 120
3 123 119 117
3 124 98 116
3 99 109 125
3 99 125 126
3 101 99 126
3 100 102 127
3 100 127 107
3 101 126 128
3 102 101 128
3 102 128 127
3 104 106 129
3 104 129 103
3 103 129 118
3 105 108 130
3 106 105 130
3 106 130 129
3 107 127 131
3 108 107 131
3 108 131 132
3 108 132 130
3 109 134 125
3 125 134 133
3 113 111 135
3 111 110 135
3 135 110 121
3 115 112 136
3 136 112 113
3 136 113 135
3 116 114 137
3 137 114 115
3 137 115 138
3 138 115 136
3 139 124 116
3 139 116 140
3 140 116 137
3 141 135 121
3 118 129 142
3 118 142 143
3 117 118 143
3 123 117 143
3 122 120 144
3 120 119 144
3 144 119 123
3 141 121 145
3 145 121 122
3 145 122 144
3 146 141 145
3 147 144 123
3 147 123 148
3 143 148 123
3 150 124 139
3 149 150 139
3 131 127 151
3 125 133 152
3 126 125 152
3 126 152 153
3 128 126 153
3 128 153 154
3 128 154 127
3 127 154 151
3 152 133 155
3 130 132 156
3 130 156 129
3 129 156 142
3 131 151 157
3 132 131 157
3 132 157 156
3 156 158 142
3 157 151 159
3 133 160 155
3 134 161 133
3 133 161 160
3 138 136 162
3 136 135 162
3 162 135 141
3 140 137 163
3 163 137 138
3 163 138 162
3 149 139 164
3 164 139 140
3 164 140 165
3 165 140 163
3 166 149 164
3 167 162 141
3 167 141 146
3 142 158 168
3 143 142 168
3 143 168 148
3 146 145 169
3 145 144 169
3 169 144 147
3 170 167 146
3 170 146 169
3 171 169 147
3 171 147 148
3 171 148 172
3 168 172 148
3 173 149 166
3 174 150 149
3 173 174 149
3 154 175 151
3 151 175 159
3 152 155 176
3 153 152 176
3 153 176 177
3 153 177 154
3 154 177 175
3 155 160 178
3 155 178 179
3 176 155 179
3 156 157 180
3 156 180 158
3 157 159 181
3 157 181 180
3 158 180 182
3 158 182 168
3 159 175 183
3 159 183 181
3 175 184 183
3 160 186 178
3 178 186 185
3 161 187 160
3 160 187 186
3 165 163 188
3 163 162 188
3 188 162 167
3 166 164 189
3 189 164 165
3 189 165 188
3 190 173 166
3 190 166 191
3 191 166 189
3 192 188 167
3 192 167 170
3 193 192 170
3 182 194 168
3 194 172 168
3 193 170 195
3 170 169 195
3 195 169 171
3 196 195 171
3 196 171 172
3 194 197 172
3 197 198 172
3 198 196 172
3 200 173 190
3 199 200 190
3 201 174 173
3 200 201 173
3 176 179 202
3 177 176 202
3 177 202 175
3 175 202 184
3 178 185 203
3 178 203 179
3 179 203 202
3 203 185 204
3 202 205 184
3 183 206 181
3 180 181 206
3 180 206 182
3 182 206 194
3 183 184 207
3 205 207 184
3 183 207 206
3 185 208 204
3 186 209 185
3 185 209 208
3 187 210 186
3 186 210 209
3 191 189 211
3 189 188 211
3 211 188 192
3 199 190 212
3 212 190 191
3 212 191 211
3 213 199 212
3 214 211 192
3 214 192 193
3 215 214 193
3 215 193 195
3 206 216 194
3 216 197 194
3 216 217 197
3 215 195 218
3 218 195 196
3 198 218 196
3 217 219 197
3 219 218 198
3 197 219 198
3 220 199 213
3 221 200 199
3 220 221 199
3 222 201 200
3 221 222 200
3 203 204 223
3 203 223 202
3 202 223 205
3 204 208 224
3 204 224 223
3 205 223 225
3 205 225 207
3 207 225 226
3 207 226 206
3 226 216 206
3 208 228 224
3 224 228 227
3 209 229 208
3 229 228 208
3 210 230 209
3 209 230 229
3 213 212 231
3 212 211 231
3 231 211 214
3 232 220 213
3 232 213 231
3 233 231 214
3 233 214 215
3 234 233 215
3 234 215 218
3 226 235 216
3 235 217 216
3 235 236 217
3 217 236 219
3 237 234 218
3 237 218 219
3 236 238 219
3 238 237 219
3 240 220 232
3 239 240 232
3 241 221 220
3 240 241 220
3 242 222 221
3 241 242 221
3 224 227 243
3 224 243 223
3 223 243 225
3 225 243 244
3 225 244 226
3 226 244 235
3 227 245 243
3 228 246 227
3 227 246 245
3 229 247 228
3 228 247 246
3 230 248 229
3 229 248 247
3 239 232 249
3 232 231 249
3 249 231 233
3 250 249 233
3 250 233 234
3 237 250 234
3 244 251 235
3 235 251 236
3 251 252 236
3 236 252 238
3 252 253 238
3 253 250 237
3 253 237 238
3 254 239 249
3 255 240 239
3 254 255 239
3 256 241 240
3 255 256 240
3 257 242 241
3 256 257 241
3 245 258 243
3 243 258 244
3 244 258 251
3 245 259 258
3 246 260 245
3 245 260 259
3 247 261 246
3 246 261 260
3 248 262 247
3 247 262 261
3 254 249 263
3 263 249 250
3 253 263 250
3 258 264 251
3 251 264 252
3 264 265 252
3 265 263 253
3 252 265 253
3 266 254 263
3 267 255 254
3 266 267 254
3 268 256 255
3 267 268 255
3 269 257 256
3 268 269 256
3 259 270 258
3 270 264 258
3 260 271 259
3 259 271 270
3 261 272 260
3 260 272 271
3 262 273 261
3 273 272 261
3 270 274 264
3 275 266 263
3 275 263 265
3 274 276 264
3 276 265 264
3 276 277 265
3 277 275 265
3 278 267 266
3 275 278 266
3 279 268 267
3 278 279 267
3 280 269 268
3 279 280 268
3 271 281 270
3 270 281 274
3 272 282 271
3 271 282 281
3 273 283 272
3 272 283 282
3 281 284 274
3 274 284 276
3 285 278 275
3 277 285 275
3 284 286 276
3 286 285 277
3 276 286 277
3 287 279 278
3 285 287 278
3 288 280 279
3 287 288 279
3 282 289 281
3 281 289 284
3 283 290 282
3 282 290 289
3 289 291 284
3 284 291 286
3 291 292 286
3 292 287 285
3 286 292 285
3 293 288 287
3 292 293 287
3 290 294 289
3 289 294 291
3 294 295 291
3 295 293 292
3 291 295 292
CELL_TYPES 542
5
5
5
5
5
5
5
5
5
5
5
5
5
5
5
5
5
5
5
5
5
5
5
5
5
5
5
5
5
5
5
5
5
5
5
5
5
5
5
5
5
5
5
5
5
5
5
5
5
5
5
5
5
5
5
5
5
5
5
5
5
5
5
5
5
5
5
5
5
5
5
5
5
5
5
5
5
5
5
5
5
5
5
5
5
5
5
5
5
5
5
5
5
5
5
5
5
5
5
5
5
5
5
5
5
5
5
5
5
5
5
5
5
5
5
5
5
5
5
5
5
5
5
5
5
5
5
5
5
5
5
5
5
5
5
5
5
5
5
5
5
5
5
5
5
5
5
5
5
5
5
5
5
5
5
5
5
5
5
5
5
5
5
5
5
5
5
5
5
5
5
5
5
5
5
5
5
5
5
5
5
5
5
5
5
5
5
5
5
5
5
5
5
5
5
5
5
5
5
5
5
5
5
5
5
5
5
5
5
5
5
5
5
5
5
5
5
5
5
5
5
5
5
5
5
5
5
5
5
5
5
5
5
5
5
5
5
5
5
5
5
5
5
5
5
5
5
5
5
5
5
5
5
5
5
5
5
5
5
5
5
5
5
5
5
5
5
5
5
5
5
5
5
5
5
5
5
5
5
5
5
5
5
5
5
5
5
5
5
5
5
5
5
5
5
5
5
5
5
5
5
5
5
5
5
5
5
5
5
5
5
5
5
5
5
5
5
5
5
5
5
5
5
5
5
5
5
5
5
5
5
5
5
5
5
5
5
5
5
5
5
5
5
5
5
5
5
5
5
5
5
5
5
5
5
5
5
5
5
5
5
5
5
5
5
5
5
5
5
5
5
5
5
5
5
5
5
5
5
5
5
5
5
5
5
5
5
5
5
5
5
5
5
5
5
5
5
5
5
5
5
5
5
5
5
5
5
5
5
5
5
5
5
5
5
5
5
5
5
5
5
5
5
5
5
5
5
5
5
5
5
5
5
5
5
5
5
5
5
5
5
5
5
5
5
5
5
5
5
5
5
5
5
5
5
5
5
5
5
5
5
5
5
5
5
5
5
5
5
5
5
5
5
5
5
5
5
5
5
5
5
5
5
5
5
5
5
5
5
5
5
5
5
5
5
5
5
5
5
5
5
5
5
5
5
5
5
5
5
5
5
5
5
5
5
5
5
5
5
5
5
5
5
5
5
5
5
5
5
5
5
5
5
5
5
5
5
5
5
5
5
5
POINT_DATA 296
SCALARS concentrations float 4
LOOKUP_TABLE default
0 0.999077 0.227348 16.5895
0 0.999066 0.227319 16.668
0 0.999057 0.226657 16.3003
0 0.999033 0.224778 16.6927
0 0.999071 0.0908986 0.00452825
0 0.999051 0.226419 15.6693
0 0.999032 0.224909 16.5926
0 0.999072 0.0908957 0.00440368
0 0.999065 0.0909033 0.00141483
0 0.999054 0.226119 16.517
0 0.999046 0.22648 16.8826
0 0.99904 0.224685 16.4211
0 0.999033 0.224114 18.1804
0 0.999052 0.0909073 0.00680332
0 0.999049 0.090906 0.00673546
0 0.99907 0.0908892 0.000872501
0 0.99907 0.0908865 0.00199199
0 0.999054 0.0909164 0.00800532
0 0.999056 0.0909099 0.00797447
0 0.999072 0.0908882 0.00209797
0 0.999074 0.0908913 0.00130083
0 0.998997 0.226412 17.9155
0 0.998994 0.228073 19.0583
0 0.999067 0.0908894 0.00138537
0 0.999041 0.0909155 0.0128048
0 0.999048 0.0909073 0.00531838
0 0.999051 0.224115 16.1674
0 0.999049 0.0909039 0.00495853
0 0.999062 0.224958 16.152
0 0.99907 0.0908913 0.000190567
0 0.999069 0.0908913 0.00112422
0 0.999075 0.0908854 0.00185209
0 0.999025 0.225305 18.2321
0 0.999074 0.0908844 0.00152699
0 0.999073 0.090885 0.00161057
0 0.999075 0.0908928 0.00102343
0 0.999076 0.0908899 0.00141423
0 0.999075 0.0908847 0.00200768
0 0.999077 0.0908858 0.00270321
0 0.999019 0.0909365 0.0166546
0 0.999027 0.0909343 0.0110201
0 0.999074 0.0908915 0.00115231
0 0.999067 0.090899 0.00340983
0 0.999069 0.224742 15.8879
0 0.999066 0.0908891 0.00100052
0 0.999062 0.0908865 0.00122342
0 0.999068 0.0908875 0.000639114
0 0.999067 0.224021 15.7802
0 0.999065 0.0908853 0.00112384
0 0.999079 0.223509 15.4483
0 0.999076 0.0908845 0.00181176
0 0.999075 0.0908853 0.00152004
0 0.999076 0.0908817 0.00131201
0 0.999055 0.0909114 0.00716442
0 0.999072 0.0908957 0.00544552
0 0.999076 0.0908817 0.00109701
0 0.999077 0.0908849 0.00261109
0 0.999078 0.0908858 0.00273531
0 0.999076 0.0908819 0.00140668
0 0.999063 0.0909022 0.00470408
0 0.999063 0.0908952 0.00264792
0 0.999078 0.0908862 0.00232364
0 0.999077 0.0908888 0.00161925
0 0.99907 0.223387 15.848
0 0.999075 0.0908844 0.00136559
0 0.99907 0.0908863 0.00131392
0 0.999074 0.090885 0.00143024
0 0.999071 0.0908903 0.00354648
0 0.99907 0.0908863 0.00181196
0 0.999087 0.222674 15.0735
0 0.999076 0.090901 0.00585231
0 0.999088 0.222664 16.6395
0 0.999077 0.0908807 0.000906445
0 0.999077 0.0908817 0.00137028
0 0.999078 0.0908807 0.000986222
0 0.999067 0.0908876 0.0010391
0 0.999064 0.0908887 0.00222547
0 0.999069 0.0908866 0.00177944
0 0.999077 0.0908807 0.000864386
0 0.999079 0.0908803 0.000750707
0 0.999077 0.090882 0.00164247
0 0.999077 0.0908808 0.000961332
0 0.999075 0.0908857 0.00130029
0 0.999073 0.0908854 0.000939317
0 0.999077 0.0908821 0.00175367
0 0.999059 0.223962 16.0962
0 0.999076 0.0908816 0.00112015
0 0.999074 0.0908844 0.00140167
0 0.999069 0.0908879 0.00212289
0 0.999072 0.0908852 0.00124501
0 0.999079 0.0909158 0.00889911
0 0.999067 0.0908924 0.00216069
0 0.99907 0.223382 15.5344
0 0.999072 0.0909093 0.00725614
0 0.999079 0.09088 0.000730597
0 0.999078 0.0908807 0.000979048
0 0.999079 0.0908802 0.000799463
0 0.999078 0.0908807 0.000855748
0 0.999064 0.224097 15.9112
0 0.999061 0.0908866 0.000679875
0 0.999073 0.0908846 0.00130048
0 0.999068 0.0908856 0.0010276
0 0.999072 0.0908851 0.00133401
0 0.99908 0.0908791 0.000539036
0 0.999079 0.0908801 0.000695874
0 0.999077 0.0908809 0.00107797
0 0.999079 0.0908804 0.000780482
0 0.999077 0.0908821 0.00137979
0 0.999078 0.0908808 0.00109046
0 0.999061 0.223305 16.2225
0 0.999075 0.0908817 0.000784551
0 0.999071 0.0908848 0.000698156
0 0.999065 0.0908928 0.00162159
0 0.999069 0.090886 0.00014
0 0.999064 0.0908882 0.00220123
0 0.999065 0.0908895 0.00134808
0 0.999065 0.0908851 0.0016239
0 0.999081 0.0908786 0.000458817
0 0.999081 0.0908785 0.000449696
0 0.99908 0.0908789 0.00052948
0 0.999079 0.09088 0.000748317
0 0.999077 0.0908806 0.000755333
0 0.999079 0.0908803 0.000792415
0 0.999081 0.0908781 0.000384541
0 0.999064 0.22376 15.9415
0 0.999065 0.0908856 0.00191563
0 0.999068 0.0908853 0.00104445
0 0.999076 0.0908825 0.00119791
0 0.999073 0.0908847 0.00130767
0 0.99908 0.0908791 0.000532284
0 0.999079 0.0908801 0.000760884
0 0.999078 0.0908809 0.000994477
0 0.999079 0.0908801 0.000775493
0 0.999066 0.0908855 0.002189
0 0.999065 0.223484 15.7935
0 0.999075 0.0908817 0.000468548
0 0.999071 0.0908849 0.000488076
0 0.999068 0.0908863 0.00146306
0 0.999071 0.0908853 0.00098371
0 0.999066 0.0908849 0.00147709
0 0.99907 0.0908858 0.00159654
0 0.999078 0.0908806 0.000767088
0 0.999081 0.0908782 0.000388924
0 0.999082 0.0908774 0.00026268
0 0.99908 0.0908789 0.000528855
0 0.999079 0.09088 0.000738989
0 0.999079 0.0908803 0.000804122
0 0.999081 0.090878 0.000360056
0 0.999082 0.0908768 0.000130997
0 0.999066 0.090885 0.00101515
0 0.999064 0.22457 16.0708
0 0.999078 0.090881 0.000934063
0 0.999069 0.0908854 0.00137896
0 0.999072 0.090885 0.00138548
0 0.999076 0.0908826 0.00118096
0 0.999069 0.0908859 0.00185733
0 0.99908 0.0908791 0.000546233
0 0.999079 0.09088 0.000735404
0 0.999081 0.0908783 0.000404557
0 0.999079 0.090881 0.000903604
0 0.999067 0.0908871 0.00157763
0 0.999064 0.223356 16.1591
0 0.999075 0.0908817 0.000779493
0 0.999073 0.0908844 0.00128657
0 0.99907 0.0908858 0.00173893
0 0.999073 0.0908849 0.00158271
0 0.999071 0.090886 0.00213646
0 0.999078 0.0908807 0.000836968
0 0.999082 0.0908768 0.000147488
0 0.99908 0.0908788 0.00052013
0 0.999079 0.0908801 0.000762264
0 0.999081 0.0908778 0.00032179
0 0.999082 0.090877 0.000173872
0 0.999069 0.0908871 0.0018738
0 0.999065 0.22304 15.8389
0 0.999077 0.0908812 0.000938951
0 0.999072 0.0908845 0.00142726
0 0.999075 0.090883 0.00120048
0 0.999075 0.0908891 0.00358345
0 0.999073 0.0908848 0.0020733
0 0.999081 0.0908788 0.000510865
0 0.99908 0.0908796 0.000641526
0 0.999081 0.0908782 0.000390049
0 0.999079 0.0908804 0.000780163
0 0.999077 0.0908816 0.000964325
0 0.999081 0.0908926 0.00411861
0 0.999075 0.0909122 0.00145586
0 0.999068 0.222128 16.5626
0 0.999076 0.0908816 0.00101285
0 0.999074 0.0908843 0.00160089
0 0.999072 0.090886 0.00243822
0 0.999074 0.0908849 0.00195736
0 0.999077 0.0908808 0.00088009
0 0.999079 0.0908805 0.000816215
0 0.999081 0.0908778 0.000325497
0 0.99908 0.0908789 0.00053535
0 0.999081 0.0908782 0.000399106
0 0.999081 0.0908783 0.000415487
0 0.999081 0.0908784 0.000438728
0 0.999072 0.0908862 0.00224777
0 0.99907 0.0908904 0.00162681
0 0.999069 0.223375 15.6743
0 0.999075 0.0908822 0.00122954
0 0.999075 0.0908847 0.00287278
0 0.999077 0.0908861 0.00401766
0 0.999077 0.0908815 0.00100032
0 0.99908 0.0908789 0.000508276
0 0.999079 0.0908804 0.000746729
0 0.999081 0.0908929 0.00411109
0 0.999074 0.0909203 0.00488164
0 0.999071 0.221649 13.7585
0 0.999076 0.0908816 0.0010611
0 0.999074 0.0908843 0.0018536
0 0.999073 0.0908855 0.00192228
0 0.999077 0.0908808 0.000857975
0 0.999079 0.0908803 0.000767843
0 0.99908 0.0908791 0.000555507
0 0.99908 0.0908797 0.000680469
0 0.99908 0.0908792 0.000594752
0 0.99908 0.0908795 0.000640793
0 0.99907 0.0908867 0.00192143
0 0.999066 0.0908885 0.000367756
0 0.999065 0.221749 15.3216
0 0.999076 0.0908822 0.00157654
0 0.999076 0.0908846 0.00298355
0 0.999077 0.090881 0.0009013
0 0.999079 0.0908799 0.000682823
0 0.999074 0.090885 0.00234813
0 0.999076 0.0908882 0.00334166
0 0.99907 0.0909014 0.00414662
0 0.999059 0.22344 15.2547
0 0.999075 0.0908816 0.000993301
0 0.999072 0.0908847 0.0014566
0 0.999077 0.0908807 0.000786034
0 0.999079 0.0908806 0.000803928
0 0.999079 0.0908803 0.000773533
0 0.999079 0.0908805 0.000825393
0 0.999079 0.0908804 0.000779015
0 0.999079 0.0908807 0.000845544
0 0.999071 0.0908854 0.00186414
0 0.99907 0.0908887 0.00300137
0 0.999067 0.0908879 0.0021085
0 0.999063 0.220707 15.7495
0 0.999076 0.0908817 0.00121707
0 0.999077 0.0908806 0.000845888
0 0.999073 0.0908845 0.00147873
0 0.999071 0.090887 0.00232157
0 0.999072 0.0908882 0.00253394
0 0.999068 0.224652 16.0147
0 0.999074 0.0908816 0.000859145
0 0.999077 0.0908808 0.000793595
0 0.999077 0.0908805 0.000862375
0 0.999077 0.0908807 0.000895621
0 0.999077 0.0908807 0.00085626
0 0.999073 0.0908847 0.00234182
0 0.999074 0.0908909 0.0050011
0 0.999082 0.0909066 0.00852674
0 0.999075 0.222209 15.5372
0 0.999076 0.0908818 0.00110891
0 0.999072 0.090885 0.00110903
0 0.999067 0.090887 0.000845571
0 0.999063 0.0908901 0.00268563
0 0.999067 0.222834 16.1956
0 0.999075 0.0908818 0.00122971
0 0.999076 0.0908817 0.00115862
0 0.999075 0.0908817 0.00135202
0 0.999074 0.0908857 0.00349423
0 0.999079 0.0908911 0.00532596
0 0.99909 0.0909226 0.00689996
0 0.9991 0.222537 15.7684
0 0.999073 0.0908845 0.00114571
0 0.999065 0.0908869 0.000333898
0 0.999053 0.0908961 0.00225969
0 0.999053 0.22198 16.0451
0 0.999073 0.0908852 0.00143933
0 0.999076 0.0908848 0.00319163
0 0.999074 0.0908846 0.00209936
0 0.999075 0.0908855 0.00323358
0 0.999081 0.0908906 0.00492703
0 0.999082 0.0909091 0.00138067
0 0.999088 0.22093 13.2387
0 0.999066 0.0908868 0.000571742
0 0.999054 0.090898 0.00240673
0 0.999045 0.222448 16.8786
0 0.999069 0.0908866 0.00153222
0 0.999081 0.0908889 0.00405681
0 0.999075 0.090888 0.00292005
0 0.999081 0.0908969 0.00269993
0 0.999078 0.219312 15.7006
0 0.999059 0.0908905 0.000420297
0 0.999054 0.222576 16.5213
0 0.999065 0.090892 0.00215212
0 0.999077 0.0908964 0.00198249
0 0.999077 0.219737 13.1323
0 0.999055 0.222732 16.2717
0 0.999067 0.222019 16.1461
VECTORS fa_u float
0.000487844 0.000201648 0
0.00046144 0.00026148 0
0.000500361 0.000136613 0
0.000526588 6.95361e-05 0
8.09564e-08 1.19196e-07 0
0.000396926 0.000301743 0
0.000371816 0.000374846 0
1.40103e-07 -2.48099e-09 0
-5.57767e-09 -4.4673e-08 0
0.000318534 0.000418041 0
0.000270028 0.000464405 0
0.000522513 -2.44035e-06 0
0.000573462 -7.61782e-05 0
-1.87896e-07 1.07513e-07 0
-1.87826e-07 -1.03224e-07 0
2.48205e-08 1.24388e-08 0
5.9101e-08 2.29073e-08 0
-9.89306e-08 -2.34732e-07 0
-2.45922e-07 -6.25292e-08 0
4.69137e-08 4.74935e-08 0
2.5923e-08 3.22696e-08 0
0.000219766 0.000526005 0
0.000157379 0.000585657 0
3.07735e-09 -4.39749e-08 0
1.08005e-07 -3.92872e-07 0
-1.36935e-07 9.94368e-08 0
0.000496984 -0.000132893 0
-1.29157e-07 -9.06256e-08 0
0.000475025 -0.000196217 0
-5.9731e-09 -1.04501e-09 0
-3.1688e-08 1.65997e-08 0
5.88748e-08 -2.62769e-09 0
7.1787e-05 0.000575687 0
4.82003e-08 6.13179e-09 0
4.36077e-08 2.6921e-08 0
1.72967e-08 2.75922e-08 0
1.83603e-08 4.10847e-08 0
4.40767e-08 4.62433e-08 0
5.76238e-08 6.3861e-08 0
-2.02386e-07 -4.8978e-07 0
-1.64056e-07 -3.09914e-07 0
3.43387e-08 -1.28564e-08 0
2.90011e-09 -1.08462e-07 0
-4.92165e-07 0.000505551 0
-2.94014e-08 1.22113e-08 0
9.51174e-09 -3.77491e-08 0
-6.78616e-09 -1.91709e-08 0
0.000434141 -0.000252291 0
3.11394e-08 -1.75826e-08 0
0.000388357 -0.000301352 0
5.76253e-08 1.68865e-09 0
4.78427e-08 7.10535e-09 0
4.17064e-08 1.86177e-09 0
-2.27948e-07 -3.2357e-09 0
2.63697e-08 1.71258e-07 0
3.20738e-08 1.37747e-08 0
5.10147e-08 6.55789e-08 0
4.40007e-08 7.5096e-08 0
3.17637e-08 3.15369e-08 0
-2.52446e-08 -1.47539e-07 0
-3.93859e-08 -7.44846e-08 0
3.21793e-08 6.65683e-08 0
2.89394e-08 4.26293e-08 0
-6.20922e-05 0.000500446 0
4.33846e-08 -2.43317e-09 0
3.85657e-08 -1.61453e-08 0
4.41019e-08 -1.12337e-08 0
5.90633e-08 -9.6158e-08 0
5.4172e-08 -1.97394e-08 0
0.000338257 -0.000340051 0
1.41899e-07 -1.20593e-07 0
0.00032405 -0.000418722 0
2.8217e-08 5.97646e-09 0
4.35571e-08 -1.98023e-09 0
3.13815e-08 2.30018e-11 0
-2.6936e-08 1.91752e-08 0
3.79606e-08 5.978e-08 0
2.1711e-09 5.65801e-08 0
2.36448e-08 1.4051e-08 0
2.22175e-08 8.77443e-09 0
2.6118e-08 4.52692e-08 0
2.01941e-08 2.29764e-08 0
2.14869e-08 3.53582e-08 0
8.44527e-09 2.8671e-08 0
2.01255e-08 5.20462e-08 0
-0.000131696 0.00049496 0
3.47422e-08 -7.96293e-09 0
4.32939e-08 -1.07188e-08 0
6.26877e-08 -2.51647e-08 0
3.91098e-08 -6.31442e-09 0
1.53924e-07 -2.37681e-07 0
5.9837e-08 -3.38599e-08 0
0.000250081 -0.000426375 0
1.93203e-07 -1.26423e-07 0
2.29448e-08 3.73939e-09 0
3.05028e-08 -6.33292e-09 0
2.53348e-08 -2.29874e-09 0
2.47475e-08 -1.13589e-08 0
0.000194846 -0.000467298 0
-1.66348e-08 1.3831e-08 0
1.91722e-09 4.13367e-08 0
-3.62632e-09 3.24964e-08 0
-6.11556e-09 4.20051e-08 0
1.58547e-08 6.54388e-09 0
1.7473e-08 1.36011e-08 0
1.48997e-08 3.08957e-08 0
1.45818e-08 2.01033e-08 0
1.05479e-08 4.2619e-08 0
9.69684e-09 3.33157e-08 0
-0.000198962 0.000476315 0
2.31547e-08 -9.33159e-09 0
2.21803e-08 -1.24633e-09 0
3.02852e-08 -4.17761e-08 0
4.45434e-09 6.45164e-11 0
2.57124e-08 -6.51529e-08 0
1.51545e-09 -4.28689e-08 0
4.52625e-09 -5.14739e-08 0
1.42954e-08 2.96418e-09 0
1.17646e-08 8.1455e-09 0
1.68144e-08 -1.0637e-09 0
2.24344e-08 -7.97999e-09 0
1.7842e-08 -1.61036e-08 0
2.05294e-08 -1.46396e-08 0
1.18955e-08 -2.86691e-09 0
0.00013176 -0.000489847 0
-4.77216e-08 3.79236e-08 0
-1.61957e-08 2.9021e-08 0
-3.10458e-09 3.79909e-08 0
-1.24842e-08 3.96928e-08 0
1.06041e-08 1.32069e-08 0
8.4924e-09 2.2673e-08 0
1.69503e-09 3.15987e-08 0
3.49107e-09 2.44279e-08 0
-3.50909e-08 6.01686e-08 0
-0.000252215 0.000434674 0
9.24841e-09 -1.1694e-08 0
-5.56467e-09 -1.44994e-08 0
-5.60183e-09 -4.6216e-08 0
-5.7078e-09 -3.07768e-08 0
3.31894e-09 -4.68836e-08 0
2.82142e-09 -5.07234e-08 0
1.19803e-08 -2.12663e-08 0
5.72759e-09 1.09704e-08 0
7.42813e-09 3.83235e-09 0
1.40106e-08 -9.32144e-09 0
1.50681e-08 -1.80524e-08 0
1.04191e-08 -2.33697e-08 0
7.6443e-09 -8.53383e-09 0
3.01061e-09 -2.88291e-09 0
3.54568e-09 -3.21069e-08 0
6.76173e-05 -0.000506883 0
-6.35392e-09 2.90347e-08 0
-2.45693e-08 3.63548e-08 0
-1.69678e-08 4.06896e-08 0
-1.09836e-08 3.5937e-08 0
-4.82072e-08 3.4189e-08 0
3.08492e-09 1.71051e-08 0
-2.63289e-09 2.32519e-08 0
-1.67715e-10 1.28719e-08 0
-9.41164e-09 2.71686e-08 0
-4.71462e-08 1.72418e-08 0
-0.000312556 0.00040828 0
5.60535e-09 -2.41617e-08 0
4.87055e-09 -4.06477e-08 0
8.47369e-10 -5.5326e-08 0
6.77571e-09 -4.99039e-08 0
-1.18117e-08 -6.69481e-08 0
6.92286e-09 -2.57167e-08 0
-1.14728e-09 4.55066e-09 0
6.84997e-09 -1.50664e-08 0
4.3081e-09 -2.38695e-08 0
9.9256e-10 -1.01911e-08 0
-4.60812e-09 -3.06185e-09 0
-3.98834e-08 -4.4321e-08 0
7.96673e-07 -0.000503991 0
-1.38024e-08 2.64981e-08 0
-2.58797e-08 3.732e-08 0
-1.82375e-08 3.35643e-08 0
-1.10289e-07 2.89511e-08 0
-5.50204e-08 3.6402e-08 0
-4.04513e-09 1.57443e-08 0
-8.38675e-09 1.86109e-08 0
-6.91095e-09 1.03092e-08 0
-1.39984e-08 2.05015e-08 0
-1.90856e-08 2.40269e-08 0
-1.16475e-07 6.00729e-08 0
-2.64998e-08 -3.79974e-08 0
-0.000369179 0.000376107 0
4.65414e-09 -3.18909e-08 0
1.32422e-09 -5.0923e-08 0
-1.67747e-08 -7.57488e-08 0
-9.10093e-09 -6.16145e-08 0
8.78069e-10 -2.79906e-08 0
-3.20632e-09 -2.57732e-08 0
-9.36216e-09 4.42984e-09 0
-2.30096e-09 -1.68787e-08 0
-5.47728e-09 -1.14576e-08 0
-1.30581e-08 -2.06754e-09 0
-1.10103e-08 -8.58274e-09 0
-6.16877e-09 -7.12575e-08 0
2.81395e-08 -4.34488e-08 0
-6.43918e-05 -0.000494581 0
-2.76312e-08 2.76983e-08 0
-7.90873e-08 4.58395e-08 0
-1.04623e-07 7.34679e-08 0
-2.44941e-08 2.03271e-08 0
-1.23233e-08 1.04743e-08 0
-1.89214e-08 1.43721e-08 0
-9.61412e-08 8.8709e-08 0
1.55292e-07 3.60931e-09 0
-0.000346235 0.000267926 0
-3.36019e-09 -3.35963e-08 0
-1.12532e-08 -5.78981e-08 0
-1.13264e-08 -6.01089e-08 0
-6.62354e-09 -2.6485e-08 0
-9.37066e-09 -2.25643e-08 0
-1.70351e-08 4.71722e-09 0
-2.15553e-08 -2.04877e-09 0
-1.14168e-08 -1.50934e-08 0
-1.81447e-08 -9.3016e-09 0
-1.29062e-08 -5.9762e-08 0
4.98611e-09 -1.05865e-08 0
-0.00012601 -0.000470966 0
-4.15156e-08 2.81607e-08 0
-7.66044e-08 5.60776e-08 0
-2.6078e-08 1.19348e-08 0
-2.06562e-08 6.73801e-09 0
-6.37492e-08 3.89708e-08 0
-7.70445e-08 7.32836e-08 0
5.85355e-08 -1.1825e-07 0
-0.000421982 0.000239891 0
-8.47928e-09 -3.04481e-08 0
-1.38134e-08 -4.42426e-08 0
-1.13781e-08 -2.22737e-08 0
-1.50606e-08 -2.06776e-08 0
-2.45813e-08 1.26398e-09 0
-2.57822e-08 -5.00733e-09 0
-1.92711e-08 -1.55909e-08 0
-2.47186e-08 -1.06243e-08 0
-4.07542e-08 -4.30998e-08 0
-6.46017e-08 -7.03384e-08 0
-5.69256e-08 -3.55084e-08 0
-0.000193232 -0.000462396 0
-3.60546e-08 1.41368e-08 0
-2.65672e-08 4.31939e-09 0
-4.53886e-08 1.24037e-08 0
-5.4145e-08 5.02533e-08 0
-5.97135e-08 5.41799e-08 0
-0.000471956 0.000192191 0
-1.63821e-08 -2.18858e-08 0
-1.78997e-08 -1.78121e-08 0
-2.73655e-08 -2.02996e-09 0