# vtk DataFile Version 2.0
CellBP Time: 0.84
ASCII
DATASET UNSTRUCTURED_GRID
POINTS 296 double
-9.18739 -3.77625 0
-8.60893 -4.94923 0
-9.60794 -2.53784 0
-9.86295 -1.25506 0
-8.35806 -2.81887 0
-7.8823 -6.03666 0
-7.02001 -7.02 0
-7.9177 -3.87494 0
-7.34311 -4.86814 0
-6.03673 -7.88237 0
-4.94924 -8.60893 0
-9.94848 0.0500006 0
-9.86295 1.35506 0
-8.65817 -1.68403 0
-8.78681 -0.529655 0
-7.59019 -2.00427 0
-7.22622 -2.90667 0
-6.63807 -5.77925 0
-5.82279 -6.59733 0
-6.79073 -3.88917 0
-6.22101 -4.67624 0
-3.77632 -9.18754 0
-2.5378 -9.60776 0
-4.9068 -7.30929 0
-3.91327 -7.88676 0
-8.79327 0.643435 0
-9.60803 2.63787 0
-8.62379 1.77418 0
-9.18739 3.87626 0
-7.74481 -0.929039 0
-7.79503 0.0802595 0
-6.95302 -1.31596 0
-1.25506 -9.86294 0
-6.44191 -2.15326 0
-6.31981 -3.05633 0
-5.53692 -5.47496 0
-4.79625 -6.11591 0
-5.65942 -3.75726 0
-5.26977 -4.56191 0
-2.86636 -8.3645 0
-1.77868 -8.64083 0
-3.92842 -6.72404 0
-3.05684 -7.15313 0
0.0500005 -9.9486 0
-7.70604 1.14359 0
-8.33912 2.91561 0
-7.55244 2.11211 0
-8.60894 5.04925 0
-7.8806 3.9785 0
-7.88234 6.1367 0
-6.77917 -0.396882 0
-6.95704 0.552581 0
-5.77177 -1.00347 0
-0.590878 -8.81033 0
0.565721 -8.77152 0
-5.30346 -2.48043 0
-4.49229 -5.0961 0
-3.90279 -5.77575 0
-4.4392 -3.805 0
-2.06257 -7.56253 0
-1.13557 -7.78645 0
-2.99477 -6.10252 0
-2.3092 -6.6203 0
1.35507 -9.86295 0
-6.68995 1.42215 0
-7.17274 3.11836 0
-6.65977 2.37319 0
-7.29528 4.98903 0
-6.71863 4.00338 0
-7.02 7.12001 0
-6.57301 5.89461 0
-6.0367 7.98234 0
-4.45338 -1.18114 0
-5.81499 0.513792 0
-4.65644 -0.0103823 0
0.00852168 -7.84875 0
1.7387 -8.6445 0
0.949042 -7.7641 0
-4.03876 -2.40653 0
-3.48576 -1.39128 0
-3.29473 -4.80567 0
-3.26607 -3.26799 0
-1.37869 -6.676 0
-0.508782 -7.02553 0
-1.97569 -5.53743 0
2.6378 -9.60781 0
-5.50773 2.03707 0
-6.09523 3.07247 0
-6.10565 4.87008 0
-5.76225 3.99184 0
-5.76182 6.71776 0
-5.45266 5.61991 0
-4.94924 8.70895 0
-4.83893 7.40528 0
-3.50171 -0.42433 0
-4.4496 1.24912 0
-3.7117 0.59211 0
-4.06245 2.31997 0
-3.77626 9.2874 0
2.86287 -8.33364 0
0.419726 -6.79606 0
2.02222 -7.52659 0
1.30621 -6.90625 0
-2.44481 -0.873866 0
-2.83856 -2.13127 0
-2.29456 -4.09766 0
-2.3258 -2.97379 0
-0.442421 -5.86165 0
-1.22281 -4.49946 0
3.87625 -9.1874 0
-4.79019 3.39208 0
-5.08845 4.59461 0
-4.64768 6.28212 0
-4.53935 5.3603 0
-3.84415 7.99422 0
-3.82718 6.84649 0
-2.78361 8.42377 0
-1.64915 -0.137908 0
-1.45035 -0.890641 0
-2.48927 0.507287 0
-3.25384 1.44425 0
-3.23927 3.31681 0
-2.91118 2.37193 0
-1.35519 0.627143 0
-2.5378 9.7078 0
3.93313 -7.88785 0
2.96488 -7.15856 0
0.954178 -5.82257 0
2.07457 -6.41623 0
-1.68307 -1.99218 0
-1.43453 -3.278 0
0.0902259 -4.74737 0
-0.566214 -3.69469 0
4.93271 -7.31965 0
5.04924 -8.60895 0
-3.7773 4.55205 0
-3.73518 5.75279 0
-2.88832 7.29075 0
-3.01005 6.35448 0
-1.66275 8.7347 0
-1.94035 7.6203 0
-2.33857 4.05201 0
-0.730774 -1.32733 0
-0.836946 -0.257641 0
-1.93633 1.68088 0
-2.12592 2.87605 0
-1.30667 3.54496 0
-0.869512 1.35091 0
-0.282383 0.456074 0
-0.533584 8.87278 0
-1.25506 9.96295 0
1.11288 -4.575 0
3.91063 -6.71816 0
2.98828 -6.09552 0
2.11808 -5.42554 0
4.78507 -6.20619 0
-0.558888 -2.47698 0
0.495147 -3.4641 0
0.0535556 -1.61058 0
1.48202 -3.68247 0
5.86795 -6.61555 0
6.1367 -7.88234 0
-2.47594 5.34904 0
-2.13072 6.53528 0
-0.904193 7.80436 0
-1.27251 6.93297 0
0.0862155 7.88148 0
-1.14456 4.49512 0
0.150329 -0.617681 0
-0.797481 2.48867 0
-0.331675 3.60102 0
0.0631095 1.51282 0
0.741481 0.473449 0
0.646873 8.87547 0
0.0499999 10.0485 0
2.38125 -4.28568 0
3.8597 -5.64122 0
3.00183 -5.21341 0
5.57461 -5.49266 0
4.69171 -5.28383 0
0.629717 -2.29352 0
1.25628 -2.95146 0
0.757547 -1.39154 0
2.16454 -3.13611 0
2.9941 -3.47696 0
6.15617 -4.79257 0
6.65662 -5.77021 0
7.12001 -7.02002 0
-1.01975 5.82105 0
-0.372671 6.88459 0
1.12281 7.77081 0
0.558059 7.08089 0
-0.000765351 4.72568 0
0.607058 3.82819 0
1.33901 -0.641937 0
0.53914 2.65126 0
0.966151 1.57505 0
1.91034 0.213883 0
1.61489 1.06511 0
2.12977 7.5849 0
1.79951 8.71385 0
1.35506 9.96296 0
3.82334 -4.35219 0
5.11741 -4.44975 0
5.84675 -3.93582 0
3.78447 -3.20146 0
1.81244 -1.88278 0
3.01949 -2.57417 0
6.78463 -3.9486 0
7.38278 -4.89768 0
7.98235 -6.03671 0
0.483425 5.88238 0
1.42842 6.74309 0
2.37478 6.67033 0
1.21013 4.55675 0
1.48834 3.39801 0
2.43604 -0.692088 0
2.82836 0.14262 0
1.78907 2.16306 0
2.61217 1.15027 0
3.07264 7.17156 0
2.90479 8.37846 0
2.63781 9.70782 0
4.91207 -3.32842 0
6.12187 -3.10927 0
4.17346 -2.27557 0
3.24484 -1.50308 0
6.73275 -2.31351 0
7.23362 -3.04319 0
7.96658 -3.91307 0
8.70901 -4.94928 0
2.02396 5.60077 0
3.08716 6.15492 0
2.36426 4.12752 0
2.4204 3.06129 0
3.52616 -0.460918 0
3.61621 0.613373 0
2.96224 2.28839 0
3.54611 1.52549 0
4.01318 5.8996 0
3.98553 6.79499 0
3.97434 7.94077 0
3.87627 9.28743 0
5.56994 -1.91653 0
4.50997 -1.12978 0
6.71566 -1.33644 0
7.59461 -2.03696 0
8.39943 -2.86212 0
9.28739 -3.77626 0
3.41987 4.87808 0
3.3396 3.38598 0
4.69211 0.130099 0
4.52001 1.31021 0
4.06608 2.44426 0
4.57198 5.15405 0
4.84528 6.19282 0
4.98202 7.38278 0
5.04926 8.70896 0
5.88495 -0.435004 0
7.01312 -0.488391 0
7.76211 -1.08563 0
8.68761 -1.74648 0
9.70781 -2.53781 0
4.55368 3.82861 0
5.81939 1.09889 0
5.37279 2.53565 0
5.3821 4.62232 0
5.61431 5.52565 0
5.89935 6.67434 0
6.1367 7.98233 0
6.84862 0.463702 0
7.85636 -0.0256463 0
8.86366 -0.584548 0
9.96297 -1.25507 0
6.96328 1.34998 0
5.72336 3.77995 0
6.54409 2.19837 0
6.38288 3.08927 0
6.29515 4.68899 0
6.69581 5.8402 0
7.12001 7.12 0
7.78765 0.968013 0
8.86301 0.572976 0
10.0485 0.0499999 0
7.61956 2.00517 0
6.83226 3.90602 0
7.27283 2.94811 0
7.38147 4.88785 0
7.98236 6.13671 0
8.72661 1.72762 0
9.96297 1.35507 0
8.42453 2.83896 0
7.98502 3.91796 0
8.70897 5.04926 0
9.70783 2.63781 0
9.28743 3.87627 0
CELLS 542 2168
3 2 0 4
3 0 1 7
3 4 0 7
3 1 5 8
3 7 1 8
3 3 2 13
3 13 2 4
3 11 3 14
3 14 3 13
3 13 4 15
3 4 7 16
3 15 4 16
3 5 6 17
3 8 5 17
3 6 9 18
3 17 6 18
3 7 8 19
3 16 7 19
3 8 17 20
3 19 8 20
3 9 10 23
3 18 9 23
3 10 21 24
3 23 10 24
3 12 11 25
3 25 11 14
3 26 12 27
3 27 12 25
3 14 13 29
3 29 13 15
3 25 14 30
3 30 14 29
3 29 15 31
3 15 16 33
3 31 15 33
3 16 19 34
3 33 16 34
3 17 18 35
3 20 17 35
3 18 23 36
3 35 18 36
3 19 20 37
3 34 19 37
3 20 35 38
3 37 20 38
3 21 22 39
3 24 21 39
3 22 32 40
3 39 22 40
3 23 24 41
3 36 23 41
3 24 39 42
3 41 24 42
3 27 25 44
3 44 25 30
3 28 26 45
3 45 26 27
3 45 27 46
3 46 27 44
3 47 28 48
3 48 28 45
3 30 29 50
3 50 29 31
3 44 30 51
3 51 30 50
3 50 31 52
3 31 33 52
3 32 43 53
3 40 32 53
3 53 43 54
3 33 34 55
3 34 37 55
3 33 55 52
3 35 36 56
3 38 35 56
3 36 41 57
3 56 36 57
3 37 38 58
3 38 56 58
3 37 58 55
3 39 40 59
3 42 39 59
3 40 53 60
3 59 40 60
3 41 42 61
3 57 41 61
3 42 59 62
3 61 42 62
3 43 63 54
3 46 44 64
3 64 44 51
3 48 45 65
3 65 45 46
3 65 46 66
3 66 46 64
3 49 47 67
3 67 47 48
3 67 48 68
3 68 48 65
3 69 49 70
3 70 49 67
3 52 55 72
3 64 51 73
3 51 50 73
3 50 52 73
3 73 52 74
3 74 52 72
3 53 54 75
3 60 53 75
3 54 63 76
3 54 76 77
3 75 54 77
3 55 58 78
3 72 55 78
3 72 78 79
3 56 57 80
3 57 61 80
3 56 80 58
3 58 80 81
3 78 58 81
3 59 60 82
3 62 59 82
3 60 75 83
3 82 60 83
3 61 62 84
3 62 82 84
3 61 84 80
3 63 85 76
3 66 64 86
3 64 73 86
3 68 65 87
3 87 65 66
3 87 66 86
3 70 67 88
3 88 67 68
3 88 68 89
3 89 68 87
3 71 69 90
3 90 69 70
3 90 70 91
3 91 70 88
3 92 71 93
3 93 71 90
3 74 72 94
3 94 72 79
3 86 73 95
3 95 73 74
3 95 74 96
3 96 74 94
3 97 86 95
3 76 85 99
3 75 77 100
3 83 75 100
3 76 99 101
3 77 76 101
3 77 101 102
3 100 77 102
3 94 79 103
3 78 81 104
3 79 78 104
3 79 104 103
3 80 84 105
3 81 80 105
3 81 105 106
3 104 81 106
3 82 83 107
3 83 100 107
3 82 107 84
3 84 107 108
3 105 84 108
3 85 109 99
3 89 87 110
3 87 86 110
3 110 86 97
3 91 88 111
3 111 88 89
3 111 89 110
3 93 90 112
3 112 90 91
3 112 91 113
3 113 91 111
3 98 92 114
3 114 92 93
3 114 93 115
3 115 93 112
3 116 98 114
3 117 103 118
3 96 94 119
3 94 103 119
3 119 103 117
3 97 95 120
3 120 95 96
3 120 96 119
3 121 110 97
3 121 97 122
3 122 97 120
3 123 119 117
3 124 98 116
3 99 109 125
3 99 125 126
3 101 99 126
3 100 102 127
3 100 127 107
3 101 126 128
3 102 101 128
3 102 128 127
3 104 106 129
3 104 129 103
3 103 129 118
3 105 108 130
3 106 105 130
3 106 130 129
3 107 127 131
3 108 107 131
3 108 131 132
3 108 132 130
3 109 134 125
3 125 134 133
3 113 111 135
3 111 110 135
3 135 110 121
3 115 112 136
3 136 112 113
3 136 113 135
3 116 114 137
3 137 114 115
3 137 115 138
3 138 115 136
3 139 124 116
3 139 116 140
3 140 116 137
3 141 135 121
3 118 129 142
3 118 142 143
3 117 118 143
3 123 117 143
3 122 120 144
3 120 119 144
3 144 119 123
3 141 121 145
3 145 121 122
3 145 122 144
3 146 141 145
3 147 144 123
3 147 123 148
3 143 148 123
3 150 124 139
3 149 150 139
3 131 127 151
3 125 133 152
3 126 125 152
3 126 152 153
3 128 126 153
3 128 153 154
3 128 154 127
3 127 154 151
3 152 133 155
3 130 132 156
3 130 156 129
3 129 156 142
3 131 151 157
3 132 131 157
3 132 157 156
3 156 158 142
3 157 151 159
3 133 160 155
3 134 161 133
3 133 161 160
3 138 136 162
3 136 135 162
3 162 135 141
3 140 137 163
3 163 137 138
3 163 138 162
3 149 139 164
3 164 139 140
3 164 140 165
3 165 140 163
3 166 149 164
3 167 162 141
3 167 141 146
3 142 158 168
3 143 142 168
3 143 168 148
3 146 145 169
3 145 144 169
3 169 144 147
3 170 167 146
3 170 146 169
3 171 169 147
3 171 147 148
3 171 148 172
3 168 172 148
3 173 149 166
3 174 150 149
3 173 174 149
3 154 175 151
3 151 175 159
3 152 155 176
3 153 152 176
3 153 176 177
3 153 177 154
3 154 177 175
3 155 160 178
3 155 178 179
3 176 155 179
3 156 157 180
3 156 180 158
3 157 159 181
3 157 181 180
3 158 180 182
3 158 182 168
3 159 175 183
3 159 183 181
3 175 184 183
3 160 186 178
3 178 186 185
3 161 187 160
3 160 187 186
3 165 163 188
3 163 162 188
3 188 162 167
3 166 164 189
3 189 164 165
3 189 165 188
3 190 173 166
3 190 166 191
3 191 166 189
3 192 188 167
3 192 167 170
3 193 192 170
3 182 194 168
3 194 172 168
3 193 170 195
3 170 169 195
3 195 169 171
3 196 195 171
3 196 171 172
3 194 197 172
3 197 198 172
3 198 196 172
3 200 173 190
3 199 200 190
3 201 174 173
3 200 201 173
3 176 179 202
3 177 176 202
3 177 202 175
3 175 202 184
3 178 185 203
3 178 203 179
3 179 203 202
3 203 185 204
3 202 205 184
3 183 206 181
3 180 181 206
3 180 206 182
3 182 206 194
3 183 184 207
3 205 207 184
3 183 207 206
3 185 208 204
3 186 209 185
3 185 209 208
3 187 210 186
3 186 210 209
3 191 189 211
3 189 188 211
3 211 188 192
3 199 190 212
3 212 190 191
3 212 191 211
3 213 199 212
3 214 211 192
3 214 192 193
3 215 214 193
3 215 193 195
3 206 216 194
3 216 197 194
3 216 217 197
3 215 195 218
3 218 195 196
3 198 218 196
3 217 219 197
3 219 218 198
3 197 219 198
3 220 199 213
3 221 200 199
3 220 221 199
3 222 201 200
3 221 222 200
3 203 204 223
3 203 223 202
3 202 223 205
3 204 208 224
3 204 224 223
3 205 223 225
3 205 225 207
3 207 225 226
3 207 226 206
3 226 216 206
3 208 228 224
3 224 228 227
3 209 229 208
3 229 228 208
3 210 230 209
3 209 230 229
3 213 212 231
3 212 211 231
3 231 211 214
3 232 220 213
3 232 213 231
3 233 231 214
3 233 214 215
3 234 233 215
3 234 215 218
3 226 235 216
3 235 217 216
3 235 236 217
3 217 236 219
3 237 234 218
3 237 218 219
3 236 238 219
3 238 237 219
3 240 220 232
3 239 240 232
3 241 221 220
3 240 241 220
3 242 222 221
3 241 242 221
3 224 227 243
3 224 243 223
3 223 243 225
3 225 243 244
3 225 244 226
3 226 244 235
3 227 245 243
3 228 246 227
3 227 246 245
3 229 247 228
3 228 247 246
3 230 248 229
3 229 248 247
3 239 232 249
3 232 231 249
3 249 231 233
3 250 249 233
3 250 233 234
3 237 250 234
3 244 251 235
3 235 251 236
3 251 252 236
3 236 252 238
3 252 253 238
3 253 250 237
3 253 237 238
3 254 239 249
3 255 240 239
3 254 255 239
3 256 241 240
3 255 256 240
3 257 242 241
3 256 257 241
3 245 258 243
3 243 258 244
3 244 258 251
3 245 259 258
3 246 260 245
3 245 260 259
3 247 261 246
3 246 261 260
3 248 262 247
3 247 262 261
3 254 249 263
3 263 249 250
3 253 263 250
3 258 264 251
3 251 264 252
3 264 265 252
3 265 263 253
3 252 265 253
3 266 254 263
3 267 255 254
3 266 267 254
3 268 256 255
3 267 268 255
3 269 257 256
3 268 269 256
3 259 270 258
3 270 264 258
3 260 271 259
3 259 271 270
3 261 272 260
3 260 272 271
3 262 273 261
3 273 272 261
3 270 274 264
3 275 266 263
3 275 263 265
3 274 276 264
3 276 265 264
3 276 277 265
3 277 275 265
3 278 267 266
3 275 278 266
3 279 268 267
3 278 279 267
3 280 269 268
3 279 280 268
3 271 281 270
3 270 281 274
3 272 282 271
3 271 282 281
3 273 283 272
3 272 283 282
3 281 284 274
3 274 284 276
3 285 278 275
3 277 285 275
3 284 286 276
3 286 285 277
3 276 286 277
3 287 279 278
3 285 287 278
3 288 280 279
3 287 288 279
3 282 289 281
3 281 289 284
3 283 290 282
3 282 290 289
3 289 291 284
3 284 291 286
3 291 292 286
3 292 287 285
3 286 292 285
3 293 288 287
3 292 293 287
3 290 294 289
3 289 294 291
3 294 295 291
3 295 293 292
3 291 295 292
CELL_TYPES 542
5
5
5
5
5
5
5
5
5
5
5
5
5
5
5
5
5
5
5
5
5
5
5
5
5
5
5
5
5
5
5
5
5
5
5
5
5
5
5
5
5
5
5
5
5
5
5
5
5
5
5
5
5
5
5
5
5
5
5
5
5
5
5
5
5
5
5
5
5
5
5
5
5
5
5
5
5
5
5
5
5
5
5
5
5
5
5
5
5
5
5
5
5
5
5
5
5
5
5
5
5
5
5
5
5
5
5
5
5
5
5
5
5
5
5
5
5
5
5
5
5
5
5
5
5
5
5
5
5
5
5
5
5
5
5
5
5
5
5
5
5
5
5
5
5
5
5
5
5
5
5
5
5
5
5
5
5
5
5
5
5
5
5
5
5
5
5
5
5
5
5
5
5
5
5
5
5
5
5
5
5
5
5
5
5
5
5
5
5
5
5
5
5
5
5
5
5
5
5
5
5
5
5
5
5
5
5
5
5
5
5
5
5
5
5
5
5
5
5
5
5
5
5
5
5
5
5
5
5
5
5
5
5
5
5
5
5
5
5
5
5
5
5
5
5
5
5
5
5
5
5
5
5
5
5
5
5
5
5
5
5
5
5
5
5
5
5
5
5
5
5
5
5
5
5
5
5
5
5
5
5
5
5
5
5
5
5
5
5
5
5
5
5
5
5
5
5
5
5
5
5
5
5
5
5
5
5
5
5
5
5
5
5
5
5
5
5
5
5
5
5
5
5
5
5
5
5
5
5
5
5
5
5
5
5
5
5
5
5
5
5
5
5
5
5
5
5
5
5
5
5
5
5
5
5
5
5
5
5
5
5
5
5
5
5
5
5
5
5
5
5
5
5
5
5
5
5
5
5
5
5
5
5
5
5
5
5
5
5
5
5
5
5
5
5
5
5
5
5
5
5
5
5
5
5
5
5
5
5
5
5
5
5
5
5
5
5
5
5
5
5
5
5
5
5
5
5
5
5
5
5
5
5
5
5
5
5
5
5
5
5
5
5
5
5
5
5
5
5
5
5
5
5
5
5
5
5
5
5
5
5
5
5
5
5
5
5
5
5
5
5
5
5
5
5
5
5
5
5
5
5
5
5
5
5
5
5
5
5
5
5
5
5
5
5
5
5
5
5
5
5
5
5
5
5
5
5
5
5
5
5
5
5
5
5
5
5
5
5
5
5
5
5
5
5
5
5
5
5
5
5
5
5
5
5
5
5
5
5
5
5
5
POINT_DATA 296
SCALARS concentrations float 4
LOOKUP_TABLE default
0 0.999694 0.152833 9.9936
0 0.999688 0.152705 10.0505
0 0.999696 0.152366 9.93659
0 0.999693 0.151869 10.1522
0 0.999697 0.0908887 0.00482314
0 0.99968 0.151667 11.022
0 0.999689 0.152162 10.0799
0 0.999694 0.0908858 0.00270372
0 0.999687 0.0909104 0.00917857
0 0.999694 0.152099 9.95993
0 0.999702 0.152267 9.80272
0 0.999692 0.151414 9.97558
0 0.999691 0.151551 10.0675
0 0.999696 0.0908894 0.00494195
0 0.999694 0.0908828 0.00211913
0 0.999699 0.0908825 0.00375614
0 0.999699 0.0908848 0.00411196
0 0.999688 0.090913 0.00931265
0 0.999694 0.0908918 0.00414821
0 0.999697 0.0908867 0.00209442
0 0.999696 0.0908879 0.00018101
0 0.999712 0.152591 9.29382
0 0.999699 0.153554 10.1123
0 0.999697 0.090892 0.0056648
0 0.999705 0.090917 0.0127087
0 0.999694 0.0908816 0.00235909
0 0.999689 0.151108 9.96772
0 0.999692 0.0908872 0.00162722
0 0.999691 0.151548 10.0758
0 0.999698 0.090883 0.00313458
0 0.999698 0.0908817 0.00195567
0 0.999702 0.0908806 0.00279489
0 0.999694 0.152022 9.93285
0 0.999703 0.0908802 0.00306377
0 0.999702 0.090882 0.00339685
0 0.999697 0.0908891 0.00240502
0 0.999698 0.0908867 0.00451869
0 0.999703 0.0908801 0.00278487
0 0.999701 0.0908817 0.0028656
0 0.999704 0.0909215 0.0140208
0 0.999696 0.0908887 0.00382085
0 0.9997 0.0908941 0.00755529
0 0.999701 0.0908937 0.0079238
0 0.999695 0.15161 9.81345
0 0.999698 0.0908826 0.00112187
0 0.999693 0.0908865 0.00145307
0 0.999698 0.0908811 0.000714773
0 0.999692 0.151108 9.90941
0 0.999694 0.0908799 0.0015946
0 0.999693 0.150879 9.86285
0 0.999702 0.0908797 0.00217773
0 0.999702 0.0908799 0.00156685
0 0.999705 0.0908766 0.00185397
0 0.999696 0.090889 0.00141085
0 0.999696 0.0908872 0.000863701
0 0.999705 0.090877 0.00209956
0 0.999702 0.0908823 0.00330402
0 0.999702 0.0908863 0.0044433
0 0.999705 0.0908765 0.00206737
0 0.9997 0.0908928 0.00691923
0 0.999699 0.0908865 0.00334621
0 0.999702 0.0908861 0.00440175
0 0.999702 0.0908866 0.00459982
0 0.999692 0.150778 9.94539
0 0.999703 0.0908781 0.00130566
0 0.999698 0.0908819 0.00103864
0 0.999702 0.0908788 0.00121653
0 0.999695 0.0908789 0.00183953
0 0.999699 0.0908805 0.00183163
0 0.999693 0.150772 9.84555
0 0.999695 0.0908782 0.00191545
0 0.999693 0.150821 9.86212
0 0.999707 0.0908751 0.00137863
0 0.999705 0.0908751 0.00142213
0 0.999707 0.090874 0.00133848
0 0.9997 0.0908827 0.00231899
0 0.999693 0.0908924 0.00136079
0 0.9997 0.0908835 0.00180038
0 0.999707 0.0908752 0.00118724
0 0.999709 0.0908743 0.000932337
0 0.999705 0.0908794 0.00218694
0 0.999707 0.0908751 0.00104306
0 0.999702 0.090883 0.00324369
0 0.999702 0.090881 0.00250111
0 0.999705 0.0908797 0.00218141
0 0.999687 0.1509 9.75572
0 0.999705 0.0908744 0.00120691
0 0.999703 0.0908785 0.00147407
0 0.999699 0.09088 0.00215345
0 0.999702 0.0908791 0.00193775
0 0.999695 0.0908777 0.00184376
0 0.999699 0.0908794 0.0022165
0 0.999692 0.150792 9.92907
0 0.999695 0.0908778 0.00178355
0 0.999709 0.0908734 0.000993608
0 0.999707 0.090873 0.00125683
0 0.999709 0.0908728 0.00113461
0 0.999707 0.0908731 0.00124419
0 0.99969 0.151095 9.99909
0 0.999692 0.0908915 0.0017461
0 0.999703 0.0908791 0.00239511
0 0.999699 0.0908821 0.00179443
0 0.999703 0.0908799 0.00247778
0 0.99971 0.0908723 0.000503928
0 0.999709 0.0908738 0.000524101
0 0.999707 0.0908762 0.0011597
0 0.999709 0.0908743 0.000559476
0 0.999705 0.0908768 0.00189191
0 0.999707 0.0908755 0.00124275
0 0.99969 0.150751 10.0425
0 0.999706 0.0908749 0.00144411
0 0.999703 0.0908782 0.0020679
0 0.999699 0.090879 0.00212334
0 0.999702 0.0908785 0.00224593
0 0.999693 0.0908813 0.0013662
0 0.999699 0.0908792 0.00178827
0 0.999693 0.0908826 0.000622515
0 0.999711 0.0908712 0.000459679
0 0.999711 0.0908712 0.000213225
0 0.999711 0.0908715 0.000717443
0 0.999709 0.0908723 0.001075
0 0.999707 0.0908733 0.00130106
0 0.999709 0.0908727 0.00114881
0 0.999712 0.0908706 0.000477293
0 0.999692 0.150973 9.96205
0 0.999694 0.090879 0.00142747
0 0.999699 0.0908804 0.00196737
0 0.999705 0.0908757 0.00200856
0 0.999703 0.090879 0.00256075
0 0.999711 0.0908721 9.70062e-05
0 0.999709 0.0908739 0.000677108
0 0.999707 0.090874 0.00137117
0 0.999709 0.0908735 0.000911391
0 0.999695 0.0908781 0.00200692
0 0.999692 0.150832 9.8743
0 0.999706 0.0908745 0.00164704
0 0.999703 0.0908775 0.00212979
0 0.999698 0.0908801 0.00150847
0 0.999702 0.0908781 0.00204337
0 0.999694 0.0908868 0.00256289
0 0.999698 0.090882 0.00131526
0 0.999708 0.090873 0.00134783
0 0.999712 0.0908706 0.000111532
0 0.999712 0.0908698 0.000168805
0 0.999711 0.0908711 0.000723794
0 0.99971 0.0908723 0.00106115
0 0.999709 0.0908725 0.00115298
0 0.999712 0.0908702 0.00046473
0 0.999712 0.090869 0.000218194
0 0.999693 0.0909151 0.00890684
0 0.999692 0.151367 9.98213
0 0.999707 0.0908736 0.00148204
0 0.999699 0.0908789 0.00225023
0 0.999703 0.0908788 0.00257199
0 0.999706 0.0908757 0.0020736
0 0.999699 0.0908792 0.00264906
0 0.999711 0.090872 0.000476912
0 0.99971 0.0908726 0.000962989
0 0.999712 0.0908706 0.00032884
0 0.999709 0.0908734 0.00133213
0 0.999696 0.0908794 0.00257906
0 0.999694 0.150778 9.82872
0 0.999706 0.0908741 0.00164746
0 0.999703 0.0908779 0.0017817
0 0.999698 0.0908876 0.00269488
0 0.999702 0.0908798 0.00115009
0 0.999698 0.0908887 0.00259735
0 0.999708 0.0908729 0.00132709
0 0.999712 0.0908688 0.000119545
0 0.999711 0.0908709 0.000648426
0 0.99971 0.0908723 0.00107687
0 0.999712 0.0908699 0.00034987
0 0.999712 0.0908688 0.000111966
0 0.999693 0.0909139 0.00877194
0 0.99969 0.150202 9.97012
0 0.999707 0.0908738 0.00155525
0 0.999702 0.0908776 0.00239517
0 0.999705 0.0908759 0.00209919
0 0.9997 0.0908818 0.00331396
0 0.999702 0.0908779 0.00250341
0 0.999711 0.0908712 0.00056816
0 0.99971 0.0908719 0.000874808
0 0.999712 0.0908702 0.000411751
0 0.999709 0.0908727 0.00115255
0 0.999708 0.090874 0.00150344
0 0.999703 0.0908879 0.0039805
0 0.9997 0.090886 0.00236153
0 0.999697 0.150222 9.70189
0 0.999706 0.0908743 0.0013715
0 0.999703 0.090879 0.0005033
0 0.999698 0.0908867 0.00248911
0 0.999703 0.0908804 0.000367744
0 0.999708 0.090873 0.00132098
0 0.999709 0.0908726 0.00116822
0 0.999712 0.0908695 0.000285823
0 0.999711 0.090871 0.000611453
0 0.999712 0.0908702 0.000333989
0 0.999712 0.09087 0.000235501
0 0.999712 0.0908702 0.000259044
0 0.999699 0.0908813 0.00193864
0 0.999695 0.0908856 0.00280297
0 0.999692 0.150802 9.92135
0 0.999705 0.0908748 0.00182236
0 0.999703 0.0908786 0.00280167
0 0.999703 0.0908818 0.00364876
0 0.999707 0.0908741 0.00151892
0 0.999711 0.0908709 0.000596171
0 0.999709 0.0908728 0.00109241
0 0.999706 0.0908912 0.00455052
0 0.99971 0.0909163 0.000684127
0 0.999706 0.150477 9.72498
0 0.999706 0.0908739 0.00123075
0 0.999703 0.0908781 0.00133868
0 0.999703 0.0908787 0.00227196
0 0.999707 0.0908729 0.00131319
0 0.999709 0.0908724 0.00101046
0 0.999711 0.0908711 0.000520477
0 0.999711 0.0908717 0.00050907
0 0.999711 0.0908712 0.000521151
0 0.999711 0.0908714 0.000402585
0 0.999699 0.0908797 0.0024395
0 0.999695 0.0908791 0.00184013
0 0.999693 0.150067 9.75708
0 0.999705 0.0908752 0.00195414
0 0.999704 0.0908796 0.00321185
0 0.999707 0.0908734 0.00129754
0 0.99971 0.0908721 0.000823409
0 0.999703 0.0908797 0.00293143
0 0.999703 0.0908888 0.00412794
0 0.99971 0.0909211 0.000490499
0 0.999716 0.149783 7.69226
0 0.999706 0.090874 0.0016159
0 0.999704 0.0908776 0.00254848
0 0.999707 0.0908729 0.00131333
0 0.999709 0.0908727 0.00100327
0 0.999709 0.0908724 0.0007479
0 0.999709 0.0908726 0.000665529
0 0.999709 0.0908725 0.00076812
0 0.999709 0.0908728 0.00072644
0 0.999704 0.0908789 0.00281611
0 0.9997 0.0908803 0.00246501
0 0.999695 0.0908781 0.00163394
0 0.999693 0.149511 9.66191
0 0.999705 0.0908745 0.00168767
0 0.999707 0.0908729 0.00106042
0 0.999703 0.0908779 0.00232419
0 0.9997 0.0908821 0.00338422
0 0.999701 0.0908871 0.00249686
0 0.999706 0.151377 9.8869
0 0.999706 0.0908742 0.00185539
0 0.999707 0.0908731 0.00122855
0 0.999707 0.0908728 0.00086236
0 0.999707 0.090873 0.000849159
0 0.999707 0.0908731 0.00101619
0 0.999704 0.0908784 0.00266518
0 0.9997 0.0908854 0.00143494
0 0.999695 0.0908827 0.00133594
0 0.999693 0.150229 9.81664
0 0.999705 0.0908746 0.0014231
0 0.999702 0.0908785 0.00226078
0 0.999699 0.09088 0.00270126
0 0.999696 0.09088 0.00273824
0 0.999697 0.150525 9.74448
0 0.999706 0.0908745 0.00186048
0 0.999705 0.0908748 0.00131613
0 0.999706 0.0908749 0.001526
0 0.999704 0.0908799 0.00274642
0 0.999699 0.0908875 0.000417514
0 0.999687 0.0909121 0.00737791
0 0.999687 0.150657 10.0663
0 0.999703 0.0908783 0.00215433
0 0.999699 0.0908797 0.00248612
0 0.999695 0.0908786 0.00226146
0 0.999694 0.15012 9.72882
0 0.999702 0.0908794 0.00258035
0 0.999704 0.0908786 0.00269492
0 0.999703 0.0908786 0.00250112
0 0.999703 0.0908798 0.00291117
0 0.9997 0.0908854 0.00130614
0 0.999687 0.0909091 0.00668299
0 0.999676 0.149555 10.0181
0 0.999699 0.0908812 0.00292593
0 0.999696 0.0908791 0.00236831
0 0.999694 0.150467 9.77996
0 0.999699 0.0908814 0.00338379
0 0.9997 0.0908818 0.00282919
0 0.999699 0.0908821 0.00338409
0 0.999694 0.0908833 0.00150191
0 0.999687 0.148926 9.83116
0 0.999696 0.090884 0.0034938
0 0.999695 0.150427 9.69096
0 0.999696 0.0908865 0.00403966
0 0.999696 0.0908816 0.00279146
0 0.999693 0.149562 9.70616
0 0.999695 0.150526 9.8854
0 0.999695 0.150146 9.6325
VECTORS fa_u float
0.000293817 0.000121625 0
0.000276574 0.000160569 0
0.000305546 8.13154e-05 0
0.000320241 4.24416e-05 0
1.51199e-07 2.63143e-08 0
0.000277934 0.000213907 0
0.000227002 0.000226595 0
8.10987e-08 -2.87149e-08 0
-4.662e-08 -2.88317e-07 0
0.000193177 0.000251244 0
0.000156159 0.000270018 0
0.000317422 5.68764e-07 0
0.000317674 -4.13069e-05 0
1.13836e-07 1.08488e-07 0
6.15756e-08 2.74832e-08 0
1.06044e-07 5.51344e-08 0
1.2627e-07 3.42861e-08 0
-2.93646e-07 3.97789e-08 0
3.16938e-08 1.28134e-07 0
6.09434e-08 -2.69692e-08 0
3.8477e-09 -4.28599e-09 0
0.000113598 0.00027304 0
8.29532e-05 0.000310896 0
3.27662e-08 1.7725e-07 0
1.63314e-08 4.04059e-07 0
7.03727e-08 2.61267e-08 0
0.000306351 -8.21422e-05 0
-1.57758e-09 5.17539e-08 0
0.000296113 -0.000122917 0
8.84874e-08 4.60266e-08 0
5.79396e-08 2.27047e-08 0
8.45793e-08 2.74855e-08 0
4.18152e-05 0.000313284 0
9.23006e-08 3.13803e-08 0
1.03722e-07 3.04067e-08 0
-3.4563e-09 7.64493e-08 0
5.47362e-08 1.32958e-07 0
8.00754e-08 3.79532e-08 0
6.61838e-08 6.27223e-08 0
3.48715e-07 2.78281e-07 0
1.04627e-07 6.19254e-08 0
7.72128e-08 2.27672e-07 0
1.13048e-07 2.25371e-07 0
4.60392e-07 0.000312263 0
2.77257e-08 2.24858e-08 0
-3.42224e-08 -3.10909e-08 0
2.27365e-08 -5.83364e-10 0
0.000273033 -0.000157726 0
3.01216e-08 -4.0832e-08 0
0.000248951 -0.000191091 0
6.77123e-08 1.47256e-08 0
4.85754e-08 1.12323e-08 0
5.89499e-08 2.26224e-09 0
2.89904e-08 3.42775e-08 0
1.75558e-08 2.11448e-08 0
6.5044e-08 1.52493e-08 0
6.1188e-08 8.54933e-08 0
6.14973e-08 1.2731e-07 0
5.3716e-08 3.79744e-08 0
1.32792e-07 1.75615e-07 0
5.89249e-08 8.8685e-08 0
5.8015e-08 1.27483e-07 0
6.1114e-08 1.32996e-07 0
-4.04509e-05 0.000313866 0
4.13268e-08 -4.26232e-09 0
1.26046e-08 -3.05515e-08 0
3.47574e-08 -1.70406e-08 0
3.41222e-08 -4.7559e-08 0
3.5235e-08 -4.64253e-08 0
0.000221528 -0.000221523 0
3.78623e-08 -4.7763e-08 0
0.000191018 -0.000248978 0
4.35995e-08 -4.84502e-09 0
4.4862e-08 -5.92955e-09 0
4.14376e-08 -9.84206e-09 0
5.48527e-09 7.35859e-08 0
4.19396e-08 -1.07695e-08 0
-1.54942e-08 5.51529e-08 0
3.71584e-08 6.81292e-09 0
2.90741e-08 -5.90085e-09 0
3.45032e-08 6.04322e-08 0
2.43853e-08 2.25155e-08 0
3.72893e-08 9.62425e-08 0
1.14845e-08 7.87522e-08 0
1.70803e-08 6.7278e-08 0
-8.02057e-05 0.000299886 0
3.42364e-08 -1.7399e-08 0
3.37294e-08 -3.25943e-08 0
4.27977e-08 -5.35137e-08 0
4.22401e-08 -4.4918e-08 0
3.77556e-08 -4.49053e-08 0
4.45463e-08 -5.46803e-08 0
0.000158061 -0.000273562 0
3.74423e-08 -4.26489e-08 0
2.943e-08 -1.15532e-08 0
3.68888e-08 -1.54469e-08 0
3.31681e-08 -1.42586e-08 0
3.29044e-08 -2.20151e-08 0
0.000121768 -0.000293947 0
-4.16906e-08 -3.67272e-08 0
-1.33189e-08 7.50393e-08 0
-2.46457e-08 5.15057e-08 0
-2.97373e-08 7.30196e-08 0
1.38572e-08 -8.06832e-09 0
1.64459e-08 2.76576e-09 0
9.35719e-09 3.56954e-08 0
7.93894e-09 1.59343e-08 0
-3.0452e-09 6.01232e-08 0
-3.43377e-09 3.93949e-08 0
-0.000123064 0.000294904 0
3.39253e-08 -3.09937e-08 0
4.36481e-08 -4.92396e-08 0
4.16913e-08 -5.31674e-08 0
4.40875e-08 -5.62456e-08 0
4.26284e-08 -8.52496e-09 0
3.62145e-08 -4.38908e-08 0
1.10562e-08 -1.64357e-08 0
1.1987e-08 -8.38208e-09 0
5.90041e-09 -3.34945e-09 0
1.94884e-08 -1.18897e-08 0
2.97072e-08 -1.69578e-08 0
2.94525e-08 -2.90942e-08 0
2.9126e-08 -2.20897e-08 0
1.16565e-08 -9.73573e-09 0
8.19186e-05 -0.000306224 0
-3.28235e-08 3.1397e-08 0
-2.95728e-08 5.51763e-08 0
-2.01757e-08 6.06442e-08 0
-3.29616e-08 7.45184e-08 0
1.00781e-09 2.91757e-09 0
-4.34848e-09 2.11021e-08 0
-1.35516e-08 4.14726e-08 0
-1.06805e-08 2.6962e-08 0
-4.4844e-08 4.54655e-08 0
-0.000157371 0.000271948 0
3.28063e-08 -4.08707e-08 0
3.78263e-08 -5.62308e-08 0
3.18209e-08 -3.59356e-08 0
3.31158e-08 -5.59548e-08 0
8.07159e-08 1.16412e-08 0
3.9875e-08 -1.27089e-08 0
2.34746e-08 -3.58929e-08 0
-2.35215e-09 2.65752e-09 0
3.42202e-09 -4.14022e-09 0
1.81712e-08 -1.41505e-08 0
2.29266e-08 -2.47891e-08 0
1.6897e-08 -3.2565e-08 0
9.70508e-09 -1.11574e-08 0
2.93886e-09 -6.29025e-09 0
1.60585e-07 2.33531e-07 0
4.12943e-05 -0.000314935 0
-2.058e-08 4.24309e-08 0
-3.55995e-08 6.21254e-08 0
-3.37204e-08 7.45707e-08 0
-2.64483e-08 6.0449e-08 0
-5.34191e-08 6.52049e-08 0
-8.39757e-09 1.264e-08 0
-1.4565e-08 2.69594e-08 0
-7.24217e-09 7.55242e-09 0
-2.02898e-08 3.72169e-08 0
-6.57101e-08 4.9162e-08 0
-0.000190556 0.000247993 0
2.38599e-08 -4.66774e-08 0
2.97107e-08 -4.82851e-08 0
5.35168e-08 6.70011e-08 0
3.10743e-08 -1.93295e-08 0
-1.81676e-09 8.26274e-08 0
1.4298e-08 -3.97336e-08 0
-3.79536e-09 -2.54911e-10 0
1.08652e-08 -1.75403e-08 0
9.11615e-09 -3.30311e-08 0
4.23581e-09 -1.02955e-08 0
-1.77419e-09 -3.08957e-09 0
-1.62665e-07 2.26824e-07 0
-6.47652e-08 -0.000317248 0
-2.59386e-08 4.21456e-08 0
-3.79366e-08 6.61016e-08 0
-3.29593e-08 5.80982e-08 0
-8.52002e-08 6.21337e-08 0
-5.15748e-08 6.07082e-08 0
-1.12274e-08 1.417e-08 0
-1.65407e-08 2.2389e-08 0
-1.07978e-08 7.4207e-09 0
-2.20381e-08 2.93137e-08 0
-2.93701e-08 3.77624e-08 0
-1.09175e-07 6.42135e-08 0
-6.4181e-08 3.90818e-08 0
-0.000218189 0.000218397 0
1.38541e-08 -4.13834e-08 0
1.10243e-08 -1.16165e-08 0
-5.78095e-08 5.41405e-08 0
-1.16828e-08 -6.63125e-10 0
5.28502e-09 -4.17e-08 0
1.13437e-09 -3.71552e-08 0
-8.04304e-09 4.24571e-09 0
2.46001e-09 -1.93003e-08 0
5.87775e-11 -1.06273e-08 0
-7.48499e-09 3.59749e-10 0
-4.62351e-09 -6.82393e-09 0
-5.34198e-08 -3.08491e-08 0
-8.85295e-08 1.08366e-08 0
-4.11157e-05 -0.000313008 0
-3.59931e-08 4.54645e-08 0
-6.82839e-08 5.73134e-08 0
-9.46376e-08 6.72583e-08 0
-3.32479e-08 3.50791e-08 0
-1.4468e-08 1.22696e-08 0
-2.48038e-08 2.43526e-08 0
-1.19802e-07 8.13249e-08 0
1.77237e-08 1.26394e-08 0
-0.000244937 0.000189114 0
-2.29595e-09 -3.90949e-08 0
-2.51941e-08 -3.43472e-08 0
-3.51349e-08 -6.31814e-08 0
-4.89486e-09 -4.1498e-08 0
-4.87214e-09 -3.17816e-08 0
-1.41196e-08 8.65571e-09 0
-1.59784e-08 2.66143e-09 0
-4.74702e-09 -1.5889e-08 0
-1.07936e-08 -6.8992e-09 0
-4.41063e-08 -6.38768e-08 0
-4.75124e-08 -3.422e-08 0
-8.0273e-05 -0.000299913 0
-4.75645e-08 4.00503e-08 0
-8.34105e-08 5.90565e-08 0
-3.28315e-08 2.5035e-08 0
-2.19067e-08 1.43728e-08 0
-8.05511e-08 4.70349e-08 0
-1.04355e-07 7.97693e-08 0
1.03225e-08 -1.17066e-08 0
-0.000211858 0.000122585 0
-1.57174e-08 -4.89567e-08 0
-3.69433e-08 -7.21885e-08 0
-1.24475e-08 -3.98932e-08 0
-1.12411e-08 -2.98794e-08 0
-2.21608e-08 8.67461e-09 0
-2.11739e-08 -3.70498e-10 0
-1.44507e-08 -1.97121e-08 0
-2.04248e-08 -1.08232e-08 0
-4.93548e-08 -7.47913e-08 0
-3.7801e-08 -6.87268e-08 0
-2.39909e-08 -4.61257e-08 0
-0.000117524 -0.000284092 0
-4.54898e-08 2.85402e-08 0
-2.96052e-08 1.61895e-08 0
-6.85917e-08 2.76516e-08 0
-9.4545e-08 5.15504e-08 0
-6.53357e-08 4.52056e-08 0
-0.000291194 0.000119076 0
-2.89509e-08 -5.14525e-08 0
-1.96883e-08 -3.37724e-08 0
-2.69264e-08 5.2856e-09 0
-2.5788e-08 -8.06659e-09 0
-2.33577e-08 -2.236e-08 0
-5.17511e-08 -6.71851e-08 0