# vtk DataFile Version 2.0
CellBP Time: 1.2
ASCII
DATASET UNSTRUCTURED_GRID
POINTS 296 double
-9.1867 -3.77596 0
-8.60828 -4.94886 0
-9.60722 -2.53764 0
-9.86222 -1.25497 0
-8.35806 -2.81887 0
-7.88174 -6.03623 0
-7.01949 -7.01949 0
-7.9177 -3.87494 0
-7.34311 -4.86814 0
-6.03627 -7.88178 0
-4.94887 -8.60828 0
-9.94779 0.0499999 0
-9.86222 1.35497 0
-8.65817 -1.68403 0
-8.78681 -0.529655 0
-7.59019 -2.00427 0
-7.22622 -2.90667 0
-6.63807 -5.77925 0
-5.82279 -6.59733 0
-6.79073 -3.88917 0
-6.22101 -4.67624 0
-3.77602 -9.18682 0
-2.53761 -9.60704 0
-4.9068 -7.30929 0
-3.91327 -7.88676 0
-8.79327 0.643435 0
-9.60733 2.63768 0
-8.62379 1.77418 0
-9.18671 3.87598 0
-7.74481 -0.929039 0
-7.79503 0.0802595 0
-6.95302 -1.31596 0
-1.25497 -9.8622 0
-6.44191 -2.15326 0
-6.31981 -3.05633 0
-5.53692 -5.47496 0
-4.79625 -6.11591 0
-5.65942 -3.75726 0
-5.26977 -4.56191 0
-2.86636 -8.3645 0
-1.77868 -8.64083 0
-3.92842 -6.72404 0
-3.05684 -7.15313 0
0.0499998 -9.94786 0
-7.70604 1.14359 0
-8.33912 2.91561 0
-7.55244 2.11211 0
-8.60831 5.04888 0
-7.8806 3.9785 0
-7.88176 6.13626 0
-6.77917 -0.396882 0
-6.95704 0.552581 0
-5.77177 -1.00347 0
-0.590878 -8.81033 0
0.565721 -8.77152 0
-5.30346 -2.48043 0
-4.49229 -5.0961 0
-3.90279 -5.77575 0
-4.4392 -3.805 0
-2.06257 -7.56253 0
-1.13557 -7.78645 0
-2.99477 -6.10252 0
-2.3092 -6.6203 0
1.35497 -9.86223 0
-6.68995 1.42215 0
-7.17274 3.11836 0
-6.65977 2.37319 0
-7.29528 4.98903 0
-6.71862 4.00338 0
-7.01948 7.11949 0
-6.57301 5.89461 0
-6.03625 7.98176 0
-4.45338 -1.18114 0
-5.81499 0.513792 0
-4.65644 -0.0103823 0
0.00852167 -7.84875 0
1.7387 -8.6445 0
0.949042 -7.7641 0
-4.03876 -2.40653 0
-3.48576 -1.39128 0
-3.29473 -4.80567 0
-3.26607 -3.26799 0
-1.37869 -6.676 0
-0.508782 -7.02553 0
-1.97569 -5.53743 0
2.63761 -9.60709 0
-5.50773 2.03707 0
-6.09523 3.07247 0
-6.10565 4.87008 0
-5.76225 3.99184 0
-5.76182 6.71776 0
-5.45266 5.61991 0
-4.94888 8.70832 0
-4.83893 7.40528 0
-3.50171 -0.42433 0
-4.4496 1.24912 0
-3.7117 0.59211 0
-4.06245 2.31997 0
-3.77598 9.28673 0
2.86287 -8.33364 0
0.419726 -6.79606 0
2.02222 -7.52659 0
1.30621 -6.90625 0
-2.44481 -0.873866 0
-2.83856 -2.13127 0
-2.29456 -4.09766 0
-2.3258 -2.97379 0
-0.442421 -5.86165 0
-1.22281 -4.49946 0
3.87598 -9.18673 0
-4.79019 3.39208 0
-5.08845 4.59461 0
-4.64768 6.28212 0
-4.53935 5.3603 0
-3.84415 7.99422 0
-3.82718 6.84649 0
-2.78361 8.42377 0
-1.64915 -0.137908 0
-1.45035 -0.890641 0
-2.48927 0.507287 0
-3.25384 1.44425 0
-3.23927 3.31681 0
-2.91118 2.37193 0
-1.35519 0.627143 0
-2.53761 9.7071 0
3.93313 -7.88785 0
2.96488 -7.15856 0
0.954178 -5.82257 0
2.07457 -6.41623 0
-1.68307 -1.99218 0
-1.43453 -3.278 0
0.0902259 -4.74737 0
-0.566214 -3.69469 0
4.93271 -7.31965 0
5.04888 -8.60832 0
-3.7773 4.55205 0
-3.73518 5.75279 0
-2.88832 7.29075 0
-3.01005 6.35448 0
-1.66275 8.7347 0
-1.94035 7.6203 0
-2.33857 4.05201 0
-0.730774 -1.32733 0
-0.836946 -0.257641 0
-1.93633 1.68088 0
-2.12592 2.87605 0
-1.30667 3.54496 0
-0.869512 1.35091 0
-0.282383 0.456074 0
-0.533584 8.87278 0
-1.25497 9.96222 0
1.11288 -4.575 0
3.91063 -6.71816 0
2.98828 -6.09552 0
2.11808 -5.42554 0
4.78507 -6.20619 0
-0.558888 -2.47698 0
0.495147 -3.4641 0
0.0535556 -1.61058 0
1.48202 -3.68247 0
5.86795 -6.61555 0
6.13625 -7.88176 0
-2.47594 5.34904 0
-2.13072 6.53528 0
-0.904193 7.80436 0
-1.27251 6.93297 0
0.0862155 7.88148 0
-1.14456 4.49512 0
0.150329 -0.617681 0
-0.797481 2.48867 0
-0.331675 3.60102 0
0.0631095 1.51282 0
0.741481 0.473449 0
0.646873 8.87547 0
0.05 10.0478 0
2.38125 -4.28568 0
3.8597 -5.64122 0
3.00183 -5.21341 0
5.57461 -5.49266 0
4.69171 -5.28383 0
0.629717 -2.29352 0
1.25628 -2.95146 0
0.757547 -1.39154 0
2.16454 -3.13611 0
2.9941 -3.47696 0
6.15617 -4.79257 0
6.65662 -5.77021 0
7.11949 -7.0195 0
-1.01975 5.82105 0
-0.372671 6.88459 0
1.12281 7.7708 0
0.558059 7.08089 0
-0.000765354 4.72568 0
0.607058 3.82819 0
1.33901 -0.641937 0
0.53914 2.65126 0
0.966151 1.57505 0
1.91034 0.213883 0
1.61489 1.06511 0
2.12977 7.5849 0
1.79951 8.71385 0
1.35497 9.96223 0
3.82334 -4.35219 0
5.11741 -4.44975 0
5.84675 -3.93582 0
3.78447 -3.20146 0
1.81244 -1.88278 0
3.01949 -2.57417 0
6.78463 -3.9486 0
7.38278 -4.89768 0
7.98175 -6.03625 0
0.483425 5.88238 0
1.42842 6.74309 0
2.37478 6.67033 0
1.21013 4.55675 0
1.48834 3.39801 0
2.43604 -0.692088 0
2.82836 0.14262 0
1.78907 2.16306 0
2.61217 1.15027 0
3.07264 7.17156 0
2.90479 8.37846 0
2.63763 9.70711 0
4.91207 -3.32842 0
6.12187 -3.10927 0
4.17346 -2.27557 0
3.24484 -1.50308 0
6.73275 -2.31351 0
7.23362 -3.04319 0
7.96658 -3.91307 0
8.70831 -4.94889 0
2.02396 5.60077 0
3.08716 6.15492 0
2.36426 4.12752 0
2.4204 3.06129 0
3.52616 -0.460918 0
3.61621 0.613373 0
2.96224 2.28839 0
3.54611 1.52549 0
4.01318 5.8996 0
3.98553 6.79499 0
3.97434 7.94077 0
3.87599 9.28675 0
5.56993 -1.91653 0
4.50997 -1.12978 0
6.71566 -1.33644 0
7.59461 -2.03696 0
8.39943 -2.86212 0
9.28666 -3.77596 0
3.41987 4.87808 0
3.3396 3.38598 0
4.69211 0.130099 0
4.52001 1.31021 0
4.06608 2.44426 0
4.57198 5.15405 0
4.84528 6.19282 0
4.98202 7.38278 0
5.04889 8.70833 0
5.88495 -0.435004 0
7.01312 -0.488391 0
7.76211 -1.08563 0
8.68761 -1.74648 0
9.70711 -2.53762 0
4.55368 3.82861 0
5.81939 1.09889 0
5.37279 2.53565 0
5.3821 4.62232 0
5.61431 5.52565 0
5.89935 6.67434 0
6.13626 7.98176 0
6.84862 0.463702 0
7.85636 -0.0256463 0
8.86366 -0.584548 0
9.96225 -1.25497 0
6.96328 1.34998 0
5.72336 3.77995 0
6.54409 2.19837 0
6.38288 3.08927 0
6.29515 4.68899 0
6.69581 5.8402 0
7.11949 7.11948 0
7.78765 0.968013 0
8.86301 0.572976 0
10.0478 0.05 0
7.61956 2.00517 0
6.83226 3.90602 0
7.27283 2.94811 0
7.38147 4.88785 0
7.98179 6.13628 0
8.72661 1.72762 0
9.96224 1.35497 0
8.42453 2.83896 0
7.98502 3.91796 0
8.7084 5.04892 0
9.70713 2.63762 0
9.28682 3.87602 0
CELLS 542 2168
3 2 0 4
3 0 1 7
3 4 0 7
3 1 5 8
3 7 1 8
3 3 2 13
3 13 2 4
3 11 3 14
3 14 3 13
3 13 4 15
3 4 7 16
3 15 4 16
3 5 6 17
3 8 5 17
3 6 9 18
3 17 6 18
3 7 8 19
3 16 7 19
3 8 17 20
3 19 8 20
3 9 10 23
3 18 9 23
3 10 21 24
3 23 10 24
3 12 11 25
3 25 11 14
3 26 12 27
3 27 12 25
3 14 13 29
3 29 13 15
3 25 14 30
3 30 14 29
3 29 15 31
3 15 16 33
3 31 15 33
3 16 19 34
3 33 16 34
3 17 18 35
3 20 17 35
3 18 23 36
3 35 18 36
3 19 20 37
3 34 19 37
3 20 35 38
3 37 20 38
3 21 22 39
3 24 21 39
3 22 32 40
3 39 22 40
3 23 24 41
3 36 23 41
3 24 39 42
3 41 24 42
3 27 25 44
3 44 25 30
3 28 26 45
3 45 26 27
3 45 27 46
3 46 27 44
3 47 28 48
3 48 28 45
3 30 29 50
3 50 29 31
3 44 30 51
3 51 30 50
3 50 31 52
3 31 33 52
3 32 43 53
3 40 32 53
3 53 43 54
3 33 34 55
3 34 37 55
3 33 55 52
3 35 36 56
3 38 35 56
3 36 41 57
3 56 36 57
3 37 38 58
3 38 56 58
3 37 58 55
3 39 40 59
3 42 39 59
3 40 53 60
3 59 40 60
3 41 42 61
3 57 41 61
3 42 59 62
3 61 42 62
3 43 63 54
3 46 44 64
3 64 44 51
3 48 45 65
3 65 45 46
3 65 46 66
3 66 46 64
3 49 47 67
3 67 47 48
3 67 48 68
3 68 48 65
3 69 49 70
3 70 49 67
3 52 55 72
3 64 51 73
3 51 50 73
3 50 52 73
3 73 52 74
3 74 52 72
3 53 54 75
3 60 53 75
3 54 63 76
3 54 76 77
3 75 54 77
3 55 58 78
3 72 55 78
3 72 78 79
3 56 57 80
3 57 61 80
3 56 80 58
3 58 80 81
3 78 58 81
3 59 60 82
3 62 59 82
3 60 75 83
3 82 60 83
3 61 62 84
3 62 82 84
3 61 84 80
3 63 85 76
3 66 64 86
3 64 73 86
3 68 65 87
3 87 65 66
3 87 66 86
3 70 67 88
3 88 67 68
3 88 68 89
3 89 68 87
3 71 69 90
3 90 69 70
3 90 70 91
3 91 70 88
3 92 71 93
3 93 71 90
3 74 72 94
3 94 72 79
3 86 73 95
3 95 73 74
3 95 74 96
3 96 74 94
3 97 86 95
3 76 85 99
3 75 77 100
3 83 75 100
3 76 99 101
3 77 76 101
3 77 101 102
3 100 77 102
3 94 79 103
3 78 81 104
3 79 78 104
3 79 104 103
3 80 84 105
3 81 80 105
3 81 105 106
3 104 81 106
3 82 83 107
3 83 100 107
3 82 107 84
3 84 107 108
3 105 84 108
3 85 109 99
3 89 87 110
3 87 86 110
3 110 86 97
3 91 88 111
3 111 88 89
3 111 89 110
3 93 90 112
3 112 90 91
3 112 91 113
3 113 91 111
3 98 92 114
3 114 92 93
3 114 93 115
3 115 93 112
3 116 98 114
3 117 103 118
3 96 94 119
3 94 103 119
3 119 103 117
3 97 95 120
3 120 95 96
3 120 96 119
3 121 110 97
3 121 97 122
3 122 97 120
3 123 119 117
3 124 98 116
3 99 109 125
3 99 125 126
3 101 99 126
3 100 102 127
3 100 127 107
3 101 126 128
3 102 101 128
3 102 128 127
3 104 106 129
3 104 129 103
3 103 129 118
3 105 108 130
3 106 105 130
3 106 130 129
3 107 127 131
3 108 107 131
3 108 131 132
3 108 132 130
3 109 134 125
3 125 134 133
3 113 111 135
3 111 110 135
3 135 110 121
3 115 112 136
3 136 112 113
3 136 113 135
3 116 114 137
3 137 114 115
3 137 115 138
3 138 115 136
3 139 124 116
3 139 116 140
3 140 116 137
3 141 135 121
3 118 129 142
3 118 142 143
3 117 118 143
3 123 117 143
3 122 120 144
3 120 119 144
3 144 119 123
3 141 121 145
3 145 121 122
3 145 122 144
3 146 141 145
3 147 144 123
3 147 123 148
3 143 148 123
3 150 124 139
3 149 150 139
3 131 127 151
3 125 133 152
3 126 125 152
3 126 152 153
3 128 126 153
3 128 153 154
3 128 154 127
3 127 154 151
3 152 133 155
3 130 132 156
3 130 156 129
3 129 156 142
3 131 151 157
3 132 131 157
3 132 157 156
3 156 158 142
3 157 151 159
3 133 160 155
3 134 161 133
3 133 161 160
3 138 136 162
3 136 135 162
3 162 135 141
3 140 137 163
3 163 137 138
3 163 138 162
3 149 139 164
3 164 139 140
3 164 140 165
3 165 140 163
3 166 149 164
3 167 162 141
3 167 141 146
3 142 158 168
3 143 142 168
3 143 168 148
3 146 145 169
3 145 144 169
3 169 144 147
3 170 167 146
3 170 146 169
3 171 169 147
3 171 147 148
3 171 148 172
3 168 172 148
3 173 149 166
3 174 150 149
3 173 174 149
3 154 175 151
3 151 175 159
3 152 155 176
3 153 152 176
3 153 176 177
3 153 177 154
3 154 177 175
3 155 160 178
3 155 178 179
3 176 155 179
3 156 157 180
3 156 180 158
3 157 159 181
3 157 181 180
3 158 180 182
3 158 182 168
3 159 175 183
3 159 183 181
3 175 184 183
3 160 186 178
3 178 186 185
3 161 187 160
3 160 187 186
3 165 163 188
3 163 162 188
3 188 162 167
3 166 164 189
3 189 164 165
3 189 165 188
3 190 173 166
3 190 166 191
3 191 166 189
3 192 188 167
3 192 167 170
3 193 192 170
3 182 194 168
3 194 172 168
3 193 170 195
3 170 169 195
3 195 169 171
3 196 195 171
3 196 171 172
3 194 197 172
3 197 198 172
3 198 196 172
3 200 173 190
3 199 200 190
3 201 174 173
3 200 201 173
3 176 179 202
3 177 176 202
3 177 202 175
3 175 202 184
3 178 185 203
3 178 203 179
3 179 203 202
3 203 185 204
3 202 205 184
3 183 206 181
3 180 181 206
3 180 206 182
3 182 206 194
3 183 184 207
3 205 207 184
3 183 207 206
3 185 208 204
3 186 209 185
3 185 209 208
3 187 210 186
3 186 210 209
3 191 189 211
3 189 188 211
3 211 188 192
3 199 190 212
3 212 190 191
3 212 191 211
3 213 199 212
3 214 211 192
3 214 192 193
3 215 214 193
3 215 193 195
3 206 216 194
3 216 197 194
3 216 217 197
3 215 195 218
3 218 195 196
3 198 218 196
3 217 219 197
3 219 218 198
3 197 219 198
3 220 199 213
3 221 200 199
3 220 221 199
3 222 201 200
3 221 222 200
3 203 204 223
3 203 223 202
3 202 223 205
3 204 208 224
3 204 224 223
3 205 223 225
3 205 225 207
3 207 225 226
3 207 226 206
3 226 216 206
3 208 228 224
3 224 228 227
3 209 229 208
3 229 228 208
3 210 230 209
3 209 230 229
3 213 212 231
3 212 211 231
3 231 211 214
3 232 220 213
3 232 213 231
3 233 231 214
3 233 214 215
3 234 233 215
3 234 215 218
3 226 235 216
3 235 217 216
3 235 236 217
3 217 236 219
3 237 234 218
3 237 218 219
3 236 238 219
3 238 237 219
3 240 220 232
3 239 240 232
3 241 221 220
3 240 241 220
3 242 222 221
3 241 242 221
3 224 227 243
3 224 243 223
3 223 243 225
3 225 243 244
3 225 244 226
3 226 244 235
3 227 245 243
3 228 246 227
3 227 246 245
3 229 247 228
3 228 247 246
3 230 248 229
3 229 248 247
3 239 232 249
3 232 231 249
3 249 231 233
3 250 249 233
3 250 233 234
3 237 250 234
3 244 251 235
3 235 251 236
3 251 252 236
3 236 252 238
3 252 253 238
3 253 250 237
3 253 237 238
3 254 239 249
3 255 240 239
3 254 255 239
3 256 241 240
3 255 256 240
3 257 242 241
3 256 257 241
3 245 258 243
3 243 258 244
3 244 258 251
3 245 259 258
3 246 260 245
3 245 260 259
3 247 261 246
3 246 261 260
3 248 262 247
3 247 262 261
3 254 249 263
3 263 249 250
3 253 263 250
3 258 264 251
3 251 264 252
3 264 265 252
3 265 263 253
3 252 265 253
3 266 254 263
3 267 255 254
3 266 267 254
3 268 256 255
3 267 268 255
3 269 257 256
3 268 269 256
3 259 270 258
3 270 264 258
3 260 271 259
3 259 271 270
3 261 272 260
3 260 272 271
3 262 273 261
3 273 272 261
3 270 274 264
3 275 266 263
3 275 263 265
3 274 276 264
3 276 265 264
3 276 277 265
3 277 275 265
3 278 267 266
3 275 278 266
3 279 268 267
3 278 279 267
3 280 269 268
3 279 280 268
3 271 281 270
3 270 281 274
3 272 282 271
3 271 282 281
3 273 283 272
3 272 283 282
3 281 284 274
3 274 284 276
3 285 278 275
3 277 285 275
3 284 286 276
3 286 285 277
3 276 286 277
3 287 279 278
3 285 287 278
3 288 280 279
3 287 288 279
3 282 289 281
3 281 289 284
3 283 290 282
3 282 290 289
3 289 291 284
3 284 291 286
3 291 292 286
3 292 287 285
3 286 292 285
3 293 288 287
3 292 293 287
3 290 294 289
3 289 294 291
3 294 295 291
3 295 293 292
3 291 295 292
CELL_TYPES 542
5
5
5
5
5
5
5
5
5
5
5
5
5
5
5
5
5
5
5
5
5
5
5
5
5
5
5
5
5
5
5
5
5
5
5
5
5
5
5
5
5
5
5
5
5
5
5
5
5
5
5
5
5
5
5
5
5
5
5
5
5
5
5
5
5
5
5
5
5
5
5
5
5
5
5
5
5
5
5
5
5
5
5
5
5
5
5
5
5
5
5
5
5
5
5
5
5
5
5
5
5
5
5
5
5
5
5
5
5
5
5
5
5
5
5
5
5
5
5
5
5
5
5
5
5
5
5
5
5
5
5
5
5
5
5
5
5
5
5
5
5
5
5
5
5
5
5
5
5
5
5
5
5
5
5
5
5
5
5
5
5
5
5
5
5
5
5
5
5
5
5
5
5
5
5
5
5
5
5
5
5
5
5
5
5
5
5
5
5
5
5
5
5
5
5
5
5
5
5
5
5
5
5
5
5
5
5
5
5
5
5
5
5
5
5
5
5
5
5
5
5
5
5
5
5
5
5
5
5
5
5
5
5
5
5
5
5
5
5
5
5
5
5
5
5
5
5
5
5
5
5
5
5
5
5
5
5
5
5
5
5
5
5
5
5
5
5
5
5
5
5
5
5
5
5
5
5
5
5
5
5
5
5
5
5
5
5
5
5
5
5
5
5
5
5
5
5
5
5
5
5
5
5
5
5
5
5
5
5
5
5
5
5
5
5
5
5
5
5
5
5
5
5
5
5
5
5
5
5
5
5
5
5
5
5
5
5
5
5
5
5
5
5
5
5
5
5
5
5
5
5
5
5
5
5
5
5
5
5
5
5
5
5
5
5
5
5
5
5
5
5
5
5
5
5
5
5
5
5
5
5
5
5
5
5
5
5
5
5
5
5
5
5
5
5
5
5
5
5
5
5
5
5
5
5
5
5
5
5
5
5
5
5
5
5
5
5
5
5
5
5
5
5
5
5
5
5
5
5
5
5
5
5
5
5
5
5
5
5
5
5
5
5
5
5
5
5
5
5
5
5
5
5
5
5
5
5
5
5
5
5
5
5
5
5
5
5
5
5
5
5
5
5
5
5
5
5
5
5
5
5
5
5
5
5
5
5
5
5
5
5
5
5
5
5
5
5
5
5
5
5
5
5
5
5
5
5
5
5
5
5
5
5
5
5
5
5
5
5
5
5
5
5
5
5
5
5
5
5
5
5
5
5
5
5
5
5
5
5
5
5
5
POINT_DATA 296
SCALARS concentrations float 4
LOOKUP_TABLE default
0 0.999546 0.17624 12.6321
0 0.999547 0.176032 12.4974
0 0.999545 0.175583 12.5128
0 0.999548 0.17498 12.6592
0 0.999548 0.0908871 0.00163071
0 0.99955 0.175625 12.3509
0 0.999547 0.175298 12.3057
0 0.999548 0.0908869 0.00198016
0 0.99955 0.0908907 0.00369647
0 0.999545 0.175256 12.5213
0 0.999543 0.175498 12.6841
0 0.999552 0.17389 11.0867
0 0.999549 0.174494 12.5113
0 0.999549 0.0908892 0.00172637
0 0.999553 0.0909073 0.00215198
0 0.999552 0.0908881 0.00250126
0 0.999552 0.0908876 0.00225045
0 0.99955 0.0908908 0.00368376
0 0.999548 0.0908872 0.00179739
0 0.999552 0.0908878 0.00282038
0 0.999553 0.0908877 0.0030089
0 0.99954 0.17641 12.9079
0 0.999546 0.17725 12.6325
0 0.999546 0.0908871 0.00175015
0 0.999544 0.0908905 0.00109243
0 0.999553 0.0909069 0.00207492
0 0.999548 0.17395 12.3187
0 0.99955 0.0908888 0.00200264
0 0.999548 0.174504 12.2932
0 0.999554 0.0908902 0.00360728
0 0.999556 0.0908903 0.00391219
0 0.999556 0.0908864 0.00255594
0 0.999546 0.175166 12.4815
0 0.999556 0.0908855 0.00193343
0 0.999555 0.0908863 0.00212824
0 0.999552 0.090888 0.00280811
0 0.999551 0.0908877 0.00198317
0 0.999556 0.0908856 0.00203601
0 0.999555 0.0908865 0.00228772
0 0.999545 0.090892 0.00208459
0 0.999548 0.0908872 0.00264934
0 0.999551 0.0908879 0.00136258
0 0.99955 0.0908878 0.00129755
0 0.999545 0.174599 12.3772
0 0.999555 0.0908899 0.00366005
0 0.999549 0.0908867 0.0022758
0 0.999553 0.0908881 0.00282856
0 0.999547 0.173921 12.2806
0 0.999549 0.0908863 0.00224805
0 0.999547 0.173616 12.2536
0 0.999557 0.0908858 0.00274607
0 0.999557 0.0908865 0.00311731
0 0.999558 0.0908825 0.00132999
0 0.999547 0.0908871 0.00210372
0 0.999547 0.0908867 0.0020202
0 0.999558 0.0908826 0.00119078
0 0.999556 0.0908859 0.0018808
0 0.999555 0.0908865 0.00166549
0 0.999558 0.0908827 0.00120391
0 0.999551 0.090888 0.00176577
0 0.999552 0.0908877 0.00210237
0 0.999556 0.0908861 0.00147962
0 0.999555 0.0908867 0.0016211
0 0.999545 0.173495 12.3095
0 0.999556 0.0908856 0.00238863
0 0.999552 0.0908876 0.00245639
0 0.999556 0.0908863 0.00217153
0 0.999548 0.0908861 0.00203615
0 0.999552 0.0908873 0.00225432
0 0.999547 0.173473 12.2382
0 0.999548 0.090886 0.0019497
0 0.999547 0.173537 12.2375
0 0.99956 0.0908814 0.000890981
0 0.999559 0.0908825 0.00146235
0 0.999561 0.0908813 0.000956124
0 0.999551 0.0908875 0.00198335
0 0.999546 0.0908871 0.00184526
0 0.999551 0.0908875 0.00182926
0 0.999561 0.0908814 0.000840425
0 0.999562 0.0908809 0.000745615
0 0.999559 0.0908829 0.00108001
0 0.999561 0.0908815 0.000846367
0 0.999556 0.0908857 0.00161886
0 0.999555 0.090886 0.00176358
0 0.999559 0.090883 0.001088
0 0.999544 0.173877 12.4758
0 0.999559 0.0908823 0.00126813
0 0.999556 0.0908855 0.0018533
0 0.999552 0.0908873 0.00216082
0 0.999555 0.0908862 0.00191457
0 0.999548 0.090886 0.00194783
0 0.999552 0.0908873 0.00211411
0 0.999547 0.173496 12.2131
0 0.999549 0.090886 0.00210326
0 0.999563 0.0908805 0.000723867
0 0.999561 0.0908813 0.000983377
0 0.999562 0.0908807 0.000802676
0 0.999561 0.0908812 0.000941059
0 0.999547 0.173951 12.326
0 0.999547 0.090887 0.00192026
0 0.999556 0.0908858 0.0017038
0 0.999551 0.0908869 0.00163561
0 0.999555 0.0908863 0.0017209
0 0.999564 0.0908795 0.000528583
0 0.999563 0.0908806 0.000680442
0 0.999561 0.0908816 0.000844747
0 0.999562 0.090881 0.000741795
0 0.999559 0.090883 0.00122073
0 0.999561 0.0908815 0.00087079
0 0.999546 0.173454 12.2748
0 0.999559 0.0908824 0.00117267
0 0.999556 0.0908856 0.00176947
0 0.999552 0.0908873 0.00212776
0 0.999555 0.0908864 0.00190267
0 0.999549 0.0908862 0.00223177
0 0.999552 0.0908872 0.00216046
0 0.999549 0.0908863 0.00228963
0 0.999565 0.0908789 0.00046489
0 0.999565 0.0908789 0.000449891
0 0.999564 0.0908793 0.000536519
0 0.999563 0.0908805 0.000765976
0 0.999561 0.0908812 0.000908776
0 0.999563 0.0908808 0.000824439
0 0.999565 0.0908784 0.000379154
0 0.999548 0.173735 12.2284
0 0.999548 0.0908861 0.00210099
0 0.999551 0.0908866 0.00170844
0 0.999559 0.0908834 0.00133963
0 0.999555 0.090886 0.00166575
0 0.999564 0.0908795 0.000520887
0 0.999563 0.0908807 0.000710112
0 0.999561 0.0908815 0.00094342
0 0.999563 0.0908806 0.000735431
0 0.999548 0.0908862 0.00180503
0 0.999547 0.173555 12.2508
0 0.999559 0.0908824 0.00114521
0 0.999556 0.0908857 0.00176805
0 0.999552 0.0908873 0.0022368
0 0.999555 0.0908862 0.0019014
0 0.999549 0.0908866 0.00226253
0 0.999552 0.0908873 0.00230451
0 0.999561 0.0908811 0.000918092
0 0.999565 0.0908784 0.000397205
0 0.999566 0.0908776 0.000267478
0 0.999564 0.0908792 0.000515567
0 0.999563 0.0908804 0.000752091
0 0.999563 0.0908808 0.000850017
0 0.999565 0.0908782 0.000329467
0 0.999566 0.0908768 0.00010749
0 0.999548 0.0908882 0.00192935
0 0.999547 0.174255 12.2602
0 0.999561 0.0908816 0.000992564
0 0.999552 0.0908867 0.00191214
0 0.999555 0.0908863 0.00178723
0 0.999559 0.0908835 0.00133495
0 0.999552 0.0908872 0.00199248
0 0.999564 0.0908795 0.000546951
0 0.999563 0.0908805 0.00074574
0 0.999565 0.0908785 0.000412522
0 0.999562 0.0908816 0.000979299
0 0.999547 0.0908865 0.00143714
0 0.999546 0.173481 12.2595
0 0.999559 0.0908823 0.00118162
0 0.999556 0.0908855 0.00184261
0 0.999552 0.0908876 0.00224448
0 0.999555 0.0908863 0.00202419
0 0.999552 0.0908876 0.00219505
0 0.999561 0.0908812 0.000994939
0 0.999566 0.0908769 0.0001598
0 0.999564 0.0908791 0.000497195
0 0.999563 0.0908806 0.000831997
0 0.999565 0.0908779 0.000292453
0 0.999566 0.090877 0.000173734
0 0.999548 0.090888 0.00199171
0 0.999547 0.17328 12.2822
0 0.999561 0.0908819 0.00107928
0 0.999556 0.0908857 0.00182157
0 0.999558 0.0908839 0.00145698
0 0.999552 0.090888 0.00174258
0 0.999556 0.0908859 0.00192226
0 0.999564 0.0908792 0.000510284
0 0.999564 0.09088 0.000654119
0 0.999565 0.0908784 0.000395956
0 0.999563 0.090881 0.000873492
0 0.999561 0.0908823 0.00120641
0 0.99955 0.0908891 0.0012285
0 0.999545 0.0908883 0.00119521
0 0.999544 0.17274 12.2064
0 0.999559 0.0908824 0.00129416
0 0.999556 0.0908855 0.00189361
0 0.999552 0.0908876 0.00219063
0 0.999556 0.0908862 0.00199525
0 0.999561 0.0908814 0.00106443
0 0.999563 0.090881 0.000941318
0 0.999565 0.0908779 0.000337253
0 0.999564 0.0908792 0.000555733
0 0.999565 0.0908783 0.000402793
0 0.999565 0.0908785 0.000446879
0 0.999565 0.0908786 0.000466073
0 0.999552 0.0908874 0.00217894
0 0.999549 0.0908863 0.00210904
0 0.999547 0.173506 12.2084
0 0.999559 0.0908831 0.00141796
0 0.999556 0.0908858 0.0018034
0 0.999555 0.0908871 0.00144779
0 0.999561 0.0908823 0.0012687
0 0.999564 0.0908792 0.0005427
0 0.999563 0.090881 0.000938002
0 0.999548 0.0908915 0.000864964
0 0.99954 0.0908961 0.00199067
0 0.999539 0.173096 12.5083
0 0.999559 0.0908823 0.00130899
0 0.999556 0.0908855 0.00186275
0 0.999556 0.0908867 0.00201538
0 0.999561 0.0908814 0.00105455
0 0.999563 0.0908807 0.000884164
0 0.999564 0.0908795 0.000624019
0 0.999564 0.0908802 0.000752591
0 0.999564 0.0908796 0.000641144
0 0.999564 0.0908799 0.000691737
0 0.999552 0.0908874 0.00206011
0 0.999548 0.0908857 0.0018373
0 0.999547 0.172531 12.1332
0 0.999559 0.0908831 0.001367
0 0.999555 0.0908858 0.000861398
0 0.999561 0.0908817 0.00112694
0 0.999563 0.0908804 0.000840208
0 0.999554 0.0908863 0.000448427
0 0.999547 0.0908931 0.000374912
0 0.999543 0.0909215 0.00448481
0 0.999537 0.174069 11.9326
0 0.999559 0.0908823 0.00123569
0 0.999556 0.0908858 0.00177952
0 0.999561 0.0908813 0.000981604
0 0.999563 0.0908811 0.00092155
0 0.999563 0.0908808 0.000873788
0 0.999563 0.090881 0.000824326
0 0.999563 0.090881 0.00081967
0 0.999562 0.0908813 0.000801172
0 0.999555 0.0908865 0.00162881
0 0.999551 0.0908875 0.00192165
0 0.999548 0.0908856 0.00173847
0 0.999546 0.171789 12.0469
0 0.999558 0.0908825 0.00103599
0 0.999561 0.0908812 0.000977711
0 0.999555 0.0908857 0.00101247
0 0.999548 0.090892 0.000937034
0 0.999546 0.0909192 0.00596621
0 0.999548 0.173457 14.1599
0 0.999558 0.0908824 0.00106672
0 0.99956 0.0908815 0.000825666
0 0.999561 0.0908811 0.000796741
0 0.99956 0.0908812 0.000593383
0 0.99956 0.0908814 0.000599175
0 0.999555 0.0908858 0.00122331
0 0.99955 0.090888 0.00148384
0 0.999547 0.0908862 0.00206552
0 0.999546 0.172751 12.1848
0 0.999559 0.0908827 0.00107415
0 0.999555 0.0908864 0.00143504
0 0.99955 0.0908878 0.001289
0 0.999544 0.0908907 0.00199616
0 0.999545 0.17315 11.971
0 0.999558 0.0908827 0.000689647
0 0.999558 0.0908826 0.000751701
0 0.999557 0.0908825 0.000364621
0 0.999553 0.0908874 0.00120235
0 0.999549 0.090889 0.00114839
0 0.999544 0.0908934 0.00202053
0 0.999544 0.173319 12.281
0 0.999555 0.090886 0.00143026
0 0.999551 0.0908874 0.001609
0 0.999546 0.0908863 0.00161188
0 0.999544 0.172606 12.1573
0 0.999554 0.0908877 0.00166963
0 0.999554 0.090888 0.00158388
0 0.999554 0.0908883 0.00185913
0 0.999553 0.0908918 0.0027521
0 0.999552 0.0908961 0.00481879
0 0.999546 0.0908989 0.0041553
0 0.99954 0.172707 12.4777
0 0.999551 0.0908891 0.00225835
0 0.999547 0.0908869 0.00197114
0 0.999545 0.173065 12.2105
0 0.999554 0.0908958 0.00545892
0 0.999558 0.0909047 0.0090593
0 0.999559 0.0909048 0.00918576
0 0.99957 0.0909249 0.0157412
0 0.999559 0.17099 11.9695
0 0.999551 0.0908931 0.00432237
0 0.999548 0.173007 12.0906
0 0.999571 0.0909222 0.0139386
0 0.999587 0.0909391 0.0190988
0 0.999598 0.170901 10.0753
0 0.999564 0.173125 12.055
0 0.999598 0.171592 9.74115
VECTORS fa_u float
0.00037127 0.000154025 0
0.000344539 0.00019857 0
0.000384363 0.000103891 0
0.000399124 5.44063e-05 0
4.79655e-08 1.9794e-08 0
0.000311989 0.000238989 0
0.000277041 0.000276717 0
5.4519e-08 3.15875e-08 0
6.69523e-08 9.67067e-08 0
0.000242363 0.000316235 0
0.000202106 0.00034936 0
0.000352778 -8.90168e-08 0
0.000394415 -5.41092e-05 0
4.9633e-08 -2.35411e-08 0
6.10074e-08 -3.10976e-08 0
7.95393e-08 2.83746e-09 0
6.73382e-08 2.43602e-08 0
1.10736e-07 3.84372e-08 0
4.87177e-08 2.99599e-08 0
7.24155e-08 5.30099e-08 0
7.61422e-08 5.80438e-08 0
0.000157238 0.000379438 0
0.000104638 0.000388108 0
4.4036e-08 3.40907e-08 0
3.36947e-08 8.54353e-09 0
6.07057e-08 2.5961e-08 0
0.000378469 -0.000102024 0
6.31271e-08 8.69915e-09 0
0.000361424 -0.000149621 0
1.13039e-07 -1.99355e-08 0
1.24466e-07 -2.218e-09 0
8.13239e-08 -9.71305e-10 0
5.18236e-05 0.000393766 0
5.99469e-08 1.38304e-08 0
6.1157e-08 2.90842e-08 0
7.29807e-08 5.15551e-08 0
4.83924e-08 4.05008e-08 0
5.40211e-08 3.57618e-08 0
5.69052e-08 4.53976e-08 0
-3.90376e-08 5.36276e-08 0
2.03316e-08 8.18133e-08 0
2.83671e-08 3.27894e-08 0
8.80936e-09 4.03372e-08 0
-3.00038e-07 0.000393842 0
1.15905e-07 1.1377e-08 0
7.00672e-08 -1.82933e-08 0
8.98573e-08 -5.14549e-09 0
0.00033849 -0.00019525 0
6.71576e-08 -2.46336e-08 0
0.000309366 -0.000237323 0
8.72333e-08 -5.05452e-09 0
9.91908e-08 -6.00015e-10 0
4.22738e-08 1.97692e-09 0
9.87462e-09 6.62077e-08 0
-4.27324e-09 6.41405e-08 0
3.53128e-08 1.37368e-08 0
4.34429e-08 4.11625e-08 0
3.25128e-08 4.18508e-08 0
3.03992e-08 2.33112e-08 0
2.96573e-09 5.61083e-08 0
6.46738e-09 6.65838e-08 0
1.93655e-08 4.29141e-08 0
1.16653e-08 5.02468e-08 0
-5.16014e-05 0.000388273 0
7.5866e-08 -4.61352e-09 0
7.41036e-08 -2.48589e-08 0
6.69957e-08 -1.69149e-08 0
5.55625e-08 -3.33253e-08 0
6.39327e-08 -3.2529e-08 0
0.000275335 -0.000275387 0
4.73687e-08 -4.00635e-08 0
0.000236939 -0.000309015 0
2.77756e-08 5.68255e-09 0
4.6294e-08 -4.69901e-09 0
3.04122e-08 -8.40069e-10 0
-7.5117e-10 6.31055e-08 0
1.27968e-09 5.87022e-08 0
-3.74668e-09 5.80863e-08 0
2.34536e-08 1.28481e-08 0
2.2173e-08 8.44131e-09 0
2.0572e-08 2.75284e-08 0
1.89906e-08 1.90959e-08 0
4.9475e-09 5.12739e-08 0
-2.80864e-10 5.61164e-08 0
8.93161e-09 3.34481e-08 0
-0.000102906 0.00038341 0
3.85938e-08 -1.17802e-08 0
5.36974e-08 -2.43779e-08 0
5.54119e-08 -4.0707e-08 0
5.1785e-08 -3.20896e-08 0
3.98944e-08 -4.74333e-08 0
4.81427e-08 -4.69857e-08 0
0.000194125 -0.00033666 0
3.29931e-08 -5.82279e-08 0
2.27986e-08 3.27998e-09 0
3.04602e-08 -7.16253e-09 0
2.54183e-08 -2.50174e-09 0
2.69736e-08 -1.30035e-08 0
0.0001501 -0.000362354 0
-3.49302e-08 5.01338e-08 0
-4.63839e-09 5.4016e-08 0
-1.4084e-08 5.01033e-08 0
-1.03609e-08 5.37698e-08 0
1.54947e-08 6.54272e-09 0
1.70242e-08 1.3378e-08 0
1.20715e-08 2.40167e-08 0
1.38762e-08 1.90943e-08 0
4.98712e-10 3.88403e-08 0
5.1195e-09 2.72314e-08 0
-0.000149251 0.000360943 0
3.15757e-08 -1.9883e-08 0
4.32703e-08 -3.60259e-08 0
4.0118e-08 -5.45391e-08 0
3.9808e-08 -4.56151e-08 0
3.00856e-08 -6.43271e-08 0
3.25551e-08 -6.05485e-08 0
1.77409e-08 -7.06627e-08 0
1.43831e-08 3.45739e-09 0
1.14499e-08 8.59265e-09 0
1.70657e-08 -4.64283e-10 0
2.32139e-08 -7.42799e-09 0
2.16153e-08 -1.92088e-08 0
2.20886e-08 -1.41526e-08 0
1.19353e-08 -1.76165e-09 0
0.000100851 -0.000375809 0
-3.12019e-08 5.91252e-08 0
-2.53154e-08 4.81082e-08 0
-6.96002e-09 4.2055e-08 0
-1.70865e-08 5.01746e-08 0
9.92905e-09 1.32714e-08 0
7.17518e-09 2.14262e-08 0
-1.3343e-09 2.99899e-08 0
2.01363e-09 2.33146e-08 0
-3.37749e-08 4.64559e-08 0
-0.000194601 0.000337773 0
2.35615e-08 -2.77985e-08 0
2.99996e-08 -4.75932e-08 0
2.24578e-08 -6.7539e-08 0
2.33908e-08 -5.5798e-08 0
1.53064e-08 -7.03477e-08 0
1.51327e-08 -7.17509e-08 0
1.45497e-08 -2.53326e-08 0
5.39219e-09 1.14311e-08 0
7.16723e-09 4.59023e-09 0
1.43294e-08 -7.98761e-09 0
1.58618e-08 -1.79198e-08 0
9.97939e-09 -2.51391e-08 0
7.5322e-09 -7.29194e-09 0
2.83253e-09 -1.91713e-09 0
1.06908e-08 -6.04536e-08 0
5.07729e-05 -0.000386799 0
-8.12684e-09 3.05198e-08 0
-3.51824e-08 4.96409e-08 0
-2.64128e-08 5.03638e-08 0
-1.45588e-08 3.9905e-08 0
-4.22809e-08 4.72436e-08 0
2.67989e-09 1.71964e-08 0
-2.94992e-09 2.35453e-08 0
-1.0443e-10 1.3126e-08 0
-1.08871e-08 2.91975e-08 0
-2.35187e-08 3.92183e-08 0
-0.000237183 0.000309707 0
1.31083e-08 -3.52401e-08 0
1.39462e-08 -5.6949e-08 0
9.55132e-09 -7.07775e-08 0
9.05817e-09 -6.37693e-08 0
-3.56363e-10 -6.98455e-08 0
6.40774e-09 -3.10036e-08 0
-1.19439e-09 4.94256e-09 0
6.31264e-09 -1.45067e-08 0
3.13079e-09 -2.62883e-08 0
5.17214e-10 -9.29146e-09 0
-4.95561e-09 -2.45011e-09 0
-1.31069e-08 -6.20059e-08 0
-2.66237e-08 -0.00039082 0
-1.87171e-08 2.87936e-08 0
-3.59914e-08 4.5434e-08 0
-2.67561e-08 3.78609e-08 0
-3.61049e-08 4.20834e-08 0
-4.47503e-08 4.16977e-08 0
-3.8704e-09 1.57692e-08 0
-8.80652e-09 1.88592e-08 0
-7.14419e-09 1.0378e-08 0
-1.71904e-08 2.18408e-08 0
-2.70496e-08 2.72385e-08 0
-7.72234e-09 3.83204e-08 0
1.00864e-08 3.66694e-08 0
-0.000274286 0.000275002 0
3.77892e-09 -4.10062e-08 0
2.56176e-09 -6.02e-08 0
-1.18399e-08 -6.86928e-08 0
-5.21323e-09 -6.32744e-08 0
-8.76915e-10 -3.38586e-08 0
-4.77636e-09 -2.95694e-08 0
-9.73537e-09 4.51496e-09 0
-3.41e-09 -1.73515e-08 0
-6.32851e-09 -1.11455e-08 0
-1.40729e-08 -2.0376e-09 0
-1.21415e-08 -8.51618e-09 0
-1.71112e-08 -6.71889e-08 0
-1.05039e-08 -6.62825e-08 0
-5.04735e-05 -0.000385178 0
-3.33365e-08 3.04044e-08 0
-4.2868e-08 3.81477e-08 0
-2.58782e-08 3.81132e-08 0
-3.27317e-08 2.36299e-08 0
-1.3775e-08 1.04142e-08 0
-2.50613e-08 1.62106e-08 0
7.21324e-09 2.65611e-08 0
5.81397e-08 2.51413e-08 0
-0.000315277 0.000242932 0
-4.30946e-09 -4.14285e-08 0
-1.08732e-08 -5.82667e-08 0
-1.94202e-08 -6.1118e-08 0
-8.87925e-09 -3.23596e-08 0
-1.14239e-08 -2.57102e-08 0
-1.9203e-08 5.05129e-09 0
-2.3875e-08 -1.86041e-09 0
-1.30281e-08 -1.56996e-08 0
-1.98135e-08 -9.58691e-09 0
-2.08599e-08 -6.2145e-08 0
-1.50679e-08 -5.64875e-08 0
-9.97571e-05 -0.000372967 0
-3.47983e-08 2.60985e-08 0
-1.67108e-08 2.17264e-08 0
-3.2341e-08 1.54899e-08 0
-2.54348e-08 8.23704e-09 0
-1.37089e-08 3.95826e-09 0
-9.02457e-09 7.80222e-09 0
-1.27819e-07 -6.3461e-08 0
-0.00032963 0.000188444 0
-1.19568e-08 -3.74574e-08 0
-2.06679e-08 -5.27176e-08 0
-1.41602e-08 -2.78404e-08 0
-1.72952e-08 -2.36802e-08 0
-2.7627e-08 3.13116e-09 0
-2.59966e-08 -3.49128e-09 0
-1.99138e-08 -1.68434e-08 0
-2.33586e-08 -1.02117e-08 0
-1.81098e-08 -4.85616e-08 0
-1.80457e-08 -5.84233e-08 0
-1.70642e-08 -5.26203e-08 0
-0.000146617 -0.000354185 0
-3.00224e-08 1.36149e-08 0
-2.98316e-08 8.82899e-09 0
-3.21925e-08 1.24987e-09 0
-2.77396e-08 -1.09329e-08 0
-1.53004e-07 1.12386e-07 0
-0.000417157 0.000170263 0
-1.48983e-08 -3.04984e-08 0
-1.52849e-08 -2.13687e-08 0
-2.50731e-08 3.7519e-09 0
-1.86864e-08 -2.70662e-09 0
-1.44539e-08 -1.24333e-08 0