# vtk DataFile Version 2.0
CellBP Time: 1.52
ASCII
DATASET UNSTRUCTURED_GRID
POINTS 296 double
-9.1057 -3.74109 0
-8.52833 -4.90211 0
-9.5216 -2.51232 0
-9.77371 -1.24252 0
-8.33073 -2.80692 0
-7.80905 -5.98125 0
-6.95731 -6.95942 0
-7.89058 -3.85978 0
-7.31715 -4.85138 0
-5.98162 -7.81123 0
-4.9059 -8.53129 0
-9.86158 0.0484886 0
-9.77976 1.34254 0
-8.63298 -1.67691 0
-8.76366 -0.527566 0
-7.56385 -1.99475 0
-7.19914 -2.89349 0
-6.61703 -5.76275 0
-5.80675 -6.58101 0
-6.7647 -3.87324 0
-6.1984 -4.66007 0
-3.74496 -9.10892 0
-2.51707 -9.52882 0
-4.8956 -7.29339 0
-3.90697 -7.8716 0
-8.77196 0.640698 0
-9.52961 2.61642 0
-8.60465 1.76842 0
-9.10864 3.84328 0
-7.72035 -0.924121 0
-7.77228 0.0809569 0
-6.92956 -1.30946 0
-1.24293 -9.77881 0
-6.4204 -2.14431 0
-6.29786 -3.04404 0
-5.5188 -5.459 0
-4.78235 -6.10027 0
-5.63996 -3.74404 0
-5.25105 -4.5469 0
-2.86147 -8.34795 0
-1.77462 -8.62278 0
-3.91909 -6.70886 0
-3.05172 -7.13846 0
0.0508621 -9.86058 0
-7.68499 1.14001 0
-8.32292 2.90945 0
-7.53298 2.105 0
-8.536 5.00612 0
-7.86155 3.96824 0
-7.81333 6.08364 0
-6.75789 -0.394283 0
-6.93589 0.551737 0
-5.75571 -1.00012 0
-0.589383 -8.78991 0
0.562917 -8.74818 0
-5.2883 -2.47207 0
-4.47698 -5.08097 0
-3.89109 -5.7607 0
-4.42655 -3.79413 0
-2.05831 -7.54636 0
-1.13329 -7.76837 0
-2.98709 -6.08797 0
-2.3048 -6.60582 0
1.34271 -9.77749 0
-6.67146 1.41745 0
-7.15297 3.10871 0
-6.64167 2.36581 0
-7.27527 4.97464 0
-6.69984 3.99079 0
-6.95758 7.05682 0
-6.55454 5.87693 0
-5.97856 7.90593 0
-4.44485 -1.17923 0
-5.80058 0.511253 0
-4.64785 -0.0122772 0
0.00653333 -7.82768 0
1.73121 -8.61835 0
0.943394 -7.74074 0
-4.03084 -2.40092 0
-3.48263 -1.3901 0
-3.28671 -4.79395 0
-3.26095 -3.26119 0
-1.37692 -6.6596 0
-0.509886 -7.00658 0
-1.97198 -5.52555 0
2.61275 -9.51789 0
-5.49411 2.03195 0
-6.07845 3.06267 0
-6.08822 4.85436 0
-5.74574 3.97824 0
-5.74522 6.69654 0
-5.43664 5.60127 0
-4.9049 8.63179 0
-4.82418 7.38121 0
-3.49757 -0.424076 0
-4.44048 1.24636 0
-3.70582 0.591091 0
-4.05363 2.31679 0
-3.74645 9.21256 0
2.8509 -8.305 0
0.414799 -6.77498 0
2.01221 -7.5008 0
1.29807 -6.88283 0
-2.44316 -0.872625 0
-2.83596 -2.12837 0
-2.29136 -4.08959 0
-2.32314 -2.96883 0
-0.443474 -5.84611 0
-1.22022 -4.4909 0
3.8412 -9.1036 0
-4.77777 3.38279 0
-5.07373 4.57918 0
-4.63339 6.2606 0
-4.5258 5.34207 0
-3.83393 7.97181 0
-3.81464 6.8224 0
-2.77507 8.39891 0
-1.64843 -0.136827 0
-1.44941 -0.889569 0
-2.48778 0.508212 0
-3.24873 1.44312 0
-3.23239 3.31022 0
-2.90635 2.37022 0
-1.35508 0.628138 0
-2.51637 9.62277 0
3.91816 -7.86064 0
2.95082 -7.13079 0
0.948375 -5.80436 0
2.06399 -6.39288 0
-1.68143 -1.99035 0
-1.43241 -3.27271 0
0.0890576 -4.73608 0
-0.564546 -3.68874 0
4.91544 -7.29367 0
5.00683 -8.53731 0
-3.76731 4.53887 0
-3.72408 5.73395 0
-2.87839 7.26664 0
-3.00074 6.33391 0
-1.65769 8.71115 0
-1.93346 7.59767 0
-2.33415 4.04334 0
-0.730187 -1.32638 0
-0.836802 -0.256705 0
-1.93563 1.68153 0
-2.12337 2.87317 0
-1.30576 3.54017 0
-0.870151 1.35178 0
-0.283024 0.456835 0
-0.531632 8.85135 0
-1.24344 9.87234 0
1.10845 -4.56246 0
3.89341 -6.68988 0
2.97506 -6.07186 0
2.10889 -5.40687 0
4.76771 -6.18149 0
-0.557861 -2.47443 0
0.494551 -3.45811 0
0.0536807 -1.60977 0
1.47769 -3.67342 0
5.84986 -6.59245 0
6.07914 -7.80764 0
-2.46951 5.33411 0
-2.1234 6.51521 0
-0.900441 7.78359 0
-1.26702 6.91264 0
0.0870886 7.86265 0
-1.14271 4.48615 0
0.149877 -0.616937 0
-0.798605 2.48861 0
-0.333141 3.59741 0
0.0617577 1.51317 0
0.74013 0.473662 0
0.645372 8.85656 0
0.049266 9.96794 0
2.37297 -4.27203 0
3.84483 -5.61869 0
2.99004 -5.19411 0
5.5578 -5.47279 0
4.67544 -5.26231 0
0.629748 -2.29218 0
1.25384 -2.94639 0
0.757013 -1.39092 0
2.15916 -3.12882 0
2.98589 -3.46695 0
6.13999 -4.77691 0
6.63927 -5.75243 0
7.05572 -6.95407 0
-1.01631 5.80608 0
-0.369735 6.86619 0
1.12078 7.7543 0
0.558164 7.06414 0
-0.00145513 4.71733 0
0.604893 3.82318 0
1.33775 -0.641806 0
0.537165 2.64949 0
0.96416 1.57489 0
1.90831 0.213523 0
1.61267 1.06471 0
2.12624 7.56967 0
1.79632 8.69636 0
1.34316 9.87592 0
3.81123 -4.33662 0
5.10187 -4.4324 0
5.83158 -3.92243 0
3.77481 -3.19207 0
1.81024 -1.88179 0
3.01307 -2.56898 0
6.76922 -3.93785 0
7.36623 -4.88515 0
7.90901 -5.97926 0
0.48318 5.86938 0
1.42627 6.72862 0
2.37087 6.65689 0
1.2075 4.54927 0
1.48568 3.39334 0
2.43284 -0.691635 0
2.82456 0.142635 0
1.78637 2.16142 0
2.60924 1.14933 0
3.06754 7.15725 0
2.90043 8.36218 0
2.61763 9.62937 0
4.8993 -3.31714 0
6.10753 -3.09973 0
4.16472 -2.27074 0
3.23931 -1.50133 0
6.71911 -2.30863 0
7.21909 -3.03706 0
7.95102 -3.90583 0
8.63549 -4.90745 0
2.02071 5.58978 0
3.07922 6.14115 0
2.36098 4.12011 0
2.4172 3.05665 0
3.52039 -0.459848 0
3.61071 0.613582 0
2.95784 2.28511 0
3.53976 1.52344 0
4.00114 5.88514 0
3.97604 6.78005 0
3.96799 7.9253 0
3.84545 9.20877 0
5.5584 -1.9121 0
4.50154 -1.12739 0
6.70096 -1.33324 0
7.57906 -2.03237 0
8.38289 -2.85683 0
9.21619 -3.74814 0
3.41001 4.86643 0
3.33188 3.37878 0
4.68299 0.13075 0
4.50927 1.3072 0
4.05544 2.43833 0
4.55584 5.13952 0
4.831 6.17743 0
4.97053 7.36659 0
5.01009 8.63834 0
5.87105 -0.434557 0
6.99575 -0.488068 0
7.74524 -1.08224 0
8.66966 -1.74202 0
9.62511 -2.51587 0
4.53876 3.81772 0
5.80259 1.0943 0
5.3552 2.52703 0
5.36167 4.60745 0
5.59536 5.50996 0
5.88259 6.65776 0
6.0851 7.91625 0
6.82899 0.460251 0
7.83658 -0.0261467 0
8.84393 -0.581892 0
9.87745 -1.24249 0
6.94114 1.3433 0
5.70201 3.76683 0
6.52132 2.18881 0
6.35904 3.077 0
6.27138 4.67316 0
6.67372 5.82341 0
7.05531 7.05724 0
7.76532 0.963675 0
8.84026 0.571392 0
9.96202 0.0516765 0
7.59474 1.99673 0
6.80462 3.89028 0
7.24602 2.93574 0
7.3567 4.87227 0
7.9132 6.08406 0
8.70099 1.7213 0
9.88011 1.34404 0
8.39628 2.82835 0
7.95914 3.90473 0
8.62996 5.00339 0
9.6194 2.61411 0
9.2062 3.84275 0
CELLS 542 2168
3 2 0 4
3 0 1 7
3 4 0 7
3 1 5 8
3 7 1 8
3 3 2 13
3 13 2 4
3 11 3 14
3 14 3 13
3 13 4 15
3 4 7 16
3 15 4 16
3 5 6 17
3 8 5 17
3 6 9 18
3 17 6 18
3 7 8 19
3 16 7 19
3 8 17 20
3 19 8 20
3 9 10 23
3 18 9 23
3 10 21 24
3 23 10 24
3 12 11 25
3 25 11 14
3 26 12 27
3 27 12 25
3 14 13 29
3 29 13 15
3 25 14 30
3 30 14 29
3 29 15 31
3 15 16 33
3 31 15 33
3 16 19 34
3 33 16 34
3 17 18 35
3 20 17 35
3 18 23 36
3 35 18 36
3 19 20 37
3 34 19 37
3 20 35 38
3 37 20 38
3 21 22 39
3 24 21 39
3 22 32 40
3 39 22 40
3 23 24 41
3 36 23 41
3 24 39 42
3 41 24 42
3 27 25 44
3 44 25 30
3 28 26 45
3 45 26 27
3 45 27 46
3 46 27 44
3 47 28 48
3 48 28 45
3 30 29 50
3 50 29 31
3 44 30 51
3 51 30 50
3 50 31 52
3 31 33 52
3 32 43 53
3 40 32 53
3 53 43 54
3 33 34 55
3 34 37 55
3 33 55 52
3 35 36 56
3 38 35 56
3 36 41 57
3 56 36 57
3 37 38 58
3 38 56 58
3 37 58 55
3 39 40 59
3 42 39 59
3 40 53 60
3 59 40 60
3 41 42 61
3 57 41 61
3 42 59 62
3 61 42 62
3 43 63 54
3 46 44 64
3 64 44 51
3 48 45 65
3 65 45 46
3 65 46 66
3 66 46 64
3 49 47 67
3 67 47 48
3 67 48 68
3 68 48 65
3 69 49 70
3 70 49 67
3 52 55 72
3 64 51 73
3 51 50 73
3 50 52 73
3 73 52 74
3 74 52 72
3 53 54 75
3 60 53 75
3 54 63 76
3 54 76 77
3 75 54 77
3 55 58 78
3 72 55 78
3 72 78 79
3 56 57 80
3 57 61 80
3 56 80 58
3 58 80 81
3 78 58 81
3 59 60 82
3 62 59 82
3 60 75 83
3 82 60 83
3 61 62 84
3 62 82 84
3 61 84 80
3 63 85 76
3 66 64 86
3 64 73 86
3 68 65 87
3 87 65 66
3 87 66 86
3 70 67 88
3 88 67 68
3 88 68 89
3 89 68 87
3 71 69 90
3 90 69 70
3 90 70 91
3 91 70 88
3 92 71 93
3 93 71 90
3 74 72 94
3 94 72 79
3 86 73 95
3 95 73 74
3 95 74 96
3 96 74 94
3 97 86 95
3 76 85 99
3 75 77 100
3 83 75 100
3 76 99 101
3 77 76 101
3 77 101 102
3 100 77 102
3 94 79 103
3 78 81 104
3 79 78 104
3 79 104 103
3 80 84 105
3 81 80 105
3 81 105 106
3 104 81 106
3 82 83 107
3 83 100 107
3 82 107 84
3 84 107 108
3 105 84 108
3 85 109 99
3 89 87 110
3 87 86 110
3 110 86 97
3 91 88 111
3 111 88 89
3 111 89 110
3 93 90 112
3 112 90 91
3 112 91 113
3 113 91 111
3 98 92 114
3 114 92 93
3 114 93 115
3 115 93 112
3 116 98 114
3 117 103 118
3 96 94 119
3 94 103 119
3 119 103 117
3 97 95 120
3 120 95 96
3 120 96 119
3 121 110 97
3 121 97 122
3 122 97 120
3 123 119 117
3 124 98 116
3 99 109 125
3 99 125 126
3 101 99 126
3 100 102 127
3 100 127 107
3 101 126 128
3 102 101 128
3 102 128 127
3 104 106 129
3 104 129 103
3 103 129 118
3 105 108 130
3 106 105 130
3 106 130 129
3 107 127 131
3 108 107 131
3 108 131 132
3 108 132 130
3 109 134 125
3 125 134 133
3 113 111 135
3 111 110 135
3 135 110 121
3 115 112 136
3 136 112 113
3 136 113 135
3 116 114 137
3 137 114 115
3 137 115 138
3 138 115 136
3 139 124 116
3 139 116 140
3 140 116 137
3 141 135 121
3 118 129 142
3 118 142 143
3 117 118 143
3 123 117 143
3 122 120 144
3 120 119 144
3 144 119 123
3 141 121 145
3 145 121 122
3 145 122 144
3 146 141 145
3 147 144 123
3 147 123 148
3 143 148 123
3 150 124 139
3 149 150 139
3 131 127 151
3 125 133 152
3 126 125 152
3 126 152 153
3 128 126 153
3 128 153 154
3 128 154 127
3 127 154 151
3 152 133 155
3 130 132 156
3 130 156 129
3 129 156 142
3 131 151 157
3 132 131 157
3 132 157 156
3 156 158 142
3 157 151 159
3 133 160 155
3 134 161 133
3 133 161 160
3 138 136 162
3 136 135 162
3 162 135 141
3 140 137 163
3 163 137 138
3 163 138 162
3 149 139 164
3 164 139 140
3 164 140 165
3 165 140 163
3 166 149 164
3 167 162 141
3 167 141 146
3 142 158 168
3 143 142 168
3 143 168 148
3 146 145 169
3 145 144 169
3 169 144 147
3 170 167 146
3 170 146 169
3 171 169 147
3 171 147 148
3 171 148 172
3 168 172 148
3 173 149 166
3 174 150 149
3 173 174 149
3 154 175 151
3 151 175 159
3 152 155 176
3 153 152 176
3 153 176 177
3 153 177 154
3 154 177 175
3 155 160 178
3 155 178 179
3 176 155 179
3 156 157 180
3 156 180 158
3 157 159 181
3 157 181 180
3 158 180 182
3 158 182 168
3 159 175 183
3 159 183 181
3 175 184 183
3 160 186 178
3 178 186 185
3 161 187 160
3 160 187 186
3 165 163 188
3 163 162 188
3 188 162 167
3 166 164 189
3 189 164 165
3 189 165 188
3 190 173 166
3 190 166 191
3 191 166 189
3 192 188 167
3 192 167 170
3 193 192 170
3 182 194 168
3 194 172 168
3 193 170 195
3 170 169 195
3 195 169 171
3 196 195 171
3 196 171 172
3 194 197 172
3 197 198 172
3 198 196 172
3 200 173 190
3 199 200 190
3 201 174 173
3 200 201 173
3 176 179 202
3 177 176 202
3 177 202 175
3 175 202 184
3 178 185 203
3 178 203 179
3 179 203 202
3 203 185 204
3 202 205 184
3 183 206 181
3 180 181 206
3 180 206 182
3 182 206 194
3 183 184 207
3 205 207 184
3 183 207 206
3 185 208 204
3 186 209 185
3 185 209 208
3 187 210 186
3 186 210 209
3 191 189 211
3 189 188 211
3 211 188 192
3 199 190 212
3 212 190 191
3 212 191 211
3 213 199 212
3 214 211 192
3 214 192 193
3 215 214 193
3 215 193 195
3 206 216 194
3 216 197 194
3 216 217 197
3 215 195 218
3 218 195 196
3 198 218 196
3 217 219 197
3 219 218 198
3 197 219 198
3 220 199 213
3 221 200 199
3 220 221 199
3 222 201 200
3 221 222 200
3 203 204 223
3 203 223 202
3 202 223 205
3 204 208 224
3 204 224 223
3 205 223 225
3 205 225 207
3 207 225 226
3 207 226 206
3 226 216 206
3 208 228 224
3 224 228 227
3 209 229 208
3 229 228 208
3 210 230 209
3 209 230 229
3 213 212 231
3 212 211 231
3 231 211 214
3 232 220 213
3 232 213 231
3 233 231 214
3 233 214 215
3 234 233 215
3 234 215 218
3 226 235 216
3 235 217 216
3 235 236 217
3 217 236 219
3 237 234 218
3 237 218 219
3 236 238 219
3 238 237 219
3 240 220 232
3 239 240 232
3 241 221 220
3 240 241 220
3 242 222 221
3 241 242 221
3 224 227 243
3 224 243 223
3 223 243 225
3 225 243 244
3 225 244 226
3 226 244 235
3 227 245 243
3 228 246 227
3 227 246 245
3 229 247 228
3 228 247 246
3 230 248 229
3 229 248 247
3 239 232 249
3 232 231 249
3 249 231 233
3 250 249 233
3 250 233 234
3 237 250 234
3 244 251 235
3 235 251 236
3 251 252 236
3 236 252 238
3 252 253 238
3 253 250 237
3 253 237 238
3 254 239 249
3 255 240 239
3 254 255 239
3 256 241 240
3 255 256 240
3 257 242 241
3 256 257 241
3 245 258 243
3 243 258 244
3 244 258 251
3 245 259 258
3 246 260 245
3 245 260 259
3 247 261 246
3 246 261 260
3 248 262 247
3 247 262 261
3 254 249 263
3 263 249 250
3 253 263 250
3 258 264 251
3 251 264 252
3 264 265 252
3 265 263 253
3 252 265 253
3 266 254 263
3 267 255 254
3 266 267 254
3 268 256 255
3 267 268 255
3 269 257 256
3 268 269 256
3 259 270 258
3 270 264 258
3 260 271 259
3 259 271 270
3 261 272 260
3 260 272 271
3 262 273 261
3 273 272 261
3 270 274 264
3 275 266 263
3 275 263 265
3 274 276 264
3 276 265 264
3 276 277 265
3 277 275 265
3 278 267 266
3 275 278 266
3 279 268 267
3 278 279 267
3 280 269 268
3 279 280 268
3 271 281 270
3 270 281 274
3 272 282 271
3 271 282 281
3 273 283 272
3 272 283 282
3 281 284 274
3 274 284 276
3 285 278 275
3 277 285 275
3 284 286 276
3 286 285 277
3 276 286 277
3 287 279 278
3 285 287 278
3 288 280 279
3 287 288 279
3 282 289 281
3 281 289 284
3 283 290 282
3 282 290 289
3 289 291 284
3 284 291 286
3 291 292 286
3 292 287 285
3 286 292 285
3 293 288 287
3 292 293 287
3 290 294 289
3 289 294 291
3 294 295 291
3 295 293 292
3 291 295 292
CELL_TYPES 542
5
5
5
5
5
5
5
5
5
5
5
5
5
5
5
5
5
5
5
5
5
5
5
5
5
5
5
5
5
5
5
5
5
5
5
5
5
5
5
5
5
5
5
5
5
5
5
5
5
5
5
5
5
5
5
5
5
5
5
5
5
5
5
5
5
5
5
5
5
5
5
5
5
5
5
5
5
5
5
5
5
5
5
5
5
5
5
5
5
5
5
5
5
5
5
5
5
5
5
5
5
5
5
5
5
5
5
5
5
5
5
5
5
5
5
5
5
5
5
5
5
5
5
5
5
5
5
5
5
5
5
5
5
5
5
5
5
5
5
5
5
5
5
5
5
5
5
5
5
5
5
5
5
5
5
5
5
5
5
5
5
5
5
5
5
5
5
5
5
5
5
5
5
5
5
5
5
5
5
5
5
5
5
5
5
5
5
5
5
5
5
5
5
5
5
5
5
5
5
5
5
5
5
5
5
5
5
5
5
5
5
5
5
5
5
5
5
5
5
5
5
5
5
5
5
5
5
5
5
5
5
5
5
5
5
5
5
5
5
5
5
5
5
5
5
5
5
5
5
5
5
5
5
5
5
5
5
5
5
5
5
5
5
5
5
5
5
5
5
5
5
5
5
5
5
5
5
5
5
5
5
5
5
5
5
5
5
5
5
5
5
5
5
5
5
5
5
5
5
5
5
5
5
5
5
5
5
5
5
5
5
5
5
5
5
5
5
5
5
5
5
5
5
5
5
5
5
5
5
5
5
5
5
5
5
5
5
5
5
5
5
5
5
5
5
5
5
5
5
5
5
5
5
5
5
5
5
5
5
5
5
5
5
5
5
5
5
5
5
5
5
5
5
5
5
5
5
5
5
5
5
5
5
5
5
5
5
5
5
5
5
5
5
5
5
5
5
5
5
5
5
5
5
5
5
5
5
5
5
5
5
5
5
5
5
5
5
5
5
5
5
5
5
5
5
5
5
5
5
5
5
5
5
5
5
5
5
5
5
5
5
5
5
5
5
5
5
5
5
5
5
5
5
5
5
5
5
5
5
5
5
5
5
5
5
5
5
5
5
5
5
5
5
5
5
5
5
5
5
5
5
5
5
5
5
5
5
5
5
5
5
5
5
5
5
5
5
5
5
5
5
5
5
5
5
5
5
5
5
5
5
5
5
5
5
5
5
5
5
5
5
5
5
5
5
5
5
5
5
5
5
5
5
5
5
5
5
5
5
5
5
5
POINT_DATA 296
SCALARS concentrations float 4
LOOKUP_TABLE default
0 0.981662 0.157331 377.971
0 0.981921 0.159479 265.636
0 0.981715 0.157747 321.707
0 0.981692 0.153626 353.712
0 0.981806 0.0915491 5.07416
0 0.982233 0.157677 417.768
0 0.982341 0.158112 229.165
0 0.981876 0.0915347 1.6045
0 0.982136 0.0916375 0.762701
0 0.982351 0.15902 313.899
0 0.982354 0.158194 379.839
0 0.982031 0.15789 265.775
0 0.982136 0.156533 371.699
0 0.981795 0.0917722 7.0209
0 0.981917 0.0916742 2.87358
0 0.98201 0.0913037 2.33361
0 0.982052 0.0911882 1.29554
0 0.982304 0.0916187 0.861871
0 0.982323 0.091591 2.64897
0 0.982151 0.0912017 0.178596
0 0.982266 0.0912316 0.357993
0 0.981939 0.157435 341.623
0 0.981908 0.160429 305.963
0 0.982348 0.0914962 4.50066
0 0.982171 0.0916447 4.42584
0 0.98211 0.0914134 4.26514
0 0.982257 0.15701 369.2
0 0.982192 0.0914898 4.82191
0 0.982249 0.158662 327.869
0 0.982023 0.0913431 1.96287
0 0.982094 0.0912717 0.0448191
0 0.982173 0.0912343 1.56754
0 0.982177 0.156752 258.71
0 0.982215 0.0911466 1.03347
0 0.982235 0.0911154 0.292431
0 0.982318 0.0912798 1.17724
0 0.982318 0.0912161 1.6118
0 0.982306 0.0911036 0.555787
0 0.982336 0.0911627 0.797762
0 0.981965 0.0914645 1.82224
0 0.982089 0.0914882 1.23135
0 0.982268 0.0912111 1.97983
0 0.982178 0.0912262 0.867891
0 0.982389 0.157124 392.803
0 0.982169 0.0912085 1.59831
0 0.982262 0.0915389 3.4438
0 0.982232 0.0911812 2.55061
0 0.982401 0.155254 255.043
0 0.982293 0.09162 2.26436
0 0.98271 0.158496 315.425
0 0.982204 0.0912147 1.2216
0 0.98221 0.0911832 0.48953
0 0.982315 0.0911275 1.19576
0 0.982305 0.0914768 5.02268
0 0.982296 0.0916205 4.5212
0 0.98235 0.09111 1.03929
0 0.982358 0.0911626 0.983656
0 0.982336 0.0911657 1.0487
0 0.982392 0.0910882 0.956746
0 0.982175 0.0912156 0.833033
0 0.982258 0.0912181 1.9041
0 0.982327 0.0911535 0.899955
0 0.982291 0.0911615 0.637641
0 0.982201 0.154771 309.013
0 0.982266 0.0911053 0.487781
0 0.982292 0.0912275 1.136
0 0.98229 0.0910993 1.08029
0 0.98253 0.0917012 4.77239
0 0.982374 0.0912445 0.952529
0 0.982454 0.155996 262.765
0 0.982546 0.0913797 0.818414
0 0.982466 0.156507 341.083
0 0.982415 0.0910902 1.10232
0 0.98232 0.091101 0.876572
0 0.982405 0.0910881 1.03026
0 0.982305 0.09123 2.64459
0 0.982154 0.0915439 3.10102
0 0.982264 0.0912489 2.4461
0 0.982443 0.0910903 1.07849
0 0.98251 0.0910923 1.07887
0 0.982406 0.0910984 1.09709
0 0.982465 0.0910812 1.11921
0 0.982333 0.0911458 1.16834
0 0.982343 0.0911595 1.69383
0 0.98241 0.0910938 1.26421
0 0.982013 0.158172 312.926
0 0.982349 0.0910604 0.0803603
0 0.98234 0.0911219 0.546888
0 0.982435 0.0912759 1.33062
0 0.982372 0.0911858 0.524997
0 0.982393 0.091445 5.03337
0 0.982407 0.0912213 1.9165
0 0.982637 0.156626 387.961
0 0.982505 0.091407 5.38463
0 0.98251 0.0910777 1.05478
0 0.982407 0.0910726 0.615385
0 0.982491 0.0910749 0.918357
0 0.98242 0.0910609 0.364887
0 0.982421 0.155719 273.693
0 0.981904 0.091339 3.43743
0 0.982357 0.0911647 1.63988
0 0.982167 0.0911869 1.32446
0 0.98231 0.0911693 1.38651
0 0.982585 0.0910633 1.15921
0 0.98254 0.0910793 1.15965
0 0.982481 0.0910813 1.31687
0 0.982545 0.09108 1.26077
0 0.982422 0.0910955 1.23984
0 0.982491 0.0910733 1.40902
0 0.981618 0.153005 367.935
0 0.982381 0.0910773 0.456864
0 0.982381 0.0911651 0.534664
0 0.982385 0.0911946 2.76374
0 0.98237 0.091153 1.2587
0 0.982504 0.0914781 5.48228
0 0.982394 0.0911701 2.40847
0 0.98225 0.091538 5.14982
0 0.982634 0.09105 1.1491
0 0.982649 0.091049 1.26932
0 0.982571 0.0910604 1.08877
0 0.982505 0.0910629 0.760941
0 0.982429 0.0910695 1.03963
0 0.982494 0.0910645 0.653169
0 0.982642 0.0910399 1.13807
0 0.982125 0.154181 313.28
0 0.981806 0.0915118 3.49248
0 0.982084 0.0911529 0.0600694
0 0.982412 0.0911016 1.08012
0 0.982284 0.0911377 0.794278
0 0.982611 0.0910616 1.26029
0 0.982568 0.0910687 1.36124
0 0.982498 0.0910689 1.16787
0 0.982565 0.0910634 1.41082
0 0.981965 0.0914705 2.10431
0 0.981816 0.157142 270.745
0 0.98239 0.0910835 1.04403
0 0.982367 0.0911028 0.81994
0 0.982345 0.0912026 1.63493
0 0.982357 0.0911272 0.577055
0 0.982243 0.0915216 2.49295
0 0.982302 0.0911739 0.627593
0 0.98244 0.0910947 1.7119
0 0.982674 0.0910406 1.35645
0 0.982686 0.0910243 1.29833
0 0.982575 0.0910513 1.00984
0 0.982517 0.0910714 1.03882
0 0.982514 0.0910807 1.19918
0 0.982643 0.0910324 1.14202
0 0.982691 0.0910092 1.27233
0 0.982329 0.0914833 3.83529
0 0.982346 0.158082 300.926
0 0.982487 0.0910617 0.887488
0 0.98207 0.0911371 1.1424
0 0.98224 0.0911238 0.416091
0 0.982398 0.0910862 0.612534
0 0.982093 0.0912171 1.11121
0 0.982628 0.0910534 1.35425
0 0.98258 0.0910573 1.23658
0 0.982683 0.0910382 1.39418
0 0.982544 0.091067 0.906335
0 0.982017 0.0915184 2.20992
0 0.981951 0.156053 342.717
0 0.982395 0.0911047 1.71462
0 0.982357 0.0911312 0.381905
0 0.982312 0.0912286 0.916507
0 0.98235 0.091169 0.684299
0 0.98226 0.0912841 1.7444
0 0.982451 0.0910791 1.28615
0 0.982706 0.0910023 1.34934
0 0.98259 0.0910494 1.12595
0 0.98254 0.0910679 1.23105
0 0.982662 0.0910247 1.23906
0 0.982702 0.0910014 1.32895
0 0.982071 0.0914991 3.73092
0 0.982218 0.156073 240.307
0 0.982461 0.0910516 0.574697
0 0.982234 0.0911005 0.496829
0 0.982358 0.0910757 0.505703
0 0.982114 0.0913518 1.25855
0 0.982225 0.091151 0.468252
0 0.982649 0.091046 1.34448
0 0.982614 0.0910446 1.07518
0 0.98269 0.0910175 1.35309
0 0.982569 0.0910492 0.850079
0 0.982485 0.0910587 0.587441
0 0.982161 0.091442 1.74358
0 0.982077 0.0918365 2.50177
0 0.982031 0.156079 310.445
0 0.982403 0.0911029 1.33676
0 0.982354 0.0911723 0.664249
0 0.982149 0.0912995 1.59193
0 0.982311 0.0911945 0.515628
0 0.982462 0.0910743 1.0394
0 0.982538 0.0910668 1.22514
0 0.982697 0.0910019 1.32153
0 0.982607 0.0910423 1.21877
0 0.982665 0.0910345 1.27735
0 0.982686 0.0910224 1.36186
0 0.982674 0.0910359 1.35669
0 0.982105 0.0912985 1.02168
0 0.981892 0.0915918 2.57753
0 0.981822 0.155797 351.18
0 0.982366 0.091055 0.432436
0 0.982265 0.0911975 0.627313
0 0.982274 0.0912808 0.854707
0 0.982462 0.091054 0.603467
0 0.982642 0.091026 1.14352
0 0.982567 0.091048 0.852151
0 0.98222 0.0914608 1.68252
0 0.982181 0.0919834 3.72928
0 0.982117 0.152929 406.739
0 0.982395 0.0910892 0.97184
0 0.982291 0.0911415 0.367777
0 0.98225 0.0911542 0.563824
0 0.982458 0.0910603 1.12368
0 0.982548 0.0910579 1.19246
0 0.982658 0.0910302 1.27211
0 0.982644 0.0910625 1.37757
0 0.982612 0.0910561 1.29234
0 0.982625 0.0910745 1.40339
0 0.982135 0.0912556 1.34907
0 0.981975 0.0916757 2.53732
0 0.981822 0.155702 328.594
0 0.982393 0.0910845 0.478268
0 0.982341 0.0911884 0.797592
0 0.982505 0.0910566 0.684218
0 0.982598 0.0910478 1.01422
0 0.98236 0.0911665 0.78701
0 0.982257 0.0913602 1.25524
0 0.982236 0.0916826 3.90163
0 0.982258 0.159516 365.819
0 0.982371 0.0910546 1.06526
0 0.982262 0.091127 0.965897
0 0.982442 0.0910534 1.14091
0 0.982528 0.091073 1.21658
0 0.982595 0.0910649 1.22026
0 0.982575 0.091095 1.36444
0 0.982542 0.0910882 1.25723
0 0.982539 0.0911067 1.29674
0 0.982214 0.0911455 1.18174
0 0.98215 0.0912394 2.27874
0 0.982135 0.0916418 5.01297
0 0.982023 0.154705 361.852
0 0.982444 0.0910611 0.686219
0 0.982528 0.0910615 0.950384
0 0.982394 0.0911395 0.69409
0 0.982261 0.0912673 0.604305
0 0.982151 0.0916735 3.29772
0 0.982184 0.156002 294.309
0 0.982334 0.0910585 0.816676
0 0.982422 0.0910622 0.949753
0 0.982516 0.0910834 1.22702
0 0.982468 0.0910949 1.25808
0 0.982429 0.0911011 1.06752
0 0.98219 0.0911187 0.913826
0 0.982088 0.0912356 2.51078
0 0.982137 0.091533 5.72951
0 0.98221 0.154724 243.491
0 0.982462 0.0910992 1.16926
0 0.982388 0.0912153 0.955075
0 0.982284 0.0912735 0.231618
0 0.982104 0.091704 3.02999
0 0.982037 0.1543 205.991
0 0.982307 0.0910666 0.643818
0 0.982417 0.0911398 1.39152
0 0.98234 0.0911207 1.07555
0 0.982127 0.0911168 0.749644
0 0.982008 0.0912353 2.49063
0 0.981973 0.0914552 4.02692
0 0.982056 0.158297 367.178
0 0.982389 0.0912418 1.53383
0 0.982306 0.0913095 0.804945
0 0.982198 0.0914879 1.9717
0 0.98206 0.155721 369.021
0 0.982328 0.0912758 1.86753
0 0.982163 0.0911024 0.592939
0 0.982276 0.0912067 1.64265
0 0.982171 0.0911562 1.12952
0 0.981971 0.0911735 2.15204
0 0.981903 0.0914413 5.61188
0 0.981898 0.156509 332.509
0 0.982286 0.0913593 1.79308
0 0.98224 0.0915527 2.67916
0 0.982215 0.15775 315.148
0 0.982203 0.0913396 2.03719
0 0.981988 0.091149 1.11985
0 0.982074 0.0912463 1.93248
0 0.981878 0.0913912 5.9397
0 0.981877 0.154153 417.916
0 0.982218 0.0915686 2.98068
0 0.982203 0.154221 219.837
0 0.982076 0.0915662 6.12625
0 0.981883 0.0912631 1.4167
0 0.981819 0.155067 362.898
0 0.982185 0.157556 366.01
0 0.981907 0.155694 313.759
VECTORS fa_u float
0.0064745 0.00269101 -0
0.00531585 0.00307691 -0
0.00631289 0.0016878 -0
0.00625638 0.000830617 -0
1e-08 0 0
0.00504258 0.00385064 -0
0.00507887 0.00507179 -0
1e-08 0 0
1e-08 0 0
0.00382518 0.00499217 -0
0.0031715 0.00546631 -0
0.00661111 1.54668e-05 -0
0.00651111 -0.000841729 0
1e-08 0 0
1e-08 0 0
1e-08 0 0
1e-08 0 0
1e-08 0 0
1e-08 0 0
1e-08 0 0
1e-08 0 0
0.00258578 0.00619231 -0
0.00182905 0.00683149 -0
1e-08 0 0
1e-08 0 0
1e-08 0 0
0.00692131 -0.00185747 0
1e-08 0 0
0.00572798 -0.00238164 0
1e-08 0 0
1e-08 0 0
1e-08 0 0
0.000839532 0.00649825 -0
1e-08 0 0
1e-08 0 0
1e-08 0 0
1e-08 0 0
1e-08 0 0
1e-08 0 0
1e-08 0 0
1e-08 0 0
1e-08 0 0
1e-08 0 0
-3.18172e-06 0.00623832 -0
1e-08 0 0
1e-08 0 0
1e-08 0 0
0.00589884 -0.00341053 0
1e-08 0 0
0.00518593 -0.00399159 0
1e-08 0 0
1e-08 0 0
1e-08 0 0
1e-08 0 0
1e-08 0 0
1e-08 0 0
1e-08 0 0
1e-08 0 0
1e-08 0 0
1e-08 0 0
1e-08 0 0
1e-08 0 0
1e-08 0 0
-0.000962189 0.00719326 0
1e-08 0 0
1e-08 0 0
1e-08 0 0
1e-08 0 0
1e-08 0 0
0.00494094 -0.00497479 0
1e-08 0 0
0.0033705 -0.00439283 0
1e-08 0 0
1e-08 0 0
1e-08 0 0
1e-08 0 0
1e-08 0 0
1e-08 0 0
1e-08 0 0
1e-08 0 0
1e-08 0 0
1e-08 0 0
1e-08 0 0
1e-08 0 0
1e-08 0 0
-0.00153082 0.00567561 0
1e-08 0 0
1e-08 0 0
1e-08 0 0
1e-08 0 0
1e-08 0 0
1e-08 0 0
0.00327036 -0.00558672 0
1e-08 0 0
1e-08 0 0
1e-08 0 0
1e-08 0 0
1e-08 0 0
0.0030028 -0.00723751 0
1e-08 0 0
1e-08 0 0
1e-08 0 0
1e-08 0 0
1e-08 0 0
1e-08 0 0
1e-08 0 0
1e-08 0 0
1e-08 0 0
1e-08 0 0
-0.00234903 0.00573512 0
1e-08 0 0
1e-08 0 0
1e-08 0 0
1e-08 0 0
1e-08 0 0
1e-08 0 0
1e-08 0 0
1e-08 0 0
1e-08 0 0
1e-08 0 0
1e-08 0 0
1e-08 0 0
1e-08 0 0
1e-08 0 0
0.00161164 -0.00611413 0
1e-08 0 0
1e-08 0 0
1e-08 0 0
1e-08 0 0
1e-08 0 0
1e-08 0 0
1e-08 0 0
1e-08 0 0
1e-08 0 0
-0.00406003 0.00701111 0
1e-08 0 0
1e-08 0 0
1e-08 0 0
1e-08 0 0
1e-08 0 0
1e-08 0 0
1e-08 0 0
1e-08 0 0
1e-08 0 0
1e-08 0 0
1e-08 0 0
1e-08 0 0
1e-08 0 0
1e-08 0 0
1e-08 0 0
0.000735379 -0.00546601 0
1e-08 0 0
1e-08 0 0
1e-08 0 0
1e-08 0 0
1e-08 0 0
1e-08 0 0
1e-08 0 0
1e-08 0 0
1e-08 0 0
1e-08 0 0
-0.00342857 0.00443694 0
1e-08 0 0
1e-08 0 0
1e-08 0 0
1e-08 0 0
1e-08 0 0
1e-08 0 0
1e-08 0 0
1e-08 0 0
1e-08 0 0
1e-08 0 0
1e-08 0 0
1e-08 0 0
1.11495e-05 -0.00805268 0
1e-08 0 0
1e-08 0 0
1e-08 0 0
1e-08 0 0
1e-08 0 0
1e-08 0 0
1e-08 0 0
1e-08 0 0
1e-08 0 0
1e-08 0 0
1e-08 0 0
1e-08 0 0
-0.00483996 0.00484391 0
1e-08 0 0
1e-08 0 0
1e-08 0 0
1e-08 0 0
1e-08 0 0
1e-08 0 0
1e-08 0 0
1e-08 0 0
1e-08 0 0
1e-08 0 0
1e-08 0 0
1e-08 0 0
1e-08 0 0
-0.000724041 -0.00549244 0
1e-08 0 0
1e-08 0 0
1e-08 0 0
1e-08 0 0
1e-08 0 0
1e-08 0 0
1e-08 0 0
1e-08 0 0
-0.00463518 0.00357785 0
1e-08 0 0
1e-08 0 0
1e-08 0 0
1e-08 0 0
1e-08 0 0
1e-08 0 0
1e-08 0 0
1e-08 0 0
1e-08 0 0
1e-08 0 0
1e-08 0 0
-0.00190799 -0.00715633 0
1e-08 0 0
1e-08 0 0
1e-08 0 0
1e-08 0 0
1e-08 0 0
1e-08 0 0
1e-08 0 0
-0.00571982 0.00335114 0
1e-08 0 0
1e-08 0 0
1e-08 0 0
1e-08 0 0
1e-08 0 0
1e-08 0 0
1e-08 0 0
1e-08 0 0
1e-08 0 0
1e-08 0 0
1e-08 0 0
-0.00231248 -0.00558256 0
1e-08 0 0
1e-08 0 0
1e-08 0 0
1e-08 0 0
1e-08 0 0
-0.00734722 0.00304024 0
1e-08 0 0
1e-08 0 0
1e-08 0 0
1e-08 0 0
1e-08 0 0
1e-08 0 0
1e-08 0 0
1e-08 0 0
-0.00355497 -0.00615996 0
1e-08 0 0
1e-08 0 0
1e-08 0 0
1e-08 0 0
-0.00577972 0.00152532 0
1e-08 0 0
1e-08 0 0
1e-08 0 0
1e-08 0 0
1e-08 0 0
1e-08 0 0
-0.00417253 -0.00539738 0
1e-08 0 0
1e-08 0 0
1e-08 0 0
-0.00647113 0.000849125 0
1e-08 0 0
1e-08 0 0
1e-08 0 0
1e-08 0 0
1e-08 0 0
1e-08 0 0
-0.00415754 -0.00414826 0
1e-08 0 0
1e-08 0 0
-0.00635358 6.54664e-06 0
1e-08 0 0
1e-08 0 0
1e-08 0 0
1e-08 0 0
-0.00570898 -0.00437696 0
1e-08 0 0
-0.00737802 -0.000986509 0
1e-08 0 0
1e-08 0 0
-0.00518761 -0.00299271 0
-0.00552153 -0.00148917 0
-0.00660678 -0.00273596 0
