# vtk DataFile Version 2.0
CellBP Time: 6.88
ASCII
DATASET UNSTRUCTURED_GRID
POINTS 296 double
-8.92608 -3.66198 0
-8.36251 -4.8043 0
-9.32983 -2.45358 0
-9.59379 -1.21515 0
-8.25912 -2.77525 0
-7.65559 -5.86597 0
-6.81144 -6.82011 0
-7.81946 -3.81999 0
-7.24956 -4.80728 0
-5.86636 -7.6658 0
-4.81866 -8.37568 0
-9.67349 0.0467945 0
-9.60578 1.31657 0
-8.56664 -1.65829 0
-8.70233 -0.521779 0
-7.49426 -1.96955 0
-7.12786 -2.85864 0
-6.56208 -5.71927 0
-5.76475 -6.53841 0
-6.69646 -3.83102 0
-6.13922 -4.6172 0
-3.68079 -8.94549 0
-2.47033 -9.35234 0
-4.86676 -7.25168 0
-3.89085 -7.83148 0
-8.7156 0.634056 0
-9.36979 2.5735 0
-8.55402 1.75363 0
-8.95058 3.77648 0
-7.65547 -0.91099 0
-7.71174 0.0831173 0
-6.86731 -1.29215 0
-1.21499 -9.59274 0
-6.36364 -2.12055 0
-6.24026 -3.0115 0
-5.47138 -5.41685 0
-4.74604 -6.0589 0
-5.58892 -3.70892 0
-5.20196 -4.50695 0
-2.84884 -8.30418 0
-1.76398 -8.57445 0
-3.89488 -6.66858 0
-3.0384 -7.09928 0
0.0524626 -9.67834 0
-7.62877 1.131 0
-8.27988 2.89376 0
-7.48083 2.08669 0
-8.37729 4.9121 0
-7.81133 3.94134 0
-7.6584 5.96435 0
-6.70112 -0.387195 0
-6.8792 0.549847 0
-5.71302 -0.991145 0
-0.584502 -8.73573 0
0.555493 -8.68688 0
-5.24843 -2.44991 0
-4.43681 -5.04059 0
-3.8604 -5.72054 0
-4.39329 -3.76517 0
-2.04703 -7.50311 0
-1.12701 -7.72013 0
-2.96691 -6.04893 0
-2.29315 -6.56682 0
1.31386 -9.58125 0
-6.62163 1.40544 0
-7.10014 3.08386 0
-6.59272 2.34678 0
-7.22224 4.93797 0
-6.64985 3.9584 0
-6.81532 6.91184 0
-6.50623 5.83176 0
-5.86406 7.75618 0
-4.42218 -1.17411 0
-5.76182 0.504797 0
-4.62469 -0.0171243 0
0.00164253 -7.77175 0
1.71205 -8.54948 0
0.928815 -7.67895 0
-4.01002 -2.38595 0
-3.47435 -1.38695 0
-3.26557 -4.76257 0
-3.24745 -3.24299 0
-1.37206 -6.61553 0
-0.512538 -6.95597 0
-1.96206 -5.49356 0
2.55777 -9.32216 0
-5.45726 2.01889 0
-6.03325 3.03737 0
-6.04198 4.81403 0
-5.70147 3.94311 0
-5.70195 6.64305 0
-5.3945 5.55364 0
-4.81554 8.47569 0
-4.78676 7.32009 0
-3.48651 -0.423237 0
-4.41583 1.23944 0
-3.68997 0.588711 0
-4.02977 2.30898 0
-3.68136 9.0456 0
2.81936 -8.22986 0
0.402102 -6.71876 0
1.9861 -7.43257 0
1.27688 -6.82059 0
-2.43876 -0.869203 0
-2.82909 -2.12063 0
-2.28282 -4.06791 0
-2.31607 -2.95552 0
-0.446007 -5.8045 0
-1.21318 -4.46787 0
3.76882 -8.93234 0
-4.74446 3.35903 0
-5.03454 4.5395 0
-4.59619 6.20564 0
-4.49008 5.29531 0
-3.8081 7.91486 0
-3.78241 6.76078 0
-2.75375 8.33497 0
-1.64648 -0.133696 0
-1.44685 -0.886574 0
-2.48386 0.511021 0
-3.23493 1.44061 0
-3.21406 3.29363 0
-2.8933 2.36636 0
-1.35477 0.631182 0
-2.4704 9.43907 0
3.87882 -7.78872 0
2.91394 -7.05729 0
0.933365 -5.75589 0
2.03639 -6.3309 0
-1.67698 -1.98545 0
-1.42666 -3.25849 0
0.0862517 -4.7059 0
-0.55989 -3.67277 0
4.87045 -7.2249 0
4.90468 -8.36391 0
-3.74099 4.50515 0
-3.69523 5.68574 0
-2.85316 7.20468 0
-2.977 6.28127 0
-1.64453 8.65084 0
-1.91609 7.53943 0
-2.32274 4.02147 0
-0.72846 -1.32376 0
-0.836315 -0.253961 0
-1.93379 1.68385 0
-2.11668 2.86635 0
-1.30356 3.52822 0
-0.871815 1.35465 0
-0.284599 0.459247 0
-0.527613 8.7962 0
-1.21968 9.68918 0
1.09706 -4.5291 0
3.84827 -6.61491 0
2.94047 -6.00918 0
2.08496 -5.35736 0
4.72233 -6.11613 0
-0.554916 -2.4676 0
0.493293 -3.4421 0
0.0542634 -1.60754 0
1.46657 -3.64938 0
5.80279 -6.53169 0
5.96111 -7.65354 0
-2.45309 5.29588 0
-2.10485 6.4635 0
-0.89126 7.72989 0
-1.25327 6.85992 0
0.0886463 7.81367 0
-1.13814 4.46313 0
0.148888 -0.614734 0
-0.801613 2.48905 0
-0.337161 3.58823 0
0.0582946 1.51454 0
0.736784 0.47449 0
0.640821 8.80731 0
0.0472123 9.78023 0
2.35143 -4.23588 0
3.80592 -5.55899 0
2.95923 -5.14302 0
5.51395 -5.42035 0
4.63285 -5.20526 0
0.630155 -2.28859 0
1.24774 -2.93293 0
0.755901 -1.38918 0
2.14531 -3.10948 0
2.96459 -3.44037 0
6.09785 -4.73566 0
6.5942 -5.70587 0
6.91649 -6.80878 0
-1.00775 5.76721 0
-0.362656 6.81816 0
1.11474 7.71079 0
0.557821 7.02009 0
-0.00357365 4.6955 0
0.599053 3.81009 0
1.33476 -0.641359 0
0.531991 2.64516 0
0.959086 1.57482 0
1.9033 0.212653 0
1.6071 1.06387 0
2.11643 7.52917 0
1.78699 8.65036 0
1.31911 9.70298 0
3.77962 -4.29534 0
5.06125 -4.38635 0
5.79201 -3.88693 0
3.74973 -3.16714 0
1.80483 -1.87912 0
2.99652 -2.55515 0
6.72918 -3.90956 0
7.32333 -4.85249 0
7.76236 -5.86227 0
0.482087 5.83505 0
1.4201 6.69003 0
2.36019 6.6208 0
1.20037 4.52936 0
1.47865 3.38102 0
2.42478 -0.690381 0
2.81489 0.142723 0
1.77944 2.15726 0
2.60185 1.14688 0
3.05395 7.11905 0
2.88869 8.31873 0
2.57257 9.45386 0
4.86601 -3.28715 0
6.0702 -3.07433 0
4.14209 -2.25781 0
3.22514 -1.49662 0
6.68368 -2.29567 0
7.18138 -3.02096 0
7.91062 -3.88718 0
8.47824 -4.81817 0
2.01186 5.56021 0
3.05804 6.10422 0
2.35227 4.10022 0
2.40884 3.04426 0
3.50559 -0.456952 0
3.59654 0.614182 0
2.94649 2.27637 0
3.52333 1.51806 0
3.96925 5.84656 0
3.95107 6.74043 0
3.95195 7.88446 0
3.78252 9.04628 0
5.52845 -1.90023 0
4.47976 -1.12096 0
6.66282 -1.32472 0
7.53894 -2.02039 0
8.34042 -2.84301 0
9.05133 -3.68417 0
3.38392 4.83523 0
3.31166 3.35956 0
4.65936 0.132535 0
4.48133 1.29923 0
4.02769 2.42259 0
4.51316 5.10065 0
4.79333 6.1368 0
4.94042 7.3247 0
4.92449 8.48442 0
5.83481 -0.433305 0
6.95053 -0.48728 0
7.70182 -1.07343 0
8.62373 -1.73088 0
9.45374 -2.47109 0
4.49956 3.78863 0
5.75867 1.08214 0
5.30922 2.50412 0
5.3078 4.56766 0
5.54548 5.46839 0
5.83847 6.61443 0
5.96921 7.76952 0
6.7776 0.451043 0
7.78525 -0.0277009 0
8.79334 -0.575004 0
9.70105 -1.21591 0
6.88313 1.32553 0
5.64589 3.73181 0
6.46155 2.16339 0
6.29648 3.04433 0
6.20901 4.63105 0
6.61591 5.77918 0
6.91868 6.92538 0
7.70722 0.952046 0
8.78139 0.56652 0
9.77666 0.054145 0
7.53 1.97428 0
6.73214 3.84841 0
7.17597 2.90286 0
7.29234 4.83113 0
7.76396 5.97019 0
8.63449 1.705 0
9.67979 1.31602 0
8.32345 2.79995 0
7.89172 3.87 0
8.46938 4.9102 0
9.43411 2.56369 0
9.03525 3.77155 0
CELLS 542 2168
3 2 0 4
3 0 1 7
3 4 0 7
3 1 5 8
3 7 1 8
3 3 2 13
3 13 2 4
3 11 3 14
3 14 3 13
3 13 4 15
3 4 7 16
3 15 4 16
3 5 6 17
3 8 5 17
3 6 9 18
3 17 6 18
3 7 8 19
3 16 7 19
3 8 17 20
3 19 8 20
3 9 10 23
3 18 9 23
3 10 21 24
3 23 10 24
3 12 11 25
3 25 11 14
3 26 12 27
3 27 12 25
3 14 13 29
3 29 13 15
3 25 14 30
3 30 14 29
3 29 15 31
3 15 16 33
3 31 15 33
3 16 19 34
3 33 16 34
3 17 18 35
3 20 17 35
3 18 23 36
3 35 18 36
3 19 20 37
3 34 19 37
3 20 35 38
3 37 20 38
3 21 22 39
3 24 21 39
3 22 32 40
3 39 22 40
3 23 24 41
3 36 23 41
3 24 39 42
3 41 24 42
3 27 25 44
3 44 25 30
3 28 26 45
3 45 26 27
3 45 27 46
3 46 27 44
3 47 28 48
3 48 28 45
3 30 29 50
3 50 29 31
3 44 30 51
3 51 30 50
3 50 31 52
3 31 33 52
3 32 43 53
3 40 32 53
3 53 43 54
3 33 34 55
3 34 37 55
3 33 55 52
3 35 36 56
3 38 35 56
3 36 41 57
3 56 36 57
3 37 38 58
3 38 56 58
3 37 58 55
3 39 40 59
3 42 39 59
3 40 53 60
3 59 40 60
3 41 42 61
3 57 41 61
3 42 59 62
3 61 42 62
3 43 63 54
3 46 44 64
3 64 44 51
3 48 45 65
3 65 45 46
3 65 46 66
3 66 46 64
3 49 47 67
3 67 47 48
3 67 48 68
3 68 48 65
3 69 49 70
3 70 49 67
3 52 55 72
3 64 51 73
3 51 50 73
3 50 52 73
3 73 52 74
3 74 52 72
3 53 54 75
3 60 53 75
3 54 63 76
3 54 76 77
3 75 54 77
3 55 58 78
3 72 55 78
3 72 78 79
3 56 57 80
3 57 61 80
3 56 80 58
3 58 80 81
3 78 58 81
3 59 60 82
3 62 59 82
3 60 75 83
3 82 60 83
3 61 62 84
3 62 82 84
3 61 84 80
3 63 85 76
3 66 64 86
3 64 73 86
3 68 65 87
3 87 65 66
3 87 66 86
3 70 67 88
3 88 67 68
3 88 68 89
3 89 68 87
3 71 69 90
3 90 69 70
3 90 70 91
3 91 70 88
3 92 71 93
3 93 71 90
3 74 72 94
3 94 72 79
3 86 73 95
3 95 73 74
3 95 74 96
3 96 74 94
3 97 86 95
3 76 85 99
3 75 77 100
3 83 75 100
3 76 99 101
3 77 76 101
3 77 101 102
3 100 77 102
3 94 79 103
3 78 81 104
3 79 78 104
3 79 104 103
3 80 84 105
3 81 80 105
3 81 105 106
3 104 81 106
3 82 83 107
3 83 100 107
3 82 107 84
3 84 107 108
3 105 84 108
3 85 109 99
3 89 87 110
3 87 86 110
3 110 86 97
3 91 88 111
3 111 88 89
3 111 89 110
3 93 90 112
3 112 90 91
3 112 91 113
3 113 91 111
3 98 92 114
3 114 92 93
3 114 93 115
3 115 93 112
3 116 98 114
3 117 103 118
3 96 94 119
3 94 103 119
3 119 103 117
3 97 95 120
3 120 95 96
3 120 96 119
3 121 110 97
3 121 97 122
3 122 97 120
3 123 119 117
3 124 98 116
3 99 109 125
3 99 125 126
3 101 99 126
3 100 102 127
3 100 127 107
3 101 126 128
3 102 101 128
3 102 128 127
3 104 106 129
3 104 129 103
3 103 129 118
3 105 108 130
3 106 105 130
3 106 130 129
3 107 127 131
3 108 107 131
3 108 131 132
3 108 132 130
3 109 134 125
3 125 134 133
3 113 111 135
3 111 110 135
3 135 110 121
3 115 112 136
3 136 112 113
3 136 113 135
3 116 114 137
3 137 114 115
3 137 115 138
3 138 115 136
3 139 124 116
3 139 116 140
3 140 116 137
3 141 135 121
3 118 129 142
3 118 142 143
3 117 118 143
3 123 117 143
3 122 120 144
3 120 119 144
3 144 119 123
3 141 121 145
3 145 121 122
3 145 122 144
3 146 141 145
3 147 144 123
3 147 123 148
3 143 148 123
3 150 124 139
3 149 150 139
3 131 127 151
3 125 133 152
3 126 125 152
3 126 152 153
3 128 126 153
3 128 153 154
3 128 154 127
3 127 154 151
3 152 133 155
3 130 132 156
3 130 156 129
3 129 156 142
3 131 151 157
3 132 131 157
3 132 157 156
3 156 158 142
3 157 151 159
3 133 160 155
3 134 161 133
3 133 161 160
3 138 136 162
3 136 135 162
3 162 135 141
3 140 137 163
3 163 137 138
3 163 138 162
3 149 139 164
3 164 139 140
3 164 140 165
3 165 140 163
3 166 149 164
3 167 162 141
3 167 141 146
3 142 158 168
3 143 142 168
3 143 168 148
3 146 145 169
3 145 144 169
3 169 144 147
3 170 167 146
3 170 146 169
3 171 169 147
3 171 147 148
3 171 148 172
3 168 172 148
3 173 149 166
3 174 150 149
3 173 174 149
3 154 175 151
3 151 175 159
3 152 155 176
3 153 152 176
3 153 176 177
3 153 177 154
3 154 177 175
3 155 160 178
3 155 178 179
3 176 155 179
3 156 157 180
3 156 180 158
3 157 159 181
3 157 181 180
3 158 180 182
3 158 182 168
3 159 175 183
3 159 183 181
3 175 184 183
3 160 186 178
3 178 186 185
3 161 187 160
3 160 187 186
3 165 163 188
3 163 162 188
3 188 162 167
3 166 164 189
3 189 164 165
3 189 165 188
3 190 173 166
3 190 166 191
3 191 166 189
3 192 188 167
3 192 167 170
3 193 192 170
3 182 194 168
3 194 172 168
3 193 170 195
3 170 169 195
3 195 169 171
3 196 195 171
3 196 171 172
3 194 197 172
3 197 198 172
3 198 196 172
3 200 173 190
3 199 200 190
3 201 174 173
3 200 201 173
3 176 179 202
3 177 176 202
3 177 202 175
3 175 202 184
3 178 185 203
3 178 203 179
3 179 203 202
3 203 185 204
3 202 205 184
3 183 206 181
3 180 181 206
3 180 206 182
3 182 206 194
3 183 184 207
3 205 207 184
3 183 207 206
3 185 208 204
3 186 209 185
3 185 209 208
3 187 210 186
3 186 210 209
3 191 189 211
3 189 188 211
3 211 188 192
3 199 190 212
3 212 190 191
3 212 191 211
3 213 199 212
3 214 211 192
3 214 192 193
3 215 214 193
3 215 193 195
3 206 216 194
3 216 197 194
3 216 217 197
3 215 195 218
3 218 195 196
3 198 218 196
3 217 219 197
3 219 218 198
3 197 219 198
3 220 199 213
3 221 200 199
3 220 221 199
3 222 201 200
3 221 222 200
3 203 204 223
3 203 223 202
3 202 223 205
3 204 208 224
3 204 224 223
3 205 223 225
3 205 225 207
3 207 225 226
3 207 226 206
3 226 216 206
3 208 228 224
3 224 228 227
3 209 229 208
3 229 228 208
3 210 230 209
3 209 230 229
3 213 212 231
3 212 211 231
3 231 211 214
3 232 220 213
3 232 213 231
3 233 231 214
3 233 214 215
3 234 233 215
3 234 215 218
3 226 235 216
3 235 217 216
3 235 236 217
3 217 236 219
3 237 234 218
3 237 218 219
3 236 238 219
3 238 237 219
3 240 220 232
3 239 240 232
3 241 221 220
3 240 241 220
3 242 222 221
3 241 242 221
3 224 227 243
3 224 243 223
3 223 243 225
3 225 243 244
3 225 244 226
3 226 244 235
3 227 245 243
3 228 246 227
3 227 246 245
3 229 247 228
3 228 247 246
3 230 248 229
3 229 248 247
3 239 232 249
3 232 231 249
3 249 231 233
3 250 249 233
3 250 233 234
3 237 250 234
3 244 251 235
3 235 251 236
3 251 252 236
3 236 252 238
3 252 253 238
3 253 250 237
3 253 237 238
3 254 239 249
3 255 240 239
3 254 255 239
3 256 241 240
3 255 256 240
3 257 242 241
3 256 257 241
3 245 258 243
3 243 258 244
3 244 258 251
3 245 259 258
3 246 260 245
3 245 260 259
3 247 261 246
3 246 261 260
3 248 262 247
3 247 262 261
3 254 249 263
3 263 249 250
3 253 263 250
3 258 264 251
3 251 264 252
3 264 265 252
3 265 263 253
3 252 265 253
3 266 254 263
3 267 255 254
3 266 267 254
3 268 256 255
3 267 268 255
3 269 257 256
3 268 269 256
3 259 270 258
3 270 264 258
3 260 271 259
3 259 271 270
3 261 272 260
3 260 272 271
3 262 273 261
3 273 272 261
3 270 274 264
3 275 266 263
3 275 263 265
3 274 276 264
3 276 265 264
3 276 277 265
3 277 275 265
3 278 267 266
3 275 278 266
3 279 268 267
3 278 279 267
3 280 269 268
3 279 280 268
3 271 281 270
3 270 281 274
3 272 282 271
3 271 282 281
3 273 283 272
3 272 283 282
3 281 284 274
3 274 284 276
3 285 278 275
3 277 285 275
3 284 286 276
3 286 285 277
3 276 286 277
3 287 279 278
3 285 287 278
3 288 280 279
3 287 288 279
3 282 289 281
3 281 289 284
3 283 290 282
3 282 290 289
3 289 291 284
3 284 291 286
3 291 292 286
3 292 287 285
3 286 292 285
3 293 288 287
3 292 293 287
3 290 294 289
3 289 294 291
3 294 295 291
3 295 293 292
3 291 295 292
CELL_TYPES 542
5
5
5
5
5
5
5
5
5
5
5
5
5
5
5
5
5
5
5
5
5
5
5
5
5
5
5
5
5
5
5
5
5
5
5
5
5
5
5
5
5
5
5
5
5
5
5
5
5
5
5
5
5
5
5
5
5
5
5
5
5
5
5
5
5
5
5
5
5
5
5
5
5
5
5
5
5
5
5
5
5
5
5
5
5
5
5
5
5
5
5
5
5
5
5
5
5
5
5
5
5
5
5
5
5
5
5
5
5
5
5
5
5
5
5
5
5
5
5
5
5
5
5
5
5
5
5
5
5
5
5
5
5
5
5
5
5
5
5
5
5
5
5
5
5
5
5
5
5
5
5
5
5
5
5
5
5
5
5
5
5
5
5
5
5
5
5
5
5
5
5
5
5
5
5
5
5
5
5
5
5
5
5
5
5
5
5
5
5
5
5
5
5
5
5
5
5
5
5
5
5
5
5
5
5
5
5
5
5
5
5
5
5
5
5
5
5
5
5
5
5
5
5
5
5
5
5
5
5
5
5
5
5
5
5
5
5
5
5
5
5
5
5
5
5
5
5
5
5
5
5
5
5
5
5
5
5
5
5
5
5
5
5
5
5
5
5
5
5
5
5
5
5
5
5
5
5
5
5
5
5
5
5
5
5
5
5
5
5
5
5
5
5
5
5
5
5
5
5
5
5
5
5
5
5
5
5
5
5
5
5
5
5
5
5
5
5
5
5
5
5
5
5
5
5
5
5
5
5
5
5
5
5
5
5
5
5
5
5
5
5
5
5
5
5
5
5
5
5
5
5
5
5
5
5
5
5
5
5
5
5
5
5
5
5
5
5
5
5
5
5
5
5
5
5
5
5
5
5
5
5
5
5
5
5
5
5
5
5
5
5
5
5
5
5
5
5
5
5
5
5
5
5
5
5
5
5
5
5
5
5
5
5
5
5
5
5
5
5
5
5
5
5
5
5
5
5
5
5
5
5
5
5
5
5
5
5
5
5
5
5
5
5
5
5
5
5
5
5
5
5
5
5
5
5
5
5
5
5
5
5
5
5
5
5
5
5
5
5
5
5
5
5
5
5
5
5
5
5
5
5
5
5
5
5
5
5
5
5
5
5
5
5
5
5
5
5
5
5
5
5
5
5
5
5
5
5
5
5
5
5
5
5
5
5
5
5
5
5
5
5
5
5
5
5
5
5
5
5
5
5
5
5
5
5
5
5
5
5
5
5
5
POINT_DATA 296
SCALARS concentrations float 4
LOOKUP_TABLE default
0 0.945215 0.101077 51.6509
0 0.9454 0.1034 72.1484
0 0.945453 0.100436 97.6142
0 0.945607 0.100263 57.3741
0 0.945371 0.0918917 9.17706
0 0.945417 0.0994276 23.8191
0 0.945582 0.0968513 14.3013
0 0.945362 0.0923777 10.0203
0 0.945465 0.0928214 12.1992
0 0.945756 0.0988893 22.2516
0 0.945552 0.105453 116.421
0 0.94572 0.101079 15.7449
0 0.945898 0.106069 37.2731
0 0.94556 0.0919252 2.95234
0 0.945671 0.0921828 5.54492
0 0.945527 0.0914533 2.01077
0 0.945477 0.0914163 2.69168
0 0.945514 0.0923659 7.90363
0 0.94567 0.0923849 9.27472
0 0.945501 0.091459 2.53077
0 0.945558 0.0916164 4.25148
0 0.945257 0.107029 98.373
0 0.945215 0.0991677 85.415
0 0.945655 0.0927232 14.066
0 0.945432 0.0928225 14.5701
0 0.945811 0.092637 2.29472
0 0.946123 0.0978508 70.3434
0 0.946005 0.0926969 5.91884
0 0.946252 0.0997539 46.7074
0 0.945631 0.0914461 1.27102
0 0.945751 0.0913943 1.15122
0 0.945619 0.0912758 0.996989
0 0.945399 0.106048 134.399
0 0.945586 0.0911835 0.816792
0 0.945564 0.0911553 0.662351
0 0.945609 0.0916227 4.44552
0 0.945628 0.0915605 4.54773
0 0.945593 0.0911525 0.768082
0 0.945613 0.0912509 1.85892
0 0.945298 0.0930604 18.072
0 0.945363 0.0924597 14.3092
0 0.945565 0.0913065 1.8604
0 0.945466 0.0913638 3.22068
0 0.945602 0.101528 46.0646
0 0.945885 0.0914465 1.41641
0 0.94617 0.0920244 11.7529
0 0.946031 0.091575 3.66892
0 0.946372 0.104974 25.4523
0 0.946273 0.0926523 11.0519
0 0.946418 0.101216 35.3461
0 0.945698 0.0911877 0.692048
0 0.945786 0.0911046 0.690868
0 0.945657 0.0911313 1.06758
0 0.945512 0.0923013 13.6847
0 0.94567 0.0921712 2.77314
0 0.945624 0.0910667 1.91821
0 0.945626 0.0911588 1.43907
0 0.945611 0.0911131 0.982101
0 0.945629 0.091005 0.726708
0 0.945452 0.0915088 4.45124
0 0.945505 0.0913019 1.95624
0 0.945581 0.0910497 1.03959
0 0.945542 0.0912212 2.17315
0 0.945791 0.10291 18.9495
0 0.945862 0.0910271 1.21651
0 0.946135 0.0915737 3.59737
0 0.945961 0.0912098 1.46454
0 0.946337 0.0929214 8.7631
0 0.94618 0.0917036 4.02141
0 0.946219 0.100379 21.5763
0 0.946255 0.0923998 7.51773
0 0.9458 0.0967068 43.4928
0 0.945647 0.0910692 1.16651
0 0.945741 0.0910729 1.13218
0 0.945681 0.0911103 0.989978
0 0.945581 0.0916227 4.02476
0 0.945691 0.0928014 9.88101
0 0.945616 0.0916001 3.17774
0 0.945638 0.0910472 1.51279
0 0.945644 0.0910395 1.1332
0 0.945624 0.0909632 0.111343
0 0.945637 0.0910114 0.565424
0 0.945563 0.0912089 1.45308
0 0.94558 0.0912661 1.99668
0 0.945608 0.0911108 1.36026
0 0.945635 0.0990462 24.9898
0 0.945817 0.0910691 0.925828
0 0.945972 0.0912256 2.65777
0 0.946142 0.0916801 5.58962
0 0.945999 0.0913791 4.81646
0 0.945967 0.0916243 2.54235
0 0.945984 0.0914835 4.89986
0 0.945291 0.10431 51.1136
0 0.945568 0.0924858 7.28224
0 0.945654 0.0910383 0.815699
0 0.945726 0.0910893 0.577766
0 0.945673 0.0910572 0.471824
0 0.945745 0.0910924 0.545584
0 0.944786 0.10389 11.6116
0 0.945441 0.0927471 15.0775
0 0.945601 0.0913295 2.20619
0 0.945544 0.0916464 5.11721
0 0.945581 0.0913709 2.2992
0 0.945645 0.0910098 0.92294
0 0.945642 0.0910163 0.929052
0 0.945633 0.0910423 0.486587
0 0.945642 0.0910267 0.647152
0 0.945609 0.0911315 0.899623
0 0.945628 0.0910778 0.576261
0 0.945252 0.105897 98.7627
0 0.945818 0.0910515 1.3618
0 0.945893 0.0913186 4.85132
0 0.945735 0.0915189 4.3528
0 0.945793 0.0913634 4.78353
0 0.945129 0.0928012 12.1578
0 0.945452 0.0914697 4.39764
0 0.944894 0.0924628 5.17352
0 0.945643 0.0909846 0.441648
0 0.945641 0.0910111 0.844536
0 0.945653 0.0909747 0.609373
0 0.945682 0.0910427 0.121584
0 0.945718 0.0910416 0.853645
0 0.945686 0.0910492 0.265567
0 0.945643 0.090974 0.152001
0 0.944761 0.102457 136.824
0 0.945255 0.0926275 12.5062
0 0.945415 0.0914642 3.49649
0 0.945595 0.0911479 1.17034
0 0.945529 0.0912394 1.72923
0 0.945643 0.0910199 1.09573
0 0.94564 0.0910385 0.514964
0 0.945622 0.0910826 0.270409
0 0.945636 0.0910624 0.194455
0 0.945305 0.0921558 6.02017
0 0.945234 0.105168 161.095
0 0.945721 0.0911084 1.88478
0 0.94563 0.0912431 3.2964
0 0.945244 0.0913848 2.80774
0 0.945482 0.0911491 2.26546
0 0.945012 0.0924982 4.24703
0 0.945194 0.0915831 3.25611
0 0.945653 0.0910774 1.35745
0 0.945641 0.0910233 0.932313
0 0.945639 0.0910118 0.518049
0 0.945653 0.0909801 0.569981
0 0.945659 0.09104 0.880038
0 0.945634 0.0910696 1.04947
0 0.945639 0.0909957 0.181356
0 0.945637 0.0910202 0.497329
0 0.945153 0.0923257 5.37287
0 0.945019 0.0999312 46.4494
0 0.945601 0.0910791 0.794151
0 0.945341 0.0912673 2.28834
0 0.945456 0.0911135 0.763115
0 0.945557 0.0910858 0.76204
0 0.945294 0.0911753 1.98161
0 0.94564 0.0910299 0.738994
0 0.945631 0.0910707 0.378536
0 0.94564 0.0910377 0.858492
0 0.945609 0.0910893 0.925353
0 0.945269 0.0917916 3.67297
0 0.945363 0.0996343 42.2243
0 0.945591 0.0910638 1.04638
0 0.945432 0.0910982 1.26379
0 0.945251 0.0915555 2.5794
0 0.945391 0.0913298 2.74299
0 0.945309 0.0915111 3.15528
0 0.945599 0.091085 0.709161
0 0.945638 0.0910371 0.750631
0 0.945636 0.0910185 0.452644
0 0.945616 0.0910892 0.588362
0 0.945634 0.0910187 0.332639
0 0.945636 0.0910341 0.71923
0 0.945202 0.091631 4.40998
0 0.94511 0.097104 36.5723
0 0.945563 0.0910832 1.27544
0 0.945407 0.0910294 0.612811
0 0.945501 0.0910655 0.648482
0 0.945226 0.0911271 1.9165
0 0.945363 0.0910408 1.29955
0 0.945637 0.0910483 0.630604
0 0.945628 0.0910703 0.851022
0 0.945638 0.09105 0.735347
0 0.945607 0.0910767 1.00148
0 0.945562 0.0910676 0.944358
0 0.945172 0.0911629 1.09731
0 0.945005 0.091626 2.47561
0 0.945129 0.0996882 106.152
0 0.945529 0.0911239 1.10526
0 0.945438 0.0913154 2.7257
0 0.945331 0.091288 2.31902
0 0.945436 0.0913018 2.52029
0 0.945575 0.0911321 0.928877
0 0.945604 0.0911208 0.793398
0 0.945637 0.0910511 0.743677
0 0.945624 0.0910594 0.510581
0 0.945631 0.0910356 0.604986
0 0.945637 0.091051 0.863023
0 0.945634 0.0910422 0.822794
0 0.945335 0.0911983 1.92014
0 0.945241 0.0919714 9.29134
0 0.94517 0.101124 83.5401
0 0.945482 0.0910502 1.08156
0 0.945368 0.0910671 1.41223
0 0.945355 0.0911056 1.39386
0 0.945548 0.0910473 0.804768
0 0.94563 0.0910379 0.603574
0 0.945604 0.0910543 0.815391
0 0.945233 0.0912835 2.00779
0 0.944977 0.091579 2.11349
0 0.94479 0.0994844 50.2997
0 0.945523 0.0911762 1.74604
0 0.945456 0.0911556 1.54994
0 0.94544 0.0910693 0.360646
0 0.945569 0.091126 1.119
0 0.945605 0.0911082 0.911185
0 0.945636 0.0910538 0.831516
0 0.94564 0.0910586 1.07566
0 0.945624 0.0910577 0.756624
0 0.945634 0.0910494 0.94158
0 0.945342 0.0913993 1.92659
0 0.94523 0.092103 9.16978
0 0.945193 0.100212 152.404
0 0.945497 0.0910308 1.07558
0 0.945446 0.0911105 1.95311
0 0.945584 0.0910192 0.592727
0 0.945624 0.0910309 0.690244
0 0.945506 0.0911876 2.81912
0 0.94536 0.0914229 4.7024
0 0.945189 0.0922208 1.67325
0 0.945012 0.102833 108.704
0 0.945529 0.0910803 1.19541
0 0.94547 0.0911837 0.5218
0 0.945575 0.0910918 1.09839
0 0.945607 0.0910956 0.957867
0 0.945638 0.0910443 0.96634
0 0.945643 0.0910602 1.19424
0 0.945622 0.0910729 0.97357
0 0.945635 0.0910656 1.17515
0 0.945486 0.0914188 1.47684
0 0.945389 0.0916705 3.05059
0 0.945291 0.0929137 11.7228
0 0.945189 0.0962006 20.013
0 0.945568 0.0909873 0.67983
0 0.945622 0.0910147 0.599589
0 0.945586 0.0911502 1.86705
0 0.945474 0.0915647 5.59089
0 0.945311 0.0928161 13.6759
0 0.945198 0.102164 36.5863
0 0.945551 0.0911149 1.08593
0 0.945595 0.0910722 1.10254
0 0.94565 0.091048 1.10635
0 0.945652 0.0910499 1.26481
0 0.945627 0.0910458 0.984854
0 0.945548 0.0913762 1.23747
0 0.945474 0.0918149 3.96431
0 0.9454 0.0930304 12.7854
0 0.945344 0.102902 17.8766
0 0.945644 0.0911021 1.38693
0 0.945664 0.0913249 3.14214
0 0.945603 0.0915681 5.70178
0 0.945475 0.0928771 18.3584
0 0.945329 0.107934 166.051
0 0.945604 0.0910995 1.15912
0 0.945686 0.0911216 2.07554
0 0.945663 0.091011 0.848674
0 0.945604 0.0913064 1.19291
0 0.945588 0.0915885 2.43721
0 0.945551 0.0921482 3.12884
0 0.945462 0.0979273 107.029
0 0.945722 0.0913348 3.78525
0 0.945738 0.0915474 5.39056
0 0.945654 0.0920171 7.69141
0 0.945547 0.0974407 36.9439
0 0.945779 0.0912775 3.60679
0 0.94566 0.0911138 0.708299
0 0.945752 0.0911032 1.95489
0 0.945722 0.0910316 0.951089
0 0.945686 0.0913845 2.01969
0 0.945787 0.0920469 7.44576
0 0.945747 0.0978093 2.49567
0 0.945872 0.091461 5.07927
0 0.945898 0.0919059 10.1415
0 0.945762 0.0973368 47.0415
0 0.945914 0.0913932 4.60218
0 0.945751 0.091288 3.11953
0 0.945846 0.0913114 4.01252
0 0.945806 0.0922716 11.2015
0 0.94593 0.103272 49.1164
0 0.946123 0.0921711 10.2827
0 0.946147 0.101464 59.4219
0 0.94606 0.0922505 9.44862
0 0.945835 0.0923227 11.0175
0 0.94579 0.103742 12.8784
0 0.946265 0.102069 46.5774
0 0.946004 0.102169 87.9652
VECTORS fa_u float
0.00667495 0.00274673 -0
0.0056459 0.00325458 -0
0.00478917 0.0013069 -0
0.00841361 0.00115641 -0
1e-08 0 0
0.00580106 0.00446363 -0
0.0037776 0.00375535 -0
1e-08 0 0
1e-08 0 0
0.00437343 0.00560263 -0
0.00341681 0.00583557 -0
0.00532278 2.51949e-05 -0
0.0067898 -0.000816107 0
1e-08 0 0
1e-08 0 0
1e-08 0 0
1e-08 0 0
1e-08 0 0
1e-08 0 0
1e-08 0 0
1e-08 0 0
0.00294054 0.0070704 -0
0.0018049 0.00687598 -0
1e-08 0 0
1e-08 0 0
1e-08 0 0
0.00844651 -0.00224971 0
1e-08 0 0
0.00629481 -0.00267152 0
1e-08 0 0
1e-08 0 0
1e-08 0 0
0.000743542 0.00575394 -0
1e-08 0 0
1e-08 0 0
1e-08 0 0
1e-08 0 0
1e-08 0 0
1e-08 0 0
1e-08 0 0
1e-08 0 0
1e-08 0 0
1e-08 0 0
-3.71276e-05 0.00817102 -0
1e-08 0 0
1e-08 0 0
1e-08 0 0
0.00585697 -0.0034592 0
1e-08 0 0
0.00504478 -0.0039404 0
1e-08 0 0
1e-08 0 0
1e-08 0 0
1e-08 0 0
1e-08 0 0
1e-08 0 0
1e-08 0 0
1e-08 0 0
1e-08 0 0
1e-08 0 0
1e-08 0 0
1e-08 0 0
1e-08 0 0
-0.000913996 0.0064288 0
1e-08 0 0
1e-08 0 0
1e-08 0 0
1e-08 0 0
1e-08 0 0
0.00384392 -0.0038493 0
1e-08 0 0
0.00374219 -0.00478532 0
1e-08 0 0
1e-08 0 0
1e-08 0 0
1e-08 0 0
1e-08 0 0
1e-08 0 0
1e-08 0 0
1e-08 0 0
1e-08 0 0
1e-08 0 0
1e-08 0 0
1e-08 0 0
1e-08 0 0
-0.00112771 0.00426633 0
1e-08 0 0
1e-08 0 0
1e-08 0 0
1e-08 0 0
1e-08 0 0
1e-08 0 0
0.00367645 -0.00622341 0
1e-08 0 0
1e-08 0 0
1e-08 0 0
1e-08 0 0
1e-08 0 0
0.00341238 -0.00830672 0
1e-08 0 0
1e-08 0 0
1e-08 0 0
1e-08 0 0
1e-08 0 0
1e-08 0 0
1e-08 0 0
1e-08 0 0
1e-08 0 0
1e-08 0 0
-0.00344485 0.00843707 0
1e-08 0 0
1e-08 0 0
1e-08 0 0
1e-08 0 0
1e-08 0 0
1e-08 0 0
1e-08 0 0
1e-08 0 0
1e-08 0 0
1e-08 0 0
1e-08 0 0
1e-08 0 0
1e-08 0 0
1e-08 0 0
0.00134998 -0.0051637 0
1e-08 0 0
1e-08 0 0
1e-08 0 0
1e-08 0 0
1e-08 0 0
1e-08 0 0
1e-08 0 0
1e-08 0 0
1e-08 0 0
-0.00323416 0.00554444 0
1e-08 0 0
1e-08 0 0
1e-08 0 0
1e-08 0 0
1e-08 0 0
1e-08 0 0
1e-08 0 0
1e-08 0 0
1e-08 0 0
1e-08 0 0
1e-08 0 0
1e-08 0 0
1e-08 0 0
1e-08 0 0
1e-08 0 0
0.000829641 -0.0061225 0
1e-08 0 0
1e-08 0 0
1e-08 0 0
1e-08 0 0
1e-08 0 0
1e-08 0 0
1e-08 0 0
1e-08 0 0
1e-08 0 0
1e-08 0 0
-0.00416912 0.00539342 0
1e-08 0 0
1e-08 0 0
1e-08 0 0
1e-08 0 0
1e-08 0 0
1e-08 0 0
1e-08 0 0
1e-08 0 0
1e-08 0 0
1e-08 0 0
1e-08 0 0
1e-08 0 0
3.73232e-05 -0.00686494 0
1e-08 0 0
1e-08 0 0
1e-08 0 0
1e-08 0 0
1e-08 0 0
1e-08 0 0
1e-08 0 0
1e-08 0 0
1e-08 0 0
1e-08 0 0
1e-08 0 0
1e-08 0 0
-0.00381257 0.00383381 0
1e-08 0 0
1e-08 0 0
1e-08 0 0
1e-08 0 0
1e-08 0 0
1e-08 0 0
1e-08 0 0
1e-08 0 0
1e-08 0 0
1e-08 0 0
1e-08 0 0
1e-08 0 0
1e-08 0 0
-0.000918882 -0.00711013 0
1e-08 0 0
1e-08 0 0
1e-08 0 0
1e-08 0 0
1e-08 0 0
1e-08 0 0
1e-08 0 0
1e-08 0 0
-0.00508895 0.00399259 0
1e-08 0 0
1e-08 0 0
1e-08 0 0
1e-08 0 0
1e-08 0 0
1e-08 0 0
1e-08 0 0
1e-08 0 0
1e-08 0 0
1e-08 0 0
1e-08 0 0
-0.0016651 -0.00624612 0
1e-08 0 0
1e-08 0 0
1e-08 0 0
1e-08 0 0
1e-08 0 0
1e-08 0 0
1e-08 0 0
-0.0059883 0.00354377 0
1e-08 0 0
1e-08 0 0
1e-08 0 0
1e-08 0 0
1e-08 0 0
1e-08 0 0
1e-08 0 0
1e-08 0 0
1e-08 0 0
1e-08 0 0
1e-08 0 0
-0.00260734 -0.0063256 0
1e-08 0 0
1e-08 0 0
1e-08 0 0
1e-08 0 0
1e-08 0 0
-0.00785971 0.00326667 0
1e-08 0 0
1e-08 0 0
1e-08 0 0
1e-08 0 0
1e-08 0 0
1e-08 0 0
1e-08 0 0
1e-08 0 0
-0.00403771 -0.00691532 0
1e-08 0 0
1e-08 0 0
1e-08 0 0
1e-08 0 0
-0.0059618 0.00156933 0
1e-08 0 0
1e-08 0 0
1e-08 0 0
1e-08 0 0
1e-08 0 0
1e-08 0 0
-0.00388073 -0.00496386 0
1e-08 0 0
1e-08 0 0
1e-08 0 0
-0.007066 0.000903568 0
1e-08 0 0
1e-08 0 0
1e-08 0 0
1e-08 0 0
1e-08 0 0
1e-08 0 0
-0.00396794 -0.00395782 0
1e-08 0 0
1e-08 0 0
-0.00726716 -6.10027e-05 0
1e-08 0 0
1e-08 0 0
1e-08 0 0
1e-08 0 0
-0.00583247 -0.00448816 0
1e-08 0 0
-0.00540536 -0.000737826 0
1e-08 0 0
1e-08 0 0
-0.00538181 -0.00311186 0
-0.00587647 -0.00154251 0
-0.00732865 -0.00301304 0
