# vtk DataFile Version 2.0
CellBP Time: 2.24
ASCII
DATASET UNSTRUCTURED_GRID
POINTS 296 double
-9.04488 -3.71418 0
-8.4741 -4.87032 0
-9.45801 -2.49294 0
-9.70806 -1.23294 0
-8.30253 -2.79457 0
-7.75695 -5.94235 0
-6.90813 -6.91285 0
-7.86242 -3.84447 0
-7.29053 -4.83444 0
-5.94634 -7.76662 0
-4.87855 -8.48182 0
-9.80437 0.0477349 0
-9.721 1.33319 0
-8.60679 -1.66989 0
-8.73952 -0.525108 0
-7.53655 -1.98502 0
-7.17112 -2.88005 0
-6.59552 -5.74604 0
-5.79035 -6.56481 0
-6.73782 -3.85704 0
-6.17516 -4.64368 0
-3.72488 -9.05646 0
-2.50214 -9.4707 0
-4.88457 -7.2777 0
-3.90117 -7.85632 0
-8.75016 0.638326 0
-9.47666 2.60188 0
-8.58518 1.76268 0
-9.05759 3.82169 0
-7.69499 -0.91901 0
-7.74877 0.0819062 0
-6.90524 -1.30276 0
-1.23344 -9.7157 0
-6.39813 -2.13514 0
-6.27516 -3.03151 0
-5.50026 -5.44294 0
-4.76826 -6.08457 0
-5.61989 -3.7306 0
-5.23181 -4.53168 0
-2.85674 -8.3309 0
-1.77041 -8.60402 0
-3.90984 -6.69358 0
-3.04676 -7.12358 0
0.0513502 -9.80018 0
-7.66335 1.13664 0
-8.30645 2.90361 0
-7.51308 2.09806 0
-8.48191 4.97404 0
-7.84236 3.95805 0
-7.76045 6.04293 0
-6.73584 -0.391498 0
-6.91402 0.551087 0
-5.73905 -0.996649 0
-0.587501 -8.76898 0
0.560129 -8.72454 0
-5.27257 -2.46354 0
-4.4613 -5.06565 0
-3.8792 -5.74549 0
-4.4135 -3.78309 0
-2.05402 -7.52977 0
-1.13086 -7.74983 0
-2.97935 -6.07322 0
-2.30041 -6.59107 0
1.33295 -9.71198 0
-6.65239 1.41291 0
-7.13283 3.09925 0
-6.62306 2.3586 0
-7.25501 4.96044 0
-6.68078 3.97834 0
-6.91183 7.00971 0
-6.53593 5.85923 0
-5.93805 7.85296 0
-4.43598 -1.17727 0
-5.78566 0.508803 0
-4.63892 -0.01414 0
0.00469248 -7.80624 0
1.72376 -8.59181 0
0.937806 -7.71702 0
-4.02262 -2.3952 0
-3.47933 -1.38891 0
-3.2785 -4.78208 0
-3.25566 -3.25431 0
-1.37507 -6.64287 0
-0.510876 -6.98729 0
-1.96821 -5.51351 0
2.59381 -9.45092 0
-5.48003 2.02697 0
-6.06126 3.05299 0
-6.07055 4.83873 0
-5.72889 3.96469 0
-5.72835 6.67565 0
-5.42046 5.58276 0
-4.87665 8.58241 0
-4.80963 7.35756 0
-3.49323 -0.423768 0
-4.431 1.24371 0
-3.69967 0.59017 0
-4.04448 2.3138 0
-3.72467 9.15611 0
2.83862 -8.27579 0
0.409961 -6.75357 0
2.00217 -7.47456 0
1.28997 -6.85905 0
-2.44134 -0.871353 0
-2.83322 -2.12547 0
-2.28806 -4.08144 0
-2.32036 -2.96385 0
-0.444421 -5.83035 0
-1.21749 -4.48228 0
3.81698 -9.0462 0
-4.76501 3.3736 0
-5.05876 4.56381 0
-4.61906 6.23924 0
-4.51211 5.32391 0
-3.82424 7.94946 0
-3.80225 6.79836 0
-2.76686 8.37356 0
-1.64755 -0.135684 0
-1.44829 -0.888503 0
-2.48616 0.509274 0
-3.24337 1.44215 0
-3.22529 3.30375 0
-2.9013 2.36873 0
-1.35483 0.629253 0
-2.50097 9.562 0
3.9033 -7.83269 0
2.93673 -7.1025 0
0.942677 -5.7859 0
2.05346 -6.36916 0
-1.67959 -1.98857 0
-1.43013 -3.26742 0
0.0880411 -4.72468 0
-0.562688 -3.68282 0
4.89836 -7.2673 0
4.97259 -8.47902 0
-3.75715 4.52571 0
-3.71296 5.71515 0
-2.86866 7.24237 0
-2.99154 6.31332 0
-1.65246 8.68731 0
-1.92666 7.57481 0
-2.32964 4.03475 0
-0.729373 -1.32549 0
-0.836467 -0.255745 0
-1.93482 1.68241 0
-2.12071 2.87048 0
-1.30478 3.53551 0
-0.870654 1.35282 0
-0.283477 0.457664 0
-0.529993 8.82967 0
-1.23518 9.80938 0
1.10418 -4.54979 0
3.87627 -6.66101 0
2.9619 -6.0478 0
2.09982 -5.38794 0
4.75049 -6.15638 0
-0.556604 -2.47197 0
0.494176 -3.45215 0
0.0540639 -1.60906 0
1.47356 -3.66433 0
5.83201 -6.56912 0
6.0429 -7.76003 0
-2.46306 5.31912 0
-2.11613 6.49502 0
-0.896755 7.76258 0
-1.26155 6.89211 0
0.0878166 7.84354 0
-1.1408 4.47721 0
0.149657 -0.616226 0
-0.799628 2.48877 0
-0.334548 3.59393 0
0.0605876 1.51365 0
0.73902 0.473897 0
0.643605 8.83719 0
0.0483078 9.90275 0
2.36485 -4.25822 0
3.83006 -5.59575 0
2.97836 -5.17451 0
5.54117 -5.45265 0
4.6593 -5.24039 0
0.630057 -2.29099 0
1.25165 -2.94138 0
0.756755 -1.39042 0
2.15402 -3.12152 0
2.9779 -3.45684 0
6.12405 -4.76108 0
6.62212 -5.73458 0
7.01139 -6.90736 0
-1.01284 5.79098 0
-0.366817 6.84757 0
1.1186 7.73745 0
0.558211 7.04713 0
-0.00211389 4.70898 0
0.602807 3.81823 0
1.33679 -0.641755 0
0.535343 2.64784 0
0.962391 1.57483 0
1.90658 0.21311 0
1.61073 1.06434 0
2.1226 7.55407 0
1.79295 8.67835 0
1.33481 9.81507 0
3.79929 -4.32081 0
5.08652 -4.41473 0
5.81665 -3.90883 0
3.7654 -3.18259 0
1.80835 -1.88093 0
3.00692 -2.5638 0
6.75411 -3.92703 0
7.35005 -4.87255 0
7.86481 -5.94375 0
0.482944 5.85622 0
1.42407 6.71388 0
2.36691 6.64318 0
1.20493 4.54173 0
1.48316 3.38867 0
2.42995 -0.691269 0
2.82107 0.142587 0
1.7839 2.15982 0
2.60661 1.14835 0
3.0624 7.14265 0
2.89598 8.34542 0
2.60403 9.57523 0
4.88676 -3.30569 0
6.09347 -3.09005 0
4.15626 -2.2659 0
3.23409 -1.49967 0
6.70577 -2.30377 0
7.20481 -3.03101 0
7.93582 -3.89886 0
8.58514 -4.87917 0
2.01748 5.57859 0
3.07119 6.12713 0
2.35782 4.11257 0
2.41418 3.05194 0
3.51494 -0.458843 0
3.6055 0.613744 0
2.95368 2.28177 0
3.53365 1.52135 0
3.98894 5.87044 0
3.96649 6.7649 0
3.9618 7.90956 0
3.82565 9.15635 0
5.54717 -1.90768 0
4.49343 -1.12505 0
6.68653 -1.33008 0
7.5637 -2.02784 0
8.36639 -2.85181 0
9.16328 -3.72787 0
3.4001 4.85458 0
3.32427 3.37146 0
4.67416 0.131343 0
4.49872 1.30408 0
4.04493 2.43229 0
4.5395 5.12473 0
4.81652 6.16188 0
4.95899 7.35046 0
4.98276 8.58811 0
5.85739 -0.434186 0
6.97855 -0.487843 0
7.72855 -1.07887 0
8.65168 -1.73751 0
9.56188 -2.49929 0
4.52378 3.80661 0
5.78591 1.08955 0
5.33763 2.51821 0
5.341 4.59228 0
5.57621 5.49405 0
5.86547 6.64114 0
6.04635 7.8667 0
6.80944 0.456622 0
7.81689 -0.0267778 0
8.82438 -0.57914 0
9.82084 -1.23333 0
6.91899 1.33638 0
5.68047 3.75342 0
6.49846 2.17897 0
6.33503 3.06443 0
6.24742 4.65706 0
6.65166 5.80632 0
7.01054 7.01386 0
7.74304 0.959137 0
8.81756 0.569485 0
9.9016 0.0527936 0
7.56987 1.98802 0
6.77676 3.87427 0
7.21909 2.92306 0
7.33192 4.8567 0
7.86615 6.04817 0
8.67533 1.71503 0
9.81163 1.33478 0
8.36816 2.81732 0
7.93308 3.89139 0
8.57709 4.97272 0
9.56025 2.59853 0
9.14918 3.81909 0
CELLS 542 2168
3 2 0 4
3 0 1 7
3 4 0 7
3 1 5 8
3 7 1 8
3 3 2 13
3 13 2 4
3 11 3 14
3 14 3 13
3 13 4 15
3 4 7 16
3 15 4 16
3 5 6 17
3 8 5 17
3 6 9 18
3 17 6 18
3 7 8 19
3 16 7 19
3 8 17 20
3 19 8 20
3 9 10 23
3 18 9 23
3 10 21 24
3 23 10 24
3 12 11 25
3 25 11 14
3 26 12 27
3 27 12 25
3 14 13 29
3 29 13 15
3 25 14 30
3 30 14 29
3 29 15 31
3 15 16 33
3 31 15 33
3 16 19 34
3 33 16 34
3 17 18 35
3 20 17 35
3 18 23 36
3 35 18 36
3 19 20 37
3 34 19 37
3 20 35 38
3 37 20 38
3 21 22 39
3 24 21 39
3 22 32 40
3 39 22 40
3 23 24 41
3 36 23 41
3 24 39 42
3 41 24 42
3 27 25 44
3 44 25 30
3 28 26 45
3 45 26 27
3 45 27 46
3 46 27 44
3 47 28 48
3 48 28 45
3 30 29 50
3 50 29 31
3 44 30 51
3 51 30 50
3 50 31 52
3 31 33 52
3 32 43 53
3 40 32 53
3 53 43 54
3 33 34 55
3 34 37 55
3 33 55 52
3 35 36 56
3 38 35 56
3 36 41 57
3 56 36 57
3 37 38 58
3 38 56 58
3 37 58 55
3 39 40 59
3 42 39 59
3 40 53 60
3 59 40 60
3 41 42 61
3 57 41 61
3 42 59 62
3 61 42 62
3 43 63 54
3 46 44 64
3 64 44 51
3 48 45 65
3 65 45 46
3 65 46 66
3 66 46 64
3 49 47 67
3 67 47 48
3 67 48 68
3 68 48 65
3 69 49 70
3 70 49 67
3 52 55 72
3 64 51 73
3 51 50 73
3 50 52 73
3 73 52 74
3 74 52 72
3 53 54 75
3 60 53 75
3 54 63 76
3 54 76 77
3 75 54 77
3 55 58 78
3 72 55 78
3 72 78 79
3 56 57 80
3 57 61 80
3 56 80 58
3 58 80 81
3 78 58 81
3 59 60 82
3 62 59 82
3 60 75 83
3 82 60 83
3 61 62 84
3 62 82 84
3 61 84 80
3 63 85 76
3 66 64 86
3 64 73 86
3 68 65 87
3 87 65 66
3 87 66 86
3 70 67 88
3 88 67 68
3 88 68 89
3 89 68 87
3 71 69 90
3 90 69 70
3 90 70 91
3 91 70 88
3 92 71 93
3 93 71 90
3 74 72 94
3 94 72 79
3 86 73 95
3 95 73 74
3 95 74 96
3 96 74 94
3 97 86 95
3 76 85 99
3 75 77 100
3 83 75 100
3 76 99 101
3 77 76 101
3 77 101 102
3 100 77 102
3 94 79 103
3 78 81 104
3 79 78 104
3 79 104 103
3 80 84 105
3 81 80 105
3 81 105 106
3 104 81 106
3 82 83 107
3 83 100 107
3 82 107 84
3 84 107 108
3 105 84 108
3 85 109 99
3 89 87 110
3 87 86 110
3 110 86 97
3 91 88 111
3 111 88 89
3 111 89 110
3 93 90 112
3 112 90 91
3 112 91 113
3 113 91 111
3 98 92 114
3 114 92 93
3 114 93 115
3 115 93 112
3 116 98 114
3 117 103 118
3 96 94 119
3 94 103 119
3 119 103 117
3 97 95 120
3 120 95 96
3 120 96 119
3 121 110 97
3 121 97 122
3 122 97 120
3 123 119 117
3 124 98 116
3 99 109 125
3 99 125 126
3 101 99 126
3 100 102 127
3 100 127 107
3 101 126 128
3 102 101 128
3 102 128 127
3 104 106 129
3 104 129 103
3 103 129 118
3 105 108 130
3 106 105 130
3 106 130 129
3 107 127 131
3 108 107 131
3 108 131 132
3 108 132 130
3 109 134 125
3 125 134 133
3 113 111 135
3 111 110 135
3 135 110 121
3 115 112 136
3 136 112 113
3 136 113 135
3 116 114 137
3 137 114 115
3 137 115 138
3 138 115 136
3 139 124 116
3 139 116 140
3 140 116 137
3 141 135 121
3 118 129 142
3 118 142 143
3 117 118 143
3 123 117 143
3 122 120 144
3 120 119 144
3 144 119 123
3 141 121 145
3 145 121 122
3 145 122 144
3 146 141 145
3 147 144 123
3 147 123 148
3 143 148 123
3 150 124 139
3 149 150 139
3 131 127 151
3 125 133 152
3 126 125 152
3 126 152 153
3 128 126 153
3 128 153 154
3 128 154 127
3 127 154 151
3 152 133 155
3 130 132 156
3 130 156 129
3 129 156 142
3 131 151 157
3 132 131 157
3 132 157 156
3 156 158 142
3 157 151 159
3 133 160 155
3 134 161 133
3 133 161 160
3 138 136 162
3 136 135 162
3 162 135 141
3 140 137 163
3 163 137 138
3 163 138 162
3 149 139 164
3 164 139 140
3 164 140 165
3 165 140 163
3 166 149 164
3 167 162 141
3 167 141 146
3 142 158 168
3 143 142 168
3 143 168 148
3 146 145 169
3 145 144 169
3 169 144 147
3 170 167 146
3 170 146 169
3 171 169 147
3 171 147 148
3 171 148 172
3 168 172 148
3 173 149 166
3 174 150 149
3 173 174 149
3 154 175 151
3 151 175 159
3 152 155 176
3 153 152 176
3 153 176 177
3 153 177 154
3 154 177 175
3 155 160 178
3 155 178 179
3 176 155 179
3 156 157 180
3 156 180 158
3 157 159 181
3 157 181 180
3 158 180 182
3 158 182 168
3 159 175 183
3 159 183 181
3 175 184 183
3 160 186 178
3 178 186 185
3 161 187 160
3 160 187 186
3 165 163 188
3 163 162 188
3 188 162 167
3 166 164 189
3 189 164 165
3 189 165 188
3 190 173 166
3 190 166 191
3 191 166 189
3 192 188 167
3 192 167 170
3 193 192 170
3 182 194 168
3 194 172 168
3 193 170 195
3 170 169 195
3 195 169 171
3 196 195 171
3 196 171 172
3 194 197 172
3 197 198 172
3 198 196 172
3 200 173 190
3 199 200 190
3 201 174 173
3 200 201 173
3 176 179 202
3 177 176 202
3 177 202 175
3 175 202 184
3 178 185 203
3 178 203 179
3 179 203 202
3 203 185 204
3 202 205 184
3 183 206 181
3 180 181 206
3 180 206 182
3 182 206 194
3 183 184 207
3 205 207 184
3 183 207 206
3 185 208 204
3 186 209 185
3 185 209 208
3 187 210 186
3 186 210 209
3 191 189 211
3 189 188 211
3 211 188 192
3 199 190 212
3 212 190 191
3 212 191 211
3 213 199 212
3 214 211 192
3 214 192 193
3 215 214 193
3 215 193 195
3 206 216 194
3 216 197 194
3 216 217 197
3 215 195 218
3 218 195 196
3 198 218 196
3 217 219 197
3 219 218 198
3 197 219 198
3 220 199 213
3 221 200 199
3 220 221 199
3 222 201 200
3 221 222 200
3 203 204 223
3 203 223 202
3 202 223 205
3 204 208 224
3 204 224 223
3 205 223 225
3 205 225 207
3 207 225 226
3 207 226 206
3 226 216 206
3 208 228 224
3 224 228 227
3 209 229 208
3 229 228 208
3 210 230 209
3 209 230 229
3 213 212 231
3 212 211 231
3 231 211 214
3 232 220 213
3 232 213 231
3 233 231 214
3 233 214 215
3 234 233 215
3 234 215 218
3 226 235 216
3 235 217 216
3 235 236 217
3 217 236 219
3 237 234 218
3 237 218 219
3 236 238 219
3 238 237 219
3 240 220 232
3 239 240 232
3 241 221 220
3 240 241 220
3 242 222 221
3 241 242 221
3 224 227 243
3 224 243 223
3 223 243 225
3 225 243 244
3 225 244 226
3 226 244 235
3 227 245 243
3 228 246 227
3 227 246 245
3 229 247 228
3 228 247 246
3 230 248 229
3 229 248 247
3 239 232 249
3 232 231 249
3 249 231 233
3 250 249 233
3 250 233 234
3 237 250 234
3 244 251 235
3 235 251 236
3 251 252 236
3 236 252 238
3 252 253 238
3 253 250 237
3 253 237 238
3 254 239 249
3 255 240 239
3 254 255 239
3 256 241 240
3 255 256 240
3 257 242 241
3 256 257 241
3 245 258 243
3 243 258 244
3 244 258 251
3 245 259 258
3 246 260 245
3 245 260 259
3 247 261 246
3 246 261 260
3 248 262 247
3 247 262 261
3 254 249 263
3 263 249 250
3 253 263 250
3 258 264 251
3 251 264 252
3 264 265 252
3 265 263 253
3 252 265 253
3 266 254 263
3 267 255 254
3 266 267 254
3 268 256 255
3 267 268 255
3 269 257 256
3 268 269 256
3 259 270 258
3 270 264 258
3 260 271 259
3 259 271 270
3 261 272 260
3 260 272 271
3 262 273 261
3 273 272 261
3 270 274 264
3 275 266 263
3 275 263 265
3 274 276 264
3 276 265 264
3 276 277 265
3 277 275 265
3 278 267 266
3 275 278 266
3 279 268 267
3 278 279 267
3 280 269 268
3 279 280 268
3 271 281 270
3 270 281 274
3 272 282 271
3 271 282 281
3 273 283 272
3 272 283 282
3 281 284 274
3 274 284 276
3 285 278 275
3 277 285 275
3 284 286 276
3 286 285 277
3 276 286 277
3 287 279 278
3 285 287 278
3 288 280 279
3 287 288 279
3 282 289 281
3 281 289 284
3 283 290 282
3 282 290 289
3 289 291 284
3 284 291 286
3 291 292 286
3 292 287 285
3 286 292 285
3 293 288 287
3 292 293 287
3 290 294 289
3 289 294 291
3 294 295 291
3 295 293 292
3 291 295 292
CELL_TYPES 542
5
5
5
5
5
5
5
5
5
5
5
5
5
5
5
5
5
5
5
5
5
5
5
5
5
5
5
5
5
5
5
5
5
5
5
5
5
5
5
5
5
5
5
5
5
5
5
5
5
5
5
5
5
5
5
5
5
5
5
5
5
5
5
5
5
5
5
5
5
5
5
5
5
5
5
5
5
5
5
5
5
5
5
5
5
5
5
5
5
5
5
5
5
5
5
5
5
5
5
5
5
5
5
5
5
5
5
5
5
5
5
5
5
5
5
5
5
5
5
5
5
5
5
5
5
5
5
5
5
5
5
5
5
5
5
5
5
5
5
5
5
5
5
5
5
5
5
5
5
5
5
5
5
5
5
5
5
5
5
5
5
5
5
5
5
5
5
5
5
5
5
5
5
5
5
5
5
5
5
5
5
5
5
5
5
5
5
5
5
5
5
5
5
5
5
5
5
5
5
5
5
5
5
5
5
5
5
5
5
5
5
5
5
5
5
5
5
5
5
5
5
5
5
5
5
5
5
5
5
5
5
5
5
5
5
5
5
5
5
5
5
5
5
5
5
5
5
5
5
5
5
5
5
5
5
5
5
5
5
5
5
5
5
5
5
5
5
5
5
5
5
5
5
5
5
5
5
5
5
5
5
5
5
5
5
5
5
5
5
5
5
5
5
5
5
5
5
5
5
5
5
5
5
5
5
5
5
5
5
5
5
5
5
5
5
5
5
5
5
5
5
5
5
5
5
5
5
5
5
5
5
5
5
5
5
5
5
5
5
5
5
5
5
5
5
5
5
5
5
5
5
5
5
5
5
5
5
5
5
5
5
5
5
5
5
5
5
5
5
5
5
5
5
5
5
5
5
5
5
5
5
5
5
5
5
5
5
5
5
5
5
5
5
5
5
5
5
5
5
5
5
5
5
5
5
5
5
5
5
5
5
5
5
5
5
5
5
5
5
5
5
5
5
5
5
5
5
5
5
5
5
5
5
5
5
5
5
5
5
5
5
5
5
5
5
5
5
5
5
5
5
5
5
5
5
5
5
5
5
5
5
5
5
5
5
5
5
5
5
5
5
5
5
5
5
5
5
5
5
5
5
5
5
5
5
5
5
5
5
5
5
5
5
5
5
5
5
5
5
5
5
5
5
5
5
5
5
5
5
5
5
5
5
5
5
5
5
5
5
5
5
5
5
5
5
5
5
5
5
5
5
5
5
5
5
5
5
5
5
5
5
5
POINT_DATA 296
SCALARS concentrations float 4
LOOKUP_TABLE default
0 0.970208 0.171814 394.773
0 0.969688 0.166823 209.172
0 0.970205 0.17048 274.505
0 0.97003 0.168452 421.048
0 0.970245 0.0915476 5.62322
0 0.969603 0.169294 405.428
0 0.969761 0.172114 320.777
0 0.970031 0.0914585 6.82629
0 0.969759 0.0914985 4.28495
0 0.969955 0.171101 212.808
0 0.969978 0.169168 376.49
0 0.969617 0.16716 141.703
0 0.969353 0.166021 401.172
0 0.97015 0.0913519 3.81599
0 0.969938 0.0915916 4.50957
0 0.970214 0.0911557 3.22775
0 0.970189 0.0911826 2.49931
0 0.969824 0.0915197 3.08112
0 0.969953 0.0914711 1.9302
0 0.970091 0.0911629 1.76256
0 0.970042 0.091145 1.98337
0 0.969905 0.170508 298.69
0 0.970181 0.175134 338.033
0 0.970052 0.0914988 2.3379
0 0.969985 0.0915645 4.151
0 0.969614 0.0916408 2.47386
0 0.969687 0.170112 366.129
0 0.969646 0.0915315 1.68777
0 0.969672 0.169885 346.483
0 0.970142 0.0912083 2.91985
0 0.970003 0.0912308 1.92324
0 0.970222 0.0911213 2.49676
0 0.970013 0.171841 371.467
0 0.970237 0.0910965 1.91026
0 0.970213 0.0911184 1.1091
0 0.970081 0.0911948 1.78963
0 0.970128 0.091228 1.60877
0 0.970204 0.0910983 0.404707
0 0.970189 0.0911264 1.10142
0 0.970062 0.0915602 6.25071
0 0.970129 0.0915354 6.11757
0 0.970133 0.091204 1.39079
0 0.970115 0.0911934 1.59178
0 0.96956 0.168084 325.676
0 0.969909 0.0911933 0.843105
0 0.969797 0.091419 3.02299
0 0.969911 0.0911247 0.803447
0 0.969617 0.169045 327.681
0 0.969712 0.0913883 3.72897
0 0.969911 0.169385 358.91
0 0.97018 0.0911236 2.10562
0 0.97011 0.0911161 1.60498
0 0.970246 0.0910523 1.51045
0 0.969833 0.0914335 4.48397
0 0.969595 0.091249 1.02914
0 0.970259 0.0910636 0.739783
0 0.970216 0.0911392 0.918071
0 0.970211 0.0911603 0.848634
0 0.970259 0.0910733 0.303063
0 0.970113 0.0912176 2.39653
0 0.970025 0.0912003 2.72747
0 0.970207 0.0911339 0.775977
0 0.970173 0.0911403 1.32197
0 0.969475 0.168598 305.307
0 0.970101 0.0910682 1.33525
0 0.969918 0.0911188 0.892559
0 0.970066 0.0910698 0.986815
0 0.969827 0.0914153 3.39566
0 0.96994 0.0911377 0.701007
0 0.970086 0.169754 232.141
0 0.970028 0.091363 0.889035
0 0.970141 0.168867 390.831
0 0.97028 0.0910563 1.10656
0 0.97021 0.0910671 1.52827
0 0.970267 0.0910653 1.42897
0 0.969896 0.0911905 1.80459
0 0.969674 0.0914463 0.899916
0 0.969842 0.0911715 0.519827
0 0.970288 0.0910642 0.759084
0 0.970312 0.0910763 1.0423
0 0.970255 0.0910917 0.634624
0 0.970288 0.091076 0.748861
0 0.970143 0.0911262 1.6199
0 0.970064 0.0911423 1.61188
0 0.970223 0.091096 1.16876
0 0.969709 0.167064 408.013
0 0.970182 0.0910643 1.2276
0 0.970089 0.091074 0.749151
0 0.97002 0.0911886 0.164557
0 0.970088 0.0911123 0.5507
0 0.970122 0.0915456 0.90945
0 0.970093 0.0912246 0.894807
0 0.969962 0.164573 306.006
0 0.970057 0.0915065 3.93623
0 0.970309 0.0910473 1.18152
0 0.970248 0.0910551 1.37586
0 0.970296 0.091041 1.3237
0 0.970231 0.0910648 1.23322
0 0.970005 0.170907 304.891
0 0.969938 0.0913673 1.44396
0 0.97004 0.0911345 1.09484
0 0.969935 0.0911334 0.399868
0 0.970023 0.0911206 0.48214
0 0.970335 0.0910283 0.851394
0 0.970318 0.0910678 0.879257
0 0.970274 0.0910834 0.972301
0 0.97031 0.0910748 0.9421
0 0.970172 0.0911021 1.21852
0 0.970244 0.0910907 1.15552
0 0.970081 0.16961 284.404
0 0.970176 0.0910621 1.01253
0 0.970131 0.0911368 0.99847
0 0.970097 0.0912094 1.41896
0 0.970131 0.0911595 1.17959
0 0.969985 0.0914065 3.46264
0 0.970059 0.0911096 0.785455
0 0.970013 0.0914018 4.19885
0 0.97035 0.0910095 0.855509
0 0.970352 0.0910179 0.771343
0 0.970324 0.0910117 0.986749
0 0.970288 0.0910318 1.22544
0 0.970216 0.091046 0.987624
0 0.970267 0.0910519 1.18414
0 0.970345 0.0909998 0.755677
0 0.969939 0.171141 309.982
0 0.970198 0.091226 1.24846
0 0.970103 0.0910797 0.391677
0 0.970153 0.0910978 0.796551
0 0.970106 0.0910931 0.419357
0 0.970332 0.0910417 0.773202
0 0.9703 0.0910717 1.00565
0 0.970225 0.0910915 1.0781
0 0.970277 0.0910854 1.10172
0 0.970378 0.091407 0.973513
0 0.970312 0.167848 385.223
0 0.970171 0.0910664 0.95069
0 0.970123 0.0911085 0.895585
0 0.970032 0.0911615 1.25037
0 0.970091 0.091092 0.165044
0 0.969817 0.0915912 4.20172
0 0.969973 0.0912566 2.59218
0 0.970202 0.0910516 0.738543
0 0.970351 0.0910255 0.743955
0 0.970361 0.0909963 0.626395
0 0.970308 0.0910164 0.869191
0 0.970262 0.091044 0.870012
0 0.970244 0.091049 0.55298
0 0.970334 0.0910035 0.547234
0 0.970356 0.0909853 0.34842
0 0.969703 0.091539 4.6049
0 0.969609 0.168258 317.355
0 0.97023 0.0910869 0.914263
0 0.970269 0.0910878 0.577876
0 0.970207 0.0910816 0.560417
0 0.970205 0.0910833 0.693989
0 0.970357 0.0911658 0.796891
0 0.970318 0.0910576 0.927749
0 0.970279 0.0910898 1.07706
0 0.970345 0.0910446 0.873461
0 0.970272 0.0911038 1.09637
0 0.970334 0.0914543 2.58802
0 0.970419 0.168237 199.922
0 0.970146 0.0910545 0.489679
0 0.970073 0.0911079 0.926211
0 0.96989 0.0912791 3.1011
0 0.970021 0.0911782 1.90361
0 0.969881 0.0912487 3.42082
0 0.970182 0.0910421 0.350652
0 0.97036 0.0910011 0.545794
0 0.970296 0.091025 0.539388
0 0.970247 0.0910449 0.547809
0 0.970333 0.091013 0.33803
0 0.970354 0.0910051 0.428993
0 0.969854 0.091344 5.6229
0 0.969721 0.169063 390.961
0 0.970268 0.0910893 0.899247
0 0.970302 0.0910925 0.9596
0 0.970266 0.0910849 0.882321
0 0.970339 0.0912882 1.19438
0 0.970341 0.0911632 1.36276
0 0.970321 0.0910738 1.01827
0 0.970304 0.0910886 1.07871
0 0.970347 0.091049 0.934172
0 0.9703 0.0911002 1.2875
0 0.970299 0.0911184 1.5162
0 0.970241 0.0913523 1.53256
0 0.970189 0.0914859 0.476696
0 0.970176 0.166452 271.479
0 0.970114 0.0910678 0.645618
0 0.970016 0.0911573 1.85047
0 0.969933 0.0911814 2.90599
0 0.970003 0.0911382 1.9781
0 0.970174 0.0910555 0.679556
0 0.970242 0.0910558 0.621601
0 0.970352 0.0910401 0.828561
0 0.970296 0.0910303 0.108464
0 0.970332 0.0910301 0.200854
0 0.970348 0.0910437 0.746167
0 0.970341 0.0910344 0.453193
0 0.96996 0.0911958 1.59039
0 0.969936 0.0913632 4.2542
0 0.969918 0.169553 415.535
0 0.970306 0.0911164 1.42374
0 0.97032 0.0912229 1.6374
0 0.970267 0.0912537 1.45026
0 0.970307 0.0911226 1.66038
0 0.970328 0.0910717 1.28762
0 0.970314 0.0911057 1.71391
0 0.970125 0.0913135 1.36362
0 0.970014 0.091718 3.91046
0 0.970054 0.168296 244.489
0 0.970108 0.0910705 0.937898
0 0.970046 0.0911099 1.31166
0 0.97005 0.0911321 1.01601
0 0.970187 0.0910668 0.953449
0 0.970263 0.0910567 0.618328
0 0.97034 0.0910655 1.22024
0 0.970339 0.091062 1.19917
0 0.97031 0.0910465 0.377882
0 0.970328 0.0910625 0.733552
0 0.969956 0.0911582 0.488324
0 0.969872 0.0913955 1.55079
0 0.96991 0.168779 251.87
0 0.970296 0.0911487 1.68596
0 0.970228 0.0911681 1.18918
0 0.970306 0.0911169 2.02908
0 0.970325 0.091086 1.74515
0 0.970191 0.0911339 1.65527
0 0.970058 0.0912185 0.820118
0 0.969818 0.0915747 3.35898
0 0.969731 0.166587 382.449
0 0.970142 0.0910858 1.18772
0 0.970096 0.0911173 1.08313
0 0.970215 0.0910792 1.15479
0 0.970273 0.0910761 0.981131
0 0.970328 0.0910705 1.59369
0 0.970324 0.0910649 1.45714
0 0.970298 0.0910721 0.9041
0 0.970311 0.0910755 1.05946
0 0.970125 0.0911361 1.79212
0 0.969981 0.0911857 1.89453
0 0.969797 0.0912859 1.64206
0 0.969748 0.16621 332.398
0 0.970273 0.0911133 2.07087
0 0.970307 0.0910873 1.96533
0 0.970203 0.091114 2.11777
0 0.970048 0.0911599 2.42388
0 0.96986 0.0914407 5.46909
0 0.969678 0.169272 279.147
0 0.970194 0.0910804 1.08833
0 0.970253 0.0910694 0.965852
0 0.970311 0.0910595 1.61913
0 0.970307 0.091065 1.01932
0 0.970288 0.0910937 0.736592
0 0.970191 0.0911182 1.62957
0 0.970067 0.0912026 2.71318
0 0.969844 0.0914213 3.67756
0 0.9697 0.166996 232.492
0 0.97028 0.0910833 1.76676
0 0.970202 0.0911243 1.97937
0 0.970047 0.0911562 2.57921
0 0.969843 0.0914047 5.08073
0 0.969773 0.169408 412.362
0 0.970255 0.0910795 0.94677
0 0.9703 0.091078 1.10515
0 0.970293 0.0910935 0.689032
0 0.970227 0.0911029 1.38255
0 0.970148 0.0911745 1.77277
0 0.970043 0.0915444 4.56277
0 0.969847 0.167328 428.219
0 0.970252 0.0911198 1.56085
0 0.970096 0.0911702 1.83956
0 0.96981 0.0913042 1.07832
0 0.969661 0.167132 300.476
0 0.970278 0.0911195 1.40699
0 0.970257 0.0910663 0.872229
0 0.970286 0.0910777 1.02314
0 0.970267 0.0910707 0.678244
0 0.970169 0.0911219 0.793191
0 0.970077 0.0912254 1.01201
0 0.970088 0.169079 261.372
0 0.970176 0.0911817 1.44505
0 0.969933 0.0912715 2.33003
0 0.96971 0.167727 295.072
0 0.970205 0.0911881 0.748607
0 0.970158 0.09112 1.35608
0 0.970173 0.0911592 0.636592
0 0.969971 0.091378 2.61883
0 0.969916 0.164965 320.53
0 0.970073 0.0913778 0.86157
0 0.969909 0.168861 337.467
0 0.96999 0.0914717 2.04868
0 0.969912 0.0915004 2.36721
0 0.969813 0.166486 333.448
0 0.969979 0.169292 251.602
0 0.96975 0.163756 293.035
VECTORS fa_u float
0.00625691 0.0025895 -0
0.00574104 0.00331845 -0
0.0063499 0.0016972 -0
0.00561612 0.000765619 -0
1e-08 0 0
0.00510374 0.00391295 -0
0.00437579 0.00434301 -0
1e-08 0 0
1e-08 0 0
0.00436982 0.00565269 -0
0.0031876 0.00548992 -0
0.00756878 3.81641e-05 -0
0.00603532 -0.00077437 0
1e-08 0 0
1e-08 0 0
1e-08 0 0
1e-08 0 0
1e-08 0 0
1e-08 0 0
1e-08 0 0
1e-08 0 0
0.0027226 0.00654277 -0
0.00182156 0.00688412 -0
1e-08 0 0
1e-08 0 0
1e-08 0 0
0.00737294 -0.00196555 0
1e-08 0 0
0.00624688 -0.00261956 0
1e-08 0 0
1e-08 0 0
1e-08 0 0
0.000773804 0.00599708 -0
1e-08 0 0
1e-08 0 0
1e-08 0 0
1e-08 0 0
1e-08 0 0
1e-08 0 0
1e-08 0 0
1e-08 0 0
1e-08 0 0
1e-08 0 0
-1.01363e-05 0.0069934 -0
1e-08 0 0
1e-08 0 0
1e-08 0 0
0.00567835 -0.003316 0
1e-08 0 0
0.00491626 -0.00379186 0
1e-08 0 0
1e-08 0 0
1e-08 0 0
1e-08 0 0
1e-08 0 0
1e-08 0 0
1e-08 0 0
1e-08 0 0
1e-08 0 0
1e-08 0 0
1e-08 0 0
1e-08 0 0
1e-08 0 0
-0.000967056 0.00703965 0
1e-08 0 0
1e-08 0 0
1e-08 0 0
1e-08 0 0
1e-08 0 0
0.00509543 -0.00513026 0
1e-08 0 0
0.00294678 -0.00381331 0
1e-08 0 0
1e-08 0 0
1e-08 0 0
1e-08 0 0
1e-08 0 0
1e-08 0 0
1e-08 0 0
1e-08 0 0
1e-08 0 0
1e-08 0 0
1e-08 0 0
1e-08 0 0
1e-08 0 0
-0.00133392 0.00497687 0
1e-08 0 0
1e-08 0 0
1e-08 0 0
1e-08 0 0
1e-08 0 0
1e-08 0 0
0.00385 -0.00653916 0
1e-08 0 0
1e-08 0 0
1e-08 0 0
1e-08 0 0
1e-08 0 0
0.00296212 -0.00718365 0
1e-08 0 0
1e-08 0 0
1e-08 0 0
1e-08 0 0
1e-08 0 0
1e-08 0 0
1e-08 0 0
1e-08 0 0
1e-08 0 0
1e-08 0 0
-0.00273468 0.0066933 0
1e-08 0 0
1e-08 0 0
1e-08 0 0
1e-08 0 0
1e-08 0 0
1e-08 0 0
1e-08 0 0
1e-08 0 0
1e-08 0 0
1e-08 0 0
1e-08 0 0
1e-08 0 0
1e-08 0 0
1e-08 0 0
0.00158878 -0.00605452 0
1e-08 0 0
1e-08 0 0
1e-08 0 0
1e-08 0 0
1e-08 0 0
1e-08 0 0
1e-08 0 0
1e-08 0 0
1e-08 0 0
-0.00353851 0.00612392 0
1e-08 0 0
1e-08 0 0
1e-08 0 0
1e-08 0 0
1e-08 0 0
1e-08 0 0
1e-08 0 0
1e-08 0 0
1e-08 0 0
1e-08 0 0
1e-08 0 0
1e-08 0 0
1e-08 0 0
1e-08 0 0
1e-08 0 0
0.000742905 -0.00555791 0
1e-08 0 0
1e-08 0 0
1e-08 0 0
1e-08 0 0
1e-08 0 0
1e-08 0 0
1e-08 0 0
1e-08 0 0
1e-08 0 0
1e-08 0 0
-0.00400762 0.0051988 0
1e-08 0 0
1e-08 0 0
1e-08 0 0
1e-08 0 0
1e-08 0 0
1e-08 0 0
1e-08 0 0
1e-08 0 0
1e-08 0 0
1e-08 0 0
1e-08 0 0
1e-08 0 0
1.69308e-05 -0.0076492 0
1e-08 0 0
1e-08 0 0
1e-08 0 0
1e-08 0 0
1e-08 0 0
1e-08 0 0
1e-08 0 0
1e-08 0 0
1e-08 0 0
1e-08 0 0
1e-08 0 0
1e-08 0 0
-0.00420393 0.00421697 0
1e-08 0 0
1e-08 0 0
1e-08 0 0
1e-08 0 0
1e-08 0 0
1e-08 0 0
1e-08 0 0
1e-08 0 0
1e-08 0 0
1e-08 0 0
1e-08 0 0
1e-08 0 0
1e-08 0 0
-0.000692022 -0.00539991 0
1e-08 0 0
1e-08 0 0
1e-08 0 0
1e-08 0 0
1e-08 0 0
1e-08 0 0
1e-08 0 0
1e-08 0 0
-0.00516811 0.00401014 0
1e-08 0 0
1e-08 0 0
1e-08 0 0
1e-08 0 0
1e-08 0 0
1e-08 0 0
1e-08 0 0
1e-08 0 0
1e-08 0 0
1e-08 0 0
1e-08 0 0
-0.00203101 -0.00767992 0
1e-08 0 0
1e-08 0 0
1e-08 0 0
1e-08 0 0
1e-08 0 0
1e-08 0 0
1e-08 0 0
-0.00560254 0.00328299 0
1e-08 0 0
1e-08 0 0
1e-08 0 0
1e-08 0 0
1e-08 0 0
1e-08 0 0
1e-08 0 0
1e-08 0 0
1e-08 0 0
1e-08 0 0
1e-08 0 0
-0.00235642 -0.00567845 0
1e-08 0 0
1e-08 0 0
1e-08 0 0
1e-08 0 0
1e-08 0 0
-0.00820595 0.00336787 0
1e-08 0 0
1e-08 0 0
1e-08 0 0
1e-08 0 0
1e-08 0 0
1e-08 0 0
1e-08 0 0
1e-08 0 0
-0.00378153 -0.00651157 0
1e-08 0 0
1e-08 0 0
1e-08 0 0
1e-08 0 0
-0.00467944 0.0012335 0
1e-08 0 0
1e-08 0 0
1e-08 0 0
1e-08 0 0
1e-08 0 0
1e-08 0 0
-0.00390408 -0.00502882 0
1e-08 0 0
1e-08 0 0
1e-08 0 0
-0.0073968 0.000984606 0
1e-08 0 0
1e-08 0 0
1e-08 0 0
1e-08 0 0
1e-08 0 0
1e-08 0 0
-0.00404091 -0.00404374 0
1e-08 0 0
1e-08 0 0
-0.00682472 -2.44744e-05 0
1e-08 0 0
1e-08 0 0
1e-08 0 0
1e-08 0 0
-0.00608283 -0.00466846 0
1e-08 0 0
-0.00612111 -0.000820756 0
1e-08 0 0
1e-08 0 0
-0.00513276 -0.00295435 0
-0.00617186 -0.00164574 0
-0.00656256 -0.0027176 0
