# vtk DataFile Version 2.0
CellBP Time: 6.56
ASCII
DATASET UNSTRUCTURED_GRID
POINTS 296 double
-8.92556 -3.66195 0
-8.3627 -4.80466 0
-9.3305 -2.45394 0
-9.59126 -1.21507 0
-8.259 -2.77498 0
-7.65786 -5.86774 0
-6.81076 -6.81926 0
-7.81916 -3.82004 0
-7.24931 -4.80755 0
-5.86643 -7.66577 0
-4.82031 -8.37847 0
-9.67267 0.0466153 0
-9.60455 1.31636 0
-8.56666 -1.6582 0
-8.7022 -0.521778 0
-7.49424 -1.96954 0
-7.12781 -2.85871 0
-6.56189 -5.71943 0
-5.76449 -6.53897 0
-6.69638 -3.83118 0
-6.13913 -4.61741 0
-3.68193 -8.94812 0
-2.47083 -9.35399 0
-4.86701 -7.25231 0
-3.89115 -7.83169 0
-8.71544 0.634186 0
-9.36679 2.57265 0
-8.55365 1.75349 0
-8.95131 3.77677 0
-7.65544 -0.911006 0
-7.71167 0.0831141 0
-6.86732 -1.29222 0
-1.21525 -9.59464 0
-6.36367 -2.12065 0
-6.24028 -3.01164 0
-5.4713 -5.41716 0
-4.74604 -6.05928 0
-5.58893 -3.70908 0
-5.20195 -4.50716 0
-2.84886 -8.30424 0
-1.76402 -8.57472 0
-3.89501 -6.66888 0
-3.03852 -7.09945 0
0.0522975 -9.67991 0
-7.62859 1.13099 0
-8.27934 2.89394 0
-7.4806 2.08675 0
-8.37564 4.91106 0
-7.81134 3.94182 0
-7.65705 5.96339 0
-6.70112 -0.387276 0
-6.87914 0.549783 0
-5.71307 -0.991255 0
-0.584906 -8.73576 0
0.555278 -8.68653 0
-5.24856 -2.45008 0
-4.43685 -5.04083 0
-3.86048 -5.72079 0
-4.39336 -3.76533 0
-2.04711 -7.50323 0
-1.12715 -7.72019 0
-2.96701 -6.04911 0
-2.29323 -6.56694 0
1.31298 -9.57614 0
-6.62153 1.40542 0
-7.10003 3.08404 0
-6.59262 2.34684 0
-7.22261 4.93806 0
-6.64994 3.95855 0
-6.82021 6.91683 0
-6.50648 5.83184 0
-5.86265 7.75439 0
-4.42224 -1.17423 0
-5.76179 0.504738 0
-4.62468 -0.0171908 0
0.00147737 -7.77175 0
1.71194 -8.54918 0
0.928695 -7.67883 0
-4.01012 -2.38611 0
-3.47441 -1.38707 0
-3.26563 -4.76271 0
-3.2475 -3.24311 0
-1.37215 -6.61561 0
-0.512633 -6.95604 0
-1.96211 -5.49362 0
2.5584 -9.32423 0
-5.45719 2.01887 0
-6.03326 3.03745 0
-6.04222 4.81411 0
-5.70159 3.94319 0
-5.70238 6.643 0
-5.39476 5.55363 0
-4.81375 8.47308 0
-4.78712 7.31986 0
-3.48655 -0.423336 0
-4.4158 1.23938 0
-3.68997 0.58863 0
-4.02971 2.30892 0
-3.68112 9.04607 0
2.81922 -8.22962 0
0.401998 -6.71881 0
1.986 -7.43253 0
1.27678 -6.82062 0
-2.43881 -0.869312 0
-2.82915 -2.12074 0
-2.28285 -4.06799 0
-2.31612 -2.95562 0
-0.446065 -5.80457 0
-1.21321 -4.46792 0
3.76766 -8.92912 0
-4.74447 3.359 0
-5.03469 4.53951 0
-4.59642 6.20551 0
-4.49024 5.29526 0
-3.80818 7.91438 0
-3.78253 6.76054 0
-2.7534 8.33486 0
-1.6465 -0.13379 0
-1.44688 -0.88667 0
-2.48388 0.510924 0
-3.23491 1.44054 0
-3.21404 3.29355 0
-2.89326 2.36629 0
-1.35477 0.631097 0
-2.47185 9.44544 0
3.87912 -7.78878 0
2.91388 -7.05735 0
0.933299 -5.75597 0
2.0363 -6.33098 0
-1.67702 -1.98555 0
-1.4267 -3.25857 0
0.0862111 -4.70596 0
-0.559915 -3.67282 0
4.87 -7.22537 0
4.90822 -8.37011 0
-3.74101 4.50506 0
-3.69532 5.6856 0
-2.85312 7.20446 0
-2.97701 6.28107 0
-1.64449 8.65099 0
-1.91596 7.53932 0
-2.32272 4.02136 0
-0.728481 -1.32384 0
-0.836315 -0.254041 0
-1.93377 1.68376 0
-2.11665 2.86626 0
-1.30352 3.52814 0
-0.871775 1.35458 0
-0.284563 0.459182 0
-0.527685 8.79618 0
-1.22017 9.69146 0
1.09702 -4.52919 0
3.84815 -6.61507 0
2.94037 -6.0093 0
2.08489 -5.35748 0
4.72216 -6.11627 0
-0.554945 -2.46768 0
0.493271 -3.44216 0
0.0542519 -1.60761 0
1.46654 -3.64947 0
5.80264 -6.53151 0
5.95784 -7.64957 0
-2.45307 5.29575 0
-2.10479 6.46334 0
-0.89116 7.72983 0
-1.25315 6.85981 0
0.0887472 7.81363 0
-1.13809 4.46307 0
0.148907 -0.614791 0
-0.801559 2.48897 0
-0.337097 3.58819 0
0.0583565 1.51449 0
0.736833 0.47445 0
0.640895 8.80717 0
0.0470561 9.77931 0
2.35137 -4.23599 0
3.80581 -5.55911 0
2.95914 -5.14315 0
5.51383 -5.42039 0
4.63274 -5.20536 0
0.630141 -2.28865 0
1.24772 -2.933 0
0.755907 -1.38923 0
2.14529 -3.10956 0
2.96454 -3.44044 0
6.09776 -4.7357 0
6.59424 -5.70595 0
6.91745 -6.80967 0
-1.00766 5.76713 0
-0.362528 6.8181 0
1.11487 7.71079 0
0.557947 7.02008 0
-0.00348786 4.69549 0
0.59914 3.81009 0
1.33479 -0.641387 0
0.532071 2.64513 0
0.959163 1.57478 0
1.90335 0.212645 0
1.60717 1.06385 0
2.11656 7.5292 0
1.78715 8.65032 0
1.31877 9.70043 0
3.77955 -4.29543 0
5.06116 -4.38641 0
5.79193 -3.88694 0
3.74969 -3.16719 0
1.80483 -1.87915 0
2.99651 -2.55518 0
6.72912 -3.90957 0
7.32319 -4.8526 0
7.76368 -5.86327 0
0.482201 5.83507 0
1.42022 6.69008 0
2.36032 6.62088 0
1.20047 4.52941 0
1.47874 3.38105 0
2.42481 -0.690387 0
2.81494 0.142733 0
1.77953 2.15726 0
2.60193 1.14689 0
3.05409 7.11909 0
2.88876 8.31873 0
2.57321 9.45615 0
4.86596 -3.28718 0
6.07013 -3.07432 0
4.14207 -2.25781 0
3.22515 -1.49662 0
6.68361 -2.2956 0
7.18127 -3.02091 0
7.91067 -3.88703 0
8.48137 -4.81994 0
2.01198 5.56031 0
3.05822 6.10436 0
2.35238 4.1003 0
2.40893 3.04431 0
3.50562 -0.456935 0
3.59661 0.614208 0
2.94659 2.27642 0
3.52342 1.5181 0
3.96946 5.84675 0
3.9513 6.74056 0
3.95205 7.88438 0
3.78185 9.04454 0
5.52843 -1.90019 0
4.47978 -1.12093 0
6.66282 -1.32462 0
7.53891 -2.0203 0
8.34026 -2.84321 0
9.05219 -3.68439 0
3.38409 4.83537 0
3.31179 3.35965 0
4.65943 0.132579 0
4.48143 1.29929 0
4.02783 2.42267 0
4.5134 5.10089 0
4.79358 6.13701 0
4.94084 7.32478 0
4.92581 8.48641 0
5.83488 -0.433219 0
6.95061 -0.487141 0
7.70185 -1.07328 0
8.62372 -1.73044 0
9.451 -2.47041 0
4.49973 3.78878 0
5.75882 1.08223 0
5.30938 2.50421 0
5.30798 4.56792 0
5.54574 5.4687 0
5.83864 6.6148 0
5.97313 7.77441 0
6.77778 0.451177 0
7.78543 -0.0275527 0
8.79361 -0.575045 0
9.70621 -1.21658 0
6.88335 1.32561 0
5.64602 3.73197 0
6.46174 2.16344 0
6.2966 3.04439 0
6.20906 4.63136 0
6.6164 5.77952 0
6.91921 6.92573 0
7.70749 0.952174 0
8.78161 0.566819 0
9.77598 0.0539955 0
7.53026 1.97424 0
6.73215 3.84858 0
7.17606 2.90275 0
7.29187 4.83184 0
7.76757 5.97309 0
8.63505 1.70506 0
9.68175 1.31629 0
8.32378 2.79949 0
7.89128 3.86962 0
8.4665 4.90878 0
9.43146 2.563 0
9.03255 3.77052 0
CELLS 542 2168
3 2 0 4
3 0 1 7
3 4 0 7
3 1 5 8
3 7 1 8
3 3 2 13
3 13 2 4
3 11 3 14
3 14 3 13
3 13 4 15
3 4 7 16
3 15 4 16
3 5 6 17
3 8 5 17
3 6 9 18
3 17 6 18
3 7 8 19
3 16 7 19
3 8 17 20
3 19 8 20
3 9 10 23
3 18 9 23
3 10 21 24
3 23 10 24
3 12 11 25
3 25 11 14
3 26 12 27
3 27 12 25
3 14 13 29
3 29 13 15
3 25 14 30
3 30 14 29
3 29 15 31
3 15 16 33
3 31 15 33
3 16 19 34
3 33 16 34
3 17 18 35
3 20 17 35
3 18 23 36
3 35 18 36
3 19 20 37
3 34 19 37
3 20 35 38
3 37 20 38
3 21 22 39
3 24 21 39
3 22 32 40
3 39 22 40
3 23 24 41
3 36 23 41
3 24 39 42
3 41 24 42
3 27 25 44
3 44 25 30
3 28 26 45
3 45 26 27
3 45 27 46
3 46 27 44
3 47 28 48
3 48 28 45
3 30 29 50
3 50 29 31
3 44 30 51
3 51 30 50
3 50 31 52
3 31 33 52
3 32 43 53
3 40 32 53
3 53 43 54
3 33 34 55
3 34 37 55
3 33 55 52
3 35 36 56
3 38 35 56
3 36 41 57
3 56 36 57
3 37 38 58
3 38 56 58
3 37 58 55
3 39 40 59
3 42 39 59
3 40 53 60
3 59 40 60
3 41 42 61
3 57 41 61
3 42 59 62
3 61 42 62
3 43 63 54
3 46 44 64
3 64 44 51
3 48 45 65
3 65 45 46
3 65 46 66
3 66 46 64
3 49 47 67
3 67 47 48
3 67 48 68
3 68 48 65
3 69 49 70
3 70 49 67
3 52 55 72
3 64 51 73
3 51 50 73
3 50 52 73
3 73 52 74
3 74 52 72
3 53 54 75
3 60 53 75
3 54 63 76
3 54 76 77
3 75 54 77
3 55 58 78
3 72 55 78
3 72 78 79
3 56 57 80
3 57 61 80
3 56 80 58
3 58 80 81
3 78 58 81
3 59 60 82
3 62 59 82
3 60 75 83
3 82 60 83
3 61 62 84
3 62 82 84
3 61 84 80
3 63 85 76
3 66 64 86
3 64 73 86
3 68 65 87
3 87 65 66
3 87 66 86
3 70 67 88
3 88 67 68
3 88 68 89
3 89 68 87
3 71 69 90
3 90 69 70
3 90 70 91
3 91 70 88
3 92 71 93
3 93 71 90
3 74 72 94
3 94 72 79
3 86 73 95
3 95 73 74
3 95 74 96
3 96 74 94
3 97 86 95
3 76 85 99
3 75 77 100
3 83 75 100
3 76 99 101
3 77 76 101
3 77 101 102
3 100 77 102
3 94 79 103
3 78 81 104
3 79 78 104
3 79 104 103
3 80 84 105
3 81 80 105
3 81 105 106
3 104 81 106
3 82 83 107
3 83 100 107
3 82 107 84
3 84 107 108
3 105 84 108
3 85 109 99
3 89 87 110
3 87 86 110
3 110 86 97
3 91 88 111
3 111 88 89
3 111 89 110
3 93 90 112
3 112 90 91
3 112 91 113
3 113 91 111
3 98 92 114
3 114 92 93
3 114 93 115
3 115 93 112
3 116 98 114
3 117 103 118
3 96 94 119
3 94 103 119
3 119 103 117
3 97 95 120
3 120 95 96
3 120 96 119
3 121 110 97
3 121 97 122
3 122 97 120
3 123 119 117
3 124 98 116
3 99 109 125
3 99 125 126
3 101 99 126
3 100 102 127
3 100 127 107
3 101 126 128
3 102 101 128
3 102 128 127
3 104 106 129
3 104 129 103
3 103 129 118
3 105 108 130
3 106 105 130
3 106 130 129
3 107 127 131
3 108 107 131
3 108 131 132
3 108 132 130
3 109 134 125
3 125 134 133
3 113 111 135
3 111 110 135
3 135 110 121
3 115 112 136
3 136 112 113
3 136 113 135
3 116 114 137
3 137 114 115
3 137 115 138
3 138 115 136
3 139 124 116
3 139 116 140
3 140 116 137
3 141 135 121
3 118 129 142
3 118 142 143
3 117 118 143
3 123 117 143
3 122 120 144
3 120 119 144
3 144 119 123
3 141 121 145
3 145 121 122
3 145 122 144
3 146 141 145
3 147 144 123
3 147 123 148
3 143 148 123
3 150 124 139
3 149 150 139
3 131 127 151
3 125 133 152
3 126 125 152
3 126 152 153
3 128 126 153
3 128 153 154
3 128 154 127
3 127 154 151
3 152 133 155
3 130 132 156
3 130 156 129
3 129 156 142
3 131 151 157
3 132 131 157
3 132 157 156
3 156 158 142
3 157 151 159
3 133 160 155
3 134 161 133
3 133 161 160
3 138 136 162
3 136 135 162
3 162 135 141
3 140 137 163
3 163 137 138
3 163 138 162
3 149 139 164
3 164 139 140
3 164 140 165
3 165 140 163
3 166 149 164
3 167 162 141
3 167 141 146
3 142 158 168
3 143 142 168
3 143 168 148
3 146 145 169
3 145 144 169
3 169 144 147
3 170 167 146
3 170 146 169
3 171 169 147
3 171 147 148
3 171 148 172
3 168 172 148
3 173 149 166
3 174 150 149
3 173 174 149
3 154 175 151
3 151 175 159
3 152 155 176
3 153 152 176
3 153 176 177
3 153 177 154
3 154 177 175
3 155 160 178
3 155 178 179
3 176 155 179
3 156 157 180
3 156 180 158
3 157 159 181
3 157 181 180
3 158 180 182
3 158 182 168
3 159 175 183
3 159 183 181
3 175 184 183
3 160 186 178
3 178 186 185
3 161 187 160
3 160 187 186
3 165 163 188
3 163 162 188
3 188 162 167
3 166 164 189
3 189 164 165
3 189 165 188
3 190 173 166
3 190 166 191
3 191 166 189
3 192 188 167
3 192 167 170
3 193 192 170
3 182 194 168
3 194 172 168
3 193 170 195
3 170 169 195
3 195 169 171
3 196 195 171
3 196 171 172
3 194 197 172
3 197 198 172
3 198 196 172
3 200 173 190
3 199 200 190
3 201 174 173
3 200 201 173
3 176 179 202
3 177 176 202
3 177 202 175
3 175 202 184
3 178 185 203
3 178 203 179
3 179 203 202
3 203 185 204
3 202 205 184
3 183 206 181
3 180 181 206
3 180 206 182
3 182 206 194
3 183 184 207
3 205 207 184
3 183 207 206
3 185 208 204
3 186 209 185
3 185 209 208
3 187 210 186
3 186 210 209
3 191 189 211
3 189 188 211
3 211 188 192
3 199 190 212
3 212 190 191
3 212 191 211
3 213 199 212
3 214 211 192
3 214 192 193
3 215 214 193
3 215 193 195
3 206 216 194
3 216 197 194
3 216 217 197
3 215 195 218
3 218 195 196
3 198 218 196
3 217 219 197
3 219 218 198
3 197 219 198
3 220 199 213
3 221 200 199
3 220 221 199
3 222 201 200
3 221 222 200
3 203 204 223
3 203 223 202
3 202 223 205
3 204 208 224
3 204 224 223
3 205 223 225
3 205 225 207
3 207 225 226
3 207 226 206
3 226 216 206
3 208 228 224
3 224 228 227
3 209 229 208
3 229 228 208
3 210 230 209
3 209 230 229
3 213 212 231
3 212 211 231
3 231 211 214
3 232 220 213
3 232 213 231
3 233 231 214
3 233 214 215
3 234 233 215
3 234 215 218
3 226 235 216
3 235 217 216
3 235 236 217
3 217 236 219
3 237 234 218
3 237 218 219
3 236 238 219
3 238 237 219
3 240 220 232
3 239 240 232
3 241 221 220
3 240 241 220
3 242 222 221
3 241 242 221
3 224 227 243
3 224 243 223
3 223 243 225
3 225 243 244
3 225 244 226
3 226 244 235
3 227 245 243
3 228 246 227
3 227 246 245
3 229 247 228
3 228 247 246
3 230 248 229
3 229 248 247
3 239 232 249
3 232 231 249
3 249 231 233
3 250 249 233
3 250 233 234
3 237 250 234
3 244 251 235
3 235 251 236
3 251 252 236
3 236 252 238
3 252 253 238
3 253 250 237
3 253 237 238
3 254 239 249
3 255 240 239
3 254 255 239
3 256 241 240
3 255 256 240
3 257 242 241
3 256 257 241
3 245 258 243
3 243 258 244
3 244 258 251
3 245 259 258
3 246 260 245
3 245 260 259
3 247 261 246
3 246 261 260
3 248 262 247
3 247 262 261
3 254 249 263
3 263 249 250
3 253 263 250
3 258 264 251
3 251 264 252
3 264 265 252
3 265 263 253
3 252 265 253
3 266 254 263
3 267 255 254
3 266 267 254
3 268 256 255
3 267 268 255
3 269 257 256
3 268 269 256
3 259 270 258
3 270 264 258
3 260 271 259
3 259 271 270
3 261 272 260
3 260 272 271
3 262 273 261
3 273 272 261
3 270 274 264
3 275 266 263
3 275 263 265
3 274 276 264
3 276 265 264
3 276 277 265
3 277 275 265
3 278 267 266
3 275 278 266
3 279 268 267
3 278 279 267
3 280 269 268
3 279 280 268
3 271 281 270
3 270 281 274
3 272 282 271
3 271 282 281
3 273 283 272
3 272 283 282
3 281 284 274
3 274 284 276
3 285 278 275
3 277 285 275
3 284 286 276
3 286 285 277
3 276 286 277
3 287 279 278
3 285 287 278
3 288 280 279
3 287 288 279
3 282 289 281
3 281 289 284
3 283 290 282
3 282 290 289
3 289 291 284
3 284 291 286
3 291 292 286
3 292 287 285
3 286 292 285
3 293 288 287
3 292 293 287
3 290 294 289
3 289 294 291
3 294 295 291
3 295 293 292
3 291 295 292
CELL_TYPES 542
5
5
5
5
5
5
5
5
5
5
5
5
5
5
5
5
5
5
5
5
5
5
5
5
5
5
5
5
5
5
5
5
5
5
5
5
5
5
5
5
5
5
5
5
5
5
5
5
5
5
5
5
5
5
5
5
5
5
5
5
5
5
5
5
5
5
5
5
5
5
5
5
5
5
5
5
5
5
5
5
5
5
5
5
5
5
5
5
5
5
5
5
5
5
5
5
5
5
5
5
5
5
5
5
5
5
5
5
5
5
5
5
5
5
5
5
5
5
5
5
5
5
5
5
5
5
5
5
5
5
5
5
5
5
5
5
5
5
5
5
5
5
5
5
5
5
5
5
5
5
5
5
5
5
5
5
5
5
5
5
5
5
5
5
5
5
5
5
5
5
5
5
5
5
5
5
5
5
5
5
5
5
5
5
5
5
5
5
5
5
5
5
5
5
5
5
5
5
5
5
5
5
5
5
5
5
5
5
5
5
5
5
5
5
5
5
5
5
5
5
5
5
5
5
5
5
5
5
5
5
5
5
5
5
5
5
5
5
5
5
5
5
5
5
5
5
5
5
5
5
5
5
5
5
5
5
5
5
5
5
5
5
5
5
5
5
5
5
5
5
5
5
5
5
5
5
5
5
5
5
5
5
5
5
5
5
5
5
5
5
5
5
5
5
5
5
5
5
5
5
5
5
5
5
5
5
5
5
5
5
5
5
5
5
5
5
5
5
5
5
5
5
5
5
5
5
5
5
5
5
5
5
5
5
5
5
5
5
5
5
5
5
5
5
5
5
5
5
5
5
5
5
5
5
5
5
5
5
5
5
5
5
5
5
5
5
5
5
5
5
5
5
5
5
5
5
5
5
5
5
5
5
5
5
5
5
5
5
5
5
5
5
5
5
5
5
5
5
5
5
5
5
5
5
5
5
5
5
5
5
5
5
5
5
5
5
5
5
5
5
5
5
5
5
5
5
5
5
5
5
5
5
5
5
5
5
5
5
5
5
5
5
5
5
5
5
5
5
5
5
5
5
5
5
5
5
5
5
5
5
5
5
5
5
5
5
5
5
5
5
5
5
5
5
5
5
5
5
5
5
5
5
5
5
5
5
5
5
5
5
5
5
5
5
5
5
5
5
5
5
5
5
5
5
5
5
5
5
5
5
5
5
5
5
5
5
5
5
5
5
5
5
5
5
5
5
5
5
5
5
5
5
5
5
5
5
5
5
5
5
5
5
POINT_DATA 296
SCALARS concentrations float 4
LOOKUP_TABLE default
0 0.945989 0.102636 85.7319
0 0.946062 0.0972842 71.6779
0 0.945715 0.0985109 81.4699
0 0.945634 0.0991734 9.61042
0 0.945781 0.0922073 14.4105
0 0.94594 0.0997797 72.48
0 0.945597 0.0995518 98.969
0 0.945931 0.091897 11.1238
0 0.94593 0.0920922 5.00911
0 0.945438 0.101339 16.7021
0 0.94552 0.0999786 51.6188
0 0.945833 0.103536 40.4935
0 0.946108 0.100293 29.8817
0 0.945623 0.0918293 8.05367
0 0.945673 0.091867 5.49401
0 0.945626 0.0914191 5.13382
0 0.945714 0.0913281 4.97412
0 0.945753 0.0925237 2.66008
0 0.945554 0.0928327 7.27624
0 0.945776 0.0913822 3.87091
0 0.945752 0.0914677 2.00102
0 0.945735 0.104784 173.586
0 0.94573 0.101452 16.6438
0 0.945532 0.0926848 2.24669
0 0.945653 0.0922499 10.1552
0 0.945879 0.0920054 6.77445
0 0.946025 0.0990621 9.72464
0 0.94597 0.0916597 5.98745
0 0.945828 0.0980018 29.3545
0 0.945601 0.0913807 2.92
0 0.94567 0.0912683 2.42902
0 0.945581 0.0912564 2.06302
0 0.945614 0.102224 90.121
0 0.945608 0.0911806 2.03581
0 0.94566 0.0911607 2.43384
0 0.945677 0.091702 2.94614
0 0.945629 0.091657 3.53237
0 0.945675 0.0911972 1.84136
0 0.94568 0.0913379 1.89808
0 0.945731 0.0924096 14.4906
0 0.945657 0.0928177 11.7166
0 0.94565 0.0915875 4.47408
0 0.945685 0.0915307 4.49254
0 0.945553 0.101345 76.6326
0 0.945749 0.0912494 3.79514
0 0.94586 0.0917925 7.80205
0 0.945775 0.0912114 2.94727
0 0.945689 0.0952662 39.8617
0 0.945741 0.0916432 4.29778
0 0.945664 0.0982765 39.6586
0 0.945596 0.0911889 1.16893
0 0.945637 0.091143 1.84636
0 0.945596 0.0910842 0.293344
0 0.945551 0.0929298 8.91691
0 0.945562 0.0930841 16.1407
0 0.945622 0.0910079 0.678045
0 0.945663 0.0913218 2.1037
0 0.945663 0.0913357 2.96875
0 0.945651 0.0910664 0.88663
0 0.945668 0.091418 4.53751
0 0.945591 0.0915612 4.9362
0 0.945668 0.0912227 2.78031
0 0.945664 0.0911565 2.15756
0 0.945641 0.10956 177.626
0 0.945671 0.0910161 1.59903
0 0.945748 0.0911073 1.7559
0 0.945703 0.0910267 1.29723
0 0.945708 0.0916655 1.70683
0 0.945735 0.0911015 0.548992
0 0.945611 0.1042 136.323
0 0.945681 0.0920863 7.97417
0 0.94585 0.102027 16.5671
0 0.945616 0.0910251 0.877825
0 0.945623 0.0910268 0.652345
0 0.945621 0.0910233 0.563508
0 0.945525 0.0917428 7.6113
0 0.945476 0.0929764 19.3117
0 0.94546 0.0917608 7.87609
0 0.945635 0.090997 1.06814
0 0.945641 0.0910119 1.09659
0 0.945661 0.091081 1.26585
0 0.945655 0.0910057 0.542485
0 0.945625 0.0911062 1.89671
0 0.945567 0.0912946 3.69753
0 0.945648 0.0909929 0.20341
0 0.945375 0.101718 41.8363
0 0.945678 0.0909697 0.651402
0 0.94572 0.0910263 0.138218
0 0.945749 0.0912433 2.10133
0 0.945748 0.0911149 0.900384
0 0.945756 0.0927181 12.2208
0 0.945789 0.091504 3.15103
0 0.945965 0.104411 135.635
0 0.945922 0.0927445 12.0616
0 0.945645 0.0910055 1.00685
0 0.945654 0.0909816 0.778148
0 0.945655 0.0909911 0.933213
0 0.945705 0.0909761 0.944698
0 0.945841 0.0992969 17.4174
0 0.945299 0.0924972 9.86966
0 0.945522 0.0913272 4.02818
0 0.945382 0.091588 5.81191
0 0.94546 0.0913252 3.78376
0 0.945666 0.0909923 1.30999
0 0.945656 0.0909988 0.934405
0 0.945658 0.0910178 0.277731
0 0.945664 0.0909969 0.51341
0 0.945601 0.0910908 1.63927
0 0.945641 0.0910198 0.426535
0 0.945239 0.0981525 16.4058
0 0.94574 0.0910136 0.747794
0 0.945782 0.0911868 1.3591
0 0.945851 0.0915149 4.04075
0 0.945822 0.091256 1.87499
0 0.94591 0.0925144 10.2478
0 0.945894 0.0914043 2.52319
0 0.945831 0.0924953 9.08647
0 0.945689 0.0909796 1.25452
0 0.945685 0.0909866 1.31244
0 0.945681 0.0909816 1.27706
0 0.94569 0.0909698 1.08238
0 0.945756 0.0909841 0.968656
0 0.945724 0.0909715 1.11163
0 0.945711 0.0909715 1.21047
0 0.945779 0.102036 106.462
0 0.945268 0.0921459 12.0991
0 0.945348 0.091392 2.84346
0 0.945546 0.0910824 1.33625
0 0.945446 0.0911699 1.31424
0 0.945673 0.0909884 1.1815
0 0.945665 0.0909896 0.366103
0 0.945617 0.0910202 0.570942
0 0.945653 0.0910076 0.211735
0 0.945462 0.0923078 17.81
0 0.945276 0.104932 45.4621
0 0.945797 0.091033 0.922133
0 0.94585 0.0911456 1.59704
0 0.945886 0.0914652 3.20707
0 0.945874 0.0911192 1.50704
0 0.945773 0.0927634 13.0377
0 0.945848 0.0915176 4.01064
0 0.945795 0.091003 0.760913
0 0.945693 0.0909936 1.31031
0 0.945706 0.0909856 1.29997
0 0.945723 0.0909647 1.18742
0 0.945758 0.0909774 1.02005
0 0.945784 0.0909821 0.964365
0 0.945737 0.0909569 0.993716
0 0.945728 0.0909714 1.07883
0 0.945585 0.0926866 10.7576
0 0.945663 0.10336 119.602
0 0.945599 0.0910014 0.556974
0 0.945418 0.0913796 4.99602
0 0.945459 0.0911287 2.06381
0 0.945543 0.0909941 0.758083
0 0.945558 0.0913812 5.22747
0 0.945675 0.09099 0.880567
0 0.945652 0.0910036 0.469815
0 0.945696 0.0910018 1.28217
0 0.94564 0.0910065 1.06446
0 0.945719 0.0919557 10.4061
0 0.945671 0.10567 127.85
0 0.945832 0.0910116 0.65687
0 0.945859 0.0911527 0.871035
0 0.94576 0.0914553 1.94412
0 0.94583 0.0912276 0.772585
0 0.945625 0.0913895 1.47257
0 0.945812 0.0909845 0.748481
0 0.945715 0.0909912 1.21865
0 0.945761 0.0909583 0.980231
0 0.94579 0.0909855 1.04429
0 0.945752 0.0909478 0.781107
0 0.945736 0.090965 0.940372
0 0.945355 0.0921044 5.35334
0 0.94535 0.101426 81.5109
0 0.945614 0.0910219 1.587
0 0.945539 0.0911587 3.07145
0 0.945566 0.091063 2.14892
0 0.94569 0.0914151 3.06966
0 0.945622 0.091235 2.88043
0 0.945685 0.0910028 1.08098
0 0.945675 0.0910098 1.13663
0 0.945705 0.0910008 1.27222
0 0.945669 0.0910204 1.30323
0 0.945659 0.0910391 1.58212
0 0.945775 0.0914524 1.65834
0 0.945775 0.0917613 2.49402
0 0.945808 0.0987102 40.6785
0 0.94582 0.0910403 0.414062
0 0.945771 0.0911391 0.436324
0 0.945518 0.0912112 2.56097
0 0.945696 0.0911003 0.847932
0 0.945802 0.090981 0.73094
0 0.945792 0.0909878 0.773652
0 0.945719 0.0909788 1.08233
0 0.945775 0.0909639 0.729834
0 0.945759 0.0909562 0.652205
0 0.945736 0.0909767 0.980272
0 0.945752 0.0909672 0.739521
0 0.945491 0.0912275 2.54516
0 0.94531 0.0917781 6.2589
0 0.94517 0.0986123 16.406
0 0.945641 0.0910772 1.96585
0 0.9457 0.0912475 1.98223
0 0.945767 0.0912382 1.0169
0 0.945692 0.0910591 1.56496
0 0.9457 0.091016 1.07081
0 0.945697 0.0910526 1.32411
0 0.945813 0.0913642 0.727796
0 0.945838 0.0922415 4.53448
0 0.945812 0.0973808 14.8378
0 0.945771 0.0909935 0.731391
0 0.945671 0.0910107 1.03049
0 0.945641 0.0910415 1.14033
0 0.945785 0.0910031 0.593974
0 0.945785 0.0909854 0.488369
0 0.94572 0.0910079 1.18391
0 0.945736 0.091013 1.21178
0 0.945771 0.0909707 0.494491
0 0.945754 0.0909811 0.78001
0 0.945504 0.0912768 3.94729
0 0.945323 0.0921021 11.4522
0 0.945231 0.0985605 122.079
0 0.945728 0.0910945 1.20605
0 0.945791 0.0910962 0.529086
0 0.945728 0.0910774 1.11934
0 0.945718 0.0910648 1.16594
0 0.945816 0.0911203 0.458885
0 0.945824 0.0913931 1.51417
0 0.94579 0.0924294 6.32892
0 0.945852 0.101443 5.25595
0 0.945747 0.0909976 0.24957
0 0.94568 0.0910905 2.55897
0 0.945778 0.0910213 0.308301
0 0.945781 0.0909992 0.379978
0 0.945732 0.0910565 1.22533
0 0.945743 0.0910417 1.11661
0 0.945769 0.0909931 0.491764
0 0.945756 0.0910009 0.808923
0 0.945689 0.0912576 4.59245
0 0.94555 0.0914256 5.99369
0 0.945358 0.0921383 12.0558
0 0.945218 0.0990696 94.5556
0 0.945768 0.0910622 0.735769
0 0.945743 0.0910982 1.00208
0 0.945814 0.0911923 0.799888
0 0.945851 0.0916724 3.81327
0 0.94578 0.092433 9.69001
0 0.945677 0.101058 22.3842
0 0.945755 0.0910634 1.32632
0 0.945774 0.091004 0.52192
0 0.945744 0.0911017 1.05931
0 0.945747 0.0910392 0.983717
0 0.945762 0.0909781 0.612845
0 0.945722 0.0912685 4.17472
0 0.94559 0.0915678 7.12721
0 0.945421 0.0922816 14.0324
0 0.945311 0.100656 79.6766
0 0.945766 0.0911556 1.35705
0 0.945813 0.0913977 1.55027
0 0.945876 0.0915445 2.386
0 0.945903 0.0926033 8.89405
0 0.945842 0.101032 78.2583
0 0.945759 0.0910449 1.24281
0 0.945744 0.0911421 1.1051
0 0.945743 0.0909827 0.698101
0 0.945725 0.0912999 3.6972
0 0.945625 0.091574 6.55209
0 0.945411 0.0924916 10.093
0 0.945301 0.0999425 74.0033
0 0.945773 0.0913869 1.62331
0 0.945852 0.091704 1.4851
0 0.945952 0.0928658 9.54052
0 0.945959 0.103348 93.5007
0 0.94573 0.0913312 1.03242
0 0.94573 0.0911294 1.9397
0 0.945713 0.0911615 1.08549
0 0.945711 0.0911099 1.68016
0 0.945665 0.0916008 5.40934
0 0.945495 0.0920728 6.8376
0 0.945307 0.099771 5.53766
0 0.945771 0.0915399 1.58693
0 0.94591 0.0919601 5.67011
0 0.946026 0.101303 92.6021
0 0.945684 0.0915273 0.63905
0 0.945672 0.0914019 3.80256
0 0.945656 0.0914542 3.36201
0 0.945621 0.0926994 16.0453
0 0.94551 0.101808 71.5861
0 0.945725 0.0924995 6.28216
0 0.945863 0.0981077 12.2716
0 0.945587 0.0929793 10.1637
0 0.945608 0.0928322 13.4443
0 0.945614 0.106912 113.562
0 0.945608 0.103712 67.0809
0 0.945531 0.100689 32.0779
VECTORS fa_u float
0.00651586 0.00268259 -0
0.0055354 0.00318129 -0
0.00509575 0.00138635 -0
0.00797535 0.00109133 -0
1e-08 0 0
0.00623301 0.00480158 -0
0.00352158 0.00350866 -0
1e-08 0 0
1e-08 0 0
0.00427414 0.00545625 -0
0.0035717 0.0060844 -0
0.00547745 2.87598e-05 -0
0.00690726 -0.000836405 0
1e-08 0 0
1e-08 0 0
1e-08 0 0
1e-08 0 0
1e-08 0 0
1e-08 0 0
1e-08 0 0
1e-08 0 0
0.00296062 0.00713047 -0
0.00177443 0.00677003 -0
1e-08 0 0
1e-08 0 0
1e-08 0 0
0.00794918 -0.0021105 0
1e-08 0 0
0.00680033 -0.00288236 0
1e-08 0 0
1e-08 0 0
1e-08 0 0
0.000748192 0.00579212 -0
1e-08 0 0
1e-08 0 0
1e-08 0 0
1e-08 0 0
1e-08 0 0
1e-08 0 0
1e-08 0 0
1e-08 0 0
1e-08 0 0
1e-08 0 0
-6.40665e-05 0.00875156 -0
1e-08 0 0
1e-08 0 0
1e-08 0 0
0.00564609 -0.00334192 0
1e-08 0 0
0.00455371 -0.00353129 0
1e-08 0 0
1e-08 0 0
1e-08 0 0
1e-08 0 0
1e-08 0 0
1e-08 0 0
1e-08 0 0
1e-08 0 0
1e-08 0 0
1e-08 0 0
1e-08 0 0
1e-08 0 0
1e-08 0 0
-0.000762118 0.00536978 0
1e-08 0 0
1e-08 0 0
1e-08 0 0
1e-08 0 0
1e-08 0 0
0.00481145 -0.00482059 0
1e-08 0 0
0.00334156 -0.00430825 0
1e-08 0 0
1e-08 0 0
1e-08 0 0
1e-08 0 0
1e-08 0 0
1e-08 0 0
1e-08 0 0
1e-08 0 0
1e-08 0 0
1e-08 0 0
1e-08 0 0
1e-08 0 0
1e-08 0 0
-0.0013503 0.00512284 0
1e-08 0 0
1e-08 0 0
1e-08 0 0
1e-08 0 0
1e-08 0 0
1e-08 0 0
0.00350016 -0.00591145 0
1e-08 0 0
1e-08 0 0
1e-08 0 0
1e-08 0 0
1e-08 0 0
0.00334908 -0.00806612 0
1e-08 0 0
1e-08 0 0
1e-08 0 0
1e-08 0 0
1e-08 0 0
1e-08 0 0
1e-08 0 0
1e-08 0 0
1e-08 0 0
1e-08 0 0
-0.00288474 0.0071046 0
1e-08 0 0
1e-08 0 0
1e-08 0 0
1e-08 0 0
1e-08 0 0
1e-08 0 0
1e-08 0 0
1e-08 0 0
1e-08 0 0
1e-08 0 0
1e-08 0 0
1e-08 0 0
1e-08 0 0
1e-08 0 0
0.0015475 -0.00590084 0
1e-08 0 0
1e-08 0 0
1e-08 0 0
1e-08 0 0
1e-08 0 0
1e-08 0 0
1e-08 0 0
1e-08 0 0
1e-08 0 0
-0.00420245 0.00719324 0
1e-08 0 0
1e-08 0 0
1e-08 0 0
1e-08 0 0
1e-08 0 0
1e-08 0 0
1e-08 0 0
1e-08 0 0
1e-08 0 0
1e-08 0 0
1e-08 0 0
1e-08 0 0
1e-08 0 0
1e-08 0 0
1e-08 0 0
0.000801989 -0.00605067 0
1e-08 0 0
1e-08 0 0
1e-08 0 0
1e-08 0 0
1e-08 0 0
1e-08 0 0
1e-08 0 0
1e-08 0 0
1e-08 0 0
1e-08 0 0
-0.00330663 0.00425762 0
1e-08 0 0
1e-08 0 0
1e-08 0 0
1e-08 0 0
1e-08 0 0
1e-08 0 0
1e-08 0 0
1e-08 0 0
1e-08 0 0
1e-08 0 0
1e-08 0 0
1e-08 0 0
2.38057e-05 -0.00673731 0
1e-08 0 0
1e-08 0 0
1e-08 0 0
1e-08 0 0
1e-08 0 0
1e-08 0 0
1e-08 0 0
1e-08 0 0
1e-08 0 0
1e-08 0 0
1e-08 0 0
1e-08 0 0
-0.00411689 0.00416193 0
1e-08 0 0
1e-08 0 0
1e-08 0 0
1e-08 0 0
1e-08 0 0
1e-08 0 0
1e-08 0 0
1e-08 0 0
1e-08 0 0
1e-08 0 0
1e-08 0 0
1e-08 0 0
1e-08 0 0
-0.000842179 -0.00658325 0
1e-08 0 0
1e-08 0 0
1e-08 0 0
1e-08 0 0
1e-08 0 0
1e-08 0 0
1e-08 0 0
1e-08 0 0
-0.00498609 0.00391905 0
1e-08 0 0
1e-08 0 0
1e-08 0 0
1e-08 0 0
1e-08 0 0
1e-08 0 0
1e-08 0 0
1e-08 0 0
1e-08 0 0
1e-08 0 0
1e-08 0 0
-0.00185324 -0.00695951 0
1e-08 0 0
1e-08 0 0
1e-08 0 0
1e-08 0 0
1e-08 0 0
1e-08 0 0
1e-08 0 0
-0.00632006 0.00373745 0
1e-08 0 0
1e-08 0 0
1e-08 0 0
1e-08 0 0
1e-08 0 0
1e-08 0 0
1e-08 0 0
1e-08 0 0
1e-08 0 0
1e-08 0 0
1e-08 0 0
-0.00235308 -0.00570864 0
1e-08 0 0
1e-08 0 0
1e-08 0 0
1e-08 0 0
1e-08 0 0
-0.00794855 0.0032803 0
1e-08 0 0
1e-08 0 0
1e-08 0 0
1e-08 0 0
1e-08 0 0
1e-08 0 0
1e-08 0 0
1e-08 0 0
-0.00402991 -0.00695253 0
1e-08 0 0
1e-08 0 0
1e-08 0 0
1e-08 0 0
-0.00512517 0.00135827 0
1e-08 0 0
1e-08 0 0
1e-08 0 0
1e-08 0 0
1e-08 0 0
1e-08 0 0
-0.00435334 -0.00556036 0
1e-08 0 0
1e-08 0 0
1e-08 0 0
-0.00824055 0.00106085 0
1e-08 0 0
1e-08 0 0
1e-08 0 0
1e-08 0 0
1e-08 0 0
1e-08 0 0
-0.00348429 -0.00347099 0
1e-08 0 0
1e-08 0 0
-0.00657096 -6.34602e-05 0
1e-08 0 0
1e-08 0 0
1e-08 0 0
1e-08 0 0
-0.00664961 -0.00510121 0
1e-08 0 0
-0.00594669 -0.000816567 0
1e-08 0 0
1e-08 0 0
-0.00485973 -0.00279105 0
-0.00554273 -0.00146616 0
-0.00734517 -0.00302149 0
