# vtk DataFile Version 2.0
CellBP Time: 9.72
ASCII
DATASET UNSTRUCTURED_GRID
POINTS 296 double
-8.93243 -3.66451 0
-8.35391 -4.79955 0
-9.3306 -2.45374 0
-9.58749 -1.21426 0
-8.25968 -2.77541 0
-7.66109 -5.87039 0
-6.80921 -6.81785 0
-7.81953 -3.81943 0
-7.24885 -4.80707 0
-5.86437 -7.66335 0
-4.81961 -8.37736 0
-9.67121 0.0467715 0
-9.6027 1.31605 0
-8.56666 -1.65893 0
-8.70185 -0.522062 0
-7.49424 -1.96974 0
-7.12783 -2.85859 0
-6.56171 -5.71928 0
-5.7646 -6.53833 0
-6.69621 -3.83085 0
-6.13887 -4.61712 0
-3.67931 -8.94177 0
-2.47059 -9.35351 0
-4.86658 -7.25178 0
-3.89106 -7.83097 0
-8.71492 0.633874 0
-9.36509 2.57207 0
-8.55338 1.75393 0
-8.95006 3.77609 0
-7.65526 -0.911229 0
-7.71138 0.0830124 0
-6.86715 -1.29226 0
-1.21542 -9.59598 0
-6.36352 -2.12058 0
-6.24008 -3.01145 0
-5.47107 -5.41677 0
-4.74584 -6.05885 0
-5.58868 -3.70886 0
-5.20165 -4.50687 0
-2.84813 -8.30377 0
-1.76362 -8.57475 0
-3.8947 -6.66839 0
-3.03818 -7.09909 0
0.0524986 -9.68123 0
-7.62844 1.13109 0
-8.27967 2.89413 0
-7.48069 2.08694 0
-8.37799 4.91237 0
-7.81144 3.94185 0
-7.65501 5.96176 0
-6.70091 -0.38726 0
-6.87896 0.549861 0
-5.7129 -0.991158 0
-0.584458 -8.73607 0
0.555572 -8.68722 0
-5.24826 -2.44988 0
-4.43652 -5.04052 0
-3.86016 -5.72043 0
-4.39308 -3.76512 0
-2.04667 -7.50305 0
-1.12677 -7.72029 0
-2.96666 -6.04881 0
-2.29289 -6.56672 0
1.31401 -9.58126 0
-6.62154 1.40555 0
-7.10022 3.08418 0
-6.5928 2.34699 0
-7.2227 4.93829 0
-6.65014 3.95871 0
-6.81892 6.91549 0
-6.50667 5.83175 0
-5.86336 7.75542 0
-4.42211 -1.1741 0
-5.76177 0.504826 0
-4.62469 -0.0171079 0
0.00176477 -7.77202 0
1.71178 -8.54972 0
0.92883 -7.67916 0
-4.00989 -2.38593 0
-3.47429 -1.38693 0
-3.26536 -4.76251 0
-3.24731 -3.24297 0
-1.37181 -6.61555 0
-0.512338 -6.95613 0
-1.96187 -5.49351 0
2.55948 -9.32775 0
-5.45737 2.01898 0
-6.03347 3.0376 0
-6.04236 4.81421 0
-5.7018 3.94334 0
-5.70218 6.64297 0
-5.39488 5.55375 0
-4.81814 8.48048 0
-4.78703 7.3203 0
-3.48649 -0.423218 0
-4.41589 1.23948 0
-3.69 0.588739 0
-4.0299 2.30902 0
-3.68004 9.04291 0
2.81921 -8.22977 0
0.40224 -6.71896 0
1.98607 -7.43276 0
1.27695 -6.82079 0
-2.43872 -0.869206 0
-2.82901 -2.12063 0
-2.28268 -4.0679 0
-2.31597 -2.95553 0
-0.445832 -5.80459 0
-1.21304 -4.46789 0
3.76791 -8.92946 0
-4.74466 3.35913 0
-5.03487 4.53966 0
-4.59649 6.2057 0
-4.4904 5.29541 0
-3.80867 7.91452 0
-3.78267 6.7607 0
-2.75361 8.33454 0
-1.64647 -0.133711 0
-1.44682 -0.886615 0
-2.48387 0.511047 0
-3.235 1.44065 0
-3.21419 3.29366 0
-2.89342 2.36639 0
-1.35479 0.63117 0
-2.471 9.44184 0
3.87916 -7.78882 0
2.914 -7.05746 0
0.933476 -5.75606 0
2.03644 -6.3311 0
-1.67691 -1.9855 0
-1.42656 -3.25853 0
0.0863612 -4.70599 0
-0.559798 -3.67282 0
4.87051 -7.22539 0
4.90686 -8.36725 0
-3.74115 4.50518 0
-3.69545 5.68574 0
-2.85329 7.20448 0
-2.97714 6.28117 0
-1.64433 8.65087 0
-1.91604 7.53927 0
-2.32283 4.02145 0
-0.728417 -1.32383 0
-0.836299 -0.25401 0
-1.93385 1.68387 0
-2.11678 2.86636 0
-1.30364 3.52821 0
-0.871854 1.35463 0
-0.284608 0.45919 0
-0.527765 8.79623 0
-1.22024 9.69221 0
1.09714 -4.52925 0
3.84835 -6.61517 0
2.94051 -6.00939 0
2.08502 -5.35756 0
4.72228 -6.11634 0
-0.554851 -2.46768 0
0.493357 -3.44221 0
0.0543011 -1.60764 0
1.46662 -3.64954 0
5.8026 -6.53183 0
5.96056 -7.65278 0
-2.45316 5.29582 0
-2.10489 6.46336 0
-0.891216 7.72978 0
-1.25323 6.85977 0
0.0886571 7.81359 0
-1.1382 4.4631 0
0.148905 -0.614818 0
-0.801691 2.48904 0
-0.337226 3.58821 0
0.0582346 1.5145 0
0.736751 0.474423 0
0.640868 8.80715 0
0.0470474 9.77654 0
2.35146 -4.23607 0
3.80591 -5.55919 0
2.95925 -5.14323 0
5.51386 -5.42044 0
4.63277 -5.20543 0
0.630192 -2.28871 0
1.24778 -2.93307 0
0.755919 -1.38929 0
2.14531 -3.10964 0
2.96455 -3.44051 0
6.09772 -4.73568 0
6.59426 -5.70573 0
6.91862 -6.81078 0
-1.00775 5.76713 0
-0.362607 6.81805 0
1.1148 7.71076 0
0.557858 7.02001 0
-0.00360829 4.69547 0
0.599007 3.81006 0
1.33475 -0.641448 0
0.531919 2.64512 0
0.959012 1.57476 0
1.90324 0.212579 0
1.60703 1.0638 0
2.11645 7.52913 0
1.78722 8.65044 0
1.31897 9.70265 0
3.77957 -4.2955 0
5.06111 -4.38647 0
5.79183 -3.88697 0
3.74964 -3.16726 0
1.80481 -1.87923 0
2.99646 -2.55526 0
6.72899 -3.9096 0
7.32327 -4.85263 0
7.76702 -5.86592 0
0.482103 5.835 0
1.42011 6.68998 0
2.36019 6.62071 0
1.20035 4.52934 0
1.4786 3.38098 0
2.42472 -0.690464 0
2.81481 0.142652 0
1.77936 2.1572 0
2.60176 1.14681 0
3.05389 7.1189 0
2.88859 8.3189 0
2.57366 9.45851 0
4.86586 -3.28724 0
6.06996 -3.07437 0
4.14195 -2.25789 0
3.22504 -1.4967 0
6.68336 -2.29565 0
7.18103 -3.02095 0
7.91044 -3.88717 0
8.47696 -4.81751 0
2.01187 5.56018 0
3.05804 6.10406 0
2.35225 4.10019 0
2.40878 3.04421 0
3.50547 -0.45702 0
3.59642 0.614121 0
2.9464 2.2763 0
3.52321 1.51796 0
3.96926 5.84632 0
3.95107 6.74014 0
3.95154 7.88409 0
3.78224 9.04611 0
5.52821 -1.90027 0
4.47959 -1.12102 0
6.66257 -1.32471 0
7.53861 -2.02029 0
8.3399 -2.84316 0
9.04777 -3.6828 0
3.3839 4.83509 0
3.3116 3.35945 0
4.65919 0.132458 0
4.48117 1.29909 0
4.02756 2.42242 0
4.51317 5.10043 0
4.79337 6.13645 0
4.94061 7.32401 0
4.92243 8.4809 0
5.83461 -0.433399 0
6.95035 -0.48731 0
7.70161 -1.07327 0
8.62331 -1.73035 0
9.44814 -2.46985 0
4.49948 3.78843 0
5.75849 1.08193 0
5.30904 2.50387 0
5.30776 4.56743 0
5.54554 5.46813 0
5.83848 6.61414 0
5.97088 7.77141 0
6.77744 0.450868 0
7.78517 -0.0277027 0
8.79336 -0.574829 0
9.70245 -1.21618 0
6.88295 1.32525 0
5.64574 3.73155 0
6.46133 2.16306 0
6.29623 3.044 0
6.20889 4.6308 0
6.61613 5.77884 0
6.9208 6.92714 0
7.7071 0.951837 0
8.78149 0.56654 0
9.77643 0.0539647 0
7.52979 1.97392 0
6.73185 3.8481 0
7.1756 2.90246 0
7.29198 4.83119 0
7.76062 5.96746 0
8.63439 1.70453 0
9.68037 1.31595 0
8.32295 2.79949 0
7.89117 3.86959 0
8.46888 4.90969 0
9.434 2.56334 0
9.03411 3.77069 0
CELLS 542 2168
3 2 0 4
3 0 1 7
3 4 0 7
3 1 5 8
3 7 1 8
3 3 2 13
3 13 2 4
3 11 3 14
3 14 3 13
3 13 4 15
3 4 7 16
3 15 4 16
3 5 6 17
3 8 5 17
3 6 9 18
3 17 6 18
3 7 8 19
3 16 7 19
3 8 17 20
3 19 8 20
3 9 10 23
3 18 9 23
3 10 21 24
3 23 10 24
3 12 11 25
3 25 11 14
3 26 12 27
3 27 12 25
3 14 13 29
3 29 13 15
3 25 14 30
3 30 14 29
3 29 15 31
3 15 16 33
3 31 15 33
3 16 19 34
3 33 16 34
3 17 18 35
3 20 17 35
3 18 23 36
3 35 18 36
3 19 20 37
3 34 19 37
3 20 35 38
3 37 20 38
3 21 22 39
3 24 21 39
3 22 32 40
3 39 22 40
3 23 24 41
3 36 23 41
3 24 39 42
3 41 24 42
3 27 25 44
3 44 25 30
3 28 26 45
3 45 26 27
3 45 27 46
3 46 27 44
3 47 28 48
3 48 28 45
3 30 29 50
3 50 29 31
3 44 30 51
3 51 30 50
3 50 31 52
3 31 33 52
3 32 43 53
3 40 32 53
3 53 43 54
3 33 34 55
3 34 37 55
3 33 55 52
3 35 36 56
3 38 35 56
3 36 41 57
3 56 36 57
3 37 38 58
3 38 56 58
3 37 58 55
3 39 40 59
3 42 39 59
3 40 53 60
3 59 40 60
3 41 42 61
3 57 41 61
3 42 59 62
3 61 42 62
3 43 63 54
3 46 44 64
3 64 44 51
3 48 45 65
3 65 45 46
3 65 46 66
3 66 46 64
3 49 47 67
3 67 47 48
3 67 48 68
3 68 48 65
3 69 49 70
3 70 49 67
3 52 55 72
3 64 51 73
3 51 50 73
3 50 52 73
3 73 52 74
3 74 52 72
3 53 54 75
3 60 53 75
3 54 63 76
3 54 76 77
3 75 54 77
3 55 58 78
3 72 55 78
3 72 78 79
3 56 57 80
3 57 61 80
3 56 80 58
3 58 80 81
3 78 58 81
3 59 60 82
3 62 59 82
3 60 75 83
3 82 60 83
3 61 62 84
3 62 82 84
3 61 84 80
3 63 85 76
3 66 64 86
3 64 73 86
3 68 65 87
3 87 65 66
3 87 66 86
3 70 67 88
3 88 67 68
3 88 68 89
3 89 68 87
3 71 69 90
3 90 69 70
3 90 70 91
3 91 70 88
3 92 71 93
3 93 71 90
3 74 72 94
3 94 72 79
3 86 73 95
3 95 73 74
3 95 74 96
3 96 74 94
3 97 86 95
3 76 85 99
3 75 77 100
3 83 75 100
3 76 99 101
3 77 76 101
3 77 101 102
3 100 77 102
3 94 79 103
3 78 81 104
3 79 78 104
3 79 104 103
3 80 84 105
3 81 80 105
3 81 105 106
3 104 81 106
3 82 83 107
3 83 100 107
3 82 107 84
3 84 107 108
3 105 84 108
3 85 109 99
3 89 87 110
3 87 86 110
3 110 86 97
3 91 88 111
3 111 88 89
3 111 89 110
3 93 90 112
3 112 90 91
3 112 91 113
3 113 91 111
3 98 92 114
3 114 92 93
3 114 93 115
3 115 93 112
3 116 98 114
3 117 103 118
3 96 94 119
3 94 103 119
3 119 103 117
3 97 95 120
3 120 95 96
3 120 96 119
3 121 110 97
3 121 97 122
3 122 97 120
3 123 119 117
3 124 98 116
3 99 109 125
3 99 125 126
3 101 99 126
3 100 102 127
3 100 127 107
3 101 126 128
3 102 101 128
3 102 128 127
3 104 106 129
3 104 129 103
3 103 129 118
3 105 108 130
3 106 105 130
3 106 130 129
3 107 127 131
3 108 107 131
3 108 131 132
3 108 132 130
3 109 134 125
3 125 134 133
3 113 111 135
3 111 110 135
3 135 110 121
3 115 112 136
3 136 112 113
3 136 113 135
3 116 114 137
3 137 114 115
3 137 115 138
3 138 115 136
3 139 124 116
3 139 116 140
3 140 116 137
3 141 135 121
3 118 129 142
3 118 142 143
3 117 118 143
3 123 117 143
3 122 120 144
3 120 119 144
3 144 119 123
3 141 121 145
3 145 121 122
3 145 122 144
3 146 141 145
3 147 144 123
3 147 123 148
3 143 148 123
3 150 124 139
3 149 150 139
3 131 127 151
3 125 133 152
3 126 125 152
3 126 152 153
3 128 126 153
3 128 153 154
3 128 154 127
3 127 154 151
3 152 133 155
3 130 132 156
3 130 156 129
3 129 156 142
3 131 151 157
3 132 131 157
3 132 157 156
3 156 158 142
3 157 151 159
3 133 160 155
3 134 161 133
3 133 161 160
3 138 136 162
3 136 135 162
3 162 135 141
3 140 137 163
3 163 137 138
3 163 138 162
3 149 139 164
3 164 139 140
3 164 140 165
3 165 140 163
3 166 149 164
3 167 162 141
3 167 141 146
3 142 158 168
3 143 142 168
3 143 168 148
3 146 145 169
3 145 144 169
3 169 144 147
3 170 167 146
3 170 146 169
3 171 169 147
3 171 147 148
3 171 148 172
3 168 172 148
3 173 149 166
3 174 150 149
3 173 174 149
3 154 175 151
3 151 175 159
3 152 155 176
3 153 152 176
3 153 176 177
3 153 177 154
3 154 177 175
3 155 160 178
3 155 178 179
3 176 155 179
3 156 157 180
3 156 180 158
3 157 159 181
3 157 181 180
3 158 180 182
3 158 182 168
3 159 175 183
3 159 183 181
3 175 184 183
3 160 186 178
3 178 186 185
3 161 187 160
3 160 187 186
3 165 163 188
3 163 162 188
3 188 162 167
3 166 164 189
3 189 164 165
3 189 165 188
3 190 173 166
3 190 166 191
3 191 166 189
3 192 188 167
3 192 167 170
3 193 192 170
3 182 194 168
3 194 172 168
3 193 170 195
3 170 169 195
3 195 169 171
3 196 195 171
3 196 171 172
3 194 197 172
3 197 198 172
3 198 196 172
3 200 173 190
3 199 200 190
3 201 174 173
3 200 201 173
3 176 179 202
3 177 176 202
3 177 202 175
3 175 202 184
3 178 185 203
3 178 203 179
3 179 203 202
3 203 185 204
3 202 205 184
3 183 206 181
3 180 181 206
3 180 206 182
3 182 206 194
3 183 184 207
3 205 207 184
3 183 207 206
3 185 208 204
3 186 209 185
3 185 209 208
3 187 210 186
3 186 210 209
3 191 189 211
3 189 188 211
3 211 188 192
3 199 190 212
3 212 190 191
3 212 191 211
3 213 199 212
3 214 211 192
3 214 192 193
3 215 214 193
3 215 193 195
3 206 216 194
3 216 197 194
3 216 217 197
3 215 195 218
3 218 195 196
3 198 218 196
3 217 219 197
3 219 218 198
3 197 219 198
3 220 199 213
3 221 200 199
3 220 221 199
3 222 201 200
3 221 222 200
3 203 204 223
3 203 223 202
3 202 223 205
3 204 208 224
3 204 224 223
3 205 223 225
3 205 225 207
3 207 225 226
3 207 226 206
3 226 216 206
3 208 228 224
3 224 228 227
3 209 229 208
3 229 228 208
3 210 230 209
3 209 230 229
3 213 212 231
3 212 211 231
3 231 211 214
3 232 220 213
3 232 213 231
3 233 231 214
3 233 214 215
3 234 233 215
3 234 215 218
3 226 235 216
3 235 217 216
3 235 236 217
3 217 236 219
3 237 234 218
3 237 218 219
3 236 238 219
3 238 237 219
3 240 220 232
3 239 240 232
3 241 221 220
3 240 241 220
3 242 222 221
3 241 242 221
3 224 227 243
3 224 243 223
3 223 243 225
3 225 243 244
3 225 244 226
3 226 244 235
3 227 245 243
3 228 246 227
3 227 246 245
3 229 247 228
3 228 247 246
3 230 248 229
3 229 248 247
3 239 232 249
3 232 231 249
3 249 231 233
3 250 249 233
3 250 233 234
3 237 250 234
3 244 251 235
3 235 251 236
3 251 252 236
3 236 252 238
3 252 253 238
3 253 250 237
3 253 237 238
3 254 239 249
3 255 240 239
3 254 255 239
3 256 241 240
3 255 256 240
3 257 242 241
3 256 257 241
3 245 258 243
3 243 258 244
3 244 258 251
3 245 259 258
3 246 260 245
3 245 260 259
3 247 261 246
3 246 261 260
3 248 262 247
3 247 262 261
3 254 249 263
3 263 249 250
3 253 263 250
3 258 264 251
3 251 264 252
3 264 265 252
3 265 263 253
3 252 265 253
3 266 254 263
3 267 255 254
3 266 267 254
3 268 256 255
3 267 268 255
3 269 257 256
3 268 269 256
3 259 270 258
3 270 264 258
3 260 271 259
3 259 271 270
3 261 272 260
3 260 272 271
3 262 273 261
3 273 272 261
3 270 274 264
3 275 266 263
3 275 263 265
3 274 276 264
3 276 265 264
3 276 277 265
3 277 275 265
3 278 267 266
3 275 278 266
3 279 268 267
3 278 279 267
3 280 269 268
3 279 280 268
3 271 281 270
3 270 281 274
3 272 282 271
3 271 282 281
3 273 283 272
3 272 283 282
3 281 284 274
3 274 284 276
3 285 278 275
3 277 285 275
3 284 286 276
3 286 285 277
3 276 286 277
3 287 279 278
3 285 287 278
3 288 280 279
3 287 288 279
3 282 289 281
3 281 289 284
3 283 290 282
3 282 290 289
3 289 291 284
3 284 291 286
3 291 292 286
3 292 287 285
3 286 292 285
3 293 288 287
3 292 293 287
3 290 294 289
3 289 294 291
3 294 295 291
3 295 293 292
3 291 295 292
CELL_TYPES 542
5
5
5
5
5
5
5
5
5
5
5
5
5
5
5
5
5
5
5
5
5
5
5
5
5
5
5
5
5
5
5
5
5
5
5
5
5
5
5
5
5
5
5
5
5
5
5
5
5
5
5
5
5
5
5
5
5
5
5
5
5
5
5
5
5
5
5
5
5
5
5
5
5
5
5
5
5
5
5
5
5
5
5
5
5
5
5
5
5
5
5
5
5
5
5
5
5
5
5
5
5
5
5
5
5
5
5
5
5
5
5
5
5
5
5
5
5
5
5
5
5
5
5
5
5
5
5
5
5
5
5
5
5
5
5
5
5
5
5
5
5
5
5
5
5
5
5
5
5
5
5
5
5
5
5
5
5
5
5
5
5
5
5
5
5
5
5
5
5
5
5
5
5
5
5
5
5
5
5
5
5
5
5
5
5
5
5
5
5
5
5
5
5
5
5
5
5
5
5
5
5
5
5
5
5
5
5
5
5
5
5
5
5
5
5
5
5
5
5
5
5
5
5
5
5
5
5
5
5
5
5
5
5
5
5
5
5
5
5
5
5
5
5
5
5
5
5
5
5
5
5
5
5
5
5
5
5
5
5
5
5
5
5
5
5
5
5
5
5
5
5
5
5
5
5
5
5
5
5
5
5
5
5
5
5
5
5
5
5
5
5
5
5
5
5
5
5
5
5
5
5
5
5
5
5
5
5
5
5
5
5
5
5
5
5
5
5
5
5
5
5
5
5
5
5
5
5
5
5
5
5
5
5
5
5
5
5
5
5
5
5
5
5
5
5
5
5
5
5
5
5
5
5
5
5
5
5
5
5
5
5
5
5
5
5
5
5
5
5
5
5
5
5
5
5
5
5
5
5
5
5
5
5
5
5
5
5
5
5
5
5
5
5
5
5
5
5
5
5
5
5
5
5
5
5
5
5
5
5
5
5
5
5
5
5
5
5
5
5
5
5
5
5
5
5
5
5
5
5
5
5
5
5
5
5
5
5
5
5
5
5
5
5
5
5
5
5
5
5
5
5
5
5
5
5
5
5
5
5
5
5
5
5
5
5
5
5
5
5
5
5
5
5
5
5
5
5
5
5
5
5
5
5
5
5
5
5
5
5
5
5
5
5
5
5
5
5
5
5
5
5
5
5
5
5
5
5
5
5
5
5
5
5
5
5
5
5
5
5
5
5
5
5
5
5
5
5
5
5
5
5
5
5
5
5
5
5
5
5
5
5
5
POINT_DATA 296
SCALARS concentrations float 4
LOOKUP_TABLE default
0 0.945451 0.105407 176.744
0 0.945601 0.107307 213.029
0 0.945175 0.106747 51.8923
0 0.945341 0.101387 90.0117
0 0.94531 0.0932805 22.9074
0 0.945513 0.106921 170.92
0 0.945462 0.103323 69.5415
0 0.945496 0.093274 15.7726
0 0.94551 0.0926438 3.36194
0 0.945632 0.101144 17.6249
0 0.945596 0.0991927 40.156
0 0.945753 0.10458 18.2152
0 0.945833 0.109039 93.2283
0 0.945252 0.0930556 20.5442
0 0.945493 0.0926139 17.496
0 0.94534 0.0918565 10.0071
0 0.94539 0.0917883 7.20877
0 0.945437 0.092065 3.66234
0 0.945502 0.0921691 8.87048
0 0.945436 0.0914984 4.31787
0 0.945422 0.091352 2.5633
0 0.94566 0.10032 33.3753
0 0.945797 0.100775 4.5009
0 0.945569 0.0916441 7.02218
0 0.945578 0.0918508 6.96043
0 0.94571 0.0932744 21.0251
0 0.945454 0.101521 49.9318
0 0.945578 0.0930239 17.2748
0 0.945361 0.0974068 7.01022
0 0.945381 0.0918853 10.3511
0 0.945477 0.0918748 10.5852
0 0.945403 0.0914582 5.40138
0 0.945838 0.100363 38.7866
0 0.945412 0.0912733 3.27831
0 0.945423 0.0911797 2.14917
0 0.945432 0.0911632 3.28148
0 0.945463 0.0912295 3.70801
0 0.94543 0.0910559 1.12514
0 0.945424 0.0910817 1.70158
0 0.945681 0.0923477 8.54088
0 0.945761 0.0922468 6.28801
0 0.945511 0.0911866 3.92483
0 0.945565 0.091199 1.62567
0 0.945795 0.102703 115.133
0 0.945509 0.0918037 7.81845
0 0.945398 0.0924398 9.376
0 0.945461 0.0915582 4.71501
0 0.945277 0.0999372 48.6398
0 0.945374 0.0919371 4.93583
0 0.945296 0.102715 78.8874
0 0.945434 0.0914103 5.3132
0 0.945457 0.0914397 5.6845
0 0.945449 0.0911106 1.69701
0 0.945771 0.0921818 9.21298
0 0.945679 0.0925248 8.65671
0 0.945447 0.0910885 1.74738
0 0.945438 0.0910776 2.1659
0 0.94546 0.0910754 2.55213
0 0.945447 0.091046 1.23345
0 0.945625 0.091254 1.9503
0 0.945661 0.091332 2.98055
0 0.945491 0.091042 1.50142
0 0.945537 0.0910858 0.960526
0 0.945635 0.104837 4.59445
0 0.945467 0.0911774 2.10387
0 0.945429 0.0913693 4.07382
0 0.945463 0.0911901 2.43553
0 0.945331 0.0916774 4.50134
0 0.94544 0.091366 5.2627
0 0.94573 0.103641 92.7407
0 0.94554 0.0919318 5.85459
0 0.945869 0.1012 37.9364
0 0.945468 0.091071 0.917567
0 0.945466 0.0910716 1.08806
0 0.945476 0.0910657 0.939692
0 0.945651 0.0912945 2.28104
0 0.945673 0.0921426 3.08984
0 0.94564 0.0913811 2.19313
0 0.945464 0.0911087 1.87296
0 0.945481 0.0910938 1.32827
0 0.945463 0.0910068 0.900925
0 0.945466 0.0910406 0.764856
0 0.945558 0.0911217 1.6701
0 0.945585 0.0911734 2.0353
0 0.945498 0.0909951 1.04608
0 0.945747 0.102795 53.0971
0 0.945493 0.0911434 2.61396
0 0.945487 0.0912755 4.30849
0 0.945523 0.0913183 4.59496
0 0.945522 0.0913057 5.07087
0 0.945804 0.09212 4.07133
0 0.94566 0.0914122 5.01087
0 0.945812 0.0988441 103.135
0 0.945823 0.0918362 2.15239
0 0.94549 0.0910722 0.68923
0 0.945494 0.0910942 1.39926
0 0.945499 0.0910615 0.338749
0 0.945528 0.0911453 2.5554
0 0.945786 0.0964391 32.1406
0 0.945665 0.0924544 5.06007
0 0.945579 0.0911939 1.93937
0 0.945625 0.0914992 2.02709
0 0.945588 0.0912625 2.0886
0 0.945494 0.0910909 1.39806
0 0.945481 0.0910774 1.18364
0 0.945479 0.0910044 0.804517
0 0.945481 0.0910423 0.8834
0 0.945527 0.0910564 1.48098
0 0.945498 0.0909906 1.23896
0 0.9456 0.100074 11.5337
0 0.945548 0.0911882 3.37222
0 0.945596 0.0912732 4.65081
0 0.945764 0.0912831 3.18801
0 0.945672 0.0912538 3.99564
0 0.945789 0.0917603 4.99188
0 0.945776 0.0913051 2.00249
0 0.945773 0.0922373 6.55797
0 0.945503 0.0910668 1.00891
0 0.945496 0.0910651 1.15097
0 0.945508 0.0910739 0.94993
0 0.945519 0.0910681 0.847018
0 0.945573 0.0910766 1.46259
0 0.945543 0.0910911 1.63753
0 0.945515 0.091045 0.747892
0 0.945732 0.100463 41.2364
0 0.945622 0.0926578 8.08169
0 0.945618 0.0914475 2.78044
0 0.945539 0.0910922 1.53463
0 0.945576 0.0912236 1.92975
0 0.94549 0.0910672 1.2511
0 0.945488 0.0910177 0.960537
0 0.945508 0.0909992 1.2334
0 0.945495 0.0909945 1.16465
0 0.945727 0.0924344 6.82886
0 0.945706 0.0971592 33.0907
0 0.94562 0.0910925 1.89016
0 0.945703 0.0911368 1.99027
0 0.945765 0.091336 1.75327
0 0.945726 0.0911425 0.900493
0 0.945656 0.0921331 11.5093
0 0.945723 0.0912048 2.0125
0 0.94561 0.0910225 0.503839
0 0.945495 0.0910451 1.08435
0 0.945503 0.0910417 0.898168
0 0.945533 0.0910279 0.154086
0 0.945565 0.0910379 0.681225
0 0.945585 0.091028 0.339858
0 0.945529 0.0910032 0.477148
0 0.945513 0.0910065 0.700443
0 0.945546 0.0923034 10.0605
0 0.945511 0.105315 103.561
0 0.945511 0.0909999 0.980529
0 0.945622 0.0914818 2.86661
0 0.945574 0.0911835 1.65387
0 0.945533 0.0910572 1.15817
0 0.945632 0.0915669 2.66225
0 0.945491 0.0910253 0.996048
0 0.945495 0.0909947 1.0192
0 0.945492 0.0910249 0.918326
0 0.945495 0.0909972 0.603557
0 0.945705 0.0924703 7.4661
0 0.945802 0.0991846 24.8288
0 0.94566 0.0910292 0.743391
0 0.945706 0.0910866 0.72128
0 0.945668 0.091231 1.22179
0 0.945693 0.0911088 0.687021
0 0.945622 0.0914044 2.385
0 0.945626 0.0910356 0.40567
0 0.945499 0.0910034 0.809161
0 0.945551 0.0910062 0.325751
0 0.945582 0.0910645 0.305155
0 0.94553 0.0910107 0.54552
0 0.945508 0.0910077 0.599045
0 0.945506 0.0918938 5.93875
0 0.945456 0.100952 94.316
0 0.945504 0.0910041 0.363277
0 0.945563 0.0911855 1.06045
0 0.945528 0.0910532 0.6103
0 0.945597 0.0915263 2.26324
0 0.945552 0.0912767 1.41618
0 0.945488 0.0910162 0.878997
0 0.945485 0.0910061 0.653049
0 0.945488 0.0910077 0.718192
0 0.945483 0.0910073 0.34007
0 0.945486 0.0910395 0.193731
0 0.945532 0.0914669 2.44476
0 0.945625 0.0921902 8.04768
0 0.945695 0.100194 27.116
0 0.945657 0.0910535 0.507188
0 0.945663 0.0911314 0.605042
0 0.945607 0.0914592 1.73035
0 0.945644 0.0912082 0.957224
0 0.945617 0.0910654 0.116665
0 0.945578 0.0910484 0.151643
0 0.94549 0.0910063 0.51831
0 0.945549 0.091015 0.437626
0 0.945526 0.0910202 0.606414
0 0.945496 0.0910158 0.404505
0 0.945512 0.0910147 0.550317
0 0.945592 0.0914848 1.67772
0 0.945544 0.0923159 6.81752
0 0.945426 0.102978 104.51
0 0.945505 0.0910757 0.514103
0 0.945514 0.0912654 1.64911
0 0.945485 0.0912727 1.46501
0 0.945474 0.0910458 0.195527
0 0.945478 0.0910235 0.578322
0 0.945471 0.0910382 0.22241
0 0.945497 0.0913521 1.48591
0 0.945533 0.0915718 3.3019
0 0.945618 0.100338 95.7256
0 0.94563 0.0910393 0.315135
0 0.94562 0.0911116 0.740361
0 0.945591 0.0912022 1.41409
0 0.945593 0.0910554 0.402428
0 0.945558 0.0910169 0.394011
0 0.945478 0.0910174 0.333803
0 0.945485 0.0910153 0.258695
0 0.94553 0.0910134 0.513699
0 0.945505 0.0910176 0.346852
0 0.945546 0.0916082 1.58075
0 0.945556 0.0922614 2.1039
0 0.945568 0.100351 14.0132
0 0.945473 0.0910968 0.747555
0 0.945472 0.0911388 0.546265
0 0.945461 0.0910603 0.316895
0 0.945466 0.0910439 0.312925
0 0.945481 0.0911163 0.304387
0 0.94552 0.0913393 0.887258
0 0.945526 0.091991 3.66678
0 0.9455 0.100832 116.889
0 0.945591 0.0910404 1.06177
0 0.945555 0.0911856 2.13082
0 0.945565 0.0910568 0.944892
0 0.945542 0.0910127 0.617047
0 0.94547 0.0910157 0.193781
0 0.945484 0.0910117 0.115884
0 0.945522 0.0910106 0.456492
0 0.945503 0.0910139 0.311025
0 0.945527 0.0912691 3.1423
0 0.945491 0.0917062 3.88621
0 0.945477 0.0924146 3.02278
0 0.945491 0.0974608 16.3992
0 0.945462 0.0910448 0.37323
0 0.945461 0.0910377 0.348179
0 0.945486 0.0910631 0.751209
0 0.945559 0.0913742 1.22246
0 0.945687 0.0922184 5.33181
0 0.94566 0.0993374 44.3087
0 0.945551 0.0910791 1.5669
0 0.945539 0.0910084 0.804897
0 0.945471 0.0910193 0.411142
0 0.94549 0.0910038 0.51112
0 0.945514 0.0910114 0.611408
0 0.945524 0.0912313 3.25656
0 0.945483 0.0914941 4.05187
0 0.945406 0.0930726 7.37304
0 0.945416 0.100093 100.851
0 0.945467 0.0910186 1.02008
0 0.94549 0.0912102 1.62303
0 0.945552 0.0913044 0.896829
0 0.945683 0.0915389 0.9498
0 0.945835 0.100704 32.6674
0 0.945526 0.0910388 1.12646
0 0.945478 0.0910684 1.41832
0 0.945499 0.0910035 0.691735
0 0.945521 0.0911893 3.17279
0 0.945509 0.0913853 4.61037
0 0.94545 0.0925166 4.15805
0 0.945341 0.110914 14.5283
0 0.945481 0.0912849 2.46122
0 0.945527 0.0914476 2.32396
0 0.945613 0.0915835 1.16805
0 0.945677 0.0947178 1.07689
0 0.945476 0.0913139 2.70946
0 0.94551 0.0910655 1.56376
0 0.945475 0.0911346 1.72731
0 0.945486 0.0910424 1.00053
0 0.945523 0.0912151 3.01105
0 0.945556 0.0918169 5.67579
0 0.945532 0.102355 110.65
0 0.9455 0.0916258 4.08646
0 0.945582 0.0921534 3.78054
0 0.945672 0.0979062 9.59393
0 0.945455 0.0914599 3.85427
0 0.945478 0.0911881 1.98385
0 0.945442 0.0913015 3.56812
0 0.945517 0.091826 4.9943
0 0.945575 0.0991187 24.5303
0 0.945482 0.092645 8.97369
0 0.945548 0.0985879 64.6569
0 0.945369 0.0923824 9.27004
0 0.945377 0.0916906 3.59143
0 0.945437 0.10031 74.6207
0 0.945413 0.101499 30.8185
0 0.945268 0.100846 20.4973
VECTORS fa_u float
0.00851027 0.00354333 -0
0.00358891 0.00206844 -0
0.00487362 0.00130294 -0
0.00743783 0.00101313 -0
1e-08 0 0
0.00774269 0.0059258 -0
0.00326329 0.00327013 -0
1e-08 0 0
1e-08 0 0
0.00412987 0.00526884 -0
0.00387851 0.00662913 -0
0.00568309 3.41588e-05 -0
0.00686793 -0.000832538 0
1e-08 0 0
1e-08 0 0
1e-08 0 0
1e-08 0 0
1e-08 0 0
1e-08 0 0
1e-08 0 0
1e-08 0 0
0.00258558 0.00622193 -0
0.00189108 0.00712213 -0
1e-08 0 0
1e-08 0 0
1e-08 0 0
0.00792618 -0.00210279 0
1e-08 0 0
0.00651951 -0.00274982 0
1e-08 0 0
1e-08 0 0
1e-08 0 0
0.000770606 0.00593284 -0
1e-08 0 0
1e-08 0 0
1e-08 0 0
1e-08 0 0
1e-08 0 0
1e-08 0 0
1e-08 0 0
1e-08 0 0
1e-08 0 0
1e-08 0 0
-4.88609e-05 0.00839234 -0
1e-08 0 0
1e-08 0 0
1e-08 0 0
0.00630354 -0.00373496 0
1e-08 0 0
0.0041997 -0.0032687 0
1e-08 0 0
1e-08 0 0
1e-08 0 0
1e-08 0 0
1e-08 0 0
1e-08 0 0
1e-08 0 0
1e-08 0 0
1e-08 0 0
1e-08 0 0
1e-08 0 0
1e-08 0 0
1e-08 0 0
-0.000812947 0.00576558 0
1e-08 0 0
1e-08 0 0
1e-08 0 0
1e-08 0 0
1e-08 0 0
0.00468622 -0.00468096 0
1e-08 0 0
0.0031718 -0.00405504 0
1e-08 0 0
1e-08 0 0
1e-08 0 0
1e-08 0 0
1e-08 0 0
1e-08 0 0
1e-08 0 0
1e-08 0 0
1e-08 0 0
1e-08 0 0
1e-08 0 0
1e-08 0 0
1e-08 0 0
-0.00139143 0.00523846 0
1e-08 0 0
1e-08 0 0
1e-08 0 0
1e-08 0 0
1e-08 0 0
1e-08 0 0
0.00432816 -0.00733969 0
1e-08 0 0
1e-08 0 0
1e-08 0 0
1e-08 0 0
1e-08 0 0
0.00292108 -0.00713171 0
1e-08 0 0
1e-08 0 0
1e-08 0 0
1e-08 0 0
1e-08 0 0
1e-08 0 0
1e-08 0 0
1e-08 0 0
1e-08 0 0
1e-08 0 0
-0.00291358 0.00712056 0
1e-08 0 0
1e-08 0 0
1e-08 0 0
1e-08 0 0
1e-08 0 0
1e-08 0 0
1e-08 0 0
1e-08 0 0
1e-08 0 0
1e-08 0 0
1e-08 0 0
1e-08 0 0
1e-08 0 0
1e-08 0 0
0.00146536 -0.00555137 0
1e-08 0 0
1e-08 0 0
1e-08 0 0
1e-08 0 0
1e-08 0 0
1e-08 0 0
1e-08 0 0
1e-08 0 0
1e-08 0 0
-0.00371617 0.00638238 0
1e-08 0 0
1e-08 0 0
1e-08 0 0
1e-08 0 0
1e-08 0 0
1e-08 0 0
1e-08 0 0
1e-08 0 0
1e-08 0 0
1e-08 0 0
1e-08 0 0
1e-08 0 0
1e-08 0 0
1e-08 0 0
1e-08 0 0
0.000886572 -0.00667011 0
1e-08 0 0
1e-08 0 0
1e-08 0 0
1e-08 0 0
1e-08 0 0
1e-08 0 0
1e-08 0 0
1e-08 0 0
1e-08 0 0
1e-08 0 0
-0.00374927 0.00484596 0
1e-08 0 0
1e-08 0 0
1e-08 0 0
1e-08 0 0
1e-08 0 0
1e-08 0 0
1e-08 0 0
1e-08 0 0
1e-08 0 0
1e-08 0 0
1e-08 0 0
1e-08 0 0
2.49563e-05 -0.00607007 0
1e-08 0 0
1e-08 0 0
1e-08 0 0
1e-08 0 0
1e-08 0 0
1e-08 0 0
1e-08 0 0
1e-08 0 0
1e-08 0 0
1e-08 0 0
1e-08 0 0
1e-08 0 0
-0.00384362 0.00388578 0
1e-08 0 0
1e-08 0 0
1e-08 0 0
1e-08 0 0
1e-08 0 0
1e-08 0 0
1e-08 0 0
1e-08 0 0
1e-08 0 0
1e-08 0 0
1e-08 0 0
1e-08 0 0
1e-08 0 0
-0.00087726 -0.00696958 0
1e-08 0 0
1e-08 0 0
1e-08 0 0
1e-08 0 0
1e-08 0 0
1e-08 0 0
1e-08 0 0
1e-08 0 0
-0.0057597 0.00450296 0
1e-08 0 0
1e-08 0 0
1e-08 0 0
1e-08 0 0
1e-08 0 0
1e-08 0 0
1e-08 0 0
1e-08 0 0
1e-08 0 0
1e-08 0 0
1e-08 0 0
-0.0018751 -0.00703521 0
1e-08 0 0
1e-08 0 0
1e-08 0 0
1e-08 0 0
1e-08 0 0
1e-08 0 0
1e-08 0 0
-0.00565302 0.00331639 0
1e-08 0 0
1e-08 0 0
1e-08 0 0
1e-08 0 0
1e-08 0 0
1e-08 0 0
1e-08 0 0
1e-08 0 0
1e-08 0 0
1e-08 0 0
1e-08 0 0
-0.00259174 -0.00622684 0
1e-08 0 0
1e-08 0 0
1e-08 0 0
1e-08 0 0
1e-08 0 0
-0.00782993 0.00323908 0
1e-08 0 0
1e-08 0 0
1e-08 0 0
1e-08 0 0
1e-08 0 0
1e-08 0 0
1e-08 0 0
1e-08 0 0
-0.00358418 -0.00615399 0
1e-08 0 0
1e-08 0 0
1e-08 0 0
1e-08 0 0
-0.00531018 0.00140941 0
1e-08 0 0
1e-08 0 0
1e-08 0 0
1e-08 0 0
1e-08 0 0
1e-08 0 0
-0.004179 -0.00537482 0
1e-08 0 0
1e-08 0 0
1e-08 0 0
-0.00779833 0.00101439 0
1e-08 0 0
1e-08 0 0
1e-08 0 0
1e-08 0 0
1e-08 0 0
1e-08 0 0
-0.00436504 -0.00433066 0
1e-08 0 0
1e-08 0 0
-0.00706514 -6.16012e-05 0
1e-08 0 0
1e-08 0 0
1e-08 0 0
1e-08 0 0
-0.00515321 -0.00395427 0
1e-08 0 0
-0.00551627 -0.000752767 0
1e-08 0 0
1e-08 0 0
-0.00566981 -0.00328685 0
-0.00590624 -0.00155493 0
-0.00718021 -0.00295342 0
