# vtk DataFile Version 2.0
CellBP Time: 8.4
ASCII
DATASET UNSTRUCTURED_GRID
POINTS 296 double
-8.92988 -3.66334 0
-8.355 -4.79994 0
-9.33227 -2.45403 0
-9.59004 -1.2145 0
-8.25885 -2.77521 0
-7.65607 -5.86644 0
-6.81284 -6.82139 0
-7.81914 -3.81923 0
-7.24861 -4.80694 0
-5.86439 -7.66308 0
-4.82085 -8.37926 0
-9.67385 0.0467928 0
-9.60414 1.31627 0
-8.56612 -1.65805 0
-8.70192 -0.521478 0
-7.49392 -1.96935 0
-7.12747 -2.85832 0
-6.5615 -5.71908 0
-5.76439 -6.53879 0
-6.69606 -3.83069 0
-6.13874 -4.61696 0
-3.67862 -8.94002 0
-2.47082 -9.35399 0
-4.86722 -7.25189 0
-3.89115 -7.83088 0
-8.71541 0.634388 0
-9.3684 2.57306 0
-8.55398 1.75378 0
-8.95027 3.77632 0
-7.65508 -0.910753 0
-7.71148 0.0833823 0
-6.86699 -1.29196 0
-1.21551 -9.59653 0
-6.36335 -2.12034 0
-6.23994 -3.01125 0
-5.47108 -5.41681 0
-4.74591 -6.05887 0
-5.58864 -3.70871 0
-5.20167 -4.5068 0
-2.84843 -8.30328 0
-1.76318 -8.57429 0
-3.89493 -6.6684 0
-3.03831 -7.09892 0
0.0525095 -9.68087 0
-7.62862 1.13123 0
-8.27967 2.89376 0
-7.48075 2.08684 0
-8.37483 4.91058 0
-7.81122 3.94165 0
-7.65859 5.9645 0
-6.70087 -0.386999 0
-6.879 0.550052 0
-5.71284 -0.991006 0
-0.584377 -8.73613 0
0.555638 -8.68735 0
-5.24825 -2.44975 0
-4.43663 -5.04049 0
-3.86029 -5.72042 0
-4.39313 -3.76504 0
-2.04672 -7.5029 0
-1.12672 -7.72016 0
-2.96682 -6.04877 0
-2.29299 -6.56665 0
1.31466 -9.58628 0
-6.62153 1.40561 0
-7.10013 3.08405 0
-6.5927 2.34695 0
-7.22246 4.93803 0
-6.64991 3.95855 0
-6.81536 6.9119 0
-6.50631 5.83163 0
-5.86279 7.7546 0
-4.42207 -1.17401 0
-5.7617 0.504924 0
-4.62461 -0.017032 0
0.00170763 -7.77201 0
1.7115 -8.54987 0
0.928671 -7.67915 0
-4.0099 -2.38586 0
-3.47427 -1.38688 0
-3.26546 -4.76248 0
-3.24735 -3.24292 0
-1.37192 -6.61548 0
-0.512443 -6.95606 0
-1.96197 -5.49349 0
2.55882 -9.32576 0
-5.45724 2.01902 0
-6.03329 3.03754 0
-6.04212 4.8141 0
-5.70157 3.94325 0
-5.70198 6.64307 0
-5.39463 5.55369 0
-4.81397 8.47343 0
-4.78696 7.3202 0
-3.48645 -0.423151 0
-4.4158 1.23955 0
-3.68993 0.58881 0
-4.02979 2.30909 0
-3.68187 9.04758 0
2.81885 -8.22952 0
0.402048 -6.71888 0
1.98581 -7.43264 0
1.27671 -6.82069 0
-2.43873 -0.869133 0
-2.82902 -2.12057 0
-2.28275 -4.06786 0
-2.31602 -2.95548 0
-0.445986 -5.80453 0
-1.21314 -4.46786 0
3.76743 -8.92846 0
-4.74451 3.35914 0
-5.03466 4.5396 0
-4.59631 6.20567 0
-4.49019 5.29537 0
-3.80833 7.91479 0
-3.78254 6.76076 0
-2.75381 8.33496 0
-1.64648 -0.13362 0
-1.44684 -0.886522 0
-2.48384 0.511126 0
-3.23493 1.44072 0
-3.2141 3.29372 0
-2.89334 2.36648 0
-1.35479 0.631272 0
-2.4718 9.44466 0
3.87904 -7.78836 0
2.91377 -7.05724 0
0.93327 -5.75595 0
2.0362 -6.33094 0
-1.67695 -1.98542 0
-1.42663 -3.25847 0
0.0862219 -4.70591 0
-0.559886 -3.67276 0
4.87078 -7.22523 0
4.90617 -8.36646 0
-3.74105 4.50521 0
-3.69533 5.68576 0
-2.85325 7.20462 0
-2.97708 6.28124 0
-1.64475 8.65055 0
-1.91612 7.53932 0
-2.32278 4.02153 0
-0.728465 -1.32373 0
-0.83633 -0.2539 0
-1.93382 1.68397 0
-2.11673 2.86646 0
-1.30359 3.52833 0
-0.871848 1.35475 0
-0.284632 0.45932 0
-0.527225 8.79613 0
-1.21924 9.6849 0
1.09697 -4.52914 0
3.84826 -6.61496 0
2.94032 -6.00922 0
2.08482 -5.35741 0
4.72232 -6.11635 0
-0.554919 -2.46759 0
0.493249 -3.44211 0
0.054238 -1.60752 0
1.46647 -3.64941 0
5.80299 -6.53224 0
5.95965 -7.65177 0
-2.45313 5.2959 0
-2.10487 6.46345 0
-0.891179 7.72985 0
-1.25321 6.85988 0
0.0887843 7.81371 0
-1.13815 4.46323 0
0.148855 -0.61469 0
-0.801657 2.48917 0
-0.337168 3.58837 0
0.0582325 1.51465 0
0.736719 0.47457 0
0.640841 8.80758 0
0.0470427 9.78443 0
2.35128 -4.23592 0
3.80578 -5.55908 0
2.95908 -5.14308 0
5.51377 -5.42062 0
4.63266 -5.20541 0
0.630115 -2.2886 0
1.24766 -2.93295 0
0.755854 -1.38916 0
2.14518 -3.10949 0
2.96441 -3.44038 0
6.09748 -4.73581 0
6.59392 -5.70634 0
6.92119 -6.81338 0
-1.00771 5.76726 0
-0.362559 6.81819 0
1.11483 7.71098 0
0.557926 7.0202 0
-0.00355118 4.69564 0
0.599046 3.81025 0
1.33469 -0.641303 0
0.531935 2.64529 0
0.958997 1.57492 0
1.9032 0.212738 0
1.607 1.06396 0
2.1165 7.52939 0
1.78709 8.65051 0
1.31873 9.70104 0
3.77941 -4.29539 0
5.06094 -4.38644 0
5.79161 -3.88693 0
3.74949 -3.16713 0
1.80473 -1.87909 0
2.99634 -2.55512 0
6.72873 -3.90949 0
7.32276 -4.85252 0
7.76401 -5.8635 0
0.482154 5.8352 0
1.42017 6.69023 0
2.36021 6.62099 0
1.20038 4.52954 0
1.4786 3.38117 0
2.42465 -0.690309 0
2.81474 0.142819 0
1.77934 2.15738 0
2.60172 1.14698 0
3.05389 7.1192 0
2.88886 8.31911 0
2.57343 9.45702 0
4.86568 -3.28712 0
6.06977 -3.07422 0
4.14183 -2.25775 0
3.22495 -1.49655 0
6.68323 -2.29546 0
7.18089 -3.02076 0
7.91019 -3.88691 0
8.48006 -4.81924 0
2.01189 5.56041 0
3.058 6.10433 0
2.35223 4.10039 0
2.40875 3.0444 0
3.50539 -0.456854 0
3.59635 0.614294 0
2.94636 2.27649 0
3.52315 1.51815 0
3.96915 5.84658 0
3.95094 6.74045 0
3.95144 7.88462 0
3.7846 9.05138 0
5.52809 -1.9001 0
4.4795 -1.12085 0
6.66248 -1.32453 0
7.53853 -2.02015 0
8.33994 -2.84294 0
9.04732 -3.68258 0
3.38386 4.83533 0
3.31155 3.35966 0
4.65912 0.132641 0
4.48112 1.29928 0
4.02752 2.42263 0
4.51304 5.10066 0
4.79324 6.1367 0
4.94036 7.32424 0
4.92351 8.48265 0
5.83454 -0.433194 0
6.9503 -0.487119 0
7.70154 -1.07315 0
8.62323 -1.73045 0
9.44669 -2.46946 0
4.4994 3.78866 0
5.75846 1.08216 0
5.30899 2.50409 0
5.30759 4.56764 0
5.54535 5.46834 0
5.83848 6.61434 0
5.97143 7.77226 0
6.77743 0.451097 0
7.78515 -0.0275252 0
8.79326 -0.574582 0
9.69891 -1.21573 0
6.88297 1.32547 0
5.64563 3.73174 0
6.46132 2.16327 0
6.29618 3.04417 0
6.20869 4.631 0
6.61584 5.77921 0
6.91877 6.92536 0
7.70717 0.952033 0
8.78158 0.566637 0
9.7811 0.0541494 0
7.52987 1.97409 0
6.73175 3.84821 0
7.17566 2.90257 0
7.29165 4.83116 0
7.76292 5.96942 0
8.63458 1.70483 0
9.68082 1.3162 0
8.32334 2.79956 0
7.89125 3.86944 0
8.46572 4.90806 0
9.43295 2.56341 0
9.03582 3.77166 0
CELLS 542 2168
3 2 0 4
3 0 1 7
3 4 0 7
3 1 5 8
3 7 1 8
3 3 2 13
3 13 2 4
3 11 3 14
3 14 3 13
3 13 4 15
3 4 7 16
3 15 4 16
3 5 6 17
3 8 5 17
3 6 9 18
3 17 6 18
3 7 8 19
3 16 7 19
3 8 17 20
3 19 8 20
3 9 10 23
3 18 9 23
3 10 21 24
3 23 10 24
3 12 11 25
3 25 11 14
3 26 12 27
3 27 12 25
3 14 13 29
3 29 13 15
3 25 14 30
3 30 14 29
3 29 15 31
3 15 16 33
3 31 15 33
3 16 19 34
3 33 16 34
3 17 18 35
3 20 17 35
3 18 23 36
3 35 18 36
3 19 20 37
3 34 19 37
3 20 35 38
3 37 20 38
3 21 22 39
3 24 21 39
3 22 32 40
3 39 22 40
3 23 24 41
3 36 23 41
3 24 39 42
3 41 24 42
3 27 25 44
3 44 25 30
3 28 26 45
3 45 26 27
3 45 27 46
3 46 27 44
3 47 28 48
3 48 28 45
3 30 29 50
3 50 29 31
3 44 30 51
3 51 30 50
3 50 31 52
3 31 33 52
3 32 43 53
3 40 32 53
3 53 43 54
3 33 34 55
3 34 37 55
3 33 55 52
3 35 36 56
3 38 35 56
3 36 41 57
3 56 36 57
3 37 38 58
3 38 56 58
3 37 58 55
3 39 40 59
3 42 39 59
3 40 53 60
3 59 40 60
3 41 42 61
3 57 41 61
3 42 59 62
3 61 42 62
3 43 63 54
3 46 44 64
3 64 44 51
3 48 45 65
3 65 45 46
3 65 46 66
3 66 46 64
3 49 47 67
3 67 47 48
3 67 48 68
3 68 48 65
3 69 49 70
3 70 49 67
3 52 55 72
3 64 51 73
3 51 50 73
3 50 52 73
3 73 52 74
3 74 52 72
3 53 54 75
3 60 53 75
3 54 63 76
3 54 76 77
3 75 54 77
3 55 58 78
3 72 55 78
3 72 78 79
3 56 57 80
3 57 61 80
3 56 80 58
3 58 80 81
3 78 58 81
3 59 60 82
3 62 59 82
3 60 75 83
3 82 60 83
3 61 62 84
3 62 82 84
3 61 84 80
3 63 85 76
3 66 64 86
3 64 73 86
3 68 65 87
3 87 65 66
3 87 66 86
3 70 67 88
3 88 67 68
3 88 68 89
3 89 68 87
3 71 69 90
3 90 69 70
3 90 70 91
3 91 70 88
3 92 71 93
3 93 71 90
3 74 72 94
3 94 72 79
3 86 73 95
3 95 73 74
3 95 74 96
3 96 74 94
3 97 86 95
3 76 85 99
3 75 77 100
3 83 75 100
3 76 99 101
3 77 76 101
3 77 101 102
3 100 77 102
3 94 79 103
3 78 81 104
3 79 78 104
3 79 104 103
3 80 84 105
3 81 80 105
3 81 105 106
3 104 81 106
3 82 83 107
3 83 100 107
3 82 107 84
3 84 107 108
3 105 84 108
3 85 109 99
3 89 87 110
3 87 86 110
3 110 86 97
3 91 88 111
3 111 88 89
3 111 89 110
3 93 90 112
3 112 90 91
3 112 91 113
3 113 91 111
3 98 92 114
3 114 92 93
3 114 93 115
3 115 93 112
3 116 98 114
3 117 103 118
3 96 94 119
3 94 103 119
3 119 103 117
3 97 95 120
3 120 95 96
3 120 96 119
3 121 110 97
3 121 97 122
3 122 97 120
3 123 119 117
3 124 98 116
3 99 109 125
3 99 125 126
3 101 99 126
3 100 102 127
3 100 127 107
3 101 126 128
3 102 101 128
3 102 128 127
3 104 106 129
3 104 129 103
3 103 129 118
3 105 108 130
3 106 105 130
3 106 130 129
3 107 127 131
3 108 107 131
3 108 131 132
3 108 132 130
3 109 134 125
3 125 134 133
3 113 111 135
3 111 110 135
3 135 110 121
3 115 112 136
3 136 112 113
3 136 113 135
3 116 114 137
3 137 114 115
3 137 115 138
3 138 115 136
3 139 124 116
3 139 116 140
3 140 116 137
3 141 135 121
3 118 129 142
3 118 142 143
3 117 118 143
3 123 117 143
3 122 120 144
3 120 119 144
3 144 119 123
3 141 121 145
3 145 121 122
3 145 122 144
3 146 141 145
3 147 144 123
3 147 123 148
3 143 148 123
3 150 124 139
3 149 150 139
3 131 127 151
3 125 133 152
3 126 125 152
3 126 152 153
3 128 126 153
3 128 153 154
3 128 154 127
3 127 154 151
3 152 133 155
3 130 132 156
3 130 156 129
3 129 156 142
3 131 151 157
3 132 131 157
3 132 157 156
3 156 158 142
3 157 151 159
3 133 160 155
3 134 161 133
3 133 161 160
3 138 136 162
3 136 135 162
3 162 135 141
3 140 137 163
3 163 137 138
3 163 138 162
3 149 139 164
3 164 139 140
3 164 140 165
3 165 140 163
3 166 149 164
3 167 162 141
3 167 141 146
3 142 158 168
3 143 142 168
3 143 168 148
3 146 145 169
3 145 144 169
3 169 144 147
3 170 167 146
3 170 146 169
3 171 169 147
3 171 147 148
3 171 148 172
3 168 172 148
3 173 149 166
3 174 150 149
3 173 174 149
3 154 175 151
3 151 175 159
3 152 155 176
3 153 152 176
3 153 176 177
3 153 177 154
3 154 177 175
3 155 160 178
3 155 178 179
3 176 155 179
3 156 157 180
3 156 180 158
3 157 159 181
3 157 181 180
3 158 180 182
3 158 182 168
3 159 175 183
3 159 183 181
3 175 184 183
3 160 186 178
3 178 186 185
3 161 187 160
3 160 187 186
3 165 163 188
3 163 162 188
3 188 162 167
3 166 164 189
3 189 164 165
3 189 165 188
3 190 173 166
3 190 166 191
3 191 166 189
3 192 188 167
3 192 167 170
3 193 192 170
3 182 194 168
3 194 172 168
3 193 170 195
3 170 169 195
3 195 169 171
3 196 195 171
3 196 171 172
3 194 197 172
3 197 198 172
3 198 196 172
3 200 173 190
3 199 200 190
3 201 174 173
3 200 201 173
3 176 179 202
3 177 176 202
3 177 202 175
3 175 202 184
3 178 185 203
3 178 203 179
3 179 203 202
3 203 185 204
3 202 205 184
3 183 206 181
3 180 181 206
3 180 206 182
3 182 206 194
3 183 184 207
3 205 207 184
3 183 207 206
3 185 208 204
3 186 209 185
3 185 209 208
3 187 210 186
3 186 210 209
3 191 189 211
3 189 188 211
3 211 188 192
3 199 190 212
3 212 190 191
3 212 191 211
3 213 199 212
3 214 211 192
3 214 192 193
3 215 214 193
3 215 193 195
3 206 216 194
3 216 197 194
3 216 217 197
3 215 195 218
3 218 195 196
3 198 218 196
3 217 219 197
3 219 218 198
3 197 219 198
3 220 199 213
3 221 200 199
3 220 221 199
3 222 201 200
3 221 222 200
3 203 204 223
3 203 223 202
3 202 223 205
3 204 208 224
3 204 224 223
3 205 223 225
3 205 225 207
3 207 225 226
3 207 226 206
3 226 216 206
3 208 228 224
3 224 228 227
3 209 229 208
3 229 228 208
3 210 230 209
3 209 230 229
3 213 212 231
3 212 211 231
3 231 211 214
3 232 220 213
3 232 213 231
3 233 231 214
3 233 214 215
3 234 233 215
3 234 215 218
3 226 235 216
3 235 217 216
3 235 236 217
3 217 236 219
3 237 234 218
3 237 218 219
3 236 238 219
3 238 237 219
3 240 220 232
3 239 240 232
3 241 221 220
3 240 241 220
3 242 222 221
3 241 242 221
3 224 227 243
3 224 243 223
3 223 243 225
3 225 243 244
3 225 244 226
3 226 244 235
3 227 245 243
3 228 246 227
3 227 246 245
3 229 247 228
3 228 247 246
3 230 248 229
3 229 248 247
3 239 232 249
3 232 231 249
3 249 231 233
3 250 249 233
3 250 233 234
3 237 250 234
3 244 251 235
3 235 251 236
3 251 252 236
3 236 252 238
3 252 253 238
3 253 250 237
3 253 237 238
3 254 239 249
3 255 240 239
3 254 255 239
3 256 241 240
3 255 256 240
3 257 242 241
3 256 257 241
3 245 258 243
3 243 258 244
3 244 258 251
3 245 259 258
3 246 260 245
3 245 260 259
3 247 261 246
3 246 261 260
3 248 262 247
3 247 262 261
3 254 249 263
3 263 249 250
3 253 263 250
3 258 264 251
3 251 264 252
3 264 265 252
3 265 263 253
3 252 265 253
3 266 254 263
3 267 255 254
3 266 267 254
3 268 256 255
3 267 268 255
3 269 257 256
3 268 269 256
3 259 270 258
3 270 264 258
3 260 271 259
3 259 271 270
3 261 272 260
3 260 272 271
3 262 273 261
3 273 272 261
3 270 274 264
3 275 266 263
3 275 263 265
3 274 276 264
3 276 265 264
3 276 277 265
3 277 275 265
3 278 267 266
3 275 278 266
3 279 268 267
3 278 279 267
3 280 269 268
3 279 280 268
3 271 281 270
3 270 281 274
3 272 282 271
3 271 282 281
3 273 283 272
3 272 283 282
3 281 284 274
3 274 284 276
3 285 278 275
3 277 285 275
3 284 286 276
3 286 285 277
3 276 286 277
3 287 279 278
3 285 287 278
3 288 280 279
3 287 288 279
3 282 289 281
3 281 289 284
3 283 290 282
3 282 290 289
3 289 291 284
3 284 291 286
3 291 292 286
3 292 287 285
3 286 292 285
3 293 288 287
3 292 293 287
3 290 294 289
3 289 294 291
3 294 295 291
3 295 293 292
3 291 295 292
CELL_TYPES 542
5
5
5
5
5
5
5
5
5
5
5
5
5
5
5
5
5
5
5
5
5
5
5
5
5
5
5
5
5
5
5
5
5
5
5
5
5
5
5
5
5
5
5
5
5
5
5
5
5
5
5
5
5
5
5
5
5
5
5
5
5
5
5
5
5
5
5
5
5
5
5
5
5
5
5
5
5
5
5
5
5
5
5
5
5
5
5
5
5
5
5
5
5
5
5
5
5
5
5
5
5
5
5
5
5
5
5
5
5
5
5
5
5
5
5
5
5
5
5
5
5
5
5
5
5
5
5
5
5
5
5
5
5
5
5
5
5
5
5
5
5
5
5
5
5
5
5
5
5
5
5
5
5
5
5
5
5
5
5
5
5
5
5
5
5
5
5
5
5
5
5
5
5
5
5
5
5
5
5
5
5
5
5
5
5
5
5
5
5
5
5
5
5
5
5
5
5
5
5
5
5
5
5
5
5
5
5
5
5
5
5
5
5
5
5
5
5
5
5
5
5
5
5
5
5
5
5
5
5
5
5
5
5
5
5
5
5
5
5
5
5
5
5
5
5
5
5
5
5
5
5
5
5
5
5
5
5
5
5
5
5
5
5
5
5
5
5
5
5
5
5
5
5
5
5
5
5
5
5
5
5
5
5
5
5
5
5
5
5
5
5
5
5
5
5
5
5
5
5
5
5
5
5
5
5
5
5
5
5
5
5
5
5
5
5
5
5
5
5
5
5
5
5
5
5
5
5
5
5
5
5
5
5
5
5
5
5
5
5
5
5
5
5
5
5
5
5
5
5
5
5
5
5
5
5
5
5
5
5
5
5
5
5
5
5
5
5
5
5
5
5
5
5
5
5
5
5
5
5
5
5
5
5
5
5
5
5
5
5
5
5
5
5
5
5
5
5
5
5
5
5
5
5
5
5
5
5
5
5
5
5
5
5
5
5
5
5
5
5
5
5
5
5
5
5
5
5
5
5
5
5
5
5
5
5
5
5
5
5
5
5
5
5
5
5
5
5
5
5
5
5
5
5
5
5
5
5
5
5
5
5
5
5
5
5
5
5
5
5
5
5
5
5
5
5
5
5
5
5
5
5
5
5
5
5
5
5
5
5
5
5
5
5
5
5
5
5
5
5
5
5
5
5
5
5
5
5
5
5
5
5
5
5
5
5
5
5
5
5
5
5
5
5
5
5
5
5
5
5
5
5
5
5
5
5
5
5
5
5
5
5
5
POINT_DATA 296
SCALARS concentrations float 4
LOOKUP_TABLE default
0 0.94559 0.104543 110.655
0 0.945611 0.103326 156.319
0 0.945997 0.10554 19.4416
0 0.946055 0.0982349 14.0055
0 0.945731 0.0927722 10.6852
0 0.945752 0.0988264 48.1813
0 0.945831 0.112313 121.502
0 0.945564 0.0923075 7.19333
0 0.945648 0.091926 8.34941
0 0.945647 0.106154 15.4185
0 0.945791 0.102546 35.913
0 0.945898 0.0992198 26.9069
0 0.945849 0.0967792 28.3614
0 0.945942 0.0922678 10.3548
0 0.945878 0.092465 5.51228
0 0.945682 0.0916252 3.74242
0 0.945595 0.0914885 3.2221
0 0.945751 0.0930825 2.45403
0 0.945702 0.0934372 12.3405
0 0.945566 0.091466 0.893511
0 0.945619 0.0916227 1.6914
0 0.94577 0.0985049 39.6373
0 0.945972 0.102726 3.13722
0 0.945691 0.0926587 17.9455
0 0.945756 0.0921902 9.32276
0 0.945798 0.0925556 7.02865
0 0.945823 0.0974622 38.9177
0 0.945775 0.0920597 6.73381
0 0.945654 0.100849 79.9297
0 0.945733 0.0917142 5.89868
0 0.945706 0.0915649 3.44638
0 0.945592 0.0913834 3.26308
0 0.94616 0.0999711 9.30906
0 0.945553 0.0912703 1.95219
0 0.945539 0.091252 1.41611
0 0.945649 0.0915033 3.6339
0 0.94566 0.0915533 3.87268
0 0.945543 0.0911937 0.272703
0 0.945577 0.0912543 1.43441
0 0.945803 0.0921914 12.9671
0 0.946002 0.0927024 16.2325
0 0.945668 0.0914786 6.4157
0 0.945715 0.0915206 5.78523
0 0.946026 0.10053 124.179
0 0.945679 0.0914587 2.68082
0 0.94571 0.0918421 5.41411
0 0.945641 0.0912855 1.87034
0 0.945232 0.0999898 61.6127
0 0.945453 0.0918903 5.35268
0 0.945199 0.0990111 21.9056
0 0.945588 0.0912745 2.84978
0 0.945594 0.0912345 2.02966
0 0.94552 0.0910551 0.997622
0 0.94603 0.0923105 13.2233
0 0.94589 0.0916248 11.2333
0 0.945515 0.0910238 0.526408
0 0.945589 0.0912588 2.81328
0 0.945612 0.0912679 3.14662
0 0.945537 0.0910509 1.18016
0 0.945782 0.091556 5.81332
0 0.945859 0.091468 4.92602
0 0.945623 0.091193 3.11941
0 0.945672 0.0912116 2.88965
0 0.945822 0.0999621 123.825
0 0.94556 0.0910569 0.766874
0 0.945542 0.0912566 2.17884
0 0.945536 0.0910336 1.13326
0 0.945249 0.0921112 7.72829
0 0.945415 0.0914711 3.2705
0 0.945467 0.0971573 39.0942
0 0.945352 0.0922128 7.09086
0 0.945672 0.0980842 13.3136
0 0.945496 0.09099 0.485109
0 0.945518 0.0909932 0.445651
0 0.945492 0.0910058 0.141799
0 0.945854 0.0913103 2.91809
0 0.945765 0.0915458 7.00845
0 0.945796 0.0912034 2.73152
0 0.945506 0.0909749 0.0311945
0 0.945489 0.0909948 0.387279
0 0.945567 0.0911037 2.05083
0 0.945528 0.0910342 1.02448
0 0.945698 0.0911349 1.52483
0 0.945748 0.0911575 0.627708
0 0.945605 0.0910531 1.75885
0 0.945688 0.0997632 23.1045
0 0.945493 0.0910164 1.03512
0 0.945475 0.0911522 1.35882
0 0.945378 0.091469 3.46365
0 0.945434 0.091315 2.08119
0 0.945549 0.0916546 3.48881
0 0.945441 0.0914298 2.94018
0 0.945565 0.0997099 102.062
0 0.945603 0.0914725 2.19988
0 0.94548 0.0909852 0.1687
0 0.945485 0.0910156 0.450427
0 0.945476 0.0910076 0.254834
0 0.94547 0.0910472 0.99203
0 0.94539 0.100817 63.3533
0 0.945664 0.0918322 6.57204
0 0.945728 0.0911592 1.17429
0 0.945732 0.0912521 2.22401
0 0.945722 0.0911723 2.02634
0 0.945484 0.0909762 0.121088
0 0.9455 0.0910026 0.361858
0 0.945553 0.0910704 1.66007
0 0.945519 0.0910364 1.07474
0 0.945642 0.0910846 1.60934
0 0.94558 0.0910793 1.8498
0 0.945588 0.0968545 41.3142
0 0.945461 0.091087 0.936727
0 0.94544 0.0912547 1.84953
0 0.945511 0.091248 2.03613
0 0.945465 0.0912068 2.03476
0 0.945484 0.0915837 6.94333
0 0.945525 0.0911424 1.4535
0 0.945505 0.0918389 6.75011
0 0.945478 0.0909863 0.431625
0 0.945488 0.091003 0.655739
0 0.945474 0.0909842 0.235784
0 0.94547 0.0910192 0.555976
0 0.945465 0.0910445 0.85447
0 0.945466 0.0910383 0.845248
0 0.945475 0.0909931 0.500266
0 0.9456 0.099144 46.1748
0 0.945637 0.0915956 6.43733
0 0.945686 0.0911653 2.28614
0 0.945654 0.0911264 2.13215
0 0.945689 0.0911237 1.81561
0 0.945503 0.091018 0.760017
0 0.945534 0.0910624 1.45927
0 0.945595 0.0910945 1.92476
0 0.945554 0.0910871 1.72966
0 0.945713 0.0923627 12.7003
0 0.945652 0.0963003 4.61254
0 0.945469 0.0910679 1.10217
0 0.945494 0.0910575 1.46004
0 0.945538 0.0910872 0.456289
0 0.945521 0.090988 1.06694
0 0.945731 0.0921009 7.0475
0 0.945615 0.0913355 1.80108
0 0.945482 0.0911004 1.16202
0 0.945498 0.0910337 1.00856
0 0.945484 0.0910183 0.884347
0 0.945471 0.0910067 0.511908
0 0.945472 0.0910486 0.850823
0 0.945486 0.0910427 0.92524
0 0.945477 0.0909991 0.571026
0 0.945483 0.0910131 0.871417
0 0.945839 0.0919003 6.55981
0 0.945889 0.101917 99.975
0 0.945606 0.0911193 2.25317
0 0.945688 0.091234 3.35653
0 0.945677 0.0910321 0.870671
0 0.945644 0.0911073 2.23933
0 0.945707 0.0915385 6.64568
0 0.945524 0.0910572 1.24857
0 0.945556 0.0911036 1.8429
0 0.945508 0.0910619 1.32606
0 0.945576 0.0911257 2.28955
0 0.945748 0.0927774 18.0371
0 0.945766 0.100791 46.7281
0 0.945508 0.0910724 1.28649
0 0.945555 0.0910898 1.06788
0 0.945705 0.091436 1.36727
0 0.94561 0.0912303 1.23611
0 0.945707 0.0912839 1.72531
0 0.945512 0.0910417 0.960428
0 0.945494 0.0910441 1.22563
0 0.945483 0.0909982 0.580133
0 0.945503 0.0909979 0.681972
0 0.945487 0.0909893 0.58648
0 0.945494 0.0910223 0.930606
0 0.945678 0.0915733 7.61113
0 0.945827 0.0993401 121.356
0 0.94561 0.0911193 2.60434
0 0.945674 0.0910554 1.17288
0 0.945646 0.0910493 1.59739
0 0.945705 0.0916857 7.44684
0 0.945676 0.0912176 2.74526
0 0.945527 0.0910813 1.51534
0 0.945544 0.091116 2.08559
0 0.94551 0.091071 1.47332
0 0.945562 0.091129 2.20532
0 0.945592 0.0911358 1.96112
0 0.94568 0.0917082 6.10306
0 0.945707 0.0926342 15.1004
0 0.945743 0.102265 82.2392
0 0.945556 0.0910839 1.01708
0 0.945629 0.0912045 0.811944
0 0.945642 0.0912041 1.21938
0 0.945639 0.091161 0.180097
0 0.94554 0.0910227 0.722875
0 0.945523 0.0910112 0.650286
0 0.945505 0.0910577 1.27482
0 0.945502 0.0909848 0.510558
0 0.945497 0.0909983 0.608947
0 0.945506 0.0910513 1.07279
0 0.945504 0.0910209 0.779284
0 0.945593 0.091203 1.40867
0 0.945515 0.0917276 6.79358
0 0.945511 0.100573 42.8128
0 0.945632 0.0910996 1.35956
0 0.945657 0.0912985 2.43992
0 0.945643 0.0913913 2.5351
0 0.945591 0.0911467 1.90902
0 0.945529 0.0910946 1.45511
0 0.945555 0.0911461 1.8941
0 0.945662 0.091503 2.00725
0 0.945682 0.0925514 8.5331
0 0.945688 0.0981334 34.8073
0 0.945585 0.0910435 0.543545
0 0.945614 0.0910702 0.379299
0 0.945609 0.0911098 0.930218
0 0.945558 0.0910243 0.615383
0 0.945529 0.0910143 0.58908
0 0.945518 0.0910888 1.39408
0 0.945517 0.0910812 1.2703
0 0.945515 0.091004 0.567877
0 0.945517 0.0910306 0.805922
0 0.945598 0.0912453 1.43552
0 0.945488 0.0916843 3.95296
0 0.945409 0.0994259 64.7776
0 0.945608 0.0911862 1.91935
0 0.945616 0.0912453 1.59377
0 0.945567 0.0911411 1.51401
0 0.945538 0.0911227 1.45926
0 0.945604 0.091197 0.377918
0 0.945654 0.0915947 1.41062
0 0.9457 0.0924637 4.69691
0 0.9457 0.0997063 27.7609
0 0.945586 0.0910438 0.620819
0 0.945602 0.0911041 1.094
0 0.945561 0.0910453 0.669055
0 0.945537 0.0910345 0.675603
0 0.945532 0.091095 1.28519
0 0.945532 0.0910695 1.05243
0 0.945534 0.0910306 0.695519
0 0.945536 0.0910406 0.854704
0 0.945601 0.0911728 1.39717
0 0.945611 0.0912461 2.0435
0 0.945583 0.0918393 7.19851
0 0.945456 0.102803 111.95
0 0.94558 0.0910798 1.01351
0 0.945553 0.0911048 1.13795
0 0.945592 0.0910716 0.28797
0 0.945643 0.0914858 2.12385
0 0.945742 0.0924307 9.73509
0 0.945768 0.0973581 48.7636
0 0.94558 0.0910872 0.844729
0 0.94556 0.0910434 0.754399
0 0.94555 0.0910549 0.803935
0 0.945555 0.0910179 0.71722
0 0.945557 0.0910074 0.696911
0 0.945584 0.0912033 1.57031
0 0.945598 0.0913178 1.17741
0 0.945618 0.0918569 3.07893
0 0.945641 0.100562 53.2181
0 0.945571 0.0910106 0.495053
0 0.945601 0.0910995 0.600175
0 0.945641 0.0913925 1.31601
0 0.945718 0.0921531 7.40971
0 0.945814 0.102515 16.2576
0 0.945572 0.0910666 0.999755
0 0.945578 0.0909805 0.58239
0 0.945576 0.0909887 0.623887
0 0.94557 0.0912046 1.88171
0 0.945559 0.091364 2.25167
0 0.945556 0.0916893 2.93333
0 0.945565 0.0986249 10.9253
0 0.945605 0.0910378 0.875432
0 0.945648 0.0912215 1.06164
0 0.945709 0.0917188 4.46583
0 0.945734 0.0993744 143.05
0 0.945624 0.0911008 1.22387
0 0.945575 0.0911067 1.25867
0 0.945611 0.0910722 0.52504
0 0.945597 0.0911402 0.493283
0 0.945534 0.0913361 2.75934
0 0.945494 0.0922071 6.31432
0 0.945519 0.0992666 12.026
0 0.945664 0.0912631 1.86721
0 0.945703 0.0918135 3.37896
0 0.945768 0.0993572 106.154
0 0.945668 0.0913298 2.42421
0 0.945565 0.0912817 1.69849
0 0.945634 0.0913759 1.83245
0 0.945436 0.0920388 8.35339
0 0.945394 0.0989652 31.1157
0 0.945686 0.0919628 4.42109
0 0.945678 0.0980122 4.29138
0 0.94571 0.0922291 8.15699
0 0.945567 0.0919318 8.40378
0 0.945414 0.101111 101.151
0 0.945735 0.102033 71.2753
0 0.945671 0.0992738 79.2553
VECTORS fa_u float
0.00779878 0.00324887 -0
0.00423826 0.00245053 -0
0.00511601 0.00137916 -0
0.00750091 0.00102452 -0
1e-08 0 0
0.00637039 0.00485995 -0
0.00410762 0.00409629 -0
1e-08 0 0
1e-08 0 0
0.00374782 0.00479221 -0
0.00416584 0.0071307 -0
0.00577715 3.21865e-05 -0
0.00661205 -0.000799464 0
1e-08 0 0
1e-08 0 0
1e-08 0 0
1e-08 0 0
1e-08 0 0
1e-08 0 0
1e-08 0 0
1e-08 0 0
0.00238493 0.00574994 -0
0.00194887 0.00731187 -0
1e-08 0 0
1e-08 0 0
1e-08 0 0
0.00836983 -0.00222464 0
1e-08 0 0
0.00656885 -0.00279212 0
1e-08 0 0
1e-08 0 0
1e-08 0 0
0.000777875 0.00600479 -0
1e-08 0 0
1e-08 0 0
1e-08 0 0
1e-08 0 0
1e-08 0 0
1e-08 0 0
1e-08 0 0
1e-08 0 0
1e-08 0 0
1e-08 0 0
-3.17068e-05 0.00782938 -0
1e-08 0 0
1e-08 0 0
1e-08 0 0
0.0054711 -0.00322958 0
1e-08 0 0
0.00525618 -0.00409572 0
1e-08 0 0
1e-08 0 0
1e-08 0 0
1e-08 0 0
1e-08 0 0
1e-08 0 0
1e-08 0 0
1e-08 0 0
1e-08 0 0
1e-08 0 0
1e-08 0 0
1e-08 0 0
1e-08 0 0
-0.000954411 0.00673611 0
1e-08 0 0
1e-08 0 0
1e-08 0 0
1e-08 0 0
1e-08 0 0
0.00393956 -0.00395212 0
1e-08 0 0
0.00367282 -0.00470738 0
1e-08 0 0
1e-08 0 0
1e-08 0 0
1e-08 0 0
1e-08 0 0
1e-08 0 0
1e-08 0 0
1e-08 0 0
1e-08 0 0
1e-08 0 0
1e-08 0 0
1e-08 0 0
1e-08 0 0
-0.00125585 0.00468258 0
1e-08 0 0
1e-08 0 0
1e-08 0 0
1e-08 0 0
1e-08 0 0
1e-08 0 0
0.00345805 -0.00583282 0
1e-08 0 0
1e-08 0 0
1e-08 0 0
1e-08 0 0
1e-08 0 0
0.00347573 -0.0083819 0
1e-08 0 0
1e-08 0 0
1e-08 0 0
1e-08 0 0
1e-08 0 0
1e-08 0 0
1e-08 0 0
1e-08 0 0
1e-08 0 0
1e-08 0 0
-0.00294038 0.00719494 0
1e-08 0 0
1e-08 0 0
1e-08 0 0
1e-08 0 0
1e-08 0 0
1e-08 0 0
1e-08 0 0
1e-08 0 0
1e-08 0 0
1e-08 0 0
1e-08 0 0
1e-08 0 0
1e-08 0 0
1e-08 0 0
0.00159452 -0.00616122 0
1e-08 0 0
1e-08 0 0
1e-08 0 0
1e-08 0 0
1e-08 0 0
1e-08 0 0
1e-08 0 0
1e-08 0 0
1e-08 0 0
-0.00373415 0.00641196 0
1e-08 0 0
1e-08 0 0
1e-08 0 0
1e-08 0 0
1e-08 0 0
1e-08 0 0
1e-08 0 0
1e-08 0 0
1e-08 0 0
1e-08 0 0
1e-08 0 0
1e-08 0 0
1e-08 0 0
1e-08 0 0
1e-08 0 0
0.000646079 -0.00478968 0
1e-08 0 0
1e-08 0 0
1e-08 0 0
1e-08 0 0
1e-08 0 0
1e-08 0 0
1e-08 0 0
1e-08 0 0
1e-08 0 0
1e-08 0 0
-0.00349574 0.0045355 0
1e-08 0 0
1e-08 0 0
1e-08 0 0
1e-08 0 0
1e-08 0 0
1e-08 0 0
1e-08 0 0
1e-08 0 0
1e-08 0 0
1e-08 0 0
1e-08 0 0
1e-08 0 0
5.15354e-05 -0.0081041 0
1e-08 0 0
1e-08 0 0
1e-08 0 0
1e-08 0 0
1e-08 0 0
1e-08 0 0
1e-08 0 0
1e-08 0 0
1e-08 0 0
1e-08 0 0
1e-08 0 0
1e-08 0 0
-0.00451268 0.0045533 0
1e-08 0 0
1e-08 0 0
1e-08 0 0
1e-08 0 0
1e-08 0 0
1e-08 0 0
1e-08 0 0
1e-08 0 0
1e-08 0 0
1e-08 0 0
1e-08 0 0
1e-08 0 0
1e-08 0 0
-0.000804368 -0.0062068 0
1e-08 0 0
1e-08 0 0
1e-08 0 0
1e-08 0 0
1e-08 0 0
1e-08 0 0
1e-08 0 0
1e-08 0 0
-0.00481384 0.0037631 0
1e-08 0 0
1e-08 0 0
1e-08 0 0
1e-08 0 0
1e-08 0 0
1e-08 0 0
1e-08 0 0
1e-08 0 0
1e-08 0 0
1e-08 0 0
1e-08 0 0
-0.00170719 -0.00647979 0
1e-08 0 0
1e-08 0 0
1e-08 0 0
1e-08 0 0
1e-08 0 0
1e-08 0 0
1e-08 0 0
-0.00646142 0.00380205 0
1e-08 0 0
1e-08 0 0
1e-08 0 0
1e-08 0 0
1e-08 0 0
1e-08 0 0
1e-08 0 0
1e-08 0 0
1e-08 0 0
1e-08 0 0
1e-08 0 0
-0.00292951 -0.00706567 0
1e-08 0 0
1e-08 0 0
1e-08 0 0
1e-08 0 0
1e-08 0 0
-0.00758384 0.00311977 0
1e-08 0 0
1e-08 0 0
1e-08 0 0
1e-08 0 0
1e-08 0 0
1e-08 0 0
1e-08 0 0
1e-08 0 0
-0.00348398 -0.00595638 0
1e-08 0 0
1e-08 0 0
1e-08 0 0
1e-08 0 0
-0.00538691 0.00142289 0
1e-08 0 0
1e-08 0 0
1e-08 0 0
1e-08 0 0
1e-08 0 0
1e-08 0 0
-0.00432176 -0.00553723 0
1e-08 0 0
1e-08 0 0
1e-08 0 0
-0.00693939 0.000919547 0
1e-08 0 0
1e-08 0 0
1e-08 0 0
1e-08 0 0
1e-08 0 0
1e-08 0 0
-0.00386494 -0.00384059 0
1e-08 0 0
1e-08 0 0
-0.00812412 -5.80338e-05 0
1e-08 0 0
1e-08 0 0
1e-08 0 0
1e-08 0 0
-0.00594838 -0.00456144 0
1e-08 0 0
-0.00531875 -0.000737958 0
1e-08 0 0
1e-08 0 0
-0.00487455 -0.00282325 0
-0.00558428 -0.00146688 0
-0.00786486 -0.00324445 0
