# vtk DataFile Version 2.0
CellBP Time: 9.64
ASCII
DATASET UNSTRUCTURED_GRID
POINTS 296 double
-8.92702 -3.66233 0
-8.36285 -4.80431 0
-9.32973 -2.45361 0
-9.59294 -1.21525 0
-8.25879 -2.77517 0
-7.65499 -5.86533 0
-6.81313 -6.82175 0
-7.81933 -3.82003 0
-7.24925 -4.80697 0
-5.86315 -7.66167 0
-4.82147 -8.38055 0
-9.66865 0.0465267 0
-9.60223 1.31601 0
-8.5663 -1.658 0
-8.70199 -0.521512 0
-7.49395 -1.9694 0
-7.12755 -2.85858 0
-6.56148 -5.71937 0
-5.76459 -6.53841 0
-6.69616 -3.83094 0
-6.13889 -4.61714 0
-3.67794 -8.93843 0
-2.47065 -9.35385 0
-4.86652 -7.25184 0
-3.89108 -7.83098 0
-8.71532 0.634438 0
-9.37055 2.57369 0
-8.55393 1.75396 0
-8.9513 3.7767 0
-7.65517 -0.910764 0
-7.71156 0.0833869 0
-6.86704 -1.29201 0
-1.21571 -9.59826 0
-6.36339 -2.12046 0
-6.24 -3.01144 0
-5.47105 -5.41679 0
-4.74582 -6.05883 0
-5.58867 -3.70884 0
-5.20168 -4.50685 0
-2.84823 -8.30347 0
-1.76342 -8.57462 0
-3.8947 -6.66835 0
-3.03817 -7.09892 0
0.0525232 -9.67527 0
-7.62868 1.13126 0
-8.27991 2.89396 0
-7.48089 2.0869 0
-8.37445 4.91045 0
-7.81145 3.94155 0
-7.65969 5.96537 0
-6.70096 -0.387043 0
-6.87911 0.550013 0
-5.71292 -0.991081 0
-0.58488 -8.73574 0
0.556091 -8.68673 0
-5.24834 -2.44988 0
-4.43656 -5.04047 0
-3.86019 -5.72037 0
-4.39315 -3.76509 0
-2.04669 -7.50288 0
-1.12679 -7.72001 0
-2.96669 -6.04868 0
-2.29288 -6.56655 0
1.31437 -9.5834 0
-6.62166 1.40558 0
-7.10027 3.08404 0
-6.59285 2.34694 0
-7.22254 4.93823 0
-6.65009 3.95859 0
-6.8156 6.91219 0
-6.50661 5.83169 0
-5.86409 7.75627 0
-4.42217 -1.17409 0
-5.7618 0.504876 0
-4.62469 -0.0170819 0
0.00180846 -7.77184 0
1.71194 -8.54997 0
0.928994 -7.67906 0
-4.00998 -2.38594 0
-3.47438 -1.38695 0
-3.2654 -4.76242 0
-3.24736 -3.24293 0
-1.37182 -6.61537 0
-0.512312 -6.95595 0
-1.96187 -5.49336 0
2.5587 -9.32482 0
-5.45732 2.01897 0
-6.03343 3.03754 0
-6.04229 4.8142 0
-5.70173 3.9433 0
-5.7021 6.6433 0
-5.39482 5.55382 0
-4.81612 8.4767 0
-4.78727 7.32031 0
-3.48655 -0.423222 0
-4.41587 1.23949 0
-3.69002 0.588742 0
-4.02984 2.30903 0
-3.68035 9.04334 0
2.81934 -8.23004 0
0.402292 -6.71886 0
1.98615 -7.43285 0
1.27703 -6.82077 0
-2.43882 -0.869218 0
-2.82908 -2.12062 0
-2.2827 -4.06781 0
-2.31602 -2.95548 0
-0.445823 -5.80447 0
-1.21306 -4.46778 0
3.76853 -8.93063 0
-4.74459 3.35912 0
-5.0348 4.53967 0
-4.5965 6.20581 0
-4.49036 5.29549 0
-3.80861 7.91472 0
-3.78275 6.76084 0
-2.75396 8.33462 0
-1.64654 -0.133708 0
-1.4469 -0.886616 0
-2.48394 0.511045 0
-3.235 1.44065 0
-3.21417 3.29368 0
-2.8934 2.36641 0
-1.35485 0.631183 0
-2.47098 9.44141 0
3.87887 -7.78902 0
2.91397 -7.05756 0
0.933492 -5.75601 0
2.03647 -6.33113 0
-1.67699 -1.98549 0
-1.42661 -3.25847 0
0.0863488 -4.7059 0
-0.559834 -3.67274 0
4.87029 -7.22518 0
4.90528 -8.36476 0
-3.74113 4.50522 0
-3.69548 5.68585 0
-2.85341 7.20456 0
-2.97722 6.28129 0
-1.64458 8.65045 0
-1.91621 7.53923 0
-2.32286 4.0215 0
-0.728493 -1.32382 0
-0.836364 -0.253996 0
-1.9339 1.68388 0
-2.1168 2.86639 0
-1.30367 3.52827 0
-0.871898 1.35465 0
-0.284656 0.459218 0
-0.527592 8.7961 0
-1.22005 9.69047 0
1.09712 -4.52921 0
3.84826 -6.6152 0
2.94048 -6.00943 0
2.08502 -5.35757 0
4.72223 -6.1163 0
-0.554919 -2.46765 0
0.493319 -3.44215 0
0.0542311 -1.60762 0
1.46658 -3.64952 0
5.80262 -6.53164 0
5.95947 -7.65141 0
-2.45322 5.29589 0
-2.10497 6.46343 0
-0.891307 7.72973 0
-1.25331 6.85981 0
0.0885373 7.81349 0
-1.13824 4.46316 0
0.148851 -0.61479 0
-0.80173 2.48907 0
-0.337261 3.58828 0
0.0581887 1.51453 0
0.736701 0.47445 0
0.640425 8.8071 0
0.0469826 9.78085 0
2.35143 -4.23607 0
3.80587 -5.55921 0
2.95923 -5.14325 0
5.51382 -5.42043 0
4.63274 -5.20544 0
0.63013 -2.28867 0
1.24773 -2.93304 0
0.755862 -1.38926 0
2.14527 -3.10963 0
2.96451 -3.44052 0
6.09768 -4.7357 0
6.59416 -5.70578 0
6.91849 -6.81061 0
-1.0078 5.76719 0
-0.362689 6.81806 0
1.11458 7.71062 0
0.557749 7.01997 0
-0.00365597 4.69553 0
0.598959 3.81012 0
1.33469 -0.641419 0
0.531874 2.64516 0
0.958959 1.57479 0
1.90319 0.212604 0
1.60698 1.06383 0
2.11629 7.52891 0
1.78689 8.64991 0
1.31866 9.69966 0
3.77954 -4.29552 0
5.06107 -4.3865 0
5.79177 -3.887 0
3.7496 -3.16728 0
1.80475 -1.8792 0
2.99641 -2.55526 0
6.72892 -3.90961 0
7.32327 -4.85257 0
7.76325 -5.86287 0
0.482043 5.83504 0
1.42 6.68993 0
2.36006 6.62062 0
1.20029 4.52939 0
1.47854 3.38103 0
2.42467 -0.69045 0
2.81476 0.142661 0
1.7793 2.15723 0
2.60171 1.14683 0
3.0538 7.11873 0
2.8885 8.31842 0
2.57394 9.45875 0
4.86581 -3.28727 0
6.06991 -3.07439 0
4.1419 -2.25791 0
3.22498 -1.4967 0
6.68334 -2.29563 0
7.181 -3.02091 0
7.91028 -3.88723 0
8.48166 -4.82012 0
2.01179 5.5602 0
3.05792 6.10401 0
2.35217 4.10022 0
2.40871 3.04424 0
3.50543 -0.457026 0
3.59638 0.614109 0
2.94634 2.27632 0
3.52316 1.51796 0
3.96911 5.84631 0
3.95099 6.74009 0
3.9517 7.8839 0
3.78178 9.04411 0
5.52817 -1.90029 0
4.47956 -1.12103 0
6.66259 -1.32468 0
7.53864 -2.02019 0
8.33987 -2.84284 0
9.04854 -3.68305 0
3.38379 4.83511 0
3.31151 3.35947 0
4.65918 0.132439 0
4.48114 1.29908 0
4.0275 2.42243 0
4.513 5.10043 0
4.79323 6.13649 0
4.94072 7.32418 0
4.92477 8.4843 0
5.83463 -0.433392 0
6.95047 -0.487252 0
7.70172 -1.07319 0
8.62343 -1.73034 0
9.44737 -2.46965 0
4.49937 3.78844 0
5.75853 1.08194 0
5.309 2.50387 0
5.30758 4.5674 0
5.54532 5.46812 0
5.83818 6.61438 0
5.97463 7.77651 0
6.77761 0.450914 0
7.7854 -0.0275931 0
8.79351 -0.574624 0
9.70152 -1.21617 0
6.88314 1.32525 0
5.64564 3.73151 0
6.46142 2.16304 0
6.29623 3.04395 0
6.20875 4.63074 0
6.61587 5.77872 0
6.91531 6.92191 0
7.70742 0.951886 0
8.78195 0.566758 0
9.77854 0.0539843 0
7.53003 1.97385 0
6.73179 3.84801 0
7.17573 2.90237 0
7.29197 4.83099 0
7.76247 5.96882 0
8.63497 1.70446 0
9.68304 1.31632 0
8.32319 2.79928 0
7.89118 3.86951 0
8.46779 4.90917 0
9.4305 2.56259 0
9.03357 3.77078 0
CELLS 542 2168
3 2 0 4
3 0 1 7
3 4 0 7
3 1 5 8
3 7 1 8
3 3 2 13
3 13 2 4
3 11 3 14
3 14 3 13
3 13 4 15
3 4 7 16
3 15 4 16
3 5 6 17
3 8 5 17
3 6 9 18
3 17 6 18
3 7 8 19
3 16 7 19
3 8 17 20
3 19 8 20
3 9 10 23
3 18 9 23
3 10 21 24
3 23 10 24
3 12 11 25
3 25 11 14
3 26 12 27
3 27 12 25
3 14 13 29
3 29 13 15
3 25 14 30
3 30 14 29
3 29 15 31
3 15 16 33
3 31 15 33
3 16 19 34
3 33 16 34
3 17 18 35
3 20 17 35
3 18 23 36
3 35 18 36
3 19 20 37
3 34 19 37
3 20 35 38
3 37 20 38
3 21 22 39
3 24 21 39
3 22 32 40
3 39 22 40
3 23 24 41
3 36 23 41
3 24 39 42
3 41 24 42
3 27 25 44
3 44 25 30
3 28 26 45
3 45 26 27
3 45 27 46
3 46 27 44
3 47 28 48
3 48 28 45
3 30 29 50
3 50 29 31
3 44 30 51
3 51 30 50
3 50 31 52
3 31 33 52
3 32 43 53
3 40 32 53
3 53 43 54
3 33 34 55
3 34 37 55
3 33 55 52
3 35 36 56
3 38 35 56
3 36 41 57
3 56 36 57
3 37 38 58
3 38 56 58
3 37 58 55
3 39 40 59
3 42 39 59
3 40 53 60
3 59 40 60
3 41 42 61
3 57 41 61
3 42 59 62
3 61 42 62
3 43 63 54
3 46 44 64
3 64 44 51
3 48 45 65
3 65 45 46
3 65 46 66
3 66 46 64
3 49 47 67
3 67 47 48
3 67 48 68
3 68 48 65
3 69 49 70
3 70 49 67
3 52 55 72
3 64 51 73
3 51 50 73
3 50 52 73
3 73 52 74
3 74 52 72
3 53 54 75
3 60 53 75
3 54 63 76
3 54 76 77
3 75 54 77
3 55 58 78
3 72 55 78
3 72 78 79
3 56 57 80
3 57 61 80
3 56 80 58
3 58 80 81
3 78 58 81
3 59 60 82
3 62 59 82
3 60 75 83
3 82 60 83
3 61 62 84
3 62 82 84
3 61 84 80
3 63 85 76
3 66 64 86
3 64 73 86
3 68 65 87
3 87 65 66
3 87 66 86
3 70 67 88
3 88 67 68
3 88 68 89
3 89 68 87
3 71 69 90
3 90 69 70
3 90 70 91
3 91 70 88
3 92 71 93
3 93 71 90
3 74 72 94
3 94 72 79
3 86 73 95
3 95 73 74
3 95 74 96
3 96 74 94
3 97 86 95
3 76 85 99
3 75 77 100
3 83 75 100
3 76 99 101
3 77 76 101
3 77 101 102
3 100 77 102
3 94 79 103
3 78 81 104
3 79 78 104
3 79 104 103
3 80 84 105
3 81 80 105
3 81 105 106
3 104 81 106
3 82 83 107
3 83 100 107
3 82 107 84
3 84 107 108
3 105 84 108
3 85 109 99
3 89 87 110
3 87 86 110
3 110 86 97
3 91 88 111
3 111 88 89
3 111 89 110
3 93 90 112
3 112 90 91
3 112 91 113
3 113 91 111
3 98 92 114
3 114 92 93
3 114 93 115
3 115 93 112
3 116 98 114
3 117 103 118
3 96 94 119
3 94 103 119
3 119 103 117
3 97 95 120
3 120 95 96
3 120 96 119
3 121 110 97
3 121 97 122
3 122 97 120
3 123 119 117
3 124 98 116
3 99 109 125
3 99 125 126
3 101 99 126
3 100 102 127
3 100 127 107
3 101 126 128
3 102 101 128
3 102 128 127
3 104 106 129
3 104 129 103
3 103 129 118
3 105 108 130
3 106 105 130
3 106 130 129
3 107 127 131
3 108 107 131
3 108 131 132
3 108 132 130
3 109 134 125
3 125 134 133
3 113 111 135
3 111 110 135
3 135 110 121
3 115 112 136
3 136 112 113
3 136 113 135
3 116 114 137
3 137 114 115
3 137 115 138
3 138 115 136
3 139 124 116
3 139 116 140
3 140 116 137
3 141 135 121
3 118 129 142
3 118 142 143
3 117 118 143
3 123 117 143
3 122 120 144
3 120 119 144
3 144 119 123
3 141 121 145
3 145 121 122
3 145 122 144
3 146 141 145
3 147 144 123
3 147 123 148
3 143 148 123
3 150 124 139
3 149 150 139
3 131 127 151
3 125 133 152
3 126 125 152
3 126 152 153
3 128 126 153
3 128 153 154
3 128 154 127
3 127 154 151
3 152 133 155
3 130 132 156
3 130 156 129
3 129 156 142
3 131 151 157
3 132 131 157
3 132 157 156
3 156 158 142
3 157 151 159
3 133 160 155
3 134 161 133
3 133 161 160
3 138 136 162
3 136 135 162
3 162 135 141
3 140 137 163
3 163 137 138
3 163 138 162
3 149 139 164
3 164 139 140
3 164 140 165
3 165 140 163
3 166 149 164
3 167 162 141
3 167 141 146
3 142 158 168
3 143 142 168
3 143 168 148
3 146 145 169
3 145 144 169
3 169 144 147
3 170 167 146
3 170 146 169
3 171 169 147
3 171 147 148
3 171 148 172
3 168 172 148
3 173 149 166
3 174 150 149
3 173 174 149
3 154 175 151
3 151 175 159
3 152 155 176
3 153 152 176
3 153 176 177
3 153 177 154
3 154 177 175
3 155 160 178
3 155 178 179
3 176 155 179
3 156 157 180
3 156 180 158
3 157 159 181
3 157 181 180
3 158 180 182
3 158 182 168
3 159 175 183
3 159 183 181
3 175 184 183
3 160 186 178
3 178 186 185
3 161 187 160
3 160 187 186
3 165 163 188
3 163 162 188
3 188 162 167
3 166 164 189
3 189 164 165
3 189 165 188
3 190 173 166
3 190 166 191
3 191 166 189
3 192 188 167
3 192 167 170
3 193 192 170
3 182 194 168
3 194 172 168
3 193 170 195
3 170 169 195
3 195 169 171
3 196 195 171
3 196 171 172
3 194 197 172
3 197 198 172
3 198 196 172
3 200 173 190
3 199 200 190
3 201 174 173
3 200 201 173
3 176 179 202
3 177 176 202
3 177 202 175
3 175 202 184
3 178 185 203
3 178 203 179
3 179 203 202
3 203 185 204
3 202 205 184
3 183 206 181
3 180 181 206
3 180 206 182
3 182 206 194
3 183 184 207
3 205 207 184
3 183 207 206
3 185 208 204
3 186 209 185
3 185 209 208
3 187 210 186
3 186 210 209
3 191 189 211
3 189 188 211
3 211 188 192
3 199 190 212
3 212 190 191
3 212 191 211
3 213 199 212
3 214 211 192
3 214 192 193
3 215 214 193
3 215 193 195
3 206 216 194
3 216 197 194
3 216 217 197
3 215 195 218
3 218 195 196
3 198 218 196
3 217 219 197
3 219 218 198
3 197 219 198
3 220 199 213
3 221 200 199
3 220 221 199
3 222 201 200
3 221 222 200
3 203 204 223
3 203 223 202
3 202 223 205
3 204 208 224
3 204 224 223
3 205 223 225
3 205 225 207
3 207 225 226
3 207 226 206
3 226 216 206
3 208 228 224
3 224 228 227
3 209 229 208
3 229 228 208
3 210 230 209
3 209 230 229
3 213 212 231
3 212 211 231
3 231 211 214
3 232 220 213
3 232 213 231
3 233 231 214
3 233 214 215
3 234 233 215
3 234 215 218
3 226 235 216
3 235 217 216
3 235 236 217
3 217 236 219
3 237 234 218
3 237 218 219
3 236 238 219
3 238 237 219
3 240 220 232
3 239 240 232
3 241 221 220
3 240 241 220
3 242 222 221
3 241 242 221
3 224 227 243
3 224 243 223
3 223 243 225
3 225 243 244
3 225 244 226
3 226 244 235
3 227 245 243
3 228 246 227
3 227 246 245
3 229 247 228
3 228 247 246
3 230 248 229
3 229 248 247
3 239 232 249
3 232 231 249
3 249 231 233
3 250 249 233
3 250 233 234
3 237 250 234
3 244 251 235
3 235 251 236
3 251 252 236
3 236 252 238
3 252 253 238
3 253 250 237
3 253 237 238
3 254 239 249
3 255 240 239
3 254 255 239
3 256 241 240
3 255 256 240
3 257 242 241
3 256 257 241
3 245 258 243
3 243 258 244
3 244 258 251
3 245 259 258
3 246 260 245
3 245 260 259
3 247 261 246
3 246 261 260
3 248 262 247
3 247 262 261
3 254 249 263
3 263 249 250
3 253 263 250
3 258 264 251
3 251 264 252
3 264 265 252
3 265 263 253
3 252 265 253
3 266 254 263
3 267 255 254
3 266 267 254
3 268 256 255
3 267 268 255
3 269 257 256
3 268 269 256
3 259 270 258
3 270 264 258
3 260 271 259
3 259 271 270
3 261 272 260
3 260 272 271
3 262 273 261
3 273 272 261
3 270 274 264
3 275 266 263
3 275 263 265
3 274 276 264
3 276 265 264
3 276 277 265
3 277 275 265
3 278 267 266
3 275 278 266
3 279 268 267
3 278 279 267
3 280 269 268
3 279 280 268
3 271 281 270
3 270 281 274
3 272 282 271
3 271 282 281
3 273 283 272
3 272 283 282
3 281 284 274
3 274 284 276
3 285 278 275
3 277 285 275
3 284 286 276
3 286 285 277
3 276 286 277
3 287 279 278
3 285 287 278
3 288 280 279
3 287 288 279
3 282 289 281
3 281 289 284
3 283 290 282
3 282 290 289
3 289 291 284
3 284 291 286
3 291 292 286
3 292 287 285
3 286 292 285
3 293 288 287
3 292 293 287
3 290 294 289
3 289 294 291
3 294 295 291
3 295 293 292
3 291 295 292
CELL_TYPES 542
5
5
5
5
5
5
5
5
5
5
5
5
5
5
5
5
5
5
5
5
5
5
5
5
5
5
5
5
5
5
5
5
5
5
5
5
5
5
5
5
5
5
5
5
5
5
5
5
5
5
5
5
5
5
5
5
5
5
5
5
5
5
5
5
5
5
5
5
5
5
5
5
5
5
5
5
5
5
5
5
5
5
5
5
5
5
5
5
5
5
5
5
5
5
5
5
5
5
5
5
5
5
5
5
5
5
5
5
5
5
5
5
5
5
5
5
5
5
5
5
5
5
5
5
5
5
5
5
5
5
5
5
5
5
5
5
5
5
5
5
5
5
5
5
5
5
5
5
5
5
5
5
5
5
5
5
5
5
5
5
5
5
5
5
5
5
5
5
5
5
5
5
5
5
5
5
5
5
5
5
5
5
5
5
5
5
5
5
5
5
5
5
5
5
5
5
5
5
5
5
5
5
5
5
5
5
5
5
5
5
5
5
5
5
5
5
5
5
5
5
5
5
5
5
5
5
5
5
5
5
5
5
5
5
5
5
5
5
5
5
5
5
5
5
5
5
5
5
5
5
5
5
5
5
5
5
5
5
5
5
5
5
5
5
5
5
5
5
5
5
5
5
5
5
5
5
5
5
5
5
5
5
5
5
5
5
5
5
5
5
5
5
5
5
5
5
5
5
5
5
5
5
5
5
5
5
5
5
5
5
5
5
5
5
5
5
5
5
5
5
5
5
5
5
5
5
5
5
5
5
5
5
5
5
5
5
5
5
5
5
5
5
5
5
5
5
5
5
5
5
5
5
5
5
5
5
5
5
5
5
5
5
5
5
5
5
5
5
5
5
5
5
5
5
5
5
5
5
5
5
5
5
5
5
5
5
5
5
5
5
5
5
5
5
5
5
5
5
5
5
5
5
5
5
5
5
5
5
5
5
5
5
5
5
5
5
5
5
5
5
5
5
5
5
5
5
5
5
5
5
5
5
5
5
5
5
5
5
5
5
5
5
5
5
5
5
5
5
5
5
5
5
5
5
5
5
5
5
5
5
5
5
5
5
5
5
5
5
5
5
5
5
5
5
5
5
5
5
5
5
5
5
5
5
5
5
5
5
5
5
5
5
5
5
5
5
5
5
5
5
5
5
5
5
5
5
5
5
5
5
5
5
5
5
5
5
5
5
5
5
5
5
5
5
5
5
5
5
5
5
5
5
5
5
5
5
5
5
5
5
5
5
POINT_DATA 296
SCALARS concentrations float 4
LOOKUP_TABLE default
0 0.946316 0.102846 5.58516
0 0.946047 0.105053 94.5796
0 0.946308 0.108075 36.5463
0 0.945743 0.0994931 65.8295
0 0.946181 0.0929752 9.07873
0 0.945987 0.10714 69.4575
0 0.945908 0.103207 117.048
0 0.94605 0.0929396 15.1003
0 0.945913 0.0929396 12.5354
0 0.94566 0.100799 88.5584
0 0.945594 0.099301 79.7597
0 0.945177 0.102364 117.003
0 0.945107 0.104609 127.422
0 0.945929 0.0927271 9.399
0 0.945444 0.0919222 6.18878
0 0.945803 0.0916796 4.6181
0 0.945866 0.0916735 3.45487
0 0.945866 0.0922465 6.78243
0 0.945716 0.0920154 6.9733
0 0.945799 0.0914308 2.15392
0 0.94573 0.0913384 2.37883
0 0.945664 0.102254 60.7027
0 0.94586 0.1042 36.5814
0 0.945584 0.0918687 4.0568
0 0.945584 0.091836 3.41845
0 0.945167 0.0923224 13.2105
0 0.945551 0.102266 128.704
0 0.945333 0.092379 10.9829
0 0.945831 0.100243 63.1106
0 0.945588 0.0916399 6.77628
0 0.945365 0.0915185 5.83771
0 0.945569 0.0913502 4.9
0 0.945803 0.103558 49.8324
0 0.945616 0.0912441 3.07825
0 0.945652 0.091164 1.46506
0 0.945648 0.0912189 0.207194
0 0.945573 0.0912708 0.962188
0 0.945595 0.091059 0.460328
0 0.945572 0.0910963 0.657709
0 0.94569 0.0921474 5.46144
0 0.945741 0.0925633 2.4586
0 0.94553 0.0911733 1.65167
0 0.945556 0.0911575 1.87036
0 0.94581 0.106071 60.7562
0 0.94532 0.0915283 5.85077
0 0.945648 0.0922922 9.53639
0 0.945447 0.0915203 3.95034
0 0.945867 0.10277 98.0239
0 0.945766 0.0920186 8.44143
0 0.945957 0.0998011 120.55
0 0.945451 0.0912407 4.18696
0 0.945382 0.0912393 3.55819
0 0.94548 0.0910965 1.72544
0 0.945718 0.0924082 7.11269
0 0.945603 0.0924177 12.9308
0 0.94551 0.0910698 0.303831
0 0.945513 0.0910758 0.651439
0 0.945492 0.0910628 0.802112
0 0.945486 0.0910228 0.595649
0 0.945576 0.091221 1.40933
0 0.945588 0.0912927 2.01451
0 0.945478 0.0910208 0.722353
0 0.945494 0.0910547 0.882964
0 0.94549 0.103667 83.0928
0 0.94541 0.0911417 1.76908
0 0.945586 0.0913491 2.04689
0 0.945472 0.0911914 1.22149
0 0.945816 0.0916112 5.58862
0 0.94566 0.0912938 1.29724
0 0.945844 0.103227 51.3642
0 0.945833 0.0922292 2.13307
0 0.945375 0.103722 59.8724
0 0.94546 0.0910651 0.808743
0 0.945434 0.0910535 1.26915
0 0.945449 0.0910635 0.963399
0 0.945536 0.0913037 2.78746
0 0.945372 0.0923213 6.2347
0 0.945441 0.091435 4.59376
0 0.945458 0.0910748 0.871169
0 0.945446 0.0910763 1.04245
0 0.945456 0.0910009 0.318429
0 0.945446 0.0910334 0.963529
0 0.945489 0.0910774 0.797135
0 0.94549 0.0911312 1.36138
0 0.94545 0.0909913 0.183037
0 0.945305 0.102442 61.2995
0 0.945462 0.0910879 0.42931
0 0.945531 0.091171 0.922739
0 0.945671 0.0913876 1.47983
0 0.945572 0.0911952 0.970741
0 0.945572 0.0925649 8.75393
0 0.945592 0.0913995 3.81685
0 0.945206 0.0987637 27.5601
0 0.945295 0.0918887 8.0627
0 0.945452 0.0910678 0.726828
0 0.945454 0.09108 0.673389
0 0.945457 0.09107 0.567889
0 0.945479 0.0911013 0.610326
0 0.945214 0.0999254 26.355
0 0.945307 0.0926929 12.2974
0 0.945449 0.0911985 2.15261
0 0.945357 0.0915885 5.78614
0 0.945404 0.0913023 3.38508
0 0.945451 0.0910783 1.03614
0 0.945443 0.0910674 1.12963
0 0.945439 0.0910152 0.804987
0 0.945439 0.0910445 1.03418
0 0.945446 0.0910373 0.424493
0 0.945439 0.0909967 0.727887
0 0.945319 0.105803 42.3071
0 0.945504 0.0910977 0.142164
0 0.945544 0.0911788 1.63194
0 0.945442 0.0913322 3.50177
0 0.945498 0.091207 2.76522
0 0.945241 0.0919947 1.97746
0 0.945335 0.0913252 3.67466
0 0.945306 0.0922006 10.8984
0 0.945465 0.0910693 0.709989
0 0.945459 0.0910701 1.00385
0 0.945465 0.0910712 0.62265
0 0.945472 0.0910761 0.197288
0 0.945492 0.091056 0.0713671
0 0.945486 0.0910799 0.0877677
0 0.94548 0.0910579 0.528725
0 0.945417 0.101717 76.6805
0 0.945316 0.0926245 15.5067
0 0.945319 0.0915245 5.1884
0 0.945423 0.0911049 1.25167
0 0.945374 0.091276 3.134
0 0.945448 0.0910725 1.25639
0 0.945442 0.0910322 1.05731
0 0.945439 0.0910057 0.653781
0 0.945445 0.0910131 1.17105
0 0.945235 0.0923901 11.5949
0 0.945317 0.101231 54.6772
0 0.94549 0.0910517 0.403302
0 0.945437 0.0911453 2.55793
0 0.945327 0.0912984 3.33508
0 0.945393 0.0911693 2.34843
0 0.945542 0.0918443 6.48035
0 0.945411 0.0912203 3.14497
0 0.945486 0.0910307 0.393472
0 0.945466 0.0910603 1.15222
0 0.945477 0.0910576 0.786839
0 0.945486 0.0910501 0.462276
0 0.945494 0.0910523 0.282886
0 0.945495 0.0910873 0.811535
0 0.945495 0.091033 0.458414
0 0.945494 0.0910364 0.634908
0 0.945643 0.0923142 4.63848
0 0.945725 0.102584 71.4162
0 0.945434 0.0910215 1.06646
0 0.945291 0.0914855 5.44788
0 0.945348 0.0912257 2.9842
0 0.945407 0.0910875 1.46475
0 0.945257 0.0915568 6.30357
0 0.945455 0.0910475 1.38982
0 0.945452 0.091021 1.36498
0 0.945473 0.0910514 1.38278
0 0.945451 0.0910337 1.51312
0 0.945141 0.0924357 13.0733
0 0.945119 0.0992696 50.6957
0 0.945461 0.091048 0.67147
0 0.94542 0.0911473 1.11188
0 0.945513 0.091399 2.6372
0 0.945454 0.0912275 1.0324
0 0.945594 0.0915378 4.02974
0 0.945485 0.0911067 0.772361
0 0.94549 0.0910299 0.979117
0 0.945502 0.0910533 0.609909
0 0.945506 0.0911568 1.71105
0 0.945508 0.0910414 0.76109
0 0.945509 0.0910381 1.01463
0 0.945691 0.0921946 7.59518
0 0.945663 0.102948 39.6578
0 0.945432 0.091041 1.61097
0 0.945341 0.0911923 3.30977
0 0.945394 0.0910864 1.9913
0 0.945294 0.0914893 5.61112
0 0.945348 0.0912713 4.05066
0 0.945472 0.091048 1.69894
0 0.945471 0.0910419 1.66992
0 0.945488 0.09104 1.47568
0 0.945468 0.0910479 1.84747
0 0.945452 0.0910682 2.20178
0 0.945414 0.0914271 4.0468
0 0.945279 0.0920851 7.87698
0 0.945111 0.101622 35.7686
0 0.945478 0.0911495 0.388451
0 0.945509 0.0912636 1.03391
0 0.945654 0.0915843 6.14995
0 0.94556 0.0913011 2.46215
0 0.945506 0.091163 1.57104
0 0.945522 0.0911441 1.67093
0 0.945504 0.0910427 1.43687
0 0.94552 0.0910698 0.867395
0 0.945522 0.0910409 1.02825
0 0.945523 0.0910451 1.37716
0 0.945529 0.0910345 1.14801
0 0.94569 0.0915994 6.56769
0 0.945807 0.0924683 13.9823
0 0.945841 0.100437 9.04794
0 0.945417 0.0910887 2.46573
0 0.945406 0.0912526 3.67339
0 0.94547 0.0912736 3.1639
0 0.945468 0.0910649 2.17785
0 0.945492 0.0910539 1.97486
0 0.945487 0.0910644 2.10711
0 0.945527 0.0914055 1.78012
0 0.945527 0.0915414 1.79338
0 0.945412 0.0997346 60.3841
0 0.945529 0.0911435 0.991463
0 0.94559 0.0911715 2.01817
0 0.945627 0.0912162 2.67588
0 0.945541 0.0911236 1.77649
0 0.945542 0.0910834 1.25719
0 0.945514 0.091042 1.62062
0 0.945534 0.0910279 1.31548
0 0.945541 0.0910321 1.00653
0 0.945544 0.0910311 1.2227
0 0.945697 0.0916346 5.69592
0 0.945764 0.0923274 14.5683
0 0.945859 0.100416 18.661
0 0.945476 0.0911004 2.36722
0 0.945517 0.0911661 2.08826
0 0.945502 0.0910616 2.01499
0 0.94551 0.0910534 1.92147
0 0.945534 0.0911753 1.02885
0 0.945552 0.0914606 1.66387
0 0.945622 0.0922539 2.00114
0 0.945659 0.101352 55.8948
0 0.945576 0.0910357 1.43594
0 0.945639 0.0911344 1.20559
0 0.945572 0.0910729 1.53049
0 0.945562 0.0910404 1.07045
0 0.945531 0.0910115 1.28303
0 0.945547 0.0909949 0.917147
0 0.945564 0.0910208 0.983273
0 0.945562 0.0910028 1.07891
0 0.945668 0.0911604 0.790557
0 0.945709 0.0915758 4.54791
0 0.945713 0.0924193 11.9856
0 0.945741 0.100025 35.073
0 0.94552 0.0910226 1.54617
0 0.945526 0.0910148 1.30798
0 0.945525 0.0911439 1.32836
0 0.945526 0.0914967 2.92256
0 0.94554 0.0925253 6.90965
0 0.945624 0.10017 26.9826
0 0.945612 0.09105 1.15894
0 0.945589 0.091022 1.02292
0 0.945542 0.0909755 0.723698
0 0.945561 0.0909722 0.776378
0 0.945582 0.0910061 1.1856
0 0.945668 0.0911185 1.36149
0 0.945734 0.0913281 2.79848
0 0.945738 0.0926332 15.0812
0 0.945706 0.0979068 32.6772
0 0.94553 0.0910077 0.391419
0 0.945503 0.091322 3.48622
0 0.945483 0.0914553 4.17325
0 0.945477 0.0917821 3.92089
0 0.945477 0.0989775 2.25778
0 0.945613 0.0910318 1.17673
0 0.945539 0.0910581 0.784065
0 0.945574 0.0909773 0.784372
0 0.945665 0.0911136 1.08292
0 0.945743 0.0912258 1.92634
0 0.945813 0.0922397 11.9402
0 0.945793 0.109658 192.679
0 0.945495 0.0913528 3.85049
0 0.945433 0.0916118 6.52487
0 0.945405 0.091806 7.76401
0 0.945442 0.096151 24.115
0 0.945483 0.0913473 4.18007
0 0.945612 0.0910648 0.543158
0 0.945517 0.0911222 2.25442
0 0.945557 0.0910571 0.885335
0 0.945681 0.0912647 0.511473
0 0.945816 0.091898 4.37168
0 0.94589 0.104198 125.734
0 0.945395 0.0917619 6.87423
0 0.945314 0.0925593 13.5087
0 0.945297 0.0987318 51.7254
0 0.945407 0.0915197 4.8991
0 0.945577 0.091289 0.645656
0 0.945467 0.0913145 2.12779
0 0.945654 0.0919105 4.17125
0 0.945798 0.0985835 52.6862
0 0.945278 0.0928098 11.3008
0 0.945237 0.102188 31.87
0 0.945331 0.09242 1.58405
0 0.945473 0.0920216 2.24762
0 0.945538 0.100626 28.8533
0 0.945204 0.101948 90.4646
0 0.945369 0.0998687 11.0784
VECTORS fa_u float
0.00681097 0.00280143 -0
0.00567638 0.00327758 -0
0.00476689 0.00129722 -0
0.00871412 0.0011813 -0
1e-08 0 0
0.00551753 0.00423837 -0
0.0043397 0.00432883 -0
1e-08 0 0
1e-08 0 0
0.00348773 0.00445622 -0
0.00446191 0.00763665 -0
0.0049521 1.8176e-05 -0
0.00654856 -0.000772442 0
1e-08 0 0
1e-08 0 0
1e-08 0 0
1e-08 0 0
1e-08 0 0
1e-08 0 0
1e-08 0 0
1e-08 0 0
0.00224425 0.00542054 -0
0.00195102 0.0072805 -0
1e-08 0 0
1e-08 0 0
1e-08 0 0
0.00884122 -0.00233878 0
1e-08 0 0
0.00659147 -0.00280978 0
1e-08 0 0
1e-08 0 0
1e-08 0 0
0.000856622 0.00672465 -0
1e-08 0 0
1e-08 0 0
1e-08 0 0
1e-08 0 0
1e-08 0 0
1e-08 0 0
1e-08 0 0
1e-08 0 0
1e-08 0 0
1e-08 0 0
-4.09967e-05 0.00698405 -0
1e-08 0 0
1e-08 0 0
1e-08 0 0
0.00525362 -0.00310036 0
1e-08 0 0
0.00543549 -0.00423286 0
1e-08 0 0
1e-08 0 0
1e-08 0 0
1e-08 0 0
1e-08 0 0
1e-08 0 0
1e-08 0 0
1e-08 0 0
1e-08 0 0
1e-08 0 0
1e-08 0 0
1e-08 0 0
1e-08 0 0
-0.000951189 0.00680219 0
1e-08 0 0
1e-08 0 0
1e-08 0 0
1e-08 0 0
1e-08 0 0
0.00379879 -0.00380876 0
1e-08 0 0
0.00367602 -0.00469806 0
1e-08 0 0
1e-08 0 0
1e-08 0 0
1e-08 0 0
1e-08 0 0
1e-08 0 0
1e-08 0 0
1e-08 0 0
1e-08 0 0
1e-08 0 0
1e-08 0 0
1e-08 0 0
1e-08 0 0
-0.00122157 0.00459257 0
1e-08 0 0
1e-08 0 0
1e-08 0 0
1e-08 0 0
1e-08 0 0
1e-08 0 0
0.00387229 -0.00657002 0
1e-08 0 0
1e-08 0 0
1e-08 0 0
1e-08 0 0
1e-08 0 0
0.00312278 -0.00759122 0
1e-08 0 0
1e-08 0 0
1e-08 0 0
1e-08 0 0
1e-08 0 0
1e-08 0 0
1e-08 0 0
1e-08 0 0
1e-08 0 0
1e-08 0 0
-0.0032002 0.00782195 0
1e-08 0 0
1e-08 0 0
1e-08 0 0
1e-08 0 0
1e-08 0 0
1e-08 0 0
1e-08 0 0
1e-08 0 0
1e-08 0 0
1e-08 0 0
1e-08 0 0
1e-08 0 0
1e-08 0 0
1e-08 0 0
0.00146784 -0.00558046 0
1e-08 0 0
1e-08 0 0
1e-08 0 0
1e-08 0 0
1e-08 0 0
1e-08 0 0
1e-08 0 0
1e-08 0 0
1e-08 0 0
-0.00349604 0.00598772 0
1e-08 0 0
1e-08 0 0
1e-08 0 0
1e-08 0 0
1e-08 0 0
1e-08 0 0
1e-08 0 0
1e-08 0 0
1e-08 0 0
1e-08 0 0
1e-08 0 0
1e-08 0 0
1e-08 0 0
1e-08 0 0
1e-08 0 0
0.000821529 -0.00609407 0
1e-08 0 0
1e-08 0 0
1e-08 0 0
1e-08 0 0
1e-08 0 0
1e-08 0 0
1e-08 0 0
1e-08 0 0
1e-08 0 0
1e-08 0 0
-0.00372896 0.00483039 0
1e-08 0 0
1e-08 0 0
1e-08 0 0
1e-08 0 0
1e-08 0 0
1e-08 0 0
1e-08 0 0
1e-08 0 0
1e-08 0 0
1e-08 0 0
1e-08 0 0
1e-08 0 0
2.58085e-05 -0.00713209 0
1e-08 0 0
1e-08 0 0
1e-08 0 0
1e-08 0 0
1e-08 0 0
1e-08 0 0
1e-08 0 0
1e-08 0 0
1e-08 0 0
1e-08 0 0
1e-08 0 0
1e-08 0 0
-0.00417092 0.00420645 0
1e-08 0 0
1e-08 0 0
1e-08 0 0
1e-08 0 0
1e-08 0 0
1e-08 0 0
1e-08 0 0
1e-08 0 0
1e-08 0 0
1e-08 0 0
1e-08 0 0
1e-08 0 0
1e-08 0 0
-0.000782079 -0.0061355 0
1e-08 0 0
1e-08 0 0
1e-08 0 0
1e-08 0 0
1e-08 0 0
1e-08 0 0
1e-08 0 0
1e-08 0 0
-0.0048094 0.00377693 0
1e-08 0 0
1e-08 0 0
1e-08 0 0
1e-08 0 0
1e-08 0 0
1e-08 0 0
1e-08 0 0
1e-08 0 0
1e-08 0 0
1e-08 0 0
1e-08 0 0
-0.00199475 -0.00749491 0
1e-08 0 0
1e-08 0 0
1e-08 0 0
1e-08 0 0
1e-08 0 0
1e-08 0 0
1e-08 0 0
-0.00670353 0.00395264 0
1e-08 0 0
1e-08 0 0
1e-08 0 0
1e-08 0 0
1e-08 0 0
1e-08 0 0
1e-08 0 0
1e-08 0 0
1e-08 0 0
1e-08 0 0
1e-08 0 0
-0.00232967 -0.00562028 0
1e-08 0 0
1e-08 0 0
1e-08 0 0
1e-08 0 0
1e-08 0 0
-0.00759112 0.0031189 0
1e-08 0 0
1e-08 0 0
1e-08 0 0
1e-08 0 0
1e-08 0 0
1e-08 0 0
1e-08 0 0
1e-08 0 0
-0.00372559 -0.00644497 0
1e-08 0 0
1e-08 0 0
1e-08 0 0
1e-08 0 0
-0.00520828 0.00137863 0
1e-08 0 0
1e-08 0 0
1e-08 0 0
1e-08 0 0
1e-08 0 0
1e-08 0 0
-0.0050455 -0.00642813 0
1e-08 0 0
1e-08 0 0
1e-08 0 0
-0.00752921 0.000988036 0
1e-08 0 0
1e-08 0 0
1e-08 0 0
1e-08 0 0
1e-08 0 0
1e-08 0 0
-0.00317113 -0.0031363 0
1e-08 0 0
1e-08 0 0
-0.00726639 -5.30336e-05 0
1e-08 0 0
1e-08 0 0
1e-08 0 0
1e-08 0 0
-0.00600959 -0.00463534 0
1e-08 0 0
-0.00602278 -0.000835598 0
1e-08 0 0
1e-08 0 0
-0.00538648 -0.00311494 0
-0.00523246 -0.00138455 0
-0.007493 -0.0030741 0
