# vtk DataFile Version 2.0
CellBP Time: 2.2
ASCII
DATASET UNSTRUCTURED_GRID
POINTS 296 double
-9.05336 -3.71809 0
-8.47338 -4.86971 0
-9.45776 -2.4931 0
-9.71544 -1.23376 0
-8.30421 -2.7953 0
-7.7584 -5.94347 0
-6.91076 -6.91565 0
-7.86406 -3.84516 0
-7.29183 -4.83517 0
-5.94713 -7.76733 0
-4.87948 -8.48353 0
-9.80384 0.0475658 0
-9.72185 1.33341 0
-8.60818 -1.67034 0
-8.74082 -0.525106 0
-7.53804 -1.98556 0
-7.17267 -2.88076 0
-6.59641 -5.74692 0
-5.79111 -6.56573 0
-6.73923 -3.85786 0
-6.17629 -4.64452 0
-3.72507 -9.0574 0
-2.50364 -9.47679 0
-4.88517 -7.27842 0
-3.9013 -7.85701 0
-8.75135 0.638421 0
-9.48344 2.60388 0
-8.58618 1.76304 0
-9.05944 3.82226 0
-7.69637 -0.91926 0
-7.75004 0.0818979 0
-6.90656 -1.30311 0
-1.23441 -9.72133 0
-6.39932 -2.13564 0
-6.27636 -3.03219 0
-5.50113 -5.44382 0
-4.76892 -6.08541 0
-5.62091 -3.73133 0
-5.23275 -4.53252 0
-2.85687 -8.33184 0
-1.77069 -8.60508 0
-3.91027 -6.69438 0
-3.04696 -7.12437 0
0.0514876 -9.80105 0
-7.6645 1.13685 0
-8.30725 2.90377 0
-7.51409 2.09844 0
-8.48174 4.9741 0
-7.8432 3.95857 0
-7.76541 6.0468 0
-6.73703 -0.391625 0
-6.9152 0.551152 0
-5.73993 -0.996837 0
-0.587639 -8.77008 0
0.560292 -8.72577 0
-5.27339 -2.46402 0
-4.46207 -5.06651 0
-3.87978 -5.74634 0
-4.41415 -3.78372 0
-2.05424 -7.53069 0
-1.131 -7.75084 0
-2.97973 -6.07405 0
-2.30063 -6.59189 0
1.33345 -9.71479 0
-6.6534 1.41318 0
-7.13384 3.09976 0
-6.62402 2.35901 0
-7.25602 4.96128 0
-6.68174 3.97902 0
-6.91238 7.01038 0
-6.53701 5.86018 0
-5.94233 7.85841 0
-4.43643 -1.17739 0
-5.78644 0.508953 0
-4.63937 -0.0140378 0
0.0047836 -7.80738 0
1.72413 -8.59318 0
0.938104 -7.71827 0
-4.02304 -2.39555 0
-3.4795 -1.38901 0
-3.27891 -4.78277 0
-3.25592 -3.25473 0
-1.37517 -6.6438 0
-0.510827 -6.98835 0
-1.9684 -5.51421 0
2.59501 -9.45517 0
-5.48075 2.02726 0
-6.06215 3.05352 0
-6.0715 4.83956 0
-5.72978 3.96542 0
-5.72935 6.67664 0
-5.42137 5.58369 0
-4.87699 8.58279 0
-4.8104 7.35865 0
-3.49345 -0.423807 0
-4.43149 1.24386 0
-3.69999 0.590212 0
-4.04494 2.31396 0
-3.72512 9.15777 0
2.83934 -8.2773 0
0.410222 -6.75473 0
2.00272 -7.47595 0
1.29041 -6.86033 0
-2.44143 -0.871459 0
-2.83335 -2.12567 0
-2.28821 -4.08193 0
-2.32049 -2.96416 0
-0.444366 -5.83124 0
-1.21763 -4.4828 0
3.81868 -9.0503 0
-4.76568 3.37409 0
-5.05958 4.56461 0
-4.61986 6.24029 0
-4.51287 5.32484 0
-3.82461 7.95066 0
-3.8029 6.7996 0
-2.76726 8.37511 0
-1.64759 -0.135782 0
-1.44834 -0.888601 0
-2.48625 0.509189 0
-3.24364 1.44219 0
-3.22567 3.30408 0
-2.90155 2.3688 0
-1.35484 0.629161 0
-2.50228 9.56689 0
3.90409 -7.83417 0
2.93752 -7.10401 0
0.942994 -5.78693 0
2.05405 -6.37046 0
-1.67967 -1.98871 0
-1.43023 -3.26776 0
0.0881045 -4.72535 0
-0.562778 -3.6832 0
4.89944 -7.26866 0
4.97374 -8.48115 0
-3.7577 4.52639 0
-3.71358 5.71612 0
-2.86917 7.24371 0
-2.99205 6.31441 0
-1.65282 8.68884 0
-1.92706 7.57614 0
-2.3299 4.03518 0
-0.729404 -1.32558 0
-0.836479 -0.255836 0
-1.93486 1.68233 0
-2.12085 2.8706 0
-1.30485 3.53574 0
-0.870625 1.35274 0
-0.283447 0.457586 0
-0.530231 8.83099 0
-1.23563 9.81186 0
1.10443 -4.55053 0
3.87726 -6.66259 0
2.96265 -6.04913 0
2.10033 -5.389 0
4.75151 -6.1578 0
-0.556657 -2.47215 0
0.494207 -3.45253 0
0.0540556 -1.60915 0
1.4738 -3.66488 0
5.83305 -6.57053 0
6.04402 -7.76155 0
-2.46343 5.3199 0
-2.11655 6.49612 0
-0.89703 7.76379 0
-1.26189 6.89325 0
0.0877037 7.84459 0
-1.14092 4.47767 0
0.149679 -0.616305 0
-0.799576 2.48873 0
-0.334474 3.5941 0
0.0606449 1.51359 0
0.739077 0.473841 0
0.643626 8.83824 0
0.0483678 9.90746 0
2.36531 -4.25903 0
3.83092 -5.59706 0
2.97903 -5.17563 0
5.54213 -5.45388 0
4.66024 -5.24169 0
0.630052 -2.29111 0
1.25178 -2.94171 0
0.756779 -1.39049 0
2.15431 -3.12198 0
2.97835 -3.45746 0
6.12491 -4.76211 0
6.62313 -5.7357 0
7.01184 -6.9079 0
-1.01306 5.79178 0
-0.367025 6.84858 0
1.11869 7.73833 0
0.558173 7.04802 0
-0.00208485 4.70941 0
0.602919 3.81847 0
1.33684 -0.641808 0
0.535433 2.64789 0
0.962474 1.57479 0
1.90667 0.213081 0
1.61082 1.06431 0
2.12279 7.55485 0
1.7931 8.67927 0
1.33578 9.82172 0
3.79997 -4.32175 0
5.08739 -4.41582 0
5.81744 -3.90971 0
3.76593 -3.18319 0
1.80847 -1.88103 0
3.00727 -2.56415 0
6.75486 -3.92776 0
7.35082 -4.87351 0
7.86568 -5.94464 0
0.482943 5.85691 0
1.42418 6.71462 0
2.36713 6.64385 0
1.20507 4.54211 0
1.48329 3.38889 0
2.43011 -0.691346 0
2.82125 0.142536 0
1.78402 2.15987 0
2.60674 1.14835 0
3.06268 7.14334 0
2.89619 8.34624 0
2.60435 9.57672 0
4.88746 -3.30641 0
6.09421 -3.09067 0
4.15675 -2.26625 0
3.23439 -1.49982 0
6.70647 -2.30409 0
7.20553 -3.03139 0
7.93645 -3.89928 0
8.58566 -4.87939 0
2.01767 5.57916 0
3.07164 6.12781 0
2.35799 4.11294 0
2.41434 3.05216 0
3.51524 -0.458954 0
3.60578 0.613687 0
2.95389 2.2819 0
3.53396 1.52141 0
3.98963 5.87116 0
3.96702 6.76559 0
3.96213 7.91026 0
3.82617 9.15799 0
5.5478 -1.908 0
4.49389 -1.12524 0
6.68731 -1.33029 0
7.56452 -2.02808 0
8.36722 -2.85195 0
9.16357 -3.72772 0
3.40064 4.85516 0
3.32467 3.37181 0
4.67465 0.13126 0
4.49927 1.3042 0
4.04546 2.43255 0
4.5404 5.12547 0
4.81737 6.16261 0
4.9596 7.3511 0
4.98223 8.58728 0
5.85813 -0.434268 0
6.97947 -0.487885 0
7.72947 -1.07905 0
8.65275 -1.73771 0
9.56818 -2.50103 0
4.52457 3.80716 0
5.78678 1.08976 0
5.33854 2.51864 0
5.34214 4.59306 0
5.57731 5.49484 0
5.86662 6.64185 0
6.04898 7.86994 0
6.81048 0.456789 0
7.81796 -0.026732 0
8.82548 -0.579315 0
9.82349 -1.23393 0
6.92018 1.33675 0
5.68165 3.75412 0
6.4997 2.17949 0
6.33634 3.0651 0
6.24877 4.6579 0
6.65286 5.80727 0
7.01462 7.01784 0
7.74424 0.959433 0
8.81874 0.569669 0
9.9037 0.0526585 0
7.57123 1.98855 0
6.77829 3.87511 0
7.22058 2.92377 0
7.33332 4.85743 0
7.86796 6.04973 0
8.67671 1.71552 0
9.81436 1.33523 0
8.36972 2.81802 0
7.93457 3.89214 0
8.58006 4.97447 0
9.56374 2.59946 0
9.15071 3.81971 0
CELLS 542 2168
3 2 0 4
3 0 1 7
3 4 0 7
3 1 5 8
3 7 1 8
3 3 2 13
3 13 2 4
3 11 3 14
3 14 3 13
3 13 4 15
3 4 7 16
3 15 4 16
3 5 6 17
3 8 5 17
3 6 9 18
3 17 6 18
3 7 8 19
3 16 7 19
3 8 17 20
3 19 8 20
3 9 10 23
3 18 9 23
3 10 21 24
3 23 10 24
3 12 11 25
3 25 11 14
3 26 12 27
3 27 12 25
3 14 13 29
3 29 13 15
3 25 14 30
3 30 14 29
3 29 15 31
3 15 16 33
3 31 15 33
3 16 19 34
3 33 16 34
3 17 18 35
3 20 17 35
3 18 23 36
3 35 18 36
3 19 20 37
3 34 19 37
3 20 35 38
3 37 20 38
3 21 22 39
3 24 21 39
3 22 32 40
3 39 22 40
3 23 24 41
3 36 23 41
3 24 39 42
3 41 24 42
3 27 25 44
3 44 25 30
3 28 26 45
3 45 26 27
3 45 27 46
3 46 27 44
3 47 28 48
3 48 28 45
3 30 29 50
3 50 29 31
3 44 30 51
3 51 30 50
3 50 31 52
3 31 33 52
3 32 43 53
3 40 32 53
3 53 43 54
3 33 34 55
3 34 37 55
3 33 55 52
3 35 36 56
3 38 35 56
3 36 41 57
3 56 36 57
3 37 38 58
3 38 56 58
3 37 58 55
3 39 40 59
3 42 39 59
3 40 53 60
3 59 40 60
3 41 42 61
3 57 41 61
3 42 59 62
3 61 42 62
3 43 63 54
3 46 44 64
3 64 44 51
3 48 45 65
3 65 45 46
3 65 46 66
3 66 46 64
3 49 47 67
3 67 47 48
3 67 48 68
3 68 48 65
3 69 49 70
3 70 49 67
3 52 55 72
3 64 51 73
3 51 50 73
3 50 52 73
3 73 52 74
3 74 52 72
3 53 54 75
3 60 53 75
3 54 63 76
3 54 76 77
3 75 54 77
3 55 58 78
3 72 55 78
3 72 78 79
3 56 57 80
3 57 61 80
3 56 80 58
3 58 80 81
3 78 58 81
3 59 60 82
3 62 59 82
3 60 75 83
3 82 60 83
3 61 62 84
3 62 82 84
3 61 84 80
3 63 85 76
3 66 64 86
3 64 73 86
3 68 65 87
3 87 65 66
3 87 66 86
3 70 67 88
3 88 67 68
3 88 68 89
3 89 68 87
3 71 69 90
3 90 69 70
3 90 70 91
3 91 70 88
3 92 71 93
3 93 71 90
3 74 72 94
3 94 72 79
3 86 73 95
3 95 73 74
3 95 74 96
3 96 74 94
3 97 86 95
3 76 85 99
3 75 77 100
3 83 75 100
3 76 99 101
3 77 76 101
3 77 101 102
3 100 77 102
3 94 79 103
3 78 81 104
3 79 78 104
3 79 104 103
3 80 84 105
3 81 80 105
3 81 105 106
3 104 81 106
3 82 83 107
3 83 100 107
3 82 107 84
3 84 107 108
3 105 84 108
3 85 109 99
3 89 87 110
3 87 86 110
3 110 86 97
3 91 88 111
3 111 88 89
3 111 89 110
3 93 90 112
3 112 90 91
3 112 91 113
3 113 91 111
3 98 92 114
3 114 92 93
3 114 93 115
3 115 93 112
3 116 98 114
3 117 103 118
3 96 94 119
3 94 103 119
3 119 103 117
3 97 95 120
3 120 95 96
3 120 96 119
3 121 110 97
3 121 97 122
3 122 97 120
3 123 119 117
3 124 98 116
3 99 109 125
3 99 125 126
3 101 99 126
3 100 102 127
3 100 127 107
3 101 126 128
3 102 101 128
3 102 128 127
3 104 106 129
3 104 129 103
3 103 129 118
3 105 108 130
3 106 105 130
3 106 130 129
3 107 127 131
3 108 107 131
3 108 131 132
3 108 132 130
3 109 134 125
3 125 134 133
3 113 111 135
3 111 110 135
3 135 110 121
3 115 112 136
3 136 112 113
3 136 113 135
3 116 114 137
3 137 114 115
3 137 115 138
3 138 115 136
3 139 124 116
3 139 116 140
3 140 116 137
3 141 135 121
3 118 129 142
3 118 142 143
3 117 118 143
3 123 117 143
3 122 120 144
3 120 119 144
3 144 119 123
3 141 121 145
3 145 121 122
3 145 122 144
3 146 141 145
3 147 144 123
3 147 123 148
3 143 148 123
3 150 124 139
3 149 150 139
3 131 127 151
3 125 133 152
3 126 125 152
3 126 152 153
3 128 126 153
3 128 153 154
3 128 154 127
3 127 154 151
3 152 133 155
3 130 132 156
3 130 156 129
3 129 156 142
3 131 151 157
3 132 131 157
3 132 157 156
3 156 158 142
3 157 151 159
3 133 160 155
3 134 161 133
3 133 161 160
3 138 136 162
3 136 135 162
3 162 135 141
3 140 137 163
3 163 137 138
3 163 138 162
3 149 139 164
3 164 139 140
3 164 140 165
3 165 140 163
3 166 149 164
3 167 162 141
3 167 141 146
3 142 158 168
3 143 142 168
3 143 168 148
3 146 145 169
3 145 144 169
3 169 144 147
3 170 167 146
3 170 146 169
3 171 169 147
3 171 147 148
3 171 148 172
3 168 172 148
3 173 149 166
3 174 150 149
3 173 174 149
3 154 175 151
3 151 175 159
3 152 155 176
3 153 152 176
3 153 176 177
3 153 177 154
3 154 177 175
3 155 160 178
3 155 178 179
3 176 155 179
3 156 157 180
3 156 180 158
3 157 159 181
3 157 181 180
3 158 180 182
3 158 182 168
3 159 175 183
3 159 183 181
3 175 184 183
3 160 186 178
3 178 186 185
3 161 187 160
3 160 187 186
3 165 163 188
3 163 162 188
3 188 162 167
3 166 164 189
3 189 164 165
3 189 165 188
3 190 173 166
3 190 166 191
3 191 166 189
3 192 188 167
3 192 167 170
3 193 192 170
3 182 194 168
3 194 172 168
3 193 170 195
3 170 169 195
3 195 169 171
3 196 195 171
3 196 171 172
3 194 197 172
3 197 198 172
3 198 196 172
3 200 173 190
3 199 200 190
3 201 174 173
3 200 201 173
3 176 179 202
3 177 176 202
3 177 202 175
3 175 202 184
3 178 185 203
3 178 203 179
3 179 203 202
3 203 185 204
3 202 205 184
3 183 206 181
3 180 181 206
3 180 206 182
3 182 206 194
3 183 184 207
3 205 207 184
3 183 207 206
3 185 208 204
3 186 209 185
3 185 209 208
3 187 210 186
3 186 210 209
3 191 189 211
3 189 188 211
3 211 188 192
3 199 190 212
3 212 190 191
3 212 191 211
3 213 199 212
3 214 211 192
3 214 192 193
3 215 214 193
3 215 193 195
3 206 216 194
3 216 197 194
3 216 217 197
3 215 195 218
3 218 195 196
3 198 218 196
3 217 219 197
3 219 218 198
3 197 219 198
3 220 199 213
3 221 200 199
3 220 221 199
3 222 201 200
3 221 222 200
3 203 204 223
3 203 223 202
3 202 223 205
3 204 208 224
3 204 224 223
3 205 223 225
3 205 225 207
3 207 225 226
3 207 226 206
3 226 216 206
3 208 228 224
3 224 228 227
3 209 229 208
3 229 228 208
3 210 230 209
3 209 230 229
3 213 212 231
3 212 211 231
3 231 211 214
3 232 220 213
3 232 213 231
3 233 231 214
3 233 214 215
3 234 233 215
3 234 215 218
3 226 235 216
3 235 217 216
3 235 236 217
3 217 236 219
3 237 234 218
3 237 218 219
3 236 238 219
3 238 237 219
3 240 220 232
3 239 240 232
3 241 221 220
3 240 241 220
3 242 222 221
3 241 242 221
3 224 227 243
3 224 243 223
3 223 243 225
3 225 243 244
3 225 244 226
3 226 244 235
3 227 245 243
3 228 246 227
3 227 246 245
3 229 247 228
3 228 247 246
3 230 248 229
3 229 248 247
3 239 232 249
3 232 231 249
3 249 231 233
3 250 249 233
3 250 233 234
3 237 250 234
3 244 251 235
3 235 251 236
3 251 252 236
3 236 252 238
3 252 253 238
3 253 250 237
3 253 237 238
3 254 239 249
3 255 240 239
3 254 255 239
3 256 241 240
3 255 256 240
3 257 242 241
3 256 257 241
3 245 258 243
3 243 258 244
3 244 258 251
3 245 259 258
3 246 260 245
3 245 260 259
3 247 261 246
3 246 261 260
3 248 262 247
3 247 262 261
3 254 249 263
3 263 249 250
3 253 263 250
3 258 264 251
3 251 264 252
3 264 265 252
3 265 263 253
3 252 265 253
3 266 254 263
3 267 255 254
3 266 267 254
3 268 256 255
3 267 268 255
3 269 257 256
3 268 269 256
3 259 270 258
3 270 264 258
3 260 271 259
3 259 271 270
3 261 272 260
3 260 272 271
3 262 273 261
3 273 272 261
3 270 274 264
3 275 266 263
3 275 263 265
3 274 276 264
3 276 265 264
3 276 277 265
3 277 275 265
3 278 267 266
3 275 278 266
3 279 268 267
3 278 279 267
3 280 269 268
3 279 280 268
3 271 281 270
3 270 281 274
3 272 282 271
3 271 282 281
3 273 283 272
3 272 283 282
3 281 284 274
3 274 284 276
3 285 278 275
3 277 285 275
3 284 286 276
3 286 285 277
3 276 286 277
3 287 279 278
3 285 287 278
3 288 280 279
3 287 288 279
3 282 289 281
3 281 289 284
3 283 290 282
3 282 290 289
3 289 291 284
3 284 291 286
3 291 292 286
3 292 287 285
3 286 292 285
3 293 288 287
3 292 293 287
3 290 294 289
3 289 294 291
3 294 295 291
3 295 293 292
3 291 295 292
CELL_TYPES 542
5
5
5
5
5
5
5
5
5
5
5
5
5
5
5
5
5
5
5
5
5
5
5
5
5
5
5
5
5
5
5
5
5
5
5
5
5
5
5
5
5
5
5
5
5
5
5
5
5
5
5
5
5
5
5
5
5
5
5
5
5
5
5
5
5
5
5
5
5
5
5
5
5
5
5
5
5
5
5
5
5
5
5
5
5
5
5
5
5
5
5
5
5
5
5
5
5
5
5
5
5
5
5
5
5
5
5
5
5
5
5
5
5
5
5
5
5
5
5
5
5
5
5
5
5
5
5
5
5
5
5
5
5
5
5
5
5
5
5
5
5
5
5
5
5
5
5
5
5
5
5
5
5
5
5
5
5
5
5
5
5
5
5
5
5
5
5
5
5
5
5
5
5
5
5
5
5
5
5
5
5
5
5
5
5
5
5
5
5
5
5
5
5
5
5
5
5
5
5
5
5
5
5
5
5
5
5
5
5
5
5
5
5
5
5
5
5
5
5
5
5
5
5
5
5
5
5
5
5
5
5
5
5
5
5
5
5
5
5
5
5
5
5
5
5
5
5
5
5
5
5
5
5
5
5
5
5
5
5
5
5
5
5
5
5
5
5
5
5
5
5
5
5
5
5
5
5
5
5
5
5
5
5
5
5
5
5
5
5
5
5
5
5
5
5
5
5
5
5
5
5
5
5
5
5
5
5
5
5
5
5
5
5
5
5
5
5
5
5
5
5
5
5
5
5
5
5
5
5
5
5
5
5
5
5
5
5
5
5
5
5
5
5
5
5
5
5
5
5
5
5
5
5
5
5
5
5
5
5
5
5
5
5
5
5
5
5
5
5
5
5
5
5
5
5
5
5
5
5
5
5
5
5
5
5
5
5
5
5
5
5
5
5
5
5
5
5
5
5
5
5
5
5
5
5
5
5
5
5
5
5
5
5
5
5
5
5
5
5
5
5
5
5
5
5
5
5
5
5
5
5
5
5
5
5
5
5
5
5
5
5
5
5
5
5
5
5
5
5
5
5
5
5
5
5
5
5
5
5
5
5
5
5
5
5
5
5
5
5
5
5
5
5
5
5
5
5
5
5
5
5
5
5
5
5
5
5
5
5
5
5
5
5
5
5
5
5
5
5
5
5
5
5
5
5
5
5
5
5
5
5
5
5
5
5
5
5
5
5
5
5
5
5
5
5
5
5
5
5
5
5
5
5
5
5
5
5
5
5
5
5
5
POINT_DATA 296
SCALARS concentrations float 4
LOOKUP_TABLE default
0 0.970782 0.172708 210.043
0 0.970463 0.169548 341.673
0 0.970895 0.171423 390.407
0 0.970856 0.172006 285.355
0 0.970848 0.0915313 2.96529
0 0.970519 0.171227 452.17
0 0.970288 0.172817 307.387
0 0.970657 0.0913478 2.07072
0 0.970546 0.0914629 3.00786
0 0.970281 0.172567 278.607
0 0.970513 0.170312 408.005
0 0.97029 0.168014 260.109
0 0.970327 0.170251 461.934
0 0.970893 0.0914157 2.20035
0 0.970621 0.091521 7.00922
0 0.970841 0.091151 0.415496
0 0.970783 0.0911479 1.18213
0 0.970491 0.0915078 3.76556
0 0.970345 0.0915187 2.29848
0 0.970693 0.0911278 0.641067
0 0.97062 0.0911138 0.602913
0 0.970432 0.171515 363.562
0 0.970696 0.175178 240.71
0 0.970482 0.0915132 3.05462
0 0.970531 0.0914974 3.8252
0 0.970367 0.0916575 3.64805
0 0.970446 0.170244 236.902
0 0.970464 0.0916154 1.56471
0 0.970276 0.171344 375.309
0 0.970776 0.0911881 1.70059
0 0.970638 0.0912379 2.01968
0 0.970808 0.0911201 0.705279
0 0.97086 0.172088 292.111
0 0.970806 0.0910918 0.096453
0 0.970766 0.0910936 0.383315
0 0.970563 0.0911478 1.26673
0 0.970557 0.0912011 0.481687
0 0.970727 0.091079 0.37037
0 0.970674 0.0910893 0.829691
0 0.970585 0.0914415 1.18614
0 0.970791 0.0915205 2.80415
0 0.970598 0.0911553 0.377771
0 0.970641 0.0911514 0.768807
0 0.97076 0.172492 391.714
0 0.970566 0.0912095 0.477664
0 0.970431 0.0914079 4.80787
0 0.970541 0.0911331 1.51407
0 0.970002 0.169708 434.388
0 0.970226 0.0913065 3.47081
0 0.970053 0.168388 276.395
0 0.970762 0.0911316 0.879762
0 0.970699 0.0911382 0.697905
0 0.970804 0.0910566 0.378805
0 0.970797 0.0914748 2.69006
0 0.970696 0.0913064 0.613798
0 0.970787 0.0910398 0.474658
0 0.970669 0.0910957 0.965635
0 0.970657 0.0911157 0.748638
0 0.970746 0.091052 0.762117
0 0.970707 0.0912086 0.889973
0 0.970748 0.0912349 1.32281
0 0.970685 0.0911 0.500042
0 0.970702 0.091135 0.0591055
0 0.970702 0.168625 326.233
0 0.970681 0.0911046 0.614792
0 0.970471 0.0911157 1.75885
0 0.97063 0.0910953 1.2579
0 0.970144 0.0914097 0.813718
0 0.970409 0.0911413 1.1963
0 0.970309 0.169468 320.984
0 0.97027 0.091446 1.23934
0 0.970771 0.170669 280.211
0 0.970823 0.0910525 0.619465
0 0.970776 0.0910853 0.871745
0 0.970829 0.0910764 1.01658
0 0.970721 0.0912345 1.16
0 0.970774 0.0915391 3.41493
0 0.970707 0.0912111 1.28712
0 0.970804 0.0910467 0.707201
0 0.970854 0.0910693 0.769671
0 0.970727 0.0910721 0.954239
0 0.970782 0.0910671 0.866309
0 0.970721 0.0911477 0.289126
0 0.970717 0.0911774 0.546184
0 0.970732 0.0911042 0.657228
0 0.970901 0.170593 372.564
0 0.970743 0.0910927 1.40565
0 0.970622 0.0910905 1.09631
0 0.970437 0.0912105 0.978173
0 0.970593 0.0911245 0.706428
0 0.97059 0.0916211 5.44129
0 0.97057 0.0912418 2.14263
0 0.97075 0.16668 386.113
0 0.970779 0.0915123 4.27717
0 0.970874 0.091055 0.714232
0 0.970818 0.0910814 1.10067
0 0.970872 0.0910626 0.824384
0 0.970808 0.0910964 1.31494
0 0.970657 0.17125 350.865
0 0.970807 0.091454 3.25808
0 0.970706 0.091169 0.713408
0 0.970725 0.0911788 1.86493
0 0.9707 0.0911525 1.14939
0 0.970897 0.0910297 0.575927
0 0.970849 0.0910599 0.770882
0 0.970773 0.0910867 0.793866
0 0.970829 0.0910719 0.754286
0 0.970729 0.0911269 0.45921
0 0.970767 0.0911035 0.661445
0 0.970766 0.16952 255.881
0 0.970736 0.0910917 0.972507
0 0.970662 0.0911467 0.978374
0 0.970702 0.091204 2.28385
0 0.970705 0.0911545 1.43445
0 0.970706 0.0913654 2.62967
0 0.970746 0.0911008 1.40127
0 0.970651 0.0913071 3.47583
0 0.970934 0.0910219 0.449365
0 0.970924 0.0910253 0.418557
0 0.97091 0.091025 0.473382
0 0.970877 0.0910597 0.789859
0 0.97081 0.0910614 0.545758
0 0.970866 0.0910775 0.853083
0 0.970948 0.0910135 0.444533
0 0.970558 0.171744 254.433
0 0.970664 0.091279 2.98703
0 0.970692 0.0911162 1.77196
0 0.970719 0.0911236 0.791504
0 0.970697 0.0911197 1.21967
0 0.970882 0.0910398 0.574294
0 0.970829 0.0910766 0.639323
0 0.970763 0.0911107 0.673283
0 0.970813 0.0910972 0.651078
0 0.97041 0.0913466 3.96291
0 0.970566 0.168802 417.264
0 0.97077 0.0910725 0.605552
0 0.970759 0.0910952 1.02168
0 0.970721 0.0911394 0.932448
0 0.970765 0.0910808 0.265096
0 0.970551 0.0915371 5.54303
0 0.970686 0.0912294 2.04715
0 0.970829 0.0910478 0.483561
0 0.970927 0.091032 0.439575
0 0.970957 0.0910108 0.419559
0 0.970917 0.0910273 0.480534
0 0.97088 0.0910524 0.440537
0 0.97088 0.0910462 0.476877
0 0.970954 0.091015 0.4477
0 0.970972 0.0910041 0.513314
0 0.970628 0.0915158 5.53298
0 0.970466 0.169569 340.682
0 0.970755 0.0911061 0.880876
0 0.970586 0.0910755 0.825342
0 0.970663 0.0910885 0.916431
0 0.970715 0.0911005 0.973136
0 0.970421 0.0911154 1.34687
0 0.970872 0.0910632 0.576668
0 0.970823 0.0911033 0.771311
0 0.970925 0.091053 0.593566
0 0.970799 0.0911165 0.988556
0 0.970074 0.0913502 3.86984
0 0.970116 0.167833 253.656
0 0.970799 0.0910474 0.572411
0 0.970765 0.0911153 0.690133
0 0.970679 0.09126 2.29087
0 0.970748 0.0911794 1.35344
0 0.970726 0.0912516 2.12533
0 0.970841 0.0910397 0.573585
0 0.970964 0.0910184 0.601583
0 0.970927 0.091028 0.539205
0 0.970898 0.0910446 0.491916
0 0.970965 0.091021 0.843841
0 0.97098 0.0910187 1.03641
0 0.970806 0.0913392 3.26395
0 0.97076 0.171108 338.106
0 0.970747 0.0911045 1.05115
0 0.970607 0.0910717 0.428144
0 0.970689 0.0910892 0.92098
0 0.9703 0.0912191 2.66724
0 0.970537 0.0911152 1.42353
0 0.970889 0.0910834 0.799536
0 0.97086 0.091101 0.986247
0 0.970938 0.0910604 0.872925
0 0.970833 0.0911101 1.01242
0 0.970774 0.0911186 1.04275
0 0.970276 0.0912938 3.21346
0 0.969961 0.091503 4.3283
0 0.969813 0.167246 361.809
0 0.970806 0.09107 0.894262
0 0.970765 0.0911675 1.36307
0 0.970749 0.091199 1.54638
0 0.970766 0.0911595 1.28761
0 0.970849 0.0910517 0.632932
0 0.9709 0.0910579 0.775504
0 0.970961 0.09105 1.2062
0 0.970941 0.0910366 0.990268
0 0.970973 0.0910391 1.31715
0 0.970978 0.0910541 1.6612
0 0.970981 0.0910459 1.62008
0 0.970707 0.0912113 1.30697
0 0.970756 0.0913771 2.71134
0 0.970855 0.169752 302.455
0 0.970679 0.0911034 1.02796
0 0.970539 0.091175 1.89281
0 0.970522 0.0912102 2.2685
0 0.970768 0.091114 1.14058
0 0.970906 0.0910793 0.9306
0 0.970854 0.0911065 0.978438
0 0.970354 0.0912799 3.0125
0 0.970065 0.0916774 5.35919
0 0.969856 0.168533 311.162
0 0.970811 0.0910692 0.866999
0 0.97077 0.0911195 0.792177
0 0.970742 0.0911348 0.692209
0 0.970858 0.0910631 0.830156
0 0.970918 0.0910622 1.19122
0 0.970947 0.0910734 1.47639
0 0.970968 0.0910757 1.89302
0 0.970958 0.0910598 1.64612
0 0.970971 0.0910776 2.15501
0 0.970648 0.0911662 1.12454
0 0.970634 0.0914544 1.24159
0 0.970694 0.171308 294.152
0 0.970704 0.0911274 1.31425
0 0.970631 0.0911473 1.72595
0 0.970827 0.091108 0.929689
0 0.970902 0.0910878 1.07183
0 0.9707 0.0911268 1.46035
0 0.970499 0.0912256 2.49496
0 0.970211 0.0915481 4.15078
0 0.97002 0.167438 461.468
0 0.970814 0.0910704 0.896574
0 0.970747 0.0911037 1.0005
0 0.97087 0.0910765 1.26135
0 0.970924 0.0910839 1.64513
0 0.970938 0.0910789 1.51547
0 0.970956 0.0910834 1.85529
0 0.970944 0.0910889 2.14864
0 0.970952 0.0910935 2.38772
0 0.970737 0.0911141 1.27571
0 0.970624 0.0911577 1.54559
0 0.970528 0.091349 1.58923
0 0.970549 0.167604 369.479
0 0.970794 0.091098 0.902098
0 0.970886 0.0910857 1.00928
0 0.970792 0.0911117 1.34607
0 0.970656 0.0911774 1.56457
0 0.970493 0.0913863 3.78623
0 0.970244 0.169983 368.093
0 0.970827 0.0910781 1.68057
0 0.970891 0.0910813 2.03163
0 0.970924 0.0910711 1.44694
0 0.97093 0.0910766 2.22196
0 0.970916 0.0910891 2.75715
0 0.970768 0.0911085 1.57807
0 0.970629 0.0911424 1.54102
0 0.970528 0.091379 3.75655
0 0.97045 0.168854 355.343
0 0.970877 0.0910819 1.61524
0 0.970833 0.0911397 1.63889
0 0.970736 0.0911719 0.841353
0 0.970653 0.0913954 3.09847
0 0.970617 0.171532 301.104
0 0.970857 0.0910872 2.36144
0 0.9709 0.0910821 2.36676
0 0.970883 0.0910848 2.82274
0 0.970758 0.0911008 1.42031
0 0.970611 0.0911293 1.12905
0 0.970473 0.0913584 4.41958
0 0.970483 0.170425 393.234
0 0.970857 0.091141 2.11395
0 0.970757 0.091188 0.82597
0 0.970604 0.0913119 1.5173
0 0.970563 0.169503 308.796
0 0.970826 0.0911595 1.85092
0 0.970781 0.0910855 1.67896
0 0.970809 0.0911184 1.74635
0 0.970762 0.0910985 1.3776
0 0.970582 0.0911051 0.582958
0 0.97034 0.091211 0.437994
0 0.970266 0.166726 200.5
0 0.97072 0.0912177 1.67671
0 0.97062 0.0912984 1.47873
0 0.970529 0.169272 328.036
0 0.970612 0.0912202 1.86053
0 0.970549 0.0911057 0.552734
0 0.970531 0.0911836 0.995807
0 0.970297 0.0913389 2.25229
0 0.970173 0.166268 349.733
0 0.970444 0.0913745 3.70187
0 0.970488 0.171366 353.897
0 0.970154 0.0915276 4.18888
0 0.970172 0.0915506 3.12772
0 0.970077 0.166404 331.959
0 0.970079 0.16752 254.588
0 0.969875 0.16482 346.805
VECTORS fa_u float
0.00777635 0.00322092 -0
0.00488341 0.00284169 -0
0.00512365 0.00136547 -0
0.00679058 0.000924988 -0
1e-08 0 0
0.00515752 0.00393913 -0
0.0046333 0.00460131 -0
1e-08 0 0
1e-08 0 0
0.00418367 0.00542021 -0
0.00326018 0.00561545 -0
0.00680452 1.69775e-05 -0
0.00568709 -0.000712794 0
1e-08 0 0
1e-08 0 0
1e-08 0 0
1e-08 0 0
1e-08 0 0
1e-08 0 0
1e-08 0 0
1e-08 0 0
0.0025401 0.0060758 -0
0.00195713 0.00734201 -0
1e-08 0 0
1e-08 0 0
1e-08 0 0
0.00831255 -0.00221238 0
1e-08 0 0
0.00601499 -0.00254205 0
1e-08 0 0
1e-08 0 0
1e-08 0 0
0.000801656 0.00631695 -0
1e-08 0 0
1e-08 0 0
1e-08 0 0
1e-08 0 0
1e-08 0 0
1e-08 0 0
1e-08 0 0
1e-08 0 0
1e-08 0 0
1e-08 0 0
-1.64298e-05 0.0064547 -0
1e-08 0 0
1e-08 0 0
1e-08 0 0
0.00512866 -0.00298338 0
1e-08 0 0
0.00565062 -0.00435493 0
1e-08 0 0
1e-08 0 0
1e-08 0 0
1e-08 0 0
1e-08 0 0
1e-08 0 0
1e-08 0 0
1e-08 0 0
1e-08 0 0
1e-08 0 0
1e-08 0 0
1e-08 0 0
1e-08 0 0
-0.00096175 0.00707255 0
1e-08 0 0
1e-08 0 0
1e-08 0 0
1e-08 0 0
1e-08 0 0
0.00445442 -0.00448261 0
1e-08 0 0
0.00347701 -0.00450077 0
1e-08 0 0
1e-08 0 0
1e-08 0 0
1e-08 0 0
1e-08 0 0
1e-08 0 0
1e-08 0 0
1e-08 0 0
1e-08 0 0
1e-08 0 0
1e-08 0 0
1e-08 0 0
1e-08 0 0
-0.00135816 0.00507961 0
1e-08 0 0
1e-08 0 0
1e-08 0 0
1e-08 0 0
1e-08 0 0
1e-08 0 0
0.00352 -0.00600649 0
1e-08 0 0
1e-08 0 0
1e-08 0 0
1e-08 0 0
1e-08 0 0
0.00290525 -0.00701064 0
1e-08 0 0
1e-08 0 0
1e-08 0 0
1e-08 0 0
1e-08 0 0
1e-08 0 0
1e-08 0 0
1e-08 0 0
1e-08 0 0
1e-08 0 0
-0.00280181 0.00684252 0
1e-08 0 0
1e-08 0 0
1e-08 0 0
1e-08 0 0
1e-08 0 0
1e-08 0 0
1e-08 0 0
1e-08 0 0
1e-08 0 0
1e-08 0 0
1e-08 0 0
1e-08 0 0
1e-08 0 0
1e-08 0 0
0.00170542 -0.00649092 0
1e-08 0 0
1e-08 0 0
1e-08 0 0
1e-08 0 0
1e-08 0 0
1e-08 0 0
1e-08 0 0
1e-08 0 0
1e-08 0 0
-0.00348344 0.006015 0
1e-08 0 0
1e-08 0 0
1e-08 0 0
1e-08 0 0
1e-08 0 0
1e-08 0 0
1e-08 0 0
1e-08 0 0
1e-08 0 0
1e-08 0 0
1e-08 0 0
1e-08 0 0
1e-08 0 0
1e-08 0 0
1e-08 0 0
0.000697522 -0.0052239 0
1e-08 0 0
1e-08 0 0
1e-08 0 0
1e-08 0 0
1e-08 0 0
1e-08 0 0
1e-08 0 0
1e-08 0 0
1e-08 0 0
1e-08 0 0
-0.00404213 0.00523644 0
1e-08 0 0
1e-08 0 0
1e-08 0 0
1e-08 0 0
1e-08 0 0
1e-08 0 0
1e-08 0 0
1e-08 0 0
1e-08 0 0
1e-08 0 0
1e-08 0 0
1e-08 0 0
2.93795e-05 -0.00766144 0
1e-08 0 0
1e-08 0 0
1e-08 0 0
1e-08 0 0
1e-08 0 0
1e-08 0 0
1e-08 0 0
1e-08 0 0
1e-08 0 0
1e-08 0 0
1e-08 0 0
1e-08 0 0
-0.00411378 0.00412454 0
1e-08 0 0
1e-08 0 0
1e-08 0 0
1e-08 0 0
1e-08 0 0
1e-08 0 0
1e-08 0 0
1e-08 0 0
1e-08 0 0
1e-08 0 0
1e-08 0 0
1e-08 0 0
1e-08 0 0
-0.000765059 -0.00591243 0
1e-08 0 0
1e-08 0 0
1e-08 0 0
1e-08 0 0
1e-08 0 0
1e-08 0 0
1e-08 0 0
1e-08 0 0
-0.00524379 0.0040684 0
1e-08 0 0
1e-08 0 0
1e-08 0 0
1e-08 0 0
1e-08 0 0
1e-08 0 0
1e-08 0 0
1e-08 0 0
1e-08 0 0
1e-08 0 0
1e-08 0 0
-0.00192871 -0.0072368 0
1e-08 0 0
1e-08 0 0
1e-08 0 0
1e-08 0 0
1e-08 0 0
1e-08 0 0
1e-08 0 0
-0.00558175 0.0032678 0
1e-08 0 0
1e-08 0 0
1e-08 0 0
1e-08 0 0
1e-08 0 0
1e-08 0 0
1e-08 0 0
1e-08 0 0
1e-08 0 0
1e-08 0 0
1e-08 0 0
-0.00244609 -0.00587856 0
1e-08 0 0
1e-08 0 0
1e-08 0 0
1e-08 0 0
1e-08 0 0
-0.00765194 0.00316108 0
1e-08 0 0
1e-08 0 0
1e-08 0 0
1e-08 0 0
1e-08 0 0
1e-08 0 0
1e-08 0 0
1e-08 0 0
-0.00345348 -0.00595971 0
1e-08 0 0
1e-08 0 0
1e-08 0 0
1e-08 0 0
-0.00535004 0.00141577 0
1e-08 0 0
1e-08 0 0
1e-08 0 0
1e-08 0 0
1e-08 0 0
1e-08 0 0
-0.00406305 -0.00526155 0
1e-08 0 0
1e-08 0 0
1e-08 0 0
-0.00713579 0.000937544 0
1e-08 0 0
1e-08 0 0
1e-08 0 0
1e-08 0 0
1e-08 0 0
1e-08 0 0
-0.00429313 -0.00429022 0
1e-08 0 0
1e-08 0 0
-0.00672207 -2.38876e-05 0
1e-08 0 0
1e-08 0 0
1e-08 0 0
1e-08 0 0
-0.00579613 -0.00444047 0
1e-08 0 0
-0.006108 -0.000815318 0
1e-08 0 0
1e-08 0 0
-0.00531847 -0.0030593 0
-0.00637827 -0.00170375 0
-0.0062826 -0.00260212 0
