# vtk DataFile Version 2.0
CellBP Time: 8.36
ASCII
DATASET UNSTRUCTURED_GRID
POINTS 296 double
-8.923 -3.66056 0
-8.36021 -4.80281 0
-9.33671 -2.45544 0
-9.59033 -1.21482 0
-8.25924 -2.77441 0
-7.65315 -5.86386 0
-6.8104 -6.81885 0
-7.81872 -3.81945 0
-7.24873 -4.80703 0
-5.86129 -7.65938 0
-4.82214 -8.38196 0
-9.67571 0.0466021 0
-9.60172 1.31594 0
-8.56669 -1.65834 0
-8.70237 -0.521207 0
-7.49407 -1.96917 0
-7.12754 -2.85821 0
-6.56159 -5.71958 0
-5.76481 -6.53821 0
-6.69591 -3.83073 0
-6.13873 -4.61713 0
-3.67853 -8.94017 0
-2.47177 -9.35839 0
-4.86633 -7.25196 0
-3.89131 -7.83132 0
-8.71597 0.634129 0
-9.365 2.57227 0
-8.55392 1.75349 0
-8.94797 3.77549 0
-7.65545 -0.910688 0
-7.71175 0.0834002 0
-6.86714 -1.29185 0
-1.21571 -9.59773 0
-6.36338 -2.12027 0
-6.2399 -3.01122 0
-5.47104 -5.41679 0
-4.74587 -6.0589 0
-5.58854 -3.70875 0
-5.2016 -4.50684 0
-2.84834 -8.30391 0
-1.76372 -8.57491 0
-3.89474 -6.66848 0
-3.0383 -7.09915 0
0.0522777 -9.67556 0
-7.62879 1.13113 0
-8.27951 2.89393 0
-7.48076 2.08682 0
-8.37742 4.91219 0
-7.81141 3.94192 0
-7.65903 5.96482 0
-6.70104 -0.386954 0
-6.87915 0.550051 0
-5.71287 -0.990961 0
-0.584803 -8.73598 0
0.555704 -8.68693 0
-5.24822 -2.44974 0
-4.43653 -5.04051 0
-3.86021 -5.72044 0
-4.39305 -3.76505 0
-2.04679 -7.50309 0
-1.12687 -7.72021 0
-2.96673 -6.0488 0
-2.29295 -6.5667 0
1.31376 -9.58056 0
-6.62158 1.4056 0
-7.10012 3.08413 0
-6.59269 2.34697 0
-7.22277 4.93816 0
-6.65001 3.95866 0
-6.81645 6.91292 0
-6.50657 5.83173 0
-5.86382 7.75573 0
-4.42206 -1.17399 0
-5.76173 0.504942 0
-4.62459 -0.0170079 0
0.00169912 -7.77191 0
1.71178 -8.54974 0
0.928815 -7.67904 0
-4.00988 -2.38585 0
-3.47427 -1.38687 0
-3.26538 -4.76247 0
-3.24729 -3.2429 0
-1.37188 -6.61548 0
-0.512393 -6.95601 0
-1.96188 -5.49344 0
2.55944 -9.32846 0
-5.45719 2.01904 0
-6.03327 3.03759 0
-6.04224 4.81418 0
-5.70159 3.94332 0
-5.70213 6.64296 0
-5.39471 5.55372 0
-4.81721 8.47846 0
-4.78694 7.32029 0
-3.48644 -0.423141 0
-4.41576 1.23957 0
-3.68991 0.588827 0
-4.02972 2.30911 0
-3.67997 9.04255 0
2.81907 -8.22976 0
0.402185 -6.71884 0
1.98599 -7.43268 0
1.27689 -6.82068 0
-2.43871 -0.869134 0
-2.82899 -2.12056 0
-2.28267 -4.06783 0
-2.31595 -2.95545 0
-0.445868 -5.80448 0
-1.21304 -4.46779 0
3.76769 -8.92944 0
-4.74446 3.35917 0
-5.03466 4.53966 0
-4.59636 6.20573 0
-4.49021 5.29544 0
-3.80855 7.91461 0
-3.78257 6.76077 0
-2.75357 8.33483 0
-1.64645 -0.133619 0
-1.44681 -0.88653 0
-2.48383 0.511135 0
-3.23488 1.44074 0
-3.21407 3.29376 0
-2.89329 2.3665 0
-1.35476 0.631275 0
-2.47178 9.44489 0
3.87881 -7.7886 0
2.91384 -7.05733 0
0.933429 -5.75595 0
2.03636 -6.33099 0
-1.67691 -1.98542 0
-1.42655 -3.25844 0
0.0863504 -4.70589 0
-0.559791 -3.67272 0
4.87019 -7.22494 0
4.90492 -8.36462 0
-3.74103 4.50526 0
-3.69535 5.68582 0
-2.85327 7.20464 0
-2.9771 6.2813 0
-1.64457 8.65085 0
-1.91608 7.5394 0
-2.32279 4.02157 0
-0.72842 -1.32374 0
-0.836288 -0.253909 0
-1.9338 1.68398 0
-2.1167 2.86648 0
-1.3036 3.52836 0
-0.871825 1.35475 0
-0.284598 0.459306 0
-0.527527 8.79634 0
-1.22011 9.69162 0
1.09712 -4.52916 0
3.84817 -6.61499 0
2.94042 -6.00927 0
2.08497 -5.35747 0
4.72216 -6.11612 0
-0.554853 -2.46759 0
0.49336 -3.44211 0
0.0542983 -1.60754 0
1.46661 -3.64947 0
5.80245 -6.53144 0
5.95828 -7.65038 0
-2.45315 5.29596 0
-2.10489 6.46353 0
-0.891238 7.72996 0
-1.25325 6.85997 0
0.0886609 7.81373 0
-1.13817 4.46327 0
0.148905 -0.614714 0
-0.801648 2.48918 0
-0.337174 3.5884 0
0.0582459 1.51464 0
0.736744 0.474545 0
0.640603 8.80729 0
0.0469724 9.77938 0
2.35143 -4.23601 0
3.80583 -5.55908 0
2.9592 -5.14316 0
5.51381 -5.42028 0
4.63272 -5.20532 0
0.630193 -2.28861 0
1.24777 -2.93299 0
0.755919 -1.38919 0
2.1453 -3.10957 0
2.96454 -3.44045 0
6.09774 -4.7356 0
6.59414 -5.7055 0
6.91626 -6.80867 0
-1.00775 5.76732 0
-0.362619 6.81826 0
1.11482 7.71099 0
0.557875 7.02024 0
-0.00357187 4.69568 0
0.599032 3.81027 0
1.33473 -0.641347 0
0.531931 2.64529 0
0.959002 1.57491 0
1.90322 0.212696 0
1.60701 1.06394 0
2.11651 7.5294 0
1.78747 8.6505 0
1.31809 9.69561 0
3.77954 -4.29543 0
5.06111 -4.38641 0
5.79183 -3.88696 0
3.74962 -3.16719 0
1.8048 -1.87913 0
2.99645 -2.55518 0
6.72894 -3.90958 0
7.32338 -4.85251 0
7.7627 -5.86255 0
0.482122 5.83524 0
1.42015 6.69026 0
2.36022 6.62103 0
1.20037 4.52957 0
1.47859 3.38119 0
2.4247 -0.690358 0
2.81478 0.142773 0
1.77934 2.15737 0
2.60173 1.14696 0
3.05394 7.11927 0
2.88864 8.31926 0
2.57477 9.46208 0
4.86583 -3.28719 0
6.06993 -3.07434 0
4.14192 -2.25781 0
3.22502 -1.4966 0
6.6833 -2.29557 0
7.18094 -3.02093 0
7.91026 -3.88736 0
8.47938 -4.8187 0
2.01187 5.56045 0
3.058 6.10437 0
2.35222 4.10042 0
2.40874 3.04441 0
3.50544 -0.4569 0
3.59638 0.614259 0
2.94636 2.27648 0
3.52316 1.51812 0
3.96918 5.8466 0
3.951 6.74048 0
3.95177 7.88452 0
3.78165 9.04391 0
5.52817 -1.90016 0
4.47955 -1.1209 0
6.66248 -1.32461 0
7.53846 -2.02022 0
8.3395 -2.84302 0
9.04882 -3.68299 0
3.38384 4.83534 0
3.31155 3.35965 0
4.65914 0.132607 0
4.48113 1.29925 0
4.02752 2.4226 0
4.51307 5.10066 0
4.79329 6.13674 0
4.94036 7.32446 0
4.92614 8.48686 0
5.83454 -0.433243 0
6.95025 -0.487185 0
7.70145 -1.07324 0
8.6231 -1.73031 0
9.44657 -2.46924 0
4.4994 3.78863 0
5.75845 1.08212 0
5.30899 2.50404 0
5.30765 4.56763 0
5.54546 5.46833 0
5.83848 6.61424 0
5.97148 7.77246 0
6.77738 0.451058 0
7.78504 -0.0275882 0
8.79308 -0.574919 0
9.70521 -1.21642 0
6.88294 1.32546 0
5.64568 3.73172 0
6.46133 2.16326 0
6.29622 3.04416 0
6.20883 4.63102 0
6.61617 5.77912 0
6.91866 6.92536 0
7.70707 0.952066 0
8.78119 0.56678 0
9.77585 0.0540382 0
7.52984 1.97411 0
6.73181 3.84826 0
7.17569 2.90259 0
7.29194 4.83137 0
7.76144 5.96835 0
8.63457 1.70493 0
9.6815 1.31622 0
8.32329 2.79949 0
7.89117 3.86963 0
8.46868 4.90991 0
9.4311 2.5628 0
9.03262 3.77044 0
CELLS 542 2168
3 2 0 4
3 0 1 7
3 4 0 7
3 1 5 8
3 7 1 8
3 3 2 13
3 13 2 4
3 11 3 14
3 14 3 13
3 13 4 15
3 4 7 16
3 15 4 16
3 5 6 17
3 8 5 17
3 6 9 18
3 17 6 18
3 7 8 19
3 16 7 19
3 8 17 20
3 19 8 20
3 9 10 23
3 18 9 23
3 10 21 24
3 23 10 24
3 12 11 25
3 25 11 14
3 26 12 27
3 27 12 25
3 14 13 29
3 29 13 15
3 25 14 30
3 30 14 29
3 29 15 31
3 15 16 33
3 31 15 33
3 16 19 34
3 33 16 34
3 17 18 35
3 20 17 35
3 18 23 36
3 35 18 36
3 19 20 37
3 34 19 37
3 20 35 38
3 37 20 38
3 21 22 39
3 24 21 39
3 22 32 40
3 39 22 40
3 23 24 41
3 36 23 41
3 24 39 42
3 41 24 42
3 27 25 44
3 44 25 30
3 28 26 45
3 45 26 27
3 45 27 46
3 46 27 44
3 47 28 48
3 48 28 45
3 30 29 50
3 50 29 31
3 44 30 51
3 51 30 50
3 50 31 52
3 31 33 52
3 32 43 53
3 40 32 53
3 53 43 54
3 33 34 55
3 34 37 55
3 33 55 52
3 35 36 56
3 38 35 56
3 36 41 57
3 56 36 57
3 37 38 58
3 38 56 58
3 37 58 55
3 39 40 59
3 42 39 59
3 40 53 60
3 59 40 60
3 41 42 61
3 57 41 61
3 42 59 62
3 61 42 62
3 43 63 54
3 46 44 64
3 64 44 51
3 48 45 65
3 65 45 46
3 65 46 66
3 66 46 64
3 49 47 67
3 67 47 48
3 67 48 68
3 68 48 65
3 69 49 70
3 70 49 67
3 52 55 72
3 64 51 73
3 51 50 73
3 50 52 73
3 73 52 74
3 74 52 72
3 53 54 75
3 60 53 75
3 54 63 76
3 54 76 77
3 75 54 77
3 55 58 78
3 72 55 78
3 72 78 79
3 56 57 80
3 57 61 80
3 56 80 58
3 58 80 81
3 78 58 81
3 59 60 82
3 62 59 82
3 60 75 83
3 82 60 83
3 61 62 84
3 62 82 84
3 61 84 80
3 63 85 76
3 66 64 86
3 64 73 86
3 68 65 87
3 87 65 66
3 87 66 86
3 70 67 88
3 88 67 68
3 88 68 89
3 89 68 87
3 71 69 90
3 90 69 70
3 90 70 91
3 91 70 88
3 92 71 93
3 93 71 90
3 74 72 94
3 94 72 79
3 86 73 95
3 95 73 74
3 95 74 96
3 96 74 94
3 97 86 95
3 76 85 99
3 75 77 100
3 83 75 100
3 76 99 101
3 77 76 101
3 77 101 102
3 100 77 102
3 94 79 103
3 78 81 104
3 79 78 104
3 79 104 103
3 80 84 105
3 81 80 105
3 81 105 106
3 104 81 106
3 82 83 107
3 83 100 107
3 82 107 84
3 84 107 108
3 105 84 108
3 85 109 99
3 89 87 110
3 87 86 110
3 110 86 97
3 91 88 111
3 111 88 89
3 111 89 110
3 93 90 112
3 112 90 91
3 112 91 113
3 113 91 111
3 98 92 114
3 114 92 93
3 114 93 115
3 115 93 112
3 116 98 114
3 117 103 118
3 96 94 119
3 94 103 119
3 119 103 117
3 97 95 120
3 120 95 96
3 120 96 119
3 121 110 97
3 121 97 122
3 122 97 120
3 123 119 117
3 124 98 116
3 99 109 125
3 99 125 126
3 101 99 126
3 100 102 127
3 100 127 107
3 101 126 128
3 102 101 128
3 102 128 127
3 104 106 129
3 104 129 103
3 103 129 118
3 105 108 130
3 106 105 130
3 106 130 129
3 107 127 131
3 108 107 131
3 108 131 132
3 108 132 130
3 109 134 125
3 125 134 133
3 113 111 135
3 111 110 135
3 135 110 121
3 115 112 136
3 136 112 113
3 136 113 135
3 116 114 137
3 137 114 115
3 137 115 138
3 138 115 136
3 139 124 116
3 139 116 140
3 140 116 137
3 141 135 121
3 118 129 142
3 118 142 143
3 117 118 143
3 123 117 143
3 122 120 144
3 120 119 144
3 144 119 123
3 141 121 145
3 145 121 122
3 145 122 144
3 146 141 145
3 147 144 123
3 147 123 148
3 143 148 123
3 150 124 139
3 149 150 139
3 131 127 151
3 125 133 152
3 126 125 152
3 126 152 153
3 128 126 153
3 128 153 154
3 128 154 127
3 127 154 151
3 152 133 155
3 130 132 156
3 130 156 129
3 129 156 142
3 131 151 157
3 132 131 157
3 132 157 156
3 156 158 142
3 157 151 159
3 133 160 155
3 134 161 133
3 133 161 160
3 138 136 162
3 136 135 162
3 162 135 141
3 140 137 163
3 163 137 138
3 163 138 162
3 149 139 164
3 164 139 140
3 164 140 165
3 165 140 163
3 166 149 164
3 167 162 141
3 167 141 146
3 142 158 168
3 143 142 168
3 143 168 148
3 146 145 169
3 145 144 169
3 169 144 147
3 170 167 146
3 170 146 169
3 171 169 147
3 171 147 148
3 171 148 172
3 168 172 148
3 173 149 166
3 174 150 149
3 173 174 149
3 154 175 151
3 151 175 159
3 152 155 176
3 153 152 176
3 153 176 177
3 153 177 154
3 154 177 175
3 155 160 178
3 155 178 179
3 176 155 179
3 156 157 180
3 156 180 158
3 157 159 181
3 157 181 180
3 158 180 182
3 158 182 168
3 159 175 183
3 159 183 181
3 175 184 183
3 160 186 178
3 178 186 185
3 161 187 160
3 160 187 186
3 165 163 188
3 163 162 188
3 188 162 167
3 166 164 189
3 189 164 165
3 189 165 188
3 190 173 166
3 190 166 191
3 191 166 189
3 192 188 167
3 192 167 170
3 193 192 170
3 182 194 168
3 194 172 168
3 193 170 195
3 170 169 195
3 195 169 171
3 196 195 171
3 196 171 172
3 194 197 172
3 197 198 172
3 198 196 172
3 200 173 190
3 199 200 190
3 201 174 173
3 200 201 173
3 176 179 202
3 177 176 202
3 177 202 175
3 175 202 184
3 178 185 203
3 178 203 179
3 179 203 202
3 203 185 204
3 202 205 184
3 183 206 181
3 180 181 206
3 180 206 182
3 182 206 194
3 183 184 207
3 205 207 184
3 183 207 206
3 185 208 204
3 186 209 185
3 185 209 208
3 187 210 186
3 186 210 209
3 191 189 211
3 189 188 211
3 211 188 192
3 199 190 212
3 212 190 191
3 212 191 211
3 213 199 212
3 214 211 192
3 214 192 193
3 215 214 193
3 215 193 195
3 206 216 194
3 216 197 194
3 216 217 197
3 215 195 218
3 218 195 196
3 198 218 196
3 217 219 197
3 219 218 198
3 197 219 198
3 220 199 213
3 221 200 199
3 220 221 199
3 222 201 200
3 221 222 200
3 203 204 223
3 203 223 202
3 202 223 205
3 204 208 224
3 204 224 223
3 205 223 225
3 205 225 207
3 207 225 226
3 207 226 206
3 226 216 206
3 208 228 224
3 224 228 227
3 209 229 208
3 229 228 208
3 210 230 209
3 209 230 229
3 213 212 231
3 212 211 231
3 231 211 214
3 232 220 213
3 232 213 231
3 233 231 214
3 233 214 215
3 234 233 215
3 234 215 218
3 226 235 216
3 235 217 216
3 235 236 217
3 217 236 219
3 237 234 218
3 237 218 219
3 236 238 219
3 238 237 219
3 240 220 232
3 239 240 232
3 241 221 220
3 240 241 220
3 242 222 221
3 241 242 221
3 224 227 243
3 224 243 223
3 223 243 225
3 225 243 244
3 225 244 226
3 226 244 235
3 227 245 243
3 228 246 227
3 227 246 245
3 229 247 228
3 228 247 246
3 230 248 229
3 229 248 247
3 239 232 249
3 232 231 249
3 249 231 233
3 250 249 233
3 250 233 234
3 237 250 234
3 244 251 235
3 235 251 236
3 251 252 236
3 236 252 238
3 252 253 238
3 253 250 237
3 253 237 238
3 254 239 249
3 255 240 239
3 254 255 239
3 256 241 240
3 255 256 240
3 257 242 241
3 256 257 241
3 245 258 243
3 243 258 244
3 244 258 251
3 245 259 258
3 246 260 245
3 245 260 259
3 247 261 246
3 246 261 260
3 248 262 247
3 247 262 261
3 254 249 263
3 263 249 250
3 253 263 250
3 258 264 251
3 251 264 252
3 264 265 252
3 265 263 253
3 252 265 253
3 266 254 263
3 267 255 254
3 266 267 254
3 268 256 255
3 267 268 255
3 269 257 256
3 268 269 256
3 259 270 258
3 270 264 258
3 260 271 259
3 259 271 270
3 261 272 260
3 260 272 271
3 262 273 261
3 273 272 261
3 270 274 264
3 275 266 263
3 275 263 265
3 274 276 264
3 276 265 264
3 276 277 265
3 277 275 265
3 278 267 266
3 275 278 266
3 279 268 267
3 278 279 267
3 280 269 268
3 279 280 268
3 271 281 270
3 270 281 274
3 272 282 271
3 271 282 281
3 273 283 272
3 272 283 282
3 281 284 274
3 274 284 276
3 285 278 275
3 277 285 275
3 284 286 276
3 286 285 277
3 276 286 277
3 287 279 278
3 285 287 278
3 288 280 279
3 287 288 279
3 282 289 281
3 281 289 284
3 283 290 282
3 282 290 289
3 289 291 284
3 284 291 286
3 291 292 286
3 292 287 285
3 286 292 285
3 293 288 287
3 292 293 287
3 290 294 289
3 289 294 291
3 294 295 291
3 295 293 292
3 291 295 292
CELL_TYPES 542
5
5
5
5
5
5
5
5
5
5
5
5
5
5
5
5
5
5
5
5
5
5
5
5
5
5
5
5
5
5
5
5
5
5
5
5
5
5
5
5
5
5
5
5
5
5
5
5
5
5
5
5
5
5
5
5
5
5
5
5
5
5
5
5
5
5
5
5
5
5
5
5
5
5
5
5
5
5
5
5
5
5
5
5
5
5
5
5
5
5
5
5
5
5
5
5
5
5
5
5
5
5
5
5
5
5
5
5
5
5
5
5
5
5
5
5
5
5
5
5
5
5
5
5
5
5
5
5
5
5
5
5
5
5
5
5
5
5
5
5
5
5
5
5
5
5
5
5
5
5
5
5
5
5
5
5
5
5
5
5
5
5
5
5
5
5
5
5
5
5
5
5
5
5
5
5
5
5
5
5
5
5
5
5
5
5
5
5
5
5
5
5
5
5
5
5
5
5
5
5
5
5
5
5
5
5
5
5
5
5
5
5
5
5
5
5
5
5
5
5
5
5
5
5
5
5
5
5
5
5
5
5
5
5
5
5
5
5
5
5
5
5
5
5
5
5
5
5
5
5
5
5
5
5
5
5
5
5
5
5
5
5
5
5
5
5
5
5
5
5
5
5
5
5
5
5
5
5
5
5
5
5
5
5
5
5
5
5
5
5
5
5
5
5
5
5
5
5
5
5
5
5
5
5
5
5
5
5
5
5
5
5
5
5
5
5
5
5
5
5
5
5
5
5
5
5
5
5
5
5
5
5
5
5
5
5
5
5
5
5
5
5
5
5
5
5
5
5
5
5
5
5
5
5
5
5
5
5
5
5
5
5
5
5
5
5
5
5
5
5
5
5
5
5
5
5
5
5
5
5
5
5
5
5
5
5
5
5
5
5
5
5
5
5
5
5
5
5
5
5
5
5
5
5
5
5
5
5
5
5
5
5
5
5
5
5
5
5
5
5
5
5
5
5
5
5
5
5
5
5
5
5
5
5
5
5
5
5
5
5
5
5
5
5
5
5
5
5
5
5
5
5
5
5
5
5
5
5
5
5
5
5
5
5
5
5
5
5
5
5
5
5
5
5
5
5
5
5
5
5
5
5
5
5
5
5
5
5
5
5
5
5
5
5
5
5
5
5
5
5
5
5
5
5
5
5
5
5
5
5
5
5
5
5
5
5
5
5
5
5
5
5
5
5
5
5
5
5
5
5
5
5
5
5
5
5
5
5
5
5
5
5
POINT_DATA 296
SCALARS concentrations float 4
LOOKUP_TABLE default
0 0.945659 0.102345 99.5875
0 0.945746 0.101922 28.1789
0 0.945404 0.106474 162.911
0 0.945317 0.100191 25.5746
0 0.945536 0.0925881 16.827
0 0.945477 0.0987579 63.408
0 0.945114 0.114506 9.2488
0 0.945674 0.0922828 8.08462
0 0.945596 0.0918482 2.63111
0 0.945322 0.10802 169.069
0 0.94566 0.103252 125.812
0 0.945323 0.101408 28.1836
0 0.945421 0.0986966 50.0216
0 0.945399 0.0921644 10.1632
0 0.945362 0.0925977 11.25
0 0.94552 0.0916069 5.0601
0 0.94558 0.0914331 3.52486
0 0.945315 0.0933502 14.5047
0 0.945258 0.0935755 15.8314
0 0.945567 0.0914907 3.05724
0 0.945467 0.0916975 4.40784
0 0.945928 0.0977701 20.0907
0 0.945877 0.104966 148.15
0 0.94551 0.0923782 11.2811
0 0.945773 0.0920472 8.56166
0 0.94539 0.0925894 12.5386
0 0.945433 0.0986084 70.4494
0 0.94545 0.0921378 4.96649
0 0.945339 0.0989837 19.7956
0 0.945463 0.091633 6.89225
0 0.94544 0.0915481 5.49401
0 0.945533 0.0913483 3.70663
0 0.945687 0.10098 28.6846
0 0.945556 0.0912609 2.22883
0 0.945559 0.0912478 1.68705
0 0.94539 0.0915727 2.38219
0 0.945456 0.0916111 2.94683
0 0.945527 0.091225 1.68428
0 0.945479 0.0913069 1.97237
0 0.945874 0.0919622 9.53652
0 0.945784 0.0924633 12.4897
0 0.945615 0.0913852 1.60639
0 0.945753 0.0914292 3.77439
0 0.945248 0.0984492 43.3857
0 0.945448 0.0914746 4.08193
0 0.945405 0.0920006 3.47984
0 0.945463 0.0913678 1.27143
0 0.945598 0.0989099 53.163
0 0.945479 0.0920207 6.08784
0 0.945776 0.100684 4.40075
0 0.945513 0.0912354 3.23825
0 0.945495 0.0912199 2.87084
0 0.945546 0.0910567 1.21441
0 0.945529 0.0922181 2.4692
0 0.945256 0.0914702 2.75444
0 0.945546 0.0910383 0.777353
0 0.945496 0.09126 1.65534
0 0.945553 0.0912541 1.49035
0 0.94553 0.0910514 0.97496
0 0.945771 0.091491 3.13159
0 0.945667 0.0914228 1.90032
0 0.945626 0.0911527 1.08106
0 0.945693 0.0911785 1.16063
0 0.945144 0.0975855 53.1077
0 0.94551 0.0910718 1.10633
0 0.945499 0.091329 1.22646
0 0.94552 0.0910599 0.23825
0 0.945688 0.0921593 5.02974
0 0.945591 0.0915332 1.84979
0 0.94572 0.0973732 4.7067
0 0.94574 0.0922598 3.24091
0 0.945665 0.0971059 45.0495
0 0.945545 0.0910161 0.475912
0 0.945536 0.0910158 0.478542
0 0.945544 0.0910417 0.80243
0 0.94552 0.0913391 1.19589
0 0.945321 0.0914893 1.88364
0 0.94542 0.091231 2.2087
0 0.945541 0.0909966 0.508449
0 0.94554 0.0910154 0.509849
0 0.945559 0.0910806 0.906559
0 0.945545 0.0910316 0.914407
0 0.945661 0.0911287 0.51924
0 0.945606 0.0911869 1.04192
0 0.945604 0.0910333 0.940459
0 0.945382 0.0990596 83.9814
0 0.94555 0.0910134 1.30552
0 0.945565 0.0911722 0.660581
0 0.945671 0.0915026 1.28668
0 0.945612 0.0913473 0.308671
0 0.945694 0.0916722 3.55676
0 0.9457 0.091447 0.654591
0 0.94576 0.0974404 78.1796
0 0.945716 0.0916278 1.1627
0 0.945541 0.0910114 0.571747
0 0.945547 0.091032 1.15965
0 0.945543 0.0910299 0.918293
0 0.945561 0.0910494 1.57491
0 0.945761 0.0992278 97.3993
0 0.945391 0.0918066 4.45884
0 0.945534 0.091171 2.01957
0 0.945404 0.0912548 2.42938
0 0.945471 0.0911657 2.3153
0 0.945538 0.0909969 0.40718
0 0.94554 0.0910201 0.710538
0 0.945562 0.0910528 1.01742
0 0.945544 0.0910361 0.913434
0 0.945582 0.091073 1.47897
0 0.945569 0.0910572 1.30555
0 0.945337 0.097536 20.6698
0 0.945587 0.0910817 1.39717
0 0.945639 0.0912712 0.786835
0 0.945705 0.0912653 0.122416
0 0.945664 0.091212 0.645392
0 0.945757 0.0915681 2.57371
0 0.945709 0.0911857 0.517666
0 0.945701 0.0918862 2.93514
0 0.945537 0.091005 0.417717
0 0.945535 0.0910182 0.535762
0 0.94554 0.0910046 0.326985
0 0.945546 0.0910349 1.01298
0 0.945578 0.0910495 0.860479
0 0.945555 0.0910488 1.14479
0 0.945538 0.0910135 0.36544
0 0.945646 0.10065 62.8303
0 0.945277 0.0915547 4.86886
0 0.945368 0.0911483 0.801076
0 0.945515 0.0911027 1.91659
0 0.94544 0.0911067 1.86771
0 0.945537 0.0910301 0.654012
0 0.945547 0.0910547 1.06564
0 0.945545 0.0910746 1.64695
0 0.945544 0.0910734 1.30425
0 0.945162 0.0922357 10.943
0 0.945176 0.0963023 72.3722
0 0.94561 0.0910646 0.794593
0 0.945655 0.0910519 0.477408
0 0.945693 0.0911471 0.22839
0 0.945657 0.090979 0.481171
0 0.945577 0.0921536 3.74835
0 0.945635 0.0913965 0.959291
0 0.945583 0.0911174 0.410543
0 0.945533 0.0910427 0.604681
0 0.945534 0.091031 0.525194
0 0.945545 0.091028 0.408662
0 0.94556 0.0910667 0.535338
0 0.945563 0.0910628 0.397774
0 0.945541 0.0910227 0.260945
0 0.945536 0.0910273 0.278803
0 0.9454 0.0919721 3.9942
0 0.945455 0.0995448 93.8258
0 0.945503 0.0910927 1.83417
0 0.945284 0.0911958 1.85777
0 0.945381 0.0910208 1.1126
0 0.945462 0.0910733 1.81375
0 0.945217 0.0914467 4.82559
0 0.945534 0.0910598 0.884127
0 0.945527 0.0910904 1.47099
0 0.945529 0.0910657 0.773233
0 0.9455 0.0911004 1.74088
0 0.945128 0.0925445 15.0917
0 0.945086 0.102218 24.149
0 0.945605 0.0910775 0.647996
0 0.945624 0.091114 0.878907
0 0.945541 0.0915235 1.67644
0 0.945589 0.0912832 1.19537
0 0.945458 0.0913524 1.4511
0 0.945577 0.0910608 0.472043
0 0.945532 0.0910491 0.51796
0 0.945549 0.0910225 0.259234
0 0.945557 0.0910231 0.351521
0 0.945541 0.0910102 0.0400655
0 0.945536 0.0910333 0.28732
0 0.945324 0.0915011 4.04828
0 0.945258 0.0982428 39.6468
0 0.945457 0.09108 1.83826
0 0.945327 0.0910554 0.768108
0 0.945405 0.091023 1.56333
0 0.945198 0.0916334 5.11705
0 0.94529 0.0912113 1.82194
0 0.945525 0.0910807 1.04185
0 0.945514 0.0911 1.41095
0 0.945525 0.091071 0.831474
0 0.945492 0.0911084 1.54896
0 0.94545 0.0911201 1.86758
0 0.945227 0.0917417 4.88818
0 0.945148 0.0925351 13.3833
0 0.94511 0.102046 132.401
0 0.945578 0.0911117 0.801685
0 0.945543 0.0912653 1.18515
0 0.945432 0.0913009 0.867353
0 0.945506 0.0912359 0.875437
0 0.945562 0.0910494 0.49844
0 0.945554 0.091038 0.397786
0 0.945529 0.0910605 0.711948
0 0.945549 0.0910097 0.267495
0 0.945544 0.0910181 0.265189
0 0.945537 0.0910604 0.685195
0 0.945543 0.0910368 0.408204
0 0.945454 0.091289 1.38602
0 0.945378 0.0917346 5.9805
0 0.945292 0.0990058 133.229
0 0.945384 0.0910997 1.60942
0 0.945304 0.0913262 2.65845
0 0.945308 0.0914376 3.6137
0 0.945434 0.0911372 1.77123
0 0.945514 0.091098 0.895661
0 0.945486 0.0911407 1.45076
0 0.945273 0.0916334 4.1272
0 0.945243 0.0928057 10.6495
0 0.945172 0.0994553 11.1636
0 0.945547 0.0910795 0.57128
0 0.94551 0.0911226 0.748181
0 0.945517 0.0911331 1.32121
0 0.945554 0.0910506 0.45059
0 0.945553 0.0910426 0.378739
0 0.945525 0.0910943 0.868514
0 0.945537 0.0910916 0.810784
0 0.94555 0.0910277 0.362563
0 0.945547 0.0910481 0.574714
0 0.945499 0.0912846 2.35664
0 0.945419 0.0918394 4.61702
0 0.945373 0.099186 107.089
0 0.945394 0.0911908 2.22885
0 0.945361 0.0912674 3.20085
0 0.945463 0.0911505 1.34892
0 0.945505 0.0911336 0.934154
0 0.945399 0.0911967 2.22243
0 0.945311 0.0916632 3.90674
0 0.945279 0.0927519 9.44523
0 0.945316 0.101794 9.13508
0 0.945547 0.0910657 0.561072
0 0.945546 0.0911197 1.0186
0 0.945557 0.0910768 0.309407
0 0.945556 0.0910661 0.27319
0 0.945524 0.0911079 0.789187
0 0.945541 0.0910881 0.608116
0 0.945555 0.0910588 0.379102
0 0.945552 0.0910609 0.557636
0 0.945557 0.0912014 0.910758
0 0.945542 0.0912768 1.51307
0 0.945504 0.0918316 4.82005
0 0.945422 0.0997708 138.191
0 0.945446 0.091097 1.09083
0 0.945498 0.0911247 0.74395
0 0.945466 0.0910735 1.35723
0 0.945392 0.0914943 2.78338
0 0.945246 0.0924397 7.66106
0 0.945209 0.0980847 11.5163
0 0.94556 0.0911251 0.345465
0 0.945561 0.0910733 0.338993
0 0.945529 0.0910796 0.321868
0 0.945549 0.0910369 0.497617
0 0.945559 0.0910247 0.659085
0 0.945556 0.0912431 0.53433
0 0.945535 0.0913684 1.8539
0 0.945553 0.0919855 3.87076
0 0.945558 0.0993116 101.553
0 0.945509 0.0910336 0.575959
0 0.94553 0.0911083 1.78459
0 0.945518 0.0913848 3.25787
0 0.945441 0.0921069 3.92938
0 0.945259 0.101905 15.556
0 0.945562 0.0910945 0.448416
0 0.945541 0.0910006 0.437544
0 0.945554 0.0910052 0.606355
0 0.94555 0.0912334 1.05433
0 0.945513 0.0914193 2.3353
0 0.945452 0.0918121 2.69887
0 0.945497 0.0995168 29.4453
0 0.945551 0.0910609 1.27908
0 0.945601 0.0912283 3.05918
0 0.945657 0.0916465 7.52156
0 0.945608 0.0966042 55.711
0 0.945546 0.0911306 0.911538
0 0.945551 0.0911275 0.957361
0 0.945538 0.0911107 0.660622
0 0.945542 0.0911718 1.29078
0 0.945524 0.0913617 2.70166
0 0.945419 0.0923005 7.06329
0 0.94534 0.101032 0.93569
0 0.945578 0.0912924 2.76799
0 0.945696 0.0917441 8.91322
0 0.945759 0.0997432 58.1479
0 0.945505 0.0913589 1.86571
0 0.945536 0.0913128 1.85646
0 0.945496 0.0914058 2.19317
0 0.945567 0.0920603 5.77166
0 0.94546 0.0993047 27.3814
0 0.945513 0.0920072 5.97746
0 0.945676 0.0955284 50.925
0 0.945345 0.0922331 4.2832
0 0.945516 0.0918636 1.42631
0 0.945637 0.0983091 32.5242
0 0.945303 0.10138 6.38146
0 0.945339 0.097766 42.3646
VECTORS fa_u float
0.00583503 0.00242735 -0
0.00572687 0.00330062 -0
0.00630122 0.00171932 -0
0.00701223 0.000950084 -0
1e-08 0 0
0.00566804 0.00435728 -0
0.00419649 0.00418795 -0
1e-08 0 0
1e-08 0 0
0.00334112 0.00424985 -0
0.00467591 0.00796883 -0
0.00622093 2.80033e-05 -0
0.00635739 -0.000782104 0
1e-08 0 0
1e-08 0 0
1e-08 0 0
1e-08 0 0
1e-08 0 0
1e-08 0 0
1e-08 0 0
1e-08 0 0
0.00217729 0.00524097 -0
0.00212217 0.00794834 -0
1e-08 0 0
1e-08 0 0
1e-08 0 0
0.0081902 -0.00217697 0
1e-08 0 0
0.00624254 -0.0026347 0
1e-08 0 0
1e-08 0 0
1e-08 0 0
0.000786091 0.0062558 -0
1e-08 0 0
1e-08 0 0
1e-08 0 0
1e-08 0 0
1e-08 0 0
1e-08 0 0
1e-08 0 0
1e-08 0 0
1e-08 0 0
1e-08 0 0
-4.96658e-05 0.0073167 -0
1e-08 0 0
1e-08 0 0
1e-08 0 0
0.00602419 -0.00354667 0
1e-08 0 0
0.00503728 -0.00393008 0
1e-08 0 0
1e-08 0 0
1e-08 0 0
1e-08 0 0
1e-08 0 0
1e-08 0 0
1e-08 0 0
1e-08 0 0
1e-08 0 0
1e-08 0 0
1e-08 0 0
1e-08 0 0
1e-08 0 0
-0.000835707 0.00603647 0
1e-08 0 0
1e-08 0 0
1e-08 0 0
1e-08 0 0
1e-08 0 0
0.00398793 -0.0039975 0
1e-08 0 0
0.00347738 -0.00444072 0
1e-08 0 0
1e-08 0 0
1e-08 0 0
1e-08 0 0
1e-08 0 0
1e-08 0 0
1e-08 0 0
1e-08 0 0
1e-08 0 0
1e-08 0 0
1e-08 0 0
1e-08 0 0
1e-08 0 0
-0.00143055 0.00539147 0
1e-08 0 0
1e-08 0 0
1e-08 0 0
1e-08 0 0
1e-08 0 0
1e-08 0 0
0.004118 -0.00698861 0
1e-08 0 0
1e-08 0 0
1e-08 0 0
1e-08 0 0
1e-08 0 0
0.00288324 -0.00699734 0
1e-08 0 0
1e-08 0 0
1e-08 0 0
1e-08 0 0
1e-08 0 0
1e-08 0 0
1e-08 0 0
1e-08 0 0
1e-08 0 0
1e-08 0 0
-0.0030023 0.00730604 0
1e-08 0 0
1e-08 0 0
1e-08 0 0
1e-08 0 0
1e-08 0 0
1e-08 0 0
1e-08 0 0
1e-08 0 0
1e-08 0 0
1e-08 0 0
1e-08 0 0
1e-08 0 0
1e-08 0 0
1e-08 0 0
0.00160443 -0.00608052 0
1e-08 0 0
1e-08 0 0
1e-08 0 0
1e-08 0 0
1e-08 0 0
1e-08 0 0
1e-08 0 0
1e-08 0 0
1e-08 0 0
-0.0035942 0.00615564 0
1e-08 0 0
1e-08 0 0
1e-08 0 0
1e-08 0 0
1e-08 0 0
1e-08 0 0
1e-08 0 0
1e-08 0 0
1e-08 0 0
1e-08 0 0
1e-08 0 0
1e-08 0 0
1e-08 0 0
1e-08 0 0
1e-08 0 0
0.000811498 -0.00611056 0
1e-08 0 0
1e-08 0 0
1e-08 0 0
1e-08 0 0
1e-08 0 0
1e-08 0 0
1e-08 0 0
1e-08 0 0
1e-08 0 0
1e-08 0 0
-0.00374224 0.00483749 0
1e-08 0 0
1e-08 0 0
1e-08 0 0
1e-08 0 0
1e-08 0 0
1e-08 0 0
1e-08 0 0
1e-08 0 0
1e-08 0 0
1e-08 0 0
1e-08 0 0
1e-08 0 0
1.11938e-05 -0.00713302 0
1e-08 0 0
1e-08 0 0
1e-08 0 0
1e-08 0 0
1e-08 0 0
1e-08 0 0
1e-08 0 0
1e-08 0 0
1e-08 0 0
1e-08 0 0
1e-08 0 0
1e-08 0 0
-0.00397531 0.00401218 0
1e-08 0 0
1e-08 0 0
1e-08 0 0
1e-08 0 0
1e-08 0 0
1e-08 0 0
1e-08 0 0
1e-08 0 0
1e-08 0 0
1e-08 0 0
1e-08 0 0
1e-08 0 0
1e-08 0 0
-0.000676668 -0.00539062 0
1e-08 0 0
1e-08 0 0
1e-08 0 0
1e-08 0 0
1e-08 0 0
1e-08 0 0
1e-08 0 0
1e-08 0 0
-0.00507864 0.00398926 0
1e-08 0 0
1e-08 0 0
1e-08 0 0
1e-08 0 0
1e-08 0 0
1e-08 0 0
1e-08 0 0
1e-08 0 0
1e-08 0 0
1e-08 0 0
1e-08 0 0
-0.00223536 -0.00845019 0
1e-08 0 0
1e-08 0 0
1e-08 0 0
1e-08 0 0
1e-08 0 0
1e-08 0 0
1e-08 0 0
-0.00633782 0.00373983 0
1e-08 0 0
1e-08 0 0
1e-08 0 0
1e-08 0 0
1e-08 0 0
1e-08 0 0
1e-08 0 0
1e-08 0 0
1e-08 0 0
1e-08 0 0
1e-08 0 0
-0.00213629 -0.0051509 0
1e-08 0 0
1e-08 0 0
1e-08 0 0
1e-08 0 0
1e-08 0 0
-0.00792303 0.00326165 0
1e-08 0 0
1e-08 0 0
1e-08 0 0
1e-08 0 0
1e-08 0 0
1e-08 0 0
1e-08 0 0
1e-08 0 0
-0.00422798 -0.00728191 0
1e-08 0 0
1e-08 0 0
1e-08 0 0
1e-08 0 0
-0.00482232 0.00128328 0
1e-08 0 0
1e-08 0 0
1e-08 0 0
1e-08 0 0
1e-08 0 0
1e-08 0 0
-0.00410544 -0.00523864 0
1e-08 0 0
1e-08 0 0
1e-08 0 0
-0.00847659 0.00110616 0
1e-08 0 0
1e-08 0 0
1e-08 0 0
1e-08 0 0
1e-08 0 0
1e-08 0 0
-0.00394319 -0.00391228 0
1e-08 0 0
1e-08 0 0
-0.00665136 -6.22533e-05 0
1e-08 0 0
1e-08 0 0
1e-08 0 0
1e-08 0 0
-0.0054799 -0.00421442 0
1e-08 0 0
-0.00594807 -0.000817378 0
1e-08 0 0
1e-08 0 0
-0.00568375 -0.00328723 0
-0.00550163 -0.0014546 0
-0.00718886 -0.00294776 0
