# vtk DataFile Version 2.0
CellBP Time: 11.56
ASCII
DATASET UNSTRUCTURED_GRID
POINTS 296 double
-8.92574 -3.66191 0
-8.3578 -4.80175 0
-9.32749 -2.45293 0
-9.5945 -1.21535 0
-8.25875 -2.77474 0
-7.65627 -5.86666 0
-6.81367 -6.82256 0
-7.81863 -3.81952 0
-7.24862 -4.8072 0
-5.86462 -7.66384 0
-4.81954 -8.3775 0
-9.67396 0.0466038 0
-9.60777 1.31673 0
-8.56658 -1.65804 0
-8.70229 -0.521683 0
-7.49397 -1.96922 0
-7.12732 -2.85828 0
-6.56161 -5.71954 0
-5.76467 -6.53861 0
-6.69577 -3.83079 0
-6.13861 -4.61713 0
-3.67964 -8.94277 0
-2.46959 -9.35003 0
-4.86659 -7.25199 0
-3.89102 -7.83153 0
-8.71567 0.63427 0
-9.36351 2.57177 0
-8.55418 1.75372 0
-8.95206 3.77716 0
-7.65537 -0.910731 0
-7.71179 0.0833529 0
-6.86711 -1.29187 0
-1.21589 -9.60044 0
-6.36329 -2.12026 0
-6.23972 -3.01123 0
-5.47097 -5.41686 0
-4.74576 -6.05894 0
-5.58841 -3.70872 0
-5.20146 -4.50682 0
-2.84858 -8.30396 0
-1.7633 -8.57481 0
-3.89467 -6.66858 0
-3.03818 -7.09918 0
0.0524759 -9.6797 0
-7.62896 1.13121 0
-8.27991 2.89385 0
-7.48116 2.08687 0
-8.37428 4.91041 0
-7.81154 3.94196 0
-7.65659 5.96319 0
-6.7011 -0.386946 0
-6.87933 0.550073 0
-5.71291 -0.990917 0
-0.584664 -8.73639 0
0.555479 -8.68721 0
-5.24809 -2.44969 0
-4.43639 -5.04048 0
-3.86007 -5.72045 0
-4.39293 -3.76498 0
-2.04669 -7.50318 0
-1.12673 -7.72033 0
-2.9666 -6.0488 0
-2.29283 -6.56674 0
1.31353 -9.57822 0
-6.62193 1.40565 0
-7.10052 3.08415 0
-6.59318 2.34701 0
-7.2229 4.93817 0
-6.65031 3.95869 0
-6.81649 6.91335 0
-6.50653 5.83172 0
-5.86294 7.75516 0
-4.42208 -1.17391 0
-5.76198 0.504995 0
-4.62477 -0.0169345 0
0.0016776 -7.77206 0
1.71152 -8.54968 0
0.928674 -7.67906 0
-4.00978 -2.38576 0
-3.47423 -1.38676 0
-3.26525 -4.7624 0
-3.24721 -3.24281 0
-1.37179 -6.61552 0
-0.512352 -6.95608 0
-1.96176 -5.4934 0
2.55916 -9.32694 0
-5.45761 2.01906 0
-6.03372 3.03761 0
-6.04246 4.81421 0
-5.70196 3.94334 0
-5.70204 6.6433 0
-5.39489 5.55386 0
-4.81863 8.48153 0
-4.78711 7.32071 0
-3.48649 -0.423064 0
-4.41604 1.2396 0
-3.69007 0.588871 0
-4.03007 2.3091 0
-3.68039 9.04398 0
2.81876 -8.22938 0
0.402141 -6.71883 0
1.98581 -7.43252 0
1.27678 -6.82059 0
-2.43868 -0.869051 0
-2.82892 -2.12045 0
-2.28257 -4.06774 0
-2.31587 -2.95535 0
-0.445811 -5.80444 0
-1.21292 -4.46772 0
3.76804 -8.93009 0
-4.74482 3.35918 0
-5.03498 4.53971 0
-4.59653 6.20594 0
-4.49047 5.29554 0
-3.8088 7.91499 0
-3.78279 6.76102 0
-2.75386 8.33489 0
-1.64643 -0.133566 0
-1.44675 -0.886451 0
-2.48388 0.511168 0
-3.23509 1.44075 0
-3.2143 3.29374 0
-2.89354 2.36647 0
-1.35478 0.631297 0
-2.47106 9.44197 0
3.87898 -7.78826 0
2.91373 -7.05711 0
0.933411 -5.75584 0
2.03626 -6.33083 0
-1.67681 -1.98531 0
-1.42644 -3.25835 0
0.0864232 -4.70579 0
-0.559668 -3.67263 0
4.87021 -7.2251 0
4.90598 -8.36635 0
-3.74125 4.50528 0
-3.69554 5.68593 0
-2.85344 7.20475 0
-2.97724 6.2814 0
-1.64449 8.65099 0
-1.91619 7.53946 0
-2.3229 4.02155 0
-0.728325 -1.32365 0
-0.836249 -0.253854 0
-1.9339 1.68396 0
-2.11686 2.86645 0
-1.30369 3.52827 0
-0.871872 1.35474 0
-0.284581 0.459326 0
-0.527737 8.79656 0
-1.22038 9.69293 0
1.09715 -4.52902 0
3.84811 -6.61478 0
2.94032 -6.00907 0
2.08493 -5.3573 0
4.72221 -6.11611 0
-0.55473 -2.46749 0
0.493471 -3.44199 0
0.0544184 -1.60744 0
1.46667 -3.64931 0
5.80275 -6.53159 0
5.95581 -7.64701 0
-2.45324 5.29595 0
-2.10499 6.46352 0
-0.891318 7.72992 0
-1.25333 6.85988 0
0.0884837 7.81355 0
-1.13825 4.46314 0
0.148978 -0.61465 0
-0.801723 2.4891 0
-0.337254 3.58822 0
0.0582626 1.51459 0
0.736832 0.474528 0
0.64026 8.80705 0
0.046925 9.78025 0
2.35143 -4.23582 0
3.80582 -5.55891 0
2.95915 -5.14295 0
5.51386 -5.42032 0
4.63278 -5.20522 0
0.630339 -2.2885 0
1.24788 -2.93285 0
0.75604 -1.3891 0
2.14542 -3.10942 0
2.96466 -3.4403 0
6.09777 -4.73565 0
6.59417 -5.706 0
6.92079 -6.8131 0
-1.00781 5.76715 0
-0.362701 6.81804 0
1.11462 7.71053 0
0.557757 7.01989 0
-0.00364021 4.69542 0
0.599008 3.81002 0
1.33488 -0.641319 0
0.531948 2.64514 0
0.959084 1.57482 0
1.90339 0.212658 0
1.60714 1.06386 0
2.11636 7.5288 0
1.78704 8.64974 0
1.31826 9.69829 0
3.77963 -4.29529 0
5.06123 -4.38631 0
5.79198 -3.88686 0
3.74984 -3.16708 0
1.80501 -1.87905 0
2.99669 -2.55509 0
6.72906 -3.90951 0
7.32319 -4.85255 0
7.76681 -5.86581 0
0.482052 5.8349 0
1.42004 6.68974 0
2.36008 6.62041 0
1.20034 4.52923 0
1.47864 3.38093 0
2.42493 -0.690359 0
2.81502 0.142711 0
1.77945 2.1572 0
2.60191 1.14683 0
3.05372 7.1186 0
2.88871 8.31861 0
2.57274 9.45511 0
4.86609 -3.28709 0
6.07021 -3.07425 0
4.14228 -2.25775 0
3.22534 -1.49657 0
6.68371 -2.29554 0
7.18121 -3.02085 0
7.9104 -3.88716 0
8.47898 -4.81873 0
2.01184 5.55995 0
3.05798 6.1038 0
2.35229 4.10005 0
2.40886 3.04413 0
3.50575 -0.456944 0
3.59666 0.614139 0
2.94653 2.27626 0
3.5234 1.51796 0
3.9692 5.8461 0
3.95087 6.73989 0
3.95117 7.88401 0
3.78242 9.0465 0
5.52865 -1.90016 0
4.47996 -1.12093 0
6.66303 -1.32459 0
7.53888 -2.02014 0
8.33985 -2.843 0
9.04939 -3.68352 0
3.38395 4.83494 0
3.3117 3.35937 0
4.65952 0.132494 0
4.48143 1.2991 0
4.02774 2.42241 0
4.51318 5.10025 0
4.79327 6.1362 0
4.94021 7.32359 0
4.92313 8.48229 0
5.83504 -0.433318 0
6.95082 -0.487206 0
7.70206 -1.07311 0
8.6234 -1.73013 0
9.44618 -2.46933 0
4.4996 3.78836 0
5.75886 1.08198 0
5.30927 2.50387 0
5.30777 4.5673 0
5.54545 5.46795 0
5.83848 6.61384 0
5.96957 7.77011 0
6.77791 0.450949 0
7.78565 -0.0276109 0
8.79389 -0.574464 0
9.70256 -1.21603 0
6.88337 1.32526 0
5.64583 3.73146 0
6.46164 2.16304 0
6.29641 3.04391 0
6.20881 4.63069 0
6.61589 5.77889 0
6.91874 6.92527 0
7.70762 0.951855 0
8.78213 0.566408 0
9.78545 0.0541221 0
7.53017 1.97381 0
6.73187 3.84793 0
7.17586 2.90227 0
7.29167 4.83095 0
7.76411 5.97011 0
8.63495 1.70462 0
9.67818 1.31554 0
8.32349 2.79905 0
7.89102 3.86923 0
8.46589 4.90802 0
9.43479 2.56361 0
9.0309 3.76948 0
CELLS 542 2168
3 2 0 4
3 0 1 7
3 4 0 7
3 1 5 8
3 7 1 8
3 3 2 13
3 13 2 4
3 11 3 14
3 14 3 13
3 13 4 15
3 4 7 16
3 15 4 16
3 5 6 17
3 8 5 17
3 6 9 18
3 17 6 18
3 7 8 19
3 16 7 19
3 8 17 20
3 19 8 20
3 9 10 23
3 18 9 23
3 10 21 24
3 23 10 24
3 12 11 25
3 25 11 14
3 26 12 27
3 27 12 25
3 14 13 29
3 29 13 15
3 25 14 30
3 30 14 29
3 29 15 31
3 15 16 33
3 31 15 33
3 16 19 34
3 33 16 34
3 17 18 35
3 20 17 35
3 18 23 36
3 35 18 36
3 19 20 37
3 34 19 37
3 20 35 38
3 37 20 38
3 21 22 39
3 24 21 39
3 22 32 40
3 39 22 40
3 23 24 41
3 36 23 41
3 24 39 42
3 41 24 42
3 27 25 44
3 44 25 30
3 28 26 45
3 45 26 27
3 45 27 46
3 46 27 44
3 47 28 48
3 48 28 45
3 30 29 50
3 50 29 31
3 44 30 51
3 51 30 50
3 50 31 52
3 31 33 52
3 32 43 53
3 40 32 53
3 53 43 54
3 33 34 55
3 34 37 55
3 33 55 52
3 35 36 56
3 38 35 56
3 36 41 57
3 56 36 57
3 37 38 58
3 38 56 58
3 37 58 55
3 39 40 59
3 42 39 59
3 40 53 60
3 59 40 60
3 41 42 61
3 57 41 61
3 42 59 62
3 61 42 62
3 43 63 54
3 46 44 64
3 64 44 51
3 48 45 65
3 65 45 46
3 65 46 66
3 66 46 64
3 49 47 67
3 67 47 48
3 67 48 68
3 68 48 65
3 69 49 70
3 70 49 67
3 52 55 72
3 64 51 73
3 51 50 73
3 50 52 73
3 73 52 74
3 74 52 72
3 53 54 75
3 60 53 75
3 54 63 76
3 54 76 77
3 75 54 77
3 55 58 78
3 72 55 78
3 72 78 79
3 56 57 80
3 57 61 80
3 56 80 58
3 58 80 81
3 78 58 81
3 59 60 82
3 62 59 82
3 60 75 83
3 82 60 83
3 61 62 84
3 62 82 84
3 61 84 80
3 63 85 76
3 66 64 86
3 64 73 86
3 68 65 87
3 87 65 66
3 87 66 86
3 70 67 88
3 88 67 68
3 88 68 89
3 89 68 87
3 71 69 90
3 90 69 70
3 90 70 91
3 91 70 88
3 92 71 93
3 93 71 90
3 74 72 94
3 94 72 79
3 86 73 95
3 95 73 74
3 95 74 96
3 96 74 94
3 97 86 95
3 76 85 99
3 75 77 100
3 83 75 100
3 76 99 101
3 77 76 101
3 77 101 102
3 100 77 102
3 94 79 103
3 78 81 104
3 79 78 104
3 79 104 103
3 80 84 105
3 81 80 105
3 81 105 106
3 104 81 106
3 82 83 107
3 83 100 107
3 82 107 84
3 84 107 108
3 105 84 108
3 85 109 99
3 89 87 110
3 87 86 110
3 110 86 97
3 91 88 111
3 111 88 89
3 111 89 110
3 93 90 112
3 112 90 91
3 112 91 113
3 113 91 111
3 98 92 114
3 114 92 93
3 114 93 115
3 115 93 112
3 116 98 114
3 117 103 118
3 96 94 119
3 94 103 119
3 119 103 117
3 97 95 120
3 120 95 96
3 120 96 119
3 121 110 97
3 121 97 122
3 122 97 120
3 123 119 117
3 124 98 116
3 99 109 125
3 99 125 126
3 101 99 126
3 100 102 127
3 100 127 107
3 101 126 128
3 102 101 128
3 102 128 127
3 104 106 129
3 104 129 103
3 103 129 118
3 105 108 130
3 106 105 130
3 106 130 129
3 107 127 131
3 108 107 131
3 108 131 132
3 108 132 130
3 109 134 125
3 125 134 133
3 113 111 135
3 111 110 135
3 135 110 121
3 115 112 136
3 136 112 113
3 136 113 135
3 116 114 137
3 137 114 115
3 137 115 138
3 138 115 136
3 139 124 116
3 139 116 140
3 140 116 137
3 141 135 121
3 118 129 142
3 118 142 143
3 117 118 143
3 123 117 143
3 122 120 144
3 120 119 144
3 144 119 123
3 141 121 145
3 145 121 122
3 145 122 144
3 146 141 145
3 147 144 123
3 147 123 148
3 143 148 123
3 150 124 139
3 149 150 139
3 131 127 151
3 125 133 152
3 126 125 152
3 126 152 153
3 128 126 153
3 128 153 154
3 128 154 127
3 127 154 151
3 152 133 155
3 130 132 156
3 130 156 129
3 129 156 142
3 131 151 157
3 132 131 157
3 132 157 156
3 156 158 142
3 157 151 159
3 133 160 155
3 134 161 133
3 133 161 160
3 138 136 162
3 136 135 162
3 162 135 141
3 140 137 163
3 163 137 138
3 163 138 162
3 149 139 164
3 164 139 140
3 164 140 165
3 165 140 163
3 166 149 164
3 167 162 141
3 167 141 146
3 142 158 168
3 143 142 168
3 143 168 148
3 146 145 169
3 145 144 169
3 169 144 147
3 170 167 146
3 170 146 169
3 171 169 147
3 171 147 148
3 171 148 172
3 168 172 148
3 173 149 166
3 174 150 149
3 173 174 149
3 154 175 151
3 151 175 159
3 152 155 176
3 153 152 176
3 153 176 177
3 153 177 154
3 154 177 175
3 155 160 178
3 155 178 179
3 176 155 179
3 156 157 180
3 156 180 158
3 157 159 181
3 157 181 180
3 158 180 182
3 158 182 168
3 159 175 183
3 159 183 181
3 175 184 183
3 160 186 178
3 178 186 185
3 161 187 160
3 160 187 186
3 165 163 188
3 163 162 188
3 188 162 167
3 166 164 189
3 189 164 165
3 189 165 188
3 190 173 166
3 190 166 191
3 191 166 189
3 192 188 167
3 192 167 170
3 193 192 170
3 182 194 168
3 194 172 168
3 193 170 195
3 170 169 195
3 195 169 171
3 196 195 171
3 196 171 172
3 194 197 172
3 197 198 172
3 198 196 172
3 200 173 190
3 199 200 190
3 201 174 173
3 200 201 173
3 176 179 202
3 177 176 202
3 177 202 175
3 175 202 184
3 178 185 203
3 178 203 179
3 179 203 202
3 203 185 204
3 202 205 184
3 183 206 181
3 180 181 206
3 180 206 182
3 182 206 194
3 183 184 207
3 205 207 184
3 183 207 206
3 185 208 204
3 186 209 185
3 185 209 208
3 187 210 186
3 186 210 209
3 191 189 211
3 189 188 211
3 211 188 192
3 199 190 212
3 212 190 191
3 212 191 211
3 213 199 212
3 214 211 192
3 214 192 193
3 215 214 193
3 215 193 195
3 206 216 194
3 216 197 194
3 216 217 197
3 215 195 218
3 218 195 196
3 198 218 196
3 217 219 197
3 219 218 198
3 197 219 198
3 220 199 213
3 221 200 199
3 220 221 199
3 222 201 200
3 221 222 200
3 203 204 223
3 203 223 202
3 202 223 205
3 204 208 224
3 204 224 223
3 205 223 225
3 205 225 207
3 207 225 226
3 207 226 206
3 226 216 206
3 208 228 224
3 224 228 227
3 209 229 208
3 229 228 208
3 210 230 209
3 209 230 229
3 213 212 231
3 212 211 231
3 231 211 214
3 232 220 213
3 232 213 231
3 233 231 214
3 233 214 215
3 234 233 215
3 234 215 218
3 226 235 216
3 235 217 216
3 235 236 217
3 217 236 219
3 237 234 218
3 237 218 219
3 236 238 219
3 238 237 219
3 240 220 232
3 239 240 232
3 241 221 220
3 240 241 220
3 242 222 221
3 241 242 221
3 224 227 243
3 224 243 223
3 223 243 225
3 225 243 244
3 225 244 226
3 226 244 235
3 227 245 243
3 228 246 227
3 227 246 245
3 229 247 228
3 228 247 246
3 230 248 229
3 229 248 247
3 239 232 249
3 232 231 249
3 249 231 233
3 250 249 233
3 250 233 234
3 237 250 234
3 244 251 235
3 235 251 236
3 251 252 236
3 236 252 238
3 252 253 238
3 253 250 237
3 253 237 238
3 254 239 249
3 255 240 239
3 254 255 239
3 256 241 240
3 255 256 240
3 257 242 241
3 256 257 241
3 245 258 243
3 243 258 244
3 244 258 251
3 245 259 258
3 246 260 245
3 245 260 259
3 247 261 246
3 246 261 260
3 248 262 247
3 247 262 261
3 254 249 263
3 263 249 250
3 253 263 250
3 258 264 251
3 251 264 252
3 264 265 252
3 265 263 253
3 252 265 253
3 266 254 263
3 267 255 254
3 266 267 254
3 268 256 255
3 267 268 255
3 269 257 256
3 268 269 256
3 259 270 258
3 270 264 258
3 260 271 259
3 259 271 270
3 261 272 260
3 260 272 271
3 262 273 261
3 273 272 261
3 270 274 264
3 275 266 263
3 275 263 265
3 274 276 264
3 276 265 264
3 276 277 265
3 277 275 265
3 278 267 266
3 275 278 266
3 279 268 267
3 278 279 267
3 280 269 268
3 279 280 268
3 271 281 270
3 270 281 274
3 272 282 271
3 271 282 281
3 273 283 272
3 272 283 282
3 281 284 274
3 274 284 276
3 285 278 275
3 277 285 275
3 284 286 276
3 286 285 277
3 276 286 277
3 287 279 278
3 285 287 278
3 288 280 279
3 287 288 279
3 282 289 281
3 281 289 284
3 283 290 282
3 282 290 289
3 289 291 284
3 284 291 286
3 291 292 286
3 292 287 285
3 286 292 285
3 293 288 287
3 292 293 287
3 290 294 289
3 289 294 291
3 294 295 291
3 295 293 292
3 291 295 292
CELL_TYPES 542
5
5
5
5
5
5
5
5
5
5
5
5
5
5
5
5
5
5
5
5
5
5
5
5
5
5
5
5
5
5
5
5
5
5
5
5
5
5
5
5
5
5
5
5
5
5
5
5
5
5
5
5
5
5
5
5
5
5
5
5
5
5
5
5
5
5
5
5
5
5
5
5
5
5
5
5
5
5
5
5
5
5
5
5
5
5
5
5
5
5
5
5
5
5
5
5
5
5
5
5
5
5
5
5
5
5
5
5
5
5
5
5
5
5
5
5
5
5
5
5
5
5
5
5
5
5
5
5
5
5
5
5
5
5
5
5
5
5
5
5
5
5
5
5
5
5
5
5
5
5
5
5
5
5
5
5
5
5
5
5
5
5
5
5
5
5
5
5
5
5
5
5
5
5
5
5
5
5
5
5
5
5
5
5
5
5
5
5
5
5
5
5
5
5
5
5
5
5
5
5
5
5
5
5
5
5
5
5
5
5
5
5
5
5
5
5
5
5
5
5
5
5
5
5
5
5
5
5
5
5
5
5
5
5
5
5
5
5
5
5
5
5
5
5
5
5
5
5
5
5
5
5
5
5
5
5
5
5
5
5
5
5
5
5
5
5
5
5
5
5
5
5
5
5
5
5
5
5
5
5
5
5
5
5
5
5
5
5
5
5
5
5
5
5
5
5
5
5
5
5
5
5
5
5
5
5
5
5
5
5
5
5
5
5
5
5
5
5
5
5
5
5
5
5
5
5
5
5
5
5
5
5
5
5
5
5
5
5
5
5
5
5
5
5
5
5
5
5
5
5
5
5
5
5
5
5
5
5
5
5
5
5
5
5
5
5
5
5
5
5
5
5
5
5
5
5
5
5
5
5
5
5
5
5
5
5
5
5
5
5
5
5
5
5
5
5
5
5
5
5
5
5
5
5
5
5
5
5
5
5
5
5
5
5
5
5
5
5
5
5
5
5
5
5
5
5
5
5
5
5
5
5
5
5
5
5
5
5
5
5
5
5
5
5
5
5
5
5
5
5
5
5
5
5
5
5
5
5
5
5
5
5
5
5
5
5
5
5
5
5
5
5
5
5
5
5
5
5
5
5
5
5
5
5
5
5
5
5
5
5
5
5
5
5
5
5
5
5
5
5
5
5
5
5
5
5
5
5
5
5
5
5
5
5
5
5
5
5
5
5
5
5
5
5
5
5
5
5
5
5
5
5
5
5
5
5
5
5
5
5
5
5
POINT_DATA 296
SCALARS concentrations float 4
LOOKUP_TABLE default
0 0.945522 0.09927 4.21506
0 0.945506 0.0975955 84.6043
0 0.945468 0.100232 56.2046
0 0.945449 0.103505 105.397
0 0.945541 0.0919947 4.91403
0 0.945574 0.0970504 7.53003
0 0.945769 0.104671 203.37
0 0.945574 0.0917922 3.73021
0 0.945601 0.091895 7.27642
0 0.945771 0.102563 35.4138
0 0.945384 0.1045 8.80854
0 0.945471 0.100575 47.3297
0 0.945587 0.0993788 33.925
0 0.945501 0.0922207 8.43682
0 0.945474 0.0921977 8.45331
0 0.945588 0.0914888 2.57697
0 0.945627 0.091355 1.52431
0 0.94572 0.092541 16.1015
0 0.945826 0.0928768 16.2566
0 0.945679 0.0911983 2.20934
0 0.945747 0.0914269 5.27322
0 0.945349 0.101331 44.7333
0 0.945339 0.0993335 104.303
0 0.945652 0.0921811 3.41799
0 0.945461 0.0924344 11.7403
0 0.945543 0.0919606 5.08073
0 0.945297 0.104907 126.039
0 0.945446 0.0918082 1.91365
0 0.945433 0.0999053 10.4854
0 0.945546 0.0914493 1.24383
0 0.945532 0.0913654 0.311056
0 0.945604 0.0912919 1.62715
0 0.945294 0.10227 53.8998
0 0.945644 0.0912058 1.47569
0 0.945688 0.0911074 0.490473
0 0.945808 0.0916925 6.60545
0 0.945788 0.0915462 4.83577
0 0.945732 0.0910587 0.794085
0 0.945783 0.0912595 2.45272
0 0.945461 0.0928056 12.6809
0 0.945393 0.0922819 2.72021
0 0.945696 0.0914723 4.66269
0 0.945614 0.0914081 3.53061
0 0.945431 0.102211 115.985
0 0.945496 0.0913069 1.27752
0 0.945368 0.0918659 2.24279
0 0.945456 0.0911303 0.586845
0 0.945413 0.0977583 0.608331
0 0.945461 0.0915756 2.99421
0 0.945313 0.103983 10.2667
0 0.945574 0.0912246 1.19425
0 0.945541 0.0911914 0.674117
0 0.94562 0.0910861 1.24977
0 0.945424 0.0919458 8.79847
0 0.945434 0.0919378 9.40603
0 0.94568 0.0909945 0.782877
0 0.945786 0.0912563 1.62037
0 0.945768 0.0912809 1.61391
0 0.945731 0.0910261 0.783433
0 0.945569 0.0914823 3.86359
0 0.945533 0.091362 3.52217
0 0.945718 0.0911813 0.352128
0 0.945663 0.0911703 1.06769
0 0.94536 0.10003 78.8448
0 0.945524 0.0910532 0.588131
0 0.945453 0.0910536 0.427598
0 0.945504 0.0909896 0.443589
0 0.945388 0.0917826 2.76928
0 0.945474 0.0910692 0.36001
0 0.945326 0.107225 12.822
0 0.9454 0.0924032 4.93013
0 0.944888 0.10426 36.6947
0 0.945638 0.0909897 0.840844
0 0.945573 0.091041 0.759235
0 0.9456 0.0910174 0.717285
0 0.945501 0.0912791 3.98616
0 0.945375 0.0917669 5.90029
0 0.945463 0.0912189 2.73732
0 0.945675 0.0909974 0.997832
0 0.94563 0.0909866 0.850917
0 0.94573 0.0910638 1.37557
0 0.945692 0.0910242 1.47021
0 0.945626 0.0910659 1.23075
0 0.945577 0.0911053 1.92901
0 0.945675 0.0910852 2.11347
0 0.945314 0.0966932 38.9076
0 0.945559 0.090993 0.324229
0 0.945526 0.0910075 0.551166
0 0.945483 0.0913169 1.14119
0 0.945538 0.0911027 1.12591
0 0.945243 0.0923581 5.98893
0 0.945456 0.0912755 1.95506
0 0.944852 0.102261 72.9987
0 0.945042 0.0920937 8.44405
0 0.945605 0.0909964 0.810087
0 0.945581 0.0910066 0.395112
0 0.945591 0.0910064 0.647352
0 0.945588 0.0910172 0.351304
0 0.945056 0.101457 26.1933
0 0.945318 0.091861 7.72408
0 0.945543 0.0910893 0.950161
0 0.945421 0.0912114 2.11656
0 0.945496 0.0911001 0.322195
0 0.9456 0.0909991 0.978762
0 0.945637 0.0910017 1.27763
0 0.945674 0.0910606 2.08634
0 0.945643 0.0910398 1.83664
0 0.945608 0.0910867 1.66544
0 0.945629 0.0911202 2.55673
0 0.945224 0.100075 21.7417
0 0.945584 0.0910249 0.742207
0 0.945564 0.091123 0.697799
0 0.94541 0.0912846 3.1743
0 0.94556 0.0911166 0.719555
0 0.945151 0.0919849 8.40401
0 0.94541 0.0913567 3.86321
0 0.945299 0.091895 3.71882
0 0.945576 0.0910348 1.43905
0 0.945575 0.0910263 1.41414
0 0.945586 0.0910202 1.02754
0 0.945588 0.0910122 0.697455
0 0.945613 0.09102 1.00745
0 0.945598 0.0910168 0.810703
0 0.945566 0.091052 1.58462
0 0.94524 0.0988873 15.8163
0 0.94537 0.0918539 6.65989
0 0.945434 0.0911454 1.50895
0 0.945543 0.0910833 1.28296
0 0.945486 0.0910764 0.700708
0 0.945597 0.0910131 1.3622
0 0.945615 0.0910768 2.16037
0 0.945577 0.091123 2.33733
0 0.945584 0.0911222 2.4921
0 0.945608 0.091597 6.51827
0 0.945455 0.102007 98.6918
0 0.94562 0.0910311 1.10535
0 0.945588 0.0910541 1.04574
0 0.94548 0.091349 2.88416
0 0.9456 0.0911121 1.63518
0 0.945433 0.0924416 11.6266
0 0.945555 0.0914002 4.96059
0 0.945638 0.091039 1.68027
0 0.945555 0.0910391 1.65312
0 0.94555 0.0910569 1.81251
0 0.945585 0.0910286 1.27446
0 0.945608 0.0910282 1.35317
0 0.945618 0.0910339 1.63477
0 0.945564 0.0910478 1.67402
0 0.945539 0.0910595 1.83896
0 0.945524 0.0926749 17.1372
0 0.945399 0.10251 15.6595
0 0.945531 0.0910913 1.8849
0 0.945513 0.0911272 0.670032
0 0.945497 0.0910275 0.703668
0 0.945512 0.0910546 1.22724
0 0.945646 0.0911872 0.882113
0 0.945563 0.0910602 1.88599
0 0.945545 0.0911104 2.33811
0 0.945532 0.0910549 1.90218
0 0.945511 0.0910689 1.90878
0 0.945844 0.0917057 4.60301
0 0.945775 0.102002 129.99
0 0.945651 0.0910127 1.24737
0 0.945641 0.0911197 1.86003
0 0.9456 0.0913687 5.61956
0 0.945652 0.0911648 3.00879
0 0.945652 0.0913927 5.79787
0 0.945643 0.091013 1.5465
0 0.945521 0.0910589 1.89959
0 0.945581 0.0910345 1.70954
0 0.945598 0.0910351 1.88628
0 0.945545 0.0910489 1.878
0 0.945508 0.091056 1.96292
0 0.945734 0.092275 11.733
0 0.945575 0.102273 49.3214
0 0.945502 0.0910299 1.31168
0 0.945539 0.0910433 0.803668
0 0.945508 0.0910148 0.99428
0 0.945747 0.0913177 0.490832
0 0.945589 0.0911325 0.635713
0 0.945518 0.0910685 2.06848
0 0.9455 0.0910727 2.10227
0 0.945499 0.0910563 1.96161
0 0.945479 0.0910471 1.82157
0 0.945476 0.0910361 1.66055
0 0.945759 0.0914139 1.21888
0 0.946027 0.0922063 6.34877
0 0.946069 0.0982774 78.823
0 0.945654 0.0910023 1.22052
0 0.945652 0.0910719 1.90796
0 0.945663 0.0913245 3.58618
0 0.94564 0.0910827 1.33537
0 0.945617 0.0910127 1.72299
0 0.945572 0.091036 2.09072
0 0.945484 0.0910502 1.84137
0 0.945549 0.0910393 2.04398
0 0.945518 0.091047 2.06411
0 0.945468 0.0910502 2.02249
0 0.945486 0.0910466 2.06206
0 0.945619 0.0912791 2.78618
0 0.945747 0.092226 11.3171
0 0.945907 0.102494 11.1761
0 0.945506 0.0910315 1.26969
0 0.945577 0.0911724 1.00434
0 0.945556 0.0912407 0.958088
0 0.94545 0.0910291 1.70628
0 0.945467 0.0910441 1.91458
0 0.945444 0.0910415 1.90945
0 0.945663 0.0914591 2.10892
0 0.945973 0.0922945 4.65628
0 0.946211 0.106957 101.648
0 0.945611 0.0909851 1.25854
0 0.945598 0.0910378 0.793694
0 0.945558 0.0910948 2.07165
0 0.945562 0.0910224 1.96065
0 0.945526 0.0910329 2.19128
0 0.945443 0.0910392 2.04934
0 0.945427 0.0910378 2.13106
0 0.945493 0.0910317 2.11782
0 0.945447 0.0910301 1.97524
0 0.945572 0.0912048 2.9605
0 0.945608 0.0920261 6.62276
0 0.945663 0.102212 106.362
0 0.94545 0.091068 1.50133
0 0.945445 0.0911757 1.62625
0 0.945402 0.0910512 1.88529
0 0.945417 0.0910454 2.11628
0 0.945352 0.0911813 2.39209
0 0.945495 0.0914238 3.92211
0 0.945785 0.0920158 5.21585
0 0.946017 0.0981969 31.1157
0 0.945539 0.091017 1.63814
0 0.94551 0.0911441 2.38169
0 0.9455 0.0910272 2.03409
0 0.94548 0.0910267 2.11117
0 0.945389 0.0910357 2.08681
0 0.945388 0.0910352 1.91977
0 0.945442 0.0910209 2.04293
0 0.945402 0.0910256 2.01166
0 0.945473 0.091312 2.28185
0 0.945552 0.0914747 2.72254
0 0.94566 0.0923494 7.69503
0 0.945672 0.101219 54.5035
0 0.945357 0.0910691 1.75983
0 0.945358 0.0910558 2.03168
0 0.945282 0.0911375 2.1534
0 0.945333 0.0914172 5.51829
0 0.945552 0.0918016 9.16299
0 0.945815 0.0988982 4.98291
0 0.94546 0.0910981 2.52009
0 0.945436 0.0910161 2.19527
0 0.945338 0.0910575 1.97532
0 0.945346 0.0910375 2.02335
0 0.945382 0.0910176 2.1174
0 0.945419 0.0912807 1.90448
0 0.945488 0.0916404 3.33543
0 0.945645 0.0925909 9.79958
0 0.945751 0.102934 47.4551
0 0.945296 0.0910856 2.21825
0 0.945228 0.0912046 2.08348
0 0.945229 0.0913955 4.28264
0 0.945316 0.0921878 13.1869
0 0.945483 0.104138 119.682
0 0.945383 0.0910447 2.1201
0 0.945287 0.091095 2.28084
0 0.945319 0.0910132 1.75273
0 0.945363 0.0912401 0.496557
0 0.945406 0.0914333 1.23545
0 0.945482 0.0925645 4.317
0 0.94564 0.0976992 14.0857
0 0.945228 0.0912067 2.08502
0 0.945189 0.091359 1.90182
0 0.945223 0.0923467 11.4698
0 0.945285 0.102169 50.7452
0 0.945216 0.091171 1.40982
0 0.945313 0.0910914 0.546118
0 0.945241 0.0910663 1.01912
0 0.945261 0.0911041 1.71051
0 0.945323 0.0914103 3.33116
0 0.945376 0.0921932 4.69518
0 0.945401 0.103726 77.3642
0 0.945176 0.0913734 2.05562
0 0.945195 0.0921339 8.32749
0 0.945233 0.105475 162.74
0 0.94517 0.0912359 2.93035
0 0.94525 0.0913789 4.52563
0 0.945193 0.0913128 4.39601
0 0.945277 0.0923344 10.6821
0 0.945362 0.100322 14.6315
0 0.945143 0.0915362 1.14218
0 0.945187 0.0979497 93.7311
0 0.945154 0.0918379 9.02078
0 0.945188 0.0922216 12.9167
0 0.945188 0.0997224 37.7183
0 0.945114 0.0958648 23.0207
0 0.945182 0.100495 99.5882
VECTORS fa_u float
0.00722731 0.00298371 -0
0.00490269 0.00282289 -0
0.0044456 0.0012152 -0
0.00872077 0.00120885 -0
1e-08 0 0
0.00608145 0.00464692 -0
0.0042035 0.00419059 -0
1e-08 0 0
1e-08 0 0
0.00384785 0.00493466 -0
0.00381903 0.00652462 -0
0.00519552 2.72392e-05 -0
0.0076134 -0.000936016 0
1e-08 0 0
1e-08 0 0
1e-08 0 0
1e-08 0 0
1e-08 0 0
1e-08 0 0
1e-08 0 0
1e-08 0 0
0.00275133 0.00664811 -0
0.00163583 0.00612805 -0
1e-08 0 0
1e-08 0 0
1e-08 0 0
0.00704891 -0.00187855 0
1e-08 0 0
0.00732112 -0.00309679 0
1e-08 0 0
1e-08 0 0
1e-08 0 0
0.000919484 0.00703445 -0
1e-08 0 0
1e-08 0 0
1e-08 0 0
1e-08 0 0
1e-08 0 0
1e-08 0 0
1e-08 0 0
1e-08 0 0
1e-08 0 0
1e-08 0 0
-7.02368e-05 0.00799538 -0
1e-08 0 0
1e-08 0 0
1e-08 0 0
0.00541874 -0.00321124 0
1e-08 0 0
0.00488526 -0.0037995 0
1e-08 0 0
1e-08 0 0
1e-08 0 0
1e-08 0 0
1e-08 0 0
1e-08 0 0
1e-08 0 0
1e-08 0 0
1e-08 0 0
1e-08 0 0
1e-08 0 0
1e-08 0 0
1e-08 0 0
-0.000772894 0.00549211 0
1e-08 0 0
1e-08 0 0
1e-08 0 0
1e-08 0 0
1e-08 0 0
0.00423491 -0.00423888 0
1e-08 0 0
0.00322866 -0.00411333 0
1e-08 0 0
1e-08 0 0
1e-08 0 0
1e-08 0 0
1e-08 0 0
1e-08 0 0
1e-08 0 0
1e-08 0 0
1e-08 0 0
1e-08 0 0
1e-08 0 0
1e-08 0 0
1e-08 0 0
-0.00139688 0.00529006 0
1e-08 0 0
1e-08 0 0
1e-08 0 0
1e-08 0 0
1e-08 0 0
1e-08 0 0
0.00440806 -0.00746478 0
1e-08 0 0
1e-08 0 0
1e-08 0 0
1e-08 0 0
1e-08 0 0
0.00294911 -0.00720839 0
1e-08 0 0
1e-08 0 0
1e-08 0 0
1e-08 0 0
1e-08 0 0
1e-08 0 0
1e-08 0 0
1e-08 0 0
1e-08 0 0
1e-08 0 0
-0.00302427 0.00738864 0
1e-08 0 0
1e-08 0 0
1e-08 0 0
1e-08 0 0
1e-08 0 0
1e-08 0 0
1e-08 0 0
1e-08 0 0
1e-08 0 0
1e-08 0 0
1e-08 0 0
1e-08 0 0
1e-08 0 0
1e-08 0 0
0.00143459 -0.00543822 0
1e-08 0 0
1e-08 0 0
1e-08 0 0
1e-08 0 0
1e-08 0 0
1e-08 0 0
1e-08 0 0
1e-08 0 0
1e-08 0 0
-0.00392586 0.00669399 0
1e-08 0 0
1e-08 0 0
1e-08 0 0
1e-08 0 0
1e-08 0 0
1e-08 0 0
1e-08 0 0
1e-08 0 0
1e-08 0 0
1e-08 0 0
1e-08 0 0
1e-08 0 0
1e-08 0 0
1e-08 0 0
1e-08 0 0
0.000870393 -0.00647881 0
1e-08 0 0
1e-08 0 0
1e-08 0 0
1e-08 0 0
1e-08 0 0
1e-08 0 0
1e-08 0 0
1e-08 0 0
1e-08 0 0
1e-08 0 0
-0.00299516 0.0038852 0
1e-08 0 0
1e-08 0 0
1e-08 0 0
1e-08 0 0
1e-08 0 0
1e-08 0 0
1e-08 0 0
1e-08 0 0
1e-08 0 0
1e-08 0 0
1e-08 0 0
1e-08 0 0
1.46735e-05 -0.0069447 0
1e-08 0 0
1e-08 0 0
1e-08 0 0
1e-08 0 0
1e-08 0 0
1e-08 0 0
1e-08 0 0
1e-08 0 0
1e-08 0 0
1e-08 0 0
1e-08 0 0
1e-08 0 0
-0.00457858 0.00465516 0
1e-08 0 0
1e-08 0 0
1e-08 0 0
1e-08 0 0
1e-08 0 0
1e-08 0 0
1e-08 0 0
1e-08 0 0
1e-08 0 0
1e-08 0 0
1e-08 0 0
1e-08 0 0
1e-08 0 0
-0.000805513 -0.00625753 0
1e-08 0 0
1e-08 0 0
1e-08 0 0
1e-08 0 0
1e-08 0 0
1e-08 0 0
1e-08 0 0
1e-08 0 0
-0.00536957 0.00419521 0
1e-08 0 0
1e-08 0 0
1e-08 0 0
1e-08 0 0
1e-08 0 0
1e-08 0 0
1e-08 0 0
1e-08 0 0
1e-08 0 0
1e-08 0 0
1e-08 0 0
-0.0017978 -0.00679681 0
1e-08 0 0
1e-08 0 0
1e-08 0 0
1e-08 0 0
1e-08 0 0
1e-08 0 0
1e-08 0 0
-0.00587008 0.00344996 0
1e-08 0 0
1e-08 0 0
1e-08 0 0
1e-08 0 0
1e-08 0 0
1e-08 0 0
1e-08 0 0
1e-08 0 0
1e-08 0 0
1e-08 0 0
1e-08 0 0
-0.00266681 -0.00644322 0
1e-08 0 0
1e-08 0 0
1e-08 0 0
1e-08 0 0
1e-08 0 0
-0.00810177 0.00333534 0
1e-08 0 0
1e-08 0 0
1e-08 0 0
1e-08 0 0
1e-08 0 0
1e-08 0 0
1e-08 0 0
1e-08 0 0
-0.00377971 -0.00647669 0
1e-08 0 0
1e-08 0 0
1e-08 0 0
1e-08 0 0
-0.00490787 0.00129917 0
1e-08 0 0
1e-08 0 0
1e-08 0 0
1e-08 0 0
1e-08 0 0
1e-08 0 0
-0.00406786 -0.00521368 0
1e-08 0 0
1e-08 0 0
1e-08 0 0
-0.00721895 0.000970555 0
1e-08 0 0
1e-08 0 0
1e-08 0 0
1e-08 0 0
1e-08 0 0
1e-08 0 0
-0.00392592 -0.00391402 0
1e-08 0 0
1e-08 0 0
-0.00882086 -8.49397e-05 0
1e-08 0 0
1e-08 0 0
1e-08 0 0
1e-08 0 0
-0.00613025 -0.00470165 0
1e-08 0 0
-0.00452136 -0.000631788 0
1e-08 0 0
1e-08 0 0
-0.00515801 -0.00296919 0
-0.00646124 -0.0017043 0
-0.00684035 -0.00282699 0
