# vtk DataFile Version 2.0
CellBP Time: 7.32
ASCII
DATASET UNSTRUCTURED_GRID
POINTS 296 double
-8.9309 -3.66391 0
-8.3551 -4.80013 0
-9.3319 -2.45415 0
-9.59515 -1.21541 0
-8.25944 -2.77538 0
-7.65554 -5.86609 0
-6.80813 -6.8169 0
-7.8196 -3.81932 0
-7.24886 -4.80714 0
-5.86596 -7.66559 0
-4.82084 -8.37948 0
-9.66857 0.0468684 0
-9.6033 1.31634 0
-8.56687 -1.65828 0
-8.7022 -0.522157 0
-7.49442 -1.9696 0
-7.12794 -2.85854 0
-6.56177 -5.71913 0
-5.76434 -6.53857 0
-6.69646 -3.83089 0
-6.13903 -4.61712 0
-3.68 -8.94316 0
-2.47069 -9.35317 0
-4.8668 -7.25209 0
-3.8912 -7.83133 0
-8.7152 0.634217 0
-9.36672 2.57262 0
-8.55366 1.75361 0
-8.94963 3.77617 0
-7.65545 -0.911074 0
-7.71162 0.0830742 0
-6.86736 -1.29221 0
-1.21589 -9.59926 0
-6.36374 -2.12058 0
-6.24035 -3.0115 0
-5.47124 -5.41686 0
-4.74597 -6.05899 0
-5.58895 -3.7089 0
-5.20192 -4.50692 0
-2.84849 -8.30372 0
-1.76328 -8.57479 0
-3.89491 -6.66858 0
-3.03836 -7.0992 0
0.0524134 -9.68028 0
-7.6285 1.13105 0
-8.27935 2.89388 0
-7.48055 2.08682 0
-8.38114 4.91444 0
-7.81134 3.94201 0
-7.65535 5.96206 0
-6.70109 -0.387235 0
-6.87907 0.549849 0
-5.71307 -0.991186 0
-0.584582 -8.73664 0
0.555151 -8.68755 0
-5.24856 -2.44998 0
-4.43681 -5.04059 0
-3.86041 -5.72053 0
-4.39336 -3.76518 0
-2.0468 -7.50317 0
-1.12686 -7.72047 0
-2.96691 -6.04889 0
-2.29308 -6.56681 0
1.31361 -9.57866 0
-6.62147 1.40551 0
-7.10001 3.08412 0
-6.59257 2.34694 0
-7.22266 4.93778 0
-6.64989 3.95858 0
-6.81596 6.91268 0
-6.50601 5.83165 0
-5.86538 7.75792 0
-4.42226 -1.17416 0
-5.76177 0.50481 0
-4.62471 -0.0171349 0
0.00152465 -7.77224 0
1.71141 -8.54962 0
0.928521 -7.67923 0
-4.01013 -2.38601 0
-3.47445 -1.38701 0
-3.26561 -4.76255 0
-3.24752 -3.24302 0
-1.372 -6.61565 0
-0.512536 -6.95626 0
-1.96206 -5.49354 0
2.55863 -9.32448 0
-5.45721 2.01897 0
-6.03322 3.03755 0
-6.04208 4.81414 0
-5.70152 3.94331 0
-5.70193 6.64346 0
-5.39456 5.55386 0
-4.81429 8.47384 0
-4.78725 7.32046 0
-3.4866 -0.423276 0
-4.41585 1.23947 0
-3.69004 0.588706 0
-4.0298 2.30903 0
-3.68202 9.0478 0
2.81912 -8.22959 0
0.401988 -6.71903 0
1.98583 -7.43269 0
1.2767 -6.82079 0
-2.43888 -0.869264 0
-2.82918 -2.12069 0
-2.28286 -4.06792 0
-2.31615 -2.95556 0
-0.446035 -5.80463 0
-1.21323 -4.4679 0
3.76886 -8.93184 0
-4.74449 3.35916 0
-5.03462 4.53971 0
-4.59636 6.20592 0
-4.4902 5.29555 0
-3.8085 7.91477 0
-3.78267 6.76098 0
-2.75367 8.33491 0
-1.6466 -0.133739 0
-1.44696 -0.886642 0
-2.48398 0.511 0
-3.235 1.44063 0
-3.21415 3.29372 0
-2.89339 2.3664 0
-1.3549 0.63116 0
-2.47176 9.44444 0
3.87874 -7.78858 0
2.9138 -7.05728 0
0.933279 -5.75605 0
2.03624 -6.33102 0
-1.67707 -1.98553 0
-1.42673 -3.25854 0
0.0861921 -4.70598 0
-0.55996 -3.67281 0
4.87074 -7.22491 0
4.90734 -8.3687 0
-3.74108 4.50531 0
-3.69539 5.68595 0
-2.85333 7.20475 0
-2.97718 6.28142 0
-1.64447 8.65105 0
-1.91613 7.53952 0
-2.32287 4.02157 0
-0.728559 -1.32384 0
-0.836428 -0.254011 0
-1.93392 1.68386 0
-2.11681 2.86641 0
-1.3037 3.52828 0
-0.871946 1.35465 0
-0.284716 0.459215 0
-0.52777 8.79635 0
-1.21963 9.68766 0
1.097 -4.52923 0
3.8483 -6.615 0
2.9404 -6.00926 0
2.08489 -5.3575 0
4.7223 -6.11623 0
-0.555 -2.46768 0
0.493223 -3.44218 0
0.054172 -1.60763 0
1.46651 -3.64952 0
5.80262 -6.53204 0
5.96019 -7.65274 0
-2.45323 5.29602 0
-2.10497 6.46359 0
-0.891319 7.72994 0
-1.25335 6.85997 0
0.088545 7.81366 0
-1.13827 4.4632 0
0.148787 -0.614796 0
-0.801753 2.48906 0
-0.337291 3.58825 0
0.0581608 1.51453 0
0.736664 0.474443 0
0.640647 8.80709 0
0.0470157 9.78209 0
2.35138 -4.23604 0
3.80588 -5.55911 0
2.95918 -5.14317 0
5.51381 -5.42051 0
4.63278 -5.20541 0
0.630071 -2.28869 0
1.24767 -2.93305 0
0.75581 -1.38927 0
2.14524 -3.10962 0
2.9645 -3.44051 0
6.09757 -4.7357 0
6.59394 -5.70581 0
6.91902 -6.81153 0
-1.00785 5.76728 0
-0.362729 6.81819 0
1.11469 7.71075 0
0.557744 7.02008 0
-0.00369065 4.69552 0
0.598927 3.81009 0
1.33466 -0.641439 0
0.531853 2.64515 0
0.958946 1.57479 0
1.90317 0.212584 0
1.60696 1.06382 0
2.11631 7.5291 0
1.78715 8.65027 0
1.31888 9.70286 0
3.77954 -4.29549 0
5.06108 -4.3865 0
5.79176 -3.88699 0
3.74961 -3.16726 0
1.80473 -1.87921 0
2.99641 -2.55526 0
6.72883 -3.90955 0
7.32291 -4.85249 0
7.75967 -5.86015 0
0.481989 5.83507 0
1.41999 6.69 0
2.36001 6.6207 0
1.20025 4.52935 0
1.47851 3.38101 0
2.42466 -0.690468 0
2.81475 0.142646 0
1.77929 2.15723 0
2.6017 1.14682 0
3.05365 7.11887 0
2.88844 8.31885 0
2.57337 9.45717 0
4.86584 -3.28727 0
6.06993 -3.07437 0
4.14193 -2.25791 0
3.22499 -1.49671 0
6.68338 -2.29563 0
7.18101 -3.02082 0
7.91004 -3.88692 0
8.47938 -4.81875 0
2.01173 5.56017 0
3.05783 6.10408 0
2.35213 4.10019 0
2.40869 3.04422 0
3.50543 -0.457034 0
3.59638 0.614108 0
2.94633 2.27632 0
3.52315 1.51798 0
3.96904 5.84633 0
3.95076 6.74009 0
3.9512 7.88402 0
3.78354 9.04876 0
5.52822 -1.90029 0
4.47957 -1.12104 0
6.66259 -1.32473 0
7.5387 -2.02024 0
8.34003 -2.84264 0
9.04763 -3.6826 0
3.38375 4.83513 0
3.31149 3.35949 0
4.65917 0.132451 0
4.48113 1.29913 0
4.02749 2.42249 0
4.51299 5.10049 0
4.79319 6.13642 0
4.94011 7.32378 0
4.92202 8.47997 0
5.8346 -0.433389 0
6.95034 -0.487344 0
7.70166 -1.07341 0
8.62374 -1.73057 0
9.45282 -2.47085 0
4.49936 3.78853 0
5.75845 1.08201 0
5.30897 2.50399 0
5.30762 4.56755 0
5.54544 5.46818 0
5.83859 6.61392 0
5.96941 7.76963 0
6.7774 0.450925 0
7.78507 -0.027793 0
8.79331 -0.575228 0
9.70638 -1.21655 0
6.8829 1.32537 0
5.64564 3.7317 0
6.46128 2.16321 0
6.29618 3.04416 0
6.20882 4.63103 0
6.61624 5.77918 0
6.91973 6.92621 0
7.70701 0.951936 0
8.78105 0.566428 0
9.77485 0.0540273 0
7.52974 1.97409 0
6.73179 3.84832 0
7.17566 2.90262 0
7.29191 4.83149 0
7.76603 5.97178 0
8.63427 1.70503 0
9.67781 1.31578 0
8.32332 2.79959 0
7.89122 3.8697 0
8.46683 4.90874 0
9.43157 2.56298 0
9.03381 3.77084 0
CELLS 542 2168
3 2 0 4
3 0 1 7
3 4 0 7
3 1 5 8
3 7 1 8
3 3 2 13
3 13 2 4
3 11 3 14
3 14 3 13
3 13 4 15
3 4 7 16
3 15 4 16
3 5 6 17
3 8 5 17
3 6 9 18
3 17 6 18
3 7 8 19
3 16 7 19
3 8 17 20
3 19 8 20
3 9 10 23
3 18 9 23
3 10 21 24
3 23 10 24
3 12 11 25
3 25 11 14
3 26 12 27
3 27 12 25
3 14 13 29
3 29 13 15
3 25 14 30
3 30 14 29
3 29 15 31
3 15 16 33
3 31 15 33
3 16 19 34
3 33 16 34
3 17 18 35
3 20 17 35
3 18 23 36
3 35 18 36
3 19 20 37
3 34 19 37
3 20 35 38
3 37 20 38
3 21 22 39
3 24 21 39
3 22 32 40
3 39 22 40
3 23 24 41
3 36 23 41
3 24 39 42
3 41 24 42
3 27 25 44
3 44 25 30
3 28 26 45
3 45 26 27
3 45 27 46
3 46 27 44
3 47 28 48
3 48 28 45
3 30 29 50
3 50 29 31
3 44 30 51
3 51 30 50
3 50 31 52
3 31 33 52
3 32 43 53
3 40 32 53
3 53 43 54
3 33 34 55
3 34 37 55
3 33 55 52
3 35 36 56
3 38 35 56
3 36 41 57
3 56 36 57
3 37 38 58
3 38 56 58
3 37 58 55
3 39 40 59
3 42 39 59
3 40 53 60
3 59 40 60
3 41 42 61
3 57 41 61
3 42 59 62
3 61 42 62
3 43 63 54
3 46 44 64
3 64 44 51
3 48 45 65
3 65 45 46
3 65 46 66
3 66 46 64
3 49 47 67
3 67 47 48
3 67 48 68
3 68 48 65
3 69 49 70
3 70 49 67
3 52 55 72
3 64 51 73
3 51 50 73
3 50 52 73
3 73 52 74
3 74 52 72
3 53 54 75
3 60 53 75
3 54 63 76
3 54 76 77
3 75 54 77
3 55 58 78
3 72 55 78
3 72 78 79
3 56 57 80
3 57 61 80
3 56 80 58
3 58 80 81
3 78 58 81
3 59 60 82
3 62 59 82
3 60 75 83
3 82 60 83
3 61 62 84
3 62 82 84
3 61 84 80
3 63 85 76
3 66 64 86
3 64 73 86
3 68 65 87
3 87 65 66
3 87 66 86
3 70 67 88
3 88 67 68
3 88 68 89
3 89 68 87
3 71 69 90
3 90 69 70
3 90 70 91
3 91 70 88
3 92 71 93
3 93 71 90
3 74 72 94
3 94 72 79
3 86 73 95
3 95 73 74
3 95 74 96
3 96 74 94
3 97 86 95
3 76 85 99
3 75 77 100
3 83 75 100
3 76 99 101
3 77 76 101
3 77 101 102
3 100 77 102
3 94 79 103
3 78 81 104
3 79 78 104
3 79 104 103
3 80 84 105
3 81 80 105
3 81 105 106
3 104 81 106
3 82 83 107
3 83 100 107
3 82 107 84
3 84 107 108
3 105 84 108
3 85 109 99
3 89 87 110
3 87 86 110
3 110 86 97
3 91 88 111
3 111 88 89
3 111 89 110
3 93 90 112
3 112 90 91
3 112 91 113
3 113 91 111
3 98 92 114
3 114 92 93
3 114 93 115
3 115 93 112
3 116 98 114
3 117 103 118
3 96 94 119
3 94 103 119
3 119 103 117
3 97 95 120
3 120 95 96
3 120 96 119
3 121 110 97
3 121 97 122
3 122 97 120
3 123 119 117
3 124 98 116
3 99 109 125
3 99 125 126
3 101 99 126
3 100 102 127
3 100 127 107
3 101 126 128
3 102 101 128
3 102 128 127
3 104 106 129
3 104 129 103
3 103 129 118
3 105 108 130
3 106 105 130
3 106 130 129
3 107 127 131
3 108 107 131
3 108 131 132
3 108 132 130
3 109 134 125
3 125 134 133
3 113 111 135
3 111 110 135
3 135 110 121
3 115 112 136
3 136 112 113
3 136 113 135
3 116 114 137
3 137 114 115
3 137 115 138
3 138 115 136
3 139 124 116
3 139 116 140
3 140 116 137
3 141 135 121
3 118 129 142
3 118 142 143
3 117 118 143
3 123 117 143
3 122 120 144
3 120 119 144
3 144 119 123
3 141 121 145
3 145 121 122
3 145 122 144
3 146 141 145
3 147 144 123
3 147 123 148
3 143 148 123
3 150 124 139
3 149 150 139
3 131 127 151
3 125 133 152
3 126 125 152
3 126 152 153
3 128 126 153
3 128 153 154
3 128 154 127
3 127 154 151
3 152 133 155
3 130 132 156
3 130 156 129
3 129 156 142
3 131 151 157
3 132 131 157
3 132 157 156
3 156 158 142
3 157 151 159
3 133 160 155
3 134 161 133
3 133 161 160
3 138 136 162
3 136 135 162
3 162 135 141
3 140 137 163
3 163 137 138
3 163 138 162
3 149 139 164
3 164 139 140
3 164 140 165
3 165 140 163
3 166 149 164
3 167 162 141
3 167 141 146
3 142 158 168
3 143 142 168
3 143 168 148
3 146 145 169
3 145 144 169
3 169 144 147
3 170 167 146
3 170 146 169
3 171 169 147
3 171 147 148
3 171 148 172
3 168 172 148
3 173 149 166
3 174 150 149
3 173 174 149
3 154 175 151
3 151 175 159
3 152 155 176
3 153 152 176
3 153 176 177
3 153 177 154
3 154 177 175
3 155 160 178
3 155 178 179
3 176 155 179
3 156 157 180
3 156 180 158
3 157 159 181
3 157 181 180
3 158 180 182
3 158 182 168
3 159 175 183
3 159 183 181
3 175 184 183
3 160 186 178
3 178 186 185
3 161 187 160
3 160 187 186
3 165 163 188
3 163 162 188
3 188 162 167
3 166 164 189
3 189 164 165
3 189 165 188
3 190 173 166
3 190 166 191
3 191 166 189
3 192 188 167
3 192 167 170
3 193 192 170
3 182 194 168
3 194 172 168
3 193 170 195
3 170 169 195
3 195 169 171
3 196 195 171
3 196 171 172
3 194 197 172
3 197 198 172
3 198 196 172
3 200 173 190
3 199 200 190
3 201 174 173
3 200 201 173
3 176 179 202
3 177 176 202
3 177 202 175
3 175 202 184
3 178 185 203
3 178 203 179
3 179 203 202
3 203 185 204
3 202 205 184
3 183 206 181
3 180 181 206
3 180 206 182
3 182 206 194
3 183 184 207
3 205 207 184
3 183 207 206
3 185 208 204
3 186 209 185
3 185 209 208
3 187 210 186
3 186 210 209
3 191 189 211
3 189 188 211
3 211 188 192
3 199 190 212
3 212 190 191
3 212 191 211
3 213 199 212
3 214 211 192
3 214 192 193
3 215 214 193
3 215 193 195
3 206 216 194
3 216 197 194
3 216 217 197
3 215 195 218
3 218 195 196
3 198 218 196
3 217 219 197
3 219 218 198
3 197 219 198
3 220 199 213
3 221 200 199
3 220 221 199
3 222 201 200
3 221 222 200
3 203 204 223
3 203 223 202
3 202 223 205
3 204 208 224
3 204 224 223
3 205 223 225
3 205 225 207
3 207 225 226
3 207 226 206
3 226 216 206
3 208 228 224
3 224 228 227
3 209 229 208
3 229 228 208
3 210 230 209
3 209 230 229
3 213 212 231
3 212 211 231
3 231 211 214
3 232 220 213
3 232 213 231
3 233 231 214
3 233 214 215
3 234 233 215
3 234 215 218
3 226 235 216
3 235 217 216
3 235 236 217
3 217 236 219
3 237 234 218
3 237 218 219
3 236 238 219
3 238 237 219
3 240 220 232
3 239 240 232
3 241 221 220
3 240 241 220
3 242 222 221
3 241 242 221
3 224 227 243
3 224 243 223
3 223 243 225
3 225 243 244
3 225 244 226
3 226 244 235
3 227 245 243
3 228 246 227
3 227 246 245
3 229 247 228
3 228 247 246
3 230 248 229
3 229 248 247
3 239 232 249
3 232 231 249
3 249 231 233
3 250 249 233
3 250 233 234
3 237 250 234
3 244 251 235
3 235 251 236
3 251 252 236
3 236 252 238
3 252 253 238
3 253 250 237
3 253 237 238
3 254 239 249
3 255 240 239
3 254 255 239
3 256 241 240
3 255 256 240
3 257 242 241
3 256 257 241
3 245 258 243
3 243 258 244
3 244 258 251
3 245 259 258
3 246 260 245
3 245 260 259
3 247 261 246
3 246 261 260
3 248 262 247
3 247 262 261
3 254 249 263
3 263 249 250
3 253 263 250
3 258 264 251
3 251 264 252
3 264 265 252
3 265 263 253
3 252 265 253
3 266 254 263
3 267 255 254
3 266 267 254
3 268 256 255
3 267 268 255
3 269 257 256
3 268 269 256
3 259 270 258
3 270 264 258
3 260 271 259
3 259 271 270
3 261 272 260
3 260 272 271
3 262 273 261
3 273 272 261
3 270 274 264
3 275 266 263
3 275 263 265
3 274 276 264
3 276 265 264
3 276 277 265
3 277 275 265
3 278 267 266
3 275 278 266
3 279 268 267
3 278 279 267
3 280 269 268
3 279 280 268
3 271 281 270
3 270 281 274
3 272 282 271
3 271 282 281
3 273 283 272
3 272 283 282
3 281 284 274
3 274 284 276
3 285 278 275
3 277 285 275
3 284 286 276
3 286 285 277
3 276 286 277
3 287 279 278
3 285 287 278
3 288 280 279
3 287 288 279
3 282 289 281
3 281 289 284
3 283 290 282
3 282 290 289
3 289 291 284
3 284 291 286
3 291 292 286
3 292 287 285
3 286 292 285
3 293 288 287
3 292 293 287
3 290 294 289
3 289 294 291
3 294 295 291
3 295 293 292
3 291 295 292
CELL_TYPES 542
5
5
5
5
5
5
5
5
5
5
5
5
5
5
5
5
5
5
5
5
5
5
5
5
5
5
5
5
5
5
5
5
5
5
5
5
5
5
5
5
5
5
5
5
5
5
5
5
5
5
5
5
5
5
5
5
5
5
5
5
5
5
5
5
5
5
5
5
5
5
5
5
5
5
5
5
5
5
5
5
5
5
5
5
5
5
5
5
5
5
5
5
5
5
5
5
5
5
5
5
5
5
5
5
5
5
5
5
5
5
5
5
5
5
5
5
5
5
5
5
5
5
5
5
5
5
5
5
5
5
5
5
5
5
5
5
5
5
5
5
5
5
5
5
5
5
5
5
5
5
5
5
5
5
5
5
5
5
5
5
5
5
5
5
5
5
5
5
5
5
5
5
5
5
5
5
5
5
5
5
5
5
5
5
5
5
5
5
5
5
5
5
5
5
5
5
5
5
5
5
5
5
5
5
5
5
5
5
5
5
5
5
5
5
5
5
5
5
5
5
5
5
5
5
5
5
5
5
5
5
5
5
5
5
5
5
5
5
5
5
5
5
5
5
5
5
5
5
5
5
5
5
5
5
5
5
5
5
5
5
5
5
5
5
5
5
5
5
5
5
5
5
5
5
5
5
5
5
5
5
5
5
5
5
5
5
5
5
5
5
5
5
5
5
5
5
5
5
5
5
5
5
5
5
5
5
5
5
5
5
5
5
5
5
5
5
5
5
5
5
5
5
5
5
5
5
5
5
5
5
5
5
5
5
5
5
5
5
5
5
5
5
5
5
5
5
5
5
5
5
5
5
5
5
5
5
5
5
5
5
5
5
5
5
5
5
5
5
5
5
5
5
5
5
5
5
5
5
5
5
5
5
5
5
5
5
5
5
5
5
5
5
5
5
5
5
5
5
5
5
5
5
5
5
5
5
5
5
5
5
5
5
5
5
5
5
5
5
5
5
5
5
5
5
5
5
5
5
5
5
5
5
5
5
5
5
5
5
5
5
5
5
5
5
5
5
5
5
5
5
5
5
5
5
5
5
5
5
5
5
5
5
5
5
5
5
5
5
5
5
5
5
5
5
5
5
5
5
5
5
5
5
5
5
5
5
5
5
5
5
5
5
5
5
5
5
5
5
5
5
5
5
5
5
5
5
5
5
5
5
5
5
5
5
5
5
5
5
5
5
5
5
5
5
5
5
5
5
5
5
5
5
5
5
5
5
5
5
5
5
5
5
POINT_DATA 296
SCALARS concentrations float 4
LOOKUP_TABLE default
0 0.945295 0.10634 103.971
0 0.945272 0.107731 194.502
0 0.945373 0.102167 53.4575
0 0.945396 0.105703 142.367
0 0.945355 0.0925404 8.63715
0 0.945131 0.0973668 10.4776
0 0.945186 0.103577 103.706
0 0.945301 0.0924953 13.3334
0 0.945225 0.092252 12.2237
0 0.945389 0.0969219 12.2986
0 0.945605 0.0996004 27.1816
0 0.945659 0.108434 144.828
0 0.94589 0.10117 14.7594
0 0.94541 0.0924256 7.98181
0 0.945533 0.0929908 18.6376
0 0.945432 0.0914094 4.78306
0 0.945368 0.0911815 1.29635
0 0.945181 0.0918438 8.1509
0 0.945298 0.0919987 9.39223
0 0.945312 0.0913548 3.07489
0 0.945274 0.0914883 4.97009
0 0.945635 0.100353 54.151
0 0.94571 0.101386 60.7225
0 0.945485 0.0918751 1.44594
0 0.945595 0.0918142 0.6017
0 0.945751 0.0925748 10.7552
0 0.945907 0.101514 8.45009
0 0.945868 0.092336 0.946649
0 0.945715 0.10566 18.0412
0 0.945514 0.0913809 4.28889
0 0.945629 0.0913375 4.32208
0 0.945508 0.0911754 2.91663
0 0.945515 0.100382 62.2912
0 0.945465 0.0910621 1.76103
0 0.945406 0.0910746 0.626795
0 0.945309 0.0914457 3.86917
0 0.945408 0.0914046 2.97296
0 0.945397 0.0912006 1.7578
0 0.945379 0.0912995 2.74455
0 0.945648 0.0916771 1.75141
0 0.945638 0.092281 7.47872
0 0.945519 0.0913294 1.16227
0 0.945597 0.0912107 0.745589
0 0.94529 0.110996 69.8464
0 0.945729 0.0913814 2.90079
0 0.945796 0.0923325 2.25773
0 0.945766 0.0913194 1.39042
0 0.945778 0.105545 158.515
0 0.945743 0.0921944 9.72994
0 0.945793 0.105467 113.544
0 0.945577 0.0910862 1.942
0 0.945643 0.0910807 1.51437
0 0.945542 0.0910535 1.30685
0 0.945451 0.0932413 18.1023
0 0.945496 0.0932059 21.6731
0 0.94549 0.0910004 0.299929
0 0.945441 0.0912478 2.52234
0 0.945497 0.091234 2.20829
0 0.945485 0.0911257 1.57563
0 0.945625 0.0913334 2.27293
0 0.945604 0.0915911 6.29617
0 0.945566 0.0911428 1.70164
0 0.945614 0.0910784 0.724965
0 0.945608 0.100604 72.1468
0 0.945677 0.0910281 0.428148
0 0.945762 0.0911765 2.51654
0 0.94571 0.0910391 1.08237
0 0.945788 0.0924659 12.4575
0 0.945746 0.0913533 1.77051
0 0.945601 0.0953803 6.50564
0 0.945708 0.0927385 14.7475
0 0.945385 0.102865 100.348
0 0.945545 0.0910615 1.07094
0 0.945609 0.0910596 1.16192
0 0.945579 0.0910937 1.51107
0 0.945598 0.0917747 7.77634
0 0.945764 0.0921146 10.6933
0 0.945679 0.0917157 7.17545
0 0.945532 0.0910561 1.04698
0 0.945565 0.0910614 1.08028
0 0.945542 0.0911344 2.20695
0 0.94555 0.0911043 1.7697
0 0.945636 0.0910581 1.4792
0 0.945645 0.0913127 4.09011
0 0.945613 0.0910627 1.49618
0 0.9459 0.101168 5.63966
0 0.945648 0.0910611 1.6904
0 0.945699 0.0910497 0.720834
0 0.945723 0.0915643 3.47046
0 0.945698 0.0912489 1.77542
0 0.945527 0.0924238 11.3112
0 0.945643 0.0915842 4.48539
0 0.945427 0.100531 98.9447
0 0.945445 0.0920679 6.92508
0 0.945579 0.0910548 1.01825
0 0.945611 0.091072 1.45357
0 0.945592 0.0910582 1.13886
0 0.945627 0.0910632 1.52183
0 0.945634 0.0965444 45.1908
0 0.945914 0.092283 6.62267
0 0.94567 0.0913376 3.7058
0 0.94578 0.0914769 2.30376
0 0.945712 0.0913873 3.10142
0 0.945588 0.0910173 0.677905
0 0.945574 0.0910673 1.32136
0 0.945593 0.0910895 1.79548
0 0.94559 0.0910697 1.50431
0 0.945653 0.091028 1.10199
0 0.945633 0.0910184 1.19233
0 0.946038 0.105691 76.0006
0 0.945652 0.090986 0.738099
0 0.945663 0.0912181 1.79483
0 0.945566 0.0912594 1.2215
0 0.945626 0.091201 1.84785
0 0.945553 0.0920855 5.52052
0 0.945565 0.0911446 1.36135
0 0.945668 0.0917308 3.48708
0 0.945597 0.0909966 0.460771
0 0.945601 0.0909917 0.511183
0 0.945594 0.0910015 0.443758
0 0.945605 0.0910409 0.987428
0 0.945628 0.0909898 0.497569
0 0.945613 0.0910308 0.909716
0 0.945601 0.0909827 0.4185
0 0.945682 0.102196 12.8628
0 0.945909 0.0927507 8.52988
0 0.94579 0.0913701 1.5781
0 0.945676 0.0911017 1.27934
0 0.945719 0.0912346 1.30082
0 0.945601 0.0910065 0.750561
0 0.945615 0.0910241 1.15517
0 0.945652 0.0909713 0.514469
0 0.945635 0.0909897 0.868117
0 0.94566 0.0925103 8.80292
0 0.945899 0.104853 9.48401
0 0.945633 0.0910139 0.593194
0 0.94561 0.0910443 1.01171
0 0.945615 0.0912542 2.51297
0 0.945615 0.0910445 1.39145
0 0.945666 0.0925815 7.90985
0 0.94566 0.0912479 1.98946
0 0.945627 0.0910147 0.754566
0 0.94561 0.090971 0.347773
0 0.945604 0.0909779 0.465588
0 0.945605 0.0909864 0.390643
0 0.945616 0.0909905 0.420433
0 0.945623 0.0909994 0.262027
0 0.945606 0.090972 0.478795
0 0.945606 0.0909757 0.548918
0 0.945801 0.092975 8.07799
0 0.945677 0.109649 45.7877
0 0.945647 0.0909526 0.245539
0 0.945694 0.0913469 1.0317
0 0.945678 0.0911503 0.475594
0 0.945658 0.0910343 0.209017
0 0.945515 0.091527 1.34562
0 0.945621 0.0909725 0.465572
0 0.945634 0.090951 0.148902
0 0.945615 0.0909575 0.155875
0 0.945625 0.090953 0.622542
0 0.945346 0.0921705 8.50621
0 0.945471 0.105273 47.6305
0 0.945632 0.0910028 0.85515
0 0.945642 0.091025 0.507766
0 0.945723 0.0912586 1.33009
0 0.945676 0.0911265 0.838861
0 0.945762 0.091343 2.52678
0 0.945637 0.0910084 0.451062
0 0.945609 0.0909623 0.429448
0 0.945614 0.0909807 0.236285
0 0.945629 0.0910812 0.916574
0 0.945611 0.0909906 0.589643
0 0.945609 0.0909949 0.593204
0 0.945852 0.0924933 2.78938
0 0.945951 0.107306 82.3368
0 0.945609 0.0909732 0.997416
0 0.945582 0.0911696 0.795547
0 0.945606 0.091024 0.830962
0 0.94538 0.0915697 1.87489
0 0.945493 0.091356 0.487556
0 0.945619 0.0909573 0.230298
0 0.945617 0.0909526 0.557068
0 0.945612 0.0909588 0.401241
0 0.945604 0.0909842 0.866192
0 0.94558 0.0910406 0.971611
0 0.945386 0.0916207 4.5092
0 0.945218 0.0923428 8.44006
0 0.94517 0.100567 30.8725
0 0.945655 0.0910451 0.583002
0 0.945696 0.0911317 1.26196
0 0.945721 0.0913788 0.552937
0 0.945702 0.0911072 1.51699
0 0.945646 0.0910838 1.19679
0 0.945635 0.0910914 1.22002
0 0.945609 0.0909864 0.481279
0 0.945622 0.09102 0.720408
0 0.945616 0.0910317 0.819924
0 0.945614 0.091028 0.658865
0 0.945617 0.0910452 0.842637
0 0.945618 0.0914636 1.59145
0 0.945624 0.0921717 1.9572
0 0.945756 0.0971413 85.8627
0 0.945548 0.0911143 0.888946
0 0.945468 0.0913597 0.493235
0 0.945476 0.0914018 1.82929
0 0.945561 0.0910619 0.705903
0 0.945607 0.0909848 0.488273
0 0.94559 0.0910257 0.759603
0 0.945495 0.0915181 4.09504
0 0.945411 0.0923296 8.73301
0 0.945202 0.101067 107.807
0 0.945663 0.0910837 1.32457
0 0.945664 0.0910882 1.30465
0 0.945623 0.0912061 1.08145
0 0.945646 0.0911069 1.40825
0 0.945634 0.0910658 1.10859
0 0.94561 0.0910081 0.518891
0 0.945619 0.0910453 0.770853
0 0.945626 0.091055 0.963123
0 0.945624 0.0910851 1.08141
0 0.94555 0.0915501 3.08754
0 0.94547 0.092343 5.12721
0 0.945457 0.0994394 23.8369
0 0.945536 0.0911783 0.417844
0 0.94554 0.0912297 1.02735
0 0.945578 0.0910585 0.659979
0 0.945601 0.091012 0.440037
0 0.945582 0.0911577 1.63784
0 0.945584 0.0914227 4.79635
0 0.945657 0.0921761 13.12
0 0.945624 0.101261 34.0963
0 0.945641 0.0910875 1.44823
0 0.945607 0.0912603 0.805235
0 0.945639 0.0910837 1.14363
0 0.945635 0.0910675 1.10863
0 0.945616 0.0910138 0.560209
0 0.945628 0.0910586 0.947764
0 0.945634 0.0910844 1.18448
0 0.945635 0.0911123 1.30217
0 0.94561 0.091321 1.47015
0 0.94556 0.0916434 4.44531
0 0.945447 0.0922906 9.87256
0 0.945371 0.0999861 47.9798
0 0.945582 0.0910433 0.620744
0 0.945605 0.0909996 0.365279
0 0.945603 0.0910863 1.59202
0 0.945593 0.0915644 4.53385
0 0.94563 0.0926175 15.8952
0 0.945737 0.102881 111.677
0 0.945633 0.0910269 0.341744
0 0.945641 0.0910382 0.864487
0 0.945629 0.0910149 0.606576
0 0.945645 0.0910902 1.10126
0 0.945648 0.0911275 1.24982
0 0.94564 0.0911975 1.10041
0 0.945613 0.0915053 4.02353
0 0.94556 0.0922176 12.2974
0 0.945434 0.0982325 79.8444
0 0.945621 0.0910212 0.845863
0 0.945618 0.0912619 2.45391
0 0.945572 0.0915943 5.42386
0 0.945503 0.0933808 17.6171
0 0.945549 0.104402 149.359
0 0.945655 0.0910231 0.310302
0 0.945651 0.0911415 1.48901
0 0.945668 0.091079 1.20164
0 0.945673 0.0912164 1.95016
0 0.945663 0.0914569 4.07221
0 0.945669 0.0921861 12.005
0 0.945651 0.0991679 60.5847
0 0.945638 0.0913096 2.38074
0 0.94559 0.0915908 4.98856
0 0.945453 0.0927756 12.9863
0 0.945384 0.104852 133.011
0 0.945663 0.0913187 2.27833
0 0.945698 0.0910708 1.033
0 0.945687 0.0911681 1.39717
0 0.945714 0.0910657 0.632264
0 0.945728 0.0914781 4.62517
0 0.945686 0.0920119 11.2953
0 0.945682 0.0981668 42.6534
0 0.945622 0.0915643 3.77441
0 0.945535 0.0927211 14.0399
0 0.945399 0.100803 63.6535
0 0.945678 0.0915002 3.17303
0 0.945785 0.0912448 2.86615
0 0.945756 0.091351 2.44571
0 0.945869 0.0920218 8.03437
0 0.945767 0.103435 79.5813
0 0.945599 0.0924966 12.7407
0 0.945547 0.102723 62.3933
0 0.945709 0.0920722 8.05102
0 0.945933 0.0919245 4.76107
0 0.946069 0.103432 16.5925
0 0.945587 0.100096 26.3708
0 0.945878 0.0969735 33.2594
VECTORS fa_u float
0.00800171 0.00333168 -0
0.00422745 0.00244825 -0
0.00464126 0.00125913 -0
0.00892153 0.00120094 -0
1e-08 0 0
0.0067144 0.00515032 -0
0.00334187 0.00332346 -0
1e-08 0 0
1e-08 0 0
0.00436248 0.00554821 -0
0.00390032 0.00667355 -0
0.00471375 1.51834e-05 -0
0.00704763 -0.000842243 0
1e-08 0 0
1e-08 0 0
1e-08 0 0
1e-08 0 0
1e-08 0 0
1e-08 0 0
1e-08 0 0
1e-08 0 0
0.00260797 0.00629475 -0
0.00177998 0.0066851 -0
1e-08 0 0
1e-08 0 0
1e-08 0 0
0.00819672 -0.00217818 0
1e-08 0 0
0.00605896 -0.00254998 0
1e-08 0 0
1e-08 0 0
1e-08 0 0
0.000847525 0.0065371 -0
1e-08 0 0
1e-08 0 0
1e-08 0 0
1e-08 0 0
1e-08 0 0
1e-08 0 0
1e-08 0 0
1e-08 0 0
1e-08 0 0
1e-08 0 0
-6.64572e-05 0.00816259 -0
1e-08 0 0
1e-08 0 0
1e-08 0 0
0.00684877 -0.0040552 0
1e-08 0 0
0.00425979 -0.00333659 0
1e-08 0 0
1e-08 0 0
1e-08 0 0
1e-08 0 0
1e-08 0 0
1e-08 0 0
1e-08 0 0
1e-08 0 0
1e-08 0 0
1e-08 0 0
1e-08 0 0
1e-08 0 0
1e-08 0 0
-0.000808985 0.0056983 0
1e-08 0 0
1e-08 0 0
1e-08 0 0
1e-08 0 0
1e-08 0 0
0.0040467 -0.00403344 0
1e-08 0 0
0.00400045 -0.00512925 0
1e-08 0 0
1e-08 0 0
1e-08 0 0
1e-08 0 0
1e-08 0 0
1e-08 0 0
1e-08 0 0
1e-08 0 0
1e-08 0 0
1e-08 0 0
1e-08 0 0
1e-08 0 0
1e-08 0 0
-0.00126055 0.00478486 0
1e-08 0 0
1e-08 0 0
1e-08 0 0
1e-08 0 0
1e-08 0 0
1e-08 0 0
0.00330851 -0.00560026 0
1e-08 0 0
1e-08 0 0
1e-08 0 0
1e-08 0 0
1e-08 0 0
0.00348157 -0.00840273 0
1e-08 0 0
1e-08 0 0
1e-08 0 0
1e-08 0 0
1e-08 0 0
1e-08 0 0
1e-08 0 0
1e-08 0 0
1e-08 0 0
1e-08 0 0
-0.00313019 0.00769211 0
1e-08 0 0
1e-08 0 0
1e-08 0 0
1e-08 0 0
1e-08 0 0
1e-08 0 0
1e-08 0 0
1e-08 0 0
1e-08 0 0
1e-08 0 0
1e-08 0 0
1e-08 0 0
1e-08 0 0
1e-08 0 0
0.00153287 -0.00589897 0
1e-08 0 0
1e-08 0 0
1e-08 0 0
1e-08 0 0
1e-08 0 0
1e-08 0 0
1e-08 0 0
1e-08 0 0
1e-08 0 0
-0.00375128 0.00642665 0
1e-08 0 0
1e-08 0 0
1e-08 0 0
1e-08 0 0
1e-08 0 0
1e-08 0 0
1e-08 0 0
1e-08 0 0
1e-08 0 0
1e-08 0 0
1e-08 0 0
1e-08 0 0
1e-08 0 0
1e-08 0 0
1e-08 0 0
0.000717815 -0.00535478 0
1e-08 0 0
1e-08 0 0
1e-08 0 0
1e-08 0 0
1e-08 0 0
1e-08 0 0
1e-08 0 0
1e-08 0 0
1e-08 0 0
1e-08 0 0
-0.00361911 0.00467548 0
1e-08 0 0
1e-08 0 0
1e-08 0 0
1e-08 0 0
1e-08 0 0
1e-08 0 0
1e-08 0 0
1e-08 0 0
1e-08 0 0
1e-08 0 0
1e-08 0 0
1e-08 0 0
4.37579e-05 -0.00730679 0
1e-08 0 0
1e-08 0 0
1e-08 0 0
1e-08 0 0
1e-08 0 0
1e-08 0 0
1e-08 0 0
1e-08 0 0
1e-08 0 0
1e-08 0 0
1e-08 0 0
1e-08 0 0
-0.00445529 0.00447242 0
1e-08 0 0
1e-08 0 0
1e-08 0 0
1e-08 0 0
1e-08 0 0
1e-08 0 0
1e-08 0 0
1e-08 0 0
1e-08 0 0
1e-08 0 0
1e-08 0 0
1e-08 0 0
1e-08 0 0
-0.000857085 -0.00666408 0
1e-08 0 0
1e-08 0 0
1e-08 0 0
1e-08 0 0
1e-08 0 0
1e-08 0 0
1e-08 0 0
1e-08 0 0
-0.00438143 0.00343067 0
1e-08 0 0
1e-08 0 0
1e-08 0 0
1e-08 0 0
1e-08 0 0
1e-08 0 0
1e-08 0 0
1e-08 0 0
1e-08 0 0
1e-08 0 0
1e-08 0 0
-0.00174452 -0.00657332 0
1e-08 0 0
1e-08 0 0
1e-08 0 0
1e-08 0 0
1e-08 0 0
1e-08 0 0
1e-08 0 0
-0.00671445 0.00397142 0
1e-08 0 0
1e-08 0 0
1e-08 0 0
1e-08 0 0
1e-08 0 0
1e-08 0 0
1e-08 0 0
1e-08 0 0
1e-08 0 0
1e-08 0 0
1e-08 0 0
-0.00285148 -0.00685339 0
1e-08 0 0
1e-08 0 0
1e-08 0 0
1e-08 0 0
1e-08 0 0
-0.00718594 0.0029793 0
1e-08 0 0
1e-08 0 0
1e-08 0 0
1e-08 0 0
1e-08 0 0
1e-08 0 0
1e-08 0 0
1e-08 0 0
-0.00348661 -0.00595819 0
1e-08 0 0
1e-08 0 0
1e-08 0 0
1e-08 0 0
-0.00571871 0.00152762 0
1e-08 0 0
1e-08 0 0
1e-08 0 0
1e-08 0 0
1e-08 0 0
1e-08 0 0
-0.00407234 -0.0052359 0
1e-08 0 0
1e-08 0 0
1e-08 0 0
-0.00820633 0.00104666 0
1e-08 0 0
1e-08 0 0
1e-08 0 0
1e-08 0 0
1e-08 0 0
1e-08 0 0
-0.00395491 -0.00395221 0
1e-08 0 0
1e-08 0 0
-0.00669616 -7.55428e-05 0
1e-08 0 0
1e-08 0 0
1e-08 0 0
1e-08 0 0
-0.00630253 -0.00483313 0
1e-08 0 0
-0.00543779 -0.000744009 0
1e-08 0 0
1e-08 0 0
-0.00493649 -0.00284351 0
-0.00575504 -0.00150963 0
-0.00752305 -0.003094 0
