# vtk DataFile Version 2.0
CellBP Time: 9.68
ASCII
DATASET UNSTRUCTURED_GRID
POINTS 296 double
-8.92401 -3.66128 0
-8.36161 -4.80391 0
-9.3252 -2.45235 0
-9.58737 -1.21404 0
-8.25875 -2.77482 0
-7.65576 -5.86606 0
-6.80868 -6.81735 0
-7.81862 -3.81947 0
-7.24865 -4.80744 0
-5.86598 -7.6654 0
-4.82047 -8.3787 0
-9.67626 0.0470236 0
-9.61132 1.31732 0
-8.56621 -1.6581 0
-8.70238 -0.521065 0
-7.49405 -1.96935 0
-7.12753 -2.85843 0
-6.56177 -5.71903 0
-5.76406 -6.53851 0
-6.69603 -3.83095 0
-6.13876 -4.61714 0
-3.67987 -8.94327 0
-2.47057 -9.35342 0
-4.86672 -7.25193 0
-3.89099 -7.83132 0
-8.71627 0.634213 0
-9.36465 2.57217 0
-8.55418 1.75316 0
-8.94948 3.77614 0
-7.65545 -0.910758 0
-7.71189 0.0833291 0
-6.86727 -1.29203 0
-1.21567 -9.59897 0
-6.36353 -2.12047 0
-6.24006 -3.01145 0
-5.47105 -5.41683 0
-4.74577 -6.05892 0
-5.5887 -3.70887 0
-5.20167 -4.50691 0
-2.84868 -8.30357 0
-1.76326 -8.57445 0
-3.89474 -6.6685 0
-3.03825 -7.09903 0
0.0524998 -9.67719 0
-7.62893 1.131 0
-8.27932 2.89359 0
-7.48078 2.08666 0
-8.37613 4.91136 0
-7.81116 3.94201 0
-7.65436 5.96118 0
-6.70119 -0.387099 0
-6.87931 0.549924 0
-5.71304 -0.991096 0
-0.584825 -8.73606 0
0.555544 -8.68685 0
-5.24841 -2.44991 0
-4.43658 -5.04056 0
-3.8602 -5.72047 0
-4.39318 -3.76512 0
-2.04679 -7.50297 0
-1.12682 -7.72011 0
-2.96672 -6.04878 0
-2.29293 -6.56664 0
1.3139 -9.57906 0
-6.62168 1.4055 0
-7.10008 3.08406 0
-6.59272 2.34691 0
-7.22273 4.93798 0
-6.64992 3.9586 0
-6.81723 6.9138 0
-6.50635 5.83168 0
-5.8615 7.75289 0
-4.42222 -1.17407 0
-5.76186 0.504879 0
-4.62472 -0.0170465 0
0.00164864 -7.77188 0
1.71193 -8.54975 0
0.928772 -7.67902 0
-4.01002 -2.38593 0
-3.4744 -1.38692 0
-3.26542 -4.76247 0
-3.24739 -3.24292 0
-1.37187 -6.61544 0
-0.512404 -6.95599 0
-1.96189 -5.4934 0
2.55934 -9.3269 0
-5.45728 2.019 0
-6.03329 3.03754 0
-6.0422 4.81413 0
-5.70159 3.94328 0
-5.70207 6.64291 0
-5.39466 5.55366 0
-4.81611 8.47682 0
-4.78683 7.32035 0
-3.48658 -0.423196 0
-4.41588 1.23952 0
-3.69003 0.588769 0
-4.02983 2.30905 0
-3.68052 9.04391 0
2.81874 -8.22974 0
0.402155 -6.71882 0
1.98595 -7.43262 0
1.27686 -6.82064 0
-2.43882 -0.869188 0
-2.8291 -2.12059 0
-2.28272 -4.0678 0
-2.31604 -2.95546 0
-0.445877 -5.80448 0
-1.21306 -4.46778 0
3.76763 -8.92907 0
-4.74453 3.35914 0
-5.03468 4.53961 0
-4.59634 6.20572 0
-4.49022 5.29539 0
-3.8085 7.91481 0
-3.78256 6.76082 0
-2.75364 8.33511 0
-1.64654 -0.133689 0
-1.4469 -0.886582 0
-2.48394 0.511057 0
-3.235 1.44067 0
-3.21415 3.2937 0
-2.89338 2.36643 0
-1.35485 0.631199 0
-2.47207 9.44499 0
3.87907 -7.78818 0
2.91392 -7.05728 0
0.933422 -5.75594 0
2.03639 -6.33096 0
-1.67699 -1.98545 0
-1.42661 -3.25845 0
0.08634 -4.70589 0
-0.559814 -3.67272 0
4.87092 -7.2251 0
4.90583 -8.36602 0
-3.74109 4.50522 0
-3.69536 5.68579 0
-2.8533 7.20471 0
-2.97712 6.2813 0
-1.64487 8.6506 0
-1.91613 7.53933 0
-2.32285 4.02153 0
-0.72848 -1.32378 0
-0.836358 -0.253969 0
-1.93389 1.68389 0
-2.11678 2.86641 0
-1.30365 3.52826 0
-0.871889 1.35468 0
-0.284644 0.459245 0
-0.527164 8.79603 0
-1.21943 9.6851 0
1.09713 -4.52917 0
3.84846 -6.61499 0
2.94052 -6.00928 0
2.08501 -5.35748 0
4.72256 -6.11637 0
-0.554893 -2.46761 0
0.493354 -3.44212 0
0.0542643 -1.60758 0
1.46662 -3.64949 0
5.80318 -6.53216 0
5.95988 -7.65222 0
-2.45319 5.29592 0
-2.10493 6.46347 0
-0.891218 7.72981 0
-1.25327 6.85984 0
0.0887534 7.81355 0
-1.13821 4.46316 0
0.148873 -0.614761 0
-0.801708 2.48908 0
-0.337228 3.58823 0
0.0582192 1.51456 0
0.736737 0.47448 0
0.640692 8.80725 0
0.0468749 9.78252 0
2.35147 -4.23605 0
3.80602 -5.55917 0
2.95929 -5.1432 0
5.51404 -5.42067 0
4.63294 -5.20552 0
0.630183 -2.28864 0
1.24778 -2.93302 0
0.755908 -1.38923 0
2.14534 -3.1096 0
2.96461 -3.44051 0
6.09778 -4.73592 0
6.59418 -5.70631 0
6.91969 -6.81201 0
-1.00778 5.76719 0
-0.362623 6.81809 0
1.11485 7.7108 0
0.557884 7.02004 0
-0.00361463 4.69549 0
0.598994 3.81008 0
1.33474 -0.641398 0
0.531909 2.64517 0
0.959004 1.57483 0
1.90325 0.212625 0
1.60703 1.06386 0
2.11644 7.5292 0
1.78739 8.65031 0
1.31791 9.69539 0
3.77966 -4.29553 0
5.06125 -4.3866 0
5.7919 -3.88711 0
3.74971 -3.16726 0
1.80483 -1.87917 0
2.99651 -2.55523 0
6.72895 -3.90967 0
7.32307 -4.85264 0
7.76463 -5.86406 0
0.482073 5.83502 0
1.4201 6.69002 0
2.36008 6.62077 0
1.20032 4.52933 0
1.47857 3.38101 0
2.42474 -0.690421 0
2.81482 0.142694 0
1.77935 2.15726 0
2.60176 1.14686 0
3.05368 7.11902 0
2.88864 8.31916 0
2.5739 9.45886 0
4.86594 -3.2873 0
6.07002 -3.07443 0
4.14203 -2.25788 0
3.22509 -1.49666 0
6.68341 -2.29565 0
7.18103 -3.02096 0
7.91028 -3.88716 0
8.47996 -4.81904 0
2.01179 5.56015 0
3.05785 6.10408 0
2.35218 4.10017 0
2.40874 3.04422 0
3.5055 -0.456981 0
3.59643 0.614161 0
2.94638 2.27634 0
3.5232 1.51801 0
3.969 5.84628 0
3.95065 6.74017 0
3.95116 7.88442 0
3.78239 9.04577 0
5.5283 -1.90026 0
4.47965 -1.12099 0
6.66262 -1.3247 0
7.53864 -2.02028 0
8.33979 -2.84304 0
9.04952 -3.68324 0
3.38379 4.83507 0
3.31154 3.35947 0
4.65923 0.132498 0
4.48119 1.29914 0
4.02755 2.42248 0
4.51297 5.10034 0
4.79306 6.13632 0
4.9397 7.32384 0
4.92549 8.48587 0
5.83466 -0.43336 0
6.95038 -0.487285 0
7.70164 -1.07329 0
8.62337 -1.73037 0
9.4501 -2.47016 0
4.4994 3.78843 0
5.75853 1.08199 0
5.30904 2.50392 0
5.30758 4.56734 0
5.5453 5.46797 0
5.83845 6.61362 0
5.96871 7.76869 0
6.77749 0.450934 0
7.7852 -0.0276818 0
8.79338 -0.574906 0
9.70259 -1.21605 0
6.88302 1.32531 0
5.64565 3.73151 0
6.46137 2.1631 0
6.29622 3.04398 0
6.2087 4.63076 0
6.61587 5.779 0
6.9178 6.92429 0
7.70721 0.951945 0
8.78144 0.566627 0
9.77868 0.0540996 0
7.52993 1.97395 0
6.73176 3.84801 0
7.17572 2.90238 0
7.29171 4.83098 0
7.76117 5.96785 0
8.63476 1.7049 0
9.68268 1.31631 0
8.32352 2.79922 0
7.89109 3.86935 0
8.46503 4.90748 0
9.43478 2.5636 0
9.03408 3.77073 0
CELLS 542 2168
3 2 0 4
3 0 1 7
3 4 0 7
3 1 5 8
3 7 1 8
3 3 2 13
3 13 2 4
3 11 3 14
3 14 3 13
3 13 4 15
3 4 7 16
3 15 4 16
3 5 6 17
3 8 5 17
3 6 9 18
3 17 6 18
3 7 8 19
3 16 7 19
3 8 17 20
3 19 8 20
3 9 10 23
3 18 9 23
3 10 21 24
3 23 10 24
3 12 11 25
3 25 11 14
3 26 12 27
3 27 12 25
3 14 13 29
3 29 13 15
3 25 14 30
3 30 14 29
3 29 15 31
3 15 16 33
3 31 15 33
3 16 19 34
3 33 16 34
3 17 18 35
3 20 17 35
3 18 23 36
3 35 18 36
3 19 20 37
3 34 19 37
3 20 35 38
3 37 20 38
3 21 22 39
3 24 21 39
3 22 32 40
3 39 22 40
3 23 24 41
3 36 23 41
3 24 39 42
3 41 24 42
3 27 25 44
3 44 25 30
3 28 26 45
3 45 26 27
3 45 27 46
3 46 27 44
3 47 28 48
3 48 28 45
3 30 29 50
3 50 29 31
3 44 30 51
3 51 30 50
3 50 31 52
3 31 33 52
3 32 43 53
3 40 32 53
3 53 43 54
3 33 34 55
3 34 37 55
3 33 55 52
3 35 36 56
3 38 35 56
3 36 41 57
3 56 36 57
3 37 38 58
3 38 56 58
3 37 58 55
3 39 40 59
3 42 39 59
3 40 53 60
3 59 40 60
3 41 42 61
3 57 41 61
3 42 59 62
3 61 42 62
3 43 63 54
3 46 44 64
3 64 44 51
3 48 45 65
3 65 45 46
3 65 46 66
3 66 46 64
3 49 47 67
3 67 47 48
3 67 48 68
3 68 48 65
3 69 49 70
3 70 49 67
3 52 55 72
3 64 51 73
3 51 50 73
3 50 52 73
3 73 52 74
3 74 52 72
3 53 54 75
3 60 53 75
3 54 63 76
3 54 76 77
3 75 54 77
3 55 58 78
3 72 55 78
3 72 78 79
3 56 57 80
3 57 61 80
3 56 80 58
3 58 80 81
3 78 58 81
3 59 60 82
3 62 59 82
3 60 75 83
3 82 60 83
3 61 62 84
3 62 82 84
3 61 84 80
3 63 85 76
3 66 64 86
3 64 73 86
3 68 65 87
3 87 65 66
3 87 66 86
3 70 67 88
3 88 67 68
3 88 68 89
3 89 68 87
3 71 69 90
3 90 69 70
3 90 70 91
3 91 70 88
3 92 71 93
3 93 71 90
3 74 72 94
3 94 72 79
3 86 73 95
3 95 73 74
3 95 74 96
3 96 74 94
3 97 86 95
3 76 85 99
3 75 77 100
3 83 75 100
3 76 99 101
3 77 76 101
3 77 101 102
3 100 77 102
3 94 79 103
3 78 81 104
3 79 78 104
3 79 104 103
3 80 84 105
3 81 80 105
3 81 105 106
3 104 81 106
3 82 83 107
3 83 100 107
3 82 107 84
3 84 107 108
3 105 84 108
3 85 109 99
3 89 87 110
3 87 86 110
3 110 86 97
3 91 88 111
3 111 88 89
3 111 89 110
3 93 90 112
3 112 90 91
3 112 91 113
3 113 91 111
3 98 92 114
3 114 92 93
3 114 93 115
3 115 93 112
3 116 98 114
3 117 103 118
3 96 94 119
3 94 103 119
3 119 103 117
3 97 95 120
3 120 95 96
3 120 96 119
3 121 110 97
3 121 97 122
3 122 97 120
3 123 119 117
3 124 98 116
3 99 109 125
3 99 125 126
3 101 99 126
3 100 102 127
3 100 127 107
3 101 126 128
3 102 101 128
3 102 128 127
3 104 106 129
3 104 129 103
3 103 129 118
3 105 108 130
3 106 105 130
3 106 130 129
3 107 127 131
3 108 107 131
3 108 131 132
3 108 132 130
3 109 134 125
3 125 134 133
3 113 111 135
3 111 110 135
3 135 110 121
3 115 112 136
3 136 112 113
3 136 113 135
3 116 114 137
3 137 114 115
3 137 115 138
3 138 115 136
3 139 124 116
3 139 116 140
3 140 116 137
3 141 135 121
3 118 129 142
3 118 142 143
3 117 118 143
3 123 117 143
3 122 120 144
3 120 119 144
3 144 119 123
3 141 121 145
3 145 121 122
3 145 122 144
3 146 141 145
3 147 144 123
3 147 123 148
3 143 148 123
3 150 124 139
3 149 150 139
3 131 127 151
3 125 133 152
3 126 125 152
3 126 152 153
3 128 126 153
3 128 153 154
3 128 154 127
3 127 154 151
3 152 133 155
3 130 132 156
3 130 156 129
3 129 156 142
3 131 151 157
3 132 131 157
3 132 157 156
3 156 158 142
3 157 151 159
3 133 160 155
3 134 161 133
3 133 161 160
3 138 136 162
3 136 135 162
3 162 135 141
3 140 137 163
3 163 137 138
3 163 138 162
3 149 139 164
3 164 139 140
3 164 140 165
3 165 140 163
3 166 149 164
3 167 162 141
3 167 141 146
3 142 158 168
3 143 142 168
3 143 168 148
3 146 145 169
3 145 144 169
3 169 144 147
3 170 167 146
3 170 146 169
3 171 169 147
3 171 147 148
3 171 148 172
3 168 172 148
3 173 149 166
3 174 150 149
3 173 174 149
3 154 175 151
3 151 175 159
3 152 155 176
3 153 152 176
3 153 176 177
3 153 177 154
3 154 177 175
3 155 160 178
3 155 178 179
3 176 155 179
3 156 157 180
3 156 180 158
3 157 159 181
3 157 181 180
3 158 180 182
3 158 182 168
3 159 175 183
3 159 183 181
3 175 184 183
3 160 186 178
3 178 186 185
3 161 187 160
3 160 187 186
3 165 163 188
3 163 162 188
3 188 162 167
3 166 164 189
3 189 164 165
3 189 165 188
3 190 173 166
3 190 166 191
3 191 166 189
3 192 188 167
3 192 167 170
3 193 192 170
3 182 194 168
3 194 172 168
3 193 170 195
3 170 169 195
3 195 169 171
3 196 195 171
3 196 171 172
3 194 197 172
3 197 198 172
3 198 196 172
3 200 173 190
3 199 200 190
3 201 174 173
3 200 201 173
3 176 179 202
3 177 176 202
3 177 202 175
3 175 202 184
3 178 185 203
3 178 203 179
3 179 203 202
3 203 185 204
3 202 205 184
3 183 206 181
3 180 181 206
3 180 206 182
3 182 206 194
3 183 184 207
3 205 207 184
3 183 207 206
3 185 208 204
3 186 209 185
3 185 209 208
3 187 210 186
3 186 210 209
3 191 189 211
3 189 188 211
3 211 188 192
3 199 190 212
3 212 190 191
3 212 191 211
3 213 199 212
3 214 211 192
3 214 192 193
3 215 214 193
3 215 193 195
3 206 216 194
3 216 197 194
3 216 217 197
3 215 195 218
3 218 195 196
3 198 218 196
3 217 219 197
3 219 218 198
3 197 219 198
3 220 199 213
3 221 200 199
3 220 221 199
3 222 201 200
3 221 222 200
3 203 204 223
3 203 223 202
3 202 223 205
3 204 208 224
3 204 224 223
3 205 223 225
3 205 225 207
3 207 225 226
3 207 226 206
3 226 216 206
3 208 228 224
3 224 228 227
3 209 229 208
3 229 228 208
3 210 230 209
3 209 230 229
3 213 212 231
3 212 211 231
3 231 211 214
3 232 220 213
3 232 213 231
3 233 231 214
3 233 214 215
3 234 233 215
3 234 215 218
3 226 235 216
3 235 217 216
3 235 236 217
3 217 236 219
3 237 234 218
3 237 218 219
3 236 238 219
3 238 237 219
3 240 220 232
3 239 240 232
3 241 221 220
3 240 241 220
3 242 222 221
3 241 242 221
3 224 227 243
3 224 243 223
3 223 243 225
3 225 243 244
3 225 244 226
3 226 244 235
3 227 245 243
3 228 246 227
3 227 246 245
3 229 247 228
3 228 247 246
3 230 248 229
3 229 248 247
3 239 232 249
3 232 231 249
3 249 231 233
3 250 249 233
3 250 233 234
3 237 250 234
3 244 251 235
3 235 251 236
3 251 252 236
3 236 252 238
3 252 253 238
3 253 250 237
3 253 237 238
3 254 239 249
3 255 240 239
3 254 255 239
3 256 241 240
3 255 256 240
3 257 242 241
3 256 257 241
3 245 258 243
3 243 258 244
3 244 258 251
3 245 259 258
3 246 260 245
3 245 260 259
3 247 261 246
3 246 261 260
3 248 262 247
3 247 262 261
3 254 249 263
3 263 249 250
3 253 263 250
3 258 264 251
3 251 264 252
3 264 265 252
3 265 263 253
3 252 265 253
3 266 254 263
3 267 255 254
3 266 267 254
3 268 256 255
3 267 268 255
3 269 257 256
3 268 269 256
3 259 270 258
3 270 264 258
3 260 271 259
3 259 271 270
3 261 272 260
3 260 272 271
3 262 273 261
3 273 272 261
3 270 274 264
3 275 266 263
3 275 263 265
3 274 276 264
3 276 265 264
3 276 277 265
3 277 275 265
3 278 267 266
3 275 278 266
3 279 268 267
3 278 279 267
3 280 269 268
3 279 280 268
3 271 281 270
3 270 281 274
3 272 282 271
3 271 282 281
3 273 283 272
3 272 283 282
3 281 284 274
3 274 284 276
3 285 278 275
3 277 285 275
3 284 286 276
3 286 285 277
3 276 286 277
3 287 279 278
3 285 287 278
3 288 280 279
3 287 288 279
3 282 289 281
3 281 289 284
3 283 290 282
3 282 290 289
3 289 291 284
3 284 291 286
3 291 292 286
3 292 287 285
3 286 292 285
3 293 288 287
3 292 293 287
3 290 294 289
3 289 294 291
3 294 295 291
3 295 293 292
3 291 295 292
CELL_TYPES 542
5
5
5
5
5
5
5
5
5
5
5
5
5
5
5
5
5
5
5
5
5
5
5
5
5
5
5
5
5
5
5
5
5
5
5
5
5
5
5
5
5
5
5
5
5
5
5
5
5
5
5
5
5
5
5
5
5
5
5
5
5
5
5
5
5
5
5
5
5
5
5
5
5
5
5
5
5
5
5
5
5
5
5
5
5
5
5
5
5
5
5
5
5
5
5
5
5
5
5
5
5
5
5
5
5
5
5
5
5
5
5
5
5
5
5
5
5
5
5
5
5
5
5
5
5
5
5
5
5
5
5
5
5
5
5
5
5
5
5
5
5
5
5
5
5
5
5
5
5
5
5
5
5
5
5
5
5
5
5
5
5
5
5
5
5
5
5
5
5
5
5
5
5
5
5
5
5
5
5
5
5
5
5
5
5
5
5
5
5
5
5
5
5
5
5
5
5
5
5
5
5
5
5
5
5
5
5
5
5
5
5
5
5
5
5
5
5
5
5
5
5
5
5
5
5
5
5
5
5
5
5
5
5
5
5
5
5
5
5
5
5
5
5
5
5
5
5
5
5
5
5
5
5
5
5
5
5
5
5
5
5
5
5
5
5
5
5
5
5
5
5
5
5
5
5
5
5
5
5
5
5
5
5
5
5
5
5
5
5
5
5
5
5
5
5
5
5
5
5
5
5
5
5
5
5
5
5
5
5
5
5
5
5
5
5
5
5
5
5
5
5
5
5
5
5
5
5
5
5
5
5
5
5
5
5
5
5
5
5
5
5
5
5
5
5
5
5
5
5
5
5
5
5
5
5
5
5
5
5
5
5
5
5
5
5
5
5
5
5
5
5
5
5
5
5
5
5
5
5
5
5
5
5
5
5
5
5
5
5
5
5
5
5
5
5
5
5
5
5
5
5
5
5
5
5
5
5
5
5
5
5
5
5
5
5
5
5
5
5
5
5
5
5
5
5
5
5
5
5
5
5
5
5
5
5
5
5
5
5
5
5
5
5
5
5
5
5
5
5
5
5
5
5
5
5
5
5
5
5
5
5
5
5
5
5
5
5
5
5
5
5
5
5
5
5
5
5
5
5
5
5
5
5
5
5
5
5
5
5
5
5
5
5
5
5
5
5
5
5
5
5
5
5
5
5
5
5
5
5
5
5
5
5
5
5
5
5
5
5
5
5
5
5
5
5
5
5
5
5
5
5
5
5
5
5
5
5
5
5
5
5
5
POINT_DATA 296
SCALARS concentrations float 4
LOOKUP_TABLE default
0 0.94508 0.102731 117.397
0 0.94525 0.104214 62.0811
0 0.945286 0.107511 119.075
0 0.945587 0.101751 93.6154
0 0.945162 0.0930732 15.0333
0 0.945137 0.10568 51.7842
0 0.945556 0.104579 83.9234
0 0.945181 0.0931978 18.2536
0 0.945197 0.092933 12.9441
0 0.945923 0.100453 68.4624
0 0.945984 0.0999179 21.0846
0 0.945582 0.104379 123.498
0 0.945772 0.10655 171.511
0 0.945424 0.092795 12.0844
0 0.945548 0.0922069 16.5714
0 0.945293 0.0917374 5.4418
0 0.945212 0.0917339 6.15609
0 0.945304 0.09215 7.52728
0 0.945667 0.0920572 11.1095
0 0.945215 0.0914792 4.72018
0 0.945277 0.0913405 3.27401
0 0.945742 0.102716 91.8819
0 0.945684 0.103968 3.99845
0 0.945848 0.0916894 1.55406
0 0.945785 0.0917833 7.00862
0 0.945631 0.0927632 21.4398
0 0.945805 0.104016 57.9094
0 0.945756 0.0926994 18.2193
0 0.945516 0.100102 14.6684
0 0.945428 0.0917464 5.59599
0 0.945542 0.0916788 7.71046
0 0.94537 0.0914062 2.55585
0 0.945722 0.100502 64.6925
0 0.945319 0.0912558 0.902379
0 0.945277 0.0911688 1.19852
0 0.945419 0.0911308 0.524117
0 0.945591 0.091194 1.80224
0 0.945315 0.0910518 0.627282
0 0.945364 0.0910751 0.847458
0 0.945661 0.0922769 10.58
0 0.945678 0.0924362 8.10926
0 0.945659 0.091143 1.9825
0 0.945639 0.0911877 1.32475
0 0.945649 0.103622 15.0762
0 0.945616 0.0916712 7.7327
0 0.945634 0.0923825 11.8679
0 0.945607 0.0915474 5.21916
0 0.945304 0.100641 26.0381
0 0.945399 0.0920085 7.525
0 0.945249 0.102062 92.4377
0 0.945455 0.0913288 3.99696
0 0.945524 0.0913421 4.88885
0 0.945412 0.091103 1.75205
0 0.945651 0.0922597 3.71467
0 0.945625 0.0925185 4.50876
0 0.945375 0.0910786 1.56418
0 0.945454 0.0910665 1.05196
0 0.945537 0.0910524 1.18469
0 0.945414 0.0910367 1.09979
0 0.945616 0.0912372 2.08303
0 0.945602 0.0913125 1.43143
0 0.945556 0.0910375 1.18403
0 0.945572 0.0910793 1.08295
0 0.945615 0.104312 36.824
0 0.945532 0.0911689 2.50968
0 0.945499 0.0913352 3.06238
0 0.945515 0.0911856 2.119
0 0.945306 0.091634 6.23711
0 0.945384 0.0912778 3.41764
0 0.945034 0.103302 2.15475
0 0.945182 0.0919237 5.98992
0 0.945117 0.103467 55.1444
0 0.945432 0.0910729 1.16792
0 0.945476 0.0910696 1.34275
0 0.945459 0.0910683 0.511297
0 0.945594 0.0913011 2.24904
0 0.945468 0.0922509 3.34627
0 0.945537 0.0914273 1.95904
0 0.945435 0.0910914 1.44939
0 0.945468 0.0910883 1.14875
0 0.945488 0.0910057 0.962224
0 0.945468 0.0910415 0.983118
0 0.945562 0.0910998 1.3492
0 0.945566 0.0911504 1.6557
0 0.945531 0.0909862 0.704433
0 0.945274 0.101768 2.37488
0 0.94548 0.0911073 0.906817
0 0.94545 0.091201 2.74003
0 0.945302 0.0912782 2.45412
0 0.945392 0.0912095 2.98112
0 0.94513 0.0923432 2.39317
0 0.945259 0.0913762 3.89347
0 0.94508 0.0971195 24.4423
0 0.945168 0.0919022 5.38196
0 0.945477 0.0910769 0.967707
0 0.945477 0.0910907 0.363569
0 0.945482 0.0910756 0.607466
0 0.94547 0.0911139 0.620911
0 0.945139 0.0978396 4.86793
0 0.945328 0.0926696 9.66028
0 0.945552 0.0911941 2.22394
0 0.945474 0.0915732 3.28978
0 0.945526 0.0912892 2.64721
0 0.9455 0.091086 0.977658
0 0.945484 0.0910742 1.05774
0 0.945507 0.0910099 0.842347
0 0.945502 0.0910448 0.957852
0 0.945544 0.0910356 1.27724
0 0.945533 0.0909817 0.627282
0 0.945316 0.101884 17.6575
0 0.945438 0.091128 1.47317
0 0.945369 0.0911962 2.84666
0 0.945252 0.0913085 2.44762
0 0.945341 0.0912143 2.80843
0 0.945163 0.0918847 5.40134
0 0.945275 0.0913435 2.77538
0 0.945255 0.0922958 9.38533
0 0.945517 0.0910708 0.867717
0 0.945524 0.0910671 0.765666
0 0.9455 0.0910798 0.916782
0 0.945489 0.0910781 0.49018
0 0.945455 0.0910623 0.588563
0 0.945483 0.0910813 0.566833
0 0.94552 0.0910551 0.699921
0 0.945281 0.100809 50.8358
0 0.945414 0.0927335 12.1289
0 0.945453 0.0915105 3.31196
0 0.945544 0.0910903 1.62792
0 0.945514 0.0912599 2.31741
0 0.945519 0.091068 0.771474
0 0.945525 0.0910234 0.720018
0 0.945546 0.0909878 0.72637
0 0.945543 0.0910001 0.413767
0 0.945422 0.0924902 9.4584
0 0.94541 0.0987124 12.2089
0 0.945417 0.0910646 1.07676
0 0.945362 0.0911471 1.80327
0 0.945304 0.0913502 3.74113
0 0.945364 0.0911733 1.74672
0 0.945324 0.0919607 8.48845
0 0.94534 0.0912229 0.993926
0 0.94545 0.091026 0.420785
0 0.945539 0.0910521 0.536018
0 0.945535 0.0910505 0.590741
0 0.945502 0.091048 0.473568
0 0.945483 0.0910462 0.395352
0 0.945477 0.0910608 0.559209
0 0.945518 0.0910203 0.245201
0 0.945534 0.0910221 0.246165
0 0.945305 0.0923109 11.0005
0 0.945311 0.104256 112.067
0 0.945556 0.0910063 0.567056
0 0.94547 0.0915184 3.73249
0 0.945513 0.0912205 1.63821
0 0.945547 0.0910747 1.08661
0 0.945489 0.0916086 4.9833
0 0.945544 0.0910385 0.377525
0 0.945555 0.0910091 0.231288
0 0.945553 0.0910432 0.230517
0 0.945568 0.0910234 0.0265539
0 0.945484 0.0925181 12.2586
0 0.945402 0.0984795 22.5751
0 0.945419 0.0910366 0.735295
0 0.945387 0.0911146 1.01026
0 0.945346 0.0913325 1.28324
0 0.945383 0.0911697 0.78842
0 0.945314 0.0914931 3.27957
0 0.945447 0.0910736 0.659181
0 0.945548 0.0910193 0.217844
0 0.9455 0.0910351 0.341089
0 0.945477 0.0911287 1.06424
0 0.94552 0.0910332 0.232245
0 0.945541 0.0910328 0.157266
0 0.945264 0.092069 2.11948
0 0.945275 0.101122 86.8042
0 0.945569 0.0910347 0.0975306
0 0.945529 0.0912178 2.04794
0 0.945555 0.0910863 0.614727
0 0.945526 0.0915524 5.3938
0 0.945543 0.0913093 3.33652
0 0.945562 0.0910441 0.0759599
0 0.945572 0.0910369 0.0977592
0 0.945564 0.091037 0.108749
0 0.945581 0.0910494 0.493858
0 0.945586 0.0910815 1.00941
0 0.945578 0.0914874 4.59321
0 0.945528 0.0921842 10.5488
0 0.945539 0.100616 37.246
0 0.945416 0.0911002 0.541479
0 0.945375 0.0912088 1.20285
0 0.945281 0.0915698 2.89763
0 0.945345 0.0912757 1.99943
0 0.945439 0.0911325 1.08122
0 0.945467 0.0911158 0.984224
0 0.945561 0.0910431 0.308002
0 0.945498 0.0910507 0.504628
0 0.94552 0.0910413 0.424792
0 0.945553 0.0910486 0.38707
0 0.945532 0.091037 0.343876
0 0.945287 0.0915925 2.47166
0 0.945214 0.092429 4.75841
0 0.945219 0.100896 116.715
0 0.945576 0.0911098 1.47002
0 0.945577 0.0912939 3.10615
0 0.94561 0.0913027 2.38848
0 0.945601 0.0910841 1.09511
0 0.945579 0.0910641 0.702016
0 0.945595 0.0910808 1.04937
0 0.94563 0.0914039 2.08701
0 0.945596 0.0915779 5.82837
0 0.945507 0.0995484 11.6862
0 0.945399 0.0911014 0.791922
0 0.945347 0.0911572 1.19428
0 0.945355 0.0912182 1.41909
0 0.945432 0.0911063 1.17493
0 0.945473 0.091063 0.702302
0 0.945578 0.0910521 0.564105
0 0.945566 0.0910372 0.383472
0 0.945506 0.0910333 0.401966
0 0.945536 0.0910385 0.289602
0 0.945376 0.0916576 4.48292
0 0.945272 0.092393 7.20076
0 0.945174 0.099038 25.5539
0 0.945613 0.0911266 1.53137
0 0.945642 0.0911695 0.774243
0 0.945617 0.0910887 1.38882
0 0.945599 0.0910746 1.09821
0 0.945667 0.0911405 0.210176
0 0.945659 0.0913999 1.06843
0 0.945674 0.0921075 4.46153
0 0.945692 0.10054 7.93705
0 0.945403 0.0910449 1.35859
0 0.945408 0.0911572 2.38338
0 0.945441 0.0910776 1.34245
0 0.945478 0.0910375 0.608733
0 0.945594 0.0910288 0.664233
0 0.945569 0.091012 0.429358
0 0.945505 0.0910253 0.218686
0 0.945536 0.0910166 0.415204
0 0.945441 0.0912092 3.707
0 0.945494 0.091663 7.39308
0 0.945525 0.0925288 11.56
0 0.94539 0.0989587 13.9692
0 0.945642 0.0910498 1.38336
0 0.945621 0.0910428 1.15652
0 0.945677 0.0910911 0.248123
0 0.94567 0.0914269 0.389986
0 0.945591 0.092356 2.79958
0 0.945606 0.0989834 8.67797
0 0.945432 0.0910716 1.55045
0 0.945466 0.0910232 0.444483
0 0.945603 0.0910032 0.893883
0 0.945561 0.0909887 0.812805
0 0.945508 0.0910136 0.551767
0 0.945443 0.0911738 2.97386
0 0.94551 0.0914086 5.71006
0 0.945739 0.0929364 19.5585
0 0.945786 0.0974275 85.1725
0 0.945641 0.0909979 0.889112
0 0.945685 0.0912836 0.813461
0 0.945695 0.0913939 0.596674
0 0.945612 0.091596 0.861073
0 0.945512 0.0992247 73.7807
0 0.945468 0.0910449 0.589535
0 0.945599 0.0910471 1.15488
0 0.945531 0.0909863 0.951609
0 0.945441 0.0911437 2.10248
0 0.945434 0.0912885 4.01915
0 0.945559 0.0924353 13.3293
0 0.945845 0.11217 96.7014
0 0.945651 0.0913266 1.35882
0 0.945681 0.091574 0.955435
0 0.945665 0.0917451 2.32943
0 0.945606 0.0948476 8.99008
0 0.945611 0.0913398 1.65711
0 0.945479 0.091059 0.543323
0 0.945572 0.0911256 1.20573
0 0.945526 0.0910423 0.438847
0 0.94542 0.0912118 1.5719
0 0.945327 0.0918593 4.87827
0 0.945377 0.103064 21.8224
0 0.945619 0.0917265 2.61185
0 0.945608 0.0924801 3.91283
0 0.945619 0.0976225 51.5908
0 0.945573 0.0915003 2.44288
0 0.945498 0.0912117 1.00727
0 0.945559 0.0912867 2.40883
0 0.945429 0.0918233 4.57978
0 0.945302 0.0992701 18.5405
0 0.945497 0.0928035 10.1202
0 0.945499 0.100336 8.00734
0 0.94555 0.092394 11.6643
0 0.945605 0.0917793 3.61488
0 0.945555 0.1009 54.2837
0 0.945431 0.103074 46.7281
0 0.945649 0.0981925 12.2131
VECTORS fa_u float
0.00678781 0.0027814 -0
0.00565321 0.00325188 -0
0.00473686 0.00128399 -0
0.00745259 0.00104679 -0
1e-08 0 0
0.00614805 0.00474188 -0
0.003409 0.00339087 -0
1e-08 0 0
1e-08 0 0
0.0043531 0.00554323 -0
0.00383046 0.00655296 -0
0.00579834 5.48559e-05 -0
0.00792368 -0.000977794 0
1e-08 0 0
1e-08 0 0
1e-08 0 0
1e-08 0 0
1e-08 0 0
1e-08 0 0
1e-08 0 0
1e-08 0 0
0.00263408 0.00635035 -0
0.00179326 0.0067393 -0
1e-08 0 0
1e-08 0 0
1e-08 0 0
0.00717401 -0.00193103 0
1e-08 0 0
0.00662947 -0.00280155 0
1e-08 0 0
1e-08 0 0
1e-08 0 0
0.000861991 0.00671722 -0
1e-08 0 0
1e-08 0 0
1e-08 0 0
1e-08 0 0
1e-08 0 0
1e-08 0 0
1e-08 0 0
1e-08 0 0
1e-08 0 0
1e-08 0 0
-5.99201e-05 0.00761435 -0
1e-08 0 0
1e-08 0 0
1e-08 0 0
0.0061011 -0.00361625 0
1e-08 0 0
0.00435697 -0.00339191 0
1e-08 0 0
1e-08 0 0
1e-08 0 0
1e-08 0 0
1e-08 0 0
1e-08 0 0
1e-08 0 0
1e-08 0 0
1e-08 0 0
1e-08 0 0
1e-08 0 0
1e-08 0 0
1e-08 0 0
-0.000811469 0.00580727 0
1e-08 0 0
1e-08 0 0
1e-08 0 0
1e-08 0 0
1e-08 0 0
0.00463935 -0.00464231 0
1e-08 0 0
0.0031828 -0.00407493 0
1e-08 0 0
1e-08 0 0
1e-08 0 0
1e-08 0 0
1e-08 0 0
1e-08 0 0
1e-08 0 0
1e-08 0 0
1e-08 0 0
1e-08 0 0
1e-08 0 0
1e-08 0 0
1e-08 0 0
-0.00140527 0.00530493 0
1e-08 0 0
1e-08 0 0
1e-08 0 0
1e-08 0 0
1e-08 0 0
1e-08 0 0
0.00405442 -0.00684932 0
1e-08 0 0
1e-08 0 0
1e-08 0 0
1e-08 0 0
1e-08 0 0
0.00304463 -0.00737136 0
1e-08 0 0
1e-08 0 0
1e-08 0 0
1e-08 0 0
1e-08 0 0
1e-08 0 0
1e-08 0 0
1e-08 0 0
1e-08 0 0
1e-08 0 0
-0.00296484 0.00724021 0
1e-08 0 0
1e-08 0 0
1e-08 0 0
1e-08 0 0
1e-08 0 0
1e-08 0 0
1e-08 0 0
1e-08 0 0
1e-08 0 0
1e-08 0 0
1e-08 0 0
1e-08 0 0
1e-08 0 0
1e-08 0 0
0.00169313 -0.0064988 0
1e-08 0 0
1e-08 0 0
1e-08 0 0
1e-08 0 0
1e-08 0 0
1e-08 0 0
1e-08 0 0
1e-08 0 0
1e-08 0 0
-0.00364009 0.00624971 0
1e-08 0 0
1e-08 0 0
1e-08 0 0
1e-08 0 0
1e-08 0 0
1e-08 0 0
1e-08 0 0
1e-08 0 0
1e-08 0 0
1e-08 0 0
1e-08 0 0
1e-08 0 0
1e-08 0 0
1e-08 0 0
1e-08 0 0
0.000659848 -0.00492435 0
1e-08 0 0
1e-08 0 0
1e-08 0 0
1e-08 0 0
1e-08 0 0
1e-08 0 0
1e-08 0 0
1e-08 0 0
1e-08 0 0
1e-08 0 0
-0.00366115 0.00474453 0
1e-08 0 0
1e-08 0 0
1e-08 0 0
1e-08 0 0
1e-08 0 0
1e-08 0 0
1e-08 0 0
1e-08 0 0
1e-08 0 0
1e-08 0 0
1e-08 0 0
1e-08 0 0
3.34843e-05 -0.00825297 0
1e-08 0 0
1e-08 0 0
1e-08 0 0
1e-08 0 0
1e-08 0 0
1e-08 0 0
1e-08 0 0
1e-08 0 0
1e-08 0 0
1e-08 0 0
1e-08 0 0
1e-08 0 0
-0.00422086 0.00426003 0
1e-08 0 0
1e-08 0 0
1e-08 0 0
1e-08 0 0
1e-08 0 0
1e-08 0 0
1e-08 0 0
1e-08 0 0
1e-08 0 0
1e-08 0 0
1e-08 0 0
1e-08 0 0
1e-08 0 0
-0.00068764 -0.00536893 0
1e-08 0 0
1e-08 0 0
1e-08 0 0
1e-08 0 0
1e-08 0 0
1e-08 0 0
1e-08 0 0
1e-08 0 0
-0.00504916 0.0039529 0
1e-08 0 0
1e-08 0 0
1e-08 0 0
1e-08 0 0
1e-08 0 0
1e-08 0 0
1e-08 0 0
1e-08 0 0
1e-08 0 0
1e-08 0 0
1e-08 0 0
-0.0020378 -0.00773079 0
1e-08 0 0
1e-08 0 0
1e-08 0 0
1e-08 0 0
1e-08 0 0
1e-08 0 0
1e-08 0 0
-0.0062055 0.00365615 0
1e-08 0 0
1e-08 0 0
1e-08 0 0
1e-08 0 0
1e-08 0 0
1e-08 0 0
1e-08 0 0
1e-08 0 0
1e-08 0 0
1e-08 0 0
1e-08 0 0
-0.0023756 -0.00574149 0
1e-08 0 0
1e-08 0 0
1e-08 0 0
1e-08 0 0
1e-08 0 0
-0.00768499 0.00317407 0
1e-08 0 0
1e-08 0 0
1e-08 0 0
1e-08 0 0
1e-08 0 0
1e-08 0 0
1e-08 0 0
1e-08 0 0
-0.0042625 -0.00729726 0
1e-08 0 0
1e-08 0 0
1e-08 0 0
1e-08 0 0
-0.00545218 0.0014432 0
1e-08 0 0
1e-08 0 0
1e-08 0 0
1e-08 0 0
1e-08 0 0
1e-08 0 0
-0.00377725 -0.00481914 0
1e-08 0 0
1e-08 0 0
1e-08 0 0
-0.00746104 0.000971206 0
1e-08 0 0
1e-08 0 0
1e-08 0 0
1e-08 0 0
1e-08 0 0
1e-08 0 0
-0.00406812 -0.00404917 0
1e-08 0 0
1e-08 0 0
-0.00723207 -5.68693e-05 0
1e-08 0 0
1e-08 0 0
1e-08 0 0
1e-08 0 0
-0.00579125 -0.00444284 0
1e-08 0 0
-0.00563099 -0.000771662 0
1e-08 0 0
1e-08 0 0
-0.00503741 -0.00291847 0
-0.00585472 -0.00154714 0
-0.00746316 -0.00308779 0
