# vtk DataFile Version 2.0
CellBP Time: 2.36
ASCII
DATASET UNSTRUCTURED_GRID
POINTS 296 double
-9.04015 -3.71213 0
-8.46045 -4.8622 0
-9.4495 -2.49023 0
-9.70235 -1.23193 0
-8.29839 -2.79281 0
-7.75358 -5.94024 0
-6.90101 -6.90596 0
-7.85827 -3.84189 0
-7.28631 -4.8317 0
-5.93767 -7.7561 0
-4.87562 -8.47628 0
-9.78587 0.0472291 0
-9.71398 1.33242 0
-8.603 -1.66882 0
-8.73592 -0.525026 0
-7.53252 -1.98355 0
-7.16693 -2.87795 0
-6.59208 -5.74344 0
-5.78775 -6.56234 0
-6.73372 -3.85447 0
-6.17156 -4.6411 0
-3.72198 -9.04861 0
-2.49959 -9.4623 0
-4.88292 -7.27529 0
-3.90032 -7.85384 0
-8.74659 0.637748 0
-9.47577 2.60182 0
-8.58215 1.76212 0
-9.05192 3.81864 0
-7.69123 -0.918298 0
-7.74521 0.0819515 0
-6.90165 -1.30175 0
-1.23239 -9.70808 0
-6.39481 -2.13373 0
-6.27173 -3.02956 0
-5.49738 -5.44046 0
-4.76609 -6.08216 0
-5.61684 -3.72851 0
-5.22886 -4.52932 0
-2.85583 -8.32828 0
-1.76982 -8.60129 0
-3.90845 -6.69121 0
-3.04602 -7.12128 0
0.0514357 -9.79068 0
-7.66007 1.13612 0
-8.30421 2.90266 0
-7.51015 2.09703 0
-8.47548 4.97007 0
-7.8395 3.95645 0
-7.75593 6.03928 0
-6.73258 -0.391096 0
-6.91077 0.550966 0
-5.73662 -0.996115 0
-0.587343 -8.76582 0
0.55965 -8.72085 0
-5.27021 -2.46222 0
-4.45892 -5.06329 0
-3.87741 -5.74315 0
-4.41154 -3.7814 0
-2.05338 -7.52726 0
-1.13055 -7.74703 0
-2.97821 -6.07096 0
-2.29979 -6.58882 0
1.33172 -9.7022 0
-6.6496 1.41222 0
-7.12989 3.0978 0
-6.62037 2.3575 0
-7.25194 4.95835 0
-6.67795 3.97643 0
-6.90019 6.99807 0
-6.53317 5.85658 0
-5.93454 7.84826 0
-4.43471 -1.17696 0
-5.78352 0.508429 0
-4.63768 -0.0144229 0
0.00433314 -7.80295 0
1.72263 -8.5877 0
0.936909 -7.71336 0
-4.02142 -2.39433 0
-3.47891 -1.38873 0
-3.27729 -4.78026 0
-3.25492 -3.25326 0
-1.37485 -6.64032 0
-0.511096 -6.98435 0
-1.96769 -5.51168 0
2.59226 -9.44504 0
-5.47804 2.02621 0
-6.05876 3.05149 0
-6.06792 4.83634 0
-5.72642 3.96259 0
-5.72587 6.67253 0
-5.41807 5.57991 0
-4.87193 8.5737 0
-4.80757 7.35373 0
-3.49267 -0.423729 0
-4.42969 1.2433 0
-3.69885 0.590018 0
-4.04322 2.31333 0
-3.72023 9.14575 0
2.83679 -8.27131 0
0.409157 -6.75029 0
2.00063 -7.47053 0
1.28869 -6.8554 0
-2.44114 -0.871178 0
-2.83287 -2.12503 0
-2.28761 -4.08021 0
-2.31999 -2.9631 0
-0.444625 -5.82795 0
-1.21713 -4.48099 0
3.81209 -9.03505 0
-4.76318 3.37217 0
-5.05657 4.56141 0
-4.61695 6.23588 0
-4.5101 5.32106 0
-3.82263 7.94586 0
-3.80037 6.79453 0
-2.7655 8.36961 0
-1.64748 -0.135539 0
-1.44818 -0.888369 0
-2.486 0.509411 0
-3.24267 1.44198 0
-3.2243 3.30272 0
-2.90064 2.36848 0
-1.35486 0.629391 0
-2.49865 9.55224 0
3.90109 -7.82846 0
2.9346 -7.09818 0
0.941765 -5.7831 0
2.05184 -6.36554 0
-1.67937 -1.98832 0
-1.42983 -3.26663 0
0.0878407 -4.72297 0
-0.562453 -3.68195 0
4.89575 -7.26335 0
4.96924 -8.47348 0
-3.75567 4.52364 0
-3.7113 5.71218 0
-2.86712 7.23852 0
-2.99012 6.31005 0
-1.65167 8.68352 0
-1.92558 7.57122 0
-2.329 4.03338 0
-0.729301 -1.32539 0
-0.836477 -0.255633 0
-1.93478 1.68251 0
-2.12038 2.87003 0
-1.30468 3.53475 0
-0.870798 1.35295 0
-0.283601 0.457754 0
-0.52956 8.82626 0
-1.23386 9.79933 0
1.1035 -4.5479 0
3.87366 -6.65665 0
2.9599 -6.04416 0
2.09842 -5.38508 0
4.74781 -6.1526 0
-0.556458 -2.47162 0
0.494084 -3.45128 0
0.0540834 -1.60899 0
1.47291 -3.66299 0
5.82906 -6.56561 0
6.03406 -7.74877 0
-2.46209 5.31675 0
-2.115 6.49183 0
-0.896127 7.75929 0
-1.26068 6.88889 0
0.0880187 7.84059 0
-1.14054 4.47579 0
0.149581 -0.616158 0
-0.799847 2.48876 0
-0.334799 3.59336 0
0.0603514 1.51369 0
0.738809 0.473896 0
0.643479 8.83427 0
0.0484687 9.89288 0
2.36361 -4.25617 0
3.8278 -5.59231 0
2.97658 -5.17157 0
5.53853 -5.44962 0
4.65679 -5.23712 0
0.630076 -2.29085 0
1.2513 -2.94066 0
0.756688 -1.39038 0
2.15322 -3.12046 0
2.97666 -3.45535 0
6.12146 -4.75868 0
6.61939 -5.73176 0
7.00087 -6.89631 0
-1.01231 5.78861 0
-0.366336 6.84467 0
1.11834 7.7349 0
0.558265 7.04451 0
-0.00222249 4.70765 0
0.602471 3.81744 0
1.33661 -0.641789 0
0.535023 2.64755 0
0.962077 1.57479 0
1.9063 0.213013 0
1.6104 1.06425 0
2.12206 7.55172 0
1.79249 8.6757 0
1.33422 9.81048 0
3.79744 -4.31845 0
5.0841 -4.41209 0
5.81425 -3.90678 0
3.76393 -3.18119 0
1.80804 -1.88084 0
3.00596 -2.56306 0
6.75162 -3.92537 0
7.34731 -4.87071 0
7.85718 -5.93743 0
0.482921 5.85416 0
1.42377 6.71161 0
2.36632 6.64108 0
1.20453 4.54054 0
1.48276 3.38792 0
2.4295 -0.691253 0
2.82053 0.14255 0
1.7835 2.15955 0
2.6062 1.14818 0
3.06159 7.14043 0
2.89522 8.34291 0
2.60119 9.56398 0
4.88479 -3.30399 0
6.09122 -3.08858 0
4.15494 -2.26521 0
3.23327 -1.49945 0
6.70366 -2.30299 0
7.20251 -3.02998 0
7.93317 -3.8976 0
8.58241 -4.87755 0
2.017 5.57683 0
3.06996 6.12495 0
2.35734 4.11138 0
2.41372 3.05119 0
3.5141 -0.458717 0
3.60471 0.613748 0
2.95305 2.28123 0
3.53272 1.52101 0
3.98705 5.86814 0
3.96496 6.76253 0
3.96081 7.90713 0
3.82211 9.14711 0
5.5454 -1.90702 0
4.49216 -1.12472 0
6.6843 -1.32957 0
7.56134 -2.02706 0
8.36388 -2.85068 0
9.15116 -3.72297 0
3.39859 4.85272 0
3.32311 3.37031 0
4.6728 0.131418 0
4.49711 1.3036 0
4.04332 2.43135 0
4.53697 5.12241 0
4.81424 6.15942 0
4.957 7.3479 0
4.97706 8.57776 0
5.85529 -0.434129 0
6.97594 -0.48778 0
7.72602 -1.07832 0
8.64905 -1.73686 0
9.56056 -2.49902 0
4.52149 3.80488 0
5.78337 1.08883 0
5.33495 2.51686 0
5.33778 4.5899 0
5.57317 5.49152 0
5.86283 6.63839 0
6.04381 7.86366 0
6.8065 0.456094 0
7.81391 -0.0268265 0
8.82134 -0.578735 0
9.81071 -1.23219 0
6.91566 1.33533 0
5.67714 3.75133 0
6.49499 2.17745 0
6.33133 3.06247 0
6.2436 4.65451 0
6.64795 5.80369 0
7.00124 7.00486 0
7.73969 0.958468 0
8.81411 0.569343 0
9.89038 0.0531284 0
7.56609 1.98662 0
6.77234 3.8717 0
7.2149 2.921 0
7.32786 4.85406 0
7.8569 6.0412 0
8.67152 1.714 0
9.80594 1.3342 0
8.36376 2.81534 0
7.9288 3.88916 0
8.56962 4.96867 0
9.54709 2.59461 0
9.13781 3.81446 0
CELLS 542 2168
3 2 0 4
3 0 1 7
3 4 0 7
3 1 5 8
3 7 1 8
3 3 2 13
3 13 2 4
3 11 3 14
3 14 3 13
3 13 4 15
3 4 7 16
3 15 4 16
3 5 6 17
3 8 5 17
3 6 9 18
3 17 6 18
3 7 8 19
3 16 7 19
3 8 17 20
3 19 8 20
3 9 10 23
3 18 9 23
3 10 21 24
3 23 10 24
3 12 11 25
3 25 11 14
3 26 12 27
3 27 12 25
3 14 13 29
3 29 13 15
3 25 14 30
3 30 14 29
3 29 15 31
3 15 16 33
3 31 15 33
3 16 19 34
3 33 16 34
3 17 18 35
3 20 17 35
3 18 23 36
3 35 18 36
3 19 20 37
3 34 19 37
3 20 35 38
3 37 20 38
3 21 22 39
3 24 21 39
3 22 32 40
3 39 22 40
3 23 24 41
3 36 23 41
3 24 39 42
3 41 24 42
3 27 25 44
3 44 25 30
3 28 26 45
3 45 26 27
3 45 27 46
3 46 27 44
3 47 28 48
3 48 28 45
3 30 29 50
3 50 29 31
3 44 30 51
3 51 30 50
3 50 31 52
3 31 33 52
3 32 43 53
3 40 32 53
3 53 43 54
3 33 34 55
3 34 37 55
3 33 55 52
3 35 36 56
3 38 35 56
3 36 41 57
3 56 36 57
3 37 38 58
3 38 56 58
3 37 58 55
3 39 40 59
3 42 39 59
3 40 53 60
3 59 40 60
3 41 42 61
3 57 41 61
3 42 59 62
3 61 42 62
3 43 63 54
3 46 44 64
3 64 44 51
3 48 45 65
3 65 45 46
3 65 46 66
3 66 46 64
3 49 47 67
3 67 47 48
3 67 48 68
3 68 48 65
3 69 49 70
3 70 49 67
3 52 55 72
3 64 51 73
3 51 50 73
3 50 52 73
3 73 52 74
3 74 52 72
3 53 54 75
3 60 53 75
3 54 63 76
3 54 76 77
3 75 54 77
3 55 58 78
3 72 55 78
3 72 78 79
3 56 57 80
3 57 61 80
3 56 80 58
3 58 80 81
3 78 58 81
3 59 60 82
3 62 59 82
3 60 75 83
3 82 60 83
3 61 62 84
3 62 82 84
3 61 84 80
3 63 85 76
3 66 64 86
3 64 73 86
3 68 65 87
3 87 65 66
3 87 66 86
3 70 67 88
3 88 67 68
3 88 68 89
3 89 68 87
3 71 69 90
3 90 69 70
3 90 70 91
3 91 70 88
3 92 71 93
3 93 71 90
3 74 72 94
3 94 72 79
3 86 73 95
3 95 73 74
3 95 74 96
3 96 74 94
3 97 86 95
3 76 85 99
3 75 77 100
3 83 75 100
3 76 99 101
3 77 76 101
3 77 101 102
3 100 77 102
3 94 79 103
3 78 81 104
3 79 78 104
3 79 104 103
3 80 84 105
3 81 80 105
3 81 105 106
3 104 81 106
3 82 83 107
3 83 100 107
3 82 107 84
3 84 107 108
3 105 84 108
3 85 109 99
3 89 87 110
3 87 86 110
3 110 86 97
3 91 88 111
3 111 88 89
3 111 89 110
3 93 90 112
3 112 90 91
3 112 91 113
3 113 91 111
3 98 92 114
3 114 92 93
3 114 93 115
3 115 93 112
3 116 98 114
3 117 103 118
3 96 94 119
3 94 103 119
3 119 103 117
3 97 95 120
3 120 95 96
3 120 96 119
3 121 110 97
3 121 97 122
3 122 97 120
3 123 119 117
3 124 98 116
3 99 109 125
3 99 125 126
3 101 99 126
3 100 102 127
3 100 127 107
3 101 126 128
3 102 101 128
3 102 128 127
3 104 106 129
3 104 129 103
3 103 129 118
3 105 108 130
3 106 105 130
3 106 130 129
3 107 127 131
3 108 107 131
3 108 131 132
3 108 132 130
3 109 134 125
3 125 134 133
3 113 111 135
3 111 110 135
3 135 110 121
3 115 112 136
3 136 112 113
3 136 113 135
3 116 114 137
3 137 114 115
3 137 115 138
3 138 115 136
3 139 124 116
3 139 116 140
3 140 116 137
3 141 135 121
3 118 129 142
3 118 142 143
3 117 118 143
3 123 117 143
3 122 120 144
3 120 119 144
3 144 119 123
3 141 121 145
3 145 121 122
3 145 122 144
3 146 141 145
3 147 144 123
3 147 123 148
3 143 148 123
3 150 124 139
3 149 150 139
3 131 127 151
3 125 133 152
3 126 125 152
3 126 152 153
3 128 126 153
3 128 153 154
3 128 154 127
3 127 154 151
3 152 133 155
3 130 132 156
3 130 156 129
3 129 156 142
3 131 151 157
3 132 131 157
3 132 157 156
3 156 158 142
3 157 151 159
3 133 160 155
3 134 161 133
3 133 161 160
3 138 136 162
3 136 135 162
3 162 135 141
3 140 137 163
3 163 137 138
3 163 138 162
3 149 139 164
3 164 139 140
3 164 140 165
3 165 140 163
3 166 149 164
3 167 162 141
3 167 141 146
3 142 158 168
3 143 142 168
3 143 168 148
3 146 145 169
3 145 144 169
3 169 144 147
3 170 167 146
3 170 146 169
3 171 169 147
3 171 147 148
3 171 148 172
3 168 172 148
3 173 149 166
3 174 150 149
3 173 174 149
3 154 175 151
3 151 175 159
3 152 155 176
3 153 152 176
3 153 176 177
3 153 177 154
3 154 177 175
3 155 160 178
3 155 178 179
3 176 155 179
3 156 157 180
3 156 180 158
3 157 159 181
3 157 181 180
3 158 180 182
3 158 182 168
3 159 175 183
3 159 183 181
3 175 184 183
3 160 186 178
3 178 186 185
3 161 187 160
3 160 187 186
3 165 163 188
3 163 162 188
3 188 162 167
3 166 164 189
3 189 164 165
3 189 165 188
3 190 173 166
3 190 166 191
3 191 166 189
3 192 188 167
3 192 167 170
3 193 192 170
3 182 194 168
3 194 172 168
3 193 170 195
3 170 169 195
3 195 169 171
3 196 195 171
3 196 171 172
3 194 197 172
3 197 198 172
3 198 196 172
3 200 173 190
3 199 200 190
3 201 174 173
3 200 201 173
3 176 179 202
3 177 176 202
3 177 202 175
3 175 202 184
3 178 185 203
3 178 203 179
3 179 203 202
3 203 185 204
3 202 205 184
3 183 206 181
3 180 181 206
3 180 206 182
3 182 206 194
3 183 184 207
3 205 207 184
3 183 207 206
3 185 208 204
3 186 209 185
3 185 209 208
3 187 210 186
3 186 210 209
3 191 189 211
3 189 188 211
3 211 188 192
3 199 190 212
3 212 190 191
3 212 191 211
3 213 199 212
3 214 211 192
3 214 192 193
3 215 214 193
3 215 193 195
3 206 216 194
3 216 197 194
3 216 217 197
3 215 195 218
3 218 195 196
3 198 218 196
3 217 219 197
3 219 218 198
3 197 219 198
3 220 199 213
3 221 200 199
3 220 221 199
3 222 201 200
3 221 222 200
3 203 204 223
3 203 223 202
3 202 223 205
3 204 208 224
3 204 224 223
3 205 223 225
3 205 225 207
3 207 225 226
3 207 226 206
3 226 216 206
3 208 228 224
3 224 228 227
3 209 229 208
3 229 228 208
3 210 230 209
3 209 230 229
3 213 212 231
3 212 211 231
3 231 211 214
3 232 220 213
3 232 213 231
3 233 231 214
3 233 214 215
3 234 233 215
3 234 215 218
3 226 235 216
3 235 217 216
3 235 236 217
3 217 236 219
3 237 234 218
3 237 218 219
3 236 238 219
3 238 237 219
3 240 220 232
3 239 240 232
3 241 221 220
3 240 241 220
3 242 222 221
3 241 242 221
3 224 227 243
3 224 243 223
3 223 243 225
3 225 243 244
3 225 244 226
3 226 244 235
3 227 245 243
3 228 246 227
3 227 246 245
3 229 247 228
3 228 247 246
3 230 248 229
3 229 248 247
3 239 232 249
3 232 231 249
3 249 231 233
3 250 249 233
3 250 233 234
3 237 250 234
3 244 251 235
3 235 251 236
3 251 252 236
3 236 252 238
3 252 253 238
3 253 250 237
3 253 237 238
3 254 239 249
3 255 240 239
3 254 255 239
3 256 241 240
3 255 256 240
3 257 242 241
3 256 257 241
3 245 258 243
3 243 258 244
3 244 258 251
3 245 259 258
3 246 260 245
3 245 260 259
3 247 261 246
3 246 261 260
3 248 262 247
3 247 262 261
3 254 249 263
3 263 249 250
3 253 263 250
3 258 264 251
3 251 264 252
3 264 265 252
3 265 263 253
3 252 265 253
3 266 254 263
3 267 255 254
3 266 267 254
3 268 256 255
3 267 268 255
3 269 257 256
3 268 269 256
3 259 270 258
3 270 264 258
3 260 271 259
3 259 271 270
3 261 272 260
3 260 272 271
3 262 273 261
3 273 272 261
3 270 274 264
3 275 266 263
3 275 263 265
3 274 276 264
3 276 265 264
3 276 277 265
3 277 275 265
3 278 267 266
3 275 278 266
3 279 268 267
3 278 279 267
3 280 269 268
3 279 280 268
3 271 281 270
3 270 281 274
3 272 282 271
3 271 282 281
3 273 283 272
3 272 283 282
3 281 284 274
3 274 284 276
3 285 278 275
3 277 285 275
3 284 286 276
3 286 285 277
3 276 286 277
3 287 279 278
3 285 287 278
3 288 280 279
3 287 288 279
3 282 289 281
3 281 289 284
3 283 290 282
3 282 290 289
3 289 291 284
3 284 291 286
3 291 292 286
3 292 287 285
3 286 292 285
3 293 288 287
3 292 293 287
3 290 294 289
3 289 294 291
3 294 295 291
3 295 293 292
3 291 295 292
CELL_TYPES 542
5
5
5
5
5
5
5
5
5
5
5
5
5
5
5
5
5
5
5
5
5
5
5
5
5
5
5
5
5
5
5
5
5
5
5
5
5
5
5
5
5
5
5
5
5
5
5
5
5
5
5
5
5
5
5
5
5
5
5
5
5
5
5
5
5
5
5
5
5
5
5
5
5
5
5
5
5
5
5
5
5
5
5
5
5
5
5
5
5
5
5
5
5
5
5
5
5
5
5
5
5
5
5
5
5
5
5
5
5
5
5
5
5
5
5
5
5
5
5
5
5
5
5
5
5
5
5
5
5
5
5
5
5
5
5
5
5
5
5
5
5
5
5
5
5
5
5
5
5
5
5
5
5
5
5
5
5
5
5
5
5
5
5
5
5
5
5
5
5
5
5
5
5
5
5
5
5
5
5
5
5
5
5
5
5
5
5
5
5
5
5
5
5
5
5
5
5
5
5
5
5
5
5
5
5
5
5
5
5
5
5
5
5
5
5
5
5
5
5
5
5
5
5
5
5
5
5
5
5
5
5
5
5
5
5
5
5
5
5
5
5
5
5
5
5
5
5
5
5
5
5
5
5
5
5
5
5
5
5
5
5
5
5
5
5
5
5
5
5
5
5
5
5
5
5
5
5
5
5
5
5
5
5
5
5
5
5
5
5
5
5
5
5
5
5
5
5
5
5
5
5
5
5
5
5
5
5
5
5
5
5
5
5
5
5
5
5
5
5
5
5
5
5
5
5
5
5
5
5
5
5
5
5
5
5
5
5
5
5
5
5
5
5
5
5
5
5
5
5
5
5
5
5
5
5
5
5
5
5
5
5
5
5
5
5
5
5
5
5
5
5
5
5
5
5
5
5
5
5
5
5
5
5
5
5
5
5
5
5
5
5
5
5
5
5
5
5
5
5
5
5
5
5
5
5
5
5
5
5
5
5
5
5
5
5
5
5
5
5
5
5
5
5
5
5
5
5
5
5
5
5
5
5
5
5
5
5
5
5
5
5
5
5
5
5
5
5
5
5
5
5
5
5
5
5
5
5
5
5
5
5
5
5
5
5
5
5
5
5
5
5
5
5
5
5
5
5
5
5
5
5
5
5
5
5
5
5
5
5
5
5
5
5
5
5
5
5
5
5
5
5
5
5
5
5
5
5
5
5
5
5
5
5
5
5
5
5
5
5
5
5
5
5
5
5
5
5
5
5
5
5
5
5
5
5
5
5
5
5
5
5
5
POINT_DATA 296
SCALARS concentrations float 4
LOOKUP_TABLE default
0 0.968582 0.165104 244.377
0 0.968732 0.164675 383.729
0 0.968613 0.167209 231.159
0 0.968479 0.167683 291.762
0 0.968543 0.0917648 1.21036
0 0.968802 0.167827 209.173
0 0.968623 0.169149 318.895
0 0.968569 0.0918069 1.71964
0 0.968675 0.0916556 2.19918
0 0.968229 0.167898 350.119
0 0.968061 0.163769 308.769
0 0.968582 0.162311 430.745
0 0.968635 0.164105 331.085
0 0.968508 0.0916268 2.10218
0 0.968472 0.0917405 6.64298
0 0.968438 0.0912795 1.13247
0 0.968448 0.0911647 0.885575
0 0.968622 0.0914131 1.28942
0 0.968391 0.0915392 2.37717
0 0.96847 0.0911406 1.3031
0 0.968465 0.0912074 1.05612
0 0.968327 0.169178 281.045
0 0.968157 0.172013 327.902
0 0.968134 0.0915685 2.90407
0 0.96821 0.0915897 3.48631
0 0.968599 0.0919265 10.5186
0 0.968144 0.159985 141.505
0 0.968426 0.0919109 9.38986
0 0.967994 0.164455 291.255
0 0.968433 0.0913465 2.76101
0 0.968462 0.0913355 4.34612
0 0.968387 0.0912113 1.30303
0 0.968035 0.165841 330.077
0 0.968378 0.0911187 0.879111
0 0.968382 0.0910799 1.06558
0 0.96839 0.091252 0.825104
0 0.968271 0.09131 0.873214
0 0.968374 0.0910668 0.806677
0 0.968358 0.0911439 0.529088
0 0.968271 0.091581 2.64529
0 0.968111 0.0915411 3.05416
0 0.968227 0.0913056 1.22987
0 0.968251 0.091265 1.56107
0 0.968137 0.166861 319.018
0 0.968475 0.0912311 3.53286
0 0.96816 0.0915404 4.33589
0 0.968413 0.0911719 1.87456
0 0.968093 0.165774 275.719
0 0.968171 0.0913988 2.77719
0 0.968146 0.164013 233.305
0 0.968406 0.0912104 1.81397
0 0.968436 0.0911714 2.19647
0 0.968385 0.0911005 0.672928
0 0.968139 0.0913876 2.53358
0 0.968136 0.0912877 1.02157
0 0.968365 0.0910454 0.876059
0 0.968322 0.0911657 0.251298
0 0.968285 0.0912053 0.455832
0 0.968352 0.091056 0.381861
0 0.968245 0.0912298 1.99074
0 0.968227 0.0911844 1.89875
0 0.968297 0.0911591 0.730776
0 0.968297 0.0911455 1.27244
0 0.967986 0.165573 297.461
0 0.968452 0.0910702 1.17166
0 0.968371 0.0911836 1.27287
0 0.968454 0.0910784 0.317226
0 0.96822 0.0913421 1.82733
0 0.968367 0.0911707 1.02347
0 0.968035 0.165698 425.977
0 0.968184 0.0914932 1.74567
0 0.967851 0.163865 262.396
0 0.968396 0.0910678 0.519116
0 0.968429 0.0911145 0.595251
0 0.968427 0.0910971 0.41102
0 0.968233 0.0911904 1.38182
0 0.967982 0.0913759 1.13757
0 0.9682 0.0912048 1.05087
0 0.968385 0.0910429 0.655879
0 0.968435 0.0910584 0.631279
0 0.968344 0.0910824 0.308005
0 0.968385 0.0910557 0.484024
0 0.968314 0.0910936 1.27997
0 0.968307 0.0911172 1.18027
0 0.968359 0.0910643 0.877977
0 0.967798 0.164219 277.583
0 0.968463 0.0910805 0.252689
0 0.968453 0.0910876 0.199342
0 0.968334 0.0912037 1.31608
0 0.968431 0.0911181 0.671114
0 0.968022 0.091558 4.31885
0 0.968253 0.0912077 1.85038
0 0.967992 0.165663 314.56
0 0.96799 0.0913829 3.76092
0 0.968461 0.0910489 0.524978
0 0.968462 0.0910749 0.47149
0 0.968475 0.0910545 0.507942
0 0.968478 0.0910737 0.427736
0 0.96807 0.165996 373.533
0 0.967892 0.0913241 1.57937
0 0.968318 0.0911433 0.950905
0 0.968136 0.0911866 1.01714
0 0.968285 0.0911574 0.895797
0 0.968494 0.0910046 0.530782
0 0.968445 0.0910417 0.593461
0 0.9684 0.0910542 0.64984
0 0.968445 0.0910434 0.642084
0 0.968373 0.0910653 0.882059
0 0.968418 0.0910465 0.927697
0 0.967739 0.164549 361.562
0 0.968455 0.0910465 0.173226
0 0.968395 0.091116 0.895435
0 0.968169 0.0911969 1.83629
0 0.968324 0.0911318 1.16099
0 0.968074 0.0912775 2.50278
0 0.968146 0.0911064 0.847254
0 0.968119 0.0912629 4.25207
0 0.968539 0.0909833 0.611231
0 0.968538 0.0909867 0.562242
0 0.968512 0.0909976 0.673569
0 0.968499 0.0910355 0.616207
0 0.968461 0.0910276 0.33166
0 0.968499 0.0910428 0.719405
0 0.968557 0.0909797 0.666225
0 0.968215 0.167134 323.005
0 0.967817 0.0913441 3.75192
0 0.968079 0.0911645 1.48957
0 0.968371 0.0910922 0.812444
0 0.968266 0.0911329 0.960162
0 0.968502 0.0910042 0.627079
0 0.968469 0.0910264 0.790586
0 0.96843 0.0910586 0.890147
0 0.968474 0.0910505 0.976861
0 0.967785 0.0916127 3.47617
0 0.967628 0.163773 280.41
0 0.968402 0.0910441 0.553395
0 0.968289 0.0910879 0.526708
0 0.968144 0.0911082 1.8289
0 0.968236 0.0910779 0.575791
0 0.968212 0.0915592 6.65517
0 0.968142 0.0911978 3.47506
0 0.968422 0.0910378 0.651797
0 0.968555 0.0909858 0.703601
0 0.968574 0.0909698 0.603427
0 0.968527 0.0909994 0.803306
0 0.968492 0.0910256 0.754417
0 0.968464 0.0910349 0.956009
0 0.96856 0.0909901 0.704217
0 0.968584 0.0909795 0.613678
0 0.968041 0.0916087 7.47384
0 0.968263 0.168292 316.62
0 0.968426 0.0910664 0.858011
0 0.968036 0.0911794 1.67359
0 0.968223 0.091114 1.12716
0 0.968362 0.0910781 0.894091
0 0.968075 0.0912548 0.947905
0 0.968519 0.0910181 0.864064
0 0.968488 0.0910647 1.00564
0 0.968563 0.0910159 0.882973
0 0.968467 0.0910733 0.952763
0 0.968026 0.0917742 3.76118
0 0.967758 0.162973 341.504
0 0.968335 0.0910502 0.666084
0 0.968226 0.0910874 1.55063
0 0.968089 0.091279 4.29049
0 0.968173 0.0911662 2.51362
0 0.967962 0.0912967 4.14057
0 0.968377 0.0910343 0.887825
0 0.968586 0.0909907 0.667587
0 0.968522 0.0910123 1.00522
0 0.968456 0.0910358 1.32773
0 0.968564 0.0910146 0.891648
0 0.968584 0.0910171 0.881242
0 0.96776 0.0914728 5.45823
0 0.967853 0.165168 409.366
0 0.968414 0.0910637 0.838847
0 0.968225 0.0910955 0.755221
0 0.968335 0.0910687 0.895194
0 0.968236 0.0912796 1.32657
0 0.968261 0.0911245 0.366295
0 0.968537 0.0910555 1.0688
0 0.968513 0.0910667 1.02083
0 0.96857 0.0910391 0.933543
0 0.968485 0.0910755 0.808981
0 0.968435 0.0910834 0.63826
0 0.968427 0.0912492 1.99195
0 0.968368 0.0915183 3.50901
0 0.968199 0.164383 422.668
0 0.968274 0.0910686 1.16234
0 0.96814 0.0911717 2.33558
0 0.967843 0.091216 2.8068
0 0.968056 0.0911601 2.16011
0 0.968344 0.0910481 1.30064
0 0.968432 0.0910534 1.26136
0 0.968576 0.0910458 0.990777
0 0.968511 0.0910373 1.07758
0 0.968557 0.0910489 1.14242
0 0.968565 0.0910705 1.25743
0 0.968558 0.0910661 1.23428
0 0.967821 0.0911788 0.913244
0 0.967632 0.0914779 3.48829
0 0.967616 0.166513 271.896
0 0.968364 0.0910619 0.361068
0 0.968355 0.0911202 0.668905
0 0.968433 0.0911469 1.34465
0 0.968431 0.0910849 0.480296
0 0.968535 0.0910731 0.838338
0 0.968487 0.0910945 0.614861
0 0.968533 0.0912116 2.32241
0 0.968633 0.0915429 2.51521
0 0.968567 0.164321 259.103
0 0.968222 0.0910696 1.27762
0 0.968056 0.0910982 1.1954
0 0.968029 0.0910966 0.178362
0 0.968325 0.0910595 1.3171
0 0.968439 0.0910641 1.08716
0 0.968543 0.0910847 1.03126
0 0.968527 0.0911027 1.26743
0 0.968504 0.0910758 1.25976
0 0.968513 0.0911101 1.57705
0 0.967891 0.0912047 1.17583
0 0.967678 0.0913922 1.63355
0 0.967528 0.162464 342.153
0 0.968418 0.0910839 0.401389
0 0.968455 0.0911028 1.18638
0 0.968456 0.0911073 0.429991
0 0.968503 0.0911002 0.598257
0 0.968431 0.0910976 1.19514
0 0.968506 0.091195 2.69615
0 0.968692 0.091588 4.33373
0 0.968815 0.167342 185.681
0 0.968215 0.0910703 1.20223
0 0.968111 0.0911289 0.69933
0 0.968328 0.0910744 1.08808
0 0.968425 0.0910887 1.10708
0 0.96849 0.0911021 0.912762
0 0.968469 0.091113 1.22827
0 0.968444 0.0911128 1.53308
0 0.968441 0.0911401 1.91516
0 0.968135 0.0911731 1.38526
0 0.968019 0.0912869 2.69085
0 0.967893 0.0914305 1.4428
0 0.967741 0.163483 366.349
0 0.968429 0.0911055 0.49963
0 0.968451 0.091105 0.344265
0 0.968372 0.0910962 0.856581
0 0.968368 0.0911526 1.7024
0 0.968462 0.0914673 4.96423
0 0.968662 0.165435 411.284
0 0.968242 0.0910833 0.598314
0 0.968339 0.091096 1.34794
0 0.968421 0.0911073 1.00922
0 0.968382 0.0911389 2.14706
0 0.968357 0.0911667 2.72962
0 0.968183 0.0911278 0.93834
0 0.968097 0.0912905 3.26246
0 0.968102 0.0917866 7.48851
0 0.968025 0.1659 320.004
0 0.968382 0.0911322 1.56089
0 0.96829 0.0911576 2.10929
0 0.968223 0.091142 0.606933
0 0.968156 0.0913619 0.724796
0 0.968267 0.163982 174.548
0 0.968271 0.0911107 1.77675
0 0.968328 0.0911845 3.0427
0 0.968297 0.0911953 3.3586
0 0.968185 0.0911011 0.909685
0 0.968121 0.0912075 3.29118
0 0.968112 0.0915872 4.96
0 0.968189 0.165817 246.315
0 0.968258 0.0912133 3.43293
0 0.968119 0.0911787 2.03387
0 0.967976 0.0912371 1.04732
0 0.967941 0.163959 331.172
0 0.968203 0.0912305 3.61919
0 0.968217 0.0910781 0.954447
0 0.968223 0.0911969 3.11761
0 0.968211 0.0911357 1.77749
0 0.968145 0.0911323 2.64837
0 0.968109 0.0913876 6.85616
0 0.968076 0.164065 359.006
0 0.968043 0.091238 3.33797
0 0.967857 0.0913309 3.14265
0 0.967801 0.165126 346.58
0 0.968058 0.0912429 3.24696
0 0.968169 0.0910961 0.7729
0 0.968134 0.0911567 1.78795
0 0.968166 0.0913197 5.10793
0 0.968167 0.162678 375.174
0 0.967768 0.0914024 5.56607
0 0.96765 0.164183 203.533
0 0.967987 0.0915507 6.99306
0 0.96819 0.0914389 5.06125
0 0.968193 0.162878 298.316
0 0.967695 0.163508 372.664
0 0.968151 0.164801 355.072
VECTORS fa_u float
0.00735749 0.00306788 -0
0.00431672 0.0024926 -0
0.00584609 0.00156089 -0
0.00682136 0.000904247 -0
1e-08 0 0
0.00626919 0.00478354 -0
0.00424611 0.00424623 -0
1e-08 0 0
1e-08 0 0
0.00384554 0.00495997 -0
0.00357685 0.0061316 -0
0.0056888 2.57937e-05 -0
0.00644499 -0.000782351 0
1e-08 0 0
1e-08 0 0
1e-08 0 0
1e-08 0 0
1e-08 0 0
1e-08 0 0
1e-08 0 0
1e-08 0 0
0.00266739 0.00642766 -0
0.00179446 0.00677438 -0
1e-08 0 0
1e-08 0 0
1e-08 0 0
0.00835277 -0.00222428 0
1e-08 0 0
0.00592689 -0.00250338 0
1e-08 0 0
1e-08 0 0
1e-08 0 0
0.000800333 0.00621744 -0
1e-08 0 0
1e-08 0 0
1e-08 0 0
1e-08 0 0
1e-08 0 0
1e-08 0 0
1e-08 0 0
1e-08 0 0
1e-08 0 0
1e-08 0 0
-1.57725e-05 0.0068836 -0
1e-08 0 0
1e-08 0 0
1e-08 0 0
0.00549123 -0.00320476 0
1e-08 0 0
0.00567813 -0.00441058 0
1e-08 0 0
1e-08 0 0
1e-08 0 0
1e-08 0 0
1e-08 0 0
1e-08 0 0
1e-08 0 0
1e-08 0 0
1e-08 0 0
1e-08 0 0
1e-08 0 0
1e-08 0 0
1e-08 0 0
-0.000914098 0.00671955 0
1e-08 0 0
1e-08 0 0
1e-08 0 0
1e-08 0 0
1e-08 0 0
0.00395 -0.0039771 0
1e-08 0 0
0.00358794 -0.00461866 0
1e-08 0 0
1e-08 0 0
1e-08 0 0
1e-08 0 0
1e-08 0 0
1e-08 0 0
1e-08 0 0
1e-08 0 0
1e-08 0 0
1e-08 0 0
1e-08 0 0
1e-08 0 0
1e-08 0 0
-0.00152205 0.0056587 0
1e-08 0 0
1e-08 0 0
1e-08 0 0
1e-08 0 0
1e-08 0 0
1e-08 0 0
0.00372882 -0.00636364 0
1e-08 0 0
1e-08 0 0
1e-08 0 0
1e-08 0 0
1e-08 0 0
0.00288174 -0.00698917 0
1e-08 0 0
1e-08 0 0
1e-08 0 0
1e-08 0 0
1e-08 0 0
1e-08 0 0
1e-08 0 0
1e-08 0 0
1e-08 0 0
1e-08 0 0
-0.00238521 0.00583555 0
1e-08 0 0
1e-08 0 0
1e-08 0 0
1e-08 0 0
1e-08 0 0
1e-08 0 0
1e-08 0 0
1e-08 0 0
1e-08 0 0
1e-08 0 0
1e-08 0 0
1e-08 0 0
1e-08 0 0
1e-08 0 0
0.00161905 -0.00615921 0
1e-08 0 0
1e-08 0 0
1e-08 0 0
1e-08 0 0
1e-08 0 0
1e-08 0 0
1e-08 0 0
1e-08 0 0
1e-08 0 0
-0.00411633 0.00711075 0
1e-08 0 0
1e-08 0 0
1e-08 0 0
1e-08 0 0
1e-08 0 0
1e-08 0 0
1e-08 0 0
1e-08 0 0
1e-08 0 0
1e-08 0 0
1e-08 0 0
1e-08 0 0
1e-08 0 0
1e-08 0 0
1e-08 0 0
0.000740546 -0.00553745 0
1e-08 0 0
1e-08 0 0
1e-08 0 0
1e-08 0 0
1e-08 0 0
1e-08 0 0
1e-08 0 0
1e-08 0 0
1e-08 0 0
1e-08 0 0
-0.00370866 0.00477735 0
1e-08 0 0
1e-08 0 0
1e-08 0 0
1e-08 0 0
1e-08 0 0
1e-08 0 0
1e-08 0 0
1e-08 0 0
1e-08 0 0
1e-08 0 0
1e-08 0 0
1e-08 0 0
3.14493e-05 -0.00724381 0
1e-08 0 0
1e-08 0 0
1e-08 0 0
1e-08 0 0
1e-08 0 0
1e-08 0 0
1e-08 0 0
1e-08 0 0
1e-08 0 0
1e-08 0 0
1e-08 0 0
1e-08 0 0
-0.00387988 0.00390511 0
1e-08 0 0
1e-08 0 0
1e-08 0 0
1e-08 0 0
1e-08 0 0
1e-08 0 0
1e-08 0 0
1e-08 0 0
1e-08 0 0
1e-08 0 0
1e-08 0 0
1e-08 0 0
1e-08 0 0
-0.000811069 -0.00629501 0
1e-08 0 0
1e-08 0 0
1e-08 0 0
1e-08 0 0
1e-08 0 0
1e-08 0 0
1e-08 0 0
1e-08 0 0
-0.0050697 0.00397168 0
1e-08 0 0
1e-08 0 0
1e-08 0 0
1e-08 0 0
1e-08 0 0
1e-08 0 0
1e-08 0 0
1e-08 0 0
1e-08 0 0
1e-08 0 0
1e-08 0 0
-0.00186272 -0.00698588 0
1e-08 0 0
1e-08 0 0
1e-08 0 0
1e-08 0 0
1e-08 0 0
1e-08 0 0
1e-08 0 0
-0.0067767 0.00395984 0
1e-08 0 0
1e-08 0 0
1e-08 0 0
1e-08 0 0
1e-08 0 0
1e-08 0 0
1e-08 0 0
1e-08 0 0
1e-08 0 0
1e-08 0 0
1e-08 0 0
-0.00246533 -0.00593918 0
1e-08 0 0
1e-08 0 0
1e-08 0 0
1e-08 0 0
1e-08 0 0
-0.00650652 0.00267577 0
1e-08 0 0
1e-08 0 0
1e-08 0 0
1e-08 0 0
1e-08 0 0
1e-08 0 0
1e-08 0 0
1e-08 0 0
-0.00337267 -0.0058382 0
1e-08 0 0
1e-08 0 0
1e-08 0 0
1e-08 0 0
-0.00609812 0.00161478 0
1e-08 0 0
1e-08 0 0
1e-08 0 0
1e-08 0 0
1e-08 0 0
1e-08 0 0
-0.00474265 -0.00610336 0
1e-08 0 0
1e-08 0 0
1e-08 0 0
-0.00678226 0.000876488 0
1e-08 0 0
1e-08 0 0
1e-08 0 0
1e-08 0 0
1e-08 0 0
1e-08 0 0
-0.00354062 -0.00352242 0
1e-08 0 0
1e-08 0 0
-0.00632205 -1.17613e-05 0
1e-08 0 0
1e-08 0 0
1e-08 0 0
1e-08 0 0
-0.00596647 -0.00459569 0
1e-08 0 0
-0.00717973 -0.000969809 0
1e-08 0 0
1e-08 0 0
-0.00559041 -0.00321583 0
-0.00549135 -0.00147926 0
-0.00640292 -0.00263627 0
