# vtk DataFile Version 2.0
CellBP Time: 6.36
ASCII
DATASET UNSTRUCTURED_GRID
POINTS 296 double
-8.92638 -3.66238 0
-8.36109 -4.80387 0
-9.33259 -2.45457 0
-9.58947 -1.21473 0
-8.25917 -2.77514 0
-7.65445 -5.86531 0
-6.81083 -6.81956 0
-7.81938 -3.81992 0
-7.24928 -4.80714 0
-5.86919 -7.6694 0
-4.82165 -8.38051 0
-9.67509 0.0466604 0
-9.60516 1.31636 0
-8.56657 -1.6583 0
-8.70256 -0.521411 0
-7.49431 -1.96954 0
-7.12787 -2.85864 0
-6.56158 -5.71928 0
-5.76433 -6.53908 0
-6.69636 -3.83102 0
-6.13901 -4.61727 0
-3.68017 -8.9437 0
-2.47173 -9.35763 0
-4.86711 -7.25262 0
-3.89154 -7.83141 0
-8.71598 0.63391 0
-9.36519 2.57222 0
-8.55387 1.75342 0
-8.9545 3.77813 0
-7.6556 -0.910916 0
-7.71191 0.0831802 0
-6.8674 -1.29215 0
-1.21547 -9.59527 0
-6.36368 -2.12058 0
-6.24024 -3.01154 0
-5.47113 -5.4171 0
-4.74596 -6.05933 0
-5.58883 -3.70899 0
-5.2018 -4.50708 0
-2.84844 -8.30396 0
-1.76395 -8.57492 0
-3.89499 -6.66884 0
-3.03848 -7.0994 0
0.0523126 -9.67622 0
-7.62887 1.13099 0
-8.27948 2.89381 0
-7.48081 2.08675 0
-8.37663 4.91175 0
-7.81139 3.94191 0
-7.6585 5.96468 0
-6.70125 -0.387178 0
-6.87932 0.549873 0
-5.71308 -0.991163 0
-0.585084 -8.73567 0
0.555875 -8.68672 0
-5.24846 -2.44999 0
-4.43669 -5.04081 0
-3.86036 -5.72078 0
-4.39323 -3.76527 0
-2.04697 -7.5032 0
-1.12707 -7.72022 0
-2.96689 -6.0491 0
-2.29313 -6.56693 0
1.31408 -9.58241 0
-6.62171 1.40551 0
-7.10019 3.08411 0
-6.59278 2.34692 0
-7.2227 4.93808 0
-6.65001 3.95858 0
-6.81649 6.91304 0
-6.50632 5.83177 0
-5.86475 7.7569 0
-4.42221 -1.17414 0
-5.76188 0.504839 0
-4.62472 -0.0171022 0
0.00158147 -7.77188 0
1.71168 -8.54988 0
0.928748 -7.67903 0
-4.01002 -2.38603 0
-3.47435 -1.38699 0
-3.26551 -4.7627 0
-3.24741 -3.24307 0
-1.37204 -6.61564 0
-0.512538 -6.95611 0
-1.962 -5.49364 0
2.55886 -9.32623 0
-5.45729 2.01896 0
-6.03334 3.03748 0
-6.04219 4.8141 0
-5.7016 3.94318 0
-5.70202 6.64323 0
-5.39464 5.55371 0
-4.81702 8.47836 0
-4.78706 7.32063 0
-3.48651 -0.42327 0
-4.41584 1.23945 0
-3.68997 0.588692 0
-4.02976 2.30898 0
-3.68109 9.0456 0
2.81893 -8.22969 0
0.402072 -6.71892 0
1.98591 -7.43273 0
1.27681 -6.82074 0
-2.43874 -0.869265 0
-2.82906 -2.12069 0
-2.28276 -4.06798 0
-2.31603 -2.95558 0
-0.445969 -5.80463 0
-1.21312 -4.46793 0
3.76743 -8.92874 0
-4.7445 3.35903 0
-5.03466 4.53952 0
-4.59634 6.20575 0
-4.49019 5.29532 0
-3.80882 7.91483 0
-3.78266 6.76074 0
-2.75407 8.33443 0
-1.64642 -0.133769 0
-1.4468 -0.886644 0
-2.48382 0.510955 0
-3.2349 1.44058 0
-3.21404 3.29356 0
-2.89326 2.36632 0
-1.35469 0.631105 0
-2.4702 9.43929 0
3.87902 -7.78854 0
2.91385 -7.05737 0
0.933361 -5.75604 0
2.03632 -6.33104 0
-1.67693 -1.98551 0
-1.4266 -3.25856 0
0.0862966 -4.70599 0
-0.559824 -3.67282 0
4.87058 -7.22516 0
4.90655 -8.36735 0
-3.74101 4.50507 0
-3.69534 5.68568 0
-2.85344 7.20443 0
-2.97713 6.2811 0
-1.64453 8.65025 0
-1.91619 7.53903 0
-2.3227 4.02133 0
-0.72839 -1.32382 0
-0.83623 -0.254034 0
-1.93372 1.68377 0
-2.11662 2.86626 0
-1.30347 3.52811 0
-0.87171 1.35457 0
-0.284487 0.459171 0
-0.52757 8.79564 0
-1.21945 9.68718 0
1.0971 -4.52922 0
3.84834 -6.61504 0
2.94045 -6.0093 0
2.08496 -5.35752 0
4.72249 -6.1163 0
-0.554851 -2.46766 0
0.49336 -3.44217 0
0.0543454 -1.6076 0
1.46663 -3.64949 0
5.80314 -6.53184 0
5.96047 -7.65313 0
-2.45309 5.2957 0
-2.10491 6.46324 0
-0.891197 7.72945 0
-1.25323 6.85958 0
0.0888052 7.81328 0
-1.13806 4.46301 0
0.148992 -0.614799 0
-0.801496 2.48897 0
-0.337033 3.58817 0
0.0584339 1.51448 0
0.736921 0.474446 0
0.641041 8.80686 0
0.0470725 9.77827 0
2.35147 -4.23603 0
3.80598 -5.55914 0
2.95925 -5.14318 0
5.51419 -5.42055 0
4.63298 -5.20544 0
0.630238 -2.28864 0
1.24781 -2.93301 0
0.755999 -1.38923 0
2.14538 -3.10958 0
2.96465 -3.44047 0
6.09806 -4.73588 0
6.59464 -5.70618 0
6.92019 -6.8126 0
-1.00766 5.76702 0
-0.362523 6.81786 0
1.11493 7.71051 0
0.557996 7.01983 0
-0.00343729 4.69543 0
0.599213 3.81006 0
1.33489 -0.641389 0
0.53215 2.64512 0
0.959251 1.57478 0
1.90345 0.212649 0
1.60727 1.06385 0
2.11661 7.52899 0
1.78713 8.65006 0
1.31914 9.70346 0
3.77969 -4.29548 0
5.06138 -4.38654 0
5.79214 -3.8871 0
3.7498 -3.16722 0
1.80492 -1.87914 0
2.9966 -2.5552 0
6.72932 -3.90976 0
7.3236 -4.85284 0
7.76595 -5.86511 0
0.482247 5.83494 0
1.42028 6.68989 0
2.36036 6.62072 0
1.20055 4.52935 0
1.47883 3.38102 0
2.42491 -0.690388 0
2.81504 0.142736 0
1.77963 2.15726 0
2.60203 1.1469 0
3.0541 7.11892 0
2.88887 8.31854 0
2.57344 9.45688 0
4.86609 -3.28726 0
6.07027 -3.07445 0
4.14216 -2.25784 0
3.22523 -1.49662 0
6.68368 -2.29568 0
7.18138 -3.02106 0
7.91081 -3.88734 0
8.48155 -4.81996 0
2.01204 5.56021 0
3.05827 6.10424 0
2.35246 4.10025 0
2.40903 3.04429 0
3.50571 -0.456938 0
3.5967 0.614211 0
2.9467 2.27642 0
3.52353 1.51811 0
3.96951 5.84665 0
3.9513 6.74042 0
3.95193 7.88426 0
3.78191 9.04445 0
5.52851 -1.90023 0
4.47986 -1.12094 0
6.66288 -1.32466 0
7.53889 -2.02036 0
8.34022 -2.84333 0
9.05644 -3.68615 0
3.38418 4.83533 0
3.31189 3.35964 0
4.65951 0.132578 0
4.48154 1.29931 0
4.02795 2.4227 0
4.51347 5.10082 0
4.79357 6.13689 0
4.94082 7.32457 0
4.92538 8.4855 0
5.83496 -0.43323 0
6.95068 -0.487157 0
7.70188 -1.07329 0
8.62354 -1.73052 0
9.44758 -2.46955 0
4.49986 3.78879 0
5.75893 1.08227 0
5.30952 2.50428 0
5.30811 4.56788 0
5.54576 5.46858 0
5.83848 6.61472 0
5.97366 7.77517 0
6.77786 0.451194 0
7.78548 -0.0275411 0
8.79359 -0.574807 0
9.70285 -1.21598 0
6.88346 1.32569 0
5.64621 3.73201 0
6.46189 2.16355 0
6.29681 3.04451 0
6.20925 4.63129 0
6.61631 5.77926 0
6.91755 6.92408 0
7.70755 0.952195 0
8.78178 0.566669 0
9.78043 0.0542142 0
7.53038 1.97441 0
6.73246 3.84862 0
7.1763 2.90296 0
7.29225 4.83157 0
7.76796 5.97322 0
8.63493 1.70515 0
9.68162 1.31642 0
8.32396 2.8 0
7.89195 3.86981 0
8.46604 4.9083 0
9.4375 2.56464 0
9.03468 3.77127 0
CELLS 542 2168
3 2 0 4
3 0 1 7
3 4 0 7
3 1 5 8
3 7 1 8
3 3 2 13
3 13 2 4
3 11 3 14
3 14 3 13
3 13 4 15
3 4 7 16
3 15 4 16
3 5 6 17
3 8 5 17
3 6 9 18
3 17 6 18
3 7 8 19
3 16 7 19
3 8 17 20
3 19 8 20
3 9 10 23
3 18 9 23
3 10 21 24
3 23 10 24
3 12 11 25
3 25 11 14
3 26 12 27
3 27 12 25
3 14 13 29
3 29 13 15
3 25 14 30
3 30 14 29
3 29 15 31
3 15 16 33
3 31 15 33
3 16 19 34
3 33 16 34
3 17 18 35
3 20 17 35
3 18 23 36
3 35 18 36
3 19 20 37
3 34 19 37
3 20 35 38
3 37 20 38
3 21 22 39
3 24 21 39
3 22 32 40
3 39 22 40
3 23 24 41
3 36 23 41
3 24 39 42
3 41 24 42
3 27 25 44
3 44 25 30
3 28 26 45
3 45 26 27
3 45 27 46
3 46 27 44
3 47 28 48
3 48 28 45
3 30 29 50
3 50 29 31
3 44 30 51
3 51 30 50
3 50 31 52
3 31 33 52
3 32 43 53
3 40 32 53
3 53 43 54
3 33 34 55
3 34 37 55
3 33 55 52
3 35 36 56
3 38 35 56
3 36 41 57
3 56 36 57
3 37 38 58
3 38 56 58
3 37 58 55
3 39 40 59
3 42 39 59
3 40 53 60
3 59 40 60
3 41 42 61
3 57 41 61
3 42 59 62
3 61 42 62
3 43 63 54
3 46 44 64
3 64 44 51
3 48 45 65
3 65 45 46
3 65 46 66
3 66 46 64
3 49 47 67
3 67 47 48
3 67 48 68
3 68 48 65
3 69 49 70
3 70 49 67
3 52 55 72
3 64 51 73
3 51 50 73
3 50 52 73
3 73 52 74
3 74 52 72
3 53 54 75
3 60 53 75
3 54 63 76
3 54 76 77
3 75 54 77
3 55 58 78
3 72 55 78
3 72 78 79
3 56 57 80
3 57 61 80
3 56 80 58
3 58 80 81
3 78 58 81
3 59 60 82
3 62 59 82
3 60 75 83
3 82 60 83
3 61 62 84
3 62 82 84
3 61 84 80
3 63 85 76
3 66 64 86
3 64 73 86
3 68 65 87
3 87 65 66
3 87 66 86
3 70 67 88
3 88 67 68
3 88 68 89
3 89 68 87
3 71 69 90
3 90 69 70
3 90 70 91
3 91 70 88
3 92 71 93
3 93 71 90
3 74 72 94
3 94 72 79
3 86 73 95
3 95 73 74
3 95 74 96
3 96 74 94
3 97 86 95
3 76 85 99
3 75 77 100
3 83 75 100
3 76 99 101
3 77 76 101
3 77 101 102
3 100 77 102
3 94 79 103
3 78 81 104
3 79 78 104
3 79 104 103
3 80 84 105
3 81 80 105
3 81 105 106
3 104 81 106
3 82 83 107
3 83 100 107
3 82 107 84
3 84 107 108
3 105 84 108
3 85 109 99
3 89 87 110
3 87 86 110
3 110 86 97
3 91 88 111
3 111 88 89
3 111 89 110
3 93 90 112
3 112 90 91
3 112 91 113
3 113 91 111
3 98 92 114
3 114 92 93
3 114 93 115
3 115 93 112
3 116 98 114
3 117 103 118
3 96 94 119
3 94 103 119
3 119 103 117
3 97 95 120
3 120 95 96
3 120 96 119
3 121 110 97
3 121 97 122
3 122 97 120
3 123 119 117
3 124 98 116
3 99 109 125
3 99 125 126
3 101 99 126
3 100 102 127
3 100 127 107
3 101 126 128
3 102 101 128
3 102 128 127
3 104 106 129
3 104 129 103
3 103 129 118
3 105 108 130
3 106 105 130
3 106 130 129
3 107 127 131
3 108 107 131
3 108 131 132
3 108 132 130
3 109 134 125
3 125 134 133
3 113 111 135
3 111 110 135
3 135 110 121
3 115 112 136
3 136 112 113
3 136 113 135
3 116 114 137
3 137 114 115
3 137 115 138
3 138 115 136
3 139 124 116
3 139 116 140
3 140 116 137
3 141 135 121
3 118 129 142
3 118 142 143
3 117 118 143
3 123 117 143
3 122 120 144
3 120 119 144
3 144 119 123
3 141 121 145
3 145 121 122
3 145 122 144
3 146 141 145
3 147 144 123
3 147 123 148
3 143 148 123
3 150 124 139
3 149 150 139
3 131 127 151
3 125 133 152
3 126 125 152
3 126 152 153
3 128 126 153
3 128 153 154
3 128 154 127
3 127 154 151
3 152 133 155
3 130 132 156
3 130 156 129
3 129 156 142
3 131 151 157
3 132 131 157
3 132 157 156
3 156 158 142
3 157 151 159
3 133 160 155
3 134 161 133
3 133 161 160
3 138 136 162
3 136 135 162
3 162 135 141
3 140 137 163
3 163 137 138
3 163 138 162
3 149 139 164
3 164 139 140
3 164 140 165
3 165 140 163
3 166 149 164
3 167 162 141
3 167 141 146
3 142 158 168
3 143 142 168
3 143 168 148
3 146 145 169
3 145 144 169
3 169 144 147
3 170 167 146
3 170 146 169
3 171 169 147
3 171 147 148
3 171 148 172
3 168 172 148
3 173 149 166
3 174 150 149
3 173 174 149
3 154 175 151
3 151 175 159
3 152 155 176
3 153 152 176
3 153 176 177
3 153 177 154
3 154 177 175
3 155 160 178
3 155 178 179
3 176 155 179
3 156 157 180
3 156 180 158
3 157 159 181
3 157 181 180
3 158 180 182
3 158 182 168
3 159 175 183
3 159 183 181
3 175 184 183
3 160 186 178
3 178 186 185
3 161 187 160
3 160 187 186
3 165 163 188
3 163 162 188
3 188 162 167
3 166 164 189
3 189 164 165
3 189 165 188
3 190 173 166
3 190 166 191
3 191 166 189
3 192 188 167
3 192 167 170
3 193 192 170
3 182 194 168
3 194 172 168
3 193 170 195
3 170 169 195
3 195 169 171
3 196 195 171
3 196 171 172
3 194 197 172
3 197 198 172
3 198 196 172
3 200 173 190
3 199 200 190
3 201 174 173
3 200 201 173
3 176 179 202
3 177 176 202
3 177 202 175
3 175 202 184
3 178 185 203
3 178 203 179
3 179 203 202
3 203 185 204
3 202 205 184
3 183 206 181
3 180 181 206
3 180 206 182
3 182 206 194
3 183 184 207
3 205 207 184
3 183 207 206
3 185 208 204
3 186 209 185
3 185 209 208
3 187 210 186
3 186 210 209
3 191 189 211
3 189 188 211
3 211 188 192
3 199 190 212
3 212 190 191
3 212 191 211
3 213 199 212
3 214 211 192
3 214 192 193
3 215 214 193
3 215 193 195
3 206 216 194
3 216 197 194
3 216 217 197
3 215 195 218
3 218 195 196
3 198 218 196
3 217 219 197
3 219 218 198
3 197 219 198
3 220 199 213
3 221 200 199
3 220 221 199
3 222 201 200
3 221 222 200
3 203 204 223
3 203 223 202
3 202 223 205
3 204 208 224
3 204 224 223
3 205 223 225
3 205 225 207
3 207 225 226
3 207 226 206
3 226 216 206
3 208 228 224
3 224 228 227
3 209 229 208
3 229 228 208
3 210 230 209
3 209 230 229
3 213 212 231
3 212 211 231
3 231 211 214
3 232 220 213
3 232 213 231
3 233 231 214
3 233 214 215
3 234 233 215
3 234 215 218
3 226 235 216
3 235 217 216
3 235 236 217
3 217 236 219
3 237 234 218
3 237 218 219
3 236 238 219
3 238 237 219
3 240 220 232
3 239 240 232
3 241 221 220
3 240 241 220
3 242 222 221
3 241 242 221
3 224 227 243
3 224 243 223
3 223 243 225
3 225 243 244
3 225 244 226
3 226 244 235
3 227 245 243
3 228 246 227
3 227 246 245
3 229 247 228
3 228 247 246
3 230 248 229
3 229 248 247
3 239 232 249
3 232 231 249
3 249 231 233
3 250 249 233
3 250 233 234
3 237 250 234
3 244 251 235
3 235 251 236
3 251 252 236
3 236 252 238
3 252 253 238
3 253 250 237
3 253 237 238
3 254 239 249
3 255 240 239
3 254 255 239
3 256 241 240
3 255 256 240
3 257 242 241
3 256 257 241
3 245 258 243
3 243 258 244
3 244 258 251
3 245 259 258
3 246 260 245
3 245 260 259
3 247 261 246
3 246 261 260
3 248 262 247
3 247 262 261
3 254 249 263
3 263 249 250
3 253 263 250
3 258 264 251
3 251 264 252
3 264 265 252
3 265 263 253
3 252 265 253
3 266 254 263
3 267 255 254
3 266 267 254
3 268 256 255
3 267 268 255
3 269 257 256
3 268 269 256
3 259 270 258
3 270 264 258
3 260 271 259
3 259 271 270
3 261 272 260
3 260 272 271
3 262 273 261
3 273 272 261
3 270 274 264
3 275 266 263
3 275 263 265
3 274 276 264
3 276 265 264
3 276 277 265
3 277 275 265
3 278 267 266
3 275 278 266
3 279 268 267
3 278 279 267
3 280 269 268
3 279 280 268
3 271 281 270
3 270 281 274
3 272 282 271
3 271 282 281
3 273 283 272
3 272 283 282
3 281 284 274
3 274 284 276
3 285 278 275
3 277 285 275
3 284 286 276
3 286 285 277
3 276 286 277
3 287 279 278
3 285 287 278
3 288 280 279
3 287 288 279
3 282 289 281
3 281 289 284
3 283 290 282
3 282 290 289
3 289 291 284
3 284 291 286
3 291 292 286
3 292 287 285
3 286 292 285
3 293 288 287
3 292 293 287
3 290 294 289
3 289 294 291
3 294 295 291
3 295 293 292
3 291 295 292
CELL_TYPES 542
5
5
5
5
5
5
5
5
5
5
5
5
5
5
5
5
5
5
5
5
5
5
5
5
5
5
5
5
5
5
5
5
5
5
5
5
5
5
5
5
5
5
5
5
5
5
5
5
5
5
5
5
5
5
5
5
5
5
5
5
5
5
5
5
5
5
5
5
5
5
5
5
5
5
5
5
5
5
5
5
5
5
5
5
5
5
5
5
5
5
5
5
5
5
5
5
5
5
5
5
5
5
5
5
5
5
5
5
5
5
5
5
5
5
5
5
5
5
5
5
5
5
5
5
5
5
5
5
5
5
5
5
5
5
5
5
5
5
5
5
5
5
5
5
5
5
5
5
5
5
5
5
5
5
5
5
5
5
5
5
5
5
5
5
5
5
5
5
5
5
5
5
5
5
5
5
5
5
5
5
5
5
5
5
5
5
5
5
5
5
5
5
5
5
5
5
5
5
5
5
5
5
5
5
5
5
5
5
5
5
5
5
5
5
5
5
5
5
5
5
5
5
5
5
5
5
5
5
5
5
5
5
5
5
5
5
5
5
5
5
5
5
5
5
5
5
5
5
5
5
5
5
5
5
5
5
5
5
5
5
5
5
5
5
5
5
5
5
5
5
5
5
5
5
5
5
5
5
5
5
5
5
5
5
5
5
5
5
5
5
5
5
5
5
5
5
5
5
5
5
5
5
5
5
5
5
5
5
5
5
5
5
5
5
5
5
5
5
5
5
5
5
5
5
5
5
5
5
5
5
5
5
5
5
5
5
5
5
5
5
5
5
5
5
5
5
5
5
5
5
5
5
5
5
5
5
5
5
5
5
5
5
5
5
5
5
5
5
5
5
5
5
5
5
5
5
5
5
5
5
5
5
5
5
5
5
5
5
5
5
5
5
5
5
5
5
5
5
5
5
5
5
5
5
5
5
5
5
5
5
5
5
5
5
5
5
5
5
5
5
5
5
5
5
5
5
5
5
5
5
5
5
5
5
5
5
5
5
5
5
5
5
5
5
5
5
5
5
5
5
5
5
5
5
5
5
5
5
5
5
5
5
5
5
5
5
5
5
5
5
5
5
5
5
5
5
5
5
5
5
5
5
5
5
5
5
5
5
5
5
5
5
5
5
5
5
5
5
5
5
5
5
5
5
5
5
5
5
5
5
5
5
5
5
5
5
5
5
5
5
5
5
5
5
5
5
5
5
5
5
5
5
5
5
5
5
5
5
5
5
5
5
POINT_DATA 296
SCALARS concentrations float 4
LOOKUP_TABLE default
0 0.945648 0.0965655 58.8184
0 0.94589 0.100971 43.6958
0 0.94557 0.0952656 11.8431
0 0.945618 0.0989046 48.4652
0 0.945595 0.0919087 5.68893
0 0.946241 0.104547 47.2254
0 0.946263 0.0987064 110.54
0 0.945723 0.0919606 3.99166
0 0.94599 0.0922456 5.91203
0 0.946269 0.105343 155.382
0 0.946029 0.104528 50.74
0 0.945614 0.102864 34.1452
0 0.945843 0.0963705 9.80767
0 0.945596 0.0919566 5.47502
0 0.94561 0.0921618 10.2376
0 0.945604 0.0912774 1.61906
0 0.945649 0.0913079 0.694348
0 0.946149 0.092122 9.08776
0 0.946176 0.0921778 13.7257
0 0.945772 0.0912667 1.5403
0 0.945911 0.0912597 2.39758
0 0.945964 0.0983051 8.55754
0 0.945852 0.101458 67.6966
0 0.946093 0.0928504 15.3003
0 0.945952 0.0927739 7.52329
0 0.945715 0.0922516 11.5356
0 0.945934 0.0960355 68.9213
0 0.945866 0.0918703 6.64804
0 0.946072 0.0985602 121.259
0 0.945616 0.0913207 3.46466
0 0.945669 0.0913158 3.83525
0 0.945641 0.0911467 2.06374
0 0.945739 0.0974104 70.5127
0 0.945657 0.091095 1.0628
0 0.9457 0.0910964 0.787187
0 0.945998 0.0914359 4.78672
0 0.946002 0.0915816 5.98344
0 0.945769 0.0910549 1.48359
0 0.945851 0.0912027 2.64485
0 0.945882 0.092112 4.16013
0 0.945769 0.092459 11.1975
0 0.945947 0.0915148 4.30304
0 0.945861 0.0913384 3.28199
0 0.945632 0.106756 44.5315
0 0.945761 0.0913338 3.58589
0 0.945962 0.0918435 4.28481
0 0.945857 0.0912234 1.6622
0 0.946026 0.0988731 7.31131
0 0.946027 0.0920076 1.75021
0 0.945848 0.10122 40.4562
0 0.945673 0.0911306 2.43575
0 0.945714 0.0911426 2.43413
0 0.945691 0.0910034 1.19177
0 0.945692 0.0928578 15.4758
0 0.94557 0.092503 13.2897
0 0.945716 0.0909375 0.343735
0 0.945869 0.0913137 3.39401
0 0.945883 0.0913142 3.52115
0 0.945777 0.0910886 1.39546
0 0.945788 0.0912222 2.07078
0 0.945721 0.0914389 4.86851
0 0.945836 0.0911657 2.55565
0 0.945794 0.0910422 1.37338
0 0.945414 0.100906 5.97368
0 0.945773 0.0910364 0.994353
0 0.945918 0.0911968 1.20619
0 0.945828 0.0909932 0.510281
0 0.94593 0.092458 4.63075
0 0.945923 0.0913713 2.62224
0 0.945869 0.103793 34.6868
0 0.945851 0.0929659 10.7092
0 0.945959 0.103003 55.6921
0 0.945716 0.0909733 0.758426
0 0.945728 0.0910212 1.2415
0 0.945721 0.0910044 0.932741
0 0.945671 0.0915675 5.41292
0 0.945489 0.0918159 2.15486
0 0.945641 0.0914769 4.32777
0 0.945739 0.0909589 0.119199
0 0.945733 0.0909742 0.612416
0 0.945802 0.0911637 1.77798
0 0.945766 0.0910428 0.562748
0 0.945752 0.0910298 1.10938
0 0.945718 0.0912332 2.80174
0 0.945777 0.0910771 0.889
0 0.945459 0.10017 13.3685
0 0.945779 0.0909812 0.406403
0 0.945846 0.0911058 1.87415
0 0.94589 0.0917529 4.10609
0 0.945861 0.0913518 3.35219
0 0.945917 0.0930055 10.3246
0 0.945874 0.0919169 5.85038
0 0.945714 0.104495 39.6755
0 0.945836 0.0930005 13.5249
0 0.945731 0.0909699 0.495895
0 0.945748 0.0909828 0.32216
0 0.945738 0.0909725 0.311549
0 0.945772 0.0910227 0.392332
0 0.945738 0.101424 7.34348
0 0.945709 0.0920139 2.34386
0 0.945716 0.0912703 2.80638
0 0.945699 0.0913448 1.29163
0 0.945728 0.0912454 2.31125
0 0.945743 0.0909595 0.185454
0 0.945747 0.0909895 0.187312
0 0.945773 0.091078 0.784304
0 0.94576 0.09103 0.391349
0 0.945752 0.0910457 1.01521
0 0.945766 0.0910539 0.938307
0 0.945887 0.102251 11.3516
0 0.945804 0.0910912 1.66457
0 0.94584 0.0914567 3.5868
0 0.945847 0.0918432 6.36166
0 0.945832 0.0915439 3.88325
0 0.945717 0.0929655 13.0676
0 0.945787 0.0916718 5.15569
0 0.945799 0.0929089 13.1072
0 0.945747 0.0909731 0.231135
0 0.945751 0.0909762 0.0445491
0 0.945744 0.0909612 0.258308
0 0.945752 0.0909777 0.231907
0 0.945777 0.0910159 1.34135
0 0.945761 0.0909997 0.686582
0 0.945751 0.090972 0.472241
0 0.945905 0.102251 71.9367
0 0.945939 0.0917483 0.599689
0 0.945824 0.0913116 1.3538
0 0.945768 0.0910697 1.28286
0 0.945787 0.0911699 1.5385
0 0.945756 0.0909963 0.250979
0 0.945765 0.0910288 0.563774
0 0.94577 0.0910003 0.654201
0 0.94577 0.0910201 0.860535
0 0.945915 0.0914932 0.92238
0 0.945964 0.0985478 75.6688
0 0.945792 0.0911249 2.19762
0 0.945795 0.0912673 2.66558
0 0.945753 0.0916283 4.14113
0 0.945765 0.0911631 1.275
0 0.945877 0.0923319 5.74008
0 0.945768 0.0914523 4.1624
0 0.945761 0.0910692 2.02758
0 0.945761 0.0909863 0.240341
0 0.945756 0.090973 0.29878
0 0.945752 0.0909763 0.692849
0 0.945756 0.0910123 1.35787
0 0.945746 0.0910177 1.39277
0 0.945753 0.0909719 0.727834
0 0.945759 0.0909648 0.523536
0 0.945803 0.0928471 11.3581
0 0.94595 0.10557 10.4045
0 0.945799 0.0909805 0.598149
0 0.945913 0.0911735 0.597148
0 0.945861 0.0911026 1.20262
0 0.945819 0.0910292 0.985989
0 0.945939 0.0912335 2.69551
0 0.94577 0.0909979 0.458394
0 0.945783 0.0909885 0.629936
0 0.945773 0.0909836 0.326556
0 0.945812 0.0909822 0.489345
0 0.945881 0.0916813 8.39361
0 0.945851 0.0971048 17.4719
0 0.945755 0.0910554 1.56472
0 0.945741 0.0911255 1.34591
0 0.945747 0.0914886 5.75455
0 0.945722 0.0912533 3.18899
0 0.945694 0.0915413 4.30143
0 0.945733 0.0910122 1.24028
0 0.945769 0.0909624 0.312591
0 0.945749 0.0909722 0.89075
0 0.945733 0.0909966 0.921529
0 0.945755 0.09097 0.826007
0 0.945769 0.0909644 0.613042
0 0.945701 0.0925261 9.08634
0 0.94577 0.104503 67.9531
0 0.945848 0.0909945 0.42498
0 0.945919 0.0910189 0.840367
0 0.945878 0.0909954 0.739061
0 0.945938 0.0914271 5.55908
0 0.945946 0.0911197 2.19697
0 0.945787 0.0909785 0.475897
0 0.945804 0.0909816 0.417015
0 0.945787 0.0909638 0.338368
0 0.945833 0.0909909 0.557911
0 0.945872 0.0909821 0.501574
0 0.945906 0.0914782 5.95131
0 0.945839 0.0922101 12.523
0 0.94582 0.0984831 97.662
0 0.945712 0.0910753 1.43732
0 0.945687 0.0912192 3.28094
0 0.945634 0.0914778 4.69575
0 0.945649 0.0912283 3.17356
0 0.945705 0.0909891 0.813514
0 0.94572 0.0910093 1.23397
0 0.945789 0.0909662 0.514142
0 0.945743 0.0909913 1.06157
0 0.945757 0.09099 0.957308
0 0.945786 0.0909877 0.891568
0 0.945769 0.0909919 0.984446
0 0.945586 0.0914154 3.98026
0 0.945678 0.0918672 9.49303
0 0.945737 0.0995618 110.914
0 0.945913 0.0909729 0.41712
0 0.945949 0.0911503 2.67895
0 0.945953 0.0912086 3.66462
0 0.945902 0.0910012 0.596445
0 0.945815 0.0909844 0.691021
0 0.945856 0.0910125 0.900749
0 0.945902 0.0915013 5.69814
0 0.945715 0.0924764 9.39477
0 0.945683 0.0980606 83.1628
0 0.945668 0.0910192 0.863009
0 0.945618 0.091103 1.69405
0 0.945585 0.0911478 1.31757
0 0.945685 0.091016 1.29103
0 0.945723 0.0910228 1.55354
0 0.945814 0.0909982 0.966844
0 0.945807 0.0910211 1.38273
0 0.945753 0.0910157 1.33284
0 0.945781 0.0910165 1.30894
0 0.945543 0.0913564 4.39842
0 0.945597 0.0920991 13.9046
0 0.945699 0.104928 102.918
0 0.945938 0.0910318 0.654308
0 0.94596 0.0911009 2.21484
0 0.945902 0.0910317 0.964733
0 0.945851 0.0910321 1.21437
0 0.945987 0.0910892 1.04071
0 0.94595 0.0913489 3.64273
0 0.945782 0.0925571 6.47553
0 0.945553 0.101593 50.9891
0 0.945644 0.0910102 1.3987
0 0.945592 0.0911407 1.75697
0 0.945689 0.0910428 1.80739
0 0.945731 0.0910439 1.88795
0 0.945845 0.0910416 1.63237
0 0.945822 0.0910564 1.96102
0 0.945759 0.0910424 1.79168
0 0.945791 0.0910451 1.79503
0 0.945599 0.0911998 2.65238
0 0.945532 0.0913487 3.03658
0 0.94552 0.0918218 8.46879
0 0.945569 0.100451 110.835
0 0.945945 0.0910239 0.971068
0 0.945894 0.0910688 1.65192
0 0.946 0.0910743 1.56736
0 0.946041 0.0914949 2.84474
0 0.945966 0.0925535 9.55993
0 0.945841 0.10659 130.063
0 0.945663 0.0910529 2.1361
0 0.94572 0.0910346 1.77416
0 0.945871 0.0910834 2.19381
0 0.945827 0.0910535 1.96283
0 0.94577 0.0910309 1.53345
0 0.945654 0.0911303 2.54239
0 0.94558 0.0913266 3.09242
0 0.9455 0.0915923 7.64439
0 0.945492 0.096979 60.0899
0 0.945934 0.0910814 2.27961
0 0.946018 0.0911778 2.62289
0 0.946086 0.0912756 1.9399
0 0.946131 0.0922331 3.47642
0 0.94602 0.105415 58.6079
0 0.945724 0.091018 1.58313
0 0.945886 0.0910916 2.20127
0 0.945804 0.0910218 1.22061
0 0.945695 0.0910839 1.79085
0 0.94566 0.0913076 3.29951
0 0.945619 0.0919867 10.4539
0 0.945518 0.100972 89.5715
0 0.945981 0.0912186 3.08513
0 0.946083 0.0913427 2.93145
0 0.946185 0.0922523 1.78605
0 0.94627 0.105678 4.81253
0 0.945947 0.0912404 2.75254
0 0.945747 0.0909878 0.741933
0 0.945873 0.09114 1.71463
0 0.945799 0.0910563 0.541655
0 0.945708 0.091187 2.77667
0 0.945758 0.0918423 7.01135
0 0.945755 0.102092 88.0594
0 0.946035 0.0913482 3.08164
0 0.946063 0.0918386 4.37607
0 0.946123 0.101919 56.4923
0 0.94596 0.0914847 3.56987
0 0.945736 0.0911742 1.71837
0 0.94583 0.0912861 1.85274
0 0.945689 0.0917679 7.01401
0 0.945774 0.0974609 54.8854
0 0.946068 0.0921836 7.9411
0 0.946056 0.101131 47.5778
0 0.945918 0.0922128 10.521
0 0.945667 0.0919928 10.0093
0 0.945581 0.100886 161.497
0 0.946079 0.0999544 121.452
0 0.945724 0.0998787 41.0307
VECTORS fa_u float
0.00662072 0.00273785 -0
0.00550866 0.00318059 -0
0.0054679 0.00148131 -0
0.00726922 0.000995383 -0
1e-08 0 0
0.0057783 0.00444406 -0
0.00353987 0.00350292 -0
1e-08 0 0
1e-08 0 0
0.00460786 0.00587202 -0
0.0037606 0.00646005 -0
0.00592657 3.67508e-05 -0
0.0069413 -0.000851741 0
1e-08 0 0
1e-08 0 0
1e-08 0 0
1e-08 0 0
1e-08 0 0
1e-08 0 0
1e-08 0 0
1e-08 0 0
0.00247101 0.0059426 -0
0.00203772 0.00770806 -0
1e-08 0 0
1e-08 0 0
1e-08 0 0
0.00733337 -0.00193825 0
1e-08 0 0
0.00738542 -0.00312067 0
1e-08 0 0
1e-08 0 0
1e-08 0 0
0.000743265 0.00588865 -0
1e-08 0 0
1e-08 0 0
1e-08 0 0
1e-08 0 0
1e-08 0 0
1e-08 0 0
1e-08 0 0
1e-08 0 0
1e-08 0 0
1e-08 0 0
-3.80259e-05 0.0074777 -0
1e-08 0 0
1e-08 0 0
1e-08 0 0
0.00544106 -0.00322501 0
1e-08 0 0
0.00502518 -0.00391746 0
1e-08 0 0
1e-08 0 0
1e-08 0 0
1e-08 0 0
1e-08 0 0
1e-08 0 0
1e-08 0 0
1e-08 0 0
1e-08 0 0
1e-08 0 0
1e-08 0 0
1e-08 0 0
1e-08 0 0
-0.0009008 0.00645147 0
1e-08 0 0
1e-08 0 0
1e-08 0 0
1e-08 0 0
1e-08 0 0
0.00395135 -0.00395472 0
1e-08 0 0
0.0036164 -0.00461944 0
1e-08 0 0
1e-08 0 0
1e-08 0 0
1e-08 0 0
1e-08 0 0
1e-08 0 0
1e-08 0 0
1e-08 0 0
1e-08 0 0
1e-08 0 0
1e-08 0 0
1e-08 0 0
1e-08 0 0
-0.00133022 0.0049926 0
1e-08 0 0
1e-08 0 0
1e-08 0 0
1e-08 0 0
1e-08 0 0
1e-08 0 0
0.0038973 -0.00660388 0
1e-08 0 0
1e-08 0 0
1e-08 0 0
1e-08 0 0
1e-08 0 0
0.00328345 -0.00801894 0
1e-08 0 0
1e-08 0 0
1e-08 0 0
1e-08 0 0
1e-08 0 0
1e-08 0 0
1e-08 0 0
1e-08 0 0
1e-08 0 0
1e-08 0 0
-0.00290923 0.00712284 0
1e-08 0 0
1e-08 0 0
1e-08 0 0
1e-08 0 0
1e-08 0 0
1e-08 0 0
1e-08 0 0
1e-08 0 0
1e-08 0 0
1e-08 0 0
1e-08 0 0
1e-08 0 0
1e-08 0 0
1e-08 0 0
0.0013902 -0.00533393 0
1e-08 0 0
1e-08 0 0
1e-08 0 0
1e-08 0 0
1e-08 0 0
1e-08 0 0
1e-08 0 0
1e-08 0 0
1e-08 0 0
-0.00373388 0.00641929 0
1e-08 0 0
1e-08 0 0
1e-08 0 0
1e-08 0 0
1e-08 0 0
1e-08 0 0
1e-08 0 0
1e-08 0 0
1e-08 0 0
1e-08 0 0
1e-08 0 0
1e-08 0 0
1e-08 0 0
1e-08 0 0
1e-08 0 0
0.000801901 -0.00595493 0
1e-08 0 0
1e-08 0 0
1e-08 0 0
1e-08 0 0
1e-08 0 0
1e-08 0 0
1e-08 0 0
1e-08 0 0
1e-08 0 0
1e-08 0 0
-0.00365674 0.00473606 0
1e-08 0 0
1e-08 0 0
1e-08 0 0
1e-08 0 0
1e-08 0 0
1e-08 0 0
1e-08 0 0
1e-08 0 0
1e-08 0 0
1e-08 0 0
1e-08 0 0
1e-08 0 0
4.28056e-05 -0.0066747 0
1e-08 0 0
1e-08 0 0
1e-08 0 0
1e-08 0 0
1e-08 0 0
1e-08 0 0
1e-08 0 0
1e-08 0 0
1e-08 0 0
1e-08 0 0
1e-08 0 0
1e-08 0 0
-0.00415409 0.00419466 0
1e-08 0 0
1e-08 0 0
1e-08 0 0
1e-08 0 0
1e-08 0 0
1e-08 0 0
1e-08 0 0
1e-08 0 0
1e-08 0 0
1e-08 0 0
1e-08 0 0
1e-08 0 0
1e-08 0 0
-0.00090255 -0.00709461 0
1e-08 0 0
1e-08 0 0
1e-08 0 0
1e-08 0 0
1e-08 0 0
1e-08 0 0
1e-08 0 0
1e-08 0 0
-0.00509491 0.00399215 0
1e-08 0 0
1e-08 0 0
1e-08 0 0
1e-08 0 0
1e-08 0 0
1e-08 0 0
1e-08 0 0
1e-08 0 0
1e-08 0 0
1e-08 0 0
1e-08 0 0
-0.00183063 -0.00684113 0
1e-08 0 0
1e-08 0 0
1e-08 0 0
1e-08 0 0
1e-08 0 0
1e-08 0 0
1e-08 0 0
-0.00580635 0.00343879 0
1e-08 0 0
1e-08 0 0
1e-08 0 0
1e-08 0 0
1e-08 0 0
1e-08 0 0
1e-08 0 0
1e-08 0 0
1e-08 0 0
1e-08 0 0
1e-08 0 0
-0.00236036 -0.00571502 0
1e-08 0 0
1e-08 0 0
1e-08 0 0
1e-08 0 0
1e-08 0 0
-0.00903369 0.00371289 0
1e-08 0 0
1e-08 0 0
1e-08 0 0
1e-08 0 0
1e-08 0 0
1e-08 0 0
1e-08 0 0
1e-08 0 0
-0.00390154 -0.00673709 0
1e-08 0 0
1e-08 0 0
1e-08 0 0
1e-08 0 0
-0.00458058 0.00119868 0
1e-08 0 0
1e-08 0 0
1e-08 0 0
1e-08 0 0
1e-08 0 0
1e-08 0 0
-0.0046254 -0.00590139 0
1e-08 0 0
1e-08 0 0
1e-08 0 0
-0.00757113 0.00099855 0
1e-08 0 0
1e-08 0 0
1e-08 0 0
1e-08 0 0
1e-08 0 0
1e-08 0 0
-0.00319961 -0.00318601 0
1e-08 0 0
1e-08 0 0
-0.00759397 -6.36431e-05 0
1e-08 0 0
1e-08 0 0
1e-08 0 0
1e-08 0 0
-0.00691574 -0.00531254 0
1e-08 0 0
-0.00515033 -0.000703556 0
1e-08 0 0
1e-08 0 0
-0.0046111 -0.00265263 0
-0.00630995 -0.00166291 0
-0.0072449 -0.00300306 0
