# vtk DataFile Version 2.0
CellBP Time: 11.36
ASCII
DATASET UNSTRUCTURED_GRID
POINTS 296 double
-8.9263 -3.66218 0
-8.35783 -4.80169 0
-9.32355 -2.45201 0
-9.5917 -1.21491 0
-8.25856 -2.7749 0
-7.65839 -5.86818 0
-6.80918 -6.81816 0
-7.81864 -3.81944 0
-7.24843 -4.80722 0
-5.86774 -7.66787 0
-4.81743 -8.37399 0
-9.67546 0.0468292 0
-9.60991 1.31719 0
-8.56606 -1.65789 0
-8.70241 -0.521006 0
-7.49388 -1.96921 0
-7.12729 -2.85832 0
-6.56144 -5.71951 0
-5.76449 -6.53911 0
-6.69579 -3.83085 0
-6.13858 -4.61721 0
-3.6799 -8.94421 0
-2.47027 -9.35313 0
-4.86721 -7.25215 0
-3.89125 -7.83136 0
-8.71625 0.634226 0
-9.3675 2.57305 0
-8.55417 1.75329 0
-8.95412 3.7781 0
-7.65536 -0.910582 0
-7.71192 0.0834489 0
-6.86714 -1.29186 0
-1.21558 -9.59775 0
-6.36333 -2.1203 0
-6.23979 -3.0113 0
-5.471 -5.41703 0
-4.74592 -6.05909 0
-5.58849 -3.70881 0
-5.20154 -4.50694 0
-2.84876 -8.30366 0
-1.76334 -8.5744 0
-3.89492 -6.66858 0
-3.03836 -7.09903 0
0.0524493 -9.67558 0
-7.62905 1.1311 0
-8.27964 2.89396 0
-7.48108 2.08679 0
-8.37382 4.91012 0
-7.81153 3.94197 0
-7.65678 5.96325 0
-6.70118 -0.386942 0
-6.87941 0.550045 0
-5.71299 -0.990959 0
-0.584507 -8.73613 0
0.555519 -8.68715 0
-5.24822 -2.44977 0
-4.43653 -5.0406 0
-3.86025 -5.72052 0
-4.39305 -3.76506 0
-2.04679 -7.50295 0
-1.12673 -7.72011 0
-2.96675 -6.04877 0
-2.29294 -6.5666 0
1.31404 -9.58198 0
-6.62192 1.4056 0
-7.10038 3.08416 0
-6.59307 2.34698 0
-7.22291 4.93839 0
-6.65025 3.95874 0
-6.81837 6.91498 0
-6.5067 5.83155 0
-5.86339 7.75524 0
-4.42218 -1.17397 0
-5.762 0.504969 0
-4.62481 -0.0169658 0
0.00171271 -7.7719 0
1.7116 -8.54964 0
0.928718 -7.67899 0
-4.00991 -2.38583 0
-3.47435 -1.38682 0
-3.26538 -4.76245 0
-3.24732 -3.24286 0
-1.37183 -6.61538 0
-0.512353 -6.95593 0
-1.96185 -5.49336 0
2.55899 -9.32656 0
-5.45756 2.01905 0
-6.03362 3.03761 0
-6.04243 4.81418 0
-5.70189 3.94333 0
-5.70189 6.64301 0
-5.39485 5.55375 0
-4.81646 8.47729 0
-4.78689 7.32042 0
-3.48658 -0.423112 0
-4.41604 1.23958 0
-3.69012 0.588838 0
-4.03005 2.3091 0
-3.67937 9.04121 0
2.81886 -8.22942 0
0.402163 -6.71874 0
1.98589 -7.4325 0
1.27682 -6.82054 0
-2.43879 -0.869103 0
-2.82904 -2.12051 0
-2.28267 -4.06776 0
-2.31597 -2.95539 0
-0.445842 -5.80439 0
-1.213 -4.46772 0
3.76797 -8.93008 0
-4.74477 3.35918 0
-5.03491 4.53967 0
-4.5964 6.2058 0
-4.49039 5.29547 0
-3.80852 7.91504 0
-3.78266 6.76095 0
-2.75402 8.33488 0
-1.64654 -0.133609 0
-1.44686 -0.886495 0
-2.48397 0.511125 0
-3.23512 1.44073 0
-3.21431 3.29374 0
-2.89355 2.36647 0
-1.35487 0.631263 0
-2.47015 9.43863 0
3.87914 -7.78829 0
2.91384 -7.05714 0
0.93341 -5.75583 0
2.03631 -6.33082 0
-1.67693 -1.98536 0
-1.42655 -3.25837 0
0.0863751 -4.70579 0
-0.559751 -3.67264 0
4.87043 -7.22514 0
4.9047 -8.36413 0
-3.74123 4.50527 0
-3.69548 5.68589 0
-2.85342 7.20474 0
-2.97723 6.2814 0
-1.64457 8.65075 0
-1.91627 7.53943 0
-2.32294 4.02156 0
-0.728438 -1.32369 0
-0.83635 -0.253892 0
-1.93397 1.68394 0
-2.1169 2.86645 0
-1.30374 3.52829 0
-0.871948 1.35472 0
-0.284669 0.459301 0
-0.527674 8.79642 0
-1.22073 9.69619 0
1.09713 -4.52904 0
3.84825 -6.61485 0
2.9404 -6.00911 0
2.08494 -5.35732 0
4.72233 -6.11619 0
-0.554835 -2.46751 0
0.493396 -3.44201 0
0.0543103 -1.60748 0
1.46662 -3.64935 0
5.80289 -6.53171 0
5.9594 -7.65185 0
-2.45328 5.29597 0
-2.10504 6.46355 0
-0.891377 7.72991 0
-1.25341 6.85992 0
0.0884691 7.81359 0
-1.13831 4.46318 0
0.148884 -0.614683 0
-0.801792 2.48911 0
-0.337321 3.58827 0
0.0581678 1.51458 0
0.736726 0.474514 0
0.640323 8.80715 0
0.0470097 9.77796 0
2.35142 -4.23588 0
3.80588 -5.55898 0
2.95918 -5.14301 0
5.51391 -5.42041 0
4.63284 -5.20531 0
0.630238 -2.28853 0
1.2478 -2.93289 0
0.755941 -1.38913 0
2.14535 -3.10947 0
2.96461 -3.44037 0
6.09776 -4.73572 0
6.59406 -5.70609 0
6.91991 -6.81261 0
-1.00789 5.76722 0
-0.362783 6.81811 0
1.11462 7.71069 0
0.557706 7.02 0
-0.00371087 4.69551 0
0.598925 3.8101 0
1.33477 -0.641339 0
0.531851 2.64517 0
0.95897 1.57483 0
1.90326 0.212651 0
1.60702 1.06386 0
2.11637 7.52898 0
1.78714 8.64996 0
1.31869 9.7004 0
3.77961 -4.29536 0
5.06123 -4.38642 0
5.79195 -3.88698 0
3.74975 -3.16715 0
1.80489 -1.87908 0
2.99658 -2.55514 0
6.72901 -3.90958 0
7.32311 -4.85247 0
7.7632 -5.86322 0
0.481982 5.835 0
1.42 6.68991 0
2.36008 6.6206 0
1.20027 4.52933 0
1.47854 3.381 0
2.4248 -0.69038 0
2.81488 0.142702 0
1.77933 2.15724 0
2.60178 1.14685 0
3.0538 7.1188 0
2.88871 8.31878 0
2.57364 9.45818 0
4.86601 -3.28719 0
6.07012 -3.07436 0
4.14213 -2.25782 0
3.22519 -1.49661 0
6.68355 -2.29564 0
7.18114 -3.02093 0
7.9103 -3.88719 0
8.4818 -4.82031 0
2.01179 5.56011 0
3.05797 6.10398 0
2.3522 4.10016 0
2.40875 3.0442 0
3.5056 -0.45697 0
3.59651 0.614139 0
2.9464 2.2763 0
3.52325 1.51797 0
3.9692 5.84627 0
3.95097 6.74008 0
3.95139 7.88412 0
3.78289 9.04785 0
5.52846 -1.90024 0
4.47979 -1.12097 0
6.6628 -1.3247 0
7.53875 -2.02029 0
8.33999 -2.84296 0
9.04751 -3.68257 0
3.38386 4.83504 0
3.31158 3.35943 0
4.65934 0.132472 0
4.48126 1.29909 0
4.02759 2.42242 0
4.51312 5.10039 0
4.79333 6.13641 0
4.94045 7.32387 0
4.92451 8.48475 0
5.83482 -0.433379 0
6.95055 -0.487287 0
7.70179 -1.07327 0
8.62336 -1.73061 0
9.45213 -2.47079 0
4.49946 3.7884 0
5.75865 1.08193 0
5.30909 2.50384 0
5.30769 4.56739 0
5.54546 5.46813 0
5.83866 6.61411 0
5.96994 7.77041 0
6.77765 0.450898 0
7.78534 -0.0276433 0
8.79334 -0.574653 0
9.70003 -1.2159 0
6.88315 1.32523 0
5.6457 3.73148 0
6.46145 2.16299 0
6.29625 3.04389 0
6.20875 4.6308 0
6.61598 5.77911 0
6.91958 6.92599 0
7.70737 0.951884 0
8.78171 0.566657 0
9.77852 0.0540185 0
7.53002 1.97382 0
6.73174 3.84797 0
7.17572 2.90226 0
7.29158 4.83112 0
7.76376 5.96996 0
8.63488 1.70468 0
9.68145 1.31603 0
8.32342 2.79908 0
7.89096 3.86924 0
8.46334 4.90666 0
9.43718 2.5642 0
9.03331 3.77048 0
CELLS 542 2168
3 2 0 4
3 0 1 7
3 4 0 7
3 1 5 8
3 7 1 8
3 3 2 13
3 13 2 4
3 11 3 14
3 14 3 13
3 13 4 15
3 4 7 16
3 15 4 16
3 5 6 17
3 8 5 17
3 6 9 18
3 17 6 18
3 7 8 19
3 16 7 19
3 8 17 20
3 19 8 20
3 9 10 23
3 18 9 23
3 10 21 24
3 23 10 24
3 12 11 25
3 25 11 14
3 26 12 27
3 27 12 25
3 14 13 29
3 29 13 15
3 25 14 30
3 30 14 29
3 29 15 31
3 15 16 33
3 31 15 33
3 16 19 34
3 33 16 34
3 17 18 35
3 20 17 35
3 18 23 36
3 35 18 36
3 19 20 37
3 34 19 37
3 20 35 38
3 37 20 38
3 21 22 39
3 24 21 39
3 22 32 40
3 39 22 40
3 23 24 41
3 36 23 41
3 24 39 42
3 41 24 42
3 27 25 44
3 44 25 30
3 28 26 45
3 45 26 27
3 45 27 46
3 46 27 44
3 47 28 48
3 48 28 45
3 30 29 50
3 50 29 31
3 44 30 51
3 51 30 50
3 50 31 52
3 31 33 52
3 32 43 53
3 40 32 53
3 53 43 54
3 33 34 55
3 34 37 55
3 33 55 52
3 35 36 56
3 38 35 56
3 36 41 57
3 56 36 57
3 37 38 58
3 38 56 58
3 37 58 55
3 39 40 59
3 42 39 59
3 40 53 60
3 59 40 60
3 41 42 61
3 57 41 61
3 42 59 62
3 61 42 62
3 43 63 54
3 46 44 64
3 64 44 51
3 48 45 65
3 65 45 46
3 65 46 66
3 66 46 64
3 49 47 67
3 67 47 48
3 67 48 68
3 68 48 65
3 69 49 70
3 70 49 67
3 52 55 72
3 64 51 73
3 51 50 73
3 50 52 73
3 73 52 74
3 74 52 72
3 53 54 75
3 60 53 75
3 54 63 76
3 54 76 77
3 75 54 77
3 55 58 78
3 72 55 78
3 72 78 79
3 56 57 80
3 57 61 80
3 56 80 58
3 58 80 81
3 78 58 81
3 59 60 82
3 62 59 82
3 60 75 83
3 82 60 83
3 61 62 84
3 62 82 84
3 61 84 80
3 63 85 76
3 66 64 86
3 64 73 86
3 68 65 87
3 87 65 66
3 87 66 86
3 70 67 88
3 88 67 68
3 88 68 89
3 89 68 87
3 71 69 90
3 90 69 70
3 90 70 91
3 91 70 88
3 92 71 93
3 93 71 90
3 74 72 94
3 94 72 79
3 86 73 95
3 95 73 74
3 95 74 96
3 96 74 94
3 97 86 95
3 76 85 99
3 75 77 100
3 83 75 100
3 76 99 101
3 77 76 101
3 77 101 102
3 100 77 102
3 94 79 103
3 78 81 104
3 79 78 104
3 79 104 103
3 80 84 105
3 81 80 105
3 81 105 106
3 104 81 106
3 82 83 107
3 83 100 107
3 82 107 84
3 84 107 108
3 105 84 108
3 85 109 99
3 89 87 110
3 87 86 110
3 110 86 97
3 91 88 111
3 111 88 89
3 111 89 110
3 93 90 112
3 112 90 91
3 112 91 113
3 113 91 111
3 98 92 114
3 114 92 93
3 114 93 115
3 115 93 112
3 116 98 114
3 117 103 118
3 96 94 119
3 94 103 119
3 119 103 117
3 97 95 120
3 120 95 96
3 120 96 119
3 121 110 97
3 121 97 122
3 122 97 120
3 123 119 117
3 124 98 116
3 99 109 125
3 99 125 126
3 101 99 126
3 100 102 127
3 100 127 107
3 101 126 128
3 102 101 128
3 102 128 127
3 104 106 129
3 104 129 103
3 103 129 118
3 105 108 130
3 106 105 130
3 106 130 129
3 107 127 131
3 108 107 131
3 108 131 132
3 108 132 130
3 109 134 125
3 125 134 133
3 113 111 135
3 111 110 135
3 135 110 121
3 115 112 136
3 136 112 113
3 136 113 135
3 116 114 137
3 137 114 115
3 137 115 138
3 138 115 136
3 139 124 116
3 139 116 140
3 140 116 137
3 141 135 121
3 118 129 142
3 118 142 143
3 117 118 143
3 123 117 143
3 122 120 144
3 120 119 144
3 144 119 123
3 141 121 145
3 145 121 122
3 145 122 144
3 146 141 145
3 147 144 123
3 147 123 148
3 143 148 123
3 150 124 139
3 149 150 139
3 131 127 151
3 125 133 152
3 126 125 152
3 126 152 153
3 128 126 153
3 128 153 154
3 128 154 127
3 127 154 151
3 152 133 155
3 130 132 156
3 130 156 129
3 129 156 142
3 131 151 157
3 132 131 157
3 132 157 156
3 156 158 142
3 157 151 159
3 133 160 155
3 134 161 133
3 133 161 160
3 138 136 162
3 136 135 162
3 162 135 141
3 140 137 163
3 163 137 138
3 163 138 162
3 149 139 164
3 164 139 140
3 164 140 165
3 165 140 163
3 166 149 164
3 167 162 141
3 167 141 146
3 142 158 168
3 143 142 168
3 143 168 148
3 146 145 169
3 145 144 169
3 169 144 147
3 170 167 146
3 170 146 169
3 171 169 147
3 171 147 148
3 171 148 172
3 168 172 148
3 173 149 166
3 174 150 149
3 173 174 149
3 154 175 151
3 151 175 159
3 152 155 176
3 153 152 176
3 153 176 177
3 153 177 154
3 154 177 175
3 155 160 178
3 155 178 179
3 176 155 179
3 156 157 180
3 156 180 158
3 157 159 181
3 157 181 180
3 158 180 182
3 158 182 168
3 159 175 183
3 159 183 181
3 175 184 183
3 160 186 178
3 178 186 185
3 161 187 160
3 160 187 186
3 165 163 188
3 163 162 188
3 188 162 167
3 166 164 189
3 189 164 165
3 189 165 188
3 190 173 166
3 190 166 191
3 191 166 189
3 192 188 167
3 192 167 170
3 193 192 170
3 182 194 168
3 194 172 168
3 193 170 195
3 170 169 195
3 195 169 171
3 196 195 171
3 196 171 172
3 194 197 172
3 197 198 172
3 198 196 172
3 200 173 190
3 199 200 190
3 201 174 173
3 200 201 173
3 176 179 202
3 177 176 202
3 177 202 175
3 175 202 184
3 178 185 203
3 178 203 179
3 179 203 202
3 203 185 204
3 202 205 184
3 183 206 181
3 180 181 206
3 180 206 182
3 182 206 194
3 183 184 207
3 205 207 184
3 183 207 206
3 185 208 204
3 186 209 185
3 185 209 208
3 187 210 186
3 186 210 209
3 191 189 211
3 189 188 211
3 211 188 192
3 199 190 212
3 212 190 191
3 212 191 211
3 213 199 212
3 214 211 192
3 214 192 193
3 215 214 193
3 215 193 195
3 206 216 194
3 216 197 194
3 216 217 197
3 215 195 218
3 218 195 196
3 198 218 196
3 217 219 197
3 219 218 198
3 197 219 198
3 220 199 213
3 221 200 199
3 220 221 199
3 222 201 200
3 221 222 200
3 203 204 223
3 203 223 202
3 202 223 205
3 204 208 224
3 204 224 223
3 205 223 225
3 205 225 207
3 207 225 226
3 207 226 206
3 226 216 206
3 208 228 224
3 224 228 227
3 209 229 208
3 229 228 208
3 210 230 209
3 209 230 229
3 213 212 231
3 212 211 231
3 231 211 214
3 232 220 213
3 232 213 231
3 233 231 214
3 233 214 215
3 234 233 215
3 234 215 218
3 226 235 216
3 235 217 216
3 235 236 217
3 217 236 219
3 237 234 218
3 237 218 219
3 236 238 219
3 238 237 219
3 240 220 232
3 239 240 232
3 241 221 220
3 240 241 220
3 242 222 221
3 241 242 221
3 224 227 243
3 224 243 223
3 223 243 225
3 225 243 244
3 225 244 226
3 226 244 235
3 227 245 243
3 228 246 227
3 227 246 245
3 229 247 228
3 228 247 246
3 230 248 229
3 229 248 247
3 239 232 249
3 232 231 249
3 249 231 233
3 250 249 233
3 250 233 234
3 237 250 234
3 244 251 235
3 235 251 236
3 251 252 236
3 236 252 238
3 252 253 238
3 253 250 237
3 253 237 238
3 254 239 249
3 255 240 239
3 254 255 239
3 256 241 240
3 255 256 240
3 257 242 241
3 256 257 241
3 245 258 243
3 243 258 244
3 244 258 251
3 245 259 258
3 246 260 245
3 245 260 259
3 247 261 246
3 246 261 260
3 248 262 247
3 247 262 261
3 254 249 263
3 263 249 250
3 253 263 250
3 258 264 251
3 251 264 252
3 264 265 252
3 265 263 253
3 252 265 253
3 266 254 263
3 267 255 254
3 266 267 254
3 268 256 255
3 267 268 255
3 269 257 256
3 268 269 256
3 259 270 258
3 270 264 258
3 260 271 259
3 259 271 270
3 261 272 260
3 260 272 271
3 262 273 261
3 273 272 261
3 270 274 264
3 275 266 263
3 275 263 265
3 274 276 264
3 276 265 264
3 276 277 265
3 277 275 265
3 278 267 266
3 275 278 266
3 279 268 267
3 278 279 267
3 280 269 268
3 279 280 268
3 271 281 270
3 270 281 274
3 272 282 271
3 271 282 281
3 273 283 272
3 272 283 282
3 281 284 274
3 274 284 276
3 285 278 275
3 277 285 275
3 284 286 276
3 286 285 277
3 276 286 277
3 287 279 278
3 285 287 278
3 288 280 279
3 287 288 279
3 282 289 281
3 281 289 284
3 283 290 282
3 282 290 289
3 289 291 284
3 284 291 286
3 291 292 286
3 292 287 285
3 286 292 285
3 293 288 287
3 292 293 287
3 290 294 289
3 289 294 291
3 294 295 291
3 295 293 292
3 291 295 292
CELL_TYPES 542
5
5
5
5
5
5
5
5
5
5
5
5
5
5
5
5
5
5
5
5
5
5
5
5
5
5
5
5
5
5
5
5
5
5
5
5
5
5
5
5
5
5
5
5
5
5
5
5
5
5
5
5
5
5
5
5
5
5
5
5
5
5
5
5
5
5
5
5
5
5
5
5
5
5
5
5
5
5
5
5
5
5
5
5
5
5
5
5
5
5
5
5
5
5
5
5
5
5
5
5
5
5
5
5
5
5
5
5
5
5
5
5
5
5
5
5
5
5
5
5
5
5
5
5
5
5
5
5
5
5
5
5
5
5
5
5
5
5
5
5
5
5
5
5
5
5
5
5
5
5
5
5
5
5
5
5
5
5
5
5
5
5
5
5
5
5
5
5
5
5
5
5
5
5
5
5
5
5
5
5
5
5
5
5
5
5
5
5
5
5
5
5
5
5
5
5
5
5
5
5
5
5
5
5
5
5
5
5
5
5
5
5
5
5
5
5
5
5
5
5
5
5
5
5
5
5
5
5
5
5
5
5
5
5
5
5
5
5
5
5
5
5
5
5
5
5
5
5
5
5
5
5
5
5
5
5
5
5
5
5
5
5
5
5
5
5
5
5
5
5
5
5
5
5
5
5
5
5
5
5
5
5
5
5
5
5
5
5
5
5
5
5
5
5
5
5
5
5
5
5
5
5
5
5
5
5
5
5
5
5
5
5
5
5
5
5
5
5
5
5
5
5
5
5
5
5
5
5
5
5
5
5
5
5
5
5
5
5
5
5
5
5
5
5
5
5
5
5
5
5
5
5
5
5
5
5
5
5
5
5
5
5
5
5
5
5
5
5
5
5
5
5
5
5
5
5
5
5
5
5
5
5
5
5
5
5
5
5
5
5
5
5
5
5
5
5
5
5
5
5
5
5
5
5
5
5
5
5
5
5
5
5
5
5
5
5
5
5
5
5
5
5
5
5
5
5
5
5
5
5
5
5
5
5
5
5
5
5
5
5
5
5
5
5
5
5
5
5
5
5
5
5
5
5
5
5
5
5
5
5
5
5
5
5
5
5
5
5
5
5
5
5
5
5
5
5
5
5
5
5
5
5
5
5
5
5
5
5
5
5
5
5
5
5
5
5
5
5
5
5
5
5
5
5
5
5
5
5
5
5
5
5
5
5
5
5
5
5
5
5
5
5
5
5
5
5
5
5
5
5
5
5
5
5
5
5
5
5
5
5
5
5
POINT_DATA 296
SCALARS concentrations float 4
LOOKUP_TABLE default
0 0.945477 0.0977468 19.4607
0 0.945516 0.100509 101.65
0 0.945555 0.099188 76.5816
0 0.945694 0.100927 9.2228
0 0.945484 0.0921513 11.9174
0 0.945443 0.102455 47.2098
0 0.945617 0.0995706 2.36237
0 0.945485 0.0919337 8.63625
0 0.945466 0.0922583 11.0848
0 0.945523 0.110079 147.86
0 0.945412 0.103639 139.077
0 0.945694 0.103439 24.9797
0 0.945801 0.100428 78.5951
0 0.945592 0.0923404 15.8241
0 0.945656 0.0927568 14.7483
0 0.945494 0.0914918 7.1974
0 0.945458 0.0914975 6.6974
0 0.945515 0.0924912 11.8806
0 0.945586 0.0932481 22.4578
0 0.945458 0.0913093 4.60196
0 0.945486 0.0914855 5.85986
0 0.945851 0.103681 82.5625
0 0.946006 0.102949 14.6154
0 0.945477 0.0933479 20.6658
0 0.94562 0.0923732 8.37041
0 0.945691 0.0928954 13.1655
0 0.946082 0.102914 24.7612
0 0.945868 0.0926101 11.08
0 0.946106 0.101593 77.5017
0 0.945547 0.0916463 7.31959
0 0.9456 0.0916526 5.58365
0 0.945476 0.091308 4.31198
0 0.945686 0.0968639 8.44748
0 0.945455 0.0911869 3.55311
0 0.945452 0.09116 3.07216
0 0.94553 0.0918686 9.02758
0 0.945549 0.0918485 9.55222
0 0.945473 0.0911125 1.97839
0 0.945505 0.0913655 4.13807
0 0.945888 0.093027 13.3671
0 0.94581 0.0930014 7.72457
0 0.945592 0.091765 8.7181
0 0.945693 0.0915225 4.84019
0 0.945368 0.101341 45.9831
0 0.945674 0.0915096 2.94007
0 0.946004 0.0924719 8.24437
0 0.945763 0.0913386 1.2314
0 0.945933 0.0972939 42.9546
0 0.94592 0.0919752 3.43033
0 0.945932 0.0983785 16.8033
0 0.945504 0.0913064 3.36369
0 0.945551 0.0913303 2.76145
0 0.94546 0.0910507 1.65578
0 0.945539 0.0921456 7.11761
0 0.945449 0.0921136 7.94131
0 0.945462 0.090968 0.261952
0 0.945536 0.0914208 4.76877
0 0.945573 0.0914734 5.57805
0 0.945502 0.0910623 1.1356
0 0.945736 0.0915636 3.39088
0 0.945654 0.0914824 2.39815
0 0.945609 0.0912695 3.09115
0 0.945653 0.0912142 2.14169
0 0.945463 0.0971375 56.7208
0 0.945577 0.0911603 1.13814
0 0.945778 0.0912527 2.48234
0 0.945623 0.0910756 0.61421
0 0.945835 0.091998 5.36575
0 0.945727 0.0912075 1.64592
0 0.94589 0.100694 44.0528
0 0.945824 0.0922702 5.85043
0 0.945645 0.0963191 13.4119
0 0.945458 0.090963 0.755172
0 0.945489 0.0910721 1.45807
0 0.945459 0.0909877 0.810502
0 0.94557 0.0911487 1.02331
0 0.945543 0.0919507 4.37241
0 0.945554 0.0911096 1.04994
0 0.945478 0.0909684 0.599571
0 0.945468 0.0909797 0.716579
0 0.945552 0.0910914 1.36859
0 0.945513 0.0909732 0.351768
0 0.945635 0.0911382 2.03917
0 0.945609 0.091184 2.21608
0 0.945588 0.0909987 1.52755
0 0.945517 0.0998325 36.0488
0 0.945512 0.0909981 0.587011
0 0.945592 0.0910275 0.836466
0 0.945674 0.0913034 1.60283
0 0.945583 0.0910958 1.231
0 0.945675 0.0925087 8.01375
0 0.945594 0.0913793 2.60947
0 0.945487 0.099124 65.9535
0 0.945503 0.0922191 4.74438
0 0.94546 0.0909835 0.541785
0 0.945471 0.0909931 0.455032
0 0.945458 0.0909898 0.352043
0 0.945473 0.0910062 0.448004
0 0.945279 0.106448 51.4092
0 0.945446 0.092043 6.65365
0 0.945583 0.0911442 1.832
0 0.945543 0.0912024 2.41006
0 0.945572 0.0911232 1.66728
0 0.945475 0.090992 0.506219
0 0.945487 0.0909642 0.41252
0 0.945545 0.0909761 0.746665
0 0.945512 0.090964 0.586925
0 0.945584 0.0911093 2.23137
0 0.945559 0.0910304 1.91806
0 0.945239 0.102344 26.3515
0 0.945496 0.0910479 0.814959
0 0.94552 0.0911903 1.95382
0 0.945483 0.091453 3.93604
0 0.945473 0.0911908 2.29134
0 0.94535 0.0929444 7.45652
0 0.945373 0.0915086 2.27474
0 0.945295 0.0927462 8.54104
0 0.945477 0.0910149 0.147046
0 0.945487 0.0909914 0.0660533
0 0.945466 0.0910227 0.457741
0 0.945463 0.091008 0.0670291
0 0.945464 0.0910546 0.694717
0 0.945464 0.0910228 0.282571
0 0.94548 0.0910398 0.336637
0 0.945352 0.0993003 107.808
0 0.945265 0.0923662 9.49355
0 0.945487 0.0912185 2.93401
0 0.945569 0.0911531 2.02439
0 0.945557 0.0911541 2.19911
0 0.945498 0.0909748 0.409614
0 0.945525 0.091 1.19306
0 0.945556 0.0911043 2.17081
0 0.945536 0.0910681 1.99427
0 0.945246 0.0924198 5.16208
0 0.945091 0.101025 8.02709
0 0.945456 0.0910991 1.43492
0 0.945414 0.0910967 1.42839
0 0.945325 0.0915627 1.28313
0 0.945374 0.0911599 0.568713
0 0.945411 0.0914055 3.45128
0 0.945366 0.0915269 3.33046
0 0.945458 0.0910982 1.20181
0 0.945499 0.0910094 0.463896
0 0.94549 0.0910307 0.397523
0 0.945473 0.0910418 0.46669
0 0.945471 0.0910641 0.666799
0 0.945481 0.0910683 0.550287
0 0.945489 0.0910466 0.523766
0 0.945496 0.091053 0.606666
0 0.945443 0.0923193 9.98134
0 0.945454 0.100326 129.33
0 0.945551 0.0911422 1.98226
0 0.945437 0.0912439 2.58355
0 0.945532 0.0911353 2.14819
0 0.945558 0.0911519 1.89752
0 0.94544 0.0915062 3.32031
0 0.945514 0.0910309 1.12787
0 0.945531 0.0911063 2.00833
0 0.945506 0.0910469 0.964122
0 0.945536 0.091144 1.71575
0 0.945339 0.0924296 5.62834
0 0.945186 0.100666 49.9695
0 0.945437 0.091018 0.857706
0 0.945401 0.0911696 1.73656
0 0.945445 0.0914616 3.48075
0 0.945439 0.0912679 2.92729
0 0.945512 0.0916052 4.60705
0 0.94548 0.091015 0.324808
0 0.945502 0.0910547 0.797151
0 0.945494 0.091044 0.489136
0 0.945511 0.0910972 0.96069
0 0.945506 0.0910298 0.50758
0 0.945509 0.0910433 0.682554
0 0.945438 0.0928135 9.61385
0 0.945372 0.0996279 24.158
0 0.945545 0.091157 1.43623
0 0.945519 0.0911021 2.05955
0 0.945548 0.0911011 1.55553
0 0.945465 0.0915992 2.02897
0 0.945513 0.0912216 2.24862
0 0.945515 0.0910834 1.51478
0 0.945522 0.0911242 1.57737
0 0.945508 0.0910716 1.15667
0 0.945527 0.0911113 1.36065
0 0.945534 0.0910784 1.53349
0 0.945483 0.0916009 1.80818
0 0.945416 0.0923827 7.62794
0 0.945332 0.100283 44.2195
0 0.945485 0.0909669 0.683502
0 0.945514 0.0911884 2.39107
0 0.945572 0.0914248 2.63592
0 0.945574 0.0911811 1.99799
0 0.94553 0.0910543 0.882342
0 0.945544 0.0910994 1.17759
0 0.945509 0.0910562 0.852726
0 0.945527 0.0910362 0.609943
0 0.945522 0.091021 0.549178
0 0.945516 0.0910436 0.796951
0 0.945525 0.0910279 0.680301
0 0.945642 0.0914058 1.30825
0 0.94551 0.0924822 7.00675
0 0.945382 0.102188 44.2336
0 0.945534 0.0910347 1.52162
0 0.945514 0.0912139 1.95997
0 0.945507 0.0912966 1.40075
0 0.945524 0.0910389 1.38862
0 0.945514 0.0910682 1.23617
0 0.945519 0.0910648 1.35107
0 0.945496 0.0915045 1.41382
0 0.945463 0.0924559 4.93598
0 0.945413 0.102648 59.1705
0 0.945568 0.0909777 0.642933
0 0.945621 0.0910074 0.377642
0 0.945656 0.0911244 1.42732
0 0.94558 0.0911166 1.43857
0 0.945563 0.0910752 1.11562
0 0.945513 0.091055 1.0553
0 0.94552 0.0910436 1.00099
0 0.945545 0.0910198 0.688752
0 0.945534 0.0910216 0.729249
0 0.945674 0.0913066 2.32854
0 0.945645 0.0921903 5.86848
0 0.945519 0.0975159 29.4609
0 0.945517 0.0910346 1.52515
0 0.945509 0.0911489 1.01895
0 0.945514 0.091035 1.25228
0 0.945513 0.091057 1.26265
0 0.945516 0.0910855 1.16519
0 0.945522 0.0913712 1.34726
0 0.945503 0.092474 5.62752
0 0.945471 0.100601 69.7527
0 0.945617 0.0911291 1.63174
0 0.945647 0.091164 2.72134
0 0.945599 0.091129 1.62811
0 0.945574 0.0910732 1.20248
0 0.945516 0.0910345 1.06892
0 0.945529 0.0910127 0.89332
0 0.94556 0.0910401 0.951255
0 0.945547 0.0910123 0.816908
0 0.945625 0.0912243 3.85512
0 0.945632 0.09131 3.7267
0 0.945675 0.0918563 1.88359
0 0.945694 0.10181 96.6018
0 0.945511 0.0910209 0.917174
0 0.945513 0.0910352 1.03049
0 0.945529 0.0910674 1.36367
0 0.945562 0.0912721 3.35041
0 0.945567 0.091966 3.00345
0 0.945532 0.099659 56.6367
0 0.945617 0.0911577 2.30318
0 0.945592 0.0910716 1.3192
0 0.945524 0.0910055 0.756455
0 0.945546 0.0909924 0.691287
0 0.945571 0.0910126 0.778913
0 0.945599 0.0912301 3.67671
0 0.945555 0.0914284 5.30789
0 0.9455 0.0921895 6.65508
0 0.945578 0.0992851 30.8802
0 0.945521 0.0910298 0.400623
0 0.945548 0.0911027 2.03485
0 0.945607 0.091263 3.67736
0 0.945688 0.0922351 11.0173
0 0.94566 0.102268 103.465
0 0.945593 0.0910723 1.43007
0 0.945542 0.0910207 0.592609
0 0.94557 0.0910016 0.608371
0 0.945588 0.091174 2.82398
0 0.945537 0.0914375 5.02273
0 0.945377 0.0923039 11.9082
0 0.945305 0.10282 27.3837
0 0.945551 0.0910696 0.983149
0 0.945612 0.0912547 3.94164
0 0.945741 0.0921072 11.5457
0 0.945819 0.105311 91.3092
0 0.945568 0.0911543 0.817088
0 0.945591 0.0910412 0.580834
0 0.945576 0.0911556 1.46743
0 0.945592 0.0911571 1.59096
0 0.945569 0.0912768 3.49614
0 0.945459 0.0922623 10.4686
0 0.9453 0.101806 115.64
0 0.945614 0.0911839 0.915142
0 0.945699 0.0914046 2.95387
0 0.945797 0.0995752 36.1852
0 0.945616 0.0913555 1.85426
0 0.945608 0.0913849 3.17652
0 0.94562 0.0914322 3.50084
0 0.945576 0.0923602 10.7069
0 0.945495 0.100592 21.7176
0 0.945669 0.0915352 2.67744
0 0.945723 0.0950393 9.37246
0 0.945665 0.092242 7.70525
0 0.945642 0.0923671 10.5211
0 0.945613 0.100894 106.593
0 0.945691 0.0969351 61.2085
0 0.945681 0.0990241 1.4273
VECTORS fa_u float
0.00766058 0.00314852 -0
0.00469963 0.00270112 -0
0.00407886 0.00110903 -0
0.00843736 0.00118825 -0
1e-08 0 0
0.0068736 0.00527891 -0
0.00319138 0.00317536 -0
1e-08 0 0
1e-08 0 0
0.00490166 0.00627503 -0
0.00320257 0.00548971 -0
0.00545886 3.92667e-05 -0
0.00750123 -0.000914446 0
1e-08 0 0
1e-08 0 0
1e-08 0 0
1e-08 0 0
1e-08 0 0
1e-08 0 0
1e-08 0 0
1e-08 0 0
0.00289246 0.00693367 -0
0.00178003 0.00671197 -0
1e-08 0 0
1e-08 0 0
1e-08 0 0
0.00736482 -0.00196259 0
1e-08 0 0
0.00738461 -0.00313982 0
1e-08 0 0
1e-08 0 0
1e-08 0 0
0.000853783 0.0066797 -0
1e-08 0 0
1e-08 0 0
1e-08 0 0
1e-08 0 0
1e-08 0 0
1e-08 0 0
1e-08 0 0
1e-08 0 0
1e-08 0 0
1e-08 0 0
-4.48908e-05 0.00719897 -0
1e-08 0 0
1e-08 0 0
1e-08 0 0
0.00518153 -0.00307632 0
1e-08 0 0
0.00479491 -0.00372008 0
1e-08 0 0
1e-08 0 0
1e-08 0 0
1e-08 0 0
1e-08 0 0
1e-08 0 0
1e-08 0 0
1e-08 0 0
1e-08 0 0
1e-08 0 0
1e-08 0 0
1e-08 0 0
1e-08 0 0
-0.000892069 0.0064065 0
1e-08 0 0
1e-08 0 0
1e-08 0 0
1e-08 0 0
1e-08 0 0
0.00447487 -0.00447837 0
1e-08 0 0
0.00334725 -0.00428908 0
1e-08 0 0
1e-08 0 0
1e-08 0 0
1e-08 0 0
1e-08 0 0
1e-08 0 0
1e-08 0 0
1e-08 0 0
1e-08 0 0
1e-08 0 0
1e-08 0 0
1e-08 0 0
1e-08 0 0
-0.00132088 0.00497214 0
1e-08 0 0
1e-08 0 0
1e-08 0 0
1e-08 0 0
1e-08 0 0
1e-08 0 0
0.00408765 -0.00694225 0
1e-08 0 0
1e-08 0 0
1e-08 0 0
1e-08 0 0
1e-08 0 0
0.00303028 -0.0073959 0
1e-08 0 0
1e-08 0 0
1e-08 0 0
1e-08 0 0
1e-08 0 0
1e-08 0 0
1e-08 0 0
1e-08 0 0
1e-08 0 0
1e-08 0 0
-0.00312779 0.00762328 0
1e-08 0 0
1e-08 0 0
1e-08 0 0
1e-08 0 0
1e-08 0 0
1e-08 0 0
1e-08 0 0
1e-08 0 0
1e-08 0 0
1e-08 0 0
1e-08 0 0
1e-08 0 0
1e-08 0 0
1e-08 0 0
0.00131481 -0.00493548 0
1e-08 0 0
1e-08 0 0
1e-08 0 0
1e-08 0 0
1e-08 0 0
1e-08 0 0
1e-08 0 0
1e-08 0 0
1e-08 0 0
-0.00344232 0.0059016 0
1e-08 0 0
1e-08 0 0
1e-08 0 0
1e-08 0 0
1e-08 0 0
1e-08 0 0
1e-08 0 0
1e-08 0 0
1e-08 0 0
1e-08 0 0
1e-08 0 0
1e-08 0 0
1e-08 0 0
1e-08 0 0
1e-08 0 0
0.00100803 -0.00747768 0
1e-08 0 0
1e-08 0 0
1e-08 0 0
1e-08 0 0
1e-08 0 0
1e-08 0 0
1e-08 0 0
1e-08 0 0
1e-08 0 0
1e-08 0 0
-0.00367706 0.00477599 0
1e-08 0 0
1e-08 0 0
1e-08 0 0
1e-08 0 0
1e-08 0 0
1e-08 0 0
1e-08 0 0
1e-08 0 0
1e-08 0 0
1e-08 0 0
1e-08 0 0
1e-08 0 0
1.02057e-05 -0.00615259 0
1e-08 0 0
1e-08 0 0
1e-08 0 0
1e-08 0 0
1e-08 0 0
1e-08 0 0
1e-08 0 0
1e-08 0 0
1e-08 0 0
1e-08 0 0
1e-08 0 0
1e-08 0 0
-0.00440514 0.0044425 0
1e-08 0 0
1e-08 0 0
1e-08 0 0
1e-08 0 0
1e-08 0 0
1e-08 0 0
1e-08 0 0
1e-08 0 0
1e-08 0 0
1e-08 0 0
1e-08 0 0
1e-08 0 0
1e-08 0 0
-0.000825522 -0.00652245 0
1e-08 0 0
1e-08 0 0
1e-08 0 0
1e-08 0 0
1e-08 0 0
1e-08 0 0
1e-08 0 0
1e-08 0 0
-0.00467561 0.00366551 0
1e-08 0 0
1e-08 0 0
1e-08 0 0
1e-08 0 0
1e-08 0 0
1e-08 0 0
1e-08 0 0
1e-08 0 0
1e-08 0 0
1e-08 0 0
1e-08 0 0
-0.00185837 -0.00701762 0
1e-08 0 0
1e-08 0 0
1e-08 0 0
1e-08 0 0
1e-08 0 0
1e-08 0 0
1e-08 0 0
-0.00681064 0.00401118 0
1e-08 0 0
1e-08 0 0
1e-08 0 0
1e-08 0 0
1e-08 0 0
1e-08 0 0
1e-08 0 0
1e-08 0 0
1e-08 0 0
1e-08 0 0
1e-08 0 0
-0.00256945 -0.00620531 0
1e-08 0 0
1e-08 0 0
1e-08 0 0
1e-08 0 0
1e-08 0 0
-0.00699592 0.00288924 0
1e-08 0 0
1e-08 0 0
1e-08 0 0
1e-08 0 0
1e-08 0 0
1e-08 0 0
1e-08 0 0
1e-08 0 0
-0.00394328 -0.00675115 0
1e-08 0 0
1e-08 0 0
1e-08 0 0
1e-08 0 0
-0.0060994 0.00161351 0
1e-08 0 0
1e-08 0 0
1e-08 0 0
1e-08 0 0
1e-08 0 0
1e-08 0 0
-0.00392521 -0.00502393 0
1e-08 0 0
1e-08 0 0
1e-08 0 0
-0.00688298 0.000889788 0
1e-08 0 0
1e-08 0 0
1e-08 0 0
1e-08 0 0
1e-08 0 0
1e-08 0 0
-0.00403698 -0.00402209 0
1e-08 0 0
1e-08 0 0
-0.0075264 -5.52507e-05 0
1e-08 0 0
1e-08 0 0
1e-08 0 0
1e-08 0 0
-0.00620836 -0.00474622 0
1e-08 0 0
-0.00528371 -0.000718479 0
1e-08 0 0
1e-08 0 0
-0.00464385 -0.00268046 0
-0.00638309 -0.00168556 0
-0.00727967 -0.00302643 0
