# vtk DataFile Version 2.0
CellBP Time: 3.44
ASCII
DATASET UNSTRUCTURED_GRID
POINTS 296 double
-8.97367 -3.68325 0
-8.40527 -4.82985 0
-9.37881 -2.46879 0
-9.63724 -1.22218 0
-8.27201 -2.78112 0
-7.69395 -5.89531 0
-6.85032 -6.85805 0
-7.83195 -3.82749 0
-7.26142 -4.81573 0
-5.90133 -7.71027 0
-4.84599 -8.42291 0
-9.72463 0.0464729 0
-9.65519 1.32304 0
-8.57874 -1.66182 0
-8.71386 -0.522565 0
-7.50705 -1.97431 0
-7.14073 -2.86528 0
-6.57181 -5.72792 0
-5.77248 -6.54721 0
-6.7086 -3.83919 0
-6.1498 -4.62565 0
-3.69975 -8.99154 0
-2.48449 -9.40335 0
-4.87255 -7.26068 0
-3.89489 -7.83949 0
-8.72665 0.635502 0
-9.41442 2.58513 0
-8.5642 1.75664 0
-8.99617 3.79533 0
-7.6677 -0.913386 0
-7.72344 0.0828792 0
-6.87898 -1.29542 0
-1.22276 -9.64237 0
-6.37403 -2.1251 0
-6.25055 -3.01777 0
-5.48001 -5.42535 0
-4.75289 -6.06741 0
-5.5981 -3.71582 0
-5.21086 -4.51492 0
-2.85113 -8.31248 0
-1.76594 -8.58413 0
-3.89975 -6.67682 0
-3.04132 -7.10728 0
0.0518366 -9.72274 0
-7.64 1.13291 0
-8.28881 2.89688 0
-7.49154 2.09037 0
-8.41551 4.93441 0
-7.82128 3.94642 0
-7.70241 5.99802 0
-6.71205 -0.38847 0
-6.89039 0.550338 0
-5.72111 -0.992849 0
-0.585835 -8.74638 0
0.556933 -8.69864 0
-5.25561 -2.45421 0
-4.44424 -5.04877 0
-3.86627 -5.72874 0
-4.39939 -3.77096 0
-2.04931 -7.51176 0
-1.12833 -7.72973 0
-2.97094 -6.05694 0
-2.29564 -6.57485 0
1.32175 -9.63599 0
-6.63177 1.40789 0
-7.11093 3.08871 0
-6.60289 2.3506 0
-7.23259 4.94504 0
-6.65992 3.96457 0
-6.85178 6.94848 0
-6.51567 5.83986 0
-5.89178 7.79243 0
-4.42647 -1.1751 0
-5.76958 0.50612 0
-4.62935 -0.0161522 0
0.00246631 -7.78284 0
1.71557 -8.56281 0
0.931537 -7.69105 0
-4.01382 -2.38893 0
-3.47589 -1.38758 0
-3.26963 -4.76898 0
-3.25001 -3.24672 0
-1.37316 -6.62451 0
-0.512126 -6.96617 0
-1.96417 -5.50022 0
2.57299 -9.3771 0
-5.46486 2.02148 0
-6.04256 3.04226 0
-6.05119 4.82155 0
-5.71049 3.94973 0
-5.70993 6.65294 0
-5.40279 5.56245 0
-4.84232 8.5221 0
-4.79394 7.33151 0
-3.48868 -0.423424 0
-4.42087 1.24079 0
-3.69317 0.589154 0
-4.03471 2.31047 0
-3.69665 9.08534 0
2.82523 -8.24405 0
0.404468 -6.73005 0
1.99106 -7.44587 0
1.28091 -6.83294 0
-2.43955 -0.869963 0
-2.83037 -2.12225 0
-2.28456 -4.07244 0
-2.31744 -2.95834 0
-0.445616 -5.81301 0
-1.21464 -4.47278 0
3.78678 -8.975 0
-4.75122 3.36346 0
-5.04243 4.54687 0
-4.60342 6.21575 0
-4.49718 5.30392 0
-3.81338 7.92491 0
-3.78868 6.77192 0
-2.7577 8.34619 0
-1.6468 -0.134454 0
-1.44727 -0.887344 0
-2.48461 0.510408 0
-3.23776 1.44106 0
-3.21774 3.29661 0
-2.89602 2.36704 0
-1.35479 0.630434 0
-2.48306 9.49125 0
3.88668 -7.80232 0
2.92111 -7.07155 0
0.936248 -5.76564 0
2.04173 -6.34316 0
-1.67775 -1.98661 0
-1.42778 -3.26158 0
0.0867588 -4.71216 0
-0.560816 -3.67629 0
4.87944 -7.23831 0
4.93329 -8.41261 0
-3.74616 4.51125 0
-3.70086 5.69449 0
-2.85796 7.21578 0
-2.98151 6.29071 0
-1.64689 8.66156 0
-1.91924 7.54988 0
-2.32489 4.02528 0
-0.728685 -1.32452 0
-0.836331 -0.254719 0
-1.93418 1.6833 0
-2.11803 2.86748 0
-1.30393 3.53032 0
-0.871462 1.35391 0
-0.284221 0.458535 0
-0.528122 8.80625 0
-1.22552 9.73469 0
1.09931 -4.53591 0
3.85722 -6.62945 0
2.94728 -6.02147 0
2.08967 -5.36721 0
4.73137 -6.12887 0
-0.555409 -2.46926 0
0.49358 -3.44562 0
0.0542765 -1.6083 0
1.46884 -3.65439 0
5.81221 -6.54358 0
5.99347 -7.69548 0
-2.45613 5.30267 0
-2.10824 6.47283 0
-0.892763 7.73968 0
-1.25563 6.86955 0
0.0886094 7.82273 0
-1.1389 4.46731 0
0.149188 -0.61547 0
-0.801011 2.48886 0
-0.336301 3.58997 0
0.0590233 1.51412 0
0.737533 0.474106 0
0.641814 8.81645 0
0.0475792 9.83179 0
2.35575 -4.24313 0
3.81365 -5.57067 0
2.96535 -5.15309 0
5.52271 -5.43062 0
4.64135 -5.21641 0
0.630196 -2.28968 0
1.24905 -2.93591 0
0.756251 -1.38988 0
2.14816 -3.11354 0
2.9689 -3.44577 0
6.10628 -4.74375 0
6.60312 -5.71503 0
6.95839 -6.85186 0
-1.00916 5.77433 0
-0.363697 6.82707 0
1.11615 7.71906 0
0.558194 7.02841 0
-0.00299459 4.69965 0
0.600322 3.81263 0
1.33548 -0.641734 0
0.533081 2.64592 0
0.960152 1.57469 0
1.9044 0.212605 0
1.60829 1.06387 0
2.1185 7.53693 0
1.789 8.659 0
1.32551 9.7469 0
3.78595 -4.30351 0
5.06939 -4.39539 0
5.79996 -3.89393 0
3.7548 -3.1722 0
1.80604 -1.87998 0
2.99992 -2.55811 0
6.73722 -3.91518 0
7.332 -4.85883 0
7.80053 -5.89256 0
0.482576 5.8416 0
1.42158 6.69751 0
2.3625 6.62788 0
1.20195 4.53326 0
1.48017 3.38339 0
2.42651 -0.690882 0
2.81692 0.142511 0
1.7809 2.15798 0
2.60341 1.14721 0
3.05673 7.12643 0
2.89094 8.32699 0
2.58562 9.50305 0
4.8727 -3.29312 0
6.0777 -3.07941 0
4.14669 -2.26055 0
3.22807 -1.4978 0
6.69078 -2.29834 0
7.18889 -3.02428 0
7.91876 -3.89107 0
8.52565 -4.84512 0
2.01384 5.56605 0
3.06234 6.11142 0
2.35417 4.10411 0
2.41063 3.04664 0
3.50864 -0.457718 0
3.59945 0.613922 0
2.94882 2.27799 0
3.52662 1.51898 0
3.97556 5.85402 0
3.95602 6.74801 0
3.9551 7.89211 0
3.80067 9.09111 0
5.53451 -1.90272 0
4.48419 -1.12241 0
6.67039 -1.32651 0
7.54675 -2.02283 0
8.34851 -2.84597 0
9.09825 -3.70245 0
3.38913 4.8413 0
3.3157 3.36325 0
4.66412 0.132038 0
4.48683 1.30062 0
4.0331 2.42552 0
4.52151 5.10819 0
4.80071 6.14459 0
4.94634 7.33255 0
4.94894 8.52691 0
5.84202 -0.433715 0
6.95939 -0.487549 0
7.71019 -1.07517 0
8.6323 -1.73293 0
9.4976 -2.48236 0
4.50718 3.79421 0
5.76725 1.08431 0
5.31808 2.5084 0
5.31821 4.57535 0
5.55514 5.47639 0
5.84705 6.62271 0
6.00177 7.81045 0
6.78765 0.452659 0
7.79518 -0.0274254 0
8.80289 -0.576243 0
9.74524 -1.222 0
6.89438 1.32877 0
5.65666 3.73849 0
6.47308 2.16809 0
6.30844 3.05047 0
6.22095 4.63916 0
6.62709 5.78771 0
6.95285 6.95818 0
7.71845 0.954178 0
8.79277 0.567699 0
9.82882 0.0543132 0
7.54245 1.97841 0
6.74597 3.8564 0
7.18932 2.90901 0
7.30453 4.83911 0
7.80651 6.00254 0
8.64738 1.70788 0
9.73657 1.32442 0
8.33717 2.80526 0
7.90447 3.87654 0
8.51369 4.93579 0
9.48285 2.57722 0
9.08187 3.79115 0
CELLS 542 2168
3 2 0 4
3 0 1 7
3 4 0 7
3 1 5 8
3 7 1 8
3 3 2 13
3 13 2 4
3 11 3 14
3 14 3 13
3 13 4 15
3 4 7 16
3 15 4 16
3 5 6 17
3 8 5 17
3 6 9 18
3 17 6 18
3 7 8 19
3 16 7 19
3 8 17 20
3 19 8 20
3 9 10 23
3 18 9 23
3 10 21 24
3 23 10 24
3 12 11 25
3 25 11 14
3 26 12 27
3 27 12 25
3 14 13 29
3 29 13 15
3 25 14 30
3 30 14 29
3 29 15 31
3 15 16 33
3 31 15 33
3 16 19 34
3 33 16 34
3 17 18 35
3 20 17 35
3 18 23 36
3 35 18 36
3 19 20 37
3 34 19 37
3 20 35 38
3 37 20 38
3 21 22 39
3 24 21 39
3 22 32 40
3 39 22 40
3 23 24 41
3 36 23 41
3 24 39 42
3 41 24 42
3 27 25 44
3 44 25 30
3 28 26 45
3 45 26 27
3 45 27 46
3 46 27 44
3 47 28 48
3 48 28 45
3 30 29 50
3 50 29 31
3 44 30 51
3 51 30 50
3 50 31 52
3 31 33 52
3 32 43 53
3 40 32 53
3 53 43 54
3 33 34 55
3 34 37 55
3 33 55 52
3 35 36 56
3 38 35 56
3 36 41 57
3 56 36 57
3 37 38 58
3 38 56 58
3 37 58 55
3 39 40 59
3 42 39 59
3 40 53 60
3 59 40 60
3 41 42 61
3 57 41 61
3 42 59 62
3 61 42 62
3 43 63 54
3 46 44 64
3 64 44 51
3 48 45 65
3 65 45 46
3 65 46 66
3 66 46 64
3 49 47 67
3 67 47 48
3 67 48 68
3 68 48 65
3 69 49 70
3 70 49 67
3 52 55 72
3 64 51 73
3 51 50 73
3 50 52 73
3 73 52 74
3 74 52 72
3 53 54 75
3 60 53 75
3 54 63 76
3 54 76 77
3 75 54 77
3 55 58 78
3 72 55 78
3 72 78 79
3 56 57 80
3 57 61 80
3 56 80 58
3 58 80 81
3 78 58 81
3 59 60 82
3 62 59 82
3 60 75 83
3 82 60 83
3 61 62 84
3 62 82 84
3 61 84 80
3 63 85 76
3 66 64 86
3 64 73 86
3 68 65 87
3 87 65 66
3 87 66 86
3 70 67 88
3 88 67 68
3 88 68 89
3 89 68 87
3 71 69 90
3 90 69 70
3 90 70 91
3 91 70 88
3 92 71 93
3 93 71 90
3 74 72 94
3 94 72 79
3 86 73 95
3 95 73 74
3 95 74 96
3 96 74 94
3 97 86 95
3 76 85 99
3 75 77 100
3 83 75 100
3 76 99 101
3 77 76 101
3 77 101 102
3 100 77 102
3 94 79 103
3 78 81 104
3 79 78 104
3 79 104 103
3 80 84 105
3 81 80 105
3 81 105 106
3 104 81 106
3 82 83 107
3 83 100 107
3 82 107 84
3 84 107 108
3 105 84 108
3 85 109 99
3 89 87 110
3 87 86 110
3 110 86 97
3 91 88 111
3 111 88 89
3 111 89 110
3 93 90 112
3 112 90 91
3 112 91 113
3 113 91 111
3 98 92 114
3 114 92 93
3 114 93 115
3 115 93 112
3 116 98 114
3 117 103 118
3 96 94 119
3 94 103 119
3 119 103 117
3 97 95 120
3 120 95 96
3 120 96 119
3 121 110 97
3 121 97 122
3 122 97 120
3 123 119 117
3 124 98 116
3 99 109 125
3 99 125 126
3 101 99 126
3 100 102 127
3 100 127 107
3 101 126 128
3 102 101 128
3 102 128 127
3 104 106 129
3 104 129 103
3 103 129 118
3 105 108 130
3 106 105 130
3 106 130 129
3 107 127 131
3 108 107 131
3 108 131 132
3 108 132 130
3 109 134 125
3 125 134 133
3 113 111 135
3 111 110 135
3 135 110 121
3 115 112 136
3 136 112 113
3 136 113 135
3 116 114 137
3 137 114 115
3 137 115 138
3 138 115 136
3 139 124 116
3 139 116 140
3 140 116 137
3 141 135 121
3 118 129 142
3 118 142 143
3 117 118 143
3 123 117 143
3 122 120 144
3 120 119 144
3 144 119 123
3 141 121 145
3 145 121 122
3 145 122 144
3 146 141 145
3 147 144 123
3 147 123 148
3 143 148 123
3 150 124 139
3 149 150 139
3 131 127 151
3 125 133 152
3 126 125 152
3 126 152 153
3 128 126 153
3 128 153 154
3 128 154 127
3 127 154 151
3 152 133 155
3 130 132 156
3 130 156 129
3 129 156 142
3 131 151 157
3 132 131 157
3 132 157 156
3 156 158 142
3 157 151 159
3 133 160 155
3 134 161 133
3 133 161 160
3 138 136 162
3 136 135 162
3 162 135 141
3 140 137 163
3 163 137 138
3 163 138 162
3 149 139 164
3 164 139 140
3 164 140 165
3 165 140 163
3 166 149 164
3 167 162 141
3 167 141 146
3 142 158 168
3 143 142 168
3 143 168 148
3 146 145 169
3 145 144 169
3 169 144 147
3 170 167 146
3 170 146 169
3 171 169 147
3 171 147 148
3 171 148 172
3 168 172 148
3 173 149 166
3 174 150 149
3 173 174 149
3 154 175 151
3 151 175 159
3 152 155 176
3 153 152 176
3 153 176 177
3 153 177 154
3 154 177 175
3 155 160 178
3 155 178 179
3 176 155 179
3 156 157 180
3 156 180 158
3 157 159 181
3 157 181 180
3 158 180 182
3 158 182 168
3 159 175 183
3 159 183 181
3 175 184 183
3 160 186 178
3 178 186 185
3 161 187 160
3 160 187 186
3 165 163 188
3 163 162 188
3 188 162 167
3 166 164 189
3 189 164 165
3 189 165 188
3 190 173 166
3 190 166 191
3 191 166 189
3 192 188 167
3 192 167 170
3 193 192 170
3 182 194 168
3 194 172 168
3 193 170 195
3 170 169 195
3 195 169 171
3 196 195 171
3 196 171 172
3 194 197 172
3 197 198 172
3 198 196 172
3 200 173 190
3 199 200 190
3 201 174 173
3 200 201 173
3 176 179 202
3 177 176 202
3 177 202 175
3 175 202 184
3 178 185 203
3 178 203 179
3 179 203 202
3 203 185 204
3 202 205 184
3 183 206 181
3 180 181 206
3 180 206 182
3 182 206 194
3 183 184 207
3 205 207 184
3 183 207 206
3 185 208 204
3 186 209 185
3 185 209 208
3 187 210 186
3 186 210 209
3 191 189 211
3 189 188 211
3 211 188 192
3 199 190 212
3 212 190 191
3 212 191 211
3 213 199 212
3 214 211 192
3 214 192 193
3 215 214 193
3 215 193 195
3 206 216 194
3 216 197 194
3 216 217 197
3 215 195 218
3 218 195 196
3 198 218 196
3 217 219 197
3 219 218 198
3 197 219 198
3 220 199 213
3 221 200 199
3 220 221 199
3 222 201 200
3 221 222 200
3 203 204 223
3 203 223 202
3 202 223 205
3 204 208 224
3 204 224 223
3 205 223 225
3 205 225 207
3 207 225 226
3 207 226 206
3 226 216 206
3 208 228 224
3 224 228 227
3 209 229 208
3 229 228 208
3 210 230 209
3 209 230 229
3 213 212 231
3 212 211 231
3 231 211 214
3 232 220 213
3 232 213 231
3 233 231 214
3 233 214 215
3 234 233 215
3 234 215 218
3 226 235 216
3 235 217 216
3 235 236 217
3 217 236 219
3 237 234 218
3 237 218 219
3 236 238 219
3 238 237 219
3 240 220 232
3 239 240 232
3 241 221 220
3 240 241 220
3 242 222 221
3 241 242 221
3 224 227 243
3 224 243 223
3 223 243 225
3 225 243 244
3 225 244 226
3 226 244 235
3 227 245 243
3 228 246 227
3 227 246 245
3 229 247 228
3 228 247 246
3 230 248 229
3 229 248 247
3 239 232 249
3 232 231 249
3 249 231 233
3 250 249 233
3 250 233 234
3 237 250 234
3 244 251 235
3 235 251 236
3 251 252 236
3 236 252 238
3 252 253 238
3 253 250 237
3 253 237 238
3 254 239 249
3 255 240 239
3 254 255 239
3 256 241 240
3 255 256 240
3 257 242 241
3 256 257 241
3 245 258 243
3 243 258 244
3 244 258 251
3 245 259 258
3 246 260 245
3 245 260 259
3 247 261 246
3 246 261 260
3 248 262 247
3 247 262 261
3 254 249 263
3 263 249 250
3 253 263 250
3 258 264 251
3 251 264 252
3 264 265 252
3 265 263 253
3 252 265 253
3 266 254 263
3 267 255 254
3 266 267 254
3 268 256 255
3 267 268 255
3 269 257 256
3 268 269 256
3 259 270 258
3 270 264 258
3 260 271 259
3 259 271 270
3 261 272 260
3 260 272 271
3 262 273 261
3 273 272 261
3 270 274 264
3 275 266 263
3 275 263 265
3 274 276 264
3 276 265 264
3 276 277 265
3 277 275 265
3 278 267 266
3 275 278 266
3 279 268 267
3 278 279 267
3 280 269 268
3 279 280 268
3 271 281 270
3 270 281 274
3 272 282 271
3 271 282 281
3 273 283 272
3 272 283 282
3 281 284 274
3 274 284 276
3 285 278 275
3 277 285 275
3 284 286 276
3 286 285 277
3 276 286 277
3 287 279 278
3 285 287 278
3 288 280 279
3 287 288 279
3 282 289 281
3 281 289 284
3 283 290 282
3 282 290 289
3 289 291 284
3 284 291 286
3 291 292 286
3 292 287 285
3 286 292 285
3 293 288 287
3 292 293 287
3 290 294 289
3 289 294 291
3 294 295 291
3 295 293 292
3 291 295 292
CELL_TYPES 542
5
5
5
5
5
5
5
5
5
5
5
5
5
5
5
5
5
5
5
5
5
5
5
5
5
5
5
5
5
5
5
5
5
5
5
5
5
5
5
5
5
5
5
5
5
5
5
5
5
5
5
5
5
5
5
5
5
5
5
5
5
5
5
5
5
5
5
5
5
5
5
5
5
5
5
5
5
5
5
5
5
5
5
5
5
5
5
5
5
5
5
5
5
5
5
5
5
5
5
5
5
5
5
5
5
5
5
5
5
5
5
5
5
5
5
5
5
5
5
5
5
5
5
5
5
5
5
5
5
5
5
5
5
5
5
5
5
5
5
5
5
5
5
5
5
5
5
5
5
5
5
5
5
5
5
5
5
5
5
5
5
5
5
5
5
5
5
5
5
5
5
5
5
5
5
5
5
5
5
5
5
5
5
5
5
5
5
5
5
5
5
5
5
5
5
5
5
5
5
5
5
5
5
5
5
5
5
5
5
5
5
5
5
5
5
5
5
5
5
5
5
5
5
5
5
5
5
5
5
5
5
5
5
5
5
5
5
5
5
5
5
5
5
5
5
5
5
5
5
5
5
5
5
5
5
5
5
5
5
5
5
5
5
5
5
5
5
5
5
5
5
5
5
5
5
5
5
5
5
5
5
5
5
5
5
5
5
5
5
5
5
5
5
5
5
5
5
5
5
5
5
5
5
5
5
5
5
5
5
5
5
5
5
5
5
5
5
5
5
5
5
5
5
5
5
5
5
5
5
5
5
5
5
5
5
5
5
5
5
5
5
5
5
5
5
5
5
5
5
5
5
5
5
5
5
5
5
5
5
5
5
5
5
5
5
5
5
5
5
5
5
5
5
5
5
5
5
5
5
5
5
5
5
5
5
5
5
5
5
5
5
5
5
5
5
5
5
5
5
5
5
5
5
5
5
5
5
5
5
5
5
5
5
5
5
5
5
5
5
5
5
5
5
5
5
5
5
5
5
5
5
5
5
5
5
5
5
5
5
5
5
5
5
5
5
5
5
5
5
5
5
5
5
5
5
5
5
5
5
5
5
5
5
5
5
5
5
5
5
5
5
5
5
5
5
5
5
5
5
5
5
5
5
5
5
5
5
5
5
5
5
5
5
5
5
5
5
5
5
5
5
5
5
5
5
5
5
5
5
5
5
5
5
5
5
5
5
5
5
5
5
5
5
5
5
5
5
5
5
5
5
5
5
5
5
5
5
5
5
5
5
5
POINT_DATA 296
SCALARS concentrations float 4
LOOKUP_TABLE default
0 0.955485 0.13286 220.602
0 0.955401 0.130165 105.9
0 0.955406 0.1285 214.614
0 0.955336 0.131826 130.389
0 0.955459 0.0918078 7.61989
0 0.955571 0.131359 284.566
0 0.955646 0.134582 231.765
0 0.955435 0.0917216 4.84194
0 0.955475 0.0914225 3.05056
0 0.955758 0.131717 53.094
0 0.955521 0.128887 196.829
0 0.955341 0.130263 204.738
0 0.955412 0.130096 127.984
0 0.955396 0.0919676 6.76785
0 0.955378 0.0918179 5.75806
0 0.955457 0.0913605 3.99707
0 0.955451 0.0912356 3.04421
0 0.955589 0.0916187 4.90343
0 0.955694 0.0917656 4.48776
0 0.955462 0.0911439 2.15969
0 0.95552 0.0911382 1.4778
0 0.955475 0.13283 136.777
0 0.954923 0.128834 161.256
0 0.955651 0.0918775 7.62594
0 0.955545 0.0924367 6.79646
0 0.955417 0.0917845 3.67315
0 0.955225 0.128501 138.556
0 0.955384 0.0921607 5.01802
0 0.954982 0.130928 204.841
0 0.955455 0.0914162 3.22565
0 0.95547 0.0914071 2.53031
0 0.955495 0.0912143 2.06725
0 0.954788 0.133389 281.155
0 0.955493 0.0911096 1.82638
0 0.955483 0.0910701 1.64035
0 0.955602 0.0912694 1.22068
0 0.955649 0.0912617 2.04734
0 0.955513 0.0910639 1.03459
0 0.955555 0.0911392 0.574348
0 0.955315 0.0925481 5.03589
0 0.954973 0.091952 0.463315
0 0.95563 0.0913704 1.62312
0 0.955514 0.0913839 1.16581
0 0.954979 0.132453 266.496
0 0.955458 0.0913302 2.65433
0 0.955169 0.0920131 5.84331
0 0.955386 0.0912962 1.24974
0 0.95516 0.129457 325.724
0 0.955141 0.0922196 14.0415
0 0.955206 0.127511 81.0691
0 0.95551 0.0912057 1.36847
0 0.955507 0.0911912 1.32208
0 0.955532 0.091073 0.639107
0 0.955009 0.0915401 1.92551
0 0.955211 0.0918258 2.50148
0 0.955532 0.091047 0.309441
0 0.955598 0.0911732 0.488999
0 0.955625 0.0911917 0.952848
0 0.955564 0.0910653 0.364606
0 0.955363 0.0914505 2.06955
0 0.955254 0.0913609 1.33765
0 0.955596 0.0911531 1.20295
0 0.955522 0.0911488 1.531
0 0.955306 0.132396 106.694
0 0.955493 0.091079 0.388394
0 0.955305 0.0914424 3.78401
0 0.955443 0.0911068 1.04319
0 0.955228 0.0919758 11.4655
0 0.955296 0.091371 4.81139
0 0.955196 0.131867 286.559
0 0.955242 0.0913628 5.3598
0 0.954846 0.127543 202.996
0 0.955561 0.0910479 0.284887
0 0.955536 0.0910702 0.616404
0 0.955565 0.0910567 0.727468
0 0.955287 0.0913651 1.02346
0 0.955407 0.0917193 2.03748
0 0.95539 0.0912976 0.979451
0 0.955571 0.0910434 0.239379
0 0.955596 0.0910489 0.160372
0 0.955596 0.0910833 0.697854
0 0.955592 0.0910401 0.363072
0 0.955473 0.0911473 1.38967
0 0.955421 0.0912101 0.959813
0 0.955574 0.091043 1.05015
0 0.955453 0.129117 193.431
0 0.955517 0.091025 1.05395
0 0.955428 0.0911423 2.38577
0 0.955302 0.0912912 5.23696
0 0.955399 0.0911882 3.53508
0 0.955105 0.0917285 9.16044
0 0.955271 0.091196 3.54204
0 0.954786 0.125742 91.8914
0 0.954923 0.091729 5.84116
0 0.955601 0.0910395 0.326567
0 0.955563 0.0910331 0.827846
0 0.955597 0.0910328 0.600625
0 0.955556 0.0910324 1.18376
0 0.955056 0.130968 299.743
0 0.955488 0.0912554 0.322506
0 0.955464 0.0911981 0.617211
0 0.955473 0.0912152 0.708683
0 0.955494 0.0911852 0.541856
0 0.955627 0.091024 0.122537
0 0.955609 0.0910347 0.217368
0 0.955603 0.0910472 0.568173
0 0.955616 0.0910328 0.441163
0 0.955544 0.0910757 0.887187
0 0.955596 0.0910455 0.734912
0 0.955499 0.130126 146.757
0 0.955497 0.0910491 1.80932
0 0.955411 0.0911144 2.65713
0 0.955212 0.0911985 2.50927
0 0.955376 0.0910945 1.70205
0 0.95503 0.0917462 4.9567
0 0.955214 0.0912218 1.86875
0 0.955269 0.0918189 3.44253
0 0.955647 0.091006 0.26027
0 0.95565 0.0910032 0.042932
0 0.955626 0.0910218 0.458747
0 0.955603 0.0910222 0.727689
0 0.955552 0.0910273 1.13397
0 0.955597 0.0910246 0.921692
0 0.955652 0.0910029 0.505745
0 0.955286 0.130481 111.512
0 0.955457 0.0912843 2.55455
0 0.955502 0.0910997 0.999735
0 0.955557 0.0910801 0.670638
0 0.955535 0.0910965 0.691003
0 0.955637 0.0910146 0.284889
0 0.955625 0.0910216 0.534951
0 0.955597 0.0910322 0.864652
0 0.955624 0.0910276 0.664351
0 0.955335 0.0915152 3.34952
0 0.955338 0.129324 234.52
0 0.955496 0.0910348 1.17904
0 0.955402 0.0910651 0.476781
0 0.955312 0.0912219 2.1729
0 0.95541 0.0911232 1.06567
0 0.955293 0.0919425 1.23485
0 0.955391 0.0912696 1.62058
0 0.955564 0.09106 1.19188
0 0.955659 0.0909911 0.268744
0 0.955663 0.0909818 0.200944
0 0.955631 0.0910203 0.735657
0 0.955607 0.0910374 0.955417
0 0.955609 0.0910562 0.994395
0 0.955652 0.0909981 0.698726
0 0.955664 0.0909703 0.39352
0 0.955376 0.0920517 1.90601
0 0.9552 0.126857 163.649
0 0.955608 0.0910197 0.887041
0 0.955489 0.0911337 1.37938
0 0.955551 0.0910725 0.991233
0 0.955587 0.091032 0.93066
0 0.955461 0.0913066 1.52262
0 0.955646 0.0909972 0.523358
0 0.955634 0.0910129 0.807466
0 0.955664 0.0909849 0.537833
0 0.955635 0.0910265 1.02036
0 0.955298 0.0918368 3.7513
0 0.955203 0.12994 160.308
0 0.95552 0.091075 1.05462
0 0.955476 0.0911472 1.28883
0 0.95543 0.0913835 1.06785
0 0.955493 0.0912316 1.41261
0 0.955447 0.09135 0.489094
0 0.955577 0.0910665 1.12135
0 0.955669 0.0909576 0.335835
0 0.955636 0.0910203 0.785321
0 0.955618 0.0910561 0.945258
0 0.955655 0.0909898 0.50259
0 0.955664 0.0909726 0.397815
0 0.955429 0.091746 1.72968
0 0.955474 0.13117 175.809
0 0.955622 0.0910356 1.11858
0 0.955559 0.0911258 1.27006
0 0.955599 0.0910551 1.20128
0 0.95545 0.091401 1.6636
0 0.95555 0.091216 1.50937
0 0.955657 0.0909933 0.776384
0 0.955653 0.0910101 0.967095
0 0.955668 0.0909776 0.702391
0 0.95565 0.0910287 1.21365
0 0.955637 0.0910575 1.37025
0 0.955399 0.091381 2.14748
0 0.955346 0.0920436 2.30203
0 0.95525 0.126756 42.6778
0 0.955547 0.0911144 1.38719
0 0.955513 0.0912278 1.25782
0 0.955414 0.0912087 1.46154
0 0.955494 0.0911907 1.00022
0 0.955583 0.0910751 1.1222
0 0.955612 0.0910577 0.951579
0 0.955667 0.0909834 0.73351
0 0.955636 0.0910143 0.646466
0 0.955651 0.0909956 0.46667
0 0.95566 0.0910002 0.849517
0 0.955653 0.0909975 0.657005
0 0.955394 0.0912081 3.181
0 0.955296 0.0914997 5.41768
0 0.955303 0.130701 202.75
0 0.955603 0.0910843 1.36062
0 0.955543 0.091217 1.45872
0 0.955486 0.0912335 1.58171
0 0.955628 0.0910612 1.37091
0 0.955662 0.0909987 1.15925
0 0.955652 0.0910362 1.50377
0 0.955289 0.0912969 2.81297
0 0.955205 0.0918701 5.96924
0 0.955283 0.131289 322.353
0 0.955544 0.0910977 1.13523
0 0.955484 0.0911092 1.36958
0 0.955459 0.0911216 1.70647
0 0.955574 0.0910687 0.977485
0 0.955611 0.0910425 0.772448
0 0.955662 0.0910081 1.27451
0 0.955654 0.0910247 1.51835
0 0.955633 0.0910138 0.669586
0 0.955643 0.0910241 1.14563
0 0.955393 0.0911932 2.45732
0 0.955381 0.0916351 8.35288
0 0.955288 0.130424 235.215
0 0.955585 0.091096 1.11044
0 0.95548 0.0911339 0.870447
0 0.955631 0.0910502 1.55427
0 0.955655 0.0910214 1.59613
0 0.95547 0.0911045 0.918984
0 0.955231 0.0912165 2.71934
0 0.954929 0.0915507 6.40114
0 0.95491 0.129608 185.393
0 0.95553 0.091093 0.908355
0 0.955471 0.0911434 1.11901
0 0.95557 0.0910708 0.795946
0 0.955605 0.0910571 0.974166
0 0.955654 0.091028 1.76876
0 0.955648 0.0910447 1.86627
0 0.955619 0.091049 1.24014
0 0.955633 0.0910478 1.63041
0 0.955467 0.0911971 0.402029
0 0.955382 0.0912592 1.44977
0 0.955347 0.0916739 7.38319
0 0.955417 0.132773 210.101
0 0.955591 0.0910505 1.21343
0 0.955641 0.0910343 1.72271
0 0.955556 0.091125 2.39731
0 0.955324 0.091231 3.60121
0 0.954903 0.0914794 5.45811
0 0.954653 0.129324 161.255
0 0.955539 0.0910896 0.55019
0 0.955585 0.0910533 1.02181
0 0.955654 0.09104 1.86043
0 0.955651 0.0910409 1.61423
0 0.955622 0.0910463 1.16297
0 0.955523 0.091154 0.449112
0 0.955408 0.0913499 1.62993
0 0.955286 0.0915163 4.33685
0 0.955235 0.128105 104.913
0 0.955646 0.0910769 2.22829
0 0.955649 0.0912243 3.82027
0 0.955539 0.0913204 4.76736
0 0.95524 0.0916697 9.09246
0 0.954836 0.127665 133.681
0 0.955596 0.0910469 0.992506
0 0.95569 0.0911102 2.34264
0 0.955669 0.0910603 1.64078
0 0.955592 0.0911169 1.13208
0 0.955524 0.0913164 1.5716
0 0.955375 0.0917902 3.1396
0 0.955278 0.134575 208.836
0 0.955723 0.0912484 3.85198
0 0.955731 0.0913763 4.13072
0 0.95567 0.0920205 8.30491
0 0.955442 0.129982 294.783
0 0.955789 0.0912885 3.60596
0 0.955671 0.0910626 1.55795
0 0.955769 0.0912028 2.7955
0 0.955747 0.0911255 2.01546
0 0.955673 0.0912753 0.96734
0 0.955658 0.0920138 4.90329
0 0.955461 0.125908 240.092
0 0.955859 0.0914245 3.38473
0 0.955867 0.0918416 4.58037
0 0.955831 0.128806 106.725
0 0.955904 0.0913595 1.6806
0 0.955778 0.091156 0.449124
0 0.95586 0.0913075 1.13244
0 0.955818 0.0917196 3.56754
0 0.955868 0.129524 153.656
0 0.956006 0.0916864 3.21809
0 0.955971 0.130089 144.905
0 0.955994 0.0916722 4.69043
0 0.955811 0.091679 6.0571
0 0.955781 0.129617 137.133
0 0.956116 0.132866 189.562
0 0.955902 0.130287 37.006
VECTORS fa_u float
0.00687347 0.00283414 -0
0.00555675 0.00321469 -0
0.00521234 0.00140538 -0
0.0071346 0.000980922 -0
1e-08 0 0
0.00528991 0.00405558 -0
0.00396504 0.00391623 -0
1e-08 0 0
1e-08 0 0
0.00456587 0.00584814 -0
0.00349475 0.00600499 -0
0.00592459 4.17939e-05 -0
0.00694506 -0.000848645 0
1e-08 0 0
1e-08 0 0
1e-08 0 0
1e-08 0 0
1e-08 0 0
1e-08 0 0
1e-08 0 0
1e-08 0 0
0.00266777 0.00642561 -0
0.00191886 0.007303 -0
1e-08 0 0
1e-08 0 0
1e-08 0 0
0.00780297 -0.00207999 0
1e-08 0 0
0.00688854 -0.00292901 0
1e-08 0 0
1e-08 0 0
1e-08 0 0
0.000750521 0.00596016 -0
1e-08 0 0
1e-08 0 0
1e-08 0 0
1e-08 0 0
1e-08 0 0
1e-08 0 0
1e-08 0 0
1e-08 0 0
1e-08 0 0
1e-08 0 0
-1.68394e-05 0.00672328 -0
1e-08 0 0
1e-08 0 0
1e-08 0 0
0.0047722 -0.00280298 0
1e-08 0 0
0.00598137 -0.00464393 0
1e-08 0 0
1e-08 0 0
1e-08 0 0
1e-08 0 0
1e-08 0 0
1e-08 0 0
1e-08 0 0
1e-08 0 0
1e-08 0 0
1e-08 0 0
1e-08 0 0
1e-08 0 0
1e-08 0 0
-0.000978733 0.00713909 0
1e-08 0 0
1e-08 0 0
1e-08 0 0
1e-08 0 0
1e-08 0 0
0.00393234 -0.00396788 0
1e-08 0 0
0.00310433 -0.00396415 0
1e-08 0 0
1e-08 0 0
1e-08 0 0
1e-08 0 0
1e-08 0 0
1e-08 0 0
1e-08 0 0
1e-08 0 0
1e-08 0 0
1e-08 0 0
1e-08 0 0
1e-08 0 0
1e-08 0 0
-0.00135637 0.00505826 0
1e-08 0 0
1e-08 0 0
1e-08 0 0
1e-08 0 0
1e-08 0 0
1e-08 0 0
0.00448508 -0.00761485 0
1e-08 0 0
1e-08 0 0
1e-08 0 0
1e-08 0 0
1e-08 0 0
0.00266544 -0.00648862 0
1e-08 0 0
1e-08 0 0
1e-08 0 0
1e-08 0 0
1e-08 0 0
1e-08 0 0
1e-08 0 0
1e-08 0 0
1e-08 0 0
1e-08 0 0
-0.0027325 0.00668699 0
1e-08 0 0
1e-08 0 0
1e-08 0 0
1e-08 0 0
1e-08 0 0
1e-08 0 0
1e-08 0 0
1e-08 0 0
1e-08 0 0
1e-08 0 0
1e-08 0 0
1e-08 0 0
1e-08 0 0
1e-08 0 0
0.00171147 -0.00651315 0
1e-08 0 0
1e-08 0 0
1e-08 0 0
1e-08 0 0
1e-08 0 0
1e-08 0 0
1e-08 0 0
1e-08 0 0
1e-08 0 0
-0.00375838 0.00648181 0
1e-08 0 0
1e-08 0 0
1e-08 0 0
1e-08 0 0
1e-08 0 0
1e-08 0 0
1e-08 0 0
1e-08 0 0
1e-08 0 0
1e-08 0 0
1e-08 0 0
1e-08 0 0
1e-08 0 0
1e-08 0 0
1e-08 0 0
0.000688774 -0.00511837 0
1e-08 0 0
1e-08 0 0
1e-08 0 0
1e-08 0 0
1e-08 0 0
1e-08 0 0
1e-08 0 0
1e-08 0 0
1e-08 0 0
1e-08 0 0
-0.0036348 0.00471623 0
1e-08 0 0
1e-08 0 0
1e-08 0 0
1e-08 0 0
1e-08 0 0
1e-08 0 0
1e-08 0 0
1e-08 0 0
1e-08 0 0
1e-08 0 0
1e-08 0 0
1e-08 0 0
3.78257e-05 -0.00790207 0
1e-08 0 0
1e-08 0 0
1e-08 0 0
1e-08 0 0
1e-08 0 0
1e-08 0 0
1e-08 0 0
1e-08 0 0
1e-08 0 0
1e-08 0 0
1e-08 0 0
1e-08 0 0
-0.00478709 0.00479809 0
1e-08 0 0
1e-08 0 0
1e-08 0 0
1e-08 0 0
1e-08 0 0
1e-08 0 0
1e-08 0 0
1e-08 0 0
1e-08 0 0
1e-08 0 0
1e-08 0 0
1e-08 0 0
1e-08 0 0
-0.000777861 -0.00600545 0
1e-08 0 0
1e-08 0 0
1e-08 0 0
1e-08 0 0
1e-08 0 0
1e-08 0 0
1e-08 0 0
1e-08 0 0
-0.0040708 0.00317927 0
1e-08 0 0
1e-08 0 0
1e-08 0 0
1e-08 0 0
1e-08 0 0
1e-08 0 0
1e-08 0 0
1e-08 0 0
1e-08 0 0
1e-08 0 0
1e-08 0 0
-0.00183119 -0.0069115 0
1e-08 0 0
1e-08 0 0
1e-08 0 0
1e-08 0 0
1e-08 0 0
1e-08 0 0
1e-08 0 0
-0.00667274 0.00395383 0
1e-08 0 0
1e-08 0 0
1e-08 0 0
1e-08 0 0
1e-08 0 0
1e-08 0 0
1e-08 0 0
1e-08 0 0
1e-08 0 0
1e-08 0 0
1e-08 0 0
-0.00250251 -0.00605877 0
1e-08 0 0
1e-08 0 0
1e-08 0 0
1e-08 0 0
1e-08 0 0
-0.00789375 0.00324721 0
1e-08 0 0
1e-08 0 0
1e-08 0 0
1e-08 0 0
1e-08 0 0
1e-08 0 0
1e-08 0 0
1e-08 0 0
-0.00389023 -0.00668624 0
1e-08 0 0
1e-08 0 0
1e-08 0 0
1e-08 0 0
-0.00561908 0.00146564 0
1e-08 0 0
1e-08 0 0
1e-08 0 0
1e-08 0 0
1e-08 0 0
1e-08 0 0
-0.00426809 -0.00545212 0
1e-08 0 0
1e-08 0 0
1e-08 0 0
-0.00637627 0.000832564 0
1e-08 0 0
1e-08 0 0
1e-08 0 0
1e-08 0 0
1e-08 0 0
1e-08 0 0
-0.00340228 -0.00339632 0
1e-08 0 0
1e-08 0 0
-0.0074207 -2.5259e-05 0
1e-08 0 0
1e-08 0 0
1e-08 0 0
1e-08 0 0
-0.00635326 -0.00490332 0
1e-08 0 0
-0.00627203 -0.000860095 0
1e-08 0 0
1e-08 0 0
-0.00524674 -0.0030259 0
-0.00535711 -0.00142185 0
-0.0072357 -0.00297322 0
