# vtk DataFile Version 2.0
CellBP Time: 7.36
ASCII
DATASET UNSTRUCTURED_GRID
POINTS 296 double
-8.9288 -3.66305 0
-8.36332 -4.80464 0
-9.33307 -2.45449 0
-9.59182 -1.21499 0
-8.25914 -2.77499 0
-7.65714 -5.86701 0
-6.81138 -6.82002 0
-7.81935 -3.8201 0
-7.24963 -4.8073 0
-5.86463 -7.66359 0
-4.81919 -8.37671 0
-9.67663 0.0465414 0
-9.60025 1.31573 0
-8.56637 -1.65832 0
-8.70234 -0.52113 0
-7.4941 -1.96943 0
-7.12783 -2.85861 0
-6.5621 -5.71952 0
-5.76502 -6.53852 0
-6.69645 -3.83107 0
-6.13927 -4.61732 0
-3.67778 -8.93847 0
-2.47107 -9.35571 0
-4.86689 -7.25176 0
-3.8911 -7.83108 0
-8.71573 0.633833 0
-9.36727 2.57291 0
-8.55345 1.75353 0
-8.95088 3.77665 0
-7.65539 -0.910791 0
-7.71161 0.0833011 0
-6.86718 -1.29202 0
-1.2154 -9.59678 0
-6.36357 -2.12051 0
-6.24027 -3.01151 0
-5.47145 -5.41694 0
-4.74615 -6.05896 0
-5.58894 -3.70899 0
-5.202 -4.50703 0
-2.84835 -8.30371 0
-1.76353 -8.57479 0
-3.89492 -6.66849 0
-3.03833 -7.09914 0
0.0524541 -9.67853 0
-7.62859 1.13104 0
-8.27937 2.89393 0
-7.4805 2.08676 0
-8.37323 4.90975 0
-7.81104 3.94137 0
-7.65956 5.96544 0
-6.701 -0.387083 0
-6.87904 0.549951 0
-5.71293 -0.991118 0
-0.5849 -8.73598 0
0.555765 -8.68679 0
-5.24846 -2.44993 0
-4.43684 -5.04066 0
-3.86043 -5.72056 0
-4.39331 -3.76524 0
-2.04683 -7.50311 0
-1.12691 -7.72019 0
-2.96687 -6.04892 0
-2.29304 -6.56681 0
1.31374 -9.58053 0
-6.62143 1.40551 0
-7.09986 3.08397 0
-6.59248 2.34689 0
-7.2222 4.93842 0
-6.64978 3.95865 0
-6.81689 6.91364 0
-6.5067 5.83181 0
-5.86335 7.75557 0
-4.42215 -1.17416 0
-5.76167 0.504827 0
-4.6246 -0.0171457 0
0.00165735 -7.77192 0
1.71194 -8.54991 0
0.928837 -7.67907 0
-4.01004 -2.38603 0
-3.47436 -1.38704 0
-3.26556 -4.76264 0
-3.24744 -3.24309 0
-1.37197 -6.61558 0
-0.512464 -6.95608 0
-1.962 -5.49362 0
2.55882 -9.3262 0
-5.4571 2.01895 0
-6.03313 3.03757 0
-6.04209 4.81428 0
-5.70148 3.94339 0
-5.70204 6.64294 0
-5.39471 5.55384 0
-4.81662 8.47792 0
-4.78683 7.32069 0
-3.48651 -0.423285 0
-4.41574 1.23947 0
-3.68994 0.588708 0
-4.0297 2.30903 0
-3.68172 9.04718 0
2.81867 -8.22972 0
0.402127 -6.71892 0
1.98594 -7.4327 0
1.27685 -6.82074 0
-2.4388 -0.869271 0
-2.8291 -2.12073 0
-2.28279 -4.06801 0
-2.31607 -2.95562 0
-0.445961 -5.80461 0
-1.21315 -4.46796 0
3.76747 -8.92917 0
-4.74442 3.35919 0
-5.03463 4.53977 0
-4.59636 6.20596 0
-4.49023 5.29561 0
-3.8088 7.91504 0
-3.78262 6.76108 0
-2.75374 8.33498 0
-1.64653 -0.133737 0
-1.44689 -0.886646 0
-2.48391 0.511013 0
-3.23492 1.44064 0
-3.2141 3.29375 0
-2.89332 2.36642 0
-1.35484 0.631168 0
-2.47123 9.44336 0
3.87913 -7.7882 0
2.91388 -7.05737 0
0.93337 -5.75605 0
2.03635 -6.33106 0
-1.677 -1.98555 0
-1.42666 -3.25859 0
0.086261 -4.70602 0
-0.559889 -3.67286 0
4.87065 -7.22518 0
4.90649 -8.36721 0
-3.74106 4.50535 0
-3.6954 5.68601 0
-2.85341 7.20486 0
-2.97718 6.2815 0
-1.64462 8.65085 0
-1.9162 7.53942 0
-2.32286 4.02161 0
-0.728495 -1.32385 0
-0.836363 -0.254011 0
-1.93387 1.68388 0
-2.11677 2.86643 0
-1.3037 3.52827 0
-0.871894 1.35465 0
-0.284658 0.459217 0
-0.527751 8.79606 0
-1.22001 9.69089 0
1.09706 -4.52926 0
3.84835 -6.61499 0
2.94045 -6.00934 0
2.08495 -5.35755 0
4.72249 -6.11638 0
-0.554937 -2.46771 0
0.493276 -3.44222 0
0.0542263 -1.60763 0
1.46655 -3.64954 0
5.8032 -6.53185 0
5.9597 -7.65198 0
-2.45322 5.29606 0
-2.10501 6.46358 0
-0.891356 7.7298 0
-1.25337 6.85987 0
0.0885724 7.81343 0
-1.13828 4.46317 0
0.148842 -0.614796 0
-0.801725 2.48906 0
-0.337307 3.58818 0
0.058215 1.51453 0
0.736721 0.474444 0
0.640708 8.80688 0
0.0469464 9.77808 0
2.3514 -4.23607 0
3.80594 -5.55919 0
2.95922 -5.14323 0
5.5141 -5.42063 0
4.63289 -5.20554 0
0.630119 -2.2887 0
1.2477 -2.93307 0
0.755856 -1.38927 0
2.14526 -3.10964 0
2.96452 -3.44054 0
6.0979 -4.73602 0
6.59458 -5.70632 0
6.91978 -6.81214 0
-1.00787 5.7672 0
-0.362754 6.81803 0
1.11475 7.71061 0
0.557746 7.0199 0
-0.00372406 4.69542 0
0.598909 3.81 0
1.33471 -0.641435 0
0.531884 2.64512 0
0.959008 1.57479 0
1.90323 0.212587 0
1.60703 1.06381 0
2.11645 7.52904 0
1.78748 8.65021 0
1.31818 9.69625 0
3.77958 -4.29556 0
5.06123 -4.38665 0
5.79191 -3.88722 0
3.74962 -3.16731 0
1.80475 -1.87921 0
2.99642 -2.55528 0
6.72902 -3.90987 0
7.32332 -4.85301 0
7.76544 -5.86477 0
0.481954 5.83493 0
1.41998 6.68984 0
2.36005 6.62061 0
1.20022 4.52923 0
1.47852 3.38093 0
2.4247 -0.690458 0
2.81481 0.142655 0
1.77935 2.1572 0
2.60177 1.14682 0
3.05382 7.11895 0
2.88874 8.31907 0
2.57399 9.45965 0
4.86587 -3.28735 0
6.06995 -3.07453 0
4.14193 -2.25793 0
3.22501 -1.4967 0
6.68328 -2.29573 0
7.18094 -3.02116 0
7.91045 -3.88745 0
8.47707 -4.81743 0
2.01168 5.56004 0
3.05786 6.10409 0
2.35212 4.10009 0
2.40871 3.04415 0
3.50547 -0.457019 0
3.59643 0.614121 0
2.94639 2.27629 0
3.52323 1.51799 0
3.96902 5.84644 0
3.95088 6.74035 0
3.95167 7.88445 0
3.78275 9.04704 0
5.52818 -1.90031 0
4.47958 -1.12102 0
6.66248 -1.32469 0
7.53837 -2.02036 0
8.33948 -2.84348 0
9.05244 -3.68443 0
3.38374 4.83511 0
3.31152 3.35946 0
4.6592 0.132477 0
4.4812 1.29915 0
4.02757 2.42251 0
4.5129 5.10054 0
4.79305 6.13667 0
4.94029 7.32452 0
4.92549 8.486 0
5.83462 -0.433324 0
6.95033 -0.48717 0
7.70142 -1.07315 0
8.62265 -1.73024 0
9.44568 -2.46911 0
4.49936 3.78853 0
5.75855 1.08206 0
5.30905 2.50401 0
5.30745 4.56753 0
5.54514 5.46827 0
5.83802 6.61439 0
5.97023 7.77084 0
6.77754 0.451037 0
7.78523 -0.0275012 0
8.79326 -0.574345 0
9.70155 -1.21618 0
6.88307 1.32537 0
5.64556 3.73164 0
6.46137 2.16317 0
6.29615 3.04409 0
6.20851 4.63089 0
6.61557 5.77898 0
6.91834 6.92501 0
7.70731 0.951931 0
8.78194 0.566678 0
9.78011 0.0539738 0
7.5299 1.97388 0
6.73161 3.84816 0
7.17555 2.90243 0
7.2915 4.8311 0
7.76299 5.96948 0
8.63479 1.70444 0
9.68021 1.31602 0
8.323 2.79918 0
7.89083 3.8694 0
8.46437 4.90741 0
9.43117 2.5629 0
9.03029 3.76953 0
CELLS 542 2168
3 2 0 4
3 0 1 7
3 4 0 7
3 1 5 8
3 7 1 8
3 3 2 13
3 13 2 4
3 11 3 14
3 14 3 13
3 13 4 15
3 4 7 16
3 15 4 16
3 5 6 17
3 8 5 17
3 6 9 18
3 17 6 18
3 7 8 19
3 16 7 19
3 8 17 20
3 19 8 20
3 9 10 23
3 18 9 23
3 10 21 24
3 23 10 24
3 12 11 25
3 25 11 14
3 26 12 27
3 27 12 25
3 14 13 29
3 29 13 15
3 25 14 30
3 30 14 29
3 29 15 31
3 15 16 33
3 31 15 33
3 16 19 34
3 33 16 34
3 17 18 35
3 20 17 35
3 18 23 36
3 35 18 36
3 19 20 37
3 34 19 37
3 20 35 38
3 37 20 38
3 21 22 39
3 24 21 39
3 22 32 40
3 39 22 40
3 23 24 41
3 36 23 41
3 24 39 42
3 41 24 42
3 27 25 44
3 44 25 30
3 28 26 45
3 45 26 27
3 45 27 46
3 46 27 44
3 47 28 48
3 48 28 45
3 30 29 50
3 50 29 31
3 44 30 51
3 51 30 50
3 50 31 52
3 31 33 52
3 32 43 53
3 40 32 53
3 53 43 54
3 33 34 55
3 34 37 55
3 33 55 52
3 35 36 56
3 38 35 56
3 36 41 57
3 56 36 57
3 37 38 58
3 38 56 58
3 37 58 55
3 39 40 59
3 42 39 59
3 40 53 60
3 59 40 60
3 41 42 61
3 57 41 61
3 42 59 62
3 61 42 62
3 43 63 54
3 46 44 64
3 64 44 51
3 48 45 65
3 65 45 46
3 65 46 66
3 66 46 64
3 49 47 67
3 67 47 48
3 67 48 68
3 68 48 65
3 69 49 70
3 70 49 67
3 52 55 72
3 64 51 73
3 51 50 73
3 50 52 73
3 73 52 74
3 74 52 72
3 53 54 75
3 60 53 75
3 54 63 76
3 54 76 77
3 75 54 77
3 55 58 78
3 72 55 78
3 72 78 79
3 56 57 80
3 57 61 80
3 56 80 58
3 58 80 81
3 78 58 81
3 59 60 82
3 62 59 82
3 60 75 83
3 82 60 83
3 61 62 84
3 62 82 84
3 61 84 80
3 63 85 76
3 66 64 86
3 64 73 86
3 68 65 87
3 87 65 66
3 87 66 86
3 70 67 88
3 88 67 68
3 88 68 89
3 89 68 87
3 71 69 90
3 90 69 70
3 90 70 91
3 91 70 88
3 92 71 93
3 93 71 90
3 74 72 94
3 94 72 79
3 86 73 95
3 95 73 74
3 95 74 96
3 96 74 94
3 97 86 95
3 76 85 99
3 75 77 100
3 83 75 100
3 76 99 101
3 77 76 101
3 77 101 102
3 100 77 102
3 94 79 103
3 78 81 104
3 79 78 104
3 79 104 103
3 80 84 105
3 81 80 105
3 81 105 106
3 104 81 106
3 82 83 107
3 83 100 107
3 82 107 84
3 84 107 108
3 105 84 108
3 85 109 99
3 89 87 110
3 87 86 110
3 110 86 97
3 91 88 111
3 111 88 89
3 111 89 110
3 93 90 112
3 112 90 91
3 112 91 113
3 113 91 111
3 98 92 114
3 114 92 93
3 114 93 115
3 115 93 112
3 116 98 114
3 117 103 118
3 96 94 119
3 94 103 119
3 119 103 117
3 97 95 120
3 120 95 96
3 120 96 119
3 121 110 97
3 121 97 122
3 122 97 120
3 123 119 117
3 124 98 116
3 99 109 125
3 99 125 126
3 101 99 126
3 100 102 127
3 100 127 107
3 101 126 128
3 102 101 128
3 102 128 127
3 104 106 129
3 104 129 103
3 103 129 118
3 105 108 130
3 106 105 130
3 106 130 129
3 107 127 131
3 108 107 131
3 108 131 132
3 108 132 130
3 109 134 125
3 125 134 133
3 113 111 135
3 111 110 135
3 135 110 121
3 115 112 136
3 136 112 113
3 136 113 135
3 116 114 137
3 137 114 115
3 137 115 138
3 138 115 136
3 139 124 116
3 139 116 140
3 140 116 137
3 141 135 121
3 118 129 142
3 118 142 143
3 117 118 143
3 123 117 143
3 122 120 144
3 120 119 144
3 144 119 123
3 141 121 145
3 145 121 122
3 145 122 144
3 146 141 145
3 147 144 123
3 147 123 148
3 143 148 123
3 150 124 139
3 149 150 139
3 131 127 151
3 125 133 152
3 126 125 152
3 126 152 153
3 128 126 153
3 128 153 154
3 128 154 127
3 127 154 151
3 152 133 155
3 130 132 156
3 130 156 129
3 129 156 142
3 131 151 157
3 132 131 157
3 132 157 156
3 156 158 142
3 157 151 159
3 133 160 155
3 134 161 133
3 133 161 160
3 138 136 162
3 136 135 162
3 162 135 141
3 140 137 163
3 163 137 138
3 163 138 162
3 149 139 164
3 164 139 140
3 164 140 165
3 165 140 163
3 166 149 164
3 167 162 141
3 167 141 146
3 142 158 168
3 143 142 168
3 143 168 148
3 146 145 169
3 145 144 169
3 169 144 147
3 170 167 146
3 170 146 169
3 171 169 147
3 171 147 148
3 171 148 172
3 168 172 148
3 173 149 166
3 174 150 149
3 173 174 149
3 154 175 151
3 151 175 159
3 152 155 176
3 153 152 176
3 153 176 177
3 153 177 154
3 154 177 175
3 155 160 178
3 155 178 179
3 176 155 179
3 156 157 180
3 156 180 158
3 157 159 181
3 157 181 180
3 158 180 182
3 158 182 168
3 159 175 183
3 159 183 181
3 175 184 183
3 160 186 178
3 178 186 185
3 161 187 160
3 160 187 186
3 165 163 188
3 163 162 188
3 188 162 167
3 166 164 189
3 189 164 165
3 189 165 188
3 190 173 166
3 190 166 191
3 191 166 189
3 192 188 167
3 192 167 170
3 193 192 170
3 182 194 168
3 194 172 168
3 193 170 195
3 170 169 195
3 195 169 171
3 196 195 171
3 196 171 172
3 194 197 172
3 197 198 172
3 198 196 172
3 200 173 190
3 199 200 190
3 201 174 173
3 200 201 173
3 176 179 202
3 177 176 202
3 177 202 175
3 175 202 184
3 178 185 203
3 178 203 179
3 179 203 202
3 203 185 204
3 202 205 184
3 183 206 181
3 180 181 206
3 180 206 182
3 182 206 194
3 183 184 207
3 205 207 184
3 183 207 206
3 185 208 204
3 186 209 185
3 185 209 208
3 187 210 186
3 186 210 209
3 191 189 211
3 189 188 211
3 211 188 192
3 199 190 212
3 212 190 191
3 212 191 211
3 213 199 212
3 214 211 192
3 214 192 193
3 215 214 193
3 215 193 195
3 206 216 194
3 216 197 194
3 216 217 197
3 215 195 218
3 218 195 196
3 198 218 196
3 217 219 197
3 219 218 198
3 197 219 198
3 220 199 213
3 221 200 199
3 220 221 199
3 222 201 200
3 221 222 200
3 203 204 223
3 203 223 202
3 202 223 205
3 204 208 224
3 204 224 223
3 205 223 225
3 205 225 207
3 207 225 226
3 207 226 206
3 226 216 206
3 208 228 224
3 224 228 227
3 209 229 208
3 229 228 208
3 210 230 209
3 209 230 229
3 213 212 231
3 212 211 231
3 231 211 214
3 232 220 213
3 232 213 231
3 233 231 214
3 233 214 215
3 234 233 215
3 234 215 218
3 226 235 216
3 235 217 216
3 235 236 217
3 217 236 219
3 237 234 218
3 237 218 219
3 236 238 219
3 238 237 219
3 240 220 232
3 239 240 232
3 241 221 220
3 240 241 220
3 242 222 221
3 241 242 221
3 224 227 243
3 224 243 223
3 223 243 225
3 225 243 244
3 225 244 226
3 226 244 235
3 227 245 243
3 228 246 227
3 227 246 245
3 229 247 228
3 228 247 246
3 230 248 229
3 229 248 247
3 239 232 249
3 232 231 249
3 249 231 233
3 250 249 233
3 250 233 234
3 237 250 234
3 244 251 235
3 235 251 236
3 251 252 236
3 236 252 238
3 252 253 238
3 253 250 237
3 253 237 238
3 254 239 249
3 255 240 239
3 254 255 239
3 256 241 240
3 255 256 240
3 257 242 241
3 256 257 241
3 245 258 243
3 243 258 244
3 244 258 251
3 245 259 258
3 246 260 245
3 245 260 259
3 247 261 246
3 246 261 260
3 248 262 247
3 247 262 261
3 254 249 263
3 263 249 250
3 253 263 250
3 258 264 251
3 251 264 252
3 264 265 252
3 265 263 253
3 252 265 253
3 266 254 263
3 267 255 254
3 266 267 254
3 268 256 255
3 267 268 255
3 269 257 256
3 268 269 256
3 259 270 258
3 270 264 258
3 260 271 259
3 259 271 270
3 261 272 260
3 260 272 271
3 262 273 261
3 273 272 261
3 270 274 264
3 275 266 263
3 275 263 265
3 274 276 264
3 276 265 264
3 276 277 265
3 277 275 265
3 278 267 266
3 275 278 266
3 279 268 267
3 278 279 267
3 280 269 268
3 279 280 268
3 271 281 270
3 270 281 274
3 272 282 271
3 271 282 281
3 273 283 272
3 272 283 282
3 281 284 274
3 274 284 276
3 285 278 275
3 277 285 275
3 284 286 276
3 286 285 277
3 276 286 277
3 287 279 278
3 285 287 278
3 288 280 279
3 287 288 279
3 282 289 281
3 281 289 284
3 283 290 282
3 282 290 289
3 289 291 284
3 284 291 286
3 291 292 286
3 292 287 285
3 286 292 285
3 293 288 287
3 292 293 287
3 290 294 289
3 289 294 291
3 294 295 291
3 295 293 292
3 291 295 292
CELL_TYPES 542
5
5
5
5
5
5
5
5
5
5
5
5
5
5
5
5
5
5
5
5
5
5
5
5
5
5
5
5
5
5
5
5
5
5
5
5
5
5
5
5
5
5
5
5
5
5
5
5
5
5
5
5
5
5
5
5
5
5
5
5
5
5
5
5
5
5
5
5
5
5
5
5
5
5
5
5
5
5
5
5
5
5
5
5
5
5
5
5
5
5
5
5
5
5
5
5
5
5
5
5
5
5
5
5
5
5
5
5
5
5
5
5
5
5
5
5
5
5
5
5
5
5
5
5
5
5
5
5
5
5
5
5
5
5
5
5
5
5
5
5
5
5
5
5
5
5
5
5
5
5
5
5
5
5
5
5
5
5
5
5
5
5
5
5
5
5
5
5
5
5
5
5
5
5
5
5
5
5
5
5
5
5
5
5
5
5
5
5
5
5
5
5
5
5
5
5
5
5
5
5
5
5
5
5
5
5
5
5
5
5
5
5
5
5
5
5
5
5
5
5
5
5
5
5
5
5
5
5
5
5
5
5
5
5
5
5
5
5
5
5
5
5
5
5
5
5
5
5
5
5
5
5
5
5
5
5
5
5
5
5
5
5
5
5
5
5
5
5
5
5
5
5
5
5
5
5
5
5
5
5
5
5
5
5
5
5
5
5
5
5
5
5
5
5
5
5
5
5
5
5
5
5
5
5
5
5
5
5
5
5
5
5
5
5
5
5
5
5
5
5
5
5
5
5
5
5
5
5
5
5
5
5
5
5
5
5
5
5
5
5
5
5
5
5
5
5
5
5
5
5
5
5
5
5
5
5
5
5
5
5
5
5
5
5
5
5
5
5
5
5
5
5
5
5
5
5
5
5
5
5
5
5
5
5
5
5
5
5
5
5
5
5
5
5
5
5
5
5
5
5
5
5
5
5
5
5
5
5
5
5
5
5
5
5
5
5
5
5
5
5
5
5
5
5
5
5
5
5
5
5
5
5
5
5
5
5
5
5
5
5
5
5
5
5
5
5
5
5
5
5
5
5
5
5
5
5
5
5
5
5
5
5
5
5
5
5
5
5
5
5
5
5
5
5
5
5
5
5
5
5
5
5
5
5
5
5
5
5
5
5
5
5
5
5
5
5
5
5
5
5
5
5
5
5
5
5
5
5
5
5
5
5
5
5
5
5
5
5
5
5
5
5
5
5
5
5
5
5
5
5
5
5
5
5
5
5
5
5
5
5
5
5
POINT_DATA 296
SCALARS concentrations float 4
LOOKUP_TABLE default
0 0.945887 0.103199 32.7925
0 0.945683 0.108363 95.8672
0 0.945898 0.100833 23.0109
0 0.946096 0.106482 56.2011
0 0.94589 0.0924011 5.70784
0 0.945705 0.0975496 56.4948
0 0.94561 0.101716 46.9159
0 0.945813 0.0925889 12.7743
0 0.945706 0.0924176 14.4353
0 0.945306 0.0968589 67.6784
0 0.94529 0.0996043 79.9564
0 0.945828 0.108312 100.093
0 0.945845 0.100108 79.6579
0 0.945977 0.0923788 6.62458
0 0.94594 0.0931438 13.1906
0 0.94589 0.0914591 4.52299
0 0.945842 0.0911758 2.4481
0 0.945682 0.091996 11.1605
0 0.945482 0.09228 15.0458
0 0.945783 0.091376 4.14976
0 0.945703 0.0915976 7.45117
0 0.945519 0.102364 84.5491
0 0.945536 0.101718 3.28552
0 0.945321 0.0919493 10.4533
0 0.945424 0.0917577 7.28278
0 0.945787 0.0926613 12.3516
0 0.945964 0.0988862 9.01691
0 0.945853 0.092366 9.75026
0 0.946027 0.10318 66.5292
0 0.945874 0.0914142 3.82921
0 0.945805 0.0913727 1.8566
0 0.945792 0.0912307 3.33589
0 0.945843 0.100225 8.51374
0 0.945776 0.0910848 1.86321
0 0.945766 0.0910585 0.968819
0 0.945596 0.091548 6.3569
0 0.945471 0.0914985 5.73617
0 0.945707 0.0912204 2.6598
0 0.945645 0.0913614 4.25271
0 0.945513 0.0915354 3.48703
0 0.945634 0.0922437 1.99816
0 0.945431 0.0913154 3.58173
0 0.945469 0.0911632 2.08948
0 0.945936 0.110214 42.5842
0 0.945743 0.0913589 1.5003
0 0.945888 0.0922576 5.51426
0 0.945737 0.0913033 1.91927
0 0.946124 0.107775 117.261
0 0.945958 0.0924496 12.3988
0 0.945976 0.104203 50.2437
0 0.945737 0.0911244 2.32026
0 0.945702 0.0910939 1.34794
0 0.945691 0.0910702 1.91008
0 0.945843 0.0933119 2.33589
0 0.94569 0.0933601 6.10406
0 0.945687 0.0909858 1.07866
0 0.945573 0.0912925 2.80912
0 0.945507 0.0912477 1.89795
0 0.94563 0.0911291 1.23691
0 0.945548 0.0912875 0.706188
0 0.945645 0.0916252 1.51673
0 0.945508 0.0911243 0.40024
0 0.945525 0.0910317 0.372007
0 0.945484 0.0994196 18.6624
0 0.94565 0.0910043 0.669584
0 0.945744 0.0912495 3.62078
0 0.94564 0.0910644 1.76736
0 0.945931 0.0925937 12.3735
0 0.945746 0.0912959 1.97366
0 0.946 0.0955379 54.2974
0 0.945879 0.0926468 6.96223
0 0.945918 0.100621 5.17663
0 0.945646 0.091039 0.856421
0 0.94564 0.0910494 0.932142
0 0.945625 0.0910757 0.760343
0 0.945663 0.0918218 2.11366
0 0.94538 0.0921518 4.96562
0 0.945561 0.0917557 2.71549
0 0.945632 0.0910309 0.560348
0 0.945613 0.0910329 0.601988
0 0.945568 0.0911513 1.40509
0 0.9456 0.091102 1.03655
0 0.945572 0.0910669 0.587234
0 0.945607 0.0913445 1.74379
0 0.94556 0.0910679 1.3893
0 0.945221 0.101248 36.078
0 0.945592 0.0910732 0.862392
0 0.94562 0.0910497 1.47262
0 0.945735 0.0914474 2.1413
0 0.945626 0.091177 1.2989
0 0.945872 0.092353 5.64267
0 0.945717 0.0914795 0.616544
0 0.945728 0.100495 56.6347
0 0.945751 0.092121 8.69063
0 0.945602 0.0910307 0.672085
0 0.94559 0.0910679 0.662916
0 0.945587 0.0910448 0.646082
0 0.945559 0.0910702 0.525973
0 0.945525 0.096946 8.14016
0 0.945301 0.092372 11.6303
0 0.945594 0.0913601 1.65997
0 0.945453 0.0914915 2.6792
0 0.945551 0.0913992 1.94003
0 0.945592 0.0909953 0.644288
0 0.945602 0.0910471 0.603653
0 0.945579 0.0910982 1.43553
0 0.945593 0.091061 0.815054
0 0.945583 0.0910324 0.333242
0 0.945582 0.0910212 1.1014
0 0.945219 0.104247 36.8965
0 0.945566 0.0909979 0.695191
0 0.945605 0.0911394 0.869585
0 0.945676 0.0912118 1.73087
0 0.945603 0.09114 0.947656
0 0.945595 0.0920753 8.35022
0 0.945592 0.0911432 1.50485
0 0.945447 0.0917387 3.60217
0 0.945579 0.0909808 0.63686
0 0.945588 0.0909791 0.702042
0 0.945576 0.0909844 0.657276
0 0.945564 0.0910348 0.545928
0 0.945541 0.0909896 0.351028
0 0.945547 0.0910327 0.416814
0 0.945567 0.0909717 0.563655
0 0.94539 0.100492 58.0114
0 0.94526 0.0928063 14.133
0 0.945411 0.0913822 2.67791
0 0.945583 0.0911097 1.01162
0 0.945525 0.0912409 1.68716
0 0.945594 0.0909906 0.545622
0 0.945591 0.0910169 0.674583
0 0.945594 0.0909615 0.344384
0 0.945597 0.0909891 0.756061
0 0.945255 0.0924255 4.19514
0 0.945133 0.103948 66.3519
0 0.945546 0.0909946 0.451382
0 0.945559 0.0910288 0.831529
0 0.945504 0.0912706 2.03539
0 0.945522 0.0910506 0.759062
0 0.94546 0.0924447 2.22445
0 0.945473 0.091208 1.96489
0 0.945524 0.0910015 0.254479
0 0.945594 0.0909637 0.733982
0 0.945582 0.0909695 0.672905
0 0.945553 0.0909802 0.46154
0 0.945535 0.090989 0.304469
0 0.945525 0.0909939 0.493682
0 0.945556 0.0909661 0.389376
0 0.945573 0.0909687 0.533226
0 0.945569 0.0928486 10.036
0 0.94554 0.108092 75.579
0 0.945604 0.0909536 0.540603
0 0.945403 0.0914122 4.88045
0 0.945511 0.091161 1.88475
0 0.945582 0.0910383 1.16841
0 0.945406 0.0915519 5.0062
0 0.945601 0.0909657 0.571633
0 0.945608 0.0909446 0.452919
0 0.945603 0.0909579 0.786404
0 0.94562 0.0909667 0.549834
0 0.945297 0.0923463 11.8842
0 0.945226 0.100877 13.0821
0 0.945517 0.0909945 0.174928
0 0.945495 0.0910353 1.20442
0 0.945498 0.091253 3.66876
0 0.94549 0.0911417 2.6388
0 0.94558 0.0913591 4.94476
0 0.945514 0.0910147 1.06566
0 0.945592 0.0909586 0.630491
0 0.94554 0.0909649 0.0496419
0 0.945525 0.0910751 1.35551
0 0.945557 0.0909734 0.541243
0 0.94558 0.0909823 0.68599
0 0.945696 0.0924897 11.2591
0 0.945645 0.107273 67.8353
0 0.945612 0.0909963 0.79147
0 0.945521 0.0911725 1.92685
0 0.94558 0.0910348 0.989434
0 0.945409 0.0916638 7.25542
0 0.945519 0.0913605 3.6019
0 0.945614 0.0909642 0.761188
0 0.945624 0.0909657 0.574846
0 0.94561 0.0909652 0.731636
0 0.945631 0.0909951 0.481854
0 0.945628 0.0910387 0.511603
0 0.945365 0.0917842 8.96147
0 0.945238 0.0925662 16.7612
0 0.945205 0.0987975 2.52481
0 0.945508 0.0910663 1.86853
0 0.945521 0.0911761 3.57392
0 0.945663 0.0914216 4.31555
0 0.945568 0.0911681 3.76689
0 0.945518 0.0910966 1.99388
0 0.945527 0.0910858 1.54713
0 0.945603 0.0909856 0.714993
0 0.945539 0.0909947 0.440344
0 0.945558 0.0910091 0.759406
0 0.945589 0.0910159 0.80955
0 0.945569 0.0910234 0.849486
0 0.945728 0.0914995 4.06135
0 0.945829 0.092267 10.6312
0 0.945849 0.100552 101.762
0 0.945592 0.0911024 1.06327
0 0.94553 0.0913915 4.44163
0 0.945504 0.0914743 5.82614
0 0.945627 0.0910416 0.538609
0 0.945624 0.0909893 0.702154
0 0.945635 0.0910164 0.352612
0 0.945352 0.0916647 7.35873
0 0.945128 0.0926038 14.3043
0 0.945088 0.103379 120.712
0 0.945536 0.0911183 2.68937
0 0.945599 0.0911236 2.50275
0 0.945633 0.0912004 1.31124
0 0.945532 0.0911108 1.90508
0 0.945534 0.0910475 0.991252
0 0.945612 0.0910052 0.799081
0 0.945591 0.0910289 0.867487
0 0.945547 0.0910235 0.650522
0 0.945565 0.0910596 1.03097
0 0.945731 0.0915829 4.81234
0 0.945897 0.0923789 10.2861
0 0.945958 0.0999809 69.8525
0 0.9456 0.0911605 1.85184
0 0.945552 0.091256 3.4177
0 0.945629 0.0910312 0.311039
0 0.945626 0.0910035 0.635326
0 0.945602 0.0911959 2.944
0 0.945458 0.0915618 6.16488
0 0.945097 0.0924427 6.40752
0 0.944897 0.10189 128.885
0 0.945559 0.0910925 1.7771
0 0.945605 0.0912494 2.11526
0 0.945537 0.0910759 1.23761
0 0.945535 0.0910392 0.61366
0 0.945605 0.091005 0.773365
0 0.945576 0.0910356 0.868918
0 0.945541 0.0910487 0.703066
0 0.94555 0.0910858 1.27632
0 0.945582 0.0913294 3.72942
0 0.945661 0.091692 6.48647
0 0.945809 0.0924171 11.8221
0 0.945983 0.0996189 2.9234
0 0.945619 0.091015 0.615684
0 0.945617 0.0909854 0.50614
0 0.945647 0.0911168 2.30726
0 0.945657 0.0916123 6.09626
0 0.945482 0.0928681 14.3081
0 0.945072 0.104916 27.7075
0 0.945545 0.0910072 0.809844
0 0.945528 0.091004 0.279241
0 0.945583 0.0910049 0.92031
0 0.945541 0.0910782 1.50013
0 0.945522 0.091112 1.70441
0 0.945538 0.091214 3.05196
0 0.945594 0.0915563 6.66567
0 0.945628 0.0924034 13.5965
0 0.945725 0.100844 132.747
0 0.945602 0.0910378 1.6709
0 0.945631 0.0912753 3.20621
0 0.945738 0.0916328 5.47094
0 0.945945 0.093421 17.0645
0 0.945832 0.106 68.436
0 0.945509 0.0910057 0.85564
0 0.945534 0.0911476 2.37367
0 0.945495 0.0910722 1.54161
0 0.945499 0.0912583 3.57711
0 0.945556 0.091541 6.26426
0 0.945623 0.0922956 11.7765
0 0.945603 0.0971315 12.9728
0 0.945552 0.0913085 3.55723
0 0.945594 0.0916144 5.5322
0 0.945819 0.0928697 14.7192
0 0.946121 0.105889 3.48413
0 0.945467 0.091314 3.39473
0 0.945463 0.0910995 2.2473
0 0.945447 0.0911553 1.84392
0 0.945431 0.0910736 1.90884
0 0.945484 0.0915835 6.51781
0 0.945642 0.0922452 10.0167
0 0.94572 0.0975002 12.3013
0 0.945417 0.0915899 6.01369
0 0.945355 0.0929039 15.7276
0 0.945576 0.102055 97.9411
0 0.945358 0.0914986 5.24936
0 0.945407 0.0913228 4.9669
0 0.945373 0.0913839 4.86871
0 0.945444 0.0922508 11.53
0 0.945628 0.104257 17.2586
0 0.945194 0.0925129 11.6046
0 0.945075 0.103162 5.7935
0 0.945351 0.0921674 10.1748
0 0.945366 0.0920453 11.9275
0 0.945336 0.104777 125.455
0 0.945202 0.0997055 22.2381
0 0.945416 0.0990508 68.0934
VECTORS fa_u float
0.00679227 0.00280271 -0
0.00543936 0.00313846 -0
0.00518626 0.00140463 -0
0.00749923 0.00103014 -0
1e-08 0 0
0.00599494 0.00461641 -0
0.00380871 0.00380005 -0
1e-08 0 0
1e-08 0 0
0.00404341 0.00517459 -0
0.0039441 0.00676549 -0
0.00636165 2.11695e-05 -0
0.00588249 -0.000720311 0
1e-08 0 0
1e-08 0 0
1e-08 0 0
1e-08 0 0
1e-08 0 0
1e-08 0 0
1e-08 0 0
1e-08 0 0
0.00233115 0.00559127 -0
0.00206424 0.00772123 -0
1e-08 0 0
1e-08 0 0
1e-08 0 0
0.00846034 -0.00223242 0
1e-08 0 0
0.00689951 -0.00293489 0
1e-08 0 0
1e-08 0 0
1e-08 0 0
0.000778845 0.00608833 -0
1e-08 0 0
1e-08 0 0
1e-08 0 0
1e-08 0 0
1e-08 0 0
1e-08 0 0
1e-08 0 0
1e-08 0 0
1e-08 0 0
1e-08 0 0
-5.08248e-05 0.00791096 -0
1e-08 0 0
1e-08 0 0
1e-08 0 0
0.0051018 -0.00300994 0
1e-08 0 0
0.0053985 -0.00419281 0
1e-08 0 0
1e-08 0 0
1e-08 0 0
1e-08 0 0
1e-08 0 0
1e-08 0 0
1e-08 0 0
1e-08 0 0
1e-08 0 0
1e-08 0 0
1e-08 0 0
1e-08 0 0
1e-08 0 0
-0.000840749 0.0059809 0
1e-08 0 0
1e-08 0 0
1e-08 0 0
1e-08 0 0
1e-08 0 0
0.00405176 -0.0040655 0
1e-08 0 0
0.00343462 -0.0043919 0
1e-08 0 0
1e-08 0 0
1e-08 0 0
1e-08 0 0
1e-08 0 0
1e-08 0 0
1e-08 0 0
1e-08 0 0
1e-08 0 0
1e-08 0 0
1e-08 0 0
1e-08 0 0
1e-08 0 0
-0.00135131 0.00509048 0
1e-08 0 0
1e-08 0 0
1e-08 0 0
1e-08 0 0
1e-08 0 0
1e-08 0 0
0.00386442 -0.00652732 0
1e-08 0 0
1e-08 0 0
1e-08 0 0
1e-08 0 0
1e-08 0 0
0.00329049 -0.00799369 0
1e-08 0 0
1e-08 0 0
1e-08 0 0
1e-08 0 0
1e-08 0 0
1e-08 0 0
1e-08 0 0
1e-08 0 0
1e-08 0 0
1e-08 0 0
-0.00294273 0.00720395 0
1e-08 0 0
1e-08 0 0
1e-08 0 0
1e-08 0 0
1e-08 0 0
1e-08 0 0
1e-08 0 0
1e-08 0 0
1e-08 0 0
1e-08 0 0
1e-08 0 0
1e-08 0 0
1e-08 0 0
1e-08 0 0
0.00144856 -0.00553961 0
1e-08 0 0
1e-08 0 0
1e-08 0 0
1e-08 0 0
1e-08 0 0
1e-08 0 0
1e-08 0 0
1e-08 0 0
1e-08 0 0
-0.00376655 0.00646509 0
1e-08 0 0
1e-08 0 0
1e-08 0 0
1e-08 0 0
1e-08 0 0
1e-08 0 0
1e-08 0 0
1e-08 0 0
1e-08 0 0
1e-08 0 0
1e-08 0 0
1e-08 0 0
1e-08 0 0
1e-08 0 0
1e-08 0 0
0.000826864 -0.00622077 0
1e-08 0 0
1e-08 0 0
1e-08 0 0
1e-08 0 0
1e-08 0 0
1e-08 0 0
1e-08 0 0
1e-08 0 0
1e-08 0 0
1e-08 0 0
-0.00356707 0.00461816 0
1e-08 0 0
1e-08 0 0
1e-08 0 0
1e-08 0 0
1e-08 0 0
1e-08 0 0
1e-08 0 0
1e-08 0 0
1e-08 0 0
1e-08 0 0
1e-08 0 0
1e-08 0 0
1.46289e-05 -0.00692689 0
1e-08 0 0
1e-08 0 0
1e-08 0 0
1e-08 0 0
1e-08 0 0
1e-08 0 0
1e-08 0 0
1e-08 0 0
1e-08 0 0
1e-08 0 0
1e-08 0 0
1e-08 0 0
-0.00419266 0.00423612 0
1e-08 0 0
1e-08 0 0
1e-08 0 0
1e-08 0 0
1e-08 0 0
1e-08 0 0
1e-08 0 0
1e-08 0 0
1e-08 0 0
1e-08 0 0
1e-08 0 0
1e-08 0 0
1e-08 0 0
-0.000726292 -0.0057638 0
1e-08 0 0
1e-08 0 0
1e-08 0 0
1e-08 0 0
1e-08 0 0
1e-08 0 0
1e-08 0 0
1e-08 0 0
-0.00538922 0.00420743 0
1e-08 0 0
1e-08 0 0
1e-08 0 0
1e-08 0 0
1e-08 0 0
1e-08 0 0
1e-08 0 0
1e-08 0 0
1e-08 0 0
1e-08 0 0
1e-08 0 0
-0.00202214 -0.00767654 0
1e-08 0 0
1e-08 0 0
1e-08 0 0
1e-08 0 0
1e-08 0 0
1e-08 0 0
1e-08 0 0
-0.00545017 0.0032171 0
1e-08 0 0
1e-08 0 0
1e-08 0 0
1e-08 0 0
1e-08 0 0
1e-08 0 0
1e-08 0 0
1e-08 0 0
1e-08 0 0
1e-08 0 0
1e-08 0 0
-0.00242812 -0.00586424 0
1e-08 0 0
1e-08 0 0
1e-08 0 0
1e-08 0 0
1e-08 0 0
-0.00889068 0.00366715 0
1e-08 0 0
1e-08 0 0
1e-08 0 0
1e-08 0 0
1e-08 0 0
1e-08 0 0
1e-08 0 0
1e-08 0 0
-0.00409113 -0.00701238 0
1e-08 0 0
1e-08 0 0
1e-08 0 0
1e-08 0 0
-0.00469117 0.00123372 0
1e-08 0 0
1e-08 0 0
1e-08 0 0
1e-08 0 0
1e-08 0 0
1e-08 0 0
-0.00397951 -0.00508047 0
1e-08 0 0
1e-08 0 0
1e-08 0 0
-0.00754938 0.00100066 0
1e-08 0 0
1e-08 0 0
1e-08 0 0
1e-08 0 0
1e-08 0 0
1e-08 0 0
-0.00389634 -0.00387775 0
1e-08 0 0
1e-08 0 0
-0.00777322 -6.55101e-05 0
1e-08 0 0
1e-08 0 0
1e-08 0 0
1e-08 0 0
-0.00610148 -0.00467538 0
1e-08 0 0
-0.00543225 -0.000755518 0
1e-08 0 0
1e-08 0 0
-0.00506418 -0.00291727 0
-0.00579075 -0.00153393 0
-0.00717613 -0.00295923 0
