# vtk DataFile Version 2.0
CellBP Time: 10.68
ASCII
DATASET UNSTRUCTURED_GRID
POINTS 296 double
-8.92496 -3.66156 0
-8.3641 -4.80532 0
-9.32841 -2.45309 0
-9.59124 -1.21474 0
-8.25937 -2.77516 0
-7.65667 -5.8668 0
-6.80937 -6.81819 0
-7.81936 -3.8201 0
-7.24932 -4.80708 0
-5.86611 -7.66568 0
-4.82051 -8.37883 0
-9.67277 0.0468992 0
-9.6095 1.31701 0
-8.5666 -1.6587 0
-8.70226 -0.521526 0
-7.49425 -1.96971 0
-7.12788 -2.85877 0
-6.56146 -5.71927 0
-5.76441 -6.53898 0
-6.69634 -3.83109 0
-6.139 -4.61726 0
-3.67831 -8.93951 0
-2.4709 -9.35492 0
-4.86714 -7.25215 0
-3.89127 -7.83096 0
-8.71578 0.633954 0
-9.36304 2.57151 0
-8.55368 1.75331 0
-8.95268 3.77724 0
-7.65547 -0.911098 0
-7.7117 0.0830911 0
-6.8673 -1.29227 0
-1.21525 -9.59618 0
-6.36364 -2.12068 0
-6.24024 -3.01162 0
-5.47114 -5.41702 0
-4.74598 -6.0591 0
-5.58884 -3.709 0
-5.20181 -4.50703 0
-2.84825 -8.30357 0
-1.76348 -8.57465 0
-3.89496 -6.66855 0
-3.03836 -7.09908 0
0.0525641 -9.67833 0
-7.62869 1.13095 0
-8.27929 2.89396 0
-7.48067 2.08677 0
-8.37766 4.9122 0
-7.81137 3.94207 0
-7.65665 5.96299 0
-6.70111 -0.387278 0
-6.87917 0.549808 0
-5.71306 -0.991213 0
-0.584652 -8.73607 0
0.555591 -8.68716 0
-5.24847 -2.45002 0
-4.43671 -5.04068 0
-3.86037 -5.72058 0
-4.39327 -3.76521 0
-2.0468 -7.50303 0
-1.1269 -7.72021 0
-2.96687 -6.04887 0
-2.29306 -6.56671 0
1.31412 -9.58201 0
-6.62162 1.40548 0
-7.10011 3.08416 0
-6.59274 2.34693 0
-7.22281 4.93816 0
-6.65006 3.95869 0
-6.81863 6.91531 0
-6.50654 5.83167 0
-5.86452 7.75695 0
-4.42226 -1.17414 0
-5.76187 0.50481 0
-4.62478 -0.0171048 0
0.00158126 -7.77193 0
1.71149 -8.54978 0
0.928604 -7.67902 0
-4.01008 -2.386 0
-3.47445 -1.38696 0
-3.26554 -4.76255 0
-3.24747 -3.24298 0
-1.37201 -6.61548 0
-0.512549 -6.95601 0
-1.96202 -5.49346 0
2.55856 -9.3248 0
-5.45736 2.01897 0
-6.0334 3.03757 0
-6.04233 4.81416 0
-5.70174 3.9433 0
-5.7021 6.64286 0
-5.39481 5.55365 0
-4.81845 8.48099 0
-4.78699 7.32036 0
-3.48662 -0.42323 0
-4.41594 1.23948 0
-3.69008 0.588733 0
-4.02991 2.30901 0
-3.67928 9.04123 0
2.81869 -8.22943 0
0.401967 -6.71878 0
1.98572 -7.43251 0
1.27665 -6.82055 0
-2.43887 -0.869203 0
-2.82916 -2.12063 0
-2.28282 -4.06785 0
-2.31611 -2.95549 0
-0.446038 -5.80445 0
-1.21316 -4.4678 0
3.76839 -8.93094 0
-4.74465 3.35911 0
-5.03484 4.53961 0
-4.59649 6.20566 0
-4.49038 5.29536 0
-3.80884 7.91436 0
-3.78272 6.7606 0
-2.75356 8.33461 0
-1.64658 -0.133681 0
-1.44693 -0.886566 0
-2.48398 0.511034 0
-3.23506 1.44064 0
-3.21423 3.29365 0
-2.89345 2.36638 0
-1.35488 0.631202 0
-2.4717 9.44423 0
3.87871 -7.78808 0
2.91362 -7.05705 0
0.933232 -5.75584 0
2.03614 -6.3308 0
-1.67704 -1.98544 0
-1.42669 -3.25845 0
0.08621 -4.70583 0
-0.559896 -3.6727 0
4.87042 -7.22472 0
4.90523 -8.36505 0
-3.74119 4.50516 0
-3.6955 5.68568 0
-2.85342 7.20441 0
-2.97722 6.2811 0
-1.64487 8.65049 0
-1.9162 7.53903 0
-2.32291 4.02143 0
-0.728519 -1.32374 0
-0.83639 -0.253938 0
-1.93393 1.68386 0
-2.11684 2.86635 0
-1.30371 3.52818 0
-0.871923 1.35466 0
-0.284674 0.459273 0
-0.527608 8.79574 0
-1.21966 9.68736 0
1.09697 -4.52905 0
3.8481 -6.61469 0
2.94025 -6.00904 0
2.08479 -5.35729 0
4.72226 -6.11604 0
-0.554951 -2.46757 0
0.493265 -3.44205 0
0.0542227 -1.60751 0
1.46649 -3.64934 0
5.80283 -6.53171 0
5.95745 -7.64916 0
-2.45326 5.29578 0
-2.10501 6.46323 0
-0.891383 7.72947 0
-1.25336 6.85954 0
0.0885335 7.81312 0
-1.13828 4.46303 0
0.14884 -0.614698 0
-0.801746 2.48903 0
-0.337282 3.58815 0
0.0581971 1.51454 0
0.736722 0.474511 0
0.640493 8.80664 0
0.0469324 9.7808 0
2.3513 -4.23584 0
3.80578 -5.5589 0
2.95906 -5.14295 0
5.51385 -5.4204 0
4.63276 -5.20524 0
0.630135 -2.28855 0
1.24769 -2.93289 0
0.755872 -1.38914 0
2.14525 -3.10944 0
2.96451 -3.44033 0
6.09768 -4.73574 0
6.59405 -5.70606 0
6.91887 -6.81121 0
-1.00786 5.767 0
-0.362737 6.81776 0
1.11467 7.71027 0
0.557747 7.01962 0
-0.00367796 4.69536 0
0.598961 3.80999 0
1.33473 -0.641324 0
0.531893 2.64512 0
0.959002 1.57481 0
1.90325 0.212678 0
1.60704 1.06387 0
2.11632 7.52861 0
1.7872 8.64972 0
1.31809 9.69706 0
3.77952 -4.29531 0
5.06115 -4.38637 0
5.79184 -3.88694 0
3.74966 -3.16709 0
1.80482 -1.87906 0
2.99649 -2.55509 0
6.7289 -3.9096 0
7.32312 -4.85258 0
7.76182 -5.86177 0
0.482014 5.8348 0
1.42002 6.6896 0
2.36007 6.6203 0
1.2003 4.52922 0
1.47858 3.38094 0
2.42476 -0.690339 0
2.81486 0.142754 0
1.77937 2.15722 0
2.6018 1.14688 0
3.05376 7.11847 0
2.88835 8.31835 0
2.57395 9.46017 0
4.86592 -3.28711 0
6.07001 -3.07427 0
4.14207 -2.25774 0
3.22513 -1.49656 0
6.68348 -2.2955 0
7.181 -3.02086 0
7.91015 -3.88732 0
8.48361 -4.82117 0
2.01181 5.55997 0
3.05798 6.10377 0
2.35223 4.1001 0
2.40878 3.04418 0
3.50557 -0.4569 0
3.59651 0.614205 0
2.94644 2.27632 0
3.52329 1.51802 0
3.96923 5.84609 0
3.95095 6.73979 0
3.95159 7.88364 0
3.78169 9.04483 0
5.52841 -1.90012 0
4.47975 -1.12088 0
6.66283 -1.32453 0
7.53878 -2.02007 0
8.33968 -2.8428 0
9.0427 -3.68058 0
3.38393 4.83498 0
3.31164 3.35942 0
4.65936 0.132566 0
4.48132 1.29916 0
4.02767 2.42245 0
4.51322 5.1003 0
4.79336 6.13623 0
4.94027 7.32377 0
4.92318 8.48218 0
5.83485 -0.433246 0
6.95069 -0.487134 0
7.70198 -1.07307 0
8.62362 -1.73002 0
9.44964 -2.47015 0
4.49958 3.78842 0
5.75874 1.08205 0
5.30923 2.50392 0
5.30786 4.56735 0
5.54558 5.46796 0
5.83861 6.61376 0
5.96989 7.77045 0
6.77779 0.451016 0
7.78563 -0.0275735 0
8.794 -0.574703 0
9.70518 -1.21651 0
6.88331 1.32535 0
5.6459 3.73153 0
6.46162 2.16313 0
6.29646 3.04401 0
6.20899 4.63076 0
6.61615 5.77887 0
6.91789 6.9244 0
7.70756 0.951918 0
8.78208 0.566579 0
9.78091 0.0539946 0
7.53018 1.97394 0
6.73206 3.84805 0
7.17593 2.90243 0
7.292 4.83104 0
7.76408 5.96993 0
8.63493 1.70452 0
9.68231 1.31615 0
8.32342 2.79943 0
7.89143 3.86945 0
8.4656 4.90772 0
9.435 2.56362 0
9.03293 3.77027 0
CELLS 542 2168
3 2 0 4
3 0 1 7
3 4 0 7
3 1 5 8
3 7 1 8
3 3 2 13
3 13 2 4
3 11 3 14
3 14 3 13
3 13 4 15
3 4 7 16
3 15 4 16
3 5 6 17
3 8 5 17
3 6 9 18
3 17 6 18
3 7 8 19
3 16 7 19
3 8 17 20
3 19 8 20
3 9 10 23
3 18 9 23
3 10 21 24
3 23 10 24
3 12 11 25
3 25 11 14
3 26 12 27
3 27 12 25
3 14 13 29
3 29 13 15
3 25 14 30
3 30 14 29
3 29 15 31
3 15 16 33
3 31 15 33
3 16 19 34
3 33 16 34
3 17 18 35
3 20 17 35
3 18 23 36
3 35 18 36
3 19 20 37
3 34 19 37
3 20 35 38
3 37 20 38
3 21 22 39
3 24 21 39
3 22 32 40
3 39 22 40
3 23 24 41
3 36 23 41
3 24 39 42
3 41 24 42
3 27 25 44
3 44 25 30
3 28 26 45
3 45 26 27
3 45 27 46
3 46 27 44
3 47 28 48
3 48 28 45
3 30 29 50
3 50 29 31
3 44 30 51
3 51 30 50
3 50 31 52
3 31 33 52
3 32 43 53
3 40 32 53
3 53 43 54
3 33 34 55
3 34 37 55
3 33 55 52
3 35 36 56
3 38 35 56
3 36 41 57
3 56 36 57
3 37 38 58
3 38 56 58
3 37 58 55
3 39 40 59
3 42 39 59
3 40 53 60
3 59 40 60
3 41 42 61
3 57 41 61
3 42 59 62
3 61 42 62
3 43 63 54
3 46 44 64
3 64 44 51
3 48 45 65
3 65 45 46
3 65 46 66
3 66 46 64
3 49 47 67
3 67 47 48
3 67 48 68
3 68 48 65
3 69 49 70
3 70 49 67
3 52 55 72
3 64 51 73
3 51 50 73
3 50 52 73
3 73 52 74
3 74 52 72
3 53 54 75
3 60 53 75
3 54 63 76
3 54 76 77
3 75 54 77
3 55 58 78
3 72 55 78
3 72 78 79
3 56 57 80
3 57 61 80
3 56 80 58
3 58 80 81
3 78 58 81
3 59 60 82
3 62 59 82
3 60 75 83
3 82 60 83
3 61 62 84
3 62 82 84
3 61 84 80
3 63 85 76
3 66 64 86
3 64 73 86
3 68 65 87
3 87 65 66
3 87 66 86
3 70 67 88
3 88 67 68
3 88 68 89
3 89 68 87
3 71 69 90
3 90 69 70
3 90 70 91
3 91 70 88
3 92 71 93
3 93 71 90
3 74 72 94
3 94 72 79
3 86 73 95
3 95 73 74
3 95 74 96
3 96 74 94
3 97 86 95
3 76 85 99
3 75 77 100
3 83 75 100
3 76 99 101
3 77 76 101
3 77 101 102
3 100 77 102
3 94 79 103
3 78 81 104
3 79 78 104
3 79 104 103
3 80 84 105
3 81 80 105
3 81 105 106
3 104 81 106
3 82 83 107
3 83 100 107
3 82 107 84
3 84 107 108
3 105 84 108
3 85 109 99
3 89 87 110
3 87 86 110
3 110 86 97
3 91 88 111
3 111 88 89
3 111 89 110
3 93 90 112
3 112 90 91
3 112 91 113
3 113 91 111
3 98 92 114
3 114 92 93
3 114 93 115
3 115 93 112
3 116 98 114
3 117 103 118
3 96 94 119
3 94 103 119
3 119 103 117
3 97 95 120
3 120 95 96
3 120 96 119
3 121 110 97
3 121 97 122
3 122 97 120
3 123 119 117
3 124 98 116
3 99 109 125
3 99 125 126
3 101 99 126
3 100 102 127
3 100 127 107
3 101 126 128
3 102 101 128
3 102 128 127
3 104 106 129
3 104 129 103
3 103 129 118
3 105 108 130
3 106 105 130
3 106 130 129
3 107 127 131
3 108 107 131
3 108 131 132
3 108 132 130
3 109 134 125
3 125 134 133
3 113 111 135
3 111 110 135
3 135 110 121
3 115 112 136
3 136 112 113
3 136 113 135
3 116 114 137
3 137 114 115
3 137 115 138
3 138 115 136
3 139 124 116
3 139 116 140
3 140 116 137
3 141 135 121
3 118 129 142
3 118 142 143
3 117 118 143
3 123 117 143
3 122 120 144
3 120 119 144
3 144 119 123
3 141 121 145
3 145 121 122
3 145 122 144
3 146 141 145
3 147 144 123
3 147 123 148
3 143 148 123
3 150 124 139
3 149 150 139
3 131 127 151
3 125 133 152
3 126 125 152
3 126 152 153
3 128 126 153
3 128 153 154
3 128 154 127
3 127 154 151
3 152 133 155
3 130 132 156
3 130 156 129
3 129 156 142
3 131 151 157
3 132 131 157
3 132 157 156
3 156 158 142
3 157 151 159
3 133 160 155
3 134 161 133
3 133 161 160
3 138 136 162
3 136 135 162
3 162 135 141
3 140 137 163
3 163 137 138
3 163 138 162
3 149 139 164
3 164 139 140
3 164 140 165
3 165 140 163
3 166 149 164
3 167 162 141
3 167 141 146
3 142 158 168
3 143 142 168
3 143 168 148
3 146 145 169
3 145 144 169
3 169 144 147
3 170 167 146
3 170 146 169
3 171 169 147
3 171 147 148
3 171 148 172
3 168 172 148
3 173 149 166
3 174 150 149
3 173 174 149
3 154 175 151
3 151 175 159
3 152 155 176
3 153 152 176
3 153 176 177
3 153 177 154
3 154 177 175
3 155 160 178
3 155 178 179
3 176 155 179
3 156 157 180
3 156 180 158
3 157 159 181
3 157 181 180
3 158 180 182
3 158 182 168
3 159 175 183
3 159 183 181
3 175 184 183
3 160 186 178
3 178 186 185
3 161 187 160
3 160 187 186
3 165 163 188
3 163 162 188
3 188 162 167
3 166 164 189
3 189 164 165
3 189 165 188
3 190 173 166
3 190 166 191
3 191 166 189
3 192 188 167
3 192 167 170
3 193 192 170
3 182 194 168
3 194 172 168
3 193 170 195
3 170 169 195
3 195 169 171
3 196 195 171
3 196 171 172
3 194 197 172
3 197 198 172
3 198 196 172
3 200 173 190
3 199 200 190
3 201 174 173
3 200 201 173
3 176 179 202
3 177 176 202
3 177 202 175
3 175 202 184
3 178 185 203
3 178 203 179
3 179 203 202
3 203 185 204
3 202 205 184
3 183 206 181
3 180 181 206
3 180 206 182
3 182 206 194
3 183 184 207
3 205 207 184
3 183 207 206
3 185 208 204
3 186 209 185
3 185 209 208
3 187 210 186
3 186 210 209
3 191 189 211
3 189 188 211
3 211 188 192
3 199 190 212
3 212 190 191
3 212 191 211
3 213 199 212
3 214 211 192
3 214 192 193
3 215 214 193
3 215 193 195
3 206 216 194
3 216 197 194
3 216 217 197
3 215 195 218
3 218 195 196
3 198 218 196
3 217 219 197
3 219 218 198
3 197 219 198
3 220 199 213
3 221 200 199
3 220 221 199
3 222 201 200
3 221 222 200
3 203 204 223
3 203 223 202
3 202 223 205
3 204 208 224
3 204 224 223
3 205 223 225
3 205 225 207
3 207 225 226
3 207 226 206
3 226 216 206
3 208 228 224
3 224 228 227
3 209 229 208
3 229 228 208
3 210 230 209
3 209 230 229
3 213 212 231
3 212 211 231
3 231 211 214
3 232 220 213
3 232 213 231
3 233 231 214
3 233 214 215
3 234 233 215
3 234 215 218
3 226 235 216
3 235 217 216
3 235 236 217
3 217 236 219
3 237 234 218
3 237 218 219
3 236 238 219
3 238 237 219
3 240 220 232
3 239 240 232
3 241 221 220
3 240 241 220
3 242 222 221
3 241 242 221
3 224 227 243
3 224 243 223
3 223 243 225
3 225 243 244
3 225 244 226
3 226 244 235
3 227 245 243
3 228 246 227
3 227 246 245
3 229 247 228
3 228 247 246
3 230 248 229
3 229 248 247
3 239 232 249
3 232 231 249
3 249 231 233
3 250 249 233
3 250 233 234
3 237 250 234
3 244 251 235
3 235 251 236
3 251 252 236
3 236 252 238
3 252 253 238
3 253 250 237
3 253 237 238
3 254 239 249
3 255 240 239
3 254 255 239
3 256 241 240
3 255 256 240
3 257 242 241
3 256 257 241
3 245 258 243
3 243 258 244
3 244 258 251
3 245 259 258
3 246 260 245
3 245 260 259
3 247 261 246
3 246 261 260
3 248 262 247
3 247 262 261
3 254 249 263
3 263 249 250
3 253 263 250
3 258 264 251
3 251 264 252
3 264 265 252
3 265 263 253
3 252 265 253
3 266 254 263
3 267 255 254
3 266 267 254
3 268 256 255
3 267 268 255
3 269 257 256
3 268 269 256
3 259 270 258
3 270 264 258
3 260 271 259
3 259 271 270
3 261 272 260
3 260 272 271
3 262 273 261
3 273 272 261
3 270 274 264
3 275 266 263
3 275 263 265
3 274 276 264
3 276 265 264
3 276 277 265
3 277 275 265
3 278 267 266
3 275 278 266
3 279 268 267
3 278 279 267
3 280 269 268
3 279 280 268
3 271 281 270
3 270 281 274
3 272 282 271
3 271 282 281
3 273 283 272
3 272 283 282
3 281 284 274
3 274 284 276
3 285 278 275
3 277 285 275
3 284 286 276
3 286 285 277
3 276 286 277
3 287 279 278
3 285 287 278
3 288 280 279
3 287 288 279
3 282 289 281
3 281 289 284
3 283 290 282
3 282 290 289
3 289 291 284
3 284 291 286
3 291 292 286
3 292 287 285
3 286 292 285
3 293 288 287
3 292 293 287
3 290 294 289
3 289 294 291
3 294 295 291
3 295 293 292
3 291 295 292
CELL_TYPES 542
5
5
5
5
5
5
5
5
5
5
5
5
5
5
5
5
5
5
5
5
5
5
5
5
5
5
5
5
5
5
5
5
5
5
5
5
5
5
5
5
5
5
5
5
5
5
5
5
5
5
5
5
5
5
5
5
5
5
5
5
5
5
5
5
5
5
5
5
5
5
5
5
5
5
5
5
5
5
5
5
5
5
5
5
5
5
5
5
5
5
5
5
5
5
5
5
5
5
5
5
5
5
5
5
5
5
5
5
5
5
5
5
5
5
5
5
5
5
5
5
5
5
5
5
5
5
5
5
5
5
5
5
5
5
5
5
5
5
5
5
5
5
5
5
5
5
5
5
5
5
5
5
5
5
5
5
5
5
5
5
5
5
5
5
5
5
5
5
5
5
5
5
5
5
5
5
5
5
5
5
5
5
5
5
5
5
5
5
5
5
5
5
5
5
5
5
5
5
5
5
5
5
5
5
5
5
5
5
5
5
5
5
5
5
5
5
5
5
5
5
5
5
5
5
5
5
5
5
5
5
5
5
5
5
5
5
5
5
5
5
5
5
5
5
5
5
5
5
5
5
5
5
5
5
5
5
5
5
5
5
5
5
5
5
5
5
5
5
5
5
5
5
5
5
5
5
5
5
5
5
5
5
5
5
5
5
5
5
5
5
5
5
5
5
5
5
5
5
5
5
5
5
5
5
5
5
5
5
5
5
5
5
5
5
5
5
5
5
5
5
5
5
5
5
5
5
5
5
5
5
5
5
5
5
5
5
5
5
5
5
5
5
5
5
5
5
5
5
5
5
5
5
5
5
5
5
5
5
5
5
5
5
5
5
5
5
5
5
5
5
5
5
5
5
5
5
5
5
5
5
5
5
5
5
5
5
5
5
5
5
5
5
5
5
5
5
5
5
5
5
5
5
5
5
5
5
5
5
5
5
5
5
5
5
5
5
5
5
5
5
5
5
5
5
5
5
5
5
5
5
5
5
5
5
5
5
5
5
5
5
5
5
5
5
5
5
5
5
5
5
5
5
5
5
5
5
5
5
5
5
5
5
5
5
5
5
5
5
5
5
5
5
5
5
5
5
5
5
5
5
5
5
5
5
5
5
5
5
5
5
5
5
5
5
5
5
5
5
5
5
5
5
5
5
5
5
5
5
5
5
5
5
5
5
5
5
5
5
5
5
5
5
5
5
5
5
5
5
5
5
5
5
5
5
5
5
5
5
5
5
5
5
POINT_DATA 296
SCALARS concentrations float 4
LOOKUP_TABLE default
0 0.945363 0.100464 114.663
0 0.945322 0.105277 109.136
0 0.945514 0.103033 43.4795
0 0.9458 0.10521 23.5522
0 0.945435 0.0918778 4.90951
0 0.945318 0.101851 65.7668
0 0.945355 0.100904 75.3613
0 0.945375 0.0919107 6.14318
0 0.945341 0.092234 11.6812
0 0.945137 0.106044 36.4803
0 0.945301 0.0978668 21.587
0 0.945713 0.101465 13.1393
0 0.945869 0.106022 101.689
0 0.945639 0.0924693 7.52044
0 0.94572 0.0918106 2.74793
0 0.945529 0.0914045 1.56557
0 0.945448 0.0913189 1.51836
0 0.945368 0.0919573 12.1969
0 0.945287 0.0921388 10.0038
0 0.945411 0.0912249 1.88052
0 0.945398 0.0911977 2.83381
0 0.945492 0.0997256 45.6034
0 0.945248 0.108877 51.7879
0 0.945244 0.0923956 11.0132
0 0.945435 0.0921451 8.85697
0 0.945743 0.0925953 7.71669
0 0.94596 0.102888 90.7203
0 0.945868 0.0931302 11.4659
0 0.946024 0.0985039 58.8233
0 0.945613 0.0913953 2.2628
0 0.945677 0.0915363 2.06785
0 0.94555 0.0911798 0.874611
0 0.94541 0.0981135 40.0871
0 0.945508 0.0911005 0.347795
0 0.945468 0.0911138 0.830807
0 0.945376 0.0912164 2.83971
0 0.945359 0.091374 1.63495
0 0.945458 0.0910508 1.40261
0 0.945436 0.0910483 1.31259
0 0.945407 0.0930272 8.03028
0 0.945355 0.0934881 2.88912
0 0.945397 0.0914972 2.90003
0 0.945443 0.091604 1.50671
0 0.945674 0.102738 39.6391
0 0.945725 0.0915637 3.57595
0 0.945921 0.0926449 11.0635
0 0.945781 0.0916412 3.45913
0 0.945947 0.1005 82.1682
0 0.945927 0.0919271 9.01005
0 0.945718 0.0990592 9.44073
0 0.945592 0.0912105 1.35534
0 0.945636 0.0912888 1.89703
0 0.945537 0.0910213 0.605968
0 0.945577 0.0927419 7.33159
0 0.945653 0.0926811 11.4382
0 0.945502 0.0910905 1.56567
0 0.945441 0.0911227 0.605984
0 0.94544 0.091219 0.824279
0 0.945488 0.0910242 1.04939
0 0.945464 0.0916639 1.28552
0 0.945531 0.0917443 2.03571
0 0.945477 0.091231 0.915126
0 0.945501 0.0912953 0.525884
0 0.945617 0.100437 69.099
0 0.945647 0.0911609 1.55969
0 0.945793 0.0915032 4.01121
0 0.945678 0.0912158 1.83897
0 0.945793 0.0915631 4.11676
0 0.945747 0.0913426 2.65728
0 0.945708 0.0991065 57.4051
0 0.945685 0.0917589 1.99635
0 0.945909 0.0985285 40.2429
0 0.94552 0.0910702 1.15112
0 0.945573 0.0910054 0.484141
0 0.945534 0.0910607 0.887529
0 0.945618 0.0916267 3.26535
0 0.945623 0.0919379 8.98408
0 0.945645 0.0915888 4.10918
0 0.945512 0.0910621 1.39864
0 0.94552 0.0910963 1.47386
0 0.9455 0.0910386 0.100138
0 0.945518 0.0910044 0.762318
0 0.945546 0.0911869 0.871932
0 0.945591 0.0913011 1.54646
0 0.945541 0.091003 0.620307
0 0.94563 0.098816 53.6348
0 0.945582 0.0911047 1.19326
0 0.945646 0.0912172 1.90634
0 0.945692 0.09127 1.1027
0 0.945637 0.0912434 1.83495
0 0.945777 0.0919457 4.48467
0 0.945686 0.0912921 1.1671
0 0.946011 0.10037 83.8474
0 0.945898 0.0920098 4.56908
0 0.945518 0.0910859 1.42568
0 0.945541 0.0910832 1.08301
0 0.945517 0.0910782 1.19612
0 0.94553 0.0911355 1.27443
0 0.946162 0.102632 31.6845
0 0.945591 0.0915715 5.28278
0 0.945622 0.0912847 1.67779
0 0.945613 0.0913189 3.00315
0 0.945627 0.0913037 1.94885
0 0.945522 0.0910842 1.51452
0 0.945527 0.0910453 1.17167
0 0.945541 0.0909935 0.408946
0 0.945541 0.0910127 0.789295
0 0.945588 0.0910591 0.937089
0 0.945573 0.0909885 0.37989
0 0.94552 0.0982759 9.76863
0 0.945561 0.0911431 1.4431
0 0.945604 0.0911814 0.982333
0 0.945734 0.0912524 0.613635
0 0.94562 0.0911738 0.0802323
0 0.945982 0.0924705 8.64612
0 0.945789 0.0913139 2.96806
0 0.946087 0.0920686 6.45593
0 0.94551 0.0910847 1.56595
0 0.945527 0.0910762 1.43549
0 0.945504 0.091086 1.54696
0 0.945505 0.0910938 1.15721
0 0.94551 0.0910689 0.573063
0 0.945492 0.0911085 0.826877
0 0.945492 0.0910856 1.5255
0 0.94626 0.100451 75.4194
0 0.945411 0.0919317 7.01354
0 0.945526 0.0912446 2.96596
0 0.945608 0.0911132 1.11541
0 0.94559 0.0911547 1.52717
0 0.945542 0.0910569 1.21976
0 0.94556 0.0910109 0.674212
0 0.945595 0.0910149 0.646808
0 0.945581 0.0910087 0.508531
0 0.945134 0.0921886 6.96274
0 0.945211 0.0970326 8.26357
0 0.945541 0.0910541 0.295958
0 0.945617 0.0911014 1.14182
0 0.945827 0.0913997 2.09927
0 0.945652 0.0911589 2.37619
0 0.946096 0.0917593 6.00805
0 0.945843 0.0914088 2.59872
0 0.945488 0.0910027 0.649093
0 0.945538 0.0910756 1.3745
0 0.945513 0.0910866 1.50755
0 0.945479 0.0910748 1.15053
0 0.94547 0.0910555 0.466932
0 0.945454 0.0910732 0.731751
0 0.945472 0.0910677 1.17989
0 0.945492 0.0910798 1.37351
0 0.946138 0.0921079 4.2175
0 0.946259 0.098297 60.8542
0 0.945594 0.0910456 0.821105
0 0.945389 0.0912646 2.63447
0 0.94552 0.0910953 1.34043
0 0.945582 0.0910625 1.10214
0 0.945259 0.0914522 3.06602
0 0.945564 0.0910409 0.986066
0 0.945584 0.0910309 0.672301
0 0.945549 0.0910763 1.26993
0 0.945584 0.091057 0.790358
0 0.944961 0.0920921 7.54784
0 0.944862 0.101386 49.5774
0 0.945529 0.0909857 1.13557
0 0.945627 0.0911503 1.95247
0 0.945845 0.0915242 3.66543
0 0.945647 0.0912536 2.65149
0 0.945827 0.0916718 5.51137
0 0.945469 0.0910467 0.493912
0 0.945521 0.0910801 1.38781
0 0.945453 0.0910793 1.01359
0 0.945437 0.0911716 1.64511
0 0.945464 0.0910706 1.09836
0 0.945495 0.0910894 1.45
0 0.946093 0.0924499 8.35272
0 0.946349 0.100311 80.3789
0 0.945566 0.0910641 0.845091
0 0.945447 0.0911195 1.11283
0 0.945533 0.0910602 0.69587
0 0.94524 0.0914566 4.20669
0 0.9454 0.09121 2.30805
0 0.945566 0.0910591 1.02825
0 0.945574 0.0910634 0.971344
0 0.945545 0.0910801 1.26092
0 0.945569 0.0910612 0.800664
0 0.945553 0.0910334 0.290325
0 0.945359 0.09147 5.02448
0 0.945067 0.0920256 8.62091
0 0.944813 0.101233 36.594
0 0.945511 0.0910046 0.324746
0 0.945601 0.0912372 2.79894
0 0.945786 0.091628 5.18169
0 0.945603 0.0913172 3.86275
0 0.945447 0.0911302 1.42026
0 0.945424 0.0911871 1.84363
0 0.945528 0.0910916 1.45389
0 0.945438 0.091115 1.46746
0 0.945461 0.0910802 1.23295
0 0.945508 0.091106 1.67018
0 0.945479 0.0910954 1.51561
0 0.945735 0.0916691 6.25799
0 0.945974 0.0924391 6.73386
0 0.946156 0.0993626 41.5327
0 0.94551 0.0910337 0.609386
0 0.945439 0.0911814 2.64914
0 0.945487 0.0912285 3.09707
0 0.945546 0.091019 0.182692
0 0.945556 0.0910703 1.08421
0 0.94556 0.0910507 0.68038
0 0.945511 0.0913989 4.4356
0 0.945402 0.0919274 5.20324
0 0.945142 0.0991384 81.9948
0 0.945481 0.0910062 0.429987
0 0.945552 0.0911649 2.61953
0 0.945538 0.0913039 3.48378
0 0.945429 0.0911929 2.18008
0 0.945425 0.0911737 1.94115
0 0.945539 0.0910911 1.41415
0 0.945518 0.0911086 1.67704
0 0.945449 0.0911029 1.52027
0 0.945484 0.0911044 1.73178
0 0.945646 0.0916194 5.56201
0 0.945975 0.0926045 9.73821
0 0.946128 0.0977745 57.5272
0 0.945534 0.0910218 0.876537
0 0.945561 0.0911055 1.75145
0 0.945559 0.0910363 0.542898
0 0.945556 0.0910726 0.976218
0 0.945607 0.0911142 1.40034
0 0.945616 0.0913568 3.34764
0 0.945626 0.0917833 9.27887
0 0.945582 0.0991698 114.433
0 0.945448 0.0911626 1.94479
0 0.945472 0.0912868 1.95374
0 0.945421 0.0912146 2.56242
0 0.945431 0.0911795 2.13292
0 0.945542 0.0910853 1.37373
0 0.945515 0.0910965 1.68177
0 0.945455 0.0911386 1.90303
0 0.945483 0.0911013 1.61311
0 0.945428 0.0913666 1.87632
0 0.945513 0.0915088 5.61551
0 0.945677 0.0923343 11.4088
0 0.946027 0.106766 41.8772
0 0.945573 0.091011 0.393141
0 0.94556 0.0910547 0.919612
0 0.945607 0.0910371 1.46983
0 0.945665 0.0913068 2.66552
0 0.945696 0.0919432 8.79623
0 0.945693 0.10249 172.015
0 0.945421 0.091249 2.10258
0 0.94543 0.0911586 1.76305
0 0.945537 0.091056 1.32569
0 0.945496 0.0910642 1.36191
0 0.945456 0.0910811 1.2258
0 0.945392 0.0913215 1.554
0 0.945394 0.0914589 3.21966
0 0.94545 0.0918614 4.69811
0 0.945477 0.103977 83.9702
0 0.94556 0.0910305 1.17281
0 0.945575 0.0910484 1.74702
0 0.94563 0.0912737 3.05626
0 0.94575 0.0922242 7.76984
0 0.945781 0.0980772 61.5033
0 0.94542 0.0911548 1.63316
0 0.945504 0.0910493 0.985378
0 0.945452 0.091024 1.01432
0 0.945367 0.0912521 1.38376
0 0.945324 0.09134 1.6736
0 0.945323 0.0924589 6.96702
0 0.945448 0.109141 9.21469
0 0.945513 0.0910487 0.98337
0 0.945498 0.0912518 2.47289
0 0.945563 0.0920691 8.04008
0 0.945742 0.0999836 22.66
0 0.945445 0.0911173 0.492936
0 0.945381 0.091106 1.19515
0 0.945425 0.0910987 0.938978
0 0.945387 0.0911103 1.29959
0 0.945275 0.0913807 0.587182
0 0.945161 0.0923265 1.10371
0 0.945119 0.107985 2.37598
0 0.945355 0.0912531 0.730144
0 0.945227 0.0916666 4.52231
0 0.945307 0.0963009 43.2943
0 0.945307 0.0912923 1.34435
0 0.945293 0.0912754 1.00724
0 0.945302 0.0913177 2.12479
0 0.945159 0.091941 3.16742
0 0.945097 0.0971953 41.1
0 0.945078 0.0919754 5.99288
0 0.944959 0.0972013 20.4205
0 0.945172 0.0920081 6.37766
0 0.945211 0.0918785 1.62515
0 0.945102 0.0994251 74.7809
0 0.944965 0.102623 39.5842
0 0.945184 0.101409 4.7861
VECTORS fa_u float
0.00646591 0.00265076 -0
0.00589798 0.00339206 -0
0.00484543 0.00131944 -0
0.00815131 0.00112277 -0
1e-08 0 0
0.00603697 0.00466292 -0
0.00344045 0.00342454 -0
1e-08 0 0
1e-08 0 0
0.0043198 0.00550511 -0
0.00399444 0.00686046 -0
0.00513725 3.70628e-05 -0
0.00806115 -0.000988961 0
1e-08 0 0
1e-08 0 0
1e-08 0 0
1e-08 0 0
1e-08 0 0
1e-08 0 0
1e-08 0 0
1e-08 0 0
0.00234224 0.00563813 -0
0.00201114 0.00754343 -0
1e-08 0 0
1e-08 0 0
1e-08 0 0
0.00677757 -0.00180946 0
1e-08 0 0
0.0071571 -0.00301298 0
1e-08 0 0
1e-08 0 0
1e-08 0 0
0.000778181 0.006072 -0
1e-08 0 0
1e-08 0 0
1e-08 0 0
1e-08 0 0
1e-08 0 0
1e-08 0 0
1e-08 0 0
1e-08 0 0
1e-08 0 0
1e-08 0 0
-4.36638e-05 0.00779667 -0
1e-08 0 0
1e-08 0 0
1e-08 0 0
0.00590212 -0.00349963 0
1e-08 0 0
0.00447478 -0.00348274 0
1e-08 0 0
1e-08 0 0
1e-08 0 0
1e-08 0 0
1e-08 0 0
1e-08 0 0
1e-08 0 0
1e-08 0 0
1e-08 0 0
1e-08 0 0
1e-08 0 0
1e-08 0 0
1e-08 0 0
-0.00089421 0.0063386 0
1e-08 0 0
1e-08 0 0
1e-08 0 0
1e-08 0 0
1e-08 0 0
0.00442747 -0.00442295 0
1e-08 0 0
0.00332977 -0.00425384 0
1e-08 0 0
1e-08 0 0
1e-08 0 0
1e-08 0 0
1e-08 0 0
1e-08 0 0
1e-08 0 0
1e-08 0 0
1e-08 0 0
1e-08 0 0
1e-08 0 0
1e-08 0 0
1e-08 0 0
-0.001237 0.00466296 0
1e-08 0 0
1e-08 0 0
1e-08 0 0
1e-08 0 0
1e-08 0 0
1e-08 0 0
0.00436875 -0.0074336 0
1e-08 0 0
1e-08 0 0
1e-08 0 0
1e-08 0 0
1e-08 0 0
0.00270959 -0.00660137 0
1e-08 0 0
1e-08 0 0
1e-08 0 0
1e-08 0 0
1e-08 0 0
1e-08 0 0
1e-08 0 0
1e-08 0 0
1e-08 0 0
1e-08 0 0
-0.00320902 0.00784637 0
1e-08 0 0
1e-08 0 0
1e-08 0 0
1e-08 0 0
1e-08 0 0
1e-08 0 0
1e-08 0 0
1e-08 0 0
1e-08 0 0
1e-08 0 0
1e-08 0 0
1e-08 0 0
1e-08 0 0
1e-08 0 0
0.00168691 -0.00642151 0
1e-08 0 0
1e-08 0 0
1e-08 0 0
1e-08 0 0
1e-08 0 0
1e-08 0 0
1e-08 0 0
1e-08 0 0
1e-08 0 0
-0.00363846 0.00621385 0
1e-08 0 0
1e-08 0 0
1e-08 0 0
1e-08 0 0
1e-08 0 0
1e-08 0 0
1e-08 0 0
1e-08 0 0
1e-08 0 0
1e-08 0 0
1e-08 0 0
1e-08 0 0
1e-08 0 0
1e-08 0 0
1e-08 0 0
0.000724441 -0.00542125 0
1e-08 0 0
1e-08 0 0
1e-08 0 0
1e-08 0 0
1e-08 0 0
1e-08 0 0
1e-08 0 0
1e-08 0 0
1e-08 0 0
1e-08 0 0
-0.003411 0.00442035 0
1e-08 0 0
1e-08 0 0
1e-08 0 0
1e-08 0 0
1e-08 0 0
1e-08 0 0
1e-08 0 0
1e-08 0 0
1e-08 0 0
1e-08 0 0
1e-08 0 0
1e-08 0 0
2.90831e-05 -0.00760921 0
1e-08 0 0
1e-08 0 0
1e-08 0 0
1e-08 0 0
1e-08 0 0
1e-08 0 0
1e-08 0 0
1e-08 0 0
1e-08 0 0
1e-08 0 0
1e-08 0 0
1e-08 0 0
-0.00450514 0.00454796 0
1e-08 0 0
1e-08 0 0
1e-08 0 0
1e-08 0 0
1e-08 0 0
1e-08 0 0
1e-08 0 0
1e-08 0 0
1e-08 0 0
1e-08 0 0
1e-08 0 0
1e-08 0 0
1e-08 0 0
-0.000715874 -0.00564224 0
1e-08 0 0
1e-08 0 0
1e-08 0 0
1e-08 0 0
1e-08 0 0
1e-08 0 0
1e-08 0 0
1e-08 0 0
-0.00442231 0.0034772 0
1e-08 0 0
1e-08 0 0
1e-08 0 0
1e-08 0 0
1e-08 0 0
1e-08 0 0
1e-08 0 0
1e-08 0 0
1e-08 0 0
1e-08 0 0
1e-08 0 0
-0.0020909 -0.00789768 0
1e-08 0 0
1e-08 0 0
1e-08 0 0
1e-08 0 0
1e-08 0 0
1e-08 0 0
1e-08 0 0
-0.00768136 0.00451077 0
1e-08 0 0
1e-08 0 0
1e-08 0 0
1e-08 0 0
1e-08 0 0
1e-08 0 0
1e-08 0 0
1e-08 0 0
1e-08 0 0
1e-08 0 0
1e-08 0 0
-0.00241226 -0.0057945 0
1e-08 0 0
1e-08 0 0
1e-08 0 0
1e-08 0 0
1e-08 0 0
-0.00624968 0.002568 0
1e-08 0 0
1e-08 0 0
1e-08 0 0
1e-08 0 0
1e-08 0 0
1e-08 0 0
1e-08 0 0
1e-08 0 0
-0.00382663 -0.0065706 0
1e-08 0 0
1e-08 0 0
1e-08 0 0
1e-08 0 0
-0.00572032 0.00153795 0
1e-08 0 0
1e-08 0 0
1e-08 0 0
1e-08 0 0
1e-08 0 0
1e-08 0 0
-0.0041792 -0.00535137 0
1e-08 0 0
1e-08 0 0
1e-08 0 0
-0.0077507 0.00101718 0
1e-08 0 0
1e-08 0 0
1e-08 0 0
1e-08 0 0
1e-08 0 0
1e-08 0 0
-0.00378626 -0.00377297 0
1e-08 0 0
1e-08 0 0
-0.00741737 -6.69836e-05 0
1e-08 0 0
1e-08 0 0
1e-08 0 0
1e-08 0 0
-0.00622113 -0.00477442 0
1e-08 0 0
-0.00539645 -0.000743812 0
1e-08 0 0
1e-08 0 0
-0.00497015 -0.00286698 0
-0.00600676 -0.00158941 0
-0.00719826 -0.00297682 0
