# vtk DataFile Version 2.0
CellBP Time: 6.44
ASCII
DATASET UNSTRUCTURED_GRID
POINTS 296 double
-8.92838 -3.66306 0
-8.36018 -4.80309 0
-9.33266 -2.45457 0
-9.59407 -1.21548 0
-8.2592 -2.77523 0
-7.65724 -5.86723 0
-6.81457 -6.82306 0
-7.81931 -3.81995 0
-7.24927 -4.80775 0
-5.86669 -7.6662 0
-4.82038 -8.3786 0
-9.67092 0.0465898 0
-9.60551 1.31641 0
-8.5666 -1.65832 0
-8.70229 -0.521595 0
-7.49424 -1.96958 0
-7.12781 -2.85872 0
-6.56219 -5.71972 0
-5.76489 -6.53905 0
-6.6964 -3.83125 0
-6.13918 -4.61754 0
-3.67879 -8.94054 0
-2.47139 -9.35609 0
-4.86724 -7.25215 0
-3.8912 -7.83128 0
-8.71574 0.634284 0
-9.3633 2.57171 0
-8.55399 1.75355 0
-8.95194 3.77706 0
-7.65547 -0.910932 0
-7.71177 0.08324 0
-6.86729 -1.29215 0
-1.21587 -9.5994 0
-6.36361 -2.12061 0
-6.24022 -3.01164 0
-5.47146 -5.41726 0
-4.74621 -6.05927 0
-5.5889 -3.70913 0
-5.20197 -4.50723 0
-2.84849 -8.304 0
-1.76372 -8.57507 0
-3.89509 -6.66877 0
-3.03847 -7.09936 0
0.0523402 -9.68093 0
-7.62881 1.1311 0
-8.27967 2.89398 0
-7.48085 2.08682 0
-8.37813 4.91249 0
-7.81154 3.94177 0
-7.65549 5.96202 0
-6.70113 -0.387164 0
-6.87923 0.549913 0
-5.71301 -0.991173 0
-0.584933 -8.73638 0
0.555228 -8.68702 0
-5.24844 -2.45002 0
-4.43688 -5.04087 0
-3.86051 -5.72078 0
-4.3933 -3.76533 0
-2.04696 -7.50331 0
-1.12705 -7.72043 0
-2.96698 -6.0491 0
-2.29316 -6.56696 0
1.31321 -9.57768 0
-6.62167 1.40552 0
-7.10024 3.08409 0
-6.59278 2.34692 0
-7.22265 4.938 0
-6.65007 3.95857 0
-6.8192 6.91579 0
-6.50642 5.83187 0
-5.86475 7.7571 0
-4.42217 -1.17416 0
-5.76181 0.504829 0
-4.62467 -0.0171218 0
0.00147769 -7.77205 0
1.71167 -8.54938 0
0.928652 -7.67902 0
-4.01002 -2.38605 0
-3.47434 -1.387 0
-3.2656 -4.76272 0
-3.24744 -3.24309 0
-1.37207 -6.6157 0
-0.512574 -6.95619 0
-1.96206 -5.49366 0
2.5579 -9.32266 0
-5.45726 2.01895 0
-6.03336 3.03751 0
-6.04225 4.81415 0
-5.70165 3.94323 0
-5.70236 6.64339 0
-5.39479 5.55377 0
-4.81444 8.47418 0
-4.7875 7.31999 0
-3.48649 -0.42327 0
-4.41581 1.23946 0
-3.68994 0.5887 0
-4.02974 2.30899 0
-3.67959 9.04232 0
2.81934 -8.22954 0
0.402044 -6.71894 0
1.98602 -7.43262 0
1.27683 -6.82071 0
-2.43874 -0.869255 0
-2.82907 -2.1207 0
-2.28281 -4.068 0
-2.31605 -2.9556 0
-0.446001 -5.80464 0
-1.21315 -4.46794 0
3.76845 -8.93133 0
-4.74451 3.35907 0
-5.03473 4.53958 0
-4.59653 6.20562 0
-4.49031 5.29534 0
-3.8084 7.9141 0
-3.7827 6.76051 0
-2.75335 8.33449 0
-1.64643 -0.133743 0
-1.44681 -0.886629 0
-2.48382 0.510986 0
-3.23489 1.4406 0
-3.21406 3.2936 0
-2.89327 2.36634 0
-1.35472 0.631138 0
-2.47127 9.44327 0
3.87917 -7.78879 0
2.914 -7.05737 0
0.933375 -5.75603 0
2.0364 -6.33103 0
-1.67695 -1.98551 0
-1.42663 -3.25856 0
0.0862832 -4.70599 0
-0.559852 -3.67282 0
4.87051 -7.22534 0
4.90808 -8.37004 0
-3.74106 4.50511 0
-3.69541 5.68563 0
-2.85321 7.20432 0
-2.97711 6.28104 0
-1.64434 8.65093 0
-1.91597 7.53921 0
-2.32274 4.02138 0
-0.728409 -1.32381 0
-0.836252 -0.254012 0
-1.93374 1.68381 0
-2.11665 2.8663 0
-1.30352 3.52816 0
-0.871745 1.3546 0
-0.28452 0.459195 0
-0.527785 8.79628 0
-1.22013 9.69184 0
1.09711 -4.52922 0
3.84838 -6.61515 0
2.94053 -6.00934 0
2.08501 -5.35752 0
4.72238 -6.11638 0
-0.554872 -2.46766 0
0.493348 -3.44217 0
0.0543261 -1.60759 0
1.46664 -3.6495 0
5.80279 -6.53191 0
5.96083 -7.65355 0
-2.45312 5.29574 0
-2.10484 6.46328 0
-0.891189 7.72977 0
-1.25319 6.85974 0
0.0886649 7.81355 0
-1.1381 4.46306 0
0.148966 -0.614786 0
-0.801542 2.489 0
-0.337085 3.58819 0
0.0583812 1.5145 0
0.736877 0.474454 0
0.640753 8.80703 0
0.0471849 9.77862 0
2.35149 -4.23603 0
3.80598 -5.55919 0
2.9593 -5.14321 0
5.51392 -5.42053 0
4.63288 -5.20547 0
0.630219 -2.28864 0
1.24781 -2.93301 0
0.755981 -1.38923 0
2.14538 -3.10959 0
2.96465 -3.44049 0
6.09773 -4.73574 0
6.59408 -5.70601 0
6.91733 -6.80968 0
-1.00769 5.76709 0
-0.362568 6.81803 0
1.11483 7.7107 0
0.557903 7.01999 0
-0.00349428 4.69546 0
0.599147 3.81007 0
1.33486 -0.641391 0
0.532085 2.64513 0
0.959185 1.57479 0
1.9034 0.212634 0
1.60721 1.06384 0
2.11649 7.52911 0
1.78726 8.65029 0
1.31894 9.70073 0
3.77967 -4.2955 0
5.06124 -4.38651 0
5.79197 -3.887 0
3.74978 -3.16724 0
1.8049 -1.87916 0
2.99658 -2.55522 0
6.72908 -3.90952 0
7.32289 -4.85245 0
7.76392 -5.86353 0
0.482184 5.83501 0
1.42018 6.68997 0
2.36025 6.62075 0
1.20047 4.52935 0
1.47875 3.38101 0
2.42488 -0.690408 0
2.815 0.142702 0
1.77955 2.15724 0
2.60197 1.14687 0
3.05396 7.119 0
2.88861 8.31888 0
2.57462 9.46109 0
4.86602 -3.28725 0
6.07017 -3.07436 0
4.14213 -2.25787 0
3.2252 -1.49665 0
6.68367 -2.29561 0
7.18125 -3.02084 0
7.91055 -3.88672 0
8.47932 -4.81874 0
2.01197 5.56021 0
3.05815 6.1042 0
2.35238 4.10024 0
2.40894 3.04425 0
3.50568 -0.456978 0
3.59665 0.614159 0
2.94662 2.27638 0
3.52346 1.51806 0
3.9694 5.84656 0
3.95116 6.74036 0
3.95178 7.88428 0
3.78191 9.04469 0
5.52847 -1.90025 0
4.47982 -1.12099 0
6.6629 -1.32469 0
7.53899 -2.02028 0
8.34013 -2.84318 0
9.05271 -3.6846 0
3.38408 4.83528 0
3.31181 3.35959 0
4.65946 0.132516 0
4.48148 1.29924 0
4.02787 2.42263 0
4.51337 5.10075 0
4.79354 6.1368 0
4.94059 7.32443 0
4.92444 8.48413 0
5.83494 -0.433289 0
6.95072 -0.487216 0
7.70193 -1.07332 0
8.62378 -1.73018 0
9.44997 -2.47009 0
4.49975 3.78872 0
5.75888 1.08217 0
5.30942 2.50418 0
5.308 4.56782 0
5.54578 5.46856 0
5.83883 6.61449 0
5.97041 7.77095 0
6.77788 0.451095 0
7.78557 -0.0276589 0
8.79381 -0.575247 0
9.70764 -1.21666 0
6.88344 1.32555 0
5.64606 3.73193 0
6.46181 2.1634 0
6.29665 3.04436 0
6.20915 4.63133 0
6.61654 5.77958 0
6.92018 6.9268 0
7.70757 0.952101 0
8.78163 0.566738 0
9.77793 0.0541416 0
7.53037 1.97418 0
6.73222 3.84856 0
7.17616 2.90272 0
7.29204 4.83184 0
7.76956 5.9747 0
8.63518 1.70509 0
9.67945 1.3162 0
8.32393 2.7994 0
7.8914 3.86967 0
8.46633 4.90875 0
9.43677 2.56457 0
9.03029 3.76963 0
CELLS 542 2168
3 2 0 4
3 0 1 7
3 4 0 7
3 1 5 8
3 7 1 8
3 3 2 13
3 13 2 4
3 11 3 14
3 14 3 13
3 13 4 15
3 4 7 16
3 15 4 16
3 5 6 17
3 8 5 17
3 6 9 18
3 17 6 18
3 7 8 19
3 16 7 19
3 8 17 20
3 19 8 20
3 9 10 23
3 18 9 23
3 10 21 24
3 23 10 24
3 12 11 25
3 25 11 14
3 26 12 27
3 27 12 25
3 14 13 29
3 29 13 15
3 25 14 30
3 30 14 29
3 29 15 31
3 15 16 33
3 31 15 33
3 16 19 34
3 33 16 34
3 17 18 35
3 20 17 35
3 18 23 36
3 35 18 36
3 19 20 37
3 34 19 37
3 20 35 38
3 37 20 38
3 21 22 39
3 24 21 39
3 22 32 40
3 39 22 40
3 23 24 41
3 36 23 41
3 24 39 42
3 41 24 42
3 27 25 44
3 44 25 30
3 28 26 45
3 45 26 27
3 45 27 46
3 46 27 44
3 47 28 48
3 48 28 45
3 30 29 50
3 50 29 31
3 44 30 51
3 51 30 50
3 50 31 52
3 31 33 52
3 32 43 53
3 40 32 53
3 53 43 54
3 33 34 55
3 34 37 55
3 33 55 52
3 35 36 56
3 38 35 56
3 36 41 57
3 56 36 57
3 37 38 58
3 38 56 58
3 37 58 55
3 39 40 59
3 42 39 59
3 40 53 60
3 59 40 60
3 41 42 61
3 57 41 61
3 42 59 62
3 61 42 62
3 43 63 54
3 46 44 64
3 64 44 51
3 48 45 65
3 65 45 46
3 65 46 66
3 66 46 64
3 49 47 67
3 67 47 48
3 67 48 68
3 68 48 65
3 69 49 70
3 70 49 67
3 52 55 72
3 64 51 73
3 51 50 73
3 50 52 73
3 73 52 74
3 74 52 72
3 53 54 75
3 60 53 75
3 54 63 76
3 54 76 77
3 75 54 77
3 55 58 78
3 72 55 78
3 72 78 79
3 56 57 80
3 57 61 80
3 56 80 58
3 58 80 81
3 78 58 81
3 59 60 82
3 62 59 82
3 60 75 83
3 82 60 83
3 61 62 84
3 62 82 84
3 61 84 80
3 63 85 76
3 66 64 86
3 64 73 86
3 68 65 87
3 87 65 66
3 87 66 86
3 70 67 88
3 88 67 68
3 88 68 89
3 89 68 87
3 71 69 90
3 90 69 70
3 90 70 91
3 91 70 88
3 92 71 93
3 93 71 90
3 74 72 94
3 94 72 79
3 86 73 95
3 95 73 74
3 95 74 96
3 96 74 94
3 97 86 95
3 76 85 99
3 75 77 100
3 83 75 100
3 76 99 101
3 77 76 101
3 77 101 102
3 100 77 102
3 94 79 103
3 78 81 104
3 79 78 104
3 79 104 103
3 80 84 105
3 81 80 105
3 81 105 106
3 104 81 106
3 82 83 107
3 83 100 107
3 82 107 84
3 84 107 108
3 105 84 108
3 85 109 99
3 89 87 110
3 87 86 110
3 110 86 97
3 91 88 111
3 111 88 89
3 111 89 110
3 93 90 112
3 112 90 91
3 112 91 113
3 113 91 111
3 98 92 114
3 114 92 93
3 114 93 115
3 115 93 112
3 116 98 114
3 117 103 118
3 96 94 119
3 94 103 119
3 119 103 117
3 97 95 120
3 120 95 96
3 120 96 119
3 121 110 97
3 121 97 122
3 122 97 120
3 123 119 117
3 124 98 116
3 99 109 125
3 99 125 126
3 101 99 126
3 100 102 127
3 100 127 107
3 101 126 128
3 102 101 128
3 102 128 127
3 104 106 129
3 104 129 103
3 103 129 118
3 105 108 130
3 106 105 130
3 106 130 129
3 107 127 131
3 108 107 131
3 108 131 132
3 108 132 130
3 109 134 125
3 125 134 133
3 113 111 135
3 111 110 135
3 135 110 121
3 115 112 136
3 136 112 113
3 136 113 135
3 116 114 137
3 137 114 115
3 137 115 138
3 138 115 136
3 139 124 116
3 139 116 140
3 140 116 137
3 141 135 121
3 118 129 142
3 118 142 143
3 117 118 143
3 123 117 143
3 122 120 144
3 120 119 144
3 144 119 123
3 141 121 145
3 145 121 122
3 145 122 144
3 146 141 145
3 147 144 123
3 147 123 148
3 143 148 123
3 150 124 139
3 149 150 139
3 131 127 151
3 125 133 152
3 126 125 152
3 126 152 153
3 128 126 153
3 128 153 154
3 128 154 127
3 127 154 151
3 152 133 155
3 130 132 156
3 130 156 129
3 129 156 142
3 131 151 157
3 132 131 157
3 132 157 156
3 156 158 142
3 157 151 159
3 133 160 155
3 134 161 133
3 133 161 160
3 138 136 162
3 136 135 162
3 162 135 141
3 140 137 163
3 163 137 138
3 163 138 162
3 149 139 164
3 164 139 140
3 164 140 165
3 165 140 163
3 166 149 164
3 167 162 141
3 167 141 146
3 142 158 168
3 143 142 168
3 143 168 148
3 146 145 169
3 145 144 169
3 169 144 147
3 170 167 146
3 170 146 169
3 171 169 147
3 171 147 148
3 171 148 172
3 168 172 148
3 173 149 166
3 174 150 149
3 173 174 149
3 154 175 151
3 151 175 159
3 152 155 176
3 153 152 176
3 153 176 177
3 153 177 154
3 154 177 175
3 155 160 178
3 155 178 179
3 176 155 179
3 156 157 180
3 156 180 158
3 157 159 181
3 157 181 180
3 158 180 182
3 158 182 168
3 159 175 183
3 159 183 181
3 175 184 183
3 160 186 178
3 178 186 185
3 161 187 160
3 160 187 186
3 165 163 188
3 163 162 188
3 188 162 167
3 166 164 189
3 189 164 165
3 189 165 188
3 190 173 166
3 190 166 191
3 191 166 189
3 192 188 167
3 192 167 170
3 193 192 170
3 182 194 168
3 194 172 168
3 193 170 195
3 170 169 195
3 195 169 171
3 196 195 171
3 196 171 172
3 194 197 172
3 197 198 172
3 198 196 172
3 200 173 190
3 199 200 190
3 201 174 173
3 200 201 173
3 176 179 202
3 177 176 202
3 177 202 175
3 175 202 184
3 178 185 203
3 178 203 179
3 179 203 202
3 203 185 204
3 202 205 184
3 183 206 181
3 180 181 206
3 180 206 182
3 182 206 194
3 183 184 207
3 205 207 184
3 183 207 206
3 185 208 204
3 186 209 185
3 185 209 208
3 187 210 186
3 186 210 209
3 191 189 211
3 189 188 211
3 211 188 192
3 199 190 212
3 212 190 191
3 212 191 211
3 213 199 212
3 214 211 192
3 214 192 193
3 215 214 193
3 215 193 195
3 206 216 194
3 216 197 194
3 216 217 197
3 215 195 218
3 218 195 196
3 198 218 196
3 217 219 197
3 219 218 198
3 197 219 198
3 220 199 213
3 221 200 199
3 220 221 199
3 222 201 200
3 221 222 200
3 203 204 223
3 203 223 202
3 202 223 205
3 204 208 224
3 204 224 223
3 205 223 225
3 205 225 207
3 207 225 226
3 207 226 206
3 226 216 206
3 208 228 224
3 224 228 227
3 209 229 208
3 229 228 208
3 210 230 209
3 209 230 229
3 213 212 231
3 212 211 231
3 231 211 214
3 232 220 213
3 232 213 231
3 233 231 214
3 233 214 215
3 234 233 215
3 234 215 218
3 226 235 216
3 235 217 216
3 235 236 217
3 217 236 219
3 237 234 218
3 237 218 219
3 236 238 219
3 238 237 219
3 240 220 232
3 239 240 232
3 241 221 220
3 240 241 220
3 242 222 221
3 241 242 221
3 224 227 243
3 224 243 223
3 223 243 225
3 225 243 244
3 225 244 226
3 226 244 235
3 227 245 243
3 228 246 227
3 227 246 245
3 229 247 228
3 228 247 246
3 230 248 229
3 229 248 247
3 239 232 249
3 232 231 249
3 249 231 233
3 250 249 233
3 250 233 234
3 237 250 234
3 244 251 235
3 235 251 236
3 251 252 236
3 236 252 238
3 252 253 238
3 253 250 237
3 253 237 238
3 254 239 249
3 255 240 239
3 254 255 239
3 256 241 240
3 255 256 240
3 257 242 241
3 256 257 241
3 245 258 243
3 243 258 244
3 244 258 251
3 245 259 258
3 246 260 245
3 245 260 259
3 247 261 246
3 246 261 260
3 248 262 247
3 247 262 261
3 254 249 263
3 263 249 250
3 253 263 250
3 258 264 251
3 251 264 252
3 264 265 252
3 265 263 253
3 252 265 253
3 266 254 263
3 267 255 254
3 266 267 254
3 268 256 255
3 267 268 255
3 269 257 256
3 268 269 256
3 259 270 258
3 270 264 258
3 260 271 259
3 259 271 270
3 261 272 260
3 260 272 271
3 262 273 261
3 273 272 261
3 270 274 264
3 275 266 263
3 275 263 265
3 274 276 264
3 276 265 264
3 276 277 265
3 277 275 265
3 278 267 266
3 275 278 266
3 279 268 267
3 278 279 267
3 280 269 268
3 279 280 268
3 271 281 270
3 270 281 274
3 272 282 271
3 271 282 281
3 273 283 272
3 272 283 282
3 281 284 274
3 274 284 276
3 285 278 275
3 277 285 275
3 284 286 276
3 286 285 277
3 276 286 277
3 287 279 278
3 285 287 278
3 288 280 279
3 287 288 279
3 282 289 281
3 281 289 284
3 283 290 282
3 282 290 289
3 289 291 284
3 284 291 286
3 291 292 286
3 292 287 285
3 286 292 285
3 293 288 287
3 292 293 287
3 290 294 289
3 289 294 291
3 294 295 291
3 295 293 292
3 291 295 292
CELL_TYPES 542
5
5
5
5
5
5
5
5
5
5
5
5
5
5
5
5
5
5
5
5
5
5
5
5
5
5
5
5
5
5
5
5
5
5
5
5
5
5
5
5
5
5
5
5
5
5
5
5
5
5
5
5
5
5
5
5
5
5
5
5
5
5
5
5
5
5
5
5
5
5
5
5
5
5
5
5
5
5
5
5
5
5
5
5
5
5
5
5
5
5
5
5
5
5
5
5
5
5
5
5
5
5
5
5
5
5
5
5
5
5
5
5
5
5
5
5
5
5
5
5
5
5
5
5
5
5
5
5
5
5
5
5
5
5
5
5
5
5
5
5
5
5
5
5
5
5
5
5
5
5
5
5
5
5
5
5
5
5
5
5
5
5
5
5
5
5
5
5
5
5
5
5
5
5
5
5
5
5
5
5
5
5
5
5
5
5
5
5
5
5
5
5
5
5
5
5
5
5
5
5
5
5
5
5
5
5
5
5
5
5
5
5
5
5
5
5
5
5
5
5
5
5
5
5
5
5
5
5
5
5
5
5
5
5
5
5
5
5
5
5
5
5
5
5
5
5
5
5
5
5
5
5
5
5
5
5
5
5
5
5
5
5
5
5
5
5
5
5
5
5
5
5
5
5
5
5
5
5
5
5
5
5
5
5
5
5
5
5
5
5
5
5
5
5
5
5
5
5
5
5
5
5
5
5
5
5
5
5
5
5
5
5
5
5
5
5
5
5
5
5
5
5
5
5
5
5
5
5
5
5
5
5
5
5
5
5
5
5
5
5
5
5
5
5
5
5
5
5
5
5
5
5
5
5
5
5
5
5
5
5
5
5
5
5
5
5
5
5
5
5
5
5
5
5
5
5
5
5
5
5
5
5
5
5
5
5
5
5
5
5
5
5
5
5
5
5
5
5
5
5
5
5
5
5
5
5
5
5
5
5
5
5
5
5
5
5
5
5
5
5
5
5
5
5
5
5
5
5
5
5
5
5
5
5
5
5
5
5
5
5
5
5
5
5
5
5
5
5
5
5
5
5
5
5
5
5
5
5
5
5
5
5
5
5
5
5
5
5
5
5
5
5
5
5
5
5
5
5
5
5
5
5
5
5
5
5
5
5
5
5
5
5
5
5
5
5
5
5
5
5
5
5
5
5
5
5
5
5
5
5
5
5
5
5
5
5
5
5
5
5
5
5
5
5
5
5
5
5
5
5
5
5
5
5
5
5
5
5
5
5
5
5
POINT_DATA 296
SCALARS concentrations float 4
LOOKUP_TABLE default
0 0.946081 0.0987015 14.5221
0 0.94578 0.100144 18.9038
0 0.946119 0.0961274 18.5816
0 0.945872 0.0988693 95.2479
0 0.946084 0.0919132 3.44349
0 0.94582 0.10305 47.4999
0 0.945816 0.0994213 57.5155
0 0.945924 0.091739 2.8062
0 0.945809 0.092348 11.7886
0 0.945549 0.106536 8.52593
0 0.945415 0.0997065 17.0761
0 0.945682 0.100972 96.172
0 0.945463 0.0987638 22.6732
0 0.945973 0.0918497 3.98402
0 0.945791 0.0919732 0.422703
0 0.945962 0.0913571 2.04997
0 0.945955 0.0913141 1.87291
0 0.945847 0.0924374 12.9749
0 0.945715 0.0929137 10.5892
0 0.945899 0.091381 3.95997
0 0.945859 0.0915056 5.92502
0 0.945264 0.0977061 96.7035
0 0.945412 0.104432 24.6617
0 0.945553 0.0933004 10.2607
0 0.945453 0.0924398 7.70529
0 0.945618 0.09208 5.44079
0 0.945424 0.0973083 113.898
0 0.945491 0.0916471 3.21766
0 0.945513 0.100188 33.2179
0 0.945873 0.0913864 2.46447
0 0.945754 0.0913117 2.24076
0 0.945886 0.0912273 2.20018
0 0.945923 0.100236 55.6146
0 0.945905 0.0911644 1.58143
0 0.945909 0.0911597 1.19283
0 0.94581 0.0917959 7.24954
0 0.945724 0.0918207 4.9863
0 0.945885 0.0912041 2.38376
0 0.945857 0.0914151 4.34858
0 0.945433 0.0919421 4.31445
0 0.945729 0.0926161 7.95681
0 0.945649 0.091645 2.98839
0 0.94563 0.0914 0.756959
0 0.945903 0.104673 106.418
0 0.94565 0.0912827 2.0857
0 0.94552 0.0917471 6.25443
0 0.945608 0.0911957 2.49838
0 0.945573 0.0983071 63.2543
0 0.945583 0.0917976 6.73612
0 0.945688 0.101549 145.496
0 0.945819 0.0911728 1.8683
0 0.945753 0.0911455 1.63544
0 0.945843 0.0910599 1.35078
0 0.945936 0.0928761 10.0952
0 0.945802 0.0926749 11.5335
0 0.945871 0.090988 0.802406
0 0.945825 0.0914468 3.62179
0 0.945777 0.0914189 2.96048
0 0.94586 0.0911203 1.13876
0 0.945722 0.0912939 3.04152
0 0.945849 0.0915408 4.17231
0 0.945774 0.0912214 1.93944
0 0.945781 0.0910874 1.767
0 0.945687 0.100477 128.917
0 0.945716 0.0910357 1.10969
0 0.945626 0.0911368 1.85226
0 0.945691 0.0910178 1.1093
0 0.94565 0.0920955 6.23273
0 0.945674 0.0912367 1.43282
0 0.945852 0.100944 81.5623
0 0.945773 0.0927151 8.05559
0 0.945889 0.104567 63.2418
0 0.945836 0.0909987 0.621227
0 0.945782 0.0910251 0.633166
0 0.945803 0.0910154 0.643642
0 0.945866 0.091622 3.10008
0 0.945638 0.0920667 13.0963
0 0.945774 0.0915625 3.68084
0 0.945849 0.0909617 0.505303
0 0.945821 0.0909854 0.388877
0 0.945836 0.0911555 1.27824
0 0.945848 0.091024 0.603705
0 0.945837 0.0910839 1.18863
0 0.945864 0.0912783 1.07008
0 0.945838 0.0910448 0.838437
0 0.9455 0.101276 97.7215
0 0.945743 0.0909763 0.15609
0 0.94571 0.0910816 0.276358
0 0.945732 0.0916038 1.45168
0 0.945725 0.0913015 0.423374
0 0.945847 0.092985 14.9439
0 0.945783 0.0918419 3.8432
0 0.945905 0.103415 106.989
0 0.945857 0.0929981 15.9591
0 0.945797 0.0909838 0.629763
0 0.945767 0.0909712 0.580856
0 0.945777 0.0909722 0.701979
0 0.945743 0.0909878 0.430739
0 0.945802 0.101339 105.833
0 0.945525 0.0921955 12.211
0 0.945837 0.0913024 1.35089
0 0.945674 0.0913795 4.39762
0 0.945775 0.0912751 2.4523
0 0.945795 0.0909667 0.532058
0 0.945825 0.0909819 0.410348
0 0.945844 0.0910512 0.584583
0 0.945833 0.0910065 0.472008
0 0.945847 0.0910792 0.481502
0 0.945842 0.0910531 0.903237
0 0.945418 0.100951 76.3501
0 0.945736 0.0910826 0.565072
0 0.945745 0.0914071 1.20787
0 0.945794 0.0917161 3.50976
0 0.945756 0.0914566 1.14591
0 0.945824 0.0928348 14.8779
0 0.945772 0.0915659 4.37899
0 0.945742 0.0928855 12.1938
0 0.945767 0.090966 0.681187
0 0.945781 0.0909721 0.590656
0 0.945765 0.0909617 0.74016
0 0.945751 0.0909533 0.639527
0 0.945729 0.09101 0.51748
0 0.945734 0.0909656 0.463911
0 0.945742 0.0909632 0.706384
0 0.945724 0.100293 39.778
0 0.945478 0.0919153 8.97724
0 0.945618 0.0913186 3.68027
0 0.945806 0.0911086 1.329
0 0.945728 0.0911855 2.37261
0 0.945805 0.0909847 0.449247
0 0.945826 0.0910113 0.699765
0 0.945825 0.0910287 1.059
0 0.94582 0.091035 1.17951
0 0.945587 0.0915641 5.44012
0 0.945434 0.0981581 9.72826
0 0.94573 0.0911069 0.382183
0 0.945741 0.0911979 1.01657
0 0.945744 0.0916307 5.36822
0 0.94573 0.091153 2.47265
0 0.945729 0.0925643 15.9902
0 0.945724 0.0914953 4.61262
0 0.945716 0.0910829 0.784379
0 0.945775 0.0909864 0.614943
0 0.945753 0.0909722 0.672261
0 0.945733 0.0909566 0.592213
0 0.945719 0.0910005 0.482092
0 0.945709 0.0910075 0.533206
0 0.945723 0.0909575 0.553438
0 0.94573 0.0909655 0.575122
0 0.945693 0.0929272 15.0531
0 0.945738 0.105912 151.702
0 0.945788 0.0910255 1.24755
0 0.945614 0.0912153 3.1198
0 0.945685 0.0911182 2.0017
0 0.945756 0.0910575 1.31352
0 0.945648 0.0912815 2.54437
0 0.945797 0.0909989 0.813547
0 0.945797 0.0910191 1.22369
0 0.945767 0.0909938 0.704752
0 0.945769 0.0910064 1.0652
0 0.945706 0.0918433 3.68169
0 0.945695 0.0982647 11.0459
0 0.945715 0.0910783 1.13571
0 0.945716 0.0911729 2.00247
0 0.945712 0.0915358 3.1622
0 0.94571 0.0912891 1.60678
0 0.945663 0.0914887 3.78654
0 0.945705 0.0910062 0.531083
0 0.945742 0.0909774 0.645474
0 0.945713 0.0909538 0.505451
0 0.945703 0.0909846 0.583623
0 0.945713 0.0909582 0.439953
0 0.94572 0.0909788 0.496864
0 0.945573 0.0921591 2.56046
0 0.945613 0.101421 62.2992
0 0.945743 0.0910001 0.944982
0 0.945672 0.0910685 1.7388
0 0.945714 0.0910228 1.37396
0 0.94569 0.0915155 3.00753
0 0.945675 0.0911821 1.67485
0 0.945769 0.0910015 0.938559
0 0.945761 0.091002 0.93622
0 0.945745 0.0909917 0.814117
0 0.945741 0.0910029 0.811126
0 0.945722 0.0909892 0.814411
0 0.945712 0.0916293 5.02155
0 0.945761 0.0923186 6.09665
0 0.945746 0.098629 37.9491
0 0.945704 0.0910834 0.809835
0 0.945697 0.0912235 1.14789
0 0.945632 0.091381 1.52339
0 0.945678 0.0912118 1.36566
0 0.945699 0.0909792 0.569617
0 0.945699 0.09101 0.495427
0 0.945729 0.0909952 0.721081
0 0.945704 0.0909852 0.451486
0 0.945708 0.0909822 0.315958
0 0.945716 0.0910133 0.446564
0 0.94571 0.0910046 0.274998
0 0.94563 0.0913587 1.60069
0 0.945568 0.0919538 1.93983
0 0.94549 0.102326 8.62103
0 0.9457 0.0909783 0.753883
0 0.945686 0.091218 1.6176
0 0.94569 0.0913153 1.74967
0 0.945706 0.0909817 0.472357
0 0.945736 0.0910124 0.706625
0 0.945722 0.09102 0.490534
0 0.94571 0.0916147 4.32249
0 0.945807 0.0927254 15.9368
0 0.94587 0.0971396 16.7501
0 0.945695 0.0910092 0.683586
0 0.945674 0.0910773 0.644495
0 0.945671 0.0910965 0.373586
0 0.945699 0.09104 0.727478
0 0.945701 0.0910368 0.432837
0 0.945723 0.0910315 0.453207
0 0.945715 0.0910606 0.247084
0 0.945705 0.0910222 0.267671
0 0.94571 0.0910401 0.144508
0 0.94564 0.0913268 0.727348
0 0.945607 0.0922679 4.25467
0 0.945585 0.0990029 31.5329
0 0.945696 0.0910064 0.627655
0 0.945701 0.0911556 0.862834
0 0.945711 0.0910197 0.310316
0 0.945721 0.0910517 0.170179
0 0.945732 0.0911013 1.24827
0 0.945721 0.0914494 3.95211
0 0.94572 0.0928282 16.2146
0 0.945813 0.104418 96.109
0 0.945696 0.0910616 0.818525
0 0.945693 0.0910649 0.27434
0 0.945705 0.0910894 0.710098
0 0.945706 0.0910737 0.380223
0 0.945718 0.0910842 0.250719
0 0.945717 0.0911093 0.362398
0 0.945711 0.0910719 0.194532
0 0.945716 0.0910816 0.253498
0 0.945724 0.0911675 0.850682
0 0.94567 0.0912734 1.26506
0 0.94558 0.0919177 4.53533
0 0.945562 0.100252 90.1785
0 0.945719 0.0910206 0.341943
0 0.945721 0.0910933 0.433776
0 0.945769 0.0911136 1.55261
0 0.945798 0.0915319 4.22898
0 0.945754 0.092522 3.09482
0 0.94569 0.105107 1.57847
0 0.94572 0.0910984 0.806226
0 0.945719 0.0910709 0.383832
0 0.945726 0.0911397 0.563294
0 0.945728 0.0910977 0.462215
0 0.945727 0.091046 0.134026
0 0.945766 0.0911747 1.3155
0 0.945758 0.0913536 2.34788
0 0.945646 0.0917952 1.70787
0 0.945538 0.0984383 17.8955
0 0.945743 0.0911482 0.695268
0 0.945804 0.0912258 1.94071
0 0.945885 0.0912834 3.03222
0 0.945953 0.092205 11.1204
0 0.945877 0.0998872 28.3468
0 0.945749 0.0910488 0.486426
0 0.945743 0.0911379 0.753784
0 0.94575 0.091027 0.682408
0 0.94581 0.0911685 1.48063
0 0.945845 0.0913937 3.22849
0 0.945844 0.092242 6.71082
0 0.945716 0.0995897 64.2958
0 0.945779 0.0912666 1.62926
0 0.945883 0.0913843 4.09156
0 0.946058 0.0924213 15.9373
0 0.946123 0.107039 145.839
0 0.945758 0.0912667 1.54515
0 0.945805 0.0910456 1.15242
0 0.945761 0.0911489 1.78518
0 0.945796 0.0910846 1.96315
0 0.945903 0.0913691 3.24009
0 0.945951 0.0919487 10.2824
0 0.945968 0.104546 45.5991
0 0.945797 0.0913396 1.21863
0 0.945944 0.0917601 5.48628
0 0.946127 0.099912 17.9496
0 0.945754 0.0915192 3.61169
0 0.945891 0.0912676 2.44233
0 0.945819 0.0913915 4.31967
0 0.946022 0.0921469 11.4941
0 0.946014 0.102342 121.088
0 0.945711 0.092379 9.07901
0 0.945838 0.100516 87.5467
0 0.945749 0.0927179 14.4195
0 0.946004 0.0924218 10.2737
0 0.946153 0.107827 116.094
0 0.945609 0.106708 92.4008
0 0.945927 0.1012 88.6136
VECTORS fa_u float
0.00703126 0.00291153 -0
0.00499303 0.00287947 -0
0.00500172 0.00136037 -0
0.00843496 0.00114075 -0
1e-08 0 0
0.00597613 0.00457272 -0
0.00408531 0.00406619 -0
1e-08 0 0
1e-08 0 0
0.00403754 0.00517609 -0
0.00389012 0.00667891 -0
0.00495864 2.24018e-05 -0
0.00750626 -0.000914447 0
1e-08 0 0
1e-08 0 0
1e-08 0 0
1e-08 0 0
1e-08 0 0
1e-08 0 0
1e-08 0 0
1e-08 0 0
0.00238256 0.00572547 -0
0.00197547 0.0073846 -0
1e-08 0 0
1e-08 0 0
1e-08 0 0
0.00721249 -0.00191571 0
1e-08 0 0
0.0069712 -0.00293398 0
1e-08 0 0
1e-08 0 0
1e-08 0 0
0.000807538 0.00627394 -0
1e-08 0 0
1e-08 0 0
1e-08 0 0
1e-08 0 0
1e-08 0 0
1e-08 0 0
1e-08 0 0
1e-08 0 0
1e-08 0 0
1e-08 0 0
-7.17657e-05 0.00835742 -0
1e-08 0 0
1e-08 0 0
1e-08 0 0
0.0061373 -0.00364156 0
1e-08 0 0
0.00422733 -0.00328962 0
1e-08 0 0
1e-08 0 0
1e-08 0 0
1e-08 0 0
1e-08 0 0
1e-08 0 0
1e-08 0 0
1e-08 0 0
1e-08 0 0
1e-08 0 0
1e-08 0 0
1e-08 0 0
1e-08 0 0
-0.000806622 0.00564108 0
1e-08 0 0
1e-08 0 0
1e-08 0 0
1e-08 0 0
1e-08 0 0
0.00458246 -0.0045714 0
1e-08 0 0
0.00366323 -0.00471249 0
1e-08 0 0
1e-08 0 0
1e-08 0 0
1e-08 0 0
1e-08 0 0
1e-08 0 0
1e-08 0 0
1e-08 0 0
1e-08 0 0
1e-08 0 0
1e-08 0 0
1e-08 0 0
1e-08 0 0
-0.00122091 0.00463775 0
1e-08 0 0
1e-08 0 0
1e-08 0 0
1e-08 0 0
1e-08 0 0
1e-08 0 0
0.00361722 -0.00615005 0
1e-08 0 0
1e-08 0 0
1e-08 0 0
1e-08 0 0
1e-08 0 0
0.00309339 -0.00747954 0
1e-08 0 0
1e-08 0 0
1e-08 0 0
1e-08 0 0
1e-08 0 0
1e-08 0 0
1e-08 0 0
1e-08 0 0
1e-08 0 0
1e-08 0 0
-0.003092 0.0076282 0
1e-08 0 0
1e-08 0 0
1e-08 0 0
1e-08 0 0
1e-08 0 0
1e-08 0 0
1e-08 0 0
1e-08 0 0
1e-08 0 0
1e-08 0 0
1e-08 0 0
1e-08 0 0
1e-08 0 0
1e-08 0 0
0.00154227 -0.00583995 0
1e-08 0 0
1e-08 0 0
1e-08 0 0
1e-08 0 0
1e-08 0 0
1e-08 0 0
1e-08 0 0
1e-08 0 0
1e-08 0 0
-0.00386041 0.0066236 0
1e-08 0 0
1e-08 0 0
1e-08 0 0
1e-08 0 0
1e-08 0 0
1e-08 0 0
1e-08 0 0
1e-08 0 0
1e-08 0 0
1e-08 0 0
1e-08 0 0
1e-08 0 0
1e-08 0 0
1e-08 0 0
1e-08 0 0
0.000843224 -0.00633255 0
1e-08 0 0
1e-08 0 0
1e-08 0 0
1e-08 0 0
1e-08 0 0
1e-08 0 0
1e-08 0 0
1e-08 0 0
1e-08 0 0
1e-08 0 0
-0.00376813 0.00485215 0
1e-08 0 0
1e-08 0 0
1e-08 0 0
1e-08 0 0
1e-08 0 0
1e-08 0 0
1e-08 0 0
1e-08 0 0
1e-08 0 0
1e-08 0 0
1e-08 0 0
1e-08 0 0
2.30082e-05 -0.00657233 0
1e-08 0 0
1e-08 0 0
1e-08 0 0
1e-08 0 0
1e-08 0 0
1e-08 0 0
1e-08 0 0
1e-08 0 0
1e-08 0 0
1e-08 0 0
1e-08 0 0
1e-08 0 0
-0.00384011 0.00386814 0
1e-08 0 0
1e-08 0 0
1e-08 0 0
1e-08 0 0
1e-08 0 0
1e-08 0 0
1e-08 0 0
1e-08 0 0
1e-08 0 0
1e-08 0 0
1e-08 0 0
1e-08 0 0
1e-08 0 0
-0.000790071 -0.00628858 0
1e-08 0 0
1e-08 0 0
1e-08 0 0
1e-08 0 0
1e-08 0 0
1e-08 0 0
1e-08 0 0
1e-08 0 0
-0.0051862 0.00406883 0
1e-08 0 0
1e-08 0 0
1e-08 0 0
1e-08 0 0
1e-08 0 0
1e-08 0 0
1e-08 0 0
1e-08 0 0
1e-08 0 0
1e-08 0 0
1e-08 0 0
-0.00206654 -0.0077584 0
1e-08 0 0
1e-08 0 0
1e-08 0 0
1e-08 0 0
1e-08 0 0
1e-08 0 0
1e-08 0 0
-0.00591735 0.00349998 0
1e-08 0 0
1e-08 0 0
1e-08 0 0
1e-08 0 0
1e-08 0 0
1e-08 0 0
1e-08 0 0
1e-08 0 0
1e-08 0 0
1e-08 0 0
1e-08 0 0
-0.00230761 -0.00555037 0
1e-08 0 0
1e-08 0 0
1e-08 0 0
1e-08 0 0
1e-08 0 0
-0.00833398 0.00344427 0
1e-08 0 0
1e-08 0 0
1e-08 0 0
1e-08 0 0
1e-08 0 0
1e-08 0 0
1e-08 0 0
1e-08 0 0
-0.00399603 -0.00686584 0
1e-08 0 0
1e-08 0 0
1e-08 0 0
1e-08 0 0
-0.00484524 0.00128581 0
1e-08 0 0
1e-08 0 0
1e-08 0 0
1e-08 0 0
1e-08 0 0
1e-08 0 0
-0.00396943 -0.00508688 0
1e-08 0 0
1e-08 0 0
1e-08 0 0
-0.00841401 0.00109318 0
1e-08 0 0
1e-08 0 0
1e-08 0 0
1e-08 0 0
1e-08 0 0
1e-08 0 0
-0.00370777 -0.00371378 0
1e-08 0 0
1e-08 0 0
-0.00695453 -7.73947e-05 0
1e-08 0 0
1e-08 0 0
1e-08 0 0
1e-08 0 0
-0.00692712 -0.00530728 0
1e-08 0 0
-0.00507313 -0.000689422 0
1e-08 0 0
1e-08 0 0
-0.00483595 -0.0027649 0
-0.00673051 -0.00178086 0
-0.00653692 -0.00270614 0
