# vtk DataFile Version 2.0
CellBP Time: 9.52
ASCII
DATASET UNSTRUCTURED_GRID
POINTS 296 double
-8.92931 -3.66327 0
-8.3634 -4.80476 0
-9.3264 -2.45258 0
-9.58981 -1.21459 0
-8.25886 -2.77515 0
-7.65321 -5.86413 0
-6.81265 -6.82145 0
-7.8193 -3.81991 0
-7.24915 -4.80674 0
-5.86531 -7.66457 0
-4.82094 -8.3796 0
-9.67067 0.0467581 0
-9.60361 1.31624 0
-8.56632 -1.6581 0
-8.70228 -0.521383 0
-7.49408 -1.96943 0
-7.12767 -2.85855 0
-6.5613 -5.7193 0
-5.76464 -6.53869 0
-6.6962 -3.83085 0
-6.1389 -4.61709 0
-3.67729 -8.93672 0
-2.4711 -9.35515 0
-4.86688 -7.2519 0
-3.89111 -7.83091 0
-8.71578 0.6342 0
-9.36607 2.57246 0
-8.55388 1.75356 0
-8.95248 3.7772 0
-7.65539 -0.910791 0
-7.71177 0.0833277 0
-6.86722 -1.29202 0
-1.21496 -9.59271 0
-6.36352 -2.12046 0
-6.2401 -3.01141 0
-5.47107 -5.41683 0
-4.74591 -6.05889 0
-5.58873 -3.70883 0
-5.20172 -4.50686 0
-2.84819 -8.30365 0
-1.76367 -8.57459 0
-3.8948 -6.66839 0
-3.03819 -7.09897 0
0.0526865 -9.67875 0
-7.62884 1.13115 0
-8.27962 2.89409 0
-7.48094 2.08689 0
-8.37509 4.91078 0
-7.81156 3.94185 0
-7.65772 5.96381 0
-6.70112 -0.387055 0
-6.87926 0.549999 0
-5.713 -0.991053 0
-0.584675 -8.73574 0
0.555664 -8.68673 0
-5.24836 -2.44984 0
-4.43659 -5.04049 0
-3.86022 -5.7204 0
-4.39315 -3.76507 0
-2.0467 -7.50292 0
-1.12681 -7.72007 0
-2.96669 -6.04872 0
-2.29287 -6.56659 0
1.31424 -9.58228 0
-6.62177 1.40561 0
-7.10033 3.08419 0
-6.59295 2.34702 0
-7.22285 4.93828 0
-6.65023 3.9587 0
-6.81498 6.91163 0
-6.50667 5.83135 0
-5.86352 7.75565 0
-4.42219 -1.17403 0
-5.76189 0.504919 0
-4.62475 -0.0170267 0
0.00173474 -7.77179 0
1.7119 -8.54953 0
0.928897 -7.67896 0
-4.00997 -2.38588 0
-3.47436 -1.38688 0
-3.26539 -4.76242 0
-3.24735 -3.24289 0
-1.3718 -6.61541 0
-0.512328 -6.95597 0
-1.96184 -5.49337 0
2.55803 -9.32205 0
-5.45742 2.01904 0
-6.03355 3.03763 0
-6.04242 4.81415 0
-5.70186 3.94335 0
-5.70185 6.64315 0
-5.39486 5.55375 0
-4.81771 8.47943 0
-4.78719 7.32032 0
-3.48655 -0.423159 0
-4.41594 1.23956 0
-3.69004 0.588806 0
-4.02991 2.30909 0
-3.68066 9.04408 0
2.81936 -8.22979 0
0.402278 -6.71883 0
1.98615 -7.43266 0
1.27701 -6.82069 0
-2.43877 -0.869155 0
-2.82905 -2.12057 0
-2.28268 -4.06779 0
-2.31599 -2.95545 0
-0.445798 -5.80448 0
-1.21302 -4.46777 0
3.77023 -8.93488 0
-4.74468 3.35918 0
-5.03489 4.53969 0
-4.59646 6.20575 0
-4.4904 5.29546 0
-3.80856 7.91464 0
-3.78271 6.76082 0
-2.75376 8.33472 0
-1.6465 -0.133655 0
-1.44685 -0.886564 0
-2.4839 0.511106 0
-3.23502 1.44072 0
-3.21421 3.29373 0
-2.89343 2.36647 0
-1.3548 0.631232 0
-2.47133 9.44261 0
3.87904 -7.7889 0
2.91404 -7.05748 0
0.93352 -5.75598 0
2.0365 -6.33106 0
-1.67694 -1.98544 0
-1.42656 -3.25844 0
0.0863944 -4.7059 0
-0.55978 -3.67272 0
4.87031 -7.22529 0
4.90634 -8.36664 0
-3.74118 4.50525 0
-3.69548 5.68584 0
-2.85335 7.2046 0
-2.9772 6.2813 0
-1.64459 8.65076 0
-1.91616 7.53933 0
-2.32287 4.02154 0
-0.728437 -1.32378 0
-0.836314 -0.253952 0
-1.93387 1.68393 0
-2.11679 2.86644 0
-1.30365 3.5283 0
-0.871858 1.35469 0
-0.284608 0.459254 0
-0.527808 8.79612 0
-1.21993 9.68922 0
1.09718 -4.5292 0
3.84832 -6.61518 0
2.94054 -6.0094 0
2.08507 -5.35755 0
4.72226 -6.11631 0
-0.554858 -2.46761 0
0.49338 -3.44213 0
0.0542943 -1.60758 0
1.46665 -3.64951 0
5.80264 -6.53163 0
5.95888 -7.65065 0
-2.45322 5.29592 0
-2.10496 6.46348 0
-0.891336 7.7298 0
-1.25331 6.85986 0
0.0885277 7.81348 0
-1.13822 4.46318 0
0.148906 -0.614761 0
-0.801684 2.48911 0
-0.337215 3.58829 0
0.0582479 1.51458 0
0.736769 0.474488 0
0.640522 8.80689 0
0.0470424 9.77601 0
2.35149 -4.23608 0
3.80592 -5.5592 0
2.95929 -5.14325 0
5.51385 -5.4204 0
4.63278 -5.20543 0
0.630196 -2.28864 0
1.2478 -2.93303 0
0.755927 -1.38923 0
2.14534 -3.10962 0
2.96457 -3.4405 0
6.0977 -4.73566 0
6.59425 -5.70576 0
6.91765 -6.80977 0
-1.0078 5.76721 0
-0.362687 6.81808 0
1.11467 7.71059 0
0.557783 7.01997 0
-0.00361746 4.69552 0
0.599012 3.81012 0
1.33477 -0.641388 0
0.531935 2.64519 0
0.959031 1.57484 0
1.90327 0.212638 0
1.60706 1.06387 0
2.11639 7.52896 0
1.7871 8.64993 0
1.31828 9.69631 0
3.77959 -4.29551 0
5.06111 -4.38647 0
5.79182 -3.88697 0
3.74965 -3.16726 0
1.80481 -1.87917 0
2.99647 -2.55524 0
6.72897 -3.90955 0
7.32313 -4.85257 0
7.76603 -5.8651 0
0.482072 5.83503 0
1.42006 6.68992 0
2.36013 6.62064 0
1.20034 4.52937 0
1.4786 3.38103 0
2.42474 -0.690415 0
2.81483 0.142697 0
1.77938 2.15727 0
2.60179 1.14687 0
3.05385 7.11885 0
2.88867 8.31866 0
2.57367 9.45751 0
4.86586 -3.28725 0
6.06995 -3.07436 0
4.14194 -2.25787 0
3.22504 -1.49666 0
6.68336 -2.29561 0
7.18104 -3.02086 0
7.9104 -3.88695 0
8.47829 -4.81813 0
2.01184 5.56017 0
3.05797 6.10404 0
2.35223 4.10021 0
2.40877 3.04424 0
3.50549 -0.456988 0
3.59644 0.614148 0
2.94641 2.27635 0
3.52323 1.51801 0
3.96914 5.84633 0
3.95096 6.74019 0
3.95169 7.88422 0
3.78187 9.04426 0
5.5282 -1.90025 0
4.47959 -1.12099 0
6.6626 -1.32468 0
7.53866 -2.02024 0
8.34004 -2.84303 0
9.0506 -3.68376 0
3.38386 4.83511 0
3.31159 3.35949 0
4.65921 0.13248 0
4.48121 1.29913 0
4.0276 2.42249 0
4.51306 5.10042 0
4.79319 6.13651 0
4.94043 7.32431 0
4.92451 8.484 0
5.83465 -0.433358 0
6.95045 -0.487263 0
7.70168 -1.07324 0
8.62335 -1.73043 0
9.45014 -2.47026 0
4.49946 3.78847 0
5.75857 1.08199 0
5.30909 2.50393 0
5.30766 4.5674 0
5.54536 5.46809 0
5.83811 6.61422 0
5.97357 7.77511 0
6.77758 0.450921 0
7.78534 -0.0276574 0
8.79349 -0.574651 0
9.70344 -1.2163 0
6.88309 1.32528 0
5.64572 3.73155 0
6.46143 2.1631 0
6.29629 3.04402 0
6.20885 4.63076 0
6.61594 5.77871 0
6.91507 6.92167 0
7.70732 0.951831 0
8.7819 0.566528 0
9.77993 0.0540559 0
7.52996 1.97389 0
6.73192 3.84809 0
7.17575 2.90247 0
7.29217 4.83105 0
7.76124 5.96789 0
8.63473 1.7044 0
9.68427 1.31649 0
8.32312 2.79948 0
7.89142 3.86967 0
8.46662 4.90844 0
9.43152 2.56283 0
9.03626 3.77178 0
CELLS 542 2168
3 2 0 4
3 0 1 7
3 4 0 7
3 1 5 8
3 7 1 8
3 3 2 13
3 13 2 4
3 11 3 14
3 14 3 13
3 13 4 15
3 4 7 16
3 15 4 16
3 5 6 17
3 8 5 17
3 6 9 18
3 17 6 18
3 7 8 19
3 16 7 19
3 8 17 20
3 19 8 20
3 9 10 23
3 18 9 23
3 10 21 24
3 23 10 24
3 12 11 25
3 25 11 14
3 26 12 27
3 27 12 25
3 14 13 29
3 29 13 15
3 25 14 30
3 30 14 29
3 29 15 31
3 15 16 33
3 31 15 33
3 16 19 34
3 33 16 34
3 17 18 35
3 20 17 35
3 18 23 36
3 35 18 36
3 19 20 37
3 34 19 37
3 20 35 38
3 37 20 38
3 21 22 39
3 24 21 39
3 22 32 40
3 39 22 40
3 23 24 41
3 36 23 41
3 24 39 42
3 41 24 42
3 27 25 44
3 44 25 30
3 28 26 45
3 45 26 27
3 45 27 46
3 46 27 44
3 47 28 48
3 48 28 45
3 30 29 50
3 50 29 31
3 44 30 51
3 51 30 50
3 50 31 52
3 31 33 52
3 32 43 53
3 40 32 53
3 53 43 54
3 33 34 55
3 34 37 55
3 33 55 52
3 35 36 56
3 38 35 56
3 36 41 57
3 56 36 57
3 37 38 58
3 38 56 58
3 37 58 55
3 39 40 59
3 42 39 59
3 40 53 60
3 59 40 60
3 41 42 61
3 57 41 61
3 42 59 62
3 61 42 62
3 43 63 54
3 46 44 64
3 64 44 51
3 48 45 65
3 65 45 46
3 65 46 66
3 66 46 64
3 49 47 67
3 67 47 48
3 67 48 68
3 68 48 65
3 69 49 70
3 70 49 67
3 52 55 72
3 64 51 73
3 51 50 73
3 50 52 73
3 73 52 74
3 74 52 72
3 53 54 75
3 60 53 75
3 54 63 76
3 54 76 77
3 75 54 77
3 55 58 78
3 72 55 78
3 72 78 79
3 56 57 80
3 57 61 80
3 56 80 58
3 58 80 81
3 78 58 81
3 59 60 82
3 62 59 82
3 60 75 83
3 82 60 83
3 61 62 84
3 62 82 84
3 61 84 80
3 63 85 76
3 66 64 86
3 64 73 86
3 68 65 87
3 87 65 66
3 87 66 86
3 70 67 88
3 88 67 68
3 88 68 89
3 89 68 87
3 71 69 90
3 90 69 70
3 90 70 91
3 91 70 88
3 92 71 93
3 93 71 90
3 74 72 94
3 94 72 79
3 86 73 95
3 95 73 74
3 95 74 96
3 96 74 94
3 97 86 95
3 76 85 99
3 75 77 100
3 83 75 100
3 76 99 101
3 77 76 101
3 77 101 102
3 100 77 102
3 94 79 103
3 78 81 104
3 79 78 104
3 79 104 103
3 80 84 105
3 81 80 105
3 81 105 106
3 104 81 106
3 82 83 107
3 83 100 107
3 82 107 84
3 84 107 108
3 105 84 108
3 85 109 99
3 89 87 110
3 87 86 110
3 110 86 97
3 91 88 111
3 111 88 89
3 111 89 110
3 93 90 112
3 112 90 91
3 112 91 113
3 113 91 111
3 98 92 114
3 114 92 93
3 114 93 115
3 115 93 112
3 116 98 114
3 117 103 118
3 96 94 119
3 94 103 119
3 119 103 117
3 97 95 120
3 120 95 96
3 120 96 119
3 121 110 97
3 121 97 122
3 122 97 120
3 123 119 117
3 124 98 116
3 99 109 125
3 99 125 126
3 101 99 126
3 100 102 127
3 100 127 107
3 101 126 128
3 102 101 128
3 102 128 127
3 104 106 129
3 104 129 103
3 103 129 118
3 105 108 130
3 106 105 130
3 106 130 129
3 107 127 131
3 108 107 131
3 108 131 132
3 108 132 130
3 109 134 125
3 125 134 133
3 113 111 135
3 111 110 135
3 135 110 121
3 115 112 136
3 136 112 113
3 136 113 135
3 116 114 137
3 137 114 115
3 137 115 138
3 138 115 136
3 139 124 116
3 139 116 140
3 140 116 137
3 141 135 121
3 118 129 142
3 118 142 143
3 117 118 143
3 123 117 143
3 122 120 144
3 120 119 144
3 144 119 123
3 141 121 145
3 145 121 122
3 145 122 144
3 146 141 145
3 147 144 123
3 147 123 148
3 143 148 123
3 150 124 139
3 149 150 139
3 131 127 151
3 125 133 152
3 126 125 152
3 126 152 153
3 128 126 153
3 128 153 154
3 128 154 127
3 127 154 151
3 152 133 155
3 130 132 156
3 130 156 129
3 129 156 142
3 131 151 157
3 132 131 157
3 132 157 156
3 156 158 142
3 157 151 159
3 133 160 155
3 134 161 133
3 133 161 160
3 138 136 162
3 136 135 162
3 162 135 141
3 140 137 163
3 163 137 138
3 163 138 162
3 149 139 164
3 164 139 140
3 164 140 165
3 165 140 163
3 166 149 164
3 167 162 141
3 167 141 146
3 142 158 168
3 143 142 168
3 143 168 148
3 146 145 169
3 145 144 169
3 169 144 147
3 170 167 146
3 170 146 169
3 171 169 147
3 171 147 148
3 171 148 172
3 168 172 148
3 173 149 166
3 174 150 149
3 173 174 149
3 154 175 151
3 151 175 159
3 152 155 176
3 153 152 176
3 153 176 177
3 153 177 154
3 154 177 175
3 155 160 178
3 155 178 179
3 176 155 179
3 156 157 180
3 156 180 158
3 157 159 181
3 157 181 180
3 158 180 182
3 158 182 168
3 159 175 183
3 159 183 181
3 175 184 183
3 160 186 178
3 178 186 185
3 161 187 160
3 160 187 186
3 165 163 188
3 163 162 188
3 188 162 167
3 166 164 189
3 189 164 165
3 189 165 188
3 190 173 166
3 190 166 191
3 191 166 189
3 192 188 167
3 192 167 170
3 193 192 170
3 182 194 168
3 194 172 168
3 193 170 195
3 170 169 195
3 195 169 171
3 196 195 171
3 196 171 172
3 194 197 172
3 197 198 172
3 198 196 172
3 200 173 190
3 199 200 190
3 201 174 173
3 200 201 173
3 176 179 202
3 177 176 202
3 177 202 175
3 175 202 184
3 178 185 203
3 178 203 179
3 179 203 202
3 203 185 204
3 202 205 184
3 183 206 181
3 180 181 206
3 180 206 182
3 182 206 194
3 183 184 207
3 205 207 184
3 183 207 206
3 185 208 204
3 186 209 185
3 185 209 208
3 187 210 186
3 186 210 209
3 191 189 211
3 189 188 211
3 211 188 192
3 199 190 212
3 212 190 191
3 212 191 211
3 213 199 212
3 214 211 192
3 214 192 193
3 215 214 193
3 215 193 195
3 206 216 194
3 216 197 194
3 216 217 197
3 215 195 218
3 218 195 196
3 198 218 196
3 217 219 197
3 219 218 198
3 197 219 198
3 220 199 213
3 221 200 199
3 220 221 199
3 222 201 200
3 221 222 200
3 203 204 223
3 203 223 202
3 202 223 205
3 204 208 224
3 204 224 223
3 205 223 225
3 205 225 207
3 207 225 226
3 207 226 206
3 226 216 206
3 208 228 224
3 224 228 227
3 209 229 208
3 229 228 208
3 210 230 209
3 209 230 229
3 213 212 231
3 212 211 231
3 231 211 214
3 232 220 213
3 232 213 231
3 233 231 214
3 233 214 215
3 234 233 215
3 234 215 218
3 226 235 216
3 235 217 216
3 235 236 217
3 217 236 219
3 237 234 218
3 237 218 219
3 236 238 219
3 238 237 219
3 240 220 232
3 239 240 232
3 241 221 220
3 240 241 220
3 242 222 221
3 241 242 221
3 224 227 243
3 224 243 223
3 223 243 225
3 225 243 244
3 225 244 226
3 226 244 235
3 227 245 243
3 228 246 227
3 227 246 245
3 229 247 228
3 228 247 246
3 230 248 229
3 229 248 247
3 239 232 249
3 232 231 249
3 249 231 233
3 250 249 233
3 250 233 234
3 237 250 234
3 244 251 235
3 235 251 236
3 251 252 236
3 236 252 238
3 252 253 238
3 253 250 237
3 253 237 238
3 254 239 249
3 255 240 239
3 254 255 239
3 256 241 240
3 255 256 240
3 257 242 241
3 256 257 241
3 245 258 243
3 243 258 244
3 244 258 251
3 245 259 258
3 246 260 245
3 245 260 259
3 247 261 246
3 246 261 260
3 248 262 247
3 247 262 261
3 254 249 263
3 263 249 250
3 253 263 250
3 258 264 251
3 251 264 252
3 264 265 252
3 265 263 253
3 252 265 253
3 266 254 263
3 267 255 254
3 266 267 254
3 268 256 255
3 267 268 255
3 269 257 256
3 268 269 256
3 259 270 258
3 270 264 258
3 260 271 259
3 259 271 270
3 261 272 260
3 260 272 271
3 262 273 261
3 273 272 261
3 270 274 264
3 275 266 263
3 275 263 265
3 274 276 264
3 276 265 264
3 276 277 265
3 277 275 265
3 278 267 266
3 275 278 266
3 279 268 267
3 278 279 267
3 280 269 268
3 279 280 268
3 271 281 270
3 270 281 274
3 272 282 271
3 271 282 281
3 273 283 272
3 272 283 282
3 281 284 274
3 274 284 276
3 285 278 275
3 277 285 275
3 284 286 276
3 286 285 277
3 276 286 277
3 287 279 278
3 285 287 278
3 288 280 279
3 287 288 279
3 282 289 281
3 281 289 284
3 283 290 282
3 282 290 289
3 289 291 284
3 284 291 286
3 291 292 286
3 292 287 285
3 286 292 285
3 293 288 287
3 292 293 287
3 290 294 289
3 289 294 291
3 294 295 291
3 295 293 292
3 291 295 292
CELL_TYPES 542
5
5
5
5
5
5
5
5
5
5
5
5
5
5
5
5
5
5
5
5
5
5
5
5
5
5
5
5
5
5
5
5
5
5
5
5
5
5
5
5
5
5
5
5
5
5
5
5
5
5
5
5
5
5
5
5
5
5
5
5
5
5
5
5
5
5
5
5
5
5
5
5
5
5
5
5
5
5
5
5
5
5
5
5
5
5
5
5
5
5
5
5
5
5
5
5
5
5
5
5
5
5
5
5
5
5
5
5
5
5
5
5
5
5
5
5
5
5
5
5
5
5
5
5
5
5
5
5
5
5
5
5
5
5
5
5
5
5
5
5
5
5
5
5
5
5
5
5
5
5
5
5
5
5
5
5
5
5
5
5
5
5
5
5
5
5
5
5
5
5
5
5
5
5
5
5
5
5
5
5
5
5
5
5
5
5
5
5
5
5
5
5
5
5
5
5
5
5
5
5
5
5
5
5
5
5
5
5
5
5
5
5
5
5
5
5
5
5
5
5
5
5
5
5
5
5
5
5
5
5
5
5
5
5
5
5
5
5
5
5
5
5
5
5
5
5
5
5
5
5
5
5
5
5
5
5
5
5
5
5
5
5
5
5
5
5
5
5
5
5
5
5
5
5
5
5
5
5
5
5
5
5
5
5
5
5
5
5
5
5
5
5
5
5
5
5
5
5
5
5
5
5
5
5
5
5
5
5
5
5
5
5
5
5
5
5
5
5
5
5
5
5
5
5
5
5
5
5
5
5
5
5
5
5
5
5
5
5
5
5
5
5
5
5
5
5
5
5
5
5
5
5
5
5
5
5
5
5
5
5
5
5
5
5
5
5
5
5
5
5
5
5
5
5
5
5
5
5
5
5
5
5
5
5
5
5
5
5
5
5
5
5
5
5
5
5
5
5
5
5
5
5
5
5
5
5
5
5
5
5
5
5
5
5
5
5
5
5
5
5
5
5
5
5
5
5
5
5
5
5
5
5
5
5
5
5
5
5
5
5
5
5
5
5
5
5
5
5
5
5
5
5
5
5
5
5
5
5
5
5
5
5
5
5
5
5
5
5
5
5
5
5
5
5
5
5
5
5
5
5
5
5
5
5
5
5
5
5
5
5
5
5
5
5
5
5
5
5
5
5
5
5
5
5
5
5
5
5
5
5
5
5
5
5
5
5
5
5
5
5
5
5
5
5
5
5
5
5
5
5
5
5
5
5
5
5
5
5
5
5
5
5
POINT_DATA 296
SCALARS concentrations float 4
LOOKUP_TABLE default
0 0.945991 0.0961758 68.3122
0 0.945752 0.104753 112.514
0 0.945977 0.103132 78.0822
0 0.945428 0.0997094 47.7785
0 0.945884 0.0921066 8.68892
0 0.945593 0.108271 132.35
0 0.945553 0.102811 91.7679
0 0.94579 0.0920847 9.42246
0 0.945652 0.0926886 13.282
0 0.945653 0.0981736 29.2582
0 0.94563 0.101473 42.3228
0 0.945046 0.0995485 64.9128
0 0.94488 0.0995391 83.5154
0 0.945626 0.0921464 8.77838
0 0.945229 0.0921471 4.43023
0 0.945586 0.0913077 2.53641
0 0.945673 0.0913226 2.40186
0 0.945577 0.0923328 12.0714
0 0.945603 0.0920424 10.2728
0 0.945649 0.0912277 1.10721
0 0.945609 0.0913467 0.952387
0 0.945614 0.0987849 122.672
0 0.945813 0.10077 69.4219
0 0.945633 0.0923724 6.67811
0 0.945582 0.0921048 4.52582
0 0.945026 0.0919416 2.54353
0 0.944831 0.100232 19.0858
0 0.944947 0.0920404 5.79791
0 0.944798 0.10316 80.8584
0 0.945402 0.0912846 2.40788
0 0.945227 0.0912561 1.3714
0 0.945484 0.0910973 0.980656
0 0.945827 0.108575 117.596
0 0.945552 0.0910762 0.562989
0 0.945592 0.0910235 0.696552
0 0.945592 0.0913334 2.01062
0 0.945596 0.0913888 3.05614
0 0.945584 0.0910162 1.06851
0 0.945581 0.0911094 1.33155
0 0.945651 0.0922766 5.6627
0 0.945735 0.0931352 8.58502
0 0.945572 0.0912713 2.16538
0 0.945562 0.0912821 0.522019
0 0.945862 0.0982782 56.4841
0 0.945147 0.0912664 0.102946
0 0.944923 0.0921073 7.60645
0 0.945121 0.0912503 1.64986
0 0.944866 0.0993242 75.3124
0 0.944943 0.0919828 3.99649
0 0.944981 0.0991868 11.57
0 0.945403 0.0910672 0.847848
0 0.945322 0.091086 0.856598
0 0.945508 0.0910405 0.243538
0 0.945747 0.0927608 7.40584
0 0.945665 0.0924339 5.08406
0 0.945552 0.0911255 0.0401637
0 0.945568 0.0910935 1.09919
0 0.945556 0.0911221 1.07596
0 0.945557 0.0910361 0.710222
0 0.945573 0.091541 0.318775
0 0.945593 0.0915785 1.01602
0 0.945532 0.0911013 0.732838
0 0.945519 0.0911917 0.938276
0 0.945564 0.0999016 48.8212
0 0.94533 0.0910545 1.36106
0 0.945134 0.091345 2.58491
0 0.945302 0.0911218 2.29834
0 0.945022 0.0920068 4.73832
0 0.945179 0.0914618 3.63989
0 0.945174 0.106711 77.4159
0 0.945158 0.0927775 11.5507
0 0.945297 0.100078 56.0974
0 0.945545 0.0910365 0.136313
0 0.945456 0.0909711 0.487405
0 0.945525 0.0909566 0.199077
0 0.945563 0.0916013 2.64104
0 0.945378 0.0921354 7.04036
0 0.945468 0.0914005 2.45349
0 0.945553 0.0911097 0.340942
0 0.945557 0.0910558 0.300803
0 0.945537 0.0910418 0.754054
0 0.945542 0.0910275 0.773649
0 0.945508 0.0912223 0.866524
0 0.945504 0.0913058 0.590432
0 0.945503 0.0910442 1.04954
0 0.945191 0.102461 158.933
0 0.945448 0.0910145 1.22369
0 0.945352 0.0911783 2.65876
0 0.945249 0.0915763 2.45252
0 0.94536 0.0913152 2.79694
0 0.945289 0.0924615 10.0771
0 0.945342 0.0914324 0.966545
0 0.94537 0.100816 60.7444
0 0.945379 0.0917414 4.8508
0 0.945559 0.0910279 0.138938
0 0.945514 0.0909617 0.671564
0 0.945555 0.0909865 0.331716
0 0.945524 0.0910053 0.917264
0 0.945219 0.102339 46.2113
0 0.945204 0.0917237 8.97956
0 0.945466 0.0912896 1.34367
0 0.945359 0.0913736 2.97942
0 0.945419 0.0912985 1.79048
0 0.945561 0.0910894 0.434497
0 0.945551 0.0910651 0.619105
0 0.945518 0.0910275 0.982126
0 0.945534 0.0910596 0.865598
0 0.945474 0.0911349 1.25407
0 0.945491 0.0910377 0.938028
0 0.945138 0.104426 174.347
0 0.945477 0.0910672 1.37982
0 0.945427 0.0912598 1.99584
0 0.945404 0.0912669 0.558386
0 0.945452 0.091197 1.4277
0 0.945328 0.0919708 1.96009
0 0.945411 0.0911269 1.66544
0 0.945322 0.0918112 2.86021
0 0.945569 0.0910933 0.456053
0 0.945557 0.0911047 0.539164
0 0.945571 0.0910719 0.599215
0 0.945561 0.0909952 0.647884
0 0.945536 0.0910011 0.750962
0 0.945563 0.0909872 0.878937
0 0.945573 0.0910861 0.563038
0 0.945421 0.0975018 9.5621
0 0.945297 0.091783 9.94837
0 0.945335 0.0912392 3.36325
0 0.945441 0.0911787 1.51271
0 0.945394 0.0912324 1.99534
0 0.945542 0.0911045 0.644089
0 0.945517 0.091075 0.919976
0 0.94547 0.0910851 1.21256
0 0.945496 0.0910616 0.939339
0 0.945508 0.0918891 10.0593
0 0.945417 0.0970297 6.87279
0 0.945505 0.0910291 0.852415
0 0.945474 0.0910469 1.37755
0 0.945393 0.0912097 0.490585
0 0.945456 0.0910725 1.44396
0 0.945458 0.09188 4.95385
0 0.945392 0.0913055 1.85919
0 0.945534 0.0910619 0.463542
0 0.945545 0.0911118 0.674902
0 0.945562 0.0911058 0.567025
0 0.945573 0.0910467 0.722154
0 0.945563 0.0910227 0.748007
0 0.945547 0.0910819 1.02235
0 0.945569 0.091058 0.580074
0 0.945562 0.0910782 0.563718
0 0.945395 0.0921625 10.8701
0 0.945528 0.102488 47.5041
0 0.945457 0.0911054 1.23423
0 0.945401 0.0911972 3.75376
0 0.945399 0.0911183 2.06707
0 0.945431 0.091137 1.60647
0 0.945464 0.0913157 4.5776
0 0.945519 0.0910935 0.802389
0 0.945491 0.0910742 0.928511
0 0.945534 0.0911009 0.707534
0 0.945477 0.0910936 1.04055
0 0.945536 0.0922286 10.7893
0 0.945619 0.101003 46.7227
0 0.945495 0.0910742 0.575831
0 0.945441 0.0911673 1.55396
0 0.945374 0.0914059 2.84822
0 0.945405 0.091282 1.99524
0 0.945316 0.0914219 4.43428
0 0.945507 0.0910943 0.877013
0 0.945549 0.0910848 0.646938
0 0.945558 0.09106 0.885308
0 0.945525 0.0911096 1.32106
0 0.945555 0.0910624 0.611492
0 0.945548 0.091073 0.571041
0 0.945287 0.0920238 9.34907
0 0.945348 0.100467 105.67
0 0.945462 0.0910878 1.07048
0 0.945435 0.0910391 1.74841
0 0.94544 0.0910666 1.31109
0 0.945496 0.0914475 4.6744
0 0.945465 0.09112 2.50908
0 0.945516 0.0910801 0.702245
0 0.945503 0.091082 0.872825
0 0.945533 0.0910807 0.619935
0 0.945496 0.0910609 0.789713
0 0.945487 0.0910284 0.470705
0 0.945582 0.0913765 4.06956
0 0.945524 0.0923717 6.6071
0 0.945515 0.102909 80.9312
0 0.945453 0.0911531 1.03248
0 0.94538 0.0912563 1.64824
0 0.945289 0.0913467 4.57596
0 0.94534 0.0911987 1.99565
0 0.945473 0.0911086 0.981648
0 0.9455 0.0910998 1.02702
0 0.945539 0.0910695 0.530421
0 0.945532 0.0910727 0.761769
0 0.945541 0.0910563 0.484819
0 0.94554 0.091067 0.425089
0 0.945537 0.0910565 0.405073
0 0.945318 0.0912739 3.91738
0 0.94533 0.0919965 9.47053
0 0.945313 0.101902 94.5892
0 0.945477 0.0910047 0.704643
0 0.94551 0.0911253 2.52677
0 0.945584 0.0911355 2.47189
0 0.945514 0.0910045 0.431332
0 0.945524 0.0910385 0.408126
0 0.945519 0.0910163 0.44603
0 0.945712 0.0912531 2.67632
0 0.945745 0.0918758 3.66778
0 0.945622 0.0987696 34.1939
0 0.945412 0.0911308 0.694473
0 0.94535 0.0910723 1.42611
0 0.945361 0.0910558 1.5368
0 0.945453 0.0910811 0.808473
0 0.945497 0.0910685 0.568099
0 0.945538 0.0910434 0.263935
0 0.945541 0.0910355 0.218529
0 0.945522 0.0910428 0.297526
0 0.945532 0.0910384 0.160802
0 0.945366 0.0913248 2.10429
0 0.945398 0.0915934 6.60414
0 0.945425 0.0994804 51.336
0 0.945549 0.0909973 0.898783
0 0.945641 0.0910321 1.34932
0 0.945552 0.0909792 0.57671
0 0.945541 0.0910025 0.357522
0 0.945697 0.0910701 1.11118
0 0.94579 0.0912585 3.03975
0 0.945958 0.0920027 8.96665
0 0.945993 0.101591 63.9981
0 0.945417 0.0910265 0.37304
0 0.94541 0.0910753 0.607142
0 0.945462 0.0910387 0.474105
0 0.945497 0.0910341 0.20447
0 0.945554 0.0909978 0.313033
0 0.945549 0.0909936 0.425533
0 0.945516 0.0910269 0.158196
0 0.945533 0.0910232 0.375909
0 0.945447 0.0911615 0.679198
0 0.945415 0.0913688 1.15063
0 0.945397 0.09186 5.91824
0 0.945439 0.0966683 27.0423
0 0.94561 0.0909807 0.678319
0 0.945577 0.0909653 0.383915
0 0.945699 0.091061 0.867157
0 0.9458 0.0913154 2.18978
0 0.945901 0.0922024 7.79633
0 0.946069 0.100314 35.6267
0 0.94546 0.0910435 0.220711
0 0.945491 0.0910298 0.180668
0 0.945578 0.090968 0.377614
0 0.945559 0.0910208 0.375169
0 0.945527 0.0910572 0.171797
0 0.945493 0.0911188 1.22847
0 0.945475 0.09135 2.1152
0 0.945436 0.0921801 7.95889
0 0.9454 0.0984096 6.38443
0 0.945626 0.0910198 0.297662
0 0.94571 0.0911502 1.79676
0 0.945785 0.0913202 2.25356
0 0.945808 0.0920274 3.13866
0 0.945844 0.0998583 89.0125
0 0.945514 0.0910356 0.367947
0 0.945603 0.0910877 0.490631
0 0.945564 0.0910322 0.275688
0 0.945537 0.0911265 1.45789
0 0.945545 0.0912634 2.22152
0 0.945531 0.0920225 9.6911
0 0.945487 0.101602 120.331
0 0.945667 0.0912014 1.60093
0 0.945735 0.0912688 3.36694
0 0.945791 0.091798 6.44228
0 0.945799 0.0961385 8.48537
0 0.945644 0.0911996 1.37094
0 0.94557 0.0910517 0.991027
0 0.945617 0.0910926 0.580897
0 0.945605 0.0911064 0.468866
0 0.945605 0.091364 2.13682
0 0.945651 0.0918144 7.13143
0 0.945614 0.10308 129.746
0 0.945655 0.0913913 3.45263
0 0.945629 0.0917645 10.6475
0 0.945711 0.102131 125.186
0 0.945634 0.0913829 1.74086
0 0.94565 0.0913569 1.9117
0 0.945655 0.0914057 0.976758
0 0.945712 0.0922237 8.33595
0 0.945753 0.0957744 10.2619
0 0.945498 0.0918855 7.90369
0 0.945428 0.0983389 50.3642
0 0.945635 0.0925085 5.3129
0 0.945733 0.0925608 8.58487
0 0.945763 0.100678 40.1945
0 0.945462 0.0998622 64.5444
0 0.945746 0.10169 86.225
VECTORS fa_u float
0.00742745 0.00304084 -0
0.00574313 0.00332995 -0
0.00436479 0.00117735 -0
0.00826923 0.00113904 -0
1e-08 0 0
0.00523451 0.00402513 -0
0.00420899 0.00417969 -0
1e-08 0 0
1e-08 0 0
0.0039033 0.00498942 -0
0.00426274 0.00733166 -0
0.00536473 2.9248e-05 -0
0.00697689 -0.0008414 0
1e-08 0 0
1e-08 0 0
1e-08 0 0
1e-08 0 0
1e-08 0 0
1e-08 0 0
1e-08 0 0
1e-08 0 0
0.00213812 0.00515013 -0
0.00216754 0.00813613 -0
1e-08 0 0
1e-08 0 0
1e-08 0 0
0.00780051 -0.0020639 0
1e-08 0 0
0.00709993 -0.00300896 0
1e-08 0 0
1e-08 0 0
1e-08 0 0
0.000706053 0.00550661 -0
1e-08 0 0
1e-08 0 0
1e-08 0 0
1e-08 0 0
1e-08 0 0
1e-08 0 0
1e-08 0 0
1e-08 0 0
1e-08 0 0
1e-08 0 0
-3.36146e-05 0.00815269 -0
1e-08 0 0
1e-08 0 0
1e-08 0 0
0.00542572 -0.00321274 0
1e-08 0 0
0.00512413 -0.0039954 0
1e-08 0 0
1e-08 0 0
1e-08 0 0
1e-08 0 0
1e-08 0 0
1e-08 0 0
1e-08 0 0
1e-08 0 0
1e-08 0 0
1e-08 0 0
1e-08 0 0
1e-08 0 0
1e-08 0 0
-0.000934913 0.00656657 0
1e-08 0 0
1e-08 0 0
1e-08 0 0
1e-08 0 0
1e-08 0 0
0.0038875 -0.00389261 0
1e-08 0 0
0.00349897 -0.00445743 0
1e-08 0 0
1e-08 0 0
1e-08 0 0
1e-08 0 0
1e-08 0 0
1e-08 0 0
1e-08 0 0
1e-08 0 0
1e-08 0 0
1e-08 0 0
1e-08 0 0
1e-08 0 0
1e-08 0 0
-0.00105917 0.00401808 0
1e-08 0 0
1e-08 0 0
1e-08 0 0
1e-08 0 0
1e-08 0 0
1e-08 0 0
0.00415677 -0.00704241 0
1e-08 0 0
1e-08 0 0
1e-08 0 0
1e-08 0 0
1e-08 0 0
0.00302307 -0.0073645 0
1e-08 0 0
1e-08 0 0
1e-08 0 0
1e-08 0 0
1e-08 0 0
1e-08 0 0
1e-08 0 0
1e-08 0 0
1e-08 0 0
1e-08 0 0
-0.0035252 0.00866461 0
1e-08 0 0
1e-08 0 0
1e-08 0 0
1e-08 0 0
1e-08 0 0
1e-08 0 0
1e-08 0 0
1e-08 0 0
1e-08 0 0
1e-08 0 0
1e-08 0 0
1e-08 0 0
1e-08 0 0
1e-08 0 0
0.00151907 -0.0057941 0
1e-08 0 0
1e-08 0 0
1e-08 0 0
1e-08 0 0
1e-08 0 0
1e-08 0 0
1e-08 0 0
1e-08 0 0
1e-08 0 0
-0.00353746 0.00602873 0
1e-08 0 0
1e-08 0 0
1e-08 0 0
1e-08 0 0
1e-08 0 0
1e-08 0 0
1e-08 0 0
1e-08 0 0
1e-08 0 0
1e-08 0 0
1e-08 0 0
1e-08 0 0
1e-08 0 0
1e-08 0 0
1e-08 0 0
0.000818247 -0.00618062 0
1e-08 0 0
1e-08 0 0
1e-08 0 0
1e-08 0 0
1e-08 0 0
1e-08 0 0
1e-08 0 0
1e-08 0 0
1e-08 0 0
1e-08 0 0
-0.00360108 0.00465219 0
1e-08 0 0
1e-08 0 0
1e-08 0 0
1e-08 0 0
1e-08 0 0
1e-08 0 0
1e-08 0 0
1e-08 0 0
1e-08 0 0
1e-08 0 0
1e-08 0 0
1e-08 0 0
1.87712e-05 -0.00672342 0
1e-08 0 0
1e-08 0 0
1e-08 0 0
1e-08 0 0
1e-08 0 0
1e-08 0 0
1e-08 0 0
1e-08 0 0
1e-08 0 0
1e-08 0 0
1e-08 0 0
1e-08 0 0
-0.00390341 0.00395064 0
1e-08 0 0
1e-08 0 0
1e-08 0 0
1e-08 0 0
1e-08 0 0
1e-08 0 0
1e-08 0 0
1e-08 0 0
1e-08 0 0
1e-08 0 0
1e-08 0 0
1e-08 0 0
1e-08 0 0
-0.000767697 -0.0060901 0
1e-08 0 0
1e-08 0 0
1e-08 0 0
1e-08 0 0
1e-08 0 0
1e-08 0 0
1e-08 0 0
1e-08 0 0
-0.00558274 0.0043746 0
1e-08 0 0
1e-08 0 0
1e-08 0 0
1e-08 0 0
1e-08 0 0
1e-08 0 0
1e-08 0 0
1e-08 0 0
1e-08 0 0
1e-08 0 0
1e-08 0 0
-0.00199953 -0.0075547 0
1e-08 0 0
1e-08 0 0
1e-08 0 0
1e-08 0 0
1e-08 0 0
1e-08 0 0
1e-08 0 0
-0.00573133 0.00337512 0
1e-08 0 0
1e-08 0 0
1e-08 0 0
1e-08 0 0
1e-08 0 0
1e-08 0 0
1e-08 0 0
1e-08 0 0
1e-08 0 0
1e-08 0 0
1e-08 0 0
-0.00238642 -0.0057627 0
1e-08 0 0
1e-08 0 0
1e-08 0 0
1e-08 0 0
1e-08 0 0
-0.00803352 0.0033253 0
1e-08 0 0
1e-08 0 0
1e-08 0 0
1e-08 0 0
1e-08 0 0
1e-08 0 0
1e-08 0 0
1e-08 0 0
-0.00376444 -0.00650083 0
1e-08 0 0
1e-08 0 0
1e-08 0 0
1e-08 0 0
-0.00531555 0.00140639 0
1e-08 0 0
1e-08 0 0
1e-08 0 0
1e-08 0 0
1e-08 0 0
1e-08 0 0
-0.00489548 -0.00623733 0
1e-08 0 0
1e-08 0 0
1e-08 0 0
-0.007497 0.000979447 0
1e-08 0 0
1e-08 0 0
1e-08 0 0
1e-08 0 0
1e-08 0 0
1e-08 0 0
-0.00329342 -0.0032578 0
1e-08 0 0
1e-08 0 0
-0.00723193 -5.47312e-05 0
1e-08 0 0
1e-08 0 0
1e-08 0 0
1e-08 0 0
-0.00592117 -0.00456333 0
1e-08 0 0
-0.00602579 -0.000836821 0
1e-08 0 0
1e-08 0 0
-0.00511236 -0.00296815 0
-0.00509273 -0.00134409 0
-0.00799071 -0.0032871 0
