# vtk DataFile Version 2.0
CellBP Time: 5.96
ASCII
DATASET UNSTRUCTURED_GRID
POINTS 296 double
-8.92431 -3.66166 0
-8.36055 -4.80355 0
-9.33185 -2.45451 0
-9.59249 -1.2152 0
-8.25949 -2.77502 0
-7.65618 -5.86664 0
-6.81431 -6.82313 0
-7.8193 -3.81978 0
-7.2491 -4.80746 0
-5.868 -7.66787 0
-4.82221 -8.38142 0
-9.67847 0.0466522 0
-9.60814 1.31678 0
-8.56694 -1.65839 0
-8.70268 -0.521543 0
-7.49457 -1.96956 0
-7.12804 -2.85864 0
-6.56185 -5.71982 0
-5.76481 -6.53909 0
-6.69644 -3.83115 0
-6.13911 -4.61748 0
-3.68136 -8.94622 0
-2.47135 -9.35492 0
-4.86703 -7.25251 0
-3.89144 -7.83181 0
-8.71615 0.634017 0
-9.3651 2.57222 0
-8.55398 1.75316 0
-8.95008 3.77622 0
-7.65584 -0.910993 0
-7.71211 0.0831274 0
-6.86762 -1.2922 0
-1.21548 -9.59393 0
-6.36385 -2.12062 0
-6.24036 -3.01162 0
-5.47136 -5.41724 0
-4.74614 -6.05936 0
-5.58895 -3.70908 0
-5.20195 -4.50718 0
-2.84886 -8.30413 0
-1.76378 -8.57472 0
-3.89503 -6.66891 0
-3.03853 -7.09946 0
0.0523006 -9.68398 0
-7.62899 1.13091 0
-8.27932 2.89371 0
-7.48087 2.08667 0
-8.3781 4.91255 0
-7.81127 3.94183 0
-7.65916 5.96503 0
-6.70145 -0.387231 0
-6.87949 0.549809 0
-5.71321 -0.991188 0
-0.584548 -8.73646 0
0.555105 -8.68764 0
-5.24855 -2.45005 0
-4.43685 -5.04084 0
-3.86048 -5.7208 0
-4.39333 -3.7653 0
-2.04702 -7.50328 0
-1.12698 -7.72047 0
-2.96696 -6.04909 0
-2.29316 -6.56695 0
1.31401 -9.58241 0
-6.62182 1.40546 0
-7.10017 3.08406 0
-6.59283 2.34688 0
-7.2227 4.93832 0
-6.65007 3.95868 0
-6.8186 6.9153 0
-6.5067 5.8319 0
-5.86476 7.75714 0
-4.42225 -1.17414 0
-5.76197 0.504829 0
-4.62476 -0.0170826 0
0.00154918 -7.77229 0
1.71153 -8.54983 0
0.928601 -7.67942 0
-4.01006 -2.38604 0
-3.47434 -1.38697 0
-3.26558 -4.76267 0
-3.24743 -3.24305 0
-1.37203 -6.61576 0
-0.512502 -6.95636 0
-1.96203 -5.4936 0
2.55935 -9.3275 0
-5.45735 2.01896 0
-6.03341 3.03754 0
-6.04235 4.81425 0
-5.70174 3.94332 0
-5.70236 6.64316 0
-5.39491 5.55379 0
-4.81653 8.47756 0
-4.78724 7.32024 0
-3.48652 -0.423252 0
-4.41589 1.23947 0
-3.69 0.588713 0
-4.02981 2.30898 0
-3.68079 9.04499 0
2.81896 -8.22973 0
0.402107 -6.71922 0
1.98593 -7.43292 0
1.27684 -6.82103 0
-2.43871 -0.869259 0
-2.82905 -2.12067 0
-2.28277 -4.06795 0
-2.31601 -2.95557 0
-0.445928 -5.80477 0
-1.21312 -4.46793 0
3.76765 -8.92903 0
-4.7446 3.35912 0
-5.03484 4.53966 0
-4.59657 6.20574 0
-4.4904 5.29543 0
-3.80852 7.91466 0
-3.78275 6.76077 0
-2.75372 8.33502 0
-1.64639 -0.133767 0
-1.44675 -0.886655 0
-2.48381 0.510973 0
-3.23493 1.4406 0
-3.21412 3.29363 0
-2.8933 2.36633 0
-1.35468 0.631103 0
-2.47203 9.44615 0
3.87937 -7.78868 0
2.91405 -7.05765 0
0.933455 -5.75627 0
2.03645 -6.33133 0
-1.67688 -1.98553 0
-1.42658 -3.25856 0
0.0863508 -4.70609 0
-0.559798 -3.67284 0
4.87097 -7.22568 0
4.90834 -8.37017 0
-3.74115 4.50519 0
-3.69549 5.68577 0
-2.85338 7.20462 0
-2.9772 6.28123 0
-1.64489 8.65065 0
-1.9162 7.53926 0
-2.32279 4.02144 0
-0.728331 -1.32385 0
-0.83619 -0.254051 0
-1.93372 1.68378 0
-2.11666 2.8663 0
-1.30351 3.52815 0
-0.871695 1.35455 0
-0.284452 0.459146 0
-0.527569 8.79564 0
-1.2195 9.68738 0
1.09721 -4.5294 0
3.84862 -6.61545 0
2.94065 -6.00964 0
2.08512 -5.3578 0
4.72265 -6.1167 0
-0.554795 -2.4677 0
0.493427 -3.44225 0
0.0544179 -1.60765 0
1.46675 -3.64967 0
5.80315 -6.53229 0
5.96056 -7.65295 0
-2.45319 5.29585 0
-2.10496 6.46339 0
-0.891287 7.72959 0
-1.2533 6.85972 0
0.0888057 7.81327 0
-1.13811 4.46306 0
0.149051 -0.614841 0
-0.801499 2.48895 0
-0.337041 3.58813 0
0.0584481 1.51445 0
0.736962 0.474399 0
0.641084 8.80674 0
0.0471611 9.78148 0
2.35164 -4.23629 0
3.80617 -5.55949 0
2.95945 -5.1435 0
5.51425 -5.42082 0
4.63311 -5.20576 0
0.630315 -2.28871 0
1.24792 -2.93314 0
0.756074 -1.38929 0
2.14551 -3.10975 0
2.96479 -3.44067 0
6.09806 -4.73597 0
6.59465 -5.70624 0
6.92017 -6.8125 0
-1.00773 5.76711 0
-0.362581 6.81793 0
1.11507 7.71049 0
0.558012 7.01983 0
-0.00345916 4.69541 0
0.599208 3.81 0
1.33495 -0.641452 0
0.532152 2.64507 0
0.959269 1.57473 0
1.9035 0.212578 0
1.6073 1.06379 0
2.11678 7.52908 0
1.78754 8.65008 0
1.31853 9.69834 0
3.77985 -4.29574 0
5.06147 -4.38676 0
5.79219 -3.88718 0
3.74993 -3.1674 0
1.80501 -1.87923 0
2.99672 -2.55534 0
6.72934 -3.90974 0
7.32348 -4.85289 0
7.765 -5.86447 0
0.482226 5.83495 0
1.42033 6.68989 0
2.3604 6.62075 0
1.20055 4.52928 0
1.47883 3.38095 0
2.42499 -0.690469 0
2.81512 0.142646 0
1.77964 2.15718 0
2.60208 1.14681 0
3.05411 7.11907 0
2.88911 8.31898 0
2.57405 9.45913 0
4.86621 -3.28742 0
6.07035 -3.0745 0
4.14227 -2.25796 0
3.22533 -1.49672 0
6.68378 -2.29569 0
7.18143 -3.02098 0
7.9108 -3.88707 0
8.4833 -4.82115 0
2.01205 5.56016 0
3.05825 6.10425 0
2.35246 4.10017 0
2.40904 3.04419 0
3.50581 -0.457037 0
3.59678 0.614104 0
2.94673 2.27633 0
3.5236 1.51801 0
3.96947 5.84662 0
3.95118 6.74048 0
3.95175 7.88464 0
3.78293 9.04669 0
5.52862 -1.90032 0
4.47996 -1.12105 0
6.66303 -1.32471 0
7.53902 -2.02032 0
8.34031 -2.84323 0
9.05316 -3.68473 0
3.38418 4.83527 0
3.31193 3.35956 0
4.65962 0.132465 0
4.48164 1.29921 0
4.02802 2.42261 0
4.51348 5.10074 0
4.79358 6.1368 0
4.94039 7.3244 0
4.92447 8.48364 0
5.83511 -0.433322 0
6.95088 -0.487195 0
7.70203 -1.07327 0
8.62362 -1.73041 0
9.44804 -2.46963 0
4.49992 3.78871 0
5.75909 1.08218 0
5.30965 2.5042 0
5.30819 4.56779 0
5.54585 5.46849 0
5.83897 6.61435 0
5.97166 7.77205 0
6.77808 0.45113 0
7.78569 -0.0275417 0
8.79373 -0.574748 0
9.70509 -1.21634 0
6.88368 1.32561 0
5.64632 3.73193 0
6.46209 2.16348 0
6.29698 3.04443 0
6.20941 4.63125 0
6.61639 5.77955 0
6.92317 6.92966 0
7.70777 0.952145 0
8.78202 0.566734 0
9.77933 0.0542104 0
7.53058 1.97434 0
6.73263 3.84856 0
7.17649 2.90292 0
7.29252 4.83141 0
7.76505 5.97111 0
8.63511 1.70498 0
9.68351 1.31669 0
8.32398 2.80005 0
7.89218 3.8699 0
8.47112 4.91132 0
9.43478 2.56402 0
9.0358 3.77189 0
CELLS 542 2168
3 2 0 4
3 0 1 7
3 4 0 7
3 1 5 8
3 7 1 8
3 3 2 13
3 13 2 4
3 11 3 14
3 14 3 13
3 13 4 15
3 4 7 16
3 15 4 16
3 5 6 17
3 8 5 17
3 6 9 18
3 17 6 18
3 7 8 19
3 16 7 19
3 8 17 20
3 19 8 20
3 9 10 23
3 18 9 23
3 10 21 24
3 23 10 24
3 12 11 25
3 25 11 14
3 26 12 27
3 27 12 25
3 14 13 29
3 29 13 15
3 25 14 30
3 30 14 29
3 29 15 31
3 15 16 33
3 31 15 33
3 16 19 34
3 33 16 34
3 17 18 35
3 20 17 35
3 18 23 36
3 35 18 36
3 19 20 37
3 34 19 37
3 20 35 38
3 37 20 38
3 21 22 39
3 24 21 39
3 22 32 40
3 39 22 40
3 23 24 41
3 36 23 41
3 24 39 42
3 41 24 42
3 27 25 44
3 44 25 30
3 28 26 45
3 45 26 27
3 45 27 46
3 46 27 44
3 47 28 48
3 48 28 45
3 30 29 50
3 50 29 31
3 44 30 51
3 51 30 50
3 50 31 52
3 31 33 52
3 32 43 53
3 40 32 53
3 53 43 54
3 33 34 55
3 34 37 55
3 33 55 52
3 35 36 56
3 38 35 56
3 36 41 57
3 56 36 57
3 37 38 58
3 38 56 58
3 37 58 55
3 39 40 59
3 42 39 59
3 40 53 60
3 59 40 60
3 41 42 61
3 57 41 61
3 42 59 62
3 61 42 62
3 43 63 54
3 46 44 64
3 64 44 51
3 48 45 65
3 65 45 46
3 65 46 66
3 66 46 64
3 49 47 67
3 67 47 48
3 67 48 68
3 68 48 65
3 69 49 70
3 70 49 67
3 52 55 72
3 64 51 73
3 51 50 73
3 50 52 73
3 73 52 74
3 74 52 72
3 53 54 75
3 60 53 75
3 54 63 76
3 54 76 77
3 75 54 77
3 55 58 78
3 72 55 78
3 72 78 79
3 56 57 80
3 57 61 80
3 56 80 58
3 58 80 81
3 78 58 81
3 59 60 82
3 62 59 82
3 60 75 83
3 82 60 83
3 61 62 84
3 62 82 84
3 61 84 80
3 63 85 76
3 66 64 86
3 64 73 86
3 68 65 87
3 87 65 66
3 87 66 86
3 70 67 88
3 88 67 68
3 88 68 89
3 89 68 87
3 71 69 90
3 90 69 70
3 90 70 91
3 91 70 88
3 92 71 93
3 93 71 90
3 74 72 94
3 94 72 79
3 86 73 95
3 95 73 74
3 95 74 96
3 96 74 94
3 97 86 95
3 76 85 99
3 75 77 100
3 83 75 100
3 76 99 101
3 77 76 101
3 77 101 102
3 100 77 102
3 94 79 103
3 78 81 104
3 79 78 104
3 79 104 103
3 80 84 105
3 81 80 105
3 81 105 106
3 104 81 106
3 82 83 107
3 83 100 107
3 82 107 84
3 84 107 108
3 105 84 108
3 85 109 99
3 89 87 110
3 87 86 110
3 110 86 97
3 91 88 111
3 111 88 89
3 111 89 110
3 93 90 112
3 112 90 91
3 112 91 113
3 113 91 111
3 98 92 114
3 114 92 93
3 114 93 115
3 115 93 112
3 116 98 114
3 117 103 118
3 96 94 119
3 94 103 119
3 119 103 117
3 97 95 120
3 120 95 96
3 120 96 119
3 121 110 97
3 121 97 122
3 122 97 120
3 123 119 117
3 124 98 116
3 99 109 125
3 99 125 126
3 101 99 126
3 100 102 127
3 100 127 107
3 101 126 128
3 102 101 128
3 102 128 127
3 104 106 129
3 104 129 103
3 103 129 118
3 105 108 130
3 106 105 130
3 106 130 129
3 107 127 131
3 108 107 131
3 108 131 132
3 108 132 130
3 109 134 125
3 125 134 133
3 113 111 135
3 111 110 135
3 135 110 121
3 115 112 136
3 136 112 113
3 136 113 135
3 116 114 137
3 137 114 115
3 137 115 138
3 138 115 136
3 139 124 116
3 139 116 140
3 140 116 137
3 141 135 121
3 118 129 142
3 118 142 143
3 117 118 143
3 123 117 143
3 122 120 144
3 120 119 144
3 144 119 123
3 141 121 145
3 145 121 122
3 145 122 144
3 146 141 145
3 147 144 123
3 147 123 148
3 143 148 123
3 150 124 139
3 149 150 139
3 131 127 151
3 125 133 152
3 126 125 152
3 126 152 153
3 128 126 153
3 128 153 154
3 128 154 127
3 127 154 151
3 152 133 155
3 130 132 156
3 130 156 129
3 129 156 142
3 131 151 157
3 132 131 157
3 132 157 156
3 156 158 142
3 157 151 159
3 133 160 155
3 134 161 133
3 133 161 160
3 138 136 162
3 136 135 162
3 162 135 141
3 140 137 163
3 163 137 138
3 163 138 162
3 149 139 164
3 164 139 140
3 164 140 165
3 165 140 163
3 166 149 164
3 167 162 141
3 167 141 146
3 142 158 168
3 143 142 168
3 143 168 148
3 146 145 169
3 145 144 169
3 169 144 147
3 170 167 146
3 170 146 169
3 171 169 147
3 171 147 148
3 171 148 172
3 168 172 148
3 173 149 166
3 174 150 149
3 173 174 149
3 154 175 151
3 151 175 159
3 152 155 176
3 153 152 176
3 153 176 177
3 153 177 154
3 154 177 175
3 155 160 178
3 155 178 179
3 176 155 179
3 156 157 180
3 156 180 158
3 157 159 181
3 157 181 180
3 158 180 182
3 158 182 168
3 159 175 183
3 159 183 181
3 175 184 183
3 160 186 178
3 178 186 185
3 161 187 160
3 160 187 186
3 165 163 188
3 163 162 188
3 188 162 167
3 166 164 189
3 189 164 165
3 189 165 188
3 190 173 166
3 190 166 191
3 191 166 189
3 192 188 167
3 192 167 170
3 193 192 170
3 182 194 168
3 194 172 168
3 193 170 195
3 170 169 195
3 195 169 171
3 196 195 171
3 196 171 172
3 194 197 172
3 197 198 172
3 198 196 172
3 200 173 190
3 199 200 190
3 201 174 173
3 200 201 173
3 176 179 202
3 177 176 202
3 177 202 175
3 175 202 184
3 178 185 203
3 178 203 179
3 179 203 202
3 203 185 204
3 202 205 184
3 183 206 181
3 180 181 206
3 180 206 182
3 182 206 194
3 183 184 207
3 205 207 184
3 183 207 206
3 185 208 204
3 186 209 185
3 185 209 208
3 187 210 186
3 186 210 209
3 191 189 211
3 189 188 211
3 211 188 192
3 199 190 212
3 212 190 191
3 212 191 211
3 213 199 212
3 214 211 192
3 214 192 193
3 215 214 193
3 215 193 195
3 206 216 194
3 216 197 194
3 216 217 197
3 215 195 218
3 218 195 196
3 198 218 196
3 217 219 197
3 219 218 198
3 197 219 198
3 220 199 213
3 221 200 199
3 220 221 199
3 222 201 200
3 221 222 200
3 203 204 223
3 203 223 202
3 202 223 205
3 204 208 224
3 204 224 223
3 205 223 225
3 205 225 207
3 207 225 226
3 207 226 206
3 226 216 206
3 208 228 224
3 224 228 227
3 209 229 208
3 229 228 208
3 210 230 209
3 209 230 229
3 213 212 231
3 212 211 231
3 231 211 214
3 232 220 213
3 232 213 231
3 233 231 214
3 233 214 215
3 234 233 215
3 234 215 218
3 226 235 216
3 235 217 216
3 235 236 217
3 217 236 219
3 237 234 218
3 237 218 219
3 236 238 219
3 238 237 219
3 240 220 232
3 239 240 232
3 241 221 220
3 240 241 220
3 242 222 221
3 241 242 221
3 224 227 243
3 224 243 223
3 223 243 225
3 225 243 244
3 225 244 226
3 226 244 235
3 227 245 243
3 228 246 227
3 227 246 245
3 229 247 228
3 228 247 246
3 230 248 229
3 229 248 247
3 239 232 249
3 232 231 249
3 249 231 233
3 250 249 233
3 250 233 234
3 237 250 234
3 244 251 235
3 235 251 236
3 251 252 236
3 236 252 238
3 252 253 238
3 253 250 237
3 253 237 238
3 254 239 249
3 255 240 239
3 254 255 239
3 256 241 240
3 255 256 240
3 257 242 241
3 256 257 241
3 245 258 243
3 243 258 244
3 244 258 251
3 245 259 258
3 246 260 245
3 245 260 259
3 247 261 246
3 246 261 260
3 248 262 247
3 247 262 261
3 254 249 263
3 263 249 250
3 253 263 250
3 258 264 251
3 251 264 252
3 264 265 252
3 265 263 253
3 252 265 253
3 266 254 263
3 267 255 254
3 266 267 254
3 268 256 255
3 267 268 255
3 269 257 256
3 268 269 256
3 259 270 258
3 270 264 258
3 260 271 259
3 259 271 270
3 261 272 260
3 260 272 271
3 262 273 261
3 273 272 261
3 270 274 264
3 275 266 263
3 275 263 265
3 274 276 264
3 276 265 264
3 276 277 265
3 277 275 265
3 278 267 266
3 275 278 266
3 279 268 267
3 278 279 267
3 280 269 268
3 279 280 268
3 271 281 270
3 270 281 274
3 272 282 271
3 271 282 281
3 273 283 272
3 272 283 282
3 281 284 274
3 274 284 276
3 285 278 275
3 277 285 275
3 284 286 276
3 286 285 277
3 276 286 277
3 287 279 278
3 285 287 278
3 288 280 279
3 287 288 279
3 282 289 281
3 281 289 284
3 283 290 282
3 282 290 289
3 289 291 284
3 284 291 286
3 291 292 286
3 292 287 285
3 286 292 285
3 293 288 287
3 292 293 287
3 290 294 289
3 289 294 291
3 294 295 291
3 295 293 292
3 291 295 292
CELL_TYPES 542
5
5
5
5
5
5
5
5
5
5
5
5
5
5
5
5
5
5
5
5
5
5
5
5
5
5
5
5
5
5
5
5
5
5
5
5
5
5
5
5
5
5
5
5
5
5
5
5
5
5
5
5
5
5
5
5
5
5
5
5
5
5
5
5
5
5
5
5
5
5
5
5
5
5
5
5
5
5
5
5
5
5
5
5
5
5
5
5
5
5
5
5
5
5
5
5
5
5
5
5
5
5
5
5
5
5
5
5
5
5
5
5
5
5
5
5
5
5
5
5
5
5
5
5
5
5
5
5
5
5
5
5
5
5
5
5
5
5
5
5
5
5
5
5
5
5
5
5
5
5
5
5
5
5
5
5
5
5
5
5
5
5
5
5
5
5
5
5
5
5
5
5
5
5
5
5
5
5
5
5
5
5
5
5
5
5
5
5
5
5
5
5
5
5
5
5
5
5
5
5
5
5
5
5
5
5
5
5
5
5
5
5
5
5
5
5
5
5
5
5
5
5
5
5
5
5
5
5
5
5
5
5
5
5
5
5
5
5
5
5
5
5
5
5
5
5
5
5
5
5
5
5
5
5
5
5
5
5
5
5
5
5
5
5
5
5
5
5
5
5
5
5
5
5
5
5
5
5
5
5
5
5
5
5
5
5
5
5
5
5
5
5
5
5
5
5
5
5
5
5
5
5
5
5
5
5
5
5
5
5
5
5
5
5
5
5
5
5
5
5
5
5
5
5
5
5
5
5
5
5
5
5
5
5
5
5
5
5
5
5
5
5
5
5
5
5
5
5
5
5
5
5
5
5
5
5
5
5
5
5
5
5
5
5
5
5
5
5
5
5
5
5
5
5
5
5
5
5
5
5
5
5
5
5
5
5
5
5
5
5
5
5
5
5
5
5
5
5
5
5
5
5
5
5
5
5
5
5
5
5
5
5
5
5
5
5
5
5
5
5
5
5
5
5
5
5
5
5
5
5
5
5
5
5
5
5
5
5
5
5
5
5
5
5
5
5
5
5
5
5
5
5
5
5
5
5
5
5
5
5
5
5
5
5
5
5
5
5
5
5
5
5
5
5
5
5
5
5
5
5
5
5
5
5
5
5
5
5
5
5
5
5
5
5
5
5
5
5
5
5
5
5
5
5
5
5
5
5
5
5
5
5
5
5
5
5
5
5
5
5
5
5
5
5
5
5
5
5
5
5
5
5
5
5
5
5
5
5
5
5
5
5
POINT_DATA 296
SCALARS concentrations float 4
LOOKUP_TABLE default
0 0.945875 0.0996192 108.686
0 0.946164 0.0994551 18.2121
0 0.945592 0.102455 87.8175
0 0.945606 0.0992996 21.4164
0 0.945735 0.0927254 7.3637
0 0.946198 0.100447 7.49361
0 0.946139 0.0982632 4.09963
0 0.945983 0.0920901 7.99584
0 0.946133 0.092024 7.44024
0 0.946063 0.0983065 27.9701
0 0.946111 0.100857 32.807
0 0.945788 0.098031 56.2225
0 0.945848 0.100935 58.6471
0 0.945628 0.0928691 3.55558
0 0.945736 0.0921583 6.60696
0 0.945752 0.091792 4.04303
0 0.945847 0.0915639 3.65454
0 0.946146 0.0920269 8.97751
0 0.946109 0.0917927 7.4963
0 0.945976 0.0912476 3.81032
0 0.94607 0.0912084 3.96133
0 0.945919 0.105032 72.7028
0 0.945872 0.0963493 31.2421
0 0.946125 0.0922019 7.49512
0 0.946072 0.0924431 9.0543
0 0.945839 0.0920512 9.07764
0 0.946055 0.101475 59.4562
0 0.945946 0.0926404 13.9967
0 0.946263 0.0991647 43.8992
0 0.945756 0.0917512 4.85461
0 0.945827 0.0914957 4.6992
0 0.94582 0.0914801 4.09632
0 0.945911 0.101877 97.846
0 0.945854 0.0913109 2.60017
0 0.94591 0.0912112 1.6953
0 0.946111 0.0912053 3.6276
0 0.946139 0.0912934 3.94874
0 0.945981 0.0911026 1.94433
0 0.946051 0.0911289 2.14091
0 0.94595 0.0921251 9.03292
0 0.945946 0.0917393 8.08232
0 0.946133 0.0914064 3.82016
0 0.946081 0.0912559 3.23896
0 0.945913 0.108875 165.746
0 0.945911 0.0914069 4.24197
0 0.946125 0.0925193 12.2181
0 0.946003 0.0914854 4.40524
0 0.946341 0.099637 29.5623
0 0.946242 0.0920087 6.28139
0 0.946165 0.0963766 29.1291
0 0.945853 0.0913741 4.23358
0 0.945888 0.0912202 3.30789
0 0.94589 0.0911624 2.49326
0 0.945946 0.0923514 11.8826
0 0.945945 0.0930631 20.2141
0 0.945931 0.0910658 0.786343
0 0.94608 0.0911548 1.52581
0 0.946111 0.0911692 1.52524
0 0.946004 0.0910749 1.51639
0 0.946023 0.0912719 2.39543
0 0.946 0.0912474 1.10588
0 0.94609 0.0911187 0.385424
0 0.946063 0.0910791 0.594295
0 0.945921 0.101763 52.8137
0 0.94594 0.0910382 1.06065
0 0.946087 0.0916327 5.73273
0 0.945989 0.0912343 2.45682
0 0.946209 0.0918389 5.61932
0 0.946106 0.0914213 4.06656
0 0.945913 0.0992826 19.5227
0 0.946018 0.0916586 3.8775
0 0.945932 0.101895 59.186
0 0.945924 0.0910962 1.72403
0 0.94591 0.09109 1.89485
0 0.945916 0.0911149 1.91648
0 0.945981 0.0914939 2.88584
0 0.945892 0.0923691 13.3554
0 0.945948 0.091632 6.28989
0 0.94596 0.091049 1.10615
0 0.945942 0.0910659 1.34919
0 0.946047 0.0911389 1.71718
0 0.945998 0.0910878 1.79638
0 0.946026 0.0910529 0.305469
0 0.946001 0.0911945 0.596212
0 0.946033 0.0911411 2.4062
0 0.945805 0.0977201 66.8299
0 0.945945 0.0910525 0.856526
0 0.946004 0.0912268 2.85062
0 0.94605 0.0913747 3.29053
0 0.94601 0.0912407 2.91763
0 0.945933 0.0921579 2.41211
0 0.945981 0.0913602 1.69618
0 0.945925 0.0992822 43.0813
0 0.945942 0.0923482 3.71785
0 0.945928 0.0910811 1.38232
0 0.945927 0.0910836 1.10212
0 0.945925 0.0910997 1.29714
0 0.945936 0.0910637 0.657844
0 0.946035 0.0970554 32.7202
0 0.945827 0.0923181 13.1637
0 0.945973 0.0912185 1.34853
0 0.945903 0.0914645 6.36257
0 0.94594 0.0912612 3.06368
0 0.945938 0.091033 0.926442
0 0.945959 0.091063 1.46606
0 0.946009 0.0911346 2.40367
0 0.945977 0.0910852 1.87993
0 0.945992 0.0910491 1.07899
0 0.945991 0.0911164 2.5552
0 0.945788 0.0997207 9.3867
0 0.945955 0.09104 1.40164
0 0.945974 0.0911634 2.02123
0 0.945956 0.0913773 0.227803
0 0.945959 0.0911392 1.24431
0 0.945978 0.0921998 3.84276
0 0.945967 0.0912462 0.960149
0 0.946048 0.0919343 8.19518
0 0.945928 0.0910372 0.772294
0 0.945934 0.0910235 0.905616
0 0.945927 0.0910507 0.633393
0 0.945927 0.0910755 0.740445
0 0.945934 0.0910627 0.578374
0 0.945927 0.0910566 0.460155
0 0.94592 0.0910347 0.534611
0 0.946093 0.100788 90.5847
0 0.945843 0.0920305 9.66481
0 0.945886 0.0912613 4.29967
0 0.945947 0.0911024 0.78207
0 0.945918 0.0911525 2.57395
0 0.945949 0.091024 1.11868
0 0.94597 0.091077 1.97962
0 0.945958 0.0910522 1.63079
0 0.945956 0.0910724 2.24534
0 0.945966 0.0919637 6.9409
0 0.945844 0.098244 31.1977
0 0.945943 0.0910476 0.925081
0 0.94595 0.0910394 0.7957
0 0.945992 0.0912113 1.53338
0 0.945958 0.0910413 0.729414
0 0.946095 0.0918975 7.83354
0 0.946016 0.091147 1.63392
0 0.945925 0.0911576 0.367938
0 0.945929 0.0910068 0.986217
0 0.945921 0.0910199 0.863695
0 0.94592 0.091041 0.321417
0 0.945919 0.0910862 0.396885
0 0.945911 0.0910942 0.420019
0 0.945913 0.0910205 0.473257
0 0.945911 0.0910056 0.745788
0 0.946175 0.0927393 12.0328
0 0.946206 0.0968021 5.70525
0 0.945929 0.0910569 0.915831
0 0.945931 0.0912062 2.92853
0 0.945919 0.0911051 1.71353
0 0.945922 0.0911001 0.66081
0 0.946015 0.0912872 2.14141
0 0.945939 0.0910209 1.45823
0 0.945933 0.0910319 1.63222
0 0.945921 0.0909955 1.08739
0 0.945914 0.0910616 0.853142
0 0.946136 0.092338 4.65848
0 0.946088 0.100557 35.2451
0 0.945932 0.0911396 0.392286
0 0.945957 0.0910647 0.719281
0 0.946033 0.0915455 4.92313
0 0.945964 0.0912377 2.6475
0 0.946007 0.0916642 6.31738
0 0.945911 0.0910865 0.485186
0 0.94591 0.090989 0.987193
0 0.945908 0.0910114 0.452832
0 0.945898 0.0910562 0.780376
0 0.945902 0.0909937 0.690332
0 0.945897 0.0909799 0.943706
0 0.9461 0.092768 12.2435
0 0.946283 0.105288 3.616
0 0.945915 0.0911001 0.789055
0 0.945949 0.0910435 0.954329
0 0.945923 0.0910806 0.538198
0 0.946076 0.0914511 2.62865
0 0.945985 0.0911237 0.934788
0 0.945915 0.090994 1.21785
0 0.945906 0.0910303 1.0131
0 0.945903 0.0909806 1.10551
0 0.945898 0.0910317 0.576365
0 0.945904 0.0910013 0.359069
0 0.946069 0.091502 0.175842
0 0.946201 0.0928247 7.30402
0 0.946243 0.104661 42.3417
0 0.945916 0.0911151 1.0639
0 0.945934 0.0912993 3.65364
0 0.945899 0.0916855 6.38123
0 0.945897 0.0913602 4.55099
0 0.945888 0.0910778 0.829305
0 0.945881 0.0910395 0.5485
0 0.945893 0.0909755 1.09835
0 0.945891 0.0909701 0.395101
0 0.945891 0.0909808 0.858515
0 0.945882 0.0909816 1.11222
0 0.945883 0.0909807 0.987906
0 0.945764 0.0915985 4.09042
0 0.945848 0.0920905 5.18418
0 0.946043 0.101122 48.5604
0 0.94593 0.0909915 0.408603
0 0.94598 0.0911295 0.177225
0 0.945972 0.0912131 0.899378
0 0.945898 0.0909864 0.38221
0 0.94589 0.0909694 0.816474
0 0.945885 0.0909869 0.464091
0 0.94601 0.0913249 0.603985
0 0.946127 0.0919768 6.83303
0 0.94625 0.102123 18.3658
0 0.945873 0.0911115 1.48524
0 0.945832 0.0911248 2.49367
0 0.94578 0.0911559 0.848368
0 0.94586 0.0910591 0.60055
0 0.945871 0.0909876 0.0612483
0 0.945878 0.0909778 0.958837
0 0.945868 0.0909937 0.950327
0 0.945876 0.0909623 0.702952
0 0.94587 0.0909993 1.04978
0 0.945709 0.0915806 1.22934
0 0.94562 0.0928792 7.86192
0 0.945687 0.0993986 34.5509
0 0.945912 0.0910034 0.364937
0 0.945919 0.0910904 0.990563
0 0.945878 0.091002 0.721722
0 0.945873 0.0909846 0.620108
0 0.945891 0.0910489 1.43581
0 0.945939 0.0912214 1.91202
0 0.94602 0.0921904 8.24455
0 0.946091 0.10369 36.7074
0 0.945832 0.0910284 0.589333
0 0.945793 0.0912754 1.60862
0 0.94585 0.0910372 0.570784
0 0.945864 0.090968 0.273345
0 0.945861 0.0909855 0.67226
0 0.945858 0.0910093 0.710374
0 0.945864 0.0909658 0.654734
0 0.94586 0.0910087 0.795547
0 0.945834 0.0914437 2.70939
0 0.945771 0.091795 2.83505
0 0.945651 0.0929892 4.87443
0 0.945517 0.106241 69.627
0 0.945874 0.0910135 1.08273
0 0.945859 0.0909928 0.67268
0 0.945872 0.0910565 1.50874
0 0.945915 0.0912499 1.35433
0 0.945938 0.0919981 4.39464
0 0.946005 0.101303 2.5729
0 0.945845 0.0911539 1.76319
0 0.945859 0.0909928 0.508514
0 0.945851 0.0909936 0.441479
0 0.945858 0.0909979 0.516898
0 0.945866 0.0909778 0.605348
0 0.945899 0.0913674 2.91239
0 0.945911 0.0917131 2.40047
0 0.945842 0.0926065 8.902
0 0.945731 0.100083 22.0642
0 0.945853 0.0910255 0.88171
0 0.945864 0.0911834 1.73277
0 0.945916 0.0912451 2.34784
0 0.945978 0.0916596 4.15748
0 0.945932 0.097421 58.9234
0 0.945885 0.0910771 1.11486
0 0.945859 0.0910576 0.580533
0 0.945885 0.0909952 0.375031
0 0.945962 0.0912847 2.53606
0 0.946028 0.0914739 2.97187
0 0.946075 0.0926057 7.65391
0 0.94597 0.102433 91.8843
0 0.945858 0.0912334 1.34317
0 0.945899 0.0914307 2.71033
0 0.946024 0.0918128 3.81768
0 0.946107 0.0986398 59.2534
0 0.945875 0.091282 1.11818
0 0.945964 0.0910606 1.0345
0 0.945907 0.0911772 0.750984
0 0.945963 0.0911025 0.692545
0 0.94611 0.0913044 2.21172
0 0.946237 0.0921157 7.94032
0 0.946283 0.110136 186.697
0 0.945888 0.0914659 2.21636
0 0.94592 0.0918767 3.40056
0 0.94602 0.0977183 33.0599
0 0.945941 0.09149 2.2545
0 0.946109 0.091192 2.19396
0 0.946047 0.09134 1.59714
0 0.94631 0.0917621 7.59724
0 0.946363 0.101265 101.248
0 0.945927 0.0920447 6.0221
0 0.945906 0.0968008 69.2574
0 0.946083 0.0920922 7.81933
0 0.946274 0.0921045 9.11978
0 0.946454 0.100431 10.8296
0 0.946018 0.0957016 19.7367
0 0.946266 0.102502 82.1329
VECTORS fa_u float
0.00639467 0.00264409 -0
0.00542957 0.00312266 -0
0.00529745 0.00144685 -0
0.00755953 0.00104763 -0
1e-08 0 0
0.00578784 0.00443133 -0
0.00402641 0.00399722 -0
1e-08 0 0
1e-08 0 0
0.00409434 0.00523416 -0
0.00382787 0.00654767 -0
0.00597754 3.69447e-05 -0
0.00715925 -0.000888306 0
1e-08 0 0
1e-08 0 0
1e-08 0 0
1e-08 0 0
1e-08 0 0
1e-08 0 0
1e-08 0 0
1e-08 0 0
0.00268216 0.006477 -0
0.00187689 0.00714544 -0
1e-08 0 0
1e-08 0 0
1e-08 0 0
0.00746362 -0.001997 0
1e-08 0 0
0.00651297 -0.00274676 0
1e-08 0 0
1e-08 0 0
1e-08 0 0
0.000694018 0.00532261 -0
1e-08 0 0
1e-08 0 0
1e-08 0 0
1e-08 0 0
1e-08 0 0
1e-08 0 0
1e-08 0 0
1e-08 0 0
1e-08 0 0
1e-08 0 0
-4.0871e-05 0.00897458 -0
1e-08 0 0
1e-08 0 0
1e-08 0 0
0.0059557 -0.00351257 0
1e-08 0 0
0.00482628 -0.0037581 0
1e-08 0 0
1e-08 0 0
1e-08 0 0
1e-08 0 0
1e-08 0 0
1e-08 0 0
1e-08 0 0
1e-08 0 0
1e-08 0 0
1e-08 0 0
1e-08 0 0
1e-08 0 0
1e-08 0 0
-0.000817594 0.00574988 0
1e-08 0 0
1e-08 0 0
1e-08 0 0
1e-08 0 0
1e-08 0 0
0.00422683 -0.00423223 0
1e-08 0 0
0.003528 -0.00452121 0
1e-08 0 0
1e-08 0 0
1e-08 0 0
1e-08 0 0
1e-08 0 0
1e-08 0 0
1e-08 0 0
1e-08 0 0
1e-08 0 0
1e-08 0 0
1e-08 0 0
1e-08 0 0
1e-08 0 0
-0.00137253 0.00515429 0
1e-08 0 0
1e-08 0 0
1e-08 0 0
1e-08 0 0
1e-08 0 0
1e-08 0 0
0.00383485 -0.00650325 0
1e-08 0 0
1e-08 0 0
1e-08 0 0
1e-08 0 0
1e-08 0 0
0.00305244 -0.00738848 0
1e-08 0 0
1e-08 0 0
1e-08 0 0
1e-08 0 0
1e-08 0 0
1e-08 0 0
1e-08 0 0
1e-08 0 0
1e-08 0 0
1e-08 0 0
-0.00277593 0.00681128 0
1e-08 0 0
1e-08 0 0
1e-08 0 0
1e-08 0 0
1e-08 0 0
1e-08 0 0
1e-08 0 0
1e-08 0 0
1e-08 0 0
1e-08 0 0
1e-08 0 0
1e-08 0 0
1e-08 0 0
1e-08 0 0
0.00167311 -0.00641047 0
1e-08 0 0
1e-08 0 0
1e-08 0 0
1e-08 0 0
1e-08 0 0
1e-08 0 0
1e-08 0 0
1e-08 0 0
1e-08 0 0
-0.00401077 0.00689237 0
1e-08 0 0
1e-08 0 0
1e-08 0 0
1e-08 0 0
1e-08 0 0
1e-08 0 0
1e-08 0 0
1e-08 0 0
1e-08 0 0
1e-08 0 0
1e-08 0 0
1e-08 0 0
1e-08 0 0
1e-08 0 0
1e-08 0 0
0.000696717 -0.00523419 0
1e-08 0 0
1e-08 0 0
1e-08 0 0
1e-08 0 0
1e-08 0 0
1e-08 0 0
1e-08 0 0
1e-08 0 0
1e-08 0 0
1e-08 0 0
-0.00350639 0.00452871 0
1e-08 0 0
1e-08 0 0
1e-08 0 0
1e-08 0 0
1e-08 0 0
1e-08 0 0
1e-08 0 0
1e-08 0 0
1e-08 0 0
1e-08 0 0
1e-08 0 0
1e-08 0 0
3.28716e-05 -0.00761339 0
1e-08 0 0
1e-08 0 0
1e-08 0 0
1e-08 0 0
1e-08 0 0
1e-08 0 0
1e-08 0 0
1e-08 0 0
1e-08 0 0
1e-08 0 0
1e-08 0 0
1e-08 0 0
-0.00421102 0.00424859 0
1e-08 0 0
1e-08 0 0
1e-08 0 0
1e-08 0 0
1e-08 0 0
1e-08 0 0
1e-08 0 0
1e-08 0 0
1e-08 0 0
1e-08 0 0
1e-08 0 0
1e-08 0 0
1e-08 0 0
-0.000747329 -0.00585825 0
1e-08 0 0
1e-08 0 0
1e-08 0 0
1e-08 0 0
1e-08 0 0
1e-08 0 0
1e-08 0 0
1e-08 0 0
-0.00482575 0.00378805 0
1e-08 0 0
1e-08 0 0
1e-08 0 0
1e-08 0 0
1e-08 0 0
1e-08 0 0
1e-08 0 0
1e-08 0 0
1e-08 0 0
1e-08 0 0
1e-08 0 0
-0.00196741 -0.0074403 0
1e-08 0 0
1e-08 0 0
1e-08 0 0
1e-08 0 0
1e-08 0 0
1e-08 0 0
1e-08 0 0
-0.00644796 0.00381057 0
1e-08 0 0
1e-08 0 0
1e-08 0 0
1e-08 0 0
1e-08 0 0
1e-08 0 0
1e-08 0 0
1e-08 0 0
1e-08 0 0
1e-08 0 0
1e-08 0 0
-0.00250905 -0.00604552 0
1e-08 0 0
1e-08 0 0
1e-08 0 0
1e-08 0 0
1e-08 0 0
-0.00819261 0.00336112 0
1e-08 0 0
1e-08 0 0
1e-08 0 0
1e-08 0 0
1e-08 0 0
1e-08 0 0
1e-08 0 0
1e-08 0 0
-0.00379407 -0.006515 0
1e-08 0 0
1e-08 0 0
1e-08 0 0
1e-08 0 0
-0.00472433 0.00124774 0
1e-08 0 0
1e-08 0 0
1e-08 0 0
1e-08 0 0
1e-08 0 0
1e-08 0 0
-0.0039383 -0.00506536 0
1e-08 0 0
1e-08 0 0
1e-08 0 0
-0.00801228 0.00105171 0
1e-08 0 0
1e-08 0 0
1e-08 0 0
1e-08 0 0
1e-08 0 0
1e-08 0 0
-0.00436542 -0.0043471 0
1e-08 0 0
1e-08 0 0
-0.00705852 -6.01127e-05 0
1e-08 0 0
1e-08 0 0
1e-08 0 0
1e-08 0 0
-0.00548416 -0.00420605 0
1e-08 0 0
-0.0057055 -0.000783274 0
1e-08 0 0
1e-08 0 0
-0.00552044 -0.00318982 0
-0.00565743 -0.00149249 0
-0.00720817 -0.00295921 0
