# vtk DataFile Version 2.0
CellBP Time: 0.32
ASCII
DATASET UNSTRUCTURED_GRID
POINTS 296 double
-9.18419 -3.77476 0
-8.59873 -4.94339 0
-9.60799 -2.53777 0
-9.86241 -1.25501 0
-8.35744 -2.81846 0
-7.88158 -6.03628 0
-7.01893 -7.019 0
-7.91686 -3.8744 0
-7.34228 -4.86796 0
-6.03174 -7.87596 0
-4.94633 -8.60401 0
-9.94184 0.0499332 0
-9.86262 1.35489 0
-8.65747 -1.68403 0
-8.78613 -0.529512 0
-7.58945 -2.00401 0
-7.22546 -2.90627 0
-6.63776 -5.77889 0
-5.82248 -6.59684 0
-6.78998 -3.88878 0
-6.22041 -4.67588 0
-3.77541 -9.18554 0
-2.5375 -9.60675 0
-4.90645 -7.30902 0
-3.91323 -7.88657 0
-8.79269 0.643312 0
-9.60497 2.63695 0
-8.62314 1.774 0
-9.18013 3.87321 0
-7.74411 -0.928908 0
-7.79435 0.0803033 0
-6.95234 -1.31576 0
-1.25435 -9.85796 0
-6.44128 -2.153 0
-6.31918 -3.056 0
-5.53652 -5.47458 0
-4.79591 -6.11555 0
-5.65886 -3.75693 0
-5.26926 -4.56155 0
-2.86632 -8.36421 0
-1.77845 -8.64061 0
-3.92818 -6.72373 0
-3.05673 -7.15286 0
0.0499831 -9.94671 0
-7.70542 1.14352 0
-8.33855 2.91563 0
-7.55187 2.11201 0
-8.60689 5.04812 0
-7.88008 3.97844 0
-7.88563 6.13927 0
-6.77854 -0.396783 0
-6.95641 0.552603 0
-5.77131 -1.00335 0
-0.590838 -8.81019 0
0.565575 -8.77125 0
-5.30302 -2.48019 0
-4.49186 -5.09573 0
-3.90245 -5.77539 0
-4.43883 -3.80472 0
-2.06243 -7.56227 0
-1.13546 -7.78619 0
-2.99452 -6.10219 0
-2.30904 -6.62001 0
1.35533 -9.86641 0
-6.68944 1.42208 0
-7.17221 3.11825 0
-6.65931 2.37309 0
-7.29487 4.98895 0
-6.71823 4.00323 0
-7.01906 7.11903 0
-6.5728 5.89419 0
-6.03151 7.97567 0
-4.45315 -1.18108 0
-5.8146 0.51375 0
-4.65624 -0.0104289 0
0.00845 -7.84843 0
1.7383 -8.64403 0
0.948818 -7.76368 0
-4.03853 -2.40639 0
-3.48569 -1.39126 0
-3.29448 -4.80539 0
-3.26592 -3.26783 0
-1.3786 -6.67567 0
-0.508797 -7.02516 0
-1.97554 -5.53717 0
2.63534 -9.59947 0
-5.50742 2.03699 0
-6.09487 3.07232 0
-6.10536 4.8698 0
-5.76194 3.99159 0
-5.76148 6.71726 0
-5.45242 5.61952 0
-4.94727 8.70566 0
-4.83866 7.40477 0
-3.50162 -0.424326 0
-4.4494 1.24907 0
-3.71158 0.592093 0
-4.06227 2.31993 0
-3.77606 9.28675 0
2.86251 -8.333 0
0.419567 -6.79562 0
2.02186 -7.52604 0
1.30593 -6.90573 0
-2.44479 -0.873844 0
-2.83849 -2.13121 0
-2.29445 -4.09748 0
-2.32572 -2.97369 0
-0.442435 -5.8613 0
-1.22271 -4.49927 0
3.87549 -9.1859 0
-4.78994 3.39189 0
-5.08819 4.59429 0
-4.64743 6.28163 0
-4.53912 5.3599 0
-3.8441 7.99354 0
-3.82696 6.84586 0
-2.78339 8.42287 0
-1.64917 -0.137886 0
-1.45036 -0.890631 0
-2.48927 0.507317 0
-3.25376 1.44424 0
-3.23915 3.31667 0
-2.91112 2.37192 0
-1.35523 0.627167 0
-2.53654 9.70257 0
3.93265 -7.88731 0
2.96441 -7.15794 0
0.953985 -5.82215 0
2.07421 -6.41569 0
-1.68305 -1.99216 0
-1.43446 -3.27789 0
0.0901969 -4.74712 0
-0.566151 -3.69457 0
4.93208 -7.31904 0
5.04875 -8.60849 0
-3.77711 4.55173 0
-3.73498 5.75233 0
-2.88812 7.29006 0
-3.00987 6.35394 0
-1.66242 8.73394 0
-1.94012 7.61965 0
-2.3385 4.0518 0
-0.730792 -1.32733 0
-0.836986 -0.257634 0
-1.93637 1.68091 0
-2.12592 2.876 0
-1.30671 3.54486 0
-0.869591 1.35093 0
-0.282457 0.456076 0
-0.533222 8.87241 0
-1.25395 9.95413 0
1.11273 -4.57473 0
3.91005 -6.71753 0
2.98784 -6.09498 0
2.11777 -5.42511 0
4.78454 -6.20561 0
-0.558873 -2.47695 0
0.495121 -3.46398 0
0.0535277 -1.6106 0
1.48186 -3.68229 0
5.86754 -6.61486 0
6.13118 -7.87546 0
-2.4758 5.34866 0
-2.13053 6.53475 0
-0.903975 7.80389 0
-1.27233 6.93246 0
0.0863174 7.8812 0
-1.14456 4.4949 0
0.150274 -0.617697 0
-0.797581 2.48869 0
-0.331782 3.60095 0
0.0629985 1.51283 0
0.741379 0.47343 0
0.646832 8.87533 0
0.0499111 10.0483 0
2.38096 -4.28539 0
3.8592 -5.64071 0
3.00143 -5.21297 0
5.57418 -5.4922 0
4.69119 -5.28335 0
0.629697 -2.29353 0
1.25618 -2.95138 0
0.757499 -1.39157 0
2.16433 -3.13598 0
2.9938 -3.47677 0
6.15578 -4.79227 0
6.65627 -5.76984 0
7.11819 -7.0183 0
-1.01968 5.82068 0
-0.372561 6.8842 0
1.12275 7.77063 0
0.558075 7.08061 0
-0.000832653 4.72548 0
0.606935 3.82808 0
1.33892 -0.64198 0
0.53901 2.65122 0
0.966016 1.57504 0
1.91022 0.21384 0
1.61475 1.06508 0
2.12963 7.58469 0
1.79937 8.71367 0
1.3544 9.95836 0
3.82292 -4.35186 0
5.11693 -4.44939 0
5.84631 -3.93557 0
3.78412 -3.20127 0
1.81233 -1.88281 0
3.01923 -2.57409 0
6.78423 -3.94843 0
7.38245 -4.89747 0
7.9788 -6.03406 0
0.483396 5.8821 0
1.42834 6.74286 0
2.37467 6.67012 0
1.21001 4.55658 0
1.4882 3.39791 0
2.43589 -0.69212 0
2.82819 0.142592 0
1.78892 2.16302 0
2.61202 1.15023 0
3.07252 7.17132 0
2.90452 8.37815 0
2.63754 9.70682 0
4.91163 -3.32819 0
6.12143 -3.1091 0
4.17313 -2.27549 0
3.24461 -1.50308 0
6.73235 -2.3134 0
7.23325 -3.04307 0
7.96612 -3.91304 0
8.70925 -4.94949 0
2.02384 5.60054 0
3.08691 6.15464 0
2.36412 4.12735 0
2.42025 3.06118 0
3.52593 -0.460919 0
3.616 0.613367 0
2.96205 2.2883 0
3.54587 1.52541 0
4.01283 5.89926 0
3.98534 6.7947 0
3.97429 7.94036 0
3.87548 9.28542 0
5.56952 -1.91644 0
4.50965 -1.12974 0
6.71525 -1.33635 0
7.59423 -2.0368 0
8.39902 -2.86185 0
9.28619 -3.77587 0
3.41951 4.87775 0
3.3393 3.38577 0
4.69178 0.130104 0
4.51962 1.31009 0
4.06569 2.44405 0
4.57147 5.15366 0
4.84493 6.19251 0
4.98198 7.3825 0
5.04823 8.70698 0
5.88448 -0.435014 0
7.0127 -0.488372 0
7.76176 -1.0855 0
8.68721 -1.74638 0
9.70094 -2.53603 0
4.55316 3.82826 0
5.81885 1.09871 0
5.3722 2.53534 0
5.3815 4.62188 0
5.61383 5.52528 0
5.89886 6.67412 0
6.13703 7.98291 0
6.84812 0.463601 0
7.85596 -0.0255778 0
8.86321 -0.584306 0
9.96053 -1.2548 0
6.96277 1.34978 0
5.72275 3.77953 0
6.54351 2.19807 0
6.38227 3.08889 0
6.29458 4.68851 0
6.69533 5.83965 0
7.11643 7.11658 0
7.78724 0.967947 0
8.8626 0.573073 0
10.0457 0.0499807 0
7.61907 2.00495 0
6.8316 3.90554 0
7.27225 2.94776 0
7.38103 4.88739 0
7.98071 6.13551 0
8.72613 1.72748 0
9.96476 1.35521 0
8.42392 2.83867 0
7.98449 3.91764 0
8.70669 5.04801 0
9.7028 2.63639 0
9.284 3.87488 0
CELLS 542 2168
3 2 0 4
3 0 1 7
3 4 0 7
3 1 5 8
3 7 1 8
3 3 2 13
3 13 2 4
3 11 3 14
3 14 3 13
3 13 4 15
3 4 7 16
3 15 4 16
3 5 6 17
3 8 5 17
3 6 9 18
3 17 6 18
3 7 8 19
3 16 7 19
3 8 17 20
3 19 8 20
3 9 10 23
3 18 9 23
3 10 21 24
3 23 10 24
3 12 11 25
3 25 11 14
3 26 12 27
3 27 12 25
3 14 13 29
3 29 13 15
3 25 14 30
3 30 14 29
3 29 15 31
3 15 16 33
3 31 15 33
3 16 19 34
3 33 16 34
3 17 18 35
3 20 17 35
3 18 23 36
3 35 18 36
3 19 20 37
3 34 19 37
3 20 35 38
3 37 20 38
3 21 22 39
3 24 21 39
3 22 32 40
3 39 22 40
3 23 24 41
3 36 23 41
3 24 39 42
3 41 24 42
3 27 25 44
3 44 25 30
3 28 26 45
3 45 26 27
3 45 27 46
3 46 27 44
3 47 28 48
3 48 28 45
3 30 29 50
3 50 29 31
3 44 30 51
3 51 30 50
3 50 31 52
3 31 33 52
3 32 43 53
3 40 32 53
3 53 43 54
3 33 34 55
3 34 37 55
3 33 55 52
3 35 36 56
3 38 35 56
3 36 41 57
3 56 36 57
3 37 38 58
3 38 56 58
3 37 58 55
3 39 40 59
3 42 39 59
3 40 53 60
3 59 40 60
3 41 42 61
3 57 41 61
3 42 59 62
3 61 42 62
3 43 63 54
3 46 44 64
3 64 44 51
3 48 45 65
3 65 45 46
3 65 46 66
3 66 46 64
3 49 47 67
3 67 47 48
3 67 48 68
3 68 48 65
3 69 49 70
3 70 49 67
3 52 55 72
3 64 51 73
3 51 50 73
3 50 52 73
3 73 52 74
3 74 52 72
3 53 54 75
3 60 53 75
3 54 63 76
3 54 76 77
3 75 54 77
3 55 58 78
3 72 55 78
3 72 78 79
3 56 57 80
3 57 61 80
3 56 80 58
3 58 80 81
3 78 58 81
3 59 60 82
3 62 59 82
3 60 75 83
3 82 60 83
3 61 62 84
3 62 82 84
3 61 84 80
3 63 85 76
3 66 64 86
3 64 73 86
3 68 65 87
3 87 65 66
3 87 66 86
3 70 67 88
3 88 67 68
3 88 68 89
3 89 68 87
3 71 69 90
3 90 69 70
3 90 70 91
3 91 70 88
3 92 71 93
3 93 71 90
3 74 72 94
3 94 72 79
3 86 73 95
3 95 73 74
3 95 74 96
3 96 74 94
3 97 86 95
3 76 85 99
3 75 77 100
3 83 75 100
3 76 99 101
3 77 76 101
3 77 101 102
3 100 77 102
3 94 79 103
3 78 81 104
3 79 78 104
3 79 104 103
3 80 84 105
3 81 80 105
3 81 105 106
3 104 81 106
3 82 83 107
3 83 100 107
3 82 107 84
3 84 107 108
3 105 84 108
3 85 109 99
3 89 87 110
3 87 86 110
3 110 86 97
3 91 88 111
3 111 88 89
3 111 89 110
3 93 90 112
3 112 90 91
3 112 91 113
3 113 91 111
3 98 92 114
3 114 92 93
3 114 93 115
3 115 93 112
3 116 98 114
3 117 103 118
3 96 94 119
3 94 103 119
3 119 103 117
3 97 95 120
3 120 95 96
3 120 96 119
3 121 110 97
3 121 97 122
3 122 97 120
3 123 119 117
3 124 98 116
3 99 109 125
3 99 125 126
3 101 99 126
3 100 102 127
3 100 127 107
3 101 126 128
3 102 101 128
3 102 128 127
3 104 106 129
3 104 129 103
3 103 129 118
3 105 108 130
3 106 105 130
3 106 130 129
3 107 127 131
3 108 107 131
3 108 131 132
3 108 132 130
3 109 134 125
3 125 134 133
3 113 111 135
3 111 110 135
3 135 110 121
3 115 112 136
3 136 112 113
3 136 113 135
3 116 114 137
3 137 114 115
3 137 115 138
3 138 115 136
3 139 124 116
3 139 116 140
3 140 116 137
3 141 135 121
3 118 129 142
3 118 142 143
3 117 118 143
3 123 117 143
3 122 120 144
3 120 119 144
3 144 119 123
3 141 121 145
3 145 121 122
3 145 122 144
3 146 141 145
3 147 144 123
3 147 123 148
3 143 148 123
3 150 124 139
3 149 150 139
3 131 127 151
3 125 133 152
3 126 125 152
3 126 152 153
3 128 126 153
3 128 153 154
3 128 154 127
3 127 154 151
3 152 133 155
3 130 132 156
3 130 156 129
3 129 156 142
3 131 151 157
3 132 131 157
3 132 157 156
3 156 158 142
3 157 151 159
3 133 160 155
3 134 161 133
3 133 161 160
3 138 136 162
3 136 135 162
3 162 135 141
3 140 137 163
3 163 137 138
3 163 138 162
3 149 139 164
3 164 139 140
3 164 140 165
3 165 140 163
3 166 149 164
3 167 162 141
3 167 141 146
3 142 158 168
3 143 142 168
3 143 168 148
3 146 145 169
3 145 144 169
3 169 144 147
3 170 167 146
3 170 146 169
3 171 169 147
3 171 147 148
3 171 148 172
3 168 172 148
3 173 149 166
3 174 150 149
3 173 174 149
3 154 175 151
3 151 175 159
3 152 155 176
3 153 152 176
3 153 176 177
3 153 177 154
3 154 177 175
3 155 160 178
3 155 178 179
3 176 155 179
3 156 157 180
3 156 180 158
3 157 159 181
3 157 181 180
3 158 180 182
3 158 182 168
3 159 175 183
3 159 183 181
3 175 184 183
3 160 186 178
3 178 186 185
3 161 187 160
3 160 187 186
3 165 163 188
3 163 162 188
3 188 162 167
3 166 164 189
3 189 164 165
3 189 165 188
3 190 173 166
3 190 166 191
3 191 166 189
3 192 188 167
3 192 167 170
3 193 192 170
3 182 194 168
3 194 172 168
3 193 170 195
3 170 169 195
3 195 169 171
3 196 195 171
3 196 171 172
3 194 197 172
3 197 198 172
3 198 196 172
3 200 173 190
3 199 200 190
3 201 174 173
3 200 201 173
3 176 179 202
3 177 176 202
3 177 202 175
3 175 202 184
3 178 185 203
3 178 203 179
3 179 203 202
3 203 185 204
3 202 205 184
3 183 206 181
3 180 181 206
3 180 206 182
3 182 206 194
3 183 184 207
3 205 207 184
3 183 207 206
3 185 208 204
3 186 209 185
3 185 209 208
3 187 210 186
3 186 210 209
3 191 189 211
3 189 188 211
3 211 188 192
3 199 190 212
3 212 190 191
3 212 191 211
3 213 199 212
3 214 211 192
3 214 192 193
3 215 214 193
3 215 193 195
3 206 216 194
3 216 197 194
3 216 217 197
3 215 195 218
3 218 195 196
3 198 218 196
3 217 219 197
3 219 218 198
3 197 219 198
3 220 199 213
3 221 200 199
3 220 221 199
3 222 201 200
3 221 222 200
3 203 204 223
3 203 223 202
3 202 223 205
3 204 208 224
3 204 224 223
3 205 223 225
3 205 225 207
3 207 225 226
3 207 226 206
3 226 216 206
3 208 228 224
3 224 228 227
3 209 229 208
3 229 228 208
3 210 230 209
3 209 230 229
3 213 212 231
3 212 211 231
3 231 211 214
3 232 220 213
3 232 213 231
3 233 231 214
3 233 214 215
3 234 233 215
3 234 215 218
3 226 235 216
3 235 217 216
3 235 236 217
3 217 236 219
3 237 234 218
3 237 218 219
3 236 238 219
3 238 237 219
3 240 220 232
3 239 240 232
3 241 221 220
3 240 241 220
3 242 222 221
3 241 242 221
3 224 227 243
3 224 243 223
3 223 243 225
3 225 243 244
3 225 244 226
3 226 244 235
3 227 245 243
3 228 246 227
3 227 246 245
3 229 247 228
3 228 247 246
3 230 248 229
3 229 248 247
3 239 232 249
3 232 231 249
3 249 231 233
3 250 249 233
3 250 233 234
3 237 250 234
3 244 251 235
3 235 251 236
3 251 252 236
3 236 252 238
3 252 253 238
3 253 250 237
3 253 237 238
3 254 239 249
3 255 240 239
3 254 255 239
3 256 241 240
3 255 256 240
3 257 242 241
3 256 257 241
3 245 258 243
3 243 258 244
3 244 258 251
3 245 259 258
3 246 260 245
3 245 260 259
3 247 261 246
3 246 261 260
3 248 262 247
3 247 262 261
3 254 249 263
3 263 249 250
3 253 263 250
3 258 264 251
3 251 264 252
3 264 265 252
3 265 263 253
3 252 265 253
3 266 254 263
3 267 255 254
3 266 267 254
3 268 256 255
3 267 268 255
3 269 257 256
3 268 269 256
3 259 270 258
3 270 264 258
3 260 271 259
3 259 271 270
3 261 272 260
3 260 272 271
3 262 273 261
3 273 272 261
3 270 274 264
3 275 266 263
3 275 263 265
3 274 276 264
3 276 265 264
3 276 277 265
3 277 275 265
3 278 267 266
3 275 278 266
3 279 268 267
3 278 279 267
3 280 269 268
3 279 280 268
3 271 281 270
3 270 281 274
3 272 282 271
3 271 282 281
3 273 283 272
3 272 283 282
3 281 284 274
3 274 284 276
3 285 278 275
3 277 285 275
3 284 286 276
3 286 285 277
3 276 286 277
3 287 279 278
3 285 287 278
3 288 280 279
3 287 288 279
3 282 289 281
3 281 289 284
3 283 290 282
3 282 290 289
3 289 291 284
3 284 291 286
3 291 292 286
3 292 287 285
3 286 292 285
3 293 288 287
3 292 293 287
3 290 294 289
3 289 294 291
3 294 295 291
3 295 293 292
3 291 295 292
CELL_TYPES 542
5
5
5
5
5
5
5
5
5
5
5
5
5
5
5
5
5
5
5
5
5
5
5
5
5
5
5
5
5
5
5
5
5
5
5
5
5
5
5
5
5
5
5
5
5
5
5
5
5
5
5
5
5
5
5
5
5
5
5
5
5
5
5
5
5
5
5
5
5
5
5
5
5
5
5
5
5
5
5
5
5
5
5
5
5
5
5
5
5
5
5
5
5
5
5
5
5
5
5
5
5
5
5
5
5
5
5
5
5
5
5
5
5
5
5
5
5
5
5
5
5
5
5
5
5
5
5
5
5
5
5
5
5
5
5
5
5
5
5
5
5
5
5
5
5
5
5
5
5
5
5
5
5
5
5
5
5
5
5
5
5
5
5
5
5
5
5
5
5
5
5
5
5
5
5
5
5
5
5
5
5
5
5
5
5
5
5
5
5
5
5
5
5
5
5
5
5
5
5
5
5
5
5
5
5
5
5
5
5
5
5
5
5
5
5
5
5
5
5
5
5
5
5
5
5
5
5
5
5
5
5
5
5
5
5
5
5
5
5
5
5
5
5
5
5
5
5
5
5
5
5
5
5
5
5
5
5
5
5
5
5
5
5
5
5
5
5
5
5
5
5
5
5
5
5
5
5
5
5
5
5
5
5
5
5
5
5
5
5
5
5
5
5
5
5
5
5
5
5
5
5
5
5
5
5
5
5
5
5
5
5
5
5
5
5
5
5
5
5
5
5
5
5
5
5
5
5
5
5
5
5
5
5
5
5
5
5
5
5
5
5
5
5
5
5
5
5
5
5
5
5
5
5
5
5
5
5
5
5
5
5
5
5
5
5
5
5
5
5
5
5
5
5
5
5
5
5
5
5
5
5
5
5
5
5
5
5
5
5
5
5
5
5
5
5
5
5
5
5
5
5
5
5
5
5
5
5
5
5
5
5
5
5
5
5
5
5
5
5
5
5
5
5
5
5
5
5
5
5
5
5
5
5
5
5
5
5
5
5
5
5
5
5
5
5
5
5
5
5
5
5
5
5
5
5
5
5
5
5
5
5
5
5
5
5
5
5
5
5
5
5
5
5
5
5
5
5
5
5
5
5
5
5
5
5
5
5
5
5
5
5
5
5
5
5
5
5
5
5
5
5
5
5
5
5
5
5
5
5
5
5
5
5
5
5
5
5
5
5
5
5
5
5
5
5
5
5
5
5
5
5
5
5
5
5
5
5
5
5
5
5
5
POINT_DATA 296
SCALARS concentrations float 4
LOOKUP_TABLE default
0 0.99861 0.101598 235.049
0 0.99856 0.104841 186.278
0 0.998894 0.104445 79.2015
0 0.999208 0.102451 15.1011
0 0.998799 0.0888309 5.45722
0 0.998319 0.0995651 98.2198
0 0.998499 0.0993947 62.6997
0 0.998686 0.0887682 6.98146
0 0.998549 0.0888807 6.87192
0 0.998731 0.100942 187.133
0 0.998893 0.100819 49.5156
0 0.999265 0.103608 134.723
0 0.999288 0.101602 60.1425
0 0.999084 0.0893676 4.19109
0 0.999232 0.0893235 4.38113
0 0.999032 0.0888486 4.63505
0 0.998905 0.0886137 4.41729
0 0.998507 0.0892136 5.55905
0 0.998709 0.0890324 3.14392
0 0.998817 0.0885215 2.80899
0 0.998777 0.0886162 0.794366
0 0.999009 0.101267 65.5632
0 0.998984 0.10162 160.574
0 0.998863 0.0889551 3.27075
0 0.998979 0.0894225 6.83222
0 0.999249 0.0888252 4.56434
0 0.999237 0.10061 127.488
0 0.99925 0.0892896 8.8378
0 0.999061 0.100088 128.532
0 0.999152 0.0888649 4.09174
0 0.999207 0.0888338 4.94459
0 0.999126 0.0886883 3.72679
0 0.998853 0.101214 130.913
0 0.999077 0.088587 3.39142
0 0.999001 0.0884992 2.89031
0 0.998818 0.0887448 2.10695
0 0.998917 0.0886916 1.76429
0 0.998995 0.0884566 1.24676
0 0.998967 0.0885335 0.743548
0 0.999025 0.0895818 6.52064
0 0.99894 0.0892098 5.81504
0 0.999001 0.0887047 2.21643
0 0.999042 0.088842 3.5233
0 0.998933 0.101914 121.983
0 0.999201 0.0887148 5.45544
0 0.999137 0.0891993 8.88044
0 0.999158 0.0887291 5.55196
0 0.99905 0.100387 74.0587
0 0.999055 0.0890113 4.03561
0 0.999032 0.0968324 39.6131
0 0.99917 0.0886448 3.5622
0 0.999181 0.0886203 4.03418
0 0.999155 0.088468 1.74141
0 0.998913 0.0888763 3.17388
0 0.998972 0.0891611 3.07036
0 0.999115 0.0884139 1.68143
0 0.999025 0.0885135 1.53072
0 0.999052 0.088571 2.05359
0 0.9991 0.088399 1.07964
0 0.999036 0.088952 3.23693
0 0.999006 0.0888527 2.65205
0 0.99909 0.0885673 2.77571
0 0.999088 0.0886748 3.44974
0 0.998956 0.101018 11.0194
0 0.999161 0.0884745 2.85171
0 0.9991 0.0886262 3.96332
0 0.999132 0.0884431 2.19279
0 0.999041 0.0890195 2.11096
0 0.999064 0.0887052 1.16426
0 0.999051 0.10245 113.958
0 0.999037 0.089102 3.95429
0 0.998907 0.10221 133.263
0 0.999177 0.0884216 1.1896
0 0.999173 0.0884396 1.2473
0 0.999192 0.0884367 0.721201
0 0.998996 0.088859 2.27989
0 0.998917 0.0892535 5.61768
0 0.998976 0.0888648 3.9146
0 0.999164 0.0884074 1.38239
0 0.999213 0.0884229 1.24572
0 0.99912 0.0884155 1.46902
0 0.999161 0.0884213 1.39935
0 0.999083 0.0886256 3.24878
0 0.999055 0.0886674 3.08157
0 0.999126 0.0884479 2.2854
0 0.998839 0.0996821 223.279
0 0.999157 0.088418 0.219345
0 0.999111 0.0885116 0.29623
0 0.999049 0.0887657 0.731414
0 0.999088 0.0886623 1.15446
0 0.99899 0.0888514 2.28953
0 0.999023 0.0887067 1.32586
0 0.998726 0.101359 96.103
0 0.998841 0.0887535 3.90244
0 0.999228 0.0884266 0.835237
0 0.999192 0.088437 0.120485
0 0.999227 0.0884365 0.348695
0 0.999183 0.0884705 0.724286
0 0.998636 0.103544 133.766
0 0.998865 0.0886049 4.19421
0 0.999046 0.0886257 3.24103
0 0.99895 0.0887331 4.38119
0 0.999015 0.0886367 3.90088
0 0.999249 0.088401 0.893977
0 0.999214 0.0884156 1.30792
0 0.999163 0.0884372 1.70563
0 0.999203 0.0884311 1.64943
0 0.999107 0.0884716 2.47308
0 0.999153 0.0884418 2.15034
0 0.998875 0.098792 66.5043
0 0.999136 0.0885341 1.33264
0 0.999083 0.0886773 1.75579
0 0.998961 0.0886108 1.60902
0 0.999048 0.0886616 1.82967
0 0.998722 0.0892283 9.08615
0 0.998882 0.0886518 3.19293
0 0.998693 0.0892297 10.9188
0 0.999276 0.0884081 0.705833
0 0.999271 0.0883844 0.949705
0 0.999256 0.0884217 0.51576
0 0.999231 0.0884524 0.421869
0 0.999171 0.0885032 1.09401
0 0.999221 0.0884885 0.982885
0 0.999285 0.0884324 0.727292
0 0.998657 0.0990852 157.891
0 0.998997 0.088862 3.69796
0 0.998971 0.088582 3.98145
0 0.999081 0.0884729 2.71234
0 0.999019 0.0885571 3.89648
0 0.99924 0.0883802 1.19702
0 0.999203 0.0884186 1.83842
0 0.99914 0.0884194 2.04998
0 0.999186 0.0884132 1.96276
0 0.99921 0.0888381 5.90846
0 0.999142 0.101015 184.07
0 0.999114 0.0885565 1.52051
0 0.999024 0.0885837 1.72011
0 0.998827 0.0886156 4.65693
0 0.998968 0.0885252 1.93859
0 0.998729 0.0891185 9.90495
0 0.998822 0.0886328 5.7138
0 0.999158 0.0885176 1.16702
0 0.999272 0.0883627 1.10467
0 0.999293 0.0883981 0.996595
0 0.999259 0.0884604 0.797635
0 0.999223 0.0885039 1.19678
0 0.999212 0.0885158 1.30293
0 0.999287 0.0884591 1.19581
0 0.999302 0.088433 1.34371
0 0.998821 0.0894119 8.63199
0 0.998734 0.102125 187.157
0 0.999128 0.0883974 1.90372
0 0.999063 0.0886153 3.6175
0 0.999042 0.0885397 3.71234
0 0.999085 0.08844 2.5745
0 0.999174 0.0886122 3.12135
0 0.99923 0.088362 1.44811
0 0.999188 0.0883826 1.73831
0 0.999268 0.0883546 1.25032
0 0.999169 0.0883903 1.75565
0 0.999344 0.0889041 7.38067
0 0.999359 0.103486 163.745
0 0.999083 0.0884969 1.05666
0 0.998972 0.0884478 2.02337
0 0.998856 0.0887284 4.07956
0 0.998953 0.0884849 2.30818
0 0.9989 0.0888066 2.14193
0 0.999147 0.088507 1.33738
0 0.999296 0.0883881 1.26253
0 0.999261 0.0884931 1.45438
0 0.999223 0.0885249 1.81641
0 0.999295 0.0884918 1.8196
0 0.999307 0.0884588 1.83906
0 0.998869 0.0891385 5.97504
0 0.998857 0.103575 80.3213
0 0.999138 0.0883997 1.46649
0 0.999104 0.0884878 2.50793
0 0.999103 0.0884481 2.21308
0 0.999236 0.0886008 1.9986
0 0.999157 0.0884745 1.03966
0 0.999239 0.0883535 1.31839
0 0.999216 0.0883749 1.33309
0 0.999275 0.0883778 1.3465
0 0.999199 0.0883969 1.45872
0 0.999172 0.0884264 1.51348
0 0.999239 0.0886884 2.222
0 0.999355 0.0887552 5.54361
0 0.999441 0.101751 10.31
0 0.999076 0.088455 0.871553
0 0.999 0.0885345 0.60369
0 0.998949 0.0887788 2.3651
0 0.999013 0.0886418 0.846363
0 0.999158 0.0885146 1.82122
0 0.999227 0.088545 2.28578
0 0.999291 0.0884178 1.64438
0 0.999271 0.0885248 2.17263
0 0.9993 0.0885198 2.27705
0 0.999301 0.0884928 2.20867
0 0.999305 0.0885181 2.37511
0 0.999027 0.0886994 3.89646
0 0.998891 0.0890287 6.52842
0 0.998836 0.0994362 103.452
0 0.999148 0.0884213 1.09205
0 0.999182 0.0885118 0.517294
0 0.999188 0.0886386 1.51715
0 0.999182 0.0884488 1.42622
0 0.999249 0.0883887 1.31496
0 0.999217 0.0884252 1.49762
0 0.999189 0.088776 2.65566
0 0.999279 0.0889044 5.45111
0 0.999364 0.10052 41.7611
0 0.999109 0.0884878 1.29053
0 0.999074 0.0885773 1.8459
0 0.999117 0.0885774 2.92524
0 0.999186 0.0885192 2.32811
0 0.99925 0.0885513 2.58848
0 0.999274 0.0884606 1.86628
0 0.999284 0.0885261 2.26575
0 0.999285 0.0885431 2.60117
0 0.999289 0.088544 2.57727
0 0.999134 0.088648 3.84152
0 0.999056 0.0889299 7.18877
0 0.998925 0.101359 134.913
0 0.999177 0.0884633 1.21391
0 0.999164 0.088599 1.60298
0 0.999203 0.0884345 1.41644
0 0.99924 0.0884413 1.59297
0 0.999126 0.0886303 1.4935
0 0.999104 0.0887723 1.52998
0 0.999172 0.0891172 6.95898
0 0.999264 0.0996322 36.9462
0 0.999164 0.0884695 2.16576
0 0.999177 0.0886023 3.76707
0 0.999216 0.0885134 2.46619
0 0.999258 0.0885633 2.76591
0 0.99925 0.0884926 1.85393
0 0.999256 0.0885274 2.06802
0 0.999268 0.0885733 2.8414
0 0.999258 0.0885752 2.72619
0 0.999205 0.0887481 4.07024
0 0.999204 0.0887701 3.207
0 0.99924 0.0888717 5.05917
0 0.999181 0.0994097 57.0636
0 0.999173 0.0884134 1.0817
0 0.999209 0.088422 1.29168
0 0.999099 0.0885984 1.24261
0 0.999011 0.0887855 2.12872
0 0.998969 0.0890821 7.00473
0 0.999075 0.10241 208.976
0 0.999207 0.0885615 3.57784
0 0.999233 0.0885585 3.04034
0 0.999207 0.0884426 1.36733
0 0.99921 0.0885149 2.2407
0 0.999227 0.0885684 3.0803
0 0.999212 0.0887838 4.25085
0 0.999222 0.0889717 2.93211
0 0.999268 0.0891809 3.4234
0 0.999319 0.101139 81.4777
0 0.99915 0.0884388 1.27739
0 0.999035 0.0886398 1.04133
0 0.998938 0.0887894 1.00331
0 0.998818 0.0890301 2.49925
0 0.998803 0.102532 97.1101
0 0.999209 0.0886007 3.55518
0 0.999134 0.0884784 1.44636
0 0.999166 0.0885427 2.47265
0 0.999192 0.088836 3.57221
0 0.999207 0.0890554 2.50883
0 0.999252 0.0893788 3.30795
0 0.999277 0.103597 126.749
0 0.999018 0.0885643 0.990437
0 0.998855 0.0887604 2.19303
0 0.998788 0.0889416 3.93979
0 0.998745 0.101411 108.468
0 0.998957 0.0886092 1.16266
0 0.999145 0.0887092 2.47557
0 0.999013 0.0885366 0.40652
0 0.999054 0.0886235 0.897469
0 0.999139 0.0889471 3.09455
0 0.999232 0.0893271 4.61269
0 0.999294 0.102751 136.608
0 0.998736 0.0887997 2.35127
0 0.998592 0.0890727 2.66078
0 0.99867 0.103685 125.181
0 0.998704 0.0888157 2.40243
0 0.998994 0.0887568 2.24189
0 0.998811 0.088768 2.59642
0 0.999036 0.0892224 7.55213
0 0.999181 0.102437 164.155
0 0.998323 0.0890884 2.60007
0 0.998285 0.0982 97.4452
0 0.998415 0.0890892 2.82017
0 0.998741 0.0888422 4.96051
0 0.998846 0.100115 3.05975
0 0.9981 0.101672 184.872
0 0.998464 0.101273 111.578
VECTORS fa_u float
0.00634363 0.00266142 -0
0.00446948 0.00257439 -0
0.00663124 0.00178487 -0
0.00688642 0.000888452 -0
1e-08 0 0
0.00591511 0.00450214 -0
0.00493056 0.00495777 -0
1e-08 0 0
1e-08 0 0
0.00356529 0.00466205 -0
0.00322739 0.00556061 -0
0.00562107 4.6224e-07 -0
0.00716146 -0.000932516 0
1e-08 0 0
1e-08 0 0
1e-08 0 0
1e-08 0 0
1e-08 0 0
1e-08 0 0
1e-08 0 0
1e-08 0 0
0.00258947 0.00622056 -0
0.00177975 0.00667268 -0
1e-08 0 0
1e-08 0 0
1e-08 0 0
0.00647442 -0.00175464 0
1e-08 0 0
0.00532186 -0.00220293 0
1e-08 0 0
1e-08 0 0
1e-08 0 0
0.000780763 0.00594251 -0
1e-08 0 0
1e-08 0 0
1e-08 0 0
1e-08 0 0
1e-08 0 0
1e-08 0 0
1e-08 0 0
1e-08 0 0
1e-08 0 0
1e-08 0 0
2.06346e-05 0.00637845 -0
1e-08 0 0
1e-08 0 0
1e-08 0 0
0.00560501 -0.00320189 0
1e-08 0 0
0.00592956 -0.0045464 0
1e-08 0 0
1e-08 0 0
1e-08 0 0
1e-08 0 0
1e-08 0 0
1e-08 0 0
1e-08 0 0
1e-08 0 0
1e-08 0 0
1e-08 0 0
1e-08 0 0
1e-08 0 0
1e-08 0 0
-0.00105301 0.00784023 0
1e-08 0 0
1e-08 0 0
1e-08 0 0
1e-08 0 0
1e-08 0 0
0.00467769 -0.00472284 0
1e-08 0 0
0.0034489 -0.00450348 0
1e-08 0 0
1e-08 0 0
1e-08 0 0
1e-08 0 0
1e-08 0 0
1e-08 0 0
1e-08 0 0
1e-08 0 0
1e-08 0 0
1e-08 0 0
1e-08 0 0
1e-08 0 0
1e-08 0 0
-0.00134455 0.00497937 0
1e-08 0 0
1e-08 0 0
1e-08 0 0
1e-08 0 0
1e-08 0 0
1e-08 0 0
0.00333725 -0.00574104 0
1e-08 0 0
1e-08 0 0
1e-08 0 0
1e-08 0 0
1e-08 0 0
0.0027281 -0.00659713 0
1e-08 0 0
1e-08 0 0
1e-08 0 0
1e-08 0 0
1e-08 0 0
1e-08 0 0
1e-08 0 0
1e-08 0 0
1e-08 0 0
1e-08 0 0
-0.00265495 0.00646581 0
1e-08 0 0
1e-08 0 0
1e-08 0 0
1e-08 0 0
1e-08 0 0
1e-08 0 0
1e-08 0 0
1e-08 0 0
1e-08 0 0
1e-08 0 0
1e-08 0 0
1e-08 0 0
1e-08 0 0
1e-08 0 0
0.00164751 -0.00622619 0
1e-08 0 0
1e-08 0 0
1e-08 0 0
1e-08 0 0
1e-08 0 0
1e-08 0 0
1e-08 0 0
1e-08 0 0
1e-08 0 0
-0.00364011 0.00626577 0
1e-08 0 0
1e-08 0 0
1e-08 0 0
1e-08 0 0
1e-08 0 0
1e-08 0 0
1e-08 0 0
1e-08 0 0
1e-08 0 0
1e-08 0 0
1e-08 0 0
1e-08 0 0
1e-08 0 0
1e-08 0 0
1e-08 0 0
0.000746559 -0.00558462 0
1e-08 0 0
1e-08 0 0
1e-08 0 0
1e-08 0 0
1e-08 0 0
1e-08 0 0
1e-08 0 0
1e-08 0 0
1e-08 0 0
1e-08 0 0
-0.00333642 0.00434194 0
1e-08 0 0
1e-08 0 0
1e-08 0 0
1e-08 0 0
1e-08 0 0
1e-08 0 0
1e-08 0 0
1e-08 0 0
1e-08 0 0
1e-08 0 0
1e-08 0 0
1e-08 0 0
1.22856e-05 -0.00756973 0
1e-08 0 0
1e-08 0 0
1e-08 0 0
1e-08 0 0
1e-08 0 0
1e-08 0 0
1e-08 0 0
1e-08 0 0
1e-08 0 0
1e-08 0 0
1e-08 0 0
1e-08 0 0
-0.0050631 0.00508021 0
1e-08 0 0
1e-08 0 0
1e-08 0 0
1e-08 0 0
1e-08 0 0
1e-08 0 0
1e-08 0 0
1e-08 0 0
1e-08 0 0
1e-08 0 0
1e-08 0 0
1e-08 0 0
1e-08 0 0
-0.000775721 -0.00587773 0
1e-08 0 0
1e-08 0 0
1e-08 0 0
1e-08 0 0
1e-08 0 0
1e-08 0 0
1e-08 0 0
1e-08 0 0
-0.00477918 0.00367551 0
1e-08 0 0
1e-08 0 0
1e-08 0 0
1e-08 0 0
1e-08 0 0
1e-08 0 0
1e-08 0 0
1e-08 0 0
1e-08 0 0
1e-08 0 0
1e-08 0 0
-0.00177794 -0.00666078 0
1e-08 0 0
1e-08 0 0
1e-08 0 0
1e-08 0 0
1e-08 0 0
1e-08 0 0
1e-08 0 0
-0.00608003 0.00352007 0
1e-08 0 0
1e-08 0 0
1e-08 0 0
1e-08 0 0
1e-08 0 0
1e-08 0 0
1e-08 0 0
1e-08 0 0
1e-08 0 0
1e-08 0 0
1e-08 0 0
-0.00247108 -0.00595795 0
1e-08 0 0
1e-08 0 0
1e-08 0 0
1e-08 0 0
1e-08 0 0
-0.00633526 0.00260315 0
1e-08 0 0
1e-08 0 0
1e-08 0 0
1e-08 0 0
1e-08 0 0
1e-08 0 0
1e-08 0 0
1e-08 0 0
-0.00314745 -0.00546493 0
1e-08 0 0
1e-08 0 0
1e-08 0 0
1e-08 0 0
-0.00556407 0.00148828 0
1e-08 0 0
1e-08 0 0
1e-08 0 0
1e-08 0 0
1e-08 0 0
1e-08 0 0
-0.00437975 -0.00569556 0
1e-08 0 0
1e-08 0 0
1e-08 0 0
-0.0068519 0.000913557 0
1e-08 0 0
1e-08 0 0
1e-08 0 0
1e-08 0 0
1e-08 0 0
1e-08 0 0
-0.00417545 -0.00416705 0
1e-08 0 0
1e-08 0 0
-0.00616223 9.98404e-06 0
1e-08 0 0
1e-08 0 0
1e-08 0 0
1e-08 0 0
-0.00538789 -0.00414203 0
1e-08 0 0
-0.00737012 -0.000977197 0
1e-08 0 0
1e-08 0 0
-0.0056921 -0.00328158 0
-0.00569455 -0.00153854 0
-0.00606506 -0.00250515 0
