# vtk DataFile Version 2.0
CellBP Time: 0.2
ASCII
DATASET UNSTRUCTURED_GRID
POINTS 296 double
-9.19116 -3.77774 0
-8.6084 -4.94893 0
-9.61475 -2.53959 0
-9.86683 -1.25559 0
-8.35839 -2.81881 0
-7.88595 -6.03951 0
-7.02299 -7.02301 0
-7.91784 -3.87488 0
-7.34319 -4.86823 0
-6.03701 -7.88271 0
-4.94617 -8.60369 0
-9.94723 0.0500027 0
-9.86887 1.35583 0
-8.65853 -1.68416 0
-8.78693 -0.529845 0
-7.59043 -2.00427 0
-7.22641 -2.90663 0
-6.63827 -5.77946 0
-5.82311 -6.59742 0
-6.79087 -3.8892 0
-6.22115 -4.67635 0
-3.77807 -9.19209 0
-2.53946 -9.61419 0
-4.90693 -7.30924 0
-3.91305 -7.88713 0
-8.79344 0.643592 0
-9.6092 2.63813 0
-8.62406 1.77407 0
-9.18277 3.87433 0
-7.74501 -0.929059 0
-7.7952 0.0802821 0
-6.95315 -1.31592 0
-1.25536 -9.86575 0
-6.44202 -2.15323 0
-6.31993 -3.05631 0
-5.5371 -5.47509 0
-4.7964 -6.11603 0
-5.6595 -3.75729 0
-5.26986 -4.56198 0
-2.86659 -8.36506 0
-1.77885 -8.64129 0
-3.92847 -6.72426 0
-3.05688 -7.15346 0
0.0500206 -9.95497 0
-7.7062 1.14363 0
-8.33915 2.91557 0
-7.55258 2.11213 0
-8.60804 5.04882 0
-7.88051 3.97867 0
-7.8879 6.14103 0
-6.77927 -0.396823 0
-6.95715 0.552642 0
-5.77181 -1.00341 0
-0.590885 -8.81078 0
0.565644 -8.77197 0
-5.30349 -2.48037 0
-4.49234 -5.09618 0
-3.90283 -5.77588 0
-4.43922 -3.80499 0
-2.06267 -7.56294 0
-1.13563 -7.78684 0
-2.99478 -6.10269 0
-2.30922 -6.62056 0
1.35606 -9.87158 0
-6.69005 1.42221 0
-7.1728 3.11847 0
-6.65987 2.37328 0
-7.29536 4.9895 0
-6.71873 4.00362 0
-7.02353 7.12351 0
-6.57341 5.89491 0
-6.03402 7.9789 0
-4.45343 -1.18111 0
-5.81505 0.513839 0
-4.65651 -0.0103546 0
0.00847106 -7.84908 0
1.73845 -8.64476 0
0.94895 -7.76435 0
-4.03879 -2.40651 0
-3.48583 -1.39127 0
-3.29473 -4.80571 0
-3.2661 -3.268 0
-1.37872 -6.67621 0
-0.508821 -7.02573 0
-1.97567 -5.53751 0
2.63669 -9.60435 0
-5.5078 2.03715 0
-6.09533 3.07261 0
-6.10587 4.87037 0
-5.7624 3.99204 0
-5.76216 6.71776 0
-5.45293 5.62012 0
-4.9492 8.70905 0
-4.83899 7.40533 0
-3.50178 -0.424293 0
-4.44967 1.24919 0
-3.71178 0.59217 0
-4.06253 2.32008 0
-3.77901 9.294 0
2.86289 -8.33369 0
0.419665 -6.79619 0
2.02215 -7.52673 0
1.30615 -6.90635 0
-2.44487 -0.873829 0
-2.8386 -2.13126 0
-2.29457 -4.09769 0
-2.32582 -2.9738 0
-0.44244 -5.86171 0
-1.22279 -4.4995 0
3.87774 -9.19122 0
-4.79028 3.39221 0
-5.08862 4.5948 0
-4.64787 6.28227 0
-4.53953 5.36049 0
-3.84418 7.99445 0
-3.82728 6.84665 0
-2.78373 8.42386 0
-1.64922 -0.137847 0
-1.4504 -0.890606 0
-2.48934 0.507361 0
-3.25392 1.44434 0
-3.23936 3.31694 0
-2.91128 2.37205 0
-1.35526 0.627229 0
-2.53737 9.70587 0
3.9332 -7.88804 0
2.96484 -7.15864 0
0.954126 -5.8226 0
2.07451 -6.41628 0
-1.68311 -1.99217 0
-1.43453 -3.27801 0
0.0902204 -4.74739 0
-0.566191 -3.6947 0
4.93259 -7.31985 0
5.05262 -8.61502 0
-3.77739 4.55218 0
-3.73531 5.75296 0
-2.88838 7.29092 0
-3.01014 6.35465 0
-1.6626 8.73477 0
-1.94034 7.62049 0
-2.33864 4.05215 0
-0.730806 -1.3273 0
-0.836995 -0.257582 0
-1.93641 1.68099 0
-2.12601 2.87618 0
-1.30675 3.54511 0
-0.869584 1.35102 0
-0.282433 0.456157 0
-0.533244 8.87317 0
-1.25462 9.95957 0
1.11285 -4.575 0
3.91056 -6.71826 0
2.98822 -6.09558 0
2.11802 -5.42555 0
4.78504 -6.20629 0
-0.558892 -2.47697 0
0.495152 -3.4641 0
0.0535406 -1.61056 0
1.48199 -3.68247 0
5.868 -6.61554 0
6.13445 -7.87958 0
-2.47599 5.34919 0
-2.13075 6.53545 0
-0.904082 7.80466 0
-1.2725 6.93319 0
0.0863048 7.88187 0
-1.14461 4.49527 0
0.150304 -0.61763 0
-0.797559 2.4888 0
-0.331738 3.60117 0
0.0630512 1.51293 0
0.741447 0.473523 0
0.64683 8.87595 0
0.0499414 10.0554 0
2.3812 -4.28567 0
3.85963 -5.64127 0
3.00177 -5.21341 0
5.57466 -5.49271 0
4.69166 -5.28387 0
0.629726 -2.29352 0
1.25627 -2.95145 0
0.75755 -1.39152 0
2.16452 -3.1361 0
2.99407 -3.47696 0
6.15631 -4.79263 0
6.65665 -5.77029 0
7.12025 -7.02033 0
-1.01977 5.82121 0
-0.372641 6.88484 0
1.12287 7.77122 0
0.558104 7.08122 0
-0.000791645 4.72583 0
0.607033 3.82834 0
1.339 -0.641903 0
0.539094 2.65138 0
0.966113 1.57516 0
1.91034 0.213945 0
1.61487 1.0652 0
2.12987 7.58525 0
1.79958 8.71419 0
1.35521 9.96462 0
3.82328 -4.35218 0
5.11741 -4.44977 0
5.84685 -3.93587 0
3.78445 -3.20145 0
1.81245 -1.88277 0
3.01947 -2.57416 0
6.78486 -3.94865 0
7.38301 -4.89761 0
7.98071 -6.03556 0
0.483433 5.88256 0
1.42847 6.74338 0
2.37492 6.67065 0
1.21014 4.55691 0
1.48835 3.39816 0
2.43604 -0.692056 0
2.82838 0.142688 0
1.78906 2.16319 0
2.61219 1.15037 0
3.07286 7.17189 0
2.90488 8.37872 0
2.63868 9.71131 0
4.91206 -3.32841 0
6.12199 -3.10932 0
4.17346 -2.27555 0
3.24484 -1.50305 0
6.73295 -2.31356 0
7.23393 -3.04329 0
7.96695 -3.91316 0
8.70972 -4.94975 0
2.02401 5.60094 0
3.08732 6.1552 0
2.36431 4.12767 0
2.42045 3.06144 0
3.52618 -0.460861 0
3.61625 0.613471 0
2.96228 2.28852 0
3.54616 1.5256 0
4.01344 5.89989 0
3.98584 6.79532 0
3.97463 7.94095 0
3.87618 9.28749 0
5.56995 -1.91652 0
4.50997 -1.12974 0
6.71584 -1.33643 0
7.59494 -2.03701 0
8.3998 -2.86224 0
9.29319 -3.77873 0
3.41994 4.87822 0
3.33964 3.3861 0
4.69211 0.130175 0
4.52001 1.31029 0
4.0661 2.44434 0
4.57221 5.15432 0
4.84567 6.19316 0
4.98247 7.38303 0
5.04966 8.70983 0
5.88497 -0.434982 0
7.01335 -0.488371 0
7.76245 -1.08561 0
8.6879 -1.74656 0
9.70613 -2.53742 0
4.55374 3.82873 0
5.8194 1.09892 0
5.3728 2.53572 0
5.38235 4.6226 0
5.6147 5.52602 0
5.89976 6.67468 0
6.1409 7.98801 0
6.8488 0.46373 0
7.85671 -0.0255542 0
8.86398 -0.584376 0
9.96576 -1.25543 0
6.96351 1.35004 0
5.72355 3.78016 0
6.54425 2.19845 0
6.38307 3.08944 0
6.29546 4.68932 0
6.69627 5.84051 0
7.12253 7.12256 0
7.78802 0.968108 0
8.86344 0.573123 0
10.0528 0.050027 0
7.61989 2.00528 0
6.83249 3.90627 0
7.27309 2.94824 0
7.3816 4.88828 0
7.98643 6.13982 0
8.72701 1.7277 0
9.96826 1.35572 0
8.42481 2.83905 0
7.9852 3.91806 0
8.7066 5.04778 0
9.70812 2.6378 0
9.28953 3.877 0
CELLS 542 2168
3 2 0 4
3 0 1 7
3 4 0 7
3 1 5 8
3 7 1 8
3 3 2 13
3 13 2 4
3 11 3 14
3 14 3 13
3 13 4 15
3 4 7 16
3 15 4 16
3 5 6 17
3 8 5 17
3 6 9 18
3 17 6 18
3 7 8 19
3 16 7 19
3 8 17 20
3 19 8 20
3 9 10 23
3 18 9 23
3 10 21 24
3 23 10 24
3 12 11 25
3 25 11 14
3 26 12 27
3 27 12 25
3 14 13 29
3 29 13 15
3 25 14 30
3 30 14 29
3 29 15 31
3 15 16 33
3 31 15 33
3 16 19 34
3 33 16 34
3 17 18 35
3 20 17 35
3 18 23 36
3 35 18 36
3 19 20 37
3 34 19 37
3 20 35 38
3 37 20 38
3 21 22 39
3 24 21 39
3 22 32 40
3 39 22 40
3 23 24 41
3 36 23 41
3 24 39 42
3 41 24 42
3 27 25 44
3 44 25 30
3 28 26 45
3 45 26 27
3 45 27 46
3 46 27 44
3 47 28 48
3 48 28 45
3 30 29 50
3 50 29 31
3 44 30 51
3 51 30 50
3 50 31 52
3 31 33 52
3 32 43 53
3 40 32 53
3 53 43 54
3 33 34 55
3 34 37 55
3 33 55 52
3 35 36 56
3 38 35 56
3 36 41 57
3 56 36 57
3 37 38 58
3 38 56 58
3 37 58 55
3 39 40 59
3 42 39 59
3 40 53 60
3 59 40 60
3 41 42 61
3 57 41 61
3 42 59 62
3 61 42 62
3 43 63 54
3 46 44 64
3 64 44 51
3 48 45 65
3 65 45 46
3 65 46 66
3 66 46 64
3 49 47 67
3 67 47 48
3 67 48 68
3 68 48 65
3 69 49 70
3 70 49 67
3 52 55 72
3 64 51 73
3 51 50 73
3 50 52 73
3 73 52 74
3 74 52 72
3 53 54 75
3 60 53 75
3 54 63 76
3 54 76 77
3 75 54 77
3 55 58 78
3 72 55 78
3 72 78 79
3 56 57 80
3 57 61 80
3 56 80 58
3 58 80 81
3 78 58 81
3 59 60 82
3 62 59 82
3 60 75 83
3 82 60 83
3 61 62 84
3 62 82 84
3 61 84 80
3 63 85 76
3 66 64 86
3 64 73 86
3 68 65 87
3 87 65 66
3 87 66 86
3 70 67 88
3 88 67 68
3 88 68 89
3 89 68 87
3 71 69 90
3 90 69 70
3 90 70 91
3 91 70 88
3 92 71 93
3 93 71 90
3 74 72 94
3 94 72 79
3 86 73 95
3 95 73 74
3 95 74 96
3 96 74 94
3 97 86 95
3 76 85 99
3 75 77 100
3 83 75 100
3 76 99 101
3 77 76 101
3 77 101 102
3 100 77 102
3 94 79 103
3 78 81 104
3 79 78 104
3 79 104 103
3 80 84 105
3 81 80 105
3 81 105 106
3 104 81 106
3 82 83 107
3 83 100 107
3 82 107 84
3 84 107 108
3 105 84 108
3 85 109 99
3 89 87 110
3 87 86 110
3 110 86 97
3 91 88 111
3 111 88 89
3 111 89 110
3 93 90 112
3 112 90 91
3 112 91 113
3 113 91 111
3 98 92 114
3 114 92 93
3 114 93 115
3 115 93 112
3 116 98 114
3 117 103 118
3 96 94 119
3 94 103 119
3 119 103 117
3 97 95 120
3 120 95 96
3 120 96 119
3 121 110 97
3 121 97 122
3 122 97 120
3 123 119 117
3 124 98 116
3 99 109 125
3 99 125 126
3 101 99 126
3 100 102 127
3 100 127 107
3 101 126 128
3 102 101 128
3 102 128 127
3 104 106 129
3 104 129 103
3 103 129 118
3 105 108 130
3 106 105 130
3 106 130 129
3 107 127 131
3 108 107 131
3 108 131 132
3 108 132 130
3 109 134 125
3 125 134 133
3 113 111 135
3 111 110 135
3 135 110 121
3 115 112 136
3 136 112 113
3 136 113 135
3 116 114 137
3 137 114 115
3 137 115 138
3 138 115 136
3 139 124 116
3 139 116 140
3 140 116 137
3 141 135 121
3 118 129 142
3 118 142 143
3 117 118 143
3 123 117 143
3 122 120 144
3 120 119 144
3 144 119 123
3 141 121 145
3 145 121 122
3 145 122 144
3 146 141 145
3 147 144 123
3 147 123 148
3 143 148 123
3 150 124 139
3 149 150 139
3 131 127 151
3 125 133 152
3 126 125 152
3 126 152 153
3 128 126 153
3 128 153 154
3 128 154 127
3 127 154 151
3 152 133 155
3 130 132 156
3 130 156 129
3 129 156 142
3 131 151 157
3 132 131 157
3 132 157 156
3 156 158 142
3 157 151 159
3 133 160 155
3 134 161 133
3 133 161 160
3 138 136 162
3 136 135 162
3 162 135 141
3 140 137 163
3 163 137 138
3 163 138 162
3 149 139 164
3 164 139 140
3 164 140 165
3 165 140 163
3 166 149 164
3 167 162 141
3 167 141 146
3 142 158 168
3 143 142 168
3 143 168 148
3 146 145 169
3 145 144 169
3 169 144 147
3 170 167 146
3 170 146 169
3 171 169 147
3 171 147 148
3 171 148 172
3 168 172 148
3 173 149 166
3 174 150 149
3 173 174 149
3 154 175 151
3 151 175 159
3 152 155 176
3 153 152 176
3 153 176 177
3 153 177 154
3 154 177 175
3 155 160 178
3 155 178 179
3 176 155 179
3 156 157 180
3 156 180 158
3 157 159 181
3 157 181 180
3 158 180 182
3 158 182 168
3 159 175 183
3 159 183 181
3 175 184 183
3 160 186 178
3 178 186 185
3 161 187 160
3 160 187 186
3 165 163 188
3 163 162 188
3 188 162 167
3 166 164 189
3 189 164 165
3 189 165 188
3 190 173 166
3 190 166 191
3 191 166 189
3 192 188 167
3 192 167 170
3 193 192 170
3 182 194 168
3 194 172 168
3 193 170 195
3 170 169 195
3 195 169 171
3 196 195 171
3 196 171 172
3 194 197 172
3 197 198 172
3 198 196 172
3 200 173 190
3 199 200 190
3 201 174 173
3 200 201 173
3 176 179 202
3 177 176 202
3 177 202 175
3 175 202 184
3 178 185 203
3 178 203 179
3 179 203 202
3 203 185 204
3 202 205 184
3 183 206 181
3 180 181 206
3 180 206 182
3 182 206 194
3 183 184 207
3 205 207 184
3 183 207 206
3 185 208 204
3 186 209 185
3 185 209 208
3 187 210 186
3 186 210 209
3 191 189 211
3 189 188 211
3 211 188 192
3 199 190 212
3 212 190 191
3 212 191 211
3 213 199 212
3 214 211 192
3 214 192 193
3 215 214 193
3 215 193 195
3 206 216 194
3 216 197 194
3 216 217 197
3 215 195 218
3 218 195 196
3 198 218 196
3 217 219 197
3 219 218 198
3 197 219 198
3 220 199 213
3 221 200 199
3 220 221 199
3 222 201 200
3 221 222 200
3 203 204 223
3 203 223 202
3 202 223 205
3 204 208 224
3 204 224 223
3 205 223 225
3 205 225 207
3 207 225 226
3 207 226 206
3 226 216 206
3 208 228 224
3 224 228 227
3 209 229 208
3 229 228 208
3 210 230 209
3 209 230 229
3 213 212 231
3 212 211 231
3 231 211 214
3 232 220 213
3 232 213 231
3 233 231 214
3 233 214 215
3 234 233 215
3 234 215 218
3 226 235 216
3 235 217 216
3 235 236 217
3 217 236 219
3 237 234 218
3 237 218 219
3 236 238 219
3 238 237 219
3 240 220 232
3 239 240 232
3 241 221 220
3 240 241 220
3 242 222 221
3 241 242 221
3 224 227 243
3 224 243 223
3 223 243 225
3 225 243 244
3 225 244 226
3 226 244 235
3 227 245 243
3 228 246 227
3 227 246 245
3 229 247 228
3 228 247 246
3 230 248 229
3 229 248 247
3 239 232 249
3 232 231 249
3 249 231 233
3 250 249 233
3 250 233 234
3 237 250 234
3 244 251 235
3 235 251 236
3 251 252 236
3 236 252 238
3 252 253 238
3 253 250 237
3 253 237 238
3 254 239 249
3 255 240 239
3 254 255 239
3 256 241 240
3 255 256 240
3 257 242 241
3 256 257 241
3 245 258 243
3 243 258 244
3 244 258 251
3 245 259 258
3 246 260 245
3 245 260 259
3 247 261 246
3 246 261 260
3 248 262 247
3 247 262 261
3 254 249 263
3 263 249 250
3 253 263 250
3 258 264 251
3 251 264 252
3 264 265 252
3 265 263 253
3 252 265 253
3 266 254 263
3 267 255 254
3 266 267 254
3 268 256 255
3 267 268 255
3 269 257 256
3 268 269 256
3 259 270 258
3 270 264 258
3 260 271 259
3 259 271 270
3 261 272 260
3 260 272 271
3 262 273 261
3 273 272 261
3 270 274 264
3 275 266 263
3 275 263 265
3 274 276 264
3 276 265 264
3 276 277 265
3 277 275 265
3 278 267 266
3 275 278 266
3 279 268 267
3 278 279 267
3 280 269 268
3 279 280 268
3 271 281 270
3 270 281 274
3 272 282 271
3 271 282 281
3 273 283 272
3 272 283 282
3 281 284 274
3 274 284 276
3 285 278 275
3 277 285 275
3 284 286 276
3 286 285 277
3 276 286 277
3 287 279 278
3 285 287 278
3 288 280 279
3 287 288 279
3 282 289 281
3 281 289 284
3 283 290 282
3 282 290 289
3 289 291 284
3 284 291 286
3 291 292 286
3 292 287 285
3 286 292 285
3 293 288 287
3 292 293 287
3 290 294 289
3 289 294 291
3 294 295 291
3 295 293 292
3 291 295 292
CELL_TYPES 542
5
5
5
5
5
5
5
5
5
5
5
5
5
5
5
5
5
5
5
5
5
5
5
5
5
5
5
5
5
5
5
5
5
5
5
5
5
5
5
5
5
5
5
5
5
5
5
5
5
5
5
5
5
5
5
5
5
5
5
5
5
5
5
5
5
5
5
5
5
5
5
5
5
5
5
5
5
5
5
5
5
5
5
5
5
5
5
5
5
5
5
5
5
5
5
5
5
5
5
5
5
5
5
5
5
5
5
5
5
5
5
5
5
5
5
5
5
5
5
5
5
5
5
5
5
5
5
5
5
5
5
5
5
5
5
5
5
5
5
5
5
5
5
5
5
5
5
5
5
5
5
5
5
5
5
5
5
5
5
5
5
5
5
5
5
5
5
5
5
5
5
5
5
5
5
5
5
5
5
5
5
5
5
5
5
5
5
5
5
5
5
5
5
5
5
5
5
5
5
5
5
5
5
5
5
5
5
5
5
5
5
5
5
5
5
5
5
5
5
5
5
5
5
5
5
5
5
5
5
5
5
5
5
5
5
5
5
5
5
5
5
5
5
5
5
5
5
5
5
5
5
5
5
5
5
5
5
5
5
5
5
5
5
5
5
5
5
5
5
5
5
5
5
5
5
5
5
5
5
5
5
5
5
5
5
5
5
5
5
5
5
5
5
5
5
5
5
5
5
5
5
5
5
5
5
5
5
5
5
5
5
5
5
5
5
5
5
5
5
5
5
5
5
5
5
5
5
5
5
5
5
5
5
5
5
5
5
5
5
5
5
5
5
5
5
5
5
5
5
5
5
5
5
5
5
5
5
5
5
5
5
5
5
5
5
5
5
5
5
5
5
5
5
5
5
5
5
5
5
5
5
5
5
5
5
5
5
5
5
5
5
5
5
5
5
5
5
5
5
5
5
5
5
5
5
5
5
5
5
5
5
5
5
5
5
5
5
5
5
5
5
5
5
5
5
5
5
5
5
5
5
5
5
5
5
5
5
5
5
5
5
5
5
5
5
5
5
5
5
5
5
5
5
5
5
5
5
5
5
5
5
5
5
5
5
5
5
5
5
5
5
5
5
5
5
5
5
5
5
5
5
5
5
5
5
5
5
5
5
5
5
5
5
5
5
5
5
5
5
5
5
5
5
5
5
5
5
5
5
5
5
5
5
5
5
5
5
5
5
5
5
5
5
5
5
5
5
5
5
5
5
5
5
5
5
5
5
5
5
5
5
5
POINT_DATA 296
SCALARS concentrations float 4
LOOKUP_TABLE default
0 1.00055 0.0885799 124.664
0 1.00053 0.0879688 39.9051
0 1.00049 0.0868199 10.4526
0 1.00051 0.0908934 26.8671
0 1.00047 0.0815636 3.3518
0 1.00029 0.0853816 31.3031
0 1.00027 0.0885842 24.3138
0 1.00053 0.0812731 2.86141
0 1.0004 0.0812633 3.20742
0 1.00012 0.0879674 18.1648
0 0.999904 0.0897024 176.954
0 1.0003 0.088723 104.415
0 1.00026 0.0879305 35.6998
0 1.00047 0.081701 6.09685
0 1.00037 0.0816081 6.37479
0 1.00039 0.0814643 2.28342
0 1.00042 0.0813279 1.16861
0 1.00029 0.0815807 7.5278
0 1.00025 0.0816438 9.4242
0 1.00041 0.0812732 2.25874
0 1.00036 0.0813689 4.52459
0 1.00012 0.0910144 56.3525
0 1.0004 0.0886868 28.1291
0 1.00008 0.081387 6.15753
0 1.00007 0.0816021 7.37827
0 1.00024 0.081237 3.43014
0 1.00011 0.0874613 92.5288
0 1.00017 0.081359 4.95303
0 0.999815 0.0881102 138.665
0 1.00034 0.0814412 1.97994
0 1.00026 0.0813383 1.19764
0 1.00031 0.0813626 1.05271
0 1.00037 0.0837709 11.801
0 1.00034 0.0813105 0.845682
0 1.00037 0.0812819 1.16268
0 1.00032 0.0814516 5.78371
0 1.00025 0.0814092 5.34248
0 1.00035 0.0812627 1.92005
0 1.00034 0.0813244 3.37654
0 1.00031 0.0819782 11.5225
0 1.0004 0.0816463 6.06391
0 1.00023 0.0813771 4.40629
0 1.00028 0.081472 4.7863
0 1.00037 0.0852527 20.4025
0 1.00016 0.0812447 0.574114
0 0.999952 0.0812363 4.38378
0 1.00004 0.0812428 1.28561
0 0.999687 0.0874033 137.635
0 0.999767 0.0813601 5.10934
0 0.999596 0.0864949 38.0563
0 1.00025 0.0813071 0.829169
0 1.00019 0.081269 0.682641
0 1.00027 0.0812037 0.663228
0 1.00036 0.0814272 5.17939
0 1.0004 0.0815527 5.90307
0 1.00032 0.0811798 0.478897
0 1.00032 0.0812928 2.94385
0 1.0003 0.081317 3.31504
0 1.00033 0.0811704 0.688327
0 1.00036 0.0815735 5.90524
0 1.00039 0.081496 4.2141
0 1.00032 0.0813054 2.66045
0 1.00035 0.081383 3.13282
0 1.00044 0.0876508 42.9264
0 1.00011 0.081209 0.565772
0 0.999904 0.0812256 1.52941
0 1.00002 0.0812224 0.465387
0 0.999676 0.0815798 7.11201
0 0.999811 0.081377 2.66322
0 0.999624 0.0888803 39.3407
0 0.999651 0.0817052 7.00983
0 0.999641 0.0864971 138.063
0 1.00028 0.0811613 0.664735
0 1.00019 0.081175 0.716448
0 1.00023 0.0811682 0.833155
0 1.00038 0.0814493 3.3827
0 1.00041 0.0815422 5.6007
0 1.00037 0.0814228 2.593
0 1.00031 0.0811483 0.659993
0 1.00029 0.0811468 0.834762
0 1.00033 0.0811684 0.945821
0 1.00032 0.0811469 0.791434
0 1.00036 0.0813327 2.03128
0 1.00037 0.0813494 1.70195
0 1.00034 0.0811787 0.713666
0 1.00042 0.0887059 159.85
0 1.0001 0.0811736 1.15699
0 0.999973 0.0812663 1.54228
0 0.999774 0.081517 3.95948
0 0.999913 0.0813779 2.84743
0 0.999682 0.08154 5.81164
0 0.999783 0.0814966 4.10275
0 0.999832 0.08752 96.8426
0 0.999752 0.0812645 3.02499
0 1.00026 0.0811456 0.995407
0 1.00018 0.0811774 1.23564
0 1.00023 0.0811652 1.24364
0 1.00014 0.0811881 1.67885
0 1.00011 0.0901137 2.27133
0 1.00036 0.0812503 2.91462
0 1.00035 0.0813104 1.2287
0 1.00034 0.0813368 0.767743
0 1.00032 0.0813036 0.964644
0 1.00029 0.0811022 1.05109
0 1.0003 0.0811304 0.84661
0 1.00032 0.0811452 0.890145
0 1.00031 0.081141 0.931312
0 1.00033 0.0811969 0.810351
0 1.00032 0.0811405 0.70103
0 1.00036 0.0886281 23.2511
0 1.00005 0.0812207 2.07951
0 0.999934 0.0813869 3.28628
0 0.999828 0.0813569 2.71132
0 0.999924 0.0813838 3.17955
0 0.999977 0.0814991 1.79308
0 0.999915 0.0812859 1.01092
0 1.00002 0.0814249 2.56034
0 1.00029 0.0810919 1.38773
0 1.0003 0.0810752 1.17847
0 1.00026 0.0811089 1.36578
0 1.00021 0.0811628 1.56479
0 1.00012 0.0811878 2.05723
0 1.00019 0.0811845 1.95706
0 1.00028 0.0810877 1.57782
0 0.999912 0.0882279 137.017
0 1.00033 0.0814319 3.52743
0 1.00029 0.081281 0.828641
0 1.0003 0.0811942 0.863779
0 1.00028 0.0812617 0.45857
0 1.0003 0.0810868 0.875731
0 1.00031 0.0811191 0.909112
0 1.0003 0.0811338 0.691517
0 1.0003 0.081103 0.785038
0 1.00029 0.0814466 2.58183
0 1.00036 0.0882046 43.3891
0 1.00005 0.0812233 2.4021
0 0.999985 0.0812951 2.20557
0 0.999971 0.0812949 0.205816
0 1 0.0812767 1.34882
0 0.999768 0.0813661 5.52991
0 0.999929 0.0813056 1.09941
0 1.00014 0.0811914 2.31733
0 1.00031 0.0810395 1.00192
0 1.0003 0.081034 1.36225
0 1.00025 0.0811218 1.76886
0 1.00021 0.0811729 2.14156
0 1.00021 0.0811899 2.13351
0 1.00029 0.0810938 1.74305
0 1.00031 0.0810396 1.51275
0 0.999584 0.0817573 9.40748
0 0.999558 0.0858112 156.359
0 1.00027 0.0811273 0.554953
0 1.00025 0.0813191 1.59572
0 1.00024 0.0812774 0.484736
0 1.00025 0.0811807 0.344418
0 1.00017 0.081426 2.66962
0 1.0003 0.0810619 0.734879
0 1.00029 0.0810906 0.581419
0 1.0003 0.0810267 0.854174
0 1.00026 0.0811417 0.394328
0 1.00012 0.0814712 4.96803
0 1.00026 0.0883398 108.164
0 1.00008 0.0811954 2.05907
0 1.00003 0.0812452 1.11278
0 0.99984 0.0814346 3.66107
0 0.999997 0.0812905 1.73134
0 0.99982 0.0815444 4.44767
0 1.00016 0.0811913 1.91744
0 1.00031 0.0809953 1.12855
0 1.00027 0.0811316 1.92704
0 1.00024 0.0811868 1.78852
0 1.0003 0.0810949 1.79966
0 1.00032 0.0810444 1.45472
0 0.999612 0.0817072 6.99455
0 0.999448 0.0893822 20.1826
0 1.00023 0.0811558 0.288136
0 1.00019 0.0812935 1.18804
0 1.00021 0.0812182 0.436522
0 1.00007 0.0814664 3.1493
0 1.00014 0.0813292 1.751
0 1.00029 0.0810447 0.480356
0 1.00027 0.0810808 0.448477
0 1.0003 0.0810288 0.70784
0 1.00025 0.0811269 0.388529
0 1.00021 0.0811928 0.399089
0 0.99999 0.0815392 3.96335
0 0.999926 0.0814517 4.56409
0 0.999989 0.0880445 36.448
0 1.00011 0.0811905 1.68891
0 1.00002 0.0813233 2.61049
0 0.999884 0.0815641 4.0633
0 1.00002 0.0814275 3.43504
0 1.0002 0.0811989 1.5206
0 1.00027 0.0812026 1.52078
0 1.00031 0.0810334 0.985342
0 1.0003 0.0811422 1.72288
0 1.00032 0.0811128 1.7078
0 1.00032 0.0810891 1.19196
0 1.00033 0.0811113 1.43434
0 0.999974 0.0814658 2.07158
0 0.999755 0.0816087 2.89118
0 0.999572 0.084548 19.686
0 1.00017 0.0812036 0.663769
0 1.00011 0.0813467 1.87576
0 1.00007 0.0814692 2.92113
0 1.00019 0.0811967 0.421794
0 1.00028 0.081062 0.447642
0 1.00024 0.0811424 0.421222
0 0.999989 0.0816029 4.16436
0 0.999856 0.0815779 4.20371
0 0.999816 0.0878883 79.7445
0 1.00015 0.0812051 1.63784
0 1.00009 0.0813607 2.36085
0 1.00012 0.0813956 1.99935
0 1.00024 0.0811896 1.1229
0 1.0003 0.0811895 1.3189
0 1.0003 0.0811137 0.90534
0 1.00031 0.0811733 0.95569
0 1.00032 0.0811517 1.4564
0 1.00033 0.081164 1.10872
0 1.00004 0.0814707 2.35161
0 0.999901 0.0814369 0.354058
0 0.999768 0.0877286 108.982
0 1.00016 0.0812232 0.923028
0 1.00011 0.0814073 2.62413
0 1.00021 0.0811633 0.271518
0 1.00026 0.0811349 0.548571
0 1.00012 0.0814599 3.28121
0 1.00003 0.0816703 5.33031
0 0.999951 0.0817862 5.97129
0 0.999835 0.0889326 125.636
0 1.00021 0.081176 0.772026
0 1.00017 0.0813583 2.01612
0 1.00027 0.0811692 0.874475
0 1.00031 0.0812028 1.12691
0 1.00028 0.0811783 0.637094
0 1.0003 0.081209 0.951683
0 1.00032 0.0812107 1.04025
0 1.00031 0.0812381 1.00284
0 1.00016 0.0814803 3.99116
0 1.00005 0.0815653 4.02851
0 0.999955 0.0815435 3.01777
0 0.999904 0.0882916 88.2919
0 1.00018 0.0811718 0.523523
0 1.00024 0.0811427 0.436406
0 1.00016 0.0813981 2.22846
0 1.00007 0.0816144 4.87516
0 1 0.0818071 6.7812
0 1 0.0887628 71.6196
0 1.00024 0.081185 0.753129
0 1.00028 0.0811989 0.787842
0 1.00026 0.081161 0.876377
0 1.00027 0.081211 1.05031
0 1.00028 0.0812196 0.999583
0 1.00017 0.0814599 4.2633
0 1.00004 0.081694 6.15448
0 0.999907 0.0817793 5.39308
0 0.999881 0.0870534 92.2657
0 1.00021 0.0812271 0.407746
0 1.00015 0.0814916 2.32515
0 1.00008 0.0815709 4.32982
0 0.999999 0.081745 5.91177
0 0.999948 0.0891463 57.1782
0 1.00023 0.0812344 1.14553
0 1.00021 0.0812811 0.755154
0 1.00021 0.0812701 0.838319
0 1.00012 0.0815559 5.31338
0 1.00001 0.0817967 7.6462
0 0.999902 0.0818396 7.28968
0 0.999816 0.0892827 65.9863
0 1.00014 0.0814871 1.45285
0 1.00005 0.0816135 3.97472
0 1.00003 0.0815079 4.36946
0 1.00001 0.089397 55.2725
0 1.00008 0.0815707 2.58337
0 1.00011 0.0814767 3.99205
0 1.00008 0.081482 2.06619
0 1.00005 0.0815125 3.5347
0 0.999931 0.0817282 6.67646
0 0.999817 0.0819254 8.76615
0 0.999835 0.0863175 6.88854
0 0.999927 0.0817101 4.71898
0 0.999839 0.0817378 5.61347
0 0.99993 0.0895117 30.5729
0 0.999825 0.0816857 4.7123
0 0.999842 0.0816069 4.80604
0 0.999794 0.081573 3.95122
0 0.999616 0.0818375 7.15933
0 0.999608 0.0917609 59.1764
0 0.999571 0.0817621 5.35971
0 0.999575 0.0866263 93.0373
0 0.999461 0.0815925 4.20443
0 0.9995 0.0814496 1.87598
0 0.999404 0.0851403 139.229
0 0.99932 0.0867723 120.053
0 0.999302 0.0855757 60.7304
VECTORS fa_u float
0.00612814 0.00255967 -0
0.00502232 0.00289825 -0
0.00677882 0.00181603 -0
0.00661618 0.000849453 -0
1e-08 0 0
0.00552309 0.00422178 -0
0.00479181 0.00480671 -0
1e-08 0 0
1e-08 0 0
0.00408383 0.00536566 -0
0.00263533 0.00454643 -0
0.00561986 4.37845e-06 -0
0.00738299 -0.000964285 0
1e-08 0 0
1e-08 0 0
1e-08 0 0
1e-08 0 0
1e-08 0 0
1e-08 0 0
1e-08 0 0
1e-08 0 0
0.00281405 0.00670223 -0
0.00178941 0.00670096 -0
1e-08 0 0
1e-08 0 0
1e-08 0 0
0.00643858 -0.00175402 0
1e-08 0 0
0.00531888 -0.00220893 0
1e-08 0 0
1e-08 0 0
1e-08 0 0
0.000779207 0.00592095 -0
1e-08 0 0
1e-08 0 0
1e-08 0 0
1e-08 0 0
1e-08 0 0
1e-08 0 0
1e-08 0 0
1e-08 0 0
1e-08 0 0
1e-08 0 0
1.47887e-05 0.00663407 -0
1e-08 0 0
1e-08 0 0
1e-08 0 0
0.00540527 -0.00308781 0
1e-08 0 0
0.00581204 -0.00443883 0
1e-08 0 0
1e-08 0 0
1e-08 0 0
1e-08 0 0
1e-08 0 0
1e-08 0 0
1e-08 0 0
1e-08 0 0
1e-08 0 0
1e-08 0 0
1e-08 0 0
1e-08 0 0
1e-08 0 0
-0.0010299 0.00759797 0
1e-08 0 0
1e-08 0 0
1e-08 0 0
1e-08 0 0
1e-08 0 0
0.00498973 -0.0050332 0
1e-08 0 0
0.00335574 -0.00439026 0
1e-08 0 0
1e-08 0 0
1e-08 0 0
1e-08 0 0
1e-08 0 0
1e-08 0 0
1e-08 0 0
1e-08 0 0
1e-08 0 0
1e-08 0 0
1e-08 0 0
1e-08 0 0
1e-08 0 0
-0.00132755 0.00492049 0
1e-08 0 0
1e-08 0 0
1e-08 0 0
1e-08 0 0
1e-08 0 0
1e-08 0 0
0.00318744 -0.00546553 0
1e-08 0 0
1e-08 0 0
1e-08 0 0
1e-08 0 0
1e-08 0 0
0.00298283 -0.007217 0
1e-08 0 0
1e-08 0 0
1e-08 0 0
1e-08 0 0
1e-08 0 0
1e-08 0 0
1e-08 0 0
1e-08 0 0
1e-08 0 0
1e-08 0 0
-0.00261479 0.00638529 0
1e-08 0 0
1e-08 0 0
1e-08 0 0
1e-08 0 0
1e-08 0 0
1e-08 0 0
1e-08 0 0
1e-08 0 0
1e-08 0 0
1e-08 0 0
1e-08 0 0
1e-08 0 0
1e-08 0 0
1e-08 0 0
0.00151899 -0.00576124 0
1e-08 0 0
1e-08 0 0
1e-08 0 0
1e-08 0 0
1e-08 0 0
1e-08 0 0
1e-08 0 0
1e-08 0 0
1e-08 0 0
-0.00380659 0.00654929 0
1e-08 0 0
1e-08 0 0
1e-08 0 0
1e-08 0 0
1e-08 0 0
1e-08 0 0
1e-08 0 0
1e-08 0 0
1e-08 0 0
1e-08 0 0
1e-08 0 0
1e-08 0 0
1e-08 0 0
1e-08 0 0
1e-08 0 0
0.000758611 -0.00561564 0
1e-08 0 0
1e-08 0 0
1e-08 0 0
1e-08 0 0
1e-08 0 0
1e-08 0 0
1e-08 0 0
1e-08 0 0
1e-08 0 0
1e-08 0 0
-0.00334445 0.00433632 0
1e-08 0 0
1e-08 0 0
1e-08 0 0
1e-08 0 0
1e-08 0 0
1e-08 0 0
1e-08 0 0
1e-08 0 0
1e-08 0 0
1e-08 0 0
1e-08 0 0
1e-08 0 0
1.50013e-05 -0.0077553 0
1e-08 0 0
1e-08 0 0
1e-08 0 0
1e-08 0 0
1e-08 0 0
1e-08 0 0
1e-08 0 0
1e-08 0 0
1e-08 0 0
1e-08 0 0
1e-08 0 0
1e-08 0 0
-0.0049599 0.00496593 0
1e-08 0 0
1e-08 0 0
1e-08 0 0
1e-08 0 0
1e-08 0 0
1e-08 0 0
1e-08 0 0
1e-08 0 0
1e-08 0 0
1e-08 0 0
1e-08 0 0
1e-08 0 0
1e-08 0 0
-0.000789566 -0.00594035 0
1e-08 0 0
1e-08 0 0
1e-08 0 0
1e-08 0 0
1e-08 0 0
1e-08 0 0
1e-08 0 0
1e-08 0 0
-0.00486423 0.00373402 0
1e-08 0 0
1e-08 0 0
1e-08 0 0
1e-08 0 0
1e-08 0 0
1e-08 0 0
1e-08 0 0
1e-08 0 0
1e-08 0 0
1e-08 0 0
1e-08 0 0
-0.00180273 -0.00671164 0
1e-08 0 0
1e-08 0 0
1e-08 0 0
1e-08 0 0
1e-08 0 0
1e-08 0 0
1e-08 0 0
-0.00548148 0.00318781 0
1e-08 0 0
1e-08 0 0
1e-08 0 0
1e-08 0 0
1e-08 0 0
1e-08 0 0
1e-08 0 0
1e-08 0 0
1e-08 0 0
1e-08 0 0
1e-08 0 0
-0.00237508 -0.00571782 0
1e-08 0 0
1e-08 0 0
1e-08 0 0
1e-08 0 0
1e-08 0 0
-0.00700422 0.00289306 0
1e-08 0 0
1e-08 0 0
1e-08 0 0
1e-08 0 0
1e-08 0 0
1e-08 0 0
1e-08 0 0
1e-08 0 0
-0.00305554 -0.00532515 0
1e-08 0 0
1e-08 0 0
1e-08 0 0
1e-08 0 0
-0.00541954 0.00144455 0
1e-08 0 0
1e-08 0 0
1e-08 0 0
1e-08 0 0
1e-08 0 0
1e-08 0 0
-0.00441893 -0.00577082 0
1e-08 0 0
1e-08 0 0
1e-08 0 0
-0.00669964 0.000897698 0
1e-08 0 0
1e-08 0 0
1e-08 0 0
1e-08 0 0
1e-08 0 0
1e-08 0 0
-0.00435149 -0.00434522 0
1e-08 0 0
1e-08 0 0
-0.00656089 6.28304e-06 0
1e-08 0 0
1e-08 0 0
1e-08 0 0
1e-08 0 0
-0.00577268 -0.00440738 0
1e-08 0 0
-0.00693054 -0.000923186 0
1e-08 0 0
1e-08 0 0
-0.00483827 -0.00278624 0
-0.0058003 -0.00156145 0
-0.00652429 -0.00271131 0
