# vtk DataFile Version 2.0
CellBP Time: 10.48
ASCII
DATASET UNSTRUCTURED_GRID
POINTS 296 double
-8.93039 -3.664 0
-8.3635 -4.80505 0
-9.32514 -2.45252 0
-9.58722 -1.21421 0
-8.25941 -2.7754 0
-7.65769 -5.86771 0
-6.81193 -6.8206 0
-7.8196 -3.81993 0
-7.24928 -4.80721 0
-5.86688 -7.66627 0
-4.81858 -8.37549 0
-9.67599 0.0468153 0
-9.60301 1.31621 0
-8.56659 -1.65854 0
-8.70231 -0.52158 0
-7.49437 -1.96972 0
-7.128 -2.85878 0
-6.56168 -5.71935 0
-5.76446 -6.53864 0
-6.69646 -3.83111 0
-6.13905 -4.61728 0
-3.67844 -8.93997 0
-2.47061 -9.35424 0
-4.86676 -7.25206 0
-3.89115 -7.83117 0
-8.7155 0.633866 0
-9.36317 2.57183 0
-8.55356 1.7537 0
-8.95068 3.77657 0
-7.65554 -0.91108 0
-7.71174 0.0830918 0
-6.86741 -1.29228 0
-1.21514 -9.59529 0
-6.36376 -2.1207 0
-6.24036 -3.01165 0
-5.47117 -5.41698 0
-4.7459 -6.05907 0
-5.58891 -3.70903 0
-5.20183 -4.50705 0
-2.84833 -8.3038 0
-1.76374 -8.57469 0
-3.89482 -6.66859 0
-3.03833 -7.09919 0
0.0526139 -9.67707 0
-7.62871 1.13104 0
-8.27963 2.89409 0
-7.48073 2.08687 0
-8.37688 4.91197 0
-7.81153 3.94186 0
-7.65724 5.96356 0
-6.70121 -0.38727 0
-6.87924 0.549829 0
-5.71311 -0.991231 0
-0.584842 -8.73572 0
0.555692 -8.68669 0
-5.24855 -2.45006 0
-4.43668 -5.04069 0
-3.86029 -5.7206 0
-4.39328 -3.76524 0
-2.04686 -7.50307 0
-1.12697 -7.72013 0
-2.96681 -6.04892 0
-2.29304 -6.56677 0
1.31381 -9.57927 0
-6.62166 1.40551 0
-7.10023 3.08417 0
-6.59277 2.34697 0
-7.22278 4.93827 0
-6.65013 3.95868 0
-6.81607 6.91253 0
-6.50673 5.83176 0
-5.86249 7.75409 0
-4.4223 -1.17417 0
-5.76187 0.504808 0
-4.62478 -0.0171236 0
0.00158921 -7.77176 0
1.71179 -8.54961 0
0.928736 -7.67888 0
-4.01012 -2.38605 0
-3.47449 -1.38701 0
-3.26551 -4.76258 0
-3.24748 -3.24303 0
-1.372 -6.61549 0
-0.512532 -6.95596 0
-1.96198 -5.49349 0
2.55897 -9.32592 0
-5.45729 2.01898 0
-6.0334 3.03758 0
-6.04236 4.81421 0
-5.70173 3.94332 0
-5.70212 6.64275 0
-5.3948 5.5537 0
-4.81831 8.48037 0
-4.78673 7.32065 0
-3.48664 -0.423268 0
-4.4159 1.23948 0
-3.69007 0.588715 0
-4.02982 2.30904 0
-3.67953 9.04129 0
2.81901 -8.2296 0
0.402042 -6.71873 0
1.98592 -7.43251 0
1.27677 -6.82052 0
-2.43888 -0.869244 0
-2.82918 -2.12067 0
-2.2828 -4.06789 0
-2.31611 -2.95554 0
-0.445993 -5.80446 0
-1.21314 -4.46782 0
3.76886 -8.93217 0
-4.74457 3.35914 0
-5.03479 4.53965 0
-4.59642 6.20583 0
-4.49032 5.29548 0
-3.80894 7.91478 0
-3.78268 6.76089 0
-2.75373 8.33474 0
-1.64657 -0.13371 0
-1.44693 -0.886602 0
-2.48398 0.511009 0
-3.23501 1.44064 0
-3.21417 3.29371 0
-2.89338 2.36642 0
-1.35486 0.631193 0
-2.47168 9.44395 0
3.87881 -7.78843 0
2.91377 -7.05717 0
0.933311 -5.75584 0
2.03626 -6.33083 0
-1.67704 -1.98549 0
-1.42667 -3.25849 0
0.0862544 -4.70585 0
-0.55987 -3.67273 0
4.87024 -7.22492 0
4.90546 -8.36564 0
-3.74114 4.50525 0
-3.69546 5.68589 0
-2.85349 7.20472 0
-2.97725 6.28139 0
-1.6448 8.65066 0
-1.91628 7.53934 0
-2.32289 4.02155 0
-0.728502 -1.32377 0
-0.836366 -0.253961 0
-1.9339 1.68387 0
-2.11679 2.86642 0
-1.30368 3.52828 0
-0.871887 1.35469 0
-0.284636 0.459274 0
-0.52778 8.79594 0
-1.21997 9.69036 0
1.09703 -4.52907 0
3.84811 -6.61481 0
2.94033 -6.00911 0
2.08487 -5.35732 0
4.72214 -6.11607 0
-0.554932 -2.4676 0
0.493298 -3.44207 0
0.0542475 -1.60754 0
1.46654 -3.64936 0
5.80257 -6.53158 0
5.95779 -7.64955 0
-2.45328 5.29596 0
-2.10507 6.46354 0
-0.891458 7.72975 0
-1.25345 6.85987 0
0.0884429 7.81334 0
-1.13826 4.46317 0
0.148873 -0.614713 0
-0.801692 2.48909 0
-0.337238 3.58825 0
0.0582593 1.51458 0
0.736781 0.474522 0
0.640413 8.80665 0
0.0471295 9.77531 0
2.35135 -4.23586 0
3.80578 -5.55893 0
2.95911 -5.14298 0
5.51371 -5.42028 0
4.63269 -5.20521 0
0.630157 -2.28857 0
1.24773 -2.93291 0
0.755905 -1.38916 0
2.14528 -3.10946 0
2.96453 -3.44033 0
6.09756 -4.73557 0
6.59383 -5.70581 0
6.91704 -6.80937 0
-1.00788 5.7672 0
-0.36281 6.81803 0
1.11465 7.71042 0
0.557701 7.01985 0
-0.00365758 4.69548 0
0.599008 3.81009 0
1.33478 -0.641327 0
0.531958 2.64519 0
0.959078 1.57486 0
1.90333 0.212692 0
1.60711 1.06391 0
2.11643 7.52879 0
1.78717 8.6496 0
1.31815 9.69608 0
3.77952 -4.2953 0
5.06108 -4.38629 0
5.79178 -3.88684 0
3.74966 -3.16709 0
1.80484 -1.87908 0
2.9965 -2.5551 0
6.72884 -3.90945 0
7.3229 -4.85232 0
7.76364 -5.8633 0
0.482001 5.83495 0
1.42002 6.68979 0
2.36013 6.62052 0
1.20033 4.52932 0
1.47863 3.38102 0
2.42481 -0.69034 0
2.81492 0.142764 0
1.77945 2.15729 0
2.60188 1.14692 0
3.05387 7.11872 0
2.88879 8.31851 0
2.57328 9.45683 0
4.86589 -3.28708 0
6.06996 -3.07423 0
4.14204 -2.25775 0
3.22513 -1.49656 0
6.68337 -2.29552 0
7.18091 -3.02084 0
7.91024 -3.88703 0
8.47912 -4.81858 0
2.01183 5.56007 0
3.05806 6.104 0
2.35226 4.10018 0
2.40884 3.04426 0
3.5056 -0.456903 0
3.59656 0.614217 0
2.94652 2.27638 0
3.52336 1.51807 0
3.9693 5.84636 0
3.95105 6.74015 0
3.95157 7.88409 0
3.78084 9.0426 0
5.52834 -1.90013 0
4.47973 -1.12089 0
6.66268 -1.32456 0
7.53854 -2.02016 0
8.33953 -2.84316 0
9.04946 -3.68332 0
3.38397 4.83511 0
3.31169 3.35951 0
4.65936 0.132567 0
4.48137 1.2992 0
4.02775 2.42254 0
4.51324 5.1005 0
4.79338 6.13655 0
4.94046 7.3241 0
4.92466 8.48472 0
5.8348 -0.433245 0
6.95053 -0.487136 0
7.70167 -1.0731 0
8.62308 -1.73004 0
9.44317 -2.46841 0
4.49961 3.78852 0
5.75875 1.08208 0
5.30927 2.50399 0
5.30781 4.56753 0
5.5455 5.46827 0
5.83859 6.61429 0
5.97078 7.77131 0
6.77771 0.451034 0
7.78541 -0.027545 0
8.79353 -0.574644 0
9.70663 -1.21662 0
6.88325 1.32535 0
5.64584 3.73162 0
6.46158 2.16313 0
6.2964 3.04403 0
6.20883 4.63094 0
6.6159 5.77923 0
6.91991 6.92615 0
7.70746 0.951917 0
8.78192 0.566704 0
9.77824 0.0539876 0
7.53013 1.97386 0
6.73191 3.8481 0
7.17584 2.90237 0
7.29164 4.83118 0
7.76256 5.96885 0
8.63499 1.70442 0
9.68299 1.31629 0
8.32337 2.79923 0
7.8912 3.86929 0
8.46463 4.90715 0
9.43403 2.56342 0
9.03202 3.76994 0
CELLS 542 2168
3 2 0 4
3 0 1 7
3 4 0 7
3 1 5 8
3 7 1 8
3 3 2 13
3 13 2 4
3 11 3 14
3 14 3 13
3 13 4 15
3 4 7 16
3 15 4 16
3 5 6 17
3 8 5 17
3 6 9 18
3 17 6 18
3 7 8 19
3 16 7 19
3 8 17 20
3 19 8 20
3 9 10 23
3 18 9 23
3 10 21 24
3 23 10 24
3 12 11 25
3 25 11 14
3 26 12 27
3 27 12 25
3 14 13 29
3 29 13 15
3 25 14 30
3 30 14 29
3 29 15 31
3 15 16 33
3 31 15 33
3 16 19 34
3 33 16 34
3 17 18 35
3 20 17 35
3 18 23 36
3 35 18 36
3 19 20 37
3 34 19 37
3 20 35 38
3 37 20 38
3 21 22 39
3 24 21 39
3 22 32 40
3 39 22 40
3 23 24 41
3 36 23 41
3 24 39 42
3 41 24 42
3 27 25 44
3 44 25 30
3 28 26 45
3 45 26 27
3 45 27 46
3 46 27 44
3 47 28 48
3 48 28 45
3 30 29 50
3 50 29 31
3 44 30 51
3 51 30 50
3 50 31 52
3 31 33 52
3 32 43 53
3 40 32 53
3 53 43 54
3 33 34 55
3 34 37 55
3 33 55 52
3 35 36 56
3 38 35 56
3 36 41 57
3 56 36 57
3 37 38 58
3 38 56 58
3 37 58 55
3 39 40 59
3 42 39 59
3 40 53 60
3 59 40 60
3 41 42 61
3 57 41 61
3 42 59 62
3 61 42 62
3 43 63 54
3 46 44 64
3 64 44 51
3 48 45 65
3 65 45 46
3 65 46 66
3 66 46 64
3 49 47 67
3 67 47 48
3 67 48 68
3 68 48 65
3 69 49 70
3 70 49 67
3 52 55 72
3 64 51 73
3 51 50 73
3 50 52 73
3 73 52 74
3 74 52 72
3 53 54 75
3 60 53 75
3 54 63 76
3 54 76 77
3 75 54 77
3 55 58 78
3 72 55 78
3 72 78 79
3 56 57 80
3 57 61 80
3 56 80 58
3 58 80 81
3 78 58 81
3 59 60 82
3 62 59 82
3 60 75 83
3 82 60 83
3 61 62 84
3 62 82 84
3 61 84 80
3 63 85 76
3 66 64 86
3 64 73 86
3 68 65 87
3 87 65 66
3 87 66 86
3 70 67 88
3 88 67 68
3 88 68 89
3 89 68 87
3 71 69 90
3 90 69 70
3 90 70 91
3 91 70 88
3 92 71 93
3 93 71 90
3 74 72 94
3 94 72 79
3 86 73 95
3 95 73 74
3 95 74 96
3 96 74 94
3 97 86 95
3 76 85 99
3 75 77 100
3 83 75 100
3 76 99 101
3 77 76 101
3 77 101 102
3 100 77 102
3 94 79 103
3 78 81 104
3 79 78 104
3 79 104 103
3 80 84 105
3 81 80 105
3 81 105 106
3 104 81 106
3 82 83 107
3 83 100 107
3 82 107 84
3 84 107 108
3 105 84 108
3 85 109 99
3 89 87 110
3 87 86 110
3 110 86 97
3 91 88 111
3 111 88 89
3 111 89 110
3 93 90 112
3 112 90 91
3 112 91 113
3 113 91 111
3 98 92 114
3 114 92 93
3 114 93 115
3 115 93 112
3 116 98 114
3 117 103 118
3 96 94 119
3 94 103 119
3 119 103 117
3 97 95 120
3 120 95 96
3 120 96 119
3 121 110 97
3 121 97 122
3 122 97 120
3 123 119 117
3 124 98 116
3 99 109 125
3 99 125 126
3 101 99 126
3 100 102 127
3 100 127 107
3 101 126 128
3 102 101 128
3 102 128 127
3 104 106 129
3 104 129 103
3 103 129 118
3 105 108 130
3 106 105 130
3 106 130 129
3 107 127 131
3 108 107 131
3 108 131 132
3 108 132 130
3 109 134 125
3 125 134 133
3 113 111 135
3 111 110 135
3 135 110 121
3 115 112 136
3 136 112 113
3 136 113 135
3 116 114 137
3 137 114 115
3 137 115 138
3 138 115 136
3 139 124 116
3 139 116 140
3 140 116 137
3 141 135 121
3 118 129 142
3 118 142 143
3 117 118 143
3 123 117 143
3 122 120 144
3 120 119 144
3 144 119 123
3 141 121 145
3 145 121 122
3 145 122 144
3 146 141 145
3 147 144 123
3 147 123 148
3 143 148 123
3 150 124 139
3 149 150 139
3 131 127 151
3 125 133 152
3 126 125 152
3 126 152 153
3 128 126 153
3 128 153 154
3 128 154 127
3 127 154 151
3 152 133 155
3 130 132 156
3 130 156 129
3 129 156 142
3 131 151 157
3 132 131 157
3 132 157 156
3 156 158 142
3 157 151 159
3 133 160 155
3 134 161 133
3 133 161 160
3 138 136 162
3 136 135 162
3 162 135 141
3 140 137 163
3 163 137 138
3 163 138 162
3 149 139 164
3 164 139 140
3 164 140 165
3 165 140 163
3 166 149 164
3 167 162 141
3 167 141 146
3 142 158 168
3 143 142 168
3 143 168 148
3 146 145 169
3 145 144 169
3 169 144 147
3 170 167 146
3 170 146 169
3 171 169 147
3 171 147 148
3 171 148 172
3 168 172 148
3 173 149 166
3 174 150 149
3 173 174 149
3 154 175 151
3 151 175 159
3 152 155 176
3 153 152 176
3 153 176 177
3 153 177 154
3 154 177 175
3 155 160 178
3 155 178 179
3 176 155 179
3 156 157 180
3 156 180 158
3 157 159 181
3 157 181 180
3 158 180 182
3 158 182 168
3 159 175 183
3 159 183 181
3 175 184 183
3 160 186 178
3 178 186 185
3 161 187 160
3 160 187 186
3 165 163 188
3 163 162 188
3 188 162 167
3 166 164 189
3 189 164 165
3 189 165 188
3 190 173 166
3 190 166 191
3 191 166 189
3 192 188 167
3 192 167 170
3 193 192 170
3 182 194 168
3 194 172 168
3 193 170 195
3 170 169 195
3 195 169 171
3 196 195 171
3 196 171 172
3 194 197 172
3 197 198 172
3 198 196 172
3 200 173 190
3 199 200 190
3 201 174 173
3 200 201 173
3 176 179 202
3 177 176 202
3 177 202 175
3 175 202 184
3 178 185 203
3 178 203 179
3 179 203 202
3 203 185 204
3 202 205 184
3 183 206 181
3 180 181 206
3 180 206 182
3 182 206 194
3 183 184 207
3 205 207 184
3 183 207 206
3 185 208 204
3 186 209 185
3 185 209 208
3 187 210 186
3 186 210 209
3 191 189 211
3 189 188 211
3 211 188 192
3 199 190 212
3 212 190 191
3 212 191 211
3 213 199 212
3 214 211 192
3 214 192 193
3 215 214 193
3 215 193 195
3 206 216 194
3 216 197 194
3 216 217 197
3 215 195 218
3 218 195 196
3 198 218 196
3 217 219 197
3 219 218 198
3 197 219 198
3 220 199 213
3 221 200 199
3 220 221 199
3 222 201 200
3 221 222 200
3 203 204 223
3 203 223 202
3 202 223 205
3 204 208 224
3 204 224 223
3 205 223 225
3 205 225 207
3 207 225 226
3 207 226 206
3 226 216 206
3 208 228 224
3 224 228 227
3 209 229 208
3 229 228 208
3 210 230 209
3 209 230 229
3 213 212 231
3 212 211 231
3 231 211 214
3 232 220 213
3 232 213 231
3 233 231 214
3 233 214 215
3 234 233 215
3 234 215 218
3 226 235 216
3 235 217 216
3 235 236 217
3 217 236 219
3 237 234 218
3 237 218 219
3 236 238 219
3 238 237 219
3 240 220 232
3 239 240 232
3 241 221 220
3 240 241 220
3 242 222 221
3 241 242 221
3 224 227 243
3 224 243 223
3 223 243 225
3 225 243 244
3 225 244 226
3 226 244 235
3 227 245 243
3 228 246 227
3 227 246 245
3 229 247 228
3 228 247 246
3 230 248 229
3 229 248 247
3 239 232 249
3 232 231 249
3 249 231 233
3 250 249 233
3 250 233 234
3 237 250 234
3 244 251 235
3 235 251 236
3 251 252 236
3 236 252 238
3 252 253 238
3 253 250 237
3 253 237 238
3 254 239 249
3 255 240 239
3 254 255 239
3 256 241 240
3 255 256 240
3 257 242 241
3 256 257 241
3 245 258 243
3 243 258 244
3 244 258 251
3 245 259 258
3 246 260 245
3 245 260 259
3 247 261 246
3 246 261 260
3 248 262 247
3 247 262 261
3 254 249 263
3 263 249 250
3 253 263 250
3 258 264 251
3 251 264 252
3 264 265 252
3 265 263 253
3 252 265 253
3 266 254 263
3 267 255 254
3 266 267 254
3 268 256 255
3 267 268 255
3 269 257 256
3 268 269 256
3 259 270 258
3 270 264 258
3 260 271 259
3 259 271 270
3 261 272 260
3 260 272 271
3 262 273 261
3 273 272 261
3 270 274 264
3 275 266 263
3 275 263 265
3 274 276 264
3 276 265 264
3 276 277 265
3 277 275 265
3 278 267 266
3 275 278 266
3 279 268 267
3 278 279 267
3 280 269 268
3 279 280 268
3 271 281 270
3 270 281 274
3 272 282 271
3 271 282 281
3 273 283 272
3 272 283 282
3 281 284 274
3 274 284 276
3 285 278 275
3 277 285 275
3 284 286 276
3 286 285 277
3 276 286 277
3 287 279 278
3 285 287 278
3 288 280 279
3 287 288 279
3 282 289 281
3 281 289 284
3 283 290 282
3 282 290 289
3 289 291 284
3 284 291 286
3 291 292 286
3 292 287 285
3 286 292 285
3 293 288 287
3 292 293 287
3 290 294 289
3 289 294 291
3 294 295 291
3 295 293 292
3 291 295 292
CELL_TYPES 542
5
5
5
5
5
5
5
5
5
5
5
5
5
5
5
5
5
5
5
5
5
5
5
5
5
5
5
5
5
5
5
5
5
5
5
5
5
5
5
5
5
5
5
5
5
5
5
5
5
5
5
5
5
5
5
5
5
5
5
5
5
5
5
5
5
5
5
5
5
5
5
5
5
5
5
5
5
5
5
5
5
5
5
5
5
5
5
5
5
5
5
5
5
5
5
5
5
5
5
5
5
5
5
5
5
5
5
5
5
5
5
5
5
5
5
5
5
5
5
5
5
5
5
5
5
5
5
5
5
5
5
5
5
5
5
5
5
5
5
5
5
5
5
5
5
5
5
5
5
5
5
5
5
5
5
5
5
5
5
5
5
5
5
5
5
5
5
5
5
5
5
5
5
5
5
5
5
5
5
5
5
5
5
5
5
5
5
5
5
5
5
5
5
5
5
5
5
5
5
5
5
5
5
5
5
5
5
5
5
5
5
5
5
5
5
5
5
5
5
5
5
5
5
5
5
5
5
5
5
5
5
5
5
5
5
5
5
5
5
5
5
5
5
5
5
5
5
5
5
5
5
5
5
5
5
5
5
5
5
5
5
5
5
5
5
5
5
5
5
5
5
5
5
5
5
5
5
5
5
5
5
5
5
5
5
5
5
5
5
5
5
5
5
5
5
5
5
5
5
5
5
5
5
5
5
5
5
5
5
5
5
5
5
5
5
5
5
5
5
5
5
5
5
5
5
5
5
5
5
5
5
5
5
5
5
5
5
5
5
5
5
5
5
5
5
5
5
5
5
5
5
5
5
5
5
5
5
5
5
5
5
5
5
5
5
5
5
5
5
5
5
5
5
5
5
5
5
5
5
5
5
5
5
5
5
5
5
5
5
5
5
5
5
5
5
5
5
5
5
5
5
5
5
5
5
5
5
5
5
5
5
5
5
5
5
5
5
5
5
5
5
5
5
5
5
5
5
5
5
5
5
5
5
5
5
5
5
5
5
5
5
5
5
5
5
5
5
5
5
5
5
5
5
5
5
5
5
5
5
5
5
5
5
5
5
5
5
5
5
5
5
5
5
5
5
5
5
5
5
5
5
5
5
5
5
5
5
5
5
5
5
5
5
5
5
5
5
5
5
5
5
5
5
5
5
5
5
5
5
5
5
5
5
5
5
5
5
5
5
5
5
5
5
5
5
5
5
5
5
5
5
5
5
5
5
5
5
5
5
5
5
5
POINT_DATA 296
SCALARS concentrations float 4
LOOKUP_TABLE default
0 0.945289 0.102161 54.8264
0 0.9454 0.105175 79.3047
0 0.945213 0.100228 47.7142
0 0.945273 0.100489 116.763
0 0.945311 0.0920654 7.7951
0 0.945649 0.0978878 11.9341
0 0.945808 0.101469 25.808
0 0.945406 0.0920247 7.76079
0 0.945556 0.0919446 6.22625
0 0.9457 0.101982 77.6357
0 0.945373 0.101293 88.6464
0 0.945292 0.102128 106.417
0 0.945285 0.100101 85.2887
0 0.945286 0.0925487 3.27075
0 0.945304 0.0925147 3.05969
0 0.945402 0.0916871 4.45454
0 0.945462 0.0914044 4.84662
0 0.945721 0.0917899 4.52259
0 0.945728 0.092287 2.68993
0 0.945559 0.0911953 3.10738
0 0.945642 0.0911397 1.34287
0 0.945027 0.0951321 30.5381
0 0.944837 0.103771 12.5609
0 0.945531 0.0923295 1.50994
0 0.945252 0.0919876 2.35502
0 0.945301 0.0924923 9.3022
0 0.945101 0.0993105 104.171
0 0.945229 0.0922497 9.37639
0 0.944939 0.106357 20.1802
0 0.945363 0.0918637 3.70924
0 0.945348 0.0917839 2.62539
0 0.945467 0.0915282 3.72439
0 0.945293 0.1003 45.7582
0 0.945515 0.0913442 3.67513
0 0.94556 0.0912167 3.29132
0 0.945665 0.0912791 1.72986
0 0.945587 0.0914739 2.23607
0 0.945604 0.0910193 1.15345
0 0.945626 0.0910781 0.803671
0 0.945019 0.092377 4.44979
0 0.945118 0.0929731 6.87789
0 0.94543 0.0914918 2.06425
0 0.945271 0.0916267 2.72281
0 0.945682 0.102735 4.22985
0 0.945312 0.0915251 0.587118
0 0.945071 0.0924941 9.00717
0 0.945252 0.0914743 2.98755
0 0.945144 0.0982436 59.8862
0 0.945107 0.0920186 7.41127
0 0.945306 0.0986801 1.50209
0 0.94545 0.0914824 2.80728
0 0.945411 0.0914327 1.87797
0 0.945536 0.0911798 1.93259
0 0.945494 0.0924359 6.87067
0 0.94562 0.0919621 4.53696
0 0.94558 0.0910814 1.56367
0 0.945593 0.091209 2.05856
0 0.945522 0.0912985 2.49735
0 0.945594 0.0910422 0.840235
0 0.945242 0.0916469 1.79882
0 0.945365 0.0915546 1.89454
0 0.945452 0.0912854 2.88642
0 0.945378 0.0913479 2.87496
0 0.945615 0.0961768 27.6236
0 0.945404 0.0911846 1.56368
0 0.945232 0.0915479 4.66329
0 0.945366 0.0911892 2.75892
0 0.945261 0.0918832 4.74472
0 0.94529 0.0915312 4.17098
0 0.945628 0.099255 51.6064
0 0.945433 0.0920867 5.27685
0 0.945811 0.106397 64.5153
0 0.945581 0.0910739 1.27851
0 0.945498 0.0911269 1.26118
0 0.945557 0.0910647 1.10597
0 0.945496 0.0912442 1.68567
0 0.945542 0.0914478 3.45575
0 0.945547 0.0912313 2.09407
0 0.945595 0.0910402 1.06289
0 0.945597 0.0910515 1.05025
0 0.945548 0.0911055 1.7958
0 0.945582 0.0910306 1.11227
0 0.945418 0.0911813 1.7271
0 0.945461 0.0911331 0.606382
0 0.945496 0.0910521 1.96306
0 0.945492 0.0963771 2.29894
0 0.945476 0.091021 1.09559
0 0.945396 0.091226 2.29945
0 0.945379 0.0914628 2.72446
0 0.945407 0.0913525 1.93352
0 0.94566 0.0918802 9.91822
0 0.945475 0.0913974 1.76943
0 0.945481 0.106961 65.6625
0 0.94558 0.0927571 13.7842
0 0.945589 0.0910337 0.82394
0 0.945535 0.091012 0.659279
0 0.945576 0.0910213 0.571282
0 0.945523 0.0910824 0.804629
0 0.945274 0.102144 52.7327
0 0.94546 0.091727 6.10446
0 0.945514 0.0910575 0.532998
0 0.945518 0.0912687 2.79299
0 0.945531 0.0911368 1.58919
0 0.945595 0.0910145 0.530486
0 0.945595 0.0910214 0.871404
0 0.945553 0.0910349 1.35197
0 0.945581 0.0910216 1.10233
0 0.945505 0.0910075 0.903101
0 0.945536 0.0910341 1.3819
0 0.945393 0.104375 83.7349
0 0.945476 0.0911417 0.470855
0 0.945449 0.0913347 0.285472
0 0.94549 0.0914206 2.458
0 0.945454 0.0913328 1.07664
0 0.945336 0.0927964 8.64254
0 0.945396 0.0913821 1.99276
0 0.945256 0.0923128 5.26707
0 0.94559 0.0910348 0.480685
0 0.945589 0.091028 0.679616
0 0.945586 0.0910273 0.299529
0 0.945565 0.091041 0.263953
0 0.945506 0.0910938 0.825373
0 0.945548 0.091103 0.924945
0 0.945579 0.0910541 0.673355
0 0.945286 0.0977536 23.7055
0 0.945377 0.092615 5.15203
0 0.94546 0.0914124 2.5161
0 0.945527 0.091045 1.03701
0 0.945512 0.0911565 1.93921
0 0.945585 0.0910086 0.730802
0 0.945567 0.0910279 1.19266
0 0.945537 0.0910338 1.199
0 0.945555 0.0910456 1.24371
0 0.9453 0.0924859 3.42173
0 0.945298 0.105844 17.6272
0 0.945462 0.0911372 0.852889
0 0.94542 0.0911772 1.49725
0 0.945294 0.0916648 2.16011
0 0.945356 0.0912147 1.88728
0 0.945305 0.0923631 2.80682
0 0.945259 0.0917634 1.77138
0 0.945474 0.0911032 0.846726
0 0.945577 0.091042 0.989811
0 0.945579 0.0910667 0.99513
0 0.945565 0.0910706 0.74375
0 0.945531 0.091121 1.16179
0 0.945501 0.0911537 1.93761
0 0.945563 0.0910838 1.122
0 0.945565 0.0910958 1.28621
0 0.94536 0.0925675 7.97885
0 0.94541 0.10119 39.5813
0 0.945529 0.0910492 1.234
0 0.9454 0.0913382 1.39741
0 0.945469 0.0911859 1.70658
0 0.945511 0.0910603 1.33372
0 0.945337 0.0913507 0.907369
0 0.945567 0.0910328 1.08833
0 0.945548 0.0910569 1.28548
0 0.945562 0.0910672 1.27747
0 0.945524 0.0910619 1.34754
0 0.945268 0.0916088 1.91884
0 0.945238 0.0980516 34.6747
0 0.945407 0.0910448 0.918709
0 0.945319 0.0913809 2.69686
0 0.945268 0.0918778 3.60986
0 0.945285 0.0915953 2.69698
0 0.94528 0.0918885 5.31169
0 0.945434 0.0911546 1.99295
0 0.945559 0.091092 1.37458
0 0.945537 0.0911256 1.76184
0 0.945486 0.0912486 3.00268
0 0.945546 0.0911115 1.73224
0 0.945542 0.0911177 1.79598
0 0.945378 0.0929252 13.4124
0 0.945448 0.099245 118.326
0 0.945492 0.0910449 1.09275
0 0.945416 0.0911519 1.15744
0 0.945466 0.0910768 1.27029
0 0.945328 0.0912721 1.34857
0 0.945375 0.0911584 0.777958
0 0.945546 0.0910704 1.34049
0 0.945528 0.0910731 1.39494
0 0.94554 0.091101 1.58336
0 0.945499 0.0910949 1.66912
0 0.945462 0.0911221 1.8297
0 0.945334 0.091445 1.89344
0 0.945336 0.0916476 4.46477
0 0.945274 0.0971014 52.6135
0 0.945361 0.0912115 1.8788
0 0.945295 0.0915084 2.12721
0 0.945268 0.0916141 4.95487
0 0.945283 0.0914026 1.80184
0 0.945412 0.0912372 2.69158
0 0.945466 0.091264 3.30658
0 0.945528 0.0911122 1.83773
0 0.945512 0.0911624 2.43628
0 0.945529 0.0911279 2.06892
0 0.945513 0.0911351 2.09395
0 0.945518 0.0911347 2.14863
0 0.945194 0.0915156 4.77033
0 0.945324 0.0928975 14.7183
0 0.94547 0.101091 71.3961
0 0.945422 0.0910977 1.34032
0 0.945361 0.0912331 0.746209
0 0.945337 0.0913487 0.607524
0 0.945421 0.0911458 1.85171
0 0.945506 0.0911264 1.9446
0 0.945463 0.0911574 2.1848
0 0.945335 0.091572 1.91271
0 0.945384 0.0922193 6.13375
0 0.945412 0.0968922 1.89636
0 0.945346 0.0911934 1.53198
0 0.945282 0.0911349 0.7088
0 0.945243 0.0912286 2.55321
0 0.945405 0.0912686 3.22155
0 0.945469 0.0912167 3.06426
0 0.945491 0.091151 2.17293
0 0.94548 0.0911673 2.17915
0 0.945498 0.0911433 2.3504
0 0.945487 0.0911321 2.07227
0 0.945102 0.0915186 4.10653
0 0.945044 0.0925051 9.98969
0 0.945233 0.0998199 64.7441
0 0.945374 0.0911751 1.47008
0 0.945336 0.0912871 0.643415
0 0.945406 0.0911853 2.22589
0 0.945455 0.0911849 2.37246
0 0.945336 0.0912393 1.39055
0 0.945345 0.0916767 3.53333
0 0.94537 0.0925759 3.09652
0 0.945406 0.100021 54.5364
0 0.945345 0.0912313 2.93268
0 0.945259 0.0913358 4.61864
0 0.945412 0.0912436 3.1324
0 0.945462 0.0911909 2.81139
0 0.945443 0.0911788 2.1611
0 0.945448 0.09116 1.87573
0 0.945466 0.0911493 2.32431
0 0.945454 0.0911342 1.99662
0 0.945262 0.0913938 5.85227
0 0.945113 0.0916046 5.30154
0 0.944903 0.0920608 4.05528
0 0.944818 0.102054 54.2509
0 0.945362 0.0911579 1.63607
0 0.945401 0.0911887 2.23953
0 0.945351 0.0910252 0.646215
0 0.945383 0.0914792 4.36202
0 0.945442 0.0925545 10.9939
0 0.945429 0.100977 56.9722
0 0.945362 0.0912746 4.27149
0 0.945423 0.0911822 2.89472
0 0.945407 0.0911606 1.94704
0 0.94542 0.091126 1.96237
0 0.94543 0.0911155 2.31994
0 0.94532 0.0912943 5.26399
0 0.945174 0.0914392 6.10873
0 0.945051 0.0920515 5.07015
0 0.944889 0.0988784 30.3561
0 0.945371 0.0911482 1.73465
0 0.945362 0.0911685 0.769942
0 0.945411 0.0913514 3.46754
0 0.94553 0.0926348 12.0704
0 0.945578 0.10384 119.712
0 0.945398 0.0911487 2.94923
0 0.945393 0.0912004 2.03781
0 0.945414 0.0910652 1.26109
0 0.945362 0.0911571 4.03171
0 0.945255 0.0913752 6.00534
0 0.94507 0.0919904 9.05665
0 0.945038 0.0983396 37.9535
0 0.945371 0.0913061 1.17695
0 0.945409 0.0915264 0.80034
0 0.945538 0.0926071 2.45351
0 0.945635 0.101303 81.0413
0 0.945392 0.0913828 1.51581
0 0.945419 0.091031 1.96461
0 0.945419 0.0912819 1.55692
0 0.945446 0.0912169 2.51443
0 0.945393 0.091397 5.85224
0 0.945216 0.0923718 11.4746
0 0.944981 0.10379 41.9565
0 0.945408 0.0916188 2.09226
0 0.945478 0.0922369 3.65172
0 0.945595 0.0977168 7.90164
0 0.945452 0.0915808 3.97976
0 0.945519 0.0914524 4.63824
0 0.94552 0.0915354 4.84141
0 0.945606 0.0927027 13.5048
0 0.945432 0.0981875 3.66873
0 0.945482 0.0925788 8.4978
0 0.94549 0.0981467 8.24091
0 0.945609 0.0920581 6.49261
0 0.945726 0.0921189 10.2419
0 0.945856 0.11076 92.3134
0 0.945603 0.100112 28.0529
0 0.94578 0.0977743 71.1941
VECTORS fa_u float
0.00771915 0.00315538 -0
0.00530507 0.00306382 -0
0.00429814 0.0011524 -0
0.00745468 0.00104645 -0
1e-08 0 0
0.00603377 0.00464478 -0
0.00367187 0.00365606 -0
1e-08 0 0
1e-08 0 0
0.00441662 0.00566206 -0
0.00360347 0.0061914 -0
0.00641038 4.001e-05 -0
0.00668671 -0.0008284 0
1e-08 0 0
1e-08 0 0
1e-08 0 0
1e-08 0 0
1e-08 0 0
1e-08 0 0
1e-08 0 0
1e-08 0 0
0.00251474 0.00603273 -0
0.00198411 0.00745802 -0
1e-08 0 0
1e-08 0 0
1e-08 0 0
0.00751512 -0.00199253 0
1e-08 0 0
0.00687208 -0.00289636 0
1e-08 0 0
1e-08 0 0
1e-08 0 0
0.000778966 0.0060884 -0
1e-08 0 0
1e-08 0 0
1e-08 0 0
1e-08 0 0
1e-08 0 0
1e-08 0 0
1e-08 0 0
1e-08 0 0
1e-08 0 0
1e-08 0 0
-5.00357e-05 0.00789734 -0
1e-08 0 0
1e-08 0 0
1e-08 0 0
0.00588584 -0.00348102 0
1e-08 0 0
0.00483871 -0.00377509 0
1e-08 0 0
1e-08 0 0
1e-08 0 0
1e-08 0 0
1e-08 0 0
1e-08 0 0
1e-08 0 0
1e-08 0 0
1e-08 0 0
1e-08 0 0
1e-08 0 0
1e-08 0 0
1e-08 0 0
-0.000829796 0.0059228 0
1e-08 0 0
1e-08 0 0
1e-08 0 0
1e-08 0 0
1e-08 0 0
0.00415767 -0.00416746 0
1e-08 0 0
0.00321995 -0.0041029 0
1e-08 0 0
1e-08 0 0
1e-08 0 0
1e-08 0 0
1e-08 0 0
1e-08 0 0
1e-08 0 0
1e-08 0 0
1e-08 0 0
1e-08 0 0
1e-08 0 0
1e-08 0 0
1e-08 0 0
-0.00129687 0.0049202 0
1e-08 0 0
1e-08 0 0
1e-08 0 0
1e-08 0 0
1e-08 0 0
1e-08 0 0
0.00447933 -0.00759649 0
1e-08 0 0
1e-08 0 0
1e-08 0 0
1e-08 0 0
1e-08 0 0
0.00274841 -0.00669334 0
1e-08 0 0
1e-08 0 0
1e-08 0 0
1e-08 0 0
1e-08 0 0
1e-08 0 0
1e-08 0 0
1e-08 0 0
1e-08 0 0
1e-08 0 0
-0.0032383 0.0079129 0
1e-08 0 0
1e-08 0 0
1e-08 0 0
1e-08 0 0
1e-08 0 0
1e-08 0 0
1e-08 0 0
1e-08 0 0
1e-08 0 0
1e-08 0 0
1e-08 0 0
1e-08 0 0
1e-08 0 0
1e-08 0 0
0.00161936 -0.00613636 0
1e-08 0 0
1e-08 0 0
1e-08 0 0
1e-08 0 0
1e-08 0 0
1e-08 0 0
1e-08 0 0
1e-08 0 0
1e-08 0 0
-0.00361509 0.00616954 0
1e-08 0 0
1e-08 0 0
1e-08 0 0
1e-08 0 0
1e-08 0 0
1e-08 0 0
1e-08 0 0
1e-08 0 0
1e-08 0 0
1e-08 0 0
1e-08 0 0
1e-08 0 0
1e-08 0 0
1e-08 0 0
1e-08 0 0
0.000829197 -0.00630294 0
1e-08 0 0
1e-08 0 0
1e-08 0 0
1e-08 0 0
1e-08 0 0
1e-08 0 0
1e-08 0 0
1e-08 0 0
1e-08 0 0
1e-08 0 0
-0.00355259 0.00459198 0
1e-08 0 0
1e-08 0 0
1e-08 0 0
1e-08 0 0
1e-08 0 0
1e-08 0 0
1e-08 0 0
1e-08 0 0
1e-08 0 0
1e-08 0 0
1e-08 0 0
1e-08 0 0
1.47481e-05 -0.00654037 0
1e-08 0 0
1e-08 0 0
1e-08 0 0
1e-08 0 0
1e-08 0 0
1e-08 0 0
1e-08 0 0
1e-08 0 0
1e-08 0 0
1e-08 0 0
1e-08 0 0
1e-08 0 0
-0.00406804 0.00411267 0
1e-08 0 0
1e-08 0 0
1e-08 0 0
1e-08 0 0
1e-08 0 0
1e-08 0 0
1e-08 0 0
1e-08 0 0
1e-08 0 0
1e-08 0 0
1e-08 0 0
1e-08 0 0
1e-08 0 0
-0.000777055 -0.00616354 0
1e-08 0 0
1e-08 0 0
1e-08 0 0
1e-08 0 0
1e-08 0 0
1e-08 0 0
1e-08 0 0
1e-08 0 0
-0.00518253 0.00406647 0
1e-08 0 0
1e-08 0 0
1e-08 0 0
1e-08 0 0
1e-08 0 0
1e-08 0 0
1e-08 0 0
1e-08 0 0
1e-08 0 0
1e-08 0 0
1e-08 0 0
-0.00201876 -0.00760789 0
1e-08 0 0
1e-08 0 0
1e-08 0 0
1e-08 0 0
1e-08 0 0
1e-08 0 0
1e-08 0 0
-0.00615858 0.00363254 0
1e-08 0 0
1e-08 0 0
1e-08 0 0
1e-08 0 0
1e-08 0 0
1e-08 0 0
1e-08 0 0
1e-08 0 0
1e-08 0 0
1e-08 0 0
1e-08 0 0
-0.0022728 -0.00549752 0
1e-08 0 0
1e-08 0 0
1e-08 0 0
1e-08 0 0
1e-08 0 0
-0.00836894 0.00343298 0
1e-08 0 0
1e-08 0 0
1e-08 0 0
1e-08 0 0
1e-08 0 0
1e-08 0 0
1e-08 0 0
1e-08 0 0
-0.00412356 -0.00710327 0
1e-08 0 0
1e-08 0 0
1e-08 0 0
1e-08 0 0
-0.00423283 0.0011277 0
1e-08 0 0
1e-08 0 0
1e-08 0 0
1e-08 0 0
1e-08 0 0
1e-08 0 0
-0.00402412 -0.00515161 0
1e-08 0 0
1e-08 0 0
1e-08 0 0
-0.00883253 0.00117328 0
1e-08 0 0
1e-08 0 0
1e-08 0 0
1e-08 0 0
1e-08 0 0
1e-08 0 0
-0.00409842 -0.00407413 0
1e-08 0 0
1e-08 0 0
-0.00679801 -6.34535e-05 0
1e-08 0 0
1e-08 0 0
1e-08 0 0
1e-08 0 0
-0.00587237 -0.00449289 0
1e-08 0 0
-0.00576702 -0.000791038 0
1e-08 0 0
1e-08 0 0
-0.00500718 -0.00289071 0
-0.00587985 -0.00155997 0
-0.00721249 -0.00298319 0
