# vtk DataFile Version 2.0
CellBP Time: 8.92
ASCII
DATASET UNSTRUCTURED_GRID
POINTS 296 double
-8.92678 -3.66221 0
-8.3604 -4.80293 0
-9.33092 -2.45387 0
-9.59484 -1.21538 0
-8.25913 -2.77483 0
-7.65796 -5.86751 0
-6.81051 -6.81908 0
-7.81911 -3.81956 0
-7.24905 -4.80718 0
-5.86372 -7.66259 0
-4.82093 -8.37968 0
-9.67059 0.0466992 0
-9.60706 1.31671 0
-8.56673 -1.65816 0
-8.70213 -0.521703 0
-7.49422 -1.96934 0
-7.12774 -2.85839 0
-6.56183 -5.71918 0
-5.76441 -6.53836 0
-6.69625 -3.83084 0
-6.13897 -4.6171 0
-3.6794 -8.94189 0
-2.47005 -9.35142 0
-4.86654 -7.25207 0
-3.89125 -7.83141 0
-8.71556 0.63448 0
-9.36639 2.5726 0
-8.55416 1.75355 0
-8.94581 3.7745 0
-7.65541 -0.910839 0
-7.71174 0.0832997 0
-6.86726 -1.29201 0
-1.21538 -9.59652 0
-6.36359 -2.1204 0
-6.24017 -3.01134 0
-5.47117 -5.41677 0
-4.7459 -6.05891 0
-5.5888 -3.7088 0
-5.2018 -4.50684 0
-2.84862 -8.30372 0
-1.76356 -8.57447 0
-3.8948 -6.66851 0
-3.03833 -7.09909 0
0.0524341 -9.67614 0
-7.62878 1.13111 0
-8.27944 2.89351 0
-7.48079 2.08668 0
-8.37926 4.91317 0
-7.81114 3.94199 0
-7.65532 5.96187 0
-6.70112 -0.387078 0
-6.87921 0.549939 0
-5.71303 -0.991064 0
-0.584643 -8.73583 0
0.555767 -8.68697 0
-5.24845 -2.44983 0
-4.43669 -5.0405 0
-3.8603 -5.72044 0
-4.39324 -3.76507 0
-2.04683 -7.50295 0
-1.12684 -7.72009 0
-2.9668 -6.04877 0
-2.29299 -6.56663 0
1.3146 -9.58488 0
-6.62164 1.40549 0
-7.10012 3.084 0
-6.59275 2.34686 0
-7.22282 4.93795 0
-6.64996 3.95856 0
-6.81762 6.91417 0
-6.50635 5.83162 0
-5.86315 7.75512 0
-4.42221 -1.17406 0
-5.76183 0.504846 0
-4.6247 -0.0170766 0
0.00172456 -7.77184 0
1.71173 -8.54981 0
0.928788 -7.67902 0
-4.01004 -2.38589 0
-3.47439 -1.38691 0
-3.26548 -4.76244 0
-3.24741 -3.24291 0
-1.3719 -6.61541 0
-0.512411 -6.95595 0
-1.96194 -5.49339 0
2.55886 -9.32536 0
-5.45728 2.01895 0
-6.03333 3.0375 0
-6.04224 4.81413 0
-5.70163 3.94327 0
-5.70201 6.64304 0
-5.3947 5.55374 0
-4.81501 8.47514 0
-4.78698 7.32055 0
-3.48656 -0.423182 0
-4.41586 1.23951 0
-3.69001 0.58878 0
-4.02982 2.30906 0
-3.68082 9.04488 0
2.8189 -8.22962 0
0.402149 -6.71878 0
1.98592 -7.43259 0
1.27684 -6.82061 0
-2.43882 -0.869152 0
-2.82911 -2.12058 0
-2.28275 -4.0678 0
-2.31606 -2.95545 0
-0.445916 -5.80443 0
-1.21312 -4.46776 0
3.76723 -8.92805 0
-4.74454 3.35913 0
-5.03473 4.53966 0
-4.59641 6.20584 0
-4.49028 5.29549 0
-3.8088 7.91479 0
-3.78269 6.76088 0
-2.75383 8.33493 0
-1.64654 -0.133625 0
-1.44691 -0.886532 0
-2.48393 0.511116 0
-3.23498 1.44071 0
-3.21414 3.29374 0
-2.89338 2.36647 0
-1.35484 0.631274 0
-2.47189 9.44482 0
3.87886 -7.78826 0
2.91384 -7.0572 0
0.933371 -5.75588 0
2.03632 -6.3309 0
-1.67701 -1.98543 0
-1.42665 -3.25842 0
0.0862767 -4.70583 0
-0.559876 -3.67269 0
4.87087 -7.22498 0
4.90496 -8.36443 0
-3.7411 4.50526 0
-3.69543 5.68587 0
-2.85343 7.20469 0
-2.9772 6.28134 0
-1.64502 8.65038 0
-1.91624 7.53923 0
-2.32284 4.02158 0
-0.728516 -1.32373 0
-0.836376 -0.2539 0
-1.93387 1.68397 0
-2.11677 2.86648 0
-1.30365 3.52836 0
-0.871891 1.35476 0
-0.284666 0.459323 0
-0.527281 8.79574 0
-1.21934 9.68496 0
1.09704 -4.52909 0
3.84833 -6.6149 0
2.94042 -6.00918 0
2.08492 -5.35738 0
4.72235 -6.11625 0
-0.554949 -2.46757 0
0.493271 -3.44206 0
0.0542047 -1.60752 0
1.46652 -3.64939 0
5.80287 -6.53217 0
5.96067 -7.65302 0
-2.4532 5.29596 0
-2.10497 6.46347 0
-0.891276 7.72969 0
-1.25328 6.85981 0
0.0887561 7.81347 0
-1.13821 4.46326 0
0.148829 -0.614686 0
-0.801706 2.48918 0
-0.337221 3.58839 0
0.0581913 1.51464 0
0.736686 0.474559 0
0.640809 8.80717 0
0.0469465 9.77913 0
2.35135 -4.23592 0
3.80586 -5.55905 0
2.95916 -5.14307 0
5.51383 -5.42055 0
4.63274 -5.20538 0
0.630097 -2.28857 0
1.24768 -2.93293 0
0.755832 -1.38915 0
2.14522 -3.10951 0
2.96446 -3.4404 0
6.09763 -4.73577 0
6.59398 -5.70601 0
6.92187 -6.81405 0
-1.00777 5.76726 0
-0.362601 6.81809 0
1.11484 7.71078 0
0.557911 7.02006 0
-0.00360346 4.69565 0
0.598996 3.81025 0
1.33466 -0.641315 0
0.531888 2.64528 0
0.958957 1.5749 0
1.90316 0.212713 0
1.60696 1.06394 0
2.11653 7.52925 0
1.78724 8.6502 0
1.3185 9.69966 0
3.77949 -4.29541 0
5.06104 -4.38648 0
5.79169 -3.887 0
3.74955 -3.16718 0
1.80472 -1.87911 0
2.99637 -2.55517 0
6.72878 -3.90963 0
7.32326 -4.85251 0
7.76205 -5.86187 0
0.48212 5.83518 0
1.42016 6.69015 0
2.3602 6.62092 0
1.20034 4.52954 0
1.47856 3.38116 0
2.42464 -0.690345 0
2.81473 0.142772 0
1.7793 2.15735 0
2.60168 1.14695 0
3.0539 7.1191 0
2.88892 8.319 0
2.57371 9.45817 0
4.86575 -3.2872 0
6.0698 -3.07434 0
4.14186 -2.25783 0
3.22496 -1.49661 0
6.6832 -2.29559 0
7.18082 -3.02094 0
7.91004 -3.88751 0
8.48479 -4.82187 0
2.01186 5.56042 0
3.05797 6.10428 0
2.35219 4.10039 0
2.40871 3.04438 0
3.50539 -0.456919 0
3.59634 0.614229 0
2.94632 2.27645 0
3.52311 1.51808 0
3.96911 5.84651 0
3.95096 6.74036 0
3.9515 7.88449 0
3.78409 9.05004 0
5.52811 -1.90022 0
4.47951 -1.12094 0
6.66242 -1.32463 0
7.53838 -2.02014 0
8.33941 -2.84277 0
9.04588 -3.68196 0
3.3838 4.83529 0
3.3115 3.35961 0
4.65912 0.132549 0
4.48107 1.29919 0
4.02744 2.42255 0
4.51299 5.10058 0
4.79323 6.13658 0
4.94044 7.32412 0
4.92317 8.4818 0
5.83451 -0.433315 0
6.95022 -0.487224 0
7.70146 -1.07318 0
8.62318 -1.73018 0
9.44382 -2.46863 0
4.49933 3.78857 0
5.75839 1.08204 0
5.3089 2.50397 0
5.30754 4.56754 0
5.5454 5.46825 0
5.83848 6.61419 0
5.9706 7.77102 0
6.77734 0.450975 0
7.78502 -0.0276375 0
8.79328 -0.574779 0
9.7049 -1.21649 0
6.88286 1.32536 0
5.64556 3.73163 0
6.46121 2.16315 0
6.29608 3.04406 0
6.20865 4.63091 0
6.61613 5.77906 0
6.92022 6.92663 0
7.707 0.951942 0
8.78126 0.566511 0
9.77861 0.0540181 0
7.52969 1.97404 0
6.73167 3.84814 0
7.17551 2.90248 0
7.29152 4.83134 0
7.76216 5.96878 0
8.63421 1.70478 0
9.68283 1.31628 0
8.32312 2.79965 0
7.89113 3.86928 0
8.46583 4.9081 0
9.43055 2.5625 0
9.03288 3.77029 0
CELLS 542 2168
3 2 0 4
3 0 1 7
3 4 0 7
3 1 5 8
3 7 1 8
3 3 2 13
3 13 2 4
3 11 3 14
3 14 3 13
3 13 4 15
3 4 7 16
3 15 4 16
3 5 6 17
3 8 5 17
3 6 9 18
3 17 6 18
3 7 8 19
3 16 7 19
3 8 17 20
3 19 8 20
3 9 10 23
3 18 9 23
3 10 21 24
3 23 10 24
3 12 11 25
3 25 11 14
3 26 12 27
3 27 12 25
3 14 13 29
3 29 13 15
3 25 14 30
3 30 14 29
3 29 15 31
3 15 16 33
3 31 15 33
3 16 19 34
3 33 16 34
3 17 18 35
3 20 17 35
3 18 23 36
3 35 18 36
3 19 20 37
3 34 19 37
3 20 35 38
3 37 20 38
3 21 22 39
3 24 21 39
3 22 32 40
3 39 22 40
3 23 24 41
3 36 23 41
3 24 39 42
3 41 24 42
3 27 25 44
3 44 25 30
3 28 26 45
3 45 26 27
3 45 27 46
3 46 27 44
3 47 28 48
3 48 28 45
3 30 29 50
3 50 29 31
3 44 30 51
3 51 30 50
3 50 31 52
3 31 33 52
3 32 43 53
3 40 32 53
3 53 43 54
3 33 34 55
3 34 37 55
3 33 55 52
3 35 36 56
3 38 35 56
3 36 41 57
3 56 36 57
3 37 38 58
3 38 56 58
3 37 58 55
3 39 40 59
3 42 39 59
3 40 53 60
3 59 40 60
3 41 42 61
3 57 41 61
3 42 59 62
3 61 42 62
3 43 63 54
3 46 44 64
3 64 44 51
3 48 45 65
3 65 45 46
3 65 46 66
3 66 46 64
3 49 47 67
3 67 47 48
3 67 48 68
3 68 48 65
3 69 49 70
3 70 49 67
3 52 55 72
3 64 51 73
3 51 50 73
3 50 52 73
3 73 52 74
3 74 52 72
3 53 54 75
3 60 53 75
3 54 63 76
3 54 76 77
3 75 54 77
3 55 58 78
3 72 55 78
3 72 78 79
3 56 57 80
3 57 61 80
3 56 80 58
3 58 80 81
3 78 58 81
3 59 60 82
3 62 59 82
3 60 75 83
3 82 60 83
3 61 62 84
3 62 82 84
3 61 84 80
3 63 85 76
3 66 64 86
3 64 73 86
3 68 65 87
3 87 65 66
3 87 66 86
3 70 67 88
3 88 67 68
3 88 68 89
3 89 68 87
3 71 69 90
3 90 69 70
3 90 70 91
3 91 70 88
3 92 71 93
3 93 71 90
3 74 72 94
3 94 72 79
3 86 73 95
3 95 73 74
3 95 74 96
3 96 74 94
3 97 86 95
3 76 85 99
3 75 77 100
3 83 75 100
3 76 99 101
3 77 76 101
3 77 101 102
3 100 77 102
3 94 79 103
3 78 81 104
3 79 78 104
3 79 104 103
3 80 84 105
3 81 80 105
3 81 105 106
3 104 81 106
3 82 83 107
3 83 100 107
3 82 107 84
3 84 107 108
3 105 84 108
3 85 109 99
3 89 87 110
3 87 86 110
3 110 86 97
3 91 88 111
3 111 88 89
3 111 89 110
3 93 90 112
3 112 90 91
3 112 91 113
3 113 91 111
3 98 92 114
3 114 92 93
3 114 93 115
3 115 93 112
3 116 98 114
3 117 103 118
3 96 94 119
3 94 103 119
3 119 103 117
3 97 95 120
3 120 95 96
3 120 96 119
3 121 110 97
3 121 97 122
3 122 97 120
3 123 119 117
3 124 98 116
3 99 109 125
3 99 125 126
3 101 99 126
3 100 102 127
3 100 127 107
3 101 126 128
3 102 101 128
3 102 128 127
3 104 106 129
3 104 129 103
3 103 129 118
3 105 108 130
3 106 105 130
3 106 130 129
3 107 127 131
3 108 107 131
3 108 131 132
3 108 132 130
3 109 134 125
3 125 134 133
3 113 111 135
3 111 110 135
3 135 110 121
3 115 112 136
3 136 112 113
3 136 113 135
3 116 114 137
3 137 114 115
3 137 115 138
3 138 115 136
3 139 124 116
3 139 116 140
3 140 116 137
3 141 135 121
3 118 129 142
3 118 142 143
3 117 118 143
3 123 117 143
3 122 120 144
3 120 119 144
3 144 119 123
3 141 121 145
3 145 121 122
3 145 122 144
3 146 141 145
3 147 144 123
3 147 123 148
3 143 148 123
3 150 124 139
3 149 150 139
3 131 127 151
3 125 133 152
3 126 125 152
3 126 152 153
3 128 126 153
3 128 153 154
3 128 154 127
3 127 154 151
3 152 133 155
3 130 132 156
3 130 156 129
3 129 156 142
3 131 151 157
3 132 131 157
3 132 157 156
3 156 158 142
3 157 151 159
3 133 160 155
3 134 161 133
3 133 161 160
3 138 136 162
3 136 135 162
3 162 135 141
3 140 137 163
3 163 137 138
3 163 138 162
3 149 139 164
3 164 139 140
3 164 140 165
3 165 140 163
3 166 149 164
3 167 162 141
3 167 141 146
3 142 158 168
3 143 142 168
3 143 168 148
3 146 145 169
3 145 144 169
3 169 144 147
3 170 167 146
3 170 146 169
3 171 169 147
3 171 147 148
3 171 148 172
3 168 172 148
3 173 149 166
3 174 150 149
3 173 174 149
3 154 175 151
3 151 175 159
3 152 155 176
3 153 152 176
3 153 176 177
3 153 177 154
3 154 177 175
3 155 160 178
3 155 178 179
3 176 155 179
3 156 157 180
3 156 180 158
3 157 159 181
3 157 181 180
3 158 180 182
3 158 182 168
3 159 175 183
3 159 183 181
3 175 184 183
3 160 186 178
3 178 186 185
3 161 187 160
3 160 187 186
3 165 163 188
3 163 162 188
3 188 162 167
3 166 164 189
3 189 164 165
3 189 165 188
3 190 173 166
3 190 166 191
3 191 166 189
3 192 188 167
3 192 167 170
3 193 192 170
3 182 194 168
3 194 172 168
3 193 170 195
3 170 169 195
3 195 169 171
3 196 195 171
3 196 171 172
3 194 197 172
3 197 198 172
3 198 196 172
3 200 173 190
3 199 200 190
3 201 174 173
3 200 201 173
3 176 179 202
3 177 176 202
3 177 202 175
3 175 202 184
3 178 185 203
3 178 203 179
3 179 203 202
3 203 185 204
3 202 205 184
3 183 206 181
3 180 181 206
3 180 206 182
3 182 206 194
3 183 184 207
3 205 207 184
3 183 207 206
3 185 208 204
3 186 209 185
3 185 209 208
3 187 210 186
3 186 210 209
3 191 189 211
3 189 188 211
3 211 188 192
3 199 190 212
3 212 190 191
3 212 191 211
3 213 199 212
3 214 211 192
3 214 192 193
3 215 214 193
3 215 193 195
3 206 216 194
3 216 197 194
3 216 217 197
3 215 195 218
3 218 195 196
3 198 218 196
3 217 219 197
3 219 218 198
3 197 219 198
3 220 199 213
3 221 200 199
3 220 221 199
3 222 201 200
3 221 222 200
3 203 204 223
3 203 223 202
3 202 223 205
3 204 208 224
3 204 224 223
3 205 223 225
3 205 225 207
3 207 225 226
3 207 226 206
3 226 216 206
3 208 228 224
3 224 228 227
3 209 229 208
3 229 228 208
3 210 230 209
3 209 230 229
3 213 212 231
3 212 211 231
3 231 211 214
3 232 220 213
3 232 213 231
3 233 231 214
3 233 214 215
3 234 233 215
3 234 215 218
3 226 235 216
3 235 217 216
3 235 236 217
3 217 236 219
3 237 234 218
3 237 218 219
3 236 238 219
3 238 237 219
3 240 220 232
3 239 240 232
3 241 221 220
3 240 241 220
3 242 222 221
3 241 242 221
3 224 227 243
3 224 243 223
3 223 243 225
3 225 243 244
3 225 244 226
3 226 244 235
3 227 245 243
3 228 246 227
3 227 246 245
3 229 247 228
3 228 247 246
3 230 248 229
3 229 248 247
3 239 232 249
3 232 231 249
3 249 231 233
3 250 249 233
3 250 233 234
3 237 250 234
3 244 251 235
3 235 251 236
3 251 252 236
3 236 252 238
3 252 253 238
3 253 250 237
3 253 237 238
3 254 239 249
3 255 240 239
3 254 255 239
3 256 241 240
3 255 256 240
3 257 242 241
3 256 257 241
3 245 258 243
3 243 258 244
3 244 258 251
3 245 259 258
3 246 260 245
3 245 260 259
3 247 261 246
3 246 261 260
3 248 262 247
3 247 262 261
3 254 249 263
3 263 249 250
3 253 263 250
3 258 264 251
3 251 264 252
3 264 265 252
3 265 263 253
3 252 265 253
3 266 254 263
3 267 255 254
3 266 267 254
3 268 256 255
3 267 268 255
3 269 257 256
3 268 269 256
3 259 270 258
3 270 264 258
3 260 271 259
3 259 271 270
3 261 272 260
3 260 272 271
3 262 273 261
3 273 272 261
3 270 274 264
3 275 266 263
3 275 263 265
3 274 276 264
3 276 265 264
3 276 277 265
3 277 275 265
3 278 267 266
3 275 278 266
3 279 268 267
3 278 279 267
3 280 269 268
3 279 280 268
3 271 281 270
3 270 281 274
3 272 282 271
3 271 282 281
3 273 283 272
3 272 283 282
3 281 284 274
3 274 284 276
3 285 278 275
3 277 285 275
3 284 286 276
3 286 285 277
3 276 286 277
3 287 279 278
3 285 287 278
3 288 280 279
3 287 288 279
3 282 289 281
3 281 289 284
3 283 290 282
3 282 290 289
3 289 291 284
3 284 291 286
3 291 292 286
3 292 287 285
3 286 292 285
3 293 288 287
3 292 293 287
3 290 294 289
3 289 294 291
3 294 295 291
3 295 293 292
3 291 295 292
CELL_TYPES 542
5
5
5
5
5
5
5
5
5
5
5
5
5
5
5
5
5
5
5
5
5
5
5
5
5
5
5
5
5
5
5
5
5
5
5
5
5
5
5
5
5
5
5
5
5
5
5
5
5
5
5
5
5
5
5
5
5
5
5
5
5
5
5
5
5
5
5
5
5
5
5
5
5
5
5
5
5
5
5
5
5
5
5
5
5
5
5
5
5
5
5
5
5
5
5
5
5
5
5
5
5
5
5
5
5
5
5
5
5
5
5
5
5
5
5
5
5
5
5
5
5
5
5
5
5
5
5
5
5
5
5
5
5
5
5
5
5
5
5
5
5
5
5
5
5
5
5
5
5
5
5
5
5
5
5
5
5
5
5
5
5
5
5
5
5
5
5
5
5
5
5
5
5
5
5
5
5
5
5
5
5
5
5
5
5
5
5
5
5
5
5
5
5
5
5
5
5
5
5
5
5
5
5
5
5
5
5
5
5
5
5
5
5
5
5
5
5
5
5
5
5
5
5
5
5
5
5
5
5
5
5
5
5
5
5
5
5
5
5
5
5
5
5
5
5
5
5
5
5
5
5
5
5
5
5
5
5
5
5
5
5
5
5
5
5
5
5
5
5
5
5
5
5
5
5
5
5
5
5
5
5
5
5
5
5
5
5
5
5
5
5
5
5
5
5
5
5
5
5
5
5
5
5
5
5
5
5
5
5
5
5
5
5
5
5
5
5
5
5
5
5
5
5
5
5
5
5
5
5
5
5
5
5
5
5
5
5
5
5
5
5
5
5
5
5
5
5
5
5
5
5
5
5
5
5
5
5
5
5
5
5
5
5
5
5
5
5
5
5
5
5
5
5
5
5
5
5
5
5
5
5
5
5
5
5
5
5
5
5
5
5
5
5
5
5
5
5
5
5
5
5
5
5
5
5
5
5
5
5
5
5
5
5
5
5
5
5
5
5
5
5
5
5
5
5
5
5
5
5
5
5
5
5
5
5
5
5
5
5
5
5
5
5
5
5
5
5
5
5
5
5
5
5
5
5
5
5
5
5
5
5
5
5
5
5
5
5
5
5
5
5
5
5
5
5
5
5
5
5
5
5
5
5
5
5
5
5
5
5
5
5
5
5
5
5
5
5
5
5
5
5
5
5
5
5
5
5
5
5
5
5
5
5
5
5
5
5
5
5
5
5
5
5
5
5
5
5
5
5
5
5
5
5
5
5
5
5
5
5
5
5
5
POINT_DATA 296
SCALARS concentrations float 4
LOOKUP_TABLE default
0 0.945387 0.0986795 31.4942
0 0.945518 0.0990113 30.2743
0 0.945601 0.0984255 14.7021
0 0.945808 0.102266 81.5669
0 0.945526 0.0924283 6.00602
0 0.945754 0.0981592 66.125
0 0.945713 0.105318 2.2762
0 0.945494 0.0923022 4.63235
0 0.945664 0.0921664 4.25607
0 0.945797 0.0994383 43.4264
0 0.945587 0.100553 63.7924
0 0.94552 0.104607 73.9411
0 0.945156 0.104707 27.4466
0 0.945706 0.0919708 5.5649
0 0.945667 0.091944 7.84697
0 0.945629 0.0915058 2.18203
0 0.945593 0.0914171 1.43243
0 0.945722 0.0924841 3.83627
0 0.945733 0.0925712 3.98243
0 0.945621 0.0913033 1.2641
0 0.94567 0.091317 1.35471
0 0.94545 0.101398 44.9648
0 0.945525 0.101379 97.5546
0 0.945698 0.0920342 8.19931
0 0.945546 0.0923667 11.0607
0 0.94537 0.0927621 11.2712
0 0.945203 0.0963982 13.8744
0 0.945248 0.0924794 6.20921
0 0.945212 0.101041 79.4052
0 0.94563 0.091488 1.16552
0 0.945535 0.0915968 1.6566
0 0.945605 0.0912835 1.18898
0 0.945802 0.104854 14.1065
0 0.945605 0.0911674 0.815474
0 0.945613 0.0910963 0.208352
0 0.945688 0.0913202 0.644175
0 0.945673 0.0914051 1.81654
0 0.945622 0.0910642 0.505792
0 0.945643 0.0911384 0.829805
0 0.94552 0.0923941 8.88633
0 0.945665 0.0920259 5.36085
0 0.945637 0.0914052 2.94938
0 0.945595 0.0912562 3.09519
0 0.945643 0.0987472 25.4649
0 0.945426 0.0914751 1.8821
0 0.945294 0.0923052 8.09481
0 0.945391 0.091487 1.22884
0 0.945207 0.102894 85.0195
0 0.945276 0.0922803 9.28868
0 0.945354 0.100897 78.5319
0 0.94557 0.0912743 1.29039
0 0.945522 0.0912955 1.24994
0 0.945576 0.0910336 0.7619
0 0.94573 0.0925809 5.35401
0 0.945512 0.092355 3.747
0 0.945591 0.0909836 0.621346
0 0.945634 0.091132 0.938913
0 0.945629 0.091162 1.25219
0 0.945599 0.0910241 0.601823
0 0.945617 0.0913061 2.21254
0 0.945644 0.0912884 1.68478
0 0.94561 0.0910682 0.966118
0 0.945608 0.0910893 0.891655
0 0.945373 0.103048 87.1177
0 0.945494 0.0911364 0.521183
0 0.945401 0.0912809 0.425546
0 0.945475 0.0911179 0.176469
0 0.945335 0.0918454 8.25854
0 0.945419 0.0912181 0.705514
0 0.945371 0.096461 58.5548
0 0.945409 0.0917173 4.63862
0 0.945158 0.0995482 22.3755
0 0.945566 0.0909599 0.41575
0 0.945543 0.0910018 0.556744
0 0.945553 0.0909567 0.3834
0 0.945621 0.0914705 2.23909
0 0.945486 0.0919389 2.92459
0 0.945564 0.0913979 1.08612
0 0.945571 0.0909861 0.512624
0 0.945549 0.0909661 0.305603
0 0.945596 0.0909996 0.429283
0 0.945572 0.0909817 0.252464
0 0.945608 0.0911321 1.00554
0 0.94561 0.091243 1.31523
0 0.945589 0.0910009 0.674586
0 0.945501 0.102098 5.86913
0 0.945521 0.0910085 0.23188
0 0.945488 0.0910727 0.373531
0 0.945439 0.0912697 0.414225
0 0.945485 0.0911463 0.985912
0 0.945317 0.091926 2.19091
0 0.945417 0.0913815 2.03965
0 0.945008 0.100707 61.9607
0 0.945161 0.0921557 7.85588
0 0.945541 0.090953 0.243942
0 0.945538 0.0909629 0.312797
0 0.945537 0.090952 0.25289
0 0.945525 0.0909895 0.392253
0 0.945166 0.0994174 51.593
0 0.945439 0.0920473 2.1763
0 0.945593 0.0912477 1.10457
0 0.945527 0.0912922 0.478769
0 0.945571 0.0912415 0.494364
0 0.945531 0.0909624 0.307286
0 0.945546 0.0909693 0.352333
0 0.945569 0.0909984 0.450806
0 0.945549 0.0909835 0.462977
0 0.945583 0.091105 1.09586
0 0.945566 0.0910256 0.878763
0 0.94522 0.0994087 45.0306
0 0.945511 0.0910435 0.763466
0 0.945482 0.0911794 1.4161
0 0.945347 0.0913973 3.78669
0 0.945448 0.091224 2.33978
0 0.945147 0.0921597 7.61592
0 0.945306 0.0913212 3.14051
0 0.945435 0.0918008 5.87072
0 0.945518 0.0909594 0.383972
0 0.945519 0.0909691 0.47076
0 0.945524 0.0909592 0.209314
0 0.945526 0.090959 0.270463
0 0.94551 0.0910094 0.501551
0 0.945518 0.0909767 0.328008
0 0.945509 0.090967 0.335426
0 0.945706 0.100455 57.2571
0 0.945272 0.0920682 6.46382
0 0.94548 0.0912734 1.459
0 0.945572 0.0911399 0.99514
0 0.945552 0.0911599 0.764085
0 0.945531 0.0909831 0.496265
0 0.945545 0.0910005 0.686135
0 0.945561 0.0910535 1.08898
0 0.945546 0.091023 0.977023
0 0.945378 0.0923297 11.0742
0 0.945179 0.100992 63.8421
0 0.945489 0.091081 0.954067
0 0.945428 0.0911409 2.09882
0 0.945379 0.0913122 3.98181
0 0.945418 0.0910915 1.95504
0 0.945752 0.0925541 15.6468
0 0.945525 0.0915398 5.20308
0 0.945492 0.0910445 0.397764
0 0.945517 0.090984 0.633644
0 0.945509 0.0909694 0.528768
0 0.945511 0.0909725 0.232739
0 0.945503 0.0909953 0.338117
0 0.94549 0.0910173 0.242046
0 0.9455 0.090977 0.354139
0 0.9455 0.0909729 0.528795
0 0.945674 0.0926751 14.1188
0 0.945899 0.106861 64.0715
0 0.94556 0.0910656 1.0366
0 0.945468 0.0913105 2.19879
0 0.94554 0.0911296 0.828685
0 0.945565 0.0911051 0.985517
0 0.945528 0.0913165 3.17525
0 0.94553 0.090997 0.79487
0 0.945543 0.0910278 1.08654
0 0.945517 0.0909963 0.857873
0 0.945552 0.0910505 1.06756
0 0.945547 0.0927174 12.4164
0 0.945437 0.103834 103.249
0 0.945471 0.0910349 0.214447
0 0.945465 0.0911167 1.76529
0 0.945581 0.0915962 5.76689
0 0.945502 0.09131 3.283
0 0.945489 0.0916446 6.26397
0 0.945478 0.0910325 0.0338402
0 0.945507 0.0909799 0.756045
0 0.945494 0.0909932 0.212748
0 0.945482 0.0910387 0.385274
0 0.945493 0.0909778 0.326955
0 0.945499 0.0909793 0.596057
0 0.945353 0.0918463 4.56897
0 0.945532 0.096381 12.4468
0 0.945566 0.0910623 0.99901
0 0.945555 0.0910008 1.00582
0 0.945569 0.0910498 0.682641
0 0.945572 0.0915187 4.43435
0 0.945575 0.0911147 1.94742
0 0.945528 0.0910035 1.01639
0 0.945538 0.0910273 1.09301
0 0.945517 0.0909966 0.955766
0 0.94555 0.0910228 0.885266
0 0.945568 0.0909944 0.511643
0 0.94558 0.0914592 2.94318
0 0.945566 0.0924121 5.35768
0 0.945586 0.099457 60.9149
0 0.945473 0.0910787 0.849832
0 0.945486 0.0913124 3.33273
0 0.94539 0.0913782 3.73803
0 0.94545 0.0913345 3.45909
0 0.945471 0.091055 0.334276
0 0.945478 0.0910393 0.549667
0 0.945512 0.0909982 0.873898
0 0.945487 0.0909971 0.326406
0 0.945492 0.0909793 0.320386
0 0.945508 0.0910062 0.758435
0 0.945498 0.090987 0.505567
0 0.945406 0.0912915 2.48382
0 0.945271 0.0918587 6.86734
0 0.94516 0.0991711 28.3191
0 0.945579 0.0909586 0.470587
0 0.945589 0.0911401 1.85288
0 0.945599 0.0912174 1.83521
0 0.945576 0.0909745 0.350832
0 0.945533 0.0909891 0.930852
0 0.945555 0.0909893 0.724362
0 0.945604 0.0913872 3.13426
0 0.945515 0.0918964 3.672
0 0.945499 0.0980714 52.495
0 0.945463 0.091094 0.42759
0 0.945439 0.0911317 1.17688
0 0.945456 0.0910597 0.543484
0 0.945473 0.0910374 0.778323
0 0.945485 0.0910084 0.675988
0 0.945527 0.0910117 0.844664
0 0.945521 0.0910314 0.749643
0 0.945494 0.0909834 0.42437
0 0.945509 0.0910103 0.599784
0 0.945489 0.0911999 1.54974
0 0.945436 0.0919795 8.09762
0 0.945309 0.0986625 45.1028
0 0.945591 0.0909774 0.558751
0 0.945609 0.0911026 1.08746
0 0.945574 0.0909684 0.874383
0 0.945548 0.0909953 0.916615
0 0.945621 0.0910996 0.996246
0 0.945638 0.0913125 2.54286
0 0.945653 0.0922758 11.9947
0 0.945517 0.10317 134.226
0 0.945473 0.0910233 1.31231
0 0.945496 0.0910238 0.278926
0 0.945489 0.0910179 1.20167
0 0.945496 0.0910062 0.868267
0 0.945544 0.0910311 0.81242
0 0.945534 0.091054 0.697587
0 0.945509 0.0910062 0.64567
0 0.945523 0.0910228 0.36358
0 0.945522 0.0911478 0.322682
0 0.945539 0.0912136 0.979781
0 0.945583 0.091642 3.4526
0 0.945534 0.0992659 70.1119
0 0.945594 0.0909576 0.836573
0 0.945569 0.0910149 1.0701
0 0.945624 0.0910298 0.873097
0 0.945653 0.0914095 3.45239
0 0.945681 0.0926203 11.0233
0 0.945769 0.105416 93.2168
0 0.945507 0.0910192 1.04544
0 0.945512 0.0909875 0.678609
0 0.94556 0.0910591 0.920902
0 0.945546 0.0910374 0.272697
0 0.94553 0.0909995 0.440332
0 0.945528 0.0911649 0.602954
0 0.945537 0.0913583 1.82005
0 0.945579 0.09177 5.11298
0 0.945659 0.100441 45.6083
0 0.945591 0.091034 0.698128
0 0.945637 0.0911458 0.579708
0 0.945671 0.0912268 1.99837
0 0.945651 0.0919077 4.89366
0 0.945606 0.0977218 82.7995
0 0.945532 0.0910127 0.514722
0 0.945574 0.0911035 0.27571
0 0.945551 0.0910302 0.370417
0 0.945533 0.0911801 0.811813
0 0.945509 0.0913895 3.01988
0 0.945495 0.0920814 5.81145
0 0.945521 0.0980164 33.1749
0 0.94562 0.0912118 0.510735
0 0.945684 0.0913491 0.378418
0 0.945744 0.0915533 3.81557
0 0.945737 0.0982862 78.3817
0 0.945602 0.091268 0.732764
0 0.945544 0.0910775 0.253324
0 0.945575 0.0911919 0.270367
0 0.945558 0.0911349 0.190885
0 0.945509 0.0913031 1.22977
0 0.945417 0.0920925 8.9643
0 0.945425 0.10118 83.6272
0 0.94565 0.0913897 1.10793
0 0.945709 0.0922671 4.12079
0 0.945758 0.0991191 69.3989
0 0.945599 0.0915658 2.53681
0 0.945532 0.0913124 0.636873
0 0.945562 0.0913505 0.149787
0 0.945457 0.0920274 9.62399
0 0.94534 0.103332 40.2384
0 0.945644 0.0925648 7.29337
0 0.945697 0.100761 74.0717
0 0.945545 0.0925664 7.79494
0 0.945524 0.0926729 8.03448
0 0.945501 0.103894 74.3825
0 0.945588 0.0967738 37.3941
0 0.945487 0.103687 9.22962
VECTORS fa_u float
0.00688966 0.00284645 -0
0.0050796 0.00292256 -0
0.00481882 0.0013157 -0
0.00877055 0.00119139 -0
1e-08 0 0
0.00644858 0.00495727 -0
0.00369737 0.00369563 -0
1e-08 0 0
1e-08 0 0
0.00381645 0.00486554 -0
0.00415467 0.00709382 -0
0.00475357 2.29319e-05 -0
0.00752884 -0.00090672 0
1e-08 0 0
1e-08 0 0
1e-08 0 0
1e-08 0 0
1e-08 0 0
1e-08 0 0
1e-08 0 0
1e-08 0 0
0.00256698 0.00621014 -0
0.00178688 0.00672577 -0
1e-08 0 0
1e-08 0 0
1e-08 0 0
0.00817018 -0.00219811 0
1e-08 0 0
0.00564512 -0.00238081 0
1e-08 0 0
1e-08 0 0
1e-08 0 0
0.000846206 0.00657341 -0
1e-08 0 0
1e-08 0 0
1e-08 0 0
1e-08 0 0
1e-08 0 0
1e-08 0 0
1e-08 0 0
1e-08 0 0
1e-08 0 0
1e-08 0 0
-3.28839e-05 0.00714933 -0
1e-08 0 0
1e-08 0 0
1e-08 0 0
0.00684101 -0.00403601 0
1e-08 0 0
0.00425108 -0.00331766 0
1e-08 0 0
1e-08 0 0
1e-08 0 0
1e-08 0 0
1e-08 0 0
1e-08 0 0
1e-08 0 0
1e-08 0 0
1e-08 0 0
1e-08 0 0
1e-08 0 0
1e-08 0 0
1e-08 0 0
-0.00096952 0.00692745 0
1e-08 0 0
1e-08 0 0
1e-08 0 0
1e-08 0 0
1e-08 0 0
0.00448144 -0.00447874 0
1e-08 0 0
0.00348943 -0.0044767 0
1e-08 0 0
1e-08 0 0
1e-08 0 0
1e-08 0 0
1e-08 0 0
1e-08 0 0
1e-08 0 0
1e-08 0 0
1e-08 0 0
1e-08 0 0
1e-08 0 0
1e-08 0 0
1e-08 0 0
-0.00127363 0.00475571 0
1e-08 0 0
1e-08 0 0
1e-08 0 0
1e-08 0 0
1e-08 0 0
1e-08 0 0
0.00371083 -0.00627885 0
1e-08 0 0
1e-08 0 0
1e-08 0 0
1e-08 0 0
1e-08 0 0
0.00319287 -0.00771514 0
1e-08 0 0
1e-08 0 0
1e-08 0 0
1e-08 0 0
1e-08 0 0
1e-08 0 0
1e-08 0 0
1e-08 0 0
1e-08 0 0
1e-08 0 0
-0.00300609 0.00733933 0
1e-08 0 0
1e-08 0 0
1e-08 0 0
1e-08 0 0
1e-08 0 0
1e-08 0 0
1e-08 0 0
1e-08 0 0
1e-08 0 0
1e-08 0 0
1e-08 0 0
1e-08 0 0
1e-08 0 0
1e-08 0 0
0.00166452 -0.00640105 0
1e-08 0 0
1e-08 0 0
1e-08 0 0
1e-08 0 0
1e-08 0 0
1e-08 0 0
1e-08 0 0
1e-08 0 0
1e-08 0 0
-0.00348455 0.00599451 0
1e-08 0 0
1e-08 0 0
1e-08 0 0
1e-08 0 0
1e-08 0 0
1e-08 0 0
1e-08 0 0
1e-08 0 0
1e-08 0 0
1e-08 0 0
1e-08 0 0
1e-08 0 0
1e-08 0 0
1e-08 0 0
1e-08 0 0
0.000684099 -0.00515435 0
1e-08 0 0
1e-08 0 0
1e-08 0 0
1e-08 0 0
1e-08 0 0
1e-08 0 0
1e-08 0 0
1e-08 0 0
1e-08 0 0
1e-08 0 0
-0.0037021 0.00481608 0
1e-08 0 0
1e-08 0 0
1e-08 0 0
1e-08 0 0
1e-08 0 0
1e-08 0 0
1e-08 0 0
1e-08 0 0
1e-08 0 0
1e-08 0 0
1e-08 0 0
1e-08 0 0
4.23437e-05 -0.00731114 0
1e-08 0 0
1e-08 0 0
1e-08 0 0
1e-08 0 0
1e-08 0 0
1e-08 0 0
1e-08 0 0
1e-08 0 0
1e-08 0 0
1e-08 0 0
1e-08 0 0
1e-08 0 0
-0.00467828 0.004705 0
1e-08 0 0
1e-08 0 0
1e-08 0 0
1e-08 0 0
1e-08 0 0
1e-08 0 0
1e-08 0 0
1e-08 0 0
1e-08 0 0
1e-08 0 0
1e-08 0 0
1e-08 0 0
1e-08 0 0
-0.000801819 -0.00631235 0
1e-08 0 0
1e-08 0 0
1e-08 0 0
1e-08 0 0
1e-08 0 0
1e-08 0 0
1e-08 0 0
1e-08 0 0
-0.00413862 0.00324689 0
1e-08 0 0
1e-08 0 0
1e-08 0 0
1e-08 0 0
1e-08 0 0
1e-08 0 0
1e-08 0 0
1e-08 0 0
1e-08 0 0
1e-08 0 0
1e-08 0 0
-0.00181408 -0.0068852 0
1e-08 0 0
1e-08 0 0
1e-08 0 0
1e-08 0 0
1e-08 0 0
1e-08 0 0
1e-08 0 0
-0.00759838 0.00447498 0
1e-08 0 0
1e-08 0 0
1e-08 0 0
1e-08 0 0
1e-08 0 0
1e-08 0 0
1e-08 0 0
1e-08 0 0
1e-08 0 0
1e-08 0 0
1e-08 0 0
-0.00283438 -0.00682043 0
1e-08 0 0
1e-08 0 0
1e-08 0 0
1e-08 0 0
1e-08 0 0
-0.0071452 0.00291191 0
1e-08 0 0
1e-08 0 0
1e-08 0 0
1e-08 0 0
1e-08 0 0
1e-08 0 0
1e-08 0 0
1e-08 0 0
-0.0035302 -0.00603495 0
1e-08 0 0
1e-08 0 0
1e-08 0 0
1e-08 0 0
-0.00467467 0.00124954 0
1e-08 0 0
1e-08 0 0
1e-08 0 0
1e-08 0 0
1e-08 0 0
1e-08 0 0
-0.00411693 -0.00528668 0
1e-08 0 0
1e-08 0 0
1e-08 0 0
-0.00842639 0.00111831 0
1e-08 0 0
1e-08 0 0
1e-08 0 0
1e-08 0 0
1e-08 0 0
1e-08 0 0
-0.00419375 -0.00416888 0
1e-08 0 0
1e-08 0 0
-0.00701403 -6.11225e-05 0
1e-08 0 0
1e-08 0 0
1e-08 0 0
1e-08 0 0
-0.0056856 -0.00435354 0
1e-08 0 0
-0.00598346 -0.00083024 0
1e-08 0 0
1e-08 0 0
-0.005166 -0.00298593 0
-0.00530718 -0.00140562 0
-0.0075371 -0.00309992 0
