# vtk DataFile Version 2.0
CellBP Time: 10.96
ASCII
DATASET UNSTRUCTURED_GRID
POINTS 296 double
-8.92855 -3.66317 0
-8.36412 -4.80546 0
-9.3215 -2.4514 0
-9.59436 -1.21525 0
-8.2589 -2.77523 0
-7.65648 -5.86691 0
-6.81169 -6.8206 0
-7.81928 -3.8199 0
-7.24915 -4.80731 0
-5.86064 -7.65869 0
-4.8196 -8.37747 0
-9.6755 0.0466183 0
-9.60126 1.31593 0
-8.56666 -1.65801 0
-8.70247 -0.521766 0
-7.49425 -1.96951 0
-7.12773 -2.85864 0
-6.56191 -5.71955 0
-5.76476 -6.53815 0
-6.69628 -3.83105 0
-6.13901 -4.61727 0
-3.68023 -8.94407 0
-2.47149 -9.35693 0
-4.86618 -7.25168 0
-3.89081 -7.83142 0
-8.71549 0.634031 0
-9.36694 2.57281 0
-8.5538 1.75376 0
-8.95055 3.77658 0
-7.6555 -0.910912 0
-7.71182 0.0831919 0
-6.86733 -1.29213 0
-1.21559 -9.59714 0
-6.36362 -2.12056 0
-6.24016 -3.01154 0
-5.47119 -5.41683 0
-4.74585 -6.05889 0
-5.5888 -3.70895 0
-5.20179 -4.50695 0
-2.84839 -8.30409 0
-1.76363 -8.57502 0
-3.89463 -6.66855 0
-3.0382 -7.09928 0
0.0524167 -9.67451 0
-7.6288 1.13112 0
-8.27956 2.89379 0
-7.48087 2.08686 0
-8.37419 4.91044 0
-7.8114 3.94206 0
-7.65681 5.96342 0
-6.70122 -0.387137 0
-6.87932 0.549929 0
-5.71309 -0.991123 0
-0.585092 -8.73616 0
0.555236 -8.68654 0
-5.24843 -2.44996 0
-4.43663 -5.04058 0
-3.86022 -5.72052 0
-4.39323 -3.76518 0
-2.04682 -7.50327 0
-1.12697 -7.72033 0
-2.96674 -6.04892 0
-2.29299 -6.56687 0
1.31359 -9.57779 0
-6.62179 1.40559 0
-7.10035 3.0842 0
-6.59297 2.34701 0
-7.223 4.93809 0
-6.65025 3.95867 0
-6.81477 6.91152 0
-6.50663 5.8315 0
-5.86333 7.75542 0
-4.42226 -1.17409 0
-5.76197 0.504891 0
-4.62483 -0.01705 0
0.0014556 -7.77188 0
1.71192 -8.54926 0
0.928623 -7.67889 0
-4.01004 -2.38598 0
-3.47443 -1.38695 0
-3.26548 -4.76256 0
-3.24743 -3.243 0
-1.37199 -6.61563 0
-0.512553 -6.9561 0
-1.96197 -5.49356 0
2.55945 -9.32747 0
-5.45748 2.01903 0
-6.03361 3.0376 0
-6.04252 4.81412 0
-5.70194 3.94331 0
-5.70211 6.64287 0
-5.39493 5.55365 0
-4.81965 8.48265 0
-4.787 7.32049 0
-3.48663 -0.423214 0
-4.41602 1.23953 0
-3.69013 0.588767 0
-4.02999 2.30906 0
-3.68075 9.04385 0
2.81884 -8.22961 0
0.401996 -6.71884 0
1.98584 -7.43245 0
1.2767 -6.82058 0
-2.43885 -0.869209 0
-2.82912 -2.12064 0
-2.28278 -4.06792 0
-2.31607 -2.95553 0
-0.445996 -5.80457 0
-1.21313 -4.46789 0
3.76773 -8.92918 0
-4.74477 3.35916 0
-5.035 4.53963 0
-4.59656 6.20574 0
-4.49049 5.29541 0
-3.80883 7.91473 0
-3.78282 6.76085 0
-2.75379 8.3347 0
-1.64658 -0.13369 0
-1.44691 -0.886587 0
-2.484 0.511041 0
-3.23511 1.44068 0
-3.21433 3.29372 0
-2.89352 2.36644 0
-1.3549 0.631201 0
-2.47078 9.43983 0
3.87855 -7.78813 0
2.91365 -7.0571 0
0.933284 -5.75594 0
2.03619 -6.33086 0
-1.67699 -1.98548 0
-1.42664 -3.25852 0
0.0862469 -4.70593 0
-0.559868 -3.67279 0
4.87044 -7.22456 0
4.90435 -8.36322 0
-3.7413 4.50525 0
-3.69559 5.68584 0
-2.8535 7.20464 0
-2.97733 6.28133 0
-1.64462 8.65046 0
-1.91622 7.53923 0
-2.32301 4.02157 0
-0.728489 -1.32378 0
-0.836391 -0.253958 0
-1.93397 1.68388 0
-2.11691 2.86643 0
-1.30378 3.52825 0
-0.871957 1.35468 0
-0.284691 0.459265 0
-0.527265 8.79609 0
-1.22029 9.69135 0
1.09702 -4.52915 0
3.84809 -6.61472 0
2.94027 -6.0091 0
2.08484 -5.35738 0
4.72223 -6.116 0
-0.554912 -2.46764 0
0.493292 -3.44213 0
0.0542492 -1.60756 0
1.46653 -3.64943 0
5.80281 -6.53169 0
5.95899 -7.65087 0
-2.45337 5.29596 0
-2.10509 6.46345 0
-0.891261 7.72973 0
-1.25339 6.85979 0
0.0886575 7.81344 0
-1.13834 4.46313 0
0.148842 -0.614729 0
-0.801785 2.48905 0
-0.337322 3.58816 0
0.0581842 1.51455 0
0.736725 0.474487 0
0.640582 8.80709 0
0.0468584 9.78258 0
2.35134 -4.23592 0
3.80577 -5.55892 0
2.95909 -5.14302 0
5.51385 -5.42033 0
4.63275 -5.20522 0
0.630157 -2.28862 0
1.24772 -2.93297 0
0.755884 -1.38919 0
2.14527 -3.10952 0
2.96453 -3.44039 0
6.09776 -4.73564 0
6.59404 -5.70591 0
6.91833 -6.81078 0
-1.00792 5.76714 0
-0.362738 6.81801 0
1.11475 7.71057 0
0.557784 7.01989 0
-0.00371369 4.69538 0
0.598937 3.80998 0
1.33475 -0.641371 0
0.53188 2.64511 0
0.959007 1.57481 0
1.90328 0.212633 0
1.60705 1.06385 0
2.11636 7.52891 0
1.78718 8.64997 0
1.31838 9.69925 0
3.77953 -4.29534 0
5.06117 -4.38634 0
5.79192 -3.88691 0
3.74968 -3.16715 0
1.80482 -1.87912 0
2.9965 -2.55515 0
6.72906 -3.90955 0
7.32331 -4.85242 0
7.76296 -5.863 0
0.481978 5.83489 0
1.42002 6.6898 0
2.36003 6.62051 0
1.20027 4.52919 0
1.47857 3.38092 0
2.42477 -0.690397 0
2.81489 0.142701 0
1.77938 2.15721 0
2.60183 1.14684 0
3.05365 7.11873 0
2.88851 8.3187 0
2.57265 9.45467 0
4.86595 -3.28714 0
6.07011 -3.0743 0
4.14206 -2.25779 0
3.22513 -1.49661 0
6.68356 -2.29559 0
7.18118 -3.02095 0
7.91052 -3.88735 0
8.4828 -4.82098 0
2.01176 5.55994 0
3.05788 6.10391 0
2.3522 4.10004 0
2.40878 3.04414 0
3.50559 -0.456961 0
3.59654 0.614155 0
2.94647 2.27629 0
3.52333 1.518 0
3.96907 5.8462 0
3.95077 6.74005 0
3.95124 7.88402 0
3.78068 9.04177 0
5.52842 -1.90018 0
4.47976 -1.12094 0
6.66283 -1.32463 0
7.53881 -2.02024 0
8.33994 -2.8431 0
9.04958 -3.68352 0
3.38384 4.83496 0
3.31162 3.3594 0
4.65937 0.132516 0
4.48135 1.29915 0
4.02769 2.42248 0
4.51308 5.1003 0
4.7931 6.13631 0
4.9401 7.3239 0
4.92526 8.48543 0
5.83485 -0.433296 0
6.95065 -0.487186 0
7.7019 -1.07318 0
8.62347 -1.73036 0
9.44558 -2.4691 0
4.49954 3.78841 0
5.75875 1.08205 0
5.30925 2.50396 0
5.30775 4.56735 0
5.54539 5.468 0
5.83812 6.61392 0
5.96961 7.76997 0
6.77779 0.451024 0
7.78558 -0.027539 0
8.79368 -0.57462 0
9.7036 -1.21624 0
6.88335 1.3254 0
5.64587 3.73155 0
6.46166 2.16318 0
6.2965 3.04407 0
6.20888 4.63074 0
6.61597 5.77871 0
6.91562 6.92209 0
7.70761 0.952003 0
8.78213 0.56685 0
9.77985 0.0541031 0
7.53032 1.97402 0
6.7321 3.84809 0
7.17603 2.90248 0
7.29191 4.83107 0
7.76166 5.96829 0
8.63526 1.70464 0
9.68445 1.31647 0
8.32374 2.7995 0
7.89161 3.86935 0
8.46648 4.90833 0
9.4367 2.56402 0
9.03553 3.77132 0
CELLS 542 2168
3 2 0 4
3 0 1 7
3 4 0 7
3 1 5 8
3 7 1 8
3 3 2 13
3 13 2 4
3 11 3 14
3 14 3 13
3 13 4 15
3 4 7 16
3 15 4 16
3 5 6 17
3 8 5 17
3 6 9 18
3 17 6 18
3 7 8 19
3 16 7 19
3 8 17 20
3 19 8 20
3 9 10 23
3 18 9 23
3 10 21 24
3 23 10 24
3 12 11 25
3 25 11 14
3 26 12 27
3 27 12 25
3 14 13 29
3 29 13 15
3 25 14 30
3 30 14 29
3 29 15 31
3 15 16 33
3 31 15 33
3 16 19 34
3 33 16 34
3 17 18 35
3 20 17 35
3 18 23 36
3 35 18 36
3 19 20 37
3 34 19 37
3 20 35 38
3 37 20 38
3 21 22 39
3 24 21 39
3 22 32 40
3 39 22 40
3 23 24 41
3 36 23 41
3 24 39 42
3 41 24 42
3 27 25 44
3 44 25 30
3 28 26 45
3 45 26 27
3 45 27 46
3 46 27 44
3 47 28 48
3 48 28 45
3 30 29 50
3 50 29 31
3 44 30 51
3 51 30 50
3 50 31 52
3 31 33 52
3 32 43 53
3 40 32 53
3 53 43 54
3 33 34 55
3 34 37 55
3 33 55 52
3 35 36 56
3 38 35 56
3 36 41 57
3 56 36 57
3 37 38 58
3 38 56 58
3 37 58 55
3 39 40 59
3 42 39 59
3 40 53 60
3 59 40 60
3 41 42 61
3 57 41 61
3 42 59 62
3 61 42 62
3 43 63 54
3 46 44 64
3 64 44 51
3 48 45 65
3 65 45 46
3 65 46 66
3 66 46 64
3 49 47 67
3 67 47 48
3 67 48 68
3 68 48 65
3 69 49 70
3 70 49 67
3 52 55 72
3 64 51 73
3 51 50 73
3 50 52 73
3 73 52 74
3 74 52 72
3 53 54 75
3 60 53 75
3 54 63 76
3 54 76 77
3 75 54 77
3 55 58 78
3 72 55 78
3 72 78 79
3 56 57 80
3 57 61 80
3 56 80 58
3 58 80 81
3 78 58 81
3 59 60 82
3 62 59 82
3 60 75 83
3 82 60 83
3 61 62 84
3 62 82 84
3 61 84 80
3 63 85 76
3 66 64 86
3 64 73 86
3 68 65 87
3 87 65 66
3 87 66 86
3 70 67 88
3 88 67 68
3 88 68 89
3 89 68 87
3 71 69 90
3 90 69 70
3 90 70 91
3 91 70 88
3 92 71 93
3 93 71 90
3 74 72 94
3 94 72 79
3 86 73 95
3 95 73 74
3 95 74 96
3 96 74 94
3 97 86 95
3 76 85 99
3 75 77 100
3 83 75 100
3 76 99 101
3 77 76 101
3 77 101 102
3 100 77 102
3 94 79 103
3 78 81 104
3 79 78 104
3 79 104 103
3 80 84 105
3 81 80 105
3 81 105 106
3 104 81 106
3 82 83 107
3 83 100 107
3 82 107 84
3 84 107 108
3 105 84 108
3 85 109 99
3 89 87 110
3 87 86 110
3 110 86 97
3 91 88 111
3 111 88 89
3 111 89 110
3 93 90 112
3 112 90 91
3 112 91 113
3 113 91 111
3 98 92 114
3 114 92 93
3 114 93 115
3 115 93 112
3 116 98 114
3 117 103 118
3 96 94 119
3 94 103 119
3 119 103 117
3 97 95 120
3 120 95 96
3 120 96 119
3 121 110 97
3 121 97 122
3 122 97 120
3 123 119 117
3 124 98 116
3 99 109 125
3 99 125 126
3 101 99 126
3 100 102 127
3 100 127 107
3 101 126 128
3 102 101 128
3 102 128 127
3 104 106 129
3 104 129 103
3 103 129 118
3 105 108 130
3 106 105 130
3 106 130 129
3 107 127 131
3 108 107 131
3 108 131 132
3 108 132 130
3 109 134 125
3 125 134 133
3 113 111 135
3 111 110 135
3 135 110 121
3 115 112 136
3 136 112 113
3 136 113 135
3 116 114 137
3 137 114 115
3 137 115 138
3 138 115 136
3 139 124 116
3 139 116 140
3 140 116 137
3 141 135 121
3 118 129 142
3 118 142 143
3 117 118 143
3 123 117 143
3 122 120 144
3 120 119 144
3 144 119 123
3 141 121 145
3 145 121 122
3 145 122 144
3 146 141 145
3 147 144 123
3 147 123 148
3 143 148 123
3 150 124 139
3 149 150 139
3 131 127 151
3 125 133 152
3 126 125 152
3 126 152 153
3 128 126 153
3 128 153 154
3 128 154 127
3 127 154 151
3 152 133 155
3 130 132 156
3 130 156 129
3 129 156 142
3 131 151 157
3 132 131 157
3 132 157 156
3 156 158 142
3 157 151 159
3 133 160 155
3 134 161 133
3 133 161 160
3 138 136 162
3 136 135 162
3 162 135 141
3 140 137 163
3 163 137 138
3 163 138 162
3 149 139 164
3 164 139 140
3 164 140 165
3 165 140 163
3 166 149 164
3 167 162 141
3 167 141 146
3 142 158 168
3 143 142 168
3 143 168 148
3 146 145 169
3 145 144 169
3 169 144 147
3 170 167 146
3 170 146 169
3 171 169 147
3 171 147 148
3 171 148 172
3 168 172 148
3 173 149 166
3 174 150 149
3 173 174 149
3 154 175 151
3 151 175 159
3 152 155 176
3 153 152 176
3 153 176 177
3 153 177 154
3 154 177 175
3 155 160 178
3 155 178 179
3 176 155 179
3 156 157 180
3 156 180 158
3 157 159 181
3 157 181 180
3 158 180 182
3 158 182 168
3 159 175 183
3 159 183 181
3 175 184 183
3 160 186 178
3 178 186 185
3 161 187 160
3 160 187 186
3 165 163 188
3 163 162 188
3 188 162 167
3 166 164 189
3 189 164 165
3 189 165 188
3 190 173 166
3 190 166 191
3 191 166 189
3 192 188 167
3 192 167 170
3 193 192 170
3 182 194 168
3 194 172 168
3 193 170 195
3 170 169 195
3 195 169 171
3 196 195 171
3 196 171 172
3 194 197 172
3 197 198 172
3 198 196 172
3 200 173 190
3 199 200 190
3 201 174 173
3 200 201 173
3 176 179 202
3 177 176 202
3 177 202 175
3 175 202 184
3 178 185 203
3 178 203 179
3 179 203 202
3 203 185 204
3 202 205 184
3 183 206 181
3 180 181 206
3 180 206 182
3 182 206 194
3 183 184 207
3 205 207 184
3 183 207 206
3 185 208 204
3 186 209 185
3 185 209 208
3 187 210 186
3 186 210 209
3 191 189 211
3 189 188 211
3 211 188 192
3 199 190 212
3 212 190 191
3 212 191 211
3 213 199 212
3 214 211 192
3 214 192 193
3 215 214 193
3 215 193 195
3 206 216 194
3 216 197 194
3 216 217 197
3 215 195 218
3 218 195 196
3 198 218 196
3 217 219 197
3 219 218 198
3 197 219 198
3 220 199 213
3 221 200 199
3 220 221 199
3 222 201 200
3 221 222 200
3 203 204 223
3 203 223 202
3 202 223 205
3 204 208 224
3 204 224 223
3 205 223 225
3 205 225 207
3 207 225 226
3 207 226 206
3 226 216 206
3 208 228 224
3 224 228 227
3 209 229 208
3 229 228 208
3 210 230 209
3 209 230 229
3 213 212 231
3 212 211 231
3 231 211 214
3 232 220 213
3 232 213 231
3 233 231 214
3 233 214 215
3 234 233 215
3 234 215 218
3 226 235 216
3 235 217 216
3 235 236 217
3 217 236 219
3 237 234 218
3 237 218 219
3 236 238 219
3 238 237 219
3 240 220 232
3 239 240 232
3 241 221 220
3 240 241 220
3 242 222 221
3 241 242 221
3 224 227 243
3 224 243 223
3 223 243 225
3 225 243 244
3 225 244 226
3 226 244 235
3 227 245 243
3 228 246 227
3 227 246 245
3 229 247 228
3 228 247 246
3 230 248 229
3 229 248 247
3 239 232 249
3 232 231 249
3 249 231 233
3 250 249 233
3 250 233 234
3 237 250 234
3 244 251 235
3 235 251 236
3 251 252 236
3 236 252 238
3 252 253 238
3 253 250 237
3 253 237 238
3 254 239 249
3 255 240 239
3 254 255 239
3 256 241 240
3 255 256 240
3 257 242 241
3 256 257 241
3 245 258 243
3 243 258 244
3 244 258 251
3 245 259 258
3 246 260 245
3 245 260 259
3 247 261 246
3 246 261 260
3 248 262 247
3 247 262 261
3 254 249 263
3 263 249 250
3 253 263 250
3 258 264 251
3 251 264 252
3 264 265 252
3 265 263 253
3 252 265 253
3 266 254 263
3 267 255 254
3 266 267 254
3 268 256 255
3 267 268 255
3 269 257 256
3 268 269 256
3 259 270 258
3 270 264 258
3 260 271 259
3 259 271 270
3 261 272 260
3 260 272 271
3 262 273 261
3 273 272 261
3 270 274 264
3 275 266 263
3 275 263 265
3 274 276 264
3 276 265 264
3 276 277 265
3 277 275 265
3 278 267 266
3 275 278 266
3 279 268 267
3 278 279 267
3 280 269 268
3 279 280 268
3 271 281 270
3 270 281 274
3 272 282 271
3 271 282 281
3 273 283 272
3 272 283 282
3 281 284 274
3 274 284 276
3 285 278 275
3 277 285 275
3 284 286 276
3 286 285 277
3 276 286 277
3 287 279 278
3 285 287 278
3 288 280 279
3 287 288 279
3 282 289 281
3 281 289 284
3 283 290 282
3 282 290 289
3 289 291 284
3 284 291 286
3 291 292 286
3 292 287 285
3 286 292 285
3 293 288 287
3 292 293 287
3 290 294 289
3 289 294 291
3 294 295 291
3 295 293 292
3 291 295 292
CELL_TYPES 542
5
5
5
5
5
5
5
5
5
5
5
5
5
5
5
5
5
5
5
5
5
5
5
5
5
5
5
5
5
5
5
5
5
5
5
5
5
5
5
5
5
5
5
5
5
5
5
5
5
5
5
5
5
5
5
5
5
5
5
5
5
5
5
5
5
5
5
5
5
5
5
5
5
5
5
5
5
5
5
5
5
5
5
5
5
5
5
5
5
5
5
5
5
5
5
5
5
5
5
5
5
5
5
5
5
5
5
5
5
5
5
5
5
5
5
5
5
5
5
5
5
5
5
5
5
5
5
5
5
5
5
5
5
5
5
5
5
5
5
5
5
5
5
5
5
5
5
5
5
5
5
5
5
5
5
5
5
5
5
5
5
5
5
5
5
5
5
5
5
5
5
5
5
5
5
5
5
5
5
5
5
5
5
5
5
5
5
5
5
5
5
5
5
5
5
5
5
5
5
5
5
5
5
5
5
5
5
5
5
5
5
5
5
5
5
5
5
5
5
5
5
5
5
5
5
5
5
5
5
5
5
5
5
5
5
5
5
5
5
5
5
5
5
5
5
5
5
5
5
5
5
5
5
5
5
5
5
5
5
5
5
5
5
5
5
5
5
5
5
5
5
5
5
5
5
5
5
5
5
5
5
5
5
5
5
5
5
5
5
5
5
5
5
5
5
5
5
5
5
5
5
5
5
5
5
5
5
5
5
5
5
5
5
5
5
5
5
5
5
5
5
5
5
5
5
5
5
5
5
5
5
5
5
5
5
5
5
5
5
5
5
5
5
5
5
5
5
5
5
5
5
5
5
5
5
5
5
5
5
5
5
5
5
5
5
5
5
5
5
5
5
5
5
5
5
5
5
5
5
5
5
5
5
5
5
5
5
5
5
5
5
5
5
5
5
5
5
5
5
5
5
5
5
5
5
5
5
5
5
5
5
5
5
5
5
5
5
5
5
5
5
5
5
5
5
5
5
5
5
5
5
5
5
5
5
5
5
5
5
5
5
5
5
5
5
5
5
5
5
5
5
5
5
5
5
5
5
5
5
5
5
5
5
5
5
5
5
5
5
5
5
5
5
5
5
5
5
5
5
5
5
5
5
5
5
5
5
5
5
5
5
5
5
5
5
5
5
5
5
5
5
5
5
5
5
5
5
5
5
5
5
5
5
5
5
5
5
5
5
5
5
5
5
5
5
5
5
5
5
5
5
5
5
5
5
5
5
5
5
5
5
5
POINT_DATA 296
SCALARS concentrations float 4
LOOKUP_TABLE default
0 0.945693 0.100736 40.1397
0 0.945758 0.101325 97.2278
0 0.94562 0.102651 159.294
0 0.945578 0.103728 87.9702
0 0.945599 0.09224 9.26218
0 0.945834 0.104463 41.2595
0 0.945525 0.101106 38.2401
0 0.945656 0.0920527 4.15311
0 0.945732 0.092318 4.65766
0 0.945319 0.108795 224.987
0 0.945294 0.0964538 20.8417
0 0.94552 0.098125 44.7182
0 0.94547 0.104574 163.496
0 0.945539 0.0923684 11.7823
0 0.945488 0.0920014 10.1104
0 0.945493 0.0913126 1.43509
0 0.945545 0.0913827 1.23755
0 0.945636 0.0927826 9.80531
0 0.9454 0.0928577 18.4854
0 0.94559 0.0914627 1.95363
0 0.945575 0.0915193 3.23384
0 0.945194 0.100425 61.3344
0 0.944959 0.105693 116.048
0 0.945317 0.0927731 22.211
0 0.945275 0.0924117 12.5336
0 0.945446 0.0923227 9.84415
0 0.945188 0.0992845 18.7877
0 0.945308 0.0922846 8.61062
0 0.944897 0.0995465 30.4528
0 0.945445 0.0911897 1.03945
0 0.945403 0.0913614 1.90969
0 0.945455 0.0911293 0.925897
0 0.944958 0.0964682 28.8247
0 0.945488 0.0911063 0.744373
0 0.94552 0.0911608 0.742468
0 0.945484 0.0915679 4.58493
0 0.945384 0.0914693 5.49054
0 0.94552 0.0911517 1.23201
0 0.945497 0.0912401 2.17439
0 0.945141 0.0924583 10.1803
0 0.945033 0.0922093 9.21506
0 0.945331 0.0914365 6.55345
0 0.94528 0.0914255 4.71156
0 0.945149 0.0996622 89.2817
0 0.945334 0.0914079 3.00571
0 0.945078 0.0921123 7.92416
0 0.945224 0.0914092 3.5821
0 0.944648 0.106142 52.8964
0 0.944854 0.0924057 5.69609
0 0.944808 0.0964587 4.38242
0 0.945426 0.0911219 0.901212
0 0.945385 0.0911239 0.145366
0 0.945475 0.0910291 0.798012
0 0.945102 0.0926387 10.4299
0 0.945293 0.0929768 16.5827
0 0.9455 0.0910247 0.309715
0 0.945453 0.0911992 2.60186
0 0.945403 0.0911784 2.87819
0 0.945491 0.0910294 0.714982
0 0.945232 0.0915459 4.91646
0 0.945208 0.0916117 4.26376
0 0.945385 0.0910889 1.80985
0 0.945343 0.0911981 2.68883
0 0.945448 0.10733 65.0715
0 0.945351 0.0910701 0.860121
0 0.945102 0.0914252 1.74555
0 0.945281 0.0911391 1.17882
0 0.944837 0.0925543 6.43575
0 0.945058 0.0914403 0.855305
0 0.944978 0.0972468 132.328
0 0.944991 0.092047 8.05605
0 0.945281 0.101022 40.2951
0 0.945508 0.0909966 0.547393
0 0.945439 0.0910223 0.863147
0 0.945496 0.0910377 0.938338
0 0.945252 0.0917367 5.21099
0 0.945436 0.0926155 14.367
0 0.945322 0.0917255 4.00505
0 0.945511 0.0909971 0.167769
0 0.945533 0.0909827 0.146863
0 0.945456 0.0910109 0.671235
0 0.945499 0.0909792 0.104508
0 0.94534 0.09126 3.04183
0 0.945316 0.0914176 2.6874
0 0.945426 0.0910058 1.02162
0 0.945516 0.0981488 13.0628
0 0.945411 0.0910115 0.944338
0 0.945281 0.0911347 1.43433
0 0.945111 0.091567 3.52407
0 0.945265 0.0912551 1.97754
0 0.945204 0.0922183 7.43721
0 0.945256 0.0915451 3.44924
0 0.945446 0.101297 135.194
0 0.945428 0.0919696 6.30674
0 0.945538 0.090998 0.557737
0 0.945484 0.0910494 1.11902
0 0.945534 0.0910382 1.02414
0 0.945494 0.0910803 0.938607
0 0.945598 0.101538 37.6735
0 0.945445 0.0920051 1.84541
0 0.945345 0.0914517 1.73961
0 0.945365 0.0916432 2.91594
0 0.945354 0.0915177 1.0898
0 0.945555 0.090984 0.112928
0 0.945533 0.0909776 0.285773
0 0.945483 0.090999 0.524868
0 0.945522 0.0909842 0.50873
0 0.945409 0.0911769 1.94939
0 0.945468 0.0910616 1.01771
0 0.94551 0.0984195 30.8098
0 0.945434 0.0910595 1.42791
0 0.945365 0.0912455 1.90055
0 0.94542 0.0914012 1.03063
0 0.945438 0.0912382 0.937383
0 0.945561 0.0918891 4.85553
0 0.945566 0.0912473 1.5481
0 0.94572 0.0922108 3.2791
0 0.945573 0.0910018 0.35654
0 0.945567 0.0910004 0.276449
0 0.945564 0.0910085 0.727949
0 0.945545 0.0910535 1.16617
0 0.94553 0.0910972 1.86164
0 0.945555 0.0910855 1.43169
0 0.945585 0.0910341 0.755056
0 0.9458 0.100915 48.5024
0 0.945468 0.0923417 9.27713
0 0.945388 0.0914283 1.95618
0 0.94541 0.0912616 1.54264
0 0.94538 0.0913769 0.64683
0 0.945548 0.0910189 0.845331
0 0.945519 0.0910317 0.902509
0 0.945464 0.0910954 1.44838
0 0.945508 0.091084 1.13283
0 0.945459 0.0921539 11.3272
0 0.945527 0.103154 52.7773
0 0.945517 0.0911059 1.61272
0 0.945549 0.0910478 1.08196
0 0.945673 0.0914062 1.62062
0 0.945625 0.0911485 2.22259
0 0.945831 0.0921043 5.46141
0 0.945746 0.0915455 1.08157
0 0.945579 0.0912257 2.92442
0 0.945568 0.091022 0.756584
0 0.945583 0.0910134 0.228567
0 0.945581 0.0910586 1.1939
0 0.945582 0.091133 2.08588
0 0.945596 0.0911294 1.98258
0 0.945594 0.091069 1.10349
0 0.945592 0.0910407 0.68825
0 0.945901 0.0921965 9.53007
0 0.945924 0.0983827 20.5309
0 0.945466 0.0911211 1.72631
0 0.945411 0.0912759 1.78217
0 0.945402 0.0912165 0.269608
0 0.94543 0.0911705 1.53802
0 0.945454 0.0913972 2.69521
0 0.945543 0.0910586 1.14975
0 0.945515 0.0911007 1.42533
0 0.945567 0.0910367 0.889663
0 0.945506 0.0911218 2.01274
0 0.945499 0.0919013 6.23118
0 0.945467 0.0997635 12.6007
0 0.945599 0.0912058 2.86371
0 0.945663 0.0912488 1.77565
0 0.94577 0.0916852 3.21656
0 0.945689 0.0913865 1.55025
0 0.945695 0.0915121 2.68354
0 0.945601 0.0910963 1.67178
0 0.945584 0.0910104 0.267776
0 0.945594 0.0910698 1.17318
0 0.945592 0.0910272 0.592795
0 0.945595 0.0910565 0.923185
0 0.945591 0.0910166 0.444568
0 0.945724 0.0916664 3.87104
0 0.945982 0.10137 140.318
0 0.945483 0.0910891 2.07738
0 0.945441 0.0910897 0.610103
0 0.945451 0.0910825 1.56549
0 0.945515 0.0915087 2.22094
0 0.94548 0.0912494 1.15308
0 0.945553 0.0910746 1.16937
0 0.945541 0.0910911 1.65802
0 0.945574 0.0910224 0.647075
0 0.945533 0.0910925 1.71851
0 0.945518 0.0910895 1.55297
0 0.945568 0.0916094 2.76054
0 0.94561 0.0921207 4.38613
0 0.9456 0.100551 3.50057
0 0.945614 0.0911075 1.63326
0 0.945636 0.0912953 1.80092
0 0.945509 0.0915337 1.03339
0 0.945561 0.0912953 1.73743
0 0.945579 0.0909989 0.310734
0 0.945571 0.0910423 0.285408
0 0.945584 0.091 0.491993
0 0.945585 0.0910416 0.628099
0 0.945589 0.0910425 0.799925
0 0.945587 0.0909962 0.469832
0 0.945586 0.0910165 0.654136
0 0.945342 0.0917068 0.322501
0 0.945369 0.0921174 3.52456
0 0.945547 0.0950928 18.4598
0 0.945497 0.0910921 1.31886
0 0.945524 0.0913203 1.68422
0 0.945562 0.0913803 1.95911
0 0.945538 0.0910804 1.19287
0 0.945566 0.0910478 0.686031
0 0.945555 0.0910718 0.944284
0 0.945587 0.0915569 2.36625
0 0.945606 0.092596 3.77409
0 0.94566 0.100207 37.5023
0 0.945545 0.0909912 0.356838
0 0.945457 0.0911931 0.615081
0 0.945366 0.091289 0.739229
0 0.945527 0.0910844 0.560926
0 0.94555 0.0910637 0.323805
0 0.945582 0.0910112 0.364585
0 0.945586 0.0909957 0.318688
0 0.94557 0.0910334 0.692226
0 0.945577 0.0909952 0.747115
0 0.945261 0.0916724 2.72551
0 0.945245 0.0931405 2.26213
0 0.945241 0.100763 108.995
0 0.945552 0.0911327 1.03674
0 0.945579 0.0912311 1.23733
0 0.945569 0.0910636 0.458139
0 0.945576 0.0910492 0.290782
0 0.945592 0.0911724 0.995353
0 0.945579 0.0914744 2.40937
0 0.945571 0.0923841 6.58431
0 0.945578 0.102345 67.3988
0 0.945457 0.0911327 1.35623
0 0.945345 0.091204 1.31182
0 0.94549 0.0911344 0.854636
0 0.945533 0.0910638 0.425846
0 0.945587 0.0910116 0.117724
0 0.945583 0.0909928 0.523784
0 0.945547 0.0910215 0.733763
0 0.945563 0.0910082 1.0501
0 0.945318 0.0912883 2.52479
0 0.945246 0.091543 3.41604
0 0.945208 0.0931689 4.86649
0 0.945227 0.108926 86.356
0 0.945587 0.0910473 0.427396
0 0.94559 0.0910387 0.169868
0 0.945609 0.0910888 0.85507
0 0.945594 0.0913805 1.77422
0 0.945547 0.0917515 3.72445
0 0.945543 0.0982306 33.9766
0 0.94542 0.0911728 1.01543
0 0.945487 0.0910572 0.258996
0 0.945594 0.0910014 0.493342
0 0.945569 0.090999 1.14708
0 0.945522 0.0910403 1.36595
0 0.945345 0.0912807 2.01983
0 0.945261 0.0915293 5.09044
0 0.94525 0.0923375 5.95975
0 0.945201 0.101545 39.5587
0 0.945608 0.0910313 0.690015
0 0.94563 0.0911781 1.24653
0 0.945625 0.0913113 1.19833
0 0.945599 0.092012 3.66763
0 0.945523 0.0979184 85.6385
0 0.945448 0.0910805 0.324386
0 0.945596 0.0910535 1.5506
0 0.945527 0.0910369 1.82332
0 0.945349 0.0912109 1.46525
0 0.945257 0.0913822 3.5113
0 0.945289 0.0920932 9.7742
0 0.945345 0.101618 5.61573
0 0.945632 0.0912356 2.13766
0 0.945637 0.0914352 3.50665
0 0.945651 0.0920163 5.33495
0 0.945659 0.101138 8.9182
0 0.945625 0.091319 3.37328
0 0.945422 0.0910848 0.452427
0 0.945578 0.0911932 2.73889
0 0.945494 0.0911496 2.13364
0 0.94527 0.091249 2.72393
0 0.945161 0.0917894 6.61907
0 0.945231 0.103415 109.909
0 0.945638 0.0915698 4.78804
0 0.945561 0.0920489 10.3623
0 0.945589 0.0978641 6.62614
0 0.94562 0.0915096 5.67409
0 0.945373 0.0912839 1.75777
0 0.945526 0.0913451 3.32871
0 0.945166 0.0916024 4.89069
0 0.945049 0.0970619 66.3244
0 0.945621 0.0922968 10.2796
0 0.945499 0.101822 64.2529
0 0.945617 0.0922573 8.54655
0 0.945373 0.0918549 8.68644
0 0.945189 0.100224 37.0052
0 0.945696 0.0993441 49.0546
0 0.945484 0.0995994 56.2399
VECTORS fa_u float
0.00764818 0.00311047 -0
0.00563845 0.0032547 -0
0.00351851 0.000956987 -0
0.00911852 0.00129222 -0
1e-08 0 0
0.00580141 0.0044693 -0
0.00422703 0.0042366 -0
1e-08 0 0
1e-08 0 0
0.00337932 0.00432401 -0
0.0040636 0.00689316 -0
0.00591275 1.61235e-05 -0
0.00614846 -0.000751005 0
1e-08 0 0
1e-08 0 0
1e-08 0 0
1e-08 0 0
1e-08 0 0
1e-08 0 0
1e-08 0 0
1e-08 0 0
0.00263493 0.00631684 -0
0.00196033 0.00739814 -0
1e-08 0 0
1e-08 0 0
1e-08 0 0
0.00833843 -0.00220507 0
1e-08 0 0
0.00678454 -0.00288127 0
1e-08 0 0
1e-08 0 0
1e-08 0 0
0.00080023 0.00635956 -0
1e-08 0 0
1e-08 0 0
1e-08 0 0
1e-08 0 0
1e-08 0 0
1e-08 0 0
1e-08 0 0
1e-08 0 0
1e-08 0 0
1e-08 0 0
-5.68235e-05 0.0074266 -0
1e-08 0 0
1e-08 0 0
1e-08 0 0
0.00550024 -0.00325393 0
1e-08 0 0
0.00507948 -0.00395836 0
1e-08 0 0
1e-08 0 0
1e-08 0 0
1e-08 0 0
1e-08 0 0
1e-08 0 0
1e-08 0 0
1e-08 0 0
1e-08 0 0
1e-08 0 0
1e-08 0 0
1e-08 0 0
1e-08 0 0
-0.000798975 0.00577173 0
1e-08 0 0
1e-08 0 0
1e-08 0 0
1e-08 0 0
1e-08 0 0
0.00392997 -0.00393323 0
1e-08 0 0
0.0033197 -0.00421559 0
1e-08 0 0
1e-08 0 0
1e-08 0 0
1e-08 0 0
1e-08 0 0
1e-08 0 0
1e-08 0 0
1e-08 0 0
1e-08 0 0
1e-08 0 0
1e-08 0 0
1e-08 0 0
1e-08 0 0
-0.00144577 0.00547035 0
1e-08 0 0
1e-08 0 0
1e-08 0 0
1e-08 0 0
1e-08 0 0
1e-08 0 0
0.0045224 -0.00766086 0
1e-08 0 0
1e-08 0 0
1e-08 0 0
1e-08 0 0
1e-08 0 0
0.00296202 -0.00726867 0
1e-08 0 0
1e-08 0 0
1e-08 0 0
1e-08 0 0
1e-08 0 0
1e-08 0 0
1e-08 0 0
1e-08 0 0
1e-08 0 0
1e-08 0 0
-0.00307084 0.0074678 0
1e-08 0 0
1e-08 0 0
1e-08 0 0
1e-08 0 0
1e-08 0 0
1e-08 0 0
1e-08 0 0
1e-08 0 0
1e-08 0 0
1e-08 0 0
1e-08 0 0
1e-08 0 0
1e-08 0 0
1e-08 0 0
0.00138121 -0.00524856 0
1e-08 0 0
1e-08 0 0
1e-08 0 0
1e-08 0 0
1e-08 0 0
1e-08 0 0
1e-08 0 0
1e-08 0 0
1e-08 0 0
-0.00344405 0.00590376 0
1e-08 0 0
1e-08 0 0
1e-08 0 0
1e-08 0 0
1e-08 0 0
1e-08 0 0
1e-08 0 0
1e-08 0 0
1e-08 0 0
1e-08 0 0
1e-08 0 0
1e-08 0 0
1e-08 0 0
1e-08 0 0
1e-08 0 0
0.000846584 -0.00621837 0
1e-08 0 0
1e-08 0 0
1e-08 0 0
1e-08 0 0
1e-08 0 0
1e-08 0 0
1e-08 0 0
1e-08 0 0
1e-08 0 0
1e-08 0 0
-0.0037423 0.00485487 0
1e-08 0 0
1e-08 0 0
1e-08 0 0
1e-08 0 0
1e-08 0 0
1e-08 0 0
1e-08 0 0
1e-08 0 0
1e-08 0 0
1e-08 0 0
1e-08 0 0
1e-08 0 0
2.29674e-05 -0.00738146 0
1e-08 0 0
1e-08 0 0
1e-08 0 0
1e-08 0 0
1e-08 0 0
1e-08 0 0
1e-08 0 0
1e-08 0 0
1e-08 0 0
1e-08 0 0
1e-08 0 0
1e-08 0 0
-0.0042162 0.00425415 0
1e-08 0 0
1e-08 0 0
1e-08 0 0
1e-08 0 0
1e-08 0 0
1e-08 0 0
1e-08 0 0
1e-08 0 0
1e-08 0 0
1e-08 0 0
1e-08 0 0
1e-08 0 0
1e-08 0 0
-0.000812604 -0.00625918 0
1e-08 0 0
1e-08 0 0
1e-08 0 0
1e-08 0 0
1e-08 0 0
1e-08 0 0
1e-08 0 0
1e-08 0 0
-0.00470365 0.00369824 0
1e-08 0 0
1e-08 0 0
1e-08 0 0
1e-08 0 0
1e-08 0 0
1e-08 0 0
1e-08 0 0
1e-08 0 0
1e-08 0 0
1e-08 0 0
1e-08 0 0
-0.00188164 -0.0070469 0
1e-08 0 0
1e-08 0 0
1e-08 0 0
1e-08 0 0
1e-08 0 0
1e-08 0 0
1e-08 0 0
-0.00684001 0.00403788 0
1e-08 0 0
1e-08 0 0
1e-08 0 0
1e-08 0 0
1e-08 0 0
1e-08 0 0
1e-08 0 0
1e-08 0 0
1e-08 0 0
1e-08 0 0
1e-08 0 0
-0.00225701 -0.00547836 0
1e-08 0 0
1e-08 0 0
1e-08 0 0
1e-08 0 0
1e-08 0 0
-0.00781861 0.00320069 0
1e-08 0 0
1e-08 0 0
1e-08 0 0
1e-08 0 0
1e-08 0 0
1e-08 0 0
1e-08 0 0
1e-08 0 0
-0.00432617 -0.00744592 0
1e-08 0 0
1e-08 0 0
1e-08 0 0
1e-08 0 0
-0.00474048 0.00125659 0
1e-08 0 0
1e-08 0 0
1e-08 0 0
1e-08 0 0
1e-08 0 0
1e-08 0 0
-0.00410905 -0.00523143 0
1e-08 0 0
1e-08 0 0
1e-08 0 0
-0.00792585 0.00105 0
1e-08 0 0
1e-08 0 0
1e-08 0 0
1e-08 0 0
1e-08 0 0
1e-08 0 0
-0.00363845 -0.00361899 0
1e-08 0 0
1e-08 0 0
-0.00719326 -5.43872e-05 0
1e-08 0 0
1e-08 0 0
1e-08 0 0
1e-08 0 0
-0.00596533 -0.00459408 0
1e-08 0 0
-0.00566135 -0.000774026 0
1e-08 0 0
1e-08 0 0
-0.00510935 -0.00296256 0
-0.00589605 -0.00155856 0
-0.00742036 -0.00307099 0
