# vtk DataFile Version 2.0
CellBP Time: 0.36
ASCII
DATASET UNSTRUCTURED_GRID
POINTS 296 double
-9.19152 -3.77801 0
-8.60038 -4.94441 0
-9.60469 -2.53703 0
-9.85488 -1.25398 0
-8.35719 -2.81878 0
-7.88349 -6.03781 0
-7.01508 -7.01521 0
-7.91698 -3.87425 0
-7.34219 -4.86748 0
-6.03264 -7.87706 0
-4.94438 -8.60024 0
-9.94095 0.0499981 0
-9.85886 1.35455 0
-8.65712 -1.68394 0
-8.78586 -0.529487 0
-7.58926 -2.004 0
-7.22531 -2.90621 0
-6.63738 -5.77848 0
-5.82212 -6.59665 0
-6.78983 -3.88854 0
-6.22017 -4.67558 0
-3.7731 -9.17957 0
-2.53745 -9.6063 0
-4.90635 -7.30861 0
-3.91286 -7.88617 0
-8.79253 0.643486 0
-9.60466 2.63708 0
-8.62329 1.77421 0
-9.18203 3.87414 0
-7.7439 -0.928832 0
-7.79424 0.0803969 0
-6.95216 -1.31569 0
-1.25474 -9.86057 0
-6.44112 -2.15292 0
-6.31901 -3.05585 0
-5.53621 -5.47431 0
-4.79564 -6.1153 0
-5.65865 -3.75674 0
-5.26899 -4.56132 0
-2.8659 -8.36414 0
-1.77856 -8.64052 0
-3.92796 -6.72352 0
-3.05653 -7.15276 0
0.0499961 -9.94703 0
-7.70543 1.14363 0
-8.33889 2.9156 0
-7.55198 2.11204 0
-8.60434 5.04672 0
-7.88024 3.97824 0
-7.88233 6.13682 0
-6.77841 -0.396696 0
-6.95634 0.552682 0
-5.77116 -1.00328 0
-0.590773 -8.80982 0
0.565672 -8.77085 0
-5.30284 -2.48007 0
-4.49159 -5.09553 0
-3.90221 -5.77522 0
-4.43865 -3.80458 0
-2.06231 -7.56219 0
-1.13543 -7.78609 0
-2.99436 -6.1021 0
-2.30895 -6.61997 0
1.35463 -9.86037 0
-6.68941 1.42212 0
-7.17231 3.11819 0
-6.65931 2.37308 0
-7.29474 4.98863 0
-6.71816 4.00304 0
-7.01724 7.11714 0
-6.57248 5.89408 0
-6.03171 7.97569 0
-4.45307 -1.18102 0
-5.81452 0.513795 0
-4.65618 -0.010388 0
0.00851653 -7.84823 0
1.73865 -8.64378 0
0.948935 -7.76351 0
-4.03842 -2.4063 0
-3.48565 -1.39121 0
-3.29435 -4.80528 0
-3.26585 -3.26776 0
-1.37856 -6.67562 0
-0.508773 -7.02508 0
-1.9755 -5.53713 0
2.63629 -9.60245 0
-5.50732 2.03699 0
-6.09477 3.07221 0
-6.10517 4.86959 0
-5.76177 3.9914 0
-5.76134 6.71696 0
-5.45217 5.61926 0
-4.94626 8.70366 0
-4.83833 7.40438 0
-3.50159 -0.424284 0
-4.44932 1.24909 0
-3.71153 0.592126 0
-4.06218 2.31994 0
-3.77557 9.28556 0
2.86238 -8.33291 0
0.4196 -6.79551 0
2.02192 -7.5259 0
1.30598 -6.90562 0
-2.44476 -0.873811 0
-2.83845 -2.13117 0
-2.29441 -4.09744 0
-2.32568 -2.97366 0
-0.442426 -5.86124 0
-1.22268 -4.49927 0
3.87415 -9.18242 0
-4.78979 3.39179 0
-5.08798 4.59406 0
-4.64719 6.28134 0
-4.53889 5.35964 0
-3.84365 7.99354 0
-3.82669 6.84563 0
-2.78333 8.42312 0
-1.64913 -0.137861 0
-1.45031 -0.890614 0
-2.48923 0.507349 0
-3.25369 1.44426 0
-3.23905 3.3166 0
-2.91105 2.37193 0
-1.35519 0.627198 0
-2.5365 9.70298 0
3.93264 -7.88703 0
2.96438 -7.15779 0
0.953994 -5.82207 0
2.07422 -6.41559 0
-1.683 -1.99214 0
-1.43442 -3.27789 0
0.0902035 -4.74709 0
-0.566133 -3.69458 0
4.93194 -7.319 0
5.04932 -8.60908 0
-3.77695 4.55155 0
-3.73478 5.7521 0
-2.88795 7.28999 0
-3.00971 6.35375 0
-1.66272 8.73412 0
-1.94016 7.61967 0
-2.33841 4.05168 0
-0.73074 -1.32732 0
-0.836937 -0.257614 0
-1.93632 1.68094 0
-2.12585 2.87597 0
-1.30664 3.54483 0
-0.869548 1.35097 0
-0.282409 0.456106 0
-0.533801 8.87206 0
-1.25423 9.95694 0
1.11273 -4.57467 0
3.90994 -6.71734 0
2.98779 -6.09487 0
2.11775 -5.42501 0
4.78426 -6.20546 0
-0.558833 -2.47695 0
0.495134 -3.46399 0
0.0535723 -1.6106 0
1.48186 -3.68225 0
5.86692 -6.61484 0
6.13001 -7.87374 0
-2.47569 5.34846 0
-2.13046 6.53462 0
-0.904161 7.80376 0
-1.27235 6.93234 0
0.0861991 7.88091 0
-1.14448 4.49483 0
0.150317 -0.617676 0
-0.797532 2.48872 0
-0.331718 3.60098 0
0.0630529 1.51287 0
0.741428 0.473466 0
0.646852 8.87472 0
0.0499683 10.0448 0
2.38092 -4.28528 0
3.85907 -5.64056 0
3.00137 -5.21284 0
5.57379 -5.49199 0
4.69096 -5.28315 0
0.629725 -2.29354 0
1.25619 -2.95135 0
0.757535 -1.39157 0
2.16433 -3.13593 0
2.99376 -3.47668 0
6.15542 -4.79193 0
6.65568 -5.7694 0
7.11507 -7.01503 0
-1.01961 5.82054 0
-0.372578 6.88401 0
1.12282 7.77036 0
0.558095 7.0804 0
-0.000763261 4.72546 0
0.607002 3.82811 0
1.33896 -0.641954 0
0.539069 2.65126 0
0.96607 1.57508 0
1.91026 0.213878 0
1.6148 1.06513 0
2.12976 7.58456 0
1.79966 8.71337 0
1.35421 9.95706 0
3.82282 -4.3517 0
5.1167 -4.44916 0
5.8461 -3.93533 0
3.78406 -3.20118 0
1.81234 -1.88279 0
3.01921 -2.57404 0
6.78405 -3.94814 0
7.38205 -4.89698 0
7.97343 -6.02986 0
0.483456 5.88199 0
1.42841 6.74272 0
2.37474 6.67006 0
1.21007 4.5566 0
1.48826 3.39794 0
2.4359 -0.692093 0
2.8282 0.142627 0
1.78896 2.16306 0
2.61204 1.15028 0
3.07255 7.17128 0
2.90469 8.37814 0
2.63724 9.70611 0
4.91151 -3.32804 0
6.12128 -3.10895 0
4.17307 -2.27544 0
3.24459 -1.50305 0
6.73223 -2.31338 0
7.23311 -3.043 0
7.9662 -3.91263 0
8.70341 -4.94607 0
2.02389 5.60051 0
3.08694 6.15461 0
2.36416 4.12736 0
2.42029 3.06122 0
3.5259 -0.460889 0
3.61597 0.613401 0
2.96206 2.28834 0
3.54584 1.52545 0
4.01278 5.89924 0
3.98524 6.79464 0
3.97415 7.94037 0
3.87378 9.28159 0
5.56941 -1.91641 0
4.50958 -1.12972 0
6.71507 -1.33638 0
7.59407 -2.03687 0
8.39886 -2.86218 0
9.29072 -3.77775 0
3.4195 4.87775 0
3.33929 3.38579 0
4.69169 0.130116 0
4.51953 1.3101 0
4.06563 2.44406 0
4.57137 5.15365 0
4.84479 6.19242 0
4.98163 7.38229 0
5.04628 8.70371 0
5.88434 -0.435032 0
7.01245 -0.488431 0
7.76146 -1.08554 0
8.6869 -1.74625 0
9.69747 -2.53515 0
4.55306 3.82826 0
5.81867 1.09867 0
5.37202 2.53531 0
5.38127 4.62186 0
5.61356 5.52521 0
5.89871 6.67383 0
6.13663 7.98225 0
6.84785 0.463512 0
7.85566 -0.0256884 0
8.86293 -0.58451 0
9.96043 -1.25463 0
6.96243 1.34966 0
5.72245 3.77949 0
6.54316 2.19794 0
6.38186 3.08877 0
6.29413 4.68849 0
6.69489 5.83967 0
7.11771 7.11766 0
7.7869 0.967831 0
8.86222 0.573042 0
10.0418 0.0501381 0
7.6187 2.00476 0
6.83106 3.90541 0
7.27177 2.94753 0
7.38025 4.88736 0
7.9832 6.13728 0
8.72592 1.72743 0
9.96207 1.35507 0
8.42368 2.83829 0
7.9839 3.91727 0
8.70179 5.04505 0
9.70935 2.63824 0
9.28207 3.87393 0
CELLS 542 2168
3 2 0 4
3 0 1 7
3 4 0 7
3 1 5 8
3 7 1 8
3 3 2 13
3 13 2 4
3 11 3 14
3 14 3 13
3 13 4 15
3 4 7 16
3 15 4 16
3 5 6 17
3 8 5 17
3 6 9 18
3 17 6 18
3 7 8 19
3 16 7 19
3 8 17 20
3 19 8 20
3 9 10 23
3 18 9 23
3 10 21 24
3 23 10 24
3 12 11 25
3 25 11 14
3 26 12 27
3 27 12 25
3 14 13 29
3 29 13 15
3 25 14 30
3 30 14 29
3 29 15 31
3 15 16 33
3 31 15 33
3 16 19 34
3 33 16 34
3 17 18 35
3 20 17 35
3 18 23 36
3 35 18 36
3 19 20 37
3 34 19 37
3 20 35 38
3 37 20 38
3 21 22 39
3 24 21 39
3 22 32 40
3 39 22 40
3 23 24 41
3 36 23 41
3 24 39 42
3 41 24 42
3 27 25 44
3 44 25 30
3 28 26 45
3 45 26 27
3 45 27 46
3 46 27 44
3 47 28 48
3 48 28 45
3 30 29 50
3 50 29 31
3 44 30 51
3 51 30 50
3 50 31 52
3 31 33 52
3 32 43 53
3 40 32 53
3 53 43 54
3 33 34 55
3 34 37 55
3 33 55 52
3 35 36 56
3 38 35 56
3 36 41 57
3 56 36 57
3 37 38 58
3 38 56 58
3 37 58 55
3 39 40 59
3 42 39 59
3 40 53 60
3 59 40 60
3 41 42 61
3 57 41 61
3 42 59 62
3 61 42 62
3 43 63 54
3 46 44 64
3 64 44 51
3 48 45 65
3 65 45 46
3 65 46 66
3 66 46 64
3 49 47 67
3 67 47 48
3 67 48 68
3 68 48 65
3 69 49 70
3 70 49 67
3 52 55 72
3 64 51 73
3 51 50 73
3 50 52 73
3 73 52 74
3 74 52 72
3 53 54 75
3 60 53 75
3 54 63 76
3 54 76 77
3 75 54 77
3 55 58 78
3 72 55 78
3 72 78 79
3 56 57 80
3 57 61 80
3 56 80 58
3 58 80 81
3 78 58 81
3 59 60 82
3 62 59 82
3 60 75 83
3 82 60 83
3 61 62 84
3 62 82 84
3 61 84 80
3 63 85 76
3 66 64 86
3 64 73 86
3 68 65 87
3 87 65 66
3 87 66 86
3 70 67 88
3 88 67 68
3 88 68 89
3 89 68 87
3 71 69 90
3 90 69 70
3 90 70 91
3 91 70 88
3 92 71 93
3 93 71 90
3 74 72 94
3 94 72 79
3 86 73 95
3 95 73 74
3 95 74 96
3 96 74 94
3 97 86 95
3 76 85 99
3 75 77 100
3 83 75 100
3 76 99 101
3 77 76 101
3 77 101 102
3 100 77 102
3 94 79 103
3 78 81 104
3 79 78 104
3 79 104 103
3 80 84 105
3 81 80 105
3 81 105 106
3 104 81 106
3 82 83 107
3 83 100 107
3 82 107 84
3 84 107 108
3 105 84 108
3 85 109 99
3 89 87 110
3 87 86 110
3 110 86 97
3 91 88 111
3 111 88 89
3 111 89 110
3 93 90 112
3 112 90 91
3 112 91 113
3 113 91 111
3 98 92 114
3 114 92 93
3 114 93 115
3 115 93 112
3 116 98 114
3 117 103 118
3 96 94 119
3 94 103 119
3 119 103 117
3 97 95 120
3 120 95 96
3 120 96 119
3 121 110 97
3 121 97 122
3 122 97 120
3 123 119 117
3 124 98 116
3 99 109 125
3 99 125 126
3 101 99 126
3 100 102 127
3 100 127 107
3 101 126 128
3 102 101 128
3 102 128 127
3 104 106 129
3 104 129 103
3 103 129 118
3 105 108 130
3 106 105 130
3 106 130 129
3 107 127 131
3 108 107 131
3 108 131 132
3 108 132 130
3 109 134 125
3 125 134 133
3 113 111 135
3 111 110 135
3 135 110 121
3 115 112 136
3 136 112 113
3 136 113 135
3 116 114 137
3 137 114 115
3 137 115 138
3 138 115 136
3 139 124 116
3 139 116 140
3 140 116 137
3 141 135 121
3 118 129 142
3 118 142 143
3 117 118 143
3 123 117 143
3 122 120 144
3 120 119 144
3 144 119 123
3 141 121 145
3 145 121 122
3 145 122 144
3 146 141 145
3 147 144 123
3 147 123 148
3 143 148 123
3 150 124 139
3 149 150 139
3 131 127 151
3 125 133 152
3 126 125 152
3 126 152 153
3 128 126 153
3 128 153 154
3 128 154 127
3 127 154 151
3 152 133 155
3 130 132 156
3 130 156 129
3 129 156 142
3 131 151 157
3 132 131 157
3 132 157 156
3 156 158 142
3 157 151 159
3 133 160 155
3 134 161 133
3 133 161 160
3 138 136 162
3 136 135 162
3 162 135 141
3 140 137 163
3 163 137 138
3 163 138 162
3 149 139 164
3 164 139 140
3 164 140 165
3 165 140 163
3 166 149 164
3 167 162 141
3 167 141 146
3 142 158 168
3 143 142 168
3 143 168 148
3 146 145 169
3 145 144 169
3 169 144 147
3 170 167 146
3 170 146 169
3 171 169 147
3 171 147 148
3 171 148 172
3 168 172 148
3 173 149 166
3 174 150 149
3 173 174 149
3 154 175 151
3 151 175 159
3 152 155 176
3 153 152 176
3 153 176 177
3 153 177 154
3 154 177 175
3 155 160 178
3 155 178 179
3 176 155 179
3 156 157 180
3 156 180 158
3 157 159 181
3 157 181 180
3 158 180 182
3 158 182 168
3 159 175 183
3 159 183 181
3 175 184 183
3 160 186 178
3 178 186 185
3 161 187 160
3 160 187 186
3 165 163 188
3 163 162 188
3 188 162 167
3 166 164 189
3 189 164 165
3 189 165 188
3 190 173 166
3 190 166 191
3 191 166 189
3 192 188 167
3 192 167 170
3 193 192 170
3 182 194 168
3 194 172 168
3 193 170 195
3 170 169 195
3 195 169 171
3 196 195 171
3 196 171 172
3 194 197 172
3 197 198 172
3 198 196 172
3 200 173 190
3 199 200 190
3 201 174 173
3 200 201 173
3 176 179 202
3 177 176 202
3 177 202 175
3 175 202 184
3 178 185 203
3 178 203 179
3 179 203 202
3 203 185 204
3 202 205 184
3 183 206 181
3 180 181 206
3 180 206 182
3 182 206 194
3 183 184 207
3 205 207 184
3 183 207 206
3 185 208 204
3 186 209 185
3 185 209 208
3 187 210 186
3 186 210 209
3 191 189 211
3 189 188 211
3 211 188 192
3 199 190 212
3 212 190 191
3 212 191 211
3 213 199 212
3 214 211 192
3 214 192 193
3 215 214 193
3 215 193 195
3 206 216 194
3 216 197 194
3 216 217 197
3 215 195 218
3 218 195 196
3 198 218 196
3 217 219 197
3 219 218 198
3 197 219 198
3 220 199 213
3 221 200 199
3 220 221 199
3 222 201 200
3 221 222 200
3 203 204 223
3 203 223 202
3 202 223 205
3 204 208 224
3 204 224 223
3 205 223 225
3 205 225 207
3 207 225 226
3 207 226 206
3 226 216 206
3 208 228 224
3 224 228 227
3 209 229 208
3 229 228 208
3 210 230 209
3 209 230 229
3 213 212 231
3 212 211 231
3 231 211 214
3 232 220 213
3 232 213 231
3 233 231 214
3 233 214 215
3 234 233 215
3 234 215 218
3 226 235 216
3 235 217 216
3 235 236 217
3 217 236 219
3 237 234 218
3 237 218 219
3 236 238 219
3 238 237 219
3 240 220 232
3 239 240 232
3 241 221 220
3 240 241 220
3 242 222 221
3 241 242 221
3 224 227 243
3 224 243 223
3 223 243 225
3 225 243 244
3 225 244 226
3 226 244 235
3 227 245 243
3 228 246 227
3 227 246 245
3 229 247 228
3 228 247 246
3 230 248 229
3 229 248 247
3 239 232 249
3 232 231 249
3 249 231 233
3 250 249 233
3 250 233 234
3 237 250 234
3 244 251 235
3 235 251 236
3 251 252 236
3 236 252 238
3 252 253 238
3 253 250 237
3 253 237 238
3 254 239 249
3 255 240 239
3 254 255 239
3 256 241 240
3 255 256 240
3 257 242 241
3 256 257 241
3 245 258 243
3 243 258 244
3 244 258 251
3 245 259 258
3 246 260 245
3 245 260 259
3 247 261 246
3 246 261 260
3 248 262 247
3 247 262 261
3 254 249 263
3 263 249 250
3 253 263 250
3 258 264 251
3 251 264 252
3 264 265 252
3 265 263 253
3 252 265 253
3 266 254 263
3 267 255 254
3 266 267 254
3 268 256 255
3 267 268 255
3 269 257 256
3 268 269 256
3 259 270 258
3 270 264 258
3 260 271 259
3 259 271 270
3 261 272 260
3 260 272 271
3 262 273 261
3 273 272 261
3 270 274 264
3 275 266 263
3 275 263 265
3 274 276 264
3 276 265 264
3 276 277 265
3 277 275 265
3 278 267 266
3 275 278 266
3 279 268 267
3 278 279 267
3 280 269 268
3 279 280 268
3 271 281 270
3 270 281 274
3 272 282 271
3 271 282 281
3 273 283 272
3 272 283 282
3 281 284 274
3 274 284 276
3 285 278 275
3 277 285 275
3 284 286 276
3 286 285 277
3 276 286 277
3 287 279 278
3 285 287 278
3 288 280 279
3 287 288 279
3 282 289 281
3 281 289 284
3 283 290 282
3 282 290 289
3 289 291 284
3 284 291 286
3 291 292 286
3 292 287 285
3 286 292 285
3 293 288 287
3 292 293 287
3 290 294 289
3 289 294 291
3 294 295 291
3 295 293 292
3 291 295 292
CELL_TYPES 542
5
5
5
5
5
5
5
5
5
5
5
5
5
5
5
5
5
5
5
5
5
5
5
5
5
5
5
5
5
5
5
5
5
5
5
5
5
5
5
5
5
5
5
5
5
5
5
5
5
5
5
5
5
5
5
5
5
5
5
5
5
5
5
5
5
5
5
5
5
5
5
5
5
5
5
5
5
5
5
5
5
5
5
5
5
5
5
5
5
5
5
5
5
5
5
5
5
5
5
5
5
5
5
5
5
5
5
5
5
5
5
5
5
5
5
5
5
5
5
5
5
5
5
5
5
5
5
5
5
5
5
5
5
5
5
5
5
5
5
5
5
5
5
5
5
5
5
5
5
5
5
5
5
5
5
5
5
5
5
5
5
5
5
5
5
5
5
5
5
5
5
5
5
5
5
5
5
5
5
5
5
5
5
5
5
5
5
5
5
5
5
5
5
5
5
5
5
5
5
5
5
5
5
5
5
5
5
5
5
5
5
5
5
5
5
5
5
5
5
5
5
5
5
5
5
5
5
5
5
5
5
5
5
5
5
5
5
5
5
5
5
5
5
5
5
5
5
5
5
5
5
5
5
5
5
5
5
5
5
5
5
5
5
5
5
5
5
5
5
5
5
5
5
5
5
5
5
5
5
5
5
5
5
5
5
5
5
5
5
5
5
5
5
5
5
5
5
5
5
5
5
5
5
5
5
5
5
5
5
5
5
5
5
5
5
5
5
5
5
5
5
5
5
5
5
5
5
5
5
5
5
5
5
5
5
5
5
5
5
5
5
5
5
5
5
5
5
5
5
5
5
5
5
5
5
5
5
5
5
5
5
5
5
5
5
5
5
5
5
5
5
5
5
5
5
5
5
5
5
5
5
5
5
5
5
5
5
5
5
5
5
5
5
5
5
5
5
5
5
5
5
5
5
5
5
5
5
5
5
5
5
5
5
5
5
5
5
5
5
5
5
5
5
5
5
5
5
5
5
5
5
5
5
5
5
5
5
5
5
5
5
5
5
5
5
5
5
5
5
5
5
5
5
5
5
5
5
5
5
5
5
5
5
5
5
5
5
5
5
5
5
5
5
5
5
5
5
5
5
5
5
5
5
5
5
5
5
5
5
5
5
5
5
5
5
5
5
5
5
5
5
5
5
5
5
5
5
5
5
5
5
5
5
5
5
5
5
5
5
5
5
5
5
5
5
5
5
5
5
5
5
5
5
5
5
5
5
5
5
5
5
5
POINT_DATA 296
SCALARS concentrations float 4
LOOKUP_TABLE default
0 0.998782 0.105923 67.2562
0 0.998755 0.103438 95.4116
0 0.998802 0.108041 130.079
0 0.998643 0.104041 215.948
0 0.998866 0.0899512 10.9303
0 0.998886 0.10483 40.6488
0 0.998741 0.102855 186.082
0 0.998842 0.0899339 8.68506
0 0.998903 0.0899784 4.37739
0 0.998652 0.104608 92.9137
0 0.998538 0.104088 139.381
0 0.99851 0.105393 121.803
0 0.998621 0.105668 130.858
0 0.998792 0.090224 7.08009
0 0.998628 0.0901446 5.45485
0 0.998923 0.0897596 3.34446
0 0.998977 0.0896006 3.63794
0 0.998891 0.0901882 6.14783
0 0.998765 0.0898619 2.74334
0 0.999011 0.0895387 3.99931
0 0.999002 0.0895519 2.83575
0 0.998478 0.106018 213.996
0 0.998368 0.101499 147.189
0 0.998672 0.0898361 3.09863
0 0.998595 0.0903533 6.21209
0 0.998625 0.0897659 3.2976
0 0.998523 0.100785 112.488
0 0.998626 0.0902834 5.60245
0 0.998473 0.103218 21.0387
0 0.998831 0.0897191 2.68156
0 0.998758 0.0897346 2.41622
0 0.998948 0.0895742 1.16138
0 0.998699 0.10498 4.14375
0 0.999004 0.0895076 1.17151
0 0.999043 0.08945 1.65935
0 0.998948 0.0896475 2.02987
0 0.998856 0.0895803 2.34065
0 0.999049 0.0894005 1.13629
0 0.999025 0.0894589 1.09867
0 0.998511 0.0904846 7.92706
0 0.998592 0.0900891 1.85977
0 0.998776 0.0895963 2.58205
0 0.998718 0.0897117 2.4025
0 0.998836 0.104039 70.1045
0 0.998729 0.0896728 2.45339
0 0.998549 0.0902736 6.74366
0 0.998699 0.0897187 3.27467
0 0.998382 0.101319 137.878
0 0.998496 0.0900562 7.46036
0 0.998403 0.100567 128.52
0 0.998897 0.0895337 1.05868
0 0.998841 0.0895383 1.27703
0 0.998986 0.0893767 0.577438
0 0.998817 0.0897304 1.41173
0 0.998781 0.0900228 4.86036
0 0.999035 0.0893365 0.26618
0 0.99898 0.0894563 1.2258
0 0.998909 0.0894826 1.68105
0 0.999028 0.0893534 0.281412
0 0.998725 0.0897864 2.6346
0 0.998793 0.089677 1.12748
0 0.998878 0.0894768 1.22839
0 0.998835 0.0895509 1.32349
0 0.998648 0.103965 156.471
0 0.998834 0.0894185 1.2637
0 0.998657 0.0896471 3.66743
0 0.998792 0.0894182 1.71166
0 0.99846 0.0899462 5.31382
0 0.998636 0.0896692 3.03567
0 0.998464 0.103967 158.512
0 0.998506 0.0899864 4.1623
0 0.998521 0.104625 84.7538
0 0.999021 0.0893383 0.620664
0 0.998928 0.0893398 0.630183
0 0.998989 0.0893398 0.599625
0 0.998825 0.0896706 1.52919
0 0.998536 0.0902614 9.16088
0 0.998741 0.0897497 3.10192
0 0.999035 0.0893372 0.592616
0 0.999032 0.0893474 0.802604
0 0.998974 0.0893827 0.751524
0 0.999017 0.0893703 0.748145
0 0.998859 0.0895236 1.57066
0 0.998858 0.0895412 1.40671
0 0.998927 0.0894193 1.5755
0 0.998336 0.101325 86.3212
0 0.998894 0.0893298 0.331815
0 0.998796 0.0894564 1.13766
0 0.998635 0.0896585 2.83946
0 0.998769 0.0895842 2.00139
0 0.998552 0.0897332 2.64662
0 0.998668 0.0895951 3.10495
0 0.998667 0.104381 122.004
0 0.998632 0.0896994 2.65329
0 0.999021 0.0893402 0.701984
0 0.998959 0.0893328 0.586205
0 0.999004 0.0893368 0.667217
0 0.998944 0.089373 0.784168
0 0.998736 0.10732 122.15
0 0.998414 0.0895839 3.41778
0 0.998844 0.0895285 2.02112
0 0.998622 0.0896541 2.78084
0 0.998771 0.0895619 2.57033
0 0.99903 0.0893334 0.978918
0 0.99903 0.0893551 0.886197
0 0.998984 0.0894061 1.30839
0 0.999015 0.0893844 1.09723
0 0.998903 0.0894295 1.75648
0 0.998953 0.0894181 1.70708
0 0.998326 0.105689 118.302
0 0.998883 0.0894502 1.12898
0 0.998801 0.0895842 2.43203
0 0.998708 0.0895106 2.52315
0 0.998799 0.0895548 2.5149
0 0.998739 0.0901341 4.67777
0 0.998759 0.0895594 2.02086
0 0.998694 0.0902573 7.08226
0 0.999032 0.0893348 1.00919
0 0.99903 0.0893276 1.11066
0 0.999022 0.0893352 0.827301
0 0.998996 0.089354 0.801828
0 0.998942 0.0894064 0.867533
0 0.998985 0.0893899 0.910231
0 0.99903 0.0893468 0.946592
0 0.998563 0.101829 103.824
0 0.99826 0.0897889 1.34946
0 0.998511 0.0895294 1.9651
0 0.998852 0.089437 2.06055
0 0.998712 0.0895117 2.48789
0 0.999021 0.0893337 1.18085
0 0.998996 0.0893871 1.37108
0 0.998927 0.0893966 1.67025
0 0.998971 0.0893928 1.58014
0 0.998057 0.089816 2.57745
0 0.997971 0.101136 130.36
0 0.998894 0.0894626 1.47255
0 0.99884 0.089477 1.53753
0 0.998774 0.0896039 3.18736
0 0.998842 0.0894539 1.19489
0 0.998547 0.0902141 9.11739
0 0.998731 0.0896845 4.83362
0 0.998949 0.0894169 0.78671
0 0.999021 0.0893203 1.11859
0 0.99903 0.0893363 1.01812
0 0.999015 0.0893641 0.912535
0 0.998991 0.0894064 0.91551
0 0.998987 0.0894184 0.901588
0 0.999027 0.0893673 0.910121
0 0.99903 0.0893565 0.881612
0 0.998501 0.090447 11.9015
0 0.998422 0.104057 53.8408
0 0.998882 0.0893731 1.50572
0 0.998394 0.0895384 0.901283
0 0.998619 0.0894926 1.83473
0 0.998794 0.0894087 1.82557
0 0.998334 0.0895801 3.57719
0 0.998997 0.0893329 1.13114
0 0.998955 0.0893601 1.34283
0 0.999008 0.0893159 0.92166
0 0.998905 0.089357 1.14199
0 0.99818 0.0900252 9.49018
0 0.997982 0.105465 186.603
0 0.998908 0.0894022 0.486763
0 0.99885 0.0894242 1.91108
0 0.998677 0.0897108 4.47335
0 0.998813 0.0894782 2.71232
0 0.998644 0.0896902 3.17674
0 0.998949 0.0894106 0.779811
0 0.99902 0.0893303 0.754159
0 0.999012 0.0894023 1.07992
0 0.998987 0.0894374 1.35409
0 0.999023 0.0894051 1.0942
0 0.999019 0.0893852 0.881691
0 0.998462 0.0900719 7.62016
0 0.99842 0.104313 157.548
0 0.998822 0.0893478 0.777007
0 0.998562 0.0894226 1.14157
0 0.998716 0.0893968 1.21097
0 0.998373 0.0895808 5.50567
0 0.99853 0.0893965 2.08466
0 0.998981 0.0893146 0.737893
0 0.99895 0.0893371 0.847225
0 0.998996 0.0893253 0.58286
0 0.998903 0.0893524 0.838934
0 0.998824 0.089367 0.664448
0 0.998427 0.0896507 6.04716
0 0.998288 0.0898904 9.5399
0 0.998204 0.10294 118.148
0 0.998897 0.0893747 0.58087
0 0.998808 0.0894611 1.52515
0 0.998616 0.0896287 1.93948
0 0.998769 0.0894999 0.754556
0 0.998937 0.0894275 1.17329
0 0.998973 0.089454 1.36796
0 0.998999 0.0893553 0.606345
0 0.999004 0.0894329 1.19679
0 0.999016 0.089432 1.01216
0 0.999002 0.0894147 0.607842
0 0.999009 0.0894316 0.7748
0 0.998625 0.0896101 0.797549
0 0.998433 0.0899708 4.40226
0 0.998333 0.102157 105.126
0 0.998703 0.0893529 0.481683
0 0.998577 0.0894277 2.38875
0 0.998582 0.0895265 2.94086
0 0.998798 0.0893774 0.52806
0 0.998957 0.0893303 0.473776
0 0.998894 0.0893657 0.666096
0 0.998482 0.0896614 4.00248
0 0.998365 0.0899344 8.01693
0 0.998289 0.104476 208.788
0 0.998871 0.0893978 0.527525
0 0.998773 0.0894755 0.588069
0 0.998747 0.0894976 0.416757
0 0.998919 0.089436 1.27426
0 0.998969 0.0894533 1.11644
0 0.998973 0.0893856 0.440694
0 0.998983 0.0894312 0.283676
0 0.998994 0.0894493 0.865415
0 0.998991 0.0894476 0.360808
0 0.998655 0.0895787 1.16992
0 0.998557 0.0898696 2.00989
0 0.998418 0.105206 110.372
0 0.998727 0.089383 0.454714
0 0.998664 0.0894685 1.35858
0 0.998845 0.0893621 0.423695
0 0.998926 0.089368 0.459894
0 0.998707 0.0894597 0.259666
0 0.998553 0.0895613 1.53877
0 0.998389 0.0900716 6.41874
0 0.99836 0.103931 202.378
0 0.998853 0.0893988 0.969616
0 0.99877 0.0895503 0.781276
0 0.998911 0.0894198 0.775775
0 0.998959 0.0894579 0.688296
0 0.998951 0.0894039 0.35017
0 0.998972 0.08943 0.213803
0 0.998971 0.0894678 0.419966
0 0.998975 0.0894671 0.224109
0 0.998764 0.0896841 0.799597
0 0.998671 0.0896834 2.06151
0 0.998644 0.0897846 3.84941
0 0.998616 0.102636 148.779
0 0.998802 0.0893388 0.387409
0 0.998897 0.0893549 0.546812
0 0.998787 0.0894618 0.822388
0 0.998647 0.0896155 1.18156
0 0.99847 0.0900497 3.42278
0 0.998327 0.102092 32.5976
0 0.998859 0.0895126 1.26562
0 0.998923 0.0894677 0.801227
0 0.998945 0.0893741 0.541071
0 0.998969 0.089425 0.568357
0 0.998955 0.0894735 0.771487
0 0.998818 0.0897209 0.969636
0 0.998691 0.089872 2.27917
0 0.998604 0.0900566 5.46105
0 0.998623 0.103096 166.075
0 0.998894 0.0893758 0.644867
0 0.99885 0.0895241 0.735934
0 0.998737 0.0896193 2.09899
0 0.99864 0.08982 1.33871
0 0.998533 0.108788 144.065
0 0.998913 0.0895243 0.919554
0 0.99897 0.0894225 0.851658
0 0.998979 0.0894417 0.604063
0 0.998878 0.0897391 1.41902
0 0.998771 0.0899461 2.84349
0 0.998617 0.0902851 4.33412
0 0.998546 0.105633 108.806
0 0.998931 0.0895279 0.36714
0 0.998829 0.0896701 0.362611
0 0.998645 0.0898233 3.59126
0 0.998618 0.104837 62.2476
0 0.999017 0.089612 0.728102
0 0.998973 0.0895832 1.28237
0 0.99905 0.0895262 0.651861
0 0.999053 0.0895387 1.12378
0 0.998932 0.0898647 3.18516
0 0.998754 0.090271 4.35918
0 0.998611 0.102378 54.5094
0 0.998978 0.089802 1.90631
0 0.998789 0.0900887 4.74682
0 0.998579 0.103496 213.739
0 0.999126 0.0898641 3.11714
0 0.99911 0.0896894 2.19072
0 0.999189 0.0897998 2.64567
0 0.99912 0.090311 5.40023
0 0.998888 0.101257 50.6729
0 0.999126 0.0902509 9.18349
0 0.998954 0.104951 113.227
0 0.999302 0.0902829 11.1126
0 0.999364 0.089926 4.7296
0 0.999405 0.106969 108.743
0 0.9993 0.107569 94.276
0 0.999429 0.104116 132.342
VECTORS fa_u float
0.00766147 0.00319619 -0
0.00408605 0.00236511 -0
0.00611512 0.00160715 -0
0.006066 0.000788468 -0
1e-08 0 0
0.00645153 0.00493899 -0
0.00415016 0.00417635 -0
1e-08 0 0
1e-08 0 0
0.00413457 0.00540143 -0
0.00308141 0.00534549 -0
0.00632046 9.66314e-06 -0
0.00666723 -0.000866677 0
1e-08 0 0
1e-08 0 0
1e-08 0 0
1e-08 0 0
1e-08 0 0
1e-08 0 0
1e-08 0 0
1e-08 0 0
0.00236426 0.00565634 -0
0.00186187 0.0068853 -0
1e-08 0 0
1e-08 0 0
1e-08 0 0
0.00656153 -0.00176261 0
1e-08 0 0
0.00581878 -0.00241557 0
1e-08 0 0
1e-08 0 0
1e-08 0 0
0.000834476 0.00633689 -0
1e-08 0 0
1e-08 0 0
1e-08 0 0
1e-08 0 0
1e-08 0 0
1e-08 0 0
1e-08 0 0
1e-08 0 0
1e-08 0 0
1e-08 0 0
-5.07617e-07 0.00668908 -0
1e-08 0 0
1e-08 0 0
1e-08 0 0
0.00534998 -0.00307307 0
1e-08 0 0
0.00576041 -0.00441567 0
1e-08 0 0
1e-08 0 0
1e-08 0 0
1e-08 0 0
1e-08 0 0
1e-08 0 0
1e-08 0 0
1e-08 0 0
1e-08 0 0
1e-08 0 0
1e-08 0 0
1e-08 0 0
1e-08 0 0
-0.000880279 0.00660696 0
1e-08 0 0
1e-08 0 0
1e-08 0 0
1e-08 0 0
1e-08 0 0
0.00461808 -0.00464758 0
1e-08 0 0
0.00367459 -0.00479669 0
1e-08 0 0
1e-08 0 0
1e-08 0 0
1e-08 0 0
1e-08 0 0
1e-08 0 0
1e-08 0 0
1e-08 0 0
1e-08 0 0
1e-08 0 0
1e-08 0 0
1e-08 0 0
1e-08 0 0
-0.00163636 0.00608131 0
1e-08 0 0
1e-08 0 0
1e-08 0 0
1e-08 0 0
1e-08 0 0
1e-08 0 0
0.00320799 -0.00552549 0
1e-08 0 0
1e-08 0 0
1e-08 0 0
1e-08 0 0
1e-08 0 0
0.00271325 -0.00654271 0
1e-08 0 0
1e-08 0 0
1e-08 0 0
1e-08 0 0
1e-08 0 0
1e-08 0 0
1e-08 0 0
1e-08 0 0
1e-08 0 0
1e-08 0 0
-0.00233199 0.00566475 0
1e-08 0 0
1e-08 0 0
1e-08 0 0
1e-08 0 0
1e-08 0 0
1e-08 0 0
1e-08 0 0
1e-08 0 0
1e-08 0 0
1e-08 0 0
1e-08 0 0
1e-08 0 0
1e-08 0 0
1e-08 0 0
0.00164229 -0.00616752 0
1e-08 0 0
1e-08 0 0
1e-08 0 0
1e-08 0 0
1e-08 0 0
1e-08 0 0
1e-08 0 0
1e-08 0 0
1e-08 0 0
-0.00393904 0.00678999 0
1e-08 0 0
1e-08 0 0
1e-08 0 0
1e-08 0 0
1e-08 0 0
1e-08 0 0
1e-08 0 0
1e-08 0 0
1e-08 0 0
1e-08 0 0
1e-08 0 0
1e-08 0 0
1e-08 0 0
1e-08 0 0
1e-08 0 0
0.000821954 -0.00622002 0
1e-08 0 0
1e-08 0 0
1e-08 0 0
1e-08 0 0
1e-08 0 0
1e-08 0 0
1e-08 0 0
1e-08 0 0
1e-08 0 0
1e-08 0 0
-0.00332761 0.00431229 0
1e-08 0 0
1e-08 0 0
1e-08 0 0
1e-08 0 0
1e-08 0 0
1e-08 0 0
1e-08 0 0
1e-08 0 0
1e-08 0 0
1e-08 0 0
1e-08 0 0
1e-08 0 0
2.9436e-07 -0.00688234 0
1e-08 0 0
1e-08 0 0
1e-08 0 0
1e-08 0 0
1e-08 0 0
1e-08 0 0
1e-08 0 0
1e-08 0 0
1e-08 0 0
1e-08 0 0
1e-08 0 0
1e-08 0 0
-0.00506662 0.00506535 0
1e-08 0 0
1e-08 0 0
1e-08 0 0
1e-08 0 0
1e-08 0 0
1e-08 0 0
1e-08 0 0
1e-08 0 0
1e-08 0 0
1e-08 0 0
1e-08 0 0
1e-08 0 0
1e-08 0 0
-0.000785435 -0.00600059 0
1e-08 0 0
1e-08 0 0
1e-08 0 0
1e-08 0 0
1e-08 0 0
1e-08 0 0
1e-08 0 0
1e-08 0 0
-0.00464943 0.00356937 0
1e-08 0 0
1e-08 0 0
1e-08 0 0
1e-08 0 0
1e-08 0 0
1e-08 0 0
1e-08 0 0
1e-08 0 0
1e-08 0 0
1e-08 0 0
1e-08 0 0
-0.00186653 -0.00696243 0
1e-08 0 0
1e-08 0 0
1e-08 0 0
1e-08 0 0
1e-08 0 0
1e-08 0 0
1e-08 0 0
-0.00530371 0.00310221 0
1e-08 0 0
1e-08 0 0
1e-08 0 0
1e-08 0 0
1e-08 0 0
1e-08 0 0
1e-08 0 0
1e-08 0 0
1e-08 0 0
1e-08 0 0
1e-08 0 0
-0.00237008 -0.00569593 0
1e-08 0 0
1e-08 0 0
1e-08 0 0
1e-08 0 0
1e-08 0 0
-0.0078589 0.00324036 0
1e-08 0 0
1e-08 0 0
1e-08 0 0
1e-08 0 0
1e-08 0 0
1e-08 0 0
1e-08 0 0
1e-08 0 0
-0.0030428 -0.00529916 0
1e-08 0 0
1e-08 0 0
1e-08 0 0
1e-08 0 0
-0.0047755 0.00126757 0
1e-08 0 0
1e-08 0 0
1e-08 0 0
1e-08 0 0
1e-08 0 0
1e-08 0 0
-0.00439925 -0.00574556 0
1e-08 0 0
1e-08 0 0
1e-08 0 0
-0.00742508 0.000989007 0
1e-08 0 0
1e-08 0 0
1e-08 0 0
1e-08 0 0
1e-08 0 0
1e-08 0 0
-0.00422148 -0.00422512 0
1e-08 0 0
1e-08 0 0
-0.00580094 3.63566e-06 0
1e-08 0 0
1e-08 0 0
1e-08 0 0
1e-08 0 0
-0.00604182 -0.00461774 0
1e-08 0 0
-0.00672556 -0.000864007 0
1e-08 0 0
1e-08 0 0
-0.00491349 -0.00281972 0
-0.00704758 -0.00190257 0
-0.00568256 -0.00237887 0
