# vtk DataFile Version 2.0
CellBP Time: 1.72
ASCII
DATASET UNSTRUCTURED_GRID
POINTS 296 double
-9.08854 -3.73369 0
-8.51386 -4.89364 0
-9.50026 -2.50598 0
-9.7584 -1.24021 0
-8.32354 -2.80371 0
-7.79467 -5.97074 0
-6.94492 -6.94787 0
-7.88325 -3.85573 0
-7.31011 -4.84698 0
-5.96935 -7.79547 0
-4.90038 -8.52129 0
-9.84457 0.0482517 0
-9.76069 1.33964 0
-8.62629 -1.67524 0
-8.75744 -0.527038 0
-7.55687 -1.99231 0
-7.19192 -2.89003 0
-6.61132 -5.75855 0
-5.80248 -6.57701 0
-6.7577 -3.86906 0
-6.1923 -4.65588 0
-3.73829 -9.0916 0
-2.5141 -9.51748 0
-4.89284 -7.28955 0
-3.90569 -7.86769 0
-8.76632 0.640007 0
-9.51545 2.61261 0
-8.59963 1.76696 0
-9.09722 3.8383 0
-7.71388 -0.922899 0
-7.76627 0.081123 0
-6.92336 -1.3078 0
-1.24001 -9.75783 0
-6.41469 -2.14198 0
-6.29198 -3.04083 0
-5.51396 -5.45496 0
-4.77872 -6.09634 0
-5.63474 -3.74061 0
-5.24604 -4.54304 0
-2.86028 -8.34356 0
-1.77369 -8.6179 0
-3.9168 -6.70501 0
-3.05056 -7.13467 0
0.0509602 -9.84506 0
-7.67947 1.13911 0
-8.31879 2.90802 0
-7.52795 2.10322 0
-8.51744 4.99514 0
-7.85665 3.9655 0
-7.80037 6.07376 0
-6.75228 -0.39363 0
-6.93033 0.551518 0
-5.75147 -0.999261 0
-0.588912 -8.78432 0
0.562454 -8.74206 0
-5.28423 -2.4699 0
-4.47293 -5.0771 0
-3.88806 -5.75687 0
-4.42318 -3.79133 0
-2.05729 -7.54206 0
-1.13271 -7.76351 0
-2.98517 -6.08423 0
-2.30376 -6.60204 0
1.34001 -9.75876 0
-6.66664 1.41627 0
-7.14787 3.10627 0
-6.63699 2.36396 0
-7.26996 4.97112 0
-6.69499 3.98761 0
-6.94375 7.04267 0
-6.54986 5.87251 0
-5.96838 7.89265 0
-4.44259 -1.17873 0
-5.79682 0.510606 0
-4.64561 -0.0127569 0
0.00608073 -7.8221 0
1.7292 -8.61167 0
0.941965 -7.73461 0
-4.02873 -2.39945 0
-3.48179 -1.38978 0
-3.28463 -4.79094 0
-3.25961 -3.25943 0
-1.37651 -6.65527 0
-0.510179 -7.00157 0
-1.97108 -5.52248 0
2.60811 -9.50169 0
-5.49058 2.03066 0
-6.07413 3.06018 0
-6.08374 4.8504 0
-5.74149 3.97477 0
-5.74104 6.69121 0
-5.4326 5.59654 0
-4.89752 8.61862 0
-4.82057 7.37504 0
-3.49649 -0.423995 0
-4.43811 1.24566 0
-3.70428 0.590846 0
-4.05135 2.316 0
-3.73947 9.19503 0
2.84764 -8.29742 0
0.413517 -6.76943 0
2.00956 -7.49403 0
1.29594 -6.87667 0
-2.44271 -0.872295 0
-2.83528 -2.12762 0
-2.29055 -4.08751 0
-2.32246 -2.96755 0
-0.443775 -5.84204 0
-1.21957 -4.4887 0
3.83487 -9.08873 0
-4.77456 3.38041 0
-5.06997 4.57523 0
-4.62982 6.25507 0
-4.52237 5.33738 0
-3.8315 7.96588 0
-3.8115 6.81611 0
-2.77282 8.39229 0
-1.64822 -0.136542 0
-1.44915 -0.889295 0
-2.48739 0.508474 0
-3.2474 1.44285 0
-3.2306 3.30851 0
-2.9051 2.36981 0
-1.35504 0.628406 0
-2.51227 9.60703 0
3.91427 -7.85333 0
2.94711 -7.12343 0
0.946855 -5.79958 0
2.06121 -6.38672 0
-1.68098 -1.98989 0
-1.43186 -3.27135 0
0.0887386 -4.73314 0
-0.564121 -3.68723 0
4.91099 -7.28678 0
4.99755 -8.52162 0
-3.76474 4.53543 0
-3.72126 5.72904 0
-2.87585 7.26028 0
-2.99836 6.32851 0
-1.65627 8.70507 0
-1.93166 7.59174 0
-2.33299 4.04107 0
-0.730006 -1.32615 0
-0.836742 -0.25647 0
-1.93545 1.68173 0
-2.12271 2.87243 0
-1.30552 3.53892 0
-0.870308 1.35202 0
-0.283171 0.457026 0
-0.531304 8.84582 0
-1.24089 9.8523 0
1.1073 -4.55917 0
3.88893 -6.68233 0
2.9716 -6.06558 0
2.1065 -5.40194 0
4.7632 -6.17491 0
-0.557575 -2.47379 0
0.494402 -3.45657 0
0.0537451 -1.60958 0
1.47657 -3.67104 0
5.84519 -6.58637 0
6.06764 -7.79255 0
-2.46784 5.33016 0
-2.1215 6.50993 0
-0.899493 7.77816 0
-1.26559 6.9073 0
0.0872138 7.85769 0
-1.14223 4.4838 0
0.149786 -0.616765 0
-0.798896 2.48862 0
-0.333531 3.59648 0
0.0614234 1.51326 0
0.739806 0.473699 0
0.644787 8.85152 0
0.0489527 9.95132 0
2.37082 -4.26841 0
3.84096 -5.61268 0
2.98697 -5.18898 0
5.55344 -5.46751 0
4.67121 -5.25656 0
0.629784 -2.29187 0
1.25323 -2.94508 0
0.756905 -1.39079 0
2.15779 -3.1269 0
2.98378 -3.46429 0
6.13579 -4.77273 0
6.63477 -5.74776 0
7.04421 -6.94176 0
-1.01541 5.80214 0
-0.368994 6.86135 0
1.12014 7.74989 0
0.558131 7.0597 0
-0.00165143 4.71514 0
0.604319 3.82188 0
1.33746 -0.641803 0
0.536659 2.64903 0
0.963664 1.57484 0
1.90782 0.213394 0
1.61213 1.06458 0
2.12526 7.56556 0
1.7954 8.69159 0
1.34074 9.85789 0
3.8081 -4.33247 0
5.09785 -4.42775 0
5.82767 -3.91883 0
3.77235 -3.18959 0
1.80971 -1.88157 0
3.01145 -2.56762 0
6.76524 -3.93496 0
7.36192 -4.88184 0
7.89667 -5.96946 0
0.48309 5.86596 0
1.42565 6.72477 0
2.3698 6.65329 0
1.2068 4.5473 0
1.48498 3.39211 0
2.43206 -0.691555 0
2.82361 0.142592 0
1.78569 2.16097 0
2.60851 1.14904 0
3.06619 7.15341 0
2.89931 8.35777 0
2.61436 9.61594 0
4.89603 -3.31414 0
6.10388 -3.09717 0
4.16252 -2.26948 0
3.23793 -1.50091 0
6.71568 -2.30735 0
7.21536 -3.0354 0
7.94697 -3.90389 0
8.62229 -4.90014 0
2.01983 5.58687 0
3.07711 6.13748 0
2.36012 4.11814 0
2.41637 3.0554 0
3.51896 -0.459617 0
3.60932 0.61358 0
2.95671 2.2842 0
3.53812 1.52285 0
3.99795 5.88129 0
3.97358 6.77608 0
3.96639 7.92119 0
3.84058 9.19587 0
5.55551 -1.91097 0
4.49943 -1.12681 0
6.69726 -1.33245 0
7.57509 -2.03116 0
8.37856 -2.85539 0
9.2013 -3.74254 0
3.4074 4.86333 0
3.32986 3.37685 0
4.68069 0.130852 0
4.5065 1.30633 0
4.05266 2.4367 0
4.55156 5.13566 0
4.82725 6.17338 0
4.96768 7.36239 0
5.00172 8.62317 0
5.86752 -0.43452 0
6.99131 -0.488088 0
7.74093 -1.08141 0
8.66503 -1.7408 0
9.60285 -2.51009 0
4.53482 3.81479 0
5.79824 1.09299 0
5.35059 2.52467 0
5.35625 4.60348 0
5.59038 5.50583 0
5.87815 6.65354 0
6.07487 7.90315 0
6.82391 0.459207 0
7.83145 -0.0264146 0
8.83885 -0.581308 0
9.86113 -1.23998 0
6.93535 1.34139 0
5.69635 3.76329 0
6.51533 2.18616 0
6.35273 3.07365 0
6.26512 4.66895 0
6.66802 5.81895 0
7.04284 7.04511 0
7.75949 0.962384 0
8.83429 0.5708 0
9.94383 0.0519654 0
7.58822 1.99436 0
6.79731 3.88607 0
7.23895 2.93235 0
7.35022 4.86824 0
7.90148 6.07511 0
8.69425 1.71958 0
9.86242 1.34178 0
8.3889 2.8254 0
7.95229 3.90121 0
8.61683 4.99579 0
9.60329 2.60993 0
9.19168 3.83684 0
CELLS 542 2168
3 2 0 4
3 0 1 7
3 4 0 7
3 1 5 8
3 7 1 8
3 3 2 13
3 13 2 4
3 11 3 14
3 14 3 13
3 13 4 15
3 4 7 16
3 15 4 16
3 5 6 17
3 8 5 17
3 6 9 18
3 17 6 18
3 7 8 19
3 16 7 19
3 8 17 20
3 19 8 20
3 9 10 23
3 18 9 23
3 10 21 24
3 23 10 24
3 12 11 25
3 25 11 14
3 26 12 27
3 27 12 25
3 14 13 29
3 29 13 15
3 25 14 30
3 30 14 29
3 29 15 31
3 15 16 33
3 31 15 33
3 16 19 34
3 33 16 34
3 17 18 35
3 20 17 35
3 18 23 36
3 35 18 36
3 19 20 37
3 34 19 37
3 20 35 38
3 37 20 38
3 21 22 39
3 24 21 39
3 22 32 40
3 39 22 40
3 23 24 41
3 36 23 41
3 24 39 42
3 41 24 42
3 27 25 44
3 44 25 30
3 28 26 45
3 45 26 27
3 45 27 46
3 46 27 44
3 47 28 48
3 48 28 45
3 30 29 50
3 50 29 31
3 44 30 51
3 51 30 50
3 50 31 52
3 31 33 52
3 32 43 53
3 40 32 53
3 53 43 54
3 33 34 55
3 34 37 55
3 33 55 52
3 35 36 56
3 38 35 56
3 36 41 57
3 56 36 57
3 37 38 58
3 38 56 58
3 37 58 55
3 39 40 59
3 42 39 59
3 40 53 60
3 59 40 60
3 41 42 61
3 57 41 61
3 42 59 62
3 61 42 62
3 43 63 54
3 46 44 64
3 64 44 51
3 48 45 65
3 65 45 46
3 65 46 66
3 66 46 64
3 49 47 67
3 67 47 48
3 67 48 68
3 68 48 65
3 69 49 70
3 70 49 67
3 52 55 72
3 64 51 73
3 51 50 73
3 50 52 73
3 73 52 74
3 74 52 72
3 53 54 75
3 60 53 75
3 54 63 76
3 54 76 77
3 75 54 77
3 55 58 78
3 72 55 78
3 72 78 79
3 56 57 80
3 57 61 80
3 56 80 58
3 58 80 81
3 78 58 81
3 59 60 82
3 62 59 82
3 60 75 83
3 82 60 83
3 61 62 84
3 62 82 84
3 61 84 80
3 63 85 76
3 66 64 86
3 64 73 86
3 68 65 87
3 87 65 66
3 87 66 86
3 70 67 88
3 88 67 68
3 88 68 89
3 89 68 87
3 71 69 90
3 90 69 70
3 90 70 91
3 91 70 88
3 92 71 93
3 93 71 90
3 74 72 94
3 94 72 79
3 86 73 95
3 95 73 74
3 95 74 96
3 96 74 94
3 97 86 95
3 76 85 99
3 75 77 100
3 83 75 100
3 76 99 101
3 77 76 101
3 77 101 102
3 100 77 102
3 94 79 103
3 78 81 104
3 79 78 104
3 79 104 103
3 80 84 105
3 81 80 105
3 81 105 106
3 104 81 106
3 82 83 107
3 83 100 107
3 82 107 84
3 84 107 108
3 105 84 108
3 85 109 99
3 89 87 110
3 87 86 110
3 110 86 97
3 91 88 111
3 111 88 89
3 111 89 110
3 93 90 112
3 112 90 91
3 112 91 113
3 113 91 111
3 98 92 114
3 114 92 93
3 114 93 115
3 115 93 112
3 116 98 114
3 117 103 118
3 96 94 119
3 94 103 119
3 119 103 117
3 97 95 120
3 120 95 96
3 120 96 119
3 121 110 97
3 121 97 122
3 122 97 120
3 123 119 117
3 124 98 116
3 99 109 125
3 99 125 126
3 101 99 126
3 100 102 127
3 100 127 107
3 101 126 128
3 102 101 128
3 102 128 127
3 104 106 129
3 104 129 103
3 103 129 118
3 105 108 130
3 106 105 130
3 106 130 129
3 107 127 131
3 108 107 131
3 108 131 132
3 108 132 130
3 109 134 125
3 125 134 133
3 113 111 135
3 111 110 135
3 135 110 121
3 115 112 136
3 136 112 113
3 136 113 135
3 116 114 137
3 137 114 115
3 137 115 138
3 138 115 136
3 139 124 116
3 139 116 140
3 140 116 137
3 141 135 121
3 118 129 142
3 118 142 143
3 117 118 143
3 123 117 143
3 122 120 144
3 120 119 144
3 144 119 123
3 141 121 145
3 145 121 122
3 145 122 144
3 146 141 145
3 147 144 123
3 147 123 148
3 143 148 123
3 150 124 139
3 149 150 139
3 131 127 151
3 125 133 152
3 126 125 152
3 126 152 153
3 128 126 153
3 128 153 154
3 128 154 127
3 127 154 151
3 152 133 155
3 130 132 156
3 130 156 129
3 129 156 142
3 131 151 157
3 132 131 157
3 132 157 156
3 156 158 142
3 157 151 159
3 133 160 155
3 134 161 133
3 133 161 160
3 138 136 162
3 136 135 162
3 162 135 141
3 140 137 163
3 163 137 138
3 163 138 162
3 149 139 164
3 164 139 140
3 164 140 165
3 165 140 163
3 166 149 164
3 167 162 141
3 167 141 146
3 142 158 168
3 143 142 168
3 143 168 148
3 146 145 169
3 145 144 169
3 169 144 147
3 170 167 146
3 170 146 169
3 171 169 147
3 171 147 148
3 171 148 172
3 168 172 148
3 173 149 166
3 174 150 149
3 173 174 149
3 154 175 151
3 151 175 159
3 152 155 176
3 153 152 176
3 153 176 177
3 153 177 154
3 154 177 175
3 155 160 178
3 155 178 179
3 176 155 179
3 156 157 180
3 156 180 158
3 157 159 181
3 157 181 180
3 158 180 182
3 158 182 168
3 159 175 183
3 159 183 181
3 175 184 183
3 160 186 178
3 178 186 185
3 161 187 160
3 160 187 186
3 165 163 188
3 163 162 188
3 188 162 167
3 166 164 189
3 189 164 165
3 189 165 188
3 190 173 166
3 190 166 191
3 191 166 189
3 192 188 167
3 192 167 170
3 193 192 170
3 182 194 168
3 194 172 168
3 193 170 195
3 170 169 195
3 195 169 171
3 196 195 171
3 196 171 172
3 194 197 172
3 197 198 172
3 198 196 172
3 200 173 190
3 199 200 190
3 201 174 173
3 200 201 173
3 176 179 202
3 177 176 202
3 177 202 175
3 175 202 184
3 178 185 203
3 178 203 179
3 179 203 202
3 203 185 204
3 202 205 184
3 183 206 181
3 180 181 206
3 180 206 182
3 182 206 194
3 183 184 207
3 205 207 184
3 183 207 206
3 185 208 204
3 186 209 185
3 185 209 208
3 187 210 186
3 186 210 209
3 191 189 211
3 189 188 211
3 211 188 192
3 199 190 212
3 212 190 191
3 212 191 211
3 213 199 212
3 214 211 192
3 214 192 193
3 215 214 193
3 215 193 195
3 206 216 194
3 216 197 194
3 216 217 197
3 215 195 218
3 218 195 196
3 198 218 196
3 217 219 197
3 219 218 198
3 197 219 198
3 220 199 213
3 221 200 199
3 220 221 199
3 222 201 200
3 221 222 200
3 203 204 223
3 203 223 202
3 202 223 205
3 204 208 224
3 204 224 223
3 205 223 225
3 205 225 207
3 207 225 226
3 207 226 206
3 226 216 206
3 208 228 224
3 224 228 227
3 209 229 208
3 229 228 208
3 210 230 209
3 209 230 229
3 213 212 231
3 212 211 231
3 231 211 214
3 232 220 213
3 232 213 231
3 233 231 214
3 233 214 215
3 234 233 215
3 234 215 218
3 226 235 216
3 235 217 216
3 235 236 217
3 217 236 219
3 237 234 218
3 237 218 219
3 236 238 219
3 238 237 219
3 240 220 232
3 239 240 232
3 241 221 220
3 240 241 220
3 242 222 221
3 241 242 221
3 224 227 243
3 224 243 223
3 223 243 225
3 225 243 244
3 225 244 226
3 226 244 235
3 227 245 243
3 228 246 227
3 227 246 245
3 229 247 228
3 228 247 246
3 230 248 229
3 229 248 247
3 239 232 249
3 232 231 249
3 249 231 233
3 250 249 233
3 250 233 234
3 237 250 234
3 244 251 235
3 235 251 236
3 251 252 236
3 236 252 238
3 252 253 238
3 253 250 237
3 253 237 238
3 254 239 249
3 255 240 239
3 254 255 239
3 256 241 240
3 255 256 240
3 257 242 241
3 256 257 241
3 245 258 243
3 243 258 244
3 244 258 251
3 245 259 258
3 246 260 245
3 245 260 259
3 247 261 246
3 246 261 260
3 248 262 247
3 247 262 261
3 254 249 263
3 263 249 250
3 253 263 250
3 258 264 251
3 251 264 252
3 264 265 252
3 265 263 253
3 252 265 253
3 266 254 263
3 267 255 254
3 266 267 254
3 268 256 255
3 267 268 255
3 269 257 256
3 268 269 256
3 259 270 258
3 270 264 258
3 260 271 259
3 259 271 270
3 261 272 260
3 260 272 271
3 262 273 261
3 273 272 261
3 270 274 264
3 275 266 263
3 275 263 265
3 274 276 264
3 276 265 264
3 276 277 265
3 277 275 265
3 278 267 266
3 275 278 266
3 279 268 267
3 278 279 267
3 280 269 268
3 279 280 268
3 271 281 270
3 270 281 274
3 272 282 271
3 271 282 281
3 273 283 272
3 272 283 282
3 281 284 274
3 274 284 276
3 285 278 275
3 277 285 275
3 284 286 276
3 286 285 277
3 276 286 277
3 287 279 278
3 285 287 278
3 288 280 279
3 287 288 279
3 282 289 281
3 281 289 284
3 283 290 282
3 282 290 289
3 289 291 284
3 284 291 286
3 291 292 286
3 292 287 285
3 286 292 285
3 293 288 287
3 292 293 287
3 290 294 289
3 289 294 291
3 294 295 291
3 295 293 292
3 291 295 292
CELL_TYPES 542
5
5
5
5
5
5
5
5
5
5
5
5
5
5
5
5
5
5
5
5
5
5
5
5
5
5
5
5
5
5
5
5
5
5
5
5
5
5
5
5
5
5
5
5
5
5
5
5
5
5
5
5
5
5
5
5
5
5
5
5
5
5
5
5
5
5
5
5
5
5
5
5
5
5
5
5
5
5
5
5
5
5
5
5
5
5
5
5
5
5
5
5
5
5
5
5
5
5
5
5
5
5
5
5
5
5
5
5
5
5
5
5
5
5
5
5
5
5
5
5
5
5
5
5
5
5
5
5
5
5
5
5
5
5
5
5
5
5
5
5
5
5
5
5
5
5
5
5
5
5
5
5
5
5
5
5
5
5
5
5
5
5
5
5
5
5
5
5
5
5
5
5
5
5
5
5
5
5
5
5
5
5
5
5
5
5
5
5
5
5
5
5
5
5
5
5
5
5
5
5
5
5
5
5
5
5
5
5
5
5
5
5
5
5
5
5
5
5
5
5
5
5
5
5
5
5
5
5
5
5
5
5
5
5
5
5
5
5
5
5
5
5
5
5
5
5
5
5
5
5
5
5
5
5
5
5
5
5
5
5
5
5
5
5
5
5
5
5
5
5
5
5
5
5
5
5
5
5
5
5
5
5
5
5
5
5
5
5
5
5
5
5
5
5
5
5
5
5
5
5
5
5
5
5
5
5
5
5
5
5
5
5
5
5
5
5
5
5
5
5
5
5
5
5
5
5
5
5
5
5
5
5
5
5
5
5
5
5
5
5
5
5
5
5
5
5
5
5
5
5
5
5
5
5
5
5
5
5
5
5
5
5
5
5
5
5
5
5
5
5
5
5
5
5
5
5
5
5
5
5
5
5
5
5
5
5
5
5
5
5
5
5
5
5
5
5
5
5
5
5
5
5
5
5
5
5
5
5
5
5
5
5
5
5
5
5
5
5
5
5
5
5
5
5
5
5
5
5
5
5
5
5
5
5
5
5
5
5
5
5
5
5
5
5
5
5
5
5
5
5
5
5
5
5
5
5
5
5
5
5
5
5
5
5
5
5
5
5
5
5
5
5
5
5
5
5
5
5
5
5
5
5
5
5
5
5
5
5
5
5
5
5
5
5
5
5
5
5
5
5
5
5
5
5
5
5
5
5
5
5
5
5
5
5
5
5
5
5
5
5
5
5
5
5
5
5
5
5
5
5
5
5
5
5
5
5
5
5
5
5
5
5
POINT_DATA 296
SCALARS concentrations float 4
LOOKUP_TABLE default
0 0.978829 0.164538 400.676
0 0.979061 0.165876 238.981
0 0.978577 0.166444 439.665
0 0.978446 0.162599 289.617
0 0.978687 0.0915359 3.31557
0 0.979089 0.16426 419.019
0 0.978774 0.160796 220.743
0 0.978894 0.0914918 2.97086
0 0.979032 0.0915483 3.97801
0 0.978427 0.162556 442.974
0 0.97837 0.163911 261.052
0 0.978618 0.163865 279.978
0 0.978787 0.164553 472.857
0 0.978515 0.0915706 2.54913
0 0.978537 0.091645 3.10762
0 0.978639 0.0912528 1.42913
0 0.978755 0.0911936 1.19649
0 0.978933 0.0916442 4.93332
0 0.978651 0.0916574 1.48371
0 0.978873 0.091166 1.44813
0 0.978919 0.0912092 1.9683
0 0.978294 0.163297 437.445
0 0.978653 0.165999 173.488
0 0.978525 0.091466 2.22855
0 0.978472 0.0914594 1.61024
0 0.978693 0.0915543 5.92373
0 0.978787 0.163128 364.213
0 0.978769 0.0913986 5.75598
0 0.978685 0.162456 258.742
0 0.978596 0.0912878 1.64301
0 0.978643 0.0912187 2.06324
0 0.978709 0.0911868 1.70173
0 0.978896 0.165109 404.174
0 0.978772 0.0911175 1.13648
0 0.978828 0.0911198 0.515968
0 0.978852 0.0912559 1.85404
0 0.97877 0.0912502 1.35955
0 0.978896 0.0911141 0.463764
0 0.978914 0.091171 0.968222
0 0.978604 0.0914613 1.08526
0 0.978851 0.0914571 4.05124
0 0.978744 0.0911957 0.405852
0 0.978794 0.0911793 0.874588
0 0.979229 0.1635 338.932
0 0.978706 0.0911853 2.35226
0 0.978732 0.0914778 2.03479
0 0.978742 0.091216 2.16748
0 0.978671 0.161743 421.665
0 0.978685 0.0914769 2.57644
0 0.978685 0.163324 277.526
0 0.97873 0.0911662 1.56898
0 0.978735 0.0911474 1.34766
0 0.978842 0.0910953 1.12528
0 0.979108 0.0916181 7.02629
0 0.979072 0.0918715 9.2853
0 0.978897 0.0910729 0.91308
0 0.97892 0.0911716 0.788294
0 0.978903 0.0911649 0.574455
0 0.978962 0.0910951 0.0504797
0 0.978916 0.0912072 2.14481
0 0.97906 0.0912508 3.34733
0 0.978951 0.0911408 0.237866
0 0.978991 0.0911539 1.25338
0 0.978848 0.158594 344.883
0 0.978789 0.0911211 0.922151
0 0.978747 0.0912032 1.3191
0 0.978798 0.0911527 0.951962
0 0.978719 0.0912867 2.49185
0 0.978757 0.0912107 0.723336
0 0.978434 0.161363 322.348
0 0.978624 0.0913391 4.96932
0 0.978523 0.162642 316.13
0 0.978949 0.0910771 0.634748
0 0.978847 0.0911005 0.651505
0 0.978936 0.0910926 0.325494
0 0.97911 0.0912892 2.92824
0 0.978912 0.091735 5.32662
0 0.97907 0.0912627 2.09006
0 0.978994 0.0910766 0.545683
0 0.979052 0.0910867 0.540632
0 0.97901 0.09111 0.307087
0 0.979044 0.0910915 0.579409
0 0.979071 0.0911525 1.86775
0 0.979114 0.0911852 2.27982
0 0.979073 0.0911024 1.14319
0 0.978893 0.162632 281.316
0 0.97888 0.0911205 0.525451
0 0.978831 0.0911563 0.244982
0 0.978752 0.0911998 1.51569
0 0.978831 0.091175 0.785193
0 0.978539 0.0915557 6.5382
0 0.978739 0.0912149 2.31507
0 0.978951 0.163864 349.071
0 0.978772 0.0914843 4.91934
0 0.979047 0.0910743 0.375762
0 0.978945 0.0911017 0.35555
0 0.979031 0.0910853 0.243523
0 0.978969 0.0911172 0.586615
0 0.979206 0.163024 354.448
0 0.978878 0.0914097 1.38427
0 0.97912 0.0911841 1.86852
0 0.979012 0.091216 1.24267
0 0.979095 0.0911744 1.24858
0 0.97913 0.0910497 0.497567
0 0.979096 0.0910807 0.659844
0 0.979094 0.0910964 0.962776
0 0.979123 0.091088 0.839337
0 0.979121 0.0911068 1.45722
0 0.979132 0.0910809 1.1634
0 0.978664 0.161307 316.328
0 0.978915 0.0911085 0.293851
0 0.978861 0.091159 1.11622
0 0.978796 0.0912441 2.83027
0 0.978868 0.0911691 1.38739
0 0.979082 0.0914517 5.39116
0 0.978935 0.0911942 2.27309
0 0.979084 0.0915915 6.65204
0 0.979173 0.0910362 0.313334
0 0.979191 0.0910389 0.628063
0 0.979114 0.0910485 0.223742
0 0.979053 0.0910882 0.346432
0 0.97899 0.0910829 0.336746
0 0.97905 0.0911058 0.591372
0 0.979181 0.0910264 0.215677
0 0.979016 0.162593 282.243
0 0.978716 0.0913655 2.0174
0 0.978951 0.0911149 0.344608
0 0.979123 0.0911054 1.13227
0 0.979066 0.0911214 0.656069
0 0.979169 0.091053 0.807518
0 0.979158 0.0910719 1.0056
0 0.979147 0.0910677 1.14571
0 0.97917 0.091062 1.17438
0 0.978703 0.0914483 1.18931
0 0.978614 0.161818 297.076
0 0.978951 0.0910833 0.524989
0 0.978931 0.091131 1.09888
0 0.979017 0.0911876 2.30641
0 0.978974 0.0911236 1.51779
0 0.97897 0.0915276 2.24508
0 0.978998 0.0912113 2.14614
0 0.979016 0.0910623 0.285822
0 0.979216 0.0910279 0.859504
0 0.979219 0.091012 0.497702
0 0.979123 0.0910544 0.355002
0 0.979077 0.0910742 0.424713
0 0.979078 0.091062 0.644998
0 0.979182 0.0910177 0.311238
0 0.979221 0.0909896 0.371133
0 0.978994 0.0913122 0.711333
0 0.978979 0.164659 396.092
0 0.979135 0.0910563 1.02734
0 0.978879 0.0911133 0.236384
0 0.979014 0.0910945 0.70171
0 0.979098 0.0910763 0.877862
0 0.978799 0.0911627 1.28777
0 0.979195 0.0910428 1.07415
0 0.979174 0.0910491 1.20543
0 0.979224 0.0910225 1.0299
0 0.979147 0.0910568 1.24461
0 0.978554 0.0914002 0.875436
0 0.978571 0.163252 384.283
0 0.978991 0.091057 0.141509
0 0.978993 0.0911116 1.42977
0 0.978977 0.0911923 0.84555
0 0.978988 0.0911298 1.22066
0 0.978973 0.0911798 1.88908
0 0.979034 0.0910478 0.553191
0 0.979234 0.0909881 0.713544
0 0.97914 0.0910379 0.624032
0 0.979103 0.0910651 1.15906
0 0.979197 0.090991 0.440615
0 0.979227 0.0909732 0.497901
0 0.978973 0.0913143 2.89557
0 0.979016 0.161657 249.927
0 0.979099 0.0910482 0.992409
0 0.97896 0.0910861 1.0792
0 0.979048 0.0910615 1.00408
0 0.978721 0.0912393 1.62399
0 0.978901 0.09111 1.36639
0 0.979202 0.0910308 1.21743
0 0.979177 0.0910337 1.19004
0 0.979222 0.091005 1.06245
0 0.979143 0.0910358 1.16989
0 0.979085 0.0910504 1.19029
0 0.978721 0.0913043 2.72269
0 0.978457 0.0915398 1.5615
0 0.97833 0.160899 280.907
0 0.97901 0.0910562 0.446047
0 0.978991 0.0911062 1.11028
0 0.978958 0.0912106 2.68411
0 0.97899 0.0911357 1.87734
0 0.979052 0.0910529 1.048
0 0.979109 0.0910469 1.24982
0 0.979221 0.0909901 0.826212
0 0.979158 0.0910069 0.771093
0 0.979201 0.0909912 0.581129
0 0.979211 0.0910042 0.699038
0 0.979207 0.0910022 0.648349
0 0.978933 0.0912289 2.12571
0 0.978884 0.0914188 3.59741
0 0.978918 0.163233 411.615
0 0.979006 0.0910479 1.12979
0 0.978885 0.09114 1.65826
0 0.978847 0.0912021 2.30265
0 0.97904 0.0910589 1.0428
0 0.97918 0.091022 1.08418
0 0.979118 0.0910509 1.03196
0 0.978766 0.0913294 3.68054
0 0.978675 0.0916359 4.90885
0 0.978451 0.160968 369.751
0 0.979024 0.0910524 0.970042
0 0.978999 0.0911236 1.89727
0 0.978996 0.0911682 1.78958
0 0.979069 0.0910441 1.19221
0 0.979127 0.0910337 1.07656
0 0.979184 0.091028 0.821572
0 0.979176 0.0910503 0.794424
0 0.979168 0.0910224 0.791906
0 0.979173 0.0910462 0.792575
0 0.978939 0.091222 1.14648
0 0.978802 0.0914338 3.80415
0 0.97878 0.16137 268.148
0 0.978957 0.0910793 1.13557
0 0.978856 0.0911475 1.72451
0 0.979039 0.0910722 0.905812
0 0.979127 0.0910527 0.875131
0 0.978809 0.0911421 1.05487
0 0.978733 0.0912903 3.47571
0 0.978815 0.0915841 6.95388
0 0.978818 0.164242 352.023
0 0.97904 0.0910612 1.19398
0 0.97901 0.0911636 1.12277
0 0.979078 0.0910512 0.976579
0 0.979123 0.0910611 1.04114
0 0.979125 0.0910639 0.813056
0 0.979128 0.0910795 0.951498
0 0.979132 0.0910665 0.890301
0 0.979124 0.0910785 0.861385
0 0.979001 0.091203 0.742892
0 0.978956 0.0912776 0.855933
0 0.978901 0.0913578 1.92156
0 0.978757 0.159961 308.361
0 0.978945 0.091085 0.587118
0 0.979048 0.0910743 0.795384
0 0.978822 0.0911388 0.488213
0 0.978637 0.0912187 1.4616
0 0.978618 0.0916455 5.10872
0 0.978787 0.163229 301.91
0 0.979044 0.0910697 0.625288
0 0.97908 0.0910507 0.701458
0 0.979065 0.0910766 0.922442
0 0.979079 0.0910633 0.783593
0 0.979082 0.0910558 0.553647
0 0.979003 0.0911623 0.532189
0 0.978942 0.0912971 0.870379
0 0.978911 0.0916159 3.22902
0 0.978951 0.164943 280.544
0 0.978974 0.0911129 0.917075
0 0.978831 0.0912238 1.57626
0 0.978619 0.0912738 1.24147
0 0.978372 0.0917949 2.40403
0 0.978397 0.162822 422.739
0 0.979045 0.0910581 0.452061
0 0.97903 0.0911131 1.1046
0 0.979052 0.0910716 0.623315
0 0.978997 0.0911324 0.313535
0 0.978939 0.0912349 0.325533
0 0.978853 0.0914547 2.46829
0 0.978803 0.162514 370.568
0 0.978935 0.0912417 1.96265
0 0.978752 0.0913677 2.61608
0 0.978467 0.0917491 5.12475
0 0.978243 0.15946 379.092
0 0.979004 0.0912459 2.08547
0 0.979019 0.0910916 0.440196
0 0.979036 0.0911551 1.4351
0 0.979028 0.0911145 0.892765
0 0.978966 0.0911439 0.371293
0 0.978918 0.0913677 1.00707
0 0.97887 0.164496 323.099
0 0.978929 0.091362 3.09977
0 0.978764 0.0915342 2.85119
0 0.978545 0.163531 365.099
0 0.979028 0.0912572 2.16032
0 0.978991 0.0911242 0.555124
0 0.979019 0.0911542 1.33976
0 0.978956 0.0912929 1.54864
0 0.978921 0.159081 350.724
0 0.979035 0.0915455 4.76226
0 0.978903 0.162122 216.664
0 0.979036 0.0914418 3.95267
0 0.978943 0.0912826 1.46622
0 0.97894 0.161883 307.31
0 0.979128 0.163876 334.228
0 0.978926 0.15942 275.978
VECTORS fa_u float
0.00661624 0.00273333 -0
0.0055208 0.00319312 -0
0.00557533 0.00149779 -0
0.0069039 0.000930656 -0
1e-08 0 0
0.0049372 0.00377084 -0
0.00531053 0.00531227 -0
1e-08 0 0
1e-08 0 0
0.00332241 0.00431721 -0
0.00380495 0.00654952 -0
0.00667936 5.91748e-06 -0
0.0060059 -0.000770832 0
1e-08 0 0
1e-08 0 0
1e-08 0 0
1e-08 0 0
1e-08 0 0
1e-08 0 0
1e-08 0 0
1e-08 0 0
0.0021863 0.00523709 -0
0.0021768 0.00816276 -0
1e-08 0 0
1e-08 0 0
1e-08 0 0
0.00712683 -0.00189236 0
1e-08 0 0
0.00654083 -0.00273987 0
1e-08 0 0
1e-08 0 0
1e-08 0 0
0.000690289 0.00540516 -0
1e-08 0 0
1e-08 0 0
1e-08 0 0
1e-08 0 0
1e-08 0 0
1e-08 0 0
1e-08 0 0
1e-08 0 0
1e-08 0 0
1e-08 0 0
2.51447e-06 0.00695052 -0
1e-08 0 0
1e-08 0 0
1e-08 0 0
0.00496681 -0.00288139 0
1e-08 0 0
0.00574762 -0.00441751 0
1e-08 0 0
1e-08 0 0
1e-08 0 0
1e-08 0 0
1e-08 0 0
1e-08 0 0
1e-08 0 0
1e-08 0 0
1e-08 0 0
1e-08 0 0
1e-08 0 0
1e-08 0 0
1e-08 0 0
-0.000909286 0.00677164 0
1e-08 0 0
1e-08 0 0
1e-08 0 0
1e-08 0 0
1e-08 0 0
0.00458776 -0.0046208 0
1e-08 0 0
0.0034451 -0.00447315 0
1e-08 0 0
1e-08 0 0
1e-08 0 0
1e-08 0 0
1e-08 0 0
1e-08 0 0
1e-08 0 0
1e-08 0 0
1e-08 0 0
1e-08 0 0
1e-08 0 0
1e-08 0 0
1e-08 0 0
-0.00155324 0.00578346 0
1e-08 0 0
1e-08 0 0
1e-08 0 0
1e-08 0 0
1e-08 0 0
1e-08 0 0
0.00348419 -0.00596292 0
1e-08 0 0
1e-08 0 0
1e-08 0 0
1e-08 0 0
1e-08 0 0
0.00280302 -0.00676431 0
1e-08 0 0
1e-08 0 0
1e-08 0 0
1e-08 0 0
1e-08 0 0
1e-08 0 0
1e-08 0 0
1e-08 0 0
1e-08 0 0
1e-08 0 0
-0.00243515 0.00593698 0
1e-08 0 0
1e-08 0 0
1e-08 0 0
1e-08 0 0
1e-08 0 0
1e-08 0 0
1e-08 0 0
1e-08 0 0
1e-08 0 0
1e-08 0 0
1e-08 0 0
1e-08 0 0
1e-08 0 0
1e-08 0 0
0.00174008 -0.00661479 0
1e-08 0 0
1e-08 0 0
1e-08 0 0
1e-08 0 0
1e-08 0 0
1e-08 0 0
1e-08 0 0
1e-08 0 0
1e-08 0 0
-0.00401977 0.00692436 0
1e-08 0 0
1e-08 0 0
1e-08 0 0
1e-08 0 0
1e-08 0 0
1e-08 0 0
1e-08 0 0
1e-08 0 0
1e-08 0 0
1e-08 0 0
1e-08 0 0
1e-08 0 0
1e-08 0 0
1e-08 0 0
1e-08 0 0
0.000666604 -0.004959 0
1e-08 0 0
1e-08 0 0
1e-08 0 0
1e-08 0 0
1e-08 0 0
1e-08 0 0
1e-08 0 0
1e-08 0 0
1e-08 0 0
1e-08 0 0
-0.00330868 0.00428627 0
1e-08 0 0
1e-08 0 0
1e-08 0 0
1e-08 0 0
1e-08 0 0
1e-08 0 0
1e-08 0 0
1e-08 0 0
1e-08 0 0
1e-08 0 0
1e-08 0 0
1e-08 0 0
1.84388e-05 -0.00851495 0
1e-08 0 0
1e-08 0 0
1e-08 0 0
1e-08 0 0
1e-08 0 0
1e-08 0 0
1e-08 0 0
1e-08 0 0
1e-08 0 0
1e-08 0 0
1e-08 0 0
1e-08 0 0
-0.00490116 0.00491711 0
1e-08 0 0
1e-08 0 0
1e-08 0 0
1e-08 0 0
1e-08 0 0
1e-08 0 0
1e-08 0 0
1e-08 0 0
1e-08 0 0
1e-08 0 0
1e-08 0 0
1e-08 0 0
1e-08 0 0
-0.000665884 -0.00509348 0
1e-08 0 0
1e-08 0 0
1e-08 0 0
1e-08 0 0
1e-08 0 0
1e-08 0 0
1e-08 0 0
1e-08 0 0
-0.00466096 0.00360272 0
1e-08 0 0
1e-08 0 0
1e-08 0 0
1e-08 0 0
1e-08 0 0
1e-08 0 0
1e-08 0 0
1e-08 0 0
1e-08 0 0
1e-08 0 0
1e-08 0 0
-0.00199129 -0.00751918 0
1e-08 0 0
1e-08 0 0
1e-08 0 0
1e-08 0 0
1e-08 0 0
1e-08 0 0
1e-08 0 0
-0.00582776 0.00341417 0
1e-08 0 0
1e-08 0 0
1e-08 0 0
1e-08 0 0
1e-08 0 0
1e-08 0 0
1e-08 0 0
1e-08 0 0
1e-08 0 0
1e-08 0 0
1e-08 0 0
-0.0024258 -0.00583348 0
1e-08 0 0
1e-08 0 0
1e-08 0 0
1e-08 0 0
1e-08 0 0
-0.00787342 0.0032302 0
1e-08 0 0
1e-08 0 0
1e-08 0 0
1e-08 0 0
1e-08 0 0
1e-08 0 0
1e-08 0 0
1e-08 0 0
-0.00339917 -0.00587503 0
1e-08 0 0
1e-08 0 0
1e-08 0 0
1e-08 0 0
-0.00486454 0.00128258 0
1e-08 0 0
1e-08 0 0
1e-08 0 0
1e-08 0 0
1e-08 0 0
1e-08 0 0
-0.00425096 -0.00549832 0
1e-08 0 0
1e-08 0 0
1e-08 0 0
-0.00712088 0.000947702 0
1e-08 0 0
1e-08 0 0
1e-08 0 0
1e-08 0 0
1e-08 0 0
1e-08 0 0
-0.00398512 -0.003982 0
1e-08 0 0
1e-08 0 0
-0.0062097 3.11615e-06 0
1e-08 0 0
1e-08 0 0
1e-08 0 0
1e-08 0 0
-0.00591441 -0.00454259 0
1e-08 0 0
-0.00732489 -0.000975154 0
1e-08 0 0
1e-08 0 0
-0.00520053 -0.00299774 0
-0.00554667 -0.0014911 0
-0.00665377 -0.00275107 0
