# vtk DataFile Version 2.0
CellBP Time: 0.64
ASCII
DATASET UNSTRUCTURED_GRID
POINTS 296 double
-9.17332 -3.7703 0
-8.59021 -4.93833 0
-9.59153 -2.53322 0
-9.84565 -1.2528 0
-8.35373 -2.81659 0
-7.8659 -6.02422 0
-7.0052 -7.00547 0
-7.91306 -3.8723 0
-7.33868 -4.86531 0
-6.02328 -7.86479 0
-4.93733 -8.58791 0
-9.92175 0.0497545 0
-9.84247 1.35226 0
-8.65429 -1.68299 0
-8.78301 -0.529519 0
-7.5859 -2.00261 0
-7.22172 -2.90435 0
-6.63452 -5.77663 0
-5.82024 -6.59448 0
-6.78627 -3.88644 0
-6.21711 -4.67351 0
-3.76817 -9.16767 0
-2.53316 -9.59081 0
-4.90479 -7.30653 0
-3.91205 -7.88425 0
-8.78964 0.642908 0
-9.59397 2.63412 0
-8.62054 1.77327 0
-9.16256 3.86591 0
-7.74085 -0.928261 0
-7.79125 0.080326 0
-6.94912 -1.31483 0
-1.25258 -9.84639 0
-6.43828 -2.1517 0
-6.31606 -3.0542 0
-5.53382 -5.47224 0
-4.79384 -6.11321 0
-5.65603 -3.75498 0
-5.26649 -4.55934 0
-2.86542 -8.36195 0
-1.7781 -8.63804 0
-3.92671 -6.72144 0
-3.05586 -7.15069 0
0.0501741 -9.93114 0
-7.7025 1.143 0
-8.33644 2.91466 0
-7.54918 2.11099 0
-8.59066 5.03863 0
-7.8774 3.97686 0
-7.87022 6.1274 0
-6.77562 -0.396432 0
-6.95348 0.552454 0
-5.76904 -1.00286 0
-0.590639 -8.80704 0
0.565262 -8.76774 0
-5.30083 -2.47897 0
-4.48958 -5.09349 0
-3.90067 -5.77314 0
-4.43696 -3.80311 0
-2.06179 -7.5599 0
-1.13516 -7.78349 0
-2.99333 -6.10002 0
-2.30834 -6.61785 0
1.35219 -9.84326 0
-6.68684 1.42141 0
-7.16943 3.11683 0
-6.65674 2.37202 0
-7.29193 4.98678 0
-6.7155 4.00136 0
-7.00511 7.10485 0
-6.57 5.89159 0
-6.02099 7.96181 0
-4.45191 -1.18078 0
-5.81256 0.513401 0
-4.65499 -0.0106673 0
0.00820296 -7.84526 0
1.73734 -8.64016 0
0.948095 -7.76018 0
-4.03735 -2.40555 0
-3.4852 -1.39106 0
-3.29326 -4.80364 0
-3.26513 -3.2668 0
-1.37832 -6.67322 0
-0.508927 -7.02233 0
-1.97496 -5.53537 0
2.63153 -9.58561 0
-5.50545 2.03625 0
-6.09242 3.07088 0
-6.10275 4.86748 0
-5.75949 3.98959 0
-5.75895 6.71421 0
-5.44998 5.61679 0
-4.93956 8.69204 0
-4.8364 7.40141 0
-3.501 -0.424267 0
-4.44807 1.24868 0
-3.71071 0.591954 0
-4.06097 2.31946 0
-3.76827 9.26768 0
2.86104 -8.32883 0
0.41892 -6.79248 0
2.02057 -7.52229 0
1.30486 -6.90229 0
-2.44452 -0.873647 0
-2.83807 -2.13075 0
-2.29394 -4.09625 0
-2.32529 -2.97292 0
-0.442548 -5.85899 0
-1.22231 -4.49797 0
3.86802 -9.16806 0
-4.7881 3.39053 0
-5.08597 4.59202 0
-4.64524 6.27854 0
-4.53705 5.35723 0
-3.84253 7.99042 0
-3.82504 6.84245 0
-2.78198 8.41975 0
-1.64902 -0.13773 0
-1.45018 -0.89046 0
-2.48901 0.507438 0
-3.25298 1.44406 0
-3.23811 3.31568 0
-2.91038 2.37163 0
-1.35517 0.627293 0
-2.53344 9.69093 0
3.93084 -7.88354 0
2.96258 -7.15396 0
0.953212 -5.81948 0
2.0728 -6.41231 0
-1.68278 -1.99186 0
-1.43412 -3.27707 0
0.0900557 -4.74543 0
-0.565899 -3.69365 0
4.92975 -7.31565 0
5.04231 -8.59739 0
-3.7756 4.5498 0
-3.73328 5.74961 0
-2.88663 7.28677 0
-3.00845 6.35102 0
-1.66208 8.7309 0
-1.93921 7.61659 0
-2.33781 4.0505 0
-0.73068 -1.32717 0
-0.836928 -0.257495 0
-1.93622 1.68097 0
-2.1255 2.87553 0
-1.30653 3.54411 0
-0.869641 1.35102 0
-0.282518 0.456172 0
-0.533295 8.86933 0
-1.25181 9.93842 0
1.11212 -4.57288 0
3.90773 -6.71361 0
2.98604 -6.09161 0
2.11651 -5.42241 0
4.78204 -6.20224 0
-0.55871 -2.47653 0
0.495043 -3.46307 0
0.0535583 -1.61044 0
1.48125 -3.68094 0
5.86474 -6.61185 0
6.12128 -7.86252 0
-2.47483 5.34648 0
-2.12948 6.53192 0
-0.903654 7.80098 0
-1.27163 6.92959 0
0.0862271 7.87834 0
-1.14426 4.49356 0
0.150225 -0.617576 0
-0.797701 2.48862 0
-0.33196 3.60038 0
0.0628291 1.51284 0
0.741193 0.47345 0
0.646262 8.87229 0
0.049863 10.033 0
2.37979 -4.2834 0
3.8571 -5.63755 0
2.99978 -5.21021 0
5.57159 -5.48942 0
4.6888 -5.28032 0
0.629699 -2.29329 0
1.25583 -2.95061 0
0.75742 -1.39145 0
2.16355 -3.1349 0
2.99261 -3.4753 0
6.15327 -4.78993 0
6.65339 -5.76727 0
7.10444 -7.00429 0
-1.0192 5.8185 0
-0.372249 6.88149 0
1.12238 7.76802 0
0.557995 7.07805 0
-0.00092842 4.72423 0
0.60663 3.82731 0
1.33873 -0.641942 0
0.538738 2.65092 0
0.965735 1.57498 0
1.90991 0.213786 0
1.61442 1.065 0
2.12921 7.58231 0
1.79907 8.71073 0
1.3517 9.93832 0
3.82117 -4.34962 0
5.11461 -4.44689 0
5.84403 -3.93358 0
3.7827 -3.19991 0
1.81199 -1.88263 0
3.01829 -2.57332 0
6.78194 -3.94673 0
7.37988 -4.89533 0
7.96199 -6.02097 0
0.483327 5.88015 0
1.428 6.74063 0
2.37412 6.66807 0
1.20961 4.55545 0
1.4878 3.39718 0
2.4354 -0.692044 0
2.8276 0.14258 0
1.78851 2.16274 0
2.61156 1.15007 0
3.07187 7.16923 0
2.90427 8.37574 0
2.63347 9.69102 0
4.90974 -3.32656 0
6.11931 -3.10769 0
4.17183 -2.2748 0
3.24377 -1.50282 0
6.73033 -2.31274 0
7.23116 -3.04217 0
7.96402 -3.91173 0
8.69168 -4.93936 0
2.02334 5.59889 0
3.08576 6.1526 0
2.36361 4.12623 0
2.41975 3.06046 0
3.52504 -0.460782 0
3.61514 0.613355 0
2.96136 2.28778 0
3.54489 1.52507 0
4.01105 5.89715 0
3.98393 6.79257 0
3.9735 7.93836 0
3.86972 9.27103 0
5.5678 -1.91584 0
4.50837 -1.12943 0
6.71302 -1.33598 0
7.59192 -2.03626 0
8.39675 -2.86127 0
9.27422 -3.77109 0
3.41805 4.87603 0
3.33815 3.38469 0
4.69039 0.130144 0
4.518 1.30961 0
4.0641 2.44315 0
4.56909 5.15153 0
4.84281 6.19028 0
4.98003 7.38027 0
5.03973 8.69208 0
5.88239 -0.435017 0
7.01002 -0.488428 0
7.75915 -1.08514 0
8.68452 -1.74596 0
9.68436 -2.53171 0
4.55096 3.82664 0
5.81633 1.09799 0
5.36959 2.53405 0
5.37846 4.61968 0
5.61098 5.52295 0
5.8965 6.67154 0
6.1283 7.97157 0
6.84511 0.463004 0
7.85289 -0.0257791 0
8.86013 -0.584058 0
9.94233 -1.25208 0
6.95935 1.34872 0
5.71955 3.77758 0
6.54004 2.19661 0
6.37865 3.08704 0
6.291 4.6862 0
6.69191 5.83733 0
7.10501 7.1053 0
7.78376 0.967197 0
8.85911 0.572744 0
10.0284 0.0503721 0
7.61524 2.00364 0
6.82741 3.90319 0
7.26816 2.9459 0
7.37725 4.88502 0
7.96778 6.12559 0
8.72223 1.72642 0
9.94756 1.35301 0
8.41961 2.83714 0
7.98062 3.91566 0
8.68667 5.03617 0
9.68683 2.63213 0
9.27421 3.87069 0
CELLS 542 2168
3 2 0 4
3 0 1 7
3 4 0 7
3 1 5 8
3 7 1 8
3 3 2 13
3 13 2 4
3 11 3 14
3 14 3 13
3 13 4 15
3 4 7 16
3 15 4 16
3 5 6 17
3 8 5 17
3 6 9 18
3 17 6 18
3 7 8 19
3 16 7 19
3 8 17 20
3 19 8 20
3 9 10 23
3 18 9 23
3 10 21 24
3 23 10 24
3 12 11 25
3 25 11 14
3 26 12 27
3 27 12 25
3 14 13 29
3 29 13 15
3 25 14 30
3 30 14 29
3 29 15 31
3 15 16 33
3 31 15 33
3 16 19 34
3 33 16 34
3 17 18 35
3 20 17 35
3 18 23 36
3 35 18 36
3 19 20 37
3 34 19 37
3 20 35 38
3 37 20 38
3 21 22 39
3 24 21 39
3 22 32 40
3 39 22 40
3 23 24 41
3 36 23 41
3 24 39 42
3 41 24 42
3 27 25 44
3 44 25 30
3 28 26 45
3 45 26 27
3 45 27 46
3 46 27 44
3 47 28 48
3 48 28 45
3 30 29 50
3 50 29 31
3 44 30 51
3 51 30 50
3 50 31 52
3 31 33 52
3 32 43 53
3 40 32 53
3 53 43 54
3 33 34 55
3 34 37 55
3 33 55 52
3 35 36 56
3 38 35 56
3 36 41 57
3 56 36 57
3 37 38 58
3 38 56 58
3 37 58 55
3 39 40 59
3 42 39 59
3 40 53 60
3 59 40 60
3 41 42 61
3 57 41 61
3 42 59 62
3 61 42 62
3 43 63 54
3 46 44 64
3 64 44 51
3 48 45 65
3 65 45 46
3 65 46 66
3 66 46 64
3 49 47 67
3 67 47 48
3 67 48 68
3 68 48 65
3 69 49 70
3 70 49 67
3 52 55 72
3 64 51 73
3 51 50 73
3 50 52 73
3 73 52 74
3 74 52 72
3 53 54 75
3 60 53 75
3 54 63 76
3 54 76 77
3 75 54 77
3 55 58 78
3 72 55 78
3 72 78 79
3 56 57 80
3 57 61 80
3 56 80 58
3 58 80 81
3 78 58 81
3 59 60 82
3 62 59 82
3 60 75 83
3 82 60 83
3 61 62 84
3 62 82 84
3 61 84 80
3 63 85 76
3 66 64 86
3 64 73 86
3 68 65 87
3 87 65 66
3 87 66 86
3 70 67 88
3 88 67 68
3 88 68 89
3 89 68 87
3 71 69 90
3 90 69 70
3 90 70 91
3 91 70 88
3 92 71 93
3 93 71 90
3 74 72 94
3 94 72 79
3 86 73 95
3 95 73 74
3 95 74 96
3 96 74 94
3 97 86 95
3 76 85 99
3 75 77 100
3 83 75 100
3 76 99 101
3 77 76 101
3 77 101 102
3 100 77 102
3 94 79 103
3 78 81 104
3 79 78 104
3 79 104 103
3 80 84 105
3 81 80 105
3 81 105 106
3 104 81 106
3 82 83 107
3 83 100 107
3 82 107 84
3 84 107 108
3 105 84 108
3 85 109 99
3 89 87 110
3 87 86 110
3 110 86 97
3 91 88 111
3 111 88 89
3 111 89 110
3 93 90 112
3 112 90 91
3 112 91 113
3 113 91 111
3 98 92 114
3 114 92 93
3 114 93 115
3 115 93 112
3 116 98 114
3 117 103 118
3 96 94 119
3 94 103 119
3 119 103 117
3 97 95 120
3 120 95 96
3 120 96 119
3 121 110 97
3 121 97 122
3 122 97 120
3 123 119 117
3 124 98 116
3 99 109 125
3 99 125 126
3 101 99 126
3 100 102 127
3 100 127 107
3 101 126 128
3 102 101 128
3 102 128 127
3 104 106 129
3 104 129 103
3 103 129 118
3 105 108 130
3 106 105 130
3 106 130 129
3 107 127 131
3 108 107 131
3 108 131 132
3 108 132 130
3 109 134 125
3 125 134 133
3 113 111 135
3 111 110 135
3 135 110 121
3 115 112 136
3 136 112 113
3 136 113 135
3 116 114 137
3 137 114 115
3 137 115 138
3 138 115 136
3 139 124 116
3 139 116 140
3 140 116 137
3 141 135 121
3 118 129 142
3 118 142 143
3 117 118 143
3 123 117 143
3 122 120 144
3 120 119 144
3 144 119 123
3 141 121 145
3 145 121 122
3 145 122 144
3 146 141 145
3 147 144 123
3 147 123 148
3 143 148 123
3 150 124 139
3 149 150 139
3 131 127 151
3 125 133 152
3 126 125 152
3 126 152 153
3 128 126 153
3 128 153 154
3 128 154 127
3 127 154 151
3 152 133 155
3 130 132 156
3 130 156 129
3 129 156 142
3 131 151 157
3 132 131 157
3 132 157 156
3 156 158 142
3 157 151 159
3 133 160 155
3 134 161 133
3 133 161 160
3 138 136 162
3 136 135 162
3 162 135 141
3 140 137 163
3 163 137 138
3 163 138 162
3 149 139 164
3 164 139 140
3 164 140 165
3 165 140 163
3 166 149 164
3 167 162 141
3 167 141 146
3 142 158 168
3 143 142 168
3 143 168 148
3 146 145 169
3 145 144 169
3 169 144 147
3 170 167 146
3 170 146 169
3 171 169 147
3 171 147 148
3 171 148 172
3 168 172 148
3 173 149 166
3 174 150 149
3 173 174 149
3 154 175 151
3 151 175 159
3 152 155 176
3 153 152 176
3 153 176 177
3 153 177 154
3 154 177 175
3 155 160 178
3 155 178 179
3 176 155 179
3 156 157 180
3 156 180 158
3 157 159 181
3 157 181 180
3 158 180 182
3 158 182 168
3 159 175 183
3 159 183 181
3 175 184 183
3 160 186 178
3 178 186 185
3 161 187 160
3 160 187 186
3 165 163 188
3 163 162 188
3 188 162 167
3 166 164 189
3 189 164 165
3 189 165 188
3 190 173 166
3 190 166 191
3 191 166 189
3 192 188 167
3 192 167 170
3 193 192 170
3 182 194 168
3 194 172 168
3 193 170 195
3 170 169 195
3 195 169 171
3 196 195 171
3 196 171 172
3 194 197 172
3 197 198 172
3 198 196 172
3 200 173 190
3 199 200 190
3 201 174 173
3 200 201 173
3 176 179 202
3 177 176 202
3 177 202 175
3 175 202 184
3 178 185 203
3 178 203 179
3 179 203 202
3 203 185 204
3 202 205 184
3 183 206 181
3 180 181 206
3 180 206 182
3 182 206 194
3 183 184 207
3 205 207 184
3 183 207 206
3 185 208 204
3 186 209 185
3 185 209 208
3 187 210 186
3 186 210 209
3 191 189 211
3 189 188 211
3 211 188 192
3 199 190 212
3 212 190 191
3 212 191 211
3 213 199 212
3 214 211 192
3 214 192 193
3 215 214 193
3 215 193 195
3 206 216 194
3 216 197 194
3 216 217 197
3 215 195 218
3 218 195 196
3 198 218 196
3 217 219 197
3 219 218 198
3 197 219 198
3 220 199 213
3 221 200 199
3 220 221 199
3 222 201 200
3 221 222 200
3 203 204 223
3 203 223 202
3 202 223 205
3 204 208 224
3 204 224 223
3 205 223 225
3 205 225 207
3 207 225 226
3 207 226 206
3 226 216 206
3 208 228 224
3 224 228 227
3 209 229 208
3 229 228 208
3 210 230 209
3 209 230 229
3 213 212 231
3 212 211 231
3 231 211 214
3 232 220 213
3 232 213 231
3 233 231 214
3 233 214 215
3 234 233 215
3 234 215 218
3 226 235 216
3 235 217 216
3 235 236 217
3 217 236 219
3 237 234 218
3 237 218 219
3 236 238 219
3 238 237 219
3 240 220 232
3 239 240 232
3 241 221 220
3 240 241 220
3 242 222 221
3 241 242 221
3 224 227 243
3 224 243 223
3 223 243 225
3 225 243 244
3 225 244 226
3 226 244 235
3 227 245 243
3 228 246 227
3 227 246 245
3 229 247 228
3 228 247 246
3 230 248 229
3 229 248 247
3 239 232 249
3 232 231 249
3 249 231 233
3 250 249 233
3 250 233 234
3 237 250 234
3 244 251 235
3 235 251 236
3 251 252 236
3 236 252 238
3 252 253 238
3 253 250 237
3 253 237 238
3 254 239 249
3 255 240 239
3 254 255 239
3 256 241 240
3 255 256 240
3 257 242 241
3 256 257 241
3 245 258 243
3 243 258 244
3 244 258 251
3 245 259 258
3 246 260 245
3 245 260 259
3 247 261 246
3 246 261 260
3 248 262 247
3 247 262 261
3 254 249 263
3 263 249 250
3 253 263 250
3 258 264 251
3 251 264 252
3 264 265 252
3 265 263 253
3 252 265 253
3 266 254 263
3 267 255 254
3 266 267 254
3 268 256 255
3 267 268 255
3 269 257 256
3 268 269 256
3 259 270 258
3 270 264 258
3 260 271 259
3 259 271 270
3 261 272 260
3 260 272 271
3 262 273 261
3 273 272 261
3 270 274 264
3 275 266 263
3 275 263 265
3 274 276 264
3 276 265 264
3 276 277 265
3 277 275 265
3 278 267 266
3 275 278 266
3 279 268 267
3 278 279 267
3 280 269 268
3 279 280 268
3 271 281 270
3 270 281 274
3 272 282 271
3 271 282 281
3 273 283 272
3 272 283 282
3 281 284 274
3 274 284 276
3 285 278 275
3 277 285 275
3 284 286 276
3 286 285 277
3 276 286 277
3 287 279 278
3 285 287 278
3 288 280 279
3 287 288 279
3 282 289 281
3 281 289 284
3 283 290 282
3 282 290 289
3 289 291 284
3 284 291 286
3 291 292 286
3 292 287 285
3 286 292 285
3 293 288 287
3 292 293 287
3 290 294 289
3 289 294 291
3 294 295 291
3 295 293 292
3 291 295 292
CELL_TYPES 542
5
5
5
5
5
5
5
5
5
5
5
5
5
5
5
5
5
5
5
5
5
5
5
5
5
5
5
5
5
5
5
5
5
5
5
5
5
5
5
5
5
5
5
5
5
5
5
5
5
5
5
5
5
5
5
5
5
5
5
5
5
5
5
5
5
5
5
5
5
5
5
5
5
5
5
5
5
5
5
5
5
5
5
5
5
5
5
5
5
5
5
5
5
5
5
5
5
5
5
5
5
5
5
5
5
5
5
5
5
5
5
5
5
5
5
5
5
5
5
5
5
5
5
5
5
5
5
5
5
5
5
5
5
5
5
5
5
5
5
5
5
5
5
5
5
5
5
5
5
5
5
5
5
5
5
5
5
5
5
5
5
5
5
5
5
5
5
5
5
5
5
5
5
5
5
5
5
5
5
5
5
5
5
5
5
5
5
5
5
5
5
5
5
5
5
5
5
5
5
5
5
5
5
5
5
5
5
5
5
5
5
5
5
5
5
5
5
5
5
5
5
5
5
5
5
5
5
5
5
5
5
5
5
5
5
5
5
5
5
5
5
5
5
5
5
5
5
5
5
5
5
5
5
5
5
5
5
5
5
5
5
5
5
5
5
5
5
5
5
5
5
5
5
5
5
5
5
5
5
5
5
5
5
5
5
5
5
5
5
5
5
5
5
5
5
5
5
5
5
5
5
5
5
5
5
5
5
5
5
5
5
5
5
5
5
5
5
5
5
5
5
5
5
5
5
5
5
5
5
5
5
5
5
5
5
5
5
5
5
5
5
5
5
5
5
5
5
5
5
5
5
5
5
5
5
5
5
5
5
5
5
5
5
5
5
5
5
5
5
5
5
5
5
5
5
5
5
5
5
5
5
5
5
5
5
5
5
5
5
5
5
5
5
5
5
5
5
5
5
5
5
5
5
5
5
5
5
5
5
5
5
5
5
5
5
5
5
5
5
5
5
5
5
5
5
5
5
5
5
5
5
5
5
5
5
5
5
5
5
5
5
5
5
5
5
5
5
5
5
5
5
5
5
5
5
5
5
5
5
5
5
5
5
5
5
5
5
5
5
5
5
5
5
5
5
5
5
5
5
5
5
5
5
5
5
5
5
5
5
5
5
5
5
5
5
5
5
5
5
5
5
5
5
5
5
5
5
5
5
5
5
5
5
5
5
5
5
5
5
5
5
5
5
5
5
5
5
5
5
5
5
5
5
5
5
5
5
5
5
5
5
5
POINT_DATA 296
SCALARS concentrations float 4
LOOKUP_TABLE default
0 0.995953 0.122524 103.724
0 0.996103 0.119557 45.2804
0 0.995511 0.117545 148.719
0 0.995306 0.12074 85.9509
0 0.995787 0.0923379 9.46767
0 0.996131 0.125148 206.149
0 0.995981 0.119816 197.687
0 0.996037 0.0922565 4.71903
0 0.996106 0.0918782 1.04385
0 0.996206 0.123162 144.594
0 0.996047 0.121805 177.892
0 0.995222 0.121633 304.203
0 0.995291 0.12374 235.117
0 0.995496 0.0919312 8.5346
0 0.995375 0.0916896 6.89734
0 0.99578 0.0914099 3.29065
0 0.995933 0.0914144 2.70637
0 0.996018 0.0921352 5.5079
0 0.996035 0.0916436 4.76835
0 0.996011 0.0914127 2.93287
0 0.995999 0.0913616 2.12645
0 0.995735 0.122091 208.806
0 0.995689 0.124964 200.258
0 0.996085 0.0914578 1.55691
0 0.995858 0.0915591 1.14531
0 0.995349 0.0915547 5.62763
0 0.995249 0.118561 65.4654
0 0.995373 0.0919537 4.58627
0 0.994908 0.120915 287.038
0 0.995636 0.0913072 3.13915
0 0.995567 0.0912086 2.18021
0 0.995796 0.091126 1.26402
0 0.996003 0.122043 20.2703
0 0.995867 0.0911228 1.85778
0 0.995929 0.0911772 2.80873
0 0.995956 0.091317 0.958413
0 0.995933 0.0913193 0.802847
0 0.99592 0.0911486 2.87935
0 0.995908 0.09119 2.51759
0 0.9957 0.091572 3.10859
0 0.995836 0.0919027 4.21405
0 0.995868 0.0912187 1.95712
0 0.99578 0.0912025 1.22435
0 0.995974 0.120552 149.871
0 0.99553 0.0912705 2.21983
0 0.995191 0.0918184 0.800541
0 0.99546 0.0912152 1.82959
0 0.994836 0.121438 200.835
0 0.995002 0.0913137 1.64745
0 0.994962 0.118763 161.912
0 0.995738 0.0910461 0.195714
0 0.995679 0.0910894 0.970497
0 0.995823 0.0909807 1.02074
0 0.995965 0.0916921 3.62575
0 0.995844 0.0913917 2.94107
0 0.995862 0.0909845 2.25523
0 0.995859 0.0911667 2.1102
0 0.99583 0.0911635 2.0985
0 0.995841 0.0910107 2.188
0 0.995771 0.0913028 0.274474
0 0.99582 0.0913702 1.34784
0 0.995784 0.0910721 2.02085
0 0.99576 0.0910959 1.43123
0 0.995787 0.122493 256.373
0 0.995657 0.0910569 1.04386
0 0.995357 0.0911637 1.29487
0 0.995583 0.0910903 1.07644
0 0.995021 0.0911499 2.11689
0 0.995301 0.0911006 1.38881
0 0.995364 0.122733 244.048
0 0.995232 0.0916584 4.97798
0 0.99558 0.123879 184.215
0 0.995836 0.0909749 1.45167
0 0.995764 0.090994 0.550677
0 0.995817 0.0909921 0.888469
0 0.995812 0.0912903 3.09372
0 0.995687 0.0917474 5.3979
0 0.995726 0.0912869 5.04978
0 0.995829 0.0909679 1.90949
0 0.995827 0.0909815 1.60295
0 0.995792 0.0909949 1.79571
0 0.995798 0.0909707 1.79004
0 0.995756 0.0910898 1.71157
0 0.995761 0.0911892 2.80524
0 0.995749 0.0909815 1.48905
0 0.995621 0.119925 196.581
0 0.995709 0.091037 0.530352
0 0.995562 0.0910719 0.997467
0 0.99535 0.0913011 3.10168
0 0.99552 0.0911611 1.84925
0 0.995508 0.0917482 5.33122
0 0.99547 0.0913626 2.88734
0 0.995498 0.121338 128.996
0 0.995545 0.0915491 3.87878
0 0.995832 0.0909688 1.2667
0 0.995785 0.0910051 0.750363
0 0.995825 0.0909828 1.03164
0 0.995756 0.0910387 0.755493
0 0.995309 0.121876 316.935
0 0.995593 0.0919878 8.37905
0 0.995725 0.0912003 3.89124
0 0.995641 0.091215 4.37273
0 0.995677 0.0912003 4.34792
0 0.995826 0.0909409 1.22636
0 0.99581 0.0909647 1.62433
0 0.995763 0.0909645 1.58665
0 0.995784 0.0909616 1.71924
0 0.995724 0.0910516 2.18298
0 0.995734 0.0909887 1.59289
0 0.995568 0.120689 188.006
0 0.995676 0.0910556 1.07972
0 0.995579 0.0912043 2.37554
0 0.995549 0.0913074 1.86906
0 0.995595 0.0912343 2.49012
0 0.995446 0.0914416 6.22446
0 0.995539 0.0911553 1.76163
0 0.995245 0.0916207 7.42365
0 0.995836 0.0909329 1.06387
0 0.995823 0.090927 1.03914
0 0.995834 0.0909502 1.13524
0 0.995813 0.090998 0.976771
0 0.995741 0.0910335 1.26042
0 0.995795 0.09103 1.05864
0 0.995841 0.0909447 0.931676
0 0.995019 0.115767 90.3379
0 0.995518 0.0917007 6.30565
0 0.995577 0.0912257 3.8607
0 0.995685 0.0911035 2.95475
0 0.995634 0.0911482 3.53319
0 0.995798 0.0909419 1.25748
0 0.995763 0.0909598 1.54673
0 0.995712 0.0910209 1.84604
0 0.995738 0.0909917 1.50163
0 0.995272 0.0914765 4.76278
0 0.995384 0.122136 102.723
0 0.995684 0.0910722 1.76138
0 0.995627 0.0911387 2.10318
0 0.99547 0.0911256 0.537234
0 0.9956 0.0910818 1.42973
0 0.995164 0.0915802 6.14652
0 0.995422 0.0911176 0.28085
0 0.995743 0.0910399 1.67437
0 0.995809 0.0909269 0.905079
0 0.995834 0.0909178 0.657657
0 0.995827 0.090981 1.10119
0 0.995796 0.0910243 1.34449
0 0.995792 0.0910221 1.5005
0 0.995842 0.0909566 0.84609
0 0.995842 0.0909198 0.432751
0 0.995405 0.0915176 1.75173
0 0.995123 0.119493 224.419
0 0.995687 0.0910407 1.99209
0 0.995484 0.0911226 1.59758
0 0.995585 0.0910998 2.34036
0 0.995652 0.091074 2.48627
0 0.995395 0.0911498 1.89862
0 0.99577 0.0909511 1.20631
0 0.995731 0.0910105 1.53254
0 0.995796 0.0909396 0.894041
0 0.995704 0.0910447 1.96063
0 0.995147 0.0915263 4.04499
0 0.995036 0.117971 212.804
0 0.995695 0.0910305 1.64162
0 0.995608 0.0910328 0.695896
0 0.995492 0.0911874 2.91142
0 0.995606 0.091042 1.35583
0 0.995657 0.0912588 4.71468
0 0.995757 0.0910047 1.44369
0 0.995825 0.0909058 0.158159
0 0.995827 0.0909893 1.08751
0 0.995813 0.091018 1.20228
0 0.995844 0.0909499 0.9206
0 0.995837 0.0909193 0.612403
0 0.995719 0.0920508 10.7282
0 0.995527 0.122469 110.698
0 0.995666 0.0910423 1.86177
0 0.995546 0.0910078 0.599461
0 0.995619 0.091032 1.65575
0 0.995392 0.0912215 3.65713
0 0.99552 0.0910273 1.76255
0 0.995766 0.0909736 1.11546
0 0.995741 0.0910082 1.36136
0 0.995796 0.0909424 0.678837
0 0.995718 0.0910199 1.47834
0 0.995677 0.0910213 1.50232
0 0.995458 0.0912373 4.03757
0 0.995292 0.0917356 7.53773
0 0.995114 0.11984 164.882
0 0.995724 0.0909832 1.37681
0 0.995699 0.0910498 2.48289
0 0.995799 0.0913173 4.84954
0 0.995775 0.0911104 3.49467
0 0.995794 0.091003 1.456
0 0.995832 0.091005 1.49625
0 0.995811 0.0909299 0.55533
0 0.995842 0.090974 1.26994
0 0.995847 0.0909535 1.23858
0 0.995826 0.0909397 1.05691
0 0.995843 0.0909446 1.3173
0 0.995819 0.0912574 4.02256
0 0.995833 0.091811 9.41398
0 0.995825 0.122855 268.671
0 0.995616 0.0909903 1.31731
0 0.99555 0.0910464 2.37989
0 0.995558 0.0910966 2.74191
0 0.995671 0.0909988 1.24349
0 0.995766 0.0909625 0.733211
0 0.995725 0.0909902 1.04292
0 0.995485 0.0911971 3.58936
0 0.995432 0.0914997 6.98975
0 0.995338 0.12246 229.598
0 0.9958 0.0909879 1.89835
0 0.995836 0.0910687 2.9081
0 0.995852 0.0911107 1.95977
0 0.995839 0.0909918 1.60665
0 0.995852 0.0909847 1.83587
0 0.995792 0.0909549 0.950219
0 0.995814 0.0909617 1.4912
0 0.99585 0.0909679 1.7663
0 0.995837 0.0909647 1.8173
0 0.995758 0.0912794 2.66615
0 0.995662 0.0916465 8.03341
0 0.995744 0.122248 187.008
0 0.995636 0.0909927 1.39394
0 0.995592 0.091052 1.23495
0 0.995704 0.0909797 1.068
0 0.995755 0.090964 0.981716
0 0.995599 0.091074 0.759523
0 0.995472 0.0911808 1.33287
0 0.995382 0.0913596 4.25827
0 0.99542 0.122571 208.494
0 0.995856 0.090981 1.54246
0 0.995852 0.091143 1.13596
0 0.995864 0.0909781 1.93745
0 0.99586 0.0909872 2.21799
0 0.995783 0.0909646 1.41873
0 0.995813 0.0909749 1.88839
0 0.995852 0.0909868 2.30135
0 0.995836 0.0909884 2.36568
0 0.99585 0.0912784 1.60238
0 0.995731 0.0913923 1.50763
0 0.995479 0.0918576 8.39993
0 0.995422 0.118963 101.767
0 0.995678 0.0909851 1.0334
0 0.995743 0.0909622 1.2392
0 0.995654 0.0910788 1.86389
0 0.995506 0.0912072 1.76254
0 0.995268 0.0917928 5.64543
0 0.995217 0.120892 179.599
0 0.995874 0.0910379 2.21998
0 0.995868 0.0909875 2.27886
0 0.995785 0.0909608 1.66829
0 0.995825 0.0909645 2.16594
0 0.995854 0.0909865 2.48982
0 0.995865 0.0912507 2.77798
0 0.995756 0.0914933 1.47262
0 0.99552 0.0921516 6.9194
0 0.995322 0.120566 171.515
0 0.995742 0.0909896 1.82592
0 0.995705 0.0911374 2.63901
0 0.995604 0.0912623 3.02731
0 0.995437 0.0918402 9.16089
0 0.99521 0.120036 174.842
0 0.995873 0.0910262 2.73104
0 0.995807 0.0909972 2.15467
0 0.995851 0.0909821 2.44075
0 0.995871 0.091204 3.10362
0 0.995804 0.0914683 2.66642
0 0.995603 0.0919229 1.28396
0 0.995459 0.120929 112.815
0 0.995766 0.0911375 2.77736
0 0.995696 0.0912603 2.93421
0 0.995595 0.0914648 5.07412
0 0.995527 0.123099 210.727
0 0.995815 0.0911887 2.61958
0 0.99587 0.0910509 2.83492
0 0.995841 0.0911095 2.0271
0 0.99586 0.091059 2.17253
0 0.995835 0.0912651 1.91326
0 0.995736 0.0916795 4.5223
0 0.995567 0.12185 156.324
0 0.995771 0.0913218 2.59497
0 0.995671 0.0915655 2.65498
0 0.995567 0.120028 210.262
0 0.995819 0.0912928 1.71512
0 0.995837 0.09106 2.00956
0 0.995822 0.0912601 0.665119
0 0.995779 0.0919476 6.1698
0 0.995765 0.121583 217.896
0 0.995777 0.0915461 1.55009
0 0.995726 0.123002 119.186
0 0.995748 0.0916909 4.62292
0 0.995718 0.0917839 4.04016
0 0.995672 0.122434 250.442
0 0.995735 0.122076 220.079
0 0.995667 0.118339 14.0869
VECTORS fa_u float
0.00661241 0.00275296 -0
0.00517741 0.00300323 -0
0.00623854 0.00166608 -0
0.00716339 0.00091579 -0
1e-08 0 0
0.00526238 0.00403502 -0
0.00468868 0.00469392 -0
1e-08 0 0
1e-08 0 0
0.00400958 0.00523954 -0
0.00308709 0.00534332 -0
0.00542312 -6.61209e-06 -0
0.00646808 -0.000820344 0
1e-08 0 0
1e-08 0 0
1e-08 0 0
1e-08 0 0
1e-08 0 0
1e-08 0 0
1e-08 0 0
1e-08 0 0
0.00249373 0.00597802 -0
0.00176039 0.00652471 -0
1e-08 0 0
1e-08 0 0
1e-08 0 0
0.00778204 -0.00210496 0
1e-08 0 0
0.0048143 -0.00200883 0
1e-08 0 0
1e-08 0 0
1e-08 0 0
0.000868697 0.00659389 -0
1e-08 0 0
1e-08 0 0
1e-08 0 0
1e-08 0 0
1e-08 0 0
1e-08 0 0
1e-08 0 0
1e-08 0 0
1e-08 0 0
1e-08 0 0
-8.02624e-06 0.00668684 -0
1e-08 0 0
1e-08 0 0
1e-08 0 0
0.00567241 -0.00324152 0
1e-08 0 0
0.00592692 -0.00454811 0
1e-08 0 0
1e-08 0 0
1e-08 0 0
1e-08 0 0
1e-08 0 0
1e-08 0 0
1e-08 0 0
1e-08 0 0
1e-08 0 0
1e-08 0 0
1e-08 0 0
1e-08 0 0
1e-08 0 0
-0.000873729 0.00652732 0
1e-08 0 0
1e-08 0 0
1e-08 0 0
1e-08 0 0
1e-08 0 0
0.00453389 -0.00457054 0
1e-08 0 0
0.00349331 -0.00454616 0
1e-08 0 0
1e-08 0 0
1e-08 0 0
1e-08 0 0
1e-08 0 0
1e-08 0 0
1e-08 0 0
1e-08 0 0
1e-08 0 0
1e-08 0 0
1e-08 0 0
1e-08 0 0
1e-08 0 0
-0.00159472 0.00594197 0
1e-08 0 0
1e-08 0 0
1e-08 0 0
1e-08 0 0
1e-08 0 0
1e-08 0 0
0.0035991 -0.00620868 0
1e-08 0 0
1e-08 0 0
1e-08 0 0
1e-08 0 0
1e-08 0 0
0.0023457 -0.00565031 0
1e-08 0 0
1e-08 0 0
1e-08 0 0
1e-08 0 0
1e-08 0 0
1e-08 0 0
1e-08 0 0
1e-08 0 0
1e-08 0 0
1e-08 0 0
-0.00232414 0.00566976 0
1e-08 0 0
1e-08 0 0
1e-08 0 0
1e-08 0 0
1e-08 0 0
1e-08 0 0
1e-08 0 0
1e-08 0 0
1e-08 0 0
1e-08 0 0
1e-08 0 0
1e-08 0 0
1e-08 0 0
1e-08 0 0
0.00191059 -0.00716809 0
1e-08 0 0
1e-08 0 0
1e-08 0 0
1e-08 0 0
1e-08 0 0
1e-08 0 0
1e-08 0 0
1e-08 0 0
1e-08 0 0
-0.00404989 0.00698981 0
1e-08 0 0
1e-08 0 0
1e-08 0 0
1e-08 0 0
1e-08 0 0
1e-08 0 0
1e-08 0 0
1e-08 0 0
1e-08 0 0
1e-08 0 0
1e-08 0 0
1e-08 0 0
1e-08 0 0
1e-08 0 0
1e-08 0 0
0.000700817 -0.00529242 0
1e-08 0 0
1e-08 0 0
1e-08 0 0
1e-08 0 0
1e-08 0 0
1e-08 0 0
1e-08 0 0
1e-08 0 0
1e-08 0 0
1e-08 0 0
-0.00334791 0.00433357 0
1e-08 0 0
1e-08 0 0
1e-08 0 0
1e-08 0 0
1e-08 0 0
1e-08 0 0
1e-08 0 0
1e-08 0 0
1e-08 0 0
1e-08 0 0
1e-08 0 0
1e-08 0 0
-3.14784e-07 -0.00803496 0
1e-08 0 0
1e-08 0 0
1e-08 0 0
1e-08 0 0
1e-08 0 0
1e-08 0 0
1e-08 0 0
1e-08 0 0
1e-08 0 0
1e-08 0 0
1e-08 0 0
1e-08 0 0
-0.00499008 0.00498777 0
1e-08 0 0
1e-08 0 0
1e-08 0 0
1e-08 0 0
1e-08 0 0
1e-08 0 0
1e-08 0 0
1e-08 0 0
1e-08 0 0
1e-08 0 0
1e-08 0 0
1e-08 0 0
1e-08 0 0
-0.000697736 -0.00527113 0
1e-08 0 0
1e-08 0 0
1e-08 0 0
1e-08 0 0
1e-08 0 0
1e-08 0 0
1e-08 0 0
1e-08 0 0
-0.00463284 0.00356111 0
1e-08 0 0
1e-08 0 0
1e-08 0 0
1e-08 0 0
1e-08 0 0
1e-08 0 0
1e-08 0 0
1e-08 0 0
1e-08 0 0
1e-08 0 0
1e-08 0 0
-0.00183141 -0.00691085 0
1e-08 0 0
1e-08 0 0
1e-08 0 0
1e-08 0 0
1e-08 0 0
1e-08 0 0
1e-08 0 0
-0.00565429 0.00329785 0
1e-08 0 0
1e-08 0 0
1e-08 0 0
1e-08 0 0
1e-08 0 0
1e-08 0 0
1e-08 0 0
1e-08 0 0
1e-08 0 0
1e-08 0 0
1e-08 0 0
-0.00254954 -0.00614141 0
1e-08 0 0
1e-08 0 0
1e-08 0 0
1e-08 0 0
1e-08 0 0
-0.00720764 0.00297173 0
1e-08 0 0
1e-08 0 0
1e-08 0 0
1e-08 0 0
1e-08 0 0
1e-08 0 0
1e-08 0 0
1e-08 0 0
-0.00298381 -0.00518613 0
1e-08 0 0
1e-08 0 0
1e-08 0 0
1e-08 0 0
-0.00537219 0.00142486 0
1e-08 0 0
1e-08 0 0
1e-08 0 0
1e-08 0 0
1e-08 0 0
1e-08 0 0
-0.00461083 -0.00600122 0
1e-08 0 0
1e-08 0 0
1e-08 0 0
-0.0066901 0.000891282 0
1e-08 0 0
1e-08 0 0
1e-08 0 0
1e-08 0 0
1e-08 0 0
1e-08 0 0
-0.00410707 -0.0040926 0
1e-08 0 0
1e-08 0 0
-0.00624446 1.25334e-05 0
1e-08 0 0
1e-08 0 0
1e-08 0 0
1e-08 0 0
-0.0058325 -0.00445844 0
1e-08 0 0
-0.00732202 -0.000968574 0
1e-08 0 0
1e-08 0 0
-0.0044751 -0.00259277 0
-0.00535648 -0.00143258 0
-0.00743939 -0.00309504 0
