# vtk DataFile Version 2.0
CellBP Time: 0.28
ASCII
DATASET UNSTRUCTURED_GRID
POINTS 296 double
-9.19064 -3.77764 0
-8.60458 -4.94671 0
-9.60679 -2.53752 0
-9.86415 -1.2552 0
-8.35789 -2.81872 0
-7.87932 -6.03442 0
-7.01926 -7.01935 0
-7.91745 -3.87471 0
-7.34274 -4.86779 0
-6.03474 -7.87974 0
-4.94585 -8.60298 0
-9.94374 0.0500855 0
-9.86628 1.35564 0
-8.65822 -1.68396 0
-8.78665 -0.529963 0
-7.59004 -2.00417 0
-7.22598 -2.9065 0
-6.63761 -5.77915 0
-5.82265 -6.59718 0
-6.79039 -3.88896 0
-6.22065 -4.67608 0
-3.77628 -9.18754 0
-2.53912 -9.61275 0
-4.90661 -7.30891 0
-3.91272 -7.88676 0
-8.79311 0.64355 0
-9.61014 2.63847 0
-8.62385 1.77396 0
-9.1811 3.87366 0
-7.74466 -0.929045 0
-7.79488 0.0802168 0
-6.95279 -1.3159 0
-1.25438 -9.85799 0
-6.44167 -2.15317 0
-6.31955 -3.05619 0
-5.53662 -5.47484 0
-4.79601 -6.11578 0
-5.65912 -3.75714 0
-5.26944 -4.56179 0
-2.86622 -8.36489 0
-1.77889 -8.64105 0
-3.92817 -6.72402 0
-3.05664 -7.15326 0
0.0501424 -9.94881 0
-7.70587 1.14352 0
-8.33893 2.91527 0
-7.55222 2.11194 0
-8.60733 5.04834 0
-7.88009 3.97849 0
-7.88507 6.13882 0
-6.77894 -0.396854 0
-6.9568 0.552558 0
-5.77153 -1.00342 0
-0.590756 -8.81036 0
0.565822 -8.77172 0
-5.30323 -2.48033 0
-4.49198 -5.09598 0
-3.90252 -5.77568 0
-4.43896 -3.80489 0
-2.06251 -7.56275 0
-1.13554 -7.78663 0
-2.99456 -6.10253 0
-2.30906 -6.62041 0
1.35559 -9.86666 0
-6.68967 1.42208 0
-7.17238 3.11825 0
-6.65944 2.37311 0
-7.29492 4.98915 0
-6.71825 4.00335 0
-7.0218 7.12174 0
-6.57288 5.89469 0
-6.03287 7.97736 0
-4.45327 -1.18113 0
-5.81476 0.513763 0
-4.65632 -0.0104149 0
0.00854887 -7.84889 0
1.73843 -8.64464 0
0.948976 -7.76421 0
-4.03863 -2.40649 0
-3.48575 -1.39131 0
-3.29454 -4.80559 0
-3.26598 -3.26796 0
-1.37862 -6.67607 0
-0.508761 -7.0256 0
-1.97556 -5.5374 0
2.63752 -9.60686 0
-5.50746 2.03704 0
-6.09488 3.07239 0
-6.10539 4.87006 0
-5.76192 3.99175 0
-5.76183 6.71737 0
-5.45248 5.61975 0
-4.94797 8.70699 0
-4.83857 7.40487 0
-3.50167 -0.42434 0
-4.44944 1.2491 0
-3.71162 0.592106 0
-4.06227 2.31998 0
-3.77724 9.28988 0
2.86272 -8.33353 0
0.419687 -6.79607 0
2.02208 -7.52661 0
1.30612 -6.90623 0
-2.44481 -0.873878 0
-2.83853 -2.13128 0
-2.29447 -4.09763 0
-2.32575 -2.9738 0
-0.442392 -5.86161 0
-1.22272 -4.49945 0
3.87622 -9.18726 0
-4.78993 3.392 0
-5.08818 4.59447 0
-4.64747 6.28185 0
-4.53913 5.3601 0
-3.84381 7.99421 0
-3.82693 6.84621 0
-2.78371 8.42364 0
-1.64914 -0.137902 0
-1.45033 -0.890663 0
-2.48925 0.507308 0
-3.25375 1.44427 0
-3.23912 3.31675 0
-2.91108 2.37196 0
-1.35517 0.627173 0
-2.53821 9.70907 0
3.93304 -7.88784 0
2.96471 -7.15846 0
0.954121 -5.8225 0
2.07444 -6.41616 0
-1.68305 -1.99222 0
-1.43447 -3.27802 0
0.0902491 -4.74733 0
-0.566144 -3.6947 0
4.93244 -7.31966 0
5.05222 -8.61421 0
-3.7771 4.55189 0
-3.73498 5.75256 0
-2.88817 7.29051 0
-3.00988 6.35421 0
-1.6628 8.73434 0
-1.9403 7.62006 0
-2.33846 4.0519 0
-0.730748 -1.32736 0
-0.836919 -0.25764 0
-1.93631 1.68093 0
-2.12585 2.87605 0
-1.30662 3.54494 0
-0.869496 1.35095 0
-0.282354 0.456097 0
-0.533402 8.8725 0
-1.25452 9.95846 0
1.11285 -4.57495 0
3.91039 -6.71805 0
2.98811 -6.09543 0
2.11797 -5.42544 0
4.7848 -6.20606 0
-0.558845 -2.47702 0
0.495183 -3.46411 0
0.053594 -1.61063 0
1.482 -3.68245 0
5.86762 -6.61538 0
6.13414 -7.87918 0
-2.47579 5.34883 0
-2.13058 6.53502 0
-0.904102 7.80413 0
-1.2724 6.93272 0
0.0863205 7.8813 0
-1.14448 4.49504 0
0.15037 -0.617688 0
-0.797473 2.48873 0
-0.331655 3.60106 0
0.0631236 1.51287 0
0.741509 0.473478 0
0.646914 8.87531 0
0.0499065 10.0486 0
2.38116 -4.28559 0
3.85947 -5.64108 0
3.00168 -5.21328 0
5.57434 -5.49245 0
4.69143 -5.28364 0
0.629768 -2.29357 0
1.25629 -2.95146 0
0.7576 -1.39157 0
2.1645 -3.13608 0
2.994 -3.47689 0
6.15597 -4.79232 0
6.65626 -5.76994 0
7.11675 -7.01687 0
-1.01964 5.82087 0
-0.372559 6.88437 0
1.1229 7.77074 0
0.558154 7.08076 0
-0.000713638 4.72564 0
0.607087 3.82822 0
1.33904 -0.641943 0
0.539155 2.65131 0
0.966169 1.57511 0
1.91038 0.213916 0
1.61491 1.06516 0
2.12988 7.58487 0
1.79967 8.71372 0
1.35466 9.96063 0
3.82316 -4.35204 0
5.11716 -4.44954 0
5.84657 -3.93563 0
3.78435 -3.20136 0
1.81245 -1.8828 0
3.01942 -2.57413 0
6.78454 -3.94838 0
7.38261 -4.89726 0
7.97682 -6.03258 0
0.483498 5.88227 0
1.42848 6.74303 0
2.37487 6.67033 0
1.21017 4.55676 0
1.48838 3.39806 0
2.43605 -0.692076 0
2.82838 0.142667 0
1.78909 2.16313 0
2.6122 1.15034 0
3.07276 7.17156 0
2.90494 8.37844 0
2.63781 9.70799 0
4.91187 -3.32827 0
6.12171 -3.10914 0
4.17333 -2.27551 0
3.24478 -1.50306 0
6.73265 -2.31346 0
7.23357 -3.04311 0
7.9667 -3.91282 0
8.70869 -4.94917 0
2.02399 5.60074 0
3.08719 6.15489 0
2.3643 4.12753 0
2.42044 3.06134 0
3.52612 -0.460868 0
3.61619 0.613446 0
2.96226 2.28845 0
3.5461 1.52554 0
4.0132 5.89955 0
3.9856 6.79496 0
3.97441 7.94073 0
3.87628 9.28764 0
5.56973 -1.91647 0
4.50983 -1.12973 0
6.71553 -1.3364 0
7.59457 -2.0369 0
8.39934 -2.86227 0
9.29415 -3.77918 0
3.41982 4.878 0
3.33956 3.38596 0
4.69197 0.130149 0
4.51986 1.31021 0
4.06598 2.44422 0
4.57191 5.15399 0
4.84533 6.19276 0
4.98207 7.38261 0
5.04907 8.70882 0
5.88473 -0.435008 0
7.01298 -0.488418 0
7.76203 -1.08557 0
8.68744 -1.74622 0
9.69931 -2.5357 0
4.55353 3.82852 0
5.81912 1.0988 0
5.37253 2.53553 0
5.38193 4.62224 0
5.61424 5.52561 0
5.89945 6.67419 0
6.13801 7.98419 0
6.84839 0.463591 0
7.85623 -0.025719 0
8.86361 -0.58453 0
9.96391 -1.25515 0
6.96298 1.34982 0
5.72312 3.77985 0
6.54374 2.1982 0
6.38253 3.08912 0
6.29487 4.68892 0
6.6956 5.8402 0
7.12046 7.12061 0
7.78738 0.967838 0
8.8628 0.572767 0
10.0481 0.0499738 0
7.61915 2.00497 0
6.8318 3.90584 0
7.27234 2.9479 0
7.3809 4.88778 0
7.98589 6.13952 0
8.72614 1.72732 0
9.96453 1.3552 0
8.4239 2.83877 0
7.98447 3.91768 0
8.70268 5.04559 0
9.70378 2.63668 0
9.2856 3.87547 0
CELLS 542 2168
3 2 0 4
3 0 1 7
3 4 0 7
3 1 5 8
3 7 1 8
3 3 2 13
3 13 2 4
3 11 3 14
3 14 3 13
3 13 4 15
3 4 7 16
3 15 4 16
3 5 6 17
3 8 5 17
3 6 9 18
3 17 6 18
3 7 8 19
3 16 7 19
3 8 17 20
3 19 8 20
3 9 10 23
3 18 9 23
3 10 21 24
3 23 10 24
3 12 11 25
3 25 11 14
3 26 12 27
3 27 12 25
3 14 13 29
3 29 13 15
3 25 14 30
3 30 14 29
3 29 15 31
3 15 16 33
3 31 15 33
3 16 19 34
3 33 16 34
3 17 18 35
3 20 17 35
3 18 23 36
3 35 18 36
3 19 20 37
3 34 19 37
3 20 35 38
3 37 20 38
3 21 22 39
3 24 21 39
3 22 32 40
3 39 22 40
3 23 24 41
3 36 23 41
3 24 39 42
3 41 24 42
3 27 25 44
3 44 25 30
3 28 26 45
3 45 26 27
3 45 27 46
3 46 27 44
3 47 28 48
3 48 28 45
3 30 29 50
3 50 29 31
3 44 30 51
3 51 30 50
3 50 31 52
3 31 33 52
3 32 43 53
3 40 32 53
3 53 43 54
3 33 34 55
3 34 37 55
3 33 55 52
3 35 36 56
3 38 35 56
3 36 41 57
3 56 36 57
3 37 38 58
3 38 56 58
3 37 58 55
3 39 40 59
3 42 39 59
3 40 53 60
3 59 40 60
3 41 42 61
3 57 41 61
3 42 59 62
3 61 42 62
3 43 63 54
3 46 44 64
3 64 44 51
3 48 45 65
3 65 45 46
3 65 46 66
3 66 46 64
3 49 47 67
3 67 47 48
3 67 48 68
3 68 48 65
3 69 49 70
3 70 49 67
3 52 55 72
3 64 51 73
3 51 50 73
3 50 52 73
3 73 52 74
3 74 52 72
3 53 54 75
3 60 53 75
3 54 63 76
3 54 76 77
3 75 54 77
3 55 58 78
3 72 55 78
3 72 78 79
3 56 57 80
3 57 61 80
3 56 80 58
3 58 80 81
3 78 58 81
3 59 60 82
3 62 59 82
3 60 75 83
3 82 60 83
3 61 62 84
3 62 82 84
3 61 84 80
3 63 85 76
3 66 64 86
3 64 73 86
3 68 65 87
3 87 65 66
3 87 66 86
3 70 67 88
3 88 67 68
3 88 68 89
3 89 68 87
3 71 69 90
3 90 69 70
3 90 70 91
3 91 70 88
3 92 71 93
3 93 71 90
3 74 72 94
3 94 72 79
3 86 73 95
3 95 73 74
3 95 74 96
3 96 74 94
3 97 86 95
3 76 85 99
3 75 77 100
3 83 75 100
3 76 99 101
3 77 76 101
3 77 101 102
3 100 77 102
3 94 79 103
3 78 81 104
3 79 78 104
3 79 104 103
3 80 84 105
3 81 80 105
3 81 105 106
3 104 81 106
3 82 83 107
3 83 100 107
3 82 107 84
3 84 107 108
3 105 84 108
3 85 109 99
3 89 87 110
3 87 86 110
3 110 86 97
3 91 88 111
3 111 88 89
3 111 89 110
3 93 90 112
3 112 90 91
3 112 91 113
3 113 91 111
3 98 92 114
3 114 92 93
3 114 93 115
3 115 93 112
3 116 98 114
3 117 103 118
3 96 94 119
3 94 103 119
3 119 103 117
3 97 95 120
3 120 95 96
3 120 96 119
3 121 110 97
3 121 97 122
3 122 97 120
3 123 119 117
3 124 98 116
3 99 109 125
3 99 125 126
3 101 99 126
3 100 102 127
3 100 127 107
3 101 126 128
3 102 101 128
3 102 128 127
3 104 106 129
3 104 129 103
3 103 129 118
3 105 108 130
3 106 105 130
3 106 130 129
3 107 127 131
3 108 107 131
3 108 131 132
3 108 132 130
3 109 134 125
3 125 134 133
3 113 111 135
3 111 110 135
3 135 110 121
3 115 112 136
3 136 112 113
3 136 113 135
3 116 114 137
3 137 114 115
3 137 115 138
3 138 115 136
3 139 124 116
3 139 116 140
3 140 116 137
3 141 135 121
3 118 129 142
3 118 142 143
3 117 118 143
3 123 117 143
3 122 120 144
3 120 119 144
3 144 119 123
3 141 121 145
3 145 121 122
3 145 122 144
3 146 141 145
3 147 144 123
3 147 123 148
3 143 148 123
3 150 124 139
3 149 150 139
3 131 127 151
3 125 133 152
3 126 125 152
3 126 152 153
3 128 126 153
3 128 153 154
3 128 154 127
3 127 154 151
3 152 133 155
3 130 132 156
3 130 156 129
3 129 156 142
3 131 151 157
3 132 131 157
3 132 157 156
3 156 158 142
3 157 151 159
3 133 160 155
3 134 161 133
3 133 161 160
3 138 136 162
3 136 135 162
3 162 135 141
3 140 137 163
3 163 137 138
3 163 138 162
3 149 139 164
3 164 139 140
3 164 140 165
3 165 140 163
3 166 149 164
3 167 162 141
3 167 141 146
3 142 158 168
3 143 142 168
3 143 168 148
3 146 145 169
3 145 144 169
3 169 144 147
3 170 167 146
3 170 146 169
3 171 169 147
3 171 147 148
3 171 148 172
3 168 172 148
3 173 149 166
3 174 150 149
3 173 174 149
3 154 175 151
3 151 175 159
3 152 155 176
3 153 152 176
3 153 176 177
3 153 177 154
3 154 177 175
3 155 160 178
3 155 178 179
3 176 155 179
3 156 157 180
3 156 180 158
3 157 159 181
3 157 181 180
3 158 180 182
3 158 182 168
3 159 175 183
3 159 183 181
3 175 184 183
3 160 186 178
3 178 186 185
3 161 187 160
3 160 187 186
3 165 163 188
3 163 162 188
3 188 162 167
3 166 164 189
3 189 164 165
3 189 165 188
3 190 173 166
3 190 166 191
3 191 166 189
3 192 188 167
3 192 167 170
3 193 192 170
3 182 194 168
3 194 172 168
3 193 170 195
3 170 169 195
3 195 169 171
3 196 195 171
3 196 171 172
3 194 197 172
3 197 198 172
3 198 196 172
3 200 173 190
3 199 200 190
3 201 174 173
3 200 201 173
3 176 179 202
3 177 176 202
3 177 202 175
3 175 202 184
3 178 185 203
3 178 203 179
3 179 203 202
3 203 185 204
3 202 205 184
3 183 206 181
3 180 181 206
3 180 206 182
3 182 206 194
3 183 184 207
3 205 207 184
3 183 207 206
3 185 208 204
3 186 209 185
3 185 209 208
3 187 210 186
3 186 210 209
3 191 189 211
3 189 188 211
3 211 188 192
3 199 190 212
3 212 190 191
3 212 191 211
3 213 199 212
3 214 211 192
3 214 192 193
3 215 214 193
3 215 193 195
3 206 216 194
3 216 197 194
3 216 217 197
3 215 195 218
3 218 195 196
3 198 218 196
3 217 219 197
3 219 218 198
3 197 219 198
3 220 199 213
3 221 200 199
3 220 221 199
3 222 201 200
3 221 222 200
3 203 204 223
3 203 223 202
3 202 223 205
3 204 208 224
3 204 224 223
3 205 223 225
3 205 225 207
3 207 225 226
3 207 226 206
3 226 216 206
3 208 228 224
3 224 228 227
3 209 229 208
3 229 228 208
3 210 230 209
3 209 230 229
3 213 212 231
3 212 211 231
3 231 211 214
3 232 220 213
3 232 213 231
3 233 231 214
3 233 214 215
3 234 233 215
3 234 215 218
3 226 235 216
3 235 217 216
3 235 236 217
3 217 236 219
3 237 234 218
3 237 218 219
3 236 238 219
3 238 237 219
3 240 220 232
3 239 240 232
3 241 221 220
3 240 241 220
3 242 222 221
3 241 242 221
3 224 227 243
3 224 243 223
3 223 243 225
3 225 243 244
3 225 244 226
3 226 244 235
3 227 245 243
3 228 246 227
3 227 246 245
3 229 247 228
3 228 247 246
3 230 248 229
3 229 248 247
3 239 232 249
3 232 231 249
3 249 231 233
3 250 249 233
3 250 233 234
3 237 250 234
3 244 251 235
3 235 251 236
3 251 252 236
3 236 252 238
3 252 253 238
3 253 250 237
3 253 237 238
3 254 239 249
3 255 240 239
3 254 255 239
3 256 241 240
3 255 256 240
3 257 242 241
3 256 257 241
3 245 258 243
3 243 258 244
3 244 258 251
3 245 259 258
3 246 260 245
3 245 260 259
3 247 261 246
3 246 261 260
3 248 262 247
3 247 262 261
3 254 249 263
3 263 249 250
3 253 263 250
3 258 264 251
3 251 264 252
3 264 265 252
3 265 263 253
3 252 265 253
3 266 254 263
3 267 255 254
3 266 267 254
3 268 256 255
3 267 268 255
3 269 257 256
3 268 269 256
3 259 270 258
3 270 264 258
3 260 271 259
3 259 271 270
3 261 272 260
3 260 272 271
3 262 273 261
3 273 272 261
3 270 274 264
3 275 266 263
3 275 263 265
3 274 276 264
3 276 265 264
3 276 277 265
3 277 275 265
3 278 267 266
3 275 278 266
3 279 268 267
3 278 279 267
3 280 269 268
3 279 280 268
3 271 281 270
3 270 281 274
3 272 282 271
3 271 282 281
3 273 283 272
3 272 283 282
3 281 284 274
3 274 284 276
3 285 278 275
3 277 285 275
3 284 286 276
3 286 285 277
3 276 286 277
3 287 279 278
3 285 287 278
3 288 280 279
3 287 288 279
3 282 289 281
3 281 289 284
3 283 290 282
3 282 290 289
3 289 291 284
3 284 291 286
3 291 292 286
3 292 287 285
3 286 292 285
3 293 288 287
3 292 293 287
3 290 294 289
3 289 294 291
3 294 295 291
3 295 293 292
3 291 295 292
CELL_TYPES 542
5
5
5
5
5
5
5
5
5
5
5
5
5
5
5
5
5
5
5
5
5
5
5
5
5
5
5
5
5
5
5
5
5
5
5
5
5
5
5
5
5
5
5
5
5
5
5
5
5
5
5
5
5
5
5
5
5
5
5
5
5
5
5
5
5
5
5
5
5
5
5
5
5
5
5
5
5
5
5
5
5
5
5
5
5
5
5
5
5
5
5
5
5
5
5
5
5
5
5
5
5
5
5
5
5
5
5
5
5
5
5
5
5
5
5
5
5
5
5
5
5
5
5
5
5
5
5
5
5
5
5
5
5
5
5
5
5
5
5
5
5
5
5
5
5
5
5
5
5
5
5
5
5
5
5
5
5
5
5
5
5
5
5
5
5
5
5
5
5
5
5
5
5
5
5
5
5
5
5
5
5
5
5
5
5
5
5
5
5
5
5
5
5
5
5
5
5
5
5
5
5
5
5
5
5
5
5
5
5
5
5
5
5
5
5
5
5
5
5
5
5
5
5
5
5
5
5
5
5
5
5
5
5
5
5
5
5
5
5
5
5
5
5
5
5
5
5
5
5
5
5
5
5
5
5
5
5
5
5
5
5
5
5
5
5
5
5
5
5
5
5
5
5
5
5
5
5
5
5
5
5
5
5
5
5
5
5
5
5
5
5
5
5
5
5
5
5
5
5
5
5
5
5
5
5
5
5
5
5
5
5
5
5
5
5
5
5
5
5
5
5
5
5
5
5
5
5
5
5
5
5
5
5
5
5
5
5
5
5
5
5
5
5
5
5
5
5
5
5
5
5
5
5
5
5
5
5
5
5
5
5
5
5
5
5
5
5
5
5
5
5
5
5
5
5
5
5
5
5
5
5
5
5
5
5
5
5
5
5
5
5
5
5
5
5
5
5
5
5
5
5
5
5
5
5
5
5
5
5
5
5
5
5
5
5
5
5
5
5
5
5
5
5
5
5
5
5
5
5
5
5
5
5
5
5
5
5
5
5
5
5
5
5
5
5
5
5
5
5
5
5
5
5
5
5
5
5
5
5
5
5
5
5
5
5
5
5
5
5
5
5
5
5
5
5
5
5
5
5
5
5
5
5
5
5
5
5
5
5
5
5
5
5
5
5
5
5
5
5
5
5
5
5
5
5
5
5
5
5
5
5
5
5
5
5
5
5
5
5
5
5
5
5
5
5
5
5
5
5
5
5
5
5
5
5
5
5
5
5
5
5
5
POINT_DATA 296
SCALARS concentrations float 4
LOOKUP_TABLE default
0 0.999537 0.100651 46.7582
0 0.999364 0.0966689 46.464
0 0.99944 0.0987727 179.412
0 0.999443 0.0996988 2.47143
0 0.999527 0.0873626 1.6023
0 0.999237 0.0976241 214.572
0 0.999053 0.0956677 90.1346
0 0.999475 0.0871856 2.1983
0 0.99933 0.0872501 5.71981
0 0.999013 0.0948366 88.4288
0 0.999033 0.0981553 122.753
0 0.999654 0.0999448 119.895
0 0.999814 0.0978768 16.8366
0 0.999473 0.0878114 10.0756
0 0.999591 0.0877692 10.3435
0 0.999578 0.0873395 4.42501
0 0.99954 0.0871243 1.94069
0 0.9992 0.0876148 7.23649
0 0.999094 0.0875695 1.93262
0 0.999465 0.0870708 0.536575
0 0.999365 0.0871808 1.21728
0 0.999069 0.0979785 36.9965
0 0.999146 0.0966698 13.6693
0 0.999104 0.087492 6.74705
0 0.999131 0.0878408 10.3837
0 0.999745 0.0871915 4.9425
0 1.00007 0.0974691 12.3628
0 0.999907 0.0875562 9.51522
0 1.00008 0.0999135 113.215
0 0.999621 0.0873407 4.84627
0 0.999706 0.0872624 4.95488
0 0.999642 0.0871977 2.65081
0 0.999214 0.0957423 183.559
0 0.999613 0.0871158 1.47678
0 0.99956 0.0870548 0.490575
0 0.999291 0.0872605 1.89559
0 0.999264 0.0872059 0.725436
0 0.999522 0.0870335 0.644636
0 0.99945 0.0870831 1.12431
0 0.999188 0.0880471 7.86634
0 0.999252 0.0876442 7.57419
0 0.999287 0.0871765 2.04196
0 0.999327 0.0873205 3.58551
0 0.999231 0.094995 117.652
0 0.999797 0.0871305 3.53505
0 1.00003 0.0875121 8.35949
0 0.999853 0.0871653 3.3976
0 0.999663 0.096213 100.6
0 0.999833 0.087496 5.52907
0 0.999347 0.0937281 97.102
0 0.999684 0.0871458 2.44108
0 0.999729 0.0871034 2.41595
0 0.99966 0.0870099 0.567722
0 0.9993 0.0873655 2.00604
0 0.999318 0.0876248 4.90526
0 0.999616 0.0869666 0.481875
0 0.999453 0.0870371 1.17076
0 0.99943 0.0870723 1.25151
0 0.999574 0.0869574 0.948245
0 0.999376 0.0874643 3.78611
0 0.999424 0.0873822 3.01191
0 0.99948 0.087071 1.67451
0 0.999489 0.0871861 2.44671
0 0.999287 0.0963331 54.2592
0 0.999744 0.087002 0.695437
0 0.999803 0.0871314 2.47104
0 0.999745 0.0870046 1.26235
0 0.999506 0.0875545 4.12909
0 0.999645 0.0872377 3.90822
0 0.999236 0.097814 42.7325
0 0.999336 0.0875797 5.85799
0 0.99923 0.0959738 122.434
0 0.999659 0.0869618 0.567102
0 0.999691 0.0869765 0.593938
0 0.999675 0.0869714 0.776514
0 0.999464 0.0873696 2.82588
0 0.999459 0.0877056 6.04098
0 0.999527 0.0873503 3.49095
0 0.999643 0.0869501 0.626191
0 0.999678 0.0869542 0.627476
0 0.99957 0.0869613 0.91078
0 0.999637 0.0869641 0.69202
0 0.999544 0.0871523 2.16719
0 0.999558 0.0871959 2.47962
0 0.999607 0.0869896 0.560688
0 0.999518 0.0965494 21.4128
0 0.999679 0.0869537 1.11514
0 0.999671 0.0870552 2.67122
0 0.9995 0.0872842 3.41215
0 0.999596 0.0871742 3.44111
0 0.999291 0.0873772 3.95568
0 0.999427 0.0872095 1.73694
0 0.999343 0.0976049 92.0942
0 0.999336 0.0872285 5.60332
0 0.999681 0.0869606 0.809357
0 0.999673 0.0869731 0.788669
0 0.999677 0.0869737 0.904382
0 0.999647 0.0869932 1.1056
0 0.999583 0.101294 67.2488
0 0.999566 0.0870957 1.38957
0 0.999609 0.0871469 2.23899
0 0.999592 0.0872065 3.31635
0 0.999636 0.0871375 2.44565
0 0.999699 0.086926 0.72645
0 0.999685 0.0869468 0.573173
0 0.999654 0.0869781 0.640272
0 0.999691 0.0869658 0.466128
0 0.999649 0.0870133 0.948504
0 0.999684 0.0869789 0.358309
0 0.99951 0.0957042 57.2937
0 0.999619 0.0870431 1.99298
0 0.999545 0.0871748 2.64292
0 0.999432 0.0871004 1.88617
0 0.999513 0.0871531 2.06287
0 0.999489 0.087641 9.78078
0 0.999501 0.0871278 3.22028
0 0.999685 0.0875936 7.98113
0 0.999705 0.0869342 1.03263
0 0.99972 0.0869054 0.883609
0 0.999686 0.0869515 1.04793
0 0.999667 0.0869832 1.13411
0 0.99962 0.0870253 1.54378
0 0.999649 0.0870112 1.34169
0 0.999697 0.0869557 1.38754
0 0.999805 0.0964675 24.9222
0 0.999507 0.087317 3.57519
0 0.999611 0.0870668 2.15722
0 0.999688 0.0870024 1.1981
0 0.999665 0.0870566 1.96607
0 0.999718 0.0869025 0.614568
0 0.999712 0.0869502 0.486174
0 0.999711 0.0869566 0.491812
0 0.999728 0.0869439 0.485268
0 0.999417 0.0872944 3.64043
0 0.999419 0.0936291 36.4612
0 0.999586 0.087066 1.7745
0 0.999547 0.0870883 1.95653
0 0.999605 0.0871059 2.10395
0 0.999583 0.0870596 1.72681
0 0.999781 0.0875165 4.85841
0 0.999676 0.0871166 1.54795
0 0.999615 0.0870494 1.66074
0 0.999734 0.0868797 0.988809
0 0.999721 0.0869118 1.36806
0 0.999671 0.0869853 1.38977
0 0.999644 0.0870285 1.56175
0 0.99964 0.0870488 1.629
0 0.999688 0.0869772 1.5941
0 0.999711 0.0869416 1.66047
0 0.999583 0.0878596 4.01872
0 0.999771 0.0999298 87.8398
0 0.999723 0.0869306 0.785902
0 0.999563 0.0871051 2.16274
0 0.999651 0.087042 1.69112
0 0.999702 0.0869642 1.16139
0 0.999475 0.0871258 1.01954
0 0.999739 0.0868849 0.731019
0 0.99974 0.0869105 0.752708
0 0.999743 0.0868704 1.12738
0 0.999733 0.086924 1.02616
0 0.999266 0.0873433 2.4144
0 0.999283 0.0977651 72.2295
0 0.999604 0.0870348 1.62043
0 0.999626 0.0870183 0.940146
0 0.999646 0.0872604 1.87947
0 0.999638 0.0870514 0.865786
0 0.999547 0.0873583 3.21011
0 0.999624 0.0870449 1.64009
0 0.999729 0.0868947 1.547
0 0.999666 0.087014 1.61132
0 0.999649 0.0870548 1.85578
0 0.999691 0.0870016 1.78095
0 0.999712 0.0869635 1.886
0 0.999358 0.0875934 3.84524
0 0.999368 0.0964732 135.591
0 0.999703 0.0869368 1.14555
0 0.999606 0.0870182 0.74162
0 0.999672 0.0869792 1.16468
0 0.9994 0.0871439 1.73107
0 0.999549 0.0870204 0.682687
0 0.999743 0.0868743 1.12275
0 0.999738 0.0869002 1.29927
0 0.999736 0.0868926 1.48364
0 0.999718 0.08693 1.331
0 0.999683 0.0869678 1.30864
0 0.999361 0.0872271 3.36558
0 0.999195 0.0871975 4.0841
0 0.999108 0.094715 141.808
0 0.999621 0.0870087 1.33421
0 0.99961 0.0870987 1.68481
0 0.99951 0.0873152 2.72996
0 0.999579 0.0871965 2.04959
0 0.999629 0.0870516 1.81608
0 0.999649 0.087073 2.0613
0 0.999721 0.0869278 1.7617
0 0.999669 0.0870403 1.95409
0 0.99969 0.0870273 2.05252
0 0.9997 0.0870019 2.25772
0 0.999691 0.0870267 2.22238
0 0.999561 0.087219 2.58734
0 0.999459 0.0874859 4.16582
0 0.999296 0.0937628 81.9059
0 0.999628 0.0869657 1.15146
0 0.999521 0.0870588 1.96946
0 0.999468 0.0871788 2.75786
0 0.999638 0.0869898 1.62384
0 0.999717 0.0869141 1.44776
0 0.999683 0.0869606 1.55318
0 0.999351 0.087312 4.12314
0 0.999242 0.0873782 6.83846
0 0.999152 0.0974957 162.847
0 0.999613 0.0870294 1.42444
0 0.999586 0.0871184 1.51014
0 0.999596 0.0871217 1.68918
0 0.999629 0.0870467 1.98398
0 0.999651 0.0870709 2.2393
0 0.999695 0.0869836 1.96253
0 0.999669 0.0870519 2.39089
0 0.999667 0.0870547 2.24168
0 0.999663 0.0870601 2.45358
0 0.999589 0.0871808 1.97238
0 0.999594 0.0873386 5.05109
0 0.999544 0.098826 134.99
0 0.999564 0.0870015 1.72059
0 0.999463 0.0871415 2.15407
0 0.999611 0.0869764 1.51378
0 0.999665 0.0869769 1.65982
0 0.999419 0.0871879 1.47985
0 0.999327 0.0873457 2.3213
0 0.999244 0.0875888 7.88315
0 0.999205 0.0969604 94.8802
0 0.999611 0.0869975 1.49
0 0.999592 0.0871191 2.10862
0 0.999623 0.08703 2.11173
0 0.999642 0.0870805 2.4496
0 0.999635 0.0870316 2.01033
0 0.999621 0.0870668 2.151
0 0.999635 0.0870917 2.59437
0 0.999616 0.0871049 2.53875
0 0.99955 0.0872461 2.94391
0 0.999541 0.0873008 1.78215
0 0.999562 0.0873722 1.51013
0 0.999601 0.0973148 15.0542
0 0.999523 0.0869643 1.10169
0 0.999584 0.0869735 1.34249
0 0.999408 0.0871589 1.22101
0 0.999284 0.0873479 1.833
0 0.99921 0.0875715 3.59063
0 0.999192 0.0970341 9.57201
0 0.999586 0.0870474 2.64508
0 0.9996 0.0870693 2.56228
0 0.999564 0.086999 1.30539
0 0.999555 0.0870596 1.81548
0 0.999571 0.0870889 2.45008
0 0.9995 0.087261 3.59333
0 0.999438 0.0874685 3.43795
0 0.999413 0.0877294 3.27791
0 0.999481 0.0965238 64.8692
0 0.999494 0.087012 0.805555
0 0.999368 0.0872222 0.865127
0 0.999238 0.0873499 0.97819
0 0.999122 0.0875992 4.90317
0 0.999127 0.0998954 191.777
0 0.99953 0.0870942 2.97958
0 0.999484 0.087068 0.879957
0 0.999491 0.0870943 1.90851
0 0.99943 0.087333 3.2728
0 0.99934 0.0875586 2.92434
0 0.999218 0.0877988 7.76551
0 0.99924 0.0988342 128.736
0 0.9994 0.0871672 0.50017
0 0.99927 0.0873112 1.95571
0 0.999079 0.0874105 3.44784
0 0.999006 0.0974317 45.8144
0 0.999396 0.0872062 1.53572
0 0.999409 0.0872432 2.38789
0 0.999405 0.0871521 0.967144
0 0.999374 0.0872083 1.0134
0 0.999273 0.0874494 2.18662
0 0.999129 0.0877789 4.95695
0 0.999056 0.0955135 22.3783
0 0.999348 0.0873388 3.86308
0 0.999277 0.0875025 6.37438
0 0.999088 0.0968578 112.007
0 0.999362 0.0873345 4.69048
0 0.999244 0.087283 2.34146
0 0.999287 0.0872657 4.27239
0 0.999076 0.0876509 6.7209
0 0.999025 0.0977036 9.08954
0 0.999487 0.0874826 8.41693
0 0.99947 0.0984085 122.051
0 0.99934 0.0874446 7.97834
0 0.999097 0.0872622 6.10235
0 0.998969 0.0964902 191.871
0 0.999533 0.100565 168.621
0 0.999162 0.0966373 106.845
VECTORS fa_u float
0.00698132 0.00290418 -0
0.00501766 0.00291555 -0
0.00581557 0.0015528 -0
0.00710615 0.000925329 -0
1e-08 0 0
0.00509586 0.00389774 -0
0.00489182 0.00488986 -0
1e-08 0 0
1e-08 0 0
0.00402618 0.00527137 -0
0.00288066 0.00497465 -0
0.00550286 4.48378e-06 -0
0.00717304 -0.000924487 0
1e-08 0 0
1e-08 0 0
1e-08 0 0
1e-08 0 0
1e-08 0 0
1e-08 0 0
1e-08 0 0
1e-08 0 0
0.00258522 0.00616171 -0
0.00198401 0.00746293 -0
1e-08 0 0
1e-08 0 0
1e-08 0 0
0.00691963 -0.00188292 0
1e-08 0 0
0.00507344 -0.00211118 0
1e-08 0 0
1e-08 0 0
1e-08 0 0
0.000696037 0.00536291 -0
1e-08 0 0
1e-08 0 0
1e-08 0 0
1e-08 0 0
1e-08 0 0
1e-08 0 0
1e-08 0 0
1e-08 0 0
1e-08 0 0
1e-08 0 0
2.21576e-05 0.00667242 -0
1e-08 0 0
1e-08 0 0
1e-08 0 0
0.00564348 -0.00322896 0
1e-08 0 0
0.00556884 -0.0042585 0
1e-08 0 0
1e-08 0 0
1e-08 0 0
1e-08 0 0
1e-08 0 0
1e-08 0 0
1e-08 0 0
1e-08 0 0
1e-08 0 0
1e-08 0 0
1e-08 0 0
1e-08 0 0
1e-08 0 0
-0.000937725 0.0070955 0
1e-08 0 0
1e-08 0 0
1e-08 0 0
1e-08 0 0
1e-08 0 0
0.00502473 -0.00506207 0
1e-08 0 0
0.00340078 -0.00444889 0
1e-08 0 0
1e-08 0 0
1e-08 0 0
1e-08 0 0
1e-08 0 0
1e-08 0 0
1e-08 0 0
1e-08 0 0
1e-08 0 0
1e-08 0 0
1e-08 0 0
1e-08 0 0
1e-08 0 0
-0.00159086 0.00590228 0
1e-08 0 0
1e-08 0 0
1e-08 0 0
1e-08 0 0
1e-08 0 0
1e-08 0 0
0.00324361 -0.00557428 0
1e-08 0 0
1e-08 0 0
1e-08 0 0
1e-08 0 0
1e-08 0 0
0.00269351 -0.00647725 0
1e-08 0 0
1e-08 0 0
1e-08 0 0
1e-08 0 0
1e-08 0 0
1e-08 0 0
1e-08 0 0
1e-08 0 0
1e-08 0 0
1e-08 0 0
-0.00232967 0.00566705 0
1e-08 0 0
1e-08 0 0
1e-08 0 0
1e-08 0 0
1e-08 0 0
1e-08 0 0
1e-08 0 0
1e-08 0 0
1e-08 0 0
1e-08 0 0
1e-08 0 0
1e-08 0 0
1e-08 0 0
1e-08 0 0
0.00176115 -0.00664532 0
1e-08 0 0
1e-08 0 0
1e-08 0 0
1e-08 0 0
1e-08 0 0
1e-08 0 0
1e-08 0 0
1e-08 0 0
1e-08 0 0
-0.00391868 0.00676416 0
1e-08 0 0
1e-08 0 0
1e-08 0 0
1e-08 0 0
1e-08 0 0
1e-08 0 0
1e-08 0 0
1e-08 0 0
1e-08 0 0
1e-08 0 0
1e-08 0 0
1e-08 0 0
1e-08 0 0
1e-08 0 0
1e-08 0 0
0.000748542 -0.00570552 0
1e-08 0 0
1e-08 0 0
1e-08 0 0
1e-08 0 0
1e-08 0 0
1e-08 0 0
1e-08 0 0
1e-08 0 0
1e-08 0 0
1e-08 0 0
-0.00355963 0.00460077 0
1e-08 0 0
1e-08 0 0
1e-08 0 0
1e-08 0 0
1e-08 0 0
1e-08 0 0
1e-08 0 0
1e-08 0 0
1e-08 0 0
1e-08 0 0
1e-08 0 0
1e-08 0 0
5.89947e-06 -0.00708147 0
1e-08 0 0
1e-08 0 0
1e-08 0 0
1e-08 0 0
1e-08 0 0
1e-08 0 0
1e-08 0 0
1e-08 0 0
1e-08 0 0
1e-08 0 0
1e-08 0 0
1e-08 0 0
-0.00472613 0.00471611 0
1e-08 0 0
1e-08 0 0
1e-08 0 0
1e-08 0 0
1e-08 0 0
1e-08 0 0
1e-08 0 0
1e-08 0 0
1e-08 0 0
1e-08 0 0
1e-08 0 0
1e-08 0 0
1e-08 0 0
-0.000802858 -0.00609961 0
1e-08 0 0
1e-08 0 0
1e-08 0 0
1e-08 0 0
1e-08 0 0
1e-08 0 0
1e-08 0 0
1e-08 0 0
-0.00464811 0.00357862 0
1e-08 0 0
1e-08 0 0
1e-08 0 0
1e-08 0 0
1e-08 0 0
1e-08 0 0
1e-08 0 0
1e-08 0 0
1e-08 0 0
1e-08 0 0
1e-08 0 0
-0.00173253 -0.00649156 0
1e-08 0 0
1e-08 0 0
1e-08 0 0
1e-08 0 0
1e-08 0 0
1e-08 0 0
1e-08 0 0
-0.00557041 0.00325642 0
1e-08 0 0
1e-08 0 0
1e-08 0 0
1e-08 0 0
1e-08 0 0
1e-08 0 0
1e-08 0 0
1e-08 0 0
1e-08 0 0
1e-08 0 0
1e-08 0 0
-0.00251217 -0.00606252 0
1e-08 0 0
1e-08 0 0
1e-08 0 0
1e-08 0 0
1e-08 0 0
-0.00781227 0.00320659 0
1e-08 0 0
1e-08 0 0
1e-08 0 0
1e-08 0 0
1e-08 0 0
1e-08 0 0
1e-08 0 0
1e-08 0 0
-0.00315033 -0.00546643 0
1e-08 0 0
1e-08 0 0
1e-08 0 0
1e-08 0 0
-0.00455979 0.00120996 0
1e-08 0 0
1e-08 0 0
1e-08 0 0
1e-08 0 0
1e-08 0 0
1e-08 0 0
-0.00415726 -0.00542201 0
1e-08 0 0
1e-08 0 0
1e-08 0 0
-0.00732668 0.000988345 0
1e-08 0 0
1e-08 0 0
1e-08 0 0
1e-08 0 0
1e-08 0 0
1e-08 0 0
-0.00433088 -0.0043384 0
1e-08 0 0
1e-08 0 0
-0.00627916 1.47333e-06 0
1e-08 0 0
1e-08 0 0
1e-08 0 0
1e-08 0 0
-0.00617111 -0.00470554 0
1e-08 0 0
-0.00706273 -0.000940176 0
1e-08 0 0
1e-08 0 0
-0.00459397 -0.00263725 0
-0.00573347 -0.0015445 0
-0.00656765 -0.00272938 0
