# vtk DataFile Version 2.0
CellBP Time: 12
ASCII
DATASET UNSTRUCTURED_GRID
POINTS 296 double
-8.924 -3.66116 0
-8.35938 -4.80272 0
-9.32692 -2.45269 0
-9.59678 -1.2156 0
-8.25891 -2.77464 0
-7.65139 -5.86303 0
-6.80837 -6.8175 0
-7.81877 -3.81919 0
-7.24848 -4.80649 0
-5.86826 -7.66862 0
-4.81941 -8.37725 0
-9.6744 0.0466344 0
-9.60421 1.31617 0
-8.56677 -1.65801 0
-8.70231 -0.521869 0
-7.49404 -1.96919 0
-7.12737 -2.85812 0
-6.561 -5.71882 0
-5.76402 -6.53838 0
-6.69574 -3.83044 0
-6.13843 -4.61672 0
-3.67908 -8.94209 0
-2.4712 -9.35629 0
-4.86661 -7.25191 0
-3.89117 -7.83131 0
-8.71542 0.634182 0
-9.36388 2.57182 0
-8.55396 1.75381 0
-8.95482 3.77838 0
-7.65537 -0.910803 0
-7.71171 0.0832575 0
-6.86712 -1.29191 0
-1.21539 -9.59564 0
-6.36332 -2.12023 0
-6.23972 -3.01106 0
-5.47068 -5.41652 0
-4.74559 -6.05874 0
-5.58836 -3.70851 0
-5.20134 -4.50656 0
-2.84869 -8.30342 0
-1.76326 -8.57412 0
-3.89466 -6.66834 0
-3.03828 -7.0989 0
0.0523706 -9.67723 0
-7.62885 1.13119 0
-8.27996 2.8941 0
-7.48112 2.08691 0
-8.37658 4.91194 0
-7.81188 3.94193 0
-7.6573 5.9639 0
-6.70106 -0.387022 0
-6.87925 0.550003 0
-5.7129 -0.990961 0
-0.58432 -8.73583 0
0.555869 -8.68709 0
-5.2481 -2.44963 0
-4.43631 -5.04031 0
-3.86004 -5.72027 0
-4.39293 -3.76489 0
-2.04672 -7.50277 0
-1.12664 -7.7199 0
-2.96664 -6.04863 0
-2.2929 -6.56649 0
1.31355 -9.5798 0
-6.62186 1.40559 0
-7.10061 3.08415 0
-6.59317 2.34696 0
-7.22319 4.93807 0
-6.65046 3.95857 0
-6.81755 6.91451 0
-6.50669 5.83126 0
-5.86196 7.75392 0
-4.42205 -1.17393 0
-5.76192 0.504917 0
-4.62472 -0.0169979 0
0.00185176 -7.77175 0
1.71155 -8.54959 0
0.928832 -7.67888 0
-4.00979 -2.38574 0
-3.4742 -1.38678 0
-3.26528 -4.76234 0
-3.24722 -3.2428 0
-1.37182 -6.61526 0
-0.512318 -6.95579 0
-1.96184 -5.49333 0
2.55835 -9.32479 0
-5.45757 2.01897 0
-6.03376 3.03752 0
-6.04255 4.81397 0
-5.70201 3.94318 0
-5.70185 6.64298 0
-5.39488 5.55357 0
-4.81759 8.47979 0
-4.78703 7.32058 0
-3.48647 -0.423107 0
-4.41599 1.23952 0
-3.69004 0.588807 0
-4.03002 2.309 0
-3.68044 9.04433 0
2.81928 -8.22935 0
0.40219 -6.71862 0
1.98597 -7.43247 0
1.27686 -6.82046 0
-2.43867 -0.869074 0
-2.82892 -2.12046 0
-2.28261 -4.06773 0
-2.31588 -2.95535 0
-0.445853 -5.80431 0
-1.21298 -4.46772 0
3.76931 -8.93345 0
-4.74479 3.35905 0
-5.03496 4.5395 0
-4.59641 6.20569 0
-4.49039 5.2953 0
-3.80876 7.91471 0
-3.78266 6.76077 0
-2.75364 8.33467 0
-1.64644 -0.133598 0
-1.44675 -0.886467 0
-2.48388 0.511122 0
-3.23506 1.44068 0
-3.21427 3.29364 0
-2.89351 2.36639 0
-1.35479 0.631256 0
-2.4713 9.44299 0
3.87887 -7.78859 0
2.91381 -7.05708 0
0.933405 -5.75574 0
2.0363 -6.33076 0
-1.67681 -1.98532 0
-1.42648 -3.25835 0
0.0863815 -4.70575 0
-0.559712 -3.67264 0
4.87016 -7.22497 0
4.90315 -8.36157 0
-3.74119 4.50513 0
-3.69543 5.68571 0
-2.85332 7.20455 0
-2.97713 6.2812 0
-1.6444 8.65074 0
-1.91605 7.53927 0
-2.32287 4.02147 0
-0.728332 -1.32366 0
-0.836261 -0.253879 0
-1.9339 1.68391 0
-2.11684 2.86638 0
-1.30368 3.52822 0
-0.871875 1.3547 0
-0.284591 0.459302 0
-0.52738 8.7965 0
-1.22033 9.69211 0
1.09712 -4.52897 0
3.84809 -6.61479 0
2.94034 -6.00903 0
2.08492 -5.35723 0
4.72219 -6.11606 0
-0.554748 -2.46749 0
0.493432 -3.44199 0
0.054406 -1.60744 0
1.46663 -3.64926 0
5.80266 -6.53155 0
5.96026 -7.65279 0
-2.45318 5.29584 0
-2.1049 6.46337 0
-0.89116 7.72987 0
-1.25322 6.85979 0
0.0886546 7.81364 0
-1.13823 4.46311 0
0.148966 -0.61466 0
-0.801729 2.48906 0
-0.337264 3.58821 0
0.0582426 1.51455 0
0.736805 0.474503 0
0.640508 8.80742 0
0.0469586 9.77939 0
2.3514 -4.23574 0
3.80581 -5.55889 0
2.95913 -5.14289 0
5.51395 -5.42031 0
4.63283 -5.20519 0
0.63032 -2.28849 0
1.24785 -2.93282 0
0.756025 -1.3891 0
2.14541 -3.10938 0
2.96468 -3.44028 0
6.09795 -4.7357 0
6.59433 -5.70588 0
6.918 -6.81054 0
-1.00777 5.76713 0
-0.362622 6.81806 0
1.1147 7.7108 0
0.557825 7.02002 0
-0.00364281 4.69546 0
0.598983 3.81004 0
1.33485 -0.641329 0
0.531919 2.64512 0
0.959048 1.57478 0
1.90334 0.212633 0
1.6071 1.06382 0
2.11636 7.52904 0
1.78711 8.65022 0
1.31873 9.70119 0
3.77965 -4.29526 0
5.06133 -4.38632 0
5.79213 -3.88694 0
3.74989 -3.16709 0
1.80502 -1.87905 0
2.99673 -2.55509 0
6.72927 -3.9097 0
7.32363 -4.85276 0
7.76522 -5.86471 0
0.482061 5.83499 0
1.42005 6.68995 0
2.36012 6.62064 0
1.20032 4.5293 0
1.47861 3.38095 0
2.42492 -0.690377 0
2.815 0.142683 0
1.77941 2.15718 0
2.60186 1.1468 0
3.05385 7.11883 0
2.88848 8.31872 0
2.57427 9.46106 0
4.86619 -3.28712 0
6.07036 -3.07435 0
4.14237 -2.25778 0
3.22539 -1.4966 0
6.68388 -2.29566 0
7.18138 -3.02106 0
7.91057 -3.88769 0
8.4819 -4.82037 0
2.01183 5.56012 0
3.05801 6.10401 0
2.35226 4.10013 0
2.40882 3.04416 0
3.50578 -0.456976 0
3.59667 0.614108 0
2.94648 2.27626 0
3.52336 1.51793 0
3.96928 5.84631 0
3.95108 6.74011 0
3.95167 7.884 0
3.78169 9.04488 0
5.52881 -1.90023 0
4.48006 -1.12097 0
6.66317 -1.32465 0
7.53902 -2.02024 0
8.3399 -2.84307 0
9.04744 -3.68253 0
3.38391 4.83506 0
3.31165 3.35941 0
4.65958 0.132458 0
4.48141 1.29907 0
4.02765 2.42239 0
4.5132 5.10045 0
4.79347 6.13653 0
4.94067 7.32412 0
4.92244 8.48109 0
5.83513 -0.433365 0
6.95092 -0.487227 0
7.70219 -1.07314 0
8.62354 -1.73021 0
9.44935 -2.47001 0
4.49953 3.78842 0
5.75885 1.08195 0
5.30918 2.50385 0
5.30778 4.56746 0
5.54558 5.46823 0
5.83883 6.61434 0
5.96998 7.77069 0
6.77795 0.450927 0
7.78576 -0.0275767 0
8.79395 -0.574477 0
9.70476 -1.21638 0
6.88339 1.32526 0
5.6458 3.73155 0
6.46162 2.16305 0
6.29637 3.04397 0
6.20888 4.6309 0
6.61609 5.77926 0
6.91948 6.92609 0
7.70766 0.951869 0
8.78227 0.56662 0
9.78343 0.0540671 0
7.53019 1.97389 0
6.73189 3.84807 0
7.17584 2.9024 0
7.29176 4.83115 0
7.76316 5.9695 0
8.63494 1.7044 0
9.68055 1.31591 0
8.32325 2.79949 0
7.8913 3.86938 0
8.46652 4.90839 0
9.43223 2.563 0
9.03534 3.7715 0
CELLS 542 2168
3 2 0 4
3 0 1 7
3 4 0 7
3 1 5 8
3 7 1 8
3 3 2 13
3 13 2 4
3 11 3 14
3 14 3 13
3 13 4 15
3 4 7 16
3 15 4 16
3 5 6 17
3 8 5 17
3 6 9 18
3 17 6 18
3 7 8 19
3 16 7 19
3 8 17 20
3 19 8 20
3 9 10 23
3 18 9 23
3 10 21 24
3 23 10 24
3 12 11 25
3 25 11 14
3 26 12 27
3 27 12 25
3 14 13 29
3 29 13 15
3 25 14 30
3 30 14 29
3 29 15 31
3 15 16 33
3 31 15 33
3 16 19 34
3 33 16 34
3 17 18 35
3 20 17 35
3 18 23 36
3 35 18 36
3 19 20 37
3 34 19 37
3 20 35 38
3 37 20 38
3 21 22 39
3 24 21 39
3 22 32 40
3 39 22 40
3 23 24 41
3 36 23 41
3 24 39 42
3 41 24 42
3 27 25 44
3 44 25 30
3 28 26 45
3 45 26 27
3 45 27 46
3 46 27 44
3 47 28 48
3 48 28 45
3 30 29 50
3 50 29 31
3 44 30 51
3 51 30 50
3 50 31 52
3 31 33 52
3 32 43 53
3 40 32 53
3 53 43 54
3 33 34 55
3 34 37 55
3 33 55 52
3 35 36 56
3 38 35 56
3 36 41 57
3 56 36 57
3 37 38 58
3 38 56 58
3 37 58 55
3 39 40 59
3 42 39 59
3 40 53 60
3 59 40 60
3 41 42 61
3 57 41 61
3 42 59 62
3 61 42 62
3 43 63 54
3 46 44 64
3 64 44 51
3 48 45 65
3 65 45 46
3 65 46 66
3 66 46 64
3 49 47 67
3 67 47 48
3 67 48 68
3 68 48 65
3 69 49 70
3 70 49 67
3 52 55 72
3 64 51 73
3 51 50 73
3 50 52 73
3 73 52 74
3 74 52 72
3 53 54 75
3 60 53 75
3 54 63 76
3 54 76 77
3 75 54 77
3 55 58 78
3 72 55 78
3 72 78 79
3 56 57 80
3 57 61 80
3 56 80 58
3 58 80 81
3 78 58 81
3 59 60 82
3 62 59 82
3 60 75 83
3 82 60 83
3 61 62 84
3 62 82 84
3 61 84 80
3 63 85 76
3 66 64 86
3 64 73 86
3 68 65 87
3 87 65 66
3 87 66 86
3 70 67 88
3 88 67 68
3 88 68 89
3 89 68 87
3 71 69 90
3 90 69 70
3 90 70 91
3 91 70 88
3 92 71 93
3 93 71 90
3 74 72 94
3 94 72 79
3 86 73 95
3 95 73 74
3 95 74 96
3 96 74 94
3 97 86 95
3 76 85 99
3 75 77 100
3 83 75 100
3 76 99 101
3 77 76 101
3 77 101 102
3 100 77 102
3 94 79 103
3 78 81 104
3 79 78 104
3 79 104 103
3 80 84 105
3 81 80 105
3 81 105 106
3 104 81 106
3 82 83 107
3 83 100 107
3 82 107 84
3 84 107 108
3 105 84 108
3 85 109 99
3 89 87 110
3 87 86 110
3 110 86 97
3 91 88 111
3 111 88 89
3 111 89 110
3 93 90 112
3 112 90 91
3 112 91 113
3 113 91 111
3 98 92 114
3 114 92 93
3 114 93 115
3 115 93 112
3 116 98 114
3 117 103 118
3 96 94 119
3 94 103 119
3 119 103 117
3 97 95 120
3 120 95 96
3 120 96 119
3 121 110 97
3 121 97 122
3 122 97 120
3 123 119 117
3 124 98 116
3 99 109 125
3 99 125 126
3 101 99 126
3 100 102 127
3 100 127 107
3 101 126 128
3 102 101 128
3 102 128 127
3 104 106 129
3 104 129 103
3 103 129 118
3 105 108 130
3 106 105 130
3 106 130 129
3 107 127 131
3 108 107 131
3 108 131 132
3 108 132 130
3 109 134 125
3 125 134 133
3 113 111 135
3 111 110 135
3 135 110 121
3 115 112 136
3 136 112 113
3 136 113 135
3 116 114 137
3 137 114 115
3 137 115 138
3 138 115 136
3 139 124 116
3 139 116 140
3 140 116 137
3 141 135 121
3 118 129 142
3 118 142 143
3 117 118 143
3 123 117 143
3 122 120 144
3 120 119 144
3 144 119 123
3 141 121 145
3 145 121 122
3 145 122 144
3 146 141 145
3 147 144 123
3 147 123 148
3 143 148 123
3 150 124 139
3 149 150 139
3 131 127 151
3 125 133 152
3 126 125 152
3 126 152 153
3 128 126 153
3 128 153 154
3 128 154 127
3 127 154 151
3 152 133 155
3 130 132 156
3 130 156 129
3 129 156 142
3 131 151 157
3 132 131 157
3 132 157 156
3 156 158 142
3 157 151 159
3 133 160 155
3 134 161 133
3 133 161 160
3 138 136 162
3 136 135 162
3 162 135 141
3 140 137 163
3 163 137 138
3 163 138 162
3 149 139 164
3 164 139 140
3 164 140 165
3 165 140 163
3 166 149 164
3 167 162 141
3 167 141 146
3 142 158 168
3 143 142 168
3 143 168 148
3 146 145 169
3 145 144 169
3 169 144 147
3 170 167 146
3 170 146 169
3 171 169 147
3 171 147 148
3 171 148 172
3 168 172 148
3 173 149 166
3 174 150 149
3 173 174 149
3 154 175 151
3 151 175 159
3 152 155 176
3 153 152 176
3 153 176 177
3 153 177 154
3 154 177 175
3 155 160 178
3 155 178 179
3 176 155 179
3 156 157 180
3 156 180 158
3 157 159 181
3 157 181 180
3 158 180 182
3 158 182 168
3 159 175 183
3 159 183 181
3 175 184 183
3 160 186 178
3 178 186 185
3 161 187 160
3 160 187 186
3 165 163 188
3 163 162 188
3 188 162 167
3 166 164 189
3 189 164 165
3 189 165 188
3 190 173 166
3 190 166 191
3 191 166 189
3 192 188 167
3 192 167 170
3 193 192 170
3 182 194 168
3 194 172 168
3 193 170 195
3 170 169 195
3 195 169 171
3 196 195 171
3 196 171 172
3 194 197 172
3 197 198 172
3 198 196 172
3 200 173 190
3 199 200 190
3 201 174 173
3 200 201 173
3 176 179 202
3 177 176 202
3 177 202 175
3 175 202 184
3 178 185 203
3 178 203 179
3 179 203 202
3 203 185 204
3 202 205 184
3 183 206 181
3 180 181 206
3 180 206 182
3 182 206 194
3 183 184 207
3 205 207 184
3 183 207 206
3 185 208 204
3 186 209 185
3 185 209 208
3 187 210 186
3 186 210 209
3 191 189 211
3 189 188 211
3 211 188 192
3 199 190 212
3 212 190 191
3 212 191 211
3 213 199 212
3 214 211 192
3 214 192 193
3 215 214 193
3 215 193 195
3 206 216 194
3 216 197 194
3 216 217 197
3 215 195 218
3 218 195 196
3 198 218 196
3 217 219 197
3 219 218 198
3 197 219 198
3 220 199 213
3 221 200 199
3 220 221 199
3 222 201 200
3 221 222 200
3 203 204 223
3 203 223 202
3 202 223 205
3 204 208 224
3 204 224 223
3 205 223 225
3 205 225 207
3 207 225 226
3 207 226 206
3 226 216 206
3 208 228 224
3 224 228 227
3 209 229 208
3 229 228 208
3 210 230 209
3 209 230 229
3 213 212 231
3 212 211 231
3 231 211 214
3 232 220 213
3 232 213 231
3 233 231 214
3 233 214 215
3 234 233 215
3 234 215 218
3 226 235 216
3 235 217 216
3 235 236 217
3 217 236 219
3 237 234 218
3 237 218 219
3 236 238 219
3 238 237 219
3 240 220 232
3 239 240 232
3 241 221 220
3 240 241 220
3 242 222 221
3 241 242 221
3 224 227 243
3 224 243 223
3 223 243 225
3 225 243 244
3 225 244 226
3 226 244 235
3 227 245 243
3 228 246 227
3 227 246 245
3 229 247 228
3 228 247 246
3 230 248 229
3 229 248 247
3 239 232 249
3 232 231 249
3 249 231 233
3 250 249 233
3 250 233 234
3 237 250 234
3 244 251 235
3 235 251 236
3 251 252 236
3 236 252 238
3 252 253 238
3 253 250 237
3 253 237 238
3 254 239 249
3 255 240 239
3 254 255 239
3 256 241 240
3 255 256 240
3 257 242 241
3 256 257 241
3 245 258 243
3 243 258 244
3 244 258 251
3 245 259 258
3 246 260 245
3 245 260 259
3 247 261 246
3 246 261 260
3 248 262 247
3 247 262 261
3 254 249 263
3 263 249 250
3 253 263 250
3 258 264 251
3 251 264 252
3 264 265 252
3 265 263 253
3 252 265 253
3 266 254 263
3 267 255 254
3 266 267 254
3 268 256 255
3 267 268 255
3 269 257 256
3 268 269 256
3 259 270 258
3 270 264 258
3 260 271 259
3 259 271 270
3 261 272 260
3 260 272 271
3 262 273 261
3 273 272 261
3 270 274 264
3 275 266 263
3 275 263 265
3 274 276 264
3 276 265 264
3 276 277 265
3 277 275 265
3 278 267 266
3 275 278 266
3 279 268 267
3 278 279 267
3 280 269 268
3 279 280 268
3 271 281 270
3 270 281 274
3 272 282 271
3 271 282 281
3 273 283 272
3 272 283 282
3 281 284 274
3 274 284 276
3 285 278 275
3 277 285 275
3 284 286 276
3 286 285 277
3 276 286 277
3 287 279 278
3 285 287 278
3 288 280 279
3 287 288 279
3 282 289 281
3 281 289 284
3 283 290 282
3 282 290 289
3 289 291 284
3 284 291 286
3 291 292 286
3 292 287 285
3 286 292 285
3 293 288 287
3 292 293 287
3 290 294 289
3 289 294 291
3 294 295 291
3 295 293 292
3 291 295 292
CELL_TYPES 542
5
5
5
5
5
5
5
5
5
5
5
5
5
5
5
5
5
5
5
5
5
5
5
5
5
5
5
5
5
5
5
5
5
5
5
5
5
5
5
5
5
5
5
5
5
5
5
5
5
5
5
5
5
5
5
5
5
5
5
5
5
5
5
5
5
5
5
5
5
5
5
5
5
5
5
5
5
5
5
5
5
5
5
5
5
5
5
5
5
5
5
5
5
5
5
5
5
5
5
5
5
5
5
5
5
5
5
5
5
5
5
5
5
5
5
5
5
5
5
5
5
5
5
5
5
5
5
5
5
5
5
5
5
5
5
5
5
5
5
5
5
5
5
5
5
5
5
5
5
5
5
5
5
5
5
5
5
5
5
5
5
5
5
5
5
5
5
5
5
5
5
5
5
5
5
5
5
5
5
5
5
5
5
5
5
5
5
5
5
5
5
5
5
5
5
5
5
5
5
5
5
5
5
5
5
5
5
5
5
5
5
5
5
5
5
5
5
5
5
5
5
5
5
5
5
5
5
5
5
5
5
5
5
5
5
5
5
5
5
5
5
5
5
5
5
5
5
5
5
5
5
5
5
5
5
5
5
5
5
5
5
5
5
5
5
5
5
5
5
5
5
5
5
5
5
5
5
5
5
5
5
5
5
5
5
5
5
5
5
5
5
5
5
5
5
5
5
5
5
5
5
5
5
5
5
5
5
5
5
5
5
5
5
5
5
5
5
5
5
5
5
5
5
5
5
5
5
5
5
5
5
5
5
5
5
5
5
5
5
5
5
5
5
5
5
5
5
5
5
5
5
5
5
5
5
5
5
5
5
5
5
5
5
5
5
5
5
5
5
5
5
5
5
5
5
5
5
5
5
5
5
5
5
5
5
5
5
5
5
5
5
5
5
5
5
5
5
5
5
5
5
5
5
5
5
5
5
5
5
5
5
5
5
5
5
5
5
5
5
5
5
5
5
5
5
5
5
5
5
5
5
5
5
5
5
5
5
5
5
5
5
5
5
5
5
5
5
5
5
5
5
5
5
5
5
5
5
5
5
5
5
5
5
5
5
5
5
5
5
5
5
5
5
5
5
5
5
5
5
5
5
5
5
5
5
5
5
5
5
5
5
5
5
5
5
5
5
5
5
5
5
5
5
5
5
5
5
5
5
5
5
5
5
5
5
5
5
5
5
5
5
5
5
5
5
5
5
5
5
5
5
5
5
5
5
5
5
5
5
5
5
5
POINT_DATA 296
SCALARS concentrations float 4
LOOKUP_TABLE default
0 0.945411 0.100707 59.7874
0 0.94561 0.102381 17.8376
0 0.945576 0.100402 12.5408
0 0.945664 0.104721 137.225
0 0.945454 0.0920793 6.5289
0 0.94563 0.101558 118.795
0 0.945574 0.0974841 11.6108
0 0.945464 0.0922486 5.18529
0 0.945586 0.0924571 11.7102
0 0.945783 0.106787 122.366
0 0.945919 0.0994381 9.14671
0 0.945794 0.103802 64.5306
0 0.945571 0.0988393 102.081
0 0.945559 0.0918834 11.3823
0 0.945643 0.0921268 13.2064
0 0.945434 0.0913146 2.89574
0 0.945414 0.0914003 3.60425
0 0.945561 0.0923487 11.9936
0 0.945652 0.0928034 6.10504
0 0.94544 0.0915058 5.81634
0 0.945494 0.0915463 6.0544
0 0.94605 0.100346 62.3648
0 0.946383 0.111648 117.398
0 0.945832 0.0926406 5.51267
0 0.945933 0.0923719 9.54084
0 0.945608 0.0923236 14.825
0 0.945452 0.100342 64.6559
0 0.945454 0.0924582 11.7112
0 0.945568 0.101269 100.825
0 0.945483 0.0912617 2.05407
0 0.945483 0.0913726 4.81558
0 0.945397 0.0911419 0.655507
0 0.946188 0.100584 77.9151
0 0.94538 0.0911055 1.02526
0 0.945385 0.0911893 3.0784
0 0.945562 0.0916611 4.98826
0 0.945674 0.0914582 1.61339
0 0.945408 0.0911671 3.38299
0 0.945467 0.091272 3.8816
0 0.946137 0.0932474 11.3488
0 0.946206 0.0935363 12.7399
0 0.945796 0.0912651 1.68062
0 0.945912 0.0914848 3.52624
0 0.945964 0.0984737 42.2061
0 0.945444 0.0914467 5.89309
0 0.945479 0.0924993 7.84293
0 0.945435 0.0914718 4.36596
0 0.945683 0.0991573 65.5323
0 0.945604 0.0924676 10.033
0 0.945698 0.0987313 42.6616
0 0.945407 0.0911727 2.08032
0 0.945412 0.0911862 3.15457
0 0.945377 0.0910807 0.864252
0 0.945981 0.0926973 13.1108
0 0.945841 0.0926815 12.2746
0 0.945375 0.0910261 0.633029
0 0.945523 0.0911732 1.84524
0 0.945626 0.0911415 0.35035
0 0.945423 0.0910306 0.519635
0 0.945966 0.0916608 3.79219
0 0.945911 0.0919137 6.14337
0 0.945673 0.0910525 1.03422
0 0.945761 0.0911602 2.03341
0 0.94585 0.102816 31.9936
0 0.945421 0.0910986 2.12378
0 0.945503 0.091596 3.15998
0 0.945456 0.0911338 0.711247
0 0.945669 0.0923871 11.5303
0 0.945592 0.091575 5.59768
0 0.945799 0.101997 9.10229
0 0.945733 0.0928051 11.4447
0 0.945834 0.0984894 11.3668
0 0.945372 0.0910318 0.643959
0 0.945406 0.0911019 1.85167
0 0.945391 0.0910666 1.37723
0 0.945777 0.0916784 5.49403
0 0.945628 0.0919045 6.24375
0 0.94562 0.0914979 2.64845
0 0.945382 0.0910312 0.408801
0 0.94538 0.0910241 0.755225
0 0.945507 0.091067 0.677855
0 0.945422 0.0910614 0.696725
0 0.94572 0.0912066 2.41985
0 0.945699 0.0913509 3.50097
0 0.945569 0.0910667 0.951714
0 0.945456 0.104039 125.573
0 0.945464 0.0910496 1.37869
0 0.945523 0.091154 2.22387
0 0.945671 0.0916069 6.32036
0 0.945595 0.0912249 3.92896
0 0.945805 0.0924751 5.6077
0 0.945735 0.0914257 3.05767
0 0.945804 0.0991609 51.623
0 0.945821 0.0923473 11.4197
0 0.945394 0.0910403 1.13425
0 0.945434 0.0910747 1.58327
0 0.945416 0.0910595 1.39431
0 0.945498 0.0911112 2.03527
0 0.94575 0.100273 19.442
0 0.945251 0.0925087 13.1299
0 0.94559 0.0912051 2.4907
0 0.945436 0.0914188 2.62346
0 0.945495 0.0912029 1.78177
0 0.945399 0.0910332 1.02975
0 0.945391 0.0910474 0.725455
0 0.945467 0.0910974 1.11259
0 0.945414 0.0910773 0.733294
0 0.945553 0.091051 1.07042
0 0.945486 0.0911199 1.29221
0 0.94498 0.106687 87.0409
0 0.945558 0.0910717 2.22081
0 0.94565 0.0911964 3.2139
0 0.94578 0.0913491 0.995331
0 0.945709 0.0912227 2.02155
0 0.945782 0.0922621 9.33432
0 0.945793 0.0912756 3.47813
0 0.945836 0.0925921 2.19946
0 0.945423 0.0910492 1.21639
0 0.945413 0.0910421 0.960459
0 0.94543 0.091047 1.48927
0 0.94546 0.0910712 1.63758
0 0.945565 0.0910653 1.9181
0 0.945507 0.0910794 1.73582
0 0.945457 0.0910615 1.50747
0 0.945922 0.101916 91.563
0 0.945064 0.0924246 8.97531
0 0.94529 0.0913706 1.77728
0 0.945477 0.0910385 0.965827
0 0.94541 0.0910915 0.724015
0 0.945406 0.0910431 0.779154
0 0.94543 0.0910898 0.97275
0 0.945468 0.0910746 0.570932
0 0.945441 0.0911138 1.33299
0 0.945268 0.0921271 6.93256
0 0.945019 0.0996157 69.751
0 0.945639 0.0910669 1.95378
0 0.945728 0.0910858 1.12681
0 0.94581 0.0914114 2.74537
0 0.94576 0.0910982 1.60491
0 0.945909 0.0927577 6.58507
0 0.945834 0.0914911 1.34732
0 0.945616 0.0910787 1.7352
0 0.945425 0.0910471 0.958436
0 0.945441 0.091059 1.21597
0 0.945488 0.0910563 1.64317
0 0.945546 0.0910648 1.69255
0 0.945582 0.0910866 1.76955
0 0.945494 0.0910583 1.46531
0 0.945475 0.0910598 1.32235
0 0.945882 0.0926128 12.1768
0 0.945935 0.10008 16.5576
0 0.945442 0.0910569 1.1348
0 0.945289 0.0913625 2.08865
0 0.945366 0.0910749 0.568772
0 0.945426 0.0910362 1.32158
0 0.945405 0.0914336 2.22773
0 0.945424 0.0910662 1.04152
0 0.945437 0.0910851 1.16053
0 0.945436 0.0910549 1.00532
0 0.94544 0.0911027 1.64678
0 0.945541 0.0921557 4.51711
0 0.945438 0.0987116 75.8083
0 0.945686 0.0910423 1.37834
0 0.945759 0.0911138 0.957012
0 0.945835 0.091478 4.07068
0 0.945776 0.0911832 1.09317
0 0.945788 0.0912794 3.88772
0 0.945644 0.0910777 1.54043
0 0.945459 0.0910564 1.19097
0 0.945537 0.0910651 1.65085
0 0.945592 0.0911087 1.83424
0 0.945516 0.0910604 1.55026
0 0.945495 0.0910647 1.42667
0 0.945751 0.0922709 8.94958
0 0.945869 0.100197 17.2986
0 0.945439 0.0911378 2.46567
0 0.945399 0.0911784 1.47585
0 0.94542 0.091105 1.93334
0 0.945518 0.0915243 0.552249
0 0.945452 0.0913095 1.09681
0 0.945441 0.0910662 1.12897
0 0.945447 0.0910925 1.49978
0 0.945456 0.0910632 1.19527
0 0.945455 0.0911178 1.56655
0 0.945457 0.0911363 1.3308
0 0.945571 0.0917191 2.93019
0 0.945662 0.0923467 5.13572
0 0.945689 0.0984558 34.5728
0 0.9457 0.0910549 0.945942
0 0.945747 0.0911411 1.34829
0 0.945686 0.0914144 3.23642
0 0.94572 0.0911959 1.7843
0 0.945648 0.0911001 1.46446
0 0.945605 0.0910906 1.7338
0 0.945479 0.0910709 1.43636
0 0.945561 0.091061 1.70352
0 0.945533 0.0910668 1.59142
0 0.945509 0.0910744 1.54528
0 0.945529 0.0910678 1.55188
0 0.945585 0.0915293 2.65197
0 0.945529 0.0920878 4.26258
0 0.945591 0.0981156 53.6036
0 0.945454 0.0911571 1.41611
0 0.945493 0.0913417 0.215057
0 0.945521 0.0914022 1.40714
0 0.945474 0.0910881 0.736768
0 0.945468 0.0910589 0.920802
0 0.945474 0.0910776 0.596384
0 0.945575 0.0917375 4.88704
0 0.945662 0.0925308 11.6366
0 0.945744 0.0974269 30.0781
0 0.945678 0.0911122 1.10265
0 0.945665 0.0912117 1.55343
0 0.945611 0.0912576 1.56691
0 0.945636 0.0910714 1.32809
0 0.945595 0.0910504 1.55346
0 0.945493 0.0910555 1.01095
0 0.945521 0.0910593 1.06765
0 0.945563 0.0910554 1.54862
0 0.945545 0.0910605 1.45166
0 0.945491 0.0914671 2.83117
0 0.945404 0.0922777 6.56265
0 0.945358 0.0997321 74.2298
0 0.945491 0.0911179 0.364062
0 0.945516 0.0911577 1.32698
0 0.945491 0.091042 0.187318
0 0.945491 0.0910313 0.381975
0 0.94551 0.0911559 2.01136
0 0.945559 0.0916095 5.14568
0 0.945668 0.0931823 15.882
0 0.945713 0.10155 56.7305
0 0.945635 0.0910593 1.0717
0 0.945574 0.0912976 1.97963
0 0.945617 0.0910166 0.991193
0 0.945592 0.0910393 1.29112
0 0.945514 0.0910334 0.52079
0 0.945538 0.0910616 0.702819
0 0.945575 0.0910519 1.2751
0 0.945561 0.091058 1.07466
0 0.945536 0.0915643 4.06421
0 0.945438 0.0917456 5.48501
0 0.945313 0.0923035 8.58763
0 0.945277 0.0987037 58.674
0 0.9455 0.0909943 0.577634
0 0.945506 0.0910208 0.574713
0 0.945496 0.091161 1.39035
0 0.945516 0.0915786 5.30231
0 0.945618 0.092689 12.4014
0 0.945742 0.107609 110.367
0 0.945599 0.0911645 1.16017
0 0.945598 0.0910442 1.07806
0 0.945525 0.0910531 0.468098
0 0.945551 0.0910346 0.81274
0 0.945577 0.0910575 1.22178
0 0.945538 0.0914932 3.70315
0 0.945413 0.0919753 8.25375
0 0.945264 0.0924331 11.8359
0 0.945169 0.0987761 77.5948
0 0.945507 0.0910357 0.239062
0 0.945483 0.0912258 1.51746
0 0.945473 0.0915232 4.2284
0 0.94549 0.0925943 11.5625
0 0.94557 0.096465 3.84688
0 0.945579 0.0911244 0.733443
0 0.945526 0.0910228 0.665151
0 0.945556 0.0910079 1.04541
0 0.945528 0.0913936 3.38106
0 0.945424 0.0917751 6.81112
0 0.945277 0.0930449 17.0727
0 0.945186 0.098505 7.95463
0 0.945486 0.091181 0.265359
0 0.94544 0.0914476 2.58849
0 0.945429 0.0924818 9.88212
0 0.945449 0.0989093 21.8168
0 0.945485 0.0912622 0.757524
0 0.945539 0.091148 1.19684
0 0.94551 0.0912139 0.945121
0 0.945522 0.0911732 0.340389
0 0.945449 0.0915389 4.10797
0 0.945285 0.0926566 12.3712
0 0.945188 0.101801 52.7645
0 0.945418 0.0914213 0.895051
0 0.945343 0.0917798 5.99872
0 0.945362 0.0987001 86.9861
0 0.945429 0.091469 1.10576
0 0.945468 0.0913283 0.821899
0 0.945455 0.0914556 1.60472
0 0.94538 0.0922626 5.6562
0 0.945244 0.0984224 8.75753
0 0.945335 0.0921689 8.16336
0 0.945253 0.0976634 38.6362
0 0.945371 0.0921268 8.38155
0 0.945409 0.0919348 2.79452
0 0.945401 0.0993146 9.86198
0 0.945326 0.102275 84.3316
0 0.945336 0.102614 57.3877
VECTORS fa_u float
0.00683652 0.00281468 -0
0.00566927 0.00327667 -0
0.00433884 0.00119361 -0
0.00915951 0.00127345 -0
1e-08 0 0
0.00562387 0.00432934 -0
0.00347552 0.00343228 -0
1e-08 0 0
1e-08 0 0
0.00486112 0.00619883 -0
0.00355768 0.00611587 -0
0.0053504 1.56999e-05 -0
0.00694993 -0.000854616 0
1e-08 0 0
1e-08 0 0
1e-08 0 0
1e-08 0 0
1e-08 0 0
1e-08 0 0
1e-08 0 0
1e-08 0 0
0.0025248 0.00605562 -0
0.00201533 0.00759721 -0
1e-08 0 0
1e-08 0 0
1e-08 0 0
0.00716144 -0.00188878 0
1e-08 0 0
0.00755608 -0.00318793 0
1e-08 0 0
1e-08 0 0
1e-08 0 0
0.000759422 0.00597149 -0
1e-08 0 0
1e-08 0 0
1e-08 0 0
1e-08 0 0
1e-08 0 0
1e-08 0 0
1e-08 0 0
1e-08 0 0
1e-08 0 0
1e-08 0 0
-4.91528e-05 0.00784917 -0
1e-08 0 0
1e-08 0 0
1e-08 0 0
0.00551522 -0.00327431 0
1e-08 0 0
0.00474307 -0.00369254 0
1e-08 0 0
1e-08 0 0
1e-08 0 0
1e-08 0 0
1e-08 0 0
1e-08 0 0
1e-08 0 0
1e-08 0 0
1e-08 0 0
1e-08 0 0
1e-08 0 0
1e-08 0 0
1e-08 0 0
-0.000855007 0.00607948 0
1e-08 0 0
1e-08 0 0
1e-08 0 0
1e-08 0 0
1e-08 0 0
0.00443119 -0.00444439 0
1e-08 0 0
0.00310613 -0.00396871 0
1e-08 0 0
1e-08 0 0
1e-08 0 0
1e-08 0 0
1e-08 0 0
1e-08 0 0
1e-08 0 0
1e-08 0 0
1e-08 0 0
1e-08 0 0
1e-08 0 0
1e-08 0 0
1e-08 0 0
-0.00121916 0.00463203 0
1e-08 0 0
1e-08 0 0
1e-08 0 0
1e-08 0 0
1e-08 0 0
1e-08 0 0
0.00428489 -0.00724387 0
1e-08 0 0
1e-08 0 0
1e-08 0 0
1e-08 0 0
1e-08 0 0
0.00301256 -0.0073384 0
1e-08 0 0
1e-08 0 0
1e-08 0 0
1e-08 0 0
1e-08 0 0
1e-08 0 0
1e-08 0 0
1e-08 0 0
1e-08 0 0
1e-08 0 0
-0.00355216 0.00864719 0
1e-08 0 0
1e-08 0 0
1e-08 0 0
1e-08 0 0
1e-08 0 0
1e-08 0 0
1e-08 0 0
1e-08 0 0
1e-08 0 0
1e-08 0 0
1e-08 0 0
1e-08 0 0
1e-08 0 0
1e-08 0 0
0.00148017 -0.00562126 0
1e-08 0 0
1e-08 0 0
1e-08 0 0
1e-08 0 0
1e-08 0 0
1e-08 0 0
1e-08 0 0
1e-08 0 0
1e-08 0 0
-0.00301841 0.0051639 0
1e-08 0 0
1e-08 0 0
1e-08 0 0
1e-08 0 0
1e-08 0 0
1e-08 0 0
1e-08 0 0
1e-08 0 0
1e-08 0 0
1e-08 0 0
1e-08 0 0
1e-08 0 0
1e-08 0 0
1e-08 0 0
1e-08 0 0
0.000846766 -0.00633874 0
1e-08 0 0
1e-08 0 0
1e-08 0 0
1e-08 0 0
1e-08 0 0
1e-08 0 0
1e-08 0 0
1e-08 0 0
1e-08 0 0
1e-08 0 0
-0.00407325 0.00529128 0
1e-08 0 0
1e-08 0 0
1e-08 0 0
1e-08 0 0
1e-08 0 0
1e-08 0 0
1e-08 0 0
1e-08 0 0
1e-08 0 0
1e-08 0 0
1e-08 0 0
1e-08 0 0
2.3734e-05 -0.00663587 0
1e-08 0 0
1e-08 0 0
1e-08 0 0
1e-08 0 0
1e-08 0 0
1e-08 0 0
1e-08 0 0
1e-08 0 0
1e-08 0 0
1e-08 0 0
1e-08 0 0
1e-08 0 0
-0.003905 0.00394186 0
1e-08 0 0
1e-08 0 0
1e-08 0 0
1e-08 0 0
1e-08 0 0
1e-08 0 0
1e-08 0 0
1e-08 0 0
1e-08 0 0
1e-08 0 0
1e-08 0 0
1e-08 0 0
1e-08 0 0
-0.00079405 -0.00630415 0
1e-08 0 0
1e-08 0 0
1e-08 0 0
1e-08 0 0
1e-08 0 0
1e-08 0 0
1e-08 0 0
1e-08 0 0
-0.0051423 0.00404089 0
1e-08 0 0
1e-08 0 0
1e-08 0 0
1e-08 0 0
1e-08 0 0
1e-08 0 0
1e-08 0 0
1e-08 0 0
1e-08 0 0
1e-08 0 0
1e-08 0 0
-0.00205046 -0.00769477 0
1e-08 0 0
1e-08 0 0
1e-08 0 0
1e-08 0 0
1e-08 0 0
1e-08 0 0
1e-08 0 0
-0.00664934 0.00390707 0
1e-08 0 0
1e-08 0 0
1e-08 0 0
1e-08 0 0
1e-08 0 0
1e-08 0 0
1e-08 0 0
1e-08 0 0
1e-08 0 0
1e-08 0 0
1e-08 0 0
-0.00243162 -0.00582654 0
1e-08 0 0
1e-08 0 0
1e-08 0 0
1e-08 0 0
1e-08 0 0
-0.00720571 0.00296599 0
1e-08 0 0
1e-08 0 0
1e-08 0 0
1e-08 0 0
1e-08 0 0
1e-08 0 0
1e-08 0 0
1e-08 0 0
-0.00370069 -0.00635554 0
1e-08 0 0
1e-08 0 0
1e-08 0 0
1e-08 0 0
-0.00534307 0.00142413 0
1e-08 0 0
1e-08 0 0
1e-08 0 0
1e-08 0 0
1e-08 0 0
1e-08 0 0
-0.004147 -0.00532587 0
1e-08 0 0
1e-08 0 0
1e-08 0 0
-0.00749023 0.00099139 0
1e-08 0 0
1e-08 0 0
1e-08 0 0
1e-08 0 0
1e-08 0 0
1e-08 0 0
-0.00406455 -0.00404648 0
1e-08 0 0
1e-08 0 0
-0.00804112 -7.68825e-05 0
1e-08 0 0
1e-08 0 0
1e-08 0 0
1e-08 0 0
-0.0058562 -0.00449018 0
1e-08 0 0
-0.00516508 -0.00072301 0
1e-08 0 0
1e-08 0 0
-0.00500234 -0.00289529 0
-0.00552873 -0.00145269 0
-0.0077778 -0.00320246 0
