# vtk DataFile Version 2.0
CellBP Time: 3.64
ASCII
DATASET UNSTRUCTURED_GRID
POINTS 296 double
-8.97009 -3.6814 0
-8.39463 -4.82372 0
-9.37129 -2.46656 0
-9.62378 -1.2202 0
-8.26935 -2.7802 0
-7.68663 -5.89006 0
-6.84574 -6.8536 0
-7.82945 -3.82561 0
-7.25856 -4.81397 0
-5.89209 -7.69838 0
-4.84287 -8.41753 0
-9.71679 0.0466213 0
-9.64411 1.32164 0
-8.57582 -1.66116 0
-8.71131 -0.522054 0
-7.50429 -1.97334 0
-7.13798 -2.86387 0
-6.56966 -5.72618 0
-5.77085 -6.54545 0
-6.70596 -3.83745 0
-6.14743 -4.62392 0
-3.69528 -8.98001 0
-2.4819 -9.39422 0
-4.87136 -7.25863 0
-3.8938 -7.83789 0
-8.72453 0.635238 0
-9.40596 2.58285 0
-8.562 1.75583 0
-8.99241 3.79374 0
-7.66506 -0.912791 0
-7.72102 0.083045 0
-6.8765 -1.29468 0
-1.2222 -9.64016 0
-6.3718 -2.12411 0
-6.2483 -3.01644 0
-5.47813 -5.42364 0
-4.75142 -6.06565 0
-5.59608 -3.71438 0
-5.2089 -4.51331 0
-2.85084 -8.31093 0
-1.7656 -8.58223 0
-3.89872 -6.67517 0
-3.04072 -7.10569 0
0.0517431 -9.72 0
-7.6377 1.13255 0
-8.2867 2.89643 0
-7.48933 2.08969 0
-8.41199 4.93211 0
-7.81946 3.94599 0
-7.69067 5.98906 0
-6.70978 -0.38812 0
-6.88811 0.550316 0
-5.71941 -0.992426 0
-0.58572 -8.74429 0
0.556534 -8.69624 0
-5.25404 -2.45328 0
-4.44263 -5.04712 0
-3.86501 -5.7271 0
-4.39806 -3.76976 0
-2.04894 -7.51006 0
-1.12816 -7.72779 0
-2.97012 -6.05535 0
-2.29518 -6.57325 0
1.31993 -9.62508 0
-6.62973 1.40747 0
-7.10878 3.08795 0
-6.60087 2.34995 0
-7.23101 4.94346 0
-6.65806 3.96351 0
-6.84679 6.94378 0
-6.51386 5.83838 0
-5.88633 7.78521 0
-4.42556 -1.17483 0
-5.76801 0.505932 0
-4.62841 -0.0162696 0
0.00222585 -7.78059 0
1.71468 -8.55995 0
0.930929 -7.68856 0
-4.01298 -2.38828 0
-3.47555 -1.38739 0
-3.26877 -4.76769 0
-3.24946 -3.24593 0
-1.373 -6.62271 0
-0.512267 -6.96411 0
-1.96376 -5.49888 0
2.57007 -9.36661 0
-5.46337 2.02105 0
-6.04077 3.04144 0
-6.04957 4.82014 0
-5.70883 3.94857 0
-5.70872 6.65071 0
-5.40131 5.56068 0
-4.83579 8.5111 0
-4.79246 7.32892 0
-3.48823 -0.423309 0
-4.41988 1.24061 0
-3.69254 0.589151 0
-4.03376 2.31027 0
-3.69508 9.081 0
2.82418 -8.24105 0
0.403952 -6.72779 0
1.99005 -7.44318 0
1.28008 -6.83047 0
-2.43938 -0.869751 0
-2.83009 -2.12188 0
-2.2842 -4.07151 0
-2.31715 -2.95775 0
-0.445724 -5.81132 0
-1.21435 -4.4718 0
3.78381 -8.96809 0
-4.74995 3.3627 0
-5.04099 4.54551 0
-4.60209 6.21366 0
-4.49587 5.30225 0
-3.81214 7.92273 0
-3.7874 6.76964 0
-2.75665 8.34405 0
-1.64675 -0.134244 0
-1.44718 -0.887156 0
-2.48447 0.510621 0
-3.23722 1.44106 0
-3.21707 3.29613 0
-2.89553 2.36701 0
-1.35482 0.630654 0
-2.48076 9.48074 0
3.88507 -7.79971 0
2.91968 -7.06874 0
0.935655 -5.76373 0
2.04066 -6.34076 0
-1.67758 -1.98636 0
-1.42755 -3.26096 0
0.0866495 -4.71094 0
-0.560626 -3.6756 0
4.87771 -7.23567 0
4.92881 -8.40529 0
-3.74521 4.51014 0
-3.69978 5.69278 0
-2.85692 7.2136 0
-2.98059 6.28888 0
-1.64647 8.65939 0
-1.91855 7.54783 0
-2.32453 4.02466 0
-0.728638 -1.32437 0
-0.836346 -0.254533 0
-1.93414 1.68351 0
-2.11782 2.86737 0
-1.30391 3.53002 0
-0.871576 1.35414 0
-0.284331 0.458718 0
-0.527731 8.80431 0
-1.22454 9.72781 0
1.09886 -4.53462 0
3.85545 -6.62669 0
2.94593 -6.01914 0
2.08873 -5.36535 0
4.72957 -6.12649 0
-0.555299 -2.46894 0
0.493527 -3.44497 0
0.0542759 -1.60817 0
1.46839 -3.65349 0
5.81034 -6.5414 0
5.98897 -7.69 0
-2.45557 5.30144 0
-2.10757 6.47106 0
-0.89242 7.73783 0
-1.25515 6.86773 0
0.0886466 7.82102 0
-1.1388 4.4666 0
0.14911 -0.615322 0
-0.801187 2.489 0
-0.336524 3.58973 0
0.0588257 1.51427 0
0.737344 0.474212 0
0.641566 8.81486 0
0.0476785 9.82276 0
2.35489 -4.24181 0
3.8121 -5.56851 0
2.96413 -5.15124 0
5.52091 -5.42878 0
4.63961 -5.21439 0
0.630194 -2.28952 0
1.24879 -2.9354 0
0.756176 -1.38978 0
2.14758 -3.11284 0
2.968 -3.44482 0
6.10444 -4.74238 0
6.60135 -5.71342 0
6.94794 -6.84114 0
-1.00892 5.77304 0
-0.363515 6.82542 0
1.11585 7.71751 0
0.558099 7.02686 0
-0.00315663 4.69893 0
0.600016 3.81222 0
1.33531 -0.641676 0
0.532803 2.64585 0
0.95988 1.57478 0
1.90414 0.212621 0
1.608 1.06391 0
2.11814 7.53547 0
1.78848 8.65719 0
1.32466 9.74252 0
3.78463 -4.30203 0
5.06766 -4.39379 0
5.79817 -3.89272 0
3.75371 -3.1713 0
1.80578 -1.87986 0
2.99919 -2.5576 0
6.73529 -3.91422 0
7.32997 -4.85792 0
7.79853 -5.89064 0
0.482435 5.84042 0
1.42126 6.69614 0
2.36203 6.62659 0
1.20159 4.53259 0
1.47981 3.38301 0
2.42612 -0.690801 0
2.81646 0.142562 0
1.78055 2.1579 0
2.60304 1.14718 0
3.05618 7.12505 0
2.89083 8.32539 0
2.58288 9.49222 0
4.87123 -3.29206 0
6.07593 -3.07848 0
4.14567 -2.26007 0
3.22742 -1.4976 0
6.68902 -2.29778 0
7.18696 -3.02362 0
7.91659 -3.89038 0
8.51895 -4.84138 0
2.01341 5.565 0
3.06144 6.1101 0
2.35374 4.10343 0
2.41021 3.04624 0
3.50795 -0.457564 0
3.59879 0.614007 0
2.9483 2.27773 0
3.52589 1.51883 0
3.97425 5.85262 0
3.955 6.7466 0
3.95422 7.89078 0
3.79817 9.08478 0
5.53309 -1.90225 0
4.48319 -1.12213 0
6.6686 -1.32609 0
7.54479 -2.02221 0
8.34623 -2.84524 0
9.08775 -3.69821 0
3.38802 4.84016 0
3.31483 3.36257 0
4.66305 0.132166 0
4.48563 1.30037 0
4.03194 2.42496 0
4.51979 5.10674 0
4.79921 6.14305 0
4.94524 7.33082 0
4.94321 8.51675 0
5.8404 -0.433607 0
6.95741 -0.487406 0
7.70825 -1.07464 0
8.63018 -1.7321 0
9.48836 -2.47989 0
4.50558 3.79312 0
5.76541 1.0839 0
5.31621 2.50754 0
5.31608 4.57386 0
5.55324 5.47483 0
5.84528 6.62109 0
5.99905 7.80694 0
6.78549 0.452394 0
7.79303 -0.027359 0
8.80094 -0.575743 0
9.74048 -1.22132 0
6.89203 1.32815 0
5.65443 3.73717 0
6.47068 2.16715 0
6.30596 3.04923 0
6.2185 4.63759 0
6.62512 5.78595 0
6.94721 6.95286 0
7.71609 0.953824 0
8.79039 0.567424 0
9.8182 0.054079 0
7.53983 1.97759 0
6.74306 3.85482 0
7.18651 2.90771 0
7.30181 4.83784 0
7.79944 5.99731 0
8.6446 1.70744 0
9.72691 1.32303 0
8.33432 2.80403 0
7.90157 3.87503 0
8.50475 4.93084 0
9.47088 2.57399 0
9.07084 3.78651 0
CELLS 542 2168
3 2 0 4
3 0 1 7
3 4 0 7
3 1 5 8
3 7 1 8
3 3 2 13
3 13 2 4
3 11 3 14
3 14 3 13
3 13 4 15
3 4 7 16
3 15 4 16
3 5 6 17
3 8 5 17
3 6 9 18
3 17 6 18
3 7 8 19
3 16 7 19
3 8 17 20
3 19 8 20
3 9 10 23
3 18 9 23
3 10 21 24
3 23 10 24
3 12 11 25
3 25 11 14
3 26 12 27
3 27 12 25
3 14 13 29
3 29 13 15
3 25 14 30
3 30 14 29
3 29 15 31
3 15 16 33
3 31 15 33
3 16 19 34
3 33 16 34
3 17 18 35
3 20 17 35
3 18 23 36
3 35 18 36
3 19 20 37
3 34 19 37
3 20 35 38
3 37 20 38
3 21 22 39
3 24 21 39
3 22 32 40
3 39 22 40
3 23 24 41
3 36 23 41
3 24 39 42
3 41 24 42
3 27 25 44
3 44 25 30
3 28 26 45
3 45 26 27
3 45 27 46
3 46 27 44
3 47 28 48
3 48 28 45
3 30 29 50
3 50 29 31
3 44 30 51
3 51 30 50
3 50 31 52
3 31 33 52
3 32 43 53
3 40 32 53
3 53 43 54
3 33 34 55
3 34 37 55
3 33 55 52
3 35 36 56
3 38 35 56
3 36 41 57
3 56 36 57
3 37 38 58
3 38 56 58
3 37 58 55
3 39 40 59
3 42 39 59
3 40 53 60
3 59 40 60
3 41 42 61
3 57 41 61
3 42 59 62
3 61 42 62
3 43 63 54
3 46 44 64
3 64 44 51
3 48 45 65
3 65 45 46
3 65 46 66
3 66 46 64
3 49 47 67
3 67 47 48
3 67 48 68
3 68 48 65
3 69 49 70
3 70 49 67
3 52 55 72
3 64 51 73
3 51 50 73
3 50 52 73
3 73 52 74
3 74 52 72
3 53 54 75
3 60 53 75
3 54 63 76
3 54 76 77
3 75 54 77
3 55 58 78
3 72 55 78
3 72 78 79
3 56 57 80
3 57 61 80
3 56 80 58
3 58 80 81
3 78 58 81
3 59 60 82
3 62 59 82
3 60 75 83
3 82 60 83
3 61 62 84
3 62 82 84
3 61 84 80
3 63 85 76
3 66 64 86
3 64 73 86
3 68 65 87
3 87 65 66
3 87 66 86
3 70 67 88
3 88 67 68
3 88 68 89
3 89 68 87
3 71 69 90
3 90 69 70
3 90 70 91
3 91 70 88
3 92 71 93
3 93 71 90
3 74 72 94
3 94 72 79
3 86 73 95
3 95 73 74
3 95 74 96
3 96 74 94
3 97 86 95
3 76 85 99
3 75 77 100
3 83 75 100
3 76 99 101
3 77 76 101
3 77 101 102
3 100 77 102
3 94 79 103
3 78 81 104
3 79 78 104
3 79 104 103
3 80 84 105
3 81 80 105
3 81 105 106
3 104 81 106
3 82 83 107
3 83 100 107
3 82 107 84
3 84 107 108
3 105 84 108
3 85 109 99
3 89 87 110
3 87 86 110
3 110 86 97
3 91 88 111
3 111 88 89
3 111 89 110
3 93 90 112
3 112 90 91
3 112 91 113
3 113 91 111
3 98 92 114
3 114 92 93
3 114 93 115
3 115 93 112
3 116 98 114
3 117 103 118
3 96 94 119
3 94 103 119
3 119 103 117
3 97 95 120
3 120 95 96
3 120 96 119
3 121 110 97
3 121 97 122
3 122 97 120
3 123 119 117
3 124 98 116
3 99 109 125
3 99 125 126
3 101 99 126
3 100 102 127
3 100 127 107
3 101 126 128
3 102 101 128
3 102 128 127
3 104 106 129
3 104 129 103
3 103 129 118
3 105 108 130
3 106 105 130
3 106 130 129
3 107 127 131
3 108 107 131
3 108 131 132
3 108 132 130
3 109 134 125
3 125 134 133
3 113 111 135
3 111 110 135
3 135 110 121
3 115 112 136
3 136 112 113
3 136 113 135
3 116 114 137
3 137 114 115
3 137 115 138
3 138 115 136
3 139 124 116
3 139 116 140
3 140 116 137
3 141 135 121
3 118 129 142
3 118 142 143
3 117 118 143
3 123 117 143
3 122 120 144
3 120 119 144
3 144 119 123
3 141 121 145
3 145 121 122
3 145 122 144
3 146 141 145
3 147 144 123
3 147 123 148
3 143 148 123
3 150 124 139
3 149 150 139
3 131 127 151
3 125 133 152
3 126 125 152
3 126 152 153
3 128 126 153
3 128 153 154
3 128 154 127
3 127 154 151
3 152 133 155
3 130 132 156
3 130 156 129
3 129 156 142
3 131 151 157
3 132 131 157
3 132 157 156
3 156 158 142
3 157 151 159
3 133 160 155
3 134 161 133
3 133 161 160
3 138 136 162
3 136 135 162
3 162 135 141
3 140 137 163
3 163 137 138
3 163 138 162
3 149 139 164
3 164 139 140
3 164 140 165
3 165 140 163
3 166 149 164
3 167 162 141
3 167 141 146
3 142 158 168
3 143 142 168
3 143 168 148
3 146 145 169
3 145 144 169
3 169 144 147
3 170 167 146
3 170 146 169
3 171 169 147
3 171 147 148
3 171 148 172
3 168 172 148
3 173 149 166
3 174 150 149
3 173 174 149
3 154 175 151
3 151 175 159
3 152 155 176
3 153 152 176
3 153 176 177
3 153 177 154
3 154 177 175
3 155 160 178
3 155 178 179
3 176 155 179
3 156 157 180
3 156 180 158
3 157 159 181
3 157 181 180
3 158 180 182
3 158 182 168
3 159 175 183
3 159 183 181
3 175 184 183
3 160 186 178
3 178 186 185
3 161 187 160
3 160 187 186
3 165 163 188
3 163 162 188
3 188 162 167
3 166 164 189
3 189 164 165
3 189 165 188
3 190 173 166
3 190 166 191
3 191 166 189
3 192 188 167
3 192 167 170
3 193 192 170
3 182 194 168
3 194 172 168
3 193 170 195
3 170 169 195
3 195 169 171
3 196 195 171
3 196 171 172
3 194 197 172
3 197 198 172
3 198 196 172
3 200 173 190
3 199 200 190
3 201 174 173
3 200 201 173
3 176 179 202
3 177 176 202
3 177 202 175
3 175 202 184
3 178 185 203
3 178 203 179
3 179 203 202
3 203 185 204
3 202 205 184
3 183 206 181
3 180 181 206
3 180 206 182
3 182 206 194
3 183 184 207
3 205 207 184
3 183 207 206
3 185 208 204
3 186 209 185
3 185 209 208
3 187 210 186
3 186 210 209
3 191 189 211
3 189 188 211
3 211 188 192
3 199 190 212
3 212 190 191
3 212 191 211
3 213 199 212
3 214 211 192
3 214 192 193
3 215 214 193
3 215 193 195
3 206 216 194
3 216 197 194
3 216 217 197
3 215 195 218
3 218 195 196
3 198 218 196
3 217 219 197
3 219 218 198
3 197 219 198
3 220 199 213
3 221 200 199
3 220 221 199
3 222 201 200
3 221 222 200
3 203 204 223
3 203 223 202
3 202 223 205
3 204 208 224
3 204 224 223
3 205 223 225
3 205 225 207
3 207 225 226
3 207 226 206
3 226 216 206
3 208 228 224
3 224 228 227
3 209 229 208
3 229 228 208
3 210 230 209
3 209 230 229
3 213 212 231
3 212 211 231
3 231 211 214
3 232 220 213
3 232 213 231
3 233 231 214
3 233 214 215
3 234 233 215
3 234 215 218
3 226 235 216
3 235 217 216
3 235 236 217
3 217 236 219
3 237 234 218
3 237 218 219
3 236 238 219
3 238 237 219
3 240 220 232
3 239 240 232
3 241 221 220
3 240 241 220
3 242 222 221
3 241 242 221
3 224 227 243
3 224 243 223
3 223 243 225
3 225 243 244
3 225 244 226
3 226 244 235
3 227 245 243
3 228 246 227
3 227 246 245
3 229 247 228
3 228 247 246
3 230 248 229
3 229 248 247
3 239 232 249
3 232 231 249
3 249 231 233
3 250 249 233
3 250 233 234
3 237 250 234
3 244 251 235
3 235 251 236
3 251 252 236
3 236 252 238
3 252 253 238
3 253 250 237
3 253 237 238
3 254 239 249
3 255 240 239
3 254 255 239
3 256 241 240
3 255 256 240
3 257 242 241
3 256 257 241
3 245 258 243
3 243 258 244
3 244 258 251
3 245 259 258
3 246 260 245
3 245 260 259
3 247 261 246
3 246 261 260
3 248 262 247
3 247 262 261
3 254 249 263
3 263 249 250
3 253 263 250
3 258 264 251
3 251 264 252
3 264 265 252
3 265 263 253
3 252 265 253
3 266 254 263
3 267 255 254
3 266 267 254
3 268 256 255
3 267 268 255
3 269 257 256
3 268 269 256
3 259 270 258
3 270 264 258
3 260 271 259
3 259 271 270
3 261 272 260
3 260 272 271
3 262 273 261
3 273 272 261
3 270 274 264
3 275 266 263
3 275 263 265
3 274 276 264
3 276 265 264
3 276 277 265
3 277 275 265
3 278 267 266
3 275 278 266
3 279 268 267
3 278 279 267
3 280 269 268
3 279 280 268
3 271 281 270
3 270 281 274
3 272 282 271
3 271 282 281
3 273 283 272
3 272 283 282
3 281 284 274
3 274 284 276
3 285 278 275
3 277 285 275
3 284 286 276
3 286 285 277
3 276 286 277
3 287 279 278
3 285 287 278
3 288 280 279
3 287 288 279
3 282 289 281
3 281 289 284
3 283 290 282
3 282 290 289
3 289 291 284
3 284 291 286
3 291 292 286
3 292 287 285
3 286 292 285
3 293 288 287
3 292 293 287
3 290 294 289
3 289 294 291
3 294 295 291
3 295 293 292
3 291 295 292
CELL_TYPES 542
5
5
5
5
5
5
5
5
5
5
5
5
5
5
5
5
5
5
5
5
5
5
5
5
5
5
5
5
5
5
5
5
5
5
5
5
5
5
5
5
5
5
5
5
5
5
5
5
5
5
5
5
5
5
5
5
5
5
5
5
5
5
5
5
5
5
5
5
5
5
5
5
5
5
5
5
5
5
5
5
5
5
5
5
5
5
5
5
5
5
5
5
5
5
5
5
5
5
5
5
5
5
5
5
5
5
5
5
5
5
5
5
5
5
5
5
5
5
5
5
5
5
5
5
5
5
5
5
5
5
5
5
5
5
5
5
5
5
5
5
5
5
5
5
5
5
5
5
5
5
5
5
5
5
5
5
5
5
5
5
5
5
5
5
5
5
5
5
5
5
5
5
5
5
5
5
5
5
5
5
5
5
5
5
5
5
5
5
5
5
5
5
5
5
5
5
5
5
5
5
5
5
5
5
5
5
5
5
5
5
5
5
5
5
5
5
5
5
5
5
5
5
5
5
5
5
5
5
5
5
5
5
5
5
5
5
5
5
5
5
5
5
5
5
5
5
5
5
5
5
5
5
5
5
5
5
5
5
5
5
5
5
5
5
5
5
5
5
5
5
5
5
5
5
5
5
5
5
5
5
5
5
5
5
5
5
5
5
5
5
5
5
5
5
5
5
5
5
5
5
5
5
5
5
5
5
5
5
5
5
5
5
5
5
5
5
5
5
5
5
5
5
5
5
5
5
5
5
5
5
5
5
5
5
5
5
5
5
5
5
5
5
5
5
5
5
5
5
5
5
5
5
5
5
5
5
5
5
5
5
5
5
5
5
5
5
5
5
5
5
5
5
5
5
5
5
5
5
5
5
5
5
5
5
5
5
5
5
5
5
5
5
5
5
5
5
5
5
5
5
5
5
5
5
5
5
5
5
5
5
5
5
5
5
5
5
5
5
5
5
5
5
5
5
5
5
5
5
5
5
5
5
5
5
5
5
5
5
5
5
5
5
5
5
5
5
5
5
5
5
5
5
5
5
5
5
5
5
5
5
5
5
5
5
5
5
5
5
5
5
5
5
5
5
5
5
5
5
5
5
5
5
5
5
5
5
5
5
5
5
5
5
5
5
5
5
5
5
5
5
5
5
5
5
5
5
5
5
5
5
5
5
5
5
5
5
5
5
5
5
5
5
5
5
5
5
5
5
5
5
5
5
5
5
5
5
5
5
5
5
5
5
POINT_DATA 296
SCALARS concentrations float 4
LOOKUP_TABLE default
0 0.953459 0.121217 47.6361
0 0.953396 0.124185 173.233
0 0.953804 0.124813 139.737
0 0.953807 0.124929 253.503
0 0.953673 0.0920123 7.0321
0 0.953321 0.127823 242.133
0 0.953215 0.125862 119.751
0 0.953504 0.0920219 8.13701
0 0.953465 0.0916369 6.83597
0 0.953404 0.122859 235.743
0 0.953752 0.126191 86.6184
0 0.953601 0.12423 151.204
0 0.953669 0.12577 187.603
0 0.953837 0.0921265 11.6228
0 0.953725 0.0923243 12.0848
0 0.953783 0.0912896 2.62405
0 0.953707 0.091156 0.784158
0 0.953372 0.0915225 3.84679
0 0.953386 0.0920317 2.39593
0 0.953643 0.0911338 1.12213
0 0.95359 0.0911564 1.91616
0 0.953658 0.124313 238.447
0 0.953804 0.125355 153.024
0 0.953631 0.0921055 3.35893
0 0.953738 0.0924139 5.49895
0 0.953668 0.0920857 5.73763
0 0.953705 0.124732 128.569
0 0.953741 0.0919241 4.61298
0 0.953392 0.122791 52.7776
0 0.953797 0.0914613 4.0867
0 0.953769 0.0914548 2.88516
0 0.953821 0.0911896 1.67562
0 0.954267 0.126789 45.4886
0 0.95381 0.0910719 1.00087
0 0.953769 0.0910448 0.566762
0 0.95357 0.0912913 1.32053
0 0.953636 0.0913098 0.216023
0 0.953756 0.0910436 0.427569
0 0.953714 0.091139 0.709571
0 0.953732 0.0924735 3.45487
0 0.954019 0.0924368 2.92769
0 0.95372 0.0913736 0.482483
0 0.953787 0.0913677 1.07859
0 0.954425 0.124726 58.3295
0 0.953767 0.091341 0.353566
0 0.953623 0.0919168 5.35645
0 0.953745 0.0912651 1.98052
0 0.953255 0.121331 175.945
0 0.95339 0.0920408 3.39944
0 0.953473 0.124523 228.082
0 0.953824 0.0912058 1.31648
0 0.953813 0.091204 0.628047
0 0.953852 0.0910417 0.413883
0 0.954276 0.0924894 2.42405
0 0.954296 0.0922327 6.27817
0 0.953838 0.0910246 0.361129
0 0.953745 0.091183 0.571123
0 0.953761 0.0912425 0.511688
0 0.953823 0.0910475 0.389574
0 0.953888 0.0914541 1.47307
0 0.954041 0.0914668 1.86429
0 0.953813 0.0911957 0.409753
0 0.95386 0.0911618 0.231814
0 0.954352 0.124789 152.59
0 0.95381 0.0910743 0.82019
0 0.953648 0.0913044 1.51463
0 0.953771 0.0910969 1.54954
0 0.953437 0.0918561 7.38734
0 0.953573 0.0912615 0.42819
0 0.953464 0.124126 196.474
0 0.953498 0.0916958 3.07458
0 0.953671 0.125223 180.01
0 0.953881 0.0910037 0.20492
0 0.953848 0.091029 0.652865
0 0.953883 0.0910032 0.751453
0 0.954109 0.0915687 3.22828
0 0.954145 0.0922185 11.2591
0 0.954054 0.0915611 5.04119
0 0.953876 0.0910268 0.396288
0 0.953913 0.0910123 0.270149
0 0.953837 0.0910915 0.47921
0 0.953874 0.091025 0.306722
0 0.953918 0.0911264 1.2594
0 0.953976 0.0912441 2.32537
0 0.953875 0.0910236 0.169358
0 0.954083 0.121655 235.732
0 0.953823 0.0910149 1.16486
0 0.953732 0.0911163 0.832128
0 0.953559 0.0911999 0.865495
0 0.953677 0.0911565 0.56656
0 0.953555 0.0920344 6.18237
0 0.953578 0.0911661 1.3979
0 0.953738 0.124304 199.562
0 0.953689 0.0917292 7.11764
0 0.953919 0.0910006 0.219648
0 0.953872 0.0910038 0.700679
0 0.953912 0.0909995 0.32254
0 0.953852 0.0910162 0.712053
0 0.953624 0.122121 177.526
0 0.953921 0.0919389 9.35966
0 0.953954 0.0912496 3.05387
0 0.953932 0.0914117 4.54653
0 0.95391 0.0912434 3.34211
0 0.953939 0.0909998 0.209332
0 0.953915 0.091007 0.190579
0 0.953883 0.0910203 0.150194
0 0.953909 0.091008 0.110715
0 0.9539 0.0910516 1.4829
0 0.95389 0.0909939 0.350342
0 0.9539 0.122779 91.0944
0 0.953782 0.0910491 0.528306
0 0.953683 0.0911227 0.434159
0 0.953619 0.0912656 2.45575
0 0.953666 0.0911084 0.531324
0 0.953662 0.0916996 7.34786
0 0.953648 0.0911828 2.43988
0 0.953582 0.0916497 5.40403
0 0.953958 0.0910026 0.398408
0 0.953955 0.0909917 0.351228
0 0.953939 0.0910088 0.314919
0 0.953909 0.0910026 0.164608
0 0.953832 0.0910253 0.534338
0 0.953892 0.0910107 0.115281
0 0.953961 0.09101 0.577982
0 0.953559 0.120333 178.352
0 0.953878 0.0913658 4.64966
0 0.953826 0.0912121 3.2323
0 0.953865 0.0910514 1.75896
0 0.953833 0.0911085 2.40821
0 0.953933 0.0909915 0.166476
0 0.95391 0.0909906 0.123394
0 0.953878 0.0909959 0.780564
0 0.953897 0.0909839 0.35475
0 0.953798 0.0914731 6.18052
0 0.953952 0.12395 201.833
0 0.953763 0.0910594 0.917323
0 0.953696 0.0910741 0.412879
0 0.953633 0.0911188 2.11752
0 0.953688 0.0910534 0.522214
0 0.953597 0.0917511 2.88186
0 0.953629 0.091161 2.21703
0 0.953828 0.0910573 1.44426
0 0.95395 0.0909884 0.419952
0 0.953966 0.0909954 0.604241
0 0.953935 0.0910125 0.479869
0 0.953895 0.0910236 0.654819
0 0.953889 0.0910497 0.999408
0 0.953959 0.091008 0.694298
0 0.953968 0.0909958 0.750371
0 0.953521 0.0918323 6.91672
0 0.953579 0.123588 74.7476
0 0.95384 0.0910049 0.799571
0 0.953763 0.0910792 1.43236
0 0.953768 0.0910499 1.31684
0 0.953805 0.0910193 1.1851
0 0.953691 0.0912244 1.41019
0 0.95392 0.0909798 0.244
0 0.953885 0.0909883 0.383605
0 0.953938 0.0909875 0.478038
0 0.953843 0.0910332 0.519467
0 0.953642 0.0918839 4.5428
0 0.953707 0.123872 73.9157
0 0.953769 0.091058 1.43262
0 0.953707 0.0910444 0.212065
0 0.953621 0.0912084 1.49645
0 0.953698 0.0911008 0.297211
0 0.95362 0.091273 1.22431
0 0.953834 0.091051 1.04683
0 0.953957 0.0909823 0.683869
0 0.953935 0.0910244 0.80524
0 0.953903 0.0910659 1.26959
0 0.95396 0.0910055 0.743298
0 0.953959 0.0909932 0.743381
0 0.953521 0.0919202 6.39718
0 0.953401 0.120753 190.221
0 0.953796 0.0910651 0.784284
0 0.95372 0.0910998 0.387783
0 0.953755 0.0910666 0.741422
0 0.953662 0.0914619 3.84872
0 0.953693 0.0912829 2.01704
0 0.953908 0.0909835 0.393491
0 0.953877 0.0910175 0.487027
0 0.953928 0.0909859 0.556696
0 0.953842 0.0910455 0.353393
0 0.953793 0.0910904 0.590151
0 0.953711 0.0916207 5.62624
0 0.95366 0.0920464 7.44684
0 0.953628 0.123633 192.757
0 0.953781 0.0910596 0.935557
0 0.953722 0.0911245 0.441429
0 0.953622 0.0911875 1.6858
0 0.953711 0.091137 0.766206
0 0.953847 0.0910722 1.26861
0 0.953904 0.0910712 1.42892
0 0.953933 0.090994 0.590783
0 0.953939 0.0910306 1.05556
0 0.953957 0.0910092 0.874674
0 0.953936 0.0910097 0.904392
0 0.953949 0.0910059 0.941809
0 0.953577 0.0911765 2.25655
0 0.953619 0.0918946 10.661
0 0.953605 0.124464 62.0101
0 0.953744 0.0911483 1.02828
0 0.953709 0.091382 2.98829
0 0.953747 0.0914448 3.87468
0 0.953783 0.0911164 0.956543
0 0.953887 0.0909888 0.0517257
0 0.953837 0.0910621 0.438051
0 0.953831 0.0916213 5.6562
0 0.953817 0.0922091 9.52536
0 0.953727 0.124053 106.402
0 0.953794 0.0910775 1.2285
0 0.953719 0.091074 1.34685
0 0.953678 0.0910528 1.43117
0 0.953856 0.0910732 1.53408
0 0.953913 0.0910524 1.32807
0 0.953899 0.0910063 0.502593
0 0.953905 0.0910152 0.861192
0 0.953935 0.0910187 1.08257
0 0.95392 0.091017 1.16363
0 0.953481 0.0912364 2.49599
0 0.95335 0.0920192 10.4657
0 0.953519 0.125056 298.242
0 0.953768 0.0912145 1.72824
0 0.953811 0.091263 2.55346
0 0.953812 0.0911049 0.893712
0 0.953858 0.0910354 0.368398
0 0.953871 0.0911236 2.28376
0 0.953959 0.091479 4.66497
0 0.954075 0.0922658 9.67161
0 0.954025 0.125208 127.871
0 0.953799 0.0910577 1.45047
0 0.953703 0.0910933 0.558275
0 0.953863 0.0910597 1.36073
0 0.953906 0.0910474 1.30994
0 0.953865 0.0910203 0.410036
0 0.953875 0.0910164 0.697476
0 0.953903 0.0910314 1.30378
0 0.953883 0.0910208 1.16938
0 0.953722 0.0911983 0.549555
0 0.953515 0.0913407 1.31545
0 0.953167 0.0918472 0.627316
0 0.953024 0.121146 158.221
0 0.953816 0.0910797 0.74657
0 0.953832 0.0910646 0.596602
0 0.953883 0.0910875 1.6356
0 0.954039 0.0914257 3.7314
0 0.954258 0.092232 7.49618
0 0.954331 0.125689 215.014
0 0.953817 0.0910717 1.12636
0 0.953866 0.0910446 1.37321
0 0.953838 0.0910254 0.172043
0 0.953843 0.0910081 0.867175
0 0.953858 0.0910344 1.42172
0 0.953793 0.0911882 0.52742
0 0.953658 0.0914015 1.82889
0 0.953391 0.0919191 4.99515
0 0.953085 0.121106 197.959
0 0.95383 0.0910607 0.660875
0 0.953882 0.091212 2.19796
0 0.95403 0.0914048 2.1259
0 0.954316 0.0922792 4.12197
0 0.954476 0.128913 106.077
0 0.953838 0.0910482 1.33582
0 0.953813 0.0910675 1.07901
0 0.953822 0.0910447 1.50329
0 0.953825 0.0911681 0.849008
0 0.953788 0.0913628 2.73518
0 0.953702 0.0917589 4.64944
0 0.953489 0.123677 63.4429
0 0.953828 0.0911985 2.0015
0 0.953945 0.0914129 1.961
0 0.954174 0.0920703 3.23831
0 0.954429 0.127522 131.789
0 0.953772 0.0912015 1.58915
0 0.953825 0.0910715 1.10723
0 0.953767 0.0911118 1.51898
0 0.953788 0.0910757 1.41879
0 0.953851 0.0912576 2.0274
0 0.953876 0.0919104 6.86167
0 0.953848 0.125448 162.169
0 0.953802 0.0913498 1.5358
0 0.95399 0.0914483 0.965033
0 0.954153 0.125553 133.172
0 0.953692 0.0913124 1.54584
0 0.953819 0.0912222 1.84353
0 0.953715 0.0912548 1.6126
0 0.953957 0.0918202 8.33921
0 0.953972 0.123665 130.397
0 0.953688 0.0919412 1.90071
0 0.953925 0.126162 127.216
0 0.953522 0.0920022 0.853405
0 0.953816 0.0918827 3.29643
0 0.954019 0.124356 158.495
0 0.953425 0.121409 288.709
0 0.953605 0.125216 102.517
VECTORS fa_u float
0.00784076 0.00324871 -0
0.00480741 0.00279361 -0
0.00535725 0.00142286 -0
0.00622412 0.000855678 -0
1e-08 0 0
0.00534568 0.00407899 -0
0.00456341 0.00452863 -0
1e-08 0 0
1e-08 0 0
0.00370892 0.00474989 -0
0.00414445 0.00710391 -0
0.00663511 5.30734e-05 -0
0.00649637 -0.00079618 0
1e-08 0 0
1e-08 0 0
1e-08 0 0
1e-08 0 0
1e-08 0 0
1e-08 0 0
1e-08 0 0
1e-08 0 0
0.00239129 0.00578048 -0
0.00185627 0.00695397 -0
1e-08 0 0
1e-08 0 0
1e-08 0 0
0.00762623 -0.00201044 0
1e-08 0 0
0.00727229 -0.00307691 0
1e-08 0 0
1e-08 0 0
1e-08 0 0
0.000841875 0.00654736 -0
1e-08 0 0
1e-08 0 0
1e-08 0 0
1e-08 0 0
1e-08 0 0
1e-08 0 0
1e-08 0 0
1e-08 0 0
1e-08 0 0
1e-08 0 0
-4.37185e-05 0.0073686 -0
1e-08 0 0
1e-08 0 0
1e-08 0 0
0.00543526 -0.0032229 0
1e-08 0 0
0.00481283 -0.00374465 0
1e-08 0 0
1e-08 0 0
1e-08 0 0
1e-08 0 0
1e-08 0 0
1e-08 0 0
1e-08 0 0
1e-08 0 0
1e-08 0 0
1e-08 0 0
1e-08 0 0
1e-08 0 0
1e-08 0 0
-0.000906634 0.00646094 0
1e-08 0 0
1e-08 0 0
1e-08 0 0
1e-08 0 0
1e-08 0 0
0.00448132 -0.00450174 0
1e-08 0 0
0.00316347 -0.00405901 0
1e-08 0 0
1e-08 0 0
1e-08 0 0
1e-08 0 0
1e-08 0 0
1e-08 0 0
1e-08 0 0
1e-08 0 0
1e-08 0 0
1e-08 0 0
1e-08 0 0
1e-08 0 0
1e-08 0 0
-0.00129338 0.00485048 0
1e-08 0 0
1e-08 0 0
1e-08 0 0
1e-08 0 0
1e-08 0 0
1e-08 0 0
0.00396618 -0.00670706 0
1e-08 0 0
1e-08 0 0
1e-08 0 0
1e-08 0 0
1e-08 0 0
0.00313411 -0.007612 0
1e-08 0 0
1e-08 0 0
1e-08 0 0
1e-08 0 0
1e-08 0 0
1e-08 0 0
1e-08 0 0
1e-08 0 0
1e-08 0 0
1e-08 0 0
-0.00286845 0.00703811 0
1e-08 0 0
1e-08 0 0
1e-08 0 0
1e-08 0 0
1e-08 0 0
1e-08 0 0
1e-08 0 0
1e-08 0 0
1e-08 0 0
1e-08 0 0
1e-08 0 0
1e-08 0 0
1e-08 0 0
1e-08 0 0
0.00151289 -0.0057786 0
1e-08 0 0
1e-08 0 0
1e-08 0 0
1e-08 0 0
1e-08 0 0
1e-08 0 0
1e-08 0 0
1e-08 0 0
1e-08 0 0
-0.00365345 0.00630353 0
1e-08 0 0
1e-08 0 0
1e-08 0 0
1e-08 0 0
1e-08 0 0
1e-08 0 0
1e-08 0 0
1e-08 0 0
1e-08 0 0
1e-08 0 0
1e-08 0 0
1e-08 0 0
1e-08 0 0
1e-08 0 0
1e-08 0 0
0.000749115 -0.00553798 0
1e-08 0 0
1e-08 0 0
1e-08 0 0
1e-08 0 0
1e-08 0 0
1e-08 0 0
1e-08 0 0
1e-08 0 0
1e-08 0 0
1e-08 0 0
-0.00409294 0.00528348 0
1e-08 0 0
1e-08 0 0
1e-08 0 0
1e-08 0 0
1e-08 0 0
1e-08 0 0
1e-08 0 0
1e-08 0 0
1e-08 0 0
1e-08 0 0
1e-08 0 0
1e-08 0 0
4.23886e-05 -0.00734317 0
1e-08 0 0
1e-08 0 0
1e-08 0 0
1e-08 0 0
1e-08 0 0
1e-08 0 0
1e-08 0 0
1e-08 0 0
1e-08 0 0
1e-08 0 0
1e-08 0 0
1e-08 0 0
-0.00371672 0.00373779 0
1e-08 0 0
1e-08 0 0
1e-08 0 0
1e-08 0 0
1e-08 0 0
1e-08 0 0
1e-08 0 0
1e-08 0 0
1e-08 0 0
1e-08 0 0
1e-08 0 0
1e-08 0 0
1e-08 0 0
-0.000897444 -0.00688332 0
1e-08 0 0
1e-08 0 0
1e-08 0 0
1e-08 0 0
1e-08 0 0
1e-08 0 0
1e-08 0 0
1e-08 0 0
-0.00506301 0.0039775 0
1e-08 0 0
1e-08 0 0
1e-08 0 0
1e-08 0 0
1e-08 0 0
1e-08 0 0
1e-08 0 0
1e-08 0 0
1e-08 0 0
1e-08 0 0
1e-08 0 0
-0.00161385 -0.00606901 0
1e-08 0 0
1e-08 0 0
1e-08 0 0
1e-08 0 0
1e-08 0 0
1e-08 0 0
1e-08 0 0
-0.00659777 0.00387969 0
1e-08 0 0
1e-08 0 0
1e-08 0 0
1e-08 0 0
1e-08 0 0
1e-08 0 0
1e-08 0 0
1e-08 0 0
1e-08 0 0
1e-08 0 0
1e-08 0 0
-0.00279 -0.00675087 0
1e-08 0 0
1e-08 0 0
1e-08 0 0
1e-08 0 0
1e-08 0 0
-0.00746369 0.0030639 0
1e-08 0 0
1e-08 0 0
1e-08 0 0
1e-08 0 0
1e-08 0 0
1e-08 0 0
1e-08 0 0
1e-08 0 0
-0.00338522 -0.00583051 0
1e-08 0 0
1e-08 0 0
1e-08 0 0
1e-08 0 0
-0.00540796 0.00142516 0
1e-08 0 0
1e-08 0 0
1e-08 0 0
1e-08 0 0
1e-08 0 0
1e-08 0 0
-0.00480529 -0.00615758 0
1e-08 0 0
1e-08 0 0
1e-08 0 0
-0.00722255 0.000940141 0
1e-08 0 0
1e-08 0 0
1e-08 0 0
1e-08 0 0
1e-08 0 0
1e-08 0 0
-0.00330056 -0.00328371 0
1e-08 0 0
1e-08 0 0
-0.00687771 -3.66977e-05 0
1e-08 0 0
1e-08 0 0
1e-08 0 0
1e-08 0 0
-0.00639159 -0.00492342 0
1e-08 0 0
-0.00655066 -0.000902881 0
1e-08 0 0
1e-08 0 0
-0.0052775 -0.00303501 0
-0.00514755 -0.00137088 0
-0.00714471 -0.00292877 0
