# vtk DataFile Version 2.0
CellBP Time: 11.12
ASCII
DATASET UNSTRUCTURED_GRID
POINTS 296 double
-8.92403 -3.66121 0
-8.35944 -4.80261 0
-9.32607 -2.45258 0
-9.59116 -1.21483 0
-8.25914 -2.77483 0
-7.6568 -5.86689 0
-6.81011 -6.81893 0
-7.81886 -3.8195 0
-7.24867 -4.80724 0
-5.86708 -7.66701 0
-4.81837 -8.3756 0
-9.67369 0.0468761 0
-9.6076 1.3169 0
-8.56658 -1.65832 0
-8.70225 -0.521403 0
-7.49418 -1.9694 0
-7.12764 -2.85845 0
-6.56152 -5.71937 0
-5.76445 -6.53899 0
-6.69605 -3.83094 0
-6.13878 -4.61725 0
-3.67813 -8.93969 0
-2.47077 -9.35478 0
-4.86724 -7.25213 0
-3.89129 -7.83098 0
-8.71608 0.634398 0
-9.36338 2.57195 0
-8.55422 1.75327 0
-8.95503 3.77857 0
-7.65554 -0.910834 0
-7.71193 0.0833191 0
-6.86733 -1.29204 0
-1.21524 -9.59485 0
-6.36356 -2.12046 0
-6.24006 -3.01145 0
-5.47114 -5.41704 0
-4.746 -6.05907 0
-5.5887 -3.70892 0
-5.20173 -4.50702 0
-2.84835 -8.30346 0
-1.76337 -8.57457 0
-3.89499 -6.6685 0
-3.03836 -7.09899 0
0.0523529 -9.67408 0
-7.62901 1.13107 0
-8.27972 2.89409 0
-7.48108 2.0868 0
-8.37686 4.91191 0
-7.8117 3.94183 0
-7.65351 5.96062 0
-6.70126 -0.387091 0
-6.87941 0.549945 0
-5.71308 -0.991084 0
-0.58472 -8.73592 0
0.555672 -8.68686 0
-5.2484 -2.4499 0
-4.43669 -5.04066 0
-3.86036 -5.72053 0
-4.39322 -3.76517 0
-2.04676 -7.50293 0
-1.12681 -7.72007 0
-2.96685 -6.0488 0
-2.29301 -6.56662 0
1.31374 -9.57953 0
-6.62188 1.40554 0
-7.10037 3.08412 0
-6.593 2.34694 0
-7.2228 4.93822 0
-6.65024 3.9587 0
-6.81911 6.9158 0
-6.50666 5.83193 0
-5.86638 7.75917 0
-4.42226 -1.17407 0
-5.76198 0.504884 0
-4.62482 -0.01705 0
0.00167013 -7.77182 0
1.71157 -8.54955 0
0.928709 -7.67887 0
-4.01004 -2.38594 0
-3.47444 -1.38691 0
-3.26551 -4.76252 0
-3.24744 -3.24295 0
-1.37192 -6.6154 0
-0.512433 -6.95592 0
-1.96196 -5.49342 0
2.56011 -9.33023 0
-5.45748 2.019 0
-6.03356 3.03759 0
-6.04241 4.81429 0
-5.70185 3.94338 0
-5.70235 6.64344 0
-5.39494 5.55393 0
-4.81611 8.47681 0
-4.78738 7.32031 0
-3.48663 -0.423188 0
-4.41601 1.23952 0
-3.69013 0.588772 0
-4.02999 2.30905 0
-3.68057 9.0441 0
2.81889 -8.22925 0
0.402082 -6.71871 0
1.98586 -7.43244 0
1.27677 -6.82049 0
-2.43886 -0.869167 0
-2.82914 -2.12059 0
-2.28279 -4.06783 0
-2.31609 -2.95546 0
-0.445949 -5.80441 0
-1.21312 -4.46778 0
3.76756 -8.92872 0
-4.74472 3.35918 0
-5.03491 4.53975 0
-4.59661 6.20588 0
-4.49046 5.29556 0
-3.80847 7.91477 0
-3.7828 6.76094 0
-2.75378 8.33511 0
-1.6466 -0.13366 0
-1.44694 -0.886543 0
-2.48401 0.511068 0
-3.23511 1.44067 0
-3.21429 3.29372 0
-2.89352 2.36642 0
-1.35491 0.63122 0
-2.47091 9.44105 0
3.87912 -7.78823 0
2.91381 -7.05706 0
0.933321 -5.75581 0
2.03625 -6.33079 0
-1.67703 -1.98542 0
-1.42666 -3.25843 0
0.0862643 -4.70581 0
-0.559866 -3.67269 0
4.87055 -7.22515 0
4.90579 -8.36569 0
-3.74125 4.50529 0
-3.69556 5.68592 0
-2.85343 7.20474 0
-2.97729 6.28139 0
-1.64489 8.65078 0
-1.9163 7.5394 0
-2.32296 4.02155 0
-0.728523 -1.32373 0
-0.836411 -0.253928 0
-1.93398 1.68389 0
-2.1169 2.86641 0
-1.30377 3.52824 0
-0.871972 1.35469 0
-0.28471 0.459277 0
-0.527663 8.79606 0
-1.21967 9.68742 0
1.09702 -4.52904 0
3.84824 -6.61479 0
2.94035 -6.00907 0
2.08486 -5.35729 0
4.72231 -6.11621 0
-0.554938 -2.46756 0
0.493287 -3.44204 0
0.0542189 -1.60751 0
1.46652 -3.64933 0
5.80287 -6.53187 0
5.96007 -7.65231 0
-2.45332 5.29597 0
-2.10509 6.46351 0
-0.891461 7.72978 0
-1.25347 6.85984 0
0.0884438 7.8134 0
-1.13836 4.46313 0
0.148817 -0.6147 0
-0.801806 2.48906 0
-0.337369 3.58818 0
0.0581563 1.51456 0
0.736694 0.474503 0
0.640382 8.80686 0
0.0469416 9.77964 0
2.35132 -4.23583 0
3.80583 -5.55896 0
2.95911 -5.14297 0
5.51388 -5.42049 0
4.63278 -5.20531 0
0.630134 -2.28855 0
1.2477 -2.93288 0
0.755858 -1.38915 0
2.14526 -3.10944 0
2.96452 -3.44033 0
6.09762 -4.73579 0
6.59422 -5.70621 0
6.92129 -6.8136 0
-1.00795 5.76716 0
-0.362853 6.818 0
1.11461 7.7105 0
0.557639 7.01984 0
-0.00378297 4.69541 0
0.598865 3.81 0
1.33471 -0.641339 0
0.531831 2.64512 0
0.958966 1.57481 0
1.90323 0.212652 0
1.60701 1.06385 0
2.11631 7.52885 0
1.78728 8.64988 0
1.31795 9.69527 0
3.77953 -4.29533 0
5.06111 -4.3864 0
5.7918 -3.88693 0
3.74966 -3.16711 0
1.80481 -1.87908 0
2.99649 -2.55511 0
6.72885 -3.90956 0
7.32282 -4.85282 0
7.76509 -5.86445 0
0.481886 5.83489 0
1.4199 6.68976 0
2.35997 6.62048 0
1.20018 4.52923 0
1.47849 3.38093 0
2.42475 -0.690366 0
2.81485 0.142716 0
1.77932 2.15721 0
2.60177 1.14685 0
3.05369 7.11872 0
2.88857 8.31874 0
2.57325 9.457 0
4.8659 -3.28713 0
6.07 -3.07426 0
4.14206 -2.25777 0
3.22512 -1.49659 0
6.68352 -2.2955 0
7.18104 -3.02075 0
7.91 -3.88686 0
8.47682 -4.81741 0
2.01166 5.56 0
3.05784 6.10389 0
2.35212 4.10008 0
2.4087 3.04415 0
3.50556 -0.456944 0
3.59649 0.614156 0
2.94639 2.27629 0
3.52325 1.51798 0
3.96908 5.84619 0
3.95083 6.74001 0
3.95138 7.88407 0
3.78116 9.04356 0
5.5284 -1.90016 0
4.47974 -1.12093 0
6.66284 -1.32459 0
7.53885 -2.0201 0
8.33999 -2.84268 0
9.04782 -3.68282 0
3.38378 4.83498 0
3.31154 3.35939 0
4.65933 0.132506 0
4.48127 1.29911 0
4.0276 2.42242 0
4.51304 5.10031 0
4.7932 6.13634 0
4.94023 7.32394 0
4.92451 8.48465 0
5.83483 -0.43332 0
6.95066 -0.487225 0
7.70196 -1.07319 0
8.6238 -1.73027 0
9.44847 -2.46994 0
4.49945 3.78838 0
5.75868 1.08197 0
5.30913 2.50386 0
5.30768 4.56733 0
5.54541 5.468 0
5.83841 6.61393 0
5.96843 7.76853 0
6.77773 0.450926 0
7.78552 -0.0276514 0
8.79375 -0.574904 0
9.70633 -1.21676 0
6.8832 1.32524 0
5.64573 3.73148 0
6.46149 2.16303 0
6.29631 3.04393 0
6.20885 4.63074 0
6.61605 5.77884 0
6.91609 6.92251 0
7.70745 0.951853 0
8.78184 0.566693 0
9.77842 0.0539752 0
7.53002 1.9738 0
6.73183 3.84803 0
7.17574 2.90235 0
7.29203 4.83109 0
7.76526 5.97098 0
8.63494 1.70443 0
9.6846 1.31652 0
8.32313 2.79906 0
7.89096 3.86962 0
8.46677 4.90862 0
9.43641 2.56395 0
9.02871 3.76865 0
CELLS 542 2168
3 2 0 4
3 0 1 7
3 4 0 7
3 1 5 8
3 7 1 8
3 3 2 13
3 13 2 4
3 11 3 14
3 14 3 13
3 13 4 15
3 4 7 16
3 15 4 16
3 5 6 17
3 8 5 17
3 6 9 18
3 17 6 18
3 7 8 19
3 16 7 19
3 8 17 20
3 19 8 20
3 9 10 23
3 18 9 23
3 10 21 24
3 23 10 24
3 12 11 25
3 25 11 14
3 26 12 27
3 27 12 25
3 14 13 29
3 29 13 15
3 25 14 30
3 30 14 29
3 29 15 31
3 15 16 33
3 31 15 33
3 16 19 34
3 33 16 34
3 17 18 35
3 20 17 35
3 18 23 36
3 35 18 36
3 19 20 37
3 34 19 37
3 20 35 38
3 37 20 38
3 21 22 39
3 24 21 39
3 22 32 40
3 39 22 40
3 23 24 41
3 36 23 41
3 24 39 42
3 41 24 42
3 27 25 44
3 44 25 30
3 28 26 45
3 45 26 27
3 45 27 46
3 46 27 44
3 47 28 48
3 48 28 45
3 30 29 50
3 50 29 31
3 44 30 51
3 51 30 50
3 50 31 52
3 31 33 52
3 32 43 53
3 40 32 53
3 53 43 54
3 33 34 55
3 34 37 55
3 33 55 52
3 35 36 56
3 38 35 56
3 36 41 57
3 56 36 57
3 37 38 58
3 38 56 58
3 37 58 55
3 39 40 59
3 42 39 59
3 40 53 60
3 59 40 60
3 41 42 61
3 57 41 61
3 42 59 62
3 61 42 62
3 43 63 54
3 46 44 64
3 64 44 51
3 48 45 65
3 65 45 46
3 65 46 66
3 66 46 64
3 49 47 67
3 67 47 48
3 67 48 68
3 68 48 65
3 69 49 70
3 70 49 67
3 52 55 72
3 64 51 73
3 51 50 73
3 50 52 73
3 73 52 74
3 74 52 72
3 53 54 75
3 60 53 75
3 54 63 76
3 54 76 77
3 75 54 77
3 55 58 78
3 72 55 78
3 72 78 79
3 56 57 80
3 57 61 80
3 56 80 58
3 58 80 81
3 78 58 81
3 59 60 82
3 62 59 82
3 60 75 83
3 82 60 83
3 61 62 84
3 62 82 84
3 61 84 80
3 63 85 76
3 66 64 86
3 64 73 86
3 68 65 87
3 87 65 66
3 87 66 86
3 70 67 88
3 88 67 68
3 88 68 89
3 89 68 87
3 71 69 90
3 90 69 70
3 90 70 91
3 91 70 88
3 92 71 93
3 93 71 90
3 74 72 94
3 94 72 79
3 86 73 95
3 95 73 74
3 95 74 96
3 96 74 94
3 97 86 95
3 76 85 99
3 75 77 100
3 83 75 100
3 76 99 101
3 77 76 101
3 77 101 102
3 100 77 102
3 94 79 103
3 78 81 104
3 79 78 104
3 79 104 103
3 80 84 105
3 81 80 105
3 81 105 106
3 104 81 106
3 82 83 107
3 83 100 107
3 82 107 84
3 84 107 108
3 105 84 108
3 85 109 99
3 89 87 110
3 87 86 110
3 110 86 97
3 91 88 111
3 111 88 89
3 111 89 110
3 93 90 112
3 112 90 91
3 112 91 113
3 113 91 111
3 98 92 114
3 114 92 93
3 114 93 115
3 115 93 112
3 116 98 114
3 117 103 118
3 96 94 119
3 94 103 119
3 119 103 117
3 97 95 120
3 120 95 96
3 120 96 119
3 121 110 97
3 121 97 122
3 122 97 120
3 123 119 117
3 124 98 116
3 99 109 125
3 99 125 126
3 101 99 126
3 100 102 127
3 100 127 107
3 101 126 128
3 102 101 128
3 102 128 127
3 104 106 129
3 104 129 103
3 103 129 118
3 105 108 130
3 106 105 130
3 106 130 129
3 107 127 131
3 108 107 131
3 108 131 132
3 108 132 130
3 109 134 125
3 125 134 133
3 113 111 135
3 111 110 135
3 135 110 121
3 115 112 136
3 136 112 113
3 136 113 135
3 116 114 137
3 137 114 115
3 137 115 138
3 138 115 136
3 139 124 116
3 139 116 140
3 140 116 137
3 141 135 121
3 118 129 142
3 118 142 143
3 117 118 143
3 123 117 143
3 122 120 144
3 120 119 144
3 144 119 123
3 141 121 145
3 145 121 122
3 145 122 144
3 146 141 145
3 147 144 123
3 147 123 148
3 143 148 123
3 150 124 139
3 149 150 139
3 131 127 151
3 125 133 152
3 126 125 152
3 126 152 153
3 128 126 153
3 128 153 154
3 128 154 127
3 127 154 151
3 152 133 155
3 130 132 156
3 130 156 129
3 129 156 142
3 131 151 157
3 132 131 157
3 132 157 156
3 156 158 142
3 157 151 159
3 133 160 155
3 134 161 133
3 133 161 160
3 138 136 162
3 136 135 162
3 162 135 141
3 140 137 163
3 163 137 138
3 163 138 162
3 149 139 164
3 164 139 140
3 164 140 165
3 165 140 163
3 166 149 164
3 167 162 141
3 167 141 146
3 142 158 168
3 143 142 168
3 143 168 148
3 146 145 169
3 145 144 169
3 169 144 147
3 170 167 146
3 170 146 169
3 171 169 147
3 171 147 148
3 171 148 172
3 168 172 148
3 173 149 166
3 174 150 149
3 173 174 149
3 154 175 151
3 151 175 159
3 152 155 176
3 153 152 176
3 153 176 177
3 153 177 154
3 154 177 175
3 155 160 178
3 155 178 179
3 176 155 179
3 156 157 180
3 156 180 158
3 157 159 181
3 157 181 180
3 158 180 182
3 158 182 168
3 159 175 183
3 159 183 181
3 175 184 183
3 160 186 178
3 178 186 185
3 161 187 160
3 160 187 186
3 165 163 188
3 163 162 188
3 188 162 167
3 166 164 189
3 189 164 165
3 189 165 188
3 190 173 166
3 190 166 191
3 191 166 189
3 192 188 167
3 192 167 170
3 193 192 170
3 182 194 168
3 194 172 168
3 193 170 195
3 170 169 195
3 195 169 171
3 196 195 171
3 196 171 172
3 194 197 172
3 197 198 172
3 198 196 172
3 200 173 190
3 199 200 190
3 201 174 173
3 200 201 173
3 176 179 202
3 177 176 202
3 177 202 175
3 175 202 184
3 178 185 203
3 178 203 179
3 179 203 202
3 203 185 204
3 202 205 184
3 183 206 181
3 180 181 206
3 180 206 182
3 182 206 194
3 183 184 207
3 205 207 184
3 183 207 206
3 185 208 204
3 186 209 185
3 185 209 208
3 187 210 186
3 186 210 209
3 191 189 211
3 189 188 211
3 211 188 192
3 199 190 212
3 212 190 191
3 212 191 211
3 213 199 212
3 214 211 192
3 214 192 193
3 215 214 193
3 215 193 195
3 206 216 194
3 216 197 194
3 216 217 197
3 215 195 218
3 218 195 196
3 198 218 196
3 217 219 197
3 219 218 198
3 197 219 198
3 220 199 213
3 221 200 199
3 220 221 199
3 222 201 200
3 221 222 200
3 203 204 223
3 203 223 202
3 202 223 205
3 204 208 224
3 204 224 223
3 205 223 225
3 205 225 207
3 207 225 226
3 207 226 206
3 226 216 206
3 208 228 224
3 224 228 227
3 209 229 208
3 229 228 208
3 210 230 209
3 209 230 229
3 213 212 231
3 212 211 231
3 231 211 214
3 232 220 213
3 232 213 231
3 233 231 214
3 233 214 215
3 234 233 215
3 234 215 218
3 226 235 216
3 235 217 216
3 235 236 217
3 217 236 219
3 237 234 218
3 237 218 219
3 236 238 219
3 238 237 219
3 240 220 232
3 239 240 232
3 241 221 220
3 240 241 220
3 242 222 221
3 241 242 221
3 224 227 243
3 224 243 223
3 223 243 225
3 225 243 244
3 225 244 226
3 226 244 235
3 227 245 243
3 228 246 227
3 227 246 245
3 229 247 228
3 228 247 246
3 230 248 229
3 229 248 247
3 239 232 249
3 232 231 249
3 249 231 233
3 250 249 233
3 250 233 234
3 237 250 234
3 244 251 235
3 235 251 236
3 251 252 236
3 236 252 238
3 252 253 238
3 253 250 237
3 253 237 238
3 254 239 249
3 255 240 239
3 254 255 239
3 256 241 240
3 255 256 240
3 257 242 241
3 256 257 241
3 245 258 243
3 243 258 244
3 244 258 251
3 245 259 258
3 246 260 245
3 245 260 259
3 247 261 246
3 246 261 260
3 248 262 247
3 247 262 261
3 254 249 263
3 263 249 250
3 253 263 250
3 258 264 251
3 251 264 252
3 264 265 252
3 265 263 253
3 252 265 253
3 266 254 263
3 267 255 254
3 266 267 254
3 268 256 255
3 267 268 255
3 269 257 256
3 268 269 256
3 259 270 258
3 270 264 258
3 260 271 259
3 259 271 270
3 261 272 260
3 260 272 271
3 262 273 261
3 273 272 261
3 270 274 264
3 275 266 263
3 275 263 265
3 274 276 264
3 276 265 264
3 276 277 265
3 277 275 265
3 278 267 266
3 275 278 266
3 279 268 267
3 278 279 267
3 280 269 268
3 279 280 268
3 271 281 270
3 270 281 274
3 272 282 271
3 271 282 281
3 273 283 272
3 272 283 282
3 281 284 274
3 274 284 276
3 285 278 275
3 277 285 275
3 284 286 276
3 286 285 277
3 276 286 277
3 287 279 278
3 285 287 278
3 288 280 279
3 287 288 279
3 282 289 281
3 281 289 284
3 283 290 282
3 282 290 289
3 289 291 284
3 284 291 286
3 291 292 286
3 292 287 285
3 286 292 285
3 293 288 287
3 292 293 287
3 290 294 289
3 289 294 291
3 294 295 291
3 295 293 292
3 291 295 292
CELL_TYPES 542
5
5
5
5
5
5
5
5
5
5
5
5
5
5
5
5
5
5
5
5
5
5
5
5
5
5
5
5
5
5
5
5
5
5
5
5
5
5
5
5
5
5
5
5
5
5
5
5
5
5
5
5
5
5
5
5
5
5
5
5
5
5
5
5
5
5
5
5
5
5
5
5
5
5
5
5
5
5
5
5
5
5
5
5
5
5
5
5
5
5
5
5
5
5
5
5
5
5
5
5
5
5
5
5
5
5
5
5
5
5
5
5
5
5
5
5
5
5
5
5
5
5
5
5
5
5
5
5
5
5
5
5
5
5
5
5
5
5
5
5
5
5
5
5
5
5
5
5
5
5
5
5
5
5
5
5
5
5
5
5
5
5
5
5
5
5
5
5
5
5
5
5
5
5
5
5
5
5
5
5
5
5
5
5
5
5
5
5
5
5
5
5
5
5
5
5
5
5
5
5
5
5
5
5
5
5
5
5
5
5
5
5
5
5
5
5
5
5
5
5
5
5
5
5
5
5
5
5
5
5
5
5
5
5
5
5
5
5
5
5
5
5
5
5
5
5
5
5
5
5
5
5
5
5
5
5
5
5
5
5
5
5
5
5
5
5
5
5
5
5
5
5
5
5
5
5
5
5
5
5
5
5
5
5
5
5
5
5
5
5
5
5
5
5
5
5
5
5
5
5
5
5
5
5
5
5
5
5
5
5
5
5
5
5
5
5
5
5
5
5
5
5
5
5
5
5
5
5
5
5
5
5
5
5
5
5
5
5
5
5
5
5
5
5
5
5
5
5
5
5
5
5
5
5
5
5
5
5
5
5
5
5
5
5
5
5
5
5
5
5
5
5
5
5
5
5
5
5
5
5
5
5
5
5
5
5
5
5
5
5
5
5
5
5
5
5
5
5
5
5
5
5
5
5
5
5
5
5
5
5
5
5
5
5
5
5
5
5
5
5
5
5
5
5
5
5
5
5
5
5
5
5
5
5
5
5
5
5
5
5
5
5
5
5
5
5
5
5
5
5
5
5
5
5
5
5
5
5
5
5
5
5
5
5
5
5
5
5
5
5
5
5
5
5
5
5
5
5
5
5
5
5
5
5
5
5
5
5
5
5
5
5
5
5
5
5
5
5
5
5
5
5
5
5
5
5
5
5
5
5
5
5
5
5
5
5
5
5
5
5
5
5
5
5
5
5
5
5
5
5
5
5
5
5
5
5
5
5
5
5
5
5
POINT_DATA 296
SCALARS concentrations float 4
LOOKUP_TABLE default
0 0.945359 0.100503 107.569
0 0.945543 0.104557 55.2725
0 0.945222 0.0998863 11.3029
0 0.945081 0.097519 3.96648
0 0.945273 0.092145 8.52934
0 0.945325 0.105176 24.2786
0 0.945249 0.0963714 26.7843
0 0.945408 0.0920674 10.6575
0 0.945396 0.0927164 8.67795
0 0.945346 0.104816 103.196
0 0.945523 0.101514 79.0392
0 0.94497 0.0978631 14.5529
0 0.944974 0.109636 7.84045
0 0.945184 0.0920688 1.18746
0 0.945099 0.0921568 4.09189
0 0.945266 0.0912245 3.22405
0 0.945312 0.0914324 3.96388
0 0.945265 0.0928931 6.29739
0 0.945285 0.0929979 13.1961
0 0.945323 0.0913769 3.68723
0 0.945302 0.0914738 3.43595
0 0.945512 0.100805 90.1121
0 0.945661 0.1033 62.1589
0 0.945404 0.0933635 16.5343
0 0.94546 0.0924455 7.83338
0 0.945045 0.0926943 10.7444
0 0.945351 0.109039 81.8231
0 0.945229 0.0929684 11.4345
0 0.945396 0.101288 92.9068
0 0.945235 0.0912182 2.99724
0 0.945221 0.0914536 3.92674
0 0.945326 0.0911433 2.279
0 0.945564 0.0983374 53.3526
0 0.945337 0.0911222 1.5275
0 0.945326 0.0911283 1.42652
0 0.945285 0.0918301 4.86813
0 0.945326 0.091782 5.15824
0 0.945328 0.0910557 1.18512
0 0.945313 0.0913162 2.88669
0 0.945504 0.0925695 6.1375
0 0.945552 0.0924123 2.3455
0 0.945369 0.0917268 5.57653
0 0.945404 0.0914126 2.60447
0 0.945391 0.0974669 77.302
0 0.94528 0.0914707 3.05471
0 0.94542 0.0921179 7.26659
0 0.9454 0.0914143 2.52617
0 0.945591 0.0978762 59.0011
0 0.945515 0.0920448 6.82628
0 0.945734 0.0976426 112.71
0 0.945352 0.0911241 2.42593
0 0.945366 0.0911224 2.52277
0 0.945402 0.0910699 0.685948
0 0.945425 0.0921305 1.06804
0 0.945447 0.0924932 1.14822
0 0.945374 0.091074 0.200029
0 0.945328 0.0913853 3.62281
0 0.945344 0.0913968 3.6061
0 0.945361 0.0910639 1.62255
0 0.945417 0.0913574 1.56932
0 0.945409 0.0915421 1.58843
0 0.945368 0.0911943 2.13456
0 0.945382 0.0910861 0.729525
0 0.945581 0.100289 14.8365
0 0.945448 0.0910385 1.56236
0 0.945524 0.091384 0.251477
0 0.945513 0.0911177 0.666368
0 0.945664 0.0920416 0.740603
0 0.945613 0.0913495 1.30779
0 0.945813 0.0996154 77.8166
0 0.945765 0.0918655 5.49997
0 0.945498 0.101856 98.7435
0 0.945428 0.0910474 0.518835
0 0.945459 0.0910624 0.627007
0 0.945468 0.0910693 0.476211
0 0.945412 0.0915588 0.997301
0 0.945681 0.0923795 5.58791
0 0.945514 0.0914576 2.10851
0 0.945406 0.0910474 0.821543
0 0.945451 0.0910364 0.788615
0 0.945371 0.0911014 2.03183
0 0.945398 0.0910057 1.16231
0 0.945392 0.0911493 0.89761
0 0.945402 0.0912832 1.13971
0 0.945393 0.090964 0.566808
0 0.945887 0.0999426 93.9886
0 0.945535 0.0910225 0.547468
0 0.945584 0.0911509 0.598983
0 0.945683 0.0915047 1.59029
0 0.945633 0.0912509 0.680038
0 0.945657 0.0923201 10.388
0 0.94567 0.0914718 3.36452
0 0.945311 0.101725 81.9573
0 0.945439 0.0919654 8.84485
0 0.945481 0.091034 0.547116
0 0.945516 0.0910507 0.608984
0 0.945507 0.0910446 0.538735
0 0.94556 0.0910432 0.673125
0 0.945091 0.1043 30.3245
0 0.945852 0.092036 9.50893
0 0.945447 0.0912496 1.42456
0 0.945645 0.0913669 2.96793
0 0.945527 0.0912631 2.02292
0 0.945482 0.0910086 0.455472
0 0.945444 0.091012 0.827447
0 0.945407 0.0909851 1.02648
0 0.945434 0.0909888 0.793328
0 0.945425 0.0910714 0.754155
0 0.945427 0.0909781 0.342788
0 0.945931 0.0979903 33.3662
0 0.945592 0.0910596 1.00977
0 0.945635 0.0912204 1.16768
0 0.945575 0.0912724 1.71636
0 0.945611 0.0911586 0.927944
0 0.945265 0.0919591 6.64392
0 0.945438 0.0911381 0.340537
0 0.945139 0.0920244 5.78827
0 0.945508 0.0910026 0.286104
0 0.945492 0.0910015 0.192679
0 0.945514 0.0910139 0.491235
0 0.945537 0.0910403 0.67675
0 0.945572 0.0910549 0.954956
0 0.945555 0.0910418 0.861275
0 0.945524 0.090999 0.371068
0 0.945063 0.0993703 17.4824
0 0.945779 0.0919256 8.07106
0 0.945705 0.0913163 3.57836
0 0.945491 0.091095 1.37631
0 0.945586 0.0911722 1.95115
0 0.945468 0.0910113 0.435965
0 0.945446 0.0909779 0.380887
0 0.945462 0.0910049 0.59
0 0.94546 0.0909757 0.0483354
0 0.945679 0.0920253 7.27516
0 0.9457 0.100477 23.0575
0 0.945577 0.0910465 0.811355
0 0.945538 0.091067 0.367967
0 0.94532 0.0912662 1.39615
0 0.945453 0.0911102 0.346606
0 0.945083 0.0919431 6.0536
0 0.945228 0.0912826 1.97446
0 0.945543 0.0910996 1.12798
0 0.945494 0.0910067 0.240136
0 0.945511 0.0909941 0.120607
0 0.945537 0.0910146 0.672968
0 0.945547 0.0910571 1.03873
0 0.945528 0.0910486 0.860397
0 0.94553 0.0909866 0.505718
0 0.945521 0.090981 0.346202
0 0.94503 0.0919673 3.84065
0 0.944975 0.0976648 118.895
0 0.945508 0.0910322 1.17176
0 0.945702 0.0911321 2.38382
0 0.945636 0.0910703 1.63698
0 0.94555 0.0910507 1.64987
0 0.945675 0.0912827 4.60543
0 0.945478 0.0910003 0.300977
0 0.945486 0.0910008 0.569476
0 0.945498 0.091008 0.411164
0 0.945519 0.0910561 1.23847
0 0.945646 0.0917288 8.51186
0 0.94566 0.0988684 60.0788
0 0.9455 0.0910847 0.81414
0 0.945391 0.0910687 0.391699
0 0.945171 0.0912929 2.61126
0 0.945315 0.0910883 1.19845
0 0.94517 0.0912763 3.17382
0 0.945493 0.0910141 0.502333
0 0.945512 0.0909795 0.268525
0 0.945528 0.0909985 0.718615
0 0.945504 0.0909838 0.467335
0 0.945521 0.0909899 0.646978
0 0.945516 0.0909813 0.461823
0 0.945143 0.0921907 8.62401
0 0.945023 0.100721 15.7207
0 0.945554 0.0910798 1.73596
0 0.945646 0.0910202 1.07521
0 0.945596 0.0910363 1.23169
0 0.945622 0.0913438 5.69374
0 0.945637 0.0911284 2.6756
0 0.9455 0.0910082 0.623982
0 0.945513 0.0910418 1.08526
0 0.945512 0.0909943 0.495152
0 0.945536 0.091051 0.997695
0 0.945565 0.0910358 0.488607
0 0.945554 0.0914423 5.94838
0 0.945496 0.0921219 12.9344
0 0.945546 0.0998259 94.9168
0 0.945423 0.0909903 0.130385
0 0.945309 0.0910879 1.27963
0 0.945193 0.0914423 2.35774
0 0.945284 0.0911603 1.50919
0 0.945455 0.0909499 0.178802
0 0.945482 0.0909694 0.397104
0 0.945517 0.090985 0.449348
0 0.945507 0.0909817 0.611721
0 0.945512 0.0909953 0.699927
0 0.945514 0.0909816 0.513182
0 0.945509 0.090985 0.604674
0 0.945219 0.0915754 2.18123
0 0.945163 0.0923247 8.0039
0 0.94521 0.103516 129.429
0 0.945598 0.091021 0.166636
0 0.945606 0.091159 2.37351
0 0.945578 0.0912167 2.58668
0 0.945575 0.0910187 0.0873396
0 0.945524 0.0910018 0.555425
0 0.945547 0.091024 0.516686
0 0.945525 0.091417 4.43672
0 0.945434 0.0925831 14.9153
0 0.945355 0.101256 28.0239
0 0.945388 0.0909743 0.265545
0 0.945314 0.0911248 0.618169
0 0.945322 0.0912338 1.12785
0 0.945438 0.0909841 0.519674
0 0.945479 0.0909835 0.465248
0 0.945523 0.0909914 0.640422
0 0.945515 0.090982 0.725572
0 0.945497 0.0909931 0.647991
0 0.945503 0.0909761 0.610867
0 0.945277 0.0915059 2.44298
0 0.945142 0.0924596 4.9107
0 0.94508 0.099776 40.2349
0 0.945585 0.0910289 0.570807
0 0.945571 0.0911281 1.11329
0 0.945564 0.091033 0.942519
0 0.945539 0.0910183 0.92132
0 0.945576 0.0911634 1.23816
0 0.945533 0.0914636 3.2463
0 0.945469 0.0925481 13.5185
0 0.94541 0.104539 109.399
0 0.945398 0.0910336 0.819456
0 0.945372 0.0911575 1.45334
0 0.945444 0.09102 0.744822
0 0.945475 0.0909879 0.503793
0 0.945529 0.0909967 0.912584
0 0.945512 0.0909839 0.878229
0 0.945485 0.0909804 0.524138
0 0.945494 0.0909843 0.63625
0 0.945392 0.0912538 1.85279
0 0.945352 0.0913656 1.97629
0 0.945323 0.0922151 3.90487
0 0.945197 0.0988511 14.6588
0 0.945573 0.0910592 1.29172
0 0.945551 0.091038 1.29574
0 0.945588 0.0911434 2.08441
0 0.945567 0.0913531 3.48544
0 0.945448 0.0919488 9.73846
0 0.945404 0.0986119 5.81657
0 0.945425 0.0911053 1.14957
0 0.945457 0.0909938 0.511005
0 0.94553 0.0910204 1.23615
0 0.9455 0.090993 0.750885
0 0.945474 0.0909876 0.345152
0 0.945412 0.091319 1.53947
0 0.945376 0.0915635 2.43164
0 0.945405 0.0921587 1.49631
0 0.94544 0.0970812 50.5157
0 0.945561 0.0911077 1.83526
0 0.945604 0.0912171 2.34466
0 0.945627 0.0913136 3.30536
0 0.945566 0.0919783 9.09454
0 0.945414 0.0984441 10.7755
0 0.945447 0.0910545 0.511516
0 0.945522 0.0911355 1.20751
0 0.945477 0.0910214 0.51286
0 0.945419 0.0913465 1.20489
0 0.945384 0.0916076 1.7385
0 0.945343 0.0924956 3.80087
0 0.945378 0.0992447 45.471
0 0.945576 0.0913168 1.95261
0 0.945642 0.0913472 2.31466
0 0.945693 0.0916382 5.80068
0 0.945669 0.0991982 102.883
0 0.945539 0.0914296 1.98982
0 0.945442 0.0911731 0.938432
0 0.945494 0.0913031 1.72549
0 0.945458 0.0912273 1.90964
0 0.94541 0.0915464 2.07724
0 0.945374 0.0923675 4.0931
0 0.94532 0.099829 84.6008
0 0.945588 0.0915718 2.08431
0 0.945644 0.0915973 1.95989
0 0.945697 0.0981842 48.5191
0 0.945519 0.0916672 4.43448
0 0.945437 0.0914922 3.45927
0 0.945462 0.0915756 4.00797
0 0.945436 0.0919836 4.4785
0 0.945421 0.0988651 84.0318
0 0.945546 0.0923996 7.07258
0 0.945598 0.101677 88.3059
0 0.94547 0.0928318 13.2107
0 0.945452 0.0923301 12.5041
0 0.945458 0.0972584 3.08947
0 0.945478 0.103982 26.55
0 0.945456 0.102293 153.548
VECTORS fa_u float
0.00691012 0.00284234 -0
0.00522668 0.00300288 -0
0.00459747 0.00125373 -0
0.00826879 0.00115001 -0
1e-08 0 0
0.00636793 0.00489308 -0
0.00345615 0.00343619 -0
1e-08 0 0
1e-08 0 0
0.00462441 0.00591683 -0
0.00358613 0.00616799 -0
0.00541113 3.51323e-05 -0
0.00761792 -0.000936204 0
1e-08 0 0
1e-08 0 0
1e-08 0 0
1e-08 0 0
1e-08 0 0
1e-08 0 0
1e-08 0 0
1e-08 0 0
0.00247627 0.00593696 -0
0.00202613 0.00761671 -0
1e-08 0 0
1e-08 0 0
1e-08 0 0
0.00678749 -0.0017993 0
1e-08 0 0
0.00761927 -0.00321225 0
1e-08 0 0
1e-08 0 0
1e-08 0 0
0.000785847 0.00620976 -0
1e-08 0 0
1e-08 0 0
1e-08 0 0
1e-08 0 0
1e-08 0 0
1e-08 0 0
1e-08 0 0
1e-08 0 0
1e-08 0 0
1e-08 0 0
-4.48057e-05 0.00740006 -0
1e-08 0 0
1e-08 0 0
1e-08 0 0
0.00586232 -0.00349669 0
1e-08 0 0
0.00403882 -0.00313962 0
1e-08 0 0
1e-08 0 0
1e-08 0 0
1e-08 0 0
1e-08 0 0
1e-08 0 0
1e-08 0 0
1e-08 0 0
1e-08 0 0
1e-08 0 0
1e-08 0 0
1e-08 0 0
1e-08 0 0
-0.000802776 0.00585477 0
1e-08 0 0
1e-08 0 0
1e-08 0 0
1e-08 0 0
1e-08 0 0
0.00457321 -0.00454418 0
1e-08 0 0
0.00377207 -0.00484011 0
1e-08 0 0
1e-08 0 0
1e-08 0 0
1e-08 0 0
1e-08 0 0
1e-08 0 0
1e-08 0 0
1e-08 0 0
1e-08 0 0
1e-08 0 0
1e-08 0 0
1e-08 0 0
1e-08 0 0
-0.00153494 0.00578729 0
1e-08 0 0
1e-08 0 0
1e-08 0 0
1e-08 0 0
1e-08 0 0
1e-08 0 0
0.00368032 -0.00626063 0
1e-08 0 0
1e-08 0 0
1e-08 0 0
1e-08 0 0
1e-08 0 0
0.0031842 -0.00774458 0
1e-08 0 0
1e-08 0 0
1e-08 0 0
1e-08 0 0
1e-08 0 0
1e-08 0 0
1e-08 0 0
1e-08 0 0
1e-08 0 0
1e-08 0 0
-0.00285124 0.00693399 0
1e-08 0 0
1e-08 0 0
1e-08 0 0
1e-08 0 0
1e-08 0 0
1e-08 0 0
1e-08 0 0
1e-08 0 0
1e-08 0 0
1e-08 0 0
1e-08 0 0
1e-08 0 0
1e-08 0 0
1e-08 0 0
0.00148848 -0.00569396 0
1e-08 0 0
1e-08 0 0
1e-08 0 0
1e-08 0 0
1e-08 0 0
1e-08 0 0
1e-08 0 0
1e-08 0 0
1e-08 0 0
-0.00361985 0.00621791 0
1e-08 0 0
1e-08 0 0
1e-08 0 0
1e-08 0 0
1e-08 0 0
1e-08 0 0
1e-08 0 0
1e-08 0 0
1e-08 0 0
1e-08 0 0
1e-08 0 0
1e-08 0 0
1e-08 0 0
1e-08 0 0
1e-08 0 0
0.000773574 -0.00575239 0
1e-08 0 0
1e-08 0 0
1e-08 0 0
1e-08 0 0
1e-08 0 0
1e-08 0 0
1e-08 0 0
1e-08 0 0
1e-08 0 0
1e-08 0 0
-0.00358459 0.00465487 0
1e-08 0 0
1e-08 0 0
1e-08 0 0
1e-08 0 0
1e-08 0 0
1e-08 0 0
1e-08 0 0
1e-08 0 0
1e-08 0 0
1e-08 0 0
1e-08 0 0
1e-08 0 0
2.33989e-05 -0.00756135 0
1e-08 0 0
1e-08 0 0
1e-08 0 0
1e-08 0 0
1e-08 0 0
1e-08 0 0
1e-08 0 0
1e-08 0 0
1e-08 0 0
1e-08 0 0
1e-08 0 0
1e-08 0 0
-0.00441954 0.00446196 0
1e-08 0 0
1e-08 0 0
1e-08 0 0
1e-08 0 0
1e-08 0 0
1e-08 0 0
1e-08 0 0
1e-08 0 0
1e-08 0 0
1e-08 0 0
1e-08 0 0
1e-08 0 0
1e-08 0 0
-0.00072826 -0.00570231 0
1e-08 0 0
1e-08 0 0
1e-08 0 0
1e-08 0 0
1e-08 0 0
1e-08 0 0
1e-08 0 0
1e-08 0 0
-0.00521369 0.00406275 0
1e-08 0 0
1e-08 0 0
1e-08 0 0
1e-08 0 0
1e-08 0 0
1e-08 0 0
1e-08 0 0
1e-08 0 0
1e-08 0 0
1e-08 0 0
1e-08 0 0
-0.00201615 -0.00762024 0
1e-08 0 0
1e-08 0 0
1e-08 0 0
1e-08 0 0
1e-08 0 0
1e-08 0 0
1e-08 0 0
-0.00578972 0.00340419 0
1e-08 0 0
1e-08 0 0
1e-08 0 0
1e-08 0 0
1e-08 0 0
1e-08 0 0
1e-08 0 0
1e-08 0 0
1e-08 0 0
1e-08 0 0
1e-08 0 0
-0.00233086 -0.00563629 0
1e-08 0 0
1e-08 0 0
1e-08 0 0
1e-08 0 0
1e-08 0 0
-0.00782535 0.00323903 0
1e-08 0 0
1e-08 0 0
1e-08 0 0
1e-08 0 0
1e-08 0 0
1e-08 0 0
1e-08 0 0
1e-08 0 0
-0.00424389 -0.00728021 0
1e-08 0 0
1e-08 0 0
1e-08 0 0
1e-08 0 0
-0.00508016 0.00135654 0
1e-08 0 0
1e-08 0 0
1e-08 0 0
1e-08 0 0
1e-08 0 0
1e-08 0 0
-0.00394344 -0.00502754 0
1e-08 0 0
1e-08 0 0
1e-08 0 0
-0.00827452 0.00108171 0
1e-08 0 0
1e-08 0 0
1e-08 0 0
1e-08 0 0
1e-08 0 0
1e-08 0 0
-0.00356319 -0.00356178 0
1e-08 0 0
1e-08 0 0
-0.00671858 -5.76311e-05 0
1e-08 0 0
1e-08 0 0
1e-08 0 0
1e-08 0 0
-0.00650909 -0.00501192 0
1e-08 0 0
-0.00581438 -0.000792262 0
1e-08 0 0
1e-08 0 0
-0.00536201 -0.00307613 0
-0.00638842 -0.00170875 0
-0.00627766 -0.00259614 0
