# vtk DataFile Version 2.0
CellBP Time: 2.04
ASCII
DATASET UNSTRUCTURED_GRID
POINTS 296 double
-9.06227 -3.72166 0
-8.4849 -4.87685 0
-9.47587 -2.49854 0
-9.72376 -1.23553 0
-8.31041 -2.79807 0
-7.77147 -5.95363 0
-6.92155 -6.92547 0
-7.87017 -3.84861 0
-7.29773 -4.83928 0
-5.95533 -7.77858 0
-4.88456 -8.49278 0
-9.81546 0.0481267 0
-9.7378 1.33616 0
-8.61412 -1.67194 0
-8.7462 -0.525944 0
-7.54418 -1.98781 0
-7.1789 -2.88383 0
-6.60154 -5.75076 0
-5.79493 -6.56928 0
-6.74524 -3.8616 0
-6.18157 -4.6483 0
-3.73113 -9.07213 0
-2.50536 -9.48365 0
-4.8876 -7.28204 0
-3.90281 -7.86044 0
-8.75617 0.638988 0
-9.49259 2.60625 0
-8.59062 1.76431 0
-9.07194 3.82763 0
-7.70206 -0.920522 0
-7.75531 0.0815784 0
-6.91204 -1.30469 0
-1.23605 -9.73381 0
-6.40433 -2.13775 0
-6.28145 -3.03506 0
-5.50541 -5.44744 0
-4.77216 -6.08894 0
-5.62545 -3.7344 0
-5.23714 -4.53597 0
-2.85786 -8.33565 0
-1.7716 -8.60938 0
-3.91239 -6.6978 0
-3.04811 -7.12771 0
0.0509214 -9.81573 0
-7.66936 1.13757 0
-8.3111 2.90524 0
-7.51862 2.10001 0
-8.49747 4.9833 0
-7.84764 3.96082 0
-7.77298 6.05264 0
-6.742 -0.392327 0
-6.92012 0.551238 0
-5.7437 -0.997649 0
-0.588033 -8.7749 0
0.560907 -8.73114 0
-5.27693 -2.46596 0
-4.46565 -5.06996 0
-3.88248 -5.74974 0
-4.41712 -3.78622 0
-2.05517 -7.53442 0
-1.13153 -7.75505 0
-2.98149 -6.07735 0
-2.30161 -6.5952 0
1.33586 -9.73148 0
-6.65771 1.41418 0
-7.13841 3.10191 0
-6.62824 2.36064 0
-7.2605 4.96458 0
-6.68603 3.98188 0
-6.92222 7.02036 0
-6.54114 5.86432 0
-5.94874 7.86698 0
-4.43844 -1.17782 0
-5.78983 0.50949 0
-4.64142 -0.0136121 0
0.00521675 -7.81225 0
1.72605 -8.59928 0
0.939427 -7.72367 0
-4.02489 -2.39682 0
-3.48024 -1.38924 0
-3.28078 -4.78543 0
-3.25713 -3.25625 0
-1.37558 -6.64756 0
-0.510599 -6.9927 0
-1.96926 -5.51691 0
2.59902 -9.46841 0
-5.48397 2.02839 0
-6.06603 3.05573 0
-6.07543 4.8432 0
-5.73356 3.96854 0
-5.7331 6.68162 0
-5.425 5.58803 0
-4.88499 8.59701 0
-4.81376 7.36424 0
-3.49444 -0.42386 0
-4.43366 1.24445 0
-3.70139 0.590421 0
-4.04705 2.31464 0
-3.73024 9.17063 0
2.84206 -8.28414 0
0.411327 -6.75956 0
2.00504 -7.48195 0
1.29226 -6.86572 0
-2.44184 -0.871718 0
-2.83397 -2.12628 0
-2.28898 -4.08374 0
-2.32113 -2.96525 0
-0.44416 -5.83478 0
-1.21826 -4.48472 0
3.8233 -9.06144 0
-4.76858 3.37619 0
-5.06294 4.56817 0
-4.6231 6.24528 0
-4.51596 5.32905 0
-3.82696 7.95581 0
-3.80574 6.80514 0
-2.76923 8.3807 0
-1.64778 -0.136024 0
-1.4486 -0.888809 0
-2.4866 0.508953 0
-3.24487 1.44241 0
-3.22727 3.30555 0
-2.90271 2.36913 0
-1.35489 0.628913 0
-2.50448 9.57619 0
3.90744 -7.84057 0
2.94068 -7.11047 0
0.944277 -5.79108 0
2.05643 -6.37582 0
-1.6801 -1.98907 0
-1.43077 -3.26891 0
0.0883197 -4.72789 0
-0.563217 -3.6845 0
4.90302 -7.2747 0
4.98094 -8.49314 0
-3.75999 4.52939 0
-3.71608 5.72043 0
-2.87139 7.2492 0
-2.99411 6.31909 0
-1.65391 8.69401 0
-1.92857 7.58124 0
-2.33088 4.03711 0
-0.729603 -1.32574 0
-0.83656 -0.256032 0
-1.93503 1.68213 0
-2.12144 2.8712 0
-1.30504 3.53678 0
-0.870507 1.3525 0
-0.28335 0.457407 0
-0.530393 8.83584 0
-1.23682 9.82344 0
1.10537 -4.55335 0
3.88103 -6.66911 0
2.96558 -6.05455 0
2.10236 -5.39324 0
4.75523 -6.16338 0
-0.556961 -2.47266 0
0.49427 -3.45383 0
0.0539496 -1.60926 0
1.47471 -3.66687 0
5.83681 -6.57556 0
6.05161 -7.77159 0
-2.46484 5.32329 0
-2.11815 6.50068 0
-0.897771 7.7685 0
-1.26306 6.89787 0
0.087616 7.84896 0
-1.14131 4.47969 0
0.149713 -0.616439 0
-0.799332 2.48869 0
-0.334137 3.59488 0
0.0609122 1.51349 0
0.73932 0.47381 0
0.644107 8.84281 0
0.048787 9.92029 0
2.36712 -4.26208 0
3.83418 -5.60217 0
2.98162 -5.18 0
5.54574 -5.45822 0
4.66378 -5.24651 0
0.629959 -2.29132 0
1.25225 -2.94278 0
0.756816 -1.39056 0
2.15545 -3.12356 0
2.98013 -3.45966 0
6.12844 -4.76544 0
6.6268 -5.73942 0
7.02034 -6.91705 0
-1.01379 5.7952 0
-0.367617 6.8528 0
1.11916 7.74222 0
0.558197 7.05191 0
-0.00190981 4.7113 0
0.603403 3.8196 0
1.33704 -0.64178 0
0.535853 2.64828 0
0.962874 1.57482 0
1.90704 0.213211 0
1.61125 1.06442 0
2.12355 7.55841 0
1.7937 8.68348 0
1.3376 9.83517 0
3.80262 -4.32523 0
5.09079 -4.41965 0
5.82079 -3.9126 0
3.76803 -3.18524 0
1.80887 -1.88117 0
3.00864 -2.56524 0
6.75826 -3.93002 0
7.35452 -4.87599 0
7.87668 -5.95327 0
0.483028 5.8599 0
1.42468 6.71799 0
2.36801 6.64697 0
1.20566 4.54384 0
1.48386 3.38996 0
2.43075 -0.691377 0
2.82202 0.14259 0
1.78458 2.16025 0
2.60732 1.1486 0
3.06383 7.14665 0
2.89714 8.34999 0
2.60705 9.58755 0
4.89026 -3.30888 0
6.09737 -3.09274 0
4.15863 -2.26725 0
3.23555 -1.50013 0
6.70945 -2.3051 0
7.20872 -3.03267 0
7.93993 -3.90082 0
8.59989 -4.88759 0
2.0184 5.58172 0
3.07346 6.13098 0
2.35871 4.11468 0
2.41501 3.05324 0
3.51646 -0.459126 0
3.60694 0.61369 0
2.95482 2.28268 0
3.53533 1.52191 0
3.99239 5.87448 0
3.96921 6.76903 0
3.96359 7.9138 0
3.83104 9.17053 0
5.55031 -1.9089 0
4.4957 -1.1257 0
6.69053 -1.33094 0
7.56791 -2.02908 0
8.37089 -2.85312 0
9.17465 -3.73216 0
3.40289 4.85786 0
3.32639 3.37348 0
4.67662 0.131175 0
4.50165 1.30493 0
4.04784 2.43394 0
4.54409 5.12882 0
4.82062 6.16616 0
4.96235 7.35489 0
4.98795 8.59811 0
5.86119 -0.43429 0
6.98331 -0.487895 0
7.73316 -1.07978 0
8.65662 -1.73877 0
9.57696 -2.50323 0
4.52797 3.80968 0
5.79055 1.09086 0
5.34252 2.52063 0
5.34678 4.59647 0
5.58158 5.49844 0
5.87028 6.64578 0
6.05898 7.8831 0
6.81486 0.457634 0
7.82233 -0.0265749 0
8.82975 -0.579853 0
9.83525 -1.23575 0
6.92515 1.3383 0
5.68647 3.75712 0
6.50482 2.18169 0
6.3417 3.06789 0
6.25409 4.66149 0
6.65781 5.81102 0
7.02171 7.02456 0
7.74922 0.96042 0
8.82384 0.570058 0
9.9188 0.0525107 0
7.57678 1.99042 0
6.78448 3.87866 0
7.22657 2.92653 0
7.33873 4.86099 0
7.87873 6.05785 0
8.68247 1.71682 0
9.82694 1.33695 0
8.376 2.82031 0
7.94024 3.895 0
8.58986 4.9803 0
9.57529 2.60242 0
9.16374 3.82499 0
CELLS 542 2168
3 2 0 4
3 0 1 7
3 4 0 7
3 1 5 8
3 7 1 8
3 3 2 13
3 13 2 4
3 11 3 14
3 14 3 13
3 13 4 15
3 4 7 16
3 15 4 16
3 5 6 17
3 8 5 17
3 6 9 18
3 17 6 18
3 7 8 19
3 16 7 19
3 8 17 20
3 19 8 20
3 9 10 23
3 18 9 23
3 10 21 24
3 23 10 24
3 12 11 25
3 25 11 14
3 26 12 27
3 27 12 25
3 14 13 29
3 29 13 15
3 25 14 30
3 30 14 29
3 29 15 31
3 15 16 33
3 31 15 33
3 16 19 34
3 33 16 34
3 17 18 35
3 20 17 35
3 18 23 36
3 35 18 36
3 19 20 37
3 34 19 37
3 20 35 38
3 37 20 38
3 21 22 39
3 24 21 39
3 22 32 40
3 39 22 40
3 23 24 41
3 36 23 41
3 24 39 42
3 41 24 42
3 27 25 44
3 44 25 30
3 28 26 45
3 45 26 27
3 45 27 46
3 46 27 44
3 47 28 48
3 48 28 45
3 30 29 50
3 50 29 31
3 44 30 51
3 51 30 50
3 50 31 52
3 31 33 52
3 32 43 53
3 40 32 53
3 53 43 54
3 33 34 55
3 34 37 55
3 33 55 52
3 35 36 56
3 38 35 56
3 36 41 57
3 56 36 57
3 37 38 58
3 38 56 58
3 37 58 55
3 39 40 59
3 42 39 59
3 40 53 60
3 59 40 60
3 41 42 61
3 57 41 61
3 42 59 62
3 61 42 62
3 43 63 54
3 46 44 64
3 64 44 51
3 48 45 65
3 65 45 46
3 65 46 66
3 66 46 64
3 49 47 67
3 67 47 48
3 67 48 68
3 68 48 65
3 69 49 70
3 70 49 67
3 52 55 72
3 64 51 73
3 51 50 73
3 50 52 73
3 73 52 74
3 74 52 72
3 53 54 75
3 60 53 75
3 54 63 76
3 54 76 77
3 75 54 77
3 55 58 78
3 72 55 78
3 72 78 79
3 56 57 80
3 57 61 80
3 56 80 58
3 58 80 81
3 78 58 81
3 59 60 82
3 62 59 82
3 60 75 83
3 82 60 83
3 61 62 84
3 62 82 84
3 61 84 80
3 63 85 76
3 66 64 86
3 64 73 86
3 68 65 87
3 87 65 66
3 87 66 86
3 70 67 88
3 88 67 68
3 88 68 89
3 89 68 87
3 71 69 90
3 90 69 70
3 90 70 91
3 91 70 88
3 92 71 93
3 93 71 90
3 74 72 94
3 94 72 79
3 86 73 95
3 95 73 74
3 95 74 96
3 96 74 94
3 97 86 95
3 76 85 99
3 75 77 100
3 83 75 100
3 76 99 101
3 77 76 101
3 77 101 102
3 100 77 102
3 94 79 103
3 78 81 104
3 79 78 104
3 79 104 103
3 80 84 105
3 81 80 105
3 81 105 106
3 104 81 106
3 82 83 107
3 83 100 107
3 82 107 84
3 84 107 108
3 105 84 108
3 85 109 99
3 89 87 110
3 87 86 110
3 110 86 97
3 91 88 111
3 111 88 89
3 111 89 110
3 93 90 112
3 112 90 91
3 112 91 113
3 113 91 111
3 98 92 114
3 114 92 93
3 114 93 115
3 115 93 112
3 116 98 114
3 117 103 118
3 96 94 119
3 94 103 119
3 119 103 117
3 97 95 120
3 120 95 96
3 120 96 119
3 121 110 97
3 121 97 122
3 122 97 120
3 123 119 117
3 124 98 116
3 99 109 125
3 99 125 126
3 101 99 126
3 100 102 127
3 100 127 107
3 101 126 128
3 102 101 128
3 102 128 127
3 104 106 129
3 104 129 103
3 103 129 118
3 105 108 130
3 106 105 130
3 106 130 129
3 107 127 131
3 108 107 131
3 108 131 132
3 108 132 130
3 109 134 125
3 125 134 133
3 113 111 135
3 111 110 135
3 135 110 121
3 115 112 136
3 136 112 113
3 136 113 135
3 116 114 137
3 137 114 115
3 137 115 138
3 138 115 136
3 139 124 116
3 139 116 140
3 140 116 137
3 141 135 121
3 118 129 142
3 118 142 143
3 117 118 143
3 123 117 143
3 122 120 144
3 120 119 144
3 144 119 123
3 141 121 145
3 145 121 122
3 145 122 144
3 146 141 145
3 147 144 123
3 147 123 148
3 143 148 123
3 150 124 139
3 149 150 139
3 131 127 151
3 125 133 152
3 126 125 152
3 126 152 153
3 128 126 153
3 128 153 154
3 128 154 127
3 127 154 151
3 152 133 155
3 130 132 156
3 130 156 129
3 129 156 142
3 131 151 157
3 132 131 157
3 132 157 156
3 156 158 142
3 157 151 159
3 133 160 155
3 134 161 133
3 133 161 160
3 138 136 162
3 136 135 162
3 162 135 141
3 140 137 163
3 163 137 138
3 163 138 162
3 149 139 164
3 164 139 140
3 164 140 165
3 165 140 163
3 166 149 164
3 167 162 141
3 167 141 146
3 142 158 168
3 143 142 168
3 143 168 148
3 146 145 169
3 145 144 169
3 169 144 147
3 170 167 146
3 170 146 169
3 171 169 147
3 171 147 148
3 171 148 172
3 168 172 148
3 173 149 166
3 174 150 149
3 173 174 149
3 154 175 151
3 151 175 159
3 152 155 176
3 153 152 176
3 153 176 177
3 153 177 154
3 154 177 175
3 155 160 178
3 155 178 179
3 176 155 179
3 156 157 180
3 156 180 158
3 157 159 181
3 157 181 180
3 158 180 182
3 158 182 168
3 159 175 183
3 159 183 181
3 175 184 183
3 160 186 178
3 178 186 185
3 161 187 160
3 160 187 186
3 165 163 188
3 163 162 188
3 188 162 167
3 166 164 189
3 189 164 165
3 189 165 188
3 190 173 166
3 190 166 191
3 191 166 189
3 192 188 167
3 192 167 170
3 193 192 170
3 182 194 168
3 194 172 168
3 193 170 195
3 170 169 195
3 195 169 171
3 196 195 171
3 196 171 172
3 194 197 172
3 197 198 172
3 198 196 172
3 200 173 190
3 199 200 190
3 201 174 173
3 200 201 173
3 176 179 202
3 177 176 202
3 177 202 175
3 175 202 184
3 178 185 203
3 178 203 179
3 179 203 202
3 203 185 204
3 202 205 184
3 183 206 181
3 180 181 206
3 180 206 182
3 182 206 194
3 183 184 207
3 205 207 184
3 183 207 206
3 185 208 204
3 186 209 185
3 185 209 208
3 187 210 186
3 186 210 209
3 191 189 211
3 189 188 211
3 211 188 192
3 199 190 212
3 212 190 191
3 212 191 211
3 213 199 212
3 214 211 192
3 214 192 193
3 215 214 193
3 215 193 195
3 206 216 194
3 216 197 194
3 216 217 197
3 215 195 218
3 218 195 196
3 198 218 196
3 217 219 197
3 219 218 198
3 197 219 198
3 220 199 213
3 221 200 199
3 220 221 199
3 222 201 200
3 221 222 200
3 203 204 223
3 203 223 202
3 202 223 205
3 204 208 224
3 204 224 223
3 205 223 225
3 205 225 207
3 207 225 226
3 207 226 206
3 226 216 206
3 208 228 224
3 224 228 227
3 209 229 208
3 229 228 208
3 210 230 209
3 209 230 229
3 213 212 231
3 212 211 231
3 231 211 214
3 232 220 213
3 232 213 231
3 233 231 214
3 233 214 215
3 234 233 215
3 234 215 218
3 226 235 216
3 235 217 216
3 235 236 217
3 217 236 219
3 237 234 218
3 237 218 219
3 236 238 219
3 238 237 219
3 240 220 232
3 239 240 232
3 241 221 220
3 240 241 220
3 242 222 221
3 241 242 221
3 224 227 243
3 224 243 223
3 223 243 225
3 225 243 244
3 225 244 226
3 226 244 235
3 227 245 243
3 228 246 227
3 227 246 245
3 229 247 228
3 228 247 246
3 230 248 229
3 229 248 247
3 239 232 249
3 232 231 249
3 249 231 233
3 250 249 233
3 250 233 234
3 237 250 234
3 244 251 235
3 235 251 236
3 251 252 236
3 236 252 238
3 252 253 238
3 253 250 237
3 253 237 238
3 254 239 249
3 255 240 239
3 254 255 239
3 256 241 240
3 255 256 240
3 257 242 241
3 256 257 241
3 245 258 243
3 243 258 244
3 244 258 251
3 245 259 258
3 246 260 245
3 245 260 259
3 247 261 246
3 246 261 260
3 248 262 247
3 247 262 261
3 254 249 263
3 263 249 250
3 253 263 250
3 258 264 251
3 251 264 252
3 264 265 252
3 265 263 253
3 252 265 253
3 266 254 263
3 267 255 254
3 266 267 254
3 268 256 255
3 267 268 255
3 269 257 256
3 268 269 256
3 259 270 258
3 270 264 258
3 260 271 259
3 259 271 270
3 261 272 260
3 260 272 271
3 262 273 261
3 273 272 261
3 270 274 264
3 275 266 263
3 275 263 265
3 274 276 264
3 276 265 264
3 276 277 265
3 277 275 265
3 278 267 266
3 275 278 266
3 279 268 267
3 278 279 267
3 280 269 268
3 279 280 268
3 271 281 270
3 270 281 274
3 272 282 271
3 271 282 281
3 273 283 272
3 272 283 282
3 281 284 274
3 274 284 276
3 285 278 275
3 277 285 275
3 284 286 276
3 286 285 277
3 276 286 277
3 287 279 278
3 285 287 278
3 288 280 279
3 287 288 279
3 282 289 281
3 281 289 284
3 283 290 282
3 282 290 289
3 289 291 284
3 284 291 286
3 291 292 286
3 292 287 285
3 286 292 285
3 293 288 287
3 292 293 287
3 290 294 289
3 289 294 291
3 294 295 291
3 295 293 292
3 291 295 292
CELL_TYPES 542
5
5
5
5
5
5
5
5
5
5
5
5
5
5
5
5
5
5
5
5
5
5
5
5
5
5
5
5
5
5
5
5
5
5
5
5
5
5
5
5
5
5
5
5
5
5
5
5
5
5
5
5
5
5
5
5
5
5
5
5
5
5
5
5
5
5
5
5
5
5
5
5
5
5
5
5
5
5
5
5
5
5
5
5
5
5
5
5
5
5
5
5
5
5
5
5
5
5
5
5
5
5
5
5
5
5
5
5
5
5
5
5
5
5
5
5
5
5
5
5
5
5
5
5
5
5
5
5
5
5
5
5
5
5
5
5
5
5
5
5
5
5
5
5
5
5
5
5
5
5
5
5
5
5
5
5
5
5
5
5
5
5
5
5
5
5
5
5
5
5
5
5
5
5
5
5
5
5
5
5
5
5
5
5
5
5
5
5
5
5
5
5
5
5
5
5
5
5
5
5
5
5
5
5
5
5
5
5
5
5
5
5
5
5
5
5
5
5
5
5
5
5
5
5
5
5
5
5
5
5
5
5
5
5
5
5
5
5
5
5
5
5
5
5
5
5
5
5
5
5
5
5
5
5
5
5
5
5
5
5
5
5
5
5
5
5
5
5
5
5
5
5
5
5
5
5
5
5
5
5
5
5
5
5
5
5
5
5
5
5
5
5
5
5
5
5
5
5
5
5
5
5
5
5
5
5
5
5
5
5
5
5
5
5
5
5
5
5
5
5
5
5
5
5
5
5
5
5
5
5
5
5
5
5
5
5
5
5
5
5
5
5
5
5
5
5
5
5
5
5
5
5
5
5
5
5
5
5
5
5
5
5
5
5
5
5
5
5
5
5
5
5
5
5
5
5
5
5
5
5
5
5
5
5
5
5
5
5
5
5
5
5
5
5
5
5
5
5
5
5
5
5
5
5
5
5
5
5
5
5
5
5
5
5
5
5
5
5
5
5
5
5
5
5
5
5
5
5
5
5
5
5
5
5
5
5
5
5
5
5
5
5
5
5
5
5
5
5
5
5
5
5
5
5
5
5
5
5
5
5
5
5
5
5
5
5
5
5
5
5
5
5
5
5
5
5
5
5
5
5
5
5
5
5
5
5
5
5
5
5
5
5
5
5
5
5
5
5
5
5
5
5
5
5
5
5
5
5
5
5
5
5
5
5
5
5
5
5
5
5
5
5
5
5
5
5
5
5
5
5
5
5
5
5
5
5
5
5
5
5
5
5
POINT_DATA 296
SCALARS concentrations float 4
LOOKUP_TABLE default
0 0.973235 0.17325 367.494
0 0.973414 0.174453 355.883
0 0.972929 0.171929 267.53
0 0.973014 0.172951 462.677
0 0.973098 0.0917265 4.13786
0 0.973096 0.171419 394.372
0 0.973275 0.174047 298.821
0 0.973341 0.0916408 6.70819
0 0.97325 0.0915454 5.8255
0 0.973273 0.175042 254.748
0 0.973026 0.172493 469.505
0 0.97323 0.176015 301.524
0 0.973136 0.171667 361.065
0 0.973009 0.0915453 0.618848
0 0.973179 0.0914144 1.80587
0 0.973154 0.0911624 1.35715
0 0.973221 0.0912501 2.81924
0 0.973186 0.091588 3.06
0 0.97333 0.0916132 3.52514
0 0.973259 0.0912066 2.63862
0 0.973252 0.091179 1.14472
0 0.973364 0.174129 251.539
0 0.973453 0.176308 424.448
0 0.973184 0.0914147 2.39039
0 0.973224 0.0914838 2.49881
0 0.973222 0.0913973 0.243128
0 0.973343 0.172855 314.638
0 0.973278 0.0913993 1.71472
0 0.973393 0.171326 329.906
0 0.973179 0.0911641 0.951859
0 0.973251 0.0911861 1.17222
0 0.973223 0.0911052 0.777488
0 0.973219 0.172926 311.045
0 0.97323 0.0911043 1.14533
0 0.973242 0.0911432 1.75417
0 0.973283 0.0912461 1.09551
0 0.973301 0.0912309 1.59582
0 0.973263 0.0911208 0.884737
0 0.973281 0.0911405 0.212767
0 0.973449 0.0915256 2.69576
0 0.973363 0.0914485 0.848437
0 0.973305 0.0911922 2.19786
0 0.973369 0.0911801 1.76716
0 0.973131 0.171317 366.969
0 0.97332 0.0912107 1.16195
0 0.973411 0.0913527 0.942302
0 0.973395 0.0911845 0.875331
0 0.973424 0.17349 272.981
0 0.973426 0.0913372 1.7308
0 0.973181 0.171226 423.731
0 0.973268 0.0911083 0.96429
0 0.973312 0.0911264 1.1104
0 0.97328 0.0910647 0.623321
0 0.973222 0.0915547 1.49751
0 0.973224 0.0915485 0.948343
0 0.973275 0.091084 0.909814
0 0.97331 0.0911398 0.623513
0 0.973332 0.0911489 1.35246
0 0.973303 0.0910869 0.340446
0 0.973413 0.0912019 1.88518
0 0.973376 0.0912352 1.25711
0 0.973363 0.0911257 1.3679
0 0.973399 0.0911328 1.49777
0 0.973127 0.171522 247.368
0 0.973364 0.0911076 1.04937
0 0.973435 0.0911779 1.26065
0 0.973401 0.0911078 1.15249
0 0.973344 0.0914872 3.26932
0 0.973391 0.091191 1.81821
0 0.972842 0.170569 341.857
0 0.973067 0.0913894 3.12729
0 0.972828 0.171989 399.072
0 0.97331 0.0910687 0.748368
0 0.973329 0.0910739 0.648598
0 0.973331 0.0910735 0.638148
0 0.97334 0.0912452 1.50152
0 0.973012 0.0916704 5.50676
0 0.973257 0.0912482 2.03612
0 0.973317 0.0910717 0.812975
0 0.973354 0.091084 1.04041
0 0.973347 0.0910816 0.562379
0 0.973345 0.091071 0.648385
0 0.973409 0.0911329 1.33083
0 0.9734 0.0911645 1.34552
0 0.973391 0.091076 0.681153
0 0.972643 0.168359 413.611
0 0.973368 0.0910703 0.664895
0 0.97339 0.0910967 1.3609
0 0.973274 0.0912043 2.20047
0 0.973351 0.0911331 1.62907
0 0.972918 0.0913437 0.754439
0 0.97315 0.091194 1.46915
0 0.972903 0.171698 278.681
0 0.972967 0.0913614 1.7947
0 0.973367 0.0910632 0.911656
0 0.97336 0.0910675 0.819498
0 0.973374 0.0910589 0.930255
0 0.973371 0.0910738 0.842713
0 0.972925 0.169815 332.907
0 0.972717 0.091586 3.99307
0 0.973372 0.0911604 1.34726
0 0.973115 0.0912034 1.94901
0 0.973303 0.0911656 1.37669
0 0.973404 0.0910385 0.825309
0 0.973374 0.0910653 0.838557
0 0.973382 0.091072 0.62773
0 0.97339 0.0910698 0.734823
0 0.973402 0.0910945 0.90401
0 0.973406 0.0910823 0.588491
0 0.972492 0.171503 319.935
0 0.973356 0.0910664 0.932109
0 0.973297 0.091125 1.27034
0 0.973117 0.0911696 0.802069
0 0.973246 0.0911295 0.912285
0 0.973004 0.0912971 1.18314
0 0.973144 0.0911295 0.768606
0 0.973028 0.091308 2.82723
0 0.973438 0.0910244 0.877915
0 0.973442 0.0910285 0.616581
0 0.973409 0.0910314 1.17908
0 0.973392 0.0910511 1.12483
0 0.973365 0.0910535 1.46357
0 0.973391 0.0910663 1.36438
0 0.973449 0.0910113 1.0741
0 0.972947 0.174036 385.774
0 0.972706 0.0912441 1.52418
0 0.973019 0.0911496 1.20371
0 0.973367 0.0911057 0.960143
0 0.973247 0.0911365 0.89699
0 0.973421 0.0910482 0.729294
0 0.973414 0.091072 0.68922
0 0.973405 0.0910847 0.712428
0 0.973421 0.0910862 0.652294
0 0.972934 0.0912928 3.12789
0 0.972629 0.169187 423.756
0 0.97333 0.0910623 1.37806
0 0.973263 0.0911059 1.31483
0 0.97317 0.0911623 1.56674
0 0.973263 0.0911226 1.95593
0 0.973005 0.091252 3.73878
0 0.973172 0.0911735 2.43846
0 0.973367 0.09106 2.17034
0 0.973456 0.0910373 0.55428
0 0.973465 0.0910064 0.500035
0 0.973422 0.0910267 1.47045
0 0.973401 0.091053 1.84039
0 0.973403 0.0910587 2.03383
0 0.973455 0.0910084 1.26467
0 0.973471 0.090995 0.697159
0 0.972952 0.0912452 3.10398
0 0.972859 0.173107 408.5
0 0.973379 0.0910825 0.830303
0 0.973042 0.0911195 0.838818
0 0.973196 0.0911208 0.37407
0 0.973325 0.0910938 0.831254
0 0.973118 0.0911415 2.29408
0 0.973436 0.0910678 0.763163
0 0.973417 0.0910914 0.793284
0 0.973458 0.0910579 0.664172
0 0.973387 0.0910967 1.08183
0 0.973157 0.0913526 5.00326
0 0.973076 0.170885 295.731
0 0.973337 0.0910749 2.27893
0 0.973291 0.0911215 2.32924
0 0.973162 0.091177 2.4442
0 0.973283 0.0911447 2.47471
0 0.97317 0.0912079 1.39905
0 0.973379 0.0910588 1.92396
0 0.97347 0.0910087 0.12056
0 0.973434 0.0910268 1.56909
0 0.973419 0.0910599 1.62461
0 0.973461 0.0910121 1.02174
0 0.973466 0.091009 0.335906
0 0.972956 0.0914185 2.70857
0 0.97281 0.171925 355.145
0 0.973337 0.0910726 1.05201
0 0.973196 0.0911 1.25645
0 0.973278 0.0910848 0.977081
0 0.973149 0.0912184 3.47426
0 0.973196 0.0911147 2.04487
0 0.973435 0.0910869 0.854543
0 0.973409 0.0910855 0.941476
0 0.97345 0.0910559 0.543439
0 0.973374 0.0910893 1.10408
0 0.973322 0.0910954 1.25595
0 0.973092 0.0912637 3.194
0 0.973103 0.0914392 5.67841
0 0.973163 0.169876 416.528
0 0.973355 0.0910806 2.0551
0 0.973309 0.0911366 2.11252
0 0.973228 0.0912558 0.74091
0 0.973319 0.0911545 1.45913
0 0.973394 0.0910681 1.56159
0 0.973422 0.0910734 1.35888
0 0.973448 0.0910389 0.322006
0 0.97344 0.0910401 1.12775
0 0.973455 0.0910392 0.776336
0 0.973435 0.091055 0.161629
0 0.973443 0.0910568 0.366525
0 0.973292 0.0912518 2.00623
0 0.973131 0.0915768 3.92263
0 0.972888 0.170953 284.614
0 0.973258 0.0910786 1.36239
0 0.973188 0.0911435 2.19919
0 0.973143 0.0911686 2.02013
0 0.97328 0.0910951 1.25376
0 0.973405 0.0910781 0.799794
0 0.973345 0.091097 1.07598
0 0.97306 0.0912218 1.85541
0 0.972955 0.0916176 4.75801
0 0.973003 0.170553 291.701
0 0.973376 0.091076 1.49381
0 0.973357 0.0911248 1.49305
0 0.973363 0.091153 2.05509
0 0.9734 0.0910805 1.11704
0 0.973418 0.0910841 0.951606
0 0.973401 0.0910762 0.558491
0 0.973387 0.0911037 0.382556
0 0.973422 0.0910803 0.624244
0 0.973397 0.0911103 0.323711
0 0.973298 0.0912335 2.47456
0 0.973198 0.091556 3.37294
0 0.973161 0.17298 344.699
0 0.973219 0.0911018 1.46128
0 0.973151 0.0911251 1.28322
0 0.973275 0.0911097 1.09687
0 0.973346 0.0910971 0.815286
0 0.973158 0.0911359 1.23755
0 0.973109 0.0911818 1.4643
0 0.973012 0.091354 1.61228
0 0.972866 0.168916 339.543
0 0.973381 0.0910863 1.01499
0 0.973354 0.091131 1.80517
0 0.973382 0.0911063 0.670935
0 0.973391 0.0911223 0.624207
0 0.973332 0.091113 0.576816
0 0.973329 0.0911436 0.415257
0 0.973367 0.0911307 0.404497
0 0.973331 0.0911396 0.290013
0 0.973331 0.0911505 1.48505
0 0.973293 0.091234 2.08586
0 0.973159 0.0915417 3.05012
0 0.973066 0.168904 342.39
0 0.973212 0.0911217 1.04236
0 0.973271 0.0911219 0.786508
0 0.973187 0.0911439 1.20783
0 0.973186 0.0911998 2.3719
0 0.973236 0.0913237 3.28555
0 0.973165 0.1749 374.009
0 0.973344 0.0910815 0.881852
0 0.973339 0.0910995 0.492972
0 0.973265 0.0911374 0.480345
0 0.973265 0.0911197 0.147901
0 0.973294 0.0911006 0.304966
0 0.973299 0.0911209 1.00044
0 0.973289 0.0912121 0.9523
0 0.973219 0.0914643 2.95954
0 0.973134 0.17032 364.476
0 0.973217 0.0911412 0.704556
0 0.973192 0.0911724 1.43156
0 0.973227 0.0912009 2.04988
0 0.973339 0.0914338 3.40416
0 0.973384 0.173864 416.481
0 0.973282 0.0910779 0.676247
0 0.97321 0.0911343 0.321592
0 0.973225 0.0910953 0.408696
0 0.973249 0.0911072 0.732696
0 0.973258 0.0911726 0.642506
0 0.973255 0.0913889 2.24339
0 0.973199 0.171553 297.121
0 0.973185 0.0911829 1.05097
0 0.973217 0.0912047 1.77227
0 0.973349 0.091334 2.26213
0 0.973444 0.170685 344.06
0 0.973152 0.0911949 0.736758
0 0.973201 0.0911046 0.574401
0 0.973148 0.0911625 0.169695
0 0.973147 0.0911382 0.466057
0 0.973192 0.0911403 1.1894
0 0.973226 0.0914086 1.91342
0 0.973263 0.171001 329.835
0 0.97316 0.0912203 1.30072
0 0.973264 0.0912961 1.20421
0 0.97339 0.172595 270.873
0 0.973084 0.091212 0.506302
0 0.973113 0.091153 1.03868
0 0.97306 0.0911976 0.699329
0 0.973147 0.0912619 2.51257
0 0.973183 0.16792 352.177
0 0.973116 0.0913079 1.03253
0 0.973222 0.172631 402.788
0 0.972972 0.0913556 0.759595
0 0.973014 0.0914308 2.87622
0 0.97309 0.169679 392.387
0 0.973018 0.171139 321.333
0 0.972905 0.167568 333.784
VECTORS fa_u float
0.00672221 0.00280094 -0
0.00494507 0.00285985 -0
0.00653447 0.00173863 -0
0.00575903 0.000767956 -0
1e-08 0 0
0.00545864 0.00416561 -0
0.00455055 0.00452859 -0
1e-08 0 0
1e-08 0 0
0.00430234 0.00559165 -0
0.00292961 0.00503731 -0
0.00668936 3.65342e-05 -0
0.00651591 -0.000822407 0
1e-08 0 0
1e-08 0 0
1e-08 0 0
1e-08 0 0
1e-08 0 0
1e-08 0 0
1e-08 0 0
1e-08 0 0
0.00297009 0.00713154 -0
0.00165137 0.0062271 -0
1e-08 0 0
1e-08 0 0
1e-08 0 0
0.0073947 -0.0019763 0
1e-08 0 0
0.00598109 -0.0025039 0
1e-08 0 0
1e-08 0 0
1e-08 0 0
0.000852854 0.00656509 -0
1e-08 0 0
1e-08 0 0
1e-08 0 0
1e-08 0 0
1e-08 0 0
1e-08 0 0
1e-08 0 0
1e-08 0 0
1e-08 0 0
1e-08 0 0
-5.82424e-06 0.00643948 -0
1e-08 0 0
1e-08 0 0
1e-08 0 0
0.00599707 -0.00350107 0
1e-08 0 0
0.00482824 -0.00373365 0
1e-08 0 0
1e-08 0 0
1e-08 0 0
1e-08 0 0
1e-08 0 0
1e-08 0 0
1e-08 0 0
1e-08 0 0
1e-08 0 0
1e-08 0 0
1e-08 0 0
1e-08 0 0
1e-08 0 0
-0.00102047 0.00748659 0
1e-08 0 0
1e-08 0 0
1e-08 0 0
1e-08 0 0
1e-08 0 0
0.00487863 -0.00490526 0
1e-08 0 0
0.00309343 -0.00399711 0
1e-08 0 0
1e-08 0 0
1e-08 0 0
1e-08 0 0
1e-08 0 0
1e-08 0 0
1e-08 0 0
1e-08 0 0
1e-08 0 0
1e-08 0 0
1e-08 0 0
1e-08 0 0
1e-08 0 0
-0.00134317 0.00498637 0
1e-08 0 0
1e-08 0 0
1e-08 0 0
1e-08 0 0
1e-08 0 0
1e-08 0 0
0.00385609 -0.00656212 0
1e-08 0 0
1e-08 0 0
1e-08 0 0
1e-08 0 0
1e-08 0 0
0.00294046 -0.00714863 0
1e-08 0 0
1e-08 0 0
1e-08 0 0
1e-08 0 0
1e-08 0 0
1e-08 0 0
1e-08 0 0
1e-08 0 0
1e-08 0 0
1e-08 0 0
-0.00268351 0.00655401 0
1e-08 0 0
1e-08 0 0
1e-08 0 0
1e-08 0 0
1e-08 0 0
1e-08 0 0
1e-08 0 0
1e-08 0 0
1e-08 0 0
1e-08 0 0
1e-08 0 0
1e-08 0 0
1e-08 0 0
1e-08 0 0
0.00157367 -0.00601066 0
1e-08 0 0
1e-08 0 0
1e-08 0 0
1e-08 0 0
1e-08 0 0
1e-08 0 0
1e-08 0 0
1e-08 0 0
1e-08 0 0
-0.00361146 0.00623905 0
1e-08 0 0
1e-08 0 0
1e-08 0 0
1e-08 0 0
1e-08 0 0
1e-08 0 0
1e-08 0 0
1e-08 0 0
1e-08 0 0
1e-08 0 0
1e-08 0 0
1e-08 0 0
1e-08 0 0
1e-08 0 0
1e-08 0 0
0.000711782 -0.00528146 0
1e-08 0 0
1e-08 0 0
1e-08 0 0
1e-08 0 0
1e-08 0 0
1e-08 0 0
1e-08 0 0
1e-08 0 0
1e-08 0 0
1e-08 0 0
-0.00397708 0.00514617 0
1e-08 0 0
1e-08 0 0
1e-08 0 0
1e-08 0 0
1e-08 0 0
1e-08 0 0
1e-08 0 0
1e-08 0 0
1e-08 0 0
1e-08 0 0
1e-08 0 0
1e-08 0 0
3.50058e-05 -0.00768632 0
1e-08 0 0
1e-08 0 0
1e-08 0 0
1e-08 0 0
1e-08 0 0
1e-08 0 0
1e-08 0 0
1e-08 0 0
1e-08 0 0
1e-08 0 0
1e-08 0 0
1e-08 0 0
-0.00402486 0.00403981 0
1e-08 0 0
1e-08 0 0
1e-08 0 0
1e-08 0 0
1e-08 0 0
1e-08 0 0
1e-08 0 0
1e-08 0 0
1e-08 0 0
1e-08 0 0
1e-08 0 0
1e-08 0 0
1e-08 0 0
-0.000798191 -0.00613682 0
1e-08 0 0
1e-08 0 0
1e-08 0 0
1e-08 0 0
1e-08 0 0
1e-08 0 0
1e-08 0 0
1e-08 0 0
-0.00517215 0.00402554 0
1e-08 0 0
1e-08 0 0
1e-08 0 0
1e-08 0 0
1e-08 0 0
1e-08 0 0
1e-08 0 0
1e-08 0 0
1e-08 0 0
1e-08 0 0
1e-08 0 0
-0.00182743 -0.00685575 0
1e-08 0 0
1e-08 0 0
1e-08 0 0
1e-08 0 0
1e-08 0 0
1e-08 0 0
1e-08 0 0
-0.00604791 0.00353426 0
1e-08 0 0
1e-08 0 0
1e-08 0 0
1e-08 0 0
1e-08 0 0
1e-08 0 0
1e-08 0 0
1e-08 0 0
1e-08 0 0
1e-08 0 0
1e-08 0 0
-0.00254338 -0.00612017 0
1e-08 0 0
1e-08 0 0
1e-08 0 0
1e-08 0 0
1e-08 0 0
-0.00752021 0.00308165 0
1e-08 0 0
1e-08 0 0
1e-08 0 0
1e-08 0 0
1e-08 0 0
1e-08 0 0
1e-08 0 0
1e-08 0 0
-0.00322651 -0.00558358 0
1e-08 0 0
1e-08 0 0
1e-08 0 0
1e-08 0 0
-0.00495906 0.00131226 0
1e-08 0 0
1e-08 0 0
1e-08 0 0
1e-08 0 0
1e-08 0 0
1e-08 0 0
-0.00460818 -0.00595594 0
1e-08 0 0
1e-08 0 0
1e-08 0 0
-0.00709252 0.000948645 0
1e-08 0 0
1e-08 0 0
1e-08 0 0
1e-08 0 0
1e-08 0 0
1e-08 0 0
-0.0037582 -0.00374688 0
1e-08 0 0
1e-08 0 0
-0.00716214 -2.31157e-05 0
1e-08 0 0
1e-08 0 0
1e-08 0 0
1e-08 0 0
-0.00616735 -0.00473094 0
1e-08 0 0
-0.00597782 -0.000805295 0
1e-08 0 0
1e-08 0 0
-0.0050072 -0.00288163 0
-0.0061546 -0.00164055 0
-0.00662792 -0.00274673 0
