# vtk DataFile Version 2.0
CellBP Time: 3.2
ASCII
DATASET UNSTRUCTURED_GRID
POINTS 296 double
-8.98463 -3.68794 0
-8.41265 -4.83447 0
-9.39216 -2.47284 0
-9.64761 -1.22386 0
-8.2765 -2.78318 0
-7.70957 -5.90732 0
-6.86141 -6.8686 0
-7.8363 -3.82981 0
-7.26545 -4.81844 0
-5.9042 -7.71357 0
-4.85233 -8.43423 0
-9.73503 0.0467718 0
-9.6679 1.32501 0
-8.58259 -1.66343 0
-8.71699 -0.523202 0
-7.51116 -1.97603 0
-7.145 -2.86743 0
-6.57522 -5.73032 0
-5.77481 -6.54948 0
-6.71266 -3.84171 0
-6.15328 -4.62816 0
-3.70423 -9.00247 0
-2.4881 -9.41743 0
-4.87399 -7.26293 0
-3.89556 -7.84217 0
-8.72959 0.635914 0
-9.4227 2.58724 0
-8.56691 1.75733 0
-9.00649 3.79956 0
-7.67134 -0.914421 0
-7.72675 0.0825793 0
-6.88256 -1.29661 0
-1.22458 -9.65536 0
-6.37735 -2.12661 0
-6.25395 -3.01974 0
-5.48275 -5.42776 0
-4.7549 -6.06978 0
-5.60106 -3.71791 0
-5.21368 -4.51727 0
-2.85224 -8.31526 0
-1.76645 -8.58701 0
-3.90105 -6.67928 0
-3.04209 -7.10971 0
0.0517404 -9.73889 0
-7.64302 1.13332 0
-8.29097 2.89778 0
-7.49437 2.09136 0
-8.42687 4.94116 0
-7.82412 3.94835 0
-7.71117 6.00492 0
-6.71523 -0.389045 0
-6.89351 0.550304 0
-5.72352 -0.993473 0
-0.586226 -8.74977 0
0.557152 -8.7022 0
-5.25788 -2.45555 0
-4.4465 -5.05115 0
-3.86797 -5.73115 0
-4.40127 -3.77268 0
-2.05005 -7.51444 0
-1.12874 -7.73264 0
-2.97208 -6.05933 0
-2.29634 -6.57726 0
1.32262 -9.64244 0
-6.63451 1.40848 0
-7.11385 3.09018 0
-6.6056 2.35165 0
-7.23586 4.94699 0
-6.66277 3.96646 0
-6.86346 6.9603 0
-6.51839 5.84253 0
-5.89919 7.80187 0
-4.42774 -1.17546 0
-5.77173 0.50639 0
-4.63064 -0.0159532 0
0.00265819 -7.78615 0
1.71663 -8.56664 0
0.932288 -7.69462 0
-4.01498 -2.38985 0
-3.47634 -1.38781 0
-3.27081 -4.77087 0
-3.25076 -3.24782 0
-1.37349 -6.62717 0
-0.512027 -6.96918 0
-1.96474 -5.50216 0
2.57715 -9.39127 0
-5.4669 2.02218 0
-6.0451 3.0437 0
-6.05389 4.82384 0
-5.71303 3.95174 0
-5.71259 6.65564 0
-5.40522 5.56506 0
-4.84558 8.52816 0
-4.79583 7.33463 0
-3.48927 -0.423518 0
-4.42223 1.24114 0
-3.69403 0.589248 0
-4.03601 2.31089 0
-3.70206 9.09901 0
2.82702 -8.24835 0
0.405137 -6.73335 0
1.9925 -7.44978 0
1.28207 -6.83655 0
-2.43975 -0.870193 0
-2.83074 -2.12275 0
-2.28503 -4.07375 0
-2.31783 -2.95916 0
-0.445501 -5.81548 0
-1.21504 -4.47417 0
3.79033 -8.9833 0
-4.75309 3.3648 0
-5.04467 4.54911 0
-4.60551 6.2187 0
-4.49919 5.30651 0
-3.81463 7.92796 0
-3.79037 6.77526 0
-2.75873 8.34972 0
-1.64686 -0.134648 0
-1.44737 -0.887542 0
-2.48478 0.510232 0
-3.23849 1.44118 0
-3.21872 3.29754 0
-2.8967 2.36725 0
-1.35475 0.63026 0
-2.48559 9.50019 0
3.88879 -7.80645 0
2.92315 -7.07576 0
0.937073 -5.76847 0
2.04326 -6.34673 0
-1.67797 -1.98693 0
-1.42809 -3.26245 0
0.0869103 -4.71395 0
-0.561071 -3.67726 0
4.88199 -7.24211 0
4.94125 -8.4261 0
-3.74761 4.51314 0
-3.70242 5.69714 0
-2.85923 7.21921 0
-2.98272 6.29362 0
-1.6476 8.66478 0
-1.92009 7.5531 0
-2.32547 4.02653 0
-0.728746 -1.3247 0
-0.836308 -0.254886 0
-1.93421 1.68317 0
-2.11834 2.86787 0
-1.30397 3.53103 0
-0.8713 1.35376 0
-0.284075 0.458401 0
-0.52805 8.80937 0
-1.22667 9.74511 0
1.09996 -4.53787 0
3.85975 -6.63373 0
2.94921 -6.02508 0
2.09101 -5.37008 0
4.73395 -6.13258 0
-0.555552 -2.46969 0
0.493661 -3.44658 0
0.0542754 -1.60845 0
1.46947 -3.65581 0
5.81488 -6.54699 0
6.00126 -7.70588 0
-2.45697 5.30483 0
-2.10917 6.47574 0
-0.893164 7.7427 0
-1.25629 6.87254 0
0.0886024 7.82548 0
-1.13906 4.46865 0
0.149287 -0.615605 0
-0.800759 2.48885 0
-0.335976 3.59054 0
0.0592895 1.51406 0
0.73778 0.474074 0
0.641885 8.81919 0
0.0478974 9.84595 0
2.35698 -4.24524 0
3.81585 -5.57409 0
2.96709 -5.15605 0
5.52524 -5.43362 0
4.64378 -5.21969 0
0.630195 -2.28992 0
1.24941 -2.93672 0
0.756348 -1.39 0
2.14895 -3.11468 0
2.97011 -3.44732 0
6.10868 -4.74619 0
6.60589 -5.71766 0
6.96472 -6.85873 0
-1.00955 5.77657 0
-0.363994 6.82983 0
1.1166 7.72154 0
0.558319 7.03094 0
-0.00276669 4.70095 0
0.600756 3.81344 0
1.33569 -0.641758 0
0.53346 2.64621 0
0.960513 1.57473 0
1.90474 0.212685 0
1.60868 1.06395 0
2.11926 7.53932 0
1.78984 8.66144 0
1.32719 9.75948 0
3.78774 -4.30589 0
5.0717 -4.39807 0
5.80216 -3.89602 0
3.75622 -3.17364 0
1.80637 -1.88016 0
3.00087 -2.55892 0
6.73938 -3.91688 0
7.33436 -4.86103 0
7.81282 -5.90221 0
0.482752 5.84362 0
1.42206 6.69978 0
2.36324 6.63005 0
1.20247 4.53448 0
1.48067 3.38417 0
2.427 -0.690939 0
2.81753 0.142549 0
1.78138 2.15827 0
2.60391 1.14741 0
3.05761 7.12875 0
2.892 8.32981 0
2.58879 9.5143 0
4.87458 -3.29485 0
6.07976 -3.08085 0
4.14798 -2.26129 0
3.2289 -1.49806 0
6.69274 -2.299 0
7.1909 -3.02512 0
7.92069 -3.89217 0
8.53789 -4.85233 0
2.01447 5.56784 0
3.06368 6.11364 0
2.35479 4.10535 0
2.41121 3.04743 0
3.50953 -0.457843 0
3.60033 0.613956 0
2.94958 2.27857 0
3.52766 1.51937 0
3.97753 5.85631 0
3.95753 6.75037 0
3.9557 7.8947 0
3.80648 9.10605 0
5.53619 -1.90337 0
4.48545 -1.12274 0
6.67259 -1.3269 0
7.54903 -2.02332 0
8.3507 -2.84641 0
9.10492 -3.70489 0
3.39077 4.84319 0
3.31699 3.36444 0
4.66552 0.132005 0
4.48853 1.30117 0
4.03483 2.42651 0
4.52417 5.11051 0
4.80301 6.1469 0
4.94821 7.3347 0
4.95202 8.5327 0
5.84414 -0.433713 0
6.9621 -0.487494 0
7.71281 -1.07552 0
8.63508 -1.73322 0
9.50874 -2.48536 0
4.50961 3.79598 0
5.76988 1.08511 0
5.32088 2.50983 0
5.32158 4.57775 0
5.55827 5.47881 0
5.84962 6.62515 0
6.01125 7.82254 0
6.79073 0.453283 0
7.79829 -0.0272687 0
8.80619 -0.576506 0
9.76263 -1.22457 0
6.89787 1.3299 0
5.66014 3.74066 0
6.47669 2.1697 0
6.31227 3.05253 0
6.22485 4.64169 0
6.63077 5.79009 0
6.96227 6.96756 0
7.72193 0.954906 0
8.79631 0.567755 0
9.83622 0.0540089 0
7.54626 1.97981 0
6.75036 3.85901 0
7.1935 2.91107 0
7.30855 4.84172 0
7.81399 6.00842 0
8.65113 1.70897 0
9.74763 1.32591 0
8.34139 2.80683 0
7.90827 3.87885 0
8.52516 4.94275 0
9.49835 2.58148 0
9.08486 3.79238 0
CELLS 542 2168
3 2 0 4
3 0 1 7
3 4 0 7
3 1 5 8
3 7 1 8
3 3 2 13
3 13 2 4
3 11 3 14
3 14 3 13
3 13 4 15
3 4 7 16
3 15 4 16
3 5 6 17
3 8 5 17
3 6 9 18
3 17 6 18
3 7 8 19
3 16 7 19
3 8 17 20
3 19 8 20
3 9 10 23
3 18 9 23
3 10 21 24
3 23 10 24
3 12 11 25
3 25 11 14
3 26 12 27
3 27 12 25
3 14 13 29
3 29 13 15
3 25 14 30
3 30 14 29
3 29 15 31
3 15 16 33
3 31 15 33
3 16 19 34
3 33 16 34
3 17 18 35
3 20 17 35
3 18 23 36
3 35 18 36
3 19 20 37
3 34 19 37
3 20 35 38
3 37 20 38
3 21 22 39
3 24 21 39
3 22 32 40
3 39 22 40
3 23 24 41
3 36 23 41
3 24 39 42
3 41 24 42
3 27 25 44
3 44 25 30
3 28 26 45
3 45 26 27
3 45 27 46
3 46 27 44
3 47 28 48
3 48 28 45
3 30 29 50
3 50 29 31
3 44 30 51
3 51 30 50
3 50 31 52
3 31 33 52
3 32 43 53
3 40 32 53
3 53 43 54
3 33 34 55
3 34 37 55
3 33 55 52
3 35 36 56
3 38 35 56
3 36 41 57
3 56 36 57
3 37 38 58
3 38 56 58
3 37 58 55
3 39 40 59
3 42 39 59
3 40 53 60
3 59 40 60
3 41 42 61
3 57 41 61
3 42 59 62
3 61 42 62
3 43 63 54
3 46 44 64
3 64 44 51
3 48 45 65
3 65 45 46
3 65 46 66
3 66 46 64
3 49 47 67
3 67 47 48
3 67 48 68
3 68 48 65
3 69 49 70
3 70 49 67
3 52 55 72
3 64 51 73
3 51 50 73
3 50 52 73
3 73 52 74
3 74 52 72
3 53 54 75
3 60 53 75
3 54 63 76
3 54 76 77
3 75 54 77
3 55 58 78
3 72 55 78
3 72 78 79
3 56 57 80
3 57 61 80
3 56 80 58
3 58 80 81
3 78 58 81
3 59 60 82
3 62 59 82
3 60 75 83
3 82 60 83
3 61 62 84
3 62 82 84
3 61 84 80
3 63 85 76
3 66 64 86
3 64 73 86
3 68 65 87
3 87 65 66
3 87 66 86
3 70 67 88
3 88 67 68
3 88 68 89
3 89 68 87
3 71 69 90
3 90 69 70
3 90 70 91
3 91 70 88
3 92 71 93
3 93 71 90
3 74 72 94
3 94 72 79
3 86 73 95
3 95 73 74
3 95 74 96
3 96 74 94
3 97 86 95
3 76 85 99
3 75 77 100
3 83 75 100
3 76 99 101
3 77 76 101
3 77 101 102
3 100 77 102
3 94 79 103
3 78 81 104
3 79 78 104
3 79 104 103
3 80 84 105
3 81 80 105
3 81 105 106
3 104 81 106
3 82 83 107
3 83 100 107
3 82 107 84
3 84 107 108
3 105 84 108
3 85 109 99
3 89 87 110
3 87 86 110
3 110 86 97
3 91 88 111
3 111 88 89
3 111 89 110
3 93 90 112
3 112 90 91
3 112 91 113
3 113 91 111
3 98 92 114
3 114 92 93
3 114 93 115
3 115 93 112
3 116 98 114
3 117 103 118
3 96 94 119
3 94 103 119
3 119 103 117
3 97 95 120
3 120 95 96
3 120 96 119
3 121 110 97
3 121 97 122
3 122 97 120
3 123 119 117
3 124 98 116
3 99 109 125
3 99 125 126
3 101 99 126
3 100 102 127
3 100 127 107
3 101 126 128
3 102 101 128
3 102 128 127
3 104 106 129
3 104 129 103
3 103 129 118
3 105 108 130
3 106 105 130
3 106 130 129
3 107 127 131
3 108 107 131
3 108 131 132
3 108 132 130
3 109 134 125
3 125 134 133
3 113 111 135
3 111 110 135
3 135 110 121
3 115 112 136
3 136 112 113
3 136 113 135
3 116 114 137
3 137 114 115
3 137 115 138
3 138 115 136
3 139 124 116
3 139 116 140
3 140 116 137
3 141 135 121
3 118 129 142
3 118 142 143
3 117 118 143
3 123 117 143
3 122 120 144
3 120 119 144
3 144 119 123
3 141 121 145
3 145 121 122
3 145 122 144
3 146 141 145
3 147 144 123
3 147 123 148
3 143 148 123
3 150 124 139
3 149 150 139
3 131 127 151
3 125 133 152
3 126 125 152
3 126 152 153
3 128 126 153
3 128 153 154
3 128 154 127
3 127 154 151
3 152 133 155
3 130 132 156
3 130 156 129
3 129 156 142
3 131 151 157
3 132 131 157
3 132 157 156
3 156 158 142
3 157 151 159
3 133 160 155
3 134 161 133
3 133 161 160
3 138 136 162
3 136 135 162
3 162 135 141
3 140 137 163
3 163 137 138
3 163 138 162
3 149 139 164
3 164 139 140
3 164 140 165
3 165 140 163
3 166 149 164
3 167 162 141
3 167 141 146
3 142 158 168
3 143 142 168
3 143 168 148
3 146 145 169
3 145 144 169
3 169 144 147
3 170 167 146
3 170 146 169
3 171 169 147
3 171 147 148
3 171 148 172
3 168 172 148
3 173 149 166
3 174 150 149
3 173 174 149
3 154 175 151
3 151 175 159
3 152 155 176
3 153 152 176
3 153 176 177
3 153 177 154
3 154 177 175
3 155 160 178
3 155 178 179
3 176 155 179
3 156 157 180
3 156 180 158
3 157 159 181
3 157 181 180
3 158 180 182
3 158 182 168
3 159 175 183
3 159 183 181
3 175 184 183
3 160 186 178
3 178 186 185
3 161 187 160
3 160 187 186
3 165 163 188
3 163 162 188
3 188 162 167
3 166 164 189
3 189 164 165
3 189 165 188
3 190 173 166
3 190 166 191
3 191 166 189
3 192 188 167
3 192 167 170
3 193 192 170
3 182 194 168
3 194 172 168
3 193 170 195
3 170 169 195
3 195 169 171
3 196 195 171
3 196 171 172
3 194 197 172
3 197 198 172
3 198 196 172
3 200 173 190
3 199 200 190
3 201 174 173
3 200 201 173
3 176 179 202
3 177 176 202
3 177 202 175
3 175 202 184
3 178 185 203
3 178 203 179
3 179 203 202
3 203 185 204
3 202 205 184
3 183 206 181
3 180 181 206
3 180 206 182
3 182 206 194
3 183 184 207
3 205 207 184
3 183 207 206
3 185 208 204
3 186 209 185
3 185 209 208
3 187 210 186
3 186 210 209
3 191 189 211
3 189 188 211
3 211 188 192
3 199 190 212
3 212 190 191
3 212 191 211
3 213 199 212
3 214 211 192
3 214 192 193
3 215 214 193
3 215 193 195
3 206 216 194
3 216 197 194
3 216 217 197
3 215 195 218
3 218 195 196
3 198 218 196
3 217 219 197
3 219 218 198
3 197 219 198
3 220 199 213
3 221 200 199
3 220 221 199
3 222 201 200
3 221 222 200
3 203 204 223
3 203 223 202
3 202 223 205
3 204 208 224
3 204 224 223
3 205 223 225
3 205 225 207
3 207 225 226
3 207 226 206
3 226 216 206
3 208 228 224
3 224 228 227
3 209 229 208
3 229 228 208
3 210 230 209
3 209 230 229
3 213 212 231
3 212 211 231
3 231 211 214
3 232 220 213
3 232 213 231
3 233 231 214
3 233 214 215
3 234 233 215
3 234 215 218
3 226 235 216
3 235 217 216
3 235 236 217
3 217 236 219
3 237 234 218
3 237 218 219
3 236 238 219
3 238 237 219
3 240 220 232
3 239 240 232
3 241 221 220
3 240 241 220
3 242 222 221
3 241 242 221
3 224 227 243
3 224 243 223
3 223 243 225
3 225 243 244
3 225 244 226
3 226 244 235
3 227 245 243
3 228 246 227
3 227 246 245
3 229 247 228
3 228 247 246
3 230 248 229
3 229 248 247
3 239 232 249
3 232 231 249
3 249 231 233
3 250 249 233
3 250 233 234
3 237 250 234
3 244 251 235
3 235 251 236
3 251 252 236
3 236 252 238
3 252 253 238
3 253 250 237
3 253 237 238
3 254 239 249
3 255 240 239
3 254 255 239
3 256 241 240
3 255 256 240
3 257 242 241
3 256 257 241
3 245 258 243
3 243 258 244
3 244 258 251
3 245 259 258
3 246 260 245
3 245 260 259
3 247 261 246
3 246 261 260
3 248 262 247
3 247 262 261
3 254 249 263
3 263 249 250
3 253 263 250
3 258 264 251
3 251 264 252
3 264 265 252
3 265 263 253
3 252 265 253
3 266 254 263
3 267 255 254
3 266 267 254
3 268 256 255
3 267 268 255
3 269 257 256
3 268 269 256
3 259 270 258
3 270 264 258
3 260 271 259
3 259 271 270
3 261 272 260
3 260 272 271
3 262 273 261
3 273 272 261
3 270 274 264
3 275 266 263
3 275 263 265
3 274 276 264
3 276 265 264
3 276 277 265
3 277 275 265
3 278 267 266
3 275 278 266
3 279 268 267
3 278 279 267
3 280 269 268
3 279 280 268
3 271 281 270
3 270 281 274
3 272 282 271
3 271 282 281
3 273 283 272
3 272 283 282
3 281 284 274
3 274 284 276
3 285 278 275
3 277 285 275
3 284 286 276
3 286 285 277
3 276 286 277
3 287 279 278
3 285 287 278
3 288 280 279
3 287 288 279
3 282 289 281
3 281 289 284
3 283 290 282
3 282 290 289
3 289 291 284
3 284 291 286
3 291 292 286
3 292 287 285
3 286 292 285
3 293 288 287
3 292 293 287
3 290 294 289
3 289 294 291
3 294 295 291
3 295 293 292
3 291 295 292
CELL_TYPES 542
5
5
5
5
5
5
5
5
5
5
5
5
5
5
5
5
5
5
5
5
5
5
5
5
5
5
5
5
5
5
5
5
5
5
5
5
5
5
5
5
5
5
5
5
5
5
5
5
5
5
5
5
5
5
5
5
5
5
5
5
5
5
5
5
5
5
5
5
5
5
5
5
5
5
5
5
5
5
5
5
5
5
5
5
5
5
5
5
5
5
5
5
5
5
5
5
5
5
5
5
5
5
5
5
5
5
5
5
5
5
5
5
5
5
5
5
5
5
5
5
5
5
5
5
5
5
5
5
5
5
5
5
5
5
5
5
5
5
5
5
5
5
5
5
5
5
5
5
5
5
5
5
5
5
5
5
5
5
5
5
5
5
5
5
5
5
5
5
5
5
5
5
5
5
5
5
5
5
5
5
5
5
5
5
5
5
5
5
5
5
5
5
5
5
5
5
5
5
5
5
5
5
5
5
5
5
5
5
5
5
5
5
5
5
5
5
5
5
5
5
5
5
5
5
5
5
5
5
5
5
5
5
5
5
5
5
5
5
5
5
5
5
5
5
5
5
5
5
5
5
5
5
5
5
5
5
5
5
5
5
5
5
5
5
5
5
5
5
5
5
5
5
5
5
5
5
5
5
5
5
5
5
5
5
5
5
5
5
5
5
5
5
5
5
5
5
5
5
5
5
5
5
5
5
5
5
5
5
5
5
5
5
5
5
5
5
5
5
5
5
5
5
5
5
5
5
5
5
5
5
5
5
5
5
5
5
5
5
5
5
5
5
5
5
5
5
5
5
5
5
5
5
5
5
5
5
5
5
5
5
5
5
5
5
5
5
5
5
5
5
5
5
5
5
5
5
5
5
5
5
5
5
5
5
5
5
5
5
5
5
5
5
5
5
5
5
5
5
5
5
5
5
5
5
5
5
5
5
5
5
5
5
5
5
5
5
5
5
5
5
5
5
5
5
5
5
5
5
5
5
5
5
5
5
5
5
5
5
5
5
5
5
5
5
5
5
5
5
5
5
5
5
5
5
5
5
5
5
5
5
5
5
5
5
5
5
5
5
5
5
5
5
5
5
5
5
5
5
5
5
5
5
5
5
5
5
5
5
5
5
5
5
5
5
5
5
5
5
5
5
5
5
5
5
5
5
5
5
5
5
5
5
5
5
5
5
5
5
5
5
5
5
5
5
5
5
5
5
5
5
5
5
5
5
5
5
5
5
5
5
5
5
POINT_DATA 296
SCALARS concentrations float 4
LOOKUP_TABLE default
0 0.957253 0.138063 275.793
0 0.957499 0.140958 252.602
0 0.957189 0.137514 200.472
0 0.957657 0.138927 210.869
0 0.957329 0.0917238 5.59322
0 0.957627 0.13668 96.2144
0 0.957664 0.137526 186.962
0 0.957489 0.0915848 1.48877
0 0.957641 0.0915107 2.41754
0 0.957733 0.137621 330.228
0 0.957927 0.138817 173.428
0 0.957875 0.139612 267.214
0 0.957632 0.136272 105.383
0 0.957502 0.0917803 8.49261
0 0.957809 0.0917416 7.31203
0 0.957637 0.091309 2.80232
0 0.957629 0.0911963 1.90207
0 0.957709 0.0915723 4.43893
0 0.957742 0.091633 5.43358
0 0.957712 0.0911953 1.32206
0 0.957786 0.0912729 2.05633
0 0.958051 0.138535 168.456
0 0.958189 0.139945 88.7129
0 0.957852 0.0914516 5.48782
0 0.957971 0.0917983 6.77215
0 0.957794 0.0916474 5.06111
0 0.957341 0.135197 241.906
0 0.957546 0.0916626 1.42738
0 0.957466 0.138551 224.863
0 0.957746 0.0913287 3.37005
0 0.957822 0.0913019 2.41214
0 0.957818 0.0911738 1.69714
0 0.957932 0.139067 279.362
0 0.957816 0.0910757 0.606627
0 0.95781 0.091094 0.644215
0 0.957824 0.0912828 2.81465
0 0.957863 0.0912631 3.08125
0 0.957864 0.0911269 1.66909
0 0.957881 0.0911983 2.65992
0 0.958079 0.0919154 5.28631
0 0.958017 0.0918228 3.49054
0 0.957918 0.0912343 2.34456
0 0.957975 0.091188 1.04476
0 0.957907 0.138922 166.797
0 0.957775 0.0912785 1.50355
0 0.957494 0.0916368 1.03025
0 0.957702 0.0912184 0.730573
0 0.957488 0.136881 309.3
0 0.957555 0.0918261 2.49002
0 0.957586 0.13877 124.4
0 0.957871 0.0911484 1.60636
0 0.95787 0.091149 1.51499
0 0.957917 0.0910402 0.599114
0 0.957863 0.0916476 6.03269
0 0.957901 0.0917813 7.3984
0 0.957917 0.0910349 1.10107
0 0.957908 0.0911726 2.93392
0 0.957921 0.0911428 2.27021
0 0.957934 0.0910899 2.24503
0 0.957962 0.0911789 1.35521
0 0.95789 0.0912253 0.649578
0 0.957938 0.0910958 1.41924
0 0.957937 0.0911067 0.352232
0 0.957997 0.138296 337.249
0 0.957863 0.0910769 0.830094
0 0.957681 0.0912682 1.1755
0 0.957824 0.0911076 0.934228
0 0.957602 0.0916567 1.16187
0 0.957705 0.0912509 1.49789
0 0.95751 0.137407 191.369
0 0.957606 0.0915255 2.14398
0 0.957633 0.137658 227.615
0 0.957967 0.0910476 1.19935
0 0.957931 0.0910494 0.690679
0 0.957974 0.0910635 0.844653
0 0.957832 0.0913377 2.27086
0 0.957954 0.0917835 5.96882
0 0.957839 0.0913798 2.65442
0 0.957967 0.0910536 1.70428
0 0.958004 0.091067 1.68118
0 0.957942 0.0910875 2.32217
0 0.957966 0.0910756 2.03443
0 0.957903 0.0910967 0.280832
0 0.957855 0.091152 0.386564
0 0.957928 0.0910631 1.67242
0 0.958023 0.137444 148.012
0 0.95792 0.0910773 0.698198
0 0.957835 0.0911458 1.53602
0 0.957712 0.091249 2.10303
0 0.957816 0.0912056 2.1512
0 0.957605 0.0915057 3.3775
0 0.957714 0.0912077 1.51116
0 0.957765 0.138101 244.437
0 0.957714 0.0914383 1.91651
0 0.958015 0.0910605 1.41894
0 0.957974 0.0910734 0.82571
0 0.958014 0.0910661 1.1022
0 0.957967 0.0910838 0.694607
0 0.95772 0.138904 222.37
0 0.957905 0.0916013 1.14078
0 0.957839 0.0911805 0.817765
0 0.957851 0.0913038 1.8703
0 0.957835 0.0912031 1.18735
0 0.958033 0.0910352 1.52697
0 0.958004 0.0910608 1.8119
0 0.957957 0.0910703 2.00596
0 0.957991 0.0910587 1.86791
0 0.957894 0.0910527 0.686034
0 0.957937 0.0910335 1.49575
0 0.957879 0.135858 279.975
0 0.957908 0.0911132 1.33518
0 0.95783 0.0911845 2.07552
0 0.957725 0.0911692 1.01629
0 0.957808 0.0911577 1.60194
0 0.957754 0.0915589 3.51078
0 0.957749 0.0911424 0.864549
0 0.957648 0.0915878 3.73724
0 0.958055 0.091025 1.41538
0 0.958049 0.0910087 1.29633
0 0.95804 0.0910465 1.4518
0 0.958016 0.0910683 1.04172
0 0.957955 0.0910745 1.06326
0 0.958005 0.0910748 0.819353
0 0.958062 0.0910239 1.24857
0 0.95754 0.138283 223.181
0 0.957884 0.0919381 4.45581
0 0.957869 0.0912656 1.67879
0 0.957881 0.0910617 0.378234
0 0.957862 0.0911277 1.06396
0 0.958022 0.0910136 1.35775
0 0.957985 0.0910247 1.49357
0 0.957927 0.091018 0.782192
0 0.957969 0.0910066 1.13301
0 0.957828 0.092266 5.55531
0 0.957904 0.13681 151.304
0 0.957898 0.0910888 1.32127
0 0.957825 0.0910875 0.797264
0 0.95774 0.0911677 1.63567
0 0.957811 0.0910686 0.204823
0 0.95762 0.091681 6.27257
0 0.957727 0.0912339 2.82379
0 0.957952 0.0910595 1.15256
0 0.958049 0.0909852 1.03993
0 0.958068 0.0909948 1.13258
0 0.95804 0.0910458 1.14107
0 0.958008 0.09106 1.00239
0 0.958002 0.0910514 0.950316
0 0.958063 0.091012 0.884998
0 0.958075 0.0909852 0.802675
0 0.957607 0.0916793 7.20046
0 0.957569 0.136301 230.244
0 0.957936 0.0910169 0.214838
0 0.957879 0.091319 0.752388
0 0.957893 0.0911354 0.789162
0 0.957911 0.0910529 0.476215
0 0.957832 0.0913798 2.08408
0 0.958013 0.0909882 0.942401
0 0.957981 0.0909977 0.550576
0 0.958049 0.0909752 0.718923
0 0.957982 0.0910289 0.0547481
0 0.957633 0.0920892 4.64104
0 0.957673 0.135336 171.527
0 0.957899 0.0910465 0.925888
0 0.957834 0.0910556 0.744186
0 0.957749 0.0912367 2.25036
0 0.957835 0.0911099 1.3811
0 0.957812 0.0911839 1.85326
0 0.957961 0.0910362 0.793443
0 0.958073 0.0909668 0.676095
0 0.958042 0.091026 0.758596
0 0.958019 0.0910446 0.688896
0 0.958068 0.0909956 0.606408
0 0.95808 0.090982 0.614655
0 0.957708 0.0917335 5.72826
0 0.957486 0.134797 143.914
0 0.957967 0.0910523 0.481603
0 0.957915 0.0911478 0.198374
0 0.95794 0.0910844 0.466664
0 0.957734 0.0914363 3.8941
0 0.957897 0.0912156 1.37943
0 0.958031 0.0909812 0.386465
0 0.958021 0.0910027 0.09584
0 0.958063 0.0909742 0.442889
0 0.958021 0.0910243 0.261308
0 0.958006 0.0910528 0.394795
0 0.957675 0.0913455 4.40586
0 0.957371 0.0918678 8.5038
0 0.957388 0.135562 166.331
0 0.957925 0.0910309 0.497286
0 0.957894 0.0910886 1.00233
0 0.957911 0.0912019 1.15238
0 0.95794 0.0910981 1.02482
0 0.957988 0.0910359 0.603138
0 0.95803 0.0910375 0.57775
0 0.958076 0.0909823 0.56706
0 0.958052 0.0910143 0.595335
0 0.958071 0.091008 0.612922
0 0.958079 0.0910156 0.914236
0 0.958076 0.0910207 0.813191
0 0.957972 0.0912065 1.89405
0 0.957886 0.0918093 6.35603
0 0.957774 0.135493 196.826
0 0.957966 0.0910763 0.3325
0 0.957896 0.0911872 1.76606
0 0.957883 0.0911757 2.34952
0 0.958019 0.0910464 0.494946
0 0.958056 0.090981 0.378589
0 0.958046 0.0910178 0.617383
0 0.95774 0.091301 4.08816
0 0.957365 0.0918651 9.86772
0 0.957067 0.13396 255.464
0 0.957979 0.0910314 0.46924
0 0.957994 0.0910719 0.569274
0 0.958009 0.0910913 0.619899
0 0.958016 0.0910385 0.529376
0 0.958042 0.0910395 0.639518
0 0.958073 0.0910111 0.966788
0 0.958071 0.0910482 1.32289
0 0.958059 0.0910375 0.802355
0 0.958063 0.0910596 1.21636
0 0.957953 0.0911754 0.0959651
0 0.957856 0.0915991 6.79352
0 0.957816 0.13718 254.528
0 0.957992 0.0910637 0.573896
0 0.957947 0.0910949 1.2607
0 0.958042 0.0910205 0.782134
0 0.958062 0.0910081 0.92013
0 0.957969 0.0910868 1.02939
0 0.957847 0.0911867 1.72178
0 0.957665 0.0917091 8.4576
0 0.957382 0.136076 121.274
0 0.958009 0.0910398 0.497062
0 0.957984 0.0910867 0.305565
0 0.958018 0.0910513 0.668153
0 0.958037 0.0910629 0.833676
0 0.958062 0.0910383 1.31229
0 0.95805 0.0910718 1.5781
0 0.958036 0.0910746 1.08081
0 0.958033 0.0910854 1.38078
0 0.957918 0.0911111 0.791581
0 0.957881 0.0912222 1.03725
0 0.957832 0.0917188 7.43187
0 0.957767 0.136385 100.647
0 0.95802 0.0910204 0.99959
0 0.958048 0.0910253 1.21735
0 0.957979 0.0910923 0.789302
0 0.95788 0.091206 1.28128
0 0.957764 0.0915493 5.72498
0 0.957697 0.138206 307.279
0 0.957976 0.091037 0.243462
0 0.957997 0.0910546 0.638991
0 0.958034 0.0910531 1.53844
0 0.958004 0.0910715 1.44378
0 0.957988 0.091077 1.03669
0 0.957851 0.0910784 0.882127
0 0.957732 0.091244 2.43204
0 0.957657 0.0916681 7.12399
0 0.957713 0.137126 274.462
0 0.958014 0.0910502 1.3437
0 0.957946 0.0911214 0.322081
0 0.957845 0.0912246 1.88412
0 0.957739 0.0915288 4.56642
0 0.957679 0.136513 148.003
0 0.957925 0.0910406 0.346466
0 0.95798 0.0910814 1.63612
0 0.957934 0.0910846 1.12616
0 0.957765 0.091093 1.3354
0 0.957591 0.0912189 2.00587
0 0.957421 0.0914804 2.0642
0 0.957391 0.135247 152.598
0 0.957944 0.0911199 1.31054
0 0.957811 0.0911854 1.12731
0 0.957621 0.0916919 5.70815
0 0.957618 0.138441 136.769
0 0.957916 0.0911603 1.95977
0 0.957791 0.0910808 1.05841
0 0.957896 0.0911541 1.99622
0 0.957813 0.0911469 1.62524
0 0.957519 0.0912202 2.00141
0 0.957214 0.0916562 4.96529
0 0.957165 0.138214 221.099
0 0.957824 0.0912142 1.5929
0 0.95759 0.0916324 4.93222
0 0.957398 0.136 287.915
0 0.957846 0.0912531 2.81557
0 0.957603 0.091225 1.97539
0 0.957763 0.0912746 3.10658
0 0.95721 0.0916633 5.04232
0 0.956947 0.132417 287.253
0 0.9578 0.0915623 3.84654
0 0.957618 0.136539 208.003
0 0.957844 0.0916364 5.15597
0 0.957576 0.091691 8.35192
0 0.957253 0.134538 138.26
0 0.957886 0.138212 115.337
0 0.957755 0.137974 352.963
VECTORS fa_u float
0.00695128 0.0028831 -0
0.00464504 0.00266863 -0
0.00559071 0.00150422 -0
0.00685803 0.000933253 -0
1e-08 0 0
0.00629961 0.00480413 -0
0.00427946 0.00427736 -0
1e-08 0 0
1e-08 0 0
0.00360545 0.00462666 -0
0.00391962 0.00669026 -0
0.00573093 4.56204e-05 -0
0.00748679 -0.000920446 0
1e-08 0 0
1e-08 0 0
1e-08 0 0
1e-08 0 0
1e-08 0 0
1e-08 0 0
1e-08 0 0
1e-08 0 0
0.00254972 0.0061311 -0
0.00200833 0.00762752 -0
1e-08 0 0
1e-08 0 0
1e-08 0 0
0.00722377 -0.00193082 0
1e-08 0 0
0.00692665 -0.00293032 0
1e-08 0 0
1e-08 0 0
1e-08 0 0
0.000712013 0.00562561 -0
1e-08 0 0
1e-08 0 0
1e-08 0 0
1e-08 0 0
1e-08 0 0
1e-08 0 0
1e-08 0 0
1e-08 0 0
1e-08 0 0
1e-08 0 0
-3.93794e-05 0.00776346 -0
1e-08 0 0
1e-08 0 0
1e-08 0 0
0.00502851 -0.00295349 0
1e-08 0 0
0.00548717 -0.00424871 0
1e-08 0 0
1e-08 0 0
1e-08 0 0
1e-08 0 0
1e-08 0 0
1e-08 0 0
1e-08 0 0
1e-08 0 0
1e-08 0 0
1e-08 0 0
1e-08 0 0
1e-08 0 0
1e-08 0 0
-0.000790344 0.00574179 0
1e-08 0 0
1e-08 0 0
1e-08 0 0
1e-08 0 0
1e-08 0 0
0.00445999 -0.0044973 0
1e-08 0 0
0.00310804 -0.00400011 0
1e-08 0 0
1e-08 0 0
1e-08 0 0
1e-08 0 0
1e-08 0 0
1e-08 0 0
1e-08 0 0
1e-08 0 0
1e-08 0 0
1e-08 0 0
1e-08 0 0
1e-08 0 0
1e-08 0 0
-0.00161586 0.0060495 0
1e-08 0 0
1e-08 0 0
1e-08 0 0
1e-08 0 0
1e-08 0 0
1e-08 0 0
0.00390908 -0.0066213 0
1e-08 0 0
1e-08 0 0
1e-08 0 0
1e-08 0 0
1e-08 0 0
0.00309174 -0.00750647 0
1e-08 0 0
1e-08 0 0
1e-08 0 0
1e-08 0 0
1e-08 0 0
1e-08 0 0
1e-08 0 0
1e-08 0 0
1e-08 0 0
1e-08 0 0
-0.00235504 0.00576844 0
1e-08 0 0
1e-08 0 0
1e-08 0 0
1e-08 0 0
1e-08 0 0
1e-08 0 0
1e-08 0 0
1e-08 0 0
1e-08 0 0
1e-08 0 0
1e-08 0 0
1e-08 0 0
1e-08 0 0
1e-08 0 0
0.00156914 -0.0060118 0
1e-08 0 0
1e-08 0 0
1e-08 0 0
1e-08 0 0
1e-08 0 0
1e-08 0 0
1e-08 0 0
1e-08 0 0
1e-08 0 0
-0.00414221 0.00716925 0
1e-08 0 0
1e-08 0 0
1e-08 0 0
1e-08 0 0
1e-08 0 0
1e-08 0 0
1e-08 0 0
1e-08 0 0
1e-08 0 0
1e-08 0 0
1e-08 0 0
1e-08 0 0
1e-08 0 0
1e-08 0 0
1e-08 0 0
0.000674675 -0.00494353 0
1e-08 0 0
1e-08 0 0
1e-08 0 0
1e-08 0 0
1e-08 0 0
1e-08 0 0
1e-08 0 0
1e-08 0 0
1e-08 0 0
1e-08 0 0
-0.00368691 0.00475977 0
1e-08 0 0
1e-08 0 0
1e-08 0 0
1e-08 0 0
1e-08 0 0
1e-08 0 0
1e-08 0 0
1e-08 0 0
1e-08 0 0
1e-08 0 0
1e-08 0 0
1e-08 0 0
4.69293e-05 -0.00833721 0
1e-08 0 0
1e-08 0 0
1e-08 0 0
1e-08 0 0
1e-08 0 0
1e-08 0 0
1e-08 0 0
1e-08 0 0
1e-08 0 0
1e-08 0 0
1e-08 0 0
1e-08 0 0
-0.00423225 0.00425075 0
1e-08 0 0
1e-08 0 0
1e-08 0 0
1e-08 0 0
1e-08 0 0
1e-08 0 0
1e-08 0 0
1e-08 0 0
1e-08 0 0
1e-08 0 0
1e-08 0 0
1e-08 0 0
1e-08 0 0
-0.000778344 -0.00596325 0
1e-08 0 0
1e-08 0 0
1e-08 0 0
1e-08 0 0
1e-08 0 0
1e-08 0 0
1e-08 0 0
1e-08 0 0
-0.00449573 0.00352502 0
1e-08 0 0
1e-08 0 0
1e-08 0 0
1e-08 0 0
1e-08 0 0
1e-08 0 0
1e-08 0 0
1e-08 0 0
1e-08 0 0
1e-08 0 0
1e-08 0 0
-0.00171013 -0.00648865 0
1e-08 0 0
1e-08 0 0
1e-08 0 0
1e-08 0 0
1e-08 0 0
1e-08 0 0
1e-08 0 0
-0.00710261 0.0041766 0
1e-08 0 0
1e-08 0 0
1e-08 0 0
1e-08 0 0
1e-08 0 0
1e-08 0 0
1e-08 0 0
1e-08 0 0
1e-08 0 0
1e-08 0 0
1e-08 0 0
-0.0029421 -0.00708316 0
1e-08 0 0
1e-08 0 0
1e-08 0 0
1e-08 0 0
1e-08 0 0
-0.00696295 0.00285597 0
1e-08 0 0
1e-08 0 0
1e-08 0 0
1e-08 0 0
1e-08 0 0
1e-08 0 0
1e-08 0 0
1e-08 0 0
-0.00314234 -0.00539779 0
1e-08 0 0
1e-08 0 0
1e-08 0 0
1e-08 0 0
-0.00549306 0.00145659 0
1e-08 0 0
1e-08 0 0
1e-08 0 0
1e-08 0 0
1e-08 0 0
1e-08 0 0
-0.00480579 -0.00617251 0
1e-08 0 0
1e-08 0 0
1e-08 0 0
-0.00767365 0.000989585 0
1e-08 0 0
1e-08 0 0
1e-08 0 0
1e-08 0 0
1e-08 0 0
1e-08 0 0
-0.00348797 -0.00346612 0
1e-08 0 0
1e-08 0 0
-0.00629251 -3.69928e-05 0
1e-08 0 0
1e-08 0 0
1e-08 0 0
1e-08 0 0
-0.00582941 -0.00449956 0
1e-08 0 0
-0.00618303 -0.000826536 0
1e-08 0 0
1e-08 0 0
-0.00621033 -0.00356154 0
-0.00665548 -0.0017884 0
-0.00551713 -0.00227385 0
