# vtk DataFile Version 2.0
CellBP Time: 3.48
ASCII
DATASET UNSTRUCTURED_GRID
POINTS 296 double
-8.97125 -3.68198 0
-8.40163 -4.82788 0
-9.37791 -2.46836 0
-9.63441 -1.2217 0
-8.27168 -2.781 0
-7.69338 -5.89513 0
-6.85166 -6.85925 0
-7.83147 -3.82702 0
-7.26084 -4.81546 0
-5.89564 -7.70311 0
-4.84715 -8.42528 0
-9.72253 0.0465752 0
-9.64966 1.32235 0
-8.57825 -1.66207 0
-8.71311 -0.522821 0
-7.50654 -1.97428 0
-7.14023 -2.86504 0
-6.57162 -5.72738 0
-5.77216 -6.54627 0
-6.70809 -3.83882 0
-6.14936 -4.62521 0
-3.69655 -8.9834 0
-2.4843 -9.40328 0
-4.87193 -7.25988 0
-3.89454 -7.8389 0
-8.72585 0.635281 0
-9.41304 2.58465 0
-8.56343 1.75649 0
-8.99721 3.79569 0
-7.66709 -0.913495 0
-7.72278 0.0827265 0
-6.87845 -1.2954 0
-1.22311 -9.64485 0
-6.3736 -2.12497 0
-6.25012 -3.01751 0
-5.47965 -5.42475 0
-4.75251 -6.06675 0
-5.5977 -3.71549 0
-5.21046 -4.51448 0
-2.85084 -8.31201 0
-1.76569 -8.58383 0
-3.89939 -6.67624 0
-3.04107 -7.1068 0
0.0517227 -9.72591 0
-7.63932 1.13275 0
-8.28824 2.89703 0
-7.49098 2.09028 0
-8.41811 4.93593 0
-7.82121 3.94687 0
-7.69947 5.99594 0
-6.7115 -0.388523 0
-6.8898 0.550228 0
-5.72073 -0.992814 0
-0.585814 -8.74617 0
0.55676 -8.69828 0
-5.25526 -2.45401 0
-4.44387 -5.04827 0
-3.86592 -5.72821 0
-4.39909 -3.77064 0
-2.04913 -7.51135 0
-1.12825 -7.72936 0
-2.97069 -6.05647 0
-2.29548 -6.57441 0
1.32102 -9.63125 0
-6.63127 1.40776 0
-7.11053 3.08872 0
-6.60246 2.35049 0
-7.23273 4.94455 0
-6.65968 3.96443 0
-6.84999 6.94705 0
-6.51528 5.83964 0
-5.8926 7.79346 0
-4.42626 -1.17505 0
-5.76921 0.506024 0
-4.62914 -0.0162101 0
0.00240692 -7.78242 0
1.71536 -8.56223 0
0.931385 -7.69055 0
-4.01361 -2.38876 0
-3.4758 -1.38752 0
-3.26942 -4.76861 0
-3.24989 -3.24649 0
-1.37309 -6.62408 0
-0.512148 -6.96573 0
-1.96407 -5.49986 0
2.5731 -9.37703 0
-5.46456 2.02137 0
-6.04224 3.04211 0
-6.05101 4.82126 0
-5.71024 3.9495 0
-5.70986 6.65241 0
-5.40254 5.56202 0
-4.84096 8.52 0
-4.79356 7.3308 0
-3.48856 -0.423397 0
-4.42066 1.24073 0
-3.69303 0.58914 0
-4.03452 2.31041 0
-3.69875 9.09012 0
2.82497 -8.24337 0
0.404362 -6.72957 0
1.99085 -7.44529 0
1.28074 -6.83241 0
-2.43948 -0.869901 0
-2.83029 -2.12214 0
-2.28447 -4.07218 0
-2.31737 -2.95817 0
-0.44563 -5.81262 0
-1.21457 -4.47252 0
3.78588 -8.97258 0
-4.75098 3.36328 0
-5.04219 4.54655 0
-4.60315 6.21523 0
-4.4969 5.3035 0
-3.81291 7.92462 0
-3.78831 6.7714 0
-2.7576 8.34573 0
-1.64676 -0.134398 0
-1.44721 -0.88729 0
-2.48455 0.510463 0
-3.23763 1.44105 0
-3.21758 3.29648 0
-2.89591 2.36702 0
-1.35476 0.630491 0
-2.4815 9.48399 0
3.88657 -7.80178 0
2.92086 -7.07096 0
0.936141 -5.76521 0
2.04153 -6.34263 0
-1.67768 -1.98653 0
-1.42771 -3.26141 0
0.0867511 -4.71187 0
-0.56076 -3.67611 0
4.87899 -7.23801 0
4.93383 -8.41332 0
-3.74594 4.51097 0
-3.70057 5.69405 0
-2.85764 7.21531 0
-2.98121 6.29027 0
-1.64665 8.66105 0
-1.91902 7.54943 0
-2.32477 4.02514 0
-0.728637 -1.32448 0
-0.836295 -0.254669 0
-1.93414 1.68335 0
-2.11795 2.86744 0
-1.30387 3.53025 0
-0.871449 1.35397 0
-0.284203 0.45858 0
-0.528005 8.8058 0
-1.22575 9.73699 0
1.09924 -4.53562 0
3.85687 -6.62891 0
2.94702 -6.02098 0
2.0895 -5.3668 0
4.73088 -6.12838 0
-0.555354 -2.46917 0
0.493595 -3.44546 0
0.0543183 -1.60826 0
1.46878 -3.65418 0
5.81145 -6.54306 0
5.99257 -7.69454 0
-2.45593 5.30238 0
-2.108 6.47242 0
-0.892605 7.73925 0
-1.25544 6.86914 0
0.0886977 7.82234 0
-1.13881 4.46716 0
0.149214 -0.615432 0
-0.801007 2.48889 0
-0.33629 3.58993 0
0.0590275 1.51416 0
0.737544 0.474137 0
0.641846 8.81599 0
0.0476678 9.82738 0
2.3556 -4.24285 0
3.81331 -5.57021 0
2.96512 -5.1527 0
5.52217 -5.43014 0
4.64091 -5.21596 0
0.630235 -2.28963 0
1.24903 -2.93579 0
0.756279 -1.38985 0
2.14807 -3.11338 0
2.96872 -3.44555 0
6.10575 -4.74332 0
6.60265 -5.71434 0
6.95276 -6.84602 0
-1.00903 5.77405 0
-0.363572 6.8267 0
1.1162 7.71875 0
0.55826 7.02808 0
-0.00295835 4.6995 0
0.600322 3.81255 0
1.33549 -0.641714 0
0.533077 2.64591 0
0.960151 1.57472 0
1.90441 0.212622 0
1.60829 1.06389 0
2.11851 7.53671 0
1.78919 8.65871 0
1.32567 9.74868 0
3.78566 -4.30318 0
5.06893 -4.395 0
5.79946 -3.89357 0
3.75457 -3.17198 0
1.80602 -1.87995 0
2.99979 -2.55799 0
6.73667 -3.91483 0
7.33135 -4.85858 0
7.80054 -5.89235 0
0.482618 5.84136 0
1.42158 6.69725 0
2.36243 6.62765 0
1.20194 4.53313 0
1.48016 3.38332 0
2.42648 -0.690852 0
2.8169 0.142537 0
1.78089 2.15797 0
2.60341 1.14722 0
3.05657 7.12619 0
2.8909 8.32696 0
2.58592 9.5038 0
4.87235 -3.29286 0
6.07725 -3.07911 0
4.14648 -2.26043 0
3.22797 -1.49774 0
6.69038 -2.29811 0
7.1884 -3.02395 0
7.91817 -3.8906 0
8.52292 -4.84364 0
2.0138 5.56583 0
3.06217 6.11116 0
2.35414 4.10397 0
2.41061 3.04655 0
3.50855 -0.457668 0
3.59938 0.613954 0
2.9488 2.27795 0
3.52655 1.51897 0
3.9753 5.85371 0
3.95576 6.7477 0
3.95463 7.89183 0
3.79874 9.08642 0
5.53419 -1.90258 0
4.484 -1.12233 0
6.67006 -1.32634 0
7.5464 -2.02251 0
8.34802 -2.84558 0
9.09747 -3.70223 0
3.38896 4.84107 0
3.3156 3.36312 0
4.66394 0.132081 0
4.48666 1.3006 0
4.03296 2.42544 0
4.52121 5.10788 0
4.80038 6.14418 0
4.94605 7.33194 0
4.94705 8.52352 0
5.84175 -0.433651 0
6.95909 -0.487457 0
7.7099 -1.07495 0
8.63208 -1.73243 0
9.49634 -2.48209 0
4.50693 3.79401 0
5.76697 1.08427 0
5.31779 2.50827 0
5.31783 4.57505 0
5.55477 5.47602 0
5.84666 6.62225 0
6.00075 7.80901 0
6.78732 0.452645 0
7.79484 -0.0274223 0
8.80277 -0.576241 0
9.74598 -1.22221 0
6.89398 1.32866 0
5.65626 3.73825 0
6.47266 2.16793 0
6.30798 3.05025 0
6.22044 4.63884 0
6.62661 5.78728 0
6.95422 6.95979 0
7.718 0.954083 0
8.79222 0.567441 0
9.82464 0.0540736 0
7.54187 1.9782 0
6.74532 3.85609 0
7.18871 2.90872 0
7.30383 4.83884 0
7.80199 5.99916 0
8.64663 1.7078 0
9.73574 1.32446 0
8.33646 2.80479 0
7.90356 3.87621 0
8.51417 4.93619 0
9.47955 2.57642 0
9.07683 3.78905 0
CELLS 542 2168
3 2 0 4
3 0 1 7
3 4 0 7
3 1 5 8
3 7 1 8
3 3 2 13
3 13 2 4
3 11 3 14
3 14 3 13
3 13 4 15
3 4 7 16
3 15 4 16
3 5 6 17
3 8 5 17
3 6 9 18
3 17 6 18
3 7 8 19
3 16 7 19
3 8 17 20
3 19 8 20
3 9 10 23
3 18 9 23
3 10 21 24
3 23 10 24
3 12 11 25
3 25 11 14
3 26 12 27
3 27 12 25
3 14 13 29
3 29 13 15
3 25 14 30
3 30 14 29
3 29 15 31
3 15 16 33
3 31 15 33
3 16 19 34
3 33 16 34
3 17 18 35
3 20 17 35
3 18 23 36
3 35 18 36
3 19 20 37
3 34 19 37
3 20 35 38
3 37 20 38
3 21 22 39
3 24 21 39
3 22 32 40
3 39 22 40
3 23 24 41
3 36 23 41
3 24 39 42
3 41 24 42
3 27 25 44
3 44 25 30
3 28 26 45
3 45 26 27
3 45 27 46
3 46 27 44
3 47 28 48
3 48 28 45
3 30 29 50
3 50 29 31
3 44 30 51
3 51 30 50
3 50 31 52
3 31 33 52
3 32 43 53
3 40 32 53
3 53 43 54
3 33 34 55
3 34 37 55
3 33 55 52
3 35 36 56
3 38 35 56
3 36 41 57
3 56 36 57
3 37 38 58
3 38 56 58
3 37 58 55
3 39 40 59
3 42 39 59
3 40 53 60
3 59 40 60
3 41 42 61
3 57 41 61
3 42 59 62
3 61 42 62
3 43 63 54
3 46 44 64
3 64 44 51
3 48 45 65
3 65 45 46
3 65 46 66
3 66 46 64
3 49 47 67
3 67 47 48
3 67 48 68
3 68 48 65
3 69 49 70
3 70 49 67
3 52 55 72
3 64 51 73
3 51 50 73
3 50 52 73
3 73 52 74
3 74 52 72
3 53 54 75
3 60 53 75
3 54 63 76
3 54 76 77
3 75 54 77
3 55 58 78
3 72 55 78
3 72 78 79
3 56 57 80
3 57 61 80
3 56 80 58
3 58 80 81
3 78 58 81
3 59 60 82
3 62 59 82
3 60 75 83
3 82 60 83
3 61 62 84
3 62 82 84
3 61 84 80
3 63 85 76
3 66 64 86
3 64 73 86
3 68 65 87
3 87 65 66
3 87 66 86
3 70 67 88
3 88 67 68
3 88 68 89
3 89 68 87
3 71 69 90
3 90 69 70
3 90 70 91
3 91 70 88
3 92 71 93
3 93 71 90
3 74 72 94
3 94 72 79
3 86 73 95
3 95 73 74
3 95 74 96
3 96 74 94
3 97 86 95
3 76 85 99
3 75 77 100
3 83 75 100
3 76 99 101
3 77 76 101
3 77 101 102
3 100 77 102
3 94 79 103
3 78 81 104
3 79 78 104
3 79 104 103
3 80 84 105
3 81 80 105
3 81 105 106
3 104 81 106
3 82 83 107
3 83 100 107
3 82 107 84
3 84 107 108
3 105 84 108
3 85 109 99
3 89 87 110
3 87 86 110
3 110 86 97
3 91 88 111
3 111 88 89
3 111 89 110
3 93 90 112
3 112 90 91
3 112 91 113
3 113 91 111
3 98 92 114
3 114 92 93
3 114 93 115
3 115 93 112
3 116 98 114
3 117 103 118
3 96 94 119
3 94 103 119
3 119 103 117
3 97 95 120
3 120 95 96
3 120 96 119
3 121 110 97
3 121 97 122
3 122 97 120
3 123 119 117
3 124 98 116
3 99 109 125
3 99 125 126
3 101 99 126
3 100 102 127
3 100 127 107
3 101 126 128
3 102 101 128
3 102 128 127
3 104 106 129
3 104 129 103
3 103 129 118
3 105 108 130
3 106 105 130
3 106 130 129
3 107 127 131
3 108 107 131
3 108 131 132
3 108 132 130
3 109 134 125
3 125 134 133
3 113 111 135
3 111 110 135
3 135 110 121
3 115 112 136
3 136 112 113
3 136 113 135
3 116 114 137
3 137 114 115
3 137 115 138
3 138 115 136
3 139 124 116
3 139 116 140
3 140 116 137
3 141 135 121
3 118 129 142
3 118 142 143
3 117 118 143
3 123 117 143
3 122 120 144
3 120 119 144
3 144 119 123
3 141 121 145
3 145 121 122
3 145 122 144
3 146 141 145
3 147 144 123
3 147 123 148
3 143 148 123
3 150 124 139
3 149 150 139
3 131 127 151
3 125 133 152
3 126 125 152
3 126 152 153
3 128 126 153
3 128 153 154
3 128 154 127
3 127 154 151
3 152 133 155
3 130 132 156
3 130 156 129
3 129 156 142
3 131 151 157
3 132 131 157
3 132 157 156
3 156 158 142
3 157 151 159
3 133 160 155
3 134 161 133
3 133 161 160
3 138 136 162
3 136 135 162
3 162 135 141
3 140 137 163
3 163 137 138
3 163 138 162
3 149 139 164
3 164 139 140
3 164 140 165
3 165 140 163
3 166 149 164
3 167 162 141
3 167 141 146
3 142 158 168
3 143 142 168
3 143 168 148
3 146 145 169
3 145 144 169
3 169 144 147
3 170 167 146
3 170 146 169
3 171 169 147
3 171 147 148
3 171 148 172
3 168 172 148
3 173 149 166
3 174 150 149
3 173 174 149
3 154 175 151
3 151 175 159
3 152 155 176
3 153 152 176
3 153 176 177
3 153 177 154
3 154 177 175
3 155 160 178
3 155 178 179
3 176 155 179
3 156 157 180
3 156 180 158
3 157 159 181
3 157 181 180
3 158 180 182
3 158 182 168
3 159 175 183
3 159 183 181
3 175 184 183
3 160 186 178
3 178 186 185
3 161 187 160
3 160 187 186
3 165 163 188
3 163 162 188
3 188 162 167
3 166 164 189
3 189 164 165
3 189 165 188
3 190 173 166
3 190 166 191
3 191 166 189
3 192 188 167
3 192 167 170
3 193 192 170
3 182 194 168
3 194 172 168
3 193 170 195
3 170 169 195
3 195 169 171
3 196 195 171
3 196 171 172
3 194 197 172
3 197 198 172
3 198 196 172
3 200 173 190
3 199 200 190
3 201 174 173
3 200 201 173
3 176 179 202
3 177 176 202
3 177 202 175
3 175 202 184
3 178 185 203
3 178 203 179
3 179 203 202
3 203 185 204
3 202 205 184
3 183 206 181
3 180 181 206
3 180 206 182
3 182 206 194
3 183 184 207
3 205 207 184
3 183 207 206
3 185 208 204
3 186 209 185
3 185 209 208
3 187 210 186
3 186 210 209
3 191 189 211
3 189 188 211
3 211 188 192
3 199 190 212
3 212 190 191
3 212 191 211
3 213 199 212
3 214 211 192
3 214 192 193
3 215 214 193
3 215 193 195
3 206 216 194
3 216 197 194
3 216 217 197
3 215 195 218
3 218 195 196
3 198 218 196
3 217 219 197
3 219 218 198
3 197 219 198
3 220 199 213
3 221 200 199
3 220 221 199
3 222 201 200
3 221 222 200
3 203 204 223
3 203 223 202
3 202 223 205
3 204 208 224
3 204 224 223
3 205 223 225
3 205 225 207
3 207 225 226
3 207 226 206
3 226 216 206
3 208 228 224
3 224 228 227
3 209 229 208
3 229 228 208
3 210 230 209
3 209 230 229
3 213 212 231
3 212 211 231
3 231 211 214
3 232 220 213
3 232 213 231
3 233 231 214
3 233 214 215
3 234 233 215
3 234 215 218
3 226 235 216
3 235 217 216
3 235 236 217
3 217 236 219
3 237 234 218
3 237 218 219
3 236 238 219
3 238 237 219
3 240 220 232
3 239 240 232
3 241 221 220
3 240 241 220
3 242 222 221
3 241 242 221
3 224 227 243
3 224 243 223
3 223 243 225
3 225 243 244
3 225 244 226
3 226 244 235
3 227 245 243
3 228 246 227
3 227 246 245
3 229 247 228
3 228 247 246
3 230 248 229
3 229 248 247
3 239 232 249
3 232 231 249
3 249 231 233
3 250 249 233
3 250 233 234
3 237 250 234
3 244 251 235
3 235 251 236
3 251 252 236
3 236 252 238
3 252 253 238
3 253 250 237
3 253 237 238
3 254 239 249
3 255 240 239
3 254 255 239
3 256 241 240
3 255 256 240
3 257 242 241
3 256 257 241
3 245 258 243
3 243 258 244
3 244 258 251
3 245 259 258
3 246 260 245
3 245 260 259
3 247 261 246
3 246 261 260
3 248 262 247
3 247 262 261
3 254 249 263
3 263 249 250
3 253 263 250
3 258 264 251
3 251 264 252
3 264 265 252
3 265 263 253
3 252 265 253
3 266 254 263
3 267 255 254
3 266 267 254
3 268 256 255
3 267 268 255
3 269 257 256
3 268 269 256
3 259 270 258
3 270 264 258
3 260 271 259
3 259 271 270
3 261 272 260
3 260 272 271
3 262 273 261
3 273 272 261
3 270 274 264
3 275 266 263
3 275 263 265
3 274 276 264
3 276 265 264
3 276 277 265
3 277 275 265
3 278 267 266
3 275 278 266
3 279 268 267
3 278 279 267
3 280 269 268
3 279 280 268
3 271 281 270
3 270 281 274
3 272 282 271
3 271 282 281
3 273 283 272
3 272 283 282
3 281 284 274
3 274 284 276
3 285 278 275
3 277 285 275
3 284 286 276
3 286 285 277
3 276 286 277
3 287 279 278
3 285 287 278
3 288 280 279
3 287 288 279
3 282 289 281
3 281 289 284
3 283 290 282
3 282 290 289
3 289 291 284
3 284 291 286
3 291 292 286
3 292 287 285
3 286 292 285
3 293 288 287
3 292 293 287
3 290 294 289
3 289 294 291
3 294 295 291
3 295 293 292
3 291 295 292
CELL_TYPES 542
5
5
5
5
5
5
5
5
5
5
5
5
5
5
5
5
5
5
5
5
5
5
5
5
5
5
5
5
5
5
5
5
5
5
5
5
5
5
5
5
5
5
5
5
5
5
5
5
5
5
5
5
5
5
5
5
5
5
5
5
5
5
5
5
5
5
5
5
5
5
5
5
5
5
5
5
5
5
5
5
5
5
5
5
5
5
5
5
5
5
5
5
5
5
5
5
5
5
5
5
5
5
5
5
5
5
5
5
5
5
5
5
5
5
5
5
5
5
5
5
5
5
5
5
5
5
5
5
5
5
5
5
5
5
5
5
5
5
5
5
5
5
5
5
5
5
5
5
5
5
5
5
5
5
5
5
5
5
5
5
5
5
5
5
5
5
5
5
5
5
5
5
5
5
5
5
5
5
5
5
5
5
5
5
5
5
5
5
5
5
5
5
5
5
5
5
5
5
5
5
5
5
5
5
5
5
5
5
5
5
5
5
5
5
5
5
5
5
5
5
5
5
5
5
5
5
5
5
5
5
5
5
5
5
5
5
5
5
5
5
5
5
5
5
5
5
5
5
5
5
5
5
5
5
5
5
5
5
5
5
5
5
5
5
5
5
5
5
5
5
5
5
5
5
5
5
5
5
5
5
5
5
5
5
5
5
5
5
5
5
5
5
5
5
5
5
5
5
5
5
5
5
5
5
5
5
5
5
5
5
5
5
5
5
5
5
5
5
5
5
5
5
5
5
5
5
5
5
5
5
5
5
5
5
5
5
5
5
5
5
5
5
5
5
5
5
5
5
5
5
5
5
5
5
5
5
5
5
5
5
5
5
5
5
5
5
5
5
5
5
5
5
5
5
5
5
5
5
5
5
5
5
5
5
5
5
5
5
5
5
5
5
5
5
5
5
5
5
5
5
5
5
5
5
5
5
5
5
5
5
5
5
5
5
5
5
5
5
5
5
5
5
5
5
5
5
5
5
5
5
5
5
5
5
5
5
5
5
5
5
5
5
5
5
5
5
5
5
5
5
5
5
5
5
5
5
5
5
5
5
5
5
5
5
5
5
5
5
5
5
5
5
5
5
5
5
5
5
5
5
5
5
5
5
5
5
5
5
5
5
5
5
5
5
5
5
5
5
5
5
5
5
5
5
5
5
5
5
5
5
5
5
5
5
5
5
5
5
5
5
5
5
5
5
5
5
5
5
5
5
5
5
5
5
5
5
5
5
5
5
5
5
POINT_DATA 296
SCALARS concentrations float 4
LOOKUP_TABLE default
0 0.954556 0.127396 255.783
0 0.954895 0.133189 154.806
0 0.954609 0.129034 175.144
0 0.954822 0.130165 158.992
0 0.954631 0.0917951 2.0166
0 0.954815 0.128615 242.573
0 0.955014 0.130971 115.924
0 0.954765 0.091679 3.53933
0 0.954879 0.0914241 1.42542
0 0.955586 0.131678 270.177
0 0.955686 0.13069 38.9659
0 0.954971 0.131609 199.852
0 0.955042 0.128723 244.498
0 0.95478 0.0919555 6.75995
0 0.954932 0.0918037 6.74175
0 0.954843 0.0913492 2.56648
0 0.954819 0.0911785 0.504492
0 0.95488 0.0916823 5.34778
0 0.955248 0.0919883 13.0163
0 0.95486 0.0910982 1.04296
0 0.954918 0.0911451 2.32421
0 0.955673 0.131904 345.48
0 0.95541 0.131452 86.0944
0 0.955533 0.0921362 9.52775
0 0.955569 0.0924205 7.50639
0 0.955031 0.0917956 8.53598
0 0.955115 0.127064 128.631
0 0.955105 0.0921381 7.4902
0 0.955103 0.132246 99.6251
0 0.95494 0.091442 4.6024
0 0.955034 0.091426 5.14162
0 0.954993 0.0912274 2.84071
0 0.955077 0.131427 138.007
0 0.954972 0.0911119 1.37536
0 0.954939 0.0910568 0.427585
0 0.955045 0.0913248 5.35809
0 0.955243 0.0913574 5.93527
0 0.954981 0.0910557 0.929349
0 0.955019 0.0911365 2.5686
0 0.955498 0.0924581 11.7962
0 0.955252 0.091945 8.24154
0 0.955359 0.0914001 5.40114
0 0.955393 0.0913297 3.51169
0 0.955084 0.130446 102.199
0 0.955116 0.0913607 4.10643
0 0.955153 0.0920958 7.05269
0 0.955178 0.0913207 2.56744
0 0.955152 0.124727 180.953
0 0.955143 0.0924464 10.7582
0 0.955387 0.129985 114.993
0 0.955073 0.0912294 3.43135
0 0.955126 0.0912169 3.59139
0 0.955094 0.0910815 1.75173
0 0.955118 0.0916529 8.63066
0 0.95523 0.0917832 6.49833
0 0.955059 0.091042 1.02985
0 0.955115 0.0911771 3.40204
0 0.955212 0.0912165 4.22063
0 0.95509 0.0910498 1.10423
0 0.95533 0.091394 3.6219
0 0.955256 0.09137 3.71209
0 0.955255 0.0911406 2.92835
0 0.955288 0.0911168 1.83376
0 0.955334 0.130209 194.524
0 0.955191 0.0910828 1.98371
0 0.955213 0.0914886 3.77786
0 0.955228 0.0911218 0.816524
0 0.9553 0.0921032 8.62266
0 0.955261 0.0914045 3.34412
0 0.955082 0.127638 301.356
0 0.955267 0.0914015 2.09785
0 0.95521 0.127887 91.3168
0 0.955136 0.0910354 1.2136
0 0.955174 0.0910724 1.92728
0 0.955179 0.0910464 1.36322
0 0.955238 0.0913728 3.20207
0 0.955334 0.0915868 0.980906
0 0.955263 0.0912938 1.78671
0 0.955129 0.0910294 1.11696
0 0.955184 0.0910289 1.27554
0 0.955169 0.0910636 1.58704
0 0.955156 0.0910219 0.792962
0 0.955264 0.0911295 1.00158
0 0.955255 0.0912108 1.64308
0 0.955226 0.0910254 0.414286
0 0.955344 0.128712 127.552
0 0.955244 0.0910126 0.623269
0 0.955266 0.0911562 1.3034
0 0.955288 0.0913328 2.64899
0 0.955291 0.0912127 1.91011
0 0.955169 0.0919128 3.38865
0 0.955291 0.0912403 0.657609
0 0.955333 0.127934 98.0375
0 0.955338 0.0918102 1.95218
0 0.955213 0.0910197 1.16499
0 0.955233 0.0910182 1.10746
0 0.955237 0.0910143 1.13579
0 0.955279 0.0910159 0.892146
0 0.955089 0.126035 85.2773
0 0.955202 0.0912292 2.13163
0 0.955247 0.0911918 1.06151
0 0.95523 0.0912038 0.669668
0 0.955235 0.0911743 0.561683
0 0.955237 0.0910072 1.12011
0 0.955194 0.0910131 0.962996
0 0.955198 0.091026 0.554307
0 0.955204 0.0910122 0.66965
0 0.955238 0.091065 0.445336
0 0.955226 0.0910284 0.387663
0 0.955046 0.126762 173.687
0 0.955296 0.0910412 0.724158
0 0.955313 0.0911318 1.23552
0 0.95532 0.0912614 0.564594
0 0.955332 0.0911274 0.811483
0 0.955261 0.0918281 5.501
0 0.955349 0.0912602 0.675436
0 0.955178 0.091815 6.77979
0 0.955275 0.0909892 1.02472
0 0.955264 0.0909884 0.950537
0 0.955266 0.0910031 1.12351
0 0.955275 0.0910001 1.04153
0 0.955312 0.091003 1.0028
0 0.955299 0.0910006 1.02261
0 0.955299 0.0909866 0.992592
0 0.955176 0.127745 288.533
0 0.954947 0.0913254 4.10841
0 0.955126 0.0910913 0.777509
0 0.955226 0.0910677 0.277204
0 0.955196 0.0910923 0.521447
0 0.955238 0.0909978 0.870188
0 0.955227 0.0910035 0.423759
0 0.955232 0.0910166 0.404608
0 0.955236 0.0910104 0.417575
0 0.954844 0.091549 4.83112
0 0.954748 0.126017 151.786
0 0.955329 0.0910143 1.05584
0 0.95535 0.0910871 1.08576
0 0.955311 0.0912085 0.810107
0 0.955352 0.0911264 1.50881
0 0.955237 0.0918151 6.32319
0 0.955281 0.0912221 1.96561
0 0.955327 0.0910359 1.32813
0 0.955272 0.09098 0.794338
0 0.955292 0.090971 0.826391
0 0.955302 0.0909984 1.03949
0 0.955316 0.0910118 1.19471
0 0.955321 0.0910419 1.55176
0 0.955313 0.0909846 0.910069
0 0.955307 0.0909649 0.749427
0 0.955132 0.0918048 2.31246
0 0.955191 0.127249 22.9267
0 0.955222 0.0910016 0.553441
0 0.955032 0.0910962 0.260127
0 0.95514 0.0910508 0.880599
0 0.9552 0.0910179 0.709099
0 0.955021 0.0912739 2.78697
0 0.95525 0.0909822 0.521449
0 0.95524 0.0909941 0.532923
0 0.955273 0.090974 0.656096
0 0.955227 0.0910012 0.980872
0 0.955 0.0918299 7.62688
0 0.954839 0.128642 137.712
0 0.955335 0.0910587 1.72306
0 0.955326 0.0911344 2.23399
0 0.95523 0.0913402 3.39169
0 0.955291 0.091214 2.76535
0 0.955134 0.0913241 3.17871
0 0.955318 0.0910589 1.71648
0 0.955292 0.0909523 0.511562
0 0.955315 0.0910115 1.19022
0 0.955308 0.0910544 1.68379
0 0.955311 0.0909965 1.0569
0 0.955297 0.090984 0.79597
0 0.954949 0.0916408 4.86196
0 0.954984 0.126561 267.651
0 0.955202 0.0910166 1.03848
0 0.955111 0.0910927 1.47617
0 0.955169 0.0910314 1.0989
0 0.955039 0.0913829 4.14296
0 0.955103 0.0912038 2.62678
0 0.955256 0.0909761 0.567812
0 0.955243 0.0909878 0.784687
0 0.955273 0.0909666 0.5271
0 0.955227 0.091008 1.02365
0 0.955201 0.0910378 1.35459
0 0.955044 0.0913984 4.34435
0 0.954963 0.0919438 7.82256
0 0.955038 0.129711 216.59
0 0.955298 0.091116 2.17143
0 0.95524 0.0912231 2.92242
0 0.955025 0.0912291 2.70095
0 0.955167 0.0911971 2.65348
0 0.955283 0.0910807 1.93441
0 0.955284 0.0910686 1.75846
0 0.955278 0.0909853 0.511671
0 0.955298 0.0910295 1.39341
0 0.955298 0.0910181 1.19007
0 0.955272 0.0910188 0.758235
0 0.955281 0.0910237 1.00179
0 0.954967 0.0911991 0.868881
0 0.954847 0.091556 3.8374
0 0.954794 0.12789 93.3147
0 0.955163 0.0910704 1.53519
0 0.955121 0.0912257 3.1431
0 0.955133 0.0912667 3.46766
0 0.955192 0.0910468 1.39772
0 0.955249 0.0909821 0.527579
0 0.955221 0.0910198 0.98093
0 0.95511 0.0913563 3.11113
0 0.954929 0.0918245 2.48305
0 0.954802 0.128332 267.344
0 0.955226 0.0911112 2.12506
0 0.95512 0.0911205 1.86417
0 0.955062 0.091098 0.891121
0 0.955234 0.0910812 1.77355
0 0.955259 0.0910634 1.5748
0 0.95525 0.09101 0.466111
0 0.955242 0.09104 0.535846
0 0.955266 0.0910444 1.27643
0 0.955247 0.0910564 0.952985
0 0.954947 0.0911494 1.36504
0 0.954864 0.0916679 3.335
0 0.954785 0.129483 150.166
0 0.955175 0.0910959 2.03456
0 0.955178 0.0911681 2.60151
0 0.955201 0.0910362 1.2025
0 0.955226 0.0910118 0.58457
0 0.955198 0.0911281 1.76885
0 0.955203 0.0913147 2.51474
0 0.955173 0.091678 4.15918
0 0.955011 0.131412 209.998
0 0.955163 0.0910961 1.5912
0 0.95506 0.0911243 1.06809
0 0.955196 0.0910868 1.58291
0 0.955228 0.0910813 1.44282
0 0.955218 0.0910279 0.250813
0 0.955211 0.0910555 0.321937
0 0.955219 0.0910813 1.23435
0 0.955204 0.0910786 0.944811
0 0.955034 0.0911682 1.02897
0 0.954942 0.0912036 1.56726
0 0.95491 0.0917042 4.65649
0 0.954872 0.130751 312.222
0 0.955191 0.0910307 1.39234
0 0.9552 0.0910243 0.715704
0 0.955187 0.0911173 0.8662
0 0.955198 0.0913202 1.67742
0 0.955267 0.0916457 3.11145
0 0.95529 0.131385 111.876
0 0.955128 0.0911071 1.45895
0 0.955173 0.091087 1.43222
0 0.955189 0.0910377 0.109578
0 0.955176 0.09106 0.730516
0 0.95517 0.0910923 1.4549
0 0.955059 0.0911493 1.04038
0 0.954943 0.0913077 1.43511
0 0.954874 0.0915468 3.90553
0 0.954906 0.129405 159.672
0 0.955181 0.0910637 0.308429
0 0.955177 0.0912106 0.265766
0 0.955164 0.0913449 0.331872
0 0.955097 0.0918897 4.37362
0 0.955208 0.129889 99.7091
0 0.955131 0.0910867 1.43493
0 0.955168 0.091105 0.683333
0 0.955155 0.0910905 1.31427
0 0.955082 0.091098 0.306869
0 0.954988 0.0912532 0.626907
0 0.954828 0.0916261 0.987662
0 0.954776 0.131998 205.83
0 0.955177 0.0912201 0.34601
0 0.955193 0.0913597 2.38376
0 0.955119 0.0920266 5.66986
0 0.954968 0.125592 220.199
0 0.955185 0.0912446 1.47515
0 0.955141 0.0910456 0.250799
0 0.955183 0.0911502 0.896469
0 0.955181 0.0910832 1.05328
0 0.95511 0.0912169 2.08541
0 0.954981 0.0918846 5.28364
0 0.954808 0.125942 107.337
0 0.955229 0.0913924 3.40264
0 0.955315 0.0917882 6.34683
0 0.955269 0.128552 173.878
0 0.955253 0.0913402 4.25488
0 0.955238 0.0911664 2.38897
0 0.955281 0.0912864 3.41155
0 0.955259 0.0916911 4.37054
0 0.955123 0.124963 281.449
0 0.955294 0.0917579 6.97677
0 0.955371 0.129596 104.726
0 0.955387 0.0917784 7.01249
0 0.95546 0.0918043 6.31643
0 0.955471 0.129027 53.4847
0 0.955338 0.127889 245.353
0 0.955575 0.131057 138.167
VECTORS fa_u float
0.00684693 0.00283301 -0
0.0052316 0.00302071 -0
0.00546719 0.00147368 -0
0.00692027 0.000948266 -0
1e-08 0 0
0.00537619 0.00410213 -0
0.00466707 0.00464062 -0
1e-08 0 0
1e-08 0 0
0.00346966 0.00444113 -0
0.00450447 0.00773712 -0
0.00624811 3.74536e-05 -0
0.00635099 -0.00077443 0
1e-08 0 0
1e-08 0 0
1e-08 0 0
1e-08 0 0
1e-08 0 0
1e-08 0 0
1e-08 0 0
1e-08 0 0
0.00207984 0.00502492 -0
0.00208304 0.00778941 -0
1e-08 0 0
1e-08 0 0
1e-08 0 0
0.00794023 -0.00209459 0
1e-08 0 0
0.00694209 -0.00293749 0
1e-08 0 0
1e-08 0 0
1e-08 0 0
0.000776487 0.00610357 -0
1e-08 0 0
1e-08 0 0
1e-08 0 0
1e-08 0 0
1e-08 0 0
1e-08 0 0
1e-08 0 0
1e-08 0 0
1e-08 0 0
1e-08 0 0
-3.96968e-05 0.00743077 -0
1e-08 0 0
1e-08 0 0
1e-08 0 0
0.00531264 -0.00313348 0
1e-08 0 0
0.00545691 -0.00425489 0
1e-08 0 0
1e-08 0 0
1e-08 0 0
1e-08 0 0
1e-08 0 0
1e-08 0 0
1e-08 0 0
1e-08 0 0
1e-08 0 0
1e-08 0 0
1e-08 0 0
1e-08 0 0
1e-08 0 0
-0.000848821 0.00613452 0
1e-08 0 0
1e-08 0 0
1e-08 0 0
1e-08 0 0
1e-08 0 0
0.00382429 -0.00384418 0
1e-08 0 0
0.00342734 -0.00437755 0
1e-08 0 0
1e-08 0 0
1e-08 0 0
1e-08 0 0
1e-08 0 0
1e-08 0 0
1e-08 0 0
1e-08 0 0
1e-08 0 0
1e-08 0 0
1e-08 0 0
1e-08 0 0
1e-08 0 0
-0.00148824 0.0055692 0
1e-08 0 0
1e-08 0 0
1e-08 0 0
1e-08 0 0
1e-08 0 0
1e-08 0 0
0.00397685 -0.00672855 0
1e-08 0 0
1e-08 0 0
1e-08 0 0
1e-08 0 0
1e-08 0 0
0.00331432 -0.00811204 0
1e-08 0 0
1e-08 0 0
1e-08 0 0
1e-08 0 0
1e-08 0 0
1e-08 0 0
1e-08 0 0
1e-08 0 0
1e-08 0 0
1e-08 0 0
-0.0025462 0.00623725 0
1e-08 0 0
1e-08 0 0
1e-08 0 0
1e-08 0 0
1e-08 0 0
1e-08 0 0
1e-08 0 0
1e-08 0 0
1e-08 0 0
1e-08 0 0
1e-08 0 0
1e-08 0 0
1e-08 0 0
1e-08 0 0
0.00128413 -0.00490922 0
1e-08 0 0
1e-08 0 0
1e-08 0 0
1e-08 0 0
1e-08 0 0
1e-08 0 0
1e-08 0 0
1e-08 0 0
1e-08 0 0
-0.0039965 0.00690046 0
1e-08 0 0
1e-08 0 0
1e-08 0 0
1e-08 0 0
1e-08 0 0
1e-08 0 0
1e-08 0 0
1e-08 0 0
1e-08 0 0
1e-08 0 0
1e-08 0 0
1e-08 0 0
1e-08 0 0
1e-08 0 0
1e-08 0 0
0.000858208 -0.00632109 0
1e-08 0 0
1e-08 0 0
1e-08 0 0
1e-08 0 0
1e-08 0 0
1e-08 0 0
1e-08 0 0
1e-08 0 0
1e-08 0 0
1e-08 0 0
-0.00386756 0.00498204 0
1e-08 0 0
1e-08 0 0
1e-08 0 0
1e-08 0 0
1e-08 0 0
1e-08 0 0
1e-08 0 0
1e-08 0 0
1e-08 0 0
1e-08 0 0
1e-08 0 0
1e-08 0 0
3.12853e-05 -0.00682597 0
1e-08 0 0
1e-08 0 0
1e-08 0 0
1e-08 0 0
1e-08 0 0
1e-08 0 0
1e-08 0 0
1e-08 0 0
1e-08 0 0
1e-08 0 0
1e-08 0 0
1e-08 0 0
-0.00398876 0.00400153 0
1e-08 0 0
1e-08 0 0
1e-08 0 0
1e-08 0 0
1e-08 0 0
1e-08 0 0
1e-08 0 0
1e-08 0 0
1e-08 0 0
1e-08 0 0
1e-08 0 0
1e-08 0 0
1e-08 0 0
-0.000835915 -0.00655725 0
1e-08 0 0
1e-08 0 0
1e-08 0 0
1e-08 0 0
1e-08 0 0
1e-08 0 0
1e-08 0 0
1e-08 0 0
-0.0046916 0.00367889 0
1e-08 0 0
1e-08 0 0
1e-08 0 0
1e-08 0 0
1e-08 0 0
1e-08 0 0
1e-08 0 0
1e-08 0 0
1e-08 0 0
1e-08 0 0
1e-08 0 0
-0.00195428 -0.00729772 0
1e-08 0 0
1e-08 0 0
1e-08 0 0
1e-08 0 0
1e-08 0 0
1e-08 0 0
1e-08 0 0
-0.0062916 0.00372575 0
1e-08 0 0
1e-08 0 0
1e-08 0 0
1e-08 0 0
1e-08 0 0
1e-08 0 0
1e-08 0 0
1e-08 0 0
1e-08 0 0
1e-08 0 0
1e-08 0 0
-0.00230634 -0.00555509 0
1e-08 0 0
1e-08 0 0
1e-08 0 0
1e-08 0 0
1e-08 0 0
-0.00812505 0.00334911 0
1e-08 0 0
1e-08 0 0
1e-08 0 0
1e-08 0 0
1e-08 0 0
1e-08 0 0
1e-08 0 0
1e-08 0 0
-0.00384365 -0.00662572 0
1e-08 0 0
1e-08 0 0
1e-08 0 0
1e-08 0 0
-0.00543931 0.00142233 0
1e-08 0 0
1e-08 0 0
1e-08 0 0
1e-08 0 0
1e-08 0 0
1e-08 0 0
-0.00416891 -0.00535113 0
1e-08 0 0
1e-08 0 0
1e-08 0 0
-0.00692727 0.000896718 0
1e-08 0 0
1e-08 0 0
1e-08 0 0
1e-08 0 0
1e-08 0 0
1e-08 0 0
-0.00398452 -0.00396556 0
1e-08 0 0
1e-08 0 0
-0.00674252 -2.70913e-05 0
1e-08 0 0
1e-08 0 0
1e-08 0 0
1e-08 0 0
-0.00543136 -0.00418693 0
1e-08 0 0
-0.00674028 -0.000922154 0
1e-08 0 0
1e-08 0 0
-0.00608653 -0.00351086 0
-0.00531894 -0.00142203 0
-0.00661134 -0.00270468 0
