# vtk DataFile Version 2.0
CellBP Time: 4.32
ASCII
DATASET UNSTRUCTURED_GRID
POINTS 296 double
-8.94583 -3.67084 0
-8.37146 -4.80994 0
-9.3465 -2.45904 0
-9.60825 -1.21786 0
-8.26306 -2.77699 0
-7.66981 -5.87708 0
-6.82826 -6.83683 0
-7.82286 -3.82208 0
-7.25255 -4.81015 0
-5.87966 -7.6828 0
-4.82967 -8.39446 0
-9.69169 0.0464631 0
-9.62642 1.31911 0
-8.57031 -1.65948 0
-8.70588 -0.52183 0
-7.49816 -1.97104 0
-7.13164 -2.86073 0
-6.56493 -5.72255 0
-5.76742 -6.5416 0
-6.69988 -3.83374 0
-6.14225 -4.62019 0
-3.68808 -8.96272 0
-2.47618 -9.37269 0
-4.86883 -7.25479 0
-3.89235 -7.83398 0
-8.71939 0.634814 0
-9.38416 2.57705 0
-8.55761 1.75466 0
-8.97159 3.78507 0
-7.65932 -0.911672 0
-7.71557 0.0832074 0
-6.87093 -1.29315 0
-1.219 -9.61772 0
-6.36674 -2.12201 0
-6.2432 -3.01357 0
-5.47404 -5.4199 0
-4.74831 -6.06193 0
-5.59158 -3.71131 0
-5.20461 -4.50978 0
-2.84918 -8.30703 0
-1.76452 -8.57842 0
-3.89653 -6.67143 0
-3.03938 -7.10214 0
0.0518308 -9.69114 0
-7.6326 1.13179 0
-8.28298 2.89505 0
-7.48459 2.08809 0
-8.39869 4.92423 0
-7.81508 3.94364 0
-7.67272 5.97507 0
-6.70463 -0.387522 0
-6.88292 0.550132 0
-5.71551 -0.991664 0
-0.585382 -8.73973 0
0.556195 -8.6911 0
-5.25048 -2.45134 0
-4.43912 -5.04352 0
-3.8623 -5.72345 0
-4.3951 -3.76722 0
-2.0477 -7.50632 0
-1.12748 -7.72375 0
-2.96823 -6.05182 0
-2.29398 -6.56978 0
1.31682 -9.60271 0
-6.62509 1.40639 0
-7.104 3.08577 0
-6.59629 2.34824 0
-7.22638 4.94041 0
-6.65355 3.9607 0
-6.83069 6.9274 0
-6.50958 5.83436 0
-5.87551 7.77113 0
-4.42343 -1.17442 0
-5.76436 0.505321 0
-4.62615 -0.0167489 0
0.00186926 -7.77589 0
1.71292 -8.55452 0
0.92966 -7.68336 0
-4.01107 -2.38698 0
-3.47469 -1.38715 0
-3.26684 -4.76489 0
-3.24818 -3.24434 0
-1.37242 -6.61886 0
-0.512412 -6.95977 0
-1.96277 -5.49603 0
2.56351 -9.34314 0
-5.45984 2.01986 0
-6.03654 3.03918 0
-6.04537 4.81664 0
-5.70471 3.94547 0
-5.7047 6.64661 0
-5.39751 5.55669 0
-4.82599 8.49396 0
-4.78967 7.32399 0
-3.4871 -0.423278 0
-4.41748 1.23995 0
-3.69095 0.588898 0
-4.03142 2.30954 0
-3.68645 9.05982 0
2.82092 -8.23462 0
0.402861 -6.72292 0
1.9876 -7.43734 0
1.27817 -6.82507 0
-2.43888 -0.869467 0
-2.82937 -2.12122 0
-2.28335 -4.06959 0
-2.31643 -2.95657 0
-0.445876 -5.80766 0
-1.21364 -4.46973 0
3.77409 -8.94472 0
-4.7468 3.36059 0
-5.03737 4.54206 0
-4.59884 6.20906 0
-4.49265 5.29825 0
-3.81017 7.9179 0
-3.78475 6.76441 0
-2.755 8.33857 0
-1.64646 -0.133969 0
-1.44685 -0.886874 0
-2.48399 0.510837 0
-3.23581 1.4408 0
-3.2153 3.29465 0
-2.89418 2.36663 0
-1.35467 0.630921 0
-2.47583 9.46205 0
3.88159 -7.79314 0
2.91628 -7.06227 0
0.93433 -5.75945 0
2.03814 -6.3353 0
-1.67709 -1.9859 0
-1.42696 -3.25967 0
0.0864462 -4.70823 0
-0.560148 -3.67413 0
4.87354 -7.22962 0
4.91845 -8.38762 0
-3.74279 4.5072 0
-3.69726 5.68865 0
-2.85488 7.20821 0
-2.97862 6.28432 0
-1.64563 8.654 0
-1.91719 7.54267 0
-2.32346 4.02272 0
-0.728401 -1.32408 0
-0.836202 -0.254261 0
-1.93384 1.68369 0
-2.11709 2.86675 0
-1.30363 3.52891 0
-0.87161 1.35439 0
-0.284371 0.458961 0
-0.52753 8.79905 0
-1.22076 9.69936 0
1.09786 -4.53162 0
3.85133 -6.61997 0
2.94276 -6.01353 0
2.08656 -5.36092 0
4.72549 -6.12064 0
-0.55497 -2.46827 0
0.493454 -3.44346 0
0.0543914 -1.60789 0
1.4674 -3.65126 0
5.80623 -6.53581 0
5.97293 -7.66907 0
-2.45413 5.29808 0
-2.10601 6.46647 0
-0.891737 7.73286 0
-1.25402 6.86293 0
0.0887769 7.8164 0
-1.13834 4.46449 0
0.149098 -0.615059 0
-0.801332 2.48899 0
-0.336773 3.5888 0
0.0586341 1.51438 0
0.737144 0.474308 0
0.641322 8.8101 0
0.0474761 9.80184 0
2.35294 -4.23852 0
3.80858 -5.56314 0
2.96133 -5.14663 0
5.51703 -5.42408 0
4.63578 -5.20928 0
0.630273 -2.28909 0
1.24827 -2.93409 0
0.756129 -1.38952 0
2.14635 -3.11102 0
2.9661 -3.44237 0
6.1007 -4.73869 0
6.59754 -5.70935 0
6.93324 -6.82582 0
-1.00816 5.76948 0
-0.362907 6.82094 0
1.11541 7.71335 0
0.558094 7.02266 0
-0.00327182 4.69684 0
0.599598 3.81091 0
1.33512 -0.641568 0
0.53246 2.64539 0
0.959546 1.57474 0
1.90378 0.212572 0
1.60761 1.06382 0
2.11733 7.53166 0
1.78793 8.6531 0
1.32157 9.71936 0
3.7818 -4.29831 0
5.06401 -4.38967 0
5.79465 -3.88953 0
3.75147 -3.16902 0
1.80533 -1.87953 0
2.99773 -2.55629 0
6.7318 -3.91168 0
7.32606 -4.85513 0
7.78133 -5.87705 0
0.482383 5.83715 0
1.42077 6.69239 0
2.36112 6.62309 0
1.20104 4.53062 0
1.47928 3.38177 0
2.42546 -0.690636 0
2.81568 0.14258 0
1.78004 2.15746 0
2.60249 1.14694 0
3.05502 7.12148 0
2.88969 8.32157 0
2.57832 9.4745 0
4.86826 -3.28936 0
6.07264 -3.0762 0
4.14368 -2.25887 0
3.2262 -1.49712 0
6.68595 -2.29661 0
7.18373 -3.02213 0
7.91325 -3.88837 0
8.49835 -4.82934 0
2.01269 5.56209 0
3.05963 6.10658 0
2.35305 4.10146 0
2.40956 3.04499 0
3.5067 -0.457293 0
3.59762 0.614026 0
2.9474 2.27686 0
3.52456 1.51832 0
3.9715 5.84901 0
3.95281 6.74293 0
3.95297 7.8871 0
3.78963 9.0633 0
5.53046 -1.90118 0
4.4813 -1.12154 0
6.66535 -1.32531 0
7.54144 -2.02113 0
8.34285 -2.84419 0
9.07096 -3.69152 0
3.38584 4.83723 0
3.31317 3.36076 0
4.66104 0.132295 0
4.4833 1.29965 0
4.02966 2.42355 0
4.51615 5.10317 0
4.79593 6.13935 0
4.9425 7.3272 0
4.93408 8.50047 0
5.83733 -0.433481 0
6.95365 -0.487292 0
7.70467 -1.07379 0
8.62632 -1.73106 0
9.46871 -2.47489 0
4.50229 3.7905 0
5.76173 1.08283 0
5.31236 2.50555 0
5.31147 4.57027 0
5.54895 5.47108 0
5.84136 6.61713 0
5.98657 7.79115 0
6.78123 0.451597 0
7.78888 -0.0274704 0
8.79697 -0.574924 0
9.71886 -1.21828 0
6.88718 1.32655 0
5.64964 3.73407 0
6.46561 2.16489 0
6.30061 3.04636 0
6.21313 4.63388 0
6.62021 5.78206 0
6.93075 6.93673 0
7.71136 0.95271 0
8.78592 0.566891 0
9.80112 0.054274 0
7.5344 1.97548 0
6.73681 3.85116 0
7.1805 2.90475 0
7.29619 4.83439 0
7.78433 5.98575 0
8.63922 1.70571 0
9.70459 1.31975 0
8.32809 2.80131 0
7.89563 3.87191 0
8.48436 4.91891 0
9.45578 2.56989 0
9.05015 3.7779 0
CELLS 542 2168
3 2 0 4
3 0 1 7
3 4 0 7
3 1 5 8
3 7 1 8
3 3 2 13
3 13 2 4
3 11 3 14
3 14 3 13
3 13 4 15
3 4 7 16
3 15 4 16
3 5 6 17
3 8 5 17
3 6 9 18
3 17 6 18
3 7 8 19
3 16 7 19
3 8 17 20
3 19 8 20
3 9 10 23
3 18 9 23
3 10 21 24
3 23 10 24
3 12 11 25
3 25 11 14
3 26 12 27
3 27 12 25
3 14 13 29
3 29 13 15
3 25 14 30
3 30 14 29
3 29 15 31
3 15 16 33
3 31 15 33
3 16 19 34
3 33 16 34
3 17 18 35
3 20 17 35
3 18 23 36
3 35 18 36
3 19 20 37
3 34 19 37
3 20 35 38
3 37 20 38
3 21 22 39
3 24 21 39
3 22 32 40
3 39 22 40
3 23 24 41
3 36 23 41
3 24 39 42
3 41 24 42
3 27 25 44
3 44 25 30
3 28 26 45
3 45 26 27
3 45 27 46
3 46 27 44
3 47 28 48
3 48 28 45
3 30 29 50
3 50 29 31
3 44 30 51
3 51 30 50
3 50 31 52
3 31 33 52
3 32 43 53
3 40 32 53
3 53 43 54
3 33 34 55
3 34 37 55
3 33 55 52
3 35 36 56
3 38 35 56
3 36 41 57
3 56 36 57
3 37 38 58
3 38 56 58
3 37 58 55
3 39 40 59
3 42 39 59
3 40 53 60
3 59 40 60
3 41 42 61
3 57 41 61
3 42 59 62
3 61 42 62
3 43 63 54
3 46 44 64
3 64 44 51
3 48 45 65
3 65 45 46
3 65 46 66
3 66 46 64
3 49 47 67
3 67 47 48
3 67 48 68
3 68 48 65
3 69 49 70
3 70 49 67
3 52 55 72
3 64 51 73
3 51 50 73
3 50 52 73
3 73 52 74
3 74 52 72
3 53 54 75
3 60 53 75
3 54 63 76
3 54 76 77
3 75 54 77
3 55 58 78
3 72 55 78
3 72 78 79
3 56 57 80
3 57 61 80
3 56 80 58
3 58 80 81
3 78 58 81
3 59 60 82
3 62 59 82
3 60 75 83
3 82 60 83
3 61 62 84
3 62 82 84
3 61 84 80
3 63 85 76
3 66 64 86
3 64 73 86
3 68 65 87
3 87 65 66
3 87 66 86
3 70 67 88
3 88 67 68
3 88 68 89
3 89 68 87
3 71 69 90
3 90 69 70
3 90 70 91
3 91 70 88
3 92 71 93
3 93 71 90
3 74 72 94
3 94 72 79
3 86 73 95
3 95 73 74
3 95 74 96
3 96 74 94
3 97 86 95
3 76 85 99
3 75 77 100
3 83 75 100
3 76 99 101
3 77 76 101
3 77 101 102
3 100 77 102
3 94 79 103
3 78 81 104
3 79 78 104
3 79 104 103
3 80 84 105
3 81 80 105
3 81 105 106
3 104 81 106
3 82 83 107
3 83 100 107
3 82 107 84
3 84 107 108
3 105 84 108
3 85 109 99
3 89 87 110
3 87 86 110
3 110 86 97
3 91 88 111
3 111 88 89
3 111 89 110
3 93 90 112
3 112 90 91
3 112 91 113
3 113 91 111
3 98 92 114
3 114 92 93
3 114 93 115
3 115 93 112
3 116 98 114
3 117 103 118
3 96 94 119
3 94 103 119
3 119 103 117
3 97 95 120
3 120 95 96
3 120 96 119
3 121 110 97
3 121 97 122
3 122 97 120
3 123 119 117
3 124 98 116
3 99 109 125
3 99 125 126
3 101 99 126
3 100 102 127
3 100 127 107
3 101 126 128
3 102 101 128
3 102 128 127
3 104 106 129
3 104 129 103
3 103 129 118
3 105 108 130
3 106 105 130
3 106 130 129
3 107 127 131
3 108 107 131
3 108 131 132
3 108 132 130
3 109 134 125
3 125 134 133
3 113 111 135
3 111 110 135
3 135 110 121
3 115 112 136
3 136 112 113
3 136 113 135
3 116 114 137
3 137 114 115
3 137 115 138
3 138 115 136
3 139 124 116
3 139 116 140
3 140 116 137
3 141 135 121
3 118 129 142
3 118 142 143
3 117 118 143
3 123 117 143
3 122 120 144
3 120 119 144
3 144 119 123
3 141 121 145
3 145 121 122
3 145 122 144
3 146 141 145
3 147 144 123
3 147 123 148
3 143 148 123
3 150 124 139
3 149 150 139
3 131 127 151
3 125 133 152
3 126 125 152
3 126 152 153
3 128 126 153
3 128 153 154
3 128 154 127
3 127 154 151
3 152 133 155
3 130 132 156
3 130 156 129
3 129 156 142
3 131 151 157
3 132 131 157
3 132 157 156
3 156 158 142
3 157 151 159
3 133 160 155
3 134 161 133
3 133 161 160
3 138 136 162
3 136 135 162
3 162 135 141
3 140 137 163
3 163 137 138
3 163 138 162
3 149 139 164
3 164 139 140
3 164 140 165
3 165 140 163
3 166 149 164
3 167 162 141
3 167 141 146
3 142 158 168
3 143 142 168
3 143 168 148
3 146 145 169
3 145 144 169
3 169 144 147
3 170 167 146
3 170 146 169
3 171 169 147
3 171 147 148
3 171 148 172
3 168 172 148
3 173 149 166
3 174 150 149
3 173 174 149
3 154 175 151
3 151 175 159
3 152 155 176
3 153 152 176
3 153 176 177
3 153 177 154
3 154 177 175
3 155 160 178
3 155 178 179
3 176 155 179
3 156 157 180
3 156 180 158
3 157 159 181
3 157 181 180
3 158 180 182
3 158 182 168
3 159 175 183
3 159 183 181
3 175 184 183
3 160 186 178
3 178 186 185
3 161 187 160
3 160 187 186
3 165 163 188
3 163 162 188
3 188 162 167
3 166 164 189
3 189 164 165
3 189 165 188
3 190 173 166
3 190 166 191
3 191 166 189
3 192 188 167
3 192 167 170
3 193 192 170
3 182 194 168
3 194 172 168
3 193 170 195
3 170 169 195
3 195 169 171
3 196 195 171
3 196 171 172
3 194 197 172
3 197 198 172
3 198 196 172
3 200 173 190
3 199 200 190
3 201 174 173
3 200 201 173
3 176 179 202
3 177 176 202
3 177 202 175
3 175 202 184
3 178 185 203
3 178 203 179
3 179 203 202
3 203 185 204
3 202 205 184
3 183 206 181
3 180 181 206
3 180 206 182
3 182 206 194
3 183 184 207
3 205 207 184
3 183 207 206
3 185 208 204
3 186 209 185
3 185 209 208
3 187 210 186
3 186 210 209
3 191 189 211
3 189 188 211
3 211 188 192
3 199 190 212
3 212 190 191
3 212 191 211
3 213 199 212
3 214 211 192
3 214 192 193
3 215 214 193
3 215 193 195
3 206 216 194
3 216 197 194
3 216 217 197
3 215 195 218
3 218 195 196
3 198 218 196
3 217 219 197
3 219 218 198
3 197 219 198
3 220 199 213
3 221 200 199
3 220 221 199
3 222 201 200
3 221 222 200
3 203 204 223
3 203 223 202
3 202 223 205
3 204 208 224
3 204 224 223
3 205 223 225
3 205 225 207
3 207 225 226
3 207 226 206
3 226 216 206
3 208 228 224
3 224 228 227
3 209 229 208
3 229 228 208
3 210 230 209
3 209 230 229
3 213 212 231
3 212 211 231
3 231 211 214
3 232 220 213
3 232 213 231
3 233 231 214
3 233 214 215
3 234 233 215
3 234 215 218
3 226 235 216
3 235 217 216
3 235 236 217
3 217 236 219
3 237 234 218
3 237 218 219
3 236 238 219
3 238 237 219
3 240 220 232
3 239 240 232
3 241 221 220
3 240 241 220
3 242 222 221
3 241 242 221
3 224 227 243
3 224 243 223
3 223 243 225
3 225 243 244
3 225 244 226
3 226 244 235
3 227 245 243
3 228 246 227
3 227 246 245
3 229 247 228
3 228 247 246
3 230 248 229
3 229 248 247
3 239 232 249
3 232 231 249
3 249 231 233
3 250 249 233
3 250 233 234
3 237 250 234
3 244 251 235
3 235 251 236
3 251 252 236
3 236 252 238
3 252 253 238
3 253 250 237
3 253 237 238
3 254 239 249
3 255 240 239
3 254 255 239
3 256 241 240
3 255 256 240
3 257 242 241
3 256 257 241
3 245 258 243
3 243 258 244
3 244 258 251
3 245 259 258
3 246 260 245
3 245 260 259
3 247 261 246
3 246 261 260
3 248 262 247
3 247 262 261
3 254 249 263
3 263 249 250
3 253 263 250
3 258 264 251
3 251 264 252
3 264 265 252
3 265 263 253
3 252 265 253
3 266 254 263
3 267 255 254
3 266 267 254
3 268 256 255
3 267 268 255
3 269 257 256
3 268 269 256
3 259 270 258
3 270 264 258
3 260 271 259
3 259 271 270
3 261 272 260
3 260 272 271
3 262 273 261
3 273 272 261
3 270 274 264
3 275 266 263
3 275 263 265
3 274 276 264
3 276 265 264
3 276 277 265
3 277 275 265
3 278 267 266
3 275 278 266
3 279 268 267
3 278 279 267
3 280 269 268
3 279 280 268
3 271 281 270
3 270 281 274
3 272 282 271
3 271 282 281
3 273 283 272
3 272 283 282
3 281 284 274
3 274 284 276
3 285 278 275
3 277 285 275
3 284 286 276
3 286 285 277
3 276 286 277
3 287 279 278
3 285 287 278
3 288 280 279
3 287 288 279
3 282 289 281
3 281 289 284
3 283 290 282
3 282 290 289
3 289 291 284
3 284 291 286
3 291 292 286
3 292 287 285
3 286 292 285
3 293 288 287
3 292 293 287
3 290 294 289
3 289 294 291
3 294 295 291
3 295 293 292
3 291 295 292
CELL_TYPES 542
5
5
5
5
5
5
5
5
5
5
5
5
5
5
5
5
5
5
5
5
5
5
5
5
5
5
5
5
5
5
5
5
5
5
5
5
5
5
5
5
5
5
5
5
5
5
5
5
5
5
5
5
5
5
5
5
5
5
5
5
5
5
5
5
5
5
5
5
5
5
5
5
5
5
5
5
5
5
5
5
5
5
5
5
5
5
5
5
5
5
5
5
5
5
5
5
5
5
5
5
5
5
5
5
5
5
5
5
5
5
5
5
5
5
5
5
5
5
5
5
5
5
5
5
5
5
5
5
5
5
5
5
5
5
5
5
5
5
5
5
5
5
5
5
5
5
5
5
5
5
5
5
5
5
5
5
5
5
5
5
5
5
5
5
5
5
5
5
5
5
5
5
5
5
5
5
5
5
5
5
5
5
5
5
5
5
5
5
5
5
5
5
5
5
5
5
5
5
5
5
5
5
5
5
5
5
5
5
5
5
5
5
5
5
5
5
5
5
5
5
5
5
5
5
5
5
5
5
5
5
5
5
5
5
5
5
5
5
5
5
5
5
5
5
5
5
5
5
5
5
5
5
5
5
5
5
5
5
5
5
5
5
5
5
5
5
5
5
5
5
5
5
5
5
5
5
5
5
5
5
5
5
5
5
5
5
5
5
5
5
5
5
5
5
5
5
5
5
5
5
5
5
5
5
5
5
5
5
5
5
5
5
5
5
5
5
5
5
5
5
5
5
5
5
5
5
5
5
5
5
5
5
5
5
5
5
5
5
5
5
5
5
5
5
5
5
5
5
5
5
5
5
5
5
5
5
5
5
5
5
5
5
5
5
5
5
5
5
5
5
5
5
5
5
5
5
5
5
5
5
5
5
5
5
5
5
5
5
5
5
5
5
5
5
5
5
5
5
5
5
5
5
5
5
5
5
5
5
5
5
5
5
5
5
5
5
5
5
5
5
5
5
5
5
5
5
5
5
5
5
5
5
5
5
5
5
5
5
5
5
5
5
5
5
5
5
5
5
5
5
5
5
5
5
5
5
5
5
5
5
5
5
5
5
5
5
5
5
5
5
5
5
5
5
5
5
5
5
5
5
5
5
5
5
5
5
5
5
5
5
5
5
5
5
5
5
5
5
5
5
5
5
5
5
5
5
5
5
5
5
5
5
5
5
5
5
5
5
5
5
5
5
5
5
5
5
5
5
5
5
5
5
5
5
5
5
5
5
5
5
5
5
POINT_DATA 296
SCALARS concentrations float 4
LOOKUP_TABLE default
0 0.949509 0.111705 40.0148
0 0.949255 0.108165 236.142
0 0.949502 0.10872 132.714
0 0.949359 0.108972 25.5401
0 0.949485 0.0919643 6.03704
0 0.949169 0.10692 115.292
0 0.949091 0.108918 78.183
0 0.949356 0.0921664 10.1484
0 0.949198 0.0920301 9.52212
0 0.949097 0.110134 72.5381
0 0.949252 0.108905 169.63
0 0.949091 0.108499 187.132
0 0.949132 0.109672 22.2479
0 0.949454 0.0917105 2.93372
0 0.949321 0.0919481 2.60771
0 0.949456 0.0913762 3.44913
0 0.949382 0.0914349 4.3872
0 0.949147 0.0921982 7.60448
0 0.94911 0.0923765 9.35909
0 0.949282 0.0913925 3.80449
0 0.949205 0.0914267 2.47289
0 0.949192 0.114057 54.0625
0 0.948923 0.108428 108.641
0 0.949196 0.0919496 9.4154
0 0.949266 0.0925641 11.2725
0 0.94926 0.0919816 8.13099
0 0.949394 0.108966 95.931
0 0.949394 0.0918189 8.35822
0 0.949862 0.109977 4.87529
0 0.949471 0.0912904 2.55891
0 0.94949 0.09126 3.0422
0 0.949496 0.0911691 2.06899
0 0.948871 0.112666 2.97298
0 0.949444 0.0911281 2.10709
0 0.949364 0.0911584 2.18909
0 0.949188 0.0914943 2.43835
0 0.949217 0.0915318 4.12592
0 0.949325 0.0911547 0.901411
0 0.949275 0.091274 1.29586
0 0.949128 0.0922331 11.8069
0 0.949009 0.0921099 10.9833
0 0.949278 0.0914456 3.95607
0 0.949275 0.0912789 2.76861
0 0.948697 0.109788 209.722
0 0.949555 0.0913679 4.14237
0 0.949703 0.0921732 9.16817
0 0.949702 0.0913803 4.53735
0 0.949884 0.11413 112.457
0 0.949905 0.0924201 10.3312
0 0.949642 0.112489 169.799
0 0.949555 0.0911097 1.44622
0 0.949609 0.0911133 1.77576
0 0.949521 0.0910475 1.20734
0 0.948922 0.0920197 4.96146
0 0.948878 0.0919948 5.72579
0 0.949433 0.0910397 0.824309
0 0.949304 0.0912747 1.90533
0 0.94932 0.0912445 2.08881
0 0.949384 0.091099 0.748392
0 0.949239 0.091307 3.70568
0 0.949177 0.0913155 3.6874
0 0.949361 0.0910815 0.551334
0 0.949354 0.0910858 1.38157
0 0.948821 0.109544 91.0491
0 0.949684 0.0910551 1.17394
0 0.949822 0.0914059 4.07831
0 0.949757 0.0911255 1.45719
0 0.949759 0.0926432 7.78555
0 0.949808 0.0914157 2.82584
0 0.949489 0.110182 118.585
0 0.949602 0.0919687 7.33109
0 0.9491 0.111954 2.24106
0 0.949502 0.0910263 0.913083
0 0.949618 0.0909954 0.86706
0 0.949567 0.0910272 1.32769
0 0.949147 0.0914103 2.30818
0 0.94899 0.0919932 7.43561
0 0.94915 0.0914182 2.17609
0 0.949455 0.0910248 0.394609
0 0.949503 0.0910283 0.656054
0 0.949397 0.0911125 0.811879
0 0.949441 0.0910658 0.511773
0 0.949358 0.091096 1.80404
0 0.949319 0.0911885 2.14482
0 0.949425 0.0910823 0.851781
0 0.948926 0.109954 184.231
0 0.949681 0.0909956 1.19485
0 0.949755 0.0911327 0.234277
0 0.949694 0.0912822 1.30633
0 0.949724 0.0911712 0.559714
0 0.949352 0.092134 11.9741
0 0.949535 0.0913496 2.97461
0 0.949223 0.110228 68.5816
0 0.949214 0.0921448 9.24262
0 0.949539 0.091027 0.947934
0 0.949621 0.0910121 1.43726
0 0.949573 0.0910208 1.25768
0 0.94963 0.0910009 1.56709
0 0.949392 0.109891 169.135
0 0.949087 0.09191 6.11478
0 0.949335 0.0911957 1.56697
0 0.949207 0.0912597 2.62923
0 0.949326 0.0911822 1.47073
0 0.949524 0.0910074 0.570861
0 0.949491 0.0910328 0.4266
0 0.949456 0.0910924 0.706113
0 0.949484 0.0910486 0.331204
0 0.949432 0.0910539 0.850332
0 0.949474 0.0910758 0.576019
0 0.949094 0.109305 98.4528
0 0.949656 0.091039 1.59096
0 0.949627 0.0911405 1.64549
0 0.949415 0.0913101 2.31238
0 0.949536 0.0911791 1.74315
0 0.949353 0.0919348 2.67366
0 0.949384 0.091368 2.15456
0 0.949413 0.0920264 2.48919
0 0.949534 0.0910014 0.629077
0 0.949524 0.090993 0.587748
0 0.949549 0.0910148 0.79383
0 0.949584 0.0910141 1.31641
0 0.949594 0.0910042 1.36207
0 0.949582 0.0910074 1.39833
0 0.949536 0.0909979 0.663569
0 0.94942 0.106331 16.2237
0 0.949237 0.0919688 6.15978
0 0.949289 0.0912603 2.66273
0 0.949442 0.0910679 0.685027
0 0.949378 0.0910874 1.31622
0 0.949512 0.0909929 0.381429
0 0.949498 0.0910344 0.132241
0 0.949489 0.0910328 0.305499
0 0.949507 0.0910388 0.0768337
0 0.949301 0.091862 5.22206
0 0.949251 0.109044 53.4027
0 0.949569 0.0910423 1.25572
0 0.949486 0.0911503 0.94788
0 0.949412 0.0913327 0.985305
0 0.949452 0.0911552 0.571746
0 0.949462 0.0927172 9.60754
0 0.949443 0.0915062 2.55354
0 0.949539 0.0910016 0.932699
0 0.949522 0.0909861 0.644839
0 0.949526 0.0909907 0.618474
0 0.949549 0.091004 0.85554
0 0.949548 0.0910007 1.07767
0 0.949521 0.0910115 0.813411
0 0.949527 0.0909854 0.663888
0 0.949521 0.0909793 0.637229
0 0.94966 0.0927211 9.55125
0 0.949562 0.109192 193.534
0 0.949502 0.0910146 0.737119
0 0.949358 0.0914146 3.507
0 0.949417 0.0911342 1.91256
0 0.949475 0.0910221 1.24061
0 0.949385 0.091303 2.03346
0 0.949518 0.0909935 0.484341
0 0.949518 0.0910096 0.544387
0 0.949523 0.0909849 0.833362
0 0.949524 0.0910062 1.07703
0 0.949254 0.0919302 7.4467
0 0.949222 0.109334 97.7993
0 0.949504 0.0910089 0.635699
0 0.949462 0.0911689 1.10978
0 0.949515 0.0916423 4.13026
0 0.949476 0.0913193 2.50425
0 0.949584 0.0915876 3.62615
0 0.949504 0.0910226 0.894924
0 0.94952 0.0909773 0.750651
0 0.949521 0.0909999 0.657253
0 0.949503 0.0910503 0.685187
0 0.949513 0.09098 0.592722
0 0.949513 0.0909829 0.673558
0 0.949701 0.0920236 5.13733
0 0.949821 0.111392 45.7024
0 0.949519 0.0910285 1.46917
0 0.94946 0.09113 1.38443
0 0.949496 0.0910529 1.60655
0 0.949413 0.0913101 2.90478
0 0.949482 0.0910934 0.741687
0 0.949525 0.090989 0.954182
0 0.949528 0.090998 1.12404
0 0.949523 0.0909864 1.01878
0 0.949533 0.0910099 1.18944
0 0.949538 0.0910157 1.00552
0 0.949503 0.091313 3.77766
0 0.949277 0.092106 11.1216
0 0.949133 0.107261 44.9412
0 0.94949 0.0910886 1.43443
0 0.949509 0.0913113 2.87314
0 0.949608 0.0914185 2.63562
0 0.94954 0.0913047 3.10248
0 0.949496 0.0910601 1.05882
0 0.949497 0.0910457 0.772174
0 0.949518 0.090991 1.00094
0 0.949503 0.0909961 0.511118
0 0.949504 0.0909808 0.470643
0 0.949513 0.091002 0.810693
0 0.949506 0.0909869 0.467846
0 0.949587 0.0912833 1.52825
0 0.949656 0.0917002 2.33565
0 0.949684 0.109553 24.7465
0 0.949529 0.0910029 0.730781
0 0.94953 0.0910551 1.05497
0 0.949592 0.0911558 2.1421
0 0.949559 0.0910131 1.05192
0 0.94953 0.0910042 1.07553
0 0.949546 0.0910226 1.02563
0 0.949634 0.0913548 3.42505
0 0.949514 0.0924304 11.9087
0 0.949289 0.108012 22.1327
0 0.949509 0.091091 1.77328
0 0.949546 0.0911529 2.37917
0 0.949555 0.0910973 1.52885
0 0.949506 0.0910636 0.952775
0 0.949502 0.0910212 0.618765
0 0.949527 0.0910149 1.00903
0 0.949524 0.0910227 0.819438
0 0.949505 0.0909849 0.223429
0 0.949516 0.0910031 0.489586
0 0.949559 0.0912153 1.87565
0 0.949596 0.0915764 3.80024
0 0.949698 0.109446 114.367
0 0.949591 0.091029 1.07439
0 0.949669 0.0911356 2.18473
0 0.949584 0.0910329 0.92474
0 0.94955 0.0910319 0.934199
0 0.949761 0.0911997 2.37866
0 0.949794 0.0914094 2.34521
0 0.9497 0.0917941 5.41452
0 0.949621 0.111289 125.54
0 0.949532 0.0910885 1.19053
0 0.949569 0.0910947 0.541964
0 0.949524 0.0910678 0.720666
0 0.949514 0.0910294 0.460782
0 0.949554 0.0910362 0.868999
0 0.949548 0.0910299 0.649897
0 0.949524 0.0910096 0.0575146
0 0.94954 0.0910131 0.424209
0 0.949602 0.0912281 0.692737
0 0.949595 0.0914401 1.5481
0 0.949459 0.0919746 6.40595
0 0.949463 0.11036 123.881
0 0.949655 0.0910299 1.47849
0 0.9496 0.0910397 0.862568
0 0.949794 0.0911477 1.81758
0 0.949957 0.0914672 1.47068
0 0.94999 0.0920755 4.19573
0 0.949787 0.106131 81.7705
0 0.949564 0.0910238 0.189287
0 0.949547 0.0909988 0.0510572
0 0.949599 0.0910462 0.629536
0 0.949586 0.0910399 0.496619
0 0.949567 0.091022 0.614152
0 0.949618 0.0911754 0.928558
0 0.949644 0.0915276 2.26952
0 0.949634 0.0928462 6.57746
0 0.949439 0.108376 73.8196
0 0.949677 0.0910847 1.03648
0 0.949831 0.0912795 1.93035
0 0.950028 0.0915101 2.891
0 0.950297 0.0923775 3.77763
0 0.950332 0.112636 4.79671
0 0.949593 0.0909975 0.607418
0 0.949653 0.0911498 0.714284
0 0.94962 0.0910597 0.728139
0 0.949637 0.0911745 1.44167
0 0.949643 0.0914239 1.91214
0 0.949651 0.0926357 4.2921
0 0.949743 0.111953 83.5058
0 0.94977 0.0913144 1.67594
0 0.949959 0.091535 3.93702
0 0.950193 0.0924925 12.5168
0 0.950427 0.110386 72.2643
0 0.94975 0.0912958 1.26822
0 0.949648 0.0910659 1.58101
0 0.949699 0.0911342 0.836688
0 0.949683 0.0910786 1.86508
0 0.949648 0.0912729 3.33436
0 0.949514 0.0917384 6.46834
0 0.949468 0.106961 105.069
0 0.949876 0.0916265 4.33799
0 0.95 0.0927548 14.7073
0 0.950153 0.109648 64.3451
0 0.949806 0.0914248 3.17671
0 0.949709 0.0913214 3.53832
0 0.94976 0.0912889 3.45786
0 0.949649 0.0921409 12.7314
0 0.949496 0.10684 15.7715
0 0.949885 0.0924775 7.09118
0 0.949947 0.106957 72.5797
0 0.949812 0.0922016 5.92726
0 0.949765 0.0921021 8.47608
0 0.949722 0.110973 130.958
0 0.949852 0.106076 11.0625
0 0.949788 0.108895 48.9019
VECTORS fa_u float
0.00786048 0.00326015 -0
0.00444135 0.00256873 -0
0.00470308 0.00127004 -0
0.00783783 0.00107984 -0
1e-08 0 0
0.00593134 0.00451592 -0
0.00417988 0.00414384 -0
1e-08 0 0
1e-08 0 0
0.00424186 0.00544269 -0
0.00353557 0.0060539 -0
0.00538421 3.85752e-05 -0
0.00747701 -0.000908641 0
1e-08 0 0
1e-08 0 0
1e-08 0 0
1e-08 0 0
1e-08 0 0
1e-08 0 0
1e-08 0 0
1e-08 0 0
0.00275472 0.00662751 -0
0.00178384 0.00672429 -0
1e-08 0 0
1e-08 0 0
1e-08 0 0
0.00725641 -0.00192692 0
1e-08 0 0
0.0067434 -0.00283125 0
1e-08 0 0
1e-08 0 0
1e-08 0 0
0.000885805 0.00703199 -0
1e-08 0 0
1e-08 0 0
1e-08 0 0
1e-08 0 0
1e-08 0 0
1e-08 0 0
1e-08 0 0
1e-08 0 0
1e-08 0 0
1e-08 0 0
-3.77557e-05 0.0063754 -0
1e-08 0 0
1e-08 0 0
1e-08 0 0
0.00644548 -0.00382278 0
1e-08 0 0
0.00439532 -0.00344046 0
1e-08 0 0
1e-08 0 0
1e-08 0 0
1e-08 0 0
1e-08 0 0
1e-08 0 0
1e-08 0 0
1e-08 0 0
1e-08 0 0
1e-08 0 0
1e-08 0 0
1e-08 0 0
1e-08 0 0
-0.00098738 0.00712641 0
1e-08 0 0
1e-08 0 0
1e-08 0 0
1e-08 0 0
1e-08 0 0
0.00420644 -0.00420913 0
1e-08 0 0
0.00349127 -0.00446771 0
1e-08 0 0
1e-08 0 0
1e-08 0 0
1e-08 0 0
1e-08 0 0
1e-08 0 0
1e-08 0 0
1e-08 0 0
1e-08 0 0
1e-08 0 0
1e-08 0 0
1e-08 0 0
1e-08 0 0
-0.00128543 0.00480047 0
1e-08 0 0
1e-08 0 0
1e-08 0 0
1e-08 0 0
1e-08 0 0
1e-08 0 0
0.00401265 -0.00681614 0
1e-08 0 0
1e-08 0 0
1e-08 0 0
1e-08 0 0
1e-08 0 0
0.00292304 -0.00709609 0
1e-08 0 0
1e-08 0 0
1e-08 0 0
1e-08 0 0
1e-08 0 0
1e-08 0 0
1e-08 0 0
1e-08 0 0
1e-08 0 0
1e-08 0 0
-0.002684 0.00661489 0
1e-08 0 0
1e-08 0 0
1e-08 0 0
1e-08 0 0
1e-08 0 0
1e-08 0 0
1e-08 0 0
1e-08 0 0
1e-08 0 0
1e-08 0 0
1e-08 0 0
1e-08 0 0
1e-08 0 0
1e-08 0 0
0.0017566 -0.00677251 0
1e-08 0 0
1e-08 0 0
1e-08 0 0
1e-08 0 0
1e-08 0 0
1e-08 0 0
1e-08 0 0
1e-08 0 0
1e-08 0 0
-0.00412689 0.00711355 0
1e-08 0 0
1e-08 0 0
1e-08 0 0
1e-08 0 0
1e-08 0 0
1e-08 0 0
1e-08 0 0
1e-08 0 0
1e-08 0 0
1e-08 0 0
1e-08 0 0
1e-08 0 0
1e-08 0 0
1e-08 0 0
1e-08 0 0
0.000589443 -0.00437729 0
1e-08 0 0
1e-08 0 0
1e-08 0 0
1e-08 0 0
1e-08 0 0
1e-08 0 0
1e-08 0 0
1e-08 0 0
1e-08 0 0
1e-08 0 0
-0.00358475 0.00462448 0
1e-08 0 0
1e-08 0 0
1e-08 0 0
1e-08 0 0
1e-08 0 0
1e-08 0 0
1e-08 0 0
1e-08 0 0
1e-08 0 0
1e-08 0 0
1e-08 0 0
1e-08 0 0
6.48618e-05 -0.00824174 0
1e-08 0 0
1e-08 0 0
1e-08 0 0
1e-08 0 0
1e-08 0 0
1e-08 0 0
1e-08 0 0
1e-08 0 0
1e-08 0 0
1e-08 0 0
1e-08 0 0
1e-08 0 0
-0.00401386 0.00405055 0
1e-08 0 0
1e-08 0 0
1e-08 0 0
1e-08 0 0
1e-08 0 0
1e-08 0 0
1e-08 0 0
1e-08 0 0
1e-08 0 0
1e-08 0 0
1e-08 0 0
1e-08 0 0
1e-08 0 0
-0.000816296 -0.00631143 0
1e-08 0 0
1e-08 0 0
1e-08 0 0
1e-08 0 0
1e-08 0 0
1e-08 0 0
1e-08 0 0
1e-08 0 0
-0.00515566 0.00404169 0
1e-08 0 0
1e-08 0 0
1e-08 0 0
1e-08 0 0
1e-08 0 0
1e-08 0 0
1e-08 0 0
1e-08 0 0
1e-08 0 0
1e-08 0 0
1e-08 0 0
-0.00181803 -0.00683927 0
1e-08 0 0
1e-08 0 0
1e-08 0 0
1e-08 0 0
1e-08 0 0
1e-08 0 0
1e-08 0 0
-0.00604909 0.00356941 0
1e-08 0 0
1e-08 0 0
1e-08 0 0
1e-08 0 0
1e-08 0 0
1e-08 0 0
1e-08 0 0
1e-08 0 0
1e-08 0 0
1e-08 0 0
1e-08 0 0
-0.00251086 -0.00607266 0
1e-08 0 0
1e-08 0 0
1e-08 0 0
1e-08 0 0
1e-08 0 0
-0.00813665 0.00335346 0
1e-08 0 0
1e-08 0 0
1e-08 0 0
1e-08 0 0
1e-08 0 0
1e-08 0 0
1e-08 0 0
1e-08 0 0
-0.00362678 -0.00626326 0
1e-08 0 0
1e-08 0 0
1e-08 0 0
1e-08 0 0
-0.00537592 0.0014083 0
1e-08 0 0
1e-08 0 0
1e-08 0 0
1e-08 0 0
1e-08 0 0
1e-08 0 0
-0.0049039 -0.00626158 0
1e-08 0 0
1e-08 0 0
1e-08 0 0
-0.0067273 0.000884161 0
1e-08 0 0
1e-08 0 0
1e-08 0 0
1e-08 0 0
1e-08 0 0
1e-08 0 0
-0.0029852 -0.00297257 0
1e-08 0 0
1e-08 0 0
-0.00774626 -4.35411e-05 0
1e-08 0 0
1e-08 0 0
1e-08 0 0
1e-08 0 0
-0.00701983 -0.00540487 0
1e-08 0 0
-0.00562236 -0.000771833 0
1e-08 0 0
1e-08 0 0
-0.00491483 -0.00281779 0
-0.00614143 -0.00163506 0
-0.00671971 -0.00277888 0
