# vtk DataFile Version 2.0
CellBP Time: 0.72
ASCII
DATASET UNSTRUCTURED_GRID
POINTS 296 double
-9.16693 -3.76732 0
-8.58066 -4.93279 0
-9.57975 -2.52974 0
-9.83433 -1.25099 0
-8.35186 -2.8165 0
-7.86207 -6.02149 0
-6.99886 -6.99937 0
-7.91179 -3.87157 0
-7.33736 -4.86439 0
-6.01806 -7.85839 0
-4.9344 -8.58271 0
-9.92334 0.0497958 0
-9.83715 1.35138 0
-8.65233 -1.68251 0
-8.78149 -0.529167 0
-7.5843 -2.00225 0
-7.22025 -2.90383 0
-6.6334 -5.7755 0
-5.81914 -6.59385 0
-6.78503 -3.88566 0
-6.21605 -4.67266 0
-3.76734 -9.16522 0
-2.53191 -9.58535 0
-4.90444 -7.30589 0
-3.91194 -7.88345 0
-8.78846 0.642938 0
-9.58568 2.63181 0
-8.61971 1.77311 0
-9.1634 3.86625 0
-7.73927 -0.927972 0
-7.78992 0.080453 0
-6.94781 -1.31455 0
-1.25119 -9.83523 0
-6.43718 -2.15132 0
-6.31502 -3.05366 0
-5.53293 -5.47146 0
-4.7932 -6.11253 0
-5.65517 -3.75436 0
-5.26566 -4.55861 0
-2.86526 -8.36092 0
-1.77765 -8.6371 0
-3.92639 -6.72075 0
-3.05568 -7.14993 0
0.0501638 -9.92149 0
-7.7014 1.14288 0
-8.33571 2.91409 0
-7.54818 2.11057 0
-8.58824 5.03715 0
-7.87627 3.97619 0
-7.86241 6.1214 0
-6.77444 -0.39629 0
-6.95235 0.552444 0
-5.76823 -1.00272 0
-0.590632 -8.80611 0
0.565193 -8.76658 0
-5.30014 -2.47859 0
-4.48891 -5.09278 0
-3.90019 -5.77246 0
-4.43641 -3.80259 0
-2.06156 -7.55909 0
-1.135 -7.78264 0
-2.99302 -6.09932 0
-2.30814 -6.61714 0
1.35218 -9.84256 0
-6.68588 1.42116 0
-7.16839 3.11621 0
-6.65579 2.37159 0
-7.29068 4.98583 0
-6.71436 4.00059 0
-7.00399 7.10367 0
-6.5687 5.89096 0
-6.01789 7.95769 0
-4.45152 -1.18071 0
-5.81182 0.513263 0
-4.65457 -0.0107857 0
0.00813597 -7.84433 0
1.73716 -8.6391 0
0.947879 -7.75918 0
-4.03702 -2.40528 0
-3.48509 -1.39102 0
-3.29292 -4.80307 0
-3.26492 -3.26647 0
-1.3782 -6.67244 0
-0.50894 -7.02148 0
-1.97478 -5.53478 0
2.63074 -9.58224 0
-5.50475 2.03597 0
-6.0915 3.07031 0
-6.10166 4.86669 0
-5.75851 3.98886 0
-5.75817 6.71331 0
-5.44902 5.61594 0
-4.93518 8.68487 0
-4.83571 7.4001 0
-3.50082 -0.424272 0
-4.44761 1.24852 0
-3.71043 0.591885 0
-4.06053 2.31928 0
-3.76927 9.27007 0
2.86021 -8.32773 0
0.418721 -6.79155 0
2.02008 -7.52118 0
1.3045 -6.90127 0
-2.44446 -0.873598 0
-2.83799 -2.13062 0
-2.29381 -4.09585 0
-2.3252 -2.97268 0
-0.442568 -5.85826 0
-1.22217 -4.49755 0
3.8669 -9.16497 0
-4.78743 3.39004 0
-5.08511 4.59126 0
-4.64449 6.2775 0
-4.5363 5.35636 0
-3.84191 7.98936 0
-3.82439 6.84122 0
-2.78187 8.41818 0
-1.649 -0.137689 0
-1.45016 -0.890419 0
-2.48895 0.507472 0
-3.25273 1.44399 0
-3.23774 3.31534 0
-2.91014 2.37153 0
-1.35517 0.627332 0
-2.53107 9.68157 0
3.92989 -7.8822 0
2.96181 -7.15274 0
0.952961 -5.81866 0
2.07229 -6.41128 0
-1.68272 -1.99178 0
-1.43403 -3.27682 0
0.0900283 -4.74491 0
-0.565796 -3.69337 0
4.92865 -7.31427 0
5.03755 -8.58922 0
-3.77505 4.54914 0
-3.73269 5.74867 0
-2.88613 7.28541 0
-3.00796 6.34992 0
-1.66157 8.72931 0
-1.93882 7.61524 0
-2.33754 4.05004 0
-0.730655 -1.32713 0
-0.836923 -0.25746 0
-1.93618 1.68099 0
-2.12535 2.87537 0
-1.30645 3.54386 0
-0.869662 1.35105 0
-0.282534 0.456201 0
-0.532925 8.8681 0
-1.25125 9.93342 0
1.11194 -4.57231 0
3.90676 -6.71222 0
2.98537 -6.09054 0
2.11608 -5.42157 0
4.78112 -6.20095 0
-0.558651 -2.47642 0
0.495047 -3.4628 0
0.0535797 -1.61042 0
1.48108 -3.68055 0
5.86383 -6.61044 0
6.11871 -7.85914 0
-2.47446 5.34569 0
-2.12906 6.5308 0
-0.903293 7.79976 0
-1.27125 6.92844 0
0.086452 7.87738 0
-1.14413 4.4931 0
0.150225 -0.617552 0
-0.797741 2.48861 0
-0.332011 3.6002 0
0.0627871 1.51286 0
0.74116 0.473463 0
0.646528 8.87153 0
0.0497241 10.0231 0
2.37942 -4.28279 0
3.85636 -5.63646 0
2.99922 -5.20933 0
5.57079 -5.48834 0
4.688 -5.27925 0
0.62973 -2.29325 0
1.25575 -2.95039 0
0.757429 -1.39144 0
2.16334 -3.13458 0
2.99225 -3.47485 0
6.15254 -4.78915 0
6.65276 -5.76627 0
7.0997 -6.99932 0
-1.01896 5.8177 0
-0.371988 6.88051 0
1.12231 7.76728 0
0.558083 7.07722 0
-0.000924629 4.72381 0
0.606554 3.82707 0
1.33871 -0.641939 0
0.538671 2.65084 0
0.965673 1.57498 0
1.90986 0.213779 0
1.61436 1.065 0
2.12888 7.58154 0
1.79869 8.71013 0
1.3517 9.93906 0
3.8206 -4.34888 0
5.11387 -4.44603 0
5.8433 -3.93293 0
3.78228 -3.19947 0
1.81193 -1.88259 0
3.01802 -2.57308 0
6.78116 -3.94625 0
7.37914 -4.89489 0
7.96051 -6.01975 0
0.483366 5.87949 0
1.4279 6.73992 0
2.37387 6.66734 0
1.20952 4.55509 0
1.48771 3.39697 0
2.43529 -0.692019 0
2.82747 0.142595 0
1.78842 2.16268 0
2.61147 1.15004 0
3.07147 7.16831 0
2.90353 8.37476 0
2.6323 9.68735 0
4.90915 -3.32601 0
6.1186 -3.10722 0
4.17144 -2.27456 0
3.24355 -1.50273 0
6.72966 -2.31245 0
7.23035 -3.04184 0
7.96311 -3.91149 0
8.6878 -4.93727 0
2.0232 5.59834 0
3.08537 6.15183 0
2.36349 4.12588 0
2.41964 3.06026 0
3.52482 -0.460717 0
3.61493 0.613387 0
2.96121 2.28765 0
3.54464 1.525 0
4.01051 5.89635 0
3.98349 6.79159 0
3.97303 7.93705 0
3.865 9.25967 0
5.56726 -1.9156 0
4.50801 -1.1293 0
6.71233 -1.33576 0
7.59113 -2.03591 0
8.39566 -2.86092 0
9.26913 -3.76919 0
3.41763 4.87546 0
3.33782 3.38435 0
4.68999 0.130193 0
4.51754 1.30947 0
4.06364 2.44287 0
4.56836 5.1508 0
4.84218 6.1894 0
4.97977 7.37914 0
5.03784 8.68841 0
5.88177 -0.434978 0
7.00926 -0.488377 0
7.75837 -1.08487 0
8.68365 -1.7453 0
9.67878 -2.53022 0
4.55029 3.82612 0
5.81558 1.09777 0
5.36879 2.53363 0
5.37751 4.61897 0
5.61012 5.52219 0
5.89567 6.67081 0
6.12381 7.9658 0
6.84425 0.462841 0
7.85202 -0.0257882 0
8.85933 -0.584022 0
9.94005 -1.25178 0
6.95838 1.34838 0
5.71855 3.77694 0
6.539 2.19611 0
6.37753 3.08641 0
6.28984 4.68543 0
6.69099 5.83644 0
7.10205 7.10235 0
7.78277 0.966982 0
8.858 0.572696 0
10.0217 0.0502627 0
7.61412 2.00316 0
6.82606 3.9024 0
7.26686 2.94519 0
7.37585 4.88443 0
7.96505 6.12348 0
8.72106 1.72612 0
9.94173 1.35227 0
8.41831 2.83637 0
7.9792 3.91482 0
8.68574 5.03591 0
9.68602 2.63194 0
9.259 3.86443 0
CELLS 542 2168
3 2 0 4
3 0 1 7
3 4 0 7
3 1 5 8
3 7 1 8
3 3 2 13
3 13 2 4
3 11 3 14
3 14 3 13
3 13 4 15
3 4 7 16
3 15 4 16
3 5 6 17
3 8 5 17
3 6 9 18
3 17 6 18
3 7 8 19
3 16 7 19
3 8 17 20
3 19 8 20
3 9 10 23
3 18 9 23
3 10 21 24
3 23 10 24
3 12 11 25
3 25 11 14
3 26 12 27
3 27 12 25
3 14 13 29
3 29 13 15
3 25 14 30
3 30 14 29
3 29 15 31
3 15 16 33
3 31 15 33
3 16 19 34
3 33 16 34
3 17 18 35
3 20 17 35
3 18 23 36
3 35 18 36
3 19 20 37
3 34 19 37
3 20 35 38
3 37 20 38
3 21 22 39
3 24 21 39
3 22 32 40
3 39 22 40
3 23 24 41
3 36 23 41
3 24 39 42
3 41 24 42
3 27 25 44
3 44 25 30
3 28 26 45
3 45 26 27
3 45 27 46
3 46 27 44
3 47 28 48
3 48 28 45
3 30 29 50
3 50 29 31
3 44 30 51
3 51 30 50
3 50 31 52
3 31 33 52
3 32 43 53
3 40 32 53
3 53 43 54
3 33 34 55
3 34 37 55
3 33 55 52
3 35 36 56
3 38 35 56
3 36 41 57
3 56 36 57
3 37 38 58
3 38 56 58
3 37 58 55
3 39 40 59
3 42 39 59
3 40 53 60
3 59 40 60
3 41 42 61
3 57 41 61
3 42 59 62
3 61 42 62
3 43 63 54
3 46 44 64
3 64 44 51
3 48 45 65
3 65 45 46
3 65 46 66
3 66 46 64
3 49 47 67
3 67 47 48
3 67 48 68
3 68 48 65
3 69 49 70
3 70 49 67
3 52 55 72
3 64 51 73
3 51 50 73
3 50 52 73
3 73 52 74
3 74 52 72
3 53 54 75
3 60 53 75
3 54 63 76
3 54 76 77
3 75 54 77
3 55 58 78
3 72 55 78
3 72 78 79
3 56 57 80
3 57 61 80
3 56 80 58
3 58 80 81
3 78 58 81
3 59 60 82
3 62 59 82
3 60 75 83
3 82 60 83
3 61 62 84
3 62 82 84
3 61 84 80
3 63 85 76
3 66 64 86
3 64 73 86
3 68 65 87
3 87 65 66
3 87 66 86
3 70 67 88
3 88 67 68
3 88 68 89
3 89 68 87
3 71 69 90
3 90 69 70
3 90 70 91
3 91 70 88
3 92 71 93
3 93 71 90
3 74 72 94
3 94 72 79
3 86 73 95
3 95 73 74
3 95 74 96
3 96 74 94
3 97 86 95
3 76 85 99
3 75 77 100
3 83 75 100
3 76 99 101
3 77 76 101
3 77 101 102
3 100 77 102
3 94 79 103
3 78 81 104
3 79 78 104
3 79 104 103
3 80 84 105
3 81 80 105
3 81 105 106
3 104 81 106
3 82 83 107
3 83 100 107
3 82 107 84
3 84 107 108
3 105 84 108
3 85 109 99
3 89 87 110
3 87 86 110
3 110 86 97
3 91 88 111
3 111 88 89
3 111 89 110
3 93 90 112
3 112 90 91
3 112 91 113
3 113 91 111
3 98 92 114
3 114 92 93
3 114 93 115
3 115 93 112
3 116 98 114
3 117 103 118
3 96 94 119
3 94 103 119
3 119 103 117
3 97 95 120
3 120 95 96
3 120 96 119
3 121 110 97
3 121 97 122
3 122 97 120
3 123 119 117
3 124 98 116
3 99 109 125
3 99 125 126
3 101 99 126
3 100 102 127
3 100 127 107
3 101 126 128
3 102 101 128
3 102 128 127
3 104 106 129
3 104 129 103
3 103 129 118
3 105 108 130
3 106 105 130
3 106 130 129
3 107 127 131
3 108 107 131
3 108 131 132
3 108 132 130
3 109 134 125
3 125 134 133
3 113 111 135
3 111 110 135
3 135 110 121
3 115 112 136
3 136 112 113
3 136 113 135
3 116 114 137
3 137 114 115
3 137 115 138
3 138 115 136
3 139 124 116
3 139 116 140
3 140 116 137
3 141 135 121
3 118 129 142
3 118 142 143
3 117 118 143
3 123 117 143
3 122 120 144
3 120 119 144
3 144 119 123
3 141 121 145
3 145 121 122
3 145 122 144
3 146 141 145
3 147 144 123
3 147 123 148
3 143 148 123
3 150 124 139
3 149 150 139
3 131 127 151
3 125 133 152
3 126 125 152
3 126 152 153
3 128 126 153
3 128 153 154
3 128 154 127
3 127 154 151
3 152 133 155
3 130 132 156
3 130 156 129
3 129 156 142
3 131 151 157
3 132 131 157
3 132 157 156
3 156 158 142
3 157 151 159
3 133 160 155
3 134 161 133
3 133 161 160
3 138 136 162
3 136 135 162
3 162 135 141
3 140 137 163
3 163 137 138
3 163 138 162
3 149 139 164
3 164 139 140
3 164 140 165
3 165 140 163
3 166 149 164
3 167 162 141
3 167 141 146
3 142 158 168
3 143 142 168
3 143 168 148
3 146 145 169
3 145 144 169
3 169 144 147
3 170 167 146
3 170 146 169
3 171 169 147
3 171 147 148
3 171 148 172
3 168 172 148
3 173 149 166
3 174 150 149
3 173 174 149
3 154 175 151
3 151 175 159
3 152 155 176
3 153 152 176
3 153 176 177
3 153 177 154
3 154 177 175
3 155 160 178
3 155 178 179
3 176 155 179
3 156 157 180
3 156 180 158
3 157 159 181
3 157 181 180
3 158 180 182
3 158 182 168
3 159 175 183
3 159 183 181
3 175 184 183
3 160 186 178
3 178 186 185
3 161 187 160
3 160 187 186
3 165 163 188
3 163 162 188
3 188 162 167
3 166 164 189
3 189 164 165
3 189 165 188
3 190 173 166
3 190 166 191
3 191 166 189
3 192 188 167
3 192 167 170
3 193 192 170
3 182 194 168
3 194 172 168
3 193 170 195
3 170 169 195
3 195 169 171
3 196 195 171
3 196 171 172
3 194 197 172
3 197 198 172
3 198 196 172
3 200 173 190
3 199 200 190
3 201 174 173
3 200 201 173
3 176 179 202
3 177 176 202
3 177 202 175
3 175 202 184
3 178 185 203
3 178 203 179
3 179 203 202
3 203 185 204
3 202 205 184
3 183 206 181
3 180 181 206
3 180 206 182
3 182 206 194
3 183 184 207
3 205 207 184
3 183 207 206
3 185 208 204
3 186 209 185
3 185 209 208
3 187 210 186
3 186 210 209
3 191 189 211
3 189 188 211
3 211 188 192
3 199 190 212
3 212 190 191
3 212 191 211
3 213 199 212
3 214 211 192
3 214 192 193
3 215 214 193
3 215 193 195
3 206 216 194
3 216 197 194
3 216 217 197
3 215 195 218
3 218 195 196
3 198 218 196
3 217 219 197
3 219 218 198
3 197 219 198
3 220 199 213
3 221 200 199
3 220 221 199
3 222 201 200
3 221 222 200
3 203 204 223
3 203 223 202
3 202 223 205
3 204 208 224
3 204 224 223
3 205 223 225
3 205 225 207
3 207 225 226
3 207 226 206
3 226 216 206
3 208 228 224
3 224 228 227
3 209 229 208
3 229 228 208
3 210 230 209
3 209 230 229
3 213 212 231
3 212 211 231
3 231 211 214
3 232 220 213
3 232 213 231
3 233 231 214
3 233 214 215
3 234 233 215
3 234 215 218
3 226 235 216
3 235 217 216
3 235 236 217
3 217 236 219
3 237 234 218
3 237 218 219
3 236 238 219
3 238 237 219
3 240 220 232
3 239 240 232
3 241 221 220
3 240 241 220
3 242 222 221
3 241 242 221
3 224 227 243
3 224 243 223
3 223 243 225
3 225 243 244
3 225 244 226
3 226 244 235
3 227 245 243
3 228 246 227
3 227 246 245
3 229 247 228
3 228 247 246
3 230 248 229
3 229 248 247
3 239 232 249
3 232 231 249
3 249 231 233
3 250 249 233
3 250 233 234
3 237 250 234
3 244 251 235
3 235 251 236
3 251 252 236
3 236 252 238
3 252 253 238
3 253 250 237
3 253 237 238
3 254 239 249
3 255 240 239
3 254 255 239
3 256 241 240
3 255 256 240
3 257 242 241
3 256 257 241
3 245 258 243
3 243 258 244
3 244 258 251
3 245 259 258
3 246 260 245
3 245 260 259
3 247 261 246
3 246 261 260
3 248 262 247
3 247 262 261
3 254 249 263
3 263 249 250
3 253 263 250
3 258 264 251
3 251 264 252
3 264 265 252
3 265 263 253
3 252 265 253
3 266 254 263
3 267 255 254
3 266 267 254
3 268 256 255
3 267 268 255
3 269 257 256
3 268 269 256
3 259 270 258
3 270 264 258
3 260 271 259
3 259 271 270
3 261 272 260
3 260 272 271
3 262 273 261
3 273 272 261
3 270 274 264
3 275 266 263
3 275 263 265
3 274 276 264
3 276 265 264
3 276 277 265
3 277 275 265
3 278 267 266
3 275 278 266
3 279 268 267
3 278 279 267
3 280 269 268
3 279 280 268
3 271 281 270
3 270 281 274
3 272 282 271
3 271 282 281
3 273 283 272
3 272 283 282
3 281 284 274
3 274 284 276
3 285 278 275
3 277 285 275
3 284 286 276
3 286 285 277
3 276 286 277
3 287 279 278
3 285 287 278
3 288 280 279
3 287 288 279
3 282 289 281
3 281 289 284
3 283 290 282
3 282 290 289
3 289 291 284
3 284 291 286
3 291 292 286
3 292 287 285
3 286 292 285
3 293 288 287
3 292 293 287
3 290 294 289
3 289 294 291
3 294 295 291
3 295 293 292
3 291 295 292
CELL_TYPES 542
5
5
5
5
5
5
5
5
5
5
5
5
5
5
5
5
5
5
5
5
5
5
5
5
5
5
5
5
5
5
5
5
5
5
5
5
5
5
5
5
5
5
5
5
5
5
5
5
5
5
5
5
5
5
5
5
5
5
5
5
5
5
5
5
5
5
5
5
5
5
5
5
5
5
5
5
5
5
5
5
5
5
5
5
5
5
5
5
5
5
5
5
5
5
5
5
5
5
5
5
5
5
5
5
5
5
5
5
5
5
5
5
5
5
5
5
5
5
5
5
5
5
5
5
5
5
5
5
5
5
5
5
5
5
5
5
5
5
5
5
5
5
5
5
5
5
5
5
5
5
5
5
5
5
5
5
5
5
5
5
5
5
5
5
5
5
5
5
5
5
5
5
5
5
5
5
5
5
5
5
5
5
5
5
5
5
5
5
5
5
5
5
5
5
5
5
5
5
5
5
5
5
5
5
5
5
5
5
5
5
5
5
5
5
5
5
5
5
5
5
5
5
5
5
5
5
5
5
5
5
5
5
5
5
5
5
5
5
5
5
5
5
5
5
5
5
5
5
5
5
5
5
5
5
5
5
5
5
5
5
5
5
5
5
5
5
5
5
5
5
5
5
5
5
5
5
5
5
5
5
5
5
5
5
5
5
5
5
5
5
5
5
5
5
5
5
5
5
5
5
5
5
5
5
5
5
5
5
5
5
5
5
5
5
5
5
5
5
5
5
5
5
5
5
5
5
5
5
5
5
5
5
5
5
5
5
5
5
5
5
5
5
5
5
5
5
5
5
5
5
5
5
5
5
5
5
5
5
5
5
5
5
5
5
5
5
5
5
5
5
5
5
5
5
5
5
5
5
5
5
5
5
5
5
5
5
5
5
5
5
5
5
5
5
5
5
5
5
5
5
5
5
5
5
5
5
5
5
5
5
5
5
5
5
5
5
5
5
5
5
5
5
5
5
5
5
5
5
5
5
5
5
5
5
5
5
5
5
5
5
5
5
5
5
5
5
5
5
5
5
5
5
5
5
5
5
5
5
5
5
5
5
5
5
5
5
5
5
5
5
5
5
5
5
5
5
5
5
5
5
5
5
5
5
5
5
5
5
5
5
5
5
5
5
5
5
5
5
5
5
5
5
5
5
5
5
5
5
5
5
5
5
5
5
5
5
5
5
5
5
5
5
5
5
5
5
5
5
5
5
5
5
5
5
5
5
5
5
5
5
5
5
POINT_DATA 296
SCALARS concentrations float 4
LOOKUP_TABLE default
0 0.993889 0.123175 186.953
0 0.993845 0.125381 234.199
0 0.994315 0.126965 354.568
0 0.994529 0.127119 286.541
0 0.994095 0.0922605 13.3634
0 0.993854 0.126883 213.228
0 0.993757 0.127789 306.697
0 0.993896 0.0916978 2.41786
0 0.993905 0.091785 3.02476
0 0.993535 0.12423 268.531
0 0.993852 0.126382 227.662
0 0.994617 0.124936 109.174
0 0.994633 0.129126 254.174
0 0.994387 0.092067 12.345
0 0.994504 0.091916 6.47566
0 0.994223 0.0914329 5.8651
0 0.99409 0.0913645 3.66478
0 0.993888 0.0916862 4.78592
0 0.993746 0.0917628 5.74304
0 0.994042 0.0912789 0.955957
0 0.994035 0.0912663 0.869966
0 0.99423 0.127654 145.154
0 0.994338 0.130699 223.637
0 0.993792 0.091764 6.23208
0 0.994123 0.0916651 5.59494
0 0.994574 0.0916713 4.13253
0 0.994562 0.123383 199.33
0 0.994565 0.0919905 6.56136
0 0.994615 0.126048 112.417
0 0.99436 0.091413 6.16856
0 0.99445 0.0912542 3.84996
0 0.994336 0.0911625 2.39824
0 0.994162 0.123366 244.063
0 0.994294 0.09113 0.826416
0 0.99422 0.0911759 0.260722
0 0.994026 0.0912075 0.523821
0 0.994046 0.091365 2.74883
0 0.994257 0.0911796 1.13691
0 0.99423 0.0912006 1.49383
0 0.994338 0.0915232 4.42928
0 0.994287 0.0920318 3.68862
0 0.994176 0.091333 3.46735
0 0.994334 0.0912303 2.49243
0 0.994327 0.124465 312.227
0 0.994508 0.0912666 2.08888
0 0.994578 0.0919971 7.26182
0 0.994554 0.0912229 0.791258
0 0.99469 0.124055 150.242
0 0.994638 0.0914753 4.36881
0 0.994769 0.127239 294.903
0 0.994426 0.0911092 1.90446
0 0.994476 0.0911472 1.76168
0 0.994456 0.0910858 0.927517
0 0.994266 0.0919557 5.86625
0 0.994447 0.0914105 4.23265
0 0.994421 0.091119 0.818199
0 0.994306 0.091191 1.76053
0 0.99433 0.0912148 2.31307
0 0.994447 0.0911278 1.31323
0 0.994403 0.0912986 0.848385
0 0.994403 0.091344 0.889583
0 0.994443 0.0911416 1.63363
0 0.994488 0.0911163 1.21971
0 0.9945 0.124503 138.636
0 0.994538 0.0911576 1.21471
0 0.994603 0.0911991 2.20644
0 0.994579 0.0911698 1.02127
0 0.994724 0.0914591 7.74012
0 0.994651 0.0912298 4.66492
0 0.994516 0.125297 142.65
0 0.994641 0.0919623 11.2805
0 0.994467 0.126912 196.081
0 0.994551 0.0911069 1.22314
0 0.994533 0.0911279 1.55693
0 0.994582 0.0911214 1.4994
0 0.994439 0.0912839 0.910218
0 0.994459 0.0917302 3.99924
0 0.994492 0.0913155 1.61389
0 0.994563 0.0911168 1.14541
0 0.994668 0.0911094 1.12457
0 0.99452 0.091097 1.29011
0 0.994605 0.0911004 1.36324
0 0.994536 0.091084 1.28813
0 0.994529 0.0911252 1.07722
0 0.994601 0.0910533 1.51185
0 0.994361 0.124294 157.394
0 0.994602 0.0911606 1.76524
0 0.994621 0.0910889 1.33937
0 0.99465 0.0913675 4.98676
0 0.994641 0.0911651 2.98882
0 0.994493 0.0919451 7.05774
0 0.99459 0.0914342 4.56544
0 0.994471 0.126176 245.367
0 0.994496 0.0917321 3.23743
0 0.994685 0.0910908 1.12343
0 0.994624 0.0911229 1.46254
0 0.994685 0.0910978 1.25387
0 0.994665 0.0911411 1.62093
0 0.99445 0.124581 94.8555
0 0.994347 0.0919336 3.58582
0 0.994569 0.0911824 1.28054
0 0.994488 0.0913282 1.3868
0 0.994569 0.0912501 1.4364
0 0.994767 0.091069 0.928109
0 0.994707 0.091103 1.28586
0 0.994662 0.0910768 1.45347
0 0.994728 0.091099 1.38415
0 0.994641 0.0910704 1.4705
0 0.994704 0.0910729 1.46903
0 0.994229 0.122592 157.416
0 0.994645 0.0910796 0.217518
0 0.994632 0.0911967 2.27534
0 0.994544 0.091345 1.94226
0 0.994605 0.0912335 1.76734
0 0.994475 0.0916433 0.772678
0 0.994533 0.09119 0.567162
0 0.994468 0.0918796 6.83217
0 0.994824 0.0910412 0.636443
0 0.994838 0.0910469 0.904416
0 0.994766 0.0910457 0.498264
0 0.99472 0.0910875 1.05632
0 0.994684 0.0910553 0.37963
0 0.994727 0.0910941 0.995554
0 0.994836 0.091018 0.385751
0 0.994446 0.125077 229.144
0 0.994287 0.0917824 2.04815
0 0.994461 0.0913393 1.29905
0 0.994659 0.0911448 1.19587
0 0.99458 0.091219 1.05617
0 0.994803 0.0910729 1.15799
0 0.994771 0.0910807 1.32294
0 0.99473 0.0910808 1.23453
0 0.994785 0.0910769 1.34722
0 0.994395 0.0918286 7.02407
0 0.99422 0.124422 257.741
0 0.99465 0.0910706 0.248658
0 0.9946 0.0911243 0.387184
0 0.994515 0.0911913 2.71446
0 0.994579 0.0910857 1.4521
0 0.994407 0.0917742 8.46604
0 0.994489 0.091242 4.28013
0 0.99469 0.0910154 1.01836
0 0.994867 0.0910326 0.84701
0 0.994873 0.0910107 0.603463
0 0.994785 0.0910285 0.322531
0 0.994748 0.0910333 0.526986
0 0.994742 0.0910174 0.586639
0 0.994837 0.0909931 0.364036
0 0.994874 0.0909679 0.332872
0 0.994259 0.0916668 6.41198
0 0.994294 0.125039 227.315
0 0.994733 0.0910927 0.921186
0 0.994471 0.0912061 2.02302
0 0.994571 0.0911533 0.232087
0 0.99467 0.0911248 0.685867
0 0.994525 0.0912308 3.10327
0 0.994835 0.0910528 1.02047
0 0.994804 0.0910698 0.991292
0 0.994879 0.0910196 0.666415
0 0.994781 0.0910819 0.653819
0 0.994567 0.0916302 6.51759
0 0.994491 0.126454 178.179
0 0.994639 0.0910143 1.23133
0 0.994575 0.0910753 2.02027
0 0.994421 0.091267 3.35808
0 0.994536 0.0911062 2.36186
0 0.994371 0.0912782 1.67577
0 0.994682 0.0910041 0.542086
0 0.994889 0.0909641 0.358149
0 0.994796 0.0910119 0.337536
0 0.994749 0.0910299 0.055712
0 0.994846 0.0909833 0.405017
0 0.994876 0.0909587 0.363402
0 0.994205 0.0920699 3.88539
0 0.994133 0.12646 278.82
0 0.994723 0.0910655 0.30705
0 0.994586 0.0910377 0.940127
0 0.994655 0.0910621 0.123058
0 0.994574 0.0912831 3.75819
0 0.994599 0.0910694 1.82062
0 0.994855 0.0910344 0.643261
0 0.99483 0.0910492 0.61047
0 0.99488 0.0909916 0.42891
0 0.994795 0.0910455 0.484145
0 0.994738 0.0910378 0.408866
0 0.994576 0.0912302 2.42963
0 0.994575 0.0917123 3.08536
0 0.994602 0.123788 233.434
0 0.994619 0.0910053 0.867336
0 0.994525 0.0910988 1.33024
0 0.994389 0.0913029 1.63305
0 0.994497 0.0911279 0.434757
0 0.994675 0.0910154 0.0715403
0 0.994739 0.0910245 0.301885
0 0.994876 0.0909641 0.385803
0 0.994799 0.091 0.405599
0 0.994843 0.0909823 0.4948
0 0.994859 0.0909707 0.436658
0 0.994847 0.0909754 0.489384
0 0.994476 0.0913141 4.16599
0 0.994342 0.0918761 5.63234
0 0.994185 0.124019 112.994
0 0.994665 0.0910043 0.449594
0 0.994619 0.0910766 1.87493
0 0.994609 0.0910984 2.05799
0 0.994714 0.0910143 0.381569
0 0.99484 0.0909987 0.357355
0 0.994784 0.0910151 0.374071
0 0.994568 0.0911834 2.66051
0 0.994552 0.091502 1.04688
0 0.994559 0.125438 149.416
0 0.994605 0.0910147 0.147945
0 0.994537 0.0910892 1.17899
0 0.994569 0.091127 2.3987
0 0.994675 0.0910186 0.452003
0 0.994751 0.0910133 0.517519
0 0.99484 0.0909813 0.339732
0 0.994822 0.0909909 0.352745
0 0.994801 0.0909949 0.607137
0 0.99481 0.0909935 0.592789
0 0.994594 0.0913406 4.74891
0 0.994526 0.0919128 10.1062
0 0.994433 0.126891 164.366
0 0.994663 0.09101 0.797397
0 0.994613 0.0910573 1.62539
0 0.994724 0.0910091 0.308261
0 0.994793 0.0909972 0.252133
0 0.994589 0.0911083 1.37146
0 0.994543 0.0911869 2.70906
0 0.994547 0.0913229 3.73764
0 0.994552 0.12625 209.428
0 0.99463 0.091009 0.562814
0 0.994631 0.0911111 2.05639
0 0.994689 0.0910157 0.598739
0 0.994747 0.091022 0.657644
0 0.99478 0.0909996 0.185803
0 0.994768 0.0910081 0.322499
0 0.994761 0.0910175 0.712405
0 0.994755 0.0910143 0.648961
0 0.994668 0.091231 1.5965
0 0.994683 0.0913926 4.15049
0 0.994728 0.0919477 9.0919
0 0.994638 0.124133 341.835
0 0.99466 0.0910354 0.421887
0 0.994723 0.0910102 0.177948
0 0.994583 0.0911204 0.85596
0 0.994496 0.0912454 2.78252
0 0.994487 0.0917253 5.38821
0 0.99453 0.124654 215.8
0 0.994667 0.091051 0.560248
0 0.994703 0.0910149 0.648405
0 0.994713 0.0910053 0.0717178
0 0.994704 0.0909918 0.449433
0 0.994706 0.0910045 0.774121
0 0.994688 0.0912261 0.639593
0 0.994733 0.091411 1.48849
0 0.994801 0.091997 6.79575
0 0.994871 0.126191 152.807
0 0.99465 0.0910299 0.197934
0 0.994545 0.0911482 0.638881
0 0.994452 0.0912971 1.29359
0 0.994348 0.0919184 5.6397
0 0.994389 0.124153 214.867
0 0.994681 0.0910535 0.795876
0 0.994642 0.0910072 0.292442
0 0.994659 0.0909947 0.863714
0 0.99469 0.0912093 0.972616
0 0.994745 0.091403 0.304316
0 0.994821 0.0916725 2.96647
0 0.99482 0.126399 191.592
0 0.994553 0.0911156 0.593988
0 0.994428 0.0911934 0.708304
0 0.994345 0.0915012 2.62505
0 0.994256 0.125443 144.593
0 0.994524 0.091148 0.775822
0 0.994656 0.0910894 1.24902
0 0.994564 0.091093 0.917062
0 0.994598 0.0910708 1.40998
0 0.994714 0.0912358 1.18454
0 0.994832 0.0916099 1.25583
0 0.994916 0.125439 140.53
0 0.994387 0.0912241 0.602037
0 0.994297 0.0914878 2.97151
0 0.994335 0.126576 265.6
0 0.99438 0.09126 1.35424
0 0.994609 0.0911402 1.78071
0 0.994473 0.0912345 2.10869
0 0.994752 0.0918001 3.3252
0 0.994836 0.124942 185.429
0 0.99416 0.0913726 1.31011
0 0.994116 0.123035 170.088
0 0.994228 0.0916405 3.30959
0 0.994516 0.0918651 3.87078
0 0.994716 0.126113 134.062
0 0.994059 0.125096 99.6164
0 0.994279 0.122061 360.119
VECTORS fa_u float
0.00731827 0.00304265 -0
0.00455247 0.00263526 -0
0.00581179 0.00154145 -0
0.00622619 0.000829322 -0
1e-08 0 0
0.00592505 0.00453513 -0
0.00443825 0.00445545 -0
1e-08 0 0
1e-08 0 0
0.00393733 0.00513375 -0
0.00305862 0.00526779 -0
0.00690364 7.47354e-06 -0
0.00618569 -0.000808919 0
1e-08 0 0
1e-08 0 0
1e-08 0 0
1e-08 0 0
1e-08 0 0
1e-08 0 0
1e-08 0 0
1e-08 0 0
0.00268608 0.00643627 -0
0.00179286 0.00673288 -0
1e-08 0 0
1e-08 0 0
1e-08 0 0
0.00678808 -0.00181857 0
1e-08 0 0
0.00568989 -0.00235948 0
1e-08 0 0
1e-08 0 0
1e-08 0 0
0.000789193 0.00606209 -0
1e-08 0 0
1e-08 0 0
1e-08 0 0
1e-08 0 0
1e-08 0 0
1e-08 0 0
1e-08 0 0
1e-08 0 0
1e-08 0 0
1e-08 0 0
1.72729e-05 0.006137 -0
1e-08 0 0
1e-08 0 0
1e-08 0 0
0.00587831 -0.00339117 0
1e-08 0 0
0.00499019 -0.00382562 0
1e-08 0 0
1e-08 0 0
1e-08 0 0
1e-08 0 0
1e-08 0 0
1e-08 0 0
1e-08 0 0
1e-08 0 0
1e-08 0 0
1e-08 0 0
1e-08 0 0
1e-08 0 0
1e-08 0 0
-0.000979415 0.00745002 0
1e-08 0 0
1e-08 0 0
1e-08 0 0
1e-08 0 0
1e-08 0 0
0.00519156 -0.00521487 0
1e-08 0 0
0.00347134 -0.00454185 0
1e-08 0 0
1e-08 0 0
1e-08 0 0
1e-08 0 0
1e-08 0 0
1e-08 0 0
1e-08 0 0
1e-08 0 0
1e-08 0 0
1e-08 0 0
1e-08 0 0
1e-08 0 0
1e-08 0 0
-0.00154503 0.005734 0
1e-08 0 0
1e-08 0 0
1e-08 0 0
1e-08 0 0
1e-08 0 0
1e-08 0 0
0.003069 -0.00525836 0
1e-08 0 0
1e-08 0 0
1e-08 0 0
1e-08 0 0
1e-08 0 0
0.00304459 -0.00734372 0
1e-08 0 0
1e-08 0 0
1e-08 0 0
1e-08 0 0
1e-08 0 0
1e-08 0 0
1e-08 0 0
1e-08 0 0
1e-08 0 0
1e-08 0 0
-0.00251975 0.00610723 0
1e-08 0 0
1e-08 0 0
1e-08 0 0
1e-08 0 0
1e-08 0 0
1e-08 0 0
1e-08 0 0
1e-08 0 0
1e-08 0 0
1e-08 0 0
1e-08 0 0
1e-08 0 0
1e-08 0 0
1e-08 0 0
0.00155837 -0.00591542 0
1e-08 0 0
1e-08 0 0
1e-08 0 0
1e-08 0 0
1e-08 0 0
1e-08 0 0
1e-08 0 0
1e-08 0 0
1e-08 0 0
-0.00358762 0.0061866 0
1e-08 0 0
1e-08 0 0
1e-08 0 0
1e-08 0 0
1e-08 0 0
1e-08 0 0
1e-08 0 0
1e-08 0 0
1e-08 0 0
1e-08 0 0
1e-08 0 0
1e-08 0 0
1e-08 0 0
1e-08 0 0
1e-08 0 0
0.000789701 -0.00596825 0
1e-08 0 0
1e-08 0 0
1e-08 0 0
1e-08 0 0
1e-08 0 0
1e-08 0 0
1e-08 0 0
1e-08 0 0
1e-08 0 0
1e-08 0 0
-0.00368715 0.00478232 0
1e-08 0 0
1e-08 0 0
1e-08 0 0
1e-08 0 0
1e-08 0 0
1e-08 0 0
1e-08 0 0
1e-08 0 0
1e-08 0 0
1e-08 0 0
1e-08 0 0
1e-08 0 0
1.46775e-05 -0.00677686 0
1e-08 0 0
1e-08 0 0
1e-08 0 0
1e-08 0 0
1e-08 0 0
1e-08 0 0
1e-08 0 0
1e-08 0 0
1e-08 0 0
1e-08 0 0
1e-08 0 0
1e-08 0 0
-0.0045735 0.0045795 0
1e-08 0 0
1e-08 0 0
1e-08 0 0
1e-08 0 0
1e-08 0 0
1e-08 0 0
1e-08 0 0
1e-08 0 0
1e-08 0 0
1e-08 0 0
1e-08 0 0
1e-08 0 0
1e-08 0 0
-0.000827514 -0.00636599 0
1e-08 0 0
1e-08 0 0
1e-08 0 0
1e-08 0 0
1e-08 0 0
1e-08 0 0
1e-08 0 0
1e-08 0 0
-0.00506563 0.00390136 0
1e-08 0 0
1e-08 0 0
1e-08 0 0
1e-08 0 0
1e-08 0 0
1e-08 0 0
1e-08 0 0
1e-08 0 0
1e-08 0 0
1e-08 0 0
1e-08 0 0
-0.00194784 -0.00720577 0
1e-08 0 0
1e-08 0 0
1e-08 0 0
1e-08 0 0
1e-08 0 0
1e-08 0 0
1e-08 0 0
-0.00556461 0.00323561 0
1e-08 0 0
1e-08 0 0
1e-08 0 0
1e-08 0 0
1e-08 0 0
1e-08 0 0
1e-08 0 0
1e-08 0 0
1e-08 0 0
1e-08 0 0
1e-08 0 0
-0.00208608 -0.00502348 0
1e-08 0 0
1e-08 0 0
1e-08 0 0
1e-08 0 0
1e-08 0 0
-0.00716069 0.00294805 0
1e-08 0 0
1e-08 0 0
1e-08 0 0
1e-08 0 0
1e-08 0 0
1e-08 0 0
1e-08 0 0
1e-08 0 0
-0.00340137 -0.00593802 0
1e-08 0 0
1e-08 0 0
1e-08 0 0
1e-08 0 0
-0.00511765 0.00136392 0
1e-08 0 0
1e-08 0 0
1e-08 0 0
1e-08 0 0
1e-08 0 0
1e-08 0 0
-0.00430393 -0.00560146 0
1e-08 0 0
1e-08 0 0
1e-08 0 0
-0.00730761 0.000971046 0
1e-08 0 0
1e-08 0 0
1e-08 0 0
1e-08 0 0
1e-08 0 0
1e-08 0 0
-0.00422608 -0.00422359 0
1e-08 0 0
1e-08 0 0
-0.00586943 3.77267e-06 0
1e-08 0 0
1e-08 0 0
1e-08 0 0
1e-08 0 0
-0.00571487 -0.00437979 0
1e-08 0 0
-0.00699081 -0.000908932 0
1e-08 0 0
1e-08 0 0
-0.00561267 -0.00321486 0
-0.00684385 -0.00185994 0
-0.00521449 -0.00216973 0
