# vtk DataFile Version 2.0
CellBP Time: 0.12
ASCII
DATASET UNSTRUCTURED_GRID
POINTS 296 double
-9.19775 -3.78052 0
-8.60943 -4.94952 0
-9.61468 -2.53968 0
-9.86725 -1.25566 0
-8.35864 -2.81912 0
-7.88664 -6.04005 0
-7.02504 -7.02503 0
-7.91825 -3.87496 0
-7.34346 -4.86831 0
-6.03903 -7.88533 0
-4.94847 -8.60766 0
-9.94938 0.0500237 0
-9.87019 1.35603 0
-8.6586 -1.68425 0
-8.78715 -0.529679 0
-7.59062 -2.0044 0
-7.22667 -2.90678 0
-6.63846 -5.77942 0
-5.82309 -6.59741 0
-6.79113 -3.88929 0
-6.22132 -4.67638 0
-3.77882 -9.19373 0
-2.53946 -9.61395 0
-4.90687 -7.30939 0
-3.91318 -7.88712 0
-8.79371 0.643563 0
-9.61322 2.63927 0
-8.62425 1.77417 0
-9.18659 3.87597 0
-7.74519 -0.929095 0
-7.79541 0.0802826 0
-6.95332 -1.31601 0
-1.25565 -9.86727 0
-6.44218 -2.15333 0
-6.32011 -3.05642 0
-5.53718 -5.47509 0
-4.7964 -6.11604 0
-5.65964 -3.75735 0
-5.26996 -4.56202 0
-2.86653 -8.36498 0
-1.77888 -8.64121 0
-3.92847 -6.72426 0
-3.05688 -7.15343 0
0.0499992 -9.95536 0
-7.70643 1.14365 0
-8.33946 2.9157 0
-7.55282 2.11219 0
-8.61236 5.0513 0
-7.88092 3.97866 0
-7.89058 6.14306 0
-6.77943 -0.39688 0
-6.95733 0.552612 0
-5.7719 -1.00348 0
-0.590927 -8.81063 0
0.565764 -8.77182 0
-5.30359 -2.48046 0
-4.4924 -5.0962 0
-3.90285 -5.77588 0
-4.43928 -3.80505 0
-2.06266 -7.56285 0
-1.13563 -7.78674 0
-2.99479 -6.10269 0
-2.30922 -6.62052 0
1.35587 -9.86917 0
-6.6902 1.42219 0
-7.17308 3.11849 0
-6.66004 2.37328 0
-7.29562 4.9894 0
-6.71896 4.00359 0
-7.02364 7.1236 0
-6.57349 5.89492 0
-6.03809 7.9842 0
-4.45344 -1.18115 0
-5.81512 0.513803 0
-4.65651 -0.0103869 0
0.00852997 -7.84902 0
1.73882 -8.64485 0
0.9491 -7.76439 0
-4.03881 -2.40655 0
-3.48579 -1.3913 0
-3.29476 -4.80574 0
-3.26609 -3.26802 0
-1.3787 -6.67619 0
-0.508783 -7.02573 0
-1.97568 -5.53753 0
2.63838 -9.61004 0
-5.50785 2.03711 0
-6.09546 3.07258 0
-6.106 4.87034 0
-5.7625 3.992 0
-5.76221 6.71793 0
-5.453 5.62015 0
-4.95103 8.71217 0
-4.8391 7.40561 0
-3.50174 -0.424338 0
-4.44967 1.24913 0
-3.71175 0.592112 0
-4.06251 2.32 0
-3.77953 9.29534 0
2.86296 -8.33402 0
0.419751 -6.79625 0
2.02231 -7.52689 0
1.30627 -6.90646 0
-2.44482 -0.873872 0
-2.83857 -2.13129 0
-2.29456 -4.0977 0
-2.32579 -2.97382 0
-0.442402 -5.86176 0
-1.22278 -4.49951 0
3.87759 -9.19055 0
-4.79031 3.39215 0
-5.08867 4.59477 0
-4.64794 6.28238 0
-4.53957 5.36049 0
-3.84439 7.99459 0
-3.82738 6.84677 0
-2.78379 8.42406 0
-1.64915 -0.137914 0
-1.45034 -0.890647 0
-2.48928 0.507285 0
-3.25388 1.44426 0
-3.23933 3.31685 0
-2.91122 2.37195 0
-1.35519 0.627137 0
-2.53804 9.70875 0
3.93343 -7.88824 0
2.965 -7.15889 0
0.954203 -5.82269 0
2.07463 -6.41644 0
-1.68306 -1.99219 0
-1.43451 -3.27803 0
0.09025 -4.74743 0
-0.566183 -3.69472 0
4.93284 -7.3202 0
5.05479 -8.61849 0
-3.77741 4.55213 0
-3.73534 5.75297 0
-2.88849 7.29105 0
-3.01019 6.35469 0
-1.66273 8.73504 0
-1.94043 7.62061 0
-2.33862 4.05205 0
-0.730763 -1.32734 0
-0.836944 -0.257648 0
-1.93635 1.68088 0
-2.12595 2.87607 0
-1.30669 3.54499 0
-0.869517 1.35091 0
-0.282382 0.456067 0
-0.53346 8.87329 0
-1.25531 9.96514 0
1.1129 -4.57507 0
3.91076 -6.71853 0
2.98835 -6.09577 0
2.11811 -5.42567 0
4.7852 -6.20656 0
-0.558868 -2.47699 0
0.495168 -3.46413 0
0.0535675 -1.61059 0
1.48203 -3.68252 0
5.8681 -6.61591 0
6.1373 -7.88318 0
-2.47601 5.34914 0
-2.1308 6.53547 0
-0.904177 7.80473 0
-1.27255 6.93321 0
0.0862667 7.88191 0
-1.14458 4.49517 0
0.150337 -0.617689 0
-0.797493 2.48868 0
-0.331683 3.60104 0
0.0631044 1.51282 0
0.74148 0.47344 0
0.646904 8.87602 0
0.0500018 10.057 0
2.38126 -4.28576 0
3.85977 -5.64146 0
3.00186 -5.21356 0
5.57477 -5.49292 0
4.69179 -5.28405 0
0.629734 -2.29354 0
1.25628 -2.95149 0
0.757558 -1.39155 0
2.16455 -3.13615 0
2.99411 -3.47703 0
6.1564 -4.79275 0
6.65675 -5.77047 0
7.12294 -7.02299 0
-1.01977 5.82116 0
-0.372664 6.88482 0
1.1229 7.77123 0
0.558112 7.08118 0
-0.000760895 4.72573 0
0.607068 3.82821 0
1.33901 -0.641948 0
0.539137 2.65126 0
0.966146 1.57504 0
1.91034 0.213872 0
1.61488 1.0651 0
2.12992 7.58529 0
1.79961 8.71434 0
1.3555 9.96662 0
3.82337 -4.3523 0
5.11752 -4.4499 0
5.84694 -3.93595 0
3.7845 -3.20152 0
1.81246 -1.88279 0
3.0195 -2.5742 0
6.78498 -3.94873 0
7.38317 -4.89772 0
7.98293 -6.03719 0
0.483454 5.8825 0
1.42851 6.74334 0
2.37496 6.67063 0
1.21017 4.55681 0
1.48836 3.39804 0
2.43604 -0.692102 0
2.82836 0.14261 0
1.78907 2.16307 0
2.61217 1.15027 0
3.07293 7.17195 0
2.90492 8.37884 0
2.63904 9.7127 0
4.91215 -3.32849 0
6.12208 -3.10937 0
4.17351 -2.27561 0
3.24486 -1.5031 0
6.73305 -2.3136 0
7.23406 -3.04334 0
7.96714 -3.91323 0
8.71477 -4.95262 0
2.02405 5.6009 0
3.08738 6.1552 0
2.36432 4.12759 0
2.42044 3.06133 0
3.52618 -0.46093 0
3.61624 0.613376 0
2.96227 2.28842 0
3.54614 1.5255 0
4.01349 5.89993 0
3.98594 6.79543 0
3.97481 7.94111 0
3.87752 9.29058 0
5.57005 -1.91657 0
4.51002 -1.1298 0
6.71593 -1.3365 0
7.59507 -2.03708 0
8.40002 -2.86231 0
9.29776 -3.78061 0
3.41999 4.87821 0
3.33965 3.38604 0
4.69216 0.130096 0
4.52005 1.31023 0
4.06613 2.44429 0
4.57226 5.15436 0
4.84575 6.19331 0
4.98262 7.38332 0
5.052 8.71373 0
5.88506 -0.435035 0
7.01343 -0.488438 0
7.76258 -1.0857 0
8.68812 -1.74668 0
9.71281 -2.53922 0
4.55379 3.82873 0
5.81948 1.09888 0
5.37286 2.53571 0
5.38241 4.62264 0
5.61478 5.52614 0
5.89984 6.67496 0
6.14446 7.99253 0
6.84887 0.463677 0
7.85683 -0.0256536 0
8.86421 -0.584485 0
9.96486 -1.25531 0
6.96355 1.34999 0
5.7236 3.78018 0
6.5443 2.19844 0
6.38311 3.08945 0
6.29558 4.68943 0
6.69642 5.84069 0
7.12315 7.12314 0
7.78812 0.968026 0
8.86365 0.572985 0
10.057 0.0500586 0
7.61996 2.00525 0
6.83261 3.90637 0
7.27318 2.9483 0
7.38185 4.88844 0
7.99303 6.14489 0
8.72717 1.72765 0
9.97234 1.3563 0
8.42496 2.83908 0
7.98535 3.91827 0
8.71152 5.05072 0
9.71365 2.63932 0
9.29271 3.87839 0
CELLS 542 2168
3 2 0 4
3 0 1 7
3 4 0 7
3 1 5 8
3 7 1 8
3 3 2 13
3 13 2 4
3 11 3 14
3 14 3 13
3 13 4 15
3 4 7 16
3 15 4 16
3 5 6 17
3 8 5 17
3 6 9 18
3 17 6 18
3 7 8 19
3 16 7 19
3 8 17 20
3 19 8 20
3 9 10 23
3 18 9 23
3 10 21 24
3 23 10 24
3 12 11 25
3 25 11 14
3 26 12 27
3 27 12 25
3 14 13 29
3 29 13 15
3 25 14 30
3 30 14 29
3 29 15 31
3 15 16 33
3 31 15 33
3 16 19 34
3 33 16 34
3 17 18 35
3 20 17 35
3 18 23 36
3 35 18 36
3 19 20 37
3 34 19 37
3 20 35 38
3 37 20 38
3 21 22 39
3 24 21 39
3 22 32 40
3 39 22 40
3 23 24 41
3 36 23 41
3 24 39 42
3 41 24 42
3 27 25 44
3 44 25 30
3 28 26 45
3 45 26 27
3 45 27 46
3 46 27 44
3 47 28 48
3 48 28 45
3 30 29 50
3 50 29 31
3 44 30 51
3 51 30 50
3 50 31 52
3 31 33 52
3 32 43 53
3 40 32 53
3 53 43 54
3 33 34 55
3 34 37 55
3 33 55 52
3 35 36 56
3 38 35 56
3 36 41 57
3 56 36 57
3 37 38 58
3 38 56 58
3 37 58 55
3 39 40 59
3 42 39 59
3 40 53 60
3 59 40 60
3 41 42 61
3 57 41 61
3 42 59 62
3 61 42 62
3 43 63 54
3 46 44 64
3 64 44 51
3 48 45 65
3 65 45 46
3 65 46 66
3 66 46 64
3 49 47 67
3 67 47 48
3 67 48 68
3 68 48 65
3 69 49 70
3 70 49 67
3 52 55 72
3 64 51 73
3 51 50 73
3 50 52 73
3 73 52 74
3 74 52 72
3 53 54 75
3 60 53 75
3 54 63 76
3 54 76 77
3 75 54 77
3 55 58 78
3 72 55 78
3 72 78 79
3 56 57 80
3 57 61 80
3 56 80 58
3 58 80 81
3 78 58 81
3 59 60 82
3 62 59 82
3 60 75 83
3 82 60 83
3 61 62 84
3 62 82 84
3 61 84 80
3 63 85 76
3 66 64 86
3 64 73 86
3 68 65 87
3 87 65 66
3 87 66 86
3 70 67 88
3 88 67 68
3 88 68 89
3 89 68 87
3 71 69 90
3 90 69 70
3 90 70 91
3 91 70 88
3 92 71 93
3 93 71 90
3 74 72 94
3 94 72 79
3 86 73 95
3 95 73 74
3 95 74 96
3 96 74 94
3 97 86 95
3 76 85 99
3 75 77 100
3 83 75 100
3 76 99 101
3 77 76 101
3 77 101 102
3 100 77 102
3 94 79 103
3 78 81 104
3 79 78 104
3 79 104 103
3 80 84 105
3 81 80 105
3 81 105 106
3 104 81 106
3 82 83 107
3 83 100 107
3 82 107 84
3 84 107 108
3 105 84 108
3 85 109 99
3 89 87 110
3 87 86 110
3 110 86 97
3 91 88 111
3 111 88 89
3 111 89 110
3 93 90 112
3 112 90 91
3 112 91 113
3 113 91 111
3 98 92 114
3 114 92 93
3 114 93 115
3 115 93 112
3 116 98 114
3 117 103 118
3 96 94 119
3 94 103 119
3 119 103 117
3 97 95 120
3 120 95 96
3 120 96 119
3 121 110 97
3 121 97 122
3 122 97 120
3 123 119 117
3 124 98 116
3 99 109 125
3 99 125 126
3 101 99 126
3 100 102 127
3 100 127 107
3 101 126 128
3 102 101 128
3 102 128 127
3 104 106 129
3 104 129 103
3 103 129 118
3 105 108 130
3 106 105 130
3 106 130 129
3 107 127 131
3 108 107 131
3 108 131 132
3 108 132 130
3 109 134 125
3 125 134 133
3 113 111 135
3 111 110 135
3 135 110 121
3 115 112 136
3 136 112 113
3 136 113 135
3 116 114 137
3 137 114 115
3 137 115 138
3 138 115 136
3 139 124 116
3 139 116 140
3 140 116 137
3 141 135 121
3 118 129 142
3 118 142 143
3 117 118 143
3 123 117 143
3 122 120 144
3 120 119 144
3 144 119 123
3 141 121 145
3 145 121 122
3 145 122 144
3 146 141 145
3 147 144 123
3 147 123 148
3 143 148 123
3 150 124 139
3 149 150 139
3 131 127 151
3 125 133 152
3 126 125 152
3 126 152 153
3 128 126 153
3 128 153 154
3 128 154 127
3 127 154 151
3 152 133 155
3 130 132 156
3 130 156 129
3 129 156 142
3 131 151 157
3 132 131 157
3 132 157 156
3 156 158 142
3 157 151 159
3 133 160 155
3 134 161 133
3 133 161 160
3 138 136 162
3 136 135 162
3 162 135 141
3 140 137 163
3 163 137 138
3 163 138 162
3 149 139 164
3 164 139 140
3 164 140 165
3 165 140 163
3 166 149 164
3 167 162 141
3 167 141 146
3 142 158 168
3 143 142 168
3 143 168 148
3 146 145 169
3 145 144 169
3 169 144 147
3 170 167 146
3 170 146 169
3 171 169 147
3 171 147 148
3 171 148 172
3 168 172 148
3 173 149 166
3 174 150 149
3 173 174 149
3 154 175 151
3 151 175 159
3 152 155 176
3 153 152 176
3 153 176 177
3 153 177 154
3 154 177 175
3 155 160 178
3 155 178 179
3 176 155 179
3 156 157 180
3 156 180 158
3 157 159 181
3 157 181 180
3 158 180 182
3 158 182 168
3 159 175 183
3 159 183 181
3 175 184 183
3 160 186 178
3 178 186 185
3 161 187 160
3 160 187 186
3 165 163 188
3 163 162 188
3 188 162 167
3 166 164 189
3 189 164 165
3 189 165 188
3 190 173 166
3 190 166 191
3 191 166 189
3 192 188 167
3 192 167 170
3 193 192 170
3 182 194 168
3 194 172 168
3 193 170 195
3 170 169 195
3 195 169 171
3 196 195 171
3 196 171 172
3 194 197 172
3 197 198 172
3 198 196 172
3 200 173 190
3 199 200 190
3 201 174 173
3 200 201 173
3 176 179 202
3 177 176 202
3 177 202 175
3 175 202 184
3 178 185 203
3 178 203 179
3 179 203 202
3 203 185 204
3 202 205 184
3 183 206 181
3 180 181 206
3 180 206 182
3 182 206 194
3 183 184 207
3 205 207 184
3 183 207 206
3 185 208 204
3 186 209 185
3 185 209 208
3 187 210 186
3 186 210 209
3 191 189 211
3 189 188 211
3 211 188 192
3 199 190 212
3 212 190 191
3 212 191 211
3 213 199 212
3 214 211 192
3 214 192 193
3 215 214 193
3 215 193 195
3 206 216 194
3 216 197 194
3 216 217 197
3 215 195 218
3 218 195 196
3 198 218 196
3 217 219 197
3 219 218 198
3 197 219 198
3 220 199 213
3 221 200 199
3 220 221 199
3 222 201 200
3 221 222 200
3 203 204 223
3 203 223 202
3 202 223 205
3 204 208 224
3 204 224 223
3 205 223 225
3 205 225 207
3 207 225 226
3 207 226 206
3 226 216 206
3 208 228 224
3 224 228 227
3 209 229 208
3 229 228 208
3 210 230 209
3 209 230 229
3 213 212 231
3 212 211 231
3 231 211 214
3 232 220 213
3 232 213 231
3 233 231 214
3 233 214 215
3 234 233 215
3 234 215 218
3 226 235 216
3 235 217 216
3 235 236 217
3 217 236 219
3 237 234 218
3 237 218 219
3 236 238 219
3 238 237 219
3 240 220 232
3 239 240 232
3 241 221 220
3 240 241 220
3 242 222 221
3 241 242 221
3 224 227 243
3 224 243 223
3 223 243 225
3 225 243 244
3 225 244 226
3 226 244 235
3 227 245 243
3 228 246 227
3 227 246 245
3 229 247 228
3 228 247 246
3 230 248 229
3 229 248 247
3 239 232 249
3 232 231 249
3 249 231 233
3 250 249 233
3 250 233 234
3 237 250 234
3 244 251 235
3 235 251 236
3 251 252 236
3 236 252 238
3 252 253 238
3 253 250 237
3 253 237 238
3 254 239 249
3 255 240 239
3 254 255 239
3 256 241 240
3 255 256 240
3 257 242 241
3 256 257 241
3 245 258 243
3 243 258 244
3 244 258 251
3 245 259 258
3 246 260 245
3 245 260 259
3 247 261 246
3 246 261 260
3 248 262 247
3 247 262 261
3 254 249 263
3 263 249 250
3 253 263 250
3 258 264 251
3 251 264 252
3 264 265 252
3 265 263 253
3 252 265 253
3 266 254 263
3 267 255 254
3 266 267 254
3 268 256 255
3 267 268 255
3 269 257 256
3 268 269 256
3 259 270 258
3 270 264 258
3 260 271 259
3 259 271 270
3 261 272 260
3 260 272 271
3 262 273 261
3 273 272 261
3 270 274 264
3 275 266 263
3 275 263 265
3 274 276 264
3 276 265 264
3 276 277 265
3 277 275 265
3 278 267 266
3 275 278 266
3 279 268 267
3 278 279 267
3 280 269 268
3 279 280 268
3 271 281 270
3 270 281 274
3 272 282 271
3 271 282 281
3 273 283 272
3 272 283 282
3 281 284 274
3 274 284 276
3 285 278 275
3 277 285 275
3 284 286 276
3 286 285 277
3 276 286 277
3 287 279 278
3 285 287 278
3 288 280 279
3 287 288 279
3 282 289 281
3 281 289 284
3 283 290 282
3 282 290 289
3 289 291 284
3 284 291 286
3 291 292 286
3 292 287 285
3 286 292 285
3 293 288 287
3 292 293 287
3 290 294 289
3 289 294 291
3 294 295 291
3 295 293 292
3 291 295 292
CELL_TYPES 542
5
5
5
5
5
5
5
5
5
5
5
5
5
5
5
5
5
5
5
5
5
5
5
5
5
5
5
5
5
5
5
5
5
5
5
5
5
5
5
5
5
5
5
5
5
5
5
5
5
5
5
5
5
5
5
5
5
5
5
5
5
5
5
5
5
5
5
5
5
5
5
5
5
5
5
5
5
5
5
5
5
5
5
5
5
5
5
5
5
5
5
5
5
5
5
5
5
5
5
5
5
5
5
5
5
5
5
5
5
5
5
5
5
5
5
5
5
5
5
5
5
5
5
5
5
5
5
5
5
5
5
5
5
5
5
5
5
5
5
5
5
5
5
5
5
5
5
5
5
5
5
5
5
5
5
5
5
5
5
5
5
5
5
5
5
5
5
5
5
5
5
5
5
5
5
5
5
5
5
5
5
5
5
5
5
5
5
5
5
5
5
5
5
5
5
5
5
5
5
5
5
5
5
5
5
5
5
5
5
5
5
5
5
5
5
5
5
5
5
5
5
5
5
5
5
5
5
5
5
5
5
5
5
5
5
5
5
5
5
5
5
5
5
5
5
5
5
5
5
5
5
5
5
5
5
5
5
5
5
5
5
5
5
5
5
5
5
5
5
5
5
5
5
5
5
5
5
5
5
5
5
5
5
5
5
5
5
5
5
5
5
5
5
5
5
5
5
5
5
5
5
5
5
5
5
5
5
5
5
5
5
5
5
5
5
5
5
5
5
5
5
5
5
5
5
5
5
5
5
5
5
5
5
5
5
5
5
5
5
5
5
5
5
5
5
5
5
5
5
5
5
5
5
5
5
5
5
5
5
5
5
5
5
5
5
5
5
5
5
5
5
5
5
5
5
5
5
5
5
5
5
5
5
5
5
5
5
5
5
5
5
5
5
5
5
5
5
5
5
5
5
5
5
5
5
5
5
5
5
5
5
5
5
5
5
5
5
5
5
5
5
5
5
5
5
5
5
5
5
5
5
5
5
5
5
5
5
5
5
5
5
5
5
5
5
5
5
5
5
5
5
5
5
5
5
5
5
5
5
5
5
5
5
5
5
5
5
5
5
5
5
5
5
5
5
5
5
5
5
5
5
5
5
5
5
5
5
5
5
5
5
5
5
5
5
5
5
5
5
5
5
5
5
5
5
5
5
5
5
5
5
5
5
5
5
5
5
5
5
5
5
5
5
5
5
5
5
5
5
5
5
5
5
5
5
5
5
5
5
5
5
5
POINT_DATA 296
SCALARS concentrations float 4
LOOKUP_TABLE default
0 1.0005 0.071023 36.374
0 1.00061 0.0677331 1.8087
0 1.00072 0.0714625 60.9234
0 1.00075 0.0707412 14.6828
0 1.00064 0.067315 4.53178
0 1.00081 0.0686486 30.6719
0 1.00101 0.0704384 69.0668
0 1.00061 0.0671082 3.95624
0 1.00075 0.0670036 2.49182
0 1.00093 0.0683844 46.6883
0 1.00076 0.0694189 92.0339
0 1.00042 0.0699156 88.8568
0 1.00035 0.0697021 24.8558
0 1.00077 0.0673036 2.12745
0 1.0006 0.0671371 0.438765
0 1.00073 0.0672507 1.76063
0 1.00073 0.067182 2.03652
0 1.00091 0.0671368 3.79249
0 1.00097 0.0671177 3.72775
0 1.00077 0.067101 2.09644
0 1.00085 0.0670858 1.84616
0 1.0009 0.0731014 72.1396
0 1.00089 0.0712929 71.6426
0 1.00084 0.0669592 1.02025
0 1.00082 0.067123 4.68062
0 1.00042 0.0670555 3.36168
0 1.00029 0.0697429 12.3218
0 1.00039 0.0671193 3.69955
0 1.00023 0.0694936 60.9009
0 1.0007 0.067209 0.714191
0 1.00061 0.0671294 1.06107
0 1.00075 0.0671566 0.433715
0 1.00078 0.0687312 18.3403
0 1.00078 0.0671217 0.474896
0 1.00079 0.0671103 0.602517
0 1.0009 0.0670998 1.74253
0 1.00088 0.0670676 1.05199
0 1.00082 0.0670544 0.212325
0 1.00086 0.0670598 0.399503
0 1.00089 0.0673337 6.87241
0 1.00081 0.0672864 4.08713
0 1.00084 0.0670792 0.837026
0 1.00083 0.067157 1.75903
0 1.00076 0.0693865 6.12968
0 1.00054 0.0671021 1.64353
0 1.00033 0.0670176 1.99857
0 1.00052 0.0671122 2.12124
0 1.00035 0.0695508 35.5088
0 1.00036 0.0671558 2.6596
0 1.00055 0.0700895 22.8673
0 1.00072 0.0671036 0.437756
0 1.00068 0.0670891 0.234065
0 1.00077 0.0670019 1.35264
0 1.00075 0.067144 3.39048
0 1.00073 0.0671836 3.41575
0 1.0008 0.0669886 1.01721
0 1.00085 0.06703 0.484868
0 1.00084 0.0670464 0.361069
0 1.00082 0.0669642 0.966279
0 1.0008 0.0672202 2.56223
0 1.00076 0.067206 2.69566
0 1.00081 0.0670591 0.412031
0 1.00079 0.0671225 1.00285
0 1.00068 0.0710989 38.9605
0 1.00067 0.0670571 0.745536
0 1.00052 0.0671354 1.66888
0 1.00065 0.0670938 1.07938
0 1.0005 0.0672742 2.66154
0 1.00058 0.0672104 1.764
0 1.00065 0.0715396 65.3356
0 1.00064 0.0673094 4.25599
0 1.00052 0.0680925 11.2786
0 1.00078 0.066953 1.45146
0 1.00074 0.0669866 1.44772
0 1.00077 0.0669595 1.7625
0 1.00072 0.0671805 3.26376
0 1.00057 0.0671392 3.17437
0 1.00065 0.0671711 2.69683
0 1.00079 0.0669404 1.29883
0 1.00077 0.0669299 1.24395
0 1.0008 0.0669536 0.974097
0 1.00078 0.066933 1.15962
0 1.00076 0.0670938 1.96319
0 1.00073 0.0671118 2.91546
0 1.00077 0.0669728 1.1407
0 1.0004 0.0694726 16.7825
0 1.00074 0.0669878 1.71628
0 1.00069 0.0671086 1.18336
0 1.00065 0.0672765 1.8893
0 1.00071 0.0671771 1.22454
0 1.00063 0.0671929 3.2254
0 1.0007 0.0672511 2.04228
0 1.0004 0.0695498 34.474
0 1.00052 0.0670228 1.69293
0 1.00076 0.0669249 1.44825
0 1.00076 0.0669651 2.01325
0 1.00076 0.0669414 1.80414
0 1.00077 0.0669687 2.20416
0 1.00044 0.070764 13.2656
0 1.00041 0.0671276 1.23028
0 1.0007 0.0670915 3.15793
0 1.00058 0.0671508 1.50214
0 1.00066 0.0671174 2.77866
0 1.00075 0.0668754 0.980001
0 1.00076 0.0669086 1.08885
0 1.00076 0.0669298 1.27928
0 1.00075 0.0669157 1.25143
0 1.00072 0.0669831 2.19907
0 1.00073 0.0669312 1.5013
0 1.00031 0.0703575 77.1339
0 1.00076 0.0670123 2.00952
0 1.00075 0.0671634 1.55771
0 1.00069 0.0671743 1.40838
0 1.00076 0.0671766 1.56716
0 1.00051 0.0672264 3.11171
0 1.00067 0.0671606 1.10012
0 1.00047 0.0671954 0.704031
0 1.00073 0.0668524 0.817461
0 1.00072 0.0668403 0.32388
0 1.00075 0.0668803 1.34338
0 1.00077 0.0669354 2.01882
0 1.00079 0.0669669 2.42001
0 1.00077 0.0669533 2.29013
0 1.00074 0.0668448 1.35439
0 1.00032 0.0693378 122.265
0 1.00041 0.067269 3.98709
0 1.00056 0.0671626 0.172527
0 1.00069 0.0670046 2.68939
0 1.00065 0.0671182 2.19656
0 1.00073 0.0668631 0.820557
0 1.00073 0.0669012 1.39138
0 1.0007 0.0669348 2.05741
0 1.00071 0.0669017 1.54922
0 1.00052 0.0672514 5.64369
0 1.00037 0.0716454 25.6914
0 1.00079 0.0670101 2.28971
0 1.00077 0.0671247 1.80893
0 1.00065 0.0671955 0.856724
0 1.00076 0.0671454 1.53786
0 1.00045 0.0671256 4.15598
0 1.00065 0.0671998 0.644796
0 1.0008 0.0669678 2.60849
0 1.00071 0.066819 0.587388
0 1.00071 0.0667915 0.758142
0 1.00076 0.0668849 1.85326
0 1.00078 0.0669391 2.47733
0 1.0008 0.0669581 2.97265
0 1.00075 0.0668461 1.84852
0 1.00072 0.0667911 1.60982
0 1.00054 0.0673127 7.63077
0 1.00039 0.0688902 3.58586
0 1.0007 0.0669475 2.61257
0 1.0006 0.0671875 1.19551
0 1.00066 0.0671549 1.62758
0 1.00069 0.0670246 2.667
0 1.00069 0.0672204 2.58061
0 1.0007 0.0668592 1.19278
0 1.00069 0.0669039 2.05536
0 1.00069 0.0668271 1.42102
0 1.0007 0.0669595 3.0365
0 1.00068 0.0671664 4.51185
0 1.00055 0.0696653 31.2562
0 1.00081 0.067002 2.35532
0 1.00078 0.0671259 1.55786
0 1.00068 0.067247 2.76313
0 1.00078 0.0671682 0.555853
0 1.00072 0.0672991 4.11535
0 1.00082 0.0669754 2.95019
0 1.0007 0.0667765 1.55008
0 1.00077 0.0668856 2.44507
0 1.0008 0.066954 3.34225
0 1.00075 0.0668404 2.34706
0 1.00072 0.0668012 2.37279
0 1.00058 0.0673173 8.17017
0 1.0005 0.0731981 42.2025
0 1.00071 0.0669776 3.13685
0 1.00071 0.0671387 1.72503
0 1.00072 0.0670629 2.7778
0 1.00078 0.0672351 2.25006
0 1.00076 0.0671444 2.01313
0 1.00069 0.0668599 1.94907
0 1.0007 0.0668967 2.70672
0 1.00069 0.0668391 2.22286
0 1.00071 0.0669428 3.24755
0 1.00073 0.0670085 3.61627
0 1.00086 0.0672825 1.09822
0 1.00079 0.0671783 4.05114
0 1.00073 0.0701517 25.4072
0 1.00083 0.0670124 2.30071
0 1.00082 0.0671577 0.310561
0 1.00076 0.0673339 3.68813
0 1.00083 0.0672286 0.943264
0 1.00084 0.0669897 3.14327
0 1.00082 0.06698 3.62131
0 1.00071 0.0668303 2.50946
0 1.00078 0.0668973 3.12143
0 1.00075 0.0668633 2.95608
0 1.00073 0.0668673 3.30295
0 1.00075 0.0668745 3.30971
0 1.0008 0.0673119 1.9635
0 1.00065 0.0673329 5.73927
0 1.00052 0.0705453 13.3976
0 1.00076 0.0670303 2.94828
0 1.00082 0.0671543 2.38134
0 1.00087 0.0672507 1.61426
0 1.00077 0.0670144 3.56242
0 1.00071 0.0668772 2.75668
0 1.00074 0.0669564 3.62236
0 1.00091 0.067346 1.43341
0 1.00088 0.0673029 3.50888
0 1.00082 0.0692669 72.5289
0 1.00086 0.0670247 2.14225
0 1.00086 0.0671968 0.697896
0 1.00088 0.0672591 0.251707
0 1.00086 0.0669939 3.04654
0 1.00083 0.0669736 3.52318
0 1.00073 0.066909 3.55432
0 1.00076 0.0669599 4.22312
0 1.00079 0.0669209 3.42523
0 1.00078 0.0669449 3.82593
0 1.00082 0.067306 2.60769
0 1.00073 0.067248 1.1626
0 1.00066 0.0737525 104.409
0 1.00083 0.0670489 2.8953
0 1.00089 0.0672081 1.11729
0 1.0008 0.0669901 3.45635
0 1.00075 0.0669452 3.68957
0 1.00092 0.0672488 0.809621
0 1.00093 0.0673741 3.4305
0 1.00092 0.067441 6.16651
0 1.00091 0.0729239 1.99083
0 1.00089 0.0670271 1.91966
0 1.0009 0.0672137 0.763605
0 1.00088 0.0669928 2.69285
0 1.00084 0.0670002 3.44919
0 1.00078 0.0669806 4.06383
0 1.00081 0.0670045 4.07703
0 1.00084 0.0670011 3.69504
0 1.00084 0.0670253 4.07861
0 1.00091 0.0672706 2.61021
0 1.00082 0.0673283 5.08051
0 1.00071 0.0672258 6.72693
0 1.00069 0.0694914 38.2673
0 1.00087 0.0670283 2.45426
0 1.00082 0.0669758 3.37512
0 1.00092 0.0672229 1.5022
0 1.00092 0.0673422 3.4943
0 1.00088 0.0673736 7.8339
0 1.00088 0.071236 25.3126
0 1.00092 0.0670434 1.60493
0 1.0009 0.0670106 3.05611
0 1.00086 0.0669837 3.44245
0 1.0009 0.067008 3.70407
0 1.00091 0.0670142 3.564
0 1.00096 0.0672363 2.16913
0 1.00086 0.0673749 6.91314
0 1.00065 0.0673664 9.72314
0 1.00059 0.0704622 0.469522
0 1.0009 0.0670671 3.18434
0 1.00095 0.0673123 1.86232
0 1.00093 0.0673346 2.8554
0 1.00086 0.067259 7.83545
0 1.00082 0.072459 109.506
0 1.00096 0.0670647 2.00535
0 1.00096 0.067085 3.83024
0 1.00098 0.0670685 3.3585
0 1.00101 0.0672839 2.93073
0 1.00095 0.0674007 7.48911
0 1.00075 0.0673869 9.69193
0 1.00056 0.0725686 51.0572
0 1.00099 0.0673083 2.71269
0 1.00098 0.0674139 1.66113
0 1.00087 0.0672977 3.74882
0 1.00081 0.0713771 140.743
0 1.00106 0.0673658 2.32377
0 1.00105 0.067237 1.54038
0 1.00107 0.0672774 2.60137
0 1.00109 0.067279 1.60924
0 1.00104 0.0673618 6.57071
0 1.00093 0.0674009 10.8671
0 1.00079 0.0701961 12.3989
0 1.00108 0.0674712 1.71172
0 1.001 0.0674649 5.6012
0 1.00086 0.070454 19.4673
0 1.00117 0.0674283 0.784027
0 1.00113 0.067309 4.50891
0 1.00119 0.0673249 1.65082
0 1.00106 0.0673176 10.3171
0 1.00095 0.0747441 133.387
0 1.0012 0.067469 4.42785
0 1.0011 0.0728287 5.31637
0 1.00129 0.0673123 2.93189
0 1.00121 0.0671769 5.0115
0 1.00112 0.0686588 5.13889
0 1.00131 0.0724165 28.8858
0 1.0013 0.0680312 7.76037
VECTORS fa_u float
0.00709065 0.00295781 -0
0.00467025 0.00270996 -0
0.00621084 0.00164689 -0
0.00652115 0.000842832 -0
1e-08 0 0
0.00538317 0.00410938 -0
0.00487971 0.00488586 -0
1e-08 0 0
1e-08 0 0
0.0040469 0.00530989 -0
0.00277243 0.00478925 -0
0.00579903 6.52548e-06 -0
0.00709228 -0.000920795 0
1e-08 0 0
1e-08 0 0
1e-08 0 0
1e-08 0 0
1e-08 0 0
1e-08 0 0
1e-08 0 0
1e-08 0 0
0.00277782 0.00664995 -0
0.00171303 0.00641728 -0
1e-08 0 0
1e-08 0 0
1e-08 0 0
0.0066515 -0.0018044 0
1e-08 0 0
0.00526136 -0.00218317 0
1e-08 0 0
1e-08 0 0
1e-08 0 0
0.000808448 0.00613185 -0
1e-08 0 0
1e-08 0 0
1e-08 0 0
1e-08 0 0
1e-08 0 0
1e-08 0 0
1e-08 0 0
1e-08 0 0
1e-08 0 0
1e-08 0 0
4.91186e-06 0.00676156 -0
1e-08 0 0
1e-08 0 0
1e-08 0 0
0.00556025 -0.00317858 0
1e-08 0 0
0.00590503 -0.00452709 0
1e-08 0 0
1e-08 0 0
1e-08 0 0
1e-08 0 0
1e-08 0 0
1e-08 0 0
1e-08 0 0
1e-08 0 0
1e-08 0 0
1e-08 0 0
1e-08 0 0
1e-08 0 0
1e-08 0 0
-0.000896586 0.00672037 0
1e-08 0 0
1e-08 0 0
1e-08 0 0
1e-08 0 0
1e-08 0 0
0.0044652 -0.00449275 0
1e-08 0 0
0.00378076 -0.00493274 0
1e-08 0 0
1e-08 0 0
1e-08 0 0
1e-08 0 0
1e-08 0 0
1e-08 0 0
1e-08 0 0
1e-08 0 0
1e-08 0 0
1e-08 0 0
1e-08 0 0
1e-08 0 0
1e-08 0 0
-0.00159732 0.00593563 0
1e-08 0 0
1e-08 0 0
1e-08 0 0
1e-08 0 0
1e-08 0 0
1e-08 0 0
0.00314226 -0.00541283 0
1e-08 0 0
1e-08 0 0
1e-08 0 0
1e-08 0 0
1e-08 0 0
0.00286486 -0.00693665 0
1e-08 0 0
1e-08 0 0
1e-08 0 0
1e-08 0 0
1e-08 0 0
1e-08 0 0
1e-08 0 0
1e-08 0 0
1e-08 0 0
1e-08 0 0
-0.00229328 0.00558874 0
1e-08 0 0
1e-08 0 0
1e-08 0 0
1e-08 0 0
1e-08 0 0
1e-08 0 0
1e-08 0 0
1e-08 0 0
1e-08 0 0
1e-08 0 0
1e-08 0 0
1e-08 0 0
1e-08 0 0
1e-08 0 0
0.00150625 -0.00567646 0
1e-08 0 0
1e-08 0 0
1e-08 0 0
1e-08 0 0
1e-08 0 0
1e-08 0 0
1e-08 0 0
1e-08 0 0
1e-08 0 0
-0.00396773 0.00685799 0
1e-08 0 0
1e-08 0 0
1e-08 0 0
1e-08 0 0
1e-08 0 0
1e-08 0 0
1e-08 0 0
1e-08 0 0
1e-08 0 0
1e-08 0 0
1e-08 0 0
1e-08 0 0
1e-08 0 0
1e-08 0 0
1e-08 0 0
0.000819872 -0.00609358 0
1e-08 0 0
1e-08 0 0
1e-08 0 0
1e-08 0 0
1e-08 0 0
1e-08 0 0
1e-08 0 0
1e-08 0 0
1e-08 0 0
1e-08 0 0
-0.00339988 0.00440707 0
1e-08 0 0
1e-08 0 0
1e-08 0 0
1e-08 0 0
1e-08 0 0
1e-08 0 0
1e-08 0 0
1e-08 0 0
1e-08 0 0
1e-08 0 0
1e-08 0 0
1e-08 0 0
4.19692e-06 -0.00738592 0
1e-08 0 0
1e-08 0 0
1e-08 0 0
1e-08 0 0
1e-08 0 0
1e-08 0 0
1e-08 0 0
1e-08 0 0
1e-08 0 0
1e-08 0 0
1e-08 0 0
1e-08 0 0
-0.00497398 0.00497298 0
1e-08 0 0
1e-08 0 0
1e-08 0 0
1e-08 0 0
1e-08 0 0
1e-08 0 0
1e-08 0 0
1e-08 0 0
1e-08 0 0
1e-08 0 0
1e-08 0 0
1e-08 0 0
1e-08 0 0
-0.000799777 -0.00601478 0
1e-08 0 0
1e-08 0 0
1e-08 0 0
1e-08 0 0
1e-08 0 0
1e-08 0 0
1e-08 0 0
1e-08 0 0
-0.0046244 0.00355551 0
1e-08 0 0
1e-08 0 0
1e-08 0 0
1e-08 0 0
1e-08 0 0
1e-08 0 0
1e-08 0 0
1e-08 0 0
1e-08 0 0
1e-08 0 0
1e-08 0 0
-0.00174838 -0.00652245 0
1e-08 0 0
1e-08 0 0
1e-08 0 0
1e-08 0 0
1e-08 0 0
1e-08 0 0
1e-08 0 0
-0.0057317 0.00333967 0
1e-08 0 0
1e-08 0 0
1e-08 0 0
1e-08 0 0
1e-08 0 0
1e-08 0 0
1e-08 0 0
1e-08 0 0
1e-08 0 0
1e-08 0 0
1e-08 0 0
-0.00238896 -0.00577039 0
1e-08 0 0
1e-08 0 0
1e-08 0 0
1e-08 0 0
1e-08 0 0
-0.00678559 0.00280613 0
1e-08 0 0
1e-08 0 0
1e-08 0 0
1e-08 0 0
1e-08 0 0
1e-08 0 0
1e-08 0 0
1e-08 0 0
-0.00304822 -0.00532349 0
1e-08 0 0
1e-08 0 0
1e-08 0 0
1e-08 0 0
-0.00610849 0.00161365 0
1e-08 0 0
1e-08 0 0
1e-08 0 0
1e-08 0 0
1e-08 0 0
1e-08 0 0
-0.00472688 -0.00615505 0
1e-08 0 0
1e-08 0 0
1e-08 0 0
-0.00574684 0.000763921 0
1e-08 0 0
1e-08 0 0
1e-08 0 0
1e-08 0 0
1e-08 0 0
1e-08 0 0
-0.00372624 -0.00372811 0
1e-08 0 0
1e-08 0 0
-0.00695659 1.99277e-05 0
1e-08 0 0
1e-08 0 0
1e-08 0 0
1e-08 0 0
-0.00641536 -0.00491693 0
1e-08 0 0
-0.00679741 -0.000901384 0
1e-08 0 0
1e-08 0 0
-0.00482126 -0.00276463 0
-0.00607376 -0.00163671 0
-0.00619502 -0.00257452 0
