# vtk DataFile Version 2.0
CellBP Time: 2.76
ASCII
DATASET UNSTRUCTURED_GRID
POINTS 296 double
-9.01179 -3.69985 0
-8.43653 -4.84842 0
-9.41836 -2.48077 0
-9.67288 -1.22758 0
-8.28603 -2.78743 0
-7.72906 -5.92162 0
-6.88112 -6.88717 0
-7.84601 -3.83527 0
-7.27477 -4.82424 0
-5.92215 -7.73635 0
-4.86173 -8.45119 0
-9.76173 0.0468735 0
-9.68834 1.32832 0
-8.5916 -1.66561 0
-8.72557 -0.523847 0
-7.52063 -1.9793 0
-7.15471 -2.8721 0
-6.58264 -5.73605 0
-5.78047 -6.55512 0
-6.72201 -3.84739 0
-6.1614 -4.6339 0
-3.71384 -9.02732 0
-2.49245 -9.43387 0
-4.87785 -7.26835 0
-3.89758 -7.84725 0
-8.7374 0.636774 0
-9.45025 2.59479 0
-8.57385 1.75933 0
-9.02568 3.80767 0
-7.68024 -0.916032 0
-7.7351 0.0823815 0
-6.89109 -1.29883 0
-1.22859 -9.68393 0
-6.38513 -2.12975 0
-6.26185 -3.02411 0
-5.48921 -5.43338 0
-4.75982 -6.07527 0
-5.60808 -3.72264 0
-5.22043 -4.52265 0
-2.85372 -8.32105 0
-1.76797 -8.59339 0
-3.90427 -6.68456 0
-3.04375 -7.11486 0
0.0516717 -9.75877 0
-7.65074 1.13457 0
-8.29681 2.89984 0
-7.50146 2.09386 0
-8.45105 4.95558 0
-7.83087 3.95191 0
-7.7292 6.01884 0
-6.72303 -0.389892 0
-6.90131 0.55065 0
-5.72939 -0.994615 0
-0.58665 -8.75689 0
0.558505 -8.71074 0
-5.26339 -2.45852 0
-4.45201 -5.05659 0
-3.87213 -5.73652 0
-4.40584 -3.77659 0
-2.05146 -7.52018 0
-1.1295 -7.73913 0
-2.97475 -6.06455 0
-2.2978 -6.58246 0
1.32744 -9.67296 0
-6.64132 1.41018 0
-7.12099 3.09355 0
-6.61223 2.35427 0
-7.24291 4.952 0
-6.6695 3.9709 0
-6.88063 6.97821 0
-6.52486 5.84886 0
-5.91803 7.82648 0
-4.43086 -1.17611 0
-5.77704 0.507344 0
-4.63381 -0.0152377 0
0.00349783 -7.79377 0
1.71928 -8.57643 0
0.93442 -7.70319 0
-4.01785 -2.39185 0
-3.47748 -1.38822 0
-3.27367 -4.77511 0
-3.25259 -3.25028 0
-1.37403 -6.63312 0
-0.511547 -6.97606 0
-1.966 -5.50647 0
2.58451 -9.4183 0
-5.47191 2.02402 0
-6.05121 3.0472 0
-6.06011 4.82945 0
-5.71901 3.95662 0
-5.71852 6.66333 0
-5.41095 5.57176 0
-4.85837 8.54981 0
-4.80117 7.34324 0
-3.49079 -0.423595 0
-4.42559 1.24214 0
-3.6962 0.589621 0
-4.03926 2.31203 0
-3.7107 9.121 0
2.83134 -8.25884 0
0.407001 -6.74105 0
1.99616 -7.45927 0
1.28508 -6.84514 0
-2.44037 -0.870623 0
-2.83168 -2.12378 0
-2.28615 -4.07668 0
-2.31877 -2.96094 0
-0.445049 -5.82114 0
-1.21593 -4.47726 0
3.80267 -9.01309 0
-4.75763 3.36814 0
-5.05001 4.55466 0
-4.61066 6.22648 0
-4.5041 5.31309 0
-3.81819 7.93603 0
-3.79489 6.78398 0
-2.76169 8.35884 0
-1.64713 -0.135034 0
-1.44773 -0.887902 0
-2.48532 0.509885 0
-3.24037 1.44157 0
-3.22124 3.29991 0
-2.89848 2.36784 0
-1.35479 0.62989 0
-2.49269 9.5286 0
3.89429 -7.81641 0
2.9283 -7.08595 0
0.939226 -5.77512 0
2.04714 -6.35529 0
-1.67859 -1.98755 0
-1.42884 -3.26435 0
0.087375 -4.71805 0
-0.56165 -3.67939 0
4.88813 -7.25166 0
4.95216 -8.44494 0
-3.75125 4.5179 0
-3.70644 5.70395 0
-2.86278 7.22801 0
-2.98608 6.30109 0
-1.64947 8.67353 0
-1.92257 7.56145 0
-2.32707 4.02966 0
-0.728981 -1.325 0
-0.836373 -0.255209 0
-1.93446 1.68291 0
-2.11926 2.86888 0
-1.30429 3.53276 0
-0.871063 1.35342 0
-0.283845 0.458131 0
-0.528908 8.81716 0
-1.23016 9.77029 0
1.10159 -4.54243 0
3.86602 -6.64412 0
2.95404 -6.03374 0
2.09438 -5.3769 0
4.74022 -6.14164 0
-0.555932 -2.47056 0
0.493891 -3.44872 0
0.054213 -1.60869 0
1.47106 -3.65907 0
5.82141 -6.55536 0
6.01867 -7.72867 0
-2.4593 5.31025 0
-2.11182 6.48311 0
-0.894554 7.75036 0
-1.2583 6.88007 0
0.0882856 7.83246 0
-1.13973 4.47194 0
0.149444 -0.615842 0
-0.800338 2.48886 0
-0.335432 3.59189 0
0.0597824 1.51393 0
0.738268 0.474023 0
0.642603 8.8261 0
0.0481558 9.86967 0
2.36 -4.2502 0
3.82126 -5.58235 0
2.97139 -5.1631 0
5.53121 -5.44086 0
4.64966 -5.22759 0
0.630176 -2.29034 0
1.2503 -2.93851 0
0.756535 -1.39016 0
2.15091 -3.1173 0
2.9731 -3.45096 0
6.11442 -4.75181 0
6.61177 -5.72418 0
6.98174 -6.87653 0
-1.0108 5.78209 0
-0.365074 6.83667 0
1.11735 7.72767 0
0.55828 7.0372 0
-0.00250935 4.70406 0
0.601551 3.81533 0
1.33614 -0.641751 0
0.534182 2.64688 0
0.961238 1.57481 0
1.90548 0.212865 0
1.60948 1.06413 0
2.12052 7.54497 0
1.79083 8.66791 0
1.33041 9.78299 0
3.79214 -4.31159 0
5.07732 -4.40441 0
5.80764 -3.90086 0
3.75974 -3.17706 0
1.80716 -1.88045 0
3.00321 -2.56078 0
6.74491 -3.92063 0
7.34012 -4.86511 0
7.83531 -5.92021 0
0.48284 5.84849 0
1.42285 6.70524 0
2.3647 6.63515 0
1.20343 4.53732 0
1.48164 3.38595 0
2.42817 -0.691058 0
2.81892 0.142581 0
1.78236 2.15891 0
2.60498 1.14781 0
3.05953 7.13408 0
2.89345 8.33554 0
2.59413 9.53602 0
4.87922 -3.29898 0
6.08497 -3.08433 0
4.15116 -2.26305 0
3.23091 -1.49867 0
6.69768 -2.3008 0
7.19615 -3.0273 0
7.92643 -3.89453 0
8.55425 -4.8615 0
2.01567 5.57202 0
3.06662 6.11888 0
2.35598 4.10818 0
2.41238 3.04921 0
3.51163 -0.458212 0
3.60234 0.613902 0
2.95118 2.27984 0
3.52999 1.52016 0
3.98195 5.86181 0
3.96106 6.756 0
3.95835 7.90029 0
3.81371 9.12442 0
5.54038 -1.90501 0
4.48851 -1.12361 0
6.67788 -1.32812 0
7.55453 -2.02505 0
8.35656 -2.84852 0
9.12988 -3.71478 0
3.39437 4.8476 0
3.3198 3.36717 0
4.66883 0.13177 0
4.49244 1.3023 0
4.0387 2.42875 0
4.53003 5.11602 0
4.80823 6.15277 0
4.95241 7.34094 0
4.9631 8.55247 0
5.84919 -0.433895 0
6.9683 -0.487639 0
7.71867 -1.07682 0
8.64119 -1.73485 0
9.53129 -2.491 0
4.51502 3.80007 0
5.77599 1.0868 0
5.32727 2.51302 0
5.32895 4.58333 0
5.56503 5.48472 0
5.85576 6.63143 0
6.02656 7.84196 0
6.79782 0.454553 0
7.80522 -0.0270749 0
8.81279 -0.577618 0
9.78368 -1.22783 0
6.90591 1.33238 0
5.66787 3.74551 0
6.485 2.17322 0
6.32095 3.05702 0
6.23335 4.64754 0
6.63838 5.79646 0
6.98095 6.98555 0
7.72987 0.956578 0
8.80405 0.568557 0
9.8614 0.0536488 0
7.55525 1.98297 0
6.76039 3.86472 0
7.20329 2.91559 0
7.3173 4.84713 0
7.83492 6.02425 0
8.66025 1.71146 0
9.77558 1.33009 0
8.35168 2.81088 0
7.91783 3.88344 0
8.54724 4.95551 0
9.52193 2.58778 0
9.11397 3.80461 0
CELLS 542 2168
3 2 0 4
3 0 1 7
3 4 0 7
3 1 5 8
3 7 1 8
3 3 2 13
3 13 2 4
3 11 3 14
3 14 3 13
3 13 4 15
3 4 7 16
3 15 4 16
3 5 6 17
3 8 5 17
3 6 9 18
3 17 6 18
3 7 8 19
3 16 7 19
3 8 17 20
3 19 8 20
3 9 10 23
3 18 9 23
3 10 21 24
3 23 10 24
3 12 11 25
3 25 11 14
3 26 12 27
3 27 12 25
3 14 13 29
3 29 13 15
3 25 14 30
3 30 14 29
3 29 15 31
3 15 16 33
3 31 15 33
3 16 19 34
3 33 16 34
3 17 18 35
3 20 17 35
3 18 23 36
3 35 18 36
3 19 20 37
3 34 19 37
3 20 35 38
3 37 20 38
3 21 22 39
3 24 21 39
3 22 32 40
3 39 22 40
3 23 24 41
3 36 23 41
3 24 39 42
3 41 24 42
3 27 25 44
3 44 25 30
3 28 26 45
3 45 26 27
3 45 27 46
3 46 27 44
3 47 28 48
3 48 28 45
3 30 29 50
3 50 29 31
3 44 30 51
3 51 30 50
3 50 31 52
3 31 33 52
3 32 43 53
3 40 32 53
3 53 43 54
3 33 34 55
3 34 37 55
3 33 55 52
3 35 36 56
3 38 35 56
3 36 41 57
3 56 36 57
3 37 38 58
3 38 56 58
3 37 58 55
3 39 40 59
3 42 39 59
3 40 53 60
3 59 40 60
3 41 42 61
3 57 41 61
3 42 59 62
3 61 42 62
3 43 63 54
3 46 44 64
3 64 44 51
3 48 45 65
3 65 45 46
3 65 46 66
3 66 46 64
3 49 47 67
3 67 47 48
3 67 48 68
3 68 48 65
3 69 49 70
3 70 49 67
3 52 55 72
3 64 51 73
3 51 50 73
3 50 52 73
3 73 52 74
3 74 52 72
3 53 54 75
3 60 53 75
3 54 63 76
3 54 76 77
3 75 54 77
3 55 58 78
3 72 55 78
3 72 78 79
3 56 57 80
3 57 61 80
3 56 80 58
3 58 80 81
3 78 58 81
3 59 60 82
3 62 59 82
3 60 75 83
3 82 60 83
3 61 62 84
3 62 82 84
3 61 84 80
3 63 85 76
3 66 64 86
3 64 73 86
3 68 65 87
3 87 65 66
3 87 66 86
3 70 67 88
3 88 67 68
3 88 68 89
3 89 68 87
3 71 69 90
3 90 69 70
3 90 70 91
3 91 70 88
3 92 71 93
3 93 71 90
3 74 72 94
3 94 72 79
3 86 73 95
3 95 73 74
3 95 74 96
3 96 74 94
3 97 86 95
3 76 85 99
3 75 77 100
3 83 75 100
3 76 99 101
3 77 76 101
3 77 101 102
3 100 77 102
3 94 79 103
3 78 81 104
3 79 78 104
3 79 104 103
3 80 84 105
3 81 80 105
3 81 105 106
3 104 81 106
3 82 83 107
3 83 100 107
3 82 107 84
3 84 107 108
3 105 84 108
3 85 109 99
3 89 87 110
3 87 86 110
3 110 86 97
3 91 88 111
3 111 88 89
3 111 89 110
3 93 90 112
3 112 90 91
3 112 91 113
3 113 91 111
3 98 92 114
3 114 92 93
3 114 93 115
3 115 93 112
3 116 98 114
3 117 103 118
3 96 94 119
3 94 103 119
3 119 103 117
3 97 95 120
3 120 95 96
3 120 96 119
3 121 110 97
3 121 97 122
3 122 97 120
3 123 119 117
3 124 98 116
3 99 109 125
3 99 125 126
3 101 99 126
3 100 102 127
3 100 127 107
3 101 126 128
3 102 101 128
3 102 128 127
3 104 106 129
3 104 129 103
3 103 129 118
3 105 108 130
3 106 105 130
3 106 130 129
3 107 127 131
3 108 107 131
3 108 131 132
3 108 132 130
3 109 134 125
3 125 134 133
3 113 111 135
3 111 110 135
3 135 110 121
3 115 112 136
3 136 112 113
3 136 113 135
3 116 114 137
3 137 114 115
3 137 115 138
3 138 115 136
3 139 124 116
3 139 116 140
3 140 116 137
3 141 135 121
3 118 129 142
3 118 142 143
3 117 118 143
3 123 117 143
3 122 120 144
3 120 119 144
3 144 119 123
3 141 121 145
3 145 121 122
3 145 122 144
3 146 141 145
3 147 144 123
3 147 123 148
3 143 148 123
3 150 124 139
3 149 150 139
3 131 127 151
3 125 133 152
3 126 125 152
3 126 152 153
3 128 126 153
3 128 153 154
3 128 154 127
3 127 154 151
3 152 133 155
3 130 132 156
3 130 156 129
3 129 156 142
3 131 151 157
3 132 131 157
3 132 157 156
3 156 158 142
3 157 151 159
3 133 160 155
3 134 161 133
3 133 161 160
3 138 136 162
3 136 135 162
3 162 135 141
3 140 137 163
3 163 137 138
3 163 138 162
3 149 139 164
3 164 139 140
3 164 140 165
3 165 140 163
3 166 149 164
3 167 162 141
3 167 141 146
3 142 158 168
3 143 142 168
3 143 168 148
3 146 145 169
3 145 144 169
3 169 144 147
3 170 167 146
3 170 146 169
3 171 169 147
3 171 147 148
3 171 148 172
3 168 172 148
3 173 149 166
3 174 150 149
3 173 174 149
3 154 175 151
3 151 175 159
3 152 155 176
3 153 152 176
3 153 176 177
3 153 177 154
3 154 177 175
3 155 160 178
3 155 178 179
3 176 155 179
3 156 157 180
3 156 180 158
3 157 159 181
3 157 181 180
3 158 180 182
3 158 182 168
3 159 175 183
3 159 183 181
3 175 184 183
3 160 186 178
3 178 186 185
3 161 187 160
3 160 187 186
3 165 163 188
3 163 162 188
3 188 162 167
3 166 164 189
3 189 164 165
3 189 165 188
3 190 173 166
3 190 166 191
3 191 166 189
3 192 188 167
3 192 167 170
3 193 192 170
3 182 194 168
3 194 172 168
3 193 170 195
3 170 169 195
3 195 169 171
3 196 195 171
3 196 171 172
3 194 197 172
3 197 198 172
3 198 196 172
3 200 173 190
3 199 200 190
3 201 174 173
3 200 201 173
3 176 179 202
3 177 176 202
3 177 202 175
3 175 202 184
3 178 185 203
3 178 203 179
3 179 203 202
3 203 185 204
3 202 205 184
3 183 206 181
3 180 181 206
3 180 206 182
3 182 206 194
3 183 184 207
3 205 207 184
3 183 207 206
3 185 208 204
3 186 209 185
3 185 209 208
3 187 210 186
3 186 210 209
3 191 189 211
3 189 188 211
3 211 188 192
3 199 190 212
3 212 190 191
3 212 191 211
3 213 199 212
3 214 211 192
3 214 192 193
3 215 214 193
3 215 193 195
3 206 216 194
3 216 197 194
3 216 217 197
3 215 195 218
3 218 195 196
3 198 218 196
3 217 219 197
3 219 218 198
3 197 219 198
3 220 199 213
3 221 200 199
3 220 221 199
3 222 201 200
3 221 222 200
3 203 204 223
3 203 223 202
3 202 223 205
3 204 208 224
3 204 224 223
3 205 223 225
3 205 225 207
3 207 225 226
3 207 226 206
3 226 216 206
3 208 228 224
3 224 228 227
3 209 229 208
3 229 228 208
3 210 230 209
3 209 230 229
3 213 212 231
3 212 211 231
3 231 211 214
3 232 220 213
3 232 213 231
3 233 231 214
3 233 214 215
3 234 233 215
3 234 215 218
3 226 235 216
3 235 217 216
3 235 236 217
3 217 236 219
3 237 234 218
3 237 218 219
3 236 238 219
3 238 237 219
3 240 220 232
3 239 240 232
3 241 221 220
3 240 241 220
3 242 222 221
3 241 242 221
3 224 227 243
3 224 243 223
3 223 243 225
3 225 243 244
3 225 244 226
3 226 244 235
3 227 245 243
3 228 246 227
3 227 246 245
3 229 247 228
3 228 247 246
3 230 248 229
3 229 248 247
3 239 232 249
3 232 231 249
3 249 231 233
3 250 249 233
3 250 233 234
3 237 250 234
3 244 251 235
3 235 251 236
3 251 252 236
3 236 252 238
3 252 253 238
3 253 250 237
3 253 237 238
3 254 239 249
3 255 240 239
3 254 255 239
3 256 241 240
3 255 256 240
3 257 242 241
3 256 257 241
3 245 258 243
3 243 258 244
3 244 258 251
3 245 259 258
3 246 260 245
3 245 260 259
3 247 261 246
3 246 261 260
3 248 262 247
3 247 262 261
3 254 249 263
3 263 249 250
3 253 263 250
3 258 264 251
3 251 264 252
3 264 265 252
3 265 263 253
3 252 265 253
3 266 254 263
3 267 255 254
3 266 267 254
3 268 256 255
3 267 268 255
3 269 257 256
3 268 269 256
3 259 270 258
3 270 264 258
3 260 271 259
3 259 271 270
3 261 272 260
3 260 272 271
3 262 273 261
3 273 272 261
3 270 274 264
3 275 266 263
3 275 263 265
3 274 276 264
3 276 265 264
3 276 277 265
3 277 275 265
3 278 267 266
3 275 278 266
3 279 268 267
3 278 279 267
3 280 269 268
3 279 280 268
3 271 281 270
3 270 281 274
3 272 282 271
3 271 282 281
3 273 283 272
3 272 283 282
3 281 284 274
3 274 284 276
3 285 278 275
3 277 285 275
3 284 286 276
3 286 285 277
3 276 286 277
3 287 279 278
3 285 287 278
3 288 280 279
3 287 288 279
3 282 289 281
3 281 289 284
3 283 290 282
3 282 290 289
3 289 291 284
3 284 291 286
3 291 292 286
3 292 287 285
3 286 292 285
3 293 288 287
3 292 293 287
3 290 294 289
3 289 294 291
3 294 295 291
3 295 293 292
3 291 295 292
CELL_TYPES 542
5
5
5
5
5
5
5
5
5
5
5
5
5
5
5
5
5
5
5
5
5
5
5
5
5
5
5
5
5
5
5
5
5
5
5
5
5
5
5
5
5
5
5
5
5
5
5
5
5
5
5
5
5
5
5
5
5
5
5
5
5
5
5
5
5
5
5
5
5
5
5
5
5
5
5
5
5
5
5
5
5
5
5
5
5
5
5
5
5
5
5
5
5
5
5
5
5
5
5
5
5
5
5
5
5
5
5
5
5
5
5
5
5
5
5
5
5
5
5
5
5
5
5
5
5
5
5
5
5
5
5
5
5
5
5
5
5
5
5
5
5
5
5
5
5
5
5
5
5
5
5
5
5
5
5
5
5
5
5
5
5
5
5
5
5
5
5
5
5
5
5
5
5
5
5
5
5
5
5
5
5
5
5
5
5
5
5
5
5
5
5
5
5
5
5
5
5
5
5
5
5
5
5
5
5
5
5
5
5
5
5
5
5
5
5
5
5
5
5
5
5
5
5
5
5
5
5
5
5
5
5
5
5
5
5
5
5
5
5
5
5
5
5
5
5
5
5
5
5
5
5
5
5
5
5
5
5
5
5
5
5
5
5
5
5
5
5
5
5
5
5
5
5
5
5
5
5
5
5
5
5
5
5
5
5
5
5
5
5
5
5
5
5
5
5
5
5
5
5
5
5
5
5
5
5
5
5
5
5
5
5
5
5
5
5
5
5
5
5
5
5
5
5
5
5
5
5
5
5
5
5
5
5
5
5
5
5
5
5
5
5
5
5
5
5
5
5
5
5
5
5
5
5
5
5
5
5
5
5
5
5
5
5
5
5
5
5
5
5
5
5
5
5
5
5
5
5
5
5
5
5
5
5
5
5
5
5
5
5
5
5
5
5
5
5
5
5
5
5
5
5
5
5
5
5
5
5
5
5
5
5
5
5
5
5
5
5
5
5
5
5
5
5
5
5
5
5
5
5
5
5
5
5
5
5
5
5
5
5
5
5
5
5
5
5
5
5
5
5
5
5
5
5
5
5
5
5
5
5
5
5
5
5
5
5
5
5
5
5
5
5
5
5
5
5
5
5
5
5
5
5
5
5
5
5
5
5
5
5
5
5
5
5
5
5
5
5
5
5
5
5
5
5
5
5
5
5
5
5
5
5
5
5
5
5
5
5
5
5
5
5
5
5
5
5
5
5
5
5
5
5
5
5
5
5
5
5
5
5
5
5
5
POINT_DATA 296
SCALARS concentrations float 4
LOOKUP_TABLE default
0 0.963122 0.154381 240.669
0 0.963028 0.15551 279.907
0 0.963093 0.155067 256.081
0 0.962876 0.155441 284.659
0 0.963053 0.0913566 3.3124
0 0.963219 0.151121 225.207
0 0.963498 0.152573 219.991
0 0.963011 0.091412 2.97761
0 0.963043 0.0914738 2.98468
0 0.963174 0.154257 245.498
0 0.962757 0.151876 362.043
0 0.962854 0.15221 277.556
0 0.962879 0.153219 271.187
0 0.962933 0.0912969 1.94761
0 0.962837 0.0913328 1.03055
0 0.962893 0.0911507 0.945384
0 0.962924 0.091157 0.80613
0 0.963266 0.0918491 4.94651
0 0.963255 0.0921071 5.85946
0 0.962948 0.0911043 0.278265
0 0.96302 0.0912196 1.7587
0 0.96284 0.155695 134.866
0 0.962634 0.153907 385.329
0 0.962895 0.0916135 3.95036
0 0.962772 0.0916848 0.369991
0 0.962857 0.0915066 1.67662
0 0.962922 0.149186 130.064
0 0.962884 0.0917109 2.77498
0 0.962883 0.152725 351.649
0 0.962848 0.0911558 0.504558
0 0.962836 0.0911924 0.724878
0 0.962853 0.0911365 0.217474
0 0.962354 0.153425 215.933
0 0.96287 0.0911235 0.274189
0 0.962887 0.0911108 0.227866
0 0.963055 0.0913251 2.75641
0 0.962952 0.0913597 2.5309
0 0.962909 0.0910697 0.438781
0 0.962941 0.0911217 1.21339
0 0.96275 0.0916352 2.60582
0 0.962518 0.0915742 3.64593
0 0.962823 0.091241 1.59147
0 0.962747 0.0911312 1.3383
0 0.96223 0.151823 413.187
0 0.962859 0.0911927 0.884239
0 0.962897 0.0916326 4.64885
0 0.962867 0.0911514 1.39126
0 0.962673 0.151275 275.365
0 0.962774 0.0913624 4.17496
0 0.96259 0.154118 313.668
0 0.962852 0.0911486 0.737564
0 0.962856 0.0911431 0.959763
0 0.962882 0.0911116 1.0126
0 0.962378 0.0915749 3.90172
0 0.962351 0.0916089 2.88215
0 0.96289 0.0911148 0.727149
0 0.962914 0.0911311 1.14335
0 0.962863 0.0911529 1.16119
0 0.962901 0.0910439 0.514935
0 0.962681 0.0911504 2.13184
0 0.962585 0.0911745 1.93092
0 0.962822 0.0910941 1.00292
0 0.962769 0.0910847 1.40157
0 0.962301 0.148867 281.319
0 0.962872 0.0910938 0.876563
0 0.962829 0.091156 1.83902
0 0.96286 0.0910873 0.75725
0 0.962652 0.0913648 5.02829
0 0.962748 0.0911479 2.54335
0 0.962434 0.153052 319.625
0 0.96256 0.0913804 5.48392
0 0.962515 0.149786 162.269
0 0.962922 0.0910809 0.865613
0 0.962891 0.091097 1.26771
0 0.96293 0.0910824 1.11689
0 0.962569 0.0912073 1.02333
0 0.962591 0.0915941 3.5703
0 0.962654 0.0912523 0.494707
0 0.962925 0.0910679 0.617325
0 0.962976 0.0910726 0.646563
0 0.962883 0.0910468 0.56763
0 0.962926 0.0910449 0.519899
0 0.962758 0.09108 1.00798
0 0.962718 0.0911184 0.630162
0 0.962859 0.091043 0.760597
0 0.962767 0.151346 184.835
0 0.962893 0.091098 1.21576
0 0.962836 0.0910916 0.645232
0 0.962681 0.0911319 2.12465
0 0.962789 0.0911044 0.83562
0 0.962512 0.0913102 2.15977
0 0.962652 0.091142 1.41173
0 0.962792 0.150527 301.505
0 0.962668 0.0913147 2.83557
0 0.962993 0.0910669 0.81028
0 0.962939 0.0910883 1.16721
0 0.962992 0.0910759 1.00916
0 0.962943 0.0910993 1.27176
0 0.962859 0.154073 316.951
0 0.96291 0.0916615 3.05763
0 0.962774 0.0911528 0.259262
0 0.962813 0.0912829 1.58862
0 0.962828 0.0911874 0.71381
0 0.96304 0.0910461 0.747204
0 0.962989 0.0910518 0.623038
0 0.962926 0.0910467 0.59107
0 0.962984 0.0910463 0.617022
0 0.962861 0.0910588 0.285854
0 0.962932 0.0910367 0.669088
0 0.962964 0.150408 162.796
0 0.962878 0.0910837 0.829284
0 0.962787 0.0911023 0.132453
0 0.962682 0.0911381 0.386404
0 0.962768 0.0911141 0.194926
0 0.962825 0.0913342 4.68161
0 0.962754 0.0911198 1.35427
0 0.962727 0.0914849 4.89967
0 0.963092 0.0910377 0.837495
0 0.963091 0.0910286 0.784951
0 0.963051 0.0910538 0.883624
0 0.963012 0.0910768 1.09564
0 0.962944 0.0910684 0.930308
0 0.963009 0.0910878 1.1746
0 0.963115 0.0910355 0.963404
0 0.962596 0.150413 180.606
0 0.96287 0.0915604 3.83969
0 0.962902 0.091214 1.41653
0 0.962911 0.0910942 0.323176
0 0.962906 0.0911459 0.784332
0 0.963048 0.0910359 0.796481
0 0.963004 0.0910344 0.708849
0 0.962959 0.0910356 0.443171
0 0.96301 0.091026 0.694499
0 0.962749 0.0914868 5.21217
0 0.96274 0.150145 385.399
0 0.962878 0.0910676 0.755069
0 0.962811 0.0910953 0.589004
0 0.962765 0.0911338 1.24494
0 0.962813 0.0910933 0.575359
0 0.962542 0.0914016 1.58235
0 0.962694 0.0911403 0.83228
0 0.962955 0.091053 0.669332
0 0.963113 0.0910169 0.784209
0 0.963136 0.0910126 0.846964
0 0.963073 0.0910559 1.07495
0 0.963032 0.0910687 1.045
0 0.963031 0.0910721 1.10372
0 0.963128 0.0910298 1.03923
0 0.963155 0.0910025 0.873095
0 0.962418 0.0913423 0.90019
0 0.962415 0.154568 305.966
0 0.96299 0.0910316 0.265772
0 0.962873 0.0911567 1.61084
0 0.96293 0.0910918 0.830748
0 0.962963 0.0910645 0.221495
0 0.962789 0.091312 2.49274
0 0.963069 0.0910191 0.747707
0 0.963041 0.0910214 0.557371
0 0.963125 0.0910114 0.684351
0 0.96304 0.0910309 0.244345
0 0.962605 0.0920778 6.9987
0 0.962653 0.152922 171.595
0 0.962889 0.0910521 0.492604
0 0.962815 0.0910927 0.217612
0 0.962608 0.0911394 0.778711
0 0.962761 0.0911075 0.550792
0 0.962552 0.0911345 1.28877
0 0.962957 0.0910671 0.969219
0 0.963156 0.0909948 0.694589
0 0.963093 0.0910511 1.19109
0 0.963047 0.0910939 1.40774
0 0.963145 0.0910083 0.891761
0 0.963165 0.0909896 0.674292
0 0.962405 0.091299 2.79022
0 0.962303 0.150153 245.834
0 0.963004 0.0910288 0.222189
0 0.962908 0.0910895 1.0066
0 0.962964 0.0910345 0.317704
0 0.96274 0.0914038 1.67323
0 0.962867 0.0911947 1.30658
0 0.963101 0.0910178 0.585641
0 0.963084 0.0910211 0.370229
0 0.963141 0.091009 0.53254
0 0.963065 0.0910302 0.133414
0 0.963018 0.09104 0.202466
0 0.962728 0.0914192 1.22006
0 0.9626 0.0919611 4.76049
0 0.962442 0.14525 312.023
0 0.962873 0.0910707 0.826513
0 0.962746 0.0910952 0.957394
0 0.962549 0.0911702 2.38988
0 0.962694 0.0911003 1.28562
0 0.962949 0.0910903 1.23722
0 0.963035 0.0910859 1.20126
0 0.963153 0.0909959 0.43959
0 0.963104 0.0910348 0.97932
0 0.963147 0.0910021 0.6828
0 0.963151 0.091 0.369377
0 0.96315 0.090998 0.492675
0 0.962533 0.0911753 2.9852
0 0.962556 0.0915907 6.71252
0 0.962462 0.151314 279.08
0 0.96295 0.0910554 0.58627
0 0.962858 0.0912253 1.24715
0 0.962825 0.0912499 1.12796
0 0.962991 0.0910538 0.421816
0 0.963109 0.0910339 0.390144
0 0.963058 0.0910572 0.0190654
0 0.962731 0.0913262 0.468314
0 0.962654 0.0916055 3.09266
0 0.96265 0.153051 203.446
0 0.96284 0.0910753 1.21174
0 0.9627 0.0910848 1.47618
0 0.962633 0.0910955 1.28112
0 0.962933 0.0910784 1.09739
0 0.963043 0.0910517 0.798788
0 0.963122 0.0910218 0.221489
0 0.963115 0.091028 0.218837
0 0.963105 0.0910126 0.486733
0 0.963111 0.0910153 0.159102
0 0.962414 0.0912406 2.4648
0 0.962473 0.0915916 7.07357
0 0.962634 0.153103 376.664
0 0.962923 0.091104 0.790983
0 0.962841 0.0911427 0.844912
0 0.962995 0.0910917 0.142988
0 0.96307 0.0910691 0.112771
0 0.962822 0.0911035 0.607728
0 0.962746 0.0912787 0.754521
0 0.962637 0.0916755 1.15913
0 0.962549 0.153248 343.671
0 0.962814 0.0910611 0.929395
0 0.962634 0.0910972 0.627263
0 0.962927 0.0910458 0.569775
0 0.96303 0.0910417 0.408726
0 0.963064 0.0910505 0.211452
0 0.96306 0.0910416 0.192486
0 0.963049 0.0910336 0.0975315
0 0.963045 0.0910377 0.169392
0 0.962598 0.0911676 1.70833
0 0.962334 0.0912802 2.08972
0 0.962117 0.0916561 5.38078
0 0.962257 0.149898 290.694
0 0.962916 0.0910972 0.405574
0 0.962996 0.0910859 0.224599
0 0.96283 0.091107 1.06951
0 0.962737 0.0911988 1.75918
0 0.962772 0.0917813 3.81783
0 0.962716 0.152946 265.946
0 0.962811 0.0910284 0.185764
0 0.962938 0.0910274 0.0824463
0 0.962994 0.0910601 0.324544
0 0.962982 0.0910377 0.32713
0 0.962965 0.0910309 0.339825
0 0.962692 0.0911075 1.28978
0 0.962398 0.0913313 2.76107
0 0.962056 0.0916363 3.98164
0 0.961855 0.150034 385.208
0 0.962919 0.0910802 0.685466
0 0.962811 0.0911599 1.70902
0 0.962705 0.0912252 2.70406
0 0.962625 0.091593 3.53228
0 0.962759 0.153666 240.639
0 0.962862 0.0910269 0.190614
0 0.962923 0.0910857 0.574437
0 0.96291 0.0910589 0.54299
0 0.962738 0.0910795 0.694353
0 0.962563 0.0912579 2.40357
0 0.962314 0.0916856 4.89307
0 0.962058 0.151162 221.904
0 0.962847 0.0911666 1.31224
0 0.962734 0.0912687 3.30275
0 0.962601 0.0914827 6.19626
0 0.96247 0.148983 318.18
0 0.962844 0.0911723 0.614351
0 0.962814 0.0910621 0.36669
0 0.962857 0.091127 0.516957
0 0.962827 0.0911061 1.01956
0 0.962686 0.0911243 1.13918
0 0.962615 0.0917397 8.53106
0 0.962436 0.150324 301.854
0 0.962763 0.0912891 2.43882
0 0.962732 0.0918399 7.48134
0 0.962691 0.152024 348.028
0 0.962761 0.0912024 0.970799
0 0.962728 0.0911362 1.89681
0 0.962744 0.0911615 1.46715
0 0.962672 0.0915707 7.35972
0 0.962713 0.148626 325.194
0 0.962677 0.0917853 5.35309
0 0.962683 0.149181 212.638
0 0.962656 0.0914553 2.91458
0 0.962616 0.0914469 3.29009
0 0.96257 0.14656 204.022
0 0.962613 0.15013 246.806
0 0.962582 0.150305 240.629
VECTORS fa_u float
0.00726119 0.00301108 -0
0.00471801 0.00272392 -0
0.00554758 0.00148342 -0
0.00660478 0.000897258 -0
1e-08 0 0
0.00585122 0.00446404 -0
0.00432913 0.0043105 -0
1e-08 0 0
1e-08 0 0
0.00412851 0.00533054 -0
0.00321338 0.00549673 -0
0.0062588 3.78626e-05 -0
0.00636159 -0.000777715 0
1e-08 0 0
1e-08 0 0
1e-08 0 0
1e-08 0 0
1e-08 0 0
1e-08 0 0
1e-08 0 0
1e-08 0 0
0.0030694 0.00740044 -0
0.00156902 0.00593867 -0
1e-08 0 0
1e-08 0 0
1e-08 0 0
0.00850638 -0.00227353 0
1e-08 0 0
0.00579816 -0.00245404 0
1e-08 0 0
1e-08 0 0
1e-08 0 0
0.000920564 0.00720858 -0
1e-08 0 0
1e-08 0 0
1e-08 0 0
1e-08 0 0
1e-08 0 0
1e-08 0 0
1e-08 0 0
1e-08 0 0
1e-08 0 0
1e-08 0 0
-2.63263e-05 0.00613321 -0
1e-08 0 0
1e-08 0 0
1e-08 0 0
0.00585794 -0.00343469 0
1e-08 0 0
0.00500764 -0.00388807 0
1e-08 0 0
1e-08 0 0
1e-08 0 0
1e-08 0 0
1e-08 0 0
1e-08 0 0
1e-08 0 0
1e-08 0 0
1e-08 0 0
1e-08 0 0
1e-08 0 0
1e-08 0 0
1e-08 0 0
-0.000912919 0.00679155 0
1e-08 0 0
1e-08 0 0
1e-08 0 0
1e-08 0 0
1e-08 0 0
0.0042404 -0.00424868 0
1e-08 0 0
0.00362975 -0.00467059 0
1e-08 0 0
1e-08 0 0
1e-08 0 0
1e-08 0 0
1e-08 0 0
1e-08 0 0
1e-08 0 0
1e-08 0 0
1e-08 0 0
1e-08 0 0
1e-08 0 0
1e-08 0 0
1e-08 0 0
-0.00147112 0.00551827 0
1e-08 0 0
1e-08 0 0
1e-08 0 0
1e-08 0 0
1e-08 0 0
1e-08 0 0
0.00369553 -0.00630141 0
1e-08 0 0
1e-08 0 0
1e-08 0 0
1e-08 0 0
1e-08 0 0
0.00286133 -0.00691567 0
1e-08 0 0
1e-08 0 0
1e-08 0 0
1e-08 0 0
1e-08 0 0
1e-08 0 0
1e-08 0 0
1e-08 0 0
1e-08 0 0
1e-08 0 0
-0.00280757 0.00682923 0
1e-08 0 0
1e-08 0 0
1e-08 0 0
1e-08 0 0
1e-08 0 0
1e-08 0 0
1e-08 0 0
1e-08 0 0
1e-08 0 0
1e-08 0 0
1e-08 0 0
1e-08 0 0
1e-08 0 0
1e-08 0 0
0.001757 -0.00671232 0
1e-08 0 0
1e-08 0 0
1e-08 0 0
1e-08 0 0
1e-08 0 0
1e-08 0 0
1e-08 0 0
1e-08 0 0
1e-08 0 0
-0.00340978 0.00588288 0
1e-08 0 0
1e-08 0 0
1e-08 0 0
1e-08 0 0
1e-08 0 0
1e-08 0 0
1e-08 0 0
1e-08 0 0
1e-08 0 0
1e-08 0 0
1e-08 0 0
1e-08 0 0
1e-08 0 0
1e-08 0 0
1e-08 0 0
0.000643281 -0.00479218 0
1e-08 0 0
1e-08 0 0
1e-08 0 0
1e-08 0 0
1e-08 0 0
1e-08 0 0
1e-08 0 0
1e-08 0 0
1e-08 0 0
1e-08 0 0
-0.00418964 0.00542155 0
1e-08 0 0
1e-08 0 0
1e-08 0 0
1e-08 0 0
1e-08 0 0
1e-08 0 0
1e-08 0 0
1e-08 0 0
1e-08 0 0
1e-08 0 0
1e-08 0 0
1e-08 0 0
4.04611e-05 -0.0081626 0
1e-08 0 0
1e-08 0 0
1e-08 0 0
1e-08 0 0
1e-08 0 0
1e-08 0 0
1e-08 0 0
1e-08 0 0
1e-08 0 0
1e-08 0 0
1e-08 0 0
1e-08 0 0
-0.00379777 0.00381495 0
1e-08 0 0
1e-08 0 0
1e-08 0 0
1e-08 0 0
1e-08 0 0
1e-08 0 0
1e-08 0 0
1e-08 0 0
1e-08 0 0
1e-08 0 0
1e-08 0 0
1e-08 0 0
1e-08 0 0
-0.000792875 -0.0060501 0
1e-08 0 0
1e-08 0 0
1e-08 0 0
1e-08 0 0
1e-08 0 0
1e-08 0 0
1e-08 0 0
1e-08 0 0
-0.00535482 0.00417887 0
1e-08 0 0
1e-08 0 0
1e-08 0 0
1e-08 0 0
1e-08 0 0
1e-08 0 0
1e-08 0 0
1e-08 0 0
1e-08 0 0
1e-08 0 0
1e-08 0 0
-0.00174111 -0.00656531 0
1e-08 0 0
1e-08 0 0
1e-08 0 0
1e-08 0 0
1e-08 0 0
1e-08 0 0
1e-08 0 0
-0.00578147 0.00339369 0
1e-08 0 0
1e-08 0 0
1e-08 0 0
1e-08 0 0
1e-08 0 0
1e-08 0 0
1e-08 0 0
1e-08 0 0
1e-08 0 0
1e-08 0 0
1e-08 0 0
-0.00275819 -0.00664333 0
1e-08 0 0
1e-08 0 0
1e-08 0 0
1e-08 0 0
1e-08 0 0
-0.00787119 0.00324421 0
1e-08 0 0
1e-08 0 0
1e-08 0 0
1e-08 0 0
1e-08 0 0
1e-08 0 0
1e-08 0 0
1e-08 0 0
-0.0031578 -0.0054487 0
1e-08 0 0
1e-08 0 0
1e-08 0 0
1e-08 0 0
-0.0053658 0.00141062 0
1e-08 0 0
1e-08 0 0
1e-08 0 0
1e-08 0 0
1e-08 0 0
1e-08 0 0
-0.00483142 -0.00622186 0
1e-08 0 0
1e-08 0 0
1e-08 0 0
-0.00717089 0.00093028 0
1e-08 0 0
1e-08 0 0
1e-08 0 0
1e-08 0 0
1e-08 0 0
1e-08 0 0
-0.00352275 -0.00350462 0
1e-08 0 0
1e-08 0 0
-0.00634146 -2.00826e-05 0
1e-08 0 0
1e-08 0 0
1e-08 0 0
1e-08 0 0
-0.00588134 -0.00453776 0
1e-08 0 0
-0.00670261 -0.000897872 0
1e-08 0 0
1e-08 0 0
-0.00571169 -0.00329129 0
-0.00581467 -0.00155468 0
-0.00645286 -0.00265638 0
