# vtk DataFile Version 2.0
CellBP Time: 8.8
ASCII
DATASET UNSTRUCTURED_GRID
POINTS 296 double
-8.92687 -3.66231 0
-8.35967 -4.80255 0
-9.32821 -2.45321 0
-9.59136 -1.21486 0
-8.25905 -2.7748 0
-7.656 -5.86604 0
-6.80871 -6.81735 0
-7.81897 -3.81967 0
-7.24917 -4.80731 0
-5.86557 -7.66489 0
-4.82042 -8.3786 0
-9.67013 0.0467018 0
-9.60314 1.31618 0
-8.56651 -1.6583 0
-8.70198 -0.521604 0
-7.49404 -1.96934 0
-7.12763 -2.8584 0
-6.562 -5.71901 0
-5.76429 -6.53825 0
-6.69618 -3.83087 0
-6.13898 -4.61707 0
-3.68028 -8.94397 0
-2.47027 -9.35228 0
-4.86647 -7.25191 0
-3.891 -7.83153 0
-8.71517 0.634092 0
-9.36736 2.57284 0
-8.55359 1.75384 0
-8.9484 3.77551 0
-7.65524 -0.910863 0
-7.71146 0.0832488 0
-6.86711 -1.292 0
-1.21544 -9.59763 0
-6.36347 -2.1204 0
-6.24009 -3.01135 0
-5.47116 -5.41671 0
-4.74581 -6.05885 0
-5.58875 -3.70879 0
-5.20176 -4.50681 0
-2.84873 -8.30382 0
-1.76344 -8.57472 0
-3.8947 -6.66852 0
-3.03827 -7.09915 0
0.0524456 -9.67586 0
-7.6285 1.13112 0
-8.27944 2.89366 0
-7.48055 2.08676 0
-8.37689 4.91182 0
-7.81112 3.94185 0
-7.6574 5.96357 0
-6.70094 -0.387087 0
-6.87899 0.549943 0
-5.71292 -0.991064 0
-0.585091 -8.736 0
0.555565 -8.68657 0
-5.24838 -2.44982 0
-4.43662 -5.04048 0
-3.86021 -5.72044 0
-4.39318 -3.76507 0
-2.04685 -7.50309 0
-1.12693 -7.72014 0
-2.96673 -6.04882 0
-2.29297 -6.56672 0
1.31407 -9.58086 0
-6.62146 1.4055 0
-7.10002 3.08401 0
-6.59259 2.34688 0
-7.22272 4.93794 0
-6.64991 3.95852 0
-6.81602 6.91261 0
-6.50643 5.83136 0
-5.86016 7.7514 0
-4.42215 -1.17407 0
-5.76171 0.50484 0
-4.62463 -0.0170938 0
0.00154106 -7.77178 0
1.71186 -8.54957 0
0.928695 -7.67885 0
-4.00999 -2.38591 0
-3.47436 -1.38693 0
-3.26543 -4.76248 0
-3.24738 -3.24294 0
-1.37195 -6.61547 0
-0.512502 -6.95595 0
-1.96192 -5.49346 0
2.55936 -9.32719 0
-5.45718 2.01894 0
-6.03325 3.03749 0
-6.04221 4.81402 0
-5.70159 3.94323 0
-5.70191 6.64272 0
-5.39467 5.55356 0
-4.81615 8.47712 0
-4.7868 7.32034 0
-3.48652 -0.423202 0
-4.41579 1.23949 0
-3.68997 0.588763 0
-4.02975 2.30904 0
-3.68215 9.0479 0
2.81876 -8.22958 0
0.402042 -6.71872 0
1.98585 -7.43245 0
1.27674 -6.82049 0
-2.4388 -0.869174 0
-2.82908 -2.12061 0
-2.28273 -4.06784 0
-2.31604 -2.95548 0
-0.44596 -5.80445 0
-1.21311 -4.4678 0
3.76744 -8.92856 0
-4.7445 3.35911 0
-5.03469 4.53957 0
-4.59632 6.20566 0
-4.49023 5.29536 0
-3.80863 7.91473 0
-3.7826 6.76078 0
-2.75369 8.33487 0
-1.64654 -0.133646 0
-1.4469 -0.886552 0
-2.48391 0.511095 0
-3.23495 1.44069 0
-3.21413 3.29371 0
-2.89335 2.36645 0
-1.35484 0.631253 0
-2.47189 9.44473 0
3.87897 -7.78816 0
2.91376 -7.05712 0
0.933297 -5.75585 0
2.03623 -6.3308 0
-1.677 -1.98545 0
-1.42664 -3.25845 0
0.0862471 -4.70585 0
-0.559877 -3.67272 0
4.87068 -7.22503 0
4.90486 -8.36433 0
-3.74109 4.50522 0
-3.69539 5.68578 0
-2.85334 7.20465 0
-2.97715 6.28129 0
-1.6447 8.65067 0
-1.91614 7.53931 0
-2.32286 4.02157 0
-0.728517 -1.32375 0
-0.836379 -0.25392 0
-1.93387 1.68395 0
-2.11677 2.86646 0
-1.30366 3.52834 0
-0.871895 1.35474 0
-0.284674 0.459306 0
-0.527417 8.79615 0
-1.21939 9.68529 0
1.09699 -4.52909 0
3.84824 -6.61482 0
2.94032 -6.0091 0
2.08484 -5.35734 0
4.72232 -6.11621 0
-0.554951 -2.4676 0
0.493252 -3.44208 0
0.0541955 -1.60754 0
1.46648 -3.64939 0
5.803 -6.53197 0
5.95954 -7.65173 0
-2.45321 5.29596 0
-2.10495 6.46347 0
-0.891246 7.72982 0
-1.25328 6.85986 0
0.0886991 7.81355 0
-1.13823 4.46324 0
0.148817 -0.614704 0
-0.801712 2.48916 0
-0.337236 3.58834 0
0.058187 1.51463 0
0.736675 0.474545 0
0.640677 8.80716 0
0.0469705 9.77881 0
2.35129 -4.23591 0
3.80579 -5.55899 0
2.95908 -5.14303 0
5.51383 -5.42053 0
4.63268 -5.20535 0
0.630085 -2.28859 0
1.24765 -2.93295 0
0.755815 -1.38917 0
2.14517 -3.1095 0
2.9644 -3.44039 0
6.09756 -4.73581 0
6.59419 -5.70622 0
6.92323 -6.81551 0
-1.0078 5.76727 0
-0.36264 6.81814 0
1.11486 7.7108 0
0.557879 7.02009 0
-0.00362224 4.69562 0
0.598984 3.81021 0
1.33465 -0.641331 0
0.531882 2.64526 0
0.958955 1.5749 0
1.90315 0.212703 0
1.60695 1.06393 0
2.1166 7.52925 0
1.78742 8.65017 0
1.31869 9.70105 0
3.77942 -4.29538 0
5.06096 -4.38645 0
5.79162 -3.88697 0
3.74948 -3.16715 0
1.80469 -1.87911 0
2.99632 -2.55515 0
6.72871 -3.90959 0
7.32295 -4.85273 0
7.76447 -5.86392 0
0.482085 5.83516 0
1.42015 6.69014 0
2.36024 6.62093 0
1.20033 4.5295 0
1.47855 3.38114 0
2.42461 -0.690348 0
2.8147 0.142778 0
1.7793 2.15735 0
2.60167 1.14695 0
3.05397 7.11915 0
2.88897 8.31911 0
2.57395 9.45951 0
4.86567 -3.28717 0
6.06974 -3.0743 0
4.14179 -2.2578 0
3.22491 -1.4966 0
6.68315 -2.29555 0
7.18081 -3.02083 0
7.90999 -3.88707 0
8.48163 -4.82012 0
2.01185 5.56038 0
3.05802 6.10431 0
2.35219 4.10037 0
2.40871 3.04438 0
3.50534 -0.456901 0
3.5963 0.614257 0
2.94632 2.27646 0
3.5231 1.51811 0
3.96919 5.84658 0
3.95102 6.74043 0
3.95157 7.88456 0
3.7827 9.04697 0
5.52803 -1.90018 0
4.47944 -1.12091 0
6.66234 -1.32463 0
7.5384 -2.02019 0
8.33976 -2.8428 0
9.04979 -3.68349 0
3.38383 4.8353 0
3.31151 3.35962 0
4.65905 0.132586 0
4.48104 1.29923 0
4.02746 2.42258 0
4.51307 5.10064 0
4.7933 6.13666 0
4.94042 7.3242 0
4.92325 8.48202 0
5.83442 -0.433293 0
6.9501 -0.487252 0
7.70138 -1.07328 0
8.62325 -1.73051 0
9.44678 -2.46939 0
4.49937 3.78861 0
5.75832 1.08206 0
5.30891 2.50402 0
5.30764 4.56762 0
5.54548 5.46831 0
5.8385 6.6142 0
5.97014 7.77048 0
6.77721 0.450978 0
7.78485 -0.0276737 0
8.79303 -0.574897 0
9.70356 -1.21625 0
6.88274 1.32538 0
5.64562 3.73171 0
6.46116 2.16321 0
6.2961 3.04415 0
6.20876 4.63101 0
6.61623 5.77909 0
6.9188 6.9252 0
7.70685 0.951969 0
8.78103 0.566544 0
9.77484 0.0540789 0
7.52957 1.97408 0
6.7317 3.84827 0
7.17547 2.90258 0
7.29175 4.83146 0
7.76106 5.96777 0
8.63412 1.70485 0
9.68117 1.31611 0
8.32299 2.79955 0
7.89096 3.8696 0
8.46723 4.90885 0
9.43129 2.56259 0
9.03221 3.76993 0
CELLS 542 2168
3 2 0 4
3 0 1 7
3 4 0 7
3 1 5 8
3 7 1 8
3 3 2 13
3 13 2 4
3 11 3 14
3 14 3 13
3 13 4 15
3 4 7 16
3 15 4 16
3 5 6 17
3 8 5 17
3 6 9 18
3 17 6 18
3 7 8 19
3 16 7 19
3 8 17 20
3 19 8 20
3 9 10 23
3 18 9 23
3 10 21 24
3 23 10 24
3 12 11 25
3 25 11 14
3 26 12 27
3 27 12 25
3 14 13 29
3 29 13 15
3 25 14 30
3 30 14 29
3 29 15 31
3 15 16 33
3 31 15 33
3 16 19 34
3 33 16 34
3 17 18 35
3 20 17 35
3 18 23 36
3 35 18 36
3 19 20 37
3 34 19 37
3 20 35 38
3 37 20 38
3 21 22 39
3 24 21 39
3 22 32 40
3 39 22 40
3 23 24 41
3 36 23 41
3 24 39 42
3 41 24 42
3 27 25 44
3 44 25 30
3 28 26 45
3 45 26 27
3 45 27 46
3 46 27 44
3 47 28 48
3 48 28 45
3 30 29 50
3 50 29 31
3 44 30 51
3 51 30 50
3 50 31 52
3 31 33 52
3 32 43 53
3 40 32 53
3 53 43 54
3 33 34 55
3 34 37 55
3 33 55 52
3 35 36 56
3 38 35 56
3 36 41 57
3 56 36 57
3 37 38 58
3 38 56 58
3 37 58 55
3 39 40 59
3 42 39 59
3 40 53 60
3 59 40 60
3 41 42 61
3 57 41 61
3 42 59 62
3 61 42 62
3 43 63 54
3 46 44 64
3 64 44 51
3 48 45 65
3 65 45 46
3 65 46 66
3 66 46 64
3 49 47 67
3 67 47 48
3 67 48 68
3 68 48 65
3 69 49 70
3 70 49 67
3 52 55 72
3 64 51 73
3 51 50 73
3 50 52 73
3 73 52 74
3 74 52 72
3 53 54 75
3 60 53 75
3 54 63 76
3 54 76 77
3 75 54 77
3 55 58 78
3 72 55 78
3 72 78 79
3 56 57 80
3 57 61 80
3 56 80 58
3 58 80 81
3 78 58 81
3 59 60 82
3 62 59 82
3 60 75 83
3 82 60 83
3 61 62 84
3 62 82 84
3 61 84 80
3 63 85 76
3 66 64 86
3 64 73 86
3 68 65 87
3 87 65 66
3 87 66 86
3 70 67 88
3 88 67 68
3 88 68 89
3 89 68 87
3 71 69 90
3 90 69 70
3 90 70 91
3 91 70 88
3 92 71 93
3 93 71 90
3 74 72 94
3 94 72 79
3 86 73 95
3 95 73 74
3 95 74 96
3 96 74 94
3 97 86 95
3 76 85 99
3 75 77 100
3 83 75 100
3 76 99 101
3 77 76 101
3 77 101 102
3 100 77 102
3 94 79 103
3 78 81 104
3 79 78 104
3 79 104 103
3 80 84 105
3 81 80 105
3 81 105 106
3 104 81 106
3 82 83 107
3 83 100 107
3 82 107 84
3 84 107 108
3 105 84 108
3 85 109 99
3 89 87 110
3 87 86 110
3 110 86 97
3 91 88 111
3 111 88 89
3 111 89 110
3 93 90 112
3 112 90 91
3 112 91 113
3 113 91 111
3 98 92 114
3 114 92 93
3 114 93 115
3 115 93 112
3 116 98 114
3 117 103 118
3 96 94 119
3 94 103 119
3 119 103 117
3 97 95 120
3 120 95 96
3 120 96 119
3 121 110 97
3 121 97 122
3 122 97 120
3 123 119 117
3 124 98 116
3 99 109 125
3 99 125 126
3 101 99 126
3 100 102 127
3 100 127 107
3 101 126 128
3 102 101 128
3 102 128 127
3 104 106 129
3 104 129 103
3 103 129 118
3 105 108 130
3 106 105 130
3 106 130 129
3 107 127 131
3 108 107 131
3 108 131 132
3 108 132 130
3 109 134 125
3 125 134 133
3 113 111 135
3 111 110 135
3 135 110 121
3 115 112 136
3 136 112 113
3 136 113 135
3 116 114 137
3 137 114 115
3 137 115 138
3 138 115 136
3 139 124 116
3 139 116 140
3 140 116 137
3 141 135 121
3 118 129 142
3 118 142 143
3 117 118 143
3 123 117 143
3 122 120 144
3 120 119 144
3 144 119 123
3 141 121 145
3 145 121 122
3 145 122 144
3 146 141 145
3 147 144 123
3 147 123 148
3 143 148 123
3 150 124 139
3 149 150 139
3 131 127 151
3 125 133 152
3 126 125 152
3 126 152 153
3 128 126 153
3 128 153 154
3 128 154 127
3 127 154 151
3 152 133 155
3 130 132 156
3 130 156 129
3 129 156 142
3 131 151 157
3 132 131 157
3 132 157 156
3 156 158 142
3 157 151 159
3 133 160 155
3 134 161 133
3 133 161 160
3 138 136 162
3 136 135 162
3 162 135 141
3 140 137 163
3 163 137 138
3 163 138 162
3 149 139 164
3 164 139 140
3 164 140 165
3 165 140 163
3 166 149 164
3 167 162 141
3 167 141 146
3 142 158 168
3 143 142 168
3 143 168 148
3 146 145 169
3 145 144 169
3 169 144 147
3 170 167 146
3 170 146 169
3 171 169 147
3 171 147 148
3 171 148 172
3 168 172 148
3 173 149 166
3 174 150 149
3 173 174 149
3 154 175 151
3 151 175 159
3 152 155 176
3 153 152 176
3 153 176 177
3 153 177 154
3 154 177 175
3 155 160 178
3 155 178 179
3 176 155 179
3 156 157 180
3 156 180 158
3 157 159 181
3 157 181 180
3 158 180 182
3 158 182 168
3 159 175 183
3 159 183 181
3 175 184 183
3 160 186 178
3 178 186 185
3 161 187 160
3 160 187 186
3 165 163 188
3 163 162 188
3 188 162 167
3 166 164 189
3 189 164 165
3 189 165 188
3 190 173 166
3 190 166 191
3 191 166 189
3 192 188 167
3 192 167 170
3 193 192 170
3 182 194 168
3 194 172 168
3 193 170 195
3 170 169 195
3 195 169 171
3 196 195 171
3 196 171 172
3 194 197 172
3 197 198 172
3 198 196 172
3 200 173 190
3 199 200 190
3 201 174 173
3 200 201 173
3 176 179 202
3 177 176 202
3 177 202 175
3 175 202 184
3 178 185 203
3 178 203 179
3 179 203 202
3 203 185 204
3 202 205 184
3 183 206 181
3 180 181 206
3 180 206 182
3 182 206 194
3 183 184 207
3 205 207 184
3 183 207 206
3 185 208 204
3 186 209 185
3 185 209 208
3 187 210 186
3 186 210 209
3 191 189 211
3 189 188 211
3 211 188 192
3 199 190 212
3 212 190 191
3 212 191 211
3 213 199 212
3 214 211 192
3 214 192 193
3 215 214 193
3 215 193 195
3 206 216 194
3 216 197 194
3 216 217 197
3 215 195 218
3 218 195 196
3 198 218 196
3 217 219 197
3 219 218 198
3 197 219 198
3 220 199 213
3 221 200 199
3 220 221 199
3 222 201 200
3 221 222 200
3 203 204 223
3 203 223 202
3 202 223 205
3 204 208 224
3 204 224 223
3 205 223 225
3 205 225 207
3 207 225 226
3 207 226 206
3 226 216 206
3 208 228 224
3 224 228 227
3 209 229 208
3 229 228 208
3 210 230 209
3 209 230 229
3 213 212 231
3 212 211 231
3 231 211 214
3 232 220 213
3 232 213 231
3 233 231 214
3 233 214 215
3 234 233 215
3 234 215 218
3 226 235 216
3 235 217 216
3 235 236 217
3 217 236 219
3 237 234 218
3 237 218 219
3 236 238 219
3 238 237 219
3 240 220 232
3 239 240 232
3 241 221 220
3 240 241 220
3 242 222 221
3 241 242 221
3 224 227 243
3 224 243 223
3 223 243 225
3 225 243 244
3 225 244 226
3 226 244 235
3 227 245 243
3 228 246 227
3 227 246 245
3 229 247 228
3 228 247 246
3 230 248 229
3 229 248 247
3 239 232 249
3 232 231 249
3 249 231 233
3 250 249 233
3 250 233 234
3 237 250 234
3 244 251 235
3 235 251 236
3 251 252 236
3 236 252 238
3 252 253 238
3 253 250 237
3 253 237 238
3 254 239 249
3 255 240 239
3 254 255 239
3 256 241 240
3 255 256 240
3 257 242 241
3 256 257 241
3 245 258 243
3 243 258 244
3 244 258 251
3 245 259 258
3 246 260 245
3 245 260 259
3 247 261 246
3 246 261 260
3 248 262 247
3 247 262 261
3 254 249 263
3 263 249 250
3 253 263 250
3 258 264 251
3 251 264 252
3 264 265 252
3 265 263 253
3 252 265 253
3 266 254 263
3 267 255 254
3 266 267 254
3 268 256 255
3 267 268 255
3 269 257 256
3 268 269 256
3 259 270 258
3 270 264 258
3 260 271 259
3 259 271 270
3 261 272 260
3 260 272 271
3 262 273 261
3 273 272 261
3 270 274 264
3 275 266 263
3 275 263 265
3 274 276 264
3 276 265 264
3 276 277 265
3 277 275 265
3 278 267 266
3 275 278 266
3 279 268 267
3 278 279 267
3 280 269 268
3 279 280 268
3 271 281 270
3 270 281 274
3 272 282 271
3 271 282 281
3 273 283 272
3 272 283 282
3 281 284 274
3 274 284 276
3 285 278 275
3 277 285 275
3 284 286 276
3 286 285 277
3 276 286 277
3 287 279 278
3 285 287 278
3 288 280 279
3 287 288 279
3 282 289 281
3 281 289 284
3 283 290 282
3 282 290 289
3 289 291 284
3 284 291 286
3 291 292 286
3 292 287 285
3 286 292 285
3 293 288 287
3 292 293 287
3 290 294 289
3 289 294 291
3 294 295 291
3 295 293 292
3 291 295 292
CELL_TYPES 542
5
5
5
5
5
5
5
5
5
5
5
5
5
5
5
5
5
5
5
5
5
5
5
5
5
5
5
5
5
5
5
5
5
5
5
5
5
5
5
5
5
5
5
5
5
5
5
5
5
5
5
5
5
5
5
5
5
5
5
5
5
5
5
5
5
5
5
5
5
5
5
5
5
5
5
5
5
5
5
5
5
5
5
5
5
5
5
5
5
5
5
5
5
5
5
5
5
5
5
5
5
5
5
5
5
5
5
5
5
5
5
5
5
5
5
5
5
5
5
5
5
5
5
5
5
5
5
5
5
5
5
5
5
5
5
5
5
5
5
5
5
5
5
5
5
5
5
5
5
5
5
5
5
5
5
5
5
5
5
5
5
5
5
5
5
5
5
5
5
5
5
5
5
5
5
5
5
5
5
5
5
5
5
5
5
5
5
5
5
5
5
5
5
5
5
5
5
5
5
5
5
5
5
5
5
5
5
5
5
5
5
5
5
5
5
5
5
5
5
5
5
5
5
5
5
5
5
5
5
5
5
5
5
5
5
5
5
5
5
5
5
5
5
5
5
5
5
5
5
5
5
5
5
5
5
5
5
5
5
5
5
5
5
5
5
5
5
5
5
5
5
5
5
5
5
5
5
5
5
5
5
5
5
5
5
5
5
5
5
5
5
5
5
5
5
5
5
5
5
5
5
5
5
5
5
5
5
5
5
5
5
5
5
5
5
5
5
5
5
5
5
5
5
5
5
5
5
5
5
5
5
5
5
5
5
5
5
5
5
5
5
5
5
5
5
5
5
5
5
5
5
5
5
5
5
5
5
5
5
5
5
5
5
5
5
5
5
5
5
5
5
5
5
5
5
5
5
5
5
5
5
5
5
5
5
5
5
5
5
5
5
5
5
5
5
5
5
5
5
5
5
5
5
5
5
5
5
5
5
5
5
5
5
5
5
5
5
5
5
5
5
5
5
5
5
5
5
5
5
5
5
5
5
5
5
5
5
5
5
5
5
5
5
5
5
5
5
5
5
5
5
5
5
5
5
5
5
5
5
5
5
5
5
5
5
5
5
5
5
5
5
5
5
5
5
5
5
5
5
5
5
5
5
5
5
5
5
5
5
5
5
5
5
5
5
5
5
5
5
5
5
5
5
5
5
5
5
5
5
5
5
5
5
5
5
5
5
5
5
5
5
5
5
5
5
5
5
5
5
5
5
5
5
5
5
5
5
5
5
5
5
5
POINT_DATA 296
SCALARS concentrations float 4
LOOKUP_TABLE default
0 0.945546 0.103756 3.21353
0 0.945501 0.0985103 7.89853
0 0.945463 0.101395 91.1874
0 0.945393 0.0985438 23.1385
0 0.945435 0.093019 5.08229
0 0.945402 0.10132 15.4186
0 0.945675 0.105553 59.9689
0 0.945474 0.092554 7.97497
0 0.945414 0.0925662 10.1513
0 0.945792 0.102069 48.8341
0 0.94561 0.0983101 21.5083
0 0.945319 0.10011 48.245
0 0.945224 0.104255 80.7416
0 0.945368 0.0927093 2.46166
0 0.945319 0.0919173 7.04589
0 0.945323 0.091698 3.62375
0 0.945364 0.0915317 2.50732
0 0.945505 0.0932371 11.0354
0 0.945709 0.0930461 7.91507
0 0.945392 0.0914468 2.63191
0 0.945438 0.0916009 1.97993
0 0.945397 0.107436 107.237
0 0.945291 0.103076 64.5121
0 0.94568 0.0923345 6.48785
0 0.945528 0.0922712 11.715
0 0.945251 0.0926059 13.6028
0 0.94539 0.0993098 32.573
0 0.945272 0.0924846 11.9778
0 0.945598 0.103153 28.6534
0 0.945285 0.0916899 3.62804
0 0.945254 0.0916417 5.70485
0 0.945296 0.0913829 2.79867
0 0.945607 0.105457 30.2407
0 0.945326 0.091263 2.074
0 0.945356 0.0911881 1.27264
0 0.945545 0.0915544 2.48229
0 0.945614 0.0914935 2.20517
0 0.945397 0.0911317 0.265581
0 0.94546 0.0912199 0.930444
0 0.945383 0.0921247 12.0264
0 0.945456 0.0917541 1.25039
0 0.945588 0.0914463 2.86873
0 0.945505 0.0912292 1.87716
0 0.945779 0.101485 57.3489
0 0.945261 0.0914433 5.34938
0 0.945459 0.092225 1.61853
0 0.945323 0.0914396 4.10709
0 0.945325 0.0987404 5.21505
0 0.945431 0.092052 3.64684
0 0.945225 0.0979395 0.69327
0 0.945284 0.0913082 2.70237
0 0.945275 0.0912623 3.29773
0 0.94533 0.0910687 1.24818
0 0.945657 0.0923176 11.0643
0 0.945751 0.0922655 13.0727
0 0.945369 0.0909826 0.722145
0 0.945507 0.0911844 1.19089
0 0.945545 0.0912042 1.28527
0 0.945431 0.0910081 0.70143
0 0.945474 0.0911922 2.90114
0 0.945516 0.0912583 3.9273
0 0.945517 0.0910969 0.588467
0 0.945494 0.0910527 0.649087
0 0.945878 0.0976085 39.4739
0 0.945306 0.0910779 2.27688
0 0.945366 0.0912251 0.659936
0 0.945329 0.0911046 1.46256
0 0.945266 0.0917178 6.98231
0 0.945338 0.0911855 1.27493
0 0.945262 0.0983946 26.7971
0 0.945258 0.0915929 7.96165
0 0.945232 0.0998858 111.247
0 0.945371 0.0909774 0.644926
0 0.945324 0.0910228 1.0454
0 0.945359 0.0910146 0.630987
0 0.945588 0.0914011 6.02112
0 0.945827 0.0917027 6.88441
0 0.945646 0.0914073 6.12524
0 0.945403 0.0909819 0.744257
0 0.945405 0.0909877 0.656486
0 0.945477 0.0910176 1.03679
0 0.945439 0.0909925 0.938729
0 0.945482 0.091071 2.10355
0 0.945501 0.0911723 3.86336
0 0.945475 0.0910226 1.12761
0 0.945954 0.096725 51.6034
0 0.945346 0.0910919 0.398942
0 0.945344 0.0910775 0.0793481
0 0.945296 0.0912551 3.3064
0 0.945336 0.091124 0.854293
0 0.94527 0.0917386 8.75139
0 0.945288 0.0912639 4.21819
0 0.945163 0.101996 9.33509
0 0.945218 0.0916199 5.98194
0 0.9454 0.0909779 0.538331
0 0.945366 0.0910409 0.247333
0 0.945397 0.0909967 0.399319
0 0.945385 0.0910854 0.330277
0 0.945379 0.101659 78.2801
0 0.945862 0.0924024 4.00161
0 0.945521 0.0911968 4.54566
0 0.945691 0.0914606 5.0169
0 0.945562 0.0912675 5.09669
0 0.945427 0.0909658 0.620835
0 0.945426 0.0909826 0.782658
0 0.945456 0.0910058 1.15921
0 0.945441 0.0909915 0.991839
0 0.945471 0.0910497 2.18682
0 0.945456 0.0910155 1.42693
0 0.94595 0.101655 17.7039
0 0.945365 0.0910705 0.430073
0 0.945336 0.0911336 1.42672
0 0.945286 0.091179 2.46094
0 0.94533 0.0911073 1.73166
0 0.945296 0.0922551 2.68866
0 0.945321 0.091214 0.887675
0 0.945451 0.0920388 1.42283
0 0.945444 0.0909742 0.56506
0 0.945445 0.0909644 0.632002
0 0.945429 0.090987 0.618242
0 0.945413 0.0910101 0.399257
0 0.945402 0.0910442 0.729632
0 0.945422 0.091029 0.595768
0 0.945456 0.0909927 0.593505
0 0.945522 0.097146 25.7978
0 0.945843 0.0924652 6.72254
0 0.945708 0.0914054 3.24956
0 0.945491 0.0910954 3.07293
0 0.945576 0.0912191 4.0642
0 0.945441 0.0909698 0.728925
0 0.945447 0.0909905 1.12315
0 0.945457 0.0910191 1.67207
0 0.945448 0.0910002 1.32276
0 0.945742 0.0920426 6.62481
0 0.94585 0.0990463 35.3463
0 0.945382 0.0910891 0.659776
0 0.945359 0.0910566 0.761226
0 0.945397 0.0912494 1.20374
0 0.945387 0.0910498 0.410721
0 0.945613 0.091956 1.94249
0 0.9455 0.091438 1.55423
0 0.945423 0.0911036 1.06997
0 0.945454 0.0909672 0.638212
0 0.94546 0.0909798 0.577004
0 0.945446 0.0910049 0.743843
0 0.945441 0.0910336 0.858909
0 0.945451 0.0910613 1.27738
0 0.945467 0.0909999 0.659736
0 0.945472 0.090989 0.572032
0 0.945788 0.0923495 0.968048
0 0.945816 0.101713 63.8207
0 0.945475 0.0910257 1.76094
0 0.945711 0.0913603 2.78899
0 0.94561 0.0911778 2.71831
0 0.945517 0.091088 2.52261
0 0.945733 0.0913637 4.22329
0 0.94545 0.0909718 0.897706
0 0.945454 0.090997 1.25291
0 0.94546 0.0909729 0.661767
0 0.945474 0.0910102 1.42216
0 0.945782 0.0923375 11.4785
0 0.945695 0.101257 38.8563
0 0.945416 0.0910791 1.01211
0 0.94544 0.0910774 1.4973
0 0.945581 0.0913435 1.89126
0 0.945488 0.0911444 2.175
0 0.945606 0.0913355 3.63888
0 0.945443 0.0910531 1.44664
0 0.94547 0.0909813 0.540977
0 0.945464 0.0910263 1.07006
0 0.945462 0.0911043 1.74736
0 0.945476 0.0909974 0.71495
0 0.945479 0.090992 0.624653
0 0.945721 0.0919135 5.24146
0 0.945905 0.0997926 7.83227
0 0.945514 0.0910229 1.41318
0 0.945641 0.0910318 0.990682
0 0.945564 0.0910356 1.56101
0 0.945777 0.091518 5.6381
0 0.945679 0.0911485 2.20503
0 0.945461 0.0909766 0.788857
0 0.945469 0.090994 0.923352
0 0.945471 0.0909818 0.613513
0 0.945491 0.0909897 0.983404
0 0.945531 0.0909801 0.772385
0 0.945804 0.0914984 5.17643
0 0.945898 0.0922834 13.3017
0 0.945905 0.101627 127.409
0 0.945451 0.0910169 1.62212
0 0.945498 0.0910906 2.67274
0 0.945551 0.0913215 3.64973
0 0.945497 0.0911655 2.95353
0 0.945452 0.0911004 1.74032
0 0.945461 0.0911187 1.56838
0 0.94548 0.0909906 0.634684
0 0.945471 0.0910408 1.09258
0 0.945479 0.0910009 0.679882
0 0.945482 0.0910035 0.784049
0 0.945479 0.0910021 0.695447
0 0.945469 0.0914608 3.81746
0 0.945598 0.0923533 8.97665
0 0.945709 0.0985184 12.0551
0 0.945594 0.0909797 0.18395
0 0.945686 0.091185 2.18838
0 0.945715 0.0912619 2.24069
0 0.945561 0.0909774 0.562982
0 0.945484 0.090965 0.516281
0 0.945512 0.0909653 0.546859
0 0.945797 0.0914403 3.1043
0 0.945851 0.0919226 9.75406
0 0.945912 0.0995687 60.736
0 0.945451 0.0910873 1.90228
0 0.94545 0.0911189 1.84765
0 0.945405 0.0911327 1.18858
0 0.945441 0.09113 1.42244
0 0.945456 0.0910856 1.06861
0 0.945488 0.0909873 0.672072
0 0.945483 0.0910105 0.890577
0 0.945469 0.0910206 0.738749
0 0.945473 0.0910126 0.845324
0 0.945387 0.0913803 1.86004
0 0.945502 0.092421 7.58201
0 0.94562 0.0955447 22.9679
0 0.945615 0.0910383 0.776262
0 0.945677 0.09116 1.16913
0 0.945551 0.090961 0.179686
0 0.945506 0.0909626 0.354673
0 0.945658 0.0911285 0.71692
0 0.945756 0.0913959 1.09956
0 0.945862 0.0922277 6.28122
0 0.945861 0.100418 36.6837
0 0.945414 0.091103 1.04041
0 0.94536 0.0911413 0.759464
0 0.945423 0.0910953 0.811752
0 0.945446 0.0910688 0.734143
0 0.945497 0.0910005 0.737517
0 0.945477 0.0910338 0.957329
0 0.94545 0.0910353 0.748453
0 0.945456 0.091029 0.894523
0 0.945318 0.0913262 1.63435
0 0.945302 0.0915006 1.43079
0 0.945394 0.0921593 3.19661
0 0.945492 0.100549 33.5385
0 0.945588 0.0909604 0.09541
0 0.945528 0.0909862 0.431592
0 0.945611 0.0910793 1.00502
0 0.945696 0.0913946 0.193555
0 0.945792 0.0926807 7.2348
0 0.94591 0.102148 39.5608
0 0.945379 0.0911075 0.335117
0 0.945412 0.0910652 0.647354
0 0.945494 0.0910484 0.883981
0 0.945452 0.0910479 1.1797
0 0.945422 0.0910242 0.960895
0 0.945316 0.0913163 1.67122
0 0.945259 0.0915065 2.34645
0 0.945251 0.0920342 3.71692
0 0.94536 0.0973429 62.6148
0 0.945537 0.0910838 1.46719
0 0.945585 0.0913015 3.02204
0 0.945644 0.0913613 2.13683
0 0.945673 0.0921731 8.41968
0 0.945715 0.0995621 9.14394
0 0.945375 0.0911116 0.297468
0 0.945471 0.0911495 2.23295
0 0.945406 0.0910328 1.29367
0 0.945304 0.0913477 1.99565
0 0.945251 0.091593 3.95542
0 0.945246 0.0922054 5.09148
0 0.945197 0.0980624 58.5132
0 0.945535 0.0913691 3.84395
0 0.945617 0.0916438 4.89974
0 0.945668 0.0917873 4.26061
0 0.945671 0.0987099 45.7018
0 0.945474 0.0913971 3.89551
0 0.945329 0.0912017 1.16604
0 0.945409 0.091231 2.76005
0 0.945343 0.091162 1.48831
0 0.945257 0.0914685 2.73877
0 0.945244 0.092221 9.82146
0 0.945308 0.096899 20.5731
0 0.945554 0.091658 5.06664
0 0.945681 0.0927463 8.66294
0 0.945708 0.0972819 52.4651
0 0.945423 0.0916983 5.1411
0 0.945261 0.0914163 2.44707
0 0.945307 0.0914174 2.97804
0 0.94524 0.0921629 8.41376
0 0.945207 0.102776 17.5799
0 0.945561 0.0930426 9.62235
0 0.945723 0.105102 31.2924
0 0.945258 0.0924658 2.8002
0 0.945207 0.092336 4.58314
0 0.945262 0.0992316 36.8782
0 0.945405 0.0982287 7.75331
0 0.945099 0.106342 46.3513
VECTORS fa_u float
0.00719629 0.00296673 -0
0.00512027 0.0029528 -0
0.00467774 0.00127002 -0
0.00842775 0.00115269 -0
1e-08 0 0
0.0063386 0.00487934 -0
0.00343312 0.00341705 -0
1e-08 0 0
1e-08 0 0
0.00429082 0.00546447 -0
0.00381854 0.00652392 -0
0.00520834 2.42554e-05 -0
0.00683741 -0.000819472 0
1e-08 0 0
1e-08 0 0
1e-08 0 0
1e-08 0 0
1e-08 0 0
1e-08 0 0
1e-08 0 0
1e-08 0 0
0.00272172 0.00656939 -0
0.0017505 0.00660086 -0
1e-08 0 0
1e-08 0 0
1e-08 0 0
0.00845146 -0.00225004 0
1e-08 0 0
0.00616567 -0.00261094 0
1e-08 0 0
1e-08 0 0
1e-08 0 0
0.000859637 0.00670196 -0
1e-08 0 0
1e-08 0 0
1e-08 0 0
1e-08 0 0
1e-08 0 0
1e-08 0 0
1e-08 0 0
1e-08 0 0
1e-08 0 0
1e-08 0 0
-4.87242e-05 0.0073494 -0
1e-08 0 0
1e-08 0 0
1e-08 0 0
0.00604745 -0.0035681 0
1e-08 0 0
0.00485809 -0.00378991 0
1e-08 0 0
1e-08 0 0
1e-08 0 0
1e-08 0 0
1e-08 0 0
1e-08 0 0
1e-08 0 0
1e-08 0 0
1e-08 0 0
1e-08 0 0
1e-08 0 0
1e-08 0 0
1e-08 0 0
-0.000856816 0.00616048 0
1e-08 0 0
1e-08 0 0
1e-08 0 0
1e-08 0 0
1e-08 0 0
0.00433852 -0.00436135 0
1e-08 0 0
0.00307468 -0.00393028 0
1e-08 0 0
1e-08 0 0
1e-08 0 0
1e-08 0 0
1e-08 0 0
1e-08 0 0
1e-08 0 0
1e-08 0 0
1e-08 0 0
1e-08 0 0
1e-08 0 0
1e-08 0 0
1e-08 0 0
-0.00139727 0.00525525 0
1e-08 0 0
1e-08 0 0
1e-08 0 0
1e-08 0 0
1e-08 0 0
1e-08 0 0
0.00399369 -0.00670907 0
1e-08 0 0
1e-08 0 0
1e-08 0 0
1e-08 0 0
1e-08 0 0
0.00333571 -0.00808154 0
1e-08 0 0
1e-08 0 0
1e-08 0 0
1e-08 0 0
1e-08 0 0
1e-08 0 0
1e-08 0 0
1e-08 0 0
1e-08 0 0
1e-08 0 0
-0.00299023 0.00728414 0
1e-08 0 0
1e-08 0 0
1e-08 0 0
1e-08 0 0
1e-08 0 0
1e-08 0 0
1e-08 0 0
1e-08 0 0
1e-08 0 0
1e-08 0 0
1e-08 0 0
1e-08 0 0
1e-08 0 0
1e-08 0 0
0.00158242 -0.00611419 0
1e-08 0 0
1e-08 0 0
1e-08 0 0
1e-08 0 0
1e-08 0 0
1e-08 0 0
1e-08 0 0
1e-08 0 0
1e-08 0 0
-0.00352606 0.00605365 0
1e-08 0 0
1e-08 0 0
1e-08 0 0
1e-08 0 0
1e-08 0 0
1e-08 0 0
1e-08 0 0
1e-08 0 0
1e-08 0 0
1e-08 0 0
1e-08 0 0
1e-08 0 0
1e-08 0 0
1e-08 0 0
1e-08 0 0
0.000693546 -0.00522917 0
1e-08 0 0
1e-08 0 0
1e-08 0 0
1e-08 0 0
1e-08 0 0
1e-08 0 0
1e-08 0 0
1e-08 0 0
1e-08 0 0
1e-08 0 0
-0.00345758 0.00450578 0
1e-08 0 0
1e-08 0 0
1e-08 0 0
1e-08 0 0
1e-08 0 0
1e-08 0 0
1e-08 0 0
1e-08 0 0
1e-08 0 0
1e-08 0 0
1e-08 0 0
1e-08 0 0
4.418e-05 -0.00711434 0
1e-08 0 0
1e-08 0 0
1e-08 0 0
1e-08 0 0
1e-08 0 0
1e-08 0 0
1e-08 0 0
1e-08 0 0
1e-08 0 0
1e-08 0 0
1e-08 0 0
1e-08 0 0
-0.00481106 0.00485712 0
1e-08 0 0
1e-08 0 0
1e-08 0 0
1e-08 0 0
1e-08 0 0
1e-08 0 0
1e-08 0 0
1e-08 0 0
1e-08 0 0
1e-08 0 0
1e-08 0 0
1e-08 0 0
1e-08 0 0
-0.00081483 -0.00644873 0
1e-08 0 0
1e-08 0 0
1e-08 0 0
1e-08 0 0
1e-08 0 0
1e-08 0 0
1e-08 0 0
1e-08 0 0
-0.00460486 0.00359642 0
1e-08 0 0
1e-08 0 0
1e-08 0 0
1e-08 0 0
1e-08 0 0
1e-08 0 0
1e-08 0 0
1e-08 0 0
1e-08 0 0
1e-08 0 0
1e-08 0 0
-0.00192651 -0.00725745 0
1e-08 0 0
1e-08 0 0
1e-08 0 0
1e-08 0 0
1e-08 0 0
1e-08 0 0
1e-08 0 0
-0.00648347 0.00382188 0
1e-08 0 0
1e-08 0 0
1e-08 0 0
1e-08 0 0
1e-08 0 0
1e-08 0 0
1e-08 0 0
1e-08 0 0
1e-08 0 0
1e-08 0 0
1e-08 0 0
-0.00257647 -0.00619225 0
1e-08 0 0
1e-08 0 0
1e-08 0 0
1e-08 0 0
1e-08 0 0
-0.00786381 0.00322868 0
1e-08 0 0
1e-08 0 0
1e-08 0 0
1e-08 0 0
1e-08 0 0
1e-08 0 0
1e-08 0 0
1e-08 0 0
-0.00371409 -0.00636457 0
1e-08 0 0
1e-08 0 0
1e-08 0 0
1e-08 0 0
-0.00489362 0.00129671 0
1e-08 0 0
1e-08 0 0
1e-08 0 0
1e-08 0 0
1e-08 0 0
1e-08 0 0
-0.00413922 -0.00530572 0
1e-08 0 0
1e-08 0 0
1e-08 0 0
-0.00825406 0.00107304 0
1e-08 0 0
1e-08 0 0
1e-08 0 0
1e-08 0 0
1e-08 0 0
1e-08 0 0
-0.00409968 -0.00407286 0
1e-08 0 0
1e-08 0 0
-0.00664937 -5.87829e-05 0
1e-08 0 0
1e-08 0 0
1e-08 0 0
1e-08 0 0
-0.00551359 -0.00423408 0
1e-08 0 0
-0.00596336 -0.000816705 0
1e-08 0 0
1e-08 0 0
-0.00552558 -0.00319581 0
-0.00558492 -0.00147704 0
-0.00722815 -0.00296999 0
