# vtk DataFile Version 2.0
CellBP Time: 5.32
ASCII
DATASET UNSTRUCTURED_GRID
POINTS 296 double
-8.93181 -3.66459 0
-8.36056 -4.80347 0
-9.33743 -2.45598 0
-9.59394 -1.21557 0
-8.26007 -2.77572 0
-7.65774 -5.8678 0
-6.81826 -6.8269 0
-7.82003 -3.82026 0
-7.2498 -4.80795 0
-5.86715 -7.66684 0
-4.82574 -8.38778 0
-9.67817 0.0464177 0
-9.61366 1.3172 0
-8.56731 -1.65881 0
-8.7027 -0.521787 0
-7.49498 -1.96997 0
-7.12853 -2.85911 0
-6.56265 -5.72011 0
-5.76531 -6.53884 0
-6.697 -3.83162 0
-6.1397 -4.61789 0
-3.68181 -8.9472 0
-2.47207 -9.35774 0
-4.86677 -7.25271 0
-3.89167 -7.83229 0
-8.71647 0.634655 0
-9.36684 2.57234 0
-8.55506 1.75376 0
-8.95614 3.77858 0
-7.65613 -0.911179 0
-7.71252 0.0832516 0
-6.86795 -1.2924 0
-1.21644 -9.60034 0
-6.36416 -2.1209 0
-6.24071 -3.01197 0
-5.47184 -5.4175 0
-4.74645 -6.05964 0
-5.58935 -3.70947 0
-5.2024 -4.50758 0
-2.84897 -8.30468 0
-1.76388 -8.57542 0
-3.89523 -6.66931 0
-3.03873 -7.09999 0
0.0520976 -9.68286 0
-7.62966 1.13129 0
-8.28046 2.89407 0
-7.48183 2.08706 0
-8.38248 4.91493 0
-7.81232 3.94216 0
-7.66132 5.96645 0
-6.70181 -0.387246 0
-6.88001 0.549973 0
-5.71348 -0.991261 0
-0.584638 -8.73696 0
0.555911 -8.68844 0
-5.24874 -2.45023 0
-4.43722 -5.04127 0
-3.86077 -5.72123 0
-4.3936 -3.76564 0
-2.04717 -7.50388 0
-1.12704 -7.7211 0
-2.96721 -6.04962 0
-2.29337 -6.56753 0
1.31494 -9.58985 0
-6.62249 1.40572 0
-7.10118 3.08443 0
-6.5937 2.34719 0
-7.22356 4.93865 0
-6.65094 3.95905 0
-6.82292 6.91931 0
-6.50733 5.83253 0
-5.8642 7.7563 0
-4.42237 -1.17416 0
-5.76239 0.504948 0
-4.625 -0.017017 0
0.00176169 -7.77301 0
1.71191 -8.5512 0
0.928985 -7.68029 0
-4.01015 -2.38618 0
-3.47433 -1.38697 0
-3.26582 -4.76312 0
-3.24755 -3.2433 0
-1.37214 -6.61638 0
-0.512477 -6.95701 0
-1.96224 -5.49416 0
2.56039 -9.33219 0
-5.45794 2.01915 0
-6.03419 3.03786 0
-6.04306 4.81474 0
-5.70245 3.94373 0
-5.70288 6.64382 0
-5.39546 5.55442 0
-4.81873 8.48136 0
-4.78751 7.32144 0
-3.48659 -0.423228 0
-4.41623 1.23958 0
-3.69017 0.588771 0
-4.0302 2.30913 0
-3.68267 9.04942 0
2.81966 -8.23103 0
0.402287 -6.71993 0
1.98637 -7.43394 0
1.27716 -6.82185 0
-2.43871 -0.869253 0
-2.82907 -2.12076 0
-2.28292 -4.06831 0
-2.3161 -2.95576 0
-0.445974 -5.80533 0
-1.21328 -4.46834 0
3.77015 -8.93537 0
-4.74512 3.35942 0
-5.03541 4.54016 0
-4.59704 6.20658 0
-4.49089 5.29608 0
-3.80915 7.9156 0
-3.78319 6.7617 0
-2.75414 8.33552 0
-1.64641 -0.133758 0
-1.44678 -0.886651 0
-2.48384 0.510998 0
-3.23513 1.44068 0
-3.21441 3.29389 0
-2.89353 2.36645 0
-1.3547 0.631125 0
-2.4714 9.44351 0
3.87951 -7.7899 0
2.91446 -7.05861 0
0.933594 -5.75684 0
2.03678 -6.3321 0
-1.67693 -1.98556 0
-1.42669 -3.25878 0
0.0863068 -4.7065 0
-0.559931 -3.67312 0
4.87127 -7.22628 0
4.91067 -8.37441 0
-3.74152 4.50566 0
-3.69589 5.68648 0
-2.85378 7.20548 0
-2.97754 6.28202 0
-1.64477 8.65118 0
-1.91638 7.54003 0
-2.32296 4.02179 0
-0.728371 -1.32385 0
-0.836222 -0.254044 0
-1.93378 1.68383 0
-2.11679 2.86647 0
-1.30357 3.52839 0
-0.871723 1.35459 0
-0.284485 0.459164 0
-0.527133 8.79688 0
-1.21931 9.68732 0
1.09727 -4.52977 0
3.84901 -6.61628 0
2.94101 -6.01033 0
2.08536 -5.3583 0
4.72302 -6.11731 0
-0.554869 -2.46778 0
0.493365 -3.44246 0
0.0543676 -1.60765 0
1.46681 -3.64988 0
5.80336 -6.5329 0
5.96364 -7.65705 0
-2.45341 5.29641 0
-2.10521 6.46416 0
-0.891254 7.73051 0
-1.25342 6.86055 0
0.0888076 7.81424 0
-1.13818 4.46344 0
0.149005 -0.614836 0
-0.8015 2.48904 0
-0.337007 3.58834 0
0.0584541 1.5145 0
0.736965 0.474419 0
0.640703 8.8079 0
0.0473212 9.78802 0
2.35183 -4.23657 0
3.80654 -5.56007 0
2.95975 -5.14396 0
5.51461 -5.42128 0
4.63352 -5.20629 0
0.630249 -2.28874 0
1.24792 -2.93325 0
0.756029 -1.3893 0
2.14562 -3.10989 0
2.965 -3.44089 0
6.09853 -4.73632 0
6.59487 -5.70643 0
6.92068 -6.81287 0
-1.00782 5.76769 0
-0.362626 6.81876 0
1.11506 7.71138 0
0.55802 7.02066 0
-0.00342643 4.69578 0
0.599284 3.81025 0
1.33495 -0.641448 0
0.532202 2.64519 0
0.95931 1.57478 0
1.90355 0.212594 0
1.60736 1.06382 0
2.11679 7.52976 0
1.78766 8.65086 0
1.31908 9.70086 0
3.78017 -4.29611 0
5.0619 -4.38718 0
5.79264 -3.88755 0
3.7502 -3.16763 0
1.80503 -1.87925 0
2.99688 -2.55546 0
6.72985 -3.91006 0
7.32418 -4.85294 0
7.76722 -5.86581 0
0.48226 5.83549 0
1.4204 6.69056 0
2.36054 6.62135 0
1.20065 4.5296 0
1.47893 3.38115 0
2.42507 -0.690486 0
2.81524 0.142644 0
1.77973 2.15727 0
2.60218 1.14685 0
3.05427 7.11968 0
2.8889 8.31965 0
2.57587 9.46517 0
4.86658 -3.28772 0
6.07078 -3.0748 0
4.14254 -2.2581 0
3.22549 -1.49678 0
6.68419 -2.29588 0
7.18187 -3.02128 0
7.91147 -3.88762 0
8.48811 -4.82359 0
2.01219 5.56057 0
3.05855 6.1048 0
2.3526 4.10043 0
2.40917 3.04437 0
3.506 -0.457075 0
3.59698 0.614095 0
2.9469 2.27645 0
3.52383 1.5181 0
3.96992 5.84719 0
3.95155 6.74108 0
3.95212 7.88504 0
3.7846 9.05059 0
5.52898 -1.90047 0
4.48024 -1.12113 0
6.66348 -1.32477 0
7.53941 -2.02045 0
8.34054 -2.84358 0
9.05958 -3.68732 0
3.38455 4.83569 0
3.31221 3.35982 0
4.65994 0.13245 0
4.48203 1.29933 0
4.0284 2.42285 0
4.51403 5.1013 0
4.79405 6.13748 0
4.94098 7.32525 0
4.92687 8.48762 0
5.83559 -0.433304 0
6.95148 -0.487119 0
7.70251 -1.07326 0
8.62392 -1.73025 0
9.44735 -2.46949 0
4.50043 3.78911 0
5.7597 1.08237 0
5.31026 2.50453 0
5.30885 4.56833 0
5.54637 5.4691 0
5.83921 6.61521 0
5.97607 7.77778 0
6.77881 0.451319 0
7.7864 -0.0274036 0
8.79437 -0.57469 0
9.7087 -1.21689 0
6.88452 1.32588 0
5.64704 3.7324 0
6.46292 2.16382 0
6.2978 3.04487 0
6.21012 4.63177 0
6.6168 5.77999 0
6.91958 6.92606 0
7.7086 0.952326 0
8.78294 0.566949 0
9.78174 0.0541084 0
7.53147 1.9746 0
6.73354 3.84908 0
7.17737 2.90332 0
7.29326 4.83174 0
7.76682 5.97235 0
8.63606 1.70498 0
9.69009 1.31767 0
8.32471 2.80032 0
7.89295 3.87034 0
8.47429 4.9133 0
9.43597 2.56446 0
9.03506 3.77184 0
CELLS 542 2168
3 2 0 4
3 0 1 7
3 4 0 7
3 1 5 8
3 7 1 8
3 3 2 13
3 13 2 4
3 11 3 14
3 14 3 13
3 13 4 15
3 4 7 16
3 15 4 16
3 5 6 17
3 8 5 17
3 6 9 18
3 17 6 18
3 7 8 19
3 16 7 19
3 8 17 20
3 19 8 20
3 9 10 23
3 18 9 23
3 10 21 24
3 23 10 24
3 12 11 25
3 25 11 14
3 26 12 27
3 27 12 25
3 14 13 29
3 29 13 15
3 25 14 30
3 30 14 29
3 29 15 31
3 15 16 33
3 31 15 33
3 16 19 34
3 33 16 34
3 17 18 35
3 20 17 35
3 18 23 36
3 35 18 36
3 19 20 37
3 34 19 37
3 20 35 38
3 37 20 38
3 21 22 39
3 24 21 39
3 22 32 40
3 39 22 40
3 23 24 41
3 36 23 41
3 24 39 42
3 41 24 42
3 27 25 44
3 44 25 30
3 28 26 45
3 45 26 27
3 45 27 46
3 46 27 44
3 47 28 48
3 48 28 45
3 30 29 50
3 50 29 31
3 44 30 51
3 51 30 50
3 50 31 52
3 31 33 52
3 32 43 53
3 40 32 53
3 53 43 54
3 33 34 55
3 34 37 55
3 33 55 52
3 35 36 56
3 38 35 56
3 36 41 57
3 56 36 57
3 37 38 58
3 38 56 58
3 37 58 55
3 39 40 59
3 42 39 59
3 40 53 60
3 59 40 60
3 41 42 61
3 57 41 61
3 42 59 62
3 61 42 62
3 43 63 54
3 46 44 64
3 64 44 51
3 48 45 65
3 65 45 46
3 65 46 66
3 66 46 64
3 49 47 67
3 67 47 48
3 67 48 68
3 68 48 65
3 69 49 70
3 70 49 67
3 52 55 72
3 64 51 73
3 51 50 73
3 50 52 73
3 73 52 74
3 74 52 72
3 53 54 75
3 60 53 75
3 54 63 76
3 54 76 77
3 75 54 77
3 55 58 78
3 72 55 78
3 72 78 79
3 56 57 80
3 57 61 80
3 56 80 58
3 58 80 81
3 78 58 81
3 59 60 82
3 62 59 82
3 60 75 83
3 82 60 83
3 61 62 84
3 62 82 84
3 61 84 80
3 63 85 76
3 66 64 86
3 64 73 86
3 68 65 87
3 87 65 66
3 87 66 86
3 70 67 88
3 88 67 68
3 88 68 89
3 89 68 87
3 71 69 90
3 90 69 70
3 90 70 91
3 91 70 88
3 92 71 93
3 93 71 90
3 74 72 94
3 94 72 79
3 86 73 95
3 95 73 74
3 95 74 96
3 96 74 94
3 97 86 95
3 76 85 99
3 75 77 100
3 83 75 100
3 76 99 101
3 77 76 101
3 77 101 102
3 100 77 102
3 94 79 103
3 78 81 104
3 79 78 104
3 79 104 103
3 80 84 105
3 81 80 105
3 81 105 106
3 104 81 106
3 82 83 107
3 83 100 107
3 82 107 84
3 84 107 108
3 105 84 108
3 85 109 99
3 89 87 110
3 87 86 110
3 110 86 97
3 91 88 111
3 111 88 89
3 111 89 110
3 93 90 112
3 112 90 91
3 112 91 113
3 113 91 111
3 98 92 114
3 114 92 93
3 114 93 115
3 115 93 112
3 116 98 114
3 117 103 118
3 96 94 119
3 94 103 119
3 119 103 117
3 97 95 120
3 120 95 96
3 120 96 119
3 121 110 97
3 121 97 122
3 122 97 120
3 123 119 117
3 124 98 116
3 99 109 125
3 99 125 126
3 101 99 126
3 100 102 127
3 100 127 107
3 101 126 128
3 102 101 128
3 102 128 127
3 104 106 129
3 104 129 103
3 103 129 118
3 105 108 130
3 106 105 130
3 106 130 129
3 107 127 131
3 108 107 131
3 108 131 132
3 108 132 130
3 109 134 125
3 125 134 133
3 113 111 135
3 111 110 135
3 135 110 121
3 115 112 136
3 136 112 113
3 136 113 135
3 116 114 137
3 137 114 115
3 137 115 138
3 138 115 136
3 139 124 116
3 139 116 140
3 140 116 137
3 141 135 121
3 118 129 142
3 118 142 143
3 117 118 143
3 123 117 143
3 122 120 144
3 120 119 144
3 144 119 123
3 141 121 145
3 145 121 122
3 145 122 144
3 146 141 145
3 147 144 123
3 147 123 148
3 143 148 123
3 150 124 139
3 149 150 139
3 131 127 151
3 125 133 152
3 126 125 152
3 126 152 153
3 128 126 153
3 128 153 154
3 128 154 127
3 127 154 151
3 152 133 155
3 130 132 156
3 130 156 129
3 129 156 142
3 131 151 157
3 132 131 157
3 132 157 156
3 156 158 142
3 157 151 159
3 133 160 155
3 134 161 133
3 133 161 160
3 138 136 162
3 136 135 162
3 162 135 141
3 140 137 163
3 163 137 138
3 163 138 162
3 149 139 164
3 164 139 140
3 164 140 165
3 165 140 163
3 166 149 164
3 167 162 141
3 167 141 146
3 142 158 168
3 143 142 168
3 143 168 148
3 146 145 169
3 145 144 169
3 169 144 147
3 170 167 146
3 170 146 169
3 171 169 147
3 171 147 148
3 171 148 172
3 168 172 148
3 173 149 166
3 174 150 149
3 173 174 149
3 154 175 151
3 151 175 159
3 152 155 176
3 153 152 176
3 153 176 177
3 153 177 154
3 154 177 175
3 155 160 178
3 155 178 179
3 176 155 179
3 156 157 180
3 156 180 158
3 157 159 181
3 157 181 180
3 158 180 182
3 158 182 168
3 159 175 183
3 159 183 181
3 175 184 183
3 160 186 178
3 178 186 185
3 161 187 160
3 160 187 186
3 165 163 188
3 163 162 188
3 188 162 167
3 166 164 189
3 189 164 165
3 189 165 188
3 190 173 166
3 190 166 191
3 191 166 189
3 192 188 167
3 192 167 170
3 193 192 170
3 182 194 168
3 194 172 168
3 193 170 195
3 170 169 195
3 195 169 171
3 196 195 171
3 196 171 172
3 194 197 172
3 197 198 172
3 198 196 172
3 200 173 190
3 199 200 190
3 201 174 173
3 200 201 173
3 176 179 202
3 177 176 202
3 177 202 175
3 175 202 184
3 178 185 203
3 178 203 179
3 179 203 202
3 203 185 204
3 202 205 184
3 183 206 181
3 180 181 206
3 180 206 182
3 182 206 194
3 183 184 207
3 205 207 184
3 183 207 206
3 185 208 204
3 186 209 185
3 185 209 208
3 187 210 186
3 186 210 209
3 191 189 211
3 189 188 211
3 211 188 192
3 199 190 212
3 212 190 191
3 212 191 211
3 213 199 212
3 214 211 192
3 214 192 193
3 215 214 193
3 215 193 195
3 206 216 194
3 216 197 194
3 216 217 197
3 215 195 218
3 218 195 196
3 198 218 196
3 217 219 197
3 219 218 198
3 197 219 198
3 220 199 213
3 221 200 199
3 220 221 199
3 222 201 200
3 221 222 200
3 203 204 223
3 203 223 202
3 202 223 205
3 204 208 224
3 204 224 223
3 205 223 225
3 205 225 207
3 207 225 226
3 207 226 206
3 226 216 206
3 208 228 224
3 224 228 227
3 209 229 208
3 229 228 208
3 210 230 209
3 209 230 229
3 213 212 231
3 212 211 231
3 231 211 214
3 232 220 213
3 232 213 231
3 233 231 214
3 233 214 215
3 234 233 215
3 234 215 218
3 226 235 216
3 235 217 216
3 235 236 217
3 217 236 219
3 237 234 218
3 237 218 219
3 236 238 219
3 238 237 219
3 240 220 232
3 239 240 232
3 241 221 220
3 240 241 220
3 242 222 221
3 241 242 221
3 224 227 243
3 224 243 223
3 223 243 225
3 225 243 244
3 225 244 226
3 226 244 235
3 227 245 243
3 228 246 227
3 227 246 245
3 229 247 228
3 228 247 246
3 230 248 229
3 229 248 247
3 239 232 249
3 232 231 249
3 249 231 233
3 250 249 233
3 250 233 234
3 237 250 234
3 244 251 235
3 235 251 236
3 251 252 236
3 236 252 238
3 252 253 238
3 253 250 237
3 253 237 238
3 254 239 249
3 255 240 239
3 254 255 239
3 256 241 240
3 255 256 240
3 257 242 241
3 256 257 241
3 245 258 243
3 243 258 244
3 244 258 251
3 245 259 258
3 246 260 245
3 245 260 259
3 247 261 246
3 246 261 260
3 248 262 247
3 247 262 261
3 254 249 263
3 263 249 250
3 253 263 250
3 258 264 251
3 251 264 252
3 264 265 252
3 265 263 253
3 252 265 253
3 266 254 263
3 267 255 254
3 266 267 254
3 268 256 255
3 267 268 255
3 269 257 256
3 268 269 256
3 259 270 258
3 270 264 258
3 260 271 259
3 259 271 270
3 261 272 260
3 260 272 271
3 262 273 261
3 273 272 261
3 270 274 264
3 275 266 263
3 275 263 265
3 274 276 264
3 276 265 264
3 276 277 265
3 277 275 265
3 278 267 266
3 275 278 266
3 279 268 267
3 278 279 267
3 280 269 268
3 279 280 268
3 271 281 270
3 270 281 274
3 272 282 271
3 271 282 281
3 273 283 272
3 272 283 282
3 281 284 274
3 274 284 276
3 285 278 275
3 277 285 275
3 284 286 276
3 286 285 277
3 276 286 277
3 287 279 278
3 285 287 278
3 288 280 279
3 287 288 279
3 282 289 281
3 281 289 284
3 283 290 282
3 282 290 289
3 289 291 284
3 284 291 286
3 291 292 286
3 292 287 285
3 286 292 285
3 293 288 287
3 292 293 287
3 290 294 289
3 289 294 291
3 294 295 291
3 295 293 292
3 291 295 292
CELL_TYPES 542
5
5
5
5
5
5
5
5
5
5
5
5
5
5
5
5
5
5
5
5
5
5
5
5
5
5
5
5
5
5
5
5
5
5
5
5
5
5
5
5
5
5
5
5
5
5
5
5
5
5
5
5
5
5
5
5
5
5
5
5
5
5
5
5
5
5
5
5
5
5
5
5
5
5
5
5
5
5
5
5
5
5
5
5
5
5
5
5
5
5
5
5
5
5
5
5
5
5
5
5
5
5
5
5
5
5
5
5
5
5
5
5
5
5
5
5
5
5
5
5
5
5
5
5
5
5
5
5
5
5
5
5
5
5
5
5
5
5
5
5
5
5
5
5
5
5
5
5
5
5
5
5
5
5
5
5
5
5
5
5
5
5
5
5
5
5
5
5
5
5
5
5
5
5
5
5
5
5
5
5
5
5
5
5
5
5
5
5
5
5
5
5
5
5
5
5
5
5
5
5
5
5
5
5
5
5
5
5
5
5
5
5
5
5
5
5
5
5
5
5
5
5
5
5
5
5
5
5
5
5
5
5
5
5
5
5
5
5
5
5
5
5
5
5
5
5
5
5
5
5
5
5
5
5
5
5
5
5
5
5
5
5
5
5
5
5
5
5
5
5
5
5
5
5
5
5
5
5
5
5
5
5
5
5
5
5
5
5
5
5
5
5
5
5
5
5
5
5
5
5
5
5
5
5
5
5
5
5
5
5
5
5
5
5
5
5
5
5
5
5
5
5
5
5
5
5
5
5
5
5
5
5
5
5
5
5
5
5
5
5
5
5
5
5
5
5
5
5
5
5
5
5
5
5
5
5
5
5
5
5
5
5
5
5
5
5
5
5
5
5
5
5
5
5
5
5
5
5
5
5
5
5
5
5
5
5
5
5
5
5
5
5
5
5
5
5
5
5
5
5
5
5
5
5
5
5
5
5
5
5
5
5
5
5
5
5
5
5
5
5
5
5
5
5
5
5
5
5
5
5
5
5
5
5
5
5
5
5
5
5
5
5
5
5
5
5
5
5
5
5
5
5
5
5
5
5
5
5
5
5
5
5
5
5
5
5
5
5
5
5
5
5
5
5
5
5
5
5
5
5
5
5
5
5
5
5
5
5
5
5
5
5
5
5
5
5
5
5
5
5
5
5
5
5
5
5
5
5
5
5
5
5
5
5
5
5
5
5
5
5
5
5
5
5
5
5
5
5
5
5
5
5
5
5
5
5
5
5
5
5
5
5
POINT_DATA 296
SCALARS concentrations float 4
LOOKUP_TABLE default
0 0.946605 0.0981028 22.6548
0 0.94618 0.0997096 105.642
0 0.94693 0.101162 40.777
0 0.946907 0.0962742 0.966619
0 0.946745 0.0920816 5.41407
0 0.946242 0.100252 61.0748
0 0.946507 0.103378 36.3474
0 0.946418 0.0916092 2.44764
0 0.946257 0.0913856 1.1491
0 0.946649 0.111658 183.691
0 0.946707 0.103861 139.219
0 0.946565 0.104937 121.561
0 0.94631 0.104695 83.9047
0 0.94687 0.0918266 5.41431
0 0.94673 0.0923504 11.218
0 0.946711 0.0913787 2.78121
0 0.946581 0.0912358 1.30716
0 0.946413 0.0921814 7.69372
0 0.946583 0.0931839 18.5082
0 0.946449 0.0911105 1.10958
0 0.946436 0.0912613 2.22415
0 0.946822 0.0988499 54.6002
0 0.947244 0.104325 4.48407
0 0.946681 0.0929088 17.7415
0 0.946746 0.0919107 7.02232
0 0.946477 0.0922928 12.6164
0 0.946436 0.102546 114.623
0 0.946447 0.0920281 9.48647
0 0.946472 0.101242 18.7098
0 0.946725 0.091483 4.01998
0 0.946639 0.0913282 2.59475
0 0.946672 0.0912146 2.1921
0 0.947103 0.100046 72.8877
0 0.946628 0.0910886 1.24277
0 0.946557 0.0910201 0.70286
0 0.94652 0.0915384 4.91911
0 0.946625 0.0915098 4.07618
0 0.946535 0.0910661 1.067
0 0.946535 0.0911979 1.97288
0 0.946983 0.0919008 6.17224
0 0.947134 0.0918052 3.39714
0 0.94671 0.0913815 3.08037
0 0.94683 0.0912138 1.90963
0 0.946783 0.100727 34.0529
0 0.94658 0.0912587 2.68711
0 0.946523 0.0915751 3.6124
0 0.94659 0.0913161 4.36035
0 0.946645 0.100578 20.3327
0 0.946597 0.0917714 4.17309
0 0.946813 0.0984488 75.0851
0 0.946667 0.0911586 1.51909
0 0.946649 0.0911279 1.17719
0 0.946646 0.0910082 0.704226
0 0.946926 0.0920442 10.861
0 0.946771 0.0931805 18.861
0 0.946605 0.0909718 0.22555
0 0.946598 0.0911768 1.93324
0 0.946662 0.0911552 1.63691
0 0.946601 0.0910196 0.663978
0 0.94693 0.0912282 1.07509
0 0.946942 0.0912767 2.88355
0 0.946726 0.0910177 0.289054
0 0.946812 0.0910512 0.662351
0 0.946683 0.108059 18.2194
0 0.946654 0.091042 1.50837
0 0.946642 0.0912397 2.63774
0 0.946667 0.0911176 2.52471
0 0.946728 0.0918534 2.61131
0 0.946699 0.0912856 1.81992
0 0.946871 0.102719 31.6583
0 0.946823 0.0922299 6.12881
0 0.9464 0.0994905 104.509
0 0.946635 0.0909753 0.40645
0 0.946668 0.0909719 0.278652
0 0.94666 0.0909998 0.719746
0 0.946883 0.0916712 6.56155
0 0.946754 0.0929688 13.6367
0 0.94684 0.0918086 7.61294
0 0.946622 0.09098 0.0961091
0 0.946643 0.0909941 0.389717
0 0.94666 0.0910154 0.390096
0 0.94664 0.090989 0.524905
0 0.946841 0.0910875 0.981745
0 0.946867 0.0912739 2.35322
0 0.946743 0.0909897 0.656914
0 0.946706 0.101496 3.06399
0 0.946689 0.0910339 1.25875
0 0.9467 0.0911032 1.58532
0 0.946742 0.0914314 0.470915
0 0.946721 0.0912068 1.0469
0 0.946649 0.0918447 2.18822
0 0.946689 0.0914325 1.43769
0 0.945978 0.101534 42.1296
0 0.946243 0.0922418 8.86066
0 0.94666 0.0909961 0.5902
0 0.946683 0.0910102 0.787456
0 0.946676 0.0910056 0.743427
0 0.946702 0.0910493 0.826242
0 0.945898 0.0994047 20.5463
0 0.946811 0.0918484 7.67617
0 0.946849 0.0913435 2.96092
0 0.946855 0.0916905 6.1315
0 0.946855 0.0914258 4.0156
0 0.946664 0.0909928 0.494654
0 0.946648 0.090983 0.441485
0 0.946686 0.0909938 0.646651
0 0.946664 0.0909748 0.542232
0 0.946796 0.0910469 0.673244
0 0.946736 0.0909778 0.674927
0 0.946854 0.103426 79.9666
0 0.946707 0.0910397 0.68643
0 0.946705 0.0912246 0.558831
0 0.94652 0.0914749 3.31606
0 0.946645 0.0912585 1.21775
0 0.946051 0.0922279 7.01738
0 0.946339 0.0912926 2.53963
0 0.945975 0.0920731 4.70359
0 0.946681 0.0910044 0.579004
0 0.946676 0.0909823 0.473954
0 0.946683 0.0910202 0.649887
0 0.946695 0.0910204 0.720835
0 0.946705 0.0910323 0.41293
0 0.946708 0.0910355 0.590858
0 0.946699 0.0910272 0.581373
0 0.945794 0.101097 148.393
0 0.946938 0.0918734 9.5458
0 0.946886 0.0913391 3.46035
0 0.946818 0.0910935 0.959049
0 0.946858 0.0912548 2.56094
0 0.946672 0.0909768 0.488903
0 0.946692 0.0909572 0.577402
0 0.946764 0.0909677 0.338497
0 0.946722 0.0909629 0.587118
0 0.946878 0.0918353 2.00102
0 0.946985 0.102069 37.7375
0 0.946677 0.0910447 0.159122
0 0.946568 0.0910984 1.41124
0 0.946235 0.0913047 2.1162
0 0.946469 0.0910386 1.72793
0 0.945958 0.0919078 7.20295
0 0.94621 0.0912186 0.822203
0 0.94669 0.0910798 0.337446
0 0.946688 0.0909747 0.439567
0 0.946694 0.0909967 0.471612
0 0.946708 0.0910355 0.566807
0 0.946714 0.0910544 0.482466
0 0.946714 0.0910938 0.476492
0 0.946716 0.091038 0.50199
0 0.946711 0.0910179 0.476653
0 0.946109 0.0921916 10.9122
0 0.94589 0.0997356 107.158
0 0.946779 0.090965 0.241841
0 0.946884 0.0912437 2.93266
0 0.946857 0.0911131 1.49073
0 0.946816 0.0910145 0.259541
0 0.946837 0.0912556 2.91407
0 0.946699 0.0909595 0.542244
0 0.946732 0.0909585 0.464778
0 0.946699 0.0909661 0.452544
0 0.946751 0.0909854 0.741555
0 0.946781 0.0919134 8.29512
0 0.946762 0.100727 41.8968
0 0.946621 0.0910488 0.291262
0 0.946467 0.0910636 0.844562
0 0.946252 0.0912694 2.36127
0 0.946437 0.0911407 0.716235
0 0.946332 0.0913045 2.9626
0 0.946677 0.0910854 0.345585
0 0.946704 0.0909782 0.406129
0 0.946725 0.0910641 0.520476
0 0.946722 0.0911124 0.529641
0 0.946727 0.0910443 0.547771
0 0.94672 0.0910215 0.527209
0 0.946219 0.0925366 8.18082
0 0.94611 0.108114 37.2882
0 0.946775 0.0910027 0.925491
0 0.946829 0.0910963 1.03672
0 0.946808 0.0910027 0.472208
0 0.946796 0.0913816 3.04207
0 0.946801 0.091215 1.73265
0 0.946711 0.0909539 0.49458
0 0.946725 0.0909735 0.67577
0 0.946708 0.09096 0.357827
0 0.946736 0.0910018 0.759445
0 0.946752 0.091039 0.779529
0 0.946783 0.0913886 3.40108
0 0.946822 0.0920051 9.46074
0 0.946813 0.103752 53.4452
0 0.946607 0.0911077 0.394395
0 0.946504 0.0911317 1.32619
0 0.946391 0.0913266 3.14026
0 0.94652 0.0911305 2.34395
0 0.946686 0.0910971 0.451518
0 0.946729 0.0911036 0.518259
0 0.946713 0.0909895 0.317512
0 0.946737 0.0910737 0.727405
0 0.946734 0.0910561 0.808393
0 0.94672 0.0910341 0.767924
0 0.946729 0.091054 0.945841
0 0.946423 0.0913678 2.31817
0 0.946235 0.0918606 3.71935
0 0.946135 0.10238 87.16
0 0.946775 0.0910883 0.886571
0 0.946772 0.0912568 1.64671
0 0.946754 0.0912601 1.51568
0 0.946741 0.0910451 0.657394
0 0.946716 0.0909624 0.183256
0 0.946724 0.0910092 0.352059
0 0.946747 0.0914265 1.68846
0 0.94679 0.0921951 6.33972
0 0.946828 0.097365 45.2206
0 0.946636 0.0910877 0.314682
0 0.94657 0.0910564 1.86275
0 0.946563 0.0911248 2.58761
0 0.946701 0.0910925 0.605549
0 0.946734 0.0910854 0.754649
0 0.946712 0.0910127 0.605351
0 0.946711 0.0910548 1.19975
0 0.946735 0.0910713 1.09782
0 0.946719 0.0910725 1.42204
0 0.946426 0.0913743 3.26957
0 0.946296 0.0918417 3.82971
0 0.94617 0.101726 56.3417
0 0.946737 0.0911157 0.673347
0 0.946723 0.0911676 0.484223
0 0.946715 0.0910175 0.271986
0 0.94671 0.0910022 0.454971
0 0.946689 0.0911365 1.11212
0 0.9467 0.0912762 1.32316
0 0.946709 0.0920659 7.18719
0 0.946761 0.100281 11.8862
0 0.946658 0.0910707 0.435582
0 0.946581 0.0911603 2.57746
0 0.946703 0.0910966 0.986475
0 0.946726 0.0910837 1.1099
0 0.946696 0.0910352 1.1191
0 0.946689 0.0910757 1.69654
0 0.946712 0.0910759 1.50104
0 0.946691 0.0910759 1.82836
0 0.94655 0.0913064 3.1614
0 0.946407 0.0915273 3.98692
0 0.946247 0.0924354 3.94027
0 0.946225 0.098398 52.32
0 0.946694 0.0909665 0.197684
0 0.946686 0.0910101 0.810899
0 0.946635 0.0910888 1.66153
0 0.946629 0.0914172 2.68468
0 0.946642 0.092062 10.1683
0 0.946647 0.101642 38.6224
0 0.946648 0.0911022 0.591852
0 0.946684 0.091038 0.676778
0 0.946654 0.091046 1.52519
0 0.946637 0.0910589 1.86071
0 0.946655 0.0910341 1.63425
0 0.946553 0.0913011 2.72527
0 0.946395 0.0915978 5.23427
0 0.946183 0.0926085 8.03288
0 0.946058 0.103428 55.236
0 0.946626 0.0910453 1.85253
0 0.946539 0.0912138 3.32071
0 0.946504 0.0913884 3.96283
0 0.946503 0.0923746 12.5973
0 0.946582 0.106437 180.119
0 0.946613 0.0910454 0.105116
0 0.946563 0.0911594 3.13641
0 0.946567 0.0910565 2.18297
0 0.946518 0.0913056 2.73218
0 0.946416 0.0915953 6.16657
0 0.946252 0.0920617 6.65592
0 0.9461 0.0995518 11.8529
0 0.94648 0.09131 4.24083
0 0.946358 0.0915394 4.53732
0 0.946291 0.0924964 5.50345
0 0.946325 0.103763 64.5692
0 0.946383 0.09147 4.98137
0 0.946496 0.0910852 0.986761
0 0.946408 0.0913379 4.10516
0 0.946415 0.0911795 2.38488
0 0.946408 0.0914733 4.48429
0 0.946358 0.0924952 15.0134
0 0.94625 0.101121 99.8515
0 0.94621 0.0915829 3.91171
0 0.946075 0.0925774 6.74066
0 0.946093 0.0990111 40.1682
0 0.946135 0.0916788 4.04454
0 0.946314 0.0913721 3.48129
0 0.946186 0.0913946 2.47871
0 0.946349 0.0925493 13.5951
0 0.946393 0.106759 143.775
0 0.945881 0.0922499 5.5731
0 0.945814 0.104382 20.1555
0 0.94587 0.0920806 4.5096
0 0.946099 0.0925457 7.46426
0 0.946231 0.100394 4.8915
0 0.945676 0.101432 132.895
0 0.945833 0.102748 97.35
VECTORS fa_u float
0.00718354 0.00298933 -0
0.00476917 0.00275792 -0
0.00544205 0.00147135 -0
0.00734703 0.00100042 -0
1e-08 0 0
0.00569386 0.00433996 -0
0.00457869 0.00455717 -0
1e-08 0 0
1e-08 0 0
0.00337003 0.00430195 -0
0.00449798 0.00767721 -0
0.00541409 4.21407e-05 -0
0.00796831 -0.000982125 0
1e-08 0 0
1e-08 0 0
1e-08 0 0
1e-08 0 0
1e-08 0 0
1e-08 0 0
1e-08 0 0
1e-08 0 0
0.00242645 0.00588799 -0
0.00185399 0.00699825 -0
1e-08 0 0
1e-08 0 0
1e-08 0 0
0.00676947 -0.00180835 0
1e-08 0 0
0.00699787 -0.00294054 0
1e-08 0 0
1e-08 0 0
1e-08 0 0
0.000791384 0.00614413 -0
1e-08 0 0
1e-08 0 0
1e-08 0 0
1e-08 0 0
1e-08 0 0
1e-08 0 0
1e-08 0 0
1e-08 0 0
1e-08 0 0
1e-08 0 0
-3.11788e-05 0.00752701 -0
1e-08 0 0
1e-08 0 0
1e-08 0 0
0.00601005 -0.00355684 0
1e-08 0 0
0.00448633 -0.00349071 0
1e-08 0 0
1e-08 0 0
1e-08 0 0
1e-08 0 0
1e-08 0 0
1e-08 0 0
1e-08 0 0
1e-08 0 0
1e-08 0 0
1e-08 0 0
1e-08 0 0
1e-08 0 0
1e-08 0 0
-0.000925518 0.00662017 0
1e-08 0 0
1e-08 0 0
1e-08 0 0
1e-08 0 0
1e-08 0 0
0.00478278 -0.0048022 0
1e-08 0 0
0.002987 -0.00383246 0
1e-08 0 0
1e-08 0 0
1e-08 0 0
1e-08 0 0
1e-08 0 0
1e-08 0 0
1e-08 0 0
1e-08 0 0
1e-08 0 0
1e-08 0 0
1e-08 0 0
1e-08 0 0
1e-08 0 0
-0.00128788 0.00483136 0
1e-08 0 0
1e-08 0 0
1e-08 0 0
1e-08 0 0
1e-08 0 0
1e-08 0 0
0.00406708 -0.00686131 0
1e-08 0 0
1e-08 0 0
1e-08 0 0
1e-08 0 0
1e-08 0 0
0.00329946 -0.00804966 0
1e-08 0 0
1e-08 0 0
1e-08 0 0
1e-08 0 0
1e-08 0 0
1e-08 0 0
1e-08 0 0
1e-08 0 0
1e-08 0 0
1e-08 0 0
-0.00290132 0.00711951 0
1e-08 0 0
1e-08 0 0
1e-08 0 0
1e-08 0 0
1e-08 0 0
1e-08 0 0
1e-08 0 0
1e-08 0 0
1e-08 0 0
1e-08 0 0
1e-08 0 0
1e-08 0 0
1e-08 0 0
1e-08 0 0
0.00146464 -0.00565591 0
1e-08 0 0
1e-08 0 0
1e-08 0 0
1e-08 0 0
1e-08 0 0
1e-08 0 0
1e-08 0 0
1e-08 0 0
1e-08 0 0
-0.00391407 0.00671622 0
1e-08 0 0
1e-08 0 0
1e-08 0 0
1e-08 0 0
1e-08 0 0
1e-08 0 0
1e-08 0 0
1e-08 0 0
1e-08 0 0
1e-08 0 0
1e-08 0 0
1e-08 0 0
1e-08 0 0
1e-08 0 0
1e-08 0 0
0.000677569 -0.00495363 0
1e-08 0 0
1e-08 0 0
1e-08 0 0
1e-08 0 0
1e-08 0 0
1e-08 0 0
1e-08 0 0
1e-08 0 0
1e-08 0 0
1e-08 0 0
-0.00373312 0.00480525 0
1e-08 0 0
1e-08 0 0
1e-08 0 0
1e-08 0 0
1e-08 0 0
1e-08 0 0
1e-08 0 0
1e-08 0 0
1e-08 0 0
1e-08 0 0
1e-08 0 0
1e-08 0 0
4.55541e-05 -0.00853932 0
1e-08 0 0
1e-08 0 0
1e-08 0 0
1e-08 0 0
1e-08 0 0
1e-08 0 0
1e-08 0 0
1e-08 0 0
1e-08 0 0
1e-08 0 0
1e-08 0 0
1e-08 0 0
-0.00387859 0.0039053 0
1e-08 0 0
1e-08 0 0
1e-08 0 0
1e-08 0 0
1e-08 0 0
1e-08 0 0
1e-08 0 0
1e-08 0 0
1e-08 0 0
1e-08 0 0
1e-08 0 0
1e-08 0 0
1e-08 0 0
-0.000676516 -0.00529838 0
1e-08 0 0
1e-08 0 0
1e-08 0 0
1e-08 0 0
1e-08 0 0
1e-08 0 0
1e-08 0 0
1e-08 0 0
-0.00476609 0.00375538 0
1e-08 0 0
1e-08 0 0
1e-08 0 0
1e-08 0 0
1e-08 0 0
1e-08 0 0
1e-08 0 0
1e-08 0 0
1e-08 0 0
1e-08 0 0
1e-08 0 0
-0.00208907 -0.00792077 0
1e-08 0 0
1e-08 0 0
1e-08 0 0
1e-08 0 0
1e-08 0 0
1e-08 0 0
1e-08 0 0
-0.00653066 0.00387423 0
1e-08 0 0
1e-08 0 0
1e-08 0 0
1e-08 0 0
1e-08 0 0
1e-08 0 0
1e-08 0 0
1e-08 0 0
1e-08 0 0
1e-08 0 0
1e-08 0 0
-0.00243789 -0.00586312 0
1e-08 0 0
1e-08 0 0
1e-08 0 0
1e-08 0 0
1e-08 0 0
-0.00898882 0.00366272 0
1e-08 0 0
1e-08 0 0
1e-08 0 0
1e-08 0 0
1e-08 0 0
1e-08 0 0
1e-08 0 0
1e-08 0 0
-0.00369169 -0.00635617 0
1e-08 0 0
1e-08 0 0
1e-08 0 0
1e-08 0 0
-0.00396932 0.00104296 0
1e-08 0 0
1e-08 0 0
1e-08 0 0
1e-08 0 0
1e-08 0 0
1e-08 0 0
-0.00470959 -0.00600991 0
1e-08 0 0
1e-08 0 0
1e-08 0 0
-0.00850057 0.00112637 0
1e-08 0 0
1e-08 0 0
1e-08 0 0
1e-08 0 0
1e-08 0 0
1e-08 0 0
-0.00337317 -0.00334577 0
1e-08 0 0
1e-08 0 0
-0.00661069 -4.85272e-05 0
1e-08 0 0
1e-08 0 0
1e-08 0 0
1e-08 0 0
-0.00583877 -0.00451001 0
1e-08 0 0
-0.00643557 -0.00088641 0
1e-08 0 0
1e-08 0 0
-0.00593556 -0.00342088 0
-0.0054089 -0.00144366 0
-0.0067072 -0.00274612 0
