# vtk DataFile Version 2.0
CellBP Time: 7.88
ASCII
DATASET UNSTRUCTURED_GRID
POINTS 296 double
-8.92793 -3.66246 0
-8.35684 -4.80093 0
-9.33376 -2.45453 0
-9.58896 -1.21455 0
-8.25949 -2.77504 0
-7.65516 -5.86554 0
-6.80745 -6.81599 0
-7.81921 -3.81928 0
-7.24875 -4.80724 0
-5.86634 -7.66581 0
-4.82039 -8.37862 0
-9.67123 0.0466424 0
-9.60402 1.31606 0
-8.56664 -1.65855 0
-8.70189 -0.5217 0
-7.49416 -1.96949 0
-7.12772 -2.85843 0
-6.56177 -5.71909 0
-5.76421 -6.53843 0
-6.69618 -3.83083 0
-6.13885 -4.61709 0
-3.67888 -8.94062 0
-2.46949 -9.34913 0
-4.86664 -7.25204 0
-3.89127 -7.83108 0
-8.71535 0.634459 0
-9.36879 2.57297 0
-8.5541 1.75392 0
-8.94659 3.77468 0
-7.65525 -0.910942 0
-7.71153 0.0833145 0
-6.86712 -1.29207 0
-1.21551 -9.59679 0
-6.36349 -2.12046 0
-6.24009 -3.01138 0
-5.47109 -5.4168 0
-4.74582 -6.05893 0
-5.58872 -3.70882 0
-5.20172 -4.50687 0
-2.84846 -8.3033 0
-1.76339 -8.57429 0
-3.89479 -6.66846 0
-3.03831 -7.09899 0
0.0524027 -9.67696 0
-7.62867 1.13127 0
-8.2797 2.8937 0
-7.48082 2.08688 0
-8.3775 4.9122 0
-7.81127 3.94203 0
-7.65817 5.96423 0
-6.70095 -0.387083 0
-6.87906 0.55002 0
-5.71293 -0.991079 0
-0.584728 -8.73583 0
0.555527 -8.68669 0
-5.24837 -2.44985 0
-4.43662 -5.04054 0
-3.86026 -5.72047 0
-4.39318 -3.7651 0
-2.04679 -7.50285 0
-1.12684 -7.72003 0
-2.96678 -6.0488 0
-2.29298 -6.56664 0
1.31351 -9.57775 0
-6.6216 1.40562 0
-7.10025 3.08414 0
-6.59282 2.347 0
-7.22281 4.938 0
-6.65006 3.95867 0
-6.81693 6.91368 0
-6.5064 5.83184 0
-5.86295 7.755 0
-4.42216 -1.17408 0
-5.76178 0.504894 0
-4.62469 -0.0170686 0
0.00169504 -7.7718 0
1.7121 -8.54956 0
0.928886 -7.67901 0
-4.00999 -2.38592 0
-3.47437 -1.38693 0
-3.26545 -4.76249 0
-3.24738 -3.24295 0
-1.37189 -6.61545 0
-0.512386 -6.956 0
-1.96192 -5.49345 0
2.55893 -9.32568 0
-5.45735 2.01902 0
-6.03344 3.03763 0
-6.04233 4.81428 0
-5.70175 3.94341 0
-5.7022 6.64321 0
-5.39479 5.55387 0
-4.81692 8.47826 0
-4.78709 7.32048 0
-3.48655 -0.423193 0
-4.41589 1.23953 0
-3.69003 0.58878 0
-4.02989 2.30908 0
-3.68071 9.04463 0
2.81917 -8.22992 0
0.402238 -6.71889 0
1.98615 -7.43273 0
1.27699 -6.82077 0
-2.43882 -0.869194 0
-2.82909 -2.12063 0
-2.28274 -4.06786 0
-2.31604 -2.95552 0
-0.445866 -5.80455 0
-1.2131 -4.46785 0
3.7682 -8.93027 0
-4.74464 3.35922 0
-5.03483 4.53979 0
-4.59649 6.20592 0
-4.49036 5.2956 0
-3.80869 7.91461 0
-3.78268 6.76094 0
-2.75346 8.33492 0
-1.64656 -0.133684 0
-1.44691 -0.886609 0
-2.48396 0.511094 0
-3.23503 1.4407 0
-3.21422 3.29379 0
-2.89346 2.36647 0
-1.35488 0.63122 0
-2.47129 9.4431 0
3.87922 -7.78878 0
2.91407 -7.05757 0
0.933482 -5.75608 0
2.0365 -6.33116 0
-1.677 -1.9855 0
-1.42663 -3.25852 0
0.0863313 -4.70599 0
-0.559852 -3.6728 0
4.87064 -7.22552 0
4.90655 -8.36692 0
-3.74117 4.50536 0
-3.69547 5.68598 0
-2.85333 7.20474 0
-2.97718 6.28144 0
-1.64479 8.65067 0
-1.91615 7.53935 0
-2.32291 4.02165 0
-0.728503 -1.32383 0
-0.836384 -0.253987 0
-1.93394 1.68394 0
-2.11685 2.86648 0
-1.30374 3.52834 0
-0.87194 1.35469 0
-0.284685 0.459234 0
-0.527564 8.7959 0
-1.22008 9.69078 0
1.09713 -4.5293 0
3.84843 -6.61531 0
2.94058 -6.00953 0
2.08506 -5.35766 0
4.72232 -6.1165 0
-0.554925 -2.46769 0
0.493319 -3.44222 0
0.0542287 -1.60765 0
1.46661 -3.64961 0
5.80265 -6.53203 0
5.95922 -7.65121 0
-2.45324 5.29606 0
-2.10498 6.46357 0
-0.891355 7.72979 0
-1.25335 6.8599 0
0.0885296 7.81345 0
-1.13831 4.46324 0
0.148837 -0.614803 0
-0.801789 2.48912 0
-0.337349 3.58828 0
0.0581544 1.51457 0
0.736686 0.474462 0
0.640535 8.80699 0
0.046988 9.77817 0
2.35148 -4.23618 0
3.80595 -5.55933 0
2.9593 -5.14337 0
5.51379 -5.42055 0
4.63277 -5.20555 0
0.630139 -2.28872 0
1.24775 -2.93312 0
0.755867 -1.38929 0
2.1453 -3.1097 0
2.96454 -3.44058 0
6.09761 -4.73564 0
6.59391 -5.70586 0
6.92143 -6.8139 0
-1.00788 5.76727 0
-0.362765 6.8181 0
1.1146 7.71055 0
0.557692 7.01995 0
-0.00374875 4.69553 0
0.598875 3.81011 0
1.3347 -0.641439 0
0.531821 2.64519 0
0.958939 1.57483 0
1.9032 0.212602 0
1.60697 1.06385 0
2.11638 7.52894 0
1.78694 8.6498 0
1.3183 9.69763 0
3.77957 -4.29559 0
5.06108 -4.38653 0
5.79181 -3.88695 0
3.74963 -3.16731 0
1.80476 -1.87923 0
2.99642 -2.55529 0
6.72897 -3.90942 0
7.32295 -4.85223 0
7.75988 -5.86062 0
0.481941 5.83503 0
1.41995 6.6899 0
2.36004 6.62064 0
1.2002 4.52935 0
1.47848 3.38103 0
2.42468 -0.69046 0
2.81477 0.142668 0
1.77928 2.15726 0
2.60172 1.14685 0
3.05385 7.11886 0
2.88897 8.31856 0
2.57243 9.45355 0
4.86584 -3.28728 0
6.06998 -3.07435 0
4.1419 -2.2579 0
3.22498 -1.4967 0
6.68342 -2.29563 0
7.18111 -3.02081 0
7.91051 -3.88671 0
8.47725 -4.81773 0
2.01169 5.56015 0
3.05786 6.1041 0
2.3521 4.1002 0
2.40867 3.04424 0
3.50543 -0.457014 0
3.59637 0.614138 0
2.94634 2.27635 0
3.52316 1.51801 0
3.96904 5.84643 0
3.9509 6.7403 0
3.95172 7.88447 0
3.78376 9.04928 0
5.52817 -1.90027 0
4.47953 -1.12102 0
6.66259 -1.32475 0
7.53872 -2.02031 0
8.34006 -2.84312 0
9.05097 -3.68415 0
3.38373 4.83515 0
3.31149 3.35951 0
4.65913 0.132472 0
4.48112 1.29914 0
4.02751 2.42251 0
4.51294 5.10052 0
4.79309 6.1366 0
4.94026 7.32441 0
4.92464 8.48461 0
5.83457 -0.433389 0
6.95034 -0.487361 0
7.70161 -1.0734 0
8.62343 -1.73043 0
9.44944 -2.47016 0
4.49935 3.78853 0
5.75844 1.08201 0
5.30899 2.50398 0
5.30753 4.56752 0
5.54527 5.4682 0
5.83808 6.61419 0
5.96943 7.76985 0
6.77741 0.450887 0
7.78511 -0.0278297 0
8.79336 -0.575129 0
9.70416 -1.21624 0
6.88291 1.32533 0
5.64562 3.73164 0
6.46129 2.16318 0
6.29619 3.04412 0
6.20865 4.63086 0
6.61584 5.77885 0
6.9179 6.92451 0
7.70701 0.951842 0
8.7812 0.566316 0
9.77916 0.0542031 0
7.52974 1.97404 0
6.73178 3.84818 0
7.17562 2.90254 0
7.29167 4.83114 0
7.76173 5.96837 0
8.63418 1.70472 0
9.68007 1.3161 0
8.32315 2.79974 0
7.89133 3.86939 0
8.46596 4.9081 0
9.43122 2.56292 0
9.03564 3.77168 0
CELLS 542 2168
3 2 0 4
3 0 1 7
3 4 0 7
3 1 5 8
3 7 1 8
3 3 2 13
3 13 2 4
3 11 3 14
3 14 3 13
3 13 4 15
3 4 7 16
3 15 4 16
3 5 6 17
3 8 5 17
3 6 9 18
3 17 6 18
3 7 8 19
3 16 7 19
3 8 17 20
3 19 8 20
3 9 10 23
3 18 9 23
3 10 21 24
3 23 10 24
3 12 11 25
3 25 11 14
3 26 12 27
3 27 12 25
3 14 13 29
3 29 13 15
3 25 14 30
3 30 14 29
3 29 15 31
3 15 16 33
3 31 15 33
3 16 19 34
3 33 16 34
3 17 18 35
3 20 17 35
3 18 23 36
3 35 18 36
3 19 20 37
3 34 19 37
3 20 35 38
3 37 20 38
3 21 22 39
3 24 21 39
3 22 32 40
3 39 22 40
3 23 24 41
3 36 23 41
3 24 39 42
3 41 24 42
3 27 25 44
3 44 25 30
3 28 26 45
3 45 26 27
3 45 27 46
3 46 27 44
3 47 28 48
3 48 28 45
3 30 29 50
3 50 29 31
3 44 30 51
3 51 30 50
3 50 31 52
3 31 33 52
3 32 43 53
3 40 32 53
3 53 43 54
3 33 34 55
3 34 37 55
3 33 55 52
3 35 36 56
3 38 35 56
3 36 41 57
3 56 36 57
3 37 38 58
3 38 56 58
3 37 58 55
3 39 40 59
3 42 39 59
3 40 53 60
3 59 40 60
3 41 42 61
3 57 41 61
3 42 59 62
3 61 42 62
3 43 63 54
3 46 44 64
3 64 44 51
3 48 45 65
3 65 45 46
3 65 46 66
3 66 46 64
3 49 47 67
3 67 47 48
3 67 48 68
3 68 48 65
3 69 49 70
3 70 49 67
3 52 55 72
3 64 51 73
3 51 50 73
3 50 52 73
3 73 52 74
3 74 52 72
3 53 54 75
3 60 53 75
3 54 63 76
3 54 76 77
3 75 54 77
3 55 58 78
3 72 55 78
3 72 78 79
3 56 57 80
3 57 61 80
3 56 80 58
3 58 80 81
3 78 58 81
3 59 60 82
3 62 59 82
3 60 75 83
3 82 60 83
3 61 62 84
3 62 82 84
3 61 84 80
3 63 85 76
3 66 64 86
3 64 73 86
3 68 65 87
3 87 65 66
3 87 66 86
3 70 67 88
3 88 67 68
3 88 68 89
3 89 68 87
3 71 69 90
3 90 69 70
3 90 70 91
3 91 70 88
3 92 71 93
3 93 71 90
3 74 72 94
3 94 72 79
3 86 73 95
3 95 73 74
3 95 74 96
3 96 74 94
3 97 86 95
3 76 85 99
3 75 77 100
3 83 75 100
3 76 99 101
3 77 76 101
3 77 101 102
3 100 77 102
3 94 79 103
3 78 81 104
3 79 78 104
3 79 104 103
3 80 84 105
3 81 80 105
3 81 105 106
3 104 81 106
3 82 83 107
3 83 100 107
3 82 107 84
3 84 107 108
3 105 84 108
3 85 109 99
3 89 87 110
3 87 86 110
3 110 86 97
3 91 88 111
3 111 88 89
3 111 89 110
3 93 90 112
3 112 90 91
3 112 91 113
3 113 91 111
3 98 92 114
3 114 92 93
3 114 93 115
3 115 93 112
3 116 98 114
3 117 103 118
3 96 94 119
3 94 103 119
3 119 103 117
3 97 95 120
3 120 95 96
3 120 96 119
3 121 110 97
3 121 97 122
3 122 97 120
3 123 119 117
3 124 98 116
3 99 109 125
3 99 125 126
3 101 99 126
3 100 102 127
3 100 127 107
3 101 126 128
3 102 101 128
3 102 128 127
3 104 106 129
3 104 129 103
3 103 129 118
3 105 108 130
3 106 105 130
3 106 130 129
3 107 127 131
3 108 107 131
3 108 131 132
3 108 132 130
3 109 134 125
3 125 134 133
3 113 111 135
3 111 110 135
3 135 110 121
3 115 112 136
3 136 112 113
3 136 113 135
3 116 114 137
3 137 114 115
3 137 115 138
3 138 115 136
3 139 124 116
3 139 116 140
3 140 116 137
3 141 135 121
3 118 129 142
3 118 142 143
3 117 118 143
3 123 117 143
3 122 120 144
3 120 119 144
3 144 119 123
3 141 121 145
3 145 121 122
3 145 122 144
3 146 141 145
3 147 144 123
3 147 123 148
3 143 148 123
3 150 124 139
3 149 150 139
3 131 127 151
3 125 133 152
3 126 125 152
3 126 152 153
3 128 126 153
3 128 153 154
3 128 154 127
3 127 154 151
3 152 133 155
3 130 132 156
3 130 156 129
3 129 156 142
3 131 151 157
3 132 131 157
3 132 157 156
3 156 158 142
3 157 151 159
3 133 160 155
3 134 161 133
3 133 161 160
3 138 136 162
3 136 135 162
3 162 135 141
3 140 137 163
3 163 137 138
3 163 138 162
3 149 139 164
3 164 139 140
3 164 140 165
3 165 140 163
3 166 149 164
3 167 162 141
3 167 141 146
3 142 158 168
3 143 142 168
3 143 168 148
3 146 145 169
3 145 144 169
3 169 144 147
3 170 167 146
3 170 146 169
3 171 169 147
3 171 147 148
3 171 148 172
3 168 172 148
3 173 149 166
3 174 150 149
3 173 174 149
3 154 175 151
3 151 175 159
3 152 155 176
3 153 152 176
3 153 176 177
3 153 177 154
3 154 177 175
3 155 160 178
3 155 178 179
3 176 155 179
3 156 157 180
3 156 180 158
3 157 159 181
3 157 181 180
3 158 180 182
3 158 182 168
3 159 175 183
3 159 183 181
3 175 184 183
3 160 186 178
3 178 186 185
3 161 187 160
3 160 187 186
3 165 163 188
3 163 162 188
3 188 162 167
3 166 164 189
3 189 164 165
3 189 165 188
3 190 173 166
3 190 166 191
3 191 166 189
3 192 188 167
3 192 167 170
3 193 192 170
3 182 194 168
3 194 172 168
3 193 170 195
3 170 169 195
3 195 169 171
3 196 195 171
3 196 171 172
3 194 197 172
3 197 198 172
3 198 196 172
3 200 173 190
3 199 200 190
3 201 174 173
3 200 201 173
3 176 179 202
3 177 176 202
3 177 202 175
3 175 202 184
3 178 185 203
3 178 203 179
3 179 203 202
3 203 185 204
3 202 205 184
3 183 206 181
3 180 181 206
3 180 206 182
3 182 206 194
3 183 184 207
3 205 207 184
3 183 207 206
3 185 208 204
3 186 209 185
3 185 209 208
3 187 210 186
3 186 210 209
3 191 189 211
3 189 188 211
3 211 188 192
3 199 190 212
3 212 190 191
3 212 191 211
3 213 199 212
3 214 211 192
3 214 192 193
3 215 214 193
3 215 193 195
3 206 216 194
3 216 197 194
3 216 217 197
3 215 195 218
3 218 195 196
3 198 218 196
3 217 219 197
3 219 218 198
3 197 219 198
3 220 199 213
3 221 200 199
3 220 221 199
3 222 201 200
3 221 222 200
3 203 204 223
3 203 223 202
3 202 223 205
3 204 208 224
3 204 224 223
3 205 223 225
3 205 225 207
3 207 225 226
3 207 226 206
3 226 216 206
3 208 228 224
3 224 228 227
3 209 229 208
3 229 228 208
3 210 230 209
3 209 230 229
3 213 212 231
3 212 211 231
3 231 211 214
3 232 220 213
3 232 213 231
3 233 231 214
3 233 214 215
3 234 233 215
3 234 215 218
3 226 235 216
3 235 217 216
3 235 236 217
3 217 236 219
3 237 234 218
3 237 218 219
3 236 238 219
3 238 237 219
3 240 220 232
3 239 240 232
3 241 221 220
3 240 241 220
3 242 222 221
3 241 242 221
3 224 227 243
3 224 243 223
3 223 243 225
3 225 243 244
3 225 244 226
3 226 244 235
3 227 245 243
3 228 246 227
3 227 246 245
3 229 247 228
3 228 247 246
3 230 248 229
3 229 248 247
3 239 232 249
3 232 231 249
3 249 231 233
3 250 249 233
3 250 233 234
3 237 250 234
3 244 251 235
3 235 251 236
3 251 252 236
3 236 252 238
3 252 253 238
3 253 250 237
3 253 237 238
3 254 239 249
3 255 240 239
3 254 255 239
3 256 241 240
3 255 256 240
3 257 242 241
3 256 257 241
3 245 258 243
3 243 258 244
3 244 258 251
3 245 259 258
3 246 260 245
3 245 260 259
3 247 261 246
3 246 261 260
3 248 262 247
3 247 262 261
3 254 249 263
3 263 249 250
3 253 263 250
3 258 264 251
3 251 264 252
3 264 265 252
3 265 263 253
3 252 265 253
3 266 254 263
3 267 255 254
3 266 267 254
3 268 256 255
3 267 268 255
3 269 257 256
3 268 269 256
3 259 270 258
3 270 264 258
3 260 271 259
3 259 271 270
3 261 272 260
3 260 272 271
3 262 273 261
3 273 272 261
3 270 274 264
3 275 266 263
3 275 263 265
3 274 276 264
3 276 265 264
3 276 277 265
3 277 275 265
3 278 267 266
3 275 278 266
3 279 268 267
3 278 279 267
3 280 269 268
3 279 280 268
3 271 281 270
3 270 281 274
3 272 282 271
3 271 282 281
3 273 283 272
3 272 283 282
3 281 284 274
3 274 284 276
3 285 278 275
3 277 285 275
3 284 286 276
3 286 285 277
3 276 286 277
3 287 279 278
3 285 287 278
3 288 280 279
3 287 288 279
3 282 289 281
3 281 289 284
3 283 290 282
3 282 290 289
3 289 291 284
3 284 291 286
3 291 292 286
3 292 287 285
3 286 292 285
3 293 288 287
3 292 293 287
3 290 294 289
3 289 294 291
3 294 295 291
3 295 293 292
3 291 295 292
CELL_TYPES 542
5
5
5
5
5
5
5
5
5
5
5
5
5
5
5
5
5
5
5
5
5
5
5
5
5
5
5
5
5
5
5
5
5
5
5
5
5
5
5
5
5
5
5
5
5
5
5
5
5
5
5
5
5
5
5
5
5
5
5
5
5
5
5
5
5
5
5
5
5
5
5
5
5
5
5
5
5
5
5
5
5
5
5
5
5
5
5
5
5
5
5
5
5
5
5
5
5
5
5
5
5
5
5
5
5
5
5
5
5
5
5
5
5
5
5
5
5
5
5
5
5
5
5
5
5
5
5
5
5
5
5
5
5
5
5
5
5
5
5
5
5
5
5
5
5
5
5
5
5
5
5
5
5
5
5
5
5
5
5
5
5
5
5
5
5
5
5
5
5
5
5
5
5
5
5
5
5
5
5
5
5
5
5
5
5
5
5
5
5
5
5
5
5
5
5
5
5
5
5
5
5
5
5
5
5
5
5
5
5
5
5
5
5
5
5
5
5
5
5
5
5
5
5
5
5
5
5
5
5
5
5
5
5
5
5
5
5
5
5
5
5
5
5
5
5
5
5
5
5
5
5
5
5
5
5
5
5
5
5
5
5
5
5
5
5
5
5
5
5
5
5
5
5
5
5
5
5
5
5
5
5
5
5
5
5
5
5
5
5
5
5
5
5
5
5
5
5
5
5
5
5
5
5
5
5
5
5
5
5
5
5
5
5
5
5
5
5
5
5
5
5
5
5
5
5
5
5
5
5
5
5
5
5
5
5
5
5
5
5
5
5
5
5
5
5
5
5
5
5
5
5
5
5
5
5
5
5
5
5
5
5
5
5
5
5
5
5
5
5
5
5
5
5
5
5
5
5
5
5
5
5
5
5
5
5
5
5
5
5
5
5
5
5
5
5
5
5
5
5
5
5
5
5
5
5
5
5
5
5
5
5
5
5
5
5
5
5
5
5
5
5
5
5
5
5
5
5
5
5
5
5
5
5
5
5
5
5
5
5
5
5
5
5
5
5
5
5
5
5
5
5
5
5
5
5
5
5
5
5
5
5
5
5
5
5
5
5
5
5
5
5
5
5
5
5
5
5
5
5
5
5
5
5
5
5
5
5
5
5
5
5
5
5
5
5
5
5
5
5
5
5
5
5
5
5
5
5
5
5
5
5
5
5
5
5
5
5
5
5
5
5
5
5
5
5
5
5
5
5
5
5
5
5
5
5
5
5
5
5
5
5
5
POINT_DATA 296
SCALARS concentrations float 4
LOOKUP_TABLE default
0 0.945476 0.100853 21.8548
0 0.945505 0.108092 117.794
0 0.945556 0.106547 50.9549
0 0.94571 0.0972221 5.72469
0 0.945485 0.0930265 11.5809
0 0.945232 0.101304 11.5438
0 0.945165 0.100524 118.572
0 0.945482 0.0924819 9.46654
0 0.945365 0.0928227 8.97056
0 0.945093 0.0972474 83.5228
0 0.944865 0.100313 12.9535
0 0.945663 0.10706 99.8937
0 0.945351 0.0974864 9.15354
0 0.945591 0.0923935 10.4103
0 0.945631 0.0924467 11.11
0 0.9455 0.0916574 2.97404
0 0.945465 0.0915587 0.986008
0 0.945204 0.0923314 4.15784
0 0.945173 0.0921487 6.22057
0 0.945403 0.0914626 0.516606
0 0.945315 0.0914801 1.64132
0 0.944816 0.0968748 7.1149
0 0.945045 0.10496 152.403
0 0.945047 0.0921204 3.44445
0 0.944922 0.0919899 5.22663
0 0.945477 0.0928331 11.0617
0 0.945122 0.102594 24.7042
0 0.94524 0.0927386 9.34778
0 0.945311 0.100033 74.1742
0 0.945525 0.091775 5.05563
0 0.945468 0.0916291 4.84558
0 0.945479 0.0914912 3.3237
0 0.945423 0.0997069 17.3566
0 0.945466 0.0912662 1.71962
0 0.945438 0.0911897 0.745101
0 0.94525 0.0913971 1.04991
0 0.945195 0.0913653 1.85631
0 0.945402 0.0911408 1.04955
0 0.945345 0.0912512 1.44433
0 0.944988 0.092497 10.7392
0 0.945239 0.092721 10.7214
0 0.945134 0.0914256 0.925986
0 0.945106 0.0915124 2.28284
0 0.945523 0.0967446 10.0187
0 0.945365 0.0916396 4.28405
0 0.945229 0.0923398 5.02837
0 0.945301 0.091461 1.53456
0 0.945627 0.104185 23.9245
0 0.945445 0.0924678 6.62315
0 0.945929 0.10153 0.086806
0 0.945459 0.0914327 3.86895
0 0.945415 0.0913707 3.66976
0 0.945463 0.0911555 1.9407
0 0.945437 0.0918799 3.89057
0 0.945426 0.0918534 9.03702
0 0.945451 0.0910156 0.801549
0 0.945325 0.0912222 1.83667
0 0.945275 0.0912312 1.83478
0 0.945416 0.0910684 1.29847
0 0.945188 0.0914124 3.81145
0 0.945306 0.0914625 3.2197
0 0.945277 0.0911975 1.45817
0 0.945262 0.0911732 0.716206
0 0.945405 0.102397 93.6926
0 0.945383 0.0911201 1.81323
0 0.945354 0.0914621 2.27839
0 0.94537 0.0912106 1.36511
0 0.945703 0.0921784 6.84406
0 0.945494 0.0914046 0.506915
0 0.945998 0.0985262 36.9459
0 0.945856 0.0920694 5.86063
0 0.946027 0.0978463 9.43942
0 0.945475 0.0910337 1.15512
0 0.945439 0.0910687 1.47472
0 0.945469 0.0910297 0.898246
0 0.945367 0.0912609 4.00549
0 0.945288 0.0919833 11.3413
0 0.945329 0.0912208 3.1136
0 0.945469 0.0910059 1.06441
0 0.9455 0.0909896 0.788813
0 0.945385 0.09111 1.6729
0 0.945454 0.0910514 1.47764
0 0.945323 0.0910906 0.554217
0 0.94535 0.0911508 1.45048
0 0.94538 0.0910761 1.29193
0 0.945179 0.0976021 32.0158
0 0.945428 0.0910487 0.587788
0 0.945425 0.0912557 1.67263
0 0.945619 0.0914563 1.85134
0 0.945489 0.0913441 1.74899
0 0.945899 0.0918938 4.07981
0 0.94569 0.0913483 1.15533
0 0.945848 0.0969681 65.1687
0 0.945837 0.0915214 2.32241
0 0.945501 0.0909792 0.541958
0 0.945457 0.0909853 0.188206
0 0.945491 0.0909814 0.341762
0 0.945462 0.0910489 0.579026
0 0.945548 0.105283 79.4976
0 0.945108 0.0919327 3.12485
0 0.945365 0.0911135 1.34142
0 0.945244 0.0913625 3.2113
0 0.94533 0.0911769 1.72508
0 0.945526 0.0909622 0.373415
0 0.945505 0.0910084 1.13583
0 0.945448 0.0910877 1.51128
0 0.945499 0.0910511 1.50434
0 0.945399 0.091048 0.639956
0 0.945451 0.0910917 1.36104
0 0.944949 0.100136 17.4502
0 0.945462 0.0911357 1.22712
0 0.94553 0.0912886 1.77518
0 0.945686 0.0913509 2.15114
0 0.945563 0.0912795 1.61001
0 0.945646 0.0918478 9.38181
0 0.945596 0.0911271 1.84634
0 0.945338 0.0920218 8.17919
0 0.945542 0.0909597 0.126678
0 0.94555 0.0909773 0.603673
0 0.945518 0.0909734 0.43142
0 0.945492 0.0909967 0.439178
0 0.945473 0.0910591 1.03481
0 0.945489 0.0910486 0.768682
0 0.945543 0.0909752 0.40286
0 0.945186 0.104591 49.4259
0 0.944991 0.092177 3.51694
0 0.945177 0.0914834 3.01224
0 0.945399 0.0910843 1.21267
0 0.94531 0.0912308 1.99577
0 0.945535 0.0910015 1.05252
0 0.945507 0.0910608 1.47669
0 0.94546 0.0910733 1.31663
0 0.945506 0.0910807 1.42731
0 0.945125 0.0920472 5.73895
0 0.944901 0.0988445 56.6805
0 0.945482 0.0910955 1.16667
0 0.945519 0.091153 1.04382
0 0.945445 0.0912148 2.13214
0 0.945466 0.0910621 0.307781
0 0.945274 0.0922109 6.14094
0 0.945331 0.0913437 3.34262
0 0.945469 0.0910634 1.18004
0 0.945563 0.0909996 0.823679
0 0.945564 0.0909806 0.261665
0 0.945517 0.0910113 0.867042
0 0.945495 0.0910527 1.11591
0 0.945487 0.0910599 1.38348
0 0.945542 0.0909938 0.583083
0 0.945565 0.0909883 0.134481
0 0.9453 0.0922296 10.4283
0 0.945365 0.101578 79.4907
0 0.945461 0.0910655 1.36799
0 0.945193 0.0914235 2.41209
0 0.945297 0.0912898 2.37182
0 0.945401 0.0911233 1.78105
0 0.945338 0.0913419 3.41272
0 0.945544 0.0910348 1.23401
0 0.945519 0.0910684 1.35894
0 0.945571 0.0910227 0.93117
0 0.945507 0.0910626 1.39887
0 0.945535 0.0920203 7.05271
0 0.945312 0.0970481 51.817
0 0.945448 0.091051 0.778923
0 0.945396 0.0911216 0.623932
0 0.945294 0.0914496 3.76238
0 0.945345 0.0912556 1.39798
0 0.945291 0.0914767 5.30544
0 0.945451 0.0910553 1.14592
0 0.945578 0.0909981 0.380996
0 0.94552 0.0910272 1.04324
0 0.945493 0.0910862 1.48113
0 0.945553 0.0910261 0.671744
0 0.945578 0.0910047 0.293237
0 0.945235 0.0919508 7.52274
0 0.945213 0.103204 76.2055
0 0.945466 0.0910497 1.28456
0 0.945348 0.0911449 1.73023
0 0.945403 0.0911096 1.72351
0 0.945502 0.091406 4.80824
0 0.945415 0.0911131 2.56434
0 0.945561 0.0910397 1.04117
0 0.945549 0.0910344 1.11029
0 0.94558 0.0910167 0.650091
0 0.945532 0.0910277 0.95516
0 0.945498 0.0910334 0.711329
0 0.94556 0.091573 6.89212
0 0.94576 0.0924374 10.0278
0 0.945842 0.102394 65.2371
0 0.945406 0.0910897 0.448349
0 0.945346 0.0912794 1.91399
0 0.94532 0.0914802 6.16552
0 0.945348 0.091292 3.13309
0 0.945448 0.0910846 1.21292
0 0.945497 0.091064 1.4056
0 0.945585 0.0909873 0.100657
0 0.945533 0.0910372 1.09749
0 0.945563 0.0910584 0.795115
0 0.945588 0.091022 0.463425
0 0.945578 0.0910548 0.7443
0 0.945386 0.0913362 4.35161
0 0.945364 0.0923188 14.4962
0 0.945282 0.0987838 59.2735
0 0.94545 0.0910086 1.01363
0 0.945472 0.091158 3.39233
0 0.945485 0.0913096 4.17234
0 0.945502 0.0910171 0.61348
0 0.94557 0.0910199 0.631512
0 0.945545 0.0910503 0.758725
0 0.945493 0.0917206 6.79718
0 0.945682 0.0921379 13.712
0 0.945863 0.102388 68.2828
0 0.945412 0.0911104 0.840616
0 0.945394 0.0911515 1.80882
0 0.945434 0.091184 1.22271
0 0.945471 0.0910547 1.20108
0 0.945522 0.0910408 1.3281
0 0.945585 0.0910239 0.087468
0 0.94559 0.0910586 0.466022
0 0.945558 0.0910787 1.06656
0 0.945582 0.0910908 1.02663
0 0.945456 0.0915253 4.44871
0 0.945418 0.0924992 15.6195
0 0.945429 0.107826 96.6488
0 0.945489 0.0910323 1.6425
0 0.945474 0.0912212 2.58499
0 0.945532 0.0910805 1.17774
0 0.945568 0.0910766 0.816114
0 0.945471 0.0912768 2.48651
0 0.945432 0.0916682 5.11158
0 0.945457 0.0927311 14.9886
0 0.945666 0.104585 123.579
0 0.945462 0.0910495 0.881462
0 0.945482 0.0912487 2.03905
0 0.945507 0.091041 1.38878
0 0.945542 0.0910697 1.42653
0 0.945582 0.0910694 0.343806
0 0.945587 0.0910925 0.574567
0 0.945566 0.0911101 1.34941
0 0.945581 0.0911337 1.10137
0 0.945508 0.0914348 3.18711
0 0.9455 0.0916643 5.35045
0 0.945487 0.092655 13.6092
0 0.945424 0.10442 78.4536
0 0.945516 0.0910256 0.868123
0 0.945559 0.0910997 1.07981
0 0.94551 0.0911339 2.11549
0 0.94544 0.0917345 4.92156
0 0.945359 0.0927526 8.14466
0 0.945311 0.105585 32.9573
0 0.945513 0.0911255 1.5922
0 0.945542 0.0910843 1.34245
0 0.945581 0.0910969 0.639211
0 0.945585 0.0910987 0.521511
0 0.945568 0.0911582 1.31987
0 0.945526 0.0913482 2.06037
0 0.945531 0.0916269 4.10025
0 0.945545 0.0924899 11.2599
0 0.945564 0.103172 61.7861
0 0.945563 0.0910551 0.861368
0 0.945562 0.09119 2.90379
0 0.945514 0.0915007 4.13813
0 0.94545 0.0921623 6.31095
0 0.945397 0.0973215 56.8713
0 0.945547 0.0911237 1.23549
0 0.945595 0.0910587 0.352581
0 0.94558 0.0911186 1.12263
0 0.945536 0.091259 0.927147
0 0.945532 0.0915314 1.74531
0 0.945562 0.0918412 7.1483
0 0.945554 0.0959372 41.8844
0 0.945608 0.0911117 2.12978
0 0.945615 0.0914697 5.13381
0 0.945526 0.0922593 9.52316
0 0.945448 0.0989912 51.0401
0 0.945645 0.0910581 1.03758
0 0.94556 0.0911342 1.27751
0 0.945623 0.0910277 0.413788
0 0.945593 0.0911113 1.7353
0 0.945543 0.091314 1.3803
0 0.94555 0.0922134 3.71563
0 0.945602 0.0999215 27.7263
0 0.945705 0.0913267 3.65641
0 0.945742 0.0922672 10.9382
0 0.945621 0.0984892 44.2064
0 0.945717 0.0911694 1.59193
0 0.945584 0.0912302 2.95404
0 0.945653 0.0911562 1.81337
0 0.945547 0.0922463 4.6835
0 0.945519 0.100407 48.3419
0 0.94585 0.0921968 9.29642
0 0.945912 0.101818 16.5723
0 0.945756 0.0919331 9.74085
0 0.945651 0.0921665 11.5161
0 0.945604 0.0989149 76.1908
0 0.94587 0.101039 5.28561
0 0.945732 0.10492 96.382
VECTORS fa_u float
0.00715637 0.00297954 -0
0.00470011 0.00271537 -0
0.00556076 0.00150161 -0
0.00741208 0.00100009 -0
1e-08 0 0
0.00656354 0.00504676 -0
0.00324753 0.00322688 -0
1e-08 0 0
1e-08 0 0
0.00451274 0.00573843 -0
0.00391174 0.0067122 -0
0.00548082 3.26289e-05 -0
0.00677126 -0.000810633 0
1e-08 0 0
1e-08 0 0
1e-08 0 0
1e-08 0 0
1e-08 0 0
1e-08 0 0
1e-08 0 0
1e-08 0 0
0.00258879 0.0062709 -0
0.00171678 0.00644511 -0
1e-08 0 0
1e-08 0 0
1e-08 0 0
0.00879976 -0.00235303 0
1e-08 0 0
0.00572493 -0.00242604 0
1e-08 0 0
1e-08 0 0
1e-08 0 0
0.000875873 0.0067378 -0
1e-08 0 0
1e-08 0 0
1e-08 0 0
1e-08 0 0
1e-08 0 0
1e-08 0 0
1e-08 0 0
1e-08 0 0
1e-08 0 0
1e-08 0 0
-5.93279e-05 0.00788179 -0
1e-08 0 0
1e-08 0 0
1e-08 0 0
0.00622354 -0.00366219 0
1e-08 0 0
0.00485294 -0.00378388 0
1e-08 0 0
1e-08 0 0
1e-08 0 0
1e-08 0 0
1e-08 0 0
1e-08 0 0
1e-08 0 0
1e-08 0 0
1e-08 0 0
1e-08 0 0
1e-08 0 0
1e-08 0 0
1e-08 0 0
-0.000801403 0.00571832 0
1e-08 0 0
1e-08 0 0
1e-08 0 0
1e-08 0 0
1e-08 0 0
0.00419434 -0.00420476 0
1e-08 0 0
0.00335049 -0.00428297 0
1e-08 0 0
1e-08 0 0
1e-08 0 0
1e-08 0 0
1e-08 0 0
1e-08 0 0
1e-08 0 0
1e-08 0 0
1e-08 0 0
1e-08 0 0
1e-08 0 0
1e-08 0 0
1e-08 0 0
-0.00135345 0.00513109 0
1e-08 0 0
1e-08 0 0
1e-08 0 0
1e-08 0 0
1e-08 0 0
1e-08 0 0
0.00404918 -0.00685182 0
1e-08 0 0
1e-08 0 0
1e-08 0 0
1e-08 0 0
1e-08 0 0
0.00309543 -0.00752529 0
1e-08 0 0
1e-08 0 0
1e-08 0 0
1e-08 0 0
1e-08 0 0
1e-08 0 0
1e-08 0 0
1e-08 0 0
1e-08 0 0
1e-08 0 0
-0.00304975 0.00746764 0
1e-08 0 0
1e-08 0 0
1e-08 0 0
1e-08 0 0
1e-08 0 0
1e-08 0 0
1e-08 0 0
1e-08 0 0
1e-08 0 0
1e-08 0 0
1e-08 0 0
1e-08 0 0
1e-08 0 0
1e-08 0 0
0.00149907 -0.00570869 0
1e-08 0 0
1e-08 0 0
1e-08 0 0
1e-08 0 0
1e-08 0 0
1e-08 0 0
1e-08 0 0
1e-08 0 0
1e-08 0 0
-0.00373707 0.0064016 0
1e-08 0 0
1e-08 0 0
1e-08 0 0
1e-08 0 0
1e-08 0 0
1e-08 0 0
1e-08 0 0
1e-08 0 0
1e-08 0 0
1e-08 0 0
1e-08 0 0
1e-08 0 0
1e-08 0 0
1e-08 0 0
1e-08 0 0
0.000827146 -0.00621653 0
1e-08 0 0
1e-08 0 0
1e-08 0 0
1e-08 0 0
1e-08 0 0
1e-08 0 0
1e-08 0 0
1e-08 0 0
1e-08 0 0
1e-08 0 0
-0.00338197 0.00438774 0
1e-08 0 0
1e-08 0 0
1e-08 0 0
1e-08 0 0
1e-08 0 0
1e-08 0 0
1e-08 0 0
1e-08 0 0
1e-08 0 0
1e-08 0 0
1e-08 0 0
1e-08 0 0
1.84607e-05 -0.00683799 0
1e-08 0 0
1e-08 0 0
1e-08 0 0
1e-08 0 0
1e-08 0 0
1e-08 0 0
1e-08 0 0
1e-08 0 0
1e-08 0 0
1e-08 0 0
1e-08 0 0
1e-08 0 0
-0.0049045 0.00493207 0
1e-08 0 0
1e-08 0 0
1e-08 0 0
1e-08 0 0
1e-08 0 0
1e-08 0 0
1e-08 0 0
1e-08 0 0
1e-08 0 0
1e-08 0 0
1e-08 0 0
1e-08 0 0
1e-08 0 0
-0.000827966 -0.00644131 0
1e-08 0 0
1e-08 0 0
1e-08 0 0
1e-08 0 0
1e-08 0 0
1e-08 0 0
1e-08 0 0
1e-08 0 0
-0.00438204 0.00341537 0
1e-08 0 0
1e-08 0 0
1e-08 0 0
1e-08 0 0
1e-08 0 0
1e-08 0 0
1e-08 0 0
1e-08 0 0
1e-08 0 0
1e-08 0 0
1e-08 0 0
-0.00167411 -0.00636604 0
1e-08 0 0
1e-08 0 0
1e-08 0 0
1e-08 0 0
1e-08 0 0
1e-08 0 0
1e-08 0 0
-0.00606704 0.00359899 0
1e-08 0 0
1e-08 0 0
1e-08 0 0
1e-08 0 0
1e-08 0 0
1e-08 0 0
1e-08 0 0
1e-08 0 0
1e-08 0 0
1e-08 0 0
1e-08 0 0
-0.00281168 -0.00682562 0
1e-08 0 0
1e-08 0 0
1e-08 0 0
1e-08 0 0
1e-08 0 0
-0.0082682 0.0034241 0
1e-08 0 0
1e-08 0 0
1e-08 0 0
1e-08 0 0
1e-08 0 0
1e-08 0 0
1e-08 0 0
1e-08 0 0
-0.00390597 -0.00667262 0
1e-08 0 0
1e-08 0 0
1e-08 0 0
1e-08 0 0
-0.00513789 0.00135986 0
1e-08 0 0
1e-08 0 0
1e-08 0 0
1e-08 0 0
1e-08 0 0
1e-08 0 0
-0.00396606 -0.00506727 0
1e-08 0 0
1e-08 0 0
1e-08 0 0
-0.00774014 0.00101097 0
1e-08 0 0
1e-08 0 0
1e-08 0 0
1e-08 0 0
1e-08 0 0
1e-08 0 0
-0.00398138 -0.00396112 0
1e-08 0 0
1e-08 0 0
-0.00740034 -7.03941e-05 0
1e-08 0 0
1e-08 0 0
1e-08 0 0
1e-08 0 0
-0.00580246 -0.00445472 0
1e-08 0 0
-0.00547829 -0.000759794 0
1e-08 0 0
1e-08 0 0
-0.00501328 -0.0029073 0
-0.00539533 -0.00141593 0
-0.00797128 -0.00328094 0
