# vtk DataFile Version 2.0
CellBP Time: 11
ASCII
DATASET UNSTRUCTURED_GRID
POINTS 296 double
-8.9244 -3.66139 0
-8.36148 -4.80383 0
-9.33005 -2.4537 0
-9.58845 -1.21445 0
-8.25955 -2.77503 0
-7.654 -5.86478 0
-6.81163 -6.82041 0
-7.81927 -3.81962 0
-7.24888 -4.80701 0
-5.86699 -7.66683 0
-4.8216 -8.38111 0
-9.67561 0.0468283 0
-9.60778 1.31686 0
-8.56648 -1.65873 0
-8.70202 -0.521238 0
-7.49425 -1.96959 0
-7.12787 -2.85858 0
-6.56127 -5.7193 0
-5.76434 -6.53927 0
-6.69624 -3.83095 0
-6.13885 -4.61724 0
-3.67813 -8.93961 0
-2.47059 -9.35398 0
-4.86744 -7.2525 0
-3.89162 -7.831 0
-8.71598 0.634449 0
-9.36709 2.57283 0
-8.55435 1.75365 0
-8.95158 3.77705 0
-7.65549 -0.910956 0
-7.71182 0.0833223 0
-6.86734 -1.29217 0
-1.21555 -9.59743 0
-6.36364 -2.12058 0
-6.24021 -3.01151 0
-5.4711 -5.41714 0
-4.74604 -6.05925 0
-5.58879 -3.70896 0
-5.20177 -4.50708 0
-2.84831 -8.30342 0
-1.76332 -8.5746 0
-3.89513 -6.66862 0
-3.03846 -7.09903 0
0.0523304 -9.67738 0
-7.62901 1.13115 0
-8.27999 2.89391 0
-7.48112 2.08683 0
-8.37544 4.91113 0
-7.81171 3.94198 0
-7.65586 5.96246 0
-6.70121 -0.387179 0
-6.87935 0.549917 0
-5.71308 -0.991176 0
-0.584469 -8.7361 0
0.555718 -8.68724 0
-5.24847 -2.44997 0
-4.43673 -5.04075 0
-3.86043 -5.72064 0
-4.39326 -3.76522 0
-2.04674 -7.50294 0
-1.12674 -7.72018 0
-2.96692 -6.04886 0
-2.29304 -6.56665 0
1.31342 -9.57751 0
-6.62185 1.40551 0
-7.10046 3.08412 0
-6.59302 2.34692 0
-7.22303 4.93828 0
-6.65032 3.9587 0
-6.82049 6.91708 0
-6.50686 5.83193 0
-5.86407 7.75615 0
-4.42226 -1.17414 0
-5.76193 0.504814 0
-4.62478 -0.0171243 0
0.00176556 -7.77198 0
1.71155 -8.54978 0
0.928748 -7.67907 0
-4.01008 -2.386 0
-3.47444 -1.38697 0
-3.26554 -4.76258 0
-3.24746 -3.243 0
-1.3719 -6.61543 0
-0.51239 -6.95601 0
-1.96198 -5.49345 0
2.55838 -9.32372 0
-5.45744 2.01894 0
-6.03359 3.03755 0
-6.04254 4.81427 0
-5.7019 3.94333 0
-5.7025 6.64309 0
-5.39503 5.5538 0
-4.81769 8.47952 0
-4.78722 7.32016 0
-3.48662 -0.42325 0
-4.41597 1.23945 0
-3.69009 0.58871 0
-4.02994 2.30899 0
-3.67914 9.0406 0
2.8189 -8.22942 0
0.402126 -6.71882 0
1.98586 -7.43259 0
1.27679 -6.82063 0
-2.43886 -0.869216 0
-2.82915 -2.12064 0
-2.2828 -4.06787 0
-2.31609 -2.9555 0
-0.445937 -5.80445 0
-1.21313 -4.46781 0
3.7672 -8.92778 0
-4.7447 3.3591 0
-5.03495 4.53967 0
-4.59664 6.20572 0
-4.49049 5.29544 0
-3.80849 7.91471 0
-3.78276 6.76077 0
-2.75374 8.33505 0
-1.64658 -0.133701 0
-1.44693 -0.886582 0
-2.48399 0.511021 0
-3.23507 1.44062 0
-3.21426 3.29365 0
-2.89348 2.36637 0
-1.35489 0.631179 0
-2.47178 9.44433 0
3.87892 -7.78834 0
2.91375 -7.05715 0
0.933337 -5.75587 0
2.03625 -6.33088 0
-1.67703 -1.98546 0
-1.42666 -3.25846 0
0.0862674 -4.70584 0
-0.559869 -3.67272 0
4.87034 -7.22509 0
4.90431 -8.36308 0
-3.74123 4.50519 0
-3.69555 5.68578 0
-2.85339 7.20463 0
-2.97725 6.28125 0
-1.64485 8.65086 0
-1.91625 7.53932 0
-2.32293 4.02146 0
-0.728519 -1.32376 0
-0.836396 -0.253964 0
-1.93395 1.68385 0
-2.11686 2.86635 0
-1.30373 3.52818 0
-0.871941 1.35465 0
-0.284686 0.459244 0
-0.527857 8.79585 0
-1.22063 9.69431 0
1.09702 -4.52906 0
3.84812 -6.61482 0
2.94031 -6.00912 0
2.08486 -5.35733 0
4.72213 -6.11613 0
-0.554941 -2.46759 0
0.493286 -3.44206 0
0.0542208 -1.60753 0
1.46652 -3.64935 0
5.80247 -6.53174 0
5.95995 -7.65212 0
-2.45328 5.29585 0
-2.10503 6.46339 0
-0.891429 7.72968 0
-1.25341 6.85973 0
0.0885615 7.81335 0
-1.13831 4.46306 0
0.14883 -0.614726 0
-0.801766 2.48902 0
-0.33732 3.58814 0
0.0581913 1.51452 0
0.736717 0.474472 0
0.640842 8.80678 0
0.0469711 9.77577 0
2.35132 -4.23584 0
3.80576 -5.55894 0
2.95909 -5.14298 0
5.5137 -5.42031 0
4.63268 -5.20522 0
0.630131 -2.28857 0
1.2477 -2.9329 0
0.755862 -1.38917 0
2.14526 -3.10945 0
2.96451 -3.44033 0
6.0976 -4.73555 0
6.59386 -5.70572 0
6.92055 -6.81286 0
-1.00788 5.76707 0
-0.362762 6.81791 0
1.1148 7.71056 0
0.557764 7.01982 0
-0.0037173 4.69536 0
0.598926 3.80997 0
1.33472 -0.641363 0
0.531878 2.64509 0
0.959002 1.57478 0
1.90325 0.212625 0
1.60704 1.06382 0
2.11645 7.52904 0
1.78749 8.65028 0
1.3185 9.69901 0
3.77951 -4.2953 0
5.06108 -4.38629 0
5.79181 -3.88682 0
3.74966 -3.1671 0
1.80481 -1.87909 0
2.99649 -2.55511 0
6.72892 -3.90942 0
7.32307 -4.85233 0
7.76313 -5.86291 0
0.481981 5.83486 0
1.42003 6.6898 0
2.36009 6.62057 0
1.20026 4.52921 0
1.47855 3.3809 0
2.42476 -0.690386 0
2.81486 0.142694 0
1.77936 2.15718 0
2.6018 1.14682 0
3.05377 7.11887 0
2.88867 8.31912 0
2.57425 9.46058 0
4.86591 -3.28708 0
6.07005 -3.07422 0
4.14206 -2.25777 0
3.22513 -1.4966 0
6.68356 -2.29554 0
7.18114 -3.0208 0
7.91031 -3.88705 0
8.47886 -4.81861 0
2.01176 5.56001 0
3.05796 6.10395 0
2.3522 4.10007 0
2.40876 3.04414 0
3.50556 -0.456959 0
3.59651 0.614142 0
2.94643 2.27627 0
3.52328 1.51797 0
3.96924 5.84623 0
3.95093 6.74008 0
3.95126 7.88424 0
3.78261 9.04681 0
5.52842 -1.90017 0
4.47975 -1.12094 0
6.66284 -1.32463 0
7.53887 -2.02017 0
8.34006 -2.84281 0
9.04601 -3.68209 0
3.3839 4.83499 0
3.31162 3.35939 0
4.65934 0.132495 0
4.48129 1.29911 0
4.02765 2.42242 0
4.51324 5.10036 0
4.79342 6.13637 0
4.94031 7.32382 0
4.92325 8.48238 0
5.83482 -0.433345 0
6.95061 -0.487283 0
7.70193 -1.07326 0
8.62373 -1.73043 0
9.45013 -2.47036 0
4.49956 3.7884 0
5.75866 1.08196 0
5.30917 2.50389 0
5.3079 4.56742 0
5.54569 5.4681 0
5.83881 6.61394 0
5.9689 7.76908 0
6.77766 0.450885 0
7.78543 -0.0277344 0
8.79368 -0.574907 0
9.70347 -1.21629 0
6.88312 1.32525 0
5.64588 3.73158 0
6.46147 2.16309 0
6.29638 3.04405 0
6.20909 4.63092 0
6.61642 5.7791 0
6.92016 6.9266 0
7.70731 0.951811 0
8.78172 0.566477 0
9.78109 0.0541018 0
7.52993 1.9739 0
6.73201 3.84821 0
7.17576 2.90252 0
7.29221 4.83136 0
7.76472 5.97056 0
8.6346 1.70446 0
9.68247 1.31622 0
8.32306 2.79946 0
7.89122 3.86981 0
8.46834 4.90939 0
9.43019 2.56231 0
9.03268 3.77021 0
CELLS 542 2168
3 2 0 4
3 0 1 7
3 4 0 7
3 1 5 8
3 7 1 8
3 3 2 13
3 13 2 4
3 11 3 14
3 14 3 13
3 13 4 15
3 4 7 16
3 15 4 16
3 5 6 17
3 8 5 17
3 6 9 18
3 17 6 18
3 7 8 19
3 16 7 19
3 8 17 20
3 19 8 20
3 9 10 23
3 18 9 23
3 10 21 24
3 23 10 24
3 12 11 25
3 25 11 14
3 26 12 27
3 27 12 25
3 14 13 29
3 29 13 15
3 25 14 30
3 30 14 29
3 29 15 31
3 15 16 33
3 31 15 33
3 16 19 34
3 33 16 34
3 17 18 35
3 20 17 35
3 18 23 36
3 35 18 36
3 19 20 37
3 34 19 37
3 20 35 38
3 37 20 38
3 21 22 39
3 24 21 39
3 22 32 40
3 39 22 40
3 23 24 41
3 36 23 41
3 24 39 42
3 41 24 42
3 27 25 44
3 44 25 30
3 28 26 45
3 45 26 27
3 45 27 46
3 46 27 44
3 47 28 48
3 48 28 45
3 30 29 50
3 50 29 31
3 44 30 51
3 51 30 50
3 50 31 52
3 31 33 52
3 32 43 53
3 40 32 53
3 53 43 54
3 33 34 55
3 34 37 55
3 33 55 52
3 35 36 56
3 38 35 56
3 36 41 57
3 56 36 57
3 37 38 58
3 38 56 58
3 37 58 55
3 39 40 59
3 42 39 59
3 40 53 60
3 59 40 60
3 41 42 61
3 57 41 61
3 42 59 62
3 61 42 62
3 43 63 54
3 46 44 64
3 64 44 51
3 48 45 65
3 65 45 46
3 65 46 66
3 66 46 64
3 49 47 67
3 67 47 48
3 67 48 68
3 68 48 65
3 69 49 70
3 70 49 67
3 52 55 72
3 64 51 73
3 51 50 73
3 50 52 73
3 73 52 74
3 74 52 72
3 53 54 75
3 60 53 75
3 54 63 76
3 54 76 77
3 75 54 77
3 55 58 78
3 72 55 78
3 72 78 79
3 56 57 80
3 57 61 80
3 56 80 58
3 58 80 81
3 78 58 81
3 59 60 82
3 62 59 82
3 60 75 83
3 82 60 83
3 61 62 84
3 62 82 84
3 61 84 80
3 63 85 76
3 66 64 86
3 64 73 86
3 68 65 87
3 87 65 66
3 87 66 86
3 70 67 88
3 88 67 68
3 88 68 89
3 89 68 87
3 71 69 90
3 90 69 70
3 90 70 91
3 91 70 88
3 92 71 93
3 93 71 90
3 74 72 94
3 94 72 79
3 86 73 95
3 95 73 74
3 95 74 96
3 96 74 94
3 97 86 95
3 76 85 99
3 75 77 100
3 83 75 100
3 76 99 101
3 77 76 101
3 77 101 102
3 100 77 102
3 94 79 103
3 78 81 104
3 79 78 104
3 79 104 103
3 80 84 105
3 81 80 105
3 81 105 106
3 104 81 106
3 82 83 107
3 83 100 107
3 82 107 84
3 84 107 108
3 105 84 108
3 85 109 99
3 89 87 110
3 87 86 110
3 110 86 97
3 91 88 111
3 111 88 89
3 111 89 110
3 93 90 112
3 112 90 91
3 112 91 113
3 113 91 111
3 98 92 114
3 114 92 93
3 114 93 115
3 115 93 112
3 116 98 114
3 117 103 118
3 96 94 119
3 94 103 119
3 119 103 117
3 97 95 120
3 120 95 96
3 120 96 119
3 121 110 97
3 121 97 122
3 122 97 120
3 123 119 117
3 124 98 116
3 99 109 125
3 99 125 126
3 101 99 126
3 100 102 127
3 100 127 107
3 101 126 128
3 102 101 128
3 102 128 127
3 104 106 129
3 104 129 103
3 103 129 118
3 105 108 130
3 106 105 130
3 106 130 129
3 107 127 131
3 108 107 131
3 108 131 132
3 108 132 130
3 109 134 125
3 125 134 133
3 113 111 135
3 111 110 135
3 135 110 121
3 115 112 136
3 136 112 113
3 136 113 135
3 116 114 137
3 137 114 115
3 137 115 138
3 138 115 136
3 139 124 116
3 139 116 140
3 140 116 137
3 141 135 121
3 118 129 142
3 118 142 143
3 117 118 143
3 123 117 143
3 122 120 144
3 120 119 144
3 144 119 123
3 141 121 145
3 145 121 122
3 145 122 144
3 146 141 145
3 147 144 123
3 147 123 148
3 143 148 123
3 150 124 139
3 149 150 139
3 131 127 151
3 125 133 152
3 126 125 152
3 126 152 153
3 128 126 153
3 128 153 154
3 128 154 127
3 127 154 151
3 152 133 155
3 130 132 156
3 130 156 129
3 129 156 142
3 131 151 157
3 132 131 157
3 132 157 156
3 156 158 142
3 157 151 159
3 133 160 155
3 134 161 133
3 133 161 160
3 138 136 162
3 136 135 162
3 162 135 141
3 140 137 163
3 163 137 138
3 163 138 162
3 149 139 164
3 164 139 140
3 164 140 165
3 165 140 163
3 166 149 164
3 167 162 141
3 167 141 146
3 142 158 168
3 143 142 168
3 143 168 148
3 146 145 169
3 145 144 169
3 169 144 147
3 170 167 146
3 170 146 169
3 171 169 147
3 171 147 148
3 171 148 172
3 168 172 148
3 173 149 166
3 174 150 149
3 173 174 149
3 154 175 151
3 151 175 159
3 152 155 176
3 153 152 176
3 153 176 177
3 153 177 154
3 154 177 175
3 155 160 178
3 155 178 179
3 176 155 179
3 156 157 180
3 156 180 158
3 157 159 181
3 157 181 180
3 158 180 182
3 158 182 168
3 159 175 183
3 159 183 181
3 175 184 183
3 160 186 178
3 178 186 185
3 161 187 160
3 160 187 186
3 165 163 188
3 163 162 188
3 188 162 167
3 166 164 189
3 189 164 165
3 189 165 188
3 190 173 166
3 190 166 191
3 191 166 189
3 192 188 167
3 192 167 170
3 193 192 170
3 182 194 168
3 194 172 168
3 193 170 195
3 170 169 195
3 195 169 171
3 196 195 171
3 196 171 172
3 194 197 172
3 197 198 172
3 198 196 172
3 200 173 190
3 199 200 190
3 201 174 173
3 200 201 173
3 176 179 202
3 177 176 202
3 177 202 175
3 175 202 184
3 178 185 203
3 178 203 179
3 179 203 202
3 203 185 204
3 202 205 184
3 183 206 181
3 180 181 206
3 180 206 182
3 182 206 194
3 183 184 207
3 205 207 184
3 183 207 206
3 185 208 204
3 186 209 185
3 185 209 208
3 187 210 186
3 186 210 209
3 191 189 211
3 189 188 211
3 211 188 192
3 199 190 212
3 212 190 191
3 212 191 211
3 213 199 212
3 214 211 192
3 214 192 193
3 215 214 193
3 215 193 195
3 206 216 194
3 216 197 194
3 216 217 197
3 215 195 218
3 218 195 196
3 198 218 196
3 217 219 197
3 219 218 198
3 197 219 198
3 220 199 213
3 221 200 199
3 220 221 199
3 222 201 200
3 221 222 200
3 203 204 223
3 203 223 202
3 202 223 205
3 204 208 224
3 204 224 223
3 205 223 225
3 205 225 207
3 207 225 226
3 207 226 206
3 226 216 206
3 208 228 224
3 224 228 227
3 209 229 208
3 229 228 208
3 210 230 209
3 209 230 229
3 213 212 231
3 212 211 231
3 231 211 214
3 232 220 213
3 232 213 231
3 233 231 214
3 233 214 215
3 234 233 215
3 234 215 218
3 226 235 216
3 235 217 216
3 235 236 217
3 217 236 219
3 237 234 218
3 237 218 219
3 236 238 219
3 238 237 219
3 240 220 232
3 239 240 232
3 241 221 220
3 240 241 220
3 242 222 221
3 241 242 221
3 224 227 243
3 224 243 223
3 223 243 225
3 225 243 244
3 225 244 226
3 226 244 235
3 227 245 243
3 228 246 227
3 227 246 245
3 229 247 228
3 228 247 246
3 230 248 229
3 229 248 247
3 239 232 249
3 232 231 249
3 249 231 233
3 250 249 233
3 250 233 234
3 237 250 234
3 244 251 235
3 235 251 236
3 251 252 236
3 236 252 238
3 252 253 238
3 253 250 237
3 253 237 238
3 254 239 249
3 255 240 239
3 254 255 239
3 256 241 240
3 255 256 240
3 257 242 241
3 256 257 241
3 245 258 243
3 243 258 244
3 244 258 251
3 245 259 258
3 246 260 245
3 245 260 259
3 247 261 246
3 246 261 260
3 248 262 247
3 247 262 261
3 254 249 263
3 263 249 250
3 253 263 250
3 258 264 251
3 251 264 252
3 264 265 252
3 265 263 253
3 252 265 253
3 266 254 263
3 267 255 254
3 266 267 254
3 268 256 255
3 267 268 255
3 269 257 256
3 268 269 256
3 259 270 258
3 270 264 258
3 260 271 259
3 259 271 270
3 261 272 260
3 260 272 271
3 262 273 261
3 273 272 261
3 270 274 264
3 275 266 263
3 275 263 265
3 274 276 264
3 276 265 264
3 276 277 265
3 277 275 265
3 278 267 266
3 275 278 266
3 279 268 267
3 278 279 267
3 280 269 268
3 279 280 268
3 271 281 270
3 270 281 274
3 272 282 271
3 271 282 281
3 273 283 272
3 272 283 282
3 281 284 274
3 274 284 276
3 285 278 275
3 277 285 275
3 284 286 276
3 286 285 277
3 276 286 277
3 287 279 278
3 285 287 278
3 288 280 279
3 287 288 279
3 282 289 281
3 281 289 284
3 283 290 282
3 282 290 289
3 289 291 284
3 284 291 286
3 291 292 286
3 292 287 285
3 286 292 285
3 293 288 287
3 292 293 287
3 290 294 289
3 289 294 291
3 294 295 291
3 295 293 292
3 291 295 292
CELL_TYPES 542
5
5
5
5
5
5
5
5
5
5
5
5
5
5
5
5
5
5
5
5
5
5
5
5
5
5
5
5
5
5
5
5
5
5
5
5
5
5
5
5
5
5
5
5
5
5
5
5
5
5
5
5
5
5
5
5
5
5
5
5
5
5
5
5
5
5
5
5
5
5
5
5
5
5
5
5
5
5
5
5
5
5
5
5
5
5
5
5
5
5
5
5
5
5
5
5
5
5
5
5
5
5
5
5
5
5
5
5
5
5
5
5
5
5
5
5
5
5
5
5
5
5
5
5
5
5
5
5
5
5
5
5
5
5
5
5
5
5
5
5
5
5
5
5
5
5
5
5
5
5
5
5
5
5
5
5
5
5
5
5
5
5
5
5
5
5
5
5
5
5
5
5
5
5
5
5
5
5
5
5
5
5
5
5
5
5
5
5
5
5
5
5
5
5
5
5
5
5
5
5
5
5
5
5
5
5
5
5
5
5
5
5
5
5
5
5
5
5
5
5
5
5
5
5
5
5
5
5
5
5
5
5
5
5
5
5
5
5
5
5
5
5
5
5
5
5
5
5
5
5
5
5
5
5
5
5
5
5
5
5
5
5
5
5
5
5
5
5
5
5
5
5
5
5
5
5
5
5
5
5
5
5
5
5
5
5
5
5
5
5
5
5
5
5
5
5
5
5
5
5
5
5
5
5
5
5
5
5
5
5
5
5
5
5
5
5
5
5
5
5
5
5
5
5
5
5
5
5
5
5
5
5
5
5
5
5
5
5
5
5
5
5
5
5
5
5
5
5
5
5
5
5
5
5
5
5
5
5
5
5
5
5
5
5
5
5
5
5
5
5
5
5
5
5
5
5
5
5
5
5
5
5
5
5
5
5
5
5
5
5
5
5
5
5
5
5
5
5
5
5
5
5
5
5
5
5
5
5
5
5
5
5
5
5
5
5
5
5
5
5
5
5
5
5
5
5
5
5
5
5
5
5
5
5
5
5
5
5
5
5
5
5
5
5
5
5
5
5
5
5
5
5
5
5
5
5
5
5
5
5
5
5
5
5
5
5
5
5
5
5
5
5
5
5
5
5
5
5
5
5
5
5
5
5
5
5
5
5
5
5
5
5
5
5
5
5
5
5
5
5
5
5
5
5
5
5
5
5
5
5
5
5
5
5
5
5
5
5
5
5
5
5
5
5
5
5
5
5
5
5
5
5
5
5
5
5
5
5
5
5
5
5
POINT_DATA 296
SCALARS concentrations float 4
LOOKUP_TABLE default
0 0.945276 0.100497 106.52
0 0.945362 0.100788 3.39335
0 0.945378 0.104012 112.195
0 0.945498 0.104946 97.2993
0 0.945339 0.0923455 10.8895
0 0.945218 0.103806 146.592
0 0.945177 0.0988887 31.2977
0 0.945351 0.0921071 4.66893
0 0.945336 0.0923695 10.3565
0 0.945197 0.110611 97.835
0 0.945523 0.0983995 89.7374
0 0.9453 0.0982026 31.5485
0 0.945206 0.107185 17.5822
0 0.94546 0.0923975 11.3992
0 0.945442 0.0921492 13.1586
0 0.945444 0.0912572 1.26203
0 0.945407 0.0914156 3.32643
0 0.945267 0.092766 15.0576
0 0.945278 0.0930884 20.057
0 0.945399 0.0914284 2.63037
0 0.945397 0.0914614 3.27256
0 0.945971 0.101295 88.057
0 0.946164 0.105697 38.0334
0 0.945416 0.0932573 24.1755
0 0.94573 0.0925814 14.3769
0 0.945292 0.0924123 10.2229
0 0.945598 0.0999027 41.8557
0 0.945451 0.0923928 8.47911
0 0.945485 0.100076 12.6755
0 0.945472 0.0911147 0.598406
0 0.945457 0.0913422 3.34375
0 0.945503 0.0910915 0.587337
0 0.945702 0.0968448 4.64962
0 0.945493 0.0910978 0.886435
0 0.945467 0.0911608 1.48984
0 0.945406 0.0916192 6.4009
0 0.945477 0.0915957 7.81449
0 0.945481 0.0911011 0.31198
0 0.945481 0.0912225 2.60509
0 0.945988 0.0925803 9.00929
0 0.945869 0.0923144 4.24039
0 0.945606 0.0916144 8.49496
0 0.945754 0.0914864 4.37998
0 0.945092 0.0992736 12.7295
0 0.94548 0.091456 3.85006
0 0.945583 0.0920426 6.85034
0 0.945554 0.0914777 4.34468
0 0.945445 0.105625 19.1186
0 0.945503 0.0925087 9.87401
0 0.945467 0.096888 51.9362
0 0.945528 0.0910623 0.254395
0 0.945538 0.0910892 0.827317
0 0.945549 0.0910289 1.02283
0 0.945406 0.0926323 10.0119
0 0.944968 0.0930537 10.9219
0 0.945531 0.0910356 1.14822
0 0.945522 0.0912437 4.03886
0 0.945574 0.0912609 4.86402
0 0.94554 0.0910269 1.40634
0 0.945761 0.0915794 3.53637
0 0.945578 0.0916598 4.1564
0 0.945626 0.0911422 3.03215
0 0.945667 0.0912165 1.90232
0 0.944711 0.105896 87.6481
0 0.945583 0.0910749 1.14247
0 0.945598 0.0914846 4.0584
0 0.945616 0.091171 1.80243
0 0.945514 0.0926036 8.83214
0 0.945602 0.0914963 4.82727
0 0.945708 0.100651 131.613
0 0.945631 0.0921228 8.29411
0 0.9459 0.0990859 11.9698
0 0.945563 0.0910086 1.20744
0 0.945585 0.0910289 1.43413
0 0.945582 0.091051 1.78393
0 0.945309 0.0917752 5.74511
0 0.944815 0.0925837 5.42184
0 0.945086 0.0916883 3.9708
0 0.945558 0.0910067 1.16112
0 0.945571 0.090993 1.10534
0 0.945573 0.0910273 1.8616
0 0.945565 0.0909769 0.90622
0 0.945596 0.0912929 2.31969
0 0.945474 0.0914339 3.26452
0 0.945581 0.0909997 0.312092
0 0.944749 0.0988182 106.109
0 0.945629 0.0910173 1.26751
0 0.945646 0.091167 1.43531
0 0.945658 0.0916311 4.98473
0 0.94567 0.0912946 2.42114
0 0.945805 0.0922651 9.25077
0 0.945743 0.0915543 4.45748
0 0.946128 0.101513 25.3241
0 0.945975 0.0920166 6.51767
0 0.94558 0.0910053 1.10822
0 0.945609 0.0910562 1.61717
0 0.945593 0.0910428 1.37205
0 0.945635 0.091072 1.49065
0 0.945989 0.100875 62.5866
0 0.944879 0.0918164 3.77586
0 0.94535 0.0914245 2.92991
0 0.945015 0.0915545 2.10976
0 0.945222 0.0914598 2.78772
0 0.945574 0.0909813 0.673716
0 0.945568 0.0909827 0.87523
0 0.945568 0.0909831 0.496696
0 0.945566 0.0909827 0.580521
0 0.945505 0.091179 1.54798
0 0.945543 0.0910432 0.434091
0 0.944848 0.0979657 70.9552
0 0.945667 0.0910732 0.841328
0 0.945706 0.0912499 1.67092
0 0.945837 0.0913273 3.13126
0 0.945752 0.0911941 1.72348
0 0.946007 0.0919485 5.21872
0 0.945873 0.0912266 0.870217
0 0.945859 0.0921362 8.14787
0 0.945574 0.0909903 0.552265
0 0.945565 0.0909929 0.50766
0 0.945585 0.0910027 0.608212
0 0.945605 0.0910523 1.26585
0 0.945651 0.0911008 1.26456
0 0.945618 0.0910796 1.27838
0 0.945575 0.0910131 0.57781
0 0.945824 0.100486 89.9408
0 0.944962 0.0922498 2.51675
0 0.945062 0.0913587 1.22028
0 0.945396 0.0912358 1.51244
0 0.945225 0.0913267 1.91955
0 0.945562 0.0910197 0.585794
0 0.945554 0.0910215 0.314722
0 0.945496 0.0910897 0.842962
0 0.945531 0.0910625 0.380677
0 0.945181 0.0921491 3.84743
0 0.944983 0.102265 69.6389
0 0.945691 0.0911069 1.05078
0 0.945759 0.0910583 0.915035
0 0.945837 0.0913966 1.75413
0 0.945767 0.0911757 0.699724
0 0.945766 0.092038 9.1893
0 0.945764 0.0914582 2.73653
0 0.945651 0.0912131 1.25813
0 0.945553 0.0910177 0.400696
0 0.94556 0.0909962 0.510047
0 0.945592 0.091043 0.685069
0 0.945614 0.0911231 1.1138
0 0.945613 0.0911161 0.9223
0 0.945574 0.0910402 0.601773
0 0.945558 0.0910118 0.588558
0 0.945707 0.0921825 11.0161
0 0.945735 0.0984107 100.443
0 0.945453 0.091116 0.684016
0 0.94517 0.0912239 0.804928
0 0.945249 0.0911781 1.01939
0 0.945375 0.0911547 0.783472
0 0.945305 0.0913515 2.0489
0 0.945541 0.0910503 0.244468
0 0.945512 0.0910855 0.382122
0 0.94554 0.0910308 0.266752
0 0.945482 0.0911236 0.450132
0 0.945386 0.0918684 5.77906
0 0.94533 0.0987473 67.4534
0 0.945686 0.0912015 1.29632
0 0.945721 0.0912168 0.382488
0 0.945713 0.0915529 2.86153
0 0.945697 0.0912897 0.715485
0 0.945709 0.0913924 1.80473
0 0.945638 0.0910841 0.907662
0 0.945545 0.0909923 0.373041
0 0.945586 0.0910465 0.657379
0 0.945598 0.0910038 0.515167
0 0.945564 0.0910315 0.771555
0 0.945545 0.0909973 0.619923
0 0.945788 0.0917846 10.619
0 0.945728 0.104288 101.823
0 0.945442 0.0911059 0.690479
0 0.945328 0.091051 0.514735
0 0.94538 0.0910803 0.241585
0 0.945411 0.091423 2.56807
0 0.945391 0.0911721 0.820825
0 0.945525 0.0910614 0.112014
0 0.945509 0.0910892 0.340508
0 0.945529 0.0910114 0.220695
0 0.945489 0.091093 0.454911
0 0.945466 0.0910802 0.434594
0 0.945487 0.091537 2.51915
0 0.945424 0.0920529 6.13191
0 0.945409 0.100479 74.9109
0 0.945659 0.0910888 1.02091
0 0.945672 0.091209 1.21962
0 0.945738 0.0915059 4.18142
0 0.945677 0.091234 1.28197
0 0.945622 0.0909747 0.4804
0 0.945592 0.0910084 0.610663
0 0.945529 0.0909904 0.423199
0 0.945573 0.0910164 0.737572
0 0.945556 0.0910233 0.803742
0 0.945532 0.0909887 0.611436
0 0.945545 0.0910041 0.693412
0 0.945727 0.0917106 6.43595
0 0.945853 0.0922527 13.4265
0 0.945926 0.096896 6.68865
0 0.945431 0.0910666 0.343145
0 0.94545 0.0912548 1.12248
0 0.945493 0.0913298 1.62335
0 0.945474 0.0910611 0.448074
0 0.945512 0.0910267 0.41787
0 0.945495 0.0910522 0.629688
0 0.945555 0.0915023 2.13469
0 0.945568 0.0924834 3.94323
0 0.945464 0.0985497 38.4293
0 0.945641 0.0909805 0.793752
0 0.945672 0.0911861 2.08335
0 0.945667 0.0913118 3.69005
0 0.945611 0.0910487 0.615105
0 0.945581 0.0910312 0.674871
0 0.945517 0.0909936 0.524435
0 0.945525 0.0909833 0.629846
0 0.94556 0.0910182 0.722187
0 0.945542 0.0909926 0.636183
0 0.945677 0.0916684 5.50145
0 0.945721 0.0930364 15.0855
0 0.945844 0.101534 94.5619
0 0.94548 0.0911042 0.639552
0 0.945516 0.0912119 1.16033
0 0.945493 0.0910387 0.959513
0 0.945505 0.0910224 0.805978
0 0.94553 0.0911744 1.60557
0 0.945587 0.0914625 1.87301
0 0.945705 0.0923174 1.57738
0 0.945737 0.103571 52.721
0 0.945629 0.0911218 1.45268
0 0.945636 0.0912206 2.92659
0 0.945599 0.0910986 0.899026
0 0.945574 0.0910334 0.578921
0 0.945513 0.0909875 0.639696
0 0.945527 0.0909827 0.59743
0 0.945559 0.0910102 0.48332
0 0.945544 0.0910094 0.647707
0 0.94561 0.0913065 3.73955
0 0.94562 0.091506 2.84798
0 0.94565 0.0928585 8.50418
0 0.945658 0.107192 70.4916
0 0.945503 0.0910494 1.51986
0 0.945504 0.0910182 1.04859
0 0.945522 0.0910961 1.82087
0 0.945568 0.0913486 2.37377
0 0.945643 0.0917678 6.51557
0 0.945762 0.0994929 67.9351
0 0.945605 0.0911566 1.85977
0 0.945581 0.0910342 0.779021
0 0.945515 0.0909926 0.866664
0 0.945533 0.091007 0.887266
0 0.945558 0.0910413 0.809627
0 0.945581 0.0913232 4.32021
0 0.945553 0.0915929 5.80329
0 0.945547 0.0922247 4.53722
0 0.94562 0.101822 55.274
0 0.945509 0.0910361 1.59183
0 0.945517 0.091184 2.60127
0 0.945547 0.0912939 2.937
0 0.94559 0.0920009 7.90932
0 0.945624 0.0990819 66.3934
0 0.945573 0.0910733 1.37302
0 0.945516 0.0910827 2.14448
0 0.945541 0.091056 1.1589
0 0.945555 0.091288 4.81792
0 0.94551 0.0915177 7.37413
0 0.945405 0.0923177 13.1766
0 0.94539 0.101935 49.8628
0 0.945503 0.0912683 3.72613
0 0.945513 0.0914422 4.20406
0 0.94556 0.0919211 4.66915
0 0.945605 0.0990302 13.273
0 0.945491 0.0913786 4.89594
0 0.94554 0.0911198 2.39398
0 0.945503 0.0912473 3.56477
0 0.945515 0.0911838 2.12673
0 0.945492 0.0913947 7.04268
0 0.945393 0.0920605 13.8521
0 0.945305 0.103598 81.3806
0 0.945465 0.0916062 6.24786
0 0.945473 0.0920988 6.30087
0 0.945522 0.0969065 41.3795
0 0.945447 0.0916012 6.83608
0 0.945481 0.0913477 4.49704
0 0.945452 0.0914196 5.53647
0 0.94541 0.0917611 10.1075
0 0.945347 0.0988189 59.9584
0 0.945392 0.0923751 11.987
0 0.945407 0.100542 13.1866
0 0.945382 0.0923779 13.8074
0 0.945415 0.0919875 10.1293
0 0.94538 0.0991428 32.207
0 0.945327 0.101976 166.241
0 0.945375 0.0986857 32.198
VECTORS fa_u float
0.00646961 0.00266635 -0
0.00575076 0.00331569 -0
0.00531823 0.00144327 -0
0.00727439 0.0010053 -0
1e-08 0 0
0.0055947 0.00429983 -0
0.00385759 0.00382539 -0
1e-08 0 0
1e-08 0 0
0.00417662 0.00532554 -0
0.00414857 0.00713447 -0
0.0058846 4.4928e-05 -0
0.00716785 -0.00087547 0
1e-08 0 0
1e-08 0 0
1e-08 0 0
1e-08 0 0
1e-08 0 0
1e-08 0 0
1e-08 0 0
1e-08 0 0
0.00229102 0.00553643 -0
0.00194254 0.00727206 -0
1e-08 0 0
1e-08 0 0
1e-08 0 0
0.00769791 -0.00205323 0
1e-08 0 0
0.00683919 -0.00290044 0
1e-08 0 0
1e-08 0 0
1e-08 0 0
0.000822445 0.00641615 -0
1e-08 0 0
1e-08 0 0
1e-08 0 0
1e-08 0 0
1e-08 0 0
1e-08 0 0
1e-08 0 0
1e-08 0 0
1e-08 0 0
1e-08 0 0
-6.23704e-05 0.00791911 -0
1e-08 0 0
1e-08 0 0
1e-08 0 0
0.00570363 -0.00338167 0
1e-08 0 0
0.00436433 -0.00338309 0
1e-08 0 0
1e-08 0 0
1e-08 0 0
1e-08 0 0
1e-08 0 0
1e-08 0 0
1e-08 0 0
1e-08 0 0
1e-08 0 0
1e-08 0 0
1e-08 0 0
1e-08 0 0
1e-08 0 0
-0.000818669 0.0058012 0
1e-08 0 0
1e-08 0 0
1e-08 0 0
1e-08 0 0
1e-08 0 0
0.00481865 -0.00481354 0
1e-08 0 0
0.00320308 -0.00410585 0
1e-08 0 0
1e-08 0 0
1e-08 0 0
1e-08 0 0
1e-08 0 0
1e-08 0 0
1e-08 0 0
1e-08 0 0
1e-08 0 0
1e-08 0 0
1e-08 0 0
1e-08 0 0
1e-08 0 0
-0.00133768 0.00505192 0
1e-08 0 0
1e-08 0 0
1e-08 0 0
1e-08 0 0
1e-08 0 0
1e-08 0 0
0.00428907 -0.00729595 0
1e-08 0 0
1e-08 0 0
1e-08 0 0
1e-08 0 0
1e-08 0 0
0.00272339 -0.00662183 0
1e-08 0 0
1e-08 0 0
1e-08 0 0
1e-08 0 0
1e-08 0 0
1e-08 0 0
1e-08 0 0
1e-08 0 0
1e-08 0 0
1e-08 0 0
-0.00309569 0.0075598 0
1e-08 0 0
1e-08 0 0
1e-08 0 0
1e-08 0 0
1e-08 0 0
1e-08 0 0
1e-08 0 0
1e-08 0 0
1e-08 0 0
1e-08 0 0
1e-08 0 0
1e-08 0 0
1e-08 0 0
1e-08 0 0
0.00158257 -0.00595185 0
1e-08 0 0
1e-08 0 0
1e-08 0 0
1e-08 0 0
1e-08 0 0
1e-08 0 0
1e-08 0 0
1e-08 0 0
1e-08 0 0
-0.00342205 0.0058822 0
1e-08 0 0
1e-08 0 0
1e-08 0 0
1e-08 0 0
1e-08 0 0
1e-08 0 0
1e-08 0 0
1e-08 0 0
1e-08 0 0
1e-08 0 0
1e-08 0 0
1e-08 0 0
1e-08 0 0
1e-08 0 0
1e-08 0 0
0.000903427 -0.0068655 0
1e-08 0 0
1e-08 0 0
1e-08 0 0
1e-08 0 0
1e-08 0 0
1e-08 0 0
1e-08 0 0
1e-08 0 0
1e-08 0 0
1e-08 0 0
-0.00374756 0.00487415 0
1e-08 0 0
1e-08 0 0
1e-08 0 0
1e-08 0 0
1e-08 0 0
1e-08 0 0
1e-08 0 0
1e-08 0 0
1e-08 0 0
1e-08 0 0
1e-08 0 0
1e-08 0 0
1.12491e-05 -0.00606997 0
1e-08 0 0
1e-08 0 0
1e-08 0 0
1e-08 0 0
1e-08 0 0
1e-08 0 0
1e-08 0 0
1e-08 0 0
1e-08 0 0
1e-08 0 0
1e-08 0 0
1e-08 0 0
-0.00445817 0.00449298 0
1e-08 0 0
1e-08 0 0
1e-08 0 0
1e-08 0 0
1e-08 0 0
1e-08 0 0
1e-08 0 0
1e-08 0 0
1e-08 0 0
1e-08 0 0
1e-08 0 0
1e-08 0 0
1e-08 0 0
-0.000783779 -0.00628456 0
1e-08 0 0
1e-08 0 0
1e-08 0 0
1e-08 0 0
1e-08 0 0
1e-08 0 0
1e-08 0 0
1e-08 0 0
-0.00481871 0.00376535 0
1e-08 0 0
1e-08 0 0
1e-08 0 0
1e-08 0 0
1e-08 0 0
1e-08 0 0
1e-08 0 0
1e-08 0 0
1e-08 0 0
1e-08 0 0
1e-08 0 0
-0.00201818 -0.00762492 0
1e-08 0 0
1e-08 0 0
1e-08 0 0
1e-08 0 0
1e-08 0 0
1e-08 0 0
1e-08 0 0
-0.00644371 0.00379057 0
1e-08 0 0
1e-08 0 0
1e-08 0 0
1e-08 0 0
1e-08 0 0
1e-08 0 0
1e-08 0 0
1e-08 0 0
1e-08 0 0
1e-08 0 0
1e-08 0 0
-0.00252326 -0.00605922 0
1e-08 0 0
1e-08 0 0
1e-08 0 0
1e-08 0 0
1e-08 0 0
-0.00717794 0.00296891 0
1e-08 0 0
1e-08 0 0
1e-08 0 0
1e-08 0 0
1e-08 0 0
1e-08 0 0
1e-08 0 0
1e-08 0 0
-0.00383302 -0.00655858 0
1e-08 0 0
1e-08 0 0
1e-08 0 0
1e-08 0 0
-0.00566076 0.00150932 0
1e-08 0 0
1e-08 0 0
1e-08 0 0
1e-08 0 0
1e-08 0 0
1e-08 0 0
-0.00384484 -0.00493501 0
1e-08 0 0
1e-08 0 0
1e-08 0 0
-0.00740146 0.000970327 0
1e-08 0 0
1e-08 0 0
1e-08 0 0
1e-08 0 0
1e-08 0 0
1e-08 0 0
-0.00415068 -0.00414445 0
1e-08 0 0
1e-08 0 0
-0.00757987 -6.28385e-05 0
1e-08 0 0
1e-08 0 0
1e-08 0 0
1e-08 0 0
-0.0059086 -0.00453479 0
1e-08 0 0
-0.00577098 -0.000807368 0
1e-08 0 0
1e-08 0 0
-0.00534983 -0.00308287 0
-0.0052922 -0.00140131 0
-0.00730954 -0.00299548 0
