# vtk DataFile Version 2.0
CellBP Time: 3.12
ASCII
DATASET UNSTRUCTURED_GRID
POINTS 296 double
-8.99262 -3.69141 0
-8.41529 -4.83593 0
-9.39501 -2.47362 0
-9.65325 -1.22454 0
-8.27785 -2.78387 0
-7.70925 -5.90697 0
-6.86126 -6.86841 0
-7.8378 -3.83055 0
-7.26677 -4.81935 0
-5.90975 -7.7211 0
-4.85341 -8.43644 0
-9.74037 0.0466277 0
-9.66721 1.32493 0
-8.58406 -1.66347 0
-8.71856 -0.523368 0
-7.51265 -1.97645 0
-7.14649 -2.86811 0
-6.57639 -5.73133 0
-5.77589 -6.55044 0
-6.7141 -3.8426 0
-6.15457 -4.62912 0
-3.70669 -9.00909 0
-2.48735 -9.41428 0
-4.87479 -7.26373 0
-3.89593 -7.84284 0
-8.73077 0.63583 0
-9.42592 2.58814 0
-8.56775 1.75751 0
-9.01063 3.80152 0
-7.67281 -0.914594 0
-7.72812 0.0825221 0
-6.88394 -1.29689 0
-1.22588 -9.66465 0
-6.37858 -2.12706 0
-6.25518 -3.02041 0
-5.48386 -5.42871 0
-4.75581 -6.07067 0
-5.60219 -3.71869 0
-5.21481 -4.51819 0
-2.85245 -8.31616 0
-1.76682 -8.58796 0
-3.90166 -6.68008 0
-3.0424 -7.11051 0
0.0516755 -9.74085 0
-7.64423 1.13344 0
-8.29175 2.8982 0
-7.49543 2.09172 0
-8.43655 4.94683 0
-7.8252 3.94893 0
-7.71163 6.00522 0
-6.71652 -0.389144 0
-6.8948 0.550356 0
-5.72448 -0.993637 0
-0.586177 -8.75072 0
0.557691 -8.70362 0
-5.25877 -2.45602 0
-4.44746 -5.05207 0
-3.86871 -5.73202 0
-4.40204 -3.77335 0
-2.05029 -7.51532 0
-1.12886 -7.73363 0
-2.97256 -6.06018 0
-2.29661 -6.57809 0
1.32441 -9.65363 0
-6.63562 1.40873 0
-7.11495 3.09071 0
-6.60667 2.35204 0
-7.23703 4.94791 0
-6.66388 3.96718 0
-6.86595 6.96324 0
-6.5196 5.84347 0
-5.90332 7.80748 0
-4.42827 -1.17558 0
-5.77262 0.50653 0
-4.63118 -0.0158641 0
0.00288454 -7.78732 0
1.71718 -8.56849 0
0.932739 -7.69604 0
-4.01546 -2.39019 0
-3.47655 -1.38791 0
-3.27132 -4.7716 0
-3.25109 -3.24827 0
-1.37359 -6.62811 0
-0.511946 -6.97024 0
-1.96498 -5.5029 0
2.57856 -9.39772 0
-5.46774 2.02244 0
-6.04611 3.04423 0
-6.05494 4.82471 0
-5.71403 3.95248 0
-5.71352 6.65681 0
-5.40619 5.56607 0
-4.84941 8.53431 0
-4.79662 7.33604 0
-3.48955 -0.423563 0
-4.42281 1.24127 0
-3.69442 0.589278 0
-4.03658 2.31105 0
-3.70287 9.1008 0
2.82764 -8.25015 0
0.405464 -6.73455 0
1.99313 -7.45135 0
1.28259 -6.83792 0
-2.43988 -0.87029 0
-2.83091 -2.12295 0
-2.28525 -4.07428 0
-2.31801 -2.95949 0
-0.445443 -5.81639 0
-1.2152 -4.47471 0
3.79354 -8.99119 0
-4.75385 3.36529 0
-5.04557 4.54993 0
-4.60634 6.21993 0
-4.50001 5.30751 0
-3.81516 7.9295 0
-3.79109 6.77672 0
-2.75936 8.35135 0
-1.64694 -0.134739 0
-1.44745 -0.887619 0
-2.4849 0.51014 0
-3.23883 1.44121 0
-3.21917 3.29788 0
-2.89704 2.36732 0
-1.3548 0.630168 0
-2.48572 9.50145 0
3.88987 -7.80804 0
2.92401 -7.07741 0
0.937421 -5.76951 0
2.04391 -6.34809 0
-1.67809 -1.98705 0
-1.42823 -3.26279 0
0.0869761 -4.71461 0
-0.561176 -3.67763 0
4.88265 -7.24384 0
4.94201 -8.42758 0
-3.74823 4.51385 0
-3.70309 5.69821 0
-2.85984 7.22071 0
-2.98329 6.29485 0
-1.64794 8.66635 0
-1.92057 7.55453 0
-2.32577 4.02699 0
-0.728804 -1.32476 0
-0.836348 -0.25496 0
-1.9343 1.6831 0
-2.11853 2.86799 0
-1.30406 3.53125 0
-0.871305 1.35368 0
-0.28407 0.458333 0
-0.528506 8.81044 0
-1.22753 9.75033 0
1.10021 -4.53858 0
3.8607 -6.63538 0
2.94999 -6.02643 0
2.09155 -5.37113 0
4.73479 -6.13398 0
-0.555626 -2.46984 0
0.493691 -3.44693 0
0.0542528 -1.6085 0
1.46972 -3.6563 0
5.81565 -6.54809 0
6.00049 -7.70489 0
-2.45738 5.30567 0
-2.10964 6.47694 0
-0.893481 7.74392 0
-1.25668 6.87376 0
0.0885469 7.82659 0
-1.13921 4.46912 0
0.14929 -0.615659 0
-0.80073 2.48882 0
-0.335929 3.59069 0
0.0593471 1.51401 0
0.73785 0.474035 0
0.6424 8.82022 0
0.0478008 9.84577 0
2.35745 -4.24599 0
3.81666 -5.57537 0
2.96777 -5.15713 0
5.52599 -5.43465 0
4.64461 -5.22088 0
0.630186 -2.28999 0
1.24954 -2.93699 0
0.756368 -1.39003 0
2.14926 -3.11507 0
2.97058 -3.44787 0
6.10943 -4.74689 0
6.60647 -5.71851 0
6.96787 -6.86158 0
-1.00979 5.7774 0
-0.364218 6.83089 0
1.11676 7.72252 0
0.558296 7.03191 0
-0.002764 4.70136 0
0.600857 3.81366 0
1.33576 -0.64178 0
0.533559 2.64626 0
0.960627 1.57471 0
1.90488 0.212675 0
1.60882 1.06394 0
2.11942 7.54025 0
1.78996 8.66278 0
1.3277 9.76271 0
3.7884 -4.30675 0
5.0725 -4.39898 0
5.80296 -3.89665 0
3.75677 -3.17415 0
1.80649 -1.8802 0
3.00124 -2.5592 0
6.74019 -3.91727 0
7.33506 -4.86129 0
7.8181 -5.9064 0
0.482731 5.84431 0
1.42217 6.7006 0
2.36346 6.63082 0
1.2026 4.53483 0
1.48081 3.38437 0
2.4272 -0.69098 0
2.81778 0.142515 0
1.78155 2.15832 0
2.60411 1.14742 0
3.05791 7.12959 0
2.89196 8.33067 0
2.59081 9.52249 0
4.87528 -3.29545 0
6.08055 -3.08132 0
4.14848 -2.26155 0
3.22923 -1.49816 0
6.6935 -2.29926 0
7.1917 -3.02539 0
7.92173 -3.89226 0
8.53757 -4.85198 0
2.01464 5.56839 0
3.06415 6.11443 0
2.35497 4.10569 0
2.4114 3.04762 0
3.50988 -0.457927 0
3.60068 0.613901 0
2.94986 2.27871 0
3.52807 1.51944 0
3.97824 5.85717 0
3.95811 6.75128 0
3.95641 7.89551 0
3.80619 9.10502 0
5.53684 -1.90361 0
4.48594 -1.12288 0
6.67339 -1.32709 0
7.54982 -2.02363 0
8.35163 -2.84696 0
9.11176 -3.70785 0
3.39135 4.84381 0
3.31745 3.3648 0
4.66606 0.131939 0
4.48918 1.30131 0
4.03548 2.42682 0
4.52508 5.11136 0
4.80382 6.1479 0
4.94878 7.33597 0
4.95638 8.54012 0
5.84495 -0.433742 0
6.96303 -0.487512 0
7.71361 -1.07574 0
8.6358 -1.73351 0
9.50806 -2.48493 0
4.51047 3.79657 0
5.77088 1.08536 0
5.32193 2.5103 0
5.32269 4.5786 0
5.55927 5.47978 0
5.85061 6.62621 0
6.01181 7.82318 0
6.79185 0.453487 0
7.7993 -0.0272255 0
8.80699 -0.576688 0
9.76283 -1.22442 0
6.89916 1.33027 0
5.66132 3.74136 0
6.47803 2.1702 0
6.31363 3.05315 0
6.22607 4.64261 0
6.63184 5.79128 0
6.96656 6.97156 0
7.72316 0.955179 0
8.79741 0.567978 0
9.84539 0.0539019 0
7.54771 1.98025 0
6.75189 3.85981 0
7.19507 2.91166 0
7.30962 4.84255 0
7.82053 6.01332 0
8.6526 1.70935 0
9.75187 1.32663 0
8.34312 2.80744 0
7.90983 3.87923 0
8.52746 4.94389 0
9.49685 2.58106 0
9.09571 3.79685 0
CELLS 542 2168
3 2 0 4
3 0 1 7
3 4 0 7
3 1 5 8
3 7 1 8
3 3 2 13
3 13 2 4
3 11 3 14
3 14 3 13
3 13 4 15
3 4 7 16
3 15 4 16
3 5 6 17
3 8 5 17
3 6 9 18
3 17 6 18
3 7 8 19
3 16 7 19
3 8 17 20
3 19 8 20
3 9 10 23
3 18 9 23
3 10 21 24
3 23 10 24
3 12 11 25
3 25 11 14
3 26 12 27
3 27 12 25
3 14 13 29
3 29 13 15
3 25 14 30
3 30 14 29
3 29 15 31
3 15 16 33
3 31 15 33
3 16 19 34
3 33 16 34
3 17 18 35
3 20 17 35
3 18 23 36
3 35 18 36
3 19 20 37
3 34 19 37
3 20 35 38
3 37 20 38
3 21 22 39
3 24 21 39
3 22 32 40
3 39 22 40
3 23 24 41
3 36 23 41
3 24 39 42
3 41 24 42
3 27 25 44
3 44 25 30
3 28 26 45
3 45 26 27
3 45 27 46
3 46 27 44
3 47 28 48
3 48 28 45
3 30 29 50
3 50 29 31
3 44 30 51
3 51 30 50
3 50 31 52
3 31 33 52
3 32 43 53
3 40 32 53
3 53 43 54
3 33 34 55
3 34 37 55
3 33 55 52
3 35 36 56
3 38 35 56
3 36 41 57
3 56 36 57
3 37 38 58
3 38 56 58
3 37 58 55
3 39 40 59
3 42 39 59
3 40 53 60
3 59 40 60
3 41 42 61
3 57 41 61
3 42 59 62
3 61 42 62
3 43 63 54
3 46 44 64
3 64 44 51
3 48 45 65
3 65 45 46
3 65 46 66
3 66 46 64
3 49 47 67
3 67 47 48
3 67 48 68
3 68 48 65
3 69 49 70
3 70 49 67
3 52 55 72
3 64 51 73
3 51 50 73
3 50 52 73
3 73 52 74
3 74 52 72
3 53 54 75
3 60 53 75
3 54 63 76
3 54 76 77
3 75 54 77
3 55 58 78
3 72 55 78
3 72 78 79
3 56 57 80
3 57 61 80
3 56 80 58
3 58 80 81
3 78 58 81
3 59 60 82
3 62 59 82
3 60 75 83
3 82 60 83
3 61 62 84
3 62 82 84
3 61 84 80
3 63 85 76
3 66 64 86
3 64 73 86
3 68 65 87
3 87 65 66
3 87 66 86
3 70 67 88
3 88 67 68
3 88 68 89
3 89 68 87
3 71 69 90
3 90 69 70
3 90 70 91
3 91 70 88
3 92 71 93
3 93 71 90
3 74 72 94
3 94 72 79
3 86 73 95
3 95 73 74
3 95 74 96
3 96 74 94
3 97 86 95
3 76 85 99
3 75 77 100
3 83 75 100
3 76 99 101
3 77 76 101
3 77 101 102
3 100 77 102
3 94 79 103
3 78 81 104
3 79 78 104
3 79 104 103
3 80 84 105
3 81 80 105
3 81 105 106
3 104 81 106
3 82 83 107
3 83 100 107
3 82 107 84
3 84 107 108
3 105 84 108
3 85 109 99
3 89 87 110
3 87 86 110
3 110 86 97
3 91 88 111
3 111 88 89
3 111 89 110
3 93 90 112
3 112 90 91
3 112 91 113
3 113 91 111
3 98 92 114
3 114 92 93
3 114 93 115
3 115 93 112
3 116 98 114
3 117 103 118
3 96 94 119
3 94 103 119
3 119 103 117
3 97 95 120
3 120 95 96
3 120 96 119
3 121 110 97
3 121 97 122
3 122 97 120
3 123 119 117
3 124 98 116
3 99 109 125
3 99 125 126
3 101 99 126
3 100 102 127
3 100 127 107
3 101 126 128
3 102 101 128
3 102 128 127
3 104 106 129
3 104 129 103
3 103 129 118
3 105 108 130
3 106 105 130
3 106 130 129
3 107 127 131
3 108 107 131
3 108 131 132
3 108 132 130
3 109 134 125
3 125 134 133
3 113 111 135
3 111 110 135
3 135 110 121
3 115 112 136
3 136 112 113
3 136 113 135
3 116 114 137
3 137 114 115
3 137 115 138
3 138 115 136
3 139 124 116
3 139 116 140
3 140 116 137
3 141 135 121
3 118 129 142
3 118 142 143
3 117 118 143
3 123 117 143
3 122 120 144
3 120 119 144
3 144 119 123
3 141 121 145
3 145 121 122
3 145 122 144
3 146 141 145
3 147 144 123
3 147 123 148
3 143 148 123
3 150 124 139
3 149 150 139
3 131 127 151
3 125 133 152
3 126 125 152
3 126 152 153
3 128 126 153
3 128 153 154
3 128 154 127
3 127 154 151
3 152 133 155
3 130 132 156
3 130 156 129
3 129 156 142
3 131 151 157
3 132 131 157
3 132 157 156
3 156 158 142
3 157 151 159
3 133 160 155
3 134 161 133
3 133 161 160
3 138 136 162
3 136 135 162
3 162 135 141
3 140 137 163
3 163 137 138
3 163 138 162
3 149 139 164
3 164 139 140
3 164 140 165
3 165 140 163
3 166 149 164
3 167 162 141
3 167 141 146
3 142 158 168
3 143 142 168
3 143 168 148
3 146 145 169
3 145 144 169
3 169 144 147
3 170 167 146
3 170 146 169
3 171 169 147
3 171 147 148
3 171 148 172
3 168 172 148
3 173 149 166
3 174 150 149
3 173 174 149
3 154 175 151
3 151 175 159
3 152 155 176
3 153 152 176
3 153 176 177
3 153 177 154
3 154 177 175
3 155 160 178
3 155 178 179
3 176 155 179
3 156 157 180
3 156 180 158
3 157 159 181
3 157 181 180
3 158 180 182
3 158 182 168
3 159 175 183
3 159 183 181
3 175 184 183
3 160 186 178
3 178 186 185
3 161 187 160
3 160 187 186
3 165 163 188
3 163 162 188
3 188 162 167
3 166 164 189
3 189 164 165
3 189 165 188
3 190 173 166
3 190 166 191
3 191 166 189
3 192 188 167
3 192 167 170
3 193 192 170
3 182 194 168
3 194 172 168
3 193 170 195
3 170 169 195
3 195 169 171
3 196 195 171
3 196 171 172
3 194 197 172
3 197 198 172
3 198 196 172
3 200 173 190
3 199 200 190
3 201 174 173
3 200 201 173
3 176 179 202
3 177 176 202
3 177 202 175
3 175 202 184
3 178 185 203
3 178 203 179
3 179 203 202
3 203 185 204
3 202 205 184
3 183 206 181
3 180 181 206
3 180 206 182
3 182 206 194
3 183 184 207
3 205 207 184
3 183 207 206
3 185 208 204
3 186 209 185
3 185 209 208
3 187 210 186
3 186 210 209
3 191 189 211
3 189 188 211
3 211 188 192
3 199 190 212
3 212 190 191
3 212 191 211
3 213 199 212
3 214 211 192
3 214 192 193
3 215 214 193
3 215 193 195
3 206 216 194
3 216 197 194
3 216 217 197
3 215 195 218
3 218 195 196
3 198 218 196
3 217 219 197
3 219 218 198
3 197 219 198
3 220 199 213
3 221 200 199
3 220 221 199
3 222 201 200
3 221 222 200
3 203 204 223
3 203 223 202
3 202 223 205
3 204 208 224
3 204 224 223
3 205 223 225
3 205 225 207
3 207 225 226
3 207 226 206
3 226 216 206
3 208 228 224
3 224 228 227
3 209 229 208
3 229 228 208
3 210 230 209
3 209 230 229
3 213 212 231
3 212 211 231
3 231 211 214
3 232 220 213
3 232 213 231
3 233 231 214
3 233 214 215
3 234 233 215
3 234 215 218
3 226 235 216
3 235 217 216
3 235 236 217
3 217 236 219
3 237 234 218
3 237 218 219
3 236 238 219
3 238 237 219
3 240 220 232
3 239 240 232
3 241 221 220
3 240 241 220
3 242 222 221
3 241 242 221
3 224 227 243
3 224 243 223
3 223 243 225
3 225 243 244
3 225 244 226
3 226 244 235
3 227 245 243
3 228 246 227
3 227 246 245
3 229 247 228
3 228 247 246
3 230 248 229
3 229 248 247
3 239 232 249
3 232 231 249
3 249 231 233
3 250 249 233
3 250 233 234
3 237 250 234
3 244 251 235
3 235 251 236
3 251 252 236
3 236 252 238
3 252 253 238
3 253 250 237
3 253 237 238
3 254 239 249
3 255 240 239
3 254 255 239
3 256 241 240
3 255 256 240
3 257 242 241
3 256 257 241
3 245 258 243
3 243 258 244
3 244 258 251
3 245 259 258
3 246 260 245
3 245 260 259
3 247 261 246
3 246 261 260
3 248 262 247
3 247 262 261
3 254 249 263
3 263 249 250
3 253 263 250
3 258 264 251
3 251 264 252
3 264 265 252
3 265 263 253
3 252 265 253
3 266 254 263
3 267 255 254
3 266 267 254
3 268 256 255
3 267 268 255
3 269 257 256
3 268 269 256
3 259 270 258
3 270 264 258
3 260 271 259
3 259 271 270
3 261 272 260
3 260 272 271
3 262 273 261
3 273 272 261
3 270 274 264
3 275 266 263
3 275 263 265
3 274 276 264
3 276 265 264
3 276 277 265
3 277 275 265
3 278 267 266
3 275 278 266
3 279 268 267
3 278 279 267
3 280 269 268
3 279 280 268
3 271 281 270
3 270 281 274
3 272 282 271
3 271 282 281
3 273 283 272
3 272 283 282
3 281 284 274
3 274 284 276
3 285 278 275
3 277 285 275
3 284 286 276
3 286 285 277
3 276 286 277
3 287 279 278
3 285 287 278
3 288 280 279
3 287 288 279
3 282 289 281
3 281 289 284
3 283 290 282
3 282 290 289
3 289 291 284
3 284 291 286
3 291 292 286
3 292 287 285
3 286 292 285
3 293 288 287
3 292 293 287
3 290 294 289
3 289 294 291
3 294 295 291
3 295 293 292
3 291 295 292
CELL_TYPES 542
5
5
5
5
5
5
5
5
5
5
5
5
5
5
5
5
5
5
5
5
5
5
5
5
5
5
5
5
5
5
5
5
5
5
5
5
5
5
5
5
5
5
5
5
5
5
5
5
5
5
5
5
5
5
5
5
5
5
5
5
5
5
5
5
5
5
5
5
5
5
5
5
5
5
5
5
5
5
5
5
5
5
5
5
5
5
5
5
5
5
5
5
5
5
5
5
5
5
5
5
5
5
5
5
5
5
5
5
5
5
5
5
5
5
5
5
5
5
5
5
5
5
5
5
5
5
5
5
5
5
5
5
5
5
5
5
5
5
5
5
5
5
5
5
5
5
5
5
5
5
5
5
5
5
5
5
5
5
5
5
5
5
5
5
5
5
5
5
5
5
5
5
5
5
5
5
5
5
5
5
5
5
5
5
5
5
5
5
5
5
5
5
5
5
5
5
5
5
5
5
5
5
5
5
5
5
5
5
5
5
5
5
5
5
5
5
5
5
5
5
5
5
5
5
5
5
5
5
5
5
5
5
5
5
5
5
5
5
5
5
5
5
5
5
5
5
5
5
5
5
5
5
5
5
5
5
5
5
5
5
5
5
5
5
5
5
5
5
5
5
5
5
5
5
5
5
5
5
5
5
5
5
5
5
5
5
5
5
5
5
5
5
5
5
5
5
5
5
5
5
5
5
5
5
5
5
5
5
5
5
5
5
5
5
5
5
5
5
5
5
5
5
5
5
5
5
5
5
5
5
5
5
5
5
5
5
5
5
5
5
5
5
5
5
5
5
5
5
5
5
5
5
5
5
5
5
5
5
5
5
5
5
5
5
5
5
5
5
5
5
5
5
5
5
5
5
5
5
5
5
5
5
5
5
5
5
5
5
5
5
5
5
5
5
5
5
5
5
5
5
5
5
5
5
5
5
5
5
5
5
5
5
5
5
5
5
5
5
5
5
5
5
5
5
5
5
5
5
5
5
5
5
5
5
5
5
5
5
5
5
5
5
5
5
5
5
5
5
5
5
5
5
5
5
5
5
5
5
5
5
5
5
5
5
5
5
5
5
5
5
5
5
5
5
5
5
5
5
5
5
5
5
5
5
5
5
5
5
5
5
5
5
5
5
5
5
5
5
5
5
5
5
5
5
5
5
5
5
5
5
5
5
5
5
5
5
5
5
5
5
5
5
5
5
5
5
5
5
5
5
5
5
5
5
5
5
5
5
5
5
5
5
POINT_DATA 296
SCALARS concentrations float 4
LOOKUP_TABLE default
0 0.958398 0.141171 150.346
0 0.95827 0.141618 314.647
0 0.95849 0.144853 252.594
0 0.958224 0.138611 189.416
0 0.958454 0.0915492 1.49953
0 0.958056 0.141189 254.827
0 0.958037 0.142803 334.658
0 0.958341 0.091486 3.46764
0 0.958208 0.0914564 2.78675
0 0.958309 0.138741 179.113
0 0.958592 0.141007 230.982
0 0.958394 0.141286 245.841
0 0.958695 0.140786 259.343
0 0.958376 0.0914649 2.07083
0 0.958313 0.0915924 5.08519
0 0.958446 0.0912287 0.781998
0 0.958424 0.0911433 0.660917
0 0.958106 0.0914693 1.47678
0 0.958237 0.0915701 1.37793
0 0.958357 0.0911317 0.452683
0 0.958298 0.0911558 0.0884611
0 0.958753 0.142777 78.7771
0 0.958718 0.138368 347.654
0 0.958489 0.0915098 0.70406
0 0.958712 0.0917363 2.50674
0 0.958529 0.0915553 6.49824
0 0.958851 0.137233 271.033
0 0.958719 0.0917199 9.25036
0 0.958763 0.139087 219.841
0 0.958425 0.0912362 1.06207
0 0.958466 0.0912322 2.35464
0 0.958521 0.0911532 0.70765
0 0.959196 0.142705 124.738
0 0.958536 0.091098 0.43384
0 0.958494 0.0910855 0.315603
0 0.958336 0.0911921 0.970529
0 0.958475 0.0911941 1.00355
0 0.958501 0.0910625 0.148231
0 0.958478 0.0910879 0.508115
0 0.958761 0.0917679 4.16343
0 0.95895 0.0914027 1.60777
0 0.958652 0.0912382 0.834235
0 0.958779 0.09125 0.979111
0 0.9593 0.141984 248.887
0 0.958564 0.0912395 3.43515
0 0.958761 0.0917898 7.60258
0 0.958647 0.091192 3.13038
0 0.958563 0.139465 101.933
0 0.958659 0.0917191 3.50363
0 0.958483 0.141078 262.402
0 0.958546 0.0911196 0.598975
0 0.95856 0.0911052 0.941764
0 0.958626 0.0910621 0.367708
0 0.959241 0.0915079 1.82406
0 0.959101 0.0916524 6.15361
0 0.958622 0.0910431 0.340311
0 0.958571 0.0910831 0.51586
0 0.958652 0.0911109 0.456199
0 0.958646 0.0910224 0.154518
0 0.958896 0.0912097 0.777514
0 0.959028 0.0911679 1.24554
0 0.95876 0.0910871 0.286884
0 0.958852 0.0911052 0.404447
0 0.958914 0.139196 139.822
0 0.958625 0.0910509 0.744593
0 0.958667 0.0912353 1.82018
0 0.958655 0.0910884 0.385276
0 0.95854 0.0916601 3.89396
0 0.958643 0.0912299 1.45242
0 0.958661 0.14064 223.742
0 0.958612 0.0917774 4.13488
0 0.958517 0.138906 165.952
0 0.958704 0.0910466 0.130092
0 0.958654 0.0910517 0.74348
0 0.958716 0.0910661 0.616952
0 0.959081 0.0912323 2.3178
0 0.958822 0.0916002 7.18162
0 0.958985 0.0912696 3.0508
0 0.958717 0.0910304 0.21227
0 0.958784 0.0910504 0.185769
0 0.958734 0.0910223 0.241379
0 0.958757 0.0910299 0.169914
0 0.958922 0.0910649 0.848455
0 0.958989 0.0911033 1.41334
0 0.958844 0.091018 0.205359
0 0.958679 0.137434 101.063
0 0.958703 0.0910749 0.99832
0 0.958688 0.0911135 0.782097
0 0.958652 0.09125 1.99867
0 0.958699 0.0911683 1.55819
0 0.95864 0.091845 3.60898
0 0.958683 0.0912655 2.25313
0 0.958328 0.140651 159.972
0 0.958487 0.0917984 3.33327
0 0.958796 0.0910435 0.282758
0 0.958741 0.0910685 0.868783
0 0.958797 0.0910531 0.601939
0 0.95878 0.0910833 1.10832
0 0.958091 0.140424 307.12
0 0.958717 0.0914538 4.55824
0 0.958972 0.0911295 1.66122
0 0.958856 0.091203 2.16214
0 0.958924 0.0911468 1.61291
0 0.958849 0.0910174 0.288012
0 0.95881 0.0910361 0.290946
0 0.958819 0.0910251 0.251742
0 0.958831 0.0910293 0.330568
0 0.958908 0.0910243 0.81656
0 0.958872 0.0910067 0.405883
0 0.95856 0.141234 155.087
0 0.958755 0.0910934 1.27091
0 0.958735 0.091159 1.76609
0 0.958655 0.0912504 1.18573
0 0.958736 0.0911564 1.52878
0 0.958314 0.0917835 3.30899
0 0.958558 0.0912289 0.812617
0 0.958136 0.0917926 2.73602
0 0.958887 0.0910037 0.362089
0 0.958888 0.0910032 0.325826
0 0.958857 0.0910163 0.529265
0 0.958829 0.0910514 0.798957
0 0.958814 0.0910561 1.10731
0 0.958845 0.0910642 1.02402
0 0.958904 0.0909981 0.576503
0 0.957925 0.140191 333.72
0 0.958399 0.0917495 2.34467
0 0.958689 0.091194 0.990772
0 0.95889 0.0910625 1.17552
0 0.958831 0.0911188 1.10217
0 0.958867 0.0910123 0.485984
0 0.958865 0.0910097 0.460353
0 0.958883 0.0910129 0.773785
0 0.958879 0.091003 0.561095
0 0.958247 0.0920484 7.51611
0 0.958048 0.132721 274.867
0 0.958786 0.0910694 1.21759
0 0.958724 0.0910972 0.766471
0 0.958441 0.0912098 0.983147
0 0.958656 0.091099 0.211733
0 0.958053 0.0917199 0.828436
0 0.958361 0.091262 1.15066
0 0.958834 0.0910383 1.02994
0 0.958899 0.0909936 0.467239
0 0.958911 0.0909854 0.320949
0 0.958886 0.0910184 0.818026
0 0.958874 0.0910386 1.02732
0 0.958882 0.0910298 1.29178
0 0.958918 0.0909918 0.720515
0 0.958922 0.0909747 0.500818
0 0.958162 0.0915053 4.93024
0 0.957921 0.138857 210.491
0 0.958851 0.0910266 0.990684
0 0.958523 0.0912051 1.13794
0 0.958709 0.0911088 0.920839
0 0.958816 0.0910641 1.2099
0 0.958471 0.0911723 2.81602
0 0.958882 0.0909968 0.627476
0 0.958871 0.0910072 0.775595
0 0.958895 0.0909915 0.581477
0 0.958834 0.0910338 1.09028
0 0.958426 0.0918567 8.47465
0 0.958298 0.139324 355.288
0 0.958777 0.0910407 0.853794
0 0.958637 0.0910757 0.28695
0 0.958364 0.091231 0.999767
0 0.958585 0.0911316 0.724775
0 0.958417 0.0911428 0.795851
0 0.958838 0.0910221 1.3236
0 0.958909 0.0909741 0.252318
0 0.95891 0.0910069 1.06523
0 0.958895 0.0910306 1.59218
0 0.958925 0.0909847 0.848672
0 0.958913 0.0909789 0.670826
0 0.95821 0.0915642 7.17542
0 0.95812 0.142199 277.311
0 0.958783 0.0910538 1.16775
0 0.958622 0.0910699 1.42264
0 0.958727 0.0910664 1.23507
0 0.958507 0.091263 3.38442
0 0.958584 0.0911187 1.91786
0 0.958872 0.0909989 0.71846
0 0.958847 0.0910147 0.843381
0 0.958882 0.0909886 0.41183
0 0.958807 0.0910279 0.883918
0 0.958749 0.0910467 0.993868
0 0.958513 0.0912863 2.70693
0 0.958521 0.091579 3.12088
0 0.958453 0.138825 178.832
0 0.958764 0.0910378 1.15873
0 0.958641 0.091101 0.793563
0 0.958476 0.091206 1.74951
0 0.958648 0.0910993 0.498064
0 0.958847 0.0910273 1.64094
0 0.958897 0.0910305 1.68578
0 0.958881 0.0909888 0.458338
0 0.958916 0.0910028 1.25823
0 0.95892 0.0910015 1.00868
0 0.958879 0.091006 0.778024
0 0.958901 0.0910098 0.994975
0 0.958545 0.0911906 1.55498
0 0.95826 0.0917672 6.08013
0 0.958034 0.137576 234.947
0 0.958677 0.0910542 1.12543
0 0.958588 0.0911459 1.73638
0 0.958552 0.0911724 1.63084
0 0.958701 0.0910493 0.8079
0 0.958834 0.0909963 0.426873
0 0.95877 0.0910293 0.555021
0 0.958467 0.0912996 1.84604
0 0.958496 0.0916491 3.78582
0 0.958597 0.144005 167.207
0 0.958786 0.0910287 1.57451
0 0.95871 0.0910762 0.573754
0 0.958713 0.0910948 0.404197
0 0.958858 0.0910375 1.73171
0 0.958896 0.091034 1.55932
0 0.958833 0.0910101 0.521539
0 0.958833 0.0910298 0.817703
0 0.958898 0.0910266 1.2354
0 0.958862 0.0910421 1.11681
0 0.958575 0.0912005 1.08366
0 0.958437 0.0915741 3.42611
0 0.958269 0.139414 125.447
0 0.958632 0.0910712 0.842201
0 0.958549 0.0911101 0.721265
0 0.958696 0.0910367 0.328853
0 0.958774 0.0910172 0.286715
0 0.958531 0.0910845 0.242136
0 0.95844 0.0912254 0.235748
0 0.95834 0.0917893 2.79998
0 0.958373 0.140849 263.339
0 0.958812 0.0910431 1.64072
0 0.95874 0.0910915 0.912095
0 0.958856 0.0910478 1.64293
0 0.958878 0.0910552 1.50532
0 0.958772 0.0910244 0.585597
0 0.958792 0.0910426 0.952812
0 0.958856 0.0910631 1.31407
0 0.958817 0.0910672 1.16744
0 0.95873 0.0911341 1.44726
0 0.958568 0.091237 1.79818
0 0.958381 0.0915434 4.0742
0 0.958364 0.139738 269.056
0 0.958624 0.091037 0.0905445
0 0.958702 0.0910228 0.306832
0 0.958566 0.0910803 0.82565
0 0.958469 0.0911713 1.77885
0 0.958404 0.0915937 3.98394
0 0.958301 0.138657 214.041
0 0.958813 0.0910498 1.13866
0 0.958838 0.0910539 1.25396
0 0.958723 0.0910259 0.755256
0 0.95876 0.0910464 1.07018
0 0.958806 0.0910728 1.2964
0 0.958776 0.0911016 1.05252
0 0.958618 0.0912298 2.22376
0 0.958332 0.0914757 4.49601
0 0.958178 0.138421 146.816
0 0.958652 0.0910341 0.441853
0 0.95859 0.0911227 1.18101
0 0.958534 0.0912042 2.35268
0 0.958475 0.0914412 3.99251
0 0.95846 0.145315 292.066
0 0.95881 0.0910586 0.972775
0 0.958702 0.0910469 0.847178
0 0.958771 0.0910747 1.10131
0 0.958821 0.0910856 0.522042
0 0.958768 0.0911701 1.62494
0 0.958537 0.0914306 2.09294
0 0.958271 0.138818 264.85
0 0.958636 0.0910995 0.792876
0 0.958609 0.0912501 2.1284
0 0.958616 0.0915581 3.1253
0 0.958518 0.139793 276.127
0 0.958669 0.0911196 0.958356
0 0.958832 0.0910795 0.298968
0 0.958727 0.0911121 0.928234
0 0.958802 0.091116 0.849924
0 0.958917 0.0911271 1.49321
0 0.958915 0.0913931 3.91565
0 0.958684 0.139269 190.948
0 0.958645 0.0912316 1.92567
0 0.958727 0.0916391 3.08243
0 0.958793 0.140509 138.431
0 0.958688 0.0912026 1.53947
0 0.958933 0.091155 0.895457
0 0.958808 0.091198 1.4514
0 0.959173 0.0914302 4.22953
0 0.959184 0.137877 167.294
0 0.958643 0.0914866 2.96741
0 0.958707 0.139316 220.152
0 0.958729 0.091483 0.973224
0 0.959018 0.0915392 3.52432
0 0.959277 0.140129 192.942
0 0.958635 0.140317 316.536
0 0.958886 0.139788 136.115
VECTORS fa_u float
0.00786019 0.00325985 -0
0.00449921 0.00260621 -0
0.00500233 0.00133962 -0
0.0071013 0.000973126 -0
1e-08 0 0
0.00604154 0.00461935 -0
0.00380788 0.00377714 -0
1e-08 0 0
1e-08 0 0
0.00440453 0.00563996 -0
0.00343106 0.00586872 -0
0.00615485 3.37067e-05 -0
0.00667003 -0.000825252 0
1e-08 0 0
1e-08 0 0
1e-08 0 0
1e-08 0 0
1e-08 0 0
1e-08 0 0
1e-08 0 0
1e-08 0 0
0.00300186 0.00726355 -0
0.00154511 0.00584717 -0
1e-08 0 0
1e-08 0 0
1e-08 0 0
0.00745344 -0.00197603 0
1e-08 0 0
0.00651864 -0.00273429 0
1e-08 0 0
1e-08 0 0
1e-08 0 0
0.000920657 0.0071579 -0
1e-08 0 0
1e-08 0 0
1e-08 0 0
1e-08 0 0
1e-08 0 0
1e-08 0 0
1e-08 0 0
1e-08 0 0
1e-08 0 0
1e-08 0 0
-2.76132e-05 0.00639008 -0
1e-08 0 0
1e-08 0 0
1e-08 0 0
0.00618124 -0.00364359 0
1e-08 0 0
0.00462131 -0.0035996 0
1e-08 0 0
1e-08 0 0
1e-08 0 0
1e-08 0 0
1e-08 0 0
1e-08 0 0
1e-08 0 0
1e-08 0 0
1e-08 0 0
1e-08 0 0
1e-08 0 0
1e-08 0 0
1e-08 0 0
-0.000925961 0.00681883 0
1e-08 0 0
1e-08 0 0
1e-08 0 0
1e-08 0 0
1e-08 0 0
0.00447904 -0.0044941 0
1e-08 0 0
0.00323307 -0.00414979 0
1e-08 0 0
1e-08 0 0
1e-08 0 0
1e-08 0 0
1e-08 0 0
1e-08 0 0
1e-08 0 0
1e-08 0 0
1e-08 0 0
1e-08 0 0
1e-08 0 0
1e-08 0 0
1e-08 0 0
-0.00149138 0.00555888 0
1e-08 0 0
1e-08 0 0
1e-08 0 0
1e-08 0 0
1e-08 0 0
1e-08 0 0
0.00413534 -0.0070358 0
1e-08 0 0
1e-08 0 0
1e-08 0 0
1e-08 0 0
1e-08 0 0
0.0029252 -0.00714919 0
1e-08 0 0
1e-08 0 0
1e-08 0 0
1e-08 0 0
1e-08 0 0
1e-08 0 0
1e-08 0 0
1e-08 0 0
1e-08 0 0
1e-08 0 0
-0.00262672 0.00639921 0
1e-08 0 0
1e-08 0 0
1e-08 0 0
1e-08 0 0
1e-08 0 0
1e-08 0 0
1e-08 0 0
1e-08 0 0
1e-08 0 0
1e-08 0 0
1e-08 0 0
1e-08 0 0
1e-08 0 0
1e-08 0 0
0.00148578 -0.00566236 0
1e-08 0 0
1e-08 0 0
1e-08 0 0
1e-08 0 0
1e-08 0 0
1e-08 0 0
1e-08 0 0
1e-08 0 0
1e-08 0 0
-0.00399478 0.006854 0
1e-08 0 0
1e-08 0 0
1e-08 0 0
1e-08 0 0
1e-08 0 0
1e-08 0 0
1e-08 0 0
1e-08 0 0
1e-08 0 0
1e-08 0 0
1e-08 0 0
1e-08 0 0
1e-08 0 0
1e-08 0 0
1e-08 0 0
0.00076223 -0.00560852 0
1e-08 0 0
1e-08 0 0
1e-08 0 0
1e-08 0 0
1e-08 0 0
1e-08 0 0
1e-08 0 0
1e-08 0 0
1e-08 0 0
1e-08 0 0
-0.00330625 0.00427714 0
1e-08 0 0
1e-08 0 0
1e-08 0 0
1e-08 0 0
1e-08 0 0
1e-08 0 0
1e-08 0 0
1e-08 0 0
1e-08 0 0
1e-08 0 0
1e-08 0 0
1e-08 0 0
3.66748e-05 -0.00756599 0
1e-08 0 0
1e-08 0 0
1e-08 0 0
1e-08 0 0
1e-08 0 0
1e-08 0 0
1e-08 0 0
1e-08 0 0
1e-08 0 0
1e-08 0 0
1e-08 0 0
1e-08 0 0
-0.00437654 0.00442307 0
1e-08 0 0
1e-08 0 0
1e-08 0 0
1e-08 0 0
1e-08 0 0
1e-08 0 0
1e-08 0 0
1e-08 0 0
1e-08 0 0
1e-08 0 0
1e-08 0 0
1e-08 0 0
1e-08 0 0
-0.000742159 -0.00583813 0
1e-08 0 0
1e-08 0 0
1e-08 0 0
1e-08 0 0
1e-08 0 0
1e-08 0 0
1e-08 0 0
1e-08 0 0
-0.0050804 0.00396829 0
1e-08 0 0
1e-08 0 0
1e-08 0 0
1e-08 0 0
1e-08 0 0
1e-08 0 0
1e-08 0 0
1e-08 0 0
1e-08 0 0
1e-08 0 0
1e-08 0 0
-0.00202931 -0.0076474 0
1e-08 0 0
1e-08 0 0
1e-08 0 0
1e-08 0 0
1e-08 0 0
1e-08 0 0
1e-08 0 0
-0.00599759 0.00352907 0
1e-08 0 0
1e-08 0 0
1e-08 0 0
1e-08 0 0
1e-08 0 0
1e-08 0 0
1e-08 0 0
1e-08 0 0
1e-08 0 0
1e-08 0 0
1e-08 0 0
-0.00235221 -0.0056642 0
1e-08 0 0
1e-08 0 0
1e-08 0 0
1e-08 0 0
1e-08 0 0
-0.0082652 0.00338876 0
1e-08 0 0
1e-08 0 0
1e-08 0 0
1e-08 0 0
1e-08 0 0
1e-08 0 0
1e-08 0 0
1e-08 0 0
-0.00384408 -0.00661438 0
1e-08 0 0
1e-08 0 0
1e-08 0 0
1e-08 0 0
-0.00487206 0.00127727 0
1e-08 0 0
1e-08 0 0
1e-08 0 0
1e-08 0 0
1e-08 0 0
1e-08 0 0
-0.00415937 -0.0053304 0
1e-08 0 0
1e-08 0 0
1e-08 0 0
-0.00700321 0.000930492 0
1e-08 0 0
1e-08 0 0
1e-08 0 0
1e-08 0 0
1e-08 0 0
1e-08 0 0
-0.00360854 -0.00360627 0
1e-08 0 0
1e-08 0 0
-0.0074014 -3.17769e-05 0
1e-08 0 0
1e-08 0 0
1e-08 0 0
1e-08 0 0
-0.00636225 -0.00489766 0
1e-08 0 0
-0.0062505 -0.00086205 0
1e-08 0 0
1e-08 0 0
-0.00519577 -0.00298924 0
-0.00525269 -0.00139526 0
-0.00718169 -0.00294642 0
