# vtk DataFile Version 2.0
CellBP Time: 1.04
ASCII
DATASET UNSTRUCTURED_GRID
POINTS 296 double
-9.14373 -3.75752 0
-8.56104 -4.92133 0
-9.56233 -2.52456 0
-9.81851 -1.24888 0
-8.3452 -2.81324 0
-7.84619 -6.00935 0
-6.9803 -6.98141 0
-7.90487 -3.86768 0
-7.33072 -4.86 0
-6.00924 -7.84714 0
-4.925 -8.56551 0
-9.89883 0.0494184 0
-9.81769 1.34854 0
-8.64628 -1.68082 0
-8.77581 -0.528754 0
-7.57773 -1.9998 0
-7.21339 -2.90041 0
-6.62786 -5.77116 0
-5.81483 -6.58956 0
-6.77831 -3.88152 0
-6.21014 -4.66842 0
-3.75691 -9.13909 0
-2.52616 -9.56394 0
-4.90139 -7.30169 0
-3.91017 -7.87944 0
-8.78322 0.64223 0
-9.56744 2.62669 0
-8.6149 1.77151 0
-9.13881 3.8558 0
-7.73324 -0.926757 0
-7.78428 0.0806019 0
-6.94191 -1.3129 0
-1.24779 -9.81243 0
-6.4317 -2.14902 0
-6.30935 -3.05048 0
-5.52812 -5.46726 0
-4.78947 -6.10839 0
-5.6501 -3.75092 0
-5.26074 -4.55468 0
-2.86399 -8.3565 0
-1.77671 -8.63201 0
-3.92386 -6.71673 0
-3.05428 -7.14602 0
0.0503377 -9.90464 0
-7.69617 1.14195 0
-8.33163 2.9127 0
-7.54338 2.10881 0
-8.57041 5.02673 0
-7.8716 3.97368 0
-7.84449 6.10769 0
-6.76912 -0.395639 0
-6.94708 0.552226 0
-5.76418 -1.00186 0
-0.589883 -8.80055 0
0.564397 -8.76059 0
-5.29623 -2.47645 0
-4.48487 -5.08882 0
-3.89708 -5.7685 0
-4.43312 -3.79977 0
-2.06045 -7.55471 0
-1.13436 -7.77777 0
-2.99099 -6.0955 0
-2.30698 -6.61329 0
1.34852 -9.81664 0
-6.68131 1.41999 0
-7.16349 3.11384 0
-6.65135 2.36975 0
-7.28577 4.98239 0
-6.70978 3.99745 0
-6.986 7.0853 0
-6.5643 5.88619 0
-6.00311 7.93834 0
-4.44935 -1.1802 0
-5.80825 0.51264 0
-4.65244 -0.011241 0
0.00768761 -7.83877 0
1.73518 -8.63227 0
0.946406 -7.75313 0
-4.03496 -2.40383 0
-3.48427 -1.39068 0
-3.29082 -4.80001 0
-3.26359 -3.2647 0
-1.37773 -6.66813 0
-0.509201 -7.01652 0
-1.97382 -5.53168 0
2.62345 -9.55596 0
-5.50141 2.03467 0
-6.08739 3.06781 0
-6.09741 4.86261 0
-5.75448 3.98532 0
-5.75383 6.70767 0
-5.44506 5.61099 0
-4.92464 8.66628 0
-4.83182 7.39399 0
-3.49976 -0.424203 0
-4.44535 1.2478 0
-3.70895 0.591609 0
-4.05835 2.31841 0
-3.75987 9.24661 0
2.85698 -8.32026 0
0.417468 -6.7861 0
2.01744 -7.51449 0
1.30238 -6.89523 0
-2.44402 -0.873289 0
-2.83731 -2.12985 0
-2.29297 -4.09375 0
-2.3245 -2.97139 0
-0.442835 -5.85425 0
-1.22151 -4.49533 0
3.85654 -9.14046 0
-4.78436 3.38759 0
-5.08149 4.58717 0
-4.64085 6.27181 0
-4.53291 5.35149 0
-3.83945 7.98344 0
-3.82118 6.83486 0
-2.7795 8.4118 0
-1.64879 -0.137456 0
-1.4499 -0.890166 0
-2.48855 0.50766 0
-3.25145 1.44365 0
-3.236 3.31352 0
-2.90892 2.37101 0
-1.35511 0.627516 0
-2.52621 9.66283 0
3.92596 -7.87495 0
2.95815 -7.1455 0
0.951471 -5.81398 0
2.06955 -6.40526 0
-1.68229 -1.9913 0
-1.43349 -3.27545 0
0.0897208 -4.74201 0
-0.565383 -3.69183 0
4.92464 -7.30733 0
5.02766 -8.57245 0
-3.77253 4.54559 0
-3.72986 5.74363 0
-2.88357 7.27909 0
-3.00554 6.34445 0
-1.66036 8.72346 0
-1.93704 7.60937 0
-2.33638 4.04764 0
-0.730492 -1.32691 0
-0.836861 -0.257269 0
-1.93598 1.68107 0
-2.12468 2.8745 0
-1.30618 3.54248 0
-0.869783 1.35119 0
-0.282661 0.456326 0
-0.532819 8.86246 0
-1.24854 9.91262 0
1.11081 -4.5691 0
3.90246 -6.70485 0
2.982 -6.08441 0
2.11374 -5.41678 0
4.77687 -6.19454 0
-0.55839 -2.47576 0
0.494887 -3.46126 0
0.0536194 -1.61023 0
1.47998 -3.67823 0
5.85946 -6.60466 0
6.1045 -7.84082 0
-2.47277 5.34166 0
-2.12715 6.52549 0
-0.902408 7.79433 0
-1.26983 6.92308 0
0.0866132 7.87236 0
-1.14361 4.49064 0
0.150131 -0.617403 0
-0.797979 2.48849 0
-0.332336 3.59915 0
0.0624951 1.51287 0
0.740858 0.473473 0
0.646109 8.86629 0
0.0495411 10.0034 0
2.37733 -4.2793 0
3.85263 -5.63063 0
2.99624 -5.20436 0
5.5667 -5.48331 0
4.68398 -5.27372 0
0.629738 -2.2929 0
1.25513 -2.9491 0
0.757303 -1.39129 0
2.16197 -3.13271 0
2.99017 -3.47228 0
6.14851 -4.78524 0
6.64856 -5.76178 0
7.08517 -6.9845 0
-1.01803 5.8137 0
-0.371213 6.87563 0
1.12184 7.76281 0
0.558145 7.07275 0
-0.00104909 4.72155 0
0.606057 3.82569 0
1.33842 -0.641916 0
0.538229 2.65031 0
0.965228 1.57489 0
1.90939 0.213675 0
1.61385 1.06486 0
2.12811 7.57751 0
1.79797 8.70535 0
1.34869 9.9171 0
3.81756 -4.34489 0
5.11 -4.44162 0
5.83948 -3.92957 0
3.77983 -3.19706 0
1.81137 -1.88233 0
3.01638 -2.57175 0
6.77722 -3.94363 0
7.37501 -4.89193 0
7.93982 -6.00353 0
0.483359 5.87603 0
1.42743 6.73607 0
2.37296 6.66384 0
1.2089 4.55308 0
1.4871 3.3957 0
2.4345 -0.691901 0
2.82654 0.142595 0
1.7878 2.16222 0
2.61079 1.14979 0
3.07029 7.16466 0
2.90274 8.37051 0
2.62625 9.66347 0
4.90591 -3.32314 0
6.11491 -3.10481 0
4.1692 -2.27331 0
3.24214 -1.50228 0
6.72606 -2.31119 0
7.22646 -3.04032 0
7.95893 -3.90988 0
8.67152 -4.928 0
2.02243 5.59545 0
3.08345 6.14833 0
2.36271 4.12392 0
2.41889 3.05903 0
3.52336 -0.460443 0
3.61356 0.613435 0
2.96016 2.28679 0
3.54309 1.52449 0
4.00754 5.89273 0
3.98114 6.78787 0
3.97145 7.93329 0
3.85911 9.2445 0
5.56428 -1.91446 0
4.50585 -1.12868 0
6.70849 -1.33492 0
7.58695 -2.03471 0
8.3911 -2.85956 0
9.24645 -3.76018 0
3.41522 4.8725 0
3.33595 3.38252 0
4.68769 0.130367 0
4.51488 1.30874 0
4.06105 2.44142 0
4.56436 5.14718 0
4.8386 6.1856 0
4.97683 7.37516 0
5.02561 8.66662 0
5.87823 -0.434826 0
7.00476 -0.488251 0
7.75391 -1.08396 0
8.67881 -1.74403 0
9.65554 -2.52391 0
4.54661 3.82342 0
5.81136 1.09666 0
5.36443 2.53153 0
5.37243 4.61529 0
5.60538 5.51831 0
5.89142 6.66671 0
6.1114 7.9498 0
6.83924 0.462004 0
7.8469 -0.0259131 0
8.85423 -0.583249 0
9.92025 -1.2487 0
6.95272 1.34671 0
5.71322 3.77372 0
6.53323 2.19375 0
6.37152 3.08341 0
6.28388 4.68156 0
6.68548 5.83234 0
7.08346 7.08408 0
7.77701 0.96584 0
8.85223 0.572163 0
9.99982 0.0507045 0
7.60771 2.00103 0
6.81911 3.89859 0
7.26002 2.94217 0
7.36966 4.8807 0
7.94785 6.11028 0
8.71443 1.72436 0
9.91892 1.34928 0
8.41097 2.83382 0
7.97265 3.91166 0
8.66695 5.02488 0
9.65635 2.62404 0
9.24525 3.85882 0
CELLS 542 2168
3 2 0 4
3 0 1 7
3 4 0 7
3 1 5 8
3 7 1 8
3 3 2 13
3 13 2 4
3 11 3 14
3 14 3 13
3 13 4 15
3 4 7 16
3 15 4 16
3 5 6 17
3 8 5 17
3 6 9 18
3 17 6 18
3 7 8 19
3 16 7 19
3 8 17 20
3 19 8 20
3 9 10 23
3 18 9 23
3 10 21 24
3 23 10 24
3 12 11 25
3 25 11 14
3 26 12 27
3 27 12 25
3 14 13 29
3 29 13 15
3 25 14 30
3 30 14 29
3 29 15 31
3 15 16 33
3 31 15 33
3 16 19 34
3 33 16 34
3 17 18 35
3 20 17 35
3 18 23 36
3 35 18 36
3 19 20 37
3 34 19 37
3 20 35 38
3 37 20 38
3 21 22 39
3 24 21 39
3 22 32 40
3 39 22 40
3 23 24 41
3 36 23 41
3 24 39 42
3 41 24 42
3 27 25 44
3 44 25 30
3 28 26 45
3 45 26 27
3 45 27 46
3 46 27 44
3 47 28 48
3 48 28 45
3 30 29 50
3 50 29 31
3 44 30 51
3 51 30 50
3 50 31 52
3 31 33 52
3 32 43 53
3 40 32 53
3 53 43 54
3 33 34 55
3 34 37 55
3 33 55 52
3 35 36 56
3 38 35 56
3 36 41 57
3 56 36 57
3 37 38 58
3 38 56 58
3 37 58 55
3 39 40 59
3 42 39 59
3 40 53 60
3 59 40 60
3 41 42 61
3 57 41 61
3 42 59 62
3 61 42 62
3 43 63 54
3 46 44 64
3 64 44 51
3 48 45 65
3 65 45 46
3 65 46 66
3 66 46 64
3 49 47 67
3 67 47 48
3 67 48 68
3 68 48 65
3 69 49 70
3 70 49 67
3 52 55 72
3 64 51 73
3 51 50 73
3 50 52 73
3 73 52 74
3 74 52 72
3 53 54 75
3 60 53 75
3 54 63 76
3 54 76 77
3 75 54 77
3 55 58 78
3 72 55 78
3 72 78 79
3 56 57 80
3 57 61 80
3 56 80 58
3 58 80 81
3 78 58 81
3 59 60 82
3 62 59 82
3 60 75 83
3 82 60 83
3 61 62 84
3 62 82 84
3 61 84 80
3 63 85 76
3 66 64 86
3 64 73 86
3 68 65 87
3 87 65 66
3 87 66 86
3 70 67 88
3 88 67 68
3 88 68 89
3 89 68 87
3 71 69 90
3 90 69 70
3 90 70 91
3 91 70 88
3 92 71 93
3 93 71 90
3 74 72 94
3 94 72 79
3 86 73 95
3 95 73 74
3 95 74 96
3 96 74 94
3 97 86 95
3 76 85 99
3 75 77 100
3 83 75 100
3 76 99 101
3 77 76 101
3 77 101 102
3 100 77 102
3 94 79 103
3 78 81 104
3 79 78 104
3 79 104 103
3 80 84 105
3 81 80 105
3 81 105 106
3 104 81 106
3 82 83 107
3 83 100 107
3 82 107 84
3 84 107 108
3 105 84 108
3 85 109 99
3 89 87 110
3 87 86 110
3 110 86 97
3 91 88 111
3 111 88 89
3 111 89 110
3 93 90 112
3 112 90 91
3 112 91 113
3 113 91 111
3 98 92 114
3 114 92 93
3 114 93 115
3 115 93 112
3 116 98 114
3 117 103 118
3 96 94 119
3 94 103 119
3 119 103 117
3 97 95 120
3 120 95 96
3 120 96 119
3 121 110 97
3 121 97 122
3 122 97 120
3 123 119 117
3 124 98 116
3 99 109 125
3 99 125 126
3 101 99 126
3 100 102 127
3 100 127 107
3 101 126 128
3 102 101 128
3 102 128 127
3 104 106 129
3 104 129 103
3 103 129 118
3 105 108 130
3 106 105 130
3 106 130 129
3 107 127 131
3 108 107 131
3 108 131 132
3 108 132 130
3 109 134 125
3 125 134 133
3 113 111 135
3 111 110 135
3 135 110 121
3 115 112 136
3 136 112 113
3 136 113 135
3 116 114 137
3 137 114 115
3 137 115 138
3 138 115 136
3 139 124 116
3 139 116 140
3 140 116 137
3 141 135 121
3 118 129 142
3 118 142 143
3 117 118 143
3 123 117 143
3 122 120 144
3 120 119 144
3 144 119 123
3 141 121 145
3 145 121 122
3 145 122 144
3 146 141 145
3 147 144 123
3 147 123 148
3 143 148 123
3 150 124 139
3 149 150 139
3 131 127 151
3 125 133 152
3 126 125 152
3 126 152 153
3 128 126 153
3 128 153 154
3 128 154 127
3 127 154 151
3 152 133 155
3 130 132 156
3 130 156 129
3 129 156 142
3 131 151 157
3 132 131 157
3 132 157 156
3 156 158 142
3 157 151 159
3 133 160 155
3 134 161 133
3 133 161 160
3 138 136 162
3 136 135 162
3 162 135 141
3 140 137 163
3 163 137 138
3 163 138 162
3 149 139 164
3 164 139 140
3 164 140 165
3 165 140 163
3 166 149 164
3 167 162 141
3 167 141 146
3 142 158 168
3 143 142 168
3 143 168 148
3 146 145 169
3 145 144 169
3 169 144 147
3 170 167 146
3 170 146 169
3 171 169 147
3 171 147 148
3 171 148 172
3 168 172 148
3 173 149 166
3 174 150 149
3 173 174 149
3 154 175 151
3 151 175 159
3 152 155 176
3 153 152 176
3 153 176 177
3 153 177 154
3 154 177 175
3 155 160 178
3 155 178 179
3 176 155 179
3 156 157 180
3 156 180 158
3 157 159 181
3 157 181 180
3 158 180 182
3 158 182 168
3 159 175 183
3 159 183 181
3 175 184 183
3 160 186 178
3 178 186 185
3 161 187 160
3 160 187 186
3 165 163 188
3 163 162 188
3 188 162 167
3 166 164 189
3 189 164 165
3 189 165 188
3 190 173 166
3 190 166 191
3 191 166 189
3 192 188 167
3 192 167 170
3 193 192 170
3 182 194 168
3 194 172 168
3 193 170 195
3 170 169 195
3 195 169 171
3 196 195 171
3 196 171 172
3 194 197 172
3 197 198 172
3 198 196 172
3 200 173 190
3 199 200 190
3 201 174 173
3 200 201 173
3 176 179 202
3 177 176 202
3 177 202 175
3 175 202 184
3 178 185 203
3 178 203 179
3 179 203 202
3 203 185 204
3 202 205 184
3 183 206 181
3 180 181 206
3 180 206 182
3 182 206 194
3 183 184 207
3 205 207 184
3 183 207 206
3 185 208 204
3 186 209 185
3 185 209 208
3 187 210 186
3 186 210 209
3 191 189 211
3 189 188 211
3 211 188 192
3 199 190 212
3 212 190 191
3 212 191 211
3 213 199 212
3 214 211 192
3 214 192 193
3 215 214 193
3 215 193 195
3 206 216 194
3 216 197 194
3 216 217 197
3 215 195 218
3 218 195 196
3 198 218 196
3 217 219 197
3 219 218 198
3 197 219 198
3 220 199 213
3 221 200 199
3 220 221 199
3 222 201 200
3 221 222 200
3 203 204 223
3 203 223 202
3 202 223 205
3 204 208 224
3 204 224 223
3 205 223 225
3 205 225 207
3 207 225 226
3 207 226 206
3 226 216 206
3 208 228 224
3 224 228 227
3 209 229 208
3 229 228 208
3 210 230 209
3 209 230 229
3 213 212 231
3 212 211 231
3 231 211 214
3 232 220 213
3 232 213 231
3 233 231 214
3 233 214 215
3 234 233 215
3 234 215 218
3 226 235 216
3 235 217 216
3 235 236 217
3 217 236 219
3 237 234 218
3 237 218 219
3 236 238 219
3 238 237 219
3 240 220 232
3 239 240 232
3 241 221 220
3 240 241 220
3 242 222 221
3 241 242 221
3 224 227 243
3 224 243 223
3 223 243 225
3 225 243 244
3 225 244 226
3 226 244 235
3 227 245 243
3 228 246 227
3 227 246 245
3 229 247 228
3 228 247 246
3 230 248 229
3 229 248 247
3 239 232 249
3 232 231 249
3 249 231 233
3 250 249 233
3 250 233 234
3 237 250 234
3 244 251 235
3 235 251 236
3 251 252 236
3 236 252 238
3 252 253 238
3 253 250 237
3 253 237 238
3 254 239 249
3 255 240 239
3 254 255 239
3 256 241 240
3 255 256 240
3 257 242 241
3 256 257 241
3 245 258 243
3 243 258 244
3 244 258 251
3 245 259 258
3 246 260 245
3 245 260 259
3 247 261 246
3 246 261 260
3 248 262 247
3 247 262 261
3 254 249 263
3 263 249 250
3 253 263 250
3 258 264 251
3 251 264 252
3 264 265 252
3 265 263 253
3 252 265 253
3 266 254 263
3 267 255 254
3 266 267 254
3 268 256 255
3 267 268 255
3 269 257 256
3 268 269 256
3 259 270 258
3 270 264 258
3 260 271 259
3 259 271 270
3 261 272 260
3 260 272 271
3 262 273 261
3 273 272 261
3 270 274 264
3 275 266 263
3 275 263 265
3 274 276 264
3 276 265 264
3 276 277 265
3 277 275 265
3 278 267 266
3 275 278 266
3 279 268 267
3 278 279 267
3 280 269 268
3 279 280 268
3 271 281 270
3 270 281 274
3 272 282 271
3 271 282 281
3 273 283 272
3 272 283 282
3 281 284 274
3 274 284 276
3 285 278 275
3 277 285 275
3 284 286 276
3 286 285 277
3 276 286 277
3 287 279 278
3 285 287 278
3 288 280 279
3 287 288 279
3 282 289 281
3 281 289 284
3 283 290 282
3 282 290 289
3 289 291 284
3 284 291 286
3 291 292 286
3 292 287 285
3 286 292 285
3 293 288 287
3 292 293 287
3 290 294 289
3 289 294 291
3 294 295 291
3 295 293 292
3 291 295 292
CELL_TYPES 542
5
5
5
5
5
5
5
5
5
5
5
5
5
5
5
5
5
5
5
5
5
5
5
5
5
5
5
5
5
5
5
5
5
5
5
5
5
5
5
5
5
5
5
5
5
5
5
5
5
5
5
5
5
5
5
5
5
5
5
5
5
5
5
5
5
5
5
5
5
5
5
5
5
5
5
5
5
5
5
5
5
5
5
5
5
5
5
5
5
5
5
5
5
5
5
5
5
5
5
5
5
5
5
5
5
5
5
5
5
5
5
5
5
5
5
5
5
5
5
5
5
5
5
5
5
5
5
5
5
5
5
5
5
5
5
5
5
5
5
5
5
5
5
5
5
5
5
5
5
5
5
5
5
5
5
5
5
5
5
5
5
5
5
5
5
5
5
5
5
5
5
5
5
5
5
5
5
5
5
5
5
5
5
5
5
5
5
5
5
5
5
5
5
5
5
5
5
5
5
5
5
5
5
5
5
5
5
5
5
5
5
5
5
5
5
5
5
5
5
5
5
5
5
5
5
5
5
5
5
5
5
5
5
5
5
5
5
5
5
5
5
5
5
5
5
5
5
5
5
5
5
5
5
5
5
5
5
5
5
5
5
5
5
5
5
5
5
5
5
5
5
5
5
5
5
5
5
5
5
5
5
5
5
5
5
5
5
5
5
5
5
5
5
5
5
5
5
5
5
5
5
5
5
5
5
5
5
5
5
5
5
5
5
5
5
5
5
5
5
5
5
5
5
5
5
5
5
5
5
5
5
5
5
5
5
5
5
5
5
5
5
5
5
5
5
5
5
5
5
5
5
5
5
5
5
5
5
5
5
5
5
5
5
5
5
5
5
5
5
5
5
5
5
5
5
5
5
5
5
5
5
5
5
5
5
5
5
5
5
5
5
5
5
5
5
5
5
5
5
5
5
5
5
5
5
5
5
5
5
5
5
5
5
5
5
5
5
5
5
5
5
5
5
5
5
5
5
5
5
5
5
5
5
5
5
5
5
5
5
5
5
5
5
5
5
5
5
5
5
5
5
5
5
5
5
5
5
5
5
5
5
5
5
5
5
5
5
5
5
5
5
5
5
5
5
5
5
5
5
5
5
5
5
5
5
5
5
5
5
5
5
5
5
5
5
5
5
5
5
5
5
5
5
5
5
5
5
5
5
5
5
5
5
5
5
5
5
5
5
5
5
5
5
5
5
5
5
5
5
5
5
5
5
5
5
5
5
5
5
5
5
5
POINT_DATA 296
SCALARS concentrations float 4
LOOKUP_TABLE default
0 0.990085 0.142504 279.125
0 0.990194 0.140771 275.488
0 0.990025 0.140168 227.928
0 0.990087 0.138044 129.336
0 0.990109 0.0914898 0.711615
0 0.990446 0.140406 157.244
0 0.990306 0.138816 436.209
0 0.990157 0.0912683 0.765142
0 0.990303 0.091654 5.3669
0 0.989993 0.136265 50.969
0 0.989768 0.140206 226.155
0 0.990127 0.13894 228.05
0 0.989846 0.136036 277.821
0 0.990098 0.0917612 1.27271
0 0.990162 0.0918137 3.95581
0 0.990192 0.0913392 1.05391
0 0.990195 0.0911795 0.490659
0 0.990352 0.0918084 9.08976
0 0.990128 0.0924121 9.77975
0 0.990224 0.0911785 1.82424
0 0.990239 0.0913899 3.84538
0 0.989641 0.141111 396.57
0 0.989713 0.142034 275.531
0 0.989901 0.0921159 1.78566
0 0.989741 0.0918737 0.575284
0 0.990044 0.0914352 2.80754
0 0.989914 0.137812 199.691
0 0.989909 0.091535 1.33771
0 0.990271 0.140818 352.409
0 0.990194 0.0913847 1.82982
0 0.990162 0.0913446 2.27152
0 0.990216 0.0912153 1.47086
0 0.989843 0.140193 312.016
0 0.990211 0.091129 1.02967
0 0.990205 0.0910945 0.65691
0 0.990177 0.0915791 4.91295
0 0.990034 0.0914949 3.46391
0 0.990193 0.0911531 1.2179
0 0.990168 0.0912949 2.50113
0 0.989702 0.0920056 4.92451
0 0.989787 0.09199 8.36755
0 0.989905 0.091327 1.47801
0 0.989817 0.0913145 2.43215
0 0.989854 0.139318 173.515
0 0.990096 0.0912145 1.82163
0 0.990102 0.0918454 4.04656
0 0.990092 0.0912479 2.0614
0 0.990239 0.141195 151.938
0 0.990266 0.0919006 4.23132
0 0.989699 0.135634 338.493
0 0.990209 0.0912052 1.63239
0 0.99018 0.0911995 1.5953
0 0.990221 0.0910986 1.09451
0 0.989844 0.0914444 6.50073
0 0.989816 0.0915631 2.22351
0 0.990201 0.0910807 0.882142
0 0.990107 0.0912536 2.01341
0 0.99002 0.0911983 1.63627
0 0.990157 0.091102 0.576693
0 0.989804 0.091399 3.76508
0 0.989833 0.0913036 3.83838
0 0.989972 0.0911104 1.31977
0 0.989907 0.0911833 1.99245
0 0.989731 0.139722 274.612
0 0.990169 0.0911513 1.3065
0 0.990154 0.0913099 2.96578
0 0.990161 0.0911834 1.931
0 0.990002 0.091834 3.66926
0 0.990119 0.09139 3.45923
0 0.989491 0.137719 255.617
0 0.989678 0.0915609 3.98645
0 0.989557 0.140584 275.415
0 0.990229 0.0910617 0.882206
0 0.990218 0.0910848 0.933973
0 0.990244 0.0910671 0.894141
0 0.989846 0.0912043 2.22756
0 0.989707 0.0914319 1.27786
0 0.989839 0.0912382 0.642556
0 0.990203 0.0910602 0.765661
0 0.990251 0.0910662 0.930107
0 0.990089 0.0910897 0.867037
0 0.990165 0.0910678 0.678053
0 0.989923 0.0911439 1.52645
0 0.989908 0.0911342 1.30914
0 0.990033 0.0910721 0.901191
0 0.989641 0.138086 317.532
0 0.99021 0.0911184 1.40386
0 0.990169 0.0912272 2.70109
0 0.989994 0.091293 3.71818
0 0.990133 0.0912682 3.45708
0 0.989655 0.091593 4.77888
0 0.989916 0.0912288 3.31558
0 0.989645 0.139691 261.768
0 0.989731 0.0919549 6.61723
0 0.990276 0.0910697 1.10148
0 0.990249 0.0910928 1.42621
0 0.990282 0.0910869 1.37557
0 0.990253 0.091115 1.86788
0 0.989698 0.139012 232.979
0 0.989902 0.0915969 5.1661
0 0.989937 0.0911326 0.291904
0 0.989898 0.0912488 1.66841
0 0.989947 0.0911718 0.620998
0 0.990293 0.091063 1.10039
0 0.99024 0.0910588 0.729663
0 0.99013 0.0910675 0.614857
0 0.990209 0.0910645 0.516459
0 0.990022 0.0910605 0.413133
0 0.990109 0.0910603 0.29797
0 0.990186 0.140449 305.675
0 0.990209 0.0911618 2.51411
0 0.990123 0.0912038 3.39026
0 0.989936 0.0912348 1.8925
0 0.9901 0.0911649 3.03523
0 0.989803 0.0918295 5.3562
0 0.990001 0.0912072 1.3458
0 0.989862 0.0915309 3.06097
0 0.990336 0.091083 1.50659
0 0.990323 0.0910673 1.07377
0 0.990317 0.0910835 1.67741
0 0.990298 0.0911026 1.84478
0 0.990267 0.0911567 2.77375
0 0.990302 0.0911248 2.30274
0 0.990359 0.0910896 1.86475
0 0.989771 0.138181 172.903
0 0.990313 0.0917082 6.14128
0 0.990064 0.0912369 2.44239
0 0.990046 0.0910804 0.584048
0 0.990023 0.0911427 0.989876
0 0.990274 0.0910513 0.627498
0 0.990207 0.0910557 0.290688
0 0.990119 0.0910502 0.321991
0 0.990191 0.0910519 0.152075
0 0.990288 0.0917052 6.94809
0 0.990493 0.140126 192.147
0 0.990228 0.0911758 3.20722
0 0.990162 0.0911601 2.98232
0 0.990068 0.0911963 0.92812
0 0.990188 0.0911625 2.78643
0 0.989982 0.0916968 4.4982
0 0.990142 0.0912555 0.894048
0 0.990298 0.0912236 3.58848
0 0.990327 0.0910537 0.849705
0 0.990361 0.0910706 1.39685
0 0.990341 0.0911051 2.21661
0 0.990327 0.0911565 2.93765
0 0.990342 0.0911428 3.10566
0 0.990374 0.0910985 2.13888
0 0.99038 0.0910723 1.70712
0 0.990267 0.0919854 6.91355
0 0.990017 0.138217 214.68
0 0.990137 0.091051 0.678216
0 0.990167 0.0911555 1.71113
0 0.990095 0.0911181 0.774416
0 0.990098 0.091071 0.645687
0 0.990081 0.0912684 2.73557
0 0.990266 0.0910435 0.461493
0 0.990213 0.0910493 0.404748
0 0.990325 0.0910464 0.732004
0 0.990198 0.09106 0.737312
0 0.989916 0.0915097 3.24857
0 0.990148 0.139439 230.501
0 0.99028 0.0912195 3.7203
0 0.990254 0.0911431 2.75019
0 0.990251 0.0914106 2.39848
0 0.99029 0.0912097 2.54935
0 0.990358 0.0914722 3.5999
0 0.990329 0.0911188 2.922
0 0.990364 0.0910509 1.20006
0 0.990364 0.0910917 2.36693
0 0.990359 0.0910815 2.29176
0 0.990384 0.0910695 1.81092
0 0.990378 0.0910396 1.26645
0 0.99046 0.0918182 5.24799
0 0.990432 0.138681 252.267
0 0.990153 0.0910614 1.06337
0 0.990107 0.0911053 0.708219
0 0.990118 0.0910597 0.445887
0 0.989885 0.0913347 3.0822
0 0.990045 0.0911583 1.51905
0 0.990286 0.09104 0.481975
0 0.990257 0.0910449 0.694018
0 0.990333 0.0910339 0.758197
0 0.990229 0.0910531 0.765421
0 0.990175 0.0910666 0.761938
0 0.98975 0.0913311 2.50952
0 0.989546 0.0917448 5.96788
0 0.98963 0.13942 195.515
0 0.990324 0.0911105 2.98301
0 0.990335 0.0912164 2.95353
0 0.990349 0.0914149 4.06313
0 0.990345 0.0912543 3.21149
0 0.990343 0.0910721 2.16327
0 0.990358 0.0910861 1.80079
0 0.990349 0.0910203 0.719604
0 0.990372 0.0910596 1.73497
0 0.99038 0.0910613 1.49724
0 0.990352 0.0910376 0.762259
0 0.990367 0.0910534 1.10827
0 0.990223 0.091332 3.84239
0 0.990304 0.0916537 5.23954
0 0.990459 0.139979 162.525
0 0.990106 0.0910746 0.902664
0 0.989989 0.0911798 1.66205
0 0.989933 0.0912172 1.96829
0 0.990151 0.0910651 0.701365
0 0.990289 0.0910233 0.450235
0 0.990228 0.0910509 0.557731
0 0.989791 0.0913732 4.43002
0 0.989454 0.0918748 7.22363
0 0.989286 0.135489 336.725
0 0.990329 0.0910708 2.27599
0 0.990302 0.0911431 2.66811
0 0.990229 0.0911747 2.25582
0 0.990328 0.0911002 1.44937
0 0.990347 0.0910866 1.29472
0 0.99031 0.0910275 0.488561
0 0.990314 0.0910513 0.589392
0 0.990354 0.091063 1.1505
0 0.99033 0.0910704 0.746963
0 0.990087 0.0912696 2.72441
0 0.989996 0.0916908 5.78999
0 0.990102 0.139796 313.611
0 0.99008 0.0911027 1.09529
0 0.990005 0.0911823 2.32366
0 0.990171 0.0910618 0.649542
0 0.990252 0.0910354 0.470206
0 0.990053 0.0912193 3.67785
0 0.989961 0.0914467 6.3385
0 0.989768 0.0920681 11.8087
0 0.98945 0.13879 177.125
0 0.990281 0.0911346 1.19173
0 0.990182 0.0911768 1.15996
0 0.990296 0.0911329 0.885334
0 0.990321 0.0911069 0.856324
0 0.990259 0.0910399 0.57896
0 0.990272 0.0910587 0.657425
0 0.990306 0.0910923 0.692481
0 0.99028 0.0910885 0.616482
0 0.990132 0.0912627 1.17275
0 0.990023 0.0913128 1.68713
0 0.989897 0.0915372 2.98531
0 0.989809 0.13706 238.433
0 0.990114 0.0910836 1.23915
0 0.990193 0.0910467 0.693782
0 0.990099 0.0911546 2.50996
0 0.990078 0.0914495 6.3154
0 0.990142 0.092031 12.7317
0 0.990014 0.1395 349.463
0 0.99023 0.091146 0.792324
0 0.990266 0.0910965 0.64252
0 0.990211 0.091043 0.70278
0 0.990227 0.0910688 0.657722
0 0.990246 0.0911152 0.926133
0 0.99014 0.0912891 1.2879
0 0.989986 0.0914473 1.73716
0 0.989836 0.0918494 4.06665
0 0.989818 0.140173 313.317
0 0.990151 0.0910733 0.515039
0 0.990108 0.0911522 1.19439
0 0.990096 0.0913039 3.33236
0 0.990145 0.0918909 9.64822
0 0.990269 0.140529 323.076
0 0.990212 0.0911135 0.766399
0 0.990177 0.0911162 0.801723
0 0.990202 0.0911078 0.698056
0 0.990134 0.0912797 1.1249
0 0.99 0.0914737 1.86558
0 0.989788 0.0916625 3.98819
0 0.98967 0.13544 194.615
0 0.990124 0.0912115 1.18252
0 0.990089 0.0912028 1.07156
0 0.990095 0.0914288 0.733486
0 0.990096 0.137383 137.852
0 0.99013 0.0912744 2.30846
0 0.990165 0.0911429 0.453091
0 0.990157 0.0911872 1.85467
0 0.990163 0.0911153 1.43054
0 0.990048 0.0913947 1.87943
0 0.989846 0.0918862 2.45763
0 0.989725 0.137615 302.593
0 0.990078 0.0914058 3.38578
0 0.990064 0.0915917 1.91325
0 0.990122 0.141431 283.24
0 0.990091 0.0914145 4.11745
0 0.990105 0.0912448 1.62884
0 0.990111 0.0913078 3.30057
0 0.989961 0.0917626 5.14143
0 0.989798 0.137578 220.485
0 0.990006 0.092041 9.17723
0 0.989974 0.139047 201.36
0 0.990036 0.0919822 6.64148
0 0.990049 0.0914937 2.48749
0 0.989995 0.137805 171.776
0 0.989996 0.138964 379.465
0 0.989996 0.135947 170.005
VECTORS fa_u float
0.00661504 0.00276356 -0
0.00455101 0.00262237 -0
0.00616341 0.00165784 -0
0.00706167 0.00092316 -0
1e-08 0 0
0.00650188 0.004989 -0
0.00358312 0.00358148 -0
1e-08 0 0
1e-08 0 0
0.00477559 0.00619614 -0
0.00315625 0.00550248 -0
0.00590441 -1.85259e-06 -0
0.00651042 -0.000837114 0
1e-08 0 0
1e-08 0 0
1e-08 0 0
1e-08 0 0
1e-08 0 0
1e-08 0 0
1e-08 0 0
1e-08 0 0
0.00226469 0.00544116 -0
0.00195374 0.00728035 -0
1e-08 0 0
1e-08 0 0
1e-08 0 0
0.00746331 -0.00202082 0
1e-08 0 0
0.004791 -0.0019903 0
1e-08 0 0
1e-08 0 0
1e-08 0 0
0.000735838 0.00556461 -0
1e-08 0 0
1e-08 0 0
1e-08 0 0
1e-08 0 0
1e-08 0 0
1e-08 0 0
1e-08 0 0
1e-08 0 0
1e-08 0 0
1e-08 0 0
1.19111e-05 0.00735152 -0
1e-08 0 0
1e-08 0 0
1e-08 0 0
0.00644938 -0.00370693 0
1e-08 0 0
0.00506671 -0.00389967 0
1e-08 0 0
1e-08 0 0
1e-08 0 0
1e-08 0 0
1e-08 0 0
1e-08 0 0
1e-08 0 0
1e-08 0 0
1e-08 0 0
1e-08 0 0
1e-08 0 0
1e-08 0 0
1e-08 0 0
-0.00092311 0.00681204 0
1e-08 0 0
1e-08 0 0
1e-08 0 0
1e-08 0 0
1e-08 0 0
0.00494707 -0.00497603 0
1e-08 0 0
0.00341679 -0.00445497 0
1e-08 0 0
1e-08 0 0
1e-08 0 0
1e-08 0 0
1e-08 0 0
1e-08 0 0
1e-08 0 0
1e-08 0 0
1e-08 0 0
1e-08 0 0
1e-08 0 0
1e-08 0 0
1e-08 0 0
-0.00151618 0.00562367 0
1e-08 0 0
1e-08 0 0
1e-08 0 0
1e-08 0 0
1e-08 0 0
1e-08 0 0
0.00333501 -0.00571841 0
1e-08 0 0
1e-08 0 0
1e-08 0 0
1e-08 0 0
1e-08 0 0
0.00274934 -0.00661694 0
1e-08 0 0
1e-08 0 0
1e-08 0 0
1e-08 0 0
1e-08 0 0
1e-08 0 0
1e-08 0 0
1e-08 0 0
1e-08 0 0
1e-08 0 0
-0.00232309 0.00567887 0
1e-08 0 0
1e-08 0 0
1e-08 0 0
1e-08 0 0
1e-08 0 0
1e-08 0 0
1e-08 0 0
1e-08 0 0
1e-08 0 0
1e-08 0 0
1e-08 0 0
1e-08 0 0
1e-08 0 0
1e-08 0 0
0.00171743 -0.00647597 0
1e-08 0 0
1e-08 0 0
1e-08 0 0
1e-08 0 0
1e-08 0 0
1e-08 0 0
1e-08 0 0
1e-08 0 0
1e-08 0 0
-0.00403515 0.00697951 0
1e-08 0 0
1e-08 0 0
1e-08 0 0
1e-08 0 0
1e-08 0 0
1e-08 0 0
1e-08 0 0
1e-08 0 0
1e-08 0 0
1e-08 0 0
1e-08 0 0
1e-08 0 0
1e-08 0 0
1e-08 0 0
1e-08 0 0
0.000762384 -0.00576568 0
1e-08 0 0
1e-08 0 0
1e-08 0 0
1e-08 0 0
1e-08 0 0
1e-08 0 0
1e-08 0 0
1e-08 0 0
1e-08 0 0
1e-08 0 0
-0.00342664 0.0044399 0
1e-08 0 0
1e-08 0 0
1e-08 0 0
1e-08 0 0
1e-08 0 0
1e-08 0 0
1e-08 0 0
1e-08 0 0
1e-08 0 0
1e-08 0 0
1e-08 0 0
1e-08 0 0
1.22266e-05 -0.00709607 0
1e-08 0 0
1e-08 0 0
1e-08 0 0
1e-08 0 0
1e-08 0 0
1e-08 0 0
1e-08 0 0
1e-08 0 0
1e-08 0 0
1e-08 0 0
1e-08 0 0
1e-08 0 0
-0.00502933 0.00502394 0
1e-08 0 0
1e-08 0 0
1e-08 0 0
1e-08 0 0
1e-08 0 0
1e-08 0 0
1e-08 0 0
1e-08 0 0
1e-08 0 0
1e-08 0 0
1e-08 0 0
1e-08 0 0
1e-08 0 0
-0.000840906 -0.0063739 0
1e-08 0 0
1e-08 0 0
1e-08 0 0
1e-08 0 0
1e-08 0 0
1e-08 0 0
1e-08 0 0
1e-08 0 0
-0.00431866 0.00333134 0
1e-08 0 0
1e-08 0 0
1e-08 0 0
1e-08 0 0
1e-08 0 0
1e-08 0 0
1e-08 0 0
1e-08 0 0
1e-08 0 0
1e-08 0 0
1e-08 0 0
-0.001715 -0.00640116 0
1e-08 0 0
1e-08 0 0
1e-08 0 0
1e-08 0 0
1e-08 0 0
1e-08 0 0
1e-08 0 0
-0.00647299 0.00377016 0
1e-08 0 0
1e-08 0 0
1e-08 0 0
1e-08 0 0
1e-08 0 0
1e-08 0 0
1e-08 0 0
1e-08 0 0
1e-08 0 0
1e-08 0 0
1e-08 0 0
-0.00257218 -0.0061911 0
1e-08 0 0
1e-08 0 0
1e-08 0 0
1e-08 0 0
1e-08 0 0
-0.00673325 0.00275601 0
1e-08 0 0
1e-08 0 0
1e-08 0 0
1e-08 0 0
1e-08 0 0
1e-08 0 0
1e-08 0 0
1e-08 0 0
-0.00291316 -0.00506779 0
1e-08 0 0
1e-08 0 0
1e-08 0 0
1e-08 0 0
-0.00488142 0.00130964 0
1e-08 0 0
1e-08 0 0
1e-08 0 0
1e-08 0 0
1e-08 0 0
1e-08 0 0
-0.00484234 -0.00629672 0
1e-08 0 0
1e-08 0 0
1e-08 0 0
-0.00780602 0.00104382 0
1e-08 0 0
1e-08 0 0
1e-08 0 0
1e-08 0 0
1e-08 0 0
1e-08 0 0
-0.00372619 -0.00371994 0
1e-08 0 0
1e-08 0 0
-0.00582974 -3.0041e-06 0
1e-08 0 0
1e-08 0 0
1e-08 0 0
1e-08 0 0
-0.00601121 -0.00462249 0
1e-08 0 0
-0.00753046 -0.00100511 0
1e-08 0 0
1e-08 0 0
-0.00515996 -0.00297345 0
-0.00517408 -0.00138893 0
-0.00683657 -0.00281741 0
