# vtk DataFile Version 2.0
CellBP Time: 7.6
ASCII
DATASET UNSTRUCTURED_GRID
POINTS 296 double
-8.92612 -3.66201 0
-8.36321 -4.80476 0
-9.32925 -2.45334 0
-9.59048 -1.21473 0
-8.2591 -2.77477 0
-7.65711 -5.86704 0
-6.80937 -6.8179 0
-7.81912 -3.82 0
-7.24957 -4.80745 0
-5.8651 -7.66409 0
-4.82074 -8.37928 0
-9.67232 0.046683 0
-9.60237 1.31618 0
-8.56659 -1.65823 0
-8.7023 -0.521375 0
-7.4942 -1.96934 0
-7.12782 -2.8585 0
-6.56214 -5.71912 0
-5.76446 -6.53848 0
-6.69641 -3.831 0
-6.13918 -4.61717 0
-3.67924 -8.94201 0
-2.47179 -9.35839 0
-4.86674 -7.25211 0
-3.89116 -7.83143 0
-8.7158 0.634115 0
-9.36582 2.57272 0
-8.55383 1.75345 0
-8.95532 3.77865 0
-7.65548 -0.910789 0
-7.71176 0.0833121 0
-6.86729 -1.29198 0
-1.21513 -9.59319 0
-6.36363 -2.12044 0
-6.24028 -3.01143 0
-5.47131 -5.41684 0
-4.74593 -6.05898 0
-5.5889 -3.70886 0
-5.2019 -4.5069 0
-2.84854 -8.30408 0
-1.764 -8.57462 0
-3.89484 -6.66861 0
-3.03833 -7.09924 0
0.0523356 -9.6748 0
-7.62873 1.13107 0
-8.27952 2.89392 0
-7.4807 2.08675 0
-8.37317 4.90971 0
-7.81122 3.94137 0
-7.65668 5.96312 0
-6.70113 -0.387049 0
-6.87918 0.549973 0
-5.71303 -0.991059 0
-0.584637 -8.73553 0
0.555928 -8.68695 0
-5.24849 -2.44987 0
-4.43673 -5.04056 0
-3.86031 -5.72052 0
-4.39326 -3.76511 0
-2.04691 -7.50307 0
-1.12693 -7.7201 0
-2.9668 -6.04888 0
-2.29302 -6.56675 0
1.31408 -9.58305 0
-6.62157 1.40554 0
-7.10001 3.08398 0
-6.59263 2.34689 0
-7.2223 4.93837 0
-6.64985 3.95859 0
-6.81491 6.9115 0
-6.50655 5.83166 0
-5.86323 7.7553 0
-4.42221 -1.17408 0
-5.76179 0.504884 0
-4.62468 -0.017069 0
0.00177457 -7.77185 0
1.71165 -8.54988 0
0.928865 -7.67906 0
-4.01005 -2.38594 0
-3.47439 -1.38695 0
-3.26548 -4.76251 0
-3.24741 -3.24296 0
-1.37191 -6.61549 0
-0.512383 -6.95602 0
-1.96193 -5.49346 0
2.55771 -9.3219 0
-5.45719 2.01898 0
-6.0332 3.03752 0
-6.04205 4.81419 0
-5.70148 3.9433 0
-5.70186 6.64335 0
-5.39464 5.55387 0
-4.81724 8.47884 0
-4.78719 7.32072 0
-3.48655 -0.423215 0
-4.41581 1.2395 0
-3.68999 0.588756 0
-4.02976 2.30904 0
-3.68268 9.04895 0
2.819 -8.2296 0
0.402228 -6.71888 0
1.98601 -7.43274 0
1.27694 -6.82075 0
-2.43881 -0.869211 0
-2.8291 -2.12063 0
-2.28273 -4.06786 0
-2.31604 -2.9555 0
-0.445866 -5.80452 0
-1.21308 -4.46782 0
3.76722 -8.92807 0
-4.74445 3.35916 0
-5.03459 4.53971 0
-4.59635 6.20594 0
-4.49019 5.29555 0
-3.80877 7.91487 0
-3.7827 6.76101 0
-2.75378 8.33482 0
-1.64653 -0.133695 0
-1.44688 -0.886597 0
-2.48393 0.511047 0
-3.23495 1.44066 0
-3.21411 3.29373 0
-2.89334 2.36642 0
-1.35483 0.631198 0
-2.4711 9.44218 0
3.87909 -7.78858 0
2.91393 -7.0574 0
0.93346 -5.75602 0
2.03641 -6.33108 0
-1.67698 -1.98548 0
-1.42661 -3.25849 0
0.0863413 -4.70593 0
-0.559825 -3.67276 0
4.87048 -7.22528 0
4.90637 -8.36675 0
-3.74105 4.5053 0
-3.69538 5.68594 0
-2.85339 7.20475 0
-2.97718 6.28141 0
-1.64451 8.65084 0
-1.91616 7.53938 0
-2.32284 4.02157 0
-0.728474 -1.3238 0
-0.836349 -0.253972 0
-1.93387 1.68389 0
-2.11676 2.86642 0
-1.30365 3.52828 0
-0.871886 1.35467 0
-0.284646 0.459244 0
-0.527783 8.79611 0
-1.22043 9.6938 0
1.09712 -4.52922 0
3.84831 -6.61514 0
2.94047 -6.00939 0
2.085 -5.35756 0
4.72228 -6.1164 0
-0.554898 -2.46764 0
0.493337 -3.44215 0
0.0542568 -1.60759 0
1.46659 -3.64952 0
5.80273 -6.53192 0
5.96011 -7.65241 0
-2.45321 5.296 0
-2.10497 6.46354 0
-0.891328 7.72983 0
-1.25333 6.85989 0
0.0885609 7.81347 0
-1.13823 4.46319 0
0.148865 -0.614762 0
-0.801707 2.48908 0
-0.337243 3.58825 0
0.0582113 1.51455 0
0.736722 0.474471 0
0.640673 8.80693 0
0.0469835 9.77838 0
2.35142 -4.23608 0
3.80588 -5.55924 0
2.95922 -5.14327 0
5.51373 -5.42058 0
4.63273 -5.20552 0
0.630159 -2.28865 0
1.24775 -2.93304 0
0.755883 -1.38923 0
2.14529 -3.10963 0
2.96452 -3.44053 0
6.09752 -4.73581 0
6.59387 -5.70608 0
6.91838 -6.81063 0
-1.00783 5.76725 0
-0.362724 6.81809 0
1.11469 7.71057 0
0.557751 7.01994 0
-0.00365244 4.69551 0
0.598971 3.81008 0
1.33472 -0.641403 0
0.531895 2.64516 0
0.958989 1.5748 0
1.90322 0.212616 0
1.60701 1.06384 0
2.11635 7.52893 0
1.7872 8.65006 0
1.31845 9.69763 0
3.77953 -4.29556 0
5.06103 -4.38657 0
5.79167 -3.88704 0
3.7496 -3.16729 0
1.80478 -1.87919 0
2.99644 -2.55526 0
6.72875 -3.9096 0
7.32289 -4.8525 0
7.7623 -5.8623 0
0.482011 5.83503 0
1.42001 6.68988 0
2.36005 6.62058 0
1.20029 4.52933 0
1.47855 3.381 0
2.4247 -0.690433 0
2.81478 0.142677 0
1.77933 2.15723 0
2.60173 1.14683 0
3.05374 7.11875 0
2.88851 8.31868 0
2.57313 9.4562 0
4.8658 -3.28729 0
6.06981 -3.07439 0
4.14192 -2.2579 0
3.22502 -1.49668 0
6.68318 -2.29564 0
7.18079 -3.02095 0
7.91028 -3.88713 0
8.47795 -4.81794 0
2.01177 5.56013 0
3.05787 6.104 0
2.35217 4.10017 0
2.40872 3.04421 0
3.50545 -0.457002 0
3.5964 0.614131 0
2.94635 2.27632 0
3.52316 1.51799 0
3.96903 5.8463 0
3.95085 6.74006 0
3.95138 7.88395 0
3.78192 9.04509 0
5.52816 -1.90028 0
4.47957 -1.12101 0
6.66238 -1.32467 0
7.53829 -2.02027 0
8.33948 -2.84329 0
9.04986 -3.68336 0
3.38376 4.83511 0
3.31151 3.35948 0
4.65917 0.132482 0
4.48112 1.29915 0
4.02748 2.4225 0
4.51294 5.10045 0
4.7931 6.13641 0
4.94034 7.32393 0
4.92177 8.47964 0
5.83454 -0.433335 0
6.95014 -0.487175 0
7.70126 -1.07316 0
8.62269 -1.73023 0
9.44545 -2.46908 0
4.49934 3.78852 0
5.75843 1.08207 0
5.30895 2.50401 0
5.30754 4.56749 0
5.54525 5.4681 0
5.83809 6.6141 0
5.97194 7.77313 0
6.77732 0.451059 0
7.78492 -0.0274676 0
8.79284 -0.574591 0
9.7015 -1.2161 0
6.88287 1.32546 0
5.64558 3.73167 0
6.46126 2.16326 0
6.29613 3.04417 0
6.20873 4.63086 0
6.61577 5.77872 0
6.9158 6.92253 0
7.707 0.952116 0
8.78128 0.567018 0
9.77386 0.0539612 0
7.52974 1.97411 0
6.7317 3.84825 0
7.17557 2.90267 0
7.29212 4.8311 0
7.76337 5.96971 0
8.63458 1.70484 0
9.67997 1.31603 0
8.32297 2.79948 0
7.89104 3.86997 0
8.47066 4.91104 0
9.43158 2.56295 0
9.03057 3.76963 0
CELLS 542 2168
3 2 0 4
3 0 1 7
3 4 0 7
3 1 5 8
3 7 1 8
3 3 2 13
3 13 2 4
3 11 3 14
3 14 3 13
3 13 4 15
3 4 7 16
3 15 4 16
3 5 6 17
3 8 5 17
3 6 9 18
3 17 6 18
3 7 8 19
3 16 7 19
3 8 17 20
3 19 8 20
3 9 10 23
3 18 9 23
3 10 21 24
3 23 10 24
3 12 11 25
3 25 11 14
3 26 12 27
3 27 12 25
3 14 13 29
3 29 13 15
3 25 14 30
3 30 14 29
3 29 15 31
3 15 16 33
3 31 15 33
3 16 19 34
3 33 16 34
3 17 18 35
3 20 17 35
3 18 23 36
3 35 18 36
3 19 20 37
3 34 19 37
3 20 35 38
3 37 20 38
3 21 22 39
3 24 21 39
3 22 32 40
3 39 22 40
3 23 24 41
3 36 23 41
3 24 39 42
3 41 24 42
3 27 25 44
3 44 25 30
3 28 26 45
3 45 26 27
3 45 27 46
3 46 27 44
3 47 28 48
3 48 28 45
3 30 29 50
3 50 29 31
3 44 30 51
3 51 30 50
3 50 31 52
3 31 33 52
3 32 43 53
3 40 32 53
3 53 43 54
3 33 34 55
3 34 37 55
3 33 55 52
3 35 36 56
3 38 35 56
3 36 41 57
3 56 36 57
3 37 38 58
3 38 56 58
3 37 58 55
3 39 40 59
3 42 39 59
3 40 53 60
3 59 40 60
3 41 42 61
3 57 41 61
3 42 59 62
3 61 42 62
3 43 63 54
3 46 44 64
3 64 44 51
3 48 45 65
3 65 45 46
3 65 46 66
3 66 46 64
3 49 47 67
3 67 47 48
3 67 48 68
3 68 48 65
3 69 49 70
3 70 49 67
3 52 55 72
3 64 51 73
3 51 50 73
3 50 52 73
3 73 52 74
3 74 52 72
3 53 54 75
3 60 53 75
3 54 63 76
3 54 76 77
3 75 54 77
3 55 58 78
3 72 55 78
3 72 78 79
3 56 57 80
3 57 61 80
3 56 80 58
3 58 80 81
3 78 58 81
3 59 60 82
3 62 59 82
3 60 75 83
3 82 60 83
3 61 62 84
3 62 82 84
3 61 84 80
3 63 85 76
3 66 64 86
3 64 73 86
3 68 65 87
3 87 65 66
3 87 66 86
3 70 67 88
3 88 67 68
3 88 68 89
3 89 68 87
3 71 69 90
3 90 69 70
3 90 70 91
3 91 70 88
3 92 71 93
3 93 71 90
3 74 72 94
3 94 72 79
3 86 73 95
3 95 73 74
3 95 74 96
3 96 74 94
3 97 86 95
3 76 85 99
3 75 77 100
3 83 75 100
3 76 99 101
3 77 76 101
3 77 101 102
3 100 77 102
3 94 79 103
3 78 81 104
3 79 78 104
3 79 104 103
3 80 84 105
3 81 80 105
3 81 105 106
3 104 81 106
3 82 83 107
3 83 100 107
3 82 107 84
3 84 107 108
3 105 84 108
3 85 109 99
3 89 87 110
3 87 86 110
3 110 86 97
3 91 88 111
3 111 88 89
3 111 89 110
3 93 90 112
3 112 90 91
3 112 91 113
3 113 91 111
3 98 92 114
3 114 92 93
3 114 93 115
3 115 93 112
3 116 98 114
3 117 103 118
3 96 94 119
3 94 103 119
3 119 103 117
3 97 95 120
3 120 95 96
3 120 96 119
3 121 110 97
3 121 97 122
3 122 97 120
3 123 119 117
3 124 98 116
3 99 109 125
3 99 125 126
3 101 99 126
3 100 102 127
3 100 127 107
3 101 126 128
3 102 101 128
3 102 128 127
3 104 106 129
3 104 129 103
3 103 129 118
3 105 108 130
3 106 105 130
3 106 130 129
3 107 127 131
3 108 107 131
3 108 131 132
3 108 132 130
3 109 134 125
3 125 134 133
3 113 111 135
3 111 110 135
3 135 110 121
3 115 112 136
3 136 112 113
3 136 113 135
3 116 114 137
3 137 114 115
3 137 115 138
3 138 115 136
3 139 124 116
3 139 116 140
3 140 116 137
3 141 135 121
3 118 129 142
3 118 142 143
3 117 118 143
3 123 117 143
3 122 120 144
3 120 119 144
3 144 119 123
3 141 121 145
3 145 121 122
3 145 122 144
3 146 141 145
3 147 144 123
3 147 123 148
3 143 148 123
3 150 124 139
3 149 150 139
3 131 127 151
3 125 133 152
3 126 125 152
3 126 152 153
3 128 126 153
3 128 153 154
3 128 154 127
3 127 154 151
3 152 133 155
3 130 132 156
3 130 156 129
3 129 156 142
3 131 151 157
3 132 131 157
3 132 157 156
3 156 158 142
3 157 151 159
3 133 160 155
3 134 161 133
3 133 161 160
3 138 136 162
3 136 135 162
3 162 135 141
3 140 137 163
3 163 137 138
3 163 138 162
3 149 139 164
3 164 139 140
3 164 140 165
3 165 140 163
3 166 149 164
3 167 162 141
3 167 141 146
3 142 158 168
3 143 142 168
3 143 168 148
3 146 145 169
3 145 144 169
3 169 144 147
3 170 167 146
3 170 146 169
3 171 169 147
3 171 147 148
3 171 148 172
3 168 172 148
3 173 149 166
3 174 150 149
3 173 174 149
3 154 175 151
3 151 175 159
3 152 155 176
3 153 152 176
3 153 176 177
3 153 177 154
3 154 177 175
3 155 160 178
3 155 178 179
3 176 155 179
3 156 157 180
3 156 180 158
3 157 159 181
3 157 181 180
3 158 180 182
3 158 182 168
3 159 175 183
3 159 183 181
3 175 184 183
3 160 186 178
3 178 186 185
3 161 187 160
3 160 187 186
3 165 163 188
3 163 162 188
3 188 162 167
3 166 164 189
3 189 164 165
3 189 165 188
3 190 173 166
3 190 166 191
3 191 166 189
3 192 188 167
3 192 167 170
3 193 192 170
3 182 194 168
3 194 172 168
3 193 170 195
3 170 169 195
3 195 169 171
3 196 195 171
3 196 171 172
3 194 197 172
3 197 198 172
3 198 196 172
3 200 173 190
3 199 200 190
3 201 174 173
3 200 201 173
3 176 179 202
3 177 176 202
3 177 202 175
3 175 202 184
3 178 185 203
3 178 203 179
3 179 203 202
3 203 185 204
3 202 205 184
3 183 206 181
3 180 181 206
3 180 206 182
3 182 206 194
3 183 184 207
3 205 207 184
3 183 207 206
3 185 208 204
3 186 209 185
3 185 209 208
3 187 210 186
3 186 210 209
3 191 189 211
3 189 188 211
3 211 188 192
3 199 190 212
3 212 190 191
3 212 191 211
3 213 199 212
3 214 211 192
3 214 192 193
3 215 214 193
3 215 193 195
3 206 216 194
3 216 197 194
3 216 217 197
3 215 195 218
3 218 195 196
3 198 218 196
3 217 219 197
3 219 218 198
3 197 219 198
3 220 199 213
3 221 200 199
3 220 221 199
3 222 201 200
3 221 222 200
3 203 204 223
3 203 223 202
3 202 223 205
3 204 208 224
3 204 224 223
3 205 223 225
3 205 225 207
3 207 225 226
3 207 226 206
3 226 216 206
3 208 228 224
3 224 228 227
3 209 229 208
3 229 228 208
3 210 230 209
3 209 230 229
3 213 212 231
3 212 211 231
3 231 211 214
3 232 220 213
3 232 213 231
3 233 231 214
3 233 214 215
3 234 233 215
3 234 215 218
3 226 235 216
3 235 217 216
3 235 236 217
3 217 236 219
3 237 234 218
3 237 218 219
3 236 238 219
3 238 237 219
3 240 220 232
3 239 240 232
3 241 221 220
3 240 241 220
3 242 222 221
3 241 242 221
3 224 227 243
3 224 243 223
3 223 243 225
3 225 243 244
3 225 244 226
3 226 244 235
3 227 245 243
3 228 246 227
3 227 246 245
3 229 247 228
3 228 247 246
3 230 248 229
3 229 248 247
3 239 232 249
3 232 231 249
3 249 231 233
3 250 249 233
3 250 233 234
3 237 250 234
3 244 251 235
3 235 251 236
3 251 252 236
3 236 252 238
3 252 253 238
3 253 250 237
3 253 237 238
3 254 239 249
3 255 240 239
3 254 255 239
3 256 241 240
3 255 256 240
3 257 242 241
3 256 257 241
3 245 258 243
3 243 258 244
3 244 258 251
3 245 259 258
3 246 260 245
3 245 260 259
3 247 261 246
3 246 261 260
3 248 262 247
3 247 262 261
3 254 249 263
3 263 249 250
3 253 263 250
3 258 264 251
3 251 264 252
3 264 265 252
3 265 263 253
3 252 265 253
3 266 254 263
3 267 255 254
3 266 267 254
3 268 256 255
3 267 268 255
3 269 257 256
3 268 269 256
3 259 270 258
3 270 264 258
3 260 271 259
3 259 271 270
3 261 272 260
3 260 272 271
3 262 273 261
3 273 272 261
3 270 274 264
3 275 266 263
3 275 263 265
3 274 276 264
3 276 265 264
3 276 277 265
3 277 275 265
3 278 267 266
3 275 278 266
3 279 268 267
3 278 279 267
3 280 269 268
3 279 280 268
3 271 281 270
3 270 281 274
3 272 282 271
3 271 282 281
3 273 283 272
3 272 283 282
3 281 284 274
3 274 284 276
3 285 278 275
3 277 285 275
3 284 286 276
3 286 285 277
3 276 286 277
3 287 279 278
3 285 287 278
3 288 280 279
3 287 288 279
3 282 289 281
3 281 289 284
3 283 290 282
3 282 290 289
3 289 291 284
3 284 291 286
3 291 292 286
3 292 287 285
3 286 292 285
3 293 288 287
3 292 293 287
3 290 294 289
3 289 294 291
3 294 295 291
3 295 293 292
3 291 295 292
CELL_TYPES 542
5
5
5
5
5
5
5
5
5
5
5
5
5
5
5
5
5
5
5
5
5
5
5
5
5
5
5
5
5
5
5
5
5
5
5
5
5
5
5
5
5
5
5
5
5
5
5
5
5
5
5
5
5
5
5
5
5
5
5
5
5
5
5
5
5
5
5
5
5
5
5
5
5
5
5
5
5
5
5
5
5
5
5
5
5
5
5
5
5
5
5
5
5
5
5
5
5
5
5
5
5
5
5
5
5
5
5
5
5
5
5
5
5
5
5
5
5
5
5
5
5
5
5
5
5
5
5
5
5
5
5
5
5
5
5
5
5
5
5
5
5
5
5
5
5
5
5
5
5
5
5
5
5
5
5
5
5
5
5
5
5
5
5
5
5
5
5
5
5
5
5
5
5
5
5
5
5
5
5
5
5
5
5
5
5
5
5
5
5
5
5
5
5
5
5
5
5
5
5
5
5
5
5
5
5
5
5
5
5
5
5
5
5
5
5
5
5
5
5
5
5
5
5
5
5
5
5
5
5
5
5
5
5
5
5
5
5
5
5
5
5
5
5
5
5
5
5
5
5
5
5
5
5
5
5
5
5
5
5
5
5
5
5
5
5
5
5
5
5
5
5
5
5
5
5
5
5
5
5
5
5
5
5
5
5
5
5
5
5
5
5
5
5
5
5
5
5
5
5
5
5
5
5
5
5
5
5
5
5
5
5
5
5
5
5
5
5
5
5
5
5
5
5
5
5
5
5
5
5
5
5
5
5
5
5
5
5
5
5
5
5
5
5
5
5
5
5
5
5
5
5
5
5
5
5
5
5
5
5
5
5
5
5
5
5
5
5
5
5
5
5
5
5
5
5
5
5
5
5
5
5
5
5
5
5
5
5
5
5
5
5
5
5
5
5
5
5
5
5
5
5
5
5
5
5
5
5
5
5
5
5
5
5
5
5
5
5
5
5
5
5
5
5
5
5
5
5
5
5
5
5
5
5
5
5
5
5
5
5
5
5
5
5
5
5
5
5
5
5
5
5
5
5
5
5
5
5
5
5
5
5
5
5
5
5
5
5
5
5
5
5
5
5
5
5
5
5
5
5
5
5
5
5
5
5
5
5
5
5
5
5
5
5
5
5
5
5
5
5
5
5
5
5
5
5
5
5
5
5
5
5
5
5
5
5
5
5
5
5
5
5
5
5
5
5
5
5
5
5
5
5
5
5
5
5
5
5
5
5
5
5
5
POINT_DATA 296
SCALARS concentrations float 4
LOOKUP_TABLE default
0 0.945324 0.103868 70.6572
0 0.945348 0.102744 100.991
0 0.945128 0.100463 122.965
0 0.945039 0.101003 7.98356
0 0.945301 0.0923355 11.7798
0 0.945294 0.102138 55.9488
0 0.945189 0.100681 33.583
0 0.945422 0.0924788 15.5586
0 0.945429 0.0924662 16.7282
0 0.945238 0.096436 14.7581
0 0.945325 0.0989203 44.8974
0 0.944979 0.101927 53.8596
0 0.945281 0.0970892 38.0861
0 0.945173 0.0918018 3.13805
0 0.9451 0.0924485 4.47145
0 0.945376 0.0913035 4.35855
0 0.945477 0.0911744 2.47511
0 0.945386 0.0923216 11.4083
0 0.945363 0.0923655 1.21996
0 0.945558 0.0913763 4.23045
0 0.945591 0.091413 4.58661
0 0.945368 0.0984541 16.4288
0 0.945592 0.104502 126.402
0 0.945433 0.0919966 4.83474
0 0.945455 0.091893 8.10001
0 0.945198 0.0924048 5.12
0 0.945532 0.0989389 43.4515
0 0.945445 0.0920032 4.52727
0 0.945724 0.10499 218.064
0 0.9453 0.0913624 3.00217
0 0.945312 0.0914088 2.37446
0 0.945462 0.0911996 2.80706
0 0.945549 0.104267 117.907
0 0.945537 0.0910955 1.68412
0 0.9456 0.0910654 0.9527
0 0.945594 0.0913047 3.24022
0 0.945607 0.0913994 1.9806
0 0.945659 0.0910886 0.935066
0 0.945687 0.0911592 1.68819
0 0.94555 0.0919921 14.5852
0 0.9456 0.0926735 16.9625
0 0.945622 0.0913168 4.39173
0 0.945633 0.0913319 6.03304
0 0.945478 0.10239 87.3285
0 0.945407 0.0912708 1.37785
0 0.945614 0.0919056 4.69993
0 0.945541 0.0912959 1.0247
0 0.945803 0.111341 111.695
0 0.945748 0.0926767 11.8699
0 0.945583 0.101777 67.8602
0 0.945452 0.0911767 2.3098
0 0.945453 0.0911362 1.74823
0 0.945557 0.0910977 1.66755
0 0.945516 0.093065 16.0868
0 0.945353 0.092551 8.10744
0 0.945634 0.0910753 1.07591
0 0.945705 0.0911309 1.0872
0 0.945706 0.0911586 2.18598
0 0.945698 0.0910401 0.61308
0 0.94563 0.0913839 4.40774
0 0.945575 0.0915481 3.36442
0 0.945699 0.0911145 2.61104
0 0.945674 0.0911264 2.56294
0 0.945181 0.103124 85.7819
0 0.945521 0.0910093 0.668979
0 0.945635 0.0915266 2.40901
0 0.945574 0.0911773 0.964237
0 0.945663 0.0929699 11.0649
0 0.945647 0.0917098 2.67313
0 0.945654 0.107067 41.4654
0 0.945605 0.0929821 2.18298
0 0.945545 0.104456 9.26045
0 0.945612 0.0910492 1.16994
0 0.945535 0.0910463 1.33099
0 0.945573 0.0910525 1.21303
0 0.945454 0.0916782 4.81647
0 0.945075 0.0918117 4.44465
0 0.945287 0.0914737 2.92089
0 0.945663 0.0910356 1.03346
0 0.945631 0.0910215 1.02595
0 0.945711 0.0910709 0.934557
0 0.945692 0.091017 0.857037
0 0.945626 0.09112 0.285789
0 0.945545 0.0912817 1.89259
0 0.945668 0.0910639 0.752988
0 0.944869 0.100491 108.164
0 0.945562 0.0910323 1.02472
0 0.945599 0.091331 2.53088
0 0.945615 0.0918232 4.51258
0 0.945604 0.0915041 3.87653
0 0.945602 0.092483 8.63604
0 0.945592 0.091568 3.19521
0 0.945715 0.102322 87.3739
0 0.945618 0.0920831 9.19936
0 0.945598 0.0910318 1.07966
0 0.945562 0.0910342 1.05255
0 0.945577 0.0910393 1.12595
0 0.945566 0.0910392 1.39731
0 0.94586 0.101177 88.9232
0 0.944905 0.0919263 7.30524
0 0.945451 0.0912728 2.5543
0 0.945133 0.0913009 1.16308
0 0.945321 0.0912428 2.08775
0 0.945611 0.0910243 1.23554
0 0.94565 0.0910142 1.1173
0 0.945679 0.0910456 1.06632
0 0.945661 0.0910178 1.23349
0 0.945574 0.0910662 1.50499
0 0.945624 0.0910434 1.36598
0 0.944804 0.100537 108.287
0 0.945579 0.0911239 2.17772
0 0.94559 0.0913855 3.6093
0 0.945618 0.0913597 2.88027
0 0.945597 0.0913294 2.64508
0 0.945773 0.0922572 6.28348
0 0.945672 0.0911976 1.55748
0 0.945816 0.0922452 6.56807
0 0.945586 0.091035 1.46452
0 0.945598 0.0910335 1.5154
0 0.94558 0.091026 1.23563
0 0.945566 0.0910424 1.36164
0 0.945568 0.0910431 1.72592
0 0.945561 0.0910571 1.70675
0 0.945564 0.0910331 1.46373
0 0.945831 0.106014 83.4586
0 0.944949 0.092064 3.58486
0 0.945082 0.0911442 2.17522
0 0.945446 0.0910758 1.79321
0 0.945267 0.0911055 1.20136
0 0.945621 0.0910269 1.53791
0 0.945632 0.091019 1.51345
0 0.945549 0.0910159 1.60835
0 0.94559 0.0910183 1.59891
0 0.945046 0.0918503 3.54247
0 0.944978 0.0996392 38.5918
0 0.945584 0.0910505 1.89607
0 0.945616 0.0911349 1.65047
0 0.945726 0.0912993 1.81356
0 0.945647 0.0910664 1.01286
0 0.945789 0.0918738 5.281
0 0.945735 0.0913152 1.61728
0 0.945568 0.0910583 1.79977
0 0.945582 0.0910332 1.65225
0 0.945568 0.0910335 1.55882
0 0.945558 0.0910355 1.5364
0 0.945555 0.0910624 1.88417
0 0.945549 0.0910804 1.85601
0 0.945548 0.091024 1.38344
0 0.945546 0.0910207 1.37386
0 0.945854 0.0921333 8.07404
0 0.945859 0.104697 154.034
0 0.945468 0.0910022 1.34919
0 0.945092 0.0912538 1.65546
0 0.945219 0.0910526 0.928106
0 0.945374 0.0910093 0.943315
0 0.945114 0.0911847 1.87562
0 0.945586 0.0910156 1.64192
0 0.945542 0.0909988 1.55659
0 0.94556 0.0910297 1.65672
0 0.945477 0.091018 1.20162
0 0.945005 0.0917121 3.38122
0 0.945006 0.0959106 10.0812
0 0.945592 0.0910422 1.39749
0 0.945646 0.0911326 1.13909
0 0.94572 0.0914831 1.37652
0 0.945649 0.0913031 0.991214
0 0.945659 0.0915707 2.7379
0 0.945558 0.0910975 1.50332
0 0.945545 0.0910177 1.47855
0 0.945541 0.0910368 1.53734
0 0.945532 0.0911131 1.93396
0 0.945532 0.0910088 1.15275
0 0.945523 0.091 1.07254
0 0.945709 0.0923994 6.89584
0 0.945958 0.108291 53.1153
0 0.945405 0.0910382 0.84614
0 0.945222 0.0910635 0.631525
0 0.94532 0.0910202 0.535557
0 0.945149 0.0913358 3.75601
0 0.94523 0.0910927 1.2216
0 0.945539 0.0910165 1.5809
0 0.945505 0.0910167 1.35298
0 0.945526 0.0910117 1.43843
0 0.945458 0.0910213 1.11874
0 0.945402 0.0910203 0.769124
0 0.945238 0.0913709 4.01464
0 0.945068 0.0921015 6.69719
0 0.944912 0.0999497 44.5082
0 0.945573 0.0911791 0.884732
0 0.945594 0.0913625 0.781817
0 0.945491 0.0916371 3.21809
0 0.945531 0.0913644 1.74673
0 0.945526 0.0911294 1.70632
0 0.945509 0.0911042 1.72822
0 0.945511 0.0909947 1.0842
0 0.945516 0.0910272 1.1947
0 0.945514 0.0909979 0.846011
0 0.945496 0.0909816 0.733274
0 0.945501 0.0909827 0.602427
0 0.945301 0.0915463 2.84027
0 0.945334 0.092647 3.74818
0 0.94553 0.096677 27.0403
0 0.945328 0.0910057 0.0873856
0 0.945276 0.0910939 1.28956
0 0.945312 0.0911996 2.27208
0 0.945381 0.0909928 0.72756
0 0.945486 0.0910137 1.52507
0 0.945438 0.0910216 1.41065
0 0.945346 0.0914516 3.16295
0 0.945326 0.092282 7.00908
0 0.945175 0.100835 8.56238
0 0.945502 0.0911614 1.06403
0 0.94543 0.0911742 1.02614
0 0.945329 0.0911564 1.29213
0 0.945476 0.0911 1.7573
0 0.945485 0.0910489 1.22196
0 0.945477 0.0909981 1.05469
0 0.945469 0.0909833 0.703771
0 0.94549 0.090988 0.544146
0 0.945476 0.0909659 0.0713636
0 0.945178 0.0914816 3.25751
0 0.945106 0.0923812 4.96224
0 0.945137 0.0998836 17.7562
0 0.945351 0.0910045 0.377629
0 0.945359 0.0911291 1.54891
0 0.9454 0.0910295 1.67271
0 0.945445 0.091034 1.71088
0 0.945387 0.0911685 1.99504
0 0.945407 0.0914858 3.41456
0 0.945452 0.0923091 2.32195
0 0.945473 0.10411 85.6914
0 0.945415 0.0910346 1.57562
0 0.945295 0.0911358 1.12165
0 0.945436 0.0910441 1.31515
0 0.945462 0.0910058 0.71808
0 0.945442 0.091012 1.19142
0 0.945446 0.0909815 0.754436
0 0.945458 0.0909716 0.0839824
0 0.945448 0.0909691 0.343528
0 0.945265 0.0912372 1.77136
0 0.945147 0.0914308 3.51715
0 0.945037 0.091852 7.38466
0 0.944987 0.0993537 77.5597
0 0.945382 0.0910221 1.70754
0 0.945411 0.0910469 1.97428
0 0.945399 0.0911266 1.96551
0 0.945452 0.0916149 5.06316
0 0.945519 0.0930197 10.1016
0 0.945522 0.101169 12.56
0 0.945371 0.0909804 0.340985
0 0.94542 0.0909558 0.221786
0 0.945419 0.0910257 1.38271
0 0.945425 0.0909639 0.0706702
0 0.945424 0.091027 1.21461
0 0.945306 0.0911821 1.55748
0 0.945173 0.0914462 3.73022
0 0.945064 0.0917844 5.60634
0 0.944993 0.0991115 113.68
0 0.945398 0.0910444 0.533209
0 0.9454 0.0913249 3.83372
0 0.945454 0.0916865 6.41778
0 0.945594 0.0931177 13.5965
0 0.945655 0.102113 48.7029
0 0.945386 0.090995 0.875039
0 0.945408 0.0910426 0.739572
0 0.945409 0.0910145 1.32233
0 0.945333 0.0911771 1.64604
0 0.945244 0.0914307 4.01922
0 0.945109 0.0919757 7.84402
0 0.94504 0.0976576 77.6263
0 0.945394 0.0912444 2.97023
0 0.945417 0.0916965 6.52142
0 0.945534 0.0927846 11.3809
0 0.945663 0.102131 1.9519
0 0.945397 0.0911786 2.50284
0 0.94538 0.0910551 1.261
0 0.945407 0.091052 1.42539
0 0.945402 0.091022 1.10684
0 0.945319 0.0913236 2.73771
0 0.945258 0.092209 10.8212
0 0.945124 0.100159 121.616
0 0.945384 0.0914786 5.10651
0 0.945399 0.0926823 11.8927
0 0.945511 0.100107 102.862
0 0.945402 0.0912188 2.32947
0 0.945379 0.0911184 1.12524
0 0.945408 0.0912046 2.45388
0 0.94533 0.0922183 10.0357
0 0.945333 0.0999051 3.38415
0 0.945361 0.0921277 5.63702
0 0.945334 0.097818 5.36242
0 0.945451 0.0918425 2.64286
0 0.945387 0.0922354 9.46548
0 0.945306 0.105024 84.5791
0 0.945412 0.0960338 3.68144
0 0.945473 0.103849 54.6806
VECTORS fa_u float
0.00666663 0.00273887 -0
0.00563222 0.00324138 -0
0.00493067 0.00133852 -0
0.00798085 0.0010952 -0
1e-08 0 0
0.00619033 0.00477801 -0
0.00348479 0.00347503 -0
1e-08 0 0
1e-08 0 0
0.00411812 0.00524497 -0
0.00401739 0.00687166 -0
0.00564745 2.65361e-05 -0
0.00666017 -0.000808145 0
1e-08 0 0
1e-08 0 0
1e-08 0 0
1e-08 0 0
1e-08 0 0
1e-08 0 0
1e-08 0 0
1e-08 0 0
0.00238527 0.0057224 -0
0.00216107 0.0081776 -0
1e-08 0 0
1e-08 0 0
1e-08 0 0
0.00760972 -0.00199957 0
1e-08 0 0
0.00780183 -0.00331384 0
1e-08 0 0
1e-08 0 0
1e-08 0 0
0.000705571 0.00562871 -0
1e-08 0 0
1e-08 0 0
1e-08 0 0
1e-08 0 0
1e-08 0 0
1e-08 0 0
1e-08 0 0
1e-08 0 0
1e-08 0 0
1e-08 0 0
-2.95233e-05 0.00736196 -0
1e-08 0 0
1e-08 0 0
1e-08 0 0
0.00500625 -0.00297616 0
1e-08 0 0
0.00511767 -0.00398377 0
1e-08 0 0
1e-08 0 0
1e-08 0 0
1e-08 0 0
1e-08 0 0
1e-08 0 0
1e-08 0 0
1e-08 0 0
1e-08 0 0
1e-08 0 0
1e-08 0 0
1e-08 0 0
1e-08 0 0
-0.000989701 0.00702638 0
1e-08 0 0
1e-08 0 0
1e-08 0 0
1e-08 0 0
1e-08 0 0
0.0039624 -0.00396521 0
1e-08 0 0
0.00349719 -0.0044574 0
1e-08 0 0
1e-08 0 0
1e-08 0 0
1e-08 0 0
1e-08 0 0
1e-08 0 0
1e-08 0 0
1e-08 0 0
1e-08 0 0
1e-08 0 0
1e-08 0 0
1e-08 0 0
1e-08 0 0
-0.00117611 0.00440499 0
1e-08 0 0
1e-08 0 0
1e-08 0 0
1e-08 0 0
1e-08 0 0
1e-08 0 0
0.00389142 -0.00655929 0
1e-08 0 0
1e-08 0 0
1e-08 0 0
1e-08 0 0
1e-08 0 0
0.00342502 -0.00834134 0
1e-08 0 0
1e-08 0 0
1e-08 0 0
1e-08 0 0
1e-08 0 0
1e-08 0 0
1e-08 0 0
1e-08 0 0
1e-08 0 0
1e-08 0 0
-0.00301985 0.00742565 0
1e-08 0 0
1e-08 0 0
1e-08 0 0
1e-08 0 0
1e-08 0 0
1e-08 0 0
1e-08 0 0
1e-08 0 0
1e-08 0 0
1e-08 0 0
1e-08 0 0
1e-08 0 0
1e-08 0 0
1e-08 0 0
0.00131737 -0.00503017 0
1e-08 0 0
1e-08 0 0
1e-08 0 0
1e-08 0 0
1e-08 0 0
1e-08 0 0
1e-08 0 0
1e-08 0 0
1e-08 0 0
-0.00374584 0.00643919 0
1e-08 0 0
1e-08 0 0
1e-08 0 0
1e-08 0 0
1e-08 0 0
1e-08 0 0
1e-08 0 0
1e-08 0 0
1e-08 0 0
1e-08 0 0
1e-08 0 0
1e-08 0 0
1e-08 0 0
1e-08 0 0
1e-08 0 0
0.000900995 -0.00674824 0
1e-08 0 0
1e-08 0 0
1e-08 0 0
1e-08 0 0
1e-08 0 0
1e-08 0 0
1e-08 0 0
1e-08 0 0
1e-08 0 0
1e-08 0 0
-0.0037402 0.00483597 0
1e-08 0 0
1e-08 0 0
1e-08 0 0
1e-08 0 0
1e-08 0 0
1e-08 0 0
1e-08 0 0
1e-08 0 0
1e-08 0 0
1e-08 0 0
1e-08 0 0
1e-08 0 0
9.99225e-06 -0.00662627 0
1e-08 0 0
1e-08 0 0
1e-08 0 0
1e-08 0 0
1e-08 0 0
1e-08 0 0
1e-08 0 0
1e-08 0 0
1e-08 0 0
1e-08 0 0
1e-08 0 0
1e-08 0 0
-0.00416413 0.00419223 0
1e-08 0 0
1e-08 0 0
1e-08 0 0
1e-08 0 0
1e-08 0 0
1e-08 0 0
1e-08 0 0
1e-08 0 0
1e-08 0 0
1e-08 0 0
1e-08 0 0
1e-08 0 0
1e-08 0 0
-0.00079287 -0.00621657 0
1e-08 0 0
1e-08 0 0
1e-08 0 0
1e-08 0 0
1e-08 0 0
1e-08 0 0
1e-08 0 0
1e-08 0 0
-0.00494925 0.00387349 0
1e-08 0 0
1e-08 0 0
1e-08 0 0
1e-08 0 0
1e-08 0 0
1e-08 0 0
1e-08 0 0
1e-08 0 0
1e-08 0 0
1e-08 0 0
1e-08 0 0
-0.00189396 -0.00715007 0
1e-08 0 0
1e-08 0 0
1e-08 0 0
1e-08 0 0
1e-08 0 0
1e-08 0 0
1e-08 0 0
-0.00605896 0.0035803 0
1e-08 0 0
1e-08 0 0
1e-08 0 0
1e-08 0 0
1e-08 0 0
1e-08 0 0
1e-08 0 0
1e-08 0 0
1e-08 0 0
1e-08 0 0
1e-08 0 0
-0.00264117 -0.00635206 0
1e-08 0 0
1e-08 0 0
1e-08 0 0
1e-08 0 0
1e-08 0 0
-0.00834067 0.00343552 0
1e-08 0 0
1e-08 0 0
1e-08 0 0
1e-08 0 0
1e-08 0 0
1e-08 0 0
1e-08 0 0
1e-08 0 0
-0.00341997 -0.00588846 0
1e-08 0 0
1e-08 0 0
1e-08 0 0
1e-08 0 0
-0.00484807 0.00128044 0
1e-08 0 0
1e-08 0 0
1e-08 0 0
1e-08 0 0
1e-08 0 0
1e-08 0 0
-0.00482349 -0.00617692 0
1e-08 0 0
1e-08 0 0
1e-08 0 0
-0.00809959 0.00105427 0
1e-08 0 0
1e-08 0 0
1e-08 0 0
1e-08 0 0
1e-08 0 0
1e-08 0 0
-0.00338212 -0.00335962 0
1e-08 0 0
1e-08 0 0
-0.00675529 -5.74287e-05 0
1e-08 0 0
1e-08 0 0
1e-08 0 0
1e-08 0 0
-0.00589061 -0.00455339 0
1e-08 0 0
-0.00583041 -0.000795385 0
1e-08 0 0
1e-08 0 0
-0.00599598 -0.00345356 0
-0.00584664 -0.00154744 0
-0.00662839 -0.00271257 0
