# vtk DataFile Version 2.0
CellBP Time: 1.84
ASCII
DATASET UNSTRUCTURED_GRID
POINTS 296 double
-9.08185 -3.73032 0
-8.49753 -4.88423 0
-9.49677 -2.50483 0
-9.74208 -1.23813 0
-8.31888 -2.80164 0
-7.78998 -5.96741 0
-6.93418 -6.9374 0
-7.87855 -3.85312 0
-7.30561 -4.84415 0
-5.96368 -7.78919 0
-4.89537 -8.51211 0
-9.82869 0.0483919 0
-9.75675 1.339 0
-8.62192 -1.67407 0
-8.75335 -0.526591 0
-7.55226 -1.99065 0
-7.18719 -2.88776 0
-6.60772 -5.75574 0
-5.79972 -6.5742 0
-6.75315 -3.86634 0
-6.18837 -4.65313 0
-3.73512 -9.08278 0
-2.50979 -9.5008 0
-4.89092 -7.2869 0
-3.90474 -7.86501 0
-8.76264 0.639733 0
-9.50592 2.60989 0
-8.59637 1.76605 0
-9.08264 3.83205 0
-7.70957 -0.922003 0
-7.76226 0.081342 0
-6.9192 -1.30665 0
-1.23874 -9.75159 0
-6.41088 -2.14043 0
-6.28811 -3.03872 0
-5.51081 -5.45225 0
-4.77632 -6.09368 0
-5.63132 -3.73835 0
-5.24276 -4.54049 0
-2.85922 -8.34067 0
-1.77282 -8.61495 0
-3.91519 -6.70241 0
-3.04964 -7.13217 0
0.0508754 -9.83799 0
-7.67578 1.13861 0
-8.31598 2.90703 0
-7.52453 2.10211 0
-8.51274 4.99258 0
-7.85339 3.96382 0
-7.78791 6.06399 0
-6.74849 -0.393124 0
-6.92657 0.551458 0
-5.74858 -0.998661 0
-0.588543 -8.78115 0
0.561646 -8.73817 0
-5.28153 -2.46846 0
-4.47025 -5.07454 0
-3.88601 -5.75431 0
-4.42094 -3.78949 0
-2.05646 -7.53937 0
-1.13226 -7.76057 0
-2.98382 -6.08178 0
-2.30297 -6.59962 0
1.33786 -9.74446 0
-6.66334 1.41555 0
-7.14442 3.10472 0
-6.63376 2.3628 0
-7.26659 4.96876 0
-6.69175 3.98557 0
-6.93584 7.03407 0
-6.54675 5.86936 0
-5.95991 7.88185 0
-4.44102 -1.1784 0
-5.79421 0.51022 0
-4.64402 -0.0130598 0
0.00572114 -7.81862 0
1.72818 -8.60706 0
0.941004 -7.73067 0
-4.02729 -2.39851 0
-3.48118 -1.3896 0
-3.28321 -4.78899 0
-3.25867 -3.25831 0
-1.37618 -6.65255 0
-0.510358 -6.99843 0
-1.97042 -5.52052 0
2.60473 -9.48885 0
-5.48811 2.02987 0
-6.07114 3.05863 0
-6.08073 4.8478 0
-5.73859 3.97258 0
-5.73799 6.68767 0
-5.4298 5.59347 0
-4.89426 8.61331 0
-4.81795 7.37131 0
-3.49569 -0.423942 0
-4.43642 1.24525 0
-3.70317 0.590711 0
-4.04973 2.31555 0
-3.73687 9.1876 0
2.84563 -8.29268 0
0.412679 -6.7659 0
2.00791 -7.48966 0
1.29457 -6.87272 0
-2.44236 -0.872082 0
-2.83476 -2.12715 0
-2.28996 -4.08619 0
-2.32195 -2.96674 0
-0.443943 -5.83945 0
-1.2191 -4.4873 0
3.83079 -9.07952 0
-4.77234 3.37895 0
-5.06739 4.57275 0
-4.62731 6.25163 0
-4.52001 5.33446 0
-3.82989 7.96253 0
-3.8094 6.81235 0
-2.77174 8.38822 0
-1.64804 -0.136333 0
-1.44892 -0.889107 0
-2.48707 0.50867 0
-3.24643 1.44272 0
-3.22937 3.30751 0
-2.90419 2.36961 0
-1.35497 0.628621 0
-2.50871 9.59307 0
3.91174 -7.84875 0
2.94473 -7.11876 0
0.945882 -5.79651 0
2.05944 -6.38279 0
-1.68064 -1.98959 0
-1.43146 -3.27049 0
0.0885637 -4.73126 0
-0.5638 -3.68626 0
4.90796 -7.28243 0
4.9914 -8.51074 0
-3.763 4.53335 0
-3.71938 5.72607 0
-2.87431 7.25646 0
-2.99686 6.32528 0
-1.65541 8.70116 0
-1.93062 7.58808 0
-2.33223 4.03974 0
-0.729848 -1.32599 0
-0.836665 -0.256287 0
-1.93528 1.68192 0
-2.12224 2.87205 0
-1.30536 3.53822 0
-0.870375 1.35223 0
-0.283238 0.457198 0
-0.531027 8.84235 0
-1.23938 9.84365 0
1.10657 -4.55707 0
3.88597 -6.67755 0
2.96936 -6.06159 0
2.10495 -5.39879 0
4.7602 -6.17073 0
-0.557349 -2.47339 0
0.494336 -3.45558 0
0.0538175 -1.60945 0
1.47586 -3.66952 0
5.84196 -6.5824 0
6.06169 -7.78478 0
-2.46678 5.32781 0
-2.12034 6.50673 0
-0.898922 7.77477 0
-1.26474 6.90401 0
0.0873035 7.85461 0
-1.14192 4.48241 0
0.149753 -0.616621 0
-0.799055 2.48869 0
-0.333768 3.59597 0
0.0612293 1.51338 0
0.739614 0.473769 0
0.644455 8.84843 0
0.048799 9.93462 0
2.36943 -4.2661 0
3.83843 -5.60887 0
2.98497 -5.18572 0
5.55056 -5.4641 0
4.66844 -5.2529 0
0.629835 -2.29166 0
1.25285 -2.94423 0
0.756858 -1.39069 0
2.15691 -3.12568 0
2.98242 -3.4626 0
6.13312 -4.77004 0
6.6318 -5.74459 0
7.03486 -6.9322 0
-1.01487 5.79974 0
-0.36855 6.85836 0
1.11976 7.74718 0
0.558109 7.05696 0
-0.00177673 4.71383 0
0.603959 3.82111 0
1.33728 -0.641773 0
0.536348 2.64881 0
0.963358 1.57487 0
1.90751 0.213354 0
1.61178 1.06456 0
2.12465 7.56303 0
1.79481 8.68866 0
1.33966 9.85066 0
3.80606 -4.32984 0
5.09525 -4.4248 0
5.82516 -3.91656 0
3.77075 -3.188 0
1.80939 -1.88141 0
3.0104 -2.56675 0
6.76276 -3.93318 0
7.35937 -4.87962 0
7.88988 -5.96372 0
0.483027 5.86386 0
1.42527 6.7224 0
2.36914 6.65107 0
1.20635 4.54612 0
1.48455 3.39139 0
2.43155 -0.691468 0
2.823 0.14262 0
1.78525 2.16075 0
2.60804 1.14891 0
3.06537 7.15103 0
2.89858 8.35498 0
2.6112 9.6045 0
4.89391 -3.31222 0
6.10151 -3.09557 0
4.16108 -2.26866 0
3.23704 -1.50061 0
6.71341 -2.30655 0
7.21301 -3.03448 0
7.94457 -3.9029 0
8.61392 -4.89521 0
2.01928 5.58509 0
3.07576 6.13521 0
2.35957 4.11696 0
2.41584 3.05467 0
3.51802 -0.459411 0
3.60843 0.613656 0
2.95599 2.28369 0
3.53707 1.52254 0
3.9959 5.8789 0
3.97198 6.77361 0
3.96555 7.91861 0
3.83692 9.18622 0
5.5536 -1.9102 0
4.49805 -1.12638 0
6.69479 -1.33189 0
7.57248 -2.03046 0
8.37588 -2.85469 0
9.19099 -3.73845 0
3.40572 4.86142 0
3.32856 3.37568 0
4.67918 0.131007 0
4.5047 1.30586 0
4.05087 2.43573 0
4.54882 5.13323 0
4.82479 6.1708 0
4.96555 7.35982 0
4.99715 8.61465 0
5.86519 -0.434402 0
6.98837 -0.487977 0
7.73808 -1.08081 0
8.66194 -1.74023 0
9.59842 -2.50903 0
4.5323 3.81297 0
5.79541 1.09225 0
5.34762 2.52323 0
5.35281 4.60097 0
5.58719 5.50314 0
5.87522 6.65057 0
6.06711 7.89342 0
6.82059 0.458689 0
7.82811 -0.0264012 0
8.83548 -0.580638 0
9.85119 -1.2383 0
6.93163 1.34033 0
5.69276 3.76109 0
6.5115 2.18458 0
6.34873 3.07161 0
6.26116 4.66627 0
6.66445 5.81598 0
7.03565 7.03776 0
7.75577 0.961748 0
8.83053 0.570602 0
9.93582 0.0520993 0
7.58408 1.993 0
6.79267 3.88345 0
7.23447 2.93031 0
7.34615 4.8657 0
7.89315 6.0687 0
8.69003 1.71868 0
9.84629 1.33944 0
8.38426 2.82356 0
7.94789 3.89906 0
8.60338 4.98825 0
9.59477 2.60747 0
9.1789 3.83124 0
CELLS 542 2168
3 2 0 4
3 0 1 7
3 4 0 7
3 1 5 8
3 7 1 8
3 3 2 13
3 13 2 4
3 11 3 14
3 14 3 13
3 13 4 15
3 4 7 16
3 15 4 16
3 5 6 17
3 8 5 17
3 6 9 18
3 17 6 18
3 7 8 19
3 16 7 19
3 8 17 20
3 19 8 20
3 9 10 23
3 18 9 23
3 10 21 24
3 23 10 24
3 12 11 25
3 25 11 14
3 26 12 27
3 27 12 25
3 14 13 29
3 29 13 15
3 25 14 30
3 30 14 29
3 29 15 31
3 15 16 33
3 31 15 33
3 16 19 34
3 33 16 34
3 17 18 35
3 20 17 35
3 18 23 36
3 35 18 36
3 19 20 37
3 34 19 37
3 20 35 38
3 37 20 38
3 21 22 39
3 24 21 39
3 22 32 40
3 39 22 40
3 23 24 41
3 36 23 41
3 24 39 42
3 41 24 42
3 27 25 44
3 44 25 30
3 28 26 45
3 45 26 27
3 45 27 46
3 46 27 44
3 47 28 48
3 48 28 45
3 30 29 50
3 50 29 31
3 44 30 51
3 51 30 50
3 50 31 52
3 31 33 52
3 32 43 53
3 40 32 53
3 53 43 54
3 33 34 55
3 34 37 55
3 33 55 52
3 35 36 56
3 38 35 56
3 36 41 57
3 56 36 57
3 37 38 58
3 38 56 58
3 37 58 55
3 39 40 59
3 42 39 59
3 40 53 60
3 59 40 60
3 41 42 61
3 57 41 61
3 42 59 62
3 61 42 62
3 43 63 54
3 46 44 64
3 64 44 51
3 48 45 65
3 65 45 46
3 65 46 66
3 66 46 64
3 49 47 67
3 67 47 48
3 67 48 68
3 68 48 65
3 69 49 70
3 70 49 67
3 52 55 72
3 64 51 73
3 51 50 73
3 50 52 73
3 73 52 74
3 74 52 72
3 53 54 75
3 60 53 75
3 54 63 76
3 54 76 77
3 75 54 77
3 55 58 78
3 72 55 78
3 72 78 79
3 56 57 80
3 57 61 80
3 56 80 58
3 58 80 81
3 78 58 81
3 59 60 82
3 62 59 82
3 60 75 83
3 82 60 83
3 61 62 84
3 62 82 84
3 61 84 80
3 63 85 76
3 66 64 86
3 64 73 86
3 68 65 87
3 87 65 66
3 87 66 86
3 70 67 88
3 88 67 68
3 88 68 89
3 89 68 87
3 71 69 90
3 90 69 70
3 90 70 91
3 91 70 88
3 92 71 93
3 93 71 90
3 74 72 94
3 94 72 79
3 86 73 95
3 95 73 74
3 95 74 96
3 96 74 94
3 97 86 95
3 76 85 99
3 75 77 100
3 83 75 100
3 76 99 101
3 77 76 101
3 77 101 102
3 100 77 102
3 94 79 103
3 78 81 104
3 79 78 104
3 79 104 103
3 80 84 105
3 81 80 105
3 81 105 106
3 104 81 106
3 82 83 107
3 83 100 107
3 82 107 84
3 84 107 108
3 105 84 108
3 85 109 99
3 89 87 110
3 87 86 110
3 110 86 97
3 91 88 111
3 111 88 89
3 111 89 110
3 93 90 112
3 112 90 91
3 112 91 113
3 113 91 111
3 98 92 114
3 114 92 93
3 114 93 115
3 115 93 112
3 116 98 114
3 117 103 118
3 96 94 119
3 94 103 119
3 119 103 117
3 97 95 120
3 120 95 96
3 120 96 119
3 121 110 97
3 121 97 122
3 122 97 120
3 123 119 117
3 124 98 116
3 99 109 125
3 99 125 126
3 101 99 126
3 100 102 127
3 100 127 107
3 101 126 128
3 102 101 128
3 102 128 127
3 104 106 129
3 104 129 103
3 103 129 118
3 105 108 130
3 106 105 130
3 106 130 129
3 107 127 131
3 108 107 131
3 108 131 132
3 108 132 130
3 109 134 125
3 125 134 133
3 113 111 135
3 111 110 135
3 135 110 121
3 115 112 136
3 136 112 113
3 136 113 135
3 116 114 137
3 137 114 115
3 137 115 138
3 138 115 136
3 139 124 116
3 139 116 140
3 140 116 137
3 141 135 121
3 118 129 142
3 118 142 143
3 117 118 143
3 123 117 143
3 122 120 144
3 120 119 144
3 144 119 123
3 141 121 145
3 145 121 122
3 145 122 144
3 146 141 145
3 147 144 123
3 147 123 148
3 143 148 123
3 150 124 139
3 149 150 139
3 131 127 151
3 125 133 152
3 126 125 152
3 126 152 153
3 128 126 153
3 128 153 154
3 128 154 127
3 127 154 151
3 152 133 155
3 130 132 156
3 130 156 129
3 129 156 142
3 131 151 157
3 132 131 157
3 132 157 156
3 156 158 142
3 157 151 159
3 133 160 155
3 134 161 133
3 133 161 160
3 138 136 162
3 136 135 162
3 162 135 141
3 140 137 163
3 163 137 138
3 163 138 162
3 149 139 164
3 164 139 140
3 164 140 165
3 165 140 163
3 166 149 164
3 167 162 141
3 167 141 146
3 142 158 168
3 143 142 168
3 143 168 148
3 146 145 169
3 145 144 169
3 169 144 147
3 170 167 146
3 170 146 169
3 171 169 147
3 171 147 148
3 171 148 172
3 168 172 148
3 173 149 166
3 174 150 149
3 173 174 149
3 154 175 151
3 151 175 159
3 152 155 176
3 153 152 176
3 153 176 177
3 153 177 154
3 154 177 175
3 155 160 178
3 155 178 179
3 176 155 179
3 156 157 180
3 156 180 158
3 157 159 181
3 157 181 180
3 158 180 182
3 158 182 168
3 159 175 183
3 159 183 181
3 175 184 183
3 160 186 178
3 178 186 185
3 161 187 160
3 160 187 186
3 165 163 188
3 163 162 188
3 188 162 167
3 166 164 189
3 189 164 165
3 189 165 188
3 190 173 166
3 190 166 191
3 191 166 189
3 192 188 167
3 192 167 170
3 193 192 170
3 182 194 168
3 194 172 168
3 193 170 195
3 170 169 195
3 195 169 171
3 196 195 171
3 196 171 172
3 194 197 172
3 197 198 172
3 198 196 172
3 200 173 190
3 199 200 190
3 201 174 173
3 200 201 173
3 176 179 202
3 177 176 202
3 177 202 175
3 175 202 184
3 178 185 203
3 178 203 179
3 179 203 202
3 203 185 204
3 202 205 184
3 183 206 181
3 180 181 206
3 180 206 182
3 182 206 194
3 183 184 207
3 205 207 184
3 183 207 206
3 185 208 204
3 186 209 185
3 185 209 208
3 187 210 186
3 186 210 209
3 191 189 211
3 189 188 211
3 211 188 192
3 199 190 212
3 212 190 191
3 212 191 211
3 213 199 212
3 214 211 192
3 214 192 193
3 215 214 193
3 215 193 195
3 206 216 194
3 216 197 194
3 216 217 197
3 215 195 218
3 218 195 196
3 198 218 196
3 217 219 197
3 219 218 198
3 197 219 198
3 220 199 213
3 221 200 199
3 220 221 199
3 222 201 200
3 221 222 200
3 203 204 223
3 203 223 202
3 202 223 205
3 204 208 224
3 204 224 223
3 205 223 225
3 205 225 207
3 207 225 226
3 207 226 206
3 226 216 206
3 208 228 224
3 224 228 227
3 209 229 208
3 229 228 208
3 210 230 209
3 209 230 229
3 213 212 231
3 212 211 231
3 231 211 214
3 232 220 213
3 232 213 231
3 233 231 214
3 233 214 215
3 234 233 215
3 234 215 218
3 226 235 216
3 235 217 216
3 235 236 217
3 217 236 219
3 237 234 218
3 237 218 219
3 236 238 219
3 238 237 219
3 240 220 232
3 239 240 232
3 241 221 220
3 240 241 220
3 242 222 221
3 241 242 221
3 224 227 243
3 224 243 223
3 223 243 225
3 225 243 244
3 225 244 226
3 226 244 235
3 227 245 243
3 228 246 227
3 227 246 245
3 229 247 228
3 228 247 246
3 230 248 229
3 229 248 247
3 239 232 249
3 232 231 249
3 249 231 233
3 250 249 233
3 250 233 234
3 237 250 234
3 244 251 235
3 235 251 236
3 251 252 236
3 236 252 238
3 252 253 238
3 253 250 237
3 253 237 238
3 254 239 249
3 255 240 239
3 254 255 239
3 256 241 240
3 255 256 240
3 257 242 241
3 256 257 241
3 245 258 243
3 243 258 244
3 244 258 251
3 245 259 258
3 246 260 245
3 245 260 259
3 247 261 246
3 246 261 260
3 248 262 247
3 247 262 261
3 254 249 263
3 263 249 250
3 253 263 250
3 258 264 251
3 251 264 252
3 264 265 252
3 265 263 253
3 252 265 253
3 266 254 263
3 267 255 254
3 266 267 254
3 268 256 255
3 267 268 255
3 269 257 256
3 268 269 256
3 259 270 258
3 270 264 258
3 260 271 259
3 259 271 270
3 261 272 260
3 260 272 271
3 262 273 261
3 273 272 261
3 270 274 264
3 275 266 263
3 275 263 265
3 274 276 264
3 276 265 264
3 276 277 265
3 277 275 265
3 278 267 266
3 275 278 266
3 279 268 267
3 278 279 267
3 280 269 268
3 279 280 268
3 271 281 270
3 270 281 274
3 272 282 271
3 271 282 281
3 273 283 272
3 272 283 282
3 281 284 274
3 274 284 276
3 285 278 275
3 277 285 275
3 284 286 276
3 286 285 277
3 276 286 277
3 287 279 278
3 285 287 278
3 288 280 279
3 287 288 279
3 282 289 281
3 281 289 284
3 283 290 282
3 282 290 289
3 289 291 284
3 284 291 286
3 291 292 286
3 292 287 285
3 286 292 285
3 293 288 287
3 292 293 287
3 290 294 289
3 289 294 291
3 294 295 291
3 295 293 292
3 291 295 292
CELL_TYPES 542
5
5
5
5
5
5
5
5
5
5
5
5
5
5
5
5
5
5
5
5
5
5
5
5
5
5
5
5
5
5
5
5
5
5
5
5
5
5
5
5
5
5
5
5
5
5
5
5
5
5
5
5
5
5
5
5
5
5
5
5
5
5
5
5
5
5
5
5
5
5
5
5
5
5
5
5
5
5
5
5
5
5
5
5
5
5
5
5
5
5
5
5
5
5
5
5
5
5
5
5
5
5
5
5
5
5
5
5
5
5
5
5
5
5
5
5
5
5
5
5
5
5
5
5
5
5
5
5
5
5
5
5
5
5
5
5
5
5
5
5
5
5
5
5
5
5
5
5
5
5
5
5
5
5
5
5
5
5
5
5
5
5
5
5
5
5
5
5
5
5
5
5
5
5
5
5
5
5
5
5
5
5
5
5
5
5
5
5
5
5
5
5
5
5
5
5
5
5
5
5
5
5
5
5
5
5
5
5
5
5
5
5
5
5
5
5
5
5
5
5
5
5
5
5
5
5
5
5
5
5
5
5
5
5
5
5
5
5
5
5
5
5
5
5
5
5
5
5
5
5
5
5
5
5
5
5
5
5
5
5
5
5
5
5
5
5
5
5
5
5
5
5
5
5
5
5
5
5
5
5
5
5
5
5
5
5
5
5
5
5
5
5
5
5
5
5
5
5
5
5
5
5
5
5
5
5
5
5
5
5
5
5
5
5
5
5
5
5
5
5
5
5
5
5
5
5
5
5
5
5
5
5
5
5
5
5
5
5
5
5
5
5
5
5
5
5
5
5
5
5
5
5
5
5
5
5
5
5
5
5
5
5
5
5
5
5
5
5
5
5
5
5
5
5
5
5
5
5
5
5
5
5
5
5
5
5
5
5
5
5
5
5
5
5
5
5
5
5
5
5
5
5
5
5
5
5
5
5
5
5
5
5
5
5
5
5
5
5
5
5
5
5
5
5
5
5
5
5
5
5
5
5
5
5
5
5
5
5
5
5
5
5
5
5
5
5
5
5
5
5
5
5
5
5
5
5
5
5
5
5
5
5
5
5
5
5
5
5
5
5
5
5
5
5
5
5
5
5
5
5
5
5
5
5
5
5
5
5
5
5
5
5
5
5
5
5
5
5
5
5
5
5
5
5
5
5
5
5
5
5
5
5
5
5
5
5
5
5
5
5
5
5
5
5
5
5
5
5
5
5
5
5
5
5
5
5
5
5
5
5
5
5
POINT_DATA 296
SCALARS concentrations float 4
LOOKUP_TABLE default
0 0.976827 0.168901 285.068
0 0.976927 0.168348 487.982
0 0.976533 0.167201 199.43
0 0.976412 0.16808 459.492
0 0.976717 0.0915366 4.53265
0 0.9771 0.168451 252.536
0 0.976992 0.167461 340.315
0 0.976869 0.0913567 2.97052
0 0.976977 0.0913421 3.09691
0 0.976823 0.170307 375.639
0 0.976661 0.166002 294.364
0 0.97647 0.169929 443.742
0 0.976217 0.166337 290.189
0 0.976509 0.0917106 3.71454
0 0.976498 0.0916931 1.84128
0 0.976706 0.0912542 1.60159
0 0.976809 0.0911812 1.24591
0 0.977007 0.091583 3.09741
0 0.976893 0.0915032 0.805623
0 0.97688 0.0911353 1.45144
0 0.97691 0.0911961 1.90365
0 0.976965 0.170293 413.17
0 0.976727 0.168242 406.953
0 0.97673 0.0914423 3.47107
0 0.976807 0.0916539 5.55451
0 0.976421 0.091622 1.49779
0 0.975958 0.167091 380.638
0 0.97619 0.0914523 2.45382
0 0.975919 0.166065 462.47
0 0.976621 0.0912854 1.29088
0 0.976567 0.0912234 0.77285
0 0.976755 0.0911692 0.365456
0 0.976518 0.167388 290.951
0 0.97681 0.0911277 0.280929
0 0.976845 0.0911259 0.810671
0 0.976886 0.0912337 1.60263
0 0.976819 0.0912489 1.08734
0 0.976866 0.0911161 1.31088
0 0.976866 0.091155 1.53172
0 0.976857 0.0917217 6.71463
0 0.976645 0.09148 1.86262
0 0.976789 0.0912177 1.11161
0 0.976806 0.0911948 1.77585
0 0.976352 0.162667 241.119
0 0.976484 0.0912152 1.15462
0 0.976062 0.091419 1.31399
0 0.976392 0.0911885 1.72924
0 0.976143 0.16723 262.567
0 0.976156 0.0914127 2.15069
0 0.976225 0.164854 433.583
0 0.976729 0.0911479 0.57857
0 0.976671 0.0911559 1.00412
0 0.976835 0.0910845 0.750686
0 0.976507 0.0917283 2.10601
0 0.97647 0.0918437 1.26564
0 0.976864 0.0910677 0.573267
0 0.976848 0.0911515 1.19251
0 0.976823 0.0911598 0.869785
0 0.97687 0.0910756 0.970669
0 0.976773 0.0912466 2.0858
0 0.976703 0.0912934 1.01472
0 0.976828 0.0911302 1.01858
0 0.976819 0.0911438 1.30598
0 0.976384 0.166413 437.445
0 0.976664 0.0911353 1.62252
0 0.976374 0.0911885 1.45251
0 0.976606 0.0911586 1.97053
0 0.976275 0.0914308 0.693439
0 0.976427 0.0912139 0.726641
0 0.976602 0.165826 335.955
0 0.976445 0.0914726 3.96958
0 0.976907 0.166708 404.689
0 0.976898 0.0910776 1.03577
0 0.976805 0.0910926 1.51052
0 0.976893 0.0910866 1.5488
0 0.976658 0.0913183 0.764025
0 0.976371 0.091626 5.43975
0 0.976613 0.0913605 1.7856
0 0.976904 0.0910705 0.807034
0 0.976957 0.0910914 1.09697
0 0.976865 0.0910829 0.893446
0 0.976906 0.0910777 0.957949
0 0.976816 0.0911526 0.961787
0 0.976784 0.091213 0.839352
0 0.976868 0.0910738 0.732734
0 0.976103 0.162705 357.302
0 0.976785 0.0911087 2.04983
0 0.976643 0.0911694 1.50072
0 0.976519 0.0912501 0.928462
0 0.976641 0.0912047 0.933794
0 0.97676 0.0915183 5.19866
0 0.976656 0.09123 1.81614
0 0.976779 0.166708 234.004
0 0.976846 0.0914418 3.51458
0 0.97697 0.0910736 1.20105
0 0.976884 0.0910804 1.68359
0 0.976961 0.0910716 1.43247
0 0.976881 0.0910892 1.77868
0 0.976414 0.16259 303.097
0 0.976315 0.0915177 5.09739
0 0.976784 0.0912332 1.04027
0 0.976587 0.0912881 2.46077
0 0.976751 0.0912481 1.4823
0 0.977016 0.0910443 0.785269
0 0.976968 0.091075 0.904612
0 0.976913 0.0910735 0.832571
0 0.976963 0.0910722 0.821279
0 0.97687 0.0911085 0.679915
0 0.976922 0.0910655 0.51008
0 0.976319 0.166496 286.934
0 0.976795 0.0911098 1.26631
0 0.976722 0.091184 0.761808
0 0.976764 0.0911888 1.39142
0 0.976759 0.0911618 0.71761
0 0.976619 0.0913996 2.03551
0 0.976743 0.0911667 0.687846
0 0.976426 0.0915818 2.98582
0 0.97706 0.091027 0.687692
0 0.97706 0.0910266 0.55127
0 0.97702 0.0910374 0.88286
0 0.976971 0.0910619 1.358
0 0.976885 0.0910726 0.827196
0 0.976958 0.091077 1.36544
0 0.977073 0.0910128 0.629875
0 0.976296 0.166961 409.742
0 0.976581 0.0913848 3.69176
0 0.976654 0.0911711 2.06834
0 0.976871 0.0911394 0.729476
0 0.976782 0.0911769 1.17176
0 0.977021 0.0910413 0.522052
0 0.97698 0.0910529 0.515064
0 0.976934 0.0910734 0.443478
0 0.976981 0.091057 0.31959
0 0.976733 0.0913479 3.55228
0 0.976638 0.165023 351.897
0 0.976827 0.0910923 0.49357
0 0.976792 0.0911111 0.341141
0 0.97664 0.0911993 0.819238
0 0.976761 0.0911184 0.191765
0 0.97632 0.0915463 1.90681
0 0.976545 0.0912539 1.25594
0 0.976897 0.0910603 0.00988501
0 0.977075 0.0910153 0.237685
0 0.977095 0.0909943 0.321448
0 0.977025 0.0910335 0.865784
0 0.976974 0.0910584 0.710072
0 0.976968 0.0910592 0.537969
0 0.977075 0.0910019 0.625013
0 0.977105 0.0909712 0.330199
0 0.976303 0.0913411 1.10259
0 0.976152 0.165954 349.386
0 0.976946 0.0910766 0.342181
0 0.976761 0.0911269 1.48147
0 0.976819 0.0911208 0.671247
0 0.976898 0.0911038 0.387209
0 0.976829 0.0911572 2.47311
0 0.977033 0.0910333 0.23985
0 0.977002 0.0910591 0.331849
0 0.977082 0.0910189 0.249045
0 0.976995 0.0910762 0.467261
0 0.976806 0.0913992 5.82552
0 0.976739 0.16637 351.046
0 0.976836 0.0910589 0.417988
0 0.976737 0.0911187 0.725254
0 0.976508 0.0912408 1.8009
0 0.976685 0.0911611 1.40623
0 0.97658 0.091215 2.64262
0 0.9769 0.0910517 0.571518
0 0.977109 0.0909783 0.175142
0 0.977034 0.091029 0.757502
0 0.976988 0.0910653 1.03493
0 0.977087 0.0909896 0.66154
0 0.977112 0.0909752 0.572618
0 0.976563 0.0913982 3.15721
0 0.976323 0.16383 464.084
0 0.976963 0.091068 0.35164
0 0.976874 0.0910965 0.761386
0 0.976916 0.0910838 0.129522
0 0.976855 0.0912037 3.3368
0 0.976899 0.0910976 1.6708
0 0.977057 0.0910394 0.415217
0 0.97704 0.0910511 0.443498
0 0.977095 0.0910144 0.477822
0 0.977025 0.0910599 0.573523
0 0.976994 0.0910718 0.69581
0 0.9768 0.0912463 3.04233
0 0.976796 0.0914826 6.62026
0 0.97682 0.166081 345.442
0 0.976827 0.0910638 0.760929
0 0.976727 0.0911394 1.79342
0 0.976724 0.0912489 2.96098
0 0.976757 0.0911631 2.45501
0 0.976913 0.091063 1.03328
0 0.976989 0.0910609 1.21475
0 0.977106 0.0909991 0.684988
0 0.977046 0.0910187 0.929009
0 0.977089 0.0910018 0.898606
0 0.977101 0.0910137 1.00742
0 0.977094 0.0910136 1.035
0 0.976797 0.0912762 2.65857
0 0.976824 0.0915576 4.07392
0 0.976733 0.167699 328.117
0 0.976947 0.0910647 0.781859
0 0.976912 0.0911264 1.68963
0 0.976888 0.0911783 1.46365
0 0.976993 0.0910717 0.733081
0 0.97707 0.0910281 0.641262
0 0.977037 0.0910585 0.728707
0 0.976743 0.0912546 1.7396
0 0.97655 0.0915166 5.6095
0 0.976636 0.166125 315.605
0 0.976853 0.0910703 1.19824
0 0.976824 0.0911415 2.02006
0 0.976821 0.0911762 1.69453
0 0.976928 0.0910556 1.14592
0 0.977004 0.0910463 1.22944
0 0.977084 0.0910294 0.952748
0 0.977074 0.0910563 1.20989
0 0.977051 0.0910338 1.17946
0 0.977059 0.0910586 1.345
0 0.976716 0.091237 1.95649
0 0.976797 0.0915283 4.16046
0 0.976907 0.167221 329.592
0 0.976964 0.0910858 0.859877
0 0.976912 0.0911507 0.553318
0 0.977014 0.091069 0.795583
0 0.977054 0.0910441 0.861543
0 0.976932 0.0911585 0.339904
0 0.97678 0.0912631 1.28531
0 0.976469 0.0915219 3.18289
0 0.976276 0.164328 359.719
0 0.976874 0.0910576 0.934816
0 0.976786 0.0911351 0.680412
0 0.976927 0.0910517 1.10251
0 0.976991 0.0910687 1.34692
0 0.977047 0.091059 1.08827
0 0.977025 0.0910851 1.24763
0 0.976999 0.0910794 1.42366
0 0.976995 0.091092 1.45308
0 0.976707 0.0911603 0.679822
0 0.976574 0.0912006 0.300206
0 0.976458 0.0915172 5.14941
0 0.976622 0.164955 327.573
0 0.976984 0.0910853 0.658705
0 0.977018 0.0910634 0.917152
0 0.976968 0.0911422 1.13684
0 0.976877 0.0912395 1.44437
0 0.976661 0.0915106 2.88944
0 0.976429 0.167828 343.642
0 0.97684 0.0910683 1.04041
0 0.97691 0.0910617 1.25144
0 0.976993 0.0910717 1.12223
0 0.976944 0.0910691 1.31519
0 0.976911 0.091071 1.48049
0 0.976681 0.0911291 0.89453
0 0.976486 0.0912203 1.19858
0 0.976274 0.0914459 4.36107
0 0.976162 0.162986 293.165
0 0.976979 0.0910927 1.35527
0 0.976966 0.0911779 1.87566
0 0.976945 0.0912192 1.74402
0 0.976836 0.0915085 4.90449
0 0.976671 0.167575 249.933
0 0.976806 0.0910678 1.13734
0 0.976916 0.0910925 1.57366
0 0.976835 0.091077 1.35942
0 0.976604 0.0911073 0.636037
0 0.976411 0.091175 1.41003
0 0.976299 0.0913885 4.54193
0 0.976207 0.166886 436.646
0 0.976932 0.0911751 2.08291
0 0.976936 0.0912468 2.25565
0 0.976949 0.0914176 3.95451
0 0.976886 0.163937 377.58
0 0.97685 0.0911876 1.85175
0 0.97664 0.0910935 0.596554
0 0.976778 0.0911427 1.45315
0 0.976654 0.0911201 0.911979
0 0.976329 0.0911379 0.706846
0 0.976093 0.0914706 4.62203
0 0.976143 0.166793 309.794
0 0.976847 0.0912594 1.99426
0 0.976885 0.0914024 2.15794
0 0.976947 0.16685 293.27
0 0.976705 0.0912146 1.47319
0 0.976374 0.0911096 0.659834
0 0.976531 0.0911641 1.37212
0 0.97595 0.0913725 1.43248
0 0.975798 0.162012 353.13
0 0.976706 0.0914036 1.20149
0 0.976775 0.165765 384.656
0 0.976517 0.0913962 1.39464
0 0.976216 0.0913222 1.52044
0 0.975876 0.164467 465.366
0 0.976576 0.165682 275.24
0 0.97632 0.165298 375.99
VECTORS fa_u float
0.0071841 0.00301699 -0
0.00403199 0.0023284 -0
0.00680844 0.00180368 -0
0.00589878 0.000766842 -0
1e-08 0 0
0.00637512 0.00485422 -0
0.00442722 0.00443817 -0
1e-08 0 0
1e-08 0 0
0.00371429 0.00480895 -0
0.00367634 0.00633354 -0
0.00583103 3.3206e-05 -0
0.00739658 -0.000932011 0
1e-08 0 0
1e-08 0 0
1e-08 0 0
1e-08 0 0
1e-08 0 0
1e-08 0 0
1e-08 0 0
1e-08 0 0
0.00242849 0.00585963 -0
0.00178629 0.00666744 -0
1e-08 0 0
1e-08 0 0
1e-08 0 0
0.00712969 -0.00192786 0
1e-08 0 0
0.00538806 -0.00224594 0
1e-08 0 0
1e-08 0 0
1e-08 0 0
0.000822479 0.006246 -0
1e-08 0 0
1e-08 0 0
1e-08 0 0
1e-08 0 0
1e-08 0 0
1e-08 0 0
1e-08 0 0
1e-08 0 0
1e-08 0 0
1e-08 0 0
-2.07297e-05 0.00749762 -0
1e-08 0 0
1e-08 0 0
1e-08 0 0
0.00637247 -0.00369662 0
1e-08 0 0
0.00483937 -0.00373804 0
1e-08 0 0
1e-08 0 0
1e-08 0 0
1e-08 0 0
1e-08 0 0
1e-08 0 0
1e-08 0 0
1e-08 0 0
1e-08 0 0
1e-08 0 0
1e-08 0 0
1e-08 0 0
1e-08 0 0
-0.000837058 0.00612287 0
1e-08 0 0
1e-08 0 0
1e-08 0 0
1e-08 0 0
1e-08 0 0
0.00494252 -0.00497008 0
1e-08 0 0
0.00305148 -0.00394483 0
1e-08 0 0
1e-08 0 0
1e-08 0 0
1e-08 0 0
1e-08 0 0
1e-08 0 0
1e-08 0 0
1e-08 0 0
1e-08 0 0
1e-08 0 0
1e-08 0 0
1e-08 0 0
1e-08 0 0
-0.0015069 0.00564947 0
1e-08 0 0
1e-08 0 0
1e-08 0 0
1e-08 0 0
1e-08 0 0
1e-08 0 0
0.00387668 -0.00660005 0
1e-08 0 0
1e-08 0 0
1e-08 0 0
1e-08 0 0
1e-08 0 0
0.0029389 -0.00715575 0
1e-08 0 0
1e-08 0 0
1e-08 0 0
1e-08 0 0
1e-08 0 0
1e-08 0 0
1e-08 0 0
1e-08 0 0
1e-08 0 0
1e-08 0 0
-0.00260236 0.00634998 0
1e-08 0 0
1e-08 0 0
1e-08 0 0
1e-08 0 0
1e-08 0 0
1e-08 0 0
1e-08 0 0
1e-08 0 0
1e-08 0 0
1e-08 0 0
1e-08 0 0
1e-08 0 0
1e-08 0 0
1e-08 0 0
0.00150447 -0.00572729 0
1e-08 0 0
1e-08 0 0
1e-08 0 0
1e-08 0 0
1e-08 0 0
1e-08 0 0
1e-08 0 0
1e-08 0 0
1e-08 0 0
-0.00380778 0.00656097 0
1e-08 0 0
1e-08 0 0
1e-08 0 0
1e-08 0 0
1e-08 0 0
1e-08 0 0
1e-08 0 0
1e-08 0 0
1e-08 0 0
1e-08 0 0
1e-08 0 0
1e-08 0 0
1e-08 0 0
1e-08 0 0
1e-08 0 0
0.000789877 -0.00591457 0
1e-08 0 0
1e-08 0 0
1e-08 0 0
1e-08 0 0
1e-08 0 0
1e-08 0 0
1e-08 0 0
1e-08 0 0
1e-08 0 0
1e-08 0 0
-0.0035886 0.00464553 0
1e-08 0 0
1e-08 0 0
1e-08 0 0
1e-08 0 0
1e-08 0 0
1e-08 0 0
1e-08 0 0
1e-08 0 0
1e-08 0 0
1e-08 0 0
1e-08 0 0
1e-08 0 0
1.92271e-05 -0.00707025 0
1e-08 0 0
1e-08 0 0
1e-08 0 0
1e-08 0 0
1e-08 0 0
1e-08 0 0
1e-08 0 0
1e-08 0 0
1e-08 0 0
1e-08 0 0
1e-08 0 0
1e-08 0 0
-0.00446321 0.00448073 0
1e-08 0 0
1e-08 0 0
1e-08 0 0
1e-08 0 0
1e-08 0 0
1e-08 0 0
1e-08 0 0
1e-08 0 0
1e-08 0 0
1e-08 0 0
1e-08 0 0
1e-08 0 0
1e-08 0 0
-0.000784524 -0.00608949 0
1e-08 0 0
1e-08 0 0
1e-08 0 0
1e-08 0 0
1e-08 0 0
1e-08 0 0
1e-08 0 0
1e-08 0 0
-0.00497469 0.00385636 0
1e-08 0 0
1e-08 0 0
1e-08 0 0
1e-08 0 0
1e-08 0 0
1e-08 0 0
1e-08 0 0
1e-08 0 0
1e-08 0 0
1e-08 0 0
1e-08 0 0
-0.00187285 -0.00703897 0
1e-08 0 0
1e-08 0 0
1e-08 0 0
1e-08 0 0
1e-08 0 0
1e-08 0 0
1e-08 0 0
-0.00587216 0.00343342 0
1e-08 0 0
1e-08 0 0
1e-08 0 0
1e-08 0 0
1e-08 0 0
1e-08 0 0
1e-08 0 0
1e-08 0 0
1e-08 0 0
1e-08 0 0
1e-08 0 0
-0.00245026 -0.00590618 0
1e-08 0 0
1e-08 0 0
1e-08 0 0
1e-08 0 0
1e-08 0 0
-0.00724608 0.00298959 0
1e-08 0 0
1e-08 0 0
1e-08 0 0
1e-08 0 0
1e-08 0 0
1e-08 0 0
1e-08 0 0
1e-08 0 0
-0.00354395 -0.0061136 0
1e-08 0 0
1e-08 0 0
1e-08 0 0
1e-08 0 0
-0.00568746 0.00150186 0
1e-08 0 0
1e-08 0 0
1e-08 0 0
1e-08 0 0
1e-08 0 0
1e-08 0 0
-0.00401891 -0.00519539 0
1e-08 0 0
1e-08 0 0
1e-08 0 0
-0.00653597 0.000861049 0
1e-08 0 0
1e-08 0 0
1e-08 0 0
1e-08 0 0
1e-08 0 0
1e-08 0 0
-0.00410859 -0.00411158 0
1e-08 0 0
1e-08 0 0
-0.00701936 -1.33576e-05 0
1e-08 0 0
1e-08 0 0
1e-08 0 0
1e-08 0 0
-0.00624116 -0.00477405 0
1e-08 0 0
-0.00610801 -0.000815204 0
1e-08 0 0
1e-08 0 0
-0.0048101 -0.00276411 0
-0.00646377 -0.0017312 0
-0.00638958 -0.0026607 0
