# vtk DataFile Version 2.0
CellBP Time: 6.52
ASCII
DATASET UNSTRUCTURED_GRID
POINTS 296 double
-8.93124 -3.66418 0
-8.36027 -4.80303 0
-9.33598 -2.45544 0
-9.58894 -1.21465 0
-8.25964 -2.77546 0
-7.6571 -5.86723 0
-6.81349 -6.82233 0
-7.81963 -3.81974 0
-7.2492 -4.80755 0
-5.86467 -7.66392 0
-4.82274 -8.3827 0
-9.67461 0.0465671 0
-9.60518 1.31624 0
-8.5666 -1.65871 0
-8.70208 -0.521591 0
-7.49434 -1.96976 0
-7.12799 -2.85877 0
-6.56222 -5.7198 0
-5.76507 -6.53853 0
-6.69654 -3.8312 0
-6.13925 -4.61747 0
-3.67966 -8.94214 0
-2.47039 -9.35179 0
-4.86675 -7.25196 0
-3.89134 -7.83124 0
-8.7156 0.634251 0
-9.36994 2.57334 0
-8.55399 1.7537 0
-8.94867 3.77558 0
-7.65541 -0.911092 0
-7.71167 0.0831784 0
-6.86729 -1.29229 0
-1.21581 -9.5977 0
-6.36367 -2.12071 0
-6.24034 -3.01168 0
-5.47152 -5.41706 0
-4.74621 -6.05905 0
-5.589 -3.70912 0
-5.20205 -4.50714 0
-2.84847 -8.30345 0
-1.76311 -8.57475 0
-3.89499 -6.66857 0
-3.03842 -7.09914 0
0.0523018 -9.67712 0
-7.62872 1.1311 0
-8.27966 2.89376 0
-7.48077 2.08678 0
-8.37676 4.9118 0
-7.81124 3.9417 0
-7.65845 5.96446 0
-6.70107 -0.38726 0
-6.87913 0.549853 0
-5.713 -0.991255 0
-0.584884 -8.73659 0
0.555275 -8.68722 0
-5.24849 -2.45008 0
-4.43693 -5.04074 0
-3.86052 -5.72061 0
-4.39338 -3.76533 0
-2.04682 -7.50314 0
-1.12688 -7.72038 0
-2.96697 -6.04894 0
-2.29312 -6.56683 0
1.31464 -9.58586 0
-6.62158 1.40548 0
-7.10013 3.08402 0
-6.5927 2.34688 0
-7.22257 4.93814 0
-6.64997 3.95856 0
-6.8138 6.91053 0
-6.50652 5.83164 0
-5.86369 7.75607 0
-4.42217 -1.17422 0
-5.76175 0.504766 0
-4.62464 -0.0171885 0
0.00148311 -7.77213 0
1.71148 -8.54955 0
0.928556 -7.67911 0
-4.01006 -2.3861 0
-3.47435 -1.38706 0
-3.26565 -4.76267 0
-3.24748 -3.24312 0
-1.37203 -6.61566 0
-0.512555 -6.95621 0
-1.9621 -5.49363 0
2.55836 -9.32414 0
-5.4572 2.0189 0
-6.03329 3.03747 0
-6.0422 4.8141 0
-5.70161 3.9432 0
-5.70205 6.64304 0
-5.39473 5.55366 0
-4.81745 8.47929 0
-4.78705 7.32022 0
-3.48648 -0.423333 0
-4.41577 1.2394 0
-3.68992 0.588642 0
-4.0297 2.30895 0
-3.68071 9.04431 0
2.81901 -8.2294 0
0.401998 -6.71899 0
1.98586 -7.43257 0
1.27673 -6.82072 0
-2.43874 -0.86931 0
-2.82909 -2.12075 0
-2.28285 -4.06801 0
-2.31609 -2.95563 0
-0.446037 -5.80467 0
-1.21322 -4.46796 0
3.76721 -8.92817 0
-4.74447 3.35903 0
-5.0347 4.53953 0
-4.5964 6.20561 0
-4.49025 5.2953 0
-3.8085 7.91445 0
-3.7826 6.76061 0
-2.75354 8.33476 0
-1.64643 -0.133794 0
-1.44681 -0.886679 0
-2.48381 0.510932 0
-3.23486 1.44056 0
-3.21403 3.29357 0
-2.89323 2.36631 0
-1.35471 0.631092 0
-2.47136 9.44255 0
3.87893 -7.78828 0
2.91387 -7.0572 0
0.933314 -5.75604 0
2.0363 -6.33096 0
-1.67697 -1.98556 0
-1.42668 -3.2586 0
0.0862233 -4.70601 0
-0.559915 -3.67286 0
4.8709 -7.22494 0
4.9045 -8.36351 0
-3.74102 4.50508 0
-3.69535 5.68565 0
-2.85322 7.20449 0
-2.97706 6.28112 0
-1.64466 8.6507 0
-1.91603 7.53927 0
-2.32271 4.02137 0
-0.728422 -1.32386 0
-0.836252 -0.254058 0
-1.93372 1.68377 0
-2.11662 2.86628 0
-1.30349 3.52816 0
-0.871726 1.35456 0
-0.28451 0.459159 0
-0.527452 8.7962 0
-1.21937 9.68632 0
1.09706 -4.52922 0
3.8484 -6.61492 0
2.94047 -6.00921 0
2.08496 -5.35747 0
4.72245 -6.11624 0
-0.554908 -2.4677 0
0.49329 -3.44219 0
0.0543046 -1.60763 0
1.46659 -3.64949 0
5.80289 -6.53206 0
5.96242 -7.65515 0
-2.45308 5.29575 0
-2.10482 6.46336 0
-0.891207 7.72983 0
-1.25317 6.85982 0
0.0886769 7.81355 0
-1.13807 4.46307 0
0.148962 -0.614821 0
-0.801518 2.48898 0
-0.337056 3.5882 0
0.0583954 1.51448 0
0.736881 0.474433 0
0.640537 8.8071 0
0.0471837 9.78246 0
2.35147 -4.236 0
3.80597 -5.55908 0
2.95927 -5.14313 0
5.51399 -5.4205 0
4.63289 -5.20539 0
0.630181 -2.28867 0
1.24777 -2.93302 0
0.755959 -1.38926 0
2.14535 -3.10958 0
2.96462 -3.44047 0
6.09785 -4.7357 0
6.59418 -5.70587 0
6.91957 -6.81172 0
-1.00765 5.76714 0
-0.362547 6.81809 0
1.11485 7.71078 0
0.557937 7.02005 0
-0.00346123 4.69549 0
0.599179 3.81009 0
1.33484 -0.641403 0
0.532107 2.64513 0
0.959199 1.57478 0
1.9034 0.212634 0
1.60722 1.06384 0
2.11655 7.52918 0
1.78748 8.65023 0
1.31885 9.70028 0
3.77966 -4.29545 0
5.06126 -4.38647 0
5.792 -3.88696 0
3.74977 -3.16723 0
1.80487 -1.87917 0
2.99657 -2.55522 0
6.72915 -3.90954 0
7.3234 -4.85246 0
7.76193 -5.86179 0
0.48222 5.83505 0
1.42022 6.69004 0
2.36028 6.62081 0
1.20051 4.52939 0
1.47878 3.38103 0
2.42487 -0.690415 0
2.81501 0.142703 0
1.77957 2.15725 0
2.60198 1.14688 0
3.05393 7.11906 0
2.88872 8.31918 0
2.57454 9.46065 0
4.86603 -3.28722 0
6.07021 -3.07433 0
4.14213 -2.25787 0
3.2252 -1.49667 0
6.68374 -2.29559 0
7.18134 -3.02085 0
7.91051 -3.88721 0
8.48298 -4.82094 0
2.012 5.56026 0
3.05816 6.10421 0
2.35242 4.10027 0
2.40898 3.04428 0
3.50569 -0.456986 0
3.59668 0.614161 0
2.94664 2.2764 0
3.52349 1.51807 0
3.96943 5.84652 0
3.95108 6.7403 0
3.95143 7.88435 0
3.78291 9.04705 0
5.5285 -1.90025 0
4.47984 -1.121 0
6.66301 -1.32467 0
7.53905 -2.02017 0
8.3401 -2.84277 0
9.05019 -3.68384 0
3.38412 4.83528 0
3.31184 3.35961 0
4.6595 0.132501 0
4.4815 1.29923 0
4.02788 2.42264 0
4.51344 5.1007 0
4.79357 6.13665 0
4.94042 7.32401 0
4.92295 8.48157 0
5.83501 -0.433322 0
6.95087 -0.487243 0
7.70209 -1.07326 0
8.62385 -1.73027 0
9.44886 -2.47004 0
4.4998 3.78873 0
5.7589 1.08213 0
5.30943 2.50419 0
5.30812 4.56781 0
5.54585 5.46844 0
5.83895 6.61421 0
5.97016 7.77073 0
6.77796 0.451004 0
7.78572 -0.0276931 0
8.79393 -0.574896 0
9.70324 -1.21628 0
6.88342 1.32546 0
5.64614 3.73198 0
6.46177 2.1634 0
6.29667 3.04444 0
6.20934 4.63131 0
6.61646 5.77947 0
6.91779 6.92458 0
7.7076 0.951907 0
8.78205 0.566516 0
9.782 0.0543042 0
7.5302 1.97412 0
6.73232 3.84867 0
7.17604 2.90291 0
7.29266 4.83159 0
7.76348 5.9697 0
8.63486 1.70447 0
9.68105 1.31636 0
8.32313 2.79978 0
7.89158 3.87035 0
8.47407 4.91283 0
9.43059 2.5629 0
9.0332 3.77086 0
CELLS 542 2168
3 2 0 4
3 0 1 7
3 4 0 7
3 1 5 8
3 7 1 8
3 3 2 13
3 13 2 4
3 11 3 14
3 14 3 13
3 13 4 15
3 4 7 16
3 15 4 16
3 5 6 17
3 8 5 17
3 6 9 18
3 17 6 18
3 7 8 19
3 16 7 19
3 8 17 20
3 19 8 20
3 9 10 23
3 18 9 23
3 10 21 24
3 23 10 24
3 12 11 25
3 25 11 14
3 26 12 27
3 27 12 25
3 14 13 29
3 29 13 15
3 25 14 30
3 30 14 29
3 29 15 31
3 15 16 33
3 31 15 33
3 16 19 34
3 33 16 34
3 17 18 35
3 20 17 35
3 18 23 36
3 35 18 36
3 19 20 37
3 34 19 37
3 20 35 38
3 37 20 38
3 21 22 39
3 24 21 39
3 22 32 40
3 39 22 40
3 23 24 41
3 36 23 41
3 24 39 42
3 41 24 42
3 27 25 44
3 44 25 30
3 28 26 45
3 45 26 27
3 45 27 46
3 46 27 44
3 47 28 48
3 48 28 45
3 30 29 50
3 50 29 31
3 44 30 51
3 51 30 50
3 50 31 52
3 31 33 52
3 32 43 53
3 40 32 53
3 53 43 54
3 33 34 55
3 34 37 55
3 33 55 52
3 35 36 56
3 38 35 56
3 36 41 57
3 56 36 57
3 37 38 58
3 38 56 58
3 37 58 55
3 39 40 59
3 42 39 59
3 40 53 60
3 59 40 60
3 41 42 61
3 57 41 61
3 42 59 62
3 61 42 62
3 43 63 54
3 46 44 64
3 64 44 51
3 48 45 65
3 65 45 46
3 65 46 66
3 66 46 64
3 49 47 67
3 67 47 48
3 67 48 68
3 68 48 65
3 69 49 70
3 70 49 67
3 52 55 72
3 64 51 73
3 51 50 73
3 50 52 73
3 73 52 74
3 74 52 72
3 53 54 75
3 60 53 75
3 54 63 76
3 54 76 77
3 75 54 77
3 55 58 78
3 72 55 78
3 72 78 79
3 56 57 80
3 57 61 80
3 56 80 58
3 58 80 81
3 78 58 81
3 59 60 82
3 62 59 82
3 60 75 83
3 82 60 83
3 61 62 84
3 62 82 84
3 61 84 80
3 63 85 76
3 66 64 86
3 64 73 86
3 68 65 87
3 87 65 66
3 87 66 86
3 70 67 88
3 88 67 68
3 88 68 89
3 89 68 87
3 71 69 90
3 90 69 70
3 90 70 91
3 91 70 88
3 92 71 93
3 93 71 90
3 74 72 94
3 94 72 79
3 86 73 95
3 95 73 74
3 95 74 96
3 96 74 94
3 97 86 95
3 76 85 99
3 75 77 100
3 83 75 100
3 76 99 101
3 77 76 101
3 77 101 102
3 100 77 102
3 94 79 103
3 78 81 104
3 79 78 104
3 79 104 103
3 80 84 105
3 81 80 105
3 81 105 106
3 104 81 106
3 82 83 107
3 83 100 107
3 82 107 84
3 84 107 108
3 105 84 108
3 85 109 99
3 89 87 110
3 87 86 110
3 110 86 97
3 91 88 111
3 111 88 89
3 111 89 110
3 93 90 112
3 112 90 91
3 112 91 113
3 113 91 111
3 98 92 114
3 114 92 93
3 114 93 115
3 115 93 112
3 116 98 114
3 117 103 118
3 96 94 119
3 94 103 119
3 119 103 117
3 97 95 120
3 120 95 96
3 120 96 119
3 121 110 97
3 121 97 122
3 122 97 120
3 123 119 117
3 124 98 116
3 99 109 125
3 99 125 126
3 101 99 126
3 100 102 127
3 100 127 107
3 101 126 128
3 102 101 128
3 102 128 127
3 104 106 129
3 104 129 103
3 103 129 118
3 105 108 130
3 106 105 130
3 106 130 129
3 107 127 131
3 108 107 131
3 108 131 132
3 108 132 130
3 109 134 125
3 125 134 133
3 113 111 135
3 111 110 135
3 135 110 121
3 115 112 136
3 136 112 113
3 136 113 135
3 116 114 137
3 137 114 115
3 137 115 138
3 138 115 136
3 139 124 116
3 139 116 140
3 140 116 137
3 141 135 121
3 118 129 142
3 118 142 143
3 117 118 143
3 123 117 143
3 122 120 144
3 120 119 144
3 144 119 123
3 141 121 145
3 145 121 122
3 145 122 144
3 146 141 145
3 147 144 123
3 147 123 148
3 143 148 123
3 150 124 139
3 149 150 139
3 131 127 151
3 125 133 152
3 126 125 152
3 126 152 153
3 128 126 153
3 128 153 154
3 128 154 127
3 127 154 151
3 152 133 155
3 130 132 156
3 130 156 129
3 129 156 142
3 131 151 157
3 132 131 157
3 132 157 156
3 156 158 142
3 157 151 159
3 133 160 155
3 134 161 133
3 133 161 160
3 138 136 162
3 136 135 162
3 162 135 141
3 140 137 163
3 163 137 138
3 163 138 162
3 149 139 164
3 164 139 140
3 164 140 165
3 165 140 163
3 166 149 164
3 167 162 141
3 167 141 146
3 142 158 168
3 143 142 168
3 143 168 148
3 146 145 169
3 145 144 169
3 169 144 147
3 170 167 146
3 170 146 169
3 171 169 147
3 171 147 148
3 171 148 172
3 168 172 148
3 173 149 166
3 174 150 149
3 173 174 149
3 154 175 151
3 151 175 159
3 152 155 176
3 153 152 176
3 153 176 177
3 153 177 154
3 154 177 175
3 155 160 178
3 155 178 179
3 176 155 179
3 156 157 180
3 156 180 158
3 157 159 181
3 157 181 180
3 158 180 182
3 158 182 168
3 159 175 183
3 159 183 181
3 175 184 183
3 160 186 178
3 178 186 185
3 161 187 160
3 160 187 186
3 165 163 188
3 163 162 188
3 188 162 167
3 166 164 189
3 189 164 165
3 189 165 188
3 190 173 166
3 190 166 191
3 191 166 189
3 192 188 167
3 192 167 170
3 193 192 170
3 182 194 168
3 194 172 168
3 193 170 195
3 170 169 195
3 195 169 171
3 196 195 171
3 196 171 172
3 194 197 172
3 197 198 172
3 198 196 172
3 200 173 190
3 199 200 190
3 201 174 173
3 200 201 173
3 176 179 202
3 177 176 202
3 177 202 175
3 175 202 184
3 178 185 203
3 178 203 179
3 179 203 202
3 203 185 204
3 202 205 184
3 183 206 181
3 180 181 206
3 180 206 182
3 182 206 194
3 183 184 207
3 205 207 184
3 183 207 206
3 185 208 204
3 186 209 185
3 185 209 208
3 187 210 186
3 186 210 209
3 191 189 211
3 189 188 211
3 211 188 192
3 199 190 212
3 212 190 191
3 212 191 211
3 213 199 212
3 214 211 192
3 214 192 193
3 215 214 193
3 215 193 195
3 206 216 194
3 216 197 194
3 216 217 197
3 215 195 218
3 218 195 196
3 198 218 196
3 217 219 197
3 219 218 198
3 197 219 198
3 220 199 213
3 221 200 199
3 220 221 199
3 222 201 200
3 221 222 200
3 203 204 223
3 203 223 202
3 202 223 205
3 204 208 224
3 204 224 223
3 205 223 225
3 205 225 207
3 207 225 226
3 207 226 206
3 226 216 206
3 208 228 224
3 224 228 227
3 209 229 208
3 229 228 208
3 210 230 209
3 209 230 229
3 213 212 231
3 212 211 231
3 231 211 214
3 232 220 213
3 232 213 231
3 233 231 214
3 233 214 215
3 234 233 215
3 234 215 218
3 226 235 216
3 235 217 216
3 235 236 217
3 217 236 219
3 237 234 218
3 237 218 219
3 236 238 219
3 238 237 219
3 240 220 232
3 239 240 232
3 241 221 220
3 240 241 220
3 242 222 221
3 241 242 221
3 224 227 243
3 224 243 223
3 223 243 225
3 225 243 244
3 225 244 226
3 226 244 235
3 227 245 243
3 228 246 227
3 227 246 245
3 229 247 228
3 228 247 246
3 230 248 229
3 229 248 247
3 239 232 249
3 232 231 249
3 249 231 233
3 250 249 233
3 250 233 234
3 237 250 234
3 244 251 235
3 235 251 236
3 251 252 236
3 236 252 238
3 252 253 238
3 253 250 237
3 253 237 238
3 254 239 249
3 255 240 239
3 254 255 239
3 256 241 240
3 255 256 240
3 257 242 241
3 256 257 241
3 245 258 243
3 243 258 244
3 244 258 251
3 245 259 258
3 246 260 245
3 245 260 259
3 247 261 246
3 246 261 260
3 248 262 247
3 247 262 261
3 254 249 263
3 263 249 250
3 253 263 250
3 258 264 251
3 251 264 252
3 264 265 252
3 265 263 253
3 252 265 253
3 266 254 263
3 267 255 254
3 266 267 254
3 268 256 255
3 267 268 255
3 269 257 256
3 268 269 256
3 259 270 258
3 270 264 258
3 260 271 259
3 259 271 270
3 261 272 260
3 260 272 271
3 262 273 261
3 273 272 261
3 270 274 264
3 275 266 263
3 275 263 265
3 274 276 264
3 276 265 264
3 276 277 265
3 277 275 265
3 278 267 266
3 275 278 266
3 279 268 267
3 278 279 267
3 280 269 268
3 279 280 268
3 271 281 270
3 270 281 274
3 272 282 271
3 271 282 281
3 273 283 272
3 272 283 282
3 281 284 274
3 274 284 276
3 285 278 275
3 277 285 275
3 284 286 276
3 286 285 277
3 276 286 277
3 287 279 278
3 285 287 278
3 288 280 279
3 287 288 279
3 282 289 281
3 281 289 284
3 283 290 282
3 282 290 289
3 289 291 284
3 284 291 286
3 291 292 286
3 292 287 285
3 286 292 285
3 293 288 287
3 292 293 287
3 290 294 289
3 289 294 291
3 294 295 291
3 295 293 292
3 291 295 292
CELL_TYPES 542
5
5
5
5
5
5
5
5
5
5
5
5
5
5
5
5
5
5
5
5
5
5
5
5
5
5
5
5
5
5
5
5
5
5
5
5
5
5
5
5
5
5
5
5
5
5
5
5
5
5
5
5
5
5
5
5
5
5
5
5
5
5
5
5
5
5
5
5
5
5
5
5
5
5
5
5
5
5
5
5
5
5
5
5
5
5
5
5
5
5
5
5
5
5
5
5
5
5
5
5
5
5
5
5
5
5
5
5
5
5
5
5
5
5
5
5
5
5
5
5
5
5
5
5
5
5
5
5
5
5
5
5
5
5
5
5
5
5
5
5
5
5
5
5
5
5
5
5
5
5
5
5
5
5
5
5
5
5
5
5
5
5
5
5
5
5
5
5
5
5
5
5
5
5
5
5
5
5
5
5
5
5
5
5
5
5
5
5
5
5
5
5
5
5
5
5
5
5
5
5
5
5
5
5
5
5
5
5
5
5
5
5
5
5
5
5
5
5
5
5
5
5
5
5
5
5
5
5
5
5
5
5
5
5
5
5
5
5
5
5
5
5
5
5
5
5
5
5
5
5
5
5
5
5
5
5
5
5
5
5
5
5
5
5
5
5
5
5
5
5
5
5
5
5
5
5
5
5
5
5
5
5
5
5
5
5
5
5
5
5
5
5
5
5
5
5
5
5
5
5
5
5
5
5
5
5
5
5
5
5
5
5
5
5
5
5
5
5
5
5
5
5
5
5
5
5
5
5
5
5
5
5
5
5
5
5
5
5
5
5
5
5
5
5
5
5
5
5
5
5
5
5
5
5
5
5
5
5
5
5
5
5
5
5
5
5
5
5
5
5
5
5
5
5
5
5
5
5
5
5
5
5
5
5
5
5
5
5
5
5
5
5
5
5
5
5
5
5
5
5
5
5
5
5
5
5
5
5
5
5
5
5
5
5
5
5
5
5
5
5
5
5
5
5
5
5
5
5
5
5
5
5
5
5
5
5
5
5
5
5
5
5
5
5
5
5
5
5
5
5
5
5
5
5
5
5
5
5
5
5
5
5
5
5
5
5
5
5
5
5
5
5
5
5
5
5
5
5
5
5
5
5
5
5
5
5
5
5
5
5
5
5
5
5
5
5
5
5
5
5
5
5
5
5
5
5
5
5
5
5
5
5
5
5
5
5
5
5
5
5
5
5
5
5
5
5
5
5
5
5
5
5
5
5
5
5
5
5
5
5
5
5
POINT_DATA 296
SCALARS concentrations float 4
LOOKUP_TABLE default
0 0.946273 0.100261 98.4966
0 0.946153 0.0982639 12.4976
0 0.946202 0.0977788 96.4076
0 0.946311 0.100282 76.1871
0 0.946166 0.0919584 10.7783
0 0.945935 0.0991207 30.2635
0 0.945912 0.100842 23.8339
0 0.946147 0.0917455 7.23637
0 0.945987 0.092243 3.47201
0 0.945938 0.104808 97.2069
0 0.94564 0.0994475 118.853
0 0.946482 0.104741 34.197
0 0.946241 0.100451 35.2589
0 0.946165 0.0917538 7.80228
0 0.946301 0.0918327 5.31646
0 0.946044 0.0913594 3.14486
0 0.94602 0.0912646 1.77822
0 0.945874 0.0926013 10.974
0 0.945882 0.0929878 14.5072
0 0.94595 0.0913526 2.20239
0 0.945863 0.091506 2.95476
0 0.945359 0.102144 37.6751
0 0.945753 0.104562 84.2345
0 0.945785 0.0930228 10.4955
0 0.945517 0.0923627 6.49335
0 0.946261 0.0919615 3.12325
0 0.946028 0.0986681 106.799
0 0.946063 0.0915411 5.89307
0 0.945757 0.098155 73.814
0 0.94608 0.0913805 2.79213
0 0.94608 0.0912724 1.97801
0 0.945938 0.0912486 2.04167
0 0.945916 0.103246 8.68677
0 0.945899 0.0911719 1.22578
0 0.945881 0.0911464 0.858827
0 0.945805 0.091793 4.83506
0 0.945759 0.0917671 5.43658
0 0.945818 0.091212 1.47594
0 0.945779 0.0913963 2.25101
0 0.94557 0.0922525 13.2996
0 0.945825 0.0928508 16.2539
0 0.945669 0.0916387 5.39095
0 0.94562 0.0915347 5.6358
0 0.946039 0.102726 2.14204
0 0.946017 0.091189 2.00932
0 0.945869 0.091711 4.98239
0 0.945888 0.091169 2.49603
0 0.945593 0.0966174 0.991378
0 0.945683 0.0916813 2.73787
0 0.9455 0.0989605 1.90468
0 0.945925 0.0911885 1.97223
0 0.945926 0.0911276 1.44208
0 0.945834 0.0910792 1.43915
0 0.945889 0.093068 16.4293
0 0.946097 0.0930059 11.8628
0 0.945797 0.0909913 0.872137
0 0.945733 0.0913866 2.53073
0 0.945695 0.0913764 3.29403
0 0.94574 0.0910907 0.650638
0 0.945678 0.0914196 4.52909
0 0.945767 0.0916068 5.08871
0 0.945664 0.0912187 2.77414
0 0.94566 0.0911509 2.42273
0 0.946365 0.105343 131.729
0 0.945858 0.0909998 0.575431
0 0.945774 0.0911047 1.63537
0 0.945807 0.0910248 1.22146
0 0.945589 0.0918225 1.76334
0 0.945688 0.0911482 0.749996
0 0.945448 0.100428 141.447
0 0.945529 0.0922906 0.747852
0 0.945604 0.102479 25.4987
0 0.945774 0.0910011 0.971406
0 0.945828 0.0910198 0.804768
0 0.945788 0.0910165 0.763318
0 0.945849 0.0916951 5.52112
0 0.946157 0.0926659 8.37072
0 0.945904 0.0916662 4.46777
0 0.945741 0.0909644 0.693072
0 0.945736 0.090983 0.810711
0 0.945692 0.0910984 0.935682
0 0.945705 0.0910096 0.273481
0 0.945689 0.0911196 1.60421
0 0.945735 0.0912971 2.49571
0 0.945673 0.0910147 0.188272
0 0.946161 0.101822 27.122
0 0.945792 0.0909731 0.277391
0 0.945757 0.091056 0.969276
0 0.945644 0.0913477 0.583682
0 0.94572 0.0911792 0.934998
0 0.94557 0.0928107 2.3551
0 0.945654 0.0916285 1.52233
0 0.945801 0.102725 91.657
0 0.945735 0.0928337 2.52899
0 0.945752 0.0909802 0.80037
0 0.945786 0.0909697 0.318359
0 0.945764 0.090969 0.593813
0 0.945776 0.0909708 0.154871
0 0.94558 0.0994679 26.0365
0 0.945856 0.0924272 7.00887
0 0.945751 0.0913078 2.12982
0 0.945837 0.0915037 3.11092
0 0.945758 0.0912875 1.72969
0 0.945727 0.0909618 0.670872
0 0.945714 0.0909776 0.558545
0 0.945682 0.0910366 0.627757
0 0.945694 0.0909997 0.437899
0 0.945689 0.0911015 1.35241
0 0.945677 0.0910517 0.815551
0 0.945708 0.100011 23.4189
0 0.945765 0.0910393 0.500471
0 0.945727 0.0912657 1.08563
0 0.945715 0.0915724 1.64468
0 0.94574 0.0913185 1.43871
0 0.945735 0.0926419 1.34353
0 0.945752 0.0914638 1.18888
0 0.945501 0.0926869 3.25948
0 0.945736 0.0909538 0.489683
0 0.945721 0.0909612 0.480136
0 0.94575 0.0909526 0.647453
0 0.945767 0.0909461 0.341492
0 0.945777 0.0909824 0.175279
0 0.945773 0.0909552 0.23819
0 0.945751 0.0909484 0.441132
0 0.945294 0.101798 14.5109
0 0.945637 0.0920025 6.83187
0 0.945703 0.0913463 3.25958
0 0.945695 0.0911025 0.824151
0 0.945707 0.0911639 1.34683
0 0.945706 0.0909694 0.371345
0 0.945687 0.0910064 0.524379
0 0.945682 0.0910471 0.90166
0 0.945685 0.0910407 0.779927
0 0.945719 0.0919183 12.119
0 0.945652 0.10343 200.741
0 0.945771 0.0910559 0.536905
0 0.945768 0.091159 1.13325
0 0.945699 0.0915464 1.69735
0 0.945763 0.0911325 1.08065
0 0.945438 0.0927958 4.56249
0 0.945624 0.0915591 2.31167
0 0.945782 0.0910146 0.22259
0 0.945719 0.0909758 0.33805
0 0.945737 0.0909638 0.413413
0 0.945765 0.090941 0.447673
0 0.945778 0.0909685 0.299531
0 0.945781 0.0909751 0.565624
0 0.945763 0.0909418 0.282653
0 0.945754 0.0909562 0.328111
0 0.945642 0.092843 3.64025
0 0.945442 0.103693 44.0176
0 0.945687 0.0910275 0.592234
0 0.945654 0.091298 3.02121
0 0.945668 0.0910946 1.63621
0 0.945681 0.0910134 0.30354
0 0.945665 0.0913125 1.9334
0 0.945702 0.0909929 0.364418
0 0.945696 0.0910283 0.668218
0 0.945723 0.0909898 0.305042
0 0.945702 0.0910055 0.457618
0 0.945715 0.091903 7.43254
0 0.945833 0.10305 95.3358
0 0.945776 0.0910242 0.317028
0 0.945739 0.0911787 1.63365
0 0.945642 0.0915247 3.42158
0 0.945712 0.0912781 2.34463
0 0.945712 0.0914344 2.65105
0 0.945777 0.0909829 0.691796
0 0.945744 0.0909752 0.391661
0 0.945772 0.0909435 0.467226
0 0.945774 0.0909646 0.833119
0 0.945766 0.090943 0.15927
0 0.945761 0.0909612 0.102097
0 0.945807 0.0921127 7.89478
0 0.945775 0.100565 37.096
0 0.945696 0.0909948 0.599972
0 0.945664 0.0911067 0.841349
0 0.945677 0.0910256 0.781525
0 0.945639 0.0914713 1.3711
0 0.945669 0.0912194 0.832096
0 0.94572 0.0910037 0.360083
0 0.945721 0.0910042 0.479097
0 0.945741 0.0909897 0.310175
0 0.945726 0.091006 0.510609
0 0.94572 0.0910126 0.611248
0 0.945578 0.0915936 0.753384
0 0.945503 0.0919995 3.41491
0 0.945599 0.0988069 39.8982
0 0.945757 0.0910582 1.08312
0 0.945724 0.0911869 1.75517
0 0.945751 0.0912136 0.990044
0 0.945728 0.0911368 1.12912
0 0.94576 0.0909669 0.840037
0 0.945761 0.0909723 0.829102
0 0.945757 0.0909746 0.089192
0 0.945767 0.0909564 0.482826
0 0.945767 0.0909561 0.248619
0 0.945769 0.0909759 0.187677
0 0.945768 0.0909688 0.221881
0 0.94571 0.0912334 0.365645
0 0.945825 0.0918187 5.45545
0 0.945891 0.0987437 3.96598
0 0.945697 0.0910395 0.694395
0 0.945676 0.0912674 1.16247
0 0.945661 0.0913207 0.840874
0 0.945734 0.0910312 0.762668
0 0.945748 0.0910129 0.544768
0 0.945749 0.0910371 0.804015
0 0.945548 0.0915522 1.43679
0 0.945388 0.0925495 2.86575
0 0.945334 0.0961596 75.7789
0 0.945734 0.0909924 0.899558
0 0.945712 0.0910117 0.410117
0 0.945662 0.0910296 0.351487
0 0.945733 0.0909947 0.888194
0 0.945748 0.0909805 0.669819
0 0.945768 0.0910074 0.236589
0 0.945776 0.091019 0.201382
0 0.94576 0.0909727 0.42088
0 0.945767 0.090982 0.410428
0 0.945602 0.091211 1.68623
0 0.945728 0.0920759 5.38419
0 0.94586 0.0970124 15.3472
0 0.94572 0.0910797 1.028
0 0.945674 0.0911583 0.421116
0 0.945754 0.0910611 1.11242
0 0.945766 0.091059 0.894892
0 0.945658 0.0911323 1.78957
0 0.945531 0.091494 2.27429
0 0.945369 0.0927094 3.29961
0 0.945259 0.101542 44.3593
0 0.945691 0.0910089 0.702005
0 0.945605 0.0910387 1.16632
0 0.945706 0.0910245 0.880483
0 0.945736 0.0910013 0.668524
0 0.945776 0.091064 0.617731
0 0.945772 0.0910639 0.366275
0 0.945745 0.0910007 0.505358
0 0.945756 0.0910218 0.279339
0 0.94554 0.0911754 2.21162
0 0.945485 0.0912784 3.92497
0 0.945536 0.0919178 8.16422
0 0.945679 0.0985317 1.59842
0 0.945733 0.0910537 1.01886
0 0.945766 0.0910991 1.14849
0 0.945675 0.0911813 2.68351
0 0.945511 0.0916579 4.50609
0 0.945305 0.0923977 9.20669
0 0.945233 0.100649 81.7237
0 0.945645 0.0910634 0.847388
0 0.945698 0.0910113 0.621736
0 0.945767 0.0911219 1.10023
0 0.945751 0.091065 0.674873
0 0.94572 0.0909914 0.327489
0 0.945546 0.0912134 2.065
0 0.945406 0.0914521 4.56329
0 0.945356 0.0919792 12.7223
0 0.945419 0.0996501 87.5998
0 0.945744 0.0911652 2.04999
0 0.94568 0.091364 4.48366
0 0.945548 0.0914956 4.74192
0 0.945297 0.0925985 7.7606
0 0.945119 0.100445 7.20624
0 0.945657 0.0910299 1.00907
0 0.94575 0.0911545 1.96941
0 0.945717 0.0910044 0.276493
0 0.945555 0.0912578 2.64042
0 0.945413 0.0915123 3.67203
0 0.945281 0.0924813 11.6556
0 0.945254 0.0988863 63.286
0 0.945722 0.0913669 4.32509
0 0.945623 0.0916511 6.25645
0 0.945457 0.0928783 7.89856
0 0.945257 0.105303 4.44689
0 0.945752 0.0913227 3.79842
0 0.945639 0.0911069 1.73246
0 0.945751 0.0911741 1.8828
0 0.945704 0.0911135 1.05124
0 0.945497 0.0915653 4.69722
0 0.945329 0.0922037 4.41345
0 0.94522 0.100474 60.6023
0 0.945723 0.0914716 6.03774
0 0.945623 0.0918603 8.62193
0 0.945493 0.100158 85.5375
0 0.945802 0.0915384 4.79161
0 0.945641 0.0913817 3.0817
0 0.945773 0.0914494 3.57739
0 0.945477 0.0925403 11.0908
0 0.945334 0.101437 104.896
0 0.945837 0.0924535 13.6439
0 0.945726 0.0979724 26.4465
0 0.945965 0.092955 15.1557
0 0.945763 0.092715 12.9203
0 0.945589 0.106678 143.715
0 0.946034 0.107208 100.058
0 0.946 0.101814 3.89664
VECTORS fa_u float
0.00723716 0.00300791 -0
0.00480713 0.00278023 -0
0.00563897 0.00151405 -0
0.0069316 0.000938153 -0
1e-08 0 0
0.00604212 0.00462824 -0
0.00411312 0.00410335 -0
1e-08 0 0
1e-08 0 0
0.00359427 0.00458566 -0
0.00438032 0.00748782 -0
0.00589525 3.78323e-05 -0
0.00659116 -0.000794739 0
1e-08 0 0
1e-08 0 0
1e-08 0 0
1e-08 0 0
1e-08 0 0
1e-08 0 0
1e-08 0 0
1e-08 0 0
0.00245939 0.00596988 -0
0.00177518 0.0066718 -0
1e-08 0 0
1e-08 0 0
1e-08 0 0
0.00870722 -0.00232432 0
1e-08 0 0
0.00602268 -0.00255794 0
1e-08 0 0
1e-08 0 0
1e-08 0 0
0.000858166 0.00665437 -0
1e-08 0 0
1e-08 0 0
1e-08 0 0
1e-08 0 0
1e-08 0 0
1e-08 0 0
1e-08 0 0
1e-08 0 0
1e-08 0 0
1e-08 0 0
-3.335e-05 0.00712845 -0
1e-08 0 0
1e-08 0 0
1e-08 0 0
0.00591515 -0.00348666 0
1e-08 0 0
0.00521934 -0.00408139 0
1e-08 0 0
1e-08 0 0
1e-08 0 0
1e-08 0 0
1e-08 0 0
1e-08 0 0
1e-08 0 0
1e-08 0 0
1e-08 0 0
1e-08 0 0
1e-08 0 0
1e-08 0 0
1e-08 0 0
-0.00100186 0.0071129 0
1e-08 0 0
1e-08 0 0
1e-08 0 0
1e-08 0 0
1e-08 0 0
0.00365207 -0.00365848 0
1e-08 0 0
0.00362748 -0.00461622 0
1e-08 0 0
1e-08 0 0
1e-08 0 0
1e-08 0 0
1e-08 0 0
1e-08 0 0
1e-08 0 0
1e-08 0 0
1e-08 0 0
1e-08 0 0
1e-08 0 0
1e-08 0 0
1e-08 0 0
-0.00121012 0.0045126 0
1e-08 0 0
1e-08 0 0
1e-08 0 0
1e-08 0 0
1e-08 0 0
1e-08 0 0
0.00410285 -0.00695242 0
1e-08 0 0
1e-08 0 0
1e-08 0 0
1e-08 0 0
1e-08 0 0
0.00304923 -0.00742663 0
1e-08 0 0
1e-08 0 0
1e-08 0 0
1e-08 0 0
1e-08 0 0
1e-08 0 0
1e-08 0 0
1e-08 0 0
1e-08 0 0
1e-08 0 0
-0.00309059 0.00754811 0
1e-08 0 0
1e-08 0 0
1e-08 0 0
1e-08 0 0
1e-08 0 0
1e-08 0 0
1e-08 0 0
1e-08 0 0
1e-08 0 0
1e-08 0 0
1e-08 0 0
1e-08 0 0
1e-08 0 0
1e-08 0 0
0.00156239 -0.00598997 0
1e-08 0 0
1e-08 0 0
1e-08 0 0
1e-08 0 0
1e-08 0 0
1e-08 0 0
1e-08 0 0
1e-08 0 0
1e-08 0 0
-0.00328022 0.00565643 0
1e-08 0 0
1e-08 0 0
1e-08 0 0
1e-08 0 0
1e-08 0 0
1e-08 0 0
1e-08 0 0
1e-08 0 0
1e-08 0 0
1e-08 0 0
1e-08 0 0
1e-08 0 0
1e-08 0 0
1e-08 0 0
1e-08 0 0
0.000711433 -0.00527131 0
1e-08 0 0
1e-08 0 0
1e-08 0 0
1e-08 0 0
1e-08 0 0
1e-08 0 0
1e-08 0 0
1e-08 0 0
1e-08 0 0
1e-08 0 0
-0.004175 0.00542144 0
1e-08 0 0
1e-08 0 0
1e-08 0 0
1e-08 0 0
1e-08 0 0
1e-08 0 0
1e-08 0 0
1e-08 0 0
1e-08 0 0
1e-08 0 0
1e-08 0 0
1e-08 0 0
4.23762e-05 -0.00770475 0
1e-08 0 0
1e-08 0 0
1e-08 0 0
1e-08 0 0
1e-08 0 0
1e-08 0 0
1e-08 0 0
1e-08 0 0
1e-08 0 0
1e-08 0 0
1e-08 0 0
1e-08 0 0
-0.00418371 0.00419808 0
1e-08 0 0
1e-08 0 0
1e-08 0 0
1e-08 0 0
1e-08 0 0
1e-08 0 0
1e-08 0 0
1e-08 0 0
1e-08 0 0
1e-08 0 0
1e-08 0 0
1e-08 0 0
1e-08 0 0
-0.000758661 -0.00595823 0
1e-08 0 0
1e-08 0 0
1e-08 0 0
1e-08 0 0
1e-08 0 0
1e-08 0 0
1e-08 0 0
1e-08 0 0
-0.00442448 0.00347464 0
1e-08 0 0
1e-08 0 0
1e-08 0 0
1e-08 0 0
1e-08 0 0
1e-08 0 0
1e-08 0 0
1e-08 0 0
1e-08 0 0
1e-08 0 0
1e-08 0 0
-0.00199159 -0.00751253 0
1e-08 0 0
1e-08 0 0
1e-08 0 0
1e-08 0 0
1e-08 0 0
1e-08 0 0
1e-08 0 0
-0.00692059 0.00409353 0
1e-08 0 0
1e-08 0 0
1e-08 0 0
1e-08 0 0
1e-08 0 0
1e-08 0 0
1e-08 0 0
1e-08 0 0
1e-08 0 0
1e-08 0 0
1e-08 0 0
-0.00256747 -0.00615831 0
1e-08 0 0
1e-08 0 0
1e-08 0 0
1e-08 0 0
1e-08 0 0
-0.00763597 0.00313729 0
1e-08 0 0
1e-08 0 0
1e-08 0 0
1e-08 0 0
1e-08 0 0
1e-08 0 0
1e-08 0 0
1e-08 0 0
-0.00365314 -0.0062605 0
1e-08 0 0
1e-08 0 0
1e-08 0 0
1e-08 0 0
-0.00517583 0.0013698 0
1e-08 0 0
1e-08 0 0
1e-08 0 0
1e-08 0 0
1e-08 0 0
1e-08 0 0
-0.00424606 -0.0054401 0
1e-08 0 0
1e-08 0 0
1e-08 0 0
-0.00739633 0.000976106 0
1e-08 0 0
1e-08 0 0
1e-08 0 0
1e-08 0 0
1e-08 0 0
1e-08 0 0
-0.00380447 -0.00378817 0
1e-08 0 0
1e-08 0 0
-0.00787751 -6.90077e-05 0
1e-08 0 0
1e-08 0 0
1e-08 0 0
1e-08 0 0
-0.00546022 -0.00422399 0
1e-08 0 0
-0.00546139 -0.000765043 0
1e-08 0 0
1e-08 0 0
-0.00632645 -0.00365321 0
-0.00541696 -0.00142979 0
-0.00685669 -0.00279097 0
