# vtk DataFile Version 2.0
CellBP Time: 3.88
ASCII
DATASET UNSTRUCTURED_GRID
POINTS 296 double
-8.95687 -3.67587 0
-8.38956 -4.82078 0
-9.36297 -2.46397 0
-9.61808 -1.2194 0
-8.26655 -2.7787 0
-7.68424 -5.88796 0
-6.83812 -6.84597 0
-7.82653 -3.82424 0
-7.25614 -4.81235 0
-5.88648 -7.69125 0
-4.83634 -8.40588 0
-9.71002 0.0463865 0
-9.63657 1.32042 0
-8.57346 -1.66037 0
-8.70906 -0.521847 0
-7.50159 -1.97223 0
-7.13515 -2.86243 0
-6.5677 -5.72447 0
-5.76924 -6.54362 0
-6.70326 -3.8358 0
-6.14515 -4.62224 0
-3.69146 -8.97025 0
-2.47962 -9.38519 0
-4.8701 -7.25701 0
-3.8933 -7.83608 0
-8.72236 0.635002 0
-9.39638 2.58027 0
-8.56007 1.75529 0
-8.98164 3.78923 0
-7.66258 -0.912188 0
-7.71868 0.0832098 0
-6.87405 -1.29388 0
-1.22038 -9.62742 0
-6.36953 -2.12309 0
-6.24599 -3.0151 0
-5.47626 -5.42193 0
-4.74995 -6.06398 0
-5.59403 -3.71297 0
-5.20693 -4.5117 0
-2.85004 -8.30894 0
-1.76498 -8.58024 0
-3.89769 -6.67349 0
-3.04009 -7.10405 0
0.0520075 -9.70879 0
-7.63551 1.13227 0
-8.28494 2.89558 0
-7.48726 2.08899 0
-8.39994 4.92541 0
-7.81722 3.94482 0
-7.68612 5.98571 0
-6.70754 -0.387726 0
-6.88589 0.550358 0
-5.7177 -0.991985 0
-0.585291 -8.74231 0
0.556066 -8.69411 0
-5.25241 -2.45234 0
-4.44098 -5.0455 0
-3.86373 -5.72547 0
-4.39668 -3.76859 0
-2.04832 -7.5083 0
-1.12777 -7.72599 0
-2.96921 -6.05378 0
-2.29459 -6.57169 0
1.31845 -9.61271 0
-6.62777 1.40709 0
-7.10666 3.08698 0
-6.59893 2.34926 0
-7.22881 4.94237 0
-6.65603 3.96228 0
-6.84053 6.93725 0
-6.51214 5.83656 0
-5.88185 7.77931 0
-4.42463 -1.17457 0
-5.76647 0.505772 0
-4.62747 -0.0163914 0
0.00206296 -7.77854 0
1.71381 -8.55735 0
0.930284 -7.68628 0
-4.0121 -2.38765 0
-3.47517 -1.38723 0
-3.26785 -4.76643 0
-3.24885 -3.24519 0
-1.37268 -6.62102 0
-0.512287 -6.96223 0
-1.96327 -5.49762 0
2.56841 -9.36007 0
-5.4619 2.02061 0
-6.03897 3.04046 0
-6.04774 4.81858 0
-5.70706 3.94718 0
-5.70691 6.64874 0
-5.39967 5.55884 0
-4.83216 8.50443 0
-4.79115 7.32681 0
-3.48775 -0.423237 0
-4.41889 1.2404 0
-3.69188 0.589103 0
-4.03279 2.31 0
-3.69287 9.07497 0
2.82282 -8.23814 0
0.403489 -6.72568 0
1.98896 -7.44056 0
1.27923 -6.82811 0
-2.43914 -0.869597 0
-2.82975 -2.12156 0
-2.28378 -4.07065 0
-2.3168 -2.95721 0
-0.445742 -5.80974 0
-1.214 -4.47089 0
3.77967 -8.95771 0
-4.74863 3.36178 0
-5.03945 4.54394 0
-4.60067 6.21156 0
-4.49448 5.30041 0
-3.81142 7.9205 0
-3.78625 6.76723 0
-2.75585 8.34138 0
-1.64661 -0.134112 0
-1.44702 -0.887027 0
-2.48426 0.510746 0
-3.23664 1.441 0
-3.21634 3.29548 0
-2.89498 2.36688 0
-1.35475 0.630775 0
-2.47881 9.47299 0
3.8837 -7.79692 0
2.91824 -7.06589 0
0.935103 -5.76188 0
2.03957 -6.33835 0
-1.67734 -1.98615 0
-1.42725 -3.26039 0
0.0865932 -4.70977 0
-0.56039 -3.67497 0
4.87583 -7.23321 0
4.92634 -8.40099 0
-3.74419 4.50881 0
-3.6987 5.69088 0
-2.85604 7.21114 0
-2.97975 6.28679 0
-1.64584 8.65713 0
-1.91789 7.54556 0
-2.32409 4.02378 0
-0.72851 -1.32425 0
-0.836263 -0.254422 0
-1.93402 1.68361 0
-2.11752 2.8671 0
-1.3038 3.52953 0
-0.871584 1.35424 0
-0.284331 0.458806 0
-0.527798 8.8022 0
-1.22277 9.71336 0
1.09846 -4.53333 0
3.85367 -6.62377 0
2.94456 -6.01666 0
2.08781 -5.36341 0
4.7277 -6.12387 0
-0.555129 -2.46866 0
0.493521 -3.44433 0
0.0543541 -1.60807 0
1.46799 -3.65253 0
5.80824 -6.53887 0
5.98054 -7.67917 0
-2.45497 5.29991 0
-2.10689 6.46902 0
-0.892098 7.73573 0
-1.25466 6.86567 0
0.0886407 7.81908 0
-1.13861 4.46567 0
0.149131 -0.615236 0
-0.801245 2.489 0
-0.336623 3.58934 0
0.058755 1.51431 0
0.737282 0.474236 0
0.641371 8.81275 0
0.0476784 9.80981 0
2.35408 -4.24039 0
3.81055 -5.56611 0
2.96294 -5.14921 0
5.51912 -5.42653 0
4.63791 -5.21205 0
0.630257 -2.28936 0
1.2486 -2.93485 0
0.756185 -1.3897 0
2.14708 -3.11206 0
2.9672 -3.44374 0
6.10286 -4.7405 0
6.59949 -5.71115 0
6.94199 -6.83503 0
-1.0086 5.77148 0
-0.363272 6.82352 0
1.11561 7.71574 0
0.558063 7.0251 0
-0.00320264 4.69803 0
0.599849 3.81167 0
1.33526 -0.641654 0
0.532668 2.64566 0
0.959754 1.57476 0
1.90402 0.212582 0
1.60786 1.06386 0
2.11775 7.53384 0
1.78818 8.65537 0
1.3239 9.73457 0
3.78342 -4.30036 0
5.06608 -4.39186 0
5.79669 -3.89118 0
3.75278 -3.17028 0
1.80561 -1.87974 0
2.99859 -2.55703 0
6.73387 -3.91296 0
7.32862 -4.85625 0
7.78797 -5.8823 0
0.482403 5.83902 0
1.42102 6.69456 0
2.36162 6.62511 0
1.20136 4.53175 0
1.4796 3.38248 0
2.42587 -0.690749 0
2.81617 0.142554 0
1.78035 2.15771 0
2.60284 1.14707 0
3.05565 7.12354 0
2.89027 8.32373 0
2.58098 9.4846 0
4.86998 -3.29083 0
6.07458 -3.07742 0
4.14484 -2.25954 0
3.22692 -1.4974 0
6.68778 -2.29725 0
7.18567 -3.02293 0
7.91526 -3.88972 0
8.51231 -4.83753 0
2.0131 5.56374 0
3.06065 6.1086 0
2.35345 4.10257 0
2.40995 3.04569 0
3.50745 -0.457459 0
3.59832 0.614004 0
2.94794 2.27735 0
3.52535 1.51861 0
3.97305 5.85109 0
3.95405 6.74507 0
3.95371 7.88921 0
3.79421 9.07451 0
5.532 -1.90177 0
4.4824 -1.12187 0
6.66725 -1.32577 0
7.54341 -2.02172 0
8.34477 -2.8446 0
9.08238 -3.69621 0
3.38709 4.8389 0
3.31414 3.36179 0
4.66222 0.132214 0
4.48466 1.30006 0
4.03099 2.42437 0
4.51821 5.10521 0
4.79777 6.1415 0
4.94407 7.32935 0
4.94003 8.51086 0
5.83911 -0.433558 0
6.9558 -0.487405 0
7.70672 -1.07436 0
8.62863 -1.73169 0
9.47947 -2.47756 0
4.50418 3.792 0
5.76385 1.08346 0
5.31459 2.50672 0
5.3141 4.57231 0
5.55131 5.47321 0
5.84354 6.6195 0
5.99383 7.80044 0
6.78364 0.452038 0
7.79115 -0.0275064 0
8.79907 -0.575693 0
9.73193 -1.22004 0
6.8899 1.32749 0
5.65242 3.73585 0
6.46851 2.16625 0
6.30372 3.04806 0
6.21623 4.63595 0
6.62266 5.78424 0
6.94151 6.94746 0
7.71392 0.953331 0
8.78809 0.567135 0
9.80579 0.0542767 0
7.5374 1.97678 0
6.74047 3.85326 0
7.18398 2.90658 0
7.29967 4.83598 0
7.79132 5.99099 0
8.64201 1.70674 0
9.71811 1.32181 0
8.33153 2.80311 0
7.89925 3.87399 0
8.50066 4.92844 0
9.46308 2.57184 0
9.05992 3.78218 0
CELLS 542 2168
3 2 0 4
3 0 1 7
3 4 0 7
3 1 5 8
3 7 1 8
3 3 2 13
3 13 2 4
3 11 3 14
3 14 3 13
3 13 4 15
3 4 7 16
3 15 4 16
3 5 6 17
3 8 5 17
3 6 9 18
3 17 6 18
3 7 8 19
3 16 7 19
3 8 17 20
3 19 8 20
3 9 10 23
3 18 9 23
3 10 21 24
3 23 10 24
3 12 11 25
3 25 11 14
3 26 12 27
3 27 12 25
3 14 13 29
3 29 13 15
3 25 14 30
3 30 14 29
3 29 15 31
3 15 16 33
3 31 15 33
3 16 19 34
3 33 16 34
3 17 18 35
3 20 17 35
3 18 23 36
3 35 18 36
3 19 20 37
3 34 19 37
3 20 35 38
3 37 20 38
3 21 22 39
3 24 21 39
3 22 32 40
3 39 22 40
3 23 24 41
3 36 23 41
3 24 39 42
3 41 24 42
3 27 25 44
3 44 25 30
3 28 26 45
3 45 26 27
3 45 27 46
3 46 27 44
3 47 28 48
3 48 28 45
3 30 29 50
3 50 29 31
3 44 30 51
3 51 30 50
3 50 31 52
3 31 33 52
3 32 43 53
3 40 32 53
3 53 43 54
3 33 34 55
3 34 37 55
3 33 55 52
3 35 36 56
3 38 35 56
3 36 41 57
3 56 36 57
3 37 38 58
3 38 56 58
3 37 58 55
3 39 40 59
3 42 39 59
3 40 53 60
3 59 40 60
3 41 42 61
3 57 41 61
3 42 59 62
3 61 42 62
3 43 63 54
3 46 44 64
3 64 44 51
3 48 45 65
3 65 45 46
3 65 46 66
3 66 46 64
3 49 47 67
3 67 47 48
3 67 48 68
3 68 48 65
3 69 49 70
3 70 49 67
3 52 55 72
3 64 51 73
3 51 50 73
3 50 52 73
3 73 52 74
3 74 52 72
3 53 54 75
3 60 53 75
3 54 63 76
3 54 76 77
3 75 54 77
3 55 58 78
3 72 55 78
3 72 78 79
3 56 57 80
3 57 61 80
3 56 80 58
3 58 80 81
3 78 58 81
3 59 60 82
3 62 59 82
3 60 75 83
3 82 60 83
3 61 62 84
3 62 82 84
3 61 84 80
3 63 85 76
3 66 64 86
3 64 73 86
3 68 65 87
3 87 65 66
3 87 66 86
3 70 67 88
3 88 67 68
3 88 68 89
3 89 68 87
3 71 69 90
3 90 69 70
3 90 70 91
3 91 70 88
3 92 71 93
3 93 71 90
3 74 72 94
3 94 72 79
3 86 73 95
3 95 73 74
3 95 74 96
3 96 74 94
3 97 86 95
3 76 85 99
3 75 77 100
3 83 75 100
3 76 99 101
3 77 76 101
3 77 101 102
3 100 77 102
3 94 79 103
3 78 81 104
3 79 78 104
3 79 104 103
3 80 84 105
3 81 80 105
3 81 105 106
3 104 81 106
3 82 83 107
3 83 100 107
3 82 107 84
3 84 107 108
3 105 84 108
3 85 109 99
3 89 87 110
3 87 86 110
3 110 86 97
3 91 88 111
3 111 88 89
3 111 89 110
3 93 90 112
3 112 90 91
3 112 91 113
3 113 91 111
3 98 92 114
3 114 92 93
3 114 93 115
3 115 93 112
3 116 98 114
3 117 103 118
3 96 94 119
3 94 103 119
3 119 103 117
3 97 95 120
3 120 95 96
3 120 96 119
3 121 110 97
3 121 97 122
3 122 97 120
3 123 119 117
3 124 98 116
3 99 109 125
3 99 125 126
3 101 99 126
3 100 102 127
3 100 127 107
3 101 126 128
3 102 101 128
3 102 128 127
3 104 106 129
3 104 129 103
3 103 129 118
3 105 108 130
3 106 105 130
3 106 130 129
3 107 127 131
3 108 107 131
3 108 131 132
3 108 132 130
3 109 134 125
3 125 134 133
3 113 111 135
3 111 110 135
3 135 110 121
3 115 112 136
3 136 112 113
3 136 113 135
3 116 114 137
3 137 114 115
3 137 115 138
3 138 115 136
3 139 124 116
3 139 116 140
3 140 116 137
3 141 135 121
3 118 129 142
3 118 142 143
3 117 118 143
3 123 117 143
3 122 120 144
3 120 119 144
3 144 119 123
3 141 121 145
3 145 121 122
3 145 122 144
3 146 141 145
3 147 144 123
3 147 123 148
3 143 148 123
3 150 124 139
3 149 150 139
3 131 127 151
3 125 133 152
3 126 125 152
3 126 152 153
3 128 126 153
3 128 153 154
3 128 154 127
3 127 154 151
3 152 133 155
3 130 132 156
3 130 156 129
3 129 156 142
3 131 151 157
3 132 131 157
3 132 157 156
3 156 158 142
3 157 151 159
3 133 160 155
3 134 161 133
3 133 161 160
3 138 136 162
3 136 135 162
3 162 135 141
3 140 137 163
3 163 137 138
3 163 138 162
3 149 139 164
3 164 139 140
3 164 140 165
3 165 140 163
3 166 149 164
3 167 162 141
3 167 141 146
3 142 158 168
3 143 142 168
3 143 168 148
3 146 145 169
3 145 144 169
3 169 144 147
3 170 167 146
3 170 146 169
3 171 169 147
3 171 147 148
3 171 148 172
3 168 172 148
3 173 149 166
3 174 150 149
3 173 174 149
3 154 175 151
3 151 175 159
3 152 155 176
3 153 152 176
3 153 176 177
3 153 177 154
3 154 177 175
3 155 160 178
3 155 178 179
3 176 155 179
3 156 157 180
3 156 180 158
3 157 159 181
3 157 181 180
3 158 180 182
3 158 182 168
3 159 175 183
3 159 183 181
3 175 184 183
3 160 186 178
3 178 186 185
3 161 187 160
3 160 187 186
3 165 163 188
3 163 162 188
3 188 162 167
3 166 164 189
3 189 164 165
3 189 165 188
3 190 173 166
3 190 166 191
3 191 166 189
3 192 188 167
3 192 167 170
3 193 192 170
3 182 194 168
3 194 172 168
3 193 170 195
3 170 169 195
3 195 169 171
3 196 195 171
3 196 171 172
3 194 197 172
3 197 198 172
3 198 196 172
3 200 173 190
3 199 200 190
3 201 174 173
3 200 201 173
3 176 179 202
3 177 176 202
3 177 202 175
3 175 202 184
3 178 185 203
3 178 203 179
3 179 203 202
3 203 185 204
3 202 205 184
3 183 206 181
3 180 181 206
3 180 206 182
3 182 206 194
3 183 184 207
3 205 207 184
3 183 207 206
3 185 208 204
3 186 209 185
3 185 209 208
3 187 210 186
3 186 210 209
3 191 189 211
3 189 188 211
3 211 188 192
3 199 190 212
3 212 190 191
3 212 191 211
3 213 199 212
3 214 211 192
3 214 192 193
3 215 214 193
3 215 193 195
3 206 216 194
3 216 197 194
3 216 217 197
3 215 195 218
3 218 195 196
3 198 218 196
3 217 219 197
3 219 218 198
3 197 219 198
3 220 199 213
3 221 200 199
3 220 221 199
3 222 201 200
3 221 222 200
3 203 204 223
3 203 223 202
3 202 223 205
3 204 208 224
3 204 224 223
3 205 223 225
3 205 225 207
3 207 225 226
3 207 226 206
3 226 216 206
3 208 228 224
3 224 228 227
3 209 229 208
3 229 228 208
3 210 230 209
3 209 230 229
3 213 212 231
3 212 211 231
3 231 211 214
3 232 220 213
3 232 213 231
3 233 231 214
3 233 214 215
3 234 233 215
3 234 215 218
3 226 235 216
3 235 217 216
3 235 236 217
3 217 236 219
3 237 234 218
3 237 218 219
3 236 238 219
3 238 237 219
3 240 220 232
3 239 240 232
3 241 221 220
3 240 241 220
3 242 222 221
3 241 242 221
3 224 227 243
3 224 243 223
3 223 243 225
3 225 243 244
3 225 244 226
3 226 244 235
3 227 245 243
3 228 246 227
3 227 246 245
3 229 247 228
3 228 247 246
3 230 248 229
3 229 248 247
3 239 232 249
3 232 231 249
3 249 231 233
3 250 249 233
3 250 233 234
3 237 250 234
3 244 251 235
3 235 251 236
3 251 252 236
3 236 252 238
3 252 253 238
3 253 250 237
3 253 237 238
3 254 239 249
3 255 240 239
3 254 255 239
3 256 241 240
3 255 256 240
3 257 242 241
3 256 257 241
3 245 258 243
3 243 258 244
3 244 258 251
3 245 259 258
3 246 260 245
3 245 260 259
3 247 261 246
3 246 261 260
3 248 262 247
3 247 262 261
3 254 249 263
3 263 249 250
3 253 263 250
3 258 264 251
3 251 264 252
3 264 265 252
3 265 263 253
3 252 265 253
3 266 254 263
3 267 255 254
3 266 267 254
3 268 256 255
3 267 268 255
3 269 257 256
3 268 269 256
3 259 270 258
3 270 264 258
3 260 271 259
3 259 271 270
3 261 272 260
3 260 272 271
3 262 273 261
3 273 272 261
3 270 274 264
3 275 266 263
3 275 263 265
3 274 276 264
3 276 265 264
3 276 277 265
3 277 275 265
3 278 267 266
3 275 278 266
3 279 268 267
3 278 279 267
3 280 269 268
3 279 280 268
3 271 281 270
3 270 281 274
3 272 282 271
3 271 282 281
3 273 283 272
3 272 283 282
3 281 284 274
3 274 284 276
3 285 278 275
3 277 285 275
3 284 286 276
3 286 285 277
3 276 286 277
3 287 279 278
3 285 287 278
3 288 280 279
3 287 288 279
3 282 289 281
3 281 289 284
3 283 290 282
3 282 290 289
3 289 291 284
3 284 291 286
3 291 292 286
3 292 287 285
3 286 292 285
3 293 288 287
3 292 293 287
3 290 294 289
3 289 294 291
3 294 295 291
3 295 293 292
3 291 295 292
CELL_TYPES 542
5
5
5
5
5
5
5
5
5
5
5
5
5
5
5
5
5
5
5
5
5
5
5
5
5
5
5
5
5
5
5
5
5
5
5
5
5
5
5
5
5
5
5
5
5
5
5
5
5
5
5
5
5
5
5
5
5
5
5
5
5
5
5
5
5
5
5
5
5
5
5
5
5
5
5
5
5
5
5
5
5
5
5
5
5
5
5
5
5
5
5
5
5
5
5
5
5
5
5
5
5
5
5
5
5
5
5
5
5
5
5
5
5
5
5
5
5
5
5
5
5
5
5
5
5
5
5
5
5
5
5
5
5
5
5
5
5
5
5
5
5
5
5
5
5
5
5
5
5
5
5
5
5
5
5
5
5
5
5
5
5
5
5
5
5
5
5
5
5
5
5
5
5
5
5
5
5
5
5
5
5
5
5
5
5
5
5
5
5
5
5
5
5
5
5
5
5
5
5
5
5
5
5
5
5
5
5
5
5
5
5
5
5
5
5
5
5
5
5
5
5
5
5
5
5
5
5
5
5
5
5
5
5
5
5
5
5
5
5
5
5
5
5
5
5
5
5
5
5
5
5
5
5
5
5
5
5
5
5
5
5
5
5
5
5
5
5
5
5
5
5
5
5
5
5
5
5
5
5
5
5
5
5
5
5
5
5
5
5
5
5
5
5
5
5
5
5
5
5
5
5
5
5
5
5
5
5
5
5
5
5
5
5
5
5
5
5
5
5
5
5
5
5
5
5
5
5
5
5
5
5
5
5
5
5
5
5
5
5
5
5
5
5
5
5
5
5
5
5
5
5
5
5
5
5
5
5
5
5
5
5
5
5
5
5
5
5
5
5
5
5
5
5
5
5
5
5
5
5
5
5
5
5
5
5
5
5
5
5
5
5
5
5
5
5
5
5
5
5
5
5
5
5
5
5
5
5
5
5
5
5
5
5
5
5
5
5
5
5
5
5
5
5
5
5
5
5
5
5
5
5
5
5
5
5
5
5
5
5
5
5
5
5
5
5
5
5
5
5
5
5
5
5
5
5
5
5
5
5
5
5
5
5
5
5
5
5
5
5
5
5
5
5
5
5
5
5
5
5
5
5
5
5
5
5
5
5
5
5
5
5
5
5
5
5
5
5
5
5
5
5
5
5
5
5
5
5
5
5
5
5
5
5
5
5
5
5
5
5
5
5
5
5
5
5
5
5
5
5
5
5
5
5
5
5
5
5
5
5
5
5
5
POINT_DATA 296
SCALARS concentrations float 4
LOOKUP_TABLE default
0 0.952258 0.119295 146.912
0 0.952277 0.116486 31.3697
0 0.952403 0.116768 83.6638
0 0.952474 0.117462 115.319
0 0.952333 0.0914545 1.14916
0 0.952152 0.120246 8.30704
0 0.951974 0.120524 116.34
0 0.952303 0.0918957 3.56907
0 0.952259 0.0919205 5.44843
0 0.951737 0.119812 196.065
0 0.951628 0.123214 174.901
0 0.952228 0.118659 42.934
0 0.951807 0.119012 114.53
0 0.952417 0.0920276 3.92705
0 0.952328 0.0924387 10.4118
0 0.95233 0.0912318 1.59495
0 0.952333 0.0912312 0.336033
0 0.952107 0.0918289 5.87846
0 0.951904 0.0918365 4.27581
0 0.952304 0.091273 1.97628
0 0.952218 0.0912865 2.57506
0 0.951699 0.118491 257.592
0 0.95183 0.1225 116.397
0 0.951721 0.0917604 2.78645
0 0.951669 0.0915648 7.486
0 0.952025 0.0919921 7.65079
0 0.951674 0.1167 151.707
0 0.951763 0.0921174 5.65551
0 0.951816 0.120335 102.491
0 0.952285 0.0914232 3.67063
0 0.952137 0.091459 3.48458
0 0.952236 0.0911841 2.24545
0 0.951532 0.116806 155.545
0 0.952251 0.0911122 1.11085
0 0.95227 0.0911189 0.19654
0 0.952064 0.0913046 1.56077
0 0.951895 0.0912455 0.891326
0 0.952215 0.0910855 0.727693
0 0.95214 0.0911469 0.925614
0 0.951746 0.0920906 7.95223
0 0.951677 0.092027 4.77028
0 0.95177 0.0912326 2.37208
0 0.951725 0.0912427 3.46411
0 0.951348 0.114807 111.108
0 0.951955 0.091428 1.43694
0 0.951767 0.0920889 10.0971
0 0.95184 0.0913747 3.32556
0 0.951798 0.117894 292.236
0 0.951802 0.0921059 9.95108
0 0.951821 0.118461 77.4215
0 0.952149 0.0912061 2.40708
0 0.952051 0.0912203 1.9244
0 0.952156 0.0910806 1.21243
0 0.951453 0.0921793 5.4642
0 0.951521 0.0922211 10.1932
0 0.952179 0.0910695 0.301707
0 0.952028 0.091125 0.160231
0 0.951904 0.0911359 0.718841
0 0.952109 0.0910464 0.234277
0 0.951689 0.0913174 3.60294
0 0.951617 0.0913689 1.02564
0 0.951845 0.0911022 1.36434
0 0.951769 0.0911058 2.04141
0 0.951655 0.119716 210.227
0 0.951957 0.0910872 0.313122
0 0.951798 0.0914283 4.44299
0 0.951879 0.0911126 1.7526
0 0.951793 0.092182 4.86547
0 0.951797 0.0913368 4.03347
0 0.951774 0.115685 173.243
0 0.951799 0.0916335 3.71635
0 0.951843 0.116049 106.601
0 0.95214 0.0910621 0.519036
0 0.952057 0.09106 1.09393
0 0.952101 0.0910712 0.828263
0 0.951598 0.0914136 1.50835
0 0.951858 0.0920025 10.7152
0 0.951727 0.0914436 3.93306
0 0.952126 0.0910618 0.223897
0 0.952123 0.0910705 0.386907
0 0.951984 0.0910625 0.400812
0 0.952064 0.0910418 0.134688
0 0.951751 0.0910772 1.02878
0 0.951704 0.0911836 0.324882
0 0.951882 0.0910385 0.693424
0 0.952096 0.117597 108.413
0 0.951961 0.0910218 0.788763
0 0.951862 0.0910825 1.86035
0 0.951794 0.0912524 2.53672
0 0.951837 0.0911227 1.97514
0 0.951803 0.0914257 3.77667
0 0.951824 0.0911903 2.09811
0 0.952239 0.116402 130.798
0 0.951981 0.0915246 0.507795
0 0.952114 0.0910593 0.519445
0 0.952038 0.0910555 0.687731
0 0.952087 0.0910587 0.659946
0 0.951989 0.0910729 0.564591
0 0.952575 0.121483 53.1041
0 0.952146 0.0918957 6.74012
0 0.951758 0.0912065 0.856124
0 0.951921 0.0912615 2.94988
0 0.951834 0.0911913 1.60202
0 0.952113 0.0910412 0.464972
0 0.952102 0.0910461 0.217619
0 0.951989 0.0910364 0.253519
0 0.95206 0.0910304 0.200709
0 0.951843 0.0910447 0.464008
0 0.951936 0.0910219 0.111638
0 0.952328 0.12033 101.732
0 0.951919 0.0910592 0.503295
0 0.95186 0.091117 1.178
0 0.951891 0.0911357 1.13309
0 0.951878 0.0911234 0.971528
0 0.952319 0.0917073 4.64779
0 0.952026 0.0911396 1.26661
0 0.952242 0.0918854 6.62543
0 0.952117 0.0910296 0.497576
0 0.952113 0.0910278 0.470572
0 0.952102 0.0910421 0.717371
0 0.952059 0.0910526 0.588087
0 0.951971 0.0910665 0.747297
0 0.952031 0.0910642 0.552945
0 0.952113 0.0910277 0.597518
0 0.952068 0.1182 95.8576
0 0.952266 0.0917207 3.9768
0 0.952064 0.0911591 0.71282
0 0.951882 0.0910813 0.578065
0 0.951933 0.0910993 0.921492
0 0.952088 0.0910225 0.470519
0 0.952028 0.091016 0.238543
0 0.951931 0.0910248 0.383939
0 0.951995 0.0910224 0.220493
0 0.952266 0.0916239 3.68687
0 0.952367 0.118063 29.0696
0 0.951928 0.0910931 0.499188
0 0.951933 0.0910928 0.347628
0 0.952072 0.0910928 1.11799
0 0.951972 0.0910654 0.265308
0 0.9518 0.0920808 4.8252
0 0.951939 0.0913378 2.16439
0 0.951979 0.0911046 1.58811
0 0.952103 0.0910212 0.599598
0 0.952121 0.0910266 0.512785
0 0.95208 0.091038 0.800925
0 0.952036 0.0910702 1.04027
0 0.952031 0.0910636 1.13945
0 0.952107 0.0910296 0.698194
0 0.952123 0.0910289 0.58173
0 0.951585 0.0922243 2.2457
0 0.951609 0.118844 204.547
0 0.951952 0.0910423 0.721438
0 0.952129 0.0912169 1.45557
0 0.95201 0.0910911 0.378598
0 0.951947 0.0910618 0.644083
0 0.952142 0.0912416 1.54573
0 0.952057 0.0910136 0.534563
0 0.952006 0.091026 0.503207
0 0.952092 0.0910265 0.735742
0 0.951996 0.091046 0.82263
0 0.95227 0.0916743 4.96472
0 0.952333 0.117564 179.723
0 0.951951 0.0910999 1.51023
0 0.951945 0.0910874 0.83578
0 0.951752 0.0915169 2.07983
0 0.951875 0.0912272 1.58935
0 0.951641 0.0914453 1.82884
0 0.951983 0.0910524 1.10171
0 0.952117 0.0910249 0.668357
0 0.95208 0.0910364 0.841589
0 0.952047 0.0910391 0.708003
0 0.952113 0.0910395 0.762896
0 0.952122 0.0910347 0.738742
0 0.951454 0.0922668 2.73421
0 0.951476 0.120501 249.894
0 0.951983 0.0910596 1.15613
0 0.952041 0.0910852 0.575049
0 0.95199 0.091058 0.763808
0 0.952097 0.0912716 2.4366
0 0.952042 0.0911169 0.821983
0 0.95206 0.0910276 0.699769
0 0.952037 0.0910331 0.873284
0 0.952093 0.0910299 0.793462
0 0.952022 0.0910381 0.811508
0 0.952003 0.0910435 0.592066
0 0.951991 0.0913658 2.49775
0 0.952142 0.0918515 7.03711
0 0.952333 0.119969 115.564
0 0.951933 0.091063 1.27082
0 0.951826 0.0911992 1.84415
0 0.95159 0.0912197 2.23676
0 0.951772 0.0911582 1.63324
0 0.951989 0.091039 0.81688
0 0.952053 0.0910553 0.931323
0 0.952104 0.0910275 0.808093
0 0.952093 0.0910472 0.889311
0 0.952118 0.0910513 0.878675
0 0.952109 0.0910453 0.965561
0 0.952118 0.0910513 0.942802
0 0.951627 0.0911944 2.08877
0 0.951373 0.0921175 9.5737
0 0.951277 0.116209 15.8474
0 0.951999 0.0910394 0.423644
0 0.952005 0.0911374 0.595563
0 0.951964 0.091178 0.475105
0 0.951999 0.091036 0.385607
0 0.952062 0.0910298 0.676564
0 0.952028 0.091041 0.526373
0 0.951911 0.0913334 0.124534
0 0.951867 0.0921018 8.35914
0 0.951992 0.120147 204.996
0 0.95192 0.0910478 1.00488
0 0.951814 0.0910661 1.25995
0 0.951842 0.0910778 1.29733
0 0.95201 0.0910667 1.2708
0 0.952077 0.091075 1.22234
0 0.952079 0.0910461 0.820871
0 0.952086 0.0910654 1.01862
0 0.952106 0.0910658 1.11464
0 0.952101 0.0910656 1.17003
0 0.951756 0.0912205 1.37088
0 0.951487 0.0921686 7.28825
0 0.951291 0.118449 235.235
0 0.95198 0.0910584 0.280125
0 0.95194 0.0911057 0.617206
0 0.952 0.09105 0.563795
0 0.952041 0.0910529 0.635349
0 0.951911 0.0911108 1.68768
0 0.951888 0.0913296 1.87161
0 0.951853 0.0923068 8.96602
0 0.951757 0.118467 57.2703
0 0.951972 0.0910978 1.79172
0 0.951968 0.0910505 0.685933
0 0.952051 0.0911124 1.79132
0 0.952089 0.0911029 1.51314
0 0.952047 0.0910587 0.901476
0 0.952062 0.0910752 1.13311
0 0.952095 0.091092 1.35148
0 0.952078 0.0910798 1.0962
0 0.95207 0.0911129 0.532155
0 0.951971 0.0913127 1.53923
0 0.951717 0.0920138 3.37319
0 0.951484 0.116701 192.899
0 0.95196 0.0910435 0.87231
0 0.952002 0.091059 0.819179
0 0.951893 0.0910848 1.63474
0 0.951831 0.091335 2.68447
0 0.951861 0.0918638 6.75137
0 0.951904 0.1164 118.064
0 0.952059 0.0910571 1.29794
0 0.952081 0.0910779 1.24554
0 0.952013 0.0910635 0.970235
0 0.95204 0.0910645 0.803065
0 0.952074 0.0910624 0.710489
0 0.952139 0.0911344 0.785226
0 0.952183 0.0913622 2.15273
0 0.952116 0.0921669 5.95164
0 0.951854 0.116055 114.017
0 0.951957 0.0910607 1.08662
0 0.951868 0.0911331 2.06254
0 0.951768 0.0912327 2.0337
0 0.951669 0.091682 1.86072
0 0.951736 0.119065 102.448
0 0.952093 0.0910626 0.972312
0 0.95199 0.0910938 0.722858
0 0.952048 0.0910837 0.174011
0 0.952162 0.0911868 0.968894
0 0.952266 0.0914037 1.76367
0 0.952412 0.0921734 6.51347
0 0.952391 0.119798 3.40337
0 0.951912 0.0911267 1.91266
0 0.951808 0.091294 3.38116
0 0.951631 0.0916452 3.45525
0 0.951525 0.116024 120.272
0 0.951951 0.0911418 1.93896
0 0.952104 0.0911213 0.763553
0 0.952001 0.0911275 0.939764
0 0.95205 0.091124 0.327631
0 0.952215 0.0912747 1.00823
0 0.95237 0.0916647 5.15997
0 0.952524 0.119085 95.8724
0 0.951909 0.0912415 3.24571
0 0.951857 0.0918885 5.73036
0 0.951669 0.117584 214.641
0 0.951989 0.091279 3.00217
0 0.952105 0.0912326 1.45527
0 0.952028 0.0912404 1.70344
0 0.952217 0.0917816 6.05415
0 0.952334 0.116214 153.461
0 0.952078 0.0922967 6.22986
0 0.952066 0.119565 82.866
0 0.952046 0.0918781 5.12508
0 0.952054 0.0918462 5.25074
0 0.952148 0.116707 5.52813
0 0.952166 0.120636 192.95
0 0.952011 0.116423 171.521
VECTORS fa_u float
0.0067334 0.00278102 -0
0.00519279 0.00298747 -0
0.00554402 0.00149228 -0
0.0065355 0.000903533 -0
1e-08 0 0
0.00601126 0.00460505 -0
0.00405634 0.0040439 -0
1e-08 0 0
1e-08 0 0
0.00399263 0.00512358 -0
0.0038335 0.00657901 -0
0.00662616 4.82523e-05 -0
0.00661267 -0.000818511 0
1e-08 0 0
1e-08 0 0
1e-08 0 0
1e-08 0 0
1e-08 0 0
1e-08 0 0
1e-08 0 0
1e-08 0 0
0.0024539 0.00590533 -0
0.0019532 0.00734445 -0
1e-08 0 0
1e-08 0 0
1e-08 0 0
0.00758868 -0.00201317 0
1e-08 0 0
0.00730552 -0.00310408 0
1e-08 0 0
1e-08 0 0
1e-08 0 0
0.000786655 0.00615426 -0
1e-08 0 0
1e-08 0 0
1e-08 0 0
1e-08 0 0
1e-08 0 0
1e-08 0 0
1e-08 0 0
1e-08 0 0
1e-08 0 0
1e-08 0 0
-4.41732e-05 0.00762479 -0
1e-08 0 0
1e-08 0 0
1e-08 0 0
0.00478822 -0.00282414 0
1e-08 0 0
0.00554136 -0.0042952 0
1e-08 0 0
1e-08 0 0
1e-08 0 0
1e-08 0 0
1e-08 0 0
1e-08 0 0
1e-08 0 0
1e-08 0 0
1e-08 0 0
1e-08 0 0
1e-08 0 0
1e-08 0 0
1e-08 0 0
-0.000822698 0.00593668 0
1e-08 0 0
1e-08 0 0
1e-08 0 0
1e-08 0 0
1e-08 0 0
0.00420893 -0.004234 0
1e-08 0 0
0.00324613 -0.00415996 0
1e-08 0 0
1e-08 0 0
1e-08 0 0
1e-08 0 0
1e-08 0 0
1e-08 0 0
1e-08 0 0
1e-08 0 0
1e-08 0 0
1e-08 0 0
1e-08 0 0
1e-08 0 0
1e-08 0 0
-0.00147812 0.00555415 0
1e-08 0 0
1e-08 0 0
1e-08 0 0
1e-08 0 0
1e-08 0 0
1e-08 0 0
0.00391311 -0.00661109 0
1e-08 0 0
1e-08 0 0
1e-08 0 0
1e-08 0 0
1e-08 0 0
0.00322904 -0.00784577 0
1e-08 0 0
1e-08 0 0
1e-08 0 0
1e-08 0 0
1e-08 0 0
1e-08 0 0
1e-08 0 0
1e-08 0 0
1e-08 0 0
1e-08 0 0
-0.00253602 0.00623488 0
1e-08 0 0
1e-08 0 0
1e-08 0 0
1e-08 0 0
1e-08 0 0
1e-08 0 0
1e-08 0 0
1e-08 0 0
1e-08 0 0
1e-08 0 0
1e-08 0 0
1e-08 0 0
1e-08 0 0
1e-08 0 0
0.00159106 -0.00615622 0
1e-08 0 0
1e-08 0 0
1e-08 0 0
1e-08 0 0
1e-08 0 0
1e-08 0 0
1e-08 0 0
1e-08 0 0
1e-08 0 0
-0.00431474 0.00742732 0
1e-08 0 0
1e-08 0 0
1e-08 0 0
1e-08 0 0
1e-08 0 0
1e-08 0 0
1e-08 0 0
1e-08 0 0
1e-08 0 0
1e-08 0 0
1e-08 0 0
1e-08 0 0
1e-08 0 0
1e-08 0 0
1e-08 0 0
0.000662812 -0.00497167 0
1e-08 0 0
1e-08 0 0
1e-08 0 0
1e-08 0 0
1e-08 0 0
1e-08 0 0
1e-08 0 0
1e-08 0 0
1e-08 0 0
1e-08 0 0
-0.00345167 0.00444285 0
1e-08 0 0
1e-08 0 0
1e-08 0 0
1e-08 0 0
1e-08 0 0
1e-08 0 0
1e-08 0 0
1e-08 0 0
1e-08 0 0
1e-08 0 0
1e-08 0 0
1e-08 0 0
5.89482e-05 -0.00707781 0
1e-08 0 0
1e-08 0 0
1e-08 0 0
1e-08 0 0
1e-08 0 0
1e-08 0 0
1e-08 0 0
1e-08 0 0
1e-08 0 0
1e-08 0 0
1e-08 0 0
1e-08 0 0
-0.00424217 0.00426712 0
1e-08 0 0
1e-08 0 0
1e-08 0 0
1e-08 0 0
1e-08 0 0
1e-08 0 0
1e-08 0 0
1e-08 0 0
1e-08 0 0
1e-08 0 0
1e-08 0 0
1e-08 0 0
1e-08 0 0
-0.000935203 -0.00728494 0
1e-08 0 0
1e-08 0 0
1e-08 0 0
1e-08 0 0
1e-08 0 0
1e-08 0 0
1e-08 0 0
1e-08 0 0
-0.00442765 0.00348077 0
1e-08 0 0
1e-08 0 0
1e-08 0 0
1e-08 0 0
1e-08 0 0
1e-08 0 0
1e-08 0 0
1e-08 0 0
1e-08 0 0
1e-08 0 0
1e-08 0 0
-0.00168791 -0.0063172 0
1e-08 0 0
1e-08 0 0
1e-08 0 0
1e-08 0 0
1e-08 0 0
1e-08 0 0
1e-08 0 0
-0.0068769 0.00407187 0
1e-08 0 0
1e-08 0 0
1e-08 0 0
1e-08 0 0
1e-08 0 0
1e-08 0 0
1e-08 0 0
1e-08 0 0
1e-08 0 0
1e-08 0 0
1e-08 0 0
-0.00255908 -0.00619981 0
1e-08 0 0
1e-08 0 0
1e-08 0 0
1e-08 0 0
1e-08 0 0
-0.0079135 0.00324312 0
1e-08 0 0
1e-08 0 0
1e-08 0 0
1e-08 0 0
1e-08 0 0
1e-08 0 0
1e-08 0 0
1e-08 0 0
-0.00362454 -0.00625759 0
1e-08 0 0
1e-08 0 0
1e-08 0 0
1e-08 0 0
-0.00513774 0.00134775 0
1e-08 0 0
1e-08 0 0
1e-08 0 0
1e-08 0 0
1e-08 0 0
1e-08 0 0
-0.00469918 -0.00601593 0
1e-08 0 0
1e-08 0 0
1e-08 0 0
-0.00759079 0.000978332 0
1e-08 0 0
1e-08 0 0
1e-08 0 0
1e-08 0 0
1e-08 0 0
1e-08 0 0
-0.00344533 -0.00342254 0
1e-08 0 0
1e-08 0 0
-0.00630605 -3.42873e-05 0
1e-08 0 0
1e-08 0 0
1e-08 0 0
1e-08 0 0
-0.00585287 -0.00451974 0
1e-08 0 0
-0.0067759 -0.000922369 0
1e-08 0 0
1e-08 0 0
-0.00614042 -0.00352667 0
-0.00546126 -0.00146098 0
-0.00633666 -0.00258787 0
