# vtk DataFile Version 2.0
CellBP Time: 7.32
ASCII
DATASET UNSTRUCTURED_GRID
POINTS 320 double
-50.000000 -50.000000 0.000000
-50.000000 -43.332951 0.000000
-45.688399 -45.491163 0.000000
-43.332878 -50.000000 0.000000
-50.000000 -36.665875 0.000000
-36.665863 -50.000000 0.000000
-45.081134 -39.969805 0.000000
-40.027208 -44.152294 0.000000
-29.998813 -50.000000 0.000000
-50.000000 -29.998833 0.000000
-44.847104 -33.448938 0.000000
-33.144927 -44.675706 0.000000
-39.869145 -36.787013 0.000000
-35.128677 -39.801332 0.000000
-23.331920 -50.000000 0.000000
-26.539165 -44.666756 0.000000
-50.000000 -23.331962 0.000000
-44.665284 -26.803951 0.000000
-39.364258 -30.225709 0.000000
-29.606295 -39.359390 0.000000
-33.368263 -33.655479 0.000000
-50.000000 -16.665343 0.000000
-16.665326 -50.000000 0.000000
-9.999040 -50.000000 0.000000
-19.964899 -44.588771 0.000000
-23.215898 -39.114709 0.000000
-44.691886 -20.096938 0.000000
-39.367867 -23.528174 0.000000
-34.106155 -26.937047 0.000000
-26.384436 -33.577300 0.000000
-29.156227 -28.926665 0.000000
-50.000000 -9.998943 0.000000
-44.666362 -13.410205 0.000000
-50.000000 -3.332827 0.000000
-3.333009 -50.000000 0.000000
3.332955 -50.000000 0.000000
-13.343655 -44.599027 0.000000
-6.684703 -44.610695 0.000000
-16.693706 -39.153292 0.000000
-20.106977 -33.342692 0.000000
-39.338182 -16.804772 0.000000
-34.018741 -20.274686 0.000000
-28.780975 -23.449107 0.000000
-23.510516 -27.350389 0.000000
-44.635457 -6.705563 0.000000
-39.293108 -10.101830 0.000000
-50.000000 3.333137 0.000000
-44.626757 -0.015598 0.000000
9.999042 -50.000000 0.000000
16.665369 -50.000000 0.000000
-0.016071 -44.618768 0.000000
6.651690 -44.635454 0.000000
-10.044698 -39.222609 0.000000
-3.368190 -39.220395 0.000000
-13.484244 -33.798726 0.000000
-16.709435 -28.271524 0.000000
-33.948080 -13.514030 0.000000
-28.601943 -16.892397 0.000000
-23.291747 -20.313103 0.000000
-18.660443 -23.283223 0.000000
-39.267544 -3.392811 0.000000
-33.904591 -6.796777 0.000000
-50.000000 9.999150 0.000000
-44.606766 6.673454 0.000000
-39.260938 3.325688 0.000000
-50.000000 16.665420 0.000000
23.331944 -50.000000 0.000000
29.998773 -50.000000 0.000000
13.317523 -44.662974 0.000000
19.989651 -44.700114 0.000000
3.307717 -39.245162 0.000000
9.971861 -39.290331 0.000000
-6.735320 -33.791395 0.000000
-0.032218 -33.829612 0.000000
-10.095909 -28.293255 0.000000
-13.122711 -22.897757 0.000000
-28.532418 -10.214860 0.000000
-23.067022 -13.663508 0.000000
-16.977719 -17.210199 0.000000
-33.884696 -0.065450 0.000000
-28.563191 -3.579212 0.000000
-44.564126 13.380522 0.000000
-39.190094 10.015081 0.000000
-33.905774 6.616049 0.000000
-50.000000 23.331915 0.000000
-44.557617 20.138232 0.000000
-50.000000 29.998857 0.000000
36.665793 -50.000000 0.000000
43.332879 -50.000000 0.000000
26.663264 -44.745308 0.000000
33.315311 -44.875971 0.000000
16.631713 -39.357698 0.000000
23.328296 -39.437096 0.000000
6.642913 -33.879551 0.000000
13.290759 -33.965472 0.000000
-3.345748 -28.363175 0.000000
3.357493 -28.451294 0.000000
-6.626018 -22.845855 0.000000
-9.967998 -17.315004 0.000000
-23.183861 -7.014750 0.000000
-17.811630 -10.335114 0.000000
-12.837536 -12.596053 0.000000
-28.607556 3.088580 0.000000
-23.265505 -0.468744 0.000000
-39.038879 16.746463 0.000000
-28.721012 9.926303 0.000000
-33.761447 13.318362 0.000000
-44.521693 26.716965 0.000000
-38.467755 23.892575 0.000000
-44.632348 33.085608 0.000000
-50.000000 36.666033 0.000000
-50.000000 43.333000 0.000000
39.922390 -45.069596 0.000000
45.474711 -45.660462 0.000000
50.000000 -50.000000 0.000000
36.626801 -39.981955 0.000000
30.012381 -39.458604 0.000000
19.904253 -34.092811 0.000000
26.585066 -34.319478 0.000000
9.988790 -28.513313 0.000000
16.610924 -28.660043 0.000000
0.051652 -22.960472 0.000000
6.812281 -23.157399 0.000000
-3.400043 -17.297206 0.000000
-6.845616 -10.982175 0.000000
-17.877083 -3.823921 0.000000
-12.553172 -7.036106 0.000000
-23.309949 6.072347 0.000000
-18.036749 2.449983 0.000000
-23.122572 12.095933 0.000000
-33.572123 19.788970 0.000000
-27.941438 16.885731 0.000000
-33.292897 24.722771 0.000000
-39.473598 30.052866 0.000000
-35.160370 28.137551 0.000000
-39.816015 35.101449 0.000000
-43.991697 39.982258 0.000000
-45.431022 45.685191 0.000000
-50.000000 50.000000 0.000000
44.117264 -39.899012 0.000000
50.000000 -43.332702 0.000000
39.639449 -35.047398 0.000000
33.462912 -33.424527 0.000000
22.984942 -28.817948 0.000000
28.731010 -29.247773 0.000000
13.460886 -23.121808 0.000000
20.054927 -23.439045 0.000000
3.381261 -17.588201 0.000000
10.126075 -17.841125 0.000000
0.151023 -11.941163 0.000000
-2.142929 -6.227876 0.000000
-7.326656 -3.658882 0.000000
-12.571676 -0.804794 0.000000
-18.166025 8.573491 0.000000
-12.956953 5.197006 0.000000
-18.638731 13.751902 0.000000
-21.504348 17.494858 0.000000
-28.940784 23.158646 0.000000
-24.346277 21.554635 0.000000
-30.323574 28.634894 0.000000
-34.253458 33.375566 0.000000
-36.955929 39.578085 0.000000
-39.838669 45.102774 0.000000
-43.332864 50.000000 0.000000
44.585255 -32.972053 0.000000
50.000000 -36.665590 0.000000
39.129319 -29.581821 0.000000
33.500622 -26.367632 0.000000
27.182926 -23.322071 0.000000
23.066308 -18.647764 0.000000
16.990458 -16.980410 0.000000
6.708890 -12.209517 0.000000
12.359297 -12.733987 0.000000
-3.378665 -1.490989 0.000000
3.889201 -6.942378 0.000000
1.021428 -2.119938 0.000000
-6.960129 2.308198 0.000000
-8.376683 7.776556 0.000000
-12.844708 11.931044 0.000000
-15.692096 17.699949 0.000000
-19.287254 22.982455 0.000000
-24.170954 27.354788 0.000000
-27.286309 33.626032 0.000000
-30.406640 39.161210 0.000000
-33.447784 44.738867 0.000000
-36.665754 50.000000 0.000000
44.547735 -26.499870 0.000000
50.000000 -29.998505 0.000000
39.040033 -23.179235 0.000000
33.449731 -19.899931 0.000000
28.039994 -16.574009 0.000000
22.682328 -13.123965 0.000000
17.176275 -9.906473 0.000000
10.889082 -6.625267 0.000000
-1.354188 2.310828 0.000000
6.189340 -1.729559 0.000000
2.900783 1.598048 0.000000
-3.512980 7.120088 0.000000
-6.313543 12.441371 0.000000
-9.629585 17.705157 0.000000
-13.167199 23.113142 0.000000
-17.316634 28.185242 0.000000
-20.570701 33.474422 0.000000
-23.665896 39.064015 0.000000
-26.830885 44.585380 0.000000
-29.998806 50.000000 0.000000
44.528703 -19.930607 0.000000
50.000000 -23.331633 0.000000
39.036317 -16.594060 0.000000
33.576195 -13.281173 0.000000
28.150261 -9.964879 0.000000
22.725522 -6.604466 0.000000
17.264190 -3.336541 0.000000
11.947266 0.199838 0.000000
1.921661 6.260542 0.000000
6.960182 3.797404 0.000000
-0.217347 11.912638 0.000000
-3.262547 17.530450 0.000000
-6.700292 22.977744 0.000000
-10.567655 28.267551 0.000000
-13.723950 33.661416 0.000000
-16.945631 39.080372 0.000000
-20.140538 44.548458 0.000000
-23.332015 50.000000 0.000000
44.536279 -13.303724 0.000000
50.000000 -16.665081 0.000000
39.079906 -9.966680 0.000000
33.646717 -6.641055 0.000000
28.236143 -3.307572 0.000000
22.847169 0.017999 0.000000
17.535149 3.355160 0.000000
12.205249 6.593748 0.000000
6.705038 10.805521 0.000000
3.301890 17.196520 0.000000
-0.081102 22.852201 0.000000
-3.518530 28.312776 0.000000
-6.831307 33.774448 0.000000
-10.137352 39.170577 0.000000
-13.435697 44.563567 0.000000
-16.665473 50.000000 0.000000
44.554329 -6.654752 0.000000
50.000000 -9.998881 0.000000
39.123362 -3.321339 0.000000
33.713383 0.008771 0.000000
28.333193 3.344236 0.000000
23.001164 6.693681 0.000000
17.833043 10.021943 0.000000
12.656134 12.231699 0.000000
9.789046 17.234200 0.000000
6.478290 22.722365 0.000000
3.188918 28.269735 0.000000
-0.115864 33.734778 0.000000
-3.425138 39.168624 0.000000
-6.725399 44.581835 0.000000
-9.999160 50.000000 0.000000
44.575647 0.001883 0.000000
50.000000 -3.332956 0.000000
39.166860 3.331871 0.000000
33.779305 6.655560 0.000000
28.424092 9.994923 0.000000
23.046468 13.416382 0.000000
16.948976 17.022758 0.000000
12.901666 22.669678 0.000000
9.814946 28.232065 0.000000
6.604291 33.718740 0.000000
3.286598 39.164430 0.000000
-0.029837 44.584585 0.000000
-3.333035 50.000000 0.000000
44.586731 6.665512 0.000000
50.000000 3.332936 0.000000
39.198080 9.981924 0.000000
33.843413 13.277011 0.000000
28.541976 16.584690 0.000000
23.386968 20.084317 0.000000
18.531828 23.112437 0.000000
16.393167 28.298650 0.000000
13.328983 33.754759 0.000000
9.986613 39.181957 0.000000
6.666037 44.584354 0.000000
3.333021 50.000000 0.000000
44.608902 13.317938 0.000000
50.000000 9.999003 0.000000
39.251355 16.612435 0.000000
33.931894 19.862856 0.000000
28.612328 22.925982 0.000000
23.279652 27.207555 0.000000
19.901350 33.303044 0.000000
16.573850 39.040928 0.000000
13.268405 44.526749 0.000000
9.999102 50.000000 0.000000
44.632076 19.972993 0.000000
50.000000 16.665337 0.000000
39.298497 23.262135 0.000000
34.043811 26.514725 0.000000
28.965790 28.539449 0.000000
26.202408 33.410117 0.000000
23.066760 38.968818 0.000000
19.888636 44.507054 0.000000
16.665350 50.000000 0.000000
44.639815 26.642931 0.000000
50.000000 23.331924 0.000000
39.293380 29.966709 0.000000
33.212414 33.371277 0.000000
29.412163 39.045847 0.000000
26.422434 44.505969 0.000000
23.331889 50.000000 0.000000
44.775004 33.291807 0.000000
50.000000 29.998758 0.000000
39.738207 36.596314 0.000000
34.831086 39.525633 0.000000
32.833864 44.514300 0.000000
29.998699 50.000000 0.000000
44.978268 39.877873 0.000000
50.000000 36.665778 0.000000
39.734915 43.969044 0.000000
36.665716 50.000000 0.000000
45.621321 45.409822 0.000000
50.000000 43.332866 0.000000
43.332764 50.000000 0.000000
50.000000 50.000000 0.000000
CELLS 578 2312
3 1 0 2
3 0 3 2
3 4 1 6
3 6 1 2
3 3 5 7
3 3 7 2
3 6 2 7
3 9 4 10
3 10 4 6
3 5 8 11
3 7 5 11
3 10 6 12
3 12 6 7
3 7 11 13
3 7 13 12
3 8 14 15
3 11 8 15
3 16 9 17
3 17 9 10
3 17 10 18
3 18 10 12
3 11 15 19
3 13 11 19
3 18 12 20
3 13 19 20
3 20 12 13
3 14 22 24
3 15 14 24
3 15 24 25
3 19 15 25
3 21 16 26
3 26 16 17
3 26 17 27
3 27 17 18
3 27 18 28
3 28 18 20
3 19 25 29
3 19 29 20
3 28 20 30
3 30 20 29
3 31 21 32
3 32 21 26
3 22 23 36
3 24 22 36
3 23 34 37
3 36 23 37
3 24 36 38
3 25 24 38
3 25 38 39
3 29 25 39
3 32 26 40
3 40 26 27
3 40 27 41
3 41 27 28
3 41 28 42
3 42 28 30
3 29 39 43
3 29 43 30
3 42 30 43
3 33 31 44
3 44 31 32
3 44 32 45
3 45 32 40
3 46 33 47
3 47 33 44
3 34 35 50
3 37 34 50
3 35 48 51
3 50 35 51
3 36 37 52
3 38 36 52
3 37 50 53
3 52 37 53
3 38 52 54
3 39 38 54
3 39 54 55
3 43 39 55
3 45 40 56
3 56 40 41
3 56 41 57
3 57 41 42
3 57 42 58
3 58 42 43
3 43 55 59
3 43 59 58
3 47 44 60
3 60 44 45
3 60 45 61
3 61 45 56
3 62 46 63
3 63 46 47
3 63 47 64
3 64 47 60
3 48 49 68
3 51 48 68
3 49 66 69
3 68 49 69
3 50 51 70
3 53 50 70
3 51 68 71
3 70 51 71
3 52 53 72
3 54 52 72
3 53 70 73
3 72 53 73
3 54 72 74
3 55 54 74
3 55 74 75
3 59 55 75
3 61 56 76
3 76 56 57
3 76 57 77
3 77 57 58
3 77 58 78
3 59 75 78
3 78 58 59
3 64 60 79
3 79 60 61
3 79 61 80
3 80 61 76
3 65 62 81
3 81 62 63
3 81 63 82
3 82 63 64
3 82 64 83
3 83 64 79
3 84 65 85
3 85 65 81
3 66 67 89
3 69 66 89
3 67 87 90
3 89 67 90
3 68 69 91
3 71 68 91
3 69 89 92
3 91 69 92
3 70 71 93
3 73 70 93
3 71 91 94
3 93 71 94
3 72 73 95
3 74 72 95
3 73 93 96
3 95 73 96
3 74 95 97
3 75 74 97
3 75 97 98
3 78 75 98
3 80 76 99
3 99 76 77
3 99 77 100
3 100 77 78
3 100 78 101
3 98 101 78
3 83 79 102
3 102 79 80
3 102 80 103
3 103 80 99
3 85 81 104
3 104 81 82
3 105 83 102
3 104 82 106
3 106 82 83
3 106 83 105
3 86 84 107
3 107 84 85
3 107 85 108
3 108 85 104
3 109 86 107
3 110 86 109
3 87 88 112
3 90 87 112
3 112 88 113
3 88 114 113
3 90 112 115
3 89 90 116
3 92 89 116
3 116 90 115
3 91 92 117
3 94 91 117
3 92 116 118
3 117 92 118
3 93 94 119
3 96 93 119
3 94 117 120
3 119 94 120
3 95 96 121
3 97 95 121
3 96 119 122
3 121 96 122
3 97 121 123
3 98 97 123
3 98 123 124
3 98 124 101
3 103 99 125
3 125 99 100
3 125 100 126
3 126 100 101
3 126 101 124
3 105 102 127
3 127 102 103
3 127 103 128
3 128 103 125
3 129 105 127
3 108 104 130
3 130 104 106
3 130 106 131
3 131 106 105
3 131 105 129
3 108 130 132
3 109 107 133
3 133 107 108
3 133 108 134
3 108 132 134
3 135 109 133
3 111 110 136
3 136 110 109
3 136 109 135
3 137 111 136
3 138 111 137
3 112 113 139
3 115 112 139
3 114 140 113
3 140 139 113
3 139 141 115
3 116 115 142
3 118 116 142
3 142 115 141
3 117 118 143
3 120 117 143
3 118 142 144
3 143 118 144
3 119 120 145
3 122 119 145
3 120 143 146
3 145 120 146
3 121 122 147
3 123 121 147
3 122 145 148
3 147 122 148
3 123 147 149
3 124 123 149
3 124 149 150
3 151 126 124
3 124 150 151
3 128 125 152
3 152 125 126
3 152 126 151
3 129 127 153
3 153 127 128
3 128 152 154
3 153 128 154
3 155 129 153
3 131 129 156
3 156 129 155
3 132 130 157
3 130 131 157
3 157 131 158
3 131 156 158
3 132 157 159
3 132 159 134
3 135 133 160
3 160 133 134
3 160 134 159
3 136 135 161
3 135 160 161
3 162 137 136
3 161 162 136
3 163 138 137
3 162 163 137
3 139 164 141
3 140 165 139
3 139 165 164
3 141 164 166
3 141 166 142
3 166 167 142
3 144 142 167
3 167 168 144
3 143 144 168
3 146 143 168
3 168 169 146
3 145 146 170
3 148 145 170
3 170 146 169
3 147 148 171
3 149 147 171
3 148 170 172
3 171 148 172
3 173 151 150
3 149 171 174
3 150 149 174
3 150 174 175
3 150 175 173
3 154 152 176
3 152 151 176
3 176 151 173
3 154 176 177
3 155 153 178
3 177 178 154
3 154 178 153
3 156 155 179
3 155 178 179
3 180 158 156
3 179 180 156
3 181 159 157
3 180 181 158
3 181 157 158
3 182 160 159
3 181 182 159
3 183 161 160
3 182 183 160
3 184 162 161
3 184 161 183
3 185 163 162
3 184 185 162
3 164 186 166
3 165 187 164
3 164 187 186
3 166 186 188
3 166 188 167
3 167 188 189
3 167 189 168
3 168 189 190
3 168 190 169
3 169 190 191
3 169 191 170
3 192 172 170
3 170 191 192
3 192 193 172
3 171 172 193
3 174 171 193
3 194 173 175
3 176 173 194
3 175 174 195
3 193 195 174
3 195 196 175
3 175 196 194
3 197 177 176
3 194 197 176
3 198 178 177
3 197 198 177
3 199 179 178
3 198 199 178
3 200 180 179
3 199 200 179
3 201 181 180
3 200 201 180
3 202 182 181
3 201 202 181
3 203 183 182
3 202 203 182
3 204 184 183
3 203 204 183
3 205 185 184
3 204 205 184
3 186 206 188
3 187 207 186
3 186 207 206
3 188 206 208
3 188 208 189
3 189 208 209
3 189 209 190
3 190 209 210
3 190 210 191
3 191 210 211
3 191 211 192
3 192 211 212
3 192 212 193
3 193 212 213
3 193 213 195
3 214 197 194
3 214 194 196
3 195 213 215
3 195 215 196
3 196 215 214
3 216 198 197
3 214 216 197
3 217 199 198
3 216 217 198
3 218 200 199
3 217 218 199
3 219 201 200
3 218 219 200
3 220 202 201
3 219 220 201
3 221 203 202
3 220 221 202
3 222 204 203
3 221 222 203
3 223 205 204
3 222 223 204
3 206 224 208
3 207 225 206
3 206 225 224
3 208 224 226
3 208 226 209
3 209 226 227
3 209 227 210
3 210 227 228
3 210 228 211
3 211 228 229
3 211 229 212
3 212 229 230
3 212 230 213
3 213 230 231
3 213 231 215
3 232 216 214
3 215 231 232
3 232 214 215
3 233 217 216
3 232 233 216
3 234 218 217
3 233 234 217
3 235 219 218
3 234 235 218
3 236 220 219
3 235 236 219
3 237 221 220
3 236 237 220
3 238 222 221
3 237 238 221
3 239 223 222
3 238 239 222
3 224 240 226
3 225 241 224
3 224 241 240
3 226 240 242
3 226 242 227
3 227 242 243
3 227 243 228
3 228 243 244
3 228 244 229
3 244 245 229
3 229 245 230
3 230 245 246
3 230 246 231
3 231 246 247
3 231 247 232
3 248 233 232
3 248 232 247
3 249 234 233
3 248 249 233
3 250 235 234
3 249 250 234
3 251 236 235
3 250 251 235
3 252 237 236
3 251 252 236
3 253 238 237
3 252 253 237
3 254 239 238
3 253 254 238
3 240 255 242
3 241 256 240
3 240 256 255
3 242 255 257
3 242 257 243
3 243 257 258
3 243 258 244
3 244 258 259
3 244 259 245
3 245 259 260
3 245 260 246
3 246 260 261
3 246 261 247
3 248 247 261
3 262 249 248
3 261 262 248
3 263 250 249
3 262 263 249
3 264 251 250
3 263 264 250
3 265 252 251
3 264 265 251
3 266 253 252
3 265 266 252
3 267 254 253
3 266 267 253
3 255 268 257
3 256 269 255
3 255 269 268
3 257 268 270
3 257 270 258
3 258 270 271
3 258 271 259
3 259 271 272
3 259 272 260
3 260 272 273
3 260 273 261
3 274 262 261
3 261 273 274
3 275 263 262
3 274 275 262
3 276 264 263
3 275 276 263
3 277 265 264
3 276 277 264
3 278 266 265
3 277 278 265
3 279 267 266
3 278 279 266
3 268 280 270
3 269 281 268
3 268 281 280
3 270 280 282
3 270 282 271
3 271 282 283
3 271 283 272
3 283 284 272
3 272 284 273
3 285 275 274
3 273 284 285
3 285 274 273
3 286 276 275
3 285 286 275
3 287 277 276
3 286 287 276
3 288 278 277
3 287 288 277
3 289 279 278
3 288 289 278
3 280 290 282
3 281 291 280
3 280 291 290
3 282 290 292
3 282 292 283
3 283 292 293
3 283 293 284
3 284 293 294
3 284 294 285
3 295 286 285
3 295 285 294
3 296 287 286
3 295 296 286
3 297 288 287
3 296 297 287
3 298 289 288
3 297 298 288
3 290 299 292
3 291 300 290
3 290 300 299
3 292 299 301
3 292 301 293
3 293 301 302
3 293 302 294
3 294 302 295
3 303 296 295
3 303 295 302
3 304 297 296
3 303 304 296
3 305 298 297
3 304 305 297
3 299 306 301
3 300 307 299
3 299 307 306
3 301 306 308
3 301 308 302
3 309 303 302
3 302 308 309
3 310 304 303
3 309 310 303
3 311 305 304
3 310 311 304
3 306 312 308
3 307 313 306
3 306 313 312
3 314 310 309
3 308 312 314
3 314 309 308
3 315 311 310
3 314 315 310
3 312 316 314
3 313 317 312
3 312 317 316
3 318 315 314
3 318 314 316
3 317 319 316
3 319 318 316
CELL_TYPES 578
5
5
5
5
5
5
5
5
5
5
5
5
5
5
5
5
5
5
5
5
5
5
5
5
5
5
5
5
5
5
5
5
5
5
5
5
5
5
5
5
5
5
5
5
5
5
5
5
5
5
5
5
5
5
5
5
5
5
5
5
5
5
5
5
5
5
5
5
5
5
5
5
5
5
5
5
5
5
5
5
5
5
5
5
5
5
5
5
5
5
5
5
5
5
5
5
5
5
5
5
5
5
5
5
5
5
5
5
5
5
5
5
5
5
5
5
5
5
5
5
5
5
5
5
5
5
5
5
5
5
5
5
5
5
5
5
5
5
5
5
5
5
5
5
5
5
5
5
5
5
5
5
5
5
5
5
5
5
5
5
5
5
5
5
5
5
5
5
5
5
5
5
5
5
5
5
5
5
5
5
5
5
5
5
5
5
5
5
5
5
5
5
5
5
5
5
5
5
5
5
5
5
5
5
5
5
5
5
5
5
5
5
5
5
5
5
5
5
5
5
5
5
5
5
5
5
5
5
5
5
5
5
5
5
5
5
5
5
5
5
5
5
5
5
5
5
5
5
5
5
5
5
5
5
5
5
5
5
5
5
5
5
5
5
5
5
5
5
5
5
5
5
5
5
5
5
5
5
5
5
5
5
5
5
5
5
5
5
5
5
5
5
5
5
5
5
5
5
5
5
5
5
5
5
5
5
5
5
5
5
5
5
5
5
5
5
5
5
5
5
5
5
5
5
5
5
5
5
5
5
5
5
5
5
5
5
5
5
5
5
5
5
5
5
5
5
5
5
5
5
5
5
5
5
5
5
5
5
5
5
5
5
5
5
5
5
5
5
5
5
5
5
5
5
5
5
5
5
5
5
5
5
5
5
5
5
5
5
5
5
5
5
5
5
5
5
5
5
5
5
5
5
5
5
5
5
5
5
5
5
5
5
5
5
5
5
5
5
5
5
5
5
5
5
5
5
5
5
5
5
5
5
5
5
5
5
5
5
5
5
5
5
5
5
5
5
5
5
5
5
5
5
5
5
5
5
5
5
5
5
5
5
5
5
5
5
5
5
5
5
5
5
5
5
5
5
5
5
5
5
5
5
5
5
5
5
5
5
5
5
5
5
5
5
5
5
5
5
5
5
5
5
5
5
5
5
5
5
5
5
5
5
5
5
5
5
5
5
5
5
5
5
5
5
5
5
5
5
5
5
5
5
5
5
5
5
5
5
5
5
5
5
5
5
5
5
5
5
5
5
5
5
5
5
5
5
5
5
5
5
5
5
5
5
5
5
5
5
5
5
5
5
5
5
5
5
5
5
POINT_DATA 320
SCALARS theta_e float 1
LOOKUP_TABLE default
1.000000
1.000000
1.000000
1.000000
1.000000
1.000000
1.000000
1.000000
1.000000
1.000000
1.000000
1.000000
1.000000
1.000000
1.000000
1.000000
1.000000
1.000000
1.000000
1.000000
1.000000
1.000000
1.000000
1.000000
1.000000
1.000000
1.000000
1.000000
1.000000
1.000000
1.000000
1.000000
1.000000
1.000000
1.000000
1.000000
1.000000
1.000000
1.000000
1.000000
1.000000
1.000000
1.000000
1.000000
1.000000
1.000000
1.000000
1.000000
1.000000
1.000000
1.000000
1.000000
1.000000
1.000000
1.000000
1.000000
1.000000
1.000000
1.000000
1.000000
1.000000
1.000000
1.000000
1.000000
1.000000
1.000000
1.000000
1.000000
1.000000
1.000000
1.000000
1.000000
1.000000
1.000000
1.000000
1.000000
1.000000
1.000000
1.000000
1.000000
1.000000
1.000000
1.000000
1.000000
1.000000
1.000000
1.000000
1.000000
1.000000
1.000000
1.000000
1.000000
1.000000
1.000000
1.000000
1.000000
1.000000
1.000000
1.000000
1.000000
1.000000
1.000000
1.000000
1.000000
1.000000
1.000000
1.000000
1.000000
1.000000
1.000000
1.000000
1.000000
1.000000
1.000000
1.000000
1.000000
1.000000
1.000000
1.000000
1.000000
1.000000
1.000000
1.000000
1.000000
1.000000
1.000000
1.000000
1.000000
1.000000
1.000000
1.000000
1.000000
1.000000
1.000000
1.000000
1.000000
1.000000
1.000000
1.000000
1.000000
1.000000
1.000000
1.000000
1.000000
1.000000
1.000000
1.000000
1.000000
1.000000
1.000000
1.000000
1.000000
1.000000
1.000000
1.000000
1.000000
1.000000
1.000000
1.000000
1.000000
1.000000
1.000000
1.000000
1.000000
1.000000
1.000000
1.000000
1.000000
1.000000
1.000000
1.000000
1.000000
1.000000
1.000000
1.000000
1.000000
1.000000
1.000000
1.000000
1.000000
1.000000
1.000000
1.000000
1.000000
1.000000
1.000000
1.000000
1.000000
1.000000
1.000000
1.000000
1.000000
1.000000
1.000000
1.000000
1.000000
1.000000
1.000000
1.000000
1.000000
1.000000
1.000000
1.000000
1.000000
1.000000
1.000000
1.000000
1.000000
1.000000
1.000000
1.000000
1.000000
1.000000
1.000000
1.000000
1.000000
1.000000
1.000000
1.000000
1.000000
1.000000
1.000000
1.000000
1.000000
1.000000
1.000000
1.000000
1.000000
1.000000
1.000000
1.000000
1.000000
1.000000
1.000000
1.000000
1.000000
1.000000
1.000000
1.000000
1.000000
1.000000
1.000000
1.000000
1.000000
1.000000
1.000000
1.000000
1.000000
1.000000
1.000000
1.000000
1.000000
1.000000
1.000000
1.000000
1.000000
1.000000
1.000000
1.000000
1.000000
1.000000
1.000000
1.000000
1.000000
1.000000
1.000000
1.000000
1.000000
1.000000
1.000000
1.000000
1.000000
1.000000
1.000000
1.000000
1.000000
1.000000
1.000000
1.000000
1.000000
1.000000
1.000000
1.000000
1.000000
1.000000
1.000000
1.000000
1.000000
1.000000
1.000000
1.000000
1.000000
1.000000
1.000000
1.000000
1.000000
1.000000
1.000000
1.000000
1.000000
1.000000
1.000000
1.000000
1.000000
1.000000
1.000000
1.000000
1.000000
1.000000
1.000000
1.000000
1.000000
1.000000
1.000000
1.000000
1.000000
1.000000
1.000000
1.000000
1.000000
VECTORS fa_u float
0.000000 0.000000 0.000000
0.000000 0.000000 0.000000
0.000000 0.000000 0.000000
0.000000 0.000000 0.000000
0.000000 0.000000 0.000000
0.000000 0.000000 0.000000
0.000000 0.000000 0.000000
0.000000 0.000000 0.000000
0.000000 0.000000 0.000000
0.000000 0.000000 0.000000
0.000000 0.000000 0.000000
0.000000 0.000000 0.000000
0.000000 0.000000 0.000000
0.000000 0.000000 0.000000
0.000000 0.000000 0.000000
0.000000 0.000000 0.000000
0.000000 0.000000 0.000000
0.000000 0.000000 0.000000
0.000000 0.000000 0.000000
0.000000 0.000000 0.000000
0.000000 0.000000 0.000000
0.000000 0.000000 0.000000
0.000000 0.000000 0.000000
0.000000 0.000000 0.000000
0.000000 0.000000 0.000000
0.000000 0.000000 0.000000
0.000000 0.000000 0.000000
0.000000 0.000000 0.000000
0.000000 0.000000 0.000000
0.000000 0.000000 0.000000
0.000000 0.000000 0.000000
0.000000 0.000000 0.000000
0.000000 0.000000 0.000000
0.000000 0.000000 0.000000
0.000000 0.000000 0.000000
0.000000 0.000000 0.000000
0.000000 0.000000 0.000000
0.000000 0.000000 0.000000
0.000000 0.000000 0.000000
0.000000 0.000000 0.000000
0.000000 0.000000 0.000000
0.000000 0.000000 0.000000
0.000000 0.000000 0.000000
0.000000 0.000000 0.000000
0.000000 0.000000 0.000000
0.000000 0.000000 0.000000
0.000000 0.000000 0.000000
0.000000 0.000000 0.000000
0.000000 0.000000 0.000000
0.000000 0.000000 0.000000
0.000000 0.000000 0.000000
0.000000 0.000000 0.000000
0.000000 0.000000 0.000000
0.000000 0.000000 0.000000
0.000000 0.000000 0.000000
0.000000 0.000000 0.000000
0.000000 0.000000 0.000000
0.000000 0.000000 0.000000
0.000000 0.000000 0.000000
0.000000 0.000000 0.000000
0.000000 0.000000 0.000000
0.000000 0.000000 0.000000
0.000000 0.000000 0.000000
0.000000 0.000000 0.000000
0.000000 0.000000 0.000000
0.000000 0.000000 0.000000
0.000000 0.000000 0.000000
0.000000 0.000000 0.000000
0.000000 0.000000 0.000000
0.000000 0.000000 0.000000
0.000000 0.000000 0.000000
0.000000 0.000000 0.000000
0.000000 0.000000 0.000000
0.000000 0.000000 0.000000
0.000000 0.000000 0.000000
0.000000 0.000000 0.000000
0.000000 0.000000 0.000000
0.000000 0.000000 0.000000
0.000000 0.000000 0.000000
0.000000 0.000000 0.000000
0.000000 0.000000 0.000000
0.000000 0.000000 0.000000
0.000000 0.000000 0.000000
0.000000 0.000000 0.000000
0.000000 0.000000 0.000000
0.000000 0.000000 0.000000
0.000000 0.000000 0.000000
0.000000 0.000000 0.000000
0.000000 0.000000 0.000000
0.000000 0.000000 0.000000
0.000000 0.000000 0.000000
0.000000 0.000000 0.000000
0.000000 0.000000 0.000000
0.000000 0.000000 0.000000
0.000000 0.000000 0.000000
0.000000 0.000000 0.000000
0.000000 0.000000 0.000000
0.000000 0.000000 0.000000
0.000000 0.000000 0.000000
0.000000 0.000000 0.000000
0.000000 0.000000 0.000000
0.000000 0.000000 0.000000
0.000000 0.000000 0.000000
0.000000 0.000000 0.000000
0.000000 0.000000 0.000000
0.000000 0.000000 0.000000
0.000000 0.000000 0.000000
0.000000 0.000000 0.000000
0.000000 0.000000 0.000000
0.000000 0.000000 0.000000
0.000000 0.000000 0.000000
0.000000 0.000000 0.000000
0.000000 0.000000 0.000000
0.000000 0.000000 0.000000
0.000000 0.000000 0.000000
0.000000 0.000000 0.000000
0.000000 0.000000 0.000000
0.000000 0.000000 0.000000
0.000000 0.000000 0.000000
0.000000 0.000000 0.000000
0.000000 0.000000 0.000000
0.000000 0.000000 0.000000
0.000000 0.000000 0.000000
0.000000 0.000000 0.000000
0.000000 0.000000 0.000000
0.000000 0.000000 0.000000
0.000000 0.000000 0.000000
0.000000 0.000000 0.000000
0.000000 0.000000 0.000000
0.000000 0.000000 0.000000
0.000000 0.000000 0.000000
0.000000 0.000000 0.000000
0.000000 0.000000 0.000000
0.000000 0.000000 0.000000
0.000000 0.000000 0.000000
0.000000 0.000000 0.000000
0.000000 0.000000 0.000000
0.000000 0.000000 0.000000
0.000000 0.000000 0.000000
0.000000 0.000000 0.000000
0.000000 0.000000 0.000000
0.000000 0.000000 0.000000
0.000000 0.000000 0.000000
0.000000 0.000000 0.000000
0.000000 0.000000 0.000000
0.000000 0.000000 0.000000
0.000000 0.000000 0.000000
0.000000 0.000000 0.000000
0.000000 0.000000 0.000000
0.000000 0.000000 0.000000
0.000000 0.000000 0.000000
0.000000 0.000000 0.000000
0.000000 0.000000 0.000000
0.000000 0.000000 0.000000
0.000000 0.000000 0.000000
0.000000 0.000000 0.000000
0.000000 0.000000 0.000000
0.000000 0.000000 0.000000
0.000000 0.000000 0.000000
0.000000 0.000000 0.000000
0.000000 0.000000 0.000000
0.000000 0.000000 0.000000
0.000000 0.000000 0.000000
0.000000 0.000000 0.000000
0.000000 0.000000 0.000000
0.000000 0.000000 0.000000
0.000000 0.000000 0.000000
0.000000 0.000000 0.000000
0.000000 0.000000 0.000000
0.000000 0.000000 0.000000
0.000000 0.000000 0.000000
0.000000 0.000000 0.000000
0.000000 0.000000 0.000000
0.000000 0.000000 0.000000
0.000000 0.000000 0.000000
0.000000 0.000000 0.000000
0.000000 0.000000 0.000000
0.000000 0.000000 0.000000
0.000000 0.000000 0.000000
0.000000 0.000000 0.000000
0.000000 0.000000 0.000000
0.000000 0.000000 0.000000
0.000000 0.000000 0.000000
0.000000 0.000000 0.000000
0.000000 0.000000 0.000000
0.000000 0.000000 0.000000
0.000000 0.000000 0.000000
0.000000 0.000000 0.000000
0.000000 0.000000 0.000000
0.000000 0.000000 0.000000
0.000000 0.000000 0.000000
0.000000 0.000000 0.000000
0.000000 0.000000 0.000000
0.000000 0.000000 0.000000
0.000000 0.000000 0.000000
0.000000 0.000000 0.000000
0.000000 0.000000 0.000000
0.000000 0.000000 0.000000
0.000000 0.000000 0.000000
0.000000 0.000000 0.000000
0.000000 0.000000 0.000000
0.000000 0.000000 0.000000
0.000000 0.000000 0.000000
0.000000 0.000000 0.000000
0.000000 0.000000 0.000000
0.000000 0.000000 0.000000
0.000000 0.000000 0.000000
0.000000 0.000000 0.000000
0.000000 0.000000 0.000000
0.000000 0.000000 0.000000
0.000000 0.000000 0.000000
0.000000 0.000000 0.000000
0.000000 0.000000 0.000000
0.000000 0.000000 0.000000
0.000000 0.000000 0.000000
0.000000 0.000000 0.000000
0.000000 0.000000 0.000000
0.000000 0.000000 0.000000
0.000000 0.000000 0.000000
0.000000 0.000000 0.000000
0.000000 0.000000 0.000000
0.000000 0.000000 0.000000
0.000000 0.000000 0.000000
0.000000 0.000000 0.000000
0.000000 0.000000 0.000000
0.000000 0.000000 0.000000
0.000000 0.000000 0.000000
0.000000 0.000000 0.000000
0.000000 0.000000 0.000000
0.000000 0.000000 0.000000
0.000000 0.000000 0.000000
0.000000 0.000000 0.000000
0.000000 0.000000 0.000000
0.000000 0.000000 0.000000
0.000000 0.000000 0.000000
0.000000 0.000000 0.000000
0.000000 0.000000 0.000000
0.000000 0.000000 0.000000
0.000000 0.000000 0.000000
0.000000 0.000000 0.000000
0.000000 0.000000 0.000000
0.000000 0.000000 0.000000
0.000000 0.000000 0.000000
0.000000 0.000000 0.000000
0.000000 0.000000 0.000000
0.000000 0.000000 0.000000
0.000000 0.000000 0.000000
0.000000 0.000000 0.000000
0.000000 0.000000 0.000000
0.000000 0.000000 0.000000
0.000000 0.000000 0.000000
0.000000 0.000000 0.000000
0.000000 0.000000 0.000000
0.000000 0.000000 0.000000
0.000000 0.000000 0.000000
0.000000 0.000000 0.000000
0.000000 0.000000 0.000000
0.000000 0.000000 0.000000
0.000000 0.000000 0.000000
0.000000 0.000000 0.000000
0.000000 0.000000 0.000000
0.000000 0.000000 0.000000
0.000000 0.000000 0.000000
0.000000 0.000000 0.000000
0.000000 0.000000 0.000000
0.000000 0.000000 0.000000
0.000000 0.000000 0.000000
0.000000 0.000000 0.000000
0.000000 0.000000 0.000000
0.000000 0.000000 0.000000
0.000000 0.000000 0.000000
0.000000 0.000000 0.000000
0.000000 0.000000 0.000000
0.000000 0.000000 0.000000
0.000000 0.000000 0.000000
0.000000 0.000000 0.000000
0.000000 0.000000 0.000000
0.000000 0.000000 0.000000
0.000000 0.000000 0.000000
0.000000 0.000000 0.000000
0.000000 0.000000 0.000000
0.000000 0.000000 0.000000
0.000000 0.000000 0.000000
0.000000 0.000000 0.000000
0.000000 0.000000 0.000000
0.000000 0.000000 0.000000
0.000000 0.000000 0.000000
0.000000 0.000000 0.000000
0.000000 0.000000 0.000000
0.000000 0.000000 0.000000
0.000000 0.000000 0.000000
0.000000 0.000000 0.000000
0.000000 0.000000 0.000000
0.000000 0.000000 0.000000
0.000000 0.000000 0.000000
0.000000 0.000000 0.000000
0.000000 0.000000 -50.000000
-50.000000 0.000000 -50.000000
-43.332951 0.000000 -45.688399
-45.491163 0.000000 -43.332878
-50.000000 0.000000 -50.000000
-36.665875 0.000000 -36.665863
-50.000000 0.000000 -45.081134
-39.969805 0.000000 -40.027208
-44.152294 0.000000 -29.998813
-50.000000 0.000000 -50.000000
-29.998833 0.000000 -44.847104
-33.448938 0.000000 -33.144927
-44.675706 0.000000 -39.869145
-36.787013 0.000000 -35.128677
-39.801332 0.000000 -23.331920
-50.000000 0.000000 -26.539165
-44.666756 0.000000 -50.000000
-23.331962 0.000000 -44.665284
-26.803951 0.000000 -39.364258
-30.225709 0.000000 -29.606295
-39.359390 0.000000 -33.368263
-33.655479 0.000000 -50.000000
-16.665343 0.000000 -16.665326
-50.000000 0.000000 -9.999040
