# vtk DataFile Version 2.0
CellBP Time: 1.68
ASCII
DATASET UNSTRUCTURED_GRID
POINTS 320 double
-50.000000 -50.000000 0.000000
-50.000000 -43.333204 0.000000
-45.688308 -45.491080 0.000000
-43.333181 -50.000000 0.000000
-50.000000 -36.666401 0.000000
-36.666398 -50.000000 0.000000
-45.081036 -39.969739 0.000000
-40.027068 -44.152204 0.000000
-29.999603 -50.000000 0.000000
-50.000000 -29.999608 0.000000
-44.847005 -33.448875 0.000000
-33.144825 -44.675607 0.000000
-39.869024 -36.786938 0.000000
-35.128535 -39.801207 0.000000
-23.332859 -50.000000 0.000000
-26.539060 -44.666704 0.000000
-50.000000 -23.332871 0.000000
-44.665239 -26.803866 0.000000
-39.364165 -30.225621 0.000000
-29.606138 -39.359286 0.000000
-33.368095 -33.655355 0.000000
-50.000000 -16.666218 0.000000
-16.666214 -50.000000 0.000000
-9.999672 -50.000000 0.000000
-19.964778 -44.588784 0.000000
-23.215796 -39.114661 0.000000
-44.691904 -20.096857 0.000000
-39.367821 -23.528128 0.000000
-34.106046 -26.936967 0.000000
-26.384283 -33.577142 0.000000
-29.156060 -28.926523 0.000000
-50.000000 -9.999639 0.000000
-44.666374 -13.410138 0.000000
-50.000000 -3.333155 0.000000
-3.333216 -50.000000 0.000000
3.333214 -50.000000 0.000000
-13.343530 -44.599081 0.000000
-6.684644 -44.610780 0.000000
-16.693624 -39.153352 0.000000
-20.106922 -33.342680 0.000000
-39.338190 -16.804812 0.000000
-34.018589 -20.274715 0.000000
-28.780774 -23.448980 0.000000
-23.510392 -27.350043 0.000000
-44.635513 -6.705584 0.000000
-39.293073 -10.101872 0.000000
-50.000000 3.333275 0.000000
-44.626846 -0.015702 0.000000
9.999682 -50.000000 0.000000
16.666229 -50.000000 0.000000
-0.016082 -44.618844 0.000000
6.651585 -44.635501 0.000000
-10.044635 -39.222634 0.000000
-3.368199 -39.220468 0.000000
-13.484254 -33.798826 0.000000
-16.709731 -28.271425 0.000000
-33.948100 -13.514245 0.000000
-28.601544 -16.892495 0.000000
-23.291290 -20.312902 0.000000
-18.660205 -23.282488 0.000000
-39.267602 -3.392913 0.000000
-33.904585 -6.796793 0.000000
-50.000000 9.999720 0.000000
-44.606865 6.673281 0.000000
-39.261045 3.325603 0.000000
-50.000000 16.666250 0.000000
23.332860 -50.000000 0.000000
29.999579 -50.000000 0.000000
13.317339 -44.662994 0.000000
19.989460 -44.700122 0.000000
3.307690 -39.245178 0.000000
9.971784 -39.290303 0.000000
-6.735215 -33.791398 0.000000
-0.032316 -33.829672 0.000000
-10.095930 -28.293635 0.000000
-13.122811 -22.898487 0.000000
-28.532774 -10.215153 0.000000
-23.066542 -13.663251 0.000000
-16.977059 -17.208890 0.000000
-33.884873 -0.065450 0.000000
-28.563307 -3.578779 0.000000
-44.564195 13.380292 0.000000
-39.190180 10.014977 0.000000
-33.905885 6.615992 0.000000
-50.000000 23.332856 0.000000
-44.557741 20.138044 0.000000
-50.000000 29.999613 0.000000
36.666364 -50.000000 0.000000
43.333174 -50.000000 0.000000
26.663089 -44.745270 0.000000
33.315182 -44.875890 0.000000
16.631631 -39.357702 0.000000
23.328177 -39.437056 0.000000
6.642818 -33.879520 0.000000
13.290806 -33.965475 0.000000
-3.345535 -28.362886 0.000000
3.357040 -28.451328 0.000000
-6.626007 -22.846277 0.000000
-9.970777 -17.314854 0.000000
-23.185293 -7.014950 0.000000
-17.810433 -10.334922 0.000000
-12.837350 -12.590132 0.000000
-28.607588 3.088488 0.000000
-23.264854 -0.468229 0.000000
-39.039070 16.746471 0.000000
-28.721408 9.926462 0.000000
-33.761732 13.318486 0.000000
-44.521680 26.716770 0.000000
-38.467738 23.892452 0.000000
-44.632167 33.085408 0.000000
-50.000000 36.666450 0.000000
-50.000000 43.333218 0.000000
39.922286 -45.069515 0.000000
45.474594 -45.660370 0.000000
50.000000 -50.000000 0.000000
36.626704 -39.981888 0.000000
30.012245 -39.458544 0.000000
19.904199 -34.092726 0.000000
26.584975 -34.319407 0.000000
9.988857 -28.513566 0.000000
16.611011 -28.659827 0.000000
0.052176 -22.959223 0.000000
6.812279 -23.158350 0.000000
-3.400997 -17.297564 0.000000
-6.863387 -11.021191 0.000000
-17.878402 -3.828317 0.000000
-12.553839 -7.036153 0.000000
-23.310645 6.073522 0.000000
-18.037856 2.454843 0.000000
-23.122047 12.095630 0.000000
-33.572101 19.788934 0.000000
-27.941280 16.885370 0.000000
-33.292717 24.722601 0.000000
-39.473377 30.052613 0.000000
-35.160114 28.137376 0.000000
-39.815789 35.101259 0.000000
-43.991579 39.982040 0.000000
-45.430959 45.685054 0.000000
-50.000000 50.000000 0.000000
44.117158 -39.898881 0.000000
50.000000 -43.333113 0.000000
39.639331 -35.047304 0.000000
33.462816 -33.424451 0.000000
22.984836 -28.817839 0.000000
28.730918 -29.247700 0.000000
13.460768 -23.121754 0.000000
20.054825 -23.438717 0.000000
3.387791 -17.587029 0.000000
10.127238 -17.840081 0.000000
0.143451 -11.999757 0.000000
-2.153169 -6.262122 0.000000
-7.396298 -3.699148 0.000000
-12.621046 -0.802790 0.000000
-18.162608 8.573194 0.000000
-12.964358 5.196987 0.000000
-18.639301 13.752151 0.000000
-21.504675 17.495149 0.000000
-28.940635 23.158290 0.000000
-24.346206 21.554767 0.000000
-30.323361 28.634704 0.000000
-34.253265 33.375474 0.000000
-36.955831 39.578022 0.000000
-39.838628 45.102677 0.000000
-43.333168 50.000000 0.000000
44.585159 -32.971953 0.000000
50.000000 -36.666292 0.000000
39.129256 -29.581716 0.000000
33.500525 -26.367576 0.000000
27.182699 -23.322082 0.000000
23.065734 -18.647726 0.000000
16.989333 -16.979624 0.000000
6.711841 -12.215452 0.000000
12.353084 -12.732699 0.000000
-3.384420 -1.494097 0.000000
3.932265 -7.014853 0.000000
1.021880 -2.120986 0.000000
-7.007822 2.326311 0.000000
-8.428740 7.822784 0.000000
-12.846661 11.933133 0.000000
-15.692807 17.700556 0.000000
-19.287174 22.982954 0.000000
-24.170940 27.354943 0.000000
-27.286262 33.626116 0.000000
-30.406572 39.161277 0.000000
-33.447704 44.738851 0.000000
-36.666346 50.000000 0.000000
44.547713 -26.499745 0.000000
50.000000 -29.999482 0.000000
39.040026 -23.179196 0.000000
33.449807 -19.899937 0.000000
28.040129 -16.574396 0.000000
22.683552 -13.124250 0.000000
17.176596 -9.909699 0.000000
10.933342 -6.644208 0.000000
-1.351827 2.307430 0.000000
6.219786 -1.739759 0.000000
2.908174 1.600684 0.000000
-3.540352 7.178802 0.000000
-6.312222 12.444619 0.000000
-9.629305 17.701784 0.000000
-13.166730 23.112284 0.000000
-17.316472 28.185242 0.000000
-20.570540 33.474477 0.000000
-23.665790 39.064041 0.000000
-26.830722 44.585386 0.000000
-29.999580 50.000000 0.000000
44.528731 -19.930458 0.000000
50.000000 -23.332746 0.000000
39.036402 -16.594003 0.000000
33.576397 -13.281174 0.000000
28.150848 -9.964835 0.000000
22.726054 -6.604464 0.000000
17.264517 -3.337239 0.000000
12.006802 0.192376 0.000000
1.929923 6.291780 0.000000
7.029359 3.836436 0.000000
-0.213308 11.969562 0.000000
-3.268956 17.529674 0.000000
-6.701016 22.978164 0.000000
-10.567955 28.267602 0.000000
-13.723821 33.661579 0.000000
-16.945513 39.080453 0.000000
-20.140345 44.548499 0.000000
-23.332872 50.000000 0.000000
44.536352 -13.303562 0.000000
50.000000 -16.666119 0.000000
39.079989 -9.966589 0.000000
33.646830 -6.640885 0.000000
28.235944 -3.307327 0.000000
22.846096 0.018421 0.000000
17.534018 3.361407 0.000000
12.213681 6.597808 0.000000
6.723862 10.850562 0.000000
3.301314 17.195476 0.000000
-0.081584 22.851055 0.000000
-3.518377 28.312549 0.000000
-6.831171 33.774306 0.000000
-10.137193 39.170582 0.000000
-13.435496 44.563608 0.000000
-16.666250 50.000000 0.000000
44.554437 -6.654638 0.000000
50.000000 -9.999615 0.000000
39.123467 -3.321274 0.000000
33.713442 0.008773 0.000000
28.333174 3.343908 0.000000
23.001958 6.693768 0.000000
17.832105 10.023488 0.000000
12.654784 12.226384 0.000000
9.791240 17.234988 0.000000
6.477602 22.722400 0.000000
3.188579 28.269430 0.000000
-0.115858 33.734673 0.000000
-3.425103 39.168561 0.000000
-6.725270 44.581874 0.000000
-9.999710 50.000000 0.000000
44.575732 0.001933 0.000000
50.000000 -3.333204 0.000000
39.166858 3.331914 0.000000
33.779215 6.655562 0.000000
28.424184 9.995088 0.000000
23.046325 13.416526 0.000000
16.947971 17.021992 0.000000
12.901666 22.670893 0.000000
9.814628 28.232278 0.000000
6.604144 33.718709 0.000000
3.286549 39.164420 0.000000
-0.029839 44.584620 0.000000
-3.333235 50.000000 0.000000
44.586770 6.665457 0.000000
50.000000 3.333194 0.000000
39.198019 9.981896 0.000000
33.843347 13.277102 0.000000
28.541725 16.584894 0.000000
23.386563 20.084365 0.000000
18.531691 23.111975 0.000000
16.393392 28.298751 0.000000
13.328887 33.754788 0.000000
9.986491 39.181963 0.000000
6.665921 44.584408 0.000000
3.333217 50.000000 0.000000
44.608908 13.317792 0.000000
50.000000 9.999652 0.000000
39.251324 16.612379 0.000000
33.931788 19.862854 0.000000
28.612172 22.925994 0.000000
23.279588 27.207457 0.000000
19.901266 33.303150 0.000000
16.573678 39.040984 0.000000
13.268204 44.526806 0.000000
9.999682 50.000000 0.000000
44.632072 19.972824 0.000000
50.000000 16.666204 0.000000
39.298447 23.262043 0.000000
34.043714 26.514662 0.000000
28.965664 28.539437 0.000000
26.202284 33.410096 0.000000
23.066623 38.968838 0.000000
19.888430 44.507076 0.000000
16.666206 50.000000 0.000000
44.639768 26.642775 0.000000
50.000000 23.332843 0.000000
39.293301 29.966598 0.000000
33.212295 33.371202 0.000000
29.412008 39.045809 0.000000
26.422254 44.505954 0.000000
23.332830 50.000000 0.000000
44.774915 33.291691 0.000000
50.000000 29.999568 0.000000
39.738121 36.596232 0.000000
34.830958 39.525531 0.000000
32.833717 44.514218 0.000000
29.999548 50.000000 0.000000
44.978177 39.877777 0.000000
50.000000 36.666357 0.000000
39.734756 43.968945 0.000000
36.666336 50.000000 0.000000
45.621216 45.409714 0.000000
50.000000 43.333170 0.000000
43.333135 50.000000 0.000000
50.000000 50.000000 0.000000
CELLS 578 2312
3 1 0 2
3 0 3 2
3 4 1 6
3 6 1 2
3 3 5 7
3 3 7 2
3 6 2 7
3 9 4 10
3 10 4 6
3 5 8 11
3 7 5 11
3 10 6 12
3 12 6 7
3 7 11 13
3 7 13 12
3 8 14 15
3 11 8 15
3 16 9 17
3 17 9 10
3 17 10 18
3 18 10 12
3 11 15 19
3 13 11 19
3 18 12 20
3 13 19 20
3 20 12 13
3 14 22 24
3 15 14 24
3 15 24 25
3 19 15 25
3 21 16 26
3 26 16 17
3 26 17 27
3 27 17 18
3 27 18 28
3 28 18 20
3 19 25 29
3 19 29 20
3 28 20 30
3 30 20 29
3 31 21 32
3 32 21 26
3 22 23 36
3 24 22 36
3 23 34 37
3 36 23 37
3 24 36 38
3 25 24 38
3 25 38 39
3 29 25 39
3 32 26 40
3 40 26 27
3 40 27 41
3 41 27 28
3 41 28 42
3 42 28 30
3 29 39 43
3 29 43 30
3 42 30 43
3 33 31 44
3 44 31 32
3 44 32 45
3 45 32 40
3 46 33 47
3 47 33 44
3 34 35 50
3 37 34 50
3 35 48 51
3 50 35 51
3 36 37 52
3 38 36 52
3 37 50 53
3 52 37 53
3 38 52 54
3 39 38 54
3 39 54 55
3 43 39 55
3 45 40 56
3 56 40 41
3 56 41 57
3 57 41 42
3 57 42 58
3 58 42 43
3 43 55 59
3 43 59 58
3 47 44 60
3 60 44 45
3 60 45 61
3 61 45 56
3 62 46 63
3 63 46 47
3 63 47 64
3 64 47 60
3 48 49 68
3 51 48 68
3 49 66 69
3 68 49 69
3 50 51 70
3 53 50 70
3 51 68 71
3 70 51 71
3 52 53 72
3 54 52 72
3 53 70 73
3 72 53 73
3 54 72 74
3 55 54 74
3 55 74 75
3 59 55 75
3 61 56 76
3 76 56 57
3 76 57 77
3 77 57 58
3 77 58 78
3 59 75 78
3 78 58 59
3 64 60 79
3 79 60 61
3 79 61 80
3 80 61 76
3 65 62 81
3 81 62 63
3 81 63 82
3 82 63 64
3 82 64 83
3 83 64 79
3 84 65 85
3 85 65 81
3 66 67 89
3 69 66 89
3 67 87 90
3 89 67 90
3 68 69 91
3 71 68 91
3 69 89 92
3 91 69 92
3 70 71 93
3 73 70 93
3 71 91 94
3 93 71 94
3 72 73 95
3 74 72 95
3 73 93 96
3 95 73 96
3 74 95 97
3 75 74 97
3 75 97 98
3 78 75 98
3 80 76 99
3 99 76 77
3 99 77 100
3 100 77 78
3 100 78 101
3 98 101 78
3 83 79 102
3 102 79 80
3 102 80 103
3 103 80 99
3 85 81 104
3 104 81 82
3 105 83 102
3 104 82 106
3 106 82 83
3 106 83 105
3 86 84 107
3 107 84 85
3 107 85 108
3 108 85 104
3 109 86 107
3 110 86 109
3 87 88 112
3 90 87 112
3 112 88 113
3 88 114 113
3 90 112 115
3 89 90 116
3 92 89 116
3 116 90 115
3 91 92 117
3 94 91 117
3 92 116 118
3 117 92 118
3 93 94 119
3 96 93 119
3 94 117 120
3 119 94 120
3 95 96 121
3 97 95 121
3 96 119 122
3 121 96 122
3 97 121 123
3 98 97 123
3 98 123 124
3 98 124 101
3 103 99 125
3 125 99 100
3 125 100 126
3 126 100 101
3 126 101 124
3 105 102 127
3 127 102 103
3 127 103 128
3 128 103 125
3 129 105 127
3 108 104 130
3 130 104 106
3 130 106 131
3 131 106 105
3 131 105 129
3 108 130 132
3 109 107 133
3 133 107 108
3 133 108 134
3 108 132 134
3 135 109 133
3 111 110 136
3 136 110 109
3 136 109 135
3 137 111 136
3 138 111 137
3 112 113 139
3 115 112 139
3 114 140 113
3 140 139 113
3 139 141 115
3 116 115 142
3 118 116 142
3 142 115 141
3 117 118 143
3 120 117 143
3 118 142 144
3 143 118 144
3 119 120 145
3 122 119 145
3 120 143 146
3 145 120 146
3 121 122 147
3 123 121 147
3 122 145 148
3 147 122 148
3 123 147 149
3 124 123 149
3 124 149 150
3 151 126 124
3 124 150 151
3 128 125 152
3 152 125 126
3 152 126 151
3 129 127 153
3 153 127 128
3 128 152 154
3 153 128 154
3 155 129 153
3 131 129 156
3 156 129 155
3 132 130 157
3 130 131 157
3 157 131 158
3 131 156 158
3 132 157 159
3 132 159 134
3 135 133 160
3 160 133 134
3 160 134 159
3 136 135 161
3 135 160 161
3 162 137 136
3 161 162 136
3 163 138 137
3 162 163 137
3 139 164 141
3 140 165 139
3 139 165 164
3 141 164 166
3 141 166 142
3 166 167 142
3 144 142 167
3 167 168 144
3 143 144 168
3 146 143 168
3 168 169 146
3 145 146 170
3 148 145 170
3 170 146 169
3 147 148 171
3 149 147 171
3 148 170 172
3 171 148 172
3 173 151 150
3 149 171 174
3 150 149 174
3 150 174 175
3 150 175 173
3 154 152 176
3 152 151 176
3 176 151 173
3 154 176 177
3 155 153 178
3 177 178 154
3 154 178 153
3 156 155 179
3 155 178 179
3 180 158 156
3 179 180 156
3 181 159 157
3 180 181 158
3 181 157 158
3 182 160 159
3 181 182 159
3 183 161 160
3 182 183 160
3 184 162 161
3 184 161 183
3 185 163 162
3 184 185 162
3 164 186 166
3 165 187 164
3 164 187 186
3 166 186 188
3 166 188 167
3 167 188 189
3 167 189 168
3 168 189 190
3 168 190 169
3 169 190 191
3 169 191 170
3 192 172 170
3 170 191 192
3 192 193 172
3 171 172 193
3 174 171 193
3 194 173 175
3 176 173 194
3 175 174 195
3 193 195 174
3 195 196 175
3 175 196 194
3 197 177 176
3 194 197 176
3 198 178 177
3 197 198 177
3 199 179 178
3 198 199 178
3 200 180 179
3 199 200 179
3 201 181 180
3 200 201 180
3 202 182 181
3 201 202 181
3 203 183 182
3 202 203 182
3 204 184 183
3 203 204 183
3 205 185 184
3 204 205 184
3 186 206 188
3 187 207 186
3 186 207 206
3 188 206 208
3 188 208 189
3 189 208 209
3 189 209 190
3 190 209 210
3 190 210 191
3 191 210 211
3 191 211 192
3 192 211 212
3 192 212 193
3 193 212 213
3 193 213 195
3 214 197 194
3 214 194 196
3 195 213 215
3 195 215 196
3 196 215 214
3 216 198 197
3 214 216 197
3 217 199 198
3 216 217 198
3 218 200 199
3 217 218 199
3 219 201 200
3 218 219 200
3 220 202 201
3 219 220 201
3 221 203 202
3 220 221 202
3 222 204 203
3 221 222 203
3 223 205 204
3 222 223 204
3 206 224 208
3 207 225 206
3 206 225 224
3 208 224 226
3 208 226 209
3 209 226 227
3 209 227 210
3 210 227 228
3 210 228 211
3 211 228 229
3 211 229 212
3 212 229 230
3 212 230 213
3 213 230 231
3 213 231 215
3 232 216 214
3 215 231 232
3 232 214 215
3 233 217 216
3 232 233 216
3 234 218 217
3 233 234 217
3 235 219 218
3 234 235 218
3 236 220 219
3 235 236 219
3 237 221 220
3 236 237 220
3 238 222 221
3 237 238 221
3 239 223 222
3 238 239 222
3 224 240 226
3 225 241 224
3 224 241 240
3 226 240 242
3 226 242 227
3 227 242 243
3 227 243 228
3 228 243 244
3 228 244 229
3 244 245 229
3 229 245 230
3 230 245 246
3 230 246 231
3 231 246 247
3 231 247 232
3 248 233 232
3 248 232 247
3 249 234 233
3 248 249 233
3 250 235 234
3 249 250 234
3 251 236 235
3 250 251 235
3 252 237 236
3 251 252 236
3 253 238 237
3 252 253 237
3 254 239 238
3 253 254 238
3 240 255 242
3 241 256 240
3 240 256 255
3 242 255 257
3 242 257 243
3 243 257 258
3 243 258 244
3 244 258 259
3 244 259 245
3 245 259 260
3 245 260 246
3 246 260 261
3 246 261 247
3 248 247 261
3 262 249 248
3 261 262 248
3 263 250 249
3 262 263 249
3 264 251 250
3 263 264 250
3 265 252 251
3 264 265 251
3 266 253 252
3 265 266 252
3 267 254 253
3 266 267 253
3 255 268 257
3 256 269 255
3 255 269 268
3 257 268 270
3 257 270 258
3 258 270 271
3 258 271 259
3 259 271 272
3 259 272 260
3 260 272 273
3 260 273 261
3 274 262 261
3 261 273 274
3 275 263 262
3 274 275 262
3 276 264 263
3 275 276 263
3 277 265 264
3 276 277 264
3 278 266 265
3 277 278 265
3 279 267 266
3 278 279 266
3 268 280 270
3 269 281 268
3 268 281 280
3 270 280 282
3 270 282 271
3 271 282 283
3 271 283 272
3 283 284 272
3 272 284 273
3 285 275 274
3 273 284 285
3 285 274 273
3 286 276 275
3 285 286 275
3 287 277 276
3 286 287 276
3 288 278 277
3 287 288 277
3 289 279 278
3 288 289 278
3 280 290 282
3 281 291 280
3 280 291 290
3 282 290 292
3 282 292 283
3 283 292 293
3 283 293 284
3 284 293 294
3 284 294 285
3 295 286 285
3 295 285 294
3 296 287 286
3 295 296 286
3 297 288 287
3 296 297 287
3 298 289 288
3 297 298 288
3 290 299 292
3 291 300 290
3 290 300 299
3 292 299 301
3 292 301 293
3 293 301 302
3 293 302 294
3 294 302 295
3 303 296 295
3 303 295 302
3 304 297 296
3 303 304 296
3 305 298 297
3 304 305 297
3 299 306 301
3 300 307 299
3 299 307 306
3 301 306 308
3 301 308 302
3 309 303 302
3 302 308 309
3 310 304 303
3 309 310 303
3 311 305 304
3 310 311 304
3 306 312 308
3 307 313 306
3 306 313 312
3 314 310 309
3 308 312 314
3 314 309 308
3 315 311 310
3 314 315 310
3 312 316 314
3 313 317 312
3 312 317 316
3 318 315 314
3 318 314 316
3 317 319 316
3 319 318 316
CELL_TYPES 578
5
5
5
5
5
5
5
5
5
5
5
5
5
5
5
5
5
5
5
5
5
5
5
5
5
5
5
5
5
5
5
5
5
5
5
5
5
5
5
5
5
5
5
5
5
5
5
5
5
5
5
5
5
5
5
5
5
5
5
5
5
5
5
5
5
5
5
5
5
5
5
5
5
5
5
5
5
5
5
5
5
5
5
5
5
5
5
5
5
5
5
5
5
5
5
5
5
5
5
5
5
5
5
5
5
5
5
5
5
5
5
5
5
5
5
5
5
5
5
5
5
5
5
5
5
5
5
5
5
5
5
5
5
5
5
5
5
5
5
5
5
5
5
5
5
5
5
5
5
5
5
5
5
5
5
5
5
5
5
5
5
5
5
5
5
5
5
5
5
5
5
5
5
5
5
5
5
5
5
5
5
5
5
5
5
5
5
5
5
5
5
5
5
5
5
5
5
5
5
5
5
5
5
5
5
5
5
5
5
5
5
5
5
5
5
5
5
5
5
5
5
5
5
5
5
5
5
5
5
5
5
5
5
5
5
5
5
5
5
5
5
5
5
5
5
5
5
5
5
5
5
5
5
5
5
5
5
5
5
5
5
5
5
5
5
5
5
5
5
5
5
5
5
5
5
5
5
5
5
5
5
5
5
5
5
5
5
5
5
5
5
5
5
5
5
5
5
5
5
5
5
5
5
5
5
5
5
5
5
5
5
5
5
5
5
5
5
5
5
5
5
5
5
5
5
5
5
5
5
5
5
5
5
5
5
5
5
5
5
5
5
5
5
5
5
5
5
5
5
5
5
5
5
5
5
5
5
5
5
5
5
5
5
5
5
5
5
5
5
5
5
5
5
5
5
5
5
5
5
5
5
5
5
5
5
5
5
5
5
5
5
5
5
5
5
5
5
5
5
5
5
5
5
5
5
5
5
5
5
5
5
5
5
5
5
5
5
5
5
5
5
5
5
5
5
5
5
5
5
5
5
5
5
5
5
5
5
5
5
5
5
5
5
5
5
5
5
5
5
5
5
5
5
5
5
5
5
5
5
5
5
5
5
5
5
5
5
5
5
5
5
5
5
5
5
5
5
5
5
5
5
5
5
5
5
5
5
5
5
5
5
5
5
5
5
5
5
5
5
5
5
5
5
5
5
5
5
5
5
5
5
5
5
5
5
5
5
5
5
5
5
5
5
5
5
5
5
5
5
5
5
5
5
5
5
5
5
5
5
5
5
5
5
5
5
5
5
5
5
5
5
5
5
5
5
5
5
5
5
5
5
5
5
5
5
5
5
5
5
5
5
5
5
5
5
5
5
5
POINT_DATA 320
SCALARS theta_e float 1
LOOKUP_TABLE default
1.000001
1.000001
1.000001
1.000001
1.000001
1.000001
1.000001
1.000001
1.000001
1.000001
1.000001
1.000001
1.000001
1.000001
1.000001
1.000001
1.000001
1.000001
1.000001
1.000001
1.000001
1.000001
1.000001
1.000001
1.000001
1.000001
1.000001
1.000001
1.000001
1.000001
1.000001
1.000001
1.000001
1.000001
1.000001
1.000001
1.000001
1.000001
1.000001
1.000001
1.000001
1.000001
1.000001
1.000001
1.000001
1.000001
1.000001
1.000001
1.000001
1.000001
1.000001
1.000001
1.000001
1.000001
1.000001
1.000001
1.000001
1.000001
1.000001
1.000001
1.000001
1.000001
1.000001
1.000001
1.000001
1.000001
1.000001
1.000001
1.000001
1.000001
1.000001
1.000001
1.000001
1.000001
1.000001
1.000001
1.000001
1.000001
1.000001
1.000001
1.000001
1.000001
1.000001
1.000001
1.000001
1.000001
1.000001
1.000001
1.000001
1.000001
1.000001
1.000001
1.000001
1.000001
1.000001
1.000000
1.000000
1.000000
1.000001
1.000001
1.000001
1.000000
1.000001
1.000001
1.000001
1.000001
1.000001
1.000001
1.000001
1.000001
1.000001
1.000000
1.000001
1.000001
1.000001
1.000001
1.000001
1.000001
1.000001
1.000001
1.000001
1.000000
1.000000
1.000000
0.999996
1.000001
0.999999
1.000001
1.000001
1.000001
1.000001
1.000001
1.000001
1.000001
1.000001
1.000001
1.000000
1.000000
1.000000
1.000001
1.000001
1.000001
1.000001
1.000001
1.000001
1.000001
1.000001
1.000000
1.000000
0.999996
0.999983
0.999989
0.999997
1.000001
0.999998
1.000001
1.000001
1.000001
1.000001
1.000001
1.000001
1.000001
1.000000
1.000000
1.000001
1.000001
1.000001
1.000001
1.000001
1.000001
1.000001
0.999998
1.000000
0.999976
0.999987
0.999976
0.999985
0.999995
1.000001
1.000001
1.000001
1.000001
1.000001
1.000001
1.000000
1.000000
1.000001
1.000001
1.000001
1.000001
1.000001
1.000001
1.000001
0.999996
0.999977
0.999983
0.999976
0.999986
0.999999
1.000001
1.000001
1.000001
1.000001
1.000001
1.000001
1.000000
1.000001
1.000001
1.000001
1.000001
1.000001
1.000001
1.000001
0.999996
0.999983
0.999987
0.999995
1.000001
1.000001
1.000001
1.000001
1.000001
1.000001
1.000001
1.000001
1.000001
1.000001
1.000001
1.000001
1.000001
1.000001
0.999999
0.999996
1.000001
1.000001
1.000001
1.000001
1.000001
1.000001
1.000001
1.000001
1.000001
1.000001
1.000001
1.000001
1.000001
1.000001
1.000001
1.000001
1.000001
1.000001
1.000001
1.000001
1.000001
1.000001
1.000001
1.000001
1.000001
1.000001
1.000001
1.000001
1.000001
1.000001
1.000001
1.000001
1.000001
1.000001
1.000001
1.000001
1.000001
1.000001
1.000001
1.000001
1.000001
1.000001
1.000001
1.000001
1.000001
1.000001
1.000001
1.000001
1.000001
1.000001
1.000001
1.000001
1.000001
1.000001
1.000001
1.000001
1.000001
1.000001
1.000001
1.000001
1.000001
1.000001
1.000001
1.000001
1.000001
1.000001
1.000001
1.000001
1.000001
1.000001
1.000001
1.000001
1.000001
1.000001
1.000001
1.000001
1.000001
1.000001
1.000001
1.000001
1.000001
1.000001
1.000001
1.000001
1.000001
1.000001
1.000001
VECTORS fa_u float
0.000000 0.000000 0.000000
0.000000 0.000000 0.000000
0.000000 0.000000 0.000000
0.000000 0.000000 0.000000
0.000000 0.000000 0.000000
0.000000 0.000000 0.000000
0.000000 0.000000 0.000000
0.000000 0.000000 0.000000
0.000000 0.000000 0.000000
0.000000 0.000000 0.000000
0.000000 0.000000 0.000000
0.000000 0.000000 0.000000
0.000000 0.000000 0.000000
0.000000 0.000000 0.000000
0.000000 0.000000 0.000000
0.000000 0.000000 0.000000
0.000000 0.000000 0.000000
0.000000 0.000000 0.000000
0.000000 0.000000 0.000000
0.000000 0.000000 0.000000
0.000000 0.000000 0.000000
0.000000 0.000000 0.000000
0.000000 0.000000 0.000000
0.000000 0.000000 0.000000
0.000000 0.000000 0.000000
0.000000 0.000000 0.000000
0.000000 0.000000 0.000000
0.000000 0.000000 0.000000
0.000000 0.000000 0.000000
0.000000 0.000000 0.000000
0.000000 0.000000 0.000000
0.000000 0.000000 0.000000
0.000000 0.000000 0.000000
0.000000 0.000000 0.000000
0.000000 0.000000 0.000000
0.000000 0.000000 0.000000
0.000000 0.000000 0.000000
0.000000 0.000000 0.000000
0.000000 0.000000 0.000000
0.000000 0.000000 0.000000
0.000000 0.000000 0.000000
0.000000 0.000000 0.000000
0.000000 0.000000 0.000000
0.000000 0.000000 0.000000
0.000000 0.000000 0.000000
0.000000 0.000000 0.000000
0.000000 0.000000 0.000000
0.000000 0.000000 0.000000
0.000000 0.000000 0.000000
0.000000 0.000000 0.000000
0.000000 0.000000 0.000000
0.000000 0.000000 0.000000
0.000000 0.000000 0.000000
0.000000 0.000000 0.000000
0.000000 0.000000 0.000000
0.000000 0.000000 0.000000
0.000000 0.000000 0.000000
0.000000 0.000000 0.000000
0.000000 0.000000 0.000000
0.000000 0.000000 0.000000
0.000000 0.000000 0.000000
0.000000 0.000000 0.000000
0.000000 0.000000 0.000000
0.000000 0.000000 0.000000
0.000000 0.000000 0.000000
0.000000 0.000000 0.000000
0.000000 0.000000 0.000000
0.000000 0.000000 0.000000
0.000000 0.000000 0.000000
0.000000 0.000000 0.000000
0.000000 0.000000 0.000000
0.000000 0.000000 0.000000
0.000000 0.000000 0.000000
0.000000 0.000000 0.000000
0.000000 0.000000 0.000000
0.000000 0.000000 0.000000
0.000000 0.000000 0.000000
0.000000 0.000000 0.000000
0.000000 0.000000 0.000000
0.000000 0.000000 0.000000
0.000000 0.000000 0.000000
0.000000 0.000000 0.000000
0.000000 0.000000 0.000000
0.000000 0.000000 0.000000
0.000000 0.000000 0.000000
0.000000 0.000000 0.000000
0.000000 0.000000 0.000000
0.000000 0.000000 0.000000
0.000000 0.000000 0.000000
0.000000 0.000000 0.000000
0.000000 0.000000 0.000000
0.000000 0.000000 0.000000
0.000000 0.000000 0.000000
0.000000 0.000000 0.000000
0.000000 0.000000 0.000000
0.000000 0.000000 0.000000
0.000000 0.000000 0.000000
0.000000 0.000000 0.000000
0.000000 0.000000 0.000000
0.000000 0.000000 0.000000
0.000000 0.000000 0.000000
0.000000 0.000000 0.000000
0.000000 0.000000 0.000000
0.000000 0.000000 0.000000
0.000000 0.000000 0.000000
0.000000 0.000000 0.000000
0.000000 0.000000 0.000000
0.000000 0.000000 0.000000
0.000000 0.000000 0.000000
0.000000 0.000000 0.000000
0.000000 0.000000 0.000000
0.000000 0.000000 0.000000
0.000000 0.000000 0.000000
0.000000 0.000000 0.000000
0.000000 0.000000 0.000000
0.000000 0.000000 0.000000
0.000000 0.000000 0.000000
0.000000 0.000000 0.000000
0.000000 0.000000 0.000000
0.000000 0.000000 0.000000
0.000000 0.000000 0.000000
0.000000 0.000000 0.000000
0.000000 0.000000 0.000000
0.000000 0.000000 0.000000
0.000000 0.000000 0.000000
0.000000 0.000000 0.000000
0.000000 0.000000 0.000000
0.000000 0.000000 0.000000
0.000000 0.000000 0.000000
0.000000 0.000000 0.000000
0.000000 0.000000 0.000000
0.000000 0.000000 0.000000
0.000000 0.000000 0.000000
0.000000 0.000000 0.000000
0.000000 0.000000 0.000000
0.000000 0.000000 0.000000
0.000000 0.000000 0.000000
0.000000 0.000000 0.000000
0.000000 0.000000 0.000000
0.000000 0.000000 0.000000
0.000000 0.000000 0.000000
0.000000 0.000000 0.000000
0.000000 0.000000 0.000000
0.000000 0.000000 0.000000
0.000000 0.000000 0.000000
0.000000 0.000000 0.000000
0.000000 0.000000 0.000000
0.000000 0.000000 0.000000
0.000000 0.000000 0.000000
0.000000 0.000000 0.000000
0.000000 0.000000 0.000000
0.000000 0.000000 0.000000
0.000000 0.000000 0.000000
0.000000 0.000000 0.000000
0.000000 0.000000 0.000000
0.000000 0.000000 0.000000
0.000000 0.000000 0.000000
0.000000 0.000000 0.000000
0.000000 0.000000 0.000000
0.000000 0.000000 0.000000
0.000000 0.000000 0.000000
0.000000 0.000000 0.000000
0.000000 0.000000 0.000000
0.000000 0.000000 0.000000
0.000000 0.000000 0.000000
0.000000 0.000000 0.000000
0.000000 0.000000 0.000000
0.000000 0.000000 0.000000
0.000000 0.000000 0.000000
0.000000 0.000000 0.000000
0.000000 0.000000 0.000000
0.000000 0.000000 0.000000
0.000000 0.000000 0.000000
0.000000 0.000000 0.000000
0.000000 0.000000 0.000000
0.000000 0.000000 0.000000
0.000000 0.000000 0.000000
0.000000 0.000000 0.000000
0.000000 0.000000 0.000000
0.000000 0.000000 0.000000
0.000000 0.000000 0.000000
0.000000 0.000000 0.000000
0.000000 0.000000 0.000000
0.000000 0.000000 0.000000
0.000000 0.000000 0.000000
0.000000 0.000000 0.000000
0.000000 0.000000 0.000000
0.000000 0.000000 0.000000
0.000000 0.000000 0.000000
0.000000 0.000000 0.000000
0.000000 0.000000 0.000000
0.000000 0.000000 0.000000
0.000000 0.000000 0.000000
0.000000 0.000000 0.000000
0.000000 0.000000 0.000000
0.000000 0.000000 0.000000
0.000000 0.000000 0.000000
0.000000 0.000000 0.000000
0.000000 0.000000 0.000000
0.000000 0.000000 0.000000
0.000000 0.000000 0.000000
0.000000 0.000000 0.000000
0.000000 0.000000 0.000000
0.000000 0.000000 0.000000
0.000000 0.000000 0.000000
0.000000 0.000000 0.000000
0.000000 0.000000 0.000000
0.000000 0.000000 0.000000
0.000000 0.000000 0.000000
0.000000 0.000000 0.000000
0.000000 0.000000 0.000000
0.000000 0.000000 0.000000
0.000000 0.000000 0.000000
0.000000 0.000000 0.000000
0.000000 0.000000 0.000000
0.000000 0.000000 0.000000
0.000000 0.000000 0.000000
0.000000 0.000000 0.000000
0.000000 0.000000 0.000000
0.000000 0.000000 0.000000
0.000000 0.000000 0.000000
0.000000 0.000000 0.000000
0.000000 0.000000 0.000000
0.000000 0.000000 0.000000
0.000000 0.000000 0.000000
0.000000 0.000000 0.000000
0.000000 0.000000 0.000000
0.000000 0.000000 0.000000
0.000000 0.000000 0.000000
0.000000 0.000000 0.000000
0.000000 0.000000 0.000000
0.000000 0.000000 0.000000
0.000000 0.000000 0.000000
0.000000 0.000000 0.000000
0.000000 0.000000 0.000000
0.000000 0.000000 0.000000
0.000000 0.000000 0.000000
0.000000 0.000000 0.000000
0.000000 0.000000 0.000000
0.000000 0.000000 0.000000
0.000000 0.000000 0.000000
0.000000 0.000000 0.000000
0.000000 0.000000 0.000000
0.000000 0.000000 0.000000
0.000000 0.000000 0.000000
0.000000 0.000000 0.000000
0.000000 0.000000 0.000000
0.000000 0.000000 0.000000
0.000000 0.000000 0.000000
0.000000 0.000000 0.000000
0.000000 0.000000 0.000000
0.000000 0.000000 0.000000
0.000000 0.000000 0.000000
0.000000 0.000000 0.000000
0.000000 0.000000 0.000000
0.000000 0.000000 0.000000
0.000000 0.000000 0.000000
0.000000 0.000000 0.000000
0.000000 0.000000 0.000000
0.000000 0.000000 0.000000
0.000000 0.000000 0.000000
0.000000 0.000000 0.000000
0.000000 0.000000 0.000000
0.000000 0.000000 0.000000
0.000000 0.000000 0.000000
0.000000 0.000000 0.000000
0.000000 0.000000 0.000000
0.000000 0.000000 0.000000
0.000000 0.000000 0.000000
0.000000 0.000000 0.000000
0.000000 0.000000 0.000000
0.000000 0.000000 0.000000
0.000000 0.000000 0.000000
0.000000 0.000000 0.000000
0.000000 0.000000 0.000000
0.000000 0.000000 0.000000
0.000000 0.000000 0.000000
0.000000 0.000000 0.000000
0.000000 0.000000 0.000000
0.000000 0.000000 0.000000
0.000000 0.000000 0.000000
0.000000 0.000000 0.000000
0.000000 0.000000 0.000000
0.000000 0.000000 0.000000
0.000000 0.000000 0.000000
0.000000 0.000000 0.000000
0.000000 0.000000 0.000000
0.000000 0.000000 0.000000
0.000000 0.000000 0.000000
0.000000 0.000000 0.000000
0.000000 0.000000 0.000000
0.000000 0.000000 0.000000
0.000000 0.000000 0.000000
0.000000 0.000000 0.000000
0.000000 0.000000 0.000000
0.000000 0.000000 0.000000
0.000000 0.000000 -50.000000
-50.000000 0.000000 -50.000000
-43.333204 0.000000 -45.688308
-45.491080 0.000000 -43.333181
-50.000000 0.000000 -50.000000
-36.666401 0.000000 -36.666398
-50.000000 0.000000 -45.081036
-39.969739 0.000000 -40.027068
-44.152204 0.000000 -29.999603
-50.000000 0.000000 -50.000000
-29.999608 0.000000 -44.847005
-33.448875 0.000000 -33.144825
-44.675607 0.000000 -39.869024
-36.786938 0.000000 -35.128535
-39.801207 0.000000 -23.332859
-50.000000 0.000000 -26.539060
-44.666704 0.000000 -50.000000
-23.332871 0.000000 -44.665239
-26.803866 0.000000 -39.364165
-30.225621 0.000000 -29.606138
-39.359286 0.000000 -33.368095
-33.655355 0.000000 -50.000000
-16.666218 0.000000 -16.666214
-50.000000 0.000000 -9.999672
