# vtk DataFile Version 2.0
CellBP Time: 1.88
ASCII
DATASET UNSTRUCTURED_GRID
POINTS 320 double
-50.000000 -50.000000 0.000000
-50.000000 -43.333171 0.000000
-45.688320 -45.491089 0.000000
-43.333146 -50.000000 0.000000
-50.000000 -36.666333 0.000000
-36.666337 -50.000000 0.000000
-45.081049 -39.969743 0.000000
-40.027087 -44.152212 0.000000
-29.999513 -50.000000 0.000000
-50.000000 -29.999508 0.000000
-44.847018 -33.448878 0.000000
-33.144841 -44.675617 0.000000
-39.869040 -36.786943 0.000000
-35.128555 -39.801219 0.000000
-23.332753 -50.000000 0.000000
-26.539077 -44.666709 0.000000
-50.000000 -23.332753 0.000000
-44.665245 -26.803871 0.000000
-39.364178 -30.225626 0.000000
-29.606160 -39.359295 0.000000
-33.368118 -33.655365 0.000000
-50.000000 -16.666103 0.000000
-16.666113 -50.000000 0.000000
-9.999601 -50.000000 0.000000
-19.964797 -44.588781 0.000000
-23.215813 -39.114664 0.000000
-44.691902 -20.096860 0.000000
-39.367828 -23.528126 0.000000
-34.106062 -26.936970 0.000000
-26.384305 -33.577156 0.000000
-29.156084 -28.926534 0.000000
-50.000000 -9.999548 0.000000
-44.666372 -13.410140 0.000000
-50.000000 -3.333112 0.000000
-3.333194 -50.000000 0.000000
3.333183 -50.000000 0.000000
-13.343549 -44.599073 0.000000
-6.684655 -44.610770 0.000000
-16.693638 -39.153343 0.000000
-20.106934 -33.342678 0.000000
-39.338188 -16.804800 0.000000
-34.018609 -20.274703 0.000000
-28.780802 -23.448987 0.000000
-23.510411 -27.350077 0.000000
-44.635505 -6.705578 0.000000
-39.293076 -10.101861 0.000000
-50.000000 3.333258 0.000000
-44.626834 -0.015688 0.000000
9.999607 -50.000000 0.000000
16.666129 -50.000000 0.000000
-0.016084 -44.618835 0.000000
6.651594 -44.635495 0.000000
-10.044647 -39.222629 0.000000
-3.368202 -39.220458 0.000000
-13.484258 -33.798811 0.000000
-16.709702 -28.271431 0.000000
-33.948096 -13.514210 0.000000
-28.601593 -16.892472 0.000000
-23.291350 -20.312916 0.000000
-18.660239 -23.282566 0.000000
-39.267593 -3.392897 0.000000
-33.904582 -6.796786 0.000000
-50.000000 9.999647 0.000000
-44.606852 6.673301 0.000000
-39.261030 3.325614 0.000000
-50.000000 16.666143 0.000000
23.332755 -50.000000 0.000000
29.999486 -50.000000 0.000000
13.317358 -44.662991 0.000000
19.989480 -44.700121 0.000000
3.307690 -39.245175 0.000000
9.971790 -39.290305 0.000000
-6.735232 -33.791395 0.000000
-0.032309 -33.829663 0.000000
-10.095933 -28.293587 0.000000
-13.122807 -22.898397 0.000000
-28.532725 -10.215106 0.000000
-23.066600 -13.663265 0.000000
-16.977149 -17.209031 0.000000
-33.884846 -0.065448 0.000000
-28.563286 -3.578825 0.000000
-44.564186 13.380318 0.000000
-39.190167 10.014987 0.000000
-33.905867 6.615996 0.000000
-50.000000 23.332735 0.000000
-44.557725 20.138063 0.000000
-50.000000 29.999515 0.000000
36.666299 -50.000000 0.000000
43.333140 -50.000000 0.000000
26.663108 -44.745274 0.000000
33.315196 -44.875899 0.000000
16.631639 -39.357700 0.000000
23.328189 -39.437059 0.000000
6.642826 -33.879521 0.000000
13.290799 -33.965473 0.000000
-3.345564 -28.362915 0.000000
3.357090 -28.451321 0.000000
-6.626013 -22.846223 0.000000
-9.970460 -17.314870 0.000000
-23.185107 -7.014904 0.000000
-17.810587 -10.334907 0.000000
-12.837410 -12.590812 0.000000
-28.607575 3.088498 0.000000
-23.264919 -0.468288 0.000000
-39.039046 16.746466 0.000000
-28.721355 9.926434 0.000000
-33.761695 13.318466 0.000000
-44.521681 26.716790 0.000000
-38.467739 23.892463 0.000000
-44.632189 33.085429 0.000000
-50.000000 36.666395 0.000000
-50.000000 43.333189 0.000000
39.922298 -45.069524 0.000000
45.474607 -45.660380 0.000000
50.000000 -50.000000 0.000000
36.626715 -39.981895 0.000000
30.012260 -39.458550 0.000000
19.904203 -34.092733 0.000000
26.584984 -34.319413 0.000000
9.988847 -28.513534 0.000000
16.610998 -28.659848 0.000000
0.052114 -22.959365 0.000000
6.812280 -23.158236 0.000000
-3.400879 -17.297522 0.000000
-6.861330 -11.016518 0.000000
-17.878200 -3.827740 0.000000
-12.553732 -7.036071 0.000000
-23.310545 6.073368 0.000000
-18.037683 2.454219 0.000000
-23.122110 12.095654 0.000000
-33.572103 19.788933 0.000000
-27.941298 16.885406 0.000000
-33.292739 24.722617 0.000000
-39.473404 30.052640 0.000000
-35.160145 28.137393 0.000000
-39.815817 35.101279 0.000000
-43.991594 39.982063 0.000000
-45.430967 45.685069 0.000000
-50.000000 50.000000 0.000000
44.117170 -39.898895 0.000000
50.000000 -43.333065 0.000000
39.639344 -35.047314 0.000000
33.462826 -33.424458 0.000000
22.984847 -28.817850 0.000000
28.730927 -29.247707 0.000000
13.460778 -23.121753 0.000000
20.054835 -23.438753 0.000000
3.387035 -17.587161 0.000000
10.127094 -17.840192 0.000000
0.144302 -11.992760 0.000000
-2.151995 -6.258268 0.000000
-7.387954 -3.694455 0.000000
-12.614846 -0.803027 0.000000
-18.163017 8.573202 0.000000
-12.963447 5.196952 0.000000
-18.639243 13.752108 0.000000
-21.504639 17.495106 0.000000
-28.940652 23.158327 0.000000
-24.346216 21.554745 0.000000
-30.323387 28.634722 0.000000
-34.253288 33.375481 0.000000
-36.955843 39.578027 0.000000
-39.838633 45.102688 0.000000
-43.333131 50.000000 0.000000
44.585170 -32.971963 0.000000
50.000000 -36.666211 0.000000
39.129263 -29.581726 0.000000
33.500536 -26.367580 0.000000
27.182724 -23.322078 0.000000
23.065799 -18.647728 0.000000
16.989461 -16.979713 0.000000
6.711423 -12.214650 0.000000
12.353800 -12.732854 0.000000
-3.383693 -1.493728 0.000000
3.927273 -7.006413 0.000000
1.021874 -2.120898 0.000000
-7.002290 2.324268 0.000000
-8.422605 7.817304 0.000000
-12.846447 11.932896 0.000000
-15.692727 17.700482 0.000000
-19.287185 22.982890 0.000000
-24.170943 27.354920 0.000000
-27.286268 33.626102 0.000000
-30.406581 39.161267 0.000000
-33.447714 44.738851 0.000000
-36.666274 50.000000 0.000000
44.547715 -26.499757 0.000000
50.000000 -29.999368 0.000000
39.040026 -23.179198 0.000000
33.449798 -19.899933 0.000000
28.040113 -16.574348 0.000000
22.683411 -13.124215 0.000000
17.176561 -9.909325 0.000000
10.928117 -6.641951 0.000000
-1.352067 2.307832 0.000000
6.216405 -1.738640 0.000000
2.907355 1.600361 0.000000
-3.537160 7.171934 0.000000
-6.312325 12.444133 0.000000
-9.629332 17.702161 0.000000
-13.166784 23.112374 0.000000
-17.316491 28.185236 0.000000
-20.570560 33.474466 0.000000
-23.665803 39.064035 0.000000
-26.830742 44.585384 0.000000
-29.999487 50.000000 0.000000
44.528727 -19.930473 0.000000
50.000000 -23.332615 0.000000
39.036391 -16.594007 0.000000
33.576372 -13.281170 0.000000
28.150778 -9.964836 0.000000
22.725988 -6.604461 0.000000
17.264475 -3.337142 0.000000
11.999702 0.193307 0.000000
1.928961 6.288224 0.000000
7.021293 3.831867 0.000000
-0.213756 11.962776 0.000000
-3.268214 17.529759 0.000000
-6.700936 22.978110 0.000000
-10.567923 28.267591 0.000000
-13.723838 33.661556 0.000000
-16.945528 39.080441 0.000000
-20.140369 44.548493 0.000000
-23.332769 50.000000 0.000000
44.536343 -13.303578 0.000000
50.000000 -16.665997 0.000000
39.079979 -9.966596 0.000000
33.646816 -6.640901 0.000000
28.235964 -3.307353 0.000000
22.846220 0.018374 0.000000
17.534155 3.360685 0.000000
12.212591 6.597296 0.000000
6.721565 10.845092 0.000000
3.301390 17.195605 0.000000
-0.081532 22.851183 0.000000
-3.518397 28.312571 0.000000
-6.831190 33.774319 0.000000
-10.137214 39.170579 0.000000
-13.435522 44.563602 0.000000
-16.666158 50.000000 0.000000
44.554424 -6.654648 0.000000
50.000000 -9.999526 0.000000
39.123453 -3.321278 0.000000
33.713432 0.008776 0.000000
28.333173 3.343950 0.000000
23.001863 6.693765 0.000000
17.832200 10.023305 0.000000
12.654930 12.227011 0.000000
9.790975 17.234882 0.000000
6.477685 22.722395 0.000000
3.188615 28.269461 0.000000
-0.115861 33.734683 0.000000
-3.425110 39.168566 0.000000
-6.725288 44.581869 0.000000
-9.999645 50.000000 0.000000
44.575721 0.001931 0.000000
50.000000 -3.333172 0.000000
39.166856 3.331912 0.000000
33.779223 6.655565 0.000000
28.424169 9.995072 0.000000
23.046333 13.416510 0.000000
16.948083 17.022081 0.000000
12.901662 22.670745 0.000000
9.814664 28.232252 0.000000
6.604158 33.718710 0.000000
3.286552 39.164420 0.000000
-0.029842 44.584615 0.000000
-3.333212 50.000000 0.000000
44.586764 6.665466 0.000000
50.000000 3.333167 0.000000
39.198024 9.981902 0.000000
33.843352 13.277094 0.000000
28.541749 16.584871 0.000000
23.386606 20.084359 0.000000
18.531703 23.112028 0.000000
16.393362 28.298737 0.000000
13.328896 33.754784 0.000000
9.986503 39.181961 0.000000
6.665931 44.584401 0.000000
3.333193 50.000000 0.000000
44.608907 13.317811 0.000000
50.000000 9.999579 0.000000
39.251326 16.612388 0.000000
33.931797 19.862856 0.000000
28.612187 22.925993 0.000000
23.279592 27.207468 0.000000
19.901273 33.303137 0.000000
16.573695 39.040978 0.000000
13.268224 44.526799 0.000000
9.999612 50.000000 0.000000
44.632071 19.972846 0.000000
50.000000 16.666104 0.000000
39.298451 23.262055 0.000000
34.043722 26.514671 0.000000
28.965676 28.539439 0.000000
26.202296 33.410099 0.000000
23.066637 38.968836 0.000000
19.888451 44.507074 0.000000
16.666103 50.000000 0.000000
44.639772 26.642794 0.000000
50.000000 23.332736 0.000000
39.293308 29.966613 0.000000
33.212307 33.371212 0.000000
29.412023 39.045814 0.000000
26.422273 44.505956 0.000000
23.332717 50.000000 0.000000
44.774925 33.291706 0.000000
50.000000 29.999473 0.000000
39.738130 36.596242 0.000000
34.830971 39.525543 0.000000
32.833732 44.514228 0.000000
29.999446 50.000000 0.000000
44.978187 39.877789 0.000000
50.000000 36.666289 0.000000
39.734773 43.968957 0.000000
36.666261 50.000000 0.000000
45.621228 45.409727 0.000000
50.000000 43.333134 0.000000
43.333090 50.000000 0.000000
50.000000 50.000000 0.000000
CELLS 578 2312
3 1 0 2
3 0 3 2
3 4 1 6
3 6 1 2
3 3 5 7
3 3 7 2
3 6 2 7
3 9 4 10
3 10 4 6
3 5 8 11
3 7 5 11
3 10 6 12
3 12 6 7
3 7 11 13
3 7 13 12
3 8 14 15
3 11 8 15
3 16 9 17
3 17 9 10
3 17 10 18
3 18 10 12
3 11 15 19
3 13 11 19
3 18 12 20
3 13 19 20
3 20 12 13
3 14 22 24
3 15 14 24
3 15 24 25
3 19 15 25
3 21 16 26
3 26 16 17
3 26 17 27
3 27 17 18
3 27 18 28
3 28 18 20
3 19 25 29
3 19 29 20
3 28 20 30
3 30 20 29
3 31 21 32
3 32 21 26
3 22 23 36
3 24 22 36
3 23 34 37
3 36 23 37
3 24 36 38
3 25 24 38
3 25 38 39
3 29 25 39
3 32 26 40
3 40 26 27
3 40 27 41
3 41 27 28
3 41 28 42
3 42 28 30
3 29 39 43
3 29 43 30
3 42 30 43
3 33 31 44
3 44 31 32
3 44 32 45
3 45 32 40
3 46 33 47
3 47 33 44
3 34 35 50
3 37 34 50
3 35 48 51
3 50 35 51
3 36 37 52
3 38 36 52
3 37 50 53
3 52 37 53
3 38 52 54
3 39 38 54
3 39 54 55
3 43 39 55
3 45 40 56
3 56 40 41
3 56 41 57
3 57 41 42
3 57 42 58
3 58 42 43
3 43 55 59
3 43 59 58
3 47 44 60
3 60 44 45
3 60 45 61
3 61 45 56
3 62 46 63
3 63 46 47
3 63 47 64
3 64 47 60
3 48 49 68
3 51 48 68
3 49 66 69
3 68 49 69
3 50 51 70
3 53 50 70
3 51 68 71
3 70 51 71
3 52 53 72
3 54 52 72
3 53 70 73
3 72 53 73
3 54 72 74
3 55 54 74
3 55 74 75
3 59 55 75
3 61 56 76
3 76 56 57
3 76 57 77
3 77 57 58
3 77 58 78
3 59 75 78
3 78 58 59
3 64 60 79
3 79 60 61
3 79 61 80
3 80 61 76
3 65 62 81
3 81 62 63
3 81 63 82
3 82 63 64
3 82 64 83
3 83 64 79
3 84 65 85
3 85 65 81
3 66 67 89
3 69 66 89
3 67 87 90
3 89 67 90
3 68 69 91
3 71 68 91
3 69 89 92
3 91 69 92
3 70 71 93
3 73 70 93
3 71 91 94
3 93 71 94
3 72 73 95
3 74 72 95
3 73 93 96
3 95 73 96
3 74 95 97
3 75 74 97
3 75 97 98
3 78 75 98
3 80 76 99
3 99 76 77
3 99 77 100
3 100 77 78
3 100 78 101
3 98 101 78
3 83 79 102
3 102 79 80
3 102 80 103
3 103 80 99
3 85 81 104
3 104 81 82
3 105 83 102
3 104 82 106
3 106 82 83
3 106 83 105
3 86 84 107
3 107 84 85
3 107 85 108
3 108 85 104
3 109 86 107
3 110 86 109
3 87 88 112
3 90 87 112
3 112 88 113
3 88 114 113
3 90 112 115
3 89 90 116
3 92 89 116
3 116 90 115
3 91 92 117
3 94 91 117
3 92 116 118
3 117 92 118
3 93 94 119
3 96 93 119
3 94 117 120
3 119 94 120
3 95 96 121
3 97 95 121
3 96 119 122
3 121 96 122
3 97 121 123
3 98 97 123
3 98 123 124
3 98 124 101
3 103 99 125
3 125 99 100
3 125 100 126
3 126 100 101
3 126 101 124
3 105 102 127
3 127 102 103
3 127 103 128
3 128 103 125
3 129 105 127
3 108 104 130
3 130 104 106
3 130 106 131
3 131 106 105
3 131 105 129
3 108 130 132
3 109 107 133
3 133 107 108
3 133 108 134
3 108 132 134
3 135 109 133
3 111 110 136
3 136 110 109
3 136 109 135
3 137 111 136
3 138 111 137
3 112 113 139
3 115 112 139
3 114 140 113
3 140 139 113
3 139 141 115
3 116 115 142
3 118 116 142
3 142 115 141
3 117 118 143
3 120 117 143
3 118 142 144
3 143 118 144
3 119 120 145
3 122 119 145
3 120 143 146
3 145 120 146
3 121 122 147
3 123 121 147
3 122 145 148
3 147 122 148
3 123 147 149
3 124 123 149
3 124 149 150
3 151 126 124
3 124 150 151
3 128 125 152
3 152 125 126
3 152 126 151
3 129 127 153
3 153 127 128
3 128 152 154
3 153 128 154
3 155 129 153
3 131 129 156
3 156 129 155
3 132 130 157
3 130 131 157
3 157 131 158
3 131 156 158
3 132 157 159
3 132 159 134
3 135 133 160
3 160 133 134
3 160 134 159
3 136 135 161
3 135 160 161
3 162 137 136
3 161 162 136
3 163 138 137
3 162 163 137
3 139 164 141
3 140 165 139
3 139 165 164
3 141 164 166
3 141 166 142
3 166 167 142
3 144 142 167
3 167 168 144
3 143 144 168
3 146 143 168
3 168 169 146
3 145 146 170
3 148 145 170
3 170 146 169
3 147 148 171
3 149 147 171
3 148 170 172
3 171 148 172
3 173 151 150
3 149 171 174
3 150 149 174
3 150 174 175
3 150 175 173
3 154 152 176
3 152 151 176
3 176 151 173
3 154 176 177
3 155 153 178
3 177 178 154
3 154 178 153
3 156 155 179
3 155 178 179
3 180 158 156
3 179 180 156
3 181 159 157
3 180 181 158
3 181 157 158
3 182 160 159
3 181 182 159
3 183 161 160
3 182 183 160
3 184 162 161
3 184 161 183
3 185 163 162
3 184 185 162
3 164 186 166
3 165 187 164
3 164 187 186
3 166 186 188
3 166 188 167
3 167 188 189
3 167 189 168
3 168 189 190
3 168 190 169
3 169 190 191
3 169 191 170
3 192 172 170
3 170 191 192
3 192 193 172
3 171 172 193
3 174 171 193
3 194 173 175
3 176 173 194
3 175 174 195
3 193 195 174
3 195 196 175
3 175 196 194
3 197 177 176
3 194 197 176
3 198 178 177
3 197 198 177
3 199 179 178
3 198 199 178
3 200 180 179
3 199 200 179
3 201 181 180
3 200 201 180
3 202 182 181
3 201 202 181
3 203 183 182
3 202 203 182
3 204 184 183
3 203 204 183
3 205 185 184
3 204 205 184
3 186 206 188
3 187 207 186
3 186 207 206
3 188 206 208
3 188 208 189
3 189 208 209
3 189 209 190
3 190 209 210
3 190 210 191
3 191 210 211
3 191 211 192
3 192 211 212
3 192 212 193
3 193 212 213
3 193 213 195
3 214 197 194
3 214 194 196
3 195 213 215
3 195 215 196
3 196 215 214
3 216 198 197
3 214 216 197
3 217 199 198
3 216 217 198
3 218 200 199
3 217 218 199
3 219 201 200
3 218 219 200
3 220 202 201
3 219 220 201
3 221 203 202
3 220 221 202
3 222 204 203
3 221 222 203
3 223 205 204
3 222 223 204
3 206 224 208
3 207 225 206
3 206 225 224
3 208 224 226
3 208 226 209
3 209 226 227
3 209 227 210
3 210 227 228
3 210 228 211
3 211 228 229
3 211 229 212
3 212 229 230
3 212 230 213
3 213 230 231
3 213 231 215
3 232 216 214
3 215 231 232
3 232 214 215
3 233 217 216
3 232 233 216
3 234 218 217
3 233 234 217
3 235 219 218
3 234 235 218
3 236 220 219
3 235 236 219
3 237 221 220
3 236 237 220
3 238 222 221
3 237 238 221
3 239 223 222
3 238 239 222
3 224 240 226
3 225 241 224
3 224 241 240
3 226 240 242
3 226 242 227
3 227 242 243
3 227 243 228
3 228 243 244
3 228 244 229
3 244 245 229
3 229 245 230
3 230 245 246
3 230 246 231
3 231 246 247
3 231 247 232
3 248 233 232
3 248 232 247
3 249 234 233
3 248 249 233
3 250 235 234
3 249 250 234
3 251 236 235
3 250 251 235
3 252 237 236
3 251 252 236
3 253 238 237
3 252 253 237
3 254 239 238
3 253 254 238
3 240 255 242
3 241 256 240
3 240 256 255
3 242 255 257
3 242 257 243
3 243 257 258
3 243 258 244
3 244 258 259
3 244 259 245
3 245 259 260
3 245 260 246
3 246 260 261
3 246 261 247
3 248 247 261
3 262 249 248
3 261 262 248
3 263 250 249
3 262 263 249
3 264 251 250
3 263 264 250
3 265 252 251
3 264 265 251
3 266 253 252
3 265 266 252
3 267 254 253
3 266 267 253
3 255 268 257
3 256 269 255
3 255 269 268
3 257 268 270
3 257 270 258
3 258 270 271
3 258 271 259
3 259 271 272
3 259 272 260
3 260 272 273
3 260 273 261
3 274 262 261
3 261 273 274
3 275 263 262
3 274 275 262
3 276 264 263
3 275 276 263
3 277 265 264
3 276 277 264
3 278 266 265
3 277 278 265
3 279 267 266
3 278 279 266
3 268 280 270
3 269 281 268
3 268 281 280
3 270 280 282
3 270 282 271
3 271 282 283
3 271 283 272
3 283 284 272
3 272 284 273
3 285 275 274
3 273 284 285
3 285 274 273
3 286 276 275
3 285 286 275
3 287 277 276
3 286 287 276
3 288 278 277
3 287 288 277
3 289 279 278
3 288 289 278
3 280 290 282
3 281 291 280
3 280 291 290
3 282 290 292
3 282 292 283
3 283 292 293
3 283 293 284
3 284 293 294
3 284 294 285
3 295 286 285
3 295 285 294
3 296 287 286
3 295 296 286
3 297 288 287
3 296 297 287
3 298 289 288
3 297 298 288
3 290 299 292
3 291 300 290
3 290 300 299
3 292 299 301
3 292 301 293
3 293 301 302
3 293 302 294
3 294 302 295
3 303 296 295
3 303 295 302
3 304 297 296
3 303 304 296
3 305 298 297
3 304 305 297
3 299 306 301
3 300 307 299
3 299 307 306
3 301 306 308
3 301 308 302
3 309 303 302
3 302 308 309
3 310 304 303
3 309 310 303
3 311 305 304
3 310 311 304
3 306 312 308
3 307 313 306
3 306 313 312
3 314 310 309
3 308 312 314
3 314 309 308
3 315 311 310
3 314 315 310
3 312 316 314
3 313 317 312
3 312 317 316
3 318 315 314
3 318 314 316
3 317 319 316
3 319 318 316
CELL_TYPES 578
5
5
5
5
5
5
5
5
5
5
5
5
5
5
5
5
5
5
5
5
5
5
5
5
5
5
5
5
5
5
5
5
5
5
5
5
5
5
5
5
5
5
5
5
5
5
5
5
5
5
5
5
5
5
5
5
5
5
5
5
5
5
5
5
5
5
5
5
5
5
5
5
5
5
5
5
5
5
5
5
5
5
5
5
5
5
5
5
5
5
5
5
5
5
5
5
5
5
5
5
5
5
5
5
5
5
5
5
5
5
5
5
5
5
5
5
5
5
5
5
5
5
5
5
5
5
5
5
5
5
5
5
5
5
5
5
5
5
5
5
5
5
5
5
5
5
5
5
5
5
5
5
5
5
5
5
5
5
5
5
5
5
5
5
5
5
5
5
5
5
5
5
5
5
5
5
5
5
5
5
5
5
5
5
5
5
5
5
5
5
5
5
5
5
5
5
5
5
5
5
5
5
5
5
5
5
5
5
5
5
5
5
5
5
5
5
5
5
5
5
5
5
5
5
5
5
5
5
5
5
5
5
5
5
5
5
5
5
5
5
5
5
5
5
5
5
5
5
5
5
5
5
5
5
5
5
5
5
5
5
5
5
5
5
5
5
5
5
5
5
5
5
5
5
5
5
5
5
5
5
5
5
5
5
5
5
5
5
5
5
5
5
5
5
5
5
5
5
5
5
5
5
5
5
5
5
5
5
5
5
5
5
5
5
5
5
5
5
5
5
5
5
5
5
5
5
5
5
5
5
5
5
5
5
5
5
5
5
5
5
5
5
5
5
5
5
5
5
5
5
5
5
5
5
5
5
5
5
5
5
5
5
5
5
5
5
5
5
5
5
5
5
5
5
5
5
5
5
5
5
5
5
5
5
5
5
5
5
5
5
5
5
5
5
5
5
5
5
5
5
5
5
5
5
5
5
5
5
5
5
5
5
5
5
5
5
5
5
5
5
5
5
5
5
5
5
5
5
5
5
5
5
5
5
5
5
5
5
5
5
5
5
5
5
5
5
5
5
5
5
5
5
5
5
5
5
5
5
5
5
5
5
5
5
5
5
5
5
5
5
5
5
5
5
5
5
5
5
5
5
5
5
5
5
5
5
5
5
5
5
5
5
5
5
5
5
5
5
5
5
5
5
5
5
5
5
5
5
5
5
5
5
5
5
5
5
5
5
5
5
5
5
5
5
5
5
5
5
5
5
5
5
5
5
5
5
5
5
5
5
5
5
5
5
5
5
5
5
5
5
5
5
5
5
5
5
5
5
5
5
5
5
5
5
5
5
5
5
5
5
5
5
5
5
5
5
5
5
POINT_DATA 320
SCALARS theta_e float 1
LOOKUP_TABLE default
1.000001
1.000001
1.000001
1.000001
1.000001
1.000001
1.000001
1.000001
1.000001
1.000001
1.000001
1.000001
1.000001
1.000001
1.000001
1.000001
1.000001
1.000001
1.000001
1.000001
1.000001
1.000001
1.000001
1.000001
1.000001
1.000001
1.000001
1.000001
1.000001
1.000001
1.000001
1.000001
1.000001
1.000001
1.000001
1.000001
1.000001
1.000001
1.000001
1.000001
1.000001
1.000001
1.000001
1.000001
1.000001
1.000001
1.000001
1.000001
1.000001
1.000001
1.000001
1.000001
1.000001
1.000001
1.000001
1.000001
1.000001
1.000001
1.000001
1.000001
1.000001
1.000001
1.000001
1.000001
1.000001
1.000001
1.000001
1.000001
1.000001
1.000001
1.000001
1.000001
1.000001
1.000001
1.000001
1.000001
1.000001
1.000001
1.000001
1.000001
1.000001
1.000001
1.000001
1.000001
1.000001
1.000001
1.000001
1.000001
1.000001
1.000001
1.000001
1.000001
1.000001
1.000001
1.000001
1.000001
1.000001
1.000001
1.000001
1.000001
1.000001
1.000001
1.000001
1.000001
1.000001
1.000001
1.000001
1.000001
1.000001
1.000001
1.000001
1.000001
1.000001
1.000001
1.000001
1.000001
1.000001
1.000001
1.000001
1.000001
1.000001
1.000001
1.000001
1.000001
0.999997
1.000001
1.000000
1.000001
1.000001
1.000001
1.000001
1.000001
1.000001
1.000001
1.000001
1.000001
1.000001
1.000001
1.000001
1.000001
1.000001
1.000001
1.000001
1.000001
1.000001
1.000001
1.000001
1.000001
1.000001
0.999995
0.999982
0.999988
0.999997
1.000001
0.999998
1.000001
1.000001
1.000001
1.000001
1.000001
1.000001
1.000001
1.000001
1.000001
1.000001
1.000001
1.000001
1.000001
1.000001
1.000001
1.000001
0.999999
1.000000
0.999975
0.999986
0.999975
0.999984
0.999995
1.000001
1.000001
1.000001
1.000001
1.000001
1.000001
1.000001
1.000001
1.000001
1.000001
1.000001
1.000001
1.000001
1.000001
1.000001
0.999996
0.999975
0.999982
0.999975
0.999985
0.999999
1.000001
1.000001
1.000001
1.000001
1.000001
1.000001
1.000001
1.000001
1.000001
1.000001
1.000001
1.000001
1.000001
1.000000
0.999995
0.999982
0.999987
0.999995
1.000001
1.000001
1.000001
1.000001
1.000001
1.000001
1.000001
1.000001
1.000001
1.000001
1.000001
1.000001
1.000000
1.000001
0.999999
0.999996
1.000001
1.000001
1.000001
1.000001
1.000001
1.000001
1.000001
1.000001
1.000001
1.000001
1.000001
1.000001
1.000001
1.000001
1.000001
1.000001
1.000001
1.000001
1.000001
1.000001
1.000001
1.000001
1.000001
1.000001
1.000001
1.000001
1.000001
1.000001
1.000001
1.000001
1.000001
1.000001
1.000001
1.000001
1.000001
1.000001
1.000001
1.000001
1.000001
1.000001
1.000001
1.000001
1.000001
1.000001
1.000001
1.000001
1.000001
1.000001
1.000001
1.000001
1.000001
1.000001
1.000001
1.000001
1.000001
1.000001
1.000001
1.000001
1.000001
1.000001
1.000001
1.000001
1.000001
1.000001
1.000001
1.000001
1.000001
1.000001
1.000001
1.000001
1.000001
1.000001
1.000001
1.000001
1.000001
1.000001
1.000001
1.000001
1.000001
1.000001
1.000001
1.000001
1.000001
1.000001
1.000001
1.000001
1.000001
VECTORS fa_u float
0.000000 0.000000 0.000000
0.000000 0.000000 0.000000
0.000000 0.000000 0.000000
0.000000 0.000000 0.000000
0.000000 0.000000 0.000000
0.000000 0.000000 0.000000
0.000000 0.000000 0.000000
0.000000 0.000000 0.000000
0.000000 0.000000 0.000000
0.000000 0.000000 0.000000
0.000000 0.000000 0.000000
0.000000 0.000000 0.000000
0.000000 0.000000 0.000000
0.000000 0.000000 0.000000
0.000000 0.000000 0.000000
0.000000 0.000000 0.000000
0.000000 0.000000 0.000000
0.000000 0.000000 0.000000
0.000000 0.000000 0.000000
0.000000 0.000000 0.000000
0.000000 0.000000 0.000000
0.000000 0.000000 0.000000
0.000000 0.000000 0.000000
0.000000 0.000000 0.000000
0.000000 0.000000 0.000000
0.000000 0.000000 0.000000
0.000000 0.000000 0.000000
0.000000 0.000000 0.000000
0.000000 0.000000 0.000000
0.000000 0.000000 0.000000
0.000000 0.000000 0.000000
0.000000 0.000000 0.000000
0.000000 0.000000 0.000000
0.000000 0.000000 0.000000
0.000000 0.000000 0.000000
0.000000 0.000000 0.000000
0.000000 0.000000 0.000000
0.000000 0.000000 0.000000
0.000000 0.000000 0.000000
0.000000 0.000000 0.000000
0.000000 0.000000 0.000000
0.000000 0.000000 0.000000
0.000000 0.000000 0.000000
0.000000 0.000000 0.000000
0.000000 0.000000 0.000000
0.000000 0.000000 0.000000
0.000000 0.000000 0.000000
0.000000 0.000000 0.000000
0.000000 0.000000 0.000000
0.000000 0.000000 0.000000
0.000000 0.000000 0.000000
0.000000 0.000000 0.000000
0.000000 0.000000 0.000000
0.000000 0.000000 0.000000
0.000000 0.000000 0.000000
0.000000 0.000000 0.000000
0.000000 0.000000 0.000000
0.000000 0.000000 0.000000
0.000000 0.000000 0.000000
0.000000 0.000000 0.000000
0.000000 0.000000 0.000000
0.000000 0.000000 0.000000
0.000000 0.000000 0.000000
0.000000 0.000000 0.000000
0.000000 0.000000 0.000000
0.000000 0.000000 0.000000
0.000000 0.000000 0.000000
0.000000 0.000000 0.000000
0.000000 0.000000 0.000000
0.000000 0.000000 0.000000
0.000000 0.000000 0.000000
0.000000 0.000000 0.000000
0.000000 0.000000 0.000000
0.000000 0.000000 0.000000
0.000000 0.000000 0.000000
0.000000 0.000000 0.000000
0.000000 0.000000 0.000000
0.000000 0.000000 0.000000
0.000000 0.000000 0.000000
0.000000 0.000000 0.000000
0.000000 0.000000 0.000000
0.000000 0.000000 0.000000
0.000000 0.000000 0.000000
0.000000 0.000000 0.000000
0.000000 0.000000 0.000000
0.000000 0.000000 0.000000
0.000000 0.000000 0.000000
0.000000 0.000000 0.000000
0.000000 0.000000 0.000000
0.000000 0.000000 0.000000
0.000000 0.000000 0.000000
0.000000 0.000000 0.000000
0.000000 0.000000 0.000000
0.000000 0.000000 0.000000
0.000000 0.000000 0.000000
0.000000 0.000000 0.000000
0.000000 0.000000 0.000000
0.000000 0.000000 0.000000
0.000000 0.000000 0.000000
0.000000 0.000000 0.000000
0.000000 0.000000 0.000000
0.000000 0.000000 0.000000
0.000000 0.000000 0.000000
0.000000 0.000000 0.000000
0.000000 0.000000 0.000000
0.000000 0.000000 0.000000
0.000000 0.000000 0.000000
0.000000 0.000000 0.000000
0.000000 0.000000 0.000000
0.000000 0.000000 0.000000
0.000000 0.000000 0.000000
0.000000 0.000000 0.000000
0.000000 0.000000 0.000000
0.000000 0.000000 0.000000
0.000000 0.000000 0.000000
0.000000 0.000000 0.000000
0.000000 0.000000 0.000000
0.000000 0.000000 0.000000
0.000000 0.000000 0.000000
0.000000 0.000000 0.000000
0.000000 0.000000 0.000000
0.000000 0.000000 0.000000
0.000000 0.000000 0.000000
0.000000 0.000000 0.000000
0.000000 0.000000 0.000000
0.000000 0.000000 0.000000
0.000000 0.000000 0.000000
0.000000 0.000000 0.000000
0.000000 0.000000 0.000000
0.000000 0.000000 0.000000
0.000000 0.000000 0.000000
0.000000 0.000000 0.000000
0.000000 0.000000 0.000000
0.000000 0.000000 0.000000
0.000000 0.000000 0.000000
0.000000 0.000000 0.000000
0.000000 0.000000 0.000000
0.000000 0.000000 0.000000
0.000000 0.000000 0.000000
0.000000 0.000000 0.000000
0.000000 0.000000 0.000000
0.000000 0.000000 0.000000
0.000000 0.000000 0.000000
0.000000 0.000000 0.000000
0.000000 0.000000 0.000000
0.000000 0.000000 0.000000
0.000000 0.000000 0.000000
0.000000 0.000000 0.000000
0.000000 0.000000 0.000000
0.000000 0.000000 0.000000
0.000000 0.000000 0.000000
0.000000 0.000000 0.000000
0.000000 0.000000 0.000000
0.000000 0.000000 0.000000
0.000000 0.000000 0.000000
0.000000 0.000000 0.000000
0.000000 0.000000 0.000000
0.000000 0.000000 0.000000
0.000000 0.000000 0.000000
0.000000 0.000000 0.000000
0.000000 0.000000 0.000000
0.000000 0.000000 0.000000
0.000000 0.000000 0.000000
0.000000 0.000000 0.000000
0.000000 0.000000 0.000000
0.000000 0.000000 0.000000
0.000000 0.000000 0.000000
0.000000 0.000000 0.000000
0.000000 0.000000 0.000000
0.000000 0.000000 0.000000
0.000000 0.000000 0.000000
0.000000 0.000000 0.000000
0.000000 0.000000 0.000000
0.000000 0.000000 0.000000
0.000000 0.000000 0.000000
0.000000 0.000000 0.000000
0.000000 0.000000 0.000000
0.000000 0.000000 0.000000
0.000000 0.000000 0.000000
0.000000 0.000000 0.000000
0.000000 0.000000 0.000000
0.000000 0.000000 0.000000
0.000000 0.000000 0.000000
0.000000 0.000000 0.000000
0.000000 0.000000 0.000000
0.000000 0.000000 0.000000
0.000000 0.000000 0.000000
0.000000 0.000000 0.000000
0.000000 0.000000 0.000000
0.000000 0.000000 0.000000
0.000000 0.000000 0.000000
0.000000 0.000000 0.000000
0.000000 0.000000 0.000000
0.000000 0.000000 0.000000
0.000000 0.000000 0.000000
0.000000 0.000000 0.000000
0.000000 0.000000 0.000000
0.000000 0.000000 0.000000
0.000000 0.000000 0.000000
0.000000 0.000000 0.000000
0.000000 0.000000 0.000000
0.000000 0.000000 0.000000
0.000000 0.000000 0.000000
0.000000 0.000000 0.000000
0.000000 0.000000 0.000000
0.000000 0.000000 0.000000
0.000000 0.000000 0.000000
0.000000 0.000000 0.000000
0.000000 0.000000 0.000000
0.000000 0.000000 0.000000
0.000000 0.000000 0.000000
0.000000 0.000000 0.000000
0.000000 0.000000 0.000000
0.000000 0.000000 0.000000
0.000000 0.000000 0.000000
0.000000 0.000000 0.000000
0.000000 0.000000 0.000000
0.000000 0.000000 0.000000
0.000000 0.000000 0.000000
0.000000 0.000000 0.000000
0.000000 0.000000 0.000000
0.000000 0.000000 0.000000
0.000000 0.000000 0.000000
0.000000 0.000000 0.000000
0.000000 0.000000 0.000000
0.000000 0.000000 0.000000
0.000000 0.000000 0.000000
0.000000 0.000000 0.000000
0.000000 0.000000 0.000000
0.000000 0.000000 0.000000
0.000000 0.000000 0.000000
0.000000 0.000000 0.000000
0.000000 0.000000 0.000000
0.000000 0.000000 0.000000
0.000000 0.000000 0.000000
0.000000 0.000000 0.000000
0.000000 0.000000 0.000000
0.000000 0.000000 0.000000
0.000000 0.000000 0.000000
0.000000 0.000000 0.000000
0.000000 0.000000 0.000000
0.000000 0.000000 0.000000
0.000000 0.000000 0.000000
0.000000 0.000000 0.000000
0.000000 0.000000 0.000000
0.000000 0.000000 0.000000
0.000000 0.000000 0.000000
0.000000 0.000000 0.000000
0.000000 0.000000 0.000000
0.000000 0.000000 0.000000
0.000000 0.000000 0.000000
0.000000 0.000000 0.000000
0.000000 0.000000 0.000000
0.000000 0.000000 0.000000
0.000000 0.000000 0.000000
0.000000 0.000000 0.000000
0.000000 0.000000 0.000000
0.000000 0.000000 0.000000
0.000000 0.000000 0.000000
0.000000 0.000000 0.000000
0.000000 0.000000 0.000000
0.000000 0.000000 0.000000
0.000000 0.000000 0.000000
0.000000 0.000000 0.000000
0.000000 0.000000 0.000000
0.000000 0.000000 0.000000
0.000000 0.000000 0.000000
0.000000 0.000000 0.000000
0.000000 0.000000 0.000000
0.000000 0.000000 0.000000
0.000000 0.000000 0.000000
0.000000 0.000000 0.000000
0.000000 0.000000 0.000000
0.000000 0.000000 0.000000
0.000000 0.000000 0.000000
0.000000 0.000000 0.000000
0.000000 0.000000 0.000000
0.000000 0.000000 0.000000
0.000000 0.000000 0.000000
0.000000 0.000000 0.000000
0.000000 0.000000 0.000000
0.000000 0.000000 0.000000
0.000000 0.000000 0.000000
0.000000 0.000000 0.000000
0.000000 0.000000 0.000000
0.000000 0.000000 0.000000
0.000000 0.000000 0.000000
0.000000 0.000000 0.000000
0.000000 0.000000 0.000000
0.000000 0.000000 0.000000
0.000000 0.000000 0.000000
0.000000 0.000000 0.000000
0.000000 0.000000 0.000000
0.000000 0.000000 0.000000
0.000000 0.000000 0.000000
0.000000 0.000000 0.000000
0.000000 0.000000 -50.000000
-50.000000 0.000000 -50.000000
-43.333171 0.000000 -45.688320
-45.491089 0.000000 -43.333146
-50.000000 0.000000 -50.000000
-36.666333 0.000000 -36.666337
-50.000000 0.000000 -45.081049
-39.969743 0.000000 -40.027087
-44.152212 0.000000 -29.999513
-50.000000 0.000000 -50.000000
-29.999508 0.000000 -44.847018
-33.448878 0.000000 -33.144841
-44.675617 0.000000 -39.869040
-36.786943 0.000000 -35.128555
-39.801219 0.000000 -23.332753
-50.000000 0.000000 -26.539077
-44.666709 0.000000 -50.000000
-23.332753 0.000000 -44.665245
-26.803871 0.000000 -39.364178
-30.225626 0.000000 -29.606160
-39.359295 0.000000 -33.368118
-33.655365 0.000000 -50.000000
-16.666103 0.000000 -16.666113
-50.000000 0.000000 -9.999601
