# vtk DataFile Version 2.0
CellBP Time: 1.2
ASCII
DATASET UNSTRUCTURED_GRID
POINTS 320 double
-50.000000 -50.000000 0.000000
-50.000000 -43.333263 0.000000
-45.688287 -45.491061 0.000000
-43.333251 -50.000000 0.000000
-50.000000 -36.666524 0.000000
-36.666522 -50.000000 0.000000
-45.081013 -39.969723 0.000000
-40.027035 -44.152182 0.000000
-29.999787 -50.000000 0.000000
-50.000000 -29.999790 0.000000
-44.846982 -33.448860 0.000000
-33.144800 -44.675584 0.000000
-39.868994 -36.786920 0.000000
-35.128501 -39.801178 0.000000
-23.333080 -50.000000 0.000000
-26.539035 -44.666692 0.000000
-50.000000 -23.333088 0.000000
-44.665228 -26.803847 0.000000
-39.364142 -30.225600 0.000000
-29.606100 -39.359261 0.000000
-33.368054 -33.655326 0.000000
-50.000000 -16.666428 0.000000
-16.666425 -50.000000 0.000000
-9.999824 -50.000000 0.000000
-19.964750 -44.588787 0.000000
-23.215771 -39.114649 0.000000
-44.691909 -20.096839 0.000000
-39.367810 -23.528119 0.000000
-34.106019 -26.936949 0.000000
-26.384246 -33.577105 0.000000
-29.156019 -28.926490 0.000000
-50.000000 -9.999808 0.000000
-44.666378 -13.410125 0.000000
-50.000000 -3.333238 0.000000
-3.333269 -50.000000 0.000000
3.333273 -50.000000 0.000000
-13.343501 -44.599093 0.000000
-6.684631 -44.610801 0.000000
-16.693605 -39.153366 0.000000
-20.106908 -33.342676 0.000000
-39.338192 -16.804824 0.000000
-34.018554 -20.274726 0.000000
-28.780723 -23.448953 0.000000
-23.510360 -27.349962 0.000000
-44.635528 -6.705593 0.000000
-39.293068 -10.101888 0.000000
-50.000000 3.333305 0.000000
-44.626870 -0.015731 0.000000
9.999834 -50.000000 0.000000
16.666438 -50.000000 0.000000
-0.016086 -44.618864 0.000000
6.651558 -44.635515 0.000000
-10.044623 -39.222641 0.000000
-3.368204 -39.220488 0.000000
-13.484259 -33.798849 0.000000
-16.709799 -28.271397 0.000000
-33.948106 -13.514301 0.000000
-28.601451 -16.892527 0.000000
-23.291174 -20.312858 0.000000
-18.660145 -23.282314 0.000000
-39.267621 -3.392943 0.000000
-33.904590 -6.796806 0.000000
-50.000000 9.999855 0.000000
-44.606892 6.673235 0.000000
-39.261078 3.325578 0.000000
-50.000000 16.666450 0.000000
23.333086 -50.000000 0.000000
29.999779 -50.000000 0.000000
13.317296 -44.663002 0.000000
19.989415 -44.700127 0.000000
3.307681 -39.245186 0.000000
9.971765 -39.290302 0.000000
-6.735196 -33.791401 0.000000
-0.032345 -33.829692 0.000000
-10.095942 -28.293724 0.000000
-13.122829 -22.898648 0.000000
-28.532863 -10.215231 0.000000
-23.066436 -13.663208 0.000000
-16.976882 -17.208581 0.000000
-33.884925 -0.065458 0.000000
-28.563349 -3.578690 0.000000
-44.564215 13.380234 0.000000
-39.190208 10.014948 0.000000
-33.905924 6.615973 0.000000
-50.000000 23.333084 0.000000
-44.557774 20.137997 0.000000
-50.000000 29.999798 0.000000
36.666507 -50.000000 0.000000
43.333249 -50.000000 0.000000
26.663048 -44.745263 0.000000
33.315153 -44.875871 0.000000
16.631612 -39.357709 0.000000
23.328151 -39.437052 0.000000
6.642792 -33.879522 0.000000
13.290817 -33.965485 0.000000
-3.345495 -28.362823 0.000000
3.356925 -28.451346 0.000000
-6.626019 -22.846377 0.000000
-9.971434 -17.314777 0.000000
-23.185639 -7.015015 0.000000
-17.810149 -10.334933 0.000000
-12.837219 -12.588728 0.000000
-28.607614 3.088458 0.000000
-23.264726 -0.468128 0.000000
-39.039123 16.746471 0.000000
-28.721522 9.926498 0.000000
-33.761812 13.318515 0.000000
-44.521680 26.716721 0.000000
-38.467740 23.892423 0.000000
-44.632125 33.085358 0.000000
-50.000000 36.666553 0.000000
-50.000000 43.333272 0.000000
39.922263 -45.069496 0.000000
45.474566 -45.660349 0.000000
50.000000 -50.000000 0.000000
36.626684 -39.981875 0.000000
30.012215 -39.458533 0.000000
19.904191 -34.092716 0.000000
26.584958 -34.319395 0.000000
9.988865 -28.513639 0.000000
16.611040 -28.659796 0.000000
0.052277 -22.958938 0.000000
6.812260 -23.158590 0.000000
-3.401302 -17.297640 0.000000
-6.867548 -11.030572 0.000000
-17.878730 -3.829406 0.000000
-12.554223 -7.036352 0.000000
-23.310844 6.073801 0.000000
-18.038181 2.456003 0.000000
-23.121949 12.095564 0.000000
-33.572106 19.788927 0.000000
-27.941258 16.885287 0.000000
-33.292681 24.722561 0.000000
-39.473327 30.052552 0.000000
-35.160057 28.137335 0.000000
-39.815737 35.101213 0.000000
-43.991552 39.981986 0.000000
-45.430944 45.685020 0.000000
-50.000000 50.000000 0.000000
44.117133 -39.898851 0.000000
50.000000 -43.333216 0.000000
39.639305 -35.047284 0.000000
33.462797 -33.424437 0.000000
22.984819 -28.817821 0.000000
28.730902 -29.247688 0.000000
13.460756 -23.121782 0.000000
20.054813 -23.438648 0.000000
3.389277 -17.586777 0.000000
10.127557 -17.839909 0.000000
0.141632 -12.014091 0.000000
-2.155391 -6.269852 0.000000
-7.413153 -3.708670 0.000000
-12.633308 -0.802297 0.000000
-18.161826 8.573135 0.000000
-12.966384 5.196991 0.000000
-18.639466 13.752225 0.000000
-21.504772 17.495230 0.000000
-28.940608 23.158207 0.000000
-24.346202 21.554806 0.000000
-30.323316 28.634661 0.000000
-34.253222 33.375453 0.000000
-36.955809 39.578007 0.000000
-39.838619 45.102654 0.000000
-43.333245 50.000000 0.000000
44.585137 -32.971931 0.000000
50.000000 -36.666467 0.000000
39.129245 -29.581694 0.000000
33.500509 -26.367567 0.000000
27.182655 -23.322091 0.000000
23.065612 -18.647725 0.000000
16.989088 -16.979444 0.000000
6.712794 -12.217332 0.000000
12.351656 -12.732386 0.000000
-3.385882 -1.494799 0.000000
3.942592 -7.032221 0.000000
1.021995 -2.121189 0.000000
-7.018914 2.330728 0.000000
-8.441612 7.834220 0.000000
-12.847186 11.933623 0.000000
-15.692996 17.700711 0.000000
-19.287168 22.983084 0.000000
-24.170945 27.354987 0.000000
-27.286255 33.626140 0.000000
-30.406559 39.161295 0.000000
-33.447687 44.738847 0.000000
-36.666495 50.000000 0.000000
44.547709 -26.499717 0.000000
50.000000 -29.999723 0.000000
39.040028 -23.179189 0.000000
33.449832 -19.899941 0.000000
28.040171 -16.574491 0.000000
22.683853 -13.124320 0.000000
17.176691 -9.910459 0.000000
10.944123 -6.648869 0.000000
-1.351341 2.306673 0.000000
6.226798 -1.742128 0.000000
2.909921 1.601305 0.000000
-3.546953 7.193029 0.000000
-6.312096 12.445802 0.000000
-9.629278 17.701068 0.000000
-13.166639 23.112118 0.000000
-17.316444 28.185261 0.000000
-20.570506 33.474502 0.000000
-23.665767 39.064052 0.000000
-26.830685 44.585390 0.000000
-29.999775 50.000000 0.000000
44.528741 -19.930425 0.000000
50.000000 -23.333019 0.000000
39.036428 -16.593993 0.000000
33.576455 -13.281177 0.000000
28.151003 -9.964830 0.000000
22.726214 -6.604463 0.000000
17.264626 -3.337445 0.000000
12.021548 0.190547 0.000000
1.931759 6.298849 0.000000
7.045867 3.845684 0.000000
-0.212363 11.983499 0.000000
-3.270430 17.529528 0.000000
-6.701173 22.978291 0.000000
-10.568024 28.267634 0.000000
-13.723789 33.661629 0.000000
-16.945484 39.080479 0.000000
-20.140298 44.548512 0.000000
-23.333085 50.000000 0.000000
44.536373 -13.303525 0.000000
50.000000 -16.666374 0.000000
39.080016 -9.966568 0.000000
33.646868 -6.640844 0.000000
28.235915 -3.307264 0.000000
22.845855 0.018525 0.000000
17.533776 3.362919 0.000000
12.215946 6.598926 0.000000
6.728501 10.861593 0.000000
3.301215 17.195209 0.000000
-0.081672 22.850801 0.000000
-3.518331 28.312512 0.000000
-6.831134 33.774284 0.000000
-10.137153 39.170590 0.000000
-13.435446 44.563622 0.000000
-16.666442 50.000000 0.000000
44.554466 -6.654610 0.000000
50.000000 -9.999793 0.000000
39.123499 -3.321258 0.000000
33.713467 0.008777 0.000000
28.333182 3.343834 0.000000
23.002163 6.693796 0.000000
17.831897 10.023886 0.000000
12.654450 12.225123 0.000000
9.791775 17.235183 0.000000
6.477448 22.722415 0.000000
3.188511 28.269371 0.000000
-0.115849 33.734658 0.000000
-3.425089 39.168553 0.000000
-6.725236 44.581888 0.000000
-9.999843 50.000000 0.000000
44.575756 0.001947 0.000000
50.000000 -3.333262 0.000000
39.166864 3.331927 0.000000
33.779203 6.655567 0.000000
28.424217 9.995132 0.000000
23.046308 13.416572 0.000000
16.947737 17.021816 0.000000
12.901674 22.671187 0.000000
9.814563 28.232334 0.000000
6.604119 33.718708 0.000000
3.286545 39.164423 0.000000
-0.029834 44.584632 0.000000
-3.333278 50.000000 0.000000
44.586782 6.665446 0.000000
50.000000 3.333261 0.000000
39.198010 9.981894 0.000000
33.843339 13.277129 0.000000
28.541675 16.584951 0.000000
23.386473 20.084384 0.000000
18.531666 23.111871 0.000000
16.393452 28.298779 0.000000
13.328872 33.754799 0.000000
9.986470 39.181969 0.000000
6.665899 44.584424 0.000000
3.333273 50.000000 0.000000
44.608912 13.317760 0.000000
50.000000 9.999816 0.000000
39.251321 16.612370 0.000000
33.931768 19.862860 0.000000
28.612140 22.926003 0.000000
23.279579 27.207439 0.000000
19.901253 33.303178 0.000000
16.573644 39.041001 0.000000
13.268162 44.526822 0.000000
9.999831 50.000000 0.000000
44.632073 19.972787 0.000000
50.000000 16.666420 0.000000
39.298439 23.262025 0.000000
34.043695 26.514652 0.000000
28.965640 28.539438 0.000000
26.202260 33.410095 0.000000
23.066596 38.968846 0.000000
19.888386 44.507083 0.000000
16.666421 50.000000 0.000000
44.639758 26.642741 0.000000
50.000000 23.333071 0.000000
39.293284 29.966576 0.000000
33.212271 33.371188 0.000000
29.411975 39.045802 0.000000
26.422215 44.505952 0.000000
23.333064 50.000000 0.000000
44.774895 33.291666 0.000000
50.000000 29.999769 0.000000
39.738103 36.596215 0.000000
34.830930 39.525509 0.000000
32.833685 44.514199 0.000000
29.999758 50.000000 0.000000
44.978156 39.877756 0.000000
50.000000 36.666500 0.000000
39.734719 43.968923 0.000000
36.666489 50.000000 0.000000
45.621191 45.409689 0.000000
50.000000 43.333245 0.000000
43.333227 50.000000 0.000000
50.000000 50.000000 0.000000
CELLS 578 2312
3 1 0 2
3 0 3 2
3 4 1 6
3 6 1 2
3 3 5 7
3 3 7 2
3 6 2 7
3 9 4 10
3 10 4 6
3 5 8 11
3 7 5 11
3 10 6 12
3 12 6 7
3 7 11 13
3 7 13 12
3 8 14 15
3 11 8 15
3 16 9 17
3 17 9 10
3 17 10 18
3 18 10 12
3 11 15 19
3 13 11 19
3 18 12 20
3 13 19 20
3 20 12 13
3 14 22 24
3 15 14 24
3 15 24 25
3 19 15 25
3 21 16 26
3 26 16 17
3 26 17 27
3 27 17 18
3 27 18 28
3 28 18 20
3 19 25 29
3 19 29 20
3 28 20 30
3 30 20 29
3 31 21 32
3 32 21 26
3 22 23 36
3 24 22 36
3 23 34 37
3 36 23 37
3 24 36 38
3 25 24 38
3 25 38 39
3 29 25 39
3 32 26 40
3 40 26 27
3 40 27 41
3 41 27 28
3 41 28 42
3 42 28 30
3 29 39 43
3 29 43 30
3 42 30 43
3 33 31 44
3 44 31 32
3 44 32 45
3 45 32 40
3 46 33 47
3 47 33 44
3 34 35 50
3 37 34 50
3 35 48 51
3 50 35 51
3 36 37 52
3 38 36 52
3 37 50 53
3 52 37 53
3 38 52 54
3 39 38 54
3 39 54 55
3 43 39 55
3 45 40 56
3 56 40 41
3 56 41 57
3 57 41 42
3 57 42 58
3 58 42 43
3 43 55 59
3 43 59 58
3 47 44 60
3 60 44 45
3 60 45 61
3 61 45 56
3 62 46 63
3 63 46 47
3 63 47 64
3 64 47 60
3 48 49 68
3 51 48 68
3 49 66 69
3 68 49 69
3 50 51 70
3 53 50 70
3 51 68 71
3 70 51 71
3 52 53 72
3 54 52 72
3 53 70 73
3 72 53 73
3 54 72 74
3 55 54 74
3 55 74 75
3 59 55 75
3 61 56 76
3 76 56 57
3 76 57 77
3 77 57 58
3 77 58 78
3 59 75 78
3 78 58 59
3 64 60 79
3 79 60 61
3 79 61 80
3 80 61 76
3 65 62 81
3 81 62 63
3 81 63 82
3 82 63 64
3 82 64 83
3 83 64 79
3 84 65 85
3 85 65 81
3 66 67 89
3 69 66 89
3 67 87 90
3 89 67 90
3 68 69 91
3 71 68 91
3 69 89 92
3 91 69 92
3 70 71 93
3 73 70 93
3 71 91 94
3 93 71 94
3 72 73 95
3 74 72 95
3 73 93 96
3 95 73 96
3 74 95 97
3 75 74 97
3 75 97 98
3 78 75 98
3 80 76 99
3 99 76 77
3 99 77 100
3 100 77 78
3 100 78 101
3 98 101 78
3 83 79 102
3 102 79 80
3 102 80 103
3 103 80 99
3 85 81 104
3 104 81 82
3 105 83 102
3 104 82 106
3 106 82 83
3 106 83 105
3 86 84 107
3 107 84 85
3 107 85 108
3 108 85 104
3 109 86 107
3 110 86 109
3 87 88 112
3 90 87 112
3 112 88 113
3 88 114 113
3 90 112 115
3 89 90 116
3 92 89 116
3 116 90 115
3 91 92 117
3 94 91 117
3 92 116 118
3 117 92 118
3 93 94 119
3 96 93 119
3 94 117 120
3 119 94 120
3 95 96 121
3 97 95 121
3 96 119 122
3 121 96 122
3 97 121 123
3 98 97 123
3 98 123 124
3 98 124 101
3 103 99 125
3 125 99 100
3 125 100 126
3 126 100 101
3 126 101 124
3 105 102 127
3 127 102 103
3 127 103 128
3 128 103 125
3 129 105 127
3 108 104 130
3 130 104 106
3 130 106 131
3 131 106 105
3 131 105 129
3 108 130 132
3 109 107 133
3 133 107 108
3 133 108 134
3 108 132 134
3 135 109 133
3 111 110 136
3 136 110 109
3 136 109 135
3 137 111 136
3 138 111 137
3 112 113 139
3 115 112 139
3 114 140 113
3 140 139 113
3 139 141 115
3 116 115 142
3 118 116 142
3 142 115 141
3 117 118 143
3 120 117 143
3 118 142 144
3 143 118 144
3 119 120 145
3 122 119 145
3 120 143 146
3 145 120 146
3 121 122 147
3 123 121 147
3 122 145 148
3 147 122 148
3 123 147 149
3 124 123 149
3 124 149 150
3 151 126 124
3 124 150 151
3 128 125 152
3 152 125 126
3 152 126 151
3 129 127 153
3 153 127 128
3 128 152 154
3 153 128 154
3 155 129 153
3 131 129 156
3 156 129 155
3 132 130 157
3 130 131 157
3 157 131 158
3 131 156 158
3 132 157 159
3 132 159 134
3 135 133 160
3 160 133 134
3 160 134 159
3 136 135 161
3 135 160 161
3 162 137 136
3 161 162 136
3 163 138 137
3 162 163 137
3 139 164 141
3 140 165 139
3 139 165 164
3 141 164 166
3 141 166 142
3 166 167 142
3 144 142 167
3 167 168 144
3 143 144 168
3 146 143 168
3 168 169 146
3 145 146 170
3 148 145 170
3 170 146 169
3 147 148 171
3 149 147 171
3 148 170 172
3 171 148 172
3 173 151 150
3 149 171 174
3 150 149 174
3 150 174 175
3 150 175 173
3 154 152 176
3 152 151 176
3 176 151 173
3 154 176 177
3 155 153 178
3 177 178 154
3 154 178 153
3 156 155 179
3 155 178 179
3 180 158 156
3 179 180 156
3 181 159 157
3 180 181 158
3 181 157 158
3 182 160 159
3 181 182 159
3 183 161 160
3 182 183 160
3 184 162 161
3 184 161 183
3 185 163 162
3 184 185 162
3 164 186 166
3 165 187 164
3 164 187 186
3 166 186 188
3 166 188 167
3 167 188 189
3 167 189 168
3 168 189 190
3 168 190 169
3 169 190 191
3 169 191 170
3 192 172 170
3 170 191 192
3 192 193 172
3 171 172 193
3 174 171 193
3 194 173 175
3 176 173 194
3 175 174 195
3 193 195 174
3 195 196 175
3 175 196 194
3 197 177 176
3 194 197 176
3 198 178 177
3 197 198 177
3 199 179 178
3 198 199 178
3 200 180 179
3 199 200 179
3 201 181 180
3 200 201 180
3 202 182 181
3 201 202 181
3 203 183 182
3 202 203 182
3 204 184 183
3 203 204 183
3 205 185 184
3 204 205 184
3 186 206 188
3 187 207 186
3 186 207 206
3 188 206 208
3 188 208 189
3 189 208 209
3 189 209 190
3 190 209 210
3 190 210 191
3 191 210 211
3 191 211 192
3 192 211 212
3 192 212 193
3 193 212 213
3 193 213 195
3 214 197 194
3 214 194 196
3 195 213 215
3 195 215 196
3 196 215 214
3 216 198 197
3 214 216 197
3 217 199 198
3 216 217 198
3 218 200 199
3 217 218 199
3 219 201 200
3 218 219 200
3 220 202 201
3 219 220 201
3 221 203 202
3 220 221 202
3 222 204 203
3 221 222 203
3 223 205 204
3 222 223 204
3 206 224 208
3 207 225 206
3 206 225 224
3 208 224 226
3 208 226 209
3 209 226 227
3 209 227 210
3 210 227 228
3 210 228 211
3 211 228 229
3 211 229 212
3 212 229 230
3 212 230 213
3 213 230 231
3 213 231 215
3 232 216 214
3 215 231 232
3 232 214 215
3 233 217 216
3 232 233 216
3 234 218 217
3 233 234 217
3 235 219 218
3 234 235 218
3 236 220 219
3 235 236 219
3 237 221 220
3 236 237 220
3 238 222 221
3 237 238 221
3 239 223 222
3 238 239 222
3 224 240 226
3 225 241 224
3 224 241 240
3 226 240 242
3 226 242 227
3 227 242 243
3 227 243 228
3 228 243 244
3 228 244 229
3 244 245 229
3 229 245 230
3 230 245 246
3 230 246 231
3 231 246 247
3 231 247 232
3 248 233 232
3 248 232 247
3 249 234 233
3 248 249 233
3 250 235 234
3 249 250 234
3 251 236 235
3 250 251 235
3 252 237 236
3 251 252 236
3 253 238 237
3 252 253 237
3 254 239 238
3 253 254 238
3 240 255 242
3 241 256 240
3 240 256 255
3 242 255 257
3 242 257 243
3 243 257 258
3 243 258 244
3 244 258 259
3 244 259 245
3 245 259 260
3 245 260 246
3 246 260 261
3 246 261 247
3 248 247 261
3 262 249 248
3 261 262 248
3 263 250 249
3 262 263 249
3 264 251 250
3 263 264 250
3 265 252 251
3 264 265 251
3 266 253 252
3 265 266 252
3 267 254 253
3 266 267 253
3 255 268 257
3 256 269 255
3 255 269 268
3 257 268 270
3 257 270 258
3 258 270 271
3 258 271 259
3 259 271 272
3 259 272 260
3 260 272 273
3 260 273 261
3 274 262 261
3 261 273 274
3 275 263 262
3 274 275 262
3 276 264 263
3 275 276 263
3 277 265 264
3 276 277 264
3 278 266 265
3 277 278 265
3 279 267 266
3 278 279 266
3 268 280 270
3 269 281 268
3 268 281 280
3 270 280 282
3 270 282 271
3 271 282 283
3 271 283 272
3 283 284 272
3 272 284 273
3 285 275 274
3 273 284 285
3 285 274 273
3 286 276 275
3 285 286 275
3 287 277 276
3 286 287 276
3 288 278 277
3 287 288 277
3 289 279 278
3 288 289 278
3 280 290 282
3 281 291 280
3 280 291 290
3 282 290 292
3 282 292 283
3 283 292 293
3 283 293 284
3 284 293 294
3 284 294 285
3 295 286 285
3 295 285 294
3 296 287 286
3 295 296 286
3 297 288 287
3 296 297 287
3 298 289 288
3 297 298 288
3 290 299 292
3 291 300 290
3 290 300 299
3 292 299 301
3 292 301 293
3 293 301 302
3 293 302 294
3 294 302 295
3 303 296 295
3 303 295 302
3 304 297 296
3 303 304 296
3 305 298 297
3 304 305 297
3 299 306 301
3 300 307 299
3 299 307 306
3 301 306 308
3 301 308 302
3 309 303 302
3 302 308 309
3 310 304 303
3 309 310 303
3 311 305 304
3 310 311 304
3 306 312 308
3 307 313 306
3 306 313 312
3 314 310 309
3 308 312 314
3 314 309 308
3 315 311 310
3 314 315 310
3 312 316 314
3 313 317 312
3 312 317 316
3 318 315 314
3 318 314 316
3 317 319 316
3 319 318 316
CELL_TYPES 578
5
5
5
5
5
5
5
5
5
5
5
5
5
5
5
5
5
5
5
5
5
5
5
5
5
5
5
5
5
5
5
5
5
5
5
5
5
5
5
5
5
5
5
5
5
5
5
5
5
5
5
5
5
5
5
5
5
5
5
5
5
5
5
5
5
5
5
5
5
5
5
5
5
5
5
5
5
5
5
5
5
5
5
5
5
5
5
5
5
5
5
5
5
5
5
5
5
5
5
5
5
5
5
5
5
5
5
5
5
5
5
5
5
5
5
5
5
5
5
5
5
5
5
5
5
5
5
5
5
5
5
5
5
5
5
5
5
5
5
5
5
5
5
5
5
5
5
5
5
5
5
5
5
5
5
5
5
5
5
5
5
5
5
5
5
5
5
5
5
5
5
5
5
5
5
5
5
5
5
5
5
5
5
5
5
5
5
5
5
5
5
5
5
5
5
5
5
5
5
5
5
5
5
5
5
5
5
5
5
5
5
5
5
5
5
5
5
5
5
5
5
5
5
5
5
5
5
5
5
5
5
5
5
5
5
5
5
5
5
5
5
5
5
5
5
5
5
5
5
5
5
5
5
5
5
5
5
5
5
5
5
5
5
5
5
5
5
5
5
5
5
5
5
5
5
5
5
5
5
5
5
5
5
5
5
5
5
5
5
5
5
5
5
5
5
5
5
5
5
5
5
5
5
5
5
5
5
5
5
5
5
5
5
5
5
5
5
5
5
5
5
5
5
5
5
5
5
5
5
5
5
5
5
5
5
5
5
5
5
5
5
5
5
5
5
5
5
5
5
5
5
5
5
5
5
5
5
5
5
5
5
5
5
5
5
5
5
5
5
5
5
5
5
5
5
5
5
5
5
5
5
5
5
5
5
5
5
5
5
5
5
5
5
5
5
5
5
5
5
5
5
5
5
5
5
5
5
5
5
5
5
5
5
5
5
5
5
5
5
5
5
5
5
5
5
5
5
5
5
5
5
5
5
5
5
5
5
5
5
5
5
5
5
5
5
5
5
5
5
5
5
5
5
5
5
5
5
5
5
5
5
5
5
5
5
5
5
5
5
5
5
5
5
5
5
5
5
5
5
5
5
5
5
5
5
5
5
5
5
5
5
5
5
5
5
5
5
5
5
5
5
5
5
5
5
5
5
5
5
5
5
5
5
5
5
5
5
5
5
5
5
5
5
5
5
5
5
5
5
5
5
5
5
5
5
5
5
5
5
5
5
5
5
5
5
5
5
5
5
5
5
5
5
5
5
5
5
5
5
5
5
5
5
5
5
5
5
5
5
5
5
5
5
5
5
5
5
5
POINT_DATA 320
SCALARS theta_e float 1
LOOKUP_TABLE default
1.000001
1.000001
1.000001
1.000001
1.000001
1.000001
1.000001
1.000001
1.000001
1.000001
1.000001
1.000001
1.000001
1.000001
1.000001
1.000001
1.000001
1.000001
1.000001
1.000001
1.000001
1.000001
1.000001
1.000001
1.000001
1.000001
1.000001
1.000001
1.000001
1.000001
1.000001
1.000001
1.000001
1.000000
1.000001
1.000001
1.000001
1.000001
1.000001
1.000001
1.000001
1.000001
1.000001
1.000001
1.000001
1.000001
1.000000
1.000000
1.000001
1.000001
1.000001
1.000001
1.000001
1.000001
1.000000
1.000000
1.000001
1.000000
1.000000
1.000000
1.000001
1.000000
1.000000
1.000000
1.000000
1.000000
1.000001
1.000001
1.000001
1.000001
1.000001
1.000001
1.000000
1.000000
1.000000
1.000000
1.000000
1.000000
1.000000
1.000000
1.000000
1.000000
1.000000
1.000000
1.000000
1.000000
1.000000
1.000001
1.000001
1.000001
1.000001
1.000001
1.000001
1.000000
1.000001
1.000000
1.000000
1.000000
1.000000
1.000000
1.000000
1.000000
1.000001
1.000000
1.000000
1.000001
1.000000
1.000000
1.000000
1.000000
1.000000
1.000000
1.000001
1.000001
1.000001
1.000001
1.000001
1.000001
1.000001
1.000000
1.000001
1.000000
1.000000
1.000000
0.999997
1.000001
0.999999
1.000001
1.000001
1.000001
1.000000
1.000001
1.000000
1.000000
1.000000
1.000000
1.000000
1.000000
1.000000
1.000001
1.000001
1.000001
1.000001
1.000001
1.000001
1.000000
1.000001
1.000000
1.000000
0.999997
0.999988
0.999992
0.999998
1.000001
0.999999
1.000001
1.000001
1.000000
1.000001
1.000000
1.000000
1.000000
1.000000
1.000000
1.000001
1.000001
1.000001
1.000001
1.000001
1.000001
1.000000
0.999999
1.000000
0.999983
0.999990
0.999982
0.999989
0.999997
1.000001
1.000001
1.000001
1.000000
1.000000
1.000000
1.000000
1.000000
1.000001
1.000001
1.000001
1.000001
1.000001
1.000001
1.000001
0.999997
0.999982
0.999987
0.999982
0.999989
0.999999
1.000001
1.000001
1.000000
1.000000
1.000000
1.000000
1.000000
1.000001
1.000001
1.000001
1.000001
1.000001
1.000001
1.000001
0.999997
0.999987
0.999990
0.999997
1.000001
1.000001
1.000000
1.000000
1.000000
1.000000
1.000000
1.000001
1.000001
1.000001
1.000001
1.000001
1.000000
1.000000
0.999999
0.999997
1.000000
1.000000
1.000000
1.000000
1.000000
1.000000
1.000000
1.000001
1.000001
1.000001
1.000001
1.000001
1.000000
1.000000
1.000000
1.000000
1.000000
1.000000
1.000000
1.000000
1.000000
1.000000
1.000001
1.000001
1.000001
1.000001
1.000001
1.000000
1.000000
1.000000
1.000000
1.000000
1.000000
1.000000
1.000000
1.000001
1.000001
1.000001
1.000001
1.000001
1.000000
1.000000
1.000000
1.000000
1.000000
1.000000
1.000000
1.000001
1.000001
1.000001
1.000001
1.000001
1.000000
1.000000
1.000000
1.000000
1.000000
1.000001
1.000001
1.000001
1.000001
1.000001
1.000001
1.000000
1.000000
1.000000
1.000001
1.000001
1.000001
1.000001
1.000001
1.000001
1.000000
1.000001
1.000001
1.000001
1.000001
1.000001
1.000001
1.000001
1.000001
1.000001
1.000001
1.000001
1.000001
1.000001
1.000001
VECTORS fa_u float
0.000000 0.000000 0.000000
0.000000 0.000000 0.000000
0.000000 0.000000 0.000000
0.000000 0.000000 0.000000
0.000000 0.000000 0.000000
0.000000 0.000000 0.000000
0.000000 0.000000 0.000000
0.000000 0.000000 0.000000
0.000000 0.000000 0.000000
0.000000 0.000000 0.000000
0.000000 0.000000 0.000000
0.000000 0.000000 0.000000
0.000000 0.000000 0.000000
0.000000 0.000000 0.000000
0.000000 0.000000 0.000000
0.000000 0.000000 0.000000
0.000000 0.000000 0.000000
0.000000 0.000000 0.000000
0.000000 0.000000 0.000000
0.000000 0.000000 0.000000
0.000000 0.000000 0.000000
0.000000 0.000000 0.000000
0.000000 0.000000 0.000000
0.000000 0.000000 0.000000
0.000000 0.000000 0.000000
0.000000 0.000000 0.000000
0.000000 0.000000 0.000000
0.000000 0.000000 0.000000
0.000000 0.000000 0.000000
0.000000 0.000000 0.000000
0.000000 0.000000 0.000000
0.000000 0.000000 0.000000
0.000000 0.000000 0.000000
0.000000 0.000000 0.000000
0.000000 0.000000 0.000000
0.000000 0.000000 0.000000
0.000000 0.000000 0.000000
0.000000 0.000000 0.000000
0.000000 0.000000 0.000000
0.000000 0.000000 0.000000
0.000000 0.000000 0.000000
0.000000 0.000000 0.000000
0.000000 0.000000 0.000000
0.000000 0.000000 0.000000
0.000000 0.000000 0.000000
0.000000 0.000000 0.000000
0.000000 0.000000 0.000000
0.000000 0.000000 0.000000
0.000000 0.000000 0.000000
0.000000 0.000000 0.000000
0.000000 0.000000 0.000000
0.000000 0.000000 0.000000
0.000000 0.000000 0.000000
0.000000 0.000000 0.000000
0.000000 0.000000 0.000000
0.000000 0.000000 0.000000
0.000000 0.000000 0.000000
0.000000 0.000000 0.000000
0.000000 0.000000 0.000000
0.000000 0.000000 0.000000
0.000000 0.000000 0.000000
0.000000 0.000000 0.000000
0.000000 0.000000 0.000000
0.000000 0.000000 0.000000
0.000000 0.000000 0.000000
0.000000 0.000000 0.000000
0.000000 0.000000 0.000000
0.000000 0.000000 0.000000
0.000000 0.000000 0.000000
0.000000 0.000000 0.000000
0.000000 0.000000 0.000000
0.000000 0.000000 0.000000
0.000000 0.000000 0.000000
0.000000 0.000000 0.000000
0.000000 0.000000 0.000000
0.000000 0.000000 0.000000
0.000000 0.000000 0.000000
0.000000 0.000000 0.000000
0.000000 0.000000 0.000000
0.000000 0.000000 0.000000
0.000000 0.000000 0.000000
0.000000 0.000000 0.000000
0.000000 0.000000 0.000000
0.000000 0.000000 0.000000
0.000000 0.000000 0.000000
0.000000 0.000000 0.000000
0.000000 0.000000 0.000000
0.000000 0.000000 0.000000
0.000000 0.000000 0.000000
0.000000 0.000000 0.000000
0.000000 0.000000 0.000000
0.000000 0.000000 0.000000
0.000000 0.000000 0.000000
0.000000 0.000000 0.000000
0.000000 0.000000 0.000000
0.000000 0.000000 0.000000
0.000000 0.000000 0.000000
0.000000 0.000000 0.000000
0.000000 0.000000 0.000000
0.000000 0.000000 0.000000
0.000000 0.000000 0.000000
0.000000 0.000000 0.000000
0.000000 0.000000 0.000000
0.000000 0.000000 0.000000
0.000000 0.000000 0.000000
0.000000 0.000000 0.000000
0.000000 0.000000 0.000000
0.000000 0.000000 0.000000
0.000000 0.000000 0.000000
0.000000 0.000000 0.000000
0.000000 0.000000 0.000000
0.000000 0.000000 0.000000
0.000000 0.000000 0.000000
0.000000 0.000000 0.000000
0.000000 0.000000 0.000000
0.000000 0.000000 0.000000
0.000000 0.000000 0.000000
0.000000 0.000000 0.000000
0.000000 0.000000 0.000000
0.000000 0.000000 0.000000
0.000000 0.000000 0.000000
0.000000 0.000000 0.000000
0.000000 0.000000 0.000000
0.000000 0.000000 0.000000
0.000000 0.000000 0.000000
0.000000 0.000000 0.000000
0.000000 0.000000 0.000000
0.000000 0.000000 0.000000
0.000000 0.000000 0.000000
0.000000 0.000000 0.000000
0.000000 0.000000 0.000000
0.000000 0.000000 0.000000
0.000000 0.000000 0.000000
0.000000 0.000000 0.000000
0.000000 0.000000 0.000000
0.000000 0.000000 0.000000
0.000000 0.000000 0.000000
0.000000 0.000000 0.000000
0.000000 0.000000 0.000000
0.000000 0.000000 0.000000
0.000000 0.000000 0.000000
0.000000 0.000000 0.000000
0.000000 0.000000 0.000000
0.000000 0.000000 0.000000
0.000000 0.000000 0.000000
0.000000 0.000000 0.000000
0.000000 0.000000 0.000000
0.000000 0.000000 0.000000
0.000000 0.000000 0.000000
0.000000 0.000000 0.000000
0.000000 0.000000 0.000000
0.000000 0.000000 0.000000
0.000000 0.000000 0.000000
0.000000 0.000000 0.000000
0.000000 0.000000 0.000000
0.000000 0.000000 0.000000
0.000000 0.000000 0.000000
0.000000 0.000000 0.000000
0.000000 0.000000 0.000000
0.000000 0.000000 0.000000
0.000000 0.000000 0.000000
0.000000 0.000000 0.000000
0.000000 0.000000 0.000000
0.000000 0.000000 0.000000
0.000000 0.000000 0.000000
0.000000 0.000000 0.000000
0.000000 0.000000 0.000000
0.000000 0.000000 0.000000
0.000000 0.000000 0.000000
0.000000 0.000000 0.000000
0.000000 0.000000 0.000000
0.000000 0.000000 0.000000
0.000000 0.000000 0.000000
0.000000 0.000000 0.000000
0.000000 0.000000 0.000000
0.000000 0.000000 0.000000
0.000000 0.000000 0.000000
0.000000 0.000000 0.000000
0.000000 0.000000 0.000000
0.000000 0.000000 0.000000
0.000000 0.000000 0.000000
0.000000 0.000000 0.000000
0.000000 0.000000 0.000000
0.000000 0.000000 0.000000
0.000000 0.000000 0.000000
0.000000 0.000000 0.000000
0.000000 0.000000 0.000000
0.000000 0.000000 0.000000
0.000000 0.000000 0.000000
0.000000 0.000000 0.000000
0.000000 0.000000 0.000000
0.000000 0.000000 0.000000
0.000000 0.000000 0.000000
0.000000 0.000000 0.000000
0.000000 0.000000 0.000000
0.000000 0.000000 0.000000
0.000000 0.000000 0.000000
0.000000 0.000000 0.000000
0.000000 0.000000 0.000000
0.000000 0.000000 0.000000
0.000000 0.000000 0.000000
0.000000 0.000000 0.000000
0.000000 0.000000 0.000000
0.000000 0.000000 0.000000
0.000000 0.000000 0.000000
0.000000 0.000000 0.000000
0.000000 0.000000 0.000000
0.000000 0.000000 0.000000
0.000000 0.000000 0.000000
0.000000 0.000000 0.000000
0.000000 0.000000 0.000000
0.000000 0.000000 0.000000
0.000000 0.000000 0.000000
0.000000 0.000000 0.000000
0.000000 0.000000 0.000000
0.000000 0.000000 0.000000
0.000000 0.000000 0.000000
0.000000 0.000000 0.000000
0.000000 0.000000 0.000000
0.000000 0.000000 0.000000
0.000000 0.000000 0.000000
0.000000 0.000000 0.000000
0.000000 0.000000 0.000000
0.000000 0.000000 0.000000
0.000000 0.000000 0.000000
0.000000 0.000000 0.000000
0.000000 0.000000 0.000000
0.000000 0.000000 0.000000
0.000000 0.000000 0.000000
0.000000 0.000000 0.000000
0.000000 0.000000 0.000000
0.000000 0.000000 0.000000
0.000000 0.000000 0.000000
0.000000 0.000000 0.000000
0.000000 0.000000 0.000000
0.000000 0.000000 0.000000
0.000000 0.000000 0.000000
0.000000 0.000000 0.000000
0.000000 0.000000 0.000000
0.000000 0.000000 0.000000
0.000000 0.000000 0.000000
0.000000 0.000000 0.000000
0.000000 0.000000 0.000000
0.000000 0.000000 0.000000
0.000000 0.000000 0.000000
0.000000 0.000000 0.000000
0.000000 0.000000 0.000000
0.000000 0.000000 0.000000
0.000000 0.000000 0.000000
0.000000 0.000000 0.000000
0.000000 0.000000 0.000000
0.000000 0.000000 0.000000
0.000000 0.000000 0.000000
0.000000 0.000000 0.000000
0.000000 0.000000 0.000000
0.000000 0.000000 0.000000
0.000000 0.000000 0.000000
0.000000 0.000000 0.000000
0.000000 0.000000 0.000000
0.000000 0.000000 0.000000
0.000000 0.000000 0.000000
0.000000 0.000000 0.000000
0.000000 0.000000 0.000000
0.000000 0.000000 0.000000
0.000000 0.000000 0.000000
0.000000 0.000000 0.000000
0.000000 0.000000 0.000000
0.000000 0.000000 0.000000
0.000000 0.000000 0.000000
0.000000 0.000000 0.000000
0.000000 0.000000 0.000000
0.000000 0.000000 0.000000
0.000000 0.000000 0.000000
0.000000 0.000000 0.000000
0.000000 0.000000 0.000000
0.000000 0.000000 0.000000
0.000000 0.000000 0.000000
0.000000 0.000000 0.000000
0.000000 0.000000 0.000000
0.000000 0.000000 0.000000
0.000000 0.000000 0.000000
0.000000 0.000000 0.000000
0.000000 0.000000 0.000000
0.000000 0.000000 0.000000
0.000000 0.000000 0.000000
0.000000 0.000000 0.000000
0.000000 0.000000 0.000000
0.000000 0.000000 0.000000
0.000000 0.000000 0.000000
0.000000 0.000000 0.000000
0.000000 0.000000 0.000000
0.000000 0.000000 0.000000
0.000000 0.000000 0.000000
0.000000 0.000000 0.000000
0.000000 0.000000 0.000000
0.000000 0.000000 0.000000
0.000000 0.000000 -50.000000
-50.000000 0.000000 -50.000000
-43.333263 0.000000 -45.688287
-45.491061 0.000000 -43.333251
-50.000000 0.000000 -50.000000
-36.666524 0.000000 -36.666522
-50.000000 0.000000 -45.081013
-39.969723 0.000000 -40.027035
-44.152182 0.000000 -29.999787
-50.000000 0.000000 -50.000000
-29.999790 0.000000 -44.846982
-33.448860 0.000000 -33.144800
-44.675584 0.000000 -39.868994
-36.786920 0.000000 -35.128501
-39.801178 0.000000 -23.333080
-50.000000 0.000000 -26.539035
-44.666692 0.000000 -50.000000
-23.333088 0.000000 -44.665228
-26.803847 0.000000 -39.364142
-30.225600 0.000000 -29.606100
-39.359261 0.000000 -33.368054
-33.655326 0.000000 -50.000000
-16.666428 0.000000 -16.666425
-50.000000 0.000000 -9.999824
