# vtk DataFile Version 2.0
CellBP Time: 0.64
ASCII
DATASET UNSTRUCTURED_GRID
POINTS 320 double
-50.000000 -50.000000 0.000000
-50.000000 -43.333314 0.000000
-45.688271 -45.491046 0.000000
-43.333312 -50.000000 0.000000
-50.000000 -36.666628 0.000000
-36.666630 -50.000000 0.000000
-45.080996 -39.969712 0.000000
-40.027012 -44.152166 0.000000
-29.999947 -50.000000 0.000000
-50.000000 -29.999944 0.000000
-44.846965 -33.448852 0.000000
-33.144785 -44.675566 0.000000
-39.868975 -36.786908 0.000000
-35.128479 -39.801157 0.000000
-23.333270 -50.000000 0.000000
-26.539021 -44.666683 0.000000
-50.000000 -23.333268 0.000000
-44.665222 -26.803836 0.000000
-39.364128 -30.225588 0.000000
-29.606076 -39.359244 0.000000
-33.368027 -33.655306 0.000000
-50.000000 -16.666603 0.000000
-16.666606 -50.000000 0.000000
-9.999956 -50.000000 0.000000
-19.964734 -44.588791 0.000000
-23.215759 -39.114643 0.000000
-44.691914 -20.096830 0.000000
-39.367805 -23.528116 0.000000
-34.106003 -26.936940 0.000000
-26.384224 -33.577079 0.000000
-29.155994 -28.926468 0.000000
-50.000000 -9.999950 0.000000
-44.666382 -13.410120 0.000000
-50.000000 -3.333310 0.000000
-3.333317 -50.000000 0.000000
3.333320 -50.000000 0.000000
-13.343484 -44.599106 0.000000
-6.684625 -44.610821 0.000000
-16.693598 -39.153382 0.000000
-20.106906 -33.342679 0.000000
-39.338196 -16.804839 0.000000
-34.018531 -20.274738 0.000000
-28.780692 -23.448935 0.000000
-23.510344 -27.349901 0.000000
-44.635541 -6.705606 0.000000
-39.293066 -10.101905 0.000000
-50.000000 3.333323 0.000000
-44.626890 -0.015760 0.000000
9.999961 -50.000000 0.000000
16.666611 -50.000000 0.000000
-0.016092 -44.618883 0.000000
6.651537 -44.635529 0.000000
-10.044619 -39.222652 0.000000
-3.368212 -39.220510 0.000000
-13.484271 -33.798875 0.000000
-16.709866 -28.271384 0.000000
-33.948114 -13.514349 0.000000
-28.601383 -16.892553 0.000000
-23.291095 -20.312826 0.000000
-18.660109 -23.282177 0.000000
-39.267638 -3.392972 0.000000
-33.904596 -6.796819 0.000000
-50.000000 9.999958 0.000000
-44.606915 6.673194 0.000000
-39.261104 3.325552 0.000000
-50.000000 16.666606 0.000000
23.333272 -50.000000 0.000000
29.999944 -50.000000 0.000000
13.317262 -44.663011 0.000000
19.989382 -44.700133 0.000000
3.307672 -39.245200 0.000000
9.971751 -39.290308 0.000000
-6.735185 -33.791413 0.000000
-0.032369 -33.829718 0.000000
-10.095957 -28.293807 0.000000
-13.122863 -22.898798 0.000000
-28.532934 -10.215294 0.000000
-23.066356 -13.663164 0.000000
-16.976767 -17.208328 0.000000
-33.884967 -0.065469 0.000000
-28.563379 -3.578621 0.000000
-44.564232 13.380183 0.000000
-39.190232 10.014920 0.000000
-33.905956 6.615952 0.000000
-50.000000 23.333265 0.000000
-44.557801 20.137954 0.000000
-50.000000 29.999944 0.000000
36.666626 -50.000000 0.000000
43.333312 -50.000000 0.000000
26.663019 -44.745259 0.000000
33.315133 -44.875858 0.000000
16.631601 -39.357719 0.000000
23.328135 -39.437052 0.000000
6.642774 -33.879533 0.000000
13.290830 -33.965501 0.000000
-3.345464 -28.362786 0.000000
3.356835 -28.451375 0.000000
-6.626031 -22.846474 0.000000
-9.972005 -17.314754 0.000000
-23.185911 -7.015058 0.000000
-17.809927 -10.334905 0.000000
-12.837184 -12.587565 0.000000
-28.607634 3.088425 0.000000
-23.264612 -0.468052 0.000000
-39.039168 16.746466 0.000000
-28.721616 9.926517 0.000000
-33.761880 13.318530 0.000000
-44.521680 26.716678 0.000000
-38.467743 23.892395 0.000000
-44.632092 33.085316 0.000000
-50.000000 36.666635 0.000000
-50.000000 43.333316 0.000000
39.922246 -45.069482 0.000000
45.474545 -45.660332 0.000000
50.000000 -50.000000 0.000000
36.626670 -39.981866 0.000000
30.012195 -39.458527 0.000000
19.904190 -34.092713 0.000000
26.584948 -34.319390 0.000000
9.988881 -28.513711 0.000000
16.611069 -28.659776 0.000000
0.052367 -22.958726 0.000000
6.812261 -23.158804 0.000000
-3.401522 -17.297734 0.000000
-6.871077 -11.038384 0.000000
-17.878965 -3.830270 0.000000
-12.554485 -7.036438 0.000000
-23.311002 6.074010 0.000000
-18.038425 2.456922 0.000000
-23.121876 12.095494 0.000000
-33.572114 19.788915 0.000000
-27.941247 16.885211 0.000000
-33.292656 24.722526 0.000000
-39.473289 30.052499 0.000000
-35.160015 28.137299 0.000000
-39.815697 35.101174 0.000000
-43.991531 39.981941 0.000000
-45.430933 45.684991 0.000000
-50.000000 50.000000 0.000000
44.117115 -39.898829 0.000000
50.000000 -43.333300 0.000000
39.639287 -35.047271 0.000000
33.462786 -33.424429 0.000000
22.984810 -28.817813 0.000000
28.730894 -29.247684 0.000000
13.460752 -23.121809 0.000000
20.054810 -23.438602 0.000000
3.390525 -17.586598 0.000000
10.127821 -17.839766 0.000000
0.140206 -12.025795 0.000000
-2.157268 -6.276283 0.000000
-7.426566 -3.716271 0.000000
-12.643113 -0.801885 0.000000
-18.161194 8.573052 0.000000
-12.968001 5.196942 0.000000
-18.639618 13.752267 0.000000
-21.504865 17.495286 0.000000
-28.940594 23.158136 0.000000
-24.346210 21.554831 0.000000
-30.323285 28.634623 0.000000
-34.253191 33.375435 0.000000
-36.955795 39.577994 0.000000
-39.838614 45.102634 0.000000
-43.333309 50.000000 0.000000
44.585122 -32.971916 0.000000
50.000000 -36.666609 0.000000
39.129238 -29.581679 0.000000
33.500500 -26.367564 0.000000
27.182627 -23.322105 0.000000
23.065522 -18.647732 0.000000
16.988901 -16.979313 0.000000
6.713601 -12.218842 0.000000
12.350518 -12.732147 0.000000
-3.386985 -1.495437 0.000000
3.950767 -7.046107 0.000000
1.022095 -2.121412 0.000000
-7.027530 2.334230 0.000000
-8.452056 7.843439 0.000000
-12.847653 11.933958 0.000000
-15.693168 17.700811 0.000000
-19.287177 22.983178 0.000000
-24.170957 27.355018 0.000000
-27.286256 33.626158 0.000000
-30.406552 39.161309 0.000000
-33.447675 44.738844 0.000000
-36.666620 50.000000 0.000000
44.547708 -26.499698 0.000000
50.000000 -29.999919 0.000000
39.040033 -23.179187 0.000000
33.449856 -19.899949 0.000000
28.040211 -16.574573 0.000000
22.684103 -13.124384 0.000000
17.176779 -9.911081 0.000000
10.952868 -6.652678 0.000000
-1.350967 2.306210 0.000000
6.232579 -1.744104 0.000000
2.911263 1.601791 0.000000
-3.552382 7.204779 0.000000
-6.312152 12.446944 0.000000
-9.629313 17.700530 0.000000
-13.166592 23.111995 0.000000
-17.316436 28.185277 0.000000
-20.570487 33.474522 0.000000
-23.665755 39.064061 0.000000
-26.830658 44.585393 0.000000
-29.999939 50.000000 0.000000
44.528750 -19.930401 0.000000
50.000000 -23.333240 0.000000
39.036452 -16.593987 0.000000
33.576507 -13.281183 0.000000
28.151135 -9.964829 0.000000
22.726354 -6.604466 0.000000
17.264732 -3.337621 0.000000
12.033601 0.189094 0.000000
1.933172 6.304724 0.000000
7.058851 3.852846 0.000000
-0.211568 11.995029 0.000000
-3.271624 17.529462 0.000000
-6.701309 22.978412 0.000000
-10.568090 28.267667 0.000000
-13.723771 33.661672 0.000000
-16.945466 39.080501 0.000000
-20.140265 44.548523 0.000000
-23.333266 50.000000 0.000000
44.536390 -13.303498 0.000000
50.000000 -16.666579 0.000000
39.080039 -9.966554 0.000000
33.646901 -6.640814 0.000000
28.235893 -3.307214 0.000000
22.845658 0.018613 0.000000
17.533583 3.364174 0.000000
12.217713 6.599830 0.000000
6.732215 10.870378 0.000000
3.301224 17.195030 0.000000
-0.081734 22.850611 0.000000
-3.518296 28.312491 0.000000
-6.831108 33.774271 0.000000
-10.137124 39.170599 0.000000
-13.435410 44.563634 0.000000
-16.666604 50.000000 0.000000
44.554491 -6.654592 0.000000
50.000000 -9.999937 0.000000
39.123525 -3.321248 0.000000
33.713488 0.008777 0.000000
28.333187 3.343772 0.000000
23.002330 6.693823 0.000000
17.831697 10.024188 0.000000
12.654169 12.224084 0.000000
9.792229 17.235301 0.000000
6.477349 22.722437 0.000000
3.188461 28.269329 0.000000
-0.115841 33.734650 0.000000
-3.425080 39.168549 0.000000
-6.725211 44.581899 0.000000
-9.999955 50.000000 0.000000
44.575775 0.001954 0.000000
50.000000 -3.333311 0.000000
39.166869 3.331934 0.000000
33.779192 6.655567 0.000000
28.424243 9.995166 0.000000
23.046281 13.416596 0.000000
16.947555 17.021661 0.000000
12.901690 22.671409 0.000000
9.814521 28.232379 0.000000
6.604102 33.718709 0.000000
3.286541 39.164426 0.000000
-0.029833 44.584642 0.000000
-3.333315 50.000000 0.000000
44.586792 6.665433 0.000000
50.000000 3.333310 0.000000
39.198003 9.981887 0.000000
33.843332 13.277146 0.000000
28.541631 16.584988 0.000000
23.386403 20.084391 0.000000
18.531650 23.111778 0.000000
16.393505 28.298794 0.000000
13.328865 33.754807 0.000000
9.986453 39.181973 0.000000
6.665880 44.584436 0.000000
3.333319 50.000000 0.000000
44.608915 13.317730 0.000000
50.000000 9.999941 0.000000
39.251318 16.612357 0.000000
33.931751 19.862857 0.000000
28.612115 22.926003 0.000000
23.279574 27.207418 0.000000
19.901244 33.303197 0.000000
16.573617 39.041013 0.000000
13.268128 44.526834 0.000000
9.999954 50.000000 0.000000
44.632073 19.972752 0.000000
50.000000 16.666586 0.000000
39.298432 23.262005 0.000000
34.043680 26.514637 0.000000
28.965620 28.539434 0.000000
26.202241 33.410090 0.000000
23.066574 38.968848 0.000000
19.888351 44.507087 0.000000
16.666596 50.000000 0.000000
44.639750 26.642708 0.000000
50.000000 23.333247 0.000000
39.293271 29.966552 0.000000
33.212251 33.371171 0.000000
29.411949 39.045794 0.000000
26.422185 44.505948 0.000000
23.333254 50.000000 0.000000
44.774879 33.291642 0.000000
50.000000 29.999923 0.000000
39.738088 36.596197 0.000000
34.830909 39.525487 0.000000
32.833660 44.514182 0.000000
29.999927 50.000000 0.000000
44.978140 39.877736 0.000000
50.000000 36.666610 0.000000
39.734690 43.968903 0.000000
36.666612 50.000000 0.000000
45.621172 45.409667 0.000000
50.000000 43.333303 0.000000
43.333300 50.000000 0.000000
50.000000 50.000000 0.000000
CELLS 578 2312
3 1 0 2
3 0 3 2
3 4 1 6
3 6 1 2
3 3 5 7
3 3 7 2
3 6 2 7
3 9 4 10
3 10 4 6
3 5 8 11
3 7 5 11
3 10 6 12
3 12 6 7
3 7 11 13
3 7 13 12
3 8 14 15
3 11 8 15
3 16 9 17
3 17 9 10
3 17 10 18
3 18 10 12
3 11 15 19
3 13 11 19
3 18 12 20
3 13 19 20
3 20 12 13
3 14 22 24
3 15 14 24
3 15 24 25
3 19 15 25
3 21 16 26
3 26 16 17
3 26 17 27
3 27 17 18
3 27 18 28
3 28 18 20
3 19 25 29
3 19 29 20
3 28 20 30
3 30 20 29
3 31 21 32
3 32 21 26
3 22 23 36
3 24 22 36
3 23 34 37
3 36 23 37
3 24 36 38
3 25 24 38
3 25 38 39
3 29 25 39
3 32 26 40
3 40 26 27
3 40 27 41
3 41 27 28
3 41 28 42
3 42 28 30
3 29 39 43
3 29 43 30
3 42 30 43
3 33 31 44
3 44 31 32
3 44 32 45
3 45 32 40
3 46 33 47
3 47 33 44
3 34 35 50
3 37 34 50
3 35 48 51
3 50 35 51
3 36 37 52
3 38 36 52
3 37 50 53
3 52 37 53
3 38 52 54
3 39 38 54
3 39 54 55
3 43 39 55
3 45 40 56
3 56 40 41
3 56 41 57
3 57 41 42
3 57 42 58
3 58 42 43
3 43 55 59
3 43 59 58
3 47 44 60
3 60 44 45
3 60 45 61
3 61 45 56
3 62 46 63
3 63 46 47
3 63 47 64
3 64 47 60
3 48 49 68
3 51 48 68
3 49 66 69
3 68 49 69
3 50 51 70
3 53 50 70
3 51 68 71
3 70 51 71
3 52 53 72
3 54 52 72
3 53 70 73
3 72 53 73
3 54 72 74
3 55 54 74
3 55 74 75
3 59 55 75
3 61 56 76
3 76 56 57
3 76 57 77
3 77 57 58
3 77 58 78
3 59 75 78
3 78 58 59
3 64 60 79
3 79 60 61
3 79 61 80
3 80 61 76
3 65 62 81
3 81 62 63
3 81 63 82
3 82 63 64
3 82 64 83
3 83 64 79
3 84 65 85
3 85 65 81
3 66 67 89
3 69 66 89
3 67 87 90
3 89 67 90
3 68 69 91
3 71 68 91
3 69 89 92
3 91 69 92
3 70 71 93
3 73 70 93
3 71 91 94
3 93 71 94
3 72 73 95
3 74 72 95
3 73 93 96
3 95 73 96
3 74 95 97
3 75 74 97
3 75 97 98
3 78 75 98
3 80 76 99
3 99 76 77
3 99 77 100
3 100 77 78
3 100 78 101
3 98 101 78
3 83 79 102
3 102 79 80
3 102 80 103
3 103 80 99
3 85 81 104
3 104 81 82
3 105 83 102
3 104 82 106
3 106 82 83
3 106 83 105
3 86 84 107
3 107 84 85
3 107 85 108
3 108 85 104
3 109 86 107
3 110 86 109
3 87 88 112
3 90 87 112
3 112 88 113
3 88 114 113
3 90 112 115
3 89 90 116
3 92 89 116
3 116 90 115
3 91 92 117
3 94 91 117
3 92 116 118
3 117 92 118
3 93 94 119
3 96 93 119
3 94 117 120
3 119 94 120
3 95 96 121
3 97 95 121
3 96 119 122
3 121 96 122
3 97 121 123
3 98 97 123
3 98 123 124
3 98 124 101
3 103 99 125
3 125 99 100
3 125 100 126
3 126 100 101
3 126 101 124
3 105 102 127
3 127 102 103
3 127 103 128
3 128 103 125
3 129 105 127
3 108 104 130
3 130 104 106
3 130 106 131
3 131 106 105
3 131 105 129
3 108 130 132
3 109 107 133
3 133 107 108
3 133 108 134
3 108 132 134
3 135 109 133
3 111 110 136
3 136 110 109
3 136 109 135
3 137 111 136
3 138 111 137
3 112 113 139
3 115 112 139
3 114 140 113
3 140 139 113
3 139 141 115
3 116 115 142
3 118 116 142
3 142 115 141
3 117 118 143
3 120 117 143
3 118 142 144
3 143 118 144
3 119 120 145
3 122 119 145
3 120 143 146
3 145 120 146
3 121 122 147
3 123 121 147
3 122 145 148
3 147 122 148
3 123 147 149
3 124 123 149
3 124 149 150
3 151 126 124
3 124 150 151
3 128 125 152
3 152 125 126
3 152 126 151
3 129 127 153
3 153 127 128
3 128 152 154
3 153 128 154
3 155 129 153
3 131 129 156
3 156 129 155
3 132 130 157
3 130 131 157
3 157 131 158
3 131 156 158
3 132 157 159
3 132 159 134
3 135 133 160
3 160 133 134
3 160 134 159
3 136 135 161
3 135 160 161
3 162 137 136
3 161 162 136
3 163 138 137
3 162 163 137
3 139 164 141
3 140 165 139
3 139 165 164
3 141 164 166
3 141 166 142
3 166 167 142
3 144 142 167
3 167 168 144
3 143 144 168
3 146 143 168
3 168 169 146
3 145 146 170
3 148 145 170
3 170 146 169
3 147 148 171
3 149 147 171
3 148 170 172
3 171 148 172
3 173 151 150
3 149 171 174
3 150 149 174
3 150 174 175
3 150 175 173
3 154 152 176
3 152 151 176
3 176 151 173
3 154 176 177
3 155 153 178
3 177 178 154
3 154 178 153
3 156 155 179
3 155 178 179
3 180 158 156
3 179 180 156
3 181 159 157
3 180 181 158
3 181 157 158
3 182 160 159
3 181 182 159
3 183 161 160
3 182 183 160
3 184 162 161
3 184 161 183
3 185 163 162
3 184 185 162
3 164 186 166
3 165 187 164
3 164 187 186
3 166 186 188
3 166 188 167
3 167 188 189
3 167 189 168
3 168 189 190
3 168 190 169
3 169 190 191
3 169 191 170
3 192 172 170
3 170 191 192
3 192 193 172
3 171 172 193
3 174 171 193
3 194 173 175
3 176 173 194
3 175 174 195
3 193 195 174
3 195 196 175
3 175 196 194
3 197 177 176
3 194 197 176
3 198 178 177
3 197 198 177
3 199 179 178
3 198 199 178
3 200 180 179
3 199 200 179
3 201 181 180
3 200 201 180
3 202 182 181
3 201 202 181
3 203 183 182
3 202 203 182
3 204 184 183
3 203 204 183
3 205 185 184
3 204 205 184
3 186 206 188
3 187 207 186
3 186 207 206
3 188 206 208
3 188 208 189
3 189 208 209
3 189 209 190
3 190 209 210
3 190 210 191
3 191 210 211
3 191 211 192
3 192 211 212
3 192 212 193
3 193 212 213
3 193 213 195
3 214 197 194
3 214 194 196
3 195 213 215
3 195 215 196
3 196 215 214
3 216 198 197
3 214 216 197
3 217 199 198
3 216 217 198
3 218 200 199
3 217 218 199
3 219 201 200
3 218 219 200
3 220 202 201
3 219 220 201
3 221 203 202
3 220 221 202
3 222 204 203
3 221 222 203
3 223 205 204
3 222 223 204
3 206 224 208
3 207 225 206
3 206 225 224
3 208 224 226
3 208 226 209
3 209 226 227
3 209 227 210
3 210 227 228
3 210 228 211
3 211 228 229
3 211 229 212
3 212 229 230
3 212 230 213
3 213 230 231
3 213 231 215
3 232 216 214
3 215 231 232
3 232 214 215
3 233 217 216
3 232 233 216
3 234 218 217
3 233 234 217
3 235 219 218
3 234 235 218
3 236 220 219
3 235 236 219
3 237 221 220
3 236 237 220
3 238 222 221
3 237 238 221
3 239 223 222
3 238 239 222
3 224 240 226
3 225 241 224
3 224 241 240
3 226 240 242
3 226 242 227
3 227 242 243
3 227 243 228
3 228 243 244
3 228 244 229
3 244 245 229
3 229 245 230
3 230 245 246
3 230 246 231
3 231 246 247
3 231 247 232
3 248 233 232
3 248 232 247
3 249 234 233
3 248 249 233
3 250 235 234
3 249 250 234
3 251 236 235
3 250 251 235
3 252 237 236
3 251 252 236
3 253 238 237
3 252 253 237
3 254 239 238
3 253 254 238
3 240 255 242
3 241 256 240
3 240 256 255
3 242 255 257
3 242 257 243
3 243 257 258
3 243 258 244
3 244 258 259
3 244 259 245
3 245 259 260
3 245 260 246
3 246 260 261
3 246 261 247
3 248 247 261
3 262 249 248
3 261 262 248
3 263 250 249
3 262 263 249
3 264 251 250
3 263 264 250
3 265 252 251
3 264 265 251
3 266 253 252
3 265 266 252
3 267 254 253
3 266 267 253
3 255 268 257
3 256 269 255
3 255 269 268
3 257 268 270
3 257 270 258
3 258 270 271
3 258 271 259
3 259 271 272
3 259 272 260
3 260 272 273
3 260 273 261
3 274 262 261
3 261 273 274
3 275 263 262
3 274 275 262
3 276 264 263
3 275 276 263
3 277 265 264
3 276 277 264
3 278 266 265
3 277 278 265
3 279 267 266
3 278 279 266
3 268 280 270
3 269 281 268
3 268 281 280
3 270 280 282
3 270 282 271
3 271 282 283
3 271 283 272
3 283 284 272
3 272 284 273
3 285 275 274
3 273 284 285
3 285 274 273
3 286 276 275
3 285 286 275
3 287 277 276
3 286 287 276
3 288 278 277
3 287 288 277
3 289 279 278
3 288 289 278
3 280 290 282
3 281 291 280
3 280 291 290
3 282 290 292
3 282 292 283
3 283 292 293
3 283 293 284
3 284 293 294
3 284 294 285
3 295 286 285
3 295 285 294
3 296 287 286
3 295 296 286
3 297 288 287
3 296 297 287
3 298 289 288
3 297 298 288
3 290 299 292
3 291 300 290
3 290 300 299
3 292 299 301
3 292 301 293
3 293 301 302
3 293 302 294
3 294 302 295
3 303 296 295
3 303 295 302
3 304 297 296
3 303 304 296
3 305 298 297
3 304 305 297
3 299 306 301
3 300 307 299
3 299 307 306
3 301 306 308
3 301 308 302
3 309 303 302
3 302 308 309
3 310 304 303
3 309 310 303
3 311 305 304
3 310 311 304
3 306 312 308
3 307 313 306
3 306 313 312
3 314 310 309
3 308 312 314
3 314 309 308
3 315 311 310
3 314 315 310
3 312 316 314
3 313 317 312
3 312 317 316
3 318 315 314
3 318 314 316
3 317 319 316
3 319 318 316
CELL_TYPES 578
5
5
5
5
5
5
5
5
5
5
5
5
5
5
5
5
5
5
5
5
5
5
5
5
5
5
5
5
5
5
5
5
5
5
5
5
5
5
5
5
5
5
5
5
5
5
5
5
5
5
5
5
5
5
5
5
5
5
5
5
5
5
5
5
5
5
5
5
5
5
5
5
5
5
5
5
5
5
5
5
5
5
5
5
5
5
5
5
5
5
5
5
5
5
5
5
5
5
5
5
5
5
5
5
5
5
5
5
5
5
5
5
5
5
5
5
5
5
5
5
5
5
5
5
5
5
5
5
5
5
5
5
5
5
5
5
5
5
5
5
5
5
5
5
5
5
5
5
5
5
5
5
5
5
5
5
5
5
5
5
5
5
5
5
5
5
5
5
5
5
5
5
5
5
5
5
5
5
5
5
5
5
5
5
5
5
5
5
5
5
5
5
5
5
5
5
5
5
5
5
5
5
5
5
5
5
5
5
5
5
5
5
5
5
5
5
5
5
5
5
5
5
5
5
5
5
5
5
5
5
5
5
5
5
5
5
5
5
5
5
5
5
5
5
5
5
5
5
5
5
5
5
5
5
5
5
5
5
5
5
5
5
5
5
5
5
5
5
5
5
5
5
5
5
5
5
5
5
5
5
5
5
5
5
5
5
5
5
5
5
5
5
5
5
5
5
5
5
5
5
5
5
5
5
5
5
5
5
5
5
5
5
5
5
5
5
5
5
5
5
5
5
5
5
5
5
5
5
5
5
5
5
5
5
5
5
5
5
5
5
5
5
5
5
5
5
5
5
5
5
5
5
5
5
5
5
5
5
5
5
5
5
5
5
5
5
5
5
5
5
5
5
5
5
5
5
5
5
5
5
5
5
5
5
5
5
5
5
5
5
5
5
5
5
5
5
5
5
5
5
5
5
5
5
5
5
5
5
5
5
5
5
5
5
5
5
5
5
5
5
5
5
5
5
5
5
5
5
5
5
5
5
5
5
5
5
5
5
5
5
5
5
5
5
5
5
5
5
5
5
5
5
5
5
5
5
5
5
5
5
5
5
5
5
5
5
5
5
5
5
5
5
5
5
5
5
5
5
5
5
5
5
5
5
5
5
5
5
5
5
5
5
5
5
5
5
5
5
5
5
5
5
5
5
5
5
5
5
5
5
5
5
5
5
5
5
5
5
5
5
5
5
5
5
5
5
5
5
5
5
5
5
5
5
5
5
5
5
5
5
5
5
5
5
5
5
5
5
5
5
5
5
5
5
5
5
5
5
5
5
5
5
5
5
5
5
5
5
5
5
5
5
5
5
5
5
5
5
POINT_DATA 320
SCALARS theta_e float 1
LOOKUP_TABLE default
1.000000
1.000000
1.000000
1.000000
1.000000
1.000000
1.000000
1.000000
1.000000
1.000000
1.000000
1.000000
1.000000
1.000000
1.000000
1.000000
1.000000
1.000000
1.000000
1.000000
1.000000
1.000000
1.000000
1.000000
1.000000
1.000000
1.000000
1.000000
1.000000
1.000000
1.000000
1.000000
1.000000
1.000000
1.000000
1.000000
1.000000
1.000000
1.000000
1.000000
1.000000
1.000000
1.000000
1.000000
1.000000
1.000000
1.000000
1.000000
1.000000
1.000000
1.000000
1.000000
1.000000
1.000000
1.000000
1.000000
1.000000
1.000000
1.000000
1.000000
1.000000
1.000000
1.000000
1.000000
1.000000
1.000000
1.000000
1.000000
1.000000
1.000000
1.000000
1.000000
1.000000
1.000000
1.000000
1.000000
1.000000
1.000000
1.000000
1.000000
1.000000
1.000000
1.000000
1.000000
1.000000
1.000000
1.000000
1.000000
1.000000
1.000000
1.000000
1.000000
1.000000
1.000000
1.000000
1.000000
1.000000
1.000000
1.000000
1.000000
1.000000
1.000000
1.000000
1.000000
1.000000
1.000000
1.000000
1.000000
1.000000
1.000000
1.000000
1.000000
1.000000
1.000000
1.000000
1.000000
1.000000
1.000000
1.000000
1.000000
1.000000
1.000000
1.000000
1.000000
0.999999
1.000000
0.999999
1.000000
1.000000
1.000000
1.000000
1.000000
1.000000
1.000000
1.000000
1.000000
1.000000
1.000000
1.000000
1.000000
1.000000
1.000000
1.000000
1.000000
1.000000
1.000000
1.000000
1.000000
1.000000
0.999998
0.999993
0.999995
0.999999
1.000000
1.000000
1.000000
1.000000
1.000000
1.000000
1.000000
1.000000
1.000000
1.000000
1.000000
1.000000
1.000000
1.000000
1.000000
1.000000
1.000000
1.000000
1.000000
1.000000
0.999990
0.999995
0.999990
0.999994
0.999998
1.000001
1.000000
1.000000
1.000000
1.000000
1.000000
1.000000
1.000000
1.000000
1.000000
1.000000
1.000000
1.000000
1.000000
1.000001
0.999999
0.999990
0.999993
0.999990
0.999994
1.000000
1.000000
1.000000
1.000000
1.000000
1.000000
1.000000
1.000000
1.000000
1.000000
1.000000
1.000000
1.000000
1.000000
1.000000
0.999998
0.999993
0.999995
0.999998
1.000000
1.000000
1.000000
1.000000
1.000000
1.000000
1.000000
1.000000
1.000000
1.000000
1.000000
1.000000
1.000000
1.000000
0.999999
0.999998
1.000000
1.000000
1.000000
1.000000
1.000000
1.000000
1.000000
1.000000
1.000000
1.000000
1.000000
1.000000
1.000000
1.000000
1.000000
1.000000
1.000000
1.000000
1.000000
1.000000
1.000000
1.000000
1.000000
1.000000
1.000000
1.000000
1.000000
1.000000
1.000000
1.000000
1.000000
1.000000
1.000000
1.000000
1.000000
1.000000
1.000000
1.000000
1.000000
1.000000
1.000000
1.000000
1.000000
1.000000
1.000000
1.000000
1.000000
1.000000
1.000000
1.000000
1.000000
1.000000
1.000000
1.000000
1.000000
1.000000
1.000000
1.000000
1.000000
1.000000
1.000000
1.000000
1.000000
1.000000
1.000000
1.000000
1.000001
1.000000
1.000001
1.000001
1.000001
1.000001
1.000000
1.000001
1.000001
1.000001
1.000001
1.000001
1.000001
1.000001
1.000001
1.000001
1.000001
1.000001
1.000001
1.000001
1.000001
VECTORS fa_u float
0.000000 0.000000 0.000000
0.000000 0.000000 0.000000
0.000000 0.000000 0.000000
0.000000 0.000000 0.000000
0.000000 0.000000 0.000000
0.000000 0.000000 0.000000
0.000000 0.000000 0.000000
0.000000 0.000000 0.000000
0.000000 0.000000 0.000000
0.000000 0.000000 0.000000
0.000000 0.000000 0.000000
0.000000 0.000000 0.000000
0.000000 0.000000 0.000000
0.000000 0.000000 0.000000
0.000000 0.000000 0.000000
0.000000 0.000000 0.000000
0.000000 0.000000 0.000000
0.000000 0.000000 0.000000
0.000000 0.000000 0.000000
0.000000 0.000000 0.000000
0.000000 0.000000 0.000000
0.000000 0.000000 0.000000
0.000000 0.000000 0.000000
0.000000 0.000000 0.000000
0.000000 0.000000 0.000000
0.000000 0.000000 0.000000
0.000000 0.000000 0.000000
0.000000 0.000000 0.000000
0.000000 0.000000 0.000000
0.000000 0.000000 0.000000
0.000000 0.000000 0.000000
0.000000 0.000000 0.000000
0.000000 0.000000 0.000000
0.000000 0.000000 0.000000
0.000000 0.000000 0.000000
0.000000 0.000000 0.000000
0.000000 0.000000 0.000000
0.000000 0.000000 0.000000
0.000000 0.000000 0.000000
0.000000 0.000000 0.000000
0.000000 0.000000 0.000000
0.000000 0.000000 0.000000
0.000000 0.000000 0.000000
0.000000 0.000000 0.000000
0.000000 0.000000 0.000000
0.000000 0.000000 0.000000
0.000000 0.000000 0.000000
0.000000 0.000000 0.000000
0.000000 0.000000 0.000000
0.000000 0.000000 0.000000
0.000000 0.000000 0.000000
0.000000 0.000000 0.000000
0.000000 0.000000 0.000000
0.000000 0.000000 0.000000
0.000000 0.000000 0.000000
0.000000 0.000000 0.000000
0.000000 0.000000 0.000000
0.000000 0.000000 0.000000
0.000000 0.000000 0.000000
0.000000 0.000000 0.000000
0.000000 0.000000 0.000000
0.000000 0.000000 0.000000
0.000000 0.000000 0.000000
0.000000 0.000000 0.000000
0.000000 0.000000 0.000000
0.000000 0.000000 0.000000
0.000000 0.000000 0.000000
0.000000 0.000000 0.000000
0.000000 0.000000 0.000000
0.000000 0.000000 0.000000
0.000000 0.000000 0.000000
0.000000 0.000000 0.000000
0.000000 0.000000 0.000000
0.000000 0.000000 0.000000
0.000000 0.000000 0.000000
0.000000 0.000000 0.000000
0.000000 0.000000 0.000000
0.000000 0.000000 0.000000
0.000000 0.000000 0.000000
0.000000 0.000000 0.000000
0.000000 0.000000 0.000000
0.000000 0.000000 0.000000
0.000000 0.000000 0.000000
0.000000 0.000000 0.000000
0.000000 0.000000 0.000000
0.000000 0.000000 0.000000
0.000000 0.000000 0.000000
0.000000 0.000000 0.000000
0.000000 0.000000 0.000000
0.000000 0.000000 0.000000
0.000000 0.000000 0.000000
0.000000 0.000000 0.000000
0.000000 0.000000 0.000000
0.000000 0.000000 0.000000
0.000000 0.000000 0.000000
0.000000 0.000000 0.000000
0.000000 0.000000 0.000000
0.000000 0.000000 0.000000
0.000000 0.000000 0.000000
0.000000 0.000000 0.000000
0.000000 0.000000 0.000000
0.000000 0.000000 0.000000
0.000000 0.000000 0.000000
0.000000 0.000000 0.000000
0.000000 0.000000 0.000000
0.000000 0.000000 0.000000
0.000000 0.000000 0.000000
0.000000 0.000000 0.000000
0.000000 0.000000 0.000000
0.000000 0.000000 0.000000
0.000000 0.000000 0.000000
0.000000 0.000000 0.000000
0.000000 0.000000 0.000000
0.000000 0.000000 0.000000
0.000000 0.000000 0.000000
0.000000 0.000000 0.000000
0.000000 0.000000 0.000000
0.000000 0.000000 0.000000
0.000000 0.000000 0.000000
0.000000 0.000000 0.000000
0.000000 0.000000 0.000000
0.000000 0.000000 0.000000
0.000000 0.000000 0.000000
0.000000 0.000000 0.000000
0.000000 0.000000 0.000000
0.000000 0.000000 0.000000
0.000000 0.000000 0.000000
0.000000 0.000000 0.000000
0.000000 0.000000 0.000000
0.000000 0.000000 0.000000
0.000000 0.000000 0.000000
0.000000 0.000000 0.000000
0.000000 0.000000 0.000000
0.000000 0.000000 0.000000
0.000000 0.000000 0.000000
0.000000 0.000000 0.000000
0.000000 0.000000 0.000000
0.000000 0.000000 0.000000
0.000000 0.000000 0.000000
0.000000 0.000000 0.000000
0.000000 0.000000 0.000000
0.000000 0.000000 0.000000
0.000000 0.000000 0.000000
0.000000 0.000000 0.000000
0.000000 0.000000 0.000000
0.000000 0.000000 0.000000
0.000000 0.000000 0.000000
0.000000 0.000000 0.000000
0.000000 0.000000 0.000000
0.000000 0.000000 0.000000
0.000000 0.000000 0.000000
0.000000 0.000000 0.000000
0.000000 0.000000 0.000000
0.000000 0.000000 0.000000
0.000000 0.000000 0.000000
0.000000 0.000000 0.000000
0.000000 0.000000 0.000000
0.000000 0.000000 0.000000
0.000000 0.000000 0.000000
0.000000 0.000000 0.000000
0.000000 0.000000 0.000000
0.000000 0.000000 0.000000
0.000000 0.000000 0.000000
0.000000 0.000000 0.000000
0.000000 0.000000 0.000000
0.000000 0.000000 0.000000
0.000000 0.000000 0.000000
0.000000 0.000000 0.000000
0.000000 0.000000 0.000000
0.000000 0.000000 0.000000
0.000000 0.000000 0.000000
0.000000 0.000000 0.000000
0.000000 0.000000 0.000000
0.000000 0.000000 0.000000
0.000000 0.000000 0.000000
0.000000 0.000000 0.000000
0.000000 0.000000 0.000000
0.000000 0.000000 0.000000
0.000000 0.000000 0.000000
0.000000 0.000000 0.000000
0.000000 0.000000 0.000000
0.000000 0.000000 0.000000
0.000000 0.000000 0.000000
0.000000 0.000000 0.000000
0.000000 0.000000 0.000000
0.000000 0.000000 0.000000
0.000000 0.000000 0.000000
0.000000 0.000000 0.000000
0.000000 0.000000 0.000000
0.000000 0.000000 0.000000
0.000000 0.000000 0.000000
0.000000 0.000000 0.000000
0.000000 0.000000 0.000000
0.000000 0.000000 0.000000
0.000000 0.000000 0.000000
0.000000 0.000000 0.000000
0.000000 0.000000 0.000000
0.000000 0.000000 0.000000
0.000000 0.000000 0.000000
0.000000 0.000000 0.000000
0.000000 0.000000 0.000000
0.000000 0.000000 0.000000
0.000000 0.000000 0.000000
0.000000 0.000000 0.000000
0.000000 0.000000 0.000000
0.000000 0.000000 0.000000
0.000000 0.000000 0.000000
0.000000 0.000000 0.000000
0.000000 0.000000 0.000000
0.000000 0.000000 0.000000
0.000000 0.000000 0.000000
0.000000 0.000000 0.000000
0.000000 0.000000 0.000000
0.000000 0.000000 0.000000
0.000000 0.000000 0.000000
0.000000 0.000000 0.000000
0.000000 0.000000 0.000000
0.000000 0.000000 0.000000
0.000000 0.000000 0.000000
0.000000 0.000000 0.000000
0.000000 0.000000 0.000000
0.000000 0.000000 0.000000
0.000000 0.000000 0.000000
0.000000 0.000000 0.000000
0.000000 0.000000 0.000000
0.000000 0.000000 0.000000
0.000000 0.000000 0.000000
0.000000 0.000000 0.000000
0.000000 0.000000 0.000000
0.000000 0.000000 0.000000
0.000000 0.000000 0.000000
0.000000 0.000000 0.000000
0.000000 0.000000 0.000000
0.000000 0.000000 0.000000
0.000000 0.000000 0.000000
0.000000 0.000000 0.000000
0.000000 0.000000 0.000000
0.000000 0.000000 0.000000
0.000000 0.000000 0.000000
0.000000 0.000000 0.000000
0.000000 0.000000 0.000000
0.000000 0.000000 0.000000
0.000000 0.000000 0.000000
0.000000 0.000000 0.000000
0.000000 0.000000 0.000000
0.000000 0.000000 0.000000
0.000000 0.000000 0.000000
0.000000 0.000000 0.000000
0.000000 0.000000 0.000000
0.000000 0.000000 0.000000
0.000000 0.000000 0.000000
0.000000 0.000000 0.000000
0.000000 0.000000 0.000000
0.000000 0.000000 0.000000
0.000000 0.000000 0.000000
0.000000 0.000000 0.000000
0.000000 0.000000 0.000000
0.000000 0.000000 0.000000
0.000000 0.000000 0.000000
0.000000 0.000000 0.000000
0.000000 0.000000 0.000000
0.000000 0.000000 0.000000
0.000000 0.000000 0.000000
0.000000 0.000000 0.000000
0.000000 0.000000 0.000000
0.000000 0.000000 0.000000
0.000000 0.000000 0.000000
0.000000 0.000000 0.000000
0.000000 0.000000 0.000000
0.000000 0.000000 0.000000
0.000000 0.000000 0.000000
0.000000 0.000000 0.000000
0.000000 0.000000 0.000000
0.000000 0.000000 0.000000
0.000000 0.000000 0.000000
0.000000 0.000000 0.000000
0.000000 0.000000 0.000000
0.000000 0.000000 0.000000
0.000000 0.000000 0.000000
0.000000 0.000000 0.000000
0.000000 0.000000 0.000000
0.000000 0.000000 0.000000
0.000000 0.000000 0.000000
0.000000 0.000000 0.000000
0.000000 0.000000 0.000000
0.000000 0.000000 0.000000
0.000000 0.000000 0.000000
0.000000 0.000000 0.000000
0.000000 0.000000 0.000000
0.000000 0.000000 0.000000
0.000000 0.000000 0.000000
0.000000 0.000000 0.000000
0.000000 0.000000 0.000000
0.000000 0.000000 0.000000
0.000000 0.000000 0.000000
0.000000 0.000000 0.000000
0.000000 0.000000 -50.000000
-50.000000 0.000000 -50.000000
-43.333314 0.000000 -45.688271
-45.491046 0.000000 -43.333312
-50.000000 0.000000 -50.000000
-36.666628 0.000000 -36.666630
-50.000000 0.000000 -45.080996
-39.969712 0.000000 -40.027012
-44.152166 0.000000 -29.999947
-50.000000 0.000000 -50.000000
-29.999944 0.000000 -44.846965
-33.448852 0.000000 -33.144785
-44.675566 0.000000 -39.868975
-36.786908 0.000000 -35.128479
-39.801157 0.000000 -23.333270
-50.000000 0.000000 -26.539021
-44.666683 0.000000 -50.000000
-23.333268 0.000000 -44.665222
-26.803836 0.000000 -39.364128
-30.225588 0.000000 -29.606076
-39.359244 0.000000 -33.368027
-33.655306 0.000000 -50.000000
-16.666603 0.000000 -16.666606
-50.000000 0.000000 -9.999956
