# vtk DataFile Version 2.0
CellBP Time: 4.28
ASCII
DATASET UNSTRUCTURED_GRID
POINTS 320 double
-50.000000 -50.000000 0.000000
-50.000000 -43.332965 0.000000
-45.688394 -45.491155 0.000000
-43.332903 -50.000000 0.000000
-50.000000 -36.665904 0.000000
-36.665908 -50.000000 0.000000
-45.081130 -39.969794 0.000000
-40.027203 -44.152284 0.000000
-29.998881 -50.000000 0.000000
-50.000000 -29.998874 0.000000
-44.847100 -33.448925 0.000000
-33.144928 -44.675696 0.000000
-39.869142 -36.787001 0.000000
-35.128674 -39.801317 0.000000
-23.332001 -50.000000 0.000000
-26.539168 -44.666750 0.000000
-50.000000 -23.332009 0.000000
-44.665283 -26.803933 0.000000
-39.364257 -30.225692 0.000000
-29.606293 -39.359377 0.000000
-33.368260 -33.655462 0.000000
-50.000000 -16.665385 0.000000
-16.665403 -50.000000 0.000000
-9.999097 -50.000000 0.000000
-19.964902 -44.588771 0.000000
-23.215904 -39.114702 0.000000
-44.691888 -20.096920 0.000000
-39.367867 -23.528156 0.000000
-34.106157 -26.937029 0.000000
-26.384438 -33.577280 0.000000
-29.156227 -28.926644 0.000000
-50.000000 -9.998976 0.000000
-44.666362 -13.410186 0.000000
-50.000000 -3.332841 0.000000
-3.333031 -50.000000 0.000000
3.332972 -50.000000 0.000000
-13.343659 -44.599031 0.000000
-6.684712 -44.610702 0.000000
-16.693714 -39.153294 0.000000
-20.106991 -33.342688 0.000000
-39.338184 -16.804759 0.000000
-34.018735 -20.274669 0.000000
-28.780978 -23.449081 0.000000
-23.510525 -27.350351 0.000000
-44.635458 -6.705551 0.000000
-39.293104 -10.101817 0.000000
-50.000000 3.333148 0.000000
-44.626760 -0.015593 0.000000
9.999091 -50.000000 0.000000
16.665437 -50.000000 0.000000
-0.016084 -44.618775 0.000000
6.651670 -44.635459 0.000000
-10.044708 -39.222611 0.000000
-3.368204 -39.220401 0.000000
-13.484261 -33.798731 0.000000
-16.709482 -28.271515 0.000000
-33.948081 -13.514025 0.000000
-28.601918 -16.892374 0.000000
-23.291744 -20.313068 0.000000
-18.660455 -23.283152 0.000000
-39.267543 -3.392804 0.000000
-33.904585 -6.796762 0.000000
-50.000000 9.999183 0.000000
-44.606770 6.673452 0.000000
-39.260939 3.325692 0.000000
-50.000000 16.665464 0.000000
23.332019 -50.000000 0.000000
29.998840 -50.000000 0.000000
13.317499 -44.662977 0.000000
19.989629 -44.700115 0.000000
3.307703 -39.245165 0.000000
9.971845 -39.290332 0.000000
-6.735329 -33.791397 0.000000
-0.032240 -33.829619 0.000000
-10.095928 -28.293280 0.000000
-13.122760 -22.897824 0.000000
-28.532434 -10.214856 0.000000
-23.066979 -13.663439 0.000000
-16.977735 -17.210070 0.000000
-33.884699 -0.065437 0.000000
-28.563188 -3.579165 0.000000
-44.564128 13.380513 0.000000
-39.190093 10.015080 0.000000
-33.905771 6.616051 0.000000
-50.000000 23.331963 0.000000
-44.557622 20.138223 0.000000
-50.000000 29.998895 0.000000
36.665841 -50.000000 0.000000
43.332903 -50.000000 0.000000
26.663245 -44.745306 0.000000
33.315298 -44.875965 0.000000
16.631699 -39.357700 0.000000
23.328280 -39.437096 0.000000
6.642895 -33.879553 0.000000
13.290753 -33.965476 0.000000
-3.345752 -28.363158 0.000000
3.357447 -28.451304 0.000000
-6.626028 -22.845881 0.000000
-9.968269 -17.315048 0.000000
-23.183940 -7.014721 0.000000
-17.811541 -10.334963 0.000000
-12.837727 -12.595539 0.000000
-28.607540 3.088583 0.000000
-23.265434 -0.468701 0.000000
-39.038885 16.746465 0.000000
-28.721022 9.926309 0.000000
-33.761455 13.318369 0.000000
-44.521691 26.716955 0.000000
-38.467751 23.892567 0.000000
-44.632338 33.085596 0.000000
-50.000000 36.666052 0.000000
-50.000000 43.333009 0.000000
39.922380 -45.069590 0.000000
45.474700 -45.660454 0.000000
50.000000 -50.000000 0.000000
36.626791 -39.981951 0.000000
30.012366 -39.458601 0.000000
19.904242 -34.092809 0.000000
26.585055 -34.319476 0.000000
9.988783 -28.513336 0.000000
16.610923 -28.660033 0.000000
0.051679 -22.960391 0.000000
6.812263 -23.157473 0.000000
-3.400068 -17.297230 0.000000
-6.847373 -10.985219 0.000000
-17.877090 -3.824172 0.000000
-12.552963 -7.035789 0.000000
-23.309962 6.072405 0.000000
-18.036753 2.450209 0.000000
-23.122534 12.095918 0.000000
-33.572117 19.788966 0.000000
-27.941421 16.885708 0.000000
-33.292883 24.722759 0.000000
-39.473584 30.052851 0.000000
-35.160352 28.137539 0.000000
-39.816002 35.101437 0.000000
-43.991691 39.982246 0.000000
-45.431020 45.685183 0.000000
-50.000000 50.000000 0.000000
44.117254 -39.899002 0.000000
50.000000 -43.332739 0.000000
39.639438 -35.047392 0.000000
33.462902 -33.424524 0.000000
22.984929 -28.817946 0.000000
28.731001 -29.247772 0.000000
13.460866 -23.121815 0.000000
20.054916 -23.439030 0.000000
3.381731 -17.588100 0.000000
10.126146 -17.841064 0.000000
0.150321 -11.945279 0.000000
-2.143779 -6.230813 0.000000
-7.330698 -3.661790 0.000000
-12.574587 -0.804741 0.000000
-18.165834 8.573484 0.000000
-12.957675 5.197092 0.000000
-18.638744 13.751916 0.000000
-21.504355 17.494872 0.000000
-28.940769 23.158621 0.000000
-24.346263 21.554639 0.000000
-30.323558 28.634879 0.000000
-34.253446 33.375558 0.000000
-36.955924 39.578080 0.000000
-39.838668 45.102768 0.000000
-43.332879 50.000000 0.000000
44.585246 -32.972046 0.000000
50.000000 -36.665654 0.000000
39.129313 -29.581814 0.000000
33.500613 -26.367631 0.000000
27.182908 -23.322079 0.000000
23.066265 -18.647772 0.000000
16.990367 -16.980370 0.000000
6.709025 -12.209895 0.000000
12.358813 -12.733924 0.000000
-3.378774 -1.491111 0.000000
3.892524 -6.947923 0.000000
1.021700 -2.120231 0.000000
-6.964199 2.309629 0.000000
-8.380358 7.779845 0.000000
-12.844772 11.931254 0.000000
-15.692130 17.699997 0.000000
-19.287239 22.982485 0.000000
-24.170949 27.354793 0.000000
-27.286305 33.626033 0.000000
-30.406638 39.161212 0.000000
-33.447781 44.738865 0.000000
-36.665784 50.000000 0.000000
44.547733 -26.499861 0.000000
50.000000 -29.998593 0.000000
39.040033 -23.179234 0.000000
33.449741 -19.899935 0.000000
28.040011 -16.574047 0.000000
22.682439 -13.124002 0.000000
17.176327 -9.906759 0.000000
10.892468 -6.626646 0.000000
-1.353852 2.310496 0.000000
6.191994 -1.730456 0.000000
2.901559 1.598153 0.000000
-3.514875 7.123711 0.000000
-6.313252 12.441408 0.000000
-9.629506 17.704859 0.000000
-13.167145 23.113054 0.000000
-17.316615 28.185228 0.000000
-20.570690 33.474415 0.000000
-23.665892 39.064012 0.000000
-26.830879 44.585378 0.000000
-29.998845 50.000000 0.000000
44.528706 -19.930595 0.000000
50.000000 -23.331733 0.000000
39.036326 -16.594056 0.000000
33.576215 -13.281175 0.000000
28.150315 -9.964878 0.000000
22.725572 -6.604472 0.000000
17.264239 -3.336579 0.000000
11.951616 0.199463 0.000000
1.922627 6.262915 0.000000
6.965628 3.800344 0.000000
-0.216994 11.916060 0.000000
-3.262996 17.530256 0.000000
-6.700340 22.977714 0.000000
-10.567676 28.267524 0.000000
-13.723946 33.661411 0.000000
-16.945630 39.080369 0.000000
-20.140534 44.548457 0.000000
-23.332060 50.000000 0.000000
44.536287 -13.303709 0.000000
50.000000 -16.665174 0.000000
39.079918 -9.966672 0.000000
33.646736 -6.641042 0.000000
28.236144 -3.307556 0.000000
22.847122 0.018030 0.000000
17.535126 3.355640 0.000000
12.205876 6.594158 0.000000
6.706390 10.808847 0.000000
3.301644 17.196382 0.000000
-0.081190 22.852090 0.000000
-3.518545 28.312736 0.000000
-6.831315 33.774423 0.000000
-10.137355 39.170569 0.000000
-13.435696 44.563565 0.000000
-16.665517 50.000000 0.000000
44.554340 -6.654739 0.000000
50.000000 -9.998947 0.000000
39.123376 -3.321329 0.000000
33.713397 0.008778 0.000000
28.333207 3.344224 0.000000
23.001247 6.693714 0.000000
17.833000 10.022107 0.000000
12.656033 12.231427 0.000000
9.789112 17.234347 0.000000
6.478159 22.722347 0.000000
3.188857 28.269701 0.000000
-0.115890 33.734759 0.000000
-3.425155 39.168612 0.000000
-6.725406 44.581833 0.000000
-9.999197 50.000000 0.000000
44.575656 0.001894 0.000000
50.000000 -3.332978 0.000000
39.166864 3.331882 0.000000
33.779305 6.655573 0.000000
28.424106 9.994957 0.000000
23.046459 13.416429 0.000000
16.948877 17.022754 0.000000
12.901624 22.669801 0.000000
9.814877 28.232078 0.000000
6.604251 33.718735 0.000000
3.286571 39.164425 0.000000
-0.029856 44.584584 0.000000
-3.333057 50.000000 0.000000
44.586736 6.665516 0.000000
50.000000 3.332960 0.000000
39.198078 9.981933 0.000000
33.843410 13.277034 0.000000
28.541955 16.584728 0.000000
23.386924 20.084346 0.000000
18.531793 23.112432 0.000000
16.393155 28.298677 0.000000
13.328945 33.754764 0.000000
9.986580 39.181957 0.000000
6.666008 44.584356 0.000000
3.333019 50.000000 0.000000
44.608903 13.317937 0.000000
50.000000 9.999063 0.000000
39.251352 16.612443 0.000000
33.931883 19.862871 0.000000
28.612307 22.926000 0.000000
23.279630 27.207565 0.000000
19.901322 33.303062 0.000000
16.573815 39.040934 0.000000
13.268371 44.526754 0.000000
9.999123 50.000000 0.000000
44.632075 19.972990 0.000000
50.000000 16.665417 0.000000
39.298490 23.262140 0.000000
34.043796 26.514733 0.000000
28.965769 28.539461 0.000000
26.202384 33.410125 0.000000
23.066733 38.968826 0.000000
19.888603 44.507058 0.000000
16.665392 50.000000 0.000000
44.639810 26.642928 0.000000
50.000000 23.332009 0.000000
39.293369 29.966710 0.000000
33.212396 33.371280 0.000000
29.412139 39.045850 0.000000
26.422406 44.505971 0.000000
23.331940 50.000000 0.000000
44.774994 33.291805 0.000000
50.000000 29.998832 0.000000
39.738194 36.596314 0.000000
34.831067 39.525631 0.000000
32.833842 44.514298 0.000000
29.998750 50.000000 0.000000
44.978258 39.877870 0.000000
50.000000 36.665831 0.000000
39.734897 43.969040 0.000000
36.665755 50.000000 0.000000
45.621310 45.409816 0.000000
50.000000 43.332894 0.000000
43.332789 50.000000 0.000000
50.000000 50.000000 0.000000
CELLS 578 2312
3 1 0 2
3 0 3 2
3 4 1 6
3 6 1 2
3 3 5 7
3 3 7 2
3 6 2 7
3 9 4 10
3 10 4 6
3 5 8 11
3 7 5 11
3 10 6 12
3 12 6 7
3 7 11 13
3 7 13 12
3 8 14 15
3 11 8 15
3 16 9 17
3 17 9 10
3 17 10 18
3 18 10 12
3 11 15 19
3 13 11 19
3 18 12 20
3 13 19 20
3 20 12 13
3 14 22 24
3 15 14 24
3 15 24 25
3 19 15 25
3 21 16 26
3 26 16 17
3 26 17 27
3 27 17 18
3 27 18 28
3 28 18 20
3 19 25 29
3 19 29 20
3 28 20 30
3 30 20 29
3 31 21 32
3 32 21 26
3 22 23 36
3 24 22 36
3 23 34 37
3 36 23 37
3 24 36 38
3 25 24 38
3 25 38 39
3 29 25 39
3 32 26 40
3 40 26 27
3 40 27 41
3 41 27 28
3 41 28 42
3 42 28 30
3 29 39 43
3 29 43 30
3 42 30 43
3 33 31 44
3 44 31 32
3 44 32 45
3 45 32 40
3 46 33 47
3 47 33 44
3 34 35 50
3 37 34 50
3 35 48 51
3 50 35 51
3 36 37 52
3 38 36 52
3 37 50 53
3 52 37 53
3 38 52 54
3 39 38 54
3 39 54 55
3 43 39 55
3 45 40 56
3 56 40 41
3 56 41 57
3 57 41 42
3 57 42 58
3 58 42 43
3 43 55 59
3 43 59 58
3 47 44 60
3 60 44 45
3 60 45 61
3 61 45 56
3 62 46 63
3 63 46 47
3 63 47 64
3 64 47 60
3 48 49 68
3 51 48 68
3 49 66 69
3 68 49 69
3 50 51 70
3 53 50 70
3 51 68 71
3 70 51 71
3 52 53 72
3 54 52 72
3 53 70 73
3 72 53 73
3 54 72 74
3 55 54 74
3 55 74 75
3 59 55 75
3 61 56 76
3 76 56 57
3 76 57 77
3 77 57 58
3 77 58 78
3 59 75 78
3 78 58 59
3 64 60 79
3 79 60 61
3 79 61 80
3 80 61 76
3 65 62 81
3 81 62 63
3 81 63 82
3 82 63 64
3 82 64 83
3 83 64 79
3 84 65 85
3 85 65 81
3 66 67 89
3 69 66 89
3 67 87 90
3 89 67 90
3 68 69 91
3 71 68 91
3 69 89 92
3 91 69 92
3 70 71 93
3 73 70 93
3 71 91 94
3 93 71 94
3 72 73 95
3 74 72 95
3 73 93 96
3 95 73 96
3 74 95 97
3 75 74 97
3 75 97 98
3 78 75 98
3 80 76 99
3 99 76 77
3 99 77 100
3 100 77 78
3 100 78 101
3 98 101 78
3 83 79 102
3 102 79 80
3 102 80 103
3 103 80 99
3 85 81 104
3 104 81 82
3 105 83 102
3 104 82 106
3 106 82 83
3 106 83 105
3 86 84 107
3 107 84 85
3 107 85 108
3 108 85 104
3 109 86 107
3 110 86 109
3 87 88 112
3 90 87 112
3 112 88 113
3 88 114 113
3 90 112 115
3 89 90 116
3 92 89 116
3 116 90 115
3 91 92 117
3 94 91 117
3 92 116 118
3 117 92 118
3 93 94 119
3 96 93 119
3 94 117 120
3 119 94 120
3 95 96 121
3 97 95 121
3 96 119 122
3 121 96 122
3 97 121 123
3 98 97 123
3 98 123 124
3 98 124 101
3 103 99 125
3 125 99 100
3 125 100 126
3 126 100 101
3 126 101 124
3 105 102 127
3 127 102 103
3 127 103 128
3 128 103 125
3 129 105 127
3 108 104 130
3 130 104 106
3 130 106 131
3 131 106 105
3 131 105 129
3 108 130 132
3 109 107 133
3 133 107 108
3 133 108 134
3 108 132 134
3 135 109 133
3 111 110 136
3 136 110 109
3 136 109 135
3 137 111 136
3 138 111 137
3 112 113 139
3 115 112 139
3 114 140 113
3 140 139 113
3 139 141 115
3 116 115 142
3 118 116 142
3 142 115 141
3 117 118 143
3 120 117 143
3 118 142 144
3 143 118 144
3 119 120 145
3 122 119 145
3 120 143 146
3 145 120 146
3 121 122 147
3 123 121 147
3 122 145 148
3 147 122 148
3 123 147 149
3 124 123 149
3 124 149 150
3 151 126 124
3 124 150 151
3 128 125 152
3 152 125 126
3 152 126 151
3 129 127 153
3 153 127 128
3 128 152 154
3 153 128 154
3 155 129 153
3 131 129 156
3 156 129 155
3 132 130 157
3 130 131 157
3 157 131 158
3 131 156 158
3 132 157 159
3 132 159 134
3 135 133 160
3 160 133 134
3 160 134 159
3 136 135 161
3 135 160 161
3 162 137 136
3 161 162 136
3 163 138 137
3 162 163 137
3 139 164 141
3 140 165 139
3 139 165 164
3 141 164 166
3 141 166 142
3 166 167 142
3 144 142 167
3 167 168 144
3 143 144 168
3 146 143 168
3 168 169 146
3 145 146 170
3 148 145 170
3 170 146 169
3 147 148 171
3 149 147 171
3 148 170 172
3 171 148 172
3 173 151 150
3 149 171 174
3 150 149 174
3 150 174 175
3 150 175 173
3 154 152 176
3 152 151 176
3 176 151 173
3 154 176 177
3 155 153 178
3 177 178 154
3 154 178 153
3 156 155 179
3 155 178 179
3 180 158 156
3 179 180 156
3 181 159 157
3 180 181 158
3 181 157 158
3 182 160 159
3 181 182 159
3 183 161 160
3 182 183 160
3 184 162 161
3 184 161 183
3 185 163 162
3 184 185 162
3 164 186 166
3 165 187 164
3 164 187 186
3 166 186 188
3 166 188 167
3 167 188 189
3 167 189 168
3 168 189 190
3 168 190 169
3 169 190 191
3 169 191 170
3 192 172 170
3 170 191 192
3 192 193 172
3 171 172 193
3 174 171 193
3 194 173 175
3 176 173 194
3 175 174 195
3 193 195 174
3 195 196 175
3 175 196 194
3 197 177 176
3 194 197 176
3 198 178 177
3 197 198 177
3 199 179 178
3 198 199 178
3 200 180 179
3 199 200 179
3 201 181 180
3 200 201 180
3 202 182 181
3 201 202 181
3 203 183 182
3 202 203 182
3 204 184 183
3 203 204 183
3 205 185 184
3 204 205 184
3 186 206 188
3 187 207 186
3 186 207 206
3 188 206 208
3 188 208 189
3 189 208 209
3 189 209 190
3 190 209 210
3 190 210 191
3 191 210 211
3 191 211 192
3 192 211 212
3 192 212 193
3 193 212 213
3 193 213 195
3 214 197 194
3 214 194 196
3 195 213 215
3 195 215 196
3 196 215 214
3 216 198 197
3 214 216 197
3 217 199 198
3 216 217 198
3 218 200 199
3 217 218 199
3 219 201 200
3 218 219 200
3 220 202 201
3 219 220 201
3 221 203 202
3 220 221 202
3 222 204 203
3 221 222 203
3 223 205 204
3 222 223 204
3 206 224 208
3 207 225 206
3 206 225 224
3 208 224 226
3 208 226 209
3 209 226 227
3 209 227 210
3 210 227 228
3 210 228 211
3 211 228 229
3 211 229 212
3 212 229 230
3 212 230 213
3 213 230 231
3 213 231 215
3 232 216 214
3 215 231 232
3 232 214 215
3 233 217 216
3 232 233 216
3 234 218 217
3 233 234 217
3 235 219 218
3 234 235 218
3 236 220 219
3 235 236 219
3 237 221 220
3 236 237 220
3 238 222 221
3 237 238 221
3 239 223 222
3 238 239 222
3 224 240 226
3 225 241 224
3 224 241 240
3 226 240 242
3 226 242 227
3 227 242 243
3 227 243 228
3 228 243 244
3 228 244 229
3 244 245 229
3 229 245 230
3 230 245 246
3 230 246 231
3 231 246 247
3 231 247 232
3 248 233 232
3 248 232 247
3 249 234 233
3 248 249 233
3 250 235 234
3 249 250 234
3 251 236 235
3 250 251 235
3 252 237 236
3 251 252 236
3 253 238 237
3 252 253 237
3 254 239 238
3 253 254 238
3 240 255 242
3 241 256 240
3 240 256 255
3 242 255 257
3 242 257 243
3 243 257 258
3 243 258 244
3 244 258 259
3 244 259 245
3 245 259 260
3 245 260 246
3 246 260 261
3 246 261 247
3 248 247 261
3 262 249 248
3 261 262 248
3 263 250 249
3 262 263 249
3 264 251 250
3 263 264 250
3 265 252 251
3 264 265 251
3 266 253 252
3 265 266 252
3 267 254 253
3 266 267 253
3 255 268 257
3 256 269 255
3 255 269 268
3 257 268 270
3 257 270 258
3 258 270 271
3 258 271 259
3 259 271 272
3 259 272 260
3 260 272 273
3 260 273 261
3 274 262 261
3 261 273 274
3 275 263 262
3 274 275 262
3 276 264 263
3 275 276 263
3 277 265 264
3 276 277 264
3 278 266 265
3 277 278 265
3 279 267 266
3 278 279 266
3 268 280 270
3 269 281 268
3 268 281 280
3 270 280 282
3 270 282 271
3 271 282 283
3 271 283 272
3 283 284 272
3 272 284 273
3 285 275 274
3 273 284 285
3 285 274 273
3 286 276 275
3 285 286 275
3 287 277 276
3 286 287 276
3 288 278 277
3 287 288 277
3 289 279 278
3 288 289 278
3 280 290 282
3 281 291 280
3 280 291 290
3 282 290 292
3 282 292 283
3 283 292 293
3 283 293 284
3 284 293 294
3 284 294 285
3 295 286 285
3 295 285 294
3 296 287 286
3 295 296 286
3 297 288 287
3 296 297 287
3 298 289 288
3 297 298 288
3 290 299 292
3 291 300 290
3 290 300 299
3 292 299 301
3 292 301 293
3 293 301 302
3 293 302 294
3 294 302 295
3 303 296 295
3 303 295 302
3 304 297 296
3 303 304 296
3 305 298 297
3 304 305 297
3 299 306 301
3 300 307 299
3 299 307 306
3 301 306 308
3 301 308 302
3 309 303 302
3 302 308 309
3 310 304 303
3 309 310 303
3 311 305 304
3 310 311 304
3 306 312 308
3 307 313 306
3 306 313 312
3 314 310 309
3 308 312 314
3 314 309 308
3 315 311 310
3 314 315 310
3 312 316 314
3 313 317 312
3 312 317 316
3 318 315 314
3 318 314 316
3 317 319 316
3 319 318 316
CELL_TYPES 578
5
5
5
5
5
5
5
5
5
5
5
5
5
5
5
5
5
5
5
5
5
5
5
5
5
5
5
5
5
5
5
5
5
5
5
5
5
5
5
5
5
5
5
5
5
5
5
5
5
5
5
5
5
5
5
5
5
5
5
5
5
5
5
5
5
5
5
5
5
5
5
5
5
5
5
5
5
5
5
5
5
5
5
5
5
5
5
5
5
5
5
5
5
5
5
5
5
5
5
5
5
5
5
5
5
5
5
5
5
5
5
5
5
5
5
5
5
5
5
5
5
5
5
5
5
5
5
5
5
5
5
5
5
5
5
5
5
5
5
5
5
5
5
5
5
5
5
5
5
5
5
5
5
5
5
5
5
5
5
5
5
5
5
5
5
5
5
5
5
5
5
5
5
5
5
5
5
5
5
5
5
5
5
5
5
5
5
5
5
5
5
5
5
5
5
5
5
5
5
5
5
5
5
5
5
5
5
5
5
5
5
5
5
5
5
5
5
5
5
5
5
5
5
5
5
5
5
5
5
5
5
5
5
5
5
5
5
5
5
5
5
5
5
5
5
5
5
5
5
5
5
5
5
5
5
5
5
5
5
5
5
5
5
5
5
5
5
5
5
5
5
5
5
5
5
5
5
5
5
5
5
5
5
5
5
5
5
5
5
5
5
5
5
5
5
5
5
5
5
5
5
5
5
5
5
5
5
5
5
5
5
5
5
5
5
5
5
5
5
5
5
5
5
5
5
5
5
5
5
5
5
5
5
5
5
5
5
5
5
5
5
5
5
5
5
5
5
5
5
5
5
5
5
5
5
5
5
5
5
5
5
5
5
5
5
5
5
5
5
5
5
5
5
5
5
5
5
5
5
5
5
5
5
5
5
5
5
5
5
5
5
5
5
5
5
5
5
5
5
5
5
5
5
5
5
5
5
5
5
5
5
5
5
5
5
5
5
5
5
5
5
5
5
5
5
5
5
5
5
5
5
5
5
5
5
5
5
5
5
5
5
5
5
5
5
5
5
5
5
5
5
5
5
5
5
5
5
5
5
5
5
5
5
5
5
5
5
5
5
5
5
5
5
5
5
5
5
5
5
5
5
5
5
5
5
5
5
5
5
5
5
5
5
5
5
5
5
5
5
5
5
5
5
5
5
5
5
5
5
5
5
5
5
5
5
5
5
5
5
5
5
5
5
5
5
5
5
5
5
5
5
5
5
5
5
5
5
5
5
5
5
5
5
5
5
5
5
5
5
5
5
5
5
5
5
5
5
5
5
5
5
5
5
5
5
5
5
5
5
5
5
5
5
5
5
5
5
5
POINT_DATA 320
SCALARS theta_e float 1
LOOKUP_TABLE default
1.000000
1.000000
1.000000
1.000000
1.000000
1.000000
1.000000
1.000000
1.000000
1.000000
1.000000
1.000000
1.000000
1.000000
1.000000
1.000000
1.000000
1.000000
1.000000
1.000000
1.000000
1.000000
1.000000
1.000000
1.000000
1.000000
1.000000
1.000000
1.000000
1.000000
1.000000
1.000000
1.000000
1.000000
1.000000
1.000000
1.000000
1.000000
1.000000
1.000000
1.000000
1.000000
1.000000
1.000000
1.000000
1.000000
1.000000
1.000000
1.000000
1.000000
1.000000
1.000000
1.000000
1.000000
1.000000
1.000000
1.000000
1.000000
1.000000
1.000000
1.000000
1.000000
1.000000
1.000000
1.000000
1.000000
1.000000
1.000000
1.000000
1.000000
1.000000
1.000000
1.000000
1.000000
1.000000
1.000000
1.000000
1.000000
1.000000
1.000000
1.000000
1.000000
1.000000
1.000000
1.000000
1.000000
1.000000
1.000000
1.000000
1.000000
1.000000
1.000000
1.000000
1.000000
1.000000
1.000000
1.000000
1.000000
1.000000
1.000000
1.000000
1.000000
1.000000
1.000000
1.000000
1.000000
1.000000
1.000000
1.000000
1.000000
1.000000
1.000000
1.000000
1.000000
1.000000
1.000000
1.000000
1.000000
1.000000
1.000000
1.000000
1.000000
1.000000
1.000000
1.000000
1.000000
1.000000
1.000000
1.000000
1.000000
1.000000
1.000000
1.000000
1.000000
1.000000
1.000000
1.000000
1.000000
1.000000
1.000000
1.000000
1.000000
1.000000
1.000000
1.000000
1.000000
1.000000
1.000000
1.000000
1.000000
0.999997
0.999998
1.000000
1.000000
1.000000
1.000000
1.000000
1.000000
1.000000
1.000000
1.000000
1.000000
1.000000
1.000000
1.000000
1.000000
1.000000
1.000000
1.000000
1.000000
1.000000
1.000000
1.000000
0.999996
0.999998
0.999996
0.999998
1.000000
1.000000
1.000000
1.000000
1.000000
1.000000
1.000000
1.000000
1.000000
1.000000
1.000000
1.000000
1.000000
1.000000
1.000000
1.000000
0.999999
0.999996
0.999997
0.999997
0.999998
1.000000
1.000000
1.000000
1.000000
1.000000
1.000000
1.000000
1.000000
1.000000
1.000000
1.000000
1.000000
1.000000
1.000000
1.000000
0.999999
0.999997
0.999998
0.999999
1.000000
1.000000
1.000000
1.000000
1.000000
1.000000
1.000000
1.000000
1.000000
1.000000
1.000000
1.000000
1.000000
1.000000
1.000000
0.999999
1.000000
1.000000
1.000000
1.000000
1.000000
1.000000
1.000000
1.000000
1.000000
1.000000
1.000000
1.000000
1.000000
1.000000
1.000000
1.000000
1.000000
1.000000
1.000000
1.000000
1.000000
1.000000
1.000000
1.000000
1.000000
1.000000
1.000000
1.000000
1.000000
1.000000
1.000000
1.000000
1.000000
1.000000
1.000000
1.000000
1.000000
1.000000
1.000000
1.000000
1.000000
1.000000
1.000000
1.000000
1.000000
1.000000
1.000000
1.000000
1.000000
1.000000
1.000000
1.000000
1.000000
1.000000
1.000000
1.000000
1.000000
1.000000
1.000000
1.000000
1.000000
1.000000
1.000000
1.000000
1.000000
1.000000
1.000000
1.000000
1.000000
1.000000
1.000000
1.000000
1.000000
1.000000
1.000000
1.000000
1.000000
1.000000
1.000000
1.000000
1.000000
1.000000
1.000000
1.000000
1.000000
1.000000
1.000000
VECTORS fa_u float
0.000000 0.000000 0.000000
0.000000 0.000000 0.000000
0.000000 0.000000 0.000000
0.000000 0.000000 0.000000
0.000000 0.000000 0.000000
0.000000 0.000000 0.000000
0.000000 0.000000 0.000000
0.000000 0.000000 0.000000
0.000000 0.000000 0.000000
0.000000 0.000000 0.000000
0.000000 0.000000 0.000000
0.000000 0.000000 0.000000
0.000000 0.000000 0.000000
0.000000 0.000000 0.000000
0.000000 0.000000 0.000000
0.000000 0.000000 0.000000
0.000000 0.000000 0.000000
0.000000 0.000000 0.000000
0.000000 0.000000 0.000000
0.000000 0.000000 0.000000
0.000000 0.000000 0.000000
0.000000 0.000000 0.000000
0.000000 0.000000 0.000000
0.000000 0.000000 0.000000
0.000000 0.000000 0.000000
0.000000 0.000000 0.000000
0.000000 0.000000 0.000000
0.000000 0.000000 0.000000
0.000000 0.000000 0.000000
0.000000 0.000000 0.000000
0.000000 0.000000 0.000000
0.000000 0.000000 0.000000
0.000000 0.000000 0.000000
0.000000 0.000000 0.000000
0.000000 0.000000 0.000000
0.000000 0.000000 0.000000
0.000000 0.000000 0.000000
0.000000 0.000000 0.000000
0.000000 0.000000 0.000000
0.000000 0.000000 0.000000
0.000000 0.000000 0.000000
0.000000 0.000000 0.000000
0.000000 0.000000 0.000000
0.000000 0.000000 0.000000
0.000000 0.000000 0.000000
0.000000 0.000000 0.000000
0.000000 0.000000 0.000000
0.000000 0.000000 0.000000
0.000000 0.000000 0.000000
0.000000 0.000000 0.000000
0.000000 0.000000 0.000000
0.000000 0.000000 0.000000
0.000000 0.000000 0.000000
0.000000 0.000000 0.000000
0.000000 0.000000 0.000000
0.000000 0.000000 0.000000
0.000000 0.000000 0.000000
0.000000 0.000000 0.000000
0.000000 0.000000 0.000000
0.000000 0.000000 0.000000
0.000000 0.000000 0.000000
0.000000 0.000000 0.000000
0.000000 0.000000 0.000000
0.000000 0.000000 0.000000
0.000000 0.000000 0.000000
0.000000 0.000000 0.000000
0.000000 0.000000 0.000000
0.000000 0.000000 0.000000
0.000000 0.000000 0.000000
0.000000 0.000000 0.000000
0.000000 0.000000 0.000000
0.000000 0.000000 0.000000
0.000000 0.000000 0.000000
0.000000 0.000000 0.000000
0.000000 0.000000 0.000000
0.000000 0.000000 0.000000
0.000000 0.000000 0.000000
0.000000 0.000000 0.000000
0.000000 0.000000 0.000000
0.000000 0.000000 0.000000
0.000000 0.000000 0.000000
0.000000 0.000000 0.000000
0.000000 0.000000 0.000000
0.000000 0.000000 0.000000
0.000000 0.000000 0.000000
0.000000 0.000000 0.000000
0.000000 0.000000 0.000000
0.000000 0.000000 0.000000
0.000000 0.000000 0.000000
0.000000 0.000000 0.000000
0.000000 0.000000 0.000000
0.000000 0.000000 0.000000
0.000000 0.000000 0.000000
0.000000 0.000000 0.000000
0.000000 0.000000 0.000000
0.000000 0.000000 0.000000
0.000000 0.000000 0.000000
0.000000 0.000000 0.000000
0.000000 0.000000 0.000000
0.000000 0.000000 0.000000
0.000000 0.000000 0.000000
0.000000 0.000000 0.000000
0.000000 0.000000 0.000000
0.000000 0.000000 0.000000
0.000000 0.000000 0.000000
0.000000 0.000000 0.000000
0.000000 0.000000 0.000000
0.000000 0.000000 0.000000
0.000000 0.000000 0.000000
0.000000 0.000000 0.000000
0.000000 0.000000 0.000000
0.000000 0.000000 0.000000
0.000000 0.000000 0.000000
0.000000 0.000000 0.000000
0.000000 0.000000 0.000000
0.000000 0.000000 0.000000
0.000000 0.000000 0.000000
0.000000 0.000000 0.000000
0.000000 0.000000 0.000000
0.000000 0.000000 0.000000
0.000000 0.000000 0.000000
0.000000 0.000000 0.000000
0.000000 0.000000 0.000000
0.000000 0.000000 0.000000
0.000000 0.000000 0.000000
0.000000 0.000000 0.000000
0.000000 0.000000 0.000000
0.000000 0.000000 0.000000
0.000000 0.000000 0.000000
0.000000 0.000000 0.000000
0.000000 0.000000 0.000000
0.000000 0.000000 0.000000
0.000000 0.000000 0.000000
0.000000 0.000000 0.000000
0.000000 0.000000 0.000000
0.000000 0.000000 0.000000
0.000000 0.000000 0.000000
0.000000 0.000000 0.000000
0.000000 0.000000 0.000000
0.000000 0.000000 0.000000
0.000000 0.000000 0.000000
0.000000 0.000000 0.000000
0.000000 0.000000 0.000000
0.000000 0.000000 0.000000
0.000000 0.000000 0.000000
0.000000 0.000000 0.000000
0.000000 0.000000 0.000000
0.000000 0.000000 0.000000
0.000000 0.000000 0.000000
0.000000 0.000000 0.000000
0.000000 0.000000 0.000000
0.000000 0.000000 0.000000
0.000000 0.000000 0.000000
0.000000 0.000000 0.000000
0.000000 0.000000 0.000000
0.000000 0.000000 0.000000
0.000000 0.000000 0.000000
0.000000 0.000000 0.000000
0.000000 0.000000 0.000000
0.000000 0.000000 0.000000
0.000000 0.000000 0.000000
0.000000 0.000000 0.000000
0.000000 0.000000 0.000000
0.000000 0.000000 0.000000
0.000000 0.000000 0.000000
0.000000 0.000000 0.000000
0.000000 0.000000 0.000000
0.000000 0.000000 0.000000
0.000000 0.000000 0.000000
0.000000 0.000000 0.000000
0.000000 0.000000 0.000000
0.000000 0.000000 0.000000
0.000000 0.000000 0.000000
0.000000 0.000000 0.000000
0.000000 0.000000 0.000000
0.000000 0.000000 0.000000
0.000000 0.000000 0.000000
0.000000 0.000000 0.000000
0.000000 0.000000 0.000000
0.000000 0.000000 0.000000
0.000000 0.000000 0.000000
0.000000 0.000000 0.000000
0.000000 0.000000 0.000000
0.000000 0.000000 0.000000
0.000000 0.000000 0.000000
0.000000 0.000000 0.000000
0.000000 0.000000 0.000000
0.000000 0.000000 0.000000
0.000000 0.000000 0.000000
0.000000 0.000000 0.000000
0.000000 0.000000 0.000000
0.000000 0.000000 0.000000
0.000000 0.000000 0.000000
0.000000 0.000000 0.000000
0.000000 0.000000 0.000000
0.000000 0.000000 0.000000
0.000000 0.000000 0.000000
0.000000 0.000000 0.000000
0.000000 0.000000 0.000000
0.000000 0.000000 0.000000
0.000000 0.000000 0.000000
0.000000 0.000000 0.000000
0.000000 0.000000 0.000000
0.000000 0.000000 0.000000
0.000000 0.000000 0.000000
0.000000 0.000000 0.000000
0.000000 0.000000 0.000000
0.000000 0.000000 0.000000
0.000000 0.000000 0.000000
0.000000 0.000000 0.000000
0.000000 0.000000 0.000000
0.000000 0.000000 0.000000
0.000000 0.000000 0.000000
0.000000 0.000000 0.000000
0.000000 0.000000 0.000000
0.000000 0.000000 0.000000
0.000000 0.000000 0.000000
0.000000 0.000000 0.000000
0.000000 0.000000 0.000000
0.000000 0.000000 0.000000
0.000000 0.000000 0.000000
0.000000 0.000000 0.000000
0.000000 0.000000 0.000000
0.000000 0.000000 0.000000
0.000000 0.000000 0.000000
0.000000 0.000000 0.000000
0.000000 0.000000 0.000000
0.000000 0.000000 0.000000
0.000000 0.000000 0.000000
0.000000 0.000000 0.000000
0.000000 0.000000 0.000000
0.000000 0.000000 0.000000
0.000000 0.000000 0.000000
0.000000 0.000000 0.000000
0.000000 0.000000 0.000000
0.000000 0.000000 0.000000
0.000000 0.000000 0.000000
0.000000 0.000000 0.000000
0.000000 0.000000 0.000000
0.000000 0.000000 0.000000
0.000000 0.000000 0.000000
0.000000 0.000000 0.000000
0.000000 0.000000 0.000000
0.000000 0.000000 0.000000
0.000000 0.000000 0.000000
0.000000 0.000000 0.000000
0.000000 0.000000 0.000000
0.000000 0.000000 0.000000
0.000000 0.000000 0.000000
0.000000 0.000000 0.000000
0.000000 0.000000 0.000000
0.000000 0.000000 0.000000
0.000000 0.000000 0.000000
0.000000 0.000000 0.000000
0.000000 0.000000 0.000000
0.000000 0.000000 0.000000
0.000000 0.000000 0.000000
0.000000 0.000000 0.000000
0.000000 0.000000 0.000000
0.000000 0.000000 0.000000
0.000000 0.000000 0.000000
0.000000 0.000000 0.000000
0.000000 0.000000 0.000000
0.000000 0.000000 0.000000
0.000000 0.000000 0.000000
0.000000 0.000000 0.000000
0.000000 0.000000 0.000000
0.000000 0.000000 0.000000
0.000000 0.000000 0.000000
0.000000 0.000000 0.000000
0.000000 0.000000 0.000000
0.000000 0.000000 0.000000
0.000000 0.000000 0.000000
0.000000 0.000000 0.000000
0.000000 0.000000 0.000000
0.000000 0.000000 0.000000
0.000000 0.000000 0.000000
0.000000 0.000000 0.000000
0.000000 0.000000 0.000000
0.000000 0.000000 0.000000
0.000000 0.000000 0.000000
0.000000 0.000000 0.000000
0.000000 0.000000 0.000000
0.000000 0.000000 0.000000
0.000000 0.000000 0.000000
0.000000 0.000000 0.000000
0.000000 0.000000 0.000000
0.000000 0.000000 0.000000
0.000000 0.000000 0.000000
0.000000 0.000000 0.000000
0.000000 0.000000 0.000000
0.000000 0.000000 0.000000
0.000000 0.000000 0.000000
0.000000 0.000000 0.000000
0.000000 0.000000 0.000000
0.000000 0.000000 0.000000
0.000000 0.000000 -50.000000
-50.000000 0.000000 -50.000000
-43.332965 0.000000 -45.688394
-45.491155 0.000000 -43.332903
-50.000000 0.000000 -50.000000
-36.665904 0.000000 -36.665908
-50.000000 0.000000 -45.081130
-39.969794 0.000000 -40.027203
-44.152284 0.000000 -29.998881
-50.000000 0.000000 -50.000000
-29.998874 0.000000 -44.847100
-33.448925 0.000000 -33.144928
-44.675696 0.000000 -39.869142
-36.787001 0.000000 -35.128674
-39.801317 0.000000 -23.332001
-50.000000 0.000000 -26.539168
-44.666750 0.000000 -50.000000
-23.332009 0.000000 -44.665283
-26.803933 0.000000 -39.364257
-30.225692 0.000000 -29.606293
-39.359377 0.000000 -33.368260
-33.655462 0.000000 -50.000000
-16.665385 0.000000 -16.665403
-50.000000 0.000000 -9.999097
