# vtk DataFile Version 2.0
CellBP Time: 1.32
ASCII
DATASET UNSTRUCTURED_GRID
POINTS 320 double
-50.000000 -50.000000 0.000000
-50.000000 -43.333252 0.000000
-45.688292 -45.491065 0.000000
-43.333237 -50.000000 0.000000
-50.000000 -36.666499 0.000000
-36.666496 -50.000000 0.000000
-45.081019 -39.969727 0.000000
-40.027043 -44.152188 0.000000
-29.999748 -50.000000 0.000000
-50.000000 -29.999753 0.000000
-44.846988 -33.448865 0.000000
-33.144807 -44.675590 0.000000
-39.869002 -36.786925 0.000000
-35.128510 -39.801186 0.000000
-23.333032 -50.000000 0.000000
-26.539042 -44.666695 0.000000
-50.000000 -23.333042 0.000000
-44.665232 -26.803853 0.000000
-39.364149 -30.225607 0.000000
-29.606110 -39.359268 0.000000
-33.368065 -33.655334 0.000000
-50.000000 -16.666383 0.000000
-16.666378 -50.000000 0.000000
-9.999790 -50.000000 0.000000
-19.964758 -44.588787 0.000000
-23.215778 -39.114653 0.000000
-44.691909 -20.096844 0.000000
-39.367815 -23.528123 0.000000
-34.106027 -26.936956 0.000000
-26.384256 -33.577116 0.000000
-29.156031 -28.926500 0.000000
-50.000000 -9.999770 0.000000
-44.666378 -13.410128 0.000000
-50.000000 -3.333218 0.000000
-3.333257 -50.000000 0.000000
3.333260 -50.000000 0.000000
-13.343508 -44.599091 0.000000
-6.684634 -44.610797 0.000000
-16.693610 -39.153364 0.000000
-20.106913 -33.342679 0.000000
-39.338193 -16.804823 0.000000
-34.018565 -20.274726 0.000000
-28.780737 -23.448961 0.000000
-23.510369 -27.349983 0.000000
-44.635526 -6.705591 0.000000
-39.293071 -10.101884 0.000000
-50.000000 3.333301 0.000000
-44.626865 -0.015724 0.000000
9.999801 -50.000000 0.000000
16.666391 -50.000000 0.000000
-0.016084 -44.618860 0.000000
6.651565 -44.635512 0.000000
-10.044625 -39.222641 0.000000
-3.368202 -39.220484 0.000000
-13.484258 -33.798846 0.000000
-16.709784 -28.271406 0.000000
-33.948108 -13.514289 0.000000
-28.601476 -16.892522 0.000000
-23.291201 -20.312871 0.000000
-18.660159 -23.282357 0.000000
-39.267618 -3.392935 0.000000
-33.904592 -6.796801 0.000000
-50.000000 9.999827 0.000000
-44.606886 6.673247 0.000000
-39.261071 3.325586 0.000000
-50.000000 16.666406 0.000000
23.333034 -50.000000 0.000000
29.999733 -50.000000 0.000000
13.317306 -44.663000 0.000000
19.989426 -44.700126 0.000000
3.307684 -39.245185 0.000000
9.971770 -39.290302 0.000000
-6.735199 -33.791402 0.000000
-0.032337 -33.829689 0.000000
-10.095939 -28.293707 0.000000
-13.122824 -22.898614 0.000000
-28.532848 -10.215213 0.000000
-23.066466 -13.663222 0.000000
-16.976920 -17.208655 0.000000
-33.884914 -0.065453 0.000000
-28.563341 -3.578706 0.000000
-44.564210 13.380249 0.000000
-39.190202 10.014956 0.000000
-33.905915 6.615981 0.000000
-50.000000 23.333033 0.000000
-44.557766 20.138008 0.000000
-50.000000 29.999756 0.000000
36.666474 -50.000000 0.000000
43.333232 -50.000000 0.000000
26.663058 -44.745264 0.000000
33.315160 -44.875876 0.000000
16.631618 -39.357707 0.000000
23.328158 -39.437053 0.000000
6.642800 -33.879521 0.000000
13.290816 -33.965482 0.000000
-3.345501 -28.362838 0.000000
3.356953 -28.451342 0.000000
-6.626015 -22.846359 0.000000
-9.971281 -17.314795 0.000000
-23.185569 -7.015000 0.000000
-17.810221 -10.334941 0.000000
-12.837238 -12.589054 0.000000
-28.607609 3.088469 0.000000
-23.264756 -0.468142 0.000000
-39.039110 16.746473 0.000000
-28.721494 9.926494 0.000000
-33.761793 13.318510 0.000000
-44.521679 26.716732 0.000000
-38.467738 23.892430 0.000000
-44.632135 33.085370 0.000000
-50.000000 36.666529 0.000000
-50.000000 43.333259 0.000000
39.922268 -45.069501 0.000000
45.474573 -45.660354 0.000000
50.000000 -50.000000 0.000000
36.626689 -39.981878 0.000000
30.012222 -39.458535 0.000000
19.904193 -34.092718 0.000000
26.584962 -34.319398 0.000000
9.988866 -28.513622 0.000000
16.611033 -28.659801 0.000000
0.052260 -22.959001 0.000000
6.812269 -23.158535 0.000000
-3.401231 -17.297632 0.000000
-6.866574 -11.028440 0.000000
-17.878674 -3.829158 0.000000
-12.554168 -7.036334 0.000000
-23.310797 6.073747 0.000000
-18.038107 2.455770 0.000000
-23.121963 12.095579 0.000000
-33.572103 19.788929 0.000000
-27.941259 16.885306 0.000000
-33.292688 24.722570 0.000000
-39.473338 30.052566 0.000000
-35.160069 28.137344 0.000000
-39.815748 35.101223 0.000000
-43.991558 39.981998 0.000000
-45.430947 45.685027 0.000000
-50.000000 50.000000 0.000000
44.117139 -39.898858 0.000000
50.000000 -43.333192 0.000000
39.639311 -35.047289 0.000000
33.462802 -33.424440 0.000000
22.984823 -28.817825 0.000000
28.730906 -29.247691 0.000000
13.460756 -23.121770 0.000000
20.054815 -23.438665 0.000000
3.388961 -17.586830 0.000000
10.127474 -17.839934 0.000000
0.142050 -12.010881 0.000000
-2.154892 -6.268128 0.000000
-7.409440 -3.706543 0.000000
-12.630595 -0.802399 0.000000
-18.161984 8.573153 0.000000
-12.965882 5.197002 0.000000
-18.639420 13.752208 0.000000
-21.504745 17.495210 0.000000
-28.940613 23.158226 0.000000
-24.346201 21.554796 0.000000
-30.323325 28.634670 0.000000
-34.253231 33.375458 0.000000
-36.955814 39.578010 0.000000
-39.838621 45.102659 0.000000
-43.333227 50.000000 0.000000
44.585142 -32.971937 0.000000
50.000000 -36.666427 0.000000
39.129247 -29.581699 0.000000
33.500513 -26.367570 0.000000
27.182665 -23.322090 0.000000
23.065639 -18.647727 0.000000
16.989141 -16.979489 0.000000
6.712541 -12.216832 0.000000
12.351964 -12.732473 0.000000
-3.385566 -1.494664 0.000000
3.940243 -7.028230 0.000000
1.021969 -2.121106 0.000000
-7.016415 2.329690 0.000000
-8.438634 7.831579 0.000000
-12.847050 11.933504 0.000000
-15.692948 17.700671 0.000000
-19.287167 22.983051 0.000000
-24.170943 27.354976 0.000000
-27.286256 33.626134 0.000000
-30.406562 39.161291 0.000000
-33.447691 44.738848 0.000000
-36.666461 50.000000 0.000000
44.547710 -26.499724 0.000000
50.000000 -29.999668 0.000000
39.040028 -23.179191 0.000000
33.449827 -19.899941 0.000000
28.040163 -16.574471 0.000000
22.683789 -13.124308 0.000000
17.176678 -9.910298 0.000000
10.941762 -6.647869 0.000000
-1.351419 2.306813 0.000000
6.225281 -1.741597 0.000000
2.909573 1.601184 0.000000
-3.545398 7.189735 0.000000
-6.312106 12.445477 0.000000
-9.629283 17.701211 0.000000
-13.166657 23.112148 0.000000
-17.316449 28.185253 0.000000
-20.570514 33.474494 0.000000
-23.665773 39.064049 0.000000
-26.830694 44.585389 0.000000
-29.999730 50.000000 0.000000
44.528739 -19.930433 0.000000
50.000000 -23.332957 0.000000
39.036423 -16.593996 0.000000
33.576443 -13.281177 0.000000
28.150970 -9.964832 0.000000
22.726180 -6.604464 0.000000
17.264605 -3.337391 0.000000
12.018220 0.190942 0.000000
1.931343 6.297284 0.000000
7.042224 3.843685 0.000000
-0.212564 11.980397 0.000000
-3.270121 17.529555 0.000000
-6.701143 22.978258 0.000000
-10.568011 28.267624 0.000000
-13.723798 33.661616 0.000000
-16.945491 39.080472 0.000000
-20.140310 44.548509 0.000000
-23.333037 50.000000 0.000000
44.536368 -13.303534 0.000000
50.000000 -16.666316 0.000000
39.080011 -9.966574 0.000000
33.646862 -6.640855 0.000000
28.235924 -3.307280 0.000000
22.845915 0.018500 0.000000
17.533835 3.362573 0.000000
12.215464 6.598680 0.000000
6.727474 10.859128 0.000000
3.301225 17.195281 0.000000
-0.081661 22.850860 0.000000
-3.518346 28.312520 0.000000
-6.831145 33.774289 0.000000
-10.137163 39.170588 0.000000
-13.435459 44.563619 0.000000
-16.666400 50.000000 0.000000
44.554460 -6.654617 0.000000
50.000000 -9.999753 0.000000
39.123493 -3.321262 0.000000
33.713464 0.008775 0.000000
28.333186 3.343850 0.000000
23.002126 6.693788 0.000000
17.831959 10.023796 0.000000
12.654543 12.225415 0.000000
9.791659 17.235154 0.000000
6.477479 22.722417 0.000000
3.188523 28.269387 0.000000
-0.115853 33.734663 0.000000
-3.425094 39.168555 0.000000
-6.725245 44.581885 0.000000
-9.999814 50.000000 0.000000
44.575751 0.001944 0.000000
50.000000 -3.333250 0.000000
39.166865 3.331924 0.000000
33.779209 6.655566 0.000000
28.424215 9.995123 0.000000
23.046319 13.416564 0.000000
16.947798 17.021862 0.000000
12.901676 22.671131 0.000000
9.814577 28.232326 0.000000
6.604124 33.718711 0.000000
3.286544 39.164424 0.000000
-0.029836 44.584630 0.000000
-3.333270 50.000000 0.000000
44.586780 6.665449 0.000000
50.000000 3.333246 0.000000
39.198015 9.981895 0.000000
33.843345 13.277124 0.000000
28.541692 16.584941 0.000000
23.386499 20.084384 0.000000
18.531676 23.111899 0.000000
16.393441 28.298778 0.000000
13.328876 33.754800 0.000000
9.986475 39.181970 0.000000
6.665903 44.584421 0.000000
3.333260 50.000000 0.000000
44.608913 13.317768 0.000000
50.000000 9.999779 0.000000
39.251325 16.612373 0.000000
33.931776 19.862860 0.000000
28.612152 22.926004 0.000000
23.279585 27.207447 0.000000
19.901258 33.303176 0.000000
16.573652 39.040999 0.000000
13.268172 44.526820 0.000000
9.999798 50.000000 0.000000
44.632074 19.972796 0.000000
50.000000 16.666372 0.000000
39.298443 23.262030 0.000000
34.043702 26.514656 0.000000
28.965648 28.539441 0.000000
26.202268 33.410098 0.000000
23.066604 38.968846 0.000000
19.888397 44.507082 0.000000
16.666374 50.000000 0.000000
44.639761 26.642749 0.000000
50.000000 23.333022 0.000000
39.293290 29.966582 0.000000
33.212279 33.371193 0.000000
29.411984 39.045805 0.000000
26.422226 44.505953 0.000000
23.333014 50.000000 0.000000
44.774901 33.291673 0.000000
50.000000 29.999726 0.000000
39.738109 36.596220 0.000000
34.830938 39.525515 0.000000
32.833694 44.514204 0.000000
29.999714 50.000000 0.000000
44.978162 39.877761 0.000000
50.000000 36.666470 0.000000
39.734728 43.968928 0.000000
36.666457 50.000000 0.000000
45.621197 45.409695 0.000000
50.000000 43.333229 0.000000
43.333208 50.000000 0.000000
50.000000 50.000000 0.000000
CELLS 578 2312
3 1 0 2
3 0 3 2
3 4 1 6
3 6 1 2
3 3 5 7
3 3 7 2
3 6 2 7
3 9 4 10
3 10 4 6
3 5 8 11
3 7 5 11
3 10 6 12
3 12 6 7
3 7 11 13
3 7 13 12
3 8 14 15
3 11 8 15
3 16 9 17
3 17 9 10
3 17 10 18
3 18 10 12
3 11 15 19
3 13 11 19
3 18 12 20
3 13 19 20
3 20 12 13
3 14 22 24
3 15 14 24
3 15 24 25
3 19 15 25
3 21 16 26
3 26 16 17
3 26 17 27
3 27 17 18
3 27 18 28
3 28 18 20
3 19 25 29
3 19 29 20
3 28 20 30
3 30 20 29
3 31 21 32
3 32 21 26
3 22 23 36
3 24 22 36
3 23 34 37
3 36 23 37
3 24 36 38
3 25 24 38
3 25 38 39
3 29 25 39
3 32 26 40
3 40 26 27
3 40 27 41
3 41 27 28
3 41 28 42
3 42 28 30
3 29 39 43
3 29 43 30
3 42 30 43
3 33 31 44
3 44 31 32
3 44 32 45
3 45 32 40
3 46 33 47
3 47 33 44
3 34 35 50
3 37 34 50
3 35 48 51
3 50 35 51
3 36 37 52
3 38 36 52
3 37 50 53
3 52 37 53
3 38 52 54
3 39 38 54
3 39 54 55
3 43 39 55
3 45 40 56
3 56 40 41
3 56 41 57
3 57 41 42
3 57 42 58
3 58 42 43
3 43 55 59
3 43 59 58
3 47 44 60
3 60 44 45
3 60 45 61
3 61 45 56
3 62 46 63
3 63 46 47
3 63 47 64
3 64 47 60
3 48 49 68
3 51 48 68
3 49 66 69
3 68 49 69
3 50 51 70
3 53 50 70
3 51 68 71
3 70 51 71
3 52 53 72
3 54 52 72
3 53 70 73
3 72 53 73
3 54 72 74
3 55 54 74
3 55 74 75
3 59 55 75
3 61 56 76
3 76 56 57
3 76 57 77
3 77 57 58
3 77 58 78
3 59 75 78
3 78 58 59
3 64 60 79
3 79 60 61
3 79 61 80
3 80 61 76
3 65 62 81
3 81 62 63
3 81 63 82
3 82 63 64
3 82 64 83
3 83 64 79
3 84 65 85
3 85 65 81
3 66 67 89
3 69 66 89
3 67 87 90
3 89 67 90
3 68 69 91
3 71 68 91
3 69 89 92
3 91 69 92
3 70 71 93
3 73 70 93
3 71 91 94
3 93 71 94
3 72 73 95
3 74 72 95
3 73 93 96
3 95 73 96
3 74 95 97
3 75 74 97
3 75 97 98
3 78 75 98
3 80 76 99
3 99 76 77
3 99 77 100
3 100 77 78
3 100 78 101
3 98 101 78
3 83 79 102
3 102 79 80
3 102 80 103
3 103 80 99
3 85 81 104
3 104 81 82
3 105 83 102
3 104 82 106
3 106 82 83
3 106 83 105
3 86 84 107
3 107 84 85
3 107 85 108
3 108 85 104
3 109 86 107
3 110 86 109
3 87 88 112
3 90 87 112
3 112 88 113
3 88 114 113
3 90 112 115
3 89 90 116
3 92 89 116
3 116 90 115
3 91 92 117
3 94 91 117
3 92 116 118
3 117 92 118
3 93 94 119
3 96 93 119
3 94 117 120
3 119 94 120
3 95 96 121
3 97 95 121
3 96 119 122
3 121 96 122
3 97 121 123
3 98 97 123
3 98 123 124
3 98 124 101
3 103 99 125
3 125 99 100
3 125 100 126
3 126 100 101
3 126 101 124
3 105 102 127
3 127 102 103
3 127 103 128
3 128 103 125
3 129 105 127
3 108 104 130
3 130 104 106
3 130 106 131
3 131 106 105
3 131 105 129
3 108 130 132
3 109 107 133
3 133 107 108
3 133 108 134
3 108 132 134
3 135 109 133
3 111 110 136
3 136 110 109
3 136 109 135
3 137 111 136
3 138 111 137
3 112 113 139
3 115 112 139
3 114 140 113
3 140 139 113
3 139 141 115
3 116 115 142
3 118 116 142
3 142 115 141
3 117 118 143
3 120 117 143
3 118 142 144
3 143 118 144
3 119 120 145
3 122 119 145
3 120 143 146
3 145 120 146
3 121 122 147
3 123 121 147
3 122 145 148
3 147 122 148
3 123 147 149
3 124 123 149
3 124 149 150
3 151 126 124
3 124 150 151
3 128 125 152
3 152 125 126
3 152 126 151
3 129 127 153
3 153 127 128
3 128 152 154
3 153 128 154
3 155 129 153
3 131 129 156
3 156 129 155
3 132 130 157
3 130 131 157
3 157 131 158
3 131 156 158
3 132 157 159
3 132 159 134
3 135 133 160
3 160 133 134
3 160 134 159
3 136 135 161
3 135 160 161
3 162 137 136
3 161 162 136
3 163 138 137
3 162 163 137
3 139 164 141
3 140 165 139
3 139 165 164
3 141 164 166
3 141 166 142
3 166 167 142
3 144 142 167
3 167 168 144
3 143 144 168
3 146 143 168
3 168 169 146
3 145 146 170
3 148 145 170
3 170 146 169
3 147 148 171
3 149 147 171
3 148 170 172
3 171 148 172
3 173 151 150
3 149 171 174
3 150 149 174
3 150 174 175
3 150 175 173
3 154 152 176
3 152 151 176
3 176 151 173
3 154 176 177
3 155 153 178
3 177 178 154
3 154 178 153
3 156 155 179
3 155 178 179
3 180 158 156
3 179 180 156
3 181 159 157
3 180 181 158
3 181 157 158
3 182 160 159
3 181 182 159
3 183 161 160
3 182 183 160
3 184 162 161
3 184 161 183
3 185 163 162
3 184 185 162
3 164 186 166
3 165 187 164
3 164 187 186
3 166 186 188
3 166 188 167
3 167 188 189
3 167 189 168
3 168 189 190
3 168 190 169
3 169 190 191
3 169 191 170
3 192 172 170
3 170 191 192
3 192 193 172
3 171 172 193
3 174 171 193
3 194 173 175
3 176 173 194
3 175 174 195
3 193 195 174
3 195 196 175
3 175 196 194
3 197 177 176
3 194 197 176
3 198 178 177
3 197 198 177
3 199 179 178
3 198 199 178
3 200 180 179
3 199 200 179
3 201 181 180
3 200 201 180
3 202 182 181
3 201 202 181
3 203 183 182
3 202 203 182
3 204 184 183
3 203 204 183
3 205 185 184
3 204 205 184
3 186 206 188
3 187 207 186
3 186 207 206
3 188 206 208
3 188 208 189
3 189 208 209
3 189 209 190
3 190 209 210
3 190 210 191
3 191 210 211
3 191 211 192
3 192 211 212
3 192 212 193
3 193 212 213
3 193 213 195
3 214 197 194
3 214 194 196
3 195 213 215
3 195 215 196
3 196 215 214
3 216 198 197
3 214 216 197
3 217 199 198
3 216 217 198
3 218 200 199
3 217 218 199
3 219 201 200
3 218 219 200
3 220 202 201
3 219 220 201
3 221 203 202
3 220 221 202
3 222 204 203
3 221 222 203
3 223 205 204
3 222 223 204
3 206 224 208
3 207 225 206
3 206 225 224
3 208 224 226
3 208 226 209
3 209 226 227
3 209 227 210
3 210 227 228
3 210 228 211
3 211 228 229
3 211 229 212
3 212 229 230
3 212 230 213
3 213 230 231
3 213 231 215
3 232 216 214
3 215 231 232
3 232 214 215
3 233 217 216
3 232 233 216
3 234 218 217
3 233 234 217
3 235 219 218
3 234 235 218
3 236 220 219
3 235 236 219
3 237 221 220
3 236 237 220
3 238 222 221
3 237 238 221
3 239 223 222
3 238 239 222
3 224 240 226
3 225 241 224
3 224 241 240
3 226 240 242
3 226 242 227
3 227 242 243
3 227 243 228
3 228 243 244
3 228 244 229
3 244 245 229
3 229 245 230
3 230 245 246
3 230 246 231
3 231 246 247
3 231 247 232
3 248 233 232
3 248 232 247
3 249 234 233
3 248 249 233
3 250 235 234
3 249 250 234
3 251 236 235
3 250 251 235
3 252 237 236
3 251 252 236
3 253 238 237
3 252 253 237
3 254 239 238
3 253 254 238
3 240 255 242
3 241 256 240
3 240 256 255
3 242 255 257
3 242 257 243
3 243 257 258
3 243 258 244
3 244 258 259
3 244 259 245
3 245 259 260
3 245 260 246
3 246 260 261
3 246 261 247
3 248 247 261
3 262 249 248
3 261 262 248
3 263 250 249
3 262 263 249
3 264 251 250
3 263 264 250
3 265 252 251
3 264 265 251
3 266 253 252
3 265 266 252
3 267 254 253
3 266 267 253
3 255 268 257
3 256 269 255
3 255 269 268
3 257 268 270
3 257 270 258
3 258 270 271
3 258 271 259
3 259 271 272
3 259 272 260
3 260 272 273
3 260 273 261
3 274 262 261
3 261 273 274
3 275 263 262
3 274 275 262
3 276 264 263
3 275 276 263
3 277 265 264
3 276 277 264
3 278 266 265
3 277 278 265
3 279 267 266
3 278 279 266
3 268 280 270
3 269 281 268
3 268 281 280
3 270 280 282
3 270 282 271
3 271 282 283
3 271 283 272
3 283 284 272
3 272 284 273
3 285 275 274
3 273 284 285
3 285 274 273
3 286 276 275
3 285 286 275
3 287 277 276
3 286 287 276
3 288 278 277
3 287 288 277
3 289 279 278
3 288 289 278
3 280 290 282
3 281 291 280
3 280 291 290
3 282 290 292
3 282 292 283
3 283 292 293
3 283 293 284
3 284 293 294
3 284 294 285
3 295 286 285
3 295 285 294
3 296 287 286
3 295 296 286
3 297 288 287
3 296 297 287
3 298 289 288
3 297 298 288
3 290 299 292
3 291 300 290
3 290 300 299
3 292 299 301
3 292 301 293
3 293 301 302
3 293 302 294
3 294 302 295
3 303 296 295
3 303 295 302
3 304 297 296
3 303 304 296
3 305 298 297
3 304 305 297
3 299 306 301
3 300 307 299
3 299 307 306
3 301 306 308
3 301 308 302
3 309 303 302
3 302 308 309
3 310 304 303
3 309 310 303
3 311 305 304
3 310 311 304
3 306 312 308
3 307 313 306
3 306 313 312
3 314 310 309
3 308 312 314
3 314 309 308
3 315 311 310
3 314 315 310
3 312 316 314
3 313 317 312
3 312 317 316
3 318 315 314
3 318 314 316
3 317 319 316
3 319 318 316
CELL_TYPES 578
5
5
5
5
5
5
5
5
5
5
5
5
5
5
5
5
5
5
5
5
5
5
5
5
5
5
5
5
5
5
5
5
5
5
5
5
5
5
5
5
5
5
5
5
5
5
5
5
5
5
5
5
5
5
5
5
5
5
5
5
5
5
5
5
5
5
5
5
5
5
5
5
5
5
5
5
5
5
5
5
5
5
5
5
5
5
5
5
5
5
5
5
5
5
5
5
5
5
5
5
5
5
5
5
5
5
5
5
5
5
5
5
5
5
5
5
5
5
5
5
5
5
5
5
5
5
5
5
5
5
5
5
5
5
5
5
5
5
5
5
5
5
5
5
5
5
5
5
5
5
5
5
5
5
5
5
5
5
5
5
5
5
5
5
5
5
5
5
5
5
5
5
5
5
5
5
5
5
5
5
5
5
5
5
5
5
5
5
5
5
5
5
5
5
5
5
5
5
5
5
5
5
5
5
5
5
5
5
5
5
5
5
5
5
5
5
5
5
5
5
5
5
5
5
5
5
5
5
5
5
5
5
5
5
5
5
5
5
5
5
5
5
5
5
5
5
5
5
5
5
5
5
5
5
5
5
5
5
5
5
5
5
5
5
5
5
5
5
5
5
5
5
5
5
5
5
5
5
5
5
5
5
5
5
5
5
5
5
5
5
5
5
5
5
5
5
5
5
5
5
5
5
5
5
5
5
5
5
5
5
5
5
5
5
5
5
5
5
5
5
5
5
5
5
5
5
5
5
5
5
5
5
5
5
5
5
5
5
5
5
5
5
5
5
5
5
5
5
5
5
5
5
5
5
5
5
5
5
5
5
5
5
5
5
5
5
5
5
5
5
5
5
5
5
5
5
5
5
5
5
5
5
5
5
5
5
5
5
5
5
5
5
5
5
5
5
5
5
5
5
5
5
5
5
5
5
5
5
5
5
5
5
5
5
5
5
5
5
5
5
5
5
5
5
5
5
5
5
5
5
5
5
5
5
5
5
5
5
5
5
5
5
5
5
5
5
5
5
5
5
5
5
5
5
5
5
5
5
5
5
5
5
5
5
5
5
5
5
5
5
5
5
5
5
5
5
5
5
5
5
5
5
5
5
5
5
5
5
5
5
5
5
5
5
5
5
5
5
5
5
5
5
5
5
5
5
5
5
5
5
5
5
5
5
5
5
5
5
5
5
5
5
5
5
5
5
5
5
5
5
5
5
5
5
5
5
5
5
5
5
5
5
5
5
5
5
5
5
5
5
5
5
5
5
5
5
5
5
5
5
5
5
5
5
5
5
5
5
5
5
5
5
5
5
5
5
5
5
POINT_DATA 320
SCALARS theta_e float 1
LOOKUP_TABLE default
1.000001
1.000001
1.000001
1.000001
1.000001
1.000001
1.000001
1.000001
1.000001
1.000001
1.000001
1.000001
1.000001
1.000001
1.000001
1.000001
1.000001
1.000001
1.000001
1.000001
1.000001
1.000001
1.000001
1.000001
1.000001
1.000001
1.000001
1.000001
1.000001
1.000001
1.000001
1.000001
1.000001
1.000001
1.000001
1.000001
1.000001
1.000001
1.000001
1.000001
1.000001
1.000001
1.000001
1.000001
1.000001
1.000001
1.000001
1.000001
1.000001
1.000001
1.000001
1.000001
1.000001
1.000001
1.000001
1.000001
1.000001
1.000001
1.000001
1.000001
1.000001
1.000001
1.000001
1.000001
1.000001
1.000001
1.000001
1.000001
1.000001
1.000001
1.000001
1.000001
1.000001
1.000001
1.000001
1.000001
1.000001
1.000001
1.000001
1.000001
1.000001
1.000001
1.000001
1.000001
1.000001
1.000001
1.000000
1.000001
1.000001
1.000001
1.000001
1.000001
1.000001
1.000001
1.000001
1.000001
1.000001
1.000001
1.000001
1.000001
1.000001
1.000001
1.000001
1.000001
1.000001
1.000001
1.000001
1.000000
1.000001
1.000000
1.000000
1.000000
1.000001
1.000001
1.000001
1.000001
1.000001
1.000001
1.000001
1.000001
1.000001
1.000001
1.000001
1.000001
0.999997
1.000001
1.000000
1.000001
1.000001
1.000001
1.000001
1.000001
1.000001
1.000000
1.000000
1.000000
1.000000
1.000000
1.000000
1.000001
1.000001
1.000001
1.000001
1.000001
1.000001
1.000000
1.000000
1.000001
1.000000
0.999997
0.999987
0.999991
0.999998
1.000001
0.999999
1.000001
1.000001
1.000001
1.000001
1.000001
1.000000
1.000000
1.000000
1.000000
1.000001
1.000001
1.000001
1.000001
1.000001
1.000000
1.000000
0.999999
1.000000
0.999981
0.999990
0.999981
0.999988
0.999996
1.000001
1.000001
1.000001
1.000001
1.000000
1.000000
1.000000
1.000000
1.000001
1.000001
1.000001
1.000001
1.000001
1.000000
1.000000
0.999997
0.999981
0.999987
0.999981
0.999989
0.999999
1.000001
1.000001
1.000001
1.000001
1.000000
1.000000
1.000000
1.000001
1.000001
1.000001
1.000001
1.000000
1.000000
1.000000
0.999996
0.999986
0.999990
0.999996
1.000001
1.000001
1.000001
1.000001
1.000000
1.000000
1.000000
1.000001
1.000001
1.000001
1.000000
1.000000
1.000000
1.000000
0.999999
0.999997
1.000001
1.000001
1.000001
1.000001
1.000001
1.000000
1.000000
1.000001
1.000001
1.000001
1.000000
1.000000
1.000001
1.000001
1.000001
1.000001
1.000001
1.000001
1.000001
1.000001
1.000000
1.000000
1.000001
1.000001
1.000001
1.000000
1.000001
1.000001
1.000001
1.000001
1.000001
1.000001
1.000001
1.000000
1.000000
1.000001
1.000000
1.000001
1.000001
1.000001
1.000001
1.000001
1.000001
1.000001
1.000001
1.000000
1.000000
1.000000
1.000000
1.000001
1.000001
1.000001
1.000001
1.000001
1.000001
1.000000
1.000000
1.000000
1.000000
1.000000
1.000001
1.000001
1.000001
1.000000
1.000000
1.000000
1.000000
1.000000
1.000000
1.000000
1.000000
1.000000
1.000000
1.000000
1.000000
1.000000
1.000000
1.000000
1.000000
1.000000
1.000000
1.000000
1.000000
1.000000
1.000000
1.000000
1.000000
VECTORS fa_u float
0.000000 0.000000 0.000000
0.000000 0.000000 0.000000
0.000000 0.000000 0.000000
0.000000 0.000000 0.000000
0.000000 0.000000 0.000000
0.000000 0.000000 0.000000
0.000000 0.000000 0.000000
0.000000 0.000000 0.000000
0.000000 0.000000 0.000000
0.000000 0.000000 0.000000
0.000000 0.000000 0.000000
0.000000 0.000000 0.000000
0.000000 0.000000 0.000000
0.000000 0.000000 0.000000
0.000000 0.000000 0.000000
0.000000 0.000000 0.000000
0.000000 0.000000 0.000000
0.000000 0.000000 0.000000
0.000000 0.000000 0.000000
0.000000 0.000000 0.000000
0.000000 0.000000 0.000000
0.000000 0.000000 0.000000
0.000000 0.000000 0.000000
0.000000 0.000000 0.000000
0.000000 0.000000 0.000000
0.000000 0.000000 0.000000
0.000000 0.000000 0.000000
0.000000 0.000000 0.000000
0.000000 0.000000 0.000000
0.000000 0.000000 0.000000
0.000000 0.000000 0.000000
0.000000 0.000000 0.000000
0.000000 0.000000 0.000000
0.000000 0.000000 0.000000
0.000000 0.000000 0.000000
0.000000 0.000000 0.000000
0.000000 0.000000 0.000000
0.000000 0.000000 0.000000
0.000000 0.000000 0.000000
0.000000 0.000000 0.000000
0.000000 0.000000 0.000000
0.000000 0.000000 0.000000
0.000000 0.000000 0.000000
0.000000 0.000000 0.000000
0.000000 0.000000 0.000000
0.000000 0.000000 0.000000
0.000000 0.000000 0.000000
0.000000 0.000000 0.000000
0.000000 0.000000 0.000000
0.000000 0.000000 0.000000
0.000000 0.000000 0.000000
0.000000 0.000000 0.000000
0.000000 0.000000 0.000000
0.000000 0.000000 0.000000
0.000000 0.000000 0.000000
0.000000 0.000000 0.000000
0.000000 0.000000 0.000000
0.000000 0.000000 0.000000
0.000000 0.000000 0.000000
0.000000 0.000000 0.000000
0.000000 0.000000 0.000000
0.000000 0.000000 0.000000
0.000000 0.000000 0.000000
0.000000 0.000000 0.000000
0.000000 0.000000 0.000000
0.000000 0.000000 0.000000
0.000000 0.000000 0.000000
0.000000 0.000000 0.000000
0.000000 0.000000 0.000000
0.000000 0.000000 0.000000
0.000000 0.000000 0.000000
0.000000 0.000000 0.000000
0.000000 0.000000 0.000000
0.000000 0.000000 0.000000
0.000000 0.000000 0.000000
0.000000 0.000000 0.000000
0.000000 0.000000 0.000000
0.000000 0.000000 0.000000
0.000000 0.000000 0.000000
0.000000 0.000000 0.000000
0.000000 0.000000 0.000000
0.000000 0.000000 0.000000
0.000000 0.000000 0.000000
0.000000 0.000000 0.000000
0.000000 0.000000 0.000000
0.000000 0.000000 0.000000
0.000000 0.000000 0.000000
0.000000 0.000000 0.000000
0.000000 0.000000 0.000000
0.000000 0.000000 0.000000
0.000000 0.000000 0.000000
0.000000 0.000000 0.000000
0.000000 0.000000 0.000000
0.000000 0.000000 0.000000
0.000000 0.000000 0.000000
0.000000 0.000000 0.000000
0.000000 0.000000 0.000000
0.000000 0.000000 0.000000
0.000000 0.000000 0.000000
0.000000 0.000000 0.000000
0.000000 0.000000 0.000000
0.000000 0.000000 0.000000
0.000000 0.000000 0.000000
0.000000 0.000000 0.000000
0.000000 0.000000 0.000000
0.000000 0.000000 0.000000
0.000000 0.000000 0.000000
0.000000 0.000000 0.000000
0.000000 0.000000 0.000000
0.000000 0.000000 0.000000
0.000000 0.000000 0.000000
0.000000 0.000000 0.000000
0.000000 0.000000 0.000000
0.000000 0.000000 0.000000
0.000000 0.000000 0.000000
0.000000 0.000000 0.000000
0.000000 0.000000 0.000000
0.000000 0.000000 0.000000
0.000000 0.000000 0.000000
0.000000 0.000000 0.000000
0.000000 0.000000 0.000000
0.000000 0.000000 0.000000
0.000000 0.000000 0.000000
0.000000 0.000000 0.000000
0.000000 0.000000 0.000000
0.000000 0.000000 0.000000
0.000000 0.000000 0.000000
0.000000 0.000000 0.000000
0.000000 0.000000 0.000000
0.000000 0.000000 0.000000
0.000000 0.000000 0.000000
0.000000 0.000000 0.000000
0.000000 0.000000 0.000000
0.000000 0.000000 0.000000
0.000000 0.000000 0.000000
0.000000 0.000000 0.000000
0.000000 0.000000 0.000000
0.000000 0.000000 0.000000
0.000000 0.000000 0.000000
0.000000 0.000000 0.000000
0.000000 0.000000 0.000000
0.000000 0.000000 0.000000
0.000000 0.000000 0.000000
0.000000 0.000000 0.000000
0.000000 0.000000 0.000000
0.000000 0.000000 0.000000
0.000000 0.000000 0.000000
0.000000 0.000000 0.000000
0.000000 0.000000 0.000000
0.000000 0.000000 0.000000
0.000000 0.000000 0.000000
0.000000 0.000000 0.000000
0.000000 0.000000 0.000000
0.000000 0.000000 0.000000
0.000000 0.000000 0.000000
0.000000 0.000000 0.000000
0.000000 0.000000 0.000000
0.000000 0.000000 0.000000
0.000000 0.000000 0.000000
0.000000 0.000000 0.000000
0.000000 0.000000 0.000000
0.000000 0.000000 0.000000
0.000000 0.000000 0.000000
0.000000 0.000000 0.000000
0.000000 0.000000 0.000000
0.000000 0.000000 0.000000
0.000000 0.000000 0.000000
0.000000 0.000000 0.000000
0.000000 0.000000 0.000000
0.000000 0.000000 0.000000
0.000000 0.000000 0.000000
0.000000 0.000000 0.000000
0.000000 0.000000 0.000000
0.000000 0.000000 0.000000
0.000000 0.000000 0.000000
0.000000 0.000000 0.000000
0.000000 0.000000 0.000000
0.000000 0.000000 0.000000
0.000000 0.000000 0.000000
0.000000 0.000000 0.000000
0.000000 0.000000 0.000000
0.000000 0.000000 0.000000
0.000000 0.000000 0.000000
0.000000 0.000000 0.000000
0.000000 0.000000 0.000000
0.000000 0.000000 0.000000
0.000000 0.000000 0.000000
0.000000 0.000000 0.000000
0.000000 0.000000 0.000000
0.000000 0.000000 0.000000
0.000000 0.000000 0.000000
0.000000 0.000000 0.000000
0.000000 0.000000 0.000000
0.000000 0.000000 0.000000
0.000000 0.000000 0.000000
0.000000 0.000000 0.000000
0.000000 0.000000 0.000000
0.000000 0.000000 0.000000
0.000000 0.000000 0.000000
0.000000 0.000000 0.000000
0.000000 0.000000 0.000000
0.000000 0.000000 0.000000
0.000000 0.000000 0.000000
0.000000 0.000000 0.000000
0.000000 0.000000 0.000000
0.000000 0.000000 0.000000
0.000000 0.000000 0.000000
0.000000 0.000000 0.000000
0.000000 0.000000 0.000000
0.000000 0.000000 0.000000
0.000000 0.000000 0.000000
0.000000 0.000000 0.000000
0.000000 0.000000 0.000000
0.000000 0.000000 0.000000
0.000000 0.000000 0.000000
0.000000 0.000000 0.000000
0.000000 0.000000 0.000000
0.000000 0.000000 0.000000
0.000000 0.000000 0.000000
0.000000 0.000000 0.000000
0.000000 0.000000 0.000000
0.000000 0.000000 0.000000
0.000000 0.000000 0.000000
0.000000 0.000000 0.000000
0.000000 0.000000 0.000000
0.000000 0.000000 0.000000
0.000000 0.000000 0.000000
0.000000 0.000000 0.000000
0.000000 0.000000 0.000000
0.000000 0.000000 0.000000
0.000000 0.000000 0.000000
0.000000 0.000000 0.000000
0.000000 0.000000 0.000000
0.000000 0.000000 0.000000
0.000000 0.000000 0.000000
0.000000 0.000000 0.000000
0.000000 0.000000 0.000000
0.000000 0.000000 0.000000
0.000000 0.000000 0.000000
0.000000 0.000000 0.000000
0.000000 0.000000 0.000000
0.000000 0.000000 0.000000
0.000000 0.000000 0.000000
0.000000 0.000000 0.000000
0.000000 0.000000 0.000000
0.000000 0.000000 0.000000
0.000000 0.000000 0.000000
0.000000 0.000000 0.000000
0.000000 0.000000 0.000000
0.000000 0.000000 0.000000
0.000000 0.000000 0.000000
0.000000 0.000000 0.000000
0.000000 0.000000 0.000000
0.000000 0.000000 0.000000
0.000000 0.000000 0.000000
0.000000 0.000000 0.000000
0.000000 0.000000 0.000000
0.000000 0.000000 0.000000
0.000000 0.000000 0.000000
0.000000 0.000000 0.000000
0.000000 0.000000 0.000000
0.000000 0.000000 0.000000
0.000000 0.000000 0.000000
0.000000 0.000000 0.000000
0.000000 0.000000 0.000000
0.000000 0.000000 0.000000
0.000000 0.000000 0.000000
0.000000 0.000000 0.000000
0.000000 0.000000 0.000000
0.000000 0.000000 0.000000
0.000000 0.000000 0.000000
0.000000 0.000000 0.000000
0.000000 0.000000 0.000000
0.000000 0.000000 0.000000
0.000000 0.000000 0.000000
0.000000 0.000000 0.000000
0.000000 0.000000 0.000000
0.000000 0.000000 0.000000
0.000000 0.000000 0.000000
0.000000 0.000000 0.000000
0.000000 0.000000 0.000000
0.000000 0.000000 0.000000
0.000000 0.000000 0.000000
0.000000 0.000000 0.000000
0.000000 0.000000 0.000000
0.000000 0.000000 0.000000
0.000000 0.000000 0.000000
0.000000 0.000000 0.000000
0.000000 0.000000 0.000000
0.000000 0.000000 0.000000
0.000000 0.000000 0.000000
0.000000 0.000000 0.000000
0.000000 0.000000 0.000000
0.000000 0.000000 0.000000
0.000000 0.000000 0.000000
0.000000 0.000000 0.000000
0.000000 0.000000 -50.000000
-50.000000 0.000000 -50.000000
-43.333252 0.000000 -45.688292
-45.491065 0.000000 -43.333237
-50.000000 0.000000 -50.000000
-36.666499 0.000000 -36.666496
-50.000000 0.000000 -45.081019
-39.969727 0.000000 -40.027043
-44.152188 0.000000 -29.999748
-50.000000 0.000000 -50.000000
-29.999753 0.000000 -44.846988
-33.448865 0.000000 -33.144807
-44.675590 0.000000 -39.869002
-36.786925 0.000000 -35.128510
-39.801186 0.000000 -23.333032
-50.000000 0.000000 -26.539042
-44.666695 0.000000 -50.000000
-23.333042 0.000000 -44.665232
-26.803853 0.000000 -39.364149
-30.225607 0.000000 -29.606110
-39.359268 0.000000 -33.368065
-33.655334 0.000000 -50.000000
-16.666383 0.000000 -16.666378
-50.000000 0.000000 -9.999790
