# vtk DataFile Version 2.0
CellBP Time: 1.52
ASCII
DATASET UNSTRUCTURED_GRID
POINTS 320 double
-50.000000 -50.000000 0.000000
-50.000000 -43.333226 0.000000
-45.688301 -45.491073 0.000000
-43.333207 -50.000000 0.000000
-50.000000 -36.666446 0.000000
-36.666444 -50.000000 0.000000
-45.081028 -39.969733 0.000000
-40.027057 -44.152196 0.000000
-29.999672 -50.000000 0.000000
-50.000000 -29.999675 0.000000
-44.846997 -33.448870 0.000000
-33.144817 -44.675599 0.000000
-39.869014 -36.786932 0.000000
-35.128524 -39.801197 0.000000
-23.332943 -50.000000 0.000000
-26.539053 -44.666700 0.000000
-50.000000 -23.332950 0.000000
-44.665236 -26.803860 0.000000
-39.364158 -30.225613 0.000000
-29.606126 -39.359277 0.000000
-33.368082 -33.655344 0.000000
-50.000000 -16.666294 0.000000
-16.666294 -50.000000 0.000000
-9.999731 -50.000000 0.000000
-19.964771 -44.588785 0.000000
-23.215790 -39.114657 0.000000
-44.691906 -20.096850 0.000000
-39.367818 -23.528124 0.000000
-34.106038 -26.936961 0.000000
-26.384272 -33.577129 0.000000
-29.156047 -28.926511 0.000000
-50.000000 -9.999699 0.000000
-44.666376 -13.410132 0.000000
-50.000000 -3.333184 0.000000
-3.333239 -50.000000 0.000000
3.333233 -50.000000 0.000000
-13.343522 -44.599085 0.000000
-6.684642 -44.610788 0.000000
-16.693620 -39.153357 0.000000
-20.106920 -33.342678 0.000000
-39.338191 -16.804816 0.000000
-34.018578 -20.274719 0.000000
-28.780757 -23.448970 0.000000
-23.510383 -27.350013 0.000000
-44.635519 -6.705586 0.000000
-39.293072 -10.101876 0.000000
-50.000000 3.333287 0.000000
-44.626854 -0.015711 0.000000
9.999737 -50.000000 0.000000
16.666305 -50.000000 0.000000
-0.016085 -44.618852 0.000000
6.651574 -44.635506 0.000000
-10.044634 -39.222637 0.000000
-3.368204 -39.220476 0.000000
-13.484260 -33.798835 0.000000
-16.709758 -28.271411 0.000000
-33.948104 -13.514264 0.000000
-28.601513 -16.892505 0.000000
-23.291249 -20.312884 0.000000
-18.660185 -23.282424 0.000000
-39.267609 -3.392921 0.000000
-33.904587 -6.796795 0.000000
-50.000000 9.999770 0.000000
-44.606874 6.673266 0.000000
-39.261056 3.325597 0.000000
-50.000000 16.666322 0.000000
23.332944 -50.000000 0.000000
29.999653 -50.000000 0.000000
13.317323 -44.662997 0.000000
19.989443 -44.700124 0.000000
3.307685 -39.245182 0.000000
9.971776 -39.290303 0.000000
-6.735211 -33.791399 0.000000
-0.032330 -33.829681 0.000000
-10.095942 -28.293669 0.000000
-13.122820 -22.898535 0.000000
-28.532809 -10.215178 0.000000
-23.066508 -13.663235 0.000000
-16.976993 -17.208777 0.000000
-33.884890 -0.065450 0.000000
-28.563321 -3.578741 0.000000
-44.564202 13.380273 0.000000
-39.190188 10.014968 0.000000
-33.905896 6.615988 0.000000
-50.000000 23.332938 0.000000
-44.557752 20.138028 0.000000
-50.000000 29.999680 0.000000
36.666418 -50.000000 0.000000
43.333203 -50.000000 0.000000
26.663074 -44.745267 0.000000
33.315172 -44.875883 0.000000
16.631625 -39.357705 0.000000
23.328168 -39.437055 0.000000
6.642807 -33.879522 0.000000
13.290811 -33.965480 0.000000
-3.345524 -28.362863 0.000000
3.356994 -28.451336 0.000000
-6.626026 -22.846320 0.000000
-9.971014 -17.314801 0.000000
-23.185423 -7.014971 0.000000
-17.810335 -10.334936 0.000000
-12.837278 -12.589629 0.000000
-28.607595 3.088482 0.000000
-23.264805 -0.468182 0.000000
-39.039087 16.746472 0.000000
-28.721443 9.926478 0.000000
-33.761758 13.318498 0.000000
-44.521679 26.716753 0.000000
-38.467737 23.892442 0.000000
-44.632152 33.085391 0.000000
-50.000000 36.666487 0.000000
-50.000000 43.333237 0.000000
39.922278 -45.069508 0.000000
45.474584 -45.660362 0.000000
50.000000 -50.000000 0.000000
36.626698 -39.981883 0.000000
30.012235 -39.458539 0.000000
19.904197 -34.092722 0.000000
26.584970 -34.319402 0.000000
9.988861 -28.513596 0.000000
16.611022 -28.659815 0.000000
0.052207 -22.959118 0.000000
6.812275 -23.158445 0.000000
-3.401150 -17.297608 0.000000
-6.864815 -11.024463 0.000000
-17.878538 -3.828705 0.000000
-12.554020 -7.036256 0.000000
-23.310710 6.073631 0.000000
-18.037966 2.455296 0.000000
-23.121999 12.095602 0.000000
-33.572100 19.788931 0.000000
-27.941266 16.885338 0.000000
-33.292702 24.722586 0.000000
-39.473358 30.052591 0.000000
-35.160092 28.137361 0.000000
-39.815770 35.101242 0.000000
-43.991569 39.982020 0.000000
-45.430953 45.685041 0.000000
-50.000000 50.000000 0.000000
44.117149 -39.898869 0.000000
50.000000 -43.333150 0.000000
39.639322 -35.047296 0.000000
33.462810 -33.424445 0.000000
22.984831 -28.817833 0.000000
28.730914 -29.247695 0.000000
13.460764 -23.121763 0.000000
20.054823 -23.438693 0.000000
3.388341 -17.586955 0.000000
10.127352 -17.840014 0.000000
0.142776 -12.005037 0.000000
-2.153936 -6.264952 0.000000
-7.402509 -3.702574 0.000000
-12.625566 -0.802602 0.000000
-18.162298 8.573170 0.000000
-12.964992 5.196976 0.000000
-18.639349 13.752170 0.000000
-21.504703 17.495172 0.000000
-28.940622 23.158258 0.000000
-24.346201 21.554777 0.000000
-30.323343 28.634687 0.000000
-34.253249 33.375466 0.000000
-36.955822 39.578016 0.000000
-39.838624 45.102669 0.000000
-43.333195 50.000000 0.000000
44.585152 -32.971944 0.000000
50.000000 -36.666355 0.000000
39.129253 -29.581706 0.000000
33.500521 -26.367571 0.000000
27.182686 -23.322085 0.000000
23.065693 -18.647726 0.000000
16.989248 -16.979560 0.000000
6.712170 -12.216098 0.000000
12.352567 -12.732595 0.000000
-3.384939 -1.494392 0.000000
3.936023 -7.021149 0.000000
1.021923 -2.121053 0.000000
-7.011743 2.327817 0.000000
-8.433237 7.826781 0.000000
-12.846835 11.933272 0.000000
-15.692869 17.700596 0.000000
-19.287169 22.982993 0.000000
-24.170940 27.354955 0.000000
-27.286259 33.626123 0.000000
-30.406567 39.161283 0.000000
-33.447698 44.738849 0.000000
-36.666400 50.000000 0.000000
44.547712 -26.499733 0.000000
50.000000 -29.999568 0.000000
39.040028 -23.179191 0.000000
33.449819 -19.899936 0.000000
28.040148 -16.574429 0.000000
22.683668 -13.124274 0.000000
17.176645 -9.909974 0.000000
10.937306 -6.645925 0.000000
-1.351631 2.307154 0.000000
6.222334 -1.740651 0.000000
2.908823 1.600903 0.000000
-3.542698 7.183964 0.000000
-6.312204 12.445043 0.000000
-9.629305 17.701520 0.000000
-13.166699 23.112218 0.000000
-17.316461 28.185244 0.000000
-20.570528 33.474484 0.000000
-23.665782 39.064043 0.000000
-26.830709 44.585387 0.000000
-29.999651 50.000000 0.000000
44.528735 -19.930444 0.000000
50.000000 -23.332843 0.000000
39.036413 -16.593997 0.000000
33.576421 -13.281172 0.000000
28.150908 -9.964829 0.000000
22.726116 -6.604457 0.000000
17.264555 -3.337293 0.000000
12.012102 0.191711 0.000000
1.930602 6.294342 0.000000
7.035368 3.839803 0.000000
-0.212969 11.974587 0.000000
-3.269494 17.529611 0.000000
-6.701075 22.978202 0.000000
-10.567982 28.267608 0.000000
-13.723810 33.661594 0.000000
-16.945503 39.080461 0.000000
-20.140328 44.548503 0.000000
-23.332949 50.000000 0.000000
44.536360 -13.303546 0.000000
50.000000 -16.666209 0.000000
39.080001 -9.966578 0.000000
33.646847 -6.640867 0.000000
28.235936 -3.307300 0.000000
22.846011 0.018463 0.000000
17.533923 3.361952 0.000000
12.214497 6.598211 0.000000
6.725545 10.854575 0.000000
3.301263 17.195378 0.000000
-0.081622 22.850962 0.000000
-3.518364 28.312533 0.000000
-6.831160 33.774295 0.000000
-10.137180 39.170583 0.000000
-13.435479 44.563613 0.000000
-16.666320 50.000000 0.000000
44.554448 -6.654625 0.000000
50.000000 -9.999676 0.000000
39.123480 -3.321265 0.000000
33.713453 0.008778 0.000000
28.333179 3.343885 0.000000
23.002033 6.693779 0.000000
17.832035 10.023631 0.000000
12.654671 12.225931 0.000000
9.791434 17.235068 0.000000
6.477541 22.722404 0.000000
3.188551 28.269408 0.000000
-0.115857 33.734666 0.000000
-3.425099 39.168557 0.000000
-6.725259 44.581879 0.000000
-9.999759 50.000000 0.000000
44.575741 0.001942 0.000000
50.000000 -3.333222 0.000000
39.166861 3.331922 0.000000
33.779212 6.655567 0.000000
28.424197 9.995107 0.000000
23.046320 13.416545 0.000000
16.947889 17.021931 0.000000
12.901669 22.671005 0.000000
9.814602 28.232299 0.000000
6.604133 33.718709 0.000000
3.286546 39.164420 0.000000
-0.029838 44.584624 0.000000
-3.333252 50.000000 0.000000
44.586775 6.665456 0.000000
50.000000 3.333221 0.000000
39.198017 9.981898 0.000000
33.843346 13.277115 0.000000
28.541708 16.584917 0.000000
23.386532 20.084375 0.000000
18.531682 23.111940 0.000000
16.393413 28.298763 0.000000
13.328881 33.754793 0.000000
9.986483 39.181965 0.000000
6.665912 44.584414 0.000000
3.333237 50.000000 0.000000
44.608910 13.317782 0.000000
50.000000 9.999714 0.000000
39.251324 16.612378 0.000000
33.931782 19.862858 0.000000
28.612162 22.925999 0.000000
23.279585 27.207452 0.000000
19.901262 33.303162 0.000000
16.573666 39.040991 0.000000
13.268189 44.526812 0.000000
9.999736 50.000000 0.000000
44.632073 19.972812 0.000000
50.000000 16.666283 0.000000
39.298445 23.262038 0.000000
34.043708 26.514660 0.000000
28.965656 28.539439 0.000000
26.202276 33.410097 0.000000
23.066614 38.968842 0.000000
19.888415 44.507079 0.000000
16.666284 50.000000 0.000000
44.639765 26.642763 0.000000
50.000000 23.332926 0.000000
39.293295 29.966591 0.000000
33.212288 33.371198 0.000000
29.411997 39.045807 0.000000
26.422241 44.505954 0.000000
23.332916 50.000000 0.000000
44.774908 33.291682 0.000000
50.000000 29.999641 0.000000
39.738116 36.596226 0.000000
34.830949 39.525523 0.000000
32.833706 44.514211 0.000000
29.999625 50.000000 0.000000
44.978170 39.877769 0.000000
50.000000 36.666409 0.000000
39.734743 43.968937 0.000000
36.666392 50.000000 0.000000
45.621207 45.409705 0.000000
50.000000 43.333197 0.000000
43.333169 50.000000 0.000000
50.000000 50.000000 0.000000
CELLS 578 2312
3 1 0 2
3 0 3 2
3 4 1 6
3 6 1 2
3 3 5 7
3 3 7 2
3 6 2 7
3 9 4 10
3 10 4 6
3 5 8 11
3 7 5 11
3 10 6 12
3 12 6 7
3 7 11 13
3 7 13 12
3 8 14 15
3 11 8 15
3 16 9 17
3 17 9 10
3 17 10 18
3 18 10 12
3 11 15 19
3 13 11 19
3 18 12 20
3 13 19 20
3 20 12 13
3 14 22 24
3 15 14 24
3 15 24 25
3 19 15 25
3 21 16 26
3 26 16 17
3 26 17 27
3 27 17 18
3 27 18 28
3 28 18 20
3 19 25 29
3 19 29 20
3 28 20 30
3 30 20 29
3 31 21 32
3 32 21 26
3 22 23 36
3 24 22 36
3 23 34 37
3 36 23 37
3 24 36 38
3 25 24 38
3 25 38 39
3 29 25 39
3 32 26 40
3 40 26 27
3 40 27 41
3 41 27 28
3 41 28 42
3 42 28 30
3 29 39 43
3 29 43 30
3 42 30 43
3 33 31 44
3 44 31 32
3 44 32 45
3 45 32 40
3 46 33 47
3 47 33 44
3 34 35 50
3 37 34 50
3 35 48 51
3 50 35 51
3 36 37 52
3 38 36 52
3 37 50 53
3 52 37 53
3 38 52 54
3 39 38 54
3 39 54 55
3 43 39 55
3 45 40 56
3 56 40 41
3 56 41 57
3 57 41 42
3 57 42 58
3 58 42 43
3 43 55 59
3 43 59 58
3 47 44 60
3 60 44 45
3 60 45 61
3 61 45 56
3 62 46 63
3 63 46 47
3 63 47 64
3 64 47 60
3 48 49 68
3 51 48 68
3 49 66 69
3 68 49 69
3 50 51 70
3 53 50 70
3 51 68 71
3 70 51 71
3 52 53 72
3 54 52 72
3 53 70 73
3 72 53 73
3 54 72 74
3 55 54 74
3 55 74 75
3 59 55 75
3 61 56 76
3 76 56 57
3 76 57 77
3 77 57 58
3 77 58 78
3 59 75 78
3 78 58 59
3 64 60 79
3 79 60 61
3 79 61 80
3 80 61 76
3 65 62 81
3 81 62 63
3 81 63 82
3 82 63 64
3 82 64 83
3 83 64 79
3 84 65 85
3 85 65 81
3 66 67 89
3 69 66 89
3 67 87 90
3 89 67 90
3 68 69 91
3 71 68 91
3 69 89 92
3 91 69 92
3 70 71 93
3 73 70 93
3 71 91 94
3 93 71 94
3 72 73 95
3 74 72 95
3 73 93 96
3 95 73 96
3 74 95 97
3 75 74 97
3 75 97 98
3 78 75 98
3 80 76 99
3 99 76 77
3 99 77 100
3 100 77 78
3 100 78 101
3 98 101 78
3 83 79 102
3 102 79 80
3 102 80 103
3 103 80 99
3 85 81 104
3 104 81 82
3 105 83 102
3 104 82 106
3 106 82 83
3 106 83 105
3 86 84 107
3 107 84 85
3 107 85 108
3 108 85 104
3 109 86 107
3 110 86 109
3 87 88 112
3 90 87 112
3 112 88 113
3 88 114 113
3 90 112 115
3 89 90 116
3 92 89 116
3 116 90 115
3 91 92 117
3 94 91 117
3 92 116 118
3 117 92 118
3 93 94 119
3 96 93 119
3 94 117 120
3 119 94 120
3 95 96 121
3 97 95 121
3 96 119 122
3 121 96 122
3 97 121 123
3 98 97 123
3 98 123 124
3 98 124 101
3 103 99 125
3 125 99 100
3 125 100 126
3 126 100 101
3 126 101 124
3 105 102 127
3 127 102 103
3 127 103 128
3 128 103 125
3 129 105 127
3 108 104 130
3 130 104 106
3 130 106 131
3 131 106 105
3 131 105 129
3 108 130 132
3 109 107 133
3 133 107 108
3 133 108 134
3 108 132 134
3 135 109 133
3 111 110 136
3 136 110 109
3 136 109 135
3 137 111 136
3 138 111 137
3 112 113 139
3 115 112 139
3 114 140 113
3 140 139 113
3 139 141 115
3 116 115 142
3 118 116 142
3 142 115 141
3 117 118 143
3 120 117 143
3 118 142 144
3 143 118 144
3 119 120 145
3 122 119 145
3 120 143 146
3 145 120 146
3 121 122 147
3 123 121 147
3 122 145 148
3 147 122 148
3 123 147 149
3 124 123 149
3 124 149 150
3 151 126 124
3 124 150 151
3 128 125 152
3 152 125 126
3 152 126 151
3 129 127 153
3 153 127 128
3 128 152 154
3 153 128 154
3 155 129 153
3 131 129 156
3 156 129 155
3 132 130 157
3 130 131 157
3 157 131 158
3 131 156 158
3 132 157 159
3 132 159 134
3 135 133 160
3 160 133 134
3 160 134 159
3 136 135 161
3 135 160 161
3 162 137 136
3 161 162 136
3 163 138 137
3 162 163 137
3 139 164 141
3 140 165 139
3 139 165 164
3 141 164 166
3 141 166 142
3 166 167 142
3 144 142 167
3 167 168 144
3 143 144 168
3 146 143 168
3 168 169 146
3 145 146 170
3 148 145 170
3 170 146 169
3 147 148 171
3 149 147 171
3 148 170 172
3 171 148 172
3 173 151 150
3 149 171 174
3 150 149 174
3 150 174 175
3 150 175 173
3 154 152 176
3 152 151 176
3 176 151 173
3 154 176 177
3 155 153 178
3 177 178 154
3 154 178 153
3 156 155 179
3 155 178 179
3 180 158 156
3 179 180 156
3 181 159 157
3 180 181 158
3 181 157 158
3 182 160 159
3 181 182 159
3 183 161 160
3 182 183 160
3 184 162 161
3 184 161 183
3 185 163 162
3 184 185 162
3 164 186 166
3 165 187 164
3 164 187 186
3 166 186 188
3 166 188 167
3 167 188 189
3 167 189 168
3 168 189 190
3 168 190 169
3 169 190 191
3 169 191 170
3 192 172 170
3 170 191 192
3 192 193 172
3 171 172 193
3 174 171 193
3 194 173 175
3 176 173 194
3 175 174 195
3 193 195 174
3 195 196 175
3 175 196 194
3 197 177 176
3 194 197 176
3 198 178 177
3 197 198 177
3 199 179 178
3 198 199 178
3 200 180 179
3 199 200 179
3 201 181 180
3 200 201 180
3 202 182 181
3 201 202 181
3 203 183 182
3 202 203 182
3 204 184 183
3 203 204 183
3 205 185 184
3 204 205 184
3 186 206 188
3 187 207 186
3 186 207 206
3 188 206 208
3 188 208 189
3 189 208 209
3 189 209 190
3 190 209 210
3 190 210 191
3 191 210 211
3 191 211 192
3 192 211 212
3 192 212 193
3 193 212 213
3 193 213 195
3 214 197 194
3 214 194 196
3 195 213 215
3 195 215 196
3 196 215 214
3 216 198 197
3 214 216 197
3 217 199 198
3 216 217 198
3 218 200 199
3 217 218 199
3 219 201 200
3 218 219 200
3 220 202 201
3 219 220 201
3 221 203 202
3 220 221 202
3 222 204 203
3 221 222 203
3 223 205 204
3 222 223 204
3 206 224 208
3 207 225 206
3 206 225 224
3 208 224 226
3 208 226 209
3 209 226 227
3 209 227 210
3 210 227 228
3 210 228 211
3 211 228 229
3 211 229 212
3 212 229 230
3 212 230 213
3 213 230 231
3 213 231 215
3 232 216 214
3 215 231 232
3 232 214 215
3 233 217 216
3 232 233 216
3 234 218 217
3 233 234 217
3 235 219 218
3 234 235 218
3 236 220 219
3 235 236 219
3 237 221 220
3 236 237 220
3 238 222 221
3 237 238 221
3 239 223 222
3 238 239 222
3 224 240 226
3 225 241 224
3 224 241 240
3 226 240 242
3 226 242 227
3 227 242 243
3 227 243 228
3 228 243 244
3 228 244 229
3 244 245 229
3 229 245 230
3 230 245 246
3 230 246 231
3 231 246 247
3 231 247 232
3 248 233 232
3 248 232 247
3 249 234 233
3 248 249 233
3 250 235 234
3 249 250 234
3 251 236 235
3 250 251 235
3 252 237 236
3 251 252 236
3 253 238 237
3 252 253 237
3 254 239 238
3 253 254 238
3 240 255 242
3 241 256 240
3 240 256 255
3 242 255 257
3 242 257 243
3 243 257 258
3 243 258 244
3 244 258 259
3 244 259 245
3 245 259 260
3 245 260 246
3 246 260 261
3 246 261 247
3 248 247 261
3 262 249 248
3 261 262 248
3 263 250 249
3 262 263 249
3 264 251 250
3 263 264 250
3 265 252 251
3 264 265 251
3 266 253 252
3 265 266 252
3 267 254 253
3 266 267 253
3 255 268 257
3 256 269 255
3 255 269 268
3 257 268 270
3 257 270 258
3 258 270 271
3 258 271 259
3 259 271 272
3 259 272 260
3 260 272 273
3 260 273 261
3 274 262 261
3 261 273 274
3 275 263 262
3 274 275 262
3 276 264 263
3 275 276 263
3 277 265 264
3 276 277 264
3 278 266 265
3 277 278 265
3 279 267 266
3 278 279 266
3 268 280 270
3 269 281 268
3 268 281 280
3 270 280 282
3 270 282 271
3 271 282 283
3 271 283 272
3 283 284 272
3 272 284 273
3 285 275 274
3 273 284 285
3 285 274 273
3 286 276 275
3 285 286 275
3 287 277 276
3 286 287 276
3 288 278 277
3 287 288 277
3 289 279 278
3 288 289 278
3 280 290 282
3 281 291 280
3 280 291 290
3 282 290 292
3 282 292 283
3 283 292 293
3 283 293 284
3 284 293 294
3 284 294 285
3 295 286 285
3 295 285 294
3 296 287 286
3 295 296 286
3 297 288 287
3 296 297 287
3 298 289 288
3 297 298 288
3 290 299 292
3 291 300 290
3 290 300 299
3 292 299 301
3 292 301 293
3 293 301 302
3 293 302 294
3 294 302 295
3 303 296 295
3 303 295 302
3 304 297 296
3 303 304 296
3 305 298 297
3 304 305 297
3 299 306 301
3 300 307 299
3 299 307 306
3 301 306 308
3 301 308 302
3 309 303 302
3 302 308 309
3 310 304 303
3 309 310 303
3 311 305 304
3 310 311 304
3 306 312 308
3 307 313 306
3 306 313 312
3 314 310 309
3 308 312 314
3 314 309 308
3 315 311 310
3 314 315 310
3 312 316 314
3 313 317 312
3 312 317 316
3 318 315 314
3 318 314 316
3 317 319 316
3 319 318 316
CELL_TYPES 578
5
5
5
5
5
5
5
5
5
5
5
5
5
5
5
5
5
5
5
5
5
5
5
5
5
5
5
5
5
5
5
5
5
5
5
5
5
5
5
5
5
5
5
5
5
5
5
5
5
5
5
5
5
5
5
5
5
5
5
5
5
5
5
5
5
5
5
5
5
5
5
5
5
5
5
5
5
5
5
5
5
5
5
5
5
5
5
5
5
5
5
5
5
5
5
5
5
5
5
5
5
5
5
5
5
5
5
5
5
5
5
5
5
5
5
5
5
5
5
5
5
5
5
5
5
5
5
5
5
5
5
5
5
5
5
5
5
5
5
5
5
5
5
5
5
5
5
5
5
5
5
5
5
5
5
5
5
5
5
5
5
5
5
5
5
5
5
5
5
5
5
5
5
5
5
5
5
5
5
5
5
5
5
5
5
5
5
5
5
5
5
5
5
5
5
5
5
5
5
5
5
5
5
5
5
5
5
5
5
5
5
5
5
5
5
5
5
5
5
5
5
5
5
5
5
5
5
5
5
5
5
5
5
5
5
5
5
5
5
5
5
5
5
5
5
5
5
5
5
5
5
5
5
5
5
5
5
5
5
5
5
5
5
5
5
5
5
5
5
5
5
5
5
5
5
5
5
5
5
5
5
5
5
5
5
5
5
5
5
5
5
5
5
5
5
5
5
5
5
5
5
5
5
5
5
5
5
5
5
5
5
5
5
5
5
5
5
5
5
5
5
5
5
5
5
5
5
5
5
5
5
5
5
5
5
5
5
5
5
5
5
5
5
5
5
5
5
5
5
5
5
5
5
5
5
5
5
5
5
5
5
5
5
5
5
5
5
5
5
5
5
5
5
5
5
5
5
5
5
5
5
5
5
5
5
5
5
5
5
5
5
5
5
5
5
5
5
5
5
5
5
5
5
5
5
5
5
5
5
5
5
5
5
5
5
5
5
5
5
5
5
5
5
5
5
5
5
5
5
5
5
5
5
5
5
5
5
5
5
5
5
5
5
5
5
5
5
5
5
5
5
5
5
5
5
5
5
5
5
5
5
5
5
5
5
5
5
5
5
5
5
5
5
5
5
5
5
5
5
5
5
5
5
5
5
5
5
5
5
5
5
5
5
5
5
5
5
5
5
5
5
5
5
5
5
5
5
5
5
5
5
5
5
5
5
5
5
5
5
5
5
5
5
5
5
5
5
5
5
5
5
5
5
5
5
5
5
5
5
5
5
5
5
5
5
5
5
5
5
5
5
5
5
5
5
5
5
5
5
5
5
5
5
5
5
5
5
5
5
5
5
5
5
5
5
5
5
5
POINT_DATA 320
SCALARS theta_e float 1
LOOKUP_TABLE default
1.000001
1.000001
1.000001
1.000001
1.000001
1.000001
1.000001
1.000001
1.000001
1.000001
1.000001
1.000001
1.000001
1.000001
1.000001
1.000001
1.000001
1.000001
1.000001
1.000001
1.000001
1.000001
1.000001
1.000001
1.000001
1.000001
1.000001
1.000001
1.000001
1.000001
1.000001
1.000001
1.000001
1.000001
1.000001
1.000001
1.000001
1.000001
1.000001
1.000001
1.000001
1.000001
1.000001
1.000001
1.000001
1.000001
1.000001
1.000001
1.000001
1.000001
1.000001
1.000001
1.000001
1.000001
1.000001
1.000001
1.000001
1.000001
1.000001
1.000001
1.000001
1.000001
1.000001
1.000001
1.000001
1.000001
1.000001
1.000001
1.000001
1.000001
1.000001
1.000001
1.000001
1.000001
1.000001
1.000001
1.000001
1.000001
1.000001
1.000001
1.000001
1.000001
1.000001
1.000001
1.000001
1.000001
1.000001
1.000001
1.000001
1.000001
1.000001
1.000001
1.000001
1.000001
1.000001
1.000001
1.000001
1.000001
1.000001
1.000001
1.000000
1.000000
1.000001
1.000001
1.000001
1.000001
1.000001
1.000001
1.000001
1.000001
1.000001
1.000001
1.000001
1.000001
1.000001
1.000001
1.000001
1.000001
1.000001
1.000001
1.000001
1.000001
1.000001
1.000001
0.999997
1.000001
0.999999
1.000001
1.000001
1.000001
1.000001
1.000001
1.000001
1.000001
1.000001
1.000001
1.000001
1.000001
1.000001
1.000001
1.000001
1.000001
1.000001
1.000001
1.000001
1.000001
1.000001
1.000001
1.000001
0.999996
0.999984
0.999989
0.999997
1.000001
0.999998
1.000001
1.000001
1.000001
1.000001
1.000001
1.000001
1.000001
1.000001
1.000001
1.000001
1.000001
1.000001
1.000001
1.000001
1.000001
1.000001
0.999999
1.000001
0.999978
0.999988
0.999978
0.999986
0.999995
1.000001
1.000001
1.000001
1.000001
1.000001
1.000001
1.000001
1.000001
1.000001
1.000001
1.000001
1.000001
1.000001
1.000001
1.000001
0.999997
0.999978
0.999984
0.999978
0.999986
0.999999
1.000001
1.000001
1.000001
1.000001
1.000001
1.000001
1.000001
1.000001
1.000001
1.000001
1.000001
1.000001
1.000001
1.000001
0.999996
0.999984
0.999988
0.999995
1.000001
1.000001
1.000001
1.000001
1.000001
1.000001
1.000001
1.000001
1.000001
1.000001
1.000001
1.000001
1.000001
1.000001
0.999999
0.999997
1.000001
1.000001
1.000001
1.000001
1.000001
1.000001
1.000001
1.000001
1.000001
1.000001
1.000001
1.000001
1.000001
1.000001
1.000001
1.000001
1.000001
1.000001
1.000001
1.000001
1.000001
1.000001
1.000001
1.000001
1.000001
1.000001
1.000001
1.000001
1.000001
1.000001
1.000001
1.000001
1.000001
1.000001
1.000001
1.000001
1.000001
1.000001
1.000001
1.000001
1.000001
1.000001
1.000001
1.000001
1.000001
1.000001
1.000001
1.000001
1.000001
1.000001
1.000001
1.000001
1.000001
1.000001
1.000001
1.000001
1.000001
1.000001
1.000001
1.000001
1.000001
1.000001
1.000001
1.000001
1.000001
1.000001
1.000001
1.000001
1.000001
1.000001
1.000001
1.000001
1.000001
1.000001
1.000001
1.000001
1.000001
1.000001
1.000001
1.000001
1.000001
1.000001
1.000001
1.000001
1.000001
1.000001
1.000001
VECTORS fa_u float
0.000000 0.000000 0.000000
0.000000 0.000000 0.000000
0.000000 0.000000 0.000000
0.000000 0.000000 0.000000
0.000000 0.000000 0.000000
0.000000 0.000000 0.000000
0.000000 0.000000 0.000000
0.000000 0.000000 0.000000
0.000000 0.000000 0.000000
0.000000 0.000000 0.000000
0.000000 0.000000 0.000000
0.000000 0.000000 0.000000
0.000000 0.000000 0.000000
0.000000 0.000000 0.000000
0.000000 0.000000 0.000000
0.000000 0.000000 0.000000
0.000000 0.000000 0.000000
0.000000 0.000000 0.000000
0.000000 0.000000 0.000000
0.000000 0.000000 0.000000
0.000000 0.000000 0.000000
0.000000 0.000000 0.000000
0.000000 0.000000 0.000000
0.000000 0.000000 0.000000
0.000000 0.000000 0.000000
0.000000 0.000000 0.000000
0.000000 0.000000 0.000000
0.000000 0.000000 0.000000
0.000000 0.000000 0.000000
0.000000 0.000000 0.000000
0.000000 0.000000 0.000000
0.000000 0.000000 0.000000
0.000000 0.000000 0.000000
0.000000 0.000000 0.000000
0.000000 0.000000 0.000000
0.000000 0.000000 0.000000
0.000000 0.000000 0.000000
0.000000 0.000000 0.000000
0.000000 0.000000 0.000000
0.000000 0.000000 0.000000
0.000000 0.000000 0.000000
0.000000 0.000000 0.000000
0.000000 0.000000 0.000000
0.000000 0.000000 0.000000
0.000000 0.000000 0.000000
0.000000 0.000000 0.000000
0.000000 0.000000 0.000000
0.000000 0.000000 0.000000
0.000000 0.000000 0.000000
0.000000 0.000000 0.000000
0.000000 0.000000 0.000000
0.000000 0.000000 0.000000
0.000000 0.000000 0.000000
0.000000 0.000000 0.000000
0.000000 0.000000 0.000000
0.000000 0.000000 0.000000
0.000000 0.000000 0.000000
0.000000 0.000000 0.000000
0.000000 0.000000 0.000000
0.000000 0.000000 0.000000
0.000000 0.000000 0.000000
0.000000 0.000000 0.000000
0.000000 0.000000 0.000000
0.000000 0.000000 0.000000
0.000000 0.000000 0.000000
0.000000 0.000000 0.000000
0.000000 0.000000 0.000000
0.000000 0.000000 0.000000
0.000000 0.000000 0.000000
0.000000 0.000000 0.000000
0.000000 0.000000 0.000000
0.000000 0.000000 0.000000
0.000000 0.000000 0.000000
0.000000 0.000000 0.000000
0.000000 0.000000 0.000000
0.000000 0.000000 0.000000
0.000000 0.000000 0.000000
0.000000 0.000000 0.000000
0.000000 0.000000 0.000000
0.000000 0.000000 0.000000
0.000000 0.000000 0.000000
0.000000 0.000000 0.000000
0.000000 0.000000 0.000000
0.000000 0.000000 0.000000
0.000000 0.000000 0.000000
0.000000 0.000000 0.000000
0.000000 0.000000 0.000000
0.000000 0.000000 0.000000
0.000000 0.000000 0.000000
0.000000 0.000000 0.000000
0.000000 0.000000 0.000000
0.000000 0.000000 0.000000
0.000000 0.000000 0.000000
0.000000 0.000000 0.000000
0.000000 0.000000 0.000000
0.000000 0.000000 0.000000
0.000000 0.000000 0.000000
0.000000 0.000000 0.000000
0.000000 0.000000 0.000000
0.000000 0.000000 0.000000
0.000000 0.000000 0.000000
0.000000 0.000000 0.000000
0.000000 0.000000 0.000000
0.000000 0.000000 0.000000
0.000000 0.000000 0.000000
0.000000 0.000000 0.000000
0.000000 0.000000 0.000000
0.000000 0.000000 0.000000
0.000000 0.000000 0.000000
0.000000 0.000000 0.000000
0.000000 0.000000 0.000000
0.000000 0.000000 0.000000
0.000000 0.000000 0.000000
0.000000 0.000000 0.000000
0.000000 0.000000 0.000000
0.000000 0.000000 0.000000
0.000000 0.000000 0.000000
0.000000 0.000000 0.000000
0.000000 0.000000 0.000000
0.000000 0.000000 0.000000
0.000000 0.000000 0.000000
0.000000 0.000000 0.000000
0.000000 0.000000 0.000000
0.000000 0.000000 0.000000
0.000000 0.000000 0.000000
0.000000 0.000000 0.000000
0.000000 0.000000 0.000000
0.000000 0.000000 0.000000
0.000000 0.000000 0.000000
0.000000 0.000000 0.000000
0.000000 0.000000 0.000000
0.000000 0.000000 0.000000
0.000000 0.000000 0.000000
0.000000 0.000000 0.000000
0.000000 0.000000 0.000000
0.000000 0.000000 0.000000
0.000000 0.000000 0.000000
0.000000 0.000000 0.000000
0.000000 0.000000 0.000000
0.000000 0.000000 0.000000
0.000000 0.000000 0.000000
0.000000 0.000000 0.000000
0.000000 0.000000 0.000000
0.000000 0.000000 0.000000
0.000000 0.000000 0.000000
0.000000 0.000000 0.000000
0.000000 0.000000 0.000000
0.000000 0.000000 0.000000
0.000000 0.000000 0.000000
0.000000 0.000000 0.000000
0.000000 0.000000 0.000000
0.000000 0.000000 0.000000
0.000000 0.000000 0.000000
0.000000 0.000000 0.000000
0.000000 0.000000 0.000000
0.000000 0.000000 0.000000
0.000000 0.000000 0.000000
0.000000 0.000000 0.000000
0.000000 0.000000 0.000000
0.000000 0.000000 0.000000
0.000000 0.000000 0.000000
0.000000 0.000000 0.000000
0.000000 0.000000 0.000000
0.000000 0.000000 0.000000
0.000000 0.000000 0.000000
0.000000 0.000000 0.000000
0.000000 0.000000 0.000000
0.000000 0.000000 0.000000
0.000000 0.000000 0.000000
0.000000 0.000000 0.000000
0.000000 0.000000 0.000000
0.000000 0.000000 0.000000
0.000000 0.000000 0.000000
0.000000 0.000000 0.000000
0.000000 0.000000 0.000000
0.000000 0.000000 0.000000
0.000000 0.000000 0.000000
0.000000 0.000000 0.000000
0.000000 0.000000 0.000000
0.000000 0.000000 0.000000
0.000000 0.000000 0.000000
0.000000 0.000000 0.000000
0.000000 0.000000 0.000000
0.000000 0.000000 0.000000
0.000000 0.000000 0.000000
0.000000 0.000000 0.000000
0.000000 0.000000 0.000000
0.000000 0.000000 0.000000
0.000000 0.000000 0.000000
0.000000 0.000000 0.000000
0.000000 0.000000 0.000000
0.000000 0.000000 0.000000
0.000000 0.000000 0.000000
0.000000 0.000000 0.000000
0.000000 0.000000 0.000000
0.000000 0.000000 0.000000
0.000000 0.000000 0.000000
0.000000 0.000000 0.000000
0.000000 0.000000 0.000000
0.000000 0.000000 0.000000
0.000000 0.000000 0.000000
0.000000 0.000000 0.000000
0.000000 0.000000 0.000000
0.000000 0.000000 0.000000
0.000000 0.000000 0.000000
0.000000 0.000000 0.000000
0.000000 0.000000 0.000000
0.000000 0.000000 0.000000
0.000000 0.000000 0.000000
0.000000 0.000000 0.000000
0.000000 0.000000 0.000000
0.000000 0.000000 0.000000
0.000000 0.000000 0.000000
0.000000 0.000000 0.000000
0.000000 0.000000 0.000000
0.000000 0.000000 0.000000
0.000000 0.000000 0.000000
0.000000 0.000000 0.000000
0.000000 0.000000 0.000000
0.000000 0.000000 0.000000
0.000000 0.000000 0.000000
0.000000 0.000000 0.000000
0.000000 0.000000 0.000000
0.000000 0.000000 0.000000
0.000000 0.000000 0.000000
0.000000 0.000000 0.000000
0.000000 0.000000 0.000000
0.000000 0.000000 0.000000
0.000000 0.000000 0.000000
0.000000 0.000000 0.000000
0.000000 0.000000 0.000000
0.000000 0.000000 0.000000
0.000000 0.000000 0.000000
0.000000 0.000000 0.000000
0.000000 0.000000 0.000000
0.000000 0.000000 0.000000
0.000000 0.000000 0.000000
0.000000 0.000000 0.000000
0.000000 0.000000 0.000000
0.000000 0.000000 0.000000
0.000000 0.000000 0.000000
0.000000 0.000000 0.000000
0.000000 0.000000 0.000000
0.000000 0.000000 0.000000
0.000000 0.000000 0.000000
0.000000 0.000000 0.000000
0.000000 0.000000 0.000000
0.000000 0.000000 0.000000
0.000000 0.000000 0.000000
0.000000 0.000000 0.000000
0.000000 0.000000 0.000000
0.000000 0.000000 0.000000
0.000000 0.000000 0.000000
0.000000 0.000000 0.000000
0.000000 0.000000 0.000000
0.000000 0.000000 0.000000
0.000000 0.000000 0.000000
0.000000 0.000000 0.000000
0.000000 0.000000 0.000000
0.000000 0.000000 0.000000
0.000000 0.000000 0.000000
0.000000 0.000000 0.000000
0.000000 0.000000 0.000000
0.000000 0.000000 0.000000
0.000000 0.000000 0.000000
0.000000 0.000000 0.000000
0.000000 0.000000 0.000000
0.000000 0.000000 0.000000
0.000000 0.000000 0.000000
0.000000 0.000000 0.000000
0.000000 0.000000 0.000000
0.000000 0.000000 0.000000
0.000000 0.000000 0.000000
0.000000 0.000000 0.000000
0.000000 0.000000 0.000000
0.000000 0.000000 0.000000
0.000000 0.000000 0.000000
0.000000 0.000000 0.000000
0.000000 0.000000 0.000000
0.000000 0.000000 0.000000
0.000000 0.000000 0.000000
0.000000 0.000000 0.000000
0.000000 0.000000 0.000000
0.000000 0.000000 0.000000
0.000000 0.000000 0.000000
0.000000 0.000000 0.000000
0.000000 0.000000 0.000000
0.000000 0.000000 0.000000
0.000000 0.000000 0.000000
0.000000 0.000000 0.000000
0.000000 0.000000 0.000000
0.000000 0.000000 0.000000
0.000000 0.000000 0.000000
0.000000 0.000000 0.000000
0.000000 0.000000 0.000000
0.000000 0.000000 0.000000
0.000000 0.000000 -50.000000
-50.000000 0.000000 -50.000000
-43.333226 0.000000 -45.688301
-45.491073 0.000000 -43.333207
-50.000000 0.000000 -50.000000
-36.666446 0.000000 -36.666444
-50.000000 0.000000 -45.081028
-39.969733 0.000000 -40.027057
-44.152196 0.000000 -29.999672
-50.000000 0.000000 -50.000000
-29.999675 0.000000 -44.846997
-33.448870 0.000000 -33.144817
-44.675599 0.000000 -39.869014
-36.786932 0.000000 -35.128524
-39.801197 0.000000 -23.332943
-50.000000 0.000000 -26.539053
-44.666700 0.000000 -50.000000
-23.332950 0.000000 -44.665236
-26.803860 0.000000 -39.364158
-30.225613 0.000000 -29.606126
-39.359277 0.000000 -33.368082
-33.655344 0.000000 -50.000000
-16.666294 0.000000 -16.666294
-50.000000 0.000000 -9.999731
