# vtk DataFile Version 2.0
CellBP Time: 2.4
ASCII
DATASET UNSTRUCTURED_GRID
POINTS 320 double
-50.000000 -50.000000 0.000000
-50.000000 -43.333094 0.000000
-45.688348 -45.491114 0.000000
-43.333055 -50.000000 0.000000
-50.000000 -36.666172 0.000000
-36.666176 -50.000000 0.000000
-45.081080 -39.969763 0.000000
-40.027131 -44.152239 0.000000
-29.999275 -50.000000 0.000000
-50.000000 -29.999270 0.000000
-44.847049 -33.448896 0.000000
-33.144874 -44.675647 0.000000
-39.869079 -36.786965 0.000000
-35.128601 -39.801256 0.000000
-23.332469 -50.000000 0.000000
-26.539113 -44.666725 0.000000
-50.000000 -23.332473 0.000000
-44.665260 -26.803894 0.000000
-39.364208 -30.225650 0.000000
-29.606211 -39.359326 0.000000
-33.368172 -33.655402 0.000000
-50.000000 -16.665832 0.000000
-16.665846 -50.000000 0.000000
-9.999412 -50.000000 0.000000
-19.964838 -44.588777 0.000000
-23.215848 -39.114679 0.000000
-44.691897 -20.096881 0.000000
-39.367843 -23.528137 0.000000
-34.106098 -26.936992 0.000000
-26.384356 -33.577203 0.000000
-29.156138 -28.926575 0.000000
-50.000000 -9.999330 0.000000
-44.666369 -13.410155 0.000000
-50.000000 -3.333006 0.000000
-3.333135 -50.000000 0.000000
3.333099 -50.000000 0.000000
-13.343593 -44.599057 0.000000
-6.684680 -44.610744 0.000000
-16.693668 -39.153324 0.000000
-20.106956 -33.342682 0.000000
-39.338187 -16.804782 0.000000
-34.018657 -20.274689 0.000000
-28.780868 -23.449022 0.000000
-23.510454 -27.350181 0.000000
-44.635487 -6.705563 0.000000
-39.293086 -10.101841 0.000000
-50.000000 3.333221 0.000000
-44.626805 -0.015647 0.000000
9.999408 -50.000000 0.000000
16.665864 -50.000000 0.000000
-0.016088 -44.618812 0.000000
6.651618 -44.635481 0.000000
-10.044672 -39.222621 0.000000
-3.368207 -39.220436 0.000000
-13.484260 -33.798779 0.000000
-16.709619 -28.271464 0.000000
-33.948091 -13.514138 0.000000
-28.601717 -16.892435 0.000000
-23.291497 -20.312973 0.000000
-18.660320 -23.282790 0.000000
-39.267573 -3.392857 0.000000
-33.904582 -6.796771 0.000000
-50.000000 9.999476 0.000000
-44.606820 6.673364 0.000000
-39.260993 3.325650 0.000000
-50.000000 16.665889 0.000000
23.332474 -50.000000 0.000000
29.999241 -50.000000 0.000000
13.317406 -44.662986 0.000000
19.989531 -44.700119 0.000000
3.307690 -39.245170 0.000000
9.971805 -39.290315 0.000000
-6.735272 -33.791394 0.000000
-0.032288 -33.829645 0.000000
-10.095930 -28.293466 0.000000
-13.122786 -22.898181 0.000000
-28.532617 -10.215007 0.000000
-23.066748 -13.663333 0.000000
-16.977365 -17.209431 0.000000
-33.884788 -0.065436 0.000000
-28.563248 -3.578946 0.000000
-44.564162 13.380397 0.000000
-39.190136 10.015029 0.000000
-33.905826 6.616025 0.000000
-50.000000 23.332444 0.000000
-44.557684 20.138128 0.000000
-50.000000 29.999281 0.000000
36.666126 -50.000000 0.000000
43.333051 -50.000000 0.000000
26.663156 -44.745287 0.000000
33.315232 -44.875924 0.000000
16.631656 -39.357701 0.000000
23.328219 -39.437075 0.000000
6.642846 -33.879533 0.000000
13.290774 -33.965475 0.000000
-3.345641 -28.363003 0.000000
3.357216 -28.451313 0.000000
-6.626012 -22.846080 0.000000
-9.969607 -17.314949 0.000000
-23.184669 -7.014829 0.000000
-17.810962 -10.334938 0.000000
-12.837523 -12.592630 0.000000
-28.607557 3.088542 0.000000
-23.265113 -0.468426 0.000000
-39.038981 16.746471 0.000000
-28.721218 9.926395 0.000000
-33.761597 13.318435 0.000000
-44.521683 26.716856 0.000000
-38.467740 23.892506 0.000000
-44.632244 33.085495 0.000000
-50.000000 36.666265 0.000000
-50.000000 43.333120 0.000000
39.922327 -45.069549 0.000000
45.474641 -45.660408 0.000000
50.000000 -50.000000 0.000000
36.626741 -39.981917 0.000000
30.012297 -39.458570 0.000000
19.904213 -34.092765 0.000000
26.585008 -34.319440 0.000000
9.988811 -28.513457 0.000000
16.610962 -28.659923 0.000000
0.051938 -22.959748 0.000000
6.812246 -23.157941 0.000000
-3.400535 -17.297373 0.000000
-6.855991 -11.004568 0.000000
-17.877799 -3.826365 0.000000
-12.553442 -7.035968 0.000000
-23.310309 6.073015 0.000000
-18.037309 2.452722 0.000000
-23.122254 12.095762 0.000000
-33.572102 19.788949 0.000000
-27.941334 16.885525 0.000000
-33.292788 24.722673 0.000000
-39.473470 30.052723 0.000000
-35.160220 28.137451 0.000000
-39.815885 35.101341 0.000000
-43.991629 39.982135 0.000000
-45.430986 45.685114 0.000000
-50.000000 50.000000 0.000000
44.117200 -39.898936 0.000000
50.000000 -43.332945 0.000000
39.639378 -35.047344 0.000000
33.462853 -33.424485 0.000000
22.984874 -28.817891 0.000000
28.730953 -29.247734 0.000000
13.460799 -23.121786 0.000000
20.054862 -23.438866 0.000000
3.384962 -17.587481 0.000000
10.126698 -17.840556 0.000000
0.146518 -11.974402 0.000000
-2.149008 -6.248120 0.000000
-7.366512 -3.682273 0.000000
-12.599486 -0.803689 0.000000
-18.164066 8.573326 0.000000
-12.961150 5.197039 0.000000
-18.639028 13.752038 0.000000
-21.504514 17.495017 0.000000
-28.940689 23.158440 0.000000
-24.346222 21.554705 0.000000
-30.323447 28.634782 0.000000
-34.253345 33.375511 0.000000
-36.955871 39.578048 0.000000
-39.838645 45.102719 0.000000
-43.333031 50.000000 0.000000
44.585198 -32.971995 0.000000
50.000000 -36.666005 0.000000
39.129281 -29.581761 0.000000
33.500564 -26.367601 0.000000
27.182792 -23.322083 0.000000
23.065974 -18.647752 0.000000
16.989799 -16.979981 0.000000
6.710396 -12.212799 0.000000
12.355676 -12.733338 0.000000
-3.381921 -1.492794 0.000000
3.914565 -6.984588 0.000000
1.021868 -2.120765 0.000000
-6.988299 2.318738 0.000000
-8.406397 7.802969 0.000000
-12.845759 11.932308 0.000000
-15.692481 17.700305 0.000000
-19.287193 22.982737 0.000000
-24.170938 27.354871 0.000000
-27.286278 33.626075 0.000000
-30.406600 39.161245 0.000000
-33.447738 44.738857 0.000000
-36.666082 50.000000 0.000000
44.547722 -26.499797 0.000000
50.000000 -29.999081 0.000000
39.040029 -23.179213 0.000000
33.449779 -19.899936 0.000000
28.040082 -16.574240 0.000000
22.683070 -13.124144 0.000000
17.176535 -9.908376 0.000000
10.914843 -6.636299 0.000000
-1.352710 2.308734 0.000000
6.207484 -1.735712 0.000000
2.905286 1.599504 0.000000
-3.528703 7.153515 0.000000
-6.312522 12.442841 0.000000
-9.629349 17.703121 0.000000
-13.166899 23.112607 0.000000
-17.316527 28.185223 0.000000
-20.570604 33.474441 0.000000
-23.665834 39.064023 0.000000
-26.830793 44.585381 0.000000
-29.999235 50.000000 0.000000
44.528719 -19.930519 0.000000
50.000000 -23.332289 0.000000
39.036368 -16.594025 0.000000
33.576314 -13.281170 0.000000
28.150605 -9.964845 0.000000
22.725823 -6.604445 0.000000
17.264364 -3.336826 0.000000
11.981138 0.195652 0.000000
1.926720 6.278885 0.000000
7.000480 3.820164 0.000000
-0.214999 11.944763 0.000000
-3.266256 17.529889 0.000000
-6.700714 22.977931 0.000000
-10.567827 28.267550 0.000000
-13.723878 33.661493 0.000000
-16.945566 39.080409 0.000000
-20.140431 44.548478 0.000000
-23.332491 50.000000 0.000000
44.536323 -13.303627 0.000000
50.000000 -16.665692 0.000000
39.079957 -9.966624 0.000000
33.646789 -6.640952 0.000000
28.236036 -3.307427 0.000000
22.846571 0.018255 0.000000
17.534492 3.358756 0.000000
12.210033 6.596078 0.000000
6.715761 10.831331 0.000000
3.301406 17.195873 0.000000
-0.081425 22.851505 0.000000
-3.518461 28.312617 0.000000
-6.831241 33.774348 0.000000
-10.137269 39.170569 0.000000
-13.435590 44.563585 0.000000
-16.665908 50.000000 0.000000
44.554393 -6.654680 0.000000
50.000000 -9.999311 0.000000
39.123426 -3.321294 0.000000
33.713420 0.008781 0.000000
28.333187 3.344063 0.000000
23.001618 6.693747 0.000000
17.832514 10.022865 0.000000
12.655340 12.228700 0.000000
9.790238 17.234699 0.000000
6.477836 22.722363 0.000000
3.188692 28.269540 0.000000
-0.115881 33.734703 0.000000
-3.425132 39.168578 0.000000
-6.725337 44.581852 0.000000
-9.999473 50.000000 0.000000
44.575697 0.001920 0.000000
50.000000 -3.333099 0.000000
39.166859 3.331905 0.000000
33.779254 6.655574 0.000000
28.424140 9.995033 0.000000
23.046380 13.416489 0.000000
16.948368 17.022346 0.000000
12.901630 22.670396 0.000000
9.814726 28.232182 0.000000
6.604181 33.718715 0.000000
3.286551 39.164417 0.000000
-0.029853 44.584601 0.000000
-3.333157 50.000000 0.000000
44.586753 6.665489 0.000000
50.000000 3.333091 0.000000
39.198044 9.981919 0.000000
33.843371 13.277076 0.000000
28.541824 16.584824 0.000000
23.386717 20.084360 0.000000
18.531725 23.112186 0.000000
16.393272 28.298718 0.000000
13.328902 33.754775 0.000000
9.986523 39.181957 0.000000
6.665953 44.584382 0.000000
3.333119 50.000000 0.000000
44.608905 13.317863 0.000000
50.000000 9.999388 0.000000
39.251334 16.612413 0.000000
33.931827 19.862867 0.000000
28.612226 22.926001 0.000000
23.279598 27.207508 0.000000
19.901283 33.303110 0.000000
16.573732 39.040961 0.000000
13.268272 44.526781 0.000000
9.999415 50.000000 0.000000
44.632072 19.972904 0.000000
50.000000 16.665849 0.000000
39.298464 23.262091 0.000000
34.043746 26.514698 0.000000
28.965705 28.539450 0.000000
26.202323 33.410111 0.000000
23.066666 38.968834 0.000000
19.888502 44.507068 0.000000
16.665822 50.000000 0.000000
44.639785 26.642848 0.000000
50.000000 23.332466 0.000000
39.293329 29.966653 0.000000
33.212336 33.371240 0.000000
29.412061 39.045829 0.000000
26.422317 44.505963 0.000000
23.332413 50.000000 0.000000
44.774950 33.291746 0.000000
50.000000 29.999234 0.000000
39.738151 36.596272 0.000000
34.831003 39.525578 0.000000
32.833769 44.514255 0.000000
29.999175 50.000000 0.000000
44.978212 39.877821 0.000000
50.000000 36.666118 0.000000
39.734817 43.968990 0.000000
36.666065 50.000000 0.000000
45.621258 45.409762 0.000000
50.000000 43.333044 0.000000
43.332974 50.000000 0.000000
50.000000 50.000000 0.000000
CELLS 578 2312
3 1 0 2
3 0 3 2
3 4 1 6
3 6 1 2
3 3 5 7
3 3 7 2
3 6 2 7
3 9 4 10
3 10 4 6
3 5 8 11
3 7 5 11
3 10 6 12
3 12 6 7
3 7 11 13
3 7 13 12
3 8 14 15
3 11 8 15
3 16 9 17
3 17 9 10
3 17 10 18
3 18 10 12
3 11 15 19
3 13 11 19
3 18 12 20
3 13 19 20
3 20 12 13
3 14 22 24
3 15 14 24
3 15 24 25
3 19 15 25
3 21 16 26
3 26 16 17
3 26 17 27
3 27 17 18
3 27 18 28
3 28 18 20
3 19 25 29
3 19 29 20
3 28 20 30
3 30 20 29
3 31 21 32
3 32 21 26
3 22 23 36
3 24 22 36
3 23 34 37
3 36 23 37
3 24 36 38
3 25 24 38
3 25 38 39
3 29 25 39
3 32 26 40
3 40 26 27
3 40 27 41
3 41 27 28
3 41 28 42
3 42 28 30
3 29 39 43
3 29 43 30
3 42 30 43
3 33 31 44
3 44 31 32
3 44 32 45
3 45 32 40
3 46 33 47
3 47 33 44
3 34 35 50
3 37 34 50
3 35 48 51
3 50 35 51
3 36 37 52
3 38 36 52
3 37 50 53
3 52 37 53
3 38 52 54
3 39 38 54
3 39 54 55
3 43 39 55
3 45 40 56
3 56 40 41
3 56 41 57
3 57 41 42
3 57 42 58
3 58 42 43
3 43 55 59
3 43 59 58
3 47 44 60
3 60 44 45
3 60 45 61
3 61 45 56
3 62 46 63
3 63 46 47
3 63 47 64
3 64 47 60
3 48 49 68
3 51 48 68
3 49 66 69
3 68 49 69
3 50 51 70
3 53 50 70
3 51 68 71
3 70 51 71
3 52 53 72
3 54 52 72
3 53 70 73
3 72 53 73
3 54 72 74
3 55 54 74
3 55 74 75
3 59 55 75
3 61 56 76
3 76 56 57
3 76 57 77
3 77 57 58
3 77 58 78
3 59 75 78
3 78 58 59
3 64 60 79
3 79 60 61
3 79 61 80
3 80 61 76
3 65 62 81
3 81 62 63
3 81 63 82
3 82 63 64
3 82 64 83
3 83 64 79
3 84 65 85
3 85 65 81
3 66 67 89
3 69 66 89
3 67 87 90
3 89 67 90
3 68 69 91
3 71 68 91
3 69 89 92
3 91 69 92
3 70 71 93
3 73 70 93
3 71 91 94
3 93 71 94
3 72 73 95
3 74 72 95
3 73 93 96
3 95 73 96
3 74 95 97
3 75 74 97
3 75 97 98
3 78 75 98
3 80 76 99
3 99 76 77
3 99 77 100
3 100 77 78
3 100 78 101
3 98 101 78
3 83 79 102
3 102 79 80
3 102 80 103
3 103 80 99
3 85 81 104
3 104 81 82
3 105 83 102
3 104 82 106
3 106 82 83
3 106 83 105
3 86 84 107
3 107 84 85
3 107 85 108
3 108 85 104
3 109 86 107
3 110 86 109
3 87 88 112
3 90 87 112
3 112 88 113
3 88 114 113
3 90 112 115
3 89 90 116
3 92 89 116
3 116 90 115
3 91 92 117
3 94 91 117
3 92 116 118
3 117 92 118
3 93 94 119
3 96 93 119
3 94 117 120
3 119 94 120
3 95 96 121
3 97 95 121
3 96 119 122
3 121 96 122
3 97 121 123
3 98 97 123
3 98 123 124
3 98 124 101
3 103 99 125
3 125 99 100
3 125 100 126
3 126 100 101
3 126 101 124
3 105 102 127
3 127 102 103
3 127 103 128
3 128 103 125
3 129 105 127
3 108 104 130
3 130 104 106
3 130 106 131
3 131 106 105
3 131 105 129
3 108 130 132
3 109 107 133
3 133 107 108
3 133 108 134
3 108 132 134
3 135 109 133
3 111 110 136
3 136 110 109
3 136 109 135
3 137 111 136
3 138 111 137
3 112 113 139
3 115 112 139
3 114 140 113
3 140 139 113
3 139 141 115
3 116 115 142
3 118 116 142
3 142 115 141
3 117 118 143
3 120 117 143
3 118 142 144
3 143 118 144
3 119 120 145
3 122 119 145
3 120 143 146
3 145 120 146
3 121 122 147
3 123 121 147
3 122 145 148
3 147 122 148
3 123 147 149
3 124 123 149
3 124 149 150
3 151 126 124
3 124 150 151
3 128 125 152
3 152 125 126
3 152 126 151
3 129 127 153
3 153 127 128
3 128 152 154
3 153 128 154
3 155 129 153
3 131 129 156
3 156 129 155
3 132 130 157
3 130 131 157
3 157 131 158
3 131 156 158
3 132 157 159
3 132 159 134
3 135 133 160
3 160 133 134
3 160 134 159
3 136 135 161
3 135 160 161
3 162 137 136
3 161 162 136
3 163 138 137
3 162 163 137
3 139 164 141
3 140 165 139
3 139 165 164
3 141 164 166
3 141 166 142
3 166 167 142
3 144 142 167
3 167 168 144
3 143 144 168
3 146 143 168
3 168 169 146
3 145 146 170
3 148 145 170
3 170 146 169
3 147 148 171
3 149 147 171
3 148 170 172
3 171 148 172
3 173 151 150
3 149 171 174
3 150 149 174
3 150 174 175
3 150 175 173
3 154 152 176
3 152 151 176
3 176 151 173
3 154 176 177
3 155 153 178
3 177 178 154
3 154 178 153
3 156 155 179
3 155 178 179
3 180 158 156
3 179 180 156
3 181 159 157
3 180 181 158
3 181 157 158
3 182 160 159
3 181 182 159
3 183 161 160
3 182 183 160
3 184 162 161
3 184 161 183
3 185 163 162
3 184 185 162
3 164 186 166
3 165 187 164
3 164 187 186
3 166 186 188
3 166 188 167
3 167 188 189
3 167 189 168
3 168 189 190
3 168 190 169
3 169 190 191
3 169 191 170
3 192 172 170
3 170 191 192
3 192 193 172
3 171 172 193
3 174 171 193
3 194 173 175
3 176 173 194
3 175 174 195
3 193 195 174
3 195 196 175
3 175 196 194
3 197 177 176
3 194 197 176
3 198 178 177
3 197 198 177
3 199 179 178
3 198 199 178
3 200 180 179
3 199 200 179
3 201 181 180
3 200 201 180
3 202 182 181
3 201 202 181
3 203 183 182
3 202 203 182
3 204 184 183
3 203 204 183
3 205 185 184
3 204 205 184
3 186 206 188
3 187 207 186
3 186 207 206
3 188 206 208
3 188 208 189
3 189 208 209
3 189 209 190
3 190 209 210
3 190 210 191
3 191 210 211
3 191 211 192
3 192 211 212
3 192 212 193
3 193 212 213
3 193 213 195
3 214 197 194
3 214 194 196
3 195 213 215
3 195 215 196
3 196 215 214
3 216 198 197
3 214 216 197
3 217 199 198
3 216 217 198
3 218 200 199
3 217 218 199
3 219 201 200
3 218 219 200
3 220 202 201
3 219 220 201
3 221 203 202
3 220 221 202
3 222 204 203
3 221 222 203
3 223 205 204
3 222 223 204
3 206 224 208
3 207 225 206
3 206 225 224
3 208 224 226
3 208 226 209
3 209 226 227
3 209 227 210
3 210 227 228
3 210 228 211
3 211 228 229
3 211 229 212
3 212 229 230
3 212 230 213
3 213 230 231
3 213 231 215
3 232 216 214
3 215 231 232
3 232 214 215
3 233 217 216
3 232 233 216
3 234 218 217
3 233 234 217
3 235 219 218
3 234 235 218
3 236 220 219
3 235 236 219
3 237 221 220
3 236 237 220
3 238 222 221
3 237 238 221
3 239 223 222
3 238 239 222
3 224 240 226
3 225 241 224
3 224 241 240
3 226 240 242
3 226 242 227
3 227 242 243
3 227 243 228
3 228 243 244
3 228 244 229
3 244 245 229
3 229 245 230
3 230 245 246
3 230 246 231
3 231 246 247
3 231 247 232
3 248 233 232
3 248 232 247
3 249 234 233
3 248 249 233
3 250 235 234
3 249 250 234
3 251 236 235
3 250 251 235
3 252 237 236
3 251 252 236
3 253 238 237
3 252 253 237
3 254 239 238
3 253 254 238
3 240 255 242
3 241 256 240
3 240 256 255
3 242 255 257
3 242 257 243
3 243 257 258
3 243 258 244
3 244 258 259
3 244 259 245
3 245 259 260
3 245 260 246
3 246 260 261
3 246 261 247
3 248 247 261
3 262 249 248
3 261 262 248
3 263 250 249
3 262 263 249
3 264 251 250
3 263 264 250
3 265 252 251
3 264 265 251
3 266 253 252
3 265 266 252
3 267 254 253
3 266 267 253
3 255 268 257
3 256 269 255
3 255 269 268
3 257 268 270
3 257 270 258
3 258 270 271
3 258 271 259
3 259 271 272
3 259 272 260
3 260 272 273
3 260 273 261
3 274 262 261
3 261 273 274
3 275 263 262
3 274 275 262
3 276 264 263
3 275 276 263
3 277 265 264
3 276 277 264
3 278 266 265
3 277 278 265
3 279 267 266
3 278 279 266
3 268 280 270
3 269 281 268
3 268 281 280
3 270 280 282
3 270 282 271
3 271 282 283
3 271 283 272
3 283 284 272
3 272 284 273
3 285 275 274
3 273 284 285
3 285 274 273
3 286 276 275
3 285 286 275
3 287 277 276
3 286 287 276
3 288 278 277
3 287 288 277
3 289 279 278
3 288 289 278
3 280 290 282
3 281 291 280
3 280 291 290
3 282 290 292
3 282 292 283
3 283 292 293
3 283 293 284
3 284 293 294
3 284 294 285
3 295 286 285
3 295 285 294
3 296 287 286
3 295 296 286
3 297 288 287
3 296 297 287
3 298 289 288
3 297 298 288
3 290 299 292
3 291 300 290
3 290 300 299
3 292 299 301
3 292 301 293
3 293 301 302
3 293 302 294
3 294 302 295
3 303 296 295
3 303 295 302
3 304 297 296
3 303 304 296
3 305 298 297
3 304 305 297
3 299 306 301
3 300 307 299
3 299 307 306
3 301 306 308
3 301 308 302
3 309 303 302
3 302 308 309
3 310 304 303
3 309 310 303
3 311 305 304
3 310 311 304
3 306 312 308
3 307 313 306
3 306 313 312
3 314 310 309
3 308 312 314
3 314 309 308
3 315 311 310
3 314 315 310
3 312 316 314
3 313 317 312
3 312 317 316
3 318 315 314
3 318 314 316
3 317 319 316
3 319 318 316
CELL_TYPES 578
5
5
5
5
5
5
5
5
5
5
5
5
5
5
5
5
5
5
5
5
5
5
5
5
5
5
5
5
5
5
5
5
5
5
5
5
5
5
5
5
5
5
5
5
5
5
5
5
5
5
5
5
5
5
5
5
5
5
5
5
5
5
5
5
5
5
5
5
5
5
5
5
5
5
5
5
5
5
5
5
5
5
5
5
5
5
5
5
5
5
5
5
5
5
5
5
5
5
5
5
5
5
5
5
5
5
5
5
5
5
5
5
5
5
5
5
5
5
5
5
5
5
5
5
5
5
5
5
5
5
5
5
5
5
5
5
5
5
5
5
5
5
5
5
5
5
5
5
5
5
5
5
5
5
5
5
5
5
5
5
5
5
5
5
5
5
5
5
5
5
5
5
5
5
5
5
5
5
5
5
5
5
5
5
5
5
5
5
5
5
5
5
5
5
5
5
5
5
5
5
5
5
5
5
5
5
5
5
5
5
5
5
5
5
5
5
5
5
5
5
5
5
5
5
5
5
5
5
5
5
5
5
5
5
5
5
5
5
5
5
5
5
5
5
5
5
5
5
5
5
5
5
5
5
5
5
5
5
5
5
5
5
5
5
5
5
5
5
5
5
5
5
5
5
5
5
5
5
5
5
5
5
5
5
5
5
5
5
5
5
5
5
5
5
5
5
5
5
5
5
5
5
5
5
5
5
5
5
5
5
5
5
5
5
5
5
5
5
5
5
5
5
5
5
5
5
5
5
5
5
5
5
5
5
5
5
5
5
5
5
5
5
5
5
5
5
5
5
5
5
5
5
5
5
5
5
5
5
5
5
5
5
5
5
5
5
5
5
5
5
5
5
5
5
5
5
5
5
5
5
5
5
5
5
5
5
5
5
5
5
5
5
5
5
5
5
5
5
5
5
5
5
5
5
5
5
5
5
5
5
5
5
5
5
5
5
5
5
5
5
5
5
5
5
5
5
5
5
5
5
5
5
5
5
5
5
5
5
5
5
5
5
5
5
5
5
5
5
5
5
5
5
5
5
5
5
5
5
5
5
5
5
5
5
5
5
5
5
5
5
5
5
5
5
5
5
5
5
5
5
5
5
5
5
5
5
5
5
5
5
5
5
5
5
5
5
5
5
5
5
5
5
5
5
5
5
5
5
5
5
5
5
5
5
5
5
5
5
5
5
5
5
5
5
5
5
5
5
5
5
5
5
5
5
5
5
5
5
5
5
5
5
5
5
5
5
5
5
5
5
5
5
5
5
5
5
5
5
5
5
5
5
5
5
5
5
5
5
5
5
5
5
5
5
5
5
5
5
POINT_DATA 320
SCALARS theta_e float 1
LOOKUP_TABLE default
1.000000
1.000000
1.000000
1.000000
1.000000
1.000000
1.000000
1.000000
1.000000
1.000000
1.000000
1.000000
1.000000
1.000000
1.000000
1.000000
1.000001
1.000001
1.000000
1.000000
1.000000
1.000001
1.000000
1.000000
1.000000
1.000000
1.000001
1.000001
1.000001
1.000000
1.000001
1.000001
1.000001
1.000001
1.000000
1.000000
1.000000
1.000000
1.000000
1.000000
1.000001
1.000001
1.000001
1.000001
1.000001
1.000001
1.000001
1.000001
1.000000
1.000000
1.000000
1.000000
1.000000
1.000000
1.000000
1.000001
1.000001
1.000001
1.000001
1.000001
1.000001
1.000001
1.000001
1.000001
1.000001
1.000001
1.000001
1.000001
1.000000
1.000001
1.000000
1.000000
1.000000
1.000000
1.000000
1.000001
1.000001
1.000001
1.000001
1.000001
1.000001
1.000001
1.000001
1.000001
1.000001
1.000001
1.000001
1.000001
1.000001
1.000001
1.000001
1.000001
1.000001
1.000000
1.000000
1.000000
1.000000
1.000000
1.000001
1.000001
1.000001
1.000000
1.000001
1.000001
1.000001
1.000001
1.000001
1.000001
1.000001
1.000001
1.000001
1.000001
1.000001
1.000001
1.000001
1.000001
1.000001
1.000001
1.000001
1.000000
1.000001
1.000000
1.000000
1.000000
0.999997
1.000001
0.999999
1.000001
1.000001
1.000001
1.000001
1.000001
1.000001
1.000001
1.000001
1.000001
1.000001
1.000001
1.000001
1.000001
1.000001
1.000001
1.000001
1.000001
1.000001
1.000000
1.000001
1.000000
1.000000
0.999996
0.999985
0.999990
0.999997
1.000001
0.999999
1.000001
1.000001
1.000001
1.000001
1.000001
1.000001
1.000001
1.000001
1.000001
1.000001
1.000001
1.000001
1.000001
1.000001
1.000001
1.000001
0.999999
1.000000
0.999979
0.999989
0.999979
0.999987
0.999996
1.000001
1.000001
1.000001
1.000001
1.000001
1.000001
1.000001
1.000001
1.000001
1.000001
1.000001
1.000001
1.000001
1.000001
1.000001
0.999997
0.999979
0.999985
0.999979
0.999987
0.999999
1.000001
1.000001
1.000001
1.000001
1.000001
1.000000
1.000000
1.000001
1.000001
1.000001
1.000001
1.000001
1.000001
1.000001
0.999996
0.999985
0.999989
0.999996
1.000001
1.000001
1.000001
1.000001
1.000001
1.000000
1.000000
1.000001
1.000001
1.000001
1.000001
1.000001
1.000001
1.000001
0.999999
0.999997
1.000001
1.000001
1.000001
1.000001
1.000001
1.000001
1.000000
1.000001
1.000001
1.000001
1.000001
1.000001
1.000001
1.000001
1.000001
1.000001
1.000001
1.000001
1.000001
1.000001
1.000001
1.000000
1.000001
1.000001
1.000001
1.000001
1.000001
1.000001
1.000001
1.000001
1.000001
1.000001
1.000001
1.000001
1.000001
1.000001
1.000001
1.000001
1.000001
1.000001
1.000001
1.000001
1.000001
1.000001
1.000001
1.000001
1.000001
1.000001
1.000001
1.000001
1.000001
1.000001
1.000001
1.000001
1.000001
1.000001
1.000001
1.000001
1.000001
1.000001
1.000001
1.000001
1.000001
1.000001
1.000001
1.000001
1.000001
1.000001
1.000001
1.000001
1.000001
1.000001
1.000001
1.000001
1.000001
1.000001
1.000001
1.000001
1.000001
1.000001
1.000001
1.000001
1.000001
1.000001
1.000001
1.000001
1.000001
VECTORS fa_u float
0.000000 0.000000 0.000000
0.000000 0.000000 0.000000
0.000000 0.000000 0.000000
0.000000 0.000000 0.000000
0.000000 0.000000 0.000000
0.000000 0.000000 0.000000
0.000000 0.000000 0.000000
0.000000 0.000000 0.000000
0.000000 0.000000 0.000000
0.000000 0.000000 0.000000
0.000000 0.000000 0.000000
0.000000 0.000000 0.000000
0.000000 0.000000 0.000000
0.000000 0.000000 0.000000
0.000000 0.000000 0.000000
0.000000 0.000000 0.000000
0.000000 0.000000 0.000000
0.000000 0.000000 0.000000
0.000000 0.000000 0.000000
0.000000 0.000000 0.000000
0.000000 0.000000 0.000000
0.000000 0.000000 0.000000
0.000000 0.000000 0.000000
0.000000 0.000000 0.000000
0.000000 0.000000 0.000000
0.000000 0.000000 0.000000
0.000000 0.000000 0.000000
0.000000 0.000000 0.000000
0.000000 0.000000 0.000000
0.000000 0.000000 0.000000
0.000000 0.000000 0.000000
0.000000 0.000000 0.000000
0.000000 0.000000 0.000000
0.000000 0.000000 0.000000
0.000000 0.000000 0.000000
0.000000 0.000000 0.000000
0.000000 0.000000 0.000000
0.000000 0.000000 0.000000
0.000000 0.000000 0.000000
0.000000 0.000000 0.000000
0.000000 0.000000 0.000000
0.000000 0.000000 0.000000
0.000000 0.000000 0.000000
0.000000 0.000000 0.000000
0.000000 0.000000 0.000000
0.000000 0.000000 0.000000
0.000000 0.000000 0.000000
0.000000 0.000000 0.000000
0.000000 0.000000 0.000000
0.000000 0.000000 0.000000
0.000000 0.000000 0.000000
0.000000 0.000000 0.000000
0.000000 0.000000 0.000000
0.000000 0.000000 0.000000
0.000000 0.000000 0.000000
0.000000 0.000000 0.000000
0.000000 0.000000 0.000000
0.000000 0.000000 0.000000
0.000000 0.000000 0.000000
0.000000 0.000000 0.000000
0.000000 0.000000 0.000000
0.000000 0.000000 0.000000
0.000000 0.000000 0.000000
0.000000 0.000000 0.000000
0.000000 0.000000 0.000000
0.000000 0.000000 0.000000
0.000000 0.000000 0.000000
0.000000 0.000000 0.000000
0.000000 0.000000 0.000000
0.000000 0.000000 0.000000
0.000000 0.000000 0.000000
0.000000 0.000000 0.000000
0.000000 0.000000 0.000000
0.000000 0.000000 0.000000
0.000000 0.000000 0.000000
0.000000 0.000000 0.000000
0.000000 0.000000 0.000000
0.000000 0.000000 0.000000
0.000000 0.000000 0.000000
0.000000 0.000000 0.000000
0.000000 0.000000 0.000000
0.000000 0.000000 0.000000
0.000000 0.000000 0.000000
0.000000 0.000000 0.000000
0.000000 0.000000 0.000000
0.000000 0.000000 0.000000
0.000000 0.000000 0.000000
0.000000 0.000000 0.000000
0.000000 0.000000 0.000000
0.000000 0.000000 0.000000
0.000000 0.000000 0.000000
0.000000 0.000000 0.000000
0.000000 0.000000 0.000000
0.000000 0.000000 0.000000
0.000000 0.000000 0.000000
0.000000 0.000000 0.000000
0.000000 0.000000 0.000000
0.000000 0.000000 0.000000
0.000000 0.000000 0.000000
0.000000 0.000000 0.000000
0.000000 0.000000 0.000000
0.000000 0.000000 0.000000
0.000000 0.000000 0.000000
0.000000 0.000000 0.000000
0.000000 0.000000 0.000000
0.000000 0.000000 0.000000
0.000000 0.000000 0.000000
0.000000 0.000000 0.000000
0.000000 0.000000 0.000000
0.000000 0.000000 0.000000
0.000000 0.000000 0.000000
0.000000 0.000000 0.000000
0.000000 0.000000 0.000000
0.000000 0.000000 0.000000
0.000000 0.000000 0.000000
0.000000 0.000000 0.000000
0.000000 0.000000 0.000000
0.000000 0.000000 0.000000
0.000000 0.000000 0.000000
0.000000 0.000000 0.000000
0.000000 0.000000 0.000000
0.000000 0.000000 0.000000
0.000000 0.000000 0.000000
0.000000 0.000000 0.000000
0.000000 0.000000 0.000000
0.000000 0.000000 0.000000
0.000000 0.000000 0.000000
0.000000 0.000000 0.000000
0.000000 0.000000 0.000000
0.000000 0.000000 0.000000
0.000000 0.000000 0.000000
0.000000 0.000000 0.000000
0.000000 0.000000 0.000000
0.000000 0.000000 0.000000
0.000000 0.000000 0.000000
0.000000 0.000000 0.000000
0.000000 0.000000 0.000000
0.000000 0.000000 0.000000
0.000000 0.000000 0.000000
0.000000 0.000000 0.000000
0.000000 0.000000 0.000000
0.000000 0.000000 0.000000
0.000000 0.000000 0.000000
0.000000 0.000000 0.000000
0.000000 0.000000 0.000000
0.000000 0.000000 0.000000
0.000000 0.000000 0.000000
0.000000 0.000000 0.000000
0.000000 0.000000 0.000000
0.000000 0.000000 0.000000
0.000000 0.000000 0.000000
0.000000 0.000000 0.000000
0.000000 0.000000 0.000000
0.000000 0.000000 0.000000
0.000000 0.000000 0.000000
0.000000 0.000000 0.000000
0.000000 0.000000 0.000000
0.000000 0.000000 0.000000
0.000000 0.000000 0.000000
0.000000 0.000000 0.000000
0.000000 0.000000 0.000000
0.000000 0.000000 0.000000
0.000000 0.000000 0.000000
0.000000 0.000000 0.000000
0.000000 0.000000 0.000000
0.000000 0.000000 0.000000
0.000000 0.000000 0.000000
0.000000 0.000000 0.000000
0.000000 0.000000 0.000000
0.000000 0.000000 0.000000
0.000000 0.000000 0.000000
0.000000 0.000000 0.000000
0.000000 0.000000 0.000000
0.000000 0.000000 0.000000
0.000000 0.000000 0.000000
0.000000 0.000000 0.000000
0.000000 0.000000 0.000000
0.000000 0.000000 0.000000
0.000000 0.000000 0.000000
0.000000 0.000000 0.000000
0.000000 0.000000 0.000000
0.000000 0.000000 0.000000
0.000000 0.000000 0.000000
0.000000 0.000000 0.000000
0.000000 0.000000 0.000000
0.000000 0.000000 0.000000
0.000000 0.000000 0.000000
0.000000 0.000000 0.000000
0.000000 0.000000 0.000000
0.000000 0.000000 0.000000
0.000000 0.000000 0.000000
0.000000 0.000000 0.000000
0.000000 0.000000 0.000000
0.000000 0.000000 0.000000
0.000000 0.000000 0.000000
0.000000 0.000000 0.000000
0.000000 0.000000 0.000000
0.000000 0.000000 0.000000
0.000000 0.000000 0.000000
0.000000 0.000000 0.000000
0.000000 0.000000 0.000000
0.000000 0.000000 0.000000
0.000000 0.000000 0.000000
0.000000 0.000000 0.000000
0.000000 0.000000 0.000000
0.000000 0.000000 0.000000
0.000000 0.000000 0.000000
0.000000 0.000000 0.000000
0.000000 0.000000 0.000000
0.000000 0.000000 0.000000
0.000000 0.000000 0.000000
0.000000 0.000000 0.000000
0.000000 0.000000 0.000000
0.000000 0.000000 0.000000
0.000000 0.000000 0.000000
0.000000 0.000000 0.000000
0.000000 0.000000 0.000000
0.000000 0.000000 0.000000
0.000000 0.000000 0.000000
0.000000 0.000000 0.000000
0.000000 0.000000 0.000000
0.000000 0.000000 0.000000
0.000000 0.000000 0.000000
0.000000 0.000000 0.000000
0.000000 0.000000 0.000000
0.000000 0.000000 0.000000
0.000000 0.000000 0.000000
0.000000 0.000000 0.000000
0.000000 0.000000 0.000000
0.000000 0.000000 0.000000
0.000000 0.000000 0.000000
0.000000 0.000000 0.000000
0.000000 0.000000 0.000000
0.000000 0.000000 0.000000
0.000000 0.000000 0.000000
0.000000 0.000000 0.000000
0.000000 0.000000 0.000000
0.000000 0.000000 0.000000
0.000000 0.000000 0.000000
0.000000 0.000000 0.000000
0.000000 0.000000 0.000000
0.000000 0.000000 0.000000
0.000000 0.000000 0.000000
0.000000 0.000000 0.000000
0.000000 0.000000 0.000000
0.000000 0.000000 0.000000
0.000000 0.000000 0.000000
0.000000 0.000000 0.000000
0.000000 0.000000 0.000000
0.000000 0.000000 0.000000
0.000000 0.000000 0.000000
0.000000 0.000000 0.000000
0.000000 0.000000 0.000000
0.000000 0.000000 0.000000
0.000000 0.000000 0.000000
0.000000 0.000000 0.000000
0.000000 0.000000 0.000000
0.000000 0.000000 0.000000
0.000000 0.000000 0.000000
0.000000 0.000000 0.000000
0.000000 0.000000 0.000000
0.000000 0.000000 0.000000
0.000000 0.000000 0.000000
0.000000 0.000000 0.000000
0.000000 0.000000 0.000000
0.000000 0.000000 0.000000
0.000000 0.000000 0.000000
0.000000 0.000000 0.000000
0.000000 0.000000 0.000000
0.000000 0.000000 0.000000
0.000000 0.000000 0.000000
0.000000 0.000000 0.000000
0.000000 0.000000 0.000000
0.000000 0.000000 0.000000
0.000000 0.000000 0.000000
0.000000 0.000000 0.000000
0.000000 0.000000 0.000000
0.000000 0.000000 0.000000
0.000000 0.000000 0.000000
0.000000 0.000000 0.000000
0.000000 0.000000 0.000000
0.000000 0.000000 0.000000
0.000000 0.000000 0.000000
0.000000 0.000000 0.000000
0.000000 0.000000 0.000000
0.000000 0.000000 0.000000
0.000000 0.000000 0.000000
0.000000 0.000000 0.000000
0.000000 0.000000 0.000000
0.000000 0.000000 0.000000
0.000000 0.000000 0.000000
0.000000 0.000000 0.000000
0.000000 0.000000 0.000000
0.000000 0.000000 0.000000
0.000000 0.000000 0.000000
0.000000 0.000000 0.000000
0.000000 0.000000 -50.000000
-50.000000 0.000000 -50.000000
-43.333094 0.000000 -45.688348
-45.491114 0.000000 -43.333055
-50.000000 0.000000 -50.000000
-36.666172 0.000000 -36.666176
-50.000000 0.000000 -45.081080
-39.969763 0.000000 -40.027131
-44.152239 0.000000 -29.999275
-50.000000 0.000000 -50.000000
-29.999270 0.000000 -44.847049
-33.448896 0.000000 -33.144874
-44.675647 0.000000 -39.869079
-36.786965 0.000000 -35.128601
-39.801256 0.000000 -23.332469
-50.000000 0.000000 -26.539113
-44.666725 0.000000 -50.000000
-23.332473 0.000000 -44.665260
-26.803894 0.000000 -39.364208
-30.225650 0.000000 -29.606211
-39.359326 0.000000 -33.368172
-33.655402 0.000000 -50.000000
-16.665832 0.000000 -16.665846
-50.000000 0.000000 -9.999412
