# vtk DataFile Version 2.0
CellBP Time: 4.76
ASCII
DATASET UNSTRUCTURED_GRID
POINTS 320 double
-50.000000 -50.000000 0.000000
-50.000000 -43.332953 0.000000
-45.688399 -45.491159 0.000000
-43.332889 -50.000000 0.000000
-50.000000 -36.665880 0.000000
-36.665885 -50.000000 0.000000
-45.081134 -39.969798 0.000000
-40.027210 -44.152288 0.000000
-29.998847 -50.000000 0.000000
-50.000000 -29.998840 0.000000
-44.847104 -33.448929 0.000000
-33.144934 -44.675699 0.000000
-39.869147 -36.787005 0.000000
-35.128681 -39.801322 0.000000
-23.331962 -50.000000 0.000000
-26.539175 -44.666752 0.000000
-50.000000 -23.331970 0.000000
-44.665284 -26.803939 0.000000
-39.364261 -30.225696 0.000000
-29.606301 -39.359380 0.000000
-33.368267 -33.655467 0.000000
-50.000000 -16.665349 0.000000
-16.665368 -50.000000 0.000000
-9.999075 -50.000000 0.000000
-19.964911 -44.588769 0.000000
-23.215911 -39.114702 0.000000
-44.691887 -20.096927 0.000000
-39.367868 -23.528160 0.000000
-34.106160 -26.937032 0.000000
-26.384445 -33.577284 0.000000
-29.156233 -28.926648 0.000000
-50.000000 -9.998949 0.000000
-44.666361 -13.410195 0.000000
-50.000000 -3.332831 0.000000
-3.333028 -50.000000 0.000000
3.332954 -50.000000 0.000000
-13.343670 -44.599027 0.000000
-6.684723 -44.610697 0.000000
-16.693721 -39.153289 0.000000
-20.106996 -33.342685 0.000000
-39.338182 -16.804761 0.000000
-34.018739 -20.274669 0.000000
-28.780984 -23.449085 0.000000
-23.510530 -27.350361 0.000000
-44.635455 -6.705558 0.000000
-39.293103 -10.101821 0.000000
-50.000000 3.333135 0.000000
-44.626755 -0.015598 0.000000
9.999057 -50.000000 0.000000
16.665395 -50.000000 0.000000
-0.016094 -44.618770 0.000000
6.651663 -44.635456 0.000000
-10.044717 -39.222606 0.000000
-3.368214 -39.220395 0.000000
-13.484265 -33.798722 0.000000
-16.709474 -28.271512 0.000000
-33.948077 -13.514019 0.000000
-28.601930 -16.892370 0.000000
-23.291760 -20.313072 0.000000
-18.660464 -23.283172 0.000000
-39.267538 -3.392808 0.000000
-33.904582 -6.796766 0.000000
-50.000000 9.999151 0.000000
-44.606765 6.673448 0.000000
-39.260933 3.325685 0.000000
-50.000000 16.665422 0.000000
23.331975 -50.000000 0.000000
29.998802 -50.000000 0.000000
13.317494 -44.662976 0.000000
19.989624 -44.700115 0.000000
3.307692 -39.245161 0.000000
9.971835 -39.290331 0.000000
-6.735341 -33.791390 0.000000
-0.032248 -33.829611 0.000000
-10.095932 -28.293258 0.000000
-13.122759 -22.897790 0.000000
-28.532416 -10.214846 0.000000
-23.066994 -13.663446 0.000000
-16.977758 -17.210109 0.000000
-33.884688 -0.065446 0.000000
-28.563177 -3.579186 0.000000
-44.564125 13.380512 0.000000
-39.190090 10.015073 0.000000
-33.905764 6.616041 0.000000
-50.000000 23.331917 0.000000
-44.557618 20.138220 0.000000
-50.000000 29.998857 0.000000
36.665814 -50.000000 0.000000
43.332890 -50.000000 0.000000
26.663242 -44.745308 0.000000
33.315295 -44.875969 0.000000
16.631689 -39.357700 0.000000
23.328273 -39.437098 0.000000
6.642884 -33.879551 0.000000
13.290737 -33.965475 0.000000
-3.345770 -28.363159 0.000000
3.357448 -28.451296 0.000000
-6.626034 -22.845852 0.000000
-9.968174 -17.315042 0.000000
-23.183880 -7.014712 0.000000
-17.811580 -10.334963 0.000000
-12.837731 -12.595735 0.000000
-28.607533 3.088575 0.000000
-23.265446 -0.468727 0.000000
-39.038879 16.746453 0.000000
-28.721006 9.926288 0.000000
-33.761445 13.318351 0.000000
-44.521693 26.716953 0.000000
-38.467755 23.892561 0.000000
-44.632347 33.085597 0.000000
-50.000000 36.666030 0.000000
-50.000000 43.332998 0.000000
39.922379 -45.069594 0.000000
45.474701 -45.660459 0.000000
50.000000 -50.000000 0.000000
36.626788 -39.981956 0.000000
30.012362 -39.458605 0.000000
19.904230 -34.092813 0.000000
26.585048 -34.319482 0.000000
9.988763 -28.513324 0.000000
16.610904 -28.660042 0.000000
0.051645 -22.960423 0.000000
6.812239 -23.157433 0.000000
-3.400041 -17.297193 0.000000
-6.846762 -10.983876 0.000000
-17.877024 -3.824012 0.000000
-12.552948 -7.035792 0.000000
-23.309929 6.072349 0.000000
-18.036699 2.450035 0.000000
-23.122552 12.095904 0.000000
-33.572122 19.788955 0.000000
-27.941432 16.885705 0.000000
-33.292895 24.722754 0.000000
-39.473596 30.052852 0.000000
-35.160367 28.137537 0.000000
-39.816014 35.101437 0.000000
-43.991698 39.982249 0.000000
-45.431024 45.685186 0.000000
-50.000000 50.000000 0.000000
44.117255 -39.899009 0.000000
50.000000 -43.332727 0.000000
39.639436 -35.047399 0.000000
33.462898 -33.424531 0.000000
22.984920 -28.817954 0.000000
28.730993 -29.247780 0.000000
13.460848 -23.121818 0.000000
20.054903 -23.439048 0.000000
3.381472 -17.588121 0.000000
10.126070 -17.841103 0.000000
0.150578 -11.943230 0.000000
-2.143353 -6.229470 0.000000
-7.328270 -3.660346 0.000000
-12.572876 -0.804800 0.000000
-18.165932 8.573456 0.000000
-12.957349 5.197011 0.000000
-18.638740 13.751882 0.000000
-21.504356 17.494843 0.000000
-28.940782 23.158621 0.000000
-24.346276 21.554620 0.000000
-30.323573 28.634877 0.000000
-34.253459 33.375554 0.000000
-36.955932 39.578077 0.000000
-39.838674 45.102770 0.000000
-43.332871 50.000000 0.000000
44.585247 -32.972054 0.000000
50.000000 -36.665634 0.000000
39.129310 -29.581824 0.000000
33.500609 -26.367639 0.000000
27.182904 -23.322086 0.000000
23.066269 -18.647783 0.000000
16.990383 -16.980410 0.000000
6.708894 -12.209701 0.000000
12.358993 -12.733991 0.000000
-3.378504 -1.490975 0.000000
3.890955 -6.945213 0.000000
1.021748 -2.120081 0.000000
-6.962203 2.308990 0.000000
-8.378630 7.778262 0.000000
-12.844741 11.931154 0.000000
-15.692124 17.699958 0.000000
-19.287255 22.982454 0.000000
-24.170960 27.354777 0.000000
-27.286315 33.626023 0.000000
-30.406647 39.161205 0.000000
-33.447791 44.738864 0.000000
-36.665768 50.000000 0.000000
44.547731 -26.499872 0.000000
50.000000 -29.998566 0.000000
39.040028 -23.179244 0.000000
33.449731 -19.899945 0.000000
28.039996 -16.574046 0.000000
22.682384 -13.124008 0.000000
17.176295 -9.906673 0.000000
10.890922 -6.626045 0.000000
-1.353793 2.310646 0.000000
6.190944 -1.729986 0.000000
2.901401 1.598158 0.000000
-3.513795 7.121620 0.000000
-6.313323 12.441204 0.000000
-9.629545 17.704931 0.000000
-13.167178 23.113064 0.000000
-17.316635 28.185216 0.000000
-20.570708 33.474406 0.000000
-23.665906 39.064006 0.000000
-26.830894 44.585376 0.000000
-29.998825 50.000000 0.000000
44.528703 -19.930609 0.000000
50.000000 -23.331705 0.000000
39.036320 -16.594068 0.000000
33.576204 -13.281187 0.000000
28.150291 -9.964896 0.000000
22.725554 -6.604494 0.000000
17.264238 -3.336596 0.000000
11.949696 0.199674 0.000000
1.922415 6.261896 0.000000
6.963375 3.799153 0.000000
-0.217195 11.914322 0.000000
-3.262865 17.530305 0.000000
-6.700353 22.977706 0.000000
-10.567689 28.267521 0.000000
-13.723968 33.661404 0.000000
-16.945647 39.080364 0.000000
-20.140551 44.548454 0.000000
-23.332040 50.000000 0.000000
44.536283 -13.303725 0.000000
50.000000 -16.665150 0.000000
39.079913 -9.966687 0.000000
33.646731 -6.641061 0.000000
28.236153 -3.307579 0.000000
22.847167 0.017998 0.000000
17.535192 3.355418 0.000000
12.205672 6.594039 0.000000
6.705868 10.807504 0.000000
3.301643 17.196461 0.000000
-0.081201 22.852138 0.000000
-3.518570 28.312748 0.000000
-6.831336 33.774429 0.000000
-10.137374 39.170568 0.000000
-13.435715 44.563563 0.000000
-16.665502 50.000000 0.000000
44.554337 -6.654754 0.000000
50.000000 -9.998933 0.000000
39.123374 -3.321343 0.000000
33.713399 0.008765 0.000000
28.333218 3.344222 0.000000
23.001242 6.693703 0.000000
17.833065 10.022058 0.000000
12.656124 12.231622 0.000000
9.789052 17.234362 0.000000
6.478172 22.722374 0.000000
3.188851 28.269722 0.000000
-0.115905 33.734768 0.000000
-3.425169 39.168616 0.000000
-6.725422 44.581832 0.000000
-9.999190 50.000000 0.000000
44.575655 0.001882 0.000000
50.000000 -3.332978 0.000000
39.166868 3.331871 0.000000
33.779316 6.655565 0.000000
28.424116 9.994947 0.000000
23.046481 13.416427 0.000000
16.948930 17.022795 0.000000
12.901628 22.669783 0.000000
9.814882 28.232087 0.000000
6.604245 33.718744 0.000000
3.286562 39.164429 0.000000
-0.029867 44.584585 0.000000
-3.333059 50.000000 0.000000
44.586737 6.665509 0.000000
50.000000 3.332946 0.000000
39.198085 9.981927 0.000000
33.843420 13.277027 0.000000
28.541975 16.584722 0.000000
23.386950 20.084352 0.000000
18.531805 23.112459 0.000000
16.393149 28.298685 0.000000
13.328944 33.754772 0.000000
9.986577 39.181962 0.000000
6.666003 44.584357 0.000000
3.333008 50.000000 0.000000
44.608906 13.317935 0.000000
50.000000 9.999041 0.000000
39.251358 16.612441 0.000000
33.931893 19.862870 0.000000
28.612321 22.926004 0.000000
23.279637 27.207576 0.000000
19.901325 33.303065 0.000000
16.573817 39.040938 0.000000
13.268370 44.526754 0.000000
9.999105 50.000000 0.000000
44.632077 19.972991 0.000000
50.000000 16.665393 0.000000
39.298495 23.262141 0.000000
34.043804 26.514736 0.000000
28.965777 28.539465 0.000000
26.202390 33.410130 0.000000
23.066736 38.968829 0.000000
19.888605 44.507059 0.000000
16.665370 50.000000 0.000000
44.639813 26.642930 0.000000
50.000000 23.331986 0.000000
39.293374 29.966713 0.000000
33.212401 33.371284 0.000000
29.412143 39.045854 0.000000
26.422409 44.505973 0.000000
23.331919 50.000000 0.000000
44.774997 33.291808 0.000000
50.000000 29.998814 0.000000
39.738198 36.596317 0.000000
34.831071 39.525635 0.000000
32.833845 44.514300 0.000000
29.998732 50.000000 0.000000
44.978260 39.877872 0.000000
50.000000 36.665819 0.000000
39.734901 43.969042 0.000000
36.665743 50.000000 0.000000
45.621313 45.409818 0.000000
50.000000 43.332888 0.000000
43.332782 50.000000 0.000000
50.000000 50.000000 0.000000
CELLS 578 2312
3 1 0 2
3 0 3 2
3 4 1 6
3 6 1 2
3 3 5 7
3 3 7 2
3 6 2 7
3 9 4 10
3 10 4 6
3 5 8 11
3 7 5 11
3 10 6 12
3 12 6 7
3 7 11 13
3 7 13 12
3 8 14 15
3 11 8 15
3 16 9 17
3 17 9 10
3 17 10 18
3 18 10 12
3 11 15 19
3 13 11 19
3 18 12 20
3 13 19 20
3 20 12 13
3 14 22 24
3 15 14 24
3 15 24 25
3 19 15 25
3 21 16 26
3 26 16 17
3 26 17 27
3 27 17 18
3 27 18 28
3 28 18 20
3 19 25 29
3 19 29 20
3 28 20 30
3 30 20 29
3 31 21 32
3 32 21 26
3 22 23 36
3 24 22 36
3 23 34 37
3 36 23 37
3 24 36 38
3 25 24 38
3 25 38 39
3 29 25 39
3 32 26 40
3 40 26 27
3 40 27 41
3 41 27 28
3 41 28 42
3 42 28 30
3 29 39 43
3 29 43 30
3 42 30 43
3 33 31 44
3 44 31 32
3 44 32 45
3 45 32 40
3 46 33 47
3 47 33 44
3 34 35 50
3 37 34 50
3 35 48 51
3 50 35 51
3 36 37 52
3 38 36 52
3 37 50 53
3 52 37 53
3 38 52 54
3 39 38 54
3 39 54 55
3 43 39 55
3 45 40 56
3 56 40 41
3 56 41 57
3 57 41 42
3 57 42 58
3 58 42 43
3 43 55 59
3 43 59 58
3 47 44 60
3 60 44 45
3 60 45 61
3 61 45 56
3 62 46 63
3 63 46 47
3 63 47 64
3 64 47 60
3 48 49 68
3 51 48 68
3 49 66 69
3 68 49 69
3 50 51 70
3 53 50 70
3 51 68 71
3 70 51 71
3 52 53 72
3 54 52 72
3 53 70 73
3 72 53 73
3 54 72 74
3 55 54 74
3 55 74 75
3 59 55 75
3 61 56 76
3 76 56 57
3 76 57 77
3 77 57 58
3 77 58 78
3 59 75 78
3 78 58 59
3 64 60 79
3 79 60 61
3 79 61 80
3 80 61 76
3 65 62 81
3 81 62 63
3 81 63 82
3 82 63 64
3 82 64 83
3 83 64 79
3 84 65 85
3 85 65 81
3 66 67 89
3 69 66 89
3 67 87 90
3 89 67 90
3 68 69 91
3 71 68 91
3 69 89 92
3 91 69 92
3 70 71 93
3 73 70 93
3 71 91 94
3 93 71 94
3 72 73 95
3 74 72 95
3 73 93 96
3 95 73 96
3 74 95 97
3 75 74 97
3 75 97 98
3 78 75 98
3 80 76 99
3 99 76 77
3 99 77 100
3 100 77 78
3 100 78 101
3 98 101 78
3 83 79 102
3 102 79 80
3 102 80 103
3 103 80 99
3 85 81 104
3 104 81 82
3 105 83 102
3 104 82 106
3 106 82 83
3 106 83 105
3 86 84 107
3 107 84 85
3 107 85 108
3 108 85 104
3 109 86 107
3 110 86 109
3 87 88 112
3 90 87 112
3 112 88 113
3 88 114 113
3 90 112 115
3 89 90 116
3 92 89 116
3 116 90 115
3 91 92 117
3 94 91 117
3 92 116 118
3 117 92 118
3 93 94 119
3 96 93 119
3 94 117 120
3 119 94 120
3 95 96 121
3 97 95 121
3 96 119 122
3 121 96 122
3 97 121 123
3 98 97 123
3 98 123 124
3 98 124 101
3 103 99 125
3 125 99 100
3 125 100 126
3 126 100 101
3 126 101 124
3 105 102 127
3 127 102 103
3 127 103 128
3 128 103 125
3 129 105 127
3 108 104 130
3 130 104 106
3 130 106 131
3 131 106 105
3 131 105 129
3 108 130 132
3 109 107 133
3 133 107 108
3 133 108 134
3 108 132 134
3 135 109 133
3 111 110 136
3 136 110 109
3 136 109 135
3 137 111 136
3 138 111 137
3 112 113 139
3 115 112 139
3 114 140 113
3 140 139 113
3 139 141 115
3 116 115 142
3 118 116 142
3 142 115 141
3 117 118 143
3 120 117 143
3 118 142 144
3 143 118 144
3 119 120 145
3 122 119 145
3 120 143 146
3 145 120 146
3 121 122 147
3 123 121 147
3 122 145 148
3 147 122 148
3 123 147 149
3 124 123 149
3 124 149 150
3 151 126 124
3 124 150 151
3 128 125 152
3 152 125 126
3 152 126 151
3 129 127 153
3 153 127 128
3 128 152 154
3 153 128 154
3 155 129 153
3 131 129 156
3 156 129 155
3 132 130 157
3 130 131 157
3 157 131 158
3 131 156 158
3 132 157 159
3 132 159 134
3 135 133 160
3 160 133 134
3 160 134 159
3 136 135 161
3 135 160 161
3 162 137 136
3 161 162 136
3 163 138 137
3 162 163 137
3 139 164 141
3 140 165 139
3 139 165 164
3 141 164 166
3 141 166 142
3 166 167 142
3 144 142 167
3 167 168 144
3 143 144 168
3 146 143 168
3 168 169 146
3 145 146 170
3 148 145 170
3 170 146 169
3 147 148 171
3 149 147 171
3 148 170 172
3 171 148 172
3 173 151 150
3 149 171 174
3 150 149 174
3 150 174 175
3 150 175 173
3 154 152 176
3 152 151 176
3 176 151 173
3 154 176 177
3 155 153 178
3 177 178 154
3 154 178 153
3 156 155 179
3 155 178 179
3 180 158 156
3 179 180 156
3 181 159 157
3 180 181 158
3 181 157 158
3 182 160 159
3 181 182 159
3 183 161 160
3 182 183 160
3 184 162 161
3 184 161 183
3 185 163 162
3 184 185 162
3 164 186 166
3 165 187 164
3 164 187 186
3 166 186 188
3 166 188 167
3 167 188 189
3 167 189 168
3 168 189 190
3 168 190 169
3 169 190 191
3 169 191 170
3 192 172 170
3 170 191 192
3 192 193 172
3 171 172 193
3 174 171 193
3 194 173 175
3 176 173 194
3 175 174 195
3 193 195 174
3 195 196 175
3 175 196 194
3 197 177 176
3 194 197 176
3 198 178 177
3 197 198 177
3 199 179 178
3 198 199 178
3 200 180 179
3 199 200 179
3 201 181 180
3 200 201 180
3 202 182 181
3 201 202 181
3 203 183 182
3 202 203 182
3 204 184 183
3 203 204 183
3 205 185 184
3 204 205 184
3 186 206 188
3 187 207 186
3 186 207 206
3 188 206 208
3 188 208 189
3 189 208 209
3 189 209 190
3 190 209 210
3 190 210 191
3 191 210 211
3 191 211 192
3 192 211 212
3 192 212 193
3 193 212 213
3 193 213 195
3 214 197 194
3 214 194 196
3 195 213 215
3 195 215 196
3 196 215 214
3 216 198 197
3 214 216 197
3 217 199 198
3 216 217 198
3 218 200 199
3 217 218 199
3 219 201 200
3 218 219 200
3 220 202 201
3 219 220 201
3 221 203 202
3 220 221 202
3 222 204 203
3 221 222 203
3 223 205 204
3 222 223 204
3 206 224 208
3 207 225 206
3 206 225 224
3 208 224 226
3 208 226 209
3 209 226 227
3 209 227 210
3 210 227 228
3 210 228 211
3 211 228 229
3 211 229 212
3 212 229 230
3 212 230 213
3 213 230 231
3 213 231 215
3 232 216 214
3 215 231 232
3 232 214 215
3 233 217 216
3 232 233 216
3 234 218 217
3 233 234 217
3 235 219 218
3 234 235 218
3 236 220 219
3 235 236 219
3 237 221 220
3 236 237 220
3 238 222 221
3 237 238 221
3 239 223 222
3 238 239 222
3 224 240 226
3 225 241 224
3 224 241 240
3 226 240 242
3 226 242 227
3 227 242 243
3 227 243 228
3 228 243 244
3 228 244 229
3 244 245 229
3 229 245 230
3 230 245 246
3 230 246 231
3 231 246 247
3 231 247 232
3 248 233 232
3 248 232 247
3 249 234 233
3 248 249 233
3 250 235 234
3 249 250 234
3 251 236 235
3 250 251 235
3 252 237 236
3 251 252 236
3 253 238 237
3 252 253 237
3 254 239 238
3 253 254 238
3 240 255 242
3 241 256 240
3 240 256 255
3 242 255 257
3 242 257 243
3 243 257 258
3 243 258 244
3 244 258 259
3 244 259 245
3 245 259 260
3 245 260 246
3 246 260 261
3 246 261 247
3 248 247 261
3 262 249 248
3 261 262 248
3 263 250 249
3 262 263 249
3 264 251 250
3 263 264 250
3 265 252 251
3 264 265 251
3 266 253 252
3 265 266 252
3 267 254 253
3 266 267 253
3 255 268 257
3 256 269 255
3 255 269 268
3 257 268 270
3 257 270 258
3 258 270 271
3 258 271 259
3 259 271 272
3 259 272 260
3 260 272 273
3 260 273 261
3 274 262 261
3 261 273 274
3 275 263 262
3 274 275 262
3 276 264 263
3 275 276 263
3 277 265 264
3 276 277 264
3 278 266 265
3 277 278 265
3 279 267 266
3 278 279 266
3 268 280 270
3 269 281 268
3 268 281 280
3 270 280 282
3 270 282 271
3 271 282 283
3 271 283 272
3 283 284 272
3 272 284 273
3 285 275 274
3 273 284 285
3 285 274 273
3 286 276 275
3 285 286 275
3 287 277 276
3 286 287 276
3 288 278 277
3 287 288 277
3 289 279 278
3 288 289 278
3 280 290 282
3 281 291 280
3 280 291 290
3 282 290 292
3 282 292 283
3 283 292 293
3 283 293 284
3 284 293 294
3 284 294 285
3 295 286 285
3 295 285 294
3 296 287 286
3 295 296 286
3 297 288 287
3 296 297 287
3 298 289 288
3 297 298 288
3 290 299 292
3 291 300 290
3 290 300 299
3 292 299 301
3 292 301 293
3 293 301 302
3 293 302 294
3 294 302 295
3 303 296 295
3 303 295 302
3 304 297 296
3 303 304 296
3 305 298 297
3 304 305 297
3 299 306 301
3 300 307 299
3 299 307 306
3 301 306 308
3 301 308 302
3 309 303 302
3 302 308 309
3 310 304 303
3 309 310 303
3 311 305 304
3 310 311 304
3 306 312 308
3 307 313 306
3 306 313 312
3 314 310 309
3 308 312 314
3 314 309 308
3 315 311 310
3 314 315 310
3 312 316 314
3 313 317 312
3 312 317 316
3 318 315 314
3 318 314 316
3 317 319 316
3 319 318 316
CELL_TYPES 578
5
5
5
5
5
5
5
5
5
5
5
5
5
5
5
5
5
5
5
5
5
5
5
5
5
5
5
5
5
5
5
5
5
5
5
5
5
5
5
5
5
5
5
5
5
5
5
5
5
5
5
5
5
5
5
5
5
5
5
5
5
5
5
5
5
5
5
5
5
5
5
5
5
5
5
5
5
5
5
5
5
5
5
5
5
5
5
5
5
5
5
5
5
5
5
5
5
5
5
5
5
5
5
5
5
5
5
5
5
5
5
5
5
5
5
5
5
5
5
5
5
5
5
5
5
5
5
5
5
5
5
5
5
5
5
5
5
5
5
5
5
5
5
5
5
5
5
5
5
5
5
5
5
5
5
5
5
5
5
5
5
5
5
5
5
5
5
5
5
5
5
5
5
5
5
5
5
5
5
5
5
5
5
5
5
5
5
5
5
5
5
5
5
5
5
5
5
5
5
5
5
5
5
5
5
5
5
5
5
5
5
5
5
5
5
5
5
5
5
5
5
5
5
5
5
5
5
5
5
5
5
5
5
5
5
5
5
5
5
5
5
5
5
5
5
5
5
5
5
5
5
5
5
5
5
5
5
5
5
5
5
5
5
5
5
5
5
5
5
5
5
5
5
5
5
5
5
5
5
5
5
5
5
5
5
5
5
5
5
5
5
5
5
5
5
5
5
5
5
5
5
5
5
5
5
5
5
5
5
5
5
5
5
5
5
5
5
5
5
5
5
5
5
5
5
5
5
5
5
5
5
5
5
5
5
5
5
5
5
5
5
5
5
5
5
5
5
5
5
5
5
5
5
5
5
5
5
5
5
5
5
5
5
5
5
5
5
5
5
5
5
5
5
5
5
5
5
5
5
5
5
5
5
5
5
5
5
5
5
5
5
5
5
5
5
5
5
5
5
5
5
5
5
5
5
5
5
5
5
5
5
5
5
5
5
5
5
5
5
5
5
5
5
5
5
5
5
5
5
5
5
5
5
5
5
5
5
5
5
5
5
5
5
5
5
5
5
5
5
5
5
5
5
5
5
5
5
5
5
5
5
5
5
5
5
5
5
5
5
5
5
5
5
5
5
5
5
5
5
5
5
5
5
5
5
5
5
5
5
5
5
5
5
5
5
5
5
5
5
5
5
5
5
5
5
5
5
5
5
5
5
5
5
5
5
5
5
5
5
5
5
5
5
5
5
5
5
5
5
5
5
5
5
5
5
5
5
5
5
5
5
5
5
5
5
5
5
5
5
5
5
5
5
5
5
5
5
5
5
5
5
5
5
5
5
5
5
5
5
5
5
5
5
5
5
5
5
5
POINT_DATA 320
SCALARS theta_e float 1
LOOKUP_TABLE default
1.000000
1.000000
1.000000
1.000000
1.000000
1.000000
1.000000
1.000000
1.000000
1.000000
1.000000
1.000000
1.000000
1.000000
1.000000
1.000000
1.000000
1.000000
1.000000
1.000000
1.000000
1.000000
1.000000
1.000000
1.000000
1.000000
1.000000
1.000000
1.000000
1.000000
1.000000
1.000000
1.000000
1.000000
1.000000
1.000000
1.000000
1.000000
1.000000
1.000000
1.000000
1.000000
1.000000
1.000000
1.000000
1.000000
1.000000
1.000000
1.000000
1.000000
1.000000
1.000000
1.000000
1.000000
1.000000
1.000000
1.000000
1.000000
1.000000
1.000000
1.000000
1.000000
1.000000
1.000000
1.000000
1.000000
1.000000
1.000000
1.000000
1.000000
1.000000
1.000000
1.000000
1.000000
1.000000
1.000000
1.000000
1.000000
1.000000
1.000000
1.000000
1.000000
1.000000
1.000000
1.000000
1.000000
1.000000
1.000000
1.000000
1.000000
1.000000
1.000000
1.000000
1.000000
1.000000
1.000000
1.000000
1.000000
1.000000
1.000000
1.000000
1.000000
1.000000
1.000000
1.000000
1.000000
1.000000
1.000000
1.000000
1.000000
1.000000
1.000000
1.000000
1.000000
1.000000
1.000000
1.000000
1.000000
1.000000
1.000000
1.000000
1.000000
1.000000
1.000000
1.000000
1.000000
1.000000
1.000000
1.000000
1.000000
1.000000
1.000000
1.000000
1.000000
1.000000
1.000000
1.000000
1.000000
1.000000
1.000000
1.000000
1.000000
1.000000
1.000000
1.000000
1.000000
1.000000
1.000000
1.000000
1.000000
0.999999
0.999999
1.000000
1.000000
1.000000
1.000000
1.000000
1.000000
1.000000
1.000000
1.000000
1.000000
1.000000
1.000000
1.000000
1.000000
1.000000
1.000000
1.000000
1.000000
1.000000
1.000000
1.000000
0.999998
0.999999
0.999998
0.999999
1.000000
1.000000
1.000000
1.000000
1.000000
1.000000
1.000000
1.000000
1.000000
1.000000
1.000000
1.000000
1.000000
1.000000
1.000000
1.000000
1.000000
0.999998
0.999999
0.999998
0.999999
1.000000
1.000000
1.000000
1.000000
1.000000
1.000000
1.000000
1.000000
1.000000
1.000000
1.000000
1.000000
1.000000
1.000000
1.000000
1.000000
0.999999
0.999999
1.000000
1.000000
1.000000
1.000000
1.000000
1.000000
1.000000
1.000000
1.000000
1.000000
1.000000
1.000000
1.000000
1.000000
1.000000
1.000000
1.000000
1.000000
1.000000
1.000000
1.000000
1.000000
1.000000
1.000000
1.000000
1.000000
1.000000
1.000000
1.000000
1.000000
1.000000
1.000000
1.000000
1.000000
1.000000
1.000000
1.000000
1.000000
1.000000
1.000000
1.000000
1.000000
1.000000
1.000000
1.000000
1.000000
1.000000
1.000000
1.000000
1.000000
1.000000
1.000000
1.000000
1.000000
1.000000
1.000000
1.000000
1.000000
1.000000
1.000000
1.000000
1.000000
1.000000
1.000000
1.000000
1.000000
1.000000
1.000000
1.000000
1.000000
1.000000
1.000000
1.000000
1.000000
1.000000
1.000000
1.000000
1.000000
1.000000
1.000000
1.000000
1.000000
1.000000
1.000000
1.000000
1.000000
1.000000
1.000000
1.000000
1.000000
1.000000
1.000000
1.000000
1.000000
1.000000
1.000000
1.000000
1.000000
1.000000
1.000000
1.000000
1.000000
1.000000
1.000000
VECTORS fa_u float
0.000000 0.000000 0.000000
0.000000 0.000000 0.000000
0.000000 0.000000 0.000000
0.000000 0.000000 0.000000
0.000000 0.000000 0.000000
0.000000 0.000000 0.000000
0.000000 0.000000 0.000000
0.000000 0.000000 0.000000
0.000000 0.000000 0.000000
0.000000 0.000000 0.000000
0.000000 0.000000 0.000000
0.000000 0.000000 0.000000
0.000000 0.000000 0.000000
0.000000 0.000000 0.000000
0.000000 0.000000 0.000000
0.000000 0.000000 0.000000
0.000000 0.000000 0.000000
0.000000 0.000000 0.000000
0.000000 0.000000 0.000000
0.000000 0.000000 0.000000
0.000000 0.000000 0.000000
0.000000 0.000000 0.000000
0.000000 0.000000 0.000000
0.000000 0.000000 0.000000
0.000000 0.000000 0.000000
0.000000 0.000000 0.000000
0.000000 0.000000 0.000000
0.000000 0.000000 0.000000
0.000000 0.000000 0.000000
0.000000 0.000000 0.000000
0.000000 0.000000 0.000000
0.000000 0.000000 0.000000
0.000000 0.000000 0.000000
0.000000 0.000000 0.000000
0.000000 0.000000 0.000000
0.000000 0.000000 0.000000
0.000000 0.000000 0.000000
0.000000 0.000000 0.000000
0.000000 0.000000 0.000000
0.000000 0.000000 0.000000
0.000000 0.000000 0.000000
0.000000 0.000000 0.000000
0.000000 0.000000 0.000000
0.000000 0.000000 0.000000
0.000000 0.000000 0.000000
0.000000 0.000000 0.000000
0.000000 0.000000 0.000000
0.000000 0.000000 0.000000
0.000000 0.000000 0.000000
0.000000 0.000000 0.000000
0.000000 0.000000 0.000000
0.000000 0.000000 0.000000
0.000000 0.000000 0.000000
0.000000 0.000000 0.000000
0.000000 0.000000 0.000000
0.000000 0.000000 0.000000
0.000000 0.000000 0.000000
0.000000 0.000000 0.000000
0.000000 0.000000 0.000000
0.000000 0.000000 0.000000
0.000000 0.000000 0.000000
0.000000 0.000000 0.000000
0.000000 0.000000 0.000000
0.000000 0.000000 0.000000
0.000000 0.000000 0.000000
0.000000 0.000000 0.000000
0.000000 0.000000 0.000000
0.000000 0.000000 0.000000
0.000000 0.000000 0.000000
0.000000 0.000000 0.000000
0.000000 0.000000 0.000000
0.000000 0.000000 0.000000
0.000000 0.000000 0.000000
0.000000 0.000000 0.000000
0.000000 0.000000 0.000000
0.000000 0.000000 0.000000
0.000000 0.000000 0.000000
0.000000 0.000000 0.000000
0.000000 0.000000 0.000000
0.000000 0.000000 0.000000
0.000000 0.000000 0.000000
0.000000 0.000000 0.000000
0.000000 0.000000 0.000000
0.000000 0.000000 0.000000
0.000000 0.000000 0.000000
0.000000 0.000000 0.000000
0.000000 0.000000 0.000000
0.000000 0.000000 0.000000
0.000000 0.000000 0.000000
0.000000 0.000000 0.000000
0.000000 0.000000 0.000000
0.000000 0.000000 0.000000
0.000000 0.000000 0.000000
0.000000 0.000000 0.000000
0.000000 0.000000 0.000000
0.000000 0.000000 0.000000
0.000000 0.000000 0.000000
0.000000 0.000000 0.000000
0.000000 0.000000 0.000000
0.000000 0.000000 0.000000
0.000000 0.000000 0.000000
0.000000 0.000000 0.000000
0.000000 0.000000 0.000000
0.000000 0.000000 0.000000
0.000000 0.000000 0.000000
0.000000 0.000000 0.000000
0.000000 0.000000 0.000000
0.000000 0.000000 0.000000
0.000000 0.000000 0.000000
0.000000 0.000000 0.000000
0.000000 0.000000 0.000000
0.000000 0.000000 0.000000
0.000000 0.000000 0.000000
0.000000 0.000000 0.000000
0.000000 0.000000 0.000000
0.000000 0.000000 0.000000
0.000000 0.000000 0.000000
0.000000 0.000000 0.000000
0.000000 0.000000 0.000000
0.000000 0.000000 0.000000
0.000000 0.000000 0.000000
0.000000 0.000000 0.000000
0.000000 0.000000 0.000000
0.000000 0.000000 0.000000
0.000000 0.000000 0.000000
0.000000 0.000000 0.000000
0.000000 0.000000 0.000000
0.000000 0.000000 0.000000
0.000000 0.000000 0.000000
0.000000 0.000000 0.000000
0.000000 0.000000 0.000000
0.000000 0.000000 0.000000
0.000000 0.000000 0.000000
0.000000 0.000000 0.000000
0.000000 0.000000 0.000000
0.000000 0.000000 0.000000
0.000000 0.000000 0.000000
0.000000 0.000000 0.000000
0.000000 0.000000 0.000000
0.000000 0.000000 0.000000
0.000000 0.000000 0.000000
0.000000 0.000000 0.000000
0.000000 0.000000 0.000000
0.000000 0.000000 0.000000
0.000000 0.000000 0.000000
0.000000 0.000000 0.000000
0.000000 0.000000 0.000000
0.000000 0.000000 0.000000
0.000000 0.000000 0.000000
0.000000 0.000000 0.000000
0.000000 0.000000 0.000000
0.000000 0.000000 0.000000
0.000000 0.000000 0.000000
0.000000 0.000000 0.000000
0.000000 0.000000 0.000000
0.000000 0.000000 0.000000
0.000000 0.000000 0.000000
0.000000 0.000000 0.000000
0.000000 0.000000 0.000000
0.000000 0.000000 0.000000
0.000000 0.000000 0.000000
0.000000 0.000000 0.000000
0.000000 0.000000 0.000000
0.000000 0.000000 0.000000
0.000000 0.000000 0.000000
0.000000 0.000000 0.000000
0.000000 0.000000 0.000000
0.000000 0.000000 0.000000
0.000000 0.000000 0.000000
0.000000 0.000000 0.000000
0.000000 0.000000 0.000000
0.000000 0.000000 0.000000
0.000000 0.000000 0.000000
0.000000 0.000000 0.000000
0.000000 0.000000 0.000000
0.000000 0.000000 0.000000
0.000000 0.000000 0.000000
0.000000 0.000000 0.000000
0.000000 0.000000 0.000000
0.000000 0.000000 0.000000
0.000000 0.000000 0.000000
0.000000 0.000000 0.000000
0.000000 0.000000 0.000000
0.000000 0.000000 0.000000
0.000000 0.000000 0.000000
0.000000 0.000000 0.000000
0.000000 0.000000 0.000000
0.000000 0.000000 0.000000
0.000000 0.000000 0.000000
0.000000 0.000000 0.000000
0.000000 0.000000 0.000000
0.000000 0.000000 0.000000
0.000000 0.000000 0.000000
0.000000 0.000000 0.000000
0.000000 0.000000 0.000000
0.000000 0.000000 0.000000
0.000000 0.000000 0.000000
0.000000 0.000000 0.000000
0.000000 0.000000 0.000000
0.000000 0.000000 0.000000
0.000000 0.000000 0.000000
0.000000 0.000000 0.000000
0.000000 0.000000 0.000000
0.000000 0.000000 0.000000
0.000000 0.000000 0.000000
0.000000 0.000000 0.000000
0.000000 0.000000 0.000000
0.000000 0.000000 0.000000
0.000000 0.000000 0.000000
0.000000 0.000000 0.000000
0.000000 0.000000 0.000000
0.000000 0.000000 0.000000
0.000000 0.000000 0.000000
0.000000 0.000000 0.000000
0.000000 0.000000 0.000000
0.000000 0.000000 0.000000
0.000000 0.000000 0.000000
0.000000 0.000000 0.000000
0.000000 0.000000 0.000000
0.000000 0.000000 0.000000
0.000000 0.000000 0.000000
0.000000 0.000000 0.000000
0.000000 0.000000 0.000000
0.000000 0.000000 0.000000
0.000000 0.000000 0.000000
0.000000 0.000000 0.000000
0.000000 0.000000 0.000000
0.000000 0.000000 0.000000
0.000000 0.000000 0.000000
0.000000 0.000000 0.000000
0.000000 0.000000 0.000000
0.000000 0.000000 0.000000
0.000000 0.000000 0.000000
0.000000 0.000000 0.000000
0.000000 0.000000 0.000000
0.000000 0.000000 0.000000
0.000000 0.000000 0.000000
0.000000 0.000000 0.000000
0.000000 0.000000 0.000000
0.000000 0.000000 0.000000
0.000000 0.000000 0.000000
0.000000 0.000000 0.000000
0.000000 0.000000 0.000000
0.000000 0.000000 0.000000
0.000000 0.000000 0.000000
0.000000 0.000000 0.000000
0.000000 0.000000 0.000000
0.000000 0.000000 0.000000
0.000000 0.000000 0.000000
0.000000 0.000000 0.000000
0.000000 0.000000 0.000000
0.000000 0.000000 0.000000
0.000000 0.000000 0.000000
0.000000 0.000000 0.000000
0.000000 0.000000 0.000000
0.000000 0.000000 0.000000
0.000000 0.000000 0.000000
0.000000 0.000000 0.000000
0.000000 0.000000 0.000000
0.000000 0.000000 0.000000
0.000000 0.000000 0.000000
0.000000 0.000000 0.000000
0.000000 0.000000 0.000000
0.000000 0.000000 0.000000
0.000000 0.000000 0.000000
0.000000 0.000000 0.000000
0.000000 0.000000 0.000000
0.000000 0.000000 0.000000
0.000000 0.000000 0.000000
0.000000 0.000000 0.000000
0.000000 0.000000 0.000000
0.000000 0.000000 0.000000
0.000000 0.000000 0.000000
0.000000 0.000000 0.000000
0.000000 0.000000 0.000000
0.000000 0.000000 0.000000
0.000000 0.000000 0.000000
0.000000 0.000000 0.000000
0.000000 0.000000 0.000000
0.000000 0.000000 0.000000
0.000000 0.000000 0.000000
0.000000 0.000000 0.000000
0.000000 0.000000 0.000000
0.000000 0.000000 0.000000
0.000000 0.000000 0.000000
0.000000 0.000000 0.000000
0.000000 0.000000 0.000000
0.000000 0.000000 0.000000
0.000000 0.000000 0.000000
0.000000 0.000000 0.000000
0.000000 0.000000 0.000000
0.000000 0.000000 0.000000
0.000000 0.000000 0.000000
0.000000 0.000000 0.000000
0.000000 0.000000 0.000000
0.000000 0.000000 0.000000
0.000000 0.000000 -50.000000
-50.000000 0.000000 -50.000000
-43.332953 0.000000 -45.688399
-45.491159 0.000000 -43.332889
-50.000000 0.000000 -50.000000
-36.665880 0.000000 -36.665885
-50.000000 0.000000 -45.081134
-39.969798 0.000000 -40.027210
-44.152288 0.000000 -29.998847
-50.000000 0.000000 -50.000000
-29.998840 0.000000 -44.847104
-33.448929 0.000000 -33.144934
-44.675699 0.000000 -39.869147
-36.787005 0.000000 -35.128681
-39.801322 0.000000 -23.331962
-50.000000 0.000000 -26.539175
-44.666752 0.000000 -50.000000
-23.331970 0.000000 -44.665284
-26.803939 0.000000 -39.364261
-30.225696 0.000000 -29.606301
-39.359380 0.000000 -33.368267
-33.655467 0.000000 -50.000000
-16.665349 0.000000 -16.665368
-50.000000 0.000000 -9.999075
