# vtk DataFile Version 2.0
CellBP Time: 9.88
ASCII
DATASET UNSTRUCTURED_GRID
POINTS 320 double
-50.000000 -50.000000 0.000000
-50.000000 -43.332949 0.000000
-45.688399 -45.491164 0.000000
-43.332876 -50.000000 0.000000
-50.000000 -36.665872 0.000000
-36.665861 -50.000000 0.000000
-45.081135 -39.969805 0.000000
-40.027209 -44.152294 0.000000
-29.998811 -50.000000 0.000000
-50.000000 -29.998828 0.000000
-44.847105 -33.448938 0.000000
-33.144929 -44.675706 0.000000
-39.869146 -36.787013 0.000000
-35.128679 -39.801332 0.000000
-23.331918 -50.000000 0.000000
-26.539168 -44.666755 0.000000
-50.000000 -23.331957 0.000000
-44.665284 -26.803951 0.000000
-39.364259 -30.225709 0.000000
-29.606297 -39.359389 0.000000
-33.368265 -33.655479 0.000000
-50.000000 -16.665339 0.000000
-16.665325 -50.000000 0.000000
-9.999041 -50.000000 0.000000
-19.964903 -44.588770 0.000000
-23.215902 -39.114708 0.000000
-44.691886 -20.096939 0.000000
-39.367867 -23.528174 0.000000
-34.106156 -26.937046 0.000000
-26.384439 -33.577298 0.000000
-29.156229 -28.926664 0.000000
-50.000000 -9.998942 0.000000
-44.666362 -13.410206 0.000000
-50.000000 -3.332828 0.000000
-3.333012 -50.000000 0.000000
3.332951 -50.000000 0.000000
-13.343660 -44.599026 0.000000
-6.684709 -44.610695 0.000000
-16.693710 -39.153290 0.000000
-20.106981 -33.342689 0.000000
-39.338182 -16.804773 0.000000
-34.018741 -20.274686 0.000000
-28.780977 -23.449105 0.000000
-23.510519 -27.350387 0.000000
-44.635457 -6.705565 0.000000
-39.293108 -10.101832 0.000000
-50.000000 3.333134 0.000000
-44.626757 -0.015600 0.000000
9.999037 -50.000000 0.000000
16.665364 -50.000000 0.000000
-0.016077 -44.618768 0.000000
6.651683 -44.635455 0.000000
-10.044703 -39.222607 0.000000
-3.368196 -39.220393 0.000000
-13.484249 -33.798723 0.000000
-16.709438 -28.271520 0.000000
-33.948080 -13.514030 0.000000
-28.601944 -16.892395 0.000000
-23.291749 -20.313099 0.000000
-18.660447 -23.283219 0.000000
-39.267544 -3.392813 0.000000
-33.904592 -6.796780 0.000000
-50.000000 9.999145 0.000000
-44.606767 6.673452 0.000000
-39.260938 3.325685 0.000000
-50.000000 16.665415 0.000000
23.331941 -50.000000 0.000000
29.998771 -50.000000 0.000000
13.317516 -44.662974 0.000000
19.989645 -44.700115 0.000000
3.307710 -39.245161 0.000000
9.971854 -39.290332 0.000000
-6.735327 -33.791393 0.000000
-0.032225 -33.829611 0.000000
-10.095916 -28.293250 0.000000
-13.122716 -22.897748 0.000000
-28.532414 -10.214859 0.000000
-23.067021 -13.663504 0.000000
-16.977723 -17.210194 0.000000
-33.884697 -0.065453 0.000000
-28.563192 -3.579218 0.000000
-44.564126 13.380520 0.000000
-39.190095 10.015079 0.000000
-33.905776 6.616046 0.000000
-50.000000 23.331909 0.000000
-44.557617 20.138230 0.000000
-50.000000 29.998853 0.000000
36.665791 -50.000000 0.000000
43.332878 -50.000000 0.000000
26.663259 -44.745309 0.000000
33.315307 -44.875972 0.000000
16.631707 -39.357699 0.000000
23.328290 -39.437098 0.000000
6.642904 -33.879551 0.000000
13.290751 -33.965475 0.000000
-3.345757 -28.363173 0.000000
3.357483 -28.451292 0.000000
-6.626027 -22.845849 0.000000
-9.967998 -17.314990 0.000000
-23.183851 -7.014748 0.000000
-17.811627 -10.335104 0.000000
-12.837553 -12.596039 0.000000
-28.607559 3.088577 0.000000
-23.265510 -0.468756 0.000000
-39.038879 16.746461 0.000000
-28.721015 9.926299 0.000000
-33.761448 13.318359 0.000000
-44.521694 26.716964 0.000000
-38.467757 23.892573 0.000000
-44.632350 33.085607 0.000000
-50.000000 36.666030 0.000000
-50.000000 43.332998 0.000000
39.922388 -45.069597 0.000000
45.474709 -45.660463 0.000000
50.000000 -50.000000 0.000000
36.626798 -39.981958 0.000000
30.012377 -39.458606 0.000000
19.904247 -34.092814 0.000000
26.585062 -34.319482 0.000000
9.988781 -28.513316 0.000000
16.610917 -28.660047 0.000000
0.051635 -22.960468 0.000000
6.812272 -23.157404 0.000000
-3.400072 -17.297187 0.000000
-6.845683 -10.982099 0.000000
-17.877060 -3.823916 0.000000
-12.553166 -7.036062 0.000000
-23.309952 6.072334 0.000000
-18.036751 2.449934 0.000000
-23.122583 12.095939 0.000000
-33.572126 19.788968 0.000000
-27.941442 16.885733 0.000000
-33.292900 24.722770 0.000000
-39.473600 30.052865 0.000000
-35.160372 28.137550 0.000000
-39.816017 35.101448 0.000000
-43.991698 39.982258 0.000000
-45.431023 45.685191 0.000000
-50.000000 50.000000 0.000000
44.117263 -39.899014 0.000000
50.000000 -43.332705 0.000000
39.639446 -35.047401 0.000000
33.462909 -33.424531 0.000000
22.984936 -28.817953 0.000000
28.731006 -29.247778 0.000000
13.460878 -23.121813 0.000000
20.054920 -23.439051 0.000000
3.381248 -17.588215 0.000000
10.126067 -17.841127 0.000000
0.151028 -11.941193 0.000000
-2.142800 -6.227785 0.000000
-7.326342 -3.658879 0.000000
-12.571546 -0.804777 0.000000
-18.166066 8.573501 0.000000
-12.957074 5.197071 0.000000
-18.638731 13.751907 0.000000
-21.504348 17.494859 0.000000
-28.940786 23.158646 0.000000
-24.346278 21.554634 0.000000
-30.323576 28.634893 0.000000
-34.253461 33.375565 0.000000
-36.955931 39.578084 0.000000
-39.838671 45.102774 0.000000
-43.332864 50.000000 0.000000
44.585254 -32.972057 0.000000
50.000000 -36.665596 0.000000
39.129317 -29.581826 0.000000
33.500619 -26.367637 0.000000
27.182922 -23.322078 0.000000
23.066303 -18.647773 0.000000
16.990449 -16.980420 0.000000
6.708878 -12.209512 0.000000
12.359285 -12.733984 0.000000
-3.378597 -1.490889 0.000000
3.889223 -6.942373 0.000000
1.021491 -2.119902 0.000000
-6.960384 2.308214 0.000000
-8.376668 7.776581 0.000000
-12.844695 11.931081 0.000000
-15.692092 17.699960 0.000000
-19.287254 22.982457 0.000000
-24.170956 27.354787 0.000000
-27.286311 33.626030 0.000000
-30.406643 39.161209 0.000000
-33.447787 44.738867 0.000000
-36.665753 50.000000 0.000000
44.547734 -26.499875 0.000000
50.000000 -29.998514 0.000000
39.040031 -23.179241 0.000000
33.449730 -19.899938 0.000000
28.039990 -16.574018 0.000000
22.682320 -13.123977 0.000000
17.176248 -9.906496 0.000000
10.888994 -6.625227 0.000000
-1.354159 2.310831 0.000000
6.189346 -1.729485 0.000000
2.900829 1.598090 0.000000
-3.512987 7.119801 0.000000
-6.313495 12.441334 0.000000
-9.629560 17.705154 0.000000
-13.167193 23.113141 0.000000
-17.316634 28.185241 0.000000
-20.570703 33.474420 0.000000
-23.665899 39.064014 0.000000
-26.830889 44.585379 0.000000
-29.998805 50.000000 0.000000
44.528703 -19.930613 0.000000
50.000000 -23.331645 0.000000
39.036318 -16.594067 0.000000
33.576198 -13.281182 0.000000
28.150269 -9.964894 0.000000
22.725545 -6.604493 0.000000
17.264242 -3.336617 0.000000
11.947571 0.199874 0.000000
1.921796 6.260484 0.000000
6.960419 3.797259 0.000000
-0.217377 11.912368 0.000000
-3.262520 17.530410 0.000000
-6.700285 22.977728 0.000000
-10.567653 28.267544 0.000000
-13.723952 33.661413 0.000000
-16.945635 39.080370 0.000000
-20.140543 44.548457 0.000000
-23.332013 50.000000 0.000000
44.536280 -13.303729 0.000000
50.000000 -16.665092 0.000000
39.079909 -9.966686 0.000000
33.646723 -6.641062 0.000000
28.236154 -3.307577 0.000000
22.847186 0.017994 0.000000
17.535222 3.355210 0.000000
12.205270 6.593798 0.000000
6.704953 10.805512 0.000000
3.301835 17.196489 0.000000
-0.081111 22.852191 0.000000
-3.518535 28.312769 0.000000
-6.831312 33.774444 0.000000
-10.137357 39.170575 0.000000
-13.435703 44.563565 0.000000
-16.665472 50.000000 0.000000
44.554331 -6.654756 0.000000
50.000000 -9.998891 0.000000
39.123367 -3.321343 0.000000
33.713391 0.008769 0.000000
28.333204 3.344237 0.000000
23.001191 6.693707 0.000000
17.833034 10.021985 0.000000
12.656096 12.231736 0.000000
9.789012 17.234217 0.000000
6.478267 22.722354 0.000000
3.188909 28.269730 0.000000
-0.115872 33.734775 0.000000
-3.425145 39.168622 0.000000
-6.725405 44.581834 0.000000
-9.999161 50.000000 0.000000
44.575649 0.001881 0.000000
50.000000 -3.332961 0.000000
39.166864 3.331870 0.000000
33.779312 6.655562 0.000000
28.424104 9.994935 0.000000
23.046466 13.416401 0.000000
16.948959 17.022779 0.000000
12.901649 22.669687 0.000000
9.814932 28.232064 0.000000
6.604282 33.718740 0.000000
3.286591 39.164429 0.000000
-0.029843 44.584585 0.000000
-3.333038 50.000000 0.000000
44.586733 6.665511 0.000000
50.000000 3.332936 0.000000
39.198083 9.981926 0.000000
33.843418 13.277018 0.000000
28.541975 16.584701 0.000000
23.386962 20.084328 0.000000
18.531819 23.112448 0.000000
16.393157 28.298656 0.000000
13.328974 33.754761 0.000000
9.986606 39.181957 0.000000
6.666030 44.584354 0.000000
3.333016 50.000000 0.000000
44.608903 13.317939 0.000000
50.000000 9.999008 0.000000
39.251357 16.612439 0.000000
33.931894 19.862862 0.000000
28.612325 22.925990 0.000000
23.279646 27.207563 0.000000
19.901343 33.303048 0.000000
16.573843 39.040929 0.000000
13.268399 44.526750 0.000000
9.999097 50.000000 0.000000
44.632076 19.972996 0.000000
50.000000 16.665345 0.000000
39.298497 23.262139 0.000000
34.043809 26.514730 0.000000
28.965787 28.539454 0.000000
26.202404 33.410121 0.000000
23.066756 38.968821 0.000000
19.888631 44.507055 0.000000
16.665345 50.000000 0.000000
44.639815 26.642934 0.000000
50.000000 23.331933 0.000000
39.293380 29.966712 0.000000
33.212412 33.371281 0.000000
29.412160 39.045850 0.000000
26.422430 44.505970 0.000000
23.331885 50.000000 0.000000
44.775003 33.291810 0.000000
50.000000 29.998766 0.000000
39.738206 36.596317 0.000000
34.831084 39.525635 0.000000
32.833861 44.514302 0.000000
29.998698 50.000000 0.000000
44.978267 39.877874 0.000000
50.000000 36.665784 0.000000
39.734914 43.969045 0.000000
36.665716 50.000000 0.000000
45.621320 45.409823 0.000000
50.000000 43.332870 0.000000
43.332765 50.000000 0.000000
50.000000 50.000000 0.000000
CELLS 578 2312
3 1 0 2
3 0 3 2
3 4 1 6
3 6 1 2
3 3 5 7
3 3 7 2
3 6 2 7
3 9 4 10
3 10 4 6
3 5 8 11
3 7 5 11
3 10 6 12
3 12 6 7
3 7 11 13
3 7 13 12
3 8 14 15
3 11 8 15
3 16 9 17
3 17 9 10
3 17 10 18
3 18 10 12
3 11 15 19
3 13 11 19
3 18 12 20
3 13 19 20
3 20 12 13
3 14 22 24
3 15 14 24
3 15 24 25
3 19 15 25
3 21 16 26
3 26 16 17
3 26 17 27
3 27 17 18
3 27 18 28
3 28 18 20
3 19 25 29
3 19 29 20
3 28 20 30
3 30 20 29
3 31 21 32
3 32 21 26
3 22 23 36
3 24 22 36
3 23 34 37
3 36 23 37
3 24 36 38
3 25 24 38
3 25 38 39
3 29 25 39
3 32 26 40
3 40 26 27
3 40 27 41
3 41 27 28
3 41 28 42
3 42 28 30
3 29 39 43
3 29 43 30
3 42 30 43
3 33 31 44
3 44 31 32
3 44 32 45
3 45 32 40
3 46 33 47
3 47 33 44
3 34 35 50
3 37 34 50
3 35 48 51
3 50 35 51
3 36 37 52
3 38 36 52
3 37 50 53
3 52 37 53
3 38 52 54
3 39 38 54
3 39 54 55
3 43 39 55
3 45 40 56
3 56 40 41
3 56 41 57
3 57 41 42
3 57 42 58
3 58 42 43
3 43 55 59
3 43 59 58
3 47 44 60
3 60 44 45
3 60 45 61
3 61 45 56
3 62 46 63
3 63 46 47
3 63 47 64
3 64 47 60
3 48 49 68
3 51 48 68
3 49 66 69
3 68 49 69
3 50 51 70
3 53 50 70
3 51 68 71
3 70 51 71
3 52 53 72
3 54 52 72
3 53 70 73
3 72 53 73
3 54 72 74
3 55 54 74
3 55 74 75
3 59 55 75
3 61 56 76
3 76 56 57
3 76 57 77
3 77 57 58
3 77 58 78
3 59 75 78
3 78 58 59
3 64 60 79
3 79 60 61
3 79 61 80
3 80 61 76
3 65 62 81
3 81 62 63
3 81 63 82
3 82 63 64
3 82 64 83
3 83 64 79
3 84 65 85
3 85 65 81
3 66 67 89
3 69 66 89
3 67 87 90
3 89 67 90
3 68 69 91
3 71 68 91
3 69 89 92
3 91 69 92
3 70 71 93
3 73 70 93
3 71 91 94
3 93 71 94
3 72 73 95
3 74 72 95
3 73 93 96
3 95 73 96
3 74 95 97
3 75 74 97
3 75 97 98
3 78 75 98
3 80 76 99
3 99 76 77
3 99 77 100
3 100 77 78
3 100 78 101
3 98 101 78
3 83 79 102
3 102 79 80
3 102 80 103
3 103 80 99
3 85 81 104
3 104 81 82
3 105 83 102
3 104 82 106
3 106 82 83
3 106 83 105
3 86 84 107
3 107 84 85
3 107 85 108
3 108 85 104
3 109 86 107
3 110 86 109
3 87 88 112
3 90 87 112
3 112 88 113
3 88 114 113
3 90 112 115
3 89 90 116
3 92 89 116
3 116 90 115
3 91 92 117
3 94 91 117
3 92 116 118
3 117 92 118
3 93 94 119
3 96 93 119
3 94 117 120
3 119 94 120
3 95 96 121
3 97 95 121
3 96 119 122
3 121 96 122
3 97 121 123
3 98 97 123
3 98 123 124
3 98 124 101
3 103 99 125
3 125 99 100
3 125 100 126
3 126 100 101
3 126 101 124
3 105 102 127
3 127 102 103
3 127 103 128
3 128 103 125
3 129 105 127
3 108 104 130
3 130 104 106
3 130 106 131
3 131 106 105
3 131 105 129
3 108 130 132
3 109 107 133
3 133 107 108
3 133 108 134
3 108 132 134
3 135 109 133
3 111 110 136
3 136 110 109
3 136 109 135
3 137 111 136
3 138 111 137
3 112 113 139
3 115 112 139
3 114 140 113
3 140 139 113
3 139 141 115
3 116 115 142
3 118 116 142
3 142 115 141
3 117 118 143
3 120 117 143
3 118 142 144
3 143 118 144
3 119 120 145
3 122 119 145
3 120 143 146
3 145 120 146
3 121 122 147
3 123 121 147
3 122 145 148
3 147 122 148
3 123 147 149
3 124 123 149
3 124 149 150
3 151 126 124
3 124 150 151
3 128 125 152
3 152 125 126
3 152 126 151
3 129 127 153
3 153 127 128
3 128 152 154
3 153 128 154
3 155 129 153
3 131 129 156
3 156 129 155
3 132 130 157
3 130 131 157
3 157 131 158
3 131 156 158
3 132 157 159
3 132 159 134
3 135 133 160
3 160 133 134
3 160 134 159
3 136 135 161
3 135 160 161
3 162 137 136
3 161 162 136
3 163 138 137
3 162 163 137
3 139 164 141
3 140 165 139
3 139 165 164
3 141 164 166
3 141 166 142
3 166 167 142
3 144 142 167
3 167 168 144
3 143 144 168
3 146 143 168
3 168 169 146
3 145 146 170
3 148 145 170
3 170 146 169
3 147 148 171
3 149 147 171
3 148 170 172
3 171 148 172
3 173 151 150
3 149 171 174
3 150 149 174
3 150 174 175
3 150 175 173
3 154 152 176
3 152 151 176
3 176 151 173
3 154 176 177
3 155 153 178
3 177 178 154
3 154 178 153
3 156 155 179
3 155 178 179
3 180 158 156
3 179 180 156
3 181 159 157
3 180 181 158
3 181 157 158
3 182 160 159
3 181 182 159
3 183 161 160
3 182 183 160
3 184 162 161
3 184 161 183
3 185 163 162
3 184 185 162
3 164 186 166
3 165 187 164
3 164 187 186
3 166 186 188
3 166 188 167
3 167 188 189
3 167 189 168
3 168 189 190
3 168 190 169
3 169 190 191
3 169 191 170
3 192 172 170
3 170 191 192
3 192 193 172
3 171 172 193
3 174 171 193
3 194 173 175
3 176 173 194
3 175 174 195
3 193 195 174
3 195 196 175
3 175 196 194
3 197 177 176
3 194 197 176
3 198 178 177
3 197 198 177
3 199 179 178
3 198 199 178
3 200 180 179
3 199 200 179
3 201 181 180
3 200 201 180
3 202 182 181
3 201 202 181
3 203 183 182
3 202 203 182
3 204 184 183
3 203 204 183
3 205 185 184
3 204 205 184
3 186 206 188
3 187 207 186
3 186 207 206
3 188 206 208
3 188 208 189
3 189 208 209
3 189 209 190
3 190 209 210
3 190 210 191
3 191 210 211
3 191 211 192
3 192 211 212
3 192 212 193
3 193 212 213
3 193 213 195
3 214 197 194
3 214 194 196
3 195 213 215
3 195 215 196
3 196 215 214
3 216 198 197
3 214 216 197
3 217 199 198
3 216 217 198
3 218 200 199
3 217 218 199
3 219 201 200
3 218 219 200
3 220 202 201
3 219 220 201
3 221 203 202
3 220 221 202
3 222 204 203
3 221 222 203
3 223 205 204
3 222 223 204
3 206 224 208
3 207 225 206
3 206 225 224
3 208 224 226
3 208 226 209
3 209 226 227
3 209 227 210
3 210 227 228
3 210 228 211
3 211 228 229
3 211 229 212
3 212 229 230
3 212 230 213
3 213 230 231
3 213 231 215
3 232 216 214
3 215 231 232
3 232 214 215
3 233 217 216
3 232 233 216
3 234 218 217
3 233 234 217
3 235 219 218
3 234 235 218
3 236 220 219
3 235 236 219
3 237 221 220
3 236 237 220
3 238 222 221
3 237 238 221
3 239 223 222
3 238 239 222
3 224 240 226
3 225 241 224
3 224 241 240
3 226 240 242
3 226 242 227
3 227 242 243
3 227 243 228
3 228 243 244
3 228 244 229
3 244 245 229
3 229 245 230
3 230 245 246
3 230 246 231
3 231 246 247
3 231 247 232
3 248 233 232
3 248 232 247
3 249 234 233
3 248 249 233
3 250 235 234
3 249 250 234
3 251 236 235
3 250 251 235
3 252 237 236
3 251 252 236
3 253 238 237
3 252 253 237
3 254 239 238
3 253 254 238
3 240 255 242
3 241 256 240
3 240 256 255
3 242 255 257
3 242 257 243
3 243 257 258
3 243 258 244
3 244 258 259
3 244 259 245
3 245 259 260
3 245 260 246
3 246 260 261
3 246 261 247
3 248 247 261
3 262 249 248
3 261 262 248
3 263 250 249
3 262 263 249
3 264 251 250
3 263 264 250
3 265 252 251
3 264 265 251
3 266 253 252
3 265 266 252
3 267 254 253
3 266 267 253
3 255 268 257
3 256 269 255
3 255 269 268
3 257 268 270
3 257 270 258
3 258 270 271
3 258 271 259
3 259 271 272
3 259 272 260
3 260 272 273
3 260 273 261
3 274 262 261
3 261 273 274
3 275 263 262
3 274 275 262
3 276 264 263
3 275 276 263
3 277 265 264
3 276 277 264
3 278 266 265
3 277 278 265
3 279 267 266
3 278 279 266
3 268 280 270
3 269 281 268
3 268 281 280
3 270 280 282
3 270 282 271
3 271 282 283
3 271 283 272
3 283 284 272
3 272 284 273
3 285 275 274
3 273 284 285
3 285 274 273
3 286 276 275
3 285 286 275
3 287 277 276
3 286 287 276
3 288 278 277
3 287 288 277
3 289 279 278
3 288 289 278
3 280 290 282
3 281 291 280
3 280 291 290
3 282 290 292
3 282 292 283
3 283 292 293
3 283 293 284
3 284 293 294
3 284 294 285
3 295 286 285
3 295 285 294
3 296 287 286
3 295 296 286
3 297 288 287
3 296 297 287
3 298 289 288
3 297 298 288
3 290 299 292
3 291 300 290
3 290 300 299
3 292 299 301
3 292 301 293
3 293 301 302
3 293 302 294
3 294 302 295
3 303 296 295
3 303 295 302
3 304 297 296
3 303 304 296
3 305 298 297
3 304 305 297
3 299 306 301
3 300 307 299
3 299 307 306
3 301 306 308
3 301 308 302
3 309 303 302
3 302 308 309
3 310 304 303
3 309 310 303
3 311 305 304
3 310 311 304
3 306 312 308
3 307 313 306
3 306 313 312
3 314 310 309
3 308 312 314
3 314 309 308
3 315 311 310
3 314 315 310
3 312 316 314
3 313 317 312
3 312 317 316
3 318 315 314
3 318 314 316
3 317 319 316
3 319 318 316
CELL_TYPES 578
5
5
5
5
5
5
5
5
5
5
5
5
5
5
5
5
5
5
5
5
5
5
5
5
5
5
5
5
5
5
5
5
5
5
5
5
5
5
5
5
5
5
5
5
5
5
5
5
5
5
5
5
5
5
5
5
5
5
5
5
5
5
5
5
5
5
5
5
5
5
5
5
5
5
5
5
5
5
5
5
5
5
5
5
5
5
5
5
5
5
5
5
5
5
5
5
5
5
5
5
5
5
5
5
5
5
5
5
5
5
5
5
5
5
5
5
5
5
5
5
5
5
5
5
5
5
5
5
5
5
5
5
5
5
5
5
5
5
5
5
5
5
5
5
5
5
5
5
5
5
5
5
5
5
5
5
5
5
5
5
5
5
5
5
5
5
5
5
5
5
5
5
5
5
5
5
5
5
5
5
5
5
5
5
5
5
5
5
5
5
5
5
5
5
5
5
5
5
5
5
5
5
5
5
5
5
5
5
5
5
5
5
5
5
5
5
5
5
5
5
5
5
5
5
5
5
5
5
5
5
5
5
5
5
5
5
5
5
5
5
5
5
5
5
5
5
5
5
5
5
5
5
5
5
5
5
5
5
5
5
5
5
5
5
5
5
5
5
5
5
5
5
5
5
5
5
5
5
5
5
5
5
5
5
5
5
5
5
5
5
5
5
5
5
5
5
5
5
5
5
5
5
5
5
5
5
5
5
5
5
5
5
5
5
5
5
5
5
5
5
5
5
5
5
5
5
5
5
5
5
5
5
5
5
5
5
5
5
5
5
5
5
5
5
5
5
5
5
5
5
5
5
5
5
5
5
5
5
5
5
5
5
5
5
5
5
5
5
5
5
5
5
5
5
5
5
5
5
5
5
5
5
5
5
5
5
5
5
5
5
5
5
5
5
5
5
5
5
5
5
5
5
5
5
5
5
5
5
5
5
5
5
5
5
5
5
5
5
5
5
5
5
5
5
5
5
5
5
5
5
5
5
5
5
5
5
5
5
5
5
5
5
5
5
5
5
5
5
5
5
5
5
5
5
5
5
5
5
5
5
5
5
5
5
5
5
5
5
5
5
5
5
5
5
5
5
5
5
5
5
5
5
5
5
5
5
5
5
5
5
5
5
5
5
5
5
5
5
5
5
5
5
5
5
5
5
5
5
5
5
5
5
5
5
5
5
5
5
5
5
5
5
5
5
5
5
5
5
5
5
5
5
5
5
5
5
5
5
5
5
5
5
5
5
5
5
5
5
5
5
5
5
5
5
5
5
5
5
5
5
5
5
5
5
5
5
5
5
5
5
5
5
5
5
5
5
5
5
POINT_DATA 320
SCALARS theta_e float 1
LOOKUP_TABLE default
1.000000
1.000000
1.000000
1.000000
1.000000
1.000000
1.000000
1.000000
1.000000
1.000000
1.000000
1.000000
1.000000
1.000000
1.000000
1.000000
1.000000
1.000000
1.000000
1.000000
1.000000
1.000000
1.000000
1.000000
1.000000
1.000000
1.000000
1.000000
1.000000
1.000000
1.000000
1.000000
1.000000
1.000000
1.000000
1.000000
1.000000
1.000000
1.000000
1.000000
1.000000
1.000000
1.000000
1.000000
1.000000
1.000000
1.000000
1.000000
1.000000
1.000000
1.000000
1.000000
1.000000
1.000000
1.000000
1.000000
1.000000
1.000000
1.000000
1.000000
1.000000
1.000000
1.000000
1.000000
1.000000
1.000000
1.000000
1.000000
1.000000
1.000000
1.000000
1.000000
1.000000
1.000000
1.000000
1.000000
1.000000
1.000000
1.000000
1.000000
1.000000
1.000000
1.000000
1.000000
1.000000
1.000000
1.000000
1.000000
1.000000
1.000000
1.000000
1.000000
1.000000
1.000000
1.000000
1.000000
1.000000
1.000000
1.000000
1.000000
1.000000
1.000000
1.000000
1.000000
1.000000
1.000000
1.000000
1.000000
1.000000
1.000000
1.000000
1.000000
1.000000
1.000000
1.000000
1.000000
1.000000
1.000000
1.000000
1.000000
1.000000
1.000000
1.000000
1.000000
1.000000
1.000000
1.000000
1.000000
1.000000
1.000000
1.000000
1.000000
1.000000
1.000000
1.000000
1.000000
1.000000
1.000000
1.000000
1.000000
1.000000
1.000000
1.000000
1.000000
1.000000
1.000000
1.000000
1.000000
1.000000
1.000000
1.000001
1.000000
1.000000
1.000000
1.000000
1.000000
1.000000
1.000000
1.000000
1.000000
1.000000
1.000000
1.000000
1.000000
1.000000
1.000000
1.000000
1.000000
1.000000
1.000000
1.000000
1.000000
1.000000
1.000001
1.000000
1.000001
1.000000
1.000000
1.000000
1.000000
1.000000
1.000000
1.000000
1.000000
1.000000
1.000000
1.000000
1.000000
1.000000
1.000000
1.000000
1.000000
1.000000
1.000000
1.000001
1.000001
1.000001
1.000000
1.000000
1.000000
1.000000
1.000000
1.000000
1.000000
1.000000
1.000000
1.000000
1.000000
1.000000
1.000000
1.000000
1.000000
1.000000
1.000000
1.000000
1.000000
1.000000
1.000000
1.000000
1.000000
1.000000
1.000000
1.000000
1.000000
1.000000
1.000000
1.000000
1.000000
1.000000
1.000000
1.000000
1.000000
1.000000
1.000000
1.000000
1.000000
1.000000
1.000000
1.000000
1.000000
1.000000
1.000000
1.000000
1.000000
1.000000
1.000000
1.000000
1.000000
1.000000
1.000000
1.000000
1.000000
1.000000
1.000000
1.000000
1.000000
1.000000
1.000000
1.000000
1.000000
1.000000
1.000000
1.000000
1.000000
1.000000
1.000000
1.000000
1.000000
1.000000
1.000000
1.000000
1.000000
1.000000
1.000000
1.000000
1.000000
1.000000
1.000000
1.000000
1.000000
1.000000
1.000000
1.000000
1.000000
1.000000
1.000000
1.000000
1.000000
1.000000
1.000000
1.000000
1.000000
1.000000
1.000000
1.000000
1.000000
1.000000
1.000000
1.000000
1.000000
1.000000
1.000000
1.000000
1.000000
1.000000
1.000000
1.000000
1.000000
1.000000
1.000000
1.000000
1.000000
1.000000
1.000000
1.000000
1.000000
1.000000
1.000000
1.000000
1.000000
VECTORS fa_u float
0.000000 0.000000 0.000000
0.000000 0.000000 0.000000
0.000000 0.000000 0.000000
0.000000 0.000000 0.000000
0.000000 0.000000 0.000000
0.000000 0.000000 0.000000
0.000000 0.000000 0.000000
0.000000 0.000000 0.000000
0.000000 0.000000 0.000000
0.000000 0.000000 0.000000
0.000000 0.000000 0.000000
0.000000 0.000000 0.000000
0.000000 0.000000 0.000000
0.000000 0.000000 0.000000
0.000000 0.000000 0.000000
0.000000 0.000000 0.000000
0.000000 0.000000 0.000000
0.000000 0.000000 0.000000
0.000000 0.000000 0.000000
0.000000 0.000000 0.000000
0.000000 0.000000 0.000000
0.000000 0.000000 0.000000
0.000000 0.000000 0.000000
0.000000 0.000000 0.000000
0.000000 0.000000 0.000000
0.000000 0.000000 0.000000
0.000000 0.000000 0.000000
0.000000 0.000000 0.000000
0.000000 0.000000 0.000000
0.000000 0.000000 0.000000
0.000000 0.000000 0.000000
0.000000 0.000000 0.000000
0.000000 0.000000 0.000000
0.000000 0.000000 0.000000
0.000000 0.000000 0.000000
0.000000 0.000000 0.000000
0.000000 0.000000 0.000000
0.000000 0.000000 0.000000
0.000000 0.000000 0.000000
0.000000 0.000000 0.000000
0.000000 0.000000 0.000000
0.000000 0.000000 0.000000
0.000000 0.000000 0.000000
0.000000 0.000000 0.000000
0.000000 0.000000 0.000000
0.000000 0.000000 0.000000
0.000000 0.000000 0.000000
0.000000 0.000000 0.000000
0.000000 0.000000 0.000000
0.000000 0.000000 0.000000
0.000000 0.000000 0.000000
0.000000 0.000000 0.000000
0.000000 0.000000 0.000000
0.000000 0.000000 0.000000
0.000000 0.000000 0.000000
0.000000 0.000000 0.000000
0.000000 0.000000 0.000000
0.000000 0.000000 0.000000
0.000000 0.000000 0.000000
0.000000 0.000000 0.000000
0.000000 0.000000 0.000000
0.000000 0.000000 0.000000
0.000000 0.000000 0.000000
0.000000 0.000000 0.000000
0.000000 0.000000 0.000000
0.000000 0.000000 0.000000
0.000000 0.000000 0.000000
0.000000 0.000000 0.000000
0.000000 0.000000 0.000000
0.000000 0.000000 0.000000
0.000000 0.000000 0.000000
0.000000 0.000000 0.000000
0.000000 0.000000 0.000000
0.000000 0.000000 0.000000
0.000000 0.000000 0.000000
0.000000 0.000000 0.000000
0.000000 0.000000 0.000000
0.000000 0.000000 0.000000
0.000000 0.000000 0.000000
0.000000 0.000000 0.000000
0.000000 0.000000 0.000000
0.000000 0.000000 0.000000
0.000000 0.000000 0.000000
0.000000 0.000000 0.000000
0.000000 0.000000 0.000000
0.000000 0.000000 0.000000
0.000000 0.000000 0.000000
0.000000 0.000000 0.000000
0.000000 0.000000 0.000000
0.000000 0.000000 0.000000
0.000000 0.000000 0.000000
0.000000 0.000000 0.000000
0.000000 0.000000 0.000000
0.000000 0.000000 0.000000
0.000000 0.000000 0.000000
0.000000 0.000000 0.000000
0.000000 0.000000 0.000000
0.000000 0.000000 0.000000
0.000000 0.000000 0.000000
0.000000 0.000000 0.000000
0.000000 0.000000 0.000000
0.000000 0.000000 0.000000
0.000000 0.000000 0.000000
0.000000 0.000000 0.000000
0.000000 0.000000 0.000000
0.000000 0.000000 0.000000
0.000000 0.000000 0.000000
0.000000 0.000000 0.000000
0.000000 0.000000 0.000000
0.000000 0.000000 0.000000
0.000000 0.000000 0.000000
0.000000 0.000000 0.000000
0.000000 0.000000 0.000000
0.000000 0.000000 0.000000
0.000000 0.000000 0.000000
0.000000 0.000000 0.000000
0.000000 0.000000 0.000000
0.000000 0.000000 0.000000
0.000000 0.000000 0.000000
0.000000 0.000000 0.000000
0.000000 0.000000 0.000000
0.000000 0.000000 0.000000
0.000000 0.000000 0.000000
0.000000 0.000000 0.000000
0.000000 0.000000 0.000000
0.000000 0.000000 0.000000
0.000000 0.000000 0.000000
0.000000 0.000000 0.000000
0.000000 0.000000 0.000000
0.000000 0.000000 0.000000
0.000000 0.000000 0.000000
0.000000 0.000000 0.000000
0.000000 0.000000 0.000000
0.000000 0.000000 0.000000
0.000000 0.000000 0.000000
0.000000 0.000000 0.000000
0.000000 0.000000 0.000000
0.000000 0.000000 0.000000
0.000000 0.000000 0.000000
0.000000 0.000000 0.000000
0.000000 0.000000 0.000000
0.000000 0.000000 0.000000
0.000000 0.000000 0.000000
0.000000 0.000000 0.000000
0.000000 0.000000 0.000000
0.000000 0.000000 0.000000
0.000000 0.000000 0.000000
0.000000 0.000000 0.000000
0.000000 0.000000 0.000000
0.000000 0.000000 0.000000
0.000000 0.000000 0.000000
0.000000 0.000000 0.000000
0.000000 0.000000 0.000000
0.000000 0.000000 0.000000
0.000000 0.000000 0.000000
0.000000 0.000000 0.000000
0.000000 0.000000 0.000000
0.000000 0.000000 0.000000
0.000000 0.000000 0.000000
0.000000 0.000000 0.000000
0.000000 0.000000 0.000000
0.000000 0.000000 0.000000
0.000000 0.000000 0.000000
0.000000 0.000000 0.000000
0.000000 0.000000 0.000000
0.000000 0.000000 0.000000
0.000000 0.000000 0.000000
0.000000 0.000000 0.000000
0.000000 0.000000 0.000000
0.000000 0.000000 0.000000
0.000000 0.000000 0.000000
0.000000 0.000000 0.000000
0.000000 0.000000 0.000000
0.000000 0.000000 0.000000
0.000000 0.000000 0.000000
0.000000 0.000000 0.000000
0.000000 0.000000 0.000000
0.000000 0.000000 0.000000
0.000000 0.000000 0.000000
0.000000 0.000000 0.000000
0.000000 0.000000 0.000000
0.000000 0.000000 0.000000
0.000000 0.000000 0.000000
0.000000 0.000000 0.000000
0.000000 0.000000 0.000000
0.000000 0.000000 0.000000
0.000000 0.000000 0.000000
0.000000 0.000000 0.000000
0.000000 0.000000 0.000000
0.000000 0.000000 0.000000
0.000000 0.000000 0.000000
0.000000 0.000000 0.000000
0.000000 0.000000 0.000000
0.000000 0.000000 0.000000
0.000000 0.000000 0.000000
0.000000 0.000000 0.000000
0.000000 0.000000 0.000000
0.000000 0.000000 0.000000
0.000000 0.000000 0.000000
0.000000 0.000000 0.000000
0.000000 0.000000 0.000000
0.000000 0.000000 0.000000
0.000000 0.000000 0.000000
0.000000 0.000000 0.000000
0.000000 0.000000 0.000000
0.000000 0.000000 0.000000
0.000000 0.000000 0.000000
0.000000 0.000000 0.000000
0.000000 0.000000 0.000000
0.000000 0.000000 0.000000
0.000000 0.000000 0.000000
0.000000 0.000000 0.000000
0.000000 0.000000 0.000000
0.000000 0.000000 0.000000
0.000000 0.000000 0.000000
0.000000 0.000000 0.000000
0.000000 0.000000 0.000000
0.000000 0.000000 0.000000
0.000000 0.000000 0.000000
0.000000 0.000000 0.000000
0.000000 0.000000 0.000000
0.000000 0.000000 0.000000
0.000000 0.000000 0.000000
0.000000 0.000000 0.000000
0.000000 0.000000 0.000000
0.000000 0.000000 0.000000
0.000000 0.000000 0.000000
0.000000 0.000000 0.000000
0.000000 0.000000 0.000000
0.000000 0.000000 0.000000
0.000000 0.000000 0.000000
0.000000 0.000000 0.000000
0.000000 0.000000 0.000000
0.000000 0.000000 0.000000
0.000000 0.000000 0.000000
0.000000 0.000000 0.000000
0.000000 0.000000 0.000000
0.000000 0.000000 0.000000
0.000000 0.000000 0.000000
0.000000 0.000000 0.000000
0.000000 0.000000 0.000000
0.000000 0.000000 0.000000
0.000000 0.000000 0.000000
0.000000 0.000000 0.000000
0.000000 0.000000 0.000000
0.000000 0.000000 0.000000
0.000000 0.000000 0.000000
0.000000 0.000000 0.000000
0.000000 0.000000 0.000000
0.000000 0.000000 0.000000
0.000000 0.000000 0.000000
0.000000 0.000000 0.000000
0.000000 0.000000 0.000000
0.000000 0.000000 0.000000
0.000000 0.000000 0.000000
0.000000 0.000000 0.000000
0.000000 0.000000 0.000000
0.000000 0.000000 0.000000
0.000000 0.000000 0.000000
0.000000 0.000000 0.000000
0.000000 0.000000 0.000000
0.000000 0.000000 0.000000
0.000000 0.000000 0.000000
0.000000 0.000000 0.000000
0.000000 0.000000 0.000000
0.000000 0.000000 0.000000
0.000000 0.000000 0.000000
0.000000 0.000000 0.000000
0.000000 0.000000 0.000000
0.000000 0.000000 0.000000
0.000000 0.000000 0.000000
0.000000 0.000000 0.000000
0.000000 0.000000 0.000000
0.000000 0.000000 0.000000
0.000000 0.000000 0.000000
0.000000 0.000000 0.000000
0.000000 0.000000 0.000000
0.000000 0.000000 0.000000
0.000000 0.000000 0.000000
0.000000 0.000000 0.000000
0.000000 0.000000 0.000000
0.000000 0.000000 0.000000
0.000000 0.000000 0.000000
0.000000 0.000000 0.000000
0.000000 0.000000 0.000000
0.000000 0.000000 0.000000
0.000000 0.000000 0.000000
0.000000 0.000000 0.000000
0.000000 0.000000 0.000000
0.000000 0.000000 0.000000
0.000000 0.000000 0.000000
0.000000 0.000000 0.000000
0.000000 0.000000 0.000000
0.000000 0.000000 0.000000
0.000000 0.000000 0.000000
0.000000 0.000000 0.000000
0.000000 0.000000 -50.000000
-50.000000 0.000000 -50.000000
-43.332949 0.000000 -45.688399
-45.491164 0.000000 -43.332876
-50.000000 0.000000 -50.000000
-36.665872 0.000000 -36.665861
-50.000000 0.000000 -45.081135
-39.969805 0.000000 -40.027209
-44.152294 0.000000 -29.998811
-50.000000 0.000000 -50.000000
-29.998828 0.000000 -44.847105
-33.448938 0.000000 -33.144929
-44.675706 0.000000 -39.869146
-36.787013 0.000000 -35.128679
-39.801332 0.000000 -23.331918
-50.000000 0.000000 -26.539168
-44.666755 0.000000 -50.000000
-23.331957 0.000000 -44.665284
-26.803951 0.000000 -39.364259
-30.225709 0.000000 -29.606297
-39.359389 0.000000 -33.368265
-33.655479 0.000000 -50.000000
-16.665339 0.000000 -16.665325
-50.000000 0.000000 -9.999041
