# vtk DataFile Version 2.0
CellBP Time: 1.76
ASCII
DATASET UNSTRUCTURED_GRID
POINTS 320 double
-50.000000 -50.000000 0.000000
-50.000000 -43.333191 0.000000
-45.688312 -45.491083 0.000000
-43.333167 -50.000000 0.000000
-50.000000 -36.666373 0.000000
-36.666374 -50.000000 0.000000
-45.081041 -39.969739 0.000000
-40.027075 -44.152206 0.000000
-29.999567 -50.000000 0.000000
-50.000000 -29.999568 0.000000
-44.847010 -33.448874 0.000000
-33.144829 -44.675610 0.000000
-39.869029 -36.786938 0.000000
-35.128542 -39.801211 0.000000
-23.332816 -50.000000 0.000000
-26.539065 -44.666705 0.000000
-50.000000 -23.332824 0.000000
-44.665241 -26.803865 0.000000
-39.364169 -30.225620 0.000000
-29.606145 -39.359288 0.000000
-33.368102 -33.655357 0.000000
-50.000000 -16.666171 0.000000
-16.666172 -50.000000 0.000000
-9.999641 -50.000000 0.000000
-19.964783 -44.588782 0.000000
-23.215800 -39.114661 0.000000
-44.691904 -20.096855 0.000000
-39.367823 -23.528124 0.000000
-34.106051 -26.936966 0.000000
-26.384289 -33.577146 0.000000
-29.156068 -28.926525 0.000000
-50.000000 -9.999601 0.000000
-44.666373 -13.410136 0.000000
-50.000000 -3.333136 0.000000
-3.333204 -50.000000 0.000000
3.333206 -50.000000 0.000000
-13.343534 -44.599077 0.000000
-6.684644 -44.610775 0.000000
-16.693626 -39.153347 0.000000
-20.106923 -33.342678 0.000000
-39.338189 -16.804804 0.000000
-34.018597 -20.274708 0.000000
-28.780784 -23.448981 0.000000
-23.510397 -27.350054 0.000000
-44.635510 -6.705579 0.000000
-39.293074 -10.101865 0.000000
-50.000000 3.333270 0.000000
-44.626841 -0.015694 0.000000
9.999657 -50.000000 0.000000
16.666194 -50.000000 0.000000
-0.016079 -44.618840 0.000000
6.651592 -44.635498 0.000000
-10.044636 -39.222630 0.000000
-3.368196 -39.220462 0.000000
-13.484251 -33.798818 0.000000
-16.709716 -28.271426 0.000000
-33.948098 -13.514229 0.000000
-28.601563 -16.892484 0.000000
-23.291311 -20.312906 0.000000
-18.660215 -23.282518 0.000000
-39.267598 -3.392904 0.000000
-33.904584 -6.796787 0.000000
-50.000000 9.999693 0.000000
-44.606860 6.673291 0.000000
-39.261039 3.325610 0.000000
-50.000000 16.666208 0.000000
23.332823 -50.000000 0.000000
29.999546 -50.000000 0.000000
13.317350 -44.662992 0.000000
19.989471 -44.700121 0.000000
3.307694 -39.245175 0.000000
9.971790 -39.290302 0.000000
-6.735217 -33.791395 0.000000
-0.032309 -33.829666 0.000000
-10.095925 -28.293613 0.000000
-13.122804 -22.898452 0.000000
-28.532756 -10.215131 0.000000
-23.066566 -13.663256 0.000000
-16.977091 -17.208946 0.000000
-33.884862 -0.065445 0.000000
-28.563300 -3.578793 0.000000
-44.564191 13.380304 0.000000
-39.190174 10.014983 0.000000
-33.905877 6.615997 0.000000
-50.000000 23.332808 0.000000
-44.557734 20.138053 0.000000
-50.000000 29.999574 0.000000
36.666341 -50.000000 0.000000
43.333162 -50.000000 0.000000
26.663099 -44.745271 0.000000
33.315190 -44.875893 0.000000
16.631638 -39.357700 0.000000
23.328185 -39.437057 0.000000
6.642826 -33.879517 0.000000
13.290807 -33.965472 0.000000
-3.345542 -28.362893 0.000000
3.357064 -28.451321 0.000000
-6.626000 -22.846250 0.000000
-9.970644 -17.314865 0.000000
-23.185222 -7.014927 0.000000
-17.810501 -10.334918 0.000000
-12.837373 -12.590402 0.000000
-28.607583 3.088497 0.000000
-23.264881 -0.468247 0.000000
-39.039060 16.746471 0.000000
-28.721385 9.926455 0.000000
-33.761716 13.318481 0.000000
-44.521680 26.716778 0.000000
-38.467738 23.892457 0.000000
-44.632176 33.085416 0.000000
-50.000000 36.666428 0.000000
-50.000000 43.333206 0.000000
39.922292 -45.069518 0.000000
45.474600 -45.660374 0.000000
50.000000 -50.000000 0.000000
36.626710 -39.981891 0.000000
30.012253 -39.458545 0.000000
19.904204 -34.092727 0.000000
26.584982 -34.319408 0.000000
9.988856 -28.513549 0.000000
16.611009 -28.659833 0.000000
0.052158 -22.959271 0.000000
6.812281 -23.158297 0.000000
-3.400931 -17.297535 0.000000
-6.862589 -11.019386 0.000000
-17.878325 -3.828081 0.000000
-12.553829 -7.036130 0.000000
-23.310604 6.073467 0.000000
-18.037787 2.454602 0.000000
-23.122068 12.095646 0.000000
-33.572100 19.788935 0.000000
-27.941284 16.885387 0.000000
-33.292724 24.722608 0.000000
-39.473387 30.052624 0.000000
-35.160125 28.137383 0.000000
-39.815799 35.101267 0.000000
-43.991585 39.982049 0.000000
-45.430962 45.685060 0.000000
-50.000000 50.000000 0.000000
44.117163 -39.898886 0.000000
50.000000 -43.333095 0.000000
39.639337 -35.047307 0.000000
33.462823 -33.424453 0.000000
22.984844 -28.817842 0.000000
28.730925 -29.247702 0.000000
13.460773 -23.121750 0.000000
20.054832 -23.438730 0.000000
3.387499 -17.587064 0.000000
10.127176 -17.840118 0.000000
0.143794 -11.996954 0.000000
-2.152723 -6.260580 0.000000
-7.393099 -3.697385 0.000000
-12.618616 -0.802866 0.000000
-18.162771 8.573213 0.000000
-12.964025 5.197008 0.000000
-18.639267 13.752140 0.000000
-21.504654 17.495135 0.000000
-28.940639 23.158306 0.000000
-24.346206 21.554760 0.000000
-30.323370 28.634711 0.000000
-34.253273 33.375477 0.000000
-36.955835 39.578023 0.000000
-39.838629 45.102681 0.000000
-43.333153 50.000000 0.000000
44.585164 -32.971957 0.000000
50.000000 -36.666261 0.000000
39.129260 -29.581719 0.000000
33.500532 -26.367577 0.000000
27.182712 -23.322080 0.000000
23.065763 -18.647726 0.000000
16.989386 -16.979659 0.000000
6.711651 -12.215090 0.000000
12.353357 -12.732773 0.000000
-3.384172 -1.493958 0.000000
3.930294 -7.011485 0.000000
1.021875 -2.120938 0.000000
-7.005708 2.325516 0.000000
-8.426300 7.820605 0.000000
-12.846551 11.933046 0.000000
-15.692768 17.700530 0.000000
-19.287173 22.982931 0.000000
-24.170938 27.354935 0.000000
-27.286263 33.626111 0.000000
-30.406575 39.161273 0.000000
-33.447707 44.738851 0.000000
-36.666317 50.000000 0.000000
44.547715 -26.499749 0.000000
50.000000 -29.999438 0.000000
39.040028 -23.179196 0.000000
33.449807 -19.899934 0.000000
28.040128 -16.574376 0.000000
22.683507 -13.124236 0.000000
17.176600 -9.909558 0.000000
10.931394 -6.643366 0.000000
-1.351933 2.307558 0.000000
6.218533 -1.739361 0.000000
2.907866 1.600538 0.000000
-3.539067 7.176088 0.000000
-6.312251 12.444414 0.000000
-9.629305 17.701930 0.000000
-13.166745 23.112319 0.000000
-17.316475 28.185240 0.000000
-20.570545 33.474473 0.000000
-23.665793 39.064038 0.000000
-26.830729 44.585385 0.000000
-29.999542 50.000000 0.000000
44.528731 -19.930463 0.000000
50.000000 -23.332696 0.000000
39.036400 -16.594004 0.000000
33.576391 -13.281170 0.000000
28.150825 -9.964832 0.000000
22.726033 -6.604456 0.000000
17.264508 -3.337176 0.000000
12.004011 0.192740 0.000000
1.929539 6.290371 0.000000
7.026183 3.834653 0.000000
-0.213482 11.966915 0.000000
-3.268661 17.529705 0.000000
-6.700979 22.978142 0.000000
-10.567938 28.267598 0.000000
-13.723824 33.661570 0.000000
-16.945517 39.080448 0.000000
-20.140353 44.548497 0.000000
-23.332829 50.000000 0.000000
44.536350 -13.303567 0.000000
50.000000 -16.666072 0.000000
39.079988 -9.966590 0.000000
33.646829 -6.640889 0.000000
28.235957 -3.307334 0.000000
22.846151 0.018410 0.000000
17.534067 3.361132 0.000000
12.213244 6.597608 0.000000
6.722961 10.848415 0.000000
3.301347 17.195523 0.000000
-0.081559 22.851103 0.000000
-3.518381 28.312557 0.000000
-6.831175 33.774310 0.000000
-10.137199 39.170580 0.000000
-13.435504 44.563606 0.000000
-16.666211 50.000000 0.000000
44.554433 -6.654640 0.000000
50.000000 -9.999580 0.000000
39.123464 -3.321274 0.000000
33.713441 0.008777 0.000000
28.333178 3.343929 0.000000
23.001921 6.693771 0.000000
17.832144 10.023422 0.000000
12.654840 12.226632 0.000000
9.791136 17.234945 0.000000
6.477637 22.722397 0.000000
3.188596 28.269442 0.000000
-0.115856 33.734677 0.000000
-3.425102 39.168563 0.000000
-6.725275 44.581872 0.000000
-9.999682 50.000000 0.000000
44.575729 0.001934 0.000000
50.000000 -3.333191 0.000000
39.166859 3.331915 0.000000
33.779221 6.655566 0.000000
28.424180 9.995084 0.000000
23.046331 13.416523 0.000000
16.948016 17.022029 0.000000
12.901667 22.670835 0.000000
9.814645 28.232268 0.000000
6.604153 33.718709 0.000000
3.286554 39.164420 0.000000
-0.029837 44.584618 0.000000
-3.333224 50.000000 0.000000
44.586768 6.665462 0.000000
50.000000 3.333184 0.000000
39.198023 9.981901 0.000000
33.843351 13.277101 0.000000
28.541738 16.584888 0.000000
23.386582 20.084365 0.000000
18.531698 23.111997 0.000000
16.393382 28.298746 0.000000
13.328894 33.754786 0.000000
9.986499 39.181962 0.000000
6.665928 44.584405 0.000000
3.333210 50.000000 0.000000
44.608909 13.317801 0.000000
50.000000 9.999625 0.000000
39.251327 16.612384 0.000000
33.931793 19.862857 0.000000
28.612180 22.925995 0.000000
23.279592 27.207463 0.000000
19.901272 33.303145 0.000000
16.573688 39.040982 0.000000
13.268216 44.526804 0.000000
9.999656 50.000000 0.000000
44.632072 19.972834 0.000000
50.000000 16.666165 0.000000
39.298450 23.262049 0.000000
34.043719 26.514667 0.000000
28.965672 28.539439 0.000000
26.202292 33.410098 0.000000
23.066632 38.968838 0.000000
19.888442 44.507075 0.000000
16.666167 50.000000 0.000000
44.639771 26.642784 0.000000
50.000000 23.332802 0.000000
39.293305 29.966605 0.000000
33.212302 33.371207 0.000000
29.412017 39.045811 0.000000
26.422264 44.505955 0.000000
23.332787 50.000000 0.000000
44.774920 33.291698 0.000000
50.000000 29.999531 0.000000
39.738126 36.596237 0.000000
34.830965 39.525537 0.000000
32.833725 44.514222 0.000000
29.999509 50.000000 0.000000
44.978182 39.877782 0.000000
50.000000 36.666331 0.000000
39.734764 43.968950 0.000000
36.666308 50.000000 0.000000
45.621221 45.409719 0.000000
50.000000 43.333156 0.000000
43.333118 50.000000 0.000000
50.000000 50.000000 0.000000
CELLS 578 2312
3 1 0 2
3 0 3 2
3 4 1 6
3 6 1 2
3 3 5 7
3 3 7 2
3 6 2 7
3 9 4 10
3 10 4 6
3 5 8 11
3 7 5 11
3 10 6 12
3 12 6 7
3 7 11 13
3 7 13 12
3 8 14 15
3 11 8 15
3 16 9 17
3 17 9 10
3 17 10 18
3 18 10 12
3 11 15 19
3 13 11 19
3 18 12 20
3 13 19 20
3 20 12 13
3 14 22 24
3 15 14 24
3 15 24 25
3 19 15 25
3 21 16 26
3 26 16 17
3 26 17 27
3 27 17 18
3 27 18 28
3 28 18 20
3 19 25 29
3 19 29 20
3 28 20 30
3 30 20 29
3 31 21 32
3 32 21 26
3 22 23 36
3 24 22 36
3 23 34 37
3 36 23 37
3 24 36 38
3 25 24 38
3 25 38 39
3 29 25 39
3 32 26 40
3 40 26 27
3 40 27 41
3 41 27 28
3 41 28 42
3 42 28 30
3 29 39 43
3 29 43 30
3 42 30 43
3 33 31 44
3 44 31 32
3 44 32 45
3 45 32 40
3 46 33 47
3 47 33 44
3 34 35 50
3 37 34 50
3 35 48 51
3 50 35 51
3 36 37 52
3 38 36 52
3 37 50 53
3 52 37 53
3 38 52 54
3 39 38 54
3 39 54 55
3 43 39 55
3 45 40 56
3 56 40 41
3 56 41 57
3 57 41 42
3 57 42 58
3 58 42 43
3 43 55 59
3 43 59 58
3 47 44 60
3 60 44 45
3 60 45 61
3 61 45 56
3 62 46 63
3 63 46 47
3 63 47 64
3 64 47 60
3 48 49 68
3 51 48 68
3 49 66 69
3 68 49 69
3 50 51 70
3 53 50 70
3 51 68 71
3 70 51 71
3 52 53 72
3 54 52 72
3 53 70 73
3 72 53 73
3 54 72 74
3 55 54 74
3 55 74 75
3 59 55 75
3 61 56 76
3 76 56 57
3 76 57 77
3 77 57 58
3 77 58 78
3 59 75 78
3 78 58 59
3 64 60 79
3 79 60 61
3 79 61 80
3 80 61 76
3 65 62 81
3 81 62 63
3 81 63 82
3 82 63 64
3 82 64 83
3 83 64 79
3 84 65 85
3 85 65 81
3 66 67 89
3 69 66 89
3 67 87 90
3 89 67 90
3 68 69 91
3 71 68 91
3 69 89 92
3 91 69 92
3 70 71 93
3 73 70 93
3 71 91 94
3 93 71 94
3 72 73 95
3 74 72 95
3 73 93 96
3 95 73 96
3 74 95 97
3 75 74 97
3 75 97 98
3 78 75 98
3 80 76 99
3 99 76 77
3 99 77 100
3 100 77 78
3 100 78 101
3 98 101 78
3 83 79 102
3 102 79 80
3 102 80 103
3 103 80 99
3 85 81 104
3 104 81 82
3 105 83 102
3 104 82 106
3 106 82 83
3 106 83 105
3 86 84 107
3 107 84 85
3 107 85 108
3 108 85 104
3 109 86 107
3 110 86 109
3 87 88 112
3 90 87 112
3 112 88 113
3 88 114 113
3 90 112 115
3 89 90 116
3 92 89 116
3 116 90 115
3 91 92 117
3 94 91 117
3 92 116 118
3 117 92 118
3 93 94 119
3 96 93 119
3 94 117 120
3 119 94 120
3 95 96 121
3 97 95 121
3 96 119 122
3 121 96 122
3 97 121 123
3 98 97 123
3 98 123 124
3 98 124 101
3 103 99 125
3 125 99 100
3 125 100 126
3 126 100 101
3 126 101 124
3 105 102 127
3 127 102 103
3 127 103 128
3 128 103 125
3 129 105 127
3 108 104 130
3 130 104 106
3 130 106 131
3 131 106 105
3 131 105 129
3 108 130 132
3 109 107 133
3 133 107 108
3 133 108 134
3 108 132 134
3 135 109 133
3 111 110 136
3 136 110 109
3 136 109 135
3 137 111 136
3 138 111 137
3 112 113 139
3 115 112 139
3 114 140 113
3 140 139 113
3 139 141 115
3 116 115 142
3 118 116 142
3 142 115 141
3 117 118 143
3 120 117 143
3 118 142 144
3 143 118 144
3 119 120 145
3 122 119 145
3 120 143 146
3 145 120 146
3 121 122 147
3 123 121 147
3 122 145 148
3 147 122 148
3 123 147 149
3 124 123 149
3 124 149 150
3 151 126 124
3 124 150 151
3 128 125 152
3 152 125 126
3 152 126 151
3 129 127 153
3 153 127 128
3 128 152 154
3 153 128 154
3 155 129 153
3 131 129 156
3 156 129 155
3 132 130 157
3 130 131 157
3 157 131 158
3 131 156 158
3 132 157 159
3 132 159 134
3 135 133 160
3 160 133 134
3 160 134 159
3 136 135 161
3 135 160 161
3 162 137 136
3 161 162 136
3 163 138 137
3 162 163 137
3 139 164 141
3 140 165 139
3 139 165 164
3 141 164 166
3 141 166 142
3 166 167 142
3 144 142 167
3 167 168 144
3 143 144 168
3 146 143 168
3 168 169 146
3 145 146 170
3 148 145 170
3 170 146 169
3 147 148 171
3 149 147 171
3 148 170 172
3 171 148 172
3 173 151 150
3 149 171 174
3 150 149 174
3 150 174 175
3 150 175 173
3 154 152 176
3 152 151 176
3 176 151 173
3 154 176 177
3 155 153 178
3 177 178 154
3 154 178 153
3 156 155 179
3 155 178 179
3 180 158 156
3 179 180 156
3 181 159 157
3 180 181 158
3 181 157 158
3 182 160 159
3 181 182 159
3 183 161 160
3 182 183 160
3 184 162 161
3 184 161 183
3 185 163 162
3 184 185 162
3 164 186 166
3 165 187 164
3 164 187 186
3 166 186 188
3 166 188 167
3 167 188 189
3 167 189 168
3 168 189 190
3 168 190 169
3 169 190 191
3 169 191 170
3 192 172 170
3 170 191 192
3 192 193 172
3 171 172 193
3 174 171 193
3 194 173 175
3 176 173 194
3 175 174 195
3 193 195 174
3 195 196 175
3 175 196 194
3 197 177 176
3 194 197 176
3 198 178 177
3 197 198 177
3 199 179 178
3 198 199 178
3 200 180 179
3 199 200 179
3 201 181 180
3 200 201 180
3 202 182 181
3 201 202 181
3 203 183 182
3 202 203 182
3 204 184 183
3 203 204 183
3 205 185 184
3 204 205 184
3 186 206 188
3 187 207 186
3 186 207 206
3 188 206 208
3 188 208 189
3 189 208 209
3 189 209 190
3 190 209 210
3 190 210 191
3 191 210 211
3 191 211 192
3 192 211 212
3 192 212 193
3 193 212 213
3 193 213 195
3 214 197 194
3 214 194 196
3 195 213 215
3 195 215 196
3 196 215 214
3 216 198 197
3 214 216 197
3 217 199 198
3 216 217 198
3 218 200 199
3 217 218 199
3 219 201 200
3 218 219 200
3 220 202 201
3 219 220 201
3 221 203 202
3 220 221 202
3 222 204 203
3 221 222 203
3 223 205 204
3 222 223 204
3 206 224 208
3 207 225 206
3 206 225 224
3 208 224 226
3 208 226 209
3 209 226 227
3 209 227 210
3 210 227 228
3 210 228 211
3 211 228 229
3 211 229 212
3 212 229 230
3 212 230 213
3 213 230 231
3 213 231 215
3 232 216 214
3 215 231 232
3 232 214 215
3 233 217 216
3 232 233 216
3 234 218 217
3 233 234 217
3 235 219 218
3 234 235 218
3 236 220 219
3 235 236 219
3 237 221 220
3 236 237 220
3 238 222 221
3 237 238 221
3 239 223 222
3 238 239 222
3 224 240 226
3 225 241 224
3 224 241 240
3 226 240 242
3 226 242 227
3 227 242 243
3 227 243 228
3 228 243 244
3 228 244 229
3 244 245 229
3 229 245 230
3 230 245 246
3 230 246 231
3 231 246 247
3 231 247 232
3 248 233 232
3 248 232 247
3 249 234 233
3 248 249 233
3 250 235 234
3 249 250 234
3 251 236 235
3 250 251 235
3 252 237 236
3 251 252 236
3 253 238 237
3 252 253 237
3 254 239 238
3 253 254 238
3 240 255 242
3 241 256 240
3 240 256 255
3 242 255 257
3 242 257 243
3 243 257 258
3 243 258 244
3 244 258 259
3 244 259 245
3 245 259 260
3 245 260 246
3 246 260 261
3 246 261 247
3 248 247 261
3 262 249 248
3 261 262 248
3 263 250 249
3 262 263 249
3 264 251 250
3 263 264 250
3 265 252 251
3 264 265 251
3 266 253 252
3 265 266 252
3 267 254 253
3 266 267 253
3 255 268 257
3 256 269 255
3 255 269 268
3 257 268 270
3 257 270 258
3 258 270 271
3 258 271 259
3 259 271 272
3 259 272 260
3 260 272 273
3 260 273 261
3 274 262 261
3 261 273 274
3 275 263 262
3 274 275 262
3 276 264 263
3 275 276 263
3 277 265 264
3 276 277 264
3 278 266 265
3 277 278 265
3 279 267 266
3 278 279 266
3 268 280 270
3 269 281 268
3 268 281 280
3 270 280 282
3 270 282 271
3 271 282 283
3 271 283 272
3 283 284 272
3 272 284 273
3 285 275 274
3 273 284 285
3 285 274 273
3 286 276 275
3 285 286 275
3 287 277 276
3 286 287 276
3 288 278 277
3 287 288 277
3 289 279 278
3 288 289 278
3 280 290 282
3 281 291 280
3 280 291 290
3 282 290 292
3 282 292 283
3 283 292 293
3 283 293 284
3 284 293 294
3 284 294 285
3 295 286 285
3 295 285 294
3 296 287 286
3 295 296 286
3 297 288 287
3 296 297 287
3 298 289 288
3 297 298 288
3 290 299 292
3 291 300 290
3 290 300 299
3 292 299 301
3 292 301 293
3 293 301 302
3 293 302 294
3 294 302 295
3 303 296 295
3 303 295 302
3 304 297 296
3 303 304 296
3 305 298 297
3 304 305 297
3 299 306 301
3 300 307 299
3 299 307 306
3 301 306 308
3 301 308 302
3 309 303 302
3 302 308 309
3 310 304 303
3 309 310 303
3 311 305 304
3 310 311 304
3 306 312 308
3 307 313 306
3 306 313 312
3 314 310 309
3 308 312 314
3 314 309 308
3 315 311 310
3 314 315 310
3 312 316 314
3 313 317 312
3 312 317 316
3 318 315 314
3 318 314 316
3 317 319 316
3 319 318 316
CELL_TYPES 578
5
5
5
5
5
5
5
5
5
5
5
5
5
5
5
5
5
5
5
5
5
5
5
5
5
5
5
5
5
5
5
5
5
5
5
5
5
5
5
5
5
5
5
5
5
5
5
5
5
5
5
5
5
5
5
5
5
5
5
5
5
5
5
5
5
5
5
5
5
5
5
5
5
5
5
5
5
5
5
5
5
5
5
5
5
5
5
5
5
5
5
5
5
5
5
5
5
5
5
5
5
5
5
5
5
5
5
5
5
5
5
5
5
5
5
5
5
5
5
5
5
5
5
5
5
5
5
5
5
5
5
5
5
5
5
5
5
5
5
5
5
5
5
5
5
5
5
5
5
5
5
5
5
5
5
5
5
5
5
5
5
5
5
5
5
5
5
5
5
5
5
5
5
5
5
5
5
5
5
5
5
5
5
5
5
5
5
5
5
5
5
5
5
5
5
5
5
5
5
5
5
5
5
5
5
5
5
5
5
5
5
5
5
5
5
5
5
5
5
5
5
5
5
5
5
5
5
5
5
5
5
5
5
5
5
5
5
5
5
5
5
5
5
5
5
5
5
5
5
5
5
5
5
5
5
5
5
5
5
5
5
5
5
5
5
5
5
5
5
5
5
5
5
5
5
5
5
5
5
5
5
5
5
5
5
5
5
5
5
5
5
5
5
5
5
5
5
5
5
5
5
5
5
5
5
5
5
5
5
5
5
5
5
5
5
5
5
5
5
5
5
5
5
5
5
5
5
5
5
5
5
5
5
5
5
5
5
5
5
5
5
5
5
5
5
5
5
5
5
5
5
5
5
5
5
5
5
5
5
5
5
5
5
5
5
5
5
5
5
5
5
5
5
5
5
5
5
5
5
5
5
5
5
5
5
5
5
5
5
5
5
5
5
5
5
5
5
5
5
5
5
5
5
5
5
5
5
5
5
5
5
5
5
5
5
5
5
5
5
5
5
5
5
5
5
5
5
5
5
5
5
5
5
5
5
5
5
5
5
5
5
5
5
5
5
5
5
5
5
5
5
5
5
5
5
5
5
5
5
5
5
5
5
5
5
5
5
5
5
5
5
5
5
5
5
5
5
5
5
5
5
5
5
5
5
5
5
5
5
5
5
5
5
5
5
5
5
5
5
5
5
5
5
5
5
5
5
5
5
5
5
5
5
5
5
5
5
5
5
5
5
5
5
5
5
5
5
5
5
5
5
5
5
5
5
5
5
5
5
5
5
5
5
5
5
5
5
5
5
5
5
5
5
5
5
5
5
5
5
5
5
5
5
5
5
5
5
5
5
5
5
5
5
5
5
5
5
5
POINT_DATA 320
SCALARS theta_e float 1
LOOKUP_TABLE default
1.000001
1.000001
1.000001
1.000001
1.000001
1.000001
1.000001
1.000001
1.000001
1.000001
1.000001
1.000001
1.000001
1.000001
1.000001
1.000001
1.000001
1.000001
1.000001
1.000001
1.000001
1.000001
1.000001
1.000001
1.000001
1.000001
1.000001
1.000001
1.000001
1.000001
1.000001
1.000001
1.000001
1.000001
1.000001
1.000001
1.000001
1.000001
1.000001
1.000001
1.000001
1.000001
1.000001
1.000001
1.000001
1.000001
1.000001
1.000001
1.000001
1.000001
1.000001
1.000001
1.000001
1.000001
1.000001
1.000001
1.000001
1.000001
1.000001
1.000001
1.000001
1.000001
1.000001
1.000001
1.000001
1.000001
1.000001
1.000001
1.000001
1.000001
1.000001
1.000001
1.000001
1.000001
1.000001
1.000001
1.000001
1.000001
1.000001
1.000001
1.000001
1.000001
1.000001
1.000001
1.000001
1.000001
1.000001
1.000001
1.000001
1.000001
1.000001
1.000001
1.000001
1.000001
1.000001
1.000001
1.000001
1.000001
1.000001
1.000001
1.000001
1.000001
1.000001
1.000001
1.000001
1.000001
1.000001
1.000001
1.000001
1.000001
1.000001
1.000001
1.000001
1.000001
1.000001
1.000001
1.000001
1.000001
1.000001
1.000001
1.000001
1.000001
1.000001
1.000001
0.999997
1.000001
1.000000
1.000001
1.000001
1.000001
1.000001
1.000001
1.000001
1.000001
1.000001
1.000001
1.000001
1.000001
1.000001
1.000001
1.000001
1.000001
1.000001
1.000001
1.000001
1.000001
1.000001
1.000001
1.000001
0.999996
0.999983
0.999988
0.999997
1.000001
0.999999
1.000001
1.000001
1.000001
1.000001
1.000001
1.000001
1.000001
1.000001
1.000001
1.000001
1.000001
1.000001
1.000001
1.000001
1.000001
1.000001
0.999999
1.000000
0.999975
0.999986
0.999976
0.999985
0.999995
1.000001
1.000001
1.000001
1.000001
1.000001
1.000001
1.000001
1.000001
1.000001
1.000001
1.000001
1.000001
1.000001
1.000001
1.000001
0.999996
0.999975
0.999982
0.999975
0.999985
0.999999
1.000001
1.000001
1.000001
1.000001
1.000001
1.000001
1.000001
1.000001
1.000001
1.000001
1.000001
1.000001
1.000001
1.000001
0.999995
0.999982
0.999987
0.999995
1.000001
1.000001
1.000001
1.000001
1.000001
1.000001
1.000001
1.000001
1.000001
1.000001
1.000001
1.000001
1.000001
1.000001
0.999999
0.999996
1.000001
1.000001
1.000001
1.000001
1.000001
1.000001
1.000001
1.000001
1.000001
1.000001
1.000001
1.000001
1.000001
1.000001
1.000001
1.000001
1.000001
1.000001
1.000001
1.000001
1.000001
1.000001
1.000001
1.000001
1.000001
1.000001
1.000001
1.000001
1.000001
1.000001
1.000001
1.000001
1.000001
1.000001
1.000001
1.000001
1.000001
1.000001
1.000001
1.000001
1.000001
1.000001
1.000001
1.000001
1.000001
1.000001
1.000001
1.000001
1.000001
1.000001
1.000001
1.000001
1.000001
1.000001
1.000001
1.000001
1.000001
1.000001
1.000001
1.000001
1.000001
1.000001
1.000001
1.000001
1.000001
1.000001
1.000001
1.000001
1.000001
1.000001
1.000001
1.000001
1.000001
1.000001
1.000001
1.000001
1.000001
1.000001
1.000001
1.000001
1.000001
1.000001
1.000001
1.000001
1.000001
1.000001
1.000001
VECTORS fa_u float
0.000000 0.000000 0.000000
0.000000 0.000000 0.000000
0.000000 0.000000 0.000000
0.000000 0.000000 0.000000
0.000000 0.000000 0.000000
0.000000 0.000000 0.000000
0.000000 0.000000 0.000000
0.000000 0.000000 0.000000
0.000000 0.000000 0.000000
0.000000 0.000000 0.000000
0.000000 0.000000 0.000000
0.000000 0.000000 0.000000
0.000000 0.000000 0.000000
0.000000 0.000000 0.000000
0.000000 0.000000 0.000000
0.000000 0.000000 0.000000
0.000000 0.000000 0.000000
0.000000 0.000000 0.000000
0.000000 0.000000 0.000000
0.000000 0.000000 0.000000
0.000000 0.000000 0.000000
0.000000 0.000000 0.000000
0.000000 0.000000 0.000000
0.000000 0.000000 0.000000
0.000000 0.000000 0.000000
0.000000 0.000000 0.000000
0.000000 0.000000 0.000000
0.000000 0.000000 0.000000
0.000000 0.000000 0.000000
0.000000 0.000000 0.000000
0.000000 0.000000 0.000000
0.000000 0.000000 0.000000
0.000000 0.000000 0.000000
0.000000 0.000000 0.000000
0.000000 0.000000 0.000000
0.000000 0.000000 0.000000
0.000000 0.000000 0.000000
0.000000 0.000000 0.000000
0.000000 0.000000 0.000000
0.000000 0.000000 0.000000
0.000000 0.000000 0.000000
0.000000 0.000000 0.000000
0.000000 0.000000 0.000000
0.000000 0.000000 0.000000
0.000000 0.000000 0.000000
0.000000 0.000000 0.000000
0.000000 0.000000 0.000000
0.000000 0.000000 0.000000
0.000000 0.000000 0.000000
0.000000 0.000000 0.000000
0.000000 0.000000 0.000000
0.000000 0.000000 0.000000
0.000000 0.000000 0.000000
0.000000 0.000000 0.000000
0.000000 0.000000 0.000000
0.000000 0.000000 0.000000
0.000000 0.000000 0.000000
0.000000 0.000000 0.000000
0.000000 0.000000 0.000000
0.000000 0.000000 0.000000
0.000000 0.000000 0.000000
0.000000 0.000000 0.000000
0.000000 0.000000 0.000000
0.000000 0.000000 0.000000
0.000000 0.000000 0.000000
0.000000 0.000000 0.000000
0.000000 0.000000 0.000000
0.000000 0.000000 0.000000
0.000000 0.000000 0.000000
0.000000 0.000000 0.000000
0.000000 0.000000 0.000000
0.000000 0.000000 0.000000
0.000000 0.000000 0.000000
0.000000 0.000000 0.000000
0.000000 0.000000 0.000000
0.000000 0.000000 0.000000
0.000000 0.000000 0.000000
0.000000 0.000000 0.000000
0.000000 0.000000 0.000000
0.000000 0.000000 0.000000
0.000000 0.000000 0.000000
0.000000 0.000000 0.000000
0.000000 0.000000 0.000000
0.000000 0.000000 0.000000
0.000000 0.000000 0.000000
0.000000 0.000000 0.000000
0.000000 0.000000 0.000000
0.000000 0.000000 0.000000
0.000000 0.000000 0.000000
0.000000 0.000000 0.000000
0.000000 0.000000 0.000000
0.000000 0.000000 0.000000
0.000000 0.000000 0.000000
0.000000 0.000000 0.000000
0.000000 0.000000 0.000000
0.000000 0.000000 0.000000
0.000000 0.000000 0.000000
0.000000 0.000000 0.000000
0.000000 0.000000 0.000000
0.000000 0.000000 0.000000
0.000000 0.000000 0.000000
0.000000 0.000000 0.000000
0.000000 0.000000 0.000000
0.000000 0.000000 0.000000
0.000000 0.000000 0.000000
0.000000 0.000000 0.000000
0.000000 0.000000 0.000000
0.000000 0.000000 0.000000
0.000000 0.000000 0.000000
0.000000 0.000000 0.000000
0.000000 0.000000 0.000000
0.000000 0.000000 0.000000
0.000000 0.000000 0.000000
0.000000 0.000000 0.000000
0.000000 0.000000 0.000000
0.000000 0.000000 0.000000
0.000000 0.000000 0.000000
0.000000 0.000000 0.000000
0.000000 0.000000 0.000000
0.000000 0.000000 0.000000
0.000000 0.000000 0.000000
0.000000 0.000000 0.000000
0.000000 0.000000 0.000000
0.000000 0.000000 0.000000
0.000000 0.000000 0.000000
0.000000 0.000000 0.000000
0.000000 0.000000 0.000000
0.000000 0.000000 0.000000
0.000000 0.000000 0.000000
0.000000 0.000000 0.000000
0.000000 0.000000 0.000000
0.000000 0.000000 0.000000
0.000000 0.000000 0.000000
0.000000 0.000000 0.000000
0.000000 0.000000 0.000000
0.000000 0.000000 0.000000
0.000000 0.000000 0.000000
0.000000 0.000000 0.000000
0.000000 0.000000 0.000000
0.000000 0.000000 0.000000
0.000000 0.000000 0.000000
0.000000 0.000000 0.000000
0.000000 0.000000 0.000000
0.000000 0.000000 0.000000
0.000000 0.000000 0.000000
0.000000 0.000000 0.000000
0.000000 0.000000 0.000000
0.000000 0.000000 0.000000
0.000000 0.000000 0.000000
0.000000 0.000000 0.000000
0.000000 0.000000 0.000000
0.000000 0.000000 0.000000
0.000000 0.000000 0.000000
0.000000 0.000000 0.000000
0.000000 0.000000 0.000000
0.000000 0.000000 0.000000
0.000000 0.000000 0.000000
0.000000 0.000000 0.000000
0.000000 0.000000 0.000000
0.000000 0.000000 0.000000
0.000000 0.000000 0.000000
0.000000 0.000000 0.000000
0.000000 0.000000 0.000000
0.000000 0.000000 0.000000
0.000000 0.000000 0.000000
0.000000 0.000000 0.000000
0.000000 0.000000 0.000000
0.000000 0.000000 0.000000
0.000000 0.000000 0.000000
0.000000 0.000000 0.000000
0.000000 0.000000 0.000000
0.000000 0.000000 0.000000
0.000000 0.000000 0.000000
0.000000 0.000000 0.000000
0.000000 0.000000 0.000000
0.000000 0.000000 0.000000
0.000000 0.000000 0.000000
0.000000 0.000000 0.000000
0.000000 0.000000 0.000000
0.000000 0.000000 0.000000
0.000000 0.000000 0.000000
0.000000 0.000000 0.000000
0.000000 0.000000 0.000000
0.000000 0.000000 0.000000
0.000000 0.000000 0.000000
0.000000 0.000000 0.000000
0.000000 0.000000 0.000000
0.000000 0.000000 0.000000
0.000000 0.000000 0.000000
0.000000 0.000000 0.000000
0.000000 0.000000 0.000000
0.000000 0.000000 0.000000
0.000000 0.000000 0.000000
0.000000 0.000000 0.000000
0.000000 0.000000 0.000000
0.000000 0.000000 0.000000
0.000000 0.000000 0.000000
0.000000 0.000000 0.000000
0.000000 0.000000 0.000000
0.000000 0.000000 0.000000
0.000000 0.000000 0.000000
0.000000 0.000000 0.000000
0.000000 0.000000 0.000000
0.000000 0.000000 0.000000
0.000000 0.000000 0.000000
0.000000 0.000000 0.000000
0.000000 0.000000 0.000000
0.000000 0.000000 0.000000
0.000000 0.000000 0.000000
0.000000 0.000000 0.000000
0.000000 0.000000 0.000000
0.000000 0.000000 0.000000
0.000000 0.000000 0.000000
0.000000 0.000000 0.000000
0.000000 0.000000 0.000000
0.000000 0.000000 0.000000
0.000000 0.000000 0.000000
0.000000 0.000000 0.000000
0.000000 0.000000 0.000000
0.000000 0.000000 0.000000
0.000000 0.000000 0.000000
0.000000 0.000000 0.000000
0.000000 0.000000 0.000000
0.000000 0.000000 0.000000
0.000000 0.000000 0.000000
0.000000 0.000000 0.000000
0.000000 0.000000 0.000000
0.000000 0.000000 0.000000
0.000000 0.000000 0.000000
0.000000 0.000000 0.000000
0.000000 0.000000 0.000000
0.000000 0.000000 0.000000
0.000000 0.000000 0.000000
0.000000 0.000000 0.000000
0.000000 0.000000 0.000000
0.000000 0.000000 0.000000
0.000000 0.000000 0.000000
0.000000 0.000000 0.000000
0.000000 0.000000 0.000000
0.000000 0.000000 0.000000
0.000000 0.000000 0.000000
0.000000 0.000000 0.000000
0.000000 0.000000 0.000000
0.000000 0.000000 0.000000
0.000000 0.000000 0.000000
0.000000 0.000000 0.000000
0.000000 0.000000 0.000000
0.000000 0.000000 0.000000
0.000000 0.000000 0.000000
0.000000 0.000000 0.000000
0.000000 0.000000 0.000000
0.000000 0.000000 0.000000
0.000000 0.000000 0.000000
0.000000 0.000000 0.000000
0.000000 0.000000 0.000000
0.000000 0.000000 0.000000
0.000000 0.000000 0.000000
0.000000 0.000000 0.000000
0.000000 0.000000 0.000000
0.000000 0.000000 0.000000
0.000000 0.000000 0.000000
0.000000 0.000000 0.000000
0.000000 0.000000 0.000000
0.000000 0.000000 0.000000
0.000000 0.000000 0.000000
0.000000 0.000000 0.000000
0.000000 0.000000 0.000000
0.000000 0.000000 0.000000
0.000000 0.000000 0.000000
0.000000 0.000000 0.000000
0.000000 0.000000 0.000000
0.000000 0.000000 0.000000
0.000000 0.000000 0.000000
0.000000 0.000000 0.000000
0.000000 0.000000 0.000000
0.000000 0.000000 0.000000
0.000000 0.000000 0.000000
0.000000 0.000000 0.000000
0.000000 0.000000 0.000000
0.000000 0.000000 0.000000
0.000000 0.000000 0.000000
0.000000 0.000000 0.000000
0.000000 0.000000 0.000000
0.000000 0.000000 0.000000
0.000000 0.000000 0.000000
0.000000 0.000000 0.000000
0.000000 0.000000 0.000000
0.000000 0.000000 0.000000
0.000000 0.000000 0.000000
0.000000 0.000000 0.000000
0.000000 0.000000 0.000000
0.000000 0.000000 0.000000
0.000000 0.000000 0.000000
0.000000 0.000000 0.000000
0.000000 0.000000 0.000000
0.000000 0.000000 0.000000
0.000000 0.000000 -50.000000
-50.000000 0.000000 -50.000000
-43.333191 0.000000 -45.688312
-45.491083 0.000000 -43.333167
-50.000000 0.000000 -50.000000
-36.666373 0.000000 -36.666374
-50.000000 0.000000 -45.081041
-39.969739 0.000000 -40.027075
-44.152206 0.000000 -29.999567
-50.000000 0.000000 -50.000000
-29.999568 0.000000 -44.847010
-33.448874 0.000000 -33.144829
-44.675610 0.000000 -39.869029
-36.786938 0.000000 -35.128542
-39.801211 0.000000 -23.332816
-50.000000 0.000000 -26.539065
-44.666705 0.000000 -50.000000
-23.332824 0.000000 -44.665241
-26.803865 0.000000 -39.364169
-30.225620 0.000000 -29.606145
-39.359288 0.000000 -33.368102
-33.655357 0.000000 -50.000000
-16.666171 0.000000 -16.666172
-50.000000 0.000000 -9.999641
