# vtk DataFile Version 2.0
CellBP Time: 8.92
ASCII
DATASET UNSTRUCTURED_GRID
POINTS 320 double
-50.000000 -50.000000 0.000000
-50.000000 -43.332949 0.000000
-45.688398 -45.491164 0.000000
-43.332874 -50.000000 0.000000
-50.000000 -36.665872 0.000000
-36.665856 -50.000000 0.000000
-45.081133 -39.969805 0.000000
-40.027206 -44.152294 0.000000
-29.998804 -50.000000 0.000000
-50.000000 -29.998830 0.000000
-44.847102 -33.448939 0.000000
-33.144924 -44.675705 0.000000
-39.869142 -36.787013 0.000000
-35.128673 -39.801331 0.000000
-23.331910 -50.000000 0.000000
-26.539161 -44.666755 0.000000
-50.000000 -23.331960 0.000000
-44.665282 -26.803952 0.000000
-39.364255 -30.225709 0.000000
-29.606290 -39.359389 0.000000
-33.368258 -33.655479 0.000000
-50.000000 -16.665342 0.000000
-16.665316 -50.000000 0.000000
-9.999033 -50.000000 0.000000
-19.964895 -44.588770 0.000000
-23.215893 -39.114706 0.000000
-44.691884 -20.096941 0.000000
-39.367863 -23.528175 0.000000
-34.106150 -26.937047 0.000000
-26.384430 -33.577298 0.000000
-29.156220 -28.926664 0.000000
-50.000000 -9.998944 0.000000
-44.666361 -13.410208 0.000000
-50.000000 -3.332829 0.000000
-3.333006 -50.000000 0.000000
3.332955 -50.000000 0.000000
-13.343652 -44.599025 0.000000
-6.684700 -44.610693 0.000000
-16.693701 -39.153289 0.000000
-20.106970 -33.342687 0.000000
-39.338179 -16.804775 0.000000
-34.018734 -20.274688 0.000000
-28.780967 -23.449106 0.000000
-23.510508 -27.350387 0.000000
-44.635456 -6.705567 0.000000
-39.293106 -10.101834 0.000000
-50.000000 3.333136 0.000000
-44.626756 -0.015602 0.000000
9.999039 -50.000000 0.000000
16.665364 -50.000000 0.000000
-0.016069 -44.618766 0.000000
6.651691 -44.635453 0.000000
-10.044693 -39.222604 0.000000
-3.368187 -39.220390 0.000000
-13.484238 -33.798720 0.000000
-16.709425 -28.271516 0.000000
-33.948076 -13.514035 0.000000
-28.601933 -16.892398 0.000000
-23.291735 -20.313101 0.000000
-18.660432 -23.283219 0.000000
-39.267543 -3.392816 0.000000
-33.904589 -6.796782 0.000000
-50.000000 9.999149 0.000000
-44.606767 6.673450 0.000000
-39.260938 3.325684 0.000000
-50.000000 16.665420 0.000000
23.331938 -50.000000 0.000000
29.998767 -50.000000 0.000000
13.317522 -44.662972 0.000000
19.989650 -44.700113 0.000000
3.307718 -39.245158 0.000000
9.971860 -39.290328 0.000000
-6.735316 -33.791387 0.000000
-0.032216 -33.829605 0.000000
-10.095905 -28.293246 0.000000
-13.122698 -22.897738 0.000000
-28.532414 -10.214869 0.000000
-23.067003 -13.663512 0.000000
-16.977699 -17.210197 0.000000
-33.884697 -0.065455 0.000000
-28.563190 -3.579219 0.000000
-44.564126 13.380519 0.000000
-39.190095 10.015079 0.000000
-33.905776 6.616046 0.000000
-50.000000 23.331915 0.000000
-44.557617 20.138229 0.000000
-50.000000 29.998858 0.000000
36.665789 -50.000000 0.000000
43.332876 -50.000000 0.000000
26.663263 -44.745308 0.000000
33.315310 -44.875971 0.000000
16.631713 -39.357696 0.000000
23.328294 -39.437095 0.000000
6.642912 -33.879545 0.000000
13.290758 -33.965470 0.000000
-3.345745 -28.363165 0.000000
3.357491 -28.451285 0.000000
-6.626018 -22.845844 0.000000
-9.967970 -17.314966 0.000000
-23.183862 -7.014770 0.000000
-17.811590 -10.335126 0.000000
-12.837494 -12.596054 0.000000
-28.607560 3.088576 0.000000
-23.265508 -0.468753 0.000000
-39.038880 16.746462 0.000000
-28.721018 9.926304 0.000000
-33.761450 13.318361 0.000000
-44.521693 26.716963 0.000000
-38.467757 23.892573 0.000000
-44.632349 33.085606 0.000000
-50.000000 36.666034 0.000000
-50.000000 43.333000 0.000000
39.922390 -45.069597 0.000000
45.474711 -45.660462 0.000000
50.000000 -50.000000 0.000000
36.626800 -39.981956 0.000000
30.012380 -39.458604 0.000000
19.904250 -34.092808 0.000000
26.585064 -34.319478 0.000000
9.988790 -28.513310 0.000000
16.610921 -28.660038 0.000000
0.051647 -22.960456 0.000000
6.812284 -23.157398 0.000000
-3.400077 -17.297187 0.000000
-6.845547 -10.981974 0.000000
-17.877104 -3.823972 0.000000
-12.553099 -7.036103 0.000000
-23.309961 6.072350 0.000000
-18.036776 2.449997 0.000000
-23.122576 12.095939 0.000000
-33.572125 19.788970 0.000000
-27.941441 16.885733 0.000000
-33.292899 24.722771 0.000000
-39.473599 30.052865 0.000000
-35.160372 28.137551 0.000000
-39.816016 35.101448 0.000000
-43.991698 39.982257 0.000000
-45.431023 45.685190 0.000000
-50.000000 50.000000 0.000000
44.117264 -39.899013 0.000000
50.000000 -43.332701 0.000000
39.639448 -35.047399 0.000000
33.462911 -33.424528 0.000000
22.984939 -28.817947 0.000000
28.731008 -29.247773 0.000000
13.460882 -23.121798 0.000000
20.054924 -23.439044 0.000000
3.381266 -17.588210 0.000000
10.126063 -17.841108 0.000000
0.151054 -11.941175 0.000000
-2.142806 -6.227692 0.000000
-7.326460 -3.658707 0.000000
-12.571828 -0.804812 0.000000
-18.166035 8.573507 0.000000
-12.956951 5.197035 0.000000
-18.638729 13.751910 0.000000
-21.504350 17.494862 0.000000
-28.940786 23.158647 0.000000
-24.346279 21.554637 0.000000
-30.323576 28.634895 0.000000
-34.253460 33.375566 0.000000
-36.955930 39.578085 0.000000
-39.838671 45.102774 0.000000
-43.332866 50.000000 0.000000
44.585255 -32.972055 0.000000
50.000000 -36.665588 0.000000
39.129318 -29.581823 0.000000
33.500620 -26.367633 0.000000
27.182924 -23.322071 0.000000
23.066305 -18.647764 0.000000
16.990453 -16.980411 0.000000
6.708853 -12.209437 0.000000
12.359290 -12.733990 0.000000
-3.378610 -1.490855 0.000000
3.889201 -6.942314 0.000000
1.021439 -2.119873 0.000000
-6.960336 2.308143 0.000000
-8.376599 7.776513 0.000000
-12.844694 11.931052 0.000000
-15.692096 17.699955 0.000000
-19.287255 22.982458 0.000000
-24.170956 27.354790 0.000000
-27.286311 33.626033 0.000000
-30.406642 39.161211 0.000000
-33.447785 44.738867 0.000000
-36.665757 50.000000 0.000000
44.547734 -26.499872 0.000000
50.000000 -29.998503 0.000000
39.040032 -23.179238 0.000000
33.449730 -19.899933 0.000000
28.039992 -16.574010 0.000000
22.682327 -13.123967 0.000000
17.176274 -9.906476 0.000000
10.889063 -6.625248 0.000000
-1.354157 2.310933 0.000000
6.189211 -1.729495 0.000000
2.900713 1.598160 0.000000
-3.512957 7.119844 0.000000
-6.313537 12.441355 0.000000
-9.629585 17.705160 0.000000
-13.167200 23.113147 0.000000
-17.316636 28.185246 0.000000
-20.570702 33.474424 0.000000
-23.665897 39.064016 0.000000
-26.830886 44.585380 0.000000
-29.998809 50.000000 0.000000
44.528702 -19.930610 0.000000
50.000000 -23.331632 0.000000
39.036317 -16.594063 0.000000
33.576194 -13.281176 0.000000
28.150260 -9.964882 0.000000
22.725522 -6.604470 0.000000
17.264197 -3.336540 0.000000
11.947207 0.199849 0.000000
1.921824 6.260815 0.000000
6.960082 3.797261 0.000000
-0.217365 11.912534 0.000000
-3.262556 17.530446 0.000000
-6.700293 22.977747 0.000000
-10.567656 28.267554 0.000000
-13.723951 33.661419 0.000000
-16.945632 39.080373 0.000000
-20.140539 44.548458 0.000000
-23.332019 50.000000 0.000000
44.536278 -13.303727 0.000000
50.000000 -16.665080 0.000000
39.079906 -9.966684 0.000000
33.646718 -6.641059 0.000000
28.236145 -3.307576 0.000000
22.847173 0.017996 0.000000
17.535154 3.355157 0.000000
12.205196 6.593675 0.000000
6.705143 10.805680 0.000000
3.301846 17.196529 0.000000
-0.081106 22.852213 0.000000
-3.518532 28.312784 0.000000
-6.831308 33.774453 0.000000
-10.137353 39.170580 0.000000
-13.435698 44.563568 0.000000
-16.665477 50.000000 0.000000
44.554329 -6.654756 0.000000
50.000000 -9.998881 0.000000
39.123364 -3.321343 0.000000
33.713386 0.008767 0.000000
28.333199 3.344232 0.000000
23.001173 6.693676 0.000000
17.833051 10.021918 0.000000
12.656193 12.231681 0.000000
9.789076 17.234238 0.000000
6.478287 22.722367 0.000000
3.188921 28.269741 0.000000
-0.115863 33.734783 0.000000
-3.425137 39.168627 0.000000
-6.725398 44.581836 0.000000
-9.999163 50.000000 0.000000
44.575647 0.001879 0.000000
50.000000 -3.332957 0.000000
39.166862 3.331867 0.000000
33.779310 6.655557 0.000000
28.424098 9.994921 0.000000
23.046473 13.416376 0.000000
16.948998 17.022757 0.000000
12.901680 22.669698 0.000000
9.814948 28.232070 0.000000
6.604295 33.718746 0.000000
3.286600 39.164433 0.000000
-0.029835 44.584587 0.000000
-3.333035 50.000000 0.000000
44.586732 6.665508 0.000000
50.000000 3.332934 0.000000
39.198083 9.981921 0.000000
33.843418 13.277009 0.000000
28.541982 16.584688 0.000000
23.386980 20.084318 0.000000
18.531840 23.112439 0.000000
16.393177 28.298657 0.000000
13.328987 33.754763 0.000000
9.986617 39.181960 0.000000
6.666040 44.584356 0.000000
3.333023 50.000000 0.000000
44.608903 13.317936 0.000000
50.000000 9.999001 0.000000
39.251358 16.612433 0.000000
33.931899 19.862854 0.000000
28.612337 22.925982 0.000000
23.279659 27.207557 0.000000
19.901356 33.303048 0.000000
16.573854 39.040930 0.000000
13.268408 44.526751 0.000000
9.999107 50.000000 0.000000
44.632077 19.972992 0.000000
50.000000 16.665337 0.000000
39.298500 23.262134 0.000000
34.043816 26.514725 0.000000
28.965796 28.539450 0.000000
26.202414 33.410118 0.000000
23.066766 38.968820 0.000000
19.888640 44.507055 0.000000
16.665357 50.000000 0.000000
44.639817 26.642930 0.000000
50.000000 23.331925 0.000000
39.293384 29.966709 0.000000
33.212419 33.371278 0.000000
29.412167 39.045848 0.000000
26.422438 44.505970 0.000000
23.331896 50.000000 0.000000
44.775005 33.291807 0.000000
50.000000 29.998759 0.000000
39.738210 36.596315 0.000000
34.831090 39.525634 0.000000
32.833867 44.514301 0.000000
29.998707 50.000000 0.000000
44.978269 39.877872 0.000000
50.000000 36.665780 0.000000
39.734918 43.969044 0.000000
36.665722 50.000000 0.000000
45.621322 45.409822 0.000000
50.000000 43.332868 0.000000
43.332767 50.000000 0.000000
50.000000 50.000000 0.000000
CELLS 578 2312
3 1 0 2
3 0 3 2
3 4 1 6
3 6 1 2
3 3 5 7
3 3 7 2
3 6 2 7
3 9 4 10
3 10 4 6
3 5 8 11
3 7 5 11
3 10 6 12
3 12 6 7
3 7 11 13
3 7 13 12
3 8 14 15
3 11 8 15
3 16 9 17
3 17 9 10
3 17 10 18
3 18 10 12
3 11 15 19
3 13 11 19
3 18 12 20
3 13 19 20
3 20 12 13
3 14 22 24
3 15 14 24
3 15 24 25
3 19 15 25
3 21 16 26
3 26 16 17
3 26 17 27
3 27 17 18
3 27 18 28
3 28 18 20
3 19 25 29
3 19 29 20
3 28 20 30
3 30 20 29
3 31 21 32
3 32 21 26
3 22 23 36
3 24 22 36
3 23 34 37
3 36 23 37
3 24 36 38
3 25 24 38
3 25 38 39
3 29 25 39
3 32 26 40
3 40 26 27
3 40 27 41
3 41 27 28
3 41 28 42
3 42 28 30
3 29 39 43
3 29 43 30
3 42 30 43
3 33 31 44
3 44 31 32
3 44 32 45
3 45 32 40
3 46 33 47
3 47 33 44
3 34 35 50
3 37 34 50
3 35 48 51
3 50 35 51
3 36 37 52
3 38 36 52
3 37 50 53
3 52 37 53
3 38 52 54
3 39 38 54
3 39 54 55
3 43 39 55
3 45 40 56
3 56 40 41
3 56 41 57
3 57 41 42
3 57 42 58
3 58 42 43
3 43 55 59
3 43 59 58
3 47 44 60
3 60 44 45
3 60 45 61
3 61 45 56
3 62 46 63
3 63 46 47
3 63 47 64
3 64 47 60
3 48 49 68
3 51 48 68
3 49 66 69
3 68 49 69
3 50 51 70
3 53 50 70
3 51 68 71
3 70 51 71
3 52 53 72
3 54 52 72
3 53 70 73
3 72 53 73
3 54 72 74
3 55 54 74
3 55 74 75
3 59 55 75
3 61 56 76
3 76 56 57
3 76 57 77
3 77 57 58
3 77 58 78
3 59 75 78
3 78 58 59
3 64 60 79
3 79 60 61
3 79 61 80
3 80 61 76
3 65 62 81
3 81 62 63
3 81 63 82
3 82 63 64
3 82 64 83
3 83 64 79
3 84 65 85
3 85 65 81
3 66 67 89
3 69 66 89
3 67 87 90
3 89 67 90
3 68 69 91
3 71 68 91
3 69 89 92
3 91 69 92
3 70 71 93
3 73 70 93
3 71 91 94
3 93 71 94
3 72 73 95
3 74 72 95
3 73 93 96
3 95 73 96
3 74 95 97
3 75 74 97
3 75 97 98
3 78 75 98
3 80 76 99
3 99 76 77
3 99 77 100
3 100 77 78
3 100 78 101
3 98 101 78
3 83 79 102
3 102 79 80
3 102 80 103
3 103 80 99
3 85 81 104
3 104 81 82
3 105 83 102
3 104 82 106
3 106 82 83
3 106 83 105
3 86 84 107
3 107 84 85
3 107 85 108
3 108 85 104
3 109 86 107
3 110 86 109
3 87 88 112
3 90 87 112
3 112 88 113
3 88 114 113
3 90 112 115
3 89 90 116
3 92 89 116
3 116 90 115
3 91 92 117
3 94 91 117
3 92 116 118
3 117 92 118
3 93 94 119
3 96 93 119
3 94 117 120
3 119 94 120
3 95 96 121
3 97 95 121
3 96 119 122
3 121 96 122
3 97 121 123
3 98 97 123
3 98 123 124
3 98 124 101
3 103 99 125
3 125 99 100
3 125 100 126
3 126 100 101
3 126 101 124
3 105 102 127
3 127 102 103
3 127 103 128
3 128 103 125
3 129 105 127
3 108 104 130
3 130 104 106
3 130 106 131
3 131 106 105
3 131 105 129
3 108 130 132
3 109 107 133
3 133 107 108
3 133 108 134
3 108 132 134
3 135 109 133
3 111 110 136
3 136 110 109
3 136 109 135
3 137 111 136
3 138 111 137
3 112 113 139
3 115 112 139
3 114 140 113
3 140 139 113
3 139 141 115
3 116 115 142
3 118 116 142
3 142 115 141
3 117 118 143
3 120 117 143
3 118 142 144
3 143 118 144
3 119 120 145
3 122 119 145
3 120 143 146
3 145 120 146
3 121 122 147
3 123 121 147
3 122 145 148
3 147 122 148
3 123 147 149
3 124 123 149
3 124 149 150
3 151 126 124
3 124 150 151
3 128 125 152
3 152 125 126
3 152 126 151
3 129 127 153
3 153 127 128
3 128 152 154
3 153 128 154
3 155 129 153
3 131 129 156
3 156 129 155
3 132 130 157
3 130 131 157
3 157 131 158
3 131 156 158
3 132 157 159
3 132 159 134
3 135 133 160
3 160 133 134
3 160 134 159
3 136 135 161
3 135 160 161
3 162 137 136
3 161 162 136
3 163 138 137
3 162 163 137
3 139 164 141
3 140 165 139
3 139 165 164
3 141 164 166
3 141 166 142
3 166 167 142
3 144 142 167
3 167 168 144
3 143 144 168
3 146 143 168
3 168 169 146
3 145 146 170
3 148 145 170
3 170 146 169
3 147 148 171
3 149 147 171
3 148 170 172
3 171 148 172
3 173 151 150
3 149 171 174
3 150 149 174
3 150 174 175
3 150 175 173
3 154 152 176
3 152 151 176
3 176 151 173
3 154 176 177
3 155 153 178
3 177 178 154
3 154 178 153
3 156 155 179
3 155 178 179
3 180 158 156
3 179 180 156
3 181 159 157
3 180 181 158
3 181 157 158
3 182 160 159
3 181 182 159
3 183 161 160
3 182 183 160
3 184 162 161
3 184 161 183
3 185 163 162
3 184 185 162
3 164 186 166
3 165 187 164
3 164 187 186
3 166 186 188
3 166 188 167
3 167 188 189
3 167 189 168
3 168 189 190
3 168 190 169
3 169 190 191
3 169 191 170
3 192 172 170
3 170 191 192
3 192 193 172
3 171 172 193
3 174 171 193
3 194 173 175
3 176 173 194
3 175 174 195
3 193 195 174
3 195 196 175
3 175 196 194
3 197 177 176
3 194 197 176
3 198 178 177
3 197 198 177
3 199 179 178
3 198 199 178
3 200 180 179
3 199 200 179
3 201 181 180
3 200 201 180
3 202 182 181
3 201 202 181
3 203 183 182
3 202 203 182
3 204 184 183
3 203 204 183
3 205 185 184
3 204 205 184
3 186 206 188
3 187 207 186
3 186 207 206
3 188 206 208
3 188 208 189
3 189 208 209
3 189 209 190
3 190 209 210
3 190 210 191
3 191 210 211
3 191 211 192
3 192 211 212
3 192 212 193
3 193 212 213
3 193 213 195
3 214 197 194
3 214 194 196
3 195 213 215
3 195 215 196
3 196 215 214
3 216 198 197
3 214 216 197
3 217 199 198
3 216 217 198
3 218 200 199
3 217 218 199
3 219 201 200
3 218 219 200
3 220 202 201
3 219 220 201
3 221 203 202
3 220 221 202
3 222 204 203
3 221 222 203
3 223 205 204
3 222 223 204
3 206 224 208
3 207 225 206
3 206 225 224
3 208 224 226
3 208 226 209
3 209 226 227
3 209 227 210
3 210 227 228
3 210 228 211
3 211 228 229
3 211 229 212
3 212 229 230
3 212 230 213
3 213 230 231
3 213 231 215
3 232 216 214
3 215 231 232
3 232 214 215
3 233 217 216
3 232 233 216
3 234 218 217
3 233 234 217
3 235 219 218
3 234 235 218
3 236 220 219
3 235 236 219
3 237 221 220
3 236 237 220
3 238 222 221
3 237 238 221
3 239 223 222
3 238 239 222
3 224 240 226
3 225 241 224
3 224 241 240
3 226 240 242
3 226 242 227
3 227 242 243
3 227 243 228
3 228 243 244
3 228 244 229
3 244 245 229
3 229 245 230
3 230 245 246
3 230 246 231
3 231 246 247
3 231 247 232
3 248 233 232
3 248 232 247
3 249 234 233
3 248 249 233
3 250 235 234
3 249 250 234
3 251 236 235
3 250 251 235
3 252 237 236
3 251 252 236
3 253 238 237
3 252 253 237
3 254 239 238
3 253 254 238
3 240 255 242
3 241 256 240
3 240 256 255
3 242 255 257
3 242 257 243
3 243 257 258
3 243 258 244
3 244 258 259
3 244 259 245
3 245 259 260
3 245 260 246
3 246 260 261
3 246 261 247
3 248 247 261
3 262 249 248
3 261 262 248
3 263 250 249
3 262 263 249
3 264 251 250
3 263 264 250
3 265 252 251
3 264 265 251
3 266 253 252
3 265 266 252
3 267 254 253
3 266 267 253
3 255 268 257
3 256 269 255
3 255 269 268
3 257 268 270
3 257 270 258
3 258 270 271
3 258 271 259
3 259 271 272
3 259 272 260
3 260 272 273
3 260 273 261
3 274 262 261
3 261 273 274
3 275 263 262
3 274 275 262
3 276 264 263
3 275 276 263
3 277 265 264
3 276 277 264
3 278 266 265
3 277 278 265
3 279 267 266
3 278 279 266
3 268 280 270
3 269 281 268
3 268 281 280
3 270 280 282
3 270 282 271
3 271 282 283
3 271 283 272
3 283 284 272
3 272 284 273
3 285 275 274
3 273 284 285
3 285 274 273
3 286 276 275
3 285 286 275
3 287 277 276
3 286 287 276
3 288 278 277
3 287 288 277
3 289 279 278
3 288 289 278
3 280 290 282
3 281 291 280
3 280 291 290
3 282 290 292
3 282 292 283
3 283 292 293
3 283 293 284
3 284 293 294
3 284 294 285
3 295 286 285
3 295 285 294
3 296 287 286
3 295 296 286
3 297 288 287
3 296 297 287
3 298 289 288
3 297 298 288
3 290 299 292
3 291 300 290
3 290 300 299
3 292 299 301
3 292 301 293
3 293 301 302
3 293 302 294
3 294 302 295
3 303 296 295
3 303 295 302
3 304 297 296
3 303 304 296
3 305 298 297
3 304 305 297
3 299 306 301
3 300 307 299
3 299 307 306
3 301 306 308
3 301 308 302
3 309 303 302
3 302 308 309
3 310 304 303
3 309 310 303
3 311 305 304
3 310 311 304
3 306 312 308
3 307 313 306
3 306 313 312
3 314 310 309
3 308 312 314
3 314 309 308
3 315 311 310
3 314 315 310
3 312 316 314
3 313 317 312
3 312 317 316
3 318 315 314
3 318 314 316
3 317 319 316
3 319 318 316
CELL_TYPES 578
5
5
5
5
5
5
5
5
5
5
5
5
5
5
5
5
5
5
5
5
5
5
5
5
5
5
5
5
5
5
5
5
5
5
5
5
5
5
5
5
5
5
5
5
5
5
5
5
5
5
5
5
5
5
5
5
5
5
5
5
5
5
5
5
5
5
5
5
5
5
5
5
5
5
5
5
5
5
5
5
5
5
5
5
5
5
5
5
5
5
5
5
5
5
5
5
5
5
5
5
5
5
5
5
5
5
5
5
5
5
5
5
5
5
5
5
5
5
5
5
5
5
5
5
5
5
5
5
5
5
5
5
5
5
5
5
5
5
5
5
5
5
5
5
5
5
5
5
5
5
5
5
5
5
5
5
5
5
5
5
5
5
5
5
5
5
5
5
5
5
5
5
5
5
5
5
5
5
5
5
5
5
5
5
5
5
5
5
5
5
5
5
5
5
5
5
5
5
5
5
5
5
5
5
5
5
5
5
5
5
5
5
5
5
5
5
5
5
5
5
5
5
5
5
5
5
5
5
5
5
5
5
5
5
5
5
5
5
5
5
5
5
5
5
5
5
5
5
5
5
5
5
5
5
5
5
5
5
5
5
5
5
5
5
5
5
5
5
5
5
5
5
5
5
5
5
5
5
5
5
5
5
5
5
5
5
5
5
5
5
5
5
5
5
5
5
5
5
5
5
5
5
5
5
5
5
5
5
5
5
5
5
5
5
5
5
5
5
5
5
5
5
5
5
5
5
5
5
5
5
5
5
5
5
5
5
5
5
5
5
5
5
5
5
5
5
5
5
5
5
5
5
5
5
5
5
5
5
5
5
5
5
5
5
5
5
5
5
5
5
5
5
5
5
5
5
5
5
5
5
5
5
5
5
5
5
5
5
5
5
5
5
5
5
5
5
5
5
5
5
5
5
5
5
5
5
5
5
5
5
5
5
5
5
5
5
5
5
5
5
5
5
5
5
5
5
5
5
5
5
5
5
5
5
5
5
5
5
5
5
5
5
5
5
5
5
5
5
5
5
5
5
5
5
5
5
5
5
5
5
5
5
5
5
5
5
5
5
5
5
5
5
5
5
5
5
5
5
5
5
5
5
5
5
5
5
5
5
5
5
5
5
5
5
5
5
5
5
5
5
5
5
5
5
5
5
5
5
5
5
5
5
5
5
5
5
5
5
5
5
5
5
5
5
5
5
5
5
5
5
5
5
5
5
5
5
5
5
5
5
5
5
5
5
5
5
5
5
5
5
5
5
5
5
5
5
5
5
5
5
5
5
5
5
5
5
5
5
5
5
5
5
5
5
5
5
5
5
POINT_DATA 320
SCALARS theta_e float 1
LOOKUP_TABLE default
1.000000
1.000000
1.000000
1.000000
1.000000
1.000000
1.000000
1.000000
1.000000
1.000000
1.000000
1.000000
1.000000
1.000000
1.000000
1.000000
1.000000
1.000000
1.000000
1.000000
1.000000
1.000000
1.000000
1.000000
1.000000
1.000000
1.000000
1.000000
1.000000
1.000000
1.000000
1.000000
1.000000
1.000000
1.000000
1.000000
1.000000
1.000000
1.000000
1.000000
1.000000
1.000000
1.000000
1.000000
1.000000
1.000000
1.000000
1.000000
1.000000
1.000000
1.000000
1.000000
1.000000
1.000000
1.000000
1.000000
1.000000
1.000000
1.000000
1.000000
1.000000
1.000000
1.000000
1.000000
1.000000
1.000000
1.000000
1.000000
1.000000
1.000000
1.000000
1.000000
1.000000
1.000000
1.000000
1.000000
1.000000
1.000000
1.000000
1.000000
1.000000
1.000000
1.000000
1.000000
1.000000
1.000000
1.000000
1.000000
1.000000
1.000000
1.000000
1.000000
1.000000
1.000000
1.000000
1.000000
1.000000
1.000000
1.000000
1.000000
1.000000
1.000000
1.000000
1.000000
1.000000
1.000000
1.000000
1.000000
1.000000
1.000000
1.000000
1.000000
1.000000
1.000000
1.000000
1.000000
1.000000
1.000000
1.000000
1.000000
1.000000
1.000000
1.000000
1.000000
1.000000
1.000000
1.000000
1.000000
1.000000
1.000000
1.000000
1.000000
1.000000
1.000000
1.000000
1.000000
1.000000
1.000000
1.000000
1.000000
1.000000
1.000000
1.000000
1.000000
1.000000
1.000000
1.000000
1.000000
1.000000
1.000000
1.000000
1.000000
1.000000
1.000000
1.000000
1.000000
1.000000
1.000000
1.000000
1.000000
1.000000
1.000000
1.000000
1.000000
1.000000
1.000000
1.000000
1.000000
1.000000
1.000000
1.000000
1.000000
1.000000
1.000000
1.000000
1.000000
1.000000
1.000000
1.000000
1.000000
1.000000
1.000000
1.000000
1.000000
1.000000
1.000000
1.000000
1.000000
1.000000
1.000000
1.000000
1.000000
1.000000
1.000000
1.000000
1.000000
1.000000
1.000000
1.000000
1.000000
1.000000
1.000000
1.000000
1.000000
1.000000
1.000000
1.000000
1.000000
1.000000
1.000000
1.000000
1.000000
1.000000
1.000000
1.000000
1.000000
1.000000
1.000000
1.000000
1.000000
1.000000
1.000000
1.000000
1.000000
1.000000
1.000000
1.000000
1.000000
1.000000
1.000000
1.000000
1.000000
1.000000
1.000000
1.000000
1.000000
1.000000
1.000000
1.000000
1.000000
1.000000
1.000000
1.000000
1.000000
1.000000
1.000000
1.000000
1.000000
1.000000
1.000000
1.000000
1.000000
1.000000
1.000000
1.000000
1.000000
1.000000
1.000000
1.000000
1.000000
1.000000
1.000000
1.000000
1.000000
1.000000
1.000000
1.000000
1.000000
1.000000
1.000000
1.000000
1.000000
1.000000
1.000000
1.000000
1.000000
1.000000
1.000000
1.000000
1.000000
1.000000
1.000000
1.000000
1.000000
1.000000
1.000000
1.000000
1.000000
1.000000
1.000000
1.000000
1.000000
1.000000
1.000000
1.000000
1.000000
1.000000
1.000000
1.000000
1.000000
1.000000
1.000000
1.000000
1.000000
1.000000
1.000000
1.000000
1.000000
1.000000
1.000000
1.000000
1.000000
1.000000
1.000000
1.000000
1.000000
1.000000
1.000000
1.000000
1.000000
VECTORS fa_u float
0.000000 0.000000 0.000000
0.000000 0.000000 0.000000
0.000000 0.000000 0.000000
0.000000 0.000000 0.000000
0.000000 0.000000 0.000000
0.000000 0.000000 0.000000
0.000000 0.000000 0.000000
0.000000 0.000000 0.000000
0.000000 0.000000 0.000000
0.000000 0.000000 0.000000
0.000000 0.000000 0.000000
0.000000 0.000000 0.000000
0.000000 0.000000 0.000000
0.000000 0.000000 0.000000
0.000000 0.000000 0.000000
0.000000 0.000000 0.000000
0.000000 0.000000 0.000000
0.000000 0.000000 0.000000
0.000000 0.000000 0.000000
0.000000 0.000000 0.000000
0.000000 0.000000 0.000000
0.000000 0.000000 0.000000
0.000000 0.000000 0.000000
0.000000 0.000000 0.000000
0.000000 0.000000 0.000000
0.000000 0.000000 0.000000
0.000000 0.000000 0.000000
0.000000 0.000000 0.000000
0.000000 0.000000 0.000000
0.000000 0.000000 0.000000
0.000000 0.000000 0.000000
0.000000 0.000000 0.000000
0.000000 0.000000 0.000000
0.000000 0.000000 0.000000
0.000000 0.000000 0.000000
0.000000 0.000000 0.000000
0.000000 0.000000 0.000000
0.000000 0.000000 0.000000
0.000000 0.000000 0.000000
0.000000 0.000000 0.000000
0.000000 0.000000 0.000000
0.000000 0.000000 0.000000
0.000000 0.000000 0.000000
0.000000 0.000000 0.000000
0.000000 0.000000 0.000000
0.000000 0.000000 0.000000
0.000000 0.000000 0.000000
0.000000 0.000000 0.000000
0.000000 0.000000 0.000000
0.000000 0.000000 0.000000
0.000000 0.000000 0.000000
0.000000 0.000000 0.000000
0.000000 0.000000 0.000000
0.000000 0.000000 0.000000
0.000000 0.000000 0.000000
0.000000 0.000000 0.000000
0.000000 0.000000 0.000000
0.000000 0.000000 0.000000
0.000000 0.000000 0.000000
0.000000 0.000000 0.000000
0.000000 0.000000 0.000000
0.000000 0.000000 0.000000
0.000000 0.000000 0.000000
0.000000 0.000000 0.000000
0.000000 0.000000 0.000000
0.000000 0.000000 0.000000
0.000000 0.000000 0.000000
0.000000 0.000000 0.000000
0.000000 0.000000 0.000000
0.000000 0.000000 0.000000
0.000000 0.000000 0.000000
0.000000 0.000000 0.000000
0.000000 0.000000 0.000000
0.000000 0.000000 0.000000
0.000000 0.000000 0.000000
0.000000 0.000000 0.000000
0.000000 0.000000 0.000000
0.000000 0.000000 0.000000
0.000000 0.000000 0.000000
0.000000 0.000000 0.000000
0.000000 0.000000 0.000000
0.000000 0.000000 0.000000
0.000000 0.000000 0.000000
0.000000 0.000000 0.000000
0.000000 0.000000 0.000000
0.000000 0.000000 0.000000
0.000000 0.000000 0.000000
0.000000 0.000000 0.000000
0.000000 0.000000 0.000000
0.000000 0.000000 0.000000
0.000000 0.000000 0.000000
0.000000 0.000000 0.000000
0.000000 0.000000 0.000000
0.000000 0.000000 0.000000
0.000000 0.000000 0.000000
0.000000 0.000000 0.000000
0.000000 0.000000 0.000000
0.000000 0.000000 0.000000
0.000000 0.000000 0.000000
0.000000 0.000000 0.000000
0.000000 0.000000 0.000000
0.000000 0.000000 0.000000
0.000000 0.000000 0.000000
0.000000 0.000000 0.000000
0.000000 0.000000 0.000000
0.000000 0.000000 0.000000
0.000000 0.000000 0.000000
0.000000 0.000000 0.000000
0.000000 0.000000 0.000000
0.000000 0.000000 0.000000
0.000000 0.000000 0.000000
0.000000 0.000000 0.000000
0.000000 0.000000 0.000000
0.000000 0.000000 0.000000
0.000000 0.000000 0.000000
0.000000 0.000000 0.000000
0.000000 0.000000 0.000000
0.000000 0.000000 0.000000
0.000000 0.000000 0.000000
0.000000 0.000000 0.000000
0.000000 0.000000 0.000000
0.000000 0.000000 0.000000
0.000000 0.000000 0.000000
0.000000 0.000000 0.000000
0.000000 0.000000 0.000000
0.000000 0.000000 0.000000
0.000000 0.000000 0.000000
0.000000 0.000000 0.000000
0.000000 0.000000 0.000000
0.000000 0.000000 0.000000
0.000000 0.000000 0.000000
0.000000 0.000000 0.000000
0.000000 0.000000 0.000000
0.000000 0.000000 0.000000
0.000000 0.000000 0.000000
0.000000 0.000000 0.000000
0.000000 0.000000 0.000000
0.000000 0.000000 0.000000
0.000000 0.000000 0.000000
0.000000 0.000000 0.000000
0.000000 0.000000 0.000000
0.000000 0.000000 0.000000
0.000000 0.000000 0.000000
0.000000 0.000000 0.000000
0.000000 0.000000 0.000000
0.000000 0.000000 0.000000
0.000000 0.000000 0.000000
0.000000 0.000000 0.000000
0.000000 0.000000 0.000000
0.000000 0.000000 0.000000
0.000000 0.000000 0.000000
0.000000 0.000000 0.000000
0.000000 0.000000 0.000000
0.000000 0.000000 0.000000
0.000000 0.000000 0.000000
0.000000 0.000000 0.000000
0.000000 0.000000 0.000000
0.000000 0.000000 0.000000
0.000000 0.000000 0.000000
0.000000 0.000000 0.000000
0.000000 0.000000 0.000000
0.000000 0.000000 0.000000
0.000000 0.000000 0.000000
0.000000 0.000000 0.000000
0.000000 0.000000 0.000000
0.000000 0.000000 0.000000
0.000000 0.000000 0.000000
0.000000 0.000000 0.000000
0.000000 0.000000 0.000000
0.000000 0.000000 0.000000
0.000000 0.000000 0.000000
0.000000 0.000000 0.000000
0.000000 0.000000 0.000000
0.000000 0.000000 0.000000
0.000000 0.000000 0.000000
0.000000 0.000000 0.000000
0.000000 0.000000 0.000000
0.000000 0.000000 0.000000
0.000000 0.000000 0.000000
0.000000 0.000000 0.000000
0.000000 0.000000 0.000000
0.000000 0.000000 0.000000
0.000000 0.000000 0.000000
0.000000 0.000000 0.000000
0.000000 0.000000 0.000000
0.000000 0.000000 0.000000
0.000000 0.000000 0.000000
0.000000 0.000000 0.000000
0.000000 0.000000 0.000000
0.000000 0.000000 0.000000
0.000000 0.000000 0.000000
0.000000 0.000000 0.000000
0.000000 0.000000 0.000000
0.000000 0.000000 0.000000
0.000000 0.000000 0.000000
0.000000 0.000000 0.000000
0.000000 0.000000 0.000000
0.000000 0.000000 0.000000
0.000000 0.000000 0.000000
0.000000 0.000000 0.000000
0.000000 0.000000 0.000000
0.000000 0.000000 0.000000
0.000000 0.000000 0.000000
0.000000 0.000000 0.000000
0.000000 0.000000 0.000000
0.000000 0.000000 0.000000
0.000000 0.000000 0.000000
0.000000 0.000000 0.000000
0.000000 0.000000 0.000000
0.000000 0.000000 0.000000
0.000000 0.000000 0.000000
0.000000 0.000000 0.000000
0.000000 0.000000 0.000000
0.000000 0.000000 0.000000
0.000000 0.000000 0.000000
0.000000 0.000000 0.000000
0.000000 0.000000 0.000000
0.000000 0.000000 0.000000
0.000000 0.000000 0.000000
0.000000 0.000000 0.000000
0.000000 0.000000 0.000000
0.000000 0.000000 0.000000
0.000000 0.000000 0.000000
0.000000 0.000000 0.000000
0.000000 0.000000 0.000000
0.000000 0.000000 0.000000
0.000000 0.000000 0.000000
0.000000 0.000000 0.000000
0.000000 0.000000 0.000000
0.000000 0.000000 0.000000
0.000000 0.000000 0.000000
0.000000 0.000000 0.000000
0.000000 0.000000 0.000000
0.000000 0.000000 0.000000
0.000000 0.000000 0.000000
0.000000 0.000000 0.000000
0.000000 0.000000 0.000000
0.000000 0.000000 0.000000
0.000000 0.000000 0.000000
0.000000 0.000000 0.000000
0.000000 0.000000 0.000000
0.000000 0.000000 0.000000
0.000000 0.000000 0.000000
0.000000 0.000000 0.000000
0.000000 0.000000 0.000000
0.000000 0.000000 0.000000
0.000000 0.000000 0.000000
0.000000 0.000000 0.000000
0.000000 0.000000 0.000000
0.000000 0.000000 0.000000
0.000000 0.000000 0.000000
0.000000 0.000000 0.000000
0.000000 0.000000 0.000000
0.000000 0.000000 0.000000
0.000000 0.000000 0.000000
0.000000 0.000000 0.000000
0.000000 0.000000 0.000000
0.000000 0.000000 0.000000
0.000000 0.000000 0.000000
0.000000 0.000000 0.000000
0.000000 0.000000 0.000000
0.000000 0.000000 0.000000
0.000000 0.000000 0.000000
0.000000 0.000000 0.000000
0.000000 0.000000 0.000000
0.000000 0.000000 0.000000
0.000000 0.000000 0.000000
0.000000 0.000000 0.000000
0.000000 0.000000 0.000000
0.000000 0.000000 0.000000
0.000000 0.000000 0.000000
0.000000 0.000000 0.000000
0.000000 0.000000 0.000000
0.000000 0.000000 0.000000
0.000000 0.000000 0.000000
0.000000 0.000000 0.000000
0.000000 0.000000 0.000000
0.000000 0.000000 0.000000
0.000000 0.000000 0.000000
0.000000 0.000000 0.000000
0.000000 0.000000 0.000000
0.000000 0.000000 0.000000
0.000000 0.000000 0.000000
0.000000 0.000000 0.000000
0.000000 0.000000 0.000000
0.000000 0.000000 0.000000
0.000000 0.000000 0.000000
0.000000 0.000000 0.000000
0.000000 0.000000 0.000000
0.000000 0.000000 0.000000
0.000000 0.000000 0.000000
0.000000 0.000000 0.000000
0.000000 0.000000 0.000000
0.000000 0.000000 0.000000
0.000000 0.000000 0.000000
0.000000 0.000000 0.000000
0.000000 0.000000 -50.000000
-50.000000 0.000000 -50.000000
-43.332949 0.000000 -45.688398
-45.491164 0.000000 -43.332874
-50.000000 0.000000 -50.000000
-36.665872 0.000000 -36.665856
-50.000000 0.000000 -45.081133
-39.969805 0.000000 -40.027206
-44.152294 0.000000 -29.998804
-50.000000 0.000000 -50.000000
-29.998830 0.000000 -44.847102
-33.448939 0.000000 -33.144924
-44.675705 0.000000 -39.869142
-36.787013 0.000000 -35.128673
-39.801331 0.000000 -23.331910
-50.000000 0.000000 -26.539161
-44.666755 0.000000 -50.000000
-23.331960 0.000000 -44.665282
-26.803952 0.000000 -39.364255
-30.225709 0.000000 -29.606290
-39.359389 0.000000 -33.368258
-33.655479 0.000000 -50.000000
-16.665342 0.000000 -16.665316
-50.000000 0.000000 -9.999033
