# vtk DataFile Version 2.0
CellBP Time: 2.52
ASCII
DATASET UNSTRUCTURED_GRID
POINTS 320 double
-50.000000 -50.000000 0.000000
-50.000000 -43.333077 0.000000
-45.688355 -45.491118 0.000000
-43.333038 -50.000000 0.000000
-50.000000 -36.666137 0.000000
-36.666147 -50.000000 0.000000
-45.081087 -39.969765 0.000000
-40.027141 -44.152243 0.000000
-29.999232 -50.000000 0.000000
-50.000000 -29.999219 0.000000
-44.847056 -33.448896 0.000000
-33.144883 -44.675652 0.000000
-39.869088 -36.786967 0.000000
-35.128611 -39.801262 0.000000
-23.332418 -50.000000 0.000000
-26.539121 -44.666727 0.000000
-50.000000 -23.332415 0.000000
-44.665263 -26.803896 0.000000
-39.364216 -30.225653 0.000000
-29.606223 -39.359331 0.000000
-33.368185 -33.655407 0.000000
-50.000000 -16.665776 0.000000
-16.665798 -50.000000 0.000000
-9.999378 -50.000000 0.000000
-19.964848 -44.588776 0.000000
-23.215857 -39.114680 0.000000
-44.691897 -20.096883 0.000000
-39.367848 -23.528136 0.000000
-34.106107 -26.936994 0.000000
-26.384368 -33.577210 0.000000
-29.156152 -28.926581 0.000000
-50.000000 -9.999287 0.000000
-44.666369 -13.410157 0.000000
-50.000000 -3.332987 0.000000
-3.333124 -50.000000 0.000000
3.333086 -50.000000 0.000000
-13.343602 -44.599054 0.000000
-6.684684 -44.610739 0.000000
-16.693675 -39.153320 0.000000
-20.106963 -33.342682 0.000000
-39.338188 -16.804777 0.000000
-34.018669 -20.274685 0.000000
-28.780885 -23.449028 0.000000
-23.510466 -27.350199 0.000000
-44.635485 -6.705562 0.000000
-39.293090 -10.101837 0.000000
-50.000000 3.333210 0.000000
-44.626800 -0.015642 0.000000
9.999373 -50.000000 0.000000
16.665818 -50.000000 0.000000
-0.016087 -44.618807 0.000000
6.651625 -44.635478 0.000000
-10.044678 -39.222619 0.000000
-3.368206 -39.220431 0.000000
-13.484262 -33.798773 0.000000
-16.709607 -28.271469 0.000000
-33.948092 -13.514123 0.000000
-28.601745 -16.892426 0.000000
-23.291532 -20.312983 0.000000
-18.660341 -23.282831 0.000000
-39.267571 -3.392851 0.000000
-33.904586 -6.796770 0.000000
-50.000000 9.999437 0.000000
-44.606815 6.673371 0.000000
-39.260989 3.325653 0.000000
-50.000000 16.665834 0.000000
23.332424 -50.000000 0.000000
29.999196 -50.000000 0.000000
13.317418 -44.662984 0.000000
19.989544 -44.700118 0.000000
3.307692 -39.245168 0.000000
9.971811 -39.290315 0.000000
-6.735279 -33.791393 0.000000
-0.032282 -33.829640 0.000000
-10.095932 -28.293445 0.000000
-13.122788 -22.898142 0.000000
-28.532599 -10.214987 0.000000
-23.066782 -13.663342 0.000000
-16.977418 -17.209504 0.000000
-33.884780 -0.065437 0.000000
-28.563245 -3.578971 0.000000
-44.564159 13.380407 0.000000
-39.190133 10.015032 0.000000
-33.905822 6.616026 0.000000
-50.000000 23.332382 0.000000
-44.557678 20.138135 0.000000
-50.000000 29.999230 0.000000
36.666094 -50.000000 0.000000
43.333034 -50.000000 0.000000
26.663167 -44.745288 0.000000
33.315240 -44.875928 0.000000
16.631662 -39.357698 0.000000
23.328227 -39.437075 0.000000
6.642853 -33.879532 0.000000
13.290773 -33.965470 0.000000
-3.345654 -28.363020 0.000000
3.357245 -28.451309 0.000000
-6.626016 -22.846059 0.000000
-9.969462 -17.314967 0.000000
-23.184588 -7.014811 0.000000
-17.811042 -10.334932 0.000000
-12.837570 -12.592965 0.000000
-28.607559 3.088546 0.000000
-23.265156 -0.468457 0.000000
-39.038971 16.746466 0.000000
-28.721198 9.926383 0.000000
-33.761583 13.318424 0.000000
-44.521685 26.716864 0.000000
-38.467743 23.892509 0.000000
-44.632256 33.085504 0.000000
-50.000000 36.666236 0.000000
-50.000000 43.333105 0.000000
39.922334 -45.069553 0.000000
45.474648 -45.660413 0.000000
50.000000 -50.000000 0.000000
36.626748 -39.981920 0.000000
30.012305 -39.458572 0.000000
19.904217 -34.092766 0.000000
26.585014 -34.319440 0.000000
9.988810 -28.513437 0.000000
16.610959 -28.659929 0.000000
0.051912 -22.959821 0.000000
6.812254 -23.157881 0.000000
-3.400478 -17.297363 0.000000
-6.855027 -11.002335 0.000000
-17.877716 -3.826097 0.000000
-12.553384 -7.035925 0.000000
-23.310271 6.072942 0.000000
-18.037243 2.452422 0.000000
-23.122291 12.095779 0.000000
-33.572106 19.788948 0.000000
-27.941347 16.885544 0.000000
-33.292801 24.722680 0.000000
-39.473485 30.052734 0.000000
-35.160237 28.137458 0.000000
-39.815901 35.101349 0.000000
-43.991638 39.982145 0.000000
-45.430991 45.685121 0.000000
-50.000000 50.000000 0.000000
44.117207 -39.898942 0.000000
50.000000 -43.332920 0.000000
39.639385 -35.047348 0.000000
33.462859 -33.424487 0.000000
22.984880 -28.817892 0.000000
28.730958 -29.247735 0.000000
13.460808 -23.121779 0.000000
20.054867 -23.438876 0.000000
3.384602 -17.587551 0.000000
10.126638 -17.840596 0.000000
0.146960 -11.971014 0.000000
-2.148458 -6.246246 0.000000
-7.362368 -3.679929 0.000000
-12.596539 -0.803807 0.000000
-18.164279 8.573347 0.000000
-12.960753 5.197059 0.000000
-18.638995 13.752022 0.000000
-21.504498 17.494998 0.000000
-28.940701 23.158459 0.000000
-24.346229 21.554695 0.000000
-30.323462 28.634791 0.000000
-34.253359 33.375514 0.000000
-36.955880 39.578049 0.000000
-39.838650 45.102724 0.000000
-43.333015 50.000000 0.000000
44.585203 -32.972000 0.000000
50.000000 -36.665963 0.000000
39.129284 -29.581765 0.000000
33.500569 -26.367602 0.000000
27.182804 -23.322077 0.000000
23.066005 -18.647746 0.000000
16.989862 -16.980011 0.000000
6.710225 -12.212406 0.000000
12.356040 -12.733382 0.000000
-3.381565 -1.492610 0.000000
3.911982 -6.980324 0.000000
1.021815 -2.120720 0.000000
-6.985585 2.317679 0.000000
-8.403283 7.800209 0.000000
-12.845634 11.932185 0.000000
-15.692442 17.700267 0.000000
-19.287200 22.982705 0.000000
-24.170941 27.354859 0.000000
-27.286284 33.626068 0.000000
-30.406607 39.161239 0.000000
-33.447746 44.738857 0.000000
-36.666049 50.000000 0.000000
44.547723 -26.499803 0.000000
50.000000 -29.999023 0.000000
39.040029 -23.179214 0.000000
33.449773 -19.899933 0.000000
28.040070 -16.574213 0.000000
22.682991 -13.124119 0.000000
17.176501 -9.908173 0.000000
10.912177 -6.635117 0.000000
-1.352832 2.308960 0.000000
6.205673 -1.735087 0.000000
2.904835 1.599394 0.000000
-3.527071 7.150058 0.000000
-6.312590 12.442605 0.000000
-9.629369 17.703306 0.000000
-13.166928 23.112652 0.000000
-17.316539 28.185220 0.000000
-20.570616 33.474435 0.000000
-23.665843 39.064020 0.000000
-26.830806 44.585380 0.000000
-29.999193 50.000000 0.000000
44.528717 -19.930527 0.000000
50.000000 -23.332222 0.000000
39.036361 -16.594027 0.000000
33.576299 -13.281168 0.000000
28.150565 -9.964844 0.000000
22.725781 -6.604441 0.000000
17.264330 -3.336784 0.000000
11.977611 0.196103 0.000000
1.926293 6.277232 0.000000
6.996435 3.817925 0.000000
-0.215215 11.941494 0.000000
-3.265907 17.529936 0.000000
-6.700678 22.977906 0.000000
-10.567814 28.267545 0.000000
-13.723888 33.661482 0.000000
-16.945576 39.080403 0.000000
-20.140446 44.548475 0.000000
-23.332445 50.000000 0.000000
44.536318 -13.303636 0.000000
50.000000 -16.665630 0.000000
39.079951 -9.966629 0.000000
33.646780 -6.640962 0.000000
28.236043 -3.307442 0.000000
22.846629 0.018227 0.000000
17.534550 3.358380 0.000000
12.209508 6.595815 0.000000
6.714728 10.828784 0.000000
3.301429 17.195954 0.000000
-0.081404 22.851577 0.000000
-3.518474 28.312632 0.000000
-6.831252 33.774356 0.000000
-10.137281 39.170568 0.000000
-13.435604 44.563582 0.000000
-16.665866 50.000000 0.000000
44.554386 -6.654687 0.000000
50.000000 -9.999268 0.000000
39.123418 -3.321299 0.000000
33.713414 0.008779 0.000000
28.333187 3.344079 0.000000
23.001570 6.693734 0.000000
17.832576 10.022759 0.000000
12.655452 12.229006 0.000000
9.790125 17.234669 0.000000
6.477877 22.722367 0.000000
3.188711 28.269560 0.000000
-0.115883 33.734709 0.000000
-3.425136 39.168581 0.000000
-6.725346 44.581850 0.000000
-9.999444 50.000000 0.000000
44.575692 0.001916 0.000000
50.000000 -3.333086 0.000000
39.166858 3.331900 0.000000
33.779258 6.655572 0.000000
28.424134 9.995020 0.000000
23.046390 13.416475 0.000000
16.948438 17.022389 0.000000
12.901638 22.670331 0.000000
9.814746 28.232172 0.000000
6.604190 33.718718 0.000000
3.286553 39.164418 0.000000
-0.029854 44.584599 0.000000
-3.333147 50.000000 0.000000
44.586751 6.665490 0.000000
50.000000 3.333073 0.000000
39.198048 9.981918 0.000000
33.843375 13.277067 0.000000
28.541841 16.584808 0.000000
23.386747 20.084355 0.000000
18.531739 23.112213 0.000000
16.393263 28.298713 0.000000
13.328910 33.754774 0.000000
9.986531 39.181957 0.000000
6.665960 44.584379 0.000000
3.333107 50.000000 0.000000
44.608905 13.317869 0.000000
50.000000 9.999346 0.000000
39.251337 16.612413 0.000000
33.931835 19.862864 0.000000
28.612239 22.925998 0.000000
23.279605 27.207513 0.000000
19.901290 33.303104 0.000000
16.573744 39.040957 0.000000
13.268285 44.526778 0.000000
9.999384 50.000000 0.000000
44.632072 19.972912 0.000000
50.000000 16.665795 0.000000
39.298468 23.262094 0.000000
34.043754 26.514699 0.000000
28.965715 28.539449 0.000000
26.202332 33.410111 0.000000
23.066676 38.968832 0.000000
19.888515 44.507066 0.000000
16.665775 50.000000 0.000000
44.639789 26.642855 0.000000
50.000000 23.332409 0.000000
39.293335 29.966657 0.000000
33.212345 33.371243 0.000000
29.412073 39.045830 0.000000
26.422329 44.505963 0.000000
23.332362 50.000000 0.000000
44.774955 33.291751 0.000000
50.000000 29.999185 0.000000
39.738158 36.596275 0.000000
34.831012 39.525583 0.000000
32.833779 44.514259 0.000000
29.999129 50.000000 0.000000
44.978218 39.877825 0.000000
50.000000 36.666083 0.000000
39.734828 43.968994 0.000000
36.666031 50.000000 0.000000
45.621264 45.409767 0.000000
50.000000 43.333026 0.000000
43.332954 50.000000 0.000000
50.000000 50.000000 0.000000
CELLS 578 2312
3 1 0 2
3 0 3 2
3 4 1 6
3 6 1 2
3 3 5 7
3 3 7 2
3 6 2 7
3 9 4 10
3 10 4 6
3 5 8 11
3 7 5 11
3 10 6 12
3 12 6 7
3 7 11 13
3 7 13 12
3 8 14 15
3 11 8 15
3 16 9 17
3 17 9 10
3 17 10 18
3 18 10 12
3 11 15 19
3 13 11 19
3 18 12 20
3 13 19 20
3 20 12 13
3 14 22 24
3 15 14 24
3 15 24 25
3 19 15 25
3 21 16 26
3 26 16 17
3 26 17 27
3 27 17 18
3 27 18 28
3 28 18 20
3 19 25 29
3 19 29 20
3 28 20 30
3 30 20 29
3 31 21 32
3 32 21 26
3 22 23 36
3 24 22 36
3 23 34 37
3 36 23 37
3 24 36 38
3 25 24 38
3 25 38 39
3 29 25 39
3 32 26 40
3 40 26 27
3 40 27 41
3 41 27 28
3 41 28 42
3 42 28 30
3 29 39 43
3 29 43 30
3 42 30 43
3 33 31 44
3 44 31 32
3 44 32 45
3 45 32 40
3 46 33 47
3 47 33 44
3 34 35 50
3 37 34 50
3 35 48 51
3 50 35 51
3 36 37 52
3 38 36 52
3 37 50 53
3 52 37 53
3 38 52 54
3 39 38 54
3 39 54 55
3 43 39 55
3 45 40 56
3 56 40 41
3 56 41 57
3 57 41 42
3 57 42 58
3 58 42 43
3 43 55 59
3 43 59 58
3 47 44 60
3 60 44 45
3 60 45 61
3 61 45 56
3 62 46 63
3 63 46 47
3 63 47 64
3 64 47 60
3 48 49 68
3 51 48 68
3 49 66 69
3 68 49 69
3 50 51 70
3 53 50 70
3 51 68 71
3 70 51 71
3 52 53 72
3 54 52 72
3 53 70 73
3 72 53 73
3 54 72 74
3 55 54 74
3 55 74 75
3 59 55 75
3 61 56 76
3 76 56 57
3 76 57 77
3 77 57 58
3 77 58 78
3 59 75 78
3 78 58 59
3 64 60 79
3 79 60 61
3 79 61 80
3 80 61 76
3 65 62 81
3 81 62 63
3 81 63 82
3 82 63 64
3 82 64 83
3 83 64 79
3 84 65 85
3 85 65 81
3 66 67 89
3 69 66 89
3 67 87 90
3 89 67 90
3 68 69 91
3 71 68 91
3 69 89 92
3 91 69 92
3 70 71 93
3 73 70 93
3 71 91 94
3 93 71 94
3 72 73 95
3 74 72 95
3 73 93 96
3 95 73 96
3 74 95 97
3 75 74 97
3 75 97 98
3 78 75 98
3 80 76 99
3 99 76 77
3 99 77 100
3 100 77 78
3 100 78 101
3 98 101 78
3 83 79 102
3 102 79 80
3 102 80 103
3 103 80 99
3 85 81 104
3 104 81 82
3 105 83 102
3 104 82 106
3 106 82 83
3 106 83 105
3 86 84 107
3 107 84 85
3 107 85 108
3 108 85 104
3 109 86 107
3 110 86 109
3 87 88 112
3 90 87 112
3 112 88 113
3 88 114 113
3 90 112 115
3 89 90 116
3 92 89 116
3 116 90 115
3 91 92 117
3 94 91 117
3 92 116 118
3 117 92 118
3 93 94 119
3 96 93 119
3 94 117 120
3 119 94 120
3 95 96 121
3 97 95 121
3 96 119 122
3 121 96 122
3 97 121 123
3 98 97 123
3 98 123 124
3 98 124 101
3 103 99 125
3 125 99 100
3 125 100 126
3 126 100 101
3 126 101 124
3 105 102 127
3 127 102 103
3 127 103 128
3 128 103 125
3 129 105 127
3 108 104 130
3 130 104 106
3 130 106 131
3 131 106 105
3 131 105 129
3 108 130 132
3 109 107 133
3 133 107 108
3 133 108 134
3 108 132 134
3 135 109 133
3 111 110 136
3 136 110 109
3 136 109 135
3 137 111 136
3 138 111 137
3 112 113 139
3 115 112 139
3 114 140 113
3 140 139 113
3 139 141 115
3 116 115 142
3 118 116 142
3 142 115 141
3 117 118 143
3 120 117 143
3 118 142 144
3 143 118 144
3 119 120 145
3 122 119 145
3 120 143 146
3 145 120 146
3 121 122 147
3 123 121 147
3 122 145 148
3 147 122 148
3 123 147 149
3 124 123 149
3 124 149 150
3 151 126 124
3 124 150 151
3 128 125 152
3 152 125 126
3 152 126 151
3 129 127 153
3 153 127 128
3 128 152 154
3 153 128 154
3 155 129 153
3 131 129 156
3 156 129 155
3 132 130 157
3 130 131 157
3 157 131 158
3 131 156 158
3 132 157 159
3 132 159 134
3 135 133 160
3 160 133 134
3 160 134 159
3 136 135 161
3 135 160 161
3 162 137 136
3 161 162 136
3 163 138 137
3 162 163 137
3 139 164 141
3 140 165 139
3 139 165 164
3 141 164 166
3 141 166 142
3 166 167 142
3 144 142 167
3 167 168 144
3 143 144 168
3 146 143 168
3 168 169 146
3 145 146 170
3 148 145 170
3 170 146 169
3 147 148 171
3 149 147 171
3 148 170 172
3 171 148 172
3 173 151 150
3 149 171 174
3 150 149 174
3 150 174 175
3 150 175 173
3 154 152 176
3 152 151 176
3 176 151 173
3 154 176 177
3 155 153 178
3 177 178 154
3 154 178 153
3 156 155 179
3 155 178 179
3 180 158 156
3 179 180 156
3 181 159 157
3 180 181 158
3 181 157 158
3 182 160 159
3 181 182 159
3 183 161 160
3 182 183 160
3 184 162 161
3 184 161 183
3 185 163 162
3 184 185 162
3 164 186 166
3 165 187 164
3 164 187 186
3 166 186 188
3 166 188 167
3 167 188 189
3 167 189 168
3 168 189 190
3 168 190 169
3 169 190 191
3 169 191 170
3 192 172 170
3 170 191 192
3 192 193 172
3 171 172 193
3 174 171 193
3 194 173 175
3 176 173 194
3 175 174 195
3 193 195 174
3 195 196 175
3 175 196 194
3 197 177 176
3 194 197 176
3 198 178 177
3 197 198 177
3 199 179 178
3 198 199 178
3 200 180 179
3 199 200 179
3 201 181 180
3 200 201 180
3 202 182 181
3 201 202 181
3 203 183 182
3 202 203 182
3 204 184 183
3 203 204 183
3 205 185 184
3 204 205 184
3 186 206 188
3 187 207 186
3 186 207 206
3 188 206 208
3 188 208 189
3 189 208 209
3 189 209 190
3 190 209 210
3 190 210 191
3 191 210 211
3 191 211 192
3 192 211 212
3 192 212 193
3 193 212 213
3 193 213 195
3 214 197 194
3 214 194 196
3 195 213 215
3 195 215 196
3 196 215 214
3 216 198 197
3 214 216 197
3 217 199 198
3 216 217 198
3 218 200 199
3 217 218 199
3 219 201 200
3 218 219 200
3 220 202 201
3 219 220 201
3 221 203 202
3 220 221 202
3 222 204 203
3 221 222 203
3 223 205 204
3 222 223 204
3 206 224 208
3 207 225 206
3 206 225 224
3 208 224 226
3 208 226 209
3 209 226 227
3 209 227 210
3 210 227 228
3 210 228 211
3 211 228 229
3 211 229 212
3 212 229 230
3 212 230 213
3 213 230 231
3 213 231 215
3 232 216 214
3 215 231 232
3 232 214 215
3 233 217 216
3 232 233 216
3 234 218 217
3 233 234 217
3 235 219 218
3 234 235 218
3 236 220 219
3 235 236 219
3 237 221 220
3 236 237 220
3 238 222 221
3 237 238 221
3 239 223 222
3 238 239 222
3 224 240 226
3 225 241 224
3 224 241 240
3 226 240 242
3 226 242 227
3 227 242 243
3 227 243 228
3 228 243 244
3 228 244 229
3 244 245 229
3 229 245 230
3 230 245 246
3 230 246 231
3 231 246 247
3 231 247 232
3 248 233 232
3 248 232 247
3 249 234 233
3 248 249 233
3 250 235 234
3 249 250 234
3 251 236 235
3 250 251 235
3 252 237 236
3 251 252 236
3 253 238 237
3 252 253 237
3 254 239 238
3 253 254 238
3 240 255 242
3 241 256 240
3 240 256 255
3 242 255 257
3 242 257 243
3 243 257 258
3 243 258 244
3 244 258 259
3 244 259 245
3 245 259 260
3 245 260 246
3 246 260 261
3 246 261 247
3 248 247 261
3 262 249 248
3 261 262 248
3 263 250 249
3 262 263 249
3 264 251 250
3 263 264 250
3 265 252 251
3 264 265 251
3 266 253 252
3 265 266 252
3 267 254 253
3 266 267 253
3 255 268 257
3 256 269 255
3 255 269 268
3 257 268 270
3 257 270 258
3 258 270 271
3 258 271 259
3 259 271 272
3 259 272 260
3 260 272 273
3 260 273 261
3 274 262 261
3 261 273 274
3 275 263 262
3 274 275 262
3 276 264 263
3 275 276 263
3 277 265 264
3 276 277 264
3 278 266 265
3 277 278 265
3 279 267 266
3 278 279 266
3 268 280 270
3 269 281 268
3 268 281 280
3 270 280 282
3 270 282 271
3 271 282 283
3 271 283 272
3 283 284 272
3 272 284 273
3 285 275 274
3 273 284 285
3 285 274 273
3 286 276 275
3 285 286 275
3 287 277 276
3 286 287 276
3 288 278 277
3 287 288 277
3 289 279 278
3 288 289 278
3 280 290 282
3 281 291 280
3 280 291 290
3 282 290 292
3 282 292 283
3 283 292 293
3 283 293 284
3 284 293 294
3 284 294 285
3 295 286 285
3 295 285 294
3 296 287 286
3 295 296 286
3 297 288 287
3 296 297 287
3 298 289 288
3 297 298 288
3 290 299 292
3 291 300 290
3 290 300 299
3 292 299 301
3 292 301 293
3 293 301 302
3 293 302 294
3 294 302 295
3 303 296 295
3 303 295 302
3 304 297 296
3 303 304 296
3 305 298 297
3 304 305 297
3 299 306 301
3 300 307 299
3 299 307 306
3 301 306 308
3 301 308 302
3 309 303 302
3 302 308 309
3 310 304 303
3 309 310 303
3 311 305 304
3 310 311 304
3 306 312 308
3 307 313 306
3 306 313 312
3 314 310 309
3 308 312 314
3 314 309 308
3 315 311 310
3 314 315 310
3 312 316 314
3 313 317 312
3 312 317 316
3 318 315 314
3 318 314 316
3 317 319 316
3 319 318 316
CELL_TYPES 578
5
5
5
5
5
5
5
5
5
5
5
5
5
5
5
5
5
5
5
5
5
5
5
5
5
5
5
5
5
5
5
5
5
5
5
5
5
5
5
5
5
5
5
5
5
5
5
5
5
5
5
5
5
5
5
5
5
5
5
5
5
5
5
5
5
5
5
5
5
5
5
5
5
5
5
5
5
5
5
5
5
5
5
5
5
5
5
5
5
5
5
5
5
5
5
5
5
5
5
5
5
5
5
5
5
5
5
5
5
5
5
5
5
5
5
5
5
5
5
5
5
5
5
5
5
5
5
5
5
5
5
5
5
5
5
5
5
5
5
5
5
5
5
5
5
5
5
5
5
5
5
5
5
5
5
5
5
5
5
5
5
5
5
5
5
5
5
5
5
5
5
5
5
5
5
5
5
5
5
5
5
5
5
5
5
5
5
5
5
5
5
5
5
5
5
5
5
5
5
5
5
5
5
5
5
5
5
5
5
5
5
5
5
5
5
5
5
5
5
5
5
5
5
5
5
5
5
5
5
5
5
5
5
5
5
5
5
5
5
5
5
5
5
5
5
5
5
5
5
5
5
5
5
5
5
5
5
5
5
5
5
5
5
5
5
5
5
5
5
5
5
5
5
5
5
5
5
5
5
5
5
5
5
5
5
5
5
5
5
5
5
5
5
5
5
5
5
5
5
5
5
5
5
5
5
5
5
5
5
5
5
5
5
5
5
5
5
5
5
5
5
5
5
5
5
5
5
5
5
5
5
5
5
5
5
5
5
5
5
5
5
5
5
5
5
5
5
5
5
5
5
5
5
5
5
5
5
5
5
5
5
5
5
5
5
5
5
5
5
5
5
5
5
5
5
5
5
5
5
5
5
5
5
5
5
5
5
5
5
5
5
5
5
5
5
5
5
5
5
5
5
5
5
5
5
5
5
5
5
5
5
5
5
5
5
5
5
5
5
5
5
5
5
5
5
5
5
5
5
5
5
5
5
5
5
5
5
5
5
5
5
5
5
5
5
5
5
5
5
5
5
5
5
5
5
5
5
5
5
5
5
5
5
5
5
5
5
5
5
5
5
5
5
5
5
5
5
5
5
5
5
5
5
5
5
5
5
5
5
5
5
5
5
5
5
5
5
5
5
5
5
5
5
5
5
5
5
5
5
5
5
5
5
5
5
5
5
5
5
5
5
5
5
5
5
5
5
5
5
5
5
5
5
5
5
5
5
5
5
5
5
5
5
5
5
5
5
5
5
5
5
5
5
5
5
5
5
5
5
5
5
5
5
5
5
5
5
5
5
5
5
5
5
5
5
5
5
5
POINT_DATA 320
SCALARS theta_e float 1
LOOKUP_TABLE default
1.000000
1.000000
1.000000
1.000000
1.000000
1.000000
1.000000
1.000000
1.000000
1.000000
1.000000
1.000000
1.000000
1.000000
1.000000
1.000000
1.000000
1.000000
1.000000
1.000000
1.000000
1.000000
1.000001
1.000001
1.000001
1.000000
1.000000
1.000000
1.000000
1.000000
1.000000
1.000000
1.000000
1.000000
1.000001
1.000001
1.000001
1.000001
1.000001
1.000000
1.000000
1.000000
1.000000
1.000000
1.000000
1.000000
1.000000
1.000000
1.000001
1.000001
1.000001
1.000001
1.000001
1.000001
1.000001
1.000001
1.000000
1.000000
1.000000
1.000001
1.000000
1.000000
1.000000
1.000000
1.000000
1.000000
1.000001
1.000001
1.000001
1.000001
1.000001
1.000001
1.000001
1.000001
1.000001
1.000001
1.000000
1.000001
1.000001
1.000000
1.000001
1.000000
1.000000
1.000000
1.000000
1.000000
1.000000
1.000001
1.000001
1.000001
1.000001
1.000001
1.000001
1.000001
1.000001
1.000001
1.000001
1.000001
1.000001
1.000001
1.000001
1.000001
1.000001
1.000001
1.000000
1.000001
1.000000
1.000000
1.000000
1.000000
1.000000
1.000000
1.000001
1.000001
1.000001
1.000001
1.000001
1.000001
1.000001
1.000001
1.000001
1.000001
1.000001
1.000001
0.999998
1.000001
1.000000
1.000001
1.000001
1.000001
1.000000
1.000001
1.000000
1.000000
1.000000
1.000000
1.000000
1.000000
1.000000
1.000001
1.000001
1.000001
1.000001
1.000001
1.000001
1.000001
1.000001
1.000001
1.000000
0.999997
0.999987
0.999991
0.999998
1.000001
0.999999
1.000001
1.000001
1.000001
1.000001
1.000001
1.000000
1.000000
1.000000
1.000000
1.000001
1.000001
1.000001
1.000001
1.000001
1.000001
1.000001
0.999999
1.000000
0.999981
0.999990
0.999981
0.999988
0.999997
1.000001
1.000001
1.000001
1.000001
1.000001
1.000001
1.000001
1.000000
1.000001
1.000001
1.000001
1.000001
1.000001
1.000001
1.000001
0.999997
0.999981
0.999987
0.999981
0.999989
0.999999
1.000001
1.000001
1.000001
1.000001
1.000001
1.000001
1.000001
1.000001
1.000001
1.000001
1.000001
1.000001
1.000001
1.000001
0.999996
0.999986
0.999990
0.999996
1.000001
1.000001
1.000001
1.000001
1.000001
1.000001
1.000001
1.000001
1.000001
1.000001
1.000001
1.000001
1.000000
1.000000
0.999999
0.999997
1.000000
1.000000
1.000001
1.000001
1.000001
1.000001
1.000001
1.000001
1.000001
1.000001
1.000001
1.000001
1.000000
1.000000
1.000000
1.000001
1.000000
1.000001
1.000001
1.000001
1.000001
1.000001
1.000001
1.000001
1.000001
1.000001
1.000001
1.000000
1.000000
1.000001
1.000001
1.000001
1.000001
1.000001
1.000001
1.000001
1.000001
1.000001
1.000001
1.000001
1.000001
1.000001
1.000001
1.000001
1.000001
1.000001
1.000001
1.000001
1.000001
1.000001
1.000001
1.000001
1.000001
1.000001
1.000001
1.000001
1.000001
1.000001
1.000001
1.000001
1.000001
1.000001
1.000001
1.000001
1.000001
1.000001
1.000001
1.000001
1.000001
1.000001
1.000001
1.000001
1.000001
1.000001
1.000001
1.000001
1.000001
1.000001
1.000001
1.000001
1.000001
1.000001
1.000001
1.000001
1.000001
1.000001
1.000001
VECTORS fa_u float
0.000000 0.000000 0.000000
0.000000 0.000000 0.000000
0.000000 0.000000 0.000000
0.000000 0.000000 0.000000
0.000000 0.000000 0.000000
0.000000 0.000000 0.000000
0.000000 0.000000 0.000000
0.000000 0.000000 0.000000
0.000000 0.000000 0.000000
0.000000 0.000000 0.000000
0.000000 0.000000 0.000000
0.000000 0.000000 0.000000
0.000000 0.000000 0.000000
0.000000 0.000000 0.000000
0.000000 0.000000 0.000000
0.000000 0.000000 0.000000
0.000000 0.000000 0.000000
0.000000 0.000000 0.000000
0.000000 0.000000 0.000000
0.000000 0.000000 0.000000
0.000000 0.000000 0.000000
0.000000 0.000000 0.000000
0.000000 0.000000 0.000000
0.000000 0.000000 0.000000
0.000000 0.000000 0.000000
0.000000 0.000000 0.000000
0.000000 0.000000 0.000000
0.000000 0.000000 0.000000
0.000000 0.000000 0.000000
0.000000 0.000000 0.000000
0.000000 0.000000 0.000000
0.000000 0.000000 0.000000
0.000000 0.000000 0.000000
0.000000 0.000000 0.000000
0.000000 0.000000 0.000000
0.000000 0.000000 0.000000
0.000000 0.000000 0.000000
0.000000 0.000000 0.000000
0.000000 0.000000 0.000000
0.000000 0.000000 0.000000
0.000000 0.000000 0.000000
0.000000 0.000000 0.000000
0.000000 0.000000 0.000000
0.000000 0.000000 0.000000
0.000000 0.000000 0.000000
0.000000 0.000000 0.000000
0.000000 0.000000 0.000000
0.000000 0.000000 0.000000
0.000000 0.000000 0.000000
0.000000 0.000000 0.000000
0.000000 0.000000 0.000000
0.000000 0.000000 0.000000
0.000000 0.000000 0.000000
0.000000 0.000000 0.000000
0.000000 0.000000 0.000000
0.000000 0.000000 0.000000
0.000000 0.000000 0.000000
0.000000 0.000000 0.000000
0.000000 0.000000 0.000000
0.000000 0.000000 0.000000
0.000000 0.000000 0.000000
0.000000 0.000000 0.000000
0.000000 0.000000 0.000000
0.000000 0.000000 0.000000
0.000000 0.000000 0.000000
0.000000 0.000000 0.000000
0.000000 0.000000 0.000000
0.000000 0.000000 0.000000
0.000000 0.000000 0.000000
0.000000 0.000000 0.000000
0.000000 0.000000 0.000000
0.000000 0.000000 0.000000
0.000000 0.000000 0.000000
0.000000 0.000000 0.000000
0.000000 0.000000 0.000000
0.000000 0.000000 0.000000
0.000000 0.000000 0.000000
0.000000 0.000000 0.000000
0.000000 0.000000 0.000000
0.000000 0.000000 0.000000
0.000000 0.000000 0.000000
0.000000 0.000000 0.000000
0.000000 0.000000 0.000000
0.000000 0.000000 0.000000
0.000000 0.000000 0.000000
0.000000 0.000000 0.000000
0.000000 0.000000 0.000000
0.000000 0.000000 0.000000
0.000000 0.000000 0.000000
0.000000 0.000000 0.000000
0.000000 0.000000 0.000000
0.000000 0.000000 0.000000
0.000000 0.000000 0.000000
0.000000 0.000000 0.000000
0.000000 0.000000 0.000000
0.000000 0.000000 0.000000
0.000000 0.000000 0.000000
0.000000 0.000000 0.000000
0.000000 0.000000 0.000000
0.000000 0.000000 0.000000
0.000000 0.000000 0.000000
0.000000 0.000000 0.000000
0.000000 0.000000 0.000000
0.000000 0.000000 0.000000
0.000000 0.000000 0.000000
0.000000 0.000000 0.000000
0.000000 0.000000 0.000000
0.000000 0.000000 0.000000
0.000000 0.000000 0.000000
0.000000 0.000000 0.000000
0.000000 0.000000 0.000000
0.000000 0.000000 0.000000
0.000000 0.000000 0.000000
0.000000 0.000000 0.000000
0.000000 0.000000 0.000000
0.000000 0.000000 0.000000
0.000000 0.000000 0.000000
0.000000 0.000000 0.000000
0.000000 0.000000 0.000000
0.000000 0.000000 0.000000
0.000000 0.000000 0.000000
0.000000 0.000000 0.000000
0.000000 0.000000 0.000000
0.000000 0.000000 0.000000
0.000000 0.000000 0.000000
0.000000 0.000000 0.000000
0.000000 0.000000 0.000000
0.000000 0.000000 0.000000
0.000000 0.000000 0.000000
0.000000 0.000000 0.000000
0.000000 0.000000 0.000000
0.000000 0.000000 0.000000
0.000000 0.000000 0.000000
0.000000 0.000000 0.000000
0.000000 0.000000 0.000000
0.000000 0.000000 0.000000
0.000000 0.000000 0.000000
0.000000 0.000000 0.000000
0.000000 0.000000 0.000000
0.000000 0.000000 0.000000
0.000000 0.000000 0.000000
0.000000 0.000000 0.000000
0.000000 0.000000 0.000000
0.000000 0.000000 0.000000
0.000000 0.000000 0.000000
0.000000 0.000000 0.000000
0.000000 0.000000 0.000000
0.000000 0.000000 0.000000
0.000000 0.000000 0.000000
0.000000 0.000000 0.000000
0.000000 0.000000 0.000000
0.000000 0.000000 0.000000
0.000000 0.000000 0.000000
0.000000 0.000000 0.000000
0.000000 0.000000 0.000000
0.000000 0.000000 0.000000
0.000000 0.000000 0.000000
0.000000 0.000000 0.000000
0.000000 0.000000 0.000000
0.000000 0.000000 0.000000
0.000000 0.000000 0.000000
0.000000 0.000000 0.000000
0.000000 0.000000 0.000000
0.000000 0.000000 0.000000
0.000000 0.000000 0.000000
0.000000 0.000000 0.000000
0.000000 0.000000 0.000000
0.000000 0.000000 0.000000
0.000000 0.000000 0.000000
0.000000 0.000000 0.000000
0.000000 0.000000 0.000000
0.000000 0.000000 0.000000
0.000000 0.000000 0.000000
0.000000 0.000000 0.000000
0.000000 0.000000 0.000000
0.000000 0.000000 0.000000
0.000000 0.000000 0.000000
0.000000 0.000000 0.000000
0.000000 0.000000 0.000000
0.000000 0.000000 0.000000
0.000000 0.000000 0.000000
0.000000 0.000000 0.000000
0.000000 0.000000 0.000000
0.000000 0.000000 0.000000
0.000000 0.000000 0.000000
0.000000 0.000000 0.000000
0.000000 0.000000 0.000000
0.000000 0.000000 0.000000
0.000000 0.000000 0.000000
0.000000 0.000000 0.000000
0.000000 0.000000 0.000000
0.000000 0.000000 0.000000
0.000000 0.000000 0.000000
0.000000 0.000000 0.000000
0.000000 0.000000 0.000000
0.000000 0.000000 0.000000
0.000000 0.000000 0.000000
0.000000 0.000000 0.000000
0.000000 0.000000 0.000000
0.000000 0.000000 0.000000
0.000000 0.000000 0.000000
0.000000 0.000000 0.000000
0.000000 0.000000 0.000000
0.000000 0.000000 0.000000
0.000000 0.000000 0.000000
0.000000 0.000000 0.000000
0.000000 0.000000 0.000000
0.000000 0.000000 0.000000
0.000000 0.000000 0.000000
0.000000 0.000000 0.000000
0.000000 0.000000 0.000000
0.000000 0.000000 0.000000
0.000000 0.000000 0.000000
0.000000 0.000000 0.000000
0.000000 0.000000 0.000000
0.000000 0.000000 0.000000
0.000000 0.000000 0.000000
0.000000 0.000000 0.000000
0.000000 0.000000 0.000000
0.000000 0.000000 0.000000
0.000000 0.000000 0.000000
0.000000 0.000000 0.000000
0.000000 0.000000 0.000000
0.000000 0.000000 0.000000
0.000000 0.000000 0.000000
0.000000 0.000000 0.000000
0.000000 0.000000 0.000000
0.000000 0.000000 0.000000
0.000000 0.000000 0.000000
0.000000 0.000000 0.000000
0.000000 0.000000 0.000000
0.000000 0.000000 0.000000
0.000000 0.000000 0.000000
0.000000 0.000000 0.000000
0.000000 0.000000 0.000000
0.000000 0.000000 0.000000
0.000000 0.000000 0.000000
0.000000 0.000000 0.000000
0.000000 0.000000 0.000000
0.000000 0.000000 0.000000
0.000000 0.000000 0.000000
0.000000 0.000000 0.000000
0.000000 0.000000 0.000000
0.000000 0.000000 0.000000
0.000000 0.000000 0.000000
0.000000 0.000000 0.000000
0.000000 0.000000 0.000000
0.000000 0.000000 0.000000
0.000000 0.000000 0.000000
0.000000 0.000000 0.000000
0.000000 0.000000 0.000000
0.000000 0.000000 0.000000
0.000000 0.000000 0.000000
0.000000 0.000000 0.000000
0.000000 0.000000 0.000000
0.000000 0.000000 0.000000
0.000000 0.000000 0.000000
0.000000 0.000000 0.000000
0.000000 0.000000 0.000000
0.000000 0.000000 0.000000
0.000000 0.000000 0.000000
0.000000 0.000000 0.000000
0.000000 0.000000 0.000000
0.000000 0.000000 0.000000
0.000000 0.000000 0.000000
0.000000 0.000000 0.000000
0.000000 0.000000 0.000000
0.000000 0.000000 0.000000
0.000000 0.000000 0.000000
0.000000 0.000000 0.000000
0.000000 0.000000 0.000000
0.000000 0.000000 0.000000
0.000000 0.000000 0.000000
0.000000 0.000000 0.000000
0.000000 0.000000 0.000000
0.000000 0.000000 0.000000
0.000000 0.000000 0.000000
0.000000 0.000000 0.000000
0.000000 0.000000 0.000000
0.000000 0.000000 0.000000
0.000000 0.000000 0.000000
0.000000 0.000000 0.000000
0.000000 0.000000 0.000000
0.000000 0.000000 0.000000
0.000000 0.000000 0.000000
0.000000 0.000000 0.000000
0.000000 0.000000 0.000000
0.000000 0.000000 0.000000
0.000000 0.000000 0.000000
0.000000 0.000000 0.000000
0.000000 0.000000 0.000000
0.000000 0.000000 0.000000
0.000000 0.000000 0.000000
0.000000 0.000000 0.000000
0.000000 0.000000 0.000000
0.000000 0.000000 0.000000
0.000000 0.000000 -50.000000
-50.000000 0.000000 -50.000000
-43.333077 0.000000 -45.688355
-45.491118 0.000000 -43.333038
-50.000000 0.000000 -50.000000
-36.666137 0.000000 -36.666147
-50.000000 0.000000 -45.081087
-39.969765 0.000000 -40.027141
-44.152243 0.000000 -29.999232
-50.000000 0.000000 -50.000000
-29.999219 0.000000 -44.847056
-33.448896 0.000000 -33.144883
-44.675652 0.000000 -39.869088
-36.786967 0.000000 -35.128611
-39.801262 0.000000 -23.332418
-50.000000 0.000000 -26.539121
-44.666727 0.000000 -50.000000
-23.332415 0.000000 -44.665263
-26.803896 0.000000 -39.364216
-30.225653 0.000000 -29.606223
-39.359331 0.000000 -33.368185
-33.655407 0.000000 -50.000000
-16.665776 0.000000 -16.665798
-50.000000 0.000000 -9.999378
