# vtk DataFile Version 2.0
CellBP Time: 4.08
ASCII
DATASET UNSTRUCTURED_GRID
POINTS 320 double
-50.000000 -50.000000 0.000000
-50.000000 -43.332969 0.000000
-45.688393 -45.491154 0.000000
-43.332907 -50.000000 0.000000
-50.000000 -36.665914 0.000000
-36.665917 -50.000000 0.000000
-45.081128 -39.969794 0.000000
-40.027200 -44.152282 0.000000
-29.998893 -50.000000 0.000000
-50.000000 -29.998889 0.000000
-44.847097 -33.448925 0.000000
-33.144926 -44.675694 0.000000
-39.869139 -36.787000 0.000000
-35.128671 -39.801315 0.000000
-23.332017 -50.000000 0.000000
-26.539166 -44.666749 0.000000
-50.000000 -23.332028 0.000000
-44.665281 -26.803934 0.000000
-39.364254 -30.225692 0.000000
-29.606289 -39.359375 0.000000
-33.368255 -33.655460 0.000000
-50.000000 -16.665406 0.000000
-16.665420 -50.000000 0.000000
-9.999110 -50.000000 0.000000
-19.964901 -44.588770 0.000000
-23.215902 -39.114700 0.000000
-44.691888 -20.096921 0.000000
-39.367864 -23.528158 0.000000
-34.106152 -26.937028 0.000000
-26.384433 -33.577276 0.000000
-29.156221 -28.926641 0.000000
-50.000000 -9.998994 0.000000
-44.666362 -13.410189 0.000000
-50.000000 -3.332851 0.000000
-3.333039 -50.000000 0.000000
3.332972 -50.000000 0.000000
-13.343659 -44.599030 0.000000
-6.684714 -44.610702 0.000000
-16.693712 -39.153293 0.000000
-20.106988 -33.342684 0.000000
-39.338182 -16.804764 0.000000
-34.018728 -20.274672 0.000000
-28.780969 -23.449079 0.000000
-23.510518 -27.350342 0.000000
-44.635459 -6.705557 0.000000
-39.293102 -10.101823 0.000000
-50.000000 3.333147 0.000000
-44.626762 -0.015601 0.000000
9.999097 -50.000000 0.000000
16.665448 -50.000000 0.000000
-0.016089 -44.618775 0.000000
6.651663 -44.635459 0.000000
-10.044709 -39.222608 0.000000
-3.368209 -39.220399 0.000000
-13.484261 -33.798727 0.000000
-16.709484 -28.271506 0.000000
-33.948079 -13.514034 0.000000
-28.601903 -16.892380 0.000000
-23.291726 -20.313063 0.000000
-18.660443 -23.283133 0.000000
-39.267544 -3.392812 0.000000
-33.904583 -6.796768 0.000000
-50.000000 9.999192 0.000000
-44.606772 6.673442 0.000000
-39.260942 3.325684 0.000000
-50.000000 16.665480 0.000000
23.332032 -50.000000 0.000000
29.998852 -50.000000 0.000000
13.317490 -44.662977 0.000000
19.989620 -44.700115 0.000000
3.307697 -39.245162 0.000000
9.971838 -39.290330 0.000000
-6.735330 -33.791391 0.000000
-0.032247 -33.829615 0.000000
-10.095929 -28.293279 0.000000
-13.122755 -22.897826 0.000000
-28.532439 -10.214869 0.000000
-23.066959 -13.663439 0.000000
-16.977706 -17.210041 0.000000
-33.884703 -0.065444 0.000000
-28.563189 -3.579164 0.000000
-44.564130 13.380503 0.000000
-39.190097 10.015073 0.000000
-33.905775 6.616044 0.000000
-50.000000 23.331983 0.000000
-44.557626 20.138215 0.000000
-50.000000 29.998911 0.000000
36.665849 -50.000000 0.000000
43.332908 -50.000000 0.000000
26.663237 -44.745305 0.000000
33.315292 -44.875964 0.000000
16.631691 -39.357700 0.000000
23.328273 -39.437095 0.000000
6.642886 -33.879549 0.000000
13.290747 -33.965474 0.000000
-3.345753 -28.363143 0.000000
3.357429 -28.451298 0.000000
-6.626031 -22.845874 0.000000
-9.968310 -17.315017 0.000000
-23.183969 -7.014739 0.000000
-17.811494 -10.334973 0.000000
-12.837679 -12.595419 0.000000
-28.607544 3.088574 0.000000
-23.265424 -0.468699 0.000000
-39.038891 16.746461 0.000000
-28.721035 9.926308 0.000000
-33.761464 13.318368 0.000000
-44.521692 26.716947 0.000000
-38.467753 23.892561 0.000000
-44.632334 33.085589 0.000000
-50.000000 36.666061 0.000000
-50.000000 43.333014 0.000000
39.922376 -45.069588 0.000000
45.474696 -45.660453 0.000000
50.000000 -50.000000 0.000000
36.626786 -39.981950 0.000000
30.012360 -39.458600 0.000000
19.904235 -34.092807 0.000000
26.585049 -34.319475 0.000000
9.988774 -28.513338 0.000000
16.610919 -28.660029 0.000000
0.051677 -22.960356 0.000000
6.812249 -23.157487 0.000000
-3.400106 -17.297211 0.000000
-6.847644 -10.985902 0.000000
-17.877128 -3.824292 0.000000
-12.552938 -7.035811 0.000000
-23.309983 6.072427 0.000000
-18.036790 2.450310 0.000000
-23.122530 12.095911 0.000000
-33.572120 19.788963 0.000000
-27.941422 16.885698 0.000000
-33.292881 24.722752 0.000000
-39.473581 30.052842 0.000000
-35.160349 28.137533 0.000000
-39.815999 35.101430 0.000000
-43.991689 39.982239 0.000000
-45.431019 45.685180 0.000000
-50.000000 50.000000 0.000000
44.117251 -39.899000 0.000000
50.000000 -43.332748 0.000000
39.639433 -35.047391 0.000000
33.462897 -33.424523 0.000000
22.984922 -28.817944 0.000000
28.730994 -29.247771 0.000000
13.460857 -23.121817 0.000000
20.054907 -23.439022 0.000000
3.381827 -17.588069 0.000000
10.126165 -17.841054 0.000000
0.150154 -11.946429 0.000000
-2.143962 -6.231422 0.000000
-7.332204 -3.662573 0.000000
-12.575698 -0.804738 0.000000
-18.165771 8.573481 0.000000
-12.957846 5.197086 0.000000
-18.638763 13.751923 0.000000
-21.504368 17.494878 0.000000
-28.940769 23.158611 0.000000
-24.346266 21.554641 0.000000
-30.323557 28.634873 0.000000
-34.253444 33.375554 0.000000
-36.955924 39.578077 0.000000
-39.838669 45.102766 0.000000
-43.332887 50.000000 0.000000
44.585243 -32.972046 0.000000
50.000000 -36.665669 0.000000
39.129310 -29.581814 0.000000
33.500608 -26.367631 0.000000
27.182898 -23.322080 0.000000
23.066247 -18.647771 0.000000
16.990337 -16.980351 0.000000
6.709090 -12.210071 0.000000
12.358682 -12.733889 0.000000
-3.378930 -1.491095 0.000000
3.893551 -6.949605 0.000000
1.021733 -2.120243 0.000000
-6.965384 2.310094 0.000000
-8.381519 7.780892 0.000000
-12.844820 11.931319 0.000000
-15.692152 17.700017 0.000000
-19.287242 22.982498 0.000000
-24.170953 27.354796 0.000000
-27.286308 33.626034 0.000000
-30.406639 39.161213 0.000000
-33.447782 44.738864 0.000000
-36.665800 50.000000 0.000000
44.547731 -26.499860 0.000000
50.000000 -29.998614 0.000000
39.040030 -23.179236 0.000000
33.449739 -19.899937 0.000000
28.040008 -16.574056 0.000000
22.682457 -13.124008 0.000000
17.176324 -9.906821 0.000000
10.893351 -6.627017 0.000000
-1.353793 2.310457 0.000000
6.192582 -1.730646 0.000000
2.901693 1.598294 0.000000
-3.515448 7.124881 0.000000
-6.313188 12.441410 0.000000
-9.629498 17.704771 0.000000
-13.167137 23.113032 0.000000
-17.316615 28.185227 0.000000
-20.570690 33.474416 0.000000
-23.665893 39.064012 0.000000
-26.830878 44.585378 0.000000
-29.998867 50.000000 0.000000
44.528705 -19.930595 0.000000
50.000000 -23.331758 0.000000
39.036326 -16.594058 0.000000
33.576216 -13.281177 0.000000
28.150322 -9.964880 0.000000
22.725577 -6.604474 0.000000
17.264234 -3.336595 0.000000
11.952801 0.199305 0.000000
1.922877 6.263813 0.000000
6.967084 3.801181 0.000000
-0.216924 11.917279 0.000000
-3.263162 17.530248 0.000000
-6.700367 22.977728 0.000000
-10.567689 28.267528 0.000000
-13.723948 33.661417 0.000000
-16.945631 39.080371 0.000000
-20.140533 44.548458 0.000000
-23.332084 50.000000 0.000000
44.536287 -13.303709 0.000000
50.000000 -16.665198 0.000000
39.079917 -9.966673 0.000000
33.646735 -6.641042 0.000000
28.236135 -3.307554 0.000000
22.847091 0.018034 0.000000
17.535091 3.355763 0.000000
12.206009 6.594199 0.000000
6.706840 10.809892 0.000000
3.301618 17.196377 0.000000
-0.081209 22.852071 0.000000
-3.518547 28.312735 0.000000
-6.831316 33.774422 0.000000
-10.137355 39.170570 0.000000
-13.435695 44.563566 0.000000
-16.665540 50.000000 0.000000
44.554342 -6.654740 0.000000
50.000000 -9.998964 0.000000
39.123377 -3.321332 0.000000
33.713396 0.008774 0.000000
28.333203 3.344211 0.000000
23.001261 6.693708 0.000000
17.832980 10.022123 0.000000
12.656028 12.231298 0.000000
9.789173 17.234377 0.000000
6.478144 22.722355 0.000000
3.188847 28.269698 0.000000
-0.115893 33.734759 0.000000
-3.425157 39.168612 0.000000
-6.725406 44.581835 0.000000
-9.999214 50.000000 0.000000
44.575657 0.001891 0.000000
50.000000 -3.332985 0.000000
39.166863 3.331879 0.000000
33.779302 6.655569 0.000000
28.424107 9.994955 0.000000
23.046455 13.416425 0.000000
16.948863 17.022733 0.000000
12.901629 22.669834 0.000000
9.814871 28.232087 0.000000
6.604246 33.718737 0.000000
3.286568 39.164426 0.000000
-0.029858 44.584586 0.000000
-3.333065 50.000000 0.000000
44.586736 6.665511 0.000000
50.000000 3.332964 0.000000
39.198076 9.981928 0.000000
33.843408 13.277032 0.000000
28.541950 16.584728 0.000000
23.386918 20.084345 0.000000
18.531794 23.112421 0.000000
16.393162 28.298680 0.000000
13.328944 33.754767 0.000000
9.986577 39.181958 0.000000
6.666004 44.584358 0.000000
3.333021 50.000000 0.000000
44.608903 13.317930 0.000000
50.000000 9.999075 0.000000
39.251352 16.612439 0.000000
33.931881 19.862868 0.000000
28.612305 22.925998 0.000000
23.279630 27.207562 0.000000
19.901322 33.303065 0.000000
16.573811 39.040936 0.000000
13.268365 44.526756 0.000000
9.999136 50.000000 0.000000
44.632075 19.972984 0.000000
50.000000 16.665435 0.000000
39.298489 23.262135 0.000000
34.043795 26.514729 0.000000
28.965767 28.539459 0.000000
26.202382 33.410124 0.000000
23.066731 38.968827 0.000000
19.888598 44.507058 0.000000
16.665413 50.000000 0.000000
44.639809 26.642922 0.000000
50.000000 23.332028 0.000000
39.293368 29.966706 0.000000
33.212394 33.371277 0.000000
29.412136 39.045849 0.000000
26.422402 44.505971 0.000000
23.331964 50.000000 0.000000
44.774992 33.291801 0.000000
50.000000 29.998850 0.000000
39.738193 36.596311 0.000000
34.831065 39.525628 0.000000
32.833839 44.514295 0.000000
29.998772 50.000000 0.000000
44.978256 39.877867 0.000000
50.000000 36.665844 0.000000
39.734893 43.969037 0.000000
36.665771 50.000000 0.000000
45.621308 45.409813 0.000000
50.000000 43.332901 0.000000
43.332798 50.000000 0.000000
50.000000 50.000000 0.000000
CELLS 578 2312
3 1 0 2
3 0 3 2
3 4 1 6
3 6 1 2
3 3 5 7
3 3 7 2
3 6 2 7
3 9 4 10
3 10 4 6
3 5 8 11
3 7 5 11
3 10 6 12
3 12 6 7
3 7 11 13
3 7 13 12
3 8 14 15
3 11 8 15
3 16 9 17
3 17 9 10
3 17 10 18
3 18 10 12
3 11 15 19
3 13 11 19
3 18 12 20
3 13 19 20
3 20 12 13
3 14 22 24
3 15 14 24
3 15 24 25
3 19 15 25
3 21 16 26
3 26 16 17
3 26 17 27
3 27 17 18
3 27 18 28
3 28 18 20
3 19 25 29
3 19 29 20
3 28 20 30
3 30 20 29
3 31 21 32
3 32 21 26
3 22 23 36
3 24 22 36
3 23 34 37
3 36 23 37
3 24 36 38
3 25 24 38
3 25 38 39
3 29 25 39
3 32 26 40
3 40 26 27
3 40 27 41
3 41 27 28
3 41 28 42
3 42 28 30
3 29 39 43
3 29 43 30
3 42 30 43
3 33 31 44
3 44 31 32
3 44 32 45
3 45 32 40
3 46 33 47
3 47 33 44
3 34 35 50
3 37 34 50
3 35 48 51
3 50 35 51
3 36 37 52
3 38 36 52
3 37 50 53
3 52 37 53
3 38 52 54
3 39 38 54
3 39 54 55
3 43 39 55
3 45 40 56
3 56 40 41
3 56 41 57
3 57 41 42
3 57 42 58
3 58 42 43
3 43 55 59
3 43 59 58
3 47 44 60
3 60 44 45
3 60 45 61
3 61 45 56
3 62 46 63
3 63 46 47
3 63 47 64
3 64 47 60
3 48 49 68
3 51 48 68
3 49 66 69
3 68 49 69
3 50 51 70
3 53 50 70
3 51 68 71
3 70 51 71
3 52 53 72
3 54 52 72
3 53 70 73
3 72 53 73
3 54 72 74
3 55 54 74
3 55 74 75
3 59 55 75
3 61 56 76
3 76 56 57
3 76 57 77
3 77 57 58
3 77 58 78
3 59 75 78
3 78 58 59
3 64 60 79
3 79 60 61
3 79 61 80
3 80 61 76
3 65 62 81
3 81 62 63
3 81 63 82
3 82 63 64
3 82 64 83
3 83 64 79
3 84 65 85
3 85 65 81
3 66 67 89
3 69 66 89
3 67 87 90
3 89 67 90
3 68 69 91
3 71 68 91
3 69 89 92
3 91 69 92
3 70 71 93
3 73 70 93
3 71 91 94
3 93 71 94
3 72 73 95
3 74 72 95
3 73 93 96
3 95 73 96
3 74 95 97
3 75 74 97
3 75 97 98
3 78 75 98
3 80 76 99
3 99 76 77
3 99 77 100
3 100 77 78
3 100 78 101
3 98 101 78
3 83 79 102
3 102 79 80
3 102 80 103
3 103 80 99
3 85 81 104
3 104 81 82
3 105 83 102
3 104 82 106
3 106 82 83
3 106 83 105
3 86 84 107
3 107 84 85
3 107 85 108
3 108 85 104
3 109 86 107
3 110 86 109
3 87 88 112
3 90 87 112
3 112 88 113
3 88 114 113
3 90 112 115
3 89 90 116
3 92 89 116
3 116 90 115
3 91 92 117
3 94 91 117
3 92 116 118
3 117 92 118
3 93 94 119
3 96 93 119
3 94 117 120
3 119 94 120
3 95 96 121
3 97 95 121
3 96 119 122
3 121 96 122
3 97 121 123
3 98 97 123
3 98 123 124
3 98 124 101
3 103 99 125
3 125 99 100
3 125 100 126
3 126 100 101
3 126 101 124
3 105 102 127
3 127 102 103
3 127 103 128
3 128 103 125
3 129 105 127
3 108 104 130
3 130 104 106
3 130 106 131
3 131 106 105
3 131 105 129
3 108 130 132
3 109 107 133
3 133 107 108
3 133 108 134
3 108 132 134
3 135 109 133
3 111 110 136
3 136 110 109
3 136 109 135
3 137 111 136
3 138 111 137
3 112 113 139
3 115 112 139
3 114 140 113
3 140 139 113
3 139 141 115
3 116 115 142
3 118 116 142
3 142 115 141
3 117 118 143
3 120 117 143
3 118 142 144
3 143 118 144
3 119 120 145
3 122 119 145
3 120 143 146
3 145 120 146
3 121 122 147
3 123 121 147
3 122 145 148
3 147 122 148
3 123 147 149
3 124 123 149
3 124 149 150
3 151 126 124
3 124 150 151
3 128 125 152
3 152 125 126
3 152 126 151
3 129 127 153
3 153 127 128
3 128 152 154
3 153 128 154
3 155 129 153
3 131 129 156
3 156 129 155
3 132 130 157
3 130 131 157
3 157 131 158
3 131 156 158
3 132 157 159
3 132 159 134
3 135 133 160
3 160 133 134
3 160 134 159
3 136 135 161
3 135 160 161
3 162 137 136
3 161 162 136
3 163 138 137
3 162 163 137
3 139 164 141
3 140 165 139
3 139 165 164
3 141 164 166
3 141 166 142
3 166 167 142
3 144 142 167
3 167 168 144
3 143 144 168
3 146 143 168
3 168 169 146
3 145 146 170
3 148 145 170
3 170 146 169
3 147 148 171
3 149 147 171
3 148 170 172
3 171 148 172
3 173 151 150
3 149 171 174
3 150 149 174
3 150 174 175
3 150 175 173
3 154 152 176
3 152 151 176
3 176 151 173
3 154 176 177
3 155 153 178
3 177 178 154
3 154 178 153
3 156 155 179
3 155 178 179
3 180 158 156
3 179 180 156
3 181 159 157
3 180 181 158
3 181 157 158
3 182 160 159
3 181 182 159
3 183 161 160
3 182 183 160
3 184 162 161
3 184 161 183
3 185 163 162
3 184 185 162
3 164 186 166
3 165 187 164
3 164 187 186
3 166 186 188
3 166 188 167
3 167 188 189
3 167 189 168
3 168 189 190
3 168 190 169
3 169 190 191
3 169 191 170
3 192 172 170
3 170 191 192
3 192 193 172
3 171 172 193
3 174 171 193
3 194 173 175
3 176 173 194
3 175 174 195
3 193 195 174
3 195 196 175
3 175 196 194
3 197 177 176
3 194 197 176
3 198 178 177
3 197 198 177
3 199 179 178
3 198 199 178
3 200 180 179
3 199 200 179
3 201 181 180
3 200 201 180
3 202 182 181
3 201 202 181
3 203 183 182
3 202 203 182
3 204 184 183
3 203 204 183
3 205 185 184
3 204 205 184
3 186 206 188
3 187 207 186
3 186 207 206
3 188 206 208
3 188 208 189
3 189 208 209
3 189 209 190
3 190 209 210
3 190 210 191
3 191 210 211
3 191 211 192
3 192 211 212
3 192 212 193
3 193 212 213
3 193 213 195
3 214 197 194
3 214 194 196
3 195 213 215
3 195 215 196
3 196 215 214
3 216 198 197
3 214 216 197
3 217 199 198
3 216 217 198
3 218 200 199
3 217 218 199
3 219 201 200
3 218 219 200
3 220 202 201
3 219 220 201
3 221 203 202
3 220 221 202
3 222 204 203
3 221 222 203
3 223 205 204
3 222 223 204
3 206 224 208
3 207 225 206
3 206 225 224
3 208 224 226
3 208 226 209
3 209 226 227
3 209 227 210
3 210 227 228
3 210 228 211
3 211 228 229
3 211 229 212
3 212 229 230
3 212 230 213
3 213 230 231
3 213 231 215
3 232 216 214
3 215 231 232
3 232 214 215
3 233 217 216
3 232 233 216
3 234 218 217
3 233 234 217
3 235 219 218
3 234 235 218
3 236 220 219
3 235 236 219
3 237 221 220
3 236 237 220
3 238 222 221
3 237 238 221
3 239 223 222
3 238 239 222
3 224 240 226
3 225 241 224
3 224 241 240
3 226 240 242
3 226 242 227
3 227 242 243
3 227 243 228
3 228 243 244
3 228 244 229
3 244 245 229
3 229 245 230
3 230 245 246
3 230 246 231
3 231 246 247
3 231 247 232
3 248 233 232
3 248 232 247
3 249 234 233
3 248 249 233
3 250 235 234
3 249 250 234
3 251 236 235
3 250 251 235
3 252 237 236
3 251 252 236
3 253 238 237
3 252 253 237
3 254 239 238
3 253 254 238
3 240 255 242
3 241 256 240
3 240 256 255
3 242 255 257
3 242 257 243
3 243 257 258
3 243 258 244
3 244 258 259
3 244 259 245
3 245 259 260
3 245 260 246
3 246 260 261
3 246 261 247
3 248 247 261
3 262 249 248
3 261 262 248
3 263 250 249
3 262 263 249
3 264 251 250
3 263 264 250
3 265 252 251
3 264 265 251
3 266 253 252
3 265 266 252
3 267 254 253
3 266 267 253
3 255 268 257
3 256 269 255
3 255 269 268
3 257 268 270
3 257 270 258
3 258 270 271
3 258 271 259
3 259 271 272
3 259 272 260
3 260 272 273
3 260 273 261
3 274 262 261
3 261 273 274
3 275 263 262
3 274 275 262
3 276 264 263
3 275 276 263
3 277 265 264
3 276 277 264
3 278 266 265
3 277 278 265
3 279 267 266
3 278 279 266
3 268 280 270
3 269 281 268
3 268 281 280
3 270 280 282
3 270 282 271
3 271 282 283
3 271 283 272
3 283 284 272
3 272 284 273
3 285 275 274
3 273 284 285
3 285 274 273
3 286 276 275
3 285 286 275
3 287 277 276
3 286 287 276
3 288 278 277
3 287 288 277
3 289 279 278
3 288 289 278
3 280 290 282
3 281 291 280
3 280 291 290
3 282 290 292
3 282 292 283
3 283 292 293
3 283 293 284
3 284 293 294
3 284 294 285
3 295 286 285
3 295 285 294
3 296 287 286
3 295 296 286
3 297 288 287
3 296 297 287
3 298 289 288
3 297 298 288
3 290 299 292
3 291 300 290
3 290 300 299
3 292 299 301
3 292 301 293
3 293 301 302
3 293 302 294
3 294 302 295
3 303 296 295
3 303 295 302
3 304 297 296
3 303 304 296
3 305 298 297
3 304 305 297
3 299 306 301
3 300 307 299
3 299 307 306
3 301 306 308
3 301 308 302
3 309 303 302
3 302 308 309
3 310 304 303
3 309 310 303
3 311 305 304
3 310 311 304
3 306 312 308
3 307 313 306
3 306 313 312
3 314 310 309
3 308 312 314
3 314 309 308
3 315 311 310
3 314 315 310
3 312 316 314
3 313 317 312
3 312 317 316
3 318 315 314
3 318 314 316
3 317 319 316
3 319 318 316
CELL_TYPES 578
5
5
5
5
5
5
5
5
5
5
5
5
5
5
5
5
5
5
5
5
5
5
5
5
5
5
5
5
5
5
5
5
5
5
5
5
5
5
5
5
5
5
5
5
5
5
5
5
5
5
5
5
5
5
5
5
5
5
5
5
5
5
5
5
5
5
5
5
5
5
5
5
5
5
5
5
5
5
5
5
5
5
5
5
5
5
5
5
5
5
5
5
5
5
5
5
5
5
5
5
5
5
5
5
5
5
5
5
5
5
5
5
5
5
5
5
5
5
5
5
5
5
5
5
5
5
5
5
5
5
5
5
5
5
5
5
5
5
5
5
5
5
5
5
5
5
5
5
5
5
5
5
5
5
5
5
5
5
5
5
5
5
5
5
5
5
5
5
5
5
5
5
5
5
5
5
5
5
5
5
5
5
5
5
5
5
5
5
5
5
5
5
5
5
5
5
5
5
5
5
5
5
5
5
5
5
5
5
5
5
5
5
5
5
5
5
5
5
5
5
5
5
5
5
5
5
5
5
5
5
5
5
5
5
5
5
5
5
5
5
5
5
5
5
5
5
5
5
5
5
5
5
5
5
5
5
5
5
5
5
5
5
5
5
5
5
5
5
5
5
5
5
5
5
5
5
5
5
5
5
5
5
5
5
5
5
5
5
5
5
5
5
5
5
5
5
5
5
5
5
5
5
5
5
5
5
5
5
5
5
5
5
5
5
5
5
5
5
5
5
5
5
5
5
5
5
5
5
5
5
5
5
5
5
5
5
5
5
5
5
5
5
5
5
5
5
5
5
5
5
5
5
5
5
5
5
5
5
5
5
5
5
5
5
5
5
5
5
5
5
5
5
5
5
5
5
5
5
5
5
5
5
5
5
5
5
5
5
5
5
5
5
5
5
5
5
5
5
5
5
5
5
5
5
5
5
5
5
5
5
5
5
5
5
5
5
5
5
5
5
5
5
5
5
5
5
5
5
5
5
5
5
5
5
5
5
5
5
5
5
5
5
5
5
5
5
5
5
5
5
5
5
5
5
5
5
5
5
5
5
5
5
5
5
5
5
5
5
5
5
5
5
5
5
5
5
5
5
5
5
5
5
5
5
5
5
5
5
5
5
5
5
5
5
5
5
5
5
5
5
5
5
5
5
5
5
5
5
5
5
5
5
5
5
5
5
5
5
5
5
5
5
5
5
5
5
5
5
5
5
5
5
5
5
5
5
5
5
5
5
5
5
5
5
5
5
5
5
5
5
5
5
5
5
5
5
5
5
5
5
5
5
5
5
5
5
5
5
5
5
5
5
5
5
5
5
5
5
POINT_DATA 320
SCALARS theta_e float 1
LOOKUP_TABLE default
1.000000
1.000000
1.000000
1.000000
1.000000
1.000000
1.000000
1.000000
1.000000
1.000000
1.000000
1.000000
1.000000
1.000000
1.000000
1.000000
1.000000
1.000000
1.000000
1.000000
1.000000
1.000000
1.000000
1.000000
1.000000
1.000000
1.000000
1.000000
1.000000
1.000000
1.000000
1.000000
1.000000
1.000000
1.000000
1.000000
1.000000
1.000000
1.000000
1.000000
1.000000
1.000000
1.000000
1.000000
1.000000
1.000000
1.000000
1.000000
1.000000
1.000000
1.000000
1.000000
1.000000
1.000000
1.000000
1.000000
1.000000
1.000000
1.000000
1.000000
1.000000
1.000000
1.000000
1.000000
1.000000
1.000000
1.000000
1.000000
1.000000
1.000000
1.000000
1.000000
1.000000
1.000000
1.000000
1.000000
1.000000
1.000000
1.000000
1.000000
1.000000
1.000000
1.000000
1.000000
1.000000
1.000000
1.000000
1.000000
1.000000
1.000000
1.000000
1.000000
1.000000
1.000000
1.000000
1.000000
1.000000
1.000000
1.000000
1.000000
1.000000
1.000000
1.000000
1.000000
1.000000
1.000000
1.000000
1.000000
1.000000
1.000000
1.000000
1.000000
1.000000
1.000000
1.000000
1.000000
1.000000
1.000000
1.000000
1.000000
1.000000
1.000000
1.000000
1.000000
0.999999
1.000000
1.000000
1.000000
1.000000
1.000000
1.000000
1.000000
1.000000
1.000000
1.000000
1.000000
1.000000
1.000000
1.000000
1.000000
1.000000
1.000000
1.000000
1.000000
1.000000
1.000000
1.000000
1.000000
1.000000
0.999999
0.999996
0.999997
0.999999
1.000000
1.000000
1.000000
1.000000
1.000000
1.000000
1.000000
1.000000
1.000000
1.000000
1.000000
1.000000
1.000000
1.000000
1.000000
1.000000
1.000000
1.000000
1.000000
1.000000
0.999995
0.999997
0.999994
0.999997
0.999999
1.000000
1.000000
1.000000
1.000000
1.000000
1.000000
1.000000
1.000000
1.000000
1.000000
1.000000
1.000000
1.000000
1.000000
1.000000
0.999999
0.999995
0.999996
0.999994
0.999997
1.000000
1.000000
1.000000
1.000000
1.000000
1.000000
1.000000
1.000000
1.000000
1.000000
1.000000
1.000000
1.000000
1.000000
1.000000
0.999999
0.999996
0.999997
0.999999
1.000000
1.000000
1.000000
1.000000
1.000000
1.000000
1.000000
1.000000
1.000000
1.000000
1.000000
1.000000
1.000000
1.000000
1.000000
0.999999
1.000000
1.000000
1.000000
1.000000
1.000000
1.000000
1.000000
1.000000
1.000000
1.000000
1.000000
1.000000
1.000000
1.000000
1.000000
1.000000
1.000000
1.000000
1.000000
1.000000
1.000000
1.000000
1.000000
1.000000
1.000000
1.000000
1.000000
1.000000
1.000000
1.000000
1.000000
1.000000
1.000000
1.000000
1.000000
1.000000
1.000000
1.000000
1.000000
1.000000
1.000000
1.000000
1.000000
1.000000
1.000000
1.000000
1.000000
1.000000
1.000000
1.000000
1.000000
1.000000
1.000000
1.000000
1.000000
1.000000
1.000000
1.000000
1.000000
1.000000
1.000000
1.000000
1.000000
1.000000
1.000000
1.000000
1.000000
1.000000
1.000000
1.000000
1.000000
1.000000
1.000000
1.000000
1.000000
1.000000
1.000000
1.000000
1.000000
1.000000
1.000000
1.000000
1.000000
1.000000
1.000000
1.000000
1.000000
VECTORS fa_u float
0.000000 0.000000 0.000000
0.000000 0.000000 0.000000
0.000000 0.000000 0.000000
0.000000 0.000000 0.000000
0.000000 0.000000 0.000000
0.000000 0.000000 0.000000
0.000000 0.000000 0.000000
0.000000 0.000000 0.000000
0.000000 0.000000 0.000000
0.000000 0.000000 0.000000
0.000000 0.000000 0.000000
0.000000 0.000000 0.000000
0.000000 0.000000 0.000000
0.000000 0.000000 0.000000
0.000000 0.000000 0.000000
0.000000 0.000000 0.000000
0.000000 0.000000 0.000000
0.000000 0.000000 0.000000
0.000000 0.000000 0.000000
0.000000 0.000000 0.000000
0.000000 0.000000 0.000000
0.000000 0.000000 0.000000
0.000000 0.000000 0.000000
0.000000 0.000000 0.000000
0.000000 0.000000 0.000000
0.000000 0.000000 0.000000
0.000000 0.000000 0.000000
0.000000 0.000000 0.000000
0.000000 0.000000 0.000000
0.000000 0.000000 0.000000
0.000000 0.000000 0.000000
0.000000 0.000000 0.000000
0.000000 0.000000 0.000000
0.000000 0.000000 0.000000
0.000000 0.000000 0.000000
0.000000 0.000000 0.000000
0.000000 0.000000 0.000000
0.000000 0.000000 0.000000
0.000000 0.000000 0.000000
0.000000 0.000000 0.000000
0.000000 0.000000 0.000000
0.000000 0.000000 0.000000
0.000000 0.000000 0.000000
0.000000 0.000000 0.000000
0.000000 0.000000 0.000000
0.000000 0.000000 0.000000
0.000000 0.000000 0.000000
0.000000 0.000000 0.000000
0.000000 0.000000 0.000000
0.000000 0.000000 0.000000
0.000000 0.000000 0.000000
0.000000 0.000000 0.000000
0.000000 0.000000 0.000000
0.000000 0.000000 0.000000
0.000000 0.000000 0.000000
0.000000 0.000000 0.000000
0.000000 0.000000 0.000000
0.000000 0.000000 0.000000
0.000000 0.000000 0.000000
0.000000 0.000000 0.000000
0.000000 0.000000 0.000000
0.000000 0.000000 0.000000
0.000000 0.000000 0.000000
0.000000 0.000000 0.000000
0.000000 0.000000 0.000000
0.000000 0.000000 0.000000
0.000000 0.000000 0.000000
0.000000 0.000000 0.000000
0.000000 0.000000 0.000000
0.000000 0.000000 0.000000
0.000000 0.000000 0.000000
0.000000 0.000000 0.000000
0.000000 0.000000 0.000000
0.000000 0.000000 0.000000
0.000000 0.000000 0.000000
0.000000 0.000000 0.000000
0.000000 0.000000 0.000000
0.000000 0.000000 0.000000
0.000000 0.000000 0.000000
0.000000 0.000000 0.000000
0.000000 0.000000 0.000000
0.000000 0.000000 0.000000
0.000000 0.000000 0.000000
0.000000 0.000000 0.000000
0.000000 0.000000 0.000000
0.000000 0.000000 0.000000
0.000000 0.000000 0.000000
0.000000 0.000000 0.000000
0.000000 0.000000 0.000000
0.000000 0.000000 0.000000
0.000000 0.000000 0.000000
0.000000 0.000000 0.000000
0.000000 0.000000 0.000000
0.000000 0.000000 0.000000
0.000000 0.000000 0.000000
0.000000 0.000000 0.000000
0.000000 0.000000 0.000000
0.000000 0.000000 0.000000
0.000000 0.000000 0.000000
0.000000 0.000000 0.000000
0.000000 0.000000 0.000000
0.000000 0.000000 0.000000
0.000000 0.000000 0.000000
0.000000 0.000000 0.000000
0.000000 0.000000 0.000000
0.000000 0.000000 0.000000
0.000000 0.000000 0.000000
0.000000 0.000000 0.000000
0.000000 0.000000 0.000000
0.000000 0.000000 0.000000
0.000000 0.000000 0.000000
0.000000 0.000000 0.000000
0.000000 0.000000 0.000000
0.000000 0.000000 0.000000
0.000000 0.000000 0.000000
0.000000 0.000000 0.000000
0.000000 0.000000 0.000000
0.000000 0.000000 0.000000
0.000000 0.000000 0.000000
0.000000 0.000000 0.000000
0.000000 0.000000 0.000000
0.000000 0.000000 0.000000
0.000000 0.000000 0.000000
0.000000 0.000000 0.000000
0.000000 0.000000 0.000000
0.000000 0.000000 0.000000
0.000000 0.000000 0.000000
0.000000 0.000000 0.000000
0.000000 0.000000 0.000000
0.000000 0.000000 0.000000
0.000000 0.000000 0.000000
0.000000 0.000000 0.000000
0.000000 0.000000 0.000000
0.000000 0.000000 0.000000
0.000000 0.000000 0.000000
0.000000 0.000000 0.000000
0.000000 0.000000 0.000000
0.000000 0.000000 0.000000
0.000000 0.000000 0.000000
0.000000 0.000000 0.000000
0.000000 0.000000 0.000000
0.000000 0.000000 0.000000
0.000000 0.000000 0.000000
0.000000 0.000000 0.000000
0.000000 0.000000 0.000000
0.000000 0.000000 0.000000
0.000000 0.000000 0.000000
0.000000 0.000000 0.000000
0.000000 0.000000 0.000000
0.000000 0.000000 0.000000
0.000000 0.000000 0.000000
0.000000 0.000000 0.000000
0.000000 0.000000 0.000000
0.000000 0.000000 0.000000
0.000000 0.000000 0.000000
0.000000 0.000000 0.000000
0.000000 0.000000 0.000000
0.000000 0.000000 0.000000
0.000000 0.000000 0.000000
0.000000 0.000000 0.000000
0.000000 0.000000 0.000000
0.000000 0.000000 0.000000
0.000000 0.000000 0.000000
0.000000 0.000000 0.000000
0.000000 0.000000 0.000000
0.000000 0.000000 0.000000
0.000000 0.000000 0.000000
0.000000 0.000000 0.000000
0.000000 0.000000 0.000000
0.000000 0.000000 0.000000
0.000000 0.000000 0.000000
0.000000 0.000000 0.000000
0.000000 0.000000 0.000000
0.000000 0.000000 0.000000
0.000000 0.000000 0.000000
0.000000 0.000000 0.000000
0.000000 0.000000 0.000000
0.000000 0.000000 0.000000
0.000000 0.000000 0.000000
0.000000 0.000000 0.000000
0.000000 0.000000 0.000000
0.000000 0.000000 0.000000
0.000000 0.000000 0.000000
0.000000 0.000000 0.000000
0.000000 0.000000 0.000000
0.000000 0.000000 0.000000
0.000000 0.000000 0.000000
0.000000 0.000000 0.000000
0.000000 0.000000 0.000000
0.000000 0.000000 0.000000
0.000000 0.000000 0.000000
0.000000 0.000000 0.000000
0.000000 0.000000 0.000000
0.000000 0.000000 0.000000
0.000000 0.000000 0.000000
0.000000 0.000000 0.000000
0.000000 0.000000 0.000000
0.000000 0.000000 0.000000
0.000000 0.000000 0.000000
0.000000 0.000000 0.000000
0.000000 0.000000 0.000000
0.000000 0.000000 0.000000
0.000000 0.000000 0.000000
0.000000 0.000000 0.000000
0.000000 0.000000 0.000000
0.000000 0.000000 0.000000
0.000000 0.000000 0.000000
0.000000 0.000000 0.000000
0.000000 0.000000 0.000000
0.000000 0.000000 0.000000
0.000000 0.000000 0.000000
0.000000 0.000000 0.000000
0.000000 0.000000 0.000000
0.000000 0.000000 0.000000
0.000000 0.000000 0.000000
0.000000 0.000000 0.000000
0.000000 0.000000 0.000000
0.000000 0.000000 0.000000
0.000000 0.000000 0.000000
0.000000 0.000000 0.000000
0.000000 0.000000 0.000000
0.000000 0.000000 0.000000
0.000000 0.000000 0.000000
0.000000 0.000000 0.000000
0.000000 0.000000 0.000000
0.000000 0.000000 0.000000
0.000000 0.000000 0.000000
0.000000 0.000000 0.000000
0.000000 0.000000 0.000000
0.000000 0.000000 0.000000
0.000000 0.000000 0.000000
0.000000 0.000000 0.000000
0.000000 0.000000 0.000000
0.000000 0.000000 0.000000
0.000000 0.000000 0.000000
0.000000 0.000000 0.000000
0.000000 0.000000 0.000000
0.000000 0.000000 0.000000
0.000000 0.000000 0.000000
0.000000 0.000000 0.000000
0.000000 0.000000 0.000000
0.000000 0.000000 0.000000
0.000000 0.000000 0.000000
0.000000 0.000000 0.000000
0.000000 0.000000 0.000000
0.000000 0.000000 0.000000
0.000000 0.000000 0.000000
0.000000 0.000000 0.000000
0.000000 0.000000 0.000000
0.000000 0.000000 0.000000
0.000000 0.000000 0.000000
0.000000 0.000000 0.000000
0.000000 0.000000 0.000000
0.000000 0.000000 0.000000
0.000000 0.000000 0.000000
0.000000 0.000000 0.000000
0.000000 0.000000 0.000000
0.000000 0.000000 0.000000
0.000000 0.000000 0.000000
0.000000 0.000000 0.000000
0.000000 0.000000 0.000000
0.000000 0.000000 0.000000
0.000000 0.000000 0.000000
0.000000 0.000000 0.000000
0.000000 0.000000 0.000000
0.000000 0.000000 0.000000
0.000000 0.000000 0.000000
0.000000 0.000000 0.000000
0.000000 0.000000 0.000000
0.000000 0.000000 0.000000
0.000000 0.000000 0.000000
0.000000 0.000000 0.000000
0.000000 0.000000 0.000000
0.000000 0.000000 0.000000
0.000000 0.000000 0.000000
0.000000 0.000000 0.000000
0.000000 0.000000 0.000000
0.000000 0.000000 0.000000
0.000000 0.000000 0.000000
0.000000 0.000000 0.000000
0.000000 0.000000 0.000000
0.000000 0.000000 0.000000
0.000000 0.000000 0.000000
0.000000 0.000000 0.000000
0.000000 0.000000 0.000000
0.000000 0.000000 0.000000
0.000000 0.000000 0.000000
0.000000 0.000000 0.000000
0.000000 0.000000 0.000000
0.000000 0.000000 0.000000
0.000000 0.000000 0.000000
0.000000 0.000000 0.000000
0.000000 0.000000 0.000000
0.000000 0.000000 0.000000
0.000000 0.000000 0.000000
0.000000 0.000000 0.000000
0.000000 0.000000 -50.000000
-50.000000 0.000000 -50.000000
-43.332969 0.000000 -45.688393
-45.491154 0.000000 -43.332907
-50.000000 0.000000 -50.000000
-36.665914 0.000000 -36.665917
-50.000000 0.000000 -45.081128
-39.969794 0.000000 -40.027200
-44.152282 0.000000 -29.998893
-50.000000 0.000000 -50.000000
-29.998889 0.000000 -44.847097
-33.448925 0.000000 -33.144926
-44.675694 0.000000 -39.869139
-36.787000 0.000000 -35.128671
-39.801315 0.000000 -23.332017
-50.000000 0.000000 -26.539166
-44.666749 0.000000 -50.000000
-23.332028 0.000000 -44.665281
-26.803934 0.000000 -39.364254
-30.225692 0.000000 -29.606289
-39.359375 0.000000 -33.368255
-33.655460 0.000000 -50.000000
-16.665406 0.000000 -16.665420
-50.000000 0.000000 -9.999110
