# vtk DataFile Version 2.0
CellBP Time: 3.16
ASCII
DATASET UNSTRUCTURED_GRID
POINTS 320 double
-50.000000 -50.000000 0.000000
-50.000000 -43.333018 0.000000
-45.688376 -45.491136 0.000000
-43.332968 -50.000000 0.000000
-50.000000 -36.666013 0.000000
-36.666023 -50.000000 0.000000
-45.081110 -39.969779 0.000000
-40.027175 -44.152264 0.000000
-29.999049 -50.000000 0.000000
-50.000000 -29.999034 0.000000
-44.847080 -33.448909 0.000000
-33.144908 -44.675675 0.000000
-39.869118 -36.786984 0.000000
-35.128646 -39.801291 0.000000
-23.332199 -50.000000 0.000000
-26.539147 -44.666740 0.000000
-50.000000 -23.332195 0.000000
-44.665275 -26.803912 0.000000
-39.364240 -30.225671 0.000000
-29.606262 -39.359356 0.000000
-33.368227 -33.655435 0.000000
-50.000000 -16.665562 0.000000
-16.665589 -50.000000 0.000000
-9.999226 -50.000000 0.000000
-19.964877 -44.588774 0.000000
-23.215884 -39.114694 0.000000
-44.691894 -20.096897 0.000000
-39.367861 -23.528142 0.000000
-34.106138 -26.937010 0.000000
-26.384409 -33.577248 0.000000
-29.156197 -28.926614 0.000000
-50.000000 -9.999112 0.000000
-44.666367 -13.410165 0.000000
-50.000000 -3.332900 0.000000
-3.333070 -50.000000 0.000000
3.333030 -50.000000 0.000000
-13.343632 -44.599043 0.000000
-6.684697 -44.610720 0.000000
-16.693696 -39.153308 0.000000
-20.106980 -33.342689 0.000000
-39.338189 -16.804760 0.000000
-34.018710 -20.274671 0.000000
-28.780942 -23.449055 0.000000
-23.510503 -27.350282 0.000000
-44.635471 -6.705547 0.000000
-39.293100 -10.101817 0.000000
-50.000000 3.333183 0.000000
-44.626778 -0.015606 0.000000
9.999227 -50.000000 0.000000
16.665617 -50.000000 0.000000
-0.016082 -44.618790 0.000000
6.651653 -44.635468 0.000000
-10.044692 -39.222617 0.000000
-3.368201 -39.220417 0.000000
-13.484260 -33.798754 0.000000
-16.709545 -28.271502 0.000000
-33.948090 -13.514061 0.000000
-28.601848 -16.892392 0.000000
-23.291659 -20.313029 0.000000
-18.660411 -23.283009 0.000000
-39.267556 -3.392815 0.000000
-33.904588 -6.796754 0.000000
-50.000000 9.999304 0.000000
-44.606789 6.673424 0.000000
-39.260959 3.325685 0.000000
-50.000000 16.665635 0.000000
23.332209 -50.000000 0.000000
29.999006 -50.000000 0.000000
13.317466 -44.662980 0.000000
19.989593 -44.700116 0.000000
3.307703 -39.245167 0.000000
9.971835 -39.290324 0.000000
-6.735303 -33.791400 0.000000
-0.032253 -33.829630 0.000000
-10.095926 -28.293363 0.000000
-13.122782 -22.897992 0.000000
-28.532515 -10.214904 0.000000
-23.066904 -13.663386 0.000000
-16.977613 -17.209816 0.000000
-33.884734 -0.065425 0.000000
-28.563216 -3.579061 0.000000
-44.564139 13.380473 0.000000
-39.190107 10.015067 0.000000
-33.905788 6.616051 0.000000
-50.000000 23.332153 0.000000
-44.557644 20.138189 0.000000
-50.000000 29.999045 0.000000
36.665958 -50.000000 0.000000
43.332964 -50.000000 0.000000
26.663212 -44.745297 0.000000
33.315273 -44.875948 0.000000
16.631686 -39.357698 0.000000
23.328259 -39.437085 0.000000
6.642883 -33.879543 0.000000
13.290768 -33.965471 0.000000
-3.345701 -28.363101 0.000000
3.357366 -28.451307 0.000000
-6.626008 -22.845970 0.000000
-9.968832 -17.315065 0.000000
-23.184243 -7.014740 0.000000
-17.811349 -10.334925 0.000000
-12.837728 -12.594366 0.000000
-28.607544 3.088582 0.000000
-23.265306 -0.468569 0.000000
-39.038918 16.746472 0.000000
-28.721088 9.926354 0.000000
-33.761504 13.318401 0.000000
-44.521686 26.716918 0.000000
-38.467742 23.892545 0.000000
-44.632299 33.085557 0.000000
-50.000000 36.666133 0.000000
-50.000000 43.333051 0.000000
39.922360 -45.069573 0.000000
45.474677 -45.660436 0.000000
50.000000 -50.000000 0.000000
36.626772 -39.981936 0.000000
30.012341 -39.458587 0.000000
19.904234 -34.092787 0.000000
26.585039 -34.319459 0.000000
9.988803 -28.513379 0.000000
16.610944 -28.659982 0.000000
0.051802 -22.960139 0.000000
6.812273 -23.157652 0.000000
-3.400195 -17.297299 0.000000
-6.851016 -10.993212 0.000000
-17.877373 -3.825006 0.000000
-12.553169 -7.035796 0.000000
-23.310086 6.072660 0.000000
-18.036950 2.451214 0.000000
-23.122407 12.095873 0.000000
-33.572104 19.788962 0.000000
-27.941375 16.885641 0.000000
-33.292838 24.722725 0.000000
-39.473536 30.052801 0.000000
-35.160294 28.137504 0.000000
-39.815953 35.101399 0.000000
-43.991665 39.982202 0.000000
-45.431006 45.685157 0.000000
-50.000000 50.000000 0.000000
44.117233 -39.898974 0.000000
50.000000 -43.332822 0.000000
39.639415 -35.047371 0.000000
33.462884 -33.424506 0.000000
22.984910 -28.817918 0.000000
28.730983 -29.247754 0.000000
13.460846 -23.121791 0.000000
20.054896 -23.438955 0.000000
3.383070 -17.587840 0.000000
10.126387 -17.840831 0.000000
0.148789 -11.956929 0.000000
-2.146088 -6.238193 0.000000
-7.345214 -3.670301 0.000000
-12.584423 -0.804284 0.000000
-18.165134 8.573462 0.000000
-12.959123 5.197195 0.000000
-18.638812 13.751972 0.000000
-21.504393 17.494930 0.000000
-28.940726 23.158550 0.000000
-24.346230 21.554663 0.000000
-30.323507 28.634840 0.000000
-34.253402 33.375538 0.000000
-36.955901 39.578066 0.000000
-39.838658 45.102749 0.000000
-43.332935 50.000000 0.000000
44.585227 -32.972025 0.000000
50.000000 -36.665795 0.000000
39.129301 -29.581791 0.000000
33.500595 -26.367616 0.000000
27.182863 -23.322076 0.000000
23.066148 -18.647757 0.000000
16.990141 -16.980196 0.000000
6.709554 -12.210976 0.000000
12.357553 -12.733646 0.000000
-3.380123 -1.491886 0.000000
3.901494 -6.962786 0.000000
1.021734 -2.120561 0.000000
-6.974273 2.313285 0.000000
-8.390570 7.788945 0.000000
-12.845063 11.931696 0.000000
-15.692244 17.700118 0.000000
-19.287202 22.982582 0.000000
-24.170934 27.354821 0.000000
-27.286289 33.626047 0.000000
-30.406619 39.161223 0.000000
-33.447762 44.738861 0.000000
-36.665895 50.000000 0.000000
44.547729 -26.499834 0.000000
50.000000 -29.998790 0.000000
39.040032 -23.179224 0.000000
33.449756 -19.899933 0.000000
28.040037 -16.574121 0.000000
22.682683 -13.124052 0.000000
17.176383 -9.907393 0.000000
10.901298 -6.630442 0.000000
-1.353373 2.309669 0.000000
6.198315 -1.732505 0.000000
2.903127 1.598748 0.000000
-3.520282 7.135357 0.000000
-6.312817 12.441728 0.000000
-9.629398 17.704097 0.000000
-13.167023 23.112848 0.000000
-17.316567 28.185213 0.000000
-20.570649 33.474418 0.000000
-23.665865 39.064012 0.000000
-26.830843 44.585378 0.000000
-29.998991 50.000000 0.000000
44.528711 -19.930563 0.000000
50.000000 -23.331958 0.000000
39.036344 -16.594043 0.000000
33.576256 -13.281172 0.000000
28.150431 -9.964866 0.000000
22.725672 -6.604468 0.000000
17.264280 -3.336715 0.000000
11.963486 0.197929 0.000000
1.924474 6.269553 0.000000
6.979977 3.808515 0.000000
-0.216196 11.927385 0.000000
-3.264341 17.530043 0.000000
-6.700491 22.977770 0.000000
-10.567733 28.267516 0.000000
-13.723916 33.661434 0.000000
-16.945603 39.080379 0.000000
-20.140492 44.548463 0.000000
-23.332223 50.000000 0.000000
44.536301 -13.303675 0.000000
50.000000 -16.665384 0.000000
39.079934 -9.966652 0.000000
33.646758 -6.641006 0.000000
28.236102 -3.307506 0.000000
22.846901 0.018110 0.000000
17.534893 3.356875 0.000000
12.207580 6.594944 0.000000
6.710152 10.817989 0.000000
3.301461 17.196170 0.000000
-0.081312 22.851836 0.000000
-3.518520 28.312673 0.000000
-6.831288 33.774382 0.000000
-10.137322 39.170563 0.000000
-13.435655 44.563570 0.000000
-16.665666 50.000000 0.000000
44.554362 -6.654714 0.000000
50.000000 -9.999096 0.000000
39.123397 -3.321315 0.000000
33.713408 0.008779 0.000000
28.333201 3.344156 0.000000
23.001407 6.693727 0.000000
17.832828 10.022426 0.000000
12.655763 12.230357 0.000000
9.789544 17.234527 0.000000
6.478000 22.722348 0.000000
3.188776 28.269627 0.000000
-0.115894 33.734729 0.000000
-3.425150 39.168593 0.000000
-6.725381 44.581838 0.000000
-9.999305 50.000000 0.000000
44.575673 0.001906 0.000000
50.000000 -3.333030 0.000000
39.166863 3.331892 0.000000
33.779286 6.655574 0.000000
28.424124 9.994990 0.000000
23.046435 13.416463 0.000000
16.948667 17.022603 0.000000
12.901615 22.670056 0.000000
9.814801 28.232120 0.000000
6.604212 33.718724 0.000000
3.286556 39.164419 0.000000
-0.029859 44.584589 0.000000
-3.333100 50.000000 0.000000
44.586744 6.665507 0.000000
50.000000 3.333011 0.000000
39.198066 9.981929 0.000000
33.843396 13.277054 0.000000
28.541905 16.584772 0.000000
23.386838 20.084359 0.000000
18.531760 23.112341 0.000000
16.393194 28.298700 0.000000
13.328919 33.754769 0.000000
9.986550 39.181956 0.000000
6.665981 44.584365 0.000000
3.333051 50.000000 0.000000
44.608905 13.317909 0.000000
50.000000 9.999194 0.000000
39.251346 16.612433 0.000000
33.931861 19.862873 0.000000
28.612273 22.926005 0.000000
23.279613 27.207547 0.000000
19.901301 33.303084 0.000000
16.573776 39.040945 0.000000
13.268326 44.526764 0.000000
9.999232 50.000000 0.000000
44.632074 19.972958 0.000000
50.000000 16.665593 0.000000
39.298480 23.262123 0.000000
34.043775 26.514722 0.000000
28.965741 28.539460 0.000000
26.202356 33.410122 0.000000
23.066702 38.968831 0.000000
19.888558 44.507062 0.000000
16.665557 50.000000 0.000000
44.639800 26.642898 0.000000
50.000000 23.332196 0.000000
39.293352 29.966689 0.000000
33.212370 33.371266 0.000000
29.412105 39.045843 0.000000
26.422367 44.505969 0.000000
23.332125 50.000000 0.000000
44.774976 33.291783 0.000000
50.000000 29.998998 0.000000
39.738176 36.596299 0.000000
34.831039 39.525611 0.000000
32.833810 44.514281 0.000000
29.998919 50.000000 0.000000
44.978239 39.877851 0.000000
50.000000 36.665949 0.000000
39.734863 43.969020 0.000000
36.665879 50.000000 0.000000
45.621288 45.409794 0.000000
50.000000 43.332956 0.000000
43.332863 50.000000 0.000000
50.000000 50.000000 0.000000
CELLS 578 2312
3 1 0 2
3 0 3 2
3 4 1 6
3 6 1 2
3 3 5 7
3 3 7 2
3 6 2 7
3 9 4 10
3 10 4 6
3 5 8 11
3 7 5 11
3 10 6 12
3 12 6 7
3 7 11 13
3 7 13 12
3 8 14 15
3 11 8 15
3 16 9 17
3 17 9 10
3 17 10 18
3 18 10 12
3 11 15 19
3 13 11 19
3 18 12 20
3 13 19 20
3 20 12 13
3 14 22 24
3 15 14 24
3 15 24 25
3 19 15 25
3 21 16 26
3 26 16 17
3 26 17 27
3 27 17 18
3 27 18 28
3 28 18 20
3 19 25 29
3 19 29 20
3 28 20 30
3 30 20 29
3 31 21 32
3 32 21 26
3 22 23 36
3 24 22 36
3 23 34 37
3 36 23 37
3 24 36 38
3 25 24 38
3 25 38 39
3 29 25 39
3 32 26 40
3 40 26 27
3 40 27 41
3 41 27 28
3 41 28 42
3 42 28 30
3 29 39 43
3 29 43 30
3 42 30 43
3 33 31 44
3 44 31 32
3 44 32 45
3 45 32 40
3 46 33 47
3 47 33 44
3 34 35 50
3 37 34 50
3 35 48 51
3 50 35 51
3 36 37 52
3 38 36 52
3 37 50 53
3 52 37 53
3 38 52 54
3 39 38 54
3 39 54 55
3 43 39 55
3 45 40 56
3 56 40 41
3 56 41 57
3 57 41 42
3 57 42 58
3 58 42 43
3 43 55 59
3 43 59 58
3 47 44 60
3 60 44 45
3 60 45 61
3 61 45 56
3 62 46 63
3 63 46 47
3 63 47 64
3 64 47 60
3 48 49 68
3 51 48 68
3 49 66 69
3 68 49 69
3 50 51 70
3 53 50 70
3 51 68 71
3 70 51 71
3 52 53 72
3 54 52 72
3 53 70 73
3 72 53 73
3 54 72 74
3 55 54 74
3 55 74 75
3 59 55 75
3 61 56 76
3 76 56 57
3 76 57 77
3 77 57 58
3 77 58 78
3 59 75 78
3 78 58 59
3 64 60 79
3 79 60 61
3 79 61 80
3 80 61 76
3 65 62 81
3 81 62 63
3 81 63 82
3 82 63 64
3 82 64 83
3 83 64 79
3 84 65 85
3 85 65 81
3 66 67 89
3 69 66 89
3 67 87 90
3 89 67 90
3 68 69 91
3 71 68 91
3 69 89 92
3 91 69 92
3 70 71 93
3 73 70 93
3 71 91 94
3 93 71 94
3 72 73 95
3 74 72 95
3 73 93 96
3 95 73 96
3 74 95 97
3 75 74 97
3 75 97 98
3 78 75 98
3 80 76 99
3 99 76 77
3 99 77 100
3 100 77 78
3 100 78 101
3 98 101 78
3 83 79 102
3 102 79 80
3 102 80 103
3 103 80 99
3 85 81 104
3 104 81 82
3 105 83 102
3 104 82 106
3 106 82 83
3 106 83 105
3 86 84 107
3 107 84 85
3 107 85 108
3 108 85 104
3 109 86 107
3 110 86 109
3 87 88 112
3 90 87 112
3 112 88 113
3 88 114 113
3 90 112 115
3 89 90 116
3 92 89 116
3 116 90 115
3 91 92 117
3 94 91 117
3 92 116 118
3 117 92 118
3 93 94 119
3 96 93 119
3 94 117 120
3 119 94 120
3 95 96 121
3 97 95 121
3 96 119 122
3 121 96 122
3 97 121 123
3 98 97 123
3 98 123 124
3 98 124 101
3 103 99 125
3 125 99 100
3 125 100 126
3 126 100 101
3 126 101 124
3 105 102 127
3 127 102 103
3 127 103 128
3 128 103 125
3 129 105 127
3 108 104 130
3 130 104 106
3 130 106 131
3 131 106 105
3 131 105 129
3 108 130 132
3 109 107 133
3 133 107 108
3 133 108 134
3 108 132 134
3 135 109 133
3 111 110 136
3 136 110 109
3 136 109 135
3 137 111 136
3 138 111 137
3 112 113 139
3 115 112 139
3 114 140 113
3 140 139 113
3 139 141 115
3 116 115 142
3 118 116 142
3 142 115 141
3 117 118 143
3 120 117 143
3 118 142 144
3 143 118 144
3 119 120 145
3 122 119 145
3 120 143 146
3 145 120 146
3 121 122 147
3 123 121 147
3 122 145 148
3 147 122 148
3 123 147 149
3 124 123 149
3 124 149 150
3 151 126 124
3 124 150 151
3 128 125 152
3 152 125 126
3 152 126 151
3 129 127 153
3 153 127 128
3 128 152 154
3 153 128 154
3 155 129 153
3 131 129 156
3 156 129 155
3 132 130 157
3 130 131 157
3 157 131 158
3 131 156 158
3 132 157 159
3 132 159 134
3 135 133 160
3 160 133 134
3 160 134 159
3 136 135 161
3 135 160 161
3 162 137 136
3 161 162 136
3 163 138 137
3 162 163 137
3 139 164 141
3 140 165 139
3 139 165 164
3 141 164 166
3 141 166 142
3 166 167 142
3 144 142 167
3 167 168 144
3 143 144 168
3 146 143 168
3 168 169 146
3 145 146 170
3 148 145 170
3 170 146 169
3 147 148 171
3 149 147 171
3 148 170 172
3 171 148 172
3 173 151 150
3 149 171 174
3 150 149 174
3 150 174 175
3 150 175 173
3 154 152 176
3 152 151 176
3 176 151 173
3 154 176 177
3 155 153 178
3 177 178 154
3 154 178 153
3 156 155 179
3 155 178 179
3 180 158 156
3 179 180 156
3 181 159 157
3 180 181 158
3 181 157 158
3 182 160 159
3 181 182 159
3 183 161 160
3 182 183 160
3 184 162 161
3 184 161 183
3 185 163 162
3 184 185 162
3 164 186 166
3 165 187 164
3 164 187 186
3 166 186 188
3 166 188 167
3 167 188 189
3 167 189 168
3 168 189 190
3 168 190 169
3 169 190 191
3 169 191 170
3 192 172 170
3 170 191 192
3 192 193 172
3 171 172 193
3 174 171 193
3 194 173 175
3 176 173 194
3 175 174 195
3 193 195 174
3 195 196 175
3 175 196 194
3 197 177 176
3 194 197 176
3 198 178 177
3 197 198 177
3 199 179 178
3 198 199 178
3 200 180 179
3 199 200 179
3 201 181 180
3 200 201 180
3 202 182 181
3 201 202 181
3 203 183 182
3 202 203 182
3 204 184 183
3 203 204 183
3 205 185 184
3 204 205 184
3 186 206 188
3 187 207 186
3 186 207 206
3 188 206 208
3 188 208 189
3 189 208 209
3 189 209 190
3 190 209 210
3 190 210 191
3 191 210 211
3 191 211 192
3 192 211 212
3 192 212 193
3 193 212 213
3 193 213 195
3 214 197 194
3 214 194 196
3 195 213 215
3 195 215 196
3 196 215 214
3 216 198 197
3 214 216 197
3 217 199 198
3 216 217 198
3 218 200 199
3 217 218 199
3 219 201 200
3 218 219 200
3 220 202 201
3 219 220 201
3 221 203 202
3 220 221 202
3 222 204 203
3 221 222 203
3 223 205 204
3 222 223 204
3 206 224 208
3 207 225 206
3 206 225 224
3 208 224 226
3 208 226 209
3 209 226 227
3 209 227 210
3 210 227 228
3 210 228 211
3 211 228 229
3 211 229 212
3 212 229 230
3 212 230 213
3 213 230 231
3 213 231 215
3 232 216 214
3 215 231 232
3 232 214 215
3 233 217 216
3 232 233 216
3 234 218 217
3 233 234 217
3 235 219 218
3 234 235 218
3 236 220 219
3 235 236 219
3 237 221 220
3 236 237 220
3 238 222 221
3 237 238 221
3 239 223 222
3 238 239 222
3 224 240 226
3 225 241 224
3 224 241 240
3 226 240 242
3 226 242 227
3 227 242 243
3 227 243 228
3 228 243 244
3 228 244 229
3 244 245 229
3 229 245 230
3 230 245 246
3 230 246 231
3 231 246 247
3 231 247 232
3 248 233 232
3 248 232 247
3 249 234 233
3 248 249 233
3 250 235 234
3 249 250 234
3 251 236 235
3 250 251 235
3 252 237 236
3 251 252 236
3 253 238 237
3 252 253 237
3 254 239 238
3 253 254 238
3 240 255 242
3 241 256 240
3 240 256 255
3 242 255 257
3 242 257 243
3 243 257 258
3 243 258 244
3 244 258 259
3 244 259 245
3 245 259 260
3 245 260 246
3 246 260 261
3 246 261 247
3 248 247 261
3 262 249 248
3 261 262 248
3 263 250 249
3 262 263 249
3 264 251 250
3 263 264 250
3 265 252 251
3 264 265 251
3 266 253 252
3 265 266 252
3 267 254 253
3 266 267 253
3 255 268 257
3 256 269 255
3 255 269 268
3 257 268 270
3 257 270 258
3 258 270 271
3 258 271 259
3 259 271 272
3 259 272 260
3 260 272 273
3 260 273 261
3 274 262 261
3 261 273 274
3 275 263 262
3 274 275 262
3 276 264 263
3 275 276 263
3 277 265 264
3 276 277 264
3 278 266 265
3 277 278 265
3 279 267 266
3 278 279 266
3 268 280 270
3 269 281 268
3 268 281 280
3 270 280 282
3 270 282 271
3 271 282 283
3 271 283 272
3 283 284 272
3 272 284 273
3 285 275 274
3 273 284 285
3 285 274 273
3 286 276 275
3 285 286 275
3 287 277 276
3 286 287 276
3 288 278 277
3 287 288 277
3 289 279 278
3 288 289 278
3 280 290 282
3 281 291 280
3 280 291 290
3 282 290 292
3 282 292 283
3 283 292 293
3 283 293 284
3 284 293 294
3 284 294 285
3 295 286 285
3 295 285 294
3 296 287 286
3 295 296 286
3 297 288 287
3 296 297 287
3 298 289 288
3 297 298 288
3 290 299 292
3 291 300 290
3 290 300 299
3 292 299 301
3 292 301 293
3 293 301 302
3 293 302 294
3 294 302 295
3 303 296 295
3 303 295 302
3 304 297 296
3 303 304 296
3 305 298 297
3 304 305 297
3 299 306 301
3 300 307 299
3 299 307 306
3 301 306 308
3 301 308 302
3 309 303 302
3 302 308 309
3 310 304 303
3 309 310 303
3 311 305 304
3 310 311 304
3 306 312 308
3 307 313 306
3 306 313 312
3 314 310 309
3 308 312 314
3 314 309 308
3 315 311 310
3 314 315 310
3 312 316 314
3 313 317 312
3 312 317 316
3 318 315 314
3 318 314 316
3 317 319 316
3 319 318 316
CELL_TYPES 578
5
5
5
5
5
5
5
5
5
5
5
5
5
5
5
5
5
5
5
5
5
5
5
5
5
5
5
5
5
5
5
5
5
5
5
5
5
5
5
5
5
5
5
5
5
5
5
5
5
5
5
5
5
5
5
5
5
5
5
5
5
5
5
5
5
5
5
5
5
5
5
5
5
5
5
5
5
5
5
5
5
5
5
5
5
5
5
5
5
5
5
5
5
5
5
5
5
5
5
5
5
5
5
5
5
5
5
5
5
5
5
5
5
5
5
5
5
5
5
5
5
5
5
5
5
5
5
5
5
5
5
5
5
5
5
5
5
5
5
5
5
5
5
5
5
5
5
5
5
5
5
5
5
5
5
5
5
5
5
5
5
5
5
5
5
5
5
5
5
5
5
5
5
5
5
5
5
5
5
5
5
5
5
5
5
5
5
5
5
5
5
5
5
5
5
5
5
5
5
5
5
5
5
5
5
5
5
5
5
5
5
5
5
5
5
5
5
5
5
5
5
5
5
5
5
5
5
5
5
5
5
5
5
5
5
5
5
5
5
5
5
5
5
5
5
5
5
5
5
5
5
5
5
5
5
5
5
5
5
5
5
5
5
5
5
5
5
5
5
5
5
5
5
5
5
5
5
5
5
5
5
5
5
5
5
5
5
5
5
5
5
5
5
5
5
5
5
5
5
5
5
5
5
5
5
5
5
5
5
5
5
5
5
5
5
5
5
5
5
5
5
5
5
5
5
5
5
5
5
5
5
5
5
5
5
5
5
5
5
5
5
5
5
5
5
5
5
5
5
5
5
5
5
5
5
5
5
5
5
5
5
5
5
5
5
5
5
5
5
5
5
5
5
5
5
5
5
5
5
5
5
5
5
5
5
5
5
5
5
5
5
5
5
5
5
5
5
5
5
5
5
5
5
5
5
5
5
5
5
5
5
5
5
5
5
5
5
5
5
5
5
5
5
5
5
5
5
5
5
5
5
5
5
5
5
5
5
5
5
5
5
5
5
5
5
5
5
5
5
5
5
5
5
5
5
5
5
5
5
5
5
5
5
5
5
5
5
5
5
5
5
5
5
5
5
5
5
5
5
5
5
5
5
5
5
5
5
5
5
5
5
5
5
5
5
5
5
5
5
5
5
5
5
5
5
5
5
5
5
5
5
5
5
5
5
5
5
5
5
5
5
5
5
5
5
5
5
5
5
5
5
5
5
5
5
5
5
5
5
5
5
5
5
5
5
5
5
5
5
5
5
5
5
5
5
5
5
5
5
5
5
5
5
5
5
5
5
5
5
5
5
5
5
5
5
5
5
5
POINT_DATA 320
SCALARS theta_e float 1
LOOKUP_TABLE default
1.000000
1.000000
1.000000
1.000000
1.000000
1.000000
1.000000
1.000000
1.000000
1.000000
1.000000
1.000000
1.000000
1.000000
1.000000
1.000000
1.000000
1.000000
1.000000
1.000000
1.000000
1.000000
1.000000
1.000000
1.000000
1.000000
1.000000
1.000000
1.000000
1.000000
1.000000
1.000000
1.000000
1.000000
1.000000
1.000000
1.000000
1.000000
1.000000
1.000000
1.000000
1.000000
1.000000
1.000000
1.000000
1.000000
1.000000
1.000000
1.000000
1.000000
1.000000
1.000000
1.000000
1.000000
1.000000
1.000000
1.000000
1.000000
1.000000
1.000000
1.000000
1.000000
1.000000
1.000000
1.000000
1.000000
1.000000
1.000000
1.000000
1.000000
1.000000
1.000000
1.000000
1.000000
1.000000
1.000000
1.000000
1.000000
1.000000
1.000000
1.000000
1.000000
1.000000
1.000000
1.000000
1.000000
1.000000
1.000000
1.000000
1.000000
1.000000
1.000000
1.000000
1.000000
1.000000
1.000000
1.000000
1.000000
1.000000
1.000000
1.000000
1.000000
1.000000
1.000000
1.000000
1.000000
1.000000
1.000000
1.000000
1.000000
1.000000
1.000000
1.000000
1.000000
1.000000
1.000000
1.000000
1.000000
1.000000
1.000000
1.000000
1.000000
1.000000
1.000000
0.999998
1.000001
1.000000
1.000001
1.000001
1.000000
1.000000
1.000000
1.000000
1.000000
1.000000
1.000000
1.000000
1.000000
1.000000
1.000000
1.000000
1.000000
1.000000
1.000000
1.000000
1.000000
1.000000
1.000000
1.000000
0.999998
0.999991
0.999994
0.999999
1.000001
1.000000
1.000001
1.000000
1.000000
1.000000
1.000000
1.000000
1.000000
1.000000
1.000000
1.000000
1.000000
1.000000
1.000000
1.000000
1.000000
1.000000
0.999999
1.000000
0.999987
0.999993
0.999988
0.999993
0.999998
1.000001
1.000001
1.000000
1.000000
1.000000
1.000000
1.000000
1.000000
1.000000
1.000000
1.000000
1.000000
1.000000
1.000000
1.000000
0.999998
0.999988
0.999991
0.999988
0.999993
0.999999
1.000000
1.000000
1.000000
1.000000
1.000000
1.000000
1.000000
1.000000
1.000000
1.000000
1.000000
1.000000
1.000000
1.000000
0.999998
0.999991
0.999994
0.999998
1.000000
1.000000
1.000000
1.000000
1.000000
1.000000
1.000000
1.000000
1.000000
1.000000
1.000000
1.000000
1.000000
1.000001
1.000000
0.999998
1.000000
1.000000
1.000000
1.000000
1.000000
1.000000
1.000000
1.000000
1.000000
1.000000
1.000000
1.000000
1.000000
1.000001
1.000000
1.000000
1.000000
1.000000
1.000000
1.000000
1.000000
1.000000
1.000000
1.000000
1.000000
1.000000
1.000000
1.000000
1.000000
1.000000
1.000000
1.000000
1.000000
1.000000
1.000000
1.000000
1.000000
1.000000
1.000000
1.000000
1.000000
1.000000
1.000000
1.000000
1.000000
1.000000
1.000000
1.000000
1.000000
1.000000
1.000000
1.000000
1.000000
1.000000
1.000000
1.000000
1.000000
1.000000
1.000000
1.000000
1.000000
1.000000
1.000000
1.000000
1.000000
1.000000
1.000000
1.000000
1.000000
1.000000
1.000000
1.000000
1.000000
1.000000
1.000000
1.000000
1.000000
1.000000
1.000000
1.000000
1.000000
1.000000
1.000000
1.000000
1.000000
1.000000
1.000000
VECTORS fa_u float
0.000000 0.000000 0.000000
0.000000 0.000000 0.000000
0.000000 0.000000 0.000000
0.000000 0.000000 0.000000
0.000000 0.000000 0.000000
0.000000 0.000000 0.000000
0.000000 0.000000 0.000000
0.000000 0.000000 0.000000
0.000000 0.000000 0.000000
0.000000 0.000000 0.000000
0.000000 0.000000 0.000000
0.000000 0.000000 0.000000
0.000000 0.000000 0.000000
0.000000 0.000000 0.000000
0.000000 0.000000 0.000000
0.000000 0.000000 0.000000
0.000000 0.000000 0.000000
0.000000 0.000000 0.000000
0.000000 0.000000 0.000000
0.000000 0.000000 0.000000
0.000000 0.000000 0.000000
0.000000 0.000000 0.000000
0.000000 0.000000 0.000000
0.000000 0.000000 0.000000
0.000000 0.000000 0.000000
0.000000 0.000000 0.000000
0.000000 0.000000 0.000000
0.000000 0.000000 0.000000
0.000000 0.000000 0.000000
0.000000 0.000000 0.000000
0.000000 0.000000 0.000000
0.000000 0.000000 0.000000
0.000000 0.000000 0.000000
0.000000 0.000000 0.000000
0.000000 0.000000 0.000000
0.000000 0.000000 0.000000
0.000000 0.000000 0.000000
0.000000 0.000000 0.000000
0.000000 0.000000 0.000000
0.000000 0.000000 0.000000
0.000000 0.000000 0.000000
0.000000 0.000000 0.000000
0.000000 0.000000 0.000000
0.000000 0.000000 0.000000
0.000000 0.000000 0.000000
0.000000 0.000000 0.000000
0.000000 0.000000 0.000000
0.000000 0.000000 0.000000
0.000000 0.000000 0.000000
0.000000 0.000000 0.000000
0.000000 0.000000 0.000000
0.000000 0.000000 0.000000
0.000000 0.000000 0.000000
0.000000 0.000000 0.000000
0.000000 0.000000 0.000000
0.000000 0.000000 0.000000
0.000000 0.000000 0.000000
0.000000 0.000000 0.000000
0.000000 0.000000 0.000000
0.000000 0.000000 0.000000
0.000000 0.000000 0.000000
0.000000 0.000000 0.000000
0.000000 0.000000 0.000000
0.000000 0.000000 0.000000
0.000000 0.000000 0.000000
0.000000 0.000000 0.000000
0.000000 0.000000 0.000000
0.000000 0.000000 0.000000
0.000000 0.000000 0.000000
0.000000 0.000000 0.000000
0.000000 0.000000 0.000000
0.000000 0.000000 0.000000
0.000000 0.000000 0.000000
0.000000 0.000000 0.000000
0.000000 0.000000 0.000000
0.000000 0.000000 0.000000
0.000000 0.000000 0.000000
0.000000 0.000000 0.000000
0.000000 0.000000 0.000000
0.000000 0.000000 0.000000
0.000000 0.000000 0.000000
0.000000 0.000000 0.000000
0.000000 0.000000 0.000000
0.000000 0.000000 0.000000
0.000000 0.000000 0.000000
0.000000 0.000000 0.000000
0.000000 0.000000 0.000000
0.000000 0.000000 0.000000
0.000000 0.000000 0.000000
0.000000 0.000000 0.000000
0.000000 0.000000 0.000000
0.000000 0.000000 0.000000
0.000000 0.000000 0.000000
0.000000 0.000000 0.000000
0.000000 0.000000 0.000000
0.000000 0.000000 0.000000
0.000000 0.000000 0.000000
0.000000 0.000000 0.000000
0.000000 0.000000 0.000000
0.000000 0.000000 0.000000
0.000000 0.000000 0.000000
0.000000 0.000000 0.000000
0.000000 0.000000 0.000000
0.000000 0.000000 0.000000
0.000000 0.000000 0.000000
0.000000 0.000000 0.000000
0.000000 0.000000 0.000000
0.000000 0.000000 0.000000
0.000000 0.000000 0.000000
0.000000 0.000000 0.000000
0.000000 0.000000 0.000000
0.000000 0.000000 0.000000
0.000000 0.000000 0.000000
0.000000 0.000000 0.000000
0.000000 0.000000 0.000000
0.000000 0.000000 0.000000
0.000000 0.000000 0.000000
0.000000 0.000000 0.000000
0.000000 0.000000 0.000000
0.000000 0.000000 0.000000
0.000000 0.000000 0.000000
0.000000 0.000000 0.000000
0.000000 0.000000 0.000000
0.000000 0.000000 0.000000
0.000000 0.000000 0.000000
0.000000 0.000000 0.000000
0.000000 0.000000 0.000000
0.000000 0.000000 0.000000
0.000000 0.000000 0.000000
0.000000 0.000000 0.000000
0.000000 0.000000 0.000000
0.000000 0.000000 0.000000
0.000000 0.000000 0.000000
0.000000 0.000000 0.000000
0.000000 0.000000 0.000000
0.000000 0.000000 0.000000
0.000000 0.000000 0.000000
0.000000 0.000000 0.000000
0.000000 0.000000 0.000000
0.000000 0.000000 0.000000
0.000000 0.000000 0.000000
0.000000 0.000000 0.000000
0.000000 0.000000 0.000000
0.000000 0.000000 0.000000
0.000000 0.000000 0.000000
0.000000 0.000000 0.000000
0.000000 0.000000 0.000000
0.000000 0.000000 0.000000
0.000000 0.000000 0.000000
0.000000 0.000000 0.000000
0.000000 0.000000 0.000000
0.000000 0.000000 0.000000
0.000000 0.000000 0.000000
0.000000 0.000000 0.000000
0.000000 0.000000 0.000000
0.000000 0.000000 0.000000
0.000000 0.000000 0.000000
0.000000 0.000000 0.000000
0.000000 0.000000 0.000000
0.000000 0.000000 0.000000
0.000000 0.000000 0.000000
0.000000 0.000000 0.000000
0.000000 0.000000 0.000000
0.000000 0.000000 0.000000
0.000000 0.000000 0.000000
0.000000 0.000000 0.000000
0.000000 0.000000 0.000000
0.000000 0.000000 0.000000
0.000000 0.000000 0.000000
0.000000 0.000000 0.000000
0.000000 0.000000 0.000000
0.000000 0.000000 0.000000
0.000000 0.000000 0.000000
0.000000 0.000000 0.000000
0.000000 0.000000 0.000000
0.000000 0.000000 0.000000
0.000000 0.000000 0.000000
0.000000 0.000000 0.000000
0.000000 0.000000 0.000000
0.000000 0.000000 0.000000
0.000000 0.000000 0.000000
0.000000 0.000000 0.000000
0.000000 0.000000 0.000000
0.000000 0.000000 0.000000
0.000000 0.000000 0.000000
0.000000 0.000000 0.000000
0.000000 0.000000 0.000000
0.000000 0.000000 0.000000
0.000000 0.000000 0.000000
0.000000 0.000000 0.000000
0.000000 0.000000 0.000000
0.000000 0.000000 0.000000
0.000000 0.000000 0.000000
0.000000 0.000000 0.000000
0.000000 0.000000 0.000000
0.000000 0.000000 0.000000
0.000000 0.000000 0.000000
0.000000 0.000000 0.000000
0.000000 0.000000 0.000000
0.000000 0.000000 0.000000
0.000000 0.000000 0.000000
0.000000 0.000000 0.000000
0.000000 0.000000 0.000000
0.000000 0.000000 0.000000
0.000000 0.000000 0.000000
0.000000 0.000000 0.000000
0.000000 0.000000 0.000000
0.000000 0.000000 0.000000
0.000000 0.000000 0.000000
0.000000 0.000000 0.000000
0.000000 0.000000 0.000000
0.000000 0.000000 0.000000
0.000000 0.000000 0.000000
0.000000 0.000000 0.000000
0.000000 0.000000 0.000000
0.000000 0.000000 0.000000
0.000000 0.000000 0.000000
0.000000 0.000000 0.000000
0.000000 0.000000 0.000000
0.000000 0.000000 0.000000
0.000000 0.000000 0.000000
0.000000 0.000000 0.000000
0.000000 0.000000 0.000000
0.000000 0.000000 0.000000
0.000000 0.000000 0.000000
0.000000 0.000000 0.000000
0.000000 0.000000 0.000000
0.000000 0.000000 0.000000
0.000000 0.000000 0.000000
0.000000 0.000000 0.000000
0.000000 0.000000 0.000000
0.000000 0.000000 0.000000
0.000000 0.000000 0.000000
0.000000 0.000000 0.000000
0.000000 0.000000 0.000000
0.000000 0.000000 0.000000
0.000000 0.000000 0.000000
0.000000 0.000000 0.000000
0.000000 0.000000 0.000000
0.000000 0.000000 0.000000
0.000000 0.000000 0.000000
0.000000 0.000000 0.000000
0.000000 0.000000 0.000000
0.000000 0.000000 0.000000
0.000000 0.000000 0.000000
0.000000 0.000000 0.000000
0.000000 0.000000 0.000000
0.000000 0.000000 0.000000
0.000000 0.000000 0.000000
0.000000 0.000000 0.000000
0.000000 0.000000 0.000000
0.000000 0.000000 0.000000
0.000000 0.000000 0.000000
0.000000 0.000000 0.000000
0.000000 0.000000 0.000000
0.000000 0.000000 0.000000
0.000000 0.000000 0.000000
0.000000 0.000000 0.000000
0.000000 0.000000 0.000000
0.000000 0.000000 0.000000
0.000000 0.000000 0.000000
0.000000 0.000000 0.000000
0.000000 0.000000 0.000000
0.000000 0.000000 0.000000
0.000000 0.000000 0.000000
0.000000 0.000000 0.000000
0.000000 0.000000 0.000000
0.000000 0.000000 0.000000
0.000000 0.000000 0.000000
0.000000 0.000000 0.000000
0.000000 0.000000 0.000000
0.000000 0.000000 0.000000
0.000000 0.000000 0.000000
0.000000 0.000000 0.000000
0.000000 0.000000 0.000000
0.000000 0.000000 0.000000
0.000000 0.000000 0.000000
0.000000 0.000000 0.000000
0.000000 0.000000 0.000000
0.000000 0.000000 0.000000
0.000000 0.000000 0.000000
0.000000 0.000000 0.000000
0.000000 0.000000 0.000000
0.000000 0.000000 0.000000
0.000000 0.000000 0.000000
0.000000 0.000000 0.000000
0.000000 0.000000 0.000000
0.000000 0.000000 0.000000
0.000000 0.000000 0.000000
0.000000 0.000000 0.000000
0.000000 0.000000 0.000000
0.000000 0.000000 0.000000
0.000000 0.000000 0.000000
0.000000 0.000000 0.000000
0.000000 0.000000 0.000000
0.000000 0.000000 0.000000
0.000000 0.000000 -50.000000
-50.000000 0.000000 -50.000000
-43.333018 0.000000 -45.688376
-45.491136 0.000000 -43.332968
-50.000000 0.000000 -50.000000
-36.666013 0.000000 -36.666023
-50.000000 0.000000 -45.081110
-39.969779 0.000000 -40.027175
-44.152264 0.000000 -29.999049
-50.000000 0.000000 -50.000000
-29.999034 0.000000 -44.847080
-33.448909 0.000000 -33.144908
-44.675675 0.000000 -39.869118
-36.786984 0.000000 -35.128646
-39.801291 0.000000 -23.332199
-50.000000 0.000000 -26.539147
-44.666740 0.000000 -50.000000
-23.332195 0.000000 -44.665275
-26.803912 0.000000 -39.364240
-30.225671 0.000000 -29.606262
-39.359356 0.000000 -33.368227
-33.655435 0.000000 -50.000000
-16.665562 0.000000 -16.665589
-50.000000 0.000000 -9.999226
