# vtk DataFile Version 2.0
CellBP Time: 2.32
ASCII
DATASET UNSTRUCTURED_GRID
POINTS 320 double
-50.000000 -50.000000 0.000000
-50.000000 -43.333102 0.000000
-45.688344 -45.491109 0.000000
-43.333065 -50.000000 0.000000
-50.000000 -36.666189 0.000000
-36.666193 -50.000000 0.000000
-45.081075 -39.969758 0.000000
-40.027123 -44.152235 0.000000
-29.999302 -50.000000 0.000000
-50.000000 -29.999296 0.000000
-44.847044 -33.448890 0.000000
-33.144866 -44.675642 0.000000
-39.869072 -36.786959 0.000000
-35.128592 -39.801249 0.000000
-23.332502 -50.000000 0.000000
-26.539104 -44.666721 0.000000
-50.000000 -23.332504 0.000000
-44.665257 -26.803887 0.000000
-39.364202 -30.225643 0.000000
-29.606201 -39.359319 0.000000
-33.368162 -33.655393 0.000000
-50.000000 -16.665862 0.000000
-16.665877 -50.000000 0.000000
-9.999433 -50.000000 0.000000
-19.964829 -44.588777 0.000000
-23.215839 -39.114674 0.000000
-44.691897 -20.096874 0.000000
-39.367839 -23.528131 0.000000
-34.106090 -26.936985 0.000000
-26.384345 -33.577193 0.000000
-29.156127 -28.926566 0.000000
-50.000000 -9.999354 0.000000
-44.666368 -13.410150 0.000000
-50.000000 -3.333017 0.000000
-3.333140 -50.000000 0.000000
3.333112 -50.000000 0.000000
-13.343583 -44.599058 0.000000
-6.684673 -44.610746 0.000000
-16.693660 -39.153324 0.000000
-20.106949 -33.342677 0.000000
-39.338185 -16.804781 0.000000
-34.018648 -20.274687 0.000000
-28.780856 -23.449013 0.000000
-23.510444 -27.350162 0.000000
-44.635489 -6.705563 0.000000
-39.293083 -10.101841 0.000000
-50.000000 3.333227 0.000000
-44.626808 -0.015651 0.000000
9.999435 -50.000000 0.000000
16.665899 -50.000000 0.000000
-0.016085 -44.618814 0.000000
6.651616 -44.635482 0.000000
-10.044665 -39.222620 0.000000
-3.368203 -39.220436 0.000000
-13.484256 -33.798780 0.000000
-16.709626 -28.271454 0.000000
-33.948089 -13.514143 0.000000
-28.601698 -16.892436 0.000000
-23.291474 -20.312960 0.000000
-18.660305 -23.282754 0.000000
-39.267574 -3.392860 0.000000
-33.904580 -6.796770 0.000000
-50.000000 9.999498 0.000000
-44.606824 6.673355 0.000000
-39.260997 3.325645 0.000000
-50.000000 16.665921 0.000000
23.332511 -50.000000 0.000000
29.999272 -50.000000 0.000000
13.317400 -44.662985 0.000000
19.989524 -44.700118 0.000000
3.307692 -39.245168 0.000000
9.971804 -39.290311 0.000000
-6.735263 -33.791390 0.000000
-0.032289 -33.829643 0.000000
-10.095928 -28.293478 0.000000
-13.122785 -22.898203 0.000000
-28.532628 -10.215016 0.000000
-23.066727 -13.663320 0.000000
-16.977332 -17.209371 0.000000
-33.884795 -0.065437 0.000000
-28.563251 -3.578928 0.000000
-44.564165 13.380386 0.000000
-39.190140 10.015022 0.000000
-33.905831 6.616020 0.000000
-50.000000 23.332480 0.000000
-44.557689 20.138118 0.000000
-50.000000 29.999309 0.000000
36.666147 -50.000000 0.000000
43.333061 -50.000000 0.000000
26.663148 -44.745284 0.000000
33.315225 -44.875920 0.000000
16.631653 -39.357698 0.000000
23.328214 -39.437070 0.000000
6.642844 -33.879526 0.000000
13.290778 -33.965470 0.000000
-3.345628 -28.362985 0.000000
3.357200 -28.451308 0.000000
-6.626012 -22.846095 0.000000
-9.969720 -17.314925 0.000000
-23.184724 -7.014834 0.000000
-17.810913 -10.334930 0.000000
-12.837500 -12.592379 0.000000
-28.607559 3.088536 0.000000
-23.265086 -0.468407 0.000000
-39.038989 16.746469 0.000000
-28.721238 9.926399 0.000000
-33.761611 13.318438 0.000000
-44.521683 26.716845 0.000000
-38.467740 23.892498 0.000000
-44.632237 33.085485 0.000000
-50.000000 36.666280 0.000000
-50.000000 43.333128 0.000000
39.922322 -45.069545 0.000000
45.474636 -45.660404 0.000000
50.000000 -50.000000 0.000000
36.626736 -39.981913 0.000000
30.012290 -39.458566 0.000000
19.904210 -34.092756 0.000000
26.585002 -34.319433 0.000000
9.988817 -28.513461 0.000000
16.610966 -28.659906 0.000000
0.051964 -22.959687 0.000000
6.812253 -23.157974 0.000000
-3.400588 -17.297388 0.000000
-6.856684 -11.006142 0.000000
-17.877848 -3.826537 0.000000
-12.553491 -7.035979 0.000000
-23.310343 6.073061 0.000000
-18.037358 2.452917 0.000000
-23.122240 12.095745 0.000000
-33.572103 19.788946 0.000000
-27.941331 16.885508 0.000000
-33.292782 24.722664 0.000000
-39.473460 30.052710 0.000000
-35.160209 28.137442 0.000000
-39.815875 35.101331 0.000000
-43.991624 39.982124 0.000000
-45.430984 45.685107 0.000000
-50.000000 50.000000 0.000000
44.117195 -39.898930 0.000000
50.000000 -43.332960 0.000000
39.639371 -35.047338 0.000000
33.462847 -33.424479 0.000000
22.984868 -28.817880 0.000000
28.730946 -29.247726 0.000000
13.460794 -23.121771 0.000000
20.054854 -23.438842 0.000000
3.385247 -17.587431 0.000000
10.126752 -17.840491 0.000000
0.146225 -11.976871 0.000000
-2.149427 -6.249459 0.000000
-7.369478 -3.683909 0.000000
-12.601511 -0.803610 0.000000
-18.163928 8.573301 0.000000
-12.961483 5.197009 0.000000
-18.639071 13.752049 0.000000
-21.504537 17.495032 0.000000
-28.940685 23.158424 0.000000
-24.346224 21.554712 0.000000
-30.323438 28.634774 0.000000
-34.253337 33.375506 0.000000
-36.955867 39.578044 0.000000
-39.838643 45.102714 0.000000
-43.333044 50.000000 0.000000
44.585193 -32.971990 0.000000
50.000000 -36.666031 0.000000
39.129276 -29.581754 0.000000
33.500557 -26.367595 0.000000
27.182778 -23.322077 0.000000
23.065944 -18.647741 0.000000
16.989747 -16.979931 0.000000
6.710536 -12.213032 0.000000
12.355417 -12.733246 0.000000
-3.382187 -1.492903 0.000000
3.916239 -6.987530 0.000000
1.021842 -2.120755 0.000000
-6.990154 2.319554 0.000000
-8.408692 7.804988 0.000000
-12.845881 11.932399 0.000000
-15.692521 17.700335 0.000000
-19.287195 22.982760 0.000000
-24.170939 27.354879 0.000000
-27.286276 33.626079 0.000000
-30.406596 39.161248 0.000000
-33.447734 44.738856 0.000000
-36.666107 50.000000 0.000000
44.547720 -26.499790 0.000000
50.000000 -29.999118 0.000000
39.040026 -23.179209 0.000000
33.449777 -19.899932 0.000000
28.040079 -16.574249 0.000000
22.683106 -13.124145 0.000000
17.176521 -9.908492 0.000000
10.916566 -6.636999 0.000000
-1.352626 2.308651 0.000000
6.208630 -1.736075 0.000000
2.905557 1.599664 0.000000
-3.529922 7.156084 0.000000
-6.312499 12.443043 0.000000
-9.629352 17.703002 0.000000
-13.166885 23.112581 0.000000
-17.316522 28.185227 0.000000
-20.570597 33.474446 0.000000
-23.665828 39.064025 0.000000
-26.830785 44.585382 0.000000
-29.999268 50.000000 0.000000
44.528719 -19.930511 0.000000
50.000000 -23.332330 0.000000
39.036367 -16.594020 0.000000
33.576316 -13.281167 0.000000
28.150618 -9.964839 0.000000
22.725829 -6.604442 0.000000
17.264357 -3.336867 0.000000
11.983583 0.195336 0.000000
1.927014 6.280206 0.000000
7.003289 3.821792 0.000000
-0.214812 11.947202 0.000000
-3.266520 17.529879 0.000000
-6.700743 22.977961 0.000000
-10.567839 28.267559 0.000000
-13.723871 33.661503 0.000000
-16.945559 39.080414 0.000000
-20.140421 44.548480 0.000000
-23.332528 50.000000 0.000000
44.536324 -13.303619 0.000000
50.000000 -16.665730 0.000000
39.079956 -9.966618 0.000000
33.646786 -6.640943 0.000000
28.236017 -3.307417 0.000000
22.846513 0.018269 0.000000
17.534430 3.359003 0.000000
12.210360 6.596224 0.000000
6.716571 10.833233 0.000000
3.301402 17.195844 0.000000
-0.081438 22.851467 0.000000
-3.518451 28.312615 0.000000
-6.831232 33.774346 0.000000
-10.137260 39.170572 0.000000
-13.435578 44.563588 0.000000
-16.665941 50.000000 0.000000
44.554395 -6.654675 0.000000
50.000000 -9.999338 0.000000
39.123425 -3.321291 0.000000
33.713415 0.008781 0.000000
28.333177 3.344046 0.000000
23.001640 6.693743 0.000000
17.832472 10.022918 0.000000
12.655293 12.228465 0.000000
9.790343 17.234729 0.000000
6.477818 22.722370 0.000000
3.188684 28.269532 0.000000
-0.115876 33.734702 0.000000
-3.425127 39.168578 0.000000
-6.725328 44.581855 0.000000
-9.999495 50.000000 0.000000
44.575699 0.001922 0.000000
50.000000 -3.333108 0.000000
39.166855 3.331906 0.000000
33.779244 6.655572 0.000000
28.424137 9.995035 0.000000
23.046372 13.416488 0.000000
16.948329 17.022306 0.000000
12.901637 22.670445 0.000000
9.814720 28.232193 0.000000
6.604180 33.718715 0.000000
3.286553 39.164419 0.000000
-0.029849 44.584604 0.000000
-3.333162 50.000000 0.000000
44.586753 6.665486 0.000000
50.000000 3.333102 0.000000
39.198038 9.981916 0.000000
33.843364 13.277077 0.000000
28.541812 16.584828 0.000000
23.386701 20.084358 0.000000
18.531722 23.112163 0.000000
16.393285 28.298720 0.000000
13.328903 33.754776 0.000000
9.986522 39.181958 0.000000
6.665952 44.584385 0.000000
3.333131 50.000000 0.000000
44.608904 13.317855 0.000000
50.000000 9.999414 0.000000
39.251331 16.612408 0.000000
33.931820 19.862864 0.000000
28.612219 22.925998 0.000000
23.279597 27.207501 0.000000
19.901282 33.303113 0.000000
16.573728 39.040963 0.000000
13.268267 44.526784 0.000000
9.999445 50.000000 0.000000
44.632071 19.972896 0.000000
50.000000 16.665884 0.000000
39.298461 23.262085 0.000000
34.043741 26.514693 0.000000
28.965700 28.539447 0.000000
26.202319 33.410109 0.000000
23.066662 38.968833 0.000000
19.888495 44.507069 0.000000
16.665863 50.000000 0.000000
44.639783 26.642840 0.000000
50.000000 23.332503 0.000000
39.293325 29.966646 0.000000
33.212331 33.371235 0.000000
29.412056 39.045826 0.000000
26.422311 44.505962 0.000000
23.332457 50.000000 0.000000
44.774946 33.291740 0.000000
50.000000 29.999268 0.000000
39.738148 36.596267 0.000000
34.830998 39.525573 0.000000
32.833764 44.514251 0.000000
29.999214 50.000000 0.000000
44.978208 39.877816 0.000000
50.000000 36.666142 0.000000
39.734811 43.968985 0.000000
36.666093 50.000000 0.000000
45.621253 45.409757 0.000000
50.000000 43.333056 0.000000
43.332990 50.000000 0.000000
50.000000 50.000000 0.000000
CELLS 578 2312
3 1 0 2
3 0 3 2
3 4 1 6
3 6 1 2
3 3 5 7
3 3 7 2
3 6 2 7
3 9 4 10
3 10 4 6
3 5 8 11
3 7 5 11
3 10 6 12
3 12 6 7
3 7 11 13
3 7 13 12
3 8 14 15
3 11 8 15
3 16 9 17
3 17 9 10
3 17 10 18
3 18 10 12
3 11 15 19
3 13 11 19
3 18 12 20
3 13 19 20
3 20 12 13
3 14 22 24
3 15 14 24
3 15 24 25
3 19 15 25
3 21 16 26
3 26 16 17
3 26 17 27
3 27 17 18
3 27 18 28
3 28 18 20
3 19 25 29
3 19 29 20
3 28 20 30
3 30 20 29
3 31 21 32
3 32 21 26
3 22 23 36
3 24 22 36
3 23 34 37
3 36 23 37
3 24 36 38
3 25 24 38
3 25 38 39
3 29 25 39
3 32 26 40
3 40 26 27
3 40 27 41
3 41 27 28
3 41 28 42
3 42 28 30
3 29 39 43
3 29 43 30
3 42 30 43
3 33 31 44
3 44 31 32
3 44 32 45
3 45 32 40
3 46 33 47
3 47 33 44
3 34 35 50
3 37 34 50
3 35 48 51
3 50 35 51
3 36 37 52
3 38 36 52
3 37 50 53
3 52 37 53
3 38 52 54
3 39 38 54
3 39 54 55
3 43 39 55
3 45 40 56
3 56 40 41
3 56 41 57
3 57 41 42
3 57 42 58
3 58 42 43
3 43 55 59
3 43 59 58
3 47 44 60
3 60 44 45
3 60 45 61
3 61 45 56
3 62 46 63
3 63 46 47
3 63 47 64
3 64 47 60
3 48 49 68
3 51 48 68
3 49 66 69
3 68 49 69
3 50 51 70
3 53 50 70
3 51 68 71
3 70 51 71
3 52 53 72
3 54 52 72
3 53 70 73
3 72 53 73
3 54 72 74
3 55 54 74
3 55 74 75
3 59 55 75
3 61 56 76
3 76 56 57
3 76 57 77
3 77 57 58
3 77 58 78
3 59 75 78
3 78 58 59
3 64 60 79
3 79 60 61
3 79 61 80
3 80 61 76
3 65 62 81
3 81 62 63
3 81 63 82
3 82 63 64
3 82 64 83
3 83 64 79
3 84 65 85
3 85 65 81
3 66 67 89
3 69 66 89
3 67 87 90
3 89 67 90
3 68 69 91
3 71 68 91
3 69 89 92
3 91 69 92
3 70 71 93
3 73 70 93
3 71 91 94
3 93 71 94
3 72 73 95
3 74 72 95
3 73 93 96
3 95 73 96
3 74 95 97
3 75 74 97
3 75 97 98
3 78 75 98
3 80 76 99
3 99 76 77
3 99 77 100
3 100 77 78
3 100 78 101
3 98 101 78
3 83 79 102
3 102 79 80
3 102 80 103
3 103 80 99
3 85 81 104
3 104 81 82
3 105 83 102
3 104 82 106
3 106 82 83
3 106 83 105
3 86 84 107
3 107 84 85
3 107 85 108
3 108 85 104
3 109 86 107
3 110 86 109
3 87 88 112
3 90 87 112
3 112 88 113
3 88 114 113
3 90 112 115
3 89 90 116
3 92 89 116
3 116 90 115
3 91 92 117
3 94 91 117
3 92 116 118
3 117 92 118
3 93 94 119
3 96 93 119
3 94 117 120
3 119 94 120
3 95 96 121
3 97 95 121
3 96 119 122
3 121 96 122
3 97 121 123
3 98 97 123
3 98 123 124
3 98 124 101
3 103 99 125
3 125 99 100
3 125 100 126
3 126 100 101
3 126 101 124
3 105 102 127
3 127 102 103
3 127 103 128
3 128 103 125
3 129 105 127
3 108 104 130
3 130 104 106
3 130 106 131
3 131 106 105
3 131 105 129
3 108 130 132
3 109 107 133
3 133 107 108
3 133 108 134
3 108 132 134
3 135 109 133
3 111 110 136
3 136 110 109
3 136 109 135
3 137 111 136
3 138 111 137
3 112 113 139
3 115 112 139
3 114 140 113
3 140 139 113
3 139 141 115
3 116 115 142
3 118 116 142
3 142 115 141
3 117 118 143
3 120 117 143
3 118 142 144
3 143 118 144
3 119 120 145
3 122 119 145
3 120 143 146
3 145 120 146
3 121 122 147
3 123 121 147
3 122 145 148
3 147 122 148
3 123 147 149
3 124 123 149
3 124 149 150
3 151 126 124
3 124 150 151
3 128 125 152
3 152 125 126
3 152 126 151
3 129 127 153
3 153 127 128
3 128 152 154
3 153 128 154
3 155 129 153
3 131 129 156
3 156 129 155
3 132 130 157
3 130 131 157
3 157 131 158
3 131 156 158
3 132 157 159
3 132 159 134
3 135 133 160
3 160 133 134
3 160 134 159
3 136 135 161
3 135 160 161
3 162 137 136
3 161 162 136
3 163 138 137
3 162 163 137
3 139 164 141
3 140 165 139
3 139 165 164
3 141 164 166
3 141 166 142
3 166 167 142
3 144 142 167
3 167 168 144
3 143 144 168
3 146 143 168
3 168 169 146
3 145 146 170
3 148 145 170
3 170 146 169
3 147 148 171
3 149 147 171
3 148 170 172
3 171 148 172
3 173 151 150
3 149 171 174
3 150 149 174
3 150 174 175
3 150 175 173
3 154 152 176
3 152 151 176
3 176 151 173
3 154 176 177
3 155 153 178
3 177 178 154
3 154 178 153
3 156 155 179
3 155 178 179
3 180 158 156
3 179 180 156
3 181 159 157
3 180 181 158
3 181 157 158
3 182 160 159
3 181 182 159
3 183 161 160
3 182 183 160
3 184 162 161
3 184 161 183
3 185 163 162
3 184 185 162
3 164 186 166
3 165 187 164
3 164 187 186
3 166 186 188
3 166 188 167
3 167 188 189
3 167 189 168
3 168 189 190
3 168 190 169
3 169 190 191
3 169 191 170
3 192 172 170
3 170 191 192
3 192 193 172
3 171 172 193
3 174 171 193
3 194 173 175
3 176 173 194
3 175 174 195
3 193 195 174
3 195 196 175
3 175 196 194
3 197 177 176
3 194 197 176
3 198 178 177
3 197 198 177
3 199 179 178
3 198 199 178
3 200 180 179
3 199 200 179
3 201 181 180
3 200 201 180
3 202 182 181
3 201 202 181
3 203 183 182
3 202 203 182
3 204 184 183
3 203 204 183
3 205 185 184
3 204 205 184
3 186 206 188
3 187 207 186
3 186 207 206
3 188 206 208
3 188 208 189
3 189 208 209
3 189 209 190
3 190 209 210
3 190 210 191
3 191 210 211
3 191 211 192
3 192 211 212
3 192 212 193
3 193 212 213
3 193 213 195
3 214 197 194
3 214 194 196
3 195 213 215
3 195 215 196
3 196 215 214
3 216 198 197
3 214 216 197
3 217 199 198
3 216 217 198
3 218 200 199
3 217 218 199
3 219 201 200
3 218 219 200
3 220 202 201
3 219 220 201
3 221 203 202
3 220 221 202
3 222 204 203
3 221 222 203
3 223 205 204
3 222 223 204
3 206 224 208
3 207 225 206
3 206 225 224
3 208 224 226
3 208 226 209
3 209 226 227
3 209 227 210
3 210 227 228
3 210 228 211
3 211 228 229
3 211 229 212
3 212 229 230
3 212 230 213
3 213 230 231
3 213 231 215
3 232 216 214
3 215 231 232
3 232 214 215
3 233 217 216
3 232 233 216
3 234 218 217
3 233 234 217
3 235 219 218
3 234 235 218
3 236 220 219
3 235 236 219
3 237 221 220
3 236 237 220
3 238 222 221
3 237 238 221
3 239 223 222
3 238 239 222
3 224 240 226
3 225 241 224
3 224 241 240
3 226 240 242
3 226 242 227
3 227 242 243
3 227 243 228
3 228 243 244
3 228 244 229
3 244 245 229
3 229 245 230
3 230 245 246
3 230 246 231
3 231 246 247
3 231 247 232
3 248 233 232
3 248 232 247
3 249 234 233
3 248 249 233
3 250 235 234
3 249 250 234
3 251 236 235
3 250 251 235
3 252 237 236
3 251 252 236
3 253 238 237
3 252 253 237
3 254 239 238
3 253 254 238
3 240 255 242
3 241 256 240
3 240 256 255
3 242 255 257
3 242 257 243
3 243 257 258
3 243 258 244
3 244 258 259
3 244 259 245
3 245 259 260
3 245 260 246
3 246 260 261
3 246 261 247
3 248 247 261
3 262 249 248
3 261 262 248
3 263 250 249
3 262 263 249
3 264 251 250
3 263 264 250
3 265 252 251
3 264 265 251
3 266 253 252
3 265 266 252
3 267 254 253
3 266 267 253
3 255 268 257
3 256 269 255
3 255 269 268
3 257 268 270
3 257 270 258
3 258 270 271
3 258 271 259
3 259 271 272
3 259 272 260
3 260 272 273
3 260 273 261
3 274 262 261
3 261 273 274
3 275 263 262
3 274 275 262
3 276 264 263
3 275 276 263
3 277 265 264
3 276 277 264
3 278 266 265
3 277 278 265
3 279 267 266
3 278 279 266
3 268 280 270
3 269 281 268
3 268 281 280
3 270 280 282
3 270 282 271
3 271 282 283
3 271 283 272
3 283 284 272
3 272 284 273
3 285 275 274
3 273 284 285
3 285 274 273
3 286 276 275
3 285 286 275
3 287 277 276
3 286 287 276
3 288 278 277
3 287 288 277
3 289 279 278
3 288 289 278
3 280 290 282
3 281 291 280
3 280 291 290
3 282 290 292
3 282 292 283
3 283 292 293
3 283 293 284
3 284 293 294
3 284 294 285
3 295 286 285
3 295 285 294
3 296 287 286
3 295 296 286
3 297 288 287
3 296 297 287
3 298 289 288
3 297 298 288
3 290 299 292
3 291 300 290
3 290 300 299
3 292 299 301
3 292 301 293
3 293 301 302
3 293 302 294
3 294 302 295
3 303 296 295
3 303 295 302
3 304 297 296
3 303 304 296
3 305 298 297
3 304 305 297
3 299 306 301
3 300 307 299
3 299 307 306
3 301 306 308
3 301 308 302
3 309 303 302
3 302 308 309
3 310 304 303
3 309 310 303
3 311 305 304
3 310 311 304
3 306 312 308
3 307 313 306
3 306 313 312
3 314 310 309
3 308 312 314
3 314 309 308
3 315 311 310
3 314 315 310
3 312 316 314
3 313 317 312
3 312 317 316
3 318 315 314
3 318 314 316
3 317 319 316
3 319 318 316
CELL_TYPES 578
5
5
5
5
5
5
5
5
5
5
5
5
5
5
5
5
5
5
5
5
5
5
5
5
5
5
5
5
5
5
5
5
5
5
5
5
5
5
5
5
5
5
5
5
5
5
5
5
5
5
5
5
5
5
5
5
5
5
5
5
5
5
5
5
5
5
5
5
5
5
5
5
5
5
5
5
5
5
5
5
5
5
5
5
5
5
5
5
5
5
5
5
5
5
5
5
5
5
5
5
5
5
5
5
5
5
5
5
5
5
5
5
5
5
5
5
5
5
5
5
5
5
5
5
5
5
5
5
5
5
5
5
5
5
5
5
5
5
5
5
5
5
5
5
5
5
5
5
5
5
5
5
5
5
5
5
5
5
5
5
5
5
5
5
5
5
5
5
5
5
5
5
5
5
5
5
5
5
5
5
5
5
5
5
5
5
5
5
5
5
5
5
5
5
5
5
5
5
5
5
5
5
5
5
5
5
5
5
5
5
5
5
5
5
5
5
5
5
5
5
5
5
5
5
5
5
5
5
5
5
5
5
5
5
5
5
5
5
5
5
5
5
5
5
5
5
5
5
5
5
5
5
5
5
5
5
5
5
5
5
5
5
5
5
5
5
5
5
5
5
5
5
5
5
5
5
5
5
5
5
5
5
5
5
5
5
5
5
5
5
5
5
5
5
5
5
5
5
5
5
5
5
5
5
5
5
5
5
5
5
5
5
5
5
5
5
5
5
5
5
5
5
5
5
5
5
5
5
5
5
5
5
5
5
5
5
5
5
5
5
5
5
5
5
5
5
5
5
5
5
5
5
5
5
5
5
5
5
5
5
5
5
5
5
5
5
5
5
5
5
5
5
5
5
5
5
5
5
5
5
5
5
5
5
5
5
5
5
5
5
5
5
5
5
5
5
5
5
5
5
5
5
5
5
5
5
5
5
5
5
5
5
5
5
5
5
5
5
5
5
5
5
5
5
5
5
5
5
5
5
5
5
5
5
5
5
5
5
5
5
5
5
5
5
5
5
5
5
5
5
5
5
5
5
5
5
5
5
5
5
5
5
5
5
5
5
5
5
5
5
5
5
5
5
5
5
5
5
5
5
5
5
5
5
5
5
5
5
5
5
5
5
5
5
5
5
5
5
5
5
5
5
5
5
5
5
5
5
5
5
5
5
5
5
5
5
5
5
5
5
5
5
5
5
5
5
5
5
5
5
5
5
5
5
5
5
5
5
5
5
5
5
5
5
5
5
5
5
5
5
5
5
5
5
5
5
5
5
5
5
5
5
5
5
5
5
5
5
5
5
5
5
5
5
5
5
5
5
POINT_DATA 320
SCALARS theta_e float 1
LOOKUP_TABLE default
1.000001
1.000001
1.000001
1.000001
1.000001
1.000001
1.000001
1.000001
1.000001
1.000001
1.000001
1.000001
1.000001
1.000001
1.000001
1.000001
1.000001
1.000001
1.000001
1.000001
1.000001
1.000001
1.000001
1.000001
1.000001
1.000001
1.000001
1.000001
1.000001
1.000001
1.000001
1.000001
1.000001
1.000001
1.000001
1.000001
1.000001
1.000001
1.000001
1.000001
1.000001
1.000001
1.000001
1.000001
1.000001
1.000001
1.000000
1.000001
1.000001
1.000001
1.000001
1.000001
1.000001
1.000001
1.000001
1.000001
1.000001
1.000001
1.000001
1.000001
1.000001
1.000001
1.000000
1.000000
1.000000
1.000001
1.000001
1.000001
1.000001
1.000001
1.000001
1.000001
1.000001
1.000001
1.000001
1.000001
1.000001
1.000001
1.000001
1.000001
1.000001
1.000001
1.000000
1.000000
1.000001
1.000001
1.000001
1.000001
1.000001
1.000001
1.000001
1.000001
1.000001
1.000001
1.000001
1.000001
1.000001
1.000001
1.000001
1.000001
1.000001
1.000001
1.000000
1.000000
1.000000
1.000000
1.000000
1.000001
1.000001
1.000001
1.000001
1.000001
1.000001
1.000001
1.000001
1.000001
1.000001
1.000001
1.000001
1.000001
1.000001
1.000001
1.000001
1.000001
0.999997
1.000001
0.999999
1.000000
1.000000
1.000000
1.000000
1.000000
1.000001
1.000001
1.000001
1.000001
1.000001
1.000001
1.000001
1.000001
1.000001
1.000001
1.000001
1.000001
1.000001
1.000001
1.000001
1.000001
1.000001
0.999996
0.999984
0.999990
0.999997
1.000000
0.999998
1.000001
1.000001
1.000000
1.000000
1.000001
1.000001
1.000001
1.000001
1.000001
1.000001
1.000001
1.000001
1.000001
1.000001
1.000001
1.000001
0.999999
1.000000
0.999978
0.999988
0.999978
0.999986
0.999996
1.000001
1.000001
1.000001
1.000000
1.000001
1.000001
1.000001
1.000001
1.000001
1.000001
1.000001
1.000001
1.000001
1.000001
1.000001
0.999996
0.999978
0.999984
0.999978
0.999987
0.999999
1.000001
1.000000
1.000000
1.000000
1.000001
1.000001
1.000001
1.000001
1.000001
1.000001
1.000001
1.000001
1.000001
1.000001
0.999996
0.999984
0.999988
0.999996
1.000001
1.000001
1.000000
1.000000
1.000000
1.000000
1.000001
1.000001
1.000001
1.000001
1.000001
1.000001
1.000001
1.000000
0.999998
0.999996
1.000001
1.000000
1.000000
1.000000
1.000000
1.000000
1.000000
1.000001
1.000001
1.000001
1.000001
1.000001
1.000001
1.000000
1.000000
1.000001
1.000001
1.000000
1.000000
1.000000
1.000000
1.000000
1.000001
1.000001
1.000001
1.000001
1.000001
1.000001
1.000001
1.000001
1.000001
1.000000
1.000000
1.000000
1.000000
1.000001
1.000001
1.000001
1.000001
1.000001
1.000001
1.000001
1.000001
1.000001
1.000000
1.000000
1.000000
1.000001
1.000001
1.000001
1.000001
1.000001
1.000001
1.000001
1.000001
1.000001
1.000000
1.000001
1.000001
1.000001
1.000001
1.000001
1.000001
1.000001
1.000001
1.000001
1.000001
1.000001
1.000001
1.000001
1.000001
1.000001
1.000001
1.000001
1.000001
1.000001
1.000001
1.000001
1.000001
1.000001
1.000001
1.000001
1.000001
1.000001
1.000001
1.000001
1.000001
VECTORS fa_u float
0.000000 0.000000 0.000000
0.000000 0.000000 0.000000
0.000000 0.000000 0.000000
0.000000 0.000000 0.000000
0.000000 0.000000 0.000000
0.000000 0.000000 0.000000
0.000000 0.000000 0.000000
0.000000 0.000000 0.000000
0.000000 0.000000 0.000000
0.000000 0.000000 0.000000
0.000000 0.000000 0.000000
0.000000 0.000000 0.000000
0.000000 0.000000 0.000000
0.000000 0.000000 0.000000
0.000000 0.000000 0.000000
0.000000 0.000000 0.000000
0.000000 0.000000 0.000000
0.000000 0.000000 0.000000
0.000000 0.000000 0.000000
0.000000 0.000000 0.000000
0.000000 0.000000 0.000000
0.000000 0.000000 0.000000
0.000000 0.000000 0.000000
0.000000 0.000000 0.000000
0.000000 0.000000 0.000000
0.000000 0.000000 0.000000
0.000000 0.000000 0.000000
0.000000 0.000000 0.000000
0.000000 0.000000 0.000000
0.000000 0.000000 0.000000
0.000000 0.000000 0.000000
0.000000 0.000000 0.000000
0.000000 0.000000 0.000000
0.000000 0.000000 0.000000
0.000000 0.000000 0.000000
0.000000 0.000000 0.000000
0.000000 0.000000 0.000000
0.000000 0.000000 0.000000
0.000000 0.000000 0.000000
0.000000 0.000000 0.000000
0.000000 0.000000 0.000000
0.000000 0.000000 0.000000
0.000000 0.000000 0.000000
0.000000 0.000000 0.000000
0.000000 0.000000 0.000000
0.000000 0.000000 0.000000
0.000000 0.000000 0.000000
0.000000 0.000000 0.000000
0.000000 0.000000 0.000000
0.000000 0.000000 0.000000
0.000000 0.000000 0.000000
0.000000 0.000000 0.000000
0.000000 0.000000 0.000000
0.000000 0.000000 0.000000
0.000000 0.000000 0.000000
0.000000 0.000000 0.000000
0.000000 0.000000 0.000000
0.000000 0.000000 0.000000
0.000000 0.000000 0.000000
0.000000 0.000000 0.000000
0.000000 0.000000 0.000000
0.000000 0.000000 0.000000
0.000000 0.000000 0.000000
0.000000 0.000000 0.000000
0.000000 0.000000 0.000000
0.000000 0.000000 0.000000
0.000000 0.000000 0.000000
0.000000 0.000000 0.000000
0.000000 0.000000 0.000000
0.000000 0.000000 0.000000
0.000000 0.000000 0.000000
0.000000 0.000000 0.000000
0.000000 0.000000 0.000000
0.000000 0.000000 0.000000
0.000000 0.000000 0.000000
0.000000 0.000000 0.000000
0.000000 0.000000 0.000000
0.000000 0.000000 0.000000
0.000000 0.000000 0.000000
0.000000 0.000000 0.000000
0.000000 0.000000 0.000000
0.000000 0.000000 0.000000
0.000000 0.000000 0.000000
0.000000 0.000000 0.000000
0.000000 0.000000 0.000000
0.000000 0.000000 0.000000
0.000000 0.000000 0.000000
0.000000 0.000000 0.000000
0.000000 0.000000 0.000000
0.000000 0.000000 0.000000
0.000000 0.000000 0.000000
0.000000 0.000000 0.000000
0.000000 0.000000 0.000000
0.000000 0.000000 0.000000
0.000000 0.000000 0.000000
0.000000 0.000000 0.000000
0.000000 0.000000 0.000000
0.000000 0.000000 0.000000
0.000000 0.000000 0.000000
0.000000 0.000000 0.000000
0.000000 0.000000 0.000000
0.000000 0.000000 0.000000
0.000000 0.000000 0.000000
0.000000 0.000000 0.000000
0.000000 0.000000 0.000000
0.000000 0.000000 0.000000
0.000000 0.000000 0.000000
0.000000 0.000000 0.000000
0.000000 0.000000 0.000000
0.000000 0.000000 0.000000
0.000000 0.000000 0.000000
0.000000 0.000000 0.000000
0.000000 0.000000 0.000000
0.000000 0.000000 0.000000
0.000000 0.000000 0.000000
0.000000 0.000000 0.000000
0.000000 0.000000 0.000000
0.000000 0.000000 0.000000
0.000000 0.000000 0.000000
0.000000 0.000000 0.000000
0.000000 0.000000 0.000000
0.000000 0.000000 0.000000
0.000000 0.000000 0.000000
0.000000 0.000000 0.000000
0.000000 0.000000 0.000000
0.000000 0.000000 0.000000
0.000000 0.000000 0.000000
0.000000 0.000000 0.000000
0.000000 0.000000 0.000000
0.000000 0.000000 0.000000
0.000000 0.000000 0.000000
0.000000 0.000000 0.000000
0.000000 0.000000 0.000000
0.000000 0.000000 0.000000
0.000000 0.000000 0.000000
0.000000 0.000000 0.000000
0.000000 0.000000 0.000000
0.000000 0.000000 0.000000
0.000000 0.000000 0.000000
0.000000 0.000000 0.000000
0.000000 0.000000 0.000000
0.000000 0.000000 0.000000
0.000000 0.000000 0.000000
0.000000 0.000000 0.000000
0.000000 0.000000 0.000000
0.000000 0.000000 0.000000
0.000000 0.000000 0.000000
0.000000 0.000000 0.000000
0.000000 0.000000 0.000000
0.000000 0.000000 0.000000
0.000000 0.000000 0.000000
0.000000 0.000000 0.000000
0.000000 0.000000 0.000000
0.000000 0.000000 0.000000
0.000000 0.000000 0.000000
0.000000 0.000000 0.000000
0.000000 0.000000 0.000000
0.000000 0.000000 0.000000
0.000000 0.000000 0.000000
0.000000 0.000000 0.000000
0.000000 0.000000 0.000000
0.000000 0.000000 0.000000
0.000000 0.000000 0.000000
0.000000 0.000000 0.000000
0.000000 0.000000 0.000000
0.000000 0.000000 0.000000
0.000000 0.000000 0.000000
0.000000 0.000000 0.000000
0.000000 0.000000 0.000000
0.000000 0.000000 0.000000
0.000000 0.000000 0.000000
0.000000 0.000000 0.000000
0.000000 0.000000 0.000000
0.000000 0.000000 0.000000
0.000000 0.000000 0.000000
0.000000 0.000000 0.000000
0.000000 0.000000 0.000000
0.000000 0.000000 0.000000
0.000000 0.000000 0.000000
0.000000 0.000000 0.000000
0.000000 0.000000 0.000000
0.000000 0.000000 0.000000
0.000000 0.000000 0.000000
0.000000 0.000000 0.000000
0.000000 0.000000 0.000000
0.000000 0.000000 0.000000
0.000000 0.000000 0.000000
0.000000 0.000000 0.000000
0.000000 0.000000 0.000000
0.000000 0.000000 0.000000
0.000000 0.000000 0.000000
0.000000 0.000000 0.000000
0.000000 0.000000 0.000000
0.000000 0.000000 0.000000
0.000000 0.000000 0.000000
0.000000 0.000000 0.000000
0.000000 0.000000 0.000000
0.000000 0.000000 0.000000
0.000000 0.000000 0.000000
0.000000 0.000000 0.000000
0.000000 0.000000 0.000000
0.000000 0.000000 0.000000
0.000000 0.000000 0.000000
0.000000 0.000000 0.000000
0.000000 0.000000 0.000000
0.000000 0.000000 0.000000
0.000000 0.000000 0.000000
0.000000 0.000000 0.000000
0.000000 0.000000 0.000000
0.000000 0.000000 0.000000
0.000000 0.000000 0.000000
0.000000 0.000000 0.000000
0.000000 0.000000 0.000000
0.000000 0.000000 0.000000
0.000000 0.000000 0.000000
0.000000 0.000000 0.000000
0.000000 0.000000 0.000000
0.000000 0.000000 0.000000
0.000000 0.000000 0.000000
0.000000 0.000000 0.000000
0.000000 0.000000 0.000000
0.000000 0.000000 0.000000
0.000000 0.000000 0.000000
0.000000 0.000000 0.000000
0.000000 0.000000 0.000000
0.000000 0.000000 0.000000
0.000000 0.000000 0.000000
0.000000 0.000000 0.000000
0.000000 0.000000 0.000000
0.000000 0.000000 0.000000
0.000000 0.000000 0.000000
0.000000 0.000000 0.000000
0.000000 0.000000 0.000000
0.000000 0.000000 0.000000
0.000000 0.000000 0.000000
0.000000 0.000000 0.000000
0.000000 0.000000 0.000000
0.000000 0.000000 0.000000
0.000000 0.000000 0.000000
0.000000 0.000000 0.000000
0.000000 0.000000 0.000000
0.000000 0.000000 0.000000
0.000000 0.000000 0.000000
0.000000 0.000000 0.000000
0.000000 0.000000 0.000000
0.000000 0.000000 0.000000
0.000000 0.000000 0.000000
0.000000 0.000000 0.000000
0.000000 0.000000 0.000000
0.000000 0.000000 0.000000
0.000000 0.000000 0.000000
0.000000 0.000000 0.000000
0.000000 0.000000 0.000000
0.000000 0.000000 0.000000
0.000000 0.000000 0.000000
0.000000 0.000000 0.000000
0.000000 0.000000 0.000000
0.000000 0.000000 0.000000
0.000000 0.000000 0.000000
0.000000 0.000000 0.000000
0.000000 0.000000 0.000000
0.000000 0.000000 0.000000
0.000000 0.000000 0.000000
0.000000 0.000000 0.000000
0.000000 0.000000 0.000000
0.000000 0.000000 0.000000
0.000000 0.000000 0.000000
0.000000 0.000000 0.000000
0.000000 0.000000 0.000000
0.000000 0.000000 0.000000
0.000000 0.000000 0.000000
0.000000 0.000000 0.000000
0.000000 0.000000 0.000000
0.000000 0.000000 0.000000
0.000000 0.000000 0.000000
0.000000 0.000000 0.000000
0.000000 0.000000 0.000000
0.000000 0.000000 0.000000
0.000000 0.000000 0.000000
0.000000 0.000000 0.000000
0.000000 0.000000 0.000000
0.000000 0.000000 0.000000
0.000000 0.000000 0.000000
0.000000 0.000000 0.000000
0.000000 0.000000 0.000000
0.000000 0.000000 0.000000
0.000000 0.000000 0.000000
0.000000 0.000000 0.000000
0.000000 0.000000 0.000000
0.000000 0.000000 0.000000
0.000000 0.000000 0.000000
0.000000 0.000000 0.000000
0.000000 0.000000 0.000000
0.000000 0.000000 0.000000
0.000000 0.000000 0.000000
0.000000 0.000000 0.000000
0.000000 0.000000 -50.000000
-50.000000 0.000000 -50.000000
-43.333102 0.000000 -45.688344
-45.491109 0.000000 -43.333065
-50.000000 0.000000 -50.000000
-36.666189 0.000000 -36.666193
-50.000000 0.000000 -45.081075
-39.969758 0.000000 -40.027123
-44.152235 0.000000 -29.999302
-50.000000 0.000000 -50.000000
-29.999296 0.000000 -44.847044
-33.448890 0.000000 -33.144866
-44.675642 0.000000 -39.869072
-36.786959 0.000000 -35.128592
-39.801249 0.000000 -23.332502
-50.000000 0.000000 -26.539104
-44.666721 0.000000 -50.000000
-23.332504 0.000000 -44.665257
-26.803887 0.000000 -39.364202
-30.225643 0.000000 -29.606201
-39.359319 0.000000 -33.368162
-33.655393 0.000000 -50.000000
-16.665862 0.000000 -16.665877
-50.000000 0.000000 -9.999433
