# vtk DataFile Version 2.0
CellBP Time: 1.24
ASCII
DATASET UNSTRUCTURED_GRID
POINTS 320 double
-50.000000 -50.000000 0.000000
-50.000000 -43.333259 0.000000
-45.688289 -45.491062 0.000000
-43.333247 -50.000000 0.000000
-50.000000 -36.666516 0.000000
-36.666515 -50.000000 0.000000
-45.081015 -39.969724 0.000000
-40.027038 -44.152184 0.000000
-29.999776 -50.000000 0.000000
-50.000000 -29.999778 0.000000
-44.846984 -33.448862 0.000000
-33.144803 -44.675586 0.000000
-39.868998 -36.786922 0.000000
-35.128505 -39.801181 0.000000
-23.333067 -50.000000 0.000000
-26.539039 -44.666693 0.000000
-50.000000 -23.333073 0.000000
-44.665230 -26.803849 0.000000
-39.364145 -30.225602 0.000000
-29.606105 -39.359263 0.000000
-33.368059 -33.655329 0.000000
-50.000000 -16.666413 0.000000
-16.666412 -50.000000 0.000000
-9.999815 -50.000000 0.000000
-19.964754 -44.588787 0.000000
-23.215775 -39.114651 0.000000
-44.691909 -20.096841 0.000000
-39.367812 -23.528120 0.000000
-34.106022 -26.936952 0.000000
-26.384250 -33.577109 0.000000
-29.156024 -28.926494 0.000000
-50.000000 -9.999796 0.000000
-44.666378 -13.410127 0.000000
-50.000000 -3.333232 0.000000
-3.333266 -50.000000 0.000000
3.333268 -50.000000 0.000000
-13.343505 -44.599093 0.000000
-6.684633 -44.610800 0.000000
-16.693608 -39.153366 0.000000
-20.106911 -33.342678 0.000000
-39.338193 -16.804824 0.000000
-34.018558 -20.274726 0.000000
-28.780729 -23.448957 0.000000
-23.510364 -27.349970 0.000000
-44.635527 -6.705593 0.000000
-39.293069 -10.101887 0.000000
-50.000000 3.333302 0.000000
-44.626868 -0.015730 0.000000
9.999824 -50.000000 0.000000
16.666424 -50.000000 0.000000
-0.016086 -44.618863 0.000000
6.651561 -44.635514 0.000000
-10.044625 -39.222641 0.000000
-3.368204 -39.220487 0.000000
-13.484260 -33.798849 0.000000
-16.709795 -28.271401 0.000000
-33.948107 -13.514298 0.000000
-28.601461 -16.892526 0.000000
-23.291185 -20.312864 0.000000
-18.660151 -23.282330 0.000000
-39.267620 -3.392941 0.000000
-33.904590 -6.796805 0.000000
-50.000000 9.999843 0.000000
-44.606890 6.673237 0.000000
-39.261074 3.325579 0.000000
-50.000000 16.666432 0.000000
23.333071 -50.000000 0.000000
29.999766 -50.000000 0.000000
13.317300 -44.663002 0.000000
19.989419 -44.700127 0.000000
3.307682 -39.245187 0.000000
9.971767 -39.290303 0.000000
-6.735197 -33.791403 0.000000
-0.032342 -33.829692 0.000000
-10.095942 -28.293720 0.000000
-13.122828 -22.898639 0.000000
-28.532859 -10.215226 0.000000
-23.066449 -13.663214 0.000000
-16.976896 -17.208609 0.000000
-33.884920 -0.065457 0.000000
-28.563345 -3.578695 0.000000
-44.564213 13.380236 0.000000
-39.190204 10.014948 0.000000
-33.905918 6.615974 0.000000
-50.000000 23.333064 0.000000
-44.557770 20.137997 0.000000
-50.000000 29.999780 0.000000
36.666499 -50.000000 0.000000
43.333245 -50.000000 0.000000
26.663053 -44.745264 0.000000
33.315157 -44.875873 0.000000
16.631615 -39.357709 0.000000
23.328155 -39.437054 0.000000
6.642795 -33.879523 0.000000
13.290817 -33.965486 0.000000
-3.345497 -28.362829 0.000000
3.356934 -28.451345 0.000000
-6.626017 -22.846373 0.000000
-9.971383 -17.314787 0.000000
-23.185617 -7.015009 0.000000
-17.810180 -10.334940 0.000000
-12.837227 -12.588840 0.000000
-28.607610 3.088460 0.000000
-23.264734 -0.468132 0.000000
-39.039117 16.746469 0.000000
-28.721508 9.926494 0.000000
-33.761803 13.318510 0.000000
-44.521679 26.716721 0.000000
-38.467737 23.892421 0.000000
-44.632127 33.085359 0.000000
-50.000000 36.666542 0.000000
-50.000000 43.333266 0.000000
39.922265 -45.069498 0.000000
45.474569 -45.660351 0.000000
50.000000 -50.000000 0.000000
36.626686 -39.981877 0.000000
30.012219 -39.458535 0.000000
19.904194 -34.092718 0.000000
26.584961 -34.319397 0.000000
9.988866 -28.513635 0.000000
16.611039 -28.659800 0.000000
0.052271 -22.958959 0.000000
6.812263 -23.158573 0.000000
-3.401277 -17.297635 0.000000
-6.867238 -11.029888 0.000000
-17.878713 -3.829320 0.000000
-12.554235 -7.036358 0.000000
-23.310823 6.073781 0.000000
-18.038150 2.455930 0.000000
-23.121947 12.095564 0.000000
-33.572102 19.788923 0.000000
-27.941254 16.885289 0.000000
-33.292681 24.722560 0.000000
-39.473329 30.052552 0.000000
-35.160059 28.137334 0.000000
-39.815739 35.101213 0.000000
-43.991553 39.981988 0.000000
-45.430945 45.685021 0.000000
-50.000000 50.000000 0.000000
44.117136 -39.898854 0.000000
50.000000 -43.333209 0.000000
39.639308 -35.047287 0.000000
33.462800 -33.424440 0.000000
22.984822 -28.817824 0.000000
28.730905 -29.247691 0.000000
13.460758 -23.121782 0.000000
20.054815 -23.438655 0.000000
3.389167 -17.586794 0.000000
10.127537 -17.839923 0.000000
0.141766 -12.013028 0.000000
-2.155237 -6.269270 0.000000
-7.412003 -3.708036 0.000000
-12.632436 -0.802326 0.000000
-18.161868 8.573137 0.000000
-12.966188 5.196989 0.000000
-18.639443 13.752212 0.000000
-21.504758 17.495217 0.000000
-28.940606 23.158208 0.000000
-24.346198 21.554797 0.000000
-30.323317 28.634659 0.000000
-34.253223 33.375451 0.000000
-36.955809 39.578006 0.000000
-39.838619 45.102654 0.000000
-43.333238 50.000000 0.000000
44.585140 -32.971935 0.000000
50.000000 -36.666456 0.000000
39.129247 -29.581697 0.000000
33.500512 -26.367570 0.000000
27.182661 -23.322093 0.000000
23.065623 -18.647727 0.000000
16.989108 -16.979458 0.000000
6.712728 -12.217200 0.000000
12.351763 -12.732405 0.000000
-3.385797 -1.494760 0.000000
3.941832 -7.030948 0.000000
1.021983 -2.121169 0.000000
-7.018080 2.330360 0.000000
-8.440594 7.833318 0.000000
-12.847131 11.933576 0.000000
-15.692976 17.700690 0.000000
-19.287164 22.983067 0.000000
-24.170941 27.354978 0.000000
-27.286254 33.626134 0.000000
-30.406558 39.161291 0.000000
-33.447687 44.738846 0.000000
-36.666483 50.000000 0.000000
44.547710 -26.499721 0.000000
50.000000 -29.999708 0.000000
39.040029 -23.179192 0.000000
33.449832 -19.899943 0.000000
28.040170 -16.574486 0.000000
22.683833 -13.124317 0.000000
17.176683 -9.910405 0.000000
10.943326 -6.648517 0.000000
-1.351367 2.306717 0.000000
6.226319 -1.741953 0.000000
2.909784 1.601271 0.000000
-3.546417 7.191923 0.000000
-6.312097 12.445665 0.000000
-9.629276 17.701100 0.000000
-13.166642 23.112119 0.000000
-17.316443 28.185253 0.000000
-20.570507 33.474495 0.000000
-23.665767 39.064048 0.000000
-26.830686 44.585388 0.000000
-29.999759 50.000000 0.000000
44.528741 -19.930429 0.000000
50.000000 -23.333001 0.000000
39.036427 -16.593996 0.000000
33.576453 -13.281179 0.000000
28.150994 -9.964832 0.000000
22.726206 -6.604466 0.000000
17.264623 -3.337439 0.000000
12.020526 0.190681 0.000000
1.931649 6.298398 0.000000
7.044651 3.844988 0.000000
-0.212428 11.982507 0.000000
-3.270341 17.529534 0.000000
-6.701165 22.978276 0.000000
-10.568020 28.267626 0.000000
-13.723791 33.661621 0.000000
-16.945485 39.080474 0.000000
-20.140301 44.548510 0.000000
-23.333068 50.000000 0.000000
44.536372 -13.303530 0.000000
50.000000 -16.666357 0.000000
39.080016 -9.966572 0.000000
33.646868 -6.640849 0.000000
28.235920 -3.307271 0.000000
22.845877 0.018515 0.000000
17.533801 3.362812 0.000000
12.215764 6.598835 0.000000
6.728172 10.860807 0.000000
3.301221 17.195237 0.000000
-0.081671 22.850816 0.000000
-3.518336 28.312511 0.000000
-6.831137 33.774282 0.000000
-10.137156 39.170587 0.000000
-13.435450 44.563620 0.000000
-16.666427 50.000000 0.000000
44.554465 -6.654614 0.000000
50.000000 -9.999781 0.000000
39.123498 -3.321261 0.000000
33.713468 0.008775 0.000000
28.333185 3.343838 0.000000
23.002153 6.693794 0.000000
17.831914 10.023854 0.000000
12.654482 12.225211 0.000000
9.791742 17.235171 0.000000
6.477459 22.722414 0.000000
3.188514 28.269374 0.000000
-0.115850 33.734657 0.000000
-3.425090 39.168552 0.000000
-6.725238 44.581886 0.000000
-9.999833 50.000000 0.000000
44.575755 0.001945 0.000000
50.000000 -3.333259 0.000000
39.166865 3.331925 0.000000
33.779206 6.655566 0.000000
28.424217 9.995129 0.000000
23.046311 13.416568 0.000000
16.947758 17.021828 0.000000
12.901676 22.671167 0.000000
9.814568 28.232330 0.000000
6.604120 33.718707 0.000000
3.286545 39.164422 0.000000
-0.029835 44.584630 0.000000
-3.333276 50.000000 0.000000
44.586782 6.665446 0.000000
50.000000 3.333255 0.000000
39.198012 9.981894 0.000000
33.843342 13.277127 0.000000
28.541681 16.584947 0.000000
23.386482 20.084383 0.000000
18.531670 23.111878 0.000000
16.393449 28.298777 0.000000
13.328874 33.754798 0.000000
9.986471 39.181968 0.000000
6.665900 44.584422 0.000000
3.333269 50.000000 0.000000
44.608913 13.317762 0.000000
50.000000 9.999804 0.000000
39.251323 16.612370 0.000000
33.931771 19.862859 0.000000
28.612144 22.926002 0.000000
23.279581 27.207441 0.000000
19.901254 33.303177 0.000000
16.573647 39.041000 0.000000
13.268165 44.526821 0.000000
9.999820 50.000000 0.000000
44.632073 19.972790 0.000000
50.000000 16.666405 0.000000
39.298441 23.262026 0.000000
34.043697 26.514653 0.000000
28.965643 28.539439 0.000000
26.202262 33.410095 0.000000
23.066599 38.968845 0.000000
19.888390 44.507082 0.000000
16.666406 50.000000 0.000000
44.639759 26.642743 0.000000
50.000000 23.333055 0.000000
39.293286 29.966577 0.000000
33.212274 33.371189 0.000000
29.411978 39.045803 0.000000
26.422219 44.505952 0.000000
23.333048 50.000000 0.000000
44.774897 33.291668 0.000000
50.000000 29.999755 0.000000
39.738105 36.596216 0.000000
34.830933 39.525510 0.000000
32.833688 44.514200 0.000000
29.999744 50.000000 0.000000
44.978158 39.877757 0.000000
50.000000 36.666491 0.000000
39.734722 43.968924 0.000000
36.666479 50.000000 0.000000
45.621193 45.409691 0.000000
50.000000 43.333240 0.000000
43.333221 50.000000 0.000000
50.000000 50.000000 0.000000
CELLS 578 2312
3 1 0 2
3 0 3 2
3 4 1 6
3 6 1 2
3 3 5 7
3 3 7 2
3 6 2 7
3 9 4 10
3 10 4 6
3 5 8 11
3 7 5 11
3 10 6 12
3 12 6 7
3 7 11 13
3 7 13 12
3 8 14 15
3 11 8 15
3 16 9 17
3 17 9 10
3 17 10 18
3 18 10 12
3 11 15 19
3 13 11 19
3 18 12 20
3 13 19 20
3 20 12 13
3 14 22 24
3 15 14 24
3 15 24 25
3 19 15 25
3 21 16 26
3 26 16 17
3 26 17 27
3 27 17 18
3 27 18 28
3 28 18 20
3 19 25 29
3 19 29 20
3 28 20 30
3 30 20 29
3 31 21 32
3 32 21 26
3 22 23 36
3 24 22 36
3 23 34 37
3 36 23 37
3 24 36 38
3 25 24 38
3 25 38 39
3 29 25 39
3 32 26 40
3 40 26 27
3 40 27 41
3 41 27 28
3 41 28 42
3 42 28 30
3 29 39 43
3 29 43 30
3 42 30 43
3 33 31 44
3 44 31 32
3 44 32 45
3 45 32 40
3 46 33 47
3 47 33 44
3 34 35 50
3 37 34 50
3 35 48 51
3 50 35 51
3 36 37 52
3 38 36 52
3 37 50 53
3 52 37 53
3 38 52 54
3 39 38 54
3 39 54 55
3 43 39 55
3 45 40 56
3 56 40 41
3 56 41 57
3 57 41 42
3 57 42 58
3 58 42 43
3 43 55 59
3 43 59 58
3 47 44 60
3 60 44 45
3 60 45 61
3 61 45 56
3 62 46 63
3 63 46 47
3 63 47 64
3 64 47 60
3 48 49 68
3 51 48 68
3 49 66 69
3 68 49 69
3 50 51 70
3 53 50 70
3 51 68 71
3 70 51 71
3 52 53 72
3 54 52 72
3 53 70 73
3 72 53 73
3 54 72 74
3 55 54 74
3 55 74 75
3 59 55 75
3 61 56 76
3 76 56 57
3 76 57 77
3 77 57 58
3 77 58 78
3 59 75 78
3 78 58 59
3 64 60 79
3 79 60 61
3 79 61 80
3 80 61 76
3 65 62 81
3 81 62 63
3 81 63 82
3 82 63 64
3 82 64 83
3 83 64 79
3 84 65 85
3 85 65 81
3 66 67 89
3 69 66 89
3 67 87 90
3 89 67 90
3 68 69 91
3 71 68 91
3 69 89 92
3 91 69 92
3 70 71 93
3 73 70 93
3 71 91 94
3 93 71 94
3 72 73 95
3 74 72 95
3 73 93 96
3 95 73 96
3 74 95 97
3 75 74 97
3 75 97 98
3 78 75 98
3 80 76 99
3 99 76 77
3 99 77 100
3 100 77 78
3 100 78 101
3 98 101 78
3 83 79 102
3 102 79 80
3 102 80 103
3 103 80 99
3 85 81 104
3 104 81 82
3 105 83 102
3 104 82 106
3 106 82 83
3 106 83 105
3 86 84 107
3 107 84 85
3 107 85 108
3 108 85 104
3 109 86 107
3 110 86 109
3 87 88 112
3 90 87 112
3 112 88 113
3 88 114 113
3 90 112 115
3 89 90 116
3 92 89 116
3 116 90 115
3 91 92 117
3 94 91 117
3 92 116 118
3 117 92 118
3 93 94 119
3 96 93 119
3 94 117 120
3 119 94 120
3 95 96 121
3 97 95 121
3 96 119 122
3 121 96 122
3 97 121 123
3 98 97 123
3 98 123 124
3 98 124 101
3 103 99 125
3 125 99 100
3 125 100 126
3 126 100 101
3 126 101 124
3 105 102 127
3 127 102 103
3 127 103 128
3 128 103 125
3 129 105 127
3 108 104 130
3 130 104 106
3 130 106 131
3 131 106 105
3 131 105 129
3 108 130 132
3 109 107 133
3 133 107 108
3 133 108 134
3 108 132 134
3 135 109 133
3 111 110 136
3 136 110 109
3 136 109 135
3 137 111 136
3 138 111 137
3 112 113 139
3 115 112 139
3 114 140 113
3 140 139 113
3 139 141 115
3 116 115 142
3 118 116 142
3 142 115 141
3 117 118 143
3 120 117 143
3 118 142 144
3 143 118 144
3 119 120 145
3 122 119 145
3 120 143 146
3 145 120 146
3 121 122 147
3 123 121 147
3 122 145 148
3 147 122 148
3 123 147 149
3 124 123 149
3 124 149 150
3 151 126 124
3 124 150 151
3 128 125 152
3 152 125 126
3 152 126 151
3 129 127 153
3 153 127 128
3 128 152 154
3 153 128 154
3 155 129 153
3 131 129 156
3 156 129 155
3 132 130 157
3 130 131 157
3 157 131 158
3 131 156 158
3 132 157 159
3 132 159 134
3 135 133 160
3 160 133 134
3 160 134 159
3 136 135 161
3 135 160 161
3 162 137 136
3 161 162 136
3 163 138 137
3 162 163 137
3 139 164 141
3 140 165 139
3 139 165 164
3 141 164 166
3 141 166 142
3 166 167 142
3 144 142 167
3 167 168 144
3 143 144 168
3 146 143 168
3 168 169 146
3 145 146 170
3 148 145 170
3 170 146 169
3 147 148 171
3 149 147 171
3 148 170 172
3 171 148 172
3 173 151 150
3 149 171 174
3 150 149 174
3 150 174 175
3 150 175 173
3 154 152 176
3 152 151 176
3 176 151 173
3 154 176 177
3 155 153 178
3 177 178 154
3 154 178 153
3 156 155 179
3 155 178 179
3 180 158 156
3 179 180 156
3 181 159 157
3 180 181 158
3 181 157 158
3 182 160 159
3 181 182 159
3 183 161 160
3 182 183 160
3 184 162 161
3 184 161 183
3 185 163 162
3 184 185 162
3 164 186 166
3 165 187 164
3 164 187 186
3 166 186 188
3 166 188 167
3 167 188 189
3 167 189 168
3 168 189 190
3 168 190 169
3 169 190 191
3 169 191 170
3 192 172 170
3 170 191 192
3 192 193 172
3 171 172 193
3 174 171 193
3 194 173 175
3 176 173 194
3 175 174 195
3 193 195 174
3 195 196 175
3 175 196 194
3 197 177 176
3 194 197 176
3 198 178 177
3 197 198 177
3 199 179 178
3 198 199 178
3 200 180 179
3 199 200 179
3 201 181 180
3 200 201 180
3 202 182 181
3 201 202 181
3 203 183 182
3 202 203 182
3 204 184 183
3 203 204 183
3 205 185 184
3 204 205 184
3 186 206 188
3 187 207 186
3 186 207 206
3 188 206 208
3 188 208 189
3 189 208 209
3 189 209 190
3 190 209 210
3 190 210 191
3 191 210 211
3 191 211 192
3 192 211 212
3 192 212 193
3 193 212 213
3 193 213 195
3 214 197 194
3 214 194 196
3 195 213 215
3 195 215 196
3 196 215 214
3 216 198 197
3 214 216 197
3 217 199 198
3 216 217 198
3 218 200 199
3 217 218 199
3 219 201 200
3 218 219 200
3 220 202 201
3 219 220 201
3 221 203 202
3 220 221 202
3 222 204 203
3 221 222 203
3 223 205 204
3 222 223 204
3 206 224 208
3 207 225 206
3 206 225 224
3 208 224 226
3 208 226 209
3 209 226 227
3 209 227 210
3 210 227 228
3 210 228 211
3 211 228 229
3 211 229 212
3 212 229 230
3 212 230 213
3 213 230 231
3 213 231 215
3 232 216 214
3 215 231 232
3 232 214 215
3 233 217 216
3 232 233 216
3 234 218 217
3 233 234 217
3 235 219 218
3 234 235 218
3 236 220 219
3 235 236 219
3 237 221 220
3 236 237 220
3 238 222 221
3 237 238 221
3 239 223 222
3 238 239 222
3 224 240 226
3 225 241 224
3 224 241 240
3 226 240 242
3 226 242 227
3 227 242 243
3 227 243 228
3 228 243 244
3 228 244 229
3 244 245 229
3 229 245 230
3 230 245 246
3 230 246 231
3 231 246 247
3 231 247 232
3 248 233 232
3 248 232 247
3 249 234 233
3 248 249 233
3 250 235 234
3 249 250 234
3 251 236 235
3 250 251 235
3 252 237 236
3 251 252 236
3 253 238 237
3 252 253 237
3 254 239 238
3 253 254 238
3 240 255 242
3 241 256 240
3 240 256 255
3 242 255 257
3 242 257 243
3 243 257 258
3 243 258 244
3 244 258 259
3 244 259 245
3 245 259 260
3 245 260 246
3 246 260 261
3 246 261 247
3 248 247 261
3 262 249 248
3 261 262 248
3 263 250 249
3 262 263 249
3 264 251 250
3 263 264 250
3 265 252 251
3 264 265 251
3 266 253 252
3 265 266 252
3 267 254 253
3 266 267 253
3 255 268 257
3 256 269 255
3 255 269 268
3 257 268 270
3 257 270 258
3 258 270 271
3 258 271 259
3 259 271 272
3 259 272 260
3 260 272 273
3 260 273 261
3 274 262 261
3 261 273 274
3 275 263 262
3 274 275 262
3 276 264 263
3 275 276 263
3 277 265 264
3 276 277 264
3 278 266 265
3 277 278 265
3 279 267 266
3 278 279 266
3 268 280 270
3 269 281 268
3 268 281 280
3 270 280 282
3 270 282 271
3 271 282 283
3 271 283 272
3 283 284 272
3 272 284 273
3 285 275 274
3 273 284 285
3 285 274 273
3 286 276 275
3 285 286 275
3 287 277 276
3 286 287 276
3 288 278 277
3 287 288 277
3 289 279 278
3 288 289 278
3 280 290 282
3 281 291 280
3 280 291 290
3 282 290 292
3 282 292 283
3 283 292 293
3 283 293 284
3 284 293 294
3 284 294 285
3 295 286 285
3 295 285 294
3 296 287 286
3 295 296 286
3 297 288 287
3 296 297 287
3 298 289 288
3 297 298 288
3 290 299 292
3 291 300 290
3 290 300 299
3 292 299 301
3 292 301 293
3 293 301 302
3 293 302 294
3 294 302 295
3 303 296 295
3 303 295 302
3 304 297 296
3 303 304 296
3 305 298 297
3 304 305 297
3 299 306 301
3 300 307 299
3 299 307 306
3 301 306 308
3 301 308 302
3 309 303 302
3 302 308 309
3 310 304 303
3 309 310 303
3 311 305 304
3 310 311 304
3 306 312 308
3 307 313 306
3 306 313 312
3 314 310 309
3 308 312 314
3 314 309 308
3 315 311 310
3 314 315 310
3 312 316 314
3 313 317 312
3 312 317 316
3 318 315 314
3 318 314 316
3 317 319 316
3 319 318 316
CELL_TYPES 578
5
5
5
5
5
5
5
5
5
5
5
5
5
5
5
5
5
5
5
5
5
5
5
5
5
5
5
5
5
5
5
5
5
5
5
5
5
5
5
5
5
5
5
5
5
5
5
5
5
5
5
5
5
5
5
5
5
5
5
5
5
5
5
5
5
5
5
5
5
5
5
5
5
5
5
5
5
5
5
5
5
5
5
5
5
5
5
5
5
5
5
5
5
5
5
5
5
5
5
5
5
5
5
5
5
5
5
5
5
5
5
5
5
5
5
5
5
5
5
5
5
5
5
5
5
5
5
5
5
5
5
5
5
5
5
5
5
5
5
5
5
5
5
5
5
5
5
5
5
5
5
5
5
5
5
5
5
5
5
5
5
5
5
5
5
5
5
5
5
5
5
5
5
5
5
5
5
5
5
5
5
5
5
5
5
5
5
5
5
5
5
5
5
5
5
5
5
5
5
5
5
5
5
5
5
5
5
5
5
5
5
5
5
5
5
5
5
5
5
5
5
5
5
5
5
5
5
5
5
5
5
5
5
5
5
5
5
5
5
5
5
5
5
5
5
5
5
5
5
5
5
5
5
5
5
5
5
5
5
5
5
5
5
5
5
5
5
5
5
5
5
5
5
5
5
5
5
5
5
5
5
5
5
5
5
5
5
5
5
5
5
5
5
5
5
5
5
5
5
5
5
5
5
5
5
5
5
5
5
5
5
5
5
5
5
5
5
5
5
5
5
5
5
5
5
5
5
5
5
5
5
5
5
5
5
5
5
5
5
5
5
5
5
5
5
5
5
5
5
5
5
5
5
5
5
5
5
5
5
5
5
5
5
5
5
5
5
5
5
5
5
5
5
5
5
5
5
5
5
5
5
5
5
5
5
5
5
5
5
5
5
5
5
5
5
5
5
5
5
5
5
5
5
5
5
5
5
5
5
5
5
5
5
5
5
5
5
5
5
5
5
5
5
5
5
5
5
5
5
5
5
5
5
5
5
5
5
5
5
5
5
5
5
5
5
5
5
5
5
5
5
5
5
5
5
5
5
5
5
5
5
5
5
5
5
5
5
5
5
5
5
5
5
5
5
5
5
5
5
5
5
5
5
5
5
5
5
5
5
5
5
5
5
5
5
5
5
5
5
5
5
5
5
5
5
5
5
5
5
5
5
5
5
5
5
5
5
5
5
5
5
5
5
5
5
5
5
5
5
5
5
5
5
5
5
5
5
5
5
5
5
5
5
5
5
5
5
5
5
5
5
5
5
5
5
5
5
5
5
5
5
5
5
5
5
5
5
5
5
5
5
5
5
5
5
5
5
5
POINT_DATA 320
SCALARS theta_e float 1
LOOKUP_TABLE default
1.000001
1.000001
1.000001
1.000001
1.000001
1.000001
1.000001
1.000001
1.000001
1.000001
1.000001
1.000001
1.000001
1.000001
1.000001
1.000001
1.000001
1.000001
1.000001
1.000001
1.000001
1.000000
1.000001
1.000001
1.000001
1.000001
1.000001
1.000001
1.000001
1.000001
1.000001
1.000000
1.000000
1.000000
1.000001
1.000001
1.000001
1.000001
1.000001
1.000001
1.000000
1.000000
1.000000
1.000000
1.000000
1.000000
1.000000
1.000000
1.000001
1.000001
1.000001
1.000001
1.000001
1.000001
1.000001
1.000000
1.000000
1.000000
1.000000
1.000000
1.000000
1.000000
1.000001
1.000001
1.000000
1.000001
1.000001
1.000001
1.000001
1.000001
1.000001
1.000001
1.000001
1.000001
1.000000
1.000000
1.000000
1.000000
1.000000
1.000000
1.000000
1.000001
1.000001
1.000001
1.000001
1.000001
1.000001
1.000001
1.000001
1.000001
1.000001
1.000001
1.000001
1.000001
1.000001
1.000000
1.000000
1.000000
1.000000
1.000000
1.000000
1.000000
1.000000
1.000000
1.000001
1.000001
1.000001
1.000001
1.000001
1.000001
1.000001
1.000001
1.000001
1.000001
1.000001
1.000001
1.000001
1.000001
1.000001
1.000001
1.000001
1.000000
1.000001
1.000000
0.999997
1.000000
0.999999
1.000001
1.000000
1.000001
1.000001
1.000001
1.000001
1.000001
1.000001
1.000001
1.000001
1.000001
1.000001
1.000001
1.000001
1.000001
1.000001
1.000001
1.000001
1.000001
1.000001
1.000000
1.000001
0.999996
0.999987
0.999991
0.999997
1.000001
0.999999
1.000001
1.000001
1.000001
1.000001
1.000001
1.000001
1.000001
1.000001
1.000001
1.000001
1.000001
1.000001
1.000001
1.000001
1.000001
1.000001
0.999999
1.000000
0.999982
0.999990
0.999982
0.999989
0.999997
1.000001
1.000001
1.000001
1.000001
1.000001
1.000001
1.000001
1.000001
1.000001
1.000001
1.000001
1.000001
1.000001
1.000001
1.000001
0.999997
0.999982
0.999987
0.999982
0.999989
0.999999
1.000001
1.000001
1.000001
1.000001
1.000001
1.000001
1.000001
1.000001
1.000001
1.000001
1.000001
1.000001
1.000001
1.000001
0.999996
0.999987
0.999990
0.999996
1.000001
1.000001
1.000001
1.000001
1.000001
1.000001
1.000001
1.000001
1.000001
1.000001
1.000001
1.000001
1.000001
1.000001
0.999999
0.999997
1.000000
1.000000
1.000001
1.000001
1.000001
1.000001
1.000001
1.000001
1.000001
1.000001
1.000001
1.000001
1.000001
1.000001
1.000000
1.000000
1.000000
1.000001
1.000001
1.000001
1.000001
1.000001
1.000001
1.000001
1.000001
1.000001
1.000001
1.000001
1.000000
1.000001
1.000001
1.000001
1.000001
1.000001
1.000001
1.000001
1.000001
1.000001
1.000001
1.000001
1.000001
1.000001
1.000001
1.000001
1.000001
1.000001
1.000001
1.000001
1.000001
1.000001
1.000001
1.000001
1.000001
1.000001
1.000001
1.000001
1.000001
1.000001
1.000001
1.000001
1.000001
1.000001
1.000001
1.000001
1.000001
1.000001
1.000001
1.000001
1.000001
1.000001
1.000001
1.000001
1.000001
1.000001
1.000001
1.000001
1.000001
1.000001
1.000001
1.000001
1.000001
1.000001
1.000001
1.000001
1.000001
1.000001
1.000001
VECTORS fa_u float
0.000000 0.000000 0.000000
0.000000 0.000000 0.000000
0.000000 0.000000 0.000000
0.000000 0.000000 0.000000
0.000000 0.000000 0.000000
0.000000 0.000000 0.000000
0.000000 0.000000 0.000000
0.000000 0.000000 0.000000
0.000000 0.000000 0.000000
0.000000 0.000000 0.000000
0.000000 0.000000 0.000000
0.000000 0.000000 0.000000
0.000000 0.000000 0.000000
0.000000 0.000000 0.000000
0.000000 0.000000 0.000000
0.000000 0.000000 0.000000
0.000000 0.000000 0.000000
0.000000 0.000000 0.000000
0.000000 0.000000 0.000000
0.000000 0.000000 0.000000
0.000000 0.000000 0.000000
0.000000 0.000000 0.000000
0.000000 0.000000 0.000000
0.000000 0.000000 0.000000
0.000000 0.000000 0.000000
0.000000 0.000000 0.000000
0.000000 0.000000 0.000000
0.000000 0.000000 0.000000
0.000000 0.000000 0.000000
0.000000 0.000000 0.000000
0.000000 0.000000 0.000000
0.000000 0.000000 0.000000
0.000000 0.000000 0.000000
0.000000 0.000000 0.000000
0.000000 0.000000 0.000000
0.000000 0.000000 0.000000
0.000000 0.000000 0.000000
0.000000 0.000000 0.000000
0.000000 0.000000 0.000000
0.000000 0.000000 0.000000
0.000000 0.000000 0.000000
0.000000 0.000000 0.000000
0.000000 0.000000 0.000000
0.000000 0.000000 0.000000
0.000000 0.000000 0.000000
0.000000 0.000000 0.000000
0.000000 0.000000 0.000000
0.000000 0.000000 0.000000
0.000000 0.000000 0.000000
0.000000 0.000000 0.000000
0.000000 0.000000 0.000000
0.000000 0.000000 0.000000
0.000000 0.000000 0.000000
0.000000 0.000000 0.000000
0.000000 0.000000 0.000000
0.000000 0.000000 0.000000
0.000000 0.000000 0.000000
0.000000 0.000000 0.000000
0.000000 0.000000 0.000000
0.000000 0.000000 0.000000
0.000000 0.000000 0.000000
0.000000 0.000000 0.000000
0.000000 0.000000 0.000000
0.000000 0.000000 0.000000
0.000000 0.000000 0.000000
0.000000 0.000000 0.000000
0.000000 0.000000 0.000000
0.000000 0.000000 0.000000
0.000000 0.000000 0.000000
0.000000 0.000000 0.000000
0.000000 0.000000 0.000000
0.000000 0.000000 0.000000
0.000000 0.000000 0.000000
0.000000 0.000000 0.000000
0.000000 0.000000 0.000000
0.000000 0.000000 0.000000
0.000000 0.000000 0.000000
0.000000 0.000000 0.000000
0.000000 0.000000 0.000000
0.000000 0.000000 0.000000
0.000000 0.000000 0.000000
0.000000 0.000000 0.000000
0.000000 0.000000 0.000000
0.000000 0.000000 0.000000
0.000000 0.000000 0.000000
0.000000 0.000000 0.000000
0.000000 0.000000 0.000000
0.000000 0.000000 0.000000
0.000000 0.000000 0.000000
0.000000 0.000000 0.000000
0.000000 0.000000 0.000000
0.000000 0.000000 0.000000
0.000000 0.000000 0.000000
0.000000 0.000000 0.000000
0.000000 0.000000 0.000000
0.000000 0.000000 0.000000
0.000000 0.000000 0.000000
0.000000 0.000000 0.000000
0.000000 0.000000 0.000000
0.000000 0.000000 0.000000
0.000000 0.000000 0.000000
0.000000 0.000000 0.000000
0.000000 0.000000 0.000000
0.000000 0.000000 0.000000
0.000000 0.000000 0.000000
0.000000 0.000000 0.000000
0.000000 0.000000 0.000000
0.000000 0.000000 0.000000
0.000000 0.000000 0.000000
0.000000 0.000000 0.000000
0.000000 0.000000 0.000000
0.000000 0.000000 0.000000
0.000000 0.000000 0.000000
0.000000 0.000000 0.000000
0.000000 0.000000 0.000000
0.000000 0.000000 0.000000
0.000000 0.000000 0.000000
0.000000 0.000000 0.000000
0.000000 0.000000 0.000000
0.000000 0.000000 0.000000
0.000000 0.000000 0.000000
0.000000 0.000000 0.000000
0.000000 0.000000 0.000000
0.000000 0.000000 0.000000
0.000000 0.000000 0.000000
0.000000 0.000000 0.000000
0.000000 0.000000 0.000000
0.000000 0.000000 0.000000
0.000000 0.000000 0.000000
0.000000 0.000000 0.000000
0.000000 0.000000 0.000000
0.000000 0.000000 0.000000
0.000000 0.000000 0.000000
0.000000 0.000000 0.000000
0.000000 0.000000 0.000000
0.000000 0.000000 0.000000
0.000000 0.000000 0.000000
0.000000 0.000000 0.000000
0.000000 0.000000 0.000000
0.000000 0.000000 0.000000
0.000000 0.000000 0.000000
0.000000 0.000000 0.000000
0.000000 0.000000 0.000000
0.000000 0.000000 0.000000
0.000000 0.000000 0.000000
0.000000 0.000000 0.000000
0.000000 0.000000 0.000000
0.000000 0.000000 0.000000
0.000000 0.000000 0.000000
0.000000 0.000000 0.000000
0.000000 0.000000 0.000000
0.000000 0.000000 0.000000
0.000000 0.000000 0.000000
0.000000 0.000000 0.000000
0.000000 0.000000 0.000000
0.000000 0.000000 0.000000
0.000000 0.000000 0.000000
0.000000 0.000000 0.000000
0.000000 0.000000 0.000000
0.000000 0.000000 0.000000
0.000000 0.000000 0.000000
0.000000 0.000000 0.000000
0.000000 0.000000 0.000000
0.000000 0.000000 0.000000
0.000000 0.000000 0.000000
0.000000 0.000000 0.000000
0.000000 0.000000 0.000000
0.000000 0.000000 0.000000
0.000000 0.000000 0.000000
0.000000 0.000000 0.000000
0.000000 0.000000 0.000000
0.000000 0.000000 0.000000
0.000000 0.000000 0.000000
0.000000 0.000000 0.000000
0.000000 0.000000 0.000000
0.000000 0.000000 0.000000
0.000000 0.000000 0.000000
0.000000 0.000000 0.000000
0.000000 0.000000 0.000000
0.000000 0.000000 0.000000
0.000000 0.000000 0.000000
0.000000 0.000000 0.000000
0.000000 0.000000 0.000000
0.000000 0.000000 0.000000
0.000000 0.000000 0.000000
0.000000 0.000000 0.000000
0.000000 0.000000 0.000000
0.000000 0.000000 0.000000
0.000000 0.000000 0.000000
0.000000 0.000000 0.000000
0.000000 0.000000 0.000000
0.000000 0.000000 0.000000
0.000000 0.000000 0.000000
0.000000 0.000000 0.000000
0.000000 0.000000 0.000000
0.000000 0.000000 0.000000
0.000000 0.000000 0.000000
0.000000 0.000000 0.000000
0.000000 0.000000 0.000000
0.000000 0.000000 0.000000
0.000000 0.000000 0.000000
0.000000 0.000000 0.000000
0.000000 0.000000 0.000000
0.000000 0.000000 0.000000
0.000000 0.000000 0.000000
0.000000 0.000000 0.000000
0.000000 0.000000 0.000000
0.000000 0.000000 0.000000
0.000000 0.000000 0.000000
0.000000 0.000000 0.000000
0.000000 0.000000 0.000000
0.000000 0.000000 0.000000
0.000000 0.000000 0.000000
0.000000 0.000000 0.000000
0.000000 0.000000 0.000000
0.000000 0.000000 0.000000
0.000000 0.000000 0.000000
0.000000 0.000000 0.000000
0.000000 0.000000 0.000000
0.000000 0.000000 0.000000
0.000000 0.000000 0.000000
0.000000 0.000000 0.000000
0.000000 0.000000 0.000000
0.000000 0.000000 0.000000
0.000000 0.000000 0.000000
0.000000 0.000000 0.000000
0.000000 0.000000 0.000000
0.000000 0.000000 0.000000
0.000000 0.000000 0.000000
0.000000 0.000000 0.000000
0.000000 0.000000 0.000000
0.000000 0.000000 0.000000
0.000000 0.000000 0.000000
0.000000 0.000000 0.000000
0.000000 0.000000 0.000000
0.000000 0.000000 0.000000
0.000000 0.000000 0.000000
0.000000 0.000000 0.000000
0.000000 0.000000 0.000000
0.000000 0.000000 0.000000
0.000000 0.000000 0.000000
0.000000 0.000000 0.000000
0.000000 0.000000 0.000000
0.000000 0.000000 0.000000
0.000000 0.000000 0.000000
0.000000 0.000000 0.000000
0.000000 0.000000 0.000000
0.000000 0.000000 0.000000
0.000000 0.000000 0.000000
0.000000 0.000000 0.000000
0.000000 0.000000 0.000000
0.000000 0.000000 0.000000
0.000000 0.000000 0.000000
0.000000 0.000000 0.000000
0.000000 0.000000 0.000000
0.000000 0.000000 0.000000
0.000000 0.000000 0.000000
0.000000 0.000000 0.000000
0.000000 0.000000 0.000000
0.000000 0.000000 0.000000
0.000000 0.000000 0.000000
0.000000 0.000000 0.000000
0.000000 0.000000 0.000000
0.000000 0.000000 0.000000
0.000000 0.000000 0.000000
0.000000 0.000000 0.000000
0.000000 0.000000 0.000000
0.000000 0.000000 0.000000
0.000000 0.000000 0.000000
0.000000 0.000000 0.000000
0.000000 0.000000 0.000000
0.000000 0.000000 0.000000
0.000000 0.000000 0.000000
0.000000 0.000000 0.000000
0.000000 0.000000 0.000000
0.000000 0.000000 0.000000
0.000000 0.000000 0.000000
0.000000 0.000000 0.000000
0.000000 0.000000 0.000000
0.000000 0.000000 0.000000
0.000000 0.000000 0.000000
0.000000 0.000000 0.000000
0.000000 0.000000 0.000000
0.000000 0.000000 0.000000
0.000000 0.000000 0.000000
0.000000 0.000000 0.000000
0.000000 0.000000 0.000000
0.000000 0.000000 0.000000
0.000000 0.000000 0.000000
0.000000 0.000000 0.000000
0.000000 0.000000 0.000000
0.000000 0.000000 0.000000
0.000000 0.000000 0.000000
0.000000 0.000000 0.000000
0.000000 0.000000 0.000000
0.000000 0.000000 0.000000
0.000000 0.000000 -50.000000
-50.000000 0.000000 -50.000000
-43.333259 0.000000 -45.688289
-45.491062 0.000000 -43.333247
-50.000000 0.000000 -50.000000
-36.666516 0.000000 -36.666515
-50.000000 0.000000 -45.081015
-39.969724 0.000000 -40.027038
-44.152184 0.000000 -29.999776
-50.000000 0.000000 -50.000000
-29.999778 0.000000 -44.846984
-33.448862 0.000000 -33.144803
-44.675586 0.000000 -39.868998
-36.786922 0.000000 -35.128505
-39.801181 0.000000 -23.333067
-50.000000 0.000000 -26.539039
-44.666693 0.000000 -50.000000
-23.333073 0.000000 -44.665230
-26.803849 0.000000 -39.364145
-30.225602 0.000000 -29.606105
-39.359263 0.000000 -33.368059
-33.655329 0.000000 -50.000000
-16.666413 0.000000 -16.666412
-50.000000 0.000000 -9.999815
