# vtk DataFile Version 2.0
CellBP Time: 7.44
ASCII
DATASET UNSTRUCTURED_GRID
POINTS 320 double
-50.000000 -50.000000 0.000000
-50.000000 -43.332951 0.000000
-45.688399 -45.491164 0.000000
-43.332877 -50.000000 0.000000
-50.000000 -36.665874 0.000000
-36.665862 -50.000000 0.000000
-45.081134 -39.969805 0.000000
-40.027208 -44.152294 0.000000
-29.998812 -50.000000 0.000000
-50.000000 -29.998832 0.000000
-44.847104 -33.448938 0.000000
-33.144927 -44.675705 0.000000
-39.869144 -36.787013 0.000000
-35.128676 -39.801331 0.000000
-23.331919 -50.000000 0.000000
-26.539165 -44.666755 0.000000
-50.000000 -23.331961 0.000000
-44.665283 -26.803951 0.000000
-39.364257 -30.225709 0.000000
-29.606294 -39.359389 0.000000
-33.368262 -33.655479 0.000000
-50.000000 -16.665343 0.000000
-16.665325 -50.000000 0.000000
-9.999040 -50.000000 0.000000
-19.964898 -44.588771 0.000000
-23.215897 -39.114708 0.000000
-44.691885 -20.096939 0.000000
-39.367866 -23.528174 0.000000
-34.106153 -26.937047 0.000000
-26.384434 -33.577299 0.000000
-29.156225 -28.926665 0.000000
-50.000000 -9.998945 0.000000
-44.666362 -13.410206 0.000000
-50.000000 -3.332829 0.000000
-3.333009 -50.000000 0.000000
3.332956 -50.000000 0.000000
-13.343654 -44.599027 0.000000
-6.684702 -44.610695 0.000000
-16.693705 -39.153291 0.000000
-20.106976 -33.342690 0.000000
-39.338181 -16.804773 0.000000
-34.018739 -20.274687 0.000000
-28.780972 -23.449107 0.000000
-23.510514 -27.350388 0.000000
-44.635457 -6.705565 0.000000
-39.293108 -10.101832 0.000000
-50.000000 3.333135 0.000000
-44.626757 -0.015600 0.000000
9.999044 -50.000000 0.000000
16.665372 -50.000000 0.000000
-0.016069 -44.618768 0.000000
6.651692 -44.635455 0.000000
-10.044697 -39.222608 0.000000
-3.368189 -39.220394 0.000000
-13.484243 -33.798725 0.000000
-16.709432 -28.271521 0.000000
-33.948079 -13.514032 0.000000
-28.601940 -16.892398 0.000000
-23.291742 -20.313102 0.000000
-18.660439 -23.283221 0.000000
-39.267544 -3.392814 0.000000
-33.904591 -6.796780 0.000000
-50.000000 9.999149 0.000000
-44.606767 6.673452 0.000000
-39.260939 3.325685 0.000000
-50.000000 16.665420 0.000000
23.331948 -50.000000 0.000000
29.998777 -50.000000 0.000000
13.317525 -44.662974 0.000000
19.989653 -44.700114 0.000000
3.307719 -39.245162 0.000000
9.971863 -39.290332 0.000000
-6.735320 -33.791394 0.000000
-0.032217 -33.829611 0.000000
-10.095910 -28.293252 0.000000
-13.122707 -22.897748 0.000000
-28.532415 -10.214863 0.000000
-23.067019 -13.663511 0.000000
-16.977710 -17.210197 0.000000
-33.884697 -0.065453 0.000000
-28.563192 -3.579217 0.000000
-44.564127 13.380520 0.000000
-39.190095 10.015080 0.000000
-33.905777 6.616046 0.000000
-50.000000 23.331915 0.000000
-44.557617 20.138230 0.000000
-50.000000 29.998858 0.000000
36.665795 -50.000000 0.000000
43.332880 -50.000000 0.000000
26.663266 -44.745308 0.000000
33.315313 -44.875971 0.000000
16.631716 -39.357698 0.000000
23.328298 -39.437096 0.000000
6.642914 -33.879551 0.000000
13.290761 -33.965473 0.000000
-3.345750 -28.363175 0.000000
3.357493 -28.451295 0.000000
-6.626023 -22.845851 0.000000
-9.967989 -17.314983 0.000000
-23.183857 -7.014755 0.000000
-17.811623 -10.335122 0.000000
-12.837510 -12.596056 0.000000
-28.607560 3.088577 0.000000
-23.265510 -0.468750 0.000000
-39.038880 16.746462 0.000000
-28.721017 9.926302 0.000000
-33.761449 13.318361 0.000000
-44.521693 26.716964 0.000000
-38.467756 23.892574 0.000000
-44.632348 33.085607 0.000000
-50.000000 36.666034 0.000000
-50.000000 43.333000 0.000000
39.922391 -45.069596 0.000000
45.474711 -45.660462 0.000000
50.000000 -50.000000 0.000000
36.626802 -39.981955 0.000000
30.012383 -39.458604 0.000000
19.904256 -34.092812 0.000000
26.585069 -34.319478 0.000000
9.988791 -28.513314 0.000000
16.610929 -28.660045 0.000000
0.051646 -22.960473 0.000000
6.812280 -23.157402 0.000000
-3.400068 -17.297199 0.000000
-6.845557 -10.982076 0.000000
-17.877082 -3.823927 0.000000
-12.553178 -7.036127 0.000000
-23.309956 6.072344 0.000000
-18.036760 2.449971 0.000000
-23.122580 12.095935 0.000000
-33.572125 19.788970 0.000000
-27.941441 16.885733 0.000000
-33.292898 24.722771 0.000000
-39.473598 30.052866 0.000000
-35.160370 28.137552 0.000000
-39.816015 35.101448 0.000000
-43.991697 39.982257 0.000000
-45.431022 45.685190 0.000000
-50.000000 50.000000 0.000000
44.117265 -39.899012 0.000000
50.000000 -43.332703 0.000000
39.639450 -35.047398 0.000000
33.462914 -33.424527 0.000000
22.984945 -28.817947 0.000000
28.731013 -29.247772 0.000000
13.460894 -23.121815 0.000000
20.054932 -23.439042 0.000000
3.381239 -17.588211 0.000000
10.126091 -17.841144 0.000000
0.151012 -11.941162 0.000000
-2.142856 -6.227764 0.000000
-7.326661 -3.658848 0.000000
-12.571672 -0.804811 0.000000
-18.166038 8.573491 0.000000
-12.956997 5.196996 0.000000
-18.638743 13.751909 0.000000
-21.504354 17.494863 0.000000
-28.940785 23.158648 0.000000
-24.346280 21.554639 0.000000
-30.323574 28.634895 0.000000
-34.253458 33.375566 0.000000
-36.955928 39.578085 0.000000
-39.838669 45.102774 0.000000
-43.332865 50.000000 0.000000
44.585256 -32.972053 0.000000
50.000000 -36.665591 0.000000
39.129320 -29.581821 0.000000
33.500624 -26.367631 0.000000
27.182929 -23.322070 0.000000
23.066313 -18.647761 0.000000
16.990467 -16.980404 0.000000
6.708935 -12.209603 0.000000
12.359320 -12.733978 0.000000
-3.378678 -1.490948 0.000000
3.889283 -6.942543 0.000000
1.021440 -2.119966 0.000000
-6.960186 2.308267 0.000000
-8.376804 7.776662 0.000000
-12.844731 11.931069 0.000000
-15.692099 17.699962 0.000000
-19.287255 22.982461 0.000000
-24.170954 27.354791 0.000000
-27.286309 33.626033 0.000000
-30.406640 39.161211 0.000000
-33.447783 44.738867 0.000000
-36.665755 50.000000 0.000000
44.547736 -26.499869 0.000000
50.000000 -29.998505 0.000000
39.040034 -23.179235 0.000000
33.449734 -19.899929 0.000000
28.039998 -16.574005 0.000000
22.682335 -13.123959 0.000000
17.176290 -9.906457 0.000000
10.889097 -6.625235 0.000000
-1.354219 2.310841 0.000000
6.189268 -1.729576 0.000000
2.900733 1.598031 0.000000
-3.513067 7.120135 0.000000
-6.313537 12.441425 0.000000
-9.629579 17.705176 0.000000
-13.167197 23.113152 0.000000
-17.316633 28.185248 0.000000
-20.570699 33.474425 0.000000
-23.665894 39.064017 0.000000
-26.830883 44.585380 0.000000
-29.998806 50.000000 0.000000
44.528703 -19.930607 0.000000
50.000000 -23.331633 0.000000
39.036318 -16.594059 0.000000
33.576196 -13.281170 0.000000
28.150261 -9.964873 0.000000
22.725520 -6.604453 0.000000
17.264182 -3.336508 0.000000
11.947149 0.199847 0.000000
1.921607 6.260497 0.000000
6.960071 3.797373 0.000000
-0.217335 11.912568 0.000000
-3.262519 17.530457 0.000000
-6.700282 22.977750 0.000000
-10.567649 28.267555 0.000000
-13.723946 33.661419 0.000000
-16.945628 39.080373 0.000000
-20.140536 44.548458 0.000000
-23.332015 50.000000 0.000000
44.536279 -13.303723 0.000000
50.000000 -16.665079 0.000000
39.079907 -9.966679 0.000000
33.646718 -6.641052 0.000000
28.236143 -3.307567 0.000000
22.847166 0.018007 0.000000
17.535128 3.355156 0.000000
12.205228 6.593730 0.000000
6.705050 10.805485 0.000000
3.301901 17.196507 0.000000
-0.081089 22.852202 0.000000
-3.518522 28.312778 0.000000
-6.831301 33.774450 0.000000
-10.137348 39.170579 0.000000
-13.435694 44.563567 0.000000
-16.665472 50.000000 0.000000
44.554329 -6.654751 0.000000
50.000000 -9.998879 0.000000
39.123363 -3.321338 0.000000
33.713383 0.008773 0.000000
28.333191 3.344239 0.000000
23.001156 6.693680 0.000000
17.833038 10.021933 0.000000
12.656139 12.231692 0.000000
9.789048 17.234192 0.000000
6.478297 22.722359 0.000000
3.188926 28.269734 0.000000
-0.115858 33.734779 0.000000
-3.425133 39.168625 0.000000
-6.725394 44.581836 0.000000
-9.999157 50.000000 0.000000
44.575647 0.001884 0.000000
50.000000 -3.332954 0.000000
39.166859 3.331872 0.000000
33.779305 6.655562 0.000000
28.424089 9.994923 0.000000
23.046465 13.416378 0.000000
16.948979 17.022754 0.000000
12.901670 22.669673 0.000000
9.814952 28.232062 0.000000
6.604297 33.718740 0.000000
3.286603 39.164430 0.000000
-0.029832 44.584586 0.000000
-3.333031 50.000000 0.000000
44.586731 6.665512 0.000000
50.000000 3.332937 0.000000
39.198080 9.981924 0.000000
33.843412 13.277011 0.000000
28.541975 16.584689 0.000000
23.386970 20.084314 0.000000
18.531831 23.112434 0.000000
16.393171 28.298647 0.000000
13.328988 33.754758 0.000000
9.986618 39.181956 0.000000
6.666042 44.584354 0.000000
3.333025 50.000000 0.000000
44.608902 13.317939 0.000000
50.000000 9.999003 0.000000
39.251355 16.612435 0.000000
33.931894 19.862855 0.000000
28.612330 22.925981 0.000000
23.279654 27.207553 0.000000
19.901353 33.303042 0.000000
16.573854 39.040927 0.000000
13.268409 44.526749 0.000000
9.999106 50.000000 0.000000
44.632076 19.972994 0.000000
50.000000 16.665336 0.000000
39.298497 23.262135 0.000000
34.043812 26.514725 0.000000
28.965792 28.539448 0.000000
26.202411 33.410116 0.000000
23.066764 38.968818 0.000000
19.888639 44.507054 0.000000
16.665353 50.000000 0.000000
44.639816 26.642931 0.000000
50.000000 23.331922 0.000000
39.293381 29.966709 0.000000
33.212416 33.371277 0.000000
29.412165 39.045847 0.000000
26.422437 44.505969 0.000000
23.331890 50.000000 0.000000
44.775005 33.291807 0.000000
50.000000 29.998756 0.000000
39.738208 36.596315 0.000000
34.831088 39.525633 0.000000
32.833866 44.514300 0.000000
29.998700 50.000000 0.000000
44.978269 39.877873 0.000000
50.000000 36.665777 0.000000
39.734917 43.969044 0.000000
36.665716 50.000000 0.000000
45.621322 45.409822 0.000000
50.000000 43.332866 0.000000
43.332764 50.000000 0.000000
50.000000 50.000000 0.000000
CELLS 578 2312
3 1 0 2
3 0 3 2
3 4 1 6
3 6 1 2
3 3 5 7
3 3 7 2
3 6 2 7
3 9 4 10
3 10 4 6
3 5 8 11
3 7 5 11
3 10 6 12
3 12 6 7
3 7 11 13
3 7 13 12
3 8 14 15
3 11 8 15
3 16 9 17
3 17 9 10
3 17 10 18
3 18 10 12
3 11 15 19
3 13 11 19
3 18 12 20
3 13 19 20
3 20 12 13
3 14 22 24
3 15 14 24
3 15 24 25
3 19 15 25
3 21 16 26
3 26 16 17
3 26 17 27
3 27 17 18
3 27 18 28
3 28 18 20
3 19 25 29
3 19 29 20
3 28 20 30
3 30 20 29
3 31 21 32
3 32 21 26
3 22 23 36
3 24 22 36
3 23 34 37
3 36 23 37
3 24 36 38
3 25 24 38
3 25 38 39
3 29 25 39
3 32 26 40
3 40 26 27
3 40 27 41
3 41 27 28
3 41 28 42
3 42 28 30
3 29 39 43
3 29 43 30
3 42 30 43
3 33 31 44
3 44 31 32
3 44 32 45
3 45 32 40
3 46 33 47
3 47 33 44
3 34 35 50
3 37 34 50
3 35 48 51
3 50 35 51
3 36 37 52
3 38 36 52
3 37 50 53
3 52 37 53
3 38 52 54
3 39 38 54
3 39 54 55
3 43 39 55
3 45 40 56
3 56 40 41
3 56 41 57
3 57 41 42
3 57 42 58
3 58 42 43
3 43 55 59
3 43 59 58
3 47 44 60
3 60 44 45
3 60 45 61
3 61 45 56
3 62 46 63
3 63 46 47
3 63 47 64
3 64 47 60
3 48 49 68
3 51 48 68
3 49 66 69
3 68 49 69
3 50 51 70
3 53 50 70
3 51 68 71
3 70 51 71
3 52 53 72
3 54 52 72
3 53 70 73
3 72 53 73
3 54 72 74
3 55 54 74
3 55 74 75
3 59 55 75
3 61 56 76
3 76 56 57
3 76 57 77
3 77 57 58
3 77 58 78
3 59 75 78
3 78 58 59
3 64 60 79
3 79 60 61
3 79 61 80
3 80 61 76
3 65 62 81
3 81 62 63
3 81 63 82
3 82 63 64
3 82 64 83
3 83 64 79
3 84 65 85
3 85 65 81
3 66 67 89
3 69 66 89
3 67 87 90
3 89 67 90
3 68 69 91
3 71 68 91
3 69 89 92
3 91 69 92
3 70 71 93
3 73 70 93
3 71 91 94
3 93 71 94
3 72 73 95
3 74 72 95
3 73 93 96
3 95 73 96
3 74 95 97
3 75 74 97
3 75 97 98
3 78 75 98
3 80 76 99
3 99 76 77
3 99 77 100
3 100 77 78
3 100 78 101
3 98 101 78
3 83 79 102
3 102 79 80
3 102 80 103
3 103 80 99
3 85 81 104
3 104 81 82
3 105 83 102
3 104 82 106
3 106 82 83
3 106 83 105
3 86 84 107
3 107 84 85
3 107 85 108
3 108 85 104
3 109 86 107
3 110 86 109
3 87 88 112
3 90 87 112
3 112 88 113
3 88 114 113
3 90 112 115
3 89 90 116
3 92 89 116
3 116 90 115
3 91 92 117
3 94 91 117
3 92 116 118
3 117 92 118
3 93 94 119
3 96 93 119
3 94 117 120
3 119 94 120
3 95 96 121
3 97 95 121
3 96 119 122
3 121 96 122
3 97 121 123
3 98 97 123
3 98 123 124
3 98 124 101
3 103 99 125
3 125 99 100
3 125 100 126
3 126 100 101
3 126 101 124
3 105 102 127
3 127 102 103
3 127 103 128
3 128 103 125
3 129 105 127
3 108 104 130
3 130 104 106
3 130 106 131
3 131 106 105
3 131 105 129
3 108 130 132
3 109 107 133
3 133 107 108
3 133 108 134
3 108 132 134
3 135 109 133
3 111 110 136
3 136 110 109
3 136 109 135
3 137 111 136
3 138 111 137
3 112 113 139
3 115 112 139
3 114 140 113
3 140 139 113
3 139 141 115
3 116 115 142
3 118 116 142
3 142 115 141
3 117 118 143
3 120 117 143
3 118 142 144
3 143 118 144
3 119 120 145
3 122 119 145
3 120 143 146
3 145 120 146
3 121 122 147
3 123 121 147
3 122 145 148
3 147 122 148
3 123 147 149
3 124 123 149
3 124 149 150
3 151 126 124
3 124 150 151
3 128 125 152
3 152 125 126
3 152 126 151
3 129 127 153
3 153 127 128
3 128 152 154
3 153 128 154
3 155 129 153
3 131 129 156
3 156 129 155
3 132 130 157
3 130 131 157
3 157 131 158
3 131 156 158
3 132 157 159
3 132 159 134
3 135 133 160
3 160 133 134
3 160 134 159
3 136 135 161
3 135 160 161
3 162 137 136
3 161 162 136
3 163 138 137
3 162 163 137
3 139 164 141
3 140 165 139
3 139 165 164
3 141 164 166
3 141 166 142
3 166 167 142
3 144 142 167
3 167 168 144
3 143 144 168
3 146 143 168
3 168 169 146
3 145 146 170
3 148 145 170
3 170 146 169
3 147 148 171
3 149 147 171
3 148 170 172
3 171 148 172
3 173 151 150
3 149 171 174
3 150 149 174
3 150 174 175
3 150 175 173
3 154 152 176
3 152 151 176
3 176 151 173
3 154 176 177
3 155 153 178
3 177 178 154
3 154 178 153
3 156 155 179
3 155 178 179
3 180 158 156
3 179 180 156
3 181 159 157
3 180 181 158
3 181 157 158
3 182 160 159
3 181 182 159
3 183 161 160
3 182 183 160
3 184 162 161
3 184 161 183
3 185 163 162
3 184 185 162
3 164 186 166
3 165 187 164
3 164 187 186
3 166 186 188
3 166 188 167
3 167 188 189
3 167 189 168
3 168 189 190
3 168 190 169
3 169 190 191
3 169 191 170
3 192 172 170
3 170 191 192
3 192 193 172
3 171 172 193
3 174 171 193
3 194 173 175
3 176 173 194
3 175 174 195
3 193 195 174
3 195 196 175
3 175 196 194
3 197 177 176
3 194 197 176
3 198 178 177
3 197 198 177
3 199 179 178
3 198 199 178
3 200 180 179
3 199 200 179
3 201 181 180
3 200 201 180
3 202 182 181
3 201 202 181
3 203 183 182
3 202 203 182
3 204 184 183
3 203 204 183
3 205 185 184
3 204 205 184
3 186 206 188
3 187 207 186
3 186 207 206
3 188 206 208
3 188 208 189
3 189 208 209
3 189 209 190
3 190 209 210
3 190 210 191
3 191 210 211
3 191 211 192
3 192 211 212
3 192 212 193
3 193 212 213
3 193 213 195
3 214 197 194
3 214 194 196
3 195 213 215
3 195 215 196
3 196 215 214
3 216 198 197
3 214 216 197
3 217 199 198
3 216 217 198
3 218 200 199
3 217 218 199
3 219 201 200
3 218 219 200
3 220 202 201
3 219 220 201
3 221 203 202
3 220 221 202
3 222 204 203
3 221 222 203
3 223 205 204
3 222 223 204
3 206 224 208
3 207 225 206
3 206 225 224
3 208 224 226
3 208 226 209
3 209 226 227
3 209 227 210
3 210 227 228
3 210 228 211
3 211 228 229
3 211 229 212
3 212 229 230
3 212 230 213
3 213 230 231
3 213 231 215
3 232 216 214
3 215 231 232
3 232 214 215
3 233 217 216
3 232 233 216
3 234 218 217
3 233 234 217
3 235 219 218
3 234 235 218
3 236 220 219
3 235 236 219
3 237 221 220
3 236 237 220
3 238 222 221
3 237 238 221
3 239 223 222
3 238 239 222
3 224 240 226
3 225 241 224
3 224 241 240
3 226 240 242
3 226 242 227
3 227 242 243
3 227 243 228
3 228 243 244
3 228 244 229
3 244 245 229
3 229 245 230
3 230 245 246
3 230 246 231
3 231 246 247
3 231 247 232
3 248 233 232
3 248 232 247
3 249 234 233
3 248 249 233
3 250 235 234
3 249 250 234
3 251 236 235
3 250 251 235
3 252 237 236
3 251 252 236
3 253 238 237
3 252 253 237
3 254 239 238
3 253 254 238
3 240 255 242
3 241 256 240
3 240 256 255
3 242 255 257
3 242 257 243
3 243 257 258
3 243 258 244
3 244 258 259
3 244 259 245
3 245 259 260
3 245 260 246
3 246 260 261
3 246 261 247
3 248 247 261
3 262 249 248
3 261 262 248
3 263 250 249
3 262 263 249
3 264 251 250
3 263 264 250
3 265 252 251
3 264 265 251
3 266 253 252
3 265 266 252
3 267 254 253
3 266 267 253
3 255 268 257
3 256 269 255
3 255 269 268
3 257 268 270
3 257 270 258
3 258 270 271
3 258 271 259
3 259 271 272
3 259 272 260
3 260 272 273
3 260 273 261
3 274 262 261
3 261 273 274
3 275 263 262
3 274 275 262
3 276 264 263
3 275 276 263
3 277 265 264
3 276 277 264
3 278 266 265
3 277 278 265
3 279 267 266
3 278 279 266
3 268 280 270
3 269 281 268
3 268 281 280
3 270 280 282
3 270 282 271
3 271 282 283
3 271 283 272
3 283 284 272
3 272 284 273
3 285 275 274
3 273 284 285
3 285 274 273
3 286 276 275
3 285 286 275
3 287 277 276
3 286 287 276
3 288 278 277
3 287 288 277
3 289 279 278
3 288 289 278
3 280 290 282
3 281 291 280
3 280 291 290
3 282 290 292
3 282 292 283
3 283 292 293
3 283 293 284
3 284 293 294
3 284 294 285
3 295 286 285
3 295 285 294
3 296 287 286
3 295 296 286
3 297 288 287
3 296 297 287
3 298 289 288
3 297 298 288
3 290 299 292
3 291 300 290
3 290 300 299
3 292 299 301
3 292 301 293
3 293 301 302
3 293 302 294
3 294 302 295
3 303 296 295
3 303 295 302
3 304 297 296
3 303 304 296
3 305 298 297
3 304 305 297
3 299 306 301
3 300 307 299
3 299 307 306
3 301 306 308
3 301 308 302
3 309 303 302
3 302 308 309
3 310 304 303
3 309 310 303
3 311 305 304
3 310 311 304
3 306 312 308
3 307 313 306
3 306 313 312
3 314 310 309
3 308 312 314
3 314 309 308
3 315 311 310
3 314 315 310
3 312 316 314
3 313 317 312
3 312 317 316
3 318 315 314
3 318 314 316
3 317 319 316
3 319 318 316
CELL_TYPES 578
5
5
5
5
5
5
5
5
5
5
5
5
5
5
5
5
5
5
5
5
5
5
5
5
5
5
5
5
5
5
5
5
5
5
5
5
5
5
5
5
5
5
5
5
5
5
5
5
5
5
5
5
5
5
5
5
5
5
5
5
5
5
5
5
5
5
5
5
5
5
5
5
5
5
5
5
5
5
5
5
5
5
5
5
5
5
5
5
5
5
5
5
5
5
5
5
5
5
5
5
5
5
5
5
5
5
5
5
5
5
5
5
5
5
5
5
5
5
5
5
5
5
5
5
5
5
5
5
5
5
5
5
5
5
5
5
5
5
5
5
5
5
5
5
5
5
5
5
5
5
5
5
5
5
5
5
5
5
5
5
5
5
5
5
5
5
5
5
5
5
5
5
5
5
5
5
5
5
5
5
5
5
5
5
5
5
5
5
5
5
5
5
5
5
5
5
5
5
5
5
5
5
5
5
5
5
5
5
5
5
5
5
5
5
5
5
5
5
5
5
5
5
5
5
5
5
5
5
5
5
5
5
5
5
5
5
5
5
5
5
5
5
5
5
5
5
5
5
5
5
5
5
5
5
5
5
5
5
5
5
5
5
5
5
5
5
5
5
5
5
5
5
5
5
5
5
5
5
5
5
5
5
5
5
5
5
5
5
5
5
5
5
5
5
5
5
5
5
5
5
5
5
5
5
5
5
5
5
5
5
5
5
5
5
5
5
5
5
5
5
5
5
5
5
5
5
5
5
5
5
5
5
5
5
5
5
5
5
5
5
5
5
5
5
5
5
5
5
5
5
5
5
5
5
5
5
5
5
5
5
5
5
5
5
5
5
5
5
5
5
5
5
5
5
5
5
5
5
5
5
5
5
5
5
5
5
5
5
5
5
5
5
5
5
5
5
5
5
5
5
5
5
5
5
5
5
5
5
5
5
5
5
5
5
5
5
5
5
5
5
5
5
5
5
5
5
5
5
5
5
5
5
5
5
5
5
5
5
5
5
5
5
5
5
5
5
5
5
5
5
5
5
5
5
5
5
5
5
5
5
5
5
5
5
5
5
5
5
5
5
5
5
5
5
5
5
5
5
5
5
5
5
5
5
5
5
5
5
5
5
5
5
5
5
5
5
5
5
5
5
5
5
5
5
5
5
5
5
5
5
5
5
5
5
5
5
5
5
5
5
5
5
5
5
5
5
5
5
5
5
5
5
5
5
5
5
5
5
5
5
5
5
5
5
5
5
5
5
5
5
5
5
5
5
5
5
5
5
5
5
5
5
5
5
5
5
5
5
5
5
5
5
5
5
5
5
5
5
POINT_DATA 320
SCALARS theta_e float 1
LOOKUP_TABLE default
1.000000
1.000000
1.000000
1.000000
1.000000
1.000000
1.000000
1.000000
1.000000
1.000000
1.000000
1.000000
1.000000
1.000000
1.000000
1.000000
1.000000
1.000000
1.000000
1.000000
1.000000
1.000000
1.000000
1.000000
1.000000
1.000000
1.000000
1.000000
1.000000
1.000000
1.000000
1.000000
1.000000
1.000000
1.000000
1.000000
1.000000
1.000000
1.000000
1.000000
1.000000
1.000000
1.000000
1.000000
1.000000
1.000000
1.000000
1.000000
1.000000
1.000000
1.000000
1.000000
1.000000
1.000000
1.000000
1.000000
1.000000
1.000000
1.000000
1.000000
1.000000
1.000000
1.000000
1.000000
1.000000
1.000000
1.000000
1.000000
1.000000
1.000000
1.000000
1.000000
1.000000
1.000000
1.000000
1.000000
1.000000
1.000000
1.000000
1.000000
1.000000
1.000000
1.000000
1.000000
1.000000
1.000000
1.000000
1.000000
1.000000
1.000000
1.000000
1.000000
1.000000
1.000000
1.000000
1.000000
1.000000
1.000000
1.000000
1.000000
1.000000
1.000000
1.000000
1.000000
1.000000
1.000000
1.000000
1.000000
1.000000
1.000000
1.000000
1.000000
1.000000
1.000000
1.000000
1.000000
1.000000
1.000000
1.000000
1.000000
1.000000
1.000000
1.000000
1.000000
1.000000
1.000000
1.000000
1.000000
1.000000
1.000000
1.000000
1.000000
1.000000
1.000000
1.000000
1.000000
1.000000
1.000000
1.000000
1.000000
1.000000
1.000000
1.000000
1.000000
1.000000
1.000000
1.000000
1.000000
1.000000
1.000000
1.000000
1.000000
1.000000
1.000000
1.000000
1.000000
1.000000
1.000000
1.000000
1.000000
1.000000
1.000000
1.000000
1.000000
1.000000
1.000000
1.000000
1.000000
1.000000
1.000000
1.000000
1.000000
1.000000
1.000001
1.000000
1.000000
1.000000
1.000000
1.000000
1.000000
1.000000
1.000000
1.000000
1.000000
1.000000
1.000000
1.000000
1.000000
1.000000
1.000000
1.000000
1.000000
1.000000
1.000000
1.000001
1.000000
1.000000
1.000000
1.000000
1.000000
1.000000
1.000000
1.000000
1.000000
1.000000
1.000000
1.000000
1.000000
1.000000
1.000000
1.000000
1.000000
1.000000
1.000000
1.000000
1.000000
1.000000
1.000000
1.000000
1.000000
1.000000
1.000000
1.000000
1.000000
1.000000
1.000000
1.000000
1.000000
1.000000
1.000000
1.000000
1.000000
1.000000
1.000000
1.000000
1.000000
1.000000
1.000000
1.000000
1.000000
1.000000
1.000000
1.000000
1.000000
1.000000
1.000000
1.000000
1.000000
1.000000
1.000000
1.000000
1.000000
1.000000
1.000000
1.000000
1.000000
1.000000
1.000000
1.000000
1.000000
1.000000
1.000000
1.000000
1.000000
1.000000
1.000000
1.000000
1.000000
1.000000
1.000000
1.000000
1.000000
1.000000
1.000000
1.000000
1.000000
1.000000
1.000000
1.000000
1.000000
1.000000
1.000000
1.000000
1.000000
1.000000
1.000000
1.000000
1.000000
1.000000
1.000000
1.000000
1.000000
1.000000
1.000000
1.000000
1.000000
1.000000
1.000000
1.000000
1.000000
1.000000
1.000000
1.000000
1.000000
1.000000
1.000000
1.000000
1.000000
1.000000
1.000000
1.000000
1.000000
1.000000
1.000000
1.000000
1.000000
1.000000
1.000000
1.000000
1.000000
VECTORS fa_u float
0.000000 0.000000 0.000000
0.000000 0.000000 0.000000
0.000000 0.000000 0.000000
0.000000 0.000000 0.000000
0.000000 0.000000 0.000000
0.000000 0.000000 0.000000
0.000000 0.000000 0.000000
0.000000 0.000000 0.000000
0.000000 0.000000 0.000000
0.000000 0.000000 0.000000
0.000000 0.000000 0.000000
0.000000 0.000000 0.000000
0.000000 0.000000 0.000000
0.000000 0.000000 0.000000
0.000000 0.000000 0.000000
0.000000 0.000000 0.000000
0.000000 0.000000 0.000000
0.000000 0.000000 0.000000
0.000000 0.000000 0.000000
0.000000 0.000000 0.000000
0.000000 0.000000 0.000000
0.000000 0.000000 0.000000
0.000000 0.000000 0.000000
0.000000 0.000000 0.000000
0.000000 0.000000 0.000000
0.000000 0.000000 0.000000
0.000000 0.000000 0.000000
0.000000 0.000000 0.000000
0.000000 0.000000 0.000000
0.000000 0.000000 0.000000
0.000000 0.000000 0.000000
0.000000 0.000000 0.000000
0.000000 0.000000 0.000000
0.000000 0.000000 0.000000
0.000000 0.000000 0.000000
0.000000 0.000000 0.000000
0.000000 0.000000 0.000000
0.000000 0.000000 0.000000
0.000000 0.000000 0.000000
0.000000 0.000000 0.000000
0.000000 0.000000 0.000000
0.000000 0.000000 0.000000
0.000000 0.000000 0.000000
0.000000 0.000000 0.000000
0.000000 0.000000 0.000000
0.000000 0.000000 0.000000
0.000000 0.000000 0.000000
0.000000 0.000000 0.000000
0.000000 0.000000 0.000000
0.000000 0.000000 0.000000
0.000000 0.000000 0.000000
0.000000 0.000000 0.000000
0.000000 0.000000 0.000000
0.000000 0.000000 0.000000
0.000000 0.000000 0.000000
0.000000 0.000000 0.000000
0.000000 0.000000 0.000000
0.000000 0.000000 0.000000
0.000000 0.000000 0.000000
0.000000 0.000000 0.000000
0.000000 0.000000 0.000000
0.000000 0.000000 0.000000
0.000000 0.000000 0.000000
0.000000 0.000000 0.000000
0.000000 0.000000 0.000000
0.000000 0.000000 0.000000
0.000000 0.000000 0.000000
0.000000 0.000000 0.000000
0.000000 0.000000 0.000000
0.000000 0.000000 0.000000
0.000000 0.000000 0.000000
0.000000 0.000000 0.000000
0.000000 0.000000 0.000000
0.000000 0.000000 0.000000
0.000000 0.000000 0.000000
0.000000 0.000000 0.000000
0.000000 0.000000 0.000000
0.000000 0.000000 0.000000
0.000000 0.000000 0.000000
0.000000 0.000000 0.000000
0.000000 0.000000 0.000000
0.000000 0.000000 0.000000
0.000000 0.000000 0.000000
0.000000 0.000000 0.000000
0.000000 0.000000 0.000000
0.000000 0.000000 0.000000
0.000000 0.000000 0.000000
0.000000 0.000000 0.000000
0.000000 0.000000 0.000000
0.000000 0.000000 0.000000
0.000000 0.000000 0.000000
0.000000 0.000000 0.000000
0.000000 0.000000 0.000000
0.000000 0.000000 0.000000
0.000000 0.000000 0.000000
0.000000 0.000000 0.000000
0.000000 0.000000 0.000000
0.000000 0.000000 0.000000
0.000000 0.000000 0.000000
0.000000 0.000000 0.000000
0.000000 0.000000 0.000000
0.000000 0.000000 0.000000
0.000000 0.000000 0.000000
0.000000 0.000000 0.000000
0.000000 0.000000 0.000000
0.000000 0.000000 0.000000
0.000000 0.000000 0.000000
0.000000 0.000000 0.000000
0.000000 0.000000 0.000000
0.000000 0.000000 0.000000
0.000000 0.000000 0.000000
0.000000 0.000000 0.000000
0.000000 0.000000 0.000000
0.000000 0.000000 0.000000
0.000000 0.000000 0.000000
0.000000 0.000000 0.000000
0.000000 0.000000 0.000000
0.000000 0.000000 0.000000
0.000000 0.000000 0.000000
0.000000 0.000000 0.000000
0.000000 0.000000 0.000000
0.000000 0.000000 0.000000
0.000000 0.000000 0.000000
0.000000 0.000000 0.000000
0.000000 0.000000 0.000000
0.000000 0.000000 0.000000
0.000000 0.000000 0.000000
0.000000 0.000000 0.000000
0.000000 0.000000 0.000000
0.000000 0.000000 0.000000
0.000000 0.000000 0.000000
0.000000 0.000000 0.000000
0.000000 0.000000 0.000000
0.000000 0.000000 0.000000
0.000000 0.000000 0.000000
0.000000 0.000000 0.000000
0.000000 0.000000 0.000000
0.000000 0.000000 0.000000
0.000000 0.000000 0.000000
0.000000 0.000000 0.000000
0.000000 0.000000 0.000000
0.000000 0.000000 0.000000
0.000000 0.000000 0.000000
0.000000 0.000000 0.000000
0.000000 0.000000 0.000000
0.000000 0.000000 0.000000
0.000000 0.000000 0.000000
0.000000 0.000000 0.000000
0.000000 0.000000 0.000000
0.000000 0.000000 0.000000
0.000000 0.000000 0.000000
0.000000 0.000000 0.000000
0.000000 0.000000 0.000000
0.000000 0.000000 0.000000
0.000000 0.000000 0.000000
0.000000 0.000000 0.000000
0.000000 0.000000 0.000000
0.000000 0.000000 0.000000
0.000000 0.000000 0.000000
0.000000 0.000000 0.000000
0.000000 0.000000 0.000000
0.000000 0.000000 0.000000
0.000000 0.000000 0.000000
0.000000 0.000000 0.000000
0.000000 0.000000 0.000000
0.000000 0.000000 0.000000
0.000000 0.000000 0.000000
0.000000 0.000000 0.000000
0.000000 0.000000 0.000000
0.000000 0.000000 0.000000
0.000000 0.000000 0.000000
0.000000 0.000000 0.000000
0.000000 0.000000 0.000000
0.000000 0.000000 0.000000
0.000000 0.000000 0.000000
0.000000 0.000000 0.000000
0.000000 0.000000 0.000000
0.000000 0.000000 0.000000
0.000000 0.000000 0.000000
0.000000 0.000000 0.000000
0.000000 0.000000 0.000000
0.000000 0.000000 0.000000
0.000000 0.000000 0.000000
0.000000 0.000000 0.000000
0.000000 0.000000 0.000000
0.000000 0.000000 0.000000
0.000000 0.000000 0.000000
0.000000 0.000000 0.000000
0.000000 0.000000 0.000000
0.000000 0.000000 0.000000
0.000000 0.000000 0.000000
0.000000 0.000000 0.000000
0.000000 0.000000 0.000000
0.000000 0.000000 0.000000
0.000000 0.000000 0.000000
0.000000 0.000000 0.000000
0.000000 0.000000 0.000000
0.000000 0.000000 0.000000
0.000000 0.000000 0.000000
0.000000 0.000000 0.000000
0.000000 0.000000 0.000000
0.000000 0.000000 0.000000
0.000000 0.000000 0.000000
0.000000 0.000000 0.000000
0.000000 0.000000 0.000000
0.000000 0.000000 0.000000
0.000000 0.000000 0.000000
0.000000 0.000000 0.000000
0.000000 0.000000 0.000000
0.000000 0.000000 0.000000
0.000000 0.000000 0.000000
0.000000 0.000000 0.000000
0.000000 0.000000 0.000000
0.000000 0.000000 0.000000
0.000000 0.000000 0.000000
0.000000 0.000000 0.000000
0.000000 0.000000 0.000000
0.000000 0.000000 0.000000
0.000000 0.000000 0.000000
0.000000 0.000000 0.000000
0.000000 0.000000 0.000000
0.000000 0.000000 0.000000
0.000000 0.000000 0.000000
0.000000 0.000000 0.000000
0.000000 0.000000 0.000000
0.000000 0.000000 0.000000
0.000000 0.000000 0.000000
0.000000 0.000000 0.000000
0.000000 0.000000 0.000000
0.000000 0.000000 0.000000
0.000000 0.000000 0.000000
0.000000 0.000000 0.000000
0.000000 0.000000 0.000000
0.000000 0.000000 0.000000
0.000000 0.000000 0.000000
0.000000 0.000000 0.000000
0.000000 0.000000 0.000000
0.000000 0.000000 0.000000
0.000000 0.000000 0.000000
0.000000 0.000000 0.000000
0.000000 0.000000 0.000000
0.000000 0.000000 0.000000
0.000000 0.000000 0.000000
0.000000 0.000000 0.000000
0.000000 0.000000 0.000000
0.000000 0.000000 0.000000
0.000000 0.000000 0.000000
0.000000 0.000000 0.000000
0.000000 0.000000 0.000000
0.000000 0.000000 0.000000
0.000000 0.000000 0.000000
0.000000 0.000000 0.000000
0.000000 0.000000 0.000000
0.000000 0.000000 0.000000
0.000000 0.000000 0.000000
0.000000 0.000000 0.000000
0.000000 0.000000 0.000000
0.000000 0.000000 0.000000
0.000000 0.000000 0.000000
0.000000 0.000000 0.000000
0.000000 0.000000 0.000000
0.000000 0.000000 0.000000
0.000000 0.000000 0.000000
0.000000 0.000000 0.000000
0.000000 0.000000 0.000000
0.000000 0.000000 0.000000
0.000000 0.000000 0.000000
0.000000 0.000000 0.000000
0.000000 0.000000 0.000000
0.000000 0.000000 0.000000
0.000000 0.000000 0.000000
0.000000 0.000000 0.000000
0.000000 0.000000 0.000000
0.000000 0.000000 0.000000
0.000000 0.000000 0.000000
0.000000 0.000000 0.000000
0.000000 0.000000 0.000000
0.000000 0.000000 0.000000
0.000000 0.000000 0.000000
0.000000 0.000000 0.000000
0.000000 0.000000 0.000000
0.000000 0.000000 0.000000
0.000000 0.000000 0.000000
0.000000 0.000000 0.000000
0.000000 0.000000 0.000000
0.000000 0.000000 0.000000
0.000000 0.000000 0.000000
0.000000 0.000000 0.000000
0.000000 0.000000 0.000000
0.000000 0.000000 0.000000
0.000000 0.000000 0.000000
0.000000 0.000000 0.000000
0.000000 0.000000 0.000000
0.000000 0.000000 0.000000
0.000000 0.000000 0.000000
0.000000 0.000000 0.000000
0.000000 0.000000 -50.000000
-50.000000 0.000000 -50.000000
-43.332951 0.000000 -45.688399
-45.491164 0.000000 -43.332877
-50.000000 0.000000 -50.000000
-36.665874 0.000000 -36.665862
-50.000000 0.000000 -45.081134
-39.969805 0.000000 -40.027208
-44.152294 0.000000 -29.998812
-50.000000 0.000000 -50.000000
-29.998832 0.000000 -44.847104
-33.448938 0.000000 -33.144927
-44.675705 0.000000 -39.869144
-36.787013 0.000000 -35.128676
-39.801331 0.000000 -23.331919
-50.000000 0.000000 -26.539165
-44.666755 0.000000 -50.000000
-23.331961 0.000000 -44.665283
-26.803951 0.000000 -39.364257
-30.225709 0.000000 -29.606294
-39.359389 0.000000 -33.368262
-33.655479 0.000000 -50.000000
-16.665343 0.000000 -16.665325
-50.000000 0.000000 -9.999040
