# vtk DataFile Version 2.0
CellBP Time: 11.92
ASCII
DATASET UNSTRUCTURED_GRID
POINTS 320 double
-50.000000 -50.000000 0.000000
-50.000000 -43.332948 0.000000
-45.688400 -45.491165 0.000000
-43.332873 -50.000000 0.000000
-50.000000 -36.665869 0.000000
-36.665855 -50.000000 0.000000
-45.081135 -39.969806 0.000000
-40.027210 -44.152295 0.000000
-29.998804 -50.000000 0.000000
-50.000000 -29.998826 0.000000
-44.847104 -33.448941 0.000000
-33.144930 -44.675706 0.000000
-39.869146 -36.787015 0.000000
-35.128679 -39.801333 0.000000
-23.331911 -50.000000 0.000000
-26.539169 -44.666755 0.000000
-50.000000 -23.331958 0.000000
-44.665283 -26.803955 0.000000
-39.364258 -30.225711 0.000000
-29.606297 -39.359389 0.000000
-33.368264 -33.655480 0.000000
-50.000000 -16.665342 0.000000
-16.665320 -50.000000 0.000000
-9.999040 -50.000000 0.000000
-19.964905 -44.588769 0.000000
-23.215902 -39.114707 0.000000
-44.691885 -20.096945 0.000000
-39.367864 -23.528177 0.000000
-34.106153 -26.937048 0.000000
-26.384438 -33.577298 0.000000
-29.156226 -28.926665 0.000000
-50.000000 -9.998948 0.000000
-44.666361 -13.410213 0.000000
-50.000000 -3.332835 0.000000
-3.333015 -50.000000 0.000000
3.332944 -50.000000 0.000000
-13.343664 -44.599025 0.000000
-6.684714 -44.610693 0.000000
-16.693712 -39.153288 0.000000
-20.106980 -33.342686 0.000000
-39.338180 -16.804780 0.000000
-34.018734 -20.274689 0.000000
-28.780972 -23.449107 0.000000
-23.510515 -27.350386 0.000000
-44.635456 -6.705572 0.000000
-39.293107 -10.101839 0.000000
-50.000000 3.333128 0.000000
-44.626757 -0.015607 0.000000
9.999028 -50.000000 0.000000
16.665355 -50.000000 0.000000
-0.016083 -44.618766 0.000000
6.651677 -44.635454 0.000000
-10.044707 -39.222604 0.000000
-3.368202 -39.220391 0.000000
-13.484251 -33.798720 0.000000
-16.709436 -28.271514 0.000000
-33.948078 -13.514041 0.000000
-28.601928 -16.892398 0.000000
-23.291742 -20.313099 0.000000
-18.660441 -23.283215 0.000000
-39.267544 -3.392822 0.000000
-33.904589 -6.796789 0.000000
-50.000000 9.999142 0.000000
-44.606768 6.673445 0.000000
-39.260940 3.325677 0.000000
-50.000000 16.665414 0.000000
23.331933 -50.000000 0.000000
29.998764 -50.000000 0.000000
13.317509 -44.662974 0.000000
19.989639 -44.700115 0.000000
3.307703 -39.245159 0.000000
9.971846 -39.290331 0.000000
-6.735331 -33.791388 0.000000
-0.032233 -33.829607 0.000000
-10.095919 -28.293244 0.000000
-13.122712 -22.897733 0.000000
-28.532417 -10.214881 0.000000
-23.066985 -13.663507 0.000000
-16.977710 -17.210186 0.000000
-33.884699 -0.065464 0.000000
-28.563190 -3.579228 0.000000
-44.564128 13.380514 0.000000
-39.190097 10.015073 0.000000
-33.905779 6.616038 0.000000
-50.000000 23.331910 0.000000
-44.557619 20.138225 0.000000
-50.000000 29.998854 0.000000
36.665787 -50.000000 0.000000
43.332876 -50.000000 0.000000
26.663253 -44.745310 0.000000
33.315303 -44.875973 0.000000
16.631699 -39.357700 0.000000
23.328283 -39.437099 0.000000
6.642895 -33.879549 0.000000
13.290743 -33.965476 0.000000
-3.345763 -28.363165 0.000000
3.357471 -28.451288 0.000000
-6.626040 -22.845841 0.000000
-9.968000 -17.314950 0.000000
-23.183870 -7.014796 0.000000
-17.811536 -10.335106 0.000000
-12.837506 -12.596012 0.000000
-28.607565 3.088562 0.000000
-23.265505 -0.468771 0.000000
-39.038883 16.746457 0.000000
-28.721025 9.926297 0.000000
-33.761454 13.318355 0.000000
-44.521695 26.716961 0.000000
-38.467759 23.892570 0.000000
-44.632350 33.085604 0.000000
-50.000000 36.666031 0.000000
-50.000000 43.332999 0.000000
39.922385 -45.069598 0.000000
45.474708 -45.660463 0.000000
50.000000 -50.000000 0.000000
36.626794 -39.981959 0.000000
30.012371 -39.458608 0.000000
19.904237 -34.092815 0.000000
26.585055 -34.319485 0.000000
9.988774 -28.513318 0.000000
16.610903 -28.660045 0.000000
0.051624 -22.960456 0.000000
6.812267 -23.157410 0.000000
-3.400110 -17.297190 0.000000
-6.845578 -10.981991 0.000000
-17.877117 -3.824058 0.000000
-12.552912 -7.036031 0.000000
-23.309977 6.072337 0.000000
-18.036796 2.449981 0.000000
-23.122586 12.095938 0.000000
-33.572129 19.788965 0.000000
-27.941446 16.885729 0.000000
-33.292902 24.722767 0.000000
-39.473601 30.052862 0.000000
-35.160374 28.137547 0.000000
-39.816018 35.101446 0.000000
-43.991699 39.982256 0.000000
-45.431024 45.685190 0.000000
-50.000000 50.000000 0.000000
44.117261 -39.899015 0.000000
50.000000 -43.332707 0.000000
39.639443 -35.047403 0.000000
33.462904 -33.424534 0.000000
22.984927 -28.817959 0.000000
28.730999 -29.247783 0.000000
13.460853 -23.121800 0.000000
20.054908 -23.439063 0.000000
3.381273 -17.588228 0.000000
10.126012 -17.841094 0.000000
0.151071 -11.941292 0.000000
-2.142789 -6.227806 0.000000
-7.325996 -3.658524 0.000000
-12.572023 -0.804892 0.000000
-18.166067 8.573512 0.000000
-12.957045 5.197113 0.000000
-18.638730 13.751909 0.000000
-21.504351 17.494858 0.000000
-28.940789 23.158643 0.000000
-24.346282 21.554632 0.000000
-30.323579 28.634891 0.000000
-34.253462 33.375563 0.000000
-36.955932 39.578083 0.000000
-39.838672 45.102773 0.000000
-43.332865 50.000000 0.000000
44.585252 -32.972059 0.000000
50.000000 -36.665600 0.000000
39.129314 -29.581829 0.000000
33.500614 -26.367642 0.000000
27.182914 -23.322086 0.000000
23.066291 -18.647786 0.000000
16.990426 -16.980447 0.000000
6.708715 -12.209308 0.000000
12.359216 -12.734045 0.000000
-3.378453 -1.490756 0.000000
3.888976 -6.942063 0.000000
1.021643 -2.119798 0.000000
-6.960852 2.308190 0.000000
-8.376538 7.776617 0.000000
-12.844686 11.931076 0.000000
-15.692097 17.699960 0.000000
-19.287258 22.982456 0.000000
-24.170959 27.354785 0.000000
-27.286314 33.626029 0.000000
-30.406645 39.161208 0.000000
-33.447788 44.738866 0.000000
-36.665756 50.000000 0.000000
44.547732 -26.499878 0.000000
50.000000 -29.998519 0.000000
39.040029 -23.179246 0.000000
33.449726 -19.899946 0.000000
28.039985 -16.574031 0.000000
22.682314 -13.124001 0.000000
17.176228 -9.906554 0.000000
10.889011 -6.625382 0.000000
-1.354221 2.310840 0.000000
6.189944 -1.729506 0.000000
2.900862 1.598012 0.000000
-3.512884 7.119706 0.000000
-6.313450 12.441261 0.000000
-9.629566 17.705126 0.000000
-13.167195 23.113133 0.000000
-17.316636 28.185238 0.000000
-20.570705 33.474418 0.000000
-23.665901 39.064013 0.000000
-26.830890 44.585379 0.000000
-29.998808 50.000000 0.000000
44.528702 -19.930617 0.000000
50.000000 -23.331652 0.000000
39.036318 -16.594073 0.000000
33.576200 -13.281192 0.000000
28.150277 -9.964911 0.000000
22.725572 -6.604526 0.000000
17.264314 -3.336702 0.000000
11.948202 0.199881 0.000000
1.921711 6.260500 0.000000
6.960299 3.797094 0.000000
-0.217389 11.912543 0.000000
-3.262552 17.530436 0.000000
-6.700300 22.977731 0.000000
-10.567659 28.267544 0.000000
-13.723955 33.661412 0.000000
-16.945637 39.080369 0.000000
-20.140545 44.548457 0.000000
-23.332017 50.000000 0.000000
44.536279 -13.303733 0.000000
50.000000 -16.665100 0.000000
39.079909 -9.966691 0.000000
33.646724 -6.641067 0.000000
28.236159 -3.307580 0.000000
22.847191 0.017996 0.000000
17.535293 3.355341 0.000000
12.205068 6.593795 0.000000
6.704838 10.805396 0.000000
3.301884 17.196507 0.000000
-0.081111 22.852187 0.000000
-3.518537 28.312767 0.000000
-6.831313 33.774443 0.000000
-10.137359 39.170574 0.000000
-13.435705 44.563565 0.000000
-16.665476 50.000000 0.000000
44.554331 -6.654760 0.000000
50.000000 -9.998897 0.000000
39.123368 -3.321348 0.000000
33.713395 0.008765 0.000000
28.333209 3.344234 0.000000
23.001219 6.693740 0.000000
17.832969 10.021998 0.000000
12.656047 12.231716 0.000000
9.789015 17.234178 0.000000
6.478279 22.722356 0.000000
3.188907 28.269727 0.000000
-0.115873 33.734773 0.000000
-3.425147 39.168621 0.000000
-6.725407 44.581834 0.000000
-9.999163 50.000000 0.000000
44.575650 0.001877 0.000000
50.000000 -3.332964 0.000000
39.166865 3.331867 0.000000
33.779313 6.655561 0.000000
28.424112 9.994946 0.000000
23.046443 13.416402 0.000000
16.948947 17.022773 0.000000
12.901645 22.669673 0.000000
9.814934 28.232062 0.000000
6.604281 33.718737 0.000000
3.286589 39.164428 0.000000
-0.029846 44.584584 0.000000
-3.333038 50.000000 0.000000
44.586734 6.665508 0.000000
50.000000 3.332937 0.000000
39.198084 9.981924 0.000000
33.843419 13.277021 0.000000
28.541966 16.584701 0.000000
23.386956 20.084326 0.000000
18.531814 23.112444 0.000000
16.393154 28.298650 0.000000
13.328973 33.754759 0.000000
9.986604 39.181955 0.000000
6.666028 44.584353 0.000000
3.333016 50.000000 0.000000
44.608903 13.317936 0.000000
50.000000 9.999012 0.000000
39.251357 16.612439 0.000000
33.931890 19.862861 0.000000
28.612321 22.925988 0.000000
23.279643 27.207560 0.000000
19.901341 33.303045 0.000000
16.573842 39.040928 0.000000
13.268396 44.526749 0.000000
9.999098 50.000000 0.000000
44.632076 19.972994 0.000000
50.000000 16.665350 0.000000
39.298495 23.262137 0.000000
34.043807 26.514728 0.000000
28.965784 28.539452 0.000000
26.202402 33.410119 0.000000
23.066753 38.968819 0.000000
19.888629 44.507055 0.000000
16.665347 50.000000 0.000000
44.639814 26.642932 0.000000
50.000000 23.331937 0.000000
39.293378 29.966711 0.000000
33.212410 33.371279 0.000000
29.412158 39.045848 0.000000
26.422428 44.505969 0.000000
23.331887 50.000000 0.000000
44.775002 33.291808 0.000000
50.000000 29.998768 0.000000
39.738204 36.596316 0.000000
34.831082 39.525634 0.000000
32.833859 44.514301 0.000000
29.998699 50.000000 0.000000
44.978266 39.877873 0.000000
50.000000 36.665785 0.000000
39.734912 43.969044 0.000000
36.665717 50.000000 0.000000
45.621319 45.409822 0.000000
50.000000 43.332870 0.000000
43.332765 50.000000 0.000000
50.000000 50.000000 0.000000
CELLS 578 2312
3 1 0 2
3 0 3 2
3 4 1 6
3 6 1 2
3 3 5 7
3 3 7 2
3 6 2 7
3 9 4 10
3 10 4 6
3 5 8 11
3 7 5 11
3 10 6 12
3 12 6 7
3 7 11 13
3 7 13 12
3 8 14 15
3 11 8 15
3 16 9 17
3 17 9 10
3 17 10 18
3 18 10 12
3 11 15 19
3 13 11 19
3 18 12 20
3 13 19 20
3 20 12 13
3 14 22 24
3 15 14 24
3 15 24 25
3 19 15 25
3 21 16 26
3 26 16 17
3 26 17 27
3 27 17 18
3 27 18 28
3 28 18 20
3 19 25 29
3 19 29 20
3 28 20 30
3 30 20 29
3 31 21 32
3 32 21 26
3 22 23 36
3 24 22 36
3 23 34 37
3 36 23 37
3 24 36 38
3 25 24 38
3 25 38 39
3 29 25 39
3 32 26 40
3 40 26 27
3 40 27 41
3 41 27 28
3 41 28 42
3 42 28 30
3 29 39 43
3 29 43 30
3 42 30 43
3 33 31 44
3 44 31 32
3 44 32 45
3 45 32 40
3 46 33 47
3 47 33 44
3 34 35 50
3 37 34 50
3 35 48 51
3 50 35 51
3 36 37 52
3 38 36 52
3 37 50 53
3 52 37 53
3 38 52 54
3 39 38 54
3 39 54 55
3 43 39 55
3 45 40 56
3 56 40 41
3 56 41 57
3 57 41 42
3 57 42 58
3 58 42 43
3 43 55 59
3 43 59 58
3 47 44 60
3 60 44 45
3 60 45 61
3 61 45 56
3 62 46 63
3 63 46 47
3 63 47 64
3 64 47 60
3 48 49 68
3 51 48 68
3 49 66 69
3 68 49 69
3 50 51 70
3 53 50 70
3 51 68 71
3 70 51 71
3 52 53 72
3 54 52 72
3 53 70 73
3 72 53 73
3 54 72 74
3 55 54 74
3 55 74 75
3 59 55 75
3 61 56 76
3 76 56 57
3 76 57 77
3 77 57 58
3 77 58 78
3 59 75 78
3 78 58 59
3 64 60 79
3 79 60 61
3 79 61 80
3 80 61 76
3 65 62 81
3 81 62 63
3 81 63 82
3 82 63 64
3 82 64 83
3 83 64 79
3 84 65 85
3 85 65 81
3 66 67 89
3 69 66 89
3 67 87 90
3 89 67 90
3 68 69 91
3 71 68 91
3 69 89 92
3 91 69 92
3 70 71 93
3 73 70 93
3 71 91 94
3 93 71 94
3 72 73 95
3 74 72 95
3 73 93 96
3 95 73 96
3 74 95 97
3 75 74 97
3 75 97 98
3 78 75 98
3 80 76 99
3 99 76 77
3 99 77 100
3 100 77 78
3 100 78 101
3 98 101 78
3 83 79 102
3 102 79 80
3 102 80 103
3 103 80 99
3 85 81 104
3 104 81 82
3 105 83 102
3 104 82 106
3 106 82 83
3 106 83 105
3 86 84 107
3 107 84 85
3 107 85 108
3 108 85 104
3 109 86 107
3 110 86 109
3 87 88 112
3 90 87 112
3 112 88 113
3 88 114 113
3 90 112 115
3 89 90 116
3 92 89 116
3 116 90 115
3 91 92 117
3 94 91 117
3 92 116 118
3 117 92 118
3 93 94 119
3 96 93 119
3 94 117 120
3 119 94 120
3 95 96 121
3 97 95 121
3 96 119 122
3 121 96 122
3 97 121 123
3 98 97 123
3 98 123 124
3 98 124 101
3 103 99 125
3 125 99 100
3 125 100 126
3 126 100 101
3 126 101 124
3 105 102 127
3 127 102 103
3 127 103 128
3 128 103 125
3 129 105 127
3 108 104 130
3 130 104 106
3 130 106 131
3 131 106 105
3 131 105 129
3 108 130 132
3 109 107 133
3 133 107 108
3 133 108 134
3 108 132 134
3 135 109 133
3 111 110 136
3 136 110 109
3 136 109 135
3 137 111 136
3 138 111 137
3 112 113 139
3 115 112 139
3 114 140 113
3 140 139 113
3 139 141 115
3 116 115 142
3 118 116 142
3 142 115 141
3 117 118 143
3 120 117 143
3 118 142 144
3 143 118 144
3 119 120 145
3 122 119 145
3 120 143 146
3 145 120 146
3 121 122 147
3 123 121 147
3 122 145 148
3 147 122 148
3 123 147 149
3 124 123 149
3 124 149 150
3 151 126 124
3 124 150 151
3 128 125 152
3 152 125 126
3 152 126 151
3 129 127 153
3 153 127 128
3 128 152 154
3 153 128 154
3 155 129 153
3 131 129 156
3 156 129 155
3 132 130 157
3 130 131 157
3 157 131 158
3 131 156 158
3 132 157 159
3 132 159 134
3 135 133 160
3 160 133 134
3 160 134 159
3 136 135 161
3 135 160 161
3 162 137 136
3 161 162 136
3 163 138 137
3 162 163 137
3 139 164 141
3 140 165 139
3 139 165 164
3 141 164 166
3 141 166 142
3 166 167 142
3 144 142 167
3 167 168 144
3 143 144 168
3 146 143 168
3 168 169 146
3 145 146 170
3 148 145 170
3 170 146 169
3 147 148 171
3 149 147 171
3 148 170 172
3 171 148 172
3 173 151 150
3 149 171 174
3 150 149 174
3 150 174 175
3 150 175 173
3 154 152 176
3 152 151 176
3 176 151 173
3 154 176 177
3 155 153 178
3 177 178 154
3 154 178 153
3 156 155 179
3 155 178 179
3 180 158 156
3 179 180 156
3 181 159 157
3 180 181 158
3 181 157 158
3 182 160 159
3 181 182 159
3 183 161 160
3 182 183 160
3 184 162 161
3 184 161 183
3 185 163 162
3 184 185 162
3 164 186 166
3 165 187 164
3 164 187 186
3 166 186 188
3 166 188 167
3 167 188 189
3 167 189 168
3 168 189 190
3 168 190 169
3 169 190 191
3 169 191 170
3 192 172 170
3 170 191 192
3 192 193 172
3 171 172 193
3 174 171 193
3 194 173 175
3 176 173 194
3 175 174 195
3 193 195 174
3 195 196 175
3 175 196 194
3 197 177 176
3 194 197 176
3 198 178 177
3 197 198 177
3 199 179 178
3 198 199 178
3 200 180 179
3 199 200 179
3 201 181 180
3 200 201 180
3 202 182 181
3 201 202 181
3 203 183 182
3 202 203 182
3 204 184 183
3 203 204 183
3 205 185 184
3 204 205 184
3 186 206 188
3 187 207 186
3 186 207 206
3 188 206 208
3 188 208 189
3 189 208 209
3 189 209 190
3 190 209 210
3 190 210 191
3 191 210 211
3 191 211 192
3 192 211 212
3 192 212 193
3 193 212 213
3 193 213 195
3 214 197 194
3 214 194 196
3 195 213 215
3 195 215 196
3 196 215 214
3 216 198 197
3 214 216 197
3 217 199 198
3 216 217 198
3 218 200 199
3 217 218 199
3 219 201 200
3 218 219 200
3 220 202 201
3 219 220 201
3 221 203 202
3 220 221 202
3 222 204 203
3 221 222 203
3 223 205 204
3 222 223 204
3 206 224 208
3 207 225 206
3 206 225 224
3 208 224 226
3 208 226 209
3 209 226 227
3 209 227 210
3 210 227 228
3 210 228 211
3 211 228 229
3 211 229 212
3 212 229 230
3 212 230 213
3 213 230 231
3 213 231 215
3 232 216 214
3 215 231 232
3 232 214 215
3 233 217 216
3 232 233 216
3 234 218 217
3 233 234 217
3 235 219 218
3 234 235 218
3 236 220 219
3 235 236 219
3 237 221 220
3 236 237 220
3 238 222 221
3 237 238 221
3 239 223 222
3 238 239 222
3 224 240 226
3 225 241 224
3 224 241 240
3 226 240 242
3 226 242 227
3 227 242 243
3 227 243 228
3 228 243 244
3 228 244 229
3 244 245 229
3 229 245 230
3 230 245 246
3 230 246 231
3 231 246 247
3 231 247 232
3 248 233 232
3 248 232 247
3 249 234 233
3 248 249 233
3 250 235 234
3 249 250 234
3 251 236 235
3 250 251 235
3 252 237 236
3 251 252 236
3 253 238 237
3 252 253 237
3 254 239 238
3 253 254 238
3 240 255 242
3 241 256 240
3 240 256 255
3 242 255 257
3 242 257 243
3 243 257 258
3 243 258 244
3 244 258 259
3 244 259 245
3 245 259 260
3 245 260 246
3 246 260 261
3 246 261 247
3 248 247 261
3 262 249 248
3 261 262 248
3 263 250 249
3 262 263 249
3 264 251 250
3 263 264 250
3 265 252 251
3 264 265 251
3 266 253 252
3 265 266 252
3 267 254 253
3 266 267 253
3 255 268 257
3 256 269 255
3 255 269 268
3 257 268 270
3 257 270 258
3 258 270 271
3 258 271 259
3 259 271 272
3 259 272 260
3 260 272 273
3 260 273 261
3 274 262 261
3 261 273 274
3 275 263 262
3 274 275 262
3 276 264 263
3 275 276 263
3 277 265 264
3 276 277 264
3 278 266 265
3 277 278 265
3 279 267 266
3 278 279 266
3 268 280 270
3 269 281 268
3 268 281 280
3 270 280 282
3 270 282 271
3 271 282 283
3 271 283 272
3 283 284 272
3 272 284 273
3 285 275 274
3 273 284 285
3 285 274 273
3 286 276 275
3 285 286 275
3 287 277 276
3 286 287 276
3 288 278 277
3 287 288 277
3 289 279 278
3 288 289 278
3 280 290 282
3 281 291 280
3 280 291 290
3 282 290 292
3 282 292 283
3 283 292 293
3 283 293 284
3 284 293 294
3 284 294 285
3 295 286 285
3 295 285 294
3 296 287 286
3 295 296 286
3 297 288 287
3 296 297 287
3 298 289 288
3 297 298 288
3 290 299 292
3 291 300 290
3 290 300 299
3 292 299 301
3 292 301 293
3 293 301 302
3 293 302 294
3 294 302 295
3 303 296 295
3 303 295 302
3 304 297 296
3 303 304 296
3 305 298 297
3 304 305 297
3 299 306 301
3 300 307 299
3 299 307 306
3 301 306 308
3 301 308 302
3 309 303 302
3 302 308 309
3 310 304 303
3 309 310 303
3 311 305 304
3 310 311 304
3 306 312 308
3 307 313 306
3 306 313 312
3 314 310 309
3 308 312 314
3 314 309 308
3 315 311 310
3 314 315 310
3 312 316 314
3 313 317 312
3 312 317 316
3 318 315 314
3 318 314 316
3 317 319 316
3 319 318 316
CELL_TYPES 578
5
5
5
5
5
5
5
5
5
5
5
5
5
5
5
5
5
5
5
5
5
5
5
5
5
5
5
5
5
5
5
5
5
5
5
5
5
5
5
5
5
5
5
5
5
5
5
5
5
5
5
5
5
5
5
5
5
5
5
5
5
5
5
5
5
5
5
5
5
5
5
5
5
5
5
5
5
5
5
5
5
5
5
5
5
5
5
5
5
5
5
5
5
5
5
5
5
5
5
5
5
5
5
5
5
5
5
5
5
5
5
5
5
5
5
5
5
5
5
5
5
5
5
5
5
5
5
5
5
5
5
5
5
5
5
5
5
5
5
5
5
5
5
5
5
5
5
5
5
5
5
5
5
5
5
5
5
5
5
5
5
5
5
5
5
5
5
5
5
5
5
5
5
5
5
5
5
5
5
5
5
5
5
5
5
5
5
5
5
5
5
5
5
5
5
5
5
5
5
5
5
5
5
5
5
5
5
5
5
5
5
5
5
5
5
5
5
5
5
5
5
5
5
5
5
5
5
5
5
5
5
5
5
5
5
5
5
5
5
5
5
5
5
5
5
5
5
5
5
5
5
5
5
5
5
5
5
5
5
5
5
5
5
5
5
5
5
5
5
5
5
5
5
5
5
5
5
5
5
5
5
5
5
5
5
5
5
5
5
5
5
5
5
5
5
5
5
5
5
5
5
5
5
5
5
5
5
5
5
5
5
5
5
5
5
5
5
5
5
5
5
5
5
5
5
5
5
5
5
5
5
5
5
5
5
5
5
5
5
5
5
5
5
5
5
5
5
5
5
5
5
5
5
5
5
5
5
5
5
5
5
5
5
5
5
5
5
5
5
5
5
5
5
5
5
5
5
5
5
5
5
5
5
5
5
5
5
5
5
5
5
5
5
5
5
5
5
5
5
5
5
5
5
5
5
5
5
5
5
5
5
5
5
5
5
5
5
5
5
5
5
5
5
5
5
5
5
5
5
5
5
5
5
5
5
5
5
5
5
5
5
5
5
5
5
5
5
5
5
5
5
5
5
5
5
5
5
5
5
5
5
5
5
5
5
5
5
5
5
5
5
5
5
5
5
5
5
5
5
5
5
5
5
5
5
5
5
5
5
5
5
5
5
5
5
5
5
5
5
5
5
5
5
5
5
5
5
5
5
5
5
5
5
5
5
5
5
5
5
5
5
5
5
5
5
5
5
5
5
5
5
5
5
5
5
5
5
5
5
5
5
5
5
5
5
5
5
5
5
5
5
5
5
5
5
5
5
5
5
5
5
5
5
5
5
5
5
5
5
5
5
5
5
5
5
5
5
5
POINT_DATA 320
SCALARS theta_e float 1
LOOKUP_TABLE default
1.000000
1.000000
1.000000
1.000000
1.000000
1.000000
1.000000
1.000000
1.000000
1.000000
1.000000
1.000000
1.000000
1.000000
1.000000
1.000000
1.000000
1.000000
1.000000
1.000000
1.000000
1.000000
1.000000
1.000000
1.000000
1.000000
1.000000
1.000000
1.000000
1.000000
1.000000
1.000000
1.000000
1.000000
1.000000
1.000000
1.000000
1.000000
1.000000
1.000000
1.000000
1.000000
1.000000
1.000000
1.000000
1.000000
1.000000
1.000000
1.000000
1.000000
1.000000
1.000000
1.000000
1.000000
1.000000
1.000000
1.000000
1.000000
1.000000
1.000000
1.000000
1.000000
1.000000
1.000000
1.000000
1.000000
1.000000
1.000000
1.000000
1.000000
1.000000
1.000000
1.000000
1.000000
1.000000
1.000000
1.000000
1.000000
1.000000
1.000000
1.000000
1.000000
1.000000
1.000000
1.000000
1.000000
1.000000
1.000000
1.000000
1.000000
1.000000
1.000000
1.000000
1.000000
1.000000
1.000000
1.000000
1.000000
1.000000
1.000000
1.000000
1.000000
1.000000
1.000000
1.000000
1.000000
1.000000
1.000000
1.000000
1.000000
1.000000
1.000000
1.000000
1.000000
1.000000
1.000000
1.000000
1.000000
1.000000
1.000000
1.000000
1.000000
1.000000
1.000000
1.000000
1.000000
1.000000
1.000000
1.000000
1.000000
1.000000
1.000000
1.000000
1.000000
1.000000
1.000000
1.000000
1.000000
1.000000
1.000000
1.000000
1.000000
1.000000
1.000000
1.000000
1.000000
1.000000
1.000000
1.000000
1.000000
1.000000
1.000000
1.000000
1.000000
1.000000
1.000000
1.000000
1.000000
1.000000
1.000000
1.000000
1.000000
1.000000
1.000000
1.000000
1.000000
1.000000
1.000000
1.000000
1.000000
1.000000
1.000000
1.000000
1.000000
1.000000
1.000000
1.000000
1.000000
1.000000
1.000000
1.000000
1.000000
1.000000
1.000000
1.000000
1.000000
1.000000
1.000000
1.000000
1.000000
1.000000
1.000000
1.000000
1.000000
1.000000
1.000000
1.000000
1.000000
1.000000
1.000000
1.000000
1.000000
1.000000
1.000000
1.000000
1.000000
1.000000
1.000000
1.000000
1.000000
1.000000
1.000000
1.000000
1.000000
1.000000
1.000000
1.000000
1.000000
1.000000
1.000000
1.000000
1.000000
1.000000
1.000000
1.000000
1.000000
1.000000
1.000000
1.000000
1.000000
1.000000
1.000000
1.000000
1.000000
1.000000
1.000000
1.000000
1.000000
1.000000
1.000000
1.000000
1.000000
1.000000
1.000000
1.000000
1.000000
1.000000
1.000000
1.000000
1.000000
1.000000
1.000000
1.000000
1.000000
1.000000
1.000000
1.000000
1.000000
1.000000
1.000000
1.000000
1.000000
1.000000
1.000000
1.000000
1.000000
1.000000
1.000000
1.000000
1.000000
1.000000
1.000000
1.000000
1.000000
1.000000
1.000000
1.000000
1.000000
1.000000
1.000000
1.000000
1.000000
1.000000
1.000000
1.000000
1.000000
1.000000
1.000000
1.000000
1.000000
1.000000
1.000000
1.000000
1.000000
1.000000
1.000000
1.000000
1.000000
1.000000
1.000000
1.000000
1.000000
1.000000
1.000000
1.000000
1.000000
1.000000
1.000000
1.000000
1.000000
1.000000
1.000000
1.000000
1.000000
1.000000
1.000000
1.000000
1.000000
1.000000
1.000000
VECTORS fa_u float
0.000000 0.000000 0.000000
0.000000 0.000000 0.000000
0.000000 0.000000 0.000000
0.000000 0.000000 0.000000
0.000000 0.000000 0.000000
0.000000 0.000000 0.000000
0.000000 0.000000 0.000000
0.000000 0.000000 0.000000
0.000000 0.000000 0.000000
0.000000 0.000000 0.000000
0.000000 0.000000 0.000000
0.000000 0.000000 0.000000
0.000000 0.000000 0.000000
0.000000 0.000000 0.000000
0.000000 0.000000 0.000000
0.000000 0.000000 0.000000
0.000000 0.000000 0.000000
0.000000 0.000000 0.000000
0.000000 0.000000 0.000000
0.000000 0.000000 0.000000
0.000000 0.000000 0.000000
0.000000 0.000000 0.000000
0.000000 0.000000 0.000000
0.000000 0.000000 0.000000
0.000000 0.000000 0.000000
0.000000 0.000000 0.000000
0.000000 0.000000 0.000000
0.000000 0.000000 0.000000
0.000000 0.000000 0.000000
0.000000 0.000000 0.000000
0.000000 0.000000 0.000000
0.000000 0.000000 0.000000
0.000000 0.000000 0.000000
0.000000 0.000000 0.000000
0.000000 0.000000 0.000000
0.000000 0.000000 0.000000
0.000000 0.000000 0.000000
0.000000 0.000000 0.000000
0.000000 0.000000 0.000000
0.000000 0.000000 0.000000
0.000000 0.000000 0.000000
0.000000 0.000000 0.000000
0.000000 0.000000 0.000000
0.000000 0.000000 0.000000
0.000000 0.000000 0.000000
0.000000 0.000000 0.000000
0.000000 0.000000 0.000000
0.000000 0.000000 0.000000
0.000000 0.000000 0.000000
0.000000 0.000000 0.000000
0.000000 0.000000 0.000000
0.000000 0.000000 0.000000
0.000000 0.000000 0.000000
0.000000 0.000000 0.000000
0.000000 0.000000 0.000000
0.000000 0.000000 0.000000
0.000000 0.000000 0.000000
0.000000 0.000000 0.000000
0.000000 0.000000 0.000000
0.000000 0.000000 0.000000
0.000000 0.000000 0.000000
0.000000 0.000000 0.000000
0.000000 0.000000 0.000000
0.000000 0.000000 0.000000
0.000000 0.000000 0.000000
0.000000 0.000000 0.000000
0.000000 0.000000 0.000000
0.000000 0.000000 0.000000
0.000000 0.000000 0.000000
0.000000 0.000000 0.000000
0.000000 0.000000 0.000000
0.000000 0.000000 0.000000
0.000000 0.000000 0.000000
0.000000 0.000000 0.000000
0.000000 0.000000 0.000000
0.000000 0.000000 0.000000
0.000000 0.000000 0.000000
0.000000 0.000000 0.000000
0.000000 0.000000 0.000000
0.000000 0.000000 0.000000
0.000000 0.000000 0.000000
0.000000 0.000000 0.000000
0.000000 0.000000 0.000000
0.000000 0.000000 0.000000
0.000000 0.000000 0.000000
0.000000 0.000000 0.000000
0.000000 0.000000 0.000000
0.000000 0.000000 0.000000
0.000000 0.000000 0.000000
0.000000 0.000000 0.000000
0.000000 0.000000 0.000000
0.000000 0.000000 0.000000
0.000000 0.000000 0.000000
0.000000 0.000000 0.000000
0.000000 0.000000 0.000000
0.000000 0.000000 0.000000
0.000000 0.000000 0.000000
0.000000 0.000000 0.000000
0.000000 0.000000 0.000000
0.000000 0.000000 0.000000
0.000000 0.000000 0.000000
0.000000 0.000000 0.000000
0.000000 0.000000 0.000000
0.000000 0.000000 0.000000
0.000000 0.000000 0.000000
0.000000 0.000000 0.000000
0.000000 0.000000 0.000000
0.000000 0.000000 0.000000
0.000000 0.000000 0.000000
0.000000 0.000000 0.000000
0.000000 0.000000 0.000000
0.000000 0.000000 0.000000
0.000000 0.000000 0.000000
0.000000 0.000000 0.000000
0.000000 0.000000 0.000000
0.000000 0.000000 0.000000
0.000000 0.000000 0.000000
0.000000 0.000000 0.000000
0.000000 0.000000 0.000000
0.000000 0.000000 0.000000
0.000000 0.000000 0.000000
0.000000 0.000000 0.000000
0.000000 0.000000 0.000000
0.000000 0.000000 0.000000
0.000000 0.000000 0.000000
0.000000 0.000000 0.000000
0.000000 0.000000 0.000000
0.000000 0.000000 0.000000
0.000000 0.000000 0.000000
0.000000 0.000000 0.000000
0.000000 0.000000 0.000000
0.000000 0.000000 0.000000
0.000000 0.000000 0.000000
0.000000 0.000000 0.000000
0.000000 0.000000 0.000000
0.000000 0.000000 0.000000
0.000000 0.000000 0.000000
0.000000 0.000000 0.000000
0.000000 0.000000 0.000000
0.000000 0.000000 0.000000
0.000000 0.000000 0.000000
0.000000 0.000000 0.000000
0.000000 0.000000 0.000000
0.000000 0.000000 0.000000
0.000000 0.000000 0.000000
0.000000 0.000000 0.000000
0.000000 0.000000 0.000000
0.000000 0.000000 0.000000
0.000000 0.000000 0.000000
0.000000 0.000000 0.000000
0.000000 0.000000 0.000000
0.000000 0.000000 0.000000
0.000000 0.000000 0.000000
0.000000 0.000000 0.000000
0.000000 0.000000 0.000000
0.000000 0.000000 0.000000
0.000000 0.000000 0.000000
0.000000 0.000000 0.000000
0.000000 0.000000 0.000000
0.000000 0.000000 0.000000
0.000000 0.000000 0.000000
0.000000 0.000000 0.000000
0.000000 0.000000 0.000000
0.000000 0.000000 0.000000
0.000000 0.000000 0.000000
0.000000 0.000000 0.000000
0.000000 0.000000 0.000000
0.000000 0.000000 0.000000
0.000000 0.000000 0.000000
0.000000 0.000000 0.000000
0.000000 0.000000 0.000000
0.000000 0.000000 0.000000
0.000000 0.000000 0.000000
0.000000 0.000000 0.000000
0.000000 0.000000 0.000000
0.000000 0.000000 0.000000
0.000000 0.000000 0.000000
0.000000 0.000000 0.000000
0.000000 0.000000 0.000000
0.000000 0.000000 0.000000
0.000000 0.000000 0.000000
0.000000 0.000000 0.000000
0.000000 0.000000 0.000000
0.000000 0.000000 0.000000
0.000000 0.000000 0.000000
0.000000 0.000000 0.000000
0.000000 0.000000 0.000000
0.000000 0.000000 0.000000
0.000000 0.000000 0.000000
0.000000 0.000000 0.000000
0.000000 0.000000 0.000000
0.000000 0.000000 0.000000
0.000000 0.000000 0.000000
0.000000 0.000000 0.000000
0.000000 0.000000 0.000000
0.000000 0.000000 0.000000
0.000000 0.000000 0.000000
0.000000 0.000000 0.000000
0.000000 0.000000 0.000000
0.000000 0.000000 0.000000
0.000000 0.000000 0.000000
0.000000 0.000000 0.000000
0.000000 0.000000 0.000000
0.000000 0.000000 0.000000
0.000000 0.000000 0.000000
0.000000 0.000000 0.000000
0.000000 0.000000 0.000000
0.000000 0.000000 0.000000
0.000000 0.000000 0.000000
0.000000 0.000000 0.000000
0.000000 0.000000 0.000000
0.000000 0.000000 0.000000
0.000000 0.000000 0.000000
0.000000 0.000000 0.000000
0.000000 0.000000 0.000000
0.000000 0.000000 0.000000
0.000000 0.000000 0.000000
0.000000 0.000000 0.000000
0.000000 0.000000 0.000000
0.000000 0.000000 0.000000
0.000000 0.000000 0.000000
0.000000 0.000000 0.000000
0.000000 0.000000 0.000000
0.000000 0.000000 0.000000
0.000000 0.000000 0.000000
0.000000 0.000000 0.000000
0.000000 0.000000 0.000000
0.000000 0.000000 0.000000
0.000000 0.000000 0.000000
0.000000 0.000000 0.000000
0.000000 0.000000 0.000000
0.000000 0.000000 0.000000
0.000000 0.000000 0.000000
0.000000 0.000000 0.000000
0.000000 0.000000 0.000000
0.000000 0.000000 0.000000
0.000000 0.000000 0.000000
0.000000 0.000000 0.000000
0.000000 0.000000 0.000000
0.000000 0.000000 0.000000
0.000000 0.000000 0.000000
0.000000 0.000000 0.000000
0.000000 0.000000 0.000000
0.000000 0.000000 0.000000
0.000000 0.000000 0.000000
0.000000 0.000000 0.000000
0.000000 0.000000 0.000000
0.000000 0.000000 0.000000
0.000000 0.000000 0.000000
0.000000 0.000000 0.000000
0.000000 0.000000 0.000000
0.000000 0.000000 0.000000
0.000000 0.000000 0.000000
0.000000 0.000000 0.000000
0.000000 0.000000 0.000000
0.000000 0.000000 0.000000
0.000000 0.000000 0.000000
0.000000 0.000000 0.000000
0.000000 0.000000 0.000000
0.000000 0.000000 0.000000
0.000000 0.000000 0.000000
0.000000 0.000000 0.000000
0.000000 0.000000 0.000000
0.000000 0.000000 0.000000
0.000000 0.000000 0.000000
0.000000 0.000000 0.000000
0.000000 0.000000 0.000000
0.000000 0.000000 0.000000
0.000000 0.000000 0.000000
0.000000 0.000000 0.000000
0.000000 0.000000 0.000000
0.000000 0.000000 0.000000
0.000000 0.000000 0.000000
0.000000 0.000000 0.000000
0.000000 0.000000 0.000000
0.000000 0.000000 0.000000
0.000000 0.000000 0.000000
0.000000 0.000000 0.000000
0.000000 0.000000 0.000000
0.000000 0.000000 0.000000
0.000000 0.000000 0.000000
0.000000 0.000000 0.000000
0.000000 0.000000 0.000000
0.000000 0.000000 0.000000
0.000000 0.000000 0.000000
0.000000 0.000000 0.000000
0.000000 0.000000 0.000000
0.000000 0.000000 0.000000
0.000000 0.000000 0.000000
0.000000 0.000000 0.000000
0.000000 0.000000 0.000000
0.000000 0.000000 0.000000
0.000000 0.000000 0.000000
0.000000 0.000000 0.000000
0.000000 0.000000 0.000000
0.000000 0.000000 0.000000
0.000000 0.000000 -50.000000
-50.000000 0.000000 -50.000000
-43.332948 0.000000 -45.688400
-45.491165 0.000000 -43.332873
-50.000000 0.000000 -50.000000
-36.665869 0.000000 -36.665855
-50.000000 0.000000 -45.081135
-39.969806 0.000000 -40.027210
-44.152295 0.000000 -29.998804
-50.000000 0.000000 -50.000000
-29.998826 0.000000 -44.847104
-33.448941 0.000000 -33.144930
-44.675706 0.000000 -39.869146
-36.787015 0.000000 -35.128679
-39.801333 0.000000 -23.331911
-50.000000 0.000000 -26.539169
-44.666755 0.000000 -50.000000
-23.331958 0.000000 -44.665283
-26.803955 0.000000 -39.364258
-30.225711 0.000000 -29.606297
-39.359389 0.000000 -33.368264
-33.655480 0.000000 -50.000000
-16.665342 0.000000 -16.665320
-50.000000 0.000000 -9.999040
