# vtk DataFile Version 2.0
CellBP Time: 5.2
ASCII
DATASET UNSTRUCTURED_GRID
POINTS 320 double
-50.000000 -50.000000 0.000000
-50.000000 -43.332953 0.000000
-45.688399 -45.491161 0.000000
-43.332884 -50.000000 0.000000
-50.000000 -36.665878 0.000000
-36.665875 -50.000000 0.000000
-45.081134 -39.969801 0.000000
-40.027209 -44.152291 0.000000
-29.998832 -50.000000 0.000000
-50.000000 -29.998837 0.000000
-44.847104 -33.448934 0.000000
-33.144931 -44.675702 0.000000
-39.869146 -36.787009 0.000000
-35.128679 -39.801327 0.000000
-23.331943 -50.000000 0.000000
-26.539171 -44.666754 0.000000
-50.000000 -23.331967 0.000000
-44.665284 -26.803945 0.000000
-39.364260 -30.225702 0.000000
-29.606299 -39.359385 0.000000
-33.368265 -33.655473 0.000000
-50.000000 -16.665347 0.000000
-16.665349 -50.000000 0.000000
-9.999060 -50.000000 0.000000
-19.964906 -44.588770 0.000000
-23.215906 -39.114705 0.000000
-44.691887 -20.096932 0.000000
-39.367867 -23.528166 0.000000
-34.106159 -26.937039 0.000000
-26.384442 -33.577291 0.000000
-29.156231 -28.926656 0.000000
-50.000000 -9.998947 0.000000
-44.666362 -13.410199 0.000000
-50.000000 -3.332830 0.000000
-3.333021 -50.000000 0.000000
3.332953 -50.000000 0.000000
-13.343665 -44.599027 0.000000
-6.684716 -44.610696 0.000000
-16.693715 -39.153290 0.000000
-20.106988 -33.342688 0.000000
-39.338183 -16.804766 0.000000
-34.018739 -20.274676 0.000000
-28.780982 -23.449095 0.000000
-23.510525 -27.350373 0.000000
-44.635456 -6.705560 0.000000
-39.293106 -10.101824 0.000000
-50.000000 3.333136 0.000000
-44.626756 -0.015597 0.000000
9.999048 -50.000000 0.000000
16.665381 -50.000000 0.000000
-0.016086 -44.618769 0.000000
6.651671 -44.635455 0.000000
-10.044710 -39.222607 0.000000
-3.368205 -39.220394 0.000000
-13.484257 -33.798723 0.000000
-16.709458 -28.271518 0.000000
-33.948080 -13.514025 0.000000
-28.601935 -16.892381 0.000000
-23.291757 -20.313085 0.000000
-18.660457 -23.283195 0.000000
-39.267541 -3.392808 0.000000
-33.904587 -6.796770 0.000000
-50.000000 9.999151 0.000000
-44.606766 6.673452 0.000000
-39.260936 3.325688 0.000000
-50.000000 16.665421 0.000000
23.331960 -50.000000 0.000000
29.998788 -50.000000 0.000000
13.317503 -44.662975 0.000000
19.989632 -44.700115 0.000000
3.307700 -39.245161 0.000000
9.971843 -39.290331 0.000000
-6.735334 -33.791391 0.000000
-0.032238 -33.829611 0.000000
-10.095923 -28.293255 0.000000
-13.122741 -22.897776 0.000000
-28.532420 -10.214855 0.000000
-23.067001 -13.663471 0.000000
-16.977747 -17.210148 0.000000
-33.884693 -0.065446 0.000000
-28.563185 -3.579195 0.000000
-44.564125 13.380518 0.000000
-39.190091 10.015079 0.000000
-33.905768 6.616047 0.000000
-50.000000 23.331915 0.000000
-44.557617 20.138227 0.000000
-50.000000 29.998856 0.000000
36.665804 -50.000000 0.000000
43.332884 -50.000000 0.000000
26.663248 -44.745309 0.000000
33.315299 -44.875970 0.000000
16.631696 -39.357699 0.000000
23.328280 -39.437098 0.000000
6.642893 -33.879550 0.000000
13.290742 -33.965474 0.000000
-3.345763 -28.363164 0.000000
3.357463 -28.451294 0.000000
-6.626027 -22.845850 0.000000
-9.968097 -17.315029 0.000000
-23.183881 -7.014735 0.000000
-17.811589 -10.335017 0.000000
-12.837667 -12.595870 0.000000
-28.607544 3.088580 0.000000
-23.265472 -0.468731 0.000000
-39.038878 16.746460 0.000000
-28.721008 9.926299 0.000000
-33.761444 13.318359 0.000000
-44.521692 26.716961 0.000000
-38.467754 23.892569 0.000000
-44.632347 33.085603 0.000000
-50.000000 36.666031 0.000000
-50.000000 43.332998 0.000000
39.922382 -45.069595 0.000000
45.474705 -45.660460 0.000000
50.000000 -50.000000 0.000000
36.626791 -39.981956 0.000000
30.012368 -39.458605 0.000000
19.904237 -34.092813 0.000000
26.585053 -34.319482 0.000000
9.988770 -28.513319 0.000000
16.610908 -28.660043 0.000000
0.051645 -22.960440 0.000000
6.812251 -23.157418 0.000000
-3.400040 -17.297190 0.000000
-6.846317 -10.983112 0.000000
-17.877071 -3.823994 0.000000
-12.552973 -7.035889 0.000000
-23.309939 6.072355 0.000000
-18.036728 2.450028 0.000000
-23.122558 12.095920 0.000000
-33.572120 19.788964 0.000000
-27.941431 16.885720 0.000000
-33.292894 24.722764 0.000000
-39.473596 30.052860 0.000000
-35.160367 28.137545 0.000000
-39.816014 35.101444 0.000000
-43.991697 39.982255 0.000000
-45.431023 45.685189 0.000000
-50.000000 50.000000 0.000000
44.117258 -39.899011 0.000000
50.000000 -43.332718 0.000000
39.639440 -35.047399 0.000000
33.462902 -33.424530 0.000000
22.984926 -28.817953 0.000000
28.730998 -29.247779 0.000000
13.460859 -23.121814 0.000000
20.054910 -23.439050 0.000000
3.381376 -17.588149 0.000000
10.126062 -17.841113 0.000000
0.150757 -11.942295 0.000000
-2.143166 -6.228702 0.000000
-7.327372 -3.659635 0.000000
-12.572410 -0.804839 0.000000
-18.165963 8.573473 0.000000
-12.957137 5.196994 0.000000
-18.638739 13.751898 0.000000
-21.504349 17.494855 0.000000
-28.940781 23.158635 0.000000
-24.346273 21.554630 0.000000
-30.323571 28.634886 0.000000
-34.253457 33.375560 0.000000
-36.955930 39.578081 0.000000
-39.838671 45.102772 0.000000
-43.332865 50.000000 0.000000
44.585249 -32.972055 0.000000
50.000000 -36.665618 0.000000
39.129313 -29.581824 0.000000
33.500613 -26.367638 0.000000
27.182911 -23.322082 0.000000
23.066284 -18.647779 0.000000
16.990411 -16.980417 0.000000
6.708884 -12.209603 0.000000
12.359118 -12.733997 0.000000
-3.378503 -1.490931 0.000000
3.890129 -6.943964 0.000000
1.021672 -2.120023 0.000000
-6.961380 2.308579 0.000000
-8.377850 7.777631 0.000000
-12.844739 11.931141 0.000000
-15.692102 17.699967 0.000000
-19.287250 22.982459 0.000000
-24.170954 27.354784 0.000000
-27.286310 33.626028 0.000000
-30.406643 39.161207 0.000000
-33.447787 44.738866 0.000000
-36.665757 50.000000 0.000000
44.547732 -26.499872 0.000000
50.000000 -29.998544 0.000000
39.040030 -23.179242 0.000000
33.449731 -19.899941 0.000000
28.039995 -16.574033 0.000000
22.682363 -13.123995 0.000000
17.176291 -9.906602 0.000000
10.890158 -6.625699 0.000000
-1.353957 2.310729 0.000000
6.190321 -1.729843 0.000000
2.901204 1.598054 0.000000
-3.513545 7.120786 0.000000
-6.313362 12.441327 0.000000
-9.629535 17.705046 0.000000
-13.167177 23.113104 0.000000
-17.316629 28.185229 0.000000
-20.570701 33.474413 0.000000
-23.665900 39.064010 0.000000
-26.830889 44.585378 0.000000
-29.998810 50.000000 0.000000
44.528702 -19.930609 0.000000
50.000000 -23.331679 0.000000
39.036319 -16.594066 0.000000
33.576201 -13.281183 0.000000
28.150279 -9.964891 0.000000
22.725541 -6.604486 0.000000
17.264222 -3.336573 0.000000
11.948625 0.199808 0.000000
1.922143 6.261122 0.000000
6.962069 3.798391 0.000000
-0.217230 11.913176 0.000000
-3.262658 17.530310 0.000000
-6.700305 22.977698 0.000000
-10.567664 28.267526 0.000000
-13.723956 33.661405 0.000000
-16.945638 39.080365 0.000000
-20.140545 44.548455 0.000000
-23.332021 50.000000 0.000000
44.536282 -13.303725 0.000000
50.000000 -16.665125 0.000000
39.079911 -9.966685 0.000000
33.646728 -6.641060 0.000000
28.236154 -3.307578 0.000000
22.847179 0.017997 0.000000
17.535195 3.355302 0.000000
12.205549 6.593979 0.000000
6.705474 10.806647 0.000000
3.301667 17.196435 0.000000
-0.081163 22.852160 0.000000
-3.518556 28.312753 0.000000
-6.831324 33.774434 0.000000
-10.137365 39.170570 0.000000
-13.435708 44.563563 0.000000
-16.665482 50.000000 0.000000
44.554334 -6.654753 0.000000
50.000000 -9.998914 0.000000
39.123370 -3.321341 0.000000
33.713395 0.008769 0.000000
28.333212 3.344232 0.000000
23.001214 6.693701 0.000000
17.833069 10.022034 0.000000
12.656114 12.231703 0.000000
9.789006 17.234323 0.000000
6.478192 22.722350 0.000000
3.188876 28.269724 0.000000
-0.115891 33.734769 0.000000
-3.425158 39.168617 0.000000
-6.725414 44.581832 0.000000
-9.999172 50.000000 0.000000
44.575652 0.001883 0.000000
50.000000 -3.332971 0.000000
39.166865 3.331872 0.000000
33.779313 6.655566 0.000000
28.424108 9.994942 0.000000
23.046479 13.416422 0.000000
16.948935 17.022798 0.000000
12.901628 22.669747 0.000000
9.814895 28.232071 0.000000
6.604259 33.718741 0.000000
3.286573 39.164428 0.000000
-0.029857 44.584584 0.000000
-3.333048 50.000000 0.000000
44.586735 6.665512 0.000000
50.000000 3.332943 0.000000
39.198084 9.981928 0.000000
33.843417 13.277025 0.000000
28.541975 16.584716 0.000000
23.386950 20.084345 0.000000
18.531805 23.112459 0.000000
16.393147 28.298676 0.000000
13.328952 33.754765 0.000000
9.986587 39.181959 0.000000
6.666014 44.584355 0.000000
3.333009 50.000000 0.000000
44.608904 13.317939 0.000000
50.000000 9.999028 0.000000
39.251357 16.612442 0.000000
33.931893 19.862869 0.000000
28.612320 22.926000 0.000000
23.279637 27.207572 0.000000
19.901329 33.303059 0.000000
16.573825 39.040933 0.000000
13.268381 44.526752 0.000000
9.999097 50.000000 0.000000
44.632076 19.972995 0.000000
50.000000 16.665373 0.000000
39.298495 23.262142 0.000000
34.043804 26.514735 0.000000
28.965778 28.539462 0.000000
26.202393 33.410127 0.000000
23.066742 38.968826 0.000000
19.888614 44.507057 0.000000
16.665353 50.000000 0.000000
44.639813 26.642933 0.000000
50.000000 23.331964 0.000000
39.293375 29.966714 0.000000
33.212404 33.371284 0.000000
29.412148 39.045853 0.000000
26.422416 44.505972 0.000000
23.331898 50.000000 0.000000
44.774999 33.291810 0.000000
50.000000 29.998794 0.000000
39.738200 36.596318 0.000000
34.831075 39.525636 0.000000
32.833850 44.514302 0.000000
29.998713 50.000000 0.000000
44.978263 39.877874 0.000000
50.000000 36.665804 0.000000
39.734905 43.969044 0.000000
36.665728 50.000000 0.000000
45.621315 45.409821 0.000000
50.000000 43.332880 0.000000
43.332773 50.000000 0.000000
50.000000 50.000000 0.000000
CELLS 578 2312
3 1 0 2
3 0 3 2
3 4 1 6
3 6 1 2
3 3 5 7
3 3 7 2
3 6 2 7
3 9 4 10
3 10 4 6
3 5 8 11
3 7 5 11
3 10 6 12
3 12 6 7
3 7 11 13
3 7 13 12
3 8 14 15
3 11 8 15
3 16 9 17
3 17 9 10
3 17 10 18
3 18 10 12
3 11 15 19
3 13 11 19
3 18 12 20
3 13 19 20
3 20 12 13
3 14 22 24
3 15 14 24
3 15 24 25
3 19 15 25
3 21 16 26
3 26 16 17
3 26 17 27
3 27 17 18
3 27 18 28
3 28 18 20
3 19 25 29
3 19 29 20
3 28 20 30
3 30 20 29
3 31 21 32
3 32 21 26
3 22 23 36
3 24 22 36
3 23 34 37
3 36 23 37
3 24 36 38
3 25 24 38
3 25 38 39
3 29 25 39
3 32 26 40
3 40 26 27
3 40 27 41
3 41 27 28
3 41 28 42
3 42 28 30
3 29 39 43
3 29 43 30
3 42 30 43
3 33 31 44
3 44 31 32
3 44 32 45
3 45 32 40
3 46 33 47
3 47 33 44
3 34 35 50
3 37 34 50
3 35 48 51
3 50 35 51
3 36 37 52
3 38 36 52
3 37 50 53
3 52 37 53
3 38 52 54
3 39 38 54
3 39 54 55
3 43 39 55
3 45 40 56
3 56 40 41
3 56 41 57
3 57 41 42
3 57 42 58
3 58 42 43
3 43 55 59
3 43 59 58
3 47 44 60
3 60 44 45
3 60 45 61
3 61 45 56
3 62 46 63
3 63 46 47
3 63 47 64
3 64 47 60
3 48 49 68
3 51 48 68
3 49 66 69
3 68 49 69
3 50 51 70
3 53 50 70
3 51 68 71
3 70 51 71
3 52 53 72
3 54 52 72
3 53 70 73
3 72 53 73
3 54 72 74
3 55 54 74
3 55 74 75
3 59 55 75
3 61 56 76
3 76 56 57
3 76 57 77
3 77 57 58
3 77 58 78
3 59 75 78
3 78 58 59
3 64 60 79
3 79 60 61
3 79 61 80
3 80 61 76
3 65 62 81
3 81 62 63
3 81 63 82
3 82 63 64
3 82 64 83
3 83 64 79
3 84 65 85
3 85 65 81
3 66 67 89
3 69 66 89
3 67 87 90
3 89 67 90
3 68 69 91
3 71 68 91
3 69 89 92
3 91 69 92
3 70 71 93
3 73 70 93
3 71 91 94
3 93 71 94
3 72 73 95
3 74 72 95
3 73 93 96
3 95 73 96
3 74 95 97
3 75 74 97
3 75 97 98
3 78 75 98
3 80 76 99
3 99 76 77
3 99 77 100
3 100 77 78
3 100 78 101
3 98 101 78
3 83 79 102
3 102 79 80
3 102 80 103
3 103 80 99
3 85 81 104
3 104 81 82
3 105 83 102
3 104 82 106
3 106 82 83
3 106 83 105
3 86 84 107
3 107 84 85
3 107 85 108
3 108 85 104
3 109 86 107
3 110 86 109
3 87 88 112
3 90 87 112
3 112 88 113
3 88 114 113
3 90 112 115
3 89 90 116
3 92 89 116
3 116 90 115
3 91 92 117
3 94 91 117
3 92 116 118
3 117 92 118
3 93 94 119
3 96 93 119
3 94 117 120
3 119 94 120
3 95 96 121
3 97 95 121
3 96 119 122
3 121 96 122
3 97 121 123
3 98 97 123
3 98 123 124
3 98 124 101
3 103 99 125
3 125 99 100
3 125 100 126
3 126 100 101
3 126 101 124
3 105 102 127
3 127 102 103
3 127 103 128
3 128 103 125
3 129 105 127
3 108 104 130
3 130 104 106
3 130 106 131
3 131 106 105
3 131 105 129
3 108 130 132
3 109 107 133
3 133 107 108
3 133 108 134
3 108 132 134
3 135 109 133
3 111 110 136
3 136 110 109
3 136 109 135
3 137 111 136
3 138 111 137
3 112 113 139
3 115 112 139
3 114 140 113
3 140 139 113
3 139 141 115
3 116 115 142
3 118 116 142
3 142 115 141
3 117 118 143
3 120 117 143
3 118 142 144
3 143 118 144
3 119 120 145
3 122 119 145
3 120 143 146
3 145 120 146
3 121 122 147
3 123 121 147
3 122 145 148
3 147 122 148
3 123 147 149
3 124 123 149
3 124 149 150
3 151 126 124
3 124 150 151
3 128 125 152
3 152 125 126
3 152 126 151
3 129 127 153
3 153 127 128
3 128 152 154
3 153 128 154
3 155 129 153
3 131 129 156
3 156 129 155
3 132 130 157
3 130 131 157
3 157 131 158
3 131 156 158
3 132 157 159
3 132 159 134
3 135 133 160
3 160 133 134
3 160 134 159
3 136 135 161
3 135 160 161
3 162 137 136
3 161 162 136
3 163 138 137
3 162 163 137
3 139 164 141
3 140 165 139
3 139 165 164
3 141 164 166
3 141 166 142
3 166 167 142
3 144 142 167
3 167 168 144
3 143 144 168
3 146 143 168
3 168 169 146
3 145 146 170
3 148 145 170
3 170 146 169
3 147 148 171
3 149 147 171
3 148 170 172
3 171 148 172
3 173 151 150
3 149 171 174
3 150 149 174
3 150 174 175
3 150 175 173
3 154 152 176
3 152 151 176
3 176 151 173
3 154 176 177
3 155 153 178
3 177 178 154
3 154 178 153
3 156 155 179
3 155 178 179
3 180 158 156
3 179 180 156
3 181 159 157
3 180 181 158
3 181 157 158
3 182 160 159
3 181 182 159
3 183 161 160
3 182 183 160
3 184 162 161
3 184 161 183
3 185 163 162
3 184 185 162
3 164 186 166
3 165 187 164
3 164 187 186
3 166 186 188
3 166 188 167
3 167 188 189
3 167 189 168
3 168 189 190
3 168 190 169
3 169 190 191
3 169 191 170
3 192 172 170
3 170 191 192
3 192 193 172
3 171 172 193
3 174 171 193
3 194 173 175
3 176 173 194
3 175 174 195
3 193 195 174
3 195 196 175
3 175 196 194
3 197 177 176
3 194 197 176
3 198 178 177
3 197 198 177
3 199 179 178
3 198 199 178
3 200 180 179
3 199 200 179
3 201 181 180
3 200 201 180
3 202 182 181
3 201 202 181
3 203 183 182
3 202 203 182
3 204 184 183
3 203 204 183
3 205 185 184
3 204 205 184
3 186 206 188
3 187 207 186
3 186 207 206
3 188 206 208
3 188 208 189
3 189 208 209
3 189 209 190
3 190 209 210
3 190 210 191
3 191 210 211
3 191 211 192
3 192 211 212
3 192 212 193
3 193 212 213
3 193 213 195
3 214 197 194
3 214 194 196
3 195 213 215
3 195 215 196
3 196 215 214
3 216 198 197
3 214 216 197
3 217 199 198
3 216 217 198
3 218 200 199
3 217 218 199
3 219 201 200
3 218 219 200
3 220 202 201
3 219 220 201
3 221 203 202
3 220 221 202
3 222 204 203
3 221 222 203
3 223 205 204
3 222 223 204
3 206 224 208
3 207 225 206
3 206 225 224
3 208 224 226
3 208 226 209
3 209 226 227
3 209 227 210
3 210 227 228
3 210 228 211
3 211 228 229
3 211 229 212
3 212 229 230
3 212 230 213
3 213 230 231
3 213 231 215
3 232 216 214
3 215 231 232
3 232 214 215
3 233 217 216
3 232 233 216
3 234 218 217
3 233 234 217
3 235 219 218
3 234 235 218
3 236 220 219
3 235 236 219
3 237 221 220
3 236 237 220
3 238 222 221
3 237 238 221
3 239 223 222
3 238 239 222
3 224 240 226
3 225 241 224
3 224 241 240
3 226 240 242
3 226 242 227
3 227 242 243
3 227 243 228
3 228 243 244
3 228 244 229
3 244 245 229
3 229 245 230
3 230 245 246
3 230 246 231
3 231 246 247
3 231 247 232
3 248 233 232
3 248 232 247
3 249 234 233
3 248 249 233
3 250 235 234
3 249 250 234
3 251 236 235
3 250 251 235
3 252 237 236
3 251 252 236
3 253 238 237
3 252 253 237
3 254 239 238
3 253 254 238
3 240 255 242
3 241 256 240
3 240 256 255
3 242 255 257
3 242 257 243
3 243 257 258
3 243 258 244
3 244 258 259
3 244 259 245
3 245 259 260
3 245 260 246
3 246 260 261
3 246 261 247
3 248 247 261
3 262 249 248
3 261 262 248
3 263 250 249
3 262 263 249
3 264 251 250
3 263 264 250
3 265 252 251
3 264 265 251
3 266 253 252
3 265 266 252
3 267 254 253
3 266 267 253
3 255 268 257
3 256 269 255
3 255 269 268
3 257 268 270
3 257 270 258
3 258 270 271
3 258 271 259
3 259 271 272
3 259 272 260
3 260 272 273
3 260 273 261
3 274 262 261
3 261 273 274
3 275 263 262
3 274 275 262
3 276 264 263
3 275 276 263
3 277 265 264
3 276 277 264
3 278 266 265
3 277 278 265
3 279 267 266
3 278 279 266
3 268 280 270
3 269 281 268
3 268 281 280
3 270 280 282
3 270 282 271
3 271 282 283
3 271 283 272
3 283 284 272
3 272 284 273
3 285 275 274
3 273 284 285
3 285 274 273
3 286 276 275
3 285 286 275
3 287 277 276
3 286 287 276
3 288 278 277
3 287 288 277
3 289 279 278
3 288 289 278
3 280 290 282
3 281 291 280
3 280 291 290
3 282 290 292
3 282 292 283
3 283 292 293
3 283 293 284
3 284 293 294
3 284 294 285
3 295 286 285
3 295 285 294
3 296 287 286
3 295 296 286
3 297 288 287
3 296 297 287
3 298 289 288
3 297 298 288
3 290 299 292
3 291 300 290
3 290 300 299
3 292 299 301
3 292 301 293
3 293 301 302
3 293 302 294
3 294 302 295
3 303 296 295
3 303 295 302
3 304 297 296
3 303 304 296
3 305 298 297
3 304 305 297
3 299 306 301
3 300 307 299
3 299 307 306
3 301 306 308
3 301 308 302
3 309 303 302
3 302 308 309
3 310 304 303
3 309 310 303
3 311 305 304
3 310 311 304
3 306 312 308
3 307 313 306
3 306 313 312
3 314 310 309
3 308 312 314
3 314 309 308
3 315 311 310
3 314 315 310
3 312 316 314
3 313 317 312
3 312 317 316
3 318 315 314
3 318 314 316
3 317 319 316
3 319 318 316
CELL_TYPES 578
5
5
5
5
5
5
5
5
5
5
5
5
5
5
5
5
5
5
5
5
5
5
5
5
5
5
5
5
5
5
5
5
5
5
5
5
5
5
5
5
5
5
5
5
5
5
5
5
5
5
5
5
5
5
5
5
5
5
5
5
5
5
5
5
5
5
5
5
5
5
5
5
5
5
5
5
5
5
5
5
5
5
5
5
5
5
5
5
5
5
5
5
5
5
5
5
5
5
5
5
5
5
5
5
5
5
5
5
5
5
5
5
5
5
5
5
5
5
5
5
5
5
5
5
5
5
5
5
5
5
5
5
5
5
5
5
5
5
5
5
5
5
5
5
5
5
5
5
5
5
5
5
5
5
5
5
5
5
5
5
5
5
5
5
5
5
5
5
5
5
5
5
5
5
5
5
5
5
5
5
5
5
5
5
5
5
5
5
5
5
5
5
5
5
5
5
5
5
5
5
5
5
5
5
5
5
5
5
5
5
5
5
5
5
5
5
5
5
5
5
5
5
5
5
5
5
5
5
5
5
5
5
5
5
5
5
5
5
5
5
5
5
5
5
5
5
5
5
5
5
5
5
5
5
5
5
5
5
5
5
5
5
5
5
5
5
5
5
5
5
5
5
5
5
5
5
5
5
5
5
5
5
5
5
5
5
5
5
5
5
5
5
5
5
5
5
5
5
5
5
5
5
5
5
5
5
5
5
5
5
5
5
5
5
5
5
5
5
5
5
5
5
5
5
5
5
5
5
5
5
5
5
5
5
5
5
5
5
5
5
5
5
5
5
5
5
5
5
5
5
5
5
5
5
5
5
5
5
5
5
5
5
5
5
5
5
5
5
5
5
5
5
5
5
5
5
5
5
5
5
5
5
5
5
5
5
5
5
5
5
5
5
5
5
5
5
5
5
5
5
5
5
5
5
5
5
5
5
5
5
5
5
5
5
5
5
5
5
5
5
5
5
5
5
5
5
5
5
5
5
5
5
5
5
5
5
5
5
5
5
5
5
5
5
5
5
5
5
5
5
5
5
5
5
5
5
5
5
5
5
5
5
5
5
5
5
5
5
5
5
5
5
5
5
5
5
5
5
5
5
5
5
5
5
5
5
5
5
5
5
5
5
5
5
5
5
5
5
5
5
5
5
5
5
5
5
5
5
5
5
5
5
5
5
5
5
5
5
5
5
5
5
5
5
5
5
5
5
5
5
5
5
5
5
5
5
5
5
5
5
5
5
5
5
5
5
5
5
5
5
5
5
5
5
5
5
5
5
5
5
5
5
5
5
5
5
5
5
5
5
5
5
5
5
5
5
5
5
POINT_DATA 320
SCALARS theta_e float 1
LOOKUP_TABLE default
1.000000
1.000000
1.000000
1.000000
1.000000
1.000000
1.000000
1.000000
1.000000
1.000000
1.000000
1.000000
1.000000
1.000000
1.000000
1.000000
1.000000
1.000000
1.000000
1.000000
1.000000
1.000000
1.000000
1.000000
1.000000
1.000000
1.000000
1.000000
1.000000
1.000000
1.000000
1.000000
1.000000
1.000000
1.000000
1.000000
1.000000
1.000000
1.000000
1.000000
1.000000
1.000000
1.000000
1.000000
1.000000
1.000000
1.000000
1.000000
1.000000
1.000000
1.000000
1.000000
1.000000
1.000000
1.000000
1.000000
1.000000
1.000000
1.000000
1.000000
1.000000
1.000000
1.000000
1.000000
1.000000
1.000000
1.000000
1.000000
1.000000
1.000000
1.000000
1.000000
1.000000
1.000000
1.000000
1.000000
1.000000
1.000000
1.000000
1.000000
1.000000
1.000000
1.000000
1.000000
1.000000
1.000000
1.000000
1.000000
1.000000
1.000000
1.000000
1.000000
1.000000
1.000000
1.000000
1.000000
1.000000
1.000000
1.000000
1.000000
1.000000
1.000000
1.000000
1.000000
1.000000
1.000000
1.000000
1.000000
1.000000
1.000000
1.000000
1.000000
1.000000
1.000000
1.000000
1.000000
1.000000
1.000000
1.000000
1.000000
1.000000
1.000000
1.000000
1.000000
1.000000
1.000000
1.000000
1.000000
1.000000
1.000000
1.000000
1.000000
1.000000
1.000000
1.000000
1.000000
1.000000
1.000000
1.000000
1.000000
1.000000
1.000000
1.000000
1.000000
1.000000
1.000000
1.000000
1.000000
1.000000
1.000000
0.999999
1.000000
1.000000
1.000000
1.000000
1.000000
1.000000
1.000000
1.000000
1.000000
1.000000
1.000000
1.000000
1.000000
1.000000
1.000000
1.000000
1.000000
1.000000
1.000000
1.000000
1.000000
1.000000
0.999999
0.999999
0.999999
0.999999
1.000000
1.000000
1.000000
1.000000
1.000000
1.000000
1.000000
1.000000
1.000000
1.000000
1.000000
1.000000
1.000000
1.000000
1.000000
1.000000
1.000000
0.999999
0.999999
0.999999
0.999999
1.000000
1.000000
1.000000
1.000000
1.000000
1.000000
1.000000
1.000000
1.000000
1.000000
1.000000
1.000000
1.000000
1.000000
1.000000
1.000000
0.999999
0.999999
1.000000
1.000000
1.000000
1.000000
1.000000
1.000000
1.000000
1.000000
1.000000
1.000000
1.000000
1.000000
1.000000
1.000000
1.000000
1.000000
1.000000
1.000000
1.000000
1.000000
1.000000
1.000000
1.000000
1.000000
1.000000
1.000000
1.000000
1.000000
1.000000
1.000000
1.000000
1.000000
1.000000
1.000000
1.000000
1.000000
1.000000
1.000000
1.000000
1.000000
1.000000
1.000000
1.000000
1.000000
1.000000
1.000000
1.000000
1.000000
1.000000
1.000000
1.000000
1.000000
1.000000
1.000000
1.000000
1.000000
1.000000
1.000000
1.000000
1.000000
1.000000
1.000000
1.000000
1.000000
1.000000
1.000000
1.000000
1.000000
1.000000
1.000000
1.000000
1.000000
1.000000
1.000000
1.000000
1.000000
1.000000
1.000000
1.000000
1.000000
1.000000
1.000000
1.000000
1.000000
1.000000
1.000000
1.000000
1.000000
1.000000
1.000000
1.000000
1.000000
1.000000
1.000000
1.000000
1.000000
1.000000
1.000000
1.000000
1.000000
1.000000
1.000000
1.000000
1.000000
VECTORS fa_u float
0.000000 0.000000 0.000000
0.000000 0.000000 0.000000
0.000000 0.000000 0.000000
0.000000 0.000000 0.000000
0.000000 0.000000 0.000000
0.000000 0.000000 0.000000
0.000000 0.000000 0.000000
0.000000 0.000000 0.000000
0.000000 0.000000 0.000000
0.000000 0.000000 0.000000
0.000000 0.000000 0.000000
0.000000 0.000000 0.000000
0.000000 0.000000 0.000000
0.000000 0.000000 0.000000
0.000000 0.000000 0.000000
0.000000 0.000000 0.000000
0.000000 0.000000 0.000000
0.000000 0.000000 0.000000
0.000000 0.000000 0.000000
0.000000 0.000000 0.000000
0.000000 0.000000 0.000000
0.000000 0.000000 0.000000
0.000000 0.000000 0.000000
0.000000 0.000000 0.000000
0.000000 0.000000 0.000000
0.000000 0.000000 0.000000
0.000000 0.000000 0.000000
0.000000 0.000000 0.000000
0.000000 0.000000 0.000000
0.000000 0.000000 0.000000
0.000000 0.000000 0.000000
0.000000 0.000000 0.000000
0.000000 0.000000 0.000000
0.000000 0.000000 0.000000
0.000000 0.000000 0.000000
0.000000 0.000000 0.000000
0.000000 0.000000 0.000000
0.000000 0.000000 0.000000
0.000000 0.000000 0.000000
0.000000 0.000000 0.000000
0.000000 0.000000 0.000000
0.000000 0.000000 0.000000
0.000000 0.000000 0.000000
0.000000 0.000000 0.000000
0.000000 0.000000 0.000000
0.000000 0.000000 0.000000
0.000000 0.000000 0.000000
0.000000 0.000000 0.000000
0.000000 0.000000 0.000000
0.000000 0.000000 0.000000
0.000000 0.000000 0.000000
0.000000 0.000000 0.000000
0.000000 0.000000 0.000000
0.000000 0.000000 0.000000
0.000000 0.000000 0.000000
0.000000 0.000000 0.000000
0.000000 0.000000 0.000000
0.000000 0.000000 0.000000
0.000000 0.000000 0.000000
0.000000 0.000000 0.000000
0.000000 0.000000 0.000000
0.000000 0.000000 0.000000
0.000000 0.000000 0.000000
0.000000 0.000000 0.000000
0.000000 0.000000 0.000000
0.000000 0.000000 0.000000
0.000000 0.000000 0.000000
0.000000 0.000000 0.000000
0.000000 0.000000 0.000000
0.000000 0.000000 0.000000
0.000000 0.000000 0.000000
0.000000 0.000000 0.000000
0.000000 0.000000 0.000000
0.000000 0.000000 0.000000
0.000000 0.000000 0.000000
0.000000 0.000000 0.000000
0.000000 0.000000 0.000000
0.000000 0.000000 0.000000
0.000000 0.000000 0.000000
0.000000 0.000000 0.000000
0.000000 0.000000 0.000000
0.000000 0.000000 0.000000
0.000000 0.000000 0.000000
0.000000 0.000000 0.000000
0.000000 0.000000 0.000000
0.000000 0.000000 0.000000
0.000000 0.000000 0.000000
0.000000 0.000000 0.000000
0.000000 0.000000 0.000000
0.000000 0.000000 0.000000
0.000000 0.000000 0.000000
0.000000 0.000000 0.000000
0.000000 0.000000 0.000000
0.000000 0.000000 0.000000
0.000000 0.000000 0.000000
0.000000 0.000000 0.000000
0.000000 0.000000 0.000000
0.000000 0.000000 0.000000
0.000000 0.000000 0.000000
0.000000 0.000000 0.000000
0.000000 0.000000 0.000000
0.000000 0.000000 0.000000
0.000000 0.000000 0.000000
0.000000 0.000000 0.000000
0.000000 0.000000 0.000000
0.000000 0.000000 0.000000
0.000000 0.000000 0.000000
0.000000 0.000000 0.000000
0.000000 0.000000 0.000000
0.000000 0.000000 0.000000
0.000000 0.000000 0.000000
0.000000 0.000000 0.000000
0.000000 0.000000 0.000000
0.000000 0.000000 0.000000
0.000000 0.000000 0.000000
0.000000 0.000000 0.000000
0.000000 0.000000 0.000000
0.000000 0.000000 0.000000
0.000000 0.000000 0.000000
0.000000 0.000000 0.000000
0.000000 0.000000 0.000000
0.000000 0.000000 0.000000
0.000000 0.000000 0.000000
0.000000 0.000000 0.000000
0.000000 0.000000 0.000000
0.000000 0.000000 0.000000
0.000000 0.000000 0.000000
0.000000 0.000000 0.000000
0.000000 0.000000 0.000000
0.000000 0.000000 0.000000
0.000000 0.000000 0.000000
0.000000 0.000000 0.000000
0.000000 0.000000 0.000000
0.000000 0.000000 0.000000
0.000000 0.000000 0.000000
0.000000 0.000000 0.000000
0.000000 0.000000 0.000000
0.000000 0.000000 0.000000
0.000000 0.000000 0.000000
0.000000 0.000000 0.000000
0.000000 0.000000 0.000000
0.000000 0.000000 0.000000
0.000000 0.000000 0.000000
0.000000 0.000000 0.000000
0.000000 0.000000 0.000000
0.000000 0.000000 0.000000
0.000000 0.000000 0.000000
0.000000 0.000000 0.000000
0.000000 0.000000 0.000000
0.000000 0.000000 0.000000
0.000000 0.000000 0.000000
0.000000 0.000000 0.000000
0.000000 0.000000 0.000000
0.000000 0.000000 0.000000
0.000000 0.000000 0.000000
0.000000 0.000000 0.000000
0.000000 0.000000 0.000000
0.000000 0.000000 0.000000
0.000000 0.000000 0.000000
0.000000 0.000000 0.000000
0.000000 0.000000 0.000000
0.000000 0.000000 0.000000
0.000000 0.000000 0.000000
0.000000 0.000000 0.000000
0.000000 0.000000 0.000000
0.000000 0.000000 0.000000
0.000000 0.000000 0.000000
0.000000 0.000000 0.000000
0.000000 0.000000 0.000000
0.000000 0.000000 0.000000
0.000000 0.000000 0.000000
0.000000 0.000000 0.000000
0.000000 0.000000 0.000000
0.000000 0.000000 0.000000
0.000000 0.000000 0.000000
0.000000 0.000000 0.000000
0.000000 0.000000 0.000000
0.000000 0.000000 0.000000
0.000000 0.000000 0.000000
0.000000 0.000000 0.000000
0.000000 0.000000 0.000000
0.000000 0.000000 0.000000
0.000000 0.000000 0.000000
0.000000 0.000000 0.000000
0.000000 0.000000 0.000000
0.000000 0.000000 0.000000
0.000000 0.000000 0.000000
0.000000 0.000000 0.000000
0.000000 0.000000 0.000000
0.000000 0.000000 0.000000
0.000000 0.000000 0.000000
0.000000 0.000000 0.000000
0.000000 0.000000 0.000000
0.000000 0.000000 0.000000
0.000000 0.000000 0.000000
0.000000 0.000000 0.000000
0.000000 0.000000 0.000000
0.000000 0.000000 0.000000
0.000000 0.000000 0.000000
0.000000 0.000000 0.000000
0.000000 0.000000 0.000000
0.000000 0.000000 0.000000
0.000000 0.000000 0.000000
0.000000 0.000000 0.000000
0.000000 0.000000 0.000000
0.000000 0.000000 0.000000
0.000000 0.000000 0.000000
0.000000 0.000000 0.000000
0.000000 0.000000 0.000000
0.000000 0.000000 0.000000
0.000000 0.000000 0.000000
0.000000 0.000000 0.000000
0.000000 0.000000 0.000000
0.000000 0.000000 0.000000
0.000000 0.000000 0.000000
0.000000 0.000000 0.000000
0.000000 0.000000 0.000000
0.000000 0.000000 0.000000
0.000000 0.000000 0.000000
0.000000 0.000000 0.000000
0.000000 0.000000 0.000000
0.000000 0.000000 0.000000
0.000000 0.000000 0.000000
0.000000 0.000000 0.000000
0.000000 0.000000 0.000000
0.000000 0.000000 0.000000
0.000000 0.000000 0.000000
0.000000 0.000000 0.000000
0.000000 0.000000 0.000000
0.000000 0.000000 0.000000
0.000000 0.000000 0.000000
0.000000 0.000000 0.000000
0.000000 0.000000 0.000000
0.000000 0.000000 0.000000
0.000000 0.000000 0.000000
0.000000 0.000000 0.000000
0.000000 0.000000 0.000000
0.000000 0.000000 0.000000
0.000000 0.000000 0.000000
0.000000 0.000000 0.000000
0.000000 0.000000 0.000000
0.000000 0.000000 0.000000
0.000000 0.000000 0.000000
0.000000 0.000000 0.000000
0.000000 0.000000 0.000000
0.000000 0.000000 0.000000
0.000000 0.000000 0.000000
0.000000 0.000000 0.000000
0.000000 0.000000 0.000000
0.000000 0.000000 0.000000
0.000000 0.000000 0.000000
0.000000 0.000000 0.000000
0.000000 0.000000 0.000000
0.000000 0.000000 0.000000
0.000000 0.000000 0.000000
0.000000 0.000000 0.000000
0.000000 0.000000 0.000000
0.000000 0.000000 0.000000
0.000000 0.000000 0.000000
0.000000 0.000000 0.000000
0.000000 0.000000 0.000000
0.000000 0.000000 0.000000
0.000000 0.000000 0.000000
0.000000 0.000000 0.000000
0.000000 0.000000 0.000000
0.000000 0.000000 0.000000
0.000000 0.000000 0.000000
0.000000 0.000000 0.000000
0.000000 0.000000 0.000000
0.000000 0.000000 0.000000
0.000000 0.000000 0.000000
0.000000 0.000000 0.000000
0.000000 0.000000 0.000000
0.000000 0.000000 0.000000
0.000000 0.000000 0.000000
0.000000 0.000000 0.000000
0.000000 0.000000 0.000000
0.000000 0.000000 0.000000
0.000000 0.000000 0.000000
0.000000 0.000000 0.000000
0.000000 0.000000 0.000000
0.000000 0.000000 0.000000
0.000000 0.000000 0.000000
0.000000 0.000000 0.000000
0.000000 0.000000 0.000000
0.000000 0.000000 0.000000
0.000000 0.000000 0.000000
0.000000 0.000000 0.000000
0.000000 0.000000 0.000000
0.000000 0.000000 0.000000
0.000000 0.000000 0.000000
0.000000 0.000000 0.000000
0.000000 0.000000 0.000000
0.000000 0.000000 0.000000
0.000000 0.000000 0.000000
0.000000 0.000000 0.000000
0.000000 0.000000 -50.000000
-50.000000 0.000000 -50.000000
-43.332953 0.000000 -45.688399
-45.491161 0.000000 -43.332884
-50.000000 0.000000 -50.000000
-36.665878 0.000000 -36.665875
-50.000000 0.000000 -45.081134
-39.969801 0.000000 -40.027209
-44.152291 0.000000 -29.998832
-50.000000 0.000000 -50.000000
-29.998837 0.000000 -44.847104
-33.448934 0.000000 -33.144931
-44.675702 0.000000 -39.869146
-36.787009 0.000000 -35.128679
-39.801327 0.000000 -23.331943
-50.000000 0.000000 -26.539171
-44.666754 0.000000 -50.000000
-23.331967 0.000000 -44.665284
-26.803945 0.000000 -39.364260
-30.225702 0.000000 -29.606299
-39.359385 0.000000 -33.368265
-33.655473 0.000000 -50.000000
-16.665347 0.000000 -16.665349
-50.000000 0.000000 -9.999060
