# vtk DataFile Version 2.0
CellBP Time: 0.228
ASCII
DATASET UNSTRUCTURED_GRID
POINTS 296 double
-9.18881 -3.77687 0
-8.61028 -4.95003 0
-9.60927 -2.53823 0
-9.86446 -1.2553 0
-8.35807 -2.8189 0
-7.88356 -6.03764 0
-7.0211 -7.02109 0
-7.91772 -3.87497 0
-7.34313 -4.86817 0
-6.03765 -7.88355 0
-4.95004 -8.61027 0
-9.95001 0.0499633 0
-9.86445 1.35523 0
-8.65818 -1.68407 0
-8.78682 -0.529687 0
-7.5902 -2.00429 0
-7.22624 -2.90669 0
-6.63809 -5.77928 0
-5.82281 -6.59736 0
-6.79075 -3.88919 0
-6.22103 -4.67626 0
-3.77687 -9.18881 0
-2.53824 -9.60927 0
-4.90683 -7.30931 0
-3.9133 -7.88678 0
-8.79327 0.643403 0
-9.60925 2.63816 0
-8.62379 1.77415 0
-9.18879 3.87681 0
-7.74481 -0.929068 0
-7.79504 0.0802309 0
-6.95303 -1.31599 0
-1.2553 -9.86446 0
-6.44192 -2.15329 0
-6.31983 -3.05636 0
-5.53695 -5.47498 0
-4.79627 -6.11593 0
-5.65943 -3.75729 0
-5.26979 -4.56193 0
-2.86639 -8.36451 0
-1.77871 -8.64084 0
-3.92845 -6.72406 0
-3.05687 -7.15314 0
0.0499647 -9.95 0
-7.70604 1.14356 0
-8.33912 2.91558 0
-7.55243 2.11209 0
-8.61024 5.04997 0
-7.88059 3.97847 0
-7.88351 6.13759 0
-6.77917 -0.396907 0
-6.95704 0.552556 0
-5.77177 -1.00349 0
-0.590909 -8.81034 0
0.56569 -8.77152 0
-5.30347 -2.48045 0
-4.49231 -5.09612 0
-3.90281 -5.77576 0
-4.43922 -3.80501 0
-2.0626 -7.56254 0
-1.13559 -7.78646 0
-2.99479 -6.10253 0
-2.30922 -6.62031 0
1.35523 -9.86445 0
-6.68995 1.42212 0
-7.17274 3.11833 0
-6.65976 2.37317 0
-7.29526 4.98901 0
-6.71862 4.00336 0
-7.02104 7.12105 0
-6.57299 5.89459 0
-6.03759 7.98351 0
-4.45338 -1.18115 0
-5.81499 0.51377 0
-4.65645 -0.0103994 0
0.00849439 -7.84876 0
1.73867 -8.64449 0
0.949016 -7.7641 0
-4.03877 -2.40655 0
-3.48576 -1.3913 0
-3.29475 -4.80568 0
-3.26608 -3.268 0
-1.37871 -6.67601 0
-0.508806 -7.02554 0
-1.97571 -5.53743 0
2.63816 -9.60925 0
-5.50773 2.03705 0
-6.09523 3.07245 0
-6.10564 4.87006 0
-5.76224 3.99182 0
-5.7618 6.71774 0
-5.45264 5.6199 0
-4.94997 8.71024 0
-4.8389 7.40526 0
-3.50171 -0.424343 0
-4.4496 1.2491 0
-3.7117 0.592096 0
-4.06244 2.31996 0
-3.7768 9.28878 0
2.86284 -8.33363 0
0.419703 -6.79606 0
2.02219 -7.52659 0
1.30619 -6.90625 0
-2.44482 -0.873875 0
-2.83856 -2.13128 0
-2.29458 -4.09767 0
-2.32581 -2.9738 0
-0.442441 -5.86165 0
-1.22283 -4.49946 0
3.8768 -9.18878 0
-4.79019 3.39206 0
-5.08844 4.59459 0
-4.64766 6.28211 0
-4.53934 5.36029 0
-3.84412 7.99421 0
-3.82715 6.84647 0
-2.78358 8.42376 0
-1.64915 -0.137914 0
-1.45035 -0.890647 0
-2.48927 0.507277 0
-3.25384 1.44424 0
-3.23926 3.3168 0
-2.91118 2.37192 0
-1.35518 0.627137 0
-2.53816 9.70925 0
3.9331 -7.88784 0
2.96486 -7.15855 0
0.954159 -5.82257 0
2.07455 -6.41622 0
-1.68308 -1.99219 0
-1.43454 -3.27801 0
0.0902099 -4.74737 0
-0.566226 -3.69469 0
4.93269 -7.31963 0
5.04997 -8.61024 0
-3.77729 4.55204 0
-3.73516 5.75278 0
-2.8883 7.29074 0
-3.01003 6.35447 0
-1.66272 8.73469 0
-1.94033 7.6203 0
-2.33856 4.052 0
-0.730779 -1.32733 0
-0.836947 -0.257645 0
-1.93632 1.68087 0
-2.12591 2.87604 0
-1.30666 3.54496 0
-0.869508 1.3509 0
-0.282381 0.456072 0
-0.533553 8.87278 0
-1.25523 9.96445 0
1.11287 -4.575 0
3.91061 -6.71815 0
2.98826 -6.09551 0
2.11807 -5.42553 0
4.78505 -6.20618 0
-0.558897 -2.47698 0
0.495135 -3.4641 0
0.0535507 -1.61058 0
1.48201 -3.68247 0
5.86793 -6.61553 0
6.13759 -7.88352 0
-2.47592 5.34904 0
-2.13069 6.53527 0
-0.904166 7.80436 0
-1.27249 6.93296 0
0.0862441 7.88148 0
-1.14454 4.49512 0
0.150328 -0.617682 0
-0.797472 2.48867 0
-0.331662 3.60102 0
0.0631153 1.51282 0
0.741484 0.473451 0
0.646906 8.87547 0
0.0500368 10.05 0
2.38124 -4.28568 0
3.85968 -5.64121 0
3.00182 -5.2134 0
5.5746 -5.49264 0
4.69169 -5.28381 0
0.62971 -2.29352 0
1.25627 -2.95146 0
0.757543 -1.39154 0
2.16453 -3.13611 0
2.99409 -3.47695 0
6.15616 -4.79255 0
6.6566 -5.77019 0
7.12105 -7.02105 0
-1.01973 5.82105 0
-0.372646 6.88459 0
1.12284 7.77081 0
0.558085 7.08089 0
-0.000748274 4.72568 0
0.607072 3.82819 0
1.33901 -0.641934 0
0.53915 2.65126 0
0.966157 1.57505 0
1.91034 0.213889 0
1.61489 1.06511 0
2.1298 7.5849 0
1.79954 8.71386 0
1.3553 9.96445 0
3.82333 -4.35218 0
5.1174 -4.44973 0
5.84674 -3.9358 0
3.78446 -3.20144 0
1.81244 -1.88278 0
3.01948 -2.57416 0
6.78462 -3.94858 0
7.38277 -4.89766 0
7.98352 -6.03759 0
0.483447 5.88239 0
1.42844 6.7431 0
2.37481 6.67034 0
1.21015 4.55676 0
1.48836 3.39802 0
2.43604 -0.69208 0
2.82836 0.142629 0
1.78908 2.16307 0
2.61217 1.15028 0
3.07267 7.17157 0
2.90482 8.37847 0
2.63824 9.70927 0
4.91207 -3.3284 0
6.12186 -3.10925 0
4.17346 -2.27556 0
3.24483 -1.50307 0
6.73275 -2.31349 0
7.23361 -3.04317 0
7.96658 -3.91305 0
8.71024 -4.94997 0
2.02398 5.60078 0
3.08719 6.15494 0
2.36428 4.12753 0
2.42041 3.0613 0
3.52616 -0.460907 0
3.61622 0.613385 0
2.96225 2.2884 0
3.54612 1.5255 0
4.01321 5.89961 0
3.98556 6.79501 0
3.97437 7.94079 0
3.87688 9.28881 0
5.56993 -1.91651 0
4.50997 -1.12977 0
6.71566 -1.33642 0
7.5946 -2.03693 0
8.39943 -2.86209 0
9.28879 -3.77681 0
3.41989 4.87809 0
3.33961 3.386 0
4.69212 0.130115 0
4.52002 1.31023 0
4.0661 2.44427 0
4.572 5.15407 0
4.84531 6.19284 0
4.98205 7.3828 0
5.05004 8.71027 0
5.88495 -0.434985 0
7.01313 -0.488367 0
7.76211 -1.0856 0
8.68761 -1.74645 0
9.70925 -2.53817 0
4.5537 3.82863 0
5.8194 1.09891 0
5.3728 2.53567 0
5.38212 4.62234 0
5.61433 5.52567 0
5.89938 6.67436 0
6.13765 7.98355 0
6.84863 0.463726 0
7.85637 -0.0256193 0
8.86367 -0.584517 0
9.96445 -1.25523 0
6.96329 1.35 0
5.72338 3.77997 0
6.5441 2.19839 0
6.38289 3.0893 0
6.29517 4.68901 0
6.69584 5.84022 0
7.1211 7.12109 0
7.78766 0.96804 0
8.86302 0.573007 0
10.05 0.0500354 0
7.61957 2.00519 0
6.83228 3.90604 0
7.27284 2.94814 0
7.38149 4.88787 0
7.98356 6.13764 0
8.72663 1.72765 0
9.96446 1.3553 0
8.42455 2.83899 0
7.98504 3.91799 0
8.71028 5.05003 0
9.70927 2.63822 0
9.28882 3.87687 0
CELLS 542 2168
3 2 0 4
3 0 1 7
3 4 0 7
3 1 5 8
3 7 1 8
3 3 2 13
3 13 2 4
3 11 3 14
3 14 3 13
3 13 4 15
3 4 7 16
3 15 4 16
3 5 6 17
3 8 5 17
3 6 9 18
3 17 6 18
3 7 8 19
3 16 7 19
3 8 17 20
3 19 8 20
3 9 10 23
3 18 9 23
3 10 21 24
3 23 10 24
3 12 11 25
3 25 11 14
3 26 12 27
3 27 12 25
3 14 13 29
3 29 13 15
3 25 14 30
3 30 14 29
3 29 15 31
3 15 16 33
3 31 15 33
3 16 19 34
3 33 16 34
3 17 18 35
3 20 17 35
3 18 23 36
3 35 18 36
3 19 20 37
3 34 19 37
3 20 35 38
3 37 20 38
3 21 22 39
3 24 21 39
3 22 32 40
3 39 22 40
3 23 24 41
3 36 23 41
3 24 39 42
3 41 24 42
3 27 25 44
3 44 25 30
3 28 26 45
3 45 26 27
3 45 27 46
3 46 27 44
3 47 28 48
3 48 28 45
3 30 29 50
3 50 29 31
3 44 30 51
3 51 30 50
3 50 31 52
3 31 33 52
3 32 43 53
3 40 32 53
3 53 43 54
3 33 34 55
3 34 37 55
3 33 55 52
3 35 36 56
3 38 35 56
3 36 41 57
3 56 36 57
3 37 38 58
3 38 56 58
3 37 58 55
3 39 40 59
3 42 39 59
3 40 53 60
3 59 40 60
3 41 42 61
3 57 41 61
3 42 59 62
3 61 42 62
3 43 63 54
3 46 44 64
3 64 44 51
3 48 45 65
3 65 45 46
3 65 46 66
3 66 46 64
3 49 47 67
3 67 47 48
3 67 48 68
3 68 48 65
3 69 49 70
3 70 49 67
3 52 55 72
3 64 51 73
3 51 50 73
3 50 52 73
3 73 52 74
3 74 52 72
3 53 54 75
3 60 53 75
3 54 63 76
3 54 76 77
3 75 54 77
3 55 58 78
3 72 55 78
3 72 78 79
3 56 57 80
3 57 61 80
3 56 80 58
3 58 80 81
3 78 58 81
3 59 60 82
3 62 59 82
3 60 75 83
3 82 60 83
3 61 62 84
3 62 82 84
3 61 84 80
3 63 85 76
3 66 64 86
3 64 73 86
3 68 65 87
3 87 65 66
3 87 66 86
3 70 67 88
3 88 67 68
3 88 68 89
3 89 68 87
3 71 69 90
3 90 69 70
3 90 70 91
3 91 70 88
3 92 71 93
3 93 71 90
3 74 72 94
3 94 72 79
3 86 73 95
3 95 73 74
3 95 74 96
3 96 74 94
3 97 86 95
3 76 85 99
3 75 77 100
3 83 75 100
3 76 99 101
3 77 76 101
3 77 101 102
3 100 77 102
3 94 79 103
3 78 81 104
3 79 78 104
3 79 104 103
3 80 84 105
3 81 80 105
3 81 105 106
3 104 81 106
3 82 83 107
3 83 100 107
3 82 107 84
3 84 107 108
3 105 84 108
3 85 109 99
3 89 87 110
3 87 86 110
3 110 86 97
3 91 88 111
3 111 88 89
3 111 89 110
3 93 90 112
3 112 90 91
3 112 91 113
3 113 91 111
3 98 92 114
3 114 92 93
3 114 93 115
3 115 93 112
3 116 98 114
3 117 103 118
3 96 94 119
3 94 103 119
3 119 103 117
3 97 95 120
3 120 95 96
3 120 96 119
3 121 110 97
3 121 97 122
3 122 97 120
3 123 119 117
3 124 98 116
3 99 109 125
3 99 125 126
3 101 99 126
3 100 102 127
3 100 127 107
3 101 126 128
3 102 101 128
3 102 128 127
3 104 106 129
3 104 129 103
3 103 129 118
3 105 108 130
3 106 105 130
3 106 130 129
3 107 127 131
3 108 107 131
3 108 131 132
3 108 132 130
3 109 134 125
3 125 134 133
3 113 111 135
3 111 110 135
3 135 110 121
3 115 112 136
3 136 112 113
3 136 113 135
3 116 114 137
3 137 114 115
3 137 115 138
3 138 115 136
3 139 124 116
3 139 116 140
3 140 116 137
3 141 135 121
3 118 129 142
3 118 142 143
3 117 118 143
3 123 117 143
3 122 120 144
3 120 119 144
3 144 119 123
3 141 121 145
3 145 121 122
3 145 122 144
3 146 141 145
3 147 144 123
3 147 123 148
3 143 148 123
3 150 124 139
3 149 150 139
3 131 127 151
3 125 133 152
3 126 125 152
3 126 152 153
3 128 126 153
3 128 153 154
3 128 154 127
3 127 154 151
3 152 133 155
3 130 132 156
3 130 156 129
3 129 156 142
3 131 151 157
3 132 131 157
3 132 157 156
3 156 158 142
3 157 151 159
3 133 160 155
3 134 161 133
3 133 161 160
3 138 136 162
3 136 135 162
3 162 135 141
3 140 137 163
3 163 137 138
3 163 138 162
3 149 139 164
3 164 139 140
3 164 140 165
3 165 140 163
3 166 149 164
3 167 162 141
3 167 141 146
3 142 158 168
3 143 142 168
3 143 168 148
3 146 145 169
3 145 144 169
3 169 144 147
3 170 167 146
3 170 146 169
3 171 169 147
3 171 147 148
3 171 148 172
3 168 172 148
3 173 149 166
3 174 150 149
3 173 174 149
3 154 175 151
3 151 175 159
3 152 155 176
3 153 152 176
3 153 176 177
3 153 177 154
3 154 177 175
3 155 160 178
3 155 178 179
3 176 155 179
3 156 157 180
3 156 180 158
3 157 159 181
3 157 181 180
3 158 180 182
3 158 182 168
3 159 175 183
3 159 183 181
3 175 184 183
3 160 186 178
3 178 186 185
3 161 187 160
3 160 187 186
3 165 163 188
3 163 162 188
3 188 162 167
3 166 164 189
3 189 164 165
3 189 165 188
3 190 173 166
3 190 166 191
3 191 166 189
3 192 188 167
3 192 167 170
3 193 192 170
3 182 194 168
3 194 172 168
3 193 170 195
3 170 169 195
3 195 169 171
3 196 195 171
3 196 171 172
3 194 197 172
3 197 198 172
3 198 196 172
3 200 173 190
3 199 200 190
3 201 174 173
3 200 201 173
3 176 179 202
3 177 176 202
3 177 202 175
3 175 202 184
3 178 185 203
3 178 203 179
3 179 203 202
3 203 185 204
3 202 205 184
3 183 206 181
3 180 181 206
3 180 206 182
3 182 206 194
3 183 184 207
3 205 207 184
3 183 207 206
3 185 208 204
3 186 209 185
3 185 209 208
3 187 210 186
3 186 210 209
3 191 189 211
3 189 188 211
3 211 188 192
3 199 190 212
3 212 190 191
3 212 191 211
3 213 199 212
3 214 211 192
3 214 192 193
3 215 214 193
3 215 193 195
3 206 216 194
3 216 197 194
3 216 217 197
3 215 195 218
3 218 195 196
3 198 218 196
3 217 219 197
3 219 218 198
3 197 219 198
3 220 199 213
3 221 200 199
3 220 221 199
3 222 201 200
3 221 222 200
3 203 204 223
3 203 223 202
3 202 223 205
3 204 208 224
3 204 224 223
3 205 223 225
3 205 225 207
3 207 225 226
3 207 226 206
3 226 216 206
3 208 228 224
3 224 228 227
3 209 229 208
3 229 228 208
3 210 230 209
3 209 230 229
3 213 212 231
3 212 211 231
3 231 211 214
3 232 220 213
3 232 213 231
3 233 231 214
3 233 214 215
3 234 233 215
3 234 215 218
3 226 235 216
3 235 217 216
3 235 236 217
3 217 236 219
3 237 234 218
3 237 218 219
3 236 238 219
3 238 237 219
3 240 220 232
3 239 240 232
3 241 221 220
3 240 241 220
3 242 222 221
3 241 242 221
3 224 227 243
3 224 243 223
3 223 243 225
3 225 243 244
3 225 244 226
3 226 244 235
3 227 245 243
3 228 246 227
3 227 246 245
3 229 247 228
3 228 247 246
3 230 248 229
3 229 248 247
3 239 232 249
3 232 231 249
3 249 231 233
3 250 249 233
3 250 233 234
3 237 250 234
3 244 251 235
3 235 251 236
3 251 252 236
3 236 252 238
3 252 253 238
3 253 250 237
3 253 237 238
3 254 239 249
3 255 240 239
3 254 255 239
3 256 241 240
3 255 256 240
3 257 242 241
3 256 257 241
3 245 258 243
3 243 258 244
3 244 258 251
3 245 259 258
3 246 260 245
3 245 260 259
3 247 261 246
3 246 261 260
3 248 262 247
3 247 262 261
3 254 249 263
3 263 249 250
3 253 263 250
3 258 264 251
3 251 264 252
3 264 265 252
3 265 263 253
3 252 265 253
3 266 254 263
3 267 255 254
3 266 267 254
3 268 256 255
3 267 268 255
3 269 257 256
3 268 269 256
3 259 270 258
3 270 264 258
3 260 271 259
3 259 271 270
3 261 272 260
3 260 272 271
3 262 273 261
3 273 272 261
3 270 274 264
3 275 266 263
3 275 263 265
3 274 276 264
3 276 265 264
3 276 277 265
3 277 275 265
3 278 267 266
3 275 278 266
3 279 268 267
3 278 279 267
3 280 269 268
3 279 280 268
3 271 281 270
3 270 281 274
3 272 282 271
3 271 282 281
3 273 283 272
3 272 283 282
3 281 284 274
3 274 284 276
3 285 278 275
3 277 285 275
3 284 286 276
3 286 285 277
3 276 286 277
3 287 279 278
3 285 287 278
3 288 280 279
3 287 288 279
3 282 289 281
3 281 289 284
3 283 290 282
3 282 290 289
3 289 291 284
3 284 291 286
3 291 292 286
3 292 287 285
3 286 292 285
3 293 288 287
3 292 293 287
3 290 294 289
3 289 294 291
3 294 295 291
3 295 293 292
3 291 295 292
CELL_TYPES 542
5
5
5
5
5
5
5
5
5
5
5
5
5
5
5
5
5
5
5
5
5
5
5
5
5
5
5
5
5
5
5
5
5
5
5
5
5
5
5
5
5
5
5
5
5
5
5
5
5
5
5
5
5
5
5
5
5
5
5
5
5
5
5
5
5
5
5
5
5
5
5
5
5
5
5
5
5
5
5
5
5
5
5
5
5
5
5
5
5
5
5
5
5
5
5
5
5
5
5
5
5
5
5
5
5
5
5
5
5
5
5
5
5
5
5
5
5
5
5
5
5
5
5
5
5
5
5
5
5
5
5
5
5
5
5
5
5
5
5
5
5
5
5
5
5
5
5
5
5
5
5
5
5
5
5
5
5
5
5
5
5
5
5
5
5
5
5
5
5
5
5
5
5
5
5
5
5
5
5
5
5
5
5
5
5
5
5
5
5
5
5
5
5
5
5
5
5
5
5
5
5
5
5
5
5
5
5
5
5
5
5
5
5
5
5
5
5
5
5
5
5
5
5
5
5
5
5
5
5
5
5
5
5
5
5
5
5
5
5
5
5
5
5
5
5
5
5
5
5
5
5
5
5
5
5
5
5
5
5
5
5
5
5
5
5
5
5
5
5
5
5
5
5
5
5
5
5
5
5
5
5
5
5
5
5
5
5
5
5
5
5
5
5
5
5
5
5
5
5
5
5
5
5
5
5
5
5
5
5
5
5
5
5
5
5
5
5
5
5
5
5
5
5
5
5
5
5
5
5
5
5
5
5
5
5
5
5
5
5
5
5
5
5
5
5
5
5
5
5
5
5
5
5
5
5
5
5
5
5
5
5
5
5
5
5
5
5
5
5
5
5
5
5
5
5
5
5
5
5
5
5
5
5
5
5
5
5
5
5
5
5
5
5
5
5
5
5
5
5
5
5
5
5
5
5
5
5
5
5
5
5
5
5
5
5
5
5
5
5
5
5
5
5
5
5
5
5
5
5
5
5
5
5
5
5
5
5
5
5
5
5
5
5
5
5
5
5
5
5
5
5
5
5
5
5
5
5
5
5
5
5
5
5
5
5
5
5
5
5
5
5
5
5
5
5
5
5
5
5
5
5
5
5
5
5
5
5
5
5
5
5
5
5
5
5
5
5
5
5
5
5
5
5
5
5
5
5
5
5
5
5
5
5
5
5
5
5
5
5
5
5
5
5
5
5
5
5
5
5
5
5
5
5
5
5
5
5
5
5
5
5
5
POINT_DATA 296
SCALARS concentrations float 4
LOOKUP_TABLE default
0 1 0.0835275 0.0162568
0 1 0.0835275 0.0158826
0 1 0.0835275 0.0166997
0 1 0.0835274 0.0171662
0 1 0.0835223 0.014532
0 1 0.0835275 0.0156441
0 1 0.0835275 0.0155635
0 1 0.0835223 0.0141836
0 1 0.0835223 0.0139169
0 1 0.0835276 0.0156428
0 1 0.0835277 0.0158596
0 1 0.0835271 0.0175946
0 1 0.0835267 0.0179653
0 1 0.0835222 0.0149209
0 1 0.0835219 0.0152726
0 1 0.0835178 0.0130531
0 1 0.0835176 0.0126511
0 1 0.0835223 0.0137607
0 1 0.0835223 0.0137454
0 1 0.0835178 0.012434
0 1 0.0835177 0.0121948
0 1 0.0835277 0.0161839
0 1 0.0835277 0.0165764
0 1 0.0835224 0.0138649
0 1 0.0835224 0.0140808
0 1 0.0835216 0.0156517
0 1 0.0835261 0.0182483
0 1 0.0835211 0.0159109
0 1 0.0835254 0.0184616
0 1 0.0835174 0.0133211
0 1 0.0835171 0.0136299
0 1 0.0835142 0.0119054
0 1 0.0835275 0.0169716
0 1 0.083513 0.0111321
0 1 0.0835142 0.0112587
0 1 0.0835177 0.0121211
0 1 0.0835177 0.0121267
0 1 0.0835132 0.0106934
0 1 0.083514 0.010862
0 1 0.0835226 0.0144329
0 1 0.0835224 0.014711
0 1 0.0835178 0.0122854
0 1 0.0835177 0.0124668
0 1 0.0835272 0.0173259
0 1 0.0835167 0.0139167
0 1 0.0835206 0.0161931
0 1 0.0835164 0.0142363
0 1 0.0835248 0.0186058
0 1 0.08352 0.0163399
0 1 0.0835243 0.0186837
0 1 0.0835127 0.0116969
0 1 0.0835132 0.0123126
0 1 0.0835087 0.00987329
0 1 0.0835221 0.0150534
0 1 0.0835216 0.0152552
0 1 0.0835089 0.00941042
0 1 0.0835133 0.0105554
0 1 0.0835141 0.0108999
0 1 0.083509 0.00911377
0 1 0.0835179 0.0128377
0 1 0.0835179 0.0131434
0 1 0.0835133 0.0107663
0 1 0.0835142 0.0112998
0 1 0.0835267 0.0176149
0 1 0.0835122 0.0122944
0 1 0.0835158 0.0143824
0 1 0.0835128 0.0129093
0 1 0.0835195 0.0164556
0 1 0.0835154 0.0144999
0 1 0.083524 0.0187143
0 1 0.0835191 0.0164774
0 1 0.083524 0.0187012
0 1 0.0835033 0.00767428
0 1 0.0835081 0.0103041
0 1 0.0835031 0.00812756
0 1 0.0835174 0.0133972
0 1 0.0835212 0.0155345
0 1 0.083517 0.0135555
0 1 0.0835039 0.00747913
0 1 0.0834996 0.00616604
0 1 0.083509 0.00908409
0 1 0.0835036 0.00720068
0 1 0.0835132 0.0111941
0 1 0.083514 0.0118207
0 1 0.0835091 0.00940869
0 1 0.083526 0.0178313
0 1 0.0835076 0.0107361
0 1 0.0835114 0.0125923
0 1 0.0835149 0.0145465
0 1 0.0835117 0.0130299
0 1 0.083519 0.0165074
0 1 0.0835148 0.0145968
0 1 0.0835244 0.0186549
0 1 0.0835191 0.0164448
0 1 0.0834984 0.0060915
0 1 0.0835025 0.00841292
0 1 0.083499 0.00678577
0 1 0.0835022 0.0087116
0 1 0.0835249 0.0185325
0 1 0.0835205 0.0156839
0 1 0.0835126 0.0116183
0 1 0.0835163 0.0136931
0 1 0.0835132 0.0121902
0 1 0.0834946 0.00438615
0 1 0.0834989 0.00563193
0 1 0.0835039 0.00736338
0 1 0.0834999 0.00589889
0 1 0.0835088 0.00977248
0 1 0.0835037 0.00749992
0 1 0.0835253 0.0179713
0 1 0.083507 0.0109277
0 1 0.0835108 0.0127784
0 1 0.0835147 0.0145304
0 1 0.0835114 0.0130811
0 1 0.0835196 0.0163804
0 1 0.083515 0.0144967
0 1 0.08352 0.0162037
0 1 0.0834904 0.00306439
0 1 0.0834909 0.00288317
0 1 0.0834938 0.00472237
0 1 0.0834978 0.00664658
0 1 0.0835016 0.00869461
0 1 0.0834982 0.00709275
0 1 0.0834893 0.00299471
0 1 0.0835255 0.0183235
0 1 0.0835199 0.0157907
0 1 0.0835156 0.0137337
0 1 0.0835083 0.0101139
0 1 0.0835116 0.0118012
0 1 0.0834949 0.00412914
0 1 0.083499 0.00565621
0 1 0.0835037 0.00793261
0 1 0.0834995 0.00607338
0 1 0.0835195 0.0158655
0 1 0.0835247 0.018062
0 1 0.0835068 0.011022
0 1 0.0835107 0.0127093
0 1 0.0835153 0.0143446
0 1 0.0835117 0.0129122
0 1 0.0835205 0.0159895
0 1 0.0835157 0.0141797
0 1 0.0835017 0.00866477
0 1 0.0834902 0.00245124
0 1 0.0834874 0.00172618
0 1 0.0834933 0.00494
0 1 0.0834972 0.0067282
0 1 0.0834981 0.00689626
0 1 0.0834893 0.00315771
0 1 0.0834852 0.00125447
0 1 0.0835209 0.0156741
0 1 0.083526 0.0180409
0 1 0.083503 0.00805773
0 1 0.0835152 0.0138575
0 1 0.0835113 0.0119897
0 1 0.0835074 0.0101658
0 1 0.0835151 0.0140041
0 1 0.0834944 0.0040795
0 1 0.0834981 0.00586764
0 1 0.0834903 0.00261672
0 1 0.0834997 0.0068223
0 1 0.0835192 0.015899
0 1 0.0835243 0.0180984
0 1 0.0835069 0.0108028
0 1 0.0835112 0.0124528
0 1 0.083516 0.013893
0 1 0.0835123 0.0125474
0 1 0.0835164 0.0136303
0 1 0.0835018 0.00831066
0 1 0.0834863 0.0009794
0 1 0.0834932 0.00479301
0 1 0.0834975 0.00630767
0 1 0.0834887 0.00262074
0 1 0.0834864 0.00107068
0 1 0.0835212 0.0153116
0 1 0.0835265 0.0176785
0 1 0.0835032 0.00855056
0 1 0.0835111 0.0121266
0 1 0.0835078 0.0105942
0 1 0.0835149 0.0139643
0 1 0.0835118 0.0125605
0 1 0.0834933 0.00396857
0 1 0.0834965 0.00546785
0 1 0.0834898 0.00258835
0 1 0.0834986 0.00658511
0 1 0.0835016 0.0079973
0 1 0.0835149 0.0138638
0 1 0.0835191 0.0157946
0 1 0.0835241 0.0180947
0 1 0.0835073 0.0104654
0 1 0.0835119 0.0120032
0 1 0.0835165 0.0132124
0 1 0.083513 0.0120604
0 1 0.0835024 0.00808073
0 1 0.0834988 0.00638623
0 1 0.0834891 0.0022587
0 1 0.0834938 0.00440807
0 1 0.0834902 0.0027239
0 1 0.0834908 0.00273493
0 1 0.0834907 0.00265322
0 1 0.0835168 0.012887
0 1 0.0835214 0.0148908
0 1 0.0835268 0.0172433
0 1 0.0835065 0.0102003
0 1 0.0835106 0.011989
0 1 0.0835118 0.0124095
0 1 0.083503 0.00862445
0 1 0.0834936 0.00440197
0 1 0.083499 0.006825
0 1 0.0835154 0.0138473
0 1 0.0835196 0.0158051
0 1 0.0835244 0.0180523
0 1 0.0835076 0.00995069
0 1 0.0835122 0.0113644
0 1 0.0835132 0.0113468
0 1 0.0835025 0.0075989
0 1 0.0834982 0.00574302
0 1 0.0834933 0.00400306
0 1 0.0834946 0.00426354
0 1 0.0834944 0.00407463
0 1 0.0834947 0.00407657
0 1 0.0835165 0.0123953
0 1 0.0835214 0.0144175
0 1 0.0835269 0.0167611
0 1 0.0835072 0.010351
0 1 0.0835113 0.0119556
0 1 0.0835023 0.00812374
0 1 0.0834975 0.00595656
0 1 0.0835127 0.0122458
0 1 0.0835157 0.0136904
0 1 0.0835201 0.0157034
0 1 0.0835249 0.0179601
0 1 0.0835081 0.00946578
0 1 0.0835123 0.0107391
0 1 0.0835029 0.00724368
0 1 0.0834992 0.00575874
0 1 0.0834976 0.0056469
0 1 0.0834983 0.00553266
0 1 0.0834985 0.00540084
0 1 0.0834991 0.00564893
0 1 0.0835135 0.0108903
0 1 0.0835169 0.0122179
0 1 0.0835215 0.0140461
0 1 0.083527 0.0162956
0 1 0.0835074 0.0100029
0 1 0.0835022 0.00767827
0 1 0.0835118 0.0115337
0 1 0.0835162 0.0135095
0 1 0.0835205 0.0155167
0 1 0.0835255 0.0178197
0 1 0.0835082 0.00900118
0 1 0.0835029 0.00698683
0 1 0.0835027 0.00740076
0 1 0.0835028 0.00709896
0 1 0.083503 0.00695385
0 1 0.0835124 0.0103319
0 1 0.0835168 0.0119484
0 1 0.0835216 0.0137653
0 1 0.083527 0.0158772
0 1 0.0835078 0.00963425
0 1 0.0835129 0.0116278
0 1 0.0835164 0.0132287
0 1 0.0835209 0.0152522
0 1 0.0835261 0.0176082
0 1 0.0835083 0.0087922
0 1 0.0835082 0.00922672
0 1 0.0835083 0.00890325
0 1 0.0835134 0.0105819
0 1 0.0835169 0.0118379
0 1 0.0835216 0.0135445
0 1 0.083527 0.0155523
0 1 0.0835123 0.0110576
0 1 0.0835167 0.0129672
0 1 0.0835213 0.0149934
0 1 0.0835266 0.0173348
0 1 0.0835134 0.0111967
0 1 0.0835124 0.0102382
0 1 0.0835126 0.010625
0 1 0.0835134 0.0107381
0 1 0.0835168 0.0117799
0 1 0.0835215 0.0134205
0 1 0.083527 0.015366
0 1 0.0835168 0.0126526
0 1 0.0835215 0.0146509
0 1 0.083527 0.0169905
0 1 0.083517 0.0123935
0 1 0.0835169 0.0119064
0 1 0.0835169 0.0120767
0 1 0.0835214 0.0134258
0 1 0.083527 0.0153541
0 1 0.0835217 0.0143145
0 1 0.0835272 0.0165929
0 1 0.0835217 0.0139584
0 1 0.0835216 0.0136765
0 1 0.083527 0.0155015
0 1 0.0835272 0.0161756
0 1 0.0835271 0.0157888
VECTORS fa_u float
0.0060296 0.00249753 -0
0.00565204 0.00326319 -0
0.00630399 0.00168913 -0
0.00647051 0.000851836 -0
1e-08 0 0
0.00517776 0.00397302 -0
0.00461488 0.00461487 -0
1e-08 0 0
1e-08 0 0
0.00397303 0.00517776 -0
0.00326319 0.00565203 -0
0.00652632 -2.268e-08 -0
0.00647047 -0.000851879 0
1e-08 0 0
1e-08 0 0
1e-08 0 0
1e-08 0 0
1e-08 0 0
1e-08 0 0
1e-08 0 0
1e-08 0 0
0.00249752 0.00602958 -0
0.00168913 0.00630399 -0
1e-08 0 0
1e-08 0 0
1e-08 0 0
0.00630389 -0.00168915 0
1e-08 0 0
0.00602943 -0.0024975 0
1e-08 0 0
1e-08 0 0
1e-08 0 0
0.000851841 0.00647052 -0
1e-08 0 0
1e-08 0 0
1e-08 0 0
1e-08 0 0
1e-08 0 0
1e-08 0 0
1e-08 0 0
1e-08 0 0
1e-08 0 0
1e-08 0 0
-2.25346e-08 0.0065263 -0
1e-08 0 0
1e-08 0 0
1e-08 0 0
0.00565185 -0.00326312 0
1e-08 0 0
0.00517757 -0.0039729 0
1e-08 0 0
1e-08 0 0
1e-08 0 0
1e-08 0 0
1e-08 0 0
1e-08 0 0
1e-08 0 0
1e-08 0 0
1e-08 0 0
1e-08 0 0
1e-08 0 0
1e-08 0 0
1e-08 0 0
-0.00085187 0.00647043 0
1e-08 0 0
1e-08 0 0
1e-08 0 0
1e-08 0 0
1e-08 0 0
0.00461471 -0.00461472 0
1e-08 0 0
0.0039729 -0.00517758 0
1e-08 0 0
1e-08 0 0
1e-08 0 0
1e-08 0 0
1e-08 0 0
1e-08 0 0
1e-08 0 0
1e-08 0 0
1e-08 0 0
1e-08 0 0
1e-08 0 0
1e-08 0 0
1e-08 0 0
-0.00168913 0.00630386 0
1e-08 0 0
1e-08 0 0
1e-08 0 0
1e-08 0 0
1e-08 0 0
1e-08 0 0
0.00326311 -0.00565185 0
1e-08 0 0
1e-08 0 0
1e-08 0 0
1e-08 0 0
1e-08 0 0
0.00249749 -0.00602943 0
1e-08 0 0
1e-08 0 0
1e-08 0 0
1e-08 0 0
1e-08 0 0
1e-08 0 0
1e-08 0 0
1e-08 0 0
1e-08 0 0
1e-08 0 0
-0.00249749 0.00602943 0
1e-08 0 0
1e-08 0 0
1e-08 0 0
1e-08 0 0
1e-08 0 0
1e-08 0 0
1e-08 0 0
1e-08 0 0
1e-08 0 0
1e-08 0 0
1e-08 0 0
1e-08 0 0
1e-08 0 0
1e-08 0 0
0.00168913 -0.00630386 0
1e-08 0 0
1e-08 0 0
1e-08 0 0
1e-08 0 0
1e-08 0 0
1e-08 0 0
1e-08 0 0
1e-08 0 0
1e-08 0 0
-0.00326311 0.00565185 0
1e-08 0 0
1e-08 0 0
1e-08 0 0
1e-08 0 0
1e-08 0 0
1e-08 0 0
1e-08 0 0
1e-08 0 0
1e-08 0 0
1e-08 0 0
1e-08 0 0
1e-08 0 0
1e-08 0 0
1e-08 0 0
1e-08 0 0
0.00085187 -0.00647043 0
1e-08 0 0
1e-08 0 0
1e-08 0 0
1e-08 0 0
1e-08 0 0
1e-08 0 0
1e-08 0 0
1e-08 0 0
1e-08 0 0
1e-08 0 0
-0.0039729 0.00517758 0
1e-08 0 0
1e-08 0 0
1e-08 0 0
1e-08 0 0
1e-08 0 0
1e-08 0 0
1e-08 0 0
1e-08 0 0
1e-08 0 0
1e-08 0 0
1e-08 0 0
1e-08 0 0
2.25734e-08 -0.0065263 0
1e-08 0 0
1e-08 0 0
1e-08 0 0
1e-08 0 0
1e-08 0 0
1e-08 0 0
1e-08 0 0
1e-08 0 0
1e-08 0 0
1e-08 0 0
1e-08 0 0
1e-08 0 0
-0.00461471 0.00461472 0
1e-08 0 0
1e-08 0 0
1e-08 0 0
1e-08 0 0
1e-08 0 0
1e-08 0 0
1e-08 0 0
1e-08 0 0
1e-08 0 0
1e-08 0 0
1e-08 0 0
1e-08 0 0
1e-08 0 0
-0.000851841 -0.00647052 0
1e-08 0 0
1e-08 0 0
1e-08 0 0
1e-08 0 0
1e-08 0 0
1e-08 0 0
1e-08 0 0
1e-08 0 0
-0.00517757 0.0039729 0
1e-08 0 0
1e-08 0 0
1e-08 0 0
1e-08 0 0
1e-08 0 0
1e-08 0 0
1e-08 0 0
1e-08 0 0
1e-08 0 0
1e-08 0 0
1e-08 0 0
-0.00168913 -0.00630399 0
1e-08 0 0
1e-08 0 0
1e-08 0 0
1e-08 0 0
1e-08 0 0
1e-08 0 0
1e-08 0 0
-0.00565185 0.00326312 0
1e-08 0 0
1e-08 0 0
1e-08 0 0
1e-08 0 0
1e-08 0 0
1e-08 0 0
1e-08 0 0
1e-08 0 0
1e-08 0 0
1e-08 0 0
1e-08 0 0
-0.00249752 -0.00602959 0
1e-08 0 0
1e-08 0 0
1e-08 0 0
1e-08 0 0
1e-08 0 0
-0.00602943 0.0024975 0
1e-08 0 0
1e-08 0 0
1e-08 0 0
1e-08 0 0
1e-08 0 0
1e-08 0 0
1e-08 0 0
1e-08 0 0
-0.00326319 -0.00565203 0
1e-08 0 0
1e-08 0 0
1e-08 0 0
1e-08 0 0
-0.00630389 0.00168915 0
1e-08 0 0
1e-08 0 0
1e-08 0 0
1e-08 0 0
1e-08 0 0
1e-08 0 0
-0.00397302 -0.00517775 0
1e-08 0 0
1e-08 0 0
1e-08 0 0
-0.00647047 0.000851879 0
1e-08 0 0
1e-08 0 0
1e-08 0 0
1e-08 0 0
1e-08 0 0
1e-08 0 0
-0.00461488 -0.00461488 0
1e-08 0 0
1e-08 0 0
-0.00652631 2.26783e-08 0
1e-08 0 0
1e-08 0 0
1e-08 0 0
1e-08 0 0
-0.00517776 -0.00397303 0
1e-08 0 0
-0.00647051 -0.000851837 0
1e-08 0 0
1e-08 0 0
-0.00565203 -0.00326319 0
-0.00630399 -0.00168913 0
-0.0060296 -0.00249753 0
