# vtk DataFile Version 2.0
CellBP Time: 0.062
ASCII
DATASET UNSTRUCTURED_GRID
POINTS 296 double
-9.1888 -3.77684 0
-8.61026 -4.95 0
-9.60926 -2.53819 0
-9.86445 -1.25526 0
-8.35806 -2.81887 0
-7.88354 -6.03762 0
-7.02108 -7.02107 0
-7.9177 -3.87494 0
-7.34311 -4.86814 0
-6.03762 -7.88354 0
-4.95001 -8.61026 0
-9.95 0.0499977 0
-9.86445 1.35526 0
-8.65818 -1.68404 0
-8.78681 -0.529657 0
-7.59019 -2.00427 0
-7.22623 -2.90667 0
-6.63807 -5.77925 0
-5.82279 -6.59734 0
-6.79074 -3.88917 0
-6.22101 -4.67624 0
-3.77684 -9.1888 0
-2.5382 -9.60926 0
-4.9068 -7.3093 0
-3.91327 -7.88676 0
-8.79327 0.643433 0
-9.60926 2.6382 0
-8.6238 1.77418 0
-9.1888 3.87684 0
-7.74481 -0.929041 0
-7.79504 0.0802577 0
-6.95302 -1.31596 0
-1.25526 -9.86445 0
-6.44191 -2.15326 0
-6.31982 -3.05634 0
-5.53693 -5.47496 0
-4.79625 -6.11592 0
-5.65942 -3.75727 0
-5.26977 -4.56191 0
-2.86637 -8.3645 0
-1.77869 -8.64083 0
-3.92843 -6.72405 0
-3.05684 -7.15314 0
0.0499978 -9.95 0
-7.70605 1.14359 0
-8.33912 2.91561 0
-7.55244 2.11211 0
-8.61025 5.05 0
-7.8806 3.9785 0
-7.88353 6.13762 0
-6.77917 -0.396883 0
-6.95704 0.55258 0
-5.77177 -1.00347 0
-0.59088 -8.81034 0
0.565719 -8.77153 0
-5.30347 -2.48043 0
-4.49229 -5.0961 0
-3.90279 -5.77575 0
-4.43921 -3.805 0
-2.06258 -7.56253 0
-1.13557 -7.78646 0
-2.99477 -6.10252 0
-2.3092 -6.62031 0
1.35526 -9.86445 0
-6.68995 1.42215 0
-7.17275 3.11836 0
-6.65977 2.37319 0
-7.29528 4.98903 0
-6.71863 4.00338 0
-7.02107 7.12107 0
-6.57301 5.89462 0
-6.03761 7.98354 0
-4.45338 -1.18114 0
-5.81499 0.513791 0
-4.65645 -0.0103832 0
0.0085201 -7.84876 0
1.73869 -8.6445 0
0.949041 -7.76411 0
-4.03876 -2.40653 0
-3.48576 -1.39128 0
-3.29474 -4.80567 0
-3.26607 -3.26799 0
-1.37869 -6.67601 0
-0.508783 -7.02554 0
-1.9757 -5.53743 0
2.63819 -9.60926 0
-5.50773 2.03707 0
-6.09524 3.07247 0
-6.10565 4.87008 0
-5.76225 3.99184 0
-5.76182 6.71776 0
-5.45266 5.61992 0
-4.95 8.71026 0
-4.83893 7.40528 0
-3.50171 -0.424331 0
-4.4496 1.24912 0
-3.71171 0.592109 0
-4.06245 2.31998 0
-3.77683 9.2888 0
2.86287 -8.33364 0
0.419725 -6.79607 0
2.02222 -7.52659 0
1.30621 -6.90625 0
-2.44481 -0.873866 0
-2.83856 -2.13127 0
-2.29456 -4.09766 0
-2.3258 -2.9738 0
-0.442422 -5.86165 0
-1.22281 -4.49946 0
3.87683 -9.1888 0
-4.7902 3.39208 0
-5.08845 4.59461 0
-4.64768 6.28213 0
-4.53935 5.36031 0
-3.84414 7.99423 0
-3.82718 6.84649 0
-2.78361 8.42377 0
-1.64915 -0.137908 0
-1.45035 -0.890641 0
-2.48927 0.507287 0
-3.25384 1.44425 0
-3.23927 3.31681 0
-2.91118 2.37193 0
-1.35519 0.627143 0
-2.53819 9.70926 0
3.93313 -7.88785 0
2.96488 -7.15856 0
0.954177 -5.82257 0
2.07457 -6.41623 0
-1.68308 -1.99218 0
-1.43453 -3.278 0
0.0902252 -4.74737 0
-0.566215 -3.69469 0
4.93271 -7.31965 0
5.05 -8.61026 0
-3.7773 4.55205 0
-3.73518 5.7528 0
-2.88832 7.29075 0
-3.01005 6.35448 0
-1.66275 8.7347 0
-1.94035 7.62031 0
-2.33857 4.05201 0
-0.730774 -1.32733 0
-0.836947 -0.257641 0
-1.93633 1.68088 0
-2.12592 2.87605 0
-1.30667 3.54497 0
-0.869512 1.35091 0
-0.282383 0.456074 0
-0.533582 8.87278 0
-1.25526 9.96445 0
1.11288 -4.575 0
3.91063 -6.71816 0
2.98828 -6.09552 0
2.11808 -5.42554 0
4.78507 -6.20619 0
-0.558889 -2.47698 0
0.495146 -3.4641 0
0.0535557 -1.61058 0
1.48202 -3.68247 0
5.86795 -6.61555 0
6.13761 -7.88354 0
-2.47594 5.34905 0
-2.13071 6.53528 0
-0.904191 7.80437 0
-1.27251 6.93297 0
0.0862181 7.88149 0
-1.14456 4.49512 0
0.15033 -0.617681 0
-0.79748 2.48867 0
-0.331674 3.60103 0
0.0631104 1.51282 0
0.741482 0.47345 0
0.646876 8.87547 0
0.0500032 10.05 0
2.38125 -4.28568 0
3.8597 -5.64122 0
3.00183 -5.21341 0
5.57462 -5.49266 0
4.69171 -5.28383 0
0.629717 -2.29352 0
1.25628 -2.95146 0
0.757547 -1.39154 0
2.16454 -3.13611 0
2.9941 -3.47696 0
6.15617 -4.79257 0
6.65662 -5.77021 0
7.12107 -7.02107 0
-1.01975 5.82106 0
-0.372669 6.88459 0
1.12281 7.77081 0
0.558062 7.0809 0
-0.000763595 4.72568 0
0.60706 3.82819 0
1.33901 -0.641937 0
0.539141 2.65126 0
0.966152 1.57505 0
1.91034 0.213884 0
1.61489 1.06511 0
2.12977 7.5849 0
1.79952 8.71386 0
1.35527 9.96445 0
3.82334 -4.35219 0
5.11741 -4.44975 0
5.84675 -3.93582 0
3.78447 -3.20146 0
1.81244 -1.88278 0
3.01949 -2.57417 0
6.78463 -3.9486 0
7.38278 -4.89768 0
7.98353 -6.03762 0
0.483428 5.88239 0
1.42842 6.7431 0
2.37478 6.67034 0
1.21013 4.55675 0
1.48834 3.39801 0
2.43604 -0.692087 0
2.82836 0.142621 0
1.78907 2.16306 0
2.61217 1.15027 0
3.07264 7.17157 0
2.90479 8.37847 0
2.6382 9.70926 0
4.91208 -3.32842 0
6.12187 -3.10927 0
4.17346 -2.27557 0
3.24484 -1.50308 0
6.73276 -2.31351 0
7.23362 -3.04319 0
7.96659 -3.91307 0
8.71026 -4.95 0
2.02396 5.60078 0
3.08717 6.15493 0
2.36426 4.12752 0
2.4204 3.0613 0
3.52616 -0.460917 0
3.61621 0.613375 0
2.96224 2.28839 0
3.54611 1.52549 0
4.01319 5.8996 0
3.98553 6.795 0
3.97434 7.94078 0
3.87684 9.2888 0
5.56994 -1.91653 0
4.50997 -1.12978 0
6.71567 -1.33644 0
7.59461 -2.03695 0
8.39944 -2.86212 0
9.2888 -3.77684 0
3.41987 4.87808 0
3.3396 3.38599 0
4.69212 0.130101 0
4.52001 1.31021 0
4.06609 2.44426 0
4.57198 5.15406 0
4.84529 6.19282 0
4.98203 7.38279 0
5.05001 8.71026 0
5.88495 -0.435003 0
7.01313 -0.488389 0
7.76211 -1.08563 0
8.68762 -1.74648 0
9.70926 -2.5382 0
4.55369 3.82862 0
5.8194 1.09889 0
5.37279 2.53566 0
5.3821 4.62232 0
5.61431 5.52566 0
5.89936 6.67435 0
6.13762 7.98354 0
6.84863 0.463705 0
7.85637 -0.0256438 0
8.86367 -0.584546 0
9.96445 -1.25526 0
6.96329 1.34998 0
5.72337 3.77995 0
6.5441 2.19838 0
6.38288 3.08928 0
6.29516 4.68899 0
6.69582 5.8402 0
7.12108 7.12107 0
7.78766 0.968016 0
8.86302 0.572979 0
10.05 0.0500031 0
7.61956 2.00517 0
6.83226 3.90602 0
7.27283 2.94812 0
7.38148 4.88785 0
7.98354 6.13762 0
8.72662 1.72763 0
9.96445 1.35526 0
8.42454 2.83897 0
7.98503 3.91797 0
8.71026 5.05 0
9.70926 2.63819 0
9.2888 3.87684 0
CELLS 542 2168
3 2 0 4
3 0 1 7
3 4 0 7
3 1 5 8
3 7 1 8
3 3 2 13
3 13 2 4
3 11 3 14
3 14 3 13
3 13 4 15
3 4 7 16
3 15 4 16
3 5 6 17
3 8 5 17
3 6 9 18
3 17 6 18
3 7 8 19
3 16 7 19
3 8 17 20
3 19 8 20
3 9 10 23
3 18 9 23
3 10 21 24
3 23 10 24
3 12 11 25
3 25 11 14
3 26 12 27
3 27 12 25
3 14 13 29
3 29 13 15
3 25 14 30
3 30 14 29
3 29 15 31
3 15 16 33
3 31 15 33
3 16 19 34
3 33 16 34
3 17 18 35
3 20 17 35
3 18 23 36
3 35 18 36
3 19 20 37
3 34 19 37
3 20 35 38
3 37 20 38
3 21 22 39
3 24 21 39
3 22 32 40
3 39 22 40
3 23 24 41
3 36 23 41
3 24 39 42
3 41 24 42
3 27 25 44
3 44 25 30
3 28 26 45
3 45 26 27
3 45 27 46
3 46 27 44
3 47 28 48
3 48 28 45
3 30 29 50
3 50 29 31
3 44 30 51
3 51 30 50
3 50 31 52
3 31 33 52
3 32 43 53
3 40 32 53
3 53 43 54
3 33 34 55
3 34 37 55
3 33 55 52
3 35 36 56
3 38 35 56
3 36 41 57
3 56 36 57
3 37 38 58
3 38 56 58
3 37 58 55
3 39 40 59
3 42 39 59
3 40 53 60
3 59 40 60
3 41 42 61
3 57 41 61
3 42 59 62
3 61 42 62
3 43 63 54
3 46 44 64
3 64 44 51
3 48 45 65
3 65 45 46
3 65 46 66
3 66 46 64
3 49 47 67
3 67 47 48
3 67 48 68
3 68 48 65
3 69 49 70
3 70 49 67
3 52 55 72
3 64 51 73
3 51 50 73
3 50 52 73
3 73 52 74
3 74 52 72
3 53 54 75
3 60 53 75
3 54 63 76
3 54 76 77
3 75 54 77
3 55 58 78
3 72 55 78
3 72 78 79
3 56 57 80
3 57 61 80
3 56 80 58
3 58 80 81
3 78 58 81
3 59 60 82
3 62 59 82
3 60 75 83
3 82 60 83
3 61 62 84
3 62 82 84
3 61 84 80
3 63 85 76
3 66 64 86
3 64 73 86
3 68 65 87
3 87 65 66
3 87 66 86
3 70 67 88
3 88 67 68
3 88 68 89
3 89 68 87
3 71 69 90
3 90 69 70
3 90 70 91
3 91 70 88
3 92 71 93
3 93 71 90
3 74 72 94
3 94 72 79
3 86 73 95
3 95 73 74
3 95 74 96
3 96 74 94
3 97 86 95
3 76 85 99
3 75 77 100
3 83 75 100
3 76 99 101
3 77 76 101
3 77 101 102
3 100 77 102
3 94 79 103
3 78 81 104
3 79 78 104
3 79 104 103
3 80 84 105
3 81 80 105
3 81 105 106
3 104 81 106
3 82 83 107
3 83 100 107
3 82 107 84
3 84 107 108
3 105 84 108
3 85 109 99
3 89 87 110
3 87 86 110
3 110 86 97
3 91 88 111
3 111 88 89
3 111 89 110
3 93 90 112
3 112 90 91
3 112 91 113
3 113 91 111
3 98 92 114
3 114 92 93
3 114 93 115
3 115 93 112
3 116 98 114
3 117 103 118
3 96 94 119
3 94 103 119
3 119 103 117
3 97 95 120
3 120 95 96
3 120 96 119
3 121 110 97
3 121 97 122
3 122 97 120
3 123 119 117
3 124 98 116
3 99 109 125
3 99 125 126
3 101 99 126
3 100 102 127
3 100 127 107
3 101 126 128
3 102 101 128
3 102 128 127
3 104 106 129
3 104 129 103
3 103 129 118
3 105 108 130
3 106 105 130
3 106 130 129
3 107 127 131
3 108 107 131
3 108 131 132
3 108 132 130
3 109 134 125
3 125 134 133
3 113 111 135
3 111 110 135
3 135 110 121
3 115 112 136
3 136 112 113
3 136 113 135
3 116 114 137
3 137 114 115
3 137 115 138
3 138 115 136
3 139 124 116
3 139 116 140
3 140 116 137
3 141 135 121
3 118 129 142
3 118 142 143
3 117 118 143
3 123 117 143
3 122 120 144
3 120 119 144
3 144 119 123
3 141 121 145
3 145 121 122
3 145 122 144
3 146 141 145
3 147 144 123
3 147 123 148
3 143 148 123
3 150 124 139
3 149 150 139
3 131 127 151
3 125 133 152
3 126 125 152
3 126 152 153
3 128 126 153
3 128 153 154
3 128 154 127
3 127 154 151
3 152 133 155
3 130 132 156
3 130 156 129
3 129 156 142
3 131 151 157
3 132 131 157
3 132 157 156
3 156 158 142
3 157 151 159
3 133 160 155
3 134 161 133
3 133 161 160
3 138 136 162
3 136 135 162
3 162 135 141
3 140 137 163
3 163 137 138
3 163 138 162
3 149 139 164
3 164 139 140
3 164 140 165
3 165 140 163
3 166 149 164
3 167 162 141
3 167 141 146
3 142 158 168
3 143 142 168
3 143 168 148
3 146 145 169
3 145 144 169
3 169 144 147
3 170 167 146
3 170 146 169
3 171 169 147
3 171 147 148
3 171 148 172
3 168 172 148
3 173 149 166
3 174 150 149
3 173 174 149
3 154 175 151
3 151 175 159
3 152 155 176
3 153 152 176
3 153 176 177
3 153 177 154
3 154 177 175
3 155 160 178
3 155 178 179
3 176 155 179
3 156 157 180
3 156 180 158
3 157 159 181
3 157 181 180
3 158 180 182
3 158 182 168
3 159 175 183
3 159 183 181
3 175 184 183
3 160 186 178
3 178 186 185
3 161 187 160
3 160 187 186
3 165 163 188
3 163 162 188
3 188 162 167
3 166 164 189
3 189 164 165
3 189 165 188
3 190 173 166
3 190 166 191
3 191 166 189
3 192 188 167
3 192 167 170
3 193 192 170
3 182 194 168
3 194 172 168
3 193 170 195
3 170 169 195
3 195 169 171
3 196 195 171
3 196 171 172
3 194 197 172
3 197 198 172
3 198 196 172
3 200 173 190
3 199 200 190
3 201 174 173
3 200 201 173
3 176 179 202
3 177 176 202
3 177 202 175
3 175 202 184
3 178 185 203
3 178 203 179
3 179 203 202
3 203 185 204
3 202 205 184
3 183 206 181
3 180 181 206
3 180 206 182
3 182 206 194
3 183 184 207
3 205 207 184
3 183 207 206
3 185 208 204
3 186 209 185
3 185 209 208
3 187 210 186
3 186 210 209
3 191 189 211
3 189 188 211
3 211 188 192
3 199 190 212
3 212 190 191
3 212 191 211
3 213 199 212
3 214 211 192
3 214 192 193
3 215 214 193
3 215 193 195
3 206 216 194
3 216 197 194
3 216 217 197
3 215 195 218
3 218 195 196
3 198 218 196
3 217 219 197
3 219 218 198
3 197 219 198
3 220 199 213
3 221 200 199
3 220 221 199
3 222 201 200
3 221 222 200
3 203 204 223
3 203 223 202
3 202 223 205
3 204 208 224
3 204 224 223
3 205 223 225
3 205 225 207
3 207 225 226
3 207 226 206
3 226 216 206
3 208 228 224
3 224 228 227
3 209 229 208
3 229 228 208
3 210 230 209
3 209 230 229
3 213 212 231
3 212 211 231
3 231 211 214
3 232 220 213
3 232 213 231
3 233 231 214
3 233 214 215
3 234 233 215
3 234 215 218
3 226 235 216
3 235 217 216
3 235 236 217
3 217 236 219
3 237 234 218
3 237 218 219
3 236 238 219
3 238 237 219
3 240 220 232
3 239 240 232
3 241 221 220
3 240 241 220
3 242 222 221
3 241 242 221
3 224 227 243
3 224 243 223
3 223 243 225
3 225 243 244
3 225 244 226
3 226 244 235
3 227 245 243
3 228 246 227
3 227 246 245
3 229 247 228
3 228 247 246
3 230 248 229
3 229 248 247
3 239 232 249
3 232 231 249
3 249 231 233
3 250 249 233
3 250 233 234
3 237 250 234
3 244 251 235
3 235 251 236
3 251 252 236
3 236 252 238
3 252 253 238
3 253 250 237
3 253 237 238
3 254 239 249
3 255 240 239
3 254 255 239
3 256 241 240
3 255 256 240
3 257 242 241
3 256 257 241
3 245 258 243
3 243 258 244
3 244 258 251
3 245 259 258
3 246 260 245
3 245 260 259
3 247 261 246
3 246 261 260
3 248 262 247
3 247 262 261
3 254 249 263
3 263 249 250
3 253 263 250
3 258 264 251
3 251 264 252
3 264 265 252
3 265 263 253
3 252 265 253
3 266 254 263
3 267 255 254
3 266 267 254
3 268 256 255
3 267 268 255
3 269 257 256
3 268 269 256
3 259 270 258
3 270 264 258
3 260 271 259
3 259 271 270
3 261 272 260
3 260 272 271
3 262 273 261
3 273 272 261
3 270 274 264
3 275 266 263
3 275 263 265
3 274 276 264
3 276 265 264
3 276 277 265
3 277 275 265
3 278 267 266
3 275 278 266
3 279 268 267
3 278 279 267
3 280 269 268
3 279 280 268
3 271 281 270
3 270 281 274
3 272 282 271
3 271 282 281
3 273 283 272
3 272 283 282
3 281 284 274
3 274 284 276
3 285 278 275
3 277 285 275
3 284 286 276
3 286 285 277
3 276 286 277
3 287 279 278
3 285 287 278
3 288 280 279
3 287 288 279
3 282 289 281
3 281 289 284
3 283 290 282
3 282 290 289
3 289 291 284
3 284 291 286
3 291 292 286
3 292 287 285
3 286 292 285
3 293 288 287
3 292 293 287
3 290 294 289
3 289 294 291
3 294 295 291
3 295 293 292
3 291 295 292
CELL_TYPES 542
5
5
5
5
5
5
5
5
5
5
5
5
5
5
5
5
5
5
5
5
5
5
5
5
5
5
5
5
5
5
5
5
5
5
5
5
5
5
5
5
5
5
5
5
5
5
5
5
5
5
5
5
5
5
5
5
5
5
5
5
5
5
5
5
5
5
5
5
5
5
5
5
5
5
5
5
5
5
5
5
5
5
5
5
5
5
5
5
5
5
5
5
5
5
5
5
5
5
5
5
5
5
5
5
5
5
5
5
5
5
5
5
5
5
5
5
5
5
5
5
5
5
5
5
5
5
5
5
5
5
5
5
5
5
5
5
5
5
5
5
5
5
5
5
5
5
5
5
5
5
5
5
5
5
5
5
5
5
5
5
5
5
5
5
5
5
5
5
5
5
5
5
5
5
5
5
5
5
5
5
5
5
5
5
5
5
5
5
5
5
5
5
5
5
5
5
5
5
5
5
5
5
5
5
5
5
5
5
5
5
5
5
5
5
5
5
5
5
5
5
5
5
5
5
5
5
5
5
5
5
5
5
5
5
5
5
5
5
5
5
5
5
5
5
5
5
5
5
5
5
5
5
5
5
5
5
5
5
5
5
5
5
5
5
5
5
5
5
5
5
5
5
5
5
5
5
5
5
5
5
5
5
5
5
5
5
5
5
5
5
5
5
5
5
5
5
5
5
5
5
5
5
5
5
5
5
5
5
5
5
5
5
5
5
5
5
5
5
5
5
5
5
5
5
5
5
5
5
5
5
5
5
5
5
5
5
5
5
5
5
5
5
5
5
5
5
5
5
5
5
5
5
5
5
5
5
5
5
5
5
5
5
5
5
5
5
5
5
5
5
5
5
5
5
5
5
5
5
5
5
5
5
5
5
5
5
5
5
5
5
5
5
5
5
5
5
5
5
5
5
5
5
5
5
5
5
5
5
5
5
5
5
5
5
5
5
5
5
5
5
5
5
5
5
5
5
5
5
5
5
5
5
5
5
5
5
5
5
5
5
5
5
5
5
5
5
5
5
5
5
5
5
5
5
5
5
5
5
5
5
5
5
5
5
5
5
5
5
5
5
5
5
5
5
5
5
5
5
5
5
5
5
5
5
5
5
5
5
5
5
5
5
5
5
5
5
5
5
5
5
5
5
5
5
5
5
5
5
5
5
5
5
5
5
5
5
5
5
5
5
5
5
5
5
5
5
5
5
5
5
5
5
5
5
5
5
5
5
5
5
5
5
POINT_DATA 296
SCALARS concentrations float 4
LOOKUP_TABLE default
0 1 0.0449417 0.00330595
0 1 0.0449418 0.00341603
0 1 0.0449416 0.00312168
0 1 0.0449415 0.00287515
0 1 0.0449415 0.00285802
0 1 0.0449419 0.00347177
0 1 0.0449419 0.00347765
0 1 0.0449416 0.00298589
0 1 0.0449416 0.00305857
0 1 0.0449419 0.00342465
0 1 0.0449418 0.0033119
0 1 0.0449413 0.00260306
0 1 0.0449412 0.00229307
0 1 0.0449414 0.00266763
0 1 0.0449412 0.00243467
0 1 0.0449413 0.00246513
0 1 0.0449413 0.00257868
0 1 0.0449417 0.00308243
0 1 0.0449417 0.00306045
0 1 0.0449414 0.00268929
0 1 0.0449415 0.00271834
0 1 0.0449418 0.00313731
0 1 0.0449417 0.00290074
0 1 0.0449417 0.00298819
0 1 0.0449416 0.00286276
0 1 0.0449411 0.00217773
0 1 0.044941 0.00194438
0 1 0.0449409 0.0018921
0 1 0.0449408 0.00160823
0 1 0.0449412 0.00225974
0 1 0.044941 0.00204925
0 1 0.0449411 0.00214493
0 1 0.0449416 0.00262005
0 1 0.0449411 0.00220185
0 1 0.0449412 0.00237518
0 1 0.0449415 0.00272224
0 1 0.0449415 0.00267719
0 1 0.0449413 0.00236209
0 1 0.0449413 0.00244276
0 1 0.0449415 0.00269627
0 1 0.0449415 0.0024705
0 1 0.0449414 0.00259132
0 1 0.0449414 0.00246151
0 1 0.0449414 0.00229777
0 1 0.0449409 0.00180103
0 1 0.0449408 0.00159291
0 1 0.0449407 0.00156943
0 1 0.0449406 0.00129401
0 1 0.0449406 0.00131157
0 1 0.0449405 0.00105556
0 1 0.0449409 0.00189928
0 1 0.0449409 0.00174207
0 1 0.0449409 0.00177947
0 1 0.0449413 0.00219645
0 1 0.0449412 0.001885
0 1 0.044941 0.00198343
0 1 0.0449413 0.00236164
0 1 0.0449413 0.00236372
0 1 0.0449411 0.00205616
0 1 0.0449413 0.00229403
0 1 0.0449413 0.00210144
0 1 0.0449412 0.00220104
0 1 0.0449412 0.00214061
0 1 0.0449413 0.00193697
0 1 0.0449407 0.00150485
0 1 0.0449406 0.001305
0 1 0.0449406 0.00132416
0 1 0.0449405 0.00107866
0 1 0.0449405 0.00109619
0 1 0.0449406 0.00099874
0 1 0.0449405 0.000960559
0 1 0.0449407 0.00113512
0 1 0.0449408 0.00149528
0 1 0.0449407 0.00147893
0 1 0.0449406 0.00131462
0 1 0.0449412 0.0018168
0 1 0.0449411 0.00155173
0 1 0.0449411 0.00155452
0 1 0.0449409 0.00164894
0 1 0.0449407 0.00130938
0 1 0.0449411 0.00198451
0 1 0.0449409 0.00163993
0 1 0.0449411 0.0019103
0 1 0.0449411 0.00176368
0 1 0.0449411 0.00180804
0 1 0.0449411 0.00154319
0 1 0.0449405 0.00114583
0 1 0.0449405 0.00110687
0 1 0.0449404 0.000951421
0 1 0.0449404 0.000964234
0 1 0.0449406 0.00101045
0 1 0.0449405 0.000937424
0 1 0.0449409 0.00142806
0 1 0.0449408 0.0012075
0 1 0.0449406 0.00113713
0 1 0.0449405 0.00106233
0 1 0.0449405 0.00101985
0 1 0.0449404 0.000887639
0 1 0.0449411 0.00177356
0 1 0.044941 0.00119382
0 1 0.044941 0.00147411
0 1 0.0449409 0.00122903
0 1 0.0449409 0.00127456
0 1 0.0449405 0.000995482
0 1 0.0449407 0.00130249
0 1 0.0449409 0.00157404
0 1 0.0449408 0.00134801
0 1 0.0449409 0.00148825
0 1 0.0449408 0.00139271
0 1 0.044941 0.00113043
0 1 0.0449404 0.00089976
0 1 0.0449405 0.000899207
0 1 0.0449407 0.00105959
0 1 0.0449406 0.000958041
0 1 0.044941 0.00148838
0 1 0.0449408 0.00126835
0 1 0.0449411 0.00180284
0 1 0.0449405 0.000785171
0 1 0.0449405 0.000824619
0 1 0.0449404 0.000836967
0 1 0.0449404 0.000857212
0 1 0.0449405 0.000851132
0 1 0.0449404 0.00081091
0 1 0.0449405 0.00074468
0 1 0.0449414 0.0021511
0 1 0.0449409 0.000836825
0 1 0.0449408 0.000921457
0 1 0.0449408 0.00113433
0 1 0.0449408 0.000985619
0 1 0.0449406 0.00102016
0 1 0.0449407 0.00119736
0 1 0.0449408 0.00112581
0 1 0.0449407 0.00107673
0 1 0.0449408 0.000530337
0 1 0.0449409 0.000717403
0 1 0.0449406 0.000929199
0 1 0.0449407 0.00109427
0 1 0.044941 0.00153443
0 1 0.0449408 0.00131964
0 1 0.0449413 0.00213096
0 1 0.0449411 0.00181049
0 1 0.0449407 0.00101547
0 1 0.0449405 0.000765069
0 1 0.0449405 0.000721607
0 1 0.0449405 0.000783825
0 1 0.0449406 0.000876196
0 1 0.0449407 0.00108374
0 1 0.0449406 0.000807064
0 1 0.0449406 0.000756025
0 1 0.0449415 0.00242873
0 1 0.0449416 0.00251986
0 1 0.0449407 0.000864642
0 1 0.0449407 0.000636308
0 1 0.0449407 0.000724368
0 1 0.0449407 0.000795252
0 1 0.0449407 0.000469178
0 1 0.0449406 0.000872035
0 1 0.0449406 0.000815339
0 1 0.0449405 0.000695483
0 1 0.0449406 0.000675739
0 1 0.0449408 0.000446529
0 1 0.0449408 0.000412909
0 1 0.0449408 0.00122158
0 1 0.044941 0.00152975
0 1 0.0449413 0.00208847
0 1 0.0449411 0.00180296
0 1 0.0449415 0.00233961
0 1 0.0449409 0.00129785
0 1 0.0449405 0.000692888
0 1 0.0449407 0.000977533
0 1 0.0449409 0.00127094
0 1 0.0449407 0.000939186
0 1 0.0449407 0.000863615
0 1 0.0449417 0.00271385
0 1 0.0449417 0.0028514
0 1 0.0449406 0.000607618
0 1 0.0449407 0.000528172
0 1 0.0449407 0.000604791
0 1 0.0449408 0.000560142
0 1 0.0449407 0.000504944
0 1 0.0449405 0.000674627
0 1 0.0449406 0.000647193
0 1 0.0449405 0.000661013
0 1 0.0449406 0.000591355
0 1 0.0449406 0.000579968
0 1 0.0449409 0.000794067
0 1 0.0449409 0.000690151
0 1 0.0449409 0.000533458
0 1 0.044941 0.00160822
0 1 0.0449413 0.00199611
0 1 0.0449416 0.00256251
0 1 0.0449414 0.00226087
0 1 0.044941 0.00158408
0 1 0.044941 0.00151481
0 1 0.0449406 0.000768867
0 1 0.0449409 0.00124397
0 1 0.0449408 0.00110427
0 1 0.0449408 0.00100655
0 1 0.0449408 0.00112385
0 1 0.0449417 0.00276344
0 1 0.0449418 0.00295865
0 1 0.0449419 0.00315522
0 1 0.0449407 0.000543936
0 1 0.0449408 0.000670278
0 1 0.044941 0.000914731
0 1 0.0449407 0.00068627
0 1 0.0449406 0.000660006
0 1 0.0449407 0.000685332
0 1 0.0449411 0.00112245
0 1 0.0449411 0.00104212
0 1 0.0449411 0.000919507
0 1 0.0449412 0.00195961
0 1 0.0449415 0.00238832
0 1 0.0449416 0.00260079
0 1 0.0449412 0.00181713
0 1 0.0449411 0.00161187
0 1 0.0449408 0.000923379
0 1 0.0449409 0.00117229
0 1 0.044941 0.00139793
0 1 0.044941 0.00134946
0 1 0.0449418 0.00289499
0 1 0.0449419 0.00314961
0 1 0.0449421 0.0034137
0 1 0.0449409 0.000853521
0 1 0.0449411 0.00116278
0 1 0.0449409 0.000928203
0 1 0.0449408 0.000909559
0 1 0.0449412 0.00149475
0 1 0.0449412 0.00144308
0 1 0.0449412 0.00141547
0 1 0.0449413 0.0013491
0 1 0.0449414 0.00225697
0 1 0.0449417 0.00265039
0 1 0.0449413 0.00198562
0 1 0.0449412 0.00174658
0 1 0.0449409 0.00118689
0 1 0.0449411 0.00145082
0 1 0.0449412 0.00169094
0 1 0.0449412 0.00164756
0 1 0.0449418 0.00281764
0 1 0.0449419 0.0030298
0 1 0.044942 0.00330811
0 1 0.0449422 0.00361583
0 1 0.0449411 0.00131173
0 1 0.044941 0.0012516
0 1 0.0449413 0.00172446
0 1 0.0449414 0.00177321
0 1 0.0449414 0.00177592
0 1 0.0449414 0.00177965
0 1 0.0449415 0.00242124
0 1 0.0449413 0.00204109
0 1 0.0449412 0.00158719
0 1 0.0449413 0.00182728
0 1 0.0449413 0.00199004
0 1 0.0449417 0.00277424
0 1 0.0449419 0.00309909
0 1 0.0449421 0.00342559
0 1 0.0449423 0.0037711
0 1 0.0449413 0.00173819
0 1 0.0449414 0.00200336
0 1 0.0449415 0.00204545
0 1 0.0449416 0.002119
0 1 0.0449416 0.00218913
0 1 0.0449416 0.00244495
0 1 0.0449414 0.00209337
0 1 0.0449415 0.00233304
0 1 0.0449418 0.00284674
0 1 0.0449419 0.00312933
0 1 0.0449421 0.00348724
0 1 0.0449423 0.00386772
0 1 0.0449415 0.00219464
0 1 0.0449416 0.00232832
0 1 0.0449417 0.00244695
0 1 0.0449418 0.00256693
0 1 0.0449416 0.00244088
0 1 0.0449417 0.00272566
0 1 0.0449417 0.00254372
0 1 0.0449418 0.00272231
0 1 0.0449419 0.00309485
0 1 0.0449421 0.00348664
0 1 0.0449424 0.00392005
0 1 0.0449417 0.00255565
0 1 0.0449418 0.00273232
0 1 0.0449419 0.00290705
0 1 0.0449418 0.00276889
0 1 0.0449419 0.00303756
0 1 0.0449419 0.00291292
0 1 0.0449421 0.00342007
0 1 0.0449424 0.00389137
0 1 0.0449419 0.00298436
0 1 0.0449421 0.00321058
0 1 0.044942 0.0031814
0 1 0.0449421 0.00333278
0 1 0.0449423 0.00379416
0 1 0.0449422 0.0034657
0 1 0.0449423 0.00366089
VECTORS fa_u float
0.00602952 0.00249751 -0
0.00565195 0.00326315 -0
0.00630393 0.00168913 -0
0.00647047 0.000851852 -0
1e-08 0 0
0.00517767 0.00397296 -0
0.0046148 0.0046148 -0
1e-08 0 0
1e-08 0 0
0.00397297 0.00517767 -0
0.00326316 0.00565195 -0
0.0065263 -1.82809e-09 -0
0.00647049 -0.000851862 0
1e-08 0 0
1e-08 0 0
1e-08 0 0
1e-08 0 0
1e-08 0 0
1e-08 0 0
1e-08 0 0
1e-08 0 0
0.00249751 0.00602951 -0
0.00168914 0.00630395 -0
1e-08 0 0
1e-08 0 0
1e-08 0 0
0.00630394 -0.00168914 0
1e-08 0 0
0.0060295 -0.00249751 0
1e-08 0 0
1e-08 0 0
1e-08 0 0
0.000851859 0.0064705 -0
1e-08 0 0
1e-08 0 0
1e-08 0 0
1e-08 0 0
1e-08 0 0
1e-08 0 0
1e-08 0 0
1e-08 0 0
1e-08 0 0
1e-08 0 0
-1.69719e-09 0.0065263 -0
1e-08 0 0
1e-08 0 0
1e-08 0 0
0.00565194 -0.00326315 0
1e-08 0 0
0.00517766 -0.00397296 0
1e-08 0 0
1e-08 0 0
1e-08 0 0
1e-08 0 0
1e-08 0 0
1e-08 0 0
1e-08 0 0
1e-08 0 0
1e-08 0 0
1e-08 0 0
1e-08 0 0
1e-08 0 0
1e-08 0 0
-0.000851854 0.00647047 0
1e-08 0 0
1e-08 0 0
1e-08 0 0
1e-08 0 0
1e-08 0 0
0.00461479 -0.00461479 0
1e-08 0 0
0.00397295 -0.00517766 0
1e-08 0 0
1e-08 0 0
1e-08 0 0
1e-08 0 0
1e-08 0 0
1e-08 0 0
1e-08 0 0
1e-08 0 0
1e-08 0 0
1e-08 0 0
1e-08 0 0
1e-08 0 0
1e-08 0 0
-0.00168913 0.00630392 0
1e-08 0 0
1e-08 0 0
1e-08 0 0
1e-08 0 0
1e-08 0 0
1e-08 0 0
0.00326315 -0.00565194 0
1e-08 0 0
1e-08 0 0
1e-08 0 0
1e-08 0 0
1e-08 0 0
0.0024975 -0.00602951 0
1e-08 0 0
1e-08 0 0
1e-08 0 0
1e-08 0 0
1e-08 0 0
1e-08 0 0
1e-08 0 0
1e-08 0 0
1e-08 0 0
1e-08 0 0
-0.0024975 0.00602951 0
1e-08 0 0
1e-08 0 0
1e-08 0 0
1e-08 0 0
1e-08 0 0
1e-08 0 0
1e-08 0 0
1e-08 0 0
1e-08 0 0
1e-08 0 0
1e-08 0 0
1e-08 0 0
1e-08 0 0
1e-08 0 0
0.00168913 -0.00630392 0
1e-08 0 0
1e-08 0 0
1e-08 0 0
1e-08 0 0
1e-08 0 0
1e-08 0 0
1e-08 0 0
1e-08 0 0
1e-08 0 0
-0.00326315 0.00565194 0
1e-08 0 0
1e-08 0 0
1e-08 0 0
1e-08 0 0
1e-08 0 0
1e-08 0 0
1e-08 0 0
1e-08 0 0
1e-08 0 0
1e-08 0 0
1e-08 0 0
1e-08 0 0
1e-08 0 0
1e-08 0 0
1e-08 0 0
0.000851855 -0.00647047 0
1e-08 0 0
1e-08 0 0
1e-08 0 0
1e-08 0 0
1e-08 0 0
1e-08 0 0
1e-08 0 0
1e-08 0 0
1e-08 0 0
1e-08 0 0
-0.00397296 0.00517766 0
1e-08 0 0
1e-08 0 0
1e-08 0 0
1e-08 0 0
1e-08 0 0
1e-08 0 0
1e-08 0 0
1e-08 0 0
1e-08 0 0
1e-08 0 0
1e-08 0 0
1e-08 0 0
1.65557e-09 -0.0065263 0
1e-08 0 0
1e-08 0 0
1e-08 0 0
1e-08 0 0
1e-08 0 0
1e-08 0 0
1e-08 0 0
1e-08 0 0
1e-08 0 0
1e-08 0 0
1e-08 0 0
1e-08 0 0
-0.00461479 0.00461479 0
1e-08 0 0
1e-08 0 0
1e-08 0 0
1e-08 0 0
1e-08 0 0
1e-08 0 0
1e-08 0 0
1e-08 0 0
1e-08 0 0
1e-08 0 0
1e-08 0 0
1e-08 0 0
1e-08 0 0
-0.000851859 -0.0064705 0
1e-08 0 0
1e-08 0 0
1e-08 0 0
1e-08 0 0
1e-08 0 0
1e-08 0 0
1e-08 0 0
1e-08 0 0
-0.00517766 0.00397296 0
1e-08 0 0
1e-08 0 0
1e-08 0 0
1e-08 0 0
1e-08 0 0
1e-08 0 0
1e-08 0 0
1e-08 0 0
1e-08 0 0
1e-08 0 0
1e-08 0 0
-0.00168914 -0.00630395 0
1e-08 0 0
1e-08 0 0
1e-08 0 0
1e-08 0 0
1e-08 0 0
1e-08 0 0
1e-08 0 0
-0.00565193 0.00326315 0
1e-08 0 0
1e-08 0 0
1e-08 0 0
1e-08 0 0
1e-08 0 0
1e-08 0 0
1e-08 0 0
1e-08 0 0
1e-08 0 0
1e-08 0 0
1e-08 0 0
-0.00249751 -0.00602951 0
1e-08 0 0
1e-08 0 0
1e-08 0 0
1e-08 0 0
1e-08 0 0
-0.0060295 0.00249751 0
1e-08 0 0
1e-08 0 0
1e-08 0 0
1e-08 0 0
1e-08 0 0
1e-08 0 0
1e-08 0 0
1e-08 0 0
-0.00326316 -0.00565195 0
1e-08 0 0
1e-08 0 0
1e-08 0 0
1e-08 0 0
-0.00630394 0.00168914 0
1e-08 0 0
1e-08 0 0
1e-08 0 0
1e-08 0 0
1e-08 0 0
1e-08 0 0
-0.00397297 -0.00517767 0
1e-08 0 0
1e-08 0 0
1e-08 0 0
-0.00647049 0.000851861 0
1e-08 0 0
1e-08 0 0
1e-08 0 0
1e-08 0 0
1e-08 0 0
1e-08 0 0
-0.0046148 -0.0046148 0
1e-08 0 0
1e-08 0 0
-0.0065263 1.79199e-09 0
1e-08 0 0
1e-08 0 0
1e-08 0 0
1e-08 0 0
-0.00517767 -0.00397297 0
1e-08 0 0
-0.00647047 -0.000851852 0
1e-08 0 0
1e-08 0 0
-0.00565195 -0.00326315 0
-0.00630393 -0.00168913 0
-0.00602953 -0.00249751 0
