# vtk DataFile Version 2.0
CellBP Time: 0.073
ASCII
DATASET UNSTRUCTURED_GRID
POINTS 296 double
-9.1888 -3.77684 0
-8.61026 -4.95 0
-9.60926 -2.53819 0
-9.86445 -1.25527 0
-8.35806 -2.81887 0
-7.88354 -6.03762 0
-7.02108 -7.02107 0
-7.9177 -3.87494 0
-7.34311 -4.86814 0
-6.03762 -7.88354 0
-4.95001 -8.61026 0
-9.95001 0.0499966 0
-9.86445 1.35526 0
-8.65818 -1.68404 0
-8.78682 -0.529658 0
-7.5902 -2.00427 0
-7.22623 -2.90667 0
-6.63807 -5.77926 0
-5.82279 -6.59734 0
-6.79074 -3.88917 0
-6.22101 -4.67624 0
-3.77685 -9.1888 0
-2.5382 -9.60926 0
-4.9068 -7.3093 0
-3.91328 -7.88676 0
-8.79327 0.643432 0
-9.60926 2.6382 0
-8.6238 1.77418 0
-9.1888 3.87684 0
-7.74481 -0.929042 0
-7.79504 0.0802569 0
-6.95302 -1.31597 0
-1.25527 -9.86445 0
-6.44191 -2.15327 0
-6.31982 -3.05634 0
-5.53693 -5.47496 0
-4.79625 -6.11592 0
-5.65942 -3.75727 0
-5.26977 -4.56192 0
-2.86637 -8.36451 0
-1.77869 -8.64084 0
-3.92843 -6.72405 0
-3.05685 -7.15314 0
0.0499965 -9.95 0
-7.70605 1.14359 0
-8.33912 2.91561 0
-7.55244 2.11211 0
-8.61025 5.05 0
-7.8806 3.9785 0
-7.88353 6.13762 0
-6.77917 -0.396884 0
-6.95704 0.552579 0
-5.77177 -1.00347 0
-0.590881 -8.81034 0
0.565718 -8.77153 0
-5.30347 -2.48043 0
-4.49229 -5.0961 0
-3.90279 -5.77575 0
-4.43921 -3.805 0
-2.06258 -7.56253 0
-1.13557 -7.78646 0
-2.99477 -6.10252 0
-2.3092 -6.62031 0
1.35526 -9.86445 0
-6.68995 1.42215 0
-7.17275 3.11836 0
-6.65977 2.37319 0
-7.29528 4.98903 0
-6.71863 4.00338 0
-7.02107 7.12107 0
-6.57301 5.89461 0
-6.03761 7.98354 0
-4.45338 -1.18114 0
-5.81499 0.51379 0
-4.65645 -0.0103837 0
0.00851901 -7.84876 0
1.73869 -8.6445 0
0.94904 -7.76411 0
-4.03876 -2.40653 0
-3.48576 -1.39128 0
-3.29474 -4.80567 0
-3.26607 -3.26799 0
-1.37869 -6.67601 0
-0.508784 -7.02554 0
-1.9757 -5.53743 0
2.63819 -9.60926 0
-5.50773 2.03707 0
-6.09524 3.07247 0
-6.10565 4.87008 0
-5.76225 3.99184 0
-5.76182 6.71776 0
-5.45266 5.61992 0
-4.95 8.71026 0
-4.83893 7.40528 0
-3.50171 -0.424331 0
-4.4496 1.24912 0
-3.71171 0.592109 0
-4.06245 2.31997 0
-3.77683 9.2888 0
2.86286 -8.33364 0
0.419724 -6.79607 0
2.02222 -7.52659 0
1.30621 -6.90625 0
-2.44482 -0.873867 0
-2.83856 -2.13127 0
-2.29456 -4.09766 0
-2.3258 -2.9738 0
-0.442423 -5.86165 0
-1.22281 -4.49946 0
3.87683 -9.1888 0
-4.7902 3.39208 0
-5.08845 4.59461 0
-4.64768 6.28213 0
-4.53935 5.36031 0
-3.84414 7.99423 0
-3.82718 6.84649 0
-2.78361 8.42377 0
-1.64915 -0.137908 0
-1.45035 -0.890642 0
-2.48927 0.507286 0
-3.25384 1.44425 0
-3.23927 3.31681 0
-2.91118 2.37193 0
-1.35519 0.627143 0
-2.53819 9.70926 0
3.93313 -7.88785 0
2.96488 -7.15856 0
0.954177 -5.82257 0
2.07457 -6.41623 0
-1.68308 -1.99218 0
-1.43453 -3.278 0
0.0902244 -4.74737 0
-0.566215 -3.69469 0
4.93271 -7.31965 0
5.05 -8.61026 0
-3.77731 4.55205 0
-3.73518 5.7528 0
-2.88832 7.29075 0
-3.01005 6.35448 0
-1.66275 8.7347 0
-1.94035 7.62031 0
-2.33857 4.05201 0
-0.730775 -1.32733 0
-0.836947 -0.257641 0
-1.93633 1.68088 0
-2.12592 2.87605 0
-1.30667 3.54497 0
-0.869512 1.35091 0
-0.282383 0.456074 0
-0.533581 8.87278 0
-1.25526 9.96445 0
1.11288 -4.575 0
3.91063 -6.71816 0
2.98828 -6.09552 0
2.11808 -5.42554 0
4.78507 -6.20619 0
-0.558889 -2.47698 0
0.495146 -3.4641 0
0.0535553 -1.61058 0
1.48202 -3.68247 0
5.86795 -6.61555 0
6.13761 -7.88354 0
-2.47594 5.34905 0
-2.13071 6.53528 0
-0.904191 7.80437 0
-1.27251 6.93297 0
0.0862187 7.88149 0
-1.14456 4.49512 0
0.150329 -0.617681 0
-0.79748 2.48867 0
-0.331674 3.60103 0
0.0631103 1.51282 0
0.741482 0.47345 0
0.646877 8.87547 0
0.050004 10.05 0
2.38125 -4.28568 0
3.8597 -5.64122 0
3.00183 -5.21341 0
5.57462 -5.49266 0
4.69171 -5.28383 0
0.629717 -2.29352 0
1.25628 -2.95146 0
0.757547 -1.39154 0
2.16454 -3.13611 0
2.9941 -3.47696 0
6.15617 -4.79257 0
6.65662 -5.77021 0
7.12107 -7.02107 0
-1.01975 5.82106 0
-0.372668 6.88459 0
1.12281 7.77081 0
0.558063 7.0809 0
-0.00076339 4.72568 0
0.60706 3.82819 0
1.33901 -0.641937 0
0.539141 2.65126 0
0.966152 1.57505 0
1.91034 0.213884 0
1.61489 1.06511 0
2.12977 7.5849 0
1.79952 8.71386 0
1.35527 9.96445 0
3.82334 -4.35219 0
5.11741 -4.44975 0
5.84675 -3.93582 0
3.78447 -3.20146 0
1.81244 -1.88278 0
3.01949 -2.57417 0
6.78463 -3.9486 0
7.38278 -4.89768 0
7.98353 -6.03762 0
0.483428 5.88239 0
1.42842 6.7431 0
2.37478 6.67034 0
1.21013 4.55676 0
1.48834 3.39802 0
2.43604 -0.692087 0
2.82836 0.142621 0
1.78907 2.16306 0
2.61217 1.15027 0
3.07264 7.17157 0
2.90479 8.37847 0
2.6382 9.70926 0
4.91208 -3.32842 0
6.12187 -3.10927 0
4.17346 -2.27557 0
3.24484 -1.50308 0
6.73276 -2.31351 0
7.23362 -3.04319 0
7.96659 -3.91307 0
8.71025 -4.95 0
2.02396 5.60078 0
3.08717 6.15493 0
2.36426 4.12752 0
2.4204 3.0613 0
3.52616 -0.460917 0
3.61621 0.613375 0
2.96224 2.2884 0
3.54611 1.52549 0
4.01319 5.8996 0
3.98553 6.795 0
3.97434 7.94078 0
3.87685 9.2888 0
5.56994 -1.91653 0
4.50997 -1.12978 0
6.71567 -1.33644 0
7.59461 -2.03695 0
8.39944 -2.86212 0
9.2888 -3.77684 0
3.41987 4.87808 0
3.3396 3.38599 0
4.69212 0.130101 0
4.52001 1.31021 0
4.06609 2.44426 0
4.57198 5.15406 0
4.84529 6.19283 0
4.98203 7.38279 0
5.05001 8.71026 0
5.88495 -0.435002 0
7.01313 -0.488388 0
7.76211 -1.08563 0
8.68762 -1.74648 0
9.70926 -2.5382 0
4.55369 3.82862 0
5.8194 1.09889 0
5.37279 2.53566 0
5.3821 4.62232 0
5.61431 5.52566 0
5.89936 6.67435 0
6.13762 7.98354 0
6.84863 0.463705 0
7.85637 -0.0256431 0
8.86367 -0.584545 0
9.96445 -1.25526 0
6.96329 1.34998 0
5.72337 3.77995 0
6.5441 2.19838 0
6.38288 3.08928 0
6.29516 4.68899 0
6.69582 5.8402 0
7.12108 7.12107 0
7.78766 0.968017 0
8.86302 0.57298 0
10.05 0.0500041 0
7.61956 2.00517 0
6.83226 3.90602 0
7.27283 2.94812 0
7.38148 4.88785 0
7.98354 6.13762 0
8.72662 1.72763 0
9.96446 1.35527 0
8.42454 2.83897 0
7.98503 3.91797 0
8.71026 5.05 0
9.70927 2.63819 0
9.2888 3.87684 0
CELLS 542 2168
3 2 0 4
3 0 1 7
3 4 0 7
3 1 5 8
3 7 1 8
3 3 2 13
3 13 2 4
3 11 3 14
3 14 3 13
3 13 4 15
3 4 7 16
3 15 4 16
3 5 6 17
3 8 5 17
3 6 9 18
3 17 6 18
3 7 8 19
3 16 7 19
3 8 17 20
3 19 8 20
3 9 10 23
3 18 9 23
3 10 21 24
3 23 10 24
3 12 11 25
3 25 11 14
3 26 12 27
3 27 12 25
3 14 13 29
3 29 13 15
3 25 14 30
3 30 14 29
3 29 15 31
3 15 16 33
3 31 15 33
3 16 19 34
3 33 16 34
3 17 18 35
3 20 17 35
3 18 23 36
3 35 18 36
3 19 20 37
3 34 19 37
3 20 35 38
3 37 20 38
3 21 22 39
3 24 21 39
3 22 32 40
3 39 22 40
3 23 24 41
3 36 23 41
3 24 39 42
3 41 24 42
3 27 25 44
3 44 25 30
3 28 26 45
3 45 26 27
3 45 27 46
3 46 27 44
3 47 28 48
3 48 28 45
3 30 29 50
3 50 29 31
3 44 30 51
3 51 30 50
3 50 31 52
3 31 33 52
3 32 43 53
3 40 32 53
3 53 43 54
3 33 34 55
3 34 37 55
3 33 55 52
3 35 36 56
3 38 35 56
3 36 41 57
3 56 36 57
3 37 38 58
3 38 56 58
3 37 58 55
3 39 40 59
3 42 39 59
3 40 53 60
3 59 40 60
3 41 42 61
3 57 41 61
3 42 59 62
3 61 42 62
3 43 63 54
3 46 44 64
3 64 44 51
3 48 45 65
3 65 45 46
3 65 46 66
3 66 46 64
3 49 47 67
3 67 47 48
3 67 48 68
3 68 48 65
3 69 49 70
3 70 49 67
3 52 55 72
3 64 51 73
3 51 50 73
3 50 52 73
3 73 52 74
3 74 52 72
3 53 54 75
3 60 53 75
3 54 63 76
3 54 76 77
3 75 54 77
3 55 58 78
3 72 55 78
3 72 78 79
3 56 57 80
3 57 61 80
3 56 80 58
3 58 80 81
3 78 58 81
3 59 60 82
3 62 59 82
3 60 75 83
3 82 60 83
3 61 62 84
3 62 82 84
3 61 84 80
3 63 85 76
3 66 64 86
3 64 73 86
3 68 65 87
3 87 65 66
3 87 66 86
3 70 67 88
3 88 67 68
3 88 68 89
3 89 68 87
3 71 69 90
3 90 69 70
3 90 70 91
3 91 70 88
3 92 71 93
3 93 71 90
3 74 72 94
3 94 72 79
3 86 73 95
3 95 73 74
3 95 74 96
3 96 74 94
3 97 86 95
3 76 85 99
3 75 77 100
3 83 75 100
3 76 99 101
3 77 76 101
3 77 101 102
3 100 77 102
3 94 79 103
3 78 81 104
3 79 78 104
3 79 104 103
3 80 84 105
3 81 80 105
3 81 105 106
3 104 81 106
3 82 83 107
3 83 100 107
3 82 107 84
3 84 107 108
3 105 84 108
3 85 109 99
3 89 87 110
3 87 86 110
3 110 86 97
3 91 88 111
3 111 88 89
3 111 89 110
3 93 90 112
3 112 90 91
3 112 91 113
3 113 91 111
3 98 92 114
3 114 92 93
3 114 93 115
3 115 93 112
3 116 98 114
3 117 103 118
3 96 94 119
3 94 103 119
3 119 103 117
3 97 95 120
3 120 95 96
3 120 96 119
3 121 110 97
3 121 97 122
3 122 97 120
3 123 119 117
3 124 98 116
3 99 109 125
3 99 125 126
3 101 99 126
3 100 102 127
3 100 127 107
3 101 126 128
3 102 101 128
3 102 128 127
3 104 106 129
3 104 129 103
3 103 129 118
3 105 108 130
3 106 105 130
3 106 130 129
3 107 127 131
3 108 107 131
3 108 131 132
3 108 132 130
3 109 134 125
3 125 134 133
3 113 111 135
3 111 110 135
3 135 110 121
3 115 112 136
3 136 112 113
3 136 113 135
3 116 114 137
3 137 114 115
3 137 115 138
3 138 115 136
3 139 124 116
3 139 116 140
3 140 116 137
3 141 135 121
3 118 129 142
3 118 142 143
3 117 118 143
3 123 117 143
3 122 120 144
3 120 119 144
3 144 119 123
3 141 121 145
3 145 121 122
3 145 122 144
3 146 141 145
3 147 144 123
3 147 123 148
3 143 148 123
3 150 124 139
3 149 150 139
3 131 127 151
3 125 133 152
3 126 125 152
3 126 152 153
3 128 126 153
3 128 153 154
3 128 154 127
3 127 154 151
3 152 133 155
3 130 132 156
3 130 156 129
3 129 156 142
3 131 151 157
3 132 131 157
3 132 157 156
3 156 158 142
3 157 151 159
3 133 160 155
3 134 161 133
3 133 161 160
3 138 136 162
3 136 135 162
3 162 135 141
3 140 137 163
3 163 137 138
3 163 138 162
3 149 139 164
3 164 139 140
3 164 140 165
3 165 140 163
3 166 149 164
3 167 162 141
3 167 141 146
3 142 158 168
3 143 142 168
3 143 168 148
3 146 145 169
3 145 144 169
3 169 144 147
3 170 167 146
3 170 146 169
3 171 169 147
3 171 147 148
3 171 148 172
3 168 172 148
3 173 149 166
3 174 150 149
3 173 174 149
3 154 175 151
3 151 175 159
3 152 155 176
3 153 152 176
3 153 176 177
3 153 177 154
3 154 177 175
3 155 160 178
3 155 178 179
3 176 155 179
3 156 157 180
3 156 180 158
3 157 159 181
3 157 181 180
3 158 180 182
3 158 182 168
3 159 175 183
3 159 183 181
3 175 184 183
3 160 186 178
3 178 186 185
3 161 187 160
3 160 187 186
3 165 163 188
3 163 162 188
3 188 162 167
3 166 164 189
3 189 164 165
3 189 165 188
3 190 173 166
3 190 166 191
3 191 166 189
3 192 188 167
3 192 167 170
3 193 192 170
3 182 194 168
3 194 172 168
3 193 170 195
3 170 169 195
3 195 169 171
3 196 195 171
3 196 171 172
3 194 197 172
3 197 198 172
3 198 196 172
3 200 173 190
3 199 200 190
3 201 174 173
3 200 201 173
3 176 179 202
3 177 176 202
3 177 202 175
3 175 202 184
3 178 185 203
3 178 203 179
3 179 203 202
3 203 185 204
3 202 205 184
3 183 206 181
3 180 181 206
3 180 206 182
3 182 206 194
3 183 184 207
3 205 207 184
3 183 207 206
3 185 208 204
3 186 209 185
3 185 209 208
3 187 210 186
3 186 210 209
3 191 189 211
3 189 188 211
3 211 188 192
3 199 190 212
3 212 190 191
3 212 191 211
3 213 199 212
3 214 211 192
3 214 192 193
3 215 214 193
3 215 193 195
3 206 216 194
3 216 197 194
3 216 217 197
3 215 195 218
3 218 195 196
3 198 218 196
3 217 219 197
3 219 218 198
3 197 219 198
3 220 199 213
3 221 200 199
3 220 221 199
3 222 201 200
3 221 222 200
3 203 204 223
3 203 223 202
3 202 223 205
3 204 208 224
3 204 224 223
3 205 223 225
3 205 225 207
3 207 225 226
3 207 226 206
3 226 216 206
3 208 228 224
3 224 228 227
3 209 229 208
3 229 228 208
3 210 230 209
3 209 230 229
3 213 212 231
3 212 211 231
3 231 211 214
3 232 220 213
3 232 213 231
3 233 231 214
3 233 214 215
3 234 233 215
3 234 215 218
3 226 235 216
3 235 217 216
3 235 236 217
3 217 236 219
3 237 234 218
3 237 218 219
3 236 238 219
3 238 237 219
3 240 220 232
3 239 240 232
3 241 221 220
3 240 241 220
3 242 222 221
3 241 242 221
3 224 227 243
3 224 243 223
3 223 243 225
3 225 243 244
3 225 244 226
3 226 244 235
3 227 245 243
3 228 246 227
3 227 246 245
3 229 247 228
3 228 247 246
3 230 248 229
3 229 248 247
3 239 232 249
3 232 231 249
3 249 231 233
3 250 249 233
3 250 233 234
3 237 250 234
3 244 251 235
3 235 251 236
3 251 252 236
3 236 252 238
3 252 253 238
3 253 250 237
3 253 237 238
3 254 239 249
3 255 240 239
3 254 255 239
3 256 241 240
3 255 256 240
3 257 242 241
3 256 257 241
3 245 258 243
3 243 258 244
3 244 258 251
3 245 259 258
3 246 260 245
3 245 260 259
3 247 261 246
3 246 261 260
3 248 262 247
3 247 262 261
3 254 249 263
3 263 249 250
3 253 263 250
3 258 264 251
3 251 264 252
3 264 265 252
3 265 263 253
3 252 265 253
3 266 254 263
3 267 255 254
3 266 267 254
3 268 256 255
3 267 268 255
3 269 257 256
3 268 269 256
3 259 270 258
3 270 264 258
3 260 271 259
3 259 271 270
3 261 272 260
3 260 272 271
3 262 273 261
3 273 272 261
3 270 274 264
3 275 266 263
3 275 263 265
3 274 276 264
3 276 265 264
3 276 277 265
3 277 275 265
3 278 267 266
3 275 278 266
3 279 268 267
3 278 279 267
3 280 269 268
3 279 280 268
3 271 281 270
3 270 281 274
3 272 282 271
3 271 282 281
3 273 283 272
3 272 283 282
3 281 284 274
3 274 284 276
3 285 278 275
3 277 285 275
3 284 286 276
3 286 285 277
3 276 286 277
3 287 279 278
3 285 287 278
3 288 280 279
3 287 288 279
3 282 289 281
3 281 289 284
3 283 290 282
3 282 290 289
3 289 291 284
3 284 291 286
3 291 292 286
3 292 287 285
3 286 292 285
3 293 288 287
3 292 293 287
3 290 294 289
3 289 294 291
3 294 295 291
3 295 293 292
3 291 295 292
CELL_TYPES 542
5
5
5
5
5
5
5
5
5
5
5
5
5
5
5
5
5
5
5
5
5
5
5
5
5
5
5
5
5
5
5
5
5
5
5
5
5
5
5
5
5
5
5
5
5
5
5
5
5
5
5
5
5
5
5
5
5
5
5
5
5
5
5
5
5
5
5
5
5
5
5
5
5
5
5
5
5
5
5
5
5
5
5
5
5
5
5
5
5
5
5
5
5
5
5
5
5
5
5
5
5
5
5
5
5
5
5
5
5
5
5
5
5
5
5
5
5
5
5
5
5
5
5
5
5
5
5
5
5
5
5
5
5
5
5
5
5
5
5
5
5
5
5
5
5
5
5
5
5
5
5
5
5
5
5
5
5
5
5
5
5
5
5
5
5
5
5
5
5
5
5
5
5
5
5
5
5
5
5
5
5
5
5
5
5
5
5
5
5
5
5
5
5
5
5
5
5
5
5
5
5
5
5
5
5
5
5
5
5
5
5
5
5
5
5
5
5
5
5
5
5
5
5
5
5
5
5
5
5
5
5
5
5
5
5
5
5
5
5
5
5
5
5
5
5
5
5
5
5
5
5
5
5
5
5
5
5
5
5
5
5
5
5
5
5
5
5
5
5
5
5
5
5
5
5
5
5
5
5
5
5
5
5
5
5
5
5
5
5
5
5
5
5
5
5
5
5
5
5
5
5
5
5
5
5
5
5
5
5
5
5
5
5
5
5
5
5
5
5
5
5
5
5
5
5
5
5
5
5
5
5
5
5
5
5
5
5
5
5
5
5
5
5
5
5
5
5
5
5
5
5
5
5
5
5
5
5
5
5
5
5
5
5
5
5
5
5
5
5
5
5
5
5
5
5
5
5
5
5
5
5
5
5
5
5
5
5
5
5
5
5
5
5
5
5
5
5
5
5
5
5
5
5
5
5
5
5
5
5
5
5
5
5
5
5
5
5
5
5
5
5
5
5
5
5
5
5
5
5
5
5
5
5
5
5
5
5
5
5
5
5
5
5
5
5
5
5
5
5
5
5
5
5
5
5
5
5
5
5
5
5
5
5
5
5
5
5
5
5
5
5
5
5
5
5
5
5
5
5
5
5
5
5
5
5
5
5
5
5
5
5
5
5
5
5
5
5
5
5
5
5
5
5
5
5
5
5
5
5
5
5
5
5
5
5
5
5
5
5
5
5
5
5
5
5
5
5
5
5
5
5
5
5
5
5
5
5
5
5
5
5
5
POINT_DATA 296
SCALARS concentrations float 4
LOOKUP_TABLE default
0 1 0.0501797 0.00417637
0 1 0.0501798 0.00433493
0 1 0.0501795 0.00393875
0 1 0.0501793 0.00362958
0 1 0.0501793 0.00362754
0 1 0.0501799 0.00442048
0 1 0.0501799 0.00444337
0 1 0.0501795 0.00380038
0 1 0.0501795 0.0039087
0 1 0.0501799 0.00439689
0 1 0.0501798 0.00427461
0 1 0.0501791 0.00328326
0 1 0.0501788 0.00287013
0 1 0.0501792 0.00338223
0 1 0.0501789 0.00308317
0 1 0.050179 0.00314388
0 1 0.0501791 0.00329713
0 1 0.0501796 0.00395455
0 1 0.0501796 0.003944
0 1 0.0501792 0.00344939
0 1 0.0501793 0.00350162
0 1 0.0501797 0.0040811
0 1 0.0501795 0.00381091
0 1 0.0501795 0.00387198
0 1 0.0501795 0.00373534
0 1 0.0501787 0.00274463
0 1 0.0501785 0.00240457
0 1 0.0501785 0.00235837
0 1 0.0501782 0.00192008
0 1 0.0501788 0.00287606
0 1 0.0501786 0.00259727
0 1 0.0501787 0.0027443
0 1 0.0501793 0.00348933
0 1 0.0501788 0.00283119
0 1 0.0501789 0.00305829
0 1 0.0501793 0.00352319
0 1 0.0501793 0.00348305
0 1 0.0501789 0.00305883
0 1 0.050179 0.00317333
0 1 0.0501793 0.00354969
0 1 0.0501792 0.00329186
0 1 0.0501792 0.00339473
0 1 0.0501791 0.00325142
0 1 0.0501791 0.00311924
0 1 0.0501784 0.00226046
0 1 0.0501782 0.00193582
0 1 0.0501782 0.00193182
0 1 0.0501779 0.0014165
0 1 0.0501779 0.00149828
0 1 0.0501777 0.000911823
0 1 0.0501785 0.00242313
0 1 0.0501783 0.00220246
0 1 0.0501784 0.00229156
0 1 0.050179 0.00297828
0 1 0.0501788 0.00262012
0 1 0.0501786 0.00257694
0 1 0.050179 0.00308968
0 1 0.050179 0.00310749
0 1 0.0501787 0.00269766
0 1 0.050179 0.00306482
0 1 0.0501789 0.00284644
0 1 0.0501789 0.00292418
0 1 0.0501789 0.00286549
0 1 0.0501789 0.00270326
0 1 0.0501781 0.00187119
0 1 0.0501779 0.00153098
0 1 0.0501779 0.00159129
0 1 0.0501777 0.00105782
0 1 0.0501777 0.00115979
0 1 0.0501777 0.000547299
0 1 0.0501777 0.000671585
0 1 0.0501779 0.000638548
0 1 0.0501782 0.00194709
0 1 0.0501781 0.00186936
0 1 0.050178 0.00167674
0 1 0.0501787 0.00252035
0 1 0.0501785 0.00223873
0 1 0.0501785 0.0022193
0 1 0.0501783 0.00217303
0 1 0.0501781 0.00172323
0 1 0.0501787 0.00263886
0 1 0.0501784 0.00218839
0 1 0.0501787 0.0025993
0 1 0.0501786 0.00243888
0 1 0.0501786 0.00245126
0 1 0.0501786 0.00225129
0 1 0.0501778 0.00135405
0 1 0.0501777 0.00123687
0 1 0.0501776 0.000791231
0 1 0.0501776 0.000914455
0 1 0.0501778 0.000542285
0 1 0.0501777 0.000567879
0 1 0.0501782 0.00108185
0 1 0.050178 0.000800554
0 1 0.0501779 0.00146197
0 1 0.0501778 0.00127406
0 1 0.0501778 0.00124856
0 1 0.0501776 0.000908852
0 1 0.0501785 0.00157241
0 1 0.0501783 0.00183148
0 1 0.0501784 0.00210091
0 1 0.0501783 0.00184634
0 1 0.0501783 0.0018779
0 1 0.0501778 0.00129389
0 1 0.0501781 0.00174248
0 1 0.0501784 0.00213565
0 1 0.0501781 0.00182889
0 1 0.0501784 0.00208941
0 1 0.0501782 0.00193501
0 1 0.0501783 0.0017843
0 1 0.0501776 0.000829905
0 1 0.0501776 0.000655317
0 1 0.0501778 0.000639893
0 1 0.0501777 0.000573125
0 1 0.0501782 0.0012062
0 1 0.050178 0.000929759
0 1 0.0501785 0.00164203
0 1 0.0501776 0.000926357
0 1 0.0501777 0.00104997
0 1 0.0501776 0.000966373
0 1 0.0501776 0.000925856
0 1 0.0501776 0.000621535
0 1 0.0501776 0.000691308
0 1 0.0501776 0.000740366
0 1 0.0501788 0.00208165
0 1 0.0501781 0.00142989
0 1 0.0501781 0.00149407
0 1 0.0501781 0.001682
0 1 0.0501781 0.00153637
0 1 0.0501779 0.00138278
0 1 0.0501781 0.00165858
0 1 0.0501781 0.00163139
0 1 0.050178 0.00153033
0 1 0.0501779 0.00108076
0 1 0.0501781 0.00133187
0 1 0.0501777 0.000593567
0 1 0.0501779 0.000728537
0 1 0.0501783 0.00130446
0 1 0.0501781 0.00103402
0 1 0.0501788 0.00207699
0 1 0.0501785 0.00167848
0 1 0.0501778 0.00072777
0 1 0.0501777 0.000987941
0 1 0.0501776 0.000801995
0 1 0.0501776 0.000675673
0 1 0.0501777 0.000641492
0 1 0.0501779 0.000852294
0 1 0.0501777 0.000671266
0 1 0.0501777 0.000688471
0 1 0.0501791 0.00246948
0 1 0.0501792 0.00255765
0 1 0.0501779 0.00131675
0 1 0.0501779 0.00116394
0 1 0.0501779 0.00122994
0 1 0.0501779 0.00127736
0 1 0.0501778 0.000922028
0 1 0.0501778 0.00121556
0 1 0.0501778 0.00119769
0 1 0.0501777 0.000891189
0 1 0.0501777 0.00102679
0 1 0.0501779 0.000874774
0 1 0.0501779 0.000980691
0 1 0.050178 0.000943246
0 1 0.0501783 0.00132942
0 1 0.0501788 0.00204907
0 1 0.0501785 0.00169287
0 1 0.050179 0.00237995
0 1 0.0501781 0.00109753
0 1 0.0501777 0.000735775
0 1 0.0501778 0.000776926
0 1 0.0501781 0.00110513
0 1 0.0501778 0.000789153
0 1 0.0501778 0.000766564
0 1 0.0501793 0.00284324
0 1 0.0501795 0.00299423
0 1 0.0501778 0.000973898
0 1 0.0501778 0.000965525
0 1 0.0501778 0.00103723
0 1 0.0501779 0.000845589
0 1 0.0501778 0.000837649
0 1 0.0501777 0.000915613
0 1 0.0501777 0.000926348
0 1 0.0501777 0.000763394
0 1 0.0501777 0.000825022
0 1 0.0501777 0.00079382
0 1 0.0501781 0.000966817
0 1 0.050178 0.000932093
0 1 0.050178 0.000901028
0 1 0.0501784 0.00146844
0 1 0.0501787 0.00195512
0 1 0.0501792 0.00267295
0 1 0.050179 0.00229872
0 1 0.0501784 0.00147947
0 1 0.0501783 0.00142257
0 1 0.0501778 0.000742751
0 1 0.0501781 0.00111522
0 1 0.050178 0.000988292
0 1 0.050178 0.000939582
0 1 0.0501781 0.00103843
0 1 0.0501794 0.00293533
0 1 0.0501796 0.0031599
0 1 0.0501797 0.00338753
0 1 0.0501778 0.000814438
0 1 0.0501779 0.00085631
0 1 0.0501781 0.00103795
0 1 0.0501779 0.000809296
0 1 0.0501777 0.000746703
0 1 0.0501778 0.000780336
0 1 0.0501783 0.00125076
0 1 0.0501783 0.00120379
0 1 0.0501782 0.00113045
0 1 0.0501787 0.00193852
0 1 0.0501791 0.00247345
0 1 0.0501793 0.00274807
0 1 0.0501786 0.00179433
0 1 0.0501784 0.00156658
0 1 0.0501779 0.000892907
0 1 0.0501781 0.00114082
0 1 0.0501783 0.00133712
0 1 0.0501783 0.00131681
0 1 0.0501795 0.00311167
0 1 0.0501797 0.00340986
0 1 0.05018 0.0037152
0 1 0.050178 0.000951922
0 1 0.0501783 0.00126299
0 1 0.050178 0.000976102
0 1 0.050178 0.000919432
0 1 0.0501785 0.00161433
0 1 0.0501785 0.0015764
0 1 0.0501785 0.00157107
0 1 0.0501785 0.00152929
0 1 0.050179 0.00233354
0 1 0.0501793 0.00282244
0 1 0.0501788 0.00202575
0 1 0.0501786 0.00175219
0 1 0.0501782 0.00118459
0 1 0.0501784 0.00146356
0 1 0.0501785 0.0017067
0 1 0.0501785 0.00167719
0 1 0.0501795 0.00303908
0 1 0.0501796 0.0032898
0 1 0.0501799 0.00362107
0 1 0.0501801 0.00398509
0 1 0.0501784 0.00138804
0 1 0.0501783 0.00128844
0 1 0.0501787 0.0018584
0 1 0.0501788 0.00193491
0 1 0.0501788 0.00195804
0 1 0.0501788 0.00198442
0 1 0.0501791 0.00256087
0 1 0.0501788 0.00211748
0 1 0.0501785 0.00164801
0 1 0.0501787 0.00190804
0 1 0.0501788 0.0020791
0 1 0.0501794 0.00299878
0 1 0.0501797 0.00338594
0 1 0.05018 0.00377648
0 1 0.0501803 0.00419095
0 1 0.0501787 0.00184953
0 1 0.0501789 0.00217306
0 1 0.050179 0.00223837
0 1 0.0501791 0.00234103
0 1 0.0501792 0.00243933
0 1 0.0501792 0.00261448
0 1 0.0501789 0.00224293
0 1 0.0501791 0.00250414
0 1 0.0501795 0.00309867
0 1 0.0501798 0.00343314
0 1 0.0501801 0.00385892
0 1 0.0501804 0.00431618
0 1 0.0501791 0.002383
0 1 0.0501792 0.002558
0 1 0.0501793 0.00271415
0 1 0.0501794 0.00286992
0 1 0.0501792 0.00266451
0 1 0.0501794 0.0029643
0 1 0.0501793 0.0027721
0 1 0.0501794 0.0029736
0 1 0.0501797 0.00340377
0 1 0.0501801 0.00386711
0 1 0.0501804 0.00438139
0 1 0.0501794 0.00281402
0 1 0.0501795 0.00303949
0 1 0.0501797 0.00326236
0 1 0.0501795 0.00305342
0 1 0.0501797 0.00334687
0 1 0.0501796 0.00321132
0 1 0.05018 0.00380138
0 1 0.0501804 0.00436064
0 1 0.0501797 0.00332387
0 1 0.0501799 0.00361139
0 1 0.0501799 0.00354333
0 1 0.05018 0.00371097
0 1 0.0501803 0.00426186
0 1 0.0501801 0.00389566
0 1 0.0501803 0.00411526
VECTORS fa_u float
0.00602953 0.00249751 -0
0.00565196 0.00326315 -0
0.00630393 0.00168913 -0
0.00647047 0.000851851 -0
1e-08 0 0
0.00517767 0.00397297 -0
0.0046148 0.0046148 -0
1e-08 0 0
1e-08 0 0
0.00397297 0.00517767 -0
0.00326316 0.00565195 -0
0.00652631 -2.47939e-09 -0
0.00647049 -0.000851862 0
1e-08 0 0
1e-08 0 0
1e-08 0 0
1e-08 0 0
1e-08 0 0
1e-08 0 0
1e-08 0 0
1e-08 0 0
0.00249751 0.00602952 -0
0.00168914 0.00630395 -0
1e-08 0 0
1e-08 0 0
1e-08 0 0
0.00630393 -0.00168914 0
1e-08 0 0
0.0060295 -0.00249751 0
1e-08 0 0
1e-08 0 0
1e-08 0 0
0.000851858 0.0064705 -0
1e-08 0 0
1e-08 0 0
1e-08 0 0
1e-08 0 0
1e-08 0 0
1e-08 0 0
1e-08 0 0
1e-08 0 0
1e-08 0 0
1e-08 0 0
-2.34637e-09 0.0065263 -0
1e-08 0 0
1e-08 0 0
1e-08 0 0
0.00565193 -0.00326315 0
1e-08 0 0
0.00517765 -0.00397296 0
1e-08 0 0
1e-08 0 0
1e-08 0 0
1e-08 0 0
1e-08 0 0
1e-08 0 0
1e-08 0 0
1e-08 0 0
1e-08 0 0
1e-08 0 0
1e-08 0 0
1e-08 0 0
1e-08 0 0
-0.000851855 0.00647047 0
1e-08 0 0
1e-08 0 0
1e-08 0 0
1e-08 0 0
1e-08 0 0
0.00461479 -0.00461479 0
1e-08 0 0
0.00397295 -0.00517766 0
1e-08 0 0
1e-08 0 0
1e-08 0 0
1e-08 0 0
1e-08 0 0
1e-08 0 0
1e-08 0 0
1e-08 0 0
1e-08 0 0
1e-08 0 0
1e-08 0 0
1e-08 0 0
1e-08 0 0
-0.00168913 0.00630392 0
1e-08 0 0
1e-08 0 0
1e-08 0 0
1e-08 0 0
1e-08 0 0
1e-08 0 0
0.00326315 -0.00565194 0
1e-08 0 0
1e-08 0 0
1e-08 0 0
1e-08 0 0
1e-08 0 0
0.0024975 -0.0060295 0
1e-08 0 0
1e-08 0 0
1e-08 0 0
1e-08 0 0
1e-08 0 0
1e-08 0 0
1e-08 0 0
1e-08 0 0
1e-08 0 0
1e-08 0 0
-0.0024975 0.00602951 0
1e-08 0 0
1e-08 0 0
1e-08 0 0
1e-08 0 0
1e-08 0 0
1e-08 0 0
1e-08 0 0
1e-08 0 0
1e-08 0 0
1e-08 0 0
1e-08 0 0
1e-08 0 0
1e-08 0 0
1e-08 0 0
0.00168913 -0.00630392 0
1e-08 0 0
1e-08 0 0
1e-08 0 0
1e-08 0 0
1e-08 0 0
1e-08 0 0
1e-08 0 0
1e-08 0 0
1e-08 0 0
-0.00326315 0.00565193 0
1e-08 0 0
1e-08 0 0
1e-08 0 0
1e-08 0 0
1e-08 0 0
1e-08 0 0
1e-08 0 0
1e-08 0 0
1e-08 0 0
1e-08 0 0
1e-08 0 0
1e-08 0 0
1e-08 0 0
1e-08 0 0
1e-08 0 0
0.000851855 -0.00647047 0
1e-08 0 0
1e-08 0 0
1e-08 0 0
1e-08 0 0
1e-08 0 0
1e-08 0 0
1e-08 0 0
1e-08 0 0
1e-08 0 0
1e-08 0 0
-0.00397295 0.00517766 0
1e-08 0 0
1e-08 0 0
1e-08 0 0
1e-08 0 0
1e-08 0 0
1e-08 0 0
1e-08 0 0
1e-08 0 0
1e-08 0 0
1e-08 0 0
1e-08 0 0
1e-08 0 0
2.35688e-09 -0.0065263 0
1e-08 0 0
1e-08 0 0
1e-08 0 0
1e-08 0 0
1e-08 0 0
1e-08 0 0
1e-08 0 0
1e-08 0 0
1e-08 0 0
1e-08 0 0
1e-08 0 0
1e-08 0 0
-0.00461478 0.00461479 0
1e-08 0 0
1e-08 0 0
1e-08 0 0
1e-08 0 0
1e-08 0 0
1e-08 0 0
1e-08 0 0
1e-08 0 0
1e-08 0 0
1e-08 0 0
1e-08 0 0
1e-08 0 0
1e-08 0 0
-0.000851858 -0.0064705 0
1e-08 0 0
1e-08 0 0
1e-08 0 0
1e-08 0 0
1e-08 0 0
1e-08 0 0
1e-08 0 0
1e-08 0 0
-0.00517765 0.00397296 0
1e-08 0 0
1e-08 0 0
1e-08 0 0
1e-08 0 0
1e-08 0 0
1e-08 0 0
1e-08 0 0
1e-08 0 0
1e-08 0 0
1e-08 0 0
1e-08 0 0
-0.00168914 -0.00630395 0
1e-08 0 0
1e-08 0 0
1e-08 0 0
1e-08 0 0
1e-08 0 0
1e-08 0 0
1e-08 0 0
-0.00565193 0.00326315 0
1e-08 0 0
1e-08 0 0
1e-08 0 0
1e-08 0 0
1e-08 0 0
1e-08 0 0
1e-08 0 0
1e-08 0 0
1e-08 0 0
1e-08 0 0
1e-08 0 0
-0.00249751 -0.00602952 0
1e-08 0 0
1e-08 0 0
1e-08 0 0
1e-08 0 0
1e-08 0 0
-0.0060295 0.00249751 0
1e-08 0 0
1e-08 0 0
1e-08 0 0
1e-08 0 0
1e-08 0 0
1e-08 0 0
1e-08 0 0
1e-08 0 0
-0.00326316 -0.00565195 0
1e-08 0 0
1e-08 0 0
1e-08 0 0
1e-08 0 0
-0.00630394 0.00168914 0
1e-08 0 0
1e-08 0 0
1e-08 0 0
1e-08 0 0
1e-08 0 0
1e-08 0 0
-0.00397297 -0.00517767 0
1e-08 0 0
1e-08 0 0
1e-08 0 0
-0.00647049 0.000851862 0
1e-08 0 0
1e-08 0 0
1e-08 0 0
1e-08 0 0
1e-08 0 0
1e-08 0 0
-0.00461481 -0.0046148 0
1e-08 0 0
1e-08 0 0
-0.0065263 2.48745e-09 0
1e-08 0 0
1e-08 0 0
1e-08 0 0
1e-08 0 0
-0.00517768 -0.00397297 0
1e-08 0 0
-0.00647047 -0.000851851 0
1e-08 0 0
1e-08 0 0
-0.00565195 -0.00326315 0
-0.00630393 -0.00168913 0
-0.00602953 -0.00249751 0
