# vtk DataFile Version 2.0
CellBP Time: 0.166
ASCII
DATASET UNSTRUCTURED_GRID
POINTS 296 double
-9.18881 -3.77685 0
-8.61027 -4.95002 0
-9.60927 -2.53821 0
-9.86446 -1.25528 0
-8.35807 -2.81889 0
-7.88355 -6.03763 0
-7.02109 -7.02108 0
-7.91771 -3.87496 0
-7.34312 -4.86816 0
-6.03764 -7.88355 0
-4.95002 -8.61027 0
-9.95001 0.0499801 0
-9.86445 1.35524 0
-8.65818 -1.68405 0
-8.78682 -0.529672 0
-7.5902 -2.00428 0
-7.22624 -2.90668 0
-6.63808 -5.77927 0
-5.8228 -6.59735 0
-6.79075 -3.88918 0
-6.22102 -4.67625 0
-3.77686 -9.18881 0
-2.53822 -9.60927 0
-4.90681 -7.30931 0
-3.91329 -7.88677 0
-8.79327 0.643418 0
-9.60926 2.63818 0
-8.6238 1.77417 0
-9.18879 3.87682 0
-7.74481 -0.929055 0
-7.79504 0.0802439 0
-6.95303 -1.31598 0
-1.25528 -9.86446 0
-6.44192 -2.15328 0
-6.31982 -3.05635 0
-5.53694 -5.47497 0
-4.79626 -6.11593 0
-5.65943 -3.75728 0
-5.26978 -4.56192 0
-2.86638 -8.36451 0
-1.7787 -8.64084 0
-3.92844 -6.72406 0
-3.05686 -7.15314 0
0.0499815 -9.95001 0
-7.70605 1.14358 0
-8.33912 2.9156 0
-7.55244 2.1121 0
-8.61025 5.04999 0
-7.88059 3.97849 0
-7.88352 6.13761 0
-6.77918 -0.396895 0
-6.95704 0.552568 0
-5.77177 -1.00348 0
-0.590895 -8.81034 0
0.565705 -8.77153 0
-5.30347 -2.48044 0
-4.4923 -5.09611 0
-3.9028 -5.77576 0
-4.43921 -3.80501 0
-2.06259 -7.56254 0
-1.13558 -7.78646 0
-2.99478 -6.10253 0
-2.30921 -6.62031 0
1.35524 -9.86445 0
-6.68995 1.42213 0
-7.17274 3.11834 0
-6.65977 2.37318 0
-7.29527 4.98902 0
-6.71862 4.00337 0
-7.02106 7.12106 0
-6.573 5.8946 0
-6.0376 7.98353 0
-4.45338 -1.18115 0
-5.81499 0.51378 0
-4.65645 -0.0103917 0
0.00850737 -7.84876 0
1.73868 -8.6445 0
0.949029 -7.76411 0
-4.03876 -2.40654 0
-3.48576 -1.39129 0
-3.29474 -4.80568 0
-3.26608 -3.268 0
-1.3787 -6.67601 0
-0.508795 -7.02554 0
-1.9757 -5.53743 0
2.63817 -9.60926 0
-5.50773 2.03706 0
-6.09523 3.07246 0
-6.10565 4.87007 0
-5.76225 3.99183 0
-5.76182 6.71775 0
-5.45265 5.61991 0
-4.94998 8.71025 0
-4.83892 7.40527 0
-3.50171 -0.424337 0
-4.4496 1.24911 0
-3.71171 0.592102 0
-4.06244 2.31997 0
-3.77682 9.28879 0
2.86285 -8.33364 0
0.419714 -6.79607 0
2.02221 -7.52659 0
1.3062 -6.90625 0
-2.44482 -0.873871 0
-2.83856 -2.13127 0
-2.29457 -4.09766 0
-2.3258 -2.9738 0
-0.442432 -5.86166 0
-1.22282 -4.49946 0
3.87682 -9.18879 0
-4.79019 3.39207 0
-5.08844 4.5946 0
-4.64767 6.28212 0
-4.53934 5.3603 0
-3.84413 7.99422 0
-3.82717 6.84648 0
-2.7836 8.42377 0
-1.64915 -0.137912 0
-1.45035 -0.890645 0
-2.48927 0.507282 0
-3.25384 1.44424 0
-3.23927 3.31681 0
-2.91118 2.37193 0
-1.35518 0.62714 0
-2.53817 9.70926 0
3.93311 -7.88784 0
2.96487 -7.15855 0
0.954168 -5.82257 0
2.07456 -6.41623 0
-1.68308 -1.99219 0
-1.43453 -3.27801 0
0.0902177 -4.74737 0
-0.566221 -3.69469 0
4.9327 -7.31964 0
5.04999 -8.61025 0
-3.7773 4.55205 0
-3.73517 5.75279 0
-2.88831 7.29075 0
-3.01004 6.35447 0
-1.66274 8.7347 0
-1.94034 7.6203 0
-2.33856 4.05201 0
-0.730777 -1.32733 0
-0.836947 -0.257644 0
-1.93633 1.68088 0
-2.12591 2.87604 0
-1.30666 3.54496 0
-0.86951 1.35091 0
-0.282382 0.456073 0
-0.533567 8.87278 0
-1.25524 9.96445 0
1.11288 -4.575 0
3.91062 -6.71816 0
2.98827 -6.09552 0
2.11808 -5.42554 0
4.78506 -6.20619 0
-0.558893 -2.47698 0
0.495141 -3.4641 0
0.0535533 -1.61058 0
1.48201 -3.68247 0
5.86794 -6.61554 0
6.1376 -7.88353 0
-2.47593 5.34904 0
-2.1307 6.53528 0
-0.904178 7.80436 0
-1.2725 6.93297 0
0.0862313 7.88149 0
-1.14455 4.49512 0
0.150329 -0.617682 0
-0.797476 2.48867 0
-0.331668 3.60102 0
0.0631131 1.51282 0
0.741483 0.47345 0
0.646891 8.87547 0
0.0500202 10.05 0
2.38125 -4.28568 0
3.85969 -5.64121 0
3.00182 -5.21341 0
5.57461 -5.49265 0
4.6917 -5.28382 0
0.629714 -2.29352 0
1.25627 -2.95146 0
0.757545 -1.39154 0
2.16454 -3.13611 0
2.99409 -3.47696 0
6.15617 -4.79256 0
6.65661 -5.7702 0
7.12106 -7.02106 0
-1.01974 5.82105 0
-0.372658 6.88459 0
1.12283 7.77081 0
0.558074 7.0809 0
-0.000755722 4.72568 0
0.607066 3.82819 0
1.33901 -0.641936 0
0.539146 2.65126 0
0.966155 1.57505 0
1.91034 0.213886 0
1.61489 1.06511 0
2.12978 7.5849 0
1.79953 8.71386 0
1.35528 9.96446 0
3.82334 -4.35219 0
5.11741 -4.44974 0
5.84675 -3.93581 0
3.78447 -3.20145 0
1.81244 -1.88278 0
3.01949 -2.57417 0
6.78463 -3.94859 0
7.38278 -4.89767 0
7.98353 -6.03761 0
0.483438 5.88239 0
1.42843 6.7431 0
2.3748 6.67034 0
1.21014 4.55676 0
1.48835 3.39802 0
2.43604 -0.692084 0
2.82836 0.142625 0
1.78907 2.16307 0
2.61217 1.15028 0
3.07265 7.17157 0
2.90481 8.37847 0
2.63822 9.70927 0
4.91207 -3.32841 0
6.12187 -3.10927 0
4.17346 -2.27557 0
3.24484 -1.50308 0
6.73275 -2.3135 0
7.23362 -3.04318 0
7.96658 -3.91306 0
8.71025 -4.94999 0
2.02397 5.60078 0
3.08718 6.15493 0
2.36427 4.12753 0
2.42041 3.0613 0
3.52616 -0.460912 0
3.61622 0.613379 0
2.96225 2.2884 0
3.54612 1.52549 0
4.0132 5.89961 0
3.98555 6.795 0
3.97436 7.94078 0
3.87686 9.2888 0
5.56994 -1.91652 0
4.50997 -1.12978 0
6.71567 -1.33643 0
7.59461 -2.03694 0
8.39943 -2.86211 0
9.28879 -3.77682 0
3.41988 4.87809 0
3.33961 3.38599 0
4.69212 0.130107 0
4.52001 1.31022 0
4.06609 2.44426 0
4.57199 5.15407 0
4.8453 6.19283 0
4.98204 7.3828 0
5.05003 8.71027 0
5.88495 -0.434994 0
7.01313 -0.488378 0
7.76212 -1.08562 0
8.68762 -1.74647 0
9.70926 -2.53818 0
4.55369 3.82862 0
5.8194 1.0989 0
5.3728 2.53566 0
5.38211 4.62233 0
5.61432 5.52566 0
5.89937 6.67436 0
6.13764 7.98355 0
6.84863 0.463715 0
7.85637 -0.0256319 0
8.86367 -0.584532 0
9.96446 -1.25524 0
6.96329 1.34999 0
5.72338 3.77996 0
6.5441 2.19838 0
6.38289 3.08929 0
6.29517 4.689 0
6.69583 5.84021 0
7.12109 7.12108 0
7.78766 0.968028 0
8.86302 0.572993 0
10.05 0.0500189 0
7.61957 2.00518 0
6.83227 3.90603 0
7.27284 2.94813 0
7.38149 4.88786 0
7.98355 6.13763 0
8.72662 1.72764 0
9.96446 1.35528 0
8.42455 2.83898 0
7.98504 3.91798 0
8.71027 5.05002 0
9.70927 2.63821 0
9.28881 3.87685 0
CELLS 542 2168
3 2 0 4
3 0 1 7
3 4 0 7
3 1 5 8
3 7 1 8
3 3 2 13
3 13 2 4
3 11 3 14
3 14 3 13
3 13 4 15
3 4 7 16
3 15 4 16
3 5 6 17
3 8 5 17
3 6 9 18
3 17 6 18
3 7 8 19
3 16 7 19
3 8 17 20
3 19 8 20
3 9 10 23
3 18 9 23
3 10 21 24
3 23 10 24
3 12 11 25
3 25 11 14
3 26 12 27
3 27 12 25
3 14 13 29
3 29 13 15
3 25 14 30
3 30 14 29
3 29 15 31
3 15 16 33
3 31 15 33
3 16 19 34
3 33 16 34
3 17 18 35
3 20 17 35
3 18 23 36
3 35 18 36
3 19 20 37
3 34 19 37
3 20 35 38
3 37 20 38
3 21 22 39
3 24 21 39
3 22 32 40
3 39 22 40
3 23 24 41
3 36 23 41
3 24 39 42
3 41 24 42
3 27 25 44
3 44 25 30
3 28 26 45
3 45 26 27
3 45 27 46
3 46 27 44
3 47 28 48
3 48 28 45
3 30 29 50
3 50 29 31
3 44 30 51
3 51 30 50
3 50 31 52
3 31 33 52
3 32 43 53
3 40 32 53
3 53 43 54
3 33 34 55
3 34 37 55
3 33 55 52
3 35 36 56
3 38 35 56
3 36 41 57
3 56 36 57
3 37 38 58
3 38 56 58
3 37 58 55
3 39 40 59
3 42 39 59
3 40 53 60
3 59 40 60
3 41 42 61
3 57 41 61
3 42 59 62
3 61 42 62
3 43 63 54
3 46 44 64
3 64 44 51
3 48 45 65
3 65 45 46
3 65 46 66
3 66 46 64
3 49 47 67
3 67 47 48
3 67 48 68
3 68 48 65
3 69 49 70
3 70 49 67
3 52 55 72
3 64 51 73
3 51 50 73
3 50 52 73
3 73 52 74
3 74 52 72
3 53 54 75
3 60 53 75
3 54 63 76
3 54 76 77
3 75 54 77
3 55 58 78
3 72 55 78
3 72 78 79
3 56 57 80
3 57 61 80
3 56 80 58
3 58 80 81
3 78 58 81
3 59 60 82
3 62 59 82
3 60 75 83
3 82 60 83
3 61 62 84
3 62 82 84
3 61 84 80
3 63 85 76
3 66 64 86
3 64 73 86
3 68 65 87
3 87 65 66
3 87 66 86
3 70 67 88
3 88 67 68
3 88 68 89
3 89 68 87
3 71 69 90
3 90 69 70
3 90 70 91
3 91 70 88
3 92 71 93
3 93 71 90
3 74 72 94
3 94 72 79
3 86 73 95
3 95 73 74
3 95 74 96
3 96 74 94
3 97 86 95
3 76 85 99
3 75 77 100
3 83 75 100
3 76 99 101
3 77 76 101
3 77 101 102
3 100 77 102
3 94 79 103
3 78 81 104
3 79 78 104
3 79 104 103
3 80 84 105
3 81 80 105
3 81 105 106
3 104 81 106
3 82 83 107
3 83 100 107
3 82 107 84
3 84 107 108
3 105 84 108
3 85 109 99
3 89 87 110
3 87 86 110
3 110 86 97
3 91 88 111
3 111 88 89
3 111 89 110
3 93 90 112
3 112 90 91
3 112 91 113
3 113 91 111
3 98 92 114
3 114 92 93
3 114 93 115
3 115 93 112
3 116 98 114
3 117 103 118
3 96 94 119
3 94 103 119
3 119 103 117
3 97 95 120
3 120 95 96
3 120 96 119
3 121 110 97
3 121 97 122
3 122 97 120
3 123 119 117
3 124 98 116
3 99 109 125
3 99 125 126
3 101 99 126
3 100 102 127
3 100 127 107
3 101 126 128
3 102 101 128
3 102 128 127
3 104 106 129
3 104 129 103
3 103 129 118
3 105 108 130
3 106 105 130
3 106 130 129
3 107 127 131
3 108 107 131
3 108 131 132
3 108 132 130
3 109 134 125
3 125 134 133
3 113 111 135
3 111 110 135
3 135 110 121
3 115 112 136
3 136 112 113
3 136 113 135
3 116 114 137
3 137 114 115
3 137 115 138
3 138 115 136
3 139 124 116
3 139 116 140
3 140 116 137
3 141 135 121
3 118 129 142
3 118 142 143
3 117 118 143
3 123 117 143
3 122 120 144
3 120 119 144
3 144 119 123
3 141 121 145
3 145 121 122
3 145 122 144
3 146 141 145
3 147 144 123
3 147 123 148
3 143 148 123
3 150 124 139
3 149 150 139
3 131 127 151
3 125 133 152
3 126 125 152
3 126 152 153
3 128 126 153
3 128 153 154
3 128 154 127
3 127 154 151
3 152 133 155
3 130 132 156
3 130 156 129
3 129 156 142
3 131 151 157
3 132 131 157
3 132 157 156
3 156 158 142
3 157 151 159
3 133 160 155
3 134 161 133
3 133 161 160
3 138 136 162
3 136 135 162
3 162 135 141
3 140 137 163
3 163 137 138
3 163 138 162
3 149 139 164
3 164 139 140
3 164 140 165
3 165 140 163
3 166 149 164
3 167 162 141
3 167 141 146
3 142 158 168
3 143 142 168
3 143 168 148
3 146 145 169
3 145 144 169
3 169 144 147
3 170 167 146
3 170 146 169
3 171 169 147
3 171 147 148
3 171 148 172
3 168 172 148
3 173 149 166
3 174 150 149
3 173 174 149
3 154 175 151
3 151 175 159
3 152 155 176
3 153 152 176
3 153 176 177
3 153 177 154
3 154 177 175
3 155 160 178
3 155 178 179
3 176 155 179
3 156 157 180
3 156 180 158
3 157 159 181
3 157 181 180
3 158 180 182
3 158 182 168
3 159 175 183
3 159 183 181
3 175 184 183
3 160 186 178
3 178 186 185
3 161 187 160
3 160 187 186
3 165 163 188
3 163 162 188
3 188 162 167
3 166 164 189
3 189 164 165
3 189 165 188
3 190 173 166
3 190 166 191
3 191 166 189
3 192 188 167
3 192 167 170
3 193 192 170
3 182 194 168
3 194 172 168
3 193 170 195
3 170 169 195
3 195 169 171
3 196 195 171
3 196 171 172
3 194 197 172
3 197 198 172
3 198 196 172
3 200 173 190
3 199 200 190
3 201 174 173
3 200 201 173
3 176 179 202
3 177 176 202
3 177 202 175
3 175 202 184
3 178 185 203
3 178 203 179
3 179 203 202
3 203 185 204
3 202 205 184
3 183 206 181
3 180 181 206
3 180 206 182
3 182 206 194
3 183 184 207
3 205 207 184
3 183 207 206
3 185 208 204
3 186 209 185
3 185 209 208
3 187 210 186
3 186 210 209
3 191 189 211
3 189 188 211
3 211 188 192
3 199 190 212
3 212 190 191
3 212 191 211
3 213 199 212
3 214 211 192
3 214 192 193
3 215 214 193
3 215 193 195
3 206 216 194
3 216 197 194
3 216 217 197
3 215 195 218
3 218 195 196
3 198 218 196
3 217 219 197
3 219 218 198
3 197 219 198
3 220 199 213
3 221 200 199
3 220 221 199
3 222 201 200
3 221 222 200
3 203 204 223
3 203 223 202
3 202 223 205
3 204 208 224
3 204 224 223
3 205 223 225
3 205 225 207
3 207 225 226
3 207 226 206
3 226 216 206
3 208 228 224
3 224 228 227
3 209 229 208
3 229 228 208
3 210 230 209
3 209 230 229
3 213 212 231
3 212 211 231
3 231 211 214
3 232 220 213
3 232 213 231
3 233 231 214
3 233 214 215
3 234 233 215
3 234 215 218
3 226 235 216
3 235 217 216
3 235 236 217
3 217 236 219
3 237 234 218
3 237 218 219
3 236 238 219
3 238 237 219
3 240 220 232
3 239 240 232
3 241 221 220
3 240 241 220
3 242 222 221
3 241 242 221
3 224 227 243
3 224 243 223
3 223 243 225
3 225 243 244
3 225 244 226
3 226 244 235
3 227 245 243
3 228 246 227
3 227 246 245
3 229 247 228
3 228 247 246
3 230 248 229
3 229 248 247
3 239 232 249
3 232 231 249
3 249 231 233
3 250 249 233
3 250 233 234
3 237 250 234
3 244 251 235
3 235 251 236
3 251 252 236
3 236 252 238
3 252 253 238
3 253 250 237
3 253 237 238
3 254 239 249
3 255 240 239
3 254 255 239
3 256 241 240
3 255 256 240
3 257 242 241
3 256 257 241
3 245 258 243
3 243 258 244
3 244 258 251
3 245 259 258
3 246 260 245
3 245 260 259
3 247 261 246
3 246 261 260
3 248 262 247
3 247 262 261
3 254 249 263
3 263 249 250
3 253 263 250
3 258 264 251
3 251 264 252
3 264 265 252
3 265 263 253
3 252 265 253
3 266 254 263
3 267 255 254
3 266 267 254
3 268 256 255
3 267 268 255
3 269 257 256
3 268 269 256
3 259 270 258
3 270 264 258
3 260 271 259
3 259 271 270
3 261 272 260
3 260 272 271
3 262 273 261
3 273 272 261
3 270 274 264
3 275 266 263
3 275 263 265
3 274 276 264
3 276 265 264
3 276 277 265
3 277 275 265
3 278 267 266
3 275 278 266
3 279 268 267
3 278 279 267
3 280 269 268
3 279 280 268
3 271 281 270
3 270 281 274
3 272 282 271
3 271 282 281
3 273 283 272
3 272 283 282
3 281 284 274
3 274 284 276
3 285 278 275
3 277 285 275
3 284 286 276
3 286 285 277
3 276 286 277
3 287 279 278
3 285 287 278
3 288 280 279
3 287 288 279
3 282 289 281
3 281 289 284
3 283 290 282
3 282 290 289
3 289 291 284
3 284 291 286
3 291 292 286
3 292 287 285
3 286 292 285
3 293 288 287
3 292 293 287
3 290 294 289
3 289 294 291
3 294 295 291
3 295 293 292
3 291 295 292
CELL_TYPES 542
5
5
5
5
5
5
5
5
5
5
5
5
5
5
5
5
5
5
5
5
5
5
5
5
5
5
5
5
5
5
5
5
5
5
5
5
5
5
5
5
5
5
5
5
5
5
5
5
5
5
5
5
5
5
5
5
5
5
5
5
5
5
5
5
5
5
5
5
5
5
5
5
5
5
5
5
5
5
5
5
5
5
5
5
5
5
5
5
5
5
5
5
5
5
5
5
5
5
5
5
5
5
5
5
5
5
5
5
5
5
5
5
5
5
5
5
5
5
5
5
5
5
5
5
5
5
5
5
5
5
5
5
5
5
5
5
5
5
5
5
5
5
5
5
5
5
5
5
5
5
5
5
5
5
5
5
5
5
5
5
5
5
5
5
5
5
5
5
5
5
5
5
5
5
5
5
5
5
5
5
5
5
5
5
5
5
5
5
5
5
5
5
5
5
5
5
5
5
5
5
5
5
5
5
5
5
5
5
5
5
5
5
5
5
5
5
5
5
5
5
5
5
5
5
5
5
5
5
5
5
5
5
5
5
5
5
5
5
5
5
5
5
5
5
5
5
5
5
5
5
5
5
5
5
5
5
5
5
5
5
5
5
5
5
5
5
5
5
5
5
5
5
5
5
5
5
5
5
5
5
5
5
5
5
5
5
5
5
5
5
5
5
5
5
5
5
5
5
5
5
5
5
5
5
5
5
5
5
5
5
5
5
5
5
5
5
5
5
5
5
5
5
5
5
5
5
5
5
5
5
5
5
5
5
5
5
5
5
5
5
5
5
5
5
5
5
5
5
5
5
5
5
5
5
5
5
5
5
5
5
5
5
5
5
5
5
5
5
5
5
5
5
5
5
5
5
5
5
5
5
5
5
5
5
5
5
5
5
5
5
5
5
5
5
5
5
5
5
5
5
5
5
5
5
5
5
5
5
5
5
5
5
5
5
5
5
5
5
5
5
5
5
5
5
5
5
5
5
5
5
5
5
5
5
5
5
5
5
5
5
5
5
5
5
5
5
5
5
5
5
5
5
5
5
5
5
5
5
5
5
5
5
5
5
5
5
5
5
5
5
5
5
5
5
5
5
5
5
5
5
5
5
5
5
5
5
5
5
5
5
5
5
5
5
5
5
5
5
5
5
5
5
5
5
5
5
5
5
5
5
5
5
5
5
5
5
5
5
5
5
5
5
5
5
5
5
5
5
5
5
5
5
5
5
5
5
5
5
5
5
5
5
POINT_DATA 296
SCALARS concentrations float 4
LOOKUP_TABLE default
0 1 0.0762726 0.0109117
0 1 0.0762731 0.0109808
0 1 0.0762719 0.0108024
0 1 0.076271 0.0106601
0 1 0.0762698 0.00960044
0 1 0.0762733 0.0109988
0 1 0.0762734 0.0109938
0 1 0.0762703 0.00967994
0 1 0.0762706 0.00971973
0 1 0.0762732 0.0109558
0 1 0.0762728 0.0108807
0 1 0.07627 0.0104775
0 1 0.0762688 0.0102534
0 1 0.076269 0.0094761
0 1 0.0762681 0.00930023
0 1 0.0762673 0.00846479
0 1 0.0762677 0.00848834
0 1 0.0762707 0.00971841
0 1 0.0762707 0.00969369
0 1 0.0762682 0.00859392
0 1 0.0762683 0.00857234
0 1 0.0762722 0.0107469
0 1 0.0762714 0.0105785
0 1 0.0762704 0.00963989
0 1 0.07627 0.00953986
0 1 0.0762671 0.00912765
0 1 0.0762675 0.0100148
0 1 0.076266 0.00890869
0 1 0.0762663 0.00978009
0 1 0.0762664 0.00827575
0 1 0.0762656 0.00811812
0 1 0.0762653 0.00755672
0 1 0.0762703 0.0103727
0 1 0.0762652 0.00735004
0 1 0.0762662 0.00767096
0 1 0.0762683 0.00856941
0 1 0.0762682 0.00851457
0 1 0.0762659 0.00745998
0 1 0.0762665 0.00766565
0 1 0.0762694 0.00943952
0 1 0.0762685 0.00924478
0 1 0.0762679 0.00845194
0 1 0.0762674 0.00833453
0 1 0.0762692 0.0101268
0 1 0.0762646 0.00793164
0 1 0.0762649 0.00872553
0 1 0.0762637 0.00781182
0 1 0.0762651 0.00958107
0 1 0.0762638 0.00852872
0 1 0.0762642 0.0094459
0 1 0.076264 0.00712601
0 1 0.0762635 0.00717246
0 1 0.0762626 0.00623211
0 1 0.0762675 0.00903635
0 1 0.0762664 0.00875632
0 1 0.0762635 0.00638187
0 1 0.076266 0.00744164
0 1 0.0762662 0.00758296
0 1 0.0762638 0.00641732
0 1 0.0762668 0.00824636
0 1 0.0762661 0.00811397
0 1 0.0762654 0.00729407
0 1 0.0762654 0.00741756
0 1 0.0762679 0.00985741
0 1 0.0762624 0.00687477
0 1 0.0762627 0.00761078
0 1 0.0762619 0.00695037
0 1 0.0762629 0.00839037
0 1 0.0762618 0.00747273
0 1 0.0762637 0.00939517
0 1 0.0762622 0.00829787
0 1 0.0762637 0.00943537
0 1 0.0762603 0.00495264
0 1 0.0762613 0.00598239
0 1 0.0762595 0.00484629
0 1 0.0762651 0.00786761
0 1 0.0762652 0.00853562
0 1 0.0762641 0.00764214
0 1 0.0762611 0.00514738
0 1 0.0762587 0.00408427
0 1 0.0762636 0.00631859
0 1 0.076261 0.00505472
0 1 0.0762643 0.00705555
0 1 0.076264 0.00712576
0 1 0.076263 0.00618995
0 1 0.0762665 0.00958422
0 1 0.0762599 0.00576288
0 1 0.0762607 0.00658261
0 1 0.076261 0.00736279
0 1 0.0762602 0.0066494
0 1 0.076262 0.00830801
0 1 0.0762607 0.0073456
0 1 0.0762642 0.00956746
0 1 0.0762622 0.00836959
0 1 0.0762577 0.00374796
0 1 0.0762582 0.00460947
0 1 0.0762572 0.0038355
0 1 0.0762573 0.00451038
0 1 0.0762652 0.00975526
0 1 0.076264 0.0082947
0 1 0.0762626 0.00668903
0 1 0.0762629 0.00738658
0 1 0.0762622 0.0067323
0 1 0.0762562 0.00283806
0 1 0.0762586 0.00389608
0 1 0.0762609 0.00503147
0 1 0.076259 0.00409694
0 1 0.0762617 0.00590187
0 1 0.0762601 0.00481765
0 1 0.0762652 0.00933747
0 1 0.0762586 0.00557424
0 1 0.0762595 0.00644745
0 1 0.0762606 0.0073568
0 1 0.0762595 0.00659877
0 1 0.0762629 0.00852145
0 1 0.0762611 0.00746454
0 1 0.0762638 0.00869221
0 1 0.076254 0.00180761
0 1 0.0762545 0.00189332
0 1 0.076255 0.00261704
0 1 0.076256 0.00350703
0 1 0.0762564 0.0043913
0 1 0.0762555 0.00359966
0 1 0.0762529 0.00156106
0 1 0.0762662 0.00998186
0 1 0.0762629 0.00810214
0 1 0.0762618 0.00715699
0 1 0.0762604 0.00563194
0 1 0.0762608 0.00627877
0 1 0.0762564 0.00283632
0 1 0.0762582 0.00376703
0 1 0.0762591 0.00463467
0 1 0.0762578 0.0037549
0 1 0.076262 0.0079803
0 1 0.0762641 0.00915297
0 1 0.076258 0.00557041
0 1 0.0762594 0.00648648
0 1 0.0762617 0.00759427
0 1 0.0762601 0.00674277
0 1 0.0762648 0.00891035
0 1 0.0762625 0.00777188
0 1 0.0762565 0.00447158
0 1 0.076254 0.00160178
0 1 0.0762527 0.00101729
0 1 0.0762539 0.00250626
0 1 0.076255 0.00342788
0 1 0.0762555 0.00369995
0 1 0.0762524 0.00163468
0 1 0.0762513 0.0006596
0 1 0.0762657 0.00910817
0 1 0.0762674 0.0102263
0 1 0.0762579 0.00437714
0 1 0.0762609 0.00703418
0 1 0.0762599 0.00616448
0 1 0.0762589 0.00532499
0 1 0.0762603 0.00701186
0 1 0.0762556 0.00255985
0 1 0.0762563 0.00327962
0 1 0.0762534 0.00148952
0 1 0.0762561 0.00355682
0 1 0.0762615 0.00793929
0 1 0.0762633 0.00904275
0 1 0.0762585 0.00566172
0 1 0.0762605 0.00670995
0 1 0.0762634 0.00794502
0 1 0.0762615 0.00703397
0 1 0.0762643 0.00814133
0 1 0.0762571 0.00458336
0 1 0.0762518 0.000480959
0 1 0.0762538 0.00261216
0 1 0.0762559 0.00367514
0 1 0.0762523 0.00162442
0 1 0.0762514 0.000925795
0 1 0.0762667 0.00931888
0 1 0.0762685 0.0104696
0 1 0.0762569 0.00435184
0 1 0.0762592 0.00610057
0 1 0.0762584 0.00538237
0 1 0.07626 0.00698823
0 1 0.0762591 0.00627736
0 1 0.0762541 0.00211819
0 1 0.0762549 0.00283051
0 1 0.0762525 0.00129213
0 1 0.0762551 0.00330325
0 1 0.0762558 0.00399432
0 1 0.0762602 0.00701545
0 1 0.0762615 0.00793939
0 1 0.0762631 0.0090468
0 1 0.0762596 0.00589657
0 1 0.076262 0.00702627
0 1 0.076265 0.00827275
0 1 0.0762632 0.00739655
0 1 0.0762582 0.00484972
0 1 0.076257 0.00407338
0 1 0.0762519 0.0012193
0 1 0.0762548 0.00287504
0 1 0.0762533 0.00202149
0 1 0.0762531 0.0018758
0 1 0.0762536 0.00206442
0 1 0.0762658 0.00843996
0 1 0.0762676 0.00948767
0 1 0.0762696 0.010687
0 1 0.0762574 0.00509803
0 1 0.0762587 0.00603001
0 1 0.0762594 0.00635298
0 1 0.0762562 0.00434504
0 1 0.0762532 0.00219102
0 1 0.0762549 0.0034357
0 1 0.0762609 0.00718171
0 1 0.0762621 0.00809251
0 1 0.0762635 0.00914187
0 1 0.0762608 0.00613277
0 1 0.0762634 0.00730524
0 1 0.0762644 0.00762297
0 1 0.076259 0.00501133
0 1 0.0762572 0.00400301
0 1 0.0762536 0.00228087
0 1 0.0762548 0.00277661
0 1 0.0762555 0.00305965
0 1 0.0762554 0.00300041
0 1 0.0762662 0.00846553
0 1 0.0762683 0.0095918
0 1 0.0762705 0.0108612
0 1 0.0762578 0.00529986
0 1 0.0762597 0.00629413
0 1 0.0762564 0.004255
0 1 0.0762548 0.00318591
0 1 0.0762609 0.006713
0 1 0.0762617 0.00734257
0 1 0.0762629 0.00827604
0 1 0.0762643 0.00931738
0 1 0.0762619 0.00639674
0 1 0.0762644 0.00748733
0 1 0.0762597 0.00516896
0 1 0.076258 0.0042567
0 1 0.0762556 0.00338108
0 1 0.0762567 0.0037238
0 1 0.0762576 0.00405387
0 1 0.0762576 0.0040815
0 1 0.0762653 0.00782058
0 1 0.0762668 0.00862612
0 1 0.0762689 0.00971199
0 1 0.0762713 0.0109952
0 1 0.0762588 0.00549735
0 1 0.0762572 0.00436563
0 1 0.0762613 0.00662568
0 1 0.0762626 0.00756382
0 1 0.0762639 0.00848399
0 1 0.0762654 0.00955672
0 1 0.0762626 0.00651184
0 1 0.07626 0.00519162
0 1 0.0762583 0.0046771
0 1 0.0762592 0.00491255
0 1 0.0762598 0.0051117
0 1 0.0762649 0.00756516
0 1 0.0762671 0.00865499
0 1 0.0762694 0.00981569
0 1 0.0762719 0.0110996
0 1 0.0762602 0.00581449
0 1 0.0762624 0.00699466
0 1 0.0762635 0.00773447
0 1 0.0762649 0.0087054
0 1 0.0762666 0.00983176
0 1 0.0762627 0.0064985
0 1 0.0762614 0.00613306
0 1 0.0762623 0.00637111
0 1 0.0762654 0.00778205
0 1 0.0762672 0.00867707
0 1 0.0762696 0.00985067
0 1 0.0762722 0.0111684
0 1 0.0762628 0.0070055
0 1 0.0762644 0.00796741
0 1 0.076266 0.00896772
0 1 0.0762678 0.0101109
0 1 0.076264 0.00740431
0 1 0.0762647 0.00747084
0 1 0.0762641 0.00733601
0 1 0.0762649 0.00764978
0 1 0.0762671 0.00860832
0 1 0.0762696 0.00981144
0 1 0.0762724 0.0111847
0 1 0.0762652 0.00814061
0 1 0.076267 0.00918535
0 1 0.076269 0.0103723
0 1 0.076266 0.00834038
0 1 0.0762669 0.0085645
0 1 0.0762664 0.00843543
0 1 0.0762693 0.00971429
0 1 0.0762723 0.0111443
0 1 0.0762679 0.00939222
0 1 0.07627 0.0106065
0 1 0.0762685 0.00953771
0 1 0.0762691 0.00966523
0 1 0.076272 0.0110508
0 1 0.0762709 0.0107952
0 1 0.0762715 0.0109309
VECTORS fa_u float
0.00602956 0.00249752 -0
0.005652 0.00326317 -0
0.00630396 0.00168913 -0
0.00647049 0.000851844 -0
1e-08 0 0
0.00517771 0.00397299 -0
0.00461484 0.00461484 -0
1e-08 0 0
1e-08 0 0
0.003973 0.00517771 -0
0.00326317 0.00565199 -0
0.00652631 -1.23057e-08 -0
0.00647048 -0.00085187 0
1e-08 0 0
1e-08 0 0
1e-08 0 0
1e-08 0 0
1e-08 0 0
1e-08 0 0
1e-08 0 0
1e-08 0 0
0.00249752 0.00602955 -0
0.00168913 0.00630397 -0
1e-08 0 0
1e-08 0 0
1e-08 0 0
0.00630391 -0.00168914 0
1e-08 0 0
0.00602947 -0.0024975 0
1e-08 0 0
1e-08 0 0
1e-08 0 0
0.00085185 0.00647051 -0
1e-08 0 0
1e-08 0 0
1e-08 0 0
1e-08 0 0
1e-08 0 0
1e-08 0 0
1e-08 0 0
1e-08 0 0
1e-08 0 0
1e-08 0 0
-1.22107e-08 0.0065263 -0
1e-08 0 0
1e-08 0 0
1e-08 0 0
0.00565189 -0.00326313 0
1e-08 0 0
0.00517761 -0.00397293 0
1e-08 0 0
1e-08 0 0
1e-08 0 0
1e-08 0 0
1e-08 0 0
1e-08 0 0
1e-08 0 0
1e-08 0 0
1e-08 0 0
1e-08 0 0
1e-08 0 0
1e-08 0 0
1e-08 0 0
-0.000851862 0.00647045 0
1e-08 0 0
1e-08 0 0
1e-08 0 0
1e-08 0 0
1e-08 0 0
0.00461475 -0.00461475 0
1e-08 0 0
0.00397292 -0.00517762 0
1e-08 0 0
1e-08 0 0
1e-08 0 0
1e-08 0 0
1e-08 0 0
1e-08 0 0
1e-08 0 0
1e-08 0 0
1e-08 0 0
1e-08 0 0
1e-08 0 0
1e-08 0 0
1e-08 0 0
-0.00168913 0.00630389 0
1e-08 0 0
1e-08 0 0
1e-08 0 0
1e-08 0 0
1e-08 0 0
1e-08 0 0
0.00326313 -0.00565189 0
1e-08 0 0
1e-08 0 0
1e-08 0 0
1e-08 0 0
1e-08 0 0
0.00249749 -0.00602947 0
1e-08 0 0
1e-08 0 0
1e-08 0 0
1e-08 0 0
1e-08 0 0
1e-08 0 0
1e-08 0 0
1e-08 0 0
1e-08 0 0
1e-08 0 0
-0.0024975 0.00602947 0
1e-08 0 0
1e-08 0 0
1e-08 0 0
1e-08 0 0
1e-08 0 0
1e-08 0 0
1e-08 0 0
1e-08 0 0
1e-08 0 0
1e-08 0 0
1e-08 0 0
1e-08 0 0
1e-08 0 0
1e-08 0 0
0.00168913 -0.00630389 0
1e-08 0 0
1e-08 0 0
1e-08 0 0
1e-08 0 0
1e-08 0 0
1e-08 0 0
1e-08 0 0
1e-08 0 0
1e-08 0 0
-0.00326313 0.00565189 0
1e-08 0 0
1e-08 0 0
1e-08 0 0
1e-08 0 0
1e-08 0 0
1e-08 0 0
1e-08 0 0
1e-08 0 0
1e-08 0 0
1e-08 0 0
1e-08 0 0
1e-08 0 0
1e-08 0 0
1e-08 0 0
1e-08 0 0
0.000851862 -0.00647045 0
1e-08 0 0
1e-08 0 0
1e-08 0 0
1e-08 0 0
1e-08 0 0
1e-08 0 0
1e-08 0 0
1e-08 0 0
1e-08 0 0
1e-08 0 0
-0.00397293 0.00517762 0
1e-08 0 0
1e-08 0 0
1e-08 0 0
1e-08 0 0
1e-08 0 0
1e-08 0 0
1e-08 0 0
1e-08 0 0
1e-08 0 0
1e-08 0 0
1e-08 0 0
1e-08 0 0
1.22366e-08 -0.0065263 0
1e-08 0 0
1e-08 0 0
1e-08 0 0
1e-08 0 0
1e-08 0 0
1e-08 0 0
1e-08 0 0
1e-08 0 0
1e-08 0 0
1e-08 0 0
1e-08 0 0
1e-08 0 0
-0.00461475 0.00461475 0
1e-08 0 0
1e-08 0 0
1e-08 0 0
1e-08 0 0
1e-08 0 0
1e-08 0 0
1e-08 0 0
1e-08 0 0
1e-08 0 0
1e-08 0 0
1e-08 0 0
1e-08 0 0
1e-08 0 0
-0.00085185 -0.00647051 0
1e-08 0 0
1e-08 0 0
1e-08 0 0
1e-08 0 0
1e-08 0 0
1e-08 0 0
1e-08 0 0
1e-08 0 0
-0.00517761 0.00397293 0
1e-08 0 0
1e-08 0 0
1e-08 0 0
1e-08 0 0
1e-08 0 0
1e-08 0 0
1e-08 0 0
1e-08 0 0
1e-08 0 0
1e-08 0 0
1e-08 0 0
-0.00168913 -0.00630397 0
1e-08 0 0
1e-08 0 0
1e-08 0 0
1e-08 0 0
1e-08 0 0
1e-08 0 0
1e-08 0 0
-0.00565189 0.00326313 0
1e-08 0 0
1e-08 0 0
1e-08 0 0
1e-08 0 0
1e-08 0 0
1e-08 0 0
1e-08 0 0
1e-08 0 0
1e-08 0 0
1e-08 0 0
1e-08 0 0
-0.00249752 -0.00602955 0
1e-08 0 0
1e-08 0 0
1e-08 0 0
1e-08 0 0
1e-08 0 0
-0.00602947 0.0024975 0
1e-08 0 0
1e-08 0 0
1e-08 0 0
1e-08 0 0
1e-08 0 0
1e-08 0 0
1e-08 0 0
1e-08 0 0
-0.00326317 -0.00565199 0
1e-08 0 0
1e-08 0 0
1e-08 0 0
1e-08 0 0
-0.00630391 0.00168914 0
1e-08 0 0
1e-08 0 0
1e-08 0 0
1e-08 0 0
1e-08 0 0
1e-08 0 0
-0.003973 -0.00517771 0
1e-08 0 0
1e-08 0 0
1e-08 0 0
-0.00647048 0.00085187 0
1e-08 0 0
1e-08 0 0
1e-08 0 0
1e-08 0 0
1e-08 0 0
1e-08 0 0
-0.00461484 -0.00461484 0
1e-08 0 0
1e-08 0 0
-0.0065263 1.24114e-08 0
1e-08 0 0
1e-08 0 0
1e-08 0 0
1e-08 0 0
-0.00517772 -0.003973 0
1e-08 0 0
-0.00647049 -0.000851844 0
1e-08 0 0
1e-08 0 0
-0.00565199 -0.00326317 0
-0.00630396 -0.00168913 0
-0.00602956 -0.00249752 0
