# vtk DataFile Version 2.0
CellBP Time: 0.195
ASCII
DATASET UNSTRUCTURED_GRID
POINTS 296 double
-9.18881 -3.77686 0
-8.61027 -4.95002 0
-9.60927 -2.53822 0
-9.86446 -1.25529 0
-8.35807 -2.81889 0
-7.88356 -6.03764 0
-7.02109 -7.02109 0
-7.91771 -3.87496 0
-7.34313 -4.86816 0
-6.03764 -7.88355 0
-4.95003 -8.61027 0
-9.95001 0.049973 0
-9.86445 1.35524 0
-8.65818 -1.68406 0
-8.78682 -0.529679 0
-7.5902 -2.00429 0
-7.22624 -2.90669 0
-6.63809 -5.77927 0
-5.82281 -6.59735 0
-6.79075 -3.88919 0
-6.22102 -4.67626 0
-3.77687 -9.18881 0
-2.53823 -9.60927 0
-4.90682 -7.30931 0
-3.91329 -7.88677 0
-8.79327 0.643411 0
-9.60926 2.63817 0
-8.62379 1.77416 0
-9.18879 3.87682 0
-7.74481 -0.92906 0
-7.79504 0.0802384 0
-6.95303 -1.31598 0
-1.25529 -9.86446 0
-6.44192 -2.15328 0
-6.31982 -3.05635 0
-5.53694 -5.47497 0
-4.79627 -6.11593 0
-5.65943 -3.75728 0
-5.26978 -4.56193 0
-2.86639 -8.36451 0
-1.77871 -8.64084 0
-3.92844 -6.72406 0
-3.05686 -7.15314 0
0.0499742 -9.95 0
-7.70604 1.14357 0
-8.33912 2.91559 0
-7.55244 2.11209 0
-8.61024 5.04998 0
-7.88059 3.97848 0
-7.88352 6.1376 0
-6.77918 -0.3969 0
-6.95704 0.552563 0
-5.77177 -1.00348 0
-0.590901 -8.81034 0
0.565699 -8.77152 0
-5.30347 -2.48044 0
-4.49231 -5.09611 0
-3.9028 -5.77576 0
-4.43922 -3.80501 0
-2.06259 -7.56254 0
-1.13559 -7.78646 0
-2.99479 -6.10253 0
-2.30922 -6.62031 0
1.35524 -9.86445 0
-6.68995 1.42213 0
-7.17274 3.11834 0
-6.65977 2.37317 0
-7.29527 4.98902 0
-6.71862 4.00336 0
-7.02105 7.12105 0
-6.573 5.8946 0
-6.03759 7.98352 0
-4.45338 -1.18115 0
-5.81499 0.513776 0
-4.65645 -0.010395 0
0.00850174 -7.84876 0
1.73867 -8.6445 0
0.949023 -7.7641 0
-4.03877 -2.40654 0
-3.48576 -1.39129 0
-3.29475 -4.80568 0
-3.26608 -3.268 0
-1.37871 -6.67601 0
-0.5088 -7.02554 0
-1.97571 -5.53743 0
2.63817 -9.60926 0
-5.50773 2.03706 0
-6.09523 3.07245 0
-6.10564 4.87007 0
-5.76224 3.99182 0
-5.76181 6.71774 0
-5.45265 5.6199 0
-4.94998 8.71025 0
-4.83891 7.40527 0
-3.50171 -0.42434 0
-4.4496 1.24911 0
-3.71171 0.5921 0
-4.06244 2.31996 0
-3.77681 9.28879 0
2.86285 -8.33363 0
0.41971 -6.79607 0
2.0222 -7.52659 0
1.3062 -6.90625 0
-2.44482 -0.873873 0
-2.83856 -2.13127 0
-2.29457 -4.09766 0
-2.32581 -2.9738 0
-0.442436 -5.86166 0
-1.22282 -4.49946 0
3.87681 -9.18879 0
-4.79019 3.39207 0
-5.08844 4.5946 0
-4.64766 6.28211 0
-4.53934 5.36029 0
-3.84413 7.99422 0
-3.82716 6.84648 0
-2.78359 8.42376 0
-1.64915 -0.137913 0
-1.45035 -0.890646 0
-2.48927 0.50728 0
-3.25384 1.44424 0
-3.23927 3.31681 0
-2.91118 2.37192 0
-1.35518 0.627139 0
-2.53816 9.70926 0
3.93311 -7.88784 0
2.96486 -7.15855 0
0.954164 -5.82257 0
2.07455 -6.41622 0
-1.68308 -1.99219 0
-1.43454 -3.27801 0
0.0902143 -4.74737 0
-0.566223 -3.69469 0
4.9327 -7.31964 0
5.04998 -8.61025 0
-3.7773 4.55204 0
-3.73517 5.75279 0
-2.88831 7.29075 0
-3.01004 6.35447 0
-1.66273 8.73469 0
-1.94033 7.6203 0
-2.33856 4.052 0
-0.730778 -1.32733 0
-0.836947 -0.257644 0
-1.93633 1.68088 0
-2.12591 2.87604 0
-1.30666 3.54496 0
-0.869509 1.35091 0
-0.282382 0.456072 0
-0.533561 8.87278 0
-1.25524 9.96445 0
1.11287 -4.575 0
3.91061 -6.71816 0
2.98827 -6.09551 0
2.11807 -5.42554 0
4.78506 -6.20618 0
-0.558895 -2.47698 0
0.495139 -3.4641 0
0.0535521 -1.61058 0
1.48201 -3.68247 0
5.86794 -6.61554 0
6.1376 -7.88352 0
-2.47593 5.34904 0
-2.1307 6.53528 0
-0.904173 7.80436 0
-1.2725 6.93297 0
0.0862368 7.88149 0
-1.14455 4.49512 0
0.150328 -0.617682 0
-0.797475 2.48867 0
-0.331666 3.60102 0
0.063114 1.51282 0
0.741483 0.473451 0
0.646898 8.87547 0
0.0500273 10.05 0
2.38124 -4.28568 0
3.85969 -5.64121 0
3.00182 -5.2134 0
5.5746 -5.49265 0
4.6917 -5.28382 0
0.629712 -2.29352 0
1.25627 -2.95146 0
0.757544 -1.39154 0
2.16454 -3.13611 0
2.99409 -3.47696 0
6.15617 -4.79256 0
6.65661 -5.77019 0
7.12105 -7.02106 0
-1.01974 5.82105 0
-0.372653 6.88459 0
1.12283 7.77081 0
0.558079 7.0809 0
-0.000752533 4.72568 0
0.607069 3.82819 0
1.33901 -0.641935 0
0.539148 2.65126 0
0.966156 1.57505 0
1.91034 0.213888 0
1.61489 1.06511 0
2.12979 7.5849 0
1.79954 8.71386 0
1.35529 9.96446 0
3.82333 -4.35218 0
5.1174 -4.44974 0
5.84675 -3.93581 0
3.78447 -3.20145 0
1.81244 -1.88278 0
3.01948 -2.57417 0
6.78462 -3.94859 0
7.38277 -4.89766 0
7.98352 -6.0376 0
0.483442 5.88239 0
1.42844 6.7431 0
2.3748 6.67034 0
1.21014 4.55676 0
1.48835 3.39802 0
2.43604 -0.692083 0
2.82836 0.142627 0
1.78907 2.16307 0
2.61217 1.15028 0
3.07266 7.17157 0
2.90481 8.37847 0
2.63823 9.70927 0
4.91207 -3.3284 0
6.12187 -3.10926 0
4.17346 -2.27556 0
3.24484 -1.50307 0
6.73275 -2.3135 0
7.23362 -3.04317 0
7.96658 -3.91305 0
8.71025 -4.94998 0
2.02397 5.60078 0
3.08718 6.15494 0
2.36427 4.12753 0
2.42041 3.0613 0
3.52616 -0.46091 0
3.61622 0.613382 0
2.96225 2.2884 0
3.54612 1.5255 0
4.0132 5.89961 0
3.98555 6.79501 0
3.97436 7.94079 0
3.87687 9.28881 0
5.56994 -1.91651 0
4.50997 -1.12977 0
6.71566 -1.33642 0
7.59461 -2.03694 0
8.39943 -2.8621 0
9.28879 -3.77682 0
3.41989 4.87809 0
3.33961 3.38599 0
4.69212 0.130111 0
4.52002 1.31022 0
4.06609 2.44427 0
4.572 5.15407 0
4.8453 6.19283 0
4.98204 7.3828 0
5.05003 8.71027 0
5.88495 -0.43499 0
7.01313 -0.488373 0
7.76211 -1.08561 0
8.68762 -1.74646 0
9.70926 -2.53818 0
4.5537 3.82863 0
5.8194 1.0989 0
5.3728 2.53567 0
5.38212 4.62233 0
5.61433 5.52567 0
5.89937 6.67436 0
6.13764 7.98355 0
6.84863 0.46372 0
7.85637 -0.0256263 0
8.86367 -0.584526 0
9.96445 -1.25524 0
6.96329 1.35 0
5.72338 3.77997 0
6.5441 2.19839 0
6.38289 3.08929 0
6.29517 4.689 0
6.69583 5.84022 0
7.1211 7.12109 0
7.78766 0.968033 0
8.86302 0.572999 0
10.05 0.0500261 0
7.61957 2.00519 0
6.83227 3.90604 0
7.27284 2.94813 0
7.38149 4.88787 0
7.98356 6.13763 0
8.72662 1.72764 0
9.96446 1.35529 0
8.42455 2.83899 0
7.98504 3.91798 0
8.71028 5.05002 0
9.70927 2.63822 0
9.28881 3.87686 0
CELLS 542 2168
3 2 0 4
3 0 1 7
3 4 0 7
3 1 5 8
3 7 1 8
3 3 2 13
3 13 2 4
3 11 3 14
3 14 3 13
3 13 4 15
3 4 7 16
3 15 4 16
3 5 6 17
3 8 5 17
3 6 9 18
3 17 6 18
3 7 8 19
3 16 7 19
3 8 17 20
3 19 8 20
3 9 10 23
3 18 9 23
3 10 21 24
3 23 10 24
3 12 11 25
3 25 11 14
3 26 12 27
3 27 12 25
3 14 13 29
3 29 13 15
3 25 14 30
3 30 14 29
3 29 15 31
3 15 16 33
3 31 15 33
3 16 19 34
3 33 16 34
3 17 18 35
3 20 17 35
3 18 23 36
3 35 18 36
3 19 20 37
3 34 19 37
3 20 35 38
3 37 20 38
3 21 22 39
3 24 21 39
3 22 32 40
3 39 22 40
3 23 24 41
3 36 23 41
3 24 39 42
3 41 24 42
3 27 25 44
3 44 25 30
3 28 26 45
3 45 26 27
3 45 27 46
3 46 27 44
3 47 28 48
3 48 28 45
3 30 29 50
3 50 29 31
3 44 30 51
3 51 30 50
3 50 31 52
3 31 33 52
3 32 43 53
3 40 32 53
3 53 43 54
3 33 34 55
3 34 37 55
3 33 55 52
3 35 36 56
3 38 35 56
3 36 41 57
3 56 36 57
3 37 38 58
3 38 56 58
3 37 58 55
3 39 40 59
3 42 39 59
3 40 53 60
3 59 40 60
3 41 42 61
3 57 41 61
3 42 59 62
3 61 42 62
3 43 63 54
3 46 44 64
3 64 44 51
3 48 45 65
3 65 45 46
3 65 46 66
3 66 46 64
3 49 47 67
3 67 47 48
3 67 48 68
3 68 48 65
3 69 49 70
3 70 49 67
3 52 55 72
3 64 51 73
3 51 50 73
3 50 52 73
3 73 52 74
3 74 52 72
3 53 54 75
3 60 53 75
3 54 63 76
3 54 76 77
3 75 54 77
3 55 58 78
3 72 55 78
3 72 78 79
3 56 57 80
3 57 61 80
3 56 80 58
3 58 80 81
3 78 58 81
3 59 60 82
3 62 59 82
3 60 75 83
3 82 60 83
3 61 62 84
3 62 82 84
3 61 84 80
3 63 85 76
3 66 64 86
3 64 73 86
3 68 65 87
3 87 65 66
3 87 66 86
3 70 67 88
3 88 67 68
3 88 68 89
3 89 68 87
3 71 69 90
3 90 69 70
3 90 70 91
3 91 70 88
3 92 71 93
3 93 71 90
3 74 72 94
3 94 72 79
3 86 73 95
3 95 73 74
3 95 74 96
3 96 74 94
3 97 86 95
3 76 85 99
3 75 77 100
3 83 75 100
3 76 99 101
3 77 76 101
3 77 101 102
3 100 77 102
3 94 79 103
3 78 81 104
3 79 78 104
3 79 104 103
3 80 84 105
3 81 80 105
3 81 105 106
3 104 81 106
3 82 83 107
3 83 100 107
3 82 107 84
3 84 107 108
3 105 84 108
3 85 109 99
3 89 87 110
3 87 86 110
3 110 86 97
3 91 88 111
3 111 88 89
3 111 89 110
3 93 90 112
3 112 90 91
3 112 91 113
3 113 91 111
3 98 92 114
3 114 92 93
3 114 93 115
3 115 93 112
3 116 98 114
3 117 103 118
3 96 94 119
3 94 103 119
3 119 103 117
3 97 95 120
3 120 95 96
3 120 96 119
3 121 110 97
3 121 97 122
3 122 97 120
3 123 119 117
3 124 98 116
3 99 109 125
3 99 125 126
3 101 99 126
3 100 102 127
3 100 127 107
3 101 126 128
3 102 101 128
3 102 128 127
3 104 106 129
3 104 129 103
3 103 129 118
3 105 108 130
3 106 105 130
3 106 130 129
3 107 127 131
3 108 107 131
3 108 131 132
3 108 132 130
3 109 134 125
3 125 134 133
3 113 111 135
3 111 110 135
3 135 110 121
3 115 112 136
3 136 112 113
3 136 113 135
3 116 114 137
3 137 114 115
3 137 115 138
3 138 115 136
3 139 124 116
3 139 116 140
3 140 116 137
3 141 135 121
3 118 129 142
3 118 142 143
3 117 118 143
3 123 117 143
3 122 120 144
3 120 119 144
3 144 119 123
3 141 121 145
3 145 121 122
3 145 122 144
3 146 141 145
3 147 144 123
3 147 123 148
3 143 148 123
3 150 124 139
3 149 150 139
3 131 127 151
3 125 133 152
3 126 125 152
3 126 152 153
3 128 126 153
3 128 153 154
3 128 154 127
3 127 154 151
3 152 133 155
3 130 132 156
3 130 156 129
3 129 156 142
3 131 151 157
3 132 131 157
3 132 157 156
3 156 158 142
3 157 151 159
3 133 160 155
3 134 161 133
3 133 161 160
3 138 136 162
3 136 135 162
3 162 135 141
3 140 137 163
3 163 137 138
3 163 138 162
3 149 139 164
3 164 139 140
3 164 140 165
3 165 140 163
3 166 149 164
3 167 162 141
3 167 141 146
3 142 158 168
3 143 142 168
3 143 168 148
3 146 145 169
3 145 144 169
3 169 144 147
3 170 167 146
3 170 146 169
3 171 169 147
3 171 147 148
3 171 148 172
3 168 172 148
3 173 149 166
3 174 150 149
3 173 174 149
3 154 175 151
3 151 175 159
3 152 155 176
3 153 152 176
3 153 176 177
3 153 177 154
3 154 177 175
3 155 160 178
3 155 178 179
3 176 155 179
3 156 157 180
3 156 180 158
3 157 159 181
3 157 181 180
3 158 180 182
3 158 182 168
3 159 175 183
3 159 183 181
3 175 184 183
3 160 186 178
3 178 186 185
3 161 187 160
3 160 187 186
3 165 163 188
3 163 162 188
3 188 162 167
3 166 164 189
3 189 164 165
3 189 165 188
3 190 173 166
3 190 166 191
3 191 166 189
3 192 188 167
3 192 167 170
3 193 192 170
3 182 194 168
3 194 172 168
3 193 170 195
3 170 169 195
3 195 169 171
3 196 195 171
3 196 171 172
3 194 197 172
3 197 198 172
3 198 196 172
3 200 173 190
3 199 200 190
3 201 174 173
3 200 201 173
3 176 179 202
3 177 176 202
3 177 202 175
3 175 202 184
3 178 185 203
3 178 203 179
3 179 203 202
3 203 185 204
3 202 205 184
3 183 206 181
3 180 181 206
3 180 206 182
3 182 206 194
3 183 184 207
3 205 207 184
3 183 207 206
3 185 208 204
3 186 209 185
3 185 209 208
3 187 210 186
3 186 210 209
3 191 189 211
3 189 188 211
3 211 188 192
3 199 190 212
3 212 190 191
3 212 191 211
3 213 199 212
3 214 211 192
3 214 192 193
3 215 214 193
3 215 193 195
3 206 216 194
3 216 197 194
3 216 217 197
3 215 195 218
3 218 195 196
3 198 218 196
3 217 219 197
3 219 218 198
3 197 219 198
3 220 199 213
3 221 200 199
3 220 221 199
3 222 201 200
3 221 222 200
3 203 204 223
3 203 223 202
3 202 223 205
3 204 208 224
3 204 224 223
3 205 223 225
3 205 225 207
3 207 225 226
3 207 226 206
3 226 216 206
3 208 228 224
3 224 228 227
3 209 229 208
3 229 228 208
3 210 230 209
3 209 230 229
3 213 212 231
3 212 211 231
3 231 211 214
3 232 220 213
3 232 213 231
3 233 231 214
3 233 214 215
3 234 233 215
3 234 215 218
3 226 235 216
3 235 217 216
3 235 236 217
3 217 236 219
3 237 234 218
3 237 218 219
3 236 238 219
3 238 237 219
3 240 220 232
3 239 240 232
3 241 221 220
3 240 241 220
3 242 222 221
3 241 242 221
3 224 227 243
3 224 243 223
3 223 243 225
3 225 243 244
3 225 244 226
3 226 244 235
3 227 245 243
3 228 246 227
3 227 246 245
3 229 247 228
3 228 247 246
3 230 248 229
3 229 248 247
3 239 232 249
3 232 231 249
3 249 231 233
3 250 249 233
3 250 233 234
3 237 250 234
3 244 251 235
3 235 251 236
3 251 252 236
3 236 252 238
3 252 253 238
3 253 250 237
3 253 237 238
3 254 239 249
3 255 240 239
3 254 255 239
3 256 241 240
3 255 256 240
3 257 242 241
3 256 257 241
3 245 258 243
3 243 258 244
3 244 258 251
3 245 259 258
3 246 260 245
3 245 260 259
3 247 261 246
3 246 261 260
3 248 262 247
3 247 262 261
3 254 249 263
3 263 249 250
3 253 263 250
3 258 264 251
3 251 264 252
3 264 265 252
3 265 263 253
3 252 265 253
3 266 254 263
3 267 255 254
3 266 267 254
3 268 256 255
3 267 268 255
3 269 257 256
3 268 269 256
3 259 270 258
3 270 264 258
3 260 271 259
3 259 271 270
3 261 272 260
3 260 272 271
3 262 273 261
3 273 272 261
3 270 274 264
3 275 266 263
3 275 263 265
3 274 276 264
3 276 265 264
3 276 277 265
3 277 275 265
3 278 267 266
3 275 278 266
3 279 268 267
3 278 279 267
3 280 269 268
3 279 280 268
3 271 281 270
3 270 281 274
3 272 282 271
3 271 282 281
3 273 283 272
3 272 283 282
3 281 284 274
3 274 284 276
3 285 278 275
3 277 285 275
3 284 286 276
3 286 285 277
3 276 286 277
3 287 279 278
3 285 287 278
3 288 280 279
3 287 288 279
3 282 289 281
3 281 289 284
3 283 290 282
3 282 290 289
3 289 291 284
3 284 291 286
3 291 292 286
3 292 287 285
3 286 292 285
3 293 288 287
3 292 293 287
3 290 294 289
3 289 294 291
3 294 295 291
3 295 293 292
3 291 295 292
CELL_TYPES 542
5
5
5
5
5
5
5
5
5
5
5
5
5
5
5
5
5
5
5
5
5
5
5
5
5
5
5
5
5
5
5
5
5
5
5
5
5
5
5
5
5
5
5
5
5
5
5
5
5
5
5
5
5
5
5
5
5
5
5
5
5
5
5
5
5
5
5
5
5
5
5
5
5
5
5
5
5
5
5
5
5
5
5
5
5
5
5
5
5
5
5
5
5
5
5
5
5
5
5
5
5
5
5
5
5
5
5
5
5
5
5
5
5
5
5
5
5
5
5
5
5
5
5
5
5
5
5
5
5
5
5
5
5
5
5
5
5
5
5
5
5
5
5
5
5
5
5
5
5
5
5
5
5
5
5
5
5
5
5
5
5
5
5
5
5
5
5
5
5
5
5
5
5
5
5
5
5
5
5
5
5
5
5
5
5
5
5
5
5
5
5
5
5
5
5
5
5
5
5
5
5
5
5
5
5
5
5
5
5
5
5
5
5
5
5
5
5
5
5
5
5
5
5
5
5
5
5
5
5
5
5
5
5
5
5
5
5
5
5
5
5
5
5
5
5
5
5
5
5
5
5
5
5
5
5
5
5
5
5
5
5
5
5
5
5
5
5
5
5
5
5
5
5
5
5
5
5
5
5
5
5
5
5
5
5
5
5
5
5
5
5
5
5
5
5
5
5
5
5
5
5
5
5
5
5
5
5
5
5
5
5
5
5
5
5
5
5
5
5
5
5
5
5
5
5
5
5
5
5
5
5
5
5
5
5
5
5
5
5
5
5
5
5
5
5
5
5
5
5
5
5
5
5
5
5
5
5
5
5
5
5
5
5
5
5
5
5
5
5
5
5
5
5
5
5
5
5
5
5
5
5
5
5
5
5
5
5
5
5
5
5
5
5
5
5
5
5
5
5
5
5
5
5
5
5
5
5
5
5
5
5
5
5
5
5
5
5
5
5
5
5
5
5
5
5
5
5
5
5
5
5
5
5
5
5
5
5
5
5
5
5
5
5
5
5
5
5
5
5
5
5
5
5
5
5
5
5
5
5
5
5
5
5
5
5
5
5
5
5
5
5
5
5
5
5
5
5
5
5
5
5
5
5
5
5
5
5
5
5
5
5
5
5
5
5
5
5
5
5
5
5
5
5
5
5
5
5
5
5
5
5
5
5
5
5
5
5
5
5
5
5
5
5
5
5
5
5
5
5
5
5
5
5
5
5
5
5
5
5
5
5
5
POINT_DATA 296
SCALARS concentrations float 4
LOOKUP_TABLE default
0 1 0.080278 0.0133402
0 1 0.0802783 0.0132645
0 1 0.0802775 0.0134291
0 1 0.0802768 0.0135124
0 1 0.0802741 0.0118165
0 1 0.0802784 0.0132078
0 1 0.0802784 0.0131941
0 1 0.0802744 0.0117517
0 1 0.0802746 0.0116976
0 1 0.0802782 0.0132202
0 1 0.0802779 0.0132789
0 1 0.080276 0.0135651
0 1 0.0802751 0.0135695
0 1 0.0802735 0.0118749
0 1 0.0802728 0.0118925
0 1 0.0802707 0.0105008
0 1 0.0802709 0.0103758
0 1 0.0802746 0.0116592
0 1 0.0802746 0.0116586
0 1 0.0802713 0.0103819
0 1 0.0802712 0.0102977
0 1 0.0802774 0.0133473
0 1 0.0802768 0.0134242
0 1 0.0802743 0.0116919
0 1 0.080274 0.0117352
0 1 0.080272 0.0119306
0 1 0.080274 0.0135356
0 1 0.0802711 0.0118956
0 1 0.080273 0.0134789
0 1 0.0802699 0.0104718
0 1 0.0802693 0.010486
0 1 0.0802679 0.00946132
0 1 0.0802759 0.01348
0 1 0.0802675 0.00904247
0 1 0.0802685 0.0093179
0 1 0.0802713 0.0102911
0 1 0.0802711 0.0102793
0 1 0.080268 0.00898544
0 1 0.0802686 0.00920699
0 1 0.0802736 0.0118347
0 1 0.0802728 0.0118468
0 1 0.0802708 0.0103241
0 1 0.0802704 0.010342
0 1 0.080275 0.0134952
0 1 0.0802685 0.0104787
0 1 0.0802702 0.0118966
0 1 0.0802679 0.0105311
0 1 0.080272 0.0134193
0 1 0.0802693 0.0118363
0 1 0.0802713 0.0133664
0 1 0.0802665 0.00909292
0 1 0.0802665 0.00935923
0 1 0.0802641 0.00781411
0 1 0.080272 0.0118806
0 1 0.0802709 0.0118141
0 1 0.0802647 0.00776621
0 1 0.0802679 0.00896744
0 1 0.0802683 0.00921474
0 1 0.0802649 0.00772184
0 1 0.08027 0.0104575
0 1 0.0802695 0.0105185
0 1 0.0802674 0.00900103
0 1 0.0802677 0.00931043
0 1 0.0802739 0.0134735
0 1 0.0802654 0.00916002
0 1 0.080267 0.0104652
0 1 0.0802653 0.00945398
0 1 0.0802686 0.0117987
0 1 0.0802663 0.0104275
0 1 0.0802709 0.0133477
0 1 0.0802681 0.0117487
0 1 0.080271 0.0133609
0 1 0.0802604 0.00614387
0 1 0.0802631 0.00780419
0 1 0.0802599 0.00622476
0 1 0.0802685 0.0104943
0 1 0.08027 0.0118181
0 1 0.0802677 0.0104412
0 1 0.0802611 0.00623745
0 1 0.080258 0.00501589
0 1 0.0802646 0.00769346
0 1 0.0802609 0.00611464
0 1 0.0802665 0.00906222
0 1 0.0802665 0.00938065
0 1 0.0802641 0.00778223
0 1 0.0802727 0.0134226
0 1 0.080262 0.00782942
0 1 0.080264 0.00909447
0 1 0.0802657 0.0103771
0 1 0.0802639 0.00931309
0 1 0.080268 0.0117624
0 1 0.0802655 0.0103823
0 1 0.0802716 0.0134073
0 1 0.0802683 0.0117634
0 1 0.0802569 0.00473377
0 1 0.0802589 0.00616984
0 1 0.0802569 0.0050363
0 1 0.0802583 0.00621748
0 1 0.0802724 0.0134559
0 1 0.0802689 0.0117542
0 1 0.0802651 0.00905022
0 1 0.0802666 0.0103644
0 1 0.080265 0.00933173
0 1 0.0802544 0.00351494
0 1 0.0802575 0.00473283
0 1 0.0802608 0.00621123
0 1 0.0802581 0.00501327
0 1 0.080263 0.00778983
0 1 0.0802601 0.00616873
0 1 0.0802716 0.0133498
0 1 0.080261 0.00778268
0 1 0.0802632 0.00908045
0 1 0.0802655 0.0103527
0 1 0.0802635 0.00929101
0 1 0.0802689 0.0118154
0 1 0.0802659 0.0103932
0 1 0.0802697 0.0118342
0 1 0.0802514 0.00229727
0 1 0.0802517 0.00235527
0 1 0.0802535 0.00343661
0 1 0.0802557 0.00475524
0 1 0.0802577 0.00612118
0 1 0.0802557 0.00497851
0 1 0.0802505 0.00205295
0 1 0.0802734 0.0134977
0 1 0.080268 0.0116971
0 1 0.0802656 0.010259
0 1 0.0802619 0.00779875
0 1 0.0802634 0.00891189
0 1 0.0802544 0.00350558
0 1 0.0802571 0.00474905
0 1 0.0802593 0.00627132
0 1 0.080257 0.0049471
0 1 0.0802673 0.0116629
0 1 0.0802706 0.0132879
0 1 0.0802607 0.00780497
0 1 0.0802632 0.00905803
0 1 0.0802665 0.010397
0 1 0.0802641 0.00928752
0 1 0.0802706 0.0118676
0 1 0.0802673 0.0104258
0 1 0.0802579 0.00613993
0 1 0.0802509 0.0020872
0 1 0.0802492 0.00129488
0 1 0.0802528 0.00341295
0 1 0.0802551 0.00470441
0 1 0.0802559 0.00492234
0 1 0.0802504 0.00211929
0 1 0.0802481 0.00073525
0 1 0.0802714 0.0118497
0 1 0.0802745 0.0135135
0 1 0.0802583 0.00619331
0 1 0.0802649 0.0102479
0 1 0.0802628 0.00893635
0 1 0.0802607 0.00765938
0 1 0.0802646 0.010299
0 1 0.0802536 0.0033871
0 1 0.0802554 0.00460761
0 1 0.0802505 0.00215918
0 1 0.0802558 0.00519524
0 1 0.080267 0.0116504
0 1 0.08027 0.0132424
0 1 0.0802612 0.00774934
0 1 0.0802642 0.00906556
0 1 0.080268 0.0104046
0 1 0.0802654 0.00929369
0 1 0.0802688 0.0104136
0 1 0.0802584 0.00604387
0 1 0.0802478 0.0008747
0 1 0.080253 0.00338356
0 1 0.080256 0.00465766
0 1 0.0802503 0.00188571
0 1 0.0802486 0.000961796
0 1 0.0802723 0.0118277
0 1 0.0802755 0.0135045
0 1 0.0802578 0.00640595
0 1 0.0802623 0.00896258
0 1 0.0802605 0.00788455
0 1 0.0802644 0.0102639
0 1 0.0802626 0.00925011
0 1 0.0802521 0.00312546
0 1 0.0802539 0.00419147
0 1 0.0802498 0.00205975
0 1 0.0802548 0.00495105
0 1 0.0802565 0.00595848
0 1 0.0802646 0.0102253
0 1 0.080267 0.0115985
0 1 0.0802699 0.0132303
0 1 0.0802622 0.00773597
0 1 0.0802655 0.00905979
0 1 0.0802694 0.0103269
0 1 0.0802668 0.00931232
0 1 0.0802594 0.00610998
0 1 0.0802573 0.00494663
0 1 0.0802494 0.00183125
0 1 0.0802539 0.00340252
0 1 0.0802516 0.00223621
0 1 0.0802512 0.00232728
0 1 0.0802518 0.00231961
0 1 0.0802701 0.0103089
0 1 0.080273 0.0117668
0 1 0.0802764 0.0134627
0 1 0.0802594 0.00754877
0 1 0.0802619 0.0088513
0 1 0.0802629 0.00920511
0 1 0.0802574 0.0064212
0 1 0.0802518 0.00335752
0 1 0.080255 0.00511755
0 1 0.0802653 0.0102971
0 1 0.0802676 0.0116804
0 1 0.0802703 0.0132694
0 1 0.0802632 0.00766962
0 1 0.0802667 0.00897984
0 1 0.0802678 0.00918502
0 1 0.0802601 0.00603147
0 1 0.0802573 0.00467281
0 1 0.0802522 0.00317148
0 1 0.0802537 0.00351871
0 1 0.0802546 0.00345878
0 1 0.0802545 0.00351249
0 1 0.0802703 0.010143
0 1 0.0802735 0.0116526
0 1 0.0802771 0.013385
0 1 0.0802601 0.00770706
0 1 0.080263 0.00895655
0 1 0.0802574 0.00612667
0 1 0.0802546 0.00456254
0 1 0.0802644 0.00930063
0 1 0.080266 0.0103009
0 1 0.0802684 0.0117217
0 1 0.0802711 0.0133121
0 1 0.0802642 0.00766077
0 1 0.0802675 0.00887355
0 1 0.0802607 0.00602475
0 1 0.0802581 0.00488313
0 1 0.0802554 0.00449301
0 1 0.0802565 0.00459812
0 1 0.0802576 0.00465903
0 1 0.0802576 0.00482318
0 1 0.0802685 0.00916668
0 1 0.0802709 0.0101927
0 1 0.080274 0.0115967
0 1 0.0802777 0.0132956
0 1 0.080261 0.00762908
0 1 0.080258 0.00595711
0 1 0.0802644 0.00891956
0 1 0.0802669 0.0103264
0 1 0.0802693 0.0117376
0 1 0.0802722 0.0133634
0 1 0.0802647 0.0075897
0 1 0.0802609 0.00598425
0 1 0.0802592 0.00597559
0 1 0.08026 0.00594919
0 1 0.0802606 0.00596794
0 1 0.0802678 0.0088067
0 1 0.080271 0.0101275
0 1 0.0802744 0.0115714
0 1 0.0802781 0.0132126
0 1 0.0802623 0.00761153
0 1 0.0802657 0.00915369
0 1 0.0802676 0.0102832
0 1 0.0802703 0.0117284
0 1 0.0802733 0.0134078
0 1 0.0802647 0.0075469
0 1 0.0802635 0.00758684
0 1 0.0802643 0.00755793
0 1 0.0802685 0.00906885
0 1 0.0802711 0.0101219
0 1 0.0802745 0.0115298
0 1 0.0802784 0.0131486
0 1 0.0802659 0.00889575
0 1 0.0802685 0.010285
0 1 0.0802713 0.0117466
0 1 0.0802744 0.0134277
0 1 0.0802672 0.00917333
0 1 0.0802676 0.0087583
0 1 0.0802671 0.00887475
0 1 0.0802681 0.00909424
0 1 0.0802709 0.0100809
0 1 0.0802745 0.0114805
0 1 0.0802785 0.0131102
0 1 0.0802692 0.0102346
0 1 0.0802722 0.0117073
0 1 0.0802754 0.0134104
0 1 0.08027 0.0102265
0 1 0.0802708 0.0101252
0 1 0.0802703 0.0101353
0 1 0.0802742 0.0114452
0 1 0.0802784 0.013104
0 1 0.0802729 0.0116691
0 1 0.0802764 0.0133587
0 1 0.0802735 0.0115916
0 1 0.080274 0.0115365
0 1 0.0802781 0.0131259
0 1 0.0802771 0.0132786
0 1 0.0802777 0.0131869
VECTORS fa_u float
0.00602958 0.00249752 -0
0.00565202 0.00326318 -0
0.00630397 0.00168913 -0
0.00647049 0.00085184 -0
1e-08 0 0
0.00517773 0.00397301 -0
0.00461485 0.00461485 -0
1e-08 0 0
1e-08 0 0
0.00397301 0.00517773 -0
0.00326318 0.00565201 -0
0.00652632 -1.67303e-08 -0
0.00647047 -0.000851874 0
1e-08 0 0
1e-08 0 0
1e-08 0 0
1e-08 0 0
1e-08 0 0
1e-08 0 0
1e-08 0 0
1e-08 0 0
0.00249752 0.00602956 -0
0.00168913 0.00630398 -0
1e-08 0 0
1e-08 0 0
1e-08 0 0
0.0063039 -0.00168914 0
1e-08 0 0
0.00602945 -0.0024975 0
1e-08 0 0
1e-08 0 0
1e-08 0 0
0.000851846 0.00647052 -0
1e-08 0 0
1e-08 0 0
1e-08 0 0
1e-08 0 0
1e-08 0 0
1e-08 0 0
1e-08 0 0
1e-08 0 0
1e-08 0 0
1e-08 0 0
-1.66912e-08 0.0065263 -0
1e-08 0 0
1e-08 0 0
1e-08 0 0
0.00565188 -0.00326313 0
1e-08 0 0
0.0051776 -0.00397292 0
1e-08 0 0
1e-08 0 0
1e-08 0 0
1e-08 0 0
1e-08 0 0
1e-08 0 0
1e-08 0 0
1e-08 0 0
1e-08 0 0
1e-08 0 0
1e-08 0 0
1e-08 0 0
1e-08 0 0
-0.000851865 0.00647044 0
1e-08 0 0
1e-08 0 0
1e-08 0 0
1e-08 0 0
1e-08 0 0
0.00461473 -0.00461474 0
1e-08 0 0
0.00397291 -0.0051776 0
1e-08 0 0
1e-08 0 0
1e-08 0 0
1e-08 0 0
1e-08 0 0
1e-08 0 0
1e-08 0 0
1e-08 0 0
1e-08 0 0
1e-08 0 0
1e-08 0 0
1e-08 0 0
1e-08 0 0
-0.00168913 0.00630388 0
1e-08 0 0
1e-08 0 0
1e-08 0 0
1e-08 0 0
1e-08 0 0
1e-08 0 0
0.00326312 -0.00565188 0
1e-08 0 0
1e-08 0 0
1e-08 0 0
1e-08 0 0
1e-08 0 0
0.00249749 -0.00602945 0
1e-08 0 0
1e-08 0 0
1e-08 0 0
1e-08 0 0
1e-08 0 0
1e-08 0 0
1e-08 0 0
1e-08 0 0
1e-08 0 0
1e-08 0 0
-0.00249749 0.00602945 0
1e-08 0 0
1e-08 0 0
1e-08 0 0
1e-08 0 0
1e-08 0 0
1e-08 0 0
1e-08 0 0
1e-08 0 0
1e-08 0 0
1e-08 0 0
1e-08 0 0
1e-08 0 0
1e-08 0 0
1e-08 0 0
0.00168913 -0.00630387 0
1e-08 0 0
1e-08 0 0
1e-08 0 0
1e-08 0 0
1e-08 0 0
1e-08 0 0
1e-08 0 0
1e-08 0 0
1e-08 0 0
-0.00326312 0.00565187 0
1e-08 0 0
1e-08 0 0
1e-08 0 0
1e-08 0 0
1e-08 0 0
1e-08 0 0
1e-08 0 0
1e-08 0 0
1e-08 0 0
1e-08 0 0
1e-08 0 0
1e-08 0 0
1e-08 0 0
1e-08 0 0
1e-08 0 0
0.000851865 -0.00647044 0
1e-08 0 0
1e-08 0 0
1e-08 0 0
1e-08 0 0
1e-08 0 0
1e-08 0 0
1e-08 0 0
1e-08 0 0
1e-08 0 0
1e-08 0 0
-0.00397291 0.0051776 0
1e-08 0 0
1e-08 0 0
1e-08 0 0
1e-08 0 0
1e-08 0 0
1e-08 0 0
1e-08 0 0
1e-08 0 0
1e-08 0 0
1e-08 0 0
1e-08 0 0
1e-08 0 0
1.6747e-08 -0.0065263 0
1e-08 0 0
1e-08 0 0
1e-08 0 0
1e-08 0 0
1e-08 0 0
1e-08 0 0
1e-08 0 0
1e-08 0 0
1e-08 0 0
1e-08 0 0
1e-08 0 0
1e-08 0 0
-0.00461473 0.00461474 0
1e-08 0 0
1e-08 0 0
1e-08 0 0
1e-08 0 0
1e-08 0 0
1e-08 0 0
1e-08 0 0
1e-08 0 0
1e-08 0 0
1e-08 0 0
1e-08 0 0
1e-08 0 0
1e-08 0 0
-0.000851846 -0.00647052 0
1e-08 0 0
1e-08 0 0
1e-08 0 0
1e-08 0 0
1e-08 0 0
1e-08 0 0
1e-08 0 0
1e-08 0 0
-0.00517759 0.00397292 0
1e-08 0 0
1e-08 0 0
1e-08 0 0
1e-08 0 0
1e-08 0 0
1e-08 0 0
1e-08 0 0
1e-08 0 0
1e-08 0 0
1e-08 0 0
1e-08 0 0
-0.00168913 -0.00630398 0
1e-08 0 0
1e-08 0 0
1e-08 0 0
1e-08 0 0
1e-08 0 0
1e-08 0 0
1e-08 0 0
-0.00565187 0.00326313 0
1e-08 0 0
1e-08 0 0
1e-08 0 0
1e-08 0 0
1e-08 0 0
1e-08 0 0
1e-08 0 0
1e-08 0 0
1e-08 0 0
1e-08 0 0
1e-08 0 0
-0.00249752 -0.00602956 0
1e-08 0 0
1e-08 0 0
1e-08 0 0
1e-08 0 0
1e-08 0 0
-0.00602945 0.0024975 0
1e-08 0 0
1e-08 0 0
1e-08 0 0
1e-08 0 0
1e-08 0 0
1e-08 0 0
1e-08 0 0
1e-08 0 0
-0.00326318 -0.00565201 0
1e-08 0 0
1e-08 0 0
1e-08 0 0
1e-08 0 0
-0.0063039 0.00168914 0
1e-08 0 0
1e-08 0 0
1e-08 0 0
1e-08 0 0
1e-08 0 0
1e-08 0 0
-0.00397301 -0.00517773 0
1e-08 0 0
1e-08 0 0
1e-08 0 0
-0.00647048 0.000851874 0
1e-08 0 0
1e-08 0 0
1e-08 0 0
1e-08 0 0
1e-08 0 0
1e-08 0 0
-0.00461486 -0.00461486 0
1e-08 0 0
1e-08 0 0
-0.00652631 1.68601e-08 0
1e-08 0 0
1e-08 0 0
1e-08 0 0
1e-08 0 0
-0.00517774 -0.00397301 0
1e-08 0 0
-0.0064705 -0.000851841 0
1e-08 0 0
1e-08 0 0
-0.00565201 -0.00326318 0
-0.00630398 -0.00168913 0
-0.00602958 -0.00249752 0
