# vtk DataFile Version 2.0
CellBP Time: 0.193
ASCII
DATASET UNSTRUCTURED_GRID
POINTS 296 double
-9.18881 -3.77686 0
-8.61027 -4.95002 0
-9.60927 -2.53822 0
-9.86446 -1.25529 0
-8.35807 -2.81889 0
-7.88356 -6.03763 0
-7.02109 -7.02109 0
-7.91771 -3.87496 0
-7.34313 -4.86816 0
-6.03764 -7.88355 0
-4.95003 -8.61027 0
-9.95001 0.0499735 0
-9.86445 1.35524 0
-8.65818 -1.68406 0
-8.78682 -0.529678 0
-7.5902 -2.00429 0
-7.22624 -2.90669 0
-6.63808 -5.77927 0
-5.82281 -6.59735 0
-6.79075 -3.88919 0
-6.22102 -4.67626 0
-3.77687 -9.18881 0
-2.53823 -9.60927 0
-4.90682 -7.30931 0
-3.91329 -7.88677 0
-8.79327 0.643412 0
-9.60926 2.63818 0
-8.62379 1.77416 0
-9.18879 3.87682 0
-7.74481 -0.92906 0
-7.79504 0.0802388 0
-6.95303 -1.31598 0
-1.25529 -9.86446 0
-6.44192 -2.15328 0
-6.31982 -3.05635 0
-5.53694 -5.47497 0
-4.79627 -6.11593 0
-5.65943 -3.75728 0
-5.26978 -4.56193 0
-2.86639 -8.36451 0
-1.77871 -8.64084 0
-3.92844 -6.72406 0
-3.05686 -7.15314 0
0.0499748 -9.95 0
-7.70604 1.14357 0
-8.33912 2.91559 0
-7.55244 2.11209 0
-8.61024 5.04998 0
-7.88059 3.97848 0
-7.88352 6.1376 0
-6.77918 -0.3969 0
-6.95704 0.552563 0
-5.77177 -1.00348 0
-0.5909 -8.81034 0
0.565699 -8.77152 0
-5.30347 -2.48044 0
-4.49231 -5.09611 0
-3.9028 -5.77576 0
-4.43921 -3.80501 0
-2.06259 -7.56254 0
-1.13559 -7.78646 0
-2.99479 -6.10253 0
-2.30922 -6.62031 0
1.35524 -9.86445 0
-6.68995 1.42213 0
-7.17274 3.11834 0
-6.65977 2.37317 0
-7.29527 4.98902 0
-6.71862 4.00336 0
-7.02105 7.12105 0
-6.573 5.8946 0
-6.03759 7.98352 0
-4.45338 -1.18115 0
-5.81499 0.513776 0
-4.65645 -0.0103947 0
0.00850226 -7.84876 0
1.73867 -8.6445 0
0.949024 -7.7641 0
-4.03877 -2.40654 0
-3.48576 -1.39129 0
-3.29475 -4.80568 0
-3.26608 -3.268 0
-1.37871 -6.67601 0
-0.508799 -7.02554 0
-1.97571 -5.53743 0
2.63817 -9.60926 0
-5.50773 2.03706 0
-6.09523 3.07245 0
-6.10564 4.87007 0
-5.76224 3.99182 0
-5.76181 6.71774 0
-5.45265 5.6199 0
-4.94998 8.71025 0
-4.83891 7.40527 0
-3.50171 -0.42434 0
-4.4496 1.24911 0
-3.7117 0.5921 0
-4.06244 2.31996 0
-3.77681 9.28879 0
2.86285 -8.33363 0
0.41971 -6.79607 0
2.0222 -7.52659 0
1.3062 -6.90625 0
-2.44482 -0.873873 0
-2.83856 -2.13127 0
-2.29457 -4.09766 0
-2.32581 -2.9738 0
-0.442435 -5.86166 0
-1.22282 -4.49946 0
3.87681 -9.18879 0
-4.79019 3.39207 0
-5.08844 4.5946 0
-4.64766 6.28211 0
-4.53934 5.36029 0
-3.84413 7.99422 0
-3.82716 6.84648 0
-2.78359 8.42376 0
-1.64915 -0.137913 0
-1.45035 -0.890645 0
-2.48927 0.50728 0
-3.25384 1.44424 0
-3.23927 3.31681 0
-2.91118 2.37192 0
-1.35518 0.627139 0
-2.53817 9.70926 0
3.93311 -7.88784 0
2.96486 -7.15855 0
0.954165 -5.82257 0
2.07455 -6.41622 0
-1.68308 -1.99219 0
-1.43454 -3.27801 0
0.0902147 -4.74737 0
-0.566223 -3.69469 0
4.9327 -7.31964 0
5.04998 -8.61025 0
-3.7773 4.55204 0
-3.73517 5.75279 0
-2.88831 7.29075 0
-3.01004 6.35447 0
-1.66273 8.73469 0
-1.94033 7.6203 0
-2.33856 4.052 0
-0.730777 -1.32733 0
-0.836947 -0.257644 0
-1.93633 1.68088 0
-2.12591 2.87604 0
-1.30666 3.54496 0
-0.869509 1.35091 0
-0.282382 0.456072 0
-0.533561 8.87278 0
-1.25524 9.96445 0
1.11287 -4.575 0
3.91061 -6.71816 0
2.98827 -6.09551 0
2.11807 -5.42554 0
4.78506 -6.20618 0
-0.558894 -2.47698 0
0.495139 -3.4641 0
0.0535523 -1.61058 0
1.48201 -3.68247 0
5.86794 -6.61554 0
6.1376 -7.88352 0
-2.47593 5.34904 0
-2.1307 6.53528 0
-0.904173 7.80436 0
-1.2725 6.93297 0
0.0862365 7.88149 0
-1.14455 4.49512 0
0.150329 -0.617682 0
-0.797475 2.48867 0
-0.331666 3.60102 0
0.0631141 1.51282 0
0.741483 0.473451 0
0.646897 8.87547 0
0.0500269 10.05 0
2.38124 -4.28568 0
3.85969 -5.64121 0
3.00182 -5.2134 0
5.57461 -5.49265 0
4.6917 -5.28382 0
0.629712 -2.29352 0
1.25627 -2.95146 0
0.757544 -1.39154 0
2.16454 -3.13611 0
2.99409 -3.47696 0
6.15617 -4.79256 0
6.65661 -5.77019 0
7.12105 -7.02106 0
-1.01974 5.82105 0
-0.372653 6.88459 0
1.12283 7.77081 0
0.558079 7.0809 0
-0.000752648 4.72568 0
0.607069 3.82819 0
1.33901 -0.641935 0
0.539148 2.65126 0
0.966156 1.57505 0
1.91034 0.213888 0
1.61489 1.06511 0
2.12979 7.5849 0
1.79954 8.71386 0
1.35529 9.96446 0
3.82333 -4.35218 0
5.1174 -4.44974 0
5.84675 -3.93581 0
3.78447 -3.20145 0
1.81244 -1.88278 0
3.01948 -2.57417 0
6.78462 -3.94859 0
7.38277 -4.89767 0
7.98352 -6.0376 0
0.483442 5.88239 0
1.42844 6.7431 0
2.3748 6.67034 0
1.21014 4.55676 0
1.48835 3.39802 0
2.43604 -0.692083 0
2.82836 0.142627 0
1.78907 2.16307 0
2.61217 1.15028 0
3.07266 7.17157 0
2.90481 8.37847 0
2.63823 9.70927 0
4.91207 -3.32841 0
6.12187 -3.10926 0
4.17346 -2.27556 0
3.24484 -1.50307 0
6.73275 -2.3135 0
7.23362 -3.04317 0
7.96658 -3.91305 0
8.71025 -4.94998 0
2.02397 5.60078 0
3.08718 6.15494 0
2.36427 4.12753 0
2.42041 3.0613 0
3.52616 -0.46091 0
3.61622 0.613382 0
2.96225 2.2884 0
3.54612 1.5255 0
4.0132 5.89961 0
3.98555 6.79501 0
3.97436 7.94079 0
3.87687 9.28881 0
5.56994 -1.91651 0
4.50997 -1.12977 0
6.71566 -1.33642 0
7.59461 -2.03694 0
8.39943 -2.8621 0
9.28879 -3.77682 0
3.41989 4.87809 0
3.33961 3.38599 0
4.69212 0.13011 0
4.52002 1.31022 0
4.06609 2.44427 0
4.572 5.15407 0
4.8453 6.19283 0
4.98204 7.3828 0
5.05003 8.71027 0
5.88495 -0.43499 0
7.01313 -0.488374 0
7.76211 -1.08561 0
8.68762 -1.74646 0
9.70926 -2.53818 0
4.5537 3.82863 0
5.8194 1.0989 0
5.3728 2.53567 0
5.38212 4.62233 0
5.61433 5.52567 0
5.89937 6.67436 0
6.13764 7.98355 0
6.84863 0.463719 0
7.85637 -0.0256267 0
8.86367 -0.584526 0
9.96445 -1.25524 0
6.96329 1.35 0
5.72338 3.77997 0
6.5441 2.19839 0
6.38289 3.08929 0
6.29517 4.689 0
6.69583 5.84022 0
7.1211 7.12109 0
7.78766 0.968033 0
8.86302 0.572999 0
10.05 0.0500256 0
7.61957 2.00519 0
6.83227 3.90604 0
7.27284 2.94813 0
7.38149 4.88787 0
7.98356 6.13763 0
8.72662 1.72764 0
9.96446 1.35529 0
8.42455 2.83898 0
7.98504 3.91798 0
8.71028 5.05002 0
9.70927 2.63822 0
9.28881 3.87686 0
CELLS 542 2168
3 2 0 4
3 0 1 7
3 4 0 7
3 1 5 8
3 7 1 8
3 3 2 13
3 13 2 4
3 11 3 14
3 14 3 13
3 13 4 15
3 4 7 16
3 15 4 16
3 5 6 17
3 8 5 17
3 6 9 18
3 17 6 18
3 7 8 19
3 16 7 19
3 8 17 20
3 19 8 20
3 9 10 23
3 18 9 23
3 10 21 24
3 23 10 24
3 12 11 25
3 25 11 14
3 26 12 27
3 27 12 25
3 14 13 29
3 29 13 15
3 25 14 30
3 30 14 29
3 29 15 31
3 15 16 33
3 31 15 33
3 16 19 34
3 33 16 34
3 17 18 35
3 20 17 35
3 18 23 36
3 35 18 36
3 19 20 37
3 34 19 37
3 20 35 38
3 37 20 38
3 21 22 39
3 24 21 39
3 22 32 40
3 39 22 40
3 23 24 41
3 36 23 41
3 24 39 42
3 41 24 42
3 27 25 44
3 44 25 30
3 28 26 45
3 45 26 27
3 45 27 46
3 46 27 44
3 47 28 48
3 48 28 45
3 30 29 50
3 50 29 31
3 44 30 51
3 51 30 50
3 50 31 52
3 31 33 52
3 32 43 53
3 40 32 53
3 53 43 54
3 33 34 55
3 34 37 55
3 33 55 52
3 35 36 56
3 38 35 56
3 36 41 57
3 56 36 57
3 37 38 58
3 38 56 58
3 37 58 55
3 39 40 59
3 42 39 59
3 40 53 60
3 59 40 60
3 41 42 61
3 57 41 61
3 42 59 62
3 61 42 62
3 43 63 54
3 46 44 64
3 64 44 51
3 48 45 65
3 65 45 46
3 65 46 66
3 66 46 64
3 49 47 67
3 67 47 48
3 67 48 68
3 68 48 65
3 69 49 70
3 70 49 67
3 52 55 72
3 64 51 73
3 51 50 73
3 50 52 73
3 73 52 74
3 74 52 72
3 53 54 75
3 60 53 75
3 54 63 76
3 54 76 77
3 75 54 77
3 55 58 78
3 72 55 78
3 72 78 79
3 56 57 80
3 57 61 80
3 56 80 58
3 58 80 81
3 78 58 81
3 59 60 82
3 62 59 82
3 60 75 83
3 82 60 83
3 61 62 84
3 62 82 84
3 61 84 80
3 63 85 76
3 66 64 86
3 64 73 86
3 68 65 87
3 87 65 66
3 87 66 86
3 70 67 88
3 88 67 68
3 88 68 89
3 89 68 87
3 71 69 90
3 90 69 70
3 90 70 91
3 91 70 88
3 92 71 93
3 93 71 90
3 74 72 94
3 94 72 79
3 86 73 95
3 95 73 74
3 95 74 96
3 96 74 94
3 97 86 95
3 76 85 99
3 75 77 100
3 83 75 100
3 76 99 101
3 77 76 101
3 77 101 102
3 100 77 102
3 94 79 103
3 78 81 104
3 79 78 104
3 79 104 103
3 80 84 105
3 81 80 105
3 81 105 106
3 104 81 106
3 82 83 107
3 83 100 107
3 82 107 84
3 84 107 108
3 105 84 108
3 85 109 99
3 89 87 110
3 87 86 110
3 110 86 97
3 91 88 111
3 111 88 89
3 111 89 110
3 93 90 112
3 112 90 91
3 112 91 113
3 113 91 111
3 98 92 114
3 114 92 93
3 114 93 115
3 115 93 112
3 116 98 114
3 117 103 118
3 96 94 119
3 94 103 119
3 119 103 117
3 97 95 120
3 120 95 96
3 120 96 119
3 121 110 97
3 121 97 122
3 122 97 120
3 123 119 117
3 124 98 116
3 99 109 125
3 99 125 126
3 101 99 126
3 100 102 127
3 100 127 107
3 101 126 128
3 102 101 128
3 102 128 127
3 104 106 129
3 104 129 103
3 103 129 118
3 105 108 130
3 106 105 130
3 106 130 129
3 107 127 131
3 108 107 131
3 108 131 132
3 108 132 130
3 109 134 125
3 125 134 133
3 113 111 135
3 111 110 135
3 135 110 121
3 115 112 136
3 136 112 113
3 136 113 135
3 116 114 137
3 137 114 115
3 137 115 138
3 138 115 136
3 139 124 116
3 139 116 140
3 140 116 137
3 141 135 121
3 118 129 142
3 118 142 143
3 117 118 143
3 123 117 143
3 122 120 144
3 120 119 144
3 144 119 123
3 141 121 145
3 145 121 122
3 145 122 144
3 146 141 145
3 147 144 123
3 147 123 148
3 143 148 123
3 150 124 139
3 149 150 139
3 131 127 151
3 125 133 152
3 126 125 152
3 126 152 153
3 128 126 153
3 128 153 154
3 128 154 127
3 127 154 151
3 152 133 155
3 130 132 156
3 130 156 129
3 129 156 142
3 131 151 157
3 132 131 157
3 132 157 156
3 156 158 142
3 157 151 159
3 133 160 155
3 134 161 133
3 133 161 160
3 138 136 162
3 136 135 162
3 162 135 141
3 140 137 163
3 163 137 138
3 163 138 162
3 149 139 164
3 164 139 140
3 164 140 165
3 165 140 163
3 166 149 164
3 167 162 141
3 167 141 146
3 142 158 168
3 143 142 168
3 143 168 148
3 146 145 169
3 145 144 169
3 169 144 147
3 170 167 146
3 170 146 169
3 171 169 147
3 171 147 148
3 171 148 172
3 168 172 148
3 173 149 166
3 174 150 149
3 173 174 149
3 154 175 151
3 151 175 159
3 152 155 176
3 153 152 176
3 153 176 177
3 153 177 154
3 154 177 175
3 155 160 178
3 155 178 179
3 176 155 179
3 156 157 180
3 156 180 158
3 157 159 181
3 157 181 180
3 158 180 182
3 158 182 168
3 159 175 183
3 159 183 181
3 175 184 183
3 160 186 178
3 178 186 185
3 161 187 160
3 160 187 186
3 165 163 188
3 163 162 188
3 188 162 167
3 166 164 189
3 189 164 165
3 189 165 188
3 190 173 166
3 190 166 191
3 191 166 189
3 192 188 167
3 192 167 170
3 193 192 170
3 182 194 168
3 194 172 168
3 193 170 195
3 170 169 195
3 195 169 171
3 196 195 171
3 196 171 172
3 194 197 172
3 197 198 172
3 198 196 172
3 200 173 190
3 199 200 190
3 201 174 173
3 200 201 173
3 176 179 202
3 177 176 202
3 177 202 175
3 175 202 184
3 178 185 203
3 178 203 179
3 179 203 202
3 203 185 204
3 202 205 184
3 183 206 181
3 180 181 206
3 180 206 182
3 182 206 194
3 183 184 207
3 205 207 184
3 183 207 206
3 185 208 204
3 186 209 185
3 185 209 208
3 187 210 186
3 186 210 209
3 191 189 211
3 189 188 211
3 211 188 192
3 199 190 212
3 212 190 191
3 212 191 211
3 213 199 212
3 214 211 192
3 214 192 193
3 215 214 193
3 215 193 195
3 206 216 194
3 216 197 194
3 216 217 197
3 215 195 218
3 218 195 196
3 198 218 196
3 217 219 197
3 219 218 198
3 197 219 198
3 220 199 213
3 221 200 199
3 220 221 199
3 222 201 200
3 221 222 200
3 203 204 223
3 203 223 202
3 202 223 205
3 204 208 224
3 204 224 223
3 205 223 225
3 205 225 207
3 207 225 226
3 207 226 206
3 226 216 206
3 208 228 224
3 224 228 227
3 209 229 208
3 229 228 208
3 210 230 209
3 209 230 229
3 213 212 231
3 212 211 231
3 231 211 214
3 232 220 213
3 232 213 231
3 233 231 214
3 233 214 215
3 234 233 215
3 234 215 218
3 226 235 216
3 235 217 216
3 235 236 217
3 217 236 219
3 237 234 218
3 237 218 219
3 236 238 219
3 238 237 219
3 240 220 232
3 239 240 232
3 241 221 220
3 240 241 220
3 242 222 221
3 241 242 221
3 224 227 243
3 224 243 223
3 223 243 225
3 225 243 244
3 225 244 226
3 226 244 235
3 227 245 243
3 228 246 227
3 227 246 245
3 229 247 228
3 228 247 246
3 230 248 229
3 229 248 247
3 239 232 249
3 232 231 249
3 249 231 233
3 250 249 233
3 250 233 234
3 237 250 234
3 244 251 235
3 235 251 236
3 251 252 236
3 236 252 238
3 252 253 238
3 253 250 237
3 253 237 238
3 254 239 249
3 255 240 239
3 254 255 239
3 256 241 240
3 255 256 240
3 257 242 241
3 256 257 241
3 245 258 243
3 243 258 244
3 244 258 251
3 245 259 258
3 246 260 245
3 245 260 259
3 247 261 246
3 246 261 260
3 248 262 247
3 247 262 261
3 254 249 263
3 263 249 250
3 253 263 250
3 258 264 251
3 251 264 252
3 264 265 252
3 265 263 253
3 252 265 253
3 266 254 263
3 267 255 254
3 266 267 254
3 268 256 255
3 267 268 255
3 269 257 256
3 268 269 256
3 259 270 258
3 270 264 258
3 260 271 259
3 259 271 270
3 261 272 260
3 260 272 271
3 262 273 261
3 273 272 261
3 270 274 264
3 275 266 263
3 275 263 265
3 274 276 264
3 276 265 264
3 276 277 265
3 277 275 265
3 278 267 266
3 275 278 266
3 279 268 267
3 278 279 267
3 280 269 268
3 279 280 268
3 271 281 270
3 270 281 274
3 272 282 271
3 271 282 281
3 273 283 272
3 272 283 282
3 281 284 274
3 274 284 276
3 285 278 275
3 277 285 275
3 284 286 276
3 286 285 277
3 276 286 277
3 287 279 278
3 285 287 278
3 288 280 279
3 287 288 279
3 282 289 281
3 281 289 284
3 283 290 282
3 282 290 289
3 289 291 284
3 284 291 286
3 291 292 286
3 292 287 285
3 286 292 285
3 293 288 287
3 292 293 287
3 290 294 289
3 289 294 291
3 294 295 291
3 295 293 292
3 291 295 292
CELL_TYPES 542
5
5
5
5
5
5
5
5
5
5
5
5
5
5
5
5
5
5
5
5
5
5
5
5
5
5
5
5
5
5
5
5
5
5
5
5
5
5
5
5
5
5
5
5
5
5
5
5
5
5
5
5
5
5
5
5
5
5
5
5
5
5
5
5
5
5
5
5
5
5
5
5
5
5
5
5
5
5
5
5
5
5
5
5
5
5
5
5
5
5
5
5
5
5
5
5
5
5
5
5
5
5
5
5
5
5
5
5
5
5
5
5
5
5
5
5
5
5
5
5
5
5
5
5
5
5
5
5
5
5
5
5
5
5
5
5
5
5
5
5
5
5
5
5
5
5
5
5
5
5
5
5
5
5
5
5
5
5
5
5
5
5
5
5
5
5
5
5
5
5
5
5
5
5
5
5
5
5
5
5
5
5
5
5
5
5
5
5
5
5
5
5
5
5
5
5
5
5
5
5
5
5
5
5
5
5
5
5
5
5
5
5
5
5
5
5
5
5
5
5
5
5
5
5
5
5
5
5
5
5
5
5
5
5
5
5
5
5
5
5
5
5
5
5
5
5
5
5
5
5
5
5
5
5
5
5
5
5
5
5
5
5
5
5
5
5
5
5
5
5
5
5
5
5
5
5
5
5
5
5
5
5
5
5
5
5
5
5
5
5
5
5
5
5
5
5
5
5
5
5
5
5
5
5
5
5
5
5
5
5
5
5
5
5
5
5
5
5
5
5
5
5
5
5
5
5
5
5
5
5
5
5
5
5
5
5
5
5
5
5
5
5
5
5
5
5
5
5
5
5
5
5
5
5
5
5
5
5
5
5
5
5
5
5
5
5
5
5
5
5
5
5
5
5
5
5
5
5
5
5
5
5
5
5
5
5
5
5
5
5
5
5
5
5
5
5
5
5
5
5
5
5
5
5
5
5
5
5
5
5
5
5
5
5
5
5
5
5
5
5
5
5
5
5
5
5
5
5
5
5
5
5
5
5
5
5
5
5
5
5
5
5
5
5
5
5
5
5
5
5
5
5
5
5
5
5
5
5
5
5
5
5
5
5
5
5
5
5
5
5
5
5
5
5
5
5
5
5
5
5
5
5
5
5
5
5
5
5
5
5
5
5
5
5
5
5
5
5
5
5
5
5
5
5
5
5
5
5
5
5
5
5
5
5
5
5
5
5
5
5
5
5
5
5
5
5
5
5
5
5
5
5
5
5
5
5
5
5
5
5
5
5
POINT_DATA 296
SCALARS concentrations float 4
LOOKUP_TABLE default
0 1 0.0800407 0.0131327
0 1 0.080041 0.0130575
0 1 0.0800402 0.0132162
0 1 0.0800395 0.0132933
0 1 0.0800369 0.0116279
0 1 0.0800412 0.0129923
0 1 0.0800412 0.0129689
0 1 0.0800372 0.0115633
0 1 0.0800374 0.0115043
0 1 0.080041 0.0129755
0 1 0.0800407 0.0130198
0 1 0.0800387 0.0133397
0 1 0.0800377 0.0133396
0 1 0.0800363 0.0116836
0 1 0.0800356 0.0116982
0 1 0.0800336 0.0103297
0 1 0.0800338 0.0102049
0 1 0.0800375 0.0114566
0 1 0.0800374 0.0114426
0 1 0.0800342 0.0102065
0 1 0.0800342 0.0101159
0 1 0.0800402 0.0130646
0 1 0.0800395 0.0131177
0 1 0.0800372 0.0114598
0 1 0.0800368 0.0114854
0 1 0.0800348 0.0117328
0 1 0.0800367 0.0133039
0 1 0.0800339 0.0116973
0 1 0.0800356 0.0132495
0 1 0.0800328 0.010301
0 1 0.0800321 0.0103144
0 1 0.0800309 0.00930514
0 1 0.0800386 0.0131505
0 1 0.0800305 0.00888938
0 1 0.0800315 0.0091573
0 1 0.0800342 0.0100976
0 1 0.080034 0.0100733
0 1 0.0800309 0.00882164
0 1 0.0800316 0.00903149
0 1 0.0800364 0.0115636
0 1 0.0800356 0.0115561
0 1 0.0800337 0.0101009
0 1 0.0800333 0.0101021
0 1 0.0800376 0.0131445
0 1 0.0800313 0.0103072
0 1 0.080033 0.011699
0 1 0.0800307 0.0103597
0 1 0.0800346 0.013194
0 1 0.0800321 0.0116424
0 1 0.0800339 0.0131437
0 1 0.0800295 0.00894373
0 1 0.0800294 0.00920719
0 1 0.0800271 0.0076816
0 1 0.0800348 0.0115697
0 1 0.0800337 0.0114873
0 1 0.0800278 0.0076241
0 1 0.0800309 0.00878238
0 1 0.0800313 0.00901295
0 1 0.080028 0.00756265
0 1 0.0800329 0.010197
0 1 0.0800323 0.0102407
0 1 0.0800304 0.0087853
0 1 0.0800306 0.00907555
0 1 0.0800365 0.0131064
0 1 0.0800283 0.00901363
0 1 0.0800298 0.010298
0 1 0.0800282 0.00930513
0 1 0.0800313 0.0116095
0 1 0.0800291 0.0102654
0 1 0.0800335 0.0131359
0 1 0.0800308 0.0115677
0 1 0.0800336 0.0131634
0 1 0.0800236 0.00603039
0 1 0.0800261 0.00767915
0 1 0.080023 0.00612242
0 1 0.0800314 0.0101988
0 1 0.0800327 0.0114769
0 1 0.0800305 0.0101339
0 1 0.0800243 0.00610647
0 1 0.0800212 0.00490918
0 1 0.0800277 0.00750998
0 1 0.0800241 0.0059657
0 1 0.0800295 0.00881446
0 1 0.0800295 0.00911248
0 1 0.0800272 0.00756905
0 1 0.0800353 0.0130418
0 1 0.080025 0.00771315
0 1 0.0800269 0.00895738
0 1 0.0800285 0.0102234
0 1 0.0800268 0.0091785
0 1 0.0800307 0.0115929
0 1 0.0800283 0.0102376
0 1 0.0800342 0.0132215
0 1 0.0800309 0.0116071
0 1 0.0800201 0.00464751
0 1 0.080022 0.00608176
0 1 0.0800201 0.0049623
0 1 0.0800214 0.00614286
0 1 0.080035 0.0132853
0 1 0.0800317 0.0114054
0 1 0.080028 0.00877411
0 1 0.0800294 0.0100478
0 1 0.0800279 0.0090403
0 1 0.0800176 0.00342894
0 1 0.0800207 0.00460984
0 1 0.0800239 0.00603546
0 1 0.0800213 0.00486515
0 1 0.0800261 0.00754812
0 1 0.0800232 0.00596961
0 1 0.0800342 0.0129652
0 1 0.080024 0.00768155
0 1 0.080026 0.00895948
0 1 0.0800283 0.0102208
0 1 0.0800263 0.00917615
0 1 0.0800316 0.0116726
0 1 0.0800287 0.010274
0 1 0.0800324 0.0117081
0 1 0.0800147 0.00224908
0 1 0.080015 0.00226565
0 1 0.0800167 0.00339367
0 1 0.0800189 0.00470345
0 1 0.0800207 0.00606944
0 1 0.0800188 0.00494201
0 1 0.0800138 0.00205466
0 1 0.080036 0.0133472
0 1 0.0800307 0.0113459
0 1 0.0800284 0.0099389
0 1 0.0800249 0.00753802
0 1 0.0800263 0.00862198
0 1 0.0800177 0.00337676
0 1 0.0800203 0.00458175
0 1 0.0800224 0.00604721
0 1 0.0800201 0.00475625
0 1 0.08003 0.0113135
0 1 0.0800332 0.0129022
0 1 0.0800237 0.00772363
0 1 0.0800261 0.00896049
0 1 0.0800293 0.0102935
0 1 0.080027 0.00919969
0 1 0.0800333 0.01176
0 1 0.0800301 0.0103384
0 1 0.0800209 0.00611034
0 1 0.0800142 0.0019594
0 1 0.0800126 0.00124132
0 1 0.080016 0.00341199
0 1 0.0800182 0.00469491
0 1 0.080019 0.00493352
0 1 0.0800137 0.00216812
0 1 0.0800115 0.000805947
0 1 0.0800342 0.0117612
0 1 0.0800371 0.0133841
0 1 0.0800214 0.00595961
0 1 0.0800277 0.00992756
0 1 0.0800257 0.00864318
0 1 0.0800236 0.0073934
0 1 0.0800274 0.00998185
0 1 0.0800168 0.00322363
0 1 0.0800186 0.00440664
0 1 0.0800138 0.00200368
0 1 0.080019 0.00497944
0 1 0.0800297 0.0113077
0 1 0.0800326 0.0128609
0 1 0.0800241 0.00769491
0 1 0.0800271 0.00899742
0 1 0.0800309 0.0103354
0 1 0.0800282 0.00923728
0 1 0.0800317 0.0103605
0 1 0.0800215 0.00604267
0 1 0.0800112 0.000739203
0 1 0.0800162 0.00342812
0 1 0.0800192 0.00469516
0 1 0.0800137 0.00197558
0 1 0.080012 0.00102866
0 1 0.0800351 0.011758
0 1 0.0800381 0.0133959
0 1 0.0800208 0.00616692
0 1 0.0800251 0.00867183
0 1 0.0800235 0.00761444
0 1 0.0800272 0.00995759
0 1 0.0800254 0.00896044
0 1 0.0800153 0.00294997
0 1 0.080017 0.00399619
0 1 0.0800131 0.00190979
0 1 0.080018 0.00474679
0 1 0.0800196 0.0057394
0 1 0.0800274 0.0099333
0 1 0.0800297 0.0112693
0 1 0.0800325 0.0128577
0 1 0.0800252 0.00771027
0 1 0.0800285 0.00902301
0 1 0.0800323 0.0102909
0 1 0.0800297 0.00928599
0 1 0.0800225 0.0061297
0 1 0.0800205 0.00499488
0 1 0.0800127 0.00174139
0 1 0.0800172 0.00347469
0 1 0.0800149 0.0023212
0 1 0.0800145 0.00231284
0 1 0.0800151 0.00237043
0 1 0.080033 0.0102861
0 1 0.0800358 0.0117144
0 1 0.080039 0.0133737
0 1 0.0800224 0.00729597
0 1 0.0800248 0.00858286
0 1 0.0800258 0.00894517
0 1 0.0800205 0.00620698
0 1 0.080015 0.00319834
0 1 0.0800181 0.00493072
0 1 0.0800281 0.0100241
0 1 0.0800303 0.0113674
0 1 0.0800329 0.0129114
0 1 0.0800262 0.00767066
0 1 0.0800297 0.00897137
0 1 0.0800307 0.00918353
0 1 0.0800232 0.006069
0 1 0.0800205 0.00473163
0 1 0.0800155 0.00308177
0 1 0.080017 0.00347703
0 1 0.0800179 0.00352319
0 1 0.0800177 0.00352843
0 1 0.0800332 0.0101323
0 1 0.0800363 0.0116153
0 1 0.0800398 0.0133144
0 1 0.080023 0.00747885
0 1 0.0800259 0.00872192
0 1 0.0800204 0.00594559
0 1 0.0800177 0.00442263
0 1 0.0800273 0.00908543
0 1 0.0800288 0.010052
0 1 0.0800311 0.0114315
0 1 0.0800337 0.0129761
0 1 0.0800273 0.0076802
0 1 0.0800305 0.00888198
0 1 0.0800239 0.00606736
0 1 0.0800213 0.00493364
0 1 0.0800185 0.00440465
0 1 0.0800197 0.00456115
0 1 0.0800208 0.00469272
0 1 0.0800208 0.00482254
0 1 0.0800315 0.00917321
0 1 0.0800338 0.0101867
0 1 0.0800368 0.0115698
0 1 0.0800404 0.0132396
0 1 0.080024 0.00744662
0 1 0.0800211 0.00582219
0 1 0.0800273 0.00873994
0 1 0.0800297 0.0101059
0 1 0.0800321 0.0114746
0 1 0.0800348 0.0130545
0 1 0.0800278 0.00761347
0 1 0.080024 0.00601653
0 1 0.0800223 0.00589251
0 1 0.0800231 0.00591433
0 1 0.0800238 0.00597384
0 1 0.0800308 0.00881331
0 1 0.0800339 0.0101225
0 1 0.0800372 0.01155
0 1 0.0800409 0.0131672
0 1 0.0800253 0.00748133
0 1 0.0800286 0.008998
0 1 0.0800305 0.0100915
0 1 0.080033 0.0114959
0 1 0.0800359 0.0131295
0 1 0.0800278 0.00755506
0 1 0.0800265 0.00751163
0 1 0.0800274 0.00753094
0 1 0.0800315 0.00906241
0 1 0.080034 0.0101109
0 1 0.0800374 0.0115082
0 1 0.0800411 0.0131095
0 1 0.0800288 0.00877531
0 1 0.0800314 0.0101255
0 1 0.0800341 0.0115465
0 1 0.0800371 0.0131819
0 1 0.0800301 0.00907629
0 1 0.0800306 0.00873996
0 1 0.0800301 0.00880993
0 1 0.080031 0.00905082
0 1 0.0800339 0.0100561
0 1 0.0800373 0.0114503
0 1 0.0800412 0.0130687
0 1 0.0800321 0.010106
0 1 0.0800349 0.0115406
0 1 0.0800381 0.013199
0 1 0.0800328 0.010129
0 1 0.0800337 0.0100817
0 1 0.0800332 0.0100664
0 1 0.080037 0.0113974
0 1 0.0800411 0.0130489
0 1 0.0800358 0.0115355
0 1 0.0800391 0.0131832
0 1 0.0800363 0.01149
0 1 0.0800368 0.011464
0 1 0.0800408 0.0130467
0 1 0.0800398 0.0131377
0 1 0.0800404 0.0130795
VECTORS fa_u float
0.00602958 0.00249752 -0
0.00565202 0.00326318 -0
0.00630397 0.00168913 -0
0.00647049 0.00085184 -0
1e-08 0 0
0.00517773 0.003973 -0
0.00461485 0.00461485 -0
1e-08 0 0
1e-08 0 0
0.00397301 0.00517773 -0
0.00326318 0.00565201 -0
0.00652632 -1.64097e-08 -0
0.00647047 -0.000851874 0
1e-08 0 0
1e-08 0 0
1e-08 0 0
1e-08 0 0
1e-08 0 0
1e-08 0 0
1e-08 0 0
1e-08 0 0
0.00249752 0.00602956 -0
0.00168913 0.00630398 -0
1e-08 0 0
1e-08 0 0
1e-08 0 0
0.0063039 -0.00168914 0
1e-08 0 0
0.00602945 -0.0024975 0
1e-08 0 0
1e-08 0 0
1e-08 0 0
0.000851846 0.00647052 -0
1e-08 0 0
1e-08 0 0
1e-08 0 0
1e-08 0 0
1e-08 0 0
1e-08 0 0
1e-08 0 0
1e-08 0 0
1e-08 0 0
1e-08 0 0
-1.63825e-08 0.0065263 -0
1e-08 0 0
1e-08 0 0
1e-08 0 0
0.00565188 -0.00326313 0
1e-08 0 0
0.0051776 -0.00397292 0
1e-08 0 0
1e-08 0 0
1e-08 0 0
1e-08 0 0
1e-08 0 0
1e-08 0 0
1e-08 0 0
1e-08 0 0
1e-08 0 0
1e-08 0 0
1e-08 0 0
1e-08 0 0
1e-08 0 0
-0.000851865 0.00647044 0
1e-08 0 0
1e-08 0 0
1e-08 0 0
1e-08 0 0
1e-08 0 0
0.00461473 -0.00461474 0
1e-08 0 0
0.00397291 -0.0051776 0
1e-08 0 0
1e-08 0 0
1e-08 0 0
1e-08 0 0
1e-08 0 0
1e-08 0 0
1e-08 0 0
1e-08 0 0
1e-08 0 0
1e-08 0 0
1e-08 0 0
1e-08 0 0
1e-08 0 0
-0.00168913 0.00630388 0
1e-08 0 0
1e-08 0 0
1e-08 0 0
1e-08 0 0
1e-08 0 0
1e-08 0 0
0.00326312 -0.00565188 0
1e-08 0 0
1e-08 0 0
1e-08 0 0
1e-08 0 0
1e-08 0 0
0.00249749 -0.00602945 0
1e-08 0 0
1e-08 0 0
1e-08 0 0
1e-08 0 0
1e-08 0 0
1e-08 0 0
1e-08 0 0
1e-08 0 0
1e-08 0 0
1e-08 0 0
-0.00249749 0.00602946 0
1e-08 0 0
1e-08 0 0
1e-08 0 0
1e-08 0 0
1e-08 0 0
1e-08 0 0
1e-08 0 0
1e-08 0 0
1e-08 0 0
1e-08 0 0
1e-08 0 0
1e-08 0 0
1e-08 0 0
1e-08 0 0
0.00168913 -0.00630388 0
1e-08 0 0
1e-08 0 0
1e-08 0 0
1e-08 0 0
1e-08 0 0
1e-08 0 0
1e-08 0 0
1e-08 0 0
1e-08 0 0
-0.00326312 0.00565187 0
1e-08 0 0
1e-08 0 0
1e-08 0 0
1e-08 0 0
1e-08 0 0
1e-08 0 0
1e-08 0 0
1e-08 0 0
1e-08 0 0
1e-08 0 0
1e-08 0 0
1e-08 0 0
1e-08 0 0
1e-08 0 0
1e-08 0 0
0.000851865 -0.00647044 0
1e-08 0 0
1e-08 0 0
1e-08 0 0
1e-08 0 0
1e-08 0 0
1e-08 0 0
1e-08 0 0
1e-08 0 0
1e-08 0 0
1e-08 0 0
-0.00397291 0.0051776 0
1e-08 0 0
1e-08 0 0
1e-08 0 0
1e-08 0 0
1e-08 0 0
1e-08 0 0
1e-08 0 0
1e-08 0 0
1e-08 0 0
1e-08 0 0
1e-08 0 0
1e-08 0 0
1.64125e-08 -0.0065263 0
1e-08 0 0
1e-08 0 0
1e-08 0 0
1e-08 0 0
1e-08 0 0
1e-08 0 0
1e-08 0 0
1e-08 0 0
1e-08 0 0
1e-08 0 0
1e-08 0 0
1e-08 0 0
-0.00461473 0.00461474 0
1e-08 0 0
1e-08 0 0
1e-08 0 0
1e-08 0 0
1e-08 0 0
1e-08 0 0
1e-08 0 0
1e-08 0 0
1e-08 0 0
1e-08 0 0
1e-08 0 0
1e-08 0 0
1e-08 0 0
-0.000851846 -0.00647051 0
1e-08 0 0
1e-08 0 0
1e-08 0 0
1e-08 0 0
1e-08 0 0
1e-08 0 0
1e-08 0 0
1e-08 0 0
-0.0051776 0.00397292 0
1e-08 0 0
1e-08 0 0
1e-08 0 0
1e-08 0 0
1e-08 0 0
1e-08 0 0
1e-08 0 0
1e-08 0 0
1e-08 0 0
1e-08 0 0
1e-08 0 0
-0.00168913 -0.00630398 0
1e-08 0 0
1e-08 0 0
1e-08 0 0
1e-08 0 0
1e-08 0 0
1e-08 0 0
1e-08 0 0
-0.00565188 0.00326313 0
1e-08 0 0
1e-08 0 0
1e-08 0 0
1e-08 0 0
1e-08 0 0
1e-08 0 0
1e-08 0 0
1e-08 0 0
1e-08 0 0
1e-08 0 0
1e-08 0 0
-0.00249752 -0.00602956 0
1e-08 0 0
1e-08 0 0
1e-08 0 0
1e-08 0 0
1e-08 0 0
-0.00602946 0.0024975 0
1e-08 0 0
1e-08 0 0
1e-08 0 0
1e-08 0 0
1e-08 0 0
1e-08 0 0
1e-08 0 0
1e-08 0 0
-0.00326318 -0.005652 0
1e-08 0 0
1e-08 0 0
1e-08 0 0
1e-08 0 0
-0.0063039 0.00168914 0
1e-08 0 0
1e-08 0 0
1e-08 0 0
1e-08 0 0
1e-08 0 0
1e-08 0 0
-0.00397301 -0.00517773 0
1e-08 0 0
1e-08 0 0
1e-08 0 0
-0.00647048 0.000851874 0
1e-08 0 0
1e-08 0 0
1e-08 0 0
1e-08 0 0
1e-08 0 0
1e-08 0 0
-0.00461486 -0.00461485 0
1e-08 0 0
1e-08 0 0
-0.00652631 1.65417e-08 0
1e-08 0 0
1e-08 0 0
1e-08 0 0
1e-08 0 0
-0.00517773 -0.00397301 0
1e-08 0 0
-0.0064705 -0.000851841 0
1e-08 0 0
1e-08 0 0
-0.00565201 -0.00326318 0
-0.00630397 -0.00168913 0
-0.00602958 -0.00249752 0
