# vtk DataFile Version 2.0
CellBP Time: 0.179
ASCII
DATASET UNSTRUCTURED_GRID
POINTS 296 double
-9.18881 -3.77686 0
-8.61027 -4.95002 0
-9.60927 -2.53821 0
-9.86446 -1.25528 0
-8.35807 -2.81889 0
-7.88355 -6.03763 0
-7.02109 -7.02108 0
-7.91771 -3.87496 0
-7.34312 -4.86816 0
-6.03764 -7.88355 0
-4.95003 -8.61027 0
-9.95001 0.0499772 0
-9.86445 1.35524 0
-8.65818 -1.68406 0
-8.78682 -0.529675 0
-7.5902 -2.00428 0
-7.22624 -2.90668 0
-6.63808 -5.77927 0
-5.82281 -6.59735 0
-6.79075 -3.88919 0
-6.22102 -4.67626 0
-3.77686 -9.18881 0
-2.53822 -9.60927 0
-4.90682 -7.30931 0
-3.91329 -7.88677 0
-8.79327 0.643415 0
-9.60926 2.63818 0
-8.62379 1.77416 0
-9.18879 3.87682 0
-7.74481 -0.929057 0
-7.79504 0.0802417 0
-6.95303 -1.31598 0
-1.25528 -9.86446 0
-6.44192 -2.15328 0
-6.31982 -3.05635 0
-5.53694 -5.47497 0
-4.79627 -6.11593 0
-5.65943 -3.75728 0
-5.26978 -4.56193 0
-2.86638 -8.36451 0
-1.7787 -8.64084 0
-3.92844 -6.72406 0
-3.05686 -7.15314 0
0.0499787 -9.95001 0
-7.70604 1.14357 0
-8.33912 2.9156 0
-7.55244 2.1121 0
-8.61025 5.04999 0
-7.88059 3.97848 0
-7.88352 6.1376 0
-6.77917 -0.396897 0
-6.95704 0.552566 0
-5.77177 -1.00348 0
-0.590897 -8.81034 0
0.565703 -8.77153 0
-5.30347 -2.48044 0
-4.4923 -5.09611 0
-3.9028 -5.77576 0
-4.43921 -3.80501 0
-2.06259 -7.56254 0
-1.13558 -7.78646 0
-2.99478 -6.10253 0
-2.30921 -6.62031 0
1.35524 -9.86445 0
-6.68995 1.42213 0
-7.17274 3.11834 0
-6.65977 2.37318 0
-7.29527 4.98902 0
-6.71862 4.00337 0
-7.02105 7.12106 0
-6.573 5.8946 0
-6.0376 7.98353 0
-4.45338 -1.18115 0
-5.81499 0.513779 0
-4.65645 -0.0103929 0
0.00850536 -7.84876 0
1.73868 -8.6445 0
0.949027 -7.7641 0
-4.03876 -2.40654 0
-3.48576 -1.39129 0
-3.29475 -4.80568 0
-3.26608 -3.268 0
-1.37871 -6.67601 0
-0.508797 -7.02554 0
-1.97571 -5.53743 0
2.63817 -9.60926 0
-5.50773 2.03706 0
-6.09523 3.07246 0
-6.10564 4.87007 0
-5.76225 3.99183 0
-5.76181 6.71775 0
-5.45265 5.61991 0
-4.94998 8.71025 0
-4.83891 7.40527 0
-3.50171 -0.424338 0
-4.4496 1.24911 0
-3.7117 0.592101 0
-4.06244 2.31997 0
-3.77681 9.28879 0
2.86285 -8.33364 0
0.419713 -6.79607 0
2.0222 -7.52659 0
1.3062 -6.90625 0
-2.44482 -0.873872 0
-2.83856 -2.13127 0
-2.29457 -4.09766 0
-2.3258 -2.9738 0
-0.442433 -5.86166 0
-1.22282 -4.49946 0
3.87682 -9.18879 0
-4.79019 3.39207 0
-5.08844 4.5946 0
-4.64766 6.28212 0
-4.53934 5.3603 0
-3.84413 7.99422 0
-3.82716 6.84648 0
-2.7836 8.42377 0
-1.64915 -0.137912 0
-1.45035 -0.890645 0
-2.48927 0.507281 0
-3.25384 1.44424 0
-3.23927 3.31681 0
-2.91118 2.37192 0
-1.35518 0.62714 0
-2.53817 9.70926 0
3.93311 -7.88784 0
2.96487 -7.15855 0
0.954167 -5.82257 0
2.07455 -6.41623 0
-1.68308 -1.99219 0
-1.43453 -3.27801 0
0.0902166 -4.74737 0
-0.566221 -3.69469 0
4.9327 -7.31964 0
5.04998 -8.61025 0
-3.7773 4.55204 0
-3.73517 5.75279 0
-2.88831 7.29075 0
-3.01004 6.35447 0
-1.66273 8.7347 0
-1.94034 7.6203 0
-2.33856 4.05201 0
-0.730777 -1.32733 0
-0.836947 -0.257644 0
-1.93633 1.68088 0
-2.12591 2.87604 0
-1.30666 3.54496 0
-0.869509 1.35091 0
-0.282381 0.456073 0
-0.533564 8.87278 0
-1.25524 9.96445 0
1.11288 -4.575 0
3.91062 -6.71816 0
2.98827 -6.09552 0
2.11807 -5.42554 0
4.78506 -6.20618 0
-0.558893 -2.47698 0
0.495141 -3.4641 0
0.0535532 -1.61058 0
1.48201 -3.68247 0
5.86794 -6.61554 0
6.1376 -7.88353 0
-2.47593 5.34904 0
-2.1307 6.53528 0
-0.904176 7.80436 0
-1.2725 6.93297 0
0.0862341 7.88149 0
-1.14455 4.49512 0
0.150329 -0.617682 0
-0.797475 2.48867 0
-0.331667 3.60102 0
0.0631139 1.51282 0
0.741483 0.473451 0
0.646894 8.87547 0
0.0500237 10.05 0
2.38125 -4.28568 0
3.85969 -5.64121 0
3.00182 -5.2134 0
5.57461 -5.49265 0
4.6917 -5.28382 0
0.629713 -2.29352 0
1.25627 -2.95146 0
0.757545 -1.39154 0
2.16454 -3.13611 0
2.99409 -3.47696 0
6.15617 -4.79256 0
6.65661 -5.7702 0
7.12106 -7.02106 0
-1.01974 5.82105 0
-0.372655 6.88459 0
1.12283 7.77081 0
0.558077 7.0809 0
-0.000753929 4.72568 0
0.607068 3.82819 0
1.33901 -0.641935 0
0.539147 2.65126 0
0.966156 1.57505 0
1.91034 0.213887 0
1.61489 1.06511 0
2.12979 7.5849 0
1.79953 8.71386 0
1.35529 9.96446 0
3.82333 -4.35219 0
5.11741 -4.44974 0
5.84675 -3.93581 0
3.78447 -3.20145 0
1.81244 -1.88278 0
3.01949 -2.57417 0
6.78463 -3.94859 0
7.38278 -4.89767 0
7.98353 -6.0376 0
0.48344 5.88239 0
1.42844 6.7431 0
2.3748 6.67034 0
1.21014 4.55676 0
1.48835 3.39802 0
2.43604 -0.692083 0
2.82836 0.142626 0
1.78907 2.16307 0
2.61217 1.15028 0
3.07266 7.17157 0
2.90481 8.37847 0
2.63822 9.70927 0
4.91207 -3.32841 0
6.12187 -3.10926 0
4.17346 -2.27557 0
3.24484 -1.50308 0
6.73275 -2.3135 0
7.23362 -3.04318 0
7.96658 -3.91306 0
8.71025 -4.94999 0
2.02397 5.60078 0
3.08718 6.15493 0
2.36427 4.12753 0
2.42041 3.0613 0
3.52616 -0.460911 0
3.61622 0.613381 0
2.96225 2.2884 0
3.54612 1.5255 0
4.0132 5.89961 0
3.98555 6.79501 0
3.97436 7.94079 0
3.87686 9.28881 0
5.56994 -1.91652 0
4.50997 -1.12978 0
6.71567 -1.33642 0
7.59461 -2.03694 0
8.39943 -2.8621 0
9.28879 -3.77682 0
3.41988 4.87809 0
3.33961 3.38599 0
4.69212 0.130109 0
4.52002 1.31022 0
4.06609 2.44427 0
4.57199 5.15407 0
4.8453 6.19283 0
4.98204 7.3828 0
5.05003 8.71027 0
5.88496 -0.434992 0
7.01313 -0.488376 0
7.76212 -1.08561 0
8.68762 -1.74647 0
9.70926 -2.53818 0
4.5537 3.82862 0
5.8194 1.0989 0
5.3728 2.53566 0
5.38212 4.62233 0
5.61433 5.52567 0
5.89937 6.67436 0
6.13764 7.98355 0
6.84863 0.463717 0
7.85637 -0.0256293 0
8.86367 -0.584529 0
9.96445 -1.25524 0
6.96329 1.34999 0
5.72338 3.77996 0
6.5441 2.19839 0
6.38289 3.08929 0
6.29517 4.689 0
6.69583 5.84021 0
7.12109 7.12108 0
7.78766 0.968031 0
8.86302 0.572996 0
10.05 0.0500221 0
7.61957 2.00519 0
6.83227 3.90604 0
7.27284 2.94813 0
7.38149 4.88786 0
7.98356 6.13763 0
8.72662 1.72764 0
9.96446 1.35528 0
8.42455 2.83898 0
7.98504 3.91798 0
8.71027 5.05002 0
9.70927 2.63821 0
9.28881 3.87685 0
CELLS 542 2168
3 2 0 4
3 0 1 7
3 4 0 7
3 1 5 8
3 7 1 8
3 3 2 13
3 13 2 4
3 11 3 14
3 14 3 13
3 13 4 15
3 4 7 16
3 15 4 16
3 5 6 17
3 8 5 17
3 6 9 18
3 17 6 18
3 7 8 19
3 16 7 19
3 8 17 20
3 19 8 20
3 9 10 23
3 18 9 23
3 10 21 24
3 23 10 24
3 12 11 25
3 25 11 14
3 26 12 27
3 27 12 25
3 14 13 29
3 29 13 15
3 25 14 30
3 30 14 29
3 29 15 31
3 15 16 33
3 31 15 33
3 16 19 34
3 33 16 34
3 17 18 35
3 20 17 35
3 18 23 36
3 35 18 36
3 19 20 37
3 34 19 37
3 20 35 38
3 37 20 38
3 21 22 39
3 24 21 39
3 22 32 40
3 39 22 40
3 23 24 41
3 36 23 41
3 24 39 42
3 41 24 42
3 27 25 44
3 44 25 30
3 28 26 45
3 45 26 27
3 45 27 46
3 46 27 44
3 47 28 48
3 48 28 45
3 30 29 50
3 50 29 31
3 44 30 51
3 51 30 50
3 50 31 52
3 31 33 52
3 32 43 53
3 40 32 53
3 53 43 54
3 33 34 55
3 34 37 55
3 33 55 52
3 35 36 56
3 38 35 56
3 36 41 57
3 56 36 57
3 37 38 58
3 38 56 58
3 37 58 55
3 39 40 59
3 42 39 59
3 40 53 60
3 59 40 60
3 41 42 61
3 57 41 61
3 42 59 62
3 61 42 62
3 43 63 54
3 46 44 64
3 64 44 51
3 48 45 65
3 65 45 46
3 65 46 66
3 66 46 64
3 49 47 67
3 67 47 48
3 67 48 68
3 68 48 65
3 69 49 70
3 70 49 67
3 52 55 72
3 64 51 73
3 51 50 73
3 50 52 73
3 73 52 74
3 74 52 72
3 53 54 75
3 60 53 75
3 54 63 76
3 54 76 77
3 75 54 77
3 55 58 78
3 72 55 78
3 72 78 79
3 56 57 80
3 57 61 80
3 56 80 58
3 58 80 81
3 78 58 81
3 59 60 82
3 62 59 82
3 60 75 83
3 82 60 83
3 61 62 84
3 62 82 84
3 61 84 80
3 63 85 76
3 66 64 86
3 64 73 86
3 68 65 87
3 87 65 66
3 87 66 86
3 70 67 88
3 88 67 68
3 88 68 89
3 89 68 87
3 71 69 90
3 90 69 70
3 90 70 91
3 91 70 88
3 92 71 93
3 93 71 90
3 74 72 94
3 94 72 79
3 86 73 95
3 95 73 74
3 95 74 96
3 96 74 94
3 97 86 95
3 76 85 99
3 75 77 100
3 83 75 100
3 76 99 101
3 77 76 101
3 77 101 102
3 100 77 102
3 94 79 103
3 78 81 104
3 79 78 104
3 79 104 103
3 80 84 105
3 81 80 105
3 81 105 106
3 104 81 106
3 82 83 107
3 83 100 107
3 82 107 84
3 84 107 108
3 105 84 108
3 85 109 99
3 89 87 110
3 87 86 110
3 110 86 97
3 91 88 111
3 111 88 89
3 111 89 110
3 93 90 112
3 112 90 91
3 112 91 113
3 113 91 111
3 98 92 114
3 114 92 93
3 114 93 115
3 115 93 112
3 116 98 114
3 117 103 118
3 96 94 119
3 94 103 119
3 119 103 117
3 97 95 120
3 120 95 96
3 120 96 119
3 121 110 97
3 121 97 122
3 122 97 120
3 123 119 117
3 124 98 116
3 99 109 125
3 99 125 126
3 101 99 126
3 100 102 127
3 100 127 107
3 101 126 128
3 102 101 128
3 102 128 127
3 104 106 129
3 104 129 103
3 103 129 118
3 105 108 130
3 106 105 130
3 106 130 129
3 107 127 131
3 108 107 131
3 108 131 132
3 108 132 130
3 109 134 125
3 125 134 133
3 113 111 135
3 111 110 135
3 135 110 121
3 115 112 136
3 136 112 113
3 136 113 135
3 116 114 137
3 137 114 115
3 137 115 138
3 138 115 136
3 139 124 116
3 139 116 140
3 140 116 137
3 141 135 121
3 118 129 142
3 118 142 143
3 117 118 143
3 123 117 143
3 122 120 144
3 120 119 144
3 144 119 123
3 141 121 145
3 145 121 122
3 145 122 144
3 146 141 145
3 147 144 123
3 147 123 148
3 143 148 123
3 150 124 139
3 149 150 139
3 131 127 151
3 125 133 152
3 126 125 152
3 126 152 153
3 128 126 153
3 128 153 154
3 128 154 127
3 127 154 151
3 152 133 155
3 130 132 156
3 130 156 129
3 129 156 142
3 131 151 157
3 132 131 157
3 132 157 156
3 156 158 142
3 157 151 159
3 133 160 155
3 134 161 133
3 133 161 160
3 138 136 162
3 136 135 162
3 162 135 141
3 140 137 163
3 163 137 138
3 163 138 162
3 149 139 164
3 164 139 140
3 164 140 165
3 165 140 163
3 166 149 164
3 167 162 141
3 167 141 146
3 142 158 168
3 143 142 168
3 143 168 148
3 146 145 169
3 145 144 169
3 169 144 147
3 170 167 146
3 170 146 169
3 171 169 147
3 171 147 148
3 171 148 172
3 168 172 148
3 173 149 166
3 174 150 149
3 173 174 149
3 154 175 151
3 151 175 159
3 152 155 176
3 153 152 176
3 153 176 177
3 153 177 154
3 154 177 175
3 155 160 178
3 155 178 179
3 176 155 179
3 156 157 180
3 156 180 158
3 157 159 181
3 157 181 180
3 158 180 182
3 158 182 168
3 159 175 183
3 159 183 181
3 175 184 183
3 160 186 178
3 178 186 185
3 161 187 160
3 160 187 186
3 165 163 188
3 163 162 188
3 188 162 167
3 166 164 189
3 189 164 165
3 189 165 188
3 190 173 166
3 190 166 191
3 191 166 189
3 192 188 167
3 192 167 170
3 193 192 170
3 182 194 168
3 194 172 168
3 193 170 195
3 170 169 195
3 195 169 171
3 196 195 171
3 196 171 172
3 194 197 172
3 197 198 172
3 198 196 172
3 200 173 190
3 199 200 190
3 201 174 173
3 200 201 173
3 176 179 202
3 177 176 202
3 177 202 175
3 175 202 184
3 178 185 203
3 178 203 179
3 179 203 202
3 203 185 204
3 202 205 184
3 183 206 181
3 180 181 206
3 180 206 182
3 182 206 194
3 183 184 207
3 205 207 184
3 183 207 206
3 185 208 204
3 186 209 185
3 185 209 208
3 187 210 186
3 186 210 209
3 191 189 211
3 189 188 211
3 211 188 192
3 199 190 212
3 212 190 191
3 212 191 211
3 213 199 212
3 214 211 192
3 214 192 193
3 215 214 193
3 215 193 195
3 206 216 194
3 216 197 194
3 216 217 197
3 215 195 218
3 218 195 196
3 198 218 196
3 217 219 197
3 219 218 198
3 197 219 198
3 220 199 213
3 221 200 199
3 220 221 199
3 222 201 200
3 221 222 200
3 203 204 223
3 203 223 202
3 202 223 205
3 204 208 224
3 204 224 223
3 205 223 225
3 205 225 207
3 207 225 226
3 207 226 206
3 226 216 206
3 208 228 224
3 224 228 227
3 209 229 208
3 229 228 208
3 210 230 209
3 209 230 229
3 213 212 231
3 212 211 231
3 231 211 214
3 232 220 213
3 232 213 231
3 233 231 214
3 233 214 215
3 234 233 215
3 234 215 218
3 226 235 216
3 235 217 216
3 235 236 217
3 217 236 219
3 237 234 218
3 237 218 219
3 236 238 219
3 238 237 219
3 240 220 232
3 239 240 232
3 241 221 220
3 240 241 220
3 242 222 221
3 241 242 221
3 224 227 243
3 224 243 223
3 223 243 225
3 225 243 244
3 225 244 226
3 226 244 235
3 227 245 243
3 228 246 227
3 227 246 245
3 229 247 228
3 228 247 246
3 230 248 229
3 229 248 247
3 239 232 249
3 232 231 249
3 249 231 233
3 250 249 233
3 250 233 234
3 237 250 234
3 244 251 235
3 235 251 236
3 251 252 236
3 236 252 238
3 252 253 238
3 253 250 237
3 253 237 238
3 254 239 249
3 255 240 239
3 254 255 239
3 256 241 240
3 255 256 240
3 257 242 241
3 256 257 241
3 245 258 243
3 243 258 244
3 244 258 251
3 245 259 258
3 246 260 245
3 245 260 259
3 247 261 246
3 246 261 260
3 248 262 247
3 247 262 261
3 254 249 263
3 263 249 250
3 253 263 250
3 258 264 251
3 251 264 252
3 264 265 252
3 265 263 253
3 252 265 253
3 266 254 263
3 267 255 254
3 266 267 254
3 268 256 255
3 267 268 255
3 269 257 256
3 268 269 256
3 259 270 258
3 270 264 258
3 260 271 259
3 259 271 270
3 261 272 260
3 260 272 271
3 262 273 261
3 273 272 261
3 270 274 264
3 275 266 263
3 275 263 265
3 274 276 264
3 276 265 264
3 276 277 265
3 277 275 265
3 278 267 266
3 275 278 266
3 279 268 267
3 278 279 267
3 280 269 268
3 279 280 268
3 271 281 270
3 270 281 274
3 272 282 271
3 271 282 281
3 273 283 272
3 272 283 282
3 281 284 274
3 274 284 276
3 285 278 275
3 277 285 275
3 284 286 276
3 286 285 277
3 276 286 277
3 287 279 278
3 285 287 278
3 288 280 279
3 287 288 279
3 282 289 281
3 281 289 284
3 283 290 282
3 282 290 289
3 289 291 284
3 284 291 286
3 291 292 286
3 292 287 285
3 286 292 285
3 293 288 287
3 292 293 287
3 290 294 289
3 289 294 291
3 294 295 291
3 295 293 292
3 291 295 292
CELL_TYPES 542
5
5
5
5
5
5
5
5
5
5
5
5
5
5
5
5
5
5
5
5
5
5
5
5
5
5
5
5
5
5
5
5
5
5
5
5
5
5
5
5
5
5
5
5
5
5
5
5
5
5
5
5
5
5
5
5
5
5
5
5
5
5
5
5
5
5
5
5
5
5
5
5
5
5
5
5
5
5
5
5
5
5
5
5
5
5
5
5
5
5
5
5
5
5
5
5
5
5
5
5
5
5
5
5
5
5
5
5
5
5
5
5
5
5
5
5
5
5
5
5
5
5
5
5
5
5
5
5
5
5
5
5
5
5
5
5
5
5
5
5
5
5
5
5
5
5
5
5
5
5
5
5
5
5
5
5
5
5
5
5
5
5
5
5
5
5
5
5
5
5
5
5
5
5
5
5
5
5
5
5
5
5
5
5
5
5
5
5
5
5
5
5
5
5
5
5
5
5
5
5
5
5
5
5
5
5
5
5
5
5
5
5
5
5
5
5
5
5
5
5
5
5
5
5
5
5
5
5
5
5
5
5
5
5
5
5
5
5
5
5
5
5
5
5
5
5
5
5
5
5
5
5
5
5
5
5
5
5
5
5
5
5
5
5
5
5
5
5
5
5
5
5
5
5
5
5
5
5
5
5
5
5
5
5
5
5
5
5
5
5
5
5
5
5
5
5
5
5
5
5
5
5
5
5
5
5
5
5
5
5
5
5
5
5
5
5
5
5
5
5
5
5
5
5
5
5
5
5
5
5
5
5
5
5
5
5
5
5
5
5
5
5
5
5
5
5
5
5
5
5
5
5
5
5
5
5
5
5
5
5
5
5
5
5
5
5
5
5
5
5
5
5
5
5
5
5
5
5
5
5
5
5
5
5
5
5
5
5
5
5
5
5
5
5
5
5
5
5
5
5
5
5
5
5
5
5
5
5
5
5
5
5
5
5
5
5
5
5
5
5
5
5
5
5
5
5
5
5
5
5
5
5
5
5
5
5
5
5
5
5
5
5
5
5
5
5
5
5
5
5
5
5
5
5
5
5
5
5
5
5
5
5
5
5
5
5
5
5
5
5
5
5
5
5
5
5
5
5
5
5
5
5
5
5
5
5
5
5
5
5
5
5
5
5
5
5
5
5
5
5
5
5
5
5
5
5
5
5
5
5
5
5
5
5
5
5
5
5
5
5
5
5
5
5
5
5
5
5
5
5
5
5
5
5
5
5
5
5
5
5
5
5
POINT_DATA 296
SCALARS concentrations float 4
LOOKUP_TABLE default
0 1 0.0782261 0.0116706
0 1 0.0782266 0.0116539
0 1 0.0782255 0.0116782
0 1 0.0782247 0.0116677
0 1 0.0782228 0.01028
0 1 0.0782268 0.0116077
0 1 0.0782268 0.0115697
0 1 0.0782233 0.0102678
0 1 0.0782236 0.0102388
0 1 0.0782266 0.0115372
0 1 0.0782262 0.0115073
0 1 0.0782237 0.0116288
0 1 0.0782226 0.0115506
0 1 0.0782222 0.0102692
0 1 0.0782213 0.0102157
0 1 0.0782199 0.00908107
0 1 0.0782203 0.00900853
0 1 0.0782236 0.0101927
0 1 0.0782236 0.0101541
0 1 0.0782207 0.00903915
0 1 0.0782208 0.00896416
0 1 0.0782256 0.0114545
0 1 0.0782248 0.0113947
0 1 0.0782233 0.0101206
0 1 0.0782229 0.0100724
0 1 0.0782204 0.0101804
0 1 0.0782214 0.0114521
0 1 0.0782193 0.0100906
0 1 0.0782202 0.0113534
0 1 0.0782191 0.00900124
0 1 0.0782183 0.00896066
0 1 0.0782176 0.00813473
0 1 0.0782239 0.0113071
0 1 0.0782174 0.00779752
0 1 0.0782184 0.00806744
0 1 0.0782208 0.00893394
0 1 0.0782207 0.00887841
0 1 0.078218 0.00777271
0 1 0.0782186 0.00796129
0 1 0.0782224 0.0100559
0 1 0.0782215 0.00995457
0 1 0.0782204 0.00884774
0 1 0.0782199 0.00878235
0 1 0.0782227 0.0111896
0 1 0.0782174 0.00890253
0 1 0.0782183 0.0100439
0 1 0.0782166 0.00890855
0 1 0.0782191 0.0112767
0 1 0.0782173 0.0099663
0 1 0.0782183 0.0112401
0 1 0.0782163 0.00777155
0 1 0.0782159 0.0079621
0 1 0.0782145 0.00667367
0 1 0.0782206 0.00986195
0 1 0.0782194 0.00969455
0 1 0.0782153 0.00666396
0 1 0.0782181 0.0077081
0 1 0.0782183 0.00787962
0 1 0.0782155 0.00660744
0 1 0.0782194 0.00878242
0 1 0.0782187 0.00874065
0 1 0.0782175 0.00761254
0 1 0.0782176 0.00781371
0 1 0.0782215 0.0110519
0 1 0.0782148 0.00775854
0 1 0.0782156 0.00882686
0 1 0.0782145 0.00798523
0 1 0.0782164 0.00993417
0 1 0.0782148 0.00879147
0 1 0.0782178 0.0112642
0 1 0.0782158 0.00992161
0 1 0.0782179 0.0113493
0 1 0.0782116 0.00519796
0 1 0.0782132 0.00661857
0 1 0.0782109 0.0052586
0 1 0.0782177 0.00860786
0 1 0.0782183 0.00960129
0 1 0.0782167 0.00848005
0 1 0.0782123 0.00527584
0 1 0.0782096 0.00418291
0 1 0.0782153 0.0065024
0 1 0.0782122 0.00512245
0 1 0.0782164 0.00750447
0 1 0.0782162 0.00769431
0 1 0.0782147 0.00645434
0 1 0.0782202 0.0109089
0 1 0.0782119 0.00661592
0 1 0.0782133 0.00767782
0 1 0.0782142 0.00877104
0 1 0.0782129 0.00787491
0 1 0.0782157 0.00999165
0 1 0.0782139 0.00882145
0 1 0.0782185 0.0114944
0 1 0.0782159 0.0100801
0 1 0.0782085 0.00395135
0 1 0.0782097 0.00521141
0 1 0.0782083 0.00423673
0 1 0.0782089 0.00528537
0 1 0.0782194 0.011669
0 1 0.0782171 0.00947756
0 1 0.0782148 0.00732472
0 1 0.0782155 0.00833905
0 1 0.0782145 0.00749978
0 1 0.0782066 0.00284061
0 1 0.0782093 0.0038903
0 1 0.0782121 0.00512031
0 1 0.0782099 0.00408338
0 1 0.0782134 0.00631031
0 1 0.0782113 0.00497666
0 1 0.078219 0.0107847
0 1 0.0782108 0.00660864
0 1 0.0782122 0.00771904
0 1 0.0782138 0.00887175
0 1 0.0782124 0.00795487
0 1 0.0782166 0.010237
0 1 0.0782143 0.00899992
0 1 0.0782174 0.0103844
0 1 0.0782041 0.00183093
0 1 0.0782045 0.00175378
0 1 0.0782056 0.00288045
0 1 0.0782071 0.00404198
0 1 0.0782082 0.0053015
0 1 0.0782068 0.00430986
0 1 0.0782031 0.00180077
0 1 0.0782205 0.0118563
0 1 0.0782161 0.00939294
0 1 0.0782145 0.00820693
0 1 0.0782121 0.00620588
0 1 0.078213 0.0070981
0 1 0.0782068 0.0027183
0 1 0.0782089 0.00376268
0 1 0.0782103 0.00494775
0 1 0.0782086 0.00385058
0 1 0.0782153 0.00936252
0 1 0.0782179 0.0107069
0 1 0.0782104 0.00673283
0 1 0.0782122 0.00784216
0 1 0.0782149 0.00912095
0 1 0.078213 0.00813589
0 1 0.0782184 0.0105597
0 1 0.0782158 0.00927277
0 1 0.0782083 0.00545598
0 1 0.0782038 0.00138201
0 1 0.0782024 0.000911739
0 1 0.0782047 0.00303091
0 1 0.0782062 0.00419994
0 1 0.0782069 0.00454867
0 1 0.0782028 0.00209344
0 1 0.0782012 0.000960044
0 1 0.0782194 0.0106944
0 1 0.0782216 0.0120358
0 1 0.0782092 0.00482019
0 1 0.0782137 0.00818546
0 1 0.0782122 0.00709569
0 1 0.0782108 0.00603578
0 1 0.0782132 0.00825153
0 1 0.0782059 0.00248851
0 1 0.0782071 0.00348432
0 1 0.0782033 0.00137978
0 1 0.0782071 0.00397087
0 1 0.0782149 0.00939209
0 1 0.0782171 0.0106764
0 1 0.0782108 0.00685978
0 1 0.0782133 0.00806236
0 1 0.0782166 0.009396
0 1 0.0782144 0.008382
0 1 0.0782175 0.00953785
0 1 0.0782089 0.00556618
0 1 0.0782013 0.000321096
0 1 0.0782047 0.00327765
0 1 0.0782072 0.00448884
0 1 0.0782028 0.00214484
0 1 0.0782015 0.00135447
0 1 0.0782204 0.0108293
0 1 0.0782227 0.0121971
0 1 0.0782084 0.00499411
0 1 0.0782116 0.0071314
0 1 0.0782104 0.00622431
0 1 0.078213 0.00828591
0 1 0.0782116 0.00741345
0 1 0.0782044 0.00221955
0 1 0.0782056 0.00313224
0 1 0.0782025 0.0013835
0 1 0.0782061 0.00381226
0 1 0.0782072 0.004688
0 1 0.0782132 0.00834071
0 1 0.0782149 0.00943286
0 1 0.078217 0.0107346
0 1 0.0782119 0.00706428
0 1 0.0782148 0.00830601
0 1 0.0782182 0.0095971
0 1 0.078216 0.00865056
0 1 0.07821 0.00580399
0 1 0.0782085 0.00488397
0 1 0.0782021 0.00155393
0 1 0.0782057 0.00353783
0 1 0.0782039 0.00256204
0 1 0.0782036 0.00235617
0 1 0.0782041 0.0025807
0 1 0.0782189 0.00970061
0 1 0.0782212 0.0109179
0 1 0.0782238 0.0123238
0 1 0.0782094 0.00600633
0 1 0.0782111 0.00716172
0 1 0.078212 0.0075567
0 1 0.0782079 0.00516141
0 1 0.0782038 0.0025713
0 1 0.0782061 0.00408083
0 1 0.0782139 0.00853086
0 1 0.0782155 0.00961871
0 1 0.0782174 0.0108722
0 1 0.0782131 0.00722264
0 1 0.0782161 0.00847378
0 1 0.0782172 0.00875656
0 1 0.0782108 0.00589912
0 1 0.0782086 0.00474653
0 1 0.0782042 0.00279236
0 1 0.0782056 0.00335291
0 1 0.0782065 0.00367697
0 1 0.0782063 0.00358994
0 1 0.0782193 0.00965413
0 1 0.0782218 0.0109416
0 1 0.0782246 0.0124052
0 1 0.0782099 0.00630971
0 1 0.0782122 0.00747328
0 1 0.078208 0.00507909
0 1 0.0782059 0.00382928
0 1 0.0782135 0.00792323
0 1 0.0782146 0.00868364
0 1 0.0782164 0.00980288
0 1 0.0782183 0.0110554
0 1 0.0782142 0.00740007
0 1 0.078217 0.00855156
0 1 0.0782115 0.00599816
0 1 0.0782094 0.00497795
0 1 0.0782068 0.00404359
0 1 0.0782079 0.00439556
0 1 0.0782089 0.00473617
0 1 0.0782089 0.00476818
0 1 0.078218 0.00886865
0 1 0.0782199 0.00977187
0 1 0.0782224 0.0109938
0 1 0.0782253 0.0124544
0 1 0.0782109 0.00650994
0 1 0.0782087 0.0051836
0 1 0.0782138 0.00776753
0 1 0.0782156 0.0088807
0 1 0.0782173 0.00998561
0 1 0.0782194 0.0112744
0 1 0.0782148 0.00743939
0 1 0.0782117 0.00597805
0 1 0.0782099 0.00548035
0 1 0.0782108 0.00569172
0 1 0.0782115 0.00588291
0 1 0.0782175 0.00856014
0 1 0.0782201 0.0097578
0 1 0.0782229 0.0110456
0 1 0.0782259 0.0124808
0 1 0.0782123 0.00679269
0 1 0.078215 0.00813134
0 1 0.0782164 0.00901113
0 1 0.0782184 0.0101622
0 1 0.0782206 0.0115028
0 1 0.0782149 0.00738793
0 1 0.0782136 0.00706234
0 1 0.0782145 0.00726476
0 1 0.0782181 0.00878179
0 1 0.0782202 0.00975818
0 1 0.0782231 0.0110447
0 1 0.0782262 0.0125003
0 1 0.0782154 0.00808046
0 1 0.0782174 0.00919971
0 1 0.0782195 0.0103737
0 1 0.0782218 0.0117233
0 1 0.0782166 0.00847334
0 1 0.0782173 0.00844654
0 1 0.0782167 0.00835028
0 1 0.0782176 0.00866171
0 1 0.0782201 0.0096805
0 1 0.078223 0.0109867
0 1 0.0782264 0.0124852
0 1 0.0782182 0.00932586
0 1 0.0782204 0.0105329
0 1 0.0782229 0.0119172
0 1 0.078219 0.00948473
0 1 0.0782199 0.0096481
0 1 0.0782194 0.00954133
0 1 0.0782228 0.0108916
0 1 0.0782263 0.01244
0 1 0.0782213 0.0106841
0 1 0.078224 0.0120804
0 1 0.078222 0.0107798
0 1 0.0782225 0.0108703
0 1 0.078226 0.012368
0 1 0.0782248 0.0122021
0 1 0.0782255 0.0122868
VECTORS fa_u float
0.00602957 0.00249752 -0
0.00565201 0.00326318 -0
0.00630397 0.00168913 -0
0.00647049 0.000851842 -0
1e-08 0 0
0.00517772 0.003973 -0
0.00461484 0.00461484 -0
1e-08 0 0
1e-08 0 0
0.003973 0.00517772 -0
0.00326318 0.005652 -0
0.00652631 -1.42079e-08 -0
0.00647048 -0.000851872 0
1e-08 0 0
1e-08 0 0
1e-08 0 0
1e-08 0 0
1e-08 0 0
1e-08 0 0
1e-08 0 0
1e-08 0 0
0.00249752 0.00602955 -0
0.00168913 0.00630397 -0
1e-08 0 0
1e-08 0 0
1e-08 0 0
0.00630391 -0.00168914 0
1e-08 0 0
0.00602946 -0.0024975 0
1e-08 0 0
1e-08 0 0
1e-08 0 0
0.000851848 0.00647051 -0
1e-08 0 0
1e-08 0 0
1e-08 0 0
1e-08 0 0
1e-08 0 0
1e-08 0 0
1e-08 0 0
1e-08 0 0
1e-08 0 0
1e-08 0 0
-1.41407e-08 0.0065263 -0
1e-08 0 0
1e-08 0 0
1e-08 0 0
0.00565189 -0.00326313 0
1e-08 0 0
0.00517761 -0.00397293 0
1e-08 0 0
1e-08 0 0
1e-08 0 0
1e-08 0 0
1e-08 0 0
1e-08 0 0
1e-08 0 0
1e-08 0 0
1e-08 0 0
1e-08 0 0
1e-08 0 0
1e-08 0 0
1e-08 0 0
-0.000851863 0.00647044 0
1e-08 0 0
1e-08 0 0
1e-08 0 0
1e-08 0 0
1e-08 0 0
0.00461474 -0.00461475 0
1e-08 0 0
0.00397292 -0.00517761 0
1e-08 0 0
1e-08 0 0
1e-08 0 0
1e-08 0 0
1e-08 0 0
1e-08 0 0
1e-08 0 0
1e-08 0 0
1e-08 0 0
1e-08 0 0
1e-08 0 0
1e-08 0 0
1e-08 0 0
-0.00168913 0.00630388 0
1e-08 0 0
1e-08 0 0
1e-08 0 0
1e-08 0 0
1e-08 0 0
1e-08 0 0
0.00326312 -0.00565189 0
1e-08 0 0
1e-08 0 0
1e-08 0 0
1e-08 0 0
1e-08 0 0
0.00249749 -0.00602946 0
1e-08 0 0
1e-08 0 0
1e-08 0 0
1e-08 0 0
1e-08 0 0
1e-08 0 0
1e-08 0 0
1e-08 0 0
1e-08 0 0
1e-08 0 0
-0.00249749 0.00602946 0
1e-08 0 0
1e-08 0 0
1e-08 0 0
1e-08 0 0
1e-08 0 0
1e-08 0 0
1e-08 0 0
1e-08 0 0
1e-08 0 0
1e-08 0 0
1e-08 0 0
1e-08 0 0
1e-08 0 0
1e-08 0 0
0.00168913 -0.00630388 0
1e-08 0 0
1e-08 0 0
1e-08 0 0
1e-08 0 0
1e-08 0 0
1e-08 0 0
1e-08 0 0
1e-08 0 0
1e-08 0 0
-0.00326312 0.00565188 0
1e-08 0 0
1e-08 0 0
1e-08 0 0
1e-08 0 0
1e-08 0 0
1e-08 0 0
1e-08 0 0
1e-08 0 0
1e-08 0 0
1e-08 0 0
1e-08 0 0
1e-08 0 0
1e-08 0 0
1e-08 0 0
1e-08 0 0
0.000851864 -0.00647045 0
1e-08 0 0
1e-08 0 0
1e-08 0 0
1e-08 0 0
1e-08 0 0
1e-08 0 0
1e-08 0 0
1e-08 0 0
1e-08 0 0
1e-08 0 0
-0.00397292 0.00517761 0
1e-08 0 0
1e-08 0 0
1e-08 0 0
1e-08 0 0
1e-08 0 0
1e-08 0 0
1e-08 0 0
1e-08 0 0
1e-08 0 0
1e-08 0 0
1e-08 0 0
1e-08 0 0
1.41738e-08 -0.0065263 0
1e-08 0 0
1e-08 0 0
1e-08 0 0
1e-08 0 0
1e-08 0 0
1e-08 0 0
1e-08 0 0
1e-08 0 0
1e-08 0 0
1e-08 0 0
1e-08 0 0
1e-08 0 0
-0.00461474 0.00461475 0
1e-08 0 0
1e-08 0 0
1e-08 0 0
1e-08 0 0
1e-08 0 0
1e-08 0 0
1e-08 0 0
1e-08 0 0
1e-08 0 0
1e-08 0 0
1e-08 0 0
1e-08 0 0
1e-08 0 0
-0.000851848 -0.00647051 0
1e-08 0 0
1e-08 0 0
1e-08 0 0
1e-08 0 0
1e-08 0 0
1e-08 0 0
1e-08 0 0
1e-08 0 0
-0.0051776 0.00397293 0
1e-08 0 0
1e-08 0 0
1e-08 0 0
1e-08 0 0
1e-08 0 0
1e-08 0 0
1e-08 0 0
1e-08 0 0
1e-08 0 0
1e-08 0 0
1e-08 0 0
-0.00168913 -0.00630397 0
1e-08 0 0
1e-08 0 0
1e-08 0 0
1e-08 0 0
1e-08 0 0
1e-08 0 0
1e-08 0 0
-0.00565188 0.00326313 0
1e-08 0 0
1e-08 0 0
1e-08 0 0
1e-08 0 0
1e-08 0 0
1e-08 0 0
1e-08 0 0
1e-08 0 0
1e-08 0 0
1e-08 0 0
1e-08 0 0
-0.00249752 -0.00602955 0
1e-08 0 0
1e-08 0 0
1e-08 0 0
1e-08 0 0
1e-08 0 0
-0.00602946 0.0024975 0
1e-08 0 0
1e-08 0 0
1e-08 0 0
1e-08 0 0
1e-08 0 0
1e-08 0 0
1e-08 0 0
1e-08 0 0
-0.00326317 -0.00565199 0
1e-08 0 0
1e-08 0 0
1e-08 0 0
1e-08 0 0
-0.00630391 0.00168914 0
1e-08 0 0
1e-08 0 0
1e-08 0 0
1e-08 0 0
1e-08 0 0
1e-08 0 0
-0.003973 -0.00517772 0
1e-08 0 0
1e-08 0 0
1e-08 0 0
-0.00647048 0.000851872 0
1e-08 0 0
1e-08 0 0
1e-08 0 0
1e-08 0 0
1e-08 0 0
1e-08 0 0
-0.00461485 -0.00461485 0
1e-08 0 0
1e-08 0 0
-0.0065263 1.43493e-08 0
1e-08 0 0
1e-08 0 0
1e-08 0 0
1e-08 0 0
-0.00517773 -0.003973 0
1e-08 0 0
-0.0064705 -0.000851843 0
1e-08 0 0
1e-08 0 0
-0.005652 -0.00326317 0
-0.00630397 -0.00168913 0
-0.00602957 -0.00249752 0
