# vtk DataFile Version 2.0
CellBP Time: 0.205
ASCII
DATASET UNSTRUCTURED_GRID
POINTS 296 double
-9.18881 -3.77686 0
-8.61028 -4.95002 0
-9.60927 -2.53822 0
-9.86446 -1.25529 0
-8.35807 -2.81889 0
-7.88356 -6.03764 0
-7.0211 -7.02109 0
-7.91771 -3.87496 0
-7.34313 -4.86816 0
-6.03764 -7.88355 0
-4.95003 -8.61027 0
-9.95001 0.0499704 0
-9.86445 1.35523 0
-8.65818 -1.68406 0
-8.78682 -0.529681 0
-7.5902 -2.00429 0
-7.22624 -2.90669 0
-6.63809 -5.77927 0
-5.82281 -6.59735 0
-6.79075 -3.88919 0
-6.22103 -4.67626 0
-3.77687 -9.18881 0
-2.53823 -9.60927 0
-4.90682 -7.30931 0
-3.9133 -7.88677 0
-8.79327 0.643409 0
-9.60926 2.63817 0
-8.62379 1.77416 0
-9.18879 3.87681 0
-7.74481 -0.929062 0
-7.79504 0.0802364 0
-6.95303 -1.31598 0
-1.25529 -9.86446 0
-6.44192 -2.15328 0
-6.31983 -3.05635 0
-5.53695 -5.47497 0
-4.79627 -6.11593 0
-5.65943 -3.75728 0
-5.26979 -4.56193 0
-2.86639 -8.36451 0
-1.77871 -8.64084 0
-3.92844 -6.72406 0
-3.05686 -7.15314 0
0.0499709 -9.95 0
-7.70604 1.14357 0
-8.33912 2.91559 0
-7.55244 2.11209 0
-8.61024 5.04998 0
-7.88059 3.97848 0
-7.88352 6.1376 0
-6.77918 -0.396902 0
-6.95704 0.552561 0
-5.77177 -1.00348 0
-0.590904 -8.81034 0
0.565696 -8.77152 0
-5.30347 -2.48044 0
-4.49231 -5.09612 0
-3.9028 -5.77576 0
-4.43922 -3.80501 0
-2.0626 -7.56254 0
-1.13559 -7.78646 0
-2.99479 -6.10253 0
-2.30922 -6.62031 0
1.35523 -9.86445 0
-6.68995 1.42213 0
-7.17274 3.11834 0
-6.65977 2.37317 0
-7.29527 4.98901 0
-6.71862 4.00336 0
-7.02105 7.12105 0
-6.573 5.8946 0
-6.03759 7.98352 0
-4.45338 -1.18115 0
-5.81499 0.513775 0
-4.65645 -0.010396 0
0.0084991 -7.84876 0
1.73867 -8.6445 0
0.949021 -7.7641 0
-4.03877 -2.40654 0
-3.48576 -1.39129 0
-3.29475 -4.80568 0
-3.26608 -3.268 0
-1.37871 -6.67601 0
-0.508802 -7.02554 0
-1.97571 -5.53743 0
2.63816 -9.60925 0
-5.50773 2.03705 0
-6.09523 3.07245 0
-6.10564 4.87007 0
-5.76224 3.99182 0
-5.76181 6.71774 0
-5.45265 5.6199 0
-4.94998 8.71024 0
-4.83891 7.40527 0
-3.50172 -0.424341 0
-4.4496 1.24911 0
-3.71171 0.592099 0
-4.06244 2.31996 0
-3.77681 9.28879 0
2.86284 -8.33363 0
0.419707 -6.79607 0
2.0222 -7.52659 0
1.3062 -6.90625 0
-2.44482 -0.873873 0
-2.83856 -2.13128 0
-2.29458 -4.09766 0
-2.32581 -2.9738 0
-0.442438 -5.86165 0
-1.22282 -4.49946 0
3.87681 -9.18879 0
-4.79019 3.39207 0
-5.08844 4.5946 0
-4.64766 6.28211 0
-4.53934 5.36029 0
-3.84413 7.99421 0
-3.82716 6.84648 0
-2.78359 8.42376 0
-1.64915 -0.137913 0
-1.45035 -0.890646 0
-2.48927 0.507279 0
-3.25384 1.44424 0
-3.23927 3.3168 0
-2.91118 2.37192 0
-1.35518 0.627139 0
-2.53816 9.70925 0
3.93311 -7.88784 0
2.96486 -7.15855 0
0.954162 -5.82257 0
2.07455 -6.41622 0
-1.68308 -1.99219 0
-1.43454 -3.27801 0
0.0902125 -4.74737 0
-0.566225 -3.69469 0
4.9327 -7.31964 0
5.04998 -8.61024 0
-3.77729 4.55204 0
-3.73517 5.75279 0
-2.88831 7.29074 0
-3.01004 6.35447 0
-1.66273 8.73469 0
-1.94033 7.6203 0
-2.33856 4.052 0
-0.730778 -1.32733 0
-0.836948 -0.257644 0
-1.93633 1.68087 0
-2.12591 2.87604 0
-1.30666 3.54496 0
-0.869509 1.35091 0
-0.282382 0.456072 0
-0.533559 8.87278 0
-1.25523 9.96445 0
1.11287 -4.575 0
3.91061 -6.71815 0
2.98827 -6.09551 0
2.11807 -5.42553 0
4.78506 -6.20618 0
-0.558896 -2.47698 0
0.495137 -3.4641 0
0.0535512 -1.61058 0
1.48201 -3.68247 0
5.86793 -6.61554 0
6.13759 -7.88352 0
-2.47592 5.34904 0
-2.1307 6.53528 0
-0.904171 7.80436 0
-1.27249 6.93297 0
0.0862384 7.88148 0
-1.14455 4.49512 0
0.150328 -0.617682 0
-0.797474 2.48867 0
-0.331665 3.60102 0
0.0631139 1.51282 0
0.741483 0.473451 0
0.646899 8.87547 0
0.0500295 10.05 0
2.38124 -4.28568 0
3.85969 -5.64121 0
3.00182 -5.2134 0
5.5746 -5.49265 0
4.69169 -5.28382 0
0.629711 -2.29352 0
1.25627 -2.95146 0
0.757543 -1.39154 0
2.16453 -3.13611 0
2.99409 -3.47696 0
6.15616 -4.79255 0
6.65661 -5.77019 0
7.12105 -7.02105 0
-1.01974 5.82105 0
-0.372651 6.88459 0
1.12283 7.77081 0
0.55808 7.0809 0
-0.000751827 4.72568 0
0.607069 3.82819 0
1.33901 -0.641934 0
0.539148 2.65126 0
0.966156 1.57505 0
1.91034 0.213888 0
1.61489 1.06511 0
2.12979 7.5849 0
1.79954 8.71386 0
1.35529 9.96446 0
3.82333 -4.35218 0
5.1174 -4.44973 0
5.84674 -3.9358 0
3.78447 -3.20145 0
1.81244 -1.88278 0
3.01948 -2.57417 0
6.78462 -3.94858 0
7.38277 -4.89766 0
7.98352 -6.0376 0
0.483443 5.88239 0
1.42844 6.7431 0
2.3748 6.67034 0
1.21014 4.55676 0
1.48835 3.39802 0
2.43604 -0.692082 0
2.82836 0.142628 0
1.78907 2.16307 0
2.61217 1.15028 0
3.07266 7.17157 0
2.90482 8.37847 0
2.63823 9.70927 0
4.91207 -3.3284 0
6.12187 -3.10926 0
4.17346 -2.27556 0
3.24483 -1.50307 0
6.73275 -2.31349 0
7.23361 -3.04317 0
7.96658 -3.91305 0
8.71024 -4.94998 0
2.02397 5.60078 0
3.08719 6.15494 0
2.36427 4.12753 0
2.42041 3.0613 0
3.52616 -0.460909 0
3.61622 0.613383 0
2.96225 2.2884 0
3.54612 1.5255 0
4.0132 5.89961 0
3.98555 6.79501 0
3.97436 7.94079 0
3.87687 9.28881 0
5.56993 -1.91651 0
4.50997 -1.12977 0
6.71566 -1.33642 0
7.59461 -2.03694 0
8.39943 -2.8621 0
9.28879 -3.77681 0
3.41989 4.87809 0
3.33961 3.38599 0
4.69212 0.130112 0
4.52002 1.31022 0
4.06609 2.44427 0
4.572 5.15407 0
4.8453 6.19284 0
4.98205 7.3828 0
5.05003 8.71027 0
5.88495 -0.434988 0
7.01313 -0.488371 0
7.76211 -1.08561 0
8.68762 -1.74646 0
9.70926 -2.53817 0
4.5537 3.82863 0
5.8194 1.0989 0
5.3728 2.53567 0
5.38212 4.62233 0
5.61433 5.52567 0
5.89938 6.67436 0
6.13765 7.98355 0
6.84863 0.463722 0
7.85637 -0.0256241 0
8.86367 -0.584523 0
9.96445 -1.25523 0
6.96329 1.35 0
5.72338 3.77997 0
6.5441 2.19839 0
6.38289 3.08929 0
6.29517 4.68901 0
6.69583 5.84022 0
7.1211 7.12109 0
7.78766 0.968036 0
8.86302 0.573002 0
10.05 0.050029 0
7.61957 2.00519 0
6.83227 3.90604 0
7.27284 2.94813 0
7.38149 4.88787 0
7.98356 6.13764 0
8.72662 1.72765 0
9.96446 1.35529 0
8.42455 2.83899 0
7.98504 3.91799 0
8.71028 5.05002 0
9.70927 2.63822 0
9.28881 3.87686 0
CELLS 542 2168
3 2 0 4
3 0 1 7
3 4 0 7
3 1 5 8
3 7 1 8
3 3 2 13
3 13 2 4
3 11 3 14
3 14 3 13
3 13 4 15
3 4 7 16
3 15 4 16
3 5 6 17
3 8 5 17
3 6 9 18
3 17 6 18
3 7 8 19
3 16 7 19
3 8 17 20
3 19 8 20
3 9 10 23
3 18 9 23
3 10 21 24
3 23 10 24
3 12 11 25
3 25 11 14
3 26 12 27
3 27 12 25
3 14 13 29
3 29 13 15
3 25 14 30
3 30 14 29
3 29 15 31
3 15 16 33
3 31 15 33
3 16 19 34
3 33 16 34
3 17 18 35
3 20 17 35
3 18 23 36
3 35 18 36
3 19 20 37
3 34 19 37
3 20 35 38
3 37 20 38
3 21 22 39
3 24 21 39
3 22 32 40
3 39 22 40
3 23 24 41
3 36 23 41
3 24 39 42
3 41 24 42
3 27 25 44
3 44 25 30
3 28 26 45
3 45 26 27
3 45 27 46
3 46 27 44
3 47 28 48
3 48 28 45
3 30 29 50
3 50 29 31
3 44 30 51
3 51 30 50
3 50 31 52
3 31 33 52
3 32 43 53
3 40 32 53
3 53 43 54
3 33 34 55
3 34 37 55
3 33 55 52
3 35 36 56
3 38 35 56
3 36 41 57
3 56 36 57
3 37 38 58
3 38 56 58
3 37 58 55
3 39 40 59
3 42 39 59
3 40 53 60
3 59 40 60
3 41 42 61
3 57 41 61
3 42 59 62
3 61 42 62
3 43 63 54
3 46 44 64
3 64 44 51
3 48 45 65
3 65 45 46
3 65 46 66
3 66 46 64
3 49 47 67
3 67 47 48
3 67 48 68
3 68 48 65
3 69 49 70
3 70 49 67
3 52 55 72
3 64 51 73
3 51 50 73
3 50 52 73
3 73 52 74
3 74 52 72
3 53 54 75
3 60 53 75
3 54 63 76
3 54 76 77
3 75 54 77
3 55 58 78
3 72 55 78
3 72 78 79
3 56 57 80
3 57 61 80
3 56 80 58
3 58 80 81
3 78 58 81
3 59 60 82
3 62 59 82
3 60 75 83
3 82 60 83
3 61 62 84
3 62 82 84
3 61 84 80
3 63 85 76
3 66 64 86
3 64 73 86
3 68 65 87
3 87 65 66
3 87 66 86
3 70 67 88
3 88 67 68
3 88 68 89
3 89 68 87
3 71 69 90
3 90 69 70
3 90 70 91
3 91 70 88
3 92 71 93
3 93 71 90
3 74 72 94
3 94 72 79
3 86 73 95
3 95 73 74
3 95 74 96
3 96 74 94
3 97 86 95
3 76 85 99
3 75 77 100
3 83 75 100
3 76 99 101
3 77 76 101
3 77 101 102
3 100 77 102
3 94 79 103
3 78 81 104
3 79 78 104
3 79 104 103
3 80 84 105
3 81 80 105
3 81 105 106
3 104 81 106
3 82 83 107
3 83 100 107
3 82 107 84
3 84 107 108
3 105 84 108
3 85 109 99
3 89 87 110
3 87 86 110
3 110 86 97
3 91 88 111
3 111 88 89
3 111 89 110
3 93 90 112
3 112 90 91
3 112 91 113
3 113 91 111
3 98 92 114
3 114 92 93
3 114 93 115
3 115 93 112
3 116 98 114
3 117 103 118
3 96 94 119
3 94 103 119
3 119 103 117
3 97 95 120
3 120 95 96
3 120 96 119
3 121 110 97
3 121 97 122
3 122 97 120
3 123 119 117
3 124 98 116
3 99 109 125
3 99 125 126
3 101 99 126
3 100 102 127
3 100 127 107
3 101 126 128
3 102 101 128
3 102 128 127
3 104 106 129
3 104 129 103
3 103 129 118
3 105 108 130
3 106 105 130
3 106 130 129
3 107 127 131
3 108 107 131
3 108 131 132
3 108 132 130
3 109 134 125
3 125 134 133
3 113 111 135
3 111 110 135
3 135 110 121
3 115 112 136
3 136 112 113
3 136 113 135
3 116 114 137
3 137 114 115
3 137 115 138
3 138 115 136
3 139 124 116
3 139 116 140
3 140 116 137
3 141 135 121
3 118 129 142
3 118 142 143
3 117 118 143
3 123 117 143
3 122 120 144
3 120 119 144
3 144 119 123
3 141 121 145
3 145 121 122
3 145 122 144
3 146 141 145
3 147 144 123
3 147 123 148
3 143 148 123
3 150 124 139
3 149 150 139
3 131 127 151
3 125 133 152
3 126 125 152
3 126 152 153
3 128 126 153
3 128 153 154
3 128 154 127
3 127 154 151
3 152 133 155
3 130 132 156
3 130 156 129
3 129 156 142
3 131 151 157
3 132 131 157
3 132 157 156
3 156 158 142
3 157 151 159
3 133 160 155
3 134 161 133
3 133 161 160
3 138 136 162
3 136 135 162
3 162 135 141
3 140 137 163
3 163 137 138
3 163 138 162
3 149 139 164
3 164 139 140
3 164 140 165
3 165 140 163
3 166 149 164
3 167 162 141
3 167 141 146
3 142 158 168
3 143 142 168
3 143 168 148
3 146 145 169
3 145 144 169
3 169 144 147
3 170 167 146
3 170 146 169
3 171 169 147
3 171 147 148
3 171 148 172
3 168 172 148
3 173 149 166
3 174 150 149
3 173 174 149
3 154 175 151
3 151 175 159
3 152 155 176
3 153 152 176
3 153 176 177
3 153 177 154
3 154 177 175
3 155 160 178
3 155 178 179
3 176 155 179
3 156 157 180
3 156 180 158
3 157 159 181
3 157 181 180
3 158 180 182
3 158 182 168
3 159 175 183
3 159 183 181
3 175 184 183
3 160 186 178
3 178 186 185
3 161 187 160
3 160 187 186
3 165 163 188
3 163 162 188
3 188 162 167
3 166 164 189
3 189 164 165
3 189 165 188
3 190 173 166
3 190 166 191
3 191 166 189
3 192 188 167
3 192 167 170
3 193 192 170
3 182 194 168
3 194 172 168
3 193 170 195
3 170 169 195
3 195 169 171
3 196 195 171
3 196 171 172
3 194 197 172
3 197 198 172
3 198 196 172
3 200 173 190
3 199 200 190
3 201 174 173
3 200 201 173
3 176 179 202
3 177 176 202
3 177 202 175
3 175 202 184
3 178 185 203
3 178 203 179
3 179 203 202
3 203 185 204
3 202 205 184
3 183 206 181
3 180 181 206
3 180 206 182
3 182 206 194
3 183 184 207
3 205 207 184
3 183 207 206
3 185 208 204
3 186 209 185
3 185 209 208
3 187 210 186
3 186 210 209
3 191 189 211
3 189 188 211
3 211 188 192
3 199 190 212
3 212 190 191
3 212 191 211
3 213 199 212
3 214 211 192
3 214 192 193
3 215 214 193
3 215 193 195
3 206 216 194
3 216 197 194
3 216 217 197
3 215 195 218
3 218 195 196
3 198 218 196
3 217 219 197
3 219 218 198
3 197 219 198
3 220 199 213
3 221 200 199
3 220 221 199
3 222 201 200
3 221 222 200
3 203 204 223
3 203 223 202
3 202 223 205
3 204 208 224
3 204 224 223
3 205 223 225
3 205 225 207
3 207 225 226
3 207 226 206
3 226 216 206
3 208 228 224
3 224 228 227
3 209 229 208
3 229 228 208
3 210 230 209
3 209 230 229
3 213 212 231
3 212 211 231
3 231 211 214
3 232 220 213
3 232 213 231
3 233 231 214
3 233 214 215
3 234 233 215
3 234 215 218
3 226 235 216
3 235 217 216
3 235 236 217
3 217 236 219
3 237 234 218
3 237 218 219
3 236 238 219
3 238 237 219
3 240 220 232
3 239 240 232
3 241 221 220
3 240 241 220
3 242 222 221
3 241 242 221
3 224 227 243
3 224 243 223
3 223 243 225
3 225 243 244
3 225 244 226
3 226 244 235
3 227 245 243
3 228 246 227
3 227 246 245
3 229 247 228
3 228 247 246
3 230 248 229
3 229 248 247
3 239 232 249
3 232 231 249
3 249 231 233
3 250 249 233
3 250 233 234
3 237 250 234
3 244 251 235
3 235 251 236
3 251 252 236
3 236 252 238
3 252 253 238
3 253 250 237
3 253 237 238
3 254 239 249
3 255 240 239
3 254 255 239
3 256 241 240
3 255 256 240
3 257 242 241
3 256 257 241
3 245 258 243
3 243 258 244
3 244 258 251
3 245 259 258
3 246 260 245
3 245 260 259
3 247 261 246
3 246 261 260
3 248 262 247
3 247 262 261
3 254 249 263
3 263 249 250
3 253 263 250
3 258 264 251
3 251 264 252
3 264 265 252
3 265 263 253
3 252 265 253
3 266 254 263
3 267 255 254
3 266 267 254
3 268 256 255
3 267 268 255
3 269 257 256
3 268 269 256
3 259 270 258
3 270 264 258
3 260 271 259
3 259 271 270
3 261 272 260
3 260 272 271
3 262 273 261
3 273 272 261
3 270 274 264
3 275 266 263
3 275 263 265
3 274 276 264
3 276 265 264
3 276 277 265
3 277 275 265
3 278 267 266
3 275 278 266
3 279 268 267
3 278 279 267
3 280 269 268
3 279 280 268
3 271 281 270
3 270 281 274
3 272 282 271
3 271 282 281
3 273 283 272
3 272 283 282
3 281 284 274
3 274 284 276
3 285 278 275
3 277 285 275
3 284 286 276
3 286 285 277
3 276 286 277
3 287 279 278
3 285 287 278
3 288 280 279
3 287 288 279
3 282 289 281
3 281 289 284
3 283 290 282
3 282 290 289
3 289 291 284
3 284 291 286
3 291 292 286
3 292 287 285
3 286 292 285
3 293 288 287
3 292 293 287
3 290 294 289
3 289 294 291
3 294 295 291
3 295 293 292
3 291 295 292
CELL_TYPES 542
5
5
5
5
5
5
5
5
5
5
5
5
5
5
5
5
5
5
5
5
5
5
5
5
5
5
5
5
5
5
5
5
5
5
5
5
5
5
5
5
5
5
5
5
5
5
5
5
5
5
5
5
5
5
5
5
5
5
5
5
5
5
5
5
5
5
5
5
5
5
5
5
5
5
5
5
5
5
5
5
5
5
5
5
5
5
5
5
5
5
5
5
5
5
5
5
5
5
5
5
5
5
5
5
5
5
5
5
5
5
5
5
5
5
5
5
5
5
5
5
5
5
5
5
5
5
5
5
5
5
5
5
5
5
5
5
5
5
5
5
5
5
5
5
5
5
5
5
5
5
5
5
5
5
5
5
5
5
5
5
5
5
5
5
5
5
5
5
5
5
5
5
5
5
5
5
5
5
5
5
5
5
5
5
5
5
5
5
5
5
5
5
5
5
5
5
5
5
5
5
5
5
5
5
5
5
5
5
5
5
5
5
5
5
5
5
5
5
5
5
5
5
5
5
5
5
5
5
5
5
5
5
5
5
5
5
5
5
5
5
5
5
5
5
5
5
5
5
5
5
5
5
5
5
5
5
5
5
5
5
5
5
5
5
5
5
5
5
5
5
5
5
5
5
5
5
5
5
5
5
5
5
5
5
5
5
5
5
5
5
5
5
5
5
5
5
5
5
5
5
5
5
5
5
5
5
5
5
5
5
5
5
5
5
5
5
5
5
5
5
5
5
5
5
5
5
5
5
5
5
5
5
5
5
5
5
5
5
5
5
5
5
5
5
5
5
5
5
5
5
5
5
5
5
5
5
5
5
5
5
5
5
5
5
5
5
5
5
5
5
5
5
5
5
5
5
5
5
5
5
5
5
5
5
5
5
5
5
5
5
5
5
5
5
5
5
5
5
5
5
5
5
5
5
5
5
5
5
5
5
5
5
5
5
5
5
5
5
5
5
5
5
5
5
5
5
5
5
5
5
5
5
5
5
5
5
5
5
5
5
5
5
5
5
5
5
5
5
5
5
5
5
5
5
5
5
5
5
5
5
5
5
5
5
5
5
5
5
5
5
5
5
5
5
5
5
5
5
5
5
5
5
5
5
5
5
5
5
5
5
5
5
5
5
5
5
5
5
5
5
5
5
5
5
5
5
5
5
5
5
5
5
5
5
5
5
5
5
5
5
5
5
5
5
5
5
5
5
5
5
5
5
5
5
5
5
5
5
5
5
5
5
POINT_DATA 296
SCALARS concentrations float 4
LOOKUP_TABLE default
0 1 0.0813893 0.0142356
0 1 0.0813896 0.0141582
0 1 0.081389 0.0143486
0 1 0.0813884 0.0144724
0 1 0.081385 0.0126147
0 1 0.0813897 0.0141325
0 1 0.0813897 0.0141792
0 1 0.0813853 0.0125483
0 1 0.0813855 0.0125149
0 1 0.0813896 0.0142909
0 1 0.0813894 0.0144521
0 1 0.0813878 0.0145638
0 1 0.0813869 0.0146071
0 1 0.0813846 0.0126917
0 1 0.081384 0.0127346
0 1 0.0813813 0.0112132
0 1 0.0813814 0.0110824
0 1 0.0813855 0.0125222
0 1 0.0813854 0.0125912
0 1 0.0813818 0.0111089
0 1 0.0813817 0.011056
0 1 0.081389 0.0146452
0 1 0.0813885 0.0148509
0 1 0.0813853 0.0127135
0 1 0.081385 0.0128606
0 1 0.0813833 0.0128015
0 1 0.081386 0.014602
0 1 0.0813825 0.0127877
0 1 0.081385 0.0145674
0 1 0.0813806 0.0111915
0 1 0.0813801 0.0112211
0 1 0.0813783 0.0101023
0 1 0.0813878 0.0150335
0 1 0.0813777 0.00966045
0 1 0.0813788 0.00996985
0 1 0.0813818 0.0111083
0 1 0.0813816 0.0111673
0 1 0.0813781 0.00965228
0 1 0.0813788 0.00993372
0 1 0.0813847 0.0130776
0 1 0.0813841 0.0132
0 1 0.0813814 0.0113072
0 1 0.0813811 0.0114196
0 1 0.0813869 0.0151681
0 1 0.0813794 0.0112294
0 1 0.0813817 0.0128102
0 1 0.0813788 0.0113002
0 1 0.0813841 0.0145114
0 1 0.0813809 0.0127548
0 1 0.0813834 0.0144499
0 1 0.0813769 0.00970873
0 1 0.0813769 0.0100036
0 1 0.081374 0.00833722
0 1 0.0813834 0.0133502
0 1 0.0813824 0.0133814
0 1 0.0813746 0.00832533
0 1 0.0813781 0.0097474
0 1 0.0813786 0.0100858
0 1 0.0813747 0.00836711
0 1 0.0813808 0.0116514
0 1 0.0813804 0.0118124
0 1 0.0813777 0.00995152
0 1 0.0813781 0.0103679
0 1 0.081386 0.0152533
0 1 0.0813759 0.00979307
0 1 0.081378 0.0112363
0 1 0.081376 0.0101198
0 1 0.0813802 0.0127117
0 1 0.0813774 0.011194
0 1 0.0813831 0.0144097
0 1 0.0813797 0.0126413
0 1 0.0813832 0.0143841
0 1 0.0813699 0.00656785
0 1 0.0813731 0.00831431
0 1 0.0813694 0.00661279
0 1 0.0813796 0.0118946
0 1 0.0813816 0.0134771
0 1 0.0813788 0.0119173
0 1 0.0813706 0.00674056
0 1 0.0813671 0.0054035
0 1 0.0813745 0.00847146
0 1 0.0813703 0.00671096
0 1 0.081377 0.0101965
0 1 0.0813772 0.0106326
0 1 0.0813741 0.00872777
0 1 0.0813849 0.0152873
0 1 0.0813721 0.00833252
0 1 0.0813746 0.00972156
0 1 0.0813768 0.0111252
0 1 0.0813746 0.00995275
0 1 0.0813796 0.012626
0 1 0.0813766 0.0111069
0 1 0.0813837 0.0143776
0 1 0.0813798 0.0125813
0 1 0.0813659 0.00503517
0 1 0.0813685 0.00652009
0 1 0.0813661 0.00530316
0 1 0.081368 0.00653853
0 1 0.0813845 0.0143729
0 1 0.0813807 0.0134792
0 1 0.0813757 0.0103586
0 1 0.0813778 0.0119112
0 1 0.0813758 0.0107364
0 1 0.081363 0.00380964
0 1 0.0813665 0.00519881
0 1 0.0813703 0.00695457
0 1 0.0813672 0.00561001
0 1 0.0813732 0.00890487
0 1 0.0813697 0.00704702
0 1 0.0813839 0.0152784
0 1 0.0813712 0.00825459
0 1 0.0813738 0.00967418
0 1 0.0813766 0.0110361
0 1 0.0813742 0.00987671
0 1 0.0813804 0.0125839
0 1 0.081377 0.0110352
0 1 0.0813811 0.012541
0 1 0.0813597 0.00244007
0 1 0.08136 0.00267619
0 1 0.0813622 0.00356219
0 1 0.0813649 0.0049474
0 1 0.0813673 0.00637629
0 1 0.0813649 0.00513693
0 1 0.0813587 0.00200359
0 1 0.0813853 0.0143412
0 1 0.0813798 0.0134648
0 1 0.0813769 0.0118474
0 1 0.0813722 0.00904063
0 1 0.0813742 0.0103287
0 1 0.0813631 0.00400749
0 1 0.0813662 0.00545427
0 1 0.0813691 0.00730484
0 1 0.0813662 0.00579111
0 1 0.0813792 0.0134478
0 1 0.081383 0.0152492
0 1 0.081371 0.008224
0 1 0.0813738 0.00957922
0 1 0.0813775 0.0109819
0 1 0.0813747 0.00978376
0 1 0.0813819 0.0125056
0 1 0.0813782 0.0109526
0 1 0.0813675 0.0063289
0 1 0.0813592 0.00259557
0 1 0.0813573 0.00149507
0 1 0.0813615 0.00340058
0 1 0.0813642 0.00477111
0 1 0.081365 0.00493372
0 1 0.0813586 0.00190245
0 1 0.0813558 0.00046888
0 1 0.0813827 0.0124127
0 1 0.0813862 0.0142795
0 1 0.0813681 0.0073052
0 1 0.0813763 0.0118659
0 1 0.0813736 0.010396
0 1 0.0813711 0.00896144
0 1 0.081376 0.0119259
0 1 0.0813623 0.00408402
0 1 0.0813647 0.005535
0 1 0.081359 0.00283394
0 1 0.0813654 0.0062373
0 1 0.0813789 0.0134242
0 1 0.0813824 0.0152102
0 1 0.0813713 0.00807949
0 1 0.0813747 0.00948534
0 1 0.0813788 0.0108613
0 1 0.0813758 0.00967642
0 1 0.0813795 0.0108071
0 1 0.0813679 0.00613637
0 1 0.0813559 0.00145614
0 1 0.0813616 0.00322927
0 1 0.081365 0.00457608
0 1 0.0813584 0.00154775
0 1 0.0813565 0.000967824
0 1 0.0813834 0.0123121
0 1 0.0813871 0.014182
0 1 0.0813678 0.00759273
0 1 0.0813732 0.010439
0 1 0.081371 0.00923646
0 1 0.0813758 0.0118599
0 1 0.0813736 0.0107469
0 1 0.0813609 0.00393665
0 1 0.0813631 0.00512998
0 1 0.0813583 0.00277718
0 1 0.0813644 0.00597764
0 1 0.0813664 0.00708615
0 1 0.0813759 0.0117707
0 1 0.0813788 0.0133218
0 1 0.0813823 0.0151678
0 1 0.0813722 0.00796545
0 1 0.0813759 0.00936281
0 1 0.08138 0.0106507
0 1 0.0813771 0.00958038
0 1 0.0813688 0.00613383
0 1 0.0813663 0.00484563
0 1 0.0813578 0.00240896
0 1 0.0813624 0.00318391
0 1 0.0813597 0.00200911
0 1 0.0813596 0.00264128
0 1 0.08136 0.0023184
0 1 0.0813806 0.010581
0 1 0.081384 0.0121772
0 1 0.0813879 0.0140485
0 1 0.0813699 0.00885346
0 1 0.0813728 0.0102666
0 1 0.0813739 0.0106031
0 1 0.0813675 0.00756157
0 1 0.0813608 0.00418886
0 1 0.0813646 0.00611608
0 1 0.0813766 0.0117723
0 1 0.0813794 0.0133413
0 1 0.0813827 0.0151411
0 1 0.081373 0.00780026
0 1 0.0813769 0.00917374
0 1 0.0813779 0.00935901
0 1 0.0813694 0.00599857
0 1 0.0813661 0.00455022
0 1 0.081361 0.00378308
0 1 0.0813625 0.00394595
0 1 0.0813631 0.00334439
0 1 0.0813631 0.00367335
0 1 0.0813807 0.0103702
0 1 0.0813843 0.0120014
0 1 0.0813885 0.0138874
0 1 0.0813705 0.00894409
0 1 0.0813738 0.0102526
0 1 0.0813672 0.00714636
0 1 0.0813639 0.00538861
0 1 0.0813752 0.0105261
0 1 0.0813772 0.0116809
0 1 0.0813801 0.0132946
0 1 0.0813834 0.0150986
0 1 0.0813739 0.0077301
0 1 0.0813775 0.00901232
0 1 0.0813699 0.00599601
0 1 0.081367 0.00483104
0 1 0.0813645 0.00512274
0 1 0.0813655 0.00500801
0 1 0.0813664 0.00471377
0 1 0.0813666 0.00505911
0 1 0.0813786 0.00933046
0 1 0.0813812 0.0104125
0 1 0.0813847 0.0119105
0 1 0.0813889 0.0137373
0 1 0.0813713 0.00869176
0 1 0.0813677 0.006798
0 1 0.081375 0.00999139
0 1 0.081378 0.0115903
0 1 0.0813809 0.0132009
0 1 0.0813843 0.0150461
0 1 0.0813743 0.00766611
0 1 0.0813701 0.006033
0 1 0.0813687 0.00659929
0 1 0.0813693 0.00635158
0 1 0.0813699 0.00616547
0 1 0.0813778 0.00898234
0 1 0.0813813 0.0103589
0 1 0.0813851 0.0118772
0 1 0.0813893 0.0136231
0 1 0.0813724 0.00845636
0 1 0.0813762 0.0101251
0 1 0.0813786 0.011423
0 1 0.0813817 0.0130616
0 1 0.0813853 0.0149609
0 1 0.0813743 0.00772453
0 1 0.0813733 0.0081842
0 1 0.081374 0.00792177
0 1 0.0813785 0.00932129
0 1 0.0813814 0.0103962
0 1 0.0813852 0.0118561
0 1 0.0813895 0.0135526
0 1 0.0813762 0.00970768
0 1 0.0813794 0.0112832
0 1 0.0813826 0.012939
0 1 0.0813863 0.0148407
0 1 0.0813775 0.00987843
0 1 0.0813775 0.00907647
0 1 0.0813772 0.00942583
0 1 0.0813782 0.00954015
0 1 0.0813812 0.0104314
0 1 0.0813851 0.0118593
0 1 0.0813896 0.0135485
0 1 0.0813799 0.0110907
0 1 0.0813833 0.0127471
0 1 0.0813872 0.0146675
0 1 0.0813805 0.0109368
0 1 0.0813811 0.0105716
0 1 0.0813808 0.010707
0 1 0.0813849 0.0119122
0 1 0.0813895 0.0136106
0 1 0.081384 0.0125529
0 1 0.081388 0.0144488
0 1 0.0813844 0.0123225
0 1 0.0813848 0.0121258
0 1 0.0813892 0.0137435
0 1 0.0813885 0.0141986
0 1 0.0813889 0.0139483
VECTORS fa_u float
0.00602959 0.00249752 -0
0.00565202 0.00326319 -0
0.00630398 0.00168913 -0
0.0064705 0.000851839 -0
1e-08 0 0
0.00517774 0.00397301 -0
0.00461486 0.00461486 -0
1e-08 0 0
1e-08 0 0
0.00397301 0.00517774 -0
0.00326318 0.00565201 -0
0.00652632 -1.8426e-08 -0
0.00647047 -0.000851875 0
1e-08 0 0
1e-08 0 0
1e-08 0 0
1e-08 0 0
1e-08 0 0
1e-08 0 0
1e-08 0 0
1e-08 0 0
0.00249752 0.00602957 -0
0.00168913 0.00630398 -0
1e-08 0 0
1e-08 0 0
1e-08 0 0
0.0063039 -0.00168914 0
1e-08 0 0
0.00602945 -0.0024975 0
1e-08 0 0
1e-08 0 0
1e-08 0 0
0.000851845 0.00647052 -0
1e-08 0 0
1e-08 0 0
1e-08 0 0
1e-08 0 0
1e-08 0 0
1e-08 0 0
1e-08 0 0
1e-08 0 0
1e-08 0 0
1e-08 0 0
-1.83925e-08 0.0065263 -0
1e-08 0 0
1e-08 0 0
1e-08 0 0
0.00565187 -0.00326312 0
1e-08 0 0
0.00517759 -0.00397292 0
1e-08 0 0
1e-08 0 0
1e-08 0 0
1e-08 0 0
1e-08 0 0
1e-08 0 0
1e-08 0 0
1e-08 0 0
1e-08 0 0
1e-08 0 0
1e-08 0 0
1e-08 0 0
1e-08 0 0
-0.000851866 0.00647044 0
1e-08 0 0
1e-08 0 0
1e-08 0 0
1e-08 0 0
1e-08 0 0
0.00461473 -0.00461473 0
1e-08 0 0
0.00397291 -0.00517759 0
1e-08 0 0
1e-08 0 0
1e-08 0 0
1e-08 0 0
1e-08 0 0
1e-08 0 0
1e-08 0 0
1e-08 0 0
1e-08 0 0
1e-08 0 0
1e-08 0 0
1e-08 0 0
1e-08 0 0
-0.00168913 0.00630387 0
1e-08 0 0
1e-08 0 0
1e-08 0 0
1e-08 0 0
1e-08 0 0
1e-08 0 0
0.00326312 -0.00565187 0
1e-08 0 0
1e-08 0 0
1e-08 0 0
1e-08 0 0
1e-08 0 0
0.00249749 -0.00602944 0
1e-08 0 0
1e-08 0 0
1e-08 0 0
1e-08 0 0
1e-08 0 0
1e-08 0 0
1e-08 0 0
1e-08 0 0
1e-08 0 0
1e-08 0 0
-0.00249749 0.00602945 0
1e-08 0 0
1e-08 0 0
1e-08 0 0
1e-08 0 0
1e-08 0 0
1e-08 0 0
1e-08 0 0
1e-08 0 0
1e-08 0 0
1e-08 0 0
1e-08 0 0
1e-08 0 0
1e-08 0 0
1e-08 0 0
0.00168913 -0.00630387 0
1e-08 0 0
1e-08 0 0
1e-08 0 0
1e-08 0 0
1e-08 0 0
1e-08 0 0
1e-08 0 0
1e-08 0 0
1e-08 0 0
-0.00326311 0.00565187 0
1e-08 0 0
1e-08 0 0
1e-08 0 0
1e-08 0 0
1e-08 0 0
1e-08 0 0
1e-08 0 0
1e-08 0 0
1e-08 0 0
1e-08 0 0
1e-08 0 0
1e-08 0 0
1e-08 0 0
1e-08 0 0
1e-08 0 0
0.000851867 -0.00647044 0
1e-08 0 0
1e-08 0 0
1e-08 0 0
1e-08 0 0
1e-08 0 0
1e-08 0 0
1e-08 0 0
1e-08 0 0
1e-08 0 0
1e-08 0 0
-0.00397291 0.00517759 0
1e-08 0 0
1e-08 0 0
1e-08 0 0
1e-08 0 0
1e-08 0 0
1e-08 0 0
1e-08 0 0
1e-08 0 0
1e-08 0 0
1e-08 0 0
1e-08 0 0
1e-08 0 0
1.84092e-08 -0.0065263 0
1e-08 0 0
1e-08 0 0
1e-08 0 0
1e-08 0 0
1e-08 0 0
1e-08 0 0
1e-08 0 0
1e-08 0 0
1e-08 0 0
1e-08 0 0
1e-08 0 0
1e-08 0 0
-0.00461473 0.00461473 0
1e-08 0 0
1e-08 0 0
1e-08 0 0
1e-08 0 0
1e-08 0 0
1e-08 0 0
1e-08 0 0
1e-08 0 0
1e-08 0 0
1e-08 0 0
1e-08 0 0
1e-08 0 0
1e-08 0 0
-0.000851845 -0.00647052 0
1e-08 0 0
1e-08 0 0
1e-08 0 0
1e-08 0 0
1e-08 0 0
1e-08 0 0
1e-08 0 0
1e-08 0 0
-0.00517759 0.00397291 0
1e-08 0 0
1e-08 0 0
1e-08 0 0
1e-08 0 0
1e-08 0 0
1e-08 0 0
1e-08 0 0
1e-08 0 0
1e-08 0 0
1e-08 0 0
1e-08 0 0
-0.00168913 -0.00630398 0
1e-08 0 0
1e-08 0 0
1e-08 0 0
1e-08 0 0
1e-08 0 0
1e-08 0 0
1e-08 0 0
-0.00565187 0.00326312 0
1e-08 0 0
1e-08 0 0
1e-08 0 0
1e-08 0 0
1e-08 0 0
1e-08 0 0
1e-08 0 0
1e-08 0 0
1e-08 0 0
1e-08 0 0
1e-08 0 0
-0.00249752 -0.00602957 0
1e-08 0 0
1e-08 0 0
1e-08 0 0
1e-08 0 0
1e-08 0 0
-0.00602945 0.0024975 0
1e-08 0 0
1e-08 0 0
1e-08 0 0
1e-08 0 0
1e-08 0 0
1e-08 0 0
1e-08 0 0
1e-08 0 0
-0.00326318 -0.00565201 0
1e-08 0 0
1e-08 0 0
1e-08 0 0
1e-08 0 0
-0.0063039 0.00168914 0
1e-08 0 0
1e-08 0 0
1e-08 0 0
1e-08 0 0
1e-08 0 0
1e-08 0 0
-0.00397301 -0.00517774 0
1e-08 0 0
1e-08 0 0
1e-08 0 0
-0.00647047 0.000851875 0
1e-08 0 0
1e-08 0 0
1e-08 0 0
1e-08 0 0
1e-08 0 0
1e-08 0 0
-0.00461486 -0.00461486 0
1e-08 0 0
1e-08 0 0
-0.00652631 1.85171e-08 0
1e-08 0 0
1e-08 0 0
1e-08 0 0
1e-08 0 0
-0.00517774 -0.00397301 0
1e-08 0 0
-0.0064705 -0.00085184 0
1e-08 0 0
1e-08 0 0
-0.00565202 -0.00326318 0
-0.00630398 -0.00168913 0
-0.00602958 -0.00249752 0
