# vtk DataFile Version 2.0
CellBP Time: 0.16
ASCII
DATASET UNSTRUCTURED_GRID
POINTS 296 double
-9.18881 -3.77685 0
-8.61027 -4.95002 0
-9.60927 -2.53821 0
-9.86446 -1.25528 0
-8.35807 -2.81889 0
-7.88355 -6.03763 0
-7.02109 -7.02108 0
-7.91771 -3.87496 0
-7.34312 -4.86816 0
-6.03764 -7.88355 0
-4.95002 -8.61027 0
-9.95001 0.0499814 0
-9.86445 1.35524 0
-8.65818 -1.68405 0
-8.78682 -0.529671 0
-7.5902 -2.00428 0
-7.22624 -2.90668 0
-6.63808 -5.77927 0
-5.8228 -6.59735 0
-6.79075 -3.88918 0
-6.22102 -4.67625 0
-3.77686 -9.18881 0
-2.53822 -9.60927 0
-4.90681 -7.30931 0
-3.91329 -7.88677 0
-8.79327 0.643419 0
-9.60926 2.63818 0
-8.6238 1.77417 0
-9.18879 3.87682 0
-7.74481 -0.929054 0
-7.79504 0.0802449 0
-6.95303 -1.31598 0
-1.25528 -9.86446 0
-6.44192 -2.15328 0
-6.31982 -3.05635 0
-5.53694 -5.47497 0
-4.79626 -6.11593 0
-5.65943 -3.75728 0
-5.26978 -4.56192 0
-2.86638 -8.36451 0
-1.7787 -8.64084 0
-3.92844 -6.72406 0
-3.05686 -7.15314 0
0.0499825 -9.95001 0
-7.70605 1.14358 0
-8.33912 2.9156 0
-7.55244 2.1121 0
-8.61025 5.04999 0
-7.88059 3.97849 0
-7.88353 6.13761 0
-6.77918 -0.396895 0
-6.95704 0.552569 0
-5.77177 -1.00348 0
-0.590894 -8.81034 0
0.565706 -8.77153 0
-5.30347 -2.48044 0
-4.4923 -5.09611 0
-3.9028 -5.77576 0
-4.43921 -3.80501 0
-2.06259 -7.56254 0
-1.13558 -7.78646 0
-2.99478 -6.10253 0
-2.30921 -6.62031 0
1.35525 -9.86445 0
-6.68995 1.42214 0
-7.17274 3.11835 0
-6.65977 2.37318 0
-7.29527 4.98902 0
-6.71862 4.00337 0
-7.02106 7.12106 0
-6.573 5.8946 0
-6.0376 7.98353 0
-4.45338 -1.18115 0
-5.81499 0.513781 0
-4.65645 -0.0103912 0
0.00850809 -7.84876 0
1.73868 -8.6445 0
0.94903 -7.76411 0
-4.03876 -2.40654 0
-3.48576 -1.39129 0
-3.29474 -4.80568 0
-3.26608 -3.268 0
-1.3787 -6.67601 0
-0.508794 -7.02554 0
-1.9757 -5.53743 0
2.63817 -9.60926 0
-5.50773 2.03706 0
-6.09523 3.07246 0
-6.10565 4.87007 0
-5.76225 3.99183 0
-5.76182 6.71775 0
-5.45265 5.61991 0
-4.94999 8.71025 0
-4.83892 7.40527 0
-3.50171 -0.424337 0
-4.4496 1.24911 0
-3.71171 0.592103 0
-4.06244 2.31997 0
-3.77682 9.28879 0
2.86285 -8.33364 0
0.419715 -6.79607 0
2.02221 -7.52659 0
1.3062 -6.90625 0
-2.44482 -0.873871 0
-2.83856 -2.13127 0
-2.29457 -4.09766 0
-2.3258 -2.9738 0
-0.442431 -5.86166 0
-1.22282 -4.49946 0
3.87682 -9.1888 0
-4.79019 3.39207 0
-5.08844 4.5946 0
-4.64767 6.28212 0
-4.53935 5.3603 0
-3.84413 7.99422 0
-3.82717 6.84648 0
-2.7836 8.42377 0
-1.64915 -0.137911 0
-1.45035 -0.890645 0
-2.48927 0.507282 0
-3.25384 1.44424 0
-3.23927 3.31681 0
-2.91118 2.37193 0
-1.35519 0.62714 0
-2.53817 9.70926 0
3.93312 -7.88784 0
2.96487 -7.15856 0
0.954169 -5.82257 0
2.07456 -6.41623 0
-1.68308 -1.99219 0
-1.43453 -3.27801 0
0.090218 -4.74737 0
-0.56622 -3.69469 0
4.9327 -7.31964 0
5.04999 -8.61025 0
-3.7773 4.55205 0
-3.73517 5.75279 0
-2.88831 7.29075 0
-3.01005 6.35447 0
-1.66274 8.7347 0
-1.94034 7.6203 0
-2.33856 4.05201 0
-0.730777 -1.32733 0
-0.836947 -0.257644 0
-1.93633 1.68088 0
-2.12592 2.87604 0
-1.30666 3.54496 0
-0.86951 1.35091 0
-0.282382 0.456073 0
-0.533569 8.87278 0
-1.25524 9.96445 0
1.11288 -4.575 0
3.91062 -6.71816 0
2.98827 -6.09552 0
2.11808 -5.42554 0
4.78507 -6.20619 0
-0.558893 -2.47698 0
0.495141 -3.4641 0
0.0535532 -1.61058 0
1.48201 -3.68247 0
5.86794 -6.61555 0
6.1376 -7.88353 0
-2.47593 5.34904 0
-2.13071 6.53528 0
-0.90418 7.80436 0
-1.2725 6.93297 0
0.0862299 7.88149 0
-1.14455 4.49512 0
0.150329 -0.617682 0
-0.797477 2.48867 0
-0.331669 3.60102 0
0.0631126 1.51282 0
0.741483 0.47345 0
0.64689 8.87547 0
0.0500185 10.05 0
2.38125 -4.28568 0
3.85969 -5.64122 0
3.00182 -5.21341 0
5.57461 -5.49265 0
4.6917 -5.28382 0
0.629714 -2.29352 0
1.25627 -2.95146 0
0.757545 -1.39154 0
2.16454 -3.13611 0
2.99409 -3.47696 0
6.15617 -4.79256 0
6.65661 -5.7702 0
7.12106 -7.02106 0
-1.01974 5.82106 0
-0.372659 6.88459 0
1.12282 7.77081 0
0.558073 7.0809 0
-0.000756664 4.72568 0
0.607065 3.82819 0
1.33901 -0.641936 0
0.539145 2.65126 0
0.966155 1.57505 0
1.91034 0.213886 0
1.61489 1.06511 0
2.12978 7.5849 0
1.79953 8.71386 0
1.35528 9.96446 0
3.82334 -4.35219 0
5.11741 -4.44974 0
5.84675 -3.93581 0
3.78447 -3.20145 0
1.81244 -1.88278 0
3.01949 -2.57417 0
6.78463 -3.94859 0
7.38278 -4.89767 0
7.98353 -6.03761 0
0.483437 5.88239 0
1.42843 6.7431 0
2.37479 6.67034 0
1.21014 4.55676 0
1.48835 3.39802 0
2.43604 -0.692085 0
2.82836 0.142624 0
1.78907 2.16307 0
2.61217 1.15028 0
3.07265 7.17157 0
2.90481 8.37847 0
2.63822 9.70927 0
4.91207 -3.32841 0
6.12187 -3.10927 0
4.17346 -2.27557 0
3.24484 -1.50308 0
6.73275 -2.3135 0
7.23362 -3.04318 0
7.96658 -3.91306 0
8.71025 -4.94999 0
2.02397 5.60078 0
3.08718 6.15493 0
2.36427 4.12753 0
2.42041 3.0613 0
3.52616 -0.460913 0
3.61622 0.613379 0
2.96224 2.2884 0
3.54612 1.52549 0
4.0132 5.89961 0
3.98554 6.795 0
3.97435 7.94078 0
3.87686 9.2888 0
5.56994 -1.91652 0
4.50997 -1.12978 0
6.71567 -1.33643 0
7.59461 -2.03694 0
8.39943 -2.86211 0
9.28879 -3.77683 0
3.41988 4.87808 0
3.33961 3.38599 0
4.69212 0.130107 0
4.52001 1.31022 0
4.06609 2.44426 0
4.57199 5.15406 0
4.8453 6.19283 0
4.98204 7.3828 0
5.05002 8.71026 0
5.88495 -0.434995 0
7.01313 -0.488379 0
7.76212 -1.08562 0
8.68762 -1.74647 0
9.70926 -2.53818 0
4.55369 3.82862 0
5.8194 1.0989 0
5.37279 2.53566 0
5.38211 4.62233 0
5.61432 5.52566 0
5.89937 6.67435 0
6.13764 7.98355 0
6.84863 0.463714 0
7.85637 -0.025633 0
8.86367 -0.584533 0
9.96445 -1.25524 0
6.96329 1.34999 0
5.72338 3.77996 0
6.5441 2.19838 0
6.38289 3.08929 0
6.29516 4.689 0
6.69583 5.84021 0
7.12109 7.12108 0
7.78766 0.968027 0
8.86302 0.572992 0
10.05 0.0500174 0
7.61957 2.00518 0
6.83227 3.90603 0
7.27284 2.94813 0
7.38149 4.88786 0
7.98355 6.13763 0
8.72662 1.72764 0
9.96446 1.35528 0
8.42455 2.83898 0
7.98504 3.91798 0
8.71027 5.05002 0
9.70927 2.63821 0
9.28881 3.87685 0
CELLS 542 2168
3 2 0 4
3 0 1 7
3 4 0 7
3 1 5 8
3 7 1 8
3 3 2 13
3 13 2 4
3 11 3 14
3 14 3 13
3 13 4 15
3 4 7 16
3 15 4 16
3 5 6 17
3 8 5 17
3 6 9 18
3 17 6 18
3 7 8 19
3 16 7 19
3 8 17 20
3 19 8 20
3 9 10 23
3 18 9 23
3 10 21 24
3 23 10 24
3 12 11 25
3 25 11 14
3 26 12 27
3 27 12 25
3 14 13 29
3 29 13 15
3 25 14 30
3 30 14 29
3 29 15 31
3 15 16 33
3 31 15 33
3 16 19 34
3 33 16 34
3 17 18 35
3 20 17 35
3 18 23 36
3 35 18 36
3 19 20 37
3 34 19 37
3 20 35 38
3 37 20 38
3 21 22 39
3 24 21 39
3 22 32 40
3 39 22 40
3 23 24 41
3 36 23 41
3 24 39 42
3 41 24 42
3 27 25 44
3 44 25 30
3 28 26 45
3 45 26 27
3 45 27 46
3 46 27 44
3 47 28 48
3 48 28 45
3 30 29 50
3 50 29 31
3 44 30 51
3 51 30 50
3 50 31 52
3 31 33 52
3 32 43 53
3 40 32 53
3 53 43 54
3 33 34 55
3 34 37 55
3 33 55 52
3 35 36 56
3 38 35 56
3 36 41 57
3 56 36 57
3 37 38 58
3 38 56 58
3 37 58 55
3 39 40 59
3 42 39 59
3 40 53 60
3 59 40 60
3 41 42 61
3 57 41 61
3 42 59 62
3 61 42 62
3 43 63 54
3 46 44 64
3 64 44 51
3 48 45 65
3 65 45 46
3 65 46 66
3 66 46 64
3 49 47 67
3 67 47 48
3 67 48 68
3 68 48 65
3 69 49 70
3 70 49 67
3 52 55 72
3 64 51 73
3 51 50 73
3 50 52 73
3 73 52 74
3 74 52 72
3 53 54 75
3 60 53 75
3 54 63 76
3 54 76 77
3 75 54 77
3 55 58 78
3 72 55 78
3 72 78 79
3 56 57 80
3 57 61 80
3 56 80 58
3 58 80 81
3 78 58 81
3 59 60 82
3 62 59 82
3 60 75 83
3 82 60 83
3 61 62 84
3 62 82 84
3 61 84 80
3 63 85 76
3 66 64 86
3 64 73 86
3 68 65 87
3 87 65 66
3 87 66 86
3 70 67 88
3 88 67 68
3 88 68 89
3 89 68 87
3 71 69 90
3 90 69 70
3 90 70 91
3 91 70 88
3 92 71 93
3 93 71 90
3 74 72 94
3 94 72 79
3 86 73 95
3 95 73 74
3 95 74 96
3 96 74 94
3 97 86 95
3 76 85 99
3 75 77 100
3 83 75 100
3 76 99 101
3 77 76 101
3 77 101 102
3 100 77 102
3 94 79 103
3 78 81 104
3 79 78 104
3 79 104 103
3 80 84 105
3 81 80 105
3 81 105 106
3 104 81 106
3 82 83 107
3 83 100 107
3 82 107 84
3 84 107 108
3 105 84 108
3 85 109 99
3 89 87 110
3 87 86 110
3 110 86 97
3 91 88 111
3 111 88 89
3 111 89 110
3 93 90 112
3 112 90 91
3 112 91 113
3 113 91 111
3 98 92 114
3 114 92 93
3 114 93 115
3 115 93 112
3 116 98 114
3 117 103 118
3 96 94 119
3 94 103 119
3 119 103 117
3 97 95 120
3 120 95 96
3 120 96 119
3 121 110 97
3 121 97 122
3 122 97 120
3 123 119 117
3 124 98 116
3 99 109 125
3 99 125 126
3 101 99 126
3 100 102 127
3 100 127 107
3 101 126 128
3 102 101 128
3 102 128 127
3 104 106 129
3 104 129 103
3 103 129 118
3 105 108 130
3 106 105 130
3 106 130 129
3 107 127 131
3 108 107 131
3 108 131 132
3 108 132 130
3 109 134 125
3 125 134 133
3 113 111 135
3 111 110 135
3 135 110 121
3 115 112 136
3 136 112 113
3 136 113 135
3 116 114 137
3 137 114 115
3 137 115 138
3 138 115 136
3 139 124 116
3 139 116 140
3 140 116 137
3 141 135 121
3 118 129 142
3 118 142 143
3 117 118 143
3 123 117 143
3 122 120 144
3 120 119 144
3 144 119 123
3 141 121 145
3 145 121 122
3 145 122 144
3 146 141 145
3 147 144 123
3 147 123 148
3 143 148 123
3 150 124 139
3 149 150 139
3 131 127 151
3 125 133 152
3 126 125 152
3 126 152 153
3 128 126 153
3 128 153 154
3 128 154 127
3 127 154 151
3 152 133 155
3 130 132 156
3 130 156 129
3 129 156 142
3 131 151 157
3 132 131 157
3 132 157 156
3 156 158 142
3 157 151 159
3 133 160 155
3 134 161 133
3 133 161 160
3 138 136 162
3 136 135 162
3 162 135 141
3 140 137 163
3 163 137 138
3 163 138 162
3 149 139 164
3 164 139 140
3 164 140 165
3 165 140 163
3 166 149 164
3 167 162 141
3 167 141 146
3 142 158 168
3 143 142 168
3 143 168 148
3 146 145 169
3 145 144 169
3 169 144 147
3 170 167 146
3 170 146 169
3 171 169 147
3 171 147 148
3 171 148 172
3 168 172 148
3 173 149 166
3 174 150 149
3 173 174 149
3 154 175 151
3 151 175 159
3 152 155 176
3 153 152 176
3 153 176 177
3 153 177 154
3 154 177 175
3 155 160 178
3 155 178 179
3 176 155 179
3 156 157 180
3 156 180 158
3 157 159 181
3 157 181 180
3 158 180 182
3 158 182 168
3 159 175 183
3 159 183 181
3 175 184 183
3 160 186 178
3 178 186 185
3 161 187 160
3 160 187 186
3 165 163 188
3 163 162 188
3 188 162 167
3 166 164 189
3 189 164 165
3 189 165 188
3 190 173 166
3 190 166 191
3 191 166 189
3 192 188 167
3 192 167 170
3 193 192 170
3 182 194 168
3 194 172 168
3 193 170 195
3 170 169 195
3 195 169 171
3 196 195 171
3 196 171 172
3 194 197 172
3 197 198 172
3 198 196 172
3 200 173 190
3 199 200 190
3 201 174 173
3 200 201 173
3 176 179 202
3 177 176 202
3 177 202 175
3 175 202 184
3 178 185 203
3 178 203 179
3 179 203 202
3 203 185 204
3 202 205 184
3 183 206 181
3 180 181 206
3 180 206 182
3 182 206 194
3 183 184 207
3 205 207 184
3 183 207 206
3 185 208 204
3 186 209 185
3 185 209 208
3 187 210 186
3 186 210 209
3 191 189 211
3 189 188 211
3 211 188 192
3 199 190 212
3 212 190 191
3 212 191 211
3 213 199 212
3 214 211 192
3 214 192 193
3 215 214 193
3 215 193 195
3 206 216 194
3 216 197 194
3 216 217 197
3 215 195 218
3 218 195 196
3 198 218 196
3 217 219 197
3 219 218 198
3 197 219 198
3 220 199 213
3 221 200 199
3 220 221 199
3 222 201 200
3 221 222 200
3 203 204 223
3 203 223 202
3 202 223 205
3 204 208 224
3 204 224 223
3 205 223 225
3 205 225 207
3 207 225 226
3 207 226 206
3 226 216 206
3 208 228 224
3 224 228 227
3 209 229 208
3 229 228 208
3 210 230 209
3 209 230 229
3 213 212 231
3 212 211 231
3 231 211 214
3 232 220 213
3 232 213 231
3 233 231 214
3 233 214 215
3 234 233 215
3 234 215 218
3 226 235 216
3 235 217 216
3 235 236 217
3 217 236 219
3 237 234 218
3 237 218 219
3 236 238 219
3 238 237 219
3 240 220 232
3 239 240 232
3 241 221 220
3 240 241 220
3 242 222 221
3 241 242 221
3 224 227 243
3 224 243 223
3 223 243 225
3 225 243 244
3 225 244 226
3 226 244 235
3 227 245 243
3 228 246 227
3 227 246 245
3 229 247 228
3 228 247 246
3 230 248 229
3 229 248 247
3 239 232 249
3 232 231 249
3 249 231 233
3 250 249 233
3 250 233 234
3 237 250 234
3 244 251 235
3 235 251 236
3 251 252 236
3 236 252 238
3 252 253 238
3 253 250 237
3 253 237 238
3 254 239 249
3 255 240 239
3 254 255 239
3 256 241 240
3 255 256 240
3 257 242 241
3 256 257 241
3 245 258 243
3 243 258 244
3 244 258 251
3 245 259 258
3 246 260 245
3 245 260 259
3 247 261 246
3 246 261 260
3 248 262 247
3 247 262 261
3 254 249 263
3 263 249 250
3 253 263 250
3 258 264 251
3 251 264 252
3 264 265 252
3 265 263 253
3 252 265 253
3 266 254 263
3 267 255 254
3 266 267 254
3 268 256 255
3 267 268 255
3 269 257 256
3 268 269 256
3 259 270 258
3 270 264 258
3 260 271 259
3 259 271 270
3 261 272 260
3 260 272 271
3 262 273 261
3 273 272 261
3 270 274 264
3 275 266 263
3 275 263 265
3 274 276 264
3 276 265 264
3 276 277 265
3 277 275 265
3 278 267 266
3 275 278 266
3 279 268 267
3 278 279 267
3 280 269 268
3 279 280 268
3 271 281 270
3 270 281 274
3 272 282 271
3 271 282 281
3 273 283 272
3 272 283 282
3 281 284 274
3 274 284 276
3 285 278 275
3 277 285 275
3 284 286 276
3 286 285 277
3 276 286 277
3 287 279 278
3 285 287 278
3 288 280 279
3 287 288 279
3 282 289 281
3 281 289 284
3 283 290 282
3 282 290 289
3 289 291 284
3 284 291 286
3 291 292 286
3 292 287 285
3 286 292 285
3 293 288 287
3 292 293 287
3 290 294 289
3 289 294 291
3 294 295 291
3 295 293 292
3 291 295 292
CELL_TYPES 542
5
5
5
5
5
5
5
5
5
5
5
5
5
5
5
5
5
5
5
5
5
5
5
5
5
5
5
5
5
5
5
5
5
5
5
5
5
5
5
5
5
5
5
5
5
5
5
5
5
5
5
5
5
5
5
5
5
5
5
5
5
5
5
5
5
5
5
5
5
5
5
5
5
5
5
5
5
5
5
5
5
5
5
5
5
5
5
5
5
5
5
5
5
5
5
5
5
5
5
5
5
5
5
5
5
5
5
5
5
5
5
5
5
5
5
5
5
5
5
5
5
5
5
5
5
5
5
5
5
5
5
5
5
5
5
5
5
5
5
5
5
5
5
5
5
5
5
5
5
5
5
5
5
5
5
5
5
5
5
5
5
5
5
5
5
5
5
5
5
5
5
5
5
5
5
5
5
5
5
5
5
5
5
5
5
5
5
5
5
5
5
5
5
5
5
5
5
5
5
5
5
5
5
5
5
5
5
5
5
5
5
5
5
5
5
5
5
5
5
5
5
5
5
5
5
5
5
5
5
5
5
5
5
5
5
5
5
5
5
5
5
5
5
5
5
5
5
5
5
5
5
5
5
5
5
5
5
5
5
5
5
5
5
5
5
5
5
5
5
5
5
5
5
5
5
5
5
5
5
5
5
5
5
5
5
5
5
5
5
5
5
5
5
5
5
5
5
5
5
5
5
5
5
5
5
5
5
5
5
5
5
5
5
5
5
5
5
5
5
5
5
5
5
5
5
5
5
5
5
5
5
5
5
5
5
5
5
5
5
5
5
5
5
5
5
5
5
5
5
5
5
5
5
5
5
5
5
5
5
5
5
5
5
5
5
5
5
5
5
5
5
5
5
5
5
5
5
5
5
5
5
5
5
5
5
5
5
5
5
5
5
5
5
5
5
5
5
5
5
5
5
5
5
5
5
5
5
5
5
5
5
5
5
5
5
5
5
5
5
5
5
5
5
5
5
5
5
5
5
5
5
5
5
5
5
5
5
5
5
5
5
5
5
5
5
5
5
5
5
5
5
5
5
5
5
5
5
5
5
5
5
5
5
5
5
5
5
5
5
5
5
5
5
5
5
5
5
5
5
5
5
5
5
5
5
5
5
5
5
5
5
5
5
5
5
5
5
5
5
5
5
5
5
5
5
5
5
5
5
5
5
5
5
5
5
5
5
5
5
5
5
5
5
5
5
5
5
5
5
5
5
5
5
5
5
5
5
5
5
5
5
5
POINT_DATA 296
SCALARS concentrations float 4
LOOKUP_TABLE default
0 1 0.0752725 0.0106654
0 1 0.075273 0.0107847
0 1 0.0752718 0.0104891
0 1 0.0752709 0.0102723
0 1 0.0752699 0.00938309
0 1 0.0752732 0.0108447
0 1 0.0752733 0.0108623
0 1 0.0752704 0.00951648
0 1 0.0752707 0.00959886
0 1 0.0752731 0.0108311
0 1 0.0752727 0.0107415
0 1 0.0752699 0.0100124
0 1 0.0752687 0.00970165
0 1 0.0752691 0.00919306
0 1 0.0752682 0.00894697
0 1 0.0752676 0.00826893
0 1 0.075268 0.00834824
0 1 0.0752708 0.00962831
0 1 0.0752708 0.00961912
0 1 0.0752685 0.00850016
0 1 0.0752686 0.0085129
0 1 0.0752721 0.0105883
0 1 0.0752713 0.0103872
0 1 0.0752705 0.00956504
0 1 0.0752701 0.00945282
0 1 0.0752672 0.00869614
0 1 0.0752674 0.0093764
0 1 0.0752661 0.00839769
0 1 0.0752662 0.00905528
0 1 0.0752667 0.00801566
0 1 0.0752659 0.00778941
0 1 0.0752657 0.00737094
0 1 0.0752703 0.0101381
0 1 0.0752657 0.00723686
0 1 0.0752666 0.00759264
0 1 0.0752687 0.00853319
0 1 0.0752685 0.0084881
0 1 0.0752664 0.00743098
0 1 0.0752669 0.00765497
0 1 0.0752695 0.00932885
0 1 0.0752687 0.00910435
0 1 0.0752682 0.00842277
0 1 0.0752677 0.00829347
0 1 0.0752691 0.00984253
0 1 0.0752649 0.00752521
0 1 0.075265 0.00812827
0 1 0.075264 0.00732689
0 1 0.075265 0.00877294
0 1 0.0752639 0.00785095
0 1 0.0752641 0.0085668
0 1 0.0752645 0.00689521
0 1 0.075264 0.0068582
0 1 0.0752633 0.00610673
0 1 0.0752677 0.00885329
0 1 0.0752665 0.00852958
0 1 0.0752642 0.00635398
0 1 0.0752665 0.00745524
0 1 0.0752667 0.00759387
0 1 0.0752645 0.00645404
0 1 0.0752671 0.00817834
0 1 0.0752665 0.00801518
0 1 0.0752659 0.00730796
0 1 0.0752659 0.00740698
0 1 0.0752678 0.00951703
0 1 0.0752629 0.00649742
0 1 0.075263 0.00704512
0 1 0.0752623 0.00648034
0 1 0.075263 0.00763639
0 1 0.0752621 0.00683387
0 1 0.0752635 0.00845218
0 1 0.0752623 0.00747923
0 1 0.0752635 0.00845184
0 1 0.0752612 0.0049258
0 1 0.075262 0.00573646
0 1 0.0752604 0.00471499
0 1 0.0752654 0.00772666
0 1 0.0752653 0.00825356
0 1 0.0752644 0.00746141
0 1 0.075262 0.00519816
0 1 0.0752598 0.00413613
0 1 0.0752643 0.00638091
0 1 0.0752619 0.00515416
0 1 0.0752648 0.00703243
0 1 0.0752645 0.007058
0 1 0.0752636 0.00623893
0 1 0.0752665 0.0091853
0 1 0.0752605 0.00537339
0 1 0.0752612 0.00606006
0 1 0.0752613 0.0066537
0 1 0.0752607 0.00603789
0 1 0.0752621 0.0074366
0 1 0.075261 0.00657973
0 1 0.0752641 0.00855502
0 1 0.0752623 0.00746399
0 1 0.0752587 0.00372733
0 1 0.0752591 0.00435017
0 1 0.0752583 0.00368812
0 1 0.0752582 0.00412437
0 1 0.075265 0.00873843
0 1 0.0752641 0.00795658
0 1 0.0752632 0.0065974
0 1 0.0752632 0.00715393
0 1 0.0752626 0.00658357
0 1 0.0752574 0.00293276
0 1 0.0752597 0.00401776
0 1 0.0752617 0.00514526
0 1 0.0752601 0.00424392
0 1 0.0752624 0.00590603
0 1 0.075261 0.00492054
0 1 0.0752652 0.00887738
0 1 0.0752592 0.00504785
0 1 0.07526 0.0057875
0 1 0.0752609 0.00654819
0 1 0.07526 0.00587388
0 1 0.075263 0.00759688
0 1 0.0752613 0.00662827
0 1 0.0752639 0.00776874
0 1 0.0752554 0.00187465
0 1 0.0752559 0.00207193
0 1 0.0752563 0.00253086
0 1 0.0752571 0.00325397
0 1 0.0752573 0.00388489
0 1 0.0752566 0.00321058
0 1 0.0752544 0.00146088
0 1 0.0752661 0.00897786
0 1 0.075263 0.00770545
0 1 0.0752621 0.00687432
0 1 0.075261 0.00557008
0 1 0.0752613 0.00610423
0 1 0.0752577 0.00302751
0 1 0.0752593 0.00393105
0 1 0.07526 0.00468637
0 1 0.0752589 0.00389417
0 1 0.0752621 0.00752548
0 1 0.075264 0.00863081
0 1 0.0752587 0.00493201
0 1 0.0752599 0.00574052
0 1 0.075262 0.00674808
0 1 0.0752606 0.00596267
0 1 0.0752649 0.00799951
0 1 0.0752628 0.0069282
0 1 0.0752574 0.00388702
0 1 0.0752554 0.00185243
0 1 0.0752542 0.00117589
0 1 0.0752552 0.00220245
0 1 0.075256 0.00296086
0 1 0.0752565 0.00315649
0 1 0.0752539 0.00131781
0 1 0.075253 0.000485052
0 1 0.0752658 0.00822029
0 1 0.0752673 0.00924193
0 1 0.0752588 0.00437416
0 1 0.0752612 0.00669291
0 1 0.0752604 0.00593027
0 1 0.0752596 0.00519653
0 1 0.0752606 0.0066125
0 1 0.0752569 0.00276793
0 1 0.0752574 0.00338376
0 1 0.0752549 0.00173138
0 1 0.0752571 0.00356271
0 1 0.0752616 0.00743075
0 1 0.0752632 0.00846206
0 1 0.0752591 0.00496825
0 1 0.075261 0.00593611
0 1 0.0752637 0.00711777
0 1 0.075262 0.00625415
0 1 0.0752646 0.00733553
0 1 0.075258 0.00396983
0 1 0.0752534 0.000775651
0 1 0.0752551 0.00215051
0 1 0.0752569 0.00313002
0 1 0.0752538 0.00121179
0 1 0.075253 0.000612747
0 1 0.0752668 0.00846256
0 1 0.0752684 0.00951647
0 1 0.0752578 0.00424389
0 1 0.0752597 0.00580479
0 1 0.0752591 0.00518193
0 1 0.0752604 0.00653913
0 1 0.0752595 0.00591387
0 1 0.0752554 0.00227184
0 1 0.0752561 0.00288748
0 1 0.075254 0.00145325
0 1 0.0752561 0.00324571
0 1 0.0752567 0.00383505
0 1 0.0752605 0.00653102
0 1 0.0752616 0.00739006
0 1 0.075263 0.00841979
0 1 0.0752602 0.00519611
0 1 0.0752625 0.0062726
0 1 0.0752653 0.00749855
0 1 0.0752636 0.00665311
0 1 0.075259 0.00423961
0 1 0.075258 0.0035282
0 1 0.0752534 0.00116736
0 1 0.075256 0.0023969
0 1 0.0752547 0.00161442
0 1 0.0752545 0.0016161
0 1 0.075255 0.0017127
0 1 0.0752661 0.00769607
0 1 0.0752677 0.00866691
0 1 0.0752695 0.00977438
0 1 0.0752581 0.0048389
0 1 0.0752592 0.00564368
0 1 0.0752598 0.0059078
0 1 0.075257 0.00409924
0 1 0.0752545 0.00217353
0 1 0.0752559 0.00327046
0 1 0.0752612 0.00665782
0 1 0.0752622 0.00750429
0 1 0.0752634 0.00847679
0 1 0.0752614 0.00546207
0 1 0.0752639 0.00660104
0 1 0.0752648 0.00693776
0 1 0.0752599 0.00443423
0 1 0.0752583 0.00349744
0 1 0.0752549 0.00208637
0 1 0.075256 0.00248085
0 1 0.0752567 0.00263085
0 1 0.0752567 0.00263786
0 1 0.0752665 0.00775727
0 1 0.0752684 0.00880968
0 1 0.0752704 0.00998987
0 1 0.0752584 0.00494258
0 1 0.0752602 0.0058325
0 1 0.0752573 0.00396091
0 1 0.0752559 0.00296182
0 1 0.0752614 0.00620683
0 1 0.075262 0.00679338
0 1 0.0752631 0.00765862
0 1 0.0752642 0.00862218
0 1 0.0752626 0.0057707
0 1 0.0752649 0.00683836
0 1 0.0752606 0.00463102
0 1 0.075259 0.00377907
0 1 0.0752568 0.00308043
0 1 0.0752578 0.00336188
0 1 0.0752587 0.00361793
0 1 0.0752587 0.00367537
0 1 0.0752657 0.00718628
0 1 0.0752671 0.00794235
0 1 0.075269 0.00896335
0 1 0.0752712 0.0101678
0 1 0.0752595 0.00507952
0 1 0.0752581 0.00401745
0 1 0.0752618 0.00612125
0 1 0.075263 0.00699534
0 1 0.075264 0.00784767
0 1 0.0752653 0.00883598
0 1 0.0752632 0.00593477
0 1 0.0752608 0.00469385
0 1 0.0752592 0.00428016
0 1 0.0752601 0.00448263
0 1 0.0752607 0.00464861
0 1 0.0752654 0.00696518
0 1 0.0752674 0.00799872
0 1 0.0752695 0.00909419
0 1 0.0752717 0.0103056
0 1 0.0752609 0.00535821
0 1 0.0752629 0.00646688
0 1 0.0752638 0.00715818
0 1 0.0752651 0.00806067
0 1 0.0752665 0.0091013
0 1 0.0752634 0.00596218
0 1 0.0752621 0.00565089
0 1 0.075263 0.00586522
0 1 0.0752658 0.00719291
0 1 0.0752675 0.00804226
0 1 0.0752697 0.00915502
0 1 0.0752721 0.0104009
0 1 0.0752634 0.00647922
0 1 0.0752648 0.00738426
0 1 0.0752662 0.00831907
0 1 0.0752677 0.00938104
0 1 0.0752644 0.00685876
0 1 0.0752652 0.00690809
0 1 0.0752646 0.00679313
0 1 0.0752654 0.00708877
0 1 0.0752674 0.00799375
0 1 0.0752697 0.0091392
0 1 0.0752723 0.0104451
0 1 0.0752655 0.00755506
0 1 0.0752671 0.00853821
0 1 0.0752689 0.00964866
0 1 0.0752663 0.00775018
0 1 0.0752672 0.00796134
0 1 0.0752668 0.00784205
0 1 0.0752694 0.00905918
0 1 0.0752722 0.0104251
0 1 0.075268 0.00874655
0 1 0.0752699 0.00989057
0 1 0.0752687 0.00889313
0 1 0.0752692 0.00901704
0 1 0.0752719 0.0103413
0 1 0.0752708 0.0100863
0 1 0.0752714 0.0102256
VECTORS fa_u float
0.00602956 0.00249752 -0
0.00565199 0.00326317 -0
0.00630396 0.00168913 -0
0.00647048 0.000851844 -0
1e-08 0 0
0.00517771 0.00397299 -0
0.00461483 0.00461483 -0
1e-08 0 0
1e-08 0 0
0.003973 0.00517771 -0
0.00326317 0.00565199 -0
0.00652631 -1.14503e-08 -0
0.00647048 -0.00085187 0
1e-08 0 0
1e-08 0 0
1e-08 0 0
1e-08 0 0
1e-08 0 0
1e-08 0 0
1e-08 0 0
1e-08 0 0
0.00249751 0.00602955 -0
0.00168913 0.00630397 -0
1e-08 0 0
1e-08 0 0
1e-08 0 0
0.00630391 -0.00168914 0
1e-08 0 0
0.00602947 -0.0024975 0
1e-08 0 0
1e-08 0 0
1e-08 0 0
0.00085185 0.00647051 -0
1e-08 0 0
1e-08 0 0
1e-08 0 0
1e-08 0 0
1e-08 0 0
1e-08 0 0
1e-08 0 0
1e-08 0 0
1e-08 0 0
1e-08 0 0
-1.13572e-08 0.0065263 -0
1e-08 0 0
1e-08 0 0
1e-08 0 0
0.0056519 -0.00326314 0
1e-08 0 0
0.00517762 -0.00397293 0
1e-08 0 0
1e-08 0 0
1e-08 0 0
1e-08 0 0
1e-08 0 0
1e-08 0 0
1e-08 0 0
1e-08 0 0
1e-08 0 0
1e-08 0 0
1e-08 0 0
1e-08 0 0
1e-08 0 0
-0.000851861 0.00647045 0
1e-08 0 0
1e-08 0 0
1e-08 0 0
1e-08 0 0
1e-08 0 0
0.00461475 -0.00461476 0
1e-08 0 0
0.00397293 -0.00517762 0
1e-08 0 0
1e-08 0 0
1e-08 0 0
1e-08 0 0
1e-08 0 0
1e-08 0 0
1e-08 0 0
1e-08 0 0
1e-08 0 0
1e-08 0 0
1e-08 0 0
1e-08 0 0
1e-08 0 0
-0.00168913 0.00630389 0
1e-08 0 0
1e-08 0 0
1e-08 0 0
1e-08 0 0
1e-08 0 0
1e-08 0 0
0.00326313 -0.0056519 0
1e-08 0 0
1e-08 0 0
1e-08 0 0
1e-08 0 0
1e-08 0 0
0.00249749 -0.00602947 0
1e-08 0 0
1e-08 0 0
1e-08 0 0
1e-08 0 0
1e-08 0 0
1e-08 0 0
1e-08 0 0
1e-08 0 0
1e-08 0 0
1e-08 0 0
-0.0024975 0.00602947 0
1e-08 0 0
1e-08 0 0
1e-08 0 0
1e-08 0 0
1e-08 0 0
1e-08 0 0
1e-08 0 0
1e-08 0 0
1e-08 0 0
1e-08 0 0
1e-08 0 0
1e-08 0 0
1e-08 0 0
1e-08 0 0
0.00168913 -0.00630389 0
1e-08 0 0
1e-08 0 0
1e-08 0 0
1e-08 0 0
1e-08 0 0
1e-08 0 0
1e-08 0 0
1e-08 0 0
1e-08 0 0
-0.00326313 0.0056519 0
1e-08 0 0
1e-08 0 0
1e-08 0 0
1e-08 0 0
1e-08 0 0
1e-08 0 0
1e-08 0 0
1e-08 0 0
1e-08 0 0
1e-08 0 0
1e-08 0 0
1e-08 0 0
1e-08 0 0
1e-08 0 0
1e-08 0 0
0.000851862 -0.00647045 0
1e-08 0 0
1e-08 0 0
1e-08 0 0
1e-08 0 0
1e-08 0 0
1e-08 0 0
1e-08 0 0
1e-08 0 0
1e-08 0 0
1e-08 0 0
-0.00397293 0.00517762 0
1e-08 0 0
1e-08 0 0
1e-08 0 0
1e-08 0 0
1e-08 0 0
1e-08 0 0
1e-08 0 0
1e-08 0 0
1e-08 0 0
1e-08 0 0
1e-08 0 0
1e-08 0 0
1.14147e-08 -0.0065263 0
1e-08 0 0
1e-08 0 0
1e-08 0 0
1e-08 0 0
1e-08 0 0
1e-08 0 0
1e-08 0 0
1e-08 0 0
1e-08 0 0
1e-08 0 0
1e-08 0 0
1e-08 0 0
-0.00461475 0.00461475 0
1e-08 0 0
1e-08 0 0
1e-08 0 0
1e-08 0 0
1e-08 0 0
1e-08 0 0
1e-08 0 0
1e-08 0 0
1e-08 0 0
1e-08 0 0
1e-08 0 0
1e-08 0 0
1e-08 0 0
-0.000851851 -0.00647051 0
1e-08 0 0
1e-08 0 0
1e-08 0 0
1e-08 0 0
1e-08 0 0
1e-08 0 0
1e-08 0 0
1e-08 0 0
-0.00517762 0.00397293 0
1e-08 0 0
1e-08 0 0
1e-08 0 0
1e-08 0 0
1e-08 0 0
1e-08 0 0
1e-08 0 0
1e-08 0 0
1e-08 0 0
1e-08 0 0
1e-08 0 0
-0.00168913 -0.00630397 0
1e-08 0 0
1e-08 0 0
1e-08 0 0
1e-08 0 0
1e-08 0 0
1e-08 0 0
1e-08 0 0
-0.00565189 0.00326313 0
1e-08 0 0
1e-08 0 0
1e-08 0 0
1e-08 0 0
1e-08 0 0
1e-08 0 0
1e-08 0 0
1e-08 0 0
1e-08 0 0
1e-08 0 0
1e-08 0 0
-0.00249751 -0.00602955 0
1e-08 0 0
1e-08 0 0
1e-08 0 0
1e-08 0 0
1e-08 0 0
-0.00602947 0.0024975 0
1e-08 0 0
1e-08 0 0
1e-08 0 0
1e-08 0 0
1e-08 0 0
1e-08 0 0
1e-08 0 0
1e-08 0 0
-0.00326317 -0.00565198 0
1e-08 0 0
1e-08 0 0
1e-08 0 0
1e-08 0 0
-0.00630391 0.00168914 0
1e-08 0 0
1e-08 0 0
1e-08 0 0
1e-08 0 0
1e-08 0 0
1e-08 0 0
-0.00397299 -0.00517771 0
1e-08 0 0
1e-08 0 0
1e-08 0 0
-0.00647048 0.000851869 0
1e-08 0 0
1e-08 0 0
1e-08 0 0
1e-08 0 0
1e-08 0 0
1e-08 0 0
-0.00461484 -0.00461484 0
1e-08 0 0
1e-08 0 0
-0.0065263 1.15501e-08 0
1e-08 0 0
1e-08 0 0
1e-08 0 0
1e-08 0 0
-0.00517771 -0.00397299 0
1e-08 0 0
-0.00647049 -0.000851845 0
1e-08 0 0
1e-08 0 0
-0.00565199 -0.00326317 0
-0.00630396 -0.00168913 0
-0.00602956 -0.00249751 0
