# vtk DataFile Version 2.0
CellBP Time: 0.189
ASCII
DATASET UNSTRUCTURED_GRID
POINTS 296 double
-9.18881 -3.77686 0
-8.61027 -4.95002 0
-9.60927 -2.53821 0
-9.86446 -1.25529 0
-8.35807 -2.81889 0
-7.88356 -6.03763 0
-7.02109 -7.02109 0
-7.91771 -3.87496 0
-7.34313 -4.86816 0
-6.03764 -7.88355 0
-4.95003 -8.61027 0
-9.95001 0.0499746 0
-9.86445 1.35524 0
-8.65818 -1.68406 0
-8.78682 -0.529677 0
-7.5902 -2.00429 0
-7.22624 -2.90669 0
-6.63808 -5.77927 0
-5.82281 -6.59735 0
-6.79075 -3.88919 0
-6.22102 -4.67626 0
-3.77686 -9.18881 0
-2.53822 -9.60927 0
-4.90682 -7.30931 0
-3.91329 -7.88677 0
-8.79327 0.643413 0
-9.60926 2.63818 0
-8.62379 1.77416 0
-9.18879 3.87682 0
-7.74481 -0.929059 0
-7.79504 0.0802397 0
-6.95303 -1.31598 0
-1.25529 -9.86446 0
-6.44192 -2.15328 0
-6.31982 -3.05635 0
-5.53694 -5.47497 0
-4.79627 -6.11593 0
-5.65943 -3.75728 0
-5.26978 -4.56193 0
-2.86639 -8.36451 0
-1.7787 -8.64084 0
-3.92844 -6.72406 0
-3.05686 -7.15314 0
0.0499761 -9.95 0
-7.70604 1.14357 0
-8.33912 2.91559 0
-7.55244 2.11209 0
-8.61025 5.04998 0
-7.88059 3.97848 0
-7.88352 6.1376 0
-6.77917 -0.396899 0
-6.95704 0.552564 0
-5.77177 -1.00348 0
-0.590899 -8.81034 0
0.565701 -8.77152 0
-5.30347 -2.48044 0
-4.4923 -5.09611 0
-3.9028 -5.77576 0
-4.43921 -3.80501 0
-2.06259 -7.56254 0
-1.13559 -7.78646 0
-2.99479 -6.10253 0
-2.30921 -6.62031 0
1.35524 -9.86445 0
-6.68995 1.42213 0
-7.17274 3.11834 0
-6.65977 2.37317 0
-7.29527 4.98902 0
-6.71862 4.00336 0
-7.02105 7.12106 0
-6.573 5.8946 0
-6.0376 7.98352 0
-4.45338 -1.18115 0
-5.81499 0.513777 0
-4.65645 -0.0103942 0
0.00850327 -7.84876 0
1.73868 -8.6445 0
0.949025 -7.7641 0
-4.03877 -2.40654 0
-3.48576 -1.39129 0
-3.29475 -4.80568 0
-3.26608 -3.268 0
-1.37871 -6.67601 0
-0.508798 -7.02554 0
-1.97571 -5.53743 0
2.63817 -9.60926 0
-5.50773 2.03706 0
-6.09523 3.07245 0
-6.10564 4.87007 0
-5.76225 3.99182 0
-5.76181 6.71774 0
-5.45265 5.6199 0
-4.94998 8.71025 0
-4.83891 7.40527 0
-3.50171 -0.424339 0
-4.4496 1.24911 0
-3.7117 0.5921 0
-4.06244 2.31997 0
-3.77681 9.28879 0
2.86285 -8.33363 0
0.419711 -6.79607 0
2.0222 -7.52659 0
1.3062 -6.90625 0
-2.44482 -0.873872 0
-2.83856 -2.13127 0
-2.29457 -4.09766 0
-2.3258 -2.9738 0
-0.442435 -5.86166 0
-1.22282 -4.49946 0
3.87681 -9.18879 0
-4.79019 3.39207 0
-5.08844 4.5946 0
-4.64766 6.28212 0
-4.53934 5.3603 0
-3.84413 7.99422 0
-3.82716 6.84648 0
-2.78359 8.42376 0
-1.64915 -0.137912 0
-1.45035 -0.890645 0
-2.48927 0.50728 0
-3.25384 1.44424 0
-3.23927 3.31681 0
-2.91118 2.37192 0
-1.35518 0.627139 0
-2.53817 9.70926 0
3.93311 -7.88784 0
2.96486 -7.15855 0
0.954165 -5.82257 0
2.07455 -6.41622 0
-1.68308 -1.99219 0
-1.43453 -3.27801 0
0.0902154 -4.74737 0
-0.566222 -3.69469 0
4.9327 -7.31964 0
5.04998 -8.61025 0
-3.7773 4.55204 0
-3.73517 5.75279 0
-2.88831 7.29075 0
-3.01004 6.35447 0
-1.66273 8.7347 0
-1.94033 7.6203 0
-2.33856 4.052 0
-0.730777 -1.32733 0
-0.836947 -0.257644 0
-1.93633 1.68088 0
-2.12591 2.87604 0
-1.30666 3.54496 0
-0.869509 1.35091 0
-0.282381 0.456073 0
-0.533562 8.87278 0
-1.25524 9.96445 0
1.11287 -4.575 0
3.91062 -6.71816 0
2.98827 -6.09551 0
2.11807 -5.42554 0
4.78506 -6.20618 0
-0.558894 -2.47698 0
0.49514 -3.4641 0
0.0535527 -1.61058 0
1.48201 -3.68247 0
5.86794 -6.61554 0
6.1376 -7.88352 0
-2.47593 5.34904 0
-2.1307 6.53528 0
-0.904174 7.80436 0
-1.2725 6.93297 0
0.0862359 7.88149 0
-1.14455 4.49512 0
0.150329 -0.617682 0
-0.797475 2.48867 0
-0.331666 3.60102 0
0.0631141 1.51282 0
0.741483 0.473451 0
0.646897 8.87547 0
0.0500261 10.05 0
2.38124 -4.28568 0
3.85969 -5.64121 0
3.00182 -5.2134 0
5.57461 -5.49265 0
4.6917 -5.28382 0
0.629713 -2.29352 0
1.25627 -2.95146 0
0.757545 -1.39154 0
2.16454 -3.13611 0
2.99409 -3.47696 0
6.15617 -4.79256 0
6.65661 -5.7702 0
7.12105 -7.02106 0
-1.01974 5.82105 0
-0.372653 6.88459 0
1.12283 7.77081 0
0.558078 7.0809 0
-0.000752923 4.72568 0
0.607068 3.82819 0
1.33901 -0.641935 0
0.539147 2.65126 0
0.966156 1.57505 0
1.91034 0.213887 0
1.61489 1.06511 0
2.12979 7.5849 0
1.79954 8.71386 0
1.35529 9.96446 0
3.82333 -4.35218 0
5.11741 -4.44974 0
5.84675 -3.93581 0
3.78447 -3.20145 0
1.81244 -1.88278 0
3.01949 -2.57417 0
6.78463 -3.94859 0
7.38277 -4.89767 0
7.98352 -6.0376 0
0.483441 5.88239 0
1.42844 6.7431 0
2.3748 6.67034 0
1.21014 4.55676 0
1.48835 3.39802 0
2.43604 -0.692083 0
2.82836 0.142626 0
1.78907 2.16307 0
2.61217 1.15028 0
3.07266 7.17157 0
2.90481 8.37847 0
2.63823 9.70927 0
4.91207 -3.32841 0
6.12187 -3.10926 0
4.17346 -2.27556 0
3.24484 -1.50307 0
6.73275 -2.3135 0
7.23362 -3.04317 0
7.96658 -3.91306 0
8.71025 -4.94999 0
2.02397 5.60078 0
3.08718 6.15494 0
2.36427 4.12753 0
2.42041 3.0613 0
3.52616 -0.46091 0
3.61622 0.613381 0
2.96225 2.2884 0
3.54612 1.5255 0
4.0132 5.89961 0
3.98555 6.79501 0
3.97436 7.94079 0
3.87687 9.28881 0
5.56994 -1.91652 0
4.50997 -1.12977 0
6.71567 -1.33642 0
7.59461 -2.03694 0
8.39943 -2.8621 0
9.28879 -3.77682 0
3.41989 4.87809 0
3.33961 3.38599 0
4.69212 0.13011 0
4.52002 1.31022 0
4.06609 2.44427 0
4.572 5.15407 0
4.8453 6.19283 0
4.98204 7.3828 0
5.05003 8.71027 0
5.88495 -0.434991 0
7.01313 -0.488374 0
7.76211 -1.08561 0
8.68762 -1.74646 0
9.70926 -2.53818 0
4.5537 3.82863 0
5.8194 1.0989 0
5.3728 2.53567 0
5.38212 4.62233 0
5.61433 5.52567 0
5.89937 6.67436 0
6.13764 7.98355 0
6.84863 0.463719 0
7.85637 -0.0256275 0
8.86367 -0.584527 0
9.96445 -1.25524 0
6.96329 1.35 0
5.72338 3.77997 0
6.5441 2.19839 0
6.38289 3.08929 0
6.29517 4.689 0
6.69583 5.84022 0
7.12109 7.12109 0
7.78766 0.968032 0
8.86302 0.572998 0
10.05 0.0500246 0
7.61957 2.00519 0
6.83227 3.90604 0
7.27284 2.94813 0
7.38149 4.88787 0
7.98356 6.13763 0
8.72663 1.72764 0
9.96446 1.35529 0
8.42455 2.83898 0
7.98504 3.91798 0
8.71028 5.05002 0
9.70927 2.63821 0
9.28881 3.87686 0
CELLS 542 2168
3 2 0 4
3 0 1 7
3 4 0 7
3 1 5 8
3 7 1 8
3 3 2 13
3 13 2 4
3 11 3 14
3 14 3 13
3 13 4 15
3 4 7 16
3 15 4 16
3 5 6 17
3 8 5 17
3 6 9 18
3 17 6 18
3 7 8 19
3 16 7 19
3 8 17 20
3 19 8 20
3 9 10 23
3 18 9 23
3 10 21 24
3 23 10 24
3 12 11 25
3 25 11 14
3 26 12 27
3 27 12 25
3 14 13 29
3 29 13 15
3 25 14 30
3 30 14 29
3 29 15 31
3 15 16 33
3 31 15 33
3 16 19 34
3 33 16 34
3 17 18 35
3 20 17 35
3 18 23 36
3 35 18 36
3 19 20 37
3 34 19 37
3 20 35 38
3 37 20 38
3 21 22 39
3 24 21 39
3 22 32 40
3 39 22 40
3 23 24 41
3 36 23 41
3 24 39 42
3 41 24 42
3 27 25 44
3 44 25 30
3 28 26 45
3 45 26 27
3 45 27 46
3 46 27 44
3 47 28 48
3 48 28 45
3 30 29 50
3 50 29 31
3 44 30 51
3 51 30 50
3 50 31 52
3 31 33 52
3 32 43 53
3 40 32 53
3 53 43 54
3 33 34 55
3 34 37 55
3 33 55 52
3 35 36 56
3 38 35 56
3 36 41 57
3 56 36 57
3 37 38 58
3 38 56 58
3 37 58 55
3 39 40 59
3 42 39 59
3 40 53 60
3 59 40 60
3 41 42 61
3 57 41 61
3 42 59 62
3 61 42 62
3 43 63 54
3 46 44 64
3 64 44 51
3 48 45 65
3 65 45 46
3 65 46 66
3 66 46 64
3 49 47 67
3 67 47 48
3 67 48 68
3 68 48 65
3 69 49 70
3 70 49 67
3 52 55 72
3 64 51 73
3 51 50 73
3 50 52 73
3 73 52 74
3 74 52 72
3 53 54 75
3 60 53 75
3 54 63 76
3 54 76 77
3 75 54 77
3 55 58 78
3 72 55 78
3 72 78 79
3 56 57 80
3 57 61 80
3 56 80 58
3 58 80 81
3 78 58 81
3 59 60 82
3 62 59 82
3 60 75 83
3 82 60 83
3 61 62 84
3 62 82 84
3 61 84 80
3 63 85 76
3 66 64 86
3 64 73 86
3 68 65 87
3 87 65 66
3 87 66 86
3 70 67 88
3 88 67 68
3 88 68 89
3 89 68 87
3 71 69 90
3 90 69 70
3 90 70 91
3 91 70 88
3 92 71 93
3 93 71 90
3 74 72 94
3 94 72 79
3 86 73 95
3 95 73 74
3 95 74 96
3 96 74 94
3 97 86 95
3 76 85 99
3 75 77 100
3 83 75 100
3 76 99 101
3 77 76 101
3 77 101 102
3 100 77 102
3 94 79 103
3 78 81 104
3 79 78 104
3 79 104 103
3 80 84 105
3 81 80 105
3 81 105 106
3 104 81 106
3 82 83 107
3 83 100 107
3 82 107 84
3 84 107 108
3 105 84 108
3 85 109 99
3 89 87 110
3 87 86 110
3 110 86 97
3 91 88 111
3 111 88 89
3 111 89 110
3 93 90 112
3 112 90 91
3 112 91 113
3 113 91 111
3 98 92 114
3 114 92 93
3 114 93 115
3 115 93 112
3 116 98 114
3 117 103 118
3 96 94 119
3 94 103 119
3 119 103 117
3 97 95 120
3 120 95 96
3 120 96 119
3 121 110 97
3 121 97 122
3 122 97 120
3 123 119 117
3 124 98 116
3 99 109 125
3 99 125 126
3 101 99 126
3 100 102 127
3 100 127 107
3 101 126 128
3 102 101 128
3 102 128 127
3 104 106 129
3 104 129 103
3 103 129 118
3 105 108 130
3 106 105 130
3 106 130 129
3 107 127 131
3 108 107 131
3 108 131 132
3 108 132 130
3 109 134 125
3 125 134 133
3 113 111 135
3 111 110 135
3 135 110 121
3 115 112 136
3 136 112 113
3 136 113 135
3 116 114 137
3 137 114 115
3 137 115 138
3 138 115 136
3 139 124 116
3 139 116 140
3 140 116 137
3 141 135 121
3 118 129 142
3 118 142 143
3 117 118 143
3 123 117 143
3 122 120 144
3 120 119 144
3 144 119 123
3 141 121 145
3 145 121 122
3 145 122 144
3 146 141 145
3 147 144 123
3 147 123 148
3 143 148 123
3 150 124 139
3 149 150 139
3 131 127 151
3 125 133 152
3 126 125 152
3 126 152 153
3 128 126 153
3 128 153 154
3 128 154 127
3 127 154 151
3 152 133 155
3 130 132 156
3 130 156 129
3 129 156 142
3 131 151 157
3 132 131 157
3 132 157 156
3 156 158 142
3 157 151 159
3 133 160 155
3 134 161 133
3 133 161 160
3 138 136 162
3 136 135 162
3 162 135 141
3 140 137 163
3 163 137 138
3 163 138 162
3 149 139 164
3 164 139 140
3 164 140 165
3 165 140 163
3 166 149 164
3 167 162 141
3 167 141 146
3 142 158 168
3 143 142 168
3 143 168 148
3 146 145 169
3 145 144 169
3 169 144 147
3 170 167 146
3 170 146 169
3 171 169 147
3 171 147 148
3 171 148 172
3 168 172 148
3 173 149 166
3 174 150 149
3 173 174 149
3 154 175 151
3 151 175 159
3 152 155 176
3 153 152 176
3 153 176 177
3 153 177 154
3 154 177 175
3 155 160 178
3 155 178 179
3 176 155 179
3 156 157 180
3 156 180 158
3 157 159 181
3 157 181 180
3 158 180 182
3 158 182 168
3 159 175 183
3 159 183 181
3 175 184 183
3 160 186 178
3 178 186 185
3 161 187 160
3 160 187 186
3 165 163 188
3 163 162 188
3 188 162 167
3 166 164 189
3 189 164 165
3 189 165 188
3 190 173 166
3 190 166 191
3 191 166 189
3 192 188 167
3 192 167 170
3 193 192 170
3 182 194 168
3 194 172 168
3 193 170 195
3 170 169 195
3 195 169 171
3 196 195 171
3 196 171 172
3 194 197 172
3 197 198 172
3 198 196 172
3 200 173 190
3 199 200 190
3 201 174 173
3 200 201 173
3 176 179 202
3 177 176 202
3 177 202 175
3 175 202 184
3 178 185 203
3 178 203 179
3 179 203 202
3 203 185 204
3 202 205 184
3 183 206 181
3 180 181 206
3 180 206 182
3 182 206 194
3 183 184 207
3 205 207 184
3 183 207 206
3 185 208 204
3 186 209 185
3 185 209 208
3 187 210 186
3 186 210 209
3 191 189 211
3 189 188 211
3 211 188 192
3 199 190 212
3 212 190 191
3 212 191 211
3 213 199 212
3 214 211 192
3 214 192 193
3 215 214 193
3 215 193 195
3 206 216 194
3 216 197 194
3 216 217 197
3 215 195 218
3 218 195 196
3 198 218 196
3 217 219 197
3 219 218 198
3 197 219 198
3 220 199 213
3 221 200 199
3 220 221 199
3 222 201 200
3 221 222 200
3 203 204 223
3 203 223 202
3 202 223 205
3 204 208 224
3 204 224 223
3 205 223 225
3 205 225 207
3 207 225 226
3 207 226 206
3 226 216 206
3 208 228 224
3 224 228 227
3 209 229 208
3 229 228 208
3 210 230 209
3 209 230 229
3 213 212 231
3 212 211 231
3 231 211 214
3 232 220 213
3 232 213 231
3 233 231 214
3 233 214 215
3 234 233 215
3 234 215 218
3 226 235 216
3 235 217 216
3 235 236 217
3 217 236 219
3 237 234 218
3 237 218 219
3 236 238 219
3 238 237 219
3 240 220 232
3 239 240 232
3 241 221 220
3 240 241 220
3 242 222 221
3 241 242 221
3 224 227 243
3 224 243 223
3 223 243 225
3 225 243 244
3 225 244 226
3 226 244 235
3 227 245 243
3 228 246 227
3 227 246 245
3 229 247 228
3 228 247 246
3 230 248 229
3 229 248 247
3 239 232 249
3 232 231 249
3 249 231 233
3 250 249 233
3 250 233 234
3 237 250 234
3 244 251 235
3 235 251 236
3 251 252 236
3 236 252 238
3 252 253 238
3 253 250 237
3 253 237 238
3 254 239 249
3 255 240 239
3 254 255 239
3 256 241 240
3 255 256 240
3 257 242 241
3 256 257 241
3 245 258 243
3 243 258 244
3 244 258 251
3 245 259 258
3 246 260 245
3 245 260 259
3 247 261 246
3 246 261 260
3 248 262 247
3 247 262 261
3 254 249 263
3 263 249 250
3 253 263 250
3 258 264 251
3 251 264 252
3 264 265 252
3 265 263 253
3 252 265 253
3 266 254 263
3 267 255 254
3 266 267 254
3 268 256 255
3 267 268 255
3 269 257 256
3 268 269 256
3 259 270 258
3 270 264 258
3 260 271 259
3 259 271 270
3 261 272 260
3 260 272 271
3 262 273 261
3 273 272 261
3 270 274 264
3 275 266 263
3 275 263 265
3 274 276 264
3 276 265 264
3 276 277 265
3 277 275 265
3 278 267 266
3 275 278 266
3 279 268 267
3 278 279 267
3 280 269 268
3 279 280 268
3 271 281 270
3 270 281 274
3 272 282 271
3 271 282 281
3 273 283 272
3 272 283 282
3 281 284 274
3 274 284 276
3 285 278 275
3 277 285 275
3 284 286 276
3 286 285 277
3 276 286 277
3 287 279 278
3 285 287 278
3 288 280 279
3 287 288 279
3 282 289 281
3 281 289 284
3 283 290 282
3 282 290 289
3 289 291 284
3 284 291 286
3 291 292 286
3 292 287 285
3 286 292 285
3 293 288 287
3 292 293 287
3 290 294 289
3 289 294 291
3 294 295 291
3 295 293 292
3 291 295 292
CELL_TYPES 542
5
5
5
5
5
5
5
5
5
5
5
5
5
5
5
5
5
5
5
5
5
5
5
5
5
5
5
5
5
5
5
5
5
5
5
5
5
5
5
5
5
5
5
5
5
5
5
5
5
5
5
5
5
5
5
5
5
5
5
5
5
5
5
5
5
5
5
5
5
5
5
5
5
5
5
5
5
5
5
5
5
5
5
5
5
5
5
5
5
5
5
5
5
5
5
5
5
5
5
5
5
5
5
5
5
5
5
5
5
5
5
5
5
5
5
5
5
5
5
5
5
5
5
5
5
5
5
5
5
5
5
5
5
5
5
5
5
5
5
5
5
5
5
5
5
5
5
5
5
5
5
5
5
5
5
5
5
5
5
5
5
5
5
5
5
5
5
5
5
5
5
5
5
5
5
5
5
5
5
5
5
5
5
5
5
5
5
5
5
5
5
5
5
5
5
5
5
5
5
5
5
5
5
5
5
5
5
5
5
5
5
5
5
5
5
5
5
5
5
5
5
5
5
5
5
5
5
5
5
5
5
5
5
5
5
5
5
5
5
5
5
5
5
5
5
5
5
5
5
5
5
5
5
5
5
5
5
5
5
5
5
5
5
5
5
5
5
5
5
5
5
5
5
5
5
5
5
5
5
5
5
5
5
5
5
5
5
5
5
5
5
5
5
5
5
5
5
5
5
5
5
5
5
5
5
5
5
5
5
5
5
5
5
5
5
5
5
5
5
5
5
5
5
5
5
5
5
5
5
5
5
5
5
5
5
5
5
5
5
5
5
5
5
5
5
5
5
5
5
5
5
5
5
5
5
5
5
5
5
5
5
5
5
5
5
5
5
5
5
5
5
5
5
5
5
5
5
5
5
5
5
5
5
5
5
5
5
5
5
5
5
5
5
5
5
5
5
5
5
5
5
5
5
5
5
5
5
5
5
5
5
5
5
5
5
5
5
5
5
5
5
5
5
5
5
5
5
5
5
5
5
5
5
5
5
5
5
5
5
5
5
5
5
5
5
5
5
5
5
5
5
5
5
5
5
5
5
5
5
5
5
5
5
5
5
5
5
5
5
5
5
5
5
5
5
5
5
5
5
5
5
5
5
5
5
5
5
5
5
5
5
5
5
5
5
5
5
5
5
5
5
5
5
5
5
5
5
5
5
5
5
5
5
5
5
5
5
5
5
5
5
5
5
5
5
5
5
5
5
5
5
5
5
5
5
5
5
5
5
5
5
5
POINT_DATA 296
SCALARS concentrations float 4
LOOKUP_TABLE default
0 1 0.0795503 0.01265
0 1 0.0795507 0.0125827
0 1 0.0795498 0.0127192
0 1 0.0795491 0.0127813
0 1 0.0795466 0.0111816
0 1 0.0795508 0.0125127
0 1 0.0795508 0.012478
0 1 0.079547 0.0111234
0 1 0.0795473 0.011064
0 1 0.0795507 0.0124707
0 1 0.0795503 0.0124873
0 1 0.0795482 0.0128131
0 1 0.0795472 0.0128005
0 1 0.0795461 0.0112274
0 1 0.0795453 0.0112325
0 1 0.0795434 0.00991664
0 1 0.0795437 0.00979797
0 1 0.0795473 0.0110086
0 1 0.0795472 0.010982
0 1 0.0795441 0.00979863
0 1 0.0795441 0.0097048
0 1 0.0795498 0.0125019
0 1 0.0795491 0.0125243
0 1 0.079547 0.01098
0 1 0.0795466 0.0109806
0 1 0.0795445 0.0112575
0 1 0.0795461 0.0127581
0 1 0.0795435 0.0112177
0 1 0.079545 0.0127045
0 1 0.0795427 0.00988368
0 1 0.079542 0.009892
0 1 0.0795409 0.00892012
0 1 0.0795482 0.0125219
0 1 0.0795405 0.00851683
0 1 0.0795415 0.00877628
0 1 0.0795442 0.00967596
0 1 0.079544 0.0096372
0 1 0.079541 0.00844379
0 1 0.0795417 0.0086403
0 1 0.0795461 0.0110306
0 1 0.0795454 0.0109968
0 1 0.0795437 0.00964391
0 1 0.0795433 0.00962386
0 1 0.0795471 0.012486
0 1 0.0795411 0.00988184
0 1 0.0795426 0.0112179
0 1 0.0795404 0.0099323
0 1 0.079544 0.0126527
0 1 0.0795416 0.0111673
0 1 0.0795432 0.012622
0 1 0.0795395 0.00856863
0 1 0.0795393 0.00882261
0 1 0.0795373 0.00734509
0 1 0.0795445 0.0109811
0 1 0.0795434 0.0108772
0 1 0.079538 0.00728151
0 1 0.079541 0.00838351
0 1 0.0795414 0.00859233
0 1 0.0795382 0.00720495
0 1 0.0795428 0.00969079
0 1 0.0795422 0.00971068
0 1 0.0795405 0.00835021
0 1 0.0795407 0.00861342
0 1 0.079546 0.012423
0 1 0.0795382 0.00863786
0 1 0.0795395 0.00987765
0 1 0.0795381 0.00892272
0 1 0.0795408 0.0111474
0 1 0.0795388 0.00985658
0 1 0.0795428 0.0126379
0 1 0.0795403 0.0111278
0 1 0.0795429 0.01269
0 1 0.0795339 0.00573818
0 1 0.0795362 0.00734946
0 1 0.0795334 0.00584242
0 1 0.0795412 0.00964509
0 1 0.0795424 0.0108477
0 1 0.0795403 0.0095657
0 1 0.0795347 0.00579486
0 1 0.0795317 0.00463886
0 1 0.0795379 0.00712611
0 1 0.0795345 0.00563667
0 1 0.0795395 0.00833847
0 1 0.0795394 0.00860698
0 1 0.0795374 0.00714943
0 1 0.0795447 0.0123413
0 1 0.079535 0.0073971
0 1 0.0795368 0.00859863
0 1 0.0795382 0.0098336
0 1 0.0795366 0.00882583
0 1 0.0795402 0.0111773
0 1 0.0795379 0.00986993
0 1 0.0795435 0.012787
0 1 0.0795404 0.0112238
0 1 0.0795306 0.00440647
0 1 0.0795323 0.00582462
0 1 0.0795305 0.00473698
0 1 0.0795316 0.00591185
0 1 0.0795444 0.0128927
0 1 0.0795413 0.0107675
0 1 0.079538 0.00826289
0 1 0.0795392 0.00946955
0 1 0.0795378 0.00850731
0 1 0.0795283 0.00320177
0 1 0.0795313 0.00432414
0 1 0.0795343 0.00567598
0 1 0.0795318 0.00454891
0 1 0.0795362 0.00709455
0 1 0.0795336 0.00558496
0 1 0.0795436 0.0122586
0 1 0.079534 0.00739683
0 1 0.0795359 0.00863672
0 1 0.0795379 0.00988423
0 1 0.0795361 0.00887073
0 1 0.0795411 0.0113263
0 1 0.0795384 0.00996895
0 1 0.0795419 0.0114015
0 1 0.0795255 0.0020924
0 1 0.0795258 0.00204679
0 1 0.0795274 0.00323396
0 1 0.0795293 0.0045202
0 1 0.079531 0.00588862
0 1 0.0795292 0.00479068
0 1 0.0795246 0.00198969
0 1 0.0795454 0.0129945
0 1 0.0795403 0.0107078
0 1 0.0795382 0.00936065
0 1 0.079535 0.0070643
0 1 0.0795363 0.00809968
0 1 0.0795284 0.0030979
0 1 0.0795308 0.00424836
0 1 0.0795327 0.00563597
0 1 0.0795306 0.00439764
0 1 0.0795396 0.0106833
0 1 0.0795426 0.0121974
0 1 0.0795337 0.00748536
0 1 0.0795359 0.00869499
0 1 0.079539 0.0100263
0 1 0.0795368 0.00895925
0 1 0.0795429 0.0114943
0 1 0.0795398 0.0101088
0 1 0.0795311 0.00598143
0 1 0.079525 0.00169825
0 1 0.0795235 0.00109365
0 1 0.0795266 0.0033353
0 1 0.0795286 0.00460332
0 1 0.0795294 0.00489326
0 1 0.0795245 0.00220077
0 1 0.0795224 0.000900108
0 1 0.0795438 0.0115388
0 1 0.0795465 0.0130773
0 1 0.0795317 0.00554523
0 1 0.0795375 0.00935442
0 1 0.0795356 0.00812218
0 1 0.0795337 0.00692264
0 1 0.0795371 0.00942073
0 1 0.0795275 0.00291376
0 1 0.0795291 0.00405093
0 1 0.0795246 0.00172957
0 1 0.0795294 0.00461072
0 1 0.0795392 0.0106969
0 1 0.0795419 0.0121665
0 1 0.0795341 0.00752044
0 1 0.079537 0.00880162
0 1 0.0795406 0.010148
0 1 0.0795381 0.00907127
0 1 0.0795415 0.0102112
0 1 0.0795317 0.0059822
0 1 0.0795222 0.000520208
0 1 0.0795268 0.00345762
0 1 0.0795296 0.00472037
0 1 0.0795244 0.00211369
0 1 0.0795229 0.00120635
0 1 0.0795447 0.0115795
0 1 0.0795475 0.0131373
0 1 0.079531 0.00575838
0 1 0.079535 0.00816245
0 1 0.0795335 0.00714361
0 1 0.0795369 0.0094239
0 1 0.0795352 0.00845833
0 1 0.079526 0.00265494
0 1 0.0795276 0.00367039
0 1 0.0795239 0.0016849
0 1 0.0795284 0.0044142
0 1 0.0795298 0.00538108
0 1 0.0795371 0.00943271
0 1 0.0795392 0.0106922
0 1 0.0795418 0.0121909
0 1 0.0795352 0.00760491
0 1 0.0795384 0.00890226
0 1 0.0795421 0.0101826
0 1 0.0795396 0.00919317
0 1 0.0795328 0.00612425
0 1 0.0795309 0.00505649
0 1 0.0795235 0.0016686
0 1 0.0795278 0.00358762
0 1 0.0795256 0.00248742
0 1 0.0795253 0.00236652
0 1 0.0795258 0.00251156
0 1 0.0795428 0.0102115
0 1 0.0795455 0.011577
0 1 0.0795485 0.0131616
0 1 0.0795325 0.00686896
0 1 0.0795347 0.00812818
0 1 0.0795356 0.00851096
0 1 0.0795307 0.00586343
0 1 0.0795256 0.00296672
0 1 0.0795285 0.00464362
0 1 0.0795378 0.00956531
0 1 0.0795399 0.0108278
0 1 0.0795422 0.0122806
0 1 0.0795363 0.00763246
0 1 0.0795396 0.00892163
0 1 0.0795407 0.00915603
0 1 0.0795336 0.00611558
0 1 0.079531 0.0048331
0 1 0.0795261 0.00299809
0 1 0.0795276 0.0034751
0 1 0.0795285 0.00366095
0 1 0.0795283 0.00361365
0 1 0.0795431 0.0100899
0 1 0.079546 0.0115152
0 1 0.0795493 0.0131447
0 1 0.0795331 0.00710862
0 1 0.0795358 0.00834016
0 1 0.0795307 0.00567251
0 1 0.0795282 0.00423508
0 1 0.0795372 0.00874274
0 1 0.0795386 0.00964247
0 1 0.0795407 0.0109404
0 1 0.0795431 0.012393
0 1 0.0795374 0.00769568
0 1 0.0795405 0.00888296
0 1 0.0795342 0.0061439
0 1 0.0795318 0.00504023
0 1 0.079529 0.00431528
0 1 0.0795302 0.00455841
0 1 0.0795313 0.00478885
0 1 0.0795313 0.00487314
0 1 0.0795415 0.00918043
0 1 0.0795437 0.0101625
0 1 0.0795466 0.0114984
0 1 0.07955 0.0131071
0 1 0.0795341 0.00716946
0 1 0.0795314 0.00564036
0 1 0.0795373 0.00846624
0 1 0.0795395 0.00975219
0 1 0.0795416 0.0110378
0 1 0.0795441 0.0125283
0 1 0.0795379 0.00765821
0 1 0.0795344 0.00609541
0 1 0.0795326 0.00580427
0 1 0.0795335 0.00590554
0 1 0.0795341 0.00602383
0 1 0.0795409 0.00883231
0 1 0.0795439 0.010111
0 1 0.079547 0.0114988
0 1 0.0795504 0.0130621
0 1 0.0795354 0.00730257
0 1 0.0795385 0.00876827
0 1 0.0795403 0.00979277
0 1 0.0795426 0.0111175
0 1 0.0795453 0.0126601
0 1 0.079538 0.00759266
0 1 0.0795367 0.00742846
0 1 0.0795376 0.0075231
0 1 0.0795415 0.00906827
0 1 0.079544 0.0100991
0 1 0.0795472 0.0114672
0 1 0.0795507 0.0130273
0 1 0.0795388 0.00860946
0 1 0.0795412 0.00988591
0 1 0.0795437 0.0112294
0 1 0.0795465 0.0127755
0 1 0.0795401 0.0089494
0 1 0.0795406 0.00873481
0 1 0.0795401 0.0087367
0 1 0.0795411 0.00900855
0 1 0.0795438 0.0100315
0 1 0.0795471 0.0114047
0 1 0.0795509 0.0129924
0 1 0.079542 0.00992148
0 1 0.0795446 0.0112849
0 1 0.0795476 0.0128578
0 1 0.0795427 0.00999655
0 1 0.0795436 0.0100322
0 1 0.0795431 0.00997976
0 1 0.0795468 0.0113325
0 1 0.0795508 0.0129583
0 1 0.0795455 0.0113376
0 1 0.0795486 0.0129083
0 1 0.0795461 0.0113447
0 1 0.0795466 0.0113641
0 1 0.0795504 0.0129296
0 1 0.0795494 0.0129221
0 1 0.07955 0.0129167
VECTORS fa_u float
0.00602958 0.00249752 -0
0.00565201 0.00326318 -0
0.00630397 0.00168913 -0
0.00647049 0.000851841 -0
1e-08 0 0
0.00517773 0.003973 -0
0.00461485 0.00461485 -0
1e-08 0 0
1e-08 0 0
0.00397301 0.00517773 -0
0.00326318 0.005652 -0
0.00652632 -1.57553e-08 -0
0.00647048 -0.000851873 0
1e-08 0 0
1e-08 0 0
1e-08 0 0
1e-08 0 0
1e-08 0 0
1e-08 0 0
1e-08 0 0
1e-08 0 0
0.00249752 0.00602956 -0
0.00168913 0.00630398 -0
1e-08 0 0
1e-08 0 0
1e-08 0 0
0.0063039 -0.00168914 0
1e-08 0 0
0.00602946 -0.0024975 0
1e-08 0 0
1e-08 0 0
1e-08 0 0
0.000851847 0.00647051 -0
1e-08 0 0
1e-08 0 0
1e-08 0 0
1e-08 0 0
1e-08 0 0
1e-08 0 0
1e-08 0 0
1e-08 0 0
1e-08 0 0
1e-08 0 0
-1.57269e-08 0.0065263 -0
1e-08 0 0
1e-08 0 0
1e-08 0 0
0.00565188 -0.00326313 0
1e-08 0 0
0.0051776 -0.00397292 0
1e-08 0 0
1e-08 0 0
1e-08 0 0
1e-08 0 0
1e-08 0 0
1e-08 0 0
1e-08 0 0
1e-08 0 0
1e-08 0 0
1e-08 0 0
1e-08 0 0
1e-08 0 0
1e-08 0 0
-0.000851865 0.00647044 0
1e-08 0 0
1e-08 0 0
1e-08 0 0
1e-08 0 0
1e-08 0 0
0.00461474 -0.00461474 0
1e-08 0 0
0.00397291 -0.0051776 0
1e-08 0 0
1e-08 0 0
1e-08 0 0
1e-08 0 0
1e-08 0 0
1e-08 0 0
1e-08 0 0
1e-08 0 0
1e-08 0 0
1e-08 0 0
1e-08 0 0
1e-08 0 0
1e-08 0 0
-0.00168913 0.00630388 0
1e-08 0 0
1e-08 0 0
1e-08 0 0
1e-08 0 0
1e-08 0 0
1e-08 0 0
0.00326312 -0.00565188 0
1e-08 0 0
1e-08 0 0
1e-08 0 0
1e-08 0 0
1e-08 0 0
0.00249749 -0.00602945 0
1e-08 0 0
1e-08 0 0
1e-08 0 0
1e-08 0 0
1e-08 0 0
1e-08 0 0
1e-08 0 0
1e-08 0 0
1e-08 0 0
1e-08 0 0
-0.00249749 0.00602946 0
1e-08 0 0
1e-08 0 0
1e-08 0 0
1e-08 0 0
1e-08 0 0
1e-08 0 0
1e-08 0 0
1e-08 0 0
1e-08 0 0
1e-08 0 0
1e-08 0 0
1e-08 0 0
1e-08 0 0
1e-08 0 0
0.00168913 -0.00630388 0
1e-08 0 0
1e-08 0 0
1e-08 0 0
1e-08 0 0
1e-08 0 0
1e-08 0 0
1e-08 0 0
1e-08 0 0
1e-08 0 0
-0.00326312 0.00565188 0
1e-08 0 0
1e-08 0 0
1e-08 0 0
1e-08 0 0
1e-08 0 0
1e-08 0 0
1e-08 0 0
1e-08 0 0
1e-08 0 0
1e-08 0 0
1e-08 0 0
1e-08 0 0
1e-08 0 0
1e-08 0 0
1e-08 0 0
0.000851865 -0.00647044 0
1e-08 0 0
1e-08 0 0
1e-08 0 0
1e-08 0 0
1e-08 0 0
1e-08 0 0
1e-08 0 0
1e-08 0 0
1e-08 0 0
1e-08 0 0
-0.00397292 0.0051776 0
1e-08 0 0
1e-08 0 0
1e-08 0 0
1e-08 0 0
1e-08 0 0
1e-08 0 0
1e-08 0 0
1e-08 0 0
1e-08 0 0
1e-08 0 0
1e-08 0 0
1e-08 0 0
1.57521e-08 -0.0065263 0
1e-08 0 0
1e-08 0 0
1e-08 0 0
1e-08 0 0
1e-08 0 0
1e-08 0 0
1e-08 0 0
1e-08 0 0
1e-08 0 0
1e-08 0 0
1e-08 0 0
1e-08 0 0
-0.00461474 0.00461474 0
1e-08 0 0
1e-08 0 0
1e-08 0 0
1e-08 0 0
1e-08 0 0
1e-08 0 0
1e-08 0 0
1e-08 0 0
1e-08 0 0
1e-08 0 0
1e-08 0 0
1e-08 0 0
1e-08 0 0
-0.000851847 -0.00647051 0
1e-08 0 0
1e-08 0 0
1e-08 0 0
1e-08 0 0
1e-08 0 0
1e-08 0 0
1e-08 0 0
1e-08 0 0
-0.0051776 0.00397292 0
1e-08 0 0
1e-08 0 0
1e-08 0 0
1e-08 0 0
1e-08 0 0
1e-08 0 0
1e-08 0 0
1e-08 0 0
1e-08 0 0
1e-08 0 0
1e-08 0 0
-0.00168913 -0.00630398 0
1e-08 0 0
1e-08 0 0
1e-08 0 0
1e-08 0 0
1e-08 0 0
1e-08 0 0
1e-08 0 0
-0.00565188 0.00326313 0
1e-08 0 0
1e-08 0 0
1e-08 0 0
1e-08 0 0
1e-08 0 0
1e-08 0 0
1e-08 0 0
1e-08 0 0
1e-08 0 0
1e-08 0 0
1e-08 0 0
-0.00249752 -0.00602956 0
1e-08 0 0
1e-08 0 0
1e-08 0 0
1e-08 0 0
1e-08 0 0
-0.00602946 0.0024975 0
1e-08 0 0
1e-08 0 0
1e-08 0 0
1e-08 0 0
1e-08 0 0
1e-08 0 0
1e-08 0 0
1e-08 0 0
-0.00326318 -0.005652 0
1e-08 0 0
1e-08 0 0
1e-08 0 0
1e-08 0 0
-0.00630391 0.00168914 0
1e-08 0 0
1e-08 0 0
1e-08 0 0
1e-08 0 0
1e-08 0 0
1e-08 0 0
-0.00397301 -0.00517773 0
1e-08 0 0
1e-08 0 0
1e-08 0 0
-0.00647048 0.000851873 0
1e-08 0 0
1e-08 0 0
1e-08 0 0
1e-08 0 0
1e-08 0 0
1e-08 0 0
-0.00461485 -0.00461485 0
1e-08 0 0
1e-08 0 0
-0.00652631 1.59144e-08 0
1e-08 0 0
1e-08 0 0
1e-08 0 0
1e-08 0 0
-0.00517773 -0.00397301 0
1e-08 0 0
-0.0064705 -0.000851842 0
1e-08 0 0
1e-08 0 0
-0.005652 -0.00326318 0
-0.00630397 -0.00168913 0
-0.00602957 -0.00249752 0
