# vtk DataFile Version 2.0
CellBP Time: 0.217
ASCII
DATASET UNSTRUCTURED_GRID
POINTS 296 double
-9.18881 -3.77686 0
-8.61028 -4.95003 0
-9.60927 -2.53822 0
-9.86446 -1.25529 0
-8.35807 -2.8189 0
-7.88356 -6.03764 0
-7.0211 -7.02109 0
-7.91772 -3.87497 0
-7.34313 -4.86816 0
-6.03765 -7.88355 0
-4.95004 -8.61027 0
-9.95001 0.0499672 0
-9.86445 1.35523 0
-8.65818 -1.68406 0
-8.78682 -0.529684 0
-7.5902 -2.00429 0
-7.22624 -2.90669 0
-6.63809 -5.77927 0
-5.82281 -6.59736 0
-6.79075 -3.88919 0
-6.22103 -4.67626 0
-3.77687 -9.18881 0
-2.53823 -9.60927 0
-4.90682 -7.30931 0
-3.9133 -7.88677 0
-8.79327 0.643406 0
-9.60925 2.63817 0
-8.62379 1.77416 0
-9.18879 3.87681 0
-7.74481 -0.929065 0
-7.79504 0.080234 0
-6.95303 -1.31599 0
-1.25529 -9.86446 0
-6.44192 -2.15328 0
-6.31983 -3.05635 0
-5.53695 -5.47498 0
-4.79627 -6.11593 0
-5.65943 -3.75728 0
-5.26979 -4.56193 0
-2.86639 -8.36451 0
-1.77871 -8.64084 0
-3.92845 -6.72406 0
-3.05687 -7.15314 0
0.0499674 -9.95 0
-7.70604 1.14357 0
-8.33912 2.91559 0
-7.55243 2.11209 0
-8.61024 5.04998 0
-7.88059 3.97848 0
-7.88352 6.13759 0
-6.77918 -0.396904 0
-6.95704 0.552559 0
-5.77177 -1.00348 0
-0.590907 -8.81034 0
0.565693 -8.77152 0
-5.30347 -2.48045 0
-4.49231 -5.09612 0
-3.90281 -5.77576 0
-4.43922 -3.80501 0
-2.0626 -7.56254 0
-1.13559 -7.78646 0
-2.99479 -6.10253 0
-2.30922 -6.62031 0
1.35523 -9.86445 0
-6.68995 1.42213 0
-7.17274 3.11833 0
-6.65977 2.37317 0
-7.29527 4.98901 0
-6.71862 4.00336 0
-7.02105 7.12105 0
-6.57299 5.89459 0
-6.03759 7.98352 0
-4.45339 -1.18115 0
-5.81499 0.513773 0
-4.65645 -0.0103973 0
0.00849635 -7.84876 0
1.73867 -8.64449 0
0.949018 -7.7641 0
-4.03877 -2.40655 0
-3.48576 -1.39129 0
-3.29475 -4.80568 0
-3.26608 -3.268 0
-1.37871 -6.67601 0
-0.508805 -7.02554 0
-1.97571 -5.53743 0
2.63816 -9.60925 0
-5.50773 2.03705 0
-6.09523 3.07245 0
-6.10564 4.87006 0
-5.76224 3.99182 0
-5.76181 6.71774 0
-5.45265 5.6199 0
-4.94997 8.71024 0
-4.83891 7.40527 0
-3.50172 -0.424341 0
-4.4496 1.24911 0
-3.71171 0.592098 0
-4.06244 2.31996 0
-3.77681 9.28879 0
2.86284 -8.33363 0
0.419705 -6.79607 0
2.02219 -7.52659 0
1.30619 -6.90625 0
-2.44482 -0.873874 0
-2.83856 -2.13128 0
-2.29458 -4.09766 0
-2.32581 -2.9738 0
-0.44244 -5.86165 0
-1.22283 -4.49946 0
3.87681 -9.18879 0
-4.79019 3.39207 0
-5.08844 4.59459 0
-4.64766 6.28211 0
-4.53934 5.36029 0
-3.84412 7.99421 0
-3.82716 6.84648 0
-2.78359 8.42376 0
-1.64915 -0.137913 0
-1.45035 -0.890646 0
-2.48927 0.507279 0
-3.25384 1.44424 0
-3.23926 3.3168 0
-2.91118 2.37192 0
-1.35518 0.627138 0
-2.53816 9.70925 0
3.9331 -7.88784 0
2.96486 -7.15855 0
0.95416 -5.82257 0
2.07455 -6.41622 0
-1.68308 -1.99219 0
-1.43454 -3.27801 0
0.0902109 -4.74737 0
-0.566226 -3.69469 0
4.93269 -7.31963 0
5.04997 -8.61024 0
-3.77729 4.55204 0
-3.73517 5.75278 0
-2.8883 7.29074 0
-3.01004 6.35447 0
-1.66272 8.73469 0
-1.94033 7.6203 0
-2.33856 4.052 0
-0.730779 -1.32733 0
-0.836948 -0.257644 0
-1.93633 1.68087 0
-2.12591 2.87604 0
-1.30666 3.54496 0
-0.869509 1.35091 0
-0.282382 0.456073 0
-0.533556 8.87278 0
-1.25523 9.96445 0
1.11287 -4.575 0
3.91061 -6.71815 0
2.98826 -6.09551 0
2.11807 -5.42553 0
4.78506 -6.20618 0
-0.558897 -2.47698 0
0.495136 -3.4641 0
0.0535506 -1.61058 0
1.48201 -3.68247 0
5.86793 -6.61554 0
6.13759 -7.88352 0
-2.47592 5.34904 0
-2.1307 6.53527 0
-0.904169 7.80436 0
-1.27249 6.93296 0
0.0862409 7.88148 0
-1.14455 4.49512 0
0.150327 -0.617681 0
-0.797474 2.48867 0
-0.331664 3.60102 0
0.0631143 1.51282 0
0.741483 0.473451 0
0.646902 8.87547 0
0.0500329 10.05 0
2.38124 -4.28568 0
3.85968 -5.64121 0
3.00182 -5.2134 0
5.5746 -5.49264 0
4.69169 -5.28382 0
0.62971 -2.29352 0
1.25627 -2.95146 0
0.757543 -1.39154 0
2.16453 -3.13611 0
2.99409 -3.47696 0
6.15616 -4.79255 0
6.65661 -5.77019 0
7.12105 -7.02105 0
-1.01973 5.82105 0
-0.372649 6.88459 0
1.12283 7.77081 0
0.558083 7.08089 0
-0.000750364 4.72568 0
0.60707 3.82819 0
1.33901 -0.641934 0
0.539148 2.65126 0
0.966156 1.57505 0
1.91034 0.213889 0
1.61489 1.06511 0
2.12979 7.5849 0
1.79954 8.71386 0
1.35529 9.96446 0
3.82333 -4.35218 0
5.1174 -4.44973 0
5.84674 -3.9358 0
3.78446 -3.20145 0
1.81244 -1.88278 0
3.01948 -2.57416 0
6.78462 -3.94858 0
7.38277 -4.89766 0
7.98352 -6.03759 0
0.483445 5.88239 0
1.42844 6.7431 0
2.3748 6.67034 0
1.21014 4.55676 0
1.48835 3.39802 0
2.43604 -0.692081 0
2.82836 0.142629 0
1.78907 2.16307 0
2.61217 1.15028 0
3.07266 7.17157 0
2.90482 8.37847 0
2.63823 9.70927 0
4.91207 -3.3284 0
6.12186 -3.10926 0
4.17346 -2.27556 0
3.24483 -1.50307 0
6.73275 -2.31349 0
7.23361 -3.04317 0
7.96658 -3.91305 0
8.71024 -4.94998 0
2.02398 5.60078 0
3.08719 6.15494 0
2.36427 4.12753 0
2.42041 3.0613 0
3.52616 -0.460907 0
3.61622 0.613384 0
2.96225 2.2884 0
3.54612 1.5255 0
4.01321 5.89961 0
3.98555 6.79501 0
3.97437 7.94079 0
3.87687 9.28881 0
5.56993 -1.91651 0
4.50997 -1.12977 0
6.71566 -1.33642 0
7.59461 -2.03693 0
8.39943 -2.86209 0
9.28879 -3.77681 0
3.41989 4.87809 0
3.33961 3.38599 0
4.69212 0.130114 0
4.52002 1.31023 0
4.0661 2.44427 0
4.572 5.15407 0
4.8453 6.19284 0
4.98205 7.3828 0
5.05004 8.71027 0
5.88495 -0.434986 0
7.01313 -0.488369 0
7.76211 -1.08561 0
8.68761 -1.74646 0
9.70925 -2.53817 0
4.5537 3.82863 0
5.8194 1.09891 0
5.3728 2.53567 0
5.38212 4.62234 0
5.61433 5.52567 0
5.89938 6.67436 0
6.13765 7.98355 0
6.84863 0.463724 0
7.85637 -0.0256212 0
8.86367 -0.58452 0
9.96445 -1.25523 0
6.96329 1.35 0
5.72338 3.77997 0
6.5441 2.19839 0
6.38289 3.0893 0
6.29517 4.68901 0
6.69583 5.84022 0
7.1211 7.12109 0
7.78766 0.968038 0
8.86302 0.573005 0
10.05 0.0500327 0
7.61957 2.00519 0
6.83227 3.90604 0
7.27284 2.94814 0
7.38149 4.88787 0
7.98356 6.13764 0
8.72662 1.72765 0
9.96446 1.35529 0
8.42455 2.83899 0
7.98504 3.91799 0
8.71028 5.05003 0
9.70927 2.63822 0
9.28881 3.87686 0
CELLS 542 2168
3 2 0 4
3 0 1 7
3 4 0 7
3 1 5 8
3 7 1 8
3 3 2 13
3 13 2 4
3 11 3 14
3 14 3 13
3 13 4 15
3 4 7 16
3 15 4 16
3 5 6 17
3 8 5 17
3 6 9 18
3 17 6 18
3 7 8 19
3 16 7 19
3 8 17 20
3 19 8 20
3 9 10 23
3 18 9 23
3 10 21 24
3 23 10 24
3 12 11 25
3 25 11 14
3 26 12 27
3 27 12 25
3 14 13 29
3 29 13 15
3 25 14 30
3 30 14 29
3 29 15 31
3 15 16 33
3 31 15 33
3 16 19 34
3 33 16 34
3 17 18 35
3 20 17 35
3 18 23 36
3 35 18 36
3 19 20 37
3 34 19 37
3 20 35 38
3 37 20 38
3 21 22 39
3 24 21 39
3 22 32 40
3 39 22 40
3 23 24 41
3 36 23 41
3 24 39 42
3 41 24 42
3 27 25 44
3 44 25 30
3 28 26 45
3 45 26 27
3 45 27 46
3 46 27 44
3 47 28 48
3 48 28 45
3 30 29 50
3 50 29 31
3 44 30 51
3 51 30 50
3 50 31 52
3 31 33 52
3 32 43 53
3 40 32 53
3 53 43 54
3 33 34 55
3 34 37 55
3 33 55 52
3 35 36 56
3 38 35 56
3 36 41 57
3 56 36 57
3 37 38 58
3 38 56 58
3 37 58 55
3 39 40 59
3 42 39 59
3 40 53 60
3 59 40 60
3 41 42 61
3 57 41 61
3 42 59 62
3 61 42 62
3 43 63 54
3 46 44 64
3 64 44 51
3 48 45 65
3 65 45 46
3 65 46 66
3 66 46 64
3 49 47 67
3 67 47 48
3 67 48 68
3 68 48 65
3 69 49 70
3 70 49 67
3 52 55 72
3 64 51 73
3 51 50 73
3 50 52 73
3 73 52 74
3 74 52 72
3 53 54 75
3 60 53 75
3 54 63 76
3 54 76 77
3 75 54 77
3 55 58 78
3 72 55 78
3 72 78 79
3 56 57 80
3 57 61 80
3 56 80 58
3 58 80 81
3 78 58 81
3 59 60 82
3 62 59 82
3 60 75 83
3 82 60 83
3 61 62 84
3 62 82 84
3 61 84 80
3 63 85 76
3 66 64 86
3 64 73 86
3 68 65 87
3 87 65 66
3 87 66 86
3 70 67 88
3 88 67 68
3 88 68 89
3 89 68 87
3 71 69 90
3 90 69 70
3 90 70 91
3 91 70 88
3 92 71 93
3 93 71 90
3 74 72 94
3 94 72 79
3 86 73 95
3 95 73 74
3 95 74 96
3 96 74 94
3 97 86 95
3 76 85 99
3 75 77 100
3 83 75 100
3 76 99 101
3 77 76 101
3 77 101 102
3 100 77 102
3 94 79 103
3 78 81 104
3 79 78 104
3 79 104 103
3 80 84 105
3 81 80 105
3 81 105 106
3 104 81 106
3 82 83 107
3 83 100 107
3 82 107 84
3 84 107 108
3 105 84 108
3 85 109 99
3 89 87 110
3 87 86 110
3 110 86 97
3 91 88 111
3 111 88 89
3 111 89 110
3 93 90 112
3 112 90 91
3 112 91 113
3 113 91 111
3 98 92 114
3 114 92 93
3 114 93 115
3 115 93 112
3 116 98 114
3 117 103 118
3 96 94 119
3 94 103 119
3 119 103 117
3 97 95 120
3 120 95 96
3 120 96 119
3 121 110 97
3 121 97 122
3 122 97 120
3 123 119 117
3 124 98 116
3 99 109 125
3 99 125 126
3 101 99 126
3 100 102 127
3 100 127 107
3 101 126 128
3 102 101 128
3 102 128 127
3 104 106 129
3 104 129 103
3 103 129 118
3 105 108 130
3 106 105 130
3 106 130 129
3 107 127 131
3 108 107 131
3 108 131 132
3 108 132 130
3 109 134 125
3 125 134 133
3 113 111 135
3 111 110 135
3 135 110 121
3 115 112 136
3 136 112 113
3 136 113 135
3 116 114 137
3 137 114 115
3 137 115 138
3 138 115 136
3 139 124 116
3 139 116 140
3 140 116 137
3 141 135 121
3 118 129 142
3 118 142 143
3 117 118 143
3 123 117 143
3 122 120 144
3 120 119 144
3 144 119 123
3 141 121 145
3 145 121 122
3 145 122 144
3 146 141 145
3 147 144 123
3 147 123 148
3 143 148 123
3 150 124 139
3 149 150 139
3 131 127 151
3 125 133 152
3 126 125 152
3 126 152 153
3 128 126 153
3 128 153 154
3 128 154 127
3 127 154 151
3 152 133 155
3 130 132 156
3 130 156 129
3 129 156 142
3 131 151 157
3 132 131 157
3 132 157 156
3 156 158 142
3 157 151 159
3 133 160 155
3 134 161 133
3 133 161 160
3 138 136 162
3 136 135 162
3 162 135 141
3 140 137 163
3 163 137 138
3 163 138 162
3 149 139 164
3 164 139 140
3 164 140 165
3 165 140 163
3 166 149 164
3 167 162 141
3 167 141 146
3 142 158 168
3 143 142 168
3 143 168 148
3 146 145 169
3 145 144 169
3 169 144 147
3 170 167 146
3 170 146 169
3 171 169 147
3 171 147 148
3 171 148 172
3 168 172 148
3 173 149 166
3 174 150 149
3 173 174 149
3 154 175 151
3 151 175 159
3 152 155 176
3 153 152 176
3 153 176 177
3 153 177 154
3 154 177 175
3 155 160 178
3 155 178 179
3 176 155 179
3 156 157 180
3 156 180 158
3 157 159 181
3 157 181 180
3 158 180 182
3 158 182 168
3 159 175 183
3 159 183 181
3 175 184 183
3 160 186 178
3 178 186 185
3 161 187 160
3 160 187 186
3 165 163 188
3 163 162 188
3 188 162 167
3 166 164 189
3 189 164 165
3 189 165 188
3 190 173 166
3 190 166 191
3 191 166 189
3 192 188 167
3 192 167 170
3 193 192 170
3 182 194 168
3 194 172 168
3 193 170 195
3 170 169 195
3 195 169 171
3 196 195 171
3 196 171 172
3 194 197 172
3 197 198 172
3 198 196 172
3 200 173 190
3 199 200 190
3 201 174 173
3 200 201 173
3 176 179 202
3 177 176 202
3 177 202 175
3 175 202 184
3 178 185 203
3 178 203 179
3 179 203 202
3 203 185 204
3 202 205 184
3 183 206 181
3 180 181 206
3 180 206 182
3 182 206 194
3 183 184 207
3 205 207 184
3 183 207 206
3 185 208 204
3 186 209 185
3 185 209 208
3 187 210 186
3 186 210 209
3 191 189 211
3 189 188 211
3 211 188 192
3 199 190 212
3 212 190 191
3 212 191 211
3 213 199 212
3 214 211 192
3 214 192 193
3 215 214 193
3 215 193 195
3 206 216 194
3 216 197 194
3 216 217 197
3 215 195 218
3 218 195 196
3 198 218 196
3 217 219 197
3 219 218 198
3 197 219 198
3 220 199 213
3 221 200 199
3 220 221 199
3 222 201 200
3 221 222 200
3 203 204 223
3 203 223 202
3 202 223 205
3 204 208 224
3 204 224 223
3 205 223 225
3 205 225 207
3 207 225 226
3 207 226 206
3 226 216 206
3 208 228 224
3 224 228 227
3 209 229 208
3 229 228 208
3 210 230 209
3 209 230 229
3 213 212 231
3 212 211 231
3 231 211 214
3 232 220 213
3 232 213 231
3 233 231 214
3 233 214 215
3 234 233 215
3 234 215 218
3 226 235 216
3 235 217 216
3 235 236 217
3 217 236 219
3 237 234 218
3 237 218 219
3 236 238 219
3 238 237 219
3 240 220 232
3 239 240 232
3 241 221 220
3 240 241 220
3 242 222 221
3 241 242 221
3 224 227 243
3 224 243 223
3 223 243 225
3 225 243 244
3 225 244 226
3 226 244 235
3 227 245 243
3 228 246 227
3 227 246 245
3 229 247 228
3 228 247 246
3 230 248 229
3 229 248 247
3 239 232 249
3 232 231 249
3 249 231 233
3 250 249 233
3 250 233 234
3 237 250 234
3 244 251 235
3 235 251 236
3 251 252 236
3 236 252 238
3 252 253 238
3 253 250 237
3 253 237 238
3 254 239 249
3 255 240 239
3 254 255 239
3 256 241 240
3 255 256 240
3 257 242 241
3 256 257 241
3 245 258 243
3 243 258 244
3 244 258 251
3 245 259 258
3 246 260 245
3 245 260 259
3 247 261 246
3 246 261 260
3 248 262 247
3 247 262 261
3 254 249 263
3 263 249 250
3 253 263 250
3 258 264 251
3 251 264 252
3 264 265 252
3 265 263 253
3 252 265 253
3 266 254 263
3 267 255 254
3 266 267 254
3 268 256 255
3 267 268 255
3 269 257 256
3 268 269 256
3 259 270 258
3 270 264 258
3 260 271 259
3 259 271 270
3 261 272 260
3 260 272 271
3 262 273 261
3 273 272 261
3 270 274 264
3 275 266 263
3 275 263 265
3 274 276 264
3 276 265 264
3 276 277 265
3 277 275 265
3 278 267 266
3 275 278 266
3 279 268 267
3 278 279 267
3 280 269 268
3 279 280 268
3 271 281 270
3 270 281 274
3 272 282 271
3 271 282 281
3 273 283 272
3 272 283 282
3 281 284 274
3 274 284 276
3 285 278 275
3 277 285 275
3 284 286 276
3 286 285 277
3 276 286 277
3 287 279 278
3 285 287 278
3 288 280 279
3 287 288 279
3 282 289 281
3 281 289 284
3 283 290 282
3 282 290 289
3 289 291 284
3 284 291 286
3 291 292 286
3 292 287 285
3 286 292 285
3 293 288 287
3 292 293 287
3 290 294 289
3 289 294 291
3 294 295 291
3 295 293 292
3 291 295 292
CELL_TYPES 542
5
5
5
5
5
5
5
5
5
5
5
5
5
5
5
5
5
5
5
5
5
5
5
5
5
5
5
5
5
5
5
5
5
5
5
5
5
5
5
5
5
5
5
5
5
5
5
5
5
5
5
5
5
5
5
5
5
5
5
5
5
5
5
5
5
5
5
5
5
5
5
5
5
5
5
5
5
5
5
5
5
5
5
5
5
5
5
5
5
5
5
5
5
5
5
5
5
5
5
5
5
5
5
5
5
5
5
5
5
5
5
5
5
5
5
5
5
5
5
5
5
5
5
5
5
5
5
5
5
5
5
5
5
5
5
5
5
5
5
5
5
5
5
5
5
5
5
5
5
5
5
5
5
5
5
5
5
5
5
5
5
5
5
5
5
5
5
5
5
5
5
5
5
5
5
5
5
5
5
5
5
5
5
5
5
5
5
5
5
5
5
5
5
5
5
5
5
5
5
5
5
5
5
5
5
5
5
5
5
5
5
5
5
5
5
5
5
5
5
5
5
5
5
5
5
5
5
5
5
5
5
5
5
5
5
5
5
5
5
5
5
5
5
5
5
5
5
5
5
5
5
5
5
5
5
5
5
5
5
5
5
5
5
5
5
5
5
5
5
5
5
5
5
5
5
5
5
5
5
5
5
5
5
5
5
5
5
5
5
5
5
5
5
5
5
5
5
5
5
5
5
5
5
5
5
5
5
5
5
5
5
5
5
5
5
5
5
5
5
5
5
5
5
5
5
5
5
5
5
5
5
5
5
5
5
5
5
5
5
5
5
5
5
5
5
5
5
5
5
5
5
5
5
5
5
5
5
5
5
5
5
5
5
5
5
5
5
5
5
5
5
5
5
5
5
5
5
5
5
5
5
5
5
5
5
5
5
5
5
5
5
5
5
5
5
5
5
5
5
5
5
5
5
5
5
5
5
5
5
5
5
5
5
5
5
5
5
5
5
5
5
5
5
5
5
5
5
5
5
5
5
5
5
5
5
5
5
5
5
5
5
5
5
5
5
5
5
5
5
5
5
5
5
5
5
5
5
5
5
5
5
5
5
5
5
5
5
5
5
5
5
5
5
5
5
5
5
5
5
5
5
5
5
5
5
5
5
5
5
5
5
5
5
5
5
5
5
5
5
5
5
5
5
5
5
5
5
5
5
5
5
5
5
5
5
5
5
5
5
5
5
5
5
5
5
5
5
5
5
5
5
5
5
5
5
5
5
5
5
5
5
5
POINT_DATA 296
SCALARS concentrations float 4
LOOKUP_TABLE default
0 1 0.0825718 0.0150418
0 1 0.082572 0.014886
0 1 0.0825716 0.015251
0 1 0.0825712 0.0154947
0 1 0.082567 0.0133312
0 1 0.082572 0.0148264
0 1 0.0825721 0.0148913
0 1 0.0825672 0.0131912
0 1 0.0825674 0.0131128
0 1 0.0825721 0.0150715
0 1 0.0825721 0.0153366
0 1 0.0825707 0.0157113
0 1 0.08257 0.0158859
0 1 0.0825667 0.0135039
0 1 0.0825662 0.0136532
0 1 0.0825629 0.0118568
0 1 0.0825629 0.0116497
0 1 0.0825674 0.0131156
0 1 0.0825674 0.0132242
0 1 0.0825632 0.0116289
0 1 0.0825632 0.0115549
0 1 0.0825719 0.0156585
0 1 0.0825716 0.0160207
0 1 0.0825674 0.0134249
0 1 0.0825673 0.0136771
0 1 0.0825657 0.0138364
0 1 0.0825692 0.0159989
0 1 0.082565 0.0139288
0 1 0.0825684 0.016071
0 1 0.0825623 0.0119231
0 1 0.0825618 0.0120489
0 1 0.0825596 0.0106948
0 1 0.0825712 0.0163658
0 1 0.0825587 0.0101469
0 1 0.0825599 0.0104309
0 1 0.0825632 0.0116257
0 1 0.0825631 0.011734
0 1 0.0825591 0.0100656
0 1 0.0825599 0.0103668
0 1 0.0825672 0.0140252
0 1 0.0825668 0.0142822
0 1 0.0825631 0.0119612
0 1 0.0825629 0.0121736
0 1 0.0825706 0.0166592
0 1 0.0825612 0.0121601
0 1 0.0825644 0.0140588
0 1 0.0825609 0.0123302
0 1 0.0825676 0.0161012
0 1 0.0825636 0.0140887
0 1 0.082567 0.0161001
0 1 0.0825581 0.0103447
0 1 0.0825583 0.0107587
0 1 0.0825547 0.00878707
0 1 0.0825663 0.0145828
0 1 0.0825655 0.0147442
0 1 0.0825551 0.00867525
0 1 0.0825592 0.0102006
0 1 0.0825598 0.0106172
0 1 0.0825553 0.00870347
0 1 0.0825629 0.01254
0 1 0.0825627 0.0128248
0 1 0.082559 0.010558
0 1 0.0825597 0.011094
0 1 0.0825698 0.0168879
0 1 0.0825573 0.010613
0 1 0.0825601 0.0123512
0 1 0.0825576 0.0110616
0 1 0.082563 0.0141146
0 1 0.0825595 0.0123768
0 1 0.0825667 0.0160986
0 1 0.0825625 0.0140877
0 1 0.0825667 0.016086
0 1 0.0825499 0.00683883
0 1 0.0825538 0.00890337
0 1 0.0825495 0.00698806
0 1 0.082562 0.0130468
0 1 0.0825649 0.0149706
0 1 0.0825614 0.0131755
0 1 0.0825506 0.00697074
0 1 0.0825467 0.00556126
0 1 0.0825552 0.00889394
0 1 0.0825504 0.00696153
0 1 0.0825586 0.0110138
0 1 0.0825591 0.011598
0 1 0.0825551 0.00932007
0 1 0.082569 0.0170455
0 1 0.0825531 0.00907421
0 1 0.0825562 0.0106877
0 1 0.082559 0.0123599
0 1 0.0825563 0.0110136
0 1 0.0825625 0.0140999
0 1 0.0825588 0.012377
0 1 0.0825672 0.0160773
0 1 0.0825626 0.0140579
0 1 0.0825455 0.00522311
0 1 0.0825487 0.00701476
0 1 0.0825458 0.00561549
0 1 0.0825483 0.00714152
0 1 0.0825678 0.0160316
0 1 0.0825641 0.0150803
0 1 0.0825577 0.0114048
0 1 0.0825606 0.0132796
0 1 0.082558 0.0119176
0 1 0.0825422 0.00386103
0 1 0.0825461 0.00533735
0 1 0.0825506 0.00732093
0 1 0.082547 0.00582897
0 1 0.0825545 0.00970377
0 1 0.0825502 0.00755562
0 1 0.0825681 0.0171473
0 1 0.0825522 0.00910758
0 1 0.0825555 0.0107458
0 1 0.0825588 0.0123168
0 1 0.0825559 0.0110036
0 1 0.0825631 0.0140443
0 1 0.0825591 0.012313
0 1 0.0825637 0.0139562
0 1 0.0825383 0.00241347
0 1 0.0825388 0.00266291
0 1 0.0825412 0.00370313
0 1 0.0825445 0.00531926
0 1 0.0825476 0.00704497
0 1 0.0825447 0.00561899
0 1 0.0825372 0.00201846
0 1 0.0825686 0.0159365
0 1 0.0825634 0.0151535
0 1 0.0825598 0.0132967
0 1 0.0825538 0.0100193
0 1 0.0825564 0.0115489
0 1 0.0825424 0.00412104
0 1 0.0825461 0.00576365
0 1 0.0825499 0.00801126
0 1 0.0825464 0.00625752
0 1 0.0825628 0.0152011
0 1 0.0825674 0.0171956
0 1 0.082552 0.0091427
0 1 0.0825554 0.0106783
0 1 0.0825595 0.0122305
0 1 0.0825563 0.0109
0 1 0.0825644 0.0138606
0 1 0.0825601 0.0121591
0 1 0.0825477 0.00702524
0 1 0.0825381 0.00268289
0 1 0.0825356 0.00140543
0 1 0.0825406 0.00366735
0 1 0.0825439 0.0052603
0 1 0.0825447 0.00546428
0 1 0.0825371 0.00202908
0 1 0.0825337 0.000332013
0 1 0.0825649 0.0136913
0 1 0.0825693 0.0157979
0 1 0.0825491 0.00813698
0 1 0.0825593 0.013392
0 1 0.082556 0.0117055
0 1 0.0825528 0.0100552
0 1 0.0825591 0.0135104
0 1 0.0825419 0.00437238
0 1 0.0825449 0.00612412
0 1 0.0825381 0.00310048
0 1 0.082546 0.0070122
0 1 0.0825625 0.0152192
0 1 0.0825668 0.017215
0 1 0.0825522 0.00898849
0 1 0.0825561 0.0105426
0 1 0.0825606 0.0120035
0 1 0.0825572 0.0107165
0 1 0.0825612 0.0118833
0 1 0.082548 0.00679939
0 1 0.0825346 0.00162187
0 1 0.0825405 0.00356073
0 1 0.0825444 0.00505416
0 1 0.0825367 0.00173081
0 1 0.0825348 0.00125523
0 1 0.0825655 0.0135023
0 1 0.08257 0.0156043
0 1 0.082549 0.00858105
0 1 0.0825556 0.0118165
0 1 0.0825529 0.0104339
0 1 0.0825589 0.0134663
0 1 0.0825562 0.0121998
0 1 0.0825406 0.00439897
0 1 0.0825433 0.00577971
0 1 0.0825375 0.00316399
0 1 0.082545 0.00679614
0 1 0.0825475 0.0080714
0 1 0.0825589 0.0133718
0 1 0.0825625 0.0151193
0 1 0.0825667 0.017198
0 1 0.0825529 0.00881628
0 1 0.082557 0.0103222
0 1 0.0825615 0.0116437
0 1 0.0825583 0.010505
0 1 0.0825488 0.00675437
0 1 0.0825457 0.00532046
0 1 0.0825369 0.00284651
0 1 0.0825413 0.0035164
0 1 0.0825382 0.00228381
0 1 0.0825386 0.00309831
0 1 0.0825387 0.00267829
0 1 0.0825619 0.011502
0 1 0.0825659 0.0132746
0 1 0.0825706 0.0153633
0 1 0.0825517 0.0100648
0 1 0.0825552 0.0116768
0 1 0.0825563 0.0120547
0 1 0.0825487 0.00863136
0 1 0.0825407 0.00481518
0 1 0.0825453 0.00700292
0 1 0.0825595 0.0133584
0 1 0.082563 0.0151303
0 1 0.082567 0.0171632
0 1 0.0825535 0.00855659
0 1 0.0825578 0.0100049
0 1 0.0825588 0.0101518
0 1 0.0825492 0.00655179
0 1 0.0825454 0.00497717
0 1 0.0825406 0.00439182
0 1 0.082542 0.00453058
0 1 0.082542 0.00370953
0 1 0.0825423 0.0041518
0 1 0.0825618 0.0112157
0 1 0.0825661 0.0130092
0 1 0.0825709 0.0150953
0 1 0.0825523 0.01019
0 1 0.082556 0.0116431
0 1 0.0825483 0.00816625
0 1 0.0825442 0.00619306
0 1 0.0825574 0.0119091
0 1 0.0825599 0.013221
0 1 0.0825636 0.0150453
0 1 0.0825676 0.0170852
0 1 0.0825542 0.00839673
0 1 0.0825582 0.00973983
0 1 0.0825497 0.00651307
0 1 0.0825464 0.0052791
0 1 0.0825445 0.00585859
0 1 0.0825453 0.00565526
0 1 0.0825458 0.0051948
0 1 0.0825462 0.00563319
0 1 0.0825593 0.0100533
0 1 0.0825623 0.0112189
0 1 0.0825664 0.0128462
0 1 0.0825712 0.0148518
0 1 0.0825528 0.00986557
0 1 0.0825484 0.00773788
0 1 0.0825569 0.0112607
0 1 0.0825606 0.0130644
0 1 0.0825642 0.0148882
0 1 0.0825684 0.0169755
0 1 0.0825546 0.00828367
0 1 0.0825498 0.00656374
0 1 0.0825491 0.00743427
0 1 0.0825495 0.00706419
0 1 0.0825498 0.00676642
0 1 0.0825584 0.00968027
0 1 0.0825624 0.0111386
0 1 0.0825667 0.0127643
0 1 0.0825714 0.0146552
0 1 0.0825536 0.00951165
0 1 0.082558 0.0113454
0 1 0.0825609 0.0128148
0 1 0.0825648 0.0146624
0 1 0.0825692 0.0168049
0 1 0.0825546 0.00837262
0 1 0.0825542 0.00908725
0 1 0.0825545 0.00867707
0 1 0.0825593 0.0100616
0 1 0.0825625 0.0111851
0 1 0.0825668 0.0127246
0 1 0.0825716 0.0145363
0 1 0.0825577 0.0108106
0 1 0.0825615 0.0125788
0 1 0.0825654 0.0144407
0 1 0.0825699 0.0165812
0 1 0.0825589 0.0109216
0 1 0.0825583 0.00984451
0 1 0.0825583 0.0103517
0 1 0.0825592 0.0104026
0 1 0.0825624 0.0112612
0 1 0.0825667 0.0127485
0 1 0.0825717 0.0145225
0 1 0.0825618 0.0122842
0 1 0.0825659 0.0141357
0 1 0.0825705 0.0162885
0 1 0.0825622 0.0120258
0 1 0.0825624 0.0114679
0 1 0.0825623 0.011693
0 1 0.0825665 0.0128627
0 1 0.0825717 0.0146362
0 1 0.0825663 0.0138241
0 1 0.082571 0.0159385
0 1 0.0825665 0.0134768
0 1 0.0825666 0.0131715
0 1 0.0825716 0.0148592
0 1 0.0825713 0.0155543
0 1 0.0825715 0.0151801
VECTORS fa_u float
0.0060296 0.00249752 -0
0.00565203 0.00326319 -0
0.00630398 0.00168913 -0
0.0064705 0.000851838 -0
1e-08 0 0
0.00517775 0.00397302 -0
0.00461487 0.00461487 -0
1e-08 0 0
1e-08 0 0
0.00397302 0.00517775 -0
0.00326319 0.00565202 -0
0.00652632 -2.06176e-08 -0
0.00647047 -0.000851877 0
1e-08 0 0
1e-08 0 0
1e-08 0 0
1e-08 0 0
1e-08 0 0
1e-08 0 0
1e-08 0 0
1e-08 0 0
0.00249752 0.00602958 -0
0.00168913 0.00630399 -0
1e-08 0 0
1e-08 0 0
1e-08 0 0
0.0063039 -0.00168914 0
1e-08 0 0
0.00602944 -0.0024975 0
1e-08 0 0
1e-08 0 0
1e-08 0 0
0.000851843 0.00647052 -0
1e-08 0 0
1e-08 0 0
1e-08 0 0
1e-08 0 0
1e-08 0 0
1e-08 0 0
1e-08 0 0
1e-08 0 0
1e-08 0 0
1e-08 0 0
-2.04975e-08 0.0065263 -0
1e-08 0 0
1e-08 0 0
1e-08 0 0
0.00565186 -0.00326312 0
1e-08 0 0
0.00517758 -0.00397291 0
1e-08 0 0
1e-08 0 0
1e-08 0 0
1e-08 0 0
1e-08 0 0
1e-08 0 0
1e-08 0 0
1e-08 0 0
1e-08 0 0
1e-08 0 0
1e-08 0 0
1e-08 0 0
1e-08 0 0
-0.000851868 0.00647043 0
1e-08 0 0
1e-08 0 0
1e-08 0 0
1e-08 0 0
1e-08 0 0
0.00461472 -0.00461473 0
1e-08 0 0
0.0039729 -0.00517758 0
1e-08 0 0
1e-08 0 0
1e-08 0 0
1e-08 0 0
1e-08 0 0
1e-08 0 0
1e-08 0 0
1e-08 0 0
1e-08 0 0
1e-08 0 0
1e-08 0 0
1e-08 0 0
1e-08 0 0
-0.00168913 0.00630387 0
1e-08 0 0
1e-08 0 0
1e-08 0 0
1e-08 0 0
1e-08 0 0
1e-08 0 0
0.00326311 -0.00565186 0
1e-08 0 0
1e-08 0 0
1e-08 0 0
1e-08 0 0
1e-08 0 0
0.00249749 -0.00602944 0
1e-08 0 0
1e-08 0 0
1e-08 0 0
1e-08 0 0
1e-08 0 0
1e-08 0 0
1e-08 0 0
1e-08 0 0
1e-08 0 0
1e-08 0 0
-0.00249749 0.00602944 0
1e-08 0 0
1e-08 0 0
1e-08 0 0
1e-08 0 0
1e-08 0 0
1e-08 0 0
1e-08 0 0
1e-08 0 0
1e-08 0 0
1e-08 0 0
1e-08 0 0
1e-08 0 0
1e-08 0 0
1e-08 0 0
0.00168913 -0.00630387 0
1e-08 0 0
1e-08 0 0
1e-08 0 0
1e-08 0 0
1e-08 0 0
1e-08 0 0
1e-08 0 0
1e-08 0 0
1e-08 0 0
-0.00326311 0.00565186 0
1e-08 0 0
1e-08 0 0
1e-08 0 0
1e-08 0 0
1e-08 0 0
1e-08 0 0
1e-08 0 0
1e-08 0 0
1e-08 0 0
1e-08 0 0
1e-08 0 0
1e-08 0 0
1e-08 0 0
1e-08 0 0
1e-08 0 0
0.000851868 -0.00647043 0
1e-08 0 0
1e-08 0 0
1e-08 0 0
1e-08 0 0
1e-08 0 0
1e-08 0 0
1e-08 0 0
1e-08 0 0
1e-08 0 0
1e-08 0 0
-0.0039729 0.00517758 0
1e-08 0 0
1e-08 0 0
1e-08 0 0
1e-08 0 0
1e-08 0 0
1e-08 0 0
1e-08 0 0
1e-08 0 0
1e-08 0 0
1e-08 0 0
1e-08 0 0
1e-08 0 0
2.0533e-08 -0.0065263 0
1e-08 0 0
1e-08 0 0
1e-08 0 0
1e-08 0 0
1e-08 0 0
1e-08 0 0
1e-08 0 0
1e-08 0 0
1e-08 0 0
1e-08 0 0
1e-08 0 0
1e-08 0 0
-0.00461472 0.00461472 0
1e-08 0 0
1e-08 0 0
1e-08 0 0
1e-08 0 0
1e-08 0 0
1e-08 0 0
1e-08 0 0
1e-08 0 0
1e-08 0 0
1e-08 0 0
1e-08 0 0
1e-08 0 0
1e-08 0 0
-0.000851843 -0.00647052 0
1e-08 0 0
1e-08 0 0
1e-08 0 0
1e-08 0 0
1e-08 0 0
1e-08 0 0
1e-08 0 0
1e-08 0 0
-0.00517758 0.00397291 0
1e-08 0 0
1e-08 0 0
1e-08 0 0
1e-08 0 0
1e-08 0 0
1e-08 0 0
1e-08 0 0
1e-08 0 0
1e-08 0 0
1e-08 0 0
1e-08 0 0
-0.00168913 -0.00630399 0
1e-08 0 0
1e-08 0 0
1e-08 0 0
1e-08 0 0
1e-08 0 0
1e-08 0 0
1e-08 0 0
-0.00565186 0.00326312 0
1e-08 0 0
1e-08 0 0
1e-08 0 0
1e-08 0 0
1e-08 0 0
1e-08 0 0
1e-08 0 0
1e-08 0 0
1e-08 0 0
1e-08 0 0
1e-08 0 0
-0.00249752 -0.00602958 0
1e-08 0 0
1e-08 0 0
1e-08 0 0
1e-08 0 0
1e-08 0 0
-0.00602944 0.0024975 0
1e-08 0 0
1e-08 0 0
1e-08 0 0
1e-08 0 0
1e-08 0 0
1e-08 0 0
1e-08 0 0
1e-08 0 0
-0.00326319 -0.00565202 0
1e-08 0 0
1e-08 0 0
1e-08 0 0
1e-08 0 0
-0.0063039 0.00168914 0
1e-08 0 0
1e-08 0 0
1e-08 0 0
1e-08 0 0
1e-08 0 0
1e-08 0 0
-0.00397302 -0.00517775 0
1e-08 0 0
1e-08 0 0
1e-08 0 0
-0.00647047 0.000851877 0
1e-08 0 0
1e-08 0 0
1e-08 0 0
1e-08 0 0
1e-08 0 0
1e-08 0 0
-0.00461487 -0.00461487 0
1e-08 0 0
1e-08 0 0
-0.00652631 2.06356e-08 0
1e-08 0 0
1e-08 0 0
1e-08 0 0
1e-08 0 0
-0.00517775 -0.00397302 0
1e-08 0 0
-0.00647051 -0.000851838 0
1e-08 0 0
1e-08 0 0
-0.00565202 -0.00326319 0
-0.00630399 -0.00168913 0
-0.00602959 -0.00249752 0
