# vtk DataFile Version 2.0
CellBP Time: 0.218
ASCII
DATASET UNSTRUCTURED_GRID
POINTS 296 double
-9.18881 -3.77686 0
-8.61028 -4.95003 0
-9.60927 -2.53822 0
-9.86446 -1.25529 0
-8.35807 -2.8189 0
-7.88356 -6.03764 0
-7.0211 -7.02109 0
-7.91772 -3.87497 0
-7.34313 -4.86817 0
-6.03765 -7.88355 0
-4.95004 -8.61027 0
-9.95001 0.0499668 0
-9.86445 1.35523 0
-8.65818 -1.68406 0
-8.78682 -0.529684 0
-7.5902 -2.00429 0
-7.22624 -2.90669 0
-6.63809 -5.77927 0
-5.82281 -6.59736 0
-6.79075 -3.88919 0
-6.22103 -4.67626 0
-3.77687 -9.18881 0
-2.53823 -9.60927 0
-4.90682 -7.30931 0
-3.9133 -7.88677 0
-8.79327 0.643406 0
-9.60925 2.63817 0
-8.62379 1.77416 0
-9.18879 3.87681 0
-7.74481 -0.929065 0
-7.79504 0.0802338 0
-6.95303 -1.31599 0
-1.25529 -9.86446 0
-6.44192 -2.15328 0
-6.31983 -3.05635 0
-5.53695 -5.47498 0
-4.79627 -6.11593 0
-5.65943 -3.75728 0
-5.26979 -4.56193 0
-2.86639 -8.36451 0
-1.77871 -8.64084 0
-3.92845 -6.72406 0
-3.05687 -7.15314 0
0.0499672 -9.95 0
-7.70604 1.14357 0
-8.33912 2.91559 0
-7.55243 2.11209 0
-8.61024 5.04998 0
-7.88059 3.97848 0
-7.88352 6.13759 0
-6.77918 -0.396904 0
-6.95704 0.552559 0
-5.77177 -1.00349 0
-0.590907 -8.81034 0
0.565693 -8.77152 0
-5.30347 -2.48045 0
-4.49231 -5.09612 0
-3.90281 -5.77576 0
-4.43922 -3.80501 0
-2.0626 -7.56254 0
-1.13559 -7.78646 0
-2.99479 -6.10253 0
-2.30922 -6.62031 0
1.35523 -9.86445 0
-6.68995 1.42213 0
-7.17274 3.11833 0
-6.65976 2.37317 0
-7.29527 4.98901 0
-6.71862 4.00336 0
-7.02105 7.12105 0
-6.57299 5.89459 0
-6.03759 7.98352 0
-4.45339 -1.18115 0
-5.81499 0.513773 0
-4.65645 -0.0103975 0
0.00849618 -7.84876 0
1.73867 -8.64449 0
0.949018 -7.7641 0
-4.03877 -2.40655 0
-3.48576 -1.39129 0
-3.29475 -4.80568 0
-3.26608 -3.268 0
-1.37871 -6.67601 0
-0.508805 -7.02554 0
-1.97571 -5.53743 0
2.63816 -9.60925 0
-5.50773 2.03705 0
-6.09523 3.07245 0
-6.10564 4.87006 0
-5.76224 3.99182 0
-5.76181 6.71774 0
-5.45265 5.6199 0
-4.94997 8.71024 0
-4.83891 7.40527 0
-3.50172 -0.424342 0
-4.4496 1.24911 0
-3.71171 0.592098 0
-4.06244 2.31996 0
-3.7768 9.28879 0
2.86284 -8.33363 0
0.419705 -6.79607 0
2.02219 -7.52659 0
1.30619 -6.90625 0
-2.44482 -0.873874 0
-2.83856 -2.13128 0
-2.29458 -4.09766 0
-2.32581 -2.9738 0
-0.44244 -5.86165 0
-1.22283 -4.49946 0
3.87681 -9.18879 0
-4.79019 3.39207 0
-5.08844 4.59459 0
-4.64766 6.28211 0
-4.53934 5.36029 0
-3.84412 7.99421 0
-3.82716 6.84648 0
-2.78359 8.42376 0
-1.64915 -0.137913 0
-1.45035 -0.890646 0
-2.48927 0.507278 0
-3.25384 1.44424 0
-3.23926 3.3168 0
-2.91118 2.37192 0
-1.35518 0.627138 0
-2.53816 9.70925 0
3.9331 -7.88784 0
2.96486 -7.15855 0
0.95416 -5.82257 0
2.07455 -6.41622 0
-1.68308 -1.99219 0
-1.43454 -3.27801 0
0.0902108 -4.74737 0
-0.566226 -3.69469 0
4.93269 -7.31963 0
5.04997 -8.61024 0
-3.77729 4.55204 0
-3.73517 5.75278 0
-2.8883 7.29074 0
-3.01004 6.35447 0
-1.66272 8.73469 0
-1.94033 7.6203 0
-2.33856 4.052 0
-0.730779 -1.32733 0
-0.836948 -0.257644 0
-1.93633 1.68087 0
-2.12591 2.87604 0
-1.30666 3.54496 0
-0.869509 1.35091 0
-0.282382 0.456072 0
-0.533556 8.87278 0
-1.25523 9.96445 0
1.11287 -4.575 0
3.91061 -6.71815 0
2.98826 -6.09551 0
2.11807 -5.42553 0
4.78506 -6.20618 0
-0.558897 -2.47698 0
0.495136 -3.4641 0
0.0535506 -1.61058 0
1.48201 -3.68247 0
5.86793 -6.61553 0
6.13759 -7.88352 0
-2.47592 5.34904 0
-2.1307 6.53527 0
-0.904169 7.80436 0
-1.27249 6.93296 0
0.0862412 7.88148 0
-1.14455 4.49512 0
0.150327 -0.617681 0
-0.797474 2.48867 0
-0.331664 3.60102 0
0.0631144 1.51282 0
0.741483 0.473451 0
0.646903 8.87547 0
0.0500333 10.05 0
2.38124 -4.28568 0
3.85968 -5.64121 0
3.00182 -5.2134 0
5.5746 -5.49264 0
4.69169 -5.28382 0
0.62971 -2.29352 0
1.25627 -2.95146 0
0.757543 -1.39154 0
2.16453 -3.13611 0
2.99409 -3.47696 0
6.15616 -4.79255 0
6.65661 -5.77019 0
7.12105 -7.02105 0
-1.01973 5.82105 0
-0.372649 6.88459 0
1.12284 7.77081 0
0.558083 7.08089 0
-0.000750171 4.72568 0
0.60707 3.82819 0
1.33901 -0.641934 0
0.539149 2.65126 0
0.966157 1.57505 0
1.91034 0.213889 0
1.61489 1.06511 0
2.12979 7.5849 0
1.79954 8.71386 0
1.3553 9.96446 0
3.82333 -4.35218 0
5.1174 -4.44973 0
5.84674 -3.9358 0
3.78446 -3.20145 0
1.81244 -1.88278 0
3.01948 -2.57416 0
6.78462 -3.94858 0
7.38277 -4.89766 0
7.98352 -6.03759 0
0.483445 5.88239 0
1.42844 6.7431 0
2.3748 6.67034 0
1.21014 4.55676 0
1.48835 3.39802 0
2.43604 -0.692081 0
2.82836 0.142629 0
1.78907 2.16307 0
2.61217 1.15028 0
3.07266 7.17157 0
2.90482 8.37847 0
2.63823 9.70927 0
4.91207 -3.3284 0
6.12186 -3.10926 0
4.17346 -2.27556 0
3.24483 -1.50307 0
6.73275 -2.31349 0
7.23361 -3.04317 0
7.96658 -3.91305 0
8.71024 -4.94998 0
2.02398 5.60078 0
3.08719 6.15494 0
2.36427 4.12753 0
2.42041 3.0613 0
3.52616 -0.460907 0
3.61622 0.613384 0
2.96225 2.2884 0
3.54612 1.5255 0
4.01321 5.89961 0
3.98555 6.79501 0
3.97437 7.94079 0
3.87687 9.28881 0
5.56993 -1.91651 0
4.50997 -1.12977 0
6.71566 -1.33642 0
7.59461 -2.03693 0
8.39943 -2.86209 0
9.28879 -3.77681 0
3.41989 4.87809 0
3.33961 3.38599 0
4.69212 0.130114 0
4.52002 1.31023 0
4.0661 2.44427 0
4.572 5.15407 0
4.8453 6.19284 0
4.98205 7.3828 0
5.05004 8.71027 0
5.88495 -0.434986 0
7.01313 -0.488369 0
7.76211 -1.08561 0
8.68761 -1.74646 0
9.70925 -2.53817 0
4.5537 3.82863 0
5.8194 1.09891 0
5.3728 2.53567 0
5.38212 4.62234 0
5.61433 5.52567 0
5.89938 6.67436 0
6.13765 7.98355 0
6.84863 0.463724 0
7.85637 -0.025621 0
8.86367 -0.584519 0
9.96445 -1.25523 0
6.96329 1.35 0
5.72338 3.77997 0
6.5441 2.19839 0
6.38289 3.0893 0
6.29517 4.68901 0
6.69583 5.84022 0
7.1211 7.12109 0
7.78766 0.968039 0
8.86302 0.573005 0
10.05 0.0500329 0
7.61957 2.00519 0
6.83227 3.90604 0
7.27284 2.94814 0
7.38149 4.88787 0
7.98356 6.13764 0
8.72662 1.72765 0
9.96446 1.35529 0
8.42455 2.83899 0
7.98504 3.91799 0
8.71028 5.05003 0
9.70927 2.63822 0
9.28882 3.87686 0
CELLS 542 2168
3 2 0 4
3 0 1 7
3 4 0 7
3 1 5 8
3 7 1 8
3 3 2 13
3 13 2 4
3 11 3 14
3 14 3 13
3 13 4 15
3 4 7 16
3 15 4 16
3 5 6 17
3 8 5 17
3 6 9 18
3 17 6 18
3 7 8 19
3 16 7 19
3 8 17 20
3 19 8 20
3 9 10 23
3 18 9 23
3 10 21 24
3 23 10 24
3 12 11 25
3 25 11 14
3 26 12 27
3 27 12 25
3 14 13 29
3 29 13 15
3 25 14 30
3 30 14 29
3 29 15 31
3 15 16 33
3 31 15 33
3 16 19 34
3 33 16 34
3 17 18 35
3 20 17 35
3 18 23 36
3 35 18 36
3 19 20 37
3 34 19 37
3 20 35 38
3 37 20 38
3 21 22 39
3 24 21 39
3 22 32 40
3 39 22 40
3 23 24 41
3 36 23 41
3 24 39 42
3 41 24 42
3 27 25 44
3 44 25 30
3 28 26 45
3 45 26 27
3 45 27 46
3 46 27 44
3 47 28 48
3 48 28 45
3 30 29 50
3 50 29 31
3 44 30 51
3 51 30 50
3 50 31 52
3 31 33 52
3 32 43 53
3 40 32 53
3 53 43 54
3 33 34 55
3 34 37 55
3 33 55 52
3 35 36 56
3 38 35 56
3 36 41 57
3 56 36 57
3 37 38 58
3 38 56 58
3 37 58 55
3 39 40 59
3 42 39 59
3 40 53 60
3 59 40 60
3 41 42 61
3 57 41 61
3 42 59 62
3 61 42 62
3 43 63 54
3 46 44 64
3 64 44 51
3 48 45 65
3 65 45 46
3 65 46 66
3 66 46 64
3 49 47 67
3 67 47 48
3 67 48 68
3 68 48 65
3 69 49 70
3 70 49 67
3 52 55 72
3 64 51 73
3 51 50 73
3 50 52 73
3 73 52 74
3 74 52 72
3 53 54 75
3 60 53 75
3 54 63 76
3 54 76 77
3 75 54 77
3 55 58 78
3 72 55 78
3 72 78 79
3 56 57 80
3 57 61 80
3 56 80 58
3 58 80 81
3 78 58 81
3 59 60 82
3 62 59 82
3 60 75 83
3 82 60 83
3 61 62 84
3 62 82 84
3 61 84 80
3 63 85 76
3 66 64 86
3 64 73 86
3 68 65 87
3 87 65 66
3 87 66 86
3 70 67 88
3 88 67 68
3 88 68 89
3 89 68 87
3 71 69 90
3 90 69 70
3 90 70 91
3 91 70 88
3 92 71 93
3 93 71 90
3 74 72 94
3 94 72 79
3 86 73 95
3 95 73 74
3 95 74 96
3 96 74 94
3 97 86 95
3 76 85 99
3 75 77 100
3 83 75 100
3 76 99 101
3 77 76 101
3 77 101 102
3 100 77 102
3 94 79 103
3 78 81 104
3 79 78 104
3 79 104 103
3 80 84 105
3 81 80 105
3 81 105 106
3 104 81 106
3 82 83 107
3 83 100 107
3 82 107 84
3 84 107 108
3 105 84 108
3 85 109 99
3 89 87 110
3 87 86 110
3 110 86 97
3 91 88 111
3 111 88 89
3 111 89 110
3 93 90 112
3 112 90 91
3 112 91 113
3 113 91 111
3 98 92 114
3 114 92 93
3 114 93 115
3 115 93 112
3 116 98 114
3 117 103 118
3 96 94 119
3 94 103 119
3 119 103 117
3 97 95 120
3 120 95 96
3 120 96 119
3 121 110 97
3 121 97 122
3 122 97 120
3 123 119 117
3 124 98 116
3 99 109 125
3 99 125 126
3 101 99 126
3 100 102 127
3 100 127 107
3 101 126 128
3 102 101 128
3 102 128 127
3 104 106 129
3 104 129 103
3 103 129 118
3 105 108 130
3 106 105 130
3 106 130 129
3 107 127 131
3 108 107 131
3 108 131 132
3 108 132 130
3 109 134 125
3 125 134 133
3 113 111 135
3 111 110 135
3 135 110 121
3 115 112 136
3 136 112 113
3 136 113 135
3 116 114 137
3 137 114 115
3 137 115 138
3 138 115 136
3 139 124 116
3 139 116 140
3 140 116 137
3 141 135 121
3 118 129 142
3 118 142 143
3 117 118 143
3 123 117 143
3 122 120 144
3 120 119 144
3 144 119 123
3 141 121 145
3 145 121 122
3 145 122 144
3 146 141 145
3 147 144 123
3 147 123 148
3 143 148 123
3 150 124 139
3 149 150 139
3 131 127 151
3 125 133 152
3 126 125 152
3 126 152 153
3 128 126 153
3 128 153 154
3 128 154 127
3 127 154 151
3 152 133 155
3 130 132 156
3 130 156 129
3 129 156 142
3 131 151 157
3 132 131 157
3 132 157 156
3 156 158 142
3 157 151 159
3 133 160 155
3 134 161 133
3 133 161 160
3 138 136 162
3 136 135 162
3 162 135 141
3 140 137 163
3 163 137 138
3 163 138 162
3 149 139 164
3 164 139 140
3 164 140 165
3 165 140 163
3 166 149 164
3 167 162 141
3 167 141 146
3 142 158 168
3 143 142 168
3 143 168 148
3 146 145 169
3 145 144 169
3 169 144 147
3 170 167 146
3 170 146 169
3 171 169 147
3 171 147 148
3 171 148 172
3 168 172 148
3 173 149 166
3 174 150 149
3 173 174 149
3 154 175 151
3 151 175 159
3 152 155 176
3 153 152 176
3 153 176 177
3 153 177 154
3 154 177 175
3 155 160 178
3 155 178 179
3 176 155 179
3 156 157 180
3 156 180 158
3 157 159 181
3 157 181 180
3 158 180 182
3 158 182 168
3 159 175 183
3 159 183 181
3 175 184 183
3 160 186 178
3 178 186 185
3 161 187 160
3 160 187 186
3 165 163 188
3 163 162 188
3 188 162 167
3 166 164 189
3 189 164 165
3 189 165 188
3 190 173 166
3 190 166 191
3 191 166 189
3 192 188 167
3 192 167 170
3 193 192 170
3 182 194 168
3 194 172 168
3 193 170 195
3 170 169 195
3 195 169 171
3 196 195 171
3 196 171 172
3 194 197 172
3 197 198 172
3 198 196 172
3 200 173 190
3 199 200 190
3 201 174 173
3 200 201 173
3 176 179 202
3 177 176 202
3 177 202 175
3 175 202 184
3 178 185 203
3 178 203 179
3 179 203 202
3 203 185 204
3 202 205 184
3 183 206 181
3 180 181 206
3 180 206 182
3 182 206 194
3 183 184 207
3 205 207 184
3 183 207 206
3 185 208 204
3 186 209 185
3 185 209 208
3 187 210 186
3 186 210 209
3 191 189 211
3 189 188 211
3 211 188 192
3 199 190 212
3 212 190 191
3 212 191 211
3 213 199 212
3 214 211 192
3 214 192 193
3 215 214 193
3 215 193 195
3 206 216 194
3 216 197 194
3 216 217 197
3 215 195 218
3 218 195 196
3 198 218 196
3 217 219 197
3 219 218 198
3 197 219 198
3 220 199 213
3 221 200 199
3 220 221 199
3 222 201 200
3 221 222 200
3 203 204 223
3 203 223 202
3 202 223 205
3 204 208 224
3 204 224 223
3 205 223 225
3 205 225 207
3 207 225 226
3 207 226 206
3 226 216 206
3 208 228 224
3 224 228 227
3 209 229 208
3 229 228 208
3 210 230 209
3 209 230 229
3 213 212 231
3 212 211 231
3 231 211 214
3 232 220 213
3 232 213 231
3 233 231 214
3 233 214 215
3 234 233 215
3 234 215 218
3 226 235 216
3 235 217 216
3 235 236 217
3 217 236 219
3 237 234 218
3 237 218 219
3 236 238 219
3 238 237 219
3 240 220 232
3 239 240 232
3 241 221 220
3 240 241 220
3 242 222 221
3 241 242 221
3 224 227 243
3 224 243 223
3 223 243 225
3 225 243 244
3 225 244 226
3 226 244 235
3 227 245 243
3 228 246 227
3 227 246 245
3 229 247 228
3 228 247 246
3 230 248 229
3 229 248 247
3 239 232 249
3 232 231 249
3 249 231 233
3 250 249 233
3 250 233 234
3 237 250 234
3 244 251 235
3 235 251 236
3 251 252 236
3 236 252 238
3 252 253 238
3 253 250 237
3 253 237 238
3 254 239 249
3 255 240 239
3 254 255 239
3 256 241 240
3 255 256 240
3 257 242 241
3 256 257 241
3 245 258 243
3 243 258 244
3 244 258 251
3 245 259 258
3 246 260 245
3 245 260 259
3 247 261 246
3 246 261 260
3 248 262 247
3 247 262 261
3 254 249 263
3 263 249 250
3 253 263 250
3 258 264 251
3 251 264 252
3 264 265 252
3 265 263 253
3 252 265 253
3 266 254 263
3 267 255 254
3 266 267 254
3 268 256 255
3 267 268 255
3 269 257 256
3 268 269 256
3 259 270 258
3 270 264 258
3 260 271 259
3 259 271 270
3 261 272 260
3 260 272 271
3 262 273 261
3 273 272 261
3 270 274 264
3 275 266 263
3 275 263 265
3 274 276 264
3 276 265 264
3 276 277 265
3 277 275 265
3 278 267 266
3 275 278 266
3 279 268 267
3 278 279 267
3 280 269 268
3 279 280 268
3 271 281 270
3 270 281 274
3 272 282 271
3 271 282 281
3 273 283 272
3 272 283 282
3 281 284 274
3 274 284 276
3 285 278 275
3 277 285 275
3 284 286 276
3 286 285 277
3 276 286 277
3 287 279 278
3 285 287 278
3 288 280 279
3 287 288 279
3 282 289 281
3 281 289 284
3 283 290 282
3 282 290 289
3 289 291 284
3 284 291 286
3 291 292 286
3 292 287 285
3 286 292 285
3 293 288 287
3 292 293 287
3 290 294 289
3 289 294 291
3 294 295 291
3 295 293 292
3 291 295 292
CELL_TYPES 542
5
5
5
5
5
5
5
5
5
5
5
5
5
5
5
5
5
5
5
5
5
5
5
5
5
5
5
5
5
5
5
5
5
5
5
5
5
5
5
5
5
5
5
5
5
5
5
5
5
5
5
5
5
5
5
5
5
5
5
5
5
5
5
5
5
5
5
5
5
5
5
5
5
5
5
5
5
5
5
5
5
5
5
5
5
5
5
5
5
5
5
5
5
5
5
5
5
5
5
5
5
5
5
5
5
5
5
5
5
5
5
5
5
5
5
5
5
5
5
5
5
5
5
5
5
5
5
5
5
5
5
5
5
5
5
5
5
5
5
5
5
5
5
5
5
5
5
5
5
5
5
5
5
5
5
5
5
5
5
5
5
5
5
5
5
5
5
5
5
5
5
5
5
5
5
5
5
5
5
5
5
5
5
5
5
5
5
5
5
5
5
5
5
5
5
5
5
5
5
5
5
5
5
5
5
5
5
5
5
5
5
5
5
5
5
5
5
5
5
5
5
5
5
5
5
5
5
5
5
5
5
5
5
5
5
5
5
5
5
5
5
5
5
5
5
5
5
5
5
5
5
5
5
5
5
5
5
5
5
5
5
5
5
5
5
5
5
5
5
5
5
5
5
5
5
5
5
5
5
5
5
5
5
5
5
5
5
5
5
5
5
5
5
5
5
5
5
5
5
5
5
5
5
5
5
5
5
5
5
5
5
5
5
5
5
5
5
5
5
5
5
5
5
5
5
5
5
5
5
5
5
5
5
5
5
5
5
5
5
5
5
5
5
5
5
5
5
5
5
5
5
5
5
5
5
5
5
5
5
5
5
5
5
5
5
5
5
5
5
5
5
5
5
5
5
5
5
5
5
5
5
5
5
5
5
5
5
5
5
5
5
5
5
5
5
5
5
5
5
5
5
5
5
5
5
5
5
5
5
5
5
5
5
5
5
5
5
5
5
5
5
5
5
5
5
5
5
5
5
5
5
5
5
5
5
5
5
5
5
5
5
5
5
5
5
5
5
5
5
5
5
5
5
5
5
5
5
5
5
5
5
5
5
5
5
5
5
5
5
5
5
5
5
5
5
5
5
5
5
5
5
5
5
5
5
5
5
5
5
5
5
5
5
5
5
5
5
5
5
5
5
5
5
5
5
5
5
5
5
5
5
5
5
5
5
5
5
5
5
5
5
5
5
5
5
5
5
5
5
5
5
5
5
5
5
5
5
5
5
5
5
5
POINT_DATA 296
SCALARS concentrations float 4
LOOKUP_TABLE default
0 1 0.0826635 0.0151382
0 1 0.0826637 0.014961
0 1 0.0826633 0.0153701
0 1 0.082663 0.0156348
0 1 0.0826587 0.0134265
0 1 0.0826637 0.0148854
0 1 0.0826638 0.0149374
0 1 0.0826589 0.0132664
0 1 0.082659 0.0131703
0 1 0.0826638 0.0151094
0 1 0.0826638 0.0153685
0 1 0.0826625 0.0158713
0 1 0.0826618 0.0160653
0 1 0.0826584 0.0136201
0 1 0.0826579 0.013789
0 1 0.0826545 0.0119518
0 1 0.0826545 0.0117259
0 1 0.082659 0.0131589
0 1 0.082659 0.0132568
0 1 0.0826548 0.0116866
0 1 0.0826548 0.0115974
0 1 0.0826636 0.0156943
0 1 0.0826634 0.0160605
0 1 0.082659 0.0134503
0 1 0.0826589 0.0137003
0 1 0.0826574 0.0139914
0 1 0.082661 0.0161967
0 1 0.0826567 0.014101
0 1 0.0826602 0.0162834
0 1 0.0826539 0.0120378
0 1 0.0826535 0.0121817
0 1 0.0826512 0.0107914
0 1 0.082663 0.0164115
0 1 0.0826503 0.0102216
0 1 0.0826514 0.0104907
0 1 0.0826548 0.0116554
0 1 0.0826548 0.0117548
0 1 0.0826506 0.0101068
0 1 0.0826514 0.0103961
0 1 0.0826589 0.0140508
0 1 0.0826585 0.0143112
0 1 0.0826548 0.011977
0 1 0.0826546 0.0121878
0 1 0.0826624 0.016712
0 1 0.0826529 0.0123106
0 1 0.0826561 0.0142468
0 1 0.0826525 0.0124962
0 1 0.0826594 0.0163243
0 1 0.0826554 0.0142887
0 1 0.0826588 0.0163333
0 1 0.0826497 0.0104554
0 1 0.0826499 0.0108896
0 1 0.0826462 0.00887177
0 1 0.082658 0.0146168
0 1 0.0826573 0.0147835
0 1 0.0826467 0.0087261
0 1 0.0826507 0.0102176
0 1 0.0826514 0.0106287
0 1 0.0826468 0.00872463
0 1 0.0826546 0.0125563
0 1 0.0826543 0.0128443
0 1 0.0826506 0.010564
0 1 0.0826513 0.0111011
0 1 0.0826617 0.0169477
0 1 0.0826489 0.0107573
0 1 0.0826518 0.0125305
0 1 0.0826492 0.0112231
0 1 0.0826548 0.0143244
0 1 0.0826512 0.0125662
0 1 0.0826585 0.0163366
0 1 0.0826543 0.0143041
0 1 0.0826585 0.0163249
0 1 0.0826414 0.00689886
0 1 0.0826454 0.00901992
0 1 0.0826411 0.00707878
0 1 0.0826537 0.0130707
0 1 0.0826567 0.0150162
0 1 0.0826531 0.0132034
0 1 0.0826421 0.00699984
0 1 0.0826382 0.00559843
0 1 0.0826467 0.00889683
0 1 0.0826419 0.00696687
0 1 0.0826502 0.01102
0 1 0.0826507 0.0116095
0 1 0.0826467 0.00931637
0 1 0.0826608 0.0171122
0 1 0.0826446 0.00921867
0 1 0.0826478 0.0108562
0 1 0.0826507 0.0125569
0 1 0.082648 0.0111943
0 1 0.0826542 0.0143195
0 1 0.0826505 0.0125787
0 1 0.082659 0.0163135
0 1 0.0826544 0.0142766
0 1 0.0826369 0.0052863
0 1 0.0826402 0.00713332
0 1 0.0826373 0.00571069
0 1 0.0826398 0.00727978
0 1 0.0826596 0.0162621
0 1 0.0826559 0.0151305
0 1 0.0826493 0.0114168
0 1 0.0826523 0.0133119
0 1 0.0826497 0.0119363
0 1 0.0826336 0.00388875
0 1 0.0826376 0.00534582
0 1 0.0826421 0.00731088
0 1 0.0826385 0.00581915
0 1 0.0826461 0.00970116
0 1 0.0826417 0.00753939
0 1 0.08266 0.0172178
0 1 0.0826438 0.00927038
0 1 0.0826471 0.0109295
0 1 0.0826505 0.0125193
0 1 0.0826476 0.011193
0 1 0.0826549 0.0142593
0 1 0.0826508 0.0125138
0 1 0.0826554 0.0141638
0 1 0.0826297 0.00245137
0 1 0.0826302 0.00265856
0 1 0.0826326 0.00378356
0 1 0.082636 0.00543313
0 1 0.0826391 0.00719447
0 1 0.0826362 0.0057507
0 1 0.0826286 0.0020964
0 1 0.0826604 0.0161565
0 1 0.0826552 0.0152079
0 1 0.0826515 0.0133323
0 1 0.0826454 0.0100215
0 1 0.0826481 0.011567
0 1 0.0826339 0.00410332
0 1 0.0826376 0.00574036
0 1 0.0826414 0.00799612
0 1 0.0826379 0.00623056
0 1 0.0826546 0.0152591
0 1 0.0826592 0.0172718
0 1 0.0826436 0.0093141
0 1 0.0826471 0.0108647
0 1 0.0826512 0.0124258
0 1 0.082648 0.0110857
0 1 0.0826561 0.0140581
0 1 0.0826518 0.0123466
0 1 0.0826393 0.00717654
0 1 0.0826295 0.00264249
0 1 0.082627 0.00140082
0 1 0.082632 0.00378062
0 1 0.0826353 0.00539478
0 1 0.0826362 0.00559804
0 1 0.0826285 0.00213277
0 1 0.082625 0.000407846
0 1 0.0826567 0.0138763
0 1 0.0826611 0.0160064
0 1 0.0826407 0.00812403
0 1 0.082651 0.0134312
0 1 0.0826477 0.0117277
0 1 0.0826444 0.0100609
0 1 0.0826508 0.0135534
0 1 0.0826333 0.00433364
0 1 0.0826364 0.00609385
0 1 0.0826295 0.00304667
0 1 0.0826376 0.00699054
0 1 0.0826544 0.0152795
0 1 0.0826587 0.0172931
0 1 0.0826438 0.00915637
0 1 0.0826478 0.0107199
0 1 0.0826523 0.0121798
0 1 0.0826489 0.0108873
0 1 0.0826528 0.0120471
0 1 0.0826395 0.00694098
0 1 0.0826259 0.00155317
0 1 0.082632 0.00367648
0 1 0.0826359 0.00517287
0 1 0.0826281 0.00181369
0 1 0.0826261 0.00122553
0 1 0.0826572 0.0136718
0 1 0.0826618 0.0157973
0 1 0.0826406 0.00857509
0 1 0.0826473 0.0118423
0 1 0.0826446 0.0104454
0 1 0.0826506 0.0135106
0 1 0.0826479 0.0122312
0 1 0.082632 0.00435387
0 1 0.0826348 0.00574705
0 1 0.082629 0.0031078
0 1 0.0826365 0.00677462
0 1 0.0826391 0.0080633
0 1 0.0826507 0.0134167
0 1 0.0826543 0.01518
0 1 0.0826586 0.0172784
0 1 0.0826445 0.00897071
0 1 0.0826486 0.0104799
0 1 0.0826531 0.0117918
0 1 0.0826499 0.0106518
0 1 0.0826403 0.00688013
0 1 0.0826372 0.0054226
0 1 0.0826283 0.00279419
0 1 0.0826327 0.00360155
0 1 0.0826296 0.00232305
0 1 0.08263 0.00306819
0 1 0.0826301 0.00267667
0 1 0.0826535 0.0116339
0 1 0.0826576 0.013427
0 1 0.0826623 0.0155393
0 1 0.0826434 0.0100758
0 1 0.0826469 0.0117049
0 1 0.082648 0.0120878
0 1 0.0826403 0.00863076
0 1 0.0826322 0.00477664
0 1 0.0826368 0.00698673
0 1 0.0826512 0.0134041
0 1 0.0826548 0.0151922
0 1 0.0826589 0.0172432
0 1 0.0826451 0.00868881
0 1 0.0826493 0.0101344
0 1 0.0826504 0.0102668
0 1 0.0826407 0.00665279
0 1 0.0826368 0.00505206
0 1 0.0826321 0.00435944
0 1 0.0826334 0.00451107
0 1 0.0826334 0.00374636
0 1 0.0826337 0.00414995
0 1 0.0826534 0.0113296
0 1 0.0826578 0.0131432
0 1 0.0826627 0.0152524
0 1 0.082644 0.0102056
0 1 0.0826477 0.0116735
0 1 0.0826399 0.00816417
0 1 0.0826357 0.00617382
0 1 0.0826491 0.0119429
0 1 0.0826517 0.0132662
0 1 0.0826554 0.015107
0 1 0.0826595 0.0171661
0 1 0.0826458 0.00850034
0 1 0.0826497 0.00983776
0 1 0.0826411 0.00658596
0 1 0.0826378 0.00532864
0 1 0.082636 0.00584385
0 1 0.0826368 0.00565025
0 1 0.0826372 0.00521984
0 1 0.0826377 0.00564143
0 1 0.0826509 0.0101373
0 1 0.0826539 0.0113171
0 1 0.082658 0.0129618
0 1 0.0826629 0.0149893
0 1 0.0826444 0.00988131
0 1 0.08264 0.00773644
0 1 0.0826485 0.01129
0 1 0.0826523 0.0131086
0 1 0.082656 0.0149484
0 1 0.0826602 0.0170543
0 1 0.0826461 0.00835644
0 1 0.0826413 0.00660947
0 1 0.0826406 0.00743734
0 1 0.082641 0.00707482
0 1 0.0826413 0.00679126
0 1 0.08265 0.00974803
0 1 0.082654 0.0112209
0 1 0.0826583 0.0128627
0 1 0.0826631 0.0147724
0 1 0.0826452 0.00952843
0 1 0.0826496 0.0113769
0 1 0.0826526 0.0128574
0 1 0.0826565 0.0147202
0 1 0.082661 0.0168811
0 1 0.0826462 0.00841929
0 1 0.0826458 0.00910767
0 1 0.0826461 0.00870643
0 1 0.0826509 0.0101182
0 1 0.0826541 0.0112539
0 1 0.0826584 0.0128089
0 1 0.0826633 0.014636
0 1 0.0826493 0.0108401
0 1 0.0826532 0.0126205
0 1 0.0826572 0.0144965
0 1 0.0826617 0.016654
0 1 0.0826505 0.0109548
0 1 0.0826499 0.0098898
0 1 0.0826499 0.0103855
0 1 0.0826508 0.0104426
0 1 0.082654 0.0113186
0 1 0.0826583 0.0128208
0 1 0.0826633 0.0146121
0 1 0.0826535 0.0123254
0 1 0.0826576 0.0141897
0 1 0.0826623 0.0163589
0 1 0.0826539 0.0120681
0 1 0.0826541 0.0115179
0 1 0.0826539 0.0117376
0 1 0.0826582 0.0129247
0 1 0.0826633 0.0147129
0 1 0.082658 0.0138773
0 1 0.0826628 0.0160062
0 1 0.0826582 0.0135302
0 1 0.0826583 0.0132277
0 1 0.0826633 0.0149284
0 1 0.0826631 0.0156204
0 1 0.0826632 0.0152458
VECTORS fa_u float
0.0060296 0.00249752 -0
0.00565203 0.00326319 -0
0.00630398 0.00168913 -0
0.0064705 0.000851838 -0
1e-08 0 0
0.00517775 0.00397302 -0
0.00461487 0.00461487 -0
1e-08 0 0
1e-08 0 0
0.00397302 0.00517775 -0
0.00326319 0.00565202 -0
0.00652632 -2.08085e-08 -0
0.00647047 -0.000851877 0
1e-08 0 0
1e-08 0 0
1e-08 0 0
1e-08 0 0
1e-08 0 0
1e-08 0 0
1e-08 0 0
1e-08 0 0
0.00249752 0.00602958 -0
0.00168913 0.00630399 -0
1e-08 0 0
1e-08 0 0
1e-08 0 0
0.00630389 -0.00168914 0
1e-08 0 0
0.00602944 -0.0024975 0
1e-08 0 0
1e-08 0 0
1e-08 0 0
0.000851843 0.00647052 -0
1e-08 0 0
1e-08 0 0
1e-08 0 0
1e-08 0 0
1e-08 0 0
1e-08 0 0
1e-08 0 0
1e-08 0 0
1e-08 0 0
1e-08 0 0
-2.06745e-08 0.0065263 -0
1e-08 0 0
1e-08 0 0
1e-08 0 0
0.00565186 -0.00326312 0
1e-08 0 0
0.00517758 -0.00397291 0
1e-08 0 0
1e-08 0 0
1e-08 0 0
1e-08 0 0
1e-08 0 0
1e-08 0 0
1e-08 0 0
1e-08 0 0
1e-08 0 0
1e-08 0 0
1e-08 0 0
1e-08 0 0
1e-08 0 0
-0.000851868 0.00647043 0
1e-08 0 0
1e-08 0 0
1e-08 0 0
1e-08 0 0
1e-08 0 0
0.00461472 -0.00461472 0
1e-08 0 0
0.0039729 -0.00517758 0
1e-08 0 0
1e-08 0 0
1e-08 0 0
1e-08 0 0
1e-08 0 0
1e-08 0 0
1e-08 0 0
1e-08 0 0
1e-08 0 0
1e-08 0 0
1e-08 0 0
1e-08 0 0
1e-08 0 0
-0.00168913 0.00630387 0
1e-08 0 0
1e-08 0 0
1e-08 0 0
1e-08 0 0
1e-08 0 0
1e-08 0 0
0.00326311 -0.00565186 0
1e-08 0 0
1e-08 0 0
1e-08 0 0
1e-08 0 0
1e-08 0 0
0.00249749 -0.00602943 0
1e-08 0 0
1e-08 0 0
1e-08 0 0
1e-08 0 0
1e-08 0 0
1e-08 0 0
1e-08 0 0
1e-08 0 0
1e-08 0 0
1e-08 0 0
-0.00249749 0.00602944 0
1e-08 0 0
1e-08 0 0
1e-08 0 0
1e-08 0 0
1e-08 0 0
1e-08 0 0
1e-08 0 0
1e-08 0 0
1e-08 0 0
1e-08 0 0
1e-08 0 0
1e-08 0 0
1e-08 0 0
1e-08 0 0
0.00168913 -0.00630387 0
1e-08 0 0
1e-08 0 0
1e-08 0 0
1e-08 0 0
1e-08 0 0
1e-08 0 0
1e-08 0 0
1e-08 0 0
1e-08 0 0
-0.00326311 0.00565186 0
1e-08 0 0
1e-08 0 0
1e-08 0 0
1e-08 0 0
1e-08 0 0
1e-08 0 0
1e-08 0 0
1e-08 0 0
1e-08 0 0
1e-08 0 0
1e-08 0 0
1e-08 0 0
1e-08 0 0
1e-08 0 0
1e-08 0 0
0.000851868 -0.00647043 0
1e-08 0 0
1e-08 0 0
1e-08 0 0
1e-08 0 0
1e-08 0 0
1e-08 0 0
1e-08 0 0
1e-08 0 0
1e-08 0 0
1e-08 0 0
-0.0039729 0.00517758 0
1e-08 0 0
1e-08 0 0
1e-08 0 0
1e-08 0 0
1e-08 0 0
1e-08 0 0
1e-08 0 0
1e-08 0 0
1e-08 0 0
1e-08 0 0
1e-08 0 0
1e-08 0 0
2.07214e-08 -0.0065263 0
1e-08 0 0
1e-08 0 0
1e-08 0 0
1e-08 0 0
1e-08 0 0
1e-08 0 0
1e-08 0 0
1e-08 0 0
1e-08 0 0
1e-08 0 0
1e-08 0 0
1e-08 0 0
-0.00461472 0.00461472 0
1e-08 0 0
1e-08 0 0
1e-08 0 0
1e-08 0 0
1e-08 0 0
1e-08 0 0
1e-08 0 0
1e-08 0 0
1e-08 0 0
1e-08 0 0
1e-08 0 0
1e-08 0 0
1e-08 0 0
-0.000851843 -0.00647052 0
1e-08 0 0
1e-08 0 0
1e-08 0 0
1e-08 0 0
1e-08 0 0
1e-08 0 0
1e-08 0 0
1e-08 0 0
-0.00517758 0.00397291 0
1e-08 0 0
1e-08 0 0
1e-08 0 0
1e-08 0 0
1e-08 0 0
1e-08 0 0
1e-08 0 0
1e-08 0 0
1e-08 0 0
1e-08 0 0
1e-08 0 0
-0.00168913 -0.00630399 0
1e-08 0 0
1e-08 0 0
1e-08 0 0
1e-08 0 0
1e-08 0 0
1e-08 0 0
1e-08 0 0
-0.00565186 0.00326312 0
1e-08 0 0
1e-08 0 0
1e-08 0 0
1e-08 0 0
1e-08 0 0
1e-08 0 0
1e-08 0 0
1e-08 0 0
1e-08 0 0
1e-08 0 0
1e-08 0 0
-0.00249752 -0.00602958 0
1e-08 0 0
1e-08 0 0
1e-08 0 0
1e-08 0 0
1e-08 0 0
-0.00602944 0.0024975 0
1e-08 0 0
1e-08 0 0
1e-08 0 0
1e-08 0 0
1e-08 0 0
1e-08 0 0
1e-08 0 0
1e-08 0 0
-0.00326319 -0.00565202 0
1e-08 0 0
1e-08 0 0
1e-08 0 0
1e-08 0 0
-0.0063039 0.00168914 0
1e-08 0 0
1e-08 0 0
1e-08 0 0
1e-08 0 0
1e-08 0 0
1e-08 0 0
-0.00397302 -0.00517775 0
1e-08 0 0
1e-08 0 0
1e-08 0 0
-0.00647047 0.000851877 0
1e-08 0 0
1e-08 0 0
1e-08 0 0
1e-08 0 0
1e-08 0 0
1e-08 0 0
-0.00461487 -0.00461487 0
1e-08 0 0
1e-08 0 0
-0.00652631 2.08136e-08 0
1e-08 0 0
1e-08 0 0
1e-08 0 0
1e-08 0 0
-0.00517775 -0.00397302 0
1e-08 0 0
-0.00647051 -0.000851838 0
1e-08 0 0
1e-08 0 0
-0.00565203 -0.00326319 0
-0.00630399 -0.00168913 0
-0.00602959 -0.00249752 0
