# vtk DataFile Version 2.0
CellBP Time: 0.175
ASCII
DATASET UNSTRUCTURED_GRID
POINTS 296 double
-9.18881 -3.77685 0
-8.61027 -4.95002 0
-9.60927 -2.53821 0
-9.86446 -1.25528 0
-8.35807 -2.81889 0
-7.88355 -6.03763 0
-7.02109 -7.02108 0
-7.91771 -3.87496 0
-7.34312 -4.86816 0
-6.03764 -7.88355 0
-4.95003 -8.61027 0
-9.95001 0.0499782 0
-9.86445 1.35524 0
-8.65818 -1.68405 0
-8.78682 -0.529674 0
-7.5902 -2.00428 0
-7.22624 -2.90668 0
-6.63808 -5.77927 0
-5.82281 -6.59735 0
-6.79075 -3.88919 0
-6.22102 -4.67625 0
-3.77686 -9.18881 0
-2.53822 -9.60927 0
-4.90682 -7.30931 0
-3.91329 -7.88677 0
-8.79327 0.643416 0
-9.60926 2.63818 0
-8.62379 1.77417 0
-9.18879 3.87682 0
-7.74481 -0.929056 0
-7.79504 0.0802424 0
-6.95303 -1.31598 0
-1.25528 -9.86446 0
-6.44192 -2.15328 0
-6.31982 -3.05635 0
-5.53694 -5.47497 0
-4.79627 -6.11593 0
-5.65943 -3.75728 0
-5.26978 -4.56193 0
-2.86638 -8.36451 0
-1.7787 -8.64084 0
-3.92844 -6.72406 0
-3.05686 -7.15314 0
0.0499797 -9.95001 0
-7.70604 1.14357 0
-8.33912 2.9156 0
-7.55244 2.1121 0
-8.61025 5.04999 0
-7.88059 3.97849 0
-7.88352 6.1376 0
-6.77917 -0.396897 0
-6.95704 0.552567 0
-5.77177 -1.00348 0
-0.590896 -8.81034 0
0.565704 -8.77153 0
-5.30347 -2.48044 0
-4.4923 -5.09611 0
-3.9028 -5.77576 0
-4.43921 -3.80501 0
-2.06259 -7.56254 0
-1.13558 -7.78646 0
-2.99478 -6.10253 0
-2.30921 -6.62031 0
1.35524 -9.86445 0
-6.68995 1.42213 0
-7.17274 3.11834 0
-6.65977 2.37318 0
-7.29527 4.98902 0
-6.71862 4.00337 0
-7.02105 7.12106 0
-6.573 5.8946 0
-6.0376 7.98353 0
-4.45338 -1.18115 0
-5.81499 0.513779 0
-4.65645 -0.0103925 0
0.00850609 -7.84876 0
1.73868 -8.6445 0
0.949028 -7.7641 0
-4.03876 -2.40654 0
-3.48576 -1.39129 0
-3.29475 -4.80568 0
-3.26608 -3.268 0
-1.3787 -6.67601 0
-0.508796 -7.02554 0
-1.97571 -5.53743 0
2.63817 -9.60926 0
-5.50773 2.03706 0
-6.09523 3.07246 0
-6.10564 4.87007 0
-5.76225 3.99183 0
-5.76181 6.71775 0
-5.45265 5.61991 0
-4.94998 8.71025 0
-4.83891 7.40527 0
-3.50171 -0.424338 0
-4.4496 1.24911 0
-3.71171 0.592102 0
-4.06244 2.31997 0
-3.77681 9.28879 0
2.86285 -8.33364 0
0.419713 -6.79607 0
2.0222 -7.52659 0
1.3062 -6.90625 0
-2.44482 -0.873872 0
-2.83856 -2.13127 0
-2.29457 -4.09766 0
-2.3258 -2.9738 0
-0.442432 -5.86166 0
-1.22282 -4.49946 0
3.87682 -9.18879 0
-4.79019 3.39207 0
-5.08844 4.5946 0
-4.64767 6.28212 0
-4.53934 5.3603 0
-3.84413 7.99422 0
-3.82716 6.84648 0
-2.7836 8.42377 0
-1.64915 -0.137912 0
-1.45035 -0.890645 0
-2.48927 0.507281 0
-3.25384 1.44424 0
-3.23927 3.31681 0
-2.91118 2.37193 0
-1.35518 0.62714 0
-2.53817 9.70926 0
3.93311 -7.88784 0
2.96487 -7.15855 0
0.954168 -5.82257 0
2.07456 -6.41623 0
-1.68308 -1.99219 0
-1.43453 -3.27801 0
0.0902171 -4.74737 0
-0.566221 -3.69469 0
4.9327 -7.31964 0
5.04998 -8.61025 0
-3.7773 4.55204 0
-3.73517 5.75279 0
-2.88831 7.29075 0
-3.01004 6.35447 0
-1.66273 8.7347 0
-1.94034 7.6203 0
-2.33856 4.05201 0
-0.730777 -1.32733 0
-0.836947 -0.257644 0
-1.93633 1.68088 0
-2.12591 2.87604 0
-1.30666 3.54496 0
-0.869509 1.35091 0
-0.282381 0.456073 0
-0.533565 8.87278 0
-1.25524 9.96445 0
1.11288 -4.575 0
3.91062 -6.71816 0
2.98827 -6.09552 0
2.11807 -5.42554 0
4.78506 -6.20618 0
-0.558893 -2.47698 0
0.495141 -3.4641 0
0.0535534 -1.61058 0
1.48201 -3.68247 0
5.86794 -6.61554 0
6.1376 -7.88353 0
-2.47593 5.34904 0
-2.1307 6.53528 0
-0.904176 7.80436 0
-1.2725 6.93297 0
0.0862333 7.88149 0
-1.14455 4.49512 0
0.150329 -0.617682 0
-0.797475 2.48867 0
-0.331667 3.60102 0
0.0631137 1.51282 0
0.741483 0.473451 0
0.646894 8.87547 0
0.0500227 10.05 0
2.38125 -4.28568 0
3.85969 -5.64121 0
3.00182 -5.2134 0
5.57461 -5.49265 0
4.6917 -5.28382 0
0.629714 -2.29352 0
1.25627 -2.95146 0
0.757545 -1.39154 0
2.16454 -3.13611 0
2.99409 -3.47696 0
6.15617 -4.79256 0
6.65661 -5.7702 0
7.12106 -7.02106 0
-1.01974 5.82105 0
-0.372656 6.88459 0
1.12283 7.77081 0
0.558076 7.0809 0
-0.000754395 4.72568 0
0.607067 3.82819 0
1.33901 -0.641936 0
0.539147 2.65126 0
0.966156 1.57505 0
1.91034 0.213887 0
1.61489 1.06511 0
2.12979 7.5849 0
1.79953 8.71386 0
1.35528 9.96446 0
3.82333 -4.35219 0
5.11741 -4.44974 0
5.84675 -3.93581 0
3.78447 -3.20145 0
1.81244 -1.88278 0
3.01949 -2.57417 0
6.78463 -3.94859 0
7.38278 -4.89767 0
7.98353 -6.0376 0
0.483439 5.88239 0
1.42844 6.7431 0
2.3748 6.67034 0
1.21014 4.55676 0
1.48835 3.39802 0
2.43604 -0.692084 0
2.82836 0.142625 0
1.78907 2.16307 0
2.61217 1.15028 0
3.07266 7.17157 0
2.90481 8.37847 0
2.63822 9.70927 0
4.91207 -3.32841 0
6.12187 -3.10926 0
4.17346 -2.27557 0
3.24484 -1.50308 0
6.73275 -2.3135 0
7.23362 -3.04318 0
7.96658 -3.91306 0
8.71025 -4.94999 0
2.02397 5.60078 0
3.08718 6.15493 0
2.36427 4.12753 0
2.42041 3.0613 0
3.52616 -0.460911 0
3.61622 0.61338 0
2.96225 2.2884 0
3.54612 1.5255 0
4.0132 5.89961 0
3.98555 6.79501 0
3.97436 7.94079 0
3.87686 9.28881 0
5.56994 -1.91652 0
4.50997 -1.12978 0
6.71567 -1.33643 0
7.59461 -2.03694 0
8.39943 -2.8621 0
9.28879 -3.77682 0
3.41988 4.87809 0
3.33961 3.38599 0
4.69212 0.130108 0
4.52002 1.31022 0
4.06609 2.44427 0
4.57199 5.15407 0
4.8453 6.19283 0
4.98204 7.3828 0
5.05003 8.71027 0
5.88496 -0.434993 0
7.01313 -0.488377 0
7.76212 -1.08562 0
8.68762 -1.74647 0
9.70926 -2.53818 0
4.5537 3.82862 0
5.8194 1.0989 0
5.3728 2.53566 0
5.38211 4.62233 0
5.61433 5.52566 0
5.89937 6.67436 0
6.13764 7.98355 0
6.84863 0.463717 0
7.85637 -0.0256301 0
8.86367 -0.58453 0
9.96446 -1.25524 0
6.96329 1.34999 0
5.72338 3.77996 0
6.5441 2.19839 0
6.38289 3.08929 0
6.29517 4.689 0
6.69583 5.84021 0
7.12109 7.12108 0
7.78766 0.96803 0
8.86302 0.572995 0
10.05 0.0500212 0
7.61957 2.00518 0
6.83227 3.90603 0
7.27284 2.94813 0
7.38149 4.88786 0
7.98356 6.13763 0
8.72662 1.72764 0
9.96446 1.35528 0
8.42455 2.83898 0
7.98504 3.91798 0
8.71027 5.05002 0
9.70927 2.63821 0
9.28881 3.87685 0
CELLS 542 2168
3 2 0 4
3 0 1 7
3 4 0 7
3 1 5 8
3 7 1 8
3 3 2 13
3 13 2 4
3 11 3 14
3 14 3 13
3 13 4 15
3 4 7 16
3 15 4 16
3 5 6 17
3 8 5 17
3 6 9 18
3 17 6 18
3 7 8 19
3 16 7 19
3 8 17 20
3 19 8 20
3 9 10 23
3 18 9 23
3 10 21 24
3 23 10 24
3 12 11 25
3 25 11 14
3 26 12 27
3 27 12 25
3 14 13 29
3 29 13 15
3 25 14 30
3 30 14 29
3 29 15 31
3 15 16 33
3 31 15 33
3 16 19 34
3 33 16 34
3 17 18 35
3 20 17 35
3 18 23 36
3 35 18 36
3 19 20 37
3 34 19 37
3 20 35 38
3 37 20 38
3 21 22 39
3 24 21 39
3 22 32 40
3 39 22 40
3 23 24 41
3 36 23 41
3 24 39 42
3 41 24 42
3 27 25 44
3 44 25 30
3 28 26 45
3 45 26 27
3 45 27 46
3 46 27 44
3 47 28 48
3 48 28 45
3 30 29 50
3 50 29 31
3 44 30 51
3 51 30 50
3 50 31 52
3 31 33 52
3 32 43 53
3 40 32 53
3 53 43 54
3 33 34 55
3 34 37 55
3 33 55 52
3 35 36 56
3 38 35 56
3 36 41 57
3 56 36 57
3 37 38 58
3 38 56 58
3 37 58 55
3 39 40 59
3 42 39 59
3 40 53 60
3 59 40 60
3 41 42 61
3 57 41 61
3 42 59 62
3 61 42 62
3 43 63 54
3 46 44 64
3 64 44 51
3 48 45 65
3 65 45 46
3 65 46 66
3 66 46 64
3 49 47 67
3 67 47 48
3 67 48 68
3 68 48 65
3 69 49 70
3 70 49 67
3 52 55 72
3 64 51 73
3 51 50 73
3 50 52 73
3 73 52 74
3 74 52 72
3 53 54 75
3 60 53 75
3 54 63 76
3 54 76 77
3 75 54 77
3 55 58 78
3 72 55 78
3 72 78 79
3 56 57 80
3 57 61 80
3 56 80 58
3 58 80 81
3 78 58 81
3 59 60 82
3 62 59 82
3 60 75 83
3 82 60 83
3 61 62 84
3 62 82 84
3 61 84 80
3 63 85 76
3 66 64 86
3 64 73 86
3 68 65 87
3 87 65 66
3 87 66 86
3 70 67 88
3 88 67 68
3 88 68 89
3 89 68 87
3 71 69 90
3 90 69 70
3 90 70 91
3 91 70 88
3 92 71 93
3 93 71 90
3 74 72 94
3 94 72 79
3 86 73 95
3 95 73 74
3 95 74 96
3 96 74 94
3 97 86 95
3 76 85 99
3 75 77 100
3 83 75 100
3 76 99 101
3 77 76 101
3 77 101 102
3 100 77 102
3 94 79 103
3 78 81 104
3 79 78 104
3 79 104 103
3 80 84 105
3 81 80 105
3 81 105 106
3 104 81 106
3 82 83 107
3 83 100 107
3 82 107 84
3 84 107 108
3 105 84 108
3 85 109 99
3 89 87 110
3 87 86 110
3 110 86 97
3 91 88 111
3 111 88 89
3 111 89 110
3 93 90 112
3 112 90 91
3 112 91 113
3 113 91 111
3 98 92 114
3 114 92 93
3 114 93 115
3 115 93 112
3 116 98 114
3 117 103 118
3 96 94 119
3 94 103 119
3 119 103 117
3 97 95 120
3 120 95 96
3 120 96 119
3 121 110 97
3 121 97 122
3 122 97 120
3 123 119 117
3 124 98 116
3 99 109 125
3 99 125 126
3 101 99 126
3 100 102 127
3 100 127 107
3 101 126 128
3 102 101 128
3 102 128 127
3 104 106 129
3 104 129 103
3 103 129 118
3 105 108 130
3 106 105 130
3 106 130 129
3 107 127 131
3 108 107 131
3 108 131 132
3 108 132 130
3 109 134 125
3 125 134 133
3 113 111 135
3 111 110 135
3 135 110 121
3 115 112 136
3 136 112 113
3 136 113 135
3 116 114 137
3 137 114 115
3 137 115 138
3 138 115 136
3 139 124 116
3 139 116 140
3 140 116 137
3 141 135 121
3 118 129 142
3 118 142 143
3 117 118 143
3 123 117 143
3 122 120 144
3 120 119 144
3 144 119 123
3 141 121 145
3 145 121 122
3 145 122 144
3 146 141 145
3 147 144 123
3 147 123 148
3 143 148 123
3 150 124 139
3 149 150 139
3 131 127 151
3 125 133 152
3 126 125 152
3 126 152 153
3 128 126 153
3 128 153 154
3 128 154 127
3 127 154 151
3 152 133 155
3 130 132 156
3 130 156 129
3 129 156 142
3 131 151 157
3 132 131 157
3 132 157 156
3 156 158 142
3 157 151 159
3 133 160 155
3 134 161 133
3 133 161 160
3 138 136 162
3 136 135 162
3 162 135 141
3 140 137 163
3 163 137 138
3 163 138 162
3 149 139 164
3 164 139 140
3 164 140 165
3 165 140 163
3 166 149 164
3 167 162 141
3 167 141 146
3 142 158 168
3 143 142 168
3 143 168 148
3 146 145 169
3 145 144 169
3 169 144 147
3 170 167 146
3 170 146 169
3 171 169 147
3 171 147 148
3 171 148 172
3 168 172 148
3 173 149 166
3 174 150 149
3 173 174 149
3 154 175 151
3 151 175 159
3 152 155 176
3 153 152 176
3 153 176 177
3 153 177 154
3 154 177 175
3 155 160 178
3 155 178 179
3 176 155 179
3 156 157 180
3 156 180 158
3 157 159 181
3 157 181 180
3 158 180 182
3 158 182 168
3 159 175 183
3 159 183 181
3 175 184 183
3 160 186 178
3 178 186 185
3 161 187 160
3 160 187 186
3 165 163 188
3 163 162 188
3 188 162 167
3 166 164 189
3 189 164 165
3 189 165 188
3 190 173 166
3 190 166 191
3 191 166 189
3 192 188 167
3 192 167 170
3 193 192 170
3 182 194 168
3 194 172 168
3 193 170 195
3 170 169 195
3 195 169 171
3 196 195 171
3 196 171 172
3 194 197 172
3 197 198 172
3 198 196 172
3 200 173 190
3 199 200 190
3 201 174 173
3 200 201 173
3 176 179 202
3 177 176 202
3 177 202 175
3 175 202 184
3 178 185 203
3 178 203 179
3 179 203 202
3 203 185 204
3 202 205 184
3 183 206 181
3 180 181 206
3 180 206 182
3 182 206 194
3 183 184 207
3 205 207 184
3 183 207 206
3 185 208 204
3 186 209 185
3 185 209 208
3 187 210 186
3 186 210 209
3 191 189 211
3 189 188 211
3 211 188 192
3 199 190 212
3 212 190 191
3 212 191 211
3 213 199 212
3 214 211 192
3 214 192 193
3 215 214 193
3 215 193 195
3 206 216 194
3 216 197 194
3 216 217 197
3 215 195 218
3 218 195 196
3 198 218 196
3 217 219 197
3 219 218 198
3 197 219 198
3 220 199 213
3 221 200 199
3 220 221 199
3 222 201 200
3 221 222 200
3 203 204 223
3 203 223 202
3 202 223 205
3 204 208 224
3 204 224 223
3 205 223 225
3 205 225 207
3 207 225 226
3 207 226 206
3 226 216 206
3 208 228 224
3 224 228 227
3 209 229 208
3 229 228 208
3 210 230 209
3 209 230 229
3 213 212 231
3 212 211 231
3 231 211 214
3 232 220 213
3 232 213 231
3 233 231 214
3 233 214 215
3 234 233 215
3 234 215 218
3 226 235 216
3 235 217 216
3 235 236 217
3 217 236 219
3 237 234 218
3 237 218 219
3 236 238 219
3 238 237 219
3 240 220 232
3 239 240 232
3 241 221 220
3 240 241 220
3 242 222 221
3 241 242 221
3 224 227 243
3 224 243 223
3 223 243 225
3 225 243 244
3 225 244 226
3 226 244 235
3 227 245 243
3 228 246 227
3 227 246 245
3 229 247 228
3 228 247 246
3 230 248 229
3 229 248 247
3 239 232 249
3 232 231 249
3 249 231 233
3 250 249 233
3 250 233 234
3 237 250 234
3 244 251 235
3 235 251 236
3 251 252 236
3 236 252 238
3 252 253 238
3 253 250 237
3 253 237 238
3 254 239 249
3 255 240 239
3 254 255 239
3 256 241 240
3 255 256 240
3 257 242 241
3 256 257 241
3 245 258 243
3 243 258 244
3 244 258 251
3 245 259 258
3 246 260 245
3 245 260 259
3 247 261 246
3 246 261 260
3 248 262 247
3 247 262 261
3 254 249 263
3 263 249 250
3 253 263 250
3 258 264 251
3 251 264 252
3 264 265 252
3 265 263 253
3 252 265 253
3 266 254 263
3 267 255 254
3 266 267 254
3 268 256 255
3 267 268 255
3 269 257 256
3 268 269 256
3 259 270 258
3 270 264 258
3 260 271 259
3 259 271 270
3 261 272 260
3 260 272 271
3 262 273 261
3 273 272 261
3 270 274 264
3 275 266 263
3 275 263 265
3 274 276 264
3 276 265 264
3 276 277 265
3 277 275 265
3 278 267 266
3 275 278 266
3 279 268 267
3 278 279 267
3 280 269 268
3 279 280 268
3 271 281 270
3 270 281 274
3 272 282 271
3 271 282 281
3 273 283 272
3 272 283 282
3 281 284 274
3 274 284 276
3 285 278 275
3 277 285 275
3 284 286 276
3 286 285 277
3 276 286 277
3 287 279 278
3 285 287 278
3 288 280 279
3 287 288 279
3 282 289 281
3 281 289 284
3 283 290 282
3 282 290 289
3 289 291 284
3 284 291 286
3 291 292 286
3 292 287 285
3 286 292 285
3 293 288 287
3 292 293 287
3 290 294 289
3 289 294 291
3 294 295 291
3 295 293 292
3 291 295 292
CELL_TYPES 542
5
5
5
5
5
5
5
5
5
5
5
5
5
5
5
5
5
5
5
5
5
5
5
5
5
5
5
5
5
5
5
5
5
5
5
5
5
5
5
5
5
5
5
5
5
5
5
5
5
5
5
5
5
5
5
5
5
5
5
5
5
5
5
5
5
5
5
5
5
5
5
5
5
5
5
5
5
5
5
5
5
5
5
5
5
5
5
5
5
5
5
5
5
5
5
5
5
5
5
5
5
5
5
5
5
5
5
5
5
5
5
5
5
5
5
5
5
5
5
5
5
5
5
5
5
5
5
5
5
5
5
5
5
5
5
5
5
5
5
5
5
5
5
5
5
5
5
5
5
5
5
5
5
5
5
5
5
5
5
5
5
5
5
5
5
5
5
5
5
5
5
5
5
5
5
5
5
5
5
5
5
5
5
5
5
5
5
5
5
5
5
5
5
5
5
5
5
5
5
5
5
5
5
5
5
5
5
5
5
5
5
5
5
5
5
5
5
5
5
5
5
5
5
5
5
5
5
5
5
5
5
5
5
5
5
5
5
5
5
5
5
5
5
5
5
5
5
5
5
5
5
5
5
5
5
5
5
5
5
5
5
5
5
5
5
5
5
5
5
5
5
5
5
5
5
5
5
5
5
5
5
5
5
5
5
5
5
5
5
5
5
5
5
5
5
5
5
5
5
5
5
5
5
5
5
5
5
5
5
5
5
5
5
5
5
5
5
5
5
5
5
5
5
5
5
5
5
5
5
5
5
5
5
5
5
5
5
5
5
5
5
5
5
5
5
5
5
5
5
5
5
5
5
5
5
5
5
5
5
5
5
5
5
5
5
5
5
5
5
5
5
5
5
5
5
5
5
5
5
5
5
5
5
5
5
5
5
5
5
5
5
5
5
5
5
5
5
5
5
5
5
5
5
5
5
5
5
5
5
5
5
5
5
5
5
5
5
5
5
5
5
5
5
5
5
5
5
5
5
5
5
5
5
5
5
5
5
5
5
5
5
5
5
5
5
5
5
5
5
5
5
5
5
5
5
5
5
5
5
5
5
5
5
5
5
5
5
5
5
5
5
5
5
5
5
5
5
5
5
5
5
5
5
5
5
5
5
5
5
5
5
5
5
5
5
5
5
5
5
5
5
5
5
5
5
5
5
5
5
5
5
5
5
5
5
5
5
5
5
5
5
5
5
5
5
5
5
5
5
5
5
5
5
5
5
5
5
5
5
5
5
5
POINT_DATA 296
SCALARS concentrations float 4
LOOKUP_TABLE default
0 1 0.0776544 0.0113606
0 1 0.0776549 0.0113646
0 1 0.0776538 0.0113395
0 1 0.077653 0.0112964
0 1 0.0776513 0.0099986
0 1 0.0776551 0.0113336
0 1 0.0776551 0.0112993
0 1 0.0776518 0.010008
0 1 0.0776521 0.00999473
0 1 0.077655 0.0112642
0 1 0.0776546 0.0112158
0 1 0.077652 0.0112223
0 1 0.0776508 0.0111092
0 1 0.0776506 0.00996064
0 1 0.0776497 0.00987831
0 1 0.0776485 0.00882373
0 1 0.0776489 0.00877381
0 1 0.0776522 0.00995715
0 1 0.0776521 0.00991872
0 1 0.0776494 0.00882076
0 1 0.0776495 0.00875689
0 1 0.077654 0.0111349
0 1 0.0776532 0.0110368
0 1 0.0776519 0.00987564
0 1 0.0776514 0.00980819
0 1 0.0776488 0.00981134
0 1 0.0776496 0.0109824
0 1 0.0776477 0.00969446
0 1 0.0776484 0.0108557
0 1 0.0776477 0.00871932
0 1 0.0776469 0.00865254
0 1 0.0776463 0.00789436
0 1 0.0776522 0.0109102
0 1 0.0776462 0.00758916
0 1 0.0776471 0.00786773
0 1 0.0776495 0.00873034
0 1 0.0776493 0.00867083
0 1 0.0776468 0.0075925
0 1 0.0776474 0.00778116
0 1 0.0776509 0.00976282
0 1 0.07765 0.0096302
0 1 0.077649 0.00862673
0 1 0.0776485 0.00854229
0 1 0.077651 0.0107565
0 1 0.0776459 0.00856716
0 1 0.0776466 0.0096197
0 1 0.0776451 0.00854701
0 1 0.0776473 0.0107566
0 1 0.0776456 0.00952011
0 1 0.0776464 0.0107077
0 1 0.077645 0.00751989
0 1 0.0776446 0.00767727
0 1 0.0776433 0.00647753
0 1 0.077649 0.00950135
0 1 0.0776479 0.00930244
0 1 0.0776441 0.00650068
0 1 0.0776468 0.00753211
0 1 0.0776471 0.0076904
0 1 0.0776444 0.00645989
0 1 0.077648 0.00851271
0 1 0.0776473 0.00844217
0 1 0.0776463 0.00741285
0 1 0.0776463 0.0075878
0 1 0.0776498 0.0105828
0 1 0.0776435 0.00745727
0 1 0.0776441 0.00844378
0 1 0.0776431 0.00765118
0 1 0.0776447 0.00947147
0 1 0.0776433 0.00839159
0 1 0.0776459 0.0107223
0 1 0.0776441 0.00944985
0 1 0.0776459 0.0108057
0 1 0.0776406 0.00505752
0 1 0.077642 0.00638332
0 1 0.0776398 0.0050861
0 1 0.0776463 0.00827594
0 1 0.0776467 0.00917524
0 1 0.0776453 0.00812187
0 1 0.0776414 0.00515513
0 1 0.0776388 0.00408079
0 1 0.0776442 0.00634758
0 1 0.0776413 0.00500926
0 1 0.0776452 0.00726108
0 1 0.0776449 0.00741466
0 1 0.0776435 0.0062688
0 1 0.0776484 0.0104054
0 1 0.0776407 0.0063408
0 1 0.0776419 0.00733969
0 1 0.0776426 0.00835955
0 1 0.0776415 0.00751267
0 1 0.0776439 0.00951491
0 1 0.0776422 0.00840355
0 1 0.0776465 0.01096
0 1 0.0776441 0.0096078
0 1 0.0776377 0.00383551
0 1 0.0776386 0.005007
0 1 0.0776374 0.0040842
0 1 0.0776378 0.00505493
0 1 0.0776474 0.0111507
0 1 0.0776455 0.0090237
0 1 0.0776435 0.00702761
0 1 0.0776441 0.00795285
0 1 0.0776431 0.00716715
0 1 0.0776359 0.00277249
0 1 0.0776385 0.00380601
0 1 0.0776411 0.0049917
0 1 0.077639 0.00399056
0 1 0.0776423 0.00608043
0 1 0.0776403 0.00482275
0 1 0.0776472 0.0102541
0 1 0.0776395 0.0063079
0 1 0.0776408 0.00735766
0 1 0.0776422 0.00845577
0 1 0.0776408 0.00758211
0 1 0.0776448 0.00977517
0 1 0.0776427 0.00858961
0 1 0.0776457 0.00994008
0 1 0.0776334 0.00178183
0 1 0.0776339 0.00171973
0 1 0.0776348 0.00277861
0 1 0.0776361 0.00387629
0 1 0.077637 0.00506141
0 1 0.0776358 0.00412006
0 1 0.0776325 0.00173756
0 1 0.0776485 0.0113598
0 1 0.0776445 0.0089164
0 1 0.077643 0.00780013
0 1 0.077641 0.00593264
0 1 0.0776417 0.00675751
0 1 0.0776361 0.00265936
0 1 0.0776381 0.00366049
0 1 0.0776393 0.00474971
0 1 0.0776378 0.00371636
0 1 0.0776436 0.00887151
0 1 0.0776461 0.0101519
0 1 0.077639 0.00642213
0 1 0.0776407 0.00748256
0 1 0.0776433 0.00872433
0 1 0.0776415 0.00777629
0 1 0.0776467 0.0101369
0 1 0.0776441 0.00889291
0 1 0.0776371 0.00521811
0 1 0.0776333 0.00134917
0 1 0.0776319 0.0008978
0 1 0.0776338 0.00290442
0 1 0.0776352 0.0040181
0 1 0.0776359 0.00436699
0 1 0.0776321 0.00201713
0 1 0.0776306 0.000938084
0 1 0.0776476 0.0102971
0 1 0.0776496 0.0115665
0 1 0.0776382 0.00459231
0 1 0.0776422 0.0077603
0 1 0.0776409 0.00673242
0 1 0.0776396 0.00573417
0 1 0.0776417 0.00781329
0 1 0.0776353 0.00240518
0 1 0.0776362 0.00332491
0 1 0.0776328 0.00131187
0 1 0.0776362 0.0037632
0 1 0.0776432 0.00889669
0 1 0.0776453 0.0101168
0 1 0.0776395 0.00656239
0 1 0.0776418 0.00772507
0 1 0.077645 0.00903882
0 1 0.0776429 0.008054
0 1 0.0776459 0.00920264
0 1 0.0776378 0.00534928
0 1 0.0776308 0.00028112
0 1 0.0776338 0.00315602
0 1 0.0776362 0.0043329
0 1 0.077632 0.00208392
0 1 0.0776309 0.00132173
0 1 0.0776486 0.0104601
0 1 0.0776508 0.011758
0 1 0.0776373 0.00472695
0 1 0.0776402 0.00675225
0 1 0.0776392 0.00589596
0 1 0.0776414 0.00784689
0 1 0.0776402 0.00701626
0 1 0.0776337 0.00209998
0 1 0.0776348 0.00296158
0 1 0.0776319 0.00129064
0 1 0.0776352 0.00359804
0 1 0.0776362 0.00442843
0 1 0.0776416 0.00790785
0 1 0.0776432 0.00894098
0 1 0.0776451 0.0101748
0 1 0.0776406 0.00679349
0 1 0.0776433 0.00800525
0 1 0.0776466 0.00928825
0 1 0.0776445 0.00836224
0 1 0.0776388 0.00560765
0 1 0.0776374 0.00473695
0 1 0.0776314 0.00147139
0 1 0.0776348 0.00343743
0 1 0.0776331 0.00250076
0 1 0.0776329 0.00227837
0 1 0.0776333 0.00251722
0 1 0.0776474 0.00941416
0 1 0.0776495 0.0105771
0 1 0.0776518 0.0119158
0 1 0.0776381 0.00568021
0 1 0.0776398 0.00678247
0 1 0.0776406 0.00717082
0 1 0.0776367 0.00488328
0 1 0.077633 0.00241936
0 1 0.0776351 0.00385661
0 1 0.0776423 0.00810748
0 1 0.0776438 0.00913196
0 1 0.0776455 0.0103139
0 1 0.0776418 0.00698615
0 1 0.0776447 0.00821522
0 1 0.0776457 0.00851057
0 1 0.0776396 0.00572969
0 1 0.0776376 0.00462316
0 1 0.0776334 0.00266642
0 1 0.0776347 0.0032371
0 1 0.0776356 0.00359007
0 1 0.0776355 0.00349471
0 1 0.0776477 0.00939115
0 1 0.0776501 0.0106282
0 1 0.0776527 0.0120294
0 1 0.0776386 0.00598429
0 1 0.0776408 0.00711035
0 1 0.0776369 0.00482451
0 1 0.077635 0.0036408
0 1 0.0776421 0.00756688
0 1 0.0776431 0.00827834
0 1 0.0776447 0.00933205
0 1 0.0776464 0.0105096
0 1 0.0776429 0.00719516
0 1 0.0776456 0.00832771
0 1 0.0776403 0.00584783
0 1 0.0776383 0.00485931
0 1 0.0776358 0.00388284
0 1 0.0776369 0.00425778
0 1 0.0776379 0.00462283
0 1 0.0776379 0.00464148
0 1 0.0776466 0.00864899
0 1 0.0776483 0.00952189
0 1 0.0776507 0.0107015
0 1 0.0776535 0.0121082
0 1 0.0776397 0.0062158
0 1 0.0776376 0.00496074
0 1 0.0776424 0.0074475
0 1 0.0776441 0.00849859
0 1 0.0776456 0.00953824
0 1 0.0776475 0.0107533
0 1 0.0776435 0.00725747
0 1 0.0776406 0.00583682
0 1 0.0776388 0.00528907
0 1 0.0776397 0.00552806
0 1 0.0776404 0.00573696
0 1 0.0776461 0.00835498
0 1 0.0776486 0.00951961
0 1 0.0776512 0.0107676
0 1 0.077654 0.0121561
0 1 0.077641 0.00653665
0 1 0.0776436 0.00782591
0 1 0.0776449 0.00865473
0 1 0.0776467 0.00974276
0 1 0.0776487 0.0110096
0 1 0.0776436 0.00721188
0 1 0.0776423 0.00684469
0 1 0.0776432 0.00707565
0 1 0.0776466 0.00857156
0 1 0.0776487 0.00952404
0 1 0.0776514 0.0107764
0 1 0.0776544 0.0121882
0 1 0.077644 0.00780733
0 1 0.0776459 0.0088708
0 1 0.0776478 0.00998399
0 1 0.0776499 0.0112616
0 1 0.0776452 0.00821272
0 1 0.0776459 0.00823938
0 1 0.0776453 0.00811655
0 1 0.0776462 0.00843678
0 1 0.0776485 0.00944551
0 1 0.0776514 0.0107217
0 1 0.0776545 0.0121833
0 1 0.0776466 0.00902341
0 1 0.0776487 0.0101742
0 1 0.0776511 0.0114895
0 1 0.0776474 0.00920625
0 1 0.0776484 0.00940497
0 1 0.0776479 0.00928377
0 1 0.0776511 0.0106219
0 1 0.0776544 0.0121353
0 1 0.0776496 0.0103548
0 1 0.0776521 0.0116881
0 1 0.0776503 0.0104769
0 1 0.0776508 0.0105873
0 1 0.0776541 0.0120534
0 1 0.077653 0.0118426
0 1 0.0776536 0.0119557
VECTORS fa_u float
0.00602957 0.00249752 -0
0.005652 0.00326318 -0
0.00630396 0.00168913 -0
0.00647049 0.000851842 -0
1e-08 0 0
0.00517772 0.003973 -0
0.00461484 0.00461484 -0
1e-08 0 0
1e-08 0 0
0.003973 0.00517772 -0
0.00326318 0.005652 -0
0.00652631 -1.36067e-08 -0
0.00647048 -0.000851871 0
1e-08 0 0
1e-08 0 0
1e-08 0 0
1e-08 0 0
1e-08 0 0
1e-08 0 0
1e-08 0 0
1e-08 0 0
0.00249752 0.00602955 -0
0.00168913 0.00630397 -0
1e-08 0 0
1e-08 0 0
1e-08 0 0
0.00630391 -0.00168914 0
1e-08 0 0
0.00602946 -0.0024975 0
1e-08 0 0
1e-08 0 0
1e-08 0 0
0.000851848 0.00647051 -0
1e-08 0 0
1e-08 0 0
1e-08 0 0
1e-08 0 0
1e-08 0 0
1e-08 0 0
1e-08 0 0
1e-08 0 0
1e-08 0 0
1e-08 0 0
-1.35242e-08 0.0065263 -0
1e-08 0 0
1e-08 0 0
1e-08 0 0
0.00565189 -0.00326313 0
1e-08 0 0
0.00517761 -0.00397293 0
1e-08 0 0
1e-08 0 0
1e-08 0 0
1e-08 0 0
1e-08 0 0
1e-08 0 0
1e-08 0 0
1e-08 0 0
1e-08 0 0
1e-08 0 0
1e-08 0 0
1e-08 0 0
1e-08 0 0
-0.000851863 0.00647045 0
1e-08 0 0
1e-08 0 0
1e-08 0 0
1e-08 0 0
1e-08 0 0
0.00461474 -0.00461475 0
1e-08 0 0
0.00397292 -0.00517761 0
1e-08 0 0
1e-08 0 0
1e-08 0 0
1e-08 0 0
1e-08 0 0
1e-08 0 0
1e-08 0 0
1e-08 0 0
1e-08 0 0
1e-08 0 0
1e-08 0 0
1e-08 0 0
1e-08 0 0
-0.00168913 0.00630389 0
1e-08 0 0
1e-08 0 0
1e-08 0 0
1e-08 0 0
1e-08 0 0
1e-08 0 0
0.00326312 -0.00565189 0
1e-08 0 0
1e-08 0 0
1e-08 0 0
1e-08 0 0
1e-08 0 0
0.00249749 -0.00602946 0
1e-08 0 0
1e-08 0 0
1e-08 0 0
1e-08 0 0
1e-08 0 0
1e-08 0 0
1e-08 0 0
1e-08 0 0
1e-08 0 0
1e-08 0 0
-0.00249749 0.00602946 0
1e-08 0 0
1e-08 0 0
1e-08 0 0
1e-08 0 0
1e-08 0 0
1e-08 0 0
1e-08 0 0
1e-08 0 0
1e-08 0 0
1e-08 0 0
1e-08 0 0
1e-08 0 0
1e-08 0 0
1e-08 0 0
0.00168913 -0.00630388 0
1e-08 0 0
1e-08 0 0
1e-08 0 0
1e-08 0 0
1e-08 0 0
1e-08 0 0
1e-08 0 0
1e-08 0 0
1e-08 0 0
-0.00326312 0.00565189 0
1e-08 0 0
1e-08 0 0
1e-08 0 0
1e-08 0 0
1e-08 0 0
1e-08 0 0
1e-08 0 0
1e-08 0 0
1e-08 0 0
1e-08 0 0
1e-08 0 0
1e-08 0 0
1e-08 0 0
1e-08 0 0
1e-08 0 0
0.000851863 -0.00647045 0
1e-08 0 0
1e-08 0 0
1e-08 0 0
1e-08 0 0
1e-08 0 0
1e-08 0 0
1e-08 0 0
1e-08 0 0
1e-08 0 0
1e-08 0 0
-0.00397292 0.00517761 0
1e-08 0 0
1e-08 0 0
1e-08 0 0
1e-08 0 0
1e-08 0 0
1e-08 0 0
1e-08 0 0
1e-08 0 0
1e-08 0 0
1e-08 0 0
1e-08 0 0
1e-08 0 0
1.35602e-08 -0.0065263 0
1e-08 0 0
1e-08 0 0
1e-08 0 0
1e-08 0 0
1e-08 0 0
1e-08 0 0
1e-08 0 0
1e-08 0 0
1e-08 0 0
1e-08 0 0
1e-08 0 0
1e-08 0 0
-0.00461474 0.00461475 0
1e-08 0 0
1e-08 0 0
1e-08 0 0
1e-08 0 0
1e-08 0 0
1e-08 0 0
1e-08 0 0
1e-08 0 0
1e-08 0 0
1e-08 0 0
1e-08 0 0
1e-08 0 0
1e-08 0 0
-0.000851849 -0.00647051 0
1e-08 0 0
1e-08 0 0
1e-08 0 0
1e-08 0 0
1e-08 0 0
1e-08 0 0
1e-08 0 0
1e-08 0 0
-0.00517761 0.00397293 0
1e-08 0 0
1e-08 0 0
1e-08 0 0
1e-08 0 0
1e-08 0 0
1e-08 0 0
1e-08 0 0
1e-08 0 0
1e-08 0 0
1e-08 0 0
1e-08 0 0
-0.00168913 -0.00630397 0
1e-08 0 0
1e-08 0 0
1e-08 0 0
1e-08 0 0
1e-08 0 0
1e-08 0 0
1e-08 0 0
-0.00565189 0.00326313 0
1e-08 0 0
1e-08 0 0
1e-08 0 0
1e-08 0 0
1e-08 0 0
1e-08 0 0
1e-08 0 0
1e-08 0 0
1e-08 0 0
1e-08 0 0
1e-08 0 0
-0.00249752 -0.00602955 0
1e-08 0 0
1e-08 0 0
1e-08 0 0
1e-08 0 0
1e-08 0 0
-0.00602946 0.0024975 0
1e-08 0 0
1e-08 0 0
1e-08 0 0
1e-08 0 0
1e-08 0 0
1e-08 0 0
1e-08 0 0
1e-08 0 0
-0.00326317 -0.00565199 0
1e-08 0 0
1e-08 0 0
1e-08 0 0
1e-08 0 0
-0.00630391 0.00168914 0
1e-08 0 0
1e-08 0 0
1e-08 0 0
1e-08 0 0
1e-08 0 0
1e-08 0 0
-0.003973 -0.00517772 0
1e-08 0 0
1e-08 0 0
1e-08 0 0
-0.00647048 0.000851871 0
1e-08 0 0
1e-08 0 0
1e-08 0 0
1e-08 0 0
1e-08 0 0
1e-08 0 0
-0.00461485 -0.00461484 0
1e-08 0 0
1e-08 0 0
-0.0065263 1.37573e-08 0
1e-08 0 0
1e-08 0 0
1e-08 0 0
1e-08 0 0
-0.00517772 -0.003973 0
1e-08 0 0
-0.0064705 -0.000851843 0
1e-08 0 0
1e-08 0 0
-0.005652 -0.00326317 0
-0.00630397 -0.00168913 0
-0.00602957 -0.00249752 0
