# vtk DataFile Version 2.0
CellBP Time: 0.138
ASCII
DATASET UNSTRUCTURED_GRID
POINTS 296 double
-9.18881 -3.77685 0
-8.61027 -4.95001 0
-9.60927 -2.5382 0
-9.86446 -1.25528 0
-8.35807 -2.81888 0
-7.88355 -6.03763 0
-7.02109 -7.02108 0
-7.91771 -3.87495 0
-7.34312 -4.86815 0
-6.03763 -7.88354 0
-4.95002 -8.61026 0
-9.95001 0.049986 0
-9.86445 1.35525 0
-8.65818 -1.68405 0
-8.78682 -0.529667 0
-7.5902 -2.00428 0
-7.22623 -2.90668 0
-6.63808 -5.77926 0
-5.8228 -6.59735 0
-6.79074 -3.88918 0
-6.22102 -4.67625 0
-3.77685 -9.1888 0
-2.53821 -9.60927 0
-4.90681 -7.3093 0
-3.91328 -7.88677 0
-8.79327 0.643423 0
-9.60926 2.63819 0
-8.6238 1.77417 0
-9.1888 3.87683 0
-7.74481 -0.929051 0
-7.79504 0.0802484 0
-6.95303 -1.31597 0
-1.25528 -9.86446 0
-6.44192 -2.15327 0
-6.31982 -3.05634 0
-5.53694 -5.47497 0
-4.79626 -6.11592 0
-5.65943 -3.75728 0
-5.26978 -4.56192 0
-2.86638 -8.36451 0
-1.7787 -8.64084 0
-3.92843 -6.72405 0
-3.05685 -7.15314 0
0.049987 -9.95001 0
-7.70605 1.14358 0
-8.33912 2.9156 0
-7.55244 2.1121 0
-8.61025 5.05 0
-7.8806 3.97849 0
-7.88353 6.13761 0
-6.77918 -0.396892 0
-6.95704 0.552572 0
-5.77177 -1.00347 0
-0.59089 -8.81034 0
0.56571 -8.77153 0
-5.30347 -2.48044 0
-4.4923 -5.09611 0
-3.9028 -5.77576 0
-4.43921 -3.80501 0
-2.06259 -7.56254 0
-1.13558 -7.78646 0
-2.99478 -6.10253 0
-2.30921 -6.62031 0
1.35525 -9.86445 0
-6.68995 1.42214 0
-7.17274 3.11835 0
-6.65977 2.37318 0
-7.29528 4.98903 0
-6.71863 4.00337 0
-7.02106 7.12106 0
-6.57301 5.89461 0
-6.03761 7.98353 0
-4.45338 -1.18114 0
-5.81499 0.513784 0
-4.65645 -0.0103891 0
0.00851155 -7.84876 0
1.73869 -8.6445 0
0.949033 -7.76411 0
-4.03876 -2.40654 0
-3.48576 -1.39129 0
-3.29474 -4.80568 0
-3.26608 -3.26799 0
-1.3787 -6.67601 0
-0.508791 -7.02554 0
-1.9757 -5.53743 0
2.63818 -9.60926 0
-5.50773 2.03706 0
-6.09523 3.07246 0
-6.10565 4.87008 0
-5.76225 3.99183 0
-5.76182 6.71775 0
-5.45266 5.61991 0
-4.94999 8.71025 0
-4.83892 7.40528 0
-3.50171 -0.424336 0
-4.4496 1.24911 0
-3.71171 0.592104 0
-4.06245 2.31997 0
-3.77682 9.2888 0
2.86286 -8.33364 0
0.419718 -6.79607 0
2.02221 -7.52659 0
1.30621 -6.90625 0
-2.44482 -0.87387 0
-2.83856 -2.13127 0
-2.29457 -4.09766 0
-2.3258 -2.9738 0
-0.442429 -5.86166 0
-1.22282 -4.49946 0
3.87682 -9.1888 0
-4.79019 3.39208 0
-5.08845 4.5946 0
-4.64767 6.28212 0
-4.53935 5.3603 0
-3.84414 7.99422 0
-3.82717 6.84648 0
-2.7836 8.42377 0
-1.64915 -0.137911 0
-1.45035 -0.890644 0
-2.48927 0.507283 0
-3.25384 1.44424 0
-3.23927 3.31681 0
-2.91118 2.37193 0
-1.35519 0.627141 0
-2.53818 9.70926 0
3.93312 -7.88785 0
2.96487 -7.15856 0
0.954171 -5.82257 0
2.07456 -6.41623 0
-1.68308 -1.99219 0
-1.43453 -3.27801 0
0.09022 -4.74737 0
-0.566219 -3.69469 0
4.93271 -7.31964 0
5.04999 -8.61025 0
-3.7773 4.55205 0
-3.73518 5.75279 0
-2.88832 7.29075 0
-3.01005 6.35448 0
-1.66274 8.7347 0
-1.94034 7.62031 0
-2.33857 4.05201 0
-0.730776 -1.32733 0
-0.836947 -0.257643 0
-1.93633 1.68088 0
-2.12592 2.87605 0
-1.30667 3.54496 0
-0.869511 1.35091 0
-0.282383 0.456073 0
-0.533573 8.87278 0
-1.25525 9.96445 0
1.11288 -4.575 0
3.91062 -6.71816 0
2.98828 -6.09552 0
2.11808 -5.42554 0
4.78507 -6.20619 0
-0.558892 -2.47698 0
0.495143 -3.4641 0
0.0535538 -1.61058 0
1.48202 -3.68247 0
5.86795 -6.61555 0
6.13761 -7.88353 0
-2.47593 5.34904 0
-2.13071 6.53528 0
-0.904183 7.80437 0
-1.27251 6.93297 0
0.0862263 7.88149 0
-1.14455 4.49512 0
0.150329 -0.617682 0
-0.797478 2.48867 0
-0.33167 3.60102 0
0.0631118 1.51282 0
0.741482 0.47345 0
0.646886 8.87547 0
0.0500138 10.05 0
2.38125 -4.28568 0
3.85969 -5.64122 0
3.00183 -5.21341 0
5.57461 -5.49266 0
4.6917 -5.28383 0
0.629715 -2.29352 0
1.25627 -2.95146 0
0.757546 -1.39154 0
2.16454 -3.13611 0
2.99409 -3.47696 0
6.15617 -4.79256 0
6.65662 -5.7702 0
7.12106 -7.02107 0
-1.01974 5.82106 0
-0.372662 6.88459 0
1.12282 7.77081 0
0.55807 7.0809 0
-0.000758845 4.72568 0
0.607064 3.82819 0
1.33901 -0.641937 0
0.539144 2.65126 0
0.966154 1.57505 0
1.91034 0.213885 0
1.61489 1.06511 0
2.12978 7.5849 0
1.79952 8.71386 0
1.35528 9.96446 0
3.82334 -4.35219 0
5.11741 -4.44974 0
5.84675 -3.93581 0
3.78447 -3.20145 0
1.81244 -1.88278 0
3.01949 -2.57417 0
6.78463 -3.9486 0
7.38278 -4.89768 0
7.98353 -6.03761 0
0.483434 5.88239 0
1.42843 6.7431 0
2.37479 6.67034 0
1.21014 4.55676 0
1.48835 3.39802 0
2.43604 -0.692086 0
2.82836 0.142623 0
1.78907 2.16307 0
2.61217 1.15028 0
3.07265 7.17157 0
2.9048 8.37847 0
2.63821 9.70926 0
4.91207 -3.32841 0
6.12187 -3.10927 0
4.17346 -2.27557 0
3.24484 -1.50308 0
6.73276 -2.31351 0
7.23362 -3.04318 0
7.96659 -3.91307 0
8.71025 -4.95 0
2.02397 5.60078 0
3.08718 6.15493 0
2.36427 4.12753 0
2.42041 3.0613 0
3.52616 -0.460914 0
3.61622 0.613377 0
2.96224 2.2884 0
3.54612 1.52549 0
4.0132 5.8996 0
3.98554 6.795 0
3.97435 7.94078 0
3.87686 9.2888 0
5.56994 -1.91652 0
4.50997 -1.12978 0
6.71567 -1.33643 0
7.59461 -2.03695 0
8.39944 -2.86211 0
9.2888 -3.77683 0
3.41988 4.87808 0
3.33961 3.38599 0
4.69212 0.130105 0
4.52001 1.31022 0
4.06609 2.44426 0
4.57199 5.15406 0
4.84529 6.19283 0
4.98203 7.3828 0
5.05002 8.71026 0
5.88495 -0.434998 0
7.01313 -0.488383 0
7.76212 -1.08562 0
8.68762 -1.74647 0
9.70926 -2.53819 0
4.55369 3.82862 0
5.8194 1.0989 0
5.37279 2.53566 0
5.38211 4.62233 0
5.61432 5.52566 0
5.89937 6.67435 0
6.13763 7.98354 0
6.84863 0.463711 0
7.85637 -0.0256366 0
8.86367 -0.584537 0
9.96446 -1.25525 0
6.96329 1.34999 0
5.72337 3.77996 0
6.5441 2.19838 0
6.38289 3.08928 0
6.29516 4.689 0
6.69582 5.84021 0
7.12109 7.12108 0
7.78766 0.968024 0
8.86302 0.572988 0
10.05 0.0500128 0
7.61957 2.00518 0
6.83227 3.90603 0
7.27284 2.94812 0
7.38148 4.88786 0
7.98355 6.13763 0
8.72662 1.72763 0
9.96446 1.35527 0
8.42455 2.83897 0
7.98504 3.91797 0
8.71027 5.05001 0
9.70927 2.6382 0
9.28881 3.87685 0
CELLS 542 2168
3 2 0 4
3 0 1 7
3 4 0 7
3 1 5 8
3 7 1 8
3 3 2 13
3 13 2 4
3 11 3 14
3 14 3 13
3 13 4 15
3 4 7 16
3 15 4 16
3 5 6 17
3 8 5 17
3 6 9 18
3 17 6 18
3 7 8 19
3 16 7 19
3 8 17 20
3 19 8 20
3 9 10 23
3 18 9 23
3 10 21 24
3 23 10 24
3 12 11 25
3 25 11 14
3 26 12 27
3 27 12 25
3 14 13 29
3 29 13 15
3 25 14 30
3 30 14 29
3 29 15 31
3 15 16 33
3 31 15 33
3 16 19 34
3 33 16 34
3 17 18 35
3 20 17 35
3 18 23 36
3 35 18 36
3 19 20 37
3 34 19 37
3 20 35 38
3 37 20 38
3 21 22 39
3 24 21 39
3 22 32 40
3 39 22 40
3 23 24 41
3 36 23 41
3 24 39 42
3 41 24 42
3 27 25 44
3 44 25 30
3 28 26 45
3 45 26 27
3 45 27 46
3 46 27 44
3 47 28 48
3 48 28 45
3 30 29 50
3 50 29 31
3 44 30 51
3 51 30 50
3 50 31 52
3 31 33 52
3 32 43 53
3 40 32 53
3 53 43 54
3 33 34 55
3 34 37 55
3 33 55 52
3 35 36 56
3 38 35 56
3 36 41 57
3 56 36 57
3 37 38 58
3 38 56 58
3 37 58 55
3 39 40 59
3 42 39 59
3 40 53 60
3 59 40 60
3 41 42 61
3 57 41 61
3 42 59 62
3 61 42 62
3 43 63 54
3 46 44 64
3 64 44 51
3 48 45 65
3 65 45 46
3 65 46 66
3 66 46 64
3 49 47 67
3 67 47 48
3 67 48 68
3 68 48 65
3 69 49 70
3 70 49 67
3 52 55 72
3 64 51 73
3 51 50 73
3 50 52 73
3 73 52 74
3 74 52 72
3 53 54 75
3 60 53 75
3 54 63 76
3 54 76 77
3 75 54 77
3 55 58 78
3 72 55 78
3 72 78 79
3 56 57 80
3 57 61 80
3 56 80 58
3 58 80 81
3 78 58 81
3 59 60 82
3 62 59 82
3 60 75 83
3 82 60 83
3 61 62 84
3 62 82 84
3 61 84 80
3 63 85 76
3 66 64 86
3 64 73 86
3 68 65 87
3 87 65 66
3 87 66 86
3 70 67 88
3 88 67 68
3 88 68 89
3 89 68 87
3 71 69 90
3 90 69 70
3 90 70 91
3 91 70 88
3 92 71 93
3 93 71 90
3 74 72 94
3 94 72 79
3 86 73 95
3 95 73 74
3 95 74 96
3 96 74 94
3 97 86 95
3 76 85 99
3 75 77 100
3 83 75 100
3 76 99 101
3 77 76 101
3 77 101 102
3 100 77 102
3 94 79 103
3 78 81 104
3 79 78 104
3 79 104 103
3 80 84 105
3 81 80 105
3 81 105 106
3 104 81 106
3 82 83 107
3 83 100 107
3 82 107 84
3 84 107 108
3 105 84 108
3 85 109 99
3 89 87 110
3 87 86 110
3 110 86 97
3 91 88 111
3 111 88 89
3 111 89 110
3 93 90 112
3 112 90 91
3 112 91 113
3 113 91 111
3 98 92 114
3 114 92 93
3 114 93 115
3 115 93 112
3 116 98 114
3 117 103 118
3 96 94 119
3 94 103 119
3 119 103 117
3 97 95 120
3 120 95 96
3 120 96 119
3 121 110 97
3 121 97 122
3 122 97 120
3 123 119 117
3 124 98 116
3 99 109 125
3 99 125 126
3 101 99 126
3 100 102 127
3 100 127 107
3 101 126 128
3 102 101 128
3 102 128 127
3 104 106 129
3 104 129 103
3 103 129 118
3 105 108 130
3 106 105 130
3 106 130 129
3 107 127 131
3 108 107 131
3 108 131 132
3 108 132 130
3 109 134 125
3 125 134 133
3 113 111 135
3 111 110 135
3 135 110 121
3 115 112 136
3 136 112 113
3 136 113 135
3 116 114 137
3 137 114 115
3 137 115 138
3 138 115 136
3 139 124 116
3 139 116 140
3 140 116 137
3 141 135 121
3 118 129 142
3 118 142 143
3 117 118 143
3 123 117 143
3 122 120 144
3 120 119 144
3 144 119 123
3 141 121 145
3 145 121 122
3 145 122 144
3 146 141 145
3 147 144 123
3 147 123 148
3 143 148 123
3 150 124 139
3 149 150 139
3 131 127 151
3 125 133 152
3 126 125 152
3 126 152 153
3 128 126 153
3 128 153 154
3 128 154 127
3 127 154 151
3 152 133 155
3 130 132 156
3 130 156 129
3 129 156 142
3 131 151 157
3 132 131 157
3 132 157 156
3 156 158 142
3 157 151 159
3 133 160 155
3 134 161 133
3 133 161 160
3 138 136 162
3 136 135 162
3 162 135 141
3 140 137 163
3 163 137 138
3 163 138 162
3 149 139 164
3 164 139 140
3 164 140 165
3 165 140 163
3 166 149 164
3 167 162 141
3 167 141 146
3 142 158 168
3 143 142 168
3 143 168 148
3 146 145 169
3 145 144 169
3 169 144 147
3 170 167 146
3 170 146 169
3 171 169 147
3 171 147 148
3 171 148 172
3 168 172 148
3 173 149 166
3 174 150 149
3 173 174 149
3 154 175 151
3 151 175 159
3 152 155 176
3 153 152 176
3 153 176 177
3 153 177 154
3 154 177 175
3 155 160 178
3 155 178 179
3 176 155 179
3 156 157 180
3 156 180 158
3 157 159 181
3 157 181 180
3 158 180 182
3 158 182 168
3 159 175 183
3 159 183 181
3 175 184 183
3 160 186 178
3 178 186 185
3 161 187 160
3 160 187 186
3 165 163 188
3 163 162 188
3 188 162 167
3 166 164 189
3 189 164 165
3 189 165 188
3 190 173 166
3 190 166 191
3 191 166 189
3 192 188 167
3 192 167 170
3 193 192 170
3 182 194 168
3 194 172 168
3 193 170 195
3 170 169 195
3 195 169 171
3 196 195 171
3 196 171 172
3 194 197 172
3 197 198 172
3 198 196 172
3 200 173 190
3 199 200 190
3 201 174 173
3 200 201 173
3 176 179 202
3 177 176 202
3 177 202 175
3 175 202 184
3 178 185 203
3 178 203 179
3 179 203 202
3 203 185 204
3 202 205 184
3 183 206 181
3 180 181 206
3 180 206 182
3 182 206 194
3 183 184 207
3 205 207 184
3 183 207 206
3 185 208 204
3 186 209 185
3 185 209 208
3 187 210 186
3 186 210 209
3 191 189 211
3 189 188 211
3 211 188 192
3 199 190 212
3 212 190 191
3 212 191 211
3 213 199 212
3 214 211 192
3 214 192 193
3 215 214 193
3 215 193 195
3 206 216 194
3 216 197 194
3 216 217 197
3 215 195 218
3 218 195 196
3 198 218 196
3 217 219 197
3 219 218 198
3 197 219 198
3 220 199 213
3 221 200 199
3 220 221 199
3 222 201 200
3 221 222 200
3 203 204 223
3 203 223 202
3 202 223 205
3 204 208 224
3 204 224 223
3 205 223 225
3 205 225 207
3 207 225 226
3 207 226 206
3 226 216 206
3 208 228 224
3 224 228 227
3 209 229 208
3 229 228 208
3 210 230 209
3 209 230 229
3 213 212 231
3 212 211 231
3 231 211 214
3 232 220 213
3 232 213 231
3 233 231 214
3 233 214 215
3 234 233 215
3 234 215 218
3 226 235 216
3 235 217 216
3 235 236 217
3 217 236 219
3 237 234 218
3 237 218 219
3 236 238 219
3 238 237 219
3 240 220 232
3 239 240 232
3 241 221 220
3 240 241 220
3 242 222 221
3 241 242 221
3 224 227 243
3 224 243 223
3 223 243 225
3 225 243 244
3 225 244 226
3 226 244 235
3 227 245 243
3 228 246 227
3 227 246 245
3 229 247 228
3 228 247 246
3 230 248 229
3 229 248 247
3 239 232 249
3 232 231 249
3 249 231 233
3 250 249 233
3 250 233 234
3 237 250 234
3 244 251 235
3 235 251 236
3 251 252 236
3 236 252 238
3 252 253 238
3 253 250 237
3 253 237 238
3 254 239 249
3 255 240 239
3 254 255 239
3 256 241 240
3 255 256 240
3 257 242 241
3 256 257 241
3 245 258 243
3 243 258 244
3 244 258 251
3 245 259 258
3 246 260 245
3 245 260 259
3 247 261 246
3 246 261 260
3 248 262 247
3 247 262 261
3 254 249 263
3 263 249 250
3 253 263 250
3 258 264 251
3 251 264 252
3 264 265 252
3 265 263 253
3 252 265 253
3 266 254 263
3 267 255 254
3 266 267 254
3 268 256 255
3 267 268 255
3 269 257 256
3 268 269 256
3 259 270 258
3 270 264 258
3 260 271 259
3 259 271 270
3 261 272 260
3 260 272 271
3 262 273 261
3 273 272 261
3 270 274 264
3 275 266 263
3 275 263 265
3 274 276 264
3 276 265 264
3 276 277 265
3 277 275 265
3 278 267 266
3 275 278 266
3 279 268 267
3 278 279 267
3 280 269 268
3 279 280 268
3 271 281 270
3 270 281 274
3 272 282 271
3 271 282 281
3 273 283 272
3 272 283 282
3 281 284 274
3 274 284 276
3 285 278 275
3 277 285 275
3 284 286 276
3 286 285 277
3 276 286 277
3 287 279 278
3 285 287 278
3 288 280 279
3 287 288 279
3 282 289 281
3 281 289 284
3 283 290 282
3 282 290 289
3 289 291 284
3 284 291 286
3 291 292 286
3 292 287 285
3 286 292 285
3 293 288 287
3 292 293 287
3 290 294 289
3 289 294 291
3 294 295 291
3 295 293 292
3 291 295 292
CELL_TYPES 542
5
5
5
5
5
5
5
5
5
5
5
5
5
5
5
5
5
5
5
5
5
5
5
5
5
5
5
5
5
5
5
5
5
5
5
5
5
5
5
5
5
5
5
5
5
5
5
5
5
5
5
5
5
5
5
5
5
5
5
5
5
5
5
5
5
5
5
5
5
5
5
5
5
5
5
5
5
5
5
5
5
5
5
5
5
5
5
5
5
5
5
5
5
5
5
5
5
5
5
5
5
5
5
5
5
5
5
5
5
5
5
5
5
5
5
5
5
5
5
5
5
5
5
5
5
5
5
5
5
5
5
5
5
5
5
5
5
5
5
5
5
5
5
5
5
5
5
5
5
5
5
5
5
5
5
5
5
5
5
5
5
5
5
5
5
5
5
5
5
5
5
5
5
5
5
5
5
5
5
5
5
5
5
5
5
5
5
5
5
5
5
5
5
5
5
5
5
5
5
5
5
5
5
5
5
5
5
5
5
5
5
5
5
5
5
5
5
5
5
5
5
5
5
5
5
5
5
5
5
5
5
5
5
5
5
5
5
5
5
5
5
5
5
5
5
5
5
5
5
5
5
5
5
5
5
5
5
5
5
5
5
5
5
5
5
5
5
5
5
5
5
5
5
5
5
5
5
5
5
5
5
5
5
5
5
5
5
5
5
5
5
5
5
5
5
5
5
5
5
5
5
5
5
5
5
5
5
5
5
5
5
5
5
5
5
5
5
5
5
5
5
5
5
5
5
5
5
5
5
5
5
5
5
5
5
5
5
5
5
5
5
5
5
5
5
5
5
5
5
5
5
5
5
5
5
5
5
5
5
5
5
5
5
5
5
5
5
5
5
5
5
5
5
5
5
5
5
5
5
5
5
5
5
5
5
5
5
5
5
5
5
5
5
5
5
5
5
5
5
5
5
5
5
5
5
5
5
5
5
5
5
5
5
5
5
5
5
5
5
5
5
5
5
5
5
5
5
5
5
5
5
5
5
5
5
5
5
5
5
5
5
5
5
5
5
5
5
5
5
5
5
5
5
5
5
5
5
5
5
5
5
5
5
5
5
5
5
5
5
5
5
5
5
5
5
5
5
5
5
5
5
5
5
5
5
5
5
5
5
5
5
5
5
5
5
5
5
5
5
5
5
5
5
5
5
5
5
5
5
5
5
5
5
5
5
5
5
5
5
5
5
5
5
5
5
5
5
5
5
5
5
5
5
5
5
5
5
5
5
5
5
5
POINT_DATA 296
SCALARS concentrations float 4
LOOKUP_TABLE default
0 1 0.0709865 0.00915122
0 1 0.0709869 0.00936069
0 1 0.0709859 0.00887715
0 1 0.0709851 0.00853085
0 1 0.0709846 0.00803858
0 1 0.0709871 0.00945657
0 1 0.0709871 0.00948141
0 1 0.070985 0.00825117
0 1 0.0709853 0.00838858
0 1 0.0709869 0.00942974
0 1 0.0709865 0.00928965
0 1 0.0709842 0.00812212
0 1 0.0709832 0.00765979
0 1 0.070984 0.00774878
0 1 0.0709832 0.00738643
0 1 0.070983 0.00706278
0 1 0.0709833 0.00722772
0 1 0.0709854 0.00844055
0 1 0.0709853 0.00842799
0 1 0.0709837 0.00743346
0 1 0.0709838 0.00748723
0 1 0.070986 0.00906398
0 1 0.0709852 0.00876256
0 1 0.0709851 0.00834467
0 1 0.0709846 0.00818171
0 1 0.0709824 0.00699576
0 1 0.0709821 0.00717558
0 1 0.0709814 0.00656025
0 1 0.070981 0.00669215
0 1 0.0709823 0.00671649
0 1 0.0709816 0.00637954
0 1 0.0709816 0.00626375
0 1 0.0709843 0.00839467
0 1 0.0709817 0.00626304
0 1 0.0709824 0.00663703
0 1 0.0709838 0.00751765
0 1 0.0709837 0.00746383
0 1 0.0709822 0.00655574
0 1 0.0709826 0.00677106
0 1 0.0709841 0.00797881
0 1 0.0709833 0.00766929
0 1 0.0709834 0.00736244
0 1 0.0709829 0.00718546
0 1 0.0709832 0.00796938
0 1 0.0709807 0.00598608
0 1 0.0709805 0.00613449
0 1 0.07098 0.00564878
0 1 0.07098 0.00625911
0 1 0.0709795 0.00571483
0 1 0.0709792 0.00592073
0 1 0.0709807 0.00575278
0 1 0.0709802 0.00556454
0 1 0.0709799 0.00522195
0 1 0.0709824 0.0073056
0 1 0.0709814 0.00687381
0 1 0.0709806 0.00559157
0 1 0.0709823 0.00660157
0 1 0.0709823 0.00669234
0 1 0.0709809 0.0057513
0 1 0.0709824 0.00698522
0 1 0.0709817 0.00673616
0 1 0.0709817 0.00639848
0 1 0.0709816 0.00640959
0 1 0.070982 0.00750653
0 1 0.0709793 0.00511947
0 1 0.0709791 0.00523069
0 1 0.0709788 0.00492187
0 1 0.0709787 0.00536305
0 1 0.0709783 0.00489201
0 1 0.0709787 0.00570091
0 1 0.0709781 0.00509697
0 1 0.0709788 0.00565193
0 1 0.0709785 0.0043109
0 1 0.0709789 0.00468345
0 1 0.0709779 0.00396656
0 1 0.0709808 0.0063415
0 1 0.0709803 0.00646294
0 1 0.0709799 0.00598216
0 1 0.0709791 0.00465265
0 1 0.0709776 0.00370792
0 1 0.0709806 0.00567273
0 1 0.070979 0.00465036
0 1 0.0709807 0.00600436
0 1 0.0709803 0.00590203
0 1 0.07098 0.00545341
0 1 0.0709808 0.00703185
0 1 0.0709777 0.00409742
0 1 0.0709779 0.00444435
0 1 0.0709777 0.00459437
0 1 0.0709774 0.00424914
0 1 0.0709779 0.00497689
0 1 0.0709773 0.00443067
0 1 0.0709794 0.00575223
0 1 0.0709782 0.00498235
0 1 0.0709768 0.00325444
0 1 0.0709769 0.00343404
0 1 0.0709764 0.00303814
0 1 0.0709761 0.00301795
0 1 0.0709803 0.00600484
0 1 0.0709792 0.00603923
0 1 0.0709792 0.00539836
0 1 0.0709788 0.00555853
0 1 0.0709786 0.00523769
0 1 0.070976 0.0026907
0 1 0.0709775 0.00367174
0 1 0.0709788 0.00460926
0 1 0.0709777 0.00387224
0 1 0.0709789 0.00499569
0 1 0.0709781 0.00432937
0 1 0.0709796 0.00658484
0 1 0.0709766 0.00355562
0 1 0.0709769 0.00394459
0 1 0.0709774 0.00435632
0 1 0.0709768 0.00391724
0 1 0.0709789 0.0051397
0 1 0.0709778 0.00443183
0 1 0.0709797 0.00538464
0 1 0.0709746 0.00174662
0 1 0.0709749 0.00200646
0 1 0.0709751 0.00213022
0 1 0.0709755 0.00249962
0 1 0.0709755 0.00261536
0 1 0.0709751 0.0022441
0 1 0.070974 0.0012328
0 1 0.0709813 0.00633986
0 1 0.0709781 0.00566493
0 1 0.0709778 0.00517588
0 1 0.0709777 0.00450693
0 1 0.0709775 0.0047274
0 1 0.0709761 0.00283953
0 1 0.0709771 0.00356592
0 1 0.0709772 0.00396139
0 1 0.0709766 0.00343951
0 1 0.0709773 0.00537469
0 1 0.0709785 0.00621253
0 1 0.0709762 0.00327739
0 1 0.0709769 0.00380616
0 1 0.0709785 0.0045978
0 1 0.0709775 0.00400003
0 1 0.0709807 0.00571183
0 1 0.0709793 0.00484932
0 1 0.0709756 0.00253806
0 1 0.0709745 0.00183383
0 1 0.0709738 0.00122428
0 1 0.0709744 0.00155311
0 1 0.0709748 0.00193247
0 1 0.0709753 0.00205048
0 1 0.0709737 0.000848525
0 1 0.0709732 0.000470821
0 1 0.0709816 0.00604785
0 1 0.0709824 0.00672783
0 1 0.0709761 0.00353989
0 1 0.070977 0.00487688
0 1 0.0709767 0.00442945
0 1 0.0709764 0.00400452
0 1 0.0709764 0.00468894
0 1 0.0709754 0.00255181
0 1 0.0709754 0.00287272
0 1 0.0709739 0.00165194
0 1 0.0709749 0.00282783
0 1 0.0709768 0.00519217
0 1 0.0709777 0.00594274
0 1 0.0709767 0.0033064
0 1 0.070978 0.00406625
0 1 0.0709801 0.00514027
0 1 0.0709789 0.0044202
0 1 0.0709809 0.00545345
0 1 0.0709763 0.00267734
0 1 0.0709731 0.000886548
0 1 0.0709744 0.00134182
0 1 0.0709757 0.00212576
0 1 0.0709738 0.000683622
0 1 0.0709732 0.000312662
0 1 0.0709825 0.00640787
0 1 0.0709834 0.0071349
0 1 0.0709751 0.00320044
0 1 0.0709759 0.00418899
0 1 0.0709758 0.00383587
0 1 0.0709762 0.0045546
0 1 0.0709757 0.00416454
0 1 0.0709741 0.00197098
0 1 0.0709743 0.00233383
0 1 0.0709732 0.00128822
0 1 0.070974 0.00244051
0 1 0.0709742 0.00276921
0 1 0.0709764 0.00452965
0 1 0.0709769 0.00511609
0 1 0.0709775 0.00582637
0 1 0.0709778 0.00363695
0 1 0.0709794 0.00456202
0 1 0.0709816 0.00572739
0 1 0.0709803 0.00499123
0 1 0.0709772 0.00303328
0 1 0.0709766 0.0025596
0 1 0.0709729 0.000867558
0 1 0.0709753 0.00166291
0 1 0.0709744 0.00109404
0 1 0.070974 0.00113477
0 1 0.0709745 0.00122002
0 1 0.0709822 0.00601362
0 1 0.0709832 0.00672703
0 1 0.0709843 0.00752442
0 1 0.0709749 0.00344046
0 1 0.0709756 0.00392932
0 1 0.0709762 0.00411066
0 1 0.0709745 0.00287871
0 1 0.0709732 0.00163436
0 1 0.0709739 0.00232129
0 1 0.0709771 0.00465494
0 1 0.0709775 0.0052167
0 1 0.070978 0.00586396
0 1 0.0709788 0.00405381
0 1 0.0709806 0.00506975
0 1 0.0709814 0.00544977
0 1 0.0709779 0.00334751
0 1 0.0709769 0.0026425
0 1 0.0709738 0.00146817
0 1 0.0709749 0.0018116
0 1 0.0709758 0.00197752
0 1 0.0709756 0.00199412
0 1 0.0709826 0.00617009
0 1 0.0709838 0.00697701
0 1 0.0709852 0.00786404
0 1 0.0709754 0.00344448
0 1 0.0709767 0.00410338
0 1 0.0709749 0.00277547
0 1 0.0709743 0.0020818
0 1 0.0709778 0.00446392
0 1 0.070978 0.00483611
0 1 0.0709784 0.00540618
0 1 0.0709789 0.00603578
0 1 0.0709798 0.00449396
0 1 0.0709815 0.00544678
0 1 0.0709785 0.00362808
0 1 0.0709774 0.00294821
0 1 0.0709752 0.00223396
0 1 0.0709762 0.00254703
0 1 0.0709771 0.00283407
0 1 0.070977 0.00286101
0 1 0.0709821 0.00580064
0 1 0.0709831 0.00640235
0 1 0.0709844 0.00721094
0 1 0.0709858 0.00815029
0 1 0.0709766 0.00363901
0 1 0.0709759 0.00289855
0 1 0.0709783 0.00451051
0 1 0.0709789 0.00510582
0 1 0.0709794 0.00566514
0 1 0.07098 0.00631537
0 1 0.0709804 0.00475473
0 1 0.0709787 0.00374058
0 1 0.070977 0.0032319
0 1 0.0709779 0.00350094
0 1 0.0709785 0.00370018
0 1 0.0709819 0.00565378
0 1 0.0709833 0.00650639
0 1 0.0709847 0.00739695
0 1 0.0709863 0.00836917
0 1 0.070978 0.00401978
0 1 0.0709793 0.00488429
0 1 0.0709798 0.00535155
0 1 0.0709805 0.00597089
0 1 0.0709812 0.00667552
0 1 0.0709804 0.00482153
0 1 0.0709792 0.00441733
0 1 0.07098 0.00470282
0 1 0.0709822 0.00586143
0 1 0.0709834 0.0065724
0 1 0.0709849 0.00749428
0 1 0.0709866 0.00851967
0 1 0.0709799 0.00500689
0 1 0.0709807 0.00566186
0 1 0.0709815 0.00632323
0 1 0.0709824 0.00706219
0 1 0.0709808 0.00540346
0 1 0.0709817 0.0056127
0 1 0.0709811 0.00542904
0 1 0.0709817 0.00573036
0 1 0.0709832 0.00653427
0 1 0.0709849 0.00749918
0 1 0.0709868 0.0085874
0 1 0.0709814 0.00591427
0 1 0.0709824 0.00664214
0 1 0.0709835 0.00744343
0 1 0.0709822 0.00617796
0 1 0.0709831 0.006485
0 1 0.0709826 0.00633138
0 1 0.0709847 0.00742332
0 1 0.0709867 0.00858006
0 1 0.0709832 0.00694041
0 1 0.0709844 0.00779799
0 1 0.0709839 0.00716745
0 1 0.0709844 0.00734798
0 1 0.0709864 0.00848596
0 1 0.0709853 0.008095
0 1 0.0709859 0.00832355
VECTORS fa_u float
0.00602955 0.00249751 -0
0.00565198 0.00326317 -0
0.00630395 0.00168913 -0
0.00647048 0.000851846 -0
1e-08 0 0
0.0051777 0.00397298 -0
0.00461482 0.00461482 -0
1e-08 0 0
1e-08 0 0
0.00397299 0.0051777 -0
0.00326317 0.00565197 -0
0.00652631 -8.66012e-09 -0
0.00647048 -0.000851867 0
1e-08 0 0
1e-08 0 0
1e-08 0 0
1e-08 0 0
1e-08 0 0
1e-08 0 0
1e-08 0 0
1e-08 0 0
0.00249751 0.00602954 -0
0.00168913 0.00630396 -0
1e-08 0 0
1e-08 0 0
1e-08 0 0
0.00630392 -0.00168914 0
1e-08 0 0
0.00602948 -0.0024975 0
1e-08 0 0
1e-08 0 0
1e-08 0 0
0.000851853 0.0064705 -0
1e-08 0 0
1e-08 0 0
1e-08 0 0
1e-08 0 0
1e-08 0 0
1e-08 0 0
1e-08 0 0
1e-08 0 0
1e-08 0 0
1e-08 0 0
-8.51379e-09 0.0065263 -0
1e-08 0 0
1e-08 0 0
1e-08 0 0
0.00565191 -0.00326314 0
1e-08 0 0
0.00517763 -0.00397294 0
1e-08 0 0
1e-08 0 0
1e-08 0 0
1e-08 0 0
1e-08 0 0
1e-08 0 0
1e-08 0 0
1e-08 0 0
1e-08 0 0
1e-08 0 0
1e-08 0 0
1e-08 0 0
1e-08 0 0
-0.000851859 0.00647045 0
1e-08 0 0
1e-08 0 0
1e-08 0 0
1e-08 0 0
1e-08 0 0
0.00461476 -0.00461477 0
1e-08 0 0
0.00397293 -0.00517763 0
1e-08 0 0
1e-08 0 0
1e-08 0 0
1e-08 0 0
1e-08 0 0
1e-08 0 0
1e-08 0 0
1e-08 0 0
1e-08 0 0
1e-08 0 0
1e-08 0 0
1e-08 0 0
1e-08 0 0
-0.00168913 0.0063039 0
1e-08 0 0
1e-08 0 0
1e-08 0 0
1e-08 0 0
1e-08 0 0
1e-08 0 0
0.00326314 -0.00565191 0
1e-08 0 0
1e-08 0 0
1e-08 0 0
1e-08 0 0
1e-08 0 0
0.0024975 -0.00602948 0
1e-08 0 0
1e-08 0 0
1e-08 0 0
1e-08 0 0
1e-08 0 0
1e-08 0 0
1e-08 0 0
1e-08 0 0
1e-08 0 0
1e-08 0 0
-0.0024975 0.00602948 0
1e-08 0 0
1e-08 0 0
1e-08 0 0
1e-08 0 0
1e-08 0 0
1e-08 0 0
1e-08 0 0
1e-08 0 0
1e-08 0 0
1e-08 0 0
1e-08 0 0
1e-08 0 0
1e-08 0 0
1e-08 0 0
0.00168913 -0.0063039 0
1e-08 0 0
1e-08 0 0
1e-08 0 0
1e-08 0 0
1e-08 0 0
1e-08 0 0
1e-08 0 0
1e-08 0 0
1e-08 0 0
-0.00326313 0.00565191 0
1e-08 0 0
1e-08 0 0
1e-08 0 0
1e-08 0 0
1e-08 0 0
1e-08 0 0
1e-08 0 0
1e-08 0 0
1e-08 0 0
1e-08 0 0
1e-08 0 0
1e-08 0 0
1e-08 0 0
1e-08 0 0
1e-08 0 0
0.000851859 -0.00647045 0
1e-08 0 0
1e-08 0 0
1e-08 0 0
1e-08 0 0
1e-08 0 0
1e-08 0 0
1e-08 0 0
1e-08 0 0
1e-08 0 0
1e-08 0 0
-0.00397294 0.00517763 0
1e-08 0 0
1e-08 0 0
1e-08 0 0
1e-08 0 0
1e-08 0 0
1e-08 0 0
1e-08 0 0
1e-08 0 0
1e-08 0 0
1e-08 0 0
1e-08 0 0
1e-08 0 0
8.53154e-09 -0.0065263 0
1e-08 0 0
1e-08 0 0
1e-08 0 0
1e-08 0 0
1e-08 0 0
1e-08 0 0
1e-08 0 0
1e-08 0 0
1e-08 0 0
1e-08 0 0
1e-08 0 0
1e-08 0 0
-0.00461476 0.00461477 0
1e-08 0 0
1e-08 0 0
1e-08 0 0
1e-08 0 0
1e-08 0 0
1e-08 0 0
1e-08 0 0
1e-08 0 0
1e-08 0 0
1e-08 0 0
1e-08 0 0
1e-08 0 0
1e-08 0 0
-0.000851853 -0.00647051 0
1e-08 0 0
1e-08 0 0
1e-08 0 0
1e-08 0 0
1e-08 0 0
1e-08 0 0
1e-08 0 0
1e-08 0 0
-0.00517763 0.00397294 0
1e-08 0 0
1e-08 0 0
1e-08 0 0
1e-08 0 0
1e-08 0 0
1e-08 0 0
1e-08 0 0
1e-08 0 0
1e-08 0 0
1e-08 0 0
1e-08 0 0
-0.00168913 -0.00630396 0
1e-08 0 0
1e-08 0 0
1e-08 0 0
1e-08 0 0
1e-08 0 0
1e-08 0 0
1e-08 0 0
-0.00565191 0.00326314 0
1e-08 0 0
1e-08 0 0
1e-08 0 0
1e-08 0 0
1e-08 0 0
1e-08 0 0
1e-08 0 0
1e-08 0 0
1e-08 0 0
1e-08 0 0
1e-08 0 0
-0.00249751 -0.00602954 0
1e-08 0 0
1e-08 0 0
1e-08 0 0
1e-08 0 0
1e-08 0 0
-0.00602948 0.00249751 0
1e-08 0 0
1e-08 0 0
1e-08 0 0
1e-08 0 0
1e-08 0 0
1e-08 0 0
1e-08 0 0
1e-08 0 0
-0.00326317 -0.00565197 0
1e-08 0 0
1e-08 0 0
1e-08 0 0
1e-08 0 0
-0.00630392 0.00168914 0
1e-08 0 0
1e-08 0 0
1e-08 0 0
1e-08 0 0
1e-08 0 0
1e-08 0 0
-0.00397299 -0.0051777 0
1e-08 0 0
1e-08 0 0
1e-08 0 0
-0.00647049 0.000851867 0
1e-08 0 0
1e-08 0 0
1e-08 0 0
1e-08 0 0
1e-08 0 0
1e-08 0 0
-0.00461483 -0.00461482 0
1e-08 0 0
1e-08 0 0
-0.0065263 8.67343e-09 0
1e-08 0 0
1e-08 0 0
1e-08 0 0
1e-08 0 0
-0.0051777 -0.00397298 0
1e-08 0 0
-0.00647049 -0.000851847 0
1e-08 0 0
1e-08 0 0
-0.00565197 -0.00326316 0
-0.00630395 -0.00168913 0
-0.00602955 -0.00249751 0
