# vtk DataFile Version 2.0
CellBP Time: 0.121
ASCII
DATASET UNSTRUCTURED_GRID
POINTS 296 double
-9.18881 -3.77685 0
-8.61027 -4.95001 0
-9.60927 -2.5382 0
-9.86446 -1.25527 0
-8.35807 -2.81888 0
-7.88355 -6.03762 0
-7.02108 -7.02108 0
-7.91771 -3.87495 0
-7.34312 -4.86815 0
-6.03763 -7.88354 0
-4.95002 -8.61026 0
-9.95001 0.049989 0
-9.86445 1.35525 0
-8.65818 -1.68405 0
-8.78682 -0.529665 0
-7.5902 -2.00428 0
-7.22623 -2.90668 0
-6.63808 -5.77926 0
-5.8228 -6.59735 0
-6.79074 -3.88918 0
-6.22102 -4.67625 0
-3.77685 -9.1888 0
-2.53821 -9.60927 0
-4.90681 -7.3093 0
-3.91328 -7.88677 0
-8.79327 0.643425 0
-9.60926 2.63819 0
-8.6238 1.77418 0
-9.1888 3.87683 0
-7.74481 -0.929048 0
-7.79504 0.0802507 0
-6.95302 -1.31597 0
-1.25527 -9.86446 0
-6.44191 -2.15327 0
-6.31982 -3.05634 0
-5.53693 -5.47497 0
-4.79626 -6.11592 0
-5.65943 -3.75727 0
-5.26978 -4.56192 0
-2.86637 -8.36451 0
-1.77869 -8.64084 0
-3.92843 -6.72405 0
-3.05685 -7.15314 0
0.0499908 -9.95001 0
-7.70605 1.14358 0
-8.33912 2.91561 0
-7.55244 2.11211 0
-8.61025 5.05 0
-7.8806 3.97849 0
-7.88353 6.13761 0
-6.77917 -0.39689 0
-6.95704 0.552574 0
-5.77177 -1.00347 0
-0.590886 -8.81034 0
0.565713 -8.77153 0
-5.30347 -2.48044 0
-4.4923 -5.09611 0
-3.90279 -5.77576 0
-4.43921 -3.80501 0
-2.06258 -7.56254 0
-1.13557 -7.78646 0
-2.99478 -6.10253 0
-2.3092 -6.62031 0
1.35525 -9.86445 0
-6.68995 1.42214 0
-7.17274 3.11835 0
-6.65977 2.37318 0
-7.29528 4.98903 0
-6.71863 4.00337 0
-7.02106 7.12107 0
-6.57301 5.89461 0
-6.03761 7.98353 0
-4.45338 -1.18114 0
-5.81499 0.513785 0
-4.65645 -0.0103878 0
0.00851472 -7.84876 0
1.73869 -8.6445 0
0.949036 -7.76411 0
-4.03876 -2.40654 0
-3.48576 -1.39129 0
-3.29474 -4.80568 0
-3.26608 -3.26799 0
-1.3787 -6.67601 0
-0.508788 -7.02554 0
-1.9757 -5.53743 0
2.63818 -9.60926 0
-5.50773 2.03706 0
-6.09523 3.07246 0
-6.10565 4.87008 0
-5.76225 3.99183 0
-5.76182 6.71775 0
-5.45266 5.61991 0
-4.94999 8.71026 0
-4.83892 7.40528 0
-3.50171 -0.424335 0
-4.4496 1.24912 0
-3.71171 0.592105 0
-4.06245 2.31997 0
-3.77682 9.2888 0
2.86286 -8.33364 0
0.419721 -6.79607 0
2.02221 -7.5266 0
1.30621 -6.90625 0
-2.44482 -0.873869 0
-2.83856 -2.13127 0
-2.29457 -4.09766 0
-2.3258 -2.9738 0
-0.442426 -5.86166 0
-1.22282 -4.49946 0
3.87683 -9.1888 0
-4.79019 3.39208 0
-5.08845 4.59461 0
-4.64767 6.28212 0
-4.53935 5.3603 0
-3.84414 7.99422 0
-3.82717 6.84649 0
-2.78361 8.42377 0
-1.64915 -0.13791 0
-1.45035 -0.890644 0
-2.48927 0.507284 0
-3.25384 1.44424 0
-3.23927 3.31681 0
-2.91118 2.37193 0
-1.35519 0.627141 0
-2.53818 9.70926 0
3.93312 -7.88785 0
2.96487 -7.15856 0
0.954174 -5.82257 0
2.07456 -6.41623 0
-1.68308 -1.99219 0
-1.43453 -3.27801 0
0.0902222 -4.74737 0
-0.566217 -3.69469 0
4.93271 -7.31965 0
5.04999 -8.61026 0
-3.7773 4.55205 0
-3.73518 5.75279 0
-2.88832 7.29075 0
-3.01005 6.35448 0
-1.66274 8.7347 0
-1.94034 7.62031 0
-2.33857 4.05201 0
-0.730775 -1.32733 0
-0.836946 -0.257643 0
-1.93633 1.68088 0
-2.12592 2.87605 0
-1.30667 3.54496 0
-0.869511 1.35091 0
-0.282382 0.456073 0
-0.533575 8.87278 0
-1.25525 9.96445 0
1.11288 -4.575 0
3.91063 -6.71816 0
2.98828 -6.09552 0
2.11808 -5.42554 0
4.78507 -6.20619 0
-0.55889 -2.47698 0
0.495145 -3.4641 0
0.0535551 -1.61058 0
1.48202 -3.68247 0
5.86795 -6.61555 0
6.13761 -7.88353 0
-2.47593 5.34905 0
-2.13071 6.53528 0
-0.904185 7.80437 0
-1.27251 6.93297 0
0.0862246 7.88149 0
-1.14455 4.49512 0
0.15033 -0.617682 0
-0.797478 2.48867 0
-0.331671 3.60102 0
0.0631121 1.51282 0
0.741483 0.47345 0
0.646884 8.87547 0
0.0500114 10.05 0
2.38125 -4.28568 0
3.8597 -5.64122 0
3.00183 -5.21341 0
5.57461 -5.49266 0
4.69171 -5.28383 0
0.629716 -2.29352 0
1.25628 -2.95146 0
0.757547 -1.39154 0
2.16454 -3.13611 0
2.9941 -3.47696 0
6.15617 -4.79257 0
6.65662 -5.77021 0
7.12106 -7.02107 0
-1.01975 5.82106 0
-0.372663 6.88459 0
1.12282 7.77081 0
0.558068 7.0809 0
-0.000759522 4.72568 0
0.607063 3.82819 0
1.33901 -0.641937 0
0.539144 2.65126 0
0.966154 1.57505 0
1.91034 0.213885 0
1.61489 1.06511 0
2.12978 7.5849 0
1.79952 8.71386 0
1.35527 9.96446 0
3.82334 -4.35219 0
5.11741 -4.44975 0
5.84675 -3.93582 0
3.78447 -3.20146 0
1.81244 -1.88278 0
3.01949 -2.57417 0
6.78463 -3.9486 0
7.38278 -4.89768 0
7.98353 -6.03761 0
0.483433 5.88239 0
1.42843 6.7431 0
2.37479 6.67034 0
1.21014 4.55676 0
1.48835 3.39802 0
2.43604 -0.692087 0
2.82836 0.142622 0
1.78907 2.16307 0
2.61217 1.15028 0
3.07265 7.17157 0
2.9048 8.37847 0
2.63821 9.70926 0
4.91208 -3.32841 0
6.12187 -3.10927 0
4.17346 -2.27557 0
3.24484 -1.50308 0
6.73276 -2.31351 0
7.23362 -3.04318 0
7.96659 -3.91307 0
8.71025 -4.95 0
2.02396 5.60078 0
3.08717 6.15493 0
2.36427 4.12752 0
2.42041 3.0613 0
3.52616 -0.460916 0
3.61622 0.613376 0
2.96224 2.2884 0
3.54612 1.52549 0
4.01319 5.8996 0
3.98554 6.795 0
3.97435 7.94078 0
3.87685 9.2888 0
5.56994 -1.91652 0
4.50997 -1.12978 0
6.71567 -1.33643 0
7.59461 -2.03695 0
8.39944 -2.86211 0
9.2888 -3.77683 0
3.41988 4.87808 0
3.3396 3.38599 0
4.69212 0.130103 0
4.52001 1.31022 0
4.06609 2.44426 0
4.57199 5.15406 0
4.84529 6.19283 0
4.98203 7.38279 0
5.05002 8.71026 0
5.88496 -0.434999 0
7.01313 -0.488385 0
7.76212 -1.08562 0
8.68762 -1.74648 0
9.70926 -2.53819 0
4.55369 3.82862 0
5.8194 1.09889 0
5.37279 2.53566 0
5.38211 4.62233 0
5.61432 5.52566 0
5.89936 6.67435 0
6.13763 7.98354 0
6.84863 0.463709 0
7.85637 -0.025639 0
8.86367 -0.58454 0
9.96446 -1.25525 0
6.96329 1.34999 0
5.72337 3.77996 0
6.5441 2.19838 0
6.38289 3.08928 0
6.29516 4.689 0
6.69582 5.84021 0
7.12108 7.12108 0
7.78766 0.968021 0
8.86302 0.572985 0
10.05 0.0500096 0
7.61957 2.00518 0
6.83227 3.90603 0
7.27284 2.94812 0
7.38148 4.88786 0
7.98355 6.13762 0
8.72662 1.72763 0
9.96446 1.35527 0
8.42455 2.83897 0
7.98503 3.91797 0
8.71027 5.05001 0
9.70927 2.6382 0
9.28881 3.87684 0
CELLS 542 2168
3 2 0 4
3 0 1 7
3 4 0 7
3 1 5 8
3 7 1 8
3 3 2 13
3 13 2 4
3 11 3 14
3 14 3 13
3 13 4 15
3 4 7 16
3 15 4 16
3 5 6 17
3 8 5 17
3 6 9 18
3 17 6 18
3 7 8 19
3 16 7 19
3 8 17 20
3 19 8 20
3 9 10 23
3 18 9 23
3 10 21 24
3 23 10 24
3 12 11 25
3 25 11 14
3 26 12 27
3 27 12 25
3 14 13 29
3 29 13 15
3 25 14 30
3 30 14 29
3 29 15 31
3 15 16 33
3 31 15 33
3 16 19 34
3 33 16 34
3 17 18 35
3 20 17 35
3 18 23 36
3 35 18 36
3 19 20 37
3 34 19 37
3 20 35 38
3 37 20 38
3 21 22 39
3 24 21 39
3 22 32 40
3 39 22 40
3 23 24 41
3 36 23 41
3 24 39 42
3 41 24 42
3 27 25 44
3 44 25 30
3 28 26 45
3 45 26 27
3 45 27 46
3 46 27 44
3 47 28 48
3 48 28 45
3 30 29 50
3 50 29 31
3 44 30 51
3 51 30 50
3 50 31 52
3 31 33 52
3 32 43 53
3 40 32 53
3 53 43 54
3 33 34 55
3 34 37 55
3 33 55 52
3 35 36 56
3 38 35 56
3 36 41 57
3 56 36 57
3 37 38 58
3 38 56 58
3 37 58 55
3 39 40 59
3 42 39 59
3 40 53 60
3 59 40 60
3 41 42 61
3 57 41 61
3 42 59 62
3 61 42 62
3 43 63 54
3 46 44 64
3 64 44 51
3 48 45 65
3 65 45 46
3 65 46 66
3 66 46 64
3 49 47 67
3 67 47 48
3 67 48 68
3 68 48 65
3 69 49 70
3 70 49 67
3 52 55 72
3 64 51 73
3 51 50 73
3 50 52 73
3 73 52 74
3 74 52 72
3 53 54 75
3 60 53 75
3 54 63 76
3 54 76 77
3 75 54 77
3 55 58 78
3 72 55 78
3 72 78 79
3 56 57 80
3 57 61 80
3 56 80 58
3 58 80 81
3 78 58 81
3 59 60 82
3 62 59 82
3 60 75 83
3 82 60 83
3 61 62 84
3 62 82 84
3 61 84 80
3 63 85 76
3 66 64 86
3 64 73 86
3 68 65 87
3 87 65 66
3 87 66 86
3 70 67 88
3 88 67 68
3 88 68 89
3 89 68 87
3 71 69 90
3 90 69 70
3 90 70 91
3 91 70 88
3 92 71 93
3 93 71 90
3 74 72 94
3 94 72 79
3 86 73 95
3 95 73 74
3 95 74 96
3 96 74 94
3 97 86 95
3 76 85 99
3 75 77 100
3 83 75 100
3 76 99 101
3 77 76 101
3 77 101 102
3 100 77 102
3 94 79 103
3 78 81 104
3 79 78 104
3 79 104 103
3 80 84 105
3 81 80 105
3 81 105 106
3 104 81 106
3 82 83 107
3 83 100 107
3 82 107 84
3 84 107 108
3 105 84 108
3 85 109 99
3 89 87 110
3 87 86 110
3 110 86 97
3 91 88 111
3 111 88 89
3 111 89 110
3 93 90 112
3 112 90 91
3 112 91 113
3 113 91 111
3 98 92 114
3 114 92 93
3 114 93 115
3 115 93 112
3 116 98 114
3 117 103 118
3 96 94 119
3 94 103 119
3 119 103 117
3 97 95 120
3 120 95 96
3 120 96 119
3 121 110 97
3 121 97 122
3 122 97 120
3 123 119 117
3 124 98 116
3 99 109 125
3 99 125 126
3 101 99 126
3 100 102 127
3 100 127 107
3 101 126 128
3 102 101 128
3 102 128 127
3 104 106 129
3 104 129 103
3 103 129 118
3 105 108 130
3 106 105 130
3 106 130 129
3 107 127 131
3 108 107 131
3 108 131 132
3 108 132 130
3 109 134 125
3 125 134 133
3 113 111 135
3 111 110 135
3 135 110 121
3 115 112 136
3 136 112 113
3 136 113 135
3 116 114 137
3 137 114 115
3 137 115 138
3 138 115 136
3 139 124 116
3 139 116 140
3 140 116 137
3 141 135 121
3 118 129 142
3 118 142 143
3 117 118 143
3 123 117 143
3 122 120 144
3 120 119 144
3 144 119 123
3 141 121 145
3 145 121 122
3 145 122 144
3 146 141 145
3 147 144 123
3 147 123 148
3 143 148 123
3 150 124 139
3 149 150 139
3 131 127 151
3 125 133 152
3 126 125 152
3 126 152 153
3 128 126 153
3 128 153 154
3 128 154 127
3 127 154 151
3 152 133 155
3 130 132 156
3 130 156 129
3 129 156 142
3 131 151 157
3 132 131 157
3 132 157 156
3 156 158 142
3 157 151 159
3 133 160 155
3 134 161 133
3 133 161 160
3 138 136 162
3 136 135 162
3 162 135 141
3 140 137 163
3 163 137 138
3 163 138 162
3 149 139 164
3 164 139 140
3 164 140 165
3 165 140 163
3 166 149 164
3 167 162 141
3 167 141 146
3 142 158 168
3 143 142 168
3 143 168 148
3 146 145 169
3 145 144 169
3 169 144 147
3 170 167 146
3 170 146 169
3 171 169 147
3 171 147 148
3 171 148 172
3 168 172 148
3 173 149 166
3 174 150 149
3 173 174 149
3 154 175 151
3 151 175 159
3 152 155 176
3 153 152 176
3 153 176 177
3 153 177 154
3 154 177 175
3 155 160 178
3 155 178 179
3 176 155 179
3 156 157 180
3 156 180 158
3 157 159 181
3 157 181 180
3 158 180 182
3 158 182 168
3 159 175 183
3 159 183 181
3 175 184 183
3 160 186 178
3 178 186 185
3 161 187 160
3 160 187 186
3 165 163 188
3 163 162 188
3 188 162 167
3 166 164 189
3 189 164 165
3 189 165 188
3 190 173 166
3 190 166 191
3 191 166 189
3 192 188 167
3 192 167 170
3 193 192 170
3 182 194 168
3 194 172 168
3 193 170 195
3 170 169 195
3 195 169 171
3 196 195 171
3 196 171 172
3 194 197 172
3 197 198 172
3 198 196 172
3 200 173 190
3 199 200 190
3 201 174 173
3 200 201 173
3 176 179 202
3 177 176 202
3 177 202 175
3 175 202 184
3 178 185 203
3 178 203 179
3 179 203 202
3 203 185 204
3 202 205 184
3 183 206 181
3 180 181 206
3 180 206 182
3 182 206 194
3 183 184 207
3 205 207 184
3 183 207 206
3 185 208 204
3 186 209 185
3 185 209 208
3 187 210 186
3 186 210 209
3 191 189 211
3 189 188 211
3 211 188 192
3 199 190 212
3 212 190 191
3 212 191 211
3 213 199 212
3 214 211 192
3 214 192 193
3 215 214 193
3 215 193 195
3 206 216 194
3 216 197 194
3 216 217 197
3 215 195 218
3 218 195 196
3 198 218 196
3 217 219 197
3 219 218 198
3 197 219 198
3 220 199 213
3 221 200 199
3 220 221 199
3 222 201 200
3 221 222 200
3 203 204 223
3 203 223 202
3 202 223 205
3 204 208 224
3 204 224 223
3 205 223 225
3 205 225 207
3 207 225 226
3 207 226 206
3 226 216 206
3 208 228 224
3 224 228 227
3 209 229 208
3 229 228 208
3 210 230 209
3 209 230 229
3 213 212 231
3 212 211 231
3 231 211 214
3 232 220 213
3 232 213 231
3 233 231 214
3 233 214 215
3 234 233 215
3 234 215 218
3 226 235 216
3 235 217 216
3 235 236 217
3 217 236 219
3 237 234 218
3 237 218 219
3 236 238 219
3 238 237 219
3 240 220 232
3 239 240 232
3 241 221 220
3 240 241 220
3 242 222 221
3 241 242 221
3 224 227 243
3 224 243 223
3 223 243 225
3 225 243 244
3 225 244 226
3 226 244 235
3 227 245 243
3 228 246 227
3 227 246 245
3 229 247 228
3 228 247 246
3 230 248 229
3 229 248 247
3 239 232 249
3 232 231 249
3 249 231 233
3 250 249 233
3 250 233 234
3 237 250 234
3 244 251 235
3 235 251 236
3 251 252 236
3 236 252 238
3 252 253 238
3 253 250 237
3 253 237 238
3 254 239 249
3 255 240 239
3 254 255 239
3 256 241 240
3 255 256 240
3 257 242 241
3 256 257 241
3 245 258 243
3 243 258 244
3 244 258 251
3 245 259 258
3 246 260 245
3 245 260 259
3 247 261 246
3 246 261 260
3 248 262 247
3 247 262 261
3 254 249 263
3 263 249 250
3 253 263 250
3 258 264 251
3 251 264 252
3 264 265 252
3 265 263 253
3 252 265 253
3 266 254 263
3 267 255 254
3 266 267 254
3 268 256 255
3 267 268 255
3 269 257 256
3 268 269 256
3 259 270 258
3 270 264 258
3 260 271 259
3 259 271 270
3 261 272 260
3 260 272 271
3 262 273 261
3 273 272 261
3 270 274 264
3 275 266 263
3 275 263 265
3 274 276 264
3 276 265 264
3 276 277 265
3 277 275 265
3 278 267 266
3 275 278 266
3 279 268 267
3 278 279 267
3 280 269 268
3 279 280 268
3 271 281 270
3 270 281 274
3 272 282 271
3 271 282 281
3 273 283 272
3 272 283 282
3 281 284 274
3 274 284 276
3 285 278 275
3 277 285 275
3 284 286 276
3 286 285 277
3 276 286 277
3 287 279 278
3 285 287 278
3 288 280 279
3 287 288 279
3 282 289 281
3 281 289 284
3 283 290 282
3 282 290 289
3 289 291 284
3 284 291 286
3 291 292 286
3 292 287 285
3 286 292 285
3 293 288 287
3 292 293 287
3 290 294 289
3 289 294 291
3 294 295 291
3 295 293 292
3 291 295 292
CELL_TYPES 542
5
5
5
5
5
5
5
5
5
5
5
5
5
5
5
5
5
5
5
5
5
5
5
5
5
5
5
5
5
5
5
5
5
5
5
5
5
5
5
5
5
5
5
5
5
5
5
5
5
5
5
5
5
5
5
5
5
5
5
5
5
5
5
5
5
5
5
5
5
5
5
5
5
5
5
5
5
5
5
5
5
5
5
5
5
5
5
5
5
5
5
5
5
5
5
5
5
5
5
5
5
5
5
5
5
5
5
5
5
5
5
5
5
5
5
5
5
5
5
5
5
5
5
5
5
5
5
5
5
5
5
5
5
5
5
5
5
5
5
5
5
5
5
5
5
5
5
5
5
5
5
5
5
5
5
5
5
5
5
5
5
5
5
5
5
5
5
5
5
5
5
5
5
5
5
5
5
5
5
5
5
5
5
5
5
5
5
5
5
5
5
5
5
5
5
5
5
5
5
5
5
5
5
5
5
5
5
5
5
5
5
5
5
5
5
5
5
5
5
5
5
5
5
5
5
5
5
5
5
5
5
5
5
5
5
5
5
5
5
5
5
5
5
5
5
5
5
5
5
5
5
5
5
5
5
5
5
5
5
5
5
5
5
5
5
5
5
5
5
5
5
5
5
5
5
5
5
5
5
5
5
5
5
5
5
5
5
5
5
5
5
5
5
5
5
5
5
5
5
5
5
5
5
5
5
5
5
5
5
5
5
5
5
5
5
5
5
5
5
5
5
5
5
5
5
5
5
5
5
5
5
5
5
5
5
5
5
5
5
5
5
5
5
5
5
5
5
5
5
5
5
5
5
5
5
5
5
5
5
5
5
5
5
5
5
5
5
5
5
5
5
5
5
5
5
5
5
5
5
5
5
5
5
5
5
5
5
5
5
5
5
5
5
5
5
5
5
5
5
5
5
5
5
5
5
5
5
5
5
5
5
5
5
5
5
5
5
5
5
5
5
5
5
5
5
5
5
5
5
5
5
5
5
5
5
5
5
5
5
5
5
5
5
5
5
5
5
5
5
5
5
5
5
5
5
5
5
5
5
5
5
5
5
5
5
5
5
5
5
5
5
5
5
5
5
5
5
5
5
5
5
5
5
5
5
5
5
5
5
5
5
5
5
5
5
5
5
5
5
5
5
5
5
5
5
5
5
5
5
5
5
5
5
5
5
5
5
5
5
5
5
5
5
5
5
5
5
5
5
5
5
5
5
5
5
5
5
5
5
5
5
5
POINT_DATA 296
SCALARS concentrations float 4
LOOKUP_TABLE default
0 1 0.0668878 0.00753985
0 1 0.0668881 0.0077193
0 1 0.0668873 0.00728878
0 1 0.0668867 0.0069648
0 1 0.0668864 0.00659668
0 1 0.0668883 0.00778666
0 1 0.0668883 0.00777334
0 1 0.0668868 0.00678037
0 1 0.066887 0.00688612
0 1 0.0668881 0.00766995
0 1 0.0668878 0.00747496
0 1 0.0668859 0.00657395
0 1 0.0668851 0.00613273
0 1 0.0668859 0.0063353
0 1 0.0668853 0.00600286
0 1 0.0668852 0.00577261
0 1 0.0668855 0.00591532
0 1 0.066887 0.00690421
0 1 0.066887 0.00684884
0 1 0.0668858 0.00608108
0 1 0.0668859 0.00610625
0 1 0.0668873 0.0071932
0 1 0.0668867 0.00681814
0 1 0.0668868 0.00671532
0 1 0.0668864 0.00650035
0 1 0.0668846 0.00563782
0 1 0.0668842 0.00567381
0 1 0.0668838 0.00523472
0 1 0.0668833 0.00522238
0 1 0.0668846 0.00546686
0 1 0.0668841 0.0051629
0 1 0.0668842 0.0051002
0 1 0.066886 0.00636711
0 1 0.0668843 0.00510289
0 1 0.0668848 0.00541139
0 1 0.0668859 0.00609572
0 1 0.0668858 0.00600202
0 1 0.0668848 0.00532297
0 1 0.066885 0.00547722
0 1 0.066886 0.00623316
0 1 0.0668854 0.00585951
0 1 0.0668855 0.00584881
0 1 0.0668852 0.00562247
0 1 0.0668851 0.0058491
0 1 0.0668834 0.00480695
0 1 0.066883 0.0048418
0 1 0.0668828 0.00449967
0 1 0.0668824 0.00483395
0 1 0.0668822 0.00446912
0 1 0.0668817 0.00455333
0 1 0.0668835 0.00466536
0 1 0.0668831 0.00448988
0 1 0.066883 0.00423379
0 1 0.0668846 0.00541363
0 1 0.0668838 0.00490234
0 1 0.0668836 0.00452615
0 1 0.0668848 0.00528947
0 1 0.0668848 0.00531339
0 1 0.0668838 0.00460755
0 1 0.0668847 0.00535111
0 1 0.0668842 0.00503487
0 1 0.0668843 0.00499196
0 1 0.0668842 0.00492407
0 1 0.0668841 0.00529343
0 1 0.0668824 0.00410875
0 1 0.066882 0.00413496
0 1 0.0668819 0.00392386
0 1 0.0668815 0.00417471
0 1 0.0668814 0.00385282
0 1 0.0668813 0.00441314
0 1 0.066881 0.00398569
0 1 0.0668813 0.00445919
0 1 0.066882 0.00346821
0 1 0.0668822 0.00378289
0 1 0.0668815 0.00320562
0 1 0.0668834 0.00455937
0 1 0.0668829 0.00439557
0 1 0.0668827 0.00412907
0 1 0.0668825 0.00371175
0 1 0.0668814 0.00294334
0 1 0.0668836 0.00444946
0 1 0.0668824 0.0036459
0 1 0.0668835 0.00448653
0 1 0.0668831 0.00428434
0 1 0.0668831 0.00412898
0 1 0.0668831 0.00472167
0 1 0.0668812 0.00329902
0 1 0.0668812 0.0035419
0 1 0.0668808 0.00363238
0 1 0.0668808 0.0033889
0 1 0.0668809 0.00395292
0 1 0.0668806 0.00354931
0 1 0.0668819 0.0046625
0 1 0.0668812 0.00405895
0 1 0.0668808 0.00261023
0 1 0.0668807 0.00279474
0 1 0.0668805 0.00247533
0 1 0.0668801 0.00250343
0 1 0.0668828 0.00500939
0 1 0.0668819 0.00388053
0 1 0.0668823 0.0037424
0 1 0.0668818 0.00361842
0 1 0.0668818 0.00347197
0 1 0.0668802 0.00210021
0 1 0.0668813 0.00285387
0 1 0.0668823 0.00350809
0 1 0.0668815 0.00294513
0 1 0.0668822 0.00355429
0 1 0.0668817 0.00314647
0 1 0.066882 0.00417704
0 1 0.0668803 0.00290047
0 1 0.0668804 0.00319346
0 1 0.0668806 0.00357627
0 1 0.0668803 0.00323106
0 1 0.0668818 0.00430852
0 1 0.0668811 0.00374018
0 1 0.0668826 0.00463701
0 1 0.0668793 0.00139258
0 1 0.0668795 0.00148725
0 1 0.0668796 0.00177003
0 1 0.0668798 0.00210367
0 1 0.0668796 0.00229908
0 1 0.0668795 0.00199347
0 1 0.0668789 0.00115148
0 1 0.0668837 0.00542705
0 1 0.066881 0.00342008
0 1 0.066881 0.00316036
0 1 0.0668812 0.00293855
0 1 0.0668809 0.0029325
0 1 0.0668803 0.00208885
0 1 0.066881 0.00258903
0 1 0.0668809 0.00264749
0 1 0.0668806 0.00235042
0 1 0.0668803 0.00307715
0 1 0.0668811 0.00371918
0 1 0.06688 0.00279683
0 1 0.0668804 0.00324254
0 1 0.0668817 0.00399374
0 1 0.066881 0.00349618
0 1 0.0668834 0.00502977
0 1 0.0668824 0.00431027
0 1 0.0668797 0.00238848
0 1 0.0668792 0.00121163
0 1 0.0668788 0.000934663
0 1 0.0668791 0.0015129
0 1 0.0668793 0.00189299
0 1 0.0668797 0.00213756
0 1 0.0668788 0.001128
0 1 0.0668785 0.00071223
0 1 0.0668842 0.00541609
0 1 0.0668846 0.00588259
0 1 0.0668801 0.00212661
0 1 0.0668802 0.00279073
0 1 0.0668801 0.00254899
0 1 0.0668801 0.00233375
0 1 0.0668796 0.00257629
0 1 0.0668798 0.00167359
0 1 0.0668797 0.00170549
0 1 0.0668788 0.00087421
0 1 0.0668792 0.00147395
0 1 0.0668798 0.00291527
0 1 0.0668804 0.00342598
0 1 0.0668805 0.00300351
0 1 0.0668815 0.00366085
0 1 0.0668831 0.00465561
0 1 0.0668822 0.00404251
0 1 0.0668837 0.00499907
0 1 0.0668804 0.00266357
0 1 0.0668784 0.000421285
0 1 0.0668792 0.00162779
0 1 0.0668802 0.00230569
0 1 0.0668789 0.00119894
0 1 0.0668786 0.000755424
0 1 0.0668849 0.00581086
0 1 0.0668855 0.00633887
0 1 0.0668791 0.00163526
0 1 0.0668795 0.00225849
0 1 0.0668795 0.0020677
0 1 0.0668795 0.00251424
0 1 0.0668792 0.00221802
0 1 0.0668788 0.000954654
0 1 0.0668788 0.00110815
0 1 0.0668783 0.000369846
0 1 0.0668785 0.0010535
0 1 0.0668785 0.00126394
0 1 0.0668798 0.00262725
0 1 0.06688 0.00296103
0 1 0.0668802 0.00338224
0 1 0.0668815 0.00344395
0 1 0.0668827 0.00424544
0 1 0.0668843 0.00529922
0 1 0.0668834 0.00466603
0 1 0.0668812 0.00305377
0 1 0.0668809 0.00270736
0 1 0.0668782 0.000359429
0 1 0.0668799 0.00198125
0 1 0.0668794 0.00148706
0 1 0.066879 0.00113183
0 1 0.0668794 0.00146185
0 1 0.0668849 0.00559041
0 1 0.0668856 0.00615177
0 1 0.0668863 0.00676289
0 1 0.0668788 0.00172425
0 1 0.0668792 0.00214388
0 1 0.0668798 0.0024441
0 1 0.0668786 0.00143458
0 1 0.066878 0.000491101
0 1 0.0668783 0.00104294
0 1 0.0668805 0.00294982
0 1 0.0668806 0.00323591
0 1 0.0668807 0.00357667
0 1 0.0668824 0.00390624
0 1 0.0668837 0.0047847
0 1 0.0668843 0.00513655
0 1 0.0668818 0.00336821
0 1 0.0668811 0.00278424
0 1 0.0668788 0.00100364
0 1 0.0668796 0.00162149
0 1 0.0668804 0.00218389
0 1 0.0668802 0.00202243
0 1 0.0668852 0.00575474
0 1 0.0668861 0.00641611
0 1 0.066887 0.00712384
0 1 0.0668793 0.00196985
0 1 0.0668803 0.00266086
0 1 0.0668792 0.00164642
0 1 0.0668789 0.0012422
0 1 0.0668812 0.00319169
0 1 0.0668812 0.00333995
0 1 0.0668814 0.00363845
0 1 0.0668816 0.00396098
0 1 0.0668832 0.00433494
0 1 0.0668844 0.00514855
0 1 0.0668823 0.00360586
0 1 0.0668815 0.00300684
0 1 0.0668797 0.00177343
0 1 0.0668805 0.0023181
0 1 0.0668813 0.00283829
0 1 0.0668812 0.00274225
0 1 0.0668849 0.00544695
0 1 0.0668856 0.00596274
0 1 0.0668865 0.00664625
0 1 0.0668875 0.00742293
0 1 0.0668805 0.00256776
0 1 0.0668801 0.00213907
0 1 0.0668818 0.00346449
0 1 0.0668821 0.00381019
0 1 0.0668823 0.00410558
0 1 0.0668826 0.00446922
0 1 0.0668836 0.00455333
0 1 0.0668824 0.00365329
0 1 0.0668811 0.00274728
0 1 0.0668818 0.00319666
0 1 0.0668823 0.00352273
0 1 0.0668847 0.00530061
0 1 0.0668858 0.00604198
0 1 0.0668868 0.00681004
0 1 0.0668879 0.00764054
0 1 0.0668817 0.00325981
0 1 0.0668826 0.00395604
0 1 0.0668828 0.0042192
0 1 0.0668832 0.00460034
0 1 0.0668836 0.00503331
0 1 0.0668837 0.00454523
0 1 0.0668827 0.00387869
0 1 0.0668834 0.00431629
0 1 0.066885 0.00543657
0 1 0.0668858 0.00606729
0 1 0.066887 0.00687459
0 1 0.0668882 0.00776059
0 1 0.0668831 0.00423648
0 1 0.0668836 0.00467569
0 1 0.0668841 0.00511121
0 1 0.0668846 0.00559615
0 1 0.0668838 0.00470047
0 1 0.0668846 0.00516931
0 1 0.0668841 0.00484366
0 1 0.0668846 0.0051915
0 1 0.0668857 0.00598133
0 1 0.0668869 0.00683836
0 1 0.0668883 0.00779475
0 1 0.0668842 0.00504728
0 1 0.0668849 0.00556673
0 1 0.0668856 0.00612505
0 1 0.0668848 0.0054107
0 1 0.0668856 0.00587423
0 1 0.0668852 0.00565129
0 1 0.0668868 0.00670891
0 1 0.0668882 0.00773131
0 1 0.0668856 0.00597988
0 1 0.0668864 0.00661132
0 1 0.0668861 0.00630305
0 1 0.0668865 0.00656185
0 1 0.066888 0.00757297
0 1 0.0668871 0.00701993
0 1 0.0668876 0.00733611
VECTORS fa_u float
0.00602954 0.00249751 -0
0.00565197 0.00326316 -0
0.00630394 0.00168913 -0
0.00647048 0.000851848 -0
1e-08 0 0
0.00517769 0.00397298 -0
0.00461482 0.00461481 -0
1e-08 0 0
1e-08 0 0
0.00397298 0.00517769 -0
0.00326316 0.00565197 -0
0.00652631 -6.70555e-09 -0
0.00647049 -0.000851865 0
1e-08 0 0
1e-08 0 0
1e-08 0 0
1e-08 0 0
1e-08 0 0
1e-08 0 0
1e-08 0 0
1e-08 0 0
0.00249751 0.00602953 -0
0.00168914 0.00630396 -0
1e-08 0 0
1e-08 0 0
1e-08 0 0
0.00630392 -0.00168914 0
1e-08 0 0
0.00602949 -0.00249751 0
1e-08 0 0
1e-08 0 0
1e-08 0 0
0.000851854 0.0064705 -0
1e-08 0 0
1e-08 0 0
1e-08 0 0
1e-08 0 0
1e-08 0 0
1e-08 0 0
1e-08 0 0
1e-08 0 0
1e-08 0 0
1e-08 0 0
-6.58147e-09 0.0065263 -0
1e-08 0 0
1e-08 0 0
1e-08 0 0
0.00565191 -0.00326314 0
1e-08 0 0
0.00517763 -0.00397295 0
1e-08 0 0
1e-08 0 0
1e-08 0 0
1e-08 0 0
1e-08 0 0
1e-08 0 0
1e-08 0 0
1e-08 0 0
1e-08 0 0
1e-08 0 0
1e-08 0 0
1e-08 0 0
1e-08 0 0
-0.000851858 0.00647046 0
1e-08 0 0
1e-08 0 0
1e-08 0 0
1e-08 0 0
1e-08 0 0
0.00461477 -0.00461477 0
1e-08 0 0
0.00397294 -0.00517764 0
1e-08 0 0
1e-08 0 0
1e-08 0 0
1e-08 0 0
1e-08 0 0
1e-08 0 0
1e-08 0 0
1e-08 0 0
1e-08 0 0
1e-08 0 0
1e-08 0 0
1e-08 0 0
1e-08 0 0
-0.00168913 0.00630391 0
1e-08 0 0
1e-08 0 0
1e-08 0 0
1e-08 0 0
1e-08 0 0
1e-08 0 0
0.00326314 -0.00565192 0
1e-08 0 0
1e-08 0 0
1e-08 0 0
1e-08 0 0
1e-08 0 0
0.0024975 -0.00602949 0
1e-08 0 0
1e-08 0 0
1e-08 0 0
1e-08 0 0
1e-08 0 0
1e-08 0 0
1e-08 0 0
1e-08 0 0
1e-08 0 0
1e-08 0 0
-0.0024975 0.00602949 0
1e-08 0 0
1e-08 0 0
1e-08 0 0
1e-08 0 0
1e-08 0 0
1e-08 0 0
1e-08 0 0
1e-08 0 0
1e-08 0 0
1e-08 0 0
1e-08 0 0
1e-08 0 0
1e-08 0 0
1e-08 0 0
0.00168913 -0.00630391 0
1e-08 0 0
1e-08 0 0
1e-08 0 0
1e-08 0 0
1e-08 0 0
1e-08 0 0
1e-08 0 0
1e-08 0 0
1e-08 0 0
-0.00326314 0.00565192 0
1e-08 0 0
1e-08 0 0
1e-08 0 0
1e-08 0 0
1e-08 0 0
1e-08 0 0
1e-08 0 0
1e-08 0 0
1e-08 0 0
1e-08 0 0
1e-08 0 0
1e-08 0 0
1e-08 0 0
1e-08 0 0
1e-08 0 0
0.000851858 -0.00647046 0
1e-08 0 0
1e-08 0 0
1e-08 0 0
1e-08 0 0
1e-08 0 0
1e-08 0 0
1e-08 0 0
1e-08 0 0
1e-08 0 0
1e-08 0 0
-0.00397294 0.00517764 0
1e-08 0 0
1e-08 0 0
1e-08 0 0
1e-08 0 0
1e-08 0 0
1e-08 0 0
1e-08 0 0
1e-08 0 0
1e-08 0 0
1e-08 0 0
1e-08 0 0
1e-08 0 0
6.54598e-09 -0.0065263 0
1e-08 0 0
1e-08 0 0
1e-08 0 0
1e-08 0 0
1e-08 0 0
1e-08 0 0
1e-08 0 0
1e-08 0 0
1e-08 0 0
1e-08 0 0
1e-08 0 0
1e-08 0 0
-0.00461477 0.00461477 0
1e-08 0 0
1e-08 0 0
1e-08 0 0
1e-08 0 0
1e-08 0 0
1e-08 0 0
1e-08 0 0
1e-08 0 0
1e-08 0 0
1e-08 0 0
1e-08 0 0
1e-08 0 0
1e-08 0 0
-0.000851854 -0.0064705 0
1e-08 0 0
1e-08 0 0
1e-08 0 0
1e-08 0 0
1e-08 0 0
1e-08 0 0
1e-08 0 0
1e-08 0 0
-0.00517764 0.00397295 0
1e-08 0 0
1e-08 0 0
1e-08 0 0
1e-08 0 0
1e-08 0 0
1e-08 0 0
1e-08 0 0
1e-08 0 0
1e-08 0 0
1e-08 0 0
1e-08 0 0
-0.00168914 -0.00630396 0
1e-08 0 0
1e-08 0 0
1e-08 0 0
1e-08 0 0
1e-08 0 0
1e-08 0 0
1e-08 0 0
-0.00565191 0.00326314 0
1e-08 0 0
1e-08 0 0
1e-08 0 0
1e-08 0 0
1e-08 0 0
1e-08 0 0
1e-08 0 0
1e-08 0 0
1e-08 0 0
1e-08 0 0
1e-08 0 0
-0.00249751 -0.00602953 0
1e-08 0 0
1e-08 0 0
1e-08 0 0
1e-08 0 0
1e-08 0 0
-0.00602949 0.00249751 0
1e-08 0 0
1e-08 0 0
1e-08 0 0
1e-08 0 0
1e-08 0 0
1e-08 0 0
1e-08 0 0
1e-08 0 0
-0.00326316 -0.00565197 0
1e-08 0 0
1e-08 0 0
1e-08 0 0
1e-08 0 0
-0.00630393 0.00168914 0
1e-08 0 0
1e-08 0 0
1e-08 0 0
1e-08 0 0
1e-08 0 0
1e-08 0 0
-0.00397298 -0.00517769 0
1e-08 0 0
1e-08 0 0
1e-08 0 0
-0.00647049 0.000851865 0
1e-08 0 0
1e-08 0 0
1e-08 0 0
1e-08 0 0
1e-08 0 0
1e-08 0 0
-0.00461482 -0.00461482 0
1e-08 0 0
1e-08 0 0
-0.0065263 6.69342e-09 0
1e-08 0 0
1e-08 0 0
1e-08 0 0
1e-08 0 0
-0.00517769 -0.00397298 0
1e-08 0 0
-0.00647048 -0.000851848 0
1e-08 0 0
1e-08 0 0
-0.00565197 -0.00326316 0
-0.00630395 -0.00168913 0
-0.00602954 -0.00249751 0
