# vtk DataFile Version 2.0
CellBP Time: 0.201
ASCII
DATASET UNSTRUCTURED_GRID
POINTS 296 double
-9.18881 -3.77686 0
-8.61028 -4.95002 0
-9.60927 -2.53822 0
-9.86446 -1.25529 0
-8.35807 -2.81889 0
-7.88356 -6.03764 0
-7.0211 -7.02109 0
-7.91771 -3.87496 0
-7.34313 -4.86816 0
-6.03764 -7.88355 0
-4.95003 -8.61027 0
-9.95001 0.0499714 0
-9.86445 1.35523 0
-8.65818 -1.68406 0
-8.78682 -0.52968 0
-7.5902 -2.00429 0
-7.22624 -2.90669 0
-6.63809 -5.77927 0
-5.82281 -6.59735 0
-6.79075 -3.88919 0
-6.22103 -4.67626 0
-3.77687 -9.18881 0
-2.53823 -9.60927 0
-4.90682 -7.30931 0
-3.91329 -7.88677 0
-8.79327 0.64341 0
-9.60926 2.63817 0
-8.62379 1.77416 0
-9.18879 3.87681 0
-7.74481 -0.929062 0
-7.79504 0.0802372 0
-6.95303 -1.31598 0
-1.25529 -9.86446 0
-6.44192 -2.15328 0
-6.31983 -3.05635 0
-5.53694 -5.47497 0
-4.79627 -6.11593 0
-5.65943 -3.75728 0
-5.26979 -4.56193 0
-2.86639 -8.36451 0
-1.77871 -8.64084 0
-3.92844 -6.72406 0
-3.05686 -7.15314 0
0.0499723 -9.95 0
-7.70604 1.14357 0
-8.33912 2.91559 0
-7.55244 2.11209 0
-8.61024 5.04998 0
-7.88059 3.97848 0
-7.88352 6.1376 0
-6.77918 -0.396901 0
-6.95704 0.552562 0
-5.77177 -1.00348 0
-0.590903 -8.81034 0
0.565697 -8.77152 0
-5.30347 -2.48044 0
-4.49231 -5.09611 0
-3.9028 -5.77576 0
-4.43922 -3.80501 0
-2.0626 -7.56254 0
-1.13559 -7.78646 0
-2.99479 -6.10253 0
-2.30922 -6.62031 0
1.35523 -9.86445 0
-6.68995 1.42213 0
-7.17274 3.11834 0
-6.65977 2.37317 0
-7.29527 4.98901 0
-6.71862 4.00336 0
-7.02105 7.12105 0
-6.573 5.8946 0
-6.03759 7.98352 0
-4.45338 -1.18115 0
-5.81499 0.513775 0
-4.65645 -0.0103956 0
0.00850017 -7.84876 0
1.73867 -8.6445 0
0.949022 -7.7641 0
-4.03877 -2.40654 0
-3.48576 -1.39129 0
-3.29475 -4.80568 0
-3.26608 -3.268 0
-1.37871 -6.67601 0
-0.508801 -7.02554 0
-1.97571 -5.53743 0
2.63816 -9.60926 0
-5.50773 2.03705 0
-6.09523 3.07245 0
-6.10564 4.87007 0
-5.76224 3.99182 0
-5.76181 6.71774 0
-5.45265 5.6199 0
-4.94998 8.71024 0
-4.83891 7.40527 0
-3.50172 -0.42434 0
-4.4496 1.24911 0
-3.71171 0.592099 0
-4.06244 2.31996 0
-3.77681 9.28879 0
2.86284 -8.33363 0
0.419708 -6.79607 0
2.0222 -7.52659 0
1.3062 -6.90625 0
-2.44482 -0.873873 0
-2.83856 -2.13128 0
-2.29457 -4.09766 0
-2.32581 -2.9738 0
-0.442437 -5.86165 0
-1.22282 -4.49946 0
3.87681 -9.18879 0
-4.79019 3.39207 0
-5.08844 4.5946 0
-4.64766 6.28211 0
-4.53934 5.36029 0
-3.84413 7.99421 0
-3.82716 6.84648 0
-2.78359 8.42376 0
-1.64915 -0.137913 0
-1.45035 -0.890646 0
-2.48927 0.507279 0
-3.25384 1.44424 0
-3.23927 3.3168 0
-2.91118 2.37192 0
-1.35518 0.627139 0
-2.53816 9.70925 0
3.93311 -7.88784 0
2.96486 -7.15855 0
0.954163 -5.82257 0
2.07455 -6.41622 0
-1.68308 -1.99219 0
-1.43454 -3.27801 0
0.0902133 -4.74737 0
-0.566224 -3.69469 0
4.9327 -7.31964 0
5.04998 -8.61025 0
-3.77729 4.55204 0
-3.73517 5.75279 0
-2.88831 7.29074 0
-3.01004 6.35447 0
-1.66273 8.73469 0
-1.94033 7.6203 0
-2.33856 4.052 0
-0.730778 -1.32733 0
-0.836948 -0.257644 0
-1.93633 1.68087 0
-2.12591 2.87604 0
-1.30666 3.54496 0
-0.869509 1.35091 0
-0.282382 0.456072 0
-0.53356 8.87278 0
-1.25523 9.96445 0
1.11287 -4.575 0
3.91061 -6.71816 0
2.98827 -6.09551 0
2.11807 -5.42553 0
4.78506 -6.20618 0
-0.558895 -2.47698 0
0.495138 -3.4641 0
0.0535516 -1.61058 0
1.48201 -3.68247 0
5.86794 -6.61554 0
6.13759 -7.88352 0
-2.47593 5.34904 0
-2.1307 6.53528 0
-0.904172 7.80436 0
-1.2725 6.93297 0
0.0862377 7.88149 0
-1.14455 4.49512 0
0.150328 -0.617682 0
-0.797474 2.48867 0
-0.331665 3.60102 0
0.0631139 1.51282 0
0.741483 0.473451 0
0.646899 8.87547 0
0.0500287 10.05 0
2.38124 -4.28568 0
3.85969 -5.64121 0
3.00182 -5.2134 0
5.5746 -5.49265 0
4.6917 -5.28382 0
0.629711 -2.29352 0
1.25627 -2.95146 0
0.757544 -1.39154 0
2.16453 -3.13611 0
2.99409 -3.47696 0
6.15616 -4.79255 0
6.65661 -5.77019 0
7.12105 -7.02105 0
-1.01974 5.82105 0
-0.372652 6.88459 0
1.12283 7.77081 0
0.55808 7.0809 0
-0.000752107 4.72568 0
0.607069 3.82819 0
1.33901 -0.641935 0
0.539148 2.65126 0
0.966156 1.57505 0
1.91034 0.213888 0
1.61489 1.06511 0
2.12979 7.5849 0
1.79954 8.71386 0
1.35529 9.96446 0
3.82333 -4.35218 0
5.1174 -4.44974 0
5.84674 -3.93581 0
3.78447 -3.20145 0
1.81244 -1.88278 0
3.01948 -2.57417 0
6.78462 -3.94858 0
7.38277 -4.89766 0
7.98352 -6.0376 0
0.483442 5.88239 0
1.42844 6.7431 0
2.3748 6.67034 0
1.21014 4.55676 0
1.48835 3.39802 0
2.43604 -0.692082 0
2.82836 0.142627 0
1.78907 2.16307 0
2.61217 1.15028 0
3.07266 7.17157 0
2.90481 8.37847 0
2.63823 9.70927 0
4.91207 -3.3284 0
6.12187 -3.10926 0
4.17346 -2.27556 0
3.24484 -1.50307 0
6.73275 -2.31349 0
7.23362 -3.04317 0
7.96658 -3.91305 0
8.71024 -4.94998 0
2.02397 5.60078 0
3.08718 6.15494 0
2.36427 4.12753 0
2.42041 3.0613 0
3.52616 -0.460909 0
3.61622 0.613382 0
2.96225 2.2884 0
3.54612 1.5255 0
4.0132 5.89961 0
3.98555 6.79501 0
3.97436 7.94079 0
3.87687 9.28881 0
5.56993 -1.91651 0
4.50997 -1.12977 0
6.71566 -1.33642 0
7.59461 -2.03694 0
8.39943 -2.8621 0
9.28879 -3.77682 0
3.41989 4.87809 0
3.33961 3.38599 0
4.69212 0.130111 0
4.52002 1.31022 0
4.06609 2.44427 0
4.572 5.15407 0
4.8453 6.19284 0
4.98204 7.3828 0
5.05003 8.71027 0
5.88495 -0.434989 0
7.01313 -0.488372 0
7.76211 -1.08561 0
8.68762 -1.74646 0
9.70926 -2.53817 0
4.5537 3.82863 0
5.8194 1.0989 0
5.3728 2.53567 0
5.38212 4.62233 0
5.61433 5.52567 0
5.89937 6.67436 0
6.13764 7.98355 0
6.84863 0.463721 0
7.85637 -0.025625 0
8.86367 -0.584524 0
9.96445 -1.25523 0
6.96329 1.35 0
5.72338 3.77997 0
6.5441 2.19839 0
6.38289 3.08929 0
6.29517 4.68901 0
6.69583 5.84022 0
7.1211 7.12109 0
7.78766 0.968035 0
8.86302 0.573001 0
10.05 0.0500278 0
7.61957 2.00519 0
6.83227 3.90604 0
7.27284 2.94813 0
7.38149 4.88787 0
7.98356 6.13764 0
8.72662 1.72765 0
9.96446 1.35529 0
8.42455 2.83899 0
7.98504 3.91798 0
8.71028 5.05002 0
9.70927 2.63822 0
9.28881 3.87686 0
CELLS 542 2168
3 2 0 4
3 0 1 7
3 4 0 7
3 1 5 8
3 7 1 8
3 3 2 13
3 13 2 4
3 11 3 14
3 14 3 13
3 13 4 15
3 4 7 16
3 15 4 16
3 5 6 17
3 8 5 17
3 6 9 18
3 17 6 18
3 7 8 19
3 16 7 19
3 8 17 20
3 19 8 20
3 9 10 23
3 18 9 23
3 10 21 24
3 23 10 24
3 12 11 25
3 25 11 14
3 26 12 27
3 27 12 25
3 14 13 29
3 29 13 15
3 25 14 30
3 30 14 29
3 29 15 31
3 15 16 33
3 31 15 33
3 16 19 34
3 33 16 34
3 17 18 35
3 20 17 35
3 18 23 36
3 35 18 36
3 19 20 37
3 34 19 37
3 20 35 38
3 37 20 38
3 21 22 39
3 24 21 39
3 22 32 40
3 39 22 40
3 23 24 41
3 36 23 41
3 24 39 42
3 41 24 42
3 27 25 44
3 44 25 30
3 28 26 45
3 45 26 27
3 45 27 46
3 46 27 44
3 47 28 48
3 48 28 45
3 30 29 50
3 50 29 31
3 44 30 51
3 51 30 50
3 50 31 52
3 31 33 52
3 32 43 53
3 40 32 53
3 53 43 54
3 33 34 55
3 34 37 55
3 33 55 52
3 35 36 56
3 38 35 56
3 36 41 57
3 56 36 57
3 37 38 58
3 38 56 58
3 37 58 55
3 39 40 59
3 42 39 59
3 40 53 60
3 59 40 60
3 41 42 61
3 57 41 61
3 42 59 62
3 61 42 62
3 43 63 54
3 46 44 64
3 64 44 51
3 48 45 65
3 65 45 46
3 65 46 66
3 66 46 64
3 49 47 67
3 67 47 48
3 67 48 68
3 68 48 65
3 69 49 70
3 70 49 67
3 52 55 72
3 64 51 73
3 51 50 73
3 50 52 73
3 73 52 74
3 74 52 72
3 53 54 75
3 60 53 75
3 54 63 76
3 54 76 77
3 75 54 77
3 55 58 78
3 72 55 78
3 72 78 79
3 56 57 80
3 57 61 80
3 56 80 58
3 58 80 81
3 78 58 81
3 59 60 82
3 62 59 82
3 60 75 83
3 82 60 83
3 61 62 84
3 62 82 84
3 61 84 80
3 63 85 76
3 66 64 86
3 64 73 86
3 68 65 87
3 87 65 66
3 87 66 86
3 70 67 88
3 88 67 68
3 88 68 89
3 89 68 87
3 71 69 90
3 90 69 70
3 90 70 91
3 91 70 88
3 92 71 93
3 93 71 90
3 74 72 94
3 94 72 79
3 86 73 95
3 95 73 74
3 95 74 96
3 96 74 94
3 97 86 95
3 76 85 99
3 75 77 100
3 83 75 100
3 76 99 101
3 77 76 101
3 77 101 102
3 100 77 102
3 94 79 103
3 78 81 104
3 79 78 104
3 79 104 103
3 80 84 105
3 81 80 105
3 81 105 106
3 104 81 106
3 82 83 107
3 83 100 107
3 82 107 84
3 84 107 108
3 105 84 108
3 85 109 99
3 89 87 110
3 87 86 110
3 110 86 97
3 91 88 111
3 111 88 89
3 111 89 110
3 93 90 112
3 112 90 91
3 112 91 113
3 113 91 111
3 98 92 114
3 114 92 93
3 114 93 115
3 115 93 112
3 116 98 114
3 117 103 118
3 96 94 119
3 94 103 119
3 119 103 117
3 97 95 120
3 120 95 96
3 120 96 119
3 121 110 97
3 121 97 122
3 122 97 120
3 123 119 117
3 124 98 116
3 99 109 125
3 99 125 126
3 101 99 126
3 100 102 127
3 100 127 107
3 101 126 128
3 102 101 128
3 102 128 127
3 104 106 129
3 104 129 103
3 103 129 118
3 105 108 130
3 106 105 130
3 106 130 129
3 107 127 131
3 108 107 131
3 108 131 132
3 108 132 130
3 109 134 125
3 125 134 133
3 113 111 135
3 111 110 135
3 135 110 121
3 115 112 136
3 136 112 113
3 136 113 135
3 116 114 137
3 137 114 115
3 137 115 138
3 138 115 136
3 139 124 116
3 139 116 140
3 140 116 137
3 141 135 121
3 118 129 142
3 118 142 143
3 117 118 143
3 123 117 143
3 122 120 144
3 120 119 144
3 144 119 123
3 141 121 145
3 145 121 122
3 145 122 144
3 146 141 145
3 147 144 123
3 147 123 148
3 143 148 123
3 150 124 139
3 149 150 139
3 131 127 151
3 125 133 152
3 126 125 152
3 126 152 153
3 128 126 153
3 128 153 154
3 128 154 127
3 127 154 151
3 152 133 155
3 130 132 156
3 130 156 129
3 129 156 142
3 131 151 157
3 132 131 157
3 132 157 156
3 156 158 142
3 157 151 159
3 133 160 155
3 134 161 133
3 133 161 160
3 138 136 162
3 136 135 162
3 162 135 141
3 140 137 163
3 163 137 138
3 163 138 162
3 149 139 164
3 164 139 140
3 164 140 165
3 165 140 163
3 166 149 164
3 167 162 141
3 167 141 146
3 142 158 168
3 143 142 168
3 143 168 148
3 146 145 169
3 145 144 169
3 169 144 147
3 170 167 146
3 170 146 169
3 171 169 147
3 171 147 148
3 171 148 172
3 168 172 148
3 173 149 166
3 174 150 149
3 173 174 149
3 154 175 151
3 151 175 159
3 152 155 176
3 153 152 176
3 153 176 177
3 153 177 154
3 154 177 175
3 155 160 178
3 155 178 179
3 176 155 179
3 156 157 180
3 156 180 158
3 157 159 181
3 157 181 180
3 158 180 182
3 158 182 168
3 159 175 183
3 159 183 181
3 175 184 183
3 160 186 178
3 178 186 185
3 161 187 160
3 160 187 186
3 165 163 188
3 163 162 188
3 188 162 167
3 166 164 189
3 189 164 165
3 189 165 188
3 190 173 166
3 190 166 191
3 191 166 189
3 192 188 167
3 192 167 170
3 193 192 170
3 182 194 168
3 194 172 168
3 193 170 195
3 170 169 195
3 195 169 171
3 196 195 171
3 196 171 172
3 194 197 172
3 197 198 172
3 198 196 172
3 200 173 190
3 199 200 190
3 201 174 173
3 200 201 173
3 176 179 202
3 177 176 202
3 177 202 175
3 175 202 184
3 178 185 203
3 178 203 179
3 179 203 202
3 203 185 204
3 202 205 184
3 183 206 181
3 180 181 206
3 180 206 182
3 182 206 194
3 183 184 207
3 205 207 184
3 183 207 206
3 185 208 204
3 186 209 185
3 185 209 208
3 187 210 186
3 186 210 209
3 191 189 211
3 189 188 211
3 211 188 192
3 199 190 212
3 212 190 191
3 212 191 211
3 213 199 212
3 214 211 192
3 214 192 193
3 215 214 193
3 215 193 195
3 206 216 194
3 216 197 194
3 216 217 197
3 215 195 218
3 218 195 196
3 198 218 196
3 217 219 197
3 219 218 198
3 197 219 198
3 220 199 213
3 221 200 199
3 220 221 199
3 222 201 200
3 221 222 200
3 203 204 223
3 203 223 202
3 202 223 205
3 204 208 224
3 204 224 223
3 205 223 225
3 205 225 207
3 207 225 226
3 207 226 206
3 226 216 206
3 208 228 224
3 224 228 227
3 209 229 208
3 229 228 208
3 210 230 209
3 209 230 229
3 213 212 231
3 212 211 231
3 231 211 214
3 232 220 213
3 232 213 231
3 233 231 214
3 233 214 215
3 234 233 215
3 234 215 218
3 226 235 216
3 235 217 216
3 235 236 217
3 217 236 219
3 237 234 218
3 237 218 219
3 236 238 219
3 238 237 219
3 240 220 232
3 239 240 232
3 241 221 220
3 240 241 220
3 242 222 221
3 241 242 221
3 224 227 243
3 224 243 223
3 223 243 225
3 225 243 244
3 225 244 226
3 226 244 235
3 227 245 243
3 228 246 227
3 227 246 245
3 229 247 228
3 228 247 246
3 230 248 229
3 229 248 247
3 239 232 249
3 232 231 249
3 249 231 233
3 250 249 233
3 250 233 234
3 237 250 234
3 244 251 235
3 235 251 236
3 251 252 236
3 236 252 238
3 252 253 238
3 253 250 237
3 253 237 238
3 254 239 249
3 255 240 239
3 254 255 239
3 256 241 240
3 255 256 240
3 257 242 241
3 256 257 241
3 245 258 243
3 243 258 244
3 244 258 251
3 245 259 258
3 246 260 245
3 245 260 259
3 247 261 246
3 246 261 260
3 248 262 247
3 247 262 261
3 254 249 263
3 263 249 250
3 253 263 250
3 258 264 251
3 251 264 252
3 264 265 252
3 265 263 253
3 252 265 253
3 266 254 263
3 267 255 254
3 266 267 254
3 268 256 255
3 267 268 255
3 269 257 256
3 268 269 256
3 259 270 258
3 270 264 258
3 260 271 259
3 259 271 270
3 261 272 260
3 260 272 271
3 262 273 261
3 273 272 261
3 270 274 264
3 275 266 263
3 275 263 265
3 274 276 264
3 276 265 264
3 276 277 265
3 277 275 265
3 278 267 266
3 275 278 266
3 279 268 267
3 278 279 267
3 280 269 268
3 279 280 268
3 271 281 270
3 270 281 274
3 272 282 271
3 271 282 281
3 273 283 272
3 272 283 282
3 281 284 274
3 274 284 276
3 285 278 275
3 277 285 275
3 284 286 276
3 286 285 277
3 276 286 277
3 287 279 278
3 285 287 278
3 288 280 279
3 287 288 279
3 282 289 281
3 281 289 284
3 283 290 282
3 282 290 289
3 289 291 284
3 284 291 286
3 291 292 286
3 292 287 285
3 286 292 285
3 293 288 287
3 292 293 287
3 290 294 289
3 289 294 291
3 294 295 291
3 295 293 292
3 291 295 292
CELL_TYPES 542
5
5
5
5
5
5
5
5
5
5
5
5
5
5
5
5
5
5
5
5
5
5
5
5
5
5
5
5
5
5
5
5
5
5
5
5
5
5
5
5
5
5
5
5
5
5
5
5
5
5
5
5
5
5
5
5
5
5
5
5
5
5
5
5
5
5
5
5
5
5
5
5
5
5
5
5
5
5
5
5
5
5
5
5
5
5
5
5
5
5
5
5
5
5
5
5
5
5
5
5
5
5
5
5
5
5
5
5
5
5
5
5
5
5
5
5
5
5
5
5
5
5
5
5
5
5
5
5
5
5
5
5
5
5
5
5
5
5
5
5
5
5
5
5
5
5
5
5
5
5
5
5
5
5
5
5
5
5
5
5
5
5
5
5
5
5
5
5
5
5
5
5
5
5
5
5
5
5
5
5
5
5
5
5
5
5
5
5
5
5
5
5
5
5
5
5
5
5
5
5
5
5
5
5
5
5
5
5
5
5
5
5
5
5
5
5
5
5
5
5
5
5
5
5
5
5
5
5
5
5
5
5
5
5
5
5
5
5
5
5
5
5
5
5
5
5
5
5
5
5
5
5
5
5
5
5
5
5
5
5
5
5
5
5
5
5
5
5
5
5
5
5
5
5
5
5
5
5
5
5
5
5
5
5
5
5
5
5
5
5
5
5
5
5
5
5
5
5
5
5
5
5
5
5
5
5
5
5
5
5
5
5
5
5
5
5
5
5
5
5
5
5
5
5
5
5
5
5
5
5
5
5
5
5
5
5
5
5
5
5
5
5
5
5
5
5
5
5
5
5
5
5
5
5
5
5
5
5
5
5
5
5
5
5
5
5
5
5
5
5
5
5
5
5
5
5
5
5
5
5
5
5
5
5
5
5
5
5
5
5
5
5
5
5
5
5
5
5
5
5
5
5
5
5
5
5
5
5
5
5
5
5
5
5
5
5
5
5
5
5
5
5
5
5
5
5
5
5
5
5
5
5
5
5
5
5
5
5
5
5
5
5
5
5
5
5
5
5
5
5
5
5
5
5
5
5
5
5
5
5
5
5
5
5
5
5
5
5
5
5
5
5
5
5
5
5
5
5
5
5
5
5
5
5
5
5
5
5
5
5
5
5
5
5
5
5
5
5
5
5
5
5
5
5
5
5
5
5
5
5
5
5
5
5
5
5
5
5
5
5
5
5
5
5
5
5
5
5
5
5
5
5
5
5
5
5
5
5
5
5
5
5
POINT_DATA 296
SCALARS concentrations float 4
LOOKUP_TABLE default
0 1 0.0809593 0.0138867
0 1 0.0809596 0.0138107
0 1 0.0809589 0.0139899
0 1 0.0809583 0.0140959
0 1 0.0809552 0.0123054
0 1 0.0809597 0.0137757
0 1 0.0809597 0.0137981
0 1 0.0809555 0.0122399
0 1 0.0809557 0.0121992
0 1 0.0809596 0.0138689
0 1 0.0809593 0.0139858
0 1 0.0809576 0.0141726
0 1 0.0809567 0.0142003
0 1 0.0809547 0.0123743
0 1 0.080954 0.0124064
0 1 0.0809516 0.0109381
0 1 0.0809518 0.01081
0 1 0.0809557 0.0121886
0 1 0.0809556 0.0122273
0 1 0.0809521 0.0108284
0 1 0.0809521 0.0107627
0 1 0.0809589 0.0141223
0 1 0.0809583 0.0142769
0 1 0.0809555 0.0123101
0 1 0.0809551 0.0124115
0 1 0.0809534 0.0124619
0 1 0.0809557 0.014183
0 1 0.0809525 0.0124393
0 1 0.0809547 0.0141382
0 1 0.0809509 0.0109131
0 1 0.0809503 0.0109363
0 1 0.0809487 0.00985546
0 1 0.0809576 0.0144085
0 1 0.0809482 0.0094228
0 1 0.0809492 0.0097187
0 1 0.0809521 0.01079
0 1 0.0809519 0.0108187
0 1 0.0809486 0.00939429
0 1 0.0809493 0.00965096
0 1 0.0809548 0.0125782
0 1 0.0809541 0.0126555
0 1 0.0809517 0.0109171
0 1 0.0809514 0.0109892
0 1 0.0809566 0.0144938
0 1 0.0809496 0.0109382
0 1 0.0809517 0.0124526
0 1 0.080949 0.0110012
0 1 0.0809538 0.0140829
0 1 0.0809508 0.0123956
0 1 0.0809531 0.0140268
0 1 0.0809473 0.00947178
0 1 0.0809473 0.00975509
0 1 0.0809446 0.00813683
0 1 0.0809534 0.0127581
0 1 0.0809523 0.0127494
0 1 0.0809452 0.00810987
0 1 0.0809486 0.00944143
0 1 0.080949 0.00974148
0 1 0.0809454 0.00811519
0 1 0.080951 0.0111722
0 1 0.0809506 0.011292
0 1 0.0809481 0.00957317
0 1 0.0809485 0.00994496
0 1 0.0809556 0.0145345
0 1 0.0809462 0.00954881
0 1 0.0809481 0.0109364
0 1 0.0809463 0.00986209
0 1 0.0809501 0.0123555
0 1 0.0809475 0.0108957
0 1 0.0809528 0.0139914
0 1 0.0809496 0.0122923
0 1 0.0809529 0.0139791
0 1 0.0809407 0.00640529
0 1 0.0809436 0.00811907
0 1 0.0809402 0.00646521
0 1 0.0809497 0.0113306
0 1 0.0809515 0.0128082
0 1 0.0809488 0.0113223
0 1 0.0809413 0.006545
0 1 0.080938 0.00525332
0 1 0.0809451 0.00816346
0 1 0.0809411 0.00647602
0 1 0.0809473 0.00974143
0 1 0.0809474 0.0101291
0 1 0.0809447 0.00834994
0 1 0.0809545 0.0145359
0 1 0.0809426 0.00813941
0 1 0.0809449 0.00947887
0 1 0.0809469 0.0108336
0 1 0.0809449 0.00970437
0 1 0.0809495 0.0122864
0 1 0.0809467 0.0108238
0 1 0.0809534 0.0139922
0 1 0.0809498 0.0122582
0 1 0.0809369 0.00492006
0 1 0.0809392 0.0063873
0 1 0.080937 0.00520269
0 1 0.0809387 0.00641661
0 1 0.0809542 0.0140033
0 1 0.0809505 0.0127834
0 1 0.080946 0.00983174
0 1 0.0809478 0.0112872
0 1 0.080946 0.0101701
0 1 0.0809341 0.00369374
0 1 0.0809375 0.00501524
0 1 0.080941 0.00665866
0 1 0.0809381 0.00537284
0 1 0.0809437 0.00845694
0 1 0.0809404 0.00669528
0 1 0.0809535 0.0145004
0 1 0.0809417 0.00807262
0 1 0.0809441 0.00944332
0 1 0.0809467 0.0107677
0 1 0.0809445 0.00964805
0 1 0.0809504 0.0122777
0 1 0.0809471 0.0107814
0 1 0.0809511 0.012258
0 1 0.0809309 0.00238123
0 1 0.0809313 0.00254518
0 1 0.0809333 0.00351546
0 1 0.0809358 0.00487616
0 1 0.080938 0.00627922
0 1 0.0809358 0.00507855
0 1 0.08093 0.00202229
0 1 0.0809551 0.0140022
0 1 0.0809496 0.0127498
0 1 0.0809469 0.0112058
0 1 0.0809426 0.00854032
0 1 0.0809444 0.00975693
0 1 0.0809342 0.00380645
0 1 0.0809371 0.00517209
0 1 0.0809397 0.00688929
0 1 0.080937 0.00545228
0 1 0.0809489 0.0127238
0 1 0.0809526 0.0144539
0 1 0.0809414 0.00806139
0 1 0.0809442 0.00937482
0 1 0.0809477 0.0107495
0 1 0.080945 0.00958797
0 1 0.080952 0.0122496
0 1 0.0809484 0.0107423
0 1 0.0809382 0.00625695
0 1 0.0809304 0.00238898
0 1 0.0809286 0.00140389
0 1 0.0809326 0.00340914
0 1 0.0809352 0.00474834
0 1 0.080936 0.00493214
0 1 0.0809299 0.00199138
0 1 0.0809273 0.00055601
0 1 0.0809527 0.0121863
0 1 0.0809561 0.0139699
0 1 0.0809387 0.00685707
0 1 0.0809463 0.0112111
0 1 0.0809438 0.00980612
0 1 0.0809414 0.0084358
0 1 0.0809459 0.0112661
0 1 0.0809334 0.00380373
0 1 0.0809355 0.00516157
0 1 0.0809301 0.00256178
0 1 0.0809361 0.00581649
0 1 0.0809486 0.0127042
0 1 0.0809519 0.0144109
0 1 0.0809418 0.00795046
0 1 0.0809451 0.00931921
0 1 0.0809491 0.0106786
0 1 0.0809462 0.00952418
0 1 0.0809498 0.0106495
0 1 0.0809387 0.00610181
0 1 0.0809272 0.00122094
0 1 0.0809327 0.00329399
0 1 0.080936 0.00461093
0 1 0.0809298 0.0016845
0 1 0.0809279 0.000927007
0 1 0.0809535 0.0121174
0 1 0.080957 0.0139087
0 1 0.0809383 0.00711276
0 1 0.0809433 0.00984107
0 1 0.0809413 0.00868967
0 1 0.0809458 0.0112113
0 1 0.0809437 0.0101393
0 1 0.0809319 0.00360931
0 1 0.0809339 0.00475069
0 1 0.0809294 0.00248606
0 1 0.0809351 0.00556126
0 1 0.080937 0.00662797
0 1 0.0809459 0.0111419
0 1 0.0809486 0.0126214
0 1 0.0809518 0.0143825
0 1 0.0809427 0.00787527
0 1 0.0809463 0.00924223
0 1 0.0809503 0.0105212
0 1 0.0809476 0.00947355
0 1 0.0809396 0.00612597
0 1 0.0809373 0.00488714
0 1 0.080929 0.00216422
0 1 0.0809336 0.00327175
0 1 0.0809311 0.00209188
0 1 0.0809308 0.00249448
0 1 0.0809313 0.00230051
0 1 0.080951 0.0104723
0 1 0.0809542 0.0120129
0 1 0.0809578 0.0138134
0 1 0.0809402 0.00832383
0 1 0.0809429 0.0096907
0 1 0.080944 0.0100329
0 1 0.080938 0.00709638
0 1 0.0809317 0.00384898
0 1 0.0809353 0.00570789
0 1 0.0809466 0.0111704
0 1 0.0809492 0.0126652
0 1 0.0809523 0.0143793
0 1 0.0809437 0.00774904
0 1 0.0809474 0.00909662
0 1 0.0809484 0.0092895
0 1 0.0809403 0.00601234
0 1 0.0809372 0.00459803
0 1 0.080932 0.00352323
0 1 0.0809335 0.00375721
0 1 0.0809343 0.00338253
0 1 0.0809342 0.00359275
0 1 0.0809511 0.010279
0 1 0.0809546 0.0118619
0 1 0.0809585 0.0136868
0 1 0.0809409 0.0084386
0 1 0.080944 0.00972192
0 1 0.0809378 0.0067269
0 1 0.0809347 0.00504575
0 1 0.0809454 0.0100224
0 1 0.0809472 0.011116
0 1 0.08095 0.0126533
0 1 0.080953 0.0143729
0 1 0.0809446 0.00770257
0 1 0.0809481 0.00895622
0 1 0.0809408 0.00600575
0 1 0.080938 0.00484695
0 1 0.0809354 0.00485506
0 1 0.0809365 0.00482768
0 1 0.0809374 0.00468195
0 1 0.0809376 0.00495074
0 1 0.0809491 0.00926304
0 1 0.0809516 0.0103233
0 1 0.080955 0.0117842
0 1 0.080959 0.013561
0 1 0.0809417 0.00825317
0 1 0.0809383 0.00644729
0 1 0.0809453 0.00954816
0 1 0.0809481 0.0110707
0 1 0.0809508 0.0126021
0 1 0.080954 0.01436
0 1 0.0809451 0.00763325
0 1 0.080941 0.00600766
0 1 0.0809394 0.00633416
0 1 0.0809402 0.00617625
0 1 0.0809408 0.00607586
0 1 0.0809484 0.00890847
0 1 0.0809518 0.0102635
0 1 0.0809554 0.0117527
0 1 0.0809594 0.0134573
0 1 0.0809429 0.00810332
0 1 0.0809465 0.00972154
0 1 0.0809487 0.0109522
0 1 0.0809517 0.0125136
0 1 0.080955 0.0143246
0 1 0.0809451 0.00764694
0 1 0.0809439 0.00793087
0 1 0.0809447 0.00776507
0 1 0.0809491 0.00921457
0 1 0.0809519 0.0102821
0 1 0.0809555 0.011722
0 1 0.0809596 0.0133882
0 1 0.0809466 0.00936811
0 1 0.0809496 0.0108689
0 1 0.0809526 0.0124466
0 1 0.0809561 0.0142592
0 1 0.0809479 0.00958252
0 1 0.0809481 0.00894115
0 1 0.0809477 0.00919305
0 1 0.0809487 0.0093516
0 1 0.0809517 0.0102847
0 1 0.0809554 0.0117027
0 1 0.0809597 0.0133689
0 1 0.0809502 0.0107339
0 1 0.0809534 0.012316
0 1 0.080957 0.0141485
0 1 0.0809508 0.0106399
0 1 0.0809516 0.0103845
0 1 0.0809512 0.0104675
0 1 0.0809551 0.0117185
0 1 0.0809596 0.0134028
0 1 0.0809541 0.0121858
0 1 0.0809579 0.0139972
0 1 0.0809546 0.0120188
0 1 0.080955 0.011881
0 1 0.0809593 0.0134894
0 1 0.0809585 0.0138182
0 1 0.080959 0.0136339
VECTORS fa_u float
0.00602958 0.00249752 -0
0.00565202 0.00326318 -0
0.00630398 0.00168913 -0
0.00647049 0.00085184 -0
1e-08 0 0
0.00517774 0.00397301 -0
0.00461486 0.00461486 -0
1e-08 0 0
1e-08 0 0
0.00397301 0.00517774 -0
0.00326318 0.00565201 -0
0.00652632 -1.77335e-08 -0
0.00647047 -0.000851875 0
1e-08 0 0
1e-08 0 0
1e-08 0 0
1e-08 0 0
1e-08 0 0
1e-08 0 0
1e-08 0 0
1e-08 0 0
0.00249752 0.00602957 -0
0.00168913 0.00630398 -0
1e-08 0 0
1e-08 0 0
1e-08 0 0
0.0063039 -0.00168914 0
1e-08 0 0
0.00602945 -0.0024975 0
1e-08 0 0
1e-08 0 0
1e-08 0 0
0.000851845 0.00647052 -0
1e-08 0 0
1e-08 0 0
1e-08 0 0
1e-08 0 0
1e-08 0 0
1e-08 0 0
1e-08 0 0
1e-08 0 0
1e-08 0 0
1e-08 0 0
-1.76952e-08 0.0065263 -0
1e-08 0 0
1e-08 0 0
1e-08 0 0
0.00565187 -0.00326312 0
1e-08 0 0
0.00517759 -0.00397292 0
1e-08 0 0
1e-08 0 0
1e-08 0 0
1e-08 0 0
1e-08 0 0
1e-08 0 0
1e-08 0 0
1e-08 0 0
1e-08 0 0
1e-08 0 0
1e-08 0 0
1e-08 0 0
1e-08 0 0
-0.000851866 0.00647044 0
1e-08 0 0
1e-08 0 0
1e-08 0 0
1e-08 0 0
1e-08 0 0
0.00461473 -0.00461473 0
1e-08 0 0
0.00397291 -0.00517759 0
1e-08 0 0
1e-08 0 0
1e-08 0 0
1e-08 0 0
1e-08 0 0
1e-08 0 0
1e-08 0 0
1e-08 0 0
1e-08 0 0
1e-08 0 0
1e-08 0 0
1e-08 0 0
1e-08 0 0
-0.00168913 0.00630387 0
1e-08 0 0
1e-08 0 0
1e-08 0 0
1e-08 0 0
1e-08 0 0
1e-08 0 0
0.00326312 -0.00565187 0
1e-08 0 0
1e-08 0 0
1e-08 0 0
1e-08 0 0
1e-08 0 0
0.00249749 -0.00602945 0
1e-08 0 0
1e-08 0 0
1e-08 0 0
1e-08 0 0
1e-08 0 0
1e-08 0 0
1e-08 0 0
1e-08 0 0
1e-08 0 0
1e-08 0 0
-0.00249749 0.00602945 0
1e-08 0 0
1e-08 0 0
1e-08 0 0
1e-08 0 0
1e-08 0 0
1e-08 0 0
1e-08 0 0
1e-08 0 0
1e-08 0 0
1e-08 0 0
1e-08 0 0
1e-08 0 0
1e-08 0 0
1e-08 0 0
0.00168913 -0.00630387 0
1e-08 0 0
1e-08 0 0
1e-08 0 0
1e-08 0 0
1e-08 0 0
1e-08 0 0
1e-08 0 0
1e-08 0 0
1e-08 0 0
-0.00326312 0.00565187 0
1e-08 0 0
1e-08 0 0
1e-08 0 0
1e-08 0 0
1e-08 0 0
1e-08 0 0
1e-08 0 0
1e-08 0 0
1e-08 0 0
1e-08 0 0
1e-08 0 0
1e-08 0 0
1e-08 0 0
1e-08 0 0
1e-08 0 0
0.000851866 -0.00647044 0
1e-08 0 0
1e-08 0 0
1e-08 0 0
1e-08 0 0
1e-08 0 0
1e-08 0 0
1e-08 0 0
1e-08 0 0
1e-08 0 0
1e-08 0 0
-0.00397291 0.0051776 0
1e-08 0 0
1e-08 0 0
1e-08 0 0
1e-08 0 0
1e-08 0 0
1e-08 0 0
1e-08 0 0
1e-08 0 0
1e-08 0 0
1e-08 0 0
1e-08 0 0
1e-08 0 0
1.7737e-08 -0.0065263 0
1e-08 0 0
1e-08 0 0
1e-08 0 0
1e-08 0 0
1e-08 0 0
1e-08 0 0
1e-08 0 0
1e-08 0 0
1e-08 0 0
1e-08 0 0
1e-08 0 0
1e-08 0 0
-0.00461473 0.00461473 0
1e-08 0 0
1e-08 0 0
1e-08 0 0
1e-08 0 0
1e-08 0 0
1e-08 0 0
1e-08 0 0
1e-08 0 0
1e-08 0 0
1e-08 0 0
1e-08 0 0
1e-08 0 0
1e-08 0 0
-0.000851845 -0.00647052 0
1e-08 0 0
1e-08 0 0
1e-08 0 0
1e-08 0 0
1e-08 0 0
1e-08 0 0
1e-08 0 0
1e-08 0 0
-0.00517759 0.00397292 0
1e-08 0 0
1e-08 0 0
1e-08 0 0
1e-08 0 0
1e-08 0 0
1e-08 0 0
1e-08 0 0
1e-08 0 0
1e-08 0 0
1e-08 0 0
1e-08 0 0
-0.00168913 -0.00630398 0
1e-08 0 0
1e-08 0 0
1e-08 0 0
1e-08 0 0
1e-08 0 0
1e-08 0 0
1e-08 0 0
-0.00565187 0.00326312 0
1e-08 0 0
1e-08 0 0
1e-08 0 0
1e-08 0 0
1e-08 0 0
1e-08 0 0
1e-08 0 0
1e-08 0 0
1e-08 0 0
1e-08 0 0
1e-08 0 0
-0.00249752 -0.00602957 0
1e-08 0 0
1e-08 0 0
1e-08 0 0
1e-08 0 0
1e-08 0 0
-0.00602945 0.0024975 0
1e-08 0 0
1e-08 0 0
1e-08 0 0
1e-08 0 0
1e-08 0 0
1e-08 0 0
1e-08 0 0
1e-08 0 0
-0.00326318 -0.00565201 0
1e-08 0 0
1e-08 0 0
1e-08 0 0
1e-08 0 0
-0.0063039 0.00168914 0
1e-08 0 0
1e-08 0 0
1e-08 0 0
1e-08 0 0
1e-08 0 0
1e-08 0 0
-0.00397301 -0.00517773 0
1e-08 0 0
1e-08 0 0
1e-08 0 0
-0.00647047 0.000851875 0
1e-08 0 0
1e-08 0 0
1e-08 0 0
1e-08 0 0
1e-08 0 0
1e-08 0 0
-0.00461486 -0.00461486 0
1e-08 0 0
1e-08 0 0
-0.00652631 1.78469e-08 0
1e-08 0 0
1e-08 0 0
1e-08 0 0
1e-08 0 0
-0.00517774 -0.00397301 0
1e-08 0 0
-0.0064705 -0.00085184 0
1e-08 0 0
1e-08 0 0
-0.00565201 -0.00326318 0
-0.00630398 -0.00168913 0
-0.00602958 -0.00249752 0
