# vtk DataFile Version 2.0
CellBP Time: 0.16
ASCII
DATASET UNSTRUCTURED_GRID
POINTS 296 double
-9.18978 -3.77759 0
-8.61198 -4.9507 0
-9.6107 -2.53869 0
-9.86513 -1.25493 0
-8.35905 -2.81925 0
-7.8844 -6.03843 0
-7.02098 -7.02142 0
-7.91862 -3.87548 0
-7.34401 -4.86871 0
-6.03891 -7.88528 0
-4.95044 -8.61058 0
-9.95117 0.0500396 0
-9.86524 1.35505 0
-8.65917 -1.68438 0
-8.78785 -0.529787 0
-7.59117 -2.00463 0
-7.22717 -2.90711 0
-6.63895 -5.77981 0
-5.8234 -6.59816 0
-6.79163 -3.8897 0
-6.22186 -4.67682 0
-3.77696 -9.1894 0
-2.5384 -9.60984 0
-4.90758 -7.30998 0
-3.91372 -7.88766 0
-8.7943 0.643282 0
-9.60988 2.63856 0
-8.62481 1.77422 0
-9.18924 3.87679 0
-7.7458 -0.929298 0
-7.79605 0.0801538 0
-6.95399 -1.31628 0
-1.25536 -9.86528 0
-6.44286 -2.15367 0
-6.32074 -3.05682 0
-5.53773 -5.47559 0
-4.79696 -6.11662 0
-5.6603 -3.7578 0
-5.27059 -4.56249 0
-2.86657 -8.36549 0
-1.77908 -8.64175 0
-3.92899 -6.72486 0
-3.05718 -7.15405 0
0.0498628 -9.95186 0
-7.70705 1.14366 0
-8.34003 2.91599 0
-7.55341 2.11232 0
-8.61098 5.0501 0
-7.88158 3.97876 0
-7.88437 6.13844 0
-6.78016 -0.397086 0
-6.95804 0.552536 0
-5.77276 -1.00373 0
-0.590981 -8.81135 0
0.565667 -8.77255 0
-5.30438 -2.48092 0
-4.49303 -5.09674 0
-3.90342 -5.77648 0
-4.44 -3.8056 0
-2.06204 -7.5634 0
-1.13504 -7.78733 0
-2.99524 -6.10335 0
-2.30883 -6.62119 0
1.35513 -9.86589 0
-6.69094 1.42227 0
-7.17369 3.11868 0
-6.66072 2.37346 0
-7.29605 4.9897 0
-6.71951 4.00385 0
-7.02229 7.12245 0
-6.57384 5.89521 0
-6.03784 7.98431 0
-4.45438 -1.18138 0
-5.816 0.513834 0
-4.65746 -0.0102635 0
0.00905903 -7.84963 0
1.73871 -8.64556 0
0.9496 -7.76497 0
-4.03962 -2.40708 0
-3.48673 -1.39114 0
-3.29534 -4.80642 0
-3.26674 -3.26873 0
-1.3782 -6.67686 0
-0.508258 -7.02639 0
-1.97609 -5.53826 0
2.63836 -9.60993 0
-5.5087 2.03738 0
-6.09613 3.07288 0
-6.10646 4.87065 0
-5.76307 3.99237 0
-5.76259 6.7184 0
-5.45341 5.62054 0
-4.95104 8.71174 0
-4.83953 7.40603 0
-3.50262 -0.42388 0
-4.45057 1.24948 0
-3.71259 0.59264 0
-4.06331 2.32052 0
-3.77729 9.28969 0
2.86299 -8.33469 0
0.420246 -6.79691 0
2.02283 -7.52743 0
1.30673 -6.9071 0
-2.44385 -0.874198 0
-2.83926 -2.13195 0
-2.29503 -4.0985 0
-2.32634 -2.97462 0
-0.442553 -5.86258 0
-1.22312 -4.50035 0
3.87711 -9.18939 0
-4.79102 3.39263 0
-5.08921 4.5952 0
-4.64834 6.28279 0
-4.54005 5.36092 0
-3.84466 7.99504 0
-3.82774 6.84721 0
-2.7841 8.42457 0
-1.64817 -0.138023 0
-1.44945 -0.891047 0
-2.48832 0.507551 0
-3.25443 1.44506 0
-3.23985 3.31753 0
-2.91136 2.37284 0
-1.35423 0.627256 0
-2.5387 9.71051 0
3.93362 -7.88876 0
2.96551 -7.15937 0
0.954257 -5.82353 0
2.07479 -6.41719 0
-1.68356 -1.99306 0
-1.43492 -3.27889 0
0.0901822 -4.74831 0
-0.566432 -3.69561 0
4.93322 -7.32058 0
5.05028 -8.61107 0
-3.77797 4.55267 0
-3.73582 5.75339 0
-2.88832 7.29156 0
-3.01063 6.35506 0
-1.66324 8.73553 0
-1.94022 7.62114 0
-2.33891 4.05276 0
-0.729994 -1.32787 0
-0.836005 -0.257855 0
-1.93555 1.68138 0
-2.12575 2.8769 0
-1.30654 3.54579 0
-0.868651 1.35124 0
-0.281442 0.456124 0
-0.53385 8.87368 0
-1.25541 9.9655 0
1.11303 -4.57594 0
3.91106 -6.7191 0
2.9886 -6.09646 0
2.11834 -5.42648 0
4.7856 -6.20709 0
-0.559174 -2.4779 0
0.495146 -3.46503 0
0.0542861 -1.61114 0
1.48226 -3.68337 0
5.86861 -6.61641 0
6.13839 -7.88408 0
-2.47643 5.34966 0
-2.13121 6.53586 0
-0.903972 7.80521 0
-1.27241 6.93373 0
0.0865379 7.88232 0
-1.14467 4.49593 0
0.151217 -0.617975 0
-0.796857 2.48928 0
-0.331387 3.60181 0
0.0639333 1.51319 0
0.742408 0.473515 0
0.64659 8.87641 0
0.0502937 10.0511 0
2.38161 -4.28656 0
3.86016 -5.64212 0
3.0022 -5.21431 0
5.57524 -5.49349 0
4.69226 -5.28468 0
0.629622 -2.29445 0
1.25648 -2.95234 0
0.758302 -1.39203 0
2.16494 -3.13694 0
2.99459 -3.47776 0
6.15687 -4.79333 0
6.65739 -5.77097 0
7.12184 -7.02214 0
-1.02007 5.82173 0
-0.372449 6.88537 0
1.12324 7.77161 0
0.558397 7.08168 0
-0.000141952 4.72634 0
0.607372 3.82898 0
1.3399 -0.642174 0
0.539665 2.65194 0
0.966964 1.57541 0
1.91126 0.213859 0
1.61577 1.06532 0
2.13025 7.58569 0
1.79938 8.71481 0
1.35564 9.96537 0
3.82387 -4.35301 0
5.11803 -4.45053 0
5.84745 -3.93652 0
3.78506 -3.20218 0
1.81306 -1.8834 0
3.02007 -2.57487 0
6.78541 -3.94924 0
7.38354 -4.89842 0
7.98502 -6.03827 0
0.483347 5.88315 0
1.42888 6.74386 0
2.37495 6.67118 0
1.21039 4.55757 0
1.4887 3.39879 0
2.43684 -0.692498 0
2.82923 0.142398 0
1.78966 2.16368 0
2.61304 1.15046 0
3.07285 7.17246 0
2.90494 8.37939 0
2.63856 9.70953 0
4.91274 -3.3291 0
6.12263 -3.10986 0
4.17416 -2.27615 0
3.24557 -1.50359 0
6.7336 -2.31393 0
7.23447 -3.04367 0
7.96732 -3.9138 0
8.71086 -4.95053 0
2.02418 5.60161 0
3.08748 6.15578 0
2.36458 4.12833 0
2.42078 3.06206 0
3.527 -0.461242 0
3.61711 0.613293 0
2.96272 2.2891 0
3.54688 1.5259 0
4.01365 5.90043 0
3.98592 6.79588 0
3.9747 7.94171 0
3.8774 9.28951 0
5.57074 -1.91696 0
4.51079 -1.13016 0
6.71655 -1.3367 0
7.59551 -2.0373 0
8.40042 -2.86235 0
9.28976 -3.77679 0
3.42034 4.87887 0
3.3401 3.38672 0
4.69302 0.13001 0
4.52085 1.31053 0
4.06674 2.44486 0
4.57255 5.15482 0
4.84584 6.19364 0
4.98228 7.38377 0
5.05035 8.71114 0
5.88587 -0.435091 0
7.01407 -0.488456 0
7.76305 -1.08582 0
8.68858 -1.74675 0
9.71003 -2.53802 0
4.55432 3.82929 0
5.82028 1.09915 0
5.37355 2.53616 0
5.38276 4.62302 0
5.61498 5.52639 0
5.89991 6.67521 0
6.138 7.98362 0
6.84956 0.463841 0
7.85733 -0.0256476 0
8.86465 -0.584484 0
9.96501 -1.25534 0
6.9642 1.35024 0
5.7241 3.78056 0
6.54495 2.19877 0
6.38368 3.08978 0
6.2959 4.68963 0
6.69673 5.84067 0
7.12155 7.12141 0
7.78861 0.968175 0
8.86398 0.572685 0
10.0513 0.0502188 0
7.62048 2.00548 0
6.83306 3.90657 0
7.27368 2.94857 0
7.38207 4.88866 0
7.98488 6.13875 0
8.72751 1.72805 0
9.96493 1.35543 0
8.42553 2.83911 0
7.98597 3.91827 0
8.71062 5.05 0
9.70993 2.63871 0
9.28974 3.87707 0
CELLS 542 2168
3 2 0 4
3 0 1 7
3 4 0 7
3 1 5 8
3 7 1 8
3 3 2 13
3 13 2 4
3 11 3 14
3 14 3 13
3 13 4 15
3 4 7 16
3 15 4 16
3 5 6 17
3 8 5 17
3 6 9 18
3 17 6 18
3 7 8 19
3 16 7 19
3 8 17 20
3 19 8 20
3 9 10 23
3 18 9 23
3 10 21 24
3 23 10 24
3 12 11 25
3 25 11 14
3 26 12 27
3 27 12 25
3 14 13 29
3 29 13 15
3 25 14 30
3 30 14 29
3 29 15 31
3 15 16 33
3 31 15 33
3 16 19 34
3 33 16 34
3 17 18 35
3 20 17 35
3 18 23 36
3 35 18 36
3 19 20 37
3 34 19 37
3 20 35 38
3 37 20 38
3 21 22 39
3 24 21 39
3 22 32 40
3 39 22 40
3 23 24 41
3 36 23 41
3 24 39 42
3 41 24 42
3 27 25 44
3 44 25 30
3 28 26 45
3 45 26 27
3 45 27 46
3 46 27 44
3 47 28 48
3 48 28 45
3 30 29 50
3 50 29 31
3 44 30 51
3 51 30 50
3 50 31 52
3 31 33 52
3 32 43 53
3 40 32 53
3 53 43 54
3 33 34 55
3 34 37 55
3 33 55 52
3 35 36 56
3 38 35 56
3 36 41 57
3 56 36 57
3 37 38 58
3 38 56 58
3 37 58 55
3 39 40 59
3 42 39 59
3 40 53 60
3 59 40 60
3 41 42 61
3 57 41 61
3 42 59 62
3 61 42 62
3 43 63 54
3 46 44 64
3 64 44 51
3 48 45 65
3 65 45 46
3 65 46 66
3 66 46 64
3 49 47 67
3 67 47 48
3 67 48 68
3 68 48 65
3 69 49 70
3 70 49 67
3 52 55 72
3 64 51 73
3 51 50 73
3 50 52 73
3 73 52 74
3 74 52 72
3 53 54 75
3 60 53 75
3 54 63 76
3 54 76 77
3 75 54 77
3 55 58 78
3 72 55 78
3 72 78 79
3 56 57 80
3 57 61 80
3 56 80 58
3 58 80 81
3 78 58 81
3 59 60 82
3 62 59 82
3 60 75 83
3 82 60 83
3 61 62 84
3 62 82 84
3 61 84 80
3 63 85 76
3 66 64 86
3 64 73 86
3 68 65 87
3 87 65 66
3 87 66 86
3 70 67 88
3 88 67 68
3 88 68 89
3 89 68 87
3 71 69 90
3 90 69 70
3 90 70 91
3 91 70 88
3 92 71 93
3 93 71 90
3 74 72 94
3 94 72 79
3 86 73 95
3 95 73 74
3 95 74 96
3 96 74 94
3 97 86 95
3 76 85 99
3 75 77 100
3 83 75 100
3 76 99 101
3 77 76 101
3 77 101 102
3 100 77 102
3 94 79 103
3 78 81 104
3 79 78 104
3 79 104 103
3 80 84 105
3 81 80 105
3 81 105 106
3 104 81 106
3 82 83 107
3 83 100 107
3 82 107 84
3 84 107 108
3 105 84 108
3 85 109 99
3 89 87 110
3 87 86 110
3 110 86 97
3 91 88 111
3 111 88 89
3 111 89 110
3 93 90 112
3 112 90 91
3 112 91 113
3 113 91 111
3 98 92 114
3 114 92 93
3 114 93 115
3 115 93 112
3 116 98 114
3 117 103 118
3 96 94 119
3 94 103 119
3 119 103 117
3 97 95 120
3 120 95 96
3 120 96 119
3 121 110 97
3 121 97 122
3 122 97 120
3 123 119 117
3 124 98 116
3 99 109 125
3 99 125 126
3 101 99 126
3 100 102 127
3 100 127 107
3 101 126 128
3 102 101 128
3 102 128 127
3 104 106 129
3 104 129 103
3 103 129 118
3 105 108 130
3 106 105 130
3 106 130 129
3 107 127 131
3 108 107 131
3 108 131 132
3 108 132 130
3 109 134 125
3 125 134 133
3 113 111 135
3 111 110 135
3 135 110 121
3 115 112 136
3 136 112 113
3 136 113 135
3 116 114 137
3 137 114 115
3 137 115 138
3 138 115 136
3 139 124 116
3 139 116 140
3 140 116 137
3 141 135 121
3 118 129 142
3 118 142 143
3 117 118 143
3 123 117 143
3 122 120 144
3 120 119 144
3 144 119 123
3 141 121 145
3 145 121 122
3 145 122 144
3 146 141 145
3 147 144 123
3 147 123 148
3 143 148 123
3 150 124 139
3 149 150 139
3 131 127 151
3 125 133 152
3 126 125 152
3 126 152 153
3 128 126 153
3 128 153 154
3 128 154 127
3 127 154 151
3 152 133 155
3 130 132 156
3 130 156 129
3 129 156 142
3 131 151 157
3 132 131 157
3 132 157 156
3 156 158 142
3 157 151 159
3 133 160 155
3 134 161 133
3 133 161 160
3 138 136 162
3 136 135 162
3 162 135 141
3 140 137 163
3 163 137 138
3 163 138 162
3 149 139 164
3 164 139 140
3 164 140 165
3 165 140 163
3 166 149 164
3 167 162 141
3 167 141 146
3 142 158 168
3 143 142 168
3 143 168 148
3 146 145 169
3 145 144 169
3 169 144 147
3 170 167 146
3 170 146 169
3 171 169 147
3 171 147 148
3 171 148 172
3 168 172 148
3 173 149 166
3 174 150 149
3 173 174 149
3 154 175 151
3 151 175 159
3 152 155 176
3 153 152 176
3 153 176 177
3 153 177 154
3 154 177 175
3 155 160 178
3 155 178 179
3 176 155 179
3 156 157 180
3 156 180 158
3 157 159 181
3 157 181 180
3 158 180 182
3 158 182 168
3 159 175 183
3 159 183 181
3 175 184 183
3 160 186 178
3 178 186 185
3 161 187 160
3 160 187 186
3 165 163 188
3 163 162 188
3 188 162 167
3 166 164 189
3 189 164 165
3 189 165 188
3 190 173 166
3 190 166 191
3 191 166 189
3 192 188 167
3 192 167 170
3 193 192 170
3 182 194 168
3 194 172 168
3 193 170 195
3 170 169 195
3 195 169 171
3 196 195 171
3 196 171 172
3 194 197 172
3 197 198 172
3 198 196 172
3 200 173 190
3 199 200 190
3 201 174 173
3 200 201 173
3 176 179 202
3 177 176 202
3 177 202 175
3 175 202 184
3 178 185 203
3 178 203 179
3 179 203 202
3 203 185 204
3 202 205 184
3 183 206 181
3 180 181 206
3 180 206 182
3 182 206 194
3 183 184 207
3 205 207 184
3 183 207 206
3 185 208 204
3 186 209 185
3 185 209 208
3 187 210 186
3 186 210 209
3 191 189 211
3 189 188 211
3 211 188 192
3 199 190 212
3 212 190 191
3 212 191 211
3 213 199 212
3 214 211 192
3 214 192 193
3 215 214 193
3 215 193 195
3 206 216 194
3 216 197 194
3 216 217 197
3 215 195 218
3 218 195 196
3 198 218 196
3 217 219 197
3 219 218 198
3 197 219 198
3 220 199 213
3 221 200 199
3 220 221 199
3 222 201 200
3 221 222 200
3 203 204 223
3 203 223 202
3 202 223 205
3 204 208 224
3 204 224 223
3 205 223 225
3 205 225 207
3 207 225 226
3 207 226 206
3 226 216 206
3 208 228 224
3 224 228 227
3 209 229 208
3 229 228 208
3 210 230 209
3 209 230 229
3 213 212 231
3 212 211 231
3 231 211 214
3 232 220 213
3 232 213 231
3 233 231 214
3 233 214 215
3 234 233 215
3 234 215 218
3 226 235 216
3 235 217 216
3 235 236 217
3 217 236 219
3 237 234 218
3 237 218 219
3 236 238 219
3 238 237 219
3 240 220 232
3 239 240 232
3 241 221 220
3 240 241 220
3 242 222 221
3 241 242 221
3 224 227 243
3 224 243 223
3 223 243 225
3 225 243 244
3 225 244 226
3 226 244 235
3 227 245 243
3 228 246 227
3 227 246 245
3 229 247 228
3 228 247 246
3 230 248 229
3 229 248 247
3 239 232 249
3 232 231 249
3 249 231 233
3 250 249 233
3 250 233 234
3 237 250 234
3 244 251 235
3 235 251 236
3 251 252 236
3 236 252 238
3 252 253 238
3 253 250 237
3 253 237 238
3 254 239 249
3 255 240 239
3 254 255 239
3 256 241 240
3 255 256 240
3 257 242 241
3 256 257 241
3 245 258 243
3 243 258 244
3 244 258 251
3 245 259 258
3 246 260 245
3 245 260 259
3 247 261 246
3 246 261 260
3 248 262 247
3 247 262 261
3 254 249 263
3 263 249 250
3 253 263 250
3 258 264 251
3 251 264 252
3 264 265 252
3 265 263 253
3 252 265 253
3 266 254 263
3 267 255 254
3 266 267 254
3 268 256 255
3 267 268 255
3 269 257 256
3 268 269 256
3 259 270 258
3 270 264 258
3 260 271 259
3 259 271 270
3 261 272 260
3 260 272 271
3 262 273 261
3 273 272 261
3 270 274 264
3 275 266 263
3 275 263 265
3 274 276 264
3 276 265 264
3 276 277 265
3 277 275 265
3 278 267 266
3 275 278 266
3 279 268 267
3 278 279 267
3 280 269 268
3 279 280 268
3 271 281 270
3 270 281 274
3 272 282 271
3 271 282 281
3 273 283 272
3 272 283 282
3 281 284 274
3 274 284 276
3 285 278 275
3 277 285 275
3 284 286 276
3 286 285 277
3 276 286 277
3 287 279 278
3 285 287 278
3 288 280 279
3 287 288 279
3 282 289 281
3 281 289 284
3 283 290 282
3 282 290 289
3 289 291 284
3 284 291 286
3 291 292 286
3 292 287 285
3 286 292 285
3 293 288 287
3 292 293 287
3 290 294 289
3 289 294 291
3 294 295 291
3 295 293 292
3 291 295 292
CELL_TYPES 542
5
5
5
5
5
5
5
5
5
5
5
5
5
5
5
5
5
5
5
5
5
5
5
5
5
5
5
5
5
5
5
5
5
5
5
5
5
5
5
5
5
5
5
5
5
5
5
5
5
5
5
5
5
5
5
5
5
5
5
5
5
5
5
5
5
5
5
5
5
5
5
5
5
5
5
5
5
5
5
5
5
5
5
5
5
5
5
5
5
5
5
5
5
5
5
5
5
5
5
5
5
5
5
5
5
5
5
5
5
5
5
5
5
5
5
5
5
5
5
5
5
5
5
5
5
5
5
5
5
5
5
5
5
5
5
5
5
5
5
5
5
5
5
5
5
5
5
5
5
5
5
5
5
5
5
5
5
5
5
5
5
5
5
5
5
5
5
5
5
5
5
5
5
5
5
5
5
5
5
5
5
5
5
5
5
5
5
5
5
5
5
5
5
5
5
5
5
5
5
5
5
5
5
5
5
5
5
5
5
5
5
5
5
5
5
5
5
5
5
5
5
5
5
5
5
5
5
5
5
5
5
5
5
5
5
5
5
5
5
5
5
5
5
5
5
5
5
5
5
5
5
5
5
5
5
5
5
5
5
5
5
5
5
5
5
5
5
5
5
5
5
5
5
5
5
5
5
5
5
5
5
5
5
5
5
5
5
5
5
5
5
5
5
5
5
5
5
5
5
5
5
5
5
5
5
5
5
5
5
5
5
5
5
5
5
5
5
5
5
5
5
5
5
5
5
5
5
5
5
5
5
5
5
5
5
5
5
5
5
5
5
5
5
5
5
5
5
5
5
5
5
5
5
5
5
5
5
5
5
5
5
5
5
5
5
5
5
5
5
5
5
5
5
5
5
5
5
5
5
5
5
5
5
5
5
5
5
5
5
5
5
5
5
5
5
5
5
5
5
5
5
5
5
5
5
5
5
5
5
5
5
5
5
5
5
5
5
5
5
5
5
5
5
5
5
5
5
5
5
5
5
5
5
5
5
5
5
5
5
5
5
5
5
5
5
5
5
5
5
5
5
5
5
5
5
5
5
5
5
5
5
5
5
5
5
5
5
5
5
5
5
5
5
5
5
5
5
5
5
5
5
5
5
5
5
5
5
5
5
5
5
5
5
5
5
5
5
5
5
5
5
5
5
5
5
5
5
5
5
5
5
5
5
5
5
5
5
5
5
5
5
5
5
5
5
5
5
5
5
5
5
5
5
5
5
5
5
5
5
5
5
5
POINT_DATA 296
SCALARS concentrations float 4
LOOKUP_TABLE default
0 1.00029 0.0868229 11.271
0 1.00023 0.0880078 7.97442
0 1.00025 0.08368 6.44965
0 1.00023 0.0844873 11.3904
0 1.00024 0.0763869 6.82339
0 1.00008 0.0890406 5.05474
0 1.00013 0.0897042 20.3984
0 1.00025 0.07648 6.77377
0 1.00016 0.076482 6.74854
0 1.00022 0.0861178 11.9892
0 1.0002 0.089717 9.70731
0 1.00017 0.0845617 5.91534
0 1.00014 0.0889461 8.70215
0 1.00022 0.0762884 6.82936
0 1.0002 0.0760328 6.84372
0 1.0002 0.0763794 6.65184
0 1.00021 0.0765225 6.61817
0 1.00012 0.0763555 6.82821
0 1.00018 0.0763764 7.05167
0 1.0002 0.0765429 6.60316
0 1.00018 0.0763984 6.65312
0 1.00016 0.0852545 7.3392
0 1.00017 0.0838391 9.74356
0 1.0002 0.0763991 7.12128
0 1.00017 0.0760757 6.90086
0 1.00016 0.0759972 6.95202
0 1.00016 0.0831014 9.31244
0 1.00016 0.0759393 6.84944
0 1.0002 0.0891613 14.0736
0 1.00019 0.0762221 6.68651
0 1.00018 0.0760947 6.72268
0 1.00019 0.0763804 6.59873
0 1.00014 0.0861837 9.90789
0 1.0002 0.076516 6.60127
0 1.0002 0.0766465 6.58325
0 1.00018 0.0762661 6.7387
0 1.00019 0.0761706 6.78694
0 1.0002 0.0765225 6.61852
0 1.0002 0.0763945 6.63747
0 1.00017 0.0759342 6.75088
0 1.00016 0.0759295 6.61977
0 1.00019 0.0760971 6.76955
0 1.00018 0.0760437 6.65316
0 1.00018 0.086732 8.53578
0 1.00017 0.0760302 6.72996
0 1.00017 0.0760821 6.75399
0 1.00016 0.0760567 6.68345
0 1.0002 0.0862322 9.47451
0 1.00019 0.0758883 6.8755
0 1.00022 0.0865268 13.988
0 1.00019 0.076282 6.61461
0 1.00018 0.0761721 6.6333
0 1.0002 0.076471 6.64135
0 1.00016 0.0760398 6.72235
0 1.00018 0.0758995 7.13808
0 1.0002 0.0767004 6.61032
0 1.0002 0.0762969 6.63576
0 1.0002 0.0761865 6.64672
0 1.00021 0.076467 6.64848
0 1.00018 0.075966 6.83207
0 1.00017 0.0759507 6.91006
0 1.00019 0.0761596 6.55059
0 1.00019 0.0760307 6.66715
0 1.00014 0.0871196 10.4254
0 1.00017 0.0761496 6.64142
0 1.00016 0.0760538 6.70467
0 1.00017 0.0760952 6.71728
0 1.0002 0.0759136 7.02513
0 1.00018 0.0759478 6.83889
0 1.00024 0.0860563 13.0991
0 1.00022 0.0758074 7.11091
0 1.00026 0.0824068 9.77211
0 1.00021 0.0767476 6.69827
0 1.00019 0.0763176 6.68016
0 1.0002 0.0765768 6.83236
0 1.00018 0.0758373 7.15616
0 1.00013 0.0758071 7.30959
0 1.00017 0.0758267 7.3105
0 1.00021 0.0767378 6.65771
0 1.00022 0.0768302 7.03019
0 1.00021 0.0762878 6.60745
0 1.00021 0.076539 6.6752
0 1.00019 0.075928 6.84164
0 1.00019 0.0758278 7.03516
0 1.0002 0.0761651 6.59172
0 1.00012 0.0910114 14.1639
0 1.00018 0.076165 6.9865
0 1.00018 0.0760353 6.82303
0 1.00019 0.0758909 6.9473
0 1.00018 0.076044 6.86184
0 1.00023 0.0757941 7.16317
0 1.00021 0.0759379 7.03445
0 1.00027 0.0849122 8.8389
0 1.00025 0.0759252 7.14825
0 1.00022 0.0768102 7.34758
0 1.0002 0.0765135 7.18791
0 1.00022 0.0766687 7.37701
0 1.0002 0.0763971 7.39099
0 1.0002 0.0860429 8.34174
0 1.00016 0.0760621 7.51814
0 1.00019 0.075789 7.19039
0 1.00017 0.0759744 7.46728
0 1.00019 0.0758804 7.33361
0 1.00023 0.0770073 7.56888
0 1.00022 0.0767802 6.79944
0 1.00021 0.0762809 6.72015
0 1.00022 0.076489 6.85046
0 1.0002 0.075963 6.83624
0 1.00021 0.07606 6.85195
0 1.00016 0.0831301 5.70152
0 1.00019 0.0759883 7.11092
0 1.00019 0.0760522 6.96159
0 1.00022 0.0760724 7.07105
0 1.0002 0.0761316 7.02927
0 1.00023 0.0760792 7.05569
0 1.00023 0.076269 7.03737
0 1.0002 0.0760443 7.22708
0 1.00023 0.0767129 7.26657
0 1.00023 0.0766262 7.29748
0 1.00023 0.0768484 7.55372
0 1.00022 0.0764652 7.51966
0 1.0002 0.0760875 7.35302
0 1.00021 0.0759699 7.45822
0 1.00024 0.0766087 7.08025
0 1.00021 0.0886262 7.28176
0 1.00017 0.0761395 7.72627
0 1.00018 0.0761253 7.62176
0 1.0002 0.0758612 7.13583
0 1.00019 0.0760352 7.37111
0 1.00022 0.0766293 7.12795
0 1.00021 0.0762607 6.99108
0 1.00021 0.07584 7.02113
0 1.00021 0.0759828 7.04452
0 1.00015 0.0761634 7.68519
0 1.00014 0.0852759 11.111
0 1.0002 0.0760329 7.1655
0 1.00021 0.0761854 7.10716
0 1.00022 0.0762368 7.34267
0 1.00021 0.0762445 7.14031
0 1.0002 0.0759282 7.58428
0 1.0002 0.0762468 7.48196
0 1.0002 0.0760415 7.34829
0 1.00022 0.0762995 7.18415
0 1.00023 0.0765359 7.03198
0 1.00023 0.0764231 7.21412
0 1.00021 0.0758784 7.35174
0 1.00021 0.0759647 7.37001
0 1.00023 0.07651 6.89797
0 1.00024 0.0765596 6.78561
0 1.00014 0.0760734 7.6141
0 1.00016 0.0869766 3.11036
0 1.00021 0.0757999 7.20601
0 1.00018 0.0762476 7.70907
0 1.00019 0.0761484 7.55575
0 1.0002 0.0760118 7.37213
0 1.00017 0.0760102 7.59944
0 1.00022 0.0762636 7.23299
0 1.00021 0.0758033 7.17413
0 1.00022 0.0761261 7.08263
0 1.00021 0.0758062 7.27362
0 1.00011 0.0760405 7.36425
0 1.0001 0.0861929 10.9694
0 1.0002 0.0761133 7.24071
0 1.00021 0.0761487 7.17653
0 1.00017 0.0761464 7.56515
0 1.00019 0.0761722 7.50179
0 1.00016 0.0760595 7.6136
0 1.00021 0.0759981 7.40581
0 1.00023 0.0764266 6.81635
0 1.00022 0.0763659 7.11396
0 1.00021 0.0761045 7.39272
0 1.00023 0.0765892 6.90708
0 1.00023 0.0766676 6.72286
0 1.00018 0.0760641 7.73545
0 1.00016 0.0843435 15.6478
0 1.00021 0.0759692 7.38896
0 1.00019 0.0760665 7.57578
0 1.0002 0.0760945 7.51081
0 1.00017 0.0758706 7.46089
0 1.00019 0.0759204 7.53212
0 1.00022 0.0760009 7.33518
0 1.00022 0.0757871 7.26339
0 1.00023 0.0761901 6.90379
0 1.00022 0.0758205 7.25118
0 1.00022 0.0758643 7.26965
0 1.00018 0.0758965 7.34538
0 1.00012 0.0759921 7.30532
0 1.00008 0.086626 10.1223
0 1.0002 0.0760385 7.31189
0 1.00018 0.0761208 7.57924
0 1.00016 0.0759906 7.68768
0 1.00017 0.0760364 7.6358
0 1.0002 0.0760023 7.41509
0 1.00021 0.0760519 7.46672
0 1.00023 0.0765416 6.69746
0 1.00022 0.0762581 7.27519
0 1.00023 0.0767118 6.88894
0 1.00023 0.0767705 6.6156
0 1.00023 0.0768201 6.72858
0 1.00015 0.0759523 7.66112
0 1.00019 0.0759444 7.71057
0 1.00022 0.0908631 6.19295
0 1.00021 0.075902 7.39116
0 1.0002 0.0759088 7.41148
0 1.00021 0.075994 7.26715
0 1.00022 0.0759684 7.1876
0 1.00022 0.0760578 6.96386
0 1.00022 0.0759908 7.09309
0 1.00021 0.0760512 7.12928
0 1.00016 0.0760455 7.18701
0 1.00011 0.0843687 10.0099
0 1.00019 0.0760513 7.45884
0 1.00017 0.0760214 7.68492
0 1.00016 0.0760781 7.59772
0 1.0002 0.0760553 7.55324
0 1.00021 0.0760945 7.48903
0 1.00022 0.0764337 6.68336
0 1.00023 0.0767005 6.52884
0 1.00023 0.0765208 7.22406
0 1.00023 0.0769837 6.64588
0 1.00015 0.0759683 7.54546
0 1.0002 0.0759325 7.6111
0 1.00023 0.0832755 10.8989
0 1.00021 0.0760797 7.17756
0 1.00021 0.0762354 7.03829
0 1.00022 0.0762911 6.93779
0 1.00022 0.0763503 6.80684
0 1.0002 0.0765678 6.70161
0 1.00021 0.0763514 6.86231
0 1.00024 0.0761642 7.05886
0 1.00019 0.0874449 8.4845
0 1.00019 0.0761124 7.64863
0 1.00017 0.076084 7.47276
0 1.00021 0.0761041 7.61317
0 1.00022 0.0762175 7.52277
0 1.00022 0.0766013 6.56728
0 1.00023 0.0768624 6.44041
0 1.00023 0.0764654 7.35764
0 1.00023 0.0768526 6.81446
0 1.00018 0.0760349 7.28281
0 1.00014 0.0758938 7.36974
0 1.00015 0.0758863 7.54469
0 1.00022 0.087637 8.61737
0 1.00021 0.0766294 6.68371
0 1.00022 0.0766093 6.6064
0 1.0002 0.0766762 6.544
0 1.00019 0.076444 6.72986
0 1.00021 0.0762857 6.85833
0 1.00026 0.0904398 12.4843
0 1.0002 0.0760725 7.33741
0 1.00022 0.0762235 7.31398
0 1.00022 0.076785 6.42359
0 1.00023 0.0767103 6.62884
0 1.00023 0.0765661 6.98032
0 1.0002 0.0761128 7.10314
0 1.00016 0.0758952 7.15145
0 1.00011 0.0758036 7.28775
0 1.00011 0.0838543 13.7632
0 1.00021 0.0767077 6.43805
0 1.0002 0.0765581 6.5397
0 1.00019 0.0764865 6.66907
0 1.00018 0.0762965 6.86587
0 1.00018 0.0872579 13.3303
0 1.00022 0.076214 6.99951
0 1.00022 0.076544 6.51958
0 1.00023 0.0765078 6.69254
0 1.00022 0.0761225 6.9238
0 1.0002 0.0759412 6.99562
0 1.00015 0.0758831 7.04157
0 1.0001 0.0836263 9.66188
0 1.00021 0.0764912 6.51316
0 1.0002 0.0764108 6.68325
0 1.00021 0.0764401 6.87138
0 1.0002 0.0834434 7.52486
0 1.00021 0.076403 6.53592
0 1.00023 0.0762796 6.76659
0 1.00022 0.0763937 6.53897
0 1.00022 0.0763815 6.60795
0 1.00022 0.0760941 6.81688
0 1.0002 0.0761686 7.01641
0 1.00017 0.0869943 8.64982
0 1.0002 0.0763447 6.65806
0 1.0002 0.0765852 7.02384
0 1.00021 0.0870046 9.27297
0 1.00019 0.076262 6.61138
0 1.00021 0.0762789 6.63371
0 1.00019 0.0762583 6.58738
0 1.00018 0.0760979 6.88538
0 1.00019 0.0865923 6.84819
0 1.00015 0.0761586 6.70397
0 1.00016 0.0826728 6.25123
0 1.00011 0.076161 6.79395
0 1.00013 0.0761703 6.70178
0 1.00012 0.0847109 13.7812
0 1.00008 0.0887097 16.7134
0 1.00006 0.0889681 6.00736
VECTORS fa_u float
0.00595994 0.00246779 -0
0.00573647 0.00331215 -0
0.00639516 0.00171207 -0
0.00636269 0.000836825 -0
1e-08 0 0
0.00519631 0.00399248 -0
0.00445723 0.00445396 -0
1e-08 0 0
1e-08 0 0
0.00414274 0.00539764 -0
0.00319274 0.00553767 -0
0.00659683 2.87247e-07 -0
0.00644356 -0.000849577 0
1e-08 0 0
1e-08 0 0
1e-08 0 0
1e-08 0 0
1e-08 0 0
1e-08 0 0
1e-08 0 0
1e-08 0 0
0.00250079 0.00603652 -0
0.00168506 0.00628667 -0
1e-08 0 0
1e-08 0 0
1e-08 0 0
0.00632149 -0.00169461 0
1e-08 0 0
0.00598659 -0.00247975 0
1e-08 0 0
1e-08 0 0
1e-08 0 0
0.00084699 0.00640952 -0
1e-08 0 0
1e-08 0 0
1e-08 0 0
1e-08 0 0
1e-08 0 0
1e-08 0 0
1e-08 0 0
1e-08 0 0
1e-08 0 0
1e-08 0 0
1.53292e-06 0.00663712 -0
1e-08 0 0
1e-08 0 0
1e-08 0 0
0.00563975 -0.00325386 0
1e-08 0 0
0.00516936 -0.00396291 0
1e-08 0 0
1e-08 0 0
1e-08 0 0
1e-08 0 0
1e-08 0 0
1e-08 0 0
1e-08 0 0
1e-08 0 0
1e-08 0 0
1e-08 0 0
1e-08 0 0
1e-08 0 0
1e-08 0 0
-0.000857159 0.00648889 0
1e-08 0 0
1e-08 0 0
1e-08 0 0
1e-08 0 0
1e-08 0 0
0.00470787 -0.00470959 0
1e-08 0 0
0.00387351 -0.00504814 0
1e-08 0 0
1e-08 0 0
1e-08 0 0
1e-08 0 0
1e-08 0 0
1e-08 0 0
1e-08 0 0
1e-08 0 0
1e-08 0 0
1e-08 0 0
1e-08 0 0
1e-08 0 0
1e-08 0 0
-0.00167771 0.00625452 0
1e-08 0 0
1e-08 0 0
1e-08 0 0
1e-08 0 0
1e-08 0 0
1e-08 0 0
0.00333407 -0.00577366 0
1e-08 0 0
1e-08 0 0
1e-08 0 0
1e-08 0 0
1e-08 0 0
0.00246283 -0.0059485 0
1e-08 0 0
1e-08 0 0
1e-08 0 0
1e-08 0 0
1e-08 0 0
1e-08 0 0
1e-08 0 0
1e-08 0 0
1e-08 0 0
1e-08 0 0
-0.00249023 0.00601305 0
1e-08 0 0
1e-08 0 0
1e-08 0 0
1e-08 0 0
1e-08 0 0
1e-08 0 0
1e-08 0 0
1e-08 0 0
1e-08 0 0
1e-08 0 0
1e-08 0 0
1e-08 0 0
1e-08 0 0
1e-08 0 0
0.00170149 -0.00634936 0
1e-08 0 0
1e-08 0 0
1e-08 0 0
1e-08 0 0
1e-08 0 0
1e-08 0 0
1e-08 0 0
1e-08 0 0
1e-08 0 0
-0.00326743 0.00566039 0
1e-08 0 0
1e-08 0 0
1e-08 0 0
1e-08 0 0
1e-08 0 0
1e-08 0 0
1e-08 0 0
1e-08 0 0
1e-08 0 0
1e-08 0 0
1e-08 0 0
1e-08 0 0
1e-08 0 0
1e-08 0 0
1e-08 0 0
0.00084794 -0.00644534 0
1e-08 0 0
1e-08 0 0
1e-08 0 0
1e-08 0 0
1e-08 0 0
1e-08 0 0
1e-08 0 0
1e-08 0 0
1e-08 0 0
1e-08 0 0
-0.00395612 0.00515779 0
1e-08 0 0
1e-08 0 0
1e-08 0 0
1e-08 0 0
1e-08 0 0
1e-08 0 0
1e-08 0 0
1e-08 0 0
1e-08 0 0
1e-08 0 0
1e-08 0 0
1e-08 0 0
-3.10156e-07 -0.00654196 0
1e-08 0 0
1e-08 0 0
1e-08 0 0
1e-08 0 0
1e-08 0 0
1e-08 0 0
1e-08 0 0
1e-08 0 0
1e-08 0 0
1e-08 0 0
1e-08 0 0
1e-08 0 0
-0.00462004 0.00462209 0
1e-08 0 0
1e-08 0 0
1e-08 0 0
1e-08 0 0
1e-08 0 0
1e-08 0 0
1e-08 0 0
1e-08 0 0
1e-08 0 0
1e-08 0 0
1e-08 0 0
1e-08 0 0
1e-08 0 0
-0.000858435 -0.00650444 0
1e-08 0 0
1e-08 0 0
1e-08 0 0
1e-08 0 0
1e-08 0 0
1e-08 0 0
1e-08 0 0
1e-08 0 0
-0.00524154 0.00402052 0
1e-08 0 0
1e-08 0 0
1e-08 0 0
1e-08 0 0
1e-08 0 0
1e-08 0 0
1e-08 0 0
1e-08 0 0
1e-08 0 0
1e-08 0 0
1e-08 0 0
-0.00166715 -0.00622042 0
1e-08 0 0
1e-08 0 0
1e-08 0 0
1e-08 0 0
1e-08 0 0
1e-08 0 0
1e-08 0 0
-0.00559582 0.00322846 0
1e-08 0 0
1e-08 0 0
1e-08 0 0
1e-08 0 0
1e-08 0 0
1e-08 0 0
1e-08 0 0
1e-08 0 0
1e-08 0 0
1e-08 0 0
1e-08 0 0
-0.00250912 -0.00606123 0
1e-08 0 0
1e-08 0 0
1e-08 0 0
1e-08 0 0
1e-08 0 0
-0.00604843 0.00250501 0
1e-08 0 0
1e-08 0 0
1e-08 0 0
1e-08 0 0
1e-08 0 0
1e-08 0 0
1e-08 0 0
1e-08 0 0
-0.00329064 -0.00569636 0
1e-08 0 0
1e-08 0 0
1e-08 0 0
1e-08 0 0
-0.006299 0.0016869 0
1e-08 0 0
1e-08 0 0
1e-08 0 0
1e-08 0 0
1e-08 0 0
1e-08 0 0
-0.00393195 -0.0051228 0
1e-08 0 0
1e-08 0 0
1e-08 0 0
-0.00640423 0.000844471 0
1e-08 0 0
1e-08 0 0
1e-08 0 0
1e-08 0 0
1e-08 0 0
1e-08 0 0
-0.00456319 -0.00456815 0
1e-08 0 0
1e-08 0 0
-0.00664474 -2.1744e-07 0
1e-08 0 0
1e-08 0 0
1e-08 0 0
1e-08 0 0
-0.00533624 -0.00409367 0
1e-08 0 0
-0.00638743 -0.000842406 0
1e-08 0 0
1e-08 0 0
-0.0055169 -0.00318294 0
-0.00631108 -0.00168984 0
-0.00608522 -0.00252189 0
