# vtk DataFile Version 2.0
CellBP Time: 8.84
ASCII
DATASET UNSTRUCTURED_GRID
POINTS 296 double
-8.93877 -3.6605 0
-8.38197 -4.81256 0
-9.32964 -2.43945 0
-9.60566 -1.21128 0
-8.09704 -2.70593 0
-7.66548 -5.87707 0
-6.81727 -6.84013 0
-7.6555 -3.73128 0
-7.09804 -4.7046 0
-5.89334 -7.70798 0
-4.86505 -8.43955 0
-9.71426 0.0382008 0
-9.65819 1.31357 0
-8.41585 -1.61598 0
-8.57145 -0.501045 0
-7.34083 -1.91339 0
-6.96825 -2.78129 0
-6.44146 -5.61821 0
-5.67174 -6.44731 0
-6.54419 -3.74058 0
-6.00901 -4.52665 0
-3.71585 -9.00295 0
-2.48804 -9.40272 0
-4.80068 -7.15367 0
-3.85132 -7.74404 0
-8.58688 0.631188 0
-9.43914 2.59078 0
-8.44124 1.72374 0
-9.02924 3.80645 0
-7.51785 -0.881734 0
-7.58193 0.089069 0
-6.7348 -1.25319 0
-1.21656 -9.64054 0
-6.23754 -2.06687 0
-6.10831 -2.94187 0
-5.36725 -5.32692 0
-4.66775 -5.97031 0
-5.47293 -3.63473 0
-5.09666 -4.42602 0
-2.8175 -8.20347 0
-1.74757 -8.45966 0
-3.84552 -6.58388 0
-3.01023 -7.02117 0
0.0552514 -9.70013 0
-7.51162 1.11659 0
-8.18586 2.86197 0
-7.3711 2.0494 0
-8.41609 4.92665 0
-7.70599 3.87696 0
-7.65925 5.96352 0
-6.58053 -0.368895 0
-6.76118 0.549347 0
-5.61644 -0.970349 0
-0.575102 -8.60926 0
0.547779 -8.54337 0
-5.15681 -2.40016 0
-4.34848 -4.96102 0
-3.79672 -5.64312 0
-4.31818 -3.70576 0
-2.02439 -7.41306 0
-1.11598 -7.62103 0
-2.92704 -5.97198 0
-2.27262 -6.49077 0
1.31047 -9.5821 0
-6.51713 1.38311 0
-6.98938 3.02958 0
-6.49228 2.30613 0
-7.11012 4.84688 0
-6.54687 3.88891 0
-6.81714 6.91017 0
-6.4017 5.72981 0
-5.87321 7.76637 0
-4.36827 -1.15941 0
-5.67937 0.494687 0
-4.57281 -0.0245509 0
-0.0102776 -7.64968 0
1.6765 -8.39256 0
0.901922 -7.54654 0
-3.96106 -2.35388 0
-3.45501 -1.37973 0
-3.22031 -4.69844 0
-3.21449 -3.20407 0
-1.36235 -6.52854 0
-0.521515 -6.85415 0
-1.94512 -5.43048 0
2.55939 -9.33472 0
-5.38069 1.99195 0
-5.94243 2.98386 0
-5.94813 4.72485 0
-5.61421 3.87108 0
-5.60295 6.52534 0
-5.30784 5.45178 0
-4.84439 8.51794 0
-4.70229 7.18621 0
-3.46178 -0.420803 0
-4.36128 1.2235 0
-3.65312 0.583648 0
-3.98039 2.29357 0
-3.70686 9.08634 0
2.75606 -8.05792 0
0.371267 -6.60555 0
1.93515 -7.28702 0
1.23019 -6.69354 0
-2.42627 -0.863117 0
-2.8134 -2.10592 0
-2.26148 -4.02328 0
-2.29842 -2.92485 0
-0.456197 -5.71958 0
-1.20194 -4.42536 0
3.77065 -8.94201 0
-4.67771 3.3089 0
-4.95608 4.45624 0
-4.51898 6.08701 0
-4.41652 5.19792 0
-3.75222 7.78991 0
-3.7133 6.62838 0
-2.71268 8.19396 0
-1.63434 -0.127826 0
-1.43638 -0.87876 0
-2.47094 0.517177 0
-3.20443 1.43613 0
-3.17502 3.25515 0
-2.86476 2.35905 0
-1.35048 0.638765 0
-2.48614 9.47179 0
3.79534 -7.62737 0
2.83293 -6.896 0
0.899223 -5.65565 0
1.97261 -6.20083 0
-1.66661 -1.97423 0
-1.41278 -3.2298 0
0.0786884 -4.6478 0
-0.550053 -3.64536 0
4.77285 -7.07492 0
4.91384 -8.38487 0
-3.68513 4.43668 0
-3.63423 5.58354 0
-2.79853 7.07183 0
-2.92832 6.17027 0
-1.62176 8.51028 0
-1.8802 7.41367 0
-2.29749 3.9758 0
-0.722642 -1.31669 0
-0.829922 -0.24506 0
-1.92973 1.68982 0
-2.10181 2.85391 0
-1.29838 3.50675 0
-0.872464 1.36369 0
-0.28375 0.467999 0
-0.521004 8.665 0
-1.22539 9.7078 0
1.07055 -4.45744 0
3.74969 -6.44683 0
2.86396 -5.87314 0
2.03329 -5.25149 0
4.62796 -5.97447 0
-0.547868 -2.45651 0
0.487916 -3.40786 0
0.0569562 -1.60336 0
1.43895 -3.59693 0
5.69329 -6.39795 0
5.97626 -7.67026 0
-2.41588 5.2161 0
-2.06361 6.35696 0
-0.87401 7.61522 0
-1.22439 6.75317 0
0.0934695 7.70615 0
-1.12545 4.41628 0
0.148991 -0.61022 0
-0.807262 2.49462 0
-0.346928 3.57367 0
0.0545991 1.52123 0
0.734161 0.477028 0
0.637198 8.69349 0
0.0421843 9.81797 0
2.30789 -4.15755 0
3.72683 -5.42768 0
2.89569 -5.03328 0
5.42207 -5.30684 0
4.546 -5.08348 0
0.632093 -2.28306 0
1.23783 -2.90214 0
0.755713 -1.385 0
2.11679 -3.06601 0
2.92525 -3.38101 0
6.01181 -4.65251 0
6.49029 -5.60812 0
6.93127 -6.8125 0
-0.985815 5.68932 0
-0.34664 6.71926 0
1.10227 7.61432 0
0.559106 6.9306 0
-0.00330476 4.65191 0
0.588451 3.78435 0
1.3294 -0.638109 0
0.520497 2.6381 0
0.948727 1.57692 0
1.89497 0.210576 0
1.59272 1.06346 0
2.09896 7.44645 0
1.77012 8.54336 0
1.32358 9.7466 0
3.71397 -4.20733 0
4.98298 -4.28626 0
5.71346 -3.81166 0
3.7011 -3.11066 0
1.7974 -1.87624 0
2.96384 -2.52634 0
6.64707 -3.846 0
7.22936 -4.77912 0
7.79612 -5.8806 0
0.485057 5.76365 0
1.41077 6.61436 0
2.33632 6.55358 0
1.18603 4.48787 0
1.46461 3.35633 0
2.40866 -0.687106 0
2.79631 0.141153 0
1.76707 2.14802 0
2.58381 1.14026 0
3.0264 7.04026 0
2.85822 8.22343 0
2.59129 9.50258 0
4.79937 -3.22404 0
5.99546 -3.0209 0
4.09963 -2.23073 0
3.19917 -1.48488 0
6.61379 -2.27165 0
7.10649 -2.98891 0
7.81747 -3.84468 0
8.53228 -4.85507 0
1.9949 5.50291 0
3.01308 6.03144 0
2.33499 4.06168 0
2.38938 3.01953 0
3.47674 -0.451554 0
3.57212 0.61607 0
2.92171 2.25929 0
3.48851 1.5062 0
3.90352 5.77704 0
3.89762 6.65778 0
3.91209 7.79415 0
3.81572 9.09772 0
5.47348 -1.8773 0
4.43875 -1.11042 0
6.58928 -1.30975 0
7.45576 -1.99391 0
8.24013 -2.81292 0
9.10082 -3.71119 0
3.32644 4.77451 0
3.26885 3.32454 0
4.61475 0.135123 0
4.4245 1.28198 0
3.96777 2.39029 0
4.42265 5.02596 0
4.71605 6.0497 0
4.872 7.22822 0
4.96 8.52936 0
5.76647 -0.433596 0
6.85664 -0.488485 0
7.6106 -1.06126 0
8.51752 -1.71466 0
9.50269 -2.48454 0
4.41547 3.73085 0
5.67003 1.05204 0
5.20753 2.45621 0
5.19453 4.48959 0
5.4413 5.37842 0
5.74352 6.5139 0
5.98645 7.79612 0
6.67365 0.428944 0
7.67415 -0.0295895 0
8.67908 -0.566435 0
9.74285 -1.21413 0
6.76693 1.28478 0
5.52527 3.65803 0
6.33916 2.10639 0
6.16381 2.9746 0
6.07678 4.54151 0
6.49352 5.67987 0
6.92436 6.93866 0
7.58501 0.931785 0
8.65089 0.559142 0
9.80769 0.0631496 0
7.39331 1.92737 0
6.57252 3.75679 0
7.02413 2.83519 0
7.14991 4.73691 0
7.78324 5.98609 0
8.48525 1.67933 0
9.68702 1.31787 0
8.15629 2.74363 0
7.74217 3.7952 0
8.49807 4.92528 0
9.44538 2.56945 0
9.05481 3.78135 0
CELLS 542 2168
3 2 0 4
3 0 1 7
3 4 0 7
3 1 5 8
3 7 1 8
3 3 2 13
3 13 2 4
3 11 3 14
3 14 3 13
3 13 4 15
3 4 7 16
3 15 4 16
3 5 6 17
3 8 5 17
3 6 9 18
3 17 6 18
3 7 8 19
3 16 7 19
3 8 17 20
3 19 8 20
3 9 10 23
3 18 9 23
3 10 21 24
3 23 10 24
3 12 11 25
3 25 11 14
3 26 12 27
3 27 12 25
3 14 13 29
3 29 13 15
3 25 14 30
3 30 14 29
3 29 15 31
3 15 16 33
3 31 15 33
3 16 19 34
3 33 16 34
3 17 18 35
3 20 17 35
3 18 23 36
3 35 18 36
3 19 20 37
3 34 19 37
3 20 35 38
3 37 20 38
3 21 22 39
3 24 21 39
3 22 32 40
3 39 22 40
3 23 24 41
3 36 23 41
3 24 39 42
3 41 24 42
3 27 25 44
3 44 25 30
3 28 26 45
3 45 26 27
3 45 27 46
3 46 27 44
3 47 28 48
3 48 28 45
3 30 29 50
3 50 29 31
3 44 30 51
3 51 30 50
3 50 31 52
3 31 33 52
3 32 43 53
3 40 32 53
3 53 43 54
3 33 34 55
3 34 37 55
3 33 55 52
3 35 36 56
3 38 35 56
3 36 41 57
3 56 36 57
3 37 38 58
3 38 56 58
3 37 58 55
3 39 40 59
3 42 39 59
3 40 53 60
3 59 40 60
3 41 42 61
3 57 41 61
3 42 59 62
3 61 42 62
3 43 63 54
3 46 44 64
3 64 44 51
3 48 45 65
3 65 45 46
3 65 46 66
3 66 46 64
3 49 47 67
3 67 47 48
3 67 48 68
3 68 48 65
3 69 49 70
3 70 49 67
3 52 55 72
3 64 51 73
3 51 50 73
3 50 52 73
3 73 52 74
3 74 52 72
3 53 54 75
3 60 53 75
3 54 63 76
3 54 76 77
3 75 54 77
3 55 58 78
3 72 55 78
3 72 78 79
3 56 57 80
3 57 61 80
3 56 80 58
3 58 80 81
3 78 58 81
3 59 60 82
3 62 59 82
3 60 75 83
3 82 60 83
3 61 62 84
3 62 82 84
3 61 84 80
3 63 85 76
3 66 64 86
3 64 73 86
3 68 65 87
3 87 65 66
3 87 66 86
3 70 67 88
3 88 67 68
3 88 68 89
3 89 68 87
3 71 69 90
3 90 69 70
3 90 70 91
3 91 70 88
3 92 71 93
3 93 71 90
3 74 72 94
3 94 72 79
3 86 73 95
3 95 73 74
3 95 74 96
3 96 74 94
3 97 86 95
3 76 85 99
3 75 77 100
3 83 75 100
3 76 99 101
3 77 76 101
3 77 101 102
3 100 77 102
3 94 79 103
3 78 81 104
3 79 78 104
3 79 104 103
3 80 84 105
3 81 80 105
3 81 105 106
3 104 81 106
3 82 83 107
3 83 100 107
3 82 107 84
3 84 107 108
3 105 84 108
3 85 109 99
3 89 87 110
3 87 86 110
3 110 86 97
3 91 88 111
3 111 88 89
3 111 89 110
3 93 90 112
3 112 90 91
3 112 91 113
3 113 91 111
3 98 92 114
3 114 92 93
3 114 93 115
3 115 93 112
3 116 98 114
3 117 103 118
3 96 94 119
3 94 103 119
3 119 103 117
3 97 95 120
3 120 95 96
3 120 96 119
3 121 110 97
3 121 97 122
3 122 97 120
3 123 119 117
3 124 98 116
3 99 109 125
3 99 125 126
3 101 99 126
3 100 102 127
3 100 127 107
3 101 126 128
3 102 101 128
3 102 128 127
3 104 106 129
3 104 129 103
3 103 129 118
3 105 108 130
3 106 105 130
3 106 130 129
3 107 127 131
3 108 107 131
3 108 131 132
3 108 132 130
3 109 134 125
3 125 134 133
3 113 111 135
3 111 110 135
3 135 110 121
3 115 112 136
3 136 112 113
3 136 113 135
3 116 114 137
3 137 114 115
3 137 115 138
3 138 115 136
3 139 124 116
3 139 116 140
3 140 116 137
3 141 135 121
3 118 129 142
3 118 142 143
3 117 118 143
3 123 117 143
3 122 120 144
3 120 119 144
3 144 119 123
3 141 121 145
3 145 121 122
3 145 122 144
3 146 141 145
3 147 144 123
3 147 123 148
3 143 148 123
3 150 124 139
3 149 150 139
3 131 127 151
3 125 133 152
3 126 125 152
3 126 152 153
3 128 126 153
3 128 153 154
3 128 154 127
3 127 154 151
3 152 133 155
3 130 132 156
3 130 156 129
3 129 156 142
3 131 151 157
3 132 131 157
3 132 157 156
3 156 158 142
3 157 151 159
3 133 160 155
3 134 161 133
3 133 161 160
3 138 136 162
3 136 135 162
3 162 135 141
3 140 137 163
3 163 137 138
3 163 138 162
3 149 139 164
3 164 139 140
3 164 140 165
3 165 140 163
3 166 149 164
3 167 162 141
3 167 141 146
3 142 158 168
3 143 142 168
3 143 168 148
3 146 145 169
3 145 144 169
3 169 144 147
3 170 167 146
3 170 146 169
3 171 169 147
3 171 147 148
3 171 148 172
3 168 172 148
3 173 149 166
3 174 150 149
3 173 174 149
3 154 175 151
3 151 175 159
3 152 155 176
3 153 152 176
3 153 176 177
3 153 177 154
3 154 177 175
3 155 160 178
3 155 178 179
3 176 155 179
3 156 157 180
3 156 180 158
3 157 159 181
3 157 181 180
3 158 180 182
3 158 182 168
3 159 175 183
3 159 183 181
3 175 184 183
3 160 186 178
3 178 186 185
3 161 187 160
3 160 187 186
3 165 163 188
3 163 162 188
3 188 162 167
3 166 164 189
3 189 164 165
3 189 165 188
3 190 173 166
3 190 166 191
3 191 166 189
3 192 188 167
3 192 167 170
3 193 192 170
3 182 194 168
3 194 172 168
3 193 170 195
3 170 169 195
3 195 169 171
3 196 195 171
3 196 171 172
3 194 197 172
3 197 198 172
3 198 196 172
3 200 173 190
3 199 200 190
3 201 174 173
3 200 201 173
3 176 179 202
3 177 176 202
3 177 202 175
3 175 202 184
3 178 185 203
3 178 203 179
3 179 203 202
3 203 185 204
3 202 205 184
3 183 206 181
3 180 181 206
3 180 206 182
3 182 206 194
3 183 184 207
3 205 207 184
3 183 207 206
3 185 208 204
3 186 209 185
3 185 209 208
3 187 210 186
3 186 210 209
3 191 189 211
3 189 188 211
3 211 188 192
3 199 190 212
3 212 190 191
3 212 191 211
3 213 199 212
3 214 211 192
3 214 192 193
3 215 214 193
3 215 193 195
3 206 216 194
3 216 197 194
3 216 217 197
3 215 195 218
3 218 195 196
3 198 218 196
3 217 219 197
3 219 218 198
3 197 219 198
3 220 199 213
3 221 200 199
3 220 221 199
3 222 201 200
3 221 222 200
3 203 204 223
3 203 223 202
3 202 223 205
3 204 208 224
3 204 224 223
3 205 223 225
3 205 225 207
3 207 225 226
3 207 226 206
3 226 216 206
3 208 228 224
3 224 228 227
3 209 229 208
3 229 228 208
3 210 230 209
3 209 230 229
3 213 212 231
3 212 211 231
3 231 211 214
3 232 220 213
3 232 213 231
3 233 231 214
3 233 214 215
3 234 233 215
3 234 215 218
3 226 235 216
3 235 217 216
3 235 236 217
3 217 236 219
3 237 234 218
3 237 218 219
3 236 238 219
3 238 237 219
3 240 220 232
3 239 240 232
3 241 221 220
3 240 241 220
3 242 222 221
3 241 242 221
3 224 227 243
3 224 243 223
3 223 243 225
3 225 243 244
3 225 244 226
3 226 244 235
3 227 245 243
3 228 246 227
3 227 246 245
3 229 247 228
3 228 247 246
3 230 248 229
3 229 248 247
3 239 232 249
3 232 231 249
3 249 231 233
3 250 249 233
3 250 233 234
3 237 250 234
3 244 251 235
3 235 251 236
3 251 252 236
3 236 252 238
3 252 253 238
3 253 250 237
3 253 237 238
3 254 239 249
3 255 240 239
3 254 255 239
3 256 241 240
3 255 256 240
3 257 242 241
3 256 257 241
3 245 258 243
3 243 258 244
3 244 258 251
3 245 259 258
3 246 260 245
3 245 260 259
3 247 261 246
3 246 261 260
3 248 262 247
3 247 262 261
3 254 249 263
3 263 249 250
3 253 263 250
3 258 264 251
3 251 264 252
3 264 265 252
3 265 263 253
3 252 265 253
3 266 254 263
3 267 255 254
3 266 267 254
3 268 256 255
3 267 268 255
3 269 257 256
3 268 269 256
3 259 270 258
3 270 264 258
3 260 271 259
3 259 271 270
3 261 272 260
3 260 272 271
3 262 273 261
3 273 272 261
3 270 274 264
3 275 266 263
3 275 263 265
3 274 276 264
3 276 265 264
3 276 277 265
3 277 275 265
3 278 267 266
3 275 278 266
3 279 268 267
3 278 279 267
3 280 269 268
3 279 280 268
3 271 281 270
3 270 281 274
3 272 282 271
3 271 282 281
3 273 283 272
3 272 283 282
3 281 284 274
3 274 284 276
3 285 278 275
3 277 285 275
3 284 286 276
3 286 285 277
3 276 286 277
3 287 279 278
3 285 287 278
3 288 280 279
3 287 288 279
3 282 289 281
3 281 289 284
3 283 290 282
3 282 290 289
3 289 291 284
3 284 291 286
3 291 292 286
3 292 287 285
3 286 292 285
3 293 288 287
3 292 293 287
3 290 294 289
3 289 294 291
3 294 295 291
3 295 293 292
3 291 295 292
CELL_TYPES 542
5
5
5
5
5
5
5
5
5
5
5
5
5
5
5
5
5
5
5
5
5
5
5
5
5
5
5
5
5
5
5
5
5
5
5
5
5
5
5
5
5
5
5
5
5
5
5
5
5
5
5
5
5
5
5
5
5
5
5
5
5
5
5
5
5
5
5
5
5
5
5
5
5
5
5
5
5
5
5
5
5
5
5
5
5
5
5
5
5
5
5
5
5
5
5
5
5
5
5
5
5
5
5
5
5
5
5
5
5
5
5
5
5
5
5
5
5
5
5
5
5
5
5
5
5
5
5
5
5
5
5
5
5
5
5
5
5
5
5
5
5
5
5
5
5
5
5
5
5
5
5
5
5
5
5
5
5
5
5
5
5
5
5
5
5
5
5
5
5
5
5
5
5
5
5
5
5
5
5
5
5
5
5
5
5
5
5
5
5
5
5
5
5
5
5
5
5
5
5
5
5
5
5
5
5
5
5
5
5
5
5
5
5
5
5
5
5
5
5
5
5
5
5
5
5
5
5
5
5
5
5
5
5
5
5
5
5
5
5
5
5
5
5
5
5
5
5
5
5
5
5
5
5
5
5
5
5
5
5
5
5
5
5
5
5
5
5
5
5
5
5
5
5
5
5
5
5
5
5
5
5
5
5
5
5
5
5
5
5
5
5
5
5
5
5
5
5
5
5
5
5
5
5
5
5
5
5
5
5
5
5
5
5
5
5
5
5
5
5
5
5
5
5
5
5
5
5
5
5
5
5
5
5
5
5
5
5
5
5
5
5
5
5
5
5
5
5
5
5
5
5
5
5
5
5
5
5
5
5
5
5
5
5
5
5
5
5
5
5
5
5
5
5
5
5
5
5
5
5
5
5
5
5
5
5
5
5
5
5
5
5
5
5
5
5
5
5
5
5
5
5
5
5
5
5
5
5
5
5
5
5
5
5
5
5
5
5
5
5
5
5
5
5
5
5
5
5
5
5
5
5
5
5
5
5
5
5
5
5
5
5
5
5
5
5
5
5
5
5
5
5
5
5
5
5
5
5
5
5
5
5
5
5
5
5
5
5
5
5
5
5
5
5
5
5
5
5
5
5
5
5
5
5
5
5
5
5
5
5
5
5
5
5
5
5
5
5
5
5
5
5
5
5
5
5
5
5
5
5
5
5
5
5
5
5
5
5
5
5
5
5
5
5
5
5
5
5
5
5
5
5
5
5
5
5
5
5
5
5
5
5
5
POINT_DATA 296
SCALARS concentrations float 4
LOOKUP_TABLE default
0 0.952194 0.117323 13.3404
0 0.952211 0.114036 9.00744
0 0.952186 0.116094 13.7172
0 0.952194 0.116806 9.4137
0 0.95219 0.0938459 6.65999
0 0.952201 0.117993 11.1349
0 0.952183 0.117339 13.1183
0 0.952205 0.0937726 6.9272
0 0.9522 0.0944073 5.98833
0 0.952164 0.117469 13.0056
0 0.95216 0.118018 8.2792
0 0.952224 0.117596 11.54
0 0.95222 0.115 11.1932
0 0.9522 0.0933272 7.87097
0 0.952204 0.0927343 6.31326
0 0.952202 0.0938409 8.44535
0 0.952199 0.094897 7.27432
0 0.952195 0.0939897 8.1877
0 0.952179 0.092984 7.65505
0 0.9522 0.0942358 6.83917
0 0.952195 0.0936563 6.33914
0 0.952204 0.11807 10.4204
0 0.952199 0.120183 14.3554
0 0.952172 0.0928065 7.19737
0 0.952186 0.0933587 6.76279
0 0.952214 0.0934158 8.07914
0 0.952228 0.117578 13.8352
0 0.952202 0.0933691 7.51957
0 0.952228 0.115305 12.3088
0 0.952202 0.0933634 8.39188
0 0.952194 0.0935623 8.30508
0 0.952195 0.0930894 6.66465
0 0.952173 0.117758 7.25353
0 0.952197 0.0932705 6.89365
0 0.952199 0.0938323 7.39725
0 0.952191 0.0935835 7.73081
0 0.952185 0.0932494 7.51683
0 0.952195 0.0934088 6.71994
0 0.952189 0.0936829 6.43402
0 0.952207 0.0932099 7.06965
0 0.952188 0.0932307 7.57071
0 0.952188 0.093468 7.83354
0 0.952198 0.0943146 5.89998
0 0.95217 0.117215 10.5828
0 0.952184 0.0935813 6.61043
0 0.952214 0.0946226 7.07408
0 0.952184 0.0951833 8.10527
0 0.952206 0.114815 9.03537
0 0.952202 0.0933854 7.35349
0 0.952204 0.117325 13.3774
0 0.95219 0.0933179 8.02291
0 0.952187 0.0936737 8.13916
0 0.952189 0.0937675 8.09417
0 0.952181 0.0932571 6.76554
0 0.952188 0.0933575 6.92089
0 0.95219 0.0939431 6.23055
0 0.952189 0.0940146 6.40811
0 0.95219 0.0936151 6.51637
0 0.952187 0.0934739 6.9858
0 0.952195 0.0936584 6.3391
0 0.952191 0.0934211 6.47861
0 0.952197 0.0938688 6.41558
0 0.952194 0.0932008 8.00266
0 0.952178 0.116254 12.4362
0 0.952184 0.0947334 8.27698
0 0.95219 0.0937205 7.08546
0 0.952187 0.0961526 7.92885
0 0.952202 0.0932188 7.7222
0 0.952192 0.0939347 8.01031
0 0.952195 0.116378 9.77669
0 0.952197 0.0927713 7.53238
0 0.952162 0.116804 8.52937
0 0.95219 0.0979147 7.35882
0 0.95219 0.0939041 7.79023
0 0.952196 0.0955213 7.92353
0 0.952195 0.0937245 7.67452
0 0.952196 0.0934584 6.65047
0 0.9522 0.0938738 7.17236
0 0.952193 0.0941186 8.10379
0 0.952201 0.0975414 8.07375
0 0.952193 0.0938694 7.70241
0 0.952189 0.0939463 7.44264
0 0.952191 0.0953173 6.58963
0 0.952191 0.0939323 7.93308
0 0.95219 0.094943 6.53093
0 0.952192 0.117736 9.64606
0 0.95219 0.0929506 7.18674
0 0.95219 0.0950441 6.4754
0 0.952192 0.0927044 6.90299
0 0.952188 0.0930925 7.13577
0 0.952188 0.0928552 6.6878
0 0.95219 0.092616 6.8985
0 0.95217 0.115286 11.1446
0 0.952174 0.0958286 7.84926
0 0.952204 0.098437 6.49596
0 0.952195 0.0950767 6.29909
0 0.952202 0.095398 6.3314
0 0.952194 0.0962924 5.71796
0 0.952224 0.116628 11.4878
0 0.952204 0.0939664 7.73985
0 0.952198 0.0936228 7.81485
0 0.952201 0.0942071 6.7995
0 0.952192 0.0935429 7.71604
0 0.952204 0.0950578 8.14223
0 0.952196 0.098033 7.05646
0 0.952183 0.0960265 7.40066
0 0.952183 0.0939056 7.45533
0 0.952193 0.0941762 6.56202
0 0.952184 0.0952204 6.22182
0 0.952197 0.115893 8.79939
0 0.95219 0.0937262 8.12408
0 0.952189 0.0933496 7.75939
0 0.952195 0.0951706 6.61728
0 0.95219 0.0939862 7.42476
0 0.9522 0.0954761 7.31541
0 0.952197 0.0948081 6.76518
0 0.952215 0.095425 7.9377
0 0.952214 0.0949408 7.55994
0 0.952204 0.0946588 7.35812
0 0.952201 0.102404 9.67619
0 0.952189 0.0944274 5.79598
0 0.952195 0.0960111 6.10301
0 0.952195 0.0962591 6.60822
0 0.952197 0.0991787 5.55185
0 0.952208 0.115116 12.6402
0 0.952197 0.0933858 6.54738
0 0.952205 0.0944672 7.30432
0 0.952198 0.0943123 6.43499
0 0.952194 0.0940769 7.52096
0 0.952191 0.0936705 6.84131
0 0.952186 0.0937649 6.47606
0 0.952186 0.093644 5.92574
0 0.952191 0.0958828 7.64228
0 0.952186 0.0940184 6.96511
0 0.952171 0.11587 11.1408
0 0.952192 0.0941584 7.23917
0 0.952193 0.0949701 6.82416
0 0.952196 0.0953127 7.55548
0 0.952188 0.0991434 5.14531
0 0.952181 0.0937946 6.6322
0 0.952196 0.0945592 6.27773
0 0.952205 0.0972982 7.91007
0 0.952201 0.0955457 6.7986
0 0.952203 0.0948518 7.66304
0 0.95219 0.0973511 5.2166
0 0.952206 0.0964697 7.94898
0 0.952221 0.0964548 7.54753
0 0.952188 0.098902 5.38425
0 0.952192 0.0935035 7.47755
0 0.952178 0.0942627 6.15448
0 0.952168 0.11686 12.2541
0 0.952187 0.0965496 8.10819
0 0.952201 0.0952178 7.09803
0 0.952198 0.0930873 7.63337
0 0.952204 0.0940251 5.89231
0 0.952204 0.0935203 6.83575
0 0.952202 0.0958422 8.33899
0 0.952201 0.101501 8.0848
0 0.9522 0.0960394 7.86931
0 0.95218 0.0959618 6.30482
0 0.95221 0.0931378 7.44456
0 0.952189 0.116342 11.0251
0 0.952197 0.097214 7.7858
0 0.952186 0.096843 6.3068
0 0.95219 0.0942094 7.10721
0 0.952186 0.101517 8.60933
0 0.952198 0.0951171 6.66443
0 0.952214 0.0951623 8.17806
0 0.952205 0.0951225 7.26536
0 0.952207 0.0982139 6.07457
0 0.952215 0.0956321 5.3647
0 0.952195 0.0995614 6.28672
0 0.952196 0.0942829 7.29671
0 0.952188 0.0950052 5.70589
0 0.952173 0.116155 9.00922
0 0.952193 0.0971315 6.44079
0 0.952192 0.09373 7.03604
0 0.952201 0.0952472 7.1534
0 0.952214 0.0934539 7.47196
0 0.952194 0.0934702 6.75812
0 0.952203 0.101839 5.88474
0 0.95221 0.0986117 7.48043
0 0.952189 0.100346 9.7932
0 0.952185 0.0960226 8.30852
0 0.952187 0.0946896 7.36176
0 0.952219 0.0944156 7.598
0 0.952235 0.0930812 7.15504
0 0.952224 0.114872 9.0318
0 0.952193 0.0944099 7.51978
0 0.952196 0.0966042 7.01531
0 0.952198 0.0947062 7.71028
0 0.952207 0.0947144 7.3736
0 0.952207 0.0944509 5.89675
0 0.952204 0.0954317 8.85826
0 0.952203 0.0956901 6.21134
0 0.952199 0.0972531 6.182
0 0.952192 0.0951362 8.13028
0 0.9522 0.0963637 8.11343
0 0.952183 0.0965185 6.72744
0 0.952196 0.0961235 5.34533
0 0.952192 0.0935768 6.8232
0 0.952186 0.11925 11.097
0 0.952195 0.094259 7.66389
0 0.952196 0.0934327 7.34212
0 0.952204 0.0938076 7.08993
0 0.952192 0.0952604 7.37008
0 0.952199 0.0962059 8.64464
0 0.952196 0.0961722 8.13576
0 0.952213 0.0946772 7.8475
0 0.952245 0.0931473 7.10394
0 0.952257 0.116896 8.10393
0 0.952201 0.0951722 7.70252
0 0.9522 0.096131 6.26685
0 0.9522 0.0973908 8.45511
0 0.952197 0.0945129 6.28986
0 0.952195 0.0953253 8.64753
0 0.952214 0.0941121 6.66344
0 0.952213 0.0951679 6.92021
0 0.952188 0.0959383 7.73884
0 0.952191 0.101762 10.3745
0 0.952204 0.0934237 7.34172
0 0.952189 0.0936196 6.55776
0 0.952189 0.117332 10.8129
0 0.952196 0.0959767 6.53025
0 0.952205 0.0944984 7.8183
0 0.952199 0.0948559 7.18051
0 0.952211 0.0952069 7.17541
0 0.952199 0.100283 7.36637
0 0.952192 0.0935592 6.81129
0 0.952216 0.0939304 6.77343
0 0.952248 0.11609 9.66464
0 0.952195 0.0943148 8.01084
0 0.952198 0.0971623 6.53296
0 0.952197 0.0959481 5.50336
0 0.952195 0.0945367 6.18181
0 0.952207 0.0971118 6.91662
0 0.952208 0.0953216 7.3231
0 0.952192 0.0952929 7.06918
0 0.952201 0.100591 5.89176
0 0.952198 0.0941618 7.23034
0 0.952206 0.0944253 6.45761
0 0.952206 0.0937314 6.5828
0 0.952193 0.115987 10.702
0 0.952207 0.0953977 6.64735
0 0.952201 0.0954823 7.98949
0 0.952199 0.0946329 7.70195
0 0.952185 0.0936947 7.30022
0 0.952174 0.0934845 6.96559
0 0.952185 0.116385 8.45942
0 0.952194 0.094586 7.03291
0 0.952199 0.0941552 8.11065
0 0.952198 0.0943701 7.22123
0 0.9522 0.0944829 7.62587
0 0.952199 0.0950729 7.90036
0 0.952189 0.0936707 7.27048
0 0.952196 0.0933643 6.67856
0 0.952206 0.0936058 6.44975
0 0.952218 0.116665 10.4978
0 0.952199 0.0940466 7.39016
0 0.952191 0.0960204 7.08399
0 0.952189 0.0947008 7.59388
0 0.952191 0.0930292 7.70157
0 0.952175 0.116352 11.7556
0 0.952199 0.0954072 7.94947
0 0.952198 0.0941106 6.70585
0 0.952201 0.0943743 6.67259
0 0.952201 0.0958383 7.91884
0 0.952191 0.0942469 7.12531
0 0.952181 0.0944108 6.33201
0 0.952186 0.118234 12.6841
0 0.952192 0.0945366 7.71195
0 0.952191 0.0937543 7.69397
0 0.95219 0.0938435 7.26493
0 0.95219 0.116232 12.9489
0 0.952199 0.095251 7.69899
0 0.952213 0.0946762 7.73462
0 0.952207 0.0947805 7.75358
0 0.952216 0.0933706 7.42718
0 0.952205 0.0944864 6.0118
0 0.952192 0.0933262 6.65432
0 0.952177 0.114786 10.5626
0 0.952195 0.0935177 6.52984
0 0.952205 0.0935812 7.39846
0 0.952199 0.117771 11.8671
0 0.952203 0.0938327 7.70919
0 0.952227 0.0958432 6.14069
0 0.952224 0.094069 7.89719
0 0.952217 0.0951281 7.00471
0 0.952208 0.114452 10.123
0 0.952199 0.0930551 6.64977
0 0.952207 0.116902 7.21017
0 0.952222 0.0934067 8.06888
0 0.952233 0.0936766 7.8781
0 0.952229 0.113151 9.18587
0 0.952217 0.116182 11.3594
0 0.952235 0.116518 5.11554
VECTORS fa_u float
0.00711687 0.00284203 -0
0.0068149 0.00391476 -0
0.00298543 0.000812894 -0
0.00707291 0.00109796 -0
1e-08 0 0
0.00516707 0.0039875 -0
0.00251672 0.00243595 -0
1e-08 0 0
1e-08 0 0
0.00459868 0.00561306 -0
0.00528403 0.00888509 -0
0.00671753 0.000139758 -0
0.00610793 -0.000658321 0
1e-08 0 0
1e-08 0 0
1e-08 0 0
1e-08 0 0
1e-08 0 0
1e-08 0 0
1e-08 0 0
1e-08 0 0
0.00289378 0.00714158 -0
0.00160711 0.00629965 -0
1e-08 0 0
1e-08 0 0
1e-08 0 0
0.00902958 -0.00227817 0
1e-08 0 0
0.0109622 -0.00480114 0
1e-08 0 0
1e-08 0 0
1e-08 0 0
0.000859509 0.00735001 -0
1e-08 0 0
1e-08 0 0
1e-08 0 0
1e-08 0 0
1e-08 0 0
1e-08 0 0
1e-08 0 0
1e-08 0 0
1e-08 0 0
1e-08 0 0
-0.000179595 0.00776466 -0
1e-08 0 0
1e-08 0 0
1e-08 0 0
0.00552796 -0.00351088 0
1e-08 0 0
0.00283649 -0.00228656 0
1e-08 0 0
1e-08 0 0
1e-08 0 0
1e-08 0 0
1e-08 0 0
1e-08 0 0
1e-08 0 0
1e-08 0 0
1e-08 0 0
1e-08 0 0
1e-08 0 0
1e-08 0 0
1e-08 0 0
-0.000588981 0.00403631 0
1e-08 0 0
1e-08 0 0
1e-08 0 0
1e-08 0 0
1e-08 0 0
0.00319659 -0.00316679 0
1e-08 0 0
0.0027679 -0.00339622 0
1e-08 0 0
1e-08 0 0
1e-08 0 0
1e-08 0 0
1e-08 0 0
1e-08 0 0
1e-08 0 0
1e-08 0 0
1e-08 0 0
1e-08 0 0
1e-08 0 0
1e-08 0 0
1e-08 0 0
-0.00137267 0.00527583 0
1e-08 0 0
1e-08 0 0
1e-08 0 0
1e-08 0 0
1e-08 0 0
1e-08 0 0
0.00570264 -0.00935925 0
1e-08 0 0
1e-08 0 0
1e-08 0 0
1e-08 0 0
1e-08 0 0
0.00362834 -0.00897054 0
1e-08 0 0
1e-08 0 0
1e-08 0 0
1e-08 0 0
1e-08 0 0
1e-08 0 0
1e-08 0 0
1e-08 0 0
1e-08 0 0
1e-08 0 0
-0.0028672 0.00710709 0
1e-08 0 0
1e-08 0 0
1e-08 0 0
1e-08 0 0
1e-08 0 0
1e-08 0 0
1e-08 0 0
1e-08 0 0
1e-08 0 0
1e-08 0 0
1e-08 0 0
1e-08 0 0
1e-08 0 0
1e-08 0 0
0.0013788 -0.00550549 0
1e-08 0 0
1e-08 0 0
1e-08 0 0
1e-08 0 0
1e-08 0 0
1e-08 0 0
1e-08 0 0
1e-08 0 0
1e-08 0 0
-0.00374735 0.00649908 0
1e-08 0 0
1e-08 0 0
1e-08 0 0
1e-08 0 0
1e-08 0 0
1e-08 0 0
1e-08 0 0
1e-08 0 0
1e-08 0 0
1e-08 0 0
1e-08 0 0
1e-08 0 0
1e-08 0 0
1e-08 0 0
1e-08 0 0
0.000512685 -0.00374435 0
1e-08 0 0
1e-08 0 0
1e-08 0 0
1e-08 0 0
1e-08 0 0
1e-08 0 0
1e-08 0 0
1e-08 0 0
1e-08 0 0
1e-08 0 0
-0.00465838 0.00597694 0
1e-08 0 0
1e-08 0 0
1e-08 0 0
1e-08 0 0
1e-08 0 0
1e-08 0 0
1e-08 0 0
1e-08 0 0
1e-08 0 0
1e-08 0 0
1e-08 0 0
1e-08 0 0
0.000120135 -0.00789271 0
1e-08 0 0
1e-08 0 0
1e-08 0 0
1e-08 0 0
1e-08 0 0
1e-08 0 0
1e-08 0 0
1e-08 0 0
1e-08 0 0
1e-08 0 0
1e-08 0 0
1e-08 0 0
-0.00226362 0.00230183 0
1e-08 0 0
1e-08 0 0
1e-08 0 0
1e-08 0 0
1e-08 0 0
1e-08 0 0
1e-08 0 0
1e-08 0 0
1e-08 0 0
1e-08 0 0
1e-08 0 0
1e-08 0 0
1e-08 0 0
-0.000859951 -0.00695036 0
1e-08 0 0
1e-08 0 0
1e-08 0 0
1e-08 0 0
1e-08 0 0
1e-08 0 0
1e-08 0 0
1e-08 0 0
-0.0047967 0.00392327 0
1e-08 0 0
1e-08 0 0
1e-08 0 0
1e-08 0 0
1e-08 0 0
1e-08 0 0
1e-08 0 0
1e-08 0 0
1e-08 0 0
1e-08 0 0
1e-08 0 0
-0.00162336 -0.00623479 0
1e-08 0 0
1e-08 0 0
1e-08 0 0
1e-08 0 0
1e-08 0 0
1e-08 0 0
1e-08 0 0
-0.00873326 0.00525224 0
1e-08 0 0
1e-08 0 0
1e-08 0 0
1e-08 0 0
1e-08 0 0
1e-08 0 0
1e-08 0 0
1e-08 0 0
1e-08 0 0
1e-08 0 0
1e-08 0 0
-0.00295876 -0.00720128 0
1e-08 0 0
1e-08 0 0
1e-08 0 0
1e-08 0 0
1e-08 0 0
-0.00750957 0.00307417 0
1e-08 0 0
1e-08 0 0
1e-08 0 0
1e-08 0 0
1e-08 0 0
1e-08 0 0
1e-08 0 0
1e-08 0 0
-0.0051113 -0.00852429 0
1e-08 0 0
1e-08 0 0
1e-08 0 0
1e-08 0 0
-0.00628943 0.00161711 0
1e-08 0 0
1e-08 0 0
1e-08 0 0
1e-08 0 0
1e-08 0 0
1e-08 0 0
-0.00358759 -0.00443034 0
1e-08 0 0
1e-08 0 0
1e-08 0 0
-0.00712604 0.000853083 0
1e-08 0 0
1e-08 0 0
1e-08 0 0
1e-08 0 0
1e-08 0 0
1e-08 0 0
-0.00258093 -0.00256206 0
1e-08 0 0
1e-08 0 0
-0.00842209 -0.000185719 0
1e-08 0 0
1e-08 0 0
1e-08 0 0
1e-08 0 0
-0.00606846 -0.00474327 0
1e-08 0 0
-0.00350532 -0.000506724 0
1e-08 0 0
1e-08 0 0
-0.00662972 -0.00382364 0
-0.00555313 -0.00142512 0
-0.00723377 -0.00290878 0
