# vtk DataFile Version 2.0
CellBP Time: 8.72
ASCII
DATASET UNSTRUCTURED_GRID
POINTS 296 double
-8.94002 -3.66108 0
-8.38319 -4.81315 0
-9.33118 -2.44011 0
-9.6067 -1.21157 0
-8.09796 -2.70669 0
-7.66657 -5.87809 0
-6.81841 -6.84131 0
-7.65688 -3.73179 0
-7.09903 -4.70517 0
-5.89431 -7.70897 0
-4.8655 -8.44034 0
-9.71544 0.0381598 0
-9.65925 1.31376 0
-8.41715 -1.61633 0
-8.57228 -0.50093 0
-7.34224 -1.91392 0
-6.96948 -2.78166 0
-6.44249 -5.61926 0
-5.67254 -6.44836 0
-6.54506 -3.74153 0
-6.00992 -4.52716 0
-3.71626 -9.00399 0
-2.48857 -9.4042 0
-4.80133 -7.15464 0
-3.85166 -7.7445 0
-8.588 0.631151 0
-9.44014 2.59099 0
-8.44225 1.72411 0
-9.03011 3.80679 0
-7.51899 -0.882277 0
-7.58293 0.0886757 0
-6.73587 -1.25332 0
-1.21683 -9.64169 0
-6.23853 -2.06709 0
-6.10951 -2.9423 0
-5.36792 -5.32795 0
-4.66844 -5.9713 0
-5.47387 -3.63514 0
-5.0975 -4.42651 0
-2.81763 -8.20404 0
-1.74752 -8.46076 0
-3.84573 -6.58484 0
-3.01064 -7.02184 0
0.0552704 -9.70138 0
-7.51252 1.11693 0
-8.18659 2.86244 0
-7.37206 2.04946 0
-8.41693 4.92732 0
-7.70699 3.87741 0
-7.66055 5.96413 0
-6.58168 -0.369048 0
-6.76232 0.549299 0
-5.61731 -0.970715 0
-0.575286 -8.61046 0
0.547913 -8.54474 0
-5.15745 -2.40031 0
-4.34916 -4.96148 0
-3.79744 -5.64378 0
-4.31897 -3.70617 0
-2.02486 -7.41372 0
-1.11635 -7.62186 0
-2.92756 -5.97276 0
-2.27246 -6.49139 0
1.31074 -9.58373 0
-6.51801 1.383 0
-6.9899 3.02973 0
-6.49323 2.30634 0
-7.11111 4.84722 0
-6.54781 3.88914 0
-6.81815 6.91116 0
-6.40272 5.73048 0
-5.87416 7.76756 0
-4.36908 -1.15944 0
-5.68021 0.494737 0
-4.57332 -0.0248485 0
-0.0100282 -7.65091 0
1.67666 -8.39397 0
0.902274 -7.54788 0
-3.96172 -2.35443 0
-3.4555 -1.37997 0
-3.22036 -4.69918 0
-3.21473 -3.20472 0
-1.36297 -6.52918 0
-0.521204 -6.85518 0
-1.94559 -5.43093 0
2.55978 -9.33616 0
-5.38143 1.99233 0
-5.94306 2.98449 0
-5.94885 4.72574 0
-5.6149 3.87183 0
-5.60345 6.52637 0
-5.30834 5.45275 0
-4.84495 8.51907 0
-4.70321 7.1872 0
-3.46205 -0.420406 0
-4.36142 1.22374 0
-3.65323 0.583873 0
-3.98048 2.29376 0
-3.70718 9.08735 0
2.7569 -8.05892 0
0.371744 -6.60637 0
1.93541 -7.28795 0
1.23082 -6.69444 0
-2.42639 -0.863681 0
-2.81357 -2.10565 0
-2.26183 -4.02383 0
-2.29882 -2.92542 0
-0.456641 -5.72016 0
-1.20255 -4.42565 0
3.77116 -8.94323 0
-4.67822 3.30887 0
-4.9569 4.45667 0
-4.51933 6.08793 0
-4.41708 5.1989 0
-3.75272 7.79037 0
-3.71395 6.62883 0
-2.71335 8.19526 0
-1.63444 -0.128057 0
-1.43647 -0.878971 0
-2.47118 0.516648 0
-3.20463 1.4364 0
-3.17495 3.25547 0
-2.86488 2.35956 0
-1.35041 0.638227 0
-2.48618 9.47312 0
3.79568 -7.62866 0
2.83365 -6.89748 0
0.899124 -5.6564 0
1.97355 -6.20194 0
-1.66697 -1.97434 0
-1.41305 -3.23022 0
0.078493 -4.64848 0
-0.550238 -3.64521 0
4.77334 -7.07589 0
4.91445 -8.38623 0
-3.68541 4.43747 0
-3.6349 5.58476 0
-2.79854 7.07251 0
-2.92851 6.17085 0
-1.62192 8.51154 0
-1.8803 7.4148 0
-2.29786 3.97575 0
-0.722267 -1.31644 0
-0.830021 -0.245387 0
-1.92979 1.69001 0
-2.10194 2.85342 0
-1.29868 3.50657 0
-0.871972 1.36367 0
-0.2839 0.467794 0
-0.521035 8.66622 0
-1.22573 9.70932 0
1.07117 -4.45814 0
3.75074 -6.44826 0
2.86503 -5.87427 0
2.03337 -5.25251 0
4.62826 -5.9754 0
-0.547298 -2.45689 0
0.488156 -3.40849 0
0.0570358 -1.60372 0
1.43857 -3.59709 0
5.69428 -6.39886 0
5.97705 -7.67152 0
-2.41575 5.21675 0
-2.06374 6.35729 0
-0.874401 7.61632 0
-1.22446 6.75407 0
0.0931137 7.70717 0
-1.12573 4.41684 0
0.1495 -0.610392 0
-0.807451 2.49436 0
-0.346674 3.57392 0
0.0552426 1.52125 0
0.734017 0.476985 0
0.637361 8.69459 0
0.0422831 9.81932 0
2.30798 -4.15806 0
3.72702 -5.4284 0
2.89608 -5.03446 0
5.42326 -5.3077 0
4.54623 -5.08424 0
0.632105 -2.28296 0
1.2378 -2.90249 0
0.756143 -1.38542 0
2.11748 -3.06613 0
2.92601 -3.38175 0
6.01253 -4.65292 0
6.49128 -5.6089 0
6.93231 -6.81347 0
-0.986005 5.68971 0
-0.347163 6.71997 0
1.1019 7.61494 0
0.559566 6.93123 0
-0.00318728 4.65247 0
0.588193 3.78456 0
1.32904 -0.638039 0
0.521029 2.63789 0
0.948579 1.57684 0
1.89472 0.210386 0
1.59296 1.06331 0
2.09897 7.4474 0
1.77018 8.54446 0
1.32377 9.74788 0
3.71484 -4.20795 0
4.98408 -4.28723 0
5.71459 -3.81244 0
3.7019 -3.11127 0
1.79785 -1.87626 0
2.96461 -2.52654 0
6.64796 -3.84612 0
7.23041 -4.77974 0
7.79697 -5.88152 0
0.484949 5.76452 0
1.41126 6.61527 0
2.33682 6.5539 0
1.18628 4.48844 0
1.46437 3.35656 0
2.40848 -0.687282 0
2.79625 0.141305 0
1.76682 2.14842 0
2.584 1.14007 0
3.02697 7.04056 0
2.85838 8.22445 0
2.59155 9.50374 0
4.80019 -3.22497 0
5.99645 -3.0212 0
4.09953 -2.23093 0
3.19966 -1.48514 0
6.61459 -2.27167 0
7.10745 -2.9892 0
7.81793 -3.84522 0
8.53317 -4.85544 0
1.99523 5.50302 0
3.01302 6.03217 0
2.33531 4.06211 0
2.38978 3.01987 0
3.47712 -0.451553 0
3.57213 0.616384 0
2.92197 2.25971 0
3.48909 1.50641 0
3.90368 5.77782 0
3.89811 6.65865 0
3.9127 7.79483 0
3.81587 9.09863 0
5.47375 -1.87747 0
4.43951 -1.11075 0
6.59019 -1.30969 0
7.45612 -1.99413 0
8.24113 -2.81319 0
9.10172 -3.71157 0
3.32701 4.77481 0
3.26888 3.32477 0
4.61556 0.135014 0
4.42492 1.2818 0
3.96795 2.39047 0
4.42296 5.02679 0
4.71706 6.05023 0
4.87264 7.22911 0
4.96037 8.53034 0
5.76751 -0.433768 0
6.85735 -0.488047 0
7.6111 -1.06116 0
8.51803 -1.71471 0
9.50392 -2.48493 0
4.41583 3.73095 0
5.67101 1.0524 0
5.20844 2.45639 0
5.19516 4.48982 0
5.44191 5.37926 0
5.74428 6.5149 0
5.98727 7.79724 0
6.67413 0.429234 0
7.67472 -0.0294081 0
8.68007 -0.566279 0
9.74421 -1.21444 0
6.76752 1.28532 0
5.5257 3.65879 0
6.33973 2.10704 0
6.16444 2.97533 0
6.07806 4.54235 0
6.49494 5.68048 0
6.92537 6.93948 0
7.58622 0.931822 0
8.65181 0.559521 0
9.80917 0.0632366 0
7.39385 1.9277 0
6.57388 3.75771 0
7.02488 2.8357 0
7.15069 4.73777 0
7.78434 5.98678 0
8.48662 1.67944 0
9.68852 1.31791 0
8.157 2.74409 0
7.74285 3.79574 0
8.49907 4.92584 0
9.44673 2.56965 0
9.05561 3.78179 0
CELLS 542 2168
3 2 0 4
3 0 1 7
3 4 0 7
3 1 5 8
3 7 1 8
3 3 2 13
3 13 2 4
3 11 3 14
3 14 3 13
3 13 4 15
3 4 7 16
3 15 4 16
3 5 6 17
3 8 5 17
3 6 9 18
3 17 6 18
3 7 8 19
3 16 7 19
3 8 17 20
3 19 8 20
3 9 10 23
3 18 9 23
3 10 21 24
3 23 10 24
3 12 11 25
3 25 11 14
3 26 12 27
3 27 12 25
3 14 13 29
3 29 13 15
3 25 14 30
3 30 14 29
3 29 15 31
3 15 16 33
3 31 15 33
3 16 19 34
3 33 16 34
3 17 18 35
3 20 17 35
3 18 23 36
3 35 18 36
3 19 20 37
3 34 19 37
3 20 35 38
3 37 20 38
3 21 22 39
3 24 21 39
3 22 32 40
3 39 22 40
3 23 24 41
3 36 23 41
3 24 39 42
3 41 24 42
3 27 25 44
3 44 25 30
3 28 26 45
3 45 26 27
3 45 27 46
3 46 27 44
3 47 28 48
3 48 28 45
3 30 29 50
3 50 29 31
3 44 30 51
3 51 30 50
3 50 31 52
3 31 33 52
3 32 43 53
3 40 32 53
3 53 43 54
3 33 34 55
3 34 37 55
3 33 55 52
3 35 36 56
3 38 35 56
3 36 41 57
3 56 36 57
3 37 38 58
3 38 56 58
3 37 58 55
3 39 40 59
3 42 39 59
3 40 53 60
3 59 40 60
3 41 42 61
3 57 41 61
3 42 59 62
3 61 42 62
3 43 63 54
3 46 44 64
3 64 44 51
3 48 45 65
3 65 45 46
3 65 46 66
3 66 46 64
3 49 47 67
3 67 47 48
3 67 48 68
3 68 48 65
3 69 49 70
3 70 49 67
3 52 55 72
3 64 51 73
3 51 50 73
3 50 52 73
3 73 52 74
3 74 52 72
3 53 54 75
3 60 53 75
3 54 63 76
3 54 76 77
3 75 54 77
3 55 58 78
3 72 55 78
3 72 78 79
3 56 57 80
3 57 61 80
3 56 80 58
3 58 80 81
3 78 58 81
3 59 60 82
3 62 59 82
3 60 75 83
3 82 60 83
3 61 62 84
3 62 82 84
3 61 84 80
3 63 85 76
3 66 64 86
3 64 73 86
3 68 65 87
3 87 65 66
3 87 66 86
3 70 67 88
3 88 67 68
3 88 68 89
3 89 68 87
3 71 69 90
3 90 69 70
3 90 70 91
3 91 70 88
3 92 71 93
3 93 71 90
3 74 72 94
3 94 72 79
3 86 73 95
3 95 73 74
3 95 74 96
3 96 74 94
3 97 86 95
3 76 85 99
3 75 77 100
3 83 75 100
3 76 99 101
3 77 76 101
3 77 101 102
3 100 77 102
3 94 79 103
3 78 81 104
3 79 78 104
3 79 104 103
3 80 84 105
3 81 80 105
3 81 105 106
3 104 81 106
3 82 83 107
3 83 100 107
3 82 107 84
3 84 107 108
3 105 84 108
3 85 109 99
3 89 87 110
3 87 86 110
3 110 86 97
3 91 88 111
3 111 88 89
3 111 89 110
3 93 90 112
3 112 90 91
3 112 91 113
3 113 91 111
3 98 92 114
3 114 92 93
3 114 93 115
3 115 93 112
3 116 98 114
3 117 103 118
3 96 94 119
3 94 103 119
3 119 103 117
3 97 95 120
3 120 95 96
3 120 96 119
3 121 110 97
3 121 97 122
3 122 97 120
3 123 119 117
3 124 98 116
3 99 109 125
3 99 125 126
3 101 99 126
3 100 102 127
3 100 127 107
3 101 126 128
3 102 101 128
3 102 128 127
3 104 106 129
3 104 129 103
3 103 129 118
3 105 108 130
3 106 105 130
3 106 130 129
3 107 127 131
3 108 107 131
3 108 131 132
3 108 132 130
3 109 134 125
3 125 134 133
3 113 111 135
3 111 110 135
3 135 110 121
3 115 112 136
3 136 112 113
3 136 113 135
3 116 114 137
3 137 114 115
3 137 115 138
3 138 115 136
3 139 124 116
3 139 116 140
3 140 116 137
3 141 135 121
3 118 129 142
3 118 142 143
3 117 118 143
3 123 117 143
3 122 120 144
3 120 119 144
3 144 119 123
3 141 121 145
3 145 121 122
3 145 122 144
3 146 141 145
3 147 144 123
3 147 123 148
3 143 148 123
3 150 124 139
3 149 150 139
3 131 127 151
3 125 133 152
3 126 125 152
3 126 152 153
3 128 126 153
3 128 153 154
3 128 154 127
3 127 154 151
3 152 133 155
3 130 132 156
3 130 156 129
3 129 156 142
3 131 151 157
3 132 131 157
3 132 157 156
3 156 158 142
3 157 151 159
3 133 160 155
3 134 161 133
3 133 161 160
3 138 136 162
3 136 135 162
3 162 135 141
3 140 137 163
3 163 137 138
3 163 138 162
3 149 139 164
3 164 139 140
3 164 140 165
3 165 140 163
3 166 149 164
3 167 162 141
3 167 141 146
3 142 158 168
3 143 142 168
3 143 168 148
3 146 145 169
3 145 144 169
3 169 144 147
3 170 167 146
3 170 146 169
3 171 169 147
3 171 147 148
3 171 148 172
3 168 172 148
3 173 149 166
3 174 150 149
3 173 174 149
3 154 175 151
3 151 175 159
3 152 155 176
3 153 152 176
3 153 176 177
3 153 177 154
3 154 177 175
3 155 160 178
3 155 178 179
3 176 155 179
3 156 157 180
3 156 180 158
3 157 159 181
3 157 181 180
3 158 180 182
3 158 182 168
3 159 175 183
3 159 183 181
3 175 184 183
3 160 186 178
3 178 186 185
3 161 187 160
3 160 187 186
3 165 163 188
3 163 162 188
3 188 162 167
3 166 164 189
3 189 164 165
3 189 165 188
3 190 173 166
3 190 166 191
3 191 166 189
3 192 188 167
3 192 167 170
3 193 192 170
3 182 194 168
3 194 172 168
3 193 170 195
3 170 169 195
3 195 169 171
3 196 195 171
3 196 171 172
3 194 197 172
3 197 198 172
3 198 196 172
3 200 173 190
3 199 200 190
3 201 174 173
3 200 201 173
3 176 179 202
3 177 176 202
3 177 202 175
3 175 202 184
3 178 185 203
3 178 203 179
3 179 203 202
3 203 185 204
3 202 205 184
3 183 206 181
3 180 181 206
3 180 206 182
3 182 206 194
3 183 184 207
3 205 207 184
3 183 207 206
3 185 208 204
3 186 209 185
3 185 209 208
3 187 210 186
3 186 210 209
3 191 189 211
3 189 188 211
3 211 188 192
3 199 190 212
3 212 190 191
3 212 191 211
3 213 199 212
3 214 211 192
3 214 192 193
3 215 214 193
3 215 193 195
3 206 216 194
3 216 197 194
3 216 217 197
3 215 195 218
3 218 195 196
3 198 218 196
3 217 219 197
3 219 218 198
3 197 219 198
3 220 199 213
3 221 200 199
3 220 221 199
3 222 201 200
3 221 222 200
3 203 204 223
3 203 223 202
3 202 223 205
3 204 208 224
3 204 224 223
3 205 223 225
3 205 225 207
3 207 225 226
3 207 226 206
3 226 216 206
3 208 228 224
3 224 228 227
3 209 229 208
3 229 228 208
3 210 230 209
3 209 230 229
3 213 212 231
3 212 211 231
3 231 211 214
3 232 220 213
3 232 213 231
3 233 231 214
3 233 214 215
3 234 233 215
3 234 215 218
3 226 235 216
3 235 217 216
3 235 236 217
3 217 236 219
3 237 234 218
3 237 218 219
3 236 238 219
3 238 237 219
3 240 220 232
3 239 240 232
3 241 221 220
3 240 241 220
3 242 222 221
3 241 242 221
3 224 227 243
3 224 243 223
3 223 243 225
3 225 243 244
3 225 244 226
3 226 244 235
3 227 245 243
3 228 246 227
3 227 246 245
3 229 247 228
3 228 247 246
3 230 248 229
3 229 248 247
3 239 232 249
3 232 231 249
3 249 231 233
3 250 249 233
3 250 233 234
3 237 250 234
3 244 251 235
3 235 251 236
3 251 252 236
3 236 252 238
3 252 253 238
3 253 250 237
3 253 237 238
3 254 239 249
3 255 240 239
3 254 255 239
3 256 241 240
3 255 256 240
3 257 242 241
3 256 257 241
3 245 258 243
3 243 258 244
3 244 258 251
3 245 259 258
3 246 260 245
3 245 260 259
3 247 261 246
3 246 261 260
3 248 262 247
3 247 262 261
3 254 249 263
3 263 249 250
3 253 263 250
3 258 264 251
3 251 264 252
3 264 265 252
3 265 263 253
3 252 265 253
3 266 254 263
3 267 255 254
3 266 267 254
3 268 256 255
3 267 268 255
3 269 257 256
3 268 269 256
3 259 270 258
3 270 264 258
3 260 271 259
3 259 271 270
3 261 272 260
3 260 272 271
3 262 273 261
3 273 272 261
3 270 274 264
3 275 266 263
3 275 263 265
3 274 276 264
3 276 265 264
3 276 277 265
3 277 275 265
3 278 267 266
3 275 278 266
3 279 268 267
3 278 279 267
3 280 269 268
3 279 280 268
3 271 281 270
3 270 281 274
3 272 282 271
3 271 282 281
3 273 283 272
3 272 283 282
3 281 284 274
3 274 284 276
3 285 278 275
3 277 285 275
3 284 286 276
3 286 285 277
3 276 286 277
3 287 279 278
3 285 287 278
3 288 280 279
3 287 288 279
3 282 289 281
3 281 289 284
3 283 290 282
3 282 290 289
3 289 291 284
3 284 291 286
3 291 292 286
3 292 287 285
3 286 292 285
3 293 288 287
3 292 293 287
3 290 294 289
3 289 294 291
3 294 295 291
3 295 293 292
3 291 295 292
CELL_TYPES 542
5
5
5
5
5
5
5
5
5
5
5
5
5
5
5
5
5
5
5
5
5
5
5
5
5
5
5
5
5
5
5
5
5
5
5
5
5
5
5
5
5
5
5
5
5
5
5
5
5
5
5
5
5
5
5
5
5
5
5
5
5
5
5
5
5
5
5
5
5
5
5
5
5
5
5
5
5
5
5
5
5
5
5
5
5
5
5
5
5
5
5
5
5
5
5
5
5
5
5
5
5
5
5
5
5
5
5
5
5
5
5
5
5
5
5
5
5
5
5
5
5
5
5
5
5
5
5
5
5
5
5
5
5
5
5
5
5
5
5
5
5
5
5
5
5
5
5
5
5
5
5
5
5
5
5
5
5
5
5
5
5
5
5
5
5
5
5
5
5
5
5
5
5
5
5
5
5
5
5
5
5
5
5
5
5
5
5
5
5
5
5
5
5
5
5
5
5
5
5
5
5
5
5
5
5
5
5
5
5
5
5
5
5
5
5
5
5
5
5
5
5
5
5
5
5
5
5
5
5
5
5
5
5
5
5
5
5
5
5
5
5
5
5
5
5
5
5
5
5
5
5
5
5
5
5
5
5
5
5
5
5
5
5
5
5
5
5
5
5
5
5
5
5
5
5
5
5
5
5
5
5
5
5
5
5
5
5
5
5
5
5
5
5
5
5
5
5
5
5
5
5
5
5
5
5
5
5
5
5
5
5
5
5
5
5
5
5
5
5
5
5
5
5
5
5
5
5
5
5
5
5
5
5
5
5
5
5
5
5
5
5
5
5
5
5
5
5
5
5
5
5
5
5
5
5
5
5
5
5
5
5
5
5
5
5
5
5
5
5
5
5
5
5
5
5
5
5
5
5
5
5
5
5
5
5
5
5
5
5
5
5
5
5
5
5
5
5
5
5
5
5
5
5
5
5
5
5
5
5
5
5
5
5
5
5
5
5
5
5
5
5
5
5
5
5
5
5
5
5
5
5
5
5
5
5
5
5
5
5
5
5
5
5
5
5
5
5
5
5
5
5
5
5
5
5
5
5
5
5
5
5
5
5
5
5
5
5
5
5
5
5
5
5
5
5
5
5
5
5
5
5
5
5
5
5
5
5
5
5
5
5
5
5
5
5
5
5
5
5
5
5
5
5
5
5
5
5
5
5
5
5
5
5
5
5
5
5
5
5
5
5
5
5
5
5
5
5
5
5
5
5
5
5
5
5
5
5
5
5
5
5
5
POINT_DATA 296
SCALARS concentrations float 4
LOOKUP_TABLE default
0 0.952421 0.11768 13.5991
0 0.95242 0.116283 9.1556
0 0.952431 0.118171 8.12023
0 0.952433 0.119714 14.4649
0 0.952433 0.0940158 6.97301
0 0.952482 0.116428 10.1318
0 0.952502 0.119742 7.7716
0 0.952422 0.0934466 6.88308
0 0.952453 0.0940476 6.71399
0 0.952453 0.118837 10.0738
0 0.952426 0.117598 15.0377
0 0.952438 0.117669 11.1127
0 0.952449 0.117658 10.0373
0 0.952428 0.0932047 7.15293
0 0.952433 0.0927966 7.40317
0 0.952434 0.0938641 7.04451
0 0.952437 0.0952297 7.3739
0 0.952481 0.0945212 7.31996
0 0.95247 0.0926666 7.21032
0 0.952444 0.0939072 6.84485
0 0.952448 0.0931757 6.63441
0 0.952417 0.11698 13.2129
0 0.952434 0.118365 8.22631
0 0.952437 0.0927286 7.47095
0 0.952427 0.0929611 6.67115
0 0.95244 0.0932047 6.49799
0 0.952447 0.116905 10.5268
0 0.952445 0.0931549 7.40534
0 0.952461 0.117596 10.5401
0 0.952431 0.0935053 6.69913
0 0.952434 0.0935515 6.45947
0 0.952439 0.0935864 7.24527
0 0.952459 0.117944 11.559
0 0.95244 0.0933441 7.05471
0 0.952439 0.0938491 6.7759
0 0.952449 0.0937795 7.6135
0 0.952448 0.0931417 7.55984
0 0.952442 0.0926689 6.9036
0 0.952439 0.0936609 7.13667
0 0.952427 0.0931561 6.83115
0 0.952445 0.0934521 7.21563
0 0.952445 0.0935807 7.33671
0 0.952436 0.0942465 7.89314
0 0.952434 0.116655 15.9817
0 0.952441 0.093555 7.60671
0 0.952454 0.0949596 7.3076
0 0.952447 0.0948802 6.45859
0 0.952438 0.11948 11.2656
0 0.95245 0.0937622 6.79592
0 0.952433 0.117464 10.7625
0 0.952438 0.0930102 7.14216
0 0.952439 0.0931405 6.71673
0 0.952449 0.0932133 7.34418
0 0.952448 0.0933113 7.34697
0 0.952427 0.093131 7.11297
0 0.952446 0.0933196 6.67372
0 0.952438 0.0948936 7.02444
0 0.952442 0.0939825 8.06131
0 0.952442 0.0929488 6.87143
0 0.952436 0.093442 6.77896
0 0.952441 0.0942877 6.70034
0 0.952445 0.0939277 7.72733
0 0.952448 0.0935241 7.07788
0 0.952424 0.119355 9.28536
0 0.952443 0.0941866 6.55409
0 0.952446 0.0953728 7.0187
0 0.952438 0.0962726 6.47816
0 0.952435 0.093502 6.60298
0 0.952443 0.0942229 6.65548
0 0.95248 0.116567 10.473
0 0.952452 0.0932496 6.72479
0 0.952529 0.116299 4.45048
0 0.95244 0.101563 5.75123
0 0.952443 0.0929912 7.03376
0 0.952438 0.0952828 7.87729
0 0.952434 0.0932767 6.8582
0 0.952432 0.0934692 6.80973
0 0.952437 0.0937656 7.21916
0 0.952442 0.0939199 6.57463
0 0.952438 0.100871 4.82704
0 0.952438 0.0937921 7.35761
0 0.952447 0.0945928 8.22068
0 0.95245 0.0965978 7.67505
0 0.952437 0.0939313 7.01019
0 0.952447 0.095278 6.31503
0 0.952411 0.116927 11.4782
0 0.952443 0.0936494 7.5107
0 0.952441 0.0970497 7.66552
0 0.952443 0.0935449 7.20303
0 0.952443 0.0937775 6.72176
0 0.952496 0.093492 7.47738
0 0.952456 0.0935228 6.52216
0 0.952504 0.116622 6.42618
0 0.952507 0.0954188 4.73509
0 0.95243 0.0991639 8.19957
0 0.952441 0.0944806 6.45899
0 0.952421 0.095302 5.88014
0 0.952449 0.0953475 8.56031
0 0.952465 0.117035 13.1756
0 0.952428 0.0939846 6.7472
0 0.952436 0.094658 7.34511
0 0.952447 0.0946293 6.84058
0 0.952444 0.0943386 7.26157
0 0.952465 0.0957321 6.82213
0 0.95245 0.100833 8.70641
0 0.952448 0.0997052 7.99864
0 0.952457 0.0935787 6.64447
0 0.952441 0.0934877 7.12288
0 0.952444 0.0960622 7.33848
0 0.952428 0.115237 11.4008
0 0.952446 0.094457 6.31969
0 0.952441 0.0933011 7.48376
0 0.952473 0.0973963 8.33389
0 0.952446 0.0944789 5.81743
0 0.95247 0.0953583 5.67479
0 0.952464 0.0963453 6.96663
0 0.952456 0.0948123 8.28033
0 0.952485 0.0948497 8.09209
0 0.952477 0.0948656 8.65478
0 0.952461 0.100027 7.70359
0 0.952441 0.0952677 8.01008
0 0.952447 0.0967377 5.7706
0 0.952456 0.0967798 8.33208
0 0.952503 0.0984321 5.56004
0 0.952443 0.116163 12.0734
0 0.952464 0.0939964 7.28671
0 0.952457 0.0942211 7.43412
0 0.952442 0.0939797 6.61434
0 0.952448 0.0949605 6.87727
0 0.952468 0.0946823 7.62491
0 0.952459 0.0935589 7.46312
0 0.95244 0.0940245 7.04092
0 0.952431 0.0951432 7.25762
0 0.952484 0.0948591 6.66273
0 0.952472 0.116805 8.0251
0 0.952446 0.0936498 5.53741
0 0.952459 0.0966915 9.32018
0 0.952451 0.0954281 5.8213
0 0.952459 0.0956348 4.66646
0 0.952444 0.0937837 6.44679
0 0.952444 0.0940919 7.15219
0 0.952449 0.0963453 4.02413
0 0.952468 0.0955728 7.72639
0 0.952476 0.0960932 7.75025
0 0.95248 0.0972071 7.55645
0 0.952449 0.0991584 6.12888
0 0.952446 0.0965664 8.7709
0 0.952469 0.0991052 6.34275
0 0.95247 0.0946597 7.73822
0 0.952476 0.0933777 7.02225
0 0.952467 0.119132 8.20198
0 0.952455 0.0966223 7.51336
0 0.95247 0.0960725 6.86256
0 0.952448 0.0945235 6.45482
0 0.952444 0.0944381 7.10052
0 0.95247 0.0938006 7.49683
0 0.952449 0.0948531 7.66006
0 0.95246 0.100355 6.33158
0 0.952436 0.0959223 6.81845
0 0.952475 0.0968565 8.07273
0 0.952488 0.0939753 7.48713
0 0.952487 0.117097 8.74625
0 0.95246 0.0979154 8.26222
0 0.952453 0.0948659 5.18017
0 0.952447 0.0937366 6.13789
0 0.952444 0.0981863 10.292
0 0.952459 0.0940421 6.82953
0 0.952463 0.0945919 5.13566
0 0.95246 0.095895 7.30134
0 0.952456 0.0993629 5.41777
0 0.952456 0.0959632 6.91783
0 0.952467 0.0997011 6.66586
0 0.952476 0.0951049 7.47098
0 0.952467 0.0932092 7.06134
0 0.952489 0.118018 8.60832
0 0.952435 0.0964314 6.50929
0 0.952445 0.0944188 7.85474
0 0.952437 0.0953126 7.12764
0 0.95246 0.0942632 6.36301
0 0.952441 0.0945105 7.88412
0 0.952462 0.0988213 4.45996
0 0.952489 0.100529 7.47286
0 0.952437 0.0982297 7.23391
0 0.952455 0.0962895 8.16829
0 0.95243 0.0956851 6.87729
0 0.952434 0.094956 7.85125
0 0.952457 0.0944697 7.73165
0 0.95249 0.117105 10.7166
0 0.952458 0.0949063 8.67058
0 0.952452 0.09469 6.30061
0 0.952461 0.0935385 7.43653
0 0.952456 0.0940304 6.93978
0 0.952452 0.0946099 6.82868
0 0.952447 0.0952903 5.7121
0 0.952457 0.0955416 6.3647
0 0.952469 0.0967504 5.37922
0 0.952492 0.0953309 7.82938
0 0.95247 0.0970298 5.74169
0 0.952464 0.0973141 8.93262
0 0.952451 0.0940674 7.40764
0 0.952451 0.0936434 6.57463
0 0.952454 0.118269 10.2662
0 0.952425 0.0937549 7.0603
0 0.952433 0.0944517 6.30862
0 0.952427 0.0955184 6.3293
0 0.952448 0.0958226 6.84355
0 0.952451 0.0966219 5.50981
0 0.952451 0.0969022 8.13188
0 0.952417 0.0953092 6.11293
0 0.952414 0.0934201 6.75848
0 0.952428 0.117151 9.5453
0 0.952446 0.0946743 6.74787
0 0.952449 0.0949305 6.9803
0 0.952439 0.0943059 7.23172
0 0.952443 0.0941094 6.04259
0 0.952449 0.0947889 5.68041
0 0.952454 0.0954111 6.68508
0 0.952475 0.0946466 6.3451
0 0.952461 0.0969766 9.35225
0 0.952463 0.102032 5.24847
0 0.952431 0.0936439 6.42245
0 0.952433 0.0936616 6.78193
0 0.95244 0.117625 11.2228
0 0.952437 0.095552 7.8082
0 0.952428 0.0942734 6.51309
0 0.952452 0.095384 6.85494
0 0.952436 0.0954711 7.98585
0 0.952435 0.10111 5.26879
0 0.95241 0.0947807 7.26403
0 0.952407 0.0947846 7.41006
0 0.952407 0.119138 15.832
0 0.952442 0.0946832 6.66986
0 0.952435 0.0946952 7.52429
0 0.952444 0.095266 8.33064
0 0.952451 0.0942101 6.20322
0 0.952443 0.0989095 7.76895
0 0.952443 0.0969263 7.27631
0 0.952472 0.0948625 5.83519
0 0.952459 0.100284 5.24278
0 0.952442 0.0936208 7.48042
0 0.95243 0.0934682 6.95776
0 0.952395 0.0931981 6.71202
0 0.952395 0.116166 16.0905
0 0.952448 0.0967863 6.6176
0 0.952442 0.098109 5.4639
0 0.952457 0.0939344 6.80096
0 0.952428 0.0946738 7.18446
0 0.952408 0.0945144 7.43425
0 0.952405 0.11683 14.4586
0 0.952445 0.0934682 7.58086
0 0.952452 0.0942746 7.36949
0 0.952442 0.0947926 6.26577
0 0.952444 0.0948938 7.07399
0 0.952461 0.0955283 6.45533
0 0.952455 0.0938436 7.7143
0 0.952449 0.092845 6.6008
0 0.95242 0.0927975 6.96904
0 0.95237 0.117814 12.0881
0 0.952456 0.0949332 6.25124
0 0.952451 0.0977855 8.08295
0 0.952443 0.0976278 8.10961
0 0.95243 0.0936697 7.42133
0 0.952417 0.116987 10.4552
0 0.952453 0.0953242 8.47885
0 0.952455 0.0940876 7.6836
0 0.952453 0.0932226 7.83167
0 0.952446 0.0948774 8.11517
0 0.952449 0.0936051 7.17376
0 0.952455 0.0938923 7.44981
0 0.952439 0.11931 8.77641
0 0.952451 0.0963584 7.64915
0 0.952446 0.0949818 7.30394
0 0.952454 0.0949303 7.72514
0 0.952444 0.117746 10.1234
0 0.952452 0.096065 8.13242
0 0.952441 0.0942892 8.38941
0 0.952456 0.0955065 8.09051
0 0.952445 0.0946773 7.56711
0 0.952435 0.093453 6.6162
0 0.952446 0.0942763 6.30002
0 0.952457 0.115566 12.4451
0 0.952454 0.0939295 7.22528
0 0.952473 0.0938237 7.32455
0 0.952475 0.118044 10.6538
0 0.952444 0.0949297 8.09518
0 0.952421 0.0960166 5.9221
0 0.952426 0.0944343 7.62308
0 0.952411 0.095402 7.74082
0 0.952429 0.116367 9.62586
0 0.952466 0.0930856 7.0714
0 0.952483 0.115926 8.02675
0 0.952442 0.0942633 7.68312
0 0.952398 0.0934639 7.78814
0 0.952381 0.116218 13.1832
0 0.952469 0.116823 13.0693
0 0.952423 0.116712 15.5021
VECTORS fa_u float
0.00709479 0.00283426 -0
0.00680192 0.00390701 -0
0.00303127 0.000825022 -0
0.00701464 0.00108764 -0
1e-08 0 0
0.00516597 0.00398567 -0
0.0025333 0.0024522 -0
1e-08 0 0
1e-08 0 0
0.00460749 0.00562716 -0
0.00524798 0.00882635 -0
0.00673525 0.000140142 -0
0.00610274 -0.000658142 0
1e-08 0 0
1e-08 0 0
1e-08 0 0
1e-08 0 0
1e-08 0 0
1e-08 0 0
1e-08 0 0
1e-08 0 0
0.00288795 0.00712186 -0
0.00162295 0.00636109 -0
1e-08 0 0
1e-08 0 0
1e-08 0 0
0.00903053 -0.00227894 0
1e-08 0 0
0.010941 -0.00479166 0
1e-08 0 0
1e-08 0 0
1e-08 0 0
0.000854005 0.00731009 -0
1e-08 0 0
1e-08 0 0
1e-08 0 0
1e-08 0 0
1e-08 0 0
1e-08 0 0
1e-08 0 0
1e-08 0 0
1e-08 0 0
1e-08 0 0
-0.000177421 0.00773646 -0
1e-08 0 0
1e-08 0 0
1e-08 0 0
0.00551459 -0.00350088 0
1e-08 0 0
0.00285011 -0.00229691 0
1e-08 0 0
1e-08 0 0
1e-08 0 0
1e-08 0 0
1e-08 0 0
1e-08 0 0
1e-08 0 0
1e-08 0 0
1e-08 0 0
1e-08 0 0
1e-08 0 0
1e-08 0 0
1e-08 0 0
-0.000593684 0.0040712 0
1e-08 0 0
1e-08 0 0
1e-08 0 0
1e-08 0 0
1e-08 0 0
0.00319308 -0.00316289 0
1e-08 0 0
0.00278286 -0.00341507 0
1e-08 0 0
1e-08 0 0
1e-08 0 0
1e-08 0 0
1e-08 0 0
1e-08 0 0
1e-08 0 0
1e-08 0 0
1e-08 0 0
1e-08 0 0
1e-08 0 0
1e-08 0 0
1e-08 0 0
-0.00137325 0.00527519 0
1e-08 0 0
1e-08 0 0
1e-08 0 0
1e-08 0 0
1e-08 0 0
1e-08 0 0
0.00569672 -0.00935351 0
1e-08 0 0
1e-08 0 0
1e-08 0 0
1e-08 0 0
1e-08 0 0
0.00361164 -0.00892934 0
1e-08 0 0
1e-08 0 0
1e-08 0 0
1e-08 0 0
1e-08 0 0
1e-08 0 0
1e-08 0 0
1e-08 0 0
1e-08 0 0
1e-08 0 0
-0.00285634 0.00708021 0
1e-08 0 0
1e-08 0 0
1e-08 0 0
1e-08 0 0
1e-08 0 0
1e-08 0 0
1e-08 0 0
1e-08 0 0
1e-08 0 0
1e-08 0 0
1e-08 0 0
1e-08 0 0
1e-08 0 0
1e-08 0 0
0.0013797 -0.00550456 0
1e-08 0 0
1e-08 0 0
1e-08 0 0
1e-08 0 0
1e-08 0 0
1e-08 0 0
1e-08 0 0
1e-08 0 0
1e-08 0 0
-0.00375228 0.00650867 0
1e-08 0 0
1e-08 0 0
1e-08 0 0
1e-08 0 0
1e-08 0 0
1e-08 0 0
1e-08 0 0
1e-08 0 0
1e-08 0 0
1e-08 0 0
1e-08 0 0
1e-08 0 0
1e-08 0 0
1e-08 0 0
1e-08 0 0
0.000516217 -0.00377022 0
1e-08 0 0
1e-08 0 0
1e-08 0 0
1e-08 0 0
1e-08 0 0
1e-08 0 0
1e-08 0 0
1e-08 0 0
1e-08 0 0
1e-08 0 0
-0.00466163 0.00598091 0
1e-08 0 0
1e-08 0 0
1e-08 0 0
1e-08 0 0
1e-08 0 0
1e-08 0 0
1e-08 0 0
1e-08 0 0
1e-08 0 0
1e-08 0 0
1e-08 0 0
1e-08 0 0
0.000119178 -0.00787834 0
1e-08 0 0
1e-08 0 0
1e-08 0 0
1e-08 0 0
1e-08 0 0
1e-08 0 0
1e-08 0 0
1e-08 0 0
1e-08 0 0
1e-08 0 0
1e-08 0 0
1e-08 0 0
-0.00226821 0.00230613 0
1e-08 0 0
1e-08 0 0
1e-08 0 0
1e-08 0 0
1e-08 0 0
1e-08 0 0
1e-08 0 0
1e-08 0 0
1e-08 0 0
1e-08 0 0
1e-08 0 0
1e-08 0 0
1e-08 0 0
-0.000860739 -0.00695318 0
1e-08 0 0
1e-08 0 0
1e-08 0 0
1e-08 0 0
1e-08 0 0
1e-08 0 0
1e-08 0 0
1e-08 0 0
-0.00480365 0.00392739 0
1e-08 0 0
1e-08 0 0
1e-08 0 0
1e-08 0 0
1e-08 0 0
1e-08 0 0
1e-08 0 0
1e-08 0 0
1e-08 0 0
1e-08 0 0
1e-08 0 0
-0.00162759 -0.00624739 0
1e-08 0 0
1e-08 0 0
1e-08 0 0
1e-08 0 0
1e-08 0 0
1e-08 0 0
1e-08 0 0
-0.00870669 0.00523516 0
1e-08 0 0
1e-08 0 0
1e-08 0 0
1e-08 0 0
1e-08 0 0
1e-08 0 0
1e-08 0 0
1e-08 0 0
1e-08 0 0
1e-08 0 0
1e-08 0 0
-0.00294465 -0.00716596 0
1e-08 0 0
1e-08 0 0
1e-08 0 0
1e-08 0 0
1e-08 0 0
-0.0074848 0.00306511 0
1e-08 0 0
1e-08 0 0
1e-08 0 0
1e-08 0 0
1e-08 0 0
1e-08 0 0
1e-08 0 0
1e-08 0 0
-0.00509822 -0.00850648 0
1e-08 0 0
1e-08 0 0
1e-08 0 0
1e-08 0 0
-0.00630361 0.00162187 0
1e-08 0 0
1e-08 0 0
1e-08 0 0
1e-08 0 0
1e-08 0 0
1e-08 0 0
-0.00360825 -0.00445682 0
1e-08 0 0
1e-08 0 0
1e-08 0 0
-0.00712577 0.000853596 0
1e-08 0 0
1e-08 0 0
1e-08 0 0
1e-08 0 0
1e-08 0 0
1e-08 0 0
-0.00257729 -0.00255823 0
1e-08 0 0
1e-08 0 0
-0.00842855 -0.000185379 0
1e-08 0 0
1e-08 0 0
1e-08 0 0
1e-08 0 0
-0.00607749 -0.00474969 0
1e-08 0 0
-0.00351236 -0.000507895 0
1e-08 0 0
1e-08 0 0
-0.00663519 -0.00382548 0
-0.00557597 -0.00143232 0
-0.0071783 -0.00288713 0
