# vtk DataFile Version 2.0
CellBP Time: 4.12
ASCII
DATASET UNSTRUCTURED_GRID
POINTS 296 double
-9.03626 -3.70569 0
-8.47145 -4.86608 0
-9.43842 -2.47772 0
-9.70614 -1.22883 0
-8.19516 -2.74711 0
-7.75064 -5.93961 0
-6.8967 -6.91033 0
-7.75396 -3.78533 0
-7.18844 -4.76598 0
-5.95046 -7.77663 0
-4.89901 -8.50599 0
-9.80596 0.0418697 0
-9.73833 1.32886 0
-8.50864 -1.64244 0
-8.65196 -0.513529 0
-7.43377 -1.94779 0
-7.0647 -2.82747 0
-6.51611 -5.67997 0
-5.72918 -6.50294 0
-6.63544 -3.79552 0
-6.08754 -4.58111 0
-3.74018 -9.07531 0
-2.50782 -9.48337 0
-4.84436 -7.21471 0
-3.87574 -7.79861 0
-8.66786 0.632822 0
-9.50591 2.6089 0
-8.51168 1.74417 0
-9.09139 3.83358 0
-7.60189 -0.899629 0
-7.66324 0.0859087 0
-6.81508 -1.27635 0
-1.23167 -9.72788 0
-6.31465 -2.09896 0
-6.18846 -2.98403 0
-5.43196 -5.38427 0
-4.71694 -6.02585 0
-5.54524 -3.68137 0
-5.16127 -4.47608 0
-2.83682 -8.26634 0
-1.7597 -8.52877 0
-3.87736 -6.63968 0
-3.02807 -7.07073 0
0.0534588 -9.79729 0
-7.58546 1.12573 0
-8.24449 2.88357 0
-7.43963 2.07273 0
-8.49071 4.97395 0
-7.77128 3.91606 0
-7.74484 6.02985 0
-6.65526 -0.379538 0
-6.83436 0.548431 0
-5.67457 -0.984436 0
-0.584712 -8.68929 0
0.551709 -8.6322 0
-5.21096 -2.43174 0
-4.40385 -5.0105 0
-3.83749 -5.6937 0
-4.36335 -3.74468 0
-2.03919 -7.47174 0
-1.12254 -7.68339 0
-2.95262 -6.02111 0
-2.28452 -6.53983 0
1.32766 -9.69158 0
-6.58377 1.39622 0
-7.05654 3.06107 0
-6.55629 2.32991 0
-7.18111 4.90083 0
-6.61156 3.93126 0
-6.89512 6.99086 0
-6.46687 5.79138 0
-5.93582 7.84943 0
-4.40158 -1.16795 0
-5.73137 0.500433 0
-4.60473 -0.0197467 0
-0.00385493 -7.72715 0
1.69818 -8.48784 0
0.91847 -7.62885 0
-3.99046 -2.37397 0
-3.46648 -1.3845 0
-3.24904 -4.73945 0
-3.2359 -3.22932 0
-1.36944 -6.58395 0
-0.516992 -6.91752 0
-1.95747 -5.46981 0
2.58951 -9.4409 0
-5.42895 2.00827 0
-5.99948 3.01695 0
-6.00666 4.77886 0
-5.66904 3.91588 0
-5.66172 6.59859 0
-5.36153 5.5141 0
-4.88545 8.59276 0
-4.75325 7.2667 0
-3.4763 -0.42146 0
-4.39592 1.23303 0
-3.67611 0.586827 0
-4.01083 2.30287 0
-3.73391 9.1651 0
2.79497 -8.16138 0
0.390854 -6.67691 0
1.96679 -7.37474 0
1.25924 -6.77166 0
-2.43312 -0.866708 0
-2.82296 -2.11587 0
-2.2759 -4.05315 0
-2.31063 -2.94619 0
-0.450808 -5.77219 0
-1.21055 -4.45298 0
3.81137 -9.03748 0
-4.72163 3.33993 0
-5.0059 4.50645 0
-4.56587 6.1584 0
-4.46352 5.25788 0
-3.78579 7.86508 0
-3.75658 6.70852 0
-2.73783 8.27841 0
-1.64136 -0.131152 0
-1.44177 -0.883288 0
-2.47718 0.513272 0
-3.22285 1.43889 0
-3.20006 3.27987 0
-2.88261 2.3647 0
-1.35191 0.634296 0
-2.50594 9.56372 0
3.84729 -7.72456 0
2.88364 -6.99432 0
0.920018 -5.71641 0
2.01058 -6.27979 0
-1.6728 -1.98254 0
-1.42178 -3.25071 0
0.0828389 -4.68406 0
-0.556026 -3.66295 0
4.83199 -7.16568 0
4.96609 -8.4724 0
-3.72099 4.47907 0
-3.67306 5.64707 0
-2.83196 7.15226 0
-2.95824 6.23814 0
-1.63963 8.59647 0
-1.9011 7.49102 0
-2.31314 4.0043 0
-0.72558 -1.32099 0
-0.832915 -0.251586 0
-1.93182 1.68719 0
-2.11012 2.86177 0
-1.30213 3.52005 0
-0.871748 1.35892 0
-0.282863 0.463365 0
-0.527974 8.74523 0
-1.23664 9.80701 0
1.08663 -4.50217 0
3.80971 -6.54883 0
2.91087 -5.95616 0
2.06512 -5.31725 0
4.68627 -6.05998 0
-0.551954 -2.46395 0
0.490616 -3.42989 0
0.0548236 -1.60592 0
1.456 -3.63024 0
5.76095 -6.48021 0
6.03833 -7.75297 0
-2.43855 5.26552 0
-2.08773 6.4219 0
-0.885195 7.68892 0
-1.24025 6.81961 0
0.0909153 7.77593 0
-1.13154 4.44513 0
0.150741 -0.612484 0
-0.802398 2.49333 0
-0.340252 3.58391 0
0.057738 1.51587 0
0.736365 0.47649 0
0.640842 8.76524 0
0.0452533 9.90816 0
2.3363 -4.20518 0
3.77551 -5.50775 0
2.93486 -5.10125 0
5.48129 -5.37726 0
4.60115 -5.15636 0
0.631529 -2.28856 0
1.24473 -2.92259 0
0.757452 -1.38826 0
2.13471 -3.09393 0
2.95161 -3.41859 0
6.06398 -4.70301 0
6.55431 -5.66697 0
7.00436 -6.89326 0
-0.999102 5.73798 0
-0.355201 6.78181 0
1.11099 7.67421 0
0.560273 6.98555 0
-0.00120957 4.67968 0
0.594821 3.79922 0
1.33336 -0.641226 0
0.529071 2.64252 0
0.95622 1.57382 0
1.90115 0.212087 0
1.60262 1.0646 0
2.11154 7.49766 0
1.78141 8.6087 0
1.33616 9.83148 0
3.75672 -4.26098 0
5.03347 -4.34732 0
5.7634 -3.85854 0
3.73347 -3.14773 0
1.80238 -1.8792 0
2.98441 -2.54407 0
6.70123 -3.88619 0
7.28548 -4.82551 0
7.86821 -5.94152 0
0.484731 5.80836 0
1.41832 6.6622 0
2.3529 6.5955 0
1.19522 4.51386 0
1.47315 3.37328 0
2.41958 -0.688556 0
2.80893 0.143217 0
1.77481 2.15444 0
2.59681 1.14373 0
3.04368 7.09092 0
2.87506 8.2822 0
2.61007 9.58317 0
4.84235 -3.26144 0
6.04302 -3.05361 0
4.12677 -2.24724 0
3.21562 -1.49174 0
6.6594 -2.28739 0
7.15523 -3.00847 0
7.8744 -3.87183 0
8.60112 -4.89203 0
2.00629 5.53935 0
3.04223 6.07927 0
2.34746 4.08623 0
2.40018 3.03658 0
3.49567 -0.457347 0
3.58745 0.614884 0
2.93667 2.27094 0
3.51152 1.51403 0
3.94476 5.82259 0
3.9321 6.71014 0
3.93742 7.84958 0
3.84007 9.17217 0
5.50803 -1.89238 0
4.46604 -1.11781 0
6.63686 -1.31977 0
7.5078 -2.00926 0
8.3017 -2.83146 0
9.17362 -3.73652 0
3.36412 4.81396 0
3.29559 3.34728 0
4.64454 0.133564 0
4.45925 1.29192 0
4.00357 2.41024 0
4.47901 5.07405 0
4.76522 6.10675 0
4.91401 7.28965 0
4.996 8.60025 0
5.81136 -0.434171 0
6.91556 -0.487612 0
7.66801 -1.06731 0
8.583 -1.72749 0
9.58296 -2.50493 0
4.46855 3.76846 0
5.72628 1.07028 0
5.26976 2.48741 0
5.2642 4.53937 0
5.5055 5.43622 0
5.80343 6.57395 0
6.04556 7.86887 0
6.73909 0.442619 0
7.74199 -0.0275613 0
8.75219 -0.573 0
9.82888 -1.2293 0
6.83993 1.31021 0
5.59901 3.7046 0
6.41656 2.14173 0
6.24551 3.01888 0
6.15802 4.59785 0
6.57001 5.73854 0
7.00083 7.00931 0
7.66429 0.943018 0
8.73452 0.562707 0
9.90181 0.0591026 0
7.47779 1.95696 0
6.67021 3.81443 0
7.11809 2.87716 0
7.23857 4.79512 0
7.86171 6.04536 0
8.57605 1.69473 0
9.79364 1.33291 0
8.25919 2.77742 0
7.8329 3.84007 0
8.58071 4.97399 0
9.54798 2.59655 0
9.14564 3.81891 0
CELLS 542 2168
3 2 0 4
3 0 1 7
3 4 0 7
3 1 5 8
3 7 1 8
3 3 2 13
3 13 2 4
3 11 3 14
3 14 3 13
3 13 4 15
3 4 7 16
3 15 4 16
3 5 6 17
3 8 5 17
3 6 9 18
3 17 6 18
3 7 8 19
3 16 7 19
3 8 17 20
3 19 8 20
3 9 10 23
3 18 9 23
3 10 21 24
3 23 10 24
3 12 11 25
3 25 11 14
3 26 12 27
3 27 12 25
3 14 13 29
3 29 13 15
3 25 14 30
3 30 14 29
3 29 15 31
3 15 16 33
3 31 15 33
3 16 19 34
3 33 16 34
3 17 18 35
3 20 17 35
3 18 23 36
3 35 18 36
3 19 20 37
3 34 19 37
3 20 35 38
3 37 20 38
3 21 22 39
3 24 21 39
3 22 32 40
3 39 22 40
3 23 24 41
3 36 23 41
3 24 39 42
3 41 24 42
3 27 25 44
3 44 25 30
3 28 26 45
3 45 26 27
3 45 27 46
3 46 27 44
3 47 28 48
3 48 28 45
3 30 29 50
3 50 29 31
3 44 30 51
3 51 30 50
3 50 31 52
3 31 33 52
3 32 43 53
3 40 32 53
3 53 43 54
3 33 34 55
3 34 37 55
3 33 55 52
3 35 36 56
3 38 35 56
3 36 41 57
3 56 36 57
3 37 38 58
3 38 56 58
3 37 58 55
3 39 40 59
3 42 39 59
3 40 53 60
3 59 40 60
3 41 42 61
3 57 41 61
3 42 59 62
3 61 42 62
3 43 63 54
3 46 44 64
3 64 44 51
3 48 45 65
3 65 45 46
3 65 46 66
3 66 46 64
3 49 47 67
3 67 47 48
3 67 48 68
3 68 48 65
3 69 49 70
3 70 49 67
3 52 55 72
3 64 51 73
3 51 50 73
3 50 52 73
3 73 52 74
3 74 52 72
3 53 54 75
3 60 53 75
3 54 63 76
3 54 76 77
3 75 54 77
3 55 58 78
3 72 55 78
3 72 78 79
3 56 57 80
3 57 61 80
3 56 80 58
3 58 80 81
3 78 58 81
3 59 60 82
3 62 59 82
3 60 75 83
3 82 60 83
3 61 62 84
3 62 82 84
3 61 84 80
3 63 85 76
3 66 64 86
3 64 73 86
3 68 65 87
3 87 65 66
3 87 66 86
3 70 67 88
3 88 67 68
3 88 68 89
3 89 68 87
3 71 69 90
3 90 69 70
3 90 70 91
3 91 70 88
3 92 71 93
3 93 71 90
3 74 72 94
3 94 72 79
3 86 73 95
3 95 73 74
3 95 74 96
3 96 74 94
3 97 86 95
3 76 85 99
3 75 77 100
3 83 75 100
3 76 99 101
3 77 76 101
3 77 101 102
3 100 77 102
3 94 79 103
3 78 81 104
3 79 78 104
3 79 104 103
3 80 84 105
3 81 80 105
3 81 105 106
3 104 81 106
3 82 83 107
3 83 100 107
3 82 107 84
3 84 107 108
3 105 84 108
3 85 109 99
3 89 87 110
3 87 86 110
3 110 86 97
3 91 88 111
3 111 88 89
3 111 89 110
3 93 90 112
3 112 90 91
3 112 91 113
3 113 91 111
3 98 92 114
3 114 92 93
3 114 93 115
3 115 93 112
3 116 98 114
3 117 103 118
3 96 94 119
3 94 103 119
3 119 103 117
3 97 95 120
3 120 95 96
3 120 96 119
3 121 110 97
3 121 97 122
3 122 97 120
3 123 119 117
3 124 98 116
3 99 109 125
3 99 125 126
3 101 99 126
3 100 102 127
3 100 127 107
3 101 126 128
3 102 101 128
3 102 128 127
3 104 106 129
3 104 129 103
3 103 129 118
3 105 108 130
3 106 105 130
3 106 130 129
3 107 127 131
3 108 107 131
3 108 131 132
3 108 132 130
3 109 134 125
3 125 134 133
3 113 111 135
3 111 110 135
3 135 110 121
3 115 112 136
3 136 112 113
3 136 113 135
3 116 114 137
3 137 114 115
3 137 115 138
3 138 115 136
3 139 124 116
3 139 116 140
3 140 116 137
3 141 135 121
3 118 129 142
3 118 142 143
3 117 118 143
3 123 117 143
3 122 120 144
3 120 119 144
3 144 119 123
3 141 121 145
3 145 121 122
3 145 122 144
3 146 141 145
3 147 144 123
3 147 123 148
3 143 148 123
3 150 124 139
3 149 150 139
3 131 127 151
3 125 133 152
3 126 125 152
3 126 152 153
3 128 126 153
3 128 153 154
3 128 154 127
3 127 154 151
3 152 133 155
3 130 132 156
3 130 156 129
3 129 156 142
3 131 151 157
3 132 131 157
3 132 157 156
3 156 158 142
3 157 151 159
3 133 160 155
3 134 161 133
3 133 161 160
3 138 136 162
3 136 135 162
3 162 135 141
3 140 137 163
3 163 137 138
3 163 138 162
3 149 139 164
3 164 139 140
3 164 140 165
3 165 140 163
3 166 149 164
3 167 162 141
3 167 141 146
3 142 158 168
3 143 142 168
3 143 168 148
3 146 145 169
3 145 144 169
3 169 144 147
3 170 167 146
3 170 146 169
3 171 169 147
3 171 147 148
3 171 148 172
3 168 172 148
3 173 149 166
3 174 150 149
3 173 174 149
3 154 175 151
3 151 175 159
3 152 155 176
3 153 152 176
3 153 176 177
3 153 177 154
3 154 177 175
3 155 160 178
3 155 178 179
3 176 155 179
3 156 157 180
3 156 180 158
3 157 159 181
3 157 181 180
3 158 180 182
3 158 182 168
3 159 175 183
3 159 183 181
3 175 184 183
3 160 186 178
3 178 186 185
3 161 187 160
3 160 187 186
3 165 163 188
3 163 162 188
3 188 162 167
3 166 164 189
3 189 164 165
3 189 165 188
3 190 173 166
3 190 166 191
3 191 166 189
3 192 188 167
3 192 167 170
3 193 192 170
3 182 194 168
3 194 172 168
3 193 170 195
3 170 169 195
3 195 169 171
3 196 195 171
3 196 171 172
3 194 197 172
3 197 198 172
3 198 196 172
3 200 173 190
3 199 200 190
3 201 174 173
3 200 201 173
3 176 179 202
3 177 176 202
3 177 202 175
3 175 202 184
3 178 185 203
3 178 203 179
3 179 203 202
3 203 185 204
3 202 205 184
3 183 206 181
3 180 181 206
3 180 206 182
3 182 206 194
3 183 184 207
3 205 207 184
3 183 207 206
3 185 208 204
3 186 209 185
3 185 209 208
3 187 210 186
3 186 210 209
3 191 189 211
3 189 188 211
3 211 188 192
3 199 190 212
3 212 190 191
3 212 191 211
3 213 199 212
3 214 211 192
3 214 192 193
3 215 214 193
3 215 193 195
3 206 216 194
3 216 197 194
3 216 217 197
3 215 195 218
3 218 195 196
3 198 218 196
3 217 219 197
3 219 218 198
3 197 219 198
3 220 199 213
3 221 200 199
3 220 221 199
3 222 201 200
3 221 222 200
3 203 204 223
3 203 223 202
3 202 223 205
3 204 208 224
3 204 224 223
3 205 223 225
3 205 225 207
3 207 225 226
3 207 226 206
3 226 216 206
3 208 228 224
3 224 228 227
3 209 229 208
3 229 228 208
3 210 230 209
3 209 230 229
3 213 212 231
3 212 211 231
3 231 211 214
3 232 220 213
3 232 213 231
3 233 231 214
3 233 214 215
3 234 233 215
3 234 215 218
3 226 235 216
3 235 217 216
3 235 236 217
3 217 236 219
3 237 234 218
3 237 218 219
3 236 238 219
3 238 237 219
3 240 220 232
3 239 240 232
3 241 221 220
3 240 241 220
3 242 222 221
3 241 242 221
3 224 227 243
3 224 243 223
3 223 243 225
3 225 243 244
3 225 244 226
3 226 244 235
3 227 245 243
3 228 246 227
3 227 246 245
3 229 247 228
3 228 247 246
3 230 248 229
3 229 248 247
3 239 232 249
3 232 231 249
3 249 231 233
3 250 249 233
3 250 233 234
3 237 250 234
3 244 251 235
3 235 251 236
3 251 252 236
3 236 252 238
3 252 253 238
3 253 250 237
3 253 237 238
3 254 239 249
3 255 240 239
3 254 255 239
3 256 241 240
3 255 256 240
3 257 242 241
3 256 257 241
3 245 258 243
3 243 258 244
3 244 258 251
3 245 259 258
3 246 260 245
3 245 260 259
3 247 261 246
3 246 261 260
3 248 262 247
3 247 262 261
3 254 249 263
3 263 249 250
3 253 263 250
3 258 264 251
3 251 264 252
3 264 265 252
3 265 263 253
3 252 265 253
3 266 254 263
3 267 255 254
3 266 267 254
3 268 256 255
3 267 268 255
3 269 257 256
3 268 269 256
3 259 270 258
3 270 264 258
3 260 271 259
3 259 271 270
3 261 272 260
3 260 272 271
3 262 273 261
3 273 272 261
3 270 274 264
3 275 266 263
3 275 263 265
3 274 276 264
3 276 265 264
3 276 277 265
3 277 275 265
3 278 267 266
3 275 278 266
3 279 268 267
3 278 279 267
3 280 269 268
3 279 280 268
3 271 281 270
3 270 281 274
3 272 282 271
3 271 282 281
3 273 283 272
3 272 283 282
3 281 284 274
3 274 284 276
3 285 278 275
3 277 285 275
3 284 286 276
3 286 285 277
3 276 286 277
3 287 279 278
3 285 287 278
3 288 280 279
3 287 288 279
3 282 289 281
3 281 289 284
3 283 290 282
3 282 290 289
3 289 291 284
3 284 291 286
3 291 292 286
3 292 287 285
3 286 292 285
3 293 288 287
3 292 293 287
3 290 294 289
3 289 294 291
3 294 295 291
3 295 293 292
3 291 295 292
CELL_TYPES 542
5
5
5
5
5
5
5
5
5
5
5
5
5
5
5
5
5
5
5
5
5
5
5
5
5
5
5
5
5
5
5
5
5
5
5
5
5
5
5
5
5
5
5
5
5
5
5
5
5
5
5
5
5
5
5
5
5
5
5
5
5
5
5
5
5
5
5
5
5
5
5
5
5
5
5
5
5
5
5
5
5
5
5
5
5
5
5
5
5
5
5
5
5
5
5
5
5
5
5
5
5
5
5
5
5
5
5
5
5
5
5
5
5
5
5
5
5
5
5
5
5
5
5
5
5
5
5
5
5
5
5
5
5
5
5
5
5
5
5
5
5
5
5
5
5
5
5
5
5
5
5
5
5
5
5
5
5
5
5
5
5
5
5
5
5
5
5
5
5
5
5
5
5
5
5
5
5
5
5
5
5
5
5
5
5
5
5
5
5
5
5
5
5
5
5
5
5
5
5
5
5
5
5
5
5
5
5
5
5
5
5
5
5
5
5
5
5
5
5
5
5
5
5
5
5
5
5
5
5
5
5
5
5
5
5
5
5
5
5
5
5
5
5
5
5
5
5
5
5
5
5
5
5
5
5
5
5
5
5
5
5
5
5
5
5
5
5
5
5
5
5
5
5
5
5
5
5
5
5
5
5
5
5
5
5
5
5
5
5
5
5
5
5
5
5
5
5
5
5
5
5
5
5
5
5
5
5
5
5
5
5
5
5
5
5
5
5
5
5
5
5
5
5
5
5
5
5
5
5
5
5
5
5
5
5
5
5
5
5
5
5
5
5
5
5
5
5
5
5
5
5
5
5
5
5
5
5
5
5
5
5
5
5
5
5
5
5
5
5
5
5
5
5
5
5
5
5
5
5
5
5
5
5
5
5
5
5
5
5
5
5
5
5
5
5
5
5
5
5
5
5
5
5
5
5
5
5
5
5
5
5
5
5
5
5
5
5
5
5
5
5
5
5
5
5
5
5
5
5
5
5
5
5
5
5
5
5
5
5
5
5
5
5
5
5
5
5
5
5
5
5
5
5
5
5
5
5
5
5
5
5
5
5
5
5
5
5
5
5
5
5
5
5
5
5
5
5
5
5
5
5
5
5
5
5
5
5
5
5
5
5
5
5
5
5
5
5
5
5
5
5
5
5
5
5
5
5
5
5
5
5
5
5
5
5
5
5
5
5
5
5
5
5
5
5
5
5
5
5
5
5
5
5
5
5
5
5
5
5
5
5
5
POINT_DATA 296
SCALARS concentrations float 4
LOOKUP_TABLE default
0 0.970627 0.161691 22.8483
0 0.970653 0.165967 15.776
0 0.970639 0.167494 15.3838
0 0.970656 0.166475 12.5257
0 0.970606 0.0952987 7.96317
0 0.970645 0.163595 13.0528
0 0.970639 0.162517 14.1989
0 0.970615 0.0951327 7.903
0 0.97064 0.0961649 7.59646
0 0.970631 0.1674 13.5782
0 0.970591 0.167507 15.513
0 0.970604 0.166967 17.787
0 0.9706 0.160502 25.5209
0 0.97063 0.0937877 6.80642
0 0.970616 0.0940586 7.10003
0 0.970581 0.0939028 8.43899
0 0.97058 0.0959857 7.85278
0 0.970644 0.0941976 7.9533
0 0.970645 0.0937081 7.09648
0 0.970591 0.0941896 8.7403
0 0.970618 0.0950282 6.84808
0 0.970549 0.16618 22.4871
0 0.970556 0.162677 15.8196
0 0.970625 0.0932141 6.19768
0 0.970589 0.0932707 6.55229
0 0.970584 0.0947074 6.52765
0 0.970638 0.164716 10.9966
0 0.970606 0.0951336 6.13416
0 0.970644 0.166127 16.0463
0 0.97059 0.0938837 8.16695
0 0.970587 0.0939285 7.94829
0 0.97057 0.0946675 8.02241
0 0.970708 0.160152 9.54814
0 0.970576 0.0950566 7.16169
0 0.970578 0.0943983 5.34247
0 0.970627 0.0935116 7.40039
0 0.970632 0.0929933 7.71754
0 0.970567 0.0946321 6.9762
0 0.970578 0.0939075 7.89171
0 0.970562 0.0938043 6.31517
0 0.970642 0.0938724 6.50897
0 0.970616 0.0940984 6.72103
0 0.970602 0.0945761 7.78659
0 0.970628 0.166223 18.6836
0 0.970588 0.0947136 7.53754
0 0.970637 0.0942479 6.77691
0 0.970612 0.095061 7.34818
0 0.970625 0.164177 14.144
0 0.970633 0.0941363 8.03925
0 0.970631 0.166099 21.1816
0 0.970587 0.0941628 7.98192
0 0.970596 0.0941677 8.03422
0 0.97058 0.0940029 8.86347
0 0.970678 0.0935467 6.39555
0 0.970577 0.0931879 7.00063
0 0.970568 0.0951862 8.32597
0 0.970586 0.0943817 6.8561
0 0.970597 0.093806 7.61511
0 0.970561 0.0949395 6.35962
0 0.970618 0.0954999 7.39565
0 0.970635 0.0937745 6.50068
0 0.970592 0.0951379 7.29579
0 0.970606 0.0979363 7.57164
0 0.970518 0.160855 14.8009
0 0.97061 0.0945291 7.85671
0 0.970631 0.0945935 8.30341
0 0.970623 0.0973517 8.17926
0 0.970618 0.093961 7.8455
0 0.970616 0.0946674 7.39628
0 0.97067 0.157294 8.48779
0 0.970651 0.0946683 7.50662
0 0.970586 0.161997 22.7928
0 0.970592 0.0952629 5.71967
0 0.970598 0.0952284 7.5877
0 0.970597 0.0941317 5.93196
0 0.970621 0.0933973 7.50007
0 0.970525 0.0934741 7.4209
0 0.970589 0.0942104 7.79696
0 0.970569 0.0943787 8.58837
0 0.970606 0.0980135 8.00788
0 0.970578 0.0937579 6.71604
0 0.970571 0.0947491 6.16166
0 0.970608 0.0949931 7.80604
0 0.970607 0.0938654 8.02789
0 0.970592 0.094761 6.29048
0 0.970501 0.160349 26.3971
0 0.970604 0.0947337 5.71567
0 0.970612 0.0948476 6.86558
0 0.970611 0.0947837 7.43121
0 0.970593 0.0947958 7.08597
0 0.970637 0.0958057 7.24268
0 0.970624 0.0954111 7.31498
0 0.970591 0.156777 12.7714
0 0.970603 0.0948192 6.57511
0 0.970614 0.100943 9.23582
0 0.9706 0.0941171 5.83061
0 0.970597 0.0936819 8.08617
0 0.970596 0.0934508 8.36329
0 0.97059 0.162369 21.6874
0 0.970536 0.0947989 7.65692
0 0.970604 0.0935194 7.60651
0 0.970571 0.0946301 7.64109
0 0.9706 0.0936816 7.42704
0 0.970615 0.10133 5.25314
0 0.970588 0.0961364 5.06928
0 0.970592 0.0934377 7.85401
0 0.9706 0.0945039 6.34887
0 0.970596 0.0938975 6.52777
0 0.970598 0.0942995 6.8061
0 0.970546 0.157316 22.3483
0 0.970593 0.0944514 7.67236
0 0.970583 0.0953443 7.39386
0 0.970642 0.095812 7.65361
0 0.970609 0.0994085 10.1067
0 0.970618 0.09641 7.53196
0 0.970655 0.101744 9.72767
0 0.970574 0.0963726 7.42022
0 0.970622 0.0939609 6.22138
0 0.970627 0.094799 6.04723
0 0.970604 0.0943405 7.21898
0 0.970599 0.0952908 8.19431
0 0.970589 0.0938699 8.61817
0 0.970593 0.0961446 8.34737
0 0.970624 0.0960544 8.67791
0 0.970524 0.162254 25.8869
0 0.970556 0.0948684 7.45928
0 0.970574 0.09487 7.30177
0 0.970596 0.093353 7.05691
0 0.970594 0.0937323 7.22296
0 0.970623 0.0954923 6.37428
0 0.97061 0.0945688 6.78948
0 0.970595 0.09408 6.90705
0 0.970604 0.0944817 6.60535
0 0.970544 0.0941819 7.13286
0 0.970536 0.164891 21.9742
0 0.970597 0.0946377 6.36509
0 0.970631 0.095316 7.25597
0 0.970638 0.101997 4.62016
0 0.970651 0.0964808 7.96662
0 0.970522 0.0949942 7.48889
0 0.970597 0.0958987 6.75376
0 0.970599 0.0941775 7.60458
0 0.970636 0.0951027 7.37298
0 0.970628 0.0947616 5.68954
0 0.970602 0.0959145 5.59569
0 0.970588 0.094682 5.36821
0 0.970594 0.0937852 7.39282
0 0.970635 0.0952995 5.24323
0 0.970642 0.0970813 7.42147
0 0.970542 0.0940381 6.91455
0 0.97048 0.158822 18.4512
0 0.970591 0.0949834 7.77611
0 0.970582 0.0964523 7.35741
0 0.970597 0.0939191 6.96984
0 0.970595 0.0937359 7.25777
0 0.970591 0.094901 7.4716
0 0.97062 0.0947025 7.41841
0 0.970598 0.0972829 5.99596
0 0.970626 0.09543 7.82114
0 0.970592 0.0947765 6.30593
0 0.970595 0.0937652 7.42897
0 0.97054 0.162041 19.7771
0 0.970612 0.0948132 6.60846
0 0.97063 0.0970171 7.22304
0 0.970583 0.0941295 6.71949
0 0.970613 0.0954653 5.55839
0 0.970589 0.0946936 6.9886
0 0.97061 0.0939792 7.04787
0 0.970627 0.0950243 7.94772
0 0.970613 0.0955248 5.18474
0 0.970607 0.0957673 8.00536
0 0.970648 0.0962213 5.13646
0 0.970649 0.0949223 8.46965
0 0.970608 0.0933468 7.51081
0 0.97058 0.161882 23.5875
0 0.970596 0.0947626 7.49525
0 0.970603 0.0941356 7.02575
0 0.970601 0.0942899 6.90619
0 0.970608 0.0942167 7.57182
0 0.970602 0.0950786 7.35418
0 0.970616 0.0972416 7.25529
0 0.9706 0.0964494 5.96739
0 0.970629 0.0967032 5.70362
0 0.970593 0.0941795 6.14156
0 0.970603 0.0942987 6.82032
0 0.970617 0.0935204 7.42406
0 0.970673 0.0931728 7.42912
0 0.970664 0.162977 13.5023
0 0.970613 0.094253 6.99086
0 0.970613 0.0953491 7.41598
0 0.970597 0.094633 7.62403
0 0.970617 0.0955227 6.30795
0 0.970613 0.0939731 7.16326
0 0.970613 0.0951661 7.10462
0 0.970638 0.09609 9.13965
0 0.970627 0.0948644 5.81213
0 0.970646 0.0964229 6.0189
0 0.970646 0.0981767 6.35374
0 0.970654 0.095776 5.46115
0 0.970599 0.0943474 6.41902
0 0.970622 0.0933251 6.51775
0 0.970655 0.162784 17.9845
0 0.970605 0.0938389 6.85752
0 0.970601 0.0963263 6.61216
0 0.970604 0.094082 6.89177
0 0.970608 0.0938632 7.27283
0 0.970613 0.102068 8.31909
0 0.970602 0.0950831 7.63611
0 0.970613 0.0936635 7.347
0 0.970643 0.0931716 7.35917
0 0.970706 0.161476 17.323
0 0.97062 0.0962497 6.41065
0 0.970614 0.0956043 5.88699
0 0.970608 0.0963365 6.49531
0 0.970615 0.0946141 7.03085
0 0.970615 0.0948135 6.53605
0 0.970628 0.0960753 5.70971
0 0.970623 0.0957735 7.77606
0 0.97063 0.0957036 7.54738
0 0.970631 0.0963418 8.27912
0 0.970605 0.0946418 6.78664
0 0.970641 0.093391 6.44193
0 0.970653 0.16364 15.0668
0 0.970605 0.0930516 6.94188
0 0.97062 0.0938733 6.80619
0 0.970607 0.093099 7.32463
0 0.970611 0.0952007 7.84135
0 0.97063 0.101374 9.49984
0 0.970612 0.0949287 6.75989
0 0.970562 0.0937324 7.27511
0 0.970593 0.167095 16.7433
0 0.970615 0.0952633 7.05271
0 0.970605 0.0942032 8.07283
0 0.970608 0.0949544 6.86056
0 0.970607 0.0952309 7.17402
0 0.970619 0.0952474 7.74327
0 0.970618 0.0957742 8.89314
0 0.97061 0.0959225 8.61807
0 0.970605 0.0962566 9.50712
0 0.970586 0.0943442 8.2701
0 0.97061 0.0942742 6.44361
0 0.970659 0.0941795 6.89658
0 0.970699 0.159212 18.9543
0 0.970617 0.0946438 7.21291
0 0.970615 0.0949036 8.24914
0 0.970625 0.094754 7.36949
0 0.970628 0.0951552 6.81341
0 0.970564 0.094001 7.01719
0 0.970505 0.16239 21.5131
0 0.970594 0.0952741 7.06363
0 0.970596 0.0959519 6.67521
0 0.970623 0.0949519 7.11256
0 0.97061 0.095389 8.29953
0 0.9706 0.0961496 6.97333
0 0.970571 0.0954026 7.03357
0 0.970594 0.0943029 8.22115
0 0.970687 0.0938124 6.48853
0 0.97071 0.160627 11.334
0 0.970615 0.0942631 7.13268
0 0.970613 0.0949206 7.70215
0 0.970646 0.0937951 6.82756
0 0.97063 0.0939123 7.33128
0 0.970571 0.165758 15.4907
0 0.970588 0.0965037 8.98286
0 0.97061 0.094518 7.36577
0 0.970598 0.0968529 9.42067
0 0.970568 0.0958443 6.80594
0 0.97057 0.0954221 8.12624
0 0.970686 0.0942196 8.28368
0 0.970776 0.160248 8.18006
0 0.970609 0.0943947 7.73063
0 0.970631 0.0942876 7.10499
0 0.970687 0.0937909 7.16196
0 0.970662 0.164539 11.8247
0 0.970618 0.0944496 8.31867
0 0.970592 0.0968526 9.00544
0 0.970595 0.0947586 8.35661
0 0.970583 0.0975235 8.29834
0 0.97059 0.0959315 6.41677
0 0.97066 0.0947023 8.84378
0 0.970741 0.159213 21.5074
0 0.970628 0.0946308 7.85334
0 0.970704 0.093971 7.90493
0 0.970756 0.16359 10.7883
0 0.970632 0.0950991 7.58927
0 0.970587 0.0981729 9.0618
0 0.970606 0.0962284 6.62978
0 0.97063 0.0975454 10.1361
0 0.970697 0.157336 10.5087
0 0.970704 0.094121 6.705
0 0.970753 0.160501 18.0871
0 0.970751 0.0952999 6.09916
0 0.970665 0.0965621 7.79971
0 0.970654 0.15902 15.9681
0 0.970801 0.16121 6.55125
0 0.970801 0.160938 14.4023
VECTORS fa_u float
0.00666093 0.00269681 -0
0.00639135 0.00367822 -0
0.00415781 0.0011245 -0
0.00681055 0.000993489 -0
1e-08 0 0
0.00517443 0.00398602 -0
0.00322558 0.00316091 -0
1e-08 0 0
1e-08 0 0
0.00441223 0.00552387 -0
0.00440247 0.00749276 -0
0.0066602 8.38297e-05 -0
0.00617645 -0.000721959 0
1e-08 0 0
1e-08 0 0
1e-08 0 0
1e-08 0 0
1e-08 0 0
1e-08 0 0
1e-08 0 0
1e-08 0 0
0.00272756 0.00667308 -0
0.00164351 0.00631765 -0
1e-08 0 0
1e-08 0 0
1e-08 0 0
0.00800241 -0.00206694 0
1e-08 0 0
0.00888847 -0.00381538 0
1e-08 0 0
1e-08 0 0
1e-08 0 0
0.000858472 0.00700418 -0
1e-08 0 0
1e-08 0 0
1e-08 0 0
1e-08 0 0
1e-08 0 0
1e-08 0 0
1e-08 0 0
1e-08 0 0
1e-08 0 0
1e-08 0 0
-0.000102955 0.00725793 -0
1e-08 0 0
1e-08 0 0
1e-08 0 0
0.0055768 -0.00341917 0
1e-08 0 0
0.00361005 -0.00285593 0
1e-08 0 0
1e-08 0 0
1e-08 0 0
1e-08 0 0
1e-08 0 0
1e-08 0 0
1e-08 0 0
1e-08 0 0
1e-08 0 0
1e-08 0 0
1e-08 0 0
1e-08 0 0
1e-08 0 0
-0.000694999 0.0049455 0
1e-08 0 0
1e-08 0 0
1e-08 0 0
1e-08 0 0
1e-08 0 0
0.0037496 -0.00372784 0
1e-08 0 0
0.00314803 -0.00394937 0
1e-08 0 0
1e-08 0 0
1e-08 0 0
1e-08 0 0
1e-08 0 0
1e-08 0 0
1e-08 0 0
1e-08 0 0
1e-08 0 0
1e-08 0 0
1e-08 0 0
1e-08 0 0
1e-08 0 0
-0.00148742 0.00564797 0
1e-08 0 0
1e-08 0 0
1e-08 0 0
1e-08 0 0
1e-08 0 0
1e-08 0 0
0.00474202 -0.00793629 0
1e-08 0 0
1e-08 0 0
1e-08 0 0
1e-08 0 0
1e-08 0 0
0.0031695 -0.00776741 0
1e-08 0 0
1e-08 0 0
1e-08 0 0
1e-08 0 0
1e-08 0 0
1e-08 0 0
1e-08 0 0
1e-08 0 0
1e-08 0 0
1e-08 0 0
-0.00271141 0.00665351 0
1e-08 0 0
1e-08 0 0
1e-08 0 0
1e-08 0 0
1e-08 0 0
1e-08 0 0
1e-08 0 0
1e-08 0 0
1e-08 0 0
1e-08 0 0
1e-08 0 0
1e-08 0 0
1e-08 0 0
1e-08 0 0
0.00148925 -0.00579368 0
1e-08 0 0
1e-08 0 0
1e-08 0 0
1e-08 0 0
1e-08 0 0
1e-08 0 0
1e-08 0 0
1e-08 0 0
1e-08 0 0
-0.00356549 0.00618149 0
1e-08 0 0
1e-08 0 0
1e-08 0 0
1e-08 0 0
1e-08 0 0
1e-08 0 0
1e-08 0 0
1e-08 0 0
1e-08 0 0
1e-08 0 0
1e-08 0 0
1e-08 0 0
1e-08 0 0
1e-08 0 0
1e-08 0 0
0.000633522 -0.00469236 0
1e-08 0 0
1e-08 0 0
1e-08 0 0
1e-08 0 0
1e-08 0 0
1e-08 0 0
1e-08 0 0
1e-08 0 0
1e-08 0 0
1e-08 0 0
-0.00438292 0.00565725 0
1e-08 0 0
1e-08 0 0
1e-08 0 0
1e-08 0 0
1e-08 0 0
1e-08 0 0
1e-08 0 0
1e-08 0 0
1e-08 0 0
1e-08 0 0
1e-08 0 0
1e-08 0 0
7.00149e-05 -0.00736295 0
1e-08 0 0
1e-08 0 0
1e-08 0 0
1e-08 0 0
1e-08 0 0
1e-08 0 0
1e-08 0 0
1e-08 0 0
1e-08 0 0
1e-08 0 0
1e-08 0 0
1e-08 0 0
-0.00308954 0.00312098 0
1e-08 0 0
1e-08 0 0
1e-08 0 0
1e-08 0 0
1e-08 0 0
1e-08 0 0
1e-08 0 0
1e-08 0 0
1e-08 0 0
1e-08 0 0
1e-08 0 0
1e-08 0 0
1e-08 0 0
-0.000857145 -0.00676457 0
1e-08 0 0
1e-08 0 0
1e-08 0 0
1e-08 0 0
1e-08 0 0
1e-08 0 0
1e-08 0 0
1e-08 0 0
-0.00492977 0.00393341 0
1e-08 0 0
1e-08 0 0
1e-08 0 0
1e-08 0 0
1e-08 0 0
1e-08 0 0
1e-08 0 0
1e-08 0 0
1e-08 0 0
1e-08 0 0
1e-08 0 0
-0.00165222 -0.00627479 0
1e-08 0 0
1e-08 0 0
1e-08 0 0
1e-08 0 0
1e-08 0 0
1e-08 0 0
1e-08 0 0
-0.00746091 0.00441703 0
1e-08 0 0
1e-08 0 0
1e-08 0 0
1e-08 0 0
1e-08 0 0
1e-08 0 0
1e-08 0 0
1e-08 0 0
1e-08 0 0
1e-08 0 0
1e-08 0 0
-0.00275208 -0.00668035 0
1e-08 0 0
1e-08 0 0
1e-08 0 0
1e-08 0 0
1e-08 0 0
-0.00689065 0.00283419 0
1e-08 0 0
1e-08 0 0
1e-08 0 0
1e-08 0 0
1e-08 0 0
1e-08 0 0
1e-08 0 0
1e-08 0 0
-0.00438517 -0.00742073 0
1e-08 0 0
1e-08 0 0
1e-08 0 0
1e-08 0 0
-0.00631513 0.00165046 0
1e-08 0 0
1e-08 0 0
1e-08 0 0
1e-08 0 0
1e-08 0 0
1e-08 0 0
-0.00372124 -0.00468935 0
1e-08 0 0
1e-08 0 0
1e-08 0 0
-0.00684626 0.000851364 0
1e-08 0 0
1e-08 0 0
1e-08 0 0
1e-08 0 0
1e-08 0 0
1e-08 0 0
-0.00326526 -0.00325207 0
1e-08 0 0
1e-08 0 0
-0.00773387 -0.000106381 0
1e-08 0 0
1e-08 0 0
1e-08 0 0
1e-08 0 0
-0.00579344 -0.00449702 0
1e-08 0 0
-0.004434 -0.000618293 0
1e-08 0 0
1e-08 0 0
-0.00621301 -0.00358288 0
-0.00594485 -0.00154958 0
-0.00672148 -0.00273466 0
