# vtk DataFile Version 2.0
CellBP Time: 8
ASCII
DATASET UNSTRUCTURED_GRID
POINTS 296 double
-8.94949 -3.66537 0
-8.3915 -4.81822 0
-9.34129 -2.44352 0
-9.61632 -1.21319 0
-8.10571 -2.71065 0
-7.67464 -5.88394 0
-6.8257 -6.84782 0
-7.66533 -3.7362 0
-7.10707 -4.70995 0
-5.89955 -7.71544 0
-4.8688 -8.44655 0
-9.72414 0.0386212 0
-9.6666 1.31491 0
-8.42574 -1.61847 0
-8.57803 -0.501983 0
-7.35108 -1.91695 0
-6.97815 -2.78602 0
-6.45006 -5.62392 0
-5.67799 -6.45326 0
-6.55346 -3.74674 0
-6.01688 -4.53185 0
-3.71857 -9.0107 0
-2.4901 -9.41144 0
-4.80547 -7.15988 0
-3.85388 -7.74866 0
-8.59569 0.630896 0
-9.44639 2.59264 0
-8.44859 1.72619 0
-9.03624 3.80917 0
-7.52696 -0.885028 0
-7.59104 0.0879513 0
-6.74259 -1.2545 0
-1.21814 -9.64955 0
-6.24446 -2.06947 0
-6.11631 -2.94509 0
-5.37368 -5.33427 0
-4.67259 -5.97731 0
-5.4799 -3.63916 0
-5.10319 -4.43105 0
-2.81929 -8.20867 0
-1.74939 -8.46723 0
-3.84796 -6.59 0
-3.01247 -7.02627 0
0.055335 -9.71057 0
-7.51895 1.11843 0
-8.1913 2.86512 0
-7.37839 2.05084 0
-8.42382 4.93144 0
-7.71166 3.88094 0
-7.66811 5.97011 0
-6.58752 -0.370802 0
-6.76786 0.548875 0
-5.62253 -0.973105 0
-0.576151 -8.6179 0
0.547613 -8.55218 0
-5.16243 -2.40242 0
-4.35399 -4.9664 0
-3.80085 -5.64807 0
-4.32313 -3.70927 0
-2.02633 -7.41806 0
-1.11712 -7.62714 0
-2.92976 -5.97776 0
-2.27355 -6.49523 0
1.31243 -9.59359 0
-6.52352 1.3838 0
-6.9951 3.03133 0
-6.49932 2.30776 0
-7.11768 4.85166 0
-6.55233 3.89271 0
-6.8251 6.91826 0
-6.40914 5.73577 0
-5.87958 7.77496 0
-4.37211 -1.16013 0
-5.68434 0.49487 0
-4.57688 -0.0238423 0
-0.0094027 -7.65713 0
1.67796 -8.40299 0
0.90308 -7.55578 0
-3.96395 -2.35667 0
-3.45586 -1.3804 0
-3.22342 -4.70312 0
-3.21693 -3.20696 0
-1.36353 -6.53397 0
-0.520611 -6.85987 0
-1.94548 -5.43429 0
2.56262 -9.34569 0
-5.38568 1.99396 0
-5.94777 2.98714 0
-5.95395 4.73036 0
-5.61997 3.87545 0
-5.60813 6.53268 0
-5.31286 5.45853 0
-4.84861 8.52575 0
-4.70776 7.1934 0
-3.46364 -0.420932 0
-4.36465 1.22483 0
-3.65591 0.584162 0
-3.98228 2.29399 0
-3.70973 9.09469 0
2.75936 -8.06794 0
0.374011 -6.61206 0
1.93717 -7.29574 0
1.23358 -6.70103 0
-2.42705 -0.863715 0
-2.81449 -2.10749 0
-2.26246 -4.0259 0
-2.29954 -2.92707 0
-0.456037 -5.72409 0
-1.20287 -4.4281 0
3.77514 -8.95199 0
-4.6829 3.31173 0
-4.9616 4.46113 0
-4.52342 6.09408 0
-4.42104 5.20457 0
-3.75587 7.79701 0
-3.71719 6.63554 0
-2.71593 8.20162 0
-1.63562 -0.128828 0
-1.43739 -0.880032 0
-2.47196 0.51596 0
-3.20543 1.43646 0
-3.17677 3.25814 0
-2.86641 2.35955 0
-1.3508 0.637934 0
-2.48827 9.48172 0
3.79901 -7.63625 0
2.83822 -6.90583 0
0.901017 -5.66079 0
1.97634 -6.20873 0
-1.668 -1.97566 0
-1.4143 -3.23168 0
0.0789287 -4.65071 0
-0.550644 -3.6462 0
4.77721 -7.08327 0
4.91936 -8.39408 0
-3.68796 4.44142 0
-3.63785 5.59 0
-2.80117 7.07905 0
-2.9308 6.17669 0
-1.62251 8.51981 0
-1.88197 7.42164 0
-2.2988 3.97799 0
-0.72293 -1.31733 0
-0.830525 -0.247124 0
-1.9294 1.6905 0
-2.10222 2.85395 0
-1.29866 3.50722 0
-0.872307 1.3631 0
-0.28436 0.467305 0
-0.521012 8.67389 0
-1.22656 9.71837 0
1.07252 -4.46206 0
3.75569 -6.45658 0
2.86881 -5.88122 0
2.03561 -5.25791 0
4.63353 -5.98213 0
-0.547848 -2.45722 0
0.488737 -3.41023 0
0.0574629 -1.6042 0
1.44058 -3.5998 0
5.70106 -6.40662 0
5.98297 -7.67897 0
-2.41792 5.22061 0
-2.06487 6.36305 0
-0.874819 7.62381 0
-1.22579 6.75956 0
0.0933855 7.71398 0
-1.1259 4.41955 0
0.149612 -0.610537 0
-0.807206 2.49461 0
-0.345327 3.57495 0
0.0552801 1.52069 0
0.733423 0.477153 0
0.638025 8.70141 0
0.0423235 9.82769 0
2.31099 -4.16191 0
3.73083 -5.435 0
2.89923 -5.04048 0
5.4288 -5.31379 0
4.5511 -5.08992 0
0.633044 -2.28306 0
1.2385 -2.90417 0
0.756669 -1.38587 0
2.11861 -3.06856 0
2.9281 -3.38464 0
6.017 -4.65624 0
6.49576 -5.61371 0
6.93909 -6.82076 0
-0.987516 5.69247 0
-0.347327 6.72567 0
1.10289 7.62045 0
0.559533 6.93505 0
-0.00249604 4.65564 0
0.589176 3.78591 0
1.3289 -0.638355 0
0.521483 2.63859 0
0.948809 1.57638 0
1.89564 0.210861 0
1.59415 1.06317 0
2.10094 7.45084 0
1.77212 8.55067 0
1.32491 9.7558 0
3.71901 -4.21318 0
4.98883 -4.29221 0
5.71933 -3.81633 0
3.7044 -3.11487 0
1.79857 -1.87629 0
2.96674 -2.52828 0
6.65286 -3.8492 0
7.23418 -4.78429 0
7.8036 -5.88701 0
0.484524 5.76834 0
1.41147 6.61988 0
2.33756 6.55657 0
1.18651 4.491 0
1.46505 3.35902 0
2.40862 -0.686712 0
2.79706 0.142353 0
1.76769 2.14859 0
2.58526 1.14076 0
3.02833 7.04602 0
2.86052 8.22942 0
2.59335 9.51126 0
4.80361 -3.22749 0
6.00004 -3.02344 0
4.1018 -2.23134 0
3.20099 -1.48549 0
6.61858 -2.27262 0
7.11206 -2.99121 0
7.8236 -3.84737 0
8.53973 -4.85901 0
1.99579 5.50639 0
3.01521 6.03695 0
2.33697 4.06427 0
2.39076 3.02187 0
3.47901 -0.451797 0
3.57408 0.61579 0
2.92377 2.26115 0
3.49092 1.50716 0
3.90789 5.78065 0
3.90072 6.66439 0
3.91524 7.80016 0
3.8181 9.10591 0
5.47624 -1.87888 0
4.44194 -1.11085 0
6.59422 -1.31009 0
7.46093 -1.99535 0
8.24613 -2.8156 0
9.10899 -3.71399 0
3.33041 4.77692 0
3.27139 3.32677 0
4.61816 0.134957 0
4.42724 1.28223 0
3.97145 2.39119 0
4.42694 5.02981 0
4.72037 6.05572 0
4.87634 7.23537 0
4.96374 8.53679 0
5.77153 -0.433708 0
6.86183 -0.488468 0
7.61682 -1.06151 0
8.52398 -1.71524 0
9.5113 -2.48672 0
4.42043 3.73325 0
5.67586 1.05307 0
5.21418 2.45803 0
5.20176 4.4945 0
5.4475 5.38462 0
5.75053 6.51907 0
5.99252 7.80373 0
6.68026 0.430241 0
7.68098 -0.0296081 0
8.68699 -0.566111 0
9.75218 -1.21565 0
6.77425 1.28785 0
5.53203 3.6625 0
6.34679 2.11028 0
6.17123 2.97829 0
6.08492 4.54769 0
6.50073 5.68618 0
6.93239 6.94621 0
7.59282 0.931756 0
8.65981 0.560673 0
9.81775 0.0626695 0
7.40168 1.93031 0
6.58156 3.7631 0
7.03294 2.83918 0
7.1593 4.74286 0
7.7914 5.99211 0
8.49356 1.68031 0
9.69795 1.31938 0
8.16661 2.74651 0
7.75062 3.79974 0
8.50667 4.93033 0
9.45609 2.57213 0
9.06402 3.78546 0
CELLS 542 2168
3 2 0 4
3 0 1 7
3 4 0 7
3 1 5 8
3 7 1 8
3 3 2 13
3 13 2 4
3 11 3 14
3 14 3 13
3 13 4 15
3 4 7 16
3 15 4 16
3 5 6 17
3 8 5 17
3 6 9 18
3 17 6 18
3 7 8 19
3 16 7 19
3 8 17 20
3 19 8 20
3 9 10 23
3 18 9 23
3 10 21 24
3 23 10 24
3 12 11 25
3 25 11 14
3 26 12 27
3 27 12 25
3 14 13 29
3 29 13 15
3 25 14 30
3 30 14 29
3 29 15 31
3 15 16 33
3 31 15 33
3 16 19 34
3 33 16 34
3 17 18 35
3 20 17 35
3 18 23 36
3 35 18 36
3 19 20 37
3 34 19 37
3 20 35 38
3 37 20 38
3 21 22 39
3 24 21 39
3 22 32 40
3 39 22 40
3 23 24 41
3 36 23 41
3 24 39 42
3 41 24 42
3 27 25 44
3 44 25 30
3 28 26 45
3 45 26 27
3 45 27 46
3 46 27 44
3 47 28 48
3 48 28 45
3 30 29 50
3 50 29 31
3 44 30 51
3 51 30 50
3 50 31 52
3 31 33 52
3 32 43 53
3 40 32 53
3 53 43 54
3 33 34 55
3 34 37 55
3 33 55 52
3 35 36 56
3 38 35 56
3 36 41 57
3 56 36 57
3 37 38 58
3 38 56 58
3 37 58 55
3 39 40 59
3 42 39 59
3 40 53 60
3 59 40 60
3 41 42 61
3 57 41 61
3 42 59 62
3 61 42 62
3 43 63 54
3 46 44 64
3 64 44 51
3 48 45 65
3 65 45 46
3 65 46 66
3 66 46 64
3 49 47 67
3 67 47 48
3 67 48 68
3 68 48 65
3 69 49 70
3 70 49 67
3 52 55 72
3 64 51 73
3 51 50 73
3 50 52 73
3 73 52 74
3 74 52 72
3 53 54 75
3 60 53 75
3 54 63 76
3 54 76 77
3 75 54 77
3 55 58 78
3 72 55 78
3 72 78 79
3 56 57 80
3 57 61 80
3 56 80 58
3 58 80 81
3 78 58 81
3 59 60 82
3 62 59 82
3 60 75 83
3 82 60 83
3 61 62 84
3 62 82 84
3 61 84 80
3 63 85 76
3 66 64 86
3 64 73 86
3 68 65 87
3 87 65 66
3 87 66 86
3 70 67 88
3 88 67 68
3 88 68 89
3 89 68 87
3 71 69 90
3 90 69 70
3 90 70 91
3 91 70 88
3 92 71 93
3 93 71 90
3 74 72 94
3 94 72 79
3 86 73 95
3 95 73 74
3 95 74 96
3 96 74 94
3 97 86 95
3 76 85 99
3 75 77 100
3 83 75 100
3 76 99 101
3 77 76 101
3 77 101 102
3 100 77 102
3 94 79 103
3 78 81 104
3 79 78 104
3 79 104 103
3 80 84 105
3 81 80 105
3 81 105 106
3 104 81 106
3 82 83 107
3 83 100 107
3 82 107 84
3 84 107 108
3 105 84 108
3 85 109 99
3 89 87 110
3 87 86 110
3 110 86 97
3 91 88 111
3 111 88 89
3 111 89 110
3 93 90 112
3 112 90 91
3 112 91 113
3 113 91 111
3 98 92 114
3 114 92 93
3 114 93 115
3 115 93 112
3 116 98 114
3 117 103 118
3 96 94 119
3 94 103 119
3 119 103 117
3 97 95 120
3 120 95 96
3 120 96 119
3 121 110 97
3 121 97 122
3 122 97 120
3 123 119 117
3 124 98 116
3 99 109 125
3 99 125 126
3 101 99 126
3 100 102 127
3 100 127 107
3 101 126 128
3 102 101 128
3 102 128 127
3 104 106 129
3 104 129 103
3 103 129 118
3 105 108 130
3 106 105 130
3 106 130 129
3 107 127 131
3 108 107 131
3 108 131 132
3 108 132 130
3 109 134 125
3 125 134 133
3 113 111 135
3 111 110 135
3 135 110 121
3 115 112 136
3 136 112 113
3 136 113 135
3 116 114 137
3 137 114 115
3 137 115 138
3 138 115 136
3 139 124 116
3 139 116 140
3 140 116 137
3 141 135 121
3 118 129 142
3 118 142 143
3 117 118 143
3 123 117 143
3 122 120 144
3 120 119 144
3 144 119 123
3 141 121 145
3 145 121 122
3 145 122 144
3 146 141 145
3 147 144 123
3 147 123 148
3 143 148 123
3 150 124 139
3 149 150 139
3 131 127 151
3 125 133 152
3 126 125 152
3 126 152 153
3 128 126 153
3 128 153 154
3 128 154 127
3 127 154 151
3 152 133 155
3 130 132 156
3 130 156 129
3 129 156 142
3 131 151 157
3 132 131 157
3 132 157 156
3 156 158 142
3 157 151 159
3 133 160 155
3 134 161 133
3 133 161 160
3 138 136 162
3 136 135 162
3 162 135 141
3 140 137 163
3 163 137 138
3 163 138 162
3 149 139 164
3 164 139 140
3 164 140 165
3 165 140 163
3 166 149 164
3 167 162 141
3 167 141 146
3 142 158 168
3 143 142 168
3 143 168 148
3 146 145 169
3 145 144 169
3 169 144 147
3 170 167 146
3 170 146 169
3 171 169 147
3 171 147 148
3 171 148 172
3 168 172 148
3 173 149 166
3 174 150 149
3 173 174 149
3 154 175 151
3 151 175 159
3 152 155 176
3 153 152 176
3 153 176 177
3 153 177 154
3 154 177 175
3 155 160 178
3 155 178 179
3 176 155 179
3 156 157 180
3 156 180 158
3 157 159 181
3 157 181 180
3 158 180 182
3 158 182 168
3 159 175 183
3 159 183 181
3 175 184 183
3 160 186 178
3 178 186 185
3 161 187 160
3 160 187 186
3 165 163 188
3 163 162 188
3 188 162 167
3 166 164 189
3 189 164 165
3 189 165 188
3 190 173 166
3 190 166 191
3 191 166 189
3 192 188 167
3 192 167 170
3 193 192 170
3 182 194 168
3 194 172 168
3 193 170 195
3 170 169 195
3 195 169 171
3 196 195 171
3 196 171 172
3 194 197 172
3 197 198 172
3 198 196 172
3 200 173 190
3 199 200 190
3 201 174 173
3 200 201 173
3 176 179 202
3 177 176 202
3 177 202 175
3 175 202 184
3 178 185 203
3 178 203 179
3 179 203 202
3 203 185 204
3 202 205 184
3 183 206 181
3 180 181 206
3 180 206 182
3 182 206 194
3 183 184 207
3 205 207 184
3 183 207 206
3 185 208 204
3 186 209 185
3 185 209 208
3 187 210 186
3 186 210 209
3 191 189 211
3 189 188 211
3 211 188 192
3 199 190 212
3 212 190 191
3 212 191 211
3 213 199 212
3 214 211 192
3 214 192 193
3 215 214 193
3 215 193 195
3 206 216 194
3 216 197 194
3 216 217 197
3 215 195 218
3 218 195 196
3 198 218 196
3 217 219 197
3 219 218 198
3 197 219 198
3 220 199 213
3 221 200 199
3 220 221 199
3 222 201 200
3 221 222 200
3 203 204 223
3 203 223 202
3 202 223 205
3 204 208 224
3 204 224 223
3 205 223 225
3 205 225 207
3 207 225 226
3 207 226 206
3 226 216 206
3 208 228 224
3 224 228 227
3 209 229 208
3 229 228 208
3 210 230 209
3 209 230 229
3 213 212 231
3 212 211 231
3 231 211 214
3 232 220 213
3 232 213 231
3 233 231 214
3 233 214 215
3 234 233 215
3 234 215 218
3 226 235 216
3 235 217 216
3 235 236 217
3 217 236 219
3 237 234 218
3 237 218 219
3 236 238 219
3 238 237 219
3 240 220 232
3 239 240 232
3 241 221 220
3 240 241 220
3 242 222 221
3 241 242 221
3 224 227 243
3 224 243 223
3 223 243 225
3 225 243 244
3 225 244 226
3 226 244 235
3 227 245 243
3 228 246 227
3 227 246 245
3 229 247 228
3 228 247 246
3 230 248 229
3 229 248 247
3 239 232 249
3 232 231 249
3 249 231 233
3 250 249 233
3 250 233 234
3 237 250 234
3 244 251 235
3 235 251 236
3 251 252 236
3 236 252 238
3 252 253 238
3 253 250 237
3 253 237 238
3 254 239 249
3 255 240 239
3 254 255 239
3 256 241 240
3 255 256 240
3 257 242 241
3 256 257 241
3 245 258 243
3 243 258 244
3 244 258 251
3 245 259 258
3 246 260 245
3 245 260 259
3 247 261 246
3 246 261 260
3 248 262 247
3 247 262 261
3 254 249 263
3 263 249 250
3 253 263 250
3 258 264 251
3 251 264 252
3 264 265 252
3 265 263 253
3 252 265 253
3 266 254 263
3 267 255 254
3 266 267 254
3 268 256 255
3 267 268 255
3 269 257 256
3 268 269 256
3 259 270 258
3 270 264 258
3 260 271 259
3 259 271 270
3 261 272 260
3 260 272 271
3 262 273 261
3 273 272 261
3 270 274 264
3 275 266 263
3 275 263 265
3 274 276 264
3 276 265 264
3 276 277 265
3 277 275 265
3 278 267 266
3 275 278 266
3 279 268 267
3 278 279 267
3 280 269 268
3 279 280 268
3 271 281 270
3 270 281 274
3 272 282 271
3 271 282 281
3 273 283 272
3 272 283 282
3 281 284 274
3 274 284 276
3 285 278 275
3 277 285 275
3 284 286 276
3 286 285 277
3 276 286 277
3 287 279 278
3 285 287 278
3 288 280 279
3 287 288 279
3 282 289 281
3 281 289 284
3 283 290 282
3 282 290 289
3 289 291 284
3 284 291 286
3 291 292 286
3 292 287 285
3 286 292 285
3 293 288 287
3 292 293 287
3 290 294 289
3 289 294 291
3 294 295 291
3 295 293 292
3 291 295 292
CELL_TYPES 542
5
5
5
5
5
5
5
5
5
5
5
5
5
5
5
5
5
5
5
5
5
5
5
5
5
5
5
5
5
5
5
5
5
5
5
5
5
5
5
5
5
5
5
5
5
5
5
5
5
5
5
5
5
5
5
5
5
5
5
5
5
5
5
5
5
5
5
5
5
5
5
5
5
5
5
5
5
5
5
5
5
5
5
5
5
5
5
5
5
5
5
5
5
5
5
5
5
5
5
5
5
5
5
5
5
5
5
5
5
5
5
5
5
5
5
5
5
5
5
5
5
5
5
5
5
5
5
5
5
5
5
5
5
5
5
5
5
5
5
5
5
5
5
5
5
5
5
5
5
5
5
5
5
5
5
5
5
5
5
5
5
5
5
5
5
5
5
5
5
5
5
5
5
5
5
5
5
5
5
5
5
5
5
5
5
5
5
5
5
5
5
5
5
5
5
5
5
5
5
5
5
5
5
5
5
5
5
5
5
5
5
5
5
5
5
5
5
5
5
5
5
5
5
5
5
5
5
5
5
5
5
5
5
5
5
5
5
5
5
5
5
5
5
5
5
5
5
5
5
5
5
5
5
5
5
5
5
5
5
5
5
5
5
5
5
5
5
5
5
5
5
5
5
5
5
5
5
5
5
5
5
5
5
5
5
5
5
5
5
5
5
5
5
5
5
5
5
5
5
5
5
5
5
5
5
5
5
5
5
5
5
5
5
5
5
5
5
5
5
5
5
5
5
5
5
5
5
5
5
5
5
5
5
5
5
5
5
5
5
5
5
5
5
5
5
5
5
5
5
5
5
5
5
5
5
5
5
5
5
5
5
5
5
5
5
5
5
5
5
5
5
5
5
5
5
5
5
5
5
5
5
5
5
5
5
5
5
5
5
5
5
5
5
5
5
5
5
5
5
5
5
5
5
5
5
5
5
5
5
5
5
5
5
5
5
5
5
5
5
5
5
5
5
5
5
5
5
5
5
5
5
5
5
5
5
5
5
5
5
5
5
5
5
5
5
5
5
5
5
5
5
5
5
5
5
5
5
5
5
5
5
5
5
5
5
5
5
5
5
5
5
5
5
5
5
5
5
5
5
5
5
5
5
5
5
5
5
5
5
5
5
5
5
5
5
5
5
5
5
5
5
5
5
5
5
5
5
5
5
5
5
5
5
5
5
5
5
5
5
5
5
5
5
5
5
5
5
5
5
5
5
5
5
5
5
5
5
5
5
5
5
5
POINT_DATA 296
SCALARS concentrations float 4
LOOKUP_TABLE default
0 0.954161 0.119757 7.56634
0 0.954169 0.122087 14.0351
0 0.95415 0.120833 10.0107
0 0.95418 0.122487 9.70637
0 0.954144 0.0936287 6.85945
0 0.954164 0.123931 7.6114
0 0.954216 0.125876 10.8035
0 0.954169 0.0958605 8.83485
0 0.954163 0.0953749 9.01466
0 0.95417 0.124904 10.0103
0 0.954096 0.123712 12.6579
0 0.954127 0.12273 10.1772
0 0.954071 0.122556 16.3287
0 0.954164 0.093292 6.3119
0 0.954152 0.0936088 5.78155
0 0.954141 0.096196 9.24775
0 0.95414 0.0942404 7.51822
0 0.954182 0.0931935 6.94536
0 0.954183 0.0943924 8.02086
0 0.954157 0.094427 8.52848
0 0.954162 0.0952325 5.36206
0 0.9541 0.124671 13.5282
0 0.954108 0.123181 13.8995
0 0.954118 0.0940204 7.66381
0 0.954102 0.0957645 7.43356
0 0.954105 0.0941317 5.65645
0 0.954138 0.122464 12.4439
0 0.954115 0.0955497 5.62903
0 0.954202 0.123707 8.0037
0 0.954147 0.0946997 8.26418
0 0.954126 0.0932515 7.74766
0 0.954138 0.0949957 8.83095
0 0.954116 0.121844 14.4701
0 0.954125 0.0968866 9.65517
0 0.95413 0.0962494 8.90031
0 0.954156 0.0942047 5.63744
0 0.954131 0.0947069 7.32979
0 0.954149 0.093608 7.34644
0 0.954152 0.0950103 5.47148
0 0.954112 0.0939462 6.89718
0 0.954125 0.0939601 6.40934
0 0.954119 0.0945963 6.73233
0 0.954117 0.09502 6.26211
0 0.954143 0.122263 5.14577
0 0.954132 0.0955269 5.39752
0 0.954191 0.0961401 6.64509
0 0.954173 0.0947634 7.32995
0 0.954158 0.122706 10.8055
0 0.954186 0.0939613 6.64918
0 0.954145 0.122989 9.62042
0 0.954131 0.0938881 7.41785
0 0.954127 0.0935017 6.73734
0 0.95414 0.0945867 8.26585
0 0.954138 0.093913 6.56886
0 0.954164 0.0937049 7.08815
0 0.954141 0.0971867 9.88767
0 0.95414 0.0952299 5.33296
0 0.954137 0.0948788 6.9432
0 0.954143 0.0951975 6.07769
0 0.954121 0.0947439 6.14865
0 0.954144 0.0951647 5.91841
0 0.954135 0.101181 3.87679
0 0.954115 0.10092 7.95793
0 0.954179 0.121806 9.27834
0 0.954145 0.0956877 5.11678
0 0.954177 0.0949171 6.97841
0 0.954151 0.097534 6.35498
0 0.954157 0.0935773 7.11159
0 0.95416 0.0948397 6.87704
0 0.954177 0.120706 10.284
0 0.954165 0.0939237 6.09536
0 0.954183 0.121042 7.34186
0 0.954147 0.0985203 8.02068
0 0.954132 0.0942276 7.33356
0 0.954133 0.0968331 6.43615
0 0.954153 0.0942513 7.50467
0 0.954174 0.0945783 6.6059
0 0.954156 0.0942467 7.9767
0 0.954145 0.0951502 6.50886
0 0.954139 0.0987754 6.77322
0 0.95414 0.0955998 5.75122
0 0.954148 0.0974749 6.05504
0 0.95414 0.0990122 7.15357
0 0.954152 0.0944971 8.3473
0 0.954144 0.0968757 6.75524
0 0.95419 0.122318 14.5105
0 0.95414 0.0952996 7.40408
0 0.954137 0.0943115 7.81821
0 0.954165 0.0945374 8.04515
0 0.954141 0.0951051 9.08619
0 0.954172 0.0934471 7.7032
0 0.954154 0.0949166 8.6002
0 0.954146 0.122174 15.5575
0 0.954162 0.0944667 7.94609
0 0.954134 0.0932574 6.89387
0 0.954134 0.0945885 8.4219
0 0.954127 0.0943791 7.99841
0 0.954135 0.0963759 8.91442
0 0.954114 0.123358 14.568
0 0.954165 0.094298 7.60495
0 0.954147 0.0954205 7.74224
0 0.954145 0.0945487 7.41066
0 0.95415 0.0948243 7.94341
0 0.954141 0.0944479 6.95273
0 0.954147 0.0937499 6.56204
0 0.95415 0.0940001 6.78197
0 0.95415 0.0943834 6.57341
0 0.954155 0.0948541 7.60487
0 0.954153 0.0939348 6.77638
0 0.954177 0.119203 9.16844
0 0.954131 0.0943146 6.62752
0 0.954131 0.0946814 5.86412
0 0.954154 0.0943789 8.55617
0 0.954134 0.0942756 5.65535
0 0.954129 0.0937775 8.41517
0 0.954139 0.0947192 8.01047
0 0.954131 0.0945779 8.31532
0 0.954149 0.094635 6.39977
0 0.954147 0.0942538 7.69251
0 0.954139 0.0942602 7.72457
0 0.954132 0.0934024 6.66659
0 0.95413 0.0963927 8.9722
0 0.954129 0.0956732 6.47629
0 0.954153 0.0936296 7.05371
0 0.954139 0.123114 9.65707
0 0.954153 0.0942324 7.02895
0 0.954123 0.0969164 6.90926
0 0.954148 0.0940939 7.9576
0 0.954131 0.100758 5.69053
0 0.954144 0.0933359 7.02728
0 0.954143 0.0945488 7.28235
0 0.95415 0.0947694 7.69088
0 0.954144 0.0957101 6.5328
0 0.954156 0.0939915 7.42135
0 0.954174 0.121839 11.4087
0 0.954132 0.0944466 5.54471
0 0.954142 0.0936664 5.9003
0 0.954132 0.0965147 6.7813
0 0.954137 0.0945576 7.4698
0 0.954137 0.0937876 6.3067
0 0.954125 0.0943721 8.01727
0 0.954138 0.0948127 7.21566
0 0.954153 0.0945754 7.09902
0 0.954152 0.0931528 7.25362
0 0.954143 0.0961818 6.54051
0 0.954137 0.10043 8.81731
0 0.954135 0.101895 5.23674
0 0.954157 0.0940269 7.38205
0 0.954157 0.0942912 7.55965
0 0.954121 0.0933806 6.54339
0 0.954135 0.122908 12.6213
0 0.954148 0.0934509 7.02916
0 0.954121 0.0961177 6.20376
0 0.954117 0.096019 6.89012
0 0.954141 0.0947107 6.45649
0 0.954131 0.0956385 7.66802
0 0.954146 0.096265 8.42355
0 0.954146 0.0940126 7.30747
0 0.954154 0.0942812 7.39721
0 0.954146 0.0934816 7.32375
0 0.954134 0.0937914 6.45475
0 0.954161 0.122087 9.28951
0 0.954143 0.0966938 8.44444
0 0.954133 0.0949208 6.28492
0 0.954135 0.0940341 6.31774
0 0.954138 0.0951169 6.37739
0 0.954134 0.0943259 6.61535
0 0.954135 0.095684 7.89991
0 0.954152 0.0942916 7.86314
0 0.954146 0.0946719 7.09954
0 0.954144 0.0953724 6.79449
0 0.954154 0.0954137 7.81443
0 0.954152 0.0937272 7.46497
0 0.954114 0.0932556 7.61265
0 0.954105 0.12225 12.7979
0 0.954152 0.0962486 7.17434
0 0.95413 0.09447 6.93138
0 0.954145 0.100452 8.19111
0 0.954138 0.093401 6.94955
0 0.954144 0.0940925 7.09898
0 0.954153 0.0993868 5.69032
0 0.954145 0.100652 9.52518
0 0.954152 0.0949061 6.83445
0 0.95414 0.0947676 7.12483
0 0.954152 0.0927192 7.205
0 0.954139 0.093242 7.4632
0 0.954111 0.0928838 7.58915
0 0.954108 0.12069 13.2474
0 0.954141 0.0945246 7.80781
0 0.95414 0.095512 6.13165
0 0.954137 0.0948617 7.53272
0 0.954134 0.0961276 7.06478
0 0.954145 0.0940275 6.91087
0 0.954149 0.09652 7.03268
0 0.954151 0.0940695 6.35768
0 0.95415 0.0953516 5.87965
0 0.954153 0.0937507 6.45808
0 0.954149 0.0936138 7.46992
0 0.95415 0.0938264 7.46559
0 0.954134 0.0960319 7.85534
0 0.954122 0.0930732 7.58232
0 0.954116 0.123987 13.1435
0 0.954152 0.0930213 6.93706
0 0.954155 0.095169 7.27487
0 0.954144 0.0943475 7.59725
0 0.95414 0.0928634 7.28046
0 0.954146 0.0962794 6.60078
0 0.954137 0.0954347 8.00446
0 0.954142 0.0935448 7.27137
0 0.954134 0.0927344 7.37313
0 0.954106 0.121756 16.1824
0 0.954134 0.0944385 6.49564
0 0.954136 0.0955888 7.07734
0 0.95414 0.0961365 7.20746
0 0.954144 0.0938799 7.13074
0 0.954154 0.0935128 7.26463
0 0.954149 0.0934897 7.20446
0 0.954146 0.0933086 7.0224
0 0.954159 0.0949577 7.19614
0 0.954146 0.0946511 7.2127
0 0.954126 0.0937024 6.62982
0 0.954124 0.0939451 7.72703
0 0.95411 0.121993 13.0742
0 0.954137 0.102456 7.36744
0 0.954129 0.0944394 7.21544
0 0.95413 0.0939347 7.29884
0 0.954136 0.0994291 5.46523
0 0.954126 0.0966225 6.33459
0 0.954138 0.0938643 7.75676
0 0.95415 0.0929278 7.24064
0 0.954151 0.122313 12.607
0 0.954135 0.0959754 7.26801
0 0.954132 0.0947869 7.78491
0 0.954136 0.0952357 6.54256
0 0.954157 0.0950627 7.02776
0 0.954139 0.0947408 6.47794
0 0.954139 0.0937095 6.54199
0 0.954138 0.102508 9.70064
0 0.954122 0.094693 7.24985
0 0.954125 0.0942903 6.46539
0 0.954116 0.0937972 7.36991
0 0.95413 0.0934213 7.58187
0 0.954144 0.124286 9.79704
0 0.954131 0.0971179 7.45739
0 0.954136 0.0944681 7.08213
0 0.954127 0.0946242 7.05613
0 0.954124 0.0936242 7.26067
0 0.954133 0.092789 7.49139
0 0.95414 0.1237 5.87623
0 0.95413 0.0932013 7.14722
0 0.95413 0.0948663 6.76596
0 0.954135 0.0945055 7.43082
0 0.954128 0.0946491 6.33406
0 0.95412 0.0939766 7.27543
0 0.954131 0.0941606 7.35968
0 0.954122 0.0936067 7.41837
0 0.954105 0.093175 7.54343
0 0.954117 0.122578 16.1982
0 0.954134 0.0956891 6.60319
0 0.954126 0.0934864 7.6101
0 0.954116 0.0946404 6.35078
0 0.954096 0.0930679 7.76726
0 0.954107 0.122783 16.6073
0 0.954127 0.0946412 6.56309
0 0.954128 0.0933087 6.77986
0 0.954123 0.0941659 7.54473
0 0.954131 0.0947644 7.07404
0 0.954137 0.0940048 6.82955
0 0.954131 0.0934186 7.60128
0 0.954107 0.123418 15.6139
0 0.954127 0.0928699 6.92152
0 0.954123 0.0929189 6.72775
0 0.9541 0.0931412 6.62842
0 0.954067 0.12049 12.9369
0 0.954127 0.093248 7.09966
0 0.954125 0.0940908 7.00789
0 0.954128 0.0944147 6.83684
0 0.954121 0.0942201 7.64924
0 0.954134 0.0950388 6.70662
0 0.95416 0.0941728 6.97375
0 0.954163 0.12086 7.35169
0 0.954121 0.0937108 6.73826
0 0.954122 0.0931547 7.66984
0 0.954117 0.123876 11.9291
0 0.954124 0.0933542 7.05547
0 0.954122 0.0975911 8.60008
0 0.954124 0.093875 6.73952
0 0.954126 0.0942959 7.56589
0 0.954159 0.121395 15.0201
0 0.954118 0.0924842 7.13259
0 0.95412 0.121559 14.9125
0 0.954119 0.0933032 7.59609
0 0.954111 0.0952831 7.10379
0 0.954107 0.121012 13.9585
0 0.954121 0.122745 13.0299
0 0.954108 0.123504 12.5492
VECTORS fa_u float
0.00711675 0.00284644 -0
0.00672608 0.003865 -0
0.0030931 0.000841116 -0
0.00702469 0.00108349 -0
1e-08 0 0
0.00518574 0.00400068 -0
0.00258378 0.0025042 -0
1e-08 0 0
1e-08 0 0
0.00459154 0.00562022 -0
0.00516944 0.00870439 -0
0.0067435 0.000134116 -0
0.00607425 -0.000660579 0
1e-08 0 0
1e-08 0 0
1e-08 0 0
1e-08 0 0
1e-08 0 0
1e-08 0 0
1e-08 0 0
1e-08 0 0
0.0028786 0.00709648 -0
0.00161853 0.00633491 -0
1e-08 0 0
1e-08 0 0
1e-08 0 0
0.00892513 -0.0022556 0
1e-08 0 0
0.010802 -0.00472286 0
1e-08 0 0
1e-08 0 0
1e-08 0 0
0.000851525 0.00724592 -0
1e-08 0 0
1e-08 0 0
1e-08 0 0
1e-08 0 0
1e-08 0 0
1e-08 0 0
1e-08 0 0
1e-08 0 0
1e-08 0 0
1e-08 0 0
-0.000171701 0.0077648 -0
1e-08 0 0
1e-08 0 0
1e-08 0 0
0.00550555 -0.00348566 0
1e-08 0 0
0.00291089 -0.00234227 0
1e-08 0 0
1e-08 0 0
1e-08 0 0
1e-08 0 0
1e-08 0 0
1e-08 0 0
1e-08 0 0
1e-08 0 0
1e-08 0 0
1e-08 0 0
1e-08 0 0
1e-08 0 0
1e-08 0 0
-0.000600415 0.00412574 0
1e-08 0 0
1e-08 0 0
1e-08 0 0
1e-08 0 0
1e-08 0 0
0.00324112 -0.00321181 0
1e-08 0 0
0.00281033 -0.00345547 0
1e-08 0 0
1e-08 0 0
1e-08 0 0
1e-08 0 0
1e-08 0 0
1e-08 0 0
1e-08 0 0
1e-08 0 0
1e-08 0 0
1e-08 0 0
1e-08 0 0
1e-08 0 0
1e-08 0 0
-0.00137775 0.00528833 0
1e-08 0 0
1e-08 0 0
1e-08 0 0
1e-08 0 0
1e-08 0 0
1e-08 0 0
0.00559518 -0.00919941 0
1e-08 0 0
1e-08 0 0
1e-08 0 0
1e-08 0 0
1e-08 0 0
0.00357852 -0.00883552 0
1e-08 0 0
1e-08 0 0
1e-08 0 0
1e-08 0 0
1e-08 0 0
1e-08 0 0
1e-08 0 0
1e-08 0 0
1e-08 0 0
1e-08 0 0
-0.00285682 0.00707516 0
1e-08 0 0
1e-08 0 0
1e-08 0 0
1e-08 0 0
1e-08 0 0
1e-08 0 0
1e-08 0 0
1e-08 0 0
1e-08 0 0
1e-08 0 0
1e-08 0 0
1e-08 0 0
1e-08 0 0
1e-08 0 0
0.00139637 -0.00555961 0
1e-08 0 0
1e-08 0 0
1e-08 0 0
1e-08 0 0
1e-08 0 0
1e-08 0 0
1e-08 0 0
1e-08 0 0
1e-08 0 0
-0.00372253 0.00645608 0
1e-08 0 0
1e-08 0 0
1e-08 0 0
1e-08 0 0
1e-08 0 0
1e-08 0 0
1e-08 0 0
1e-08 0 0
1e-08 0 0
1e-08 0 0
1e-08 0 0
1e-08 0 0
1e-08 0 0
1e-08 0 0
1e-08 0 0
0.000522915 -0.00382479 0
1e-08 0 0
1e-08 0 0
1e-08 0 0
1e-08 0 0
1e-08 0 0
1e-08 0 0
1e-08 0 0
1e-08 0 0
1e-08 0 0
1e-08 0 0
-0.00464504 0.00596299 0
1e-08 0 0
1e-08 0 0
1e-08 0 0
1e-08 0 0
1e-08 0 0
1e-08 0 0
1e-08 0 0
1e-08 0 0
1e-08 0 0
1e-08 0 0
1e-08 0 0
1e-08 0 0
0.000115039 -0.00784242 0
1e-08 0 0
1e-08 0 0
1e-08 0 0
1e-08 0 0
1e-08 0 0
1e-08 0 0
1e-08 0 0
1e-08 0 0
1e-08 0 0
1e-08 0 0
1e-08 0 0
1e-08 0 0
-0.00233746 0.00237486 0
1e-08 0 0
1e-08 0 0
1e-08 0 0
1e-08 0 0
1e-08 0 0
1e-08 0 0
1e-08 0 0
1e-08 0 0
1e-08 0 0
1e-08 0 0
1e-08 0 0
1e-08 0 0
1e-08 0 0
-0.000860446 -0.00693668 0
1e-08 0 0
1e-08 0 0
1e-08 0 0
1e-08 0 0
1e-08 0 0
1e-08 0 0
1e-08 0 0
1e-08 0 0
-0.00479266 0.00391048 0
1e-08 0 0
1e-08 0 0
1e-08 0 0
1e-08 0 0
1e-08 0 0
1e-08 0 0
1e-08 0 0
1e-08 0 0
1e-08 0 0
1e-08 0 0
1e-08 0 0
-0.0016243 -0.00623141 0
1e-08 0 0
1e-08 0 0
1e-08 0 0
1e-08 0 0
1e-08 0 0
1e-08 0 0
1e-08 0 0
-0.00859065 0.00516065 0
1e-08 0 0
1e-08 0 0
1e-08 0 0
1e-08 0 0
1e-08 0 0
1e-08 0 0
1e-08 0 0
1e-08 0 0
1e-08 0 0
1e-08 0 0
1e-08 0 0
-0.00294851 -0.00717222 0
1e-08 0 0
1e-08 0 0
1e-08 0 0
1e-08 0 0
1e-08 0 0
-0.00749548 0.00306977 0
1e-08 0 0
1e-08 0 0
1e-08 0 0
1e-08 0 0
1e-08 0 0
1e-08 0 0
1e-08 0 0
1e-08 0 0
-0.00502076 -0.00838381 0
1e-08 0 0
1e-08 0 0
1e-08 0 0
1e-08 0 0
-0.00625916 0.00161138 0
1e-08 0 0
1e-08 0 0
1e-08 0 0
1e-08 0 0
1e-08 0 0
1e-08 0 0
-0.00358916 -0.00444228 0
1e-08 0 0
1e-08 0 0
1e-08 0 0
-0.00711109 0.000854771 0
1e-08 0 0
1e-08 0 0
1e-08 0 0
1e-08 0 0
1e-08 0 0
1e-08 0 0
-0.00267071 -0.00265192 0
1e-08 0 0
1e-08 0 0
-0.00837794 -0.000179208 0
1e-08 0 0
1e-08 0 0
1e-08 0 0
1e-08 0 0
-0.00601476 -0.00469717 0
1e-08 0 0
-0.00356281 -0.000513462 0
1e-08 0 0
1e-08 0 0
-0.00660112 -0.00380701 0
-0.00561772 -0.00144409 0
-0.00715626 -0.00288113 0
