# vtk DataFile Version 2.0
CellBP Time: 6.32
ASCII
DATASET UNSTRUCTURED_GRID
POINTS 296 double
-8.97732 -3.67824 0
-8.4173 -4.8335 0
-9.37238 -2.45436 0
-9.64526 -1.2183 0
-8.13344 -2.72215 0
-7.69893 -5.90157 0
-6.8484 -6.86779 0
-7.6924 -3.75181 0
-7.13239 -4.72765 0
-5.91626 -7.73515 0
-4.87883 -8.46595 0
-9.75076 0.0393479 0
-9.69011 1.31927 0
-8.45202 -1.62708 0
-8.60141 -0.50735 0
-7.37682 -1.92629 0
-7.00576 -2.79764 0
-6.47157 -5.6415 0
-5.69595 -6.46627 0
-6.57874 -3.76107 0
-6.039 -4.54686 0
-3.72572 -9.03176 0
-2.49583 -9.43474 0
-4.81767 -7.17759 0
-3.86093 -7.76397 0
-8.61789 0.630305 0
-9.46583 2.59782 0
-8.46929 1.73178 0
-9.05413 3.81704 0
-7.55035 -0.888517 0
-7.61395 0.0884984 0
-6.76463 -1.26038 0
-1.22259 -9.6748 0
-6.26657 -2.07885 0
-6.13864 -2.95828 0
-5.3914 -5.34912 0
-4.68608 -5.99442 0
-5.49934 -3.65404 0
-5.12109 -4.44588 0
-2.82518 -8.22562 0
-1.75296 -8.48568 0
-3.8577 -6.60484 0
-3.01814 -7.03962 0
0.0544969 -9.73861 0
-7.54002 1.11948 0
-8.2083 2.87086 0
-7.39623 2.05789 0
-8.44538 4.94493 0
-7.72991 3.89245 0
-7.69242 5.98889 0
-6.60868 -0.37319 0
-6.78714 0.548626 0
-5.63871 -0.977153 0
-0.578655 -8.64034 0
0.549351 -8.57813 0
-5.17682 -2.41082 0
-4.36903 -4.98065 0
-3.813 -5.66324 0
-4.33552 -3.71985 0
-2.03094 -7.43475 0
-1.11999 -7.64387 0
-2.93653 -5.99079 0
-2.27693 -6.50957 0
1.31717 -9.625 0
-6.54198 1.3871 0
-7.01472 3.04054 0
-6.51629 2.31413 0
-7.13855 4.8678 0
-6.57056 3.90494 0
-6.84725 6.94141 0
-6.42643 5.75258 0
-5.89743 7.79855 0
-4.38185 -1.16288 0
-5.69879 0.496515 0
-4.58467 -0.0227698 0
-0.00780885 -7.68053 0
1.68489 -8.4281 0
0.906905 -7.57799 0
-3.97245 -2.36181 0
-3.45916 -1.38119 0
-3.23035 -4.7135 0
-3.22278 -3.21347 0
-1.36532 -6.55043 0
-0.519868 -6.87757 0
-1.95036 -5.44465 0
2.57095 -9.37628 0
-5.39973 1.99774 0
-5.96436 2.99563 0
-5.97038 4.74526 0
-5.63472 3.888 0
-5.62444 6.55476 0
-5.32788 5.47716 0
-4.86052 8.54734 0
-4.72077 7.21577 0
-3.46728 -0.420232 0
-4.37516 1.22828 0
-3.6631 0.585324 0
-3.99102 2.29686 0
-3.71765 9.11754 0
2.77038 -8.09713 0
0.378436 -6.63382 0
1.94455 -7.31992 0
1.24045 -6.72279 0
-2.42887 -0.864415 0
-2.81688 -2.11008 0
-2.26619 -4.03388 0
-2.30298 -2.93382 0
-0.454281 -5.73827 0
-1.2055 -4.43572 0
3.78632 -8.97926 0
-4.69509 3.32065 0
-4.97555 4.4752 0
-4.53717 6.11384 0
-4.4351 5.22164 0
-3.76498 7.81836 0
-3.72929 6.65777 0
-2.72082 8.22567 0
-1.63736 -0.129344 0
-1.4388 -0.881186 0
-2.47412 0.515504 0
-3.2108 1.43674 0
-3.18472 3.26434 0
-2.87139 2.3609 0
-1.35163 0.636923 0
-2.49392 9.50821 0
3.81397 -7.66354 0
2.85243 -6.93294 0
0.907412 -5.67762 0
1.98714 -6.23008 0
-1.66808 -1.97751 0
-1.41632 -3.23933 0
0.0798499 -4.66069 0
-0.552415 -3.65022 0
4.79418 -7.10747 0
4.93423 -8.41927 0
-3.69831 4.45251 0
-3.64867 5.60702 0
-2.81078 7.10164 0
-2.9392 6.19619 0
-1.62821 8.54402 0
-1.88885 7.44295 0
-2.30292 3.98676 0
-0.723865 -1.31823 0
-0.832123 -0.249764 0
-1.92938 1.68876 0
-2.10447 2.85678 0
-1.29905 3.51051 0
-0.873101 1.36252 0
-0.283563 0.466152 0
-0.523466 8.69755 0
-1.22972 9.74698 0
1.07598 -4.47506 0
3.77239 -6.48564 0
2.8823 -5.90416 0
2.04447 -5.2774 0
4.65022 -6.00577 0
-0.549107 -2.45906 0
0.489503 -3.41662 0
0.0571532 -1.60455 0
1.44489 -3.60931 0
5.71997 -6.43017 0
6.00067 -7.7025 0
-2.42315 5.23489 0
-2.07177 6.38133 0
-0.880082 7.64454 0
-1.23024 6.7772 0
0.0913271 7.73425 0
-1.12734 4.42696 0
0.150675 -0.610363 0
-0.806505 2.49395 0
-0.343579 3.57817 0
0.054779 1.51899 0
0.73257 0.477228 0
0.639143 8.72154 0
0.0432079 9.85364 0
2.31878 -4.1751 0
3.74437 -5.4569 0
2.9113 -5.05927 0
5.44634 -5.33356 0
4.56677 -5.10935 0
0.633267 -2.28442 0
1.24029 -2.90975 0
0.757185 -1.38614 0
2.12423 -3.07662 0
2.93536 -3.39469 0
6.03059 -4.67044 0
6.51412 -5.62976 0
6.96012 -6.84385 0
-0.990034 5.70606 0
-0.350386 6.7426 0
1.10554 7.63764 0
0.560403 6.95026 0
-0.00255871 4.66276 0
0.590676 3.78948 0
1.33065 -0.639135 0
0.523866 2.63922 0
0.951255 1.57544 0
1.896 0.2121 0
1.59615 1.0645 0
2.1049 7.46507 0
1.77503 8.56717 0
1.32858 9.78053 0
3.73104 -4.22792 0
5.00291 -4.30983 0
5.73215 -3.83056 0
3.71312 -3.12548 0
1.79904 -1.87676 0
2.97151 -2.53315 0
6.66858 -3.86104 0
7.25083 -4.79653 0
7.82466 -5.90462 0
0.484911 5.77966 0
1.41281 6.63248 0
2.34289 6.56828 0
1.18851 4.49896 0
1.46742 3.36318 0
2.41293 -0.687017 0
2.8019 0.141655 0
1.77012 2.15064 0
2.58947 1.14096 0
3.03222 7.0605 0
2.86583 8.24677 0
2.59887 9.53462 0
4.81442 -3.23888 0
6.01363 -3.03246 0
4.10996 -2.23628 0
3.20491 -1.48768 0
6.63137 -2.27771 0
7.12646 -2.99683 0
7.84106 -3.85455 0
8.55956 -4.86973 0
1.99964 5.51638 0
3.02398 6.04972 0
2.34136 4.07078 0
2.39308 3.02702 0
3.48351 -0.453966 0
3.57848 0.615126 0
2.92822 2.26387 0
3.49696 1.50929 0
3.91838 5.79312 0
3.91044 6.67831 0
3.92363 7.81672 0
3.82557 9.12738 0
5.48659 -1.88248 0
4.44891 -1.11244 0
6.60768 -1.31259 0
7.47628 -1.99979 0
8.26471 -2.82017 0
9.13009 -3.72147 0
3.34092 4.78901 0
3.27795 3.33238 0
4.62582 0.13513 0
4.43774 1.28515 0
3.98181 2.39865 0
4.44432 5.04427 0
4.7349 6.07253 0
4.88767 7.25027 0
4.97441 8.55749 0
5.78346 -0.433058 0
6.87931 -0.487946 0
7.63346 -1.06354 0
8.54336 -1.71821 0
9.535 -2.49265 0
4.43494 3.74495 0
5.69147 1.05855 0
5.23163 2.46724 0
5.22036 4.50816 0
5.46531 5.40107 0
5.76821 6.53493 0
6.00988 7.82508 0
6.69797 0.434798 0
7.69912 -0.0288413 0
8.70773 -0.566424 0
9.77715 -1.21993 0
6.79577 1.29493 0
5.55232 3.67601 0
6.36808 2.11965 0
6.19467 2.99054 0
6.10682 4.56344 0
6.52162 5.7023 0
6.95456 6.96645 0
7.6146 0.934518 0
8.68517 0.561074 0
9.84489 0.0617284 0
7.42493 1.93882 0
6.60959 3.77956 0
7.05856 2.85021 0
7.18373 4.75956 0
7.81412 6.00941 0
8.51927 1.6843 0
9.72931 1.3236 0
8.19644 2.7564 0
7.77612 3.81132 0
8.53073 4.94452 0
9.48547 2.58009 0
9.09047 3.79621 0
CELLS 542 2168
3 2 0 4
3 0 1 7
3 4 0 7
3 1 5 8
3 7 1 8
3 3 2 13
3 13 2 4
3 11 3 14
3 14 3 13
3 13 4 15
3 4 7 16
3 15 4 16
3 5 6 17
3 8 5 17
3 6 9 18
3 17 6 18
3 7 8 19
3 16 7 19
3 8 17 20
3 19 8 20
3 9 10 23
3 18 9 23
3 10 21 24
3 23 10 24
3 12 11 25
3 25 11 14
3 26 12 27
3 27 12 25
3 14 13 29
3 29 13 15
3 25 14 30
3 30 14 29
3 29 15 31
3 15 16 33
3 31 15 33
3 16 19 34
3 33 16 34
3 17 18 35
3 20 17 35
3 18 23 36
3 35 18 36
3 19 20 37
3 34 19 37
3 20 35 38
3 37 20 38
3 21 22 39
3 24 21 39
3 22 32 40
3 39 22 40
3 23 24 41
3 36 23 41
3 24 39 42
3 41 24 42
3 27 25 44
3 44 25 30
3 28 26 45
3 45 26 27
3 45 27 46
3 46 27 44
3 47 28 48
3 48 28 45
3 30 29 50
3 50 29 31
3 44 30 51
3 51 30 50
3 50 31 52
3 31 33 52
3 32 43 53
3 40 32 53
3 53 43 54
3 33 34 55
3 34 37 55
3 33 55 52
3 35 36 56
3 38 35 56
3 36 41 57
3 56 36 57
3 37 38 58
3 38 56 58
3 37 58 55
3 39 40 59
3 42 39 59
3 40 53 60
3 59 40 60
3 41 42 61
3 57 41 61
3 42 59 62
3 61 42 62
3 43 63 54
3 46 44 64
3 64 44 51
3 48 45 65
3 65 45 46
3 65 46 66
3 66 46 64
3 49 47 67
3 67 47 48
3 67 48 68
3 68 48 65
3 69 49 70
3 70 49 67
3 52 55 72
3 64 51 73
3 51 50 73
3 50 52 73
3 73 52 74
3 74 52 72
3 53 54 75
3 60 53 75
3 54 63 76
3 54 76 77
3 75 54 77
3 55 58 78
3 72 55 78
3 72 78 79
3 56 57 80
3 57 61 80
3 56 80 58
3 58 80 81
3 78 58 81
3 59 60 82
3 62 59 82
3 60 75 83
3 82 60 83
3 61 62 84
3 62 82 84
3 61 84 80
3 63 85 76
3 66 64 86
3 64 73 86
3 68 65 87
3 87 65 66
3 87 66 86
3 70 67 88
3 88 67 68
3 88 68 89
3 89 68 87
3 71 69 90
3 90 69 70
3 90 70 91
3 91 70 88
3 92 71 93
3 93 71 90
3 74 72 94
3 94 72 79
3 86 73 95
3 95 73 74
3 95 74 96
3 96 74 94
3 97 86 95
3 76 85 99
3 75 77 100
3 83 75 100
3 76 99 101
3 77 76 101
3 77 101 102
3 100 77 102
3 94 79 103
3 78 81 104
3 79 78 104
3 79 104 103
3 80 84 105
3 81 80 105
3 81 105 106
3 104 81 106
3 82 83 107
3 83 100 107
3 82 107 84
3 84 107 108
3 105 84 108
3 85 109 99
3 89 87 110
3 87 86 110
3 110 86 97
3 91 88 111
3 111 88 89
3 111 89 110
3 93 90 112
3 112 90 91
3 112 91 113
3 113 91 111
3 98 92 114
3 114 92 93
3 114 93 115
3 115 93 112
3 116 98 114
3 117 103 118
3 96 94 119
3 94 103 119
3 119 103 117
3 97 95 120
3 120 95 96
3 120 96 119
3 121 110 97
3 121 97 122
3 122 97 120
3 123 119 117
3 124 98 116
3 99 109 125
3 99 125 126
3 101 99 126
3 100 102 127
3 100 127 107
3 101 126 128
3 102 101 128
3 102 128 127
3 104 106 129
3 104 129 103
3 103 129 118
3 105 108 130
3 106 105 130
3 106 130 129
3 107 127 131
3 108 107 131
3 108 131 132
3 108 132 130
3 109 134 125
3 125 134 133
3 113 111 135
3 111 110 135
3 135 110 121
3 115 112 136
3 136 112 113
3 136 113 135
3 116 114 137
3 137 114 115
3 137 115 138
3 138 115 136
3 139 124 116
3 139 116 140
3 140 116 137
3 141 135 121
3 118 129 142
3 118 142 143
3 117 118 143
3 123 117 143
3 122 120 144
3 120 119 144
3 144 119 123
3 141 121 145
3 145 121 122
3 145 122 144
3 146 141 145
3 147 144 123
3 147 123 148
3 143 148 123
3 150 124 139
3 149 150 139
3 131 127 151
3 125 133 152
3 126 125 152
3 126 152 153
3 128 126 153
3 128 153 154
3 128 154 127
3 127 154 151
3 152 133 155
3 130 132 156
3 130 156 129
3 129 156 142
3 131 151 157
3 132 131 157
3 132 157 156
3 156 158 142
3 157 151 159
3 133 160 155
3 134 161 133
3 133 161 160
3 138 136 162
3 136 135 162
3 162 135 141
3 140 137 163
3 163 137 138
3 163 138 162
3 149 139 164
3 164 139 140
3 164 140 165
3 165 140 163
3 166 149 164
3 167 162 141
3 167 141 146
3 142 158 168
3 143 142 168
3 143 168 148
3 146 145 169
3 145 144 169
3 169 144 147
3 170 167 146
3 170 146 169
3 171 169 147
3 171 147 148
3 171 148 172
3 168 172 148
3 173 149 166
3 174 150 149
3 173 174 149
3 154 175 151
3 151 175 159
3 152 155 176
3 153 152 176
3 153 176 177
3 153 177 154
3 154 177 175
3 155 160 178
3 155 178 179
3 176 155 179
3 156 157 180
3 156 180 158
3 157 159 181
3 157 181 180
3 158 180 182
3 158 182 168
3 159 175 183
3 159 183 181
3 175 184 183
3 160 186 178
3 178 186 185
3 161 187 160
3 160 187 186
3 165 163 188
3 163 162 188
3 188 162 167
3 166 164 189
3 189 164 165
3 189 165 188
3 190 173 166
3 190 166 191
3 191 166 189
3 192 188 167
3 192 167 170
3 193 192 170
3 182 194 168
3 194 172 168
3 193 170 195
3 170 169 195
3 195 169 171
3 196 195 171
3 196 171 172
3 194 197 172
3 197 198 172
3 198 196 172
3 200 173 190
3 199 200 190
3 201 174 173
3 200 201 173
3 176 179 202
3 177 176 202
3 177 202 175
3 175 202 184
3 178 185 203
3 178 203 179
3 179 203 202
3 203 185 204
3 202 205 184
3 183 206 181
3 180 181 206
3 180 206 182
3 182 206 194
3 183 184 207
3 205 207 184
3 183 207 206
3 185 208 204
3 186 209 185
3 185 209 208
3 187 210 186
3 186 210 209
3 191 189 211
3 189 188 211
3 211 188 192
3 199 190 212
3 212 190 191
3 212 191 211
3 213 199 212
3 214 211 192
3 214 192 193
3 215 214 193
3 215 193 195
3 206 216 194
3 216 197 194
3 216 217 197
3 215 195 218
3 218 195 196
3 198 218 196
3 217 219 197
3 219 218 198
3 197 219 198
3 220 199 213
3 221 200 199
3 220 221 199
3 222 201 200
3 221 222 200
3 203 204 223
3 203 223 202
3 202 223 205
3 204 208 224
3 204 224 223
3 205 223 225
3 205 225 207
3 207 225 226
3 207 226 206
3 226 216 206
3 208 228 224
3 224 228 227
3 209 229 208
3 229 228 208
3 210 230 209
3 209 230 229
3 213 212 231
3 212 211 231
3 231 211 214
3 232 220 213
3 232 213 231
3 233 231 214
3 233 214 215
3 234 233 215
3 234 215 218
3 226 235 216
3 235 217 216
3 235 236 217
3 217 236 219
3 237 234 218
3 237 218 219
3 236 238 219
3 238 237 219
3 240 220 232
3 239 240 232
3 241 221 220
3 240 241 220
3 242 222 221
3 241 242 221
3 224 227 243
3 224 243 223
3 223 243 225
3 225 243 244
3 225 244 226
3 226 244 235
3 227 245 243
3 228 246 227
3 227 246 245
3 229 247 228
3 228 247 246
3 230 248 229
3 229 248 247
3 239 232 249
3 232 231 249
3 249 231 233
3 250 249 233
3 250 233 234
3 237 250 234
3 244 251 235
3 235 251 236
3 251 252 236
3 236 252 238
3 252 253 238
3 253 250 237
3 253 237 238
3 254 239 249
3 255 240 239
3 254 255 239
3 256 241 240
3 255 256 240
3 257 242 241
3 256 257 241
3 245 258 243
3 243 258 244
3 244 258 251
3 245 259 258
3 246 260 245
3 245 260 259
3 247 261 246
3 246 261 260
3 248 262 247
3 247 262 261
3 254 249 263
3 263 249 250
3 253 263 250
3 258 264 251
3 251 264 252
3 264 265 252
3 265 263 253
3 252 265 253
3 266 254 263
3 267 255 254
3 266 267 254
3 268 256 255
3 267 268 255
3 269 257 256
3 268 269 256
3 259 270 258
3 270 264 258
3 260 271 259
3 259 271 270
3 261 272 260
3 260 272 271
3 262 273 261
3 273 272 261
3 270 274 264
3 275 266 263
3 275 263 265
3 274 276 264
3 276 265 264
3 276 277 265
3 277 275 265
3 278 267 266
3 275 278 266
3 279 268 267
3 278 279 267
3 280 269 268
3 279 280 268
3 271 281 270
3 270 281 274
3 272 282 271
3 271 282 281
3 273 283 272
3 272 283 282
3 281 284 274
3 274 284 276
3 285 278 275
3 277 285 275
3 284 286 276
3 286 285 277
3 276 286 277
3 287 279 278
3 285 287 278
3 288 280 279
3 287 288 279
3 282 289 281
3 281 289 284
3 283 290 282
3 282 290 289
3 289 291 284
3 284 291 286
3 291 292 286
3 292 287 285
3 286 292 285
3 293 288 287
3 292 293 287
3 290 294 289
3 289 294 291
3 294 295 291
3 295 293 292
3 291 295 292
CELL_TYPES 542
5
5
5
5
5
5
5
5
5
5
5
5
5
5
5
5
5
5
5
5
5
5
5
5
5
5
5
5
5
5
5
5
5
5
5
5
5
5
5
5
5
5
5
5
5
5
5
5
5
5
5
5
5
5
5
5
5
5
5
5
5
5
5
5
5
5
5
5
5
5
5
5
5
5
5
5
5
5
5
5
5
5
5
5
5
5
5
5
5
5
5
5
5
5
5
5
5
5
5
5
5
5
5
5
5
5
5
5
5
5
5
5
5
5
5
5
5
5
5
5
5
5
5
5
5
5
5
5
5
5
5
5
5
5
5
5
5
5
5
5
5
5
5
5
5
5
5
5
5
5
5
5
5
5
5
5
5
5
5
5
5
5
5
5
5
5
5
5
5
5
5
5
5
5
5
5
5
5
5
5
5
5
5
5
5
5
5
5
5
5
5
5
5
5
5
5
5
5
5
5
5
5
5
5
5
5
5
5
5
5
5
5
5
5
5
5
5
5
5
5
5
5
5
5
5
5
5
5
5
5
5
5
5
5
5
5
5
5
5
5
5
5
5
5
5
5
5
5
5
5
5
5
5
5
5
5
5
5
5
5
5
5
5
5
5
5
5
5
5
5
5
5
5
5
5
5
5
5
5
5
5
5
5
5
5
5
5
5
5
5
5
5
5
5
5
5
5
5
5
5
5
5
5
5
5
5
5
5
5
5
5
5
5
5
5
5
5
5
5
5
5
5
5
5
5
5
5
5
5
5
5
5
5
5
5
5
5
5
5
5
5
5
5
5
5
5
5
5
5
5
5
5
5
5
5
5
5
5
5
5
5
5
5
5
5
5
5
5
5
5
5
5
5
5
5
5
5
5
5
5
5
5
5
5
5
5
5
5
5
5
5
5
5
5
5
5
5
5
5
5
5
5
5
5
5
5
5
5
5
5
5
5
5
5
5
5
5
5
5
5
5
5
5
5
5
5
5
5
5
5
5
5
5
5
5
5
5
5
5
5
5
5
5
5
5
5
5
5
5
5
5
5
5
5
5
5
5
5
5
5
5
5
5
5
5
5
5
5
5
5
5
5
5
5
5
5
5
5
5
5
5
5
5
5
5
5
5
5
5
5
5
5
5
5
5
5
5
5
5
5
5
5
5
5
5
5
5
5
5
5
5
5
5
5
5
5
5
5
5
5
5
5
5
5
5
5
5
5
5
5
5
5
5
5
5
5
5
5
5
5
5
5
POINT_DATA 296
SCALARS concentrations float 4
LOOKUP_TABLE default
0 0.959445 0.138133 15.0349
0 0.959487 0.136784 13.3134
0 0.959412 0.136219 17.3381
0 0.959451 0.138743 12.1295
0 0.959404 0.0938882 7.19147
0 0.959454 0.135316 15.7642
0 0.959425 0.13706 15.312
0 0.959441 0.0951805 7.44067
0 0.959446 0.0941798 7.33368
0 0.959492 0.137966 8.18216
0 0.959459 0.139511 12.8023
0 0.959468 0.137723 7.95234
0 0.959492 0.138013 15.9846
0 0.959418 0.0927745 7.07068
0 0.959447 0.0936181 6.66649
0 0.959398 0.0944341 7.40819
0 0.959395 0.0941024 7.11934
0 0.95942 0.0930856 7.19208
0 0.959452 0.0935828 7.3771
0 0.959402 0.0940282 7.50387
0 0.959412 0.0934284 7.50613
0 0.95933 0.136149 15.5092
0 0.95931 0.139238 16.1001
0 0.959482 0.0937446 7.37657
0 0.959415 0.0934756 6.61929
0 0.959459 0.0938615 6.49271
0 0.959489 0.135676 12.7417
0 0.959465 0.0934926 6.86553
0 0.959436 0.137567 13.8665
0 0.959417 0.093448 7.09571
0 0.959426 0.093001 7.00513
0 0.959409 0.0936261 7.12861
0 0.95949 0.13896 16.5478
0 0.959402 0.0939015 7.33704
0 0.959399 0.094333 7.47064
0 0.959428 0.0932788 7.39916
0 0.959449 0.0931491 7.04977
0 0.959408 0.0938053 7.05313
0 0.959418 0.0943793 7.28572
0 0.95934 0.0937642 7.19002
0 0.959395 0.0940651 7.87155
0 0.959445 0.0944194 7.36617
0 0.959417 0.0941093 7.63637
0 0.959574 0.136629 10.0012
0 0.959421 0.0943354 7.4345
0 0.959446 0.0943306 6.84946
0 0.959421 0.0948558 6.77426
0 0.95939 0.136676 13.1969
0 0.959406 0.0938921 7.59686
0 0.959421 0.136388 19.1353
0 0.959407 0.093207 7.12784
0 0.959407 0.0943639 6.31066
0 0.959417 0.0943819 6.84424
0 0.959512 0.0942742 7.49934
0 0.959498 0.0936314 7.58096
0 0.959416 0.0948913 7.36222
0 0.959423 0.0950536 6.74564
0 0.959428 0.0948198 7.2473
0 0.959421 0.0934149 7.57708
0 0.9594 0.0954717 7.94276
0 0.959425 0.0943604 8.05551
0 0.959432 0.0951535 7.13398
0 0.959427 0.0966536 8.01679
0 0.959486 0.136653 9.9128
0 0.959415 0.0945884 6.24809
0 0.959415 0.0943549 6.9466
0 0.959426 0.0997543 6.35622
0 0.959398 0.0934674 7.30481
0 0.959402 0.0941805 7.12607
0 0.959411 0.136092 10.5011
0 0.959418 0.0937773 7.02471
0 0.959393 0.138978 19.038
0 0.959427 0.0947305 7.42013
0 0.959423 0.0951364 6.17228
0 0.959437 0.0945419 6.68579
0 0.95945 0.0944944 7.22632
0 0.959454 0.0934938 7.6382
0 0.959446 0.0936411 6.99908
0 0.959419 0.095554 6.11758
0 0.959426 0.100649 3.61659
0 0.959426 0.0950278 7.97537
0 0.959423 0.0951301 7.54411
0 0.959422 0.094689 6.32226
0 0.95943 0.0938601 7.497
0 0.959431 0.0943715 8.0925
0 0.959449 0.138695 14.7269
0 0.959431 0.0944697 7.32731
0 0.959424 0.0993371 5.37889
0 0.959408 0.0951657 6.78918
0 0.959413 0.0970305 7.47594
0 0.959401 0.0949717 6.21086
0 0.959406 0.0956578 6.73358
0 0.959396 0.135159 19.1589
0 0.959402 0.0967739 6.00752
0 0.959441 0.0962508 6.58914
0 0.959441 0.0946207 7.40185
0 0.959449 0.0943384 7.02443
0 0.959439 0.094421 7.38317
0 0.959403 0.133939 16.8916
0 0.959448 0.0955756 8.07887
0 0.959437 0.0935205 7.18748
0 0.959437 0.0928446 6.82978
0 0.959435 0.0931577 7.0287
0 0.959452 0.0962397 5.80633
0 0.959421 0.102281 4.33676
0 0.95943 0.0950859 7.03183
0 0.959428 0.0946369 6.35715
0 0.959432 0.0954354 6.82917
0 0.959434 0.0953559 7.28323
0 0.959474 0.136592 18.5662
0 0.95943 0.0947033 6.8029
0 0.959417 0.0957813 6.58699
0 0.959411 0.100017 10.9021
0 0.959418 0.0995128 6.46958
0 0.959412 0.100767 7.66132
0 0.95944 0.0976341 7.59478
0 0.959404 0.0984582 4.48681
0 0.95947 0.0952318 7.67269
0 0.959471 0.0952559 7.8093
0 0.959448 0.0956973 7.36319
0 0.959439 0.0949579 7.25018
0 0.959431 0.0951655 7.08746
0 0.95944 0.0943402 7.32859
0 0.959455 0.0954921 7.40509
0 0.959394 0.138359 13.8274
0 0.959493 0.0978797 6.85576
0 0.959446 0.094826 6.74877
0 0.959433 0.0948538 7.1985
0 0.959432 0.0932161 7.0395
0 0.959447 0.0947804 5.94735
0 0.959429 0.0950425 6.62433
0 0.959434 0.0974583 8.40828
0 0.959427 0.0963119 7.45008
0 0.959467 0.100734 8.63137
0 0.95951 0.135229 9.79943
0 0.959428 0.0967992 6.38144
0 0.959449 0.099804 8.42146
0 0.959429 0.101023 8.91133
0 0.95946 0.0994215 8.91077
0 0.959399 0.094491 6.99502
0 0.959416 0.0951703 7.43838
0 0.959427 0.0970689 6.3105
0 0.959466 0.0951062 8.20552
0 0.959459 0.094695 6.9862
0 0.95945 0.0963759 7.82879
0 0.959447 0.0954841 8.39535
0 0.959445 0.0954053 7.89767
0 0.959461 0.0949517 6.71789
0 0.959444 0.0957628 8.26033
0 0.959428 0.0946943 8.59036
0 0.959397 0.136528 12.0065
0 0.959427 0.0951524 7.44779
0 0.959462 0.09546 6.775
0 0.959434 0.0935743 7.09927
0 0.959428 0.0930475 7.46566
0 0.959446 0.0938023 7.14073
0 0.959441 0.0990419 3.05162
0 0.959425 0.0959498 8.02942
0 0.959474 0.0947228 5.81626
0 0.959414 0.0940262 8.19362
0 0.959443 0.0936433 7.1711
0 0.95945 0.135678 16.344
0 0.959438 0.0959022 5.78385
0 0.95943 0.0970775 8.02633
0 0.959433 0.0943981 5.92265
0 0.959447 0.096108 5.6079
0 0.959442 0.0944089 6.0245
0 0.959442 0.0961774 7.20929
0 0.959454 0.0958346 7.97876
0 0.95947 0.0948289 6.51281
0 0.959467 0.0983699 6.29088
0 0.959464 0.0951425 7.06678
0 0.959448 0.0949488 8.32225
0 0.959476 0.0947291 5.84685
0 0.959466 0.135293 18.8594
0 0.959424 0.0945997 5.81316
0 0.959441 0.09505 7.25189
0 0.959431 0.0950112 5.69051
0 0.959448 0.0937408 6.98021
0 0.959445 0.0943546 7.34864
0 0.959452 0.0964081 5.28623
0 0.959429 0.0952731 5.71757
0 0.95947 0.0958336 6.23532
0 0.959429 0.0983551 5.94585
0 0.959433 0.0937856 5.86931
0 0.959441 0.0937131 7.72321
0 0.959481 0.0937359 7.26245
0 0.959478 0.138538 10.9506
0 0.959456 0.100731 7.91695
0 0.95946 0.0953765 5.38032
0 0.959447 0.0952511 6.41875
0 0.95945 0.095696 6.26933
0 0.959469 0.0953161 6.00881
0 0.959472 0.0963669 9.58079
0 0.959465 0.0951806 6.23974
0 0.959457 0.0981901 2.89548
0 0.959455 0.0977089 3.62704
0 0.959439 0.0960269 5.63891
0 0.959427 0.0968652 3.97218
0 0.959444 0.0952636 7.71162
0 0.959449 0.0943915 6.40333
0 0.959485 0.135851 9.39102
0 0.959436 0.0945466 7.71403
0 0.959437 0.0936435 6.38557
0 0.959429 0.0930182 7.83289
0 0.959434 0.093263 6.11435
0 0.959461 0.0973579 5.57032
0 0.959448 0.0945298 8.19648
0 0.959432 0.0940336 7.54174
0 0.959475 0.0923295 7.65554
0 0.959518 0.136018 9.09404
0 0.959464 0.0968845 4.81349
0 0.959458 0.0977207 7.88702
0 0.959441 0.0974774 4.74601
0 0.959464 0.0952363 6.26845
0 0.95944 0.0978368 3.92178
0 0.959466 0.0952394 7.45463
0 0.959423 0.0997371 5.94617
0 0.959425 0.0974076 7.0826
0 0.959427 0.0979567 8.50445
0 0.95943 0.0994933 9.4018
0 0.959413 0.094139 6.90264
0 0.959411 0.137961 15.5525
0 0.959437 0.0932349 8.05227
0 0.959434 0.0940628 8.13969
0 0.95945 0.0975775 5.53354
0 0.959463 0.0955104 8.20205
0 0.959446 0.0999822 4.0882
0 0.95944 0.0937817 8.33004
0 0.959461 0.0938047 7.07033
0 0.959479 0.136288 19.3284
0 0.959449 0.0986635 11.8406
0 0.959436 0.0961517 6.59551
0 0.959438 0.100331 10.5282
0 0.959416 0.0954421 7.07983
0 0.959447 0.0962468 6.66008
0 0.959434 0.0960568 7.06947
0 0.959441 0.0977023 5.45748
0 0.959448 0.0997444 5.01309
0 0.959467 0.0949147 7.93635
0 0.959447 0.094235 6.57561
0 0.959415 0.0940109 6.38658
0 0.959391 0.136913 16.5529
0 0.959452 0.0939628 6.13429
0 0.959451 0.0960273 7.62504
0 0.959456 0.0966249 5.88517
0 0.959464 0.0937778 5.72293
0 0.959508 0.0936893 7.95445
0 0.959508 0.136025 8.40304
0 0.959437 0.095791 5.72895
0 0.959426 0.0962286 7.55228
0 0.959443 0.0979179 3.73233
0 0.959452 0.0972153 7.57978
0 0.959443 0.0971134 7.15056
0 0.95946 0.0951387 6.72915
0 0.959478 0.0936845 7.67954
0 0.95944 0.0938747 6.70981
0 0.959414 0.135915 17.3585
0 0.959443 0.0961344 6.52822
0 0.95945 0.0934683 5.86765
0 0.959457 0.0932645 8.16074
0 0.959484 0.0937404 5.89127
0 0.959534 0.136329 6.74305
0 0.95944 0.0949711 7.14451
0 0.959449 0.0949177 7.02811
0 0.959457 0.0957458 6.41048
0 0.959453 0.0952083 8.72863
0 0.959472 0.0947936 6.16744
0 0.959459 0.0940318 6.35011
0 0.959431 0.135117 8.18148
0 0.959443 0.093865 6.12064
0 0.959444 0.0932335 6.05685
0 0.959456 0.0937711 6.26678
0 0.959462 0.135117 12.6779
0 0.959436 0.0942574 7.96692
0 0.959446 0.0962322 8.1208
0 0.959443 0.0948673 7.99686
0 0.959448 0.0955894 8.15102
0 0.959447 0.0950897 6.56157
0 0.959456 0.0949058 6.51421
0 0.959446 0.135567 12.3319
0 0.959442 0.0937831 6.25844
0 0.959454 0.0930191 6.35562
0 0.959467 0.135248 16.6374
0 0.959441 0.0947089 8.23081
0 0.959447 0.0994493 10.6488
0 0.959452 0.0948193 6.09788
0 0.959464 0.0963587 7.15411
0 0.959449 0.134621 13.2725
0 0.959456 0.0944901 6.4835
0 0.959458 0.135729 8.46805
0 0.959454 0.0958504 6.31891
0 0.959476 0.0965014 5.78294
0 0.959489 0.134161 11.2346
0 0.959459 0.135568 18.7894
0 0.959462 0.134888 12.5966
VECTORS fa_u float
0.00696349 0.0027954 -0
0.00664908 0.00382315 -0
0.00340325 0.000924063 -0
0.00695364 0.00105509 -0
1e-08 0 0
0.00515693 0.00397717 -0
0.0027708 0.00269386 -0
1e-08 0 0
1e-08 0 0
0.00454814 0.00560513 -0
0.00492488 0.00832035 -0
0.0067259 0.000118892 -0
0.0061262 -0.000682244 0
1e-08 0 0
1e-08 0 0
1e-08 0 0
1e-08 0 0
1e-08 0 0
1e-08 0 0
1e-08 0 0
1e-08 0 0
0.00283165 0.00696521 -0
0.00162478 0.00632461 -0
1e-08 0 0
1e-08 0 0
1e-08 0 0
0.00862061 -0.00219498 0
1e-08 0 0
0.0101688 -0.00442112 0
1e-08 0 0
1e-08 0 0
1e-08 0 0
0.000852243 0.00715281 -0
1e-08 0 0
1e-08 0 0
1e-08 0 0
1e-08 0 0
1e-08 0 0
1e-08 0 0
1e-08 0 0
1e-08 0 0
1e-08 0 0
1e-08 0 0
-0.000149554 0.00762606 -0
1e-08 0 0
1e-08 0 0
1e-08 0 0
0.00554767 -0.00347829 0
1e-08 0 0
0.00309795 -0.00247983 0
1e-08 0 0
1e-08 0 0
1e-08 0 0
1e-08 0 0
1e-08 0 0
1e-08 0 0
1e-08 0 0
1e-08 0 0
1e-08 0 0
1e-08 0 0
1e-08 0 0
1e-08 0 0
1e-08 0 0
-0.000628573 0.00436567 0
1e-08 0 0
1e-08 0 0
1e-08 0 0
1e-08 0 0
1e-08 0 0
0.00341105 -0.0033834 0
1e-08 0 0
0.00289759 -0.00358468 0
1e-08 0 0
1e-08 0 0
1e-08 0 0
1e-08 0 0
1e-08 0 0
1e-08 0 0
1e-08 0 0
1e-08 0 0
1e-08 0 0
1e-08 0 0
1e-08 0 0
1e-08 0 0
1e-08 0 0
-0.00141862 0.00542452 0
1e-08 0 0
1e-08 0 0
1e-08 0 0
1e-08 0 0
1e-08 0 0
1e-08 0 0
0.00532777 -0.00880475 0
1e-08 0 0
1e-08 0 0
1e-08 0 0
1e-08 0 0
1e-08 0 0
0.00345495 -0.00850942 0
1e-08 0 0
1e-08 0 0
1e-08 0 0
1e-08 0 0
1e-08 0 0
1e-08 0 0
1e-08 0 0
1e-08 0 0
1e-08 0 0
1e-08 0 0
-0.002791 0.00689218 0
1e-08 0 0
1e-08 0 0
1e-08 0 0
1e-08 0 0
1e-08 0 0
1e-08 0 0
1e-08 0 0
1e-08 0 0
1e-08 0 0
1e-08 0 0
1e-08 0 0
1e-08 0 0
1e-08 0 0
1e-08 0 0
0.00142345 -0.00562633 0
1e-08 0 0
1e-08 0 0
1e-08 0 0
1e-08 0 0
1e-08 0 0
1e-08 0 0
1e-08 0 0
1e-08 0 0
1e-08 0 0
-0.00369257 0.00640418 0
1e-08 0 0
1e-08 0 0
1e-08 0 0
1e-08 0 0
1e-08 0 0
1e-08 0 0
1e-08 0 0
1e-08 0 0
1e-08 0 0
1e-08 0 0
1e-08 0 0
1e-08 0 0
1e-08 0 0
1e-08 0 0
1e-08 0 0
0.000557801 -0.0040969 0
1e-08 0 0
1e-08 0 0
1e-08 0 0
1e-08 0 0
1e-08 0 0
1e-08 0 0
1e-08 0 0
1e-08 0 0
1e-08 0 0
1e-08 0 0
-0.00454255 0.0058414 0
1e-08 0 0
1e-08 0 0
1e-08 0 0
1e-08 0 0
1e-08 0 0
1e-08 0 0
1e-08 0 0
1e-08 0 0
1e-08 0 0
1e-08 0 0
1e-08 0 0
1e-08 0 0
0.000100391 -0.00765514 0
1e-08 0 0
1e-08 0 0
1e-08 0 0
1e-08 0 0
1e-08 0 0
1e-08 0 0
1e-08 0 0
1e-08 0 0
1e-08 0 0
1e-08 0 0
1e-08 0 0
1e-08 0 0
-0.00255845 0.00259561 0
1e-08 0 0
1e-08 0 0
1e-08 0 0
1e-08 0 0
1e-08 0 0
1e-08 0 0
1e-08 0 0
1e-08 0 0
1e-08 0 0
1e-08 0 0
1e-08 0 0
1e-08 0 0
1e-08 0 0
-0.000863536 -0.00691775 0
1e-08 0 0
1e-08 0 0
1e-08 0 0
1e-08 0 0
1e-08 0 0
1e-08 0 0
1e-08 0 0
1e-08 0 0
-0.00486992 0.00394564 0
1e-08 0 0
1e-08 0 0
1e-08 0 0
1e-08 0 0
1e-08 0 0
1e-08 0 0
1e-08 0 0
1e-08 0 0
1e-08 0 0
1e-08 0 0
1e-08 0 0
-0.00163043 -0.00623316 0
1e-08 0 0
1e-08 0 0
1e-08 0 0
1e-08 0 0
1e-08 0 0
1e-08 0 0
1e-08 0 0
-0.00818128 0.00489205 0
1e-08 0 0
1e-08 0 0
1e-08 0 0
1e-08 0 0
1e-08 0 0
1e-08 0 0
1e-08 0 0
1e-08 0 0
1e-08 0 0
1e-08 0 0
1e-08 0 0
-0.00288212 -0.0070068 0
1e-08 0 0
1e-08 0 0
1e-08 0 0
1e-08 0 0
1e-08 0 0
-0.00729514 0.0029936 0
1e-08 0 0
1e-08 0 0
1e-08 0 0
1e-08 0 0
1e-08 0 0
1e-08 0 0
1e-08 0 0
1e-08 0 0
-0.00480734 -0.00806317 0
1e-08 0 0
1e-08 0 0
1e-08 0 0
1e-08 0 0
-0.00632569 0.00163622 0
1e-08 0 0
1e-08 0 0
1e-08 0 0
1e-08 0 0
1e-08 0 0
1e-08 0 0
-0.00365716 -0.00455159 0
1e-08 0 0
1e-08 0 0
1e-08 0 0
-0.00700947 0.000850353 0
1e-08 0 0
1e-08 0 0
1e-08 0 0
1e-08 0 0
1e-08 0 0
1e-08 0 0
-0.00283419 -0.00281635 0
1e-08 0 0
1e-08 0 0
-0.00810976 -0.000152528 0
1e-08 0 0
1e-08 0 0
1e-08 0 0
1e-08 0 0
-0.00594309 -0.00463285 0
1e-08 0 0
-0.00390483 -0.000557292 0
1e-08 0 0
1e-08 0 0
-0.0064889 -0.00374216 0
-0.00564927 -0.00145957 0
-0.00703103 -0.00283908 0
