# vtk DataFile Version 2.0
CellBP Time: 0.04
ASCII
DATASET UNSTRUCTURED_GRID
POINTS 296 double
-9.19005 -3.77735 0
-8.61196 -4.95098 0
-9.61123 -2.53844 0
-9.86519 -1.25529 0
-8.35874 -2.81911 0
-7.88501 -6.03884 0
-7.02182 -7.02178 0
-7.91833 -3.87532 0
-7.34375 -4.86851 0
-6.03898 -7.88506 0
-4.95056 -8.61124 0
-9.95106 0.0499053 0
-9.8659 1.35547 0
-8.65885 -1.68424 0
-8.7875 -0.529715 0
-7.59086 -2.00448 0
-7.22688 -2.90696 0
-6.6387 -5.77956 0
-5.8231 -6.59794 0
-6.79134 -3.88954 0
-6.22157 -4.67666 0
-3.77727 -9.18931 0
-2.53851 -9.61008 0
-4.90728 -7.30976 0
-3.91348 -7.88737 0
-8.79394 0.643369 0
-9.61056 2.63857 0
-8.62446 1.77425 0
-9.19011 3.87739 0
-7.74548 -0.929154 0
-7.79571 0.0802483 0
-6.95368 -1.31612 0
-1.25542 -9.86541 0
-6.44254 -2.15351 0
-6.32042 -3.05666 0
-5.53741 -5.47544 0
-4.79664 -6.11645 0
-5.65996 -3.75767 0
-5.27026 -4.56238 0
-2.86639 -8.36516 0
-1.77882 -8.6415 0
-3.9287 -6.72463 0
-3.05697 -7.15376 0
0.0499953 -9.95231 0
-7.70671 1.14369 0
-8.33969 2.91597 0
-7.55308 2.11232 0
-8.61073 5.05025 0
-7.88125 3.97872 0
-7.88553 6.13912 0
-6.77984 -0.396943 0
-6.9577 0.552621 0
-5.77241 -1.0036 0
-0.590809 -8.81102 0
0.565831 -8.7722 0
-5.30404 -2.48075 0
-4.49269 -5.09663 0
-3.9031 -5.77632 0
-4.43966 -3.80547 0
-2.06219 -7.56302 0
-1.13517 -7.78695 0
-2.99497 -6.10313 0
-2.30885 -6.62081 0
1.3555 -9.86622 0
-6.6906 1.42229 0
-7.17337 3.11864 0
-6.66039 2.37344 0
-7.29577 4.98958 0
-6.71921 4.00376 0
-7.02223 7.12216 0
-6.57356 5.89512 0
-6.03839 7.98455 0
-4.454 -1.1813 0
-5.81564 0.513862 0
-4.65708 -0.0103133 0
0.00893437 -7.84923 0
1.73878 -8.64517 0
0.949464 -7.76456 0
-4.03925 -2.40693 0
-3.48638 -1.39134 0
-3.29502 -4.80624 0
-3.2664 -3.26852 0
-1.37831 -6.67648 0
-0.508378 -7.026 0
-1.9758 -5.53804 0
2.6386 -9.61083 0
-5.50833 2.03734 0
-6.09581 3.07282 0
-6.10617 4.87057 0
-5.76278 3.99228 0
-5.7623 6.71834 0
-5.45312 5.62047 0
-4.951 8.71193 0
-4.83926 7.40595 0
-3.50232 -0.424142 0
-4.45019 1.24938 0
-3.71227 0.592405 0
-4.06291 2.32042 0
-3.77756 9.29055 0
2.86299 -8.33427 0
0.420142 -6.7965 0
2.02266 -7.52702 0
1.30664 -6.90667 0
-2.4443 -0.874033 0
-2.83885 -2.1318 0
-2.29473 -4.09825 0
-2.326 -2.97437 0
-0.442357 -5.86226 0
-1.22285 -4.50006 0
3.87711 -9.18944 0
-4.79066 3.39255 0
-5.0889 4.59513 0
-4.64804 6.28274 0
-4.53973 5.36088 0
-3.84445 7.99488 0
-3.82746 6.84715 0
-2.78383 8.42445 0
-1.64861 -0.137951 0
-1.44984 -0.890806 0
-2.48874 0.507397 0
-3.25411 1.4448 0
-3.23945 3.31741 0
-2.91111 2.37251 0
-1.35465 0.627204 0
-2.53857 9.7108 0
3.93353 -7.88832 0
2.96534 -7.15895 0
0.954363 -5.82313 0
2.07481 -6.41677 0
-1.68323 -1.99275 0
-1.43462 -3.27859 0
0.0903444 -4.74794 0
-0.566199 -3.69527 0
4.93307 -7.32016 0
5.05072 -8.61184 0
-3.77758 4.55265 0
-3.73545 5.75342 0
-2.88811 7.29136 0
-3.01024 6.35513 0
-1.66294 8.73536 0
-1.94007 7.62087 0
-2.33851 4.05261 0
-0.730283 -1.32753 0
-0.836416 -0.257708 0
-1.93584 1.6811 0
-2.12562 2.87652 0
-1.30636 3.54543 0
-0.868992 1.35104 0
-0.281849 0.456096 0
-0.533567 8.87344 0
-1.25543 9.96539 0
1.11311 -4.57552 0
3.91097 -6.71866 0
2.98858 -6.09602 0
2.11836 -5.42604 0
4.78546 -6.20667 0
-0.558897 -2.47754 0
0.495302 -3.46463 0
0.0540374 -1.61079 0
1.4823 -3.68294 0
5.86837 -6.61602 0
6.13843 -7.88482 0
-2.47599 5.34968 0
-2.1308 6.53593 0
-0.903855 7.80487 0
-1.27219 6.93347 0
0.0865999 7.88194 0
-1.14435 4.49566 0
0.15085 -0.61778 0
-0.797009 2.48893 0
-0.331286 3.60141 0
0.0636301 1.51295 0
0.742016 0.473469 0
0.646843 8.87611 0
0.0500323 10.0518 0
2.38158 -4.28613 0
3.86006 -5.64168 0
3.00216 -5.21387 0
5.57506 -5.49308 0
4.69212 -5.28425 0
0.629823 -2.29405 0
1.25656 -2.95192 0
0.758041 -1.39172 0
2.16491 -3.13651 0
2.99449 -3.47735 0
6.15665 -4.79295 0
6.65711 -5.77061 0
7.12185 -7.0219 0
-1.01965 5.82166 0
-0.372298 6.88504 0
1.12323 7.7712 0
0.558466 7.0813 0
-0.00029365 4.72596 0
0.607453 3.82857 0
1.33953 -0.642026 0
0.539602 2.65154 0
0.966673 1.57517 0
1.91087 0.213876 0
1.61542 1.06518 0
2.13021 7.58526 0
1.79961 8.71446 0
1.35545 9.96577 0
3.82374 -4.35259 0
5.11787 -4.45012 0
5.84724 -3.93615 0
3.78492 -3.20179 0
1.8129 -1.88303 0
3.01994 -2.57448 0
6.78515 -3.94891 0
7.38329 -4.89806 0
7.98531 -6.03915 0
0.483676 5.8829 0
1.42886 6.74345 0
2.3751 6.6708 0
1.2105 4.55716 0
1.48876 3.39837 0
2.43655 -0.692241 0
2.82889 0.142543 0
1.78955 2.1633 0
2.6127 1.15034 0
3.07297 7.17204 0
2.90509 8.37899 0
2.63842 9.70997 0
4.91256 -3.32873 0
6.12239 -3.10954 0
4.17396 -2.27582 0
3.24534 -1.50328 0
6.73331 -2.3137 0
7.23418 -3.04341 0
7.96708 -3.91345 0
8.71112 -4.95049 0
2.02431 5.60121 0
3.08754 6.15537 0
2.36465 4.12791 0
2.42083 3.06164 0
3.52669 -0.461033 0
3.61676 0.613344 0
2.9627 2.28868 0
3.54664 1.52563 0
4.01361 5.90002 0
3.98591 6.79545 0
3.97469 7.94127 0
3.87706 9.28961 0
5.57048 -1.91672 0
4.51051 -1.12993 0
6.71624 -1.33657 0
7.59519 -2.03712 0
8.40005 -2.86221 0
9.28989 -3.77728 0
3.4203 4.87846 0
3.34006 3.38631 0
4.69268 0.130065 0
4.52057 1.31033 0
4.0666 2.44451 0
4.57244 5.15444 0
4.84573 6.19324 0
4.98231 7.38334 0
5.05056 8.71136 0
5.88553 -0.435059 0
7.01373 -0.488441 0
7.76272 -1.08574 0
8.68823 -1.74664 0
9.71007 -2.53846 0
4.55418 3.82894 0
5.81998 1.09899 0
5.37334 2.53588 0
5.38261 4.62268 0
5.61481 5.52603 0
5.89977 6.67482 0
6.13753 7.98377 0
6.84923 0.463742 0
7.85699 -0.0256556 0
8.86431 -0.584508 0
9.96487 -1.25523 0
6.96389 1.3501 0
5.7239 3.78026 0
6.54469 2.19856 0
6.38345 3.08954 0
6.29569 4.68934 0
6.69642 5.84047 0
7.12199 7.12195 0
7.78828 0.968096 0
8.86366 0.572848 0
10.0524 0.0500501 0
7.62018 2.00535 0
6.83282 3.90634 0
7.27342 2.94836 0
7.38191 4.88835 0
7.98508 6.13875 0
8.72721 1.7279 0
9.96534 1.35538 0
8.42519 2.83908 0
7.98565 3.91816 0
8.71045 5.05036 0
9.71054 2.63894 0
9.28949 3.87712 0
CELLS 542 2168
3 2 0 4
3 0 1 7
3 4 0 7
3 1 5 8
3 7 1 8
3 3 2 13
3 13 2 4
3 11 3 14
3 14 3 13
3 13 4 15
3 4 7 16
3 15 4 16
3 5 6 17
3 8 5 17
3 6 9 18
3 17 6 18
3 7 8 19
3 16 7 19
3 8 17 20
3 19 8 20
3 9 10 23
3 18 9 23
3 10 21 24
3 23 10 24
3 12 11 25
3 25 11 14
3 26 12 27
3 27 12 25
3 14 13 29
3 29 13 15
3 25 14 30
3 30 14 29
3 29 15 31
3 15 16 33
3 31 15 33
3 16 19 34
3 33 16 34
3 17 18 35
3 20 17 35
3 18 23 36
3 35 18 36
3 19 20 37
3 34 19 37
3 20 35 38
3 37 20 38
3 21 22 39
3 24 21 39
3 22 32 40
3 39 22 40
3 23 24 41
3 36 23 41
3 24 39 42
3 41 24 42
3 27 25 44
3 44 25 30
3 28 26 45
3 45 26 27
3 45 27 46
3 46 27 44
3 47 28 48
3 48 28 45
3 30 29 50
3 50 29 31
3 44 30 51
3 51 30 50
3 50 31 52
3 31 33 52
3 32 43 53
3 40 32 53
3 53 43 54
3 33 34 55
3 34 37 55
3 33 55 52
3 35 36 56
3 38 35 56
3 36 41 57
3 56 36 57
3 37 38 58
3 38 56 58
3 37 58 55
3 39 40 59
3 42 39 59
3 40 53 60
3 59 40 60
3 41 42 61
3 57 41 61
3 42 59 62
3 61 42 62
3 43 63 54
3 46 44 64
3 64 44 51
3 48 45 65
3 65 45 46
3 65 46 66
3 66 46 64
3 49 47 67
3 67 47 48
3 67 48 68
3 68 48 65
3 69 49 70
3 70 49 67
3 52 55 72
3 64 51 73
3 51 50 73
3 50 52 73
3 73 52 74
3 74 52 72
3 53 54 75
3 60 53 75
3 54 63 76
3 54 76 77
3 75 54 77
3 55 58 78
3 72 55 78
3 72 78 79
3 56 57 80
3 57 61 80
3 56 80 58
3 58 80 81
3 78 58 81
3 59 60 82
3 62 59 82
3 60 75 83
3 82 60 83
3 61 62 84
3 62 82 84
3 61 84 80
3 63 85 76
3 66 64 86
3 64 73 86
3 68 65 87
3 87 65 66
3 87 66 86
3 70 67 88
3 88 67 68
3 88 68 89
3 89 68 87
3 71 69 90
3 90 69 70
3 90 70 91
3 91 70 88
3 92 71 93
3 93 71 90
3 74 72 94
3 94 72 79
3 86 73 95
3 95 73 74
3 95 74 96
3 96 74 94
3 97 86 95
3 76 85 99
3 75 77 100
3 83 75 100
3 76 99 101
3 77 76 101
3 77 101 102
3 100 77 102
3 94 79 103
3 78 81 104
3 79 78 104
3 79 104 103
3 80 84 105
3 81 80 105
3 81 105 106
3 104 81 106
3 82 83 107
3 83 100 107
3 82 107 84
3 84 107 108
3 105 84 108
3 85 109 99
3 89 87 110
3 87 86 110
3 110 86 97
3 91 88 111
3 111 88 89
3 111 89 110
3 93 90 112
3 112 90 91
3 112 91 113
3 113 91 111
3 98 92 114
3 114 92 93
3 114 93 115
3 115 93 112
3 116 98 114
3 117 103 118
3 96 94 119
3 94 103 119
3 119 103 117
3 97 95 120
3 120 95 96
3 120 96 119
3 121 110 97
3 121 97 122
3 122 97 120
3 123 119 117
3 124 98 116
3 99 109 125
3 99 125 126
3 101 99 126
3 100 102 127
3 100 127 107
3 101 126 128
3 102 101 128
3 102 128 127
3 104 106 129
3 104 129 103
3 103 129 118
3 105 108 130
3 106 105 130
3 106 130 129
3 107 127 131
3 108 107 131
3 108 131 132
3 108 132 130
3 109 134 125
3 125 134 133
3 113 111 135
3 111 110 135
3 135 110 121
3 115 112 136
3 136 112 113
3 136 113 135
3 116 114 137
3 137 114 115
3 137 115 138
3 138 115 136
3 139 124 116
3 139 116 140
3 140 116 137
3 141 135 121
3 118 129 142
3 118 142 143
3 117 118 143
3 123 117 143
3 122 120 144
3 120 119 144
3 144 119 123
3 141 121 145
3 145 121 122
3 145 122 144
3 146 141 145
3 147 144 123
3 147 123 148
3 143 148 123
3 150 124 139
3 149 150 139
3 131 127 151
3 125 133 152
3 126 125 152
3 126 152 153
3 128 126 153
3 128 153 154
3 128 154 127
3 127 154 151
3 152 133 155
3 130 132 156
3 130 156 129
3 129 156 142
3 131 151 157
3 132 131 157
3 132 157 156
3 156 158 142
3 157 151 159
3 133 160 155
3 134 161 133
3 133 161 160
3 138 136 162
3 136 135 162
3 162 135 141
3 140 137 163
3 163 137 138
3 163 138 162
3 149 139 164
3 164 139 140
3 164 140 165
3 165 140 163
3 166 149 164
3 167 162 141
3 167 141 146
3 142 158 168
3 143 142 168
3 143 168 148
3 146 145 169
3 145 144 169
3 169 144 147
3 170 167 146
3 170 146 169
3 171 169 147
3 171 147 148
3 171 148 172
3 168 172 148
3 173 149 166
3 174 150 149
3 173 174 149
3 154 175 151
3 151 175 159
3 152 155 176
3 153 152 176
3 153 176 177
3 153 177 154
3 154 177 175
3 155 160 178
3 155 178 179
3 176 155 179
3 156 157 180
3 156 180 158
3 157 159 181
3 157 181 180
3 158 180 182
3 158 182 168
3 159 175 183
3 159 183 181
3 175 184 183
3 160 186 178
3 178 186 185
3 161 187 160
3 160 187 186
3 165 163 188
3 163 162 188
3 188 162 167
3 166 164 189
3 189 164 165
3 189 165 188
3 190 173 166
3 190 166 191
3 191 166 189
3 192 188 167
3 192 167 170
3 193 192 170
3 182 194 168
3 194 172 168
3 193 170 195
3 170 169 195
3 195 169 171
3 196 195 171
3 196 171 172
3 194 197 172
3 197 198 172
3 198 196 172
3 200 173 190
3 199 200 190
3 201 174 173
3 200 201 173
3 176 179 202
3 177 176 202
3 177 202 175
3 175 202 184
3 178 185 203
3 178 203 179
3 179 203 202
3 203 185 204
3 202 205 184
3 183 206 181
3 180 181 206
3 180 206 182
3 182 206 194
3 183 184 207
3 205 207 184
3 183 207 206
3 185 208 204
3 186 209 185
3 185 209 208
3 187 210 186
3 186 210 209
3 191 189 211
3 189 188 211
3 211 188 192
3 199 190 212
3 212 190 191
3 212 191 211
3 213 199 212
3 214 211 192
3 214 192 193
3 215 214 193
3 215 193 195
3 206 216 194
3 216 197 194
3 216 217 197
3 215 195 218
3 218 195 196
3 198 218 196
3 217 219 197
3 219 218 198
3 197 219 198
3 220 199 213
3 221 200 199
3 220 221 199
3 222 201 200
3 221 222 200
3 203 204 223
3 203 223 202
3 202 223 205
3 204 208 224
3 204 224 223
3 205 223 225
3 205 225 207
3 207 225 226
3 207 226 206
3 226 216 206
3 208 228 224
3 224 228 227
3 209 229 208
3 229 228 208
3 210 230 209
3 209 230 229
3 213 212 231
3 212 211 231
3 231 211 214
3 232 220 213
3 232 213 231
3 233 231 214
3 233 214 215
3 234 233 215
3 234 215 218
3 226 235 216
3 235 217 216
3 235 236 217
3 217 236 219
3 237 234 218
3 237 218 219
3 236 238 219
3 238 237 219
3 240 220 232
3 239 240 232
3 241 221 220
3 240 241 220
3 242 222 221
3 241 242 221
3 224 227 243
3 224 243 223
3 223 243 225
3 225 243 244
3 225 244 226
3 226 244 235
3 227 245 243
3 228 246 227
3 227 246 245
3 229 247 228
3 228 247 246
3 230 248 229
3 229 248 247
3 239 232 249
3 232 231 249
3 249 231 233
3 250 249 233
3 250 233 234
3 237 250 234
3 244 251 235
3 235 251 236
3 251 252 236
3 236 252 238
3 252 253 238
3 253 250 237
3 253 237 238
3 254 239 249
3 255 240 239
3 254 255 239
3 256 241 240
3 255 256 240
3 257 242 241
3 256 257 241
3 245 258 243
3 243 258 244
3 244 258 251
3 245 259 258
3 246 260 245
3 245 260 259
3 247 261 246
3 246 261 260
3 248 262 247
3 247 262 261
3 254 249 263
3 263 249 250
3 253 263 250
3 258 264 251
3 251 264 252
3 264 265 252
3 265 263 253
3 252 265 253
3 266 254 263
3 267 255 254
3 266 267 254
3 268 256 255
3 267 268 255
3 269 257 256
3 268 269 256
3 259 270 258
3 270 264 258
3 260 271 259
3 259 271 270
3 261 272 260
3 260 272 271
3 262 273 261
3 273 272 261
3 270 274 264
3 275 266 263
3 275 263 265
3 274 276 264
3 276 265 264
3 276 277 265
3 277 275 265
3 278 267 266
3 275 278 266
3 279 268 267
3 278 279 267
3 280 269 268
3 279 280 268
3 271 281 270
3 270 281 274
3 272 282 271
3 271 282 281
3 273 283 272
3 272 283 282
3 281 284 274
3 274 284 276
3 285 278 275
3 277 285 275
3 284 286 276
3 286 285 277
3 276 286 277
3 287 279 278
3 285 287 278
3 288 280 279
3 287 288 279
3 282 289 281
3 281 289 284
3 283 290 282
3 282 290 289
3 289 291 284
3 284 291 286
3 291 292 286
3 292 287 285
3 286 292 285
3 293 288 287
3 292 293 287
3 290 294 289
3 289 294 291
3 294 295 291
3 295 293 292
3 291 295 292
CELL_TYPES 542
5
5
5
5
5
5
5
5
5
5
5
5
5
5
5
5
5
5
5
5
5
5
5
5
5
5
5
5
5
5
5
5
5
5
5
5
5
5
5
5
5
5
5
5
5
5
5
5
5
5
5
5
5
5
5
5
5
5
5
5
5
5
5
5
5
5
5
5
5
5
5
5
5
5
5
5
5
5
5
5
5
5
5
5
5
5
5
5
5
5
5
5
5
5
5
5
5
5
5
5
5
5
5
5
5
5
5
5
5
5
5
5
5
5
5
5
5
5
5
5
5
5
5
5
5
5
5
5
5
5
5
5
5
5
5
5
5
5
5
5
5
5
5
5
5
5
5
5
5
5
5
5
5
5
5
5
5
5
5
5
5
5
5
5
5
5
5
5
5
5
5
5
5
5
5
5
5
5
5
5
5
5
5
5
5
5
5
5
5
5
5
5
5
5
5
5
5
5
5
5
5
5
5
5
5
5
5
5
5
5
5
5
5
5
5
5
5
5
5
5
5
5
5
5
5
5
5
5
5
5
5
5
5
5
5
5
5
5
5
5
5
5
5
5
5
5
5
5
5
5
5
5
5
5
5
5
5
5
5
5
5
5
5
5
5
5
5
5
5
5
5
5
5
5
5
5
5
5
5
5
5
5
5
5
5
5
5
5
5
5
5
5
5
5
5
5
5
5
5
5
5
5
5
5
5
5
5
5
5
5
5
5
5
5
5
5
5
5
5
5
5
5
5
5
5
5
5
5
5
5
5
5
5
5
5
5
5
5
5
5
5
5
5
5
5
5
5
5
5
5
5
5
5
5
5
5
5
5
5
5
5
5
5
5
5
5
5
5
5
5
5
5
5
5
5
5
5
5
5
5
5
5
5
5
5
5
5
5
5
5
5
5
5
5
5
5
5
5
5
5
5
5
5
5
5
5
5
5
5
5
5
5
5
5
5
5
5
5
5
5
5
5
5
5
5
5
5
5
5
5
5
5
5
5
5
5
5
5
5
5
5
5
5
5
5
5
5
5
5
5
5
5
5
5
5
5
5
5
5
5
5
5
5
5
5
5
5
5
5
5
5
5
5
5
5
5
5
5
5
5
5
5
5
5
5
5
5
5
5
5
5
5
5
5
5
5
5
5
5
5
5
5
5
5
5
5
5
5
5
5
5
5
5
5
5
5
5
5
5
5
5
5
5
5
5
5
5
5
5
5
5
5
5
5
5
5
5
5
5
5
5
5
POINT_DATA 296
SCALARS concentrations float 4
LOOKUP_TABLE default
0 1.00049 0.0356796 1.49929
0 1.00054 0.0359701 6.99979
0 1.00035 0.0352587 17.0505
0 1.00033 0.0341934 4.55412
0 1.00037 0.0328512 7.35734
0 1.00043 0.0350104 23.9335
0 1.00032 0.0348425 10.3653
0 1.00046 0.0328507 7.50276
0 1.00044 0.032854 7.55802
0 1.00032 0.0348301 9.1977
0 1.00029 0.0339817 13.9181
0 1.00032 0.0346234 4.46427
0 1.0003 0.0348808 14.1545
0 1.00031 0.0328606 7.27866
0 1.0003 0.032892 7.26419
0 1.00028 0.0328402 6.98297
0 1.00032 0.0328313 7.02004
0 1.00034 0.0328565 7.37646
0 1.0003 0.0329048 7.48928
0 1.00033 0.0328331 7.06859
0 1.00031 0.0328327 7.08503
0 1.00026 0.0345982 8.69103
0 1.00029 0.0343078 2.35787
0 1.00029 0.0329419 7.46208
0 1.00025 0.0328976 7.34505
0 1.0003 0.0329398 7.26343
0 1.00026 0.0353623 15.4828
0 1.00028 0.0329234 7.23795
0 1.00023 0.0348745 11.849
0 1.00027 0.0328587 7.02459
0 1.00028 0.0328691 7.0575
0 1.00026 0.0328549 6.88952
0 1.00033 0.0351432 4.18945
0 1.00027 0.0328753 6.91897
0 1.00028 0.0328654 6.93921
0 1.00028 0.0328513 7.1252
0 1.00027 0.0328609 7.16539
0 1.00028 0.032854 6.95118
0 1.00027 0.0328299 6.96722
0 1.00025 0.0329032 7.53418
0 1.00029 0.0329153 7.58961
0 1.00025 0.0328682 7.20794
0 1.00024 0.0328571 7.27287
0 1.00033 0.0356485 22.9671
0 1.00028 0.0328677 7.13221
0 1.00025 0.0329036 7.50443
0 1.00028 0.0328561 7.24398
0 1.0003 0.0352825 8.27025
0 1.00027 0.0328654 7.20756
0 1.00028 0.0358657 20.5774
0 1.00027 0.032854 6.98584
0 1.00028 0.0328395 7.0397
0 1.00028 0.0329002 7.11271
0 1.00029 0.0329399 7.6839
0 1.00032 0.0329397 7.65845
0 1.00027 0.0328914 7.0788
0 1.00026 0.0328291 7.02423
0 1.00025 0.0328271 7.09555
0 1.00027 0.0328587 7.08447
0 1.00024 0.0329425 7.60975
0 1.00025 0.0329535 7.59667
0 1.00025 0.0328331 7.1815
0 1.00024 0.0329008 7.5775
0 1.00035 0.0359426 4.7321
0 1.00028 0.0328425 7.18469
0 1.00027 0.0328397 7.19055
0 1.00028 0.032843 7.21977
0 1.00029 0.0328893 7.4398
0 1.00028 0.0328527 7.11345
0 1.00038 0.0352823 1.09391
0 1.00031 0.0328687 7.27363
0 1.00046 0.0359939 1.59283
0 1.0003 0.0329771 7.385
0 1.00029 0.0328994 7.28452
0 1.00031 0.0329916 7.47263
0 1.00026 0.0329364 7.45489
0 1.00029 0.0328902 7.29013
0 1.00027 0.0328954 7.26417
0 1.00029 0.0329326 7.293
0 1.00034 0.033049 7.58391
0 1.00026 0.0328287 7.19283
0 1.00028 0.0329032 7.32267
0 1.00024 0.0328967 7.47693
0 1.00024 0.0328979 7.35267
0 1.00025 0.0328352 7.28136
0 1.00025 0.0351991 13.0315
0 1.00029 0.0329287 7.26573
0 1.00028 0.0328475 7.10905
0 1.00028 0.0328609 6.99966
0 1.00028 0.0328364 6.93671
0 1.00039 0.0328522 7.06229
0 1.00029 0.0328702 6.85504
0 1.0004 0.0354931 7.04216
0 1.00039 0.0328421 7.01937
0 1.00036 0.0331218 7.54288
0 1.00032 0.0330319 7.34914
0 1.00036 0.0330976 7.41582
0 1.00031 0.0330059 7.2317
0 1.00025 0.0357433 14.2456
0 1.00025 0.0328191 6.75126
0 1.00025 0.0328601 7.14938
0 1.00026 0.0328469 7.012
0 1.00025 0.0328397 6.99649
0 1.00036 0.0330837 7.35997
0 1.00032 0.0329631 7.45075
0 1.00027 0.0328563 7.33634
0 1.0003 0.0329142 7.40571
0 1.00025 0.032821 7.04905
0 1.00026 0.0328358 7.31838
0 1.00026 0.0329622 7.13156
0 1.00028 0.0329023 6.99881
0 1.00027 0.0328687 6.76409
0 1.0003 0.0328632 6.71694
0 1.00026 0.0328868 6.60999
0 1.00029 0.0328577 6.93271
0 1.00028 0.0328815 6.63494
0 1.00027 0.0328632 7.18134
0 1.00035 0.0329956 7.45425
0 1.00034 0.0329939 7.35528
0 1.00037 0.0330442 7.54009
0 1.00035 0.0330279 7.43142
0 1.00029 0.0328805 7.13287
0 1.00033 0.0329073 7.50186
0 1.00034 0.0329539 7.5396
0 1.00036 0.0355169 6.97396
0 1.00028 0.0328293 6.91914
0 1.00026 0.0328217 6.86766
0 1.00025 0.0328104 6.79194
0 1.00025 0.0328185 6.61378
0 1.00032 0.0329671 7.44455
0 1.00029 0.0328777 7.372
0 1.00026 0.0328161 7.08715
0 1.00028 0.0328383 7.3137
0 1.00033 0.0328483 7.03879
0 1.0003 0.0352625 15.5722
0 1.00027 0.0328698 6.77337
0 1.00026 0.032885 6.57596
0 1.00025 0.032933 7.78443
0 1.00025 0.0328828 6.65214
0 1.00035 0.0328373 7.18325
0 1.00026 0.0329401 7.73183
0 1.00028 0.032833 7.23648
0 1.00032 0.0329218 7.22928
0 1.00033 0.0329341 7.40307
0 1.00034 0.0329502 7.63807
0 1.00031 0.0329035 7.59351
0 1.00029 0.0328912 7.50462
0 1.00032 0.0329282 7.59168
0 1.00032 0.0329052 7.45096
0 1.00037 0.0328637 7.34727
0 1.00043 0.0348681 2.0994
0 1.00025 0.0328019 6.86991
0 1.00028 0.0328219 6.58833
0 1.00025 0.0328215 6.51297
0 1.00025 0.0328138 6.60784
0 1.00031 0.0328269 6.8653
0 1.0003 0.0328842 7.33052
0 1.00027 0.0328173 7.13856
0 1.0003 0.0328544 7.12162
0 1.00026 0.0327978 6.83444
0 1.00042 0.0328736 7.29406
0 1.00041 0.0344325 17.7352
0 1.00026 0.0328472 6.91291
0 1.00025 0.0328658 6.792
0 1.00027 0.0329202 7.60966
0 1.00025 0.0329195 7.67039
0 1.00025 0.0328881 7.45075
0 1.00027 0.0328535 7.30308
0 1.00031 0.0328734 7.27639
0 1.00031 0.0329236 7.57177
0 1.00029 0.0328983 7.43524
0 1.00031 0.0328964 7.41542
0 1.0003 0.0328658 7.24931
0 1.00027 0.0328731 7.10272
0 1.00039 0.0357695 9.21308
0 1.00025 0.0328041 6.61702
0 1.00026 0.0328142 6.56295
0 1.00025 0.0328183 6.49946
0 1.00032 0.0328505 7.06881
0 1.00027 0.0328132 6.66348
0 1.00029 0.0328327 7.20907
0 1.00027 0.0328012 6.95012
0 1.00029 0.0328357 7.09634
0 1.00026 0.0328006 6.78235
0 1.00025 0.0328043 6.69093
0 1.0003 0.0328595 7.13001
0 1.00041 0.0329012 7.47422
0 1.00048 0.0348378 7.70324
0 1.00025 0.0328351 7.03139
0 1.00024 0.0329025 7.57141
0 1.0002 0.0328633 7.28772
0 1.00022 0.0328823 7.41338
0 1.00026 0.0329135 7.57626
0 1.00027 0.0328716 7.24868
0 1.00029 0.0328305 7.06079
0 1.00029 0.0328767 7.29837
0 1.00029 0.0328664 7.23279
0 1.00028 0.0328252 7.00758
0 1.00028 0.0328426 7.0925
0 1.00017 0.0328674 7.27648
0 1.00015 0.0328243 6.95142
0 1.00019 0.0350488 11.761
0 1.00024 0.0328089 6.60653
0 1.00026 0.0328151 6.71451
0 1.00025 0.0328189 6.80794
0 1.00024 0.0328101 6.68378
0 1.00027 0.0328149 6.93321
0 1.00025 0.0328108 6.78311
0 1.00026 0.0328534 7.08285
0 1.00034 0.0329163 7.54558
0 1.00041 0.0355852 27.7273
0 1.00023 0.0328419 7.05533
0 1.0002 0.0328725 7.28754
0 1.00019 0.0328434 6.93738
0 1.00024 0.0328577 7.11674
0 1.00026 0.0328429 7.07132
0 1.00027 0.0328196 6.95402
0 1.00026 0.0328217 6.92553
0 1.00027 0.0328361 7.02067
0 1.00026 0.0328201 6.88286
0 1.00017 0.0328458 7.07741
0 1.00016 0.0328667 7.2732
0 1.00014 0.0333761 7.85977
0 1.00023 0.0328165 6.65957
0 1.00022 0.0328201 6.73549
0 1.00023 0.032821 6.7347
0 1.00025 0.0328194 6.84653
0 1.0002 0.0328254 6.73175
0 1.00021 0.0328398 6.96061
0 1.00024 0.0329008 7.38638
0 1.00031 0.0351445 0.947179
0 1.00021 0.0328473 6.93909
0 1.00019 0.0328512 6.9606
0 1.00023 0.032825 6.88343
0 1.00025 0.032815 6.85071
0 1.00024 0.0328227 6.86109
0 1.00024 0.0328256 6.84316
0 1.00024 0.0328099 6.75588
0 1.00024 0.0328233 6.77865
0 1.00017 0.0328525 6.99377
0 1.00017 0.0328451 7.09238
0 1.0002 0.0328957 7.42922
0 1.0002 0.0349286 5.69414
0 1.00022 0.0328361 6.68527
0 1.00022 0.0328287 6.77805
0 1.0002 0.0328347 6.74262
0 1.00018 0.0328331 6.91405
0 1.00016 0.0328687 7.14742
0 1.00017 0.0354488 10.8405
0 1.0002 0.0328546 6.95889
0 1.00022 0.0328298 6.86019
0 1.00022 0.032833 6.80363
0 1.00021 0.0328339 6.82417
0 1.00021 0.0328334 6.80292
0 1.00017 0.0328698 7.0044
0 1.00015 0.0328528 7.11864
0 1.00019 0.0328662 7.30878
0 1.00024 0.0351029 1.4051
0 1.0002 0.0328421 6.78348
0 1.00019 0.032837 6.86737
0 1.00018 0.032844 6.99555
0 1.00017 0.0328807 7.22572
0 1.00014 0.0345484 7.81057
0 1.00019 0.0328556 6.92202
0 1.00019 0.032849 6.87942
0 1.00019 0.0328535 6.862
0 1.00016 0.0328754 7.00761
0 1.00015 0.0328679 7.18809
0 1.00014 0.0328609 7.29443
0 1.00018 0.0338805 8.27408
0 1.00019 0.0328487 6.9221
0 1.00018 0.0328538 7.11341
0 1.00017 0.0329011 7.42588
0 1.00017 0.0345797 9.75516
0 1.00018 0.0328541 6.95404
0 1.00016 0.0328648 6.91887
0 1.00017 0.0328603 6.91308
0 1.00016 0.0328628 6.88939
0 1.00016 0.0328739 7.16097
0 1.00019 0.0329183 7.68604
0 1.00016 0.0354951 12.3895
0 1.00018 0.0328612 7.16022
0 1.00017 0.0329137 7.57182
0 1.00015 0.0358252 20.9061
0 1.00017 0.0328558 7.09507
0 1.00016 0.0328787 7.09016
0 1.00017 0.0328621 7.05881
0 1.00023 0.0328965 7.56508
0 1.00026 0.0361799 10.6629
0 1.00021 0.0328785 7.38942
0 1.0002 0.0333817 10.3029
0 1.00024 0.0328978 7.48224
0 1.00023 0.0328848 7.43693
0 1.00026 0.0345233 10.1566
0 1.00026 0.0347975 12.561
0 1.00029 0.0359061 2.93357
VECTORS fa_u float
0.00594368 0.00246186 -0
0.00569489 0.00328633 -0
0.00643883 0.00172365 -0
0.0063535 0.000834179 -0
1e-08 0 0
0.00522599 0.00401296 -0
0.0045134 0.00451296 -0
1e-08 0 0
1e-08 0 0
0.0040611 0.00529212 -0
0.00324399 0.00562539 -0
0.00651896 1.77461e-06 -0
0.00650914 -0.000856185 0
1e-08 0 0
1e-08 0 0
1e-08 0 0
1e-08 0 0
1e-08 0 0
1e-08 0 0
1e-08 0 0
1e-08 0 0
0.00247579 0.00597864 -0
0.00169268 0.00631372 -0
1e-08 0 0
1e-08 0 0
1e-08 0 0
0.00628967 -0.00168544 0
1e-08 0 0
0.00609506 -0.00252688 0
1e-08 0 0
1e-08 0 0
1e-08 0 0
0.000843032 0.00637644 -0
1e-08 0 0
1e-08 0 0
1e-08 0 0
1e-08 0 0
1e-08 0 0
1e-08 0 0
1e-08 0 0
1e-08 0 0
1e-08 0 0
1e-08 0 0
2.07996e-06 0.00666642 -0
1e-08 0 0
1e-08 0 0
1e-08 0 0
0.00546704 -0.00315342 0
1e-08 0 0
0.00535224 -0.00410348 0
1e-08 0 0
1e-08 0 0
1e-08 0 0
1e-08 0 0
1e-08 0 0
1e-08 0 0
1e-08 0 0
1e-08 0 0
1e-08 0 0
1e-08 0 0
1e-08 0 0
1e-08 0 0
1e-08 0 0
-0.000849878 0.0064426 0
1e-08 0 0
1e-08 0 0
1e-08 0 0
1e-08 0 0
1e-08 0 0
0.00458032 -0.00458457 0
1e-08 0 0
0.00392748 -0.00511691 0
1e-08 0 0
1e-08 0 0
1e-08 0 0
1e-08 0 0
1e-08 0 0
1e-08 0 0
1e-08 0 0
1e-08 0 0
1e-08 0 0
1e-08 0 0
1e-08 0 0
1e-08 0 0
1e-08 0 0
-0.00170649 0.00635814 0
1e-08 0 0
1e-08 0 0
1e-08 0 0
1e-08 0 0
1e-08 0 0
1e-08 0 0
0.0032915 -0.00569793 0
1e-08 0 0
1e-08 0 0
1e-08 0 0
1e-08 0 0
1e-08 0 0
0.00250371 -0.00604684 0
1e-08 0 0
1e-08 0 0
1e-08 0 0
1e-08 0 0
1e-08 0 0
1e-08 0 0
1e-08 0 0
1e-08 0 0
1e-08 0 0
1e-08 0 0
-0.00244032 0.00589228 0
1e-08 0 0
1e-08 0 0
1e-08 0 0
1e-08 0 0
1e-08 0 0
1e-08 0 0
1e-08 0 0
1e-08 0 0
1e-08 0 0
1e-08 0 0
1e-08 0 0
1e-08 0 0
1e-08 0 0
1e-08 0 0
0.00169305 -0.00632756 0
1e-08 0 0
1e-08 0 0
1e-08 0 0
1e-08 0 0
1e-08 0 0
1e-08 0 0
1e-08 0 0
1e-08 0 0
1e-08 0 0
-0.00330805 0.0057339 0
1e-08 0 0
1e-08 0 0
1e-08 0 0
1e-08 0 0
1e-08 0 0
1e-08 0 0
1e-08 0 0
1e-08 0 0
1e-08 0 0
1e-08 0 0
1e-08 0 0
1e-08 0 0
1e-08 0 0
1e-08 0 0
1e-08 0 0
0.000837741 -0.00635981 0
1e-08 0 0
1e-08 0 0
1e-08 0 0
1e-08 0 0
1e-08 0 0
1e-08 0 0
1e-08 0 0
1e-08 0 0
1e-08 0 0
1e-08 0 0
-0.00398086 0.00518569 0
1e-08 0 0
1e-08 0 0
1e-08 0 0
1e-08 0 0
1e-08 0 0
1e-08 0 0
1e-08 0 0
1e-08 0 0
1e-08 0 0
1e-08 0 0
1e-08 0 0
1e-08 0 0
9.75311e-07 -0.0066227 0
1e-08 0 0
1e-08 0 0
1e-08 0 0
1e-08 0 0
1e-08 0 0
1e-08 0 0
1e-08 0 0
1e-08 0 0
1e-08 0 0
1e-08 0 0
1e-08 0 0
1e-08 0 0
-0.00452925 0.00453221 0
1e-08 0 0
1e-08 0 0
1e-08 0 0
1e-08 0 0
1e-08 0 0
1e-08 0 0
1e-08 0 0
1e-08 0 0
1e-08 0 0
1e-08 0 0
1e-08 0 0
1e-08 0 0
1e-08 0 0
-0.000855705 -0.00647986 0
1e-08 0 0
1e-08 0 0
1e-08 0 0
1e-08 0 0
1e-08 0 0
1e-08 0 0
1e-08 0 0
1e-08 0 0
-0.00533068 0.0040899 0
1e-08 0 0
1e-08 0 0
1e-08 0 0
1e-08 0 0
1e-08 0 0
1e-08 0 0
1e-08 0 0
1e-08 0 0
1e-08 0 0
1e-08 0 0
1e-08 0 0
-0.00167674 -0.00625307 0
1e-08 0 0
1e-08 0 0
1e-08 0 0
1e-08 0 0
1e-08 0 0
1e-08 0 0
1e-08 0 0
-0.00555268 0.00320265 0
1e-08 0 0
1e-08 0 0
1e-08 0 0
1e-08 0 0
1e-08 0 0
1e-08 0 0
1e-08 0 0
1e-08 0 0
1e-08 0 0
1e-08 0 0
1e-08 0 0
-0.00248733 -0.00600812 0
1e-08 0 0
1e-08 0 0
1e-08 0 0
1e-08 0 0
1e-08 0 0
-0.00606562 0.00251209 0
1e-08 0 0
1e-08 0 0
1e-08 0 0
1e-08 0 0
1e-08 0 0
1e-08 0 0
1e-08 0 0
1e-08 0 0
-0.00332114 -0.00574902 0
1e-08 0 0
1e-08 0 0
1e-08 0 0
1e-08 0 0
-0.00631201 0.00168928 0
1e-08 0 0
1e-08 0 0
1e-08 0 0
1e-08 0 0
1e-08 0 0
1e-08 0 0
-0.00387011 -0.00504378 0
1e-08 0 0
1e-08 0 0
1e-08 0 0
-0.00629074 0.00083187 0
1e-08 0 0
1e-08 0 0
1e-08 0 0
1e-08 0 0
1e-08 0 0
1e-08 0 0
-0.00463773 -0.0046441 0
1e-08 0 0
1e-08 0 0
-0.00678704 1.22512e-06 0
1e-08 0 0
1e-08 0 0
1e-08 0 0
1e-08 0 0
-0.00531195 -0.00407314 0
1e-08 0 0
-0.00632041 -0.000834514 0
1e-08 0 0
1e-08 0 0
-0.00552448 -0.00318628 0
-0.00639286 -0.00171335 0
-0.00600744 -0.00249147 0
