# vtk DataFile Version 2.0
CellBP Time: 4.96
ASCII
DATASET UNSTRUCTURED_GRID
POINTS 296 double
-9.0104 -3.69359 0
-8.44749 -4.85161 0
-9.40921 -2.4673 0
-9.6792 -1.22417 0
-8.16766 -2.73613 0
-7.72771 -5.92268 0
-6.87551 -6.89158 0
-7.72709 -3.77071 0
-7.1633 -4.74928 0
-5.93511 -7.75828 0
-4.89022 -8.48854 0
-9.78122 0.0407568 0
-9.71719 1.32457 0
-8.48184 -1.63566 0
-8.62955 -0.512111 0
-7.40827 -1.93876 0
-7.03832 -2.81452 0
-6.49612 -5.66328 0
-5.71441 -6.48609 0
-6.60977 -3.78041 0
-6.066 -4.56541 0
-3.73392 -9.0563 0
-2.50269 -9.46201 0
-4.83211 -7.19804 0
-3.86882 -7.78283 0
-8.64631 0.631651 0
-9.48827 2.60399 0
-8.49321 1.73786 0
-9.07504 3.82632 0
-7.57863 -0.894981 0
-7.64172 0.0870192 0
-6.79268 -1.27039 0
-1.2275 -9.70455 0
-6.29166 -2.08984 0
-6.16676 -2.97214 0
-5.41453 -5.37008 0
-4.70387 -6.01228 0
-5.52585 -3.66935 0
-5.14294 -4.46274 0
-2.83201 -8.24856 0
-1.75687 -8.5094 0
-3.86893 -6.6237 0
-3.02293 -7.05743 0
0.0539922 -9.77152 0
-7.56527 1.1225 0
-8.22888 2.87783 0
-7.42084 2.06621 0
-8.47065 4.96113 0
-7.75227 3.9058 0
-7.72146 6.01166 0
-6.63513 -0.37723 0
-6.81349 0.547935 0
-5.65936 -0.981357 0
-0.581771 -8.66794 0
0.550444 -8.60855 0
-5.1955 -2.42263 0
-4.38902 -4.99743 0
-3.82521 -5.67969 0
-4.35027 -3.73278 0
-2.03663 -7.45612 0
-1.12193 -7.66541 0
-2.94552 -6.00725 0
-2.28136 -6.52647 0
1.32292 -9.66193 0
-6.56581 1.39191 0
-7.03712 3.05176 0
-6.53817 2.32287 0
-7.16131 4.88723 0
-6.59401 3.91873 0
-6.87379 6.96862 0
-6.44809 5.77534 0
-5.91892 7.82698 0
-4.3933 -1.1665 0
-5.71674 0.498664 0
-4.59629 -0.0213075 0
-0.00715997 -7.70718 0
1.69153 -8.46144 0
0.912925 -7.60653 0
-3.98175 -2.36765 0
-3.46319 -1.38237 0
-3.24093 -4.72864 0
-3.23011 -3.22286 0
-1.36688 -6.56848 0
-0.518079 -6.89978 0
-1.95458 -5.4589 0
2.5813 -9.4124 0
-5.41544 2.00299 0
-5.98374 3.00714 0
-5.99025 4.76484 0
-5.65338 3.90331 0
-5.64457 6.57933 0
-5.34605 5.49744 0
-4.87439 8.57269 0
-4.73924 7.24358 0
-3.47227 -0.420695 0
-4.38638 1.23112 0
-3.67096 0.585936 0
-4.00147 2.30048 0
-3.72676 9.14413 0
2.78335 -8.13268 0
0.38589 -6.65732 0
1.95711 -7.34995 0
1.25121 -6.7497 0
-2.43151 -0.865417 0
-2.8207 -2.1136 0
-2.27208 -4.0448 0
-2.30732 -2.94092 0
-0.452201 -5.75687 0
-1.20826 -4.44432 0
3.80021 -9.01156 0
-4.70946 3.33137 0
-4.99258 4.49194 0
-4.55277 6.1387 0
-4.45044 5.24177 0
-3.77682 7.84477 0
-3.74378 6.68603 0
-2.73102 8.2551 0
-1.63924 -0.130189 0
-1.44012 -0.882014 0
-2.47552 0.514302 0
-3.21693 1.43885 0
-3.19316 3.27304 0
-2.87654 2.36323 0
-1.35175 0.635429 0
-2.50062 9.53907 0
3.83181 -7.69692 0
2.86937 -6.96621 0
0.91396 -5.69898 0
1.99993 -6.25727 0
-1.67076 -1.98036 0
-1.41884 -3.24492 0
0.0815684 -4.67402 0
-0.554412 -3.65831 0
4.8149 -7.13983 0
4.95175 -8.44848 0
-3.71091 4.46779 0
-3.66134 5.63001 0
-2.82274 7.12989 0
-2.94982 6.21905 0
-1.63371 8.57239 0
-1.89552 7.47016 0
-2.30769 3.99562 0
-0.724448 -1.31954 0
-0.831895 -0.250616 0
-1.93095 1.68765 0
-2.10804 2.85985 0
-1.30048 3.51555 0
-0.87282 1.35966 0
-0.282958 0.464628 0
-0.527396 8.72277 0
-1.23358 9.78018 0
1.08292 -4.48893 0
3.79319 -6.52005 0
2.89761 -5.93273 0
2.05602 -5.29926 0
4.67051 -6.0352 0
-0.550458 -2.46116 0
0.489618 -3.42326 0
0.0559873 -1.60536 0
1.45102 -3.62013 0
5.74199 -6.45712 0
6.02152 -7.73053 0
-2.43097 5.25161 0
-2.08014 6.40414 0
-0.882867 7.66934 0
-1.23579 6.80101 0
0.0908012 7.75758 0
-1.12904 4.43673 0
0.150607 -0.610969 0
-0.804371 2.49311 0
-0.341862 3.58031 0
0.0561769 1.51734 0
0.734841 0.477528 0
0.640344 8.74519 0
0.0443946 9.88385 0
2.32868 -4.19196 0
3.76139 -5.48541 0
2.92392 -5.0822 0
5.46537 -5.3576 0
4.58524 -5.13472 0
0.632127 -2.28634 0
1.24221 -2.91628 0
0.757032 -1.3886 0
2.12946 -3.08534 0
2.94396 -3.40734 0
6.0491 -4.68849 0
6.5364 -5.65036 0
6.98436 -6.871 0
-0.994916 5.72294 0
-0.35364 6.76432 0
1.10788 7.6571 0
0.56015 6.96892 0
-0.00170004 4.67232 0
0.59271 3.79448 0
1.33191 -0.640148 0
0.525934 2.6399 0
0.953621 1.57489 0
1.89896 0.212435 0
1.59959 1.06491 0
2.10832 7.4827 0
1.77894 8.59031 0
1.33282 9.80842 0
3.74486 -4.24595 0
5.01849 -4.33052 0
5.74958 -3.84497 0
3.72413 -3.13719 0
1.80034 -1.87829 0
2.97838 -2.53839 0
6.68734 -3.87466 0
7.26916 -4.81157 0
7.84881 -5.92507 0
0.485326 5.79551 0
1.41526 6.64913 0
2.34793 6.58292 0
1.19192 4.50671 0
1.47137 3.36843 0
2.41572 -0.687442 0
2.80638 0.143133 0
1.77268 2.15311 0
2.59323 1.1418 0
3.03817 7.07695 0
2.8698 8.26696 0
2.60515 9.5614 0
4.82991 -3.25137 0
6.03018 -3.04412 0
4.11922 -2.2415 0
3.21035 -1.48946 0
6.64699 -2.28301 0
7.14145 -3.00231 0
7.86005 -3.86425 0
8.58293 -4.88227 0
2.00281 5.52848 0
3.03378 6.06505 0
2.3446 4.07919 0
2.39655 3.03145 0
3.49037 -0.455851 0
3.58355 0.614971 0
2.93306 2.267 0
3.50485 1.51162 0
3.93389 5.80953 0
3.92102 6.69508 0
3.93121 7.83398 0
3.83367 9.15199 0
5.49799 -1.88819 0
4.4582 -1.11596 0
6.62359 -1.31681 0
7.49363 -2.00506 0
8.28541 -2.82597 0
9.15449 -3.72987 0
3.35266 4.80191 0
3.28763 3.34065 0
4.63593 0.133748 0
4.44935 1.28925 0
3.9931 2.40512 0
4.4638 5.06009 0
4.7519 6.09132 0
4.90224 7.27215 0
4.98642 8.58097 0
5.79896 -0.434052 0
6.8996 -0.48861 0
7.65174 -1.06553 0
8.56507 -1.72389 0
9.56163 -2.49948 0
4.4544 3.75786 0
5.71001 1.06501 0
5.25322 2.47791 0
5.24439 4.52598 0
5.48721 5.42113 0
5.78801 6.55714 0
6.02946 7.8489 0
6.72097 0.438524 0
7.72327 -0.0292448 0
8.73209 -0.570452 0
9.80591 -1.22509 0
6.81937 1.30339 0
5.57788 3.69254 0
6.39462 2.13267 0
6.22223 3.00711 0
6.13474 4.58195 0
6.54803 5.72244 0
6.98024 6.99026 0
7.64305 0.9391 0
8.71207 0.561838 0
9.87617 0.0603479 0
7.45382 1.94961 0
6.64338 3.79869 0
7.09126 2.8651 0
7.21472 4.77892 0
7.84032 6.02923 0
8.55022 1.68997 0
9.76477 1.32891 0
8.23118 2.76774 0
7.80766 3.82735 0
8.55835 4.96086 0
9.51984 2.58922 0
9.1211 3.8088 0
CELLS 542 2168
3 2 0 4
3 0 1 7
3 4 0 7
3 1 5 8
3 7 1 8
3 3 2 13
3 13 2 4
3 11 3 14
3 14 3 13
3 13 4 15
3 4 7 16
3 15 4 16
3 5 6 17
3 8 5 17
3 6 9 18
3 17 6 18
3 7 8 19
3 16 7 19
3 8 17 20
3 19 8 20
3 9 10 23
3 18 9 23
3 10 21 24
3 23 10 24
3 12 11 25
3 25 11 14
3 26 12 27
3 27 12 25
3 14 13 29
3 29 13 15
3 25 14 30
3 30 14 29
3 29 15 31
3 15 16 33
3 31 15 33
3 16 19 34
3 33 16 34
3 17 18 35
3 20 17 35
3 18 23 36
3 35 18 36
3 19 20 37
3 34 19 37
3 20 35 38
3 37 20 38
3 21 22 39
3 24 21 39
3 22 32 40
3 39 22 40
3 23 24 41
3 36 23 41
3 24 39 42
3 41 24 42
3 27 25 44
3 44 25 30
3 28 26 45
3 45 26 27
3 45 27 46
3 46 27 44
3 47 28 48
3 48 28 45
3 30 29 50
3 50 29 31
3 44 30 51
3 51 30 50
3 50 31 52
3 31 33 52
3 32 43 53
3 40 32 53
3 53 43 54
3 33 34 55
3 34 37 55
3 33 55 52
3 35 36 56
3 38 35 56
3 36 41 57
3 56 36 57
3 37 38 58
3 38 56 58
3 37 58 55
3 39 40 59
3 42 39 59
3 40 53 60
3 59 40 60
3 41 42 61
3 57 41 61
3 42 59 62
3 61 42 62
3 43 63 54
3 46 44 64
3 64 44 51
3 48 45 65
3 65 45 46
3 65 46 66
3 66 46 64
3 49 47 67
3 67 47 48
3 67 48 68
3 68 48 65
3 69 49 70
3 70 49 67
3 52 55 72
3 64 51 73
3 51 50 73
3 50 52 73
3 73 52 74
3 74 52 72
3 53 54 75
3 60 53 75
3 54 63 76
3 54 76 77
3 75 54 77
3 55 58 78
3 72 55 78
3 72 78 79
3 56 57 80
3 57 61 80
3 56 80 58
3 58 80 81
3 78 58 81
3 59 60 82
3 62 59 82
3 60 75 83
3 82 60 83
3 61 62 84
3 62 82 84
3 61 84 80
3 63 85 76
3 66 64 86
3 64 73 86
3 68 65 87
3 87 65 66
3 87 66 86
3 70 67 88
3 88 67 68
3 88 68 89
3 89 68 87
3 71 69 90
3 90 69 70
3 90 70 91
3 91 70 88
3 92 71 93
3 93 71 90
3 74 72 94
3 94 72 79
3 86 73 95
3 95 73 74
3 95 74 96
3 96 74 94
3 97 86 95
3 76 85 99
3 75 77 100
3 83 75 100
3 76 99 101
3 77 76 101
3 77 101 102
3 100 77 102
3 94 79 103
3 78 81 104
3 79 78 104
3 79 104 103
3 80 84 105
3 81 80 105
3 81 105 106
3 104 81 106
3 82 83 107
3 83 100 107
3 82 107 84
3 84 107 108
3 105 84 108
3 85 109 99
3 89 87 110
3 87 86 110
3 110 86 97
3 91 88 111
3 111 88 89
3 111 89 110
3 93 90 112
3 112 90 91
3 112 91 113
3 113 91 111
3 98 92 114
3 114 92 93
3 114 93 115
3 115 93 112
3 116 98 114
3 117 103 118
3 96 94 119
3 94 103 119
3 119 103 117
3 97 95 120
3 120 95 96
3 120 96 119
3 121 110 97
3 121 97 122
3 122 97 120
3 123 119 117
3 124 98 116
3 99 109 125
3 99 125 126
3 101 99 126
3 100 102 127
3 100 127 107
3 101 126 128
3 102 101 128
3 102 128 127
3 104 106 129
3 104 129 103
3 103 129 118
3 105 108 130
3 106 105 130
3 106 130 129
3 107 127 131
3 108 107 131
3 108 131 132
3 108 132 130
3 109 134 125
3 125 134 133
3 113 111 135
3 111 110 135
3 135 110 121
3 115 112 136
3 136 112 113
3 136 113 135
3 116 114 137
3 137 114 115
3 137 115 138
3 138 115 136
3 139 124 116
3 139 116 140
3 140 116 137
3 141 135 121
3 118 129 142
3 118 142 143
3 117 118 143
3 123 117 143
3 122 120 144
3 120 119 144
3 144 119 123
3 141 121 145
3 145 121 122
3 145 122 144
3 146 141 145
3 147 144 123
3 147 123 148
3 143 148 123
3 150 124 139
3 149 150 139
3 131 127 151
3 125 133 152
3 126 125 152
3 126 152 153
3 128 126 153
3 128 153 154
3 128 154 127
3 127 154 151
3 152 133 155
3 130 132 156
3 130 156 129
3 129 156 142
3 131 151 157
3 132 131 157
3 132 157 156
3 156 158 142
3 157 151 159
3 133 160 155
3 134 161 133
3 133 161 160
3 138 136 162
3 136 135 162
3 162 135 141
3 140 137 163
3 163 137 138
3 163 138 162
3 149 139 164
3 164 139 140
3 164 140 165
3 165 140 163
3 166 149 164
3 167 162 141
3 167 141 146
3 142 158 168
3 143 142 168
3 143 168 148
3 146 145 169
3 145 144 169
3 169 144 147
3 170 167 146
3 170 146 169
3 171 169 147
3 171 147 148
3 171 148 172
3 168 172 148
3 173 149 166
3 174 150 149
3 173 174 149
3 154 175 151
3 151 175 159
3 152 155 176
3 153 152 176
3 153 176 177
3 153 177 154
3 154 177 175
3 155 160 178
3 155 178 179
3 176 155 179
3 156 157 180
3 156 180 158
3 157 159 181
3 157 181 180
3 158 180 182
3 158 182 168
3 159 175 183
3 159 183 181
3 175 184 183
3 160 186 178
3 178 186 185
3 161 187 160
3 160 187 186
3 165 163 188
3 163 162 188
3 188 162 167
3 166 164 189
3 189 164 165
3 189 165 188
3 190 173 166
3 190 166 191
3 191 166 189
3 192 188 167
3 192 167 170
3 193 192 170
3 182 194 168
3 194 172 168
3 193 170 195
3 170 169 195
3 195 169 171
3 196 195 171
3 196 171 172
3 194 197 172
3 197 198 172
3 198 196 172
3 200 173 190
3 199 200 190
3 201 174 173
3 200 201 173
3 176 179 202
3 177 176 202
3 177 202 175
3 175 202 184
3 178 185 203
3 178 203 179
3 179 203 202
3 203 185 204
3 202 205 184
3 183 206 181
3 180 181 206
3 180 206 182
3 182 206 194
3 183 184 207
3 205 207 184
3 183 207 206
3 185 208 204
3 186 209 185
3 185 209 208
3 187 210 186
3 186 210 209
3 191 189 211
3 189 188 211
3 211 188 192
3 199 190 212
3 212 190 191
3 212 191 211
3 213 199 212
3 214 211 192
3 214 192 193
3 215 214 193
3 215 193 195
3 206 216 194
3 216 197 194
3 216 217 197
3 215 195 218
3 218 195 196
3 198 218 196
3 217 219 197
3 219 218 198
3 197 219 198
3 220 199 213
3 221 200 199
3 220 221 199
3 222 201 200
3 221 222 200
3 203 204 223
3 203 223 202
3 202 223 205
3 204 208 224
3 204 224 223
3 205 223 225
3 205 225 207
3 207 225 226
3 207 226 206
3 226 216 206
3 208 228 224
3 224 228 227
3 209 229 208
3 229 228 208
3 210 230 209
3 209 230 229
3 213 212 231
3 212 211 231
3 231 211 214
3 232 220 213
3 232 213 231
3 233 231 214
3 233 214 215
3 234 233 215
3 234 215 218
3 226 235 216
3 235 217 216
3 235 236 217
3 217 236 219
3 237 234 218
3 237 218 219
3 236 238 219
3 238 237 219
3 240 220 232
3 239 240 232
3 241 221 220
3 240 241 220
3 242 222 221
3 241 242 221
3 224 227 243
3 224 243 223
3 223 243 225
3 225 243 244
3 225 244 226
3 226 244 235
3 227 245 243
3 228 246 227
3 227 246 245
3 229 247 228
3 228 247 246
3 230 248 229
3 229 248 247
3 239 232 249
3 232 231 249
3 249 231 233
3 250 249 233
3 250 233 234
3 237 250 234
3 244 251 235
3 235 251 236
3 251 252 236
3 236 252 238
3 252 253 238
3 253 250 237
3 253 237 238
3 254 239 249
3 255 240 239
3 254 255 239
3 256 241 240
3 255 256 240
3 257 242 241
3 256 257 241
3 245 258 243
3 243 258 244
3 244 258 251
3 245 259 258
3 246 260 245
3 245 260 259
3 247 261 246
3 246 261 260
3 248 262 247
3 247 262 261
3 254 249 263
3 263 249 250
3 253 263 250
3 258 264 251
3 251 264 252
3 264 265 252
3 265 263 253
3 252 265 253
3 266 254 263
3 267 255 254
3 266 267 254
3 268 256 255
3 267 268 255
3 269 257 256
3 268 269 256
3 259 270 258
3 270 264 258
3 260 271 259
3 259 271 270
3 261 272 260
3 260 272 271
3 262 273 261
3 273 272 261
3 270 274 264
3 275 266 263
3 275 263 265
3 274 276 264
3 276 265 264
3 276 277 265
3 277 275 265
3 278 267 266
3 275 278 266
3 279 268 267
3 278 279 267
3 280 269 268
3 279 280 268
3 271 281 270
3 270 281 274
3 272 282 271
3 271 282 281
3 273 283 272
3 272 283 282
3 281 284 274
3 274 284 276
3 285 278 275
3 277 285 275
3 284 286 276
3 286 285 277
3 276 286 277
3 287 279 278
3 285 287 278
3 288 280 279
3 287 288 279
3 282 289 281
3 281 289 284
3 283 290 282
3 282 290 289
3 289 291 284
3 284 291 286
3 291 292 286
3 292 287 285
3 286 292 285
3 293 288 287
3 292 293 287
3 290 294 289
3 289 294 291
3 294 295 291
3 295 293 292
3 291 295 292
CELL_TYPES 542
5
5
5
5
5
5
5
5
5
5
5
5
5
5
5
5
5
5
5
5
5
5
5
5
5
5
5
5
5
5
5
5
5
5
5
5
5
5
5
5
5
5
5
5
5
5
5
5
5
5
5
5
5
5
5
5
5
5
5
5
5
5
5
5
5
5
5
5
5
5
5
5
5
5
5
5
5
5
5
5
5
5
5
5
5
5
5
5
5
5
5
5
5
5
5
5
5
5
5
5
5
5
5
5
5
5
5
5
5
5
5
5
5
5
5
5
5
5
5
5
5
5
5
5
5
5
5
5
5
5
5
5
5
5
5
5
5
5
5
5
5
5
5
5
5
5
5
5
5
5
5
5
5
5
5
5
5
5
5
5
5
5
5
5
5
5
5
5
5
5
5
5
5
5
5
5
5
5
5
5
5
5
5
5
5
5
5
5
5
5
5
5
5
5
5
5
5
5
5
5
5
5
5
5
5
5
5
5
5
5
5
5
5
5
5
5
5
5
5
5
5
5
5
5
5
5
5
5
5
5
5
5
5
5
5
5
5
5
5
5
5
5
5
5
5
5
5
5
5
5
5
5
5
5
5
5
5
5
5
5
5
5
5
5
5
5
5
5
5
5
5
5
5
5
5
5
5
5
5
5
5
5
5
5
5
5
5
5
5
5
5
5
5
5
5
5
5
5
5
5
5
5
5
5
5
5
5
5
5
5
5
5
5
5
5
5
5
5
5
5
5
5
5
5
5
5
5
5
5
5
5
5
5
5
5
5
5
5
5
5
5
5
5
5
5
5
5
5
5
5
5
5
5
5
5
5
5
5
5
5
5
5
5
5
5
5
5
5
5
5
5
5
5
5
5
5
5
5
5
5
5
5
5
5
5
5
5
5
5
5
5
5
5
5
5
5
5
5
5
5
5
5
5
5
5
5
5
5
5
5
5
5
5
5
5
5
5
5
5
5
5
5
5
5
5
5
5
5
5
5
5
5
5
5
5
5
5
5
5
5
5
5
5
5
5
5
5
5
5
5
5
5
5
5
5
5
5
5
5
5
5
5
5
5
5
5
5
5
5
5
5
5
5
5
5
5
5
5
5
5
5
5
5
5
5
5
5
5
5
5
5
5
5
5
5
5
5
5
5
5
5
5
5
5
5
5
5
5
5
5
5
5
5
5
5
5
5
5
5
5
5
5
5
5
5
5
5
5
5
5
5
5
5
5
5
5
5
5
5
5
5
5
POINT_DATA 296
SCALARS concentrations float 4
LOOKUP_TABLE default
0 0.965662 0.155002 14.4111
0 0.965652 0.155073 17.4107
0 0.965634 0.156175 16.6067
0 0.965654 0.155955 12.4162
0 0.965635 0.0934313 7.186
0 0.965614 0.152286 19.3338
0 0.96567 0.153167 11.1398
0 0.965652 0.0937018 7.17743
0 0.96562 0.0938274 7.22219
0 0.965586 0.150967 21.0471
0 0.965652 0.15686 14.5728
0 0.965682 0.151797 23.3585
0 0.965663 0.151677 14.8979
0 0.965622 0.0934587 6.96194
0 0.965642 0.0929455 7.29498
0 0.965614 0.0935305 7.2492
0 0.965624 0.0937422 7.23791
0 0.965642 0.093034 6.9659
0 0.965629 0.092934 6.55768
0 0.965623 0.093934 7.09355
0 0.965625 0.0933651 7.12741
0 0.965684 0.153859 18.2601
0 0.96561 0.1495 15.6936
0 0.965603 0.0935434 7.61088
0 0.965656 0.0936497 7.61142
0 0.965647 0.0936087 7.53461
0 0.965665 0.149142 11.0356
0 0.965645 0.0938338 7.54712
0 0.965755 0.149806 11.5906
0 0.965604 0.0934331 7.36812
0 0.965602 0.0935639 7.49267
0 0.96561 0.0933064 7.29477
0 0.965697 0.152139 12.6499
0 0.965612 0.0934811 6.96772
0 0.965614 0.0932374 7.08835
0 0.965631 0.0930943 7.13108
0 0.965621 0.092957 7.23592
0 0.965619 0.0926482 7.31166
0 0.965625 0.0926787 7.31182
0 0.965625 0.0942907 8.07816
0 0.965646 0.0937074 6.29429
0 0.965614 0.0934645 6.27728
0 0.965614 0.0942657 8.39154
0 0.965662 0.1492 9.98515
0 0.965617 0.0940472 7.30037
0 0.965699 0.101185 8.984
0 0.96566 0.103107 9.79175
0 0.965709 0.151343 9.8291
0 0.965725 0.0944424 6.43499
0 0.96563 0.149309 17.3688
0 0.965608 0.0941578 7.54443
0 0.965613 0.093134 7.15857
0 0.965614 0.0934685 7.31959
0 0.965681 0.0935175 7.40063
0 0.965669 0.0947778 7.68659
0 0.965615 0.0939904 7.35394
0 0.965623 0.0933807 7.105
0 0.965623 0.094185 7.94209
0 0.965621 0.0934103 7.63478
0 0.965627 0.0954573 5.26468
0 0.965649 0.0940797 5.81502
0 0.965621 0.0943288 6.10467
0 0.965622 0.0964676 9.00425
0 0.965686 0.154862 15.2014
0 0.965629 0.0954445 6.76562
0 0.965677 0.101218 5.40767
0 0.965643 0.0966251 6.59029
0 0.965653 0.0950101 8.35917
0 0.96566 0.0961899 6.92012
0 0.965757 0.151283 9.51705
0 0.965669 0.0933849 6.74524
0 0.965813 0.148663 9.60424
0 0.965619 0.0943872 6.97897
0 0.965622 0.0941326 6.63302
0 0.96562 0.0948719 7.21599
0 0.965657 0.0938541 8.35396
0 0.965674 0.0941017 7.32221
0 0.965657 0.0940934 8.50398
0 0.965628 0.0936752 7.31532
0 0.965636 0.0959194 8.30509
0 0.965623 0.0933309 7.58712
0 0.965627 0.0944812 8.06022
0 0.965631 0.0947475 7.85164
0 0.965638 0.0943158 8.53356
0 0.965629 0.0964247 7.04418
0 0.965669 0.151827 10.8793
0 0.965629 0.0958602 7.21734
0 0.965637 0.0974479 7.19642
0 0.965649 0.0938535 7.87586
0 0.965642 0.0937182 7.59109
0 0.965752 0.0933182 7.16414
0 0.965655 0.0934277 7.73893
0 0.965759 0.151044 11.0492
0 0.965753 0.0932368 7.56107
0 0.965627 0.0940153 7.35549
0 0.965631 0.0944572 6.778
0 0.965631 0.0933259 7.05479
0 0.965634 0.0938469 7.01824
0 0.965622 0.150275 13.5888
0 0.965659 0.0952999 7.94859
0 0.965638 0.0941126 8.53634
0 0.965649 0.0938297 7.48182
0 0.965636 0.0942898 8.39431
0 0.965647 0.0940935 6.87003
0 0.965643 0.0997876 6.2627
0 0.965631 0.0931565 6.8841
0 0.965637 0.0929959 6.92044
0 0.965629 0.0940219 5.45327
0 0.965632 0.093415 6.07798
0 0.965663 0.154439 15.7268
0 0.965629 0.0938484 7.32605
0 0.965628 0.0940177 6.95759
0 0.965669 0.0938076 7.90779
0 0.965628 0.0937492 8.07847
0 0.965681 0.0929906 7.66363
0 0.965662 0.0936655 7.63287
0 0.965611 0.0940311 8.26145
0 0.965657 0.0933124 6.97984
0 0.965658 0.093031 6.78353
0 0.965646 0.0936629 6.78111
0 0.965639 0.0932401 7.33278
0 0.96563 0.0932361 6.82297
0 0.965636 0.093833 6.89499
0 0.965664 0.0935059 7.06192
0 0.965613 0.152983 16.308
0 0.965661 0.0967936 7.51419
0 0.965636 0.0966501 5.35503
0 0.965625 0.0932177 7.9179
0 0.965618 0.0943183 7.93336
0 0.965651 0.0934031 6.87629
0 0.965642 0.092718 6.52667
0 0.965628 0.0928438 7.93653
0 0.965639 0.0928815 8.12289
0 0.965659 0.0963756 7.91682
0 0.965667 0.149796 18.7149
0 0.965624 0.0933427 8.06491
0 0.965626 0.0938107 8.01085
0 0.965641 0.0941001 7.81127
0 0.96562 0.0939746 7.87345
0 0.965651 0.0934635 6.81576
0 0.965631 0.0938199 7.74341
0 0.965629 0.0934045 6.35125
0 0.965661 0.0923361 6.61444
0 0.965666 0.0932879 6.82096
0 0.965654 0.0941713 6.51867
0 0.96564 0.0929865 7.59807
0 0.965639 0.0934822 6.7559
0 0.96567 0.0930087 6.98104
0 0.965672 0.0925676 6.66153
0 0.965668 0.093151 6.8405
0 0.965701 0.152084 13.3356
0 0.965624 0.0929754 6.03838
0 0.965651 0.103919 10.1375
0 0.965629 0.0980751 8.50294
0 0.965624 0.0950652 6.51369
0 0.965641 0.0955348 8.71376
0 0.96565 0.0928698 6.43039
0 0.965636 0.0932756 6.12813
0 0.96566 0.0936594 5.96312
0 0.965622 0.0931613 6.33527
0 0.965625 0.0950948 6.04658
0 0.965639 0.154148 11.3706
0 0.965621 0.09389 8.03318
0 0.965618 0.0939212 7.61895
0 0.965632 0.0936523 7.3275
0 0.965623 0.0942661 7.18939
0 0.965629 0.09413 7.48868
0 0.965631 0.0931363 7.00506
0 0.96567 0.0925973 6.46951
0 0.965657 0.0940355 6.90827
0 0.965647 0.094453 7.22101
0 0.965668 0.0921475 6.55282
0 0.965668 0.0924173 6.11932
0 0.965629 0.0942383 7.45196
0 0.965667 0.154894 16.7594
0 0.965623 0.0936842 7.41717
0 0.96564 0.096385 7.0145
0 0.965636 0.0964098 8.16811
0 0.965639 0.0940835 6.28563
0 0.96563 0.0977296 5.48644
0 0.965649 0.0934736 6.0714
0 0.965633 0.0933193 6.14877
0 0.965663 0.0934829 8.23761
0 0.96562 0.0936858 6.52846
0 0.965613 0.0944905 5.87252
0 0.965659 0.0961549 7.35849
0 0.965655 0.094375 8.13752
0 0.965621 0.150642 18.2658
0 0.96563 0.0940315 7.07475
0 0.965628 0.0948298 6.86507
0 0.965618 0.0953945 7.36684
0 0.965625 0.0952766 7.49304
0 0.965651 0.094572 6.8501
0 0.96566 0.0950938 6.89813
0 0.965662 0.0937921 6.04456
0 0.965657 0.0927504 7.91123
0 0.96566 0.0928505 5.85862
0 0.965656 0.0944752 5.5256
0 0.965653 0.093389 5.52907
0 0.965606 0.0959738 7.84943
0 0.965604 0.0947918 7.25252
0 0.965614 0.153597 20.7459
0 0.965615 0.0952352 8.38846
0 0.965619 0.0939339 6.31408
0 0.96563 0.094997 6.71511
0 0.965603 0.0940424 6.70927
0 0.96564 0.0940352 6.54462
0 0.965613 0.0939539 6.13791
0 0.96569 0.0945153 6.74551
0 0.965717 0.094205 5.94723
0 0.965702 0.152018 11.0318
0 0.96564 0.0947805 6.13558
0 0.965616 0.0968563 7.43563
0 0.965651 0.0989419 10.9504
0 0.965652 0.0955513 6.36675
0 0.965656 0.0942526 7.89476
0 0.965645 0.0937048 7.86247
0 0.965638 0.0973094 7.23555
0 0.965648 0.0941893 5.48491
0 0.96564 0.0946364 9.74172
0 0.965634 0.0962244 8.33969
0 0.965559 0.0947559 7.79751
0 0.965565 0.15112 16.2311
0 0.965609 0.0952403 8.47796
0 0.965637 0.100254 7.05512
0 0.965605 0.094917 6.26379
0 0.965624 0.0941073 5.82138
0 0.965653 0.0958775 6.4795
0 0.965706 0.0963469 7.27809
0 0.965737 0.0935355 7.45494
0 0.965744 0.1488 9.54471
0 0.965641 0.09702 6.69855
0 0.965657 0.0965348 7.99276
0 0.965641 0.096137 6.096
0 0.965645 0.0953237 9.80081
0 0.965622 0.0945747 5.72174
0 0.965623 0.0949094 5.24616
0 0.965641 0.0950953 9.88744
0 0.965634 0.0951261 10.0813
0 0.965638 0.0954334 5.44432
0 0.965623 0.0953923 7.57443
0 0.965526 0.0951137 6.38329
0 0.965468 0.150296 22.0321
0 0.965624 0.0957759 8.59225
0 0.965617 0.0946117 5.89098
0 0.965658 0.0971693 8.87565
0 0.9657 0.102639 8.03639
0 0.965714 0.0939862 6.59756
0 0.965725 0.148794 10.4865
0 0.965636 0.0958261 9.03302
0 0.965637 0.0947618 5.57896
0 0.96562 0.0950678 9.68345
0 0.965621 0.0951817 5.12008
0 0.965631 0.0955124 6.5348
0 0.965646 0.0954898 5.32761
0 0.965629 0.094906 5.75025
0 0.965522 0.0945425 7.09963
0 0.965446 0.149615 18.855
0 0.965633 0.099674 11.1552
0 0.965646 0.0956455 7.19928
0 0.965667 0.0947042 7.4101
0 0.965672 0.0946248 6.11699
0 0.965668 0.147998 11.0286
0 0.965631 0.0948663 5.34058
0 0.965618 0.0962799 8.47265
0 0.965616 0.0949719 7.9639
0 0.965643 0.0954644 5.12046
0 0.965639 0.0950008 5.48141
0 0.965548 0.0941506 6.6833
0 0.965467 0.151391 24.8425
0 0.965634 0.0946933 8.25427
0 0.965645 0.0952041 8.50135
0 0.965638 0.094372 6.2006
0 0.965619 0.147564 9.65998
0 0.965631 0.0953811 8.63694
0 0.965627 0.095353 4.88438
0 0.965616 0.0955076 5.74715
0 0.965617 0.0951563 5.23261
0 0.965637 0.0953484 5.13988
0 0.965592 0.0946223 6.34385
0 0.96553 0.149397 17.2521
0 0.965643 0.0950311 5.80674
0 0.965638 0.0938504 6.11977
0 0.965615 0.152479 20.5444
0 0.965633 0.0946519 5.61213
0 0.965631 0.0965684 5.64205
0 0.965626 0.0966485 7.08334
0 0.965624 0.0946611 5.35603
0 0.965595 0.150822 21.0335
0 0.965644 0.0940558 6.09945
0 0.96564 0.153396 12.9882
0 0.965637 0.0944151 5.76636
0 0.965628 0.0947094 5.52396
0 0.965625 0.15078 19.9488
0 0.965652 0.154466 18.9574
0 0.965632 0.151207 14.8247
VECTORS fa_u float
0.0068298 0.00275484 -0
0.00649129 0.00373531 -0
0.00380288 0.00102994 -0
0.00689967 0.00102339 -0
1e-08 0 0
0.00514509 0.00396475 -0
0.00304913 0.0029777 -0
1e-08 0 0
1e-08 0 0
0.00443356 0.00551167 -0
0.00464968 0.00788493 -0
0.00662321 9.87352e-05 -0
0.00619973 -0.000708561 0
1e-08 0 0
1e-08 0 0
1e-08 0 0
1e-08 0 0
1e-08 0 0
1e-08 0 0
1e-08 0 0
1e-08 0 0
0.00277579 0.00680786 -0
0.00163446 0.00631958 -0
1e-08 0 0
1e-08 0 0
1e-08 0 0
0.00825829 -0.00211974 0
1e-08 0 0
0.00946079 -0.00408438 0
1e-08 0 0
1e-08 0 0
1e-08 0 0
0.000854514 0.00705878 -0
1e-08 0 0
1e-08 0 0
1e-08 0 0
1e-08 0 0
1e-08 0 0
1e-08 0 0
1e-08 0 0
1e-08 0 0
1e-08 0 0
1e-08 0 0
-0.000124617 0.00745673 -0
1e-08 0 0
1e-08 0 0
1e-08 0 0
0.00556795 -0.00344876 0
1e-08 0 0
0.00337738 -0.00268655 0
1e-08 0 0
1e-08 0 0
1e-08 0 0
1e-08 0 0
1e-08 0 0
1e-08 0 0
1e-08 0 0
1e-08 0 0
1e-08 0 0
1e-08 0 0
1e-08 0 0
1e-08 0 0
1e-08 0 0
-0.000659375 0.00464033 0
1e-08 0 0
1e-08 0 0
1e-08 0 0
1e-08 0 0
1e-08 0 0
0.00356766 -0.00354252 0
1e-08 0 0
0.00306175 -0.00381632 0
1e-08 0 0
1e-08 0 0
1e-08 0 0
1e-08 0 0
1e-08 0 0
1e-08 0 0
1e-08 0 0
1e-08 0 0
1e-08 0 0
1e-08 0 0
1e-08 0 0
1e-08 0 0
1e-08 0 0
-0.00146718 0.00558864 0
1e-08 0 0
1e-08 0 0
1e-08 0 0
1e-08 0 0
1e-08 0 0
1e-08 0 0
0.00498637 -0.00829892 0
1e-08 0 0
1e-08 0 0
1e-08 0 0
1e-08 0 0
1e-08 0 0
0.00330231 -0.00811164 0
1e-08 0 0
1e-08 0 0
1e-08 0 0
1e-08 0 0
1e-08 0 0
1e-08 0 0
1e-08 0 0
1e-08 0 0
1e-08 0 0
1e-08 0 0
-0.00274912 0.00676059 0
1e-08 0 0
1e-08 0 0
1e-08 0 0
1e-08 0 0
1e-08 0 0
1e-08 0 0
1e-08 0 0
1e-08 0 0
1e-08 0 0
1e-08 0 0
1e-08 0 0
1e-08 0 0
1e-08 0 0
1e-08 0 0
0.00145928 -0.00572006 0
1e-08 0 0
1e-08 0 0
1e-08 0 0
1e-08 0 0
1e-08 0 0
1e-08 0 0
1e-08 0 0
1e-08 0 0
1e-08 0 0
-0.00359667 0.0062366 0
1e-08 0 0
1e-08 0 0
1e-08 0 0
1e-08 0 0
1e-08 0 0
1e-08 0 0
1e-08 0 0
1e-08 0 0
1e-08 0 0
1e-08 0 0
1e-08 0 0
1e-08 0 0
1e-08 0 0
1e-08 0 0
1e-08 0 0
0.000597343 -0.00440935 0
1e-08 0 0
1e-08 0 0
1e-08 0 0
1e-08 0 0
1e-08 0 0
1e-08 0 0
1e-08 0 0
1e-08 0 0
1e-08 0 0
1e-08 0 0
-0.00448889 0.00578397 0
1e-08 0 0
1e-08 0 0
1e-08 0 0
1e-08 0 0
1e-08 0 0
1e-08 0 0
1e-08 0 0
1e-08 0 0
1e-08 0 0
1e-08 0 0
1e-08 0 0
1e-08 0 0
8.27851e-05 -0.00752393 0
1e-08 0 0
1e-08 0 0
1e-08 0 0
1e-08 0 0
1e-08 0 0
1e-08 0 0
1e-08 0 0
1e-08 0 0
1e-08 0 0
1e-08 0 0
1e-08 0 0
1e-08 0 0
-0.00281465 0.00284868 0
1e-08 0 0
1e-08 0 0
1e-08 0 0
1e-08 0 0
1e-08 0 0
1e-08 0 0
1e-08 0 0
1e-08 0 0
1e-08 0 0
1e-08 0 0
1e-08 0 0
1e-08 0 0
1e-08 0 0
-0.000854825 -0.00678867 0
1e-08 0 0
1e-08 0 0
1e-08 0 0
1e-08 0 0
1e-08 0 0
1e-08 0 0
1e-08 0 0
1e-08 0 0
-0.00490227 0.00394054 0
1e-08 0 0
1e-08 0 0
1e-08 0 0
1e-08 0 0
1e-08 0 0
1e-08 0 0
1e-08 0 0
1e-08 0 0
1e-08 0 0
1e-08 0 0
1e-08 0 0
-0.00164804 -0.00627868 0
1e-08 0 0
1e-08 0 0
1e-08 0 0
1e-08 0 0
1e-08 0 0
1e-08 0 0
1e-08 0 0
-0.00781371 0.00464752 0
1e-08 0 0
1e-08 0 0
1e-08 0 0
1e-08 0 0
1e-08 0 0
1e-08 0 0
1e-08 0 0
1e-08 0 0
1e-08 0 0
1e-08 0 0
1e-08 0 0
-0.00280779 -0.00681952 0
1e-08 0 0
1e-08 0 0
1e-08 0 0
1e-08 0 0
1e-08 0 0
-0.00707799 0.00290719 0
1e-08 0 0
1e-08 0 0
1e-08 0 0
1e-08 0 0
1e-08 0 0
1e-08 0 0
1e-08 0 0
1e-08 0 0
-0.00458505 -0.00772606 0
1e-08 0 0
1e-08 0 0
1e-08 0 0
1e-08 0 0
-0.00630104 0.00163871 0
1e-08 0 0
1e-08 0 0
1e-08 0 0
1e-08 0 0
1e-08 0 0
1e-08 0 0
-0.00365351 -0.00457937 0
1e-08 0 0
1e-08 0 0
1e-08 0 0
-0.00694887 0.000853839 0
1e-08 0 0
1e-08 0 0
1e-08 0 0
1e-08 0 0
1e-08 0 0
1e-08 0 0
-0.00310573 -0.00309069 0
1e-08 0 0
1e-08 0 0
-0.00786157 -0.000126642 0
1e-08 0 0
1e-08 0 0
1e-08 0 0
1e-08 0 0
-0.00583418 -0.0045368 0
1e-08 0 0
-0.00420682 -0.000592751 0
1e-08 0 0
1e-08 0 0
-0.00633615 -0.00365479 0
-0.00578434 -0.00150136 0
-0.00689042 -0.00279346 0
