# vtk DataFile Version 2.0
CellBP Time: 10.04
ASCII
DATASET UNSTRUCTURED_GRID
POINTS 296 double
-8.92742 -3.65493 0
-8.37122 -4.8059 0
-9.31718 -2.43487 0
-9.59401 -1.20933 0
-8.08635 -2.7013 0
-7.65548 -5.86923 0
-6.80793 -6.83154 0
-7.64475 -3.72549 0
-7.08749 -4.69869 0
-5.88648 -7.69951 0
-4.86079 -8.43097 0
-9.70343 0.0379995 0
-9.64831 1.31203 0
-8.4041 -1.61336 0
-8.56335 -0.502473 0
-7.33159 -1.9088 0
-6.9581 -2.77437 0
-6.43186 -5.61042 0
-5.66403 -6.43952 0
-6.53468 -3.73453 0
-6.00286 -4.52127 0
-3.71266 -8.99403 0
-2.48548 -9.393 0
-4.7952 -7.14609 0
-3.85036 -7.73881 0
-8.57742 0.631452 0
-9.43078 2.58875 0
-8.43535 1.72183 0
-9.02141 3.80325 0
-7.50731 -0.878111 0
-7.57206 0.0911792 0
-6.72632 -1.24997 0
-1.21497 -9.62998 0
-6.22955 -2.06357 0
-6.10143 -2.93699 0
-5.35864 -5.32031 0
-4.66097 -5.96321 0
-5.46585 -3.63121 0
-5.09058 -4.42097 0
-2.81563 -8.19662 0
-1.74634 -8.45186 0
-3.84178 -6.57835 0
-3.01006 -7.01551 0
0.0557544 -9.68884 0
-7.50446 1.1164 0
-8.17942 2.85894 0
-7.36497 2.04741 0
-8.40707 4.92107 0
-7.70049 3.8713 0
-7.64963 5.95625 0
-6.57352 -0.369628 0
-6.75376 0.549852 0
-5.60992 -0.967686 0
-0.573379 -8.60069 0
0.548323 -8.5346 0
-5.14963 -2.39646 0
-4.34234 -4.95492 0
-3.79109 -5.63769 0
-4.31343 -3.7008 0
-2.02265 -7.40823 0
-1.11455 -7.61286 0
-2.92358 -5.96669 0
-2.27153 -6.48675 0
1.3087 -9.56961 0
-6.51181 1.38213 0
-6.98149 3.02548 0
-6.48516 2.30333 0
-7.10105 4.8421 0
-6.54249 3.88453 0
-6.80825 6.90134 0
-6.39428 5.72187 0
-5.86579 7.75729 0
-4.36597 -1.15842 0
-5.67446 0.492873 0
-4.56968 -0.0243026 0
-0.0105556 -7.64109 0
1.67436 -8.38341 0
0.899585 -7.53621 0
-3.95771 -2.35088 0
-3.453 -1.37907 0
-3.21816 -4.69442 0
-3.21234 -3.20083 0
-1.36254 -6.52237 0
-0.522229 -6.84782 0
-1.9431 -5.42583 0
2.55607 -9.32261 0
-5.37569 1.99142 0
-5.93738 2.98028 0
-5.94072 4.71779 0
-5.60937 3.86488 0
-5.59761 6.51603 0
-5.30109 5.44387 0
-4.83955 8.50933 0
-4.69745 7.17811 0
-3.46125 -0.420591 0
-4.358 1.22339 0
-3.65225 0.58365 0
-3.97735 2.29221 0
-3.70373 9.07712 0
2.75119 -8.0463 0
0.369807 -6.59814 0
1.93204 -7.27818 0
1.22843 -6.68483 0
-2.42623 -0.863251 0
-2.81155 -2.10487 0
-2.25992 -4.01911 0
-2.29648 -2.92199 0
-0.455499 -5.71452 0
-1.19965 -4.42269 0
3.76589 -8.93118 0
-4.67226 3.30605 0
-4.95093 4.4499 0
-4.51405 6.08191 0
-4.41002 5.19166 0
-3.74836 7.78326 0
-3.70984 6.61939 0
-2.71009 8.18559 0
-1.63301 -0.127317 0
-1.43579 -0.877959 0
-2.47006 0.517213 0
-3.20167 1.43583 0
-3.17167 3.25369 0
-2.86337 2.35828 0
-1.35088 0.63975 0
-2.4839 9.46137 0
3.78931 -7.61788 0
2.828 -6.88549 0
0.897232 -5.64766 0
1.97003 -6.19242 0
-1.66548 -1.97346 0
-1.41288 -3.22842 0
0.0766727 -4.64365 0
-0.548773 -3.64221 0
4.7668 -7.06582 0
4.90762 -8.37485 0
-3.68148 4.43313 0
-3.63014 5.5794 0
-2.79547 7.06339 0
-2.92526 6.16296 0
-1.62119 8.50037 0
-1.8789 7.40569 0
-2.29611 3.97174 0
-0.722631 -1.31726 0
-0.829825 -0.244159 0
-1.93069 1.68983 0
-2.1005 2.85364 0
-1.29771 3.50502 0
-0.871604 1.36409 0
-0.28413 0.469214 0
-0.521254 8.65551 0
-1.22432 9.69679 0
1.0696 -4.45328 0
3.74464 -6.43666 0
2.85956 -5.86444 0
2.02999 -5.24514 0
4.62169 -5.96656 0
-0.547146 -2.45493 0
0.487409 -3.40722 0
0.0570901 -1.60317 0
1.43809 -3.59248 0
5.68659 -6.39137 0
5.969 -7.6611 0
-2.41341 5.2115 0
-2.06065 6.35161 0
-0.873569 7.60658 0
-1.22084 6.74802 0
0.0939846 7.69787 0
-1.12644 4.41185 0
0.14859 -0.609073 0
-0.808439 2.49417 0
-0.346422 3.57237 0
0.0542889 1.52086 0
0.734585 0.477892 0
0.635802 8.68484 0
0.0416919 9.80737 0
2.30468 -4.15207 0
3.72208 -5.42059 0
2.89103 -5.02651 0
5.41658 -5.29873 0
4.54146 -5.07775 0
0.632226 -2.2824 0
1.23824 -2.9008 0
0.755463 -1.38477 0
2.1154 -3.06404 0
2.92265 -3.37673 0
6.00608 -4.64741 0
6.48254 -5.60047 0
6.92309 -6.80339 0
-0.984423 5.6841 0
-0.345498 6.71363 0
1.10115 7.60856 0
0.560991 6.92634 0
-0.00351917 4.64818 0
0.586794 3.78139 0
1.32854 -0.638039 0
0.520896 2.63829 0
0.948491 1.57644 0
1.89404 0.209992 0
1.59169 1.06275 0
2.09789 7.44346 0
1.76725 8.53666 0
1.32219 9.73674 0
3.70981 -4.20223 0
4.97835 -4.27979 0
5.70914 -3.80757 0
3.69737 -3.10613 0
1.79695 -1.87577 0
2.9628 -2.52458 0
6.64225 -3.84283 0
7.22253 -4.77341 0
7.78768 -5.87367 0
0.484165 5.75896 0
1.41003 6.61066 0
2.33459 6.54856 0
1.18626 4.48503 0
1.46264 3.35341 0
2.40785 -0.687463 0
2.79502 0.140287 0
1.76594 2.14687 0
2.58274 1.13936 0
3.02354 7.03474 0
2.85622 8.21701 0
2.58901 9.49307 0
4.79598 -3.22027 0
5.99036 -3.01795 0
4.09656 -2.22868 0
3.19783 -1.48449 0
6.6098 -2.27042 0
7.09995 -2.98633 0
7.81108 -3.84061 0
8.52413 -4.85057 0
1.99444 5.50006 0
3.01008 6.02649 0
2.33322 4.05899 0
2.38816 3.017 0
3.47578 -0.451764 0
3.56963 0.615736 0
2.92022 2.25794 0
3.48628 1.50486 0
3.89952 5.77026 0
3.89313 6.6509 0
3.90907 7.78737 0
3.81252 9.08883 0
5.46957 -1.87646 0
4.43643 -1.10987 0
6.58457 -1.30854 0
7.45121 -1.99335 0
8.23279 -2.81045 0
9.09228 -3.70831 0
3.323 4.77049 0
3.26558 3.32271 0
4.6114 0.135423 0
4.42099 1.28121 0
3.9634 2.38942 0
4.41571 5.02128 0
4.7106 6.04434 0
4.86592 7.22104 0
4.95525 8.5209 0
5.76256 -0.432227 0
6.85148 -0.489969 0
7.60478 -1.06153 0
8.50971 -1.71383 0
9.49322 -2.4822 0
4.40871 3.72741 0
5.6633 1.04955 0
5.20146 2.45176 0
5.1869 4.48446 0
5.43565 5.37139 0
5.7356 6.50699 0
5.97931 7.7877 0
6.66592 0.4283 0
7.66556 -0.0310327 0
8.67028 -0.565422 0
9.73282 -1.21263 0
6.75889 1.28319 0
5.5162 3.65262 0
6.33036 2.10418 0
6.15391 2.96957 0
6.0678 4.53443 0
6.48504 5.6759 0
6.91535 6.93019 0
7.57506 0.92926 0
8.64068 0.558206 0
9.79677 0.0631742 0
7.38523 1.92419 0
6.56344 3.75052 0
7.01445 2.83152 0
7.13988 4.73086 0
7.7739 5.97892 0
8.47361 1.67676 0
9.6743 1.316 0
8.14581 2.73803 0
7.73415 3.79066 0
8.48797 4.91951 0
9.43339 2.56611 0
9.04359 3.77679 0
CELLS 542 2168
3 2 0 4
3 0 1 7
3 4 0 7
3 1 5 8
3 7 1 8
3 3 2 13
3 13 2 4
3 11 3 14
3 14 3 13
3 13 4 15
3 4 7 16
3 15 4 16
3 5 6 17
3 8 5 17
3 6 9 18
3 17 6 18
3 7 8 19
3 16 7 19
3 8 17 20
3 19 8 20
3 9 10 23
3 18 9 23
3 10 21 24
3 23 10 24
3 12 11 25
3 25 11 14
3 26 12 27
3 27 12 25
3 14 13 29
3 29 13 15
3 25 14 30
3 30 14 29
3 29 15 31
3 15 16 33
3 31 15 33
3 16 19 34
3 33 16 34
3 17 18 35
3 20 17 35
3 18 23 36
3 35 18 36
3 19 20 37
3 34 19 37
3 20 35 38
3 37 20 38
3 21 22 39
3 24 21 39
3 22 32 40
3 39 22 40
3 23 24 41
3 36 23 41
3 24 39 42
3 41 24 42
3 27 25 44
3 44 25 30
3 28 26 45
3 45 26 27
3 45 27 46
3 46 27 44
3 47 28 48
3 48 28 45
3 30 29 50
3 50 29 31
3 44 30 51
3 51 30 50
3 50 31 52
3 31 33 52
3 32 43 53
3 40 32 53
3 53 43 54
3 33 34 55
3 34 37 55
3 33 55 52
3 35 36 56
3 38 35 56
3 36 41 57
3 56 36 57
3 37 38 58
3 38 56 58
3 37 58 55
3 39 40 59
3 42 39 59
3 40 53 60
3 59 40 60
3 41 42 61
3 57 41 61
3 42 59 62
3 61 42 62
3 43 63 54
3 46 44 64
3 64 44 51
3 48 45 65
3 65 45 46
3 65 46 66
3 66 46 64
3 49 47 67
3 67 47 48
3 67 48 68
3 68 48 65
3 69 49 70
3 70 49 67
3 52 55 72
3 64 51 73
3 51 50 73
3 50 52 73
3 73 52 74
3 74 52 72
3 53 54 75
3 60 53 75
3 54 63 76
3 54 76 77
3 75 54 77
3 55 58 78
3 72 55 78
3 72 78 79
3 56 57 80
3 57 61 80
3 56 80 58
3 58 80 81
3 78 58 81
3 59 60 82
3 62 59 82
3 60 75 83
3 82 60 83
3 61 62 84
3 62 82 84
3 61 84 80
3 63 85 76
3 66 64 86
3 64 73 86
3 68 65 87
3 87 65 66
3 87 66 86
3 70 67 88
3 88 67 68
3 88 68 89
3 89 68 87
3 71 69 90
3 90 69 70
3 90 70 91
3 91 70 88
3 92 71 93
3 93 71 90
3 74 72 94
3 94 72 79
3 86 73 95
3 95 73 74
3 95 74 96
3 96 74 94
3 97 86 95
3 76 85 99
3 75 77 100
3 83 75 100
3 76 99 101
3 77 76 101
3 77 101 102
3 100 77 102
3 94 79 103
3 78 81 104
3 79 78 104
3 79 104 103
3 80 84 105
3 81 80 105
3 81 105 106
3 104 81 106
3 82 83 107
3 83 100 107
3 82 107 84
3 84 107 108
3 105 84 108
3 85 109 99
3 89 87 110
3 87 86 110
3 110 86 97
3 91 88 111
3 111 88 89
3 111 89 110
3 93 90 112
3 112 90 91
3 112 91 113
3 113 91 111
3 98 92 114
3 114 92 93
3 114 93 115
3 115 93 112
3 116 98 114
3 117 103 118
3 96 94 119
3 94 103 119
3 119 103 117
3 97 95 120
3 120 95 96
3 120 96 119
3 121 110 97
3 121 97 122
3 122 97 120
3 123 119 117
3 124 98 116
3 99 109 125
3 99 125 126
3 101 99 126
3 100 102 127
3 100 127 107
3 101 126 128
3 102 101 128
3 102 128 127
3 104 106 129
3 104 129 103
3 103 129 118
3 105 108 130
3 106 105 130
3 106 130 129
3 107 127 131
3 108 107 131
3 108 131 132
3 108 132 130
3 109 134 125
3 125 134 133
3 113 111 135
3 111 110 135
3 135 110 121
3 115 112 136
3 136 112 113
3 136 113 135
3 116 114 137
3 137 114 115
3 137 115 138
3 138 115 136
3 139 124 116
3 139 116 140
3 140 116 137
3 141 135 121
3 118 129 142
3 118 142 143
3 117 118 143
3 123 117 143
3 122 120 144
3 120 119 144
3 144 119 123
3 141 121 145
3 145 121 122
3 145 122 144
3 146 141 145
3 147 144 123
3 147 123 148
3 143 148 123
3 150 124 139
3 149 150 139
3 131 127 151
3 125 133 152
3 126 125 152
3 126 152 153
3 128 126 153
3 128 153 154
3 128 154 127
3 127 154 151
3 152 133 155
3 130 132 156
3 130 156 129
3 129 156 142
3 131 151 157
3 132 131 157
3 132 157 156
3 156 158 142
3 157 151 159
3 133 160 155
3 134 161 133
3 133 161 160
3 138 136 162
3 136 135 162
3 162 135 141
3 140 137 163
3 163 137 138
3 163 138 162
3 149 139 164
3 164 139 140
3 164 140 165
3 165 140 163
3 166 149 164
3 167 162 141
3 167 141 146
3 142 158 168
3 143 142 168
3 143 168 148
3 146 145 169
3 145 144 169
3 169 144 147
3 170 167 146
3 170 146 169
3 171 169 147
3 171 147 148
3 171 148 172
3 168 172 148
3 173 149 166
3 174 150 149
3 173 174 149
3 154 175 151
3 151 175 159
3 152 155 176
3 153 152 176
3 153 176 177
3 153 177 154
3 154 177 175
3 155 160 178
3 155 178 179
3 176 155 179
3 156 157 180
3 156 180 158
3 157 159 181
3 157 181 180
3 158 180 182
3 158 182 168
3 159 175 183
3 159 183 181
3 175 184 183
3 160 186 178
3 178 186 185
3 161 187 160
3 160 187 186
3 165 163 188
3 163 162 188
3 188 162 167
3 166 164 189
3 189 164 165
3 189 165 188
3 190 173 166
3 190 166 191
3 191 166 189
3 192 188 167
3 192 167 170
3 193 192 170
3 182 194 168
3 194 172 168
3 193 170 195
3 170 169 195
3 195 169 171
3 196 195 171
3 196 171 172
3 194 197 172
3 197 198 172
3 198 196 172
3 200 173 190
3 199 200 190
3 201 174 173
3 200 201 173
3 176 179 202
3 177 176 202
3 177 202 175
3 175 202 184
3 178 185 203
3 178 203 179
3 179 203 202
3 203 185 204
3 202 205 184
3 183 206 181
3 180 181 206
3 180 206 182
3 182 206 194
3 183 184 207
3 205 207 184
3 183 207 206
3 185 208 204
3 186 209 185
3 185 209 208
3 187 210 186
3 186 210 209
3 191 189 211
3 189 188 211
3 211 188 192
3 199 190 212
3 212 190 191
3 212 191 211
3 213 199 212
3 214 211 192
3 214 192 193
3 215 214 193
3 215 193 195
3 206 216 194
3 216 197 194
3 216 217 197
3 215 195 218
3 218 195 196
3 198 218 196
3 217 219 197
3 219 218 198
3 197 219 198
3 220 199 213
3 221 200 199
3 220 221 199
3 222 201 200
3 221 222 200
3 203 204 223
3 203 223 202
3 202 223 205
3 204 208 224
3 204 224 223
3 205 223 225
3 205 225 207
3 207 225 226
3 207 226 206
3 226 216 206
3 208 228 224
3 224 228 227
3 209 229 208
3 229 228 208
3 210 230 209
3 209 230 229
3 213 212 231
3 212 211 231
3 231 211 214
3 232 220 213
3 232 213 231
3 233 231 214
3 233 214 215
3 234 233 215
3 234 215 218
3 226 235 216
3 235 217 216
3 235 236 217
3 217 236 219
3 237 234 218
3 237 218 219
3 236 238 219
3 238 237 219
3 240 220 232
3 239 240 232
3 241 221 220
3 240 241 220
3 242 222 221
3 241 242 221
3 224 227 243
3 224 243 223
3 223 243 225
3 225 243 244
3 225 244 226
3 226 244 235
3 227 245 243
3 228 246 227
3 227 246 245
3 229 247 228
3 228 247 246
3 230 248 229
3 229 248 247
3 239 232 249
3 232 231 249
3 249 231 233
3 250 249 233
3 250 233 234
3 237 250 234
3 244 251 235
3 235 251 236
3 251 252 236
3 236 252 238
3 252 253 238
3 253 250 237
3 253 237 238
3 254 239 249
3 255 240 239
3 254 255 239
3 256 241 240
3 255 256 240
3 257 242 241
3 256 257 241
3 245 258 243
3 243 258 244
3 244 258 251
3 245 259 258
3 246 260 245
3 245 260 259
3 247 261 246
3 246 261 260
3 248 262 247
3 247 262 261
3 254 249 263
3 263 249 250
3 253 263 250
3 258 264 251
3 251 264 252
3 264 265 252
3 265 263 253
3 252 265 253
3 266 254 263
3 267 255 254
3 266 267 254
3 268 256 255
3 267 268 255
3 269 257 256
3 268 269 256
3 259 270 258
3 270 264 258
3 260 271 259
3 259 271 270
3 261 272 260
3 260 272 271
3 262 273 261
3 273 272 261
3 270 274 264
3 275 266 263
3 275 263 265
3 274 276 264
3 276 265 264
3 276 277 265
3 277 275 265
3 278 267 266
3 275 278 266
3 279 268 267
3 278 279 267
3 280 269 268
3 279 280 268
3 271 281 270
3 270 281 274
3 272 282 271
3 271 282 281
3 273 283 272
3 272 283 282
3 281 284 274
3 274 284 276
3 285 278 275
3 277 285 275
3 284 286 276
3 286 285 277
3 276 286 277
3 287 279 278
3 285 287 278
3 288 280 279
3 287 288 279
3 282 289 281
3 281 289 284
3 283 290 282
3 282 290 289
3 289 291 284
3 284 291 286
3 291 292 286
3 292 287 285
3 286 292 285
3 293 288 287
3 292 293 287
3 290 294 289
3 289 294 291
3 294 295 291
3 295 293 292
3 291 295 292
CELL_TYPES 542
5
5
5
5
5
5
5
5
5
5
5
5
5
5
5
5
5
5
5
5
5
5
5
5
5
5
5
5
5
5
5
5
5
5
5
5
5
5
5
5
5
5
5
5
5
5
5
5
5
5
5
5
5
5
5
5
5
5
5
5
5
5
5
5
5
5
5
5
5
5
5
5
5
5
5
5
5
5
5
5
5
5
5
5
5
5
5
5
5
5
5
5
5
5
5
5
5
5
5
5
5
5
5
5
5
5
5
5
5
5
5
5
5
5
5
5
5
5
5
5
5
5
5
5
5
5
5
5
5
5
5
5
5
5
5
5
5
5
5
5
5
5
5
5
5
5
5
5
5
5
5
5
5
5
5
5
5
5
5
5
5
5
5
5
5
5
5
5
5
5
5
5
5
5
5
5
5
5
5
5
5
5
5
5
5
5
5
5
5
5
5
5
5
5
5
5
5
5
5
5
5
5
5
5
5
5
5
5
5
5
5
5
5
5
5
5
5
5
5
5
5
5
5
5
5
5
5
5
5
5
5
5
5
5
5
5
5
5
5
5
5
5
5
5
5
5
5
5
5
5
5
5
5
5
5
5
5
5
5
5
5
5
5
5
5
5
5
5
5
5
5
5
5
5
5
5
5
5
5
5
5
5
5
5
5
5
5
5
5
5
5
5
5
5
5
5
5
5
5
5
5
5
5
5
5
5
5
5
5
5
5
5
5
5
5
5
5
5
5
5
5
5
5
5
5
5
5
5
5
5
5
5
5
5
5
5
5
5
5
5
5
5
5
5
5
5
5
5
5
5
5
5
5
5
5
5
5
5
5
5
5
5
5
5
5
5
5
5
5
5
5
5
5
5
5
5
5
5
5
5
5
5
5
5
5
5
5
5
5
5
5
5
5
5
5
5
5
5
5
5
5
5
5
5
5
5
5
5
5
5
5
5
5
5
5
5
5
5
5
5
5
5
5
5
5
5
5
5
5
5
5
5
5
5
5
5
5
5
5
5
5
5
5
5
5
5
5
5
5
5
5
5
5
5
5
5
5
5
5
5
5
5
5
5
5
5
5
5
5
5
5
5
5
5
5
5
5
5
5
5
5
5
5
5
5
5
5
5
5
5
5
5
5
5
5
5
5
5
5
5
5
5
5
5
5
5
5
5
5
5
5
5
5
5
5
5
5
5
5
5
5
5
5
5
5
5
5
5
5
5
5
5
5
5
5
5
5
5
5
5
5
5
POINT_DATA 296
SCALARS concentrations float 4
LOOKUP_TABLE default
0 0.950035 0.10944 9.10168
0 0.950047 0.10852 8.54275
0 0.950029 0.109012 10.8651
0 0.950029 0.112379 7.34172
0 0.950029 0.0931076 6.55341
0 0.950056 0.112592 12.4129
0 0.950092 0.109994 6.86103
0 0.950038 0.0933976 7.57531
0 0.950047 0.0927093 7.63965
0 0.950111 0.110522 8.80019
0 0.950083 0.108729 9.94761
0 0.949989 0.109395 12.9354
0 0.949966 0.10981 16.4877
0 0.950036 0.0925969 7.45428
0 0.950018 0.0926739 6.56199
0 0.950035 0.0932487 7.47056
0 0.950036 0.0928559 7.69254
0 0.950062 0.0926229 7.53338
0 0.950083 0.0922078 7.42193
0 0.950042 0.0925256 7.52135
0 0.95005 0.0926861 7.05828
0 0.950052 0.111135 7.29485
0 0.95 0.109149 13.7718
0 0.950074 0.0924122 7.29248
0 0.950058 0.0927551 7.14256
0 0.949988 0.0926572 6.9745
0 0.950007 0.108807 11.2775
0 0.949988 0.0929419 6.141
0 0.950058 0.111209 8.36795
0 0.950037 0.0930667 7.73274
0 0.950023 0.0930461 7.6221
0 0.950043 0.0925965 6.3538
0 0.94995 0.111492 12.9287
0 0.950049 0.0933292 6.72828
0 0.950047 0.093692 6.68517
0 0.950051 0.0923622 7.17966
0 0.950047 0.0922616 7.22905
0 0.950046 0.0924401 6.72463
0 0.950048 0.0930202 6.86541
0 0.950035 0.0925997 7.19923
0 0.949997 0.0928119 7.33352
0 0.950041 0.0921584 7.09846
0 0.950045 0.0930362 7.3049
0 0.949935 0.107532 12.4375
0 0.950013 0.0932856 7.81661
0 0.950032 0.0930519 6.71254
0 0.950017 0.0937399 7.94168
0 0.950073 0.109181 12.9357
0 0.950052 0.0926116 6.33562
0 0.950065 0.110768 8.91263
0 0.950034 0.0931354 6.2483
0 0.950027 0.0931732 6.4217
0 0.950053 0.094342 8.17984
0 0.949968 0.0926535 7.3803
0 0.949981 0.0924347 7.4655
0 0.950047 0.0941828 7.5094
0 0.950042 0.0924885 7.21765
0 0.950041 0.0922338 7.09163
0 0.950041 0.0924529 7.38882
0 0.950037 0.0931582 7.36716
0 0.950024 0.093032 7.27088
0 0.950049 0.0926206 7.01348
0 0.950051 0.0931609 7.22078
0 0.949965 0.108439 13.5926
0 0.950027 0.0939569 7.86703
0 0.950032 0.0932685 5.92279
0 0.95003 0.0944374 6.3004
0 0.950059 0.0933534 6.94068
0 0.950036 0.0932807 5.89602
0 0.950038 0.109706 11.4433
0 0.950048 0.0933175 7.03273
0 0.95 0.10892 10.5057
0 0.950053 0.0942833 5.69615
0 0.95004 0.093374 6.38898
0 0.950052 0.0969219 7.35608
0 0.950025 0.0923835 7.32268
0 0.94999 0.0922258 7.30791
0 0.950027 0.092591 7.21064
0 0.950043 0.0949557 6.52524
0 0.950045 0.0972562 8.7873
0 0.950048 0.093429 7.26234
0 0.950047 0.0937743 7.52176
0 0.95005 0.0956359 6.72386
0 0.950044 0.0926514 7.03029
0 0.950054 0.0930303 7.06452
0 0.949992 0.10858 13.2267
0 0.950038 0.0933957 7.55094
0 0.95004 0.0933897 6.09374
0 0.950037 0.0936302 7.03186
0 0.950041 0.0934785 5.78541
0 0.950035 0.0931324 6.44379
0 0.950045 0.094168 7.56666
0 0.949939 0.10836 15.5379
0 0.949985 0.0937801 6.05708
0 0.950044 0.0966295 7.5875
0 0.950049 0.0948166 7.30359
0 0.95005 0.0953973 7.48813
0 0.950047 0.0935607 6.61813
0 0.949963 0.10925 12.5906
0 0.950027 0.093539 7.48364
0 0.950043 0.092902 7.28965
0 0.950032 0.092983 6.76983
0 0.950041 0.0931787 7.35658
0 0.950049 0.0958653 6.39216
0 0.95005 0.0946666 7.08384
0 0.950051 0.0935685 6.86419
0 0.950051 0.0944606 7.56646
0 0.950048 0.0926991 7.3695
0 0.950049 0.0932033 7.72887
0 0.950036 0.109986 9.04535
0 0.950051 0.0946078 6.30639
0 0.950044 0.094254 6.24058
0 0.950023 0.0943415 8.07283
0 0.950033 0.0949754 8.42064
0 0.949978 0.0946408 6.65401
0 0.950015 0.0963928 7.48417
0 0.950012 0.0930924 6.1423
0 0.95005 0.0934973 7.04934
0 0.950051 0.095526 6.24522
0 0.950045 0.0955078 6.87542
0 0.950047 0.0943763 7.42344
0 0.950056 0.0948676 7.87219
0 0.950054 0.0932341 6.53373
0 0.950049 0.0956859 6.93024
0 0.950041 0.109104 10.5739
0 0.950033 0.093609 6.91854
0 0.950043 0.0935568 6.95735
0 0.950043 0.0928119 6.83098
0 0.950044 0.0925612 7.45721
0 0.950055 0.0948734 8.2138
0 0.950049 0.0941253 7.80352
0 0.950044 0.0931066 6.62562
0 0.950045 0.0932796 6.45201
0 0.950031 0.0933862 7.3051
0 0.950015 0.107484 12.1616
0 0.950049 0.0952585 7.72075
0 0.950028 0.0947318 7.85956
0 0.950027 0.0955042 5.72832
0 0.950034 0.0947079 6.9966
0 0.95006 0.092106 7.10697
0 0.950033 0.0929006 7.80674
0 0.950047 0.0951037 8.11386
0 0.950051 0.0947029 7.05507
0 0.950043 0.0942977 6.53045
0 0.950055 0.0990345 5.71898
0 0.950053 0.0964431 8.64158
0 0.950047 0.0966046 8.67282
0 0.950041 0.0956015 8.78973
0 0.95004 0.0947391 6.56108
0 0.950061 0.092335 7.35427
0 0.95007 0.112425 7.92052
0 0.950043 0.0927843 7.78576
0 0.950044 0.0939477 7.73725
0 0.950046 0.0936016 7.41841
0 0.950042 0.092877 7.7539
0 0.950053 0.093202 7.13492
0 0.950052 0.0945666 5.65003
0 0.950043 0.0933608 7.84857
0 0.950052 0.0938319 8.04811
0 0.950044 0.094101 6.22088
0 0.950062 0.0930626 7.16102
0 0.950039 0.108514 9.02327
0 0.950046 0.094808 7.18891
0 0.95003 0.095338 6.39839
0 0.950047 0.0929275 7.91129
0 0.950026 0.0942686 7.23417
0 0.950049 0.0932873 7.99609
0 0.950053 0.0938863 6.97556
0 0.95005 0.093142 6.52651
0 0.950049 0.0936877 7.51052
0 0.950052 0.0968441 7.4019
0 0.950038 0.0965997 7.22101
0 0.950045 0.0952591 6.43007
0 0.950056 0.0934341 8.07038
0 0.950053 0.111434 11.7133
0 0.950046 0.0930125 6.7263
0 0.950049 0.0926196 7.55451
0 0.950045 0.0931351 6.78642
0 0.95006 0.092456 7.07762
0 0.950052 0.0929249 7.19143
0 0.95004 0.0951546 7.27953
0 0.950038 0.0934937 7.54095
0 0.950041 0.0947398 6.91382
0 0.950055 0.0928155 7.5781
0 0.950057 0.0925965 6.6637
0 0.950054 0.0928668 7.11182
0 0.950063 0.0923573 6.81952
0 0.95007 0.108707 7.67442
0 0.950044 0.095609 7.57361
0 0.950044 0.0940499 6.79739
0 0.950053 0.0938907 7.52278
0 0.950036 0.0958152 9.02966
0 0.95005 0.0950737 7.47237
0 0.950055 0.0953076 7.06801
0 0.95005 0.0943465 7.88959
0 0.950054 0.0979924 8.61301
0 0.950047 0.0956539 7.54995
0 0.950052 0.092895 6.61582
0 0.950041 0.0929006 6.53495
0 0.950068 0.0944122 5.86202
0 0.950062 0.0941973 6.19735
0 0.950059 0.108354 10.0246
0 0.950052 0.0927231 6.62334
0 0.950054 0.0940161 7.73849
0 0.950052 0.0924084 6.78432
0 0.950057 0.0922633 6.94109
0 0.950056 0.101205 7.91288
0 0.950067 0.0928652 7.29252
0 0.95005 0.0926089 7.41672
0 0.950052 0.092694 7.03293
0 0.950059 0.107525 9.23445
0 0.950028 0.0954271 6.18575
0 0.950033 0.0981991 6.83172
0 0.950059 0.0961094 5.94329
0 0.950031 0.0954515 8.50722
0 0.950046 0.0961099 7.75688
0 0.950065 0.0928373 7.61109
0 0.950063 0.0931135 6.3512
0 0.950043 0.0944517 6.93526
0 0.950047 0.09714 5.67685
0 0.950055 0.094096 6.11072
0 0.950068 0.0935681 6.01514
0 0.950064 0.108644 9.65311
0 0.950053 0.0946055 8.17422
0 0.950047 0.0930765 7.79851
0 0.950059 0.093928 6.44727
0 0.950068 0.094043 7.62669
0 0.950047 0.0957268 6.73765
0 0.950051 0.0944358 6.75403
0 0.950047 0.0923616 7.0975
0 0.950044 0.112596 12.5306
0 0.950032 0.100095 4.91268
0 0.950044 0.0945696 5.47892
0 0.950044 0.0934758 6.88219
0 0.950044 0.0953842 6.1933
0 0.950062 0.0942617 5.82623
0 0.950059 0.0939009 5.91763
0 0.950045 0.0947388 6.18578
0 0.950045 0.094601 5.76719
0 0.950033 0.0961225 8.83798
0 0.950035 0.0956443 8.26769
0 0.950042 0.0949447 9.01302
0 0.950065 0.110131 7.83273
0 0.950053 0.0962119 6.24388
0 0.950056 0.0943172 6.55134
0 0.950051 0.0967759 7.99332
0 0.950049 0.0932611 7.07266
0 0.950052 0.0933766 7.01881
0 0.950049 0.109358 4.89367
0 0.950049 0.0955532 7.06426
0 0.950052 0.0959853 6.55227
0 0.950052 0.0966066 6.50181
0 0.950043 0.0958499 6.5221
0 0.95004 0.0940587 7.21528
0 0.950038 0.0947644 6.23379
0 0.950035 0.0955133 5.1678
0 0.950024 0.0938301 6.93881
0 0.950015 0.108759 11.3449
0 0.95005 0.094546 7.95287
0 0.950049 0.0938878 6.38368
0 0.95004 0.0953603 5.80238
0 0.950028 0.0944046 5.90966
0 0.95004 0.110447 13.5845
0 0.950045 0.0952413 6.00574
0 0.950041 0.0961185 6.96584
0 0.950032 0.0955166 7.3942
0 0.950031 0.0963483 6.20918
0 0.950047 0.0932968 7.14299
0 0.950062 0.0948089 5.94964
0 0.950046 0.112002 5.7652
0 0.95005 0.0959794 5.72348
0 0.950045 0.0951271 5.60661
0 0.95003 0.0944733 5.86193
0 0.950011 0.110266 10.4723
0 0.950051 0.0965458 7.15145
0 0.950025 0.0976559 8.05897
0 0.950049 0.0953285 6.76629
0 0.950029 0.0970446 7.65918
0 0.950048 0.0970687 6.42711
0 0.950063 0.0957325 6.46229
0 0.95007 0.110667 7.24203
0 0.950048 0.0953395 6.34767
0 0.950048 0.094278 6.2647
0 0.950045 0.1105 8.57062
0 0.95006 0.093508 7.58169
0 0.950066 0.0974717 7.87788
0 0.950084 0.0932384 6.65155
0 0.95006 0.0961197 6.2696
0 0.95005 0.110791 8.76162
0 0.950043 0.0949489 6.33333
0 0.950037 0.11049 12.0856
0 0.95006 0.0960909 6.64797
0 0.95008 0.0965027 6.14387
0 0.95006 0.106825 6.84339
0 0.95004 0.110043 7.87657
0 0.950059 0.109231 9.15206
VECTORS fa_u float
0.00718018 0.00286463 -0
0.00682936 0.00392292 -0
0.00287717 0.000784216 -0
0.00711448 0.00111126 -0
1e-08 0 0
0.00516974 0.00398975 -0
0.00244655 0.00236464 -0
1e-08 0 0
1e-08 0 0
0.00463239 0.00563944 -0
0.00536073 0.00900198 -0
0.00673764 0.000145104 -0
0.00607492 -0.000649343 0
1e-08 0 0
1e-08 0 0
1e-08 0 0
1e-08 0 0
1e-08 0 0
1e-08 0 0
1e-08 0 0
1e-08 0 0
0.00291836 0.00720566 -0
0.00160683 0.00631084 -0
1e-08 0 0
1e-08 0 0
1e-08 0 0
0.00915322 -0.00230333 0
1e-08 0 0
0.0111977 -0.00491491 0
1e-08 0 0
1e-08 0 0
1e-08 0 0
0.000856849 0.00736028 -0
1e-08 0 0
1e-08 0 0
1e-08 0 0
1e-08 0 0
1e-08 0 0
1e-08 0 0
1e-08 0 0
1e-08 0 0
1e-08 0 0
1e-08 0 0
-0.000187494 0.00783793 -0
1e-08 0 0
1e-08 0 0
1e-08 0 0
0.00548079 -0.00349208 0
1e-08 0 0
0.00279251 -0.00225461 0
1e-08 0 0
1e-08 0 0
1e-08 0 0
1e-08 0 0
1e-08 0 0
1e-08 0 0
1e-08 0 0
1e-08 0 0
1e-08 0 0
1e-08 0 0
1e-08 0 0
1e-08 0 0
1e-08 0 0
-0.000578682 0.00395082 0
1e-08 0 0
1e-08 0 0
1e-08 0 0
1e-08 0 0
1e-08 0 0
0.00314059 -0.00311058 0
1e-08 0 0
0.00272981 -0.00334217 0
1e-08 0 0
1e-08 0 0
1e-08 0 0
1e-08 0 0
1e-08 0 0
1e-08 0 0
1e-08 0 0
1e-08 0 0
1e-08 0 0
1e-08 0 0
1e-08 0 0
1e-08 0 0
1e-08 0 0
-0.00135964 0.00523294 0
1e-08 0 0
1e-08 0 0
1e-08 0 0
1e-08 0 0
1e-08 0 0
1e-08 0 0
0.00580838 -0.00951492 0
1e-08 0 0
1e-08 0 0
1e-08 0 0
1e-08 0 0
1e-08 0 0
0.00366959 -0.00907974 0
1e-08 0 0
1e-08 0 0
1e-08 0 0
1e-08 0 0
1e-08 0 0
1e-08 0 0
1e-08 0 0
1e-08 0 0
1e-08 0 0
1e-08 0 0
-0.00289114 0.00717337 0
1e-08 0 0
1e-08 0 0
1e-08 0 0
1e-08 0 0
1e-08 0 0
1e-08 0 0
1e-08 0 0
1e-08 0 0
1e-08 0 0
1e-08 0 0
1e-08 0 0
1e-08 0 0
1e-08 0 0
1e-08 0 0
0.00136853 -0.00547577 0
1e-08 0 0
1e-08 0 0
1e-08 0 0
1e-08 0 0
1e-08 0 0
1e-08 0 0
1e-08 0 0
1e-08 0 0
1e-08 0 0
-0.00374881 0.00650279 0
1e-08 0 0
1e-08 0 0
1e-08 0 0
1e-08 0 0
1e-08 0 0
1e-08 0 0
1e-08 0 0
1e-08 0 0
1e-08 0 0
1e-08 0 0
1e-08 0 0
1e-08 0 0
1e-08 0 0
1e-08 0 0
1e-08 0 0
0.000505992 -0.00369341 0
1e-08 0 0
1e-08 0 0
1e-08 0 0
1e-08 0 0
1e-08 0 0
1e-08 0 0
1e-08 0 0
1e-08 0 0
1e-08 0 0
1e-08 0 0
-0.004701 0.00602924 0
1e-08 0 0
1e-08 0 0
1e-08 0 0
1e-08 0 0
1e-08 0 0
1e-08 0 0
1e-08 0 0
1e-08 0 0
1e-08 0 0
1e-08 0 0
1e-08 0 0
1e-08 0 0
0.000123772 -0.00788916 0
1e-08 0 0
1e-08 0 0
1e-08 0 0
1e-08 0 0
1e-08 0 0
1e-08 0 0
1e-08 0 0
1e-08 0 0
1e-08 0 0
1e-08 0 0
1e-08 0 0
1e-08 0 0
-0.00219224 0.00223057 0
1e-08 0 0
1e-08 0 0
1e-08 0 0
1e-08 0 0
1e-08 0 0
1e-08 0 0
1e-08 0 0
1e-08 0 0
1e-08 0 0
1e-08 0 0
1e-08 0 0
1e-08 0 0
1e-08 0 0
-0.000863308 -0.00699672 0
1e-08 0 0
1e-08 0 0
1e-08 0 0
1e-08 0 0
1e-08 0 0
1e-08 0 0
1e-08 0 0
1e-08 0 0
-0.00477606 0.00391573 0
1e-08 0 0
1e-08 0 0
1e-08 0 0
1e-08 0 0
1e-08 0 0
1e-08 0 0
1e-08 0 0
1e-08 0 0
1e-08 0 0
1e-08 0 0
1e-08 0 0
-0.00162094 -0.00623034 0
1e-08 0 0
1e-08 0 0
1e-08 0 0
1e-08 0 0
1e-08 0 0
1e-08 0 0
1e-08 0 0
-0.00885266 0.00533362 0
1e-08 0 0
1e-08 0 0
1e-08 0 0
1e-08 0 0
1e-08 0 0
1e-08 0 0
1e-08 0 0
1e-08 0 0
1e-08 0 0
1e-08 0 0
1e-08 0 0
-0.00298164 -0.00725724 0
1e-08 0 0
1e-08 0 0
1e-08 0 0
1e-08 0 0
1e-08 0 0
-0.0076047 0.00311168 0
1e-08 0 0
1e-08 0 0
1e-08 0 0
1e-08 0 0
1e-08 0 0
1e-08 0 0
1e-08 0 0
1e-08 0 0
-0.00517746 -0.00862207 0
1e-08 0 0
1e-08 0 0
1e-08 0 0
1e-08 0 0
-0.00627044 0.00160935 0
1e-08 0 0
1e-08 0 0
1e-08 0 0
1e-08 0 0
1e-08 0 0
1e-08 0 0
-0.0035939 -0.00442849 0
1e-08 0 0
1e-08 0 0
1e-08 0 0
-0.00716649 0.00085464 0
1e-08 0 0
1e-08 0 0
1e-08 0 0
1e-08 0 0
1e-08 0 0
1e-08 0 0
-0.00250408 -0.00248443 0
1e-08 0 0
1e-08 0 0
-0.00854123 -0.000197672 0
1e-08 0 0
1e-08 0 0
1e-08 0 0
1e-08 0 0
-0.0061052 -0.00477508 0
1e-08 0 0
-0.00336905 -0.000489123 0
1e-08 0 0
1e-08 0 0
-0.00668496 -0.00385437 0
-0.00556607 -0.00142659 0
-0.00723398 -0.00290607 0
