# vtk DataFile Version 2.0
CellBP Time: 0.2
ASCII
DATASET UNSTRUCTURED_GRID
POINTS 296 double
-9.18998 -3.77765 0
-8.61132 -4.95072 0
-9.60985 -2.53844 0
-9.86514 -1.25496 0
-8.35896 -2.81924 0
-7.88377 -6.03822 0
-7.0217 -7.02157 0
-7.9185 -3.87547 0
-7.3439 -4.86869 0
-6.03829 -7.88475 0
-4.95003 -8.61048 0
-9.95093 0.0499716 0
-9.86465 1.35534 0
-8.6591 -1.68438 0
-8.7878 -0.529808 0
-7.59108 -2.00464 0
-7.22707 -2.90711 0
-6.63887 -5.77979 0
-5.82336 -6.59813 0
-6.79154 -3.88968 0
-6.2218 -4.67679 0
-3.77721 -9.18931 0
-2.5382 -9.6098 0
-4.90758 -7.30995 0
-3.91373 -7.88766 0
-8.79427 0.643243 0
-9.61022 2.63817 0
-8.6248 1.77419 0
-9.18906 3.87676 0
-7.74573 -0.929335 0
-7.796 0.0801168 0
-6.95391 -1.31632 0
-1.25553 -9.86549 0
-6.4428 -2.15369 0
-6.32067 -3.05683 0
-5.5377 -5.47553 0
-4.79697 -6.11657 0
-5.66027 -3.75776 0
-5.27057 -4.56243 0
-2.86659 -8.3655 0
-1.77916 -8.64172 0
-3.92901 -6.72483 0
-3.05719 -7.15407 0
0.0498037 -9.95117 0
-7.70702 1.14363 0
-8.34004 2.91597 0
-7.5534 2.11229 0
-8.61092 5.05011 0
-7.88157 3.97872 0
-7.8846 6.13835 0
-6.7801 -0.397138 0
-6.958 0.552498 0
-5.77275 -1.00376 0
-0.591034 -8.81135 0
0.565604 -8.77253 0
-5.30435 -2.48095 0
-4.49304 -5.09666 0
-3.90344 -5.77642 0
-4.44002 -3.80558 0
-2.06194 -7.56342 0
-1.13496 -7.78735 0
-2.99527 -6.10335 0
-2.30875 -6.62123 0
1.35555 -9.8655 0
-6.69093 1.42226 0
-7.17368 3.11865 0
-6.66072 2.37344 0
-7.29604 4.98967 0
-6.7195 4.00382 0
-7.02182 7.12167 0
-6.57383 5.89515 0
-6.03788 7.98387 0
-4.45443 -1.18135 0
-5.81601 0.513845 0
-4.65747 -0.0101575 0
0.00908638 -7.84962 0
1.73865 -8.64553 0
0.949599 -7.76494 0
-4.03966 -2.4071 0
-3.48662 -1.39095 0
-3.29537 -4.80641 0
-3.26676 -3.26879 0
-1.37813 -6.67688 0
-0.508218 -7.02639 0
-1.97615 -5.53827 0
2.6382 -9.60988 0
-5.50872 2.03738 0
-6.09614 3.07286 0
-6.10646 4.8706 0
-5.76307 3.99234 0
-5.76258 6.71831 0
-5.45341 5.62047 0
-4.95061 8.71106 0
-4.83953 7.40595 0
-3.50253 -0.423736 0
-4.4506 1.24954 0
-3.71256 0.592761 0
-4.06336 2.32054 0
-3.77701 9.2893 0
2.86291 -8.33463 0
0.420243 -6.79689 0
2.02281 -7.52737 0
1.3067 -6.90706 0
-2.44381 -0.874308 0
-2.83934 -2.13196 0
-2.29505 -4.09856 0
-2.32637 -2.97469 0
-0.442593 -5.8626 0
-1.22316 -4.50039 0
3.87701 -9.18895 0
-4.79105 3.3926 0
-5.08922 4.59515 0
-4.64835 6.28271 0
-4.54007 5.36084 0
-3.84466 7.99501 0
-3.82775 6.84713 0
-2.78412 8.42449 0
-1.6481 -0.138102 0
-1.44942 -0.891139 0
-2.48822 0.507543 0
-3.25444 1.44515 0
-3.23992 3.31751 0
-2.91139 2.37292 0
-1.35414 0.627206 0
-2.53878 9.71016 0
3.93357 -7.88867 0
2.96548 -7.15928 0
0.954203 -5.82352 0
2.07471 -6.41715 0
-1.68355 -1.99316 0
-1.43494 -3.27896 0
0.0901517 -4.74834 0
-0.566454 -3.69567 0
4.93317 -7.3205 0
5.05038 -8.61076 0
-3.77802 4.55259 0
-3.73585 5.75328 0
-2.88833 7.29149 0
-3.01067 6.35494 0
-1.66329 8.73543 0
-1.94024 7.62109 0
-2.339 4.05274 0
-0.729994 -1.32796 0
-0.835955 -0.257938 0
-1.93547 1.68142 0
-2.12578 2.87698 0
-1.30659 3.54585 0
-0.868565 1.35126 0
-0.281361 0.456082 0
-0.533919 8.87359 0
-1.25541 9.9651 0
1.11298 -4.57595 0
3.911 -6.719 0
2.98851 -6.0964 0
2.11828 -5.42645 0
4.78555 -6.20702 0
-0.559186 -2.47797 0
0.495119 -3.46508 0
0.0542718 -1.61123 0
1.48221 -3.68339 0
5.86859 -6.61634 0
6.13843 -7.88423 0
-2.47649 5.34955 0
-2.13125 6.53572 0
-0.903998 7.80516 0
-1.27246 6.93364 0
0.0865237 7.88229 0
-1.14475 4.49592 0
0.15124 -0.618067 0
-0.796836 2.48936 0
-0.331442 3.60187 0
0.063999 1.51324 0
0.742488 0.473474 0
0.646516 8.87634 0
0.0499377 10.0515 0
2.38155 -4.28656 0
3.8601 -5.64206 0
3.00213 -5.21427 0
5.57518 -5.49346 0
4.69221 -5.28463 0
0.629609 -2.29452 0
1.25644 -2.95239 0
0.758279 -1.39213 0
2.16488 -3.13697 0
2.99452 -3.47779 0
6.15682 -4.79333 0
6.65735 -5.77094 0
7.12194 -7.02148 0
-1.02015 5.82161 0
-0.372496 6.88531 0
1.12325 7.77159 0
0.558374 7.08166 0
-7.93471e-05 4.72635 0
0.607312 3.82902 0
1.33991 -0.642284 0
0.53962 2.65202 0
0.967019 1.57546 0
1.91132 0.213769 0
1.61585 1.06531 0
2.13027 7.58567 0
1.7993 8.71475 0
1.35568 9.96493 0
3.8238 -4.35301 0
5.11797 -4.45051 0
5.84739 -3.93654 0
3.78499 -3.20222 0
1.813 -1.88348 0
3.01999 -2.57493 0
6.78537 -3.94928 0
7.38352 -4.89843 0
7.98445 -6.03857 0
0.483246 5.88305 0
1.42889 6.74384 0
2.37485 6.67113 0
1.21034 4.55759 0
1.48863 3.39883 0
2.4368 -0.692626 0
2.82923 0.142257 0
1.78959 2.16376 0
2.61312 1.15043 0
3.07278 7.17243 0
2.90489 8.37936 0
2.6387 9.70986 0
4.91268 -3.32913 0
6.12257 -3.10992 0
4.17409 -2.27624 0
3.24551 -1.5037 0
6.73357 -2.31402 0
7.23445 -3.04375 0
7.96729 -3.91386 0
8.71071 -4.94997 0
2.02411 5.60159 0
3.08744 6.15577 0
2.36452 4.12835 0
2.42068 3.0621 0
3.52697 -0.461377 0
3.61715 0.613189 0
2.96259 2.28915 0
3.54686 1.52599 0
4.01361 5.90042 0
3.98588 6.79588 0
3.97467 7.9417 0
3.87715 9.28986 0
5.57071 -1.91705 0
4.51076 -1.13028 0
6.71656 -1.33676 0
7.5955 -2.03737 0
8.40043 -2.86237 0
9.28966 -3.77678 0
3.42032 4.87887 0
3.34002 3.38676 0
4.69306 0.129946 0
4.52084 1.31061 0
4.06662 2.44492 0
4.5725 5.15481 0
4.8458 6.19363 0
4.98221 7.38377 0
5.05071 8.71142 0
5.88591 -0.435106 0
7.01409 -0.488466 0
7.76305 -1.08587 0
8.68858 -1.74678 0
9.70954 -2.53804 0
4.55424 3.82932 0
5.82025 1.09922 0
5.37347 2.53622 0
5.38268 4.62301 0
5.61491 5.52638 0
5.89986 6.67521 0
6.1375 7.98347 0
6.84954 0.463889 0
7.85733 -0.025653 0
8.86464 -0.584473 0
9.96477 -1.25519 0
6.96415 1.35029 0
5.724 3.78058 0
6.54487 2.19882 0
6.38358 3.08982 0
6.2958 4.68963 0
6.69671 5.84062 0
7.12121 7.12132 0
7.78859 0.968197 0
8.86393 0.572595 0
10.0511 0.0500472 0
7.62043 2.00551 0
6.83297 3.90657 0
7.27358 2.9486 0
7.38198 4.88866 0
7.98442 6.13863 0
8.72745 1.72808 0
9.96436 1.35511 0
8.42548 2.83905 0
7.98593 3.91822 0
8.71036 5.05047 0
9.71008 2.63867 0
9.28899 3.87708 0
CELLS 542 2168
3 2 0 4
3 0 1 7
3 4 0 7
3 1 5 8
3 7 1 8
3 3 2 13
3 13 2 4
3 11 3 14
3 14 3 13
3 13 4 15
3 4 7 16
3 15 4 16
3 5 6 17
3 8 5 17
3 6 9 18
3 17 6 18
3 7 8 19
3 16 7 19
3 8 17 20
3 19 8 20
3 9 10 23
3 18 9 23
3 10 21 24
3 23 10 24
3 12 11 25
3 25 11 14
3 26 12 27
3 27 12 25
3 14 13 29
3 29 13 15
3 25 14 30
3 30 14 29
3 29 15 31
3 15 16 33
3 31 15 33
3 16 19 34
3 33 16 34
3 17 18 35
3 20 17 35
3 18 23 36
3 35 18 36
3 19 20 37
3 34 19 37
3 20 35 38
3 37 20 38
3 21 22 39
3 24 21 39
3 22 32 40
3 39 22 40
3 23 24 41
3 36 23 41
3 24 39 42
3 41 24 42
3 27 25 44
3 44 25 30
3 28 26 45
3 45 26 27
3 45 27 46
3 46 27 44
3 47 28 48
3 48 28 45
3 30 29 50
3 50 29 31
3 44 30 51
3 51 30 50
3 50 31 52
3 31 33 52
3 32 43 53
3 40 32 53
3 53 43 54
3 33 34 55
3 34 37 55
3 33 55 52
3 35 36 56
3 38 35 56
3 36 41 57
3 56 36 57
3 37 38 58
3 38 56 58
3 37 58 55
3 39 40 59
3 42 39 59
3 40 53 60
3 59 40 60
3 41 42 61
3 57 41 61
3 42 59 62
3 61 42 62
3 43 63 54
3 46 44 64
3 64 44 51
3 48 45 65
3 65 45 46
3 65 46 66
3 66 46 64
3 49 47 67
3 67 47 48
3 67 48 68
3 68 48 65
3 69 49 70
3 70 49 67
3 52 55 72
3 64 51 73
3 51 50 73
3 50 52 73
3 73 52 74
3 74 52 72
3 53 54 75
3 60 53 75
3 54 63 76
3 54 76 77
3 75 54 77
3 55 58 78
3 72 55 78
3 72 78 79
3 56 57 80
3 57 61 80
3 56 80 58
3 58 80 81
3 78 58 81
3 59 60 82
3 62 59 82
3 60 75 83
3 82 60 83
3 61 62 84
3 62 82 84
3 61 84 80
3 63 85 76
3 66 64 86
3 64 73 86
3 68 65 87
3 87 65 66
3 87 66 86
3 70 67 88
3 88 67 68
3 88 68 89
3 89 68 87
3 71 69 90
3 90 69 70
3 90 70 91
3 91 70 88
3 92 71 93
3 93 71 90
3 74 72 94
3 94 72 79
3 86 73 95
3 95 73 74
3 95 74 96
3 96 74 94
3 97 86 95
3 76 85 99
3 75 77 100
3 83 75 100
3 76 99 101
3 77 76 101
3 77 101 102
3 100 77 102
3 94 79 103
3 78 81 104
3 79 78 104
3 79 104 103
3 80 84 105
3 81 80 105
3 81 105 106
3 104 81 106
3 82 83 107
3 83 100 107
3 82 107 84
3 84 107 108
3 105 84 108
3 85 109 99
3 89 87 110
3 87 86 110
3 110 86 97
3 91 88 111
3 111 88 89
3 111 89 110
3 93 90 112
3 112 90 91
3 112 91 113
3 113 91 111
3 98 92 114
3 114 92 93
3 114 93 115
3 115 93 112
3 116 98 114
3 117 103 118
3 96 94 119
3 94 103 119
3 119 103 117
3 97 95 120
3 120 95 96
3 120 96 119
3 121 110 97
3 121 97 122
3 122 97 120
3 123 119 117
3 124 98 116
3 99 109 125
3 99 125 126
3 101 99 126
3 100 102 127
3 100 127 107
3 101 126 128
3 102 101 128
3 102 128 127
3 104 106 129
3 104 129 103
3 103 129 118
3 105 108 130
3 106 105 130
3 106 130 129
3 107 127 131
3 108 107 131
3 108 131 132
3 108 132 130
3 109 134 125
3 125 134 133
3 113 111 135
3 111 110 135
3 135 110 121
3 115 112 136
3 136 112 113
3 136 113 135
3 116 114 137
3 137 114 115
3 137 115 138
3 138 115 136
3 139 124 116
3 139 116 140
3 140 116 137
3 141 135 121
3 118 129 142
3 118 142 143
3 117 118 143
3 123 117 143
3 122 120 144
3 120 119 144
3 144 119 123
3 141 121 145
3 145 121 122
3 145 122 144
3 146 141 145
3 147 144 123
3 147 123 148
3 143 148 123
3 150 124 139
3 149 150 139
3 131 127 151
3 125 133 152
3 126 125 152
3 126 152 153
3 128 126 153
3 128 153 154
3 128 154 127
3 127 154 151
3 152 133 155
3 130 132 156
3 130 156 129
3 129 156 142
3 131 151 157
3 132 131 157
3 132 157 156
3 156 158 142
3 157 151 159
3 133 160 155
3 134 161 133
3 133 161 160
3 138 136 162
3 136 135 162
3 162 135 141
3 140 137 163
3 163 137 138
3 163 138 162
3 149 139 164
3 164 139 140
3 164 140 165
3 165 140 163
3 166 149 164
3 167 162 141
3 167 141 146
3 142 158 168
3 143 142 168
3 143 168 148
3 146 145 169
3 145 144 169
3 169 144 147
3 170 167 146
3 170 146 169
3 171 169 147
3 171 147 148
3 171 148 172
3 168 172 148
3 173 149 166
3 174 150 149
3 173 174 149
3 154 175 151
3 151 175 159
3 152 155 176
3 153 152 176
3 153 176 177
3 153 177 154
3 154 177 175
3 155 160 178
3 155 178 179
3 176 155 179
3 156 157 180
3 156 180 158
3 157 159 181
3 157 181 180
3 158 180 182
3 158 182 168
3 159 175 183
3 159 183 181
3 175 184 183
3 160 186 178
3 178 186 185
3 161 187 160
3 160 187 186
3 165 163 188
3 163 162 188
3 188 162 167
3 166 164 189
3 189 164 165
3 189 165 188
3 190 173 166
3 190 166 191
3 191 166 189
3 192 188 167
3 192 167 170
3 193 192 170
3 182 194 168
3 194 172 168
3 193 170 195
3 170 169 195
3 195 169 171
3 196 195 171
3 196 171 172
3 194 197 172
3 197 198 172
3 198 196 172
3 200 173 190
3 199 200 190
3 201 174 173
3 200 201 173
3 176 179 202
3 177 176 202
3 177 202 175
3 175 202 184
3 178 185 203
3 178 203 179
3 179 203 202
3 203 185 204
3 202 205 184
3 183 206 181
3 180 181 206
3 180 206 182
3 182 206 194
3 183 184 207
3 205 207 184
3 183 207 206
3 185 208 204
3 186 209 185
3 185 209 208
3 187 210 186
3 186 210 209
3 191 189 211
3 189 188 211
3 211 188 192
3 199 190 212
3 212 190 191
3 212 191 211
3 213 199 212
3 214 211 192
3 214 192 193
3 215 214 193
3 215 193 195
3 206 216 194
3 216 197 194
3 216 217 197
3 215 195 218
3 218 195 196
3 198 218 196
3 217 219 197
3 219 218 198
3 197 219 198
3 220 199 213
3 221 200 199
3 220 221 199
3 222 201 200
3 221 222 200
3 203 204 223
3 203 223 202
3 202 223 205
3 204 208 224
3 204 224 223
3 205 223 225
3 205 225 207
3 207 225 226
3 207 226 206
3 226 216 206
3 208 228 224
3 224 228 227
3 209 229 208
3 229 228 208
3 210 230 209
3 209 230 229
3 213 212 231
3 212 211 231
3 231 211 214
3 232 220 213
3 232 213 231
3 233 231 214
3 233 214 215
3 234 233 215
3 234 215 218
3 226 235 216
3 235 217 216
3 235 236 217
3 217 236 219
3 237 234 218
3 237 218 219
3 236 238 219
3 238 237 219
3 240 220 232
3 239 240 232
3 241 221 220
3 240 241 220
3 242 222 221
3 241 242 221
3 224 227 243
3 224 243 223
3 223 243 225
3 225 243 244
3 225 244 226
3 226 244 235
3 227 245 243
3 228 246 227
3 227 246 245
3 229 247 228
3 228 247 246
3 230 248 229
3 229 248 247
3 239 232 249
3 232 231 249
3 249 231 233
3 250 249 233
3 250 233 234
3 237 250 234
3 244 251 235
3 235 251 236
3 251 252 236
3 236 252 238
3 252 253 238
3 253 250 237
3 253 237 238
3 254 239 249
3 255 240 239
3 254 255 239
3 256 241 240
3 255 256 240
3 257 242 241
3 256 257 241
3 245 258 243
3 243 258 244
3 244 258 251
3 245 259 258
3 246 260 245
3 245 260 259
3 247 261 246
3 246 261 260
3 248 262 247
3 247 262 261
3 254 249 263
3 263 249 250
3 253 263 250
3 258 264 251
3 251 264 252
3 264 265 252
3 265 263 253
3 252 265 253
3 266 254 263
3 267 255 254
3 266 267 254
3 268 256 255
3 267 268 255
3 269 257 256
3 268 269 256
3 259 270 258
3 270 264 258
3 260 271 259
3 259 271 270
3 261 272 260
3 260 272 271
3 262 273 261
3 273 272 261
3 270 274 264
3 275 266 263
3 275 263 265
3 274 276 264
3 276 265 264
3 276 277 265
3 277 275 265
3 278 267 266
3 275 278 266
3 279 268 267
3 278 279 267
3 280 269 268
3 279 280 268
3 271 281 270
3 270 281 274
3 272 282 271
3 271 282 281
3 273 283 272
3 272 283 282
3 281 284 274
3 274 284 276
3 285 278 275
3 277 285 275
3 284 286 276
3 286 285 277
3 276 286 277
3 287 279 278
3 285 287 278
3 288 280 279
3 287 288 279
3 282 289 281
3 281 289 284
3 283 290 282
3 282 290 289
3 289 291 284
3 284 291 286
3 291 292 286
3 292 287 285
3 286 292 285
3 293 288 287
3 292 293 287
3 290 294 289
3 289 294 291
3 294 295 291
3 295 293 292
3 291 295 292
CELL_TYPES 542
5
5
5
5
5
5
5
5
5
5
5
5
5
5
5
5
5
5
5
5
5
5
5
5
5
5
5
5
5
5
5
5
5
5
5
5
5
5
5
5
5
5
5
5
5
5
5
5
5
5
5
5
5
5
5
5
5
5
5
5
5
5
5
5
5
5
5
5
5
5
5
5
5
5
5
5
5
5
5
5
5
5
5
5
5
5
5
5
5
5
5
5
5
5
5
5
5
5
5
5
5
5
5
5
5
5
5
5
5
5
5
5
5
5
5
5
5
5
5
5
5
5
5
5
5
5
5
5
5
5
5
5
5
5
5
5
5
5
5
5
5
5
5
5
5
5
5
5
5
5
5
5
5
5
5
5
5
5
5
5
5
5
5
5
5
5
5
5
5
5
5
5
5
5
5
5
5
5
5
5
5
5
5
5
5
5
5
5
5
5
5
5
5
5
5
5
5
5
5
5
5
5
5
5
5
5
5
5
5
5
5
5
5
5
5
5
5
5
5
5
5
5
5
5
5
5
5
5
5
5
5
5
5
5
5
5
5
5
5
5
5
5
5
5
5
5
5
5
5
5
5
5
5
5
5
5
5
5
5
5
5
5
5
5
5
5
5
5
5
5
5
5
5
5
5
5
5
5
5
5
5
5
5
5
5
5
5
5
5
5
5
5
5
5
5
5
5
5
5
5
5
5
5
5
5
5
5
5
5
5
5
5
5
5
5
5
5
5
5
5
5
5
5
5
5
5
5
5
5
5
5
5
5
5
5
5
5
5
5
5
5
5
5
5
5
5
5
5
5
5
5
5
5
5
5
5
5
5
5
5
5
5
5
5
5
5
5
5
5
5
5
5
5
5
5
5
5
5
5
5
5
5
5
5
5
5
5
5
5
5
5
5
5
5
5
5
5
5
5
5
5
5
5
5
5
5
5
5
5
5
5
5
5
5
5
5
5
5
5
5
5
5
5
5
5
5
5
5
5
5
5
5
5
5
5
5
5
5
5
5
5
5
5
5
5
5
5
5
5
5
5
5
5
5
5
5
5
5
5
5
5
5
5
5
5
5
5
5
5
5
5
5
5
5
5
5
5
5
5
5
5
5
5
5
5
5
5
5
5
5
5
5
5
5
5
5
5
5
5
5
5
5
5
5
5
5
5
5
5
5
5
5
5
5
5
5
5
5
5
5
5
5
5
5
5
5
5
5
5
5
5
5
5
5
5
5
5
5
5
5
5
5
POINT_DATA 296
SCALARS concentrations float 4
LOOKUP_TABLE default
0 1.00019 0.0944174 11.6265
0 1.00023 0.0941839 10.3146
0 1.00013 0.092289 15.4859
0 1.00017 0.0904013 10.768
0 1.00015 0.0824366 6.97482
0 1.00013 0.0970446 11.9489
0 1.00009 0.0983363 9.2062
0 1.0002 0.0825898 7.02113
0 1.00018 0.0824925 6.94093
0 1.00011 0.0952148 9.03068
0 1.00009 0.09687 11.2094
0 1.00016 0.0920829 5.56809
0 1.00013 0.0959293 14.4768
0 1.00015 0.0822204 6.88249
0 1.00016 0.0819731 6.99084
0 1.00015 0.0824886 6.9256
0 1.00016 0.082695 6.95825
0 1.00012 0.0822654 6.92917
0 1.00012 0.0822115 7.09617
0 1.00017 0.0827426 7.04077
0 1.00015 0.0825625 7.10899
0 1.00011 0.0929783 2.98961
0 1.00017 0.0902912 8.3945
0 1.00012 0.0822413 7.33722
0 1.00011 0.0819625 7.35122
0 1.00013 0.081859 6.97464
0 1.00015 0.0898046 9.8047
0 1.00013 0.0817464 6.85878
0 1.00017 0.0959044 14.3772
0 1.00015 0.0822793 6.91246
0 1.00014 0.0821163 6.91286
0 1.00015 0.0825031 6.90829
0 1.00016 0.0933193 5.50441
0 1.00015 0.0826919 6.95195
0 1.00015 0.0828578 6.98684
0 1.00015 0.0823869 7.20032
0 1.00015 0.082276 7.29589
0 1.00015 0.0827473 7.11132
0 1.00015 0.0826107 7.22825
0 1.00014 0.081851 7.35096
0 1.00016 0.0819689 7.4601
0 1.00015 0.0821974 7.38304
0 1.00014 0.0821051 7.38587
0 1.00017 0.0943678 12.0174
0 1.00012 0.0819782 6.84707
0 1.00015 0.0818543 6.76239
0 1.00012 0.0819311 6.75921
0 1.00017 0.0929482 9.35054
0 1.00016 0.0816689 6.87342
0 1.00017 0.0941282 5.4421
0 1.00014 0.0823891 6.88627
0 1.00013 0.0822349 6.84355
0 1.00015 0.0826244 6.92519
0 1.00014 0.0817093 7.21559
0 1.00013 0.0814435 7.31252
0 1.00015 0.0829168 6.97964
0 1.00015 0.0825239 7.33138
0 1.00015 0.0824084 7.39188
0 1.00015 0.0827115 7.18646
0 1.00014 0.081546 7.13696
0 1.00013 0.0814499 7.13441
0 1.00015 0.0824023 7.45291
0 1.00015 0.0818725 7.23402
0 1.00012 0.0940833 8.32138
0 1.00013 0.0821346 6.79796
0 1.00013 0.0818696 6.80443
0 1.00013 0.0819474 6.78509
0 1.00016 0.0815777 7.07533
0 1.00015 0.0816463 6.96069
0 1.00009 0.0952966 9.53062
0 1.00013 0.0814807 7.12187
0 1.00009 0.0901851 9.36015
0 1.00015 0.082885 6.98717
0 1.00014 0.0823606 6.88513
0 1.00015 0.0824396 7.05788
0 1.00011 0.0813529 7.07401
0 1.0001 0.081529 7.18882
0 1.0001 0.0815693 7.00116
0 1.00015 0.0829704 7.04753
0 1.00016 0.08214 7.29677
0 1.00015 0.0825605 7.35687
0 1.00016 0.0827663 7.21256
0 1.00014 0.0815225 7.11921
0 1.00012 0.0812737 7.05375
0 1.00015 0.0823708 7.49465
0 1.00013 0.0982926 12.3814
0 1.00014 0.0819018 6.96529
0 1.00014 0.0817456 6.90172
0 1.00014 0.0815294 7.0636
0 1.00014 0.0816546 6.99798
0 1.00009 0.0815582 7.15209
0 1.00013 0.0815834 7.1403
0 1.00004 0.0954972 14.2558
0 1.00009 0.0817658 7.21762
0 1.00016 0.0820445 7.19624
0 1.00015 0.0820828 7.10962
0 1.00016 0.0819957 7.17054
0 1.00015 0.0818365 7.19972
0 1.00002 0.0946562 18.3497
0 1.00012 0.0820739 6.95267
0 1.00012 0.0814184 6.9569
0 1.0001 0.0819636 6.85531
0 1.00011 0.0816873 6.89237
0 1.00016 0.082715 6.90276
0 1.00016 0.0829237 7.1421
0 1.00016 0.0824247 7.35783
0 1.00016 0.082528 7.26594
0 1.00014 0.0817347 7.30346
0 1.00015 0.082023 7.43959
0 1.00014 0.0907148 11.7667
0 1.00014 0.0815197 7.12174
0 1.00014 0.0816002 7.105
0 1.00011 0.0817623 7.19561
0 1.00013 0.081711 7.18557
0 1.00004 0.0819009 7.12995
0 1.0001 0.0820051 7.23423
0 1.00009 0.0819507 6.98877
0 1.00017 0.0824478 6.81957
0 1.00017 0.0822779 6.86659
0 1.00017 0.0827967 6.94298
0 1.00016 0.0819155 7.19948
0 1.00015 0.0815189 7.31276
0 1.00016 0.0817066 7.2045
0 1.00017 0.0823776 6.7373
0 1.00012 0.0974147 12.0133
0 1.00011 0.0824675 6.67821
0 1.0001 0.0823529 6.68587
0 1.00014 0.0813234 7.09273
0 1.00012 0.0818464 6.90218
0 1.00017 0.0823087 7.21621
0 1.00016 0.0821257 7.34066
0 1.00015 0.0814369 7.24852
0 1.00016 0.0817368 7.36274
0 1.0001 0.0824855 6.59374
0 1.00009 0.0927737 11.609
0 1.00014 0.0815129 7.26401
0 1.00013 0.0817797 7.27157
0 1.00011 0.0822381 7.12927
0 1.00013 0.0818763 7.31632
0 1.00015 0.0818303 7.28477
0 1.00014 0.082294 7.16944
0 1.00015 0.0816695 7.37448
0 1.00017 0.0818856 6.92496
0 1.00017 0.0822093 6.77281
0 1.00017 0.0823619 6.82369
0 1.00016 0.0818049 7.15185
0 1.00016 0.0819477 7.22598
0 1.00018 0.0823208 6.62804
0 1.00018 0.0823359 6.60473
0 1.00018 0.0819701 7.30303
0 1.00017 0.0930436 6.16643
0 1.00015 0.0813672 7.08595
0 1.00012 0.0826219 6.60462
0 1.00013 0.0822327 6.78134
0 1.00014 0.0818403 6.92067
0 1.00013 0.0823295 6.67183
0 1.00017 0.0818459 7.28195
0 1.00016 0.0813963 7.22626
0 1.00018 0.0817101 6.93732
0 1.00016 0.0815104 7.04708
0 1.00011 0.0822061 6.62589
0 1.0001 0.094343 6.95308
0 1.00015 0.0816442 7.36292
0 1.00015 0.0817832 7.26804
0 1.00017 0.0822415 7.25015
0 1.00016 0.0822922 7.23803
0 1.0002 0.0822458 7.23854
0 1.00016 0.0819362 7.35074
0 1.00018 0.0820623 6.75206
0 1.00017 0.0822838 6.8486
0 1.00017 0.0821847 7.19782
0 1.00018 0.0824324 6.63367
0 1.00018 0.0825122 6.54335
0 1.00021 0.0820573 7.3433
0 1.0002 0.0918834 6.03229
0 1.00016 0.0818889 6.90228
0 1.00015 0.0822925 6.74678
0 1.00015 0.0821558 6.82178
0 1.00015 0.0820434 6.78606
0 1.00015 0.0821579 6.79804
0 1.00017 0.0815863 7.22436
0 1.00017 0.081465 7.11219
0 1.00018 0.0817346 6.90292
0 1.00017 0.0815801 7.04034
0 1.00017 0.0817089 7.00045
0 1.00015 0.0818879 6.90078
0 1.00011 0.081991 6.73567
0 1.00007 0.0947021 8.24115
0 1.00016 0.0817802 7.32592
0 1.00018 0.0823809 7.29458
0 1.0002 0.0822767 7.19096
0 1.00019 0.0823846 7.28372
0 1.00016 0.0821382 6.9838
0 1.00016 0.0822206 7.24381
0 1.00018 0.0822396 6.70304
0 1.00018 0.0822257 7.06466
0 1.00018 0.0825729 6.60442
0 1.00018 0.082639 6.51641
0 1.00018 0.0827242 6.46963
0 1.0002 0.0822387 7.16702
0 1.00021 0.0820374 7.25925
0 1.00021 0.0981354 10.5696
0 1.00016 0.0819324 6.9054
0 1.00016 0.0819872 6.91702
0 1.00016 0.0818743 7.00343
0 1.00017 0.0817589 7.035
0 1.00018 0.0815682 7.07666
0 1.00017 0.0816424 7.09854
0 1.00015 0.0817728 7.02943
0 1.00015 0.0818159 6.97994
0 1.00013 0.0919592 9.55931
0 1.00017 0.0821518 7.3665
0 1.00019 0.0824597 7.24186
0 1.00018 0.0824728 7.40868
0 1.00016 0.0823445 7.2962
0 1.00017 0.0822339 7.26055
0 1.00018 0.0819564 6.93352
0 1.00018 0.0824225 6.75804
0 1.00018 0.0823824 7.07165
0 1.00018 0.0829464 6.38501
0 1.00019 0.082258 7.3204
0 1.00021 0.0820394 7.26847
0 1.00021 0.0907884 11.3205
0 1.00016 0.08188 7.03632
0 1.00015 0.0818805 7.08985
0 1.00017 0.081847 7.11564
0 1.00018 0.0817704 7.08821
0 1.00014 0.081998 7.1299
0 1.00012 0.0818355 7.10589
0 1.00013 0.0816945 7.09271
0 1.00015 0.096176 17.2682
0 1.00017 0.0825417 7.41386
0 1.00018 0.0823363 7.17373
0 1.00017 0.082376 7.31606
0 1.00018 0.082312 7.30962
0 1.00018 0.0821492 6.9252
0 1.00018 0.0826655 6.61522
0 1.00018 0.0823334 7.26825
0 1.00018 0.0825948 6.74052
0 1.00017 0.0820407 6.97609
0 1.00017 0.0819653 7.09465
0 1.00018 0.0819395 7.26708
0 1.0002 0.0935428 8.27541
0 1.00016 0.082076 7.10244
0 1.00017 0.0820403 7.02245
0 1.00015 0.0820825 7.03407
0 1.00011 0.0818788 7.07587
0 1.00008 0.0817626 7.03357
0 1.0001 0.0977529 11.9298
0 1.00017 0.0821516 6.98167
0 1.00017 0.0821909 7.07419
0 1.00017 0.0824532 6.73947
0 1.00017 0.0824281 6.70621
0 1.00017 0.0823001 6.93929
0 1.00016 0.0819715 6.86139
0 1.00014 0.0817626 6.90608
0 1.00013 0.081688 7.08809
0 1.00014 0.0913538 5.26384
0 1.00017 0.0822423 6.87601
0 1.00015 0.0820477 6.93717
0 1.00011 0.081907 6.98701
0 1.00008 0.0817393 7.04631
0 1.00005 0.0962474 18.8075
0 1.00017 0.0820389 6.85314
0 1.00017 0.082245 6.77696
0 1.00017 0.0823021 6.78311
0 1.00016 0.0819427 6.8248
0 1.00015 0.0817828 6.84326
0 1.00011 0.0816665 6.83697
0 1.00009 0.0902542 10.218
0 1.00015 0.0821356 6.85252
0 1.00013 0.0819096 6.9352
0 1.0001 0.0818807 6.96025
0 1.00009 0.090404 9.44991
0 1.00015 0.0821541 6.84909
0 1.00016 0.0821474 6.8117
0 1.00016 0.0822373 6.82019
0 1.00016 0.0823141 6.80987
0 1.00016 0.0820264 6.83931
0 1.00018 0.0820958 7.0574
0 1.00015 0.0949378 12.7823
0 1.00013 0.0819745 6.88421
0 1.00011 0.0818504 7.0502
0 1.00009 0.092374 6.81677
0 1.00013 0.082071 6.89388
0 1.00016 0.0823233 6.83141
0 1.00014 0.0822251 6.84691
0 1.00019 0.0821048 6.88019
0 1.00023 0.0947883 8.84982
0 1.0001 0.0818594 6.91505
0 1.00011 0.0902181 12.3767
0 1.00007 0.0819568 7.01115
0 1.00012 0.0821108 6.91267
0 1.00016 0.0930119 10.2819
0 1.00006 0.0958907 8.82853
0 1.00005 0.0970644 12.4775
VECTORS fa_u float
0.00609255 0.00252192 -0
0.00569007 0.00328787 -0
0.00624802 0.00167219 -0
0.00645004 0.000849931 -0
1e-08 0 0
0.00511732 0.00392814 -0
0.00459818 0.00459555 -0
1e-08 0 0
1e-08 0 0
0.00405227 0.00528348 -0
0.00320164 0.00554912 -0
0.00660133 -1.25949e-06 -0
0.00636143 -0.000837413 0
1e-08 0 0
1e-08 0 0
1e-08 0 0
1e-08 0 0
1e-08 0 0
1e-08 0 0
1e-08 0 0
1e-08 0 0
0.00251255 0.00606397 -0
0.00167783 0.00625715 -0
1e-08 0 0
1e-08 0 0
1e-08 0 0
0.00640832 -0.00171704 0
1e-08 0 0
0.00595053 -0.00246541 0
1e-08 0 0
1e-08 0 0
1e-08 0 0
0.000857582 0.00650153 -0
1e-08 0 0
1e-08 0 0
1e-08 0 0
1e-08 0 0
1e-08 0 0
1e-08 0 0
1e-08 0 0
1e-08 0 0
1e-08 0 0
1e-08 0 0
1.22475e-08 0.00654155 -0
1e-08 0 0
1e-08 0 0
1e-08 0 0
0.00563705 -0.0032514 0
1e-08 0 0
0.00523763 -0.0040178 0
1e-08 0 0
1e-08 0 0
1e-08 0 0
1e-08 0 0
1e-08 0 0
1e-08 0 0
1e-08 0 0
1e-08 0 0
1e-08 0 0
1e-08 0 0
1e-08 0 0
1e-08 0 0
1e-08 0 0
-0.000856752 0.00649776 0
1e-08 0 0
1e-08 0 0
1e-08 0 0
1e-08 0 0
1e-08 0 0
0.00462392 -0.00462692 0
1e-08 0 0
0.00392173 -0.00511061 0
1e-08 0 0
1e-08 0 0
1e-08 0 0
1e-08 0 0
1e-08 0 0
1e-08 0 0
1e-08 0 0
1e-08 0 0
1e-08 0 0
1e-08 0 0
1e-08 0 0
1e-08 0 0
1e-08 0 0
-0.00168968 0.0062974 0
1e-08 0 0
1e-08 0 0
1e-08 0 0
1e-08 0 0
1e-08 0 0
1e-08 0 0
0.00330262 -0.00571975 0
1e-08 0 0
1e-08 0 0
1e-08 0 0
1e-08 0 0
1e-08 0 0
0.00247006 -0.00596273 0
1e-08 0 0
1e-08 0 0
1e-08 0 0
1e-08 0 0
1e-08 0 0
1e-08 0 0
1e-08 0 0
1e-08 0 0
1e-08 0 0
1e-08 0 0
-0.00247399 0.00597296 0
1e-08 0 0
1e-08 0 0
1e-08 0 0
1e-08 0 0
1e-08 0 0
1e-08 0 0
1e-08 0 0
1e-08 0 0
1e-08 0 0
1e-08 0 0
1e-08 0 0
1e-08 0 0
1e-08 0 0
1e-08 0 0
0.00170565 -0.00636431 0
1e-08 0 0
1e-08 0 0
1e-08 0 0
1e-08 0 0
1e-08 0 0
1e-08 0 0
1e-08 0 0
1e-08 0 0
1e-08 0 0
-0.00326161 0.00565319 0
1e-08 0 0
1e-08 0 0
1e-08 0 0
1e-08 0 0
1e-08 0 0
1e-08 0 0
1e-08 0 0
1e-08 0 0
1e-08 0 0
1e-08 0 0
1e-08 0 0
1e-08 0 0
1e-08 0 0
1e-08 0 0
1e-08 0 0
0.000841599 -0.00638297 0
1e-08 0 0
1e-08 0 0
1e-08 0 0
1e-08 0 0
1e-08 0 0
1e-08 0 0
1e-08 0 0
1e-08 0 0
1e-08 0 0
1e-08 0 0
-0.00399821 0.00521147 0
1e-08 0 0
1e-08 0 0
1e-08 0 0
1e-08 0 0
1e-08 0 0
1e-08 0 0
1e-08 0 0
1e-08 0 0
1e-08 0 0
1e-08 0 0
1e-08 0 0
1e-08 0 0
-4.40777e-07 -0.00666092 0
1e-08 0 0
1e-08 0 0
1e-08 0 0
1e-08 0 0
1e-08 0 0
1e-08 0 0
1e-08 0 0
1e-08 0 0
1e-08 0 0
1e-08 0 0
1e-08 0 0
1e-08 0 0
-0.00458387 0.00458478 0
1e-08 0 0
1e-08 0 0
1e-08 0 0
1e-08 0 0
1e-08 0 0
1e-08 0 0
1e-08 0 0
1e-08 0 0
1e-08 0 0
1e-08 0 0
1e-08 0 0
1e-08 0 0
1e-08 0 0
-0.000842691 -0.00638585 0
1e-08 0 0
1e-08 0 0
1e-08 0 0
1e-08 0 0
1e-08 0 0
1e-08 0 0
1e-08 0 0
1e-08 0 0
-0.00525843 0.00403303 0
1e-08 0 0
1e-08 0 0
1e-08 0 0
1e-08 0 0
1e-08 0 0
1e-08 0 0
1e-08 0 0
1e-08 0 0
1e-08 0 0
1e-08 0 0
1e-08 0 0
-0.00168345 -0.00628787 0
1e-08 0 0
1e-08 0 0
1e-08 0 0
1e-08 0 0
1e-08 0 0
1e-08 0 0
1e-08 0 0
-0.00556712 0.0032126 0
1e-08 0 0
1e-08 0 0
1e-08 0 0
1e-08 0 0
1e-08 0 0
1e-08 0 0
1e-08 0 0
1e-08 0 0
1e-08 0 0
1e-08 0 0
1e-08 0 0
-0.00249903 -0.00603712 0
1e-08 0 0
1e-08 0 0
1e-08 0 0
1e-08 0 0
1e-08 0 0
-0.00609496 0.00252404 0
1e-08 0 0
1e-08 0 0
1e-08 0 0
1e-08 0 0
1e-08 0 0
1e-08 0 0
1e-08 0 0
1e-08 0 0
-0.00333217 -0.00576544 0
1e-08 0 0
1e-08 0 0
1e-08 0 0
1e-08 0 0
-0.0062584 0.00167558 0
1e-08 0 0
1e-08 0 0
1e-08 0 0
1e-08 0 0
1e-08 0 0
1e-08 0 0
-0.00388856 -0.00506336 0
1e-08 0 0
1e-08 0 0
1e-08 0 0
-0.00641833 0.000846957 0
1e-08 0 0
1e-08 0 0
1e-08 0 0
1e-08 0 0
1e-08 0 0
1e-08 0 0
-0.00457716 -0.0045823 0
1e-08 0 0
1e-08 0 0
-0.00667177 -1.03089e-06 0
1e-08 0 0
1e-08 0 0
1e-08 0 0
1e-08 0 0
-0.0052993 -0.00406664 0
1e-08 0 0
-0.0063071 -0.000830788 0
1e-08 0 0
1e-08 0 0
-0.00559191 -0.00322569 0
-0.0064273 -0.0017212 0
-0.00597991 -0.00247874 0
