# vtk DataFile Version 2.0
CellBP Time: 6.16
ASCII
DATASET UNSTRUCTURED_GRID
POINTS 296 double
-8.9806 -3.6797 0
-8.42031 -4.83523 0
-9.37635 -2.4555 0
-9.64867 -1.21885 0
-8.13652 -2.72364 0
-7.70169 -5.90358 0
-6.85108 -6.86999 0
-7.69609 -3.75362 0
-7.13552 -4.72998 0
-5.91781 -7.73715 0
-4.87975 -8.46803 0
-9.75385 0.0394999 0
-9.69313 1.31983 0
-8.455 -1.62816 0
-8.60464 -0.507799 0
-7.37973 -1.92733 0
-7.00883 -2.79934 0
-6.47401 -5.64373 0
-5.69776 -6.46862 0
-6.58171 -3.76334 0
-6.04148 -4.54911 0
-3.7265 -9.03417 0
-2.4966 -9.43775 0
-4.81895 -7.17974 0
-3.8619 -7.76543 0
-8.62094 0.630469 0
-9.46845 2.59858 0
-8.47182 1.73217 0
-9.05637 3.81812 0
-7.55312 -0.889376 0
-7.61669 0.0880638 0
-6.76729 -1.26132 0
-1.22289 -9.67786 0
-6.26918 -2.08028 0
-6.14128 -2.95937 0
-5.39338 -5.35123 0
-4.68791 -5.99589 0
-5.5018 -3.65522 0
-5.12338 -4.44719 0
-2.82597 -8.22787 0
-1.75321 -8.48814 0
-3.85843 -6.6064 0
-3.01834 -7.04148 0
0.054666 -9.74166 0
-7.54235 1.11984 0
-8.2108 2.87171 0
-7.39905 2.05896 0
-8.44798 4.94659 0
-7.73203 3.894 0
-7.69564 5.99136 0
-6.61116 -0.373818 0
-6.79014 0.548644 0
-5.64117 -0.977588 0
-0.578852 -8.64318 0
0.549386 -8.58111 0
-5.17832 -2.41169 0
-4.37094 -4.98207 0
-3.81406 -5.66484 0
-4.3373 -3.72098 0
-2.03132 -7.4369 0
-1.11992 -7.64615 0
-2.93703 -5.99249 0
-2.27743 -6.51132 0
1.31773 -9.62836 0
-6.54478 1.38781 0
-7.01714 3.04133 0
-6.5189 2.31538 0
-7.14075 4.86964 0
-6.57292 3.90615 0
-6.84989 6.94388 0
-6.4286 5.75507 0
-5.89979 7.80168 0
-4.3831 -1.1634 0
-5.70091 0.496728 0
-4.58621 -0.022618 0
-0.00780798 -7.68336 0
1.68545 -8.43128 0
0.907205 -7.5806 0
-3.97338 -2.36214 0
-3.45947 -1.38148 0
-3.23149 -4.71457 0
-3.22307 -3.21393 0
-1.36567 -6.5521 0
-0.519406 -6.87975 0
-1.95031 -5.44617 0
2.5721 -9.37978 0
-5.40116 1.99841 0
-5.96637 2.99653 0
-5.97225 4.74679 0
-5.63711 3.88959 0
-5.62617 6.55721 0
-5.32972 5.47908 0
-4.86199 8.55003 0
-4.72219 7.21874 0
-3.46827 -0.420085 0
-4.37608 1.22846 0
-3.66369 0.585744 0
-3.9918 2.29734 0
-3.71862 9.12039 0
2.77152 -8.10086 0
0.379429 -6.63626 0
1.94616 -7.32297 0
1.24176 -6.72553 0
-2.42937 -0.864385 0
-2.81705 -2.11069 0
-2.26683 -4.03496 0
-2.30365 -2.9344 0
-0.454465 -5.74016 0
-1.20562 -4.43635 0
3.78786 -8.98249 0
-4.69651 3.32127 0
-4.97727 4.47675 0
-4.53849 6.1164 0
-4.43691 5.22404 0
-3.7657 7.82088 0
-3.73086 6.66061 0
-2.72187 8.22855 0
-1.63736 -0.129149 0
-1.43878 -0.880951 0
-2.47416 0.51568 0
-3.21127 1.43719 0
-3.18549 3.26542 0
-2.87183 2.36138 0
-1.3518 0.637124 0
-2.4947 9.51129 0
3.81518 -7.6667 0
2.85443 -6.93615 0
0.90793 -5.68015 0
1.98871 -6.23281 0
-1.66864 -1.97766 0
-1.41688 -3.2402 0
0.0802733 -4.66234 0
-0.552302 -3.65072 0
4.79574 -7.11064 0
4.9361 -8.42201 0
-3.69958 4.45416 0
-3.64985 5.60964 0
-2.81207 7.10445 0
-2.93988 6.19846 0
-1.6287 8.54643 0
-1.88958 7.44516 0
-2.30309 3.98757 0
-0.723614 -1.31812 0
-0.831812 -0.249911 0
-1.92937 1.68868 0
-2.10519 2.85726 0
-1.29956 3.51078 0
-0.873334 1.36226 0
-0.283686 0.466063 0
-0.523988 8.70031 0
-1.23022 9.75018 0
1.0767 -4.47624 0
3.77452 -6.48874 0
2.8841 -5.90691 0
2.04584 -5.27961 0
4.65183 -6.00876 0
-0.549391 -2.45942 0
0.489826 -3.41713 0
0.0569123 -1.60479 0
1.44564 -3.61008 0
5.72235 -6.43271 0
6.00273 -7.7054 0
-2.42367 5.23621 0
-2.073 6.38343 0
-0.880292 7.64717 0
-1.2305 6.77936 0
0.091447 7.73667 0
-1.12768 4.42817 0
0.151073 -0.610832 0
-0.806053 2.49407 0
-0.343433 3.57829 0
0.0544056 1.51872 0
0.733099 0.477392 0
0.63963 8.72393 0
0.0434305 9.85713 0
2.31931 -4.17666 0
3.74561 -5.45938 0
2.91232 -5.06164 0
5.44796 -5.33607 0
4.56896 -5.11172 0
0.633062 -2.28458 0
1.24031 -2.91047 0
0.757055 -1.38625 0
2.12466 -3.07788 0
2.93588 -3.39592 0
6.03266 -4.67196 0
6.51643 -5.63163 0
6.96248 -6.84688 0
-0.990251 5.70828 0
-0.35041 6.74451 0
1.10597 7.63932 0
0.560346 6.95183 0
-0.00219918 4.66343 0
0.590784 3.79026 0
1.33028 -0.639366 0
0.523804 2.63939 0
0.951135 1.5755 0
1.89617 0.212146 0
1.59618 1.06457 0
2.1054 7.46662 0
1.77557 8.56957 0
1.329 9.78335 0
3.73255 -4.22944 0
5.00432 -4.31207 0
5.73409 -3.83186 0
3.71395 -3.12682 0
1.79891 -1.87705 0
2.97246 -2.53343 0
6.6706 -3.86211 0
7.25303 -4.79773 0
7.827 -5.9065 0
0.485275 5.78114 0
1.41293 6.63451 0
2.34351 6.5699 0
1.18884 4.49947 0
1.46736 3.36378 0
2.41347 -0.686833 0
2.80233 0.142007 0
1.77041 2.15074 0
2.58997 1.14132 0
3.03276 7.06268 0
2.86641 8.24911 0
2.59958 9.53755 0
4.81599 -3.23987 0
6.01522 -3.03312 0
4.11046 -2.23688 0
3.20563 -1.48737 0
6.63253 -2.27808 0
7.1281 -2.99713 0
7.84317 -3.85529 0
8.56186 -4.87108 0
1.99989 5.51791 0
3.02487 6.05131 0
2.34168 4.072 0
2.39358 3.02794 0
3.48421 -0.454288 0
3.57886 0.615041 0
2.9287 2.26413 0
3.49747 1.50941 0
3.91953 5.7951 0
3.91164 6.67972 0
3.92468 7.81841 0
3.82634 9.12996 0
5.48776 -1.88327 0
4.45009 -1.11268 0
6.60879 -1.31302 0
7.47781 -2.00056 0
8.26678 -2.82036 0
9.13233 -3.72219 0
3.34204 4.79053 0
3.27885 3.33358 0
4.62677 0.135101 0
4.43881 1.28591 0
3.98287 2.39941 0
4.44627 5.04577 0
4.73664 6.07477 0
4.88932 7.25256 0
4.97573 8.56006 0
5.7844 -0.43322 0
6.88104 -0.488262 0
7.63535 -1.06351 0
8.54529 -1.71898 0
9.53739 -2.49324 0
4.4367 3.74659 0
5.6934 1.059 0
5.23369 2.46856 0
5.22239 4.5101 0
5.46795 5.40325 0
5.7706 6.53727 0
6.01167 7.82725 0
6.70022 0.435017 0
7.70123 -0.0290702 0
8.71015 -0.566887 0
9.77976 -1.22044 0
6.79825 1.29617 0
5.55453 3.67753 0
6.37058 2.12115 0
6.19731 2.99235 0
6.10963 4.56511 0
6.52435 5.7041 0
6.95712 6.96882 0
7.61711 0.934779 0
8.68774 0.560974 0
9.84804 0.0616263 0
7.42799 1.94038 0
6.61274 3.78168 0
7.06169 2.85152 0
7.18695 4.76153 0
7.81687 6.01138 0
8.52227 1.68479 0
9.7326 1.3244 0
8.19986 2.75749 0
7.77887 3.81288 0
8.53345 4.94616 0
9.48905 2.58106 0
9.09357 3.79745 0
CELLS 542 2168
3 2 0 4
3 0 1 7
3 4 0 7
3 1 5 8
3 7 1 8
3 3 2 13
3 13 2 4
3 11 3 14
3 14 3 13
3 13 4 15
3 4 7 16
3 15 4 16
3 5 6 17
3 8 5 17
3 6 9 18
3 17 6 18
3 7 8 19
3 16 7 19
3 8 17 20
3 19 8 20
3 9 10 23
3 18 9 23
3 10 21 24
3 23 10 24
3 12 11 25
3 25 11 14
3 26 12 27
3 27 12 25
3 14 13 29
3 29 13 15
3 25 14 30
3 30 14 29
3 29 15 31
3 15 16 33
3 31 15 33
3 16 19 34
3 33 16 34
3 17 18 35
3 20 17 35
3 18 23 36
3 35 18 36
3 19 20 37
3 34 19 37
3 20 35 38
3 37 20 38
3 21 22 39
3 24 21 39
3 22 32 40
3 39 22 40
3 23 24 41
3 36 23 41
3 24 39 42
3 41 24 42
3 27 25 44
3 44 25 30
3 28 26 45
3 45 26 27
3 45 27 46
3 46 27 44
3 47 28 48
3 48 28 45
3 30 29 50
3 50 29 31
3 44 30 51
3 51 30 50
3 50 31 52
3 31 33 52
3 32 43 53
3 40 32 53
3 53 43 54
3 33 34 55
3 34 37 55
3 33 55 52
3 35 36 56
3 38 35 56
3 36 41 57
3 56 36 57
3 37 38 58
3 38 56 58
3 37 58 55
3 39 40 59
3 42 39 59
3 40 53 60
3 59 40 60
3 41 42 61
3 57 41 61
3 42 59 62
3 61 42 62
3 43 63 54
3 46 44 64
3 64 44 51
3 48 45 65
3 65 45 46
3 65 46 66
3 66 46 64
3 49 47 67
3 67 47 48
3 67 48 68
3 68 48 65
3 69 49 70
3 70 49 67
3 52 55 72
3 64 51 73
3 51 50 73
3 50 52 73
3 73 52 74
3 74 52 72
3 53 54 75
3 60 53 75
3 54 63 76
3 54 76 77
3 75 54 77
3 55 58 78
3 72 55 78
3 72 78 79
3 56 57 80
3 57 61 80
3 56 80 58
3 58 80 81
3 78 58 81
3 59 60 82
3 62 59 82
3 60 75 83
3 82 60 83
3 61 62 84
3 62 82 84
3 61 84 80
3 63 85 76
3 66 64 86
3 64 73 86
3 68 65 87
3 87 65 66
3 87 66 86
3 70 67 88
3 88 67 68
3 88 68 89
3 89 68 87
3 71 69 90
3 90 69 70
3 90 70 91
3 91 70 88
3 92 71 93
3 93 71 90
3 74 72 94
3 94 72 79
3 86 73 95
3 95 73 74
3 95 74 96
3 96 74 94
3 97 86 95
3 76 85 99
3 75 77 100
3 83 75 100
3 76 99 101
3 77 76 101
3 77 101 102
3 100 77 102
3 94 79 103
3 78 81 104
3 79 78 104
3 79 104 103
3 80 84 105
3 81 80 105
3 81 105 106
3 104 81 106
3 82 83 107
3 83 100 107
3 82 107 84
3 84 107 108
3 105 84 108
3 85 109 99
3 89 87 110
3 87 86 110
3 110 86 97
3 91 88 111
3 111 88 89
3 111 89 110
3 93 90 112
3 112 90 91
3 112 91 113
3 113 91 111
3 98 92 114
3 114 92 93
3 114 93 115
3 115 93 112
3 116 98 114
3 117 103 118
3 96 94 119
3 94 103 119
3 119 103 117
3 97 95 120
3 120 95 96
3 120 96 119
3 121 110 97
3 121 97 122
3 122 97 120
3 123 119 117
3 124 98 116
3 99 109 125
3 99 125 126
3 101 99 126
3 100 102 127
3 100 127 107
3 101 126 128
3 102 101 128
3 102 128 127
3 104 106 129
3 104 129 103
3 103 129 118
3 105 108 130
3 106 105 130
3 106 130 129
3 107 127 131
3 108 107 131
3 108 131 132
3 108 132 130
3 109 134 125
3 125 134 133
3 113 111 135
3 111 110 135
3 135 110 121
3 115 112 136
3 136 112 113
3 136 113 135
3 116 114 137
3 137 114 115
3 137 115 138
3 138 115 136
3 139 124 116
3 139 116 140
3 140 116 137
3 141 135 121
3 118 129 142
3 118 142 143
3 117 118 143
3 123 117 143
3 122 120 144
3 120 119 144
3 144 119 123
3 141 121 145
3 145 121 122
3 145 122 144
3 146 141 145
3 147 144 123
3 147 123 148
3 143 148 123
3 150 124 139
3 149 150 139
3 131 127 151
3 125 133 152
3 126 125 152
3 126 152 153
3 128 126 153
3 128 153 154
3 128 154 127
3 127 154 151
3 152 133 155
3 130 132 156
3 130 156 129
3 129 156 142
3 131 151 157
3 132 131 157
3 132 157 156
3 156 158 142
3 157 151 159
3 133 160 155
3 134 161 133
3 133 161 160
3 138 136 162
3 136 135 162
3 162 135 141
3 140 137 163
3 163 137 138
3 163 138 162
3 149 139 164
3 164 139 140
3 164 140 165
3 165 140 163
3 166 149 164
3 167 162 141
3 167 141 146
3 142 158 168
3 143 142 168
3 143 168 148
3 146 145 169
3 145 144 169
3 169 144 147
3 170 167 146
3 170 146 169
3 171 169 147
3 171 147 148
3 171 148 172
3 168 172 148
3 173 149 166
3 174 150 149
3 173 174 149
3 154 175 151
3 151 175 159
3 152 155 176
3 153 152 176
3 153 176 177
3 153 177 154
3 154 177 175
3 155 160 178
3 155 178 179
3 176 155 179
3 156 157 180
3 156 180 158
3 157 159 181
3 157 181 180
3 158 180 182
3 158 182 168
3 159 175 183
3 159 183 181
3 175 184 183
3 160 186 178
3 178 186 185
3 161 187 160
3 160 187 186
3 165 163 188
3 163 162 188
3 188 162 167
3 166 164 189
3 189 164 165
3 189 165 188
3 190 173 166
3 190 166 191
3 191 166 189
3 192 188 167
3 192 167 170
3 193 192 170
3 182 194 168
3 194 172 168
3 193 170 195
3 170 169 195
3 195 169 171
3 196 195 171
3 196 171 172
3 194 197 172
3 197 198 172
3 198 196 172
3 200 173 190
3 199 200 190
3 201 174 173
3 200 201 173
3 176 179 202
3 177 176 202
3 177 202 175
3 175 202 184
3 178 185 203
3 178 203 179
3 179 203 202
3 203 185 204
3 202 205 184
3 183 206 181
3 180 181 206
3 180 206 182
3 182 206 194
3 183 184 207
3 205 207 184
3 183 207 206
3 185 208 204
3 186 209 185
3 185 209 208
3 187 210 186
3 186 210 209
3 191 189 211
3 189 188 211
3 211 188 192
3 199 190 212
3 212 190 191
3 212 191 211
3 213 199 212
3 214 211 192
3 214 192 193
3 215 214 193
3 215 193 195
3 206 216 194
3 216 197 194
3 216 217 197
3 215 195 218
3 218 195 196
3 198 218 196
3 217 219 197
3 219 218 198
3 197 219 198
3 220 199 213
3 221 200 199
3 220 221 199
3 222 201 200
3 221 222 200
3 203 204 223
3 203 223 202
3 202 223 205
3 204 208 224
3 204 224 223
3 205 223 225
3 205 225 207
3 207 225 226
3 207 226 206
3 226 216 206
3 208 228 224
3 224 228 227
3 209 229 208
3 229 228 208
3 210 230 209
3 209 230 229
3 213 212 231
3 212 211 231
3 231 211 214
3 232 220 213
3 232 213 231
3 233 231 214
3 233 214 215
3 234 233 215
3 234 215 218
3 226 235 216
3 235 217 216
3 235 236 217
3 217 236 219
3 237 234 218
3 237 218 219
3 236 238 219
3 238 237 219
3 240 220 232
3 239 240 232
3 241 221 220
3 240 241 220
3 242 222 221
3 241 242 221
3 224 227 243
3 224 243 223
3 223 243 225
3 225 243 244
3 225 244 226
3 226 244 235
3 227 245 243
3 228 246 227
3 227 246 245
3 229 247 228
3 228 247 246
3 230 248 229
3 229 248 247
3 239 232 249
3 232 231 249
3 249 231 233
3 250 249 233
3 250 233 234
3 237 250 234
3 244 251 235
3 235 251 236
3 251 252 236
3 236 252 238
3 252 253 238
3 253 250 237
3 253 237 238
3 254 239 249
3 255 240 239
3 254 255 239
3 256 241 240
3 255 256 240
3 257 242 241
3 256 257 241
3 245 258 243
3 243 258 244
3 244 258 251
3 245 259 258
3 246 260 245
3 245 260 259
3 247 261 246
3 246 261 260
3 248 262 247
3 247 262 261
3 254 249 263
3 263 249 250
3 253 263 250
3 258 264 251
3 251 264 252
3 264 265 252
3 265 263 253
3 252 265 253
3 266 254 263
3 267 255 254
3 266 267 254
3 268 256 255
3 267 268 255
3 269 257 256
3 268 269 256
3 259 270 258
3 270 264 258
3 260 271 259
3 259 271 270
3 261 272 260
3 260 272 271
3 262 273 261
3 273 272 261
3 270 274 264
3 275 266 263
3 275 263 265
3 274 276 264
3 276 265 264
3 276 277 265
3 277 275 265
3 278 267 266
3 275 278 266
3 279 268 267
3 278 279 267
3 280 269 268
3 279 280 268
3 271 281 270
3 270 281 274
3 272 282 271
3 271 282 281
3 273 283 272
3 272 283 282
3 281 284 274
3 274 284 276
3 285 278 275
3 277 285 275
3 284 286 276
3 286 285 277
3 276 286 277
3 287 279 278
3 285 287 278
3 288 280 279
3 287 288 279
3 282 289 281
3 281 289 284
3 283 290 282
3 282 290 289
3 289 291 284
3 284 291 286
3 291 292 286
3 292 287 285
3 286 292 285
3 293 288 287
3 292 293 287
3 290 294 289
3 289 294 291
3 294 295 291
3 295 293 292
3 291 295 292
CELL_TYPES 542
5
5
5
5
5
5
5
5
5
5
5
5
5
5
5
5
5
5
5
5
5
5
5
5
5
5
5
5
5
5
5
5
5
5
5
5
5
5
5
5
5
5
5
5
5
5
5
5
5
5
5
5
5
5
5
5
5
5
5
5
5
5
5
5
5
5
5
5
5
5
5
5
5
5
5
5
5
5
5
5
5
5
5
5
5
5
5
5
5
5
5
5
5
5
5
5
5
5
5
5
5
5
5
5
5
5
5
5
5
5
5
5
5
5
5
5
5
5
5
5
5
5
5
5
5
5
5
5
5
5
5
5
5
5
5
5
5
5
5
5
5
5
5
5
5
5
5
5
5
5
5
5
5
5
5
5
5
5
5
5
5
5
5
5
5
5
5
5
5
5
5
5
5
5
5
5
5
5
5
5
5
5
5
5
5
5
5
5
5
5
5
5
5
5
5
5
5
5
5
5
5
5
5
5
5
5
5
5
5
5
5
5
5
5
5
5
5
5
5
5
5
5
5
5
5
5
5
5
5
5
5
5
5
5
5
5
5
5
5
5
5
5
5
5
5
5
5
5
5
5
5
5
5
5
5
5
5
5
5
5
5
5
5
5
5
5
5
5
5
5
5
5
5
5
5
5
5
5
5
5
5
5
5
5
5
5
5
5
5
5
5
5
5
5
5
5
5
5
5
5
5
5
5
5
5
5
5
5
5
5
5
5
5
5
5
5
5
5
5
5
5
5
5
5
5
5
5
5
5
5
5
5
5
5
5
5
5
5
5
5
5
5
5
5
5
5
5
5
5
5
5
5
5
5
5
5
5
5
5
5
5
5
5
5
5
5
5
5
5
5
5
5
5
5
5
5
5
5
5
5
5
5
5
5
5
5
5
5
5
5
5
5
5
5
5
5
5
5
5
5
5
5
5
5
5
5
5
5
5
5
5
5
5
5
5
5
5
5
5
5
5
5
5
5
5
5
5
5
5
5
5
5
5
5
5
5
5
5
5
5
5
5
5
5
5
5
5
5
5
5
5
5
5
5
5
5
5
5
5
5
5
5
5
5
5
5
5
5
5
5
5
5
5
5
5
5
5
5
5
5
5
5
5
5
5
5
5
5
5
5
5
5
5
5
5
5
5
5
5
5
5
5
5
5
5
5
5
5
5
5
5
5
5
5
5
5
5
5
5
5
5
5
5
5
5
5
5
5
5
5
5
5
5
5
5
5
5
5
5
5
5
5
POINT_DATA 296
SCALARS concentrations float 4
LOOKUP_TABLE default
0 0.960083 0.139648 14.7621
0 0.960031 0.139433 12.0501
0 0.960117 0.139152 9.92999
0 0.960049 0.141748 13.6563
0 0.960102 0.0934338 8.01424
0 0.959984 0.139034 18.0988
0 0.959942 0.138757 16.9828
0 0.960063 0.0937711 6.25572
0 0.960029 0.0941282 8.04803
0 0.959903 0.139317 21.5988
0 0.959919 0.13749 21.6308
0 0.960042 0.139363 13.1609
0 0.960126 0.138064 12.6022
0 0.960086 0.0933065 7.90157
0 0.960043 0.0932271 7.29122
0 0.960081 0.0939786 8.34644
0 0.960074 0.0942591 7.57811
0 0.959999 0.0935049 7.77055
0 0.959973 0.0932238 7.17713
0 0.960062 0.093971 7.25495
0 0.960048 0.0936691 7.29255
0 0.960052 0.139589 17.672
0 0.960093 0.142126 6.10394
0 0.959943 0.0934235 7.30071
0 0.96 0.094048 6.84647
0 0.960081 0.093559 6.75933
0 0.960126 0.136085 7.85609
0 0.960117 0.0940573 7.9361
0 0.960092 0.13987 14.7609
0 0.960065 0.093285 6.71134
0 0.960065 0.0936749 7.18617
0 0.960056 0.0936577 8.14321
0 0.960073 0.140539 13.4242
0 0.960057 0.0939297 7.95462
0 0.960052 0.0941806 6.61476
0 0.960042 0.0935212 7.71255
0 0.960031 0.0937565 6.84674
0 0.960057 0.0946588 6.31043
0 0.960053 0.0939561 7.37864
0 0.96008 0.0937623 7.45484
0 0.960082 0.0937214 6.97948
0 0.960028 0.0947913 7.41255
0 0.960054 0.0942812 6.58216
0 0.960019 0.140286 14.3981
0 0.960076 0.0942611 8.18814
0 0.960099 0.0936063 6.32748
0 0.960075 0.0964876 6.5171
0 0.960051 0.136993 15.9369
0 0.960062 0.0936617 6.6107
0 0.960082 0.139648 11.2044
0 0.960049 0.0932964 7.19012
0 0.960055 0.0941933 7.16578
0 0.960053 0.093825 5.96759
0 0.960044 0.0934732 6.9331
0 0.960012 0.0935161 6.92493
0 0.960058 0.0942595 7.93211
0 0.960058 0.0949385 6.73654
0 0.960062 0.0943818 7.35523
0 0.960063 0.0940503 7.78915
0 0.960065 0.0950254 7.25586
0 0.96005 0.0943453 6.98759
0 0.960074 0.0965151 7.20498
0 0.960068 0.100252 9.90542
0 0.960029 0.139453 19.5463
0 0.960043 0.0940573 7.73726
0 0.960071 0.0957539 6.80259
0 0.960051 0.104527 9.45694
0 0.960061 0.0931073 7.22706
0 0.960053 0.0934666 7.95062
0 0.960068 0.136745 17.1718
0 0.96007 0.0935499 6.23058
0 0.960067 0.137038 8.34652
0 0.960069 0.0943082 6.46924
0 0.960047 0.0941332 7.07329
0 0.960058 0.0944002 8.30747
0 0.960031 0.0937531 6.7
0 0.960037 0.0934955 6.8576
0 0.960023 0.0939432 6.98179
0 0.960071 0.0956453 7.88906
0 0.960084 0.0981987 6.15695
0 0.96007 0.0965381 7.37953
0 0.960067 0.0944881 7.38679
0 0.960051 0.0952317 7.05987
0 0.960042 0.0941023 7.69977
0 0.96007 0.0966649 7.27072
0 0.960071 0.139807 15.209
0 0.960046 0.094699 8.3174
0 0.960056 0.0940235 6.66331
0 0.960056 0.0960347 6.25317
0 0.960055 0.101759 3.76803
0 0.960066 0.0947556 7.54515
0 0.960059 0.0950072 7.86035
0 0.960089 0.136025 13.2181
0 0.960069 0.0951646 7.85497
0 0.960075 0.0953095 8.31286
0 0.960054 0.0951763 8.78946
0 0.960061 0.0942911 8.04137
0 0.960055 0.0938495 5.85104
0 0.960121 0.135548 10.6033
0 0.960059 0.0936563 6.46167
0 0.960042 0.0934077 7.04052
0 0.960028 0.0939333 6.84841
0 0.960031 0.0934412 7.25285
0 0.960081 0.0954645 5.98928
0 0.960067 0.102364 5.97803
0 0.96007 0.0945981 7.22203
0 0.960061 0.0945112 7.80559
0 0.960055 0.0963766 6.93178
0 0.960064 0.0957893 6.6089
0 0.960094 0.137709 14.1567
0 0.960056 0.0939628 6.97238
0 0.960065 0.094283 8.10926
0 0.96006 0.0977189 5.92586
0 0.960068 0.102126 8.315
0 0.960094 0.0993046 5.94626
0 0.960057 0.0969274 6.35662
0 0.960105 0.0941413 7.01104
0 0.960085 0.0941948 6.73989
0 0.960078 0.0949219 6.27406
0 0.960074 0.0954786 5.86503
0 0.960065 0.0944592 8.06359
0 0.960061 0.0943275 5.97908
0 0.960066 0.094252 8.33596
0 0.960081 0.094569 6.51586
0 0.96008 0.138073 14.7015
0 0.960087 0.103866 4.63085
0 0.960041 0.094365 6.64277
0 0.960045 0.0938684 7.03427
0 0.960033 0.0935693 7.22077
0 0.96007 0.0954476 8.20413
0 0.960078 0.0938964 6.44269
0 0.960049 0.0999502 8.55667
0 0.960061 0.0997906 5.77429
0 0.960096 0.0943484 7.69998
0 0.960108 0.136693 12.46
0 0.960073 0.0942649 6.67703
0 0.960072 0.102734 4.90924
0 0.960075 0.100214 8.51695
0 0.960065 0.0951298 6.10965
0 0.960066 0.094575 7.47049
0 0.960089 0.0949504 7.23357
0 0.960063 0.100744 5.35741
0 0.960084 0.0945232 6.48334
0 0.960088 0.0948311 6.32489
0 0.960072 0.0943035 6.61602
0 0.960063 0.0940071 6.228
0 0.960056 0.0946756 6.53252
0 0.960072 0.0949799 7.07937
0 0.960078 0.0936151 7.28497
0 0.960062 0.0932796 6.78067
0 0.960033 0.13803 16.4631
0 0.960048 0.0982576 6.33644
0 0.960071 0.0976246 6.531
0 0.960048 0.0939764 7.49924
0 0.960046 0.0940475 7.35926
0 0.960094 0.093679 6.69834
0 0.960075 0.100263 7.50074
0 0.960055 0.0962889 6.98709
0 0.960079 0.0937911 6.21404
0 0.960064 0.0945993 8.02683
0 0.96012 0.093496 7.33167
0 0.960097 0.137808 11.845
0 0.960078 0.0940805 7.12899
0 0.960077 0.095477 7.0127
0 0.960081 0.0940313 7.46682
0 0.960072 0.0957244 6.64681
0 0.960094 0.0941959 7.37141
0 0.960069 0.0945914 7.74669
0 0.960082 0.0941368 6.94754
0 0.960066 0.0951117 5.72042
0 0.960067 0.0987308 7.08424
0 0.960071 0.0933875 8.14292
0 0.960074 0.093629 6.53343
0 0.960075 0.0942177 7.00534
0 0.960047 0.13632 6.58224
0 0.960053 0.0945231 7.49927
0 0.960064 0.0959417 7.55934
0 0.960054 0.0945884 6.7174
0 0.960106 0.0941248 6.76637
0 0.960072 0.0940885 7.04596
0 0.960076 0.0995286 6.31695
0 0.960082 0.0955814 7.55365
0 0.960078 0.098004 6.20377
0 0.96006 0.100709 6.82049
0 0.960047 0.0946892 7.13234
0 0.960087 0.0937324 7.53955
0 0.960139 0.0938449 7.21549
0 0.960151 0.135849 5.00514
0 0.960066 0.101521 10.0467
0 0.960064 0.0947362 6.8474
0 0.960096 0.0943062 6.7618
0 0.960072 0.094684 7.60608
0 0.96006 0.0949463 6.58778
0 0.960071 0.0940513 7.41891
0 0.960075 0.0947664 7.82016
0 0.960076 0.0935571 7.63605
0 0.96008 0.0938978 7.67978
0 0.960075 0.094721 7.24553
0 0.960075 0.0938684 7.3688
0 0.960082 0.0967016 5.76529
0 0.960086 0.0938892 7.09582
0 0.960053 0.136512 13.0669
0 0.960058 0.0936508 7.14239
0 0.960069 0.0928697 7.12016
0 0.960074 0.0935428 7.83584
0 0.960067 0.0936433 6.93712
0 0.960075 0.0997371 8.82693
0 0.960058 0.0962331 6.86343
0 0.960062 0.0930604 6.95916
0 0.960055 0.092762 7.73926
0 0.960114 0.139561 14.0287
0 0.960052 0.0950636 6.12551
0 0.960065 0.0991933 7.07276
0 0.960065 0.0951919 7.69582
0 0.960063 0.0944275 6.86674
0 0.960074 0.0938624 7.90107
0 0.960073 0.095189 7.46869
0 0.96007 0.0957314 7.69562
0 0.960074 0.0940917 7.73532
0 0.96007 0.0959572 7.57547
0 0.960059 0.0986689 8.68879
0 0.960092 0.0938449 7.32812
0 0.960096 0.138602 10.3772
0 0.960072 0.0951074 7.6193
0 0.960077 0.0945333 6.86959
0 0.960066 0.0983649 7.02516
0 0.960064 0.0970947 8.411
0 0.96006 0.0995974 9.36832
0 0.96006 0.0951342 7.59658
0 0.960004 0.092902 6.66218
0 0.959979 0.13729 17.9509
0 0.960062 0.0954787 6.64974
0 0.960062 0.0945602 7.76427
0 0.960071 0.0945284 6.55446
0 0.960074 0.0939263 7.27496
0 0.960068 0.0941234 7.27068
0 0.960064 0.0953039 8.19444
0 0.96007 0.0942688 7.56361
0 0.960061 0.0956354 8.50923
0 0.960046 0.0961872 8.50406
0 0.960029 0.0948464 7.30703
0 0.960059 0.0935817 6.49616
0 0.9601 0.137189 17.6523
0 0.960068 0.0949288 6.68812
0 0.960065 0.0932632 7.13231
0 0.960051 0.0980998 5.30141
0 0.960044 0.0954311 6.28276
0 0.960037 0.0930631 6.87895
0 0.959996 0.137849 15.3739
0 0.960059 0.0958023 7.13168
0 0.960067 0.0941676 6.97248
0 0.960064 0.0950397 6.57722
0 0.960058 0.0950451 7.77385
0 0.960064 0.0981 5.95488
0 0.960046 0.095405 6.83739
0 0.960018 0.093537 6.58909
0 0.960021 0.0941686 6.3364
0 0.960058 0.138316 12.8163
0 0.960064 0.0948357 7.45221
0 0.960061 0.0940324 6.95105
0 0.960047 0.0946235 7.47124
0 0.960041 0.0934862 6.37401
0 0.960033 0.139432 15.2103
0 0.960061 0.0949234 7.0394
0 0.960057 0.0935532 7.12614
0 0.96006 0.0947858 7.69353
0 0.960052 0.0946405 6.83321
0 0.960032 0.0950151 5.90843
0 0.960023 0.0945326 6.11509
0 0.960028 0.138216 21.2714
0 0.960059 0.0951556 7.59075
0 0.960064 0.0935388 7.16763
0 0.960075 0.0930811 6.98966
0 0.960059 0.140173 18.3666
0 0.960053 0.0933765 7.13986
0 0.96006 0.098316 6.25668
0 0.96005 0.0932878 7.09171
0 0.960053 0.094209 7.22595
0 0.960044 0.095651 7.6059
0 0.960066 0.0948679 7.74537
0 0.960062 0.138181 16.3408
0 0.960065 0.0937139 7.3885
0 0.960105 0.0931254 7.22539
0 0.960117 0.141303 14.1716
0 0.960055 0.0944882 7.04345
0 0.96005 0.0991314 6.45395
0 0.960049 0.0962474 7.39747
0 0.960072 0.0970036 7.42388
0 0.960107 0.137228 13.6462
0 0.960082 0.0946713 7.92841
0 0.96012 0.138204 7.13371
0 0.960079 0.0958998 8.40716
0 0.960071 0.0961127 8.25399
0 0.960083 0.135829 16.0699
0 0.960089 0.135465 14.4217
0 0.960104 0.137525 13.5803
VECTORS fa_u float
0.00692682 0.0027828 -0
0.00664138 0.00381934 -0
0.00347121 0.000942365 -0
0.00692784 0.00104819 -0
1e-08 0 0
0.00514888 0.00397089 -0
0.00281157 0.00273537 -0
1e-08 0 0
1e-08 0 0
0.00451123 0.00556503 -0
0.0048966 0.00827279 -0
0.00669635 0.000117264 -0
0.00614708 -0.000685542 0
1e-08 0 0
1e-08 0 0
1e-08 0 0
1e-08 0 0
1e-08 0 0
1e-08 0 0
1e-08 0 0
1e-08 0 0
0.00282348 0.00693885 -0
0.00163726 0.0063681 -0
1e-08 0 0
1e-08 0 0
1e-08 0 0
0.00860898 -0.00219424 0
1e-08 0 0
0.0100876 -0.00438421 0
1e-08 0 0
1e-08 0 0
1e-08 0 0
0.000851531 0.00714835 -0
1e-08 0 0
1e-08 0 0
1e-08 0 0
1e-08 0 0
1e-08 0 0
1e-08 0 0
1e-08 0 0
1e-08 0 0
1e-08 0 0
1e-08 0 0
-0.000147908 0.00759241 -0
1e-08 0 0
1e-08 0 0
1e-08 0 0
0.00552351 -0.00345844 0
1e-08 0 0
0.003165 -0.0025324 0
1e-08 0 0
1e-08 0 0
1e-08 0 0
1e-08 0 0
1e-08 0 0
1e-08 0 0
1e-08 0 0
1e-08 0 0
1e-08 0 0
1e-08 0 0
1e-08 0 0
1e-08 0 0
1e-08 0 0
-0.000628381 0.00437129 0
1e-08 0 0
1e-08 0 0
1e-08 0 0
1e-08 0 0
1e-08 0 0
0.00337429 -0.00334731 0
1e-08 0 0
0.00294482 -0.00364474 0
1e-08 0 0
1e-08 0 0
1e-08 0 0
1e-08 0 0
1e-08 0 0
1e-08 0 0
1e-08 0 0
1e-08 0 0
1e-08 0 0
1e-08 0 0
1e-08 0 0
1e-08 0 0
1e-08 0 0
-0.00142474 0.00544884 0
1e-08 0 0
1e-08 0 0
1e-08 0 0
1e-08 0 0
1e-08 0 0
1e-08 0 0
0.00528211 -0.00873674 0
1e-08 0 0
1e-08 0 0
1e-08 0 0
1e-08 0 0
1e-08 0 0
0.00344563 -0.00848553 0
1e-08 0 0
1e-08 0 0
1e-08 0 0
1e-08 0 0
1e-08 0 0
1e-08 0 0
1e-08 0 0
1e-08 0 0
1e-08 0 0
1e-08 0 0
-0.00279585 0.00690084 0
1e-08 0 0
1e-08 0 0
1e-08 0 0
1e-08 0 0
1e-08 0 0
1e-08 0 0
1e-08 0 0
1e-08 0 0
1e-08 0 0
1e-08 0 0
1e-08 0 0
1e-08 0 0
1e-08 0 0
1e-08 0 0
0.00142543 -0.00563206 0
1e-08 0 0
1e-08 0 0
1e-08 0 0
1e-08 0 0
1e-08 0 0
1e-08 0 0
1e-08 0 0
1e-08 0 0
1e-08 0 0
-0.00366997 0.00636487 0
1e-08 0 0
1e-08 0 0
1e-08 0 0
1e-08 0 0
1e-08 0 0
1e-08 0 0
1e-08 0 0
1e-08 0 0
1e-08 0 0
1e-08 0 0
1e-08 0 0
1e-08 0 0
1e-08 0 0
1e-08 0 0
1e-08 0 0
0.000556604 -0.00408489 0
1e-08 0 0
1e-08 0 0
1e-08 0 0
1e-08 0 0
1e-08 0 0
1e-08 0 0
1e-08 0 0
1e-08 0 0
1e-08 0 0
1e-08 0 0
-0.00453778 0.00583777 0
1e-08 0 0
1e-08 0 0
1e-08 0 0
1e-08 0 0
1e-08 0 0
1e-08 0 0
1e-08 0 0
1e-08 0 0
1e-08 0 0
1e-08 0 0
1e-08 0 0
1e-08 0 0
0.000100156 -0.00772747 0
1e-08 0 0
1e-08 0 0
1e-08 0 0
1e-08 0 0
1e-08 0 0
1e-08 0 0
1e-08 0 0
1e-08 0 0
1e-08 0 0
1e-08 0 0
1e-08 0 0
1e-08 0 0
-0.00260323 0.00263996 0
1e-08 0 0
1e-08 0 0
1e-08 0 0
1e-08 0 0
1e-08 0 0
1e-08 0 0
1e-08 0 0
1e-08 0 0
1e-08 0 0
1e-08 0 0
1e-08 0 0
1e-08 0 0
1e-08 0 0
-0.000856545 -0.006851 0
1e-08 0 0
1e-08 0 0
1e-08 0 0
1e-08 0 0
1e-08 0 0
1e-08 0 0
1e-08 0 0
1e-08 0 0
-0.00484284 0.0039202 0
1e-08 0 0
1e-08 0 0
1e-08 0 0
1e-08 0 0
1e-08 0 0
1e-08 0 0
1e-08 0 0
1e-08 0 0
1e-08 0 0
1e-08 0 0
1e-08 0 0
-0.00163992 -0.00626794 0
1e-08 0 0
1e-08 0 0
1e-08 0 0
1e-08 0 0
1e-08 0 0
1e-08 0 0
1e-08 0 0
-0.00817782 0.00488699 0
1e-08 0 0
1e-08 0 0
1e-08 0 0
1e-08 0 0
1e-08 0 0
1e-08 0 0
1e-08 0 0
1e-08 0 0
1e-08 0 0
1e-08 0 0
1e-08 0 0
-0.00286368 -0.00696121 0
1e-08 0 0
1e-08 0 0
1e-08 0 0
1e-08 0 0
1e-08 0 0
-0.00725923 0.00297819 0
1e-08 0 0
1e-08 0 0
1e-08 0 0
1e-08 0 0
1e-08 0 0
1e-08 0 0
1e-08 0 0
1e-08 0 0
-0.00481919 -0.00808435 0
1e-08 0 0
1e-08 0 0
1e-08 0 0
1e-08 0 0
-0.00631694 0.00163476 0
1e-08 0 0
1e-08 0 0
1e-08 0 0
1e-08 0 0
1e-08 0 0
1e-08 0 0
-0.00362131 -0.00450919 0
1e-08 0 0
1e-08 0 0
1e-08 0 0
-0.00698281 0.000849042 0
1e-08 0 0
1e-08 0 0
1e-08 0 0
1e-08 0 0
1e-08 0 0
1e-08 0 0
-0.00286623 -0.0028494 0
1e-08 0 0
1e-08 0 0
-0.0081308 -0.000150677 0
1e-08 0 0
1e-08 0 0
1e-08 0 0
1e-08 0 0
-0.00594929 -0.0046365 0
1e-08 0 0
-0.00389824 -0.000555457 0
1e-08 0 0
1e-08 0 0
-0.00645896 -0.00372466 0
-0.00569721 -0.00147214 0
-0.00701197 -0.00283313 0
