# vtk DataFile Version 2.0
CellBP Time: 4.76
ASCII
DATASET UNSTRUCTURED_GRID
POINTS 296 double
-9.01603 -3.69624 0
-8.45263 -4.85474 0
-9.41575 -2.46964 0
-9.68524 -1.22524 0
-8.17366 -2.73849 0
-7.73292 -5.92656 0
-6.87999 -6.89558 0
-7.73296 -3.77381 0
-7.16874 -4.75292 0
-5.93866 -7.76236 0
-4.89208 -8.49217 0
-9.78689 0.040916 0
-9.722 1.32548 0
-8.48794 -1.63717 0
-8.63447 -0.512346 0
-7.41378 -1.9408 0
-7.04404 -2.81734 0
-6.50042 -5.66702 0
-5.71755 -6.48974 0
-6.61527 -3.78379 0
-6.07088 -4.56862 0
-3.73531 -9.06062 0
-2.50378 -9.46686 0
-4.83493 -7.20168 0
-3.87031 -7.78645 0
-8.65041 0.631949 0
-9.49215 2.60505 0
-8.49759 1.7387 0
-9.07866 3.82791 0
-7.58361 -0.896131 0
-7.64633 0.086779 0
-6.79745 -1.27187 0
-1.2286 -9.70999 0
-6.29689 -2.09196 0
-6.17159 -2.97444 0
-5.41836 -5.37322 0
-4.7068 -6.01522 0
-5.53025 -3.67174 0
-5.1471 -4.4655 0
-2.83353 -8.2524 0
-1.75753 -8.51378 0
-3.8707 -6.6273 0
-3.02411 -7.06017 0
0.0538905 -9.7774 0
-7.56944 1.1235 0
-8.23218 2.87865 0
-7.42463 2.06807 0
-8.47495 4.96384 0
-7.75686 3.90821 0
-7.72659 6.01566 0
-6.6393 -0.377984 0
-6.81765 0.548391 0
-5.66247 -0.982215 0
-0.582385 -8.67277 0
0.550716 -8.61362 0
-5.19835 -2.42446 0
-4.39206 -5.00037 0
-3.82808 -5.68314 0
-4.35354 -3.73517 0
-2.03693 -7.45965 0
-1.12209 -7.66975 0
-2.9469 -6.01066 0
-2.28243 -6.5289 0
1.32419 -9.66859 0
-6.56952 1.39326 0
-7.0414 3.05365 0
-6.54251 2.32469 0
-7.16506 4.89039 0
-6.59778 3.92164 0
-6.87811 6.97333 0
-6.4524 5.77893 0
-5.92241 7.83175 0
-4.39508 -1.16652 0
-5.72022 0.499083 0
-4.59762 -0.0203995 0
-0.00689282 -7.71127 0
1.69277 -8.46765 0
0.913703 -7.61141 0
-3.98326 -2.3694 0
-3.46373 -1.3832 0
-3.24271 -4.7307 0
-3.23177 -3.22412 0
-1.36739 -6.57231 0
-0.518199 -6.90342 0
-1.95511 -5.46106 0
2.58309 -9.41905 0
-5.41855 2.00365 0
-5.98713 3.00948 0
-5.99346 4.76791 0
-5.65696 3.90573 0
-5.64852 6.58361 0
-5.34963 5.50098 0
-4.87676 8.57705 0
-4.74269 7.24845 0
-3.4733 -0.421453 0
-4.38872 1.23164 0
-3.67176 0.586321 0
-4.00367 2.30088 0
-3.72836 9.14883 0
2.78568 -8.13881 0
0.386521 -6.66161 0
1.95926 -7.35535 0
1.25272 -6.75463 0
-2.432 -0.866263 0
-2.82154 -2.11446 0
-2.2726 -4.04705 0
-2.30776 -2.94253 0
-0.451739 -5.76052 0
-1.20874 -4.44642 0
3.8028 -9.01752 0
-4.71245 3.33299 0
-4.99546 4.49546 0
-4.55599 6.14287 0
-4.45306 5.24518 0
-3.77927 7.84933 0
-3.74674 6.69093 0
-2.73276 8.26007 0
-1.63971 -0.130665 0
-1.4405 -0.88259 0
-2.47615 0.514326 0
-3.21827 1.43862 0
-3.19498 3.27443 0
-2.87793 2.36342 0
-1.35223 0.634924 0
-2.50181 9.54457 0
3.83483 -7.70333 0
2.87278 -6.97252 0
0.91532 -5.70249 0
2.00174 -6.26253 0
-1.67118 -1.98108 0
-1.4191 -3.24643 0
0.0819324 -4.67591 0
-0.554739 -3.65897 0
4.81868 -7.1452 0
4.95499 -8.45387 0
-3.71281 4.47013 0
-3.66375 5.63361 0
-2.82504 7.13474 0
-2.95193 6.22308 0
-1.63449 8.57786 0
-1.89689 7.4746 0
-2.30864 3.99778 0
-0.724705 -1.32008 0
-0.832293 -0.250874 0
-1.93125 1.68761 0
-2.10864 2.85989 0
-1.3005 3.5168 0
-0.872646 1.35984 0
-0.283033 0.464083 0
-0.527731 8.72789 0
-1.23424 9.78597 0
1.08433 -4.49189 0
3.79698 -6.52619 0
2.90087 -5.9378 0
2.05851 -5.30311 0
4.67407 -6.0407 0
-0.550547 -2.462 0
0.490037 -3.42478 0
0.0556769 -1.60572 0
1.45233 -3.62234 0
5.74607 -6.46245 0
6.02526 -7.73546 0
-2.43251 5.25446 0
-2.08172 6.40802 0
-0.883551 7.67339 0
-1.23698 6.80495 0
0.0909292 7.76191 0
-1.12917 4.43896 0
0.150554 -0.611498 0
-0.80402 2.49336 0
-0.341351 3.58109 0
0.0562653 1.51676 0
0.734919 0.4771 0
0.640584 8.7497 0
0.0445859 9.88912 0
2.32992 -4.19497 0
3.76407 -5.4908 0
2.92637 -5.08672 0
5.46936 -5.36222 0
4.58877 -5.1394 0
0.632145 -2.28686 0
1.24286 -2.91767 0
0.757261 -1.38816 0
2.13104 -3.08713 0
2.9458 -3.4099 0
6.05202 -4.69169 0
6.54009 -5.6538 0
6.98878 -6.87586 0
-0.995604 5.72652 0
-0.354353 6.76768 0
1.10822 7.66094 0
0.560149 6.97267 0
-0.0016983 4.67349 0
0.593199 3.79548 0
1.33213 -0.640502 0
0.526483 2.64059 0
0.95382 1.57454 0
1.89924 0.212086 0
1.59976 1.06461 0
2.1089 7.48584 0
1.77931 8.5944 0
1.33357 9.81361 0
3.74716 -4.2489 0
5.02218 -4.33443 0
5.75267 -3.84806 0
3.72654 -3.13939 0
1.80109 -1.87858 0
2.97937 -2.53996 0
6.69 -3.87693 0
7.27282 -4.81467 0
7.85296 -5.92857 0
0.485173 5.79828 0
1.41567 6.65187 0
2.34914 6.58546 0
1.19232 4.50822 0
1.47202 3.36975 0
2.4167 -0.687525 0
2.80666 0.143077 0
1.77314 2.1531 0
2.59407 1.1425 0
3.03909 7.0799 0
2.87121 8.27063 0
2.60626 9.56628 0
4.83236 -3.2536 0
6.03285 -3.04622 0
4.12087 -2.24268 0
3.21113 -1.49026 0
6.64914 -2.2842 0
7.14445 -3.00369 0
7.86357 -3.86538 0
8.58676 -4.8843 0
2.00375 5.53057 0
3.0354 6.06828 0
2.34547 4.0804 0
2.39759 3.03272 0
3.4915 -0.456455 0
3.58429 0.614513 0
2.93429 2.26814 0
3.50644 1.51245 0
3.9362 5.81243 0
3.92355 6.69817 0
3.93235 7.83753 0
3.83518 9.15667 0
5.50041 -1.88848 0
4.45943 -1.11683 0
6.62637 -1.31723 0
7.49655 -2.00596 0
8.2886 -2.82733 0
9.15859 -3.73123 0
3.35526 4.80456 0
3.28914 3.34179 0
4.63818 0.134198 0
4.45145 1.28966 0
3.99571 2.40622 0
4.46709 5.06295 0
4.75468 6.09453 0
4.90471 7.27603 0
4.98855 8.58522 0
5.80182 -0.433448 0
6.90263 -0.488417 0
7.65538 -1.06598 0
8.5688 -1.72522 0
9.56622 -2.50058 0
4.45754 3.7599 0
5.71372 1.066 0
5.25683 2.48029 0
5.24865 4.52895 0
5.49106 5.42442 0
5.79141 6.56106 0
6.03305 7.85342 0
6.72535 0.439742 0
7.72731 -0.0286263 0
8.73616 -0.571341 0
9.81065 -1.22593 0
6.82404 1.30555 0
5.58224 3.69529 0
6.39908 2.13512 0
6.22719 3.00963 0
6.13972 4.58511 0
6.55252 5.72643 0
6.98496 6.99465 0
7.64777 0.939769 0
8.71689 0.561956 0
9.88193 0.0601172 0
7.45903 1.95119 0
6.64941 3.80184 0
7.09734 2.86794 0
7.21983 4.78246 0
7.845 6.0327 0
8.55587 1.69101 0
9.77097 1.32982 0
8.23723 2.76978 0
7.81328 3.82992 0
8.56343 4.96387 0
9.52583 2.59079 0
9.12655 3.81105 0
CELLS 542 2168
3 2 0 4
3 0 1 7
3 4 0 7
3 1 5 8
3 7 1 8
3 3 2 13
3 13 2 4
3 11 3 14
3 14 3 13
3 13 4 15
3 4 7 16
3 15 4 16
3 5 6 17
3 8 5 17
3 6 9 18
3 17 6 18
3 7 8 19
3 16 7 19
3 8 17 20
3 19 8 20
3 9 10 23
3 18 9 23
3 10 21 24
3 23 10 24
3 12 11 25
3 25 11 14
3 26 12 27
3 27 12 25
3 14 13 29
3 29 13 15
3 25 14 30
3 30 14 29
3 29 15 31
3 15 16 33
3 31 15 33
3 16 19 34
3 33 16 34
3 17 18 35
3 20 17 35
3 18 23 36
3 35 18 36
3 19 20 37
3 34 19 37
3 20 35 38
3 37 20 38
3 21 22 39
3 24 21 39
3 22 32 40
3 39 22 40
3 23 24 41
3 36 23 41
3 24 39 42
3 41 24 42
3 27 25 44
3 44 25 30
3 28 26 45
3 45 26 27
3 45 27 46
3 46 27 44
3 47 28 48
3 48 28 45
3 30 29 50
3 50 29 31
3 44 30 51
3 51 30 50
3 50 31 52
3 31 33 52
3 32 43 53
3 40 32 53
3 53 43 54
3 33 34 55
3 34 37 55
3 33 55 52
3 35 36 56
3 38 35 56
3 36 41 57
3 56 36 57
3 37 38 58
3 38 56 58
3 37 58 55
3 39 40 59
3 42 39 59
3 40 53 60
3 59 40 60
3 41 42 61
3 57 41 61
3 42 59 62
3 61 42 62
3 43 63 54
3 46 44 64
3 64 44 51
3 48 45 65
3 65 45 46
3 65 46 66
3 66 46 64
3 49 47 67
3 67 47 48
3 67 48 68
3 68 48 65
3 69 49 70
3 70 49 67
3 52 55 72
3 64 51 73
3 51 50 73
3 50 52 73
3 73 52 74
3 74 52 72
3 53 54 75
3 60 53 75
3 54 63 76
3 54 76 77
3 75 54 77
3 55 58 78
3 72 55 78
3 72 78 79
3 56 57 80
3 57 61 80
3 56 80 58
3 58 80 81
3 78 58 81
3 59 60 82
3 62 59 82
3 60 75 83
3 82 60 83
3 61 62 84
3 62 82 84
3 61 84 80
3 63 85 76
3 66 64 86
3 64 73 86
3 68 65 87
3 87 65 66
3 87 66 86
3 70 67 88
3 88 67 68
3 88 68 89
3 89 68 87
3 71 69 90
3 90 69 70
3 90 70 91
3 91 70 88
3 92 71 93
3 93 71 90
3 74 72 94
3 94 72 79
3 86 73 95
3 95 73 74
3 95 74 96
3 96 74 94
3 97 86 95
3 76 85 99
3 75 77 100
3 83 75 100
3 76 99 101
3 77 76 101
3 77 101 102
3 100 77 102
3 94 79 103
3 78 81 104
3 79 78 104
3 79 104 103
3 80 84 105
3 81 80 105
3 81 105 106
3 104 81 106
3 82 83 107
3 83 100 107
3 82 107 84
3 84 107 108
3 105 84 108
3 85 109 99
3 89 87 110
3 87 86 110
3 110 86 97
3 91 88 111
3 111 88 89
3 111 89 110
3 93 90 112
3 112 90 91
3 112 91 113
3 113 91 111
3 98 92 114
3 114 92 93
3 114 93 115
3 115 93 112
3 116 98 114
3 117 103 118
3 96 94 119
3 94 103 119
3 119 103 117
3 97 95 120
3 120 95 96
3 120 96 119
3 121 110 97
3 121 97 122
3 122 97 120
3 123 119 117
3 124 98 116
3 99 109 125
3 99 125 126
3 101 99 126
3 100 102 127
3 100 127 107
3 101 126 128
3 102 101 128
3 102 128 127
3 104 106 129
3 104 129 103
3 103 129 118
3 105 108 130
3 106 105 130
3 106 130 129
3 107 127 131
3 108 107 131
3 108 131 132
3 108 132 130
3 109 134 125
3 125 134 133
3 113 111 135
3 111 110 135
3 135 110 121
3 115 112 136
3 136 112 113
3 136 113 135
3 116 114 137
3 137 114 115
3 137 115 138
3 138 115 136
3 139 124 116
3 139 116 140
3 140 116 137
3 141 135 121
3 118 129 142
3 118 142 143
3 117 118 143
3 123 117 143
3 122 120 144
3 120 119 144
3 144 119 123
3 141 121 145
3 145 121 122
3 145 122 144
3 146 141 145
3 147 144 123
3 147 123 148
3 143 148 123
3 150 124 139
3 149 150 139
3 131 127 151
3 125 133 152
3 126 125 152
3 126 152 153
3 128 126 153
3 128 153 154
3 128 154 127
3 127 154 151
3 152 133 155
3 130 132 156
3 130 156 129
3 129 156 142
3 131 151 157
3 132 131 157
3 132 157 156
3 156 158 142
3 157 151 159
3 133 160 155
3 134 161 133
3 133 161 160
3 138 136 162
3 136 135 162
3 162 135 141
3 140 137 163
3 163 137 138
3 163 138 162
3 149 139 164
3 164 139 140
3 164 140 165
3 165 140 163
3 166 149 164
3 167 162 141
3 167 141 146
3 142 158 168
3 143 142 168
3 143 168 148
3 146 145 169
3 145 144 169
3 169 144 147
3 170 167 146
3 170 146 169
3 171 169 147
3 171 147 148
3 171 148 172
3 168 172 148
3 173 149 166
3 174 150 149
3 173 174 149
3 154 175 151
3 151 175 159
3 152 155 176
3 153 152 176
3 153 176 177
3 153 177 154
3 154 177 175
3 155 160 178
3 155 178 179
3 176 155 179
3 156 157 180
3 156 180 158
3 157 159 181
3 157 181 180
3 158 180 182
3 158 182 168
3 159 175 183
3 159 183 181
3 175 184 183
3 160 186 178
3 178 186 185
3 161 187 160
3 160 187 186
3 165 163 188
3 163 162 188
3 188 162 167
3 166 164 189
3 189 164 165
3 189 165 188
3 190 173 166
3 190 166 191
3 191 166 189
3 192 188 167
3 192 167 170
3 193 192 170
3 182 194 168
3 194 172 168
3 193 170 195
3 170 169 195
3 195 169 171
3 196 195 171
3 196 171 172
3 194 197 172
3 197 198 172
3 198 196 172
3 200 173 190
3 199 200 190
3 201 174 173
3 200 201 173
3 176 179 202
3 177 176 202
3 177 202 175
3 175 202 184
3 178 185 203
3 178 203 179
3 179 203 202
3 203 185 204
3 202 205 184
3 183 206 181
3 180 181 206
3 180 206 182
3 182 206 194
3 183 184 207
3 205 207 184
3 183 207 206
3 185 208 204
3 186 209 185
3 185 209 208
3 187 210 186
3 186 210 209
3 191 189 211
3 189 188 211
3 211 188 192
3 199 190 212
3 212 190 191
3 212 191 211
3 213 199 212
3 214 211 192
3 214 192 193
3 215 214 193
3 215 193 195
3 206 216 194
3 216 197 194
3 216 217 197
3 215 195 218
3 218 195 196
3 198 218 196
3 217 219 197
3 219 218 198
3 197 219 198
3 220 199 213
3 221 200 199
3 220 221 199
3 222 201 200
3 221 222 200
3 203 204 223
3 203 223 202
3 202 223 205
3 204 208 224
3 204 224 223
3 205 223 225
3 205 225 207
3 207 225 226
3 207 226 206
3 226 216 206
3 208 228 224
3 224 228 227
3 209 229 208
3 229 228 208
3 210 230 209
3 209 230 229
3 213 212 231
3 212 211 231
3 231 211 214
3 232 220 213
3 232 213 231
3 233 231 214
3 233 214 215
3 234 233 215
3 234 215 218
3 226 235 216
3 235 217 216
3 235 236 217
3 217 236 219
3 237 234 218
3 237 218 219
3 236 238 219
3 238 237 219
3 240 220 232
3 239 240 232
3 241 221 220
3 240 241 220
3 242 222 221
3 241 242 221
3 224 227 243
3 224 243 223
3 223 243 225
3 225 243 244
3 225 244 226
3 226 244 235
3 227 245 243
3 228 246 227
3 227 246 245
3 229 247 228
3 228 247 246
3 230 248 229
3 229 248 247
3 239 232 249
3 232 231 249
3 249 231 233
3 250 249 233
3 250 233 234
3 237 250 234
3 244 251 235
3 235 251 236
3 251 252 236
3 236 252 238
3 252 253 238
3 253 250 237
3 253 237 238
3 254 239 249
3 255 240 239
3 254 255 239
3 256 241 240
3 255 256 240
3 257 242 241
3 256 257 241
3 245 258 243
3 243 258 244
3 244 258 251
3 245 259 258
3 246 260 245
3 245 260 259
3 247 261 246
3 246 261 260
3 248 262 247
3 247 262 261
3 254 249 263
3 263 249 250
3 253 263 250
3 258 264 251
3 251 264 252
3 264 265 252
3 265 263 253
3 252 265 253
3 266 254 263
3 267 255 254
3 266 267 254
3 268 256 255
3 267 268 255
3 269 257 256
3 268 269 256
3 259 270 258
3 270 264 258
3 260 271 259
3 259 271 270
3 261 272 260
3 260 272 271
3 262 273 261
3 273 272 261
3 270 274 264
3 275 266 263
3 275 263 265
3 274 276 264
3 276 265 264
3 276 277 265
3 277 275 265
3 278 267 266
3 275 278 266
3 279 268 267
3 278 279 267
3 280 269 268
3 279 280 268
3 271 281 270
3 270 281 274
3 272 282 271
3 271 282 281
3 273 283 272
3 272 283 282
3 281 284 274
3 274 284 276
3 285 278 275
3 277 285 275
3 284 286 276
3 286 285 277
3 276 286 277
3 287 279 278
3 285 287 278
3 288 280 279
3 287 288 279
3 282 289 281
3 281 289 284
3 283 290 282
3 282 290 289
3 289 291 284
3 284 291 286
3 291 292 286
3 292 287 285
3 286 292 285
3 293 288 287
3 292 293 287
3 290 294 289
3 289 294 291
3 294 295 291
3 295 293 292
3 291 295 292
CELL_TYPES 542
5
5
5
5
5
5
5
5
5
5
5
5
5
5
5
5
5
5
5
5
5
5
5
5
5
5
5
5
5
5
5
5
5
5
5
5
5
5
5
5
5
5
5
5
5
5
5
5
5
5
5
5
5
5
5
5
5
5
5
5
5
5
5
5
5
5
5
5
5
5
5
5
5
5
5
5
5
5
5
5
5
5
5
5
5
5
5
5
5
5
5
5
5
5
5
5
5
5
5
5
5
5
5
5
5
5
5
5
5
5
5
5
5
5
5
5
5
5
5
5
5
5
5
5
5
5
5
5
5
5
5
5
5
5
5
5
5
5
5
5
5
5
5
5
5
5
5
5
5
5
5
5
5
5
5
5
5
5
5
5
5
5
5
5
5
5
5
5
5
5
5
5
5
5
5
5
5
5
5
5
5
5
5
5
5
5
5
5
5
5
5
5
5
5
5
5
5
5
5
5
5
5
5
5
5
5
5
5
5
5
5
5
5
5
5
5
5
5
5
5
5
5
5
5
5
5
5
5
5
5
5
5
5
5
5
5
5
5
5
5
5
5
5
5
5
5
5
5
5
5
5
5
5
5
5
5
5
5
5
5
5
5
5
5
5
5
5
5
5
5
5
5
5
5
5
5
5
5
5
5
5
5
5
5
5
5
5
5
5
5
5
5
5
5
5
5
5
5
5
5
5
5
5
5
5
5
5
5
5
5
5
5
5
5
5
5
5
5
5
5
5
5
5
5
5
5
5
5
5
5
5
5
5
5
5
5
5
5
5
5
5
5
5
5
5
5
5
5
5
5
5
5
5
5
5
5
5
5
5
5
5
5
5
5
5
5
5
5
5
5
5
5
5
5
5
5
5
5
5
5
5
5
5
5
5
5
5
5
5
5
5
5
5
5
5
5
5
5
5
5
5
5
5
5
5
5
5
5
5
5
5
5
5
5
5
5
5
5
5
5
5
5
5
5
5
5
5
5
5
5
5
5
5
5
5
5
5
5
5
5
5
5
5
5
5
5
5
5
5
5
5
5
5
5
5
5
5
5
5
5
5
5
5
5
5
5
5
5
5
5
5
5
5
5
5
5
5
5
5
5
5
5
5
5
5
5
5
5
5
5
5
5
5
5
5
5
5
5
5
5
5
5
5
5
5
5
5
5
5
5
5
5
5
5
5
5
5
5
5
5
5
5
5
5
5
5
5
5
5
5
5
5
5
5
5
5
5
5
5
5
5
5
POINT_DATA 296
SCALARS concentrations float 4
LOOKUP_TABLE default
0 0.966692 0.157375 18.575
0 0.966656 0.154921 22.0646
0 0.966759 0.15957 13.1817
0 0.966776 0.155659 9.44953
0 0.966731 0.0944471 8.3053
0 0.966697 0.155148 11.9992
0 0.966737 0.155687 20.1091
0 0.966681 0.0953302 7.95758
0 0.966683 0.0946212 7.62666
0 0.966755 0.154636 15.5573
0 0.966694 0.155144 24.0641
0 0.966762 0.154848 15.1921
0 0.966751 0.153039 12.0173
0 0.96677 0.0939465 6.26039
0 0.966774 0.0935302 7.82088
0 0.96674 0.0941345 8.18675
0 0.966714 0.0942082 8.22272
0 0.96671 0.0931515 7.5169
0 0.966729 0.0927564 7.02716
0 0.966702 0.0949502 8.43671
0 0.966705 0.0939771 7.96381
0 0.966725 0.156426 17.2663
0 0.966793 0.158507 12.9812
0 0.966703 0.0935833 6.69266
0 0.966691 0.0935451 7.29182
0 0.966765 0.0941536 7.26246
0 0.966774 0.150521 10.0822
0 0.96679 0.0954013 7.30052
0 0.966815 0.150787 10.3759
0 0.966755 0.0938042 7.84292
0 0.966756 0.0947724 8.0542
0 0.966727 0.0938127 7.93885
0 0.966831 0.150551 7.07371
0 0.966715 0.093691 6.60351
0 0.966708 0.0946699 7.81
0 0.966705 0.0938567 7.99147
0 0.966693 0.0934805 7.42946
0 0.966714 0.0939344 6.97658
0 0.966717 0.0936866 7.3943
0 0.966749 0.0933358 6.06738
0 0.966802 0.0934738 5.8339
0 0.966689 0.0932519 6.158
0 0.966713 0.093604 8.22023
0 0.96688 0.15313 7.991
0 0.966778 0.0956686 7.38341
0 0.96683 0.10022 5.99162
0 0.966828 0.098649 8.69785
0 0.966811 0.154682 12.7489
0 0.966808 0.0955013 6.88853
0 0.966791 0.152725 15.2697
0 0.966718 0.0946664 7.26248
0 0.966718 0.0951216 7.16572
0 0.966713 0.09355 7.29434
0 0.966828 0.0928126 7.42974
0 0.966875 0.0930762 7.10058
0 0.966717 0.0950758 6.23399
0 0.966715 0.0934475 8.16508
0 0.966708 0.0937464 6.97268
0 0.966721 0.0939689 6.58261
0 0.966751 0.0935459 8.29108
0 0.966773 0.0930833 7.8217
0 0.966714 0.0935169 5.8539
0 0.966725 0.0943566 5.87088
0 0.966951 0.152528 12.2301
0 0.966761 0.0972925 6.51183
0 0.966804 0.098715 7.85027
0 0.966777 0.0992357 9.75748
0 0.966799 0.095098 6.0726
0 0.966766 0.0970996 8.73697
0 0.966606 0.155392 17.9725
0 0.966707 0.093972 7.61812
0 0.966692 0.153324 19.1268
0 0.966731 0.09949 7.12116
0 0.966706 0.0960068 7.55927
0 0.966716 0.0956397 7.81464
0 0.966776 0.0928869 6.47122
0 0.966886 0.0939199 7.9433
0 0.966782 0.0927693 7.20636
0 0.966727 0.0978811 6.76381
0 0.966738 0.100974 9.38317
0 0.966724 0.0929307 8.31904
0 0.966725 0.0940936 6.2979
0 0.96673 0.0937362 7.34128
0 0.966731 0.093289 6.4075
0 0.966722 0.0935276 5.85558
0 0.966914 0.152806 5.7475
0 0.966709 0.100835 5.62992
0 0.966721 0.0979198 7.74197
0 0.966748 0.094829 7.65888
0 0.966721 0.0964453 6.68163
0 0.966654 0.093624 7.39136
0 0.966713 0.0939779 7.74496
0 0.966794 0.15445 13.5676
0 0.966753 0.093774 7.16337
0 0.966735 0.0947306 7.88534
0 0.966694 0.0950101 7.01975
0 0.966723 0.0941253 6.65678
0 0.96669 0.0942675 6.33864
0 0.966775 0.156681 13.2382
0 0.966843 0.0940093 7.16224
0 0.966727 0.0929494 7.16288
0 0.966777 0.0941605 8.40009
0 0.966732 0.0941158 8.24373
0 0.966731 0.0945192 8.41598
0 0.966724 0.0990892 6.58443
0 0.966732 0.0933607 8.40636
0 0.966731 0.0950172 8.6882
0 0.966718 0.0932697 6.85091
0 0.966726 0.0937128 6.08142
0 0.966847 0.151962 9.11859
0 0.966693 0.0948216 6.59166
0 0.966715 0.0951894 7.54464
0 0.966719 0.0937165 7.52804
0 0.966722 0.0938928 7.5707
0 0.966781 0.0933315 7.24669
0 0.966742 0.0940269 7.48788
0 0.966742 0.0933176 7.28242
0 0.966738 0.0936116 7.66476
0 0.966728 0.0945581 7.3431
0 0.966734 0.0948233 6.67914
0 0.966719 0.0937074 7.20864
0 0.966711 0.0931882 6.75052
0 0.966721 0.09394 6.94741
0 0.966744 0.0938705 7.66173
0 0.966719 0.156946 16.2146
0 0.966813 0.0939505 7.26748
0 0.966772 0.0936665 7.31314
0 0.966718 0.0932053 8.1833
0 0.96673 0.0934827 8.08797
0 0.966728 0.0949088 7.54197
0 0.966738 0.0939596 7.83633
0 0.966721 0.0930937 8.04362
0 0.966733 0.0935798 7.96454
0 0.966804 0.0941832 7.29752
0 0.966811 0.15511 15.2736
0 0.966717 0.0938581 7.46844
0 0.966724 0.0941254 7.39355
0 0.966746 0.0939809 7.48667
0 0.966728 0.0935429 7.40625
0 0.966716 0.0933204 7.09129
0 0.966729 0.0932814 7.22082
0 0.966721 0.0933915 6.90448
0 0.966736 0.0939475 7.09483
0 0.966742 0.0933521 7.48799
0 0.966736 0.0938062 7.21952
0 0.966728 0.0943788 6.52322
0 0.966728 0.0936737 6.93105
0 0.966745 0.0947136 7.24198
0 0.966753 0.0935925 7.13885
0 0.966702 0.0930925 6.94069
0 0.966719 0.15549 19.0987
0 0.966723 0.0928934 7.03996
0 0.96677 0.098424 7.52339
0 0.966733 0.0944434 7.72871
0 0.966724 0.0935751 7.5866
0 0.966763 0.0944881 7.38461
0 0.966734 0.0941908 7.44671
0 0.96673 0.0938724 7.25675
0 0.96674 0.0950643 7.76652
0 0.966732 0.0935352 6.89622
0 0.966767 0.0944068 6.79677
0 0.966799 0.155138 12.5246
0 0.966726 0.0933306 6.87885
0 0.966732 0.0930828 7.23565
0 0.966716 0.0934681 7.09654
0 0.966732 0.0939121 7.07781
0 0.966703 0.093498 7.05498
0 0.966726 0.0933147 6.82125
0 0.966756 0.0935373 6.96188
0 0.966742 0.0960144 7.25806
0 0.966738 0.0938034 7.10489
0 0.96675 0.0932229 7.06418
0 0.966761 0.092338 7.19072
0 0.966679 0.0936512 7.02622
0 0.966683 0.151388 21.7089
0 0.966729 0.0931348 7.02625
0 0.966731 0.0939159 7.75828
0 0.966726 0.0942582 7.97557
0 0.966756 0.0939405 7.46939
0 0.966743 0.0966507 7.24001
0 0.966733 0.0929267 7.04544
0 0.966736 0.0925689 6.89686
0 0.966747 0.0951123 6.76883
0 0.966737 0.0936011 7.37166
0 0.966735 0.0932307 7.51238
0 0.966754 0.094051 7.30985
0 0.96673 0.0933416 7.18326
0 0.966725 0.154613 17.481
0 0.96673 0.0936471 6.87774
0 0.966727 0.0936772 7.19757
0 0.966709 0.0939297 6.98183
0 0.96672 0.0939701 7.06102
0 0.966733 0.0939921 7.43141
0 0.966737 0.093974 7.46797
0 0.966757 0.0947182 7.13281
0 0.966745 0.0941577 7.13683
0 0.966756 0.0934498 7.18756
0 0.966752 0.095761 6.41364
0 0.966757 0.0939038 6.92557
0 0.966727 0.0945926 6.95763
0 0.96675 0.0934069 6.93214
0 0.966709 0.153704 17.2619
0 0.966731 0.0936877 6.61638
0 0.966745 0.0941903 7.27667
0 0.966753 0.0954619 7.26095
0 0.966731 0.093268 7.48054
0 0.966741 0.0944265 7.94763
0 0.966737 0.0942612 6.07607
0 0.966753 0.094261 7.19572
0 0.966734 0.0933387 7.53472
0 0.966718 0.156372 17.4243
0 0.966728 0.0945973 7.13183
0 0.966724 0.0941469 7.32236
0 0.966721 0.0949577 7.31328
0 0.96673 0.0943188 7.13607
0 0.966733 0.093749 6.81402
0 0.96674 0.0934661 7.53031
0 0.966747 0.0984708 5.63656
0 0.966742 0.0948465 7.84242
0 0.966743 0.095728 6.22043
0 0.966727 0.0943858 7.25122
0 0.966787 0.0935488 7.18394
0 0.96683 0.152733 14.0484
0 0.966737 0.0941772 6.24445
0 0.966752 0.0986095 8.87723
0 0.966735 0.0937189 8.12321
0 0.966737 0.0938204 6.14582
0 0.966754 0.094476 7.56454
0 0.966753 0.0978552 5.37717
0 0.966717 0.0930777 7.54186
0 0.966701 0.154611 17.3886
0 0.966725 0.0945088 7.03598
0 0.966719 0.0946361 7.11973
0 0.966725 0.0939228 6.50728
0 0.966726 0.0949793 6.39777
0 0.966736 0.0937647 6.70532
0 0.966733 0.0954047 6.36431
0 0.966722 0.0947937 6.03142
0 0.966717 0.0953914 6.40933
0 0.966723 0.0939079 7.32935
0 0.966724 0.0937113 7.01292
0 0.966768 0.0934488 7.06004
0 0.966807 0.156234 14.3681
0 0.966743 0.0945196 7.67193
0 0.966741 0.0935053 6.31748
0 0.96674 0.0969177 6.8496
0 0.96674 0.0976948 8.19936
0 0.966692 0.0934152 7.30854
0 0.966671 0.155841 16.809
0 0.966723 0.0937477 6.75961
0 0.96672 0.0939073 7.55544
0 0.966728 0.0945544 7.96821
0 0.966717 0.0945418 8.12642
0 0.966717 0.0950978 8.00955
0 0.96673 0.0938396 7.47571
0 0.966732 0.0935039 7.38497
0 0.966744 0.0932154 6.63954
0 0.966791 0.15286 18.0066
0 0.966728 0.106342 8.7079
0 0.966721 0.0951086 6.08309
0 0.966728 0.094557 5.87775
0 0.96668 0.0938997 6.34378
0 0.966643 0.151054 15.9037
0 0.966724 0.0940439 7.75469
0 0.966724 0.0982678 6.34152
0 0.966728 0.0942399 6.04674
0 0.966737 0.0942796 7.28387
0 0.966744 0.0939901 7.37135
0 0.966711 0.0929179 6.58779
0 0.966712 0.155533 18.2987
0 0.966718 0.0938244 7.16404
0 0.966723 0.0940223 6.13634
0 0.966729 0.0933688 7.10647
0 0.966691 0.154711 20.4017
0 0.966741 0.0949452 7.87258
0 0.966738 0.0947222 7.82249
0 0.966748 0.0944686 8.28026
0 0.966747 0.0948172 8.43239
0 0.966753 0.0939105 6.54072
0 0.966714 0.0939322 7.84596
0 0.966683 0.152542 10.6519
0 0.966724 0.0949917 8.00901
0 0.966719 0.0936638 8.2345
0 0.966747 0.154234 14.9378
0 0.966736 0.094063 7.41807
0 0.966759 0.0988345 7.38126
0 0.966754 0.0990669 9.53331
0 0.966734 0.0941218 5.96586
0 0.966695 0.152399 21.8074
0 0.966656 0.0935289 8.10616
0 0.966659 0.156951 19.3666
0 0.966664 0.0939859 8.48195
0 0.966727 0.0949667 7.86018
0 0.966718 0.152402 13.8313
0 0.966586 0.152209 23.679
0 0.966654 0.151641 14.1112
VECTORS fa_u float
0.00678453 0.00273962 -0
0.00643844 0.00370407 -0
0.00389033 0.00105359 -0
0.00687037 0.00101566 -0
1e-08 0 0
0.00520055 0.00400747 -0
0.003051 0.00298195 -0
1e-08 0 0
1e-08 0 0
0.00446611 0.00556075 -0
0.00456145 0.00774153 -0
0.00664594 9.57912e-05 -0
0.00620027 -0.000712689 0
1e-08 0 0
1e-08 0 0
1e-08 0 0
1e-08 0 0
1e-08 0 0
1e-08 0 0
1e-08 0 0
1e-08 0 0
0.00277682 0.00680406 -0
0.00163313 0.00630418 -0
1e-08 0 0
1e-08 0 0
1e-08 0 0
0.00818758 -0.00210493 0
1e-08 0 0
0.00934866 -0.00403151 0
1e-08 0 0
1e-08 0 0
1e-08 0 0
0.000858641 0.0070721 -0
1e-08 0 0
1e-08 0 0
1e-08 0 0
1e-08 0 0
1e-08 0 0
1e-08 0 0
1e-08 0 0
1e-08 0 0
1e-08 0 0
1e-08 0 0
-0.000120136 0.00740611 -0
1e-08 0 0
1e-08 0 0
1e-08 0 0
0.00554967 -0.00342979 0
1e-08 0 0
0.00345435 -0.002745 0
1e-08 0 0
1e-08 0 0
1e-08 0 0
1e-08 0 0
1e-08 0 0
1e-08 0 0
1e-08 0 0
1e-08 0 0
1e-08 0 0
1e-08 0 0
1e-08 0 0
1e-08 0 0
1e-08 0 0
-0.000664645 0.00469099 0
1e-08 0 0
1e-08 0 0
1e-08 0 0
1e-08 0 0
1e-08 0 0
0.00358296 -0.00355946 0
1e-08 0 0
0.00307772 -0.00384082 0
1e-08 0 0
1e-08 0 0
1e-08 0 0
1e-08 0 0
1e-08 0 0
1e-08 0 0
1e-08 0 0
1e-08 0 0
1e-08 0 0
1e-08 0 0
1e-08 0 0
1e-08 0 0
1e-08 0 0
-0.0014764 0.00562066 0
1e-08 0 0
1e-08 0 0
1e-08 0 0
1e-08 0 0
1e-08 0 0
1e-08 0 0
0.00493423 -0.00821966 0
1e-08 0 0
1e-08 0 0
1e-08 0 0
1e-08 0 0
1e-08 0 0
0.00327922 -0.0080494 0
1e-08 0 0
1e-08 0 0
1e-08 0 0
1e-08 0 0
1e-08 0 0
1e-08 0 0
1e-08 0 0
1e-08 0 0
1e-08 0 0
1e-08 0 0
-0.00274303 0.00674096 0
1e-08 0 0
1e-08 0 0
1e-08 0 0
1e-08 0 0
1e-08 0 0
1e-08 0 0
1e-08 0 0
1e-08 0 0
1e-08 0 0
1e-08 0 0
1e-08 0 0
1e-08 0 0
1e-08 0 0
1e-08 0 0
0.00146886 -0.00574994 0
1e-08 0 0
1e-08 0 0
1e-08 0 0
1e-08 0 0
1e-08 0 0
1e-08 0 0
1e-08 0 0
1e-08 0 0
1e-08 0 0
-0.00359036 0.00622392 0
1e-08 0 0
1e-08 0 0
1e-08 0 0
1e-08 0 0
1e-08 0 0
1e-08 0 0
1e-08 0 0
1e-08 0 0
1e-08 0 0
1e-08 0 0
1e-08 0 0
1e-08 0 0
1e-08 0 0
1e-08 0 0
1e-08 0 0
0.000602952 -0.00445619 0
1e-08 0 0
1e-08 0 0
1e-08 0 0
1e-08 0 0
1e-08 0 0
1e-08 0 0
1e-08 0 0
1e-08 0 0
1e-08 0 0
1e-08 0 0
-0.00446044 0.00574876 0
1e-08 0 0
1e-08 0 0
1e-08 0 0
1e-08 0 0
1e-08 0 0
1e-08 0 0
1e-08 0 0
1e-08 0 0
1e-08 0 0
1e-08 0 0
1e-08 0 0
1e-08 0 0
8.04662e-05 -0.00747466 0
1e-08 0 0
1e-08 0 0
1e-08 0 0
1e-08 0 0
1e-08 0 0
1e-08 0 0
1e-08 0 0
1e-08 0 0
1e-08 0 0
1e-08 0 0
1e-08 0 0
1e-08 0 0
-0.00288035 0.00291353 0
1e-08 0 0
1e-08 0 0
1e-08 0 0
1e-08 0 0
1e-08 0 0
1e-08 0 0
1e-08 0 0
1e-08 0 0
1e-08 0 0
1e-08 0 0
1e-08 0 0
1e-08 0 0
1e-08 0 0
-0.000857079 -0.00680089 0
1e-08 0 0
1e-08 0 0
1e-08 0 0
1e-08 0 0
1e-08 0 0
1e-08 0 0
1e-08 0 0
1e-08 0 0
-0.00490137 0.00393274 0
1e-08 0 0
1e-08 0 0
1e-08 0 0
1e-08 0 0
1e-08 0 0
1e-08 0 0
1e-08 0 0
1e-08 0 0
1e-08 0 0
1e-08 0 0
1e-08 0 0
-0.00164501 -0.00626414 0
1e-08 0 0
1e-08 0 0
1e-08 0 0
1e-08 0 0
1e-08 0 0
1e-08 0 0
1e-08 0 0
-0.00772696 0.00459127 0
1e-08 0 0
1e-08 0 0
1e-08 0 0
1e-08 0 0
1e-08 0 0
1e-08 0 0
1e-08 0 0
1e-08 0 0
1e-08 0 0
1e-08 0 0
1e-08 0 0
-0.00280812 -0.00681886 0
1e-08 0 0
1e-08 0 0
1e-08 0 0
1e-08 0 0
1e-08 0 0
-0.00704088 0.00289305 0
1e-08 0 0
1e-08 0 0
1e-08 0 0
1e-08 0 0
1e-08 0 0
1e-08 0 0
1e-08 0 0
1e-08 0 0
-0.00452438 -0.00763018 0
1e-08 0 0
1e-08 0 0
1e-08 0 0
1e-08 0 0
-0.0063199 0.00164489 0
1e-08 0 0
1e-08 0 0
1e-08 0 0
1e-08 0 0
1e-08 0 0
1e-08 0 0
-0.00366665 -0.00460223 0
1e-08 0 0
1e-08 0 0
1e-08 0 0
-0.00687552 0.000847688 0
1e-08 0 0
1e-08 0 0
1e-08 0 0
1e-08 0 0
1e-08 0 0
1e-08 0 0
-0.00316286 -0.00314763 0
1e-08 0 0
1e-08 0 0
-0.0078938 -0.000122552 0
1e-08 0 0
1e-08 0 0
1e-08 0 0
1e-08 0 0
-0.00578591 -0.00449724 0
1e-08 0 0
-0.00424349 -0.000597111 0
1e-08 0 0
1e-08 0 0
-0.00633799 -0.00365602 0
-0.00579634 -0.00150542 0
-0.00686229 -0.00278299 0
