# vtk DataFile Version 2.0
CellBP Time: 9.36
ASCII
DATASET UNSTRUCTURED_GRID
POINTS 296 double
-8.93347 -3.65788 0
-8.37676 -4.80919 0
-9.32399 -2.43713 0
-9.60011 -1.21026 0
-8.09243 -2.70281 0
-7.66064 -5.87352 0
-6.81273 -6.83603 0
-7.65117 -3.72866 0
-7.09298 -4.70222 0
-5.89015 -7.7039 0
-4.86285 -8.43566 0
-9.70937 0.0382344 0
-9.65375 1.31272 0
-8.41036 -1.61492 0
-8.56749 -0.501657 0
-7.33633 -1.91057 0
-6.96385 -2.77799 0
-6.43714 -5.61417 0
-5.66814 -6.44361 0
-6.53937 -3.73828 0
-6.00595 -4.52417 0
-3.71434 -8.99871 0
-2.48682 -9.39838 0
-4.79804 -7.15022 0
-3.85081 -7.74249 0
-8.58288 0.631881 0
-9.43532 2.58992 0
-8.43837 1.72284 0
-9.02558 3.80487 0
-7.51328 -0.879553 0
-7.5774 0.0900364 0
-6.73139 -1.25138 0
-1.21565 -9.63567 0
-6.2336 -2.06479 0
-6.1052 -2.93901 0
-5.36336 -5.3234 0
-4.66462 -5.96713 0
-5.46987 -3.63319 0
-5.09345 -4.4232 0
-2.81647 -8.19967 0
-1.74676 -8.45602 0
-3.84405 -6.58107 0
-3.01033 -7.0192 0
0.0554642 -9.69479 0
-7.50743 1.11623 0
-8.18288 2.86005 0
-7.36791 2.04873 0
-8.41177 4.92401 0
-7.70328 3.87419 0
-7.65487 5.95972 0
-6.57683 -0.369359 0
-6.75783 0.550058 0
-5.61383 -0.969681 0
-0.574151 -8.60503 0
0.547732 -8.53877 0
-5.15321 -2.39842 0
-4.3462 -4.95798 0
-3.7943 -5.63998 0
-4.3155 -3.70324 0
-2.02336 -7.41062 0
-1.11531 -7.6171 0
-2.92534 -5.96986 0
-2.27277 -6.48927 0
1.30963 -9.57627 0
-6.5148 1.38226 0
-6.9854 3.02791 0
-6.48929 2.30499 0
-7.10586 4.84508 0
-6.54481 3.88719 0
-6.81292 6.90579 0
-6.39809 5.72611 0
-5.86949 7.76193 0
-4.3678 -1.15914 0
-5.67669 0.493685 0
-4.57118 -0.0249623 0
-0.0113318 -7.64528 0
1.67592 -8.38725 0
0.900272 -7.5417 0
-3.9594 -2.35296 0
-3.45409 -1.37959 0
-3.21966 -4.69699 0
-3.2132 -3.20286 0
-1.36247 -6.52509 0
-0.522195 -6.85089 0
-1.94405 -5.42844 0
2.55772 -9.32904 0
-5.37806 1.9916 0
-5.93949 2.98252 0
-5.94501 4.72128 0
-5.61143 3.86797 0
-5.60061 6.52091 0
-5.30517 5.44769 0
-4.84221 8.5139 0
-4.69941 7.18294 0
-3.46193 -0.420715 0
-4.35942 1.22315 0
-3.65207 0.583695 0
-3.97865 2.29351 0
-3.70529 9.0821 0
2.75423 -8.05203 0
0.370313 -6.60259 0
1.93367 -7.28273 0
1.22894 -6.68997 0
-2.42626 -0.863548 0
-2.81272 -2.10521 0
-2.26012 -4.02132 0
-2.297 -2.92346 0
-0.456165 -5.71737 0
-1.20107 -4.42374 0
3.76845 -8.93673 0
-4.67571 3.30712 0
-4.95341 4.4535 0
-4.51717 6.08441 0
-4.41338 5.19517 0
-3.75057 7.78735 0
-3.71146 6.62361 0
-2.71135 8.191 0
-1.63342 -0.127212 0
-1.43541 -0.878069 0
-2.4713 0.516794 0
-3.20314 1.43604 0
-3.1733 3.25419 0
-2.86335 2.3594 0
-1.35087 0.638715 0
-2.48504 9.4669 0
3.79222 -7.62286 0
2.83066 -6.89063 0
0.8982 -5.65173 0
1.97099 -6.19607 0
-1.66544 -1.97336 0
-1.4135 -3.22895 0
0.0775431 -4.64649 0
-0.549953 -3.64428 0
4.77031 -7.07039 0
4.91101 -8.38005 0
-3.68392 4.43516 0
-3.6326 5.58171 0
-2.79699 7.06805 0
-2.92634 6.16734 0
-1.62129 8.50555 0
-1.87973 7.40929 0
-2.29734 3.97349 0
-0.722237 -1.3165 0
-0.830326 -0.244686 0
-1.93039 1.68989 0
-2.10171 2.85362 0
-1.29884 3.50501 0
-0.871529 1.36388 0
-0.284111 0.468147 0
-0.520933 8.6605 0
-1.225 9.70244 0
1.06989 -4.45469 0
3.74692 -6.44148 0
2.86218 -5.8689 0
2.03126 -5.2485 0
4.62492 -5.97081 0
-0.547057 -2.45553 0
0.488219 -3.40716 0
0.0571713 -1.60292 0
1.43868 -3.5948 0
5.68974 -6.39501 0
5.97293 -7.66573 0
-2.41497 5.21369 0
-2.06185 6.35487 0
-0.873562 7.61113 0
-1.22267 6.75082 0
0.0935879 7.70231 0
-1.12605 4.41431 0
0.148932 -0.609956 0
-0.807841 2.49475 0
-0.346197 3.57351 0
0.0547327 1.52148 0
0.73407 0.477095 0
0.636582 8.68939 0
0.0419999 9.81292 0
2.30672 -4.155 0
3.72417 -5.42432 0
2.89303 -5.0306 0
5.4191 -5.30237 0
4.54321 -5.08043 0
0.631849 -2.28318 0
1.23757 -2.9011 0
0.755178 -1.38539 0
2.11621 -3.06488 0
2.92416 -3.37926 0
6.00898 -4.64976 0
6.48655 -5.60469 0
6.92717 -6.80834 0
-0.985983 5.68631 0
-0.346222 6.71551 0
1.10143 7.61073 0
0.559805 6.9284 0
-0.00281345 4.65028 0
0.587516 3.7826 0
1.3292 -0.638367 0
0.520722 2.63871 0
0.948578 1.57733 0
1.8948 0.210914 0
1.59236 1.0633 0
2.09834 7.44533 0
1.76928 8.53966 0
1.32303 9.74201 0
3.71198 -4.20582 0
4.98029 -4.28306 0
5.71105 -3.80936 0
3.69938 -3.10818 0
1.79758 -1.87589 0
2.96411 -2.5258 0
6.64471 -3.84431 0
7.22572 -4.77675 0
7.79204 -5.8773 0
0.484419 5.76148 0
1.41003 6.61174 0
2.33519 6.55086 0
1.18594 4.48636 0
1.46336 3.35478 0
2.40817 -0.686719 0
2.7957 0.140956 0
1.76636 2.14776 0
2.5834 1.13989 0
3.02492 7.03754 0
2.85707 8.21988 0
2.5903 9.49818 0
4.79735 -3.22225 0
5.99336 -3.01939 0
4.09788 -2.22986 0
3.19851 -1.4842 0
6.61166 -2.27109 0
7.10349 -2.98776 0
7.81433 -3.84298 0
8.52841 -4.85296 0
1.99435 5.50152 0
3.01175 6.02892 0
2.33391 4.05971 0
2.38836 3.01801 0
3.47654 -0.451603 0
3.57051 0.616202 0
2.9207 2.25882 0
3.48771 1.50586 0
3.90086 5.77358 0
3.89545 6.65444 0
3.91034 7.79087 0
3.8141 9.09365 0
5.47151 -1.87706 0
4.4377 -1.1104 0
6.58703 -1.30939 0
7.45345 -1.99334 0
8.23672 -2.81173 0
9.09674 -3.70973 0
3.32529 4.77265 0
3.26711 3.32317 0
4.61298 0.135161 0
4.42305 1.28171 0
3.96518 2.3894 0
4.4191 5.02271 0
4.714 6.0482 0
4.86937 7.2246 0
4.95776 8.52569 0
5.76484 -0.432706 0
6.8541 -0.488688 0
7.60801 -1.06077 0
8.51413 -1.71417 0
9.4983 -2.48358 0
4.41275 3.73002 0
5.66637 1.05086 0
5.20464 2.45336 0
5.19138 4.48804 0
5.43912 5.37581 0
5.74009 6.51006 0
5.98306 7.79219 0
6.6707 0.429211 0
7.67036 -0.0303316 0
8.67515 -0.565885 0
9.73819 -1.21363 0
6.76277 1.28427 0
5.52064 3.65484 0
6.33511 2.10593 0
6.15914 2.97151 0
6.07267 4.53772 0
6.48956 5.67812 0
6.92019 6.93464 0
7.58016 0.930543 0
8.64615 0.558447 0
9.80267 0.0632071 0
7.39015 1.92586 0
6.56822 3.75324 0
7.01995 2.83383 0
7.14513 4.73512 0
7.77879 5.98273 0
8.47962 1.678 0
9.68103 1.3168 0
8.15168 2.74069 0
7.73857 3.7925 0
8.49327 4.92243 0
9.43967 2.56782 0
9.04932 3.77921 0
CELLS 542 2168
3 2 0 4
3 0 1 7
3 4 0 7
3 1 5 8
3 7 1 8
3 3 2 13
3 13 2 4
3 11 3 14
3 14 3 13
3 13 4 15
3 4 7 16
3 15 4 16
3 5 6 17
3 8 5 17
3 6 9 18
3 17 6 18
3 7 8 19
3 16 7 19
3 8 17 20
3 19 8 20
3 9 10 23
3 18 9 23
3 10 21 24
3 23 10 24
3 12 11 25
3 25 11 14
3 26 12 27
3 27 12 25
3 14 13 29
3 29 13 15
3 25 14 30
3 30 14 29
3 29 15 31
3 15 16 33
3 31 15 33
3 16 19 34
3 33 16 34
3 17 18 35
3 20 17 35
3 18 23 36
3 35 18 36
3 19 20 37
3 34 19 37
3 20 35 38
3 37 20 38
3 21 22 39
3 24 21 39
3 22 32 40
3 39 22 40
3 23 24 41
3 36 23 41
3 24 39 42
3 41 24 42
3 27 25 44
3 44 25 30
3 28 26 45
3 45 26 27
3 45 27 46
3 46 27 44
3 47 28 48
3 48 28 45
3 30 29 50
3 50 29 31
3 44 30 51
3 51 30 50
3 50 31 52
3 31 33 52
3 32 43 53
3 40 32 53
3 53 43 54
3 33 34 55
3 34 37 55
3 33 55 52
3 35 36 56
3 38 35 56
3 36 41 57
3 56 36 57
3 37 38 58
3 38 56 58
3 37 58 55
3 39 40 59
3 42 39 59
3 40 53 60
3 59 40 60
3 41 42 61
3 57 41 61
3 42 59 62
3 61 42 62
3 43 63 54
3 46 44 64
3 64 44 51
3 48 45 65
3 65 45 46
3 65 46 66
3 66 46 64
3 49 47 67
3 67 47 48
3 67 48 68
3 68 48 65
3 69 49 70
3 70 49 67
3 52 55 72
3 64 51 73
3 51 50 73
3 50 52 73
3 73 52 74
3 74 52 72
3 53 54 75
3 60 53 75
3 54 63 76
3 54 76 77
3 75 54 77
3 55 58 78
3 72 55 78
3 72 78 79
3 56 57 80
3 57 61 80
3 56 80 58
3 58 80 81
3 78 58 81
3 59 60 82
3 62 59 82
3 60 75 83
3 82 60 83
3 61 62 84
3 62 82 84
3 61 84 80
3 63 85 76
3 66 64 86
3 64 73 86
3 68 65 87
3 87 65 66
3 87 66 86
3 70 67 88
3 88 67 68
3 88 68 89
3 89 68 87
3 71 69 90
3 90 69 70
3 90 70 91
3 91 70 88
3 92 71 93
3 93 71 90
3 74 72 94
3 94 72 79
3 86 73 95
3 95 73 74
3 95 74 96
3 96 74 94
3 97 86 95
3 76 85 99
3 75 77 100
3 83 75 100
3 76 99 101
3 77 76 101
3 77 101 102
3 100 77 102
3 94 79 103
3 78 81 104
3 79 78 104
3 79 104 103
3 80 84 105
3 81 80 105
3 81 105 106
3 104 81 106
3 82 83 107
3 83 100 107
3 82 107 84
3 84 107 108
3 105 84 108
3 85 109 99
3 89 87 110
3 87 86 110
3 110 86 97
3 91 88 111
3 111 88 89
3 111 89 110
3 93 90 112
3 112 90 91
3 112 91 113
3 113 91 111
3 98 92 114
3 114 92 93
3 114 93 115
3 115 93 112
3 116 98 114
3 117 103 118
3 96 94 119
3 94 103 119
3 119 103 117
3 97 95 120
3 120 95 96
3 120 96 119
3 121 110 97
3 121 97 122
3 122 97 120
3 123 119 117
3 124 98 116
3 99 109 125
3 99 125 126
3 101 99 126
3 100 102 127
3 100 127 107
3 101 126 128
3 102 101 128
3 102 128 127
3 104 106 129
3 104 129 103
3 103 129 118
3 105 108 130
3 106 105 130
3 106 130 129
3 107 127 131
3 108 107 131
3 108 131 132
3 108 132 130
3 109 134 125
3 125 134 133
3 113 111 135
3 111 110 135
3 135 110 121
3 115 112 136
3 136 112 113
3 136 113 135
3 116 114 137
3 137 114 115
3 137 115 138
3 138 115 136
3 139 124 116
3 139 116 140
3 140 116 137
3 141 135 121
3 118 129 142
3 118 142 143
3 117 118 143
3 123 117 143
3 122 120 144
3 120 119 144
3 144 119 123
3 141 121 145
3 145 121 122
3 145 122 144
3 146 141 145
3 147 144 123
3 147 123 148
3 143 148 123
3 150 124 139
3 149 150 139
3 131 127 151
3 125 133 152
3 126 125 152
3 126 152 153
3 128 126 153
3 128 153 154
3 128 154 127
3 127 154 151
3 152 133 155
3 130 132 156
3 130 156 129
3 129 156 142
3 131 151 157
3 132 131 157
3 132 157 156
3 156 158 142
3 157 151 159
3 133 160 155
3 134 161 133
3 133 161 160
3 138 136 162
3 136 135 162
3 162 135 141
3 140 137 163
3 163 137 138
3 163 138 162
3 149 139 164
3 164 139 140
3 164 140 165
3 165 140 163
3 166 149 164
3 167 162 141
3 167 141 146
3 142 158 168
3 143 142 168
3 143 168 148
3 146 145 169
3 145 144 169
3 169 144 147
3 170 167 146
3 170 146 169
3 171 169 147
3 171 147 148
3 171 148 172
3 168 172 148
3 173 149 166
3 174 150 149
3 173 174 149
3 154 175 151
3 151 175 159
3 152 155 176
3 153 152 176
3 153 176 177
3 153 177 154
3 154 177 175
3 155 160 178
3 155 178 179
3 176 155 179
3 156 157 180
3 156 180 158
3 157 159 181
3 157 181 180
3 158 180 182
3 158 182 168
3 159 175 183
3 159 183 181
3 175 184 183
3 160 186 178
3 178 186 185
3 161 187 160
3 160 187 186
3 165 163 188
3 163 162 188
3 188 162 167
3 166 164 189
3 189 164 165
3 189 165 188
3 190 173 166
3 190 166 191
3 191 166 189
3 192 188 167
3 192 167 170
3 193 192 170
3 182 194 168
3 194 172 168
3 193 170 195
3 170 169 195
3 195 169 171
3 196 195 171
3 196 171 172
3 194 197 172
3 197 198 172
3 198 196 172
3 200 173 190
3 199 200 190
3 201 174 173
3 200 201 173
3 176 179 202
3 177 176 202
3 177 202 175
3 175 202 184
3 178 185 203
3 178 203 179
3 179 203 202
3 203 185 204
3 202 205 184
3 183 206 181
3 180 181 206
3 180 206 182
3 182 206 194
3 183 184 207
3 205 207 184
3 183 207 206
3 185 208 204
3 186 209 185
3 185 209 208
3 187 210 186
3 186 210 209
3 191 189 211
3 189 188 211
3 211 188 192
3 199 190 212
3 212 190 191
3 212 191 211
3 213 199 212
3 214 211 192
3 214 192 193
3 215 214 193
3 215 193 195
3 206 216 194
3 216 197 194
3 216 217 197
3 215 195 218
3 218 195 196
3 198 218 196
3 217 219 197
3 219 218 198
3 197 219 198
3 220 199 213
3 221 200 199
3 220 221 199
3 222 201 200
3 221 222 200
3 203 204 223
3 203 223 202
3 202 223 205
3 204 208 224
3 204 224 223
3 205 223 225
3 205 225 207
3 207 225 226
3 207 226 206
3 226 216 206
3 208 228 224
3 224 228 227
3 209 229 208
3 229 228 208
3 210 230 209
3 209 230 229
3 213 212 231
3 212 211 231
3 231 211 214
3 232 220 213
3 232 213 231
3 233 231 214
3 233 214 215
3 234 233 215
3 234 215 218
3 226 235 216
3 235 217 216
3 235 236 217
3 217 236 219
3 237 234 218
3 237 218 219
3 236 238 219
3 238 237 219
3 240 220 232
3 239 240 232
3 241 221 220
3 240 241 220
3 242 222 221
3 241 242 221
3 224 227 243
3 224 243 223
3 223 243 225
3 225 243 244
3 225 244 226
3 226 244 235
3 227 245 243
3 228 246 227
3 227 246 245
3 229 247 228
3 228 247 246
3 230 248 229
3 229 248 247
3 239 232 249
3 232 231 249
3 249 231 233
3 250 249 233
3 250 233 234
3 237 250 234
3 244 251 235
3 235 251 236
3 251 252 236
3 236 252 238
3 252 253 238
3 253 250 237
3 253 237 238
3 254 239 249
3 255 240 239
3 254 255 239
3 256 241 240
3 255 256 240
3 257 242 241
3 256 257 241
3 245 258 243
3 243 258 244
3 244 258 251
3 245 259 258
3 246 260 245
3 245 260 259
3 247 261 246
3 246 261 260
3 248 262 247
3 247 262 261
3 254 249 263
3 263 249 250
3 253 263 250
3 258 264 251
3 251 264 252
3 264 265 252
3 265 263 253
3 252 265 253
3 266 254 263
3 267 255 254
3 266 267 254
3 268 256 255
3 267 268 255
3 269 257 256
3 268 269 256
3 259 270 258
3 270 264 258
3 260 271 259
3 259 271 270
3 261 272 260
3 260 272 271
3 262 273 261
3 273 272 261
3 270 274 264
3 275 266 263
3 275 263 265
3 274 276 264
3 276 265 264
3 276 277 265
3 277 275 265
3 278 267 266
3 275 278 266
3 279 268 267
3 278 279 267
3 280 269 268
3 279 280 268
3 271 281 270
3 270 281 274
3 272 282 271
3 271 282 281
3 273 283 272
3 272 283 282
3 281 284 274
3 274 284 276
3 285 278 275
3 277 285 275
3 284 286 276
3 286 285 277
3 276 286 277
3 287 279 278
3 285 287 278
3 288 280 279
3 287 288 279
3 282 289 281
3 281 289 284
3 283 290 282
3 282 290 289
3 289 291 284
3 284 291 286
3 291 292 286
3 292 287 285
3 286 292 285
3 293 288 287
3 292 293 287
3 290 294 289
3 289 294 291
3 294 295 291
3 295 293 292
3 291 295 292
CELL_TYPES 542
5
5
5
5
5
5
5
5
5
5
5
5
5
5
5
5
5
5
5
5
5
5
5
5
5
5
5
5
5
5
5
5
5
5
5
5
5
5
5
5
5
5
5
5
5
5
5
5
5
5
5
5
5
5
5
5
5
5
5
5
5
5
5
5
5
5
5
5
5
5
5
5
5
5
5
5
5
5
5
5
5
5
5
5
5
5
5
5
5
5
5
5
5
5
5
5
5
5
5
5
5
5
5
5
5
5
5
5
5
5
5
5
5
5
5
5
5
5
5
5
5
5
5
5
5
5
5
5
5
5
5
5
5
5
5
5
5
5
5
5
5
5
5
5
5
5
5
5
5
5
5
5
5
5
5
5
5
5
5
5
5
5
5
5
5
5
5
5
5
5
5
5
5
5
5
5
5
5
5
5
5
5
5
5
5
5
5
5
5
5
5
5
5
5
5
5
5
5
5
5
5
5
5
5
5
5
5
5
5
5
5
5
5
5
5
5
5
5
5
5
5
5
5
5
5
5
5
5
5
5
5
5
5
5
5
5
5
5
5
5
5
5
5
5
5
5
5
5
5
5
5
5
5
5
5
5
5
5
5
5
5
5
5
5
5
5
5
5
5
5
5
5
5
5
5
5
5
5
5
5
5
5
5
5
5
5
5
5
5
5
5
5
5
5
5
5
5
5
5
5
5
5
5
5
5
5
5
5
5
5
5
5
5
5
5
5
5
5
5
5
5
5
5
5
5
5
5
5
5
5
5
5
5
5
5
5
5
5
5
5
5
5
5
5
5
5
5
5
5
5
5
5
5
5
5
5
5
5
5
5
5
5
5
5
5
5
5
5
5
5
5
5
5
5
5
5
5
5
5
5
5
5
5
5
5
5
5
5
5
5
5
5
5
5
5
5
5
5
5
5
5
5
5
5
5
5
5
5
5
5
5
5
5
5
5
5
5
5
5
5
5
5
5
5
5
5
5
5
5
5
5
5
5
5
5
5
5
5
5
5
5
5
5
5
5
5
5
5
5
5
5
5
5
5
5
5
5
5
5
5
5
5
5
5
5
5
5
5
5
5
5
5
5
5
5
5
5
5
5
5
5
5
5
5
5
5
5
5
5
5
5
5
5
5
5
5
5
5
5
5
5
5
5
5
5
5
5
5
5
5
5
5
5
5
5
5
5
5
5
5
5
5
5
5
5
5
5
5
5
5
5
5
5
5
5
5
5
5
5
5
5
5
POINT_DATA 296
SCALARS concentrations float 4
LOOKUP_TABLE default
0 0.951154 0.114987 10.4136
0 0.951179 0.115749 13.7751
0 0.95113 0.114488 9.27211
0 0.951127 0.113053 11.2818
0 0.951157 0.0928915 7.5764
0 0.951184 0.11411 11.9775
0 0.95116 0.116585 13.3654
0 0.951172 0.0935308 6.23536
0 0.951179 0.0940568 5.83816
0 0.951153 0.112002 10.6268
0 0.951124 0.113491 10.6404
0 0.951194 0.112502 8.95652
0 0.951221 0.115166 9.09021
0 0.951135 0.0929297 6.80946
0 0.951158 0.0927273 7.2849
0 0.951166 0.0934409 7.67797
0 0.951174 0.0941355 8.25281
0 0.951164 0.0927738 7.63441
0 0.951159 0.0925563 7.51736
0 0.951172 0.094159 6.25412
0 0.951167 0.0938511 6.81542
0 0.951136 0.113754 12.6759
0 0.951185 0.115326 8.74245
0 0.951154 0.092258 7.1677
0 0.951137 0.092558 7.30502
0 0.951196 0.092922 6.58632
0 0.951178 0.110865 10.9689
0 0.951184 0.0946941 7.29135
0 0.951148 0.115229 10.7364
0 0.951161 0.0925746 7.28646
0 0.951167 0.0935041 7.21367
0 0.951174 0.0935343 7.44949
0 0.951147 0.113079 11.6123
0 0.951172 0.0934825 7.89718
0 0.95117 0.0938817 7.34551
0 0.951167 0.0937335 7.32573
0 0.951169 0.0929292 7.36922
0 0.951175 0.0932205 6.41173
0 0.951176 0.0949453 7.91985
0 0.951163 0.0928857 6.92887
0 0.951163 0.0951329 7.45584
0 0.951166 0.0935605 7.32277
0 0.951157 0.0935743 7.57345
0 0.951169 0.112138 12.5963
0 0.951168 0.0941035 7.52134
0 0.951154 0.0932688 7.29504
0 0.951148 0.0946896 7.25217
0 0.951132 0.113591 12.7614
0 0.951143 0.0938548 7.90484
0 0.951139 0.112691 10.5861
0 0.95117 0.0937034 7.0003
0 0.951168 0.0943541 7.10069
0 0.951174 0.0930833 6.446
0 0.95115 0.0933851 6.86425
0 0.951164 0.0932236 7.16414
0 0.951177 0.0952717 7.80053
0 0.951173 0.0957069 7.93067
0 0.951174 0.0933892 7.1853
0 0.951181 0.0939082 6.65352
0 0.951161 0.0949401 8.16889
0 0.951152 0.0937356 7.60119
0 0.951172 0.0950621 7.90439
0 0.951167 0.0943858 7.7261
0 0.951155 0.11346 11.3005
0 0.951158 0.09398 6.76961
0 0.951155 0.0942684 6.77246
0 0.95116 0.102822 7.09269
0 0.951144 0.09447 7.15991
0 0.951161 0.0951433 7.21349
0 0.95117 0.1124 10.8016
0 0.951161 0.0933736 7.36472
0 0.951174 0.114641 12.7296
0 0.951181 0.0950319 5.86694
0 0.951174 0.0936865 6.65866
0 0.951182 0.0941064 6.1089
0 0.951153 0.0966108 8.06335
0 0.951155 0.0940308 7.12242
0 0.951164 0.0964274 8.04484
0 0.951184 0.0936873 7.28249
0 0.951192 0.0939641 7.04726
0 0.951183 0.0946869 7.58477
0 0.951186 0.0948792 5.82186
0 0.951164 0.098365 7.84406
0 0.951154 0.0972338 9.18554
0 0.951181 0.0960563 7.17526
0 0.951152 0.113368 10.0789
0 0.951173 0.0941209 6.82991
0 0.951174 0.10062 5.94381
0 0.951166 0.0929225 7.12475
0 0.951171 0.0944756 8.00059
0 0.951173 0.0928709 6.37936
0 0.951175 0.0930305 6.65862
0 0.951179 0.114512 10.6747
0 0.951177 0.0945399 6.49631
0 0.951193 0.0941715 5.72957
0 0.951181 0.0937025 6.33718
0 0.951188 0.0937534 5.85736
0 0.951178 0.0963022 8.32019
0 0.951171 0.111617 8.04201
0 0.951172 0.094258 7.32108
0 0.951171 0.0945787 8.22736
0 0.951177 0.0932675 7.67339
0 0.951183 0.0934651 7.64004
0 0.951202 0.0953064 5.30256
0 0.951194 0.0941988 7.15087
0 0.951186 0.0930481 7.55783
0 0.951185 0.0938938 8.36724
0 0.951179 0.0949951 6.9059
0 0.951185 0.0937194 6.74645
0 0.951179 0.111269 10.4761
0 0.951171 0.0944921 5.94769
0 0.951172 0.0942721 7.68075
0 0.951179 0.0946068 7.32042
0 0.951186 0.0952366 7.82922
0 0.951175 0.0940949 8.71312
0 0.951179 0.0942436 5.73873
0 0.951169 0.0943632 8.27167
0 0.951203 0.0945268 8.24023
0 0.951192 0.095032 8.51859
0 0.951197 0.0948952 6.51554
0 0.951183 0.0937293 6.23104
0 0.951176 0.0941749 8.19574
0 0.951171 0.0967755 6.57735
0 0.951193 0.0943258 6.094
0 0.951162 0.109735 9.21252
0 0.951184 0.096286 4.87435
0 0.951183 0.0939795 7.4904
0 0.951189 0.0935844 6.85765
0 0.951191 0.0936275 7.06827
0 0.951191 0.0948272 8.4526
0 0.951184 0.0949656 6.95572
0 0.95119 0.0939238 6.22946
0 0.951189 0.0935501 6.35002
0 0.951173 0.0946117 7.26296
0 0.951181 0.11522 9.74548
0 0.951182 0.0955741 6.62838
0 0.95119 0.0946872 8.52043
0 0.951177 0.0951502 8.74311
0 0.951189 0.0950972 8.51218
0 0.951169 0.0933086 6.83787
0 0.951171 0.0932187 5.88912
0 0.951193 0.0944648 5.86618
0 0.95119 0.0946502 8.35111
0 0.951193 0.0949733 6.21744
0 0.951183 0.0953787 6.41944
0 0.951191 0.102675 8.7983
0 0.951208 0.0937549 6.18535
0 0.95119 0.0951197 7.06564
0 0.951191 0.0956536 6.23306
0 0.9512 0.0929547 6.58854
0 0.951189 0.115298 11.7793
0 0.95119 0.0954158 8.63875
0 0.951181 0.0938115 7.54895
0 0.951189 0.0956026 6.98931
0 0.95119 0.0937544 6.47635
0 0.951184 0.0937145 7.60174
0 0.951189 0.096173 8.87641
0 0.951193 0.0988319 7.58013
0 0.951196 0.0937161 7.05411
0 0.95119 0.0935952 8.44334
0 0.951173 0.0943526 7.04335
0 0.95116 0.111598 10.7564
0 0.951191 0.0952139 6.42558
0 0.951185 0.0938186 8.5478
0 0.951178 0.0934874 6.7428
0 0.951176 0.0937723 7.69901
0 0.951185 0.0931447 6.57081
0 0.951187 0.0936406 6.45847
0 0.9512 0.0952168 7.24917
0 0.9512 0.0960125 6.07192
0 0.951193 0.094604 7.97896
0 0.951189 0.0963505 7.12418
0 0.951192 0.0955911 6.09011
0 0.951199 0.0928602 6.90134
0 0.95121 0.112166 9.59171
0 0.951179 0.0938904 8.16056
0 0.951188 0.0937751 7.11237
0 0.951183 0.0954396 5.54166
0 0.951181 0.0947057 7.46537
0 0.951187 0.0949094 7.79665
0 0.9512 0.0957996 5.84539
0 0.951197 0.0938334 6.05636
0 0.95121 0.0961975 5.88584
0 0.951179 0.0951501 5.60489
0 0.951178 0.0944326 5.87794
0 0.951173 0.0941097 7.46969
0 0.951196 0.0934573 7.18578
0 0.951195 0.116271 12.2524
0 0.951183 0.0931236 6.31313
0 0.951178 0.0939648 6.48203
0 0.951187 0.0928501 6.72258
0 0.951181 0.0939643 6.20946
0 0.951186 0.0936715 6.45656
0 0.951194 0.0934204 6.52743
0 0.951208 0.0951867 8.85317
0 0.951196 0.0940995 7.49474
0 0.951188 0.0936903 7.36176
0 0.951198 0.0960653 8.55839
0 0.951191 0.094215 5.9933
0 0.951189 0.0932301 7.63762
0 0.95121 0.0931249 7.27015
0 0.951225 0.112632 8.92741
0 0.951183 0.0948467 6.14181
0 0.951186 0.0949255 7.0858
0 0.951182 0.094907 6.98184
0 0.951186 0.0950658 7.76555
0 0.951192 0.100657 9.42234
0 0.951177 0.0950128 7.81091
0 0.951165 0.093549 7.35491
0 0.951179 0.0933078 7.2308
0 0.951209 0.113561 10.8693
0 0.951183 0.0943819 7.81586
0 0.951183 0.0934898 6.62948
0 0.951185 0.0936474 6.9676
0 0.951189 0.0935138 6.65403
0 0.951197 0.0939878 6.68664
0 0.951192 0.0938087 6.22544
0 0.951196 0.0956502 7.61824
0 0.951201 0.0958341 8.09202
0 0.951199 0.0942133 6.67954
0 0.951198 0.0931787 6.73488
0 0.951188 0.0928324 6.99498
0 0.951204 0.114099 7.29764
0 0.951191 0.0933349 7.44142
0 0.951196 0.0950926 6.90215
0 0.951187 0.0946124 6.39839
0 0.951181 0.0940974 6.87733
0 0.95119 0.100917 7.84299
0 0.951163 0.0944332 6.98607
0 0.951161 0.0936737 7.2618
0 0.951178 0.114571 14.0478
0 0.951184 0.093606 7.63693
0 0.951185 0.0932847 6.57689
0 0.951189 0.0935566 6.71014
0 0.951199 0.0945417 6.79295
0 0.951188 0.0933306 7.8733
0 0.951191 0.0969401 5.64575
0 0.951203 0.095225 6.50297
0 0.951194 0.0947036 6.49715
0 0.951188 0.0926996 6.55167
0 0.951206 0.0928723 6.77432
0 0.951223 0.0928549 6.34456
0 0.951197 0.112342 9.59073
0 0.951196 0.0947044 6.56509
0 0.951186 0.0948075 6.52139
0 0.951181 0.094316 7.46348
0 0.951154 0.0933529 7.07643
0 0.951133 0.0935302 6.95799
0 0.951147 0.112402 11.8521
0 0.951183 0.0929919 7.45706
0 0.951194 0.0946693 6.66434
0 0.951178 0.0970366 7.48247
0 0.951186 0.095681 5.97128
0 0.951197 0.0946992 6.89499
0 0.951187 0.0931931 6.96363
0 0.951205 0.092429 7.57163
0 0.951228 0.0924478 6.49559
0 0.951246 0.115524 6.76697
0 0.951181 0.0944829 7.46101
0 0.95118 0.093122 7.3949
0 0.951168 0.093126 7.24721
0 0.951119 0.0936473 7.14636
0 0.9511 0.11508 12.7622
0 0.951188 0.0939271 7.98807
0 0.951187 0.0942068 6.39565
0 0.951195 0.0948893 5.86405
0 0.951184 0.0929012 7.89897
0 0.951195 0.0931513 7.22748
0 0.951207 0.0923824 6.45563
0 0.951223 0.113902 10.4009
0 0.951184 0.0944403 7.32684
0 0.951182 0.0932958 7.05528
0 0.951162 0.0934741 7.21469
0 0.951104 0.112911 11.2609
0 0.951193 0.0934447 6.85507
0 0.951187 0.093928 6.33633
0 0.951194 0.0941428 8.14092
0 0.951187 0.0937111 6.53662
0 0.951189 0.0940168 6.01434
0 0.951191 0.0935 8.09366
0 0.951193 0.113128 6.90245
0 0.951191 0.0930007 7.05616
0 0.951219 0.092856 7.24887
0 0.951204 0.113979 7.96639
0 0.951185 0.0930575 7.58193
0 0.951184 0.0939811 7.21101
0 0.951181 0.0937567 8.25231
0 0.951197 0.0933946 7.16207
0 0.951191 0.113088 8.73695
0 0.951202 0.09289 7.133
0 0.951233 0.115434 10.8948
0 0.951193 0.0937223 6.13527
0 0.951196 0.0931425 7.2759
0 0.951209 0.109935 9.31427
0 0.951208 0.113452 10.9631
0 0.951208 0.114718 10.4502
VECTORS fa_u float
0.00715891 0.00285874 -0
0.0067846 0.0038976 -0
0.00295376 0.00080449 -0
0.00704806 0.0010973 -0
1e-08 0 0
0.00518977 0.00400475 -0
0.0024743 0.00239334 -0
1e-08 0 0
1e-08 0 0
0.00461652 0.00562733 -0
0.00532757 0.00895251 -0
0.00675131 0.000143523 -0
0.00609528 -0.000654644 0
1e-08 0 0
1e-08 0 0
1e-08 0 0
1e-08 0 0
1e-08 0 0
1e-08 0 0
1e-08 0 0
1e-08 0 0
0.00289468 0.00714418 -0
0.00161523 0.00633625 -0
1e-08 0 0
1e-08 0 0
1e-08 0 0
0.00909455 -0.00229235 0
1e-08 0 0
0.0110653 -0.00485237 0
1e-08 0 0
1e-08 0 0
1e-08 0 0
0.000857154 0.00735177 -0
1e-08 0 0
1e-08 0 0
1e-08 0 0
1e-08 0 0
1e-08 0 0
1e-08 0 0
1e-08 0 0
1e-08 0 0
1e-08 0 0
1e-08 0 0
-0.000183087 0.00778275 -0
1e-08 0 0
1e-08 0 0
1e-08 0 0
0.00550406 -0.00350114 0
1e-08 0 0
0.0028162 -0.00227204 0
1e-08 0 0
1e-08 0 0
1e-08 0 0
1e-08 0 0
1e-08 0 0
1e-08 0 0
1e-08 0 0
1e-08 0 0
1e-08 0 0
1e-08 0 0
1e-08 0 0
1e-08 0 0
1e-08 0 0
-0.000585259 0.00400403 0
1e-08 0 0
1e-08 0 0
1e-08 0 0
1e-08 0 0
1e-08 0 0
0.00317225 -0.00314264 0
1e-08 0 0
0.00273281 -0.00334902 0
1e-08 0 0
1e-08 0 0
1e-08 0 0
1e-08 0 0
1e-08 0 0
1e-08 0 0
1e-08 0 0
1e-08 0 0
1e-08 0 0
1e-08 0 0
1e-08 0 0
1e-08 0 0
1e-08 0 0
-0.00136859 0.00526178 0
1e-08 0 0
1e-08 0 0
1e-08 0 0
1e-08 0 0
1e-08 0 0
1e-08 0 0
0.0057716 -0.00946159 0
1e-08 0 0
1e-08 0 0
1e-08 0 0
1e-08 0 0
1e-08 0 0
0.00364907 -0.00902562 0
1e-08 0 0
1e-08 0 0
1e-08 0 0
1e-08 0 0
1e-08 0 0
1e-08 0 0
1e-08 0 0
1e-08 0 0
1e-08 0 0
1e-08 0 0
-0.00287076 0.00711884 0
1e-08 0 0
1e-08 0 0
1e-08 0 0
1e-08 0 0
1e-08 0 0
1e-08 0 0
1e-08 0 0
1e-08 0 0
1e-08 0 0
1e-08 0 0
1e-08 0 0
1e-08 0 0
1e-08 0 0
1e-08 0 0
0.00137556 -0.00549986 0
1e-08 0 0
1e-08 0 0
1e-08 0 0
1e-08 0 0
1e-08 0 0
1e-08 0 0
1e-08 0 0
1e-08 0 0
1e-08 0 0
-0.00375577 0.0065142 0
1e-08 0 0
1e-08 0 0
1e-08 0 0
1e-08 0 0
1e-08 0 0
1e-08 0 0
1e-08 0 0
1e-08 0 0
1e-08 0 0
1e-08 0 0
1e-08 0 0
1e-08 0 0
1e-08 0 0
1e-08 0 0
1e-08 0 0
0.000507199 -0.00370412 0
1e-08 0 0
1e-08 0 0
1e-08 0 0
1e-08 0 0
1e-08 0 0
1e-08 0 0
1e-08 0 0
1e-08 0 0
1e-08 0 0
1e-08 0 0
-0.00467297 0.00599441 0
1e-08 0 0
1e-08 0 0
1e-08 0 0
1e-08 0 0
1e-08 0 0
1e-08 0 0
1e-08 0 0
1e-08 0 0
1e-08 0 0
1e-08 0 0
1e-08 0 0
1e-08 0 0
0.000122536 -0.00789051 0
1e-08 0 0
1e-08 0 0
1e-08 0 0
1e-08 0 0
1e-08 0 0
1e-08 0 0
1e-08 0 0
1e-08 0 0
1e-08 0 0
1e-08 0 0
1e-08 0 0
1e-08 0 0
-0.0022318 0.00227007 0
1e-08 0 0
1e-08 0 0
1e-08 0 0
1e-08 0 0
1e-08 0 0
1e-08 0 0
1e-08 0 0
1e-08 0 0
1e-08 0 0
1e-08 0 0
1e-08 0 0
1e-08 0 0
1e-08 0 0
-0.000861939 -0.00697858 0
1e-08 0 0
1e-08 0 0
1e-08 0 0
1e-08 0 0
1e-08 0 0
1e-08 0 0
1e-08 0 0
1e-08 0 0
-0.00478032 0.00391454 0
1e-08 0 0
1e-08 0 0
1e-08 0 0
1e-08 0 0
1e-08 0 0
1e-08 0 0
1e-08 0 0
1e-08 0 0
1e-08 0 0
1e-08 0 0
1e-08 0 0
-0.00162346 -0.00623757 0
1e-08 0 0
1e-08 0 0
1e-08 0 0
1e-08 0 0
1e-08 0 0
1e-08 0 0
1e-08 0 0
-0.0088025 0.00529838 0
1e-08 0 0
1e-08 0 0
1e-08 0 0
1e-08 0 0
1e-08 0 0
1e-08 0 0
1e-08 0 0
1e-08 0 0
1e-08 0 0
1e-08 0 0
1e-08 0 0
-0.00296071 -0.00720764 0
1e-08 0 0
1e-08 0 0
1e-08 0 0
1e-08 0 0
1e-08 0 0
-0.00753194 0.00308318 0
1e-08 0 0
1e-08 0 0
1e-08 0 0
1e-08 0 0
1e-08 0 0
1e-08 0 0
1e-08 0 0
1e-08 0 0
-0.00516587 -0.00860926 0
1e-08 0 0
1e-08 0 0
1e-08 0 0
1e-08 0 0
-0.006296 0.00161796 0
1e-08 0 0
1e-08 0 0
1e-08 0 0
1e-08 0 0
1e-08 0 0
1e-08 0 0
-0.00357873 -0.00441408 0
1e-08 0 0
1e-08 0 0
1e-08 0 0
-0.00714124 0.000853445 0
1e-08 0 0
1e-08 0 0
1e-08 0 0
1e-08 0 0
1e-08 0 0
1e-08 0 0
-0.00254788 -0.00252852 0
1e-08 0 0
1e-08 0 0
-0.00849488 -0.000191887 0
1e-08 0 0
1e-08 0 0
1e-08 0 0
1e-08 0 0
-0.0060868 -0.00475845 0
1e-08 0 0
-0.00343508 -0.000497851 0
1e-08 0 0
1e-08 0 0
-0.00665653 -0.0038381 0
-0.00556429 -0.00142748 0
-0.00721799 -0.00290117 0
