# vtk DataFile Version 2.0
CellBP Time: 1.96
ASCII
DATASET UNSTRUCTURED_GRID
POINTS 296 double
-9.13227 -3.75035 0
-8.55912 -4.91891 0
-9.54582 -2.51569 0
-9.80498 -1.24529 0
-8.29928 -2.79372 0
-7.83429 -6.00116 0
-6.97472 -6.97957 0
-7.85854 -3.84341 0
-7.28751 -4.83183 0
-6.00556 -7.84407 0
-4.93093 -8.57132 0
-9.89593 0.0470055 0
-9.81702 1.34551 0
-8.60426 -1.67115 0
-8.73884 -0.525399 0
-7.5332 -1.9843 0
-7.16747 -2.87858 0
-6.59418 -5.74375 0
-5.78952 -6.56469 0
-6.73534 -3.85562 0
-6.17357 -4.64244 0
-3.76301 -9.14627 0
-2.52675 -9.56241 0
-4.88638 -7.27565 0
-3.89938 -7.85693 0
-8.74833 0.638785 0
-9.57047 2.6273 0
-8.58313 1.76325 0
-9.15158 3.8606 0
-7.69284 -0.918176 0
-7.74724 0.0821484 0
-6.90309 -1.30162 0
-1.24645 -9.81391 0
-6.39588 -2.13393 0
-6.27253 -3.03101 0
-5.49994 -5.44227 0
-4.76792 -6.08372 0
-5.6183 -3.73001 0
-5.23119 -4.53125 0
-2.85653 -8.33157 0
-1.77223 -8.59981 0
-3.91108 -6.69356 0
-3.04668 -7.12308 0
0.0513128 -9.89441 0
-7.66244 1.13714 0
-8.30545 2.90405 0
-7.51058 2.09751 0
-8.56501 5.0215 0
-7.8402 3.95601 0
-7.83189 6.09787 0
-6.73302 -0.390769 0
-6.91298 0.550758 0
-5.73558 -0.996681 0
-0.589587 -8.76933 0
0.561306 -8.72204 0
-5.26953 -2.46226 0
-4.46161 -5.0656 0
-3.87987 -5.74624 0
-4.41214 -3.78221 0
-2.05354 -7.53085 0
-1.13082 -7.75087 0
-2.97964 -6.07244 0
-2.29936 -6.5923 0
1.34521 -9.80145 0
-6.65099 1.41242 0
-7.13026 3.09763 0
-6.62206 2.35771 0
-7.25429 4.958 0
-6.6792 3.97772 0
-6.97396 7.07281 0
-6.53447 5.85784 0
-5.99966 7.93371 0
-4.4356 -1.17608 0
-5.78545 0.508905 0
-4.63789 -0.0134542 0
0.00442897 -7.80643 0
1.72442 -8.58892 0
0.938741 -7.71601 0
-4.02038 -2.39513 0
-3.4796 -1.38888 0
-3.27971 -4.78136 0
-3.25563 -3.25462 0
-1.37375 -6.64347 0
-0.511248 -6.98801 0
-1.96975 -5.5136 0
2.62044 -9.5479 0
-5.47969 2.02545 0
-6.06058 3.05256 0
-6.06956 4.83712 0
-5.72945 3.96462 0
-5.72607 6.67429 0
-5.41878 5.58133 0
-4.92571 8.66668 0
-4.80818 7.3549 0
-3.49308 -0.423204 0
-4.42988 1.24411 0
-3.69906 0.590665 0
-4.04363 2.3145 0
-3.76056 9.24266 0
2.83834 -8.27199 0
0.409208 -6.75424 0
2.00254 -7.47231 0
1.28951 -6.85768 0
-2.44024 -0.872213 0
-2.8329 -2.12616 0
-2.28871 -4.08288 0
-2.32095 -2.96515 0
-0.444474 -5.83039 0
-1.21847 -4.48324 0
3.85279 -9.13301 0
-4.76692 3.37329 0
-5.05823 4.56288 0
-4.61742 6.23643 0
-4.51292 5.32345 0
-3.82374 7.94682 0
-3.80155 6.79704 0
-2.76669 8.37002 0
-1.64559 -0.135429 0
-1.44727 -0.888515 0
-2.48339 0.509301 0
-3.24368 1.44318 0
-3.22566 3.30522 0
-2.90029 2.37036 0
-1.35256 0.629301 0
-2.52618 9.65548 0
3.90255 -7.82894 0
2.93577 -7.09942 0
0.941704 -5.78482 0
2.05098 -6.36762 0
-1.67943 -1.989 0
-1.42966 -3.26878 0
0.0861465 -4.72432 0
-0.5625 -3.68383 0
4.89705 -7.26489 0
5.01906 -8.55942 0
-3.75664 4.52625 0
-3.71331 5.71392 0
-2.86741 7.24037 0
-2.99219 6.31235 0
-1.65488 8.68569 0
-1.92521 7.57447 0
-2.3298 4.03497 0
-0.72819 -1.32566 0
-0.834711 -0.256107 0
-1.934 1.68379 0
-2.11984 2.87137 0
-1.30489 3.53679 0
-0.869241 1.35351 0
-0.281479 0.458622 0
-0.531928 8.82853 0
-1.24809 9.90617 0
1.10419 -4.54889 0
3.8738 -6.65695 0
2.96082 -6.04502 0
2.09877 -5.38719 0
4.75056 -6.15353 0
-0.554927 -2.4733 0
0.494325 -3.45281 0
0.0547706 -1.60905 0
1.47325 -3.66411 0
5.83 -6.5659 0
6.10089 -7.83529 0
-2.46259 5.31857 0
-2.11512 6.49325 0
-0.896552 7.76288 0
-1.26022 6.89066 0
0.0882701 7.84409 0
-1.13926 4.47759 0
0.150489 -0.616204 0
-0.799159 2.4907 0
-0.334954 3.5957 0
0.0620978 1.51388 0
0.740031 0.473699 0
0.644921 8.83628 0
0.0484398 9.99803 0
2.36547 -4.25791 0
3.8297 -5.59282 0
2.97669 -5.17387 0
5.54164 -5.45144 0
4.65886 -5.23792 0
0.630466 -2.2923 0
1.2524 -2.94147 0
0.75766 -1.3898 0
2.15351 -3.12142 0
2.9779 -3.45602 0
6.12368 -4.76101 0
6.6195 -5.73302 0
7.07808 -6.97414 0
-1.01238 5.79074 0
-0.365639 6.84836 0
1.11782 7.7365 0
0.558865 7.04776 0
0.000116878 4.70885 0
0.603254 3.81764 0
1.33819 -0.641267 0
0.535511 2.64869 0
0.963651 1.57477 0
1.90761 0.213584 0
1.61105 1.06529 0
2.12442 7.55334 0
1.79327 8.67704 0
1.34821 9.91486 0
3.79871 -4.32027 0
5.08712 -4.41342 0
5.81667 -3.90846 0
3.76522 -3.18309 0
1.80895 -1.88247 0
3.0082 -2.56375 0
6.75454 -3.92566 0
7.34999 -4.87035 0
7.94114 -6.00246 0
0.4843 5.85441 0
1.42519 6.71414 0
2.36738 6.64336 0
1.2053 4.5411 0
1.48342 3.39031 0
2.43041 -0.691664 0
2.82146 0.14232 0
1.78419 2.16031 0
2.60752 1.14812 0
3.06187 7.14251 0
2.89355 8.34563 0
2.62769 9.66193 0
4.88779 -3.30483 0
6.09349 -3.08939 0
4.1566 -2.26637 0
3.23469 -1.49875 0
6.70621 -2.3041 0
7.20452 -3.0302 0
7.93409 -3.8999 0
8.66921 -4.92827 0
2.01764 5.57846 0
3.07064 6.12785 0
2.35859 4.11327 0
2.4133 3.05311 0
3.51527 -0.460194 0
3.60554 0.613267 0
2.95331 2.28294 0
3.53353 1.52099 0
3.98891 5.87249 0
3.96707 6.76454 0
3.96161 7.9083 0
3.8631 9.24515 0
5.54748 -1.90896 0
4.49373 -1.12629 0
6.68688 -1.33011 0
7.5637 -2.02614 0
8.36453 -2.85232 0
9.24541 -3.76163 0
3.40063 4.85509 0
3.3241 3.37292 0
4.67379 0.130867 0
4.49896 1.30408 0
4.04313 2.43319 0
4.53883 5.12658 0
4.81741 6.16109 0
4.95767 7.35062 0
5.03007 8.66928 0
5.85903 -0.434355 0
6.97708 -0.487485 0
7.72728 -1.07955 0
8.65044 -1.7398 0
9.66175 -2.52567 0
4.52358 3.80789 0
5.78674 1.08843 0
5.33596 2.51845 0
5.34028 4.59283 0
5.57464 5.49398 0
5.86405 6.63927 0
6.1034 7.94073 0
6.80994 0.456104 0
7.81499 -0.0263477 0
8.82372 -0.580192 0
9.91318 -1.24549 0
6.9187 1.33586 0
5.67868 3.75387 0
6.49762 2.17875 0
6.33271 3.06405 0
6.24567 4.65653 0
6.65101 5.80362 0
7.0763 7.07928 0
7.74321 0.959103 0
8.81653 0.567951 0
9.99427 0.0534748 0
7.56814 1.98705 0
6.77413 3.87338 0
7.21651 2.92323 0
7.33025 4.85511 0
7.93882 6.10376 0
8.67236 1.71463 0
9.89985 1.34698 0
8.36566 2.81563 0
7.93016 3.88889 0
8.66185 5.02155 0
9.64939 2.62293 0
9.23519 3.85512 0
CELLS 542 2168
3 2 0 4
3 0 1 7
3 4 0 7
3 1 5 8
3 7 1 8
3 3 2 13
3 13 2 4
3 11 3 14
3 14 3 13
3 13 4 15
3 4 7 16
3 15 4 16
3 5 6 17
3 8 5 17
3 6 9 18
3 17 6 18
3 7 8 19
3 16 7 19
3 8 17 20
3 19 8 20
3 9 10 23
3 18 9 23
3 10 21 24
3 23 10 24
3 12 11 25
3 25 11 14
3 26 12 27
3 27 12 25
3 14 13 29
3 29 13 15
3 25 14 30
3 30 14 29
3 29 15 31
3 15 16 33
3 31 15 33
3 16 19 34
3 33 16 34
3 17 18 35
3 20 17 35
3 18 23 36
3 35 18 36
3 19 20 37
3 34 19 37
3 20 35 38
3 37 20 38
3 21 22 39
3 24 21 39
3 22 32 40
3 39 22 40
3 23 24 41
3 36 23 41
3 24 39 42
3 41 24 42
3 27 25 44
3 44 25 30
3 28 26 45
3 45 26 27
3 45 27 46
3 46 27 44
3 47 28 48
3 48 28 45
3 30 29 50
3 50 29 31
3 44 30 51
3 51 30 50
3 50 31 52
3 31 33 52
3 32 43 53
3 40 32 53
3 53 43 54
3 33 34 55
3 34 37 55
3 33 55 52
3 35 36 56
3 38 35 56
3 36 41 57
3 56 36 57
3 37 38 58
3 38 56 58
3 37 58 55
3 39 40 59
3 42 39 59
3 40 53 60
3 59 40 60
3 41 42 61
3 57 41 61
3 42 59 62
3 61 42 62
3 43 63 54
3 46 44 64
3 64 44 51
3 48 45 65
3 65 45 46
3 65 46 66
3 66 46 64
3 49 47 67
3 67 47 48
3 67 48 68
3 68 48 65
3 69 49 70
3 70 49 67
3 52 55 72
3 64 51 73
3 51 50 73
3 50 52 73
3 73 52 74
3 74 52 72
3 53 54 75
3 60 53 75
3 54 63 76
3 54 76 77
3 75 54 77
3 55 58 78
3 72 55 78
3 72 78 79
3 56 57 80
3 57 61 80
3 56 80 58
3 58 80 81
3 78 58 81
3 59 60 82
3 62 59 82
3 60 75 83
3 82 60 83
3 61 62 84
3 62 82 84
3 61 84 80
3 63 85 76
3 66 64 86
3 64 73 86
3 68 65 87
3 87 65 66
3 87 66 86
3 70 67 88
3 88 67 68
3 88 68 89
3 89 68 87
3 71 69 90
3 90 69 70
3 90 70 91
3 91 70 88
3 92 71 93
3 93 71 90
3 74 72 94
3 94 72 79
3 86 73 95
3 95 73 74
3 95 74 96
3 96 74 94
3 97 86 95
3 76 85 99
3 75 77 100
3 83 75 100
3 76 99 101
3 77 76 101
3 77 101 102
3 100 77 102
3 94 79 103
3 78 81 104
3 79 78 104
3 79 104 103
3 80 84 105
3 81 80 105
3 81 105 106
3 104 81 106
3 82 83 107
3 83 100 107
3 82 107 84
3 84 107 108
3 105 84 108
3 85 109 99
3 89 87 110
3 87 86 110
3 110 86 97
3 91 88 111
3 111 88 89
3 111 89 110
3 93 90 112
3 112 90 91
3 112 91 113
3 113 91 111
3 98 92 114
3 114 92 93
3 114 93 115
3 115 93 112
3 116 98 114
3 117 103 118
3 96 94 119
3 94 103 119
3 119 103 117
3 97 95 120
3 120 95 96
3 120 96 119
3 121 110 97
3 121 97 122
3 122 97 120
3 123 119 117
3 124 98 116
3 99 109 125
3 99 125 126
3 101 99 126
3 100 102 127
3 100 127 107
3 101 126 128
3 102 101 128
3 102 128 127
3 104 106 129
3 104 129 103
3 103 129 118
3 105 108 130
3 106 105 130
3 106 130 129
3 107 127 131
3 108 107 131
3 108 131 132
3 108 132 130
3 109 134 125
3 125 134 133
3 113 111 135
3 111 110 135
3 135 110 121
3 115 112 136
3 136 112 113
3 136 113 135
3 116 114 137
3 137 114 115
3 137 115 138
3 138 115 136
3 139 124 116
3 139 116 140
3 140 116 137
3 141 135 121
3 118 129 142
3 118 142 143
3 117 118 143
3 123 117 143
3 122 120 144
3 120 119 144
3 144 119 123
3 141 121 145
3 145 121 122
3 145 122 144
3 146 141 145
3 147 144 123
3 147 123 148
3 143 148 123
3 150 124 139
3 149 150 139
3 131 127 151
3 125 133 152
3 126 125 152
3 126 152 153
3 128 126 153
3 128 153 154
3 128 154 127
3 127 154 151
3 152 133 155
3 130 132 156
3 130 156 129
3 129 156 142
3 131 151 157
3 132 131 157
3 132 157 156
3 156 158 142
3 157 151 159
3 133 160 155
3 134 161 133
3 133 161 160
3 138 136 162
3 136 135 162
3 162 135 141
3 140 137 163
3 163 137 138
3 163 138 162
3 149 139 164
3 164 139 140
3 164 140 165
3 165 140 163
3 166 149 164
3 167 162 141
3 167 141 146
3 142 158 168
3 143 142 168
3 143 168 148
3 146 145 169
3 145 144 169
3 169 144 147
3 170 167 146
3 170 146 169
3 171 169 147
3 171 147 148
3 171 148 172
3 168 172 148
3 173 149 166
3 174 150 149
3 173 174 149
3 154 175 151
3 151 175 159
3 152 155 176
3 153 152 176
3 153 176 177
3 153 177 154
3 154 177 175
3 155 160 178
3 155 178 179
3 176 155 179
3 156 157 180
3 156 180 158
3 157 159 181
3 157 181 180
3 158 180 182
3 158 182 168
3 159 175 183
3 159 183 181
3 175 184 183
3 160 186 178
3 178 186 185
3 161 187 160
3 160 187 186
3 165 163 188
3 163 162 188
3 188 162 167
3 166 164 189
3 189 164 165
3 189 165 188
3 190 173 166
3 190 166 191
3 191 166 189
3 192 188 167
3 192 167 170
3 193 192 170
3 182 194 168
3 194 172 168
3 193 170 195
3 170 169 195
3 195 169 171
3 196 195 171
3 196 171 172
3 194 197 172
3 197 198 172
3 198 196 172
3 200 173 190
3 199 200 190
3 201 174 173
3 200 201 173
3 176 179 202
3 177 176 202
3 177 202 175
3 175 202 184
3 178 185 203
3 178 203 179
3 179 203 202
3 203 185 204
3 202 205 184
3 183 206 181
3 180 181 206
3 180 206 182
3 182 206 194
3 183 184 207
3 205 207 184
3 183 207 206
3 185 208 204
3 186 209 185
3 185 209 208
3 187 210 186
3 186 210 209
3 191 189 211
3 189 188 211
3 211 188 192
3 199 190 212
3 212 190 191
3 212 191 211
3 213 199 212
3 214 211 192
3 214 192 193
3 215 214 193
3 215 193 195
3 206 216 194
3 216 197 194
3 216 217 197
3 215 195 218
3 218 195 196
3 198 218 196
3 217 219 197
3 219 218 198
3 197 219 198
3 220 199 213
3 221 200 199
3 220 221 199
3 222 201 200
3 221 222 200
3 203 204 223
3 203 223 202
3 202 223 205
3 204 208 224
3 204 224 223
3 205 223 225
3 205 225 207
3 207 225 226
3 207 226 206
3 226 216 206
3 208 228 224
3 224 228 227
3 209 229 208
3 229 228 208
3 210 230 209
3 209 230 229
3 213 212 231
3 212 211 231
3 231 211 214
3 232 220 213
3 232 213 231
3 233 231 214
3 233 214 215
3 234 233 215
3 234 215 218
3 226 235 216
3 235 217 216
3 235 236 217
3 217 236 219
3 237 234 218
3 237 218 219
3 236 238 219
3 238 237 219
3 240 220 232
3 239 240 232
3 241 221 220
3 240 241 220
3 242 222 221
3 241 242 221
3 224 227 243
3 224 243 223
3 223 243 225
3 225 243 244
3 225 244 226
3 226 244 235
3 227 245 243
3 228 246 227
3 227 246 245
3 229 247 228
3 228 247 246
3 230 248 229
3 229 248 247
3 239 232 249
3 232 231 249
3 249 231 233
3 250 249 233
3 250 233 234
3 237 250 234
3 244 251 235
3 235 251 236
3 251 252 236
3 236 252 238
3 252 253 238
3 253 250 237
3 253 237 238
3 254 239 249
3 255 240 239
3 254 255 239
3 256 241 240
3 255 256 240
3 257 242 241
3 256 257 241
3 245 258 243
3 243 258 244
3 244 258 251
3 245 259 258
3 246 260 245
3 245 260 259
3 247 261 246
3 246 261 260
3 248 262 247
3 247 262 261
3 254 249 263
3 263 249 250
3 253 263 250
3 258 264 251
3 251 264 252
3 264 265 252
3 265 263 253
3 252 265 253
3 266 254 263
3 267 255 254
3 266 267 254
3 268 256 255
3 267 268 255
3 269 257 256
3 268 269 256
3 259 270 258
3 270 264 258
3 260 271 259
3 259 271 270
3 261 272 260
3 260 272 271
3 262 273 261
3 273 272 261
3 270 274 264
3 275 266 263
3 275 263 265
3 274 276 264
3 276 265 264
3 276 277 265
3 277 275 265
3 278 267 266
3 275 278 266
3 279 268 267
3 278 279 267
3 280 269 268
3 279 280 268
3 271 281 270
3 270 281 274
3 272 282 271
3 271 282 281
3 273 283 272
3 272 283 282
3 281 284 274
3 274 284 276
3 285 278 275
3 277 285 275
3 284 286 276
3 286 285 277
3 276 286 277
3 287 279 278
3 285 287 278
3 288 280 279
3 287 288 279
3 282 289 281
3 281 289 284
3 283 290 282
3 282 290 289
3 289 291 284
3 284 291 286
3 291 292 286
3 292 287 285
3 286 292 285
3 293 288 287
3 292 293 287
3 290 294 289
3 289 294 291
3 294 295 291
3 295 293 292
3 291 295 292
CELL_TYPES 542
5
5
5
5
5
5
5
5
5
5
5
5
5
5
5
5
5
5
5
5
5
5
5
5
5
5
5
5
5
5
5
5
5
5
5
5
5
5
5
5
5
5
5
5
5
5
5
5
5
5
5
5
5
5
5
5
5
5
5
5
5
5
5
5
5
5
5
5
5
5
5
5
5
5
5
5
5
5
5
5
5
5
5
5
5
5
5
5
5
5
5
5
5
5
5
5
5
5
5
5
5
5
5
5
5
5
5
5
5
5
5
5
5
5
5
5
5
5
5
5
5
5
5
5
5
5
5
5
5
5
5
5
5
5
5
5
5
5
5
5
5
5
5
5
5
5
5
5
5
5
5
5
5
5
5
5
5
5
5
5
5
5
5
5
5
5
5
5
5
5
5
5
5
5
5
5
5
5
5
5
5
5
5
5
5
5
5
5
5
5
5
5
5
5
5
5
5
5
5
5
5
5
5
5
5
5
5
5
5
5
5
5
5
5
5
5
5
5
5
5
5
5
5
5
5
5
5
5
5
5
5
5
5
5
5
5
5
5
5
5
5
5
5
5
5
5
5
5
5
5
5
5
5
5
5
5
5
5
5
5
5
5
5
5
5
5
5
5
5
5
5
5
5
5
5
5
5
5
5
5
5
5
5
5
5
5
5
5
5
5
5
5
5
5
5
5
5
5
5
5
5
5
5
5
5
5
5
5
5
5
5
5
5
5
5
5
5
5
5
5
5
5
5
5
5
5
5
5
5
5
5
5
5
5
5
5
5
5
5
5
5
5
5
5
5
5
5
5
5
5
5
5
5
5
5
5
5
5
5
5
5
5
5
5
5
5
5
5
5
5
5
5
5
5
5
5
5
5
5
5
5
5
5
5
5
5
5
5
5
5
5
5
5
5
5
5
5
5
5
5
5
5
5
5
5
5
5
5
5
5
5
5
5
5
5
5
5
5
5
5
5
5
5
5
5
5
5
5
5
5
5
5
5
5
5
5
5
5
5
5
5
5
5
5
5
5
5
5
5
5
5
5
5
5
5
5
5
5
5
5
5
5
5
5
5
5
5
5
5
5
5
5
5
5
5
5
5
5
5
5
5
5
5
5
5
5
5
5
5
5
5
5
5
5
5
5
5
5
5
5
5
5
5
5
5
5
5
5
5
5
5
5
5
5
5
5
5
5
5
5
5
5
5
5
5
5
5
5
5
5
5
5
5
5
5
5
5
5
5
5
5
5
POINT_DATA 296
SCALARS concentrations float 4
LOOKUP_TABLE default
0 0.989155 0.197179 20.3695
0 0.989204 0.195549 12.8732
0 0.988984 0.194112 22.5894
0 0.988815 0.182785 28.4605
0 0.989032 0.0947749 6.91588
0 0.98912 0.197839 15.0562
0 0.988989 0.190295 20.7576
0 0.989122 0.0970573 8.32564
0 0.98912 0.0955188 7.20426
0 0.989025 0.198015 16.6707
0 0.989149 0.191784 14.6215
0 0.98894 0.190195 26.5259
0 0.989141 0.195042 19.1996
0 0.98889 0.0947503 7.22274
0 0.988883 0.0950666 8.76294
0 0.988935 0.0954144 8.87607
0 0.988979 0.100417 5.46044
0 0.989036 0.0956195 8.52476
0 0.989002 0.0944825 8.62495
0 0.989019 0.0956139 9.26678
0 0.989021 0.0981803 8.90592
0 0.989138 0.185552 24.025
0 0.988983 0.199453 18.8475
0 0.989064 0.0934128 7.91131
0 0.989109 0.0944265 7.56335
0 0.989026 0.0950163 8.71522
0 0.989194 0.184425 8.56842
0 0.989148 0.0945218 8.24961
0 0.989094 0.193251 22.7635
0 0.988935 0.0949511 8.74588
0 0.988966 0.094915 8.88183
0 0.988955 0.0948991 8.65903
0 0.989016 0.195967 17.5248
0 0.988946 0.0958615 8.52989
0 0.988958 0.094833 8.03812
0 0.989016 0.0950055 8.39299
0 0.989013 0.0953046 5.93088
0 0.98897 0.0970345 9.51717
0 0.988988 0.0963987 7.42447
0 0.989032 0.0947967 8.25368
0 0.988996 0.0940672 7.26218
0 0.989017 0.0940082 6.55238
0 0.988998 0.0964179 8.03546
0 0.98916 0.198508 13.052
0 0.989013 0.0953008 8.3812
0 0.989111 0.0949046 8.61002
0 0.989036 0.10072 6.42972
0 0.989131 0.182217 18.7115
0 0.98908 0.09544 8.98449
0 0.98904 0.190924 18.3809
0 0.988971 0.0944543 8.69685
0 0.988978 0.0948671 8.76856
0 0.988963 0.0946921 6.4531
0 0.989066 0.0937662 7.84849
0 0.989205 0.0941321 7.76978
0 0.988955 0.0951191 6.53904
0 0.988978 0.0948785 8.37969
0 0.988985 0.0960994 6.97989
0 0.988959 0.0945558 7.87337
0 0.988991 0.101399 5.12431
0 0.989018 0.0945119 7.51477
0 0.989003 0.0949967 6.63505
0 0.988989 0.101266 7.32163
0 0.98937 0.187599 5.94661
0 0.988977 0.0948294 8.72106
0 0.989021 0.0966374 7.2054
0 0.988962 0.0954689 8.70434
0 0.989044 0.095148 8.60955
0 0.988993 0.101633 8.65369
0 0.989163 0.187052 22.6544
0 0.989029 0.0958246 8.71081
0 0.989237 0.186312 8.55454
0 0.98896 0.0942351 8.1073
0 0.988981 0.0944229 8.44227
0 0.988968 0.0947719 7.61509
0 0.989042 0.0942883 7.65025
0 0.989277 0.0948449 7.87846
0 0.989071 0.0943036 7.68835
0 0.988965 0.0937813 6.69824
0 0.988994 0.0950982 7.87925
0 0.988983 0.0966085 7.04499
0 0.988977 0.0944643 7.95157
0 0.988986 0.0961937 6.72104
0 0.988985 0.0946907 8.03105
0 0.988999 0.0960816 7.26019
0 0.989374 0.189188 3.9373
0 0.988983 0.0956844 8.69562
0 0.988968 0.0960587 8.36495
0 0.988977 0.0953425 8.67013
0 0.988971 0.0951581 8.51201
0 0.989141 0.0950294 8.58897
0 0.988995 0.0960187 8.99444
0 0.989082 0.185309 18.2442
0 0.989099 0.0971181 9.34308
0 0.988986 0.0942769 7.18287
0 0.988988 0.0943241 7.21303
0 0.988976 0.0944123 7.24568
0 0.988995 0.0945274 7.03677
0 0.98914 0.186405 22.142
0 0.989228 0.0950695 6.98917
0 0.988989 0.0980168 7.8712
0 0.989061 0.0953167 7.9821
0 0.988991 0.0953785 7.45249
0 0.989018 0.0955301 8.55217
0 0.989002 0.0943232 7.77289
0 0.988994 0.0952588 7.42545
0 0.989008 0.0927063 7.18811
0 0.988982 0.0945632 7.44597
0 0.988988 0.0949016 7.34198
0 0.98932 0.184269 15.9297
0 0.988993 0.0944665 7.97203
0 0.988983 0.0953842 8.33009
0 0.989013 0.0965413 9.37423
0 0.988993 0.0959628 8.93234
0 0.98904 0.0975389 7.22194
0 0.988999 0.0974088 8.71664
0 0.989143 0.0957397 6.84796
0 0.989037 0.0938889 7.88012
0 0.989029 0.0934742 7.92872
0 0.989004 0.096095 7.11988
0 0.988987 0.0946288 6.4069
0 0.989001 0.0949757 6.00408
0 0.988992 0.0963481 6.89067
0 0.989046 0.0955277 6.71177
0 0.989266 0.186344 12.1359
0 0.989162 0.0947556 6.17192
0 0.98902 0.0963877 7.96549
0 0.988974 0.0934714 6.99842
0 0.988971 0.0978839 6.95138
0 0.989021 0.0946237 8.34469
0 0.989007 0.0941655 7.53506
0 0.988983 0.0936938 7.67612
0 0.988989 0.0943039 7.33103
0 0.989068 0.0968909 8.54048
0 0.989202 0.183252 20.5358
0 0.989004 0.0953858 8.99498
0 0.988995 0.0960736 9.49667
0 0.989005 0.0998715 9.21492
0 0.988984 0.096646 9.5269
0 0.989155 0.0951237 8.10287
0 0.989035 0.0956117 9.33669
0 0.988995 0.0960296 8.14328
0 0.989029 0.0931517 7.94549
0 0.989052 0.0941598 8.24461
0 0.989011 0.0985498 4.21092
0 0.988997 0.0951655 6.24259
0 0.988989 0.096178 4.64053
0 0.989053 0.0975316 7.02018
0 0.989063 0.0944332 8.0268
0 0.989099 0.0945232 8.68685
0 0.989163 0.191995 11.9711
0 0.988972 0.0934719 6.95978
0 0.98899 0.0972097 6.30934
0 0.988961 0.0941392 7.08625
0 0.988958 0.0938034 7.7819
0 0.98898 0.0949164 7.01551
0 0.989005 0.0937199 7.60814
0 0.988986 0.101385 8.22106
0 0.989014 0.0941443 7.94208
0 0.988984 0.0927858 6.91326
0 0.989079 0.0953958 7.1051
0 0.989107 0.187279 21.732
0 0.988994 0.0952573 5.24842
0 0.988998 0.0968127 5.23897
0 0.989052 0.0948616 9.18987
0 0.98901 0.0959152 9.6135
0 0.989046 0.0942989 8.85466
0 0.988989 0.0942368 7.59449
0 0.989031 0.0955437 7.20608
0 0.989024 0.0953828 7.17565
0 0.989006 0.0944378 6.63956
0 0.989055 0.0944664 5.7245
0 0.989048 0.0933509 6.33455
0 0.989081 0.0941947 8.70109
0 0.98911 0.193444 10.757
0 0.988972 0.0934068 7.0416
0 0.988961 0.0952456 6.73342
0 0.988965 0.095915 8.01535
0 0.988988 0.0947261 7.82743
0 0.988967 0.0988323 7.93122
0 0.989001 0.0952506 7.49692
0 0.988988 0.094341 7.47524
0 0.989004 0.095213 7.57027
0 0.988985 0.0956931 7.90318
0 0.98898 0.0930123 7.26127
0 0.988985 0.0937999 7.93966
0 0.989135 0.0944473 7.87646
0 0.989211 0.185682 17.4951
0 0.988999 0.0951716 8.04894
0 0.989016 0.0945709 9.04385
0 0.989031 0.0945872 6.10404
0 0.989018 0.0946335 8.11882
0 0.989003 0.0937295 6.26858
0 0.989024 0.0932948 6.782
0 0.989024 0.0940142 6.75937
0 0.989033 0.0942061 6.0404
0 0.989039 0.0933353 6.18198
0 0.989038 0.0934391 7.51749
0 0.989038 0.0968938 5.86815
0 0.989009 0.093884 8.41861
0 0.98907 0.0940237 8.48484
0 0.989109 0.195442 21.5045
0 0.988972 0.0941746 7.70463
0 0.988969 0.0997226 7.56165
0 0.988972 0.0954049 8.11112
0 0.988982 0.0942343 7.32416
0 0.989003 0.0944646 7.17118
0 0.988992 0.093276 7.41863
0 0.98897 0.0939506 7.60012
0 0.989044 0.0932719 7.455
0 0.989185 0.186145 10.8351
0 0.989012 0.094873 7.22875
0 0.989017 0.0942473 8.43022
0 0.989013 0.0946303 8.7003
0 0.989016 0.0941884 5.99684
0 0.989027 0.0935037 6.06049
0 0.989022 0.0928075 7.0261
0 0.989023 0.0931345 6.32897
0 0.989025 0.0931091 5.98015
0 0.989019 0.0934427 6.43797
0 0.988999 0.0938053 8.11041
0 0.988976 0.0937124 7.20199
0 0.989053 0.184495 21.505
0 0.988978 0.0946335 7.96019
0 0.988975 0.0990696 6.42052
0 0.988991 0.0932366 6.99254
0 0.989004 0.0933891 7.12175
0 0.988988 0.0979223 7.28779
0 0.988969 0.0942459 7.1619
0 0.988999 0.0940594 7.44912
0 0.989038 0.186456 25.68
0 0.989011 0.0945654 6.08071
0 0.989004 0.0949906 7.51096
0 0.989008 0.0939652 5.97009
0 0.989014 0.0933824 5.73835
0 0.989005 0.0924578 7.76505
0 0.989004 0.0929364 6.24298
0 0.989005 0.0933777 5.83984
0 0.988998 0.093439 6.05756
0 0.989002 0.0941579 8.55662
0 0.989026 0.0939678 7.81062
0 0.988961 0.0937383 8.19597
0 0.9889 0.183422 24.6324
0 0.98899 0.0957781 6.51446
0 0.988996 0.0932938 7.26862
0 0.988998 0.0952053 7.41281
0 0.988982 0.0940702 7.26111
0 0.989013 0.0933276 7.30006
0 0.989064 0.189235 24.3766
0 0.988993 0.0947293 8.87647
0 0.988994 0.0939058 6.38717
0 0.988994 0.093597 6.84125
0 0.98899 0.0933518 7.75402
0 0.98899 0.0930036 8.01449
0 0.989001 0.0942767 8.33853
0 0.989038 0.0942699 7.40133
0 0.989085 0.0938206 7.75188
0 0.989023 0.194378 21.0404
0 0.988998 0.0941925 7.44612
0 0.988996 0.0942937 6.68782
0 0.98898 0.0937923 7.26886
0 0.988991 0.0931494 7.34169
0 0.989021 0.192109 21.0909
0 0.988991 0.0944844 8.9903
0 0.988996 0.0937736 7.83089
0 0.988993 0.0938508 8.30778
0 0.989013 0.0954314 8.85679
0 0.989029 0.0950053 8.27502
0 0.989031 0.0942021 7.76973
0 0.989102 0.17896 9.81444
0 0.989 0.0944582 8.28655
0 0.988971 0.0941517 7.73075
0 0.988968 0.0934629 7.47253
0 0.989002 0.193268 18.9662
0 0.98901 0.0947984 8.13723
0 0.989015 0.0955268 8.8779
0 0.989012 0.0946937 7.82525
0 0.989023 0.0947987 7.62228
0 0.989042 0.0968603 9.45257
0 0.988995 0.0950345 8.43651
0 0.988951 0.188656 34.5279
0 0.988975 0.0947624 7.70447
0 0.988888 0.0941775 7.653
0 0.988903 0.194618 27.3163
0 0.989005 0.0954199 7.92548
0 0.989049 0.0963592 8.21727
0 0.989032 0.0949343 7.62904
0 0.989023 0.0956627 8.38643
0 0.988991 0.177484 11.8154
0 0.988887 0.0951555 7.9054
0 0.988807 0.186704 35.9841
0 0.988956 0.095349 7.7817
0 0.988988 0.0955405 8.26968
0 0.988959 0.186598 25.1984
0 0.988863 0.181678 15.2207
0 0.988932 0.186669 29.9829
VECTORS fa_u float
0.00624306 0.00256323 -0
0.00596231 0.00343831 -0
0.00551072 0.00147985 -0
0.00653457 0.000892741 -0
1e-08 0 0
0.00518041 0.00398312 -0
0.00402144 0.00399049 -0
1e-08 0 0
1e-08 0 0
0.00419854 0.00539087 -0
0.00363745 0.00626414 -0
0.00658076 3.05886e-05 -0
0.00634659 -0.000800513 0
1e-08 0 0
1e-08 0 0
1e-08 0 0
1e-08 0 0
1e-08 0 0
1e-08 0 0
1e-08 0 0
1e-08 0 0
0.00256806 0.00622961 -0
0.00167351 0.00630803 -0
1e-08 0 0
1e-08 0 0
1e-08 0 0
0.00696978 -0.00184406 0
1e-08 0 0
0.00695697 -0.00292162 0
1e-08 0 0
1e-08 0 0
1e-08 0 0
0.00085144 0.00661147 -0
1e-08 0 0
1e-08 0 0
1e-08 0 0
1e-08 0 0
1e-08 0 0
1e-08 0 0
1e-08 0 0
1e-08 0 0
1e-08 0 0
1e-08 0 0
-3.29504e-05 0.0068541 -0
1e-08 0 0
1e-08 0 0
1e-08 0 0
0.00557843 -0.00329054 0
1e-08 0 0
0.00463528 -0.00359526 0
1e-08 0 0
1e-08 0 0
1e-08 0 0
1e-08 0 0
1e-08 0 0
1e-08 0 0
1e-08 0 0
1e-08 0 0
1e-08 0 0
1e-08 0 0
1e-08 0 0
1e-08 0 0
1e-08 0 0
-0.000795626 0.00589894 0
1e-08 0 0
1e-08 0 0
1e-08 0 0
1e-08 0 0
1e-08 0 0
0.00427279 -0.0042644 0
1e-08 0 0
0.00366687 -0.00471222 0
1e-08 0 0
1e-08 0 0
1e-08 0 0
1e-08 0 0
1e-08 0 0
1e-08 0 0
1e-08 0 0
1e-08 0 0
1e-08 0 0
1e-08 0 0
1e-08 0 0
1e-08 0 0
1e-08 0 0
-0.00162931 0.0061122 0
1e-08 0 0
1e-08 0 0
1e-08 0 0
1e-08 0 0
1e-08 0 0
1e-08 0 0
0.00377641 -0.00645995 0
1e-08 0 0
1e-08 0 0
1e-08 0 0
1e-08 0 0
1e-08 0 0
0.00271359 -0.0065851 0
1e-08 0 0
1e-08 0 0
1e-08 0 0
1e-08 0 0
1e-08 0 0
1e-08 0 0
1e-08 0 0
1e-08 0 0
1e-08 0 0
1e-08 0 0
-0.00255702 0.00620481 0
1e-08 0 0
1e-08 0 0
1e-08 0 0
1e-08 0 0
1e-08 0 0
1e-08 0 0
1e-08 0 0
1e-08 0 0
1e-08 0 0
1e-08 0 0
1e-08 0 0
1e-08 0 0
1e-08 0 0
1e-08 0 0
0.00162719 -0.00616162 0
1e-08 0 0
1e-08 0 0
1e-08 0 0
1e-08 0 0
1e-08 0 0
1e-08 0 0
1e-08 0 0
1e-08 0 0
1e-08 0 0
-0.0033758 0.00584804 0
1e-08 0 0
1e-08 0 0
1e-08 0 0
1e-08 0 0
1e-08 0 0
1e-08 0 0
1e-08 0 0
1e-08 0 0
1e-08 0 0
1e-08 0 0
1e-08 0 0
1e-08 0 0
1e-08 0 0
1e-08 0 0
1e-08 0 0
0.000763815 -0.00574072 0
1e-08 0 0
1e-08 0 0
1e-08 0 0
1e-08 0 0
1e-08 0 0
1e-08 0 0
1e-08 0 0
1e-08 0 0
1e-08 0 0
1e-08 0 0
-0.00409736 0.0053218 0
1e-08 0 0
1e-08 0 0
1e-08 0 0
1e-08 0 0
1e-08 0 0
1e-08 0 0
1e-08 0 0
1e-08 0 0
1e-08 0 0
1e-08 0 0
1e-08 0 0
1e-08 0 0
2.32373e-05 -0.00693962 0
1e-08 0 0
1e-08 0 0
1e-08 0 0
1e-08 0 0
1e-08 0 0
1e-08 0 0
1e-08 0 0
1e-08 0 0
1e-08 0 0
1e-08 0 0
1e-08 0 0
1e-08 0 0
-0.00403513 0.00405146 0
1e-08 0 0
1e-08 0 0
1e-08 0 0
1e-08 0 0
1e-08 0 0
1e-08 0 0
1e-08 0 0
1e-08 0 0
1e-08 0 0
1e-08 0 0
1e-08 0 0
1e-08 0 0
1e-08 0 0
-0.000851119 -0.00653147 0
1e-08 0 0
1e-08 0 0
1e-08 0 0
1e-08 0 0
1e-08 0 0
1e-08 0 0
1e-08 0 0
1e-08 0 0
-0.00516588 0.00401765 0
1e-08 0 0
1e-08 0 0
1e-08 0 0
1e-08 0 0
1e-08 0 0
1e-08 0 0
1e-08 0 0
1e-08 0 0
1e-08 0 0
1e-08 0 0
1e-08 0 0
-0.00166686 -0.00625933 0
1e-08 0 0
1e-08 0 0
1e-08 0 0
1e-08 0 0
1e-08 0 0
1e-08 0 0
1e-08 0 0
-0.0062086 0.00361371 0
1e-08 0 0
1e-08 0 0
1e-08 0 0
1e-08 0 0
1e-08 0 0
1e-08 0 0
1e-08 0 0
1e-08 0 0
1e-08 0 0
1e-08 0 0
1e-08 0 0
-0.00258477 -0.0062556 0
1e-08 0 0
1e-08 0 0
1e-08 0 0
1e-08 0 0
1e-08 0 0
-0.00633093 0.00261538 0
1e-08 0 0
1e-08 0 0
1e-08 0 0
1e-08 0 0
1e-08 0 0
1e-08 0 0
1e-08 0 0
1e-08 0 0
-0.00366921 -0.0063018 0
1e-08 0 0
1e-08 0 0
1e-08 0 0
1e-08 0 0
-0.00633313 0.00168079 0
1e-08 0 0
1e-08 0 0
1e-08 0 0
1e-08 0 0
1e-08 0 0
1e-08 0 0
-0.00388123 -0.00499488 0
1e-08 0 0
1e-08 0 0
1e-08 0 0
-0.00656659 0.000846608 0
1e-08 0 0
1e-08 0 0
1e-08 0 0
1e-08 0 0
1e-08 0 0
1e-08 0 0
-0.00403972 -0.0040363 0
1e-08 0 0
1e-08 0 0
-0.00700873 -3.60569e-05 0
1e-08 0 0
1e-08 0 0
1e-08 0 0
1e-08 0 0
-0.00552373 -0.00425622 0
1e-08 0 0
-0.00556607 -0.000747088 0
1e-08 0 0
1e-08 0 0
-0.00579427 -0.00334049 0
-0.0063043 -0.00167063 0
-0.00622897 -0.00256455 0
