# vtk DataFile Version 2.0
CellBP Time: 6.48
ASCII
DATASET UNSTRUCTURED_GRID
POINTS 296 double
-8.97397 -3.67672 0
-8.41419 -4.83163 0
-9.36884 -2.45312 0
-9.64184 -1.21773 0
-8.1301 -2.72088 0
-7.69603 -5.89942 0
-6.84588 -6.8655 0
-7.68917 -3.75012 0
-7.12958 -4.72555 0
-5.91413 -7.73265 0
-4.8776 -8.46367 0
-9.74737 0.0392746 0
-9.68756 1.31877 0
-8.44872 -1.62654 0
-8.59902 -0.506758 0
-7.37367 -1.92514 0
-7.00256 -2.79615 0
-6.46922 -5.63924 0
-5.69356 -6.46442 0
-6.57544 -3.75961 0
-6.03624 -4.54533 0
-3.72489 -9.02939 0
-2.49507 -9.43226 0
-4.81636 -7.17538 0
-3.85988 -7.76227 0
-8.61582 0.630328 0
-9.46359 2.59723 0
-8.4667 1.7312 0
-9.05213 3.8162 0
-7.54746 -0.888049 0
-7.6113 0.0884178 0
-6.76169 -1.2598 0
-1.22185 -9.67195 0
-6.26353 -2.07763 0
-6.136 -2.95638 0
-5.38917 -5.34773 0
-4.68474 -5.99275 0
-5.49686 -3.65212 0
-5.11867 -4.44373 0
-2.82446 -8.22333 0
-1.75283 -8.48337 0
-3.85694 -6.60308 0
-3.01722 -7.03829 0
0.0547399 -9.7352 0
-7.5373 1.11887 0
-8.20646 2.86995 0
-7.39423 2.05692 0
-8.44298 4.94349 0
-7.72734 3.89119 0
-7.68983 5.987 0
-6.60625 -0.372928 0
-6.78506 0.548429 0
-5.63647 -0.976598 0
-0.57809 -8.6379 0
0.549353 -8.57539 0
-5.17491 -2.40998 0
-4.36699 -4.97856 0
-3.81144 -5.66177 0
-4.33451 -3.71841 0
-2.03017 -7.4326 0
-1.11936 -7.64216 0
-2.93534 -5.98945 0
-2.27692 -6.50796 0
1.31668 -9.62124 0
-6.53985 1.38642 0
-7.01262 3.03925 0
-6.5142 2.31347 0
-7.13598 4.8658 0
-6.56858 3.90326 0
-6.84465 6.93852 0
-6.42473 5.75079 0
-5.89549 7.79595 0
-4.38097 -1.1628 0
-5.69773 0.496571 0
-4.58416 -0.0229191 0
-0.00816138 -7.67772 0
1.6838 -8.42542 0
0.905911 -7.57516 0
-3.97109 -2.36124 0
-3.45891 -1.38118 0
-3.22973 -4.71237 0
-3.22196 -3.2128 0
-1.36492 -6.54828 0
-0.519605 -6.87568 0
-1.94959 -5.44359 0
2.57012 -9.37268 0
-5.39809 1.99679 0
-5.96259 2.99471 0
-5.96863 4.74378 0
-5.63304 3.8869 0
-5.62292 6.55223 0
-5.32593 5.47544 0
-4.85925 8.54498 0
-4.71926 7.21352 0
-3.46658 -0.419848 0
-4.37369 1.22834 0
-3.6619 0.585413 0
-3.98959 2.2966 0
-3.7168 9.11505 0
2.76859 -8.09389 0
0.378044 -6.6315 0
1.94316 -7.31716 0
1.23988 -6.71973 0
-2.42859 -0.864295 0
-2.81647 -2.11008 0
-2.26558 -4.03267 0
-2.3027 -2.9331 0
-0.454444 -5.73696 0
-1.20512 -4.43504 0
3.78514 -8.97623 0
-4.69359 3.31933 0
-4.97381 4.47387 0
-4.5354 6.11184 0
-4.43315 5.21982 0
-3.76366 7.81603 0
-3.72774 6.65555 0
-2.7202 8.2229 0
-1.63683 -0.129101 0
-1.43824 -0.881146 0
-2.47351 0.515986 0
-3.21057 1.43659 0
-3.18365 3.26347 0
-2.8706 2.36055 0
-1.35119 0.637102 0
-2.4933 9.50518 0
3.81203 -7.66016 0
2.85113 -6.92983 0
0.906601 -5.67523 0
1.98612 -6.22757 0
-1.66849 -1.97716 0
-1.41602 -3.23835 0
0.0801131 -4.65974 0
-0.55168 -3.64982 0
4.79217 -7.10499 0
4.93257 -8.41636 0
-3.69726 4.45156 0
-3.64753 5.6055 0
-2.80954 7.09925 0
-2.93759 6.19394 0
-1.62775 8.54166 0
-1.88765 7.44051 0
-2.3019 3.98573 0
-0.723135 -1.31792 0
-0.831535 -0.24976 0
-1.92938 1.68909 0
-2.10433 2.85633 0
-1.29927 3.51033 0
-0.87283 1.36269 0
-0.284029 0.465979 0
-0.523415 8.69473 0
-1.22945 9.74369 0
1.07613 -4.47349 0
3.77089 -6.48237 0
2.88107 -5.90164 0
2.04385 -5.27542 0
4.6486 -6.00321 0
-0.549087 -2.45912 0
0.489479 -3.41597 0
0.0572587 -1.6042 0
1.4449 -3.60795 0
5.71813 -6.4279 0
5.99885 -7.70007 0
-2.42262 5.23355 0
-2.07145 6.37937 0
-0.879259 7.64188 0
-1.22994 6.77514 0
0.0919656 7.73201 0
-1.12691 4.42667 0
0.150845 -0.609899 0
-0.806313 2.49374 0
-0.343971 3.57814 0
0.0549002 1.51879 0
0.732476 0.476948 0
0.639008 8.71895 0
0.0431538 9.85087 0
2.31785 -4.17398 0
3.74276 -5.45471 0
2.90973 -5.05677 0
5.44424 -5.3317 0
4.56471 -5.1068 0
0.633212 -2.2841 0
1.23981 -2.90893 0
0.757211 -1.38583 0
2.12332 -3.0758 0
2.93451 -3.39404 0
6.02918 -4.66824 0
6.51192 -5.62747 0
6.95756 -6.84133 0
-0.989451 5.70442 0
-0.350054 6.74097 0
1.10535 7.63526 0
0.560332 6.94878 0
-0.00226977 4.66166 0
0.590154 3.78894 0
1.33033 -0.639542 0
0.523441 2.63887 0
0.950763 1.57521 0
1.89615 0.211909 0
1.59608 1.06416 0
2.10468 7.46367 0
1.7749 8.56483 0
1.32817 9.77748 0
3.73008 -4.22607 0
5.00108 -4.30757 0
5.73096 -3.82877 0
3.71181 -3.1246 0
1.79921 -1.87719 0
2.97125 -2.53229 0
6.66662 -3.8598 0
7.24877 -4.79477 0
7.82214 -5.90266 0
0.484764 5.77864 0
1.4127 6.63143 0
2.34243 6.56722 0
1.18872 4.49822 0
1.46689 3.36267 0
2.4125 -0.686645 0
2.80132 0.141757 0
1.76979 2.15016 0
2.58889 1.14082 0
3.03128 7.0587 0
2.86574 8.24474 0
2.59827 9.53208 0
4.81353 -3.23735 0
6.0119 -3.03119 0
4.10856 -2.2359 0
3.2045 -1.48689 0
6.62968 -2.27754 0
7.12457 -2.99623 0
7.83908 -3.85369 0
8.55755 -4.8687 0
1.99951 5.51575 0
3.02324 6.04804 0
2.34065 4.06985 0
2.39254 3.0263 0
3.48255 -0.453905 0
3.57831 0.61528 0
2.92743 2.2632 0
3.49585 1.50874 0
3.9171 5.79218 0
3.90936 6.67699 0
3.9231 7.81449 0
3.82474 9.12505 0
5.48564 -1.88222 0
4.44797 -1.11189 0
6.60581 -1.31263 0
7.47441 -1.9997 0
8.26255 -2.8195 0
9.12734 -3.72055 0
3.33962 4.78739 0
3.27705 3.33215 0
4.62472 0.135041 0
4.43615 1.28496 0
3.98018 2.39776 0
4.44221 5.04201 0
4.73296 6.07051 0
4.8864 7.24802 0
4.97328 8.55528 0
5.78168 -0.433341 0
6.87778 -0.487742 0
7.63154 -1.06352 0
8.54161 -1.71827 0
9.532 -2.49195 0
4.43362 3.74419 0
5.68933 1.0575 0
5.22955 2.46669 0
5.21807 4.50691 0
5.46313 5.3988 0
5.76617 6.53258 0
6.00789 7.82249 0
6.69536 0.434162 0
7.69696 -0.0286131 0
8.70518 -0.566481 0
9.77436 -1.21949 0
6.79334 1.29462 0
5.54995 3.6748 0
6.36558 2.119 0
6.19206 2.98955 0
6.10455 4.56135 0
6.51936 5.70052 0
6.95198 6.96404 0
7.61164 0.933857 0
8.68228 0.561054 0
9.84212 0.0617956 0
7.42243 1.93758 0
6.60609 3.77761 0
7.05585 2.84827 0
7.18113 4.7572 0
7.81159 6.00738 0
8.5162 1.68384 0
9.72548 1.32314 0
8.19287 2.75527 0
7.77271 3.80998 0
8.52787 4.9429 0
9.48223 2.57915 0
9.08747 3.79488 0
CELLS 542 2168
3 2 0 4
3 0 1 7
3 4 0 7
3 1 5 8
3 7 1 8
3 3 2 13
3 13 2 4
3 11 3 14
3 14 3 13
3 13 4 15
3 4 7 16
3 15 4 16
3 5 6 17
3 8 5 17
3 6 9 18
3 17 6 18
3 7 8 19
3 16 7 19
3 8 17 20
3 19 8 20
3 9 10 23
3 18 9 23
3 10 21 24
3 23 10 24
3 12 11 25
3 25 11 14
3 26 12 27
3 27 12 25
3 14 13 29
3 29 13 15
3 25 14 30
3 30 14 29
3 29 15 31
3 15 16 33
3 31 15 33
3 16 19 34
3 33 16 34
3 17 18 35
3 20 17 35
3 18 23 36
3 35 18 36
3 19 20 37
3 34 19 37
3 20 35 38
3 37 20 38
3 21 22 39
3 24 21 39
3 22 32 40
3 39 22 40
3 23 24 41
3 36 23 41
3 24 39 42
3 41 24 42
3 27 25 44
3 44 25 30
3 28 26 45
3 45 26 27
3 45 27 46
3 46 27 44
3 47 28 48
3 48 28 45
3 30 29 50
3 50 29 31
3 44 30 51
3 51 30 50
3 50 31 52
3 31 33 52
3 32 43 53
3 40 32 53
3 53 43 54
3 33 34 55
3 34 37 55
3 33 55 52
3 35 36 56
3 38 35 56
3 36 41 57
3 56 36 57
3 37 38 58
3 38 56 58
3 37 58 55
3 39 40 59
3 42 39 59
3 40 53 60
3 59 40 60
3 41 42 61
3 57 41 61
3 42 59 62
3 61 42 62
3 43 63 54
3 46 44 64
3 64 44 51
3 48 45 65
3 65 45 46
3 65 46 66
3 66 46 64
3 49 47 67
3 67 47 48
3 67 48 68
3 68 48 65
3 69 49 70
3 70 49 67
3 52 55 72
3 64 51 73
3 51 50 73
3 50 52 73
3 73 52 74
3 74 52 72
3 53 54 75
3 60 53 75
3 54 63 76
3 54 76 77
3 75 54 77
3 55 58 78
3 72 55 78
3 72 78 79
3 56 57 80
3 57 61 80
3 56 80 58
3 58 80 81
3 78 58 81
3 59 60 82
3 62 59 82
3 60 75 83
3 82 60 83
3 61 62 84
3 62 82 84
3 61 84 80
3 63 85 76
3 66 64 86
3 64 73 86
3 68 65 87
3 87 65 66
3 87 66 86
3 70 67 88
3 88 67 68
3 88 68 89
3 89 68 87
3 71 69 90
3 90 69 70
3 90 70 91
3 91 70 88
3 92 71 93
3 93 71 90
3 74 72 94
3 94 72 79
3 86 73 95
3 95 73 74
3 95 74 96
3 96 74 94
3 97 86 95
3 76 85 99
3 75 77 100
3 83 75 100
3 76 99 101
3 77 76 101
3 77 101 102
3 100 77 102
3 94 79 103
3 78 81 104
3 79 78 104
3 79 104 103
3 80 84 105
3 81 80 105
3 81 105 106
3 104 81 106
3 82 83 107
3 83 100 107
3 82 107 84
3 84 107 108
3 105 84 108
3 85 109 99
3 89 87 110
3 87 86 110
3 110 86 97
3 91 88 111
3 111 88 89
3 111 89 110
3 93 90 112
3 112 90 91
3 112 91 113
3 113 91 111
3 98 92 114
3 114 92 93
3 114 93 115
3 115 93 112
3 116 98 114
3 117 103 118
3 96 94 119
3 94 103 119
3 119 103 117
3 97 95 120
3 120 95 96
3 120 96 119
3 121 110 97
3 121 97 122
3 122 97 120
3 123 119 117
3 124 98 116
3 99 109 125
3 99 125 126
3 101 99 126
3 100 102 127
3 100 127 107
3 101 126 128
3 102 101 128
3 102 128 127
3 104 106 129
3 104 129 103
3 103 129 118
3 105 108 130
3 106 105 130
3 106 130 129
3 107 127 131
3 108 107 131
3 108 131 132
3 108 132 130
3 109 134 125
3 125 134 133
3 113 111 135
3 111 110 135
3 135 110 121
3 115 112 136
3 136 112 113
3 136 113 135
3 116 114 137
3 137 114 115
3 137 115 138
3 138 115 136
3 139 124 116
3 139 116 140
3 140 116 137
3 141 135 121
3 118 129 142
3 118 142 143
3 117 118 143
3 123 117 143
3 122 120 144
3 120 119 144
3 144 119 123
3 141 121 145
3 145 121 122
3 145 122 144
3 146 141 145
3 147 144 123
3 147 123 148
3 143 148 123
3 150 124 139
3 149 150 139
3 131 127 151
3 125 133 152
3 126 125 152
3 126 152 153
3 128 126 153
3 128 153 154
3 128 154 127
3 127 154 151
3 152 133 155
3 130 132 156
3 130 156 129
3 129 156 142
3 131 151 157
3 132 131 157
3 132 157 156
3 156 158 142
3 157 151 159
3 133 160 155
3 134 161 133
3 133 161 160
3 138 136 162
3 136 135 162
3 162 135 141
3 140 137 163
3 163 137 138
3 163 138 162
3 149 139 164
3 164 139 140
3 164 140 165
3 165 140 163
3 166 149 164
3 167 162 141
3 167 141 146
3 142 158 168
3 143 142 168
3 143 168 148
3 146 145 169
3 145 144 169
3 169 144 147
3 170 167 146
3 170 146 169
3 171 169 147
3 171 147 148
3 171 148 172
3 168 172 148
3 173 149 166
3 174 150 149
3 173 174 149
3 154 175 151
3 151 175 159
3 152 155 176
3 153 152 176
3 153 176 177
3 153 177 154
3 154 177 175
3 155 160 178
3 155 178 179
3 176 155 179
3 156 157 180
3 156 180 158
3 157 159 181
3 157 181 180
3 158 180 182
3 158 182 168
3 159 175 183
3 159 183 181
3 175 184 183
3 160 186 178
3 178 186 185
3 161 187 160
3 160 187 186
3 165 163 188
3 163 162 188
3 188 162 167
3 166 164 189
3 189 164 165
3 189 165 188
3 190 173 166
3 190 166 191
3 191 166 189
3 192 188 167
3 192 167 170
3 193 192 170
3 182 194 168
3 194 172 168
3 193 170 195
3 170 169 195
3 195 169 171
3 196 195 171
3 196 171 172
3 194 197 172
3 197 198 172
3 198 196 172
3 200 173 190
3 199 200 190
3 201 174 173
3 200 201 173
3 176 179 202
3 177 176 202
3 177 202 175
3 175 202 184
3 178 185 203
3 178 203 179
3 179 203 202
3 203 185 204
3 202 205 184
3 183 206 181
3 180 181 206
3 180 206 182
3 182 206 194
3 183 184 207
3 205 207 184
3 183 207 206
3 185 208 204
3 186 209 185
3 185 209 208
3 187 210 186
3 186 210 209
3 191 189 211
3 189 188 211
3 211 188 192
3 199 190 212
3 212 190 191
3 212 191 211
3 213 199 212
3 214 211 192
3 214 192 193
3 215 214 193
3 215 193 195
3 206 216 194
3 216 197 194
3 216 217 197
3 215 195 218
3 218 195 196
3 198 218 196
3 217 219 197
3 219 218 198
3 197 219 198
3 220 199 213
3 221 200 199
3 220 221 199
3 222 201 200
3 221 222 200
3 203 204 223
3 203 223 202
3 202 223 205
3 204 208 224
3 204 224 223
3 205 223 225
3 205 225 207
3 207 225 226
3 207 226 206
3 226 216 206
3 208 228 224
3 224 228 227
3 209 229 208
3 229 228 208
3 210 230 209
3 209 230 229
3 213 212 231
3 212 211 231
3 231 211 214
3 232 220 213
3 232 213 231
3 233 231 214
3 233 214 215
3 234 233 215
3 234 215 218
3 226 235 216
3 235 217 216
3 235 236 217
3 217 236 219
3 237 234 218
3 237 218 219
3 236 238 219
3 238 237 219
3 240 220 232
3 239 240 232
3 241 221 220
3 240 241 220
3 242 222 221
3 241 242 221
3 224 227 243
3 224 243 223
3 223 243 225
3 225 243 244
3 225 244 226
3 226 244 235
3 227 245 243
3 228 246 227
3 227 246 245
3 229 247 228
3 228 247 246
3 230 248 229
3 229 248 247
3 239 232 249
3 232 231 249
3 249 231 233
3 250 249 233
3 250 233 234
3 237 250 234
3 244 251 235
3 235 251 236
3 251 252 236
3 236 252 238
3 252 253 238
3 253 250 237
3 253 237 238
3 254 239 249
3 255 240 239
3 254 255 239
3 256 241 240
3 255 256 240
3 257 242 241
3 256 257 241
3 245 258 243
3 243 258 244
3 244 258 251
3 245 259 258
3 246 260 245
3 245 260 259
3 247 261 246
3 246 261 260
3 248 262 247
3 247 262 261
3 254 249 263
3 263 249 250
3 253 263 250
3 258 264 251
3 251 264 252
3 264 265 252
3 265 263 253
3 252 265 253
3 266 254 263
3 267 255 254
3 266 267 254
3 268 256 255
3 267 268 255
3 269 257 256
3 268 269 256
3 259 270 258
3 270 264 258
3 260 271 259
3 259 271 270
3 261 272 260
3 260 272 271
3 262 273 261
3 273 272 261
3 270 274 264
3 275 266 263
3 275 263 265
3 274 276 264
3 276 265 264
3 276 277 265
3 277 275 265
3 278 267 266
3 275 278 266
3 279 268 267
3 278 279 267
3 280 269 268
3 279 280 268
3 271 281 270
3 270 281 274
3 272 282 271
3 271 282 281
3 273 283 272
3 272 283 282
3 281 284 274
3 274 284 276
3 285 278 275
3 277 285 275
3 284 286 276
3 286 285 277
3 276 286 277
3 287 279 278
3 285 287 278
3 288 280 279
3 287 288 279
3 282 289 281
3 281 289 284
3 283 290 282
3 282 290 289
3 289 291 284
3 284 291 286
3 291 292 286
3 292 287 285
3 286 292 285
3 293 288 287
3 292 293 287
3 290 294 289
3 289 294 291
3 294 295 291
3 295 293 292
3 291 295 292
CELL_TYPES 542
5
5
5
5
5
5
5
5
5
5
5
5
5
5
5
5
5
5
5
5
5
5
5
5
5
5
5
5
5
5
5
5
5
5
5
5
5
5
5
5
5
5
5
5
5
5
5
5
5
5
5
5
5
5
5
5
5
5
5
5
5
5
5
5
5
5
5
5
5
5
5
5
5
5
5
5
5
5
5
5
5
5
5
5
5
5
5
5
5
5
5
5
5
5
5
5
5
5
5
5
5
5
5
5
5
5
5
5
5
5
5
5
5
5
5
5
5
5
5
5
5
5
5
5
5
5
5
5
5
5
5
5
5
5
5
5
5
5
5
5
5
5
5
5
5
5
5
5
5
5
5
5
5
5
5
5
5
5
5
5
5
5
5
5
5
5
5
5
5
5
5
5
5
5
5
5
5
5
5
5
5
5
5
5
5
5
5
5
5
5
5
5
5
5
5
5
5
5
5
5
5
5
5
5
5
5
5
5
5
5
5
5
5
5
5
5
5
5
5
5
5
5
5
5
5
5
5
5
5
5
5
5
5
5
5
5
5
5
5
5
5
5
5
5
5
5
5
5
5
5
5
5
5
5
5
5
5
5
5
5
5
5
5
5
5
5
5
5
5
5
5
5
5
5
5
5
5
5
5
5
5
5
5
5
5
5
5
5
5
5
5
5
5
5
5
5
5
5
5
5
5
5
5
5
5
5
5
5
5
5
5
5
5
5
5
5
5
5
5
5
5
5
5
5
5
5
5
5
5
5
5
5
5
5
5
5
5
5
5
5
5
5
5
5
5
5
5
5
5
5
5
5
5
5
5
5
5
5
5
5
5
5
5
5
5
5
5
5
5
5
5
5
5
5
5
5
5
5
5
5
5
5
5
5
5
5
5
5
5
5
5
5
5
5
5
5
5
5
5
5
5
5
5
5
5
5
5
5
5
5
5
5
5
5
5
5
5
5
5
5
5
5
5
5
5
5
5
5
5
5
5
5
5
5
5
5
5
5
5
5
5
5
5
5
5
5
5
5
5
5
5
5
5
5
5
5
5
5
5
5
5
5
5
5
5
5
5
5
5
5
5
5
5
5
5
5
5
5
5
5
5
5
5
5
5
5
5
5
5
5
5
5
5
5
5
5
5
5
5
5
5
5
5
5
5
5
5
5
5
5
5
5
5
5
5
5
5
5
5
5
5
5
5
5
5
5
5
5
5
5
5
5
5
5
5
5
5
5
5
5
5
5
POINT_DATA 296
SCALARS concentrations float 4
LOOKUP_TABLE default
0 0.958832 0.137262 17.2196
0 0.958761 0.135255 17.5231
0 0.958812 0.134585 13.9045
0 0.958745 0.137119 14.0421
0 0.958844 0.0949653 6.10416
0 0.958769 0.13655 18.3137
0 0.958798 0.134208 11.6058
0 0.958807 0.100888 4.95063
0 0.958774 0.0963109 7.69659
0 0.958777 0.133533 18.3404
0 0.958801 0.137182 15.5794
0 0.958786 0.135747 19.4031
0 0.958807 0.13715 13.5271
0 0.9588 0.0944754 6.05739
0 0.958777 0.0945238 7.83913
0 0.958826 0.0955419 6.32549
0 0.958831 0.0950656 6.9539
0 0.958807 0.0953267 8.85411
0 0.958809 0.0945083 7.35764
0 0.958819 0.0949403 5.88069
0 0.958833 0.0950574 5.94627
0 0.958787 0.134449 13.096
0 0.958813 0.138401 12.2463
0 0.95881 0.0947164 8.99471
0 0.95882 0.0954179 5.73908
0 0.95881 0.0941508 7.40202
0 0.958793 0.135685 14.997
0 0.958807 0.094331 7.10542
0 0.958829 0.133624 13.3953
0 0.958821 0.0939836 6.13842
0 0.958812 0.0945866 5.85213
0 0.95882 0.0959519 5.31143
0 0.958829 0.138782 14.5965
0 0.958823 0.0955093 8.25049
0 0.958832 0.0961668 8.95205
0 0.958844 0.094293 5.94145
0 0.95883 0.0950105 6.09962
0 0.958832 0.0955214 8.81627
0 0.958844 0.0958581 8.95461
0 0.958825 0.0938606 7.57099
0 0.958853 0.0956122 9.0639
0 0.958834 0.0958699 7.53731
0 0.958857 0.0950614 5.46751
0 0.958774 0.133636 12.86
0 0.958814 0.0959306 5.76848
0 0.958829 0.0947284 5.72072
0 0.958839 0.0967431 7.50012
0 0.958869 0.13529 11.0896
0 0.958854 0.0942037 7.03035
0 0.958884 0.134063 9.55528
0 0.958821 0.0940432 6.48393
0 0.958817 0.096214 5.87959
0 0.958817 0.0941386 7.36109
0 0.958821 0.0942055 6.46529
0 0.9588 0.0949533 5.91618
0 0.958828 0.0980408 4.27179
0 0.958826 0.0965261 8.67688
0 0.958821 0.0953115 5.7719
0 0.958819 0.094346 7.5786
0 0.958875 0.0957099 8.14491
0 0.958852 0.0948725 5.92549
0 0.958835 0.0958439 4.83716
0 0.95886 0.0978194 6.26677
0 0.958799 0.136471 14.8522
0 0.958827 0.0961645 5.12408
0 0.958864 0.0936238 6.88812
0 0.958856 0.100476 9.10159
0 0.958871 0.0935328 6.44725
0 0.958856 0.093936 6.65593
0 0.958828 0.135519 15.2224
0 0.958861 0.093171 7.47297
0 0.958785 0.133983 12.3861
0 0.958825 0.0959827 5.01172
0 0.958816 0.0952778 7.37363
0 0.958822 0.0961007 5.89334
0 0.958838 0.0939838 8.04787
0 0.958798 0.0946545 7.04121
0 0.958825 0.0953445 8.24163
0 0.958821 0.0963712 6.52632
0 0.95885 0.104087 3.83123
0 0.95882 0.0954833 6.04965
0 0.958818 0.0946011 5.37118
0 0.958832 0.0983176 8.20827
0 0.958823 0.0953068 6.10776
0 0.958823 0.0966706 5.27195
0 0.958786 0.135728 18.3522
0 0.95883 0.0955082 6.54652
0 0.95885 0.0978743 7.30618
0 0.958851 0.0939613 7.79497
0 0.958839 0.095149 8.23207
0 0.958809 0.09339 6.90725
0 0.958845 0.0942295 8.15126
0 0.958873 0.135694 12.8521
0 0.958822 0.0970618 8.23375
0 0.958853 0.0950304 7.65111
0 0.958825 0.0951624 7.69476
0 0.95884 0.0945765 7.67357
0 0.958836 0.0956302 7.86985
0 0.958901 0.133243 11.6289
0 0.958802 0.0961791 8.44463
0 0.958825 0.0962188 5.15463
0 0.958808 0.0961577 8.34797
0 0.958824 0.0955486 7.58897
0 0.95885 0.0967064 8.3321
0 0.958829 0.101124 8.68156
0 0.958819 0.0946153 7.72599
0 0.958814 0.0955875 9.46909
0 0.95881 0.0955696 5.45516
0 0.958814 0.0949456 5.41909
0 0.958836 0.132728 16.7323
0 0.958827 0.0955965 5.58427
0 0.958835 0.0948492 8.13645
0 0.958837 0.101078 9.19471
0 0.958844 0.0952573 7.48271
0 0.958869 0.104482 7.28599
0 0.958822 0.094874 8.5083
0 0.958859 0.0985198 7.6968
0 0.958849 0.0955677 7.42737
0 0.958848 0.0956599 6.74396
0 0.958848 0.0965748 8.97998
0 0.958841 0.0950071 7.30557
0 0.958832 0.0947556 6.31957
0 0.958841 0.0943093 5.63577
0 0.95886 0.094382 6.67551
0 0.958859 0.138195 12.5193
0 0.958854 0.0964402 6.81911
0 0.958824 0.0970173 5.41564
0 0.958808 0.0941525 8.33252
0 0.958809 0.0956184 6.15679
0 0.958825 0.0950644 7.44075
0 0.958813 0.0949254 8.23945
0 0.958821 0.0967009 5.61241
0 0.958825 0.0954131 5.64918
0 0.958861 0.0989087 6.65081
0 0.958868 0.134557 13.6444
0 0.958824 0.0949296 8.18256
0 0.958825 0.0957014 8.51181
0 0.958829 0.0974388 9.16879
0 0.958819 0.102165 9.52616
0 0.958848 0.0933746 7.70706
0 0.958834 0.0947384 8.28264
0 0.958826 0.0953667 6.94933
0 0.958861 0.0943576 7.18093
0 0.958871 0.0942385 6.06075
0 0.958844 0.0976068 5.99412
0 0.958838 0.0963081 5.46062
0 0.958839 0.0955662 8.26655
0 0.958855 0.0946554 6.45929
0 0.958862 0.0954487 6.56868
0 0.958838 0.0939469 6.93042
0 0.958859 0.134726 11.8074
0 0.958816 0.0958983 6.9824
0 0.958845 0.0949583 7.34141
0 0.958818 0.0949373 6.55766
0 0.9588 0.0941751 6.23861
0 0.958852 0.0956897 6.4644
0 0.958835 0.100983 7.95597
0 0.95883 0.0970951 7.42019
0 0.958872 0.0948376 7.70415
0 0.958814 0.0945693 7.44331
0 0.958862 0.0941934 7.63184
0 0.958869 0.133337 9.07018
0 0.958826 0.0955211 7.89903
0 0.958831 0.0947195 7.99109
0 0.958832 0.0940147 6.49451
0 0.958829 0.0945576 7.04537
0 0.95882 0.0943757 7.04246
0 0.958837 0.0951014 8.24426
0 0.95887 0.0944953 8.18202
0 0.95884 0.0946928 5.9602
0 0.958849 0.0951984 8.04559
0 0.958842 0.0943237 6.3458
0 0.958856 0.0944462 6.55818
0 0.958807 0.0937701 6.52127
0 0.958818 0.134579 12.8599
0 0.958812 0.095241 6.31729
0 0.958837 0.0959837 6.62379
0 0.958818 0.0940127 7.44397
0 0.958858 0.095163 7.25732
0 0.958846 0.0957998 7.80055
0 0.958841 0.101978 5.07352
0 0.958818 0.0985063 9.36393
0 0.958869 0.0948157 7.63172
0 0.958815 0.0976761 7.96
0 0.95882 0.0948573 6.53001
0 0.958852 0.0943838 7.04384
0 0.958832 0.0939949 7.51124
0 0.958836 0.135834 14.0698
0 0.958836 0.0965547 5.79408
0 0.958832 0.0948693 7.23673
0 0.958814 0.0935933 6.45164
0 0.958824 0.093741 7.4432
0 0.958842 0.0950941 5.75239
0 0.958866 0.0969942 5.92154
0 0.958855 0.0944885 6.83925
0 0.958859 0.103781 7.64955
0 0.95884 0.097126 6.57263
0 0.958853 0.0981692 8.41915
0 0.958852 0.100683 7.05577
0 0.958824 0.0937356 7.87559
0 0.958824 0.0938691 6.71627
0 0.95881 0.134818 17.6618
0 0.958835 0.094776 6.52731
0 0.958846 0.0944924 6.62504
0 0.958852 0.094131 6.97486
0 0.958836 0.0945343 7.17332
0 0.958839 0.0969511 7.78128
0 0.958835 0.0951966 7.24214
0 0.958841 0.0935198 6.7059
0 0.958798 0.0931287 6.79718
0 0.958785 0.132085 14.358
0 0.958837 0.0958114 6.95392
0 0.958829 0.101054 9.69182
0 0.958835 0.096414 7.6294
0 0.958843 0.0945614 7.08002
0 0.958871 0.100782 4.51468
0 0.95884 0.0941967 7.10728
0 0.958843 0.0994806 7.55968
0 0.958858 0.095483 7.24466
0 0.958844 0.094939 7.158
0 0.958831 0.0963595 6.86244
0 0.958843 0.0934505 6.91408
0 0.958844 0.135463 12.4889
0 0.958843 0.0939585 7.18504
0 0.958849 0.0982907 7.335
0 0.958844 0.0951796 6.44048
0 0.958838 0.0953817 7.22864
0 0.958836 0.0968335 6.76439
0 0.958828 0.0944637 6.28765
0 0.958786 0.0931028 6.3095
0 0.958751 0.131967 10.9653
0 0.958847 0.0996414 8.40098
0 0.958851 0.10055 5.92954
0 0.958841 0.0982864 5.96494
0 0.958846 0.0932936 6.85866
0 0.958837 0.0952462 6.99517
0 0.958832 0.0943733 7.30108
0 0.958839 0.0954383 7.30436
0 0.95883 0.0982627 7.5152
0 0.958848 0.0938781 7.40039
0 0.958841 0.0933131 7.25501
0 0.958838 0.0929755 6.53675
0 0.958852 0.13526 12.4971
0 0.958842 0.100728 6.25595
0 0.95884 0.0947833 6.67
0 0.958831 0.0957032 6.95517
0 0.958817 0.0949762 7.30428
0 0.958806 0.0940219 5.99569
0 0.958782 0.135393 20.5107
0 0.958844 0.0940118 6.82993
0 0.958831 0.0955516 6.7899
0 0.958829 0.0966316 7.96088
0 0.958819 0.094679 6.84919
0 0.958824 0.0954326 7.66196
0 0.958839 0.0937442 6.95004
0 0.958847 0.0934349 7.22386
0 0.958846 0.0928775 6.93966
0 0.958832 0.132936 12.0653
0 0.958839 0.094673 7.30238
0 0.958831 0.0946348 7.33383
0 0.958839 0.0948666 7.02994
0 0.95883 0.0945081 7.94643
0 0.958816 0.135621 18.7968
0 0.958829 0.093013 7.00478
0 0.958831 0.0949784 7.50997
0 0.958827 0.0949988 6.5915
0 0.958833 0.0945252 6.78076
0 0.958839 0.093475 7.26655
0 0.958851 0.0930379 7.20292
0 0.958856 0.135743 12.2745
0 0.958837 0.0951432 7.20071
0 0.958849 0.0941366 6.83471
0 0.958861 0.0945586 7.16023
0 0.958852 0.134408 11.771
0 0.958845 0.094337 6.40198
0 0.958832 0.0940855 6.80148
0 0.958835 0.0943875 6.72713
0 0.958831 0.094307 6.76637
0 0.958836 0.0939248 7.04005
0 0.95884 0.0943129 6.60219
0 0.958848 0.13802 14.1337
0 0.958854 0.0938787 7.03267
0 0.958844 0.0930987 6.74981
0 0.958847 0.134238 7.41894
0 0.958848 0.0939638 7.73011
0 0.958836 0.100837 5.48209
0 0.958837 0.094358 7.20532
0 0.958847 0.0944474 7.50094
0 0.95885 0.134701 12.9205
0 0.958829 0.0934736 6.8974
0 0.958811 0.135217 12.3853
0 0.958829 0.0942415 6.87347
0 0.958836 0.0956828 7.00576
0 0.95885 0.133895 15.6692
0 0.958806 0.134329 15.6546
0 0.958822 0.134292 13.7813
VECTORS fa_u float
0.00696805 0.00279675 -0
0.00665352 0.00382543 -0
0.00338448 0.000919241 -0
0.00697212 0.00105888 -0
1e-08 0 0
0.00514874 0.00397017 -0
0.00277523 0.00269752 -0
1e-08 0 0
1e-08 0 0
0.00452072 0.00556762 -0
0.00495892 0.00837196 -0
0.00667054 0.000120233 -0
0.006168 -0.000684285 0
1e-08 0 0
1e-08 0 0
1e-08 0 0
1e-08 0 0
1e-08 0 0
1e-08 0 0
1e-08 0 0
1e-08 0 0
0.00283838 0.00698187 -0
0.0016289 0.00634528 -0
1e-08 0 0
1e-08 0 0
1e-08 0 0
0.00863376 -0.00219671 0
1e-08 0 0
0.0102451 -0.00445659 0
1e-08 0 0
1e-08 0 0
1e-08 0 0
0.000851728 0.0071689 -0
1e-08 0 0
1e-08 0 0
1e-08 0 0
1e-08 0 0
1e-08 0 0
1e-08 0 0
1e-08 0 0
1e-08 0 0
1e-08 0 0
1e-08 0 0
-0.000152195 0.00761959 -0
1e-08 0 0
1e-08 0 0
1e-08 0 0
0.00553236 -0.00347189 0
1e-08 0 0
0.00311033 -0.00249184 0
1e-08 0 0
1e-08 0 0
1e-08 0 0
1e-08 0 0
1e-08 0 0
1e-08 0 0
1e-08 0 0
1e-08 0 0
1e-08 0 0
1e-08 0 0
1e-08 0 0
1e-08 0 0
1e-08 0 0
-0.000624923 0.00433612 0
1e-08 0 0
1e-08 0 0
1e-08 0 0
1e-08 0 0
1e-08 0 0
0.00334943 -0.00332239 0
1e-08 0 0
0.00290244 -0.00358709 0
1e-08 0 0
1e-08 0 0
1e-08 0 0
1e-08 0 0
1e-08 0 0
1e-08 0 0
1e-08 0 0
1e-08 0 0
1e-08 0 0
1e-08 0 0
1e-08 0 0
1e-08 0 0
1e-08 0 0
-0.00141141 0.00540143 0
1e-08 0 0
1e-08 0 0
1e-08 0 0
1e-08 0 0
1e-08 0 0
1e-08 0 0
0.00535869 -0.00885066 0
1e-08 0 0
1e-08 0 0
1e-08 0 0
1e-08 0 0
1e-08 0 0
0.00347257 -0.00855647 0
1e-08 0 0
1e-08 0 0
1e-08 0 0
1e-08 0 0
1e-08 0 0
1e-08 0 0
1e-08 0 0
1e-08 0 0
1e-08 0 0
1e-08 0 0
-0.00280813 0.00693706 0
1e-08 0 0
1e-08 0 0
1e-08 0 0
1e-08 0 0
1e-08 0 0
1e-08 0 0
1e-08 0 0
1e-08 0 0
1e-08 0 0
1e-08 0 0
1e-08 0 0
1e-08 0 0
1e-08 0 0
1e-08 0 0
0.00141807 -0.00561092 0
1e-08 0 0
1e-08 0 0
1e-08 0 0
1e-08 0 0
1e-08 0 0
1e-08 0 0
1e-08 0 0
1e-08 0 0
1e-08 0 0
-0.00367585 0.00637639 0
1e-08 0 0
1e-08 0 0
1e-08 0 0
1e-08 0 0
1e-08 0 0
1e-08 0 0
1e-08 0 0
1e-08 0 0
1e-08 0 0
1e-08 0 0
1e-08 0 0
1e-08 0 0
1e-08 0 0
1e-08 0 0
1e-08 0 0
0.000552195 -0.00405164 0
1e-08 0 0
1e-08 0 0
1e-08 0 0
1e-08 0 0
1e-08 0 0
1e-08 0 0
1e-08 0 0
1e-08 0 0
1e-08 0 0
1e-08 0 0
-0.00458981 0.00590104 0
1e-08 0 0
1e-08 0 0
1e-08 0 0
1e-08 0 0
1e-08 0 0
1e-08 0 0
1e-08 0 0
1e-08 0 0
1e-08 0 0
1e-08 0 0
1e-08 0 0
1e-08 0 0
0.000102121 -0.00772961 0
1e-08 0 0
1e-08 0 0
1e-08 0 0
1e-08 0 0
1e-08 0 0
1e-08 0 0
1e-08 0 0
1e-08 0 0
1e-08 0 0
1e-08 0 0
1e-08 0 0
1e-08 0 0
-0.00251958 0.00255586 0
1e-08 0 0
1e-08 0 0
1e-08 0 0
1e-08 0 0
1e-08 0 0
1e-08 0 0
1e-08 0 0
1e-08 0 0
1e-08 0 0
1e-08 0 0
1e-08 0 0
1e-08 0 0
1e-08 0 0
-0.000855742 -0.00685867 0
1e-08 0 0
1e-08 0 0
1e-08 0 0
1e-08 0 0
1e-08 0 0
1e-08 0 0
1e-08 0 0
1e-08 0 0
-0.00483632 0.00392272 0
1e-08 0 0
1e-08 0 0
1e-08 0 0
1e-08 0 0
1e-08 0 0
1e-08 0 0
1e-08 0 0
1e-08 0 0
1e-08 0 0
1e-08 0 0
1e-08 0 0
-0.00163576 -0.0062594 0
1e-08 0 0
1e-08 0 0
1e-08 0 0
1e-08 0 0
1e-08 0 0
1e-08 0 0
1e-08 0 0
-0.00831225 0.00497186 0
1e-08 0 0
1e-08 0 0
1e-08 0 0
1e-08 0 0
1e-08 0 0
1e-08 0 0
1e-08 0 0
1e-08 0 0
1e-08 0 0
1e-08 0 0
1e-08 0 0
-0.00288749 -0.00702071 0
1e-08 0 0
1e-08 0 0
1e-08 0 0
1e-08 0 0
1e-08 0 0
-0.00726288 0.00297772 0
1e-08 0 0
1e-08 0 0
1e-08 0 0
1e-08 0 0
1e-08 0 0
1e-08 0 0
1e-08 0 0
1e-08 0 0
-0.00484962 -0.00812815 0
1e-08 0 0
1e-08 0 0
1e-08 0 0
1e-08 0 0
-0.00629428 0.00162832 0
1e-08 0 0
1e-08 0 0
1e-08 0 0
1e-08 0 0
1e-08 0 0
1e-08 0 0
-0.00363525 -0.00452042 0
1e-08 0 0
1e-08 0 0
1e-08 0 0
-0.00702885 0.000853571 0
1e-08 0 0
1e-08 0 0
1e-08 0 0
1e-08 0 0
1e-08 0 0
1e-08 0 0
-0.00281046 -0.00279279 0
1e-08 0 0
1e-08 0 0
-0.00821344 -0.000157889 0
1e-08 0 0
1e-08 0 0
1e-08 0 0
1e-08 0 0
-0.00596667 -0.00465225 0
1e-08 0 0
-0.00380991 -0.000544678 0
1e-08 0 0
1e-08 0 0
-0.00648836 -0.00374165 0
-0.00567917 -0.00146592 0
-0.00704121 -0.00284287 0
