# vtk DataFile Version 2.0
CellBP Time: 11.4
ASCII
DATASET UNSTRUCTURED_GRID
POINTS 296 double
-8.91879 -3.65088 0
-8.3634 -4.80092 0
-9.30758 -2.43135 0
-9.58537 -1.20744 0
-8.07745 -2.69986 0
-7.64764 -5.86362 0
-6.80124 -6.82526 0
-7.63677 -3.72081 0
-7.0801 -4.69226 0
-5.88121 -7.69293 0
-4.85714 -8.42476 0
-9.69494 0.0377087 0
-9.64061 1.3107 0
-8.39478 -1.61145 0
-8.55463 -0.502344 0
-7.32704 -1.90534 0
-6.94992 -2.77055 0
-6.42486 -5.60394 0
-5.65847 -6.43323 0
-6.52782 -3.73004 0
-5.99838 -4.51785 0
-3.71016 -8.98702 0
-2.48332 -9.38543 0
-4.79054 -7.14037 0
-3.84751 -7.73271 0
-8.56909 0.630448 0
-9.42403 2.58721 0
-8.42869 1.71854 0
-9.01562 3.80051 0
-7.49918 -0.87549 0
-7.56481 0.0929328 0
-6.72025 -1.25007 0
-1.21374 -9.62274 0
-6.22353 -2.05959 0
-6.09536 -2.93222 0
-5.3525 -5.31392 0
-4.65696 -5.95887 0
-5.45904 -3.62806 0
-5.08484 -4.4179 0
-2.81506 -8.1931 0
-1.74445 -8.44523 0
-3.83912 -6.57406 0
-3.00766 -7.01065 0
0.0560521 -9.6806 0
-7.49827 1.11718 0
-8.17489 2.85839 0
-7.35953 2.04741 0
-8.39989 4.91683 0
-7.69665 3.87071 0
-7.64237 5.95034 0
-6.56518 -0.368748 0
-6.74754 0.550882 0
-5.60516 -0.966992 0
-0.572211 -8.59306 0
0.549152 -8.52697 0
-5.14513 -2.39515 0
-4.33708 -4.95037 0
-3.78803 -5.63356 0
-4.30998 -3.69825 0
-2.02252 -7.40402 0
-1.11461 -7.60688 0
-2.92284 -5.96356 0
-2.27109 -6.48186 0
1.30695 -9.56053 0
-6.50877 1.38145 0
-6.97661 3.02359 0
-6.48082 2.30196 0
-7.09469 4.83638 0
-6.53754 3.88211 0
-6.8013 6.89425 0
-6.38829 5.71517 0
-5.85991 7.74978 0
-4.36361 -1.15823 0
-5.67056 0.491788 0
-4.56798 -0.0251958 0
-0.0115384 -7.63519 0
1.67432 -8.37469 0
0.89663 -7.53125 0
-3.95533 -2.34969 0
-3.45166 -1.37856 0
-3.21495 -4.69056 0
-3.21144 -3.19919 0
-1.36258 -6.52064 0
-0.522972 -6.84397 0
-1.94181 -5.42385 0
2.55332 -9.31343 0
-5.3738 1.99171 0
-5.93252 2.9775 0
-5.93477 4.71187 0
-5.60334 3.85971 0
-5.59218 6.51001 0
-5.29696 5.43965 0
-4.83545 8.50249 0
-4.69371 7.1707 0
-3.46077 -0.420151 0
-4.35494 1.22279 0
-3.64909 0.584428 0
-3.97472 2.2917 0
-3.70084 9.06969 0
2.74969 -8.03788 0
0.368166 -6.59175 0
1.92764 -7.27179 0
1.22693 -6.67901 0
-2.4266 -0.862388 0
-2.8104 -2.10306 0
-2.25978 -4.01778 0
-2.29555 -2.92078 0
-0.455177 -5.70899 0
-1.19787 -4.41919 0
3.76216 -8.92257 0
-4.66775 3.30389 0
-4.94752 4.4463 0
-4.50922 6.07632 0
-4.40736 5.18588 0
-3.74535 7.77605 0
-3.70714 6.61228 0
-2.70852 8.17894 0
-1.63065 -0.126181 0
-1.43546 -0.877462 0
-2.47089 0.516918 0
-3.19874 1.43676 0
-3.16926 3.25262 0
-2.86384 2.35686 0
-1.3506 0.639481 0
-2.48204 9.45287 0
3.78538 -7.60968 0
2.82288 -6.87737 0
0.896262 -5.64388 0
1.96799 -6.18669 0
-1.66592 -1.97289 0
-1.41276 -3.22817 0
0.0762194 -4.63934 0
-0.548553 -3.64097 0
4.76348 -7.05743 0
4.90289 -8.36758 0
-3.67895 4.43116 0
-3.62756 5.57368 0
-2.79314 7.05827 0
-2.92301 6.15733 0
-1.62104 8.49364 0
-1.87849 7.39969 0
-2.29552 3.96807 0
-0.723434 -1.31643 0
-0.8282 -0.24381 0
-1.93007 1.69039 0
-2.10005 2.85341 0
-1.29807 3.50293 0
-0.872192 1.36475 0
-0.284359 0.46869 0
-0.519482 8.6478 0
-1.22356 9.68779 0
1.06759 -4.44961 0
3.73986 -6.4307 0
2.8583 -5.85867 0
2.02846 -5.24117 0
4.61541 -5.95942 0
-0.546781 -2.4544 0
0.48702 -3.40495 0
0.0558037 -1.60367 0
1.4371 -3.58997 0
5.67985 -6.38622 0
5.96295 -7.65354 0
-2.41062 5.20727 0
-2.0583 6.34642 0
-0.874299 7.60105 0
-1.2208 6.74451 0
0.0929229 7.69118 0
-1.12629 4.40987 0
0.147686 -0.609012 0
-0.808206 2.49368 0
-0.346357 3.57193 0
0.0547304 1.52043 0
0.736641 0.478189 0
0.634751 8.67808 0
0.0414897 9.79831 0
2.30223 -4.14826 0
3.7183 -5.4134 0
2.88941 -5.02132 0
5.41442 -5.29543 0
4.5377 -5.07304 0
0.631444 -2.28292 0
1.23746 -2.89871 0
0.754889 -1.38432 0
2.11331 -3.06214 0
2.91981 -3.37419 0
6.00263 -4.64264 0
6.47565 -5.59527 0
6.91637 -6.79642 0
-0.983782 5.68003 0
-0.344997 6.70839 0
1.10016 7.60398 0
0.563211 6.92237 0
-0.00260929 4.6458 0
0.587141 3.78168 0
1.32881 -0.63845 0
0.519568 2.63787 0
0.948456 1.57705 0
1.89398 0.209762 0
1.5915 1.06318 0
2.09627 7.43933 0
1.76638 8.53027 0
1.32114 9.72855 0
3.70693 -4.19603 0
4.97464 -4.27616 0
5.70339 -3.80383 0
3.69507 -3.10341 0
1.79728 -1.87518 0
2.96204 -2.52404 0
6.63872 -3.83933 0
7.21603 -4.76976 0
7.78086 -5.86859 0
0.482847 5.75514 0
1.40968 6.60769 0
2.33417 6.5449 0
1.18605 4.48299 0
1.46283 3.35216 0
2.40599 -0.686758 0
2.79532 0.138707 0
1.76491 2.14588 0
2.58144 1.13874 0
3.02172 7.03018 0
2.85402 8.21117 0
2.58686 9.4854 0
4.79274 -3.21765 0
5.98618 -3.01427 0
4.09415 -2.22812 0
3.1965 -1.48315 0
6.60558 -2.2687 0
7.09729 -2.98391 0
7.80642 -3.83909 0
8.51784 -4.84729 0
1.99229 5.49739 0
3.00805 6.02331 0
2.33206 4.05669 0
2.38724 3.01594 0
3.47325 -0.451383 0
3.56802 0.616016 0
2.91997 2.25613 0
3.4849 1.50495 0
3.89657 5.76622 0
3.88979 6.64631 0
3.90754 7.78397 0
3.80997 9.08136 0
5.46649 -1.87586 0
4.43488 -1.10896 0
6.58111 -1.30831 0
7.44617 -1.99335 0
8.2271 -2.80811 0
9.08494 -3.70616 0
3.31866 4.76702 0
3.26238 3.32081 0
4.60875 0.135436 0
4.41861 1.28154 0
3.96014 2.38685 0
4.41127 5.01527 0
4.70578 6.03807 0
4.86266 7.21417 0
4.95157 8.51406 0
5.75915 -0.431926 0
6.845 -0.49071 0
7.60103 -1.06205 0
8.50283 -1.71185 0
9.48565 -2.48094 0
4.40552 3.72516 0
5.65777 1.04717 0
5.19823 2.45014 0
5.18097 4.47936 0
5.42821 5.36854 0
5.73146 6.50006 0
5.97368 7.78093 0
6.66125 0.42694 0
7.65825 -0.0330992 0
8.66491 -0.566228 0
9.72475 -1.21191 0
6.75131 1.28128 0
5.50988 3.64839 0
6.32438 2.10093 0
6.14902 2.96634 0
6.06279 4.53204 0
6.48019 5.66987 0
6.90863 6.92363 0
7.56771 0.928743 0
8.63271 0.559036 0
9.7877 0.063078 0
7.37741 1.92376 0
6.55627 3.7464 0
7.0081 2.82914 0
7.13421 4.72861 0
7.76673 5.97364 0
8.46547 1.67611 0
9.66464 1.31461 0
8.13887 2.73427 0
7.72729 3.78713 0
8.47993 4.91476 0
9.42368 2.56353 0
9.03534 3.77303 0
CELLS 542 2168
3 2 0 4
3 0 1 7
3 4 0 7
3 1 5 8
3 7 1 8
3 3 2 13
3 13 2 4
3 11 3 14
3 14 3 13
3 13 4 15
3 4 7 16
3 15 4 16
3 5 6 17
3 8 5 17
3 6 9 18
3 17 6 18
3 7 8 19
3 16 7 19
3 8 17 20
3 19 8 20
3 9 10 23
3 18 9 23
3 10 21 24
3 23 10 24
3 12 11 25
3 25 11 14
3 26 12 27
3 27 12 25
3 14 13 29
3 29 13 15
3 25 14 30
3 30 14 29
3 29 15 31
3 15 16 33
3 31 15 33
3 16 19 34
3 33 16 34
3 17 18 35
3 20 17 35
3 18 23 36
3 35 18 36
3 19 20 37
3 34 19 37
3 20 35 38
3 37 20 38
3 21 22 39
3 24 21 39
3 22 32 40
3 39 22 40
3 23 24 41
3 36 23 41
3 24 39 42
3 41 24 42
3 27 25 44
3 44 25 30
3 28 26 45
3 45 26 27
3 45 27 46
3 46 27 44
3 47 28 48
3 48 28 45
3 30 29 50
3 50 29 31
3 44 30 51
3 51 30 50
3 50 31 52
3 31 33 52
3 32 43 53
3 40 32 53
3 53 43 54
3 33 34 55
3 34 37 55
3 33 55 52
3 35 36 56
3 38 35 56
3 36 41 57
3 56 36 57
3 37 38 58
3 38 56 58
3 37 58 55
3 39 40 59
3 42 39 59
3 40 53 60
3 59 40 60
3 41 42 61
3 57 41 61
3 42 59 62
3 61 42 62
3 43 63 54
3 46 44 64
3 64 44 51
3 48 45 65
3 65 45 46
3 65 46 66
3 66 46 64
3 49 47 67
3 67 47 48
3 67 48 68
3 68 48 65
3 69 49 70
3 70 49 67
3 52 55 72
3 64 51 73
3 51 50 73
3 50 52 73
3 73 52 74
3 74 52 72
3 53 54 75
3 60 53 75
3 54 63 76
3 54 76 77
3 75 54 77
3 55 58 78
3 72 55 78
3 72 78 79
3 56 57 80
3 57 61 80
3 56 80 58
3 58 80 81
3 78 58 81
3 59 60 82
3 62 59 82
3 60 75 83
3 82 60 83
3 61 62 84
3 62 82 84
3 61 84 80
3 63 85 76
3 66 64 86
3 64 73 86
3 68 65 87
3 87 65 66
3 87 66 86
3 70 67 88
3 88 67 68
3 88 68 89
3 89 68 87
3 71 69 90
3 90 69 70
3 90 70 91
3 91 70 88
3 92 71 93
3 93 71 90
3 74 72 94
3 94 72 79
3 86 73 95
3 95 73 74
3 95 74 96
3 96 74 94
3 97 86 95
3 76 85 99
3 75 77 100
3 83 75 100
3 76 99 101
3 77 76 101
3 77 101 102
3 100 77 102
3 94 79 103
3 78 81 104
3 79 78 104
3 79 104 103
3 80 84 105
3 81 80 105
3 81 105 106
3 104 81 106
3 82 83 107
3 83 100 107
3 82 107 84
3 84 107 108
3 105 84 108
3 85 109 99
3 89 87 110
3 87 86 110
3 110 86 97
3 91 88 111
3 111 88 89
3 111 89 110
3 93 90 112
3 112 90 91
3 112 91 113
3 113 91 111
3 98 92 114
3 114 92 93
3 114 93 115
3 115 93 112
3 116 98 114
3 117 103 118
3 96 94 119
3 94 103 119
3 119 103 117
3 97 95 120
3 120 95 96
3 120 96 119
3 121 110 97
3 121 97 122
3 122 97 120
3 123 119 117
3 124 98 116
3 99 109 125
3 99 125 126
3 101 99 126
3 100 102 127
3 100 127 107
3 101 126 128
3 102 101 128
3 102 128 127
3 104 106 129
3 104 129 103
3 103 129 118
3 105 108 130
3 106 105 130
3 106 130 129
3 107 127 131
3 108 107 131
3 108 131 132
3 108 132 130
3 109 134 125
3 125 134 133
3 113 111 135
3 111 110 135
3 135 110 121
3 115 112 136
3 136 112 113
3 136 113 135
3 116 114 137
3 137 114 115
3 137 115 138
3 138 115 136
3 139 124 116
3 139 116 140
3 140 116 137
3 141 135 121
3 118 129 142
3 118 142 143
3 117 118 143
3 123 117 143
3 122 120 144
3 120 119 144
3 144 119 123
3 141 121 145
3 145 121 122
3 145 122 144
3 146 141 145
3 147 144 123
3 147 123 148
3 143 148 123
3 150 124 139
3 149 150 139
3 131 127 151
3 125 133 152
3 126 125 152
3 126 152 153
3 128 126 153
3 128 153 154
3 128 154 127
3 127 154 151
3 152 133 155
3 130 132 156
3 130 156 129
3 129 156 142
3 131 151 157
3 132 131 157
3 132 157 156
3 156 158 142
3 157 151 159
3 133 160 155
3 134 161 133
3 133 161 160
3 138 136 162
3 136 135 162
3 162 135 141
3 140 137 163
3 163 137 138
3 163 138 162
3 149 139 164
3 164 139 140
3 164 140 165
3 165 140 163
3 166 149 164
3 167 162 141
3 167 141 146
3 142 158 168
3 143 142 168
3 143 168 148
3 146 145 169
3 145 144 169
3 169 144 147
3 170 167 146
3 170 146 169
3 171 169 147
3 171 147 148
3 171 148 172
3 168 172 148
3 173 149 166
3 174 150 149
3 173 174 149
3 154 175 151
3 151 175 159
3 152 155 176
3 153 152 176
3 153 176 177
3 153 177 154
3 154 177 175
3 155 160 178
3 155 178 179
3 176 155 179
3 156 157 180
3 156 180 158
3 157 159 181
3 157 181 180
3 158 180 182
3 158 182 168
3 159 175 183
3 159 183 181
3 175 184 183
3 160 186 178
3 178 186 185
3 161 187 160
3 160 187 186
3 165 163 188
3 163 162 188
3 188 162 167
3 166 164 189
3 189 164 165
3 189 165 188
3 190 173 166
3 190 166 191
3 191 166 189
3 192 188 167
3 192 167 170
3 193 192 170
3 182 194 168
3 194 172 168
3 193 170 195
3 170 169 195
3 195 169 171
3 196 195 171
3 196 171 172
3 194 197 172
3 197 198 172
3 198 196 172
3 200 173 190
3 199 200 190
3 201 174 173
3 200 201 173
3 176 179 202
3 177 176 202
3 177 202 175
3 175 202 184
3 178 185 203
3 178 203 179
3 179 203 202
3 203 185 204
3 202 205 184
3 183 206 181
3 180 181 206
3 180 206 182
3 182 206 194
3 183 184 207
3 205 207 184
3 183 207 206
3 185 208 204
3 186 209 185
3 185 209 208
3 187 210 186
3 186 210 209
3 191 189 211
3 189 188 211
3 211 188 192
3 199 190 212
3 212 190 191
3 212 191 211
3 213 199 212
3 214 211 192
3 214 192 193
3 215 214 193
3 215 193 195
3 206 216 194
3 216 197 194
3 216 217 197
3 215 195 218
3 218 195 196
3 198 218 196
3 217 219 197
3 219 218 198
3 197 219 198
3 220 199 213
3 221 200 199
3 220 221 199
3 222 201 200
3 221 222 200
3 203 204 223
3 203 223 202
3 202 223 205
3 204 208 224
3 204 224 223
3 205 223 225
3 205 225 207
3 207 225 226
3 207 226 206
3 226 216 206
3 208 228 224
3 224 228 227
3 209 229 208
3 229 228 208
3 210 230 209
3 209 230 229
3 213 212 231
3 212 211 231
3 231 211 214
3 232 220 213
3 232 213 231
3 233 231 214
3 233 214 215
3 234 233 215
3 234 215 218
3 226 235 216
3 235 217 216
3 235 236 217
3 217 236 219
3 237 234 218
3 237 218 219
3 236 238 219
3 238 237 219
3 240 220 232
3 239 240 232
3 241 221 220
3 240 241 220
3 242 222 221
3 241 242 221
3 224 227 243
3 224 243 223
3 223 243 225
3 225 243 244
3 225 244 226
3 226 244 235
3 227 245 243
3 228 246 227
3 227 246 245
3 229 247 228
3 228 247 246
3 230 248 229
3 229 248 247
3 239 232 249
3 232 231 249
3 249 231 233
3 250 249 233
3 250 233 234
3 237 250 234
3 244 251 235
3 235 251 236
3 251 252 236
3 236 252 238
3 252 253 238
3 253 250 237
3 253 237 238
3 254 239 249
3 255 240 239
3 254 255 239
3 256 241 240
3 255 256 240
3 257 242 241
3 256 257 241
3 245 258 243
3 243 258 244
3 244 258 251
3 245 259 258
3 246 260 245
3 245 260 259
3 247 261 246
3 246 261 260
3 248 262 247
3 247 262 261
3 254 249 263
3 263 249 250
3 253 263 250
3 258 264 251
3 251 264 252
3 264 265 252
3 265 263 253
3 252 265 253
3 266 254 263
3 267 255 254
3 266 267 254
3 268 256 255
3 267 268 255
3 269 257 256
3 268 269 256
3 259 270 258
3 270 264 258
3 260 271 259
3 259 271 270
3 261 272 260
3 260 272 271
3 262 273 261
3 273 272 261
3 270 274 264
3 275 266 263
3 275 263 265
3 274 276 264
3 276 265 264
3 276 277 265
3 277 275 265
3 278 267 266
3 275 278 266
3 279 268 267
3 278 279 267
3 280 269 268
3 279 280 268
3 271 281 270
3 270 281 274
3 272 282 271
3 271 282 281
3 273 283 272
3 272 283 282
3 281 284 274
3 274 284 276
3 285 278 275
3 277 285 275
3 284 286 276
3 286 285 277
3 276 286 277
3 287 279 278
3 285 287 278
3 288 280 279
3 287 288 279
3 282 289 281
3 281 289 284
3 283 290 282
3 282 290 289
3 289 291 284
3 284 291 286
3 291 292 286
3 292 287 285
3 286 292 285
3 293 288 287
3 292 293 287
3 290 294 289
3 289 294 291
3 294 295 291
3 295 293 292
3 291 295 292
CELL_TYPES 542
5
5
5
5
5
5
5
5
5
5
5
5
5
5
5
5
5
5
5
5
5
5
5
5
5
5
5
5
5
5
5
5
5
5
5
5
5
5
5
5
5
5
5
5
5
5
5
5
5
5
5
5
5
5
5
5
5
5
5
5
5
5
5
5
5
5
5
5
5
5
5
5
5
5
5
5
5
5
5
5
5
5
5
5
5
5
5
5
5
5
5
5
5
5
5
5
5
5
5
5
5
5
5
5
5
5
5
5
5
5
5
5
5
5
5
5
5
5
5
5
5
5
5
5
5
5
5
5
5
5
5
5
5
5
5
5
5
5
5
5
5
5
5
5
5
5
5
5
5
5
5
5
5
5
5
5
5
5
5
5
5
5
5
5
5
5
5
5
5
5
5
5
5
5
5
5
5
5
5
5
5
5
5
5
5
5
5
5
5
5
5
5
5
5
5
5
5
5
5
5
5
5
5
5
5
5
5
5
5
5
5
5
5
5
5
5
5
5
5
5
5
5
5
5
5
5
5
5
5
5
5
5
5
5
5
5
5
5
5
5
5
5
5
5
5
5
5
5
5
5
5
5
5
5
5
5
5
5
5
5
5
5
5
5
5
5
5
5
5
5
5
5
5
5
5
5
5
5
5
5
5
5
5
5
5
5
5
5
5
5
5
5
5
5
5
5
5
5
5
5
5
5
5
5
5
5
5
5
5
5
5
5
5
5
5
5
5
5
5
5
5
5
5
5
5
5
5
5
5
5
5
5
5
5
5
5
5
5
5
5
5
5
5
5
5
5
5
5
5
5
5
5
5
5
5
5
5
5
5
5
5
5
5
5
5
5
5
5
5
5
5
5
5
5
5
5
5
5
5
5
5
5
5
5
5
5
5
5
5
5
5
5
5
5
5
5
5
5
5
5
5
5
5
5
5
5
5
5
5
5
5
5
5
5
5
5
5
5
5
5
5
5
5
5
5
5
5
5
5
5
5
5
5
5
5
5
5
5
5
5
5
5
5
5
5
5
5
5
5
5
5
5
5
5
5
5
5
5
5
5
5
5
5
5
5
5
5
5
5
5
5
5
5
5
5
5
5
5
5
5
5
5
5
5
5
5
5
5
5
5
5
5
5
5
5
5
5
5
5
5
5
5
5
5
5
5
5
5
5
5
5
5
5
5
5
5
5
5
5
5
5
5
5
5
5
5
5
5
5
5
5
5
5
5
5
5
5
5
5
5
5
5
POINT_DATA 296
SCALARS concentrations float 4
LOOKUP_TABLE default
0 0.948372 0.106391 7.2289
0 0.948387 0.112522 9.04814
0 0.948309 0.107495 13.1678
0 0.948328 0.106538 4.3012
0 0.948342 0.0929892 6.59317
0 0.948372 0.104815 10.3269
0 0.948385 0.107072 8.61211
0 0.948377 0.0941579 6.97328
0 0.948375 0.0940744 7.28074
0 0.948394 0.106601 7.84674
0 0.948436 0.110012 2.82831
0 0.94835 0.108011 8.33977
0 0.948339 0.103875 10.6159
0 0.94832 0.0931479 6.93927
0 0.948354 0.0925714 6.8832
0 0.948347 0.0939625 6.70014
0 0.948354 0.0938493 7.57244
0 0.948382 0.0933217 7.35234
0 0.948395 0.0926523 7.57678
0 0.948367 0.0938305 6.2983
0 0.948377 0.0933449 6.72253
0 0.948403 0.108591 6.7565
0 0.948373 0.109264 8.75888
0 0.948413 0.0923768 7.75804
0 0.948425 0.0925085 7.87579
0 0.94835 0.0932757 7.16831
0 0.948382 0.105239 8.73811
0 0.948363 0.0927513 6.97585
0 0.948398 0.106042 6.94733
0 0.948364 0.0931101 7.6212
0 0.948368 0.0932383 7.61627
0 0.948361 0.0936067 6.51867
0 0.948398 0.105325 6.79921
0 0.948352 0.0940226 7.60382
0 0.948365 0.0938499 8.09486
0 0.94839 0.0928381 7.54663
0 0.9484 0.0927964 7.66133
0 0.948372 0.0937031 6.74176
0 0.948375 0.0934406 7.64145
0 0.948389 0.0924538 7.80213
0 0.948398 0.0925088 7.56927
0 0.948405 0.0935318 7.63103
0 0.948403 0.0936283 7.50541
0 0.948345 0.10826 10.7425
0 0.948363 0.0940112 7.44822
0 0.948393 0.0932489 7.55961
0 0.948369 0.0952621 7.79246
0 0.948382 0.104941 7.16674
0 0.94838 0.0938651 7.83895
0 0.948373 0.106287 5.6681
0 0.948374 0.0947685 7.64537
0 0.948376 0.0935953 7.43076
0 0.948359 0.0943375 6.2638
0 0.948387 0.0926561 7.21108
0 0.948341 0.0930135 7.58242
0 0.948366 0.0947609 7.41679
0 0.948379 0.093317 7.76653
0 0.948384 0.093204 7.83912
0 0.948371 0.0944261 6.64298
0 0.948397 0.0944079 7.46718
0 0.948391 0.0927181 7.69401
0 0.948384 0.0929491 6.44345
0 0.948386 0.0939636 8.01812
0 0.948346 0.112288 14.3199
0 0.948367 0.0940827 7.51301
0 0.948373 0.0946814 6.52782
0 0.948356 0.0938001 7.80693
0 0.948376 0.0927212 7.16048
0 0.948372 0.0931616 7.53486
0 0.948322 0.107093 11.1869
0 0.948352 0.093032 6.97993
0 0.948294 0.103867 5.20409
0 0.948359 0.0969833 8.46197
0 0.948372 0.0939285 6.6328
0 0.948358 0.0946031 5.88545
0 0.948367 0.0929862 7.81336
0 0.948365 0.09343 7.7612
0 0.948351 0.0926504 6.94401
0 0.948366 0.0953878 5.82993
0 0.948358 0.0968344 9.35382
0 0.94837 0.0934097 7.61297
0 0.948366 0.0954023 8.47211
0 0.94838 0.0934043 6.20596
0 0.948371 0.0931778 6.57637
0 0.948369 0.0957986 6.074
0 0.948388 0.106588 5.26837
0 0.948366 0.0939148 7.69653
0 0.94836 0.094267 7.58344
0 0.948362 0.0934253 7.24358
0 0.948364 0.0938838 7.40063
0 0.948319 0.0926357 7.31821
0 0.948351 0.0930292 7.21463
0 0.948284 0.109356 18.1584
0 0.948297 0.0942385 6.76641
0 0.948356 0.0944449 8.37785
0 0.948367 0.0935399 7.9833
0 0.948352 0.0935408 7.80674
0 0.948362 0.0942294 7.55331
0 0.94832 0.105553 7.49194
0 0.94837 0.0945265 8.14837
0 0.948355 0.0930671 7.711
0 0.948355 0.0938699 7.79079
0 0.948346 0.0936313 6.24093
0 0.948359 0.0943079 6.80927
0 0.948363 0.0944055 8.35226
0 0.948361 0.0949478 6.07492
0 0.948366 0.0955756 6.15859
0 0.94836 0.0940057 7.86437
0 0.948358 0.0945564 8.05453
0 0.948364 0.107357 9.61341
0 0.948357 0.093205 7.62513
0 0.948359 0.0933393 7.60929
0 0.948328 0.0942515 7.19269
0 0.948358 0.0942491 6.58976
0 0.948304 0.0944954 6.54488
0 0.948316 0.0951727 6.51729
0 0.948334 0.0948761 7.46992
0 0.948359 0.0944943 8.51994
0 0.948355 0.0954425 8.87814
0 0.948356 0.0936856 7.37427
0 0.948357 0.0927123 7.83521
0 0.948353 0.092223 7.46064
0 0.948354 0.0948027 6.17733
0 0.948364 0.0945068 6.9101
0 0.948327 0.102464 7.15943
0 0.948348 0.0944293 6.26051
0 0.94835 0.0958083 5.51769
0 0.948352 0.0932271 7.0389
0 0.948346 0.0932663 6.95008
0 0.948363 0.0949863 5.63289
0 0.94836 0.0943888 5.75942
0 0.94836 0.0937923 7.95092
0 0.94836 0.0942758 6.4148
0 0.948353 0.0942839 6.84152
0 0.948363 0.111772 11.9955
0 0.948356 0.0931202 7.51547
0 0.948339 0.0944112 7.2081
0 0.948334 0.0950853 7.23859
0 0.948344 0.0955846 7.96613
0 0.948324 0.0922892 7.4616
0 0.948342 0.0930387 7.56494
0 0.948351 0.0949414 6.23721
0 0.948347 0.0948354 5.88727
0 0.948353 0.0950665 8.6773
0 0.94836 0.0937377 6.64772
0 0.948353 0.0963792 7.09204
0 0.948356 0.0946152 7.35067
0 0.948361 0.0956902 7.09688
0 0.948356 0.0952636 6.23651
0 0.948326 0.0933528 6.41885
0 0.948292 0.114199 11.7587
0 0.94836 0.0949762 6.57458
0 0.948344 0.0954798 6.03585
0 0.94835 0.0941717 7.55916
0 0.948355 0.0939092 7.11301
0 0.948348 0.0935841 7.22961
0 0.948356 0.0945027 5.82398
0 0.94836 0.094159 7.50728
0 0.948349 0.0952342 6.05966
0 0.948357 0.0956321 7.93578
0 0.948317 0.0938884 6.36054
0 0.948324 0.106257 16.1102
0 0.948348 0.0933943 7.18872
0 0.948353 0.0923675 6.99357
0 0.948349 0.0933126 7.70886
0 0.948352 0.0944188 8.223
0 0.948359 0.0938927 7.78974
0 0.948345 0.0957983 7.05679
0 0.948349 0.0964156 7.16305
0 0.948357 0.0962143 8.45921
0 0.948348 0.0959518 8.20291
0 0.948351 0.0933327 6.57206
0 0.948352 0.0944518 7.9076
0 0.94836 0.0931862 6.89162
0 0.948323 0.106216 12.6736
0 0.948364 0.0942018 6.43192
0 0.948362 0.0951224 6.51304
0 0.94837 0.0947914 7.63005
0 0.948355 0.0938551 7.77742
0 0.948362 0.0945651 6.36655
0 0.948354 0.0969279 6.47566
0 0.948348 0.0949642 6.1972
0 0.948354 0.0958345 7.91713
0 0.948354 0.0952166 6.40926
0 0.948364 0.094753 7.81501
0 0.948368 0.0943307 8.27989
0 0.948358 0.0935154 6.59441
0 0.948317 0.108812 10.0354
0 0.948345 0.0934756 6.99706
0 0.948354 0.0942851 6.98917
0 0.948367 0.0939824 7.70125
0 0.948354 0.0936927 6.27076
0 0.948337 0.0927934 7.22275
0 0.948343 0.0930141 7.18785
0 0.948358 0.0952386 8.01001
0 0.948353 0.0932578 7.73936
0 0.948353 0.0936766 7.01614
0 0.948365 0.0934802 7.31782
0 0.948357 0.0941125 7.53277
0 0.948374 0.0942435 8.42316
0 0.948409 0.0933202 6.67771
0 0.948393 0.106948 3.5772
0 0.948368 0.0947835 8.26548
0 0.948363 0.0946785 7.43948
0 0.948366 0.0946169 7.39071
0 0.948363 0.0940926 7.87728
0 0.94836 0.0968655 7.77238
0 0.948367 0.0942223 7.97769
0 0.948366 0.094582 8.40827
0 0.948386 0.0934966 7.05985
0 0.948384 0.105543 7.56515
0 0.948346 0.0935444 7.96865
0 0.948353 0.0943979 8.38473
0 0.948357 0.0940801 8.2345
0 0.948346 0.094335 6.2731
0 0.948359 0.0948326 6.90402
0 0.948372 0.0934861 6.54051
0 0.948379 0.0937242 7.5688
0 0.948361 0.093622 6.24619
0 0.948361 0.0960265 9.31629
0 0.948364 0.0939236 7.70833
0 0.948403 0.0931692 7.37254
0 0.948441 0.107204 9.85192
0 0.948359 0.0944436 6.23469
0 0.948358 0.094136 8.39661
0 0.948362 0.0941493 6.17608
0 0.948371 0.093571 8.09397
0 0.94836 0.097832 8.38241
0 0.94837 0.0943918 8.43075
0 0.948402 0.0937373 6.27618
0 0.948425 0.113698 7.46607
0 0.948356 0.0950556 8.56966
0 0.948355 0.0941979 8.2566
0 0.948364 0.0955637 5.71437
0 0.94837 0.0944061 6.84985
0 0.948374 0.0936162 7.9943
0 0.948367 0.094062 8.62084
0 0.948349 0.0974594 7.01661
0 0.948344 0.09483 8.40423
0 0.948343 0.0930765 6.95458
0 0.948345 0.0933308 7.56679
0 0.948369 0.0936623 6.53493
0 0.948398 0.105293 7.61227
0 0.948358 0.0944414 8.02285
0 0.948365 0.094844 8.51908
0 0.948348 0.0970951 8.59187
0 0.948366 0.0950971 5.99958
0 0.948389 0.0939127 7.27177
0 0.948416 0.105698 9.08283
0 0.948361 0.0933366 7.24683
0 0.948365 0.0940955 7.17739
0 0.948354 0.0945017 8.50377
0 0.948349 0.0955266 7.53276
0 0.948349 0.0937839 6.41747
0 0.948336 0.0936992 7.67452
0 0.948336 0.0928272 7.13053
0 0.948329 0.0929439 6.98033
0 0.948351 0.1022 10.3795
0 0.948346 0.0971943 5.29014
0 0.948343 0.0948608 6.51875
0 0.948354 0.0948209 6.29648
0 0.948388 0.0937145 7.25436
0 0.9484 0.105383 6.90722
0 0.948352 0.0942096 8.21536
0 0.94834 0.0945539 6.19685
0 0.948356 0.0937145 8.09146
0 0.948343 0.0938065 6.95496
0 0.948344 0.0937469 7.69425
0 0.948339 0.0934242 6.8536
0 0.94832 0.106537 8.69783
0 0.948333 0.0951826 5.95734
0 0.948358 0.0936943 6.23491
0 0.948401 0.0933292 7.61424
0 0.948416 0.103363 5.64785
0 0.948333 0.0938057 6.41166
0 0.948362 0.0946057 7.7585
0 0.94836 0.0949905 8.3022
0 0.948367 0.095032 8.35666
0 0.948359 0.0944288 8.2598
0 0.948335 0.0937176 7.67834
0 0.948329 0.112034 9.31654
0 0.94835 0.0937901 6.95016
0 0.948388 0.0931806 7.01898
0 0.948433 0.107463 7.96062
0 0.948368 0.0939899 6.87
0 0.948373 0.0934955 7.24951
0 0.948372 0.0931511 7.39531
0 0.948362 0.0945727 8.35726
0 0.948331 0.102048 6.54813
0 0.948377 0.0933157 7.15346
0 0.94838 0.10687 10.9655
0 0.948409 0.0934614 6.87244
0 0.9484 0.0943948 7.89714
0 0.948394 0.103393 9.04673
0 0.948398 0.108185 5.07915
0 0.948427 0.107055 9.09484
VECTORS fa_u float
0.00722202 0.00287767 -0
0.0068859 0.00395575 -0
0.00277263 0.00075638 -0
0.00720451 0.0011303 -0
1e-08 0 0
0.00512416 0.00395426 -0
0.00243604 0.0023523 -0
1e-08 0 0
1e-08 0 0
0.00461491 0.00560916 -0
0.00544515 0.00913515 -0
0.00671444 0.000147279 -0
0.00606749 -0.000644736 0
1e-08 0 0
1e-08 0 0
1e-08 0 0
1e-08 0 0
1e-08 0 0
1e-08 0 0
1e-08 0 0
1e-08 0 0
0.00292521 0.00722825 -0
0.00159041 0.00624543 -0
1e-08 0 0
1e-08 0 0
1e-08 0 0
0.00919447 -0.00230798 0
1e-08 0 0
0.0114479 -0.00503268 0
1e-08 0 0
1e-08 0 0
1e-08 0 0
0.000870158 0.00748598 -0
1e-08 0 0
1e-08 0 0
1e-08 0 0
1e-08 0 0
1e-08 0 0
1e-08 0 0
1e-08 0 0
1e-08 0 0
1e-08 0 0
1e-08 0 0
-0.000193836 0.00785494 -0
1e-08 0 0
1e-08 0 0
1e-08 0 0
0.00542112 -0.00346285 0
1e-08 0 0
0.00277178 -0.00224076 0
1e-08 0 0
1e-08 0 0
1e-08 0 0
1e-08 0 0
1e-08 0 0
1e-08 0 0
1e-08 0 0
1e-08 0 0
1e-08 0 0
1e-08 0 0
1e-08 0 0
1e-08 0 0
1e-08 0 0
-0.000574745 0.00390911 0
1e-08 0 0
1e-08 0 0
1e-08 0 0
1e-08 0 0
1e-08 0 0
0.00309872 -0.0030695 0
1e-08 0 0
0.00268596 -0.00328322 0
1e-08 0 0
1e-08 0 0
1e-08 0 0
1e-08 0 0
1e-08 0 0
1e-08 0 0
1e-08 0 0
1e-08 0 0
1e-08 0 0
1e-08 0 0
1e-08 0 0
1e-08 0 0
1e-08 0 0
-0.00135108 0.00519962 0
1e-08 0 0
1e-08 0 0
1e-08 0 0
1e-08 0 0
1e-08 0 0
1e-08 0 0
0.00590566 -0.00966027 0
1e-08 0 0
1e-08 0 0
1e-08 0 0
1e-08 0 0
1e-08 0 0
0.00369695 -0.00915463 0
1e-08 0 0
1e-08 0 0
1e-08 0 0
1e-08 0 0
1e-08 0 0
1e-08 0 0
1e-08 0 0
1e-08 0 0
1e-08 0 0
1e-08 0 0
-0.00287412 0.00713957 0
1e-08 0 0
1e-08 0 0
1e-08 0 0
1e-08 0 0
1e-08 0 0
1e-08 0 0
1e-08 0 0
1e-08 0 0
1e-08 0 0
1e-08 0 0
1e-08 0 0
1e-08 0 0
1e-08 0 0
1e-08 0 0
0.00136025 -0.00545172 0
1e-08 0 0
1e-08 0 0
1e-08 0 0
1e-08 0 0
1e-08 0 0
1e-08 0 0
1e-08 0 0
1e-08 0 0
1e-08 0 0
-0.00382762 0.00663797 0
1e-08 0 0
1e-08 0 0
1e-08 0 0
1e-08 0 0
1e-08 0 0
1e-08 0 0
1e-08 0 0
1e-08 0 0
1e-08 0 0
1e-08 0 0
1e-08 0 0
1e-08 0 0
1e-08 0 0
1e-08 0 0
1e-08 0 0
0.000503577 -0.00367879 0
1e-08 0 0
1e-08 0 0
1e-08 0 0
1e-08 0 0
1e-08 0 0
1e-08 0 0
1e-08 0 0
1e-08 0 0
1e-08 0 0
1e-08 0 0
-0.0046557 0.00596638 0
1e-08 0 0
1e-08 0 0
1e-08 0 0
1e-08 0 0
1e-08 0 0
1e-08 0 0
1e-08 0 0
1e-08 0 0
1e-08 0 0
1e-08 0 0
1e-08 0 0
1e-08 0 0
0.00012533 -0.0078253 0
1e-08 0 0
1e-08 0 0
1e-08 0 0
1e-08 0 0
1e-08 0 0
1e-08 0 0
1e-08 0 0
1e-08 0 0
1e-08 0 0
1e-08 0 0
1e-08 0 0
1e-08 0 0
-0.00214646 0.0021861 0
1e-08 0 0
1e-08 0 0
1e-08 0 0
1e-08 0 0
1e-08 0 0
1e-08 0 0
1e-08 0 0
1e-08 0 0
1e-08 0 0
1e-08 0 0
1e-08 0 0
1e-08 0 0
1e-08 0 0
-0.000865983 -0.0070444 0
1e-08 0 0
1e-08 0 0
1e-08 0 0
1e-08 0 0
1e-08 0 0
1e-08 0 0
1e-08 0 0
1e-08 0 0
-0.00476011 0.00391107 0
1e-08 0 0
1e-08 0 0
1e-08 0 0
1e-08 0 0
1e-08 0 0
1e-08 0 0
1e-08 0 0
1e-08 0 0
1e-08 0 0
1e-08 0 0
1e-08 0 0
-0.0016262 -0.00625372 0
1e-08 0 0
1e-08 0 0
1e-08 0 0
1e-08 0 0
1e-08 0 0
1e-08 0 0
1e-08 0 0
-0.00902497 0.00544262 0
1e-08 0 0
1e-08 0 0
1e-08 0 0
1e-08 0 0
1e-08 0 0
1e-08 0 0
1e-08 0 0
1e-08 0 0
1e-08 0 0
1e-08 0 0
1e-08 0 0
-0.0029827 -0.00726128 0
1e-08 0 0
1e-08 0 0
1e-08 0 0
1e-08 0 0
1e-08 0 0
-0.00757188 0.00309681 0
1e-08 0 0
1e-08 0 0
1e-08 0 0
1e-08 0 0
1e-08 0 0
1e-08 0 0
1e-08 0 0
1e-08 0 0
-0.0052454 -0.00872755 0
1e-08 0 0
1e-08 0 0
1e-08 0 0
1e-08 0 0
-0.00630777 0.00161803 0
1e-08 0 0
1e-08 0 0
1e-08 0 0
1e-08 0 0
1e-08 0 0
1e-08 0 0
-0.003577 -0.0044016 0
1e-08 0 0
1e-08 0 0
1e-08 0 0
-0.00721853 0.00085706 0
1e-08 0 0
1e-08 0 0
1e-08 0 0
1e-08 0 0
1e-08 0 0
1e-08 0 0
-0.00246056 -0.00244117 0
1e-08 0 0
1e-08 0 0
-0.00852655 -0.000202848 0
1e-08 0 0
1e-08 0 0
1e-08 0 0
1e-08 0 0
-0.00617454 -0.00482962 0
1e-08 0 0
-0.00334709 -0.000487274 0
1e-08 0 0
1e-08 0 0
-0.00664091 -0.00382835 0
-0.00547918 -0.00140256 0
-0.00734377 -0.00294769 0
