# vtk DataFile Version 2.0
CellBP Time: 0.48
ASCII
DATASET UNSTRUCTURED_GRID
POINTS 296 double
-9.18663 -3.77581 0
-8.60872 -4.9488 0
-9.60673 -2.53712 0
-9.86181 -1.25472 0
-8.3569 -2.81784 0
-7.88128 -6.03588 0
-7.0188 -7.01887 0
-7.91555 -3.87441 0
-7.34107 -4.86745 0
-6.03662 -7.88227 0
-4.94896 -8.60814 0
-9.94779 0.0498638 0
-9.8622 1.3548 0
-8.6573 -1.6838 0
-8.78611 -0.529855 0
-7.58807 -2.00411 0
-7.2241 -2.90622 0
-6.63625 -5.77854 0
-5.82163 -6.59715 0
-6.7887 -3.88865 0
-6.22024 -4.6751 0
-3.77619 -9.18665 0
-2.5374 -9.60717 0
-4.90701 -7.30873 0
-3.91268 -7.88655 0
-8.79276 0.642651 0
-9.6076 2.63777 0
-8.6235 1.77341 0
-9.18696 3.87612 0
-7.74294 -0.92867 0
-7.79415 0.0802759 0
-6.95118 -1.31543 0
-1.25479 -9.86213 0
-6.44014 -2.1527 0
-6.31853 -3.05527 0
-5.53646 -5.47354 0
-4.79605 -6.11456 0
-5.6589 -3.756 0
-5.26933 -4.56064 0
-2.86608 -8.36449 0
-1.77927 -8.63969 0
-3.92869 -6.72327 0
-3.05647 -7.15243 0
0.0500424 -9.94802 0
-7.70564 1.14342 0
-8.33852 2.91529 0
-7.55163 2.11157 0
-8.60785 5.04858 0
-7.88023 3.97761 0
-7.88149 6.13616 0
-6.77787 -0.396565 0
-6.95649 0.552589 0
-5.77141 -1.00382 0
-0.591208 -8.80985 0
0.565273 -8.77085 0
-5.30268 -2.48038 0
-4.4921 -5.0949 0
-3.90277 -5.77452 0
-4.43867 -3.804 0
-2.06082 -7.56184 0
-1.13407 -7.78579 0
-2.99478 -6.10247 0
-2.3077 -6.61962 0
1.35492 -9.86196 0
-6.68914 1.42242 0
-7.1717 3.1177 0
-6.65854 2.37289 0
-7.29443 4.98884 0
-6.71808 4.00314 0
-7.01915 7.11927 0
-6.57185 5.89389 0
-6.03561 7.98107 0
-4.453 -1.18104 0
-5.81469 0.514004 0
-4.65642 -0.0105058 0
0.0093583 -7.8481 0
1.73792 -8.64354 0
0.949415 -7.76327 0
-4.03855 -2.40638 0
-3.48645 -1.39115 0
-3.29509 -4.80562 0
-3.26604 -3.26772 0
-1.37725 -6.67544 0
-0.507724 -7.02493 0
-1.97615 -5.5368 0
2.63747 -9.60651 0
-5.50717 2.03685 0
-6.09484 3.07251 0
-6.10467 4.86963 0
-5.76165 3.99166 0
-5.76087 6.71669 0
-5.45177 5.61899 0
-4.94904 8.70879 0
-4.83797 7.40395 0
-3.50227 -0.423558 0
-4.44953 1.24929 0
-3.71176 0.592488 0
-4.06214 2.32047 0
-3.77609 9.28688 0
2.86154 -8.33228 0
0.420255 -6.7953 0
2.02234 -7.52542 0
1.30624 -6.9053 0
-2.44352 -0.874054 0
-2.83873 -2.13161 0
-2.29472 -4.09747 0
-2.32624 -2.97394 0
-0.44254 -5.86166 0
-1.22315 -4.50012 0
3.87585 -9.18603 0
-4.79026 3.39221 0
-5.08753 4.59373 0
-4.64693 6.28018 0
-4.53927 5.35925 0
-3.8434 7.99295 0
-3.82627 6.84473 0
-2.78331 8.42167 0
-1.64833 -0.137863 0
-1.44966 -0.890984 0
-2.48833 0.507461 0
-3.25398 1.4449 0
-3.23972 3.31722 0
-2.91115 2.37312 0
-1.35427 0.627418 0
-2.53766 9.707 0
3.93274 -7.88645 0
2.96398 -7.15663 0
0.953085 -5.82173 0
2.07313 -6.41494 0
-1.68355 -1.99283 0
-1.4347 -3.27827 0
0.0895479 -4.74751 0
-0.566493 -3.69565 0
4.93148 -7.3181 0
5.04874 -8.60802 0
-3.7776 4.55108 0
-3.73497 5.75145 0
-2.88766 7.28948 0
-3.00942 6.3524 0
-1.66301 8.7331 0
-1.93972 7.61947 0
-2.33916 4.05163 0
-0.730203 -1.32795 0
-0.835912 -0.257587 0
-1.93521 1.68127 0
-2.12581 2.87715 0
-1.30702 3.54572 0
-0.868358 1.35084 0
-0.281374 0.456479 0
-0.533466 8.8711 0
-1.25483 9.96193 0
1.11233 -4.57422 0
3.90903 -6.7162 0
2.98686 -6.09363 0
2.11742 -5.42405 0
4.78384 -6.20476 0
-0.558629 -2.47819 0
0.494712 -3.46421 0
0.0539596 -1.61114 0
1.48221 -3.68263 0
5.86671 -6.6137 0
6.13605 -7.88139 0
-2.47545 5.34768 0
-2.13029 6.5333 0
-0.903805 7.80374 0
-1.27189 6.93101 0
0.0867542 7.88103 0
-1.14457 4.49487 0
0.151168 -0.617492 0
-0.797002 2.48921 0
-0.331527 3.60147 0
0.0637922 1.51374 0
0.742409 0.473888 0
0.646444 8.87405 0
0.0501265 10.0482 0
2.38113 -4.28538 0
3.85846 -5.64033 0
3.0013 -5.21235 0
5.5737 -5.49211 0
4.69055 -5.28256 0
0.629838 -2.29439 0
1.25634 -2.95208 0
0.757966 -1.3917 0
2.16423 -3.13597 0
2.99409 -3.47649 0
6.15567 -4.79231 0
6.65553 -5.76888 0
7.11941 -7.01903 0
-1.01958 5.8198 0
-0.37238 6.88359 0
1.1233 7.76961 0
0.558342 7.08038 0
0.000109511 4.72511 0
0.606873 3.82901 0
1.33965 -0.642253 0
0.539221 2.65221 0
0.966813 1.57586 0
1.91126 0.21355 0
1.61579 1.06498 0
2.1302 7.58377 0
1.79894 8.71261 0
1.3552 9.96232 0
3.82214 -4.35176 0
5.11653 -4.44939 0
5.84593 -3.93576 0
3.78414 -3.20136 0
1.81288 -1.88353 0
3.01975 -2.57447 0
6.78459 -3.94808 0
7.38238 -4.89673 0
7.98214 -6.03629 0
0.483183 5.88121 0
1.42884 6.74225 0
2.37429 6.66974 0
1.20974 4.55735 0
1.48809 3.39899 0
2.43662 -0.693043 0
2.82905 0.141932 0
1.78928 2.16419 0
2.61275 1.1501 0
3.07236 7.1706 0
2.9042 8.37743 0
2.63764 9.70682 0
4.91182 -3.32843 0
6.12117 -3.10955 0
4.17273 -2.27606 0
3.24461 -1.50398 0
6.73243 -2.31367 0
7.23309 -3.04263 0
7.96579 -3.91367 0
8.70835 -4.94895 0
2.02393 5.6002 0
3.08704 6.1541 0
2.36439 4.12754 0
2.42012 3.06198 0
3.52628 -0.461897 0
3.61688 0.613256 0
2.96185 2.28889 0
3.54646 1.52554 0
4.01315 5.89911 0
3.98562 6.79451 0
3.97468 7.94055 0
3.87624 9.28682 0
5.56965 -1.91679 0
4.50978 -1.13062 0
6.7152 -1.33656 0
7.59395 -2.03644 0
8.39884 -2.86127 0
9.28682 -3.77605 0
3.42003 4.87758 0
3.33937 3.38604 0
4.69238 0.129916 0
4.52031 1.31063 0
4.06543 2.44498 0
4.57129 5.15393 0
4.84501 6.19244 0
4.98145 7.38276 0
5.04931 8.70864 0
5.88474 -0.435173 0
7.0126 -0.487869 0
7.76124 -1.08545 0
8.68726 -1.74584 0
9.7073 -2.53754 0
4.55298 3.82822 0
5.81893 1.09838 0
5.37176 2.536 0
5.38078 4.62218 0
5.61329 5.52546 0
5.89869 6.67398 0
6.1357 7.98093 0
6.84752 0.463285 0
7.85598 -0.025374 0
8.86334 -0.583908 0
9.96174 -1.25476 0
6.96196 1.34921 0
5.72226 3.77964 0
6.54281 2.19848 0
6.38153 3.08893 0
6.29365 4.68866 0
6.69519 5.83883 0
7.11903 7.11904 0
7.78691 0.967375 0
8.86227 0.572086 0
10.0479 0.0501544 0
7.61865 2.00457 0
6.83045 3.90555 0
7.27104 2.94799 0
7.3797 4.88773 0
7.98197 6.13642 0
8.72559 1.72762 0
9.96097 1.35463 0
8.42298 2.83738 0
7.98324 3.91643 0
8.70784 5.04856 0
9.70662 2.6374 0
9.2863 3.87579 0
CELLS 542 2168
3 2 0 4
3 0 1 7
3 4 0 7
3 1 5 8
3 7 1 8
3 3 2 13
3 13 2 4
3 11 3 14
3 14 3 13
3 13 4 15
3 4 7 16
3 15 4 16
3 5 6 17
3 8 5 17
3 6 9 18
3 17 6 18
3 7 8 19
3 16 7 19
3 8 17 20
3 19 8 20
3 9 10 23
3 18 9 23
3 10 21 24
3 23 10 24
3 12 11 25
3 25 11 14
3 26 12 27
3 27 12 25
3 14 13 29
3 29 13 15
3 25 14 30
3 30 14 29
3 29 15 31
3 15 16 33
3 31 15 33
3 16 19 34
3 33 16 34
3 17 18 35
3 20 17 35
3 18 23 36
3 35 18 36
3 19 20 37
3 34 19 37
3 20 35 38
3 37 20 38
3 21 22 39
3 24 21 39
3 22 32 40
3 39 22 40
3 23 24 41
3 36 23 41
3 24 39 42
3 41 24 42
3 27 25 44
3 44 25 30
3 28 26 45
3 45 26 27
3 45 27 46
3 46 27 44
3 47 28 48
3 48 28 45
3 30 29 50
3 50 29 31
3 44 30 51
3 51 30 50
3 50 31 52
3 31 33 52
3 32 43 53
3 40 32 53
3 53 43 54
3 33 34 55
3 34 37 55
3 33 55 52
3 35 36 56
3 38 35 56
3 36 41 57
3 56 36 57
3 37 38 58
3 38 56 58
3 37 58 55
3 39 40 59
3 42 39 59
3 40 53 60
3 59 40 60
3 41 42 61
3 57 41 61
3 42 59 62
3 61 42 62
3 43 63 54
3 46 44 64
3 64 44 51
3 48 45 65
3 65 45 46
3 65 46 66
3 66 46 64
3 49 47 67
3 67 47 48
3 67 48 68
3 68 48 65
3 69 49 70
3 70 49 67
3 52 55 72
3 64 51 73
3 51 50 73
3 50 52 73
3 73 52 74
3 74 52 72
3 53 54 75
3 60 53 75
3 54 63 76
3 54 76 77
3 75 54 77
3 55 58 78
3 72 55 78
3 72 78 79
3 56 57 80
3 57 61 80
3 56 80 58
3 58 80 81
3 78 58 81
3 59 60 82
3 62 59 82
3 60 75 83
3 82 60 83
3 61 62 84
3 62 82 84
3 61 84 80
3 63 85 76
3 66 64 86
3 64 73 86
3 68 65 87
3 87 65 66
3 87 66 86
3 70 67 88
3 88 67 68
3 88 68 89
3 89 68 87
3 71 69 90
3 90 69 70
3 90 70 91
3 91 70 88
3 92 71 93
3 93 71 90
3 74 72 94
3 94 72 79
3 86 73 95
3 95 73 74
3 95 74 96
3 96 74 94
3 97 86 95
3 76 85 99
3 75 77 100
3 83 75 100
3 76 99 101
3 77 76 101
3 77 101 102
3 100 77 102
3 94 79 103
3 78 81 104
3 79 78 104
3 79 104 103
3 80 84 105
3 81 80 105
3 81 105 106
3 104 81 106
3 82 83 107
3 83 100 107
3 82 107 84
3 84 107 108
3 105 84 108
3 85 109 99
3 89 87 110
3 87 86 110
3 110 86 97
3 91 88 111
3 111 88 89
3 111 89 110
3 93 90 112
3 112 90 91
3 112 91 113
3 113 91 111
3 98 92 114
3 114 92 93
3 114 93 115
3 115 93 112
3 116 98 114
3 117 103 118
3 96 94 119
3 94 103 119
3 119 103 117
3 97 95 120
3 120 95 96
3 120 96 119
3 121 110 97
3 121 97 122
3 122 97 120
3 123 119 117
3 124 98 116
3 99 109 125
3 99 125 126
3 101 99 126
3 100 102 127
3 100 127 107
3 101 126 128
3 102 101 128
3 102 128 127
3 104 106 129
3 104 129 103
3 103 129 118
3 105 108 130
3 106 105 130
3 106 130 129
3 107 127 131
3 108 107 131
3 108 131 132
3 108 132 130
3 109 134 125
3 125 134 133
3 113 111 135
3 111 110 135
3 135 110 121
3 115 112 136
3 136 112 113
3 136 113 135
3 116 114 137
3 137 114 115
3 137 115 138
3 138 115 136
3 139 124 116
3 139 116 140
3 140 116 137
3 141 135 121
3 118 129 142
3 118 142 143
3 117 118 143
3 123 117 143
3 122 120 144
3 120 119 144
3 144 119 123
3 141 121 145
3 145 121 122
3 145 122 144
3 146 141 145
3 147 144 123
3 147 123 148
3 143 148 123
3 150 124 139
3 149 150 139
3 131 127 151
3 125 133 152
3 126 125 152
3 126 152 153
3 128 126 153
3 128 153 154
3 128 154 127
3 127 154 151
3 152 133 155
3 130 132 156
3 130 156 129
3 129 156 142
3 131 151 157
3 132 131 157
3 132 157 156
3 156 158 142
3 157 151 159
3 133 160 155
3 134 161 133
3 133 161 160
3 138 136 162
3 136 135 162
3 162 135 141
3 140 137 163
3 163 137 138
3 163 138 162
3 149 139 164
3 164 139 140
3 164 140 165
3 165 140 163
3 166 149 164
3 167 162 141
3 167 141 146
3 142 158 168
3 143 142 168
3 143 168 148
3 146 145 169
3 145 144 169
3 169 144 147
3 170 167 146
3 170 146 169
3 171 169 147
3 171 147 148
3 171 148 172
3 168 172 148
3 173 149 166
3 174 150 149
3 173 174 149
3 154 175 151
3 151 175 159
3 152 155 176
3 153 152 176
3 153 176 177
3 153 177 154
3 154 177 175
3 155 160 178
3 155 178 179
3 176 155 179
3 156 157 180
3 156 180 158
3 157 159 181
3 157 181 180
3 158 180 182
3 158 182 168
3 159 175 183
3 159 183 181
3 175 184 183
3 160 186 178
3 178 186 185
3 161 187 160
3 160 187 186
3 165 163 188
3 163 162 188
3 188 162 167
3 166 164 189
3 189 164 165
3 189 165 188
3 190 173 166
3 190 166 191
3 191 166 189
3 192 188 167
3 192 167 170
3 193 192 170
3 182 194 168
3 194 172 168
3 193 170 195
3 170 169 195
3 195 169 171
3 196 195 171
3 196 171 172
3 194 197 172
3 197 198 172
3 198 196 172
3 200 173 190
3 199 200 190
3 201 174 173
3 200 201 173
3 176 179 202
3 177 176 202
3 177 202 175
3 175 202 184
3 178 185 203
3 178 203 179
3 179 203 202
3 203 185 204
3 202 205 184
3 183 206 181
3 180 181 206
3 180 206 182
3 182 206 194
3 183 184 207
3 205 207 184
3 183 207 206
3 185 208 204
3 186 209 185
3 185 209 208
3 187 210 186
3 186 210 209
3 191 189 211
3 189 188 211
3 211 188 192
3 199 190 212
3 212 190 191
3 212 191 211
3 213 199 212
3 214 211 192
3 214 192 193
3 215 214 193
3 215 193 195
3 206 216 194
3 216 197 194
3 216 217 197
3 215 195 218
3 218 195 196
3 198 218 196
3 217 219 197
3 219 218 198
3 197 219 198
3 220 199 213
3 221 200 199
3 220 221 199
3 222 201 200
3 221 222 200
3 203 204 223
3 203 223 202
3 202 223 205
3 204 208 224
3 204 224 223
3 205 223 225
3 205 225 207
3 207 225 226
3 207 226 206
3 226 216 206
3 208 228 224
3 224 228 227
3 209 229 208
3 229 228 208
3 210 230 209
3 209 230 229
3 213 212 231
3 212 211 231
3 231 211 214
3 232 220 213
3 232 213 231
3 233 231 214
3 233 214 215
3 234 233 215
3 234 215 218
3 226 235 216
3 235 217 216
3 235 236 217
3 217 236 219
3 237 234 218
3 237 218 219
3 236 238 219
3 238 237 219
3 240 220 232
3 239 240 232
3 241 221 220
3 240 241 220
3 242 222 221
3 241 242 221
3 224 227 243
3 224 243 223
3 223 243 225
3 225 243 244
3 225 244 226
3 226 244 235
3 227 245 243
3 228 246 227
3 227 246 245
3 229 247 228
3 228 247 246
3 230 248 229
3 229 248 247
3 239 232 249
3 232 231 249
3 249 231 233
3 250 249 233
3 250 233 234
3 237 250 234
3 244 251 235
3 235 251 236
3 251 252 236
3 236 252 238
3 252 253 238
3 253 250 237
3 253 237 238
3 254 239 249
3 255 240 239
3 254 255 239
3 256 241 240
3 255 256 240
3 257 242 241
3 256 257 241
3 245 258 243
3 243 258 244
3 244 258 251
3 245 259 258
3 246 260 245
3 245 260 259
3 247 261 246
3 246 261 260
3 248 262 247
3 247 262 261
3 254 249 263
3 263 249 250
3 253 263 250
3 258 264 251
3 251 264 252
3 264 265 252
3 265 263 253
3 252 265 253
3 266 254 263
3 267 255 254
3 266 267 254
3 268 256 255
3 267 268 255
3 269 257 256
3 268 269 256
3 259 270 258
3 270 264 258
3 260 271 259
3 259 271 270
3 261 272 260
3 260 272 271
3 262 273 261
3 273 272 261
3 270 274 264
3 275 266 263
3 275 263 265
3 274 276 264
3 276 265 264
3 276 277 265
3 277 275 265
3 278 267 266
3 275 278 266
3 279 268 267
3 278 279 267
3 280 269 268
3 279 280 268
3 271 281 270
3 270 281 274
3 272 282 271
3 271 282 281
3 273 283 272
3 272 283 282
3 281 284 274
3 274 284 276
3 285 278 275
3 277 285 275
3 284 286 276
3 286 285 277
3 276 286 277
3 287 279 278
3 285 287 278
3 288 280 279
3 287 288 279
3 282 289 281
3 281 289 284
3 283 290 282
3 282 290 289
3 289 291 284
3 284 291 286
3 291 292 286
3 292 287 285
3 286 292 285
3 293 288 287
3 292 293 287
3 290 294 289
3 289 294 291
3 294 295 291
3 295 293 292
3 291 295 292
CELL_TYPES 542
5
5
5
5
5
5
5
5
5
5
5
5
5
5
5
5
5
5
5
5
5
5
5
5
5
5
5
5
5
5
5
5
5
5
5
5
5
5
5
5
5
5
5
5
5
5
5
5
5
5
5
5
5
5
5
5
5
5
5
5
5
5
5
5
5
5
5
5
5
5
5
5
5
5
5
5
5
5
5
5
5
5
5
5
5
5
5
5
5
5
5
5
5
5
5
5
5
5
5
5
5
5
5
5
5
5
5
5
5
5
5
5
5
5
5
5
5
5
5
5
5
5
5
5
5
5
5
5
5
5
5
5
5
5
5
5
5
5
5
5
5
5
5
5
5
5
5
5
5
5
5
5
5
5
5
5
5
5
5
5
5
5
5
5
5
5
5
5
5
5
5
5
5
5
5
5
5
5
5
5
5
5
5
5
5
5
5
5
5
5
5
5
5
5
5
5
5
5
5
5
5
5
5
5
5
5
5
5
5
5
5
5
5
5
5
5
5
5
5
5
5
5
5
5
5
5
5
5
5
5
5
5
5
5
5
5
5
5
5
5
5
5
5
5
5
5
5
5
5
5
5
5
5
5
5
5
5
5
5
5
5
5
5
5
5
5
5
5
5
5
5
5
5
5
5
5
5
5
5
5
5
5
5
5
5
5
5
5
5
5
5
5
5
5
5
5
5
5
5
5
5
5
5
5
5
5
5
5
5
5
5
5
5
5
5
5
5
5
5
5
5
5
5
5
5
5
5
5
5
5
5
5
5
5
5
5
5
5
5
5
5
5
5
5
5
5
5
5
5
5
5
5
5
5
5
5
5
5
5
5
5
5
5
5
5
5
5
5
5
5
5
5
5
5
5
5
5
5
5
5
5
5
5
5
5
5
5
5
5
5
5
5
5
5
5
5
5
5
5
5
5
5
5
5
5
5
5
5
5
5
5
5
5
5
5
5
5
5
5
5
5
5
5
5
5
5
5
5
5
5
5
5
5
5
5
5
5
5
5
5
5
5
5
5
5
5
5
5
5
5
5
5
5
5
5
5
5
5
5
5
5
5
5
5
5
5
5
5
5
5
5
5
5
5
5
5
5
5
5
5
5
5
5
5
5
5
5
5
5
5
5
5
5
5
5
5
5
5
5
5
5
5
5
5
5
5
5
5
5
5
5
5
5
5
5
5
5
5
5
5
5
5
5
5
5
5
5
5
5
5
5
5
5
5
5
5
5
5
5
5
5
5
POINT_DATA 296
SCALARS concentrations float 4
LOOKUP_TABLE default
0 0.999523 0.11927 11.962
0 0.999443 0.118031 10.9741
0 0.999559 0.118288 14.7865
0 0.999541 0.116986 9.60679
0 0.999533 0.0936232 7.73185
0 0.999434 0.119237 16.7447
0 0.999465 0.121693 16.9218
0 0.999486 0.093232 7.25284
0 0.999459 0.0926514 7.1156
0 0.999539 0.120823 11.9893
0 0.999553 0.117332 11.3432
0 0.999478 0.116833 13.6533
0 0.999511 0.117552 11.499
0 0.999536 0.0932855 7.4442
0 0.999508 0.0933777 7.237
0 0.999513 0.0940055 7.21416
0 0.999501 0.0934291 7.19269
0 0.99946 0.0928586 7.05271
0 0.999502 0.0933571 7.11668
0 0.999497 0.0941604 7.08078
0 0.999496 0.0933088 7.65002
0 0.999517 0.115547 10.4442
0 0.99949 0.119169 9.4613
0 0.999544 0.0927664 7.04913
0 0.999539 0.0928553 7.4883
0 0.999492 0.0936649 7.44032
0 0.999569 0.118995 9.50241
0 0.99954 0.0939872 7.6484
0 0.999555 0.11856 8.80559
0 0.99951 0.0935279 7.26947
0 0.999507 0.0933715 7.48804
0 0.999511 0.0932611 7.12635
0 0.999462 0.118839 16.9076
0 0.999505 0.0940608 6.61972
0 0.999502 0.0951015 8.2177
0 0.9995 0.092612 7.50446
0 0.999522 0.0925329 7.47057
0 0.999524 0.0940433 7.58484
0 0.99953 0.0924214 7.07534
0 0.99952 0.0930227 7.05492
0 0.999494 0.0923173 6.75519
0 0.999537 0.0928576 6.94245
0 0.999548 0.0942707 7.22286
0 0.999431 0.117261 16.2571
0 0.999518 0.0941677 7.6211
0 0.999561 0.0942312 6.64597
0 0.999532 0.0956872 8.17533
0 0.999489 0.115628 12.9812
0 0.999532 0.0940288 7.20749
0 0.999462 0.118195 17.7408
0 0.999511 0.0932094 7.42571
0 0.999515 0.0953134 7.61981
0 0.999515 0.0944984 6.78978
0 0.999452 0.0931148 6.37285
0 0.999453 0.09254 6.93684
0 0.999515 0.0948851 6.82307
0 0.999527 0.0925609 6.93003
0 0.99953 0.0926314 7.18991
0 0.999523 0.0952254 8.12206
0 0.99954 0.0936526 7.60309
0 0.999496 0.0931964 7.5766
0 0.999526 0.0941974 6.40218
0 0.999541 0.0944753 7.83233
0 0.999469 0.117749 14.3385
0 0.999511 0.0980934 9.70585
0 0.999536 0.0964961 8.31983
0 0.999513 0.0946805 6.73103
0 0.999487 0.0934746 6.87878
0 0.999526 0.0936251 7.12831
0 0.999468 0.117751 13.5582
0 0.999487 0.0934999 6.66202
0 0.999479 0.119218 16.4494
0 0.999512 0.0952251 6.23899
0 0.99952 0.096262 5.6376
0 0.999525 0.0948579 6.5169
0 0.999475 0.0923438 7.51114
0 0.99948 0.0924004 7.49165
0 0.999483 0.0925047 7.53873
0 0.999513 0.0952383 7.83372
0 0.999504 0.0980364 7.50768
0 0.999519 0.094209 6.63819
0 0.999506 0.0946812 7.80609
0 0.99953 0.0938617 7.75395
0 0.999514 0.0931707 7.64075
0 0.999531 0.0941145 6.46013
0 0.999481 0.118572 16.2382
0 0.999515 0.0936586 7.36104
0 0.999522 0.0942563 7.40668
0 0.999517 0.0938895 6.39025
0 0.999523 0.0938425 6.62566
0 0.999478 0.0954434 6.50364
0 0.999497 0.0986469 7.05132
0 0.999444 0.11717 14.3938
0 0.999473 0.0991639 5.88227
0 0.999503 0.0970744 6.35082
0 0.999531 0.0946827 7.2203
0 0.999528 0.0944571 6.75111
0 0.99954 0.0949225 6.75552
0 0.999467 0.118471 16.5204
0 0.999477 0.0931009 7.23845
0 0.999519 0.0934397 7.9421
0 0.999497 0.0927402 7.69387
0 0.999515 0.0934649 8.1146
0 0.999514 0.0994035 9.7883
0 0.999511 0.0949498 7.27291
0 0.999528 0.0938325 7.13826
0 0.999516 0.0938741 7.63284
0 0.99954 0.0938148 7.75871
0 0.999544 0.0946447 6.49946
0 0.999466 0.116706 11.7145
0 0.99952 0.0930533 6.89764
0 0.999514 0.0949593 6.93677
0 0.999488 0.0955292 7.3572
0 0.9995 0.0946726 6.19728
0 0.999453 0.0993122 5.37994
0 0.99949 0.094867 7.92208
0 0.999514 0.0963542 7.406
0 0.999527 0.0957938 6.84637
0 0.999549 0.0953882 6.5393
0 0.99952 0.0976695 6.5176
0 0.999546 0.0960194 7.31569
0 0.999531 0.0938082 6.77346
0 0.999568 0.0951902 6.71502
0 0.999519 0.0938526 6.46224
0 0.999551 0.119705 13.6647
0 0.999481 0.0934626 7.56715
0 0.999498 0.0940962 5.59677
0 0.999526 0.0933671 6.00234
0 0.999517 0.0938102 5.49784
0 0.999529 0.095013 6.7027
0 0.999534 0.0941963 6.20948
0 0.999521 0.0944431 6.13159
0 0.999528 0.0950649 6.78238
0 0.999479 0.0939634 6.01894
0 0.999467 0.118064 14.508
0 0.999512 0.0941419 6.94685
0 0.999512 0.0943211 6.0178
0 0.999509 0.0967302 5.605
0 0.999514 0.0937545 7.92536
0 0.999543 0.0955789 5.7748
0 0.999523 0.0954948 6.25141
0 0.99951 0.0946212 7.0204
0 0.999539 0.0953453 6.29564
0 0.999534 0.0943783 6.24112
0 0.999545 0.0978703 6.74195
0 0.999543 0.0949659 6.60046
0 0.999508 0.0952803 7.113
0 0.999534 0.0945313 7.24224
0 0.999536 0.094049 6.25518
0 0.999534 0.0932264 7.03452
0 0.999545 0.118135 9.09734
0 0.999507 0.0943963 6.41555
0 0.999507 0.0955941 4.6492
0 0.999512 0.0936901 6.09487
0 0.999516 0.0939032 8.08156
0 0.999503 0.0936578 5.96873
0 0.999541 0.0934921 6.86868
0 0.999525 0.0959204 4.7298
0 0.999537 0.0951436 6.4905
0 0.999515 0.0942488 7.88484
0 0.999476 0.0936546 5.94987
0 0.999453 0.117665 13.5928
0 0.999513 0.0935749 7.81095
0 0.999513 0.0944901 7.8281
0 0.999526 0.0943261 6.6993
0 0.999507 0.0952483 7.52987
0 0.999522 0.0946871 7.802
0 0.99951 0.0939838 6.82813
0 0.999536 0.0954905 6.59826
0 0.999532 0.0976823 4.91948
0 0.999519 0.0948829 6.48569
0 0.999539 0.0935914 6.86465
0 0.999553 0.0933508 6.71694
0 0.999533 0.0927078 6.7041
0 0.999536 0.116046 14.496
0 0.999524 0.0933439 7.75196
0 0.999523 0.0938604 6.71115
0 0.999523 0.0936892 8.14808
0 0.9995 0.0933645 6.07176
0 0.999508 0.0942101 5.111
0 0.999549 0.0967295 8.28705
0 0.999535 0.100137 8.86211
0 0.999524 0.0946803 6.89812
0 0.999529 0.0968137 8.00616
0 0.999527 0.0947195 7.75807
0 0.999509 0.093309 6.71152
0 0.999491 0.0930567 5.92115
0 0.999472 0.120112 16.2191
0 0.999505 0.0933133 7.06295
0 0.999511 0.0949603 6.95833
0 0.999516 0.0950089 7.90677
0 0.999512 0.0953013 7.72489
0 0.999514 0.0940934 7.48162
0 0.999531 0.0941835 6.98223
0 0.999544 0.101794 4.29819
0 0.999534 0.0937361 7.3691
0 0.999545 0.0938719 7.06296
0 0.999563 0.0936405 7.09806
0 0.999551 0.0950596 6.36229
0 0.999518 0.0950405 7.91857
0 0.999531 0.0937392 6.1737
0 0.999539 0.121515 9.74828
0 0.99952 0.0939453 5.69374
0 0.999506 0.0934928 5.77253
0 0.999513 0.0933926 5.70668
0 0.999526 0.0946409 6.66403
0 0.999535 0.0958168 6.40484
0 0.999535 0.095046 7.38692
0 0.999514 0.0935551 7.94862
0 0.999504 0.0932033 7.78186
0 0.999494 0.120015 10.3781
0 0.999511 0.0954397 6.39394
0 0.999513 0.0963164 8.81807
0 0.999519 0.0959955 6.50849
0 0.999517 0.0939783 7.91879
0 0.999538 0.0933749 7.71429
0 0.999535 0.0938095 6.909
0 0.999554 0.0986022 6.37954
0 0.999547 0.0933075 7.78206
0 0.999556 0.0968693 6.35289
0 0.999517 0.0930689 6.57104
0 0.999536 0.0940426 6.33521
0 0.999542 0.118239 12.2991
0 0.999521 0.0936435 7.91941
0 0.999518 0.0934385 5.89264
0 0.999533 0.0942449 6.09946
0 0.999539 0.0943049 6.45363
0 0.999525 0.0956238 5.24676
0 0.999519 0.0949785 7.21951
0 0.999528 0.092941 6.41759
0 0.999517 0.117412 14.2552
0 0.999516 0.0952809 6.15571
0 0.999521 0.0956186 7.41997
0 0.99952 0.0950895 6.66642
0 0.999556 0.0959126 7.98279
0 0.999527 0.0934686 6.1624
0 0.99954 0.0963114 7.10642
0 0.99954 0.0945703 7.38823
0 0.999523 0.0960374 5.0552
0 0.999519 0.0947046 6.95962
0 0.99952 0.0941688 7.01802
0 0.999521 0.0937136 7.45633
0 0.999543 0.117209 12.9321
0 0.999525 0.0941735 5.70642
0 0.999525 0.0933745 6.14352
0 0.999525 0.0942979 5.3776
0 0.999523 0.0949775 7.02998
0 0.999542 0.093536 7.24849
0 0.99956 0.118447 11.8982
0 0.999508 0.0947773 6.49048
0 0.999522 0.0953442 6.56876
0 0.99952 0.0950413 5.52436
0 0.999516 0.0946885 8.10876
0 0.999519 0.093328 8.13399
0 0.999507 0.0946686 7.83986
0 0.99952 0.0940173 7.17348
0 0.999508 0.0933106 7.53322
0 0.999498 0.116521 12.6569
0 0.999523 0.0949064 5.3613
0 0.999515 0.0943173 7.86717
0 0.999514 0.0945322 5.67722
0 0.999525 0.0926693 7.7303
0 0.999542 0.116599 8.90407
0 0.99951 0.095418 5.87465
0 0.999521 0.0948464 5.54505
0 0.999521 0.0939702 7.68954
0 0.999513 0.0939175 7.82699
0 0.999524 0.0936401 7.66218
0 0.999532 0.0934634 6.90656
0 0.999512 0.119394 12.942
0 0.999515 0.0944334 6.70103
0 0.999502 0.0930102 7.83873
0 0.999529 0.0928017 7.8975
0 0.999545 0.117597 14.459
0 0.999514 0.0939215 6.69373
0 0.999524 0.094916 6.60696
0 0.999519 0.0939529 7.64565
0 0.999524 0.0949975 6.20375
0 0.999532 0.0940812 7.23025
0 0.999544 0.0936205 6.31051
0 0.999555 0.117476 11.3132
0 0.999497 0.0940241 6.31584
0 0.999506 0.0933786 6.77086
0 0.999538 0.118383 9.51977
0 0.99951 0.0942803 6.69689
0 0.999539 0.0947225 6.82424
0 0.999526 0.0937303 7.30514
0 0.999546 0.0934424 7.40059
0 0.999553 0.117851 11.6904
0 0.999493 0.0936607 6.88082
0 0.999496 0.116773 14.0895
0 0.999515 0.0939487 6.78988
0 0.999548 0.0947206 7.6884
0 0.999563 0.118115 10.5907
0 0.999495 0.118507 16.6411
0 0.999534 0.118483 10.2955
VECTORS fa_u float
0.0060224 0.0024922 -0
0.0057443 0.00331775 -0
0.00628 0.00168185 -0
0.00643634 0.000848554 -0
1e-08 0 0
0.00514137 0.00394885 -0
0.00451896 0.00451472 -0
1e-08 0 0
1e-08 0 0
0.00408138 0.0053155 -0
0.00322985 0.00559716 -0
0.00656993 9.98634e-07 -0
0.00642332 -0.000844384 0
1e-08 0 0
1e-08 0 0
1e-08 0 0
1e-08 0 0
1e-08 0 0
1e-08 0 0
1e-08 0 0
1e-08 0 0
0.00250195 0.00603945 -0
0.00169244 0.00631746 -0
1e-08 0 0
1e-08 0 0
1e-08 0 0
0.00636645 -0.00170501 0
1e-08 0 0
0.00606963 -0.00251702 0
1e-08 0 0
1e-08 0 0
1e-08 0 0
0.000847331 0.0064323 -0
1e-08 0 0
1e-08 0 0
1e-08 0 0
1e-08 0 0
1e-08 0 0
1e-08 0 0
1e-08 0 0
1e-08 0 0
1e-08 0 0
1e-08 0 0
-4.25479e-07 0.00659638 -0
1e-08 0 0
1e-08 0 0
1e-08 0 0
0.00558053 -0.00322349 0
1e-08 0 0
0.00520409 -0.00399277 0
1e-08 0 0
1e-08 0 0
1e-08 0 0
1e-08 0 0
1e-08 0 0
1e-08 0 0
1e-08 0 0
1e-08 0 0
1e-08 0 0
1e-08 0 0
1e-08 0 0
1e-08 0 0
1e-08 0 0
-0.000852263 0.00645705 0
1e-08 0 0
1e-08 0 0
1e-08 0 0
1e-08 0 0
1e-08 0 0
0.00463729 -0.00463974 0
1e-08 0 0
0.00388492 -0.00505949 0
1e-08 0 0
1e-08 0 0
1e-08 0 0
1e-08 0 0
1e-08 0 0
1e-08 0 0
1e-08 0 0
1e-08 0 0
1e-08 0 0
1e-08 0 0
1e-08 0 0
1e-08 0 0
1e-08 0 0
-0.00168596 0.00628787 0
1e-08 0 0
1e-08 0 0
1e-08 0 0
1e-08 0 0
1e-08 0 0
1e-08 0 0
0.00333268 -0.00576673 0
1e-08 0 0
1e-08 0 0
1e-08 0 0
1e-08 0 0
1e-08 0 0
0.00249499 -0.00602718 0
1e-08 0 0
1e-08 0 0
1e-08 0 0
1e-08 0 0
1e-08 0 0
1e-08 0 0
1e-08 0 0
1e-08 0 0
1e-08 0 0
1e-08 0 0
-0.00248442 0.00599966 0
1e-08 0 0
1e-08 0 0
1e-08 0 0
1e-08 0 0
1e-08 0 0
1e-08 0 0
1e-08 0 0
1e-08 0 0
1e-08 0 0
1e-08 0 0
1e-08 0 0
1e-08 0 0
1e-08 0 0
1e-08 0 0
0.00168793 -0.00630426 0
1e-08 0 0
1e-08 0 0
1e-08 0 0
1e-08 0 0
1e-08 0 0
1e-08 0 0
1e-08 0 0
1e-08 0 0
1e-08 0 0
-0.00328054 0.00568332 0
1e-08 0 0
1e-08 0 0
1e-08 0 0
1e-08 0 0
1e-08 0 0
1e-08 0 0
1e-08 0 0
1e-08 0 0
1e-08 0 0
1e-08 0 0
1e-08 0 0
1e-08 0 0
1e-08 0 0
1e-08 0 0
1e-08 0 0
0.000843535 -0.00639752 0
1e-08 0 0
1e-08 0 0
1e-08 0 0
1e-08 0 0
1e-08 0 0
1e-08 0 0
1e-08 0 0
1e-08 0 0
1e-08 0 0
1e-08 0 0
-0.00396861 0.00517165 0
1e-08 0 0
1e-08 0 0
1e-08 0 0
1e-08 0 0
1e-08 0 0
1e-08 0 0
1e-08 0 0
1e-08 0 0
1e-08 0 0
1e-08 0 0
1e-08 0 0
1e-08 0 0
9.87537e-07 -0.00661078 0
1e-08 0 0
1e-08 0 0
1e-08 0 0
1e-08 0 0
1e-08 0 0
1e-08 0 0
1e-08 0 0
1e-08 0 0
1e-08 0 0
1e-08 0 0
1e-08 0 0
1e-08 0 0
-0.00457937 0.00458186 0
1e-08 0 0
1e-08 0 0
1e-08 0 0
1e-08 0 0
1e-08 0 0
1e-08 0 0
1e-08 0 0
1e-08 0 0
1e-08 0 0
1e-08 0 0
1e-08 0 0
1e-08 0 0
1e-08 0 0
-0.000854405 -0.00647579 0
1e-08 0 0
1e-08 0 0
1e-08 0 0
1e-08 0 0
1e-08 0 0
1e-08 0 0
1e-08 0 0
1e-08 0 0
-0.00523619 0.00401917 0
1e-08 0 0
1e-08 0 0
1e-08 0 0
1e-08 0 0
1e-08 0 0
1e-08 0 0
1e-08 0 0
1e-08 0 0
1e-08 0 0
1e-08 0 0
1e-08 0 0
-0.00167323 -0.00624464 0
1e-08 0 0
1e-08 0 0
1e-08 0 0
1e-08 0 0
1e-08 0 0
1e-08 0 0
1e-08 0 0
-0.00563221 0.00325108 0
1e-08 0 0
1e-08 0 0
1e-08 0 0
1e-08 0 0
1e-08 0 0
1e-08 0 0
1e-08 0 0
1e-08 0 0
1e-08 0 0
1e-08 0 0
1e-08 0 0
-0.00250063 -0.00604168 0
1e-08 0 0
1e-08 0 0
1e-08 0 0
1e-08 0 0
1e-08 0 0
-0.00603039 0.00249814 0
1e-08 0 0
1e-08 0 0
1e-08 0 0
1e-08 0 0
1e-08 0 0
1e-08 0 0
1e-08 0 0
1e-08 0 0
-0.00333468 -0.00576966 0
1e-08 0 0
1e-08 0 0
1e-08 0 0
1e-08 0 0
-0.00636132 0.00170284 0
1e-08 0 0
1e-08 0 0
1e-08 0 0
1e-08 0 0
1e-08 0 0
1e-08 0 0
-0.00389122 -0.00506654 0
1e-08 0 0
1e-08 0 0
1e-08 0 0
-0.00636981 0.000838473 0
1e-08 0 0
1e-08 0 0
1e-08 0 0
1e-08 0 0
1e-08 0 0
1e-08 0 0
-0.00458454 -0.00458891 0
1e-08 0 0
1e-08 0 0
-0.00669011 -1.98359e-06 0
1e-08 0 0
1e-08 0 0
1e-08 0 0
1e-08 0 0
-0.0052845 -0.00405512 0
1e-08 0 0
-0.00630386 -0.000831583 0
1e-08 0 0
1e-08 0 0
-0.00559191 -0.00322642 0
-0.00636083 -0.00170215 0
-0.00604242 -0.00250298 0
