# vtk DataFile Version 2.0
CellBP Time: 3.36
ASCII
DATASET UNSTRUCTURED_GRID
POINTS 296 double
-9.06463 -3.71885 0
-8.49735 -4.88155 0
-9.47035 -2.48893 0
-9.73545 -1.23365 0
-8.2248 -2.76082 0
-7.77531 -5.95762 0
-6.91983 -6.93082 0
-7.78484 -3.80182 0
-7.21681 -4.78516 0
-5.96682 -7.79661 0
-4.90869 -8.52555 0
-9.83313 0.0434167 0
-9.76226 1.33388 0
-8.53677 -1.65175 0
-8.67748 -0.517322 0
-7.46267 -1.95808 0
-7.09428 -2.84212 0
-6.53845 -5.69844 0
-5.74631 -6.52063 0
-6.6641 -3.81234 0
-6.11213 -4.59895 0
-3.74722 -9.09681 0
-2.51356 -9.50726 0
-4.8568 -7.23284 0
-3.88183 -7.81604 0
-8.69154 0.634298 0
-9.52493 2.6144 0
-8.53318 1.74916 0
-9.10937 3.84171 0
-7.62797 -0.904677 0
-7.68746 0.084788 0
-6.84005 -1.28332 0
-1.23596 -9.75331 0
-6.33818 -2.10915 0
-6.21293 -2.99803 0
-5.45122 -5.40057 0
-4.73165 -6.04288 0
-5.56621 -3.69471 0
-5.18213 -4.49183 0
-2.8425 -8.28601 0
-1.7626 -8.54966 0
-3.88768 -6.65609 0
-3.03419 -7.08585 0
0.0527883 -9.82626 0
-7.6077 1.12926 0
-8.26298 2.88928 0
-7.46032 2.08029 0
-8.51282 4.98814 0
-7.79105 3.92825 0
-7.77076 6.05018 0
-6.67778 -0.382745 0
-6.85674 0.549143 0
-5.69258 -0.988196 0
-0.585765 -8.71331 0
0.554809 -8.65858 0
-5.22779 -2.44089 0
-4.42113 -5.02723 0
-3.85004 -5.70913 0
-4.37789 -3.75557 0
-2.04391 -7.48913 0
-1.125 -7.70377 0
-2.96041 -6.03614 0
-2.28903 -6.55544 0
1.33287 -9.72431 0
-6.60323 1.40117 0
-7.07721 3.07165 0
-6.57561 2.33784 0
-7.20209 4.91716 0
-6.63103 3.94487 0
-6.9183 7.01504 0
-6.48638 5.81016 0
-5.95461 7.87431 0
-4.41116 -1.1707 0
-5.74769 0.502295 0
-4.61462 -0.0182662 0
-0.00175861 -7.74978 0
1.70538 -8.51722 0
0.923874 -7.65386 0
-3.99921 -2.37954 0
-3.47051 -1.38493 0
-3.25751 -4.75185 0
-3.2413 -3.23714 0
-1.3709 -6.60119 0
-0.515365 -6.93843 0
-1.96078 -5.48279 0
2.59884 -9.47279 0
-5.44421 2.01334 0
-6.0179 3.02749 0
-6.02442 4.79553 0
-5.68651 3.93066 0
-5.68139 6.62082 0
-5.37772 5.53384 0
-4.89743 8.6149 0
-4.76964 7.29256 0
-3.48099 -0.421358 0
-4.40676 1.23575 0
-3.68326 0.588706 0
-4.02019 2.30644 0
-3.74185 9.18819 0
2.80717 -8.19326 0
0.396064 -6.69939 0
1.97709 -7.40252 0
1.26818 -6.79611 0
-2.43495 -0.86847 0
-2.82568 -2.11908 0
-2.27896 -4.06146 0
-2.31342 -2.95197 0
-0.44857 -5.78955 0
-1.21241 -4.46195 0
3.82348 -9.06574 0
-4.73463 3.35098 0
-5.02107 4.52274 0
-4.58042 6.18145 0
-4.47814 5.27786 0
-3.79794 7.8889 0
-3.76921 6.73393 0
-2.7468 8.30546 0
-1.64251 -0.131958 0
-1.44323 -0.884102 0
-2.47899 0.512563 0
-3.22851 1.44032 0
-3.20669 3.28777 0
-2.88773 2.36579 0
-1.35177 0.63249 0
-2.51203 9.59116 0
3.86329 -7.75454 0
2.89834 -7.0246 0
0.926498 -5.73665 0
2.02267 -6.30438 0
-1.6748 -1.98458 0
-1.42454 -3.25562 0
0.0835985 -4.69512 0
-0.558404 -3.66841 0
4.85098 -7.19417 0
4.98171 -8.49824 0
-3.73165 4.49333 0
-3.68479 5.66666 0
-2.84227 7.17835 0
-2.96844 6.25905 0
-1.64395 8.62224 0
-1.90796 7.51564 0
-2.31797 4.01319 0
-0.726637 -1.3227 0
-0.833769 -0.252987 0
-1.9329 1.6865 0
-2.11268 2.86465 0
-1.30248 3.52485 0
-0.871518 1.35644 0
-0.282683 0.461086 0
-0.529094 8.76997 0
-1.24003 9.83648 0
1.09187 -4.51642 0
3.82853 -6.58016 0
2.92543 -5.98186 0
2.07539 -5.33783 0
4.70502 -6.08658 0
-0.552748 -2.4667 0
0.491338 -3.43615 0
0.0540158 -1.6078 0
1.46047 -3.64042 0
5.78143 -6.50472 0
6.05704 -7.77765 0
-2.44646 5.2807 0
-2.09552 6.44254 0
-0.888178 7.71055 0
-1.24619 6.84014 0
0.0898949 7.79689 0
-1.13375 4.45478 0
0.150532 -0.613367 0
-0.801718 2.49236 0
-0.338879 3.5867 0
0.0584663 1.51513 0
0.737121 0.474953 0
0.641601 8.7867 0
0.0461645 9.93471 0
2.3449 -4.22087 0
3.79105 -5.53202 0
2.94707 -5.12195 0
5.49948 -5.39871 0
4.61772 -5.18006 0
0.631382 -2.28926 0
1.24662 -2.92793 0
0.757044 -1.38877 0
2.14038 -3.10173 0
2.9597 -3.42893 0
6.08192 -4.7194 0
6.57406 -5.68601 0
7.02642 -6.9172 0
-1.00341 5.75361 0
-0.35827 6.80041 0
1.11346 7.69194 0
0.560043 7.00381 0
-0.000560239 4.68895 0
0.597724 3.80413 0
1.33482 -0.640955 0
0.530608 2.64485 0
0.95827 1.57445 0
1.90274 0.2128 0
1.60524 1.06488 0
2.11614 7.51369 0
1.78503 8.62906 0
1.33976 9.85643 0
3.76857 -4.27813 0
5.04963 -4.36697 0
5.77989 -3.8737 0
3.74381 -3.15774 0
1.80471 -1.88012 0
2.99186 -2.54964 0
6.71782 -3.89712 0
7.30471 -4.83852 0
7.88982 -5.95977 0
0.484447 5.8222 0
1.42066 6.67736 0
2.35766 6.60989 0
1.19835 4.52187 0
1.47601 3.37768 0
2.42277 -0.6893 0
2.81276 0.143548 0
1.77733 2.15659 0
2.60012 1.14522 0
3.0498 7.10502 0
2.8801 8.30116 0
2.61527 9.6064 0
4.85542 -3.27429 0
6.05778 -3.06434 0
4.13563 -2.25271 0
3.2215 -1.49358 0
6.67293 -2.2928 0
7.1702 -3.01466 0
7.89214 -3.87997 0
8.62167 -4.90301 0
2.00962 5.55106 0
3.05079 6.0937 0
2.35114 4.09455 0
2.40398 3.04118 0
3.50156 -0.45776 0
3.59292 0.614403 0
2.9417 2.27414 0
3.51799 1.51619 0
3.95739 5.83717 0
3.94331 6.72733 0
3.94419 7.86774 0
3.8468 9.1936 0
5.51986 -1.89726 0
4.47431 -1.12052 0
6.65151 -1.323 0
7.5235 -2.01476 0
8.32008 -2.83793 0
9.19491 -3.74389 0
3.37477 4.82672 0
3.3043 3.35423 0
4.65308 0.132984 0
4.4709 1.29475 0
4.01531 2.41766 0
4.49657 5.08958 0
4.78054 6.12233 0
4.92802 7.30653 0
5.00619 8.62071 0
5.82636 -0.433712 0
6.9332 -0.487312 0
7.68607 -1.07181 0
8.60255 -1.73068 0
9.60629 -2.51097 0
4.48408 3.7796 0
5.74274 1.07614 0
5.28954 2.49587 0
5.28577 4.55499 0
5.52583 5.4522 0
5.82091 6.59349 0
6.06229 7.88966 0
6.75898 0.447035 0
7.76325 -0.0282904 0
8.77304 -0.575884 0
9.85417 -1.23399 0
6.86263 1.31777 0
5.62165 3.71903 0
6.44 2.15256 0
6.2708 3.03257 0
6.18339 4.61458 0
6.593 5.75776 0
7.02321 7.03006 0
7.68703 0.947927 0
8.75796 0.56523 0
9.9293 0.0575407 0
7.50473 1.96518 0
6.70002 3.83116 0
7.14683 2.89014 0
7.26533 4.81236 0
7.88449 6.06267 0
8.60467 1.70038 0
9.82531 1.33715 0
8.2906 2.78803 0
7.86071 3.85396 0
8.60457 4.988 0
9.57798 2.60441 0
9.17238 3.82968 0
CELLS 542 2168
3 2 0 4
3 0 1 7
3 4 0 7
3 1 5 8
3 7 1 8
3 3 2 13
3 13 2 4
3 11 3 14
3 14 3 13
3 13 4 15
3 4 7 16
3 15 4 16
3 5 6 17
3 8 5 17
3 6 9 18
3 17 6 18
3 7 8 19
3 16 7 19
3 8 17 20
3 19 8 20
3 9 10 23
3 18 9 23
3 10 21 24
3 23 10 24
3 12 11 25
3 25 11 14
3 26 12 27
3 27 12 25
3 14 13 29
3 29 13 15
3 25 14 30
3 30 14 29
3 29 15 31
3 15 16 33
3 31 15 33
3 16 19 34
3 33 16 34
3 17 18 35
3 20 17 35
3 18 23 36
3 35 18 36
3 19 20 37
3 34 19 37
3 20 35 38
3 37 20 38
3 21 22 39
3 24 21 39
3 22 32 40
3 39 22 40
3 23 24 41
3 36 23 41
3 24 39 42
3 41 24 42
3 27 25 44
3 44 25 30
3 28 26 45
3 45 26 27
3 45 27 46
3 46 27 44
3 47 28 48
3 48 28 45
3 30 29 50
3 50 29 31
3 44 30 51
3 51 30 50
3 50 31 52
3 31 33 52
3 32 43 53
3 40 32 53
3 53 43 54
3 33 34 55
3 34 37 55
3 33 55 52
3 35 36 56
3 38 35 56
3 36 41 57
3 56 36 57
3 37 38 58
3 38 56 58
3 37 58 55
3 39 40 59
3 42 39 59
3 40 53 60
3 59 40 60
3 41 42 61
3 57 41 61
3 42 59 62
3 61 42 62
3 43 63 54
3 46 44 64
3 64 44 51
3 48 45 65
3 65 45 46
3 65 46 66
3 66 46 64
3 49 47 67
3 67 47 48
3 67 48 68
3 68 48 65
3 69 49 70
3 70 49 67
3 52 55 72
3 64 51 73
3 51 50 73
3 50 52 73
3 73 52 74
3 74 52 72
3 53 54 75
3 60 53 75
3 54 63 76
3 54 76 77
3 75 54 77
3 55 58 78
3 72 55 78
3 72 78 79
3 56 57 80
3 57 61 80
3 56 80 58
3 58 80 81
3 78 58 81
3 59 60 82
3 62 59 82
3 60 75 83
3 82 60 83
3 61 62 84
3 62 82 84
3 61 84 80
3 63 85 76
3 66 64 86
3 64 73 86
3 68 65 87
3 87 65 66
3 87 66 86
3 70 67 88
3 88 67 68
3 88 68 89
3 89 68 87
3 71 69 90
3 90 69 70
3 90 70 91
3 91 70 88
3 92 71 93
3 93 71 90
3 74 72 94
3 94 72 79
3 86 73 95
3 95 73 74
3 95 74 96
3 96 74 94
3 97 86 95
3 76 85 99
3 75 77 100
3 83 75 100
3 76 99 101
3 77 76 101
3 77 101 102
3 100 77 102
3 94 79 103
3 78 81 104
3 79 78 104
3 79 104 103
3 80 84 105
3 81 80 105
3 81 105 106
3 104 81 106
3 82 83 107
3 83 100 107
3 82 107 84
3 84 107 108
3 105 84 108
3 85 109 99
3 89 87 110
3 87 86 110
3 110 86 97
3 91 88 111
3 111 88 89
3 111 89 110
3 93 90 112
3 112 90 91
3 112 91 113
3 113 91 111
3 98 92 114
3 114 92 93
3 114 93 115
3 115 93 112
3 116 98 114
3 117 103 118
3 96 94 119
3 94 103 119
3 119 103 117
3 97 95 120
3 120 95 96
3 120 96 119
3 121 110 97
3 121 97 122
3 122 97 120
3 123 119 117
3 124 98 116
3 99 109 125
3 99 125 126
3 101 99 126
3 100 102 127
3 100 127 107
3 101 126 128
3 102 101 128
3 102 128 127
3 104 106 129
3 104 129 103
3 103 129 118
3 105 108 130
3 106 105 130
3 106 130 129
3 107 127 131
3 108 107 131
3 108 131 132
3 108 132 130
3 109 134 125
3 125 134 133
3 113 111 135
3 111 110 135
3 135 110 121
3 115 112 136
3 136 112 113
3 136 113 135
3 116 114 137
3 137 114 115
3 137 115 138
3 138 115 136
3 139 124 116
3 139 116 140
3 140 116 137
3 141 135 121
3 118 129 142
3 118 142 143
3 117 118 143
3 123 117 143
3 122 120 144
3 120 119 144
3 144 119 123
3 141 121 145
3 145 121 122
3 145 122 144
3 146 141 145
3 147 144 123
3 147 123 148
3 143 148 123
3 150 124 139
3 149 150 139
3 131 127 151
3 125 133 152
3 126 125 152
3 126 152 153
3 128 126 153
3 128 153 154
3 128 154 127
3 127 154 151
3 152 133 155
3 130 132 156
3 130 156 129
3 129 156 142
3 131 151 157
3 132 131 157
3 132 157 156
3 156 158 142
3 157 151 159
3 133 160 155
3 134 161 133
3 133 161 160
3 138 136 162
3 136 135 162
3 162 135 141
3 140 137 163
3 163 137 138
3 163 138 162
3 149 139 164
3 164 139 140
3 164 140 165
3 165 140 163
3 166 149 164
3 167 162 141
3 167 141 146
3 142 158 168
3 143 142 168
3 143 168 148
3 146 145 169
3 145 144 169
3 169 144 147
3 170 167 146
3 170 146 169
3 171 169 147
3 171 147 148
3 171 148 172
3 168 172 148
3 173 149 166
3 174 150 149
3 173 174 149
3 154 175 151
3 151 175 159
3 152 155 176
3 153 152 176
3 153 176 177
3 153 177 154
3 154 177 175
3 155 160 178
3 155 178 179
3 176 155 179
3 156 157 180
3 156 180 158
3 157 159 181
3 157 181 180
3 158 180 182
3 158 182 168
3 159 175 183
3 159 183 181
3 175 184 183
3 160 186 178
3 178 186 185
3 161 187 160
3 160 187 186
3 165 163 188
3 163 162 188
3 188 162 167
3 166 164 189
3 189 164 165
3 189 165 188
3 190 173 166
3 190 166 191
3 191 166 189
3 192 188 167
3 192 167 170
3 193 192 170
3 182 194 168
3 194 172 168
3 193 170 195
3 170 169 195
3 195 169 171
3 196 195 171
3 196 171 172
3 194 197 172
3 197 198 172
3 198 196 172
3 200 173 190
3 199 200 190
3 201 174 173
3 200 201 173
3 176 179 202
3 177 176 202
3 177 202 175
3 175 202 184
3 178 185 203
3 178 203 179
3 179 203 202
3 203 185 204
3 202 205 184
3 183 206 181
3 180 181 206
3 180 206 182
3 182 206 194
3 183 184 207
3 205 207 184
3 183 207 206
3 185 208 204
3 186 209 185
3 185 209 208
3 187 210 186
3 186 210 209
3 191 189 211
3 189 188 211
3 211 188 192
3 199 190 212
3 212 190 191
3 212 191 211
3 213 199 212
3 214 211 192
3 214 192 193
3 215 214 193
3 215 193 195
3 206 216 194
3 216 197 194
3 216 217 197
3 215 195 218
3 218 195 196
3 198 218 196
3 217 219 197
3 219 218 198
3 197 219 198
3 220 199 213
3 221 200 199
3 220 221 199
3 222 201 200
3 221 222 200
3 203 204 223
3 203 223 202
3 202 223 205
3 204 208 224
3 204 224 223
3 205 223 225
3 205 225 207
3 207 225 226
3 207 226 206
3 226 216 206
3 208 228 224
3 224 228 227
3 209 229 208
3 229 228 208
3 210 230 209
3 209 230 229
3 213 212 231
3 212 211 231
3 231 211 214
3 232 220 213
3 232 213 231
3 233 231 214
3 233 214 215
3 234 233 215
3 234 215 218
3 226 235 216
3 235 217 216
3 235 236 217
3 217 236 219
3 237 234 218
3 237 218 219
3 236 238 219
3 238 237 219
3 240 220 232
3 239 240 232
3 241 221 220
3 240 241 220
3 242 222 221
3 241 242 221
3 224 227 243
3 224 243 223
3 223 243 225
3 225 243 244
3 225 244 226
3 226 244 235
3 227 245 243
3 228 246 227
3 227 246 245
3 229 247 228
3 228 247 246
3 230 248 229
3 229 248 247
3 239 232 249
3 232 231 249
3 249 231 233
3 250 249 233
3 250 233 234
3 237 250 234
3 244 251 235
3 235 251 236
3 251 252 236
3 236 252 238
3 252 253 238
3 253 250 237
3 253 237 238
3 254 239 249
3 255 240 239
3 254 255 239
3 256 241 240
3 255 256 240
3 257 242 241
3 256 257 241
3 245 258 243
3 243 258 244
3 244 258 251
3 245 259 258
3 246 260 245
3 245 260 259
3 247 261 246
3 246 261 260
3 248 262 247
3 247 262 261
3 254 249 263
3 263 249 250
3 253 263 250
3 258 264 251
3 251 264 252
3 264 265 252
3 265 263 253
3 252 265 253
3 266 254 263
3 267 255 254
3 266 267 254
3 268 256 255
3 267 268 255
3 269 257 256
3 268 269 256
3 259 270 258
3 270 264 258
3 260 271 259
3 259 271 270
3 261 272 260
3 260 272 271
3 262 273 261
3 273 272 261
3 270 274 264
3 275 266 263
3 275 263 265
3 274 276 264
3 276 265 264
3 276 277 265
3 277 275 265
3 278 267 266
3 275 278 266
3 279 268 267
3 278 279 267
3 280 269 268
3 279 280 268
3 271 281 270
3 270 281 274
3 272 282 271
3 271 282 281
3 273 283 272
3 272 283 282
3 281 284 274
3 274 284 276
3 285 278 275
3 277 285 275
3 284 286 276
3 286 285 277
3 276 286 277
3 287 279 278
3 285 287 278
3 288 280 279
3 287 288 279
3 282 289 281
3 281 289 284
3 283 290 282
3 282 290 289
3 289 291 284
3 284 291 286
3 291 292 286
3 292 287 285
3 286 292 285
3 293 288 287
3 292 293 287
3 290 294 289
3 289 294 291
3 294 295 291
3 295 293 292
3 291 295 292
CELL_TYPES 542
5
5
5
5
5
5
5
5
5
5
5
5
5
5
5
5
5
5
5
5
5
5
5
5
5
5
5
5
5
5
5
5
5
5
5
5
5
5
5
5
5
5
5
5
5
5
5
5
5
5
5
5
5
5
5
5
5
5
5
5
5
5
5
5
5
5
5
5
5
5
5
5
5
5
5
5
5
5
5
5
5
5
5
5
5
5
5
5
5
5
5
5
5
5
5
5
5
5
5
5
5
5
5
5
5
5
5
5
5
5
5
5
5
5
5
5
5
5
5
5
5
5
5
5
5
5
5
5
5
5
5
5
5
5
5
5
5
5
5
5
5
5
5
5
5
5
5
5
5
5
5
5
5
5
5
5
5
5
5
5
5
5
5
5
5
5
5
5
5
5
5
5
5
5
5
5
5
5
5
5
5
5
5
5
5
5
5
5
5
5
5
5
5
5
5
5
5
5
5
5
5
5
5
5
5
5
5
5
5
5
5
5
5
5
5
5
5
5
5
5
5
5
5
5
5
5
5
5
5
5
5
5
5
5
5
5
5
5
5
5
5
5
5
5
5
5
5
5
5
5
5
5
5
5
5
5
5
5
5
5
5
5
5
5
5
5
5
5
5
5
5
5
5
5
5
5
5
5
5
5
5
5
5
5
5
5
5
5
5
5
5
5
5
5
5
5
5
5
5
5
5
5
5
5
5
5
5
5
5
5
5
5
5
5
5
5
5
5
5
5
5
5
5
5
5
5
5
5
5
5
5
5
5
5
5
5
5
5
5
5
5
5
5
5
5
5
5
5
5
5
5
5
5
5
5
5
5
5
5
5
5
5
5
5
5
5
5
5
5
5
5
5
5
5
5
5
5
5
5
5
5
5
5
5
5
5
5
5
5
5
5
5
5
5
5
5
5
5
5
5
5
5
5
5
5
5
5
5
5
5
5
5
5
5
5
5
5
5
5
5
5
5
5
5
5
5
5
5
5
5
5
5
5
5
5
5
5
5
5
5
5
5
5
5
5
5
5
5
5
5
5
5
5
5
5
5
5
5
5
5
5
5
5
5
5
5
5
5
5
5
5
5
5
5
5
5
5
5
5
5
5
5
5
5
5
5
5
5
5
5
5
5
5
5
5
5
5
5
5
5
5
5
5
5
5
5
5
5
5
5
5
5
5
5
5
5
5
5
5
5
5
5
5
5
5
5
5
5
5
5
5
5
5
5
5
5
5
5
5
5
5
5
POINT_DATA 296
SCALARS concentrations float 4
LOOKUP_TABLE default
0 0.976078 0.174101 18.2253
0 0.976069 0.173702 10.7095
0 0.976149 0.17387 8.42953
0 0.976201 0.176719 15.4778
0 0.976108 0.0955264 8.71755
0 0.97622 0.170303 13.8409
0 0.976229 0.174358 11.0753
0 0.976067 0.0967188 7.91248
0 0.976134 0.105964 8.33755
0 0.976238 0.17443 12.0469
0 0.976266 0.170589 7.57329
0 0.976223 0.173277 9.73322
0 0.976126 0.175339 13.952
0 0.976147 0.0944046 7.98627
0 0.976175 0.0940452 7.83157
0 0.976076 0.0953615 8.97782
0 0.976079 0.0971765 9.78874
0 0.976196 0.095972 9.16505
0 0.976174 0.0955541 5.28925
0 0.976081 0.0965533 8.96275
0 0.976094 0.0969513 7.31382
0 0.976185 0.172839 9.82201
0 0.976166 0.174728 5.2612
0 0.976207 0.0941166 7.25669
0 0.976191 0.0957277 6.02493
0 0.976149 0.093572 7.49355
0 0.976011 0.174326 23.5307
0 0.976063 0.0940979 7.71361
0 0.975967 0.171764 22.5901
0 0.976081 0.0940313 8.0748
0 0.976082 0.0936437 7.73339
0 0.976023 0.0943235 8.34054
0 0.976177 0.174649 17.9041
0 0.976032 0.0950848 8.65432
0 0.976045 0.0947561 6.68779
0 0.976083 0.0958077 6.89839
0 0.976085 0.0957594 7.27569
0 0.976027 0.0957402 5.13606
0 0.976023 0.0953984 8.99767
0 0.97615 0.0954349 6.99837
0 0.976134 0.0943127 8.71192
0 0.976101 0.0952055 5.77194
0 0.976103 0.0982217 8.26904
0 0.97629 0.171554 11.7924
0 0.976069 0.0943335 7.82163
0 0.976002 0.0939696 6.86398
0 0.97605 0.0948618 7.61769
0 0.976018 0.178213 19.6804
0 0.976013 0.0933588 7.48784
0 0.976009 0.175217 18.4699
0 0.976026 0.0936523 8.05481
0 0.976037 0.0937756 7.64038
0 0.976018 0.0936198 8.00241
0 0.976169 0.0941899 6.80306
0 0.976212 0.0942583 7.46774
0 0.976022 0.100905 10.1423
0 0.976026 0.0953816 8.54176
0 0.976034 0.0962263 9.54382
0 0.976017 0.0947226 6.11588
0 0.976086 0.0950053 8.19262
0 0.976063 0.0953902 7.01185
0 0.976045 0.0998593 5.11674
0 0.97605 0.0954164 8.2325
0 0.976232 0.172586 9.69216
0 0.976046 0.0939558 7.3234
0 0.976045 0.0950677 6.88198
0 0.976054 0.0978859 6.78607
0 0.97602 0.0936547 7.62131
0 0.976043 0.0938495 7.57057
0 0.976081 0.172048 20.7463
0 0.97604 0.0953949 6.74139
0 0.976029 0.169617 26.1292
0 0.976027 0.0953078 6.71072
0 0.97603 0.0935867 7.75135
0 0.976032 0.0947937 6.27712
0 0.976068 0.0953384 8.25588
0 0.976103 0.0941135 6.43713
0 0.976071 0.09411 6.26644
0 0.976028 0.0946648 7.97068
0 0.976041 0.096208 7.65219
0 0.976027 0.0944934 6.90225
0 0.976032 0.0941147 6.54362
0 0.976032 0.0955406 5.727
0 0.976023 0.0947944 8.03305
0 0.976031 0.097284 4.42616
0 0.976038 0.17419 14.3627
0 0.976048 0.0941984 7.82975
0 0.976056 0.0940773 7.14376
0 0.976038 0.0939489 7.48589
0 0.976059 0.0942159 7.42497
0 0.976061 0.0959945 7.65255
0 0.976041 0.095935 7.30422
0 0.976001 0.167599 10.8945
0 0.976016 0.0980014 6.12019
0 0.976047 0.0957283 5.90803
0 0.976042 0.0935652 7.18955
0 0.976046 0.094038 6.63303
0 0.976049 0.093442 7.04582
0 0.976097 0.174146 20.9279
0 0.975998 0.0961074 5.97458
0 0.976032 0.098205 6.57539
0 0.976034 0.0948831 6.01225
0 0.976044 0.0978364 6.11212
0 0.976058 0.0957526 5.74627
0 0.976044 0.0956167 5.59289
0 0.976035 0.0943131 6.07079
0 0.976045 0.0940784 8.05294
0 0.976022 0.0963466 5.56593
0 0.976029 0.0941016 6.16848
0 0.976024 0.169864 28.4561
0 0.976053 0.0947009 6.26569
0 0.976048 0.0948614 6.48475
0 0.976055 0.0996121 6.71015
0 0.976046 0.0944641 7.86433
0 0.976051 0.100848 8.42673
0 0.976066 0.103978 8.80436
0 0.976125 0.0953499 6.62509
0 0.976084 0.0944214 7.06349
0 0.976072 0.0952945 5.98263
0 0.976073 0.0954943 6.97368
0 0.976056 0.0943082 6.62586
0 0.976047 0.09401 7.22513
0 0.976056 0.0944684 6.78555
0 0.976098 0.100586 7.09549
0 0.976184 0.17233 15.8872
0 0.976014 0.099119 7.44352
0 0.976011 0.0967438 8.30579
0 0.976033 0.0939047 6.03232
0 0.976047 0.0974965 7.42145
0 0.976057 0.0953416 6.05256
0 0.976046 0.0939241 8.37504
0 0.976028 0.093764 6.49419
0 0.976039 0.0940208 5.80595
0 0.976066 0.0992946 8.33792
0 0.976041 0.171947 24.0623
0 0.976042 0.0939819 6.3953
0 0.976056 0.0993284 7.80233
0 0.976066 0.104765 10.9423
0 0.976059 0.0961924 7.81928
0 0.976115 0.0933695 6.37528
0 0.976066 0.103118 5.2399
0 0.976039 0.0951437 8.14331
0 0.976076 0.0949096 7.9406
0 0.976095 0.0946779 6.98496
0 0.976077 0.0959486 6.67044
0 0.976051 0.0952976 6.8065
0 0.976042 0.0961724 5.94574
0 0.976074 0.097916 6.0051
0 0.976086 0.0949065 6.5849
0 0.976046 0.0933227 6.41077
0 0.97609 0.172235 15.9619
0 0.976033 0.0936577 8.12511
0 0.976006 0.0996066 6.44936
0 0.97603 0.106696 3.56024
0 0.976043 0.0947533 5.8141
0 0.976057 0.0962631 6.00726
0 0.976051 0.0951238 8.62015
0 0.976036 0.0942348 8.43458
0 0.976087 0.0948085 8.24763
0 0.976041 0.0942873 8.24061
0 0.976237 0.0946451 7.73314
0 0.976224 0.173652 11.7668
0 0.976034 0.0949189 6.52067
0 0.976044 0.0955675 6.59298
0 0.976047 0.0938482 6.27719
0 0.976048 0.0984695 6.55629
0 0.976024 0.094666 6.59723
0 0.97603 0.0942865 7.75402
0 0.976098 0.0945806 6.83569
0 0.976066 0.101755 9.96254
0 0.976054 0.0949193 6.66652
0 0.976082 0.0941309 7.3639
0 0.97609 0.0955493 6.81032
0 0.976092 0.0942773 6.66635
0 0.976092 0.171145 24.2193
0 0.976039 0.0934847 6.58285
0 0.976015 0.0965455 5.82055
0 0.97603 0.0948873 5.85482
0 0.976091 0.0944918 7.09134
0 0.976038 0.0948761 7.27572
0 0.976065 0.0967153 6.22621
0 0.97605 0.0953541 7.35286
0 0.976089 0.100166 10.6283
0 0.976048 0.0935119 7.16201
0 0.976038 0.0929536 6.85065
0 0.976081 0.0948734 7.41426
0 0.976173 0.0944448 7.22992
0 0.976318 0.174097 12.852
0 0.976035 0.0944462 7.40027
0 0.976036 0.1022 10.3406
0 0.976024 0.0950464 6.30394
0 0.976024 0.0949597 8.25336
0 0.976048 0.0948047 6.53077
0 0.976079 0.0949408 6.1935
0 0.976077 0.0947604 7.63649
0 0.976083 0.0953528 7.37234
0 0.976091 0.094284 8.13578
0 0.976082 0.0938699 7.51804
0 0.97609 0.0948895 7.93373
0 0.976015 0.0965195 7.88103
0 0.976079 0.0953695 7.17089
0 0.976167 0.173176 13.4272
0 0.976031 0.0932894 6.85693
0 0.976041 0.0950255 6.9833
0 0.976044 0.0948601 7.52935
0 0.97603 0.0927161 6.74353
0 0.97606 0.0974795 7.68085
0 0.976044 0.0939992 7.63037
0 0.976067 0.0945508 7.3658
0 0.976121 0.0937864 7.04777
0 0.976142 0.166473 14.7255
0 0.976046 0.0965673 7.54092
0 0.976039 0.0967813 8.54411
0 0.976063 0.0976087 7.23761
0 0.976066 0.0949791 5.50604
0 0.976085 0.0936849 5.7812
0 0.976066 0.0926836 7.12211
0 0.97607 0.093003 7.428
0 0.976082 0.0944575 6.50451
0 0.976072 0.094593 7.26462
0 0.975996 0.0994084 7.51854
0 0.975936 0.0960541 6.64981
0 0.976025 0.170477 22.5967
0 0.976029 0.0934764 7.11372
0 0.976038 0.0945781 7.52362
0 0.976035 0.0927591 7.07751
0 0.97605 0.0928841 7.20481
0 0.976039 0.0934199 6.93266
0 0.976042 0.0927559 7.36204
0 0.976087 0.094194 6.86224
0 0.976158 0.167565 7.60716
0 0.976053 0.0969814 6.99052
0 0.976061 0.0967075 8.94667
0 0.976052 0.0965535 8.43714
0 0.976067 0.0937594 6.28886
0 0.976054 0.0922004 7.25674
0 0.976051 0.0938685 7.98607
0 0.976057 0.094408 6.53063
0 0.976049 0.0943 8.4381
0 0.976033 0.0956331 6.09877
0 0.975989 0.0952136 7.90801
0 0.975904 0.0944732 7.79376
0 0.975849 0.170417 30.6406
0 0.976034 0.093457 6.80047
0 0.97604 0.0929252 7.00119
0 0.976042 0.0938365 6.62482
0 0.976042 0.0931699 6.91304
0 0.975995 0.0942357 6.86685
0 0.976017 0.173118 26.1522
0 0.976042 0.0965442 9.35467
0 0.976039 0.0957091 6.13552
0 0.976037 0.0925319 7.52908
0 0.97603 0.0935775 7.82997
0 0.976031 0.0957905 7.77386
0 0.976025 0.0954009 8.18707
0 0.975986 0.0958561 7.24171
0 0.975982 0.0948637 6.13476
0 0.975934 0.172943 14.915
0 0.976035 0.092892 7.58758
0 0.97605 0.094505 6.76685
0 0.976073 0.0944489 6.52387
0 0.976041 0.0934795 6.69746
0 0.975974 0.174352 20.9123
0 0.97603 0.0955777 6.37462
0 0.97603 0.0938778 8.21313
0 0.976022 0.0955221 6.97693
0 0.976022 0.0966849 6.17158
0 0.975997 0.0951642 8.77675
0 0.976028 0.0945043 8.01102
0 0.976038 0.171754 27.9831
0 0.976048 0.0937185 7.81617
0 0.97608 0.0935492 8.02069
0 0.976097 0.0933534 6.5632
0 0.976072 0.166045 9.75034
0 0.976059 0.0946378 8.72817
0 0.97602 0.096071 6.01822
0 0.976048 0.0950856 9.08341
0 0.976039 0.0955048 8.91004
0 0.976024 0.0970774 7.78629
0 0.976103 0.0951491 6.49004
0 0.976119 0.170536 21.9042
0 0.976088 0.0937748 7.99766
0 0.976076 0.093509 8.12763
0 0.976083 0.177965 18.541
0 0.976101 0.0947944 8.47363
0 0.976056 0.098477 4.61037
0 0.976091 0.0964886 8.75826
0 0.976161 0.0959001 8.03815
0 0.97623 0.169765 10.0747
0 0.976086 0.0940229 8.55183
0 0.976052 0.17824 17.5275
0 0.976122 0.0956434 8.93663
0 0.976142 0.0963497 6.82223
0 0.976214 0.16834 19.9422
0 0.976092 0.167741 8.71169
0 0.976154 0.173574 10.0557
VECTORS fa_u float
0.00652373 0.00265299 -0
0.00626315 0.00360698 -0
0.00456103 0.00123115 -0
0.00668264 0.000957353 -0
1e-08 0 0
0.00515846 0.00397096 -0
0.00346589 0.00340842 -0
1e-08 0 0
1e-08 0 0
0.00433608 0.00546831 -0
0.00416647 0.00711266 -0
0.00666517 6.95926e-05 -0
0.00628688 -0.000753652 0
1e-08 0 0
1e-08 0 0
1e-08 0 0
1e-08 0 0
1e-08 0 0
1e-08 0 0
1e-08 0 0
1e-08 0 0
0.00268959 0.00656191 -0
0.00166106 0.00635392 -0
1e-08 0 0
1e-08 0 0
1e-08 0 0
0.0076072 -0.00198046 0
1e-08 0 0
0.0083145 -0.00354511 0
1e-08 0 0
1e-08 0 0
1e-08 0 0
0.000847707 0.0068199 -0
1e-08 0 0
1e-08 0 0
1e-08 0 0
1e-08 0 0
1e-08 0 0
1e-08 0 0
1e-08 0 0
1e-08 0 0
1e-08 0 0
1e-08 0 0
-8.07837e-05 0.00715658 -0
1e-08 0 0
1e-08 0 0
1e-08 0 0
0.00556998 -0.00337611 0
1e-08 0 0
0.00392779 -0.00308992 0
1e-08 0 0
1e-08 0 0
1e-08 0 0
1e-08 0 0
1e-08 0 0
1e-08 0 0
1e-08 0 0
1e-08 0 0
1e-08 0 0
1e-08 0 0
1e-08 0 0
1e-08 0 0
1e-08 0 0
-0.000724705 0.00522007 0
1e-08 0 0
1e-08 0 0
1e-08 0 0
1e-08 0 0
1e-08 0 0
0.00387935 -0.00386239 0
1e-08 0 0
0.00328688 -0.00415185 0
1e-08 0 0
1e-08 0 0
1e-08 0 0
1e-08 0 0
1e-08 0 0
1e-08 0 0
1e-08 0 0
1e-08 0 0
1e-08 0 0
1e-08 0 0
1e-08 0 0
1e-08 0 0
1e-08 0 0
-0.00153665 0.00581137 0
1e-08 0 0
1e-08 0 0
1e-08 0 0
1e-08 0 0
1e-08 0 0
1e-08 0 0
0.00446288 -0.0075161 0
1e-08 0 0
1e-08 0 0
1e-08 0 0
1e-08 0 0
1e-08 0 0
0.00302192 -0.0073838 0
1e-08 0 0
1e-08 0 0
1e-08 0 0
1e-08 0 0
1e-08 0 0
1e-08 0 0
1e-08 0 0
1e-08 0 0
1e-08 0 0
1e-08 0 0
-0.00265184 0.00648403 0
1e-08 0 0
1e-08 0 0
1e-08 0 0
1e-08 0 0
1e-08 0 0
1e-08 0 0
1e-08 0 0
1e-08 0 0
1e-08 0 0
1e-08 0 0
1e-08 0 0
1e-08 0 0
1e-08 0 0
1e-08 0 0
0.00153545 -0.00592552 0
1e-08 0 0
1e-08 0 0
1e-08 0 0
1e-08 0 0
1e-08 0 0
1e-08 0 0
1e-08 0 0
1e-08 0 0
1e-08 0 0
-0.00349895 0.0060672 0
1e-08 0 0
1e-08 0 0
1e-08 0 0
1e-08 0 0
1e-08 0 0
1e-08 0 0
1e-08 0 0
1e-08 0 0
1e-08 0 0
1e-08 0 0
1e-08 0 0
1e-08 0 0
1e-08 0 0
1e-08 0 0
1e-08 0 0
0.000670739 -0.00499452 0
1e-08 0 0
1e-08 0 0
1e-08 0 0
1e-08 0 0
1e-08 0 0
1e-08 0 0
1e-08 0 0
1e-08 0 0
1e-08 0 0
1e-08 0 0
-0.00432206 0.0055896 0
1e-08 0 0
1e-08 0 0
1e-08 0 0
1e-08 0 0
1e-08 0 0
1e-08 0 0
1e-08 0 0
1e-08 0 0
1e-08 0 0
1e-08 0 0
1e-08 0 0
1e-08 0 0
5.56544e-05 -0.00719399 0
1e-08 0 0
1e-08 0 0
1e-08 0 0
1e-08 0 0
1e-08 0 0
1e-08 0 0
1e-08 0 0
1e-08 0 0
1e-08 0 0
1e-08 0 0
1e-08 0 0
1e-08 0 0
-0.00335086 0.00337832 0
1e-08 0 0
1e-08 0 0
1e-08 0 0
1e-08 0 0
1e-08 0 0
1e-08 0 0
1e-08 0 0
1e-08 0 0
1e-08 0 0
1e-08 0 0
1e-08 0 0
1e-08 0 0
1e-08 0 0
-0.00086242 -0.00674868 0
1e-08 0 0
1e-08 0 0
1e-08 0 0
1e-08 0 0
1e-08 0 0
1e-08 0 0
1e-08 0 0
1e-08 0 0
-0.00497937 0.00394368 0
1e-08 0 0
1e-08 0 0
1e-08 0 0
1e-08 0 0
1e-08 0 0
1e-08 0 0
1e-08 0 0
1e-08 0 0
1e-08 0 0
1e-08 0 0
1e-08 0 0
-0.00165269 -0.00625095 0
1e-08 0 0
1e-08 0 0
1e-08 0 0
1e-08 0 0
1e-08 0 0
1e-08 0 0
1e-08 0 0
-0.00713235 0.00420074 0
1e-08 0 0
1e-08 0 0
1e-08 0 0
1e-08 0 0
1e-08 0 0
1e-08 0 0
1e-08 0 0
1e-08 0 0
1e-08 0 0
1e-08 0 0
1e-08 0 0
-0.00269009 -0.00652517 0
1e-08 0 0
1e-08 0 0
1e-08 0 0
1e-08 0 0
1e-08 0 0
-0.00668979 0.00275369 0
1e-08 0 0
1e-08 0 0
1e-08 0 0
1e-08 0 0
1e-08 0 0
1e-08 0 0
1e-08 0 0
1e-08 0 0
-0.00420673 -0.00714755 0
1e-08 0 0
1e-08 0 0
1e-08 0 0
1e-08 0 0
-0.00629466 0.00165337 0
1e-08 0 0
1e-08 0 0
1e-08 0 0
1e-08 0 0
1e-08 0 0
1e-08 0 0
-0.00370663 -0.00470019 0
1e-08 0 0
1e-08 0 0
1e-08 0 0
-0.00680179 0.000855367 0
1e-08 0 0
1e-08 0 0
1e-08 0 0
1e-08 0 0
1e-08 0 0
1e-08 0 0
-0.0035233 -0.00351404 0
1e-08 0 0
1e-08 0 0
-0.00748688 -8.40392e-05 0
1e-08 0 0
1e-08 0 0
1e-08 0 0
1e-08 0 0
-0.00571722 -0.00442739 0
1e-08 0 0
-0.00478306 -0.000659778 0
1e-08 0 0
1e-08 0 0
-0.00604852 -0.00348854 0
-0.00601687 -0.00157613 0
-0.00661954 -0.00270329 0
