# vtk DataFile Version 2.0
CellBP Time: 3.28
ASCII
DATASET UNSTRUCTURED_GRID
POINTS 296 double
-9.06823 -3.72041 0
-8.50009 -4.88325 0
-9.47363 -2.49015 0
-9.73893 -1.23422 0
-8.22813 -2.76242 0
-7.77798 -5.95958 0
-6.92241 -6.93311 0
-7.78815 -3.80392 0
-7.22015 -4.78723 0
-5.96858 -7.7988 0
-4.90937 -8.52734 0
-9.83586 0.0436135 0
-9.76473 1.3344 0
-8.53993 -1.65281 0
-8.68043 -0.517775 0
-7.46589 -1.95928 0
-7.09761 -2.84401 0
-6.54096 -5.70058 0
-5.74843 -6.52284 0
-6.66718 -3.81442 0
-6.11533 -4.60079 0
-3.7478 -9.09896 0
-2.51401 -9.50947 0
-4.85827 -7.23452 0
-3.88267 -7.818 0
-8.69432 0.63447 0
-9.52752 2.61511 0
-8.53565 1.74973 0
-9.11179 3.84278 0
-7.63089 -0.905194 0
-7.69014 0.0848139 0
-6.84289 -1.28414 0
-1.23647 -9.75663 0
-6.34082 -2.11061 0
-6.21601 -2.99948 0
-5.45382 -5.40242 0
-4.73362 -6.04467 0
-5.56906 -3.69644 0
-5.18428 -4.49395 0
-2.84279 -8.28831 0
-1.76284 -8.55183 0
-3.88897 -6.65813 0
-3.03494 -7.0873 0
0.0527995 -9.82936 0
-7.61035 1.12958 0
-8.26517 2.88988 0
-7.46276 2.08114 0
-8.51541 4.98987 0
-7.79342 3.92972 0
-7.77371 6.05251 0
-6.68035 -0.383047 0
-6.85924 0.549413 0
-5.69452 -0.988766 0
-0.586162 -8.71581 0
0.55546 -8.6619 0
-5.22925 -2.44193 0
-4.42283 -5.02942 0
-3.8512 -5.71089 0
-4.37958 -3.75694 0
-2.04432 -7.49078 0
-1.12526 -7.70597 0
-2.96133 -6.03803 0
-2.28923 -6.5573 0
1.33347 -9.7279 0
-6.60535 1.40175 0
-7.07997 3.07274 0
-6.57774 2.33841 0
-7.20456 4.91905 0
-6.6334 3.94631 0
-6.92075 7.01771 0
-6.48861 5.81227 0
-5.95704 7.87764 0
-4.41216 -1.17058 0
-5.74935 0.502559 0
-4.61567 -0.0178027 0
-0.001131 -7.75242 0
1.70629 -8.52107 0
0.92453 -7.65688 0
-4.00018 -2.38049 0
-3.47103 -1.38529 0
-3.25854 -4.75297 0
-3.24188 -3.23775 0
-1.37129 -6.60316 0
-0.514847 -6.94107 0
-1.96139 -5.48459 0
2.59992 -9.47676 0
-5.44593 2.01382 0
-6.01996 3.02882 0
-6.02659 4.79724 0
-5.68842 3.93212 0
-5.6834 6.6234 0
-5.37983 5.53601 0
-4.89889 8.61756 0
-4.77133 7.29544 0
-3.48164 -0.42121 0
-4.40784 1.2362 0
-3.6842 0.588857 0
-4.0215 2.30701 0
-3.74286 9.19088 0
2.80867 -8.19708 0
0.396642 -6.7022 0
1.97838 -7.40611 0
1.26923 -6.79907 0
-2.43549 -0.868579 0
-2.82625 -2.11929 0
-2.27945 -4.06223 0
-2.31357 -2.95275 0
-0.448426 -5.79148 0
-1.21281 -4.46277 0
3.82516 -9.06927 0
-4.73605 3.35218 0
-5.02286 4.52479 0
-4.58233 6.18383 0
-4.47993 5.27994 0
-3.79894 7.89148 0
-3.7709 6.73727 0
-2.74765 8.30861 0
-1.64229 -0.131939 0
-1.44349 -0.884214 0
-2.47885 0.512679 0
-3.22905 1.44071 0
-3.20769 3.28876 0
-2.88806 2.36616 0
-1.35212 0.632386 0
-2.51255 9.5939 0
3.86509 -7.75854 0
2.90051 -7.02827 0
0.927177 -5.73886 0
2.02411 -6.3079 0
-1.67504 -1.98466 0
-1.42452 -3.25624 0
0.0836816 -4.69626 0
-0.558717 -3.66918 0
4.85355 -7.1976 0
4.9837 -8.5012 0
-3.73284 4.49511 0
-3.6859 5.6686 0
-2.844 7.18134 0
-2.96944 6.26148 0
-1.64444 8.62521 0
-1.90892 7.51851 0
-2.31869 4.01405 0
-0.726569 -1.32316 0
-0.83351 -0.252866 0
-1.93319 1.68632 0
-2.11296 2.8652 0
-1.30229 3.52554 0
-0.870992 1.35627 0
-0.282762 0.46091 0
-0.529152 8.77274 0
-1.24051 9.83985 0
1.09273 -4.51815 0
3.83089 -6.58416 0
2.9273 -5.98532 0
2.07657 -5.34048 0
4.70719 -6.08993 0
-0.552652 -2.46704 0
0.491673 -3.43687 0
0.0542376 -1.60783 0
1.46123 -3.64136 0
5.78412 -6.50793 0
6.05921 -7.78045 0
-2.44712 5.28237 0
-2.09669 6.44526 0
-0.888484 7.71314 0
-1.2465 6.84246 0
0.089907 7.79911 0
-1.13415 4.45587 0
0.150495 -0.613609 0
-0.801693 2.49244 0
-0.338585 3.58715 0
0.0587176 1.51529 0
0.737184 0.47501 0
0.64196 8.78907 0
0.0462386 9.9383 0
2.34596 -4.22292 0
3.79293 -5.53493 0
2.94855 -5.12458 0
5.50152 -5.40159 0
4.61972 -5.1832 0
0.631409 -2.28972 0
1.24696 -2.92871 0
0.757567 -1.38858 0
2.14113 -3.10294 0
2.96073 -3.43045 0
6.08376 -4.72163 0
6.57661 -5.68829 0
7.02856 -6.9198 0
-1.00392 5.75519 0
-0.358891 6.80257 0
1.11394 7.69417 0
0.559827 7.00579 0
-0.000215394 4.69003 0
0.598228 3.80478 0
1.33512 -0.641276 0
0.531068 2.64496 0
0.958322 1.57432 0
1.903 0.212599 0
1.60538 1.06476 0
2.11644 7.51569 0
1.78539 8.63152 0
1.34012 9.85914 0
3.77004 -4.28039 0
5.05144 -4.3694 0
5.78158 -3.87569 0
3.74494 -3.1591 0
1.80528 -1.88031 0
2.99275 -2.55062 0
6.71955 -3.8985 0
7.30698 -4.84 0
7.89273 -5.96172 0
0.484271 5.82353 0
1.42069 6.67921 0
2.35799 6.61121 0
1.19902 4.52274 0
1.47664 3.37818 0
2.42313 -0.689519 0
2.81301 0.14354 0
1.77799 2.15669 0
2.60074 1.1452 0
3.05027 7.10696 0
2.88078 8.3031 0
2.61596 9.60954 0
4.85687 -3.27591 0
6.0593 -3.06576 0
4.13666 -2.25353 0
3.22217 -1.494 0
6.67482 -2.29335 0
7.17181 -3.01543 0
7.89433 -3.88089 0
8.62348 -4.90399 0
2.01001 5.55219 0
3.05148 6.09544 0
2.35126 4.09522 0
2.40459 3.04174 0
3.5021 -0.457955 0
3.59332 0.614404 0
2.94246 2.27457 0
3.51855 1.51647 0
3.95922 5.8392 0
3.94435 6.72915 0
3.9448 7.86972 0
3.84783 9.19646 0
5.52108 -1.89784 0
4.47509 -1.12076 0
6.65338 -1.32312 0
7.52566 -2.01532 0
8.32237 -2.83864 0
9.19789 -3.74496 0
3.37572 4.82823 0
3.30558 3.35508 0
4.65399 0.133002 0
4.47206 1.29529 0
4.01643 2.41831 0
4.49852 5.09121 0
4.7824 6.12465 0
4.92975 7.30854 0
5.00751 8.62328 0
5.8279 -0.433747 0
6.93531 -0.48712 0
7.68837 -1.07201 0
8.60501 -1.73109 0
9.60921 -2.51172 0
4.48625 3.78103 0
5.74472 1.07678 0
5.29199 2.49695 0
5.28873 4.55691 0
5.52813 5.45416 0
5.82293 6.59563 0
6.06459 7.89247 0
6.76125 0.447632 0
7.76563 -0.028299 0
8.77577 -0.576105 0
9.85671 -1.2344 0
6.8653 1.31832 0
5.62469 3.72094 0
6.44277 2.15346 0
6.27382 3.03409 0
6.18641 4.61679 0
6.59606 5.76032 0
7.02616 7.03269 0
7.68965 0.948664 0
8.76068 0.565548 0
9.93244 0.0575405 0
7.50777 1.96643 0
6.70378 3.83333 0
7.15023 2.89177 0
7.26841 4.81465 0
7.88706 6.06461 0
8.60781 1.70119 0
9.82904 1.33773 0
8.29406 2.78956 0
7.8644 3.85565 0
8.60767 4.98984 0
9.58131 2.60535 0
9.17542 3.83092 0
CELLS 542 2168
3 2 0 4
3 0 1 7
3 4 0 7
3 1 5 8
3 7 1 8
3 3 2 13
3 13 2 4
3 11 3 14
3 14 3 13
3 13 4 15
3 4 7 16
3 15 4 16
3 5 6 17
3 8 5 17
3 6 9 18
3 17 6 18
3 7 8 19
3 16 7 19
3 8 17 20
3 19 8 20
3 9 10 23
3 18 9 23
3 10 21 24
3 23 10 24
3 12 11 25
3 25 11 14
3 26 12 27
3 27 12 25
3 14 13 29
3 29 13 15
3 25 14 30
3 30 14 29
3 29 15 31
3 15 16 33
3 31 15 33
3 16 19 34
3 33 16 34
3 17 18 35
3 20 17 35
3 18 23 36
3 35 18 36
3 19 20 37
3 34 19 37
3 20 35 38
3 37 20 38
3 21 22 39
3 24 21 39
3 22 32 40
3 39 22 40
3 23 24 41
3 36 23 41
3 24 39 42
3 41 24 42
3 27 25 44
3 44 25 30
3 28 26 45
3 45 26 27
3 45 27 46
3 46 27 44
3 47 28 48
3 48 28 45
3 30 29 50
3 50 29 31
3 44 30 51
3 51 30 50
3 50 31 52
3 31 33 52
3 32 43 53
3 40 32 53
3 53 43 54
3 33 34 55
3 34 37 55
3 33 55 52
3 35 36 56
3 38 35 56
3 36 41 57
3 56 36 57
3 37 38 58
3 38 56 58
3 37 58 55
3 39 40 59
3 42 39 59
3 40 53 60
3 59 40 60
3 41 42 61
3 57 41 61
3 42 59 62
3 61 42 62
3 43 63 54
3 46 44 64
3 64 44 51
3 48 45 65
3 65 45 46
3 65 46 66
3 66 46 64
3 49 47 67
3 67 47 48
3 67 48 68
3 68 48 65
3 69 49 70
3 70 49 67
3 52 55 72
3 64 51 73
3 51 50 73
3 50 52 73
3 73 52 74
3 74 52 72
3 53 54 75
3 60 53 75
3 54 63 76
3 54 76 77
3 75 54 77
3 55 58 78
3 72 55 78
3 72 78 79
3 56 57 80
3 57 61 80
3 56 80 58
3 58 80 81
3 78 58 81
3 59 60 82
3 62 59 82
3 60 75 83
3 82 60 83
3 61 62 84
3 62 82 84
3 61 84 80
3 63 85 76
3 66 64 86
3 64 73 86
3 68 65 87
3 87 65 66
3 87 66 86
3 70 67 88
3 88 67 68
3 88 68 89
3 89 68 87
3 71 69 90
3 90 69 70
3 90 70 91
3 91 70 88
3 92 71 93
3 93 71 90
3 74 72 94
3 94 72 79
3 86 73 95
3 95 73 74
3 95 74 96
3 96 74 94
3 97 86 95
3 76 85 99
3 75 77 100
3 83 75 100
3 76 99 101
3 77 76 101
3 77 101 102
3 100 77 102
3 94 79 103
3 78 81 104
3 79 78 104
3 79 104 103
3 80 84 105
3 81 80 105
3 81 105 106
3 104 81 106
3 82 83 107
3 83 100 107
3 82 107 84
3 84 107 108
3 105 84 108
3 85 109 99
3 89 87 110
3 87 86 110
3 110 86 97
3 91 88 111
3 111 88 89
3 111 89 110
3 93 90 112
3 112 90 91
3 112 91 113
3 113 91 111
3 98 92 114
3 114 92 93
3 114 93 115
3 115 93 112
3 116 98 114
3 117 103 118
3 96 94 119
3 94 103 119
3 119 103 117
3 97 95 120
3 120 95 96
3 120 96 119
3 121 110 97
3 121 97 122
3 122 97 120
3 123 119 117
3 124 98 116
3 99 109 125
3 99 125 126
3 101 99 126
3 100 102 127
3 100 127 107
3 101 126 128
3 102 101 128
3 102 128 127
3 104 106 129
3 104 129 103
3 103 129 118
3 105 108 130
3 106 105 130
3 106 130 129
3 107 127 131
3 108 107 131
3 108 131 132
3 108 132 130
3 109 134 125
3 125 134 133
3 113 111 135
3 111 110 135
3 135 110 121
3 115 112 136
3 136 112 113
3 136 113 135
3 116 114 137
3 137 114 115
3 137 115 138
3 138 115 136
3 139 124 116
3 139 116 140
3 140 116 137
3 141 135 121
3 118 129 142
3 118 142 143
3 117 118 143
3 123 117 143
3 122 120 144
3 120 119 144
3 144 119 123
3 141 121 145
3 145 121 122
3 145 122 144
3 146 141 145
3 147 144 123
3 147 123 148
3 143 148 123
3 150 124 139
3 149 150 139
3 131 127 151
3 125 133 152
3 126 125 152
3 126 152 153
3 128 126 153
3 128 153 154
3 128 154 127
3 127 154 151
3 152 133 155
3 130 132 156
3 130 156 129
3 129 156 142
3 131 151 157
3 132 131 157
3 132 157 156
3 156 158 142
3 157 151 159
3 133 160 155
3 134 161 133
3 133 161 160
3 138 136 162
3 136 135 162
3 162 135 141
3 140 137 163
3 163 137 138
3 163 138 162
3 149 139 164
3 164 139 140
3 164 140 165
3 165 140 163
3 166 149 164
3 167 162 141
3 167 141 146
3 142 158 168
3 143 142 168
3 143 168 148
3 146 145 169
3 145 144 169
3 169 144 147
3 170 167 146
3 170 146 169
3 171 169 147
3 171 147 148
3 171 148 172
3 168 172 148
3 173 149 166
3 174 150 149
3 173 174 149
3 154 175 151
3 151 175 159
3 152 155 176
3 153 152 176
3 153 176 177
3 153 177 154
3 154 177 175
3 155 160 178
3 155 178 179
3 176 155 179
3 156 157 180
3 156 180 158
3 157 159 181
3 157 181 180
3 158 180 182
3 158 182 168
3 159 175 183
3 159 183 181
3 175 184 183
3 160 186 178
3 178 186 185
3 161 187 160
3 160 187 186
3 165 163 188
3 163 162 188
3 188 162 167
3 166 164 189
3 189 164 165
3 189 165 188
3 190 173 166
3 190 166 191
3 191 166 189
3 192 188 167
3 192 167 170
3 193 192 170
3 182 194 168
3 194 172 168
3 193 170 195
3 170 169 195
3 195 169 171
3 196 195 171
3 196 171 172
3 194 197 172
3 197 198 172
3 198 196 172
3 200 173 190
3 199 200 190
3 201 174 173
3 200 201 173
3 176 179 202
3 177 176 202
3 177 202 175
3 175 202 184
3 178 185 203
3 178 203 179
3 179 203 202
3 203 185 204
3 202 205 184
3 183 206 181
3 180 181 206
3 180 206 182
3 182 206 194
3 183 184 207
3 205 207 184
3 183 207 206
3 185 208 204
3 186 209 185
3 185 209 208
3 187 210 186
3 186 210 209
3 191 189 211
3 189 188 211
3 211 188 192
3 199 190 212
3 212 190 191
3 212 191 211
3 213 199 212
3 214 211 192
3 214 192 193
3 215 214 193
3 215 193 195
3 206 216 194
3 216 197 194
3 216 217 197
3 215 195 218
3 218 195 196
3 198 218 196
3 217 219 197
3 219 218 198
3 197 219 198
3 220 199 213
3 221 200 199
3 220 221 199
3 222 201 200
3 221 222 200
3 203 204 223
3 203 223 202
3 202 223 205
3 204 208 224
3 204 224 223
3 205 223 225
3 205 225 207
3 207 225 226
3 207 226 206
3 226 216 206
3 208 228 224
3 224 228 227
3 209 229 208
3 229 228 208
3 210 230 209
3 209 230 229
3 213 212 231
3 212 211 231
3 231 211 214
3 232 220 213
3 232 213 231
3 233 231 214
3 233 214 215
3 234 233 215
3 234 215 218
3 226 235 216
3 235 217 216
3 235 236 217
3 217 236 219
3 237 234 218
3 237 218 219
3 236 238 219
3 238 237 219
3 240 220 232
3 239 240 232
3 241 221 220
3 240 241 220
3 242 222 221
3 241 242 221
3 224 227 243
3 224 243 223
3 223 243 225
3 225 243 244
3 225 244 226
3 226 244 235
3 227 245 243
3 228 246 227
3 227 246 245
3 229 247 228
3 228 247 246
3 230 248 229
3 229 248 247
3 239 232 249
3 232 231 249
3 249 231 233
3 250 249 233
3 250 233 234
3 237 250 234
3 244 251 235
3 235 251 236
3 251 252 236
3 236 252 238
3 252 253 238
3 253 250 237
3 253 237 238
3 254 239 249
3 255 240 239
3 254 255 239
3 256 241 240
3 255 256 240
3 257 242 241
3 256 257 241
3 245 258 243
3 243 258 244
3 244 258 251
3 245 259 258
3 246 260 245
3 245 260 259
3 247 261 246
3 246 261 260
3 248 262 247
3 247 262 261
3 254 249 263
3 263 249 250
3 253 263 250
3 258 264 251
3 251 264 252
3 264 265 252
3 265 263 253
3 252 265 253
3 266 254 263
3 267 255 254
3 266 267 254
3 268 256 255
3 267 268 255
3 269 257 256
3 268 269 256
3 259 270 258
3 270 264 258
3 260 271 259
3 259 271 270
3 261 272 260
3 260 272 271
3 262 273 261
3 273 272 261
3 270 274 264
3 275 266 263
3 275 263 265
3 274 276 264
3 276 265 264
3 276 277 265
3 277 275 265
3 278 267 266
3 275 278 266
3 279 268 267
3 278 279 267
3 280 269 268
3 279 280 268
3 271 281 270
3 270 281 274
3 272 282 271
3 271 282 281
3 273 283 272
3 272 283 282
3 281 284 274
3 274 284 276
3 285 278 275
3 277 285 275
3 284 286 276
3 286 285 277
3 276 286 277
3 287 279 278
3 285 287 278
3 288 280 279
3 287 288 279
3 282 289 281
3 281 289 284
3 283 290 282
3 282 290 289
3 289 291 284
3 284 291 286
3 291 292 286
3 292 287 285
3 286 292 285
3 293 288 287
3 292 293 287
3 290 294 289
3 289 294 291
3 294 295 291
3 295 293 292
3 291 295 292
CELL_TYPES 542
5
5
5
5
5
5
5
5
5
5
5
5
5
5
5
5
5
5
5
5
5
5
5
5
5
5
5
5
5
5
5
5
5
5
5
5
5
5
5
5
5
5
5
5
5
5
5
5
5
5
5
5
5
5
5
5
5
5
5
5
5
5
5
5
5
5
5
5
5
5
5
5
5
5
5
5
5
5
5
5
5
5
5
5
5
5
5
5
5
5
5
5
5
5
5
5
5
5
5
5
5
5
5
5
5
5
5
5
5
5
5
5
5
5
5
5
5
5
5
5
5
5
5
5
5
5
5
5
5
5
5
5
5
5
5
5
5
5
5
5
5
5
5
5
5
5
5
5
5
5
5
5
5
5
5
5
5
5
5
5
5
5
5
5
5
5
5
5
5
5
5
5
5
5
5
5
5
5
5
5
5
5
5
5
5
5
5
5
5
5
5
5
5
5
5
5
5
5
5
5
5
5
5
5
5
5
5
5
5
5
5
5
5
5
5
5
5
5
5
5
5
5
5
5
5
5
5
5
5
5
5
5
5
5
5
5
5
5
5
5
5
5
5
5
5
5
5
5
5
5
5
5
5
5
5
5
5
5
5
5
5
5
5
5
5
5
5
5
5
5
5
5
5
5
5
5
5
5
5
5
5
5
5
5
5
5
5
5
5
5
5
5
5
5
5
5
5
5
5
5
5
5
5
5
5
5
5
5
5
5
5
5
5
5
5
5
5
5
5
5
5
5
5
5
5
5
5
5
5
5
5
5
5
5
5
5
5
5
5
5
5
5
5
5
5
5
5
5
5
5
5
5
5
5
5
5
5
5
5
5
5
5
5
5
5
5
5
5
5
5
5
5
5
5
5
5
5
5
5
5
5
5
5
5
5
5
5
5
5
5
5
5
5
5
5
5
5
5
5
5
5
5
5
5
5
5
5
5
5
5
5
5
5
5
5
5
5
5
5
5
5
5
5
5
5
5
5
5
5
5
5
5
5
5
5
5
5
5
5
5
5
5
5
5
5
5
5
5
5
5
5
5
5
5
5
5
5
5
5
5
5
5
5
5
5
5
5
5
5
5
5
5
5
5
5
5
5
5
5
5
5
5
5
5
5
5
5
5
5
5
5
5
5
5
5
5
5
5
5
5
5
5
5
5
5
5
5
5
5
5
5
5
5
5
5
5
5
5
5
5
5
5
5
5
5
5
5
5
5
5
5
5
5
5
5
5
5
5
5
5
5
5
POINT_DATA 296
SCALARS concentrations float 4
LOOKUP_TABLE default
0 0.976807 0.172398 7.14843
0 0.976781 0.174408 18.0469
0 0.976733 0.179944 19.4881
0 0.97667 0.176418 12.0625
0 0.976764 0.0953496 6.72361
0 0.976658 0.171983 20.5968
0 0.976636 0.17598 14.0724
0 0.976789 0.0978391 5.2426
0 0.976747 0.10535 7.77636
0 0.976592 0.177226 16.5512
0 0.976605 0.176198 25.8026
0 0.976632 0.175891 20.8828
0 0.976701 0.17404 21.4336
0 0.97672 0.0950469 7.49498
0 0.976675 0.0945826 8.24946
0 0.976723 0.0954267 7.69374
0 0.976729 0.0970537 8.84443
0 0.976696 0.096183 7.44753
0 0.976673 0.0953677 7.29947
0 0.976745 0.0969474 5.61516
0 0.976749 0.0962272 6.72889
0 0.976701 0.174511 20.8362
0 0.97667 0.179531 23.5469
0 0.976636 0.0949203 6.51211
0 0.97667 0.0960173 7.35263
0 0.976668 0.0941349 8.2008
0 0.976816 0.174025 12.5379
0 0.976734 0.0946131 8.8504
0 0.976854 0.173262 12.2882
0 0.976712 0.0945231 6.97471
0 0.976689 0.0937156 7.19079
0 0.976675 0.0949703 7.36445
0 0.976653 0.169576 8.67895
0 0.976675 0.0951122 8.51073
0 0.976692 0.0950198 8.0799
0 0.976719 0.0953464 6.98949
0 0.976703 0.0956577 7.00549
0 0.976692 0.095283 7.43198
0 0.976685 0.0957134 8.0218
0 0.97669 0.0957164 6.65977
0 0.976679 0.0952643 6.29573
0 0.976692 0.0957595 8.08995
0 0.976684 0.0989994 5.07008
0 0.976614 0.173844 20.6426
0 0.976686 0.0947193 9.02759
0 0.976795 0.0941645 5.86605
0 0.976703 0.095621 9.32639
0 0.976755 0.175845 17.8223
0 0.976764 0.0938105 7.96236
0 0.976642 0.174663 18.9244
0 0.97667 0.0941463 7.81906
0 0.976673 0.0940988 7.56543
0 0.976653 0.0938904 7.70651
0 0.976671 0.0951074 6.32881
0 0.976699 0.0945369 7.43572
0 0.976654 0.105339 4.69768
0 0.976682 0.0959864 8.06499
0 0.97669 0.0957964 6.43341
0 0.976666 0.0955401 8.06706
0 0.97669 0.0957339 7.10664
0 0.976709 0.0962534 7.76053
0 0.976689 0.0994915 7.90596
0 0.976694 0.0964557 6.48463
0 0.976774 0.172252 16.4545
0 0.976678 0.0941491 6.81441
0 0.976698 0.0958489 5.32054
0 0.976669 0.0997723 7.23727
0 0.976686 0.0942049 8.17614
0 0.976677 0.0942416 7.68742
0 0.976611 0.172692 28.6466
0 0.97661 0.0963012 6.66549
0 0.97681 0.175217 8.12628
0 0.97665 0.0947595 6.05756
0 0.976663 0.0941664 8.01507
0 0.976667 0.0943143 6.15604
0 0.976718 0.0955423 6.26476
0 0.97682 0.0954233 8.37187
0 0.976741 0.0943595 7.25089
0 0.976654 0.0947385 7.48212
0 0.976667 0.0953058 7.03582
0 0.976669 0.0953843 6.21858
0 0.976672 0.0941962 6.91219
0 0.976683 0.0967865 5.13795
0 0.976683 0.0954375 7.69341
0 0.976665 0.0964939 7.87137
0 0.976846 0.172745 5.2346
0 0.976671 0.0950201 9.15023
0 0.976663 0.0947891 8.92071
0 0.976645 0.0951116 6.49063
0 0.976664 0.0953811 6.11567
0 0.976688 0.0968329 8.81669
0 0.976649 0.0966846 8.44251
0 0.97689 0.173152 4.14452
0 0.976814 0.101866 7.04689
0 0.97668 0.0955473 6.06408
0 0.976676 0.0941036 8.30292
0 0.976683 0.0945461 6.18055
0 0.976682 0.0940075 8.19516
0 0.976758 0.172396 17.2383
0 0.976776 0.0972242 7.45153
0 0.976686 0.0999886 9.65127
0 0.976748 0.0955566 8.08707
0 0.976688 0.0996421 8.63757
0 0.976687 0.0956203 7.3491
0 0.976677 0.0950014 6.92201
0 0.976669 0.0949392 6.29394
0 0.976685 0.0930176 7.10361
0 0.976662 0.0975982 7.35302
0 0.976665 0.0942661 6.58595
0 0.976669 0.171948 18.7894
0 0.976671 0.0952843 6.55244
0 0.976658 0.0955369 8.29985
0 0.976691 0.101669 5.91377
0 0.976664 0.0957332 8.27039
0 0.976796 0.100442 4.83941
0 0.976725 0.10221 5.73673
0 0.976682 0.0964922 8.42102
0 0.976698 0.0946153 6.16986
0 0.976705 0.0954657 6.1027
0 0.976697 0.0961948 5.80437
0 0.976693 0.0945518 5.6821
0 0.976681 0.0939948 6.35693
0 0.976694 0.0951285 5.39966
0 0.976724 0.100974 5.12104
0 0.976706 0.170896 26.8833
0 0.976652 0.0986017 6.927
0 0.976706 0.0989605 7.62879
0 0.976659 0.0939911 6.87031
0 0.976673 0.0992265 8.89777
0 0.976696 0.0944025 7.17177
0 0.976685 0.093705 6.98852
0 0.976665 0.09368 6.83352
0 0.976673 0.0945963 6.53592
0 0.976646 0.102396 5.73493
0 0.976546 0.172794 23.4843
0 0.976665 0.0941874 7.94033
0 0.976679 0.100793 7.8964
0 0.976704 0.103972 5.05386
0 0.976692 0.097397 9.69038
0 0.976728 0.0939621 7.6356
0 0.976677 0.102381 11.0072
0 0.976675 0.096207 7.94343
0 0.97671 0.0941762 6.80713
0 0.976714 0.0948402 6.01522
0 0.976722 0.0961754 7.50608
0 0.976696 0.0945962 6.26575
0 0.976679 0.0963096 5.63973
0 0.97674 0.0979645 6.99832
0 0.976726 0.0945387 6.98275
0 0.976804 0.0936259 7.80176
0 0.976845 0.170166 14.1746
0 0.976654 0.0931372 7.19374
0 0.976699 0.0975515 7.60009
0 0.97668 0.107002 9.32504
0 0.976669 0.095373 7.05662
0 0.976732 0.0965861 8.11223
0 0.976694 0.0943994 7.67604
0 0.97667 0.093573 7.19651
0 0.976716 0.0954227 7.75026
0 0.976666 0.0937715 7.09619
0 0.97668 0.0941361 7.19115
0 0.976608 0.171228 13.8102
0 0.97667 0.0951019 7.60148
0 0.976681 0.0968048 7.25609
0 0.976695 0.0942123 7.93228
0 0.976666 0.101043 5.99838
0 0.976731 0.0944809 7.96876
0 0.976676 0.0940403 6.86495
0 0.976719 0.0955784 6.70738
0 0.976702 0.10042 6.90033
0 0.976678 0.0948121 7.0668
0 0.976723 0.0942054 7.44826
0 0.97673 0.0952495 6.88969
0 0.976785 0.0941706 8.12957
0 0.976837 0.172513 6.18472
0 0.976664 0.0937579 6.91603
0 0.976698 0.0970863 8.07724
0 0.976696 0.0948056 7.54232
0 0.976722 0.0956077 7.57812
0 0.976695 0.0946904 7.9167
0 0.976693 0.0974175 6.08253
0 0.976676 0.0948656 7.22077
0 0.976703 0.099488 7.05766
0 0.976671 0.0932607 6.53022
0 0.976664 0.0933222 6.96888
0 0.976692 0.0942206 7.559
0 0.976651 0.0945927 8.01388
0 0.976623 0.177596 25.5667
0 0.976673 0.0941088 8.15183
0 0.976681 0.10013 5.79836
0 0.976743 0.0952549 8.83194
0 0.976697 0.0947226 6.12306
0 0.976686 0.0939392 6.35999
0 0.976691 0.0933322 6.16786
0 0.976713 0.094381 6.76804
0 0.976696 0.0938382 8.24762
0 0.976719 0.0938629 8.21408
0 0.976728 0.0944343 7.23121
0 0.976726 0.0942484 8.32984
0 0.976744 0.096211 6.20259
0 0.976777 0.0947924 5.8855
0 0.976787 0.175721 17.3729
0 0.976669 0.0935547 7.39533
0 0.976681 0.0946363 7.16601
0 0.976674 0.0942743 7.25486
0 0.976661 0.0931859 6.88776
0 0.976689 0.0980289 6.66393
0 0.976677 0.0936987 6.68197
0 0.976675 0.0939133 7.21839
0 0.976665 0.0934829 7.29011
0 0.976602 0.16752 10.6105
0 0.976684 0.0988022 4.89538
0 0.976698 0.0989086 8.43195
0 0.976701 0.0980141 6.82344
0 0.976694 0.0938921 6.05928
0 0.976696 0.0934114 6.00357
0 0.976712 0.092957 7.00927
0 0.976713 0.0936731 8.02271
0 0.9767 0.0945779 6.18329
0 0.976705 0.0939997 6.4402
0 0.976757 0.0985035 5.4846
0 0.976767 0.0965121 7.50985
0 0.97678 0.170649 8.58124
0 0.976662 0.0929432 7.07199
0 0.976662 0.093806 6.94334
0 0.976672 0.092839 6.7715
0 0.976693 0.0930625 6.72916
0 0.976654 0.093846 6.43853
0 0.976671 0.0930151 7.25891
0 0.976746 0.0940697 7.19557
0 0.976738 0.171299 28.291
0 0.976685 0.0965078 7.34485
0 0.976687 0.0972707 8.2342
0 0.976685 0.0976624 6.42086
0 0.976681 0.0941556 6.17479
0 0.976698 0.092531 7.48282
0 0.976692 0.0941364 8.56764
0 0.976677 0.0948825 6.10036
0 0.976679 0.09472 9.10988
0 0.976685 0.0950562 8.55205
0 0.97676 0.0943803 6.02065
0 0.97681 0.0936312 6.2243
0 0.976764 0.174374 16.9735
0 0.976662 0.0937045 6.9137
0 0.976678 0.093882 7.54508
0 0.976651 0.0945177 6.9288
0 0.976657 0.0933875 6.53548
0 0.976733 0.0942289 7.33614
0 0.9768 0.176101 10.3943
0 0.976668 0.0970451 9.22392
0 0.976663 0.0965396 5.83534
0 0.976675 0.0925746 7.91344
0 0.976669 0.0935086 8.38378
0 0.976659 0.0957366 5.90703
0 0.976686 0.0946047 6.40542
0 0.976758 0.0949364 7.62531
0 0.976821 0.0950405 6.17526
0 0.976862 0.16818 8.21287
0 0.976663 0.0933489 7.57486
0 0.976646 0.0936333 6.28172
0 0.976632 0.0941309 7.35591
0 0.976706 0.0930499 6.50294
0 0.976778 0.174317 16.071
0 0.97666 0.0943321 8.61932
0 0.976666 0.094008 8.2701
0 0.976665 0.0944465 8.44243
0 0.976695 0.0957707 8.98813
0 0.976753 0.0945614 7.0501
0 0.97674 0.0939463 6.7594
0 0.976764 0.175493 14.577
0 0.976654 0.0935702 8.23777
0 0.976622 0.0937246 7.68186
0 0.976618 0.0928529 6.16727
0 0.976699 0.170001 23.5718
0 0.976663 0.094375 6.40979
0 0.976685 0.095316 8.38668
0 0.976672 0.0947496 6.06153
0 0.976687 0.0954571 9.09457
0 0.97675 0.0964253 7.23038
0 0.976724 0.0946869 7.61482
0 0.976678 0.173024 11.4212
0 0.976647 0.0933028 8.54591
0 0.976614 0.0930472 8.44714
0 0.976585 0.174017 22.4638
0 0.97668 0.0944829 8.88493
0 0.97674 0.0984326 6.24632
0 0.976712 0.0957809 8.64565
0 0.976737 0.0956171 8.81697
0 0.976693 0.174224 15.5336
0 0.976727 0.0934885 8.64954
0 0.976689 0.177501 17.0049
0 0.976782 0.0952822 9.51206
0 0.97676 0.0960308 8.91326
0 0.976735 0.169653 11.8235
0 0.976827 0.168559 16.2278
0 0.97681 0.172256 14.394
VECTORS fa_u float
0.00660522 0.00268708 -0
0.00620438 0.00357507 -0
0.00453003 0.00122206 -0
0.00674691 0.00096455 -0
1e-08 0 0
0.00515407 0.00396684 -0
0.00350063 0.00344387 -0
1e-08 0 0
1e-08 0 0
0.00434732 0.00548935 -0
0.00410946 0.00701931 -0
0.00661835 6.64781e-05 -0
0.00625576 -0.000750114 0
1e-08 0 0
1e-08 0 0
1e-08 0 0
1e-08 0 0
1e-08 0 0
1e-08 0 0
1e-08 0 0
1e-08 0 0
0.00269825 0.00658091 -0
0.00164219 0.00627075 -0
1e-08 0 0
1e-08 0 0
1e-08 0 0
0.00762202 -0.00198404 0
1e-08 0 0
0.00827006 -0.00352466 0
1e-08 0 0
1e-08 0 0
1e-08 0 0
0.000863008 0.00692483 -0
1e-08 0 0
1e-08 0 0
1e-08 0 0
1e-08 0 0
1e-08 0 0
1e-08 0 0
1e-08 0 0
1e-08 0 0
1e-08 0 0
1e-08 0 0
-7.92469e-05 0.00708938 -0
1e-08 0 0
1e-08 0 0
1e-08 0 0
0.00555755 -0.0033653 0
1e-08 0 0
0.0039692 -0.00312131 0
1e-08 0 0
1e-08 0 0
1e-08 0 0
1e-08 0 0
1e-08 0 0
1e-08 0 0
1e-08 0 0
1e-08 0 0
1e-08 0 0
1e-08 0 0
1e-08 0 0
1e-08 0 0
1e-08 0 0
-0.000723096 0.00522358 0
1e-08 0 0
1e-08 0 0
1e-08 0 0
1e-08 0 0
1e-08 0 0
0.00384675 -0.00382893 0
1e-08 0 0
0.00335399 -0.00423873 0
1e-08 0 0
1e-08 0 0
1e-08 0 0
1e-08 0 0
1e-08 0 0
1e-08 0 0
1e-08 0 0
1e-08 0 0
1e-08 0 0
1e-08 0 0
1e-08 0 0
1e-08 0 0
1e-08 0 0
-0.00154876 0.00585918 0
1e-08 0 0
1e-08 0 0
1e-08 0 0
1e-08 0 0
1e-08 0 0
1e-08 0 0
0.00441541 -0.00744461 0
1e-08 0 0
1e-08 0 0
1e-08 0 0
1e-08 0 0
1e-08 0 0
0.00301723 -0.00737459 0
1e-08 0 0
1e-08 0 0
1e-08 0 0
1e-08 0 0
1e-08 0 0
1e-08 0 0
1e-08 0 0
1e-08 0 0
1e-08 0 0
1e-08 0 0
-0.00265669 0.00649159 0
1e-08 0 0
1e-08 0 0
1e-08 0 0
1e-08 0 0
1e-08 0 0
1e-08 0 0
1e-08 0 0
1e-08 0 0
1e-08 0 0
1e-08 0 0
1e-08 0 0
1e-08 0 0
1e-08 0 0
1e-08 0 0
0.00152318 -0.00587314 0
1e-08 0 0
1e-08 0 0
1e-08 0 0
1e-08 0 0
1e-08 0 0
1e-08 0 0
1e-08 0 0
1e-08 0 0
1e-08 0 0
-0.00348457 0.00604018 0
1e-08 0 0
1e-08 0 0
1e-08 0 0
1e-08 0 0
1e-08 0 0
1e-08 0 0
1e-08 0 0
1e-08 0 0
1e-08 0 0
1e-08 0 0
1e-08 0 0
1e-08 0 0
1e-08 0 0
1e-08 0 0
1e-08 0 0
0.00067596 -0.00502222 0
1e-08 0 0
1e-08 0 0
1e-08 0 0
1e-08 0 0
1e-08 0 0
1e-08 0 0
1e-08 0 0
1e-08 0 0
1e-08 0 0
1e-08 0 0
-0.00432932 0.00559812 0
1e-08 0 0
1e-08 0 0
1e-08 0 0
1e-08 0 0
1e-08 0 0
1e-08 0 0
1e-08 0 0
1e-08 0 0
1e-08 0 0
1e-08 0 0
1e-08 0 0
1e-08 0 0
5.43782e-05 -0.00727603 0
1e-08 0 0
1e-08 0 0
1e-08 0 0
1e-08 0 0
1e-08 0 0
1e-08 0 0
1e-08 0 0
1e-08 0 0
1e-08 0 0
1e-08 0 0
1e-08 0 0
1e-08 0 0
-0.00333475 0.00336187 0
1e-08 0 0
1e-08 0 0
1e-08 0 0
1e-08 0 0
1e-08 0 0
1e-08 0 0
1e-08 0 0
1e-08 0 0
1e-08 0 0
1e-08 0 0
1e-08 0 0
1e-08 0 0
1e-08 0 0
-0.000849724 -0.00664176 0
1e-08 0 0
1e-08 0 0
1e-08 0 0
1e-08 0 0
1e-08 0 0
1e-08 0 0
1e-08 0 0
1e-08 0 0
-0.00507595 0.00401611 0
1e-08 0 0
1e-08 0 0
1e-08 0 0
1e-08 0 0
1e-08 0 0
1e-08 0 0
1e-08 0 0
1e-08 0 0
1e-08 0 0
1e-08 0 0
1e-08 0 0
-0.00166403 -0.00629707 0
1e-08 0 0
1e-08 0 0
1e-08 0 0
1e-08 0 0
1e-08 0 0
1e-08 0 0
1e-08 0 0
-0.00694069 0.00408646 0
1e-08 0 0
1e-08 0 0
1e-08 0 0
1e-08 0 0
1e-08 0 0
1e-08 0 0
1e-08 0 0
1e-08 0 0
1e-08 0 0
1e-08 0 0
1e-08 0 0
-0.00268935 -0.00652134 0
1e-08 0 0
1e-08 0 0
1e-08 0 0
1e-08 0 0
1e-08 0 0
-0.00678121 0.00279419 0
1e-08 0 0
1e-08 0 0
1e-08 0 0
1e-08 0 0
1e-08 0 0
1e-08 0 0
1e-08 0 0
1e-08 0 0
-0.0041645 -0.00707953 0
1e-08 0 0
1e-08 0 0
1e-08 0 0
1e-08 0 0
-0.00631317 0.00165671 0
1e-08 0 0
1e-08 0 0
1e-08 0 0
1e-08 0 0
1e-08 0 0
1e-08 0 0
-0.00372317 -0.00472516 0
1e-08 0 0
1e-08 0 0
1e-08 0 0
-0.00672214 0.000845706 0
1e-08 0 0
1e-08 0 0
1e-08 0 0
1e-08 0 0
1e-08 0 0
1e-08 0 0
-0.0035732 -0.00356267 0
1e-08 0 0
1e-08 0 0
-0.00747845 -8.0456e-05 0
1e-08 0 0
1e-08 0 0
1e-08 0 0
1e-08 0 0
-0.00564474 -0.00436996 0
1e-08 0 0
-0.00484593 -0.000667862 0
1e-08 0 0
1e-08 0 0
-0.0060947 -0.00351533 0
-0.00600367 -0.00157395 0
-0.00657974 -0.00268666 0
