# vtk DataFile Version 2.0
CellBP Time: 5.28
ASCII
DATASET UNSTRUCTURED_GRID
POINTS 296 double
-9.0017 -3.68951 0
-8.43946 -4.84676 0
-9.39943 -2.46378 0
-9.67015 -1.22261 0
-8.15826 -2.7327 0
-7.72008 -5.91709 0
-6.86806 -6.885 0
-7.71783 -3.76618 0
-7.15489 -4.74311 0
-5.92999 -7.75189 0
-4.88722 -8.48256 0
-9.77335 0.0404378 0
-9.71019 1.32324 0
-8.47329 -1.63395 0
-8.62222 -0.510745 0
-7.39982 -1.93504 0
-7.02963 -2.80974 0
-6.48937 -5.65723 0
-5.7091 -6.48003 0
-6.60161 -3.77497 0
-6.05877 -4.5605 0
-3.73175 -9.04982 0
-2.50087 -9.455 0
-4.82846 -7.19221 0
-3.8672 -7.77741 0
-8.63899 0.63151 0
-9.48245 2.60246 0
-8.48681 1.73661 0
-9.06966 3.82398 0
-7.57077 -0.892587 0
-7.63461 0.0878925 0
-6.78479 -1.26738 0
-1.22613 -9.69663 0
-6.28507 -2.08702 0
-6.15919 -2.96859 0
-5.40805 -5.3655 0
-4.6986 -6.00698 0
-5.51893 -3.66542 0
-5.13664 -4.45843 0
-2.83038 -8.24253 0
-1.75505 -8.50299 0
-3.86523 -6.61864 0
-3.02109 -7.05225 0
0.0541643 -9.76266 0
-7.55821 1.12107 0
-8.22357 2.87656 0
-7.41442 2.06453 0
-8.4641 4.95713 0
-7.74607 3.90251 0
-7.71386 6.00567 0
-6.62781 -0.375587 0
-6.80637 0.547682 0
-5.65426 -0.979999 0
-0.581096 -8.6607 0
0.550099 -8.6006 0
-5.19076 -2.4193 0
-4.3832 -4.99248 0
-3.82214 -5.67493 0
-4.34645 -3.72996 0
-2.03489 -7.45057 0
-1.12156 -7.66014 0
-2.94368 -6.00303 0
-2.27989 -6.52178 0
1.32133 -9.6519 0
-6.5599 1.39053 0
-7.03068 3.04889 0
-6.53235 2.32064 0
-7.15505 4.88199 0
-6.58799 3.91508 0
-6.86678 6.96142 0
-6.44163 5.77012 0
-5.91328 7.81948 0
-4.39049 -1.16526 0
-5.7121 0.497549 0
-4.5935 -0.0220599 0
-0.00725239 -7.70073 0
1.68958 -8.45226 0
0.91071 -7.59922 0
-3.97871 -2.36612 0
-3.46176 -1.38238 0
-3.23767 -4.72452 0
-3.228 -3.22052 0
-1.36718 -6.56391 0
-0.517895 -6.89405 0
-1.95339 -5.45497 0
2.57855 -9.40286 0
-5.41123 2.00163 0
-5.97896 3.0044 0
-5.98505 4.75939 0
-5.64882 3.89883 0
-5.6387 6.57302 0
-5.34089 5.49212 0
-4.87076 8.56582 0
-4.7341 7.23635 0
-3.47132 -0.420966 0
-4.3835 1.22975 0
-3.66879 0.585714 0
-3.99853 2.29922 0
-3.72442 9.13719 0
2.77988 -8.12315 0
0.384118 -6.65117 0
1.9534 -7.34181 0
1.24802 -6.74241 0
-2.43085 -0.865275 0
-2.81965 -2.11223 0
-2.27052 -4.04218 0
-2.30697 -2.93899 0
-0.453136 -5.75245 0
-1.20799 -4.44187 0
3.7966 -9.00314 0
-4.70602 3.32802 0
-4.9878 4.48794 0
-4.54799 6.13246 0
-4.4465 5.23645 0
-3.77379 7.83741 0
-3.73958 6.67842 0
-2.72905 8.24654 0
-1.6387 -0.130005 0
-1.43995 -0.881798 0
-2.47497 0.514904 0
-3.21539 1.43816 0
-3.19105 3.2706 0
-2.87509 2.36213 0
-1.3525 0.635865 0
-2.49881 9.53079 0
3.82683 -7.68844 0
2.86449 -6.95728 0
0.911993 -5.69304 0
1.99627 -6.24979 0
-1.67 -1.97961 0
-1.41796 -3.2434 0
0.0806025 -4.67072 0
-0.553487 -3.65591 0
4.80931 -7.13101 0
4.94702 -8.44063 0
-3.70804 4.46288 0
-3.65755 5.62453 0
-2.81983 7.12201 0
-2.94668 6.21255 0
-1.63264 8.56436 0
-1.89383 7.46228 0
-2.30632 3.9932 0
-0.724216 -1.31947 0
-0.832504 -0.250611 0
-1.93037 1.68819 0
-2.10684 2.85852 0
-1.29973 3.51481 0
-0.873114 1.36076 0
-0.283295 0.46485 0
-0.52686 8.71535 0
-1.23259 9.77142 0
1.08087 -4.48513 0
3.78751 -6.51061 0
2.89329 -5.92498 0
2.05304 -5.29313 0
4.66511 -6.027 0
-0.54989 -2.46101 0
0.489247 -3.42145 0
0.0558326 -1.60548 0
1.44903 -3.6176 0
5.73573 -6.4499 0
6.01597 -7.72304 0
-2.42913 5.24614 0
-2.07807 6.39716 0
-0.882208 7.66219 0
-1.23455 6.79397 0
0.0915371 7.75229 0
-1.1284 4.43478 0
0.150296 -0.611132 0
-0.804674 2.4936 0
-0.342328 3.57977 0
0.0556116 1.51719 0
0.734165 0.477339 0
0.640247 8.73857 0
0.0441062 9.87582 0
2.32584 -4.18797 0
3.75694 -5.47755 0
2.92048 -5.07569 0
5.46065 -5.35072 0
4.58037 -5.12768 0
0.632504 -2.28585 0
1.24114 -2.91502 0
0.757298 -1.38773 0
2.12757 -3.0831 0
2.94105 -3.40409 0
6.04346 -4.68382 0
6.53028 -5.6449 0
6.97795 -6.86394 0
-0.993364 5.71905 0
-0.35271 6.75862 0
1.10716 7.65188 0
0.560679 6.96431 0
-0.00166167 4.66949 0
0.592328 3.79315 0
1.3313 -0.639917 0
0.525421 2.64004 0
0.953353 1.57512 0
1.89826 0.212273 0
1.59853 1.06475 0
2.10712 7.47821 0
1.77817 8.5841 0
1.33174 9.80118 0
3.74078 -4.24099 0
5.01437 -4.32458 0
5.74453 -3.8413 0
3.72061 -3.1346 0
1.79982 -1.87795 0
2.97675 -2.53661 0
6.68286 -3.87091 0
7.2639 -4.80693 0
7.84227 -5.91965 0
0.484926 5.79091 0
1.41491 6.64459 0
2.34667 6.57861 0
1.19094 4.50499 0
1.47017 3.36679 0
2.41532 -0.686824 0
2.80503 0.142738 0
1.77216 2.15288 0
2.59232 1.14153 0
3.03622 7.07223 0
2.8689 8.2616 0
2.60348 9.55435 0
4.82593 -3.2475 0
6.02526 -3.04146 0
4.11628 -2.24069 0
3.20937 -1.48873 0
6.64232 -2.28168 0
7.13772 -3.00097 0
7.85567 -3.86124 0
8.57645 -4.87879 0
2.00183 5.52521 0
3.03089 6.0609 0
2.34373 4.07696 0
2.39643 3.03072 0
3.48852 -0.455885 0
3.58183 0.615004 0
2.93172 2.26602 0
3.50249 1.51089 0
3.92915 5.80502 0
3.91877 6.69067 0
3.92929 7.82894 0
3.83158 9.14569 0
5.49463 -1.88663 0
4.45549 -1.11548 0
6.61932 -1.31543 0
7.48857 -2.00388 0
8.2797 -2.82502 0
9.14763 -3.7275 0
3.35022 4.79864 0
3.28455 3.33814 0
4.63303 0.134416 0
4.44645 1.28798 0
3.98963 2.40357 0
4.45838 5.05589 0
4.74666 6.08616 0
4.89803 7.26633 0
4.98323 8.57479 0
5.79479 -0.434062 0
6.89408 -0.48931 0
7.64664 -1.06511 0
8.55897 -1.72277 0
9.55422 -2.49761 0
4.44922 3.75431 0
5.70469 1.06345 0
5.24702 2.47523 0
5.23739 4.52102 0
5.4814 5.41561 0
5.78289 6.55128 0
6.0244 7.84277 0
6.71497 0.436759 0
7.71731 -0.0290786 0
8.7257 -0.569122 0
9.79798 -1.22371 0
6.81296 1.30176 0
5.57127 3.68794 0
6.38717 2.1296 0
6.21432 3.00306 0
6.12748 4.57669 0
6.54104 5.717 0
6.97357 6.98416 0
7.63514 0.937254 0
8.70456 0.561679 0
9.86768 0.0607401 0
7.44565 1.947 0
6.63383 3.79346 0
7.08239 2.861 0
7.20619 4.77366 0
7.83339 6.02395 0
8.54165 1.68826 0
9.75512 1.32757 0
8.22195 2.76451 0
7.79925 3.82332 0
8.55097 4.95639 0
9.51079 2.58684 0
9.11292 3.80545 0
CELLS 542 2168
3 2 0 4
3 0 1 7
3 4 0 7
3 1 5 8
3 7 1 8
3 3 2 13
3 13 2 4
3 11 3 14
3 14 3 13
3 13 4 15
3 4 7 16
3 15 4 16
3 5 6 17
3 8 5 17
3 6 9 18
3 17 6 18
3 7 8 19
3 16 7 19
3 8 17 20
3 19 8 20
3 9 10 23
3 18 9 23
3 10 21 24
3 23 10 24
3 12 11 25
3 25 11 14
3 26 12 27
3 27 12 25
3 14 13 29
3 29 13 15
3 25 14 30
3 30 14 29
3 29 15 31
3 15 16 33
3 31 15 33
3 16 19 34
3 33 16 34
3 17 18 35
3 20 17 35
3 18 23 36
3 35 18 36
3 19 20 37
3 34 19 37
3 20 35 38
3 37 20 38
3 21 22 39
3 24 21 39
3 22 32 40
3 39 22 40
3 23 24 41
3 36 23 41
3 24 39 42
3 41 24 42
3 27 25 44
3 44 25 30
3 28 26 45
3 45 26 27
3 45 27 46
3 46 27 44
3 47 28 48
3 48 28 45
3 30 29 50
3 50 29 31
3 44 30 51
3 51 30 50
3 50 31 52
3 31 33 52
3 32 43 53
3 40 32 53
3 53 43 54
3 33 34 55
3 34 37 55
3 33 55 52
3 35 36 56
3 38 35 56
3 36 41 57
3 56 36 57
3 37 38 58
3 38 56 58
3 37 58 55
3 39 40 59
3 42 39 59
3 40 53 60
3 59 40 60
3 41 42 61
3 57 41 61
3 42 59 62
3 61 42 62
3 43 63 54
3 46 44 64
3 64 44 51
3 48 45 65
3 65 45 46
3 65 46 66
3 66 46 64
3 49 47 67
3 67 47 48
3 67 48 68
3 68 48 65
3 69 49 70
3 70 49 67
3 52 55 72
3 64 51 73
3 51 50 73
3 50 52 73
3 73 52 74
3 74 52 72
3 53 54 75
3 60 53 75
3 54 63 76
3 54 76 77
3 75 54 77
3 55 58 78
3 72 55 78
3 72 78 79
3 56 57 80
3 57 61 80
3 56 80 58
3 58 80 81
3 78 58 81
3 59 60 82
3 62 59 82
3 60 75 83
3 82 60 83
3 61 62 84
3 62 82 84
3 61 84 80
3 63 85 76
3 66 64 86
3 64 73 86
3 68 65 87
3 87 65 66
3 87 66 86
3 70 67 88
3 88 67 68
3 88 68 89
3 89 68 87
3 71 69 90
3 90 69 70
3 90 70 91
3 91 70 88
3 92 71 93
3 93 71 90
3 74 72 94
3 94 72 79
3 86 73 95
3 95 73 74
3 95 74 96
3 96 74 94
3 97 86 95
3 76 85 99
3 75 77 100
3 83 75 100
3 76 99 101
3 77 76 101
3 77 101 102
3 100 77 102
3 94 79 103
3 78 81 104
3 79 78 104
3 79 104 103
3 80 84 105
3 81 80 105
3 81 105 106
3 104 81 106
3 82 83 107
3 83 100 107
3 82 107 84
3 84 107 108
3 105 84 108
3 85 109 99
3 89 87 110
3 87 86 110
3 110 86 97
3 91 88 111
3 111 88 89
3 111 89 110
3 93 90 112
3 112 90 91
3 112 91 113
3 113 91 111
3 98 92 114
3 114 92 93
3 114 93 115
3 115 93 112
3 116 98 114
3 117 103 118
3 96 94 119
3 94 103 119
3 119 103 117
3 97 95 120
3 120 95 96
3 120 96 119
3 121 110 97
3 121 97 122
3 122 97 120
3 123 119 117
3 124 98 116
3 99 109 125
3 99 125 126
3 101 99 126
3 100 102 127
3 100 127 107
3 101 126 128
3 102 101 128
3 102 128 127
3 104 106 129
3 104 129 103
3 103 129 118
3 105 108 130
3 106 105 130
3 106 130 129
3 107 127 131
3 108 107 131
3 108 131 132
3 108 132 130
3 109 134 125
3 125 134 133
3 113 111 135
3 111 110 135
3 135 110 121
3 115 112 136
3 136 112 113
3 136 113 135
3 116 114 137
3 137 114 115
3 137 115 138
3 138 115 136
3 139 124 116
3 139 116 140
3 140 116 137
3 141 135 121
3 118 129 142
3 118 142 143
3 117 118 143
3 123 117 143
3 122 120 144
3 120 119 144
3 144 119 123
3 141 121 145
3 145 121 122
3 145 122 144
3 146 141 145
3 147 144 123
3 147 123 148
3 143 148 123
3 150 124 139
3 149 150 139
3 131 127 151
3 125 133 152
3 126 125 152
3 126 152 153
3 128 126 153
3 128 153 154
3 128 154 127
3 127 154 151
3 152 133 155
3 130 132 156
3 130 156 129
3 129 156 142
3 131 151 157
3 132 131 157
3 132 157 156
3 156 158 142
3 157 151 159
3 133 160 155
3 134 161 133
3 133 161 160
3 138 136 162
3 136 135 162
3 162 135 141
3 140 137 163
3 163 137 138
3 163 138 162
3 149 139 164
3 164 139 140
3 164 140 165
3 165 140 163
3 166 149 164
3 167 162 141
3 167 141 146
3 142 158 168
3 143 142 168
3 143 168 148
3 146 145 169
3 145 144 169
3 169 144 147
3 170 167 146
3 170 146 169
3 171 169 147
3 171 147 148
3 171 148 172
3 168 172 148
3 173 149 166
3 174 150 149
3 173 174 149
3 154 175 151
3 151 175 159
3 152 155 176
3 153 152 176
3 153 176 177
3 153 177 154
3 154 177 175
3 155 160 178
3 155 178 179
3 176 155 179
3 156 157 180
3 156 180 158
3 157 159 181
3 157 181 180
3 158 180 182
3 158 182 168
3 159 175 183
3 159 183 181
3 175 184 183
3 160 186 178
3 178 186 185
3 161 187 160
3 160 187 186
3 165 163 188
3 163 162 188
3 188 162 167
3 166 164 189
3 189 164 165
3 189 165 188
3 190 173 166
3 190 166 191
3 191 166 189
3 192 188 167
3 192 167 170
3 193 192 170
3 182 194 168
3 194 172 168
3 193 170 195
3 170 169 195
3 195 169 171
3 196 195 171
3 196 171 172
3 194 197 172
3 197 198 172
3 198 196 172
3 200 173 190
3 199 200 190
3 201 174 173
3 200 201 173
3 176 179 202
3 177 176 202
3 177 202 175
3 175 202 184
3 178 185 203
3 178 203 179
3 179 203 202
3 203 185 204
3 202 205 184
3 183 206 181
3 180 181 206
3 180 206 182
3 182 206 194
3 183 184 207
3 205 207 184
3 183 207 206
3 185 208 204
3 186 209 185
3 185 209 208
3 187 210 186
3 186 210 209
3 191 189 211
3 189 188 211
3 211 188 192
3 199 190 212
3 212 190 191
3 212 191 211
3 213 199 212
3 214 211 192
3 214 192 193
3 215 214 193
3 215 193 195
3 206 216 194
3 216 197 194
3 216 217 197
3 215 195 218
3 218 195 196
3 198 218 196
3 217 219 197
3 219 218 198
3 197 219 198
3 220 199 213
3 221 200 199
3 220 221 199
3 222 201 200
3 221 222 200
3 203 204 223
3 203 223 202
3 202 223 205
3 204 208 224
3 204 224 223
3 205 223 225
3 205 225 207
3 207 225 226
3 207 226 206
3 226 216 206
3 208 228 224
3 224 228 227
3 209 229 208
3 229 228 208
3 210 230 209
3 209 230 229
3 213 212 231
3 212 211 231
3 231 211 214
3 232 220 213
3 232 213 231
3 233 231 214
3 233 214 215
3 234 233 215
3 234 215 218
3 226 235 216
3 235 217 216
3 235 236 217
3 217 236 219
3 237 234 218
3 237 218 219
3 236 238 219
3 238 237 219
3 240 220 232
3 239 240 232
3 241 221 220
3 240 241 220
3 242 222 221
3 241 242 221
3 224 227 243
3 224 243 223
3 223 243 225
3 225 243 244
3 225 244 226
3 226 244 235
3 227 245 243
3 228 246 227
3 227 246 245
3 229 247 228
3 228 247 246
3 230 248 229
3 229 248 247
3 239 232 249
3 232 231 249
3 249 231 233
3 250 249 233
3 250 233 234
3 237 250 234
3 244 251 235
3 235 251 236
3 251 252 236
3 236 252 238
3 252 253 238
3 253 250 237
3 253 237 238
3 254 239 249
3 255 240 239
3 254 255 239
3 256 241 240
3 255 256 240
3 257 242 241
3 256 257 241
3 245 258 243
3 243 258 244
3 244 258 251
3 245 259 258
3 246 260 245
3 245 260 259
3 247 261 246
3 246 261 260
3 248 262 247
3 247 262 261
3 254 249 263
3 263 249 250
3 253 263 250
3 258 264 251
3 251 264 252
3 264 265 252
3 265 263 253
3 252 265 253
3 266 254 263
3 267 255 254
3 266 267 254
3 268 256 255
3 267 268 255
3 269 257 256
3 268 269 256
3 259 270 258
3 270 264 258
3 260 271 259
3 259 271 270
3 261 272 260
3 260 272 271
3 262 273 261
3 273 272 261
3 270 274 264
3 275 266 263
3 275 263 265
3 274 276 264
3 276 265 264
3 276 277 265
3 277 275 265
3 278 267 266
3 275 278 266
3 279 268 267
3 278 279 267
3 280 269 268
3 279 280 268
3 271 281 270
3 270 281 274
3 272 282 271
3 271 282 281
3 273 283 272
3 272 283 282
3 281 284 274
3 274 284 276
3 285 278 275
3 277 285 275
3 284 286 276
3 286 285 277
3 276 286 277
3 287 279 278
3 285 287 278
3 288 280 279
3 287 288 279
3 282 289 281
3 281 289 284
3 283 290 282
3 282 290 289
3 289 291 284
3 284 291 286
3 291 292 286
3 292 287 285
3 286 292 285
3 293 288 287
3 292 293 287
3 290 294 289
3 289 294 291
3 294 295 291
3 295 293 292
3 291 295 292
CELL_TYPES 542
5
5
5
5
5
5
5
5
5
5
5
5
5
5
5
5
5
5
5
5
5
5
5
5
5
5
5
5
5
5
5
5
5
5
5
5
5
5
5
5
5
5
5
5
5
5
5
5
5
5
5
5
5
5
5
5
5
5
5
5
5
5
5
5
5
5
5
5
5
5
5
5
5
5
5
5
5
5
5
5
5
5
5
5
5
5
5
5
5
5
5
5
5
5
5
5
5
5
5
5
5
5
5
5
5
5
5
5
5
5
5
5
5
5
5
5
5
5
5
5
5
5
5
5
5
5
5
5
5
5
5
5
5
5
5
5
5
5
5
5
5
5
5
5
5
5
5
5
5
5
5
5
5
5
5
5
5
5
5
5
5
5
5
5
5
5
5
5
5
5
5
5
5
5
5
5
5
5
5
5
5
5
5
5
5
5
5
5
5
5
5
5
5
5
5
5
5
5
5
5
5
5
5
5
5
5
5
5
5
5
5
5
5
5
5
5
5
5
5
5
5
5
5
5
5
5
5
5
5
5
5
5
5
5
5
5
5
5
5
5
5
5
5
5
5
5
5
5
5
5
5
5
5
5
5
5
5
5
5
5
5
5
5
5
5
5
5
5
5
5
5
5
5
5
5
5
5
5
5
5
5
5
5
5
5
5
5
5
5
5
5
5
5
5
5
5
5
5
5
5
5
5
5
5
5
5
5
5
5
5
5
5
5
5
5
5
5
5
5
5
5
5
5
5
5
5
5
5
5
5
5
5
5
5
5
5
5
5
5
5
5
5
5
5
5
5
5
5
5
5
5
5
5
5
5
5
5
5
5
5
5
5
5
5
5
5
5
5
5
5
5
5
5
5
5
5
5
5
5
5
5
5
5
5
5
5
5
5
5
5
5
5
5
5
5
5
5
5
5
5
5
5
5
5
5
5
5
5
5
5
5
5
5
5
5
5
5
5
5
5
5
5
5
5
5
5
5
5
5
5
5
5
5
5
5
5
5
5
5
5
5
5
5
5
5
5
5
5
5
5
5
5
5
5
5
5
5
5
5
5
5
5
5
5
5
5
5
5
5
5
5
5
5
5
5
5
5
5
5
5
5
5
5
5
5
5
5
5
5
5
5
5
5
5
5
5
5
5
5
5
5
5
5
5
5
5
5
5
5
5
5
5
5
5
5
5
5
5
5
5
5
5
5
5
5
5
5
5
5
5
5
5
5
5
5
5
5
5
5
5
5
5
POINT_DATA 296
SCALARS concentrations float 4
LOOKUP_TABLE default
0 0.96396 0.149233 12.3873
0 0.96396 0.148421 17.4202
0 0.963986 0.147762 17.3314
0 0.963967 0.15063 13.1712
0 0.963984 0.0935136 6.64494
0 0.963957 0.149388 17.6858
0 0.963845 0.149045 23.6835
0 0.963965 0.0938712 6.82365
0 0.96397 0.0934945 6.74598
0 0.963814 0.147224 26.9559
0 0.963919 0.151725 17.3839
0 0.963982 0.147716 13.5919
0 0.964102 0.146294 11.0298
0 0.963996 0.0936576 6.3977
0 0.963984 0.0943648 8.16105
0 0.964004 0.0941739 7.00024
0 0.963981 0.0937348 6.53106
0 0.963915 0.0929557 7.01663
0 0.963848 0.0933717 7.56679
0 0.963975 0.0937738 6.99629
0 0.963959 0.0936059 7.01075
0 0.964 0.149398 20.4475
0 0.963946 0.146434 11.9282
0 0.963879 0.0934952 7.64155
0 0.96397 0.0938053 7.68907
0 0.964027 0.0942866 8.13644
0 0.96417 0.145202 9.84914
0 0.964107 0.0946671 8.26695
0 0.964148 0.144328 8.50345
0 0.964016 0.0947687 8.14204
0 0.964013 0.0953473 8.37102
0 0.963995 0.0946397 8.35441
0 0.963921 0.14785 19.8244
0 0.963975 0.0942627 7.19754
0 0.963963 0.0939964 6.16356
0 0.963933 0.0933697 6.5922
0 0.963921 0.0934056 7.35233
0 0.963971 0.0940176 6.25575
0 0.963973 0.0936464 6.69442
0 0.963976 0.093568 7.51852
0 0.963941 0.0933329 7.24008
0 0.963937 0.0937339 7.30493
0 0.963967 0.0940676 7.47546
0 0.963917 0.150918 17.261
0 0.964004 0.0952208 6.68685
0 0.964127 0.0967935 8.41107
0 0.964054 0.103079 8.45614
0 0.964199 0.146973 7.44123
0 0.964132 0.0952489 9.93537
0 0.964125 0.149409 13.5926
0 0.963989 0.0944356 8.22155
0 0.963987 0.096312 6.13938
0 0.963966 0.0936087 7.6775
0 0.963939 0.0932054 7.09343
0 0.963921 0.0933553 7.26116
0 0.963968 0.0939932 7.83443
0 0.963967 0.0937003 7.23812
0 0.963957 0.0936021 7.03973
0 0.96398 0.0938504 6.37569
0 0.963973 0.0934346 7.37197
0 0.963971 0.0934516 7.03957
0 0.963965 0.0941327 7.20665
0 0.963975 0.0945167 7.77349
0 0.963861 0.146908 25.4525
0 0.963981 0.0946059 5.91719
0 0.964071 0.0994419 8.33194
0 0.964022 0.09595 4.90456
0 0.964125 0.0954414 5.04875
0 0.964038 0.0957718 8.45709
0 0.964081 0.143331 6.38821
0 0.964064 0.0944001 8.61215
0 0.964096 0.145142 8.13608
0 0.963968 0.0976181 10.8633
0 0.96396 0.0941859 8.25999
0 0.963961 0.0959521 4.3001
0 0.963972 0.0938187 7.33801
0 0.963898 0.093826 7.20642
0 0.963972 0.0937478 7.06003
0 0.963994 0.0959889 6.49434
0 0.964 0.0974726 4.35669
0 0.963979 0.0939397 7.27531
0 0.963994 0.0961105 8.51652
0 0.963987 0.0954369 6.58236
0 0.963989 0.0939605 7.10765
0 0.963993 0.0956098 7.81264
0 0.963867 0.145707 13.8531
0 0.963964 0.0951404 7.7598
0 0.963997 0.0963998 5.95612
0 0.964019 0.0960712 4.82007
0 0.963987 0.09541 5.12013
0 0.96406 0.0944987 8.90749
0 0.964004 0.0961323 9.79951
0 0.964073 0.146182 14.0233
0 0.964063 0.0953055 9.44909
0 0.963965 0.102043 5.13915
0 0.963954 0.0945793 6.66758
0 0.963964 0.0951793 5.35461
0 0.963954 0.0957815 4.87066
0 0.963995 0.145255 7.45246
0 0.963948 0.0947136 8.15621
0 0.963991 0.09406 7.22696
0 0.963992 0.0937151 6.52974
0 0.964002 0.0936745 6.8147
0 0.964007 0.0973189 4.30261
0 0.964014 0.0974289 9.29221
0 0.963993 0.0945025 6.1587
0 0.96399 0.0951723 8.9759
0 0.964002 0.093982 6.67944
0 0.964003 0.0946805 7.72828
0 0.963958 0.147511 14.3518
0 0.963962 0.0950517 7.58033
0 0.963969 0.0969101 10.2576
0 0.963998 0.0961578 10.7191
0 0.963961 0.0966129 10.4487
0 0.964031 0.0972336 2.76982
0 0.964001 0.0954454 7.666
0 0.963998 0.0958639 5.08262
0 0.964038 0.0961782 8.57169
0 0.96402 0.102187 6.57351
0 0.963994 0.100269 7.05543
0 0.963974 0.0966786 5.7603
0 0.96395 0.0954598 6.48181
0 0.963976 0.0955149 5.36036
0 0.964028 0.0958011 8.19589
0 0.963953 0.148214 16.1719
0 0.963991 0.0998493 8.31262
0 0.964013 0.0963477 5.81066
0 0.963989 0.0940143 7.10084
0 0.96401 0.0950358 7.03025
0 0.963996 0.0957086 8.38356
0 0.963995 0.0947132 6.08514
0 0.963983 0.0953461 6.80926
0 0.963985 0.094042 6.80042
0 0.963965 0.0975099 7.04306
0 0.963956 0.149259 22.4949
0 0.963949 0.0954936 4.3081
0 0.963968 0.0963534 10.7483
0 0.96402 0.0975655 4.08438
0 0.96399 0.0956559 6.87042
0 0.963988 0.0948421 5.07622
0 0.964029 0.095398 4.42268
0 0.963976 0.0988252 5.12493
0 0.964001 0.100085 4.12785
0 0.96403 0.0953437 7.98343
0 0.964005 0.0959531 6.80745
0 0.963993 0.0961997 5.33683
0 0.964007 0.0966481 10.055
0 0.964013 0.101661 12.3404
0 0.964016 0.094773 6.76126
0 0.963995 0.0941256 5.17321
0 0.96395 0.148482 7.77123
0 0.963972 0.0947224 7.28435
0 0.964002 0.0985015 6.09374
0 0.964003 0.0962135 6.45509
0 0.963985 0.0950427 7.08137
0 0.963983 0.0973627 8.66734
0 0.963981 0.0951341 7.06272
0 0.96397 0.0966676 8.07257
0 0.963994 0.101996 7.19598
0 0.963971 0.0947423 7.55279
0 0.963992 0.0940514 6.71287
0 0.963949 0.148607 16.5612
0 0.96398 0.0963884 4.11279
0 0.964 0.096492 4.32082
0 0.964027 0.0943779 5.04692
0 0.964007 0.0950881 4.51171
0 0.96402 0.0945756 9.6006
0 0.963993 0.0952889 10.0773
0 0.964015 0.0938537 7.79256
0 0.964011 0.0969455 5.0101
0 0.964003 0.0984322 5.72856
0 0.964008 0.0943515 6.3604
0 0.963998 0.0939883 7.78547
0 0.964023 0.0943764 6.15571
0 0.963986 0.149354 16.0623
0 0.963973 0.0962829 8.3491
0 0.963983 0.0950573 6.28432
0 0.963978 0.096951 6.32634
0 0.963987 0.0948803 6.62398
0 0.963982 0.0951606 7.55174
0 0.96398 0.0960191 5.7824
0 0.963982 0.0965846 7.96243
0 0.964019 0.0973372 5.71381
0 0.963982 0.0948607 8.82813
0 0.963982 0.0947465 8.26683
0 0.96399 0.0939066 7.77773
0 0.964013 0.0933352 7.39749
0 0.964029 0.148275 13.2556
0 0.963987 0.0948275 9.66355
0 0.964004 0.0959235 9.91934
0 0.964014 0.0969087 5.8376
0 0.963993 0.0975332 8.76064
0 0.963992 0.0946805 7.02774
0 0.963997 0.103461 4.60035
0 0.964013 0.0968018 10.2255
0 0.964003 0.0946879 8.65953
0 0.963994 0.0943878 7.86895
0 0.964031 0.0970838 6.671
0 0.964011 0.10167 10.8781
0 0.963992 0.1004 7.75493
0 0.964046 0.0943196 6.47361
0 0.96405 0.14766 10.8563
0 0.963984 0.0945397 7.96861
0 0.963992 0.0951187 6.37814
0 0.964 0.0949302 8.20669
0 0.96399 0.0948705 8.42597
0 0.963998 0.0973271 6.96093
0 0.963983 0.0956103 6.10519
0 0.963972 0.0946841 6.31198
0 0.963943 0.0951309 5.83701
0 0.96398 0.148226 13.3027
0 0.963979 0.0958418 4.51898
0 0.963984 0.0989895 9.26005
0 0.963959 0.101194 7.63523
0 0.963978 0.0977013 9.18679
0 0.963984 0.0944311 6.31055
0 0.964016 0.096374 6.19163
0 0.964044 0.100911 4.24904
0 0.964003 0.0959497 7.18881
0 0.964032 0.0992186 8.03909
0 0.963989 0.100947 7.05857
0 0.964027 0.094797 8.43023
0 0.96407 0.150221 12.5618
0 0.964003 0.0956078 6.89565
0 0.963998 0.0959402 8.24816
0 0.963999 0.0959495 9.748
0 0.963986 0.0955971 5.6943
0 0.963981 0.0965797 7.60541
0 0.963962 0.0960319 7.46793
0 0.963915 0.0950262 5.80554
0 0.963888 0.145729 21.3425
0 0.96397 0.102794 3.71486
0 0.963984 0.100866 8.59541
0 0.963982 0.0972008 6.32798
0 0.963984 0.0955122 7.40416
0 0.963984 0.0969521 7.22164
0 0.96399 0.0998712 4.57154
0 0.963999 0.0988143 5.64986
0 0.964016 0.0971147 9.2964
0 0.964007 0.0967311 5.75138
0 0.96402 0.0954717 8.45931
0 0.964032 0.0948283 8.29356
0 0.964033 0.149258 11.0958
0 0.964003 0.0952141 8.65879
0 0.963979 0.0979243 3.52733
0 0.963982 0.0962439 6.60559
0 0.963961 0.0978184 7.7614
0 0.96396 0.0947191 8.66937
0 0.963919 0.147385 20.8318
0 0.963984 0.0959025 7.89891
0 0.96398 0.0961114 7.0721
0 0.963953 0.0957635 7.42052
0 0.963977 0.0982225 10.8313
0 0.964004 0.0966357 6.93095
0 0.963991 0.0961923 7.15546
0 0.964013 0.0975753 5.3532
0 0.964067 0.0945992 6.28668
0 0.964079 0.145753 14.8191
0 0.963987 0.1064 10.0512
0 0.96399 0.0961874 8.21828
0 0.963966 0.0957492 8.09755
0 0.963985 0.0948477 7.98712
0 0.963995 0.148684 17.218
0 0.963992 0.0971737 4.83011
0 0.96398 0.0969821 4.49819
0 0.963998 0.0975362 5.83108
0 0.963987 0.0968392 6.71024
0 0.963996 0.095748 8.42044
0 0.964056 0.0947354 8.05339
0 0.964108 0.149943 10.6874
0 0.964006 0.0967481 7.36574
0 0.963983 0.0950275 6.5599
0 0.963939 0.0951779 6.09564
0 0.963975 0.15025 14.9142
0 0.964011 0.0965252 5.8778
0 0.963984 0.0967023 8.70832
0 0.963989 0.0961942 9.26664
0 0.963992 0.0975048 10.5831
0 0.963952 0.0959557 6.60278
0 0.964021 0.0955767 6.73256
0 0.964082 0.147287 6.78952
0 0.964008 0.0954791 8.19109
0 0.96393 0.0952165 5.93599
0 0.96387 0.146142 20.3816
0 0.96402 0.0956118 5.39242
0 0.963967 0.101872 4.74011
0 0.964011 0.0980262 4.41222
0 0.963966 0.0959626 8.56506
0 0.964029 0.145721 18.4899
0 0.964013 0.0949673 6.16122
0 0.963936 0.147182 13.0102
0 0.964022 0.0957561 6.13949
0 0.963973 0.0963411 6.85406
0 0.963951 0.144366 22.6176
0 0.964019 0.146863 14.331
0 0.963973 0.14403 15.9751
VECTORS fa_u float
0.00688015 0.00277165 -0
0.00652098 0.00375176 -0
0.00369047 0.00100001 -0
0.00689253 0.00102916 -0
1e-08 0 0
0.00517548 0.00399007 -0
0.00295222 0.0028803 -0
1e-08 0 0
1e-08 0 0
0.00445446 0.00552316 -0
0.00473624 0.00802151 -0
0.00667173 0.000104938 -0
0.00618173 -0.000701897 0
1e-08 0 0
1e-08 0 0
1e-08 0 0
1e-08 0 0
1e-08 0 0
1e-08 0 0
1e-08 0 0
1e-08 0 0
0.00278573 0.00683609 -0
0.00164015 0.00635365 -0
1e-08 0 0
1e-08 0 0
1e-08 0 0
0.00834579 -0.00213766 0
1e-08 0 0
0.00964235 -0.00417012 0
1e-08 0 0
1e-08 0 0
1e-08 0 0
0.000851367 0.00707035 -0
1e-08 0 0
1e-08 0 0
1e-08 0 0
1e-08 0 0
1e-08 0 0
1e-08 0 0
1e-08 0 0
1e-08 0 0
1e-08 0 0
1e-08 0 0
-0.000131743 0.00750339 -0
1e-08 0 0
1e-08 0 0
1e-08 0 0
0.0055795 -0.00346737 0
1e-08 0 0
0.00329672 -0.00262733 0
1e-08 0 0
1e-08 0 0
1e-08 0 0
1e-08 0 0
1e-08 0 0
1e-08 0 0
1e-08 0 0
1e-08 0 0
1e-08 0 0
1e-08 0 0
1e-08 0 0
1e-08 0 0
1e-08 0 0
-0.000647276 0.00454135 0
1e-08 0 0
1e-08 0 0
1e-08 0 0
1e-08 0 0
1e-08 0 0
0.00352095 -0.00349528 0
1e-08 0 0
0.00302542 -0.00376389 0
1e-08 0 0
1e-08 0 0
1e-08 0 0
1e-08 0 0
1e-08 0 0
1e-08 0 0
1e-08 0 0
1e-08 0 0
1e-08 0 0
1e-08 0 0
1e-08 0 0
1e-08 0 0
1e-08 0 0
-0.00145642 0.00555682 0
1e-08 0 0
1e-08 0 0
1e-08 0 0
1e-08 0 0
1e-08 0 0
1e-08 0 0
0.00505649 -0.00839934 0
1e-08 0 0
1e-08 0 0
1e-08 0 0
1e-08 0 0
1e-08 0 0
0.00335833 -0.00825496 0
1e-08 0 0
1e-08 0 0
1e-08 0 0
1e-08 0 0
1e-08 0 0
1e-08 0 0
1e-08 0 0
1e-08 0 0
1e-08 0 0
1e-08 0 0
-0.00277356 0.00682689 0
1e-08 0 0
1e-08 0 0
1e-08 0 0
1e-08 0 0
1e-08 0 0
1e-08 0 0
1e-08 0 0
1e-08 0 0
1e-08 0 0
1e-08 0 0
1e-08 0 0
1e-08 0 0
1e-08 0 0
1e-08 0 0
0.00144275 -0.00566849 0
1e-08 0 0
1e-08 0 0
1e-08 0 0
1e-08 0 0
1e-08 0 0
1e-08 0 0
1e-08 0 0
1e-08 0 0
1e-08 0 0
-0.00360702 0.00625365 0
1e-08 0 0
1e-08 0 0
1e-08 0 0
1e-08 0 0
1e-08 0 0
1e-08 0 0
1e-08 0 0
1e-08 0 0
1e-08 0 0
1e-08 0 0
1e-08 0 0
1e-08 0 0
1e-08 0 0
1e-08 0 0
1e-08 0 0
0.000588687 -0.00433868 0
1e-08 0 0
1e-08 0 0
1e-08 0 0
1e-08 0 0
1e-08 0 0
1e-08 0 0
1e-08 0 0
1e-08 0 0
1e-08 0 0
1e-08 0 0
-0.00449767 0.00579345 0
1e-08 0 0
1e-08 0 0
1e-08 0 0
1e-08 0 0
1e-08 0 0
1e-08 0 0
1e-08 0 0
1e-08 0 0
1e-08 0 0
1e-08 0 0
1e-08 0 0
1e-08 0 0
8.75027e-05 -0.00753836 0
1e-08 0 0
1e-08 0 0
1e-08 0 0
1e-08 0 0
1e-08 0 0
1e-08 0 0
1e-08 0 0
1e-08 0 0
1e-08 0 0
1e-08 0 0
1e-08 0 0
1e-08 0 0
-0.00276233 0.00279743 0
1e-08 0 0
1e-08 0 0
1e-08 0 0
1e-08 0 0
1e-08 0 0
1e-08 0 0
1e-08 0 0
1e-08 0 0
1e-08 0 0
1e-08 0 0
1e-08 0 0
1e-08 0 0
1e-08 0 0
-0.000859866 -0.0068458 0
1e-08 0 0
1e-08 0 0
1e-08 0 0
1e-08 0 0
1e-08 0 0
1e-08 0 0
1e-08 0 0
1e-08 0 0
-0.00489457 0.00394126 0
1e-08 0 0
1e-08 0 0
1e-08 0 0
1e-08 0 0
1e-08 0 0
1e-08 0 0
1e-08 0 0
1e-08 0 0
1e-08 0 0
1e-08 0 0
1e-08 0 0
-0.00163748 -0.00624478 0
1e-08 0 0
1e-08 0 0
1e-08 0 0
1e-08 0 0
1e-08 0 0
1e-08 0 0
1e-08 0 0
-0.00790086 0.00470473 0
1e-08 0 0
1e-08 0 0
1e-08 0 0
1e-08 0 0
1e-08 0 0
1e-08 0 0
1e-08 0 0
1e-08 0 0
1e-08 0 0
1e-08 0 0
1e-08 0 0
-0.00283851 -0.00689591 0
1e-08 0 0
1e-08 0 0
1e-08 0 0
1e-08 0 0
1e-08 0 0
-0.00712357 0.00292509 0
1e-08 0 0
1e-08 0 0
1e-08 0 0
1e-08 0 0
1e-08 0 0
1e-08 0 0
1e-08 0 0
1e-08 0 0
-0.00462585 -0.00778535 0
1e-08 0 0
1e-08 0 0
1e-08 0 0
1e-08 0 0
-0.00630791 0.00163846 0
1e-08 0 0
1e-08 0 0
1e-08 0 0
1e-08 0 0
1e-08 0 0
1e-08 0 0
-0.0036622 -0.00458244 0
1e-08 0 0
1e-08 0 0
1e-08 0 0
-0.00696133 0.000852928 0
1e-08 0 0
1e-08 0 0
1e-08 0 0
1e-08 0 0
1e-08 0 0
1e-08 0 0
-0.00304467 -0.0030282 0
1e-08 0 0
1e-08 0 0
-0.00793939 -0.000133391 0
1e-08 0 0
1e-08 0 0
1e-08 0 0
1e-08 0 0
-0.00585554 -0.00455503 0
1e-08 0 0
-0.00410464 -0.000579901 0
1e-08 0 0
1e-08 0 0
-0.00636359 -0.00367023 0
-0.00578016 -0.00149806 0
-0.00692149 -0.00280366 0
