# vtk DataFile Version 2.0
CellBP Time: 1.64
ASCII
DATASET UNSTRUCTURED_GRID
POINTS 296 double
-9.14863 -3.75826 0
-8.57393 -4.92773 0
-9.56395 -2.52219 0
-9.82212 -1.24815 0
-8.31714 -2.80154 0
-7.8487 -6.01167 0
-6.98797 -6.99135 0
-7.87595 -3.8534 0
-7.30475 -4.84251 0
-6.01482 -7.85549 0
-4.93624 -8.58228 0
-9.91148 0.0478893 0
-9.83047 1.3483 0
-8.62061 -1.67542 0
-8.75372 -0.526817 0
-7.55038 -1.99063 0
-7.18538 -2.88702 0
-6.60753 -5.75448 0
-5.79945 -6.57522 0
-6.75226 -3.86579 0
-6.18823 -4.65298 0
-3.76696 -9.15859 0
-2.53004 -9.57588 0
-4.89287 -7.28633 0
-3.90295 -7.86652 0
-8.76161 0.640392 0
-9.5813 2.63035 0
-8.59517 1.76701 0
-9.16221 3.86523 0
-7.70858 -0.921335 0
-7.76169 0.0816036 0
-6.91809 -1.30572 0
-1.249 -9.8285 0
-6.40939 -2.13947 0
-6.28713 -3.03874 0
-5.51146 -5.45236 0
-4.77754 -6.09402 0
-5.63079 -3.73874 0
-5.24332 -4.54056 0
-2.85927 -8.34187 0
-1.77428 -8.61227 0
-3.91744 -6.70283 0
-3.04925 -7.13246 0
0.0508003 -9.91094 0
-7.67581 1.13904 0
-8.31533 2.90816 0
-7.52379 2.10217 0
-8.57807 5.0298 0
-7.85223 3.96303 0
-7.84718 6.10963 0
-6.74669 -0.392404 0
-6.92634 0.55136 0
-5.74701 -0.999008 0
-0.589875 -8.78263 0
0.563624 -8.73713 0
-5.28005 -2.46819 0
-4.47126 -5.07491 0
-3.88736 -5.75536 0
-4.41982 -3.78906 0
-2.05606 -7.54166 0
-1.13193 -7.7625 0
-2.98493 -6.08157 0
-2.30183 -6.60135 0
1.34809 -9.81994 0
-6.66255 1.4156 0
-7.14296 3.10382 0
-6.63331 2.36244 0
-7.26705 4.96738 0
-6.69159 3.98576 0
-6.9878 7.08704 0
-6.54639 5.86902 0
-6.01037 7.94784 0
-4.44081 -1.17766 0
-5.79427 0.510497 0
-4.64347 -0.0126249 0
0.00613667 -7.81993 0
1.72969 -8.60589 0
0.943049 -7.73088 0
-4.02601 -2.39883 0
-3.48171 -1.38973 0
-3.28475 -4.78906 0
-3.25825 -3.25881 0
-1.37509 -6.65375 0
-0.510084 -7.00034 0
-1.97151 -5.52093 0
2.62569 -9.56596 0
-5.48804 2.02878 0
-6.07099 3.05894 0
-6.0804 4.84702 0
-5.73957 3.97316 0
-5.73743 6.68727 0
-5.42846 5.59305 0
-4.93291 8.67945 0
-4.81745 7.36985 0
-3.49516 -0.423682 0
-4.43542 1.24571 0
-3.70325 0.590967 0
-4.0486 2.31676 0
-3.76526 9.25601 0
2.84571 -8.29138 0
0.412732 -6.76768 0
2.00915 -7.48884 0
1.29535 -6.87283 0
-2.44136 -0.873082 0
-2.83472 -2.12795 0
-2.29022 -4.08732 0
-2.32162 -2.9681 0
-0.443345 -5.84006 0
-1.21987 -4.48912 0
3.85984 -9.14923 0
-4.77438 3.37903 0
-5.0673 4.57239 0
-4.62644 6.24958 0
-4.52115 5.33468 0
-3.83003 7.96128 0
-3.80949 6.81196 0
-2.77154 8.38605 0
-1.64644 -0.136192 0
-1.44839 -0.889263 0
-2.4848 0.508977 0
-3.24642 1.44383 0
-3.22981 3.30899 0
-2.90377 2.37171 0
-1.35283 0.628623 0
-2.52953 9.67112 0
3.91188 -7.84774 0
2.94528 -7.11763 0
0.944973 -5.79678 0
2.05757 -6.38271 0
-1.68074 -1.99016 0
-1.43131 -3.27228 0
0.0878106 -4.73129 0
-0.563755 -3.68804 0
4.90837 -7.28162 0
5.02807 -8.57435 0
-3.76294 4.53392 0
-3.7204 5.7251 0
-2.87347 7.25514 0
-2.99785 6.32473 0
-1.65757 8.70072 0
-1.92952 7.58829 0
-2.33344 4.04038 0
-0.729387 -1.32651 0
-0.835549 -0.256911 0
-1.93444 1.68277 0
-2.1216 2.87294 0
-1.30521 3.53942 0
-0.869184 1.35307 0
-0.281493 0.457637 0
-0.532768 8.84182 0
-1.25009 9.92281 0
1.10638 -4.55679 0
3.88427 -6.67609 0
2.96889 -6.06076 0
2.10511 -5.39873 0
4.76121 -6.17007 0
-0.55624 -2.47519 0
0.494562 -3.45623 0
0.0543913 -1.60993 0
1.47669 -3.66974 0
5.84112 -6.58131 0
6.11172 -7.84954 0
-2.46628 5.32793 0
-2.11951 6.50623 0
-0.898937 7.77544 0
-1.26364 6.90284 0
0.0875648 7.8554 0
-1.14114 4.48318 0
0.150768 -0.616768 0
-0.798629 2.49031 0
-0.33437 3.59808 0
0.0630269 1.51336 0
0.741626 0.473382 0
0.645686 8.84794 0
0.0488286 10.0134 0
2.36996 -4.26712 0
3.83877 -5.60767 0
2.98472 -5.18599 0
5.55197 -5.46444 0
4.66887 -5.25205 0
0.629985 -2.29315 0
1.25348 -2.94507 0
0.757771 -1.3906 0
2.1566 -3.12651 0
2.98375 -3.46221 0
6.13444 -4.77059 0
6.63 -5.74468 0
7.091 -6.98819 0
-1.01441 5.79943 0
-0.367586 6.85915 0
1.11855 7.74762 0
0.558625 7.05741 0
-0.000263269 4.71411 0
0.604292 3.82092 0
1.3392 -0.641644 0
0.537038 2.64897 0
0.964639 1.57528 0
1.90831 0.213567 0
1.61264 1.06539 0
2.12626 7.56237 0
1.79544 8.68761 0
1.35021 9.9291 0
3.80576 -4.33055 0
5.09667 -4.42494 0
5.82652 -3.9169 0
3.77157 -3.18905 0
1.81074 -1.88298 0
3.01173 -2.56755 0
6.76363 -3.93265 0
7.36118 -4.87798 0
7.95342 -6.01265 0
0.4839 5.86284 0
1.42626 6.72245 0
2.3695 6.65094 0
1.20664 4.54628 0
1.48485 3.39325 0
2.43255 -0.691719 0
2.82384 0.142803 0
1.78545 2.16172 0
2.60942 1.14899 0
3.06483 7.15078 0
2.89681 8.35574 0
2.6306 9.6756 0
4.8952 -3.3123 0
6.10185 -3.09558 0
4.16244 -2.26902 0
3.23782 -1.50037 0
6.71499 -2.30698 0
7.21437 -3.03417 0
7.94361 -3.9039 0
8.68121 -4.93465 0
2.01959 5.58553 0
3.07569 6.13572 0
2.3612 4.11808 0
2.41546 3.0561 0
3.51762 -0.46104 0
3.6087 0.613624 0
2.95633 2.28512 0
3.53744 1.52275 0
3.99627 5.88093 0
3.97298 6.77316 0
3.96577 7.91761 0
3.86712 9.25816 0
5.55501 -1.91164 0
4.49783 -1.12761 0
6.69498 -1.3322 0
7.57266 -2.02892 0
8.37542 -2.85532 0
9.25799 -3.76604 0
3.40643 4.86151 0
3.32928 3.37697 0
4.67935 0.130646 0
4.50526 1.30632 0
4.04984 2.43617 0
4.54911 5.1349 0
4.82628 6.17057 0
4.96428 7.36128 0
5.03571 8.68105 0
5.8669 -0.434701 0
6.98801 -0.487988 0
7.7381 -1.08234 0
8.6622 -1.74198 0
9.67535 -2.52934 0
4.5329 3.81409 0
5.79697 1.09159 0
5.34709 2.52326 0
5.35316 4.60169 0
5.58632 5.50388 0
5.8743 6.65028 0
6.11314 7.95293 0
6.82237 0.458209 0
7.82677 -0.0265173 0
8.83604 -0.581387 0
9.92771 -1.24836 0
6.93238 1.33958 0
5.69211 3.76166 0
6.51166 2.18481 0
6.34767 3.07194 0
6.26045 4.66605 0
6.66459 5.81462 0
7.08936 7.09133 0
7.75695 0.96198 0
8.8309 0.569422 0
10.0105 0.0524268 0
7.58348 1.99251 0
6.79152 3.88347 0
7.23372 2.9303 0
7.34559 4.86534 0
7.9516 6.11337 0
8.6886 1.71893 0
9.91855 1.34927 0
8.3836 2.82239 0
7.94622 3.89751 0
8.67536 5.02958 0
9.66648 2.62721 0
9.25038 3.8612 0
CELLS 542 2168
3 2 0 4
3 0 1 7
3 4 0 7
3 1 5 8
3 7 1 8
3 3 2 13
3 13 2 4
3 11 3 14
3 14 3 13
3 13 4 15
3 4 7 16
3 15 4 16
3 5 6 17
3 8 5 17
3 6 9 18
3 17 6 18
3 7 8 19
3 16 7 19
3 8 17 20
3 19 8 20
3 9 10 23
3 18 9 23
3 10 21 24
3 23 10 24
3 12 11 25
3 25 11 14
3 26 12 27
3 27 12 25
3 14 13 29
3 29 13 15
3 25 14 30
3 30 14 29
3 29 15 31
3 15 16 33
3 31 15 33
3 16 19 34
3 33 16 34
3 17 18 35
3 20 17 35
3 18 23 36
3 35 18 36
3 19 20 37
3 34 19 37
3 20 35 38
3 37 20 38
3 21 22 39
3 24 21 39
3 22 32 40
3 39 22 40
3 23 24 41
3 36 23 41
3 24 39 42
3 41 24 42
3 27 25 44
3 44 25 30
3 28 26 45
3 45 26 27
3 45 27 46
3 46 27 44
3 47 28 48
3 48 28 45
3 30 29 50
3 50 29 31
3 44 30 51
3 51 30 50
3 50 31 52
3 31 33 52
3 32 43 53
3 40 32 53
3 53 43 54
3 33 34 55
3 34 37 55
3 33 55 52
3 35 36 56
3 38 35 56
3 36 41 57
3 56 36 57
3 37 38 58
3 38 56 58
3 37 58 55
3 39 40 59
3 42 39 59
3 40 53 60
3 59 40 60
3 41 42 61
3 57 41 61
3 42 59 62
3 61 42 62
3 43 63 54
3 46 44 64
3 64 44 51
3 48 45 65
3 65 45 46
3 65 46 66
3 66 46 64
3 49 47 67
3 67 47 48
3 67 48 68
3 68 48 65
3 69 49 70
3 70 49 67
3 52 55 72
3 64 51 73
3 51 50 73
3 50 52 73
3 73 52 74
3 74 52 72
3 53 54 75
3 60 53 75
3 54 63 76
3 54 76 77
3 75 54 77
3 55 58 78
3 72 55 78
3 72 78 79
3 56 57 80
3 57 61 80
3 56 80 58
3 58 80 81
3 78 58 81
3 59 60 82
3 62 59 82
3 60 75 83
3 82 60 83
3 61 62 84
3 62 82 84
3 61 84 80
3 63 85 76
3 66 64 86
3 64 73 86
3 68 65 87
3 87 65 66
3 87 66 86
3 70 67 88
3 88 67 68
3 88 68 89
3 89 68 87
3 71 69 90
3 90 69 70
3 90 70 91
3 91 70 88
3 92 71 93
3 93 71 90
3 74 72 94
3 94 72 79
3 86 73 95
3 95 73 74
3 95 74 96
3 96 74 94
3 97 86 95
3 76 85 99
3 75 77 100
3 83 75 100
3 76 99 101
3 77 76 101
3 77 101 102
3 100 77 102
3 94 79 103
3 78 81 104
3 79 78 104
3 79 104 103
3 80 84 105
3 81 80 105
3 81 105 106
3 104 81 106
3 82 83 107
3 83 100 107
3 82 107 84
3 84 107 108
3 105 84 108
3 85 109 99
3 89 87 110
3 87 86 110
3 110 86 97
3 91 88 111
3 111 88 89
3 111 89 110
3 93 90 112
3 112 90 91
3 112 91 113
3 113 91 111
3 98 92 114
3 114 92 93
3 114 93 115
3 115 93 112
3 116 98 114
3 117 103 118
3 96 94 119
3 94 103 119
3 119 103 117
3 97 95 120
3 120 95 96
3 120 96 119
3 121 110 97
3 121 97 122
3 122 97 120
3 123 119 117
3 124 98 116
3 99 109 125
3 99 125 126
3 101 99 126
3 100 102 127
3 100 127 107
3 101 126 128
3 102 101 128
3 102 128 127
3 104 106 129
3 104 129 103
3 103 129 118
3 105 108 130
3 106 105 130
3 106 130 129
3 107 127 131
3 108 107 131
3 108 131 132
3 108 132 130
3 109 134 125
3 125 134 133
3 113 111 135
3 111 110 135
3 135 110 121
3 115 112 136
3 136 112 113
3 136 113 135
3 116 114 137
3 137 114 115
3 137 115 138
3 138 115 136
3 139 124 116
3 139 116 140
3 140 116 137
3 141 135 121
3 118 129 142
3 118 142 143
3 117 118 143
3 123 117 143
3 122 120 144
3 120 119 144
3 144 119 123
3 141 121 145
3 145 121 122
3 145 122 144
3 146 141 145
3 147 144 123
3 147 123 148
3 143 148 123
3 150 124 139
3 149 150 139
3 131 127 151
3 125 133 152
3 126 125 152
3 126 152 153
3 128 126 153
3 128 153 154
3 128 154 127
3 127 154 151
3 152 133 155
3 130 132 156
3 130 156 129
3 129 156 142
3 131 151 157
3 132 131 157
3 132 157 156
3 156 158 142
3 157 151 159
3 133 160 155
3 134 161 133
3 133 161 160
3 138 136 162
3 136 135 162
3 162 135 141
3 140 137 163
3 163 137 138
3 163 138 162
3 149 139 164
3 164 139 140
3 164 140 165
3 165 140 163
3 166 149 164
3 167 162 141
3 167 141 146
3 142 158 168
3 143 142 168
3 143 168 148
3 146 145 169
3 145 144 169
3 169 144 147
3 170 167 146
3 170 146 169
3 171 169 147
3 171 147 148
3 171 148 172
3 168 172 148
3 173 149 166
3 174 150 149
3 173 174 149
3 154 175 151
3 151 175 159
3 152 155 176
3 153 152 176
3 153 176 177
3 153 177 154
3 154 177 175
3 155 160 178
3 155 178 179
3 176 155 179
3 156 157 180
3 156 180 158
3 157 159 181
3 157 181 180
3 158 180 182
3 158 182 168
3 159 175 183
3 159 183 181
3 175 184 183
3 160 186 178
3 178 186 185
3 161 187 160
3 160 187 186
3 165 163 188
3 163 162 188
3 188 162 167
3 166 164 189
3 189 164 165
3 189 165 188
3 190 173 166
3 190 166 191
3 191 166 189
3 192 188 167
3 192 167 170
3 193 192 170
3 182 194 168
3 194 172 168
3 193 170 195
3 170 169 195
3 195 169 171
3 196 195 171
3 196 171 172
3 194 197 172
3 197 198 172
3 198 196 172
3 200 173 190
3 199 200 190
3 201 174 173
3 200 201 173
3 176 179 202
3 177 176 202
3 177 202 175
3 175 202 184
3 178 185 203
3 178 203 179
3 179 203 202
3 203 185 204
3 202 205 184
3 183 206 181
3 180 181 206
3 180 206 182
3 182 206 194
3 183 184 207
3 205 207 184
3 183 207 206
3 185 208 204
3 186 209 185
3 185 209 208
3 187 210 186
3 186 210 209
3 191 189 211
3 189 188 211
3 211 188 192
3 199 190 212
3 212 190 191
3 212 191 211
3 213 199 212
3 214 211 192
3 214 192 193
3 215 214 193
3 215 193 195
3 206 216 194
3 216 197 194
3 216 217 197
3 215 195 218
3 218 195 196
3 198 218 196
3 217 219 197
3 219 218 198
3 197 219 198
3 220 199 213
3 221 200 199
3 220 221 199
3 222 201 200
3 221 222 200
3 203 204 223
3 203 223 202
3 202 223 205
3 204 208 224
3 204 224 223
3 205 223 225
3 205 225 207
3 207 225 226
3 207 226 206
3 226 216 206
3 208 228 224
3 224 228 227
3 209 229 208
3 229 228 208
3 210 230 209
3 209 230 229
3 213 212 231
3 212 211 231
3 231 211 214
3 232 220 213
3 232 213 231
3 233 231 214
3 233 214 215
3 234 233 215
3 234 215 218
3 226 235 216
3 235 217 216
3 235 236 217
3 217 236 219
3 237 234 218
3 237 218 219
3 236 238 219
3 238 237 219
3 240 220 232
3 239 240 232
3 241 221 220
3 240 241 220
3 242 222 221
3 241 242 221
3 224 227 243
3 224 243 223
3 223 243 225
3 225 243 244
3 225 244 226
3 226 244 235
3 227 245 243
3 228 246 227
3 227 246 245
3 229 247 228
3 228 247 246
3 230 248 229
3 229 248 247
3 239 232 249
3 232 231 249
3 249 231 233
3 250 249 233
3 250 233 234
3 237 250 234
3 244 251 235
3 235 251 236
3 251 252 236
3 236 252 238
3 252 253 238
3 253 250 237
3 253 237 238
3 254 239 249
3 255 240 239
3 254 255 239
3 256 241 240
3 255 256 240
3 257 242 241
3 256 257 241
3 245 258 243
3 243 258 244
3 244 258 251
3 245 259 258
3 246 260 245
3 245 260 259
3 247 261 246
3 246 261 260
3 248 262 247
3 247 262 261
3 254 249 263
3 263 249 250
3 253 263 250
3 258 264 251
3 251 264 252
3 264 265 252
3 265 263 253
3 252 265 253
3 266 254 263
3 267 255 254
3 266 267 254
3 268 256 255
3 267 268 255
3 269 257 256
3 268 269 256
3 259 270 258
3 270 264 258
3 260 271 259
3 259 271 270
3 261 272 260
3 260 272 271
3 262 273 261
3 273 272 261
3 270 274 264
3 275 266 263
3 275 263 265
3 274 276 264
3 276 265 264
3 276 277 265
3 277 275 265
3 278 267 266
3 275 278 266
3 279 268 267
3 278 279 267
3 280 269 268
3 279 280 268
3 271 281 270
3 270 281 274
3 272 282 271
3 271 282 281
3 273 283 272
3 272 283 282
3 281 284 274
3 274 284 276
3 285 278 275
3 277 285 275
3 284 286 276
3 286 285 277
3 276 286 277
3 287 279 278
3 285 287 278
3 288 280 279
3 287 288 279
3 282 289 281
3 281 289 284
3 283 290 282
3 282 290 289
3 289 291 284
3 284 291 286
3 291 292 286
3 292 287 285
3 286 292 285
3 293 288 287
3 292 293 287
3 290 294 289
3 289 294 291
3 294 295 291
3 295 293 292
3 291 295 292
CELL_TYPES 542
5
5
5
5
5
5
5
5
5
5
5
5
5
5
5
5
5
5
5
5
5
5
5
5
5
5
5
5
5
5
5
5
5
5
5
5
5
5
5
5
5
5
5
5
5
5
5
5
5
5
5
5
5
5
5
5
5
5
5
5
5
5
5
5
5
5
5
5
5
5
5
5
5
5
5
5
5
5
5
5
5
5
5
5
5
5
5
5
5
5
5
5
5
5
5
5
5
5
5
5
5
5
5
5
5
5
5
5
5
5
5
5
5
5
5
5
5
5
5
5
5
5
5
5
5
5
5
5
5
5
5
5
5
5
5
5
5
5
5
5
5
5
5
5
5
5
5
5
5
5
5
5
5
5
5
5
5
5
5
5
5
5
5
5
5
5
5
5
5
5
5
5
5
5
5
5
5
5
5
5
5
5
5
5
5
5
5
5
5
5
5
5
5
5
5
5
5
5
5
5
5
5
5
5
5
5
5
5
5
5
5
5
5
5
5
5
5
5
5
5
5
5
5
5
5
5
5
5
5
5
5
5
5
5
5
5
5
5
5
5
5
5
5
5
5
5
5
5
5
5
5
5
5
5
5
5
5
5
5
5
5
5
5
5
5
5
5
5
5
5
5
5
5
5
5
5
5
5
5
5
5
5
5
5
5
5
5
5
5
5
5
5
5
5
5
5
5
5
5
5
5
5
5
5
5
5
5
5
5
5
5
5
5
5
5
5
5
5
5
5
5
5
5
5
5
5
5
5
5
5
5
5
5
5
5
5
5
5
5
5
5
5
5
5
5
5
5
5
5
5
5
5
5
5
5
5
5
5
5
5
5
5
5
5
5
5
5
5
5
5
5
5
5
5
5
5
5
5
5
5
5
5
5
5
5
5
5
5
5
5
5
5
5
5
5
5
5
5
5
5
5
5
5
5
5
5
5
5
5
5
5
5
5
5
5
5
5
5
5
5
5
5
5
5
5
5
5
5
5
5
5
5
5
5
5
5
5
5
5
5
5
5
5
5
5
5
5
5
5
5
5
5
5
5
5
5
5
5
5
5
5
5
5
5
5
5
5
5
5
5
5
5
5
5
5
5
5
5
5
5
5
5
5
5
5
5
5
5
5
5
5
5
5
5
5
5
5
5
5
5
5
5
5
5
5
5
5
5
5
5
5
5
5
5
5
5
5
5
5
5
5
5
5
5
5
5
5
5
5
5
5
5
5
5
5
5
5
5
5
5
5
5
POINT_DATA 296
SCALARS concentrations float 4
LOOKUP_TABLE default
0 0.992025 0.1749 18.361
0 0.992011 0.17405 21.802
0 0.992072 0.180037 30.7268
0 0.992087 0.184008 25.1664
0 0.992112 0.0949806 6.26348
0 0.992145 0.175354 13.0442
0 0.992124 0.176266 27.909
0 0.992106 0.0976749 6.04431
0 0.992168 0.0959356 8.51969
0 0.992066 0.173179 23.4464
0 0.992161 0.179116 23.054
0 0.99218 0.176285 26.1744
0 0.992185 0.182245 21.662
0 0.992104 0.0942891 6.43373
0 0.992135 0.0945227 7.39089
0 0.992165 0.0975195 7.17288
0 0.99221 0.0980735 7.32103
0 0.992227 0.09555 7.56178
0 0.992142 0.0939864 7.41023
0 0.992242 0.096991 8.09268
0 0.992279 0.0956333 8.6536
0 0.99213 0.182248 21.6877
0 0.992003 0.174062 24.4082
0 0.992154 0.094498 7.11482
0 0.992187 0.0939452 7.31237
0 0.992186 0.0951095 7.49547
0 0.992216 0.180372 19.0965
0 0.992191 0.0948954 7.87528
0 0.992301 0.177424 19.0502
0 0.992137 0.0951129 7.73599
0 0.992151 0.0949046 6.89918
0 0.992155 0.0946497 7.67519
0 0.992 0.177538 28.0571
0 0.992182 0.0948689 7.53564
0 0.992206 0.0963364 6.88332
0 0.992255 0.0948999 7.43581
0 0.992215 0.0946187 7.18302
0 0.992208 0.0951346 6.42592
0 0.992232 0.0960233 8.23417
0 0.99212 0.0934959 7.06036
0 0.992062 0.0945706 6.66812
0 0.992209 0.0936768 7.20353
0 0.992204 0.0936981 7.19745
0 0.992164 0.185742 18.0098
0 0.992175 0.0957577 6.17488
0 0.992252 0.0963547 7.98387
0 0.992195 0.0983674 5.33679
0 0.992232 0.178722 16.65
0 0.992243 0.0948747 6.18082
0 0.992262 0.177435 15.6935
0 0.992149 0.0948441 7.56465
0 0.992154 0.0953467 6.82764
0 0.992156 0.0958942 7.6147
0 0.992118 0.093776 7.56197
0 0.992253 0.0928866 7.59453
0 0.992165 0.0957152 6.84085
0 0.992205 0.0953682 7.02948
0 0.992205 0.0950012 7.43819
0 0.992175 0.0941402 7.29142
0 0.99219 0.0946242 7.29789
0 0.992191 0.0952344 7.78998
0 0.992203 0.0955404 6.68209
0 0.992202 0.0955516 7.22621
0 0.992318 0.177094 19.7076
0 0.992165 0.094354 6.8524
0 0.9922 0.101997 5.40399
0 0.992171 0.0952385 6.19611
0 0.992237 0.0957578 7.59604
0 0.992215 0.103303 7.57326
0 0.992122 0.182039 20.9784
0 0.992219 0.0959945 7.99904
0 0.992053 0.171041 26.556
0 0.992158 0.0959721 5.72052
0 0.992159 0.0975416 6.20054
0 0.992159 0.0943232 6.66988
0 0.992209 0.0943428 7.50855
0 0.992265 0.09361 8.27328
0 0.992217 0.0958287 8.36847
0 0.992161 0.0950676 6.00575
0 0.992165 0.0987842 9.54667
0 0.992189 0.0982735 6.39666
0 0.992176 0.0970929 6.53817
0 0.9922 0.0959306 6.86499
0 0.992206 0.0959856 7.44141
0 0.992193 0.0953691 6.19356
0 0.992232 0.180073 12.7966
0 0.99217 0.0954621 6.76947
0 0.992182 0.0980891 5.6087
0 0.99223 0.0972189 6.52966
0 0.992205 0.0954563 6.64935
0 0.99211 0.0965384 7.30479
0 0.992201 0.100345 6.87203
0 0.99224 0.176069 15.8913
0 0.992182 0.0979923 7.55184
0 0.99217 0.0958741 7.74328
0 0.992174 0.0952154 8.09589
0 0.992173 0.0940268 7.09213
0 0.992173 0.0948504 7.05866
0 0.992231 0.182278 21.8572
0 0.992207 0.0974262 9.48019
0 0.992183 0.101014 5.22664
0 0.992221 0.10415 8.42018
0 0.992185 0.101432 8.97122
0 0.992191 0.0950229 7.59615
0 0.992171 0.0962701 4.79537
0 0.99219 0.0951446 7.29136
0 0.992172 0.0951047 7.40544
0 0.992181 0.0953587 7.16315
0 0.992185 0.0953101 6.84064
0 0.992226 0.176492 21.0873
0 0.99217 0.0959342 6.88547
0 0.992191 0.0956184 6.67515
0 0.992198 0.102248 6.39698
0 0.992194 0.095794 6.51754
0 0.99225 0.0965982 6.78215
0 0.992217 0.102716 7.89789
0 0.992238 0.0984808 6.1263
0 0.992242 0.094954 8.50285
0 0.992239 0.0952109 7.98927
0 0.992202 0.0948919 6.91601
0 0.992189 0.098832 4.66548
0 0.992161 0.0951015 5.28875
0 0.992172 0.0967551 5.63624
0 0.992248 0.0950901 8.73034
0 0.992205 0.176424 13.9978
0 0.992216 0.10206 9.85606
0 0.992191 0.100734 7.08095
0 0.992163 0.0949193 7.50184
0 0.992192 0.104499 7.1516
0 0.992201 0.0957922 7.85729
0 0.992191 0.10518 4.05284
0 0.992169 0.0948883 7.44038
0 0.992184 0.0941803 6.26278
0 0.992279 0.100599 6.30943
0 0.992286 0.173352 22.873
0 0.992175 0.0950727 6.1706
0 0.992184 0.0966162 6.09681
0 0.99224 0.10582 9.05855
0 0.992191 0.0969859 6.26115
0 0.99221 0.0955252 7.40497
0 0.992241 0.0956492 7.0163
0 0.99217 0.102123 6.62964
0 0.992236 0.0943407 5.62346
0 0.99226 0.0942043 6.34181
0 0.992202 0.0947179 8.18534
0 0.992169 0.0950418 8.46939
0 0.992174 0.094883 8.58802
0 0.992231 0.095233 8.07126
0 0.992252 0.0948769 8.74046
0 0.992234 0.0940237 7.75061
0 0.992174 0.177015 22.9955
0 0.992169 0.0952773 6.67099
0 0.992192 0.103137 10.7863
0 0.992189 0.0956473 9.57228
0 0.992163 0.0953209 8.62311
0 0.992234 0.0956344 9.39534
0 0.992205 0.0937247 5.98707
0 0.992184 0.10079 7.49572
0 0.992223 0.0947837 7.77127
0 0.992171 0.0957197 6.65433
0 0.992303 0.0969277 7.71587
0 0.99236 0.172081 19.0537
0 0.992175 0.095006 7.39207
0 0.992206 0.0988122 8.58357
0 0.992217 0.0953692 7.35637
0 0.992196 0.103469 8.87581
0 0.992216 0.0952523 8.25108
0 0.992183 0.0944336 7.46196
0 0.99226 0.0975785 8.22944
0 0.992203 0.0948336 7.06808
0 0.992201 0.096074 8.64436
0 0.992234 0.0957974 10.0458
0 0.992255 0.0948993 8.53621
0 0.992283 0.0949018 8.72045
0 0.99229 0.172673 8.08183
0 0.992144 0.102656 7.53496
0 0.99218 0.104113 6.10019
0 0.992146 0.105048 6.54698
0 0.992247 0.0956437 9.31914
0 0.99218 0.105981 5.85211
0 0.992213 0.0994547 6.15893
0 0.9922 0.0982105 6.26724
0 0.99224 0.100752 6.19569
0 0.992167 0.0983495 10.7257
0 0.992145 0.0963593 8.62644
0 0.992245 0.0942063 8.61448
0 0.992227 0.0965891 6.62102
0 0.992276 0.175064 8.93292
0 0.992186 0.0962558 7.9414
0 0.992184 0.0959417 7.67251
0 0.992214 0.0961008 7.61055
0 0.992181 0.101228 7.93447
0 0.992192 0.0969562 5.9453
0 0.992217 0.0955405 7.67952
0 0.992258 0.0941888 5.78149
0 0.99223 0.0944886 8.06424
0 0.992246 0.0942462 7.81689
0 0.992231 0.095482 5.1944
0 0.99223 0.0946521 5.28531
0 0.992215 0.0967097 6.66373
0 0.992258 0.0952781 6.27035
0 0.992295 0.175905 22.2821
0 0.992136 0.0963979 8.18021
0 0.992189 0.104089 8.05428
0 0.992224 0.0966385 8.59344
0 0.99217 0.103156 8.23362
0 0.992215 0.0949019 7.18488
0 0.992185 0.094565 6.79411
0 0.992219 0.0949755 8.24288
0 0.992182 0.0937787 8.21001
0 0.992161 0.174672 22.3029
0 0.992186 0.0970675 5.25712
0 0.992182 0.09977 8.19784
0 0.992182 0.0991874 4.1943
0 0.992208 0.0956896 5.66006
0 0.992233 0.0956586 8.50755
0 0.992223 0.094899 5.42594
0 0.99221 0.0946817 5.77508
0 0.992231 0.0953197 5.06851
0 0.992214 0.0951109 7.00672
0 0.992232 0.0963885 7.55267
0 0.992291 0.0948541 7.36855
0 0.992286 0.178366 16.7123
0 0.992179 0.0954591 8.39001
0 0.992197 0.097272 7.46859
0 0.99219 0.0969469 8.5133
0 0.992201 0.095685 6.48815
0 0.992182 0.0958877 7.86189
0 0.992194 0.095596 7.75912
0 0.992173 0.0941332 6.69347
0 0.99214 0.179416 18.023
0 0.99218 0.0965047 7.07029
0 0.992176 0.099147 6.86815
0 0.992196 0.0984675 8.50749
0 0.992214 0.0942079 6.41768
0 0.992195 0.0945237 5.5194
0 0.992195 0.0949391 6.25307
0 0.992205 0.0950987 7.82684
0 0.992199 0.0963832 6.45131
0 0.992177 0.0952532 8.4634
0 0.992227 0.0947017 6.3329
0 0.992346 0.0952918 7.77899
0 0.992384 0.171582 7.85915
0 0.992181 0.100145 9.86234
0 0.992192 0.0954554 6.17831
0 0.992166 0.0996333 6.68191
0 0.992174 0.0950639 6.57619
0 0.992153 0.094107 7.60097
0 0.992137 0.181484 18.5476
0 0.992164 0.0954658 6.38393
0 0.992183 0.0949646 6.69024
0 0.992187 0.0948005 6.08096
0 0.992187 0.0947496 7.32649
0 0.992188 0.0944414 6.1916
0 0.992188 0.095433 6.33843
0 0.992208 0.09438 6.42443
0 0.992281 0.0943395 6.85016
0 0.992397 0.17283 21.9272
0 0.992174 0.100732 9.4402
0 0.992161 0.0947301 6.89995
0 0.992161 0.094954 7.92798
0 0.992139 0.0941586 7.72918
0 0.992116 0.184227 22.0815
0 0.992186 0.0947682 7.24688
0 0.992188 0.0942122 7.99034
0 0.992196 0.0956238 6.70568
0 0.992207 0.0957502 7.2957
0 0.992201 0.0946863 6.45644
0 0.992192 0.0939154 6.56449
0 0.992237 0.172806 11.3534
0 0.992177 0.0946805 7.46438
0 0.992165 0.0943053 6.73044
0 0.992165 0.0937941 7.31727
0 0.992148 0.182821 23.1459
0 0.992195 0.0951473 7.02178
0 0.992198 0.0947051 6.75931
0 0.992203 0.0945255 6.81423
0 0.992206 0.0945105 6.91774
0 0.992174 0.0958347 7.09821
0 0.992165 0.0951458 7.16066
0 0.992171 0.179508 25.6618
0 0.992162 0.0939091 7.14998
0 0.992144 0.0939364 7.27941
0 0.992174 0.182306 24.1453
0 0.992153 0.0943806 6.74759
0 0.992146 0.0958424 7.16872
0 0.992139 0.0953171 6.62823
0 0.992066 0.0947559 6.8654
0 0.992114 0.179191 25.8003
0 0.992064 0.0948448 6.95342
0 0.992077 0.177707 26.239
0 0.991999 0.0954141 7.10068
0 0.991947 0.0959047 7.3702
0 0.991892 0.172 35.073
0 0.991971 0.173218 27.0408
0 0.991856 0.174515 36.607
VECTORS fa_u float
0.00621503 0.00255783 -0
0.00584763 0.00337336 -0
0.0057047 0.00153063 -0
0.00652886 0.000882841 -0
1e-08 0 0
0.00521226 0.0040058 -0
0.00415841 0.00413599 -0
1e-08 0 0
1e-08 0 0
0.00416141 0.00536674 -0
0.00349778 0.0060337 -0
0.00657708 2.1158e-05 -0
0.00637769 -0.000815414 0
1e-08 0 0
1e-08 0 0
1e-08 0 0
1e-08 0 0
1e-08 0 0
1e-08 0 0
1e-08 0 0
1e-08 0 0
0.00256117 0.00620239 -0
0.00167534 0.006297 -0
1e-08 0 0
1e-08 0 0
1e-08 0 0
0.00674524 -0.0017909 0
1e-08 0 0
0.00668817 -0.0027964 0
1e-08 0 0
1e-08 0 0
1e-08 0 0
0.000848724 0.00653734 -0
1e-08 0 0
1e-08 0 0
1e-08 0 0
1e-08 0 0
1e-08 0 0
1e-08 0 0
1e-08 0 0
1e-08 0 0
1e-08 0 0
1e-08 0 0
-2.24511e-05 0.00680923 -0
1e-08 0 0
1e-08 0 0
1e-08 0 0
0.0055821 -0.00327064 0
1e-08 0 0
0.00482117 -0.00372681 0
1e-08 0 0
1e-08 0 0
1e-08 0 0
1e-08 0 0
1e-08 0 0
1e-08 0 0
1e-08 0 0
1e-08 0 0
1e-08 0 0
1e-08 0 0
1e-08 0 0
1e-08 0 0
1e-08 0 0
-0.000809748 0.00604383 0
1e-08 0 0
1e-08 0 0
1e-08 0 0
1e-08 0 0
1e-08 0 0
0.00440329 -0.00439995 0
1e-08 0 0
0.00369348 -0.00476616 0
1e-08 0 0
1e-08 0 0
1e-08 0 0
1e-08 0 0
1e-08 0 0
1e-08 0 0
1e-08 0 0
1e-08 0 0
1e-08 0 0
1e-08 0 0
1e-08 0 0
1e-08 0 0
1e-08 0 0
-0.00165258 0.00618884 0
1e-08 0 0
1e-08 0 0
1e-08 0 0
1e-08 0 0
1e-08 0 0
1e-08 0 0
0.00365821 -0.00627828 0
1e-08 0 0
1e-08 0 0
1e-08 0 0
1e-08 0 0
1e-08 0 0
0.00264105 -0.00640073 0
1e-08 0 0
1e-08 0 0
1e-08 0 0
1e-08 0 0
1e-08 0 0
1e-08 0 0
1e-08 0 0
1e-08 0 0
1e-08 0 0
1e-08 0 0
-0.00253023 0.00612999 0
1e-08 0 0
1e-08 0 0
1e-08 0 0
1e-08 0 0
1e-08 0 0
1e-08 0 0
1e-08 0 0
1e-08 0 0
1e-08 0 0
1e-08 0 0
1e-08 0 0
1e-08 0 0
1e-08 0 0
1e-08 0 0
0.00165108 -0.00622789 0
1e-08 0 0
1e-08 0 0
1e-08 0 0
1e-08 0 0
1e-08 0 0
1e-08 0 0
1e-08 0 0
1e-08 0 0
1e-08 0 0
-0.00334124 0.0057891 0
1e-08 0 0
1e-08 0 0
1e-08 0 0
1e-08 0 0
1e-08 0 0
1e-08 0 0
1e-08 0 0
1e-08 0 0
1e-08 0 0
1e-08 0 0
1e-08 0 0
1e-08 0 0
1e-08 0 0
1e-08 0 0
1e-08 0 0
0.000781354 -0.00588558 0
1e-08 0 0
1e-08 0 0
1e-08 0 0
1e-08 0 0
1e-08 0 0
1e-08 0 0
1e-08 0 0
1e-08 0 0
1e-08 0 0
1e-08 0 0
-0.00405121 0.00526893 0
1e-08 0 0
1e-08 0 0
1e-08 0 0
1e-08 0 0
1e-08 0 0
1e-08 0 0
1e-08 0 0
1e-08 0 0
1e-08 0 0
1e-08 0 0
1e-08 0 0
1e-08 0 0
1.66902e-05 -0.00689959 0
1e-08 0 0
1e-08 0 0
1e-08 0 0
1e-08 0 0
1e-08 0 0
1e-08 0 0
1e-08 0 0
1e-08 0 0
1e-08 0 0
1e-08 0 0
1e-08 0 0
1e-08 0 0
-0.00425052 0.00426165 0
1e-08 0 0
1e-08 0 0
1e-08 0 0
1e-08 0 0
1e-08 0 0
1e-08 0 0
1e-08 0 0
1e-08 0 0
1e-08 0 0
1e-08 0 0
1e-08 0 0
1e-08 0 0
1e-08 0 0
-0.00084703 -0.00647345 0
1e-08 0 0
1e-08 0 0
1e-08 0 0
1e-08 0 0
1e-08 0 0
1e-08 0 0
1e-08 0 0
1e-08 0 0
-0.00512272 0.0039669 0
1e-08 0 0
1e-08 0 0
1e-08 0 0
1e-08 0 0
1e-08 0 0
1e-08 0 0
1e-08 0 0
1e-08 0 0
1e-08 0 0
1e-08 0 0
1e-08 0 0
-0.00166495 -0.00624578 0
1e-08 0 0
1e-08 0 0
1e-08 0 0
1e-08 0 0
1e-08 0 0
1e-08 0 0
1e-08 0 0
-0.00606129 0.0035197 0
1e-08 0 0
1e-08 0 0
1e-08 0 0
1e-08 0 0
1e-08 0 0
1e-08 0 0
1e-08 0 0
1e-08 0 0
1e-08 0 0
1e-08 0 0
1e-08 0 0
-0.00258717 -0.00625651 0
1e-08 0 0
1e-08 0 0
1e-08 0 0
1e-08 0 0
1e-08 0 0
-0.00624529 0.00258124 0
1e-08 0 0
1e-08 0 0
1e-08 0 0
1e-08 0 0
1e-08 0 0
1e-08 0 0
1e-08 0 0
1e-08 0 0
-0.00353352 -0.00608044 0
1e-08 0 0
1e-08 0 0
1e-08 0 0
1e-08 0 0
-0.00632552 0.00168262 0
1e-08 0 0
1e-08 0 0
1e-08 0 0
1e-08 0 0
1e-08 0 0
1e-08 0 0
-0.00388993 -0.00502511 0
1e-08 0 0
1e-08 0 0
1e-08 0 0
-0.00649707 0.000843342 0
1e-08 0 0
1e-08 0 0
1e-08 0 0
1e-08 0 0
1e-08 0 0
1e-08 0 0
-0.00423284 -0.0042303 0
1e-08 0 0
1e-08 0 0
-0.00690153 -2.43202e-05 0
1e-08 0 0
1e-08 0 0
1e-08 0 0
1e-08 0 0
-0.00542299 -0.00417166 0
1e-08 0 0
-0.00583612 -0.000779701 0
1e-08 0 0
1e-08 0 0
-0.00572443 -0.00330116 0
-0.00629403 -0.00167423 0
-0.00617261 -0.00254657 0
