# vtk DataFile Version 2.0
CellBP Time: 9.28
ASCII
DATASET UNSTRUCTURED_GRID
POINTS 296 double
-8.93436 -3.65831 0
-8.37765 -4.80961 0
-9.32489 -2.43743 0
-9.60099 -1.21055 0
-8.09334 -2.70331 0
-7.66147 -5.87409 0
-6.81358 -6.83666 0
-7.65192 -3.72897 0
-7.09355 -4.70252 0
-5.89063 -7.70445 0
-4.86312 -8.43621 0
-9.7101 0.0380251 0
-9.65437 1.31286 0
-8.41125 -1.61518 0
-8.56797 -0.501578 0
-7.337 -1.91102 0
-6.96473 -2.77857 0
-6.43778 -5.61481 0
-5.66848 -6.44423 0
-6.53981 -3.73885 0
-6.00661 -4.52439 0
-3.71462 -8.99941 0
-2.48701 -9.39891 0
-4.79822 -7.15077 0
-3.85101 -7.74259 0
-8.58361 0.631814 0
-9.43585 2.59008 0
-8.43869 1.72289 0
-9.02613 3.8053 0
-7.51401 -0.879903 0
-7.57798 0.0896519 0
-6.73197 -1.25174 0
-1.21574 -9.63626 0
-6.2345 -2.06501 0
-6.10571 -2.93942 0
-5.36383 -5.32409 0
-4.66478 -5.96768 0
-5.47035 -3.63343 0
-5.09432 -4.42348 0
-2.81666 -8.20016 0
-1.74712 -8.45616 0
-3.84431 -6.58099 0
-3.01032 -7.01935 0
0.0555933 -9.69562 0
-7.50774 1.11596 0
-8.18328 2.86035 0
-7.36828 2.0485 0
-8.41253 4.9244 0
-7.70358 3.8746 0
-7.65535 5.96044 0
-6.57718 -0.369304 0
-6.75832 0.549872 0
-5.6141 -0.969831 0
-0.574389 -8.60547 0
0.547588 -8.5391 0
-5.15356 -2.39903 0
-4.34694 -4.95822 0
-3.79429 -5.64037 0
-4.3155 -3.70354 0
-2.02313 -7.41056 0
-1.11508 -7.61755 0
-2.92537 -5.96965 0
-2.27267 -6.48953 0
1.3097 -9.57711 0
-6.51558 1.38257 0
-6.98628 3.02828 0
-6.48965 2.30544 0
-7.10651 4.84527 0
-6.54514 3.88765 0
-6.81341 6.90662 0
-6.39839 5.7267 0
-5.87019 7.76256 0
-4.36804 -1.15891 0
-5.67678 0.493727 0
-4.57112 -0.0250225 0
-0.011133 -7.6458 0
1.67615 -8.38808 0
0.900576 -7.54226 0
-3.95958 -2.35351 0
-3.45429 -1.37929 0
-3.22009 -4.697 0
-3.21302 -3.20274 0
-1.36239 -6.52558 0
-0.521811 -6.8508 0
-1.94404 -5.42816 0
2.55823 -9.32994 0
-5.37855 1.99158 0
-5.93992 2.9828 0
-5.94538 4.72179 0
-5.61159 3.86837 0
-5.60104 6.52155 0
-5.30558 5.44827 0
-4.84234 8.51459 0
-4.69996 7.18359 0
-3.46186 -0.420802 0
-4.35979 1.22342 0
-3.65209 0.583713 0
-3.97854 2.2932 0
-3.70559 9.08263 0
2.75433 -8.05273 0
0.370743 -6.60275 0
1.93434 -7.28317 0
1.22953 -6.69031 0
-2.42607 -0.863599 0
-2.81296 -2.10487 0
-2.26041 -4.02152 0
-2.29733 -2.92355 0
-0.4557 -5.71757 0
-1.20087 -4.42396 0
3.7687 -8.93742 0
-4.67642 3.30749 0
-4.95352 4.45394 0
-4.5177 6.08473 0
-4.41376 5.19527 0
-3.75084 7.78766 0
-3.71178 6.62432 0
-2.71156 8.19132 0
-1.63375 -0.127151 0
-1.43576 -0.878021 0
-2.47165 0.517022 0
-3.20345 1.43627 0
-3.17317 3.25401 0
-2.8637 2.35948 0
-1.35066 0.638608 0
-2.48517 9.46757 0
3.79275 -7.62381 0
2.83146 -6.89127 0
0.898771 -5.65211 0
1.97169 -6.19663 0
-1.6658 -1.97316 0
-1.41355 -3.22885 0
0.0778396 -4.64688 0
-0.549738 -3.64461 0
4.77116 -7.07111 0
4.91122 -8.3806 0
-3.68403 4.43556 0
-3.6328 5.58188 0
-2.79717 7.06843 0
-2.92679 6.16757 0
-1.62132 8.50615 0
-1.87992 7.40993 0
-2.29752 3.97389 0
-0.722554 -1.31629 0
-0.830135 -0.244782 0
-1.9302 1.68981 0
-2.10172 2.85376 0
-1.29893 3.50524 0
-0.871683 1.36394 0
-0.283872 0.468173 0
-0.520955 8.6611 0
-1.22488 9.70305 0
1.06967 -4.45485 0
3.7478 -6.44206 0
2.86242 -5.86923 0
2.0319 -5.24892 0
4.62579 -5.97129 0
-0.547325 -2.45564 0
0.488037 -3.40746 0
0.0571882 -1.60328 0
1.43858 -3.59499 0
5.69014 -6.39535 0
5.97324 -7.66657 0
-2.41482 5.21409 0
-2.06204 6.35509 0
-0.873575 7.61168 0
-1.22293 6.75103 0
0.0935407 7.70287 0
-1.12592 4.41459 0
0.149126 -0.610353 0
-0.807665 2.49485 0
-0.346102 3.57314 0
0.0550772 1.5212 0
0.734214 0.477257 0
0.636651 8.68992 0
0.0419992 9.81355 0
2.30672 -4.1553 0
3.72498 -5.42479 0
2.89363 -5.03114 0
5.41958 -5.30295 0
4.54407 -5.08091 0
0.632155 -2.28329 0
1.23774 -2.90141 0
0.755253 -1.38522 0
2.11651 -3.06496 0
2.92466 -3.37944 0
6.00914 -4.65017 0
6.48712 -5.60501 0
6.92786 -6.80896 0
-0.985989 5.68677 0
-0.346353 6.7161 0
1.10144 7.6112 0
0.559639 6.92885 0
-0.00265047 4.65054 0
0.587586 3.78282 0
1.32904 -0.638348 0
0.521023 2.63839 0
0.948882 1.57698 0
1.89462 0.210813 0
1.59258 1.06333 0
2.0984 7.44545 0
1.76947 8.54011 0
1.32302 9.74256 0
3.71254 -4.20612 0
4.98073 -4.28324 0
5.71135 -3.80939 0
3.69949 -3.10854 0
1.79729 -1.87566 0
2.96409 -2.52615 0
6.64486 -3.84457 0
7.22629 -4.77699 0
7.79259 -5.87783 0
0.484498 5.76158 0
1.41003 6.61217 0
2.3353 6.55127 0
1.18604 4.48664 0
1.46365 3.3549 0
2.40839 -0.686953 0
2.79548 0.141245 0
1.76616 2.14761 0
2.58376 1.13961 0
3.02511 7.03798 0
2.85725 8.22037 0
2.59045 9.49862 0
4.79743 -3.22247 0
5.99379 -3.0194 0
4.09817 -2.22969 0
3.19873 -1.48461 0
6.61211 -2.27129 0
7.10399 -2.98773 0
7.81471 -3.84329 0
8.52918 -4.85327 0
1.99448 5.50156 0
3.01195 6.02938 0
2.334 4.06006 0
2.38873 3.01802 0
3.47652 -0.4517 0
3.57091 0.616029 0
2.921 2.25855 0
3.48815 1.5056 0
3.90121 5.77407 0
3.89572 6.65495 0
3.91055 7.79135 0
3.81445 9.09415 0
5.47211 -1.87716 0
4.43809 -1.11028 0
6.58708 -1.30942 0
7.45364 -1.99347 0
8.23728 -2.81173 0
9.09748 -3.70988 0
3.32546 4.77273 0
3.26756 3.32341 0
4.61288 0.135469 0
4.42327 1.2822 0
3.96528 2.38995 0
4.41966 5.02312 0
4.7142 6.04846 0
4.86978 7.22508 0
4.95829 8.52601 0
5.76493 -0.432746 0
6.85427 -0.488604 0
7.60818 -1.06079 0
8.5147 -1.71433 0
9.49894 -2.48368 0
4.41304 3.73013 0
5.66682 1.05139 0
5.20524 2.45375 0
5.19175 4.4883 0
5.43941 5.37619 0
5.74068 6.51055 0
5.98358 7.79275 0
6.67131 0.429205 0
7.67102 -0.030132 0
8.67572 -0.566053 0
9.73905 -1.21363 0
6.76355 1.28463 0
5.52143 3.6552 0
6.33559 2.10606 0
6.16002 2.97174 0
6.07331 4.53831 0
6.49018 5.67839 0
6.92068 6.93523 0
7.58089 0.930801 0
8.6469 0.558556 0
9.80333 0.0632017 0
7.3906 1.92607 0
6.56868 3.75363 0
7.02047 2.83409 0
7.14604 4.73561 0
7.7795 5.98302 0
8.48046 1.67817 0
9.6819 1.31711 0
8.15242 2.74117 0
7.73904 3.79282 0
8.49396 4.92281 0
9.4407 2.56786 0
9.05014 3.7795 0
CELLS 542 2168
3 2 0 4
3 0 1 7
3 4 0 7
3 1 5 8
3 7 1 8
3 3 2 13
3 13 2 4
3 11 3 14
3 14 3 13
3 13 4 15
3 4 7 16
3 15 4 16
3 5 6 17
3 8 5 17
3 6 9 18
3 17 6 18
3 7 8 19
3 16 7 19
3 8 17 20
3 19 8 20
3 9 10 23
3 18 9 23
3 10 21 24
3 23 10 24
3 12 11 25
3 25 11 14
3 26 12 27
3 27 12 25
3 14 13 29
3 29 13 15
3 25 14 30
3 30 14 29
3 29 15 31
3 15 16 33
3 31 15 33
3 16 19 34
3 33 16 34
3 17 18 35
3 20 17 35
3 18 23 36
3 35 18 36
3 19 20 37
3 34 19 37
3 20 35 38
3 37 20 38
3 21 22 39
3 24 21 39
3 22 32 40
3 39 22 40
3 23 24 41
3 36 23 41
3 24 39 42
3 41 24 42
3 27 25 44
3 44 25 30
3 28 26 45
3 45 26 27
3 45 27 46
3 46 27 44
3 47 28 48
3 48 28 45
3 30 29 50
3 50 29 31
3 44 30 51
3 51 30 50
3 50 31 52
3 31 33 52
3 32 43 53
3 40 32 53
3 53 43 54
3 33 34 55
3 34 37 55
3 33 55 52
3 35 36 56
3 38 35 56
3 36 41 57
3 56 36 57
3 37 38 58
3 38 56 58
3 37 58 55
3 39 40 59
3 42 39 59
3 40 53 60
3 59 40 60
3 41 42 61
3 57 41 61
3 42 59 62
3 61 42 62
3 43 63 54
3 46 44 64
3 64 44 51
3 48 45 65
3 65 45 46
3 65 46 66
3 66 46 64
3 49 47 67
3 67 47 48
3 67 48 68
3 68 48 65
3 69 49 70
3 70 49 67
3 52 55 72
3 64 51 73
3 51 50 73
3 50 52 73
3 73 52 74
3 74 52 72
3 53 54 75
3 60 53 75
3 54 63 76
3 54 76 77
3 75 54 77
3 55 58 78
3 72 55 78
3 72 78 79
3 56 57 80
3 57 61 80
3 56 80 58
3 58 80 81
3 78 58 81
3 59 60 82
3 62 59 82
3 60 75 83
3 82 60 83
3 61 62 84
3 62 82 84
3 61 84 80
3 63 85 76
3 66 64 86
3 64 73 86
3 68 65 87
3 87 65 66
3 87 66 86
3 70 67 88
3 88 67 68
3 88 68 89
3 89 68 87
3 71 69 90
3 90 69 70
3 90 70 91
3 91 70 88
3 92 71 93
3 93 71 90
3 74 72 94
3 94 72 79
3 86 73 95
3 95 73 74
3 95 74 96
3 96 74 94
3 97 86 95
3 76 85 99
3 75 77 100
3 83 75 100
3 76 99 101
3 77 76 101
3 77 101 102
3 100 77 102
3 94 79 103
3 78 81 104
3 79 78 104
3 79 104 103
3 80 84 105
3 81 80 105
3 81 105 106
3 104 81 106
3 82 83 107
3 83 100 107
3 82 107 84
3 84 107 108
3 105 84 108
3 85 109 99
3 89 87 110
3 87 86 110
3 110 86 97
3 91 88 111
3 111 88 89
3 111 89 110
3 93 90 112
3 112 90 91
3 112 91 113
3 113 91 111
3 98 92 114
3 114 92 93
3 114 93 115
3 115 93 112
3 116 98 114
3 117 103 118
3 96 94 119
3 94 103 119
3 119 103 117
3 97 95 120
3 120 95 96
3 120 96 119
3 121 110 97
3 121 97 122
3 122 97 120
3 123 119 117
3 124 98 116
3 99 109 125
3 99 125 126
3 101 99 126
3 100 102 127
3 100 127 107
3 101 126 128
3 102 101 128
3 102 128 127
3 104 106 129
3 104 129 103
3 103 129 118
3 105 108 130
3 106 105 130
3 106 130 129
3 107 127 131
3 108 107 131
3 108 131 132
3 108 132 130
3 109 134 125
3 125 134 133
3 113 111 135
3 111 110 135
3 135 110 121
3 115 112 136
3 136 112 113
3 136 113 135
3 116 114 137
3 137 114 115
3 137 115 138
3 138 115 136
3 139 124 116
3 139 116 140
3 140 116 137
3 141 135 121
3 118 129 142
3 118 142 143
3 117 118 143
3 123 117 143
3 122 120 144
3 120 119 144
3 144 119 123
3 141 121 145
3 145 121 122
3 145 122 144
3 146 141 145
3 147 144 123
3 147 123 148
3 143 148 123
3 150 124 139
3 149 150 139
3 131 127 151
3 125 133 152
3 126 125 152
3 126 152 153
3 128 126 153
3 128 153 154
3 128 154 127
3 127 154 151
3 152 133 155
3 130 132 156
3 130 156 129
3 129 156 142
3 131 151 157
3 132 131 157
3 132 157 156
3 156 158 142
3 157 151 159
3 133 160 155
3 134 161 133
3 133 161 160
3 138 136 162
3 136 135 162
3 162 135 141
3 140 137 163
3 163 137 138
3 163 138 162
3 149 139 164
3 164 139 140
3 164 140 165
3 165 140 163
3 166 149 164
3 167 162 141
3 167 141 146
3 142 158 168
3 143 142 168
3 143 168 148
3 146 145 169
3 145 144 169
3 169 144 147
3 170 167 146
3 170 146 169
3 171 169 147
3 171 147 148
3 171 148 172
3 168 172 148
3 173 149 166
3 174 150 149
3 173 174 149
3 154 175 151
3 151 175 159
3 152 155 176
3 153 152 176
3 153 176 177
3 153 177 154
3 154 177 175
3 155 160 178
3 155 178 179
3 176 155 179
3 156 157 180
3 156 180 158
3 157 159 181
3 157 181 180
3 158 180 182
3 158 182 168
3 159 175 183
3 159 183 181
3 175 184 183
3 160 186 178
3 178 186 185
3 161 187 160
3 160 187 186
3 165 163 188
3 163 162 188
3 188 162 167
3 166 164 189
3 189 164 165
3 189 165 188
3 190 173 166
3 190 166 191
3 191 166 189
3 192 188 167
3 192 167 170
3 193 192 170
3 182 194 168
3 194 172 168
3 193 170 195
3 170 169 195
3 195 169 171
3 196 195 171
3 196 171 172
3 194 197 172
3 197 198 172
3 198 196 172
3 200 173 190
3 199 200 190
3 201 174 173
3 200 201 173
3 176 179 202
3 177 176 202
3 177 202 175
3 175 202 184
3 178 185 203
3 178 203 179
3 179 203 202
3 203 185 204
3 202 205 184
3 183 206 181
3 180 181 206
3 180 206 182
3 182 206 194
3 183 184 207
3 205 207 184
3 183 207 206
3 185 208 204
3 186 209 185
3 185 209 208
3 187 210 186
3 186 210 209
3 191 189 211
3 189 188 211
3 211 188 192
3 199 190 212
3 212 190 191
3 212 191 211
3 213 199 212
3 214 211 192
3 214 192 193
3 215 214 193
3 215 193 195
3 206 216 194
3 216 197 194
3 216 217 197
3 215 195 218
3 218 195 196
3 198 218 196
3 217 219 197
3 219 218 198
3 197 219 198
3 220 199 213
3 221 200 199
3 220 221 199
3 222 201 200
3 221 222 200
3 203 204 223
3 203 223 202
3 202 223 205
3 204 208 224
3 204 224 223
3 205 223 225
3 205 225 207
3 207 225 226
3 207 226 206
3 226 216 206
3 208 228 224
3 224 228 227
3 209 229 208
3 229 228 208
3 210 230 209
3 209 230 229
3 213 212 231
3 212 211 231
3 231 211 214
3 232 220 213
3 232 213 231
3 233 231 214
3 233 214 215
3 234 233 215
3 234 215 218
3 226 235 216
3 235 217 216
3 235 236 217
3 217 236 219
3 237 234 218
3 237 218 219
3 236 238 219
3 238 237 219
3 240 220 232
3 239 240 232
3 241 221 220
3 240 241 220
3 242 222 221
3 241 242 221
3 224 227 243
3 224 243 223
3 223 243 225
3 225 243 244
3 225 244 226
3 226 244 235
3 227 245 243
3 228 246 227
3 227 246 245
3 229 247 228
3 228 247 246
3 230 248 229
3 229 248 247
3 239 232 249
3 232 231 249
3 249 231 233
3 250 249 233
3 250 233 234
3 237 250 234
3 244 251 235
3 235 251 236
3 251 252 236
3 236 252 238
3 252 253 238
3 253 250 237
3 253 237 238
3 254 239 249
3 255 240 239
3 254 255 239
3 256 241 240
3 255 256 240
3 257 242 241
3 256 257 241
3 245 258 243
3 243 258 244
3 244 258 251
3 245 259 258
3 246 260 245
3 245 260 259
3 247 261 246
3 246 261 260
3 248 262 247
3 247 262 261
3 254 249 263
3 263 249 250
3 253 263 250
3 258 264 251
3 251 264 252
3 264 265 252
3 265 263 253
3 252 265 253
3 266 254 263
3 267 255 254
3 266 267 254
3 268 256 255
3 267 268 255
3 269 257 256
3 268 269 256
3 259 270 258
3 270 264 258
3 260 271 259
3 259 271 270
3 261 272 260
3 260 272 271
3 262 273 261
3 273 272 261
3 270 274 264
3 275 266 263
3 275 263 265
3 274 276 264
3 276 265 264
3 276 277 265
3 277 275 265
3 278 267 266
3 275 278 266
3 279 268 267
3 278 279 267
3 280 269 268
3 279 280 268
3 271 281 270
3 270 281 274
3 272 282 271
3 271 282 281
3 273 283 272
3 272 283 282
3 281 284 274
3 274 284 276
3 285 278 275
3 277 285 275
3 284 286 276
3 286 285 277
3 276 286 277
3 287 279 278
3 285 287 278
3 288 280 279
3 287 288 279
3 282 289 281
3 281 289 284
3 283 290 282
3 282 290 289
3 289 291 284
3 284 291 286
3 291 292 286
3 292 287 285
3 286 292 285
3 293 288 287
3 292 293 287
3 290 294 289
3 289 294 291
3 294 295 291
3 295 293 292
3 291 295 292
CELL_TYPES 542
5
5
5
5
5
5
5
5
5
5
5
5
5
5
5
5
5
5
5
5
5
5
5
5
5
5
5
5
5
5
5
5
5
5
5
5
5
5
5
5
5
5
5
5
5
5
5
5
5
5
5
5
5
5
5
5
5
5
5
5
5
5
5
5
5
5
5
5
5
5
5
5
5
5
5
5
5
5
5
5
5
5
5
5
5
5
5
5
5
5
5
5
5
5
5
5
5
5
5
5
5
5
5
5
5
5
5
5
5
5
5
5
5
5
5
5
5
5
5
5
5
5
5
5
5
5
5
5
5
5
5
5
5
5
5
5
5
5
5
5
5
5
5
5
5
5
5
5
5
5
5
5
5
5
5
5
5
5
5
5
5
5
5
5
5
5
5
5
5
5
5
5
5
5
5
5
5
5
5
5
5
5
5
5
5
5
5
5
5
5
5
5
5
5
5
5
5
5
5
5
5
5
5
5
5
5
5
5
5
5
5
5
5
5
5
5
5
5
5
5
5
5
5
5
5
5
5
5
5
5
5
5
5
5
5
5
5
5
5
5
5
5
5
5
5
5
5
5
5
5
5
5
5
5
5
5
5
5
5
5
5
5
5
5
5
5
5
5
5
5
5
5
5
5
5
5
5
5
5
5
5
5
5
5
5
5
5
5
5
5
5
5
5
5
5
5
5
5
5
5
5
5
5
5
5
5
5
5
5
5
5
5
5
5
5
5
5
5
5
5
5
5
5
5
5
5
5
5
5
5
5
5
5
5
5
5
5
5
5
5
5
5
5
5
5
5
5
5
5
5
5
5
5
5
5
5
5
5
5
5
5
5
5
5
5
5
5
5
5
5
5
5
5
5
5
5
5
5
5
5
5
5
5
5
5
5
5
5
5
5
5
5
5
5
5
5
5
5
5
5
5
5
5
5
5
5
5
5
5
5
5
5
5
5
5
5
5
5
5
5
5
5
5
5
5
5
5
5
5
5
5
5
5
5
5
5
5
5
5
5
5
5
5
5
5
5
5
5
5
5
5
5
5
5
5
5
5
5
5
5
5
5
5
5
5
5
5
5
5
5
5
5
5
5
5
5
5
5
5
5
5
5
5
5
5
5
5
5
5
5
5
5
5
5
5
5
5
5
5
5
5
5
5
5
5
5
5
5
5
5
5
5
5
5
5
5
5
5
5
5
5
5
5
5
5
5
5
5
5
5
5
5
5
5
5
5
5
5
5
5
5
5
POINT_DATA 296
SCALARS concentrations float 4
LOOKUP_TABLE default
0 0.95136 0.114742 9.3741
0 0.951327 0.114126 13.1492
0 0.951309 0.114043 10.3598
0 0.951331 0.113688 8.61404
0 0.951332 0.0930973 6.99604
0 0.951311 0.114301 8.85305
0 0.951336 0.115145 9.43256
0 0.951345 0.0936412 7.648
0 0.951318 0.093491 6.13074
0 0.951361 0.115961 11.0854
0 0.951358 0.113686 11.188
0 0.951336 0.112754 8.41746
0 0.951298 0.114805 10.0371
0 0.951312 0.0931459 6.07875
0 0.951338 0.0933809 6.8703
0 0.951316 0.0938441 8.29902
0 0.951326 0.094138 8.17598
0 0.951326 0.0931485 6.75418
0 0.951347 0.0930029 6.89724
0 0.951333 0.0936547 6.36726
0 0.951338 0.0945878 8.24608
0 0.951347 0.114099 7.53822
0 0.951345 0.114205 10.9063
0 0.951361 0.0924207 7.16159
0 0.951353 0.0929673 7.34795
0 0.951315 0.0934863 7.45677
0 0.951324 0.11382 11.4655
0 0.951314 0.0943525 8.21842
0 0.951339 0.113863 9.82436
0 0.951312 0.0933904 7.05344
0 0.951316 0.093943 5.84622
0 0.951311 0.0939859 8.43997
0 0.951348 0.116308 12.24
0 0.951313 0.0935508 7.26893
0 0.951321 0.0944879 8.67043
0 0.951349 0.0942439 6.05949
0 0.951353 0.093403 6.93307
0 0.951326 0.0930765 7.56835
0 0.95133 0.0945124 7.98322
0 0.951349 0.0926995 7.06299
0 0.951347 0.0947305 7.43153
0 0.951341 0.094012 6.5857
0 0.951341 0.0934277 7.1595
0 0.951365 0.113307 8.8335
0 0.951317 0.0947058 5.97919
0 0.951334 0.0945665 7.09157
0 0.951323 0.0942612 5.97273
0 0.951352 0.115528 7.7944
0 0.95134 0.0946745 6.57136
0 0.951364 0.115174 10.6441
0 0.951309 0.0941079 6.06937
0 0.951312 0.0942708 8.39189
0 0.951315 0.0929607 7.49825
0 0.951356 0.0934276 6.52269
0 0.951364 0.0939303 6.24006
0 0.951325 0.0944481 5.93224
0 0.951327 0.094732 8.20776
0 0.951325 0.0939243 7.07354
0 0.951323 0.0939678 7.02139
0 0.951351 0.0944431 7.90479
0 0.951339 0.0929777 7.42685
0 0.951319 0.0946411 8.07171
0 0.951347 0.0938215 7.32866
0 0.951338 0.114785 9.23653
0 0.951311 0.0946136 8.4098
0 0.951338 0.0953296 8.46818
0 0.951322 0.101092 8.7203
0 0.951348 0.0939934 6.25407
0 0.951329 0.0943971 8.07426
0 0.951334 0.112443 10.2441
0 0.951345 0.0934584 6.64715
0 0.951305 0.11303 9.22774
0 0.95133 0.0949719 8.80414
0 0.951318 0.0940885 6.19697
0 0.951325 0.094388 6.05314
0 0.951333 0.0953024 8.25031
0 0.951331 0.0931872 6.28834
0 0.951337 0.0954688 8.28482
0 0.951342 0.0944515 6.91715
0 0.951338 0.0948886 7.44639
0 0.951326 0.094607 8.04072
0 0.951347 0.094297 7.91419
0 0.951333 0.0963898 8.4534
0 0.951297 0.0960556 8.02517
0 0.951332 0.095086 7.31558
0 0.951307 0.113241 7.79796
0 0.951321 0.094936 6.94561
0 0.951326 0.0996039 10.4839
0 0.951329 0.0940014 7.04685
0 0.951321 0.0946266 6.90755
0 0.951322 0.0932356 6.94751
0 0.951336 0.0941044 7.16834
0 0.951298 0.113129 10.6406
0 0.951308 0.0939765 5.95144
0 0.951336 0.0942564 6.59061
0 0.951325 0.0936017 7.84369
0 0.95133 0.0932802 7.09789
0 0.951325 0.0955172 6.2109
0 0.951294 0.111862 10.2363
0 0.951326 0.0937895 6.06558
0 0.951302 0.0942684 8.62138
0 0.95134 0.0938999 7.24412
0 0.951324 0.0940978 7.56393
0 0.951335 0.0946235 5.65188
0 0.951338 0.0951921 8.03787
0 0.951339 0.0935123 7.00699
0 0.951336 0.094386 7.90725
0 0.951322 0.0948985 6.66442
0 0.951334 0.0939422 7.67069
0 0.951335 0.113789 11.4148
0 0.951325 0.0942623 8.26767
0 0.951328 0.094619 6.71298
0 0.951331 0.0951949 7.62487
0 0.95134 0.0947656 6.28937
0 0.951312 0.0941309 8.43747
0 0.951326 0.0941602 5.88441
0 0.951305 0.095022 6.68805
0 0.951336 0.0938158 7.61132
0 0.95133 0.0946106 7.88239
0 0.951337 0.0942761 8.19397
0 0.951326 0.093261 7.83588
0 0.951326 0.0944482 6.23747
0 0.951329 0.097168 6.58353
0 0.95134 0.0938239 6.637
0 0.951293 0.110605 9.88193
0 0.951349 0.0948936 6.67131
0 0.951341 0.0940991 6.00737
0 0.951334 0.0942979 6.6468
0 0.951338 0.0943505 6.22235
0 0.951326 0.0956367 8.14989
0 0.951328 0.0948425 8.28234
0 0.951337 0.0943028 6.45111
0 0.951329 0.0942031 6.2655
0 0.951354 0.0946186 6.12418
0 0.951375 0.115468 14.7973
0 0.951329 0.0944729 7.63126
0 0.951332 0.0954089 6.78766
0 0.951333 0.0948135 8.83683
0 0.951331 0.0951229 8.82098
0 0.951305 0.0934995 7.71445
0 0.951318 0.0933421 6.63339
0 0.951328 0.0939005 8.16793
0 0.951316 0.0945807 8.01817
0 0.951331 0.094545 7.08139
0 0.951345 0.0942871 6.7782
0 0.951341 0.102609 5.82771
0 0.951338 0.0937243 7.25439
0 0.951344 0.0948363 6.03233
0 0.951339 0.0942654 6.66758
0 0.951306 0.0931343 7.55953
0 0.95131 0.116199 14.4828
0 0.951332 0.0947975 8.64744
0 0.95134 0.0941155 6.08411
0 0.951337 0.094797 5.46992
0 0.951332 0.0943708 6.57735
0 0.951342 0.0937654 6.41384
0 0.951317 0.0974635 8.70914
0 0.95132 0.101759 4.91814
0 0.951318 0.0947305 6.86861
0 0.951324 0.0943522 7.51642
0 0.951331 0.0932027 7.51371
0 0.951344 0.112581 9.61338
0 0.951332 0.0954425 5.24607
0 0.951333 0.0936978 7.6002
0 0.951311 0.0934393 7.53305
0 0.951316 0.0934747 6.58532
0 0.951316 0.0931849 7.4434
0 0.951332 0.0938644 6.33214
0 0.951332 0.0946935 6.12384
0 0.951349 0.0954889 7.97544
0 0.951336 0.0943566 5.95147
0 0.951346 0.0948078 6.36679
0 0.951345 0.0947773 6.16348
0 0.951315 0.0927921 7.72111
0 0.951307 0.113428 10.114
0 0.95132 0.0943425 6.5772
0 0.951333 0.094059 6.4026
0 0.951326 0.0949915 6.28434
0 0.951341 0.0940541 8.13575
0 0.951333 0.0941451 6.22723
0 0.951313 0.0958701 6.43468
0 0.951321 0.094447 7.15791
0 0.951324 0.096069 8.13419
0 0.951331 0.0962709 7.50158
0 0.951325 0.0948968 5.9951
0 0.951339 0.0932552 7.45603
0 0.951341 0.0934728 8.06718
0 0.95132 0.113583 8.88475
0 0.951327 0.0934707 6.37036
0 0.951316 0.0940629 7.62718
0 0.951325 0.0932089 6.90568
0 0.951326 0.0939313 5.80411
0 0.951331 0.0939006 6.26903
0 0.951332 0.0930232 7.11932
0 0.951329 0.0954114 7.45989
0 0.951341 0.0945861 6.26615
0 0.951347 0.0948276 6.58792
0 0.951343 0.0941127 7.72816
0 0.951353 0.0935036 6.94014
0 0.951333 0.0939774 8.08038
0 0.951332 0.0929628 7.79841
0 0.951329 0.115425 10.9364
0 0.951328 0.0944919 6.43776
0 0.951333 0.0942836 8.21594
0 0.95133 0.0938856 7.91156
0 0.951334 0.0947932 8.66172
0 0.951331 0.0998572 5.13199
0 0.951343 0.0953474 5.59622
0 0.951331 0.0930481 7.09083
0 0.95135 0.0934095 7.98627
0 0.951351 0.115073 10.2382
0 0.951331 0.0947368 8.18546
0 0.951337 0.0941466 6.30667
0 0.951338 0.094019 6.92456
0 0.951337 0.0931989 7.27961
0 0.951335 0.093597 6.40884
0 0.951334 0.0935377 6.89111
0 0.951339 0.0943098 7.70806
0 0.951339 0.0946774 6.17459
0 0.951346 0.0957375 6.60999
0 0.951328 0.0933121 6.64166
0 0.951337 0.0927283 7.65627
0 0.951343 0.116129 11.8935
0 0.95133 0.0930977 6.35648
0 0.951328 0.0948761 6.76287
0 0.951332 0.0950446 8.185
0 0.951345 0.0946713 6.63001
0 0.951334 0.100386 10.8165
0 0.95132 0.094375 7.78564
0 0.951344 0.0933751 7.74768
0 0.951362 0.112906 9.38278
0 0.951338 0.0944703 8.20626
0 0.95133 0.0940618 6.12164
0 0.951338 0.0936254 7.10295
0 0.951335 0.093947 6.39301
0 0.951338 0.0934728 7.01452
0 0.951336 0.0946183 6.33557
0 0.951332 0.0948204 6.49263
0 0.951329 0.0945348 6.6471
0 0.951323 0.0928068 6.48683
0 0.951317 0.0926148 7.4413
0 0.951309 0.0924963 6.89355
0 0.951324 0.112621 10.9094
0 0.951333 0.0955547 6.14952
0 0.951336 0.0945402 6.5023
0 0.951336 0.0945922 7.51921
0 0.951321 0.0933509 6.50166
0 0.951298 0.0932489 7.72588
0 0.951321 0.112529 9.9357
0 0.951332 0.0930177 7.2573
0 0.951333 0.0937387 6.51115
0 0.951332 0.0945552 7.32974
0 0.951327 0.0940449 7.30566
0 0.951326 0.0941475 7.29418
0 0.951324 0.0932742 7.42859
0 0.951316 0.0922948 7.23948
0 0.951301 0.0922853 7.06802
0 0.951279 0.114427 10.7501
0 0.951331 0.0940292 7.22636
0 0.951328 0.0931674 7.19513
0 0.951328 0.0931568 6.95216
0 0.951313 0.0933418 7.72776
0 0.951281 0.114194 14.2438
0 0.951326 0.0936884 8.00061
0 0.951324 0.0935856 7.75292
0 0.951323 0.0938125 6.27323
0 0.95133 0.0931021 7.62363
0 0.951327 0.0935082 6.56762
0 0.951334 0.0923295 6.89421
0 0.951323 0.114121 11.1029
0 0.951323 0.0934454 7.35838
0 0.951323 0.0933414 7.86114
0 0.951319 0.0931458 7.71318
0 0.95132 0.111326 7.19177
0 0.951319 0.0931217 7.82741
0 0.951329 0.0941858 6.48153
0 0.95132 0.0933052 7.77091
0 0.95133 0.0936819 6.36885
0 0.951332 0.0939541 6.18761
0 0.951325 0.09322 7.81033
0 0.951342 0.115781 10.699
0 0.951317 0.0929984 7.82683
0 0.951305 0.0926034 7.65314
0 0.951303 0.114949 12.2015
0 0.951321 0.0929289 7.00021
0 0.951336 0.0944789 5.98775
0 0.951337 0.0933868 7.71147
0 0.951317 0.09326 7.97295
0 0.951312 0.115244 11.1753
0 0.951319 0.0928868 7.34839
0 0.951305 0.114122 11.0162
0 0.951338 0.0931748 6.37363
0 0.951333 0.093631 6.52632
0 0.951315 0.11323 10.8165
0 0.951333 0.11246 9.16096
0 0.951334 0.113191 10.4351
VECTORS fa_u float
0.00716105 0.00285948 -0
0.00678081 0.00389533 -0
0.00295329 0.000804311 -0
0.00705974 0.00109859 -0
1e-08 0 0
0.00518904 0.00400386 -0
0.00248896 0.00240803 -0
1e-08 0 0
1e-08 0 0
0.00460436 0.00561444 -0
0.00531415 0.0089297 -0
0.00674368 0.000142661 -0
0.00609486 -0.000654969 0
1e-08 0 0
1e-08 0 0
1e-08 0 0
1e-08 0 0
1e-08 0 0
1e-08 0 0
1e-08 0 0
1e-08 0 0
0.00290505 0.00717022 -0
0.00161032 0.00631865 -0
1e-08 0 0
1e-08 0 0
1e-08 0 0
0.00907629 -0.00228778 0
1e-08 0 0
0.0110581 -0.00484762 0
1e-08 0 0
1e-08 0 0
1e-08 0 0
0.000855848 0.00733405 -0
1e-08 0 0
1e-08 0 0
1e-08 0 0
1e-08 0 0
1e-08 0 0
1e-08 0 0
1e-08 0 0
1e-08 0 0
1e-08 0 0
1e-08 0 0
-0.000182711 0.00780178 -0
1e-08 0 0
1e-08 0 0
1e-08 0 0
0.00551782 -0.00350961 0
1e-08 0 0
0.00281003 -0.00226695 0
1e-08 0 0
1e-08 0 0
1e-08 0 0
1e-08 0 0
1e-08 0 0
1e-08 0 0
1e-08 0 0
1e-08 0 0
1e-08 0 0
1e-08 0 0
1e-08 0 0
1e-08 0 0
1e-08 0 0
-0.000583834 0.00399564 0
1e-08 0 0
1e-08 0 0
1e-08 0 0
1e-08 0 0
1e-08 0 0
0.00317652 -0.00314661 0
1e-08 0 0
0.00274373 -0.00336328 0
1e-08 0 0
1e-08 0 0
1e-08 0 0
1e-08 0 0
1e-08 0 0
1e-08 0 0
1e-08 0 0
1e-08 0 0
1e-08 0 0
1e-08 0 0
1e-08 0 0
1e-08 0 0
1e-08 0 0
-0.00137611 0.00528983 0
1e-08 0 0
1e-08 0 0
1e-08 0 0
1e-08 0 0
1e-08 0 0
1e-08 0 0
0.00575864 -0.00944283 0
1e-08 0 0
1e-08 0 0
1e-08 0 0
1e-08 0 0
1e-08 0 0
0.00364334 -0.00901168 0
1e-08 0 0
1e-08 0 0
1e-08 0 0
1e-08 0 0
1e-08 0 0
1e-08 0 0
1e-08 0 0
1e-08 0 0
1e-08 0 0
1e-08 0 0
-0.00286819 0.00710897 0
1e-08 0 0
1e-08 0 0
1e-08 0 0
1e-08 0 0
1e-08 0 0
1e-08 0 0
1e-08 0 0
1e-08 0 0
1e-08 0 0
1e-08 0 0
1e-08 0 0
1e-08 0 0
1e-08 0 0
1e-08 0 0
0.00137864 -0.00551238 0
1e-08 0 0
1e-08 0 0
1e-08 0 0
1e-08 0 0
1e-08 0 0
1e-08 0 0
1e-08 0 0
1e-08 0 0
1e-08 0 0
-0.00373696 0.00648247 0
1e-08 0 0
1e-08 0 0
1e-08 0 0
1e-08 0 0
1e-08 0 0
1e-08 0 0
1e-08 0 0
1e-08 0 0
1e-08 0 0
1e-08 0 0
1e-08 0 0
1e-08 0 0
1e-08 0 0
1e-08 0 0
1e-08 0 0
0.000506057 -0.00369649 0
1e-08 0 0
1e-08 0 0
1e-08 0 0
1e-08 0 0
1e-08 0 0
1e-08 0 0
1e-08 0 0
1e-08 0 0
1e-08 0 0
1e-08 0 0
-0.00468181 0.00600743 0
1e-08 0 0
1e-08 0 0
1e-08 0 0
1e-08 0 0
1e-08 0 0
1e-08 0 0
1e-08 0 0
1e-08 0 0
1e-08 0 0
1e-08 0 0
1e-08 0 0
1e-08 0 0
0.000122483 -0.00789903 0
1e-08 0 0
1e-08 0 0
1e-08 0 0
1e-08 0 0
1e-08 0 0
1e-08 0 0
1e-08 0 0
1e-08 0 0
1e-08 0 0
1e-08 0 0
1e-08 0 0
1e-08 0 0
-0.0022412 0.00227956 0
1e-08 0 0
1e-08 0 0
1e-08 0 0
1e-08 0 0
1e-08 0 0
1e-08 0 0
1e-08 0 0
1e-08 0 0
1e-08 0 0
1e-08 0 0
1e-08 0 0
1e-08 0 0
1e-08 0 0
-0.000862404 -0.00697865 0
1e-08 0 0
1e-08 0 0
1e-08 0 0
1e-08 0 0
1e-08 0 0
1e-08 0 0
1e-08 0 0
1e-08 0 0
-0.00476754 0.00390367 0
1e-08 0 0
1e-08 0 0
1e-08 0 0
1e-08 0 0
1e-08 0 0
1e-08 0 0
1e-08 0 0
1e-08 0 0
1e-08 0 0
1e-08 0 0
1e-08 0 0
-0.00161927 -0.00622183 0
1e-08 0 0
1e-08 0 0
1e-08 0 0
1e-08 0 0
1e-08 0 0
1e-08 0 0
1e-08 0 0
-0.00881391 0.00530509 0
1e-08 0 0
1e-08 0 0
1e-08 0 0
1e-08 0 0
1e-08 0 0
1e-08 0 0
1e-08 0 0
1e-08 0 0
1e-08 0 0
1e-08 0 0
1e-08 0 0
-0.00296645 -0.00722191 0
1e-08 0 0
1e-08 0 0
1e-08 0 0
1e-08 0 0
1e-08 0 0
-0.00753309 0.00308293 0
1e-08 0 0
1e-08 0 0
1e-08 0 0
1e-08 0 0
1e-08 0 0
1e-08 0 0
1e-08 0 0
1e-08 0 0
-0.00515245 -0.0085879 0
1e-08 0 0
1e-08 0 0
1e-08 0 0
1e-08 0 0
-0.00627171 0.00161192 0
1e-08 0 0
1e-08 0 0
1e-08 0 0
1e-08 0 0
1e-08 0 0
1e-08 0 0
-0.00358655 -0.00442436 0
1e-08 0 0
1e-08 0 0
1e-08 0 0
-0.00717382 0.000857363 0
1e-08 0 0
1e-08 0 0
1e-08 0 0
1e-08 0 0
1e-08 0 0
1e-08 0 0
-0.00254922 -0.00252978 0
1e-08 0 0
1e-08 0 0
-0.00845381 -0.000190918 0
1e-08 0 0
1e-08 0 0
1e-08 0 0
1e-08 0 0
-0.00608245 -0.00475515 0
1e-08 0 0
-0.00344306 -0.000498492 0
1e-08 0 0
1e-08 0 0
-0.00665195 -0.00383578 0
-0.0055803 -0.0014317 0
-0.00721364 -0.00290005 0
