# vtk DataFile Version 2.0
CellBP Time: 9.64
ASCII
DATASET UNSTRUCTURED_GRID
POINTS 296 double
-8.93097 -3.65666 0
-8.37446 -4.80767 0
-9.32108 -2.43623 0
-9.59753 -1.20971 0
-8.08959 -2.70184 0
-7.65852 -5.87159 0
-6.81073 -6.83415 0
-7.6484 -3.72771 0
-7.09062 -4.70136 0
-5.88862 -7.70183 0
-4.86201 -8.43342 0
-9.70678 0.037921 0
-9.65152 1.31234 0
-8.40767 -1.6144 0
-8.56571 -0.502049 0
-7.33369 -1.90965 0
-6.96126 -2.77653 0
-6.43487 -5.61265 0
-5.66635 -6.44194 0
-6.5371 -3.73703 0
-6.00457 -4.52302 0
-3.71364 -8.99669 0
-2.48643 -9.39607 0
-4.79668 -7.1486 0
-3.85033 -7.74077 0
-8.58049 0.631859 0
-9.4334 2.58932 0
-8.43685 1.72299 0
-9.02379 3.80399 0
-7.51071 -0.878879 0
-7.57536 0.0906611 0
-6.72936 -1.25023 0
-1.21548 -9.63328 0
-6.23187 -2.06378 0
-6.10374 -2.93755 0
-5.36145 -5.32214 0
-4.66317 -5.9654 0
-5.46859 -3.63201 0
-5.0921 -4.42197 0
-2.81628 -8.19767 0
-1.74688 -8.45472 0
-3.84342 -6.57958 0
-3.01005 -7.0177 0
0.0556221 -9.69231 0
-7.5063 1.1157 0
-8.18145 2.86004 0
-7.36666 2.04747 0
-8.40968 4.92279 0
-7.70211 3.87291 0
-7.65243 5.95808 0
-6.57558 -0.369392 0
-6.75615 0.550566 0
-5.6124 -0.968722 0
-0.573446 -8.60372 0
0.547789 -8.5375 0
-5.15183 -2.39791 0
-4.34463 -4.95729 0
-3.79304 -5.63898 0
-4.31408 -3.70241 0
-2.02238 -7.4097 0
-1.11463 -7.61557 0
-2.9248 -5.96847 0
-2.27234 -6.48837 0
1.30938 -9.57348 0
-6.51325 1.3819 0
-6.98311 3.02703 0
-6.48747 2.30433 0
-7.10364 4.84392 0
-6.54381 3.88612 0
-6.81102 6.90366 0
-6.39654 5.72415 0
-5.86807 7.75973 0
-4.36697 -1.15886 0
-5.67598 0.493814 0
-4.57062 -0.0244901 0
-0.011203 -7.64307 0
1.67466 -8.38547 0
0.900377 -7.53946 0
-3.95873 -2.35194 0
-3.45377 -1.37942 0
-3.21917 -4.69606 0
-3.21259 -3.20224 0
-1.36251 -6.52382 0
-0.522264 -6.84896 0
-1.94314 -5.42729 0
2.55682 -9.32639 0
-5.37705 1.99178 0
-5.93869 2.98146 0
-5.94297 4.71974 0
-5.61058 3.86671 0
-5.59891 6.51876 0
-5.3032 5.44611 0
-4.84105 8.51202 0
-4.69848 7.18105 0
-3.46148 -0.420865 0
-4.35862 1.22317 0
-3.65209 0.583491 0
-3.97843 2.2931 0
-3.7045 9.07992 0
2.75261 -8.04999 0
0.370519 -6.60092 0
1.9329 -7.28008 0
1.22899 -6.68798 0
-2.42575 -0.863334 0
-2.81266 -2.10492 0
-2.25996 -4.02041 0
-2.29673 -2.92326 0
-0.455729 -5.71623 0
-1.20051 -4.42322 0
3.76715 -8.93455 0
-4.67409 3.30689 0
-4.9524 4.45193 0
-4.51574 6.08327 0
-4.41212 5.19343 0
-3.74963 7.78582 0
-3.71062 6.62131 0
-2.71041 8.18873 0
-1.63354 -0.126691 0
-1.43556 -0.877608 0
-2.47054 0.517451 0
-3.20258 1.43649 0
-3.17263 3.25327 0
-2.86347 2.35902 0
-1.3506 0.638633 0
-2.48436 9.46457 0
3.79158 -7.62097 0
2.83021 -6.88859 0
0.898359 -5.65023 0
1.97078 -6.19432 0
-1.66572 -1.97342 0
-1.41318 -3.2283 0
0.0772036 -4.6452 0
-0.548949 -3.6435 0
4.76893 -7.06909 0
4.90957 -8.37784 0
-3.68317 4.43379 0
-3.63151 5.58054 0
-2.79643 7.06603 0
-2.92547 6.16508 0
-1.62119 8.50334 0
-1.87908 7.40806 0
-2.2969 3.97262 0
-0.722351 -1.31673 0
-0.830151 -0.245041 0
-1.93015 1.68985 0
-2.10106 2.85391 0
-1.29842 3.50543 0
-0.871323 1.36377 0
-0.283763 0.468306 0
-0.521188 8.65848 0
-1.2245 9.70016 0
1.06915 -4.45382 0
3.74585 -6.43906 0
2.86106 -5.86769 0
2.03065 -5.24645 0
4.62405 -5.96962 0
-0.54759 -2.45539 0
0.487557 -3.40705 0
0.0569374 -1.60247 0
1.43857 -3.59416 0
5.68853 -6.39275 0
5.97144 -7.66369 0
-2.41424 5.21327 0
-2.06143 6.35375 0
-0.873461 7.60912 0
-1.22168 6.74946 0
0.09414 7.70058 0
-1.12618 4.41331 0
0.148859 -0.610109 0
-0.808049 2.49477 0
-0.346579 3.57272 0
0.0548813 1.52115 0
0.734712 0.477564 0
0.636034 8.6876 0
0.0419476 9.81064 0
2.30603 -4.15409 0
3.7226 -5.42233 0
2.89245 -5.02941 0
5.41752 -5.30042 0
4.54237 -5.0793 0
0.632094 -2.28329 0
1.238 -2.90038 0
0.755581 -1.3852 0
2.11559 -3.06383 0
2.92365 -3.37878 0
6.00831 -4.64913 0
6.48493 -5.60273 0
6.92543 -6.80601 0
-0.985341 5.68507 0
-0.34618 6.71486 0
1.10123 7.61035 0
0.560239 6.92771 0
-0.00271395 4.6492 0
0.587739 3.7821 0
1.32876 -0.638679 0
0.52048 2.63802 0
0.948425 1.57684 0
1.89464 0.210429 0
1.59234 1.06317 0
2.09848 7.44414 0
1.7684 8.53864 0
1.32261 9.73981 0
3.71151 -4.20458 0
4.97905 -4.28107 0
5.71015 -3.808 0
3.69853 -3.1081 0
1.7971 -1.87563 0
2.96361 -2.52601 0
6.64413 -3.84407 0
7.22411 -4.77538 0
7.79017 -5.87586 0
0.484108 5.75995 0
1.41002 6.61157 0
2.33487 6.54973 0
1.18625 4.48604 0
1.46312 3.35416 0
2.40834 -0.687069 0
2.79536 0.141156 0
1.76603 2.14776 0
2.58342 1.13968 0
3.02439 7.03589 0
2.85629 8.21841 0
2.58976 9.49591 0
4.79613 -3.22135 0
5.99207 -3.01923 0
4.09704 -2.22926 0
3.19835 -1.48463 0
6.61097 -2.27107 0
7.10199 -2.98703 0
7.81274 -3.84213 0
8.52681 -4.85205 0
1.99463 5.50073 0
3.01104 6.02773 0
2.33374 4.05955 0
2.38817 3.01739 0
3.47629 -0.451858 0
3.5705 0.616235 0
2.92055 2.25828 0
3.48727 1.50553 0
3.90046 5.77241 0
3.89396 6.65318 0
3.9091 7.78966 0
3.81349 9.09148 0
5.47094 -1.87694 0
4.43701 -1.10964 0
6.58578 -1.30914 0
7.45248 -1.99276 0
8.23492 -2.81127 0
9.0948 -3.70897 0
3.3244 4.77145 0
3.26627 3.32334 0
4.61212 0.135213 0
4.42171 1.28184 0
3.96446 2.38967 0
4.41761 5.02234 0
4.7129 6.04629 0
4.86768 7.22342 0
4.95671 8.5235 0
5.76389 -0.432734 0
6.85276 -0.489533 0
7.60692 -1.06125 0
8.51217 -1.71376 0
9.49616 -2.48303 0
4.41092 3.72893 0
5.66522 1.04989 0
5.20274 2.45294 0
5.18974 4.48624 0
5.43757 5.3739 0
5.73801 6.50907 0
5.98142 7.79029 0
6.6685 0.428894 0
7.66824 -0.0306635 0
8.67305 -0.565467 0
9.73601 -1.21324 0
6.76068 1.28406 0
5.51854 3.65444 0
6.33303 2.10559 0
6.1569 2.97112 0
6.07096 4.53596 0
6.48737 5.67726 0
6.91802 6.93248 0
7.57787 0.929722 0
8.64368 0.558316 0
9.80016 0.0629698 0
7.3882 1.92454 0
6.56598 3.75148 0
7.01785 2.83213 0
7.14268 4.7333 0
7.77646 5.9809 0
8.47682 1.67739 0
9.678 1.31649 0
8.14924 2.73914 0
7.73672 3.79175 0
8.49083 4.92129 0
9.43691 2.56715 0
9.04662 3.77817 0
CELLS 542 2168
3 2 0 4
3 0 1 7
3 4 0 7
3 1 5 8
3 7 1 8
3 3 2 13
3 13 2 4
3 11 3 14
3 14 3 13
3 13 4 15
3 4 7 16
3 15 4 16
3 5 6 17
3 8 5 17
3 6 9 18
3 17 6 18
3 7 8 19
3 16 7 19
3 8 17 20
3 19 8 20
3 9 10 23
3 18 9 23
3 10 21 24
3 23 10 24
3 12 11 25
3 25 11 14
3 26 12 27
3 27 12 25
3 14 13 29
3 29 13 15
3 25 14 30
3 30 14 29
3 29 15 31
3 15 16 33
3 31 15 33
3 16 19 34
3 33 16 34
3 17 18 35
3 20 17 35
3 18 23 36
3 35 18 36
3 19 20 37
3 34 19 37
3 20 35 38
3 37 20 38
3 21 22 39
3 24 21 39
3 22 32 40
3 39 22 40
3 23 24 41
3 36 23 41
3 24 39 42
3 41 24 42
3 27 25 44
3 44 25 30
3 28 26 45
3 45 26 27
3 45 27 46
3 46 27 44
3 47 28 48
3 48 28 45
3 30 29 50
3 50 29 31
3 44 30 51
3 51 30 50
3 50 31 52
3 31 33 52
3 32 43 53
3 40 32 53
3 53 43 54
3 33 34 55
3 34 37 55
3 33 55 52
3 35 36 56
3 38 35 56
3 36 41 57
3 56 36 57
3 37 38 58
3 38 56 58
3 37 58 55
3 39 40 59
3 42 39 59
3 40 53 60
3 59 40 60
3 41 42 61
3 57 41 61
3 42 59 62
3 61 42 62
3 43 63 54
3 46 44 64
3 64 44 51
3 48 45 65
3 65 45 46
3 65 46 66
3 66 46 64
3 49 47 67
3 67 47 48
3 67 48 68
3 68 48 65
3 69 49 70
3 70 49 67
3 52 55 72
3 64 51 73
3 51 50 73
3 50 52 73
3 73 52 74
3 74 52 72
3 53 54 75
3 60 53 75
3 54 63 76
3 54 76 77
3 75 54 77
3 55 58 78
3 72 55 78
3 72 78 79
3 56 57 80
3 57 61 80
3 56 80 58
3 58 80 81
3 78 58 81
3 59 60 82
3 62 59 82
3 60 75 83
3 82 60 83
3 61 62 84
3 62 82 84
3 61 84 80
3 63 85 76
3 66 64 86
3 64 73 86
3 68 65 87
3 87 65 66
3 87 66 86
3 70 67 88
3 88 67 68
3 88 68 89
3 89 68 87
3 71 69 90
3 90 69 70
3 90 70 91
3 91 70 88
3 92 71 93
3 93 71 90
3 74 72 94
3 94 72 79
3 86 73 95
3 95 73 74
3 95 74 96
3 96 74 94
3 97 86 95
3 76 85 99
3 75 77 100
3 83 75 100
3 76 99 101
3 77 76 101
3 77 101 102
3 100 77 102
3 94 79 103
3 78 81 104
3 79 78 104
3 79 104 103
3 80 84 105
3 81 80 105
3 81 105 106
3 104 81 106
3 82 83 107
3 83 100 107
3 82 107 84
3 84 107 108
3 105 84 108
3 85 109 99
3 89 87 110
3 87 86 110
3 110 86 97
3 91 88 111
3 111 88 89
3 111 89 110
3 93 90 112
3 112 90 91
3 112 91 113
3 113 91 111
3 98 92 114
3 114 92 93
3 114 93 115
3 115 93 112
3 116 98 114
3 117 103 118
3 96 94 119
3 94 103 119
3 119 103 117
3 97 95 120
3 120 95 96
3 120 96 119
3 121 110 97
3 121 97 122
3 122 97 120
3 123 119 117
3 124 98 116
3 99 109 125
3 99 125 126
3 101 99 126
3 100 102 127
3 100 127 107
3 101 126 128
3 102 101 128
3 102 128 127
3 104 106 129
3 104 129 103
3 103 129 118
3 105 108 130
3 106 105 130
3 106 130 129
3 107 127 131
3 108 107 131
3 108 131 132
3 108 132 130
3 109 134 125
3 125 134 133
3 113 111 135
3 111 110 135
3 135 110 121
3 115 112 136
3 136 112 113
3 136 113 135
3 116 114 137
3 137 114 115
3 137 115 138
3 138 115 136
3 139 124 116
3 139 116 140
3 140 116 137
3 141 135 121
3 118 129 142
3 118 142 143
3 117 118 143
3 123 117 143
3 122 120 144
3 120 119 144
3 144 119 123
3 141 121 145
3 145 121 122
3 145 122 144
3 146 141 145
3 147 144 123
3 147 123 148
3 143 148 123
3 150 124 139
3 149 150 139
3 131 127 151
3 125 133 152
3 126 125 152
3 126 152 153
3 128 126 153
3 128 153 154
3 128 154 127
3 127 154 151
3 152 133 155
3 130 132 156
3 130 156 129
3 129 156 142
3 131 151 157
3 132 131 157
3 132 157 156
3 156 158 142
3 157 151 159
3 133 160 155
3 134 161 133
3 133 161 160
3 138 136 162
3 136 135 162
3 162 135 141
3 140 137 163
3 163 137 138
3 163 138 162
3 149 139 164
3 164 139 140
3 164 140 165
3 165 140 163
3 166 149 164
3 167 162 141
3 167 141 146
3 142 158 168
3 143 142 168
3 143 168 148
3 146 145 169
3 145 144 169
3 169 144 147
3 170 167 146
3 170 146 169
3 171 169 147
3 171 147 148
3 171 148 172
3 168 172 148
3 173 149 166
3 174 150 149
3 173 174 149
3 154 175 151
3 151 175 159
3 152 155 176
3 153 152 176
3 153 176 177
3 153 177 154
3 154 177 175
3 155 160 178
3 155 178 179
3 176 155 179
3 156 157 180
3 156 180 158
3 157 159 181
3 157 181 180
3 158 180 182
3 158 182 168
3 159 175 183
3 159 183 181
3 175 184 183
3 160 186 178
3 178 186 185
3 161 187 160
3 160 187 186
3 165 163 188
3 163 162 188
3 188 162 167
3 166 164 189
3 189 164 165
3 189 165 188
3 190 173 166
3 190 166 191
3 191 166 189
3 192 188 167
3 192 167 170
3 193 192 170
3 182 194 168
3 194 172 168
3 193 170 195
3 170 169 195
3 195 169 171
3 196 195 171
3 196 171 172
3 194 197 172
3 197 198 172
3 198 196 172
3 200 173 190
3 199 200 190
3 201 174 173
3 200 201 173
3 176 179 202
3 177 176 202
3 177 202 175
3 175 202 184
3 178 185 203
3 178 203 179
3 179 203 202
3 203 185 204
3 202 205 184
3 183 206 181
3 180 181 206
3 180 206 182
3 182 206 194
3 183 184 207
3 205 207 184
3 183 207 206
3 185 208 204
3 186 209 185
3 185 209 208
3 187 210 186
3 186 210 209
3 191 189 211
3 189 188 211
3 211 188 192
3 199 190 212
3 212 190 191
3 212 191 211
3 213 199 212
3 214 211 192
3 214 192 193
3 215 214 193
3 215 193 195
3 206 216 194
3 216 197 194
3 216 217 197
3 215 195 218
3 218 195 196
3 198 218 196
3 217 219 197
3 219 218 198
3 197 219 198
3 220 199 213
3 221 200 199
3 220 221 199
3 222 201 200
3 221 222 200
3 203 204 223
3 203 223 202
3 202 223 205
3 204 208 224
3 204 224 223
3 205 223 225
3 205 225 207
3 207 225 226
3 207 226 206
3 226 216 206
3 208 228 224
3 224 228 227
3 209 229 208
3 229 228 208
3 210 230 209
3 209 230 229
3 213 212 231
3 212 211 231
3 231 211 214
3 232 220 213
3 232 213 231
3 233 231 214
3 233 214 215
3 234 233 215
3 234 215 218
3 226 235 216
3 235 217 216
3 235 236 217
3 217 236 219
3 237 234 218
3 237 218 219
3 236 238 219
3 238 237 219
3 240 220 232
3 239 240 232
3 241 221 220
3 240 241 220
3 242 222 221
3 241 242 221
3 224 227 243
3 224 243 223
3 223 243 225
3 225 243 244
3 225 244 226
3 226 244 235
3 227 245 243
3 228 246 227
3 227 246 245
3 229 247 228
3 228 247 246
3 230 248 229
3 229 248 247
3 239 232 249
3 232 231 249
3 249 231 233
3 250 249 233
3 250 233 234
3 237 250 234
3 244 251 235
3 235 251 236
3 251 252 236
3 236 252 238
3 252 253 238
3 253 250 237
3 253 237 238
3 254 239 249
3 255 240 239
3 254 255 239
3 256 241 240
3 255 256 240
3 257 242 241
3 256 257 241
3 245 258 243
3 243 258 244
3 244 258 251
3 245 259 258
3 246 260 245
3 245 260 259
3 247 261 246
3 246 261 260
3 248 262 247
3 247 262 261
3 254 249 263
3 263 249 250
3 253 263 250
3 258 264 251
3 251 264 252
3 264 265 252
3 265 263 253
3 252 265 253
3 266 254 263
3 267 255 254
3 266 267 254
3 268 256 255
3 267 268 255
3 269 257 256
3 268 269 256
3 259 270 258
3 270 264 258
3 260 271 259
3 259 271 270
3 261 272 260
3 260 272 271
3 262 273 261
3 273 272 261
3 270 274 264
3 275 266 263
3 275 263 265
3 274 276 264
3 276 265 264
3 276 277 265
3 277 275 265
3 278 267 266
3 275 278 266
3 279 268 267
3 278 279 267
3 280 269 268
3 279 280 268
3 271 281 270
3 270 281 274
3 272 282 271
3 271 282 281
3 273 283 272
3 272 283 282
3 281 284 274
3 274 284 276
3 285 278 275
3 277 285 275
3 284 286 276
3 286 285 277
3 276 286 277
3 287 279 278
3 285 287 278
3 288 280 279
3 287 288 279
3 282 289 281
3 281 289 284
3 283 290 282
3 282 290 289
3 289 291 284
3 284 291 286
3 291 292 286
3 292 287 285
3 286 292 285
3 293 288 287
3 292 293 287
3 290 294 289
3 289 294 291
3 294 295 291
3 295 293 292
3 291 295 292
CELL_TYPES 542
5
5
5
5
5
5
5
5
5
5
5
5
5
5
5
5
5
5
5
5
5
5
5
5
5
5
5
5
5
5
5
5
5
5
5
5
5
5
5
5
5
5
5
5
5
5
5
5
5
5
5
5
5
5
5
5
5
5
5
5
5
5
5
5
5
5
5
5
5
5
5
5
5
5
5
5
5
5
5
5
5
5
5
5
5
5
5
5
5
5
5
5
5
5
5
5
5
5
5
5
5
5
5
5
5
5
5
5
5
5
5
5
5
5
5
5
5
5
5
5
5
5
5
5
5
5
5
5
5
5
5
5
5
5
5
5
5
5
5
5
5
5
5
5
5
5
5
5
5
5
5
5
5
5
5
5
5
5
5
5
5
5
5
5
5
5
5
5
5
5
5
5
5
5
5
5
5
5
5
5
5
5
5
5
5
5
5
5
5
5
5
5
5
5
5
5
5
5
5
5
5
5
5
5
5
5
5
5
5
5
5
5
5
5
5
5
5
5
5
5
5
5
5
5
5
5
5
5
5
5
5
5
5
5
5
5
5
5
5
5
5
5
5
5
5
5
5
5
5
5
5
5
5
5
5
5
5
5
5
5
5
5
5
5
5
5
5
5
5
5
5
5
5
5
5
5
5
5
5
5
5
5
5
5
5
5
5
5
5
5
5
5
5
5
5
5
5
5
5
5
5
5
5
5
5
5
5
5
5
5
5
5
5
5
5
5
5
5
5
5
5
5
5
5
5
5
5
5
5
5
5
5
5
5
5
5
5
5
5
5
5
5
5
5
5
5
5
5
5
5
5
5
5
5
5
5
5
5
5
5
5
5
5
5
5
5
5
5
5
5
5
5
5
5
5
5
5
5
5
5
5
5
5
5
5
5
5
5
5
5
5
5
5
5
5
5
5
5
5
5
5
5
5
5
5
5
5
5
5
5
5
5
5
5
5
5
5
5
5
5
5
5
5
5
5
5
5
5
5
5
5
5
5
5
5
5
5
5
5
5
5
5
5
5
5
5
5
5
5
5
5
5
5
5
5
5
5
5
5
5
5
5
5
5
5
5
5
5
5
5
5
5
5
5
5
5
5
5
5
5
5
5
5
5
5
5
5
5
5
5
5
5
5
5
5
5
5
5
5
5
5
5
5
5
5
5
5
5
5
5
5
5
5
5
5
5
5
5
5
5
5
5
5
5
5
5
5
5
5
5
5
5
5
5
5
5
5
5
5
5
5
5
POINT_DATA 296
SCALARS concentrations float 4
LOOKUP_TABLE default
0 0.950693 0.112382 7.41033
0 0.950707 0.114774 11.3236
0 0.950684 0.110208 10.0494
0 0.950685 0.114159 9.93392
0 0.950684 0.093651 6.86183
0 0.950703 0.110984 11.2038
0 0.950655 0.110744 7.16458
0 0.950689 0.0947228 7.67207
0 0.950694 0.0941083 7.64875
0 0.950631 0.117539 12.77
0 0.950644 0.114378 12.2591
0 0.950684 0.11262 11.1528
0 0.950678 0.110803 7.72212
0 0.950682 0.0928595 6.82029
0 0.950683 0.0937964 7.79914
0 0.950676 0.0931309 6.93998
0 0.950675 0.0941 6.47332
0 0.950681 0.0928919 7.10487
0 0.950652 0.0933499 6.93356
0 0.950674 0.0940776 7.73043
0 0.950677 0.0939366 7.85448
0 0.950669 0.114227 9.39282
0 0.950682 0.112623 10.4713
0 0.950649 0.0933328 6.92648
0 0.950662 0.0930704 7.69264
0 0.950687 0.0932432 6.75679
0 0.950694 0.112506 8.3772
0 0.950687 0.0942021 6.52875
0 0.950697 0.110934 9.84329
0 0.950679 0.0933866 6.52487
0 0.950686 0.0942878 6.13152
0 0.950678 0.0942898 6.31486
0 0.950685 0.113047 9.69387
0 0.950676 0.0944418 7.03128
0 0.950673 0.0933336 6.9825
0 0.950678 0.0930761 7.37259
0 0.95067 0.0941075 6.60848
0 0.950677 0.0934037 6.73261
0 0.950682 0.0967347 8.76222
0 0.950688 0.0950083 7.27131
0 0.950686 0.0939682 7.0885
0 0.950673 0.0951819 8.27981
0 0.95069 0.093623 7.63984
0 0.950696 0.11086 9.52464
0 0.950689 0.0944768 7.67192
0 0.950706 0.0940389 7.46611
0 0.950701 0.0946842 7.86184
0 0.950677 0.112999 9.93501
0 0.950689 0.0941049 7.87919
0 0.950677 0.111013 9.03251
0 0.950685 0.094408 7.99319
0 0.950684 0.0945053 6.54263
0 0.95069 0.0944802 6.11109
0 0.9507 0.0932521 6.65495
0 0.950682 0.0932355 6.70235
0 0.950683 0.0948798 7.60544
0 0.950675 0.0947426 7.11275
0 0.950674 0.0938602 7.55632
0 0.950686 0.0943129 8.011
0 0.95069 0.0947397 7.01027
0 0.950701 0.0936984 6.97459
0 0.95068 0.096356 7.7751
0 0.950681 0.0977762 8.62115
0 0.950661 0.110447 11.2373
0 0.950689 0.0949634 8.75245
0 0.950704 0.0935843 7.52833
0 0.950701 0.0989117 8.46168
0 0.950682 0.0929443 7.19193
0 0.95069 0.0933295 7.37349
0 0.950695 0.11506 11.2733
0 0.950683 0.0932115 6.92556
0 0.950737 0.111081 9.98898
0 0.950695 0.0950378 5.81671
0 0.95069 0.0940985 6.54652
0 0.950692 0.0956681 5.60706
0 0.950696 0.0942859 6.77647
0 0.950654 0.0940098 7.44625
0 0.950675 0.0941269 6.52221
0 0.95069 0.0965166 5.65447
0 0.950692 0.0950589 5.48677
0 0.950678 0.0962385 8.55985
0 0.950689 0.0950359 6.35483
0 0.950687 0.0984984 6.37399
0 0.950696 0.0973274 6.78104
0 0.950682 0.0967821 7.36614
0 0.950639 0.110715 11.4087
0 0.950694 0.0942914 6.85832
0 0.950698 0.0947172 7.51904
0 0.950684 0.0927722 7.37076
0 0.950691 0.0938023 7.31511
0 0.950705 0.0937452 6.91439
0 0.950689 0.0931093 7.34488
0 0.950749 0.112114 8.1927
0 0.950739 0.0944006 6.78436
0 0.950694 0.0959475 7.82439
0 0.950693 0.093378 7.28801
0 0.95069 0.093823 6.5064
0 0.950694 0.0938386 7.52009
0 0.950681 0.111055 10.7418
0 0.950665 0.0942712 7.9125
0 0.950682 0.0935269 6.90407
0 0.950678 0.0944684 7.25702
0 0.950682 0.0937038 6.32785
0 0.950696 0.0959256 8.27469
0 0.950689 0.0949038 5.82958
0 0.95069 0.0948426 6.61539
0 0.950697 0.0960006 6.41465
0 0.950684 0.094056 7.30166
0 0.95069 0.0934846 7.29561
0 0.950671 0.108448 10.4112
0 0.950692 0.0935562 7.04742
0 0.950689 0.0938863 7.16498
0 0.950701 0.0942545 7.3987
0 0.950692 0.0936224 7.23163
0 0.950715 0.0991124 5.98525
0 0.950717 0.0954269 7.01845
0 0.950674 0.0949526 7.25046
0 0.950692 0.0942778 6.57132
0 0.9507 0.094903 6.50682
0 0.950695 0.0941496 7.65369
0 0.9507 0.0936172 7.01951
0 0.950694 0.0931906 7.01217
0 0.950698 0.0939867 7.41917
0 0.950691 0.0934708 7.53679
0 0.950672 0.11084 10.4296
0 0.950706 0.0958066 6.45085
0 0.950702 0.0964587 6.17703
0 0.950689 0.0938013 6.82016
0 0.950698 0.0937723 6.46334
0 0.950696 0.0991492 7.36727
0 0.950697 0.0954167 5.69706
0 0.950686 0.09444 6.93472
0 0.950695 0.0948218 7.67462
0 0.950724 0.0957723 7.20629
0 0.950731 0.111178 9.89785
0 0.950691 0.0932006 7.08401
0 0.950691 0.0950502 7.4978
0 0.950696 0.101035 7.08232
0 0.950699 0.0966255 7.72415
0 0.950689 0.0934079 6.58935
0 0.950679 0.0951914 7.08795
0 0.950693 0.093596 7.09664
0 0.950694 0.101587 4.51874
0 0.950698 0.0941395 7.10612
0 0.950702 0.093382 6.66369
0 0.950701 0.0977271 6.79083
0 0.950692 0.0933742 7.85796
0 0.950704 0.0943239 7.24586
0 0.950705 0.0980839 7.98702
0 0.950712 0.0930269 6.7879
0 0.95071 0.112716 7.78246
0 0.950703 0.0953809 7.66069
0 0.950714 0.0960319 6.56883
0 0.950706 0.0952784 7.22906
0 0.950704 0.0954907 7.00517
0 0.950706 0.093774 6.90366
0 0.950696 0.0956852 6.61061
0 0.950698 0.095148 6.27197
0 0.950684 0.0954762 6.44874
0 0.950688 0.0989809 3.83574
0 0.950691 0.0937421 7.12094
0 0.950714 0.113242 10.0414
0 0.95069 0.0960945 6.84641
0 0.950685 0.0963479 7.17624
0 0.950691 0.0930568 6.86735
0 0.950684 0.094129 7.31476
0 0.950692 0.0938957 6.62481
0 0.950689 0.0929623 6.51191
0 0.950707 0.0973633 6.62442
0 0.950699 0.100426 6.90306
0 0.950688 0.0930255 6.51368
0 0.950706 0.0967313 6.0965
0 0.950708 0.0948737 8.38604
0 0.950696 0.0935844 7.42758
0 0.950718 0.109946 9.40817
0 0.95069 0.0964832 6.10635
0 0.950699 0.0947589 8.14997
0 0.950692 0.094566 6.52706
0 0.950688 0.0931303 7.8954
0 0.950688 0.0941448 6.4453
0 0.950695 0.0980912 7.59168
0 0.950687 0.0977697 7.39793
0 0.950699 0.100058 10.066
0 0.950678 0.0950065 6.71666
0 0.950675 0.0946984 7.30352
0 0.950687 0.0935325 6.2417
0 0.95068 0.0929432 7.83612
0 0.950668 0.112669 12.7113
0 0.95069 0.0969718 6.53628
0 0.950691 0.0946098 7.42249
0 0.950684 0.0940099 7.4133
0 0.950694 0.094106 6.9316
0 0.950692 0.0938582 6.74569
0 0.950696 0.0934104 6.59413
0 0.950707 0.0958621 5.57929
0 0.950697 0.0927759 6.80375
0 0.950703 0.0930486 7.16928
0 0.950703 0.0955139 8.16358
0 0.950706 0.0946523 7.80147
0 0.950675 0.094227 6.46885
0 0.950676 0.0942042 8.00357
0 0.95069 0.108193 9.31362
0 0.950682 0.0941724 6.39691
0 0.950681 0.0932541 7.39656
0 0.950684 0.0936095 7.32221
0 0.950683 0.0946343 6.96013
0 0.950693 0.0995031 7.39456
0 0.950688 0.0948576 7.55712
0 0.950695 0.0930532 6.62338
0 0.950725 0.0925802 7.63271
0 0.950704 0.108766 8.37909
0 0.950693 0.0939879 6.96423
0 0.950689 0.094134 7.18728
0 0.950681 0.095383 6.49791
0 0.950689 0.0942706 7.41928
0 0.950697 0.093945 7.02583
0 0.950691 0.096016 7.75186
0 0.9507 0.0954258 6.32728
0 0.950703 0.0944768 6.83603
0 0.950713 0.0982896 7.29835
0 0.950671 0.0940573 7.26558
0 0.950653 0.0935257 7.3216
0 0.950661 0.114161 12.5667
0 0.950681 0.0930578 7.769
0 0.950678 0.0947225 6.62336
0 0.950681 0.094049 7.55769
0 0.950686 0.0944659 7.45894
0 0.950671 0.0963638 6.27805
0 0.950687 0.0935275 7.46535
0 0.950727 0.0929106 7.43521
0 0.950765 0.109531 6.63497
0 0.950688 0.0960379 6.68095
0 0.950685 0.0945276 6.03022
0 0.95069 0.0952557 8.17786
0 0.950689 0.093859 7.21132
0 0.9507 0.0948221 6.64974
0 0.95071 0.0959253 8.26015
0 0.950706 0.0991603 6.79712
0 0.950712 0.0960416 7.95768
0 0.950686 0.0947766 6.1968
0 0.950683 0.0943435 7.8784
0 0.950653 0.0944046 8.09026
0 0.950632 0.112431 11.3335
0 0.950676 0.0952997 6.87381
0 0.950684 0.0935401 6.78261
0 0.950674 0.0949014 7.584
0 0.950684 0.0932403 7.28864
0 0.950695 0.0931873 7.36547
0 0.950719 0.110277 12.5174
0 0.950691 0.0931725 7.08992
0 0.950692 0.0933733 7.82393
0 0.950693 0.102492 3.7729
0 0.950696 0.0947602 7.52103
0 0.950697 0.0964971 8.27051
0 0.950687 0.0938435 8.20647
0 0.95069 0.0926084 6.74748
0 0.950696 0.0936385 7.7786
0 0.95067 0.114086 11.9646
0 0.950678 0.0949774 7.74905
0 0.950681 0.0935345 6.73283
0 0.950687 0.0941281 6.69511
0 0.950702 0.0932944 7.33497
0 0.950699 0.112066 11.1343
0 0.950693 0.0947024 6.18773
0 0.950686 0.093749 6.52903
0 0.950688 0.0946202 7.42393
0 0.950685 0.092897 6.49485
0 0.950682 0.0925706 6.46144
0 0.950692 0.0934476 7.85227
0 0.95071 0.1086 7.93152
0 0.950692 0.0939762 7.51326
0 0.950694 0.0935468 6.86659
0 0.950701 0.0935635 7.43567
0 0.950707 0.110593 5.97513
0 0.950697 0.0935534 7.85471
0 0.950683 0.0941563 8.38758
0 0.950688 0.0934787 8.04605
0 0.950683 0.0940632 8.36679
0 0.950672 0.0940558 6.56804
0 0.950658 0.0930825 7.92616
0 0.950669 0.113252 12.3933
0 0.950707 0.0934326 6.5576
0 0.950718 0.0931135 7.20545
0 0.950718 0.110223 9.70125
0 0.9507 0.0925143 6.60861
0 0.950671 0.0935631 6.53082
0 0.950686 0.092946 6.48991
0 0.950648 0.0941519 6.2667
0 0.950643 0.112327 13.9074
0 0.950722 0.0935987 7.00787
0 0.950738 0.113961 11.7253
0 0.950698 0.0926398 6.67188
0 0.950654 0.0939496 7.51795
0 0.95063 0.109664 7.94159
0 0.950722 0.11185 7.65972
0 0.950664 0.112209 12.5916
VECTORS fa_u float
0.00718067 0.00286633 -0
0.00679572 0.00390405 -0
0.00291822 0.000794935 -0
0.00707913 0.00110358 -0
1e-08 0 0
0.00517882 0.00399622 -0
0.00247249 0.00239097 -0
1e-08 0 0
1e-08 0 0
0.00461554 0.00562409 -0
0.00533061 0.00895387 -0
0.00672955 0.00014406 -0
0.00610406 -0.000654048 0
1e-08 0 0
1e-08 0 0
1e-08 0 0
1e-08 0 0
1e-08 0 0
1e-08 0 0
1e-08 0 0
1e-08 0 0
0.00290927 0.00717929 -0
0.00161269 0.0063286 -0
1e-08 0 0
1e-08 0 0
1e-08 0 0
0.00911764 -0.00229704 0
1e-08 0 0
0.0111108 -0.00487442 0
1e-08 0 0
1e-08 0 0
1e-08 0 0
0.000857169 0.00735556 -0
1e-08 0 0
1e-08 0 0
1e-08 0 0
1e-08 0 0
1e-08 0 0
1e-08 0 0
1e-08 0 0
1e-08 0 0
1e-08 0 0
1e-08 0 0
-0.000184905 0.00780709 -0
1e-08 0 0
1e-08 0 0
1e-08 0 0
0.00551105 -0.0035085 0
1e-08 0 0
0.00278869 -0.00225062 0
1e-08 0 0
1e-08 0 0
1e-08 0 0
1e-08 0 0
1e-08 0 0
1e-08 0 0
1e-08 0 0
1e-08 0 0
1e-08 0 0
1e-08 0 0
1e-08 0 0
1e-08 0 0
1e-08 0 0
-0.000582694 0.00398298 0
1e-08 0 0
1e-08 0 0
1e-08 0 0
1e-08 0 0
1e-08 0 0
0.00316477 -0.00313439 0
1e-08 0 0
0.00272835 -0.00334175 0
1e-08 0 0
1e-08 0 0
1e-08 0 0
1e-08 0 0
1e-08 0 0
1e-08 0 0
1e-08 0 0
1e-08 0 0
1e-08 0 0
1e-08 0 0
1e-08 0 0
1e-08 0 0
1e-08 0 0
-0.0013629 0.00524267 0
1e-08 0 0
1e-08 0 0
1e-08 0 0
1e-08 0 0
1e-08 0 0
1e-08 0 0
0.00580236 -0.00950911 0
1e-08 0 0
1e-08 0 0
1e-08 0 0
1e-08 0 0
1e-08 0 0
0.00364927 -0.00902867 0
1e-08 0 0
1e-08 0 0
1e-08 0 0
1e-08 0 0
1e-08 0 0
1e-08 0 0
1e-08 0 0
1e-08 0 0
1e-08 0 0
1e-08 0 0
-0.00288421 0.00715387 0
1e-08 0 0
1e-08 0 0
1e-08 0 0
1e-08 0 0
1e-08 0 0
1e-08 0 0
1e-08 0 0
1e-08 0 0
1e-08 0 0
1e-08 0 0
1e-08 0 0
1e-08 0 0
1e-08 0 0
1e-08 0 0
0.00137205 -0.00548605 0
1e-08 0 0
1e-08 0 0
1e-08 0 0
1e-08 0 0
1e-08 0 0
1e-08 0 0
1e-08 0 0
1e-08 0 0
1e-08 0 0
-0.00374779 0.00650049 0
1e-08 0 0
1e-08 0 0
1e-08 0 0
1e-08 0 0
1e-08 0 0
1e-08 0 0
1e-08 0 0
1e-08 0 0
1e-08 0 0
1e-08 0 0
1e-08 0 0
1e-08 0 0
1e-08 0 0
1e-08 0 0
1e-08 0 0
0.000507948 -0.003708 0
1e-08 0 0
1e-08 0 0
1e-08 0 0
1e-08 0 0
1e-08 0 0
1e-08 0 0
1e-08 0 0
1e-08 0 0
1e-08 0 0
1e-08 0 0
-0.00469922 0.00602672 0
1e-08 0 0
1e-08 0 0
1e-08 0 0
1e-08 0 0
1e-08 0 0
1e-08 0 0
1e-08 0 0
1e-08 0 0
1e-08 0 0
1e-08 0 0
1e-08 0 0
1e-08 0 0
0.000122829 -0.00789129 0
1e-08 0 0
1e-08 0 0
1e-08 0 0
1e-08 0 0
1e-08 0 0
1e-08 0 0
1e-08 0 0
1e-08 0 0
1e-08 0 0
1e-08 0 0
1e-08 0 0
1e-08 0 0
-0.0021977 0.00223569 0
1e-08 0 0
1e-08 0 0
1e-08 0 0
1e-08 0 0
1e-08 0 0
1e-08 0 0
1e-08 0 0
1e-08 0 0
1e-08 0 0
1e-08 0 0
1e-08 0 0
1e-08 0 0
1e-08 0 0
-0.000863723 -0.0069921 0
1e-08 0 0
1e-08 0 0
1e-08 0 0
1e-08 0 0
1e-08 0 0
1e-08 0 0
1e-08 0 0
1e-08 0 0
-0.00477964 0.00391719 0
1e-08 0 0
1e-08 0 0
1e-08 0 0
1e-08 0 0
1e-08 0 0
1e-08 0 0
1e-08 0 0
1e-08 0 0
1e-08 0 0
1e-08 0 0
1e-08 0 0
-0.0016206 -0.00622638 0
1e-08 0 0
1e-08 0 0
1e-08 0 0
1e-08 0 0
1e-08 0 0
1e-08 0 0
1e-08 0 0
-0.00886976 0.00534024 0
1e-08 0 0
1e-08 0 0
1e-08 0 0
1e-08 0 0
1e-08 0 0
1e-08 0 0
1e-08 0 0
1e-08 0 0
1e-08 0 0
1e-08 0 0
1e-08 0 0
-0.00297083 -0.00723128 0
1e-08 0 0
1e-08 0 0
1e-08 0 0
1e-08 0 0
1e-08 0 0
-0.00752539 0.00307921 0
1e-08 0 0
1e-08 0 0
1e-08 0 0
1e-08 0 0
1e-08 0 0
1e-08 0 0
1e-08 0 0
1e-08 0 0
-0.00516343 -0.00860292 0
1e-08 0 0
1e-08 0 0
1e-08 0 0
1e-08 0 0
-0.00628755 0.0016154 0
1e-08 0 0
1e-08 0 0
1e-08 0 0
1e-08 0 0
1e-08 0 0
1e-08 0 0
-0.003602 -0.00444034 0
1e-08 0 0
1e-08 0 0
1e-08 0 0
-0.00716685 0.000855748 0
1e-08 0 0
1e-08 0 0
1e-08 0 0
1e-08 0 0
1e-08 0 0
1e-08 0 0
-0.00252131 -0.00250131 0
1e-08 0 0
1e-08 0 0
-0.00851913 -0.000195355 0
1e-08 0 0
1e-08 0 0
1e-08 0 0
1e-08 0 0
-0.0060765 -0.00475201 0
1e-08 0 0
-0.00339336 -0.000492229 0
1e-08 0 0
1e-08 0 0
-0.00669439 -0.00386016 0
-0.00558464 -0.00143236 0
-0.00719975 -0.00289343 0
