# vtk DataFile Version 2.0
CellBP Time: 0.84
ASCII
DATASET UNSTRUCTURED_GRID
POINTS 296 double
-9.17888 -3.77218 0
-8.60159 -4.9446 0
-9.59818 -2.53414 0
-9.85354 -1.25338 0
-8.34979 -2.81478 0
-7.87475 -6.03104 0
-7.01258 -7.01341 0
-7.90856 -3.87052 0
-7.33471 -4.86258 0
-6.03214 -7.87671 0
-4.9463 -8.60269 0
-9.94036 0.0494397 0
-9.85555 1.35347 0
-8.65055 -1.68242 0
-8.78023 -0.529594 0
-7.58143 -2.00189 0
-7.21721 -2.90282 0
-6.63117 -5.77392 0
-5.81717 -6.59344 0
-6.78214 -3.88465 0
-6.21409 -4.67147 0
-3.77414 -9.18056 0
-2.53606 -9.60068 0
-4.90487 -7.30423 0
-3.91045 -7.88278 0
-8.78739 0.642365 0
-9.60198 2.63615 0
-8.61792 1.77239 0
-9.18158 3.87363 0
-7.73639 -0.927421 0
-7.78788 0.0803808 0
-6.94476 -1.31373 0
-1.25376 -9.85542 0
-6.43425 -2.15031 0
-6.31231 -3.05283 0
-5.53172 -5.47006 0
-4.79273 -6.11117 0
-5.65339 -3.75329 0
-5.26427 -4.55735 0
-2.86401 -8.35996 0
-1.77897 -8.63431 0
-3.92697 -6.71902 0
-3.05517 -7.14886 0
0.0502103 -9.94054 0
-7.69988 1.1431 0
-8.33452 2.91423 0
-7.54576 2.10994 0
-8.60156 5.04461 0
-7.87522 3.9745 0
-7.87447 6.13074 0
-6.77228 -0.396405 0
-6.95083 0.552242 0
-5.76606 -1.00281 0
-0.591394 -8.80484 0
0.565308 -8.76439 0
-5.29843 -2.47842 0
-4.48817 -5.09151 0
-3.89979 -5.77139 0
-4.43511 -3.80201 0
-2.05971 -7.55844 0
-1.13346 -7.78178 0
-2.99323 -6.09802 0
-2.30599 -6.61607 0
1.35345 -9.85339 0
-6.68395 1.42056 0
-7.16652 3.11484 0
-6.65386 2.37107 0
-7.28953 4.98466 0
-6.71333 4.00025 0
-7.01292 7.11286 0
-6.56695 5.88956 0
-6.03059 7.97453 0
-4.45049 -1.17979 0
-5.81084 0.513407 0
-4.65403 -0.0111544 0
0.00930968 -7.84264 0
1.73664 -8.63626 0
0.948438 -7.75697 0
-4.0357 -2.40502 0
-3.48555 -1.39024 0
-3.2937 -4.8022 0
-3.26471 -3.26575 0
-1.37668 -6.67176 0
-0.507922 -7.02057 0
-1.97522 -5.53399 0
2.63504 -9.59828 0
-5.50364 2.03613 0
-6.0905 3.0696 0
-6.10011 4.86525 0
-5.75767 3.98826 0
-5.75673 6.71105 0
-5.44743 5.61368 0
-4.94569 8.7027 0
-4.83433 7.39719 0
-3.50083 -0.423296 0
-4.44691 1.24859 0
-3.71011 0.592216 0
-4.05946 2.31915 0
-3.77395 9.28075 0
2.85905 -8.3243 0
0.418821 -6.79043 0
2.02017 -7.51839 0
1.30421 -6.89944 0
-2.44374 -0.874307 0
-2.83753 -2.13095 0
-2.29357 -4.09554 0
-2.32502 -2.97292 0
-0.442638 -5.8566 0
-1.22251 -4.49784 0
3.87257 -9.17856 0
-4.78761 3.38977 0
-5.08307 4.58985 0
-4.64261 6.27391 0
-4.53594 5.35483 0
-3.84038 7.98684 0
-3.82322 6.83906 0
-2.78112 8.41484 0
-1.64857 -0.137025 0
-1.44972 -0.89024 0
-2.48736 0.50786 0
-3.25208 1.44497 0
-3.23783 3.31556 0
-2.90943 2.37284 0
-1.35385 0.627788 0
-2.5359 9.69958 0
3.9291 -7.87882 0
2.96101 -7.14915 0
0.951673 -5.81686 0
2.06993 -6.40924 0
-1.68312 -1.99178 0
-1.43428 -3.27716 0
0.0893691 -4.74454 0
-0.565673 -3.69396 0
4.92751 -7.31114 0
5.04447 -8.60116 0
-3.77501 4.5482 0
-3.73178 5.7465 0
-2.88509 7.28284 0
-3.00718 6.34743 0
-1.66193 8.72735 0
-1.93827 7.61335 0
-2.33805 4.04971 0
-0.730332 -1.32719 0
-0.835932 -0.257351 0
-1.93516 1.68164 0
-2.12454 2.876 0
-1.30705 3.54523 0
-0.869081 1.35191 0
-0.281536 0.455848 0
-0.533276 8.86581 0
-1.25389 9.95402 0
1.111 -4.57082 0
3.90381 -6.70831 0
2.98322 -6.08726 0
2.1143 -5.41967 0
4.78001 -6.19812 0
-0.558052 -2.47737 0
0.494835 -3.46294 0
0.0541288 -1.61023 0
1.48103 -3.68017 0
5.86229 -6.60678 0
6.13109 -7.87491 0
-2.47369 5.34414 0
-2.12837 6.52858 0
-0.903077 7.79871 0
-1.27025 6.92519 0
0.0870147 7.87599 0
-1.14426 4.49344 0
0.150737 -0.617598 0
-0.797049 2.48959 0
-0.331829 3.60082 0
0.0637385 1.5133 0
0.741992 0.473105 0
0.646125 8.86966 0
0.0498462 10.0411 0
2.37924 -4.28161 0
3.85531 -5.63392 0
2.99782 -5.20787 0
5.56997 -5.48692 0
4.68697 -5.27697 0
0.629902 -2.29374 0
1.25562 -2.95022 0
0.757865 -1.39089 0
2.16227 -3.13366 0
2.99171 -3.47372 0
6.15212 -4.78821 0
6.65019 -5.76395 0
7.11346 -7.01268 0
-1.01874 5.81653 0
-0.371341 6.87901 0
1.12193 7.76541 0
0.558554 7.07562 0
-0.000217065 4.72385 0
0.606579 3.82699 0
1.33997 -0.642212 0
0.539043 2.651 0
0.96687 1.57542 0
1.91063 0.213521 0
1.61535 1.06592 0
2.12954 7.57988 0
1.79812 8.70861 0
1.35403 9.95534 0
3.81875 -4.34825 0
5.11328 -4.44476 0
5.84274 -3.93225 0
3.78221 -3.19934 0
1.81273 -1.88379 0
3.01815 -2.57299 0
6.77975 -3.94498 0
7.3785 -4.89284 0
7.97631 -6.03154 0
0.483014 5.87797 0
1.42895 6.73855 0
2.3733 6.66558 0
1.20898 4.55482 0
1.48739 3.39815 0
2.43568 -0.692667 0
2.82846 0.142263 0
1.78854 2.1639 0
2.61217 1.14943 0
3.07111 7.16759 0
2.903 8.37375 0
2.63629 9.70057 0
4.90815 -3.32511 0
6.11771 -3.10641 0
4.17132 -2.27483 0
3.24311 -1.50271 0
6.72902 -2.31197 0
7.22978 -3.04096 0
7.96225 -3.91117 0
8.70288 -4.9461 0
2.02321 5.59802 0
3.08497 6.15136 0
2.36342 4.12648 0
2.41983 3.06084 0
3.52494 -0.462233 0
3.6151 0.61276 0
2.96084 2.28872 0
3.5449 1.52516 0
4.01002 5.89601 0
3.98282 6.79107 0
3.97347 7.9358 0
3.8743 9.28088 0
5.56681 -1.91613 0
4.50693 -1.1295 0
6.71092 -1.33547 0
7.59037 -2.03502 0
8.39363 -2.86019 0
9.28072 -3.77393 0
3.41739 4.87519 0
3.33759 3.38398 0
4.6895 0.129799 0
4.5178 1.3095 0
4.06221 2.44267 0
4.5668 5.15055 0
4.84127 6.18885 0
4.9785 7.37909 0
5.04658 8.70305 0
5.8815 -0.434527 0
7.00777 -0.488014 0
7.75665 -1.08502 0
8.68239 -1.74551 0
9.7006 -2.53589 0
4.54913 3.826 0
5.81457 1.09792 0
5.36675 2.53278 0
5.37548 4.61847 0
5.60772 5.52137 0
5.89367 6.66885 0
6.1311 7.97533 0
6.84308 0.463005 0
7.84985 -0.0254789 0
8.85864 -0.583768 0
9.95485 -1.25342 0
6.95666 1.34793 0
5.71614 3.77607 0
6.53689 2.19635 0
6.37461 3.08557 0
6.28709 4.68482 0
6.68898 5.83467 0
7.11311 7.11344 0
7.7816 0.966626 0
8.85629 0.570893 0
10.0403 0.0506313 0
7.61147 2.00158 0
6.82334 3.90181 0
7.2637 2.94502 0
7.37333 4.88349 0
7.97582 6.13174 0
8.71818 1.72527 0
9.95236 1.35357 0
8.41548 2.83527 0
7.97615 3.91325 0
8.70136 5.04477 0
9.69865 2.63541 0
9.27901 3.87275 0
CELLS 542 2168
3 2 0 4
3 0 1 7
3 4 0 7
3 1 5 8
3 7 1 8
3 3 2 13
3 13 2 4
3 11 3 14
3 14 3 13
3 13 4 15
3 4 7 16
3 15 4 16
3 5 6 17
3 8 5 17
3 6 9 18
3 17 6 18
3 7 8 19
3 16 7 19
3 8 17 20
3 19 8 20
3 9 10 23
3 18 9 23
3 10 21 24
3 23 10 24
3 12 11 25
3 25 11 14
3 26 12 27
3 27 12 25
3 14 13 29
3 29 13 15
3 25 14 30
3 30 14 29
3 29 15 31
3 15 16 33
3 31 15 33
3 16 19 34
3 33 16 34
3 17 18 35
3 20 17 35
3 18 23 36
3 35 18 36
3 19 20 37
3 34 19 37
3 20 35 38
3 37 20 38
3 21 22 39
3 24 21 39
3 22 32 40
3 39 22 40
3 23 24 41
3 36 23 41
3 24 39 42
3 41 24 42
3 27 25 44
3 44 25 30
3 28 26 45
3 45 26 27
3 45 27 46
3 46 27 44
3 47 28 48
3 48 28 45
3 30 29 50
3 50 29 31
3 44 30 51
3 51 30 50
3 50 31 52
3 31 33 52
3 32 43 53
3 40 32 53
3 53 43 54
3 33 34 55
3 34 37 55
3 33 55 52
3 35 36 56
3 38 35 56
3 36 41 57
3 56 36 57
3 37 38 58
3 38 56 58
3 37 58 55
3 39 40 59
3 42 39 59
3 40 53 60
3 59 40 60
3 41 42 61
3 57 41 61
3 42 59 62
3 61 42 62
3 43 63 54
3 46 44 64
3 64 44 51
3 48 45 65
3 65 45 46
3 65 46 66
3 66 46 64
3 49 47 67
3 67 47 48
3 67 48 68
3 68 48 65
3 69 49 70
3 70 49 67
3 52 55 72
3 64 51 73
3 51 50 73
3 50 52 73
3 73 52 74
3 74 52 72
3 53 54 75
3 60 53 75
3 54 63 76
3 54 76 77
3 75 54 77
3 55 58 78
3 72 55 78
3 72 78 79
3 56 57 80
3 57 61 80
3 56 80 58
3 58 80 81
3 78 58 81
3 59 60 82
3 62 59 82
3 60 75 83
3 82 60 83
3 61 62 84
3 62 82 84
3 61 84 80
3 63 85 76
3 66 64 86
3 64 73 86
3 68 65 87
3 87 65 66
3 87 66 86
3 70 67 88
3 88 67 68
3 88 68 89
3 89 68 87
3 71 69 90
3 90 69 70
3 90 70 91
3 91 70 88
3 92 71 93
3 93 71 90
3 74 72 94
3 94 72 79
3 86 73 95
3 95 73 74
3 95 74 96
3 96 74 94
3 97 86 95
3 76 85 99
3 75 77 100
3 83 75 100
3 76 99 101
3 77 76 101
3 77 101 102
3 100 77 102
3 94 79 103
3 78 81 104
3 79 78 104
3 79 104 103
3 80 84 105
3 81 80 105
3 81 105 106
3 104 81 106
3 82 83 107
3 83 100 107
3 82 107 84
3 84 107 108
3 105 84 108
3 85 109 99
3 89 87 110
3 87 86 110
3 110 86 97
3 91 88 111
3 111 88 89
3 111 89 110
3 93 90 112
3 112 90 91
3 112 91 113
3 113 91 111
3 98 92 114
3 114 92 93
3 114 93 115
3 115 93 112
3 116 98 114
3 117 103 118
3 96 94 119
3 94 103 119
3 119 103 117
3 97 95 120
3 120 95 96
3 120 96 119
3 121 110 97
3 121 97 122
3 122 97 120
3 123 119 117
3 124 98 116
3 99 109 125
3 99 125 126
3 101 99 126
3 100 102 127
3 100 127 107
3 101 126 128
3 102 101 128
3 102 128 127
3 104 106 129
3 104 129 103
3 103 129 118
3 105 108 130
3 106 105 130
3 106 130 129
3 107 127 131
3 108 107 131
3 108 131 132
3 108 132 130
3 109 134 125
3 125 134 133
3 113 111 135
3 111 110 135
3 135 110 121
3 115 112 136
3 136 112 113
3 136 113 135
3 116 114 137
3 137 114 115
3 137 115 138
3 138 115 136
3 139 124 116
3 139 116 140
3 140 116 137
3 141 135 121
3 118 129 142
3 118 142 143
3 117 118 143
3 123 117 143
3 122 120 144
3 120 119 144
3 144 119 123
3 141 121 145
3 145 121 122
3 145 122 144
3 146 141 145
3 147 144 123
3 147 123 148
3 143 148 123
3 150 124 139
3 149 150 139
3 131 127 151
3 125 133 152
3 126 125 152
3 126 152 153
3 128 126 153
3 128 153 154
3 128 154 127
3 127 154 151
3 152 133 155
3 130 132 156
3 130 156 129
3 129 156 142
3 131 151 157
3 132 131 157
3 132 157 156
3 156 158 142
3 157 151 159
3 133 160 155
3 134 161 133
3 133 161 160
3 138 136 162
3 136 135 162
3 162 135 141
3 140 137 163
3 163 137 138
3 163 138 162
3 149 139 164
3 164 139 140
3 164 140 165
3 165 140 163
3 166 149 164
3 167 162 141
3 167 141 146
3 142 158 168
3 143 142 168
3 143 168 148
3 146 145 169
3 145 144 169
3 169 144 147
3 170 167 146
3 170 146 169
3 171 169 147
3 171 147 148
3 171 148 172
3 168 172 148
3 173 149 166
3 174 150 149
3 173 174 149
3 154 175 151
3 151 175 159
3 152 155 176
3 153 152 176
3 153 176 177
3 153 177 154
3 154 177 175
3 155 160 178
3 155 178 179
3 176 155 179
3 156 157 180
3 156 180 158
3 157 159 181
3 157 181 180
3 158 180 182
3 158 182 168
3 159 175 183
3 159 183 181
3 175 184 183
3 160 186 178
3 178 186 185
3 161 187 160
3 160 187 186
3 165 163 188
3 163 162 188
3 188 162 167
3 166 164 189
3 189 164 165
3 189 165 188
3 190 173 166
3 190 166 191
3 191 166 189
3 192 188 167
3 192 167 170
3 193 192 170
3 182 194 168
3 194 172 168
3 193 170 195
3 170 169 195
3 195 169 171
3 196 195 171
3 196 171 172
3 194 197 172
3 197 198 172
3 198 196 172
3 200 173 190
3 199 200 190
3 201 174 173
3 200 201 173
3 176 179 202
3 177 176 202
3 177 202 175
3 175 202 184
3 178 185 203
3 178 203 179
3 179 203 202
3 203 185 204
3 202 205 184
3 183 206 181
3 180 181 206
3 180 206 182
3 182 206 194
3 183 184 207
3 205 207 184
3 183 207 206
3 185 208 204
3 186 209 185
3 185 209 208
3 187 210 186
3 186 210 209
3 191 189 211
3 189 188 211
3 211 188 192
3 199 190 212
3 212 190 191
3 212 191 211
3 213 199 212
3 214 211 192
3 214 192 193
3 215 214 193
3 215 193 195
3 206 216 194
3 216 197 194
3 216 217 197
3 215 195 218
3 218 195 196
3 198 218 196
3 217 219 197
3 219 218 198
3 197 219 198
3 220 199 213
3 221 200 199
3 220 221 199
3 222 201 200
3 221 222 200
3 203 204 223
3 203 223 202
3 202 223 205
3 204 208 224
3 204 224 223
3 205 223 225
3 205 225 207
3 207 225 226
3 207 226 206
3 226 216 206
3 208 228 224
3 224 228 227
3 209 229 208
3 229 228 208
3 210 230 209
3 209 230 229
3 213 212 231
3 212 211 231
3 231 211 214
3 232 220 213
3 232 213 231
3 233 231 214
3 233 214 215
3 234 233 215
3 234 215 218
3 226 235 216
3 235 217 216
3 235 236 217
3 217 236 219
3 237 234 218
3 237 218 219
3 236 238 219
3 238 237 219
3 240 220 232
3 239 240 232
3 241 221 220
3 240 241 220
3 242 222 221
3 241 242 221
3 224 227 243
3 224 243 223
3 223 243 225
3 225 243 244
3 225 244 226
3 226 244 235
3 227 245 243
3 228 246 227
3 227 246 245
3 229 247 228
3 228 247 246
3 230 248 229
3 229 248 247
3 239 232 249
3 232 231 249
3 249 231 233
3 250 249 233
3 250 233 234
3 237 250 234
3 244 251 235
3 235 251 236
3 251 252 236
3 236 252 238
3 252 253 238
3 253 250 237
3 253 237 238
3 254 239 249
3 255 240 239
3 254 255 239
3 256 241 240
3 255 256 240
3 257 242 241
3 256 257 241
3 245 258 243
3 243 258 244
3 244 258 251
3 245 259 258
3 246 260 245
3 245 260 259
3 247 261 246
3 246 261 260
3 248 262 247
3 247 262 261
3 254 249 263
3 263 249 250
3 253 263 250
3 258 264 251
3 251 264 252
3 264 265 252
3 265 263 253
3 252 265 253
3 266 254 263
3 267 255 254
3 266 267 254
3 268 256 255
3 267 268 255
3 269 257 256
3 268 269 256
3 259 270 258
3 270 264 258
3 260 271 259
3 259 271 270
3 261 272 260
3 260 272 271
3 262 273 261
3 273 272 261
3 270 274 264
3 275 266 263
3 275 263 265
3 274 276 264
3 276 265 264
3 276 277 265
3 277 275 265
3 278 267 266
3 275 278 266
3 279 268 267
3 278 279 267
3 280 269 268
3 279 280 268
3 271 281 270
3 270 281 274
3 272 282 271
3 271 282 281
3 273 283 272
3 272 283 282
3 281 284 274
3 274 284 276
3 285 278 275
3 277 285 275
3 284 286 276
3 286 285 277
3 276 286 277
3 287 279 278
3 285 287 278
3 288 280 279
3 287 288 279
3 282 289 281
3 281 289 284
3 283 290 282
3 282 290 289
3 289 291 284
3 284 291 286
3 291 292 286
3 292 287 285
3 286 292 285
3 293 288 287
3 292 293 287
3 290 294 289
3 289 294 291
3 294 295 291
3 295 293 292
3 291 295 292
CELL_TYPES 542
5
5
5
5
5
5
5
5
5
5
5
5
5
5
5
5
5
5
5
5
5
5
5
5
5
5
5
5
5
5
5
5
5
5
5
5
5
5
5
5
5
5
5
5
5
5
5
5
5
5
5
5
5
5
5
5
5
5
5
5
5
5
5
5
5
5
5
5
5
5
5
5
5
5
5
5
5
5
5
5
5
5
5
5
5
5
5
5
5
5
5
5
5
5
5
5
5
5
5
5
5
5
5
5
5
5
5
5
5
5
5
5
5
5
5
5
5
5
5
5
5
5
5
5
5
5
5
5
5
5
5
5
5
5
5
5
5
5
5
5
5
5
5
5
5
5
5
5
5
5
5
5
5
5
5
5
5
5
5
5
5
5
5
5
5
5
5
5
5
5
5
5
5
5
5
5
5
5
5
5
5
5
5
5
5
5
5
5
5
5
5
5
5
5
5
5
5
5
5
5
5
5
5
5
5
5
5
5
5
5
5
5
5
5
5
5
5
5
5
5
5
5
5
5
5
5
5
5
5
5
5
5
5
5
5
5
5
5
5
5
5
5
5
5
5
5
5
5
5
5
5
5
5
5
5
5
5
5
5
5
5
5
5
5
5
5
5
5
5
5
5
5
5
5
5
5
5
5
5
5
5
5
5
5
5
5
5
5
5
5
5
5
5
5
5
5
5
5
5
5
5
5
5
5
5
5
5
5
5
5
5
5
5
5
5
5
5
5
5
5
5
5
5
5
5
5
5
5
5
5
5
5
5
5
5
5
5
5
5
5
5
5
5
5
5
5
5
5
5
5
5
5
5
5
5
5
5
5
5
5
5
5
5
5
5
5
5
5
5
5
5
5
5
5
5
5
5
5
5
5
5
5
5
5
5
5
5
5
5
5
5
5
5
5
5
5
5
5
5
5
5
5
5
5
5
5
5
5
5
5
5
5
5
5
5
5
5
5
5
5
5
5
5
5
5
5
5
5
5
5
5
5
5
5
5
5
5
5
5
5
5
5
5
5
5
5
5
5
5
5
5
5
5
5
5
5
5
5
5
5
5
5
5
5
5
5
5
5
5
5
5
5
5
5
5
5
5
5
5
5
5
5
5
5
5
5
5
5
5
5
5
5
5
5
5
5
5
5
5
5
5
5
5
5
5
5
5
5
5
5
5
5
5
5
5
5
5
5
5
5
5
5
5
5
5
5
5
5
5
5
5
5
5
5
5
5
5
5
5
5
5
5
POINT_DATA 296
SCALARS concentrations float 4
LOOKUP_TABLE default
0 0.997933 0.139968 18.3106
0 0.998061 0.142397 15.6097
0 0.997971 0.144237 17.2748
0 0.997958 0.143027 21.3842
0 0.99796 0.0944551 6.876
0 0.998059 0.145478 14.5365
0 0.997968 0.143933 18.2093
0 0.997993 0.0946665 6.76565
0 0.998062 0.0935255 7.6204
0 0.997984 0.141335 19.5392
0 0.997956 0.14367 19.4387
0 0.997983 0.141408 18.3653
0 0.99796 0.138731 17.8648
0 0.997971 0.0935974 6.85587
0 0.997974 0.0939502 7.42174
0 0.997981 0.094532 7.11472
0 0.997988 0.0948039 6.75624
0 0.998 0.092408 7.59393
0 0.997971 0.0929817 6.64077
0 0.998007 0.0947075 6.75668
0 0.998007 0.093696 6.52268
0 0.99793 0.139268 24.4305
0 0.998027 0.14361 11.7877
0 0.997973 0.0926799 7.2496
0 0.997944 0.0931228 7.17168
0 0.997981 0.0935372 8.06658
0 0.997973 0.142349 16.6422
0 0.997993 0.0954836 6.42504
0 0.997868 0.139615 20.3352
0 0.997983 0.0939229 6.67857
0 0.997992 0.0939269 6.70041
0 0.997995 0.0936735 6.55233
0 0.998023 0.141357 12.4218
0 0.997987 0.0944634 6.3702
0 0.997991 0.0942859 6.23203
0 0.997991 0.0933291 6.55883
0 0.997981 0.0931729 6.52728
0 0.997998 0.0936213 6.23317
0 0.998001 0.0934048 6.37609
0 0.997984 0.0933145 7.00917
0 0.998039 0.0929583 7.24439
0 0.99798 0.0928828 6.7873
0 0.99799 0.0938521 7.98877
0 0.998033 0.14063 12.7804
0 0.998008 0.0940253 7.16671
0 0.997962 0.0951098 8.05321
0 0.998016 0.0959168 5.4284
0 0.997879 0.144428 21.2832
0 0.997913 0.0934903 6.54921
0 0.997928 0.141135 22.7318
0 0.998007 0.0939516 6.60475
0 0.998012 0.0945007 6.55093
0 0.997997 0.0950678 6.30227
0 0.998029 0.0928731 7.00315
0 0.998046 0.0922895 7.17095
0 0.997995 0.0955241 5.74342
0 0.998001 0.0934422 6.39712
0 0.998001 0.0934749 6.45334
0 0.998003 0.0937896 6.02289
0 0.998019 0.0934665 6.68975
0 0.998039 0.0932577 6.85535
0 0.998006 0.0937952 7.92958
0 0.998016 0.0937863 7.70133
0 0.998057 0.142078 15.9621
0 0.998021 0.0995418 4.69655
0 0.99801 0.094399 6.15491
0 0.998024 0.0953155 8.15458
0 0.997934 0.0943538 7.24884
0 0.997995 0.0944484 8.07075
0 0.998009 0.143806 12.6923
0 0.997989 0.0940277 8.08622
0 0.998011 0.139633 14.338
0 0.998003 0.0952494 8.47919
0 0.998016 0.0944707 7.88181
0 0.998009 0.0945179 5.88115
0 0.998038 0.0928704 7.29646
0 0.998043 0.0924072 7.19524
0 0.998032 0.0926713 7.34221
0 0.998013 0.0944372 5.68579
0 0.998033 0.0959743 8.31001
0 0.998008 0.0932289 7.01453
0 0.998009 0.0946309 8.47588
0 0.998028 0.0938125 7.2001
0 0.998031 0.0935506 7.02849
0 0.998019 0.093885 8.35158
0 0.998044 0.142871 15.2756
0 0.998024 0.0956437 6.95394
0 0.998027 0.0949674 6.904
0 0.997986 0.0944621 6.96226
0 0.998011 0.0953807 8.58544
0 0.998031 0.0945027 7.85866
0 0.998017 0.0997554 6.16665
0 0.997995 0.140831 19.2461
0 0.998011 0.0962415 9.61573
0 0.998018 0.0947126 8.6058
0 0.998016 0.0947026 5.70017
0 0.998013 0.0938934 6.22424
0 0.998011 0.0945853 7.1427
0 0.998015 0.142342 12.2378
0 0.998046 0.0929273 7.12925
0 0.998024 0.0935791 6.98585
0 0.998033 0.0927429 7.31102
0 0.998025 0.0935713 7.26457
0 0.998038 0.0962659 6.06665
0 0.998028 0.0951923 5.89888
0 0.998015 0.0938326 8.06807
0 0.998015 0.0944104 5.45715
0 0.998022 0.0933943 7.58796
0 0.998019 0.0940994 7.41815
0 0.998043 0.14267 12.1487
0 0.998021 0.0957637 8.23901
0 0.998011 0.0950424 7.39281
0 0.998027 0.0963302 5.38159
0 0.998021 0.0959618 8.07707
0 0.998012 0.0964679 5.40651
0 0.998041 0.0981494 7.35345
0 0.998014 0.0949341 8.12034
0 0.998032 0.0948874 9.24673
0 0.998049 0.0943633 8.53544
0 0.998025 0.0948404 8.27417
0 0.998013 0.0968746 4.10379
0 0.99801 0.0947296 7.03715
0 0.998002 0.0952127 7.47473
0 0.998031 0.0945185 7.89674
0 0.99801 0.143774 19.505
0 0.998035 0.092884 7.24513
0 0.998039 0.0934907 7.26823
0 0.998019 0.0937371 6.27325
0 0.998024 0.0936322 6.9274
0 0.998039 0.0949575 8.03445
0 0.998023 0.0939413 8.34069
0 0.998019 0.094339 5.90136
0 0.998022 0.0937905 8.19035
0 0.998021 0.0936902 7.36913
0 0.997998 0.139751 16.3936
0 0.998035 0.0950135 7.02409
0 0.998039 0.0962349 7.05782
0 0.998031 0.0982162 5.53095
0 0.998061 0.0965148 7.83711
0 0.998013 0.0948415 7.83439
0 0.998015 0.0957529 8.2908
0 0.998016 0.0963793 10.6162
0 0.99805 0.0942457 8.83489
0 0.998044 0.0936632 8.68685
0 0.998021 0.0956926 6.17345
0 0.998008 0.0973836 3.82842
0 0.998016 0.094639 7.73317
0 0.998021 0.0941793 8.29126
0 0.998053 0.0937384 5.62787
0 0.998024 0.0945723 8.39918
0 0.997995 0.141604 12.3603
0 0.998016 0.0933787 6.66332
0 0.998042 0.0953673 7.40363
0 0.998026 0.0931295 7.02012
0 0.998016 0.0934025 6.91793
0 0.998044 0.0935117 7.26571
0 0.998038 0.0942924 8.2107
0 0.998023 0.0956112 5.9028
0 0.998046 0.0959176 8.47749
0 0.998014 0.094719 8.39822
0 0.998025 0.0929926 7.38463
0 0.998005 0.141036 13.7919
0 0.99803 0.0970755 11.257
0 0.998012 0.0961802 8.60007
0 0.998031 0.0945612 8.03396
0 0.997986 0.101668 8.40823
0 0.998034 0.0945012 8.41385
0 0.998012 0.0947248 7.77873
0 0.998049 0.0941147 6.39858
0 0.998004 0.102225 4.78067
0 0.998015 0.0966455 9.83031
0 0.998019 0.0964783 4.15113
0 0.998051 0.0935361 6.06054
0 0.99803 0.0942906 7.80415
0 0.998018 0.139327 12.7674
0 0.99802 0.0939325 7.31014
0 0.998031 0.0930495 6.8985
0 0.998022 0.0941795 6.96235
0 0.99805 0.0932373 7.30471
0 0.998035 0.0937166 7.30758
0 0.998046 0.0956856 7.47046
0 0.998032 0.101007 8.04346
0 0.998056 0.0964707 8.89104
0 0.998029 0.0957673 8.98737
0 0.998027 0.0932043 7.08041
0 0.998067 0.0933244 7.23838
0 0.998059 0.0928392 7.12686
0 0.998014 0.140654 19.5624
0 0.997985 0.0959879 9.40216
0 0.998002 0.0970932 6.94805
0 0.998034 0.0957709 7.88492
0 0.998016 0.0977492 5.93279
0 0.998002 0.0944299 8.07537
0 0.998005 0.0941829 5.97841
0 0.998048 0.0995194 6.43299
0 0.997999 0.0941126 5.87695
0 0.998027 0.0958231 5.84986
0 0.998049 0.0944028 6.72957
0 0.998051 0.0937666 8.17243
0 0.998039 0.0955575 7.35499
0 0.998063 0.0945855 8.01291
0 0.99803 0.143226 18.2611
0 0.998025 0.0932961 6.90768
0 0.998035 0.0935613 7.12302
0 0.998037 0.0936994 7.39059
0 0.998022 0.0940681 6.2609
0 0.998046 0.0954251 6.34787
0 0.998028 0.0934243 7.30658
0 0.998069 0.0935003 6.93428
0 0.998102 0.092297 7.42524
0 0.99809 0.137949 8.47869
0 0.998 0.0970624 8.54519
0 0.998023 0.0969474 7.38379
0 0.998022 0.0965841 6.35467
0 0.998005 0.0945981 5.8701
0 0.99801 0.0943825 8.40305
0 0.99804 0.0945258 8.51846
0 0.998038 0.099275 7.93
0 0.998031 0.0940546 8.1762
0 0.998047 0.0955172 6.93576
0 0.998024 0.0941635 8.82349
0 0.998067 0.0940532 8.24237
0 0.998096 0.140209 7.55729
0 0.998021 0.0935083 7.30939
0 0.998028 0.094104 7.57273
0 0.998023 0.0940778 6.51462
0 0.99803 0.0949679 8.47573
0 0.998026 0.093517 7.47329
0 0.998048 0.0947282 7.33325
0 0.998076 0.0930148 7.5796
0 0.998102 0.139662 7.66029
0 0.998022 0.0954667 8.83443
0 0.998023 0.0945416 8.56733
0 0.998014 0.0949383 8.79209
0 0.998029 0.0970638 5.96014
0 0.998022 0.0937687 6.73798
0 0.99803 0.0947118 6.99399
0 0.998043 0.0947295 8.77368
0 0.998037 0.0964461 6.9048
0 0.998026 0.0938309 9.0682
0 0.99803 0.0947248 8.7653
0 0.998041 0.0950086 5.47041
0 0.998056 0.142555 13.934
0 0.998022 0.0937765 7.11206
0 0.998024 0.0937016 7.68858
0 0.998027 0.0936605 6.98869
0 0.998027 0.0939417 7.08336
0 0.99803 0.0939964 6.57494
0 0.998048 0.141867 16.6697
0 0.998023 0.0943576 9.00876
0 0.998032 0.0995707 5.29579
0 0.998027 0.0937307 6.79877
0 0.998031 0.0945134 6.72126
0 0.998037 0.0946781 5.84336
0 0.998021 0.0944399 9.09951
0 0.998026 0.0943442 8.48249
0 0.998059 0.0940147 8.38976
0 0.998061 0.139267 11.5795
0 0.998026 0.0935228 7.36133
0 0.998026 0.100108 5.7029
0 0.998025 0.0929234 7.12105
0 0.997994 0.0922887 6.9391
0 0.997998 0.141771 14.7581
0 0.998031 0.0941159 8.74317
0 0.998028 0.0937084 8.5818
0 0.998033 0.0940374 5.5798
0 0.998022 0.0940108 9.00411
0 0.998028 0.0994771 8.48992
0 0.998073 0.0941211 6.25435
0 0.998095 0.142367 10.9001
0 0.998021 0.0928481 7.67601
0 0.998017 0.0930337 6.95878
0 0.99798 0.0928387 7.14489
0 0.997952 0.139592 16.0347
0 0.99802 0.0936506 8.06062
0 0.998025 0.0948561 9.33995
0 0.998026 0.0937829 8.91843
0 0.998027 0.0943724 9.36823
0 0.998027 0.0946219 9.48357
0 0.998067 0.0947071 8.73533
0 0.998106 0.141057 13.3954
0 0.998005 0.0932889 7.81179
0 0.997973 0.0929767 6.42024
0 0.99795 0.139932 14.6345
0 0.998007 0.093485 6.09977
0 0.998015 0.0946775 8.93414
0 0.998016 0.0949328 9.19241
0 0.998025 0.0958051 7.7588
0 0.998064 0.141421 15.1793
0 0.997975 0.0936259 6.14236
0 0.997949 0.142368 20.9499
0 0.998004 0.0933107 8.60425
0 0.99801 0.0984573 9.46864
0 0.998011 0.140363 12.4718
0 0.99798 0.141615 16.725
0 0.99801 0.141494 18.0875
VECTORS fa_u float
0.00604456 0.00249909 -0
0.0057579 0.00332425 -0
0.00620159 0.00166109 -0
0.00641796 0.000850026 -0
1e-08 0 0
0.00516481 0.00396696 -0
0.00445743 0.00445007 -0
1e-08 0 0
1e-08 0 0
0.00408917 0.00531649 -0
0.00328757 0.00569341 -0
0.00659364 5.09204e-06 -0
0.00641028 -0.000838569 0
1e-08 0 0
1e-08 0 0
1e-08 0 0
1e-08 0 0
1e-08 0 0
1e-08 0 0
1e-08 0 0
1e-08 0 0
0.00249802 0.00603297 -0
0.00169224 0.00631992 -0
1e-08 0 0
1e-08 0 0
1e-08 0 0
0.00644552 -0.00172376 0
1e-08 0 0
0.0061721 -0.00256376 0
1e-08 0 0
1e-08 0 0
1e-08 0 0
0.000851349 0.00647861 -0
1e-08 0 0
1e-08 0 0
1e-08 0 0
1e-08 0 0
1e-08 0 0
1e-08 0 0
1e-08 0 0
1e-08 0 0
1e-08 0 0
1e-08 0 0
-5.16999e-06 0.00663908 -0
1e-08 0 0
1e-08 0 0
1e-08 0 0
0.00557629 -0.00322925 0
1e-08 0 0
0.00512451 -0.00393616 0
1e-08 0 0
1e-08 0 0
1e-08 0 0
1e-08 0 0
1e-08 0 0
1e-08 0 0
1e-08 0 0
1e-08 0 0
1e-08 0 0
1e-08 0 0
1e-08 0 0
1e-08 0 0
1e-08 0 0
-0.000842478 0.00636261 0
1e-08 0 0
1e-08 0 0
1e-08 0 0
1e-08 0 0
1e-08 0 0
0.00460222 -0.00460245 0
1e-08 0 0
0.00386448 -0.0050249 0
1e-08 0 0
1e-08 0 0
1e-08 0 0
1e-08 0 0
1e-08 0 0
1e-08 0 0
1e-08 0 0
1e-08 0 0
1e-08 0 0
1e-08 0 0
1e-08 0 0
1e-08 0 0
1e-08 0 0
-0.00167981 0.00627068 0
1e-08 0 0
1e-08 0 0
1e-08 0 0
1e-08 0 0
1e-08 0 0
1e-08 0 0
0.00336993 -0.00582193 0
1e-08 0 0
1e-08 0 0
1e-08 0 0
1e-08 0 0
1e-08 0 0
0.0025423 -0.00614554 0
1e-08 0 0
1e-08 0 0
1e-08 0 0
1e-08 0 0
1e-08 0 0
1e-08 0 0
1e-08 0 0
1e-08 0 0
1e-08 0 0
1e-08 0 0
-0.00249533 0.00602969 0
1e-08 0 0
1e-08 0 0
1e-08 0 0
1e-08 0 0
1e-08 0 0
1e-08 0 0
1e-08 0 0
1e-08 0 0
1e-08 0 0
1e-08 0 0
1e-08 0 0
1e-08 0 0
1e-08 0 0
1e-08 0 0
0.00167048 -0.00625264 0
1e-08 0 0
1e-08 0 0
1e-08 0 0
1e-08 0 0
1e-08 0 0
1e-08 0 0
1e-08 0 0
1e-08 0 0
1e-08 0 0
-0.00328931 0.00569859 0
1e-08 0 0
1e-08 0 0
1e-08 0 0
1e-08 0 0
1e-08 0 0
1e-08 0 0
1e-08 0 0
1e-08 0 0
1e-08 0 0
1e-08 0 0
1e-08 0 0
1e-08 0 0
1e-08 0 0
1e-08 0 0
1e-08 0 0
0.000833307 -0.00630847 0
1e-08 0 0
1e-08 0 0
1e-08 0 0
1e-08 0 0
1e-08 0 0
1e-08 0 0
1e-08 0 0
1e-08 0 0
1e-08 0 0
1e-08 0 0
-0.00399531 0.00520391 0
1e-08 0 0
1e-08 0 0
1e-08 0 0
1e-08 0 0
1e-08 0 0
1e-08 0 0
1e-08 0 0
1e-08 0 0
1e-08 0 0
1e-08 0 0
1e-08 0 0
1e-08 0 0
3.39049e-06 -0.00668541 0
1e-08 0 0
1e-08 0 0
1e-08 0 0
1e-08 0 0
1e-08 0 0
1e-08 0 0
1e-08 0 0
1e-08 0 0
1e-08 0 0
1e-08 0 0
1e-08 0 0
1e-08 0 0
-0.00449122 0.00449572 0
1e-08 0 0
1e-08 0 0
1e-08 0 0
1e-08 0 0
1e-08 0 0
1e-08 0 0
1e-08 0 0
1e-08 0 0
1e-08 0 0
1e-08 0 0
1e-08 0 0
1e-08 0 0
1e-08 0 0
-0.000846593 -0.0064293 0
1e-08 0 0
1e-08 0 0
1e-08 0 0
1e-08 0 0
1e-08 0 0
1e-08 0 0
1e-08 0 0
1e-08 0 0
-0.00522396 0.00401777 0
1e-08 0 0
1e-08 0 0
1e-08 0 0
1e-08 0 0
1e-08 0 0
1e-08 0 0
1e-08 0 0
1e-08 0 0
1e-08 0 0
1e-08 0 0
1e-08 0 0
-0.00168328 -0.00628996 0
1e-08 0 0
1e-08 0 0
1e-08 0 0
1e-08 0 0
1e-08 0 0
1e-08 0 0
1e-08 0 0
-0.00574163 0.00331743 0
1e-08 0 0
1e-08 0 0
1e-08 0 0
1e-08 0 0
1e-08 0 0
1e-08 0 0
1e-08 0 0
1e-08 0 0
1e-08 0 0
1e-08 0 0
1e-08 0 0
-0.00250584 -0.00605484 0
1e-08 0 0
1e-08 0 0
1e-08 0 0
1e-08 0 0
1e-08 0 0
-0.00604694 0.00250316 0
1e-08 0 0
1e-08 0 0
1e-08 0 0
1e-08 0 0
1e-08 0 0
1e-08 0 0
1e-08 0 0
1e-08 0 0
-0.00337957 -0.00584197 0
1e-08 0 0
1e-08 0 0
1e-08 0 0
1e-08 0 0
-0.00634258 0.00169637 0
1e-08 0 0
1e-08 0 0
1e-08 0 0
1e-08 0 0
1e-08 0 0
1e-08 0 0
-0.00389027 -0.00505744 0
1e-08 0 0
1e-08 0 0
1e-08 0 0
-0.00641242 0.000842242 0
1e-08 0 0
1e-08 0 0
1e-08 0 0
1e-08 0 0
1e-08 0 0
1e-08 0 0
-0.00451873 -0.00452151 0
1e-08 0 0
1e-08 0 0
-0.00673134 -6.41758e-06 0
1e-08 0 0
1e-08 0 0
1e-08 0 0
1e-08 0 0
-0.00530053 -0.00406955 0
1e-08 0 0
-0.00619515 -0.000818914 0
1e-08 0 0
1e-08 0 0
-0.00563656 -0.00325168 0
-0.00637668 -0.00170442 0
-0.0060419 -0.00250089 0
