# vtk DataFile Version 2.0
CellBP Time: 7.6
ASCII
DATASET UNSTRUCTURED_GRID
POINTS 296 double
-8.95498 -3.66816 0
-8.39695 -4.82148 0
-9.34763 -2.44579 0
-9.62218 -1.21435 0
-8.11085 -2.71401 0
-7.67958 -5.88764 0
-6.83049 -6.85201 0
-7.67062 -3.73938 0
-7.11242 -4.7128 0
-5.90297 -7.71942 0
-4.8709 -8.45064 0
-9.72929 0.0385873 0
-9.67146 1.31587 0
-8.43068 -1.62078 0
-8.58303 -0.503204 0
-7.35662 -1.91888 0
-6.98427 -2.78801 0
-6.4548 -5.62656 0
-5.68193 -6.45598 0
-6.55884 -3.74918 0
-6.02142 -4.5352 0
-3.71994 -9.01522 0
-2.49135 -9.41628 0
-4.80833 -7.16308 0
-3.85575 -7.75109 0
-8.60029 0.630678 0
-9.45047 2.594 0
-8.45309 1.72704 0
-9.03976 3.81092 0
-7.53093 -0.885904 0
-7.59606 0.0881678 0
-6.74668 -1.2553 0
-1.21915 -9.6546 0
-6.24834 -2.07119 0
-6.12097 -2.94775 0
-5.37679 -5.33799 0
-4.67461 -5.98036 0
-5.48378 -3.6425 0
-5.10624 -4.43449 0
-2.82092 -8.21251 0
-1.75062 -8.47143 0
-3.85058 -6.5933 0
-3.01371 -7.02954 0
0.0551582 -9.71577 0
-7.523 1.11835 0
-8.19467 2.86622 0
-7.38198 2.05207 0
-8.42819 4.93416 0
-7.7146 3.88255 0
-7.67305 5.97391 0
-6.59135 -0.371205 0
-6.77185 0.548628 0
-5.62524 -0.973997 0
-0.576806 -8.62257 0
0.547514 -8.55706 0
-5.16544 -2.40398 0
-4.35643 -4.96979 0
-3.80338 -5.65041 0
-4.32573 -3.71197 0
-2.02696 -7.4211 0
-1.11799 -7.63049 0
-2.93132 -5.98048 0
-2.27435 -6.49815 0
1.31333 -9.59973 0
-6.52726 1.38406 0
-6.99908 3.03362 0
-6.50222 2.30891 0
-7.1222 4.8547 0
-6.55569 3.89466 0
-6.82944 6.92291 0
-6.41343 5.73855 0
-5.88319 7.77968 0
-4.37412 -1.16034 0
-5.68689 0.495054 0
-4.5783 -0.02367 0
-0.00976815 -7.66146 0
1.6797 -8.4085 0
0.903669 -7.56004 0
-3.96635 -2.35716 0
-3.45659 -1.38033 0
-3.22472 -4.70548 0
-3.21851 -3.20774 0
-1.36386 -6.53716 0
-0.520447 -6.86327 0
-1.9466 -5.4366 0
2.56431 -9.35174 0
-5.38882 1.99487 0
-5.95142 2.98882 0
-5.95736 4.7338 0
-5.62275 3.87865 0
-5.61117 6.53767 0
-5.31536 5.46228 0
-4.85108 8.53028 0
-4.70973 7.1974 0
-3.46514 -0.42067 0
-4.36701 1.22539 0
-3.65693 0.58456 0
-3.98384 2.29444 0
-3.71136 9.09956 0
2.76087 -8.07352 0
0.37508 -6.61609 0
1.9382 -7.30032 0
1.2345 -6.70513 0
-2.42738 -0.863785 0
-2.81512 -2.10774 0
-2.26315 -4.02777 0
-2.3003 -2.92875 0
-0.455703 -5.72665 0
-1.20328 -4.42974 0
3.77732 -8.95736 0
-4.68592 3.31336 0
-4.96497 4.46401 0
-4.52557 6.09826 0
-4.42379 5.20805 0
-3.75727 7.80147 0
-3.71875 6.63982 0
-2.71656 8.20662 0
-1.63648 -0.129183 0
-1.43721 -0.88003 0
-2.47241 0.515713 0
-3.20564 1.43641 0
-3.17796 3.25992 0
-2.86781 2.35942 0
-1.35148 0.637816 0
-2.48939 9.48704 0
3.80123 -7.64144 0
2.84118 -6.91083 0
0.902291 -5.66398 0
1.97842 -6.21306 0
-1.66809 -1.97654 0
-1.41436 -3.23312 0
0.0796312 -4.65223 0
-0.551215 -3.64686 0
4.77996 -7.0884 0
4.92231 -8.39881 0
-3.69018 4.4439 0
-3.64009 5.59351 0
-2.80335 7.08348 0
-2.93166 6.17987 0
-1.62422 8.52468 0
-1.88264 7.42571 0
-2.30022 3.97976 0
-0.722862 -1.31806 0
-0.829932 -0.247534 0
-1.92994 1.69043 0
-2.10316 2.85453 0
-1.29881 3.50784 0
-0.872865 1.36345 0
-0.284487 0.467119 0
-0.522191 8.67838 0
-1.22721 9.72418 0
1.07357 -4.46498 0
3.75906 -6.46242 0
2.87104 -5.88591 0
2.03704 -5.26211 0
4.63729 -5.9864 0
-0.548205 -2.45748 0
0.488894 -3.41118 0
0.0568588 -1.60333 0
1.4419 -3.60173 0
5.70486 -6.41165 0
5.98635 -7.68349 0
-2.41909 5.2233 0
-2.06683 6.3669 0
-0.876422 7.62783 0
-1.22675 6.76315 0
0.0928014 7.71779 0
-1.12576 4.42157 0
0.149446 -0.610105 0
-0.807294 2.49425 0
-0.34498 3.57489 0
0.0551698 1.52062 0
0.732958 0.477577 0
0.639198 8.70489 0
0.0424821 9.83314 0
2.31246 -4.1642 0
3.73322 -5.43972 0
2.9008 -5.04413 0
5.43261 -5.31754 0
4.55371 -5.09391 0
0.63267 -2.28353 0
1.23884 -2.90532 0
0.756994 -1.38612 0
2.11941 -3.07058 0
2.9303 -3.38694 0
6.01912 -4.65897 0
6.4985 -5.61623 0
6.94326 -6.82555 0
-0.987816 5.69506 0
-0.34849 6.72908 0
1.1033 7.62277 0
0.559468 6.93822 0
-0.00194611 4.65668 0
0.589243 3.78627 0
1.32941 -0.638784 0
0.521976 2.63879 0
0.949984 1.57595 0
1.89593 0.211906 0
1.59409 1.06398 0
2.10196 7.45401 0
1.77375 8.55419 0
1.3256 9.76071 0
3.72209 -4.21633 0
4.99182 -4.29592 0
5.72269 -3.81897 0
3.70674 -3.11714 0
1.79844 -1.87644 0
2.96746 -2.52876 0
6.65621 -3.85162 0
7.23641 -4.78608 0
7.80793 -5.89051 0
0.484247 5.7705 0
1.41152 6.62248 0
2.33863 6.5595 0
1.18648 4.49256 0
1.46493 3.3599 0
2.40955 -0.687389 0
2.79821 0.141831 0
1.76805 2.14924 0
2.58624 1.14051 0
3.02844 7.04868 0
2.86203 8.23202 0
2.59443 9.51611 0
4.80609 -3.2295 0
6.00247 -3.02497 0
4.10332 -2.23243 0
3.20217 -1.48581 0
6.62089 -2.27331 0
7.11527 -2.99266 0
7.82712 -3.84902 0
8.54377 -4.86125 0
1.9967 5.50796 0
3.01757 6.03945 0
2.33805 4.06526 0
2.39081 3.02245 0
3.48029 -0.452357 0
3.57523 0.61575 0
2.92435 2.26158 0
3.49218 1.50793 0
3.90956 5.78355 0
3.90263 6.66766 0
3.91731 7.80308 0
3.81967 9.11008 0
5.47866 -1.87965 0
4.44362 -1.11055 0
6.59694 -1.31134 0
7.46448 -1.99615 0
8.24977 -2.81685 0
9.11309 -3.71546 0
3.33242 4.77868 0
3.27249 3.32793 0
4.61998 0.134992 0
4.42897 1.2828 0
3.97311 2.39308 0
4.431 5.03254 0
4.72351 6.05976 0
4.87937 7.23856 0
4.96586 8.54105 0
5.77374 -0.433665 0
6.86582 -0.488844 0
7.61999 -1.06172 0
8.52798 -1.7162 0
9.5162 -2.48794 0
4.42293 3.73603 0
5.67845 1.05493 0
5.218 2.46003 0
5.20515 4.49752 0
5.45136 5.38782 0
5.75463 6.52204 0
5.99615 7.80801 0
6.68341 0.431666 0
7.68422 -0.0288241 0
8.69015 -0.565871 0
9.75724 -1.21653 0
6.77805 1.28994 0
5.53625 3.66604 0
6.3509 2.1127 0
6.17597 2.98157 0
6.08921 4.55135 0
6.50489 5.68881 0
6.937 6.95017 0
7.59655 0.932199 0
8.665 0.560821 0
9.82328 0.0627056 0
7.40592 1.93247 0
6.58727 3.76688 0
7.03823 2.84095 0
7.16431 4.74649 0
7.79625 5.99562 0
8.49886 1.68082 0
9.70443 1.32033 0
8.17267 2.74895 0
7.7558 3.80232 0
8.51167 4.93321 0
9.46228 2.57383 0
9.06969 3.7877 0
CELLS 542 2168
3 2 0 4
3 0 1 7
3 4 0 7
3 1 5 8
3 7 1 8
3 3 2 13
3 13 2 4
3 11 3 14
3 14 3 13
3 13 4 15
3 4 7 16
3 15 4 16
3 5 6 17
3 8 5 17
3 6 9 18
3 17 6 18
3 7 8 19
3 16 7 19
3 8 17 20
3 19 8 20
3 9 10 23
3 18 9 23
3 10 21 24
3 23 10 24
3 12 11 25
3 25 11 14
3 26 12 27
3 27 12 25
3 14 13 29
3 29 13 15
3 25 14 30
3 30 14 29
3 29 15 31
3 15 16 33
3 31 15 33
3 16 19 34
3 33 16 34
3 17 18 35
3 20 17 35
3 18 23 36
3 35 18 36
3 19 20 37
3 34 19 37
3 20 35 38
3 37 20 38
3 21 22 39
3 24 21 39
3 22 32 40
3 39 22 40
3 23 24 41
3 36 23 41
3 24 39 42
3 41 24 42
3 27 25 44
3 44 25 30
3 28 26 45
3 45 26 27
3 45 27 46
3 46 27 44
3 47 28 48
3 48 28 45
3 30 29 50
3 50 29 31
3 44 30 51
3 51 30 50
3 50 31 52
3 31 33 52
3 32 43 53
3 40 32 53
3 53 43 54
3 33 34 55
3 34 37 55
3 33 55 52
3 35 36 56
3 38 35 56
3 36 41 57
3 56 36 57
3 37 38 58
3 38 56 58
3 37 58 55
3 39 40 59
3 42 39 59
3 40 53 60
3 59 40 60
3 41 42 61
3 57 41 61
3 42 59 62
3 61 42 62
3 43 63 54
3 46 44 64
3 64 44 51
3 48 45 65
3 65 45 46
3 65 46 66
3 66 46 64
3 49 47 67
3 67 47 48
3 67 48 68
3 68 48 65
3 69 49 70
3 70 49 67
3 52 55 72
3 64 51 73
3 51 50 73
3 50 52 73
3 73 52 74
3 74 52 72
3 53 54 75
3 60 53 75
3 54 63 76
3 54 76 77
3 75 54 77
3 55 58 78
3 72 55 78
3 72 78 79
3 56 57 80
3 57 61 80
3 56 80 58
3 58 80 81
3 78 58 81
3 59 60 82
3 62 59 82
3 60 75 83
3 82 60 83
3 61 62 84
3 62 82 84
3 61 84 80
3 63 85 76
3 66 64 86
3 64 73 86
3 68 65 87
3 87 65 66
3 87 66 86
3 70 67 88
3 88 67 68
3 88 68 89
3 89 68 87
3 71 69 90
3 90 69 70
3 90 70 91
3 91 70 88
3 92 71 93
3 93 71 90
3 74 72 94
3 94 72 79
3 86 73 95
3 95 73 74
3 95 74 96
3 96 74 94
3 97 86 95
3 76 85 99
3 75 77 100
3 83 75 100
3 76 99 101
3 77 76 101
3 77 101 102
3 100 77 102
3 94 79 103
3 78 81 104
3 79 78 104
3 79 104 103
3 80 84 105
3 81 80 105
3 81 105 106
3 104 81 106
3 82 83 107
3 83 100 107
3 82 107 84
3 84 107 108
3 105 84 108
3 85 109 99
3 89 87 110
3 87 86 110
3 110 86 97
3 91 88 111
3 111 88 89
3 111 89 110
3 93 90 112
3 112 90 91
3 112 91 113
3 113 91 111
3 98 92 114
3 114 92 93
3 114 93 115
3 115 93 112
3 116 98 114
3 117 103 118
3 96 94 119
3 94 103 119
3 119 103 117
3 97 95 120
3 120 95 96
3 120 96 119
3 121 110 97
3 121 97 122
3 122 97 120
3 123 119 117
3 124 98 116
3 99 109 125
3 99 125 126
3 101 99 126
3 100 102 127
3 100 127 107
3 101 126 128
3 102 101 128
3 102 128 127
3 104 106 129
3 104 129 103
3 103 129 118
3 105 108 130
3 106 105 130
3 106 130 129
3 107 127 131
3 108 107 131
3 108 131 132
3 108 132 130
3 109 134 125
3 125 134 133
3 113 111 135
3 111 110 135
3 135 110 121
3 115 112 136
3 136 112 113
3 136 113 135
3 116 114 137
3 137 114 115
3 137 115 138
3 138 115 136
3 139 124 116
3 139 116 140
3 140 116 137
3 141 135 121
3 118 129 142
3 118 142 143
3 117 118 143
3 123 117 143
3 122 120 144
3 120 119 144
3 144 119 123
3 141 121 145
3 145 121 122
3 145 122 144
3 146 141 145
3 147 144 123
3 147 123 148
3 143 148 123
3 150 124 139
3 149 150 139
3 131 127 151
3 125 133 152
3 126 125 152
3 126 152 153
3 128 126 153
3 128 153 154
3 128 154 127
3 127 154 151
3 152 133 155
3 130 132 156
3 130 156 129
3 129 156 142
3 131 151 157
3 132 131 157
3 132 157 156
3 156 158 142
3 157 151 159
3 133 160 155
3 134 161 133
3 133 161 160
3 138 136 162
3 136 135 162
3 162 135 141
3 140 137 163
3 163 137 138
3 163 138 162
3 149 139 164
3 164 139 140
3 164 140 165
3 165 140 163
3 166 149 164
3 167 162 141
3 167 141 146
3 142 158 168
3 143 142 168
3 143 168 148
3 146 145 169
3 145 144 169
3 169 144 147
3 170 167 146
3 170 146 169
3 171 169 147
3 171 147 148
3 171 148 172
3 168 172 148
3 173 149 166
3 174 150 149
3 173 174 149
3 154 175 151
3 151 175 159
3 152 155 176
3 153 152 176
3 153 176 177
3 153 177 154
3 154 177 175
3 155 160 178
3 155 178 179
3 176 155 179
3 156 157 180
3 156 180 158
3 157 159 181
3 157 181 180
3 158 180 182
3 158 182 168
3 159 175 183
3 159 183 181
3 175 184 183
3 160 186 178
3 178 186 185
3 161 187 160
3 160 187 186
3 165 163 188
3 163 162 188
3 188 162 167
3 166 164 189
3 189 164 165
3 189 165 188
3 190 173 166
3 190 166 191
3 191 166 189
3 192 188 167
3 192 167 170
3 193 192 170
3 182 194 168
3 194 172 168
3 193 170 195
3 170 169 195
3 195 169 171
3 196 195 171
3 196 171 172
3 194 197 172
3 197 198 172
3 198 196 172
3 200 173 190
3 199 200 190
3 201 174 173
3 200 201 173
3 176 179 202
3 177 176 202
3 177 202 175
3 175 202 184
3 178 185 203
3 178 203 179
3 179 203 202
3 203 185 204
3 202 205 184
3 183 206 181
3 180 181 206
3 180 206 182
3 182 206 194
3 183 184 207
3 205 207 184
3 183 207 206
3 185 208 204
3 186 209 185
3 185 209 208
3 187 210 186
3 186 210 209
3 191 189 211
3 189 188 211
3 211 188 192
3 199 190 212
3 212 190 191
3 212 191 211
3 213 199 212
3 214 211 192
3 214 192 193
3 215 214 193
3 215 193 195
3 206 216 194
3 216 197 194
3 216 217 197
3 215 195 218
3 218 195 196
3 198 218 196
3 217 219 197
3 219 218 198
3 197 219 198
3 220 199 213
3 221 200 199
3 220 221 199
3 222 201 200
3 221 222 200
3 203 204 223
3 203 223 202
3 202 223 205
3 204 208 224
3 204 224 223
3 205 223 225
3 205 225 207
3 207 225 226
3 207 226 206
3 226 216 206
3 208 228 224
3 224 228 227
3 209 229 208
3 229 228 208
3 210 230 209
3 209 230 229
3 213 212 231
3 212 211 231
3 231 211 214
3 232 220 213
3 232 213 231
3 233 231 214
3 233 214 215
3 234 233 215
3 234 215 218
3 226 235 216
3 235 217 216
3 235 236 217
3 217 236 219
3 237 234 218
3 237 218 219
3 236 238 219
3 238 237 219
3 240 220 232
3 239 240 232
3 241 221 220
3 240 241 220
3 242 222 221
3 241 242 221
3 224 227 243
3 224 243 223
3 223 243 225
3 225 243 244
3 225 244 226
3 226 244 235
3 227 245 243
3 228 246 227
3 227 246 245
3 229 247 228
3 228 247 246
3 230 248 229
3 229 248 247
3 239 232 249
3 232 231 249
3 249 231 233
3 250 249 233
3 250 233 234
3 237 250 234
3 244 251 235
3 235 251 236
3 251 252 236
3 236 252 238
3 252 253 238
3 253 250 237
3 253 237 238
3 254 239 249
3 255 240 239
3 254 255 239
3 256 241 240
3 255 256 240
3 257 242 241
3 256 257 241
3 245 258 243
3 243 258 244
3 244 258 251
3 245 259 258
3 246 260 245
3 245 260 259
3 247 261 246
3 246 261 260
3 248 262 247
3 247 262 261
3 254 249 263
3 263 249 250
3 253 263 250
3 258 264 251
3 251 264 252
3 264 265 252
3 265 263 253
3 252 265 253
3 266 254 263
3 267 255 254
3 266 267 254
3 268 256 255
3 267 268 255
3 269 257 256
3 268 269 256
3 259 270 258
3 270 264 258
3 260 271 259
3 259 271 270
3 261 272 260
3 260 272 271
3 262 273 261
3 273 272 261
3 270 274 264
3 275 266 263
3 275 263 265
3 274 276 264
3 276 265 264
3 276 277 265
3 277 275 265
3 278 267 266
3 275 278 266
3 279 268 267
3 278 279 267
3 280 269 268
3 279 280 268
3 271 281 270
3 270 281 274
3 272 282 271
3 271 282 281
3 273 283 272
3 272 283 282
3 281 284 274
3 274 284 276
3 285 278 275
3 277 285 275
3 284 286 276
3 286 285 277
3 276 286 277
3 287 279 278
3 285 287 278
3 288 280 279
3 287 288 279
3 282 289 281
3 281 289 284
3 283 290 282
3 282 290 289
3 289 291 284
3 284 291 286
3 291 292 286
3 292 287 285
3 286 292 285
3 293 288 287
3 292 293 287
3 290 294 289
3 289 294 291
3 294 295 291
3 295 293 292
3 291 295 292
CELL_TYPES 542
5
5
5
5
5
5
5
5
5
5
5
5
5
5
5
5
5
5
5
5
5
5
5
5
5
5
5
5
5
5
5
5
5
5
5
5
5
5
5
5
5
5
5
5
5
5
5
5
5
5
5
5
5
5
5
5
5
5
5
5
5
5
5
5
5
5
5
5
5
5
5
5
5
5
5
5
5
5
5
5
5
5
5
5
5
5
5
5
5
5
5
5
5
5
5
5
5
5
5
5
5
5
5
5
5
5
5
5
5
5
5
5
5
5
5
5
5
5
5
5
5
5
5
5
5
5
5
5
5
5
5
5
5
5
5
5
5
5
5
5
5
5
5
5
5
5
5
5
5
5
5
5
5
5
5
5
5
5
5
5
5
5
5
5
5
5
5
5
5
5
5
5
5
5
5
5
5
5
5
5
5
5
5
5
5
5
5
5
5
5
5
5
5
5
5
5
5
5
5
5
5
5
5
5
5
5
5
5
5
5
5
5
5
5
5
5
5
5
5
5
5
5
5
5
5
5
5
5
5
5
5
5
5
5
5
5
5
5
5
5
5
5
5
5
5
5
5
5
5
5
5
5
5
5
5
5
5
5
5
5
5
5
5
5
5
5
5
5
5
5
5
5
5
5
5
5
5
5
5
5
5
5
5
5
5
5
5
5
5
5
5
5
5
5
5
5
5
5
5
5
5
5
5
5
5
5
5
5
5
5
5
5
5
5
5
5
5
5
5
5
5
5
5
5
5
5
5
5
5
5
5
5
5
5
5
5
5
5
5
5
5
5
5
5
5
5
5
5
5
5
5
5
5
5
5
5
5
5
5
5
5
5
5
5
5
5
5
5
5
5
5
5
5
5
5
5
5
5
5
5
5
5
5
5
5
5
5
5
5
5
5
5
5
5
5
5
5
5
5
5
5
5
5
5
5
5
5
5
5
5
5
5
5
5
5
5
5
5
5
5
5
5
5
5
5
5
5
5
5
5
5
5
5
5
5
5
5
5
5
5
5
5
5
5
5
5
5
5
5
5
5
5
5
5
5
5
5
5
5
5
5
5
5
5
5
5
5
5
5
5
5
5
5
5
5
5
5
5
5
5
5
5
5
5
5
5
5
5
5
5
5
5
5
5
5
5
5
5
5
5
5
5
5
5
5
5
5
5
5
5
5
5
5
5
5
5
5
5
5
5
5
5
5
5
5
5
5
5
5
5
5
5
5
5
5
5
5
5
5
5
5
5
POINT_DATA 296
SCALARS concentrations float 4
LOOKUP_TABLE default
0 0.955223 0.124767 13.3219
0 0.955248 0.12415 10.4934
0 0.955209 0.125856 10.9313
0 0.955223 0.123694 8.762
0 0.955208 0.0944314 6.00532
0 0.955223 0.125257 12.588
0 0.955175 0.124038 11.3621
0 0.955229 0.0985481 5.92202
0 0.955223 0.0953358 7.43839
0 0.955173 0.127674 16.4233
0 0.9552 0.124638 14.7736
0 0.955207 0.127078 13.3804
0 0.955239 0.125956 13.9862
0 0.955213 0.0927514 7.15722
0 0.955211 0.0923209 7.03474
0 0.955204 0.0933766 7.59138
0 0.955216 0.0945216 7.44625
0 0.955198 0.0941421 7.93554
0 0.955178 0.0933773 7.19721
0 0.955212 0.0957273 7.65533
0 0.9552 0.0949011 7.8785
0 0.955118 0.124941 12.4425
0 0.955103 0.125129 11.2607
0 0.955203 0.0934016 7.35658
0 0.955184 0.0951356 6.65392
0 0.955213 0.0923296 7.00601
0 0.955238 0.126451 11.7925
0 0.955234 0.0923484 7.15362
0 0.955175 0.122971 13.5172
0 0.955206 0.0925649 7.19806
0 0.955209 0.0924018 7.30013
0 0.955198 0.0929007 7.25005
0 0.955217 0.129648 14.4762
0 0.955198 0.0935121 7.13321
0 0.955208 0.0940866 6.09927
0 0.955202 0.0938335 7.59596
0 0.955211 0.0944373 7.49026
0 0.955199 0.0934593 6.7878
0 0.955202 0.0945224 6.81492
0 0.955129 0.093326 7.49142
0 0.955167 0.0934328 7.32174
0 0.955219 0.0948566 7.09897
0 0.955198 0.0942771 7.38799
0 0.955258 0.126684 15.1935
0 0.955211 0.0927364 7.10881
0 0.955206 0.0938122 6.83835
0 0.95521 0.093071 7.00986
0 0.955173 0.124542 13.0593
0 0.955183 0.0928283 7.31137
0 0.955189 0.125186 10.1957
0 0.955205 0.0929456 6.77073
0 0.955211 0.0924847 7.32899
0 0.9552 0.0932804 6.8128
0 0.955228 0.0930663 6.79149
0 0.955232 0.0935792 6.77365
0 0.9552 0.0960497 6.59936
0 0.955215 0.0941934 6.71168
0 0.955239 0.0941805 7.30466
0 0.955198 0.0946592 7.65959
0 0.955189 0.0941641 6.58594
0 0.955199 0.0937415 7.49014
0 0.955238 0.0950207 6.8548
0 0.955217 0.0954758 7.37845
0 0.955251 0.124867 8.29493
0 0.955212 0.0926171 7.11332
0 0.955204 0.0930848 6.97985
0 0.955211 0.093393 7.07378
0 0.955196 0.0932156 7.47414
0 0.955206 0.093257 7.42675
0 0.955212 0.127549 12.5373
0 0.955205 0.0937735 7.31208
0 0.955257 0.124514 10.332
0 0.955212 0.0943658 6.7145
0 0.955208 0.0934262 7.60259
0 0.955214 0.0943601 8.36886
0 0.955201 0.0933811 7.23259
0 0.955232 0.0928144 7.30098
0 0.95521 0.0929208 7.51571
0 0.955211 0.0943441 6.11303
0 0.955216 0.099823 4.73876
0 0.955208 0.1017 9.09421
0 0.95519 0.10095 8.65485
0 0.955212 0.0974699 7.35595
0 0.955204 0.0960465 6.46628
0 0.955219 0.0992216 7.52566
0 0.955238 0.124583 11.0923
0 0.95521 0.0922066 7.07507
0 0.955209 0.0933372 7.10718
0 0.955212 0.0936866 6.63102
0 0.955207 0.0938461 7.00367
0 0.955233 0.0945946 7.12746
0 0.955227 0.0952241 7.6166
0 0.955245 0.125479 12.0719
0 0.955241 0.0944352 7.27403
0 0.955223 0.0957395 6.98579
0 0.955211 0.0933998 7.25011
0 0.955222 0.0942064 7.49919
0 0.955208 0.0975499 6.69708
0 0.955217 0.125536 9.76722
0 0.955232 0.0933073 6.96747
0 0.955206 0.095177 6.22335
0 0.955218 0.0939431 6.87307
0 0.955212 0.0947688 6.90684
0 0.955216 0.0959517 6.77395
0 0.955208 0.0935347 8.08254
0 0.955197 0.0955312 7.01928
0 0.9552 0.0962598 6.83295
0 0.955221 0.0984735 7.11576
0 0.955221 0.0937082 6.55132
0 0.955239 0.124577 8.39159
0 0.955211 0.0933651 7.42899
0 0.955217 0.0958232 6.43461
0 0.95523 0.0942999 6.67838
0 0.955225 0.0947408 6.55238
0 0.955216 0.0991548 7.62008
0 0.955219 0.0949242 6.75774
0 0.955197 0.0944517 7.43857
0 0.955224 0.0954543 8.50256
0 0.955224 0.0938228 7.51085
0 0.955223 0.0955579 7.88625
0 0.955218 0.0939274 7.69807
0 0.95521 0.0941465 6.51367
0 0.955214 0.0943033 7.58887
0 0.955233 0.095176 8.54664
0 0.955205 0.124792 14.7074
0 0.955224 0.0934092 7.88192
0 0.955214 0.0933506 7.702
0 0.955223 0.0931548 7.58995
0 0.955212 0.094628 7.95502
0 0.955216 0.0948298 7.25246
0 0.955216 0.0952478 7.03154
0 0.955232 0.0943715 7.36791
0 0.955226 0.0959748 7.53744
0 0.955201 0.0939142 7.9622
0 0.955202 0.124852 14.8397
0 0.95521 0.0947072 6.65827
0 0.955219 0.0945093 6.60981
0 0.9552 0.0992587 5.20795
0 0.955222 0.0987813 6.13631
0 0.955198 0.0932354 6.71453
0 0.955206 0.0950158 7.24561
0 0.955211 0.09358 7.76954
0 0.955248 0.0942807 7.93001
0 0.955244 0.0938873 6.82504
0 0.955226 0.0966904 7.61653
0 0.955216 0.0945421 7.11538
0 0.955214 0.0988559 8.27347
0 0.955235 0.0949042 6.64478
0 0.955244 0.0951338 7.2879
0 0.955186 0.0937415 7.39095
0 0.955189 0.123715 14.8959
0 0.955227 0.0946398 7.35048
0 0.955214 0.0960192 6.7278
0 0.955209 0.0945115 7.51019
0 0.955223 0.0947974 6.82269
0 0.95522 0.0937668 6.88487
0 0.955234 0.0954753 8.16001
0 0.955233 0.0961948 6.68218
0 0.955251 0.0956839 5.40861
0 0.955242 0.0942852 7.75337
0 0.955201 0.0940634 7.24546
0 0.955183 0.124512 14.653
0 0.955216 0.0938514 7.96842
0 0.955228 0.0957058 7.05124
0 0.955205 0.094377 7.26978
0 0.95523 0.0947347 6.69258
0 0.955205 0.0945596 7.52942
0 0.955214 0.0937306 6.55518
0 0.955257 0.095356 6.50388
0 0.955228 0.0958037 7.84107
0 0.95522 0.0936619 7.32744
0 0.955238 0.0935173 6.7462
0 0.955245 0.0941781 7.55033
0 0.955178 0.0940779 7.7547
0 0.955172 0.126785 11.3066
0 0.95523 0.0951365 7.73227
0 0.955225 0.0946153 6.70673
0 0.955231 0.0952238 8.47917
0 0.955226 0.0943807 7.47689
0 0.955232 0.094259 7.12546
0 0.955225 0.0973129 6.49153
0 0.955233 0.0967902 7.27735
0 0.955243 0.0972804 5.45274
0 0.955233 0.0963256 5.81654
0 0.955223 0.0948203 7.42032
0 0.955236 0.0937702 6.93689
0 0.955218 0.0930735 7.12948
0 0.955194 0.12305 9.19501
0 0.955223 0.0944087 7.96914
0 0.955216 0.094758 7.49567
0 0.95521 0.0946055 7.83457
0 0.955222 0.0955551 6.84425
0 0.955214 0.0942425 6.7018
0 0.955223 0.0939158 7.57534
0 0.955248 0.0958835 6.02501
0 0.955228 0.094506 7.10405
0 0.955233 0.0939417 7.27373
0 0.955231 0.0952656 7.31348
0 0.955229 0.0937225 7.1124
0 0.955224 0.095018 6.89967
0 0.95517 0.0943205 6.70088
0 0.955146 0.125684 17.8226
0 0.955237 0.0950192 7.35838
0 0.955229 0.0938872 7.27292
0 0.955197 0.0943673 7.5864
0 0.955239 0.0948826 7.70704
0 0.955229 0.0958557 6.11731
0 0.955221 0.101425 10.3515
0 0.955231 0.0941154 7.61229
0 0.955245 0.0938229 7.36134
0 0.955219 0.123983 11.3541
0 0.955224 0.0941004 7.4262
0 0.955232 0.095961 8.24287
0 0.955225 0.10178 8.02522
0 0.955225 0.0941395 7.10307
0 0.95523 0.0931816 7.45791
0 0.95523 0.0949702 6.32016
0 0.955222 0.0940502 7.80492
0 0.955231 0.0947706 8.0736
0 0.955217 0.0947714 7.75352
0 0.955224 0.0947961 6.87362
0 0.955191 0.0944672 7.59376
0 0.955153 0.127278 11.9873
0 0.955218 0.100597 9.23383
0 0.955193 0.0961384 6.54626
0 0.955223 0.095303 7.06605
0 0.955222 0.0958199 8.12478
0 0.955195 0.0960905 8.31923
0 0.955229 0.0939819 7.81004
0 0.955271 0.0944004 6.65136
0 0.955268 0.125695 11.2565
0 0.955223 0.0961311 7.5459
0 0.955224 0.0954932 7.14951
0 0.955226 0.0965821 5.8267
0 0.955248 0.0944431 7.00152
0 0.955224 0.0945924 7.48236
0 0.95522 0.0956559 5.97221
0 0.955238 0.0989279 6.31693
0 0.955209 0.101784 5.54067
0 0.955232 0.0947743 6.97329
0 0.955228 0.0947067 6.87978
0 0.95521 0.0938424 7.48745
0 0.955191 0.12623 14.4889
0 0.955208 0.099664 8.43375
0 0.955215 0.097282 7.89603
0 0.955213 0.101353 9.98442
0 0.955206 0.0941883 7.13879
0 0.955231 0.0947573 6.51509
0 0.95527 0.125638 10.692
0 0.955223 0.0948446 7.47737
0 0.955236 0.0967459 8.98404
0 0.955224 0.0968037 7.27662
0 0.955219 0.0949529 7.88348
0 0.955221 0.094966 6.36915
0 0.955222 0.0956458 7.131
0 0.955229 0.0944948 7.25497
0 0.955198 0.0934726 7.29901
0 0.9552 0.124925 14.5823
0 0.955222 0.0939167 7.54932
0 0.955232 0.0985032 5.42327
0 0.955216 0.0941507 7.6171
0 0.955203 0.094902 6.0311
0 0.955195 0.125335 12.6218
0 0.95522 0.0965016 7.5786
0 0.955215 0.0960324 7.57834
0 0.95521 0.0945276 7.28677
0 0.955218 0.0978847 7.66901
0 0.955221 0.0949143 7.22381
0 0.955191 0.0941614 7.10454
0 0.955162 0.126442 14.154
0 0.955214 0.0940969 6.21175
0 0.955217 0.0931283 6.37374
0 0.955205 0.0943391 6.94196
0 0.955193 0.125819 12.9024
0 0.955209 0.0942212 8.32733
0 0.955205 0.094394 7.2935
0 0.95521 0.0939516 7.24264
0 0.955202 0.0944618 7.97301
0 0.95521 0.094668 7.59788
0 0.955211 0.0947349 7.8814
0 0.955192 0.124754 8.25221
0 0.955218 0.0933107 7.98908
0 0.95521 0.0935992 7.60956
0 0.955192 0.124777 13.2964
0 0.95522 0.0936077 7.61438
0 0.955189 0.100604 5.59828
0 0.955207 0.0942329 7.87967
0 0.955201 0.0942234 6.56112
0 0.955211 0.12283 13.46
0 0.955226 0.0932984 7.54457
0 0.955219 0.125813 11.2244
0 0.95525 0.0953112 6.66644
0 0.955225 0.101066 5.22402
0 0.955219 0.123733 16.9481
0 0.955248 0.122277 9.73493
0 0.955278 0.123893 7.74222
VECTORS fa_u float
0.0070484 0.00282057 -0
0.00674905 0.00387827 -0
0.00316467 0.000860481 -0
0.00702721 0.00107954 -0
1e-08 0 0
0.00515962 0.0039804 -0
0.00263674 0.00255733 -0
1e-08 0 0
1e-08 0 0
0.00456164 0.00559164 -0
0.00512689 0.00863723 -0
0.0066926 0.000130345 -0
0.00610367 -0.000665971 0
1e-08 0 0
1e-08 0 0
1e-08 0 0
1e-08 0 0
1e-08 0 0
1e-08 0 0
1e-08 0 0
1e-08 0 0
0.0028718 0.00707675 -0
0.0016213 0.00634128 -0
1e-08 0 0
1e-08 0 0
1e-08 0 0
0.00889487 -0.00225201 0
1e-08 0 0
0.0106438 -0.0046496 0
1e-08 0 0
1e-08 0 0
1e-08 0 0
0.000852417 0.00724794 -0
1e-08 0 0
1e-08 0 0
1e-08 0 0
1e-08 0 0
1e-08 0 0
1e-08 0 0
1e-08 0 0
1e-08 0 0
1e-08 0 0
1e-08 0 0
-0.000166359 0.00767783 -0
1e-08 0 0
1e-08 0 0
1e-08 0 0
0.00551535 -0.00348493 0
1e-08 0 0
0.00295594 -0.00237629 0
1e-08 0 0
1e-08 0 0
1e-08 0 0
1e-08 0 0
1e-08 0 0
1e-08 0 0
1e-08 0 0
1e-08 0 0
1e-08 0 0
1e-08 0 0
1e-08 0 0
1e-08 0 0
1e-08 0 0
-0.000607145 0.0041849 0
1e-08 0 0
1e-08 0 0
1e-08 0 0
1e-08 0 0
1e-08 0 0
0.00326386 -0.00323511 0
1e-08 0 0
0.00282315 -0.00347474 0
1e-08 0 0
1e-08 0 0
1e-08 0 0
1e-08 0 0
1e-08 0 0
1e-08 0 0
1e-08 0 0
1e-08 0 0
1e-08 0 0
1e-08 0 0
1e-08 0 0
1e-08 0 0
1e-08 0 0
-0.00138809 0.00532441 0
1e-08 0 0
1e-08 0 0
1e-08 0 0
1e-08 0 0
1e-08 0 0
1e-08 0 0
0.0055489 -0.00913056 0
1e-08 0 0
1e-08 0 0
1e-08 0 0
1e-08 0 0
1e-08 0 0
0.00356513 -0.00880029 0
1e-08 0 0
1e-08 0 0
1e-08 0 0
1e-08 0 0
1e-08 0 0
1e-08 0 0
1e-08 0 0
1e-08 0 0
1e-08 0 0
1e-08 0 0
-0.00284914 0.00705008 0
1e-08 0 0
1e-08 0 0
1e-08 0 0
1e-08 0 0
1e-08 0 0
1e-08 0 0
1e-08 0 0
1e-08 0 0
1e-08 0 0
1e-08 0 0
1e-08 0 0
1e-08 0 0
1e-08 0 0
1e-08 0 0
0.00139495 -0.00554786 0
1e-08 0 0
1e-08 0 0
1e-08 0 0
1e-08 0 0
1e-08 0 0
1e-08 0 0
1e-08 0 0
1e-08 0 0
1e-08 0 0
-0.00370733 0.00642892 0
1e-08 0 0
1e-08 0 0
1e-08 0 0
1e-08 0 0
1e-08 0 0
1e-08 0 0
1e-08 0 0
1e-08 0 0
1e-08 0 0
1e-08 0 0
1e-08 0 0
1e-08 0 0
1e-08 0 0
1e-08 0 0
1e-08 0 0
0.000529335 -0.00387228 0
1e-08 0 0
1e-08 0 0
1e-08 0 0
1e-08 0 0
1e-08 0 0
1e-08 0 0
1e-08 0 0
1e-08 0 0
1e-08 0 0
1e-08 0 0
-0.00460795 0.00591922 0
1e-08 0 0
1e-08 0 0
1e-08 0 0
1e-08 0 0
1e-08 0 0
1e-08 0 0
1e-08 0 0
1e-08 0 0
1e-08 0 0
1e-08 0 0
1e-08 0 0
1e-08 0 0
0.000112265 -0.00784407 0
1e-08 0 0
1e-08 0 0
1e-08 0 0
1e-08 0 0
1e-08 0 0
1e-08 0 0
1e-08 0 0
1e-08 0 0
1e-08 0 0
1e-08 0 0
1e-08 0 0
1e-08 0 0
-0.00239545 0.00243365 0
1e-08 0 0
1e-08 0 0
1e-08 0 0
1e-08 0 0
1e-08 0 0
1e-08 0 0
1e-08 0 0
1e-08 0 0
1e-08 0 0
1e-08 0 0
1e-08 0 0
1e-08 0 0
1e-08 0 0
-0.000856344 -0.00689318 0
1e-08 0 0
1e-08 0 0
1e-08 0 0
1e-08 0 0
1e-08 0 0
1e-08 0 0
1e-08 0 0
1e-08 0 0
-0.00480468 0.00391484 0
1e-08 0 0
1e-08 0 0
1e-08 0 0
1e-08 0 0
1e-08 0 0
1e-08 0 0
1e-08 0 0
1e-08 0 0
1e-08 0 0
1e-08 0 0
1e-08 0 0
-0.00163468 -0.00626624 0
1e-08 0 0
1e-08 0 0
1e-08 0 0
1e-08 0 0
1e-08 0 0
1e-08 0 0
1e-08 0 0
-0.00852957 0.00511826 0
1e-08 0 0
1e-08 0 0
1e-08 0 0
1e-08 0 0
1e-08 0 0
1e-08 0 0
1e-08 0 0
1e-08 0 0
1e-08 0 0
1e-08 0 0
1e-08 0 0
-0.00292115 -0.00710446 0
1e-08 0 0
1e-08 0 0
1e-08 0 0
1e-08 0 0
1e-08 0 0
-0.00741419 0.00303786 0
1e-08 0 0
1e-08 0 0
1e-08 0 0
1e-08 0 0
1e-08 0 0
1e-08 0 0
1e-08 0 0
1e-08 0 0
-0.00498515 -0.00833298 0
1e-08 0 0
1e-08 0 0
1e-08 0 0
1e-08 0 0
-0.00630007 0.00162397 0
1e-08 0 0
1e-08 0 0
1e-08 0 0
1e-08 0 0
1e-08 0 0
1e-08 0 0
-0.00360609 -0.00446805 0
1e-08 0 0
1e-08 0 0
1e-08 0 0
-0.00708075 0.000852481 0
1e-08 0 0
1e-08 0 0
1e-08 0 0
1e-08 0 0
1e-08 0 0
1e-08 0 0
-0.00269197 -0.00267371 0
1e-08 0 0
1e-08 0 0
-0.00831792 -0.000173155 0
1e-08 0 0
1e-08 0 0
1e-08 0 0
1e-08 0 0
-0.00602088 -0.00470057 0
1e-08 0 0
-0.00362951 -0.000521786 0
1e-08 0 0
1e-08 0 0
-0.00655566 -0.00378103 0
-0.00562737 -0.00144765 0
-0.00715138 -0.00288133 0
