# vtk DataFile Version 2.0
CellBP Time: 4.44
ASCII
DATASET UNSTRUCTURED_GRID
POINTS 296 double
-9.02554 -3.70074 0
-8.46143 -4.86011 0
-9.42626 -2.47345 0
-9.69484 -1.2269 0
-8.18332 -2.74276 0
-7.74116 -5.93273 0
-6.88787 -6.90267 0
-7.74289 -3.77928 0
-7.17785 -4.7595 0
-5.94444 -7.76942 0
-4.89553 -8.49905 0
-9.79593 0.0413877 0
-9.72988 1.32713 0
-8.49818 -1.63973 0
-8.64261 -0.512848 0
-7.42307 -1.94408 0
-7.05358 -2.82219 0
-6.50771 -5.67353 0
-5.72292 -6.49593 0
-6.62492 -3.78916 0
-6.07866 -4.57454 0
-3.73779 -9.0679 0
-2.50575 -9.47447 0
-4.83931 -7.20811 0
-3.87287 -7.79246 0
-8.6588 0.632383 0
-9.49858 2.60687 0
-8.50425 1.74125 0
-9.08486 3.83071 0
-7.59212 -0.897839 0
-7.65413 0.0859999 0
-6.80557 -1.27406 0
-1.2299 -9.71859 0
-6.30566 -2.09554 0
-6.17916 -2.97904 0
-5.42485 -5.37847 0
-4.71154 -6.02043 0
-5.53707 -3.67655 0
-5.15359 -4.47075 0
-2.83505 -8.25921 0
-1.75864 -8.52107 0
-3.87358 -6.63331 0
-3.02564 -7.06507 0
0.0537537 -9.78703 0
-7.57718 1.12495 0
-8.23802 2.88056 0
-7.43193 2.07054 0
-8.48244 4.96891 0
-7.76334 3.91273 0
-7.73555 6.02256 0
-6.64677 -0.378759 0
-6.82591 0.547958 0
-5.66808 -0.983405 0
-0.583574 -8.6807 0
0.551208 -8.62264 0
-5.20408 -2.42754 0
-4.39794 -5.00521 0
-3.83301 -5.68866 0
-4.35844 -3.73974 0
-2.03817 -7.46509 0
-1.12234 -7.67606 0
-2.94893 -6.0158 0
-2.28333 -6.53431 0
1.32583 -9.67958 0
-6.57622 1.39509 0
-7.04857 3.05743 0
-6.54939 2.32693 0
-7.17287 4.89585 0
-6.60455 3.92581 0
-6.88637 6.98179 0
-6.45945 5.78496 0
-5.92904 7.84034 0
-4.39784 -1.16679 0
-5.72516 0.499467 0
-4.60093 -0.0202319 0
-0.00544348 -7.71896 0
1.69587 -8.47697 0
0.916595 -7.61982 0
-3.9866 -2.37148 0
-3.46526 -1.38363 0
-3.24599 -4.73459 0
-3.2336 -3.22673 0
-1.36839 -6.57823 0
-0.516844 -6.9102 0
-1.95553 -5.4653 0
2.58633 -9.42969 0
-5.42349 2.00548 0
-5.99346 3.01274 0
-6.0001 4.77316 0
-5.66322 3.91071 0
-5.65476 6.59078 0
-5.35503 5.50747 0
-4.88092 8.58468 0
-4.74805 7.25678 0
-3.47449 -0.420797 0
-4.39229 1.2321 0
-3.67366 0.587175 0
-4.00723 2.30196 0
-3.73107 9.15669 0
2.79068 -8.14946 0
0.389238 -6.6691 0
1.96325 -7.36446 0
1.25569 -6.76286 0
-2.4331 -0.866747 0
-2.8222 -2.11518 0
-2.27423 -4.0498 0
-2.30916 -2.94421 0
-0.451886 -5.76671 0
-1.20926 -4.44972 0
3.80698 -9.02714 0
-4.71657 3.33708 0
-5.00063 4.50081 0
-4.56101 6.15005 0
-4.45747 5.25134 0
-3.78267 7.85687 0
-3.75105 6.69917 0
-2.73551 8.26861 0
-1.64053 -0.130997 0
-1.44157 -0.883118 0
-2.47673 0.513893 0
-3.22041 1.43876 0
-3.19753 3.27737 0
-2.88004 2.3639 0
-1.35183 0.634974 0
-2.50386 9.55389 0
3.84078 -7.71338 0
2.87802 -6.98315 0
0.916913 -5.70921 0
2.00608 -6.27083 0
-1.67209 -1.98209 0
-1.4204 -3.2485 0
0.0817346 -4.67989 0
-0.555882 -3.66088 0
4.82501 -7.15528 0
4.96052 -8.463 0
-3.71665 4.47448 0
-3.66813 5.64005 0
-2.82843 7.14272 0
-2.95496 6.22983 0
-1.63688 8.58691 0
-1.89909 7.48213 0
-2.31077 4.00095 0
-0.724708 -1.32092 0
-0.833005 -0.251182 0
-1.93184 1.6877 0
-2.10979 2.86059 0
-1.30126 3.51847 0
-0.871753 1.35987 0
-0.283308 0.463706 0
-0.527905 8.73633 0
-1.23543 9.79593 0
1.0856 -4.497 0
3.80312 -6.53724 0
2.9057 -5.94673 0
2.06117 -5.31029 0
4.67987 -6.05005 0
-0.551046 -2.46318 0
0.489914 -3.42729 0
0.055231 -1.6059 0
1.45386 -3.62636 0
5.75313 -6.47099 0
6.03162 -7.74387 0
-2.43547 5.25972 0
-2.08424 6.41452 0
-0.884468 7.6805 0
-1.23865 6.8117 0
0.0912828 7.7689 0
-1.13035 4.44198 0
0.15095 -0.612396 0
-0.802724 2.49331 0
-0.341424 3.58266 0
0.0576377 1.51608 0
0.735916 0.476801 0
0.640891 8.75719 0
0.0448936 9.89823 0
2.33361 -4.19984 0
3.76998 -5.49873 0
2.93068 -5.09376 0
5.47532 -5.36939 0
4.59537 -5.14775 0
0.631577 -2.2878 0
1.24344 -2.91996 0
0.75721 -1.38808 0
2.1327 -3.09038 0
2.94804 -3.41403 0
6.05831 -4.69696 0
6.54684 -5.65998 0
6.99642 -6.88425 0
-0.997579 5.73184 0
-0.354851 6.77442 0
1.10944 7.66728 0
0.560665 6.97876 0
-0.000979466 4.67669 0
0.594603 3.79733 0
1.33304 -0.640894 0
0.527613 2.64155 0
0.954912 1.57408 0
1.90027 0.211908 0
1.60117 1.06467 0
2.11031 7.49174 0
1.78001 8.60129 0
1.33485 9.82213 0
3.75233 -4.25487 0
5.02772 -4.34046 0
5.75722 -3.85262 0
3.72943 -3.14354 0
1.80221 -1.87913 0
2.98221 -2.54151 0
6.69469 -3.88135 0
7.27837 -4.81995 0
7.86038 -5.93483 0
0.485354 5.80325 0
1.41702 6.65659 0
2.35114 6.59008 0
1.1938 4.51119 0
1.47236 3.37166 0
2.41821 -0.687889 0
2.80785 0.143087 0
1.77397 2.15367 0
2.59592 1.14296 0
3.04165 7.08483 0
2.87331 8.27624 0
2.60812 9.5745 0
4.83756 -3.25732 0
6.03753 -3.05045 0
4.12327 -2.24494 0
3.21359 -1.49062 0
6.65397 -2.28576 0
7.14938 -3.00551 0
7.86832 -3.86827 0
8.59386 -4.88815 0
2.0056 5.53478 0
3.03881 6.07312 0
2.34584 4.08302 0
2.39877 3.03433 0
3.49422 -0.456601 0
3.58579 0.61452 0
2.9354 2.26949 0
3.50951 1.51327 0
3.94032 5.81709 0
3.9277 6.70391 0
3.93532 7.84341 0
3.83755 9.164 0
5.50449 -1.89028 0
4.46278 -1.11733 0
6.63148 -1.31797 0
7.50201 -2.00806 0
8.29498 -2.82924 0
9.16575 -3.73373 0
3.35951 4.80907 0
3.29288 3.34405 0
4.64122 0.133553 0
4.45575 1.2908 0
3.99963 2.40839 0
4.4727 5.06776 0
4.75942 6.09972 0
4.90887 7.28271 0
4.9923 8.59262 0
5.80633 -0.433441 0
6.90918 -0.488032 0
7.66098 -1.06636 0
8.57549 -1.72614 0
9.57438 -2.50271 0
4.46275 3.76396 0
5.71965 1.06803 0
5.26285 2.48399 0
5.25621 4.53402 0
5.49758 5.42969 0
5.7972 6.56762 0
6.0391 7.86074 0
6.73165 0.441075 0
7.73402 -0.0276392 0
8.74396 -0.572339 0
9.81949 -1.22757 0
6.83175 1.30751 0
5.59056 3.6996 0
6.40801 2.13836 0
6.23601 3.01382 0
6.14855 4.59157 0
6.56104 5.7323 0
6.99277 7.00182 0
7.65545 0.941263 0
8.72543 0.562087 0
9.89134 0.0595727 0
7.468 1.95422 0
6.65932 3.80813 0
7.10797 2.87247 0
7.2287 4.78843 0
7.85323 6.03902 0
8.56547 1.69282 0
9.78223 1.3314 0
8.24804 2.77311 0
7.82263 3.83458 0
8.57222 4.96882 0
9.53661 2.59366 0
9.136 3.81494 0
CELLS 542 2168
3 2 0 4
3 0 1 7
3 4 0 7
3 1 5 8
3 7 1 8
3 3 2 13
3 13 2 4
3 11 3 14
3 14 3 13
3 13 4 15
3 4 7 16
3 15 4 16
3 5 6 17
3 8 5 17
3 6 9 18
3 17 6 18
3 7 8 19
3 16 7 19
3 8 17 20
3 19 8 20
3 9 10 23
3 18 9 23
3 10 21 24
3 23 10 24
3 12 11 25
3 25 11 14
3 26 12 27
3 27 12 25
3 14 13 29
3 29 13 15
3 25 14 30
3 30 14 29
3 29 15 31
3 15 16 33
3 31 15 33
3 16 19 34
3 33 16 34
3 17 18 35
3 20 17 35
3 18 23 36
3 35 18 36
3 19 20 37
3 34 19 37
3 20 35 38
3 37 20 38
3 21 22 39
3 24 21 39
3 22 32 40
3 39 22 40
3 23 24 41
3 36 23 41
3 24 39 42
3 41 24 42
3 27 25 44
3 44 25 30
3 28 26 45
3 45 26 27
3 45 27 46
3 46 27 44
3 47 28 48
3 48 28 45
3 30 29 50
3 50 29 31
3 44 30 51
3 51 30 50
3 50 31 52
3 31 33 52
3 32 43 53
3 40 32 53
3 53 43 54
3 33 34 55
3 34 37 55
3 33 55 52
3 35 36 56
3 38 35 56
3 36 41 57
3 56 36 57
3 37 38 58
3 38 56 58
3 37 58 55
3 39 40 59
3 42 39 59
3 40 53 60
3 59 40 60
3 41 42 61
3 57 41 61
3 42 59 62
3 61 42 62
3 43 63 54
3 46 44 64
3 64 44 51
3 48 45 65
3 65 45 46
3 65 46 66
3 66 46 64
3 49 47 67
3 67 47 48
3 67 48 68
3 68 48 65
3 69 49 70
3 70 49 67
3 52 55 72
3 64 51 73
3 51 50 73
3 50 52 73
3 73 52 74
3 74 52 72
3 53 54 75
3 60 53 75
3 54 63 76
3 54 76 77
3 75 54 77
3 55 58 78
3 72 55 78
3 72 78 79
3 56 57 80
3 57 61 80
3 56 80 58
3 58 80 81
3 78 58 81
3 59 60 82
3 62 59 82
3 60 75 83
3 82 60 83
3 61 62 84
3 62 82 84
3 61 84 80
3 63 85 76
3 66 64 86
3 64 73 86
3 68 65 87
3 87 65 66
3 87 66 86
3 70 67 88
3 88 67 68
3 88 68 89
3 89 68 87
3 71 69 90
3 90 69 70
3 90 70 91
3 91 70 88
3 92 71 93
3 93 71 90
3 74 72 94
3 94 72 79
3 86 73 95
3 95 73 74
3 95 74 96
3 96 74 94
3 97 86 95
3 76 85 99
3 75 77 100
3 83 75 100
3 76 99 101
3 77 76 101
3 77 101 102
3 100 77 102
3 94 79 103
3 78 81 104
3 79 78 104
3 79 104 103
3 80 84 105
3 81 80 105
3 81 105 106
3 104 81 106
3 82 83 107
3 83 100 107
3 82 107 84
3 84 107 108
3 105 84 108
3 85 109 99
3 89 87 110
3 87 86 110
3 110 86 97
3 91 88 111
3 111 88 89
3 111 89 110
3 93 90 112
3 112 90 91
3 112 91 113
3 113 91 111
3 98 92 114
3 114 92 93
3 114 93 115
3 115 93 112
3 116 98 114
3 117 103 118
3 96 94 119
3 94 103 119
3 119 103 117
3 97 95 120
3 120 95 96
3 120 96 119
3 121 110 97
3 121 97 122
3 122 97 120
3 123 119 117
3 124 98 116
3 99 109 125
3 99 125 126
3 101 99 126
3 100 102 127
3 100 127 107
3 101 126 128
3 102 101 128
3 102 128 127
3 104 106 129
3 104 129 103
3 103 129 118
3 105 108 130
3 106 105 130
3 106 130 129
3 107 127 131
3 108 107 131
3 108 131 132
3 108 132 130
3 109 134 125
3 125 134 133
3 113 111 135
3 111 110 135
3 135 110 121
3 115 112 136
3 136 112 113
3 136 113 135
3 116 114 137
3 137 114 115
3 137 115 138
3 138 115 136
3 139 124 116
3 139 116 140
3 140 116 137
3 141 135 121
3 118 129 142
3 118 142 143
3 117 118 143
3 123 117 143
3 122 120 144
3 120 119 144
3 144 119 123
3 141 121 145
3 145 121 122
3 145 122 144
3 146 141 145
3 147 144 123
3 147 123 148
3 143 148 123
3 150 124 139
3 149 150 139
3 131 127 151
3 125 133 152
3 126 125 152
3 126 152 153
3 128 126 153
3 128 153 154
3 128 154 127
3 127 154 151
3 152 133 155
3 130 132 156
3 130 156 129
3 129 156 142
3 131 151 157
3 132 131 157
3 132 157 156
3 156 158 142
3 157 151 159
3 133 160 155
3 134 161 133
3 133 161 160
3 138 136 162
3 136 135 162
3 162 135 141
3 140 137 163
3 163 137 138
3 163 138 162
3 149 139 164
3 164 139 140
3 164 140 165
3 165 140 163
3 166 149 164
3 167 162 141
3 167 141 146
3 142 158 168
3 143 142 168
3 143 168 148
3 146 145 169
3 145 144 169
3 169 144 147
3 170 167 146
3 170 146 169
3 171 169 147
3 171 147 148
3 171 148 172
3 168 172 148
3 173 149 166
3 174 150 149
3 173 174 149
3 154 175 151
3 151 175 159
3 152 155 176
3 153 152 176
3 153 176 177
3 153 177 154
3 154 177 175
3 155 160 178
3 155 178 179
3 176 155 179
3 156 157 180
3 156 180 158
3 157 159 181
3 157 181 180
3 158 180 182
3 158 182 168
3 159 175 183
3 159 183 181
3 175 184 183
3 160 186 178
3 178 186 185
3 161 187 160
3 160 187 186
3 165 163 188
3 163 162 188
3 188 162 167
3 166 164 189
3 189 164 165
3 189 165 188
3 190 173 166
3 190 166 191
3 191 166 189
3 192 188 167
3 192 167 170
3 193 192 170
3 182 194 168
3 194 172 168
3 193 170 195
3 170 169 195
3 195 169 171
3 196 195 171
3 196 171 172
3 194 197 172
3 197 198 172
3 198 196 172
3 200 173 190
3 199 200 190
3 201 174 173
3 200 201 173
3 176 179 202
3 177 176 202
3 177 202 175
3 175 202 184
3 178 185 203
3 178 203 179
3 179 203 202
3 203 185 204
3 202 205 184
3 183 206 181
3 180 181 206
3 180 206 182
3 182 206 194
3 183 184 207
3 205 207 184
3 183 207 206
3 185 208 204
3 186 209 185
3 185 209 208
3 187 210 186
3 186 210 209
3 191 189 211
3 189 188 211
3 211 188 192
3 199 190 212
3 212 190 191
3 212 191 211
3 213 199 212
3 214 211 192
3 214 192 193
3 215 214 193
3 215 193 195
3 206 216 194
3 216 197 194
3 216 217 197
3 215 195 218
3 218 195 196
3 198 218 196
3 217 219 197
3 219 218 198
3 197 219 198
3 220 199 213
3 221 200 199
3 220 221 199
3 222 201 200
3 221 222 200
3 203 204 223
3 203 223 202
3 202 223 205
3 204 208 224
3 204 224 223
3 205 223 225
3 205 225 207
3 207 225 226
3 207 226 206
3 226 216 206
3 208 228 224
3 224 228 227
3 209 229 208
3 229 228 208
3 210 230 209
3 209 230 229
3 213 212 231
3 212 211 231
3 231 211 214
3 232 220 213
3 232 213 231
3 233 231 214
3 233 214 215
3 234 233 215
3 234 215 218
3 226 235 216
3 235 217 216
3 235 236 217
3 217 236 219
3 237 234 218
3 237 218 219
3 236 238 219
3 238 237 219
3 240 220 232
3 239 240 232
3 241 221 220
3 240 241 220
3 242 222 221
3 241 242 221
3 224 227 243
3 224 243 223
3 223 243 225
3 225 243 244
3 225 244 226
3 226 244 235
3 227 245 243
3 228 246 227
3 227 246 245
3 229 247 228
3 228 247 246
3 230 248 229
3 229 248 247
3 239 232 249
3 232 231 249
3 249 231 233
3 250 249 233
3 250 233 234
3 237 250 234
3 244 251 235
3 235 251 236
3 251 252 236
3 236 252 238
3 252 253 238
3 253 250 237
3 253 237 238
3 254 239 249
3 255 240 239
3 254 255 239
3 256 241 240
3 255 256 240
3 257 242 241
3 256 257 241
3 245 258 243
3 243 258 244
3 244 258 251
3 245 259 258
3 246 260 245
3 245 260 259
3 247 261 246
3 246 261 260
3 248 262 247
3 247 262 261
3 254 249 263
3 263 249 250
3 253 263 250
3 258 264 251
3 251 264 252
3 264 265 252
3 265 263 253
3 252 265 253
3 266 254 263
3 267 255 254
3 266 267 254
3 268 256 255
3 267 268 255
3 269 257 256
3 268 269 256
3 259 270 258
3 270 264 258
3 260 271 259
3 259 271 270
3 261 272 260
3 260 272 271
3 262 273 261
3 273 272 261
3 270 274 264
3 275 266 263
3 275 263 265
3 274 276 264
3 276 265 264
3 276 277 265
3 277 275 265
3 278 267 266
3 275 278 266
3 279 268 267
3 278 279 267
3 280 269 268
3 279 280 268
3 271 281 270
3 270 281 274
3 272 282 271
3 271 282 281
3 273 283 272
3 272 283 282
3 281 284 274
3 274 284 276
3 285 278 275
3 277 285 275
3 284 286 276
3 286 285 277
3 276 286 277
3 287 279 278
3 285 287 278
3 288 280 279
3 287 288 279
3 282 289 281
3 281 289 284
3 283 290 282
3 282 290 289
3 289 291 284
3 284 291 286
3 291 292 286
3 292 287 285
3 286 292 285
3 293 288 287
3 292 293 287
3 290 294 289
3 289 294 291
3 294 295 291
3 295 293 292
3 291 295 292
CELL_TYPES 542
5
5
5
5
5
5
5
5
5
5
5
5
5
5
5
5
5
5
5
5
5
5
5
5
5
5
5
5
5
5
5
5
5
5
5
5
5
5
5
5
5
5
5
5
5
5
5
5
5
5
5
5
5
5
5
5
5
5
5
5
5
5
5
5
5
5
5
5
5
5
5
5
5
5
5
5
5
5
5
5
5
5
5
5
5
5
5
5
5
5
5
5
5
5
5
5
5
5
5
5
5
5
5
5
5
5
5
5
5
5
5
5
5
5
5
5
5
5
5
5
5
5
5
5
5
5
5
5
5
5
5
5
5
5
5
5
5
5
5
5
5
5
5
5
5
5
5
5
5
5
5
5
5
5
5
5
5
5
5
5
5
5
5
5
5
5
5
5
5
5
5
5
5
5
5
5
5
5
5
5
5
5
5
5
5
5
5
5
5
5
5
5
5
5
5
5
5
5
5
5
5
5
5
5
5
5
5
5
5
5
5
5
5
5
5
5
5
5
5
5
5
5
5
5
5
5
5
5
5
5
5
5
5
5
5
5
5
5
5
5
5
5
5
5
5
5
5
5
5
5
5
5
5
5
5
5
5
5
5
5
5
5
5
5
5
5
5
5
5
5
5
5
5
5
5
5
5
5
5
5
5
5
5
5
5
5
5
5
5
5
5
5
5
5
5
5
5
5
5
5
5
5
5
5
5
5
5
5
5
5
5
5
5
5
5
5
5
5
5
5
5
5
5
5
5
5
5
5
5
5
5
5
5
5
5
5
5
5
5
5
5
5
5
5
5
5
5
5
5
5
5
5
5
5
5
5
5
5
5
5
5
5
5
5
5
5
5
5
5
5
5
5
5
5
5
5
5
5
5
5
5
5
5
5
5
5
5
5
5
5
5
5
5
5
5
5
5
5
5
5
5
5
5
5
5
5
5
5
5
5
5
5
5
5
5
5
5
5
5
5
5
5
5
5
5
5
5
5
5
5
5
5
5
5
5
5
5
5
5
5
5
5
5
5
5
5
5
5
5
5
5
5
5
5
5
5
5
5
5
5
5
5
5
5
5
5
5
5
5
5
5
5
5
5
5
5
5
5
5
5
5
5
5
5
5
5
5
5
5
5
5
5
5
5
5
5
5
5
5
5
5
5
5
5
5
5
5
5
5
5
5
5
5
5
5
5
5
5
5
5
5
5
5
5
5
5
5
5
5
5
5
5
5
5
5
5
5
5
5
5
5
5
POINT_DATA 296
SCALARS concentrations float 4
LOOKUP_TABLE default
0 0.968489 0.161579 20.3348
0 0.968558 0.161502 20.625
0 0.968479 0.164767 19.6741
0 0.968499 0.162652 19.5313
0 0.968506 0.0946415 8.05265
0 0.968603 0.162469 17.5369
0 0.968591 0.161869 19.0146
0 0.968536 0.0960607 7.72
0 0.968582 0.0963321 7.65744
0 0.968624 0.15737 9.16344
0 0.968625 0.162213 15.4501
0 0.96853 0.159626 17.8686
0 0.968572 0.156196 16.5457
0 0.968522 0.0936393 7.99381
0 0.968549 0.0939747 8.12763
0 0.96856 0.0945782 8.15017
0 0.96856 0.095835 7.40806
0 0.968593 0.094682 7.63396
0 0.968601 0.0926306 6.70758
0 0.968575 0.0958382 8.16752
0 0.968582 0.0949769 7.53329
0 0.968507 0.162999 15.5383
0 0.968515 0.157687 26.793
0 0.968631 0.0934233 6.08563
0 0.968582 0.0934235 5.94931
0 0.968586 0.0946178 5.93924
0 0.968611 0.158822 17.7585
0 0.968622 0.0946946 8.3145
0 0.968616 0.156126 13.1756
0 0.968582 0.0942929 8.14977
0 0.968612 0.0948642 8.22002
0 0.96858 0.0945424 8.09987
0 0.968714 0.157165 9.08177
0 0.968569 0.0936672 7.15404
0 0.968579 0.0942635 6.40931
0 0.968594 0.0942373 8.25517
0 0.968604 0.0934531 8.26313
0 0.968579 0.0941733 7.03086
0 0.968587 0.0939131 7.98039
0 0.968515 0.0933473 6.18183
0 0.968594 0.0936167 7.53129
0 0.968603 0.093475 6.0081
0 0.968577 0.0939546 5.67904
0 0.968789 0.15857 12.1288
0 0.968639 0.0949584 6.30696
0 0.968661 0.0945227 8.38026
0 0.968684 0.095445 6.01106
0 0.968521 0.156944 17.4078
0 0.968611 0.0943262 5.98719
0 0.968548 0.157326 15.9067
0 0.968591 0.0949033 8.14588
0 0.968611 0.0964037 8.66927
0 0.968575 0.0940417 7.10041
0 0.968709 0.0937469 6.01825
0 0.968674 0.09313 6.82041
0 0.968571 0.0953368 7.29003
0 0.968586 0.0933266 8.13697
0 0.968592 0.093508 8.34665
0 0.968577 0.0936091 6.82237
0 0.968567 0.0940677 7.06859
0 0.968584 0.0940246 8.24225
0 0.968585 0.0946457 6.49939
0 0.968577 0.0946523 6.49364
0 0.968673 0.158385 15.3292
0 0.968614 0.0950183 5.99722
0 0.968679 0.101627 4.71697
0 0.96864 0.102357 5.12887
0 0.968569 0.0937179 6.28885
0 0.968628 0.0952448 8.17761
0 0.968608 0.156312 13.8341
0 0.968619 0.0935205 6.61419
0 0.968558 0.153941 18.2627
0 0.968576 0.0948326 7.97729
0 0.968585 0.0942062 6.64944
0 0.968579 0.0952852 5.96163
0 0.968593 0.093571 8.29357
0 0.968639 0.0931389 6.96161
0 0.968586 0.0939818 7.15952
0 0.968585 0.0951514 6.56615
0 0.968584 0.0963413 6.84345
0 0.968583 0.0936814 5.93488
0 0.96859 0.0943964 5.9784
0 0.968576 0.0945888 7.29318
0 0.968572 0.0942359 6.82075
0 0.968584 0.0943863 5.56769
0 0.968707 0.156269 9.96663
0 0.968584 0.0947057 7.60473
0 0.968604 0.0957146 7.66982
0 0.968629 0.0940173 7.28403
0 0.968604 0.0948534 7.73993
0 0.968603 0.0932403 6.80443
0 0.968631 0.0934921 6.63559
0 0.968658 0.154466 12.3846
0 0.968609 0.0941028 7.1826
0 0.968578 0.0979605 8.04778
0 0.968585 0.0939986 6.8955
0 0.968589 0.0949679 7.81719
0 0.968589 0.0945699 6.72163
0 0.968672 0.158734 15.7216
0 0.968673 0.0937821 7.9789
0 0.968572 0.0943118 7.34411
0 0.968592 0.0939751 7.06969
0 0.96857 0.0940278 8.43656
0 0.968577 0.0973259 7.7688
0 0.96859 0.0960007 8.14515
0 0.968594 0.0936657 6.27439
0 0.968601 0.0946095 5.82068
0 0.968583 0.09361 8.76882
0 0.968593 0.0944462 6.04776
0 0.968711 0.158378 14.892
0 0.968588 0.0939433 6.31314
0 0.968606 0.0940136 7.35803
0 0.968626 0.0941633 7.30229
0 0.968614 0.0943034 6.42553
0 0.968651 0.0943988 7.17372
0 0.968616 0.0999298 7.62237
0 0.968638 0.0944565 7.34915
0 0.968595 0.0951997 7.19887
0 0.968601 0.0953688 6.88484
0 0.968597 0.0989189 5.20567
0 0.968604 0.0938346 7.30134
0 0.968591 0.0940899 6.74983
0 0.968597 0.0950155 8.04923
0 0.968617 0.0944195 6.87173
0 0.968678 0.155747 15.119
0 0.968667 0.0943543 7.61838
0 0.968601 0.0943457 7.88836
0 0.968578 0.0937975 7.91169
0 0.968578 0.0940615 8.51398
0 0.968597 0.0936392 7.28665
0 0.968603 0.0943759 5.67545
0 0.968586 0.0936473 7.53273
0 0.968594 0.0932565 6.76121
0 0.968638 0.0941402 8.42661
0 0.968687 0.155661 11.5773
0 0.968594 0.0941697 6.80112
0 0.968605 0.0949516 6.79697
0 0.968603 0.0969871 6.74605
0 0.968605 0.0943067 7.13941
0 0.968623 0.0936505 7.26488
0 0.968583 0.0935557 6.63546
0 0.968596 0.0943688 8.20694
0 0.968613 0.095546 8.34475
0 0.968621 0.0943214 6.35635
0 0.968613 0.098624 5.50526
0 0.968604 0.0949921 7.03851
0 0.968612 0.0949467 8.5858
0 0.968619 0.0984485 7.2982
0 0.968637 0.0963286 6.56323
0 0.968615 0.0931063 6.62853
0 0.968642 0.158501 19.4042
0 0.968576 0.0939214 5.61527
0 0.968601 0.0948814 7.39546
0 0.968574 0.093865 7.60456
0 0.968574 0.0940855 8.76912
0 0.96861 0.0940004 7.65499
0 0.968598 0.0937153 7.62559
0 0.968588 0.0937641 6.07826
0 0.968605 0.0947892 8.71887
0 0.96858 0.0945794 5.85183
0 0.968641 0.0936759 8.15932
0 0.968636 0.15304 17.5322
0 0.968596 0.0933174 7.51774
0 0.968594 0.0948909 7.13308
0 0.968575 0.0940414 6.59902
0 0.968585 0.094735 6.84239
0 0.968581 0.094976 6.56985
0 0.968603 0.0938418 7.74369
0 0.968625 0.0958158 9.13413
0 0.968617 0.101249 5.78515
0 0.968622 0.0961214 6.28818
0 0.968634 0.0972426 9.91997
0 0.968645 0.0959817 5.69185
0 0.968653 0.0934487 7.93811
0 0.968681 0.156137 18.4756
0 0.968569 0.0940397 8.03344
0 0.968574 0.0941418 7.24379
0 0.968565 0.0936792 7.82462
0 0.968621 0.0940163 7.22503
0 0.968588 0.0940536 7.02844
0 0.968592 0.0970782 8.30314
0 0.968594 0.0936899 6.51449
0 0.968601 0.0966135 8.53147
0 0.968582 0.0948807 5.8838
0 0.968565 0.0935495 7.36627
0 0.96863 0.0941343 6.99523
0 0.968622 0.0939069 7.89447
0 0.968654 0.155004 14.5765
0 0.968598 0.0948978 7.61278
0 0.968595 0.0941175 6.4744
0 0.968591 0.0939312 5.9528
0 0.96859 0.0958352 8.2276
0 0.968611 0.0954697 8.23526
0 0.968629 0.0960355 9.45003
0 0.968615 0.0949911 7.62175
0 0.968634 0.0961357 7.00017
0 0.968662 0.0986856 7.73296
0 0.968631 0.09757 4.61743
0 0.968668 0.0967514 5.01563
0 0.968597 0.0958048 7.49577
0 0.96865 0.0950717 7.05244
0 0.9687 0.159382 14.3558
0 0.96857 0.0945311 6.73771
0 0.9686 0.0948436 6.88064
0 0.968629 0.0963275 7.62332
0 0.968562 0.0937579 7.60396
0 0.9686 0.0977928 5.79068
0 0.968579 0.0958888 6.21312
0 0.968636 0.0956575 7.8358
0 0.968576 0.0944518 7.4228
0 0.968547 0.154739 16.6372
0 0.968602 0.0940474 8.54426
0 0.968585 0.095945 6.00227
0 0.968573 0.0944049 5.89391
0 0.968612 0.0963264 5.80871
0 0.968618 0.0961981 5.92726
0 0.968608 0.0952422 6.16091
0 0.968614 0.0971137 10.556
0 0.968636 0.096901 8.93497
0 0.968622 0.0973608 9.04352
0 0.968613 0.0948854 6.48398
0 0.968658 0.0946696 7.6075
0 0.96868 0.158874 8.35767
0 0.96859 0.0956484 8.28849
0 0.968612 0.0968831 8.7932
0 0.968583 0.0969081 7.9464
0 0.968595 0.0958142 6.05472
0 0.96859 0.0985172 7.93932
0 0.968639 0.0982252 9.81909
0 0.968572 0.0953373 6.83999
0 0.96852 0.154689 11.5462
0 0.96859 0.0953103 9.30711
0 0.96859 0.0951461 6.06713
0 0.968594 0.0956057 6.91364
0 0.968598 0.0964347 6.9472
0 0.968607 0.0958652 6.16936
0 0.968597 0.0968515 8.26081
0 0.96859 0.0971439 9.75449
0 0.968576 0.0961263 7.09838
0 0.968599 0.0947113 7.40798
0 0.968633 0.093996 6.52352
0 0.968698 0.094297 7.71189
0 0.968713 0.158129 17.6856
0 0.968603 0.0981229 7.60901
0 0.968605 0.096638 6.93995
0 0.968612 0.100489 8.0765
0 0.968639 0.0968683 9.23812
0 0.96862 0.0964045 8.08136
0 0.968539 0.158881 21.4461
0 0.968582 0.0949983 6.28536
0 0.968582 0.0966098 8.94111
0 0.968576 0.0996389 5.85351
0 0.96856 0.0957788 8.03434
0 0.968573 0.0967838 6.01958
0 0.968588 0.0949695 7.51399
0 0.968619 0.0947934 6.75569
0 0.96869 0.0940642 6.94394
0 0.968753 0.155617 7.43958
0 0.968592 0.0973693 7.20235
0 0.968599 0.0970314 8.6427
0 0.968628 0.0967315 7.16179
0 0.968635 0.095371 7.92763
0 0.968614 0.155204 12.4102
0 0.968583 0.0957051 8.0084
0 0.968558 0.0974858 9.57288
0 0.968575 0.0969335 6.81438
0 0.968587 0.0947667 6.92135
0 0.968618 0.0954119 7.01418
0 0.968617 0.0950369 7.1043
0 0.968669 0.160911 18.9558
0 0.968583 0.0964334 6.79063
0 0.968623 0.0967212 7.86798
0 0.968631 0.0951597 7.86852
0 0.968606 0.154261 14.3362
0 0.968619 0.0989814 10.1764
0 0.968605 0.0963251 7.05621
0 0.968605 0.0959321 6.44153
0 0.968616 0.0980849 5.85149
0 0.96865 0.0963938 6.57095
0 0.968607 0.0943456 7.06318
0 0.968568 0.156704 15.0283
0 0.968645 0.0990438 9.85388
0 0.968634 0.0955125 8.05421
0 0.968627 0.159257 18.4702
0 0.968667 0.0948908 6.94056
0 0.968669 0.100653 9.58327
0 0.968672 0.0993706 10.4034
0 0.968673 0.0977124 5.50146
0 0.968606 0.151803 13.1373
0 0.968675 0.094347 7.11429
0 0.968635 0.154462 10.042
0 0.968728 0.0958174 7.42611
0 0.968712 0.0957439 5.46498
0 0.968697 0.151848 9.07456
0 0.968729 0.154798 14.9606
0 0.968737 0.154768 10.7493
VECTORS fa_u float
0.00674128 0.0027252 -0
0.00641577 0.00369189 -0
0.00401058 0.00108508 -0
0.00681275 0.00100145 -0
1e-08 0 0
0.00517572 0.0039873 -0
0.00312785 0.00305979 -0
1e-08 0 0
1e-08 0 0
0.00445547 0.00556059 -0
0.00448679 0.00762491 -0
0.00666526 9.14272e-05 -0
0.00621703 -0.000720578 0
1e-08 0 0
1e-08 0 0
1e-08 0 0
1e-08 0 0
1e-08 0 0
1e-08 0 0
1e-08 0 0
1e-08 0 0
0.00276834 0.00678242 -0
0.00162135 0.00624897 -0
1e-08 0 0
1e-08 0 0
1e-08 0 0
0.00805542 -0.00207538 0
1e-08 0 0
0.00915814 -0.00393979 0
1e-08 0 0
1e-08 0 0
1e-08 0 0
0.000861461 0.00705427 -0
1e-08 0 0
1e-08 0 0
1e-08 0 0
1e-08 0 0
1e-08 0 0
1e-08 0 0
1e-08 0 0
1e-08 0 0
1e-08 0 0
1e-08 0 0
-0.000112233 0.00735336 -0
1e-08 0 0
1e-08 0 0
1e-08 0 0
0.00554741 -0.00341498 0
1e-08 0 0
0.00354238 -0.00280884 0
1e-08 0 0
1e-08 0 0
1e-08 0 0
1e-08 0 0
1e-08 0 0
1e-08 0 0
1e-08 0 0
1e-08 0 0
1e-08 0 0
1e-08 0 0
1e-08 0 0
1e-08 0 0
1e-08 0 0
-0.000675668 0.00478855 0
1e-08 0 0
1e-08 0 0
1e-08 0 0
1e-08 0 0
1e-08 0 0
0.00365224 -0.00362961 0
1e-08 0 0
0.00312117 -0.00390505 0
1e-08 0 0
1e-08 0 0
1e-08 0 0
1e-08 0 0
1e-08 0 0
1e-08 0 0
1e-08 0 0
1e-08 0 0
1e-08 0 0
1e-08 0 0
1e-08 0 0
1e-08 0 0
1e-08 0 0
-0.00148817 0.0056593 0
1e-08 0 0
1e-08 0 0
1e-08 0 0
1e-08 0 0
1e-08 0 0
1e-08 0 0
0.00483496 -0.00807316 0
1e-08 0 0
1e-08 0 0
1e-08 0 0
1e-08 0 0
1e-08 0 0
0.00322373 -0.00790644 0
1e-08 0 0
1e-08 0 0
1e-08 0 0
1e-08 0 0
1e-08 0 0
1e-08 0 0
1e-08 0 0
1e-08 0 0
1e-08 0 0
1e-08 0 0
-0.00271631 0.00667124 0
1e-08 0 0
1e-08 0 0
1e-08 0 0
1e-08 0 0
1e-08 0 0
1e-08 0 0
1e-08 0 0
1e-08 0 0
1e-08 0 0
1e-08 0 0
1e-08 0 0
1e-08 0 0
1e-08 0 0
1e-08 0 0
0.00148454 -0.00579576 0
1e-08 0 0
1e-08 0 0
1e-08 0 0
1e-08 0 0
1e-08 0 0
1e-08 0 0
1e-08 0 0
1e-08 0 0
1e-08 0 0
-0.00359787 0.00623716 0
1e-08 0 0
1e-08 0 0
1e-08 0 0
1e-08 0 0
1e-08 0 0
1e-08 0 0
1e-08 0 0
1e-08 0 0
1e-08 0 0
1e-08 0 0
1e-08 0 0
1e-08 0 0
1e-08 0 0
1e-08 0 0
1e-08 0 0
0.000613991 -0.00454471 0
1e-08 0 0
1e-08 0 0
1e-08 0 0
1e-08 0 0
1e-08 0 0
1e-08 0 0
1e-08 0 0
1e-08 0 0
1e-08 0 0
1e-08 0 0
-0.00440735 0.00568358 0
1e-08 0 0
1e-08 0 0
1e-08 0 0
1e-08 0 0
1e-08 0 0
1e-08 0 0
1e-08 0 0
1e-08 0 0
1e-08 0 0
1e-08 0 0
1e-08 0 0
1e-08 0 0
7.57579e-05 -0.00743126 0
1e-08 0 0
1e-08 0 0
1e-08 0 0
1e-08 0 0
1e-08 0 0
1e-08 0 0
1e-08 0 0
1e-08 0 0
1e-08 0 0
1e-08 0 0
1e-08 0 0
1e-08 0 0
-0.00298454 0.00301709 0
1e-08 0 0
1e-08 0 0
1e-08 0 0
1e-08 0 0
1e-08 0 0
1e-08 0 0
1e-08 0 0
1e-08 0 0
1e-08 0 0
1e-08 0 0
1e-08 0 0
1e-08 0 0
1e-08 0 0
-0.000854854 -0.00676872 0
1e-08 0 0
1e-08 0 0
1e-08 0 0
1e-08 0 0
1e-08 0 0
1e-08 0 0
1e-08 0 0
1e-08 0 0
-0.00490532 0.00392562 0
1e-08 0 0
1e-08 0 0
1e-08 0 0
1e-08 0 0
1e-08 0 0
1e-08 0 0
1e-08 0 0
1e-08 0 0
1e-08 0 0
1e-08 0 0
1e-08 0 0
-0.00165606 -0.00629756 0
1e-08 0 0
1e-08 0 0
1e-08 0 0
1e-08 0 0
1e-08 0 0
1e-08 0 0
1e-08 0 0
-0.00763263 0.00452654 0
1e-08 0 0
1e-08 0 0
1e-08 0 0
1e-08 0 0
1e-08 0 0
1e-08 0 0
1e-08 0 0
1e-08 0 0
1e-08 0 0
1e-08 0 0
1e-08 0 0
-0.00276365 -0.00671061 0
1e-08 0 0
1e-08 0 0
1e-08 0 0
1e-08 0 0
1e-08 0 0
-0.0069299 0.00284851 0
1e-08 0 0
1e-08 0 0
1e-08 0 0
1e-08 0 0
1e-08 0 0
1e-08 0 0
1e-08 0 0
1e-08 0 0
-0.00448638 -0.0075787 0
1e-08 0 0
1e-08 0 0
1e-08 0 0
1e-08 0 0
-0.00633523 0.00165256 0
1e-08 0 0
1e-08 0 0
1e-08 0 0
1e-08 0 0
1e-08 0 0
1e-08 0 0
-0.00366651 -0.00461072 0
1e-08 0 0
1e-08 0 0
1e-08 0 0
-0.00687553 0.000850524 0
1e-08 0 0
1e-08 0 0
1e-08 0 0
1e-08 0 0
1e-08 0 0
1e-08 0 0
-0.00321988 -0.00320645 0
1e-08 0 0
1e-08 0 0
-0.00775435 -0.000112931 0
1e-08 0 0
1e-08 0 0
1e-08 0 0
1e-08 0 0
-0.00578389 -0.00449355 0
1e-08 0 0
-0.00438101 -0.000613273 0
1e-08 0 0
1e-08 0 0
-0.00630132 -0.00363439 0
-0.00584177 -0.00152005 0
-0.00679181 -0.00275769 0
