# vtk DataFile Version 2.0
CellBP Time: 11.6
ASCII
DATASET UNSTRUCTURED_GRID
POINTS 296 double
-8.91768 -3.65041 0
-8.36231 -4.80036 0
-9.30671 -2.43103 0
-9.58399 -1.20718 0
-8.07619 -2.69951 0
-7.64717 -5.86353 0
-6.80009 -6.82439 0
-7.63616 -3.72089 0
-7.07897 -4.69175 0
-5.88047 -7.69251 0
-4.85646 -8.42382 0
-9.69389 0.0380237 0
-9.63975 1.31048 0
-8.39383 -1.61161 0
-8.55372 -0.502599 0
-7.3268 -1.9052 0
-6.94973 -2.77032 0
-6.42397 -5.60325 0
-5.65791 -6.4324 0
-6.52662 -3.72943 0
-5.99738 -4.5177 0
-3.70952 -8.98652 0
-2.48351 -9.38453 0
-4.79016 -7.13957 0
-3.84716 -7.73198 0
-8.56876 0.629929 0
-9.42349 2.58715 0
-8.42792 1.71806 0
-9.01451 3.80035 0
-7.49891 -0.875049 0
-7.56455 0.0932976 0
-6.72006 -1.25009 0
-1.21333 -9.62152 0
-6.22353 -2.05929 0
-6.09496 -2.93151 0
-5.35172 -5.31323 0
-4.65623 -5.95827 0
-5.45888 -3.62731 0
-5.08444 -4.41709 0
-2.81478 -8.19228 0
-1.74418 -8.44435 0
-3.83848 -6.57399 0
-3.00763 -7.01093 0
0.0556168 -9.67929 0
-7.49826 1.11682 0
-8.17482 2.85855 0
-7.35917 2.04756 0
-8.39893 4.9162 0
-7.69585 3.87074 0
-7.64143 5.94972 0
-6.56427 -0.368469 0
-6.74735 0.550402 0
-5.60508 -0.96725 0
-0.57248 -8.59212 0
0.549437 -8.52608 0
-5.14525 -2.39534 0
-4.33696 -4.94957 0
-3.78817 -5.63287 0
-4.30935 -3.69745 0
-2.02261 -7.40318 0
-1.11436 -7.60605 0
-2.92249 -5.96267 0
-2.27156 -6.48136 0
1.30696 -9.55957 0
-6.5084 1.38079 0
-6.9757 3.02356 0
-6.48088 2.30187 0
-7.09402 4.83555 0
-6.53678 3.88196 0
-6.80048 6.89338 0
-6.38772 5.71419 0
-5.85945 7.74904 0
-4.36304 -1.15804 0
-5.66981 0.49216 0
-4.568 -0.0257087 0
-0.0111804 -7.63453 0
1.67448 -8.3737 0
0.896957 -7.53075 0
-3.95461 -2.34943 0
-3.4513 -1.37873 0
-3.21497 -4.69088 0
-3.2119 -3.19937 0
-1.36242 -6.51979 0
-0.522772 -6.84388 0
-1.94131 -5.42319 0
2.55305 -9.3123 0
-5.37358 1.9911 0
-5.93237 2.97682 0
-5.93386 4.71129 0
-5.60259 3.85896 0
-5.59133 6.50962 0
-5.29636 5.4386 0
-4.83555 8.50191 0
-4.69298 7.16957 0
-3.46036 -0.420431 0
-4.35484 1.22216 0
-3.64922 0.583856 0
-3.97476 2.29118 0
-3.70042 9.06867 0
2.74964 -8.03741 0
0.367473 -6.59126 0
1.92686 -7.27093 0
1.2264 -6.6787 0
-2.4261 -0.862133 0
-2.8106 -2.1037 0
-2.2594 -4.01717 0
-2.29507 -2.92029 0
-0.45529 -5.7092 0
-1.19832 -4.41954 0
3.76183 -8.9218 0
-4.66784 3.30324 0
-4.94745 4.44538 0
-4.50887 6.07611 0
-4.4067 5.18498 0
-3.74487 7.77491 0
-3.70658 6.61109 0
-2.70824 8.17862 0
-1.63029 -0.126264 0
-1.43512 -0.877355 0
-2.47069 0.517335 0
-3.19874 1.43622 0
-3.16889 3.25207 0
-2.86426 2.35697 0
-1.35049 0.639919 0
-2.48159 9.45165 0
3.78456 -7.60859 0
2.82286 -6.8766 0
0.896622 -5.64333 0
1.96814 -6.18628 0
-1.66539 -1.97261 0
-1.41248 -3.22851 0
0.0761687 -4.63968 0
-0.548563 -3.64055 0
4.76279 -7.05709 0
4.90219 -8.36666 0
-3.67846 4.43108 0
-3.62739 5.5735 0
-2.79313 7.05708 0
-2.92292 6.157 0
-1.62131 8.49277 0
-1.87791 7.39857 0
-2.29536 3.96745 0
-0.723117 -1.31593 0
-0.82787 -0.244005 0
-1.92996 1.69008 0
-2.10016 2.85299 0
-1.2984 3.50262 0
-0.872525 1.36512 0
-0.284313 0.468214 0
-0.519392 8.64675 0
-1.22307 9.68649 0
1.06704 -4.44958 0
3.73959 -6.42941 0
2.85829 -5.85827 0
2.02868 -5.24078 0
4.61458 -5.9586 0
-0.546189 -2.45445 0
0.486825 -3.40537 0
0.0562909 -1.60388 0
1.43717 -3.59017 0
5.67894 -6.38551 0
5.96281 -7.653 0
-2.41011 5.20657 0
-2.05795 6.34535 0
-0.87417 7.60086 0
-1.22048 6.74424 0
0.0930247 7.69108 0
-1.12617 4.40908 0
0.147418 -0.609401 0
-0.808065 2.49318 0
-0.345911 3.57183 0
0.0547689 1.51996 0
0.736817 0.477669 0
0.634567 8.6781 0
0.041798 9.7978 0
2.30158 -4.14827 0
3.71756 -5.41254 0
2.88903 -5.02118 0
5.41428 -5.29525 0
4.53744 -5.07286 0
0.631452 -2.2825 0
1.23688 -2.89897 0
0.754938 -1.38445 0
2.11306 -3.06216 0
2.91951 -3.3745 0
6.00169 -4.64211 0
6.47485 -5.5945 0
6.91557 -6.79573 0
-0.984203 5.67967 0
-0.344617 6.70832 0
1.10024 7.60403 0
0.563103 6.92153 0
-0.0024316 4.64527 0
0.586647 3.78152 0
1.32843 -0.63819 0
0.519051 2.63798 0
0.948271 1.57651 0
1.89393 0.209151 0
1.59103 1.06329 0
2.0961 7.43925 0
1.76577 8.53002 0
1.32114 9.7279 0
3.7062 -4.19605 0
4.97428 -4.2762 0
5.7027 -3.80326 0
3.69429 -3.10327 0
1.79689 -1.87562 0
2.96124 -2.5241 0
6.63779 -3.83908 0
7.21527 -4.76916 0
7.78005 -5.8674 0
0.483074 5.7543 0
1.40926 6.60723 0
2.33459 6.54431 0
1.1854 4.48306 0
1.46232 3.35235 0
2.40658 -0.686606 0
2.79474 0.138994 0
1.76464 2.14539 0
2.58195 1.13897 0
3.02168 7.03029 0
2.85388 8.21119 0
2.58675 9.4844 0
4.79275 -3.2177 0
5.98539 -3.0139 0
4.09448 -2.22819 0
3.1965 -1.48366 0
6.6058 -2.26893 0
7.09639 -2.98369 0
7.80561 -3.8389 0
8.51704 -4.84667 0
1.9927 5.49691 0
3.00775 6.02233 0
2.33175 4.05606 0
2.38714 3.0153 0
3.47289 -0.45198 0
3.56725 0.615893 0
2.9192 2.25585 0
3.48409 1.50487 0
3.89662 5.7657 0
3.88913 6.64556 0
3.90745 7.78311 0
3.80945 9.0809 0
5.46585 -1.87578 0
4.43403 -1.10902 0
6.58036 -1.30846 0
7.44617 -1.99352 0
8.2264 -2.80765 0
9.08402 -3.70571 0
3.31806 4.76637 0
3.26233 3.32006 0
4.60792 0.135384 0
4.41898 1.2816 0
3.95939 2.38649 0
4.41084 5.01547 0
4.70495 6.03735 0
4.86176 7.21366 0
4.95125 8.51366 0
5.75877 -0.432389 0
6.84528 -0.490609 0
7.60011 -1.06215 0
8.50216 -1.71135 0
9.48457 -2.48051 0
4.40553 3.72447 0
5.65792 1.04735 0
5.19731 2.45023 0
5.18035 4.47956 0
5.4277 5.36745 0
5.73041 6.49951 0
5.97309 7.78015 0
6.6603 0.426508 0
7.65768 -0.0336174 0
8.66423 -0.565631 0
9.72371 -1.21138 0
6.75125 1.28073 0
5.50921 3.64741 0
6.32319 2.10013 0
6.14796 2.96534 0
6.06236 4.53099 0
6.47994 5.66929 0
6.90758 6.92286 0
7.56765 0.928204 0
8.63198 0.558451 0
9.787 0.0630391 0
7.37712 1.92301 0
6.55577 3.74555 0
7.00724 2.82821 0
7.13343 4.72845 0
7.7657 5.97276 0
8.46456 1.67542 0
9.6635 1.31411 0
8.13775 2.73444 0
7.72638 3.78617 0
8.47901 4.91396 0
9.42247 2.56304 0
9.03399 3.77283 0
CELLS 542 2168
3 2 0 4
3 0 1 7
3 4 0 7
3 1 5 8
3 7 1 8
3 3 2 13
3 13 2 4
3 11 3 14
3 14 3 13
3 13 4 15
3 4 7 16
3 15 4 16
3 5 6 17
3 8 5 17
3 6 9 18
3 17 6 18
3 7 8 19
3 16 7 19
3 8 17 20
3 19 8 20
3 9 10 23
3 18 9 23
3 10 21 24
3 23 10 24
3 12 11 25
3 25 11 14
3 26 12 27
3 27 12 25
3 14 13 29
3 29 13 15
3 25 14 30
3 30 14 29
3 29 15 31
3 15 16 33
3 31 15 33
3 16 19 34
3 33 16 34
3 17 18 35
3 20 17 35
3 18 23 36
3 35 18 36
3 19 20 37
3 34 19 37
3 20 35 38
3 37 20 38
3 21 22 39
3 24 21 39
3 22 32 40
3 39 22 40
3 23 24 41
3 36 23 41
3 24 39 42
3 41 24 42
3 27 25 44
3 44 25 30
3 28 26 45
3 45 26 27
3 45 27 46
3 46 27 44
3 47 28 48
3 48 28 45
3 30 29 50
3 50 29 31
3 44 30 51
3 51 30 50
3 50 31 52
3 31 33 52
3 32 43 53
3 40 32 53
3 53 43 54
3 33 34 55
3 34 37 55
3 33 55 52
3 35 36 56
3 38 35 56
3 36 41 57
3 56 36 57
3 37 38 58
3 38 56 58
3 37 58 55
3 39 40 59
3 42 39 59
3 40 53 60
3 59 40 60
3 41 42 61
3 57 41 61
3 42 59 62
3 61 42 62
3 43 63 54
3 46 44 64
3 64 44 51
3 48 45 65
3 65 45 46
3 65 46 66
3 66 46 64
3 49 47 67
3 67 47 48
3 67 48 68
3 68 48 65
3 69 49 70
3 70 49 67
3 52 55 72
3 64 51 73
3 51 50 73
3 50 52 73
3 73 52 74
3 74 52 72
3 53 54 75
3 60 53 75
3 54 63 76
3 54 76 77
3 75 54 77
3 55 58 78
3 72 55 78
3 72 78 79
3 56 57 80
3 57 61 80
3 56 80 58
3 58 80 81
3 78 58 81
3 59 60 82
3 62 59 82
3 60 75 83
3 82 60 83
3 61 62 84
3 62 82 84
3 61 84 80
3 63 85 76
3 66 64 86
3 64 73 86
3 68 65 87
3 87 65 66
3 87 66 86
3 70 67 88
3 88 67 68
3 88 68 89
3 89 68 87
3 71 69 90
3 90 69 70
3 90 70 91
3 91 70 88
3 92 71 93
3 93 71 90
3 74 72 94
3 94 72 79
3 86 73 95
3 95 73 74
3 95 74 96
3 96 74 94
3 97 86 95
3 76 85 99
3 75 77 100
3 83 75 100
3 76 99 101
3 77 76 101
3 77 101 102
3 100 77 102
3 94 79 103
3 78 81 104
3 79 78 104
3 79 104 103
3 80 84 105
3 81 80 105
3 81 105 106
3 104 81 106
3 82 83 107
3 83 100 107
3 82 107 84
3 84 107 108
3 105 84 108
3 85 109 99
3 89 87 110
3 87 86 110
3 110 86 97
3 91 88 111
3 111 88 89
3 111 89 110
3 93 90 112
3 112 90 91
3 112 91 113
3 113 91 111
3 98 92 114
3 114 92 93
3 114 93 115
3 115 93 112
3 116 98 114
3 117 103 118
3 96 94 119
3 94 103 119
3 119 103 117
3 97 95 120
3 120 95 96
3 120 96 119
3 121 110 97
3 121 97 122
3 122 97 120
3 123 119 117
3 124 98 116
3 99 109 125
3 99 125 126
3 101 99 126
3 100 102 127
3 100 127 107
3 101 126 128
3 102 101 128
3 102 128 127
3 104 106 129
3 104 129 103
3 103 129 118
3 105 108 130
3 106 105 130
3 106 130 129
3 107 127 131
3 108 107 131
3 108 131 132
3 108 132 130
3 109 134 125
3 125 134 133
3 113 111 135
3 111 110 135
3 135 110 121
3 115 112 136
3 136 112 113
3 136 113 135
3 116 114 137
3 137 114 115
3 137 115 138
3 138 115 136
3 139 124 116
3 139 116 140
3 140 116 137
3 141 135 121
3 118 129 142
3 118 142 143
3 117 118 143
3 123 117 143
3 122 120 144
3 120 119 144
3 144 119 123
3 141 121 145
3 145 121 122
3 145 122 144
3 146 141 145
3 147 144 123
3 147 123 148
3 143 148 123
3 150 124 139
3 149 150 139
3 131 127 151
3 125 133 152
3 126 125 152
3 126 152 153
3 128 126 153
3 128 153 154
3 128 154 127
3 127 154 151
3 152 133 155
3 130 132 156
3 130 156 129
3 129 156 142
3 131 151 157
3 132 131 157
3 132 157 156
3 156 158 142
3 157 151 159
3 133 160 155
3 134 161 133
3 133 161 160
3 138 136 162
3 136 135 162
3 162 135 141
3 140 137 163
3 163 137 138
3 163 138 162
3 149 139 164
3 164 139 140
3 164 140 165
3 165 140 163
3 166 149 164
3 167 162 141
3 167 141 146
3 142 158 168
3 143 142 168
3 143 168 148
3 146 145 169
3 145 144 169
3 169 144 147
3 170 167 146
3 170 146 169
3 171 169 147
3 171 147 148
3 171 148 172
3 168 172 148
3 173 149 166
3 174 150 149
3 173 174 149
3 154 175 151
3 151 175 159
3 152 155 176
3 153 152 176
3 153 176 177
3 153 177 154
3 154 177 175
3 155 160 178
3 155 178 179
3 176 155 179
3 156 157 180
3 156 180 158
3 157 159 181
3 157 181 180
3 158 180 182
3 158 182 168
3 159 175 183
3 159 183 181
3 175 184 183
3 160 186 178
3 178 186 185
3 161 187 160
3 160 187 186
3 165 163 188
3 163 162 188
3 188 162 167
3 166 164 189
3 189 164 165
3 189 165 188
3 190 173 166
3 190 166 191
3 191 166 189
3 192 188 167
3 192 167 170
3 193 192 170
3 182 194 168
3 194 172 168
3 193 170 195
3 170 169 195
3 195 169 171
3 196 195 171
3 196 171 172
3 194 197 172
3 197 198 172
3 198 196 172
3 200 173 190
3 199 200 190
3 201 174 173
3 200 201 173
3 176 179 202
3 177 176 202
3 177 202 175
3 175 202 184
3 178 185 203
3 178 203 179
3 179 203 202
3 203 185 204
3 202 205 184
3 183 206 181
3 180 181 206
3 180 206 182
3 182 206 194
3 183 184 207
3 205 207 184
3 183 207 206
3 185 208 204
3 186 209 185
3 185 209 208
3 187 210 186
3 186 210 209
3 191 189 211
3 189 188 211
3 211 188 192
3 199 190 212
3 212 190 191
3 212 191 211
3 213 199 212
3 214 211 192
3 214 192 193
3 215 214 193
3 215 193 195
3 206 216 194
3 216 197 194
3 216 217 197
3 215 195 218
3 218 195 196
3 198 218 196
3 217 219 197
3 219 218 198
3 197 219 198
3 220 199 213
3 221 200 199
3 220 221 199
3 222 201 200
3 221 222 200
3 203 204 223
3 203 223 202
3 202 223 205
3 204 208 224
3 204 224 223
3 205 223 225
3 205 225 207
3 207 225 226
3 207 226 206
3 226 216 206
3 208 228 224
3 224 228 227
3 209 229 208
3 229 228 208
3 210 230 209
3 209 230 229
3 213 212 231
3 212 211 231
3 231 211 214
3 232 220 213
3 232 213 231
3 233 231 214
3 233 214 215
3 234 233 215
3 234 215 218
3 226 235 216
3 235 217 216
3 235 236 217
3 217 236 219
3 237 234 218
3 237 218 219
3 236 238 219
3 238 237 219
3 240 220 232
3 239 240 232
3 241 221 220
3 240 241 220
3 242 222 221
3 241 242 221
3 224 227 243
3 224 243 223
3 223 243 225
3 225 243 244
3 225 244 226
3 226 244 235
3 227 245 243
3 228 246 227
3 227 246 245
3 229 247 228
3 228 247 246
3 230 248 229
3 229 248 247
3 239 232 249
3 232 231 249
3 249 231 233
3 250 249 233
3 250 233 234
3 237 250 234
3 244 251 235
3 235 251 236
3 251 252 236
3 236 252 238
3 252 253 238
3 253 250 237
3 253 237 238
3 254 239 249
3 255 240 239
3 254 255 239
3 256 241 240
3 255 256 240
3 257 242 241
3 256 257 241
3 245 258 243
3 243 258 244
3 244 258 251
3 245 259 258
3 246 260 245
3 245 260 259
3 247 261 246
3 246 261 260
3 248 262 247
3 247 262 261
3 254 249 263
3 263 249 250
3 253 263 250
3 258 264 251
3 251 264 252
3 264 265 252
3 265 263 253
3 252 265 253
3 266 254 263
3 267 255 254
3 266 267 254
3 268 256 255
3 267 268 255
3 269 257 256
3 268 269 256
3 259 270 258
3 270 264 258
3 260 271 259
3 259 271 270
3 261 272 260
3 260 272 271
3 262 273 261
3 273 272 261
3 270 274 264
3 275 266 263
3 275 263 265
3 274 276 264
3 276 265 264
3 276 277 265
3 277 275 265
3 278 267 266
3 275 278 266
3 279 268 267
3 278 279 267
3 280 269 268
3 279 280 268
3 271 281 270
3 270 281 274
3 272 282 271
3 271 282 281
3 273 283 272
3 272 283 282
3 281 284 274
3 274 284 276
3 285 278 275
3 277 285 275
3 284 286 276
3 286 285 277
3 276 286 277
3 287 279 278
3 285 287 278
3 288 280 279
3 287 288 279
3 282 289 281
3 281 289 284
3 283 290 282
3 282 290 289
3 289 291 284
3 284 291 286
3 291 292 286
3 292 287 285
3 286 292 285
3 293 288 287
3 292 293 287
3 290 294 289
3 289 294 291
3 294 295 291
3 295 293 292
3 291 295 292
CELL_TYPES 542
5
5
5
5
5
5
5
5
5
5
5
5
5
5
5
5
5
5
5
5
5
5
5
5
5
5
5
5
5
5
5
5
5
5
5
5
5
5
5
5
5
5
5
5
5
5
5
5
5
5
5
5
5
5
5
5
5
5
5
5
5
5
5
5
5
5
5
5
5
5
5
5
5
5
5
5
5
5
5
5
5
5
5
5
5
5
5
5
5
5
5
5
5
5
5
5
5
5
5
5
5
5
5
5
5
5
5
5
5
5
5
5
5
5
5
5
5
5
5
5
5
5
5
5
5
5
5
5
5
5
5
5
5
5
5
5
5
5
5
5
5
5
5
5
5
5
5
5
5
5
5
5
5
5
5
5
5
5
5
5
5
5
5
5
5
5
5
5
5
5
5
5
5
5
5
5
5
5
5
5
5
5
5
5
5
5
5
5
5
5
5
5
5
5
5
5
5
5
5
5
5
5
5
5
5
5
5
5
5
5
5
5
5
5
5
5
5
5
5
5
5
5
5
5
5
5
5
5
5
5
5
5
5
5
5
5
5
5
5
5
5
5
5
5
5
5
5
5
5
5
5
5
5
5
5
5
5
5
5
5
5
5
5
5
5
5
5
5
5
5
5
5
5
5
5
5
5
5
5
5
5
5
5
5
5
5
5
5
5
5
5
5
5
5
5
5
5
5
5
5
5
5
5
5
5
5
5
5
5
5
5
5
5
5
5
5
5
5
5
5
5
5
5
5
5
5
5
5
5
5
5
5
5
5
5
5
5
5
5
5
5
5
5
5
5
5
5
5
5
5
5
5
5
5
5
5
5
5
5
5
5
5
5
5
5
5
5
5
5
5
5
5
5
5
5
5
5
5
5
5
5
5
5
5
5
5
5
5
5
5
5
5
5
5
5
5
5
5
5
5
5
5
5
5
5
5
5
5
5
5
5
5
5
5
5
5
5
5
5
5
5
5
5
5
5
5
5
5
5
5
5
5
5
5
5
5
5
5
5
5
5
5
5
5
5
5
5
5
5
5
5
5
5
5
5
5
5
5
5
5
5
5
5
5
5
5
5
5
5
5
5
5
5
5
5
5
5
5
5
5
5
5
5
5
5
5
5
5
5
5
5
5
5
5
5
5
5
5
5
5
5
5
5
5
5
5
5
5
5
5
5
5
5
5
5
5
5
5
5
5
5
5
5
5
5
5
5
5
5
5
5
5
5
5
5
5
5
5
5
5
5
5
POINT_DATA 296
SCALARS concentrations float 4
LOOKUP_TABLE default
0 0.948125 0.106051 9.52214
0 0.948149 0.111095 14.4418
0 0.948131 0.110115 10.7566
0 0.948131 0.104913 8.67872
0 0.948123 0.0935493 7.31199
0 0.948234 0.107968 11.0129
0 0.948272 0.10509 6.33081
0 0.948133 0.0944266 7.68847
0 0.948172 0.0940211 7.09088
0 0.94821 0.105432 5.46573
0 0.948152 0.106602 10.4756
0 0.948164 0.107442 7.78593
0 0.948213 0.104083 8.95306
0 0.948125 0.0927634 7.20365
0 0.948133 0.0924341 6.99759
0 0.948117 0.092888 7.37413
0 0.948124 0.0939214 7.12682
0 0.948224 0.0929019 6.83352
0 0.948219 0.0924164 6.79834
0 0.94814 0.0941571 7.28598
0 0.948155 0.0938584 7.47935
0 0.948174 0.106888 8.95276
0 0.948178 0.105124 8.99703
0 0.948168 0.0924883 6.76738
0 0.948159 0.0925363 6.8719
0 0.948166 0.0930282 7.52768
0 0.948185 0.110303 7.61975
0 0.948187 0.0937266 6.8625
0 0.948125 0.103878 10.7209
0 0.948121 0.0929528 7.01423
0 0.948132 0.093148 7.11981
0 0.948131 0.0926007 7.42076
0 0.948162 0.103059 7.70251
0 0.948131 0.0930027 7.1347
0 0.94813 0.0934865 6.91039
0 0.948169 0.0927781 6.93698
0 0.948167 0.0928765 7.03552
0 0.948141 0.0934875 6.8744
0 0.948145 0.0930249 7.02444
0 0.948167 0.0923353 7.06345
0 0.948169 0.0923558 7.16154
0 0.948156 0.093316 7.3435
0 0.948153 0.0928442 7.23743
0 0.948139 0.106198 9.94761
0 0.948146 0.0936887 7.41805
0 0.948145 0.0946023 7.28354
0 0.948145 0.0939483 8.00223
0 0.94817 0.104176 9.92995
0 0.948139 0.0931583 6.78502
0 0.948205 0.11127 5.72894
0 0.948138 0.0927538 6.83345
0 0.94814 0.0933288 7.08748
0 0.948145 0.0923893 7.38499
0 0.948145 0.0922378 6.93613
0 0.948141 0.0926796 7.24483
0 0.948145 0.0927474 7.35793
0 0.948149 0.0932882 6.95414
0 0.94815 0.0932226 6.86448
0 0.948146 0.0930249 6.97799
0 0.948156 0.0930131 7.13212
0 0.948156 0.09267 7.18552
0 0.94815 0.0923422 7.04131
0 0.948152 0.0935478 6.87477
0 0.948103 0.113614 9.15305
0 0.948145 0.0933284 6.49033
0 0.948141 0.0948883 5.64272
0 0.948146 0.0950281 7.81151
0 0.948185 0.0935452 7.24082
0 0.948154 0.093933 6.07787
0 0.948164 0.102768 7.07727
0 0.948188 0.0930771 7.13758
0 0.94812 0.108018 4.608
0 0.948151 0.0942093 6.98911
0 0.948148 0.0929359 7.29106
0 0.948155 0.092967 7.50381
0 0.948154 0.092926 7.34962
0 0.948109 0.0930466 7.41419
0 0.94815 0.0924515 7.46646
0 0.948151 0.0933294 6.88998
0 0.948159 0.0945691 6.70742
0 0.948149 0.0927085 7.35266
0 0.948153 0.0936329 7.14865
0 0.948153 0.0933091 7.02727
0 0.948156 0.0927672 7.20385
0 0.948152 0.0933177 7.07383
0 0.948101 0.105653 6.21555
0 0.948153 0.0941927 6.23348
0 0.948152 0.0946698 8.08002
0 0.948174 0.0941438 6.56754
0 0.948159 0.0947455 6.38563
0 0.948156 0.0929076 6.90022
0 0.948177 0.0931578 6.35013
0 0.948197 0.113185 8.73125
0 0.948162 0.0936367 6.43661
0 0.948163 0.0937052 6.85207
0 0.948156 0.0932625 7.2997
0 0.948162 0.0929138 7.43321
0 0.948157 0.093709 7.63012
0 0.948249 0.107701 7.60081
0 0.948144 0.0927712 6.93621
0 0.94816 0.0931835 6.60747
0 0.948156 0.093483 6.56701
0 0.948164 0.0934042 6.73602
0 0.948166 0.0934344 6.83589
0 0.94816 0.0929716 7.16297
0 0.948155 0.0929802 6.97174
0 0.94816 0.0935621 6.99457
0 0.948157 0.0926978 7.10377
0 0.94816 0.0933028 7.40027
0 0.948129 0.107898 8.29678
0 0.948161 0.0934518 7.72417
0 0.94817 0.0936382 7.45683
0 0.948173 0.0935862 7.75572
0 0.948171 0.0943923 6.58053
0 0.94822 0.0939814 6.63219
0 0.948186 0.0949049 6.01467
0 0.948213 0.0935667 7.74874
0 0.948169 0.0930362 6.79394
0 0.948167 0.0934559 6.86042
0 0.948163 0.0935231 6.93695
0 0.948157 0.0929052 7.15469
0 0.948165 0.0933548 6.55415
0 0.948155 0.0943465 8.00799
0 0.948163 0.0928842 7.02485
0 0.948214 0.108631 13.7675
0 0.94814 0.0941382 7.10503
0 0.948162 0.094987 7.04597
0 0.948165 0.0929311 7.48968
0 0.948168 0.0929037 7.42341
0 0.948162 0.0945562 6.47924
0 0.948166 0.0931706 7.2416
0 0.948161 0.092715 7.40754
0 0.948168 0.100942 9.0719
0 0.94815 0.0935587 6.26122
0 0.948137 0.108381 9.81065
0 0.94817 0.0937304 7.20331
0 0.948174 0.0939078 8.04269
0 0.94819 0.0940627 7.70989
0 0.948178 0.0941766 7.90865
0 0.948192 0.0931212 7.43493
0 0.94818 0.0933701 6.36143
0 0.948172 0.0954335 6.18018
0 0.948166 0.0933132 6.86131
0 0.948165 0.093213 6.94212
0 0.948158 0.0940253 6.88699
0 0.948165 0.095151 7.53541
0 0.94818 0.0963913 8.5665
0 0.94817 0.0935727 7.54441
0 0.948171 0.0931149 7.10033
0 0.948201 0.0931406 6.95383
0 0.948208 0.107928 8.38752
0 0.948165 0.0935854 7.04413
0 0.948166 0.0943624 7.8504
0 0.948168 0.0929752 7.37214
0 0.948169 0.0933123 7.48791
0 0.948161 0.0934449 6.57576
0 0.948168 0.094493 7.29707
0 0.948165 0.094762 7.5369
0 0.948164 0.0958948 7.6254
0 0.948169 0.093949 7.53736
0 0.948124 0.0927141 6.79736
0 0.948123 0.106219 6.90153
0 0.948174 0.0938643 6.38815
0 0.94818 0.0934435 6.55311
0 0.94818 0.0926366 7.46653
0 0.948181 0.0935381 7.35141
0 0.948184 0.092782 7.36801
0 0.948179 0.0939581 7.00656
0 0.948167 0.0944673 7.2634
0 0.948171 0.0939933 6.894
0 0.948169 0.0979476 8.55018
0 0.948175 0.0937952 6.7607
0 0.948182 0.0931607 7.15768
0 0.948176 0.0935315 7.70004
0 0.948201 0.104365 7.92412
0 0.948171 0.0940883 6.86006
0 0.948169 0.0933944 6.70926
0 0.948169 0.0936102 6.87064
0 0.948143 0.0927383 6.93474
0 0.948164 0.0940843 6.57339
0 0.948165 0.098293 8.43572
0 0.948168 0.0949721 7.07075
0 0.94816 0.0970219 6.66467
0 0.948174 0.0966793 7.53413
0 0.948174 0.0949992 6.91502
0 0.94813 0.0927092 6.921
0 0.948114 0.0922141 7.11967
0 0.948109 0.108359 9.91145
0 0.948186 0.0939059 7.65462
0 0.948186 0.0935379 6.9182
0 0.948177 0.0926957 7.08705
0 0.948192 0.0933315 7.16707
0 0.948181 0.0949086 6.61891
0 0.948164 0.0945541 7.79439
0 0.94817 0.0974652 5.89458
0 0.948166 0.0938545 7.58927
0 0.948176 0.0935107 6.81182
0 0.948181 0.0937412 7.28023
0 0.948185 0.0927006 7.22696
0 0.948156 0.0935263 7.29766
0 0.948139 0.0944182 7.87803
0 0.948144 0.104623 8.14039
0 0.948172 0.093837 6.38039
0 0.94816 0.0949382 6.43863
0 0.948151 0.0932082 7.13751
0 0.948175 0.093334 6.86884
0 0.94817 0.0961674 6.88852
0 0.948171 0.0937788 6.98114
0 0.94813 0.0925 6.96937
0 0.948074 0.0922777 7.21572
0 0.948072 0.103547 13.117
0 0.948192 0.0951108 6.46001
0 0.948186 0.0946484 7.5107
0 0.948165 0.0945813 6.69941
0 0.948182 0.0935831 7.78725
0 0.94817 0.093607 7.48297
0 0.948174 0.0940447 7.25149
0 0.948176 0.0936999 7.39752
0 0.948174 0.0935356 6.60405
0 0.948178 0.0946488 7.42151
0 0.94815 0.0931076 7.15578
0 0.948115 0.0932731 7.43485
0 0.948095 0.107424 10.805
0 0.948169 0.0935164 6.43666
0 0.94816 0.0930902 7.45209
0 0.948168 0.0929822 6.74863
0 0.94817 0.0939298 7.36018
0 0.948164 0.0970304 6.60505
0 0.94815 0.093126 7.26902
0 0.948106 0.0926534 7.37371
0 0.948046 0.104257 12.7832
0 0.94818 0.0945387 6.75831
0 0.948173 0.0938405 7.14295
0 0.948178 0.0932398 6.99188
0 0.948173 0.0933678 6.69186
0 0.94817 0.0943 6.75804
0 0.948174 0.092748 7.15169
0 0.948174 0.0952976 6.88977
0 0.948175 0.0930756 7.30155
0 0.948179 0.0942548 6.39858
0 0.948167 0.0937243 7.81052
0 0.948142 0.0937779 7.03591
0 0.94811 0.105797 3.96509
0 0.948163 0.0988917 5.80687
0 0.948163 0.0930922 7.25804
0 0.948162 0.0953117 6.26088
0 0.948167 0.0929075 6.44815
0 0.948165 0.0931476 7.61631
0 0.948136 0.106076 8.83861
0 0.948181 0.0928842 7.33883
0 0.94818 0.0936845 6.52394
0 0.948168 0.0928682 7.15928
0 0.948169 0.0939003 6.97767
0 0.948176 0.0935564 6.72566
0 0.94817 0.0931144 7.384
0 0.948178 0.0930283 7.58279
0 0.94818 0.0936404 7.79355
0 0.948157 0.10863 7.54507
0 0.948164 0.0954269 6.531
0 0.948166 0.0944346 6.87565
0 0.948171 0.0937245 7.10907
0 0.94818 0.0932835 7.67244
0 0.948179 0.104316 8.80382
0 0.948173 0.094649 6.44521
0 0.948167 0.0939443 7.24852
0 0.948167 0.094041 7.69324
0 0.948164 0.0935077 7.61312
0 0.948183 0.0931394 6.57459
0 0.948213 0.0931499 7.62961
0 0.948216 0.111443 6.22722
0 0.948172 0.0939164 7.05089
0 0.948173 0.0937714 6.07389
0 0.948186 0.0938455 8.24128
0 0.948192 0.105303 8.67693
0 0.948172 0.0935759 6.27925
0 0.948163 0.0936354 6.29309
0 0.948168 0.0930576 6.95192
0 0.948162 0.0936252 6.46608
0 0.948176 0.0947021 6.23878
0 0.948202 0.0930913 6.93766
0 0.948222 0.109139 9.65235
0 0.948169 0.0942006 6.12126
0 0.948168 0.0933496 6.23311
0 0.948185 0.107656 8.07223
0 0.948168 0.0938351 6.16966
0 0.948158 0.0939985 6.51364
0 0.948167 0.0936046 6.31123
0 0.948178 0.0953465 6.93915
0 0.948203 0.104048 6.09725
0 0.94816 0.0931066 6.39564
0 0.948156 0.10242 8.78541
0 0.948173 0.0935875 7.58012
0 0.948164 0.0943493 6.14778
0 0.948175 0.101488 11.2051
0 0.948165 0.107311 9.3628
0 0.948174 0.105254 9.58785
VECTORS fa_u float
0.00720066 0.00287016 -0
0.00682781 0.00391972 -0
0.0028133 0.000767234 -0
0.00713551 0.00111893 -0
1e-08 0 0
0.00523561 0.00404103 -0
0.00236941 0.00228872 -0
1e-08 0 0
1e-08 0 0
0.00466932 0.00567415 -0
0.00540453 0.00906711 -0
0.00672835 0.00014903 -0
0.00605705 -0.000642514 0
1e-08 0 0
1e-08 0 0
1e-08 0 0
1e-08 0 0
1e-08 0 0
1e-08 0 0
1e-08 0 0
1e-08 0 0
0.00294426 0.00727237 -0
0.00159473 0.00626886 -0
1e-08 0 0
1e-08 0 0
1e-08 0 0
0.00927537 -0.00232916 0
1e-08 0 0
0.0114029 -0.00501619 0
1e-08 0 0
1e-08 0 0
1e-08 0 0
0.000865678 0.00745712 -0
1e-08 0 0
1e-08 0 0
1e-08 0 0
1e-08 0 0
1e-08 0 0
1e-08 0 0
1e-08 0 0
1e-08 0 0
1e-08 0 0
1e-08 0 0
-0.000192182 0.00781754 -0
1e-08 0 0
1e-08 0 0
1e-08 0 0
0.00541369 -0.00345844 0
1e-08 0 0
0.00277656 -0.0022447 0
1e-08 0 0
1e-08 0 0
1e-08 0 0
1e-08 0 0
1e-08 0 0
1e-08 0 0
1e-08 0 0
1e-08 0 0
1e-08 0 0
1e-08 0 0
1e-08 0 0
1e-08 0 0
1e-08 0 0
-0.000579798 0.00394569 0
1e-08 0 0
1e-08 0 0
1e-08 0 0
1e-08 0 0
1e-08 0 0
0.0030802 -0.00305052 0
1e-08 0 0
0.00268288 -0.00327732 0
1e-08 0 0
1e-08 0 0
1e-08 0 0
1e-08 0 0
1e-08 0 0
1e-08 0 0
1e-08 0 0
1e-08 0 0
1e-08 0 0
1e-08 0 0
1e-08 0 0
1e-08 0 0
1e-08 0 0
-0.00134132 0.00516302 0
1e-08 0 0
1e-08 0 0
1e-08 0 0
1e-08 0 0
1e-08 0 0
1e-08 0 0
0.00596398 -0.00975754 0
1e-08 0 0
1e-08 0 0
1e-08 0 0
1e-08 0 0
1e-08 0 0
0.00367851 -0.00911728 0
1e-08 0 0
1e-08 0 0
1e-08 0 0
1e-08 0 0
1e-08 0 0
1e-08 0 0
1e-08 0 0
1e-08 0 0
1e-08 0 0
1e-08 0 0
-0.00289502 0.0071917 0
1e-08 0 0
1e-08 0 0
1e-08 0 0
1e-08 0 0
1e-08 0 0
1e-08 0 0
1e-08 0 0
1e-08 0 0
1e-08 0 0
1e-08 0 0
1e-08 0 0
1e-08 0 0
1e-08 0 0
1e-08 0 0
0.00135745 -0.00544314 0
1e-08 0 0
1e-08 0 0
1e-08 0 0
1e-08 0 0
1e-08 0 0
1e-08 0 0
1e-08 0 0
1e-08 0 0
1e-08 0 0
-0.0037868 0.0065689 0
1e-08 0 0
1e-08 0 0
1e-08 0 0
1e-08 0 0
1e-08 0 0
1e-08 0 0
1e-08 0 0
1e-08 0 0
1e-08 0 0
1e-08 0 0
1e-08 0 0
1e-08 0 0
1e-08 0 0
1e-08 0 0
1e-08 0 0
0.000497472 -0.00362654 0
1e-08 0 0
1e-08 0 0
1e-08 0 0
1e-08 0 0
1e-08 0 0
1e-08 0 0
1e-08 0 0
1e-08 0 0
1e-08 0 0
1e-08 0 0
-0.00471771 0.00604644 0
1e-08 0 0
1e-08 0 0
1e-08 0 0
1e-08 0 0
1e-08 0 0
1e-08 0 0
1e-08 0 0
1e-08 0 0
1e-08 0 0
1e-08 0 0
1e-08 0 0
1e-08 0 0
0.000128736 -0.0079086 0
1e-08 0 0
1e-08 0 0
1e-08 0 0
1e-08 0 0
1e-08 0 0
1e-08 0 0
1e-08 0 0
1e-08 0 0
1e-08 0 0
1e-08 0 0
1e-08 0 0
1e-08 0 0
-0.00213938 0.0021773 0
1e-08 0 0
1e-08 0 0
1e-08 0 0
1e-08 0 0
1e-08 0 0
1e-08 0 0
1e-08 0 0
1e-08 0 0
1e-08 0 0
1e-08 0 0
1e-08 0 0
1e-08 0 0
1e-08 0 0
-0.000869856 -0.00706366 0
1e-08 0 0
1e-08 0 0
1e-08 0 0
1e-08 0 0
1e-08 0 0
1e-08 0 0
1e-08 0 0
1e-08 0 0
-0.00471951 0.00387785 0
1e-08 0 0
1e-08 0 0
1e-08 0 0
1e-08 0 0
1e-08 0 0
1e-08 0 0
1e-08 0 0
1e-08 0 0
1e-08 0 0
1e-08 0 0
1e-08 0 0
-0.00161154 -0.00619783 0
1e-08 0 0
1e-08 0 0
1e-08 0 0
1e-08 0 0
1e-08 0 0
1e-08 0 0
1e-08 0 0
-0.00905877 0.00546438 0
1e-08 0 0
1e-08 0 0
1e-08 0 0
1e-08 0 0
1e-08 0 0
1e-08 0 0
1e-08 0 0
1e-08 0 0
1e-08 0 0
1e-08 0 0
1e-08 0 0
-0.00298967 -0.00728219 0
1e-08 0 0
1e-08 0 0
1e-08 0 0
1e-08 0 0
1e-08 0 0
-0.0075815 0.00310011 0
1e-08 0 0
1e-08 0 0
1e-08 0 0
1e-08 0 0
1e-08 0 0
1e-08 0 0
1e-08 0 0
1e-08 0 0
-0.00527849 -0.00878008 0
1e-08 0 0
1e-08 0 0
1e-08 0 0
1e-08 0 0
-0.00629599 0.00161466 0
1e-08 0 0
1e-08 0 0
1e-08 0 0
1e-08 0 0
1e-08 0 0
1e-08 0 0
-0.00356994 -0.00439023 0
1e-08 0 0
1e-08 0 0
1e-08 0 0
-0.00719125 0.000855029 0
1e-08 0 0
1e-08 0 0
1e-08 0 0
1e-08 0 0
1e-08 0 0
1e-08 0 0
-0.00245124 -0.00243121 0
1e-08 0 0
1e-08 0 0
-0.00860693 -0.000205203 0
1e-08 0 0
1e-08 0 0
1e-08 0 0
1e-08 0 0
-0.00616196 -0.00482008 0
1e-08 0 0
-0.00332375 -0.000484645 0
1e-08 0 0
1e-08 0 0
-0.00666079 -0.00384001 0
-0.00547584 -0.00140199 0
-0.00733288 -0.00294279 0
