# vtk DataFile Version 2.0
CellBP Time: 9.88
ASCII
DATASET UNSTRUCTURED_GRID
POINTS 296 double
-8.92853 -3.65566 0
-8.37243 -4.80646 0
-9.31865 -2.43537 0
-9.59532 -1.20953 0
-8.08762 -2.70151 0
-7.65663 -5.87026 0
-6.80889 -6.83247 0
-7.64616 -3.72636 0
-7.08845 -4.69978 0
-5.88725 -7.70031 0
-4.86104 -8.43196 0
-9.70474 0.0381362 0
-9.64963 1.312 0
-8.40547 -1.61383 0
-8.56428 -0.502285 0
-7.33229 -1.90937 0
-6.95909 -2.7753 0
-6.43297 -5.6114 0
-5.66485 -6.44051 0
-6.53553 -3.73546 0
-6.00346 -4.52183 0
-3.7129 -8.99503 0
-2.48585 -9.39412 0
-4.79572 -7.14706 0
-3.85044 -7.73971 0
-8.57859 0.63162 0
-9.43173 2.58898 0
-8.43604 1.7223 0
-9.02238 3.80347 0
-7.50858 -0.878616 0
-7.57329 0.0909063 0
-6.72738 -1.24998 0
-1.21512 -9.63121 0
-6.23061 -2.06367 0
-6.10249 -2.93719 0
-5.35974 -5.32104 0
-4.66186 -5.96398 0
-5.46686 -3.63144 0
-5.09112 -4.42131 0
-2.81565 -8.1969 0
-1.7465 -8.45286 0
-3.84252 -6.57907 0
-3.01012 -7.01635 0
0.0555407 -9.69003 0
-7.50532 1.11604 0
-8.18035 2.85919 0
-7.36585 2.04714 0
-8.40811 4.92189 0
-7.70115 3.87194 0
-7.65055 5.95676 0
-6.5744 -0.369482 0
-6.75478 0.550045 0
-5.6107 -0.968219 0
-0.573228 -8.60172 0
0.548171 -8.53571 0
-5.15067 -2.39668 0
-4.34333 -4.95562 0
-3.79195 -5.63831 0
-4.31376 -3.70153 0
-2.02257 -7.40857 0
-1.11441 -7.61377 0
-2.92432 -5.96705 0
-2.27211 -6.48705 0
1.3089 -9.5711 0
-6.51251 1.38179 0
-6.98216 3.02606 0
-6.48581 2.30383 0
-7.10203 4.84278 0
-6.54309 3.88523 0
-6.80939 6.90228 0
-6.39505 5.72277 0
-5.86666 7.75819 0
-4.36586 -1.15861 0
-5.67515 0.493165 0
-4.57015 -0.0246786 0
-0.0108369 -7.64186 0
1.67425 -8.38427 0
0.900047 -7.53733 0
-3.9578 -2.35116 0
-3.45341 -1.37941 0
-3.21821 -4.6952 0
-3.21247 -3.20141 0
-1.36212 -6.5228 0
-0.522021 -6.84816 0
-1.94313 -5.42671 0
2.55641 -9.32401 0
-5.37602 1.99107 0
-5.93807 2.98085 0
-5.94149 4.71857 0
-5.60983 3.86557 0
-5.59803 6.51701 0
-5.30186 5.44473 0
-4.84007 8.51049 0
-4.69767 7.1791 0
-3.4618 -0.420633 0
-4.35847 1.22304 0
-3.65217 0.583443 0
-3.97756 2.29252 0
-3.70389 9.0783 0
2.75149 -8.04776 0
0.369874 -6.59924 0
1.93271 -7.27882 0
1.22885 -6.68605 0
-2.42604 -0.863706 0
-2.81187 -2.10468 0
-2.25991 -4.01964 0
-2.29672 -2.92247 0
-0.455856 -5.71485 0
-1.2001 -4.42284 0
3.76637 -8.93244 0
-4.67283 3.30665 0
-4.95123 4.45062 0
-4.51447 6.08229 0
-4.41082 5.19232 0
-3.74855 7.78436 0
-3.71043 6.62031 0
-2.7102 8.18671 0
-1.63311 -0.127064 0
-1.43552 -0.877886 0
-2.46986 0.517546 0
-3.20178 1.4362 0
-3.17185 3.2535 0
-2.86346 2.35858 0
-1.35051 0.639495 0
-2.48396 9.46261 0
3.79023 -7.61909 0
2.82889 -6.88672 0
0.897706 -5.64855 0
1.96995 -6.19333 0
-1.66595 -1.97337 0
-1.41328 -3.22833 0
0.0769128 -4.6443 0
-0.548539 -3.64266 0
4.76755 -7.06714 0
4.90846 -8.37597 0
-3.682 4.4333 0
-3.63045 5.57969 0
-2.79538 7.06421 0
-2.92556 6.16395 0
-1.6214 8.50157 0
-1.87924 7.40695 0
-2.29608 3.97241 0
-0.722586 -1.31701 0
-0.829648 -0.24448 0
-1.9307 1.68999 0
-2.10048 2.85408 0
-1.29776 3.50511 0
-0.8718 1.36416 0
-0.2842 0.468763 0
-0.521235 8.65659 0
-1.22433 9.69794 0
1.06952 -4.45345 0
3.74484 -6.43776 0
2.86002 -5.86564 0
2.02986 -5.24579 0
4.62253 -5.96778 0
-0.546821 -2.45519 0
0.487239 -3.40705 0
0.0568475 -1.60294 0
1.43859 -3.593 0
5.68714 -6.39188 0
5.97 -7.662 0
-2.41336 5.21232 0
-2.06052 6.35253 0
-0.873816 7.60773 0
-1.22093 6.74831 0
0.0939768 7.69885 0
-1.12639 4.41243 0
0.148706 -0.609449 0
-0.808348 2.49448 0
-0.346297 3.57218 0
0.0542443 1.52114 0
0.735072 0.477912 0
0.635878 8.68586 0
0.0420608 9.80847 0
2.30507 -4.15292 0
3.72239 -5.42121 0
2.8916 -5.02754 0
5.41712 -5.29909 0
4.54186 -5.07828 0
0.632017 -2.28277 0
1.23838 -2.90063 0
0.755422 -1.38508 0
2.11561 -3.06394 0
2.92312 -3.37739 0
6.00685 -4.64836 0
6.48344 -5.60144 0
6.92393 -6.80442 0
-0.984627 5.68425 0
-0.345493 6.71388 0
1.10155 7.60957 0
0.560666 6.92685 0
-0.00340962 4.64882 0
0.586983 3.78183 0
1.32833 -0.638411 0
0.520938 2.63823 0
0.948848 1.57679 0
1.89417 0.210286 0
1.59192 1.06299 0
2.09804 7.44374 0
1.76773 8.53744 0
1.32234 9.7378 0
3.71059 -4.203 0
4.97871 -4.28016 0
5.70976 -3.80768 0
3.69782 -3.1068 0
1.79734 -1.87538 0
2.96294 -2.52512 0
6.64282 -3.84366 0
7.22348 -4.77413 0
7.78856 -5.87447 0
0.484585 5.75922 0
1.40993 6.61119 0
2.33512 6.54893 0
1.18659 4.48566 0
1.46243 3.35375 0
2.4078 -0.687104 0
2.79533 0.140533 0
1.76635 2.14721 0
2.58322 1.13989 0
3.02364 7.03489 0
2.85654 8.21725 0
2.58925 9.49427 0
4.79613 -3.22059 0
5.99081 -3.01873 0
4.0973 -2.22895 0
3.19767 -1.48436 0
6.60999 -2.2706 0
7.10071 -2.98684 0
7.81192 -3.84117 0
8.52515 -4.85112 0
1.99439 5.50066 0
3.01086 6.02671 0
2.33326 4.05884 0
2.38853 3.01735 0
3.47637 -0.451554 0
3.57011 0.615911 0
2.92077 2.25832 0
3.48676 1.50509 0
3.90009 5.7711 0
3.89331 6.65165 0
3.90914 7.78822 0
3.81278 9.08972 0
5.46986 -1.87675 0
4.4371 -1.1099 0
6.58551 -1.30867 0
7.45163 -1.9932 0
8.2335 -2.81101 0
9.09336 -3.70845 0
3.32325 4.77079 0
3.2663 3.323 0
4.61207 0.135479 0
4.42176 1.28137 0
3.96404 2.38929 0
4.41669 5.02192 0
4.71153 6.04504 0
4.86655 7.22205 0
4.95605 8.52189 0
5.76285 -0.432493 0
6.85244 -0.489693 0
7.60557 -1.06131 0
8.51071 -1.71377 0
9.49452 -2.48264 0
4.40948 3.72816 0
5.6637 1.0497 0
5.20237 2.45232 0
5.18787 4.48543 0
5.43647 5.37236 0
5.73648 6.50804 0
5.98028 7.78851 0
6.66699 0.428303 0
7.66671 -0.0310219 0
8.67143 -0.565428 0
9.73421 -1.21297 0
6.76006 1.28367 0
5.51679 3.65317 0
6.33133 2.10444 0
6.15499 2.96997 0
6.06886 4.53483 0
6.48625 5.67665 0
6.91653 6.93108 0
7.57613 0.929185 0
8.64186 0.558063 0
9.79806 0.0634109 0
7.38613 1.92418 0
6.56442 3.75111 0
7.0157 2.83173 0
7.14087 4.73187 0
7.77492 5.9797 0
8.47483 1.67675 0
9.67594 1.31633 0
8.147 2.73821 0
7.73549 3.79132 0
8.48912 4.92005 0
9.43477 2.56628 0
9.04482 3.77737 0
CELLS 542 2168
3 2 0 4
3 0 1 7
3 4 0 7
3 1 5 8
3 7 1 8
3 3 2 13
3 13 2 4
3 11 3 14
3 14 3 13
3 13 4 15
3 4 7 16
3 15 4 16
3 5 6 17
3 8 5 17
3 6 9 18
3 17 6 18
3 7 8 19
3 16 7 19
3 8 17 20
3 19 8 20
3 9 10 23
3 18 9 23
3 10 21 24
3 23 10 24
3 12 11 25
3 25 11 14
3 26 12 27
3 27 12 25
3 14 13 29
3 29 13 15
3 25 14 30
3 30 14 29
3 29 15 31
3 15 16 33
3 31 15 33
3 16 19 34
3 33 16 34
3 17 18 35
3 20 17 35
3 18 23 36
3 35 18 36
3 19 20 37
3 34 19 37
3 20 35 38
3 37 20 38
3 21 22 39
3 24 21 39
3 22 32 40
3 39 22 40
3 23 24 41
3 36 23 41
3 24 39 42
3 41 24 42
3 27 25 44
3 44 25 30
3 28 26 45
3 45 26 27
3 45 27 46
3 46 27 44
3 47 28 48
3 48 28 45
3 30 29 50
3 50 29 31
3 44 30 51
3 51 30 50
3 50 31 52
3 31 33 52
3 32 43 53
3 40 32 53
3 53 43 54
3 33 34 55
3 34 37 55
3 33 55 52
3 35 36 56
3 38 35 56
3 36 41 57
3 56 36 57
3 37 38 58
3 38 56 58
3 37 58 55
3 39 40 59
3 42 39 59
3 40 53 60
3 59 40 60
3 41 42 61
3 57 41 61
3 42 59 62
3 61 42 62
3 43 63 54
3 46 44 64
3 64 44 51
3 48 45 65
3 65 45 46
3 65 46 66
3 66 46 64
3 49 47 67
3 67 47 48
3 67 48 68
3 68 48 65
3 69 49 70
3 70 49 67
3 52 55 72
3 64 51 73
3 51 50 73
3 50 52 73
3 73 52 74
3 74 52 72
3 53 54 75
3 60 53 75
3 54 63 76
3 54 76 77
3 75 54 77
3 55 58 78
3 72 55 78
3 72 78 79
3 56 57 80
3 57 61 80
3 56 80 58
3 58 80 81
3 78 58 81
3 59 60 82
3 62 59 82
3 60 75 83
3 82 60 83
3 61 62 84
3 62 82 84
3 61 84 80
3 63 85 76
3 66 64 86
3 64 73 86
3 68 65 87
3 87 65 66
3 87 66 86
3 70 67 88
3 88 67 68
3 88 68 89
3 89 68 87
3 71 69 90
3 90 69 70
3 90 70 91
3 91 70 88
3 92 71 93
3 93 71 90
3 74 72 94
3 94 72 79
3 86 73 95
3 95 73 74
3 95 74 96
3 96 74 94
3 97 86 95
3 76 85 99
3 75 77 100
3 83 75 100
3 76 99 101
3 77 76 101
3 77 101 102
3 100 77 102
3 94 79 103
3 78 81 104
3 79 78 104
3 79 104 103
3 80 84 105
3 81 80 105
3 81 105 106
3 104 81 106
3 82 83 107
3 83 100 107
3 82 107 84
3 84 107 108
3 105 84 108
3 85 109 99
3 89 87 110
3 87 86 110
3 110 86 97
3 91 88 111
3 111 88 89
3 111 89 110
3 93 90 112
3 112 90 91
3 112 91 113
3 113 91 111
3 98 92 114
3 114 92 93
3 114 93 115
3 115 93 112
3 116 98 114
3 117 103 118
3 96 94 119
3 94 103 119
3 119 103 117
3 97 95 120
3 120 95 96
3 120 96 119
3 121 110 97
3 121 97 122
3 122 97 120
3 123 119 117
3 124 98 116
3 99 109 125
3 99 125 126
3 101 99 126
3 100 102 127
3 100 127 107
3 101 126 128
3 102 101 128
3 102 128 127
3 104 106 129
3 104 129 103
3 103 129 118
3 105 108 130
3 106 105 130
3 106 130 129
3 107 127 131
3 108 107 131
3 108 131 132
3 108 132 130
3 109 134 125
3 125 134 133
3 113 111 135
3 111 110 135
3 135 110 121
3 115 112 136
3 136 112 113
3 136 113 135
3 116 114 137
3 137 114 115
3 137 115 138
3 138 115 136
3 139 124 116
3 139 116 140
3 140 116 137
3 141 135 121
3 118 129 142
3 118 142 143
3 117 118 143
3 123 117 143
3 122 120 144
3 120 119 144
3 144 119 123
3 141 121 145
3 145 121 122
3 145 122 144
3 146 141 145
3 147 144 123
3 147 123 148
3 143 148 123
3 150 124 139
3 149 150 139
3 131 127 151
3 125 133 152
3 126 125 152
3 126 152 153
3 128 126 153
3 128 153 154
3 128 154 127
3 127 154 151
3 152 133 155
3 130 132 156
3 130 156 129
3 129 156 142
3 131 151 157
3 132 131 157
3 132 157 156
3 156 158 142
3 157 151 159
3 133 160 155
3 134 161 133
3 133 161 160
3 138 136 162
3 136 135 162
3 162 135 141
3 140 137 163
3 163 137 138
3 163 138 162
3 149 139 164
3 164 139 140
3 164 140 165
3 165 140 163
3 166 149 164
3 167 162 141
3 167 141 146
3 142 158 168
3 143 142 168
3 143 168 148
3 146 145 169
3 145 144 169
3 169 144 147
3 170 167 146
3 170 146 169
3 171 169 147
3 171 147 148
3 171 148 172
3 168 172 148
3 173 149 166
3 174 150 149
3 173 174 149
3 154 175 151
3 151 175 159
3 152 155 176
3 153 152 176
3 153 176 177
3 153 177 154
3 154 177 175
3 155 160 178
3 155 178 179
3 176 155 179
3 156 157 180
3 156 180 158
3 157 159 181
3 157 181 180
3 158 180 182
3 158 182 168
3 159 175 183
3 159 183 181
3 175 184 183
3 160 186 178
3 178 186 185
3 161 187 160
3 160 187 186
3 165 163 188
3 163 162 188
3 188 162 167
3 166 164 189
3 189 164 165
3 189 165 188
3 190 173 166
3 190 166 191
3 191 166 189
3 192 188 167
3 192 167 170
3 193 192 170
3 182 194 168
3 194 172 168
3 193 170 195
3 170 169 195
3 195 169 171
3 196 195 171
3 196 171 172
3 194 197 172
3 197 198 172
3 198 196 172
3 200 173 190
3 199 200 190
3 201 174 173
3 200 201 173
3 176 179 202
3 177 176 202
3 177 202 175
3 175 202 184
3 178 185 203
3 178 203 179
3 179 203 202
3 203 185 204
3 202 205 184
3 183 206 181
3 180 181 206
3 180 206 182
3 182 206 194
3 183 184 207
3 205 207 184
3 183 207 206
3 185 208 204
3 186 209 185
3 185 209 208
3 187 210 186
3 186 210 209
3 191 189 211
3 189 188 211
3 211 188 192
3 199 190 212
3 212 190 191
3 212 191 211
3 213 199 212
3 214 211 192
3 214 192 193
3 215 214 193
3 215 193 195
3 206 216 194
3 216 197 194
3 216 217 197
3 215 195 218
3 218 195 196
3 198 218 196
3 217 219 197
3 219 218 198
3 197 219 198
3 220 199 213
3 221 200 199
3 220 221 199
3 222 201 200
3 221 222 200
3 203 204 223
3 203 223 202
3 202 223 205
3 204 208 224
3 204 224 223
3 205 223 225
3 205 225 207
3 207 225 226
3 207 226 206
3 226 216 206
3 208 228 224
3 224 228 227
3 209 229 208
3 229 228 208
3 210 230 209
3 209 230 229
3 213 212 231
3 212 211 231
3 231 211 214
3 232 220 213
3 232 213 231
3 233 231 214
3 233 214 215
3 234 233 215
3 234 215 218
3 226 235 216
3 235 217 216
3 235 236 217
3 217 236 219
3 237 234 218
3 237 218 219
3 236 238 219
3 238 237 219
3 240 220 232
3 239 240 232
3 241 221 220
3 240 241 220
3 242 222 221
3 241 242 221
3 224 227 243
3 224 243 223
3 223 243 225
3 225 243 244
3 225 244 226
3 226 244 235
3 227 245 243
3 228 246 227
3 227 246 245
3 229 247 228
3 228 247 246
3 230 248 229
3 229 248 247
3 239 232 249
3 232 231 249
3 249 231 233
3 250 249 233
3 250 233 234
3 237 250 234
3 244 251 235
3 235 251 236
3 251 252 236
3 236 252 238
3 252 253 238
3 253 250 237
3 253 237 238
3 254 239 249
3 255 240 239
3 254 255 239
3 256 241 240
3 255 256 240
3 257 242 241
3 256 257 241
3 245 258 243
3 243 258 244
3 244 258 251
3 245 259 258
3 246 260 245
3 245 260 259
3 247 261 246
3 246 261 260
3 248 262 247
3 247 262 261
3 254 249 263
3 263 249 250
3 253 263 250
3 258 264 251
3 251 264 252
3 264 265 252
3 265 263 253
3 252 265 253
3 266 254 263
3 267 255 254
3 266 267 254
3 268 256 255
3 267 268 255
3 269 257 256
3 268 269 256
3 259 270 258
3 270 264 258
3 260 271 259
3 259 271 270
3 261 272 260
3 260 272 271
3 262 273 261
3 273 272 261
3 270 274 264
3 275 266 263
3 275 263 265
3 274 276 264
3 276 265 264
3 276 277 265
3 277 275 265
3 278 267 266
3 275 278 266
3 279 268 267
3 278 279 267
3 280 269 268
3 279 280 268
3 271 281 270
3 270 281 274
3 272 282 271
3 271 282 281
3 273 283 272
3 272 283 282
3 281 284 274
3 274 284 276
3 285 278 275
3 277 285 275
3 284 286 276
3 286 285 277
3 276 286 277
3 287 279 278
3 285 287 278
3 288 280 279
3 287 288 279
3 282 289 281
3 281 289 284
3 283 290 282
3 282 290 289
3 289 291 284
3 284 291 286
3 291 292 286
3 292 287 285
3 286 292 285
3 293 288 287
3 292 293 287
3 290 294 289
3 289 294 291
3 294 295 291
3 295 293 292
3 291 295 292
CELL_TYPES 542
5
5
5
5
5
5
5
5
5
5
5
5
5
5
5
5
5
5
5
5
5
5
5
5
5
5
5
5
5
5
5
5
5
5
5
5
5
5
5
5
5
5
5
5
5
5
5
5
5
5
5
5
5
5
5
5
5
5
5
5
5
5
5
5
5
5
5
5
5
5
5
5
5
5
5
5
5
5
5
5
5
5
5
5
5
5
5
5
5
5
5
5
5
5
5
5
5
5
5
5
5
5
5
5
5
5
5
5
5
5
5
5
5
5
5
5
5
5
5
5
5
5
5
5
5
5
5
5
5
5
5
5
5
5
5
5
5
5
5
5
5
5
5
5
5
5
5
5
5
5
5
5
5
5
5
5
5
5
5
5
5
5
5
5
5
5
5
5
5
5
5
5
5
5
5
5
5
5
5
5
5
5
5
5
5
5
5
5
5
5
5
5
5
5
5
5
5
5
5
5
5
5
5
5
5
5
5
5
5
5
5
5
5
5
5
5
5
5
5
5
5
5
5
5
5
5
5
5
5
5
5
5
5
5
5
5
5
5
5
5
5
5
5
5
5
5
5
5
5
5
5
5
5
5
5
5
5
5
5
5
5
5
5
5
5
5
5
5
5
5
5
5
5
5
5
5
5
5
5
5
5
5
5
5
5
5
5
5
5
5
5
5
5
5
5
5
5
5
5
5
5
5
5
5
5
5
5
5
5
5
5
5
5
5
5
5
5
5
5
5
5
5
5
5
5
5
5
5
5
5
5
5
5
5
5
5
5
5
5
5
5
5
5
5
5
5
5
5
5
5
5
5
5
5
5
5
5
5
5
5
5
5
5
5
5
5
5
5
5
5
5
5
5
5
5
5
5
5
5
5
5
5
5
5
5
5
5
5
5
5
5
5
5
5
5
5
5
5
5
5
5
5
5
5
5
5
5
5
5
5
5
5
5
5
5
5
5
5
5
5
5
5
5
5
5
5
5
5
5
5
5
5
5
5
5
5
5
5
5
5
5
5
5
5
5
5
5
5
5
5
5
5
5
5
5
5
5
5
5
5
5
5
5
5
5
5
5
5
5
5
5
5
5
5
5
5
5
5
5
5
5
5
5
5
5
5
5
5
5
5
5
5
5
5
5
5
5
5
5
5
5
5
5
5
5
5
5
5
5
5
5
5
5
5
5
5
5
5
5
5
5
5
5
5
5
5
5
5
5
5
5
5
5
5
5
5
5
5
5
5
5
5
POINT_DATA 296
SCALARS concentrations float 4
LOOKUP_TABLE default
0 0.950237 0.113992 13.0504
0 0.95023 0.111096 10.8463
0 0.950261 0.110925 11.5198
0 0.950297 0.111155 8.5554
0 0.950252 0.0934587 7.39507
0 0.950244 0.108517 9.37394
0 0.95027 0.109753 11.4812
0 0.950254 0.0935014 7.34923
0 0.950247 0.0927797 7.21391
0 0.950244 0.112014 14.1001
0 0.950245 0.1106 12.2801
0 0.950277 0.109311 11.4668
0 0.950266 0.110778 10.7414
0 0.950284 0.0924112 7.07435
0 0.950288 0.0931118 7.54407
0 0.950275 0.0936877 7.50354
0 0.950273 0.0929072 7.20659
0 0.950272 0.0924434 7.27394
0 0.950264 0.0922416 7.31664
0 0.950275 0.0941774 7.3376
0 0.950281 0.0927447 6.95382
0 0.950242 0.109278 10.8419
0 0.950245 0.113704 12.056
0 0.950255 0.0929442 7.42729
0 0.950255 0.0936231 6.83802
0 0.950278 0.0925685 6.81446
0 0.950281 0.110572 10.777
0 0.950277 0.0935701 7.38695
0 0.950322 0.110478 6.86963
0 0.950286 0.0929757 7.16315
0 0.95029 0.0925758 6.88361
0 0.950286 0.0930275 6.99821
0 0.950292 0.114424 9.05351
0 0.950282 0.0934701 7.10962
0 0.950283 0.0933179 7.07373
0 0.950286 0.0927517 7.30637
0 0.950282 0.0927789 7.32088
0 0.950285 0.0930244 6.67691
0 0.950292 0.0936905 7.11807
0 0.950257 0.0932946 7.36108
0 0.950269 0.0937953 7.10667
0 0.950274 0.0941141 7.30856
0 0.950269 0.0934871 7.17513
0 0.95031 0.113241 9.54944
0 0.950289 0.0931739 7.08183
0 0.950304 0.0927998 7.15847
0 0.950297 0.0938203 7.78787
0 0.950313 0.109125 8.03597
0 0.950318 0.0930751 7.36017
0 0.950282 0.111368 13.0894
0 0.950291 0.0932811 7.26536
0 0.950292 0.0932212 7.18463
0 0.950282 0.0929844 6.97288
0 0.950301 0.093509 6.9977
0 0.950296 0.0933119 7.05957
0 0.95028 0.0945171 7.24468
0 0.950295 0.0929351 7.14677
0 0.950293 0.0937257 7.20807
0 0.950293 0.0931488 7.40111
0 0.950269 0.0947558 7.24256
0 0.950283 0.0941693 7.05191
0 0.950287 0.0938201 6.86053
0 0.950273 0.0939586 7.05034
0 0.95029 0.109019 9.04293
0 0.950295 0.0937172 7.55724
0 0.950307 0.0943526 7.8399
0 0.9503 0.0948146 7.12244
0 0.950297 0.092699 7.08734
0 0.950302 0.0931955 7.30942
0 0.950293 0.108766 8.05907
0 0.950285 0.0924445 7.18384
0 0.950305 0.109703 9.08325
0 0.950275 0.0949572 7.47629
0 0.950289 0.0936586 6.73135
0 0.950285 0.0976542 7.57796
0 0.950291 0.0933636 7.30426
0 0.950284 0.0925638 7.16671
0 0.950285 0.0928189 7.25154
0 0.950281 0.0968709 8.97705
0 0.950275 0.0983109 6.22385
0 0.950298 0.0944445 7.58547
0 0.950298 0.0946321 7.98644
0 0.950286 0.0998441 5.46904
0 0.950294 0.0931236 7.22125
0 0.950295 0.0935193 7.12315
0 0.950294 0.110413 10.3751
0 0.950296 0.0928583 7.05728
0 0.950302 0.0936864 7.18066
0 0.950292 0.0926664 7.39225
0 0.950298 0.0931365 7.10825
0 0.950305 0.0925238 7.03588
0 0.950298 0.0927352 7.50733
0 0.950293 0.109765 9.47842
0 0.950294 0.0928921 7.15112
0 0.950292 0.0953438 7.82165
0 0.950295 0.0931375 7.08469
0 0.9503 0.0932327 7.12388
0 0.950301 0.0928149 7.32871
0 0.950322 0.111398 9.48662
0 0.950294 0.0940062 7.14437
0 0.950288 0.0933923 6.96328
0 0.950273 0.0929231 7.28145
0 0.950282 0.0939689 7.2323
0 0.950295 0.0948701 6.27311
0 0.95029 0.0965333 5.74008
0 0.950299 0.0940401 7.52402
0 0.950303 0.0948762 7.90586
0 0.950296 0.0928918 7.0782
0 0.950298 0.0936867 7.09929
0 0.950323 0.11233 9.33272
0 0.950298 0.0926824 7.38125
0 0.950296 0.0929116 7.40726
0 0.950303 0.0927391 7.60037
0 0.950299 0.0926293 7.58414
0 0.950309 0.0935427 7.5578
0 0.9503 0.0936158 6.47483
0 0.950307 0.0928638 7.02953
0 0.950304 0.0940182 6.14278
0 0.950311 0.0934214 6.75935
0 0.9503 0.0931961 7.45814
0 0.950306 0.0929486 7.26825
0 0.950296 0.0931038 7.63388
0 0.950306 0.0931959 6.46845
0 0.950301 0.0936027 8.20089
0 0.950315 0.112043 9.72761
0 0.950312 0.095668 6.92784
0 0.950285 0.0960493 6.81518
0 0.950289 0.0940184 6.93287
0 0.950283 0.0941502 6.77365
0 0.950306 0.0956283 6.76588
0 0.950301 0.0956128 7.14704
0 0.950294 0.0933415 7.22521
0 0.9503 0.0927817 7.67827
0 0.950305 0.0937345 7.04316
0 0.950326 0.11 10.2743
0 0.950294 0.0922906 7.61399
0 0.950296 0.092894 7.64218
0 0.950299 0.095101 7.2858
0 0.950297 0.0934259 6.55999
0 0.950294 0.0926384 7.05483
0 0.950291 0.0931794 6.38279
0 0.950291 0.0928374 7.72234
0 0.950308 0.0947322 6.42829
0 0.950307 0.0939941 7.60017
0 0.950301 0.0936373 6.35544
0 0.950294 0.0942256 7.82482
0 0.950289 0.0931766 7.72712
0 0.950304 0.0935429 6.42008
0 0.950307 0.0942343 6.79713
0 0.950235 0.0933475 7.65281
0 0.950261 0.111786 10.8065
0 0.95029 0.093609 6.8858
0 0.950301 0.0969145 6.96057
0 0.950291 0.0941433 7.58883
0 0.950289 0.0941501 6.83767
0 0.950286 0.0934467 7.38229
0 0.950304 0.095521 6.80616
0 0.950305 0.0936418 6.84883
0 0.950296 0.0942367 6.65509
0 0.950294 0.0961632 8.11385
0 0.950269 0.0940292 7.20559
0 0.950284 0.109006 10.3181
0 0.950292 0.0926518 7.49567
0 0.950293 0.0936863 7.67083
0 0.950278 0.0927702 6.8039
0 0.950288 0.0936103 7.83352
0 0.950268 0.0942086 7.76541
0 0.950291 0.093549 6.40803
0 0.950308 0.0941834 7.75968
0 0.950299 0.0948239 5.91419
0 0.950297 0.0936959 7.31104
0 0.95031 0.0946684 6.24018
0 0.950308 0.0934 7.41597
0 0.950241 0.0941557 7.94345
0 0.950199 0.113591 15.5297
0 0.950287 0.0938705 7.52967
0 0.950285 0.0938409 6.98854
0 0.950284 0.0938016 7.18463
0 0.950277 0.0939042 6.95253
0 0.95028 0.094664 6.41603
0 0.950308 0.0987207 8.55646
0 0.950323 0.0949553 6.38394
0 0.9503 0.100275 7.82514
0 0.950298 0.0934784 6.684
0 0.950286 0.0930981 7.55499
0 0.950279 0.0937357 7.28363
0 0.950261 0.0934966 7.37768
0 0.950251 0.112172 10.1677
0 0.950292 0.0931742 7.64126
0 0.950287 0.0934679 7.65863
0 0.950273 0.0935087 7.01251
0 0.950285 0.0931989 7.63273
0 0.950297 0.0927082 6.60783
0 0.950304 0.0933058 6.6636
0 0.950305 0.094798 7.05501
0 0.950306 0.0938879 7.64117
0 0.950306 0.0947043 7.69154
0 0.950296 0.0936368 7.08184
0 0.950298 0.0937814 7.17775
0 0.950285 0.0947506 6.2354
0 0.950281 0.0926705 6.85948
0 0.950259 0.110647 11.7943
0 0.950281 0.0938145 7.53007
0 0.950284 0.0945477 6.81794
0 0.950288 0.0936846 6.67475
0 0.950283 0.0932593 7.6469
0 0.950298 0.100919 9.24022
0 0.950287 0.0934551 7.79923
0 0.950278 0.0939095 7.27292
0 0.950258 0.0936399 7.10688
0 0.950249 0.110271 12.4352
0 0.950296 0.0927225 7.37311
0 0.950288 0.0952832 6.26003
0 0.950292 0.0927156 7.20586
0 0.950301 0.092844 7.67462
0 0.950306 0.0933171 6.4954
0 0.950293 0.0929619 6.9661
0 0.950287 0.0939121 7.27945
0 0.950309 0.0940365 8.10664
0 0.9503 0.100801 8.5322
0 0.950292 0.0938502 7.07947
0 0.950279 0.0925268 7.26706
0 0.950286 0.109404 7.79523
0 0.950284 0.0932985 6.50378
0 0.950283 0.0935708 7.74774
0 0.950284 0.0936395 6.58015
0 0.950285 0.0930368 7.42518
0 0.950289 0.0954967 8.02961
0 0.950279 0.0936789 7.77027
0 0.950263 0.0936361 7.32054
0 0.950243 0.109307 12.9406
0 0.950298 0.095626 6.26228
0 0.950297 0.0940718 7.83436
0 0.950303 0.0947877 5.73488
0 0.95031 0.0936372 7.66865
0 0.950285 0.0942388 7.19247
0 0.950292 0.0948574 7.52157
0 0.950308 0.0968117 9.31634
0 0.950307 0.0952301 8.26635
0 0.950295 0.0940735 8.07173
0 0.950297 0.0942742 7.5682
0 0.950274 0.0938042 7.66052
0 0.950257 0.111804 13.7025
0 0.950286 0.094085 8.07367
0 0.950284 0.0934367 6.49051
0 0.950295 0.0941075 6.74677
0 0.950291 0.0942049 7.1224
0 0.950277 0.0930646 7.50423
0 0.950266 0.110646 9.78416
0 0.950298 0.0925954 6.79778
0 0.950297 0.0935484 8.22479
0 0.95029 0.0993622 7.04341
0 0.9503 0.0947167 7.6701
0 0.950296 0.0948579 6.88598
0 0.950296 0.0940976 6.62192
0 0.950299 0.0928825 6.88813
0 0.950287 0.092637 6.91065
0 0.950267 0.111803 10.7209
0 0.950292 0.094094 7.50099
0 0.950293 0.0941397 6.3999
0 0.9503 0.0934677 7.50516
0 0.950304 0.0929819 7.4923
0 0.950293 0.110114 9.49153
0 0.950292 0.0929099 6.4805
0 0.950295 0.0938441 7.25861
0 0.950293 0.0944207 7.82001
0 0.950295 0.0929471 6.47528
0 0.9503 0.0933696 7.55931
0 0.950296 0.0924667 6.48861
0 0.950282 0.109897 11.3242
0 0.950294 0.0931822 7.17387
0 0.950299 0.0926186 7.26793
0 0.950318 0.0932969 7.55469
0 0.950332 0.107263 7.59212
0 0.950295 0.0930214 7.14658
0 0.950289 0.0931365 6.48249
0 0.950293 0.0930898 6.8246
0 0.950292 0.0930361 6.55826
0 0.950289 0.093002 6.56712
0 0.950293 0.092684 7.4283
0 0.950302 0.110046 7.5294
0 0.950294 0.092474 7.09525
0 0.950295 0.0923247 7.05355
0 0.950312 0.110669 11.9098
0 0.950291 0.0929326 6.93869
0 0.950285 0.0932578 7.86149
0 0.950291 0.0934002 6.72657
0 0.950254 0.0927412 6.64052
0 0.950263 0.112203 12.1853
0 0.950289 0.0921755 6.79272
0 0.950284 0.111676 10.1841
0 0.950273 0.092309 6.626
0 0.95025 0.0927058 7.58381
0 0.950217 0.106393 9.0007
0 0.95028 0.113224 12.0785
0 0.950235 0.109582 10.6347
VECTORS fa_u float
0.0071568 0.002856 -0
0.00681454 0.00391375 -0
0.00290191 0.000791026 -0
0.00709688 0.00110778 -0
1e-08 0 0
0.0051947 0.00400892 -0
0.00244699 0.00236586 -0
1e-08 0 0
1e-08 0 0
0.00462677 0.00563447 -0
0.00535078 0.00898612 -0
0.00673511 0.000145062 -0
0.0060988 -0.000652759 0
1e-08 0 0
1e-08 0 0
1e-08 0 0
1e-08 0 0
1e-08 0 0
1e-08 0 0
1e-08 0 0
1e-08 0 0
0.00291412 0.0071938 -0
0.00160891 0.00631685 -0
1e-08 0 0
1e-08 0 0
1e-08 0 0
0.0091207 -0.00229621 0
1e-08 0 0
0.011164 -0.00489844 0
1e-08 0 0
1e-08 0 0
1e-08 0 0
0.000857991 0.00736871 -0
1e-08 0 0
1e-08 0 0
1e-08 0 0
1e-08 0 0
1e-08 0 0
1e-08 0 0
1e-08 0 0
1e-08 0 0
1e-08 0 0
1e-08 0 0
-0.000185897 0.00780487 -0
1e-08 0 0
1e-08 0 0
1e-08 0 0
0.00552155 -0.0035177 0
1e-08 0 0
0.00275952 -0.00222769 0
1e-08 0 0
1e-08 0 0
1e-08 0 0
1e-08 0 0
1e-08 0 0
1e-08 0 0
1e-08 0 0
1e-08 0 0
1e-08 0 0
1e-08 0 0
1e-08 0 0
1e-08 0 0
1e-08 0 0
-0.000581663 0.00397425 0
1e-08 0 0
1e-08 0 0
1e-08 0 0
1e-08 0 0
1e-08 0 0
0.00317131 -0.00314042 0
1e-08 0 0
0.00272017 -0.00333096 0
1e-08 0 0
1e-08 0 0
1e-08 0 0
1e-08 0 0
1e-08 0 0
1e-08 0 0
1e-08 0 0
1e-08 0 0
1e-08 0 0
1e-08 0 0
1e-08 0 0
1e-08 0 0
1e-08 0 0
-0.00136027 0.00523412 0
1e-08 0 0
1e-08 0 0
1e-08 0 0
1e-08 0 0
1e-08 0 0
1e-08 0 0
0.00581433 -0.00952582 0
1e-08 0 0
1e-08 0 0
1e-08 0 0
1e-08 0 0
1e-08 0 0
0.00366206 -0.00906213 0
1e-08 0 0
1e-08 0 0
1e-08 0 0
1e-08 0 0
1e-08 0 0
1e-08 0 0
1e-08 0 0
1e-08 0 0
1e-08 0 0
1e-08 0 0
-0.00288666 0.00716173 0
1e-08 0 0
1e-08 0 0
1e-08 0 0
1e-08 0 0
1e-08 0 0
1e-08 0 0
1e-08 0 0
1e-08 0 0
1e-08 0 0
1e-08 0 0
1e-08 0 0
1e-08 0 0
1e-08 0 0
1e-08 0 0
0.00137055 -0.00548441 0
1e-08 0 0
1e-08 0 0
1e-08 0 0
1e-08 0 0
1e-08 0 0
1e-08 0 0
1e-08 0 0
1e-08 0 0
1e-08 0 0
-0.00375379 0.0065111 0
1e-08 0 0
1e-08 0 0
1e-08 0 0
1e-08 0 0
1e-08 0 0
1e-08 0 0
1e-08 0 0
1e-08 0 0
1e-08 0 0
1e-08 0 0
1e-08 0 0
1e-08 0 0
1e-08 0 0
1e-08 0 0
1e-08 0 0
0.00050555 -0.0036923 0
1e-08 0 0
1e-08 0 0
1e-08 0 0
1e-08 0 0
1e-08 0 0
1e-08 0 0
1e-08 0 0
1e-08 0 0
1e-08 0 0
1e-08 0 0
-0.004696 0.0060225 0
1e-08 0 0
1e-08 0 0
1e-08 0 0
1e-08 0 0
1e-08 0 0
1e-08 0 0
1e-08 0 0
1e-08 0 0
1e-08 0 0
1e-08 0 0
1e-08 0 0
1e-08 0 0
0.00012343 -0.00788594 0
1e-08 0 0
1e-08 0 0
1e-08 0 0
1e-08 0 0
1e-08 0 0
1e-08 0 0
1e-08 0 0
1e-08 0 0
1e-08 0 0
1e-08 0 0
1e-08 0 0
1e-08 0 0
-0.00219756 0.00223571 0
1e-08 0 0
1e-08 0 0
1e-08 0 0
1e-08 0 0
1e-08 0 0
1e-08 0 0
1e-08 0 0
1e-08 0 0
1e-08 0 0
1e-08 0 0
1e-08 0 0
1e-08 0 0
1e-08 0 0
-0.000861038 -0.00698024 0
1e-08 0 0
1e-08 0 0
1e-08 0 0
1e-08 0 0
1e-08 0 0
1e-08 0 0
1e-08 0 0
1e-08 0 0
-0.00476943 0.00390973 0
1e-08 0 0
1e-08 0 0
1e-08 0 0
1e-08 0 0
1e-08 0 0
1e-08 0 0
1e-08 0 0
1e-08 0 0
1e-08 0 0
1e-08 0 0
1e-08 0 0
-0.00162991 -0.00626347 0
1e-08 0 0
1e-08 0 0
1e-08 0 0
1e-08 0 0
1e-08 0 0
1e-08 0 0
1e-08 0 0
-0.00885851 0.00533631 0
1e-08 0 0
1e-08 0 0
1e-08 0 0
1e-08 0 0
1e-08 0 0
1e-08 0 0
1e-08 0 0
1e-08 0 0
1e-08 0 0
1e-08 0 0
1e-08 0 0
-0.00296032 -0.00720557 0
1e-08 0 0
1e-08 0 0
1e-08 0 0
1e-08 0 0
1e-08 0 0
-0.00756883 0.00309776 0
1e-08 0 0
1e-08 0 0
1e-08 0 0
1e-08 0 0
1e-08 0 0
1e-08 0 0
1e-08 0 0
1e-08 0 0
-0.00519508 -0.00865374 0
1e-08 0 0
1e-08 0 0
1e-08 0 0
1e-08 0 0
-0.00628729 0.00161462 0
1e-08 0 0
1e-08 0 0
1e-08 0 0
1e-08 0 0
1e-08 0 0
1e-08 0 0
-0.00358121 -0.00441339 0
1e-08 0 0
1e-08 0 0
1e-08 0 0
-0.00718201 0.000856252 0
1e-08 0 0
1e-08 0 0
1e-08 0 0
1e-08 0 0
1e-08 0 0
1e-08 0 0
-0.00252009 -0.00250034 0
1e-08 0 0
1e-08 0 0
-0.00849412 -0.00019569 0
1e-08 0 0
1e-08 0 0
1e-08 0 0
1e-08 0 0
-0.00609432 -0.00476564 0
1e-08 0 0
-0.00340667 -0.000494482 0
1e-08 0 0
1e-08 0 0
-0.00667529 -0.00384906 0
-0.00554547 -0.00142212 0
-0.00723817 -0.002908 0
