# vtk DataFile Version 2.0
CellBP Time: 3.76
ASCII
DATASET UNSTRUCTURED_GRID
POINTS 296 double
-9.04936 -3.71167 0
-8.48302 -4.87295 0
-9.45262 -2.48266 0
-9.71904 -1.23095 0
-8.20836 -2.7528 0
-7.76171 -5.94772 0
-6.90717 -6.91957 0
-7.76799 -3.79218 0
-7.20112 -4.7746 0
-5.95768 -7.78536 0
-4.90327 -8.51466 0
-9.81807 0.0425655 0
-9.74952 1.3311 0
-8.52142 -1.64667 0
-8.66338 -0.515224 0
-7.44652 -1.95203 0
-7.0778 -2.83371 0
-6.5261 -5.68818 0
-5.73655 -6.51133 0
-6.64823 -3.80311 0
-6.09837 -4.58864 0
-3.74333 -9.08503 0
-2.51025 -9.49352 0
-4.84972 -7.22315 0
-3.87862 -7.80678 0
-8.67861 0.633376 0
-9.51433 2.61132 0
-8.52152 1.7463 0
-9.09938 3.83719 0
-7.61365 -0.901826 0
-7.6741 0.0856327 0
-6.82632 -1.27975 0
-1.23348 -9.73896 0
-6.32508 -2.10399 0
-6.19954 -2.99086 0
-5.44063 -5.39156 0
-4.7234 -6.03292 0
-5.55469 -3.6874 0
-5.17082 -4.48269 0
-2.83922 -8.2753 0
-1.76095 -8.53808 0
-3.8823 -6.64735 0
-3.03099 -7.0776 0
0.0531375 -9.81021 0
-7.59537 1.12734 0
-8.25322 2.88631 0
-7.44869 2.07599 0
-8.5007 4.98032 0
-7.78023 3.92178 0
-7.75683 6.03926 0
-6.66532 -0.380736 0
-6.84438 0.548972 0
-5.68226 -0.985418 0
-0.585242 -8.70041 0
0.552441 -8.64443 0
-5.21816 -2.43581 0
-4.41153 -5.01799 0
-3.84316 -5.69997 0
-4.37026 -3.74996 0
-2.04133 -7.47893 0
-1.1233 -7.69317 0
-2.95585 -6.02732 0
-2.28646 -6.54715 0
1.33 -9.70627 0
-6.59239 1.3986 0
-7.06578 3.06617 0
-6.56537 2.33358 0
-7.19054 4.90847 0
-6.6203 3.93728 0
-6.90515 7.00166 0
-6.47547 5.79992 0
-5.94427 7.86075 0
-4.40583 -1.16914 0
-5.73858 0.501395 0
-4.60923 -0.0192549 0
-0.00280707 -7.73682 0
1.70118 -8.50138 0
0.920866 -7.64007 0
-3.99443 -2.37597 0
-3.46793 -1.38444 0
-3.25338 -4.74533 0
-3.23816 -3.2329 0
-1.37003 -6.59146 0
-0.515942 -6.92644 0
-1.9589 -5.47568 0
2.5937 -9.45539 0
-5.43568 2.01017 0
-6.00758 3.02175 0
-6.01472 4.78624 0
-5.67682 3.92231 0
-5.67046 6.60842 0
-5.36882 5.52295 0
-4.89075 8.60262 0
-4.76013 7.27851 0
-3.47823 -0.421313 0
-4.40084 1.23394 0
-3.67922 0.587888 0
-4.01504 2.30504 0
-3.7376 9.17578 0
2.80055 -8.17559 0
0.393455 -6.68658 0
1.97133 -7.38736 0
1.26343 -6.78262 0
-2.43425 -0.867449 0
-2.82421 -2.11757 0
-2.27777 -4.05641 0
-2.31164 -2.9489 0
-0.450119 -5.78053 0
-1.21146 -4.45735 0
3.81718 -9.05075 0
-4.72745 3.34463 0
-5.01243 4.51413 0
-4.57279 6.16898 0
-4.47029 5.267 0
-3.79102 7.87589 0
-3.76237 6.72016 0
-2.74248 8.29073 0
-1.6418 -0.131543 0
-1.44257 -0.883608 0
-2.47798 0.513336 0
-3.22532 1.43969 0
-3.20308 3.28331 0
-2.88479 2.36509 0
-1.35157 0.633512 0
-2.50866 9.57636 0
3.85467 -7.73775 0
2.89041 -7.00795 0
0.922846 -5.72523 0
2.01586 -6.29086 0
-1.67376 -1.98388 0
-1.42288 -3.25281 0
0.083551 -4.6887 0
-0.557125 -3.66511 0
4.84069 -7.1782 0
4.97333 -8.48437 0
-3.72628 4.48512 0
-3.67822 5.65634 0
-2.83685 7.16385 0
-2.96275 6.24774 0
-1.64175 8.60817 0
-1.90367 7.50236 0
-2.31506 4.00896 0
-0.72579 -1.32159 0
-0.833322 -0.251463 0
-1.93256 1.68684 0
-2.11185 2.86326 0
-1.30247 3.52282 0
-0.87164 1.35763 0
-0.282507 0.462536 0
-0.52833 8.75637 0
-1.23823 9.8207 0
1.08937 -4.5088 0
3.81809 -6.56239 0
2.91719 -5.96772 0
2.06948 -5.32618 0
4.69489 -6.07168 0
-0.552085 -2.46567 0
0.490647 -3.43259 0
0.0545551 -1.60661 0
1.45764 -3.63434 0
5.77002 -6.49119 0
6.04684 -7.7642 0
-2.44211 5.27226 0
-2.09141 6.43136 0
-0.886777 7.69838 0
-1.24284 6.82902 0
0.0904763 7.78521 0
-1.13218 4.44962 0
0.150772 -0.613348 0
-0.802209 2.49339 0
-0.339654 3.58508 0
0.0579352 1.51561 0
0.736963 0.475814 0
0.64077 8.77452 0
0.0456299 9.92061 0
2.34016 -4.21274 0
3.78244 -5.51884 0
2.94004 -5.11086 0
5.48968 -5.38641 0
4.60868 -5.1667 0
0.631199 -2.2889 0
1.24531 -2.92495 0
0.757409 -1.38845 0
2.13688 -3.09713 0
2.95478 -3.42349 0
6.07238 -4.7103 0
6.563 -5.67521 0
7.01412 -6.90401 0
-1.00087 5.74564 0
-0.35677 6.79008 0
1.11181 7.68214 0
0.560166 6.99375 0
-0.000665289 4.68401 0
0.595989 3.80198 0
1.3343 -0.641424 0
0.530078 2.64358 0
0.956947 1.57363 0
1.90179 0.212462 0
1.60391 1.065 0
2.11402 7.50522 0
1.78345 8.61784 0
1.33773 9.84276 0
3.76225 -4.26835 0
5.04053 -4.35601 0
5.77141 -3.86515 0
3.73821 -3.15268 0
1.80352 -1.87958 0
2.98748 -2.54684 0
6.70832 -3.89124 0
7.2942 -4.83138 0
7.87821 -5.94994 0
0.484421 5.81439 0
1.4196 6.66937 0
2.35506 6.6022 0
1.19672 4.51776 0
1.47464 3.37596 0
2.42093 -0.6884 0
2.81111 0.143297 0
1.77601 2.15535 0
2.598 1.14441 0
3.04642 7.0971 0
2.87767 8.29067 0
2.61239 9.59375 0
4.8484 -3.26716 0
6.04984 -3.05823 0
4.1307 -2.25025 0
3.21789 -1.49294 0
6.66508 -2.28964 0
7.16201 -3.01189 0
7.88257 -3.87519 0
8.61017 -4.89687 0
2.00772 5.54474 0
3.0455 6.08523 0
2.3486 4.08987 0
2.40164 3.03845 0
3.49857 -0.457751 0
3.59026 0.614461 0
2.93866 2.27213 0
3.51466 1.51485 0
3.95021 5.82932 0
3.93691 6.71805 0
3.94061 7.85795 0
3.84339 9.18182 0
5.51368 -1.89486 0
4.47006 -1.11911 0
6.64379 -1.3209 0
7.5142 -2.01164 0
8.3104 -2.83409 0
9.18353 -3.74007 0
3.36892 4.81993 0
3.29911 3.35003 0
4.64825 0.133295 0
4.4644 1.29262 0
4.00871 2.41348 0
4.48682 5.08037 0
4.77183 6.1138 0
4.92011 7.2969 0
5.00054 8.6094 0
5.81775 -0.433938 0
6.92304 -0.486967 0
7.6766 -1.0693 0
8.59159 -1.72885 0
9.59352 -2.50772 0
4.47519 3.77387 0
5.73371 1.07318 0
5.27875 2.49132 0
5.27413 4.54659 0
5.51439 5.44333 0
5.81132 6.58287 0
6.05301 7.87815 0
6.74766 0.444233 0
7.7516 -0.0278917 0
8.76134 -0.573633 0
9.8401 -1.23138 0
6.84985 1.3139 0
5.60898 3.71119 0
6.42691 2.1468 0
6.25711 3.02508 0
6.16961 4.60513 0
6.58035 5.74742 0
7.01076 7.01848 0
7.67442 0.945271 0
8.745 0.563925 0
9.91436 0.0583914 0
7.4899 1.96052 0
6.68405 3.82162 0
7.13115 2.88308 0
7.25084 4.80308 0
7.87173 6.05297 0
8.58897 1.6972 0
9.80784 1.33481 0
8.27333 2.78207 0
7.84549 3.84661 0
8.59119 4.98012 0
9.56102 2.60001 0
9.15765 3.82368 0
CELLS 542 2168
3 2 0 4
3 0 1 7
3 4 0 7
3 1 5 8
3 7 1 8
3 3 2 13
3 13 2 4
3 11 3 14
3 14 3 13
3 13 4 15
3 4 7 16
3 15 4 16
3 5 6 17
3 8 5 17
3 6 9 18
3 17 6 18
3 7 8 19
3 16 7 19
3 8 17 20
3 19 8 20
3 9 10 23
3 18 9 23
3 10 21 24
3 23 10 24
3 12 11 25
3 25 11 14
3 26 12 27
3 27 12 25
3 14 13 29
3 29 13 15
3 25 14 30
3 30 14 29
3 29 15 31
3 15 16 33
3 31 15 33
3 16 19 34
3 33 16 34
3 17 18 35
3 20 17 35
3 18 23 36
3 35 18 36
3 19 20 37
3 34 19 37
3 20 35 38
3 37 20 38
3 21 22 39
3 24 21 39
3 22 32 40
3 39 22 40
3 23 24 41
3 36 23 41
3 24 39 42
3 41 24 42
3 27 25 44
3 44 25 30
3 28 26 45
3 45 26 27
3 45 27 46
3 46 27 44
3 47 28 48
3 48 28 45
3 30 29 50
3 50 29 31
3 44 30 51
3 51 30 50
3 50 31 52
3 31 33 52
3 32 43 53
3 40 32 53
3 53 43 54
3 33 34 55
3 34 37 55
3 33 55 52
3 35 36 56
3 38 35 56
3 36 41 57
3 56 36 57
3 37 38 58
3 38 56 58
3 37 58 55
3 39 40 59
3 42 39 59
3 40 53 60
3 59 40 60
3 41 42 61
3 57 41 61
3 42 59 62
3 61 42 62
3 43 63 54
3 46 44 64
3 64 44 51
3 48 45 65
3 65 45 46
3 65 46 66
3 66 46 64
3 49 47 67
3 67 47 48
3 67 48 68
3 68 48 65
3 69 49 70
3 70 49 67
3 52 55 72
3 64 51 73
3 51 50 73
3 50 52 73
3 73 52 74
3 74 52 72
3 53 54 75
3 60 53 75
3 54 63 76
3 54 76 77
3 75 54 77
3 55 58 78
3 72 55 78
3 72 78 79
3 56 57 80
3 57 61 80
3 56 80 58
3 58 80 81
3 78 58 81
3 59 60 82
3 62 59 82
3 60 75 83
3 82 60 83
3 61 62 84
3 62 82 84
3 61 84 80
3 63 85 76
3 66 64 86
3 64 73 86
3 68 65 87
3 87 65 66
3 87 66 86
3 70 67 88
3 88 67 68
3 88 68 89
3 89 68 87
3 71 69 90
3 90 69 70
3 90 70 91
3 91 70 88
3 92 71 93
3 93 71 90
3 74 72 94
3 94 72 79
3 86 73 95
3 95 73 74
3 95 74 96
3 96 74 94
3 97 86 95
3 76 85 99
3 75 77 100
3 83 75 100
3 76 99 101
3 77 76 101
3 77 101 102
3 100 77 102
3 94 79 103
3 78 81 104
3 79 78 104
3 79 104 103
3 80 84 105
3 81 80 105
3 81 105 106
3 104 81 106
3 82 83 107
3 83 100 107
3 82 107 84
3 84 107 108
3 105 84 108
3 85 109 99
3 89 87 110
3 87 86 110
3 110 86 97
3 91 88 111
3 111 88 89
3 111 89 110
3 93 90 112
3 112 90 91
3 112 91 113
3 113 91 111
3 98 92 114
3 114 92 93
3 114 93 115
3 115 93 112
3 116 98 114
3 117 103 118
3 96 94 119
3 94 103 119
3 119 103 117
3 97 95 120
3 120 95 96
3 120 96 119
3 121 110 97
3 121 97 122
3 122 97 120
3 123 119 117
3 124 98 116
3 99 109 125
3 99 125 126
3 101 99 126
3 100 102 127
3 100 127 107
3 101 126 128
3 102 101 128
3 102 128 127
3 104 106 129
3 104 129 103
3 103 129 118
3 105 108 130
3 106 105 130
3 106 130 129
3 107 127 131
3 108 107 131
3 108 131 132
3 108 132 130
3 109 134 125
3 125 134 133
3 113 111 135
3 111 110 135
3 135 110 121
3 115 112 136
3 136 112 113
3 136 113 135
3 116 114 137
3 137 114 115
3 137 115 138
3 138 115 136
3 139 124 116
3 139 116 140
3 140 116 137
3 141 135 121
3 118 129 142
3 118 142 143
3 117 118 143
3 123 117 143
3 122 120 144
3 120 119 144
3 144 119 123
3 141 121 145
3 145 121 122
3 145 122 144
3 146 141 145
3 147 144 123
3 147 123 148
3 143 148 123
3 150 124 139
3 149 150 139
3 131 127 151
3 125 133 152
3 126 125 152
3 126 152 153
3 128 126 153
3 128 153 154
3 128 154 127
3 127 154 151
3 152 133 155
3 130 132 156
3 130 156 129
3 129 156 142
3 131 151 157
3 132 131 157
3 132 157 156
3 156 158 142
3 157 151 159
3 133 160 155
3 134 161 133
3 133 161 160
3 138 136 162
3 136 135 162
3 162 135 141
3 140 137 163
3 163 137 138
3 163 138 162
3 149 139 164
3 164 139 140
3 164 140 165
3 165 140 163
3 166 149 164
3 167 162 141
3 167 141 146
3 142 158 168
3 143 142 168
3 143 168 148
3 146 145 169
3 145 144 169
3 169 144 147
3 170 167 146
3 170 146 169
3 171 169 147
3 171 147 148
3 171 148 172
3 168 172 148
3 173 149 166
3 174 150 149
3 173 174 149
3 154 175 151
3 151 175 159
3 152 155 176
3 153 152 176
3 153 176 177
3 153 177 154
3 154 177 175
3 155 160 178
3 155 178 179
3 176 155 179
3 156 157 180
3 156 180 158
3 157 159 181
3 157 181 180
3 158 180 182
3 158 182 168
3 159 175 183
3 159 183 181
3 175 184 183
3 160 186 178
3 178 186 185
3 161 187 160
3 160 187 186
3 165 163 188
3 163 162 188
3 188 162 167
3 166 164 189
3 189 164 165
3 189 165 188
3 190 173 166
3 190 166 191
3 191 166 189
3 192 188 167
3 192 167 170
3 193 192 170
3 182 194 168
3 194 172 168
3 193 170 195
3 170 169 195
3 195 169 171
3 196 195 171
3 196 171 172
3 194 197 172
3 197 198 172
3 198 196 172
3 200 173 190
3 199 200 190
3 201 174 173
3 200 201 173
3 176 179 202
3 177 176 202
3 177 202 175
3 175 202 184
3 178 185 203
3 178 203 179
3 179 203 202
3 203 185 204
3 202 205 184
3 183 206 181
3 180 181 206
3 180 206 182
3 182 206 194
3 183 184 207
3 205 207 184
3 183 207 206
3 185 208 204
3 186 209 185
3 185 209 208
3 187 210 186
3 186 210 209
3 191 189 211
3 189 188 211
3 211 188 192
3 199 190 212
3 212 190 191
3 212 191 211
3 213 199 212
3 214 211 192
3 214 192 193
3 215 214 193
3 215 193 195
3 206 216 194
3 216 197 194
3 216 217 197
3 215 195 218
3 218 195 196
3 198 218 196
3 217 219 197
3 219 218 198
3 197 219 198
3 220 199 213
3 221 200 199
3 220 221 199
3 222 201 200
3 221 222 200
3 203 204 223
3 203 223 202
3 202 223 205
3 204 208 224
3 204 224 223
3 205 223 225
3 205 225 207
3 207 225 226
3 207 226 206
3 226 216 206
3 208 228 224
3 224 228 227
3 209 229 208
3 229 228 208
3 210 230 209
3 209 230 229
3 213 212 231
3 212 211 231
3 231 211 214
3 232 220 213
3 232 213 231
3 233 231 214
3 233 214 215
3 234 233 215
3 234 215 218
3 226 235 216
3 235 217 216
3 235 236 217
3 217 236 219
3 237 234 218
3 237 218 219
3 236 238 219
3 238 237 219
3 240 220 232
3 239 240 232
3 241 221 220
3 240 241 220
3 242 222 221
3 241 242 221
3 224 227 243
3 224 243 223
3 223 243 225
3 225 243 244
3 225 244 226
3 226 244 235
3 227 245 243
3 228 246 227
3 227 246 245
3 229 247 228
3 228 247 246
3 230 248 229
3 229 248 247
3 239 232 249
3 232 231 249
3 249 231 233
3 250 249 233
3 250 233 234
3 237 250 234
3 244 251 235
3 235 251 236
3 251 252 236
3 236 252 238
3 252 253 238
3 253 250 237
3 253 237 238
3 254 239 249
3 255 240 239
3 254 255 239
3 256 241 240
3 255 256 240
3 257 242 241
3 256 257 241
3 245 258 243
3 243 258 244
3 244 258 251
3 245 259 258
3 246 260 245
3 245 260 259
3 247 261 246
3 246 261 260
3 248 262 247
3 247 262 261
3 254 249 263
3 263 249 250
3 253 263 250
3 258 264 251
3 251 264 252
3 264 265 252
3 265 263 253
3 252 265 253
3 266 254 263
3 267 255 254
3 266 267 254
3 268 256 255
3 267 268 255
3 269 257 256
3 268 269 256
3 259 270 258
3 270 264 258
3 260 271 259
3 259 271 270
3 261 272 260
3 260 272 271
3 262 273 261
3 273 272 261
3 270 274 264
3 275 266 263
3 275 263 265
3 274 276 264
3 276 265 264
3 276 277 265
3 277 275 265
3 278 267 266
3 275 278 266
3 279 268 267
3 278 279 267
3 280 269 268
3 279 280 268
3 271 281 270
3 270 281 274
3 272 282 271
3 271 282 281
3 273 283 272
3 272 283 282
3 281 284 274
3 274 284 276
3 285 278 275
3 277 285 275
3 284 286 276
3 286 285 277
3 276 286 277
3 287 279 278
3 285 287 278
3 288 280 279
3 287 288 279
3 282 289 281
3 281 289 284
3 283 290 282
3 282 290 289
3 289 291 284
3 284 291 286
3 291 292 286
3 292 287 285
3 286 292 285
3 293 288 287
3 292 293 287
3 290 294 289
3 289 294 291
3 294 295 291
3 295 293 292
3 291 295 292
CELL_TYPES 542
5
5
5
5
5
5
5
5
5
5
5
5
5
5
5
5
5
5
5
5
5
5
5
5
5
5
5
5
5
5
5
5
5
5
5
5
5
5
5
5
5
5
5
5
5
5
5
5
5
5
5
5
5
5
5
5
5
5
5
5
5
5
5
5
5
5
5
5
5
5
5
5
5
5
5
5
5
5
5
5
5
5
5
5
5
5
5
5
5
5
5
5
5
5
5
5
5
5
5
5
5
5
5
5
5
5
5
5
5
5
5
5
5
5
5
5
5
5
5
5
5
5
5
5
5
5
5
5
5
5
5
5
5
5
5
5
5
5
5
5
5
5
5
5
5
5
5
5
5
5
5
5
5
5
5
5
5
5
5
5
5
5
5
5
5
5
5
5
5
5
5
5
5
5
5
5
5
5
5
5
5
5
5
5
5
5
5
5
5
5
5
5
5
5
5
5
5
5
5
5
5
5
5
5
5
5
5
5
5
5
5
5
5
5
5
5
5
5
5
5
5
5
5
5
5
5
5
5
5
5
5
5
5
5
5
5
5
5
5
5
5
5
5
5
5
5
5
5
5
5
5
5
5
5
5
5
5
5
5
5
5
5
5
5
5
5
5
5
5
5
5
5
5
5
5
5
5
5
5
5
5
5
5
5
5
5
5
5
5
5
5
5
5
5
5
5
5
5
5
5
5
5
5
5
5
5
5
5
5
5
5
5
5
5
5
5
5
5
5
5
5
5
5
5
5
5
5
5
5
5
5
5
5
5
5
5
5
5
5
5
5
5
5
5
5
5
5
5
5
5
5
5
5
5
5
5
5
5
5
5
5
5
5
5
5
5
5
5
5
5
5
5
5
5
5
5
5
5
5
5
5
5
5
5
5
5
5
5
5
5
5
5
5
5
5
5
5
5
5
5
5
5
5
5
5
5
5
5
5
5
5
5
5
5
5
5
5
5
5
5
5
5
5
5
5
5
5
5
5
5
5
5
5
5
5
5
5
5
5
5
5
5
5
5
5
5
5
5
5
5
5
5
5
5
5
5
5
5
5
5
5
5
5
5
5
5
5
5
5
5
5
5
5
5
5
5
5
5
5
5
5
5
5
5
5
5
5
5
5
5
5
5
5
5
5
5
5
5
5
5
5
5
5
5
5
5
5
5
5
5
5
5
5
5
5
5
5
5
5
5
5
5
5
5
5
5
5
5
5
5
5
5
5
5
5
5
5
5
5
5
5
5
POINT_DATA 296
SCALARS concentrations float 4
LOOKUP_TABLE default
0 0.973049 0.166259 12.2942
0 0.973082 0.168681 18.3194
0 0.972928 0.166601 20.7564
0 0.972908 0.168247 26.6863
0 0.97303 0.0941732 7.71417
0 0.973195 0.1654 16.5408
0 0.973182 0.167843 13.3409
0 0.973082 0.102966 8.72758
0 0.973123 0.106238 5.44416
0 0.973065 0.166925 23.1453
0 0.97305 0.168535 17.9796
0 0.97301 0.170306 21.4692
0 0.972992 0.163269 11.7307
0 0.972956 0.0932316 7.3457
0 0.973 0.0933227 6.93645
0 0.973059 0.094738 8.14217
0 0.973085 0.0945957 8.37513
0 0.973158 0.094727 7.21529
0 0.973084 0.0941833 7.1624
0 0.973093 0.0961505 7.18645
0 0.97308 0.0967119 7.2841
0 0.973051 0.170653 16.4771
0 0.972911 0.167731 30.4926
0 0.973035 0.0944343 7.20613
0 0.973058 0.0951263 7.35532
0 0.973047 0.0936433 6.5564
0 0.972932 0.163731 24.9302
0 0.973005 0.0942918 6.17914
0 0.972982 0.166119 25.2438
0 0.973045 0.0945584 7.58817
0 0.973065 0.0934536 6.9815
0 0.973058 0.0946129 7.33451
0 0.972971 0.166297 24.3926
0 0.973061 0.0938737 6.66756
0 0.973069 0.0943703 6.26893
0 0.973056 0.0945485 7.01871
0 0.973031 0.0944547 7.73011
0 0.973055 0.0945318 6.76557
0 0.973047 0.0964875 7.86129
0 0.972987 0.0951916 7.56346
0 0.972935 0.0945673 7.44121
0 0.973034 0.0995518 6.43572
0 0.973037 0.0955123 7.33861
0 0.973055 0.169746 18.5074
0 0.973074 0.0939552 6.82631
0 0.972981 0.0944558 6.02275
0 0.973056 0.0949045 7.38161
0 0.973146 0.168822 18.6361
0 0.97306 0.0938336 7.24147
0 0.97312 0.171057 8.76677
0 0.973058 0.0934793 7.29819
0 0.973064 0.093823 7.14403
0 0.973045 0.0936305 7.38323
0 0.973004 0.0941062 7.28518
0 0.973085 0.094059 7.59426
0 0.973044 0.0944524 7.92472
0 0.97304 0.100218 7.85293
0 0.973035 0.0981817 6.77589
0 0.973041 0.0941805 6.48467
0 0.972995 0.0987441 6.37813
0 0.972991 0.0949795 7.40155
0 0.973057 0.098792 8.19023
0 0.973045 0.104407 5.26498
0 0.973168 0.16787 14.6281
0 0.973056 0.094279 7.0928
0 0.973049 0.0945068 6.74678
0 0.973054 0.0942849 6.65813
0 0.97313 0.093965 7.39522
0 0.973067 0.0940424 7.04551
0 0.972982 0.165329 25.7792
0 0.97303 0.0947981 7.25745
0 0.973093 0.164884 20.7922
0 0.973036 0.0953457 8.33838
0 0.973049 0.0947242 6.51399
0 0.973044 0.094698 7.85995
0 0.973025 0.0946301 7.08154
0 0.973131 0.0943198 7.49378
0 0.973059 0.0941596 7.49268
0 0.973037 0.0948937 7.5716
0 0.973048 0.0966997 7.5669
0 0.973054 0.0959965 6.51567
0 0.973049 0.0975572 8.95639
0 0.973034 0.0998899 6.92723
0 0.973044 0.096353 6.44991
0 0.973058 0.09726 6.7523
0 0.973178 0.172486 18.0431
0 0.973048 0.094027 7.09232
0 0.973052 0.095992 7.51364
0 0.973058 0.0937129 7.43779
0 0.973061 0.095424 6.84284
0 0.973023 0.0940357 6.3315
0 0.973027 0.0939841 7.5987
0 0.973087 0.163721 14.1048
0 0.973072 0.0946783 5.97285
0 0.973052 0.0946742 6.97799
0 0.973055 0.0933685 7.65011
0 0.973057 0.093943 7.07663
0 0.973052 0.0935864 7.22287
0 0.973211 0.16733 10.9101
0 0.973168 0.0938329 8.12854
0 0.973052 0.094456 7.57295
0 0.973085 0.0945925 7.91196
0 0.973058 0.094405 7.75406
0 0.973073 0.0964235 6.85964
0 0.973059 0.0946726 6.60271
0 0.973062 0.0976942 6.12172
0 0.973063 0.100149 9.3118
0 0.973054 0.0955242 6.60596
0 0.973062 0.0950678 7.05194
0 0.973234 0.162534 8.24218
0 0.973051 0.0939892 7.25661
0 0.973045 0.0975777 7.64195
0 0.973031 0.094715 7.84787
0 0.973031 0.0966404 6.20592
0 0.973114 0.0945627 6.54213
0 0.973037 0.0950778 7.3809
0 0.973222 0.0939254 8.37775
0 0.973092 0.0943922 7.16873
0 0.973087 0.0936721 6.71562
0 0.973072 0.0963556 7.73061
0 0.973067 0.0941148 7.85646
0 0.973048 0.0936021 6.52889
0 0.97306 0.0948464 7.55099
0 0.973096 0.0984821 7.50903
0 0.97328 0.1708 12.8113
0 0.973176 0.094955 8.16176
0 0.973115 0.0952805 8.38481
0 0.973049 0.0944336 6.28158
0 0.973065 0.0944427 7.69974
0 0.97308 0.0975417 7.58702
0 0.973076 0.0953412 7.19007
0 0.973049 0.0959379 7.96992
0 0.97307 0.0952902 7.32545
0 0.97308 0.0947821 6.74922
0 0.973128 0.166246 13.6347
0 0.973046 0.0937726 7.59137
0 0.973033 0.094988 7.90121
0 0.973083 0.106368 8.18511
0 0.973011 0.0949497 8.11543
0 0.973213 0.0930985 8.3978
0 0.973124 0.0951024 8.48037
0 0.973053 0.0933556 7.9156
0 0.973096 0.0943775 7.18767
0 0.973097 0.0936294 7.6556
0 0.973077 0.0992074 7.68306
0 0.973063 0.0945812 6.25472
0 0.973064 0.095211 6.62672
0 0.973089 0.0958523 8.08988
0 0.973103 0.0946947 8.11972
0 0.973171 0.0938193 6.23012
0 0.973231 0.16244 5.23047
0 0.973034 0.0943822 7.6738
0 0.973097 0.104828 10.0584
0 0.973063 0.0951399 7.85669
0 0.973041 0.0944134 5.90407
0 0.973075 0.0943056 7.7993
0 0.973085 0.0957028 7.86968
0 0.973064 0.096111 6.11541
0 0.9731 0.094415 6.95206
0 0.973054 0.0952812 6.21356
0 0.973044 0.0947933 7.22288
0 0.97302 0.166284 14.7163
0 0.973044 0.0941381 6.53112
0 0.973047 0.0950276 8.05778
0 0.973115 0.0932484 8.21766
0 0.973067 0.0945546 8.34875
0 0.973102 0.0937241 5.94001
0 0.973052 0.0934972 7.46737
0 0.973106 0.0951831 7.46093
0 0.973074 0.0969505 6.89535
0 0.973066 0.0949489 6.72243
0 0.973091 0.0950939 7.21402
0 0.973098 0.094198 7.33499
0 0.973144 0.0933104 6.08053
0 0.973183 0.168482 11.3146
0 0.973039 0.0946344 7.79403
0 0.973047 0.0952882 7.96706
0 0.973039 0.094237 8.12868
0 0.973094 0.0947674 7.81054
0 0.973058 0.0943496 8.37363
0 0.97309 0.0974106 7.82394
0 0.973096 0.0947647 7.39024
0 0.973102 0.0946899 7.27942
0 0.973072 0.0947031 6.48689
0 0.973054 0.0942787 7.98086
0 0.973097 0.0945257 7.49187
0 0.973114 0.0940808 7.44746
0 0.973025 0.168563 19.8894
0 0.973052 0.0940055 7.45712
0 0.973065 0.0937997 8.21289
0 0.973091 0.0940016 8.09486
0 0.973065 0.0932381 6.01491
0 0.973052 0.0938138 6.55452
0 0.973066 0.0948958 7.06839
0 0.973093 0.0951096 7.67469
0 0.973083 0.0947163 6.62129
0 0.973098 0.0951666 6.98669
0 0.973089 0.0943899 6.64942
0 0.973089 0.0946928 6.73881
0 0.973086 0.0958154 6.73775
0 0.973111 0.0936207 6.84333
0 0.973153 0.170965 17.0788
0 0.973042 0.0944889 7.6197
0 0.973057 0.105212 9.66754
0 0.973049 0.0950029 7.64257
0 0.973046 0.0944354 7.80325
0 0.973078 0.10021 8.3156
0 0.973065 0.094647 6.66768
0 0.973076 0.0940768 6.91058
0 0.973147 0.0941393 7.09038
0 0.973179 0.163297 6.95304
0 0.973055 0.0931958 6.19765
0 0.973066 0.0956002 6.33528
0 0.973065 0.10383 4.67823
0 0.97306 0.0954275 7.41247
0 0.973075 0.0938412 6.5681
0 0.973068 0.0950365 6.52094
0 0.973084 0.0940132 7.0904
0 0.973085 0.0940144 6.9956
0 0.973085 0.0949654 7.71017
0 0.973069 0.0939284 7.98973
0 0.973022 0.0929987 6.3294
0 0.973062 0.171342 17.2046
0 0.973038 0.09479 7.87325
0 0.973031 0.0953816 7.45491
0 0.973052 0.094911 6.01949
0 0.973053 0.0944634 6.2986
0 0.973028 0.0949878 7.97152
0 0.973064 0.0951565 7.15137
0 0.973113 0.0940026 7.26257
0 0.973141 0.167638 19.6131
0 0.973056 0.0954923 7.6935
0 0.97306 0.0953353 7.86608
0 0.973062 0.0945131 8.02274
0 0.973068 0.0942653 7.03454
0 0.973063 0.0945866 7.75061
0 0.973075 0.0936591 6.68722
0 0.973078 0.0947513 7.40186
0 0.973075 0.0936005 6.71502
0 0.973059 0.0935047 7.60046
0 0.973056 0.0946782 7.1839
0 0.973016 0.0936255 7.42803
0 0.972953 0.162844 24.0085
0 0.973034 0.0959481 7.30233
0 0.973051 0.0938093 7.02801
0 0.973047 0.0954665 6.21072
0 0.973076 0.0944469 7.79318
0 0.973138 0.094041 6.93699
0 0.97317 0.164671 11.9266
0 0.973059 0.102041 7.95291
0 0.973062 0.0944774 7.14608
0 0.973053 0.0931532 6.87762
0 0.97305 0.094705 6.33666
0 0.973059 0.0947091 7.5644
0 0.973058 0.0940514 6.57932
0 0.973039 0.0934531 7.39438
0 0.973039 0.0938181 7.21947
0 0.973037 0.171615 16.4424
0 0.973047 0.0944802 7.04197
0 0.973081 0.0948223 8.10874
0 0.973098 0.095792 6.66262
0 0.973139 0.094393 7.2561
0 0.973175 0.16623 15.4219
0 0.973062 0.0944456 6.56598
0 0.973046 0.0933289 7.35191
0 0.973054 0.0948364 6.55483
0 0.973067 0.0946301 6.97799
0 0.973032 0.0942144 7.0002
0 0.973009 0.0926458 7.33406
0 0.973006 0.167929 21.3352
0 0.973066 0.0947517 6.24856
0 0.973103 0.0946316 6.67914
0 0.973138 0.0938233 7.17624
0 0.973162 0.168535 15.3081
0 0.973049 0.0936154 7.27692
0 0.973068 0.0941245 7.7195
0 0.97305 0.0943876 7.53911
0 0.973055 0.0948478 7.79072
0 0.973028 0.0944451 7.42127
0 0.973014 0.0934051 7.53518
0 0.973019 0.167722 29.6193
0 0.973071 0.094035 7.34082
0 0.973073 0.0938812 7.24396
0 0.973124 0.162216 8.77721
0 0.973052 0.0945519 6.60705
0 0.973029 0.0952147 7.67348
0 0.973043 0.0953603 7.17328
0 0.972978 0.0953786 6.99194
0 0.972991 0.165489 20.0999
0 0.973006 0.0937991 6.69511
0 0.972987 0.164854 19.9433
0 0.973043 0.0941461 6.65836
0 0.973021 0.0953616 6.68782
0 0.972974 0.16374 29.0613
0 0.972992 0.169501 21.5224
0 0.973046 0.163501 14.7899
VECTORS fa_u float
0.00667164 0.00270629 -0
0.00629483 0.00362494 -0
0.00431162 0.00116394 -0
0.00673117 0.000974128 -0
1e-08 0 0
0.00516848 0.00397961 -0
0.00335265 0.00329134 -0
1e-08 0 0
1e-08 0 0
0.00435372 0.00546955 -0
0.00429263 0.00731366 -0
0.00663349 7.8912e-05 -0
0.00630828 -0.000745908 0
1e-08 0 0
1e-08 0 0
1e-08 0 0
1e-08 0 0
1e-08 0 0
1e-08 0 0
1e-08 0 0
1e-08 0 0
0.00273585 0.00668836 -0
0.0016328 0.00626684 -0
1e-08 0 0
1e-08 0 0
1e-08 0 0
0.00777423 -0.00201683 0
1e-08 0 0
0.00861871 -0.00368773 0
1e-08 0 0
1e-08 0 0
1e-08 0 0
0.000854969 0.00692031 -0
1e-08 0 0
1e-08 0 0
1e-08 0 0
1e-08 0 0
1e-08 0 0
1e-08 0 0
1e-08 0 0
1e-08 0 0
1e-08 0 0
1e-08 0 0
-9.21523e-05 0.00722612 -0
1e-08 0 0
1e-08 0 0
1e-08 0 0
0.00555781 -0.00338846 0
1e-08 0 0
0.0038116 -0.00300868 0
1e-08 0 0
1e-08 0 0
1e-08 0 0
1e-08 0 0
1e-08 0 0
1e-08 0 0
1e-08 0 0
1e-08 0 0
1e-08 0 0
1e-08 0 0
1e-08 0 0
1e-08 0 0
1e-08 0 0
-0.000707079 0.00506275 0
1e-08 0 0
1e-08 0 0
1e-08 0 0
1e-08 0 0
1e-08 0 0
0.00374794 -0.00372954 0
1e-08 0 0
0.00323964 -0.00407627 0
1e-08 0 0
1e-08 0 0
1e-08 0 0
1e-08 0 0
1e-08 0 0
1e-08 0 0
1e-08 0 0
1e-08 0 0
1e-08 0 0
1e-08 0 0
1e-08 0 0
1e-08 0 0
1e-08 0 0
-0.00150159 0.00569732 0
1e-08 0 0
1e-08 0 0
1e-08 0 0
1e-08 0 0
1e-08 0 0
1e-08 0 0
0.00458351 -0.00769133 0
1e-08 0 0
1e-08 0 0
1e-08 0 0
1e-08 0 0
1e-08 0 0
0.00311975 -0.00763194 0
1e-08 0 0
1e-08 0 0
1e-08 0 0
1e-08 0 0
1e-08 0 0
1e-08 0 0
1e-08 0 0
1e-08 0 0
1e-08 0 0
1e-08 0 0
-0.00270702 0.00663397 0
1e-08 0 0
1e-08 0 0
1e-08 0 0
1e-08 0 0
1e-08 0 0
1e-08 0 0
1e-08 0 0
1e-08 0 0
1e-08 0 0
1e-08 0 0
1e-08 0 0
1e-08 0 0
1e-08 0 0
1e-08 0 0
0.00150659 -0.00583878 0
1e-08 0 0
1e-08 0 0
1e-08 0 0
1e-08 0 0
1e-08 0 0
1e-08 0 0
1e-08 0 0
1e-08 0 0
1e-08 0 0
-0.00353628 0.00612856 0
1e-08 0 0
1e-08 0 0
1e-08 0 0
1e-08 0 0
1e-08 0 0
1e-08 0 0
1e-08 0 0
1e-08 0 0
1e-08 0 0
1e-08 0 0
1e-08 0 0
1e-08 0 0
1e-08 0 0
1e-08 0 0
1e-08 0 0
0.000651341 -0.00483289 0
1e-08 0 0
1e-08 0 0
1e-08 0 0
1e-08 0 0
1e-08 0 0
1e-08 0 0
1e-08 0 0
1e-08 0 0
1e-08 0 0
1e-08 0 0
-0.00435837 0.00562816 0
1e-08 0 0
1e-08 0 0
1e-08 0 0
1e-08 0 0
1e-08 0 0
1e-08 0 0
1e-08 0 0
1e-08 0 0
1e-08 0 0
1e-08 0 0
1e-08 0 0
1e-08 0 0
6.27568e-05 -0.00732865 0
1e-08 0 0
1e-08 0 0
1e-08 0 0
1e-08 0 0
1e-08 0 0
1e-08 0 0
1e-08 0 0
1e-08 0 0
1e-08 0 0
1e-08 0 0
1e-08 0 0
1e-08 0 0
-0.00317108 0.00320098 0
1e-08 0 0
1e-08 0 0
1e-08 0 0
1e-08 0 0
1e-08 0 0
1e-08 0 0
1e-08 0 0
1e-08 0 0
1e-08 0 0
1e-08 0 0
1e-08 0 0
1e-08 0 0
1e-08 0 0
-0.000855231 -0.00671601 0
1e-08 0 0
1e-08 0 0
1e-08 0 0
1e-08 0 0
1e-08 0 0
1e-08 0 0
1e-08 0 0
1e-08 0 0
-0.00501483 0.00398773 0
1e-08 0 0
1e-08 0 0
1e-08 0 0
1e-08 0 0
1e-08 0 0
1e-08 0 0
1e-08 0 0
1e-08 0 0
1e-08 0 0
1e-08 0 0
1e-08 0 0
-0.00165394 -0.00627017 0
1e-08 0 0
1e-08 0 0
1e-08 0 0
1e-08 0 0
1e-08 0 0
1e-08 0 0
1e-08 0 0
-0.00722193 0.00426585 0
1e-08 0 0
1e-08 0 0
1e-08 0 0
1e-08 0 0
1e-08 0 0
1e-08 0 0
1e-08 0 0
1e-08 0 0
1e-08 0 0
1e-08 0 0
1e-08 0 0
-0.00273033 -0.00662409 0
1e-08 0 0
1e-08 0 0
1e-08 0 0
1e-08 0 0
1e-08 0 0
-0.0068696 0.00282747 0
1e-08 0 0
1e-08 0 0
1e-08 0 0
1e-08 0 0
1e-08 0 0
1e-08 0 0
1e-08 0 0
1e-08 0 0
-0.00429773 -0.00728432 0
1e-08 0 0
1e-08 0 0
1e-08 0 0
1e-08 0 0
-0.00630167 0.00164925 0
1e-08 0 0
1e-08 0 0
1e-08 0 0
1e-08 0 0
1e-08 0 0
1e-08 0 0
-0.00371868 -0.00469876 0
1e-08 0 0
1e-08 0 0
1e-08 0 0
-0.00677954 0.000847635 0
1e-08 0 0
1e-08 0 0
1e-08 0 0
1e-08 0 0
1e-08 0 0
1e-08 0 0
-0.00337856 -0.0033666 0
1e-08 0 0
1e-08 0 0
-0.00767025 -9.63976e-05 0
1e-08 0 0
1e-08 0 0
1e-08 0 0
1e-08 0 0
-0.00575612 -0.00446299 0
1e-08 0 0
-0.00460235 -0.000639834 0
1e-08 0 0
1e-08 0 0
-0.00611942 -0.00352988 0
-0.00591623 -0.00154555 0
-0.00672661 -0.0027409 0
