# vtk DataFile Version 2.0
CellBP Time: 6.44
ASCII
DATASET UNSTRUCTURED_GRID
POINTS 296 double
-8.97476 -3.67708 0
-8.41518 -4.83221 0
-9.36994 -2.4534 0
-9.64286 -1.2179 0
-8.1307 -2.72132 0
-7.69687 -5.90021 0
-6.84658 -6.86608 0
-7.68977 -3.7504 0
-7.13031 -4.72618 0
-5.91456 -7.73339 0
-4.87786 -8.46413 0
-9.74815 0.0391791 0
-9.68829 1.31889 0
-8.44937 -1.62661 0
-8.5996 -0.506858 0
-7.37427 -1.92565 0
-7.00325 -2.79671 0
-6.46983 -5.63989 0
-5.69417 -6.46478 0
-6.57643 -3.76008 0
-6.03709 -4.54572 0
-3.72509 -9.03017 0
-2.49532 -9.43302 0
-4.81666 -7.17599 0
-3.86007 -7.76262 0
-8.61635 0.6304 0
-9.46422 2.5974 0
-8.46733 1.73133 0
-9.05274 3.81647 0
-7.54797 -0.888356 0
-7.61171 0.0883026 0
-6.76217 -1.25992 0
-1.22193 -9.6726 0
-6.26433 -2.07797 0
-6.13693 -2.95694 0
-5.38988 -5.34813 0
-4.68511 -5.99323 0
-5.49778 -3.65253 0
-5.11955 -4.44422 0
-2.82458 -8.22392 0
-1.75288 -8.48412 0
-3.8571 -6.60354 0
-3.01737 -7.03863 0
0.0548544 -9.73604 0
-7.5378 1.11909 0
-8.2068 2.8702 0
-7.39465 2.05745 0
-8.44345 4.94386 0
-7.72801 3.89142 0
-7.69072 5.98739 0
-6.60668 -0.373228 0
-6.7857 0.548536 0
-5.63703 -0.976767 0
-0.57823 -8.63842 0
0.549387 -8.57605 0
-5.17551 -2.41024 0
-4.36777 -4.97897 0
-3.8119 -5.66217 0
-4.33483 -3.71885 0
-2.03035 -7.43319 0
-1.11946 -7.64261 0
-2.9355 -5.98976 0
-2.27699 -6.50838 0
1.3168 -9.62208 0
-6.54022 1.38663 0
-7.01298 3.03937 0
-6.51503 2.31371 0
-7.13665 4.86625 0
-6.56888 3.90351 0
-6.84517 6.93911 0
-6.4252 5.75122 0
-5.89599 7.79664 0
-4.38095 -1.16284 0
-5.69806 0.496676 0
-4.58443 -0.0227099 0
-0.00800306 -7.6784 0
1.68408 -8.42614 0
0.90611 -7.57611 0
-3.97144 -2.36138 0
-3.45887 -1.38086 0
-3.22999 -4.71261 0
-3.22187 -3.21293 0
-1.36546 -6.54898 0
-0.519635 -6.87613 0
-1.94969 -5.4438 0
2.57044 -9.37354 0
-5.39859 1.99702 0
-5.96303 2.99475 0
-5.96902 4.74421 0
-5.63339 3.8872 0
-5.62332 6.55287 0
-5.32638 5.47589 0
-4.8595 8.54548 0
-4.7195 7.21424 0
-3.4668 -0.41988 0
-4.37402 1.22833 0
-3.66217 0.585349 0
-3.98998 2.29647 0
-3.71699 9.11571 0
2.76904 -8.09496 0
0.378414 -6.6319 0
1.94353 -7.31776 0
1.23999 -6.72046 0
-2.42899 -0.864063 0
-2.81688 -2.10987 0
-2.26571 -4.03299 0
-2.30319 -2.93337 0
-0.454494 -5.73736 0
-1.20526 -4.43524 0
3.78566 -8.97696 0
-4.69374 3.31966 0
-4.97418 4.47422 0
-4.53578 6.11196 0
-4.43359 5.22028 0
-3.76387 7.81639 0
-3.7281 6.65613 0
-2.72045 8.22348 0
-1.637 -0.129337 0
-1.43845 -0.881239 0
-2.47361 0.515718 0
-3.21062 1.43662 0
-3.18398 3.26363 0
-2.87062 2.36069 0
-1.35132 0.637039 0
-2.49343 9.50586 0
3.81252 -7.66087 0
2.85159 -6.93032 0
0.906856 -5.67581 0
1.98665 -6.22803 0
-1.66853 -1.9773 0
-1.41613 -3.23859 0
0.0800582 -4.66008 0
-0.551691 -3.64984 0
4.79261 -7.10563 0
4.93301 -8.417 0
-3.69771 4.45186 0
-3.64797 5.60593 0
-2.80983 7.09976 0
-2.93823 6.19431 0
-1.62783 8.54225 0
-1.88792 7.44104 0
-2.30212 3.9859 0
-0.723281 -1.3179 0
-0.831585 -0.249699 0
-1.92912 1.68891 0
-2.10433 2.85642 0
-1.29916 3.51044 0
-0.872886 1.36266 0
-0.283941 0.466014 0
-0.523425 8.69543 0
-1.2296 9.7443 0
1.07613 -4.47371 0
3.77122 -6.48338 0
2.8816 -5.90209 0
2.04416 -5.27573 0
4.64895 -6.00398 0
-0.549147 -2.45889 0
0.489686 -3.4163 0
0.0570867 -1.6042 0
1.44484 -3.60814 0
5.71848 -6.42845 0
5.99921 -7.70089 0
-2.4227 5.23398 0
-2.07156 6.37989 0
-0.879397 7.64251 0
-1.23002 6.77571 0
0.0918677 7.73252 0
-1.12695 4.42678 0
0.150733 -0.609997 0
-0.806242 2.49385 0
-0.343987 3.57805 0
0.0549235 1.51889 0
0.732568 0.47701 0
0.639066 8.71952 0
0.0432437 9.85157 0
2.3181 -4.17431 0
3.74314 -5.4553 0
2.91019 -5.05729 0
5.44484 -5.33228 0
4.5653 -5.10732 0
0.633311 -2.28437 0
1.23999 -2.9092 0
0.757035 -1.3858 0
2.12359 -3.07593 0
2.93477 -3.39425 0
6.02944 -4.66864 0
6.51251 -5.628 0
6.9582 -6.84218 0
-0.989457 5.70493 0
-0.350091 6.74143 0
1.10556 7.63572 0
0.560331 6.94913 0
-0.00218915 4.66198 0
0.590046 3.78921 0
1.33054 -0.639574 0
0.52354 2.6394 0
0.950842 1.57523 0
1.89584 0.211859 0
1.59614 1.06447 0
2.10476 7.46395 0
1.77503 8.56539 0
1.32826 9.77825 0
3.73037 -4.22623 0
5.00158 -4.30807 0
5.73119 -3.82898 0
3.71217 -3.12509 0
1.79914 -1.87712 0
2.97123 -2.53228 0
6.66711 -3.86009 0
7.2493 -4.79516 0
7.82276 -5.90316 0
0.484712 5.77891 0
1.41284 6.63142 0
2.34262 6.56748 0
1.18872 4.49835 0
1.46721 3.36297 0
2.41269 -0.686605 0
2.80145 0.141361 0
1.77007 2.15004 0
2.589 1.14092 0
3.03136 7.05922 0
2.86584 8.24526 0
2.59842 9.53267 0
4.81372 -3.23749 0
6.01237 -3.03152 0
4.10883 -2.23607 0
3.20469 -1.48701 0
6.63014 -2.27764 0
7.12502 -2.99639 0
7.83957 -3.85391 0
8.55816 -4.8691 0
1.99936 5.51603 0
3.02357 6.04874 0
2.34068 4.07011 0
2.39256 3.02654 0
3.48281 -0.453886 0
3.57838 0.615127 0
2.92765 2.2632 0
3.49607 1.50904 0
3.91735 5.79249 0
3.9096 6.67732 0
3.92341 7.815 0
3.82493 9.12555 0
5.48541 -1.88241 0
4.44822 -1.11201 0
6.60633 -1.31274 0
7.47502 -1.99987 0
8.26306 -2.81963 0
9.1279 -3.72065 0
3.33988 4.78782 0
3.27711 3.33226 0
4.62511 0.134743 0
4.43654 1.28511 0
3.98045 2.39818 0
4.44276 5.04247 0
4.73338 6.07108 0
4.88675 7.24856 0
4.9736 8.55588 0
5.78224 -0.433473 0
6.87816 -0.487764 0
7.63205 -1.06354 0
8.54213 -1.71824 0
9.53268 -2.49207 0
4.43394 3.74451 0
5.69001 1.05762 0
5.23 2.46685 0
5.21865 4.50729 0
5.46366 5.39937 0
5.76666 6.53317 0
6.00832 7.82299 0
6.69603 0.434358 0
7.6975 -0.0286645 0
8.70581 -0.566443 0
9.77494 -1.21961 0
6.79398 1.29479 0
5.55049 3.67516 0
6.36617 2.11925 0
6.19268 2.98989 0
6.10519 4.56179 0
6.51994 5.70104 0
6.95266 6.96468 0
7.61239 0.934039 0
8.683 0.561051 0
9.84289 0.0620149 0
7.42305 1.93789 0
6.60658 3.77836 0
7.05657 2.84866 0
7.18185 4.75777 0
7.81219 6.00781 0
8.5169 1.68393 0
9.72651 1.32344 0
8.19373 2.75549 0
7.77349 3.81026 0
8.52856 4.94319 0
9.48321 2.57933 0
9.08836 3.7953 0
CELLS 542 2168
3 2 0 4
3 0 1 7
3 4 0 7
3 1 5 8
3 7 1 8
3 3 2 13
3 13 2 4
3 11 3 14
3 14 3 13
3 13 4 15
3 4 7 16
3 15 4 16
3 5 6 17
3 8 5 17
3 6 9 18
3 17 6 18
3 7 8 19
3 16 7 19
3 8 17 20
3 19 8 20
3 9 10 23
3 18 9 23
3 10 21 24
3 23 10 24
3 12 11 25
3 25 11 14
3 26 12 27
3 27 12 25
3 14 13 29
3 29 13 15
3 25 14 30
3 30 14 29
3 29 15 31
3 15 16 33
3 31 15 33
3 16 19 34
3 33 16 34
3 17 18 35
3 20 17 35
3 18 23 36
3 35 18 36
3 19 20 37
3 34 19 37
3 20 35 38
3 37 20 38
3 21 22 39
3 24 21 39
3 22 32 40
3 39 22 40
3 23 24 41
3 36 23 41
3 24 39 42
3 41 24 42
3 27 25 44
3 44 25 30
3 28 26 45
3 45 26 27
3 45 27 46
3 46 27 44
3 47 28 48
3 48 28 45
3 30 29 50
3 50 29 31
3 44 30 51
3 51 30 50
3 50 31 52
3 31 33 52
3 32 43 53
3 40 32 53
3 53 43 54
3 33 34 55
3 34 37 55
3 33 55 52
3 35 36 56
3 38 35 56
3 36 41 57
3 56 36 57
3 37 38 58
3 38 56 58
3 37 58 55
3 39 40 59
3 42 39 59
3 40 53 60
3 59 40 60
3 41 42 61
3 57 41 61
3 42 59 62
3 61 42 62
3 43 63 54
3 46 44 64
3 64 44 51
3 48 45 65
3 65 45 46
3 65 46 66
3 66 46 64
3 49 47 67
3 67 47 48
3 67 48 68
3 68 48 65
3 69 49 70
3 70 49 67
3 52 55 72
3 64 51 73
3 51 50 73
3 50 52 73
3 73 52 74
3 74 52 72
3 53 54 75
3 60 53 75
3 54 63 76
3 54 76 77
3 75 54 77
3 55 58 78
3 72 55 78
3 72 78 79
3 56 57 80
3 57 61 80
3 56 80 58
3 58 80 81
3 78 58 81
3 59 60 82
3 62 59 82
3 60 75 83
3 82 60 83
3 61 62 84
3 62 82 84
3 61 84 80
3 63 85 76
3 66 64 86
3 64 73 86
3 68 65 87
3 87 65 66
3 87 66 86
3 70 67 88
3 88 67 68
3 88 68 89
3 89 68 87
3 71 69 90
3 90 69 70
3 90 70 91
3 91 70 88
3 92 71 93
3 93 71 90
3 74 72 94
3 94 72 79
3 86 73 95
3 95 73 74
3 95 74 96
3 96 74 94
3 97 86 95
3 76 85 99
3 75 77 100
3 83 75 100
3 76 99 101
3 77 76 101
3 77 101 102
3 100 77 102
3 94 79 103
3 78 81 104
3 79 78 104
3 79 104 103
3 80 84 105
3 81 80 105
3 81 105 106
3 104 81 106
3 82 83 107
3 83 100 107
3 82 107 84
3 84 107 108
3 105 84 108
3 85 109 99
3 89 87 110
3 87 86 110
3 110 86 97
3 91 88 111
3 111 88 89
3 111 89 110
3 93 90 112
3 112 90 91
3 112 91 113
3 113 91 111
3 98 92 114
3 114 92 93
3 114 93 115
3 115 93 112
3 116 98 114
3 117 103 118
3 96 94 119
3 94 103 119
3 119 103 117
3 97 95 120
3 120 95 96
3 120 96 119
3 121 110 97
3 121 97 122
3 122 97 120
3 123 119 117
3 124 98 116
3 99 109 125
3 99 125 126
3 101 99 126
3 100 102 127
3 100 127 107
3 101 126 128
3 102 101 128
3 102 128 127
3 104 106 129
3 104 129 103
3 103 129 118
3 105 108 130
3 106 105 130
3 106 130 129
3 107 127 131
3 108 107 131
3 108 131 132
3 108 132 130
3 109 134 125
3 125 134 133
3 113 111 135
3 111 110 135
3 135 110 121
3 115 112 136
3 136 112 113
3 136 113 135
3 116 114 137
3 137 114 115
3 137 115 138
3 138 115 136
3 139 124 116
3 139 116 140
3 140 116 137
3 141 135 121
3 118 129 142
3 118 142 143
3 117 118 143
3 123 117 143
3 122 120 144
3 120 119 144
3 144 119 123
3 141 121 145
3 145 121 122
3 145 122 144
3 146 141 145
3 147 144 123
3 147 123 148
3 143 148 123
3 150 124 139
3 149 150 139
3 131 127 151
3 125 133 152
3 126 125 152
3 126 152 153
3 128 126 153
3 128 153 154
3 128 154 127
3 127 154 151
3 152 133 155
3 130 132 156
3 130 156 129
3 129 156 142
3 131 151 157
3 132 131 157
3 132 157 156
3 156 158 142
3 157 151 159
3 133 160 155
3 134 161 133
3 133 161 160
3 138 136 162
3 136 135 162
3 162 135 141
3 140 137 163
3 163 137 138
3 163 138 162
3 149 139 164
3 164 139 140
3 164 140 165
3 165 140 163
3 166 149 164
3 167 162 141
3 167 141 146
3 142 158 168
3 143 142 168
3 143 168 148
3 146 145 169
3 145 144 169
3 169 144 147
3 170 167 146
3 170 146 169
3 171 169 147
3 171 147 148
3 171 148 172
3 168 172 148
3 173 149 166
3 174 150 149
3 173 174 149
3 154 175 151
3 151 175 159
3 152 155 176
3 153 152 176
3 153 176 177
3 153 177 154
3 154 177 175
3 155 160 178
3 155 178 179
3 176 155 179
3 156 157 180
3 156 180 158
3 157 159 181
3 157 181 180
3 158 180 182
3 158 182 168
3 159 175 183
3 159 183 181
3 175 184 183
3 160 186 178
3 178 186 185
3 161 187 160
3 160 187 186
3 165 163 188
3 163 162 188
3 188 162 167
3 166 164 189
3 189 164 165
3 189 165 188
3 190 173 166
3 190 166 191
3 191 166 189
3 192 188 167
3 192 167 170
3 193 192 170
3 182 194 168
3 194 172 168
3 193 170 195
3 170 169 195
3 195 169 171
3 196 195 171
3 196 171 172
3 194 197 172
3 197 198 172
3 198 196 172
3 200 173 190
3 199 200 190
3 201 174 173
3 200 201 173
3 176 179 202
3 177 176 202
3 177 202 175
3 175 202 184
3 178 185 203
3 178 203 179
3 179 203 202
3 203 185 204
3 202 205 184
3 183 206 181
3 180 181 206
3 180 206 182
3 182 206 194
3 183 184 207
3 205 207 184
3 183 207 206
3 185 208 204
3 186 209 185
3 185 209 208
3 187 210 186
3 186 210 209
3 191 189 211
3 189 188 211
3 211 188 192
3 199 190 212
3 212 190 191
3 212 191 211
3 213 199 212
3 214 211 192
3 214 192 193
3 215 214 193
3 215 193 195
3 206 216 194
3 216 197 194
3 216 217 197
3 215 195 218
3 218 195 196
3 198 218 196
3 217 219 197
3 219 218 198
3 197 219 198
3 220 199 213
3 221 200 199
3 220 221 199
3 222 201 200
3 221 222 200
3 203 204 223
3 203 223 202
3 202 223 205
3 204 208 224
3 204 224 223
3 205 223 225
3 205 225 207
3 207 225 226
3 207 226 206
3 226 216 206
3 208 228 224
3 224 228 227
3 209 229 208
3 229 228 208
3 210 230 209
3 209 230 229
3 213 212 231
3 212 211 231
3 231 211 214
3 232 220 213
3 232 213 231
3 233 231 214
3 233 214 215
3 234 233 215
3 234 215 218
3 226 235 216
3 235 217 216
3 235 236 217
3 217 236 219
3 237 234 218
3 237 218 219
3 236 238 219
3 238 237 219
3 240 220 232
3 239 240 232
3 241 221 220
3 240 241 220
3 242 222 221
3 241 242 221
3 224 227 243
3 224 243 223
3 223 243 225
3 225 243 244
3 225 244 226
3 226 244 235
3 227 245 243
3 228 246 227
3 227 246 245
3 229 247 228
3 228 247 246
3 230 248 229
3 229 248 247
3 239 232 249
3 232 231 249
3 249 231 233
3 250 249 233
3 250 233 234
3 237 250 234
3 244 251 235
3 235 251 236
3 251 252 236
3 236 252 238
3 252 253 238
3 253 250 237
3 253 237 238
3 254 239 249
3 255 240 239
3 254 255 239
3 256 241 240
3 255 256 240
3 257 242 241
3 256 257 241
3 245 258 243
3 243 258 244
3 244 258 251
3 245 259 258
3 246 260 245
3 245 260 259
3 247 261 246
3 246 261 260
3 248 262 247
3 247 262 261
3 254 249 263
3 263 249 250
3 253 263 250
3 258 264 251
3 251 264 252
3 264 265 252
3 265 263 253
3 252 265 253
3 266 254 263
3 267 255 254
3 266 267 254
3 268 256 255
3 267 268 255
3 269 257 256
3 268 269 256
3 259 270 258
3 270 264 258
3 260 271 259
3 259 271 270
3 261 272 260
3 260 272 271
3 262 273 261
3 273 272 261
3 270 274 264
3 275 266 263
3 275 263 265
3 274 276 264
3 276 265 264
3 276 277 265
3 277 275 265
3 278 267 266
3 275 278 266
3 279 268 267
3 278 279 267
3 280 269 268
3 279 280 268
3 271 281 270
3 270 281 274
3 272 282 271
3 271 282 281
3 273 283 272
3 272 283 282
3 281 284 274
3 274 284 276
3 285 278 275
3 277 285 275
3 284 286 276
3 286 285 277
3 276 286 277
3 287 279 278
3 285 287 278
3 288 280 279
3 287 288 279
3 282 289 281
3 281 289 284
3 283 290 282
3 282 290 289
3 289 291 284
3 284 291 286
3 291 292 286
3 292 287 285
3 286 292 285
3 293 288 287
3 292 293 287
3 290 294 289
3 289 294 291
3 294 295 291
3 295 293 292
3 291 295 292
CELL_TYPES 542
5
5
5
5
5
5
5
5
5
5
5
5
5
5
5
5
5
5
5
5
5
5
5
5
5
5
5
5
5
5
5
5
5
5
5
5
5
5
5
5
5
5
5
5
5
5
5
5
5
5
5
5
5
5
5
5
5
5
5
5
5
5
5
5
5
5
5
5
5
5
5
5
5
5
5
5
5
5
5
5
5
5
5
5
5
5
5
5
5
5
5
5
5
5
5
5
5
5
5
5
5
5
5
5
5
5
5
5
5
5
5
5
5
5
5
5
5
5
5
5
5
5
5
5
5
5
5
5
5
5
5
5
5
5
5
5
5
5
5
5
5
5
5
5
5
5
5
5
5
5
5
5
5
5
5
5
5
5
5
5
5
5
5
5
5
5
5
5
5
5
5
5
5
5
5
5
5
5
5
5
5
5
5
5
5
5
5
5
5
5
5
5
5
5
5
5
5
5
5
5
5
5
5
5
5
5
5
5
5
5
5
5
5
5
5
5
5
5
5
5
5
5
5
5
5
5
5
5
5
5
5
5
5
5
5
5
5
5
5
5
5
5
5
5
5
5
5
5
5
5
5
5
5
5
5
5
5
5
5
5
5
5
5
5
5
5
5
5
5
5
5
5
5
5
5
5
5
5
5
5
5
5
5
5
5
5
5
5
5
5
5
5
5
5
5
5
5
5
5
5
5
5
5
5
5
5
5
5
5
5
5
5
5
5
5
5
5
5
5
5
5
5
5
5
5
5
5
5
5
5
5
5
5
5
5
5
5
5
5
5
5
5
5
5
5
5
5
5
5
5
5
5
5
5
5
5
5
5
5
5
5
5
5
5
5
5
5
5
5
5
5
5
5
5
5
5
5
5
5
5
5
5
5
5
5
5
5
5
5
5
5
5
5
5
5
5
5
5
5
5
5
5
5
5
5
5
5
5
5
5
5
5
5
5
5
5
5
5
5
5
5
5
5
5
5
5
5
5
5
5
5
5
5
5
5
5
5
5
5
5
5
5
5
5
5
5
5
5
5
5
5
5
5
5
5
5
5
5
5
5
5
5
5
5
5
5
5
5
5
5
5
5
5
5
5
5
5
5
5
5
5
5
5
5
5
5
5
5
5
5
5
5
5
5
5
5
5
5
5
5
5
5
5
5
5
5
5
5
5
5
5
5
5
5
5
5
5
5
5
5
5
5
5
5
5
5
5
5
5
5
5
5
5
5
5
5
5
5
5
5
5
5
POINT_DATA 296
SCALARS concentrations float 4
LOOKUP_TABLE default
0 0.959044 0.136618 17.703
0 0.95903 0.134505 8.26653
0 0.959036 0.135932 7.83894
0 0.959002 0.13729 8.10618
0 0.959014 0.0948167 7.01221
0 0.959037 0.136484 9.04958
0 0.959063 0.135519 9.33161
0 0.959015 0.0989621 8.77879
0 0.959021 0.0961467 7.52648
0 0.958961 0.134592 13.3718
0 0.958988 0.13881 16.7121
0 0.95894 0.135367 18.8775
0 0.95899 0.136087 11.7034
0 0.959011 0.0940277 6.38858
0 0.958971 0.094615 7.18509
0 0.95898 0.0956167 7.32451
0 0.958976 0.0949272 7.4869
0 0.95905 0.0946477 6.76359
0 0.959011 0.0947107 5.33328
0 0.95899 0.0949551 8.16462
0 0.959014 0.0952811 8.09226
0 0.959066 0.134708 6.94129
0 0.959064 0.138657 6.98601
0 0.958964 0.0944341 5.77599
0 0.959021 0.0943707 6.77365
0 0.958967 0.0945759 7.63928
0 0.959025 0.135144 12.6184
0 0.959006 0.0946157 7.29927
0 0.959028 0.133212 10.173
0 0.95898 0.0938627 7.21941
0 0.95897 0.0941393 7.01887
0 0.958971 0.0952637 6.44246
0 0.959015 0.139064 16.1502
0 0.95896 0.0955545 5.39121
0 0.958956 0.0953954 8.5983
0 0.959005 0.0943964 8.16028
0 0.958982 0.0949524 9.10401
0 0.958962 0.0947681 8.06707
0 0.95898 0.0953225 7.88156
0 0.959049 0.0935871 6.15144
0 0.959037 0.0946026 7.45152
0 0.958983 0.0953816 8.01134
0 0.958999 0.0946484 6.61504
0 0.958913 0.135033 10.6616
0 0.958985 0.0957623 6.98823
0 0.959023 0.0945786 7.52107
0 0.959013 0.09681 5.95348
0 0.959021 0.135967 14.9967
0 0.959025 0.0945328 6.54303
0 0.959 0.133713 8.43738
0 0.958969 0.0940102 7.21887
0 0.958972 0.0957736 7.03371
0 0.958975 0.0946118 6.56349
0 0.958974 0.0936517 6.17636
0 0.958933 0.0943289 7.11671
0 0.95896 0.0965281 8.43524
0 0.958974 0.0960653 7.88279
0 0.958971 0.0958387 7.44404
0 0.958963 0.0937138 8.4449
0 0.959012 0.0958579 5.17872
0 0.958993 0.094855 6.41429
0 0.958974 0.0956488 6.64022
0 0.958987 0.0984237 8.98794
0 0.958917 0.136485 15.672
0 0.958991 0.0957778 7.52295
0 0.95902 0.0939772 6.67568
0 0.959005 0.100105 4.98397
0 0.959008 0.0937728 6.65487
0 0.959007 0.0940033 6.75295
0 0.958935 0.135733 19.741
0 0.958971 0.093464 7.46636
0 0.958922 0.135957 12.8757
0 0.958988 0.094874 6.2238
0 0.958979 0.096384 8.28455
0 0.958985 0.0961326 9.33668
0 0.958972 0.0941212 6.85289
0 0.958938 0.0947563 8.33724
0 0.958962 0.0949476 8.48852
0 0.958986 0.09705 5.31509
0 0.958992 0.102873 7.81334
0 0.958973 0.0956598 7.63302
0 0.958979 0.0940386 5.95956
0 0.958981 0.0970474 9.91042
0 0.95897 0.0952904 6.1563
0 0.958974 0.0957799 5.68487
0 0.958943 0.136927 16.7155
0 0.958979 0.0959064 5.64434
0 0.958996 0.0988183 6.64917
0 0.958991 0.0944588 7.57974
0 0.959003 0.095535 7.74111
0 0.958932 0.0934439 7.51074
0 0.958977 0.0943712 7.67465
0 0.958954 0.134891 18.5261
0 0.958941 0.0971296 7.53055
0 0.958986 0.096344 7.05719
0 0.958979 0.0959424 7.25304
0 0.958982 0.0945692 6.25312
0 0.958977 0.0947657 5.83745
0 0.958965 0.133784 12.7288
0 0.958959 0.0956949 7.86813
0 0.958968 0.095305 6.08654
0 0.958957 0.0950702 6.51012
0 0.958961 0.0956359 5.64238
0 0.958981 0.0964587 7.48761
0 0.958981 0.101467 6.48456
0 0.958983 0.0944276 6.34059
0 0.958976 0.0945843 8.41769
0 0.958964 0.0958624 8.68112
0 0.958978 0.0946244 7.69624
0 0.958982 0.134102 14.603
0 0.958985 0.0953281 7.22793
0 0.958991 0.0950999 7.99305
0 0.958966 0.101422 8.18512
0 0.958994 0.0962646 7.51398
0 0.958969 0.103578 2.57288
0 0.958966 0.0947426 7.38301
0 0.958973 0.10022 6.7872
0 0.959002 0.0952419 5.37594
0 0.958994 0.0954976 5.58103
0 0.958995 0.0956081 5.75588
0 0.958989 0.0960063 7.10453
0 0.958982 0.094176 6.06047
0 0.958993 0.0938921 6.95243
0 0.959007 0.0941418 5.84509
0 0.958961 0.137358 15.665
0 0.958976 0.0968796 7.94863
0 0.958956 0.0962696 6.25443
0 0.958961 0.0940866 6.81528
0 0.958962 0.0948818 6.47618
0 0.958985 0.0953248 8.9534
0 0.95899 0.0950323 6.93387
0 0.958973 0.0961849 7.47667
0 0.95899 0.0959666 6.30508
0 0.959025 0.100177 7.09031
0 0.958991 0.135798 13.5313
0 0.958987 0.0945074 7.71852
0 0.958998 0.0962009 7.35608
0 0.958973 0.0979457 6.52633
0 0.958984 0.101718 4.7849
0 0.958971 0.0933022 7.39859
0 0.958978 0.0940006 6.87023
0 0.958989 0.0952434 6.6268
0 0.959013 0.0947813 6.00005
0 0.95901 0.0939504 6.46752
0 0.958999 0.0975802 8.11844
0 0.958997 0.0955175 7.09623
0 0.958995 0.0950911 8.29385
0 0.959016 0.0947459 7.00094
0 0.959019 0.0959799 6.42437
0 0.958965 0.0942489 6.34578
0 0.958969 0.135836 17.4793
0 0.958971 0.095922 6.26148
0 0.958984 0.0953737 7.038
0 0.958969 0.094478 6.6904
0 0.958976 0.0940524 6.49693
0 0.959016 0.0958234 8.62205
0 0.958996 0.100294 5.46834
0 0.958972 0.0964209 7.48812
0 0.959027 0.0947545 6.98868
0 0.958968 0.0941455 6.23524
0 0.95906 0.0935961 6.96538
0 0.959061 0.132588 7.35462
0 0.958993 0.0949949 8.41673
0 0.95898 0.0949901 7.24478
0 0.958975 0.0945664 7.26038
0 0.958989 0.0944005 7.82536
0 0.958974 0.0948422 7.39361
0 0.958985 0.0951733 7.67648
0 0.959015 0.0940979 7.49263
0 0.95901 0.0944818 6.5831
0 0.958985 0.0953973 7.72935
0 0.959029 0.0939314 6.64961
0 0.959012 0.094546 6.87831
0 0.95894 0.0944174 7.12756
0 0.958939 0.135089 13.1738
0 0.958978 0.0953275 8.01468
0 0.958976 0.0965502 8.55416
0 0.958984 0.0942142 6.90174
0 0.959024 0.0949442 7.95811
0 0.958986 0.0955649 5.84514
0 0.958987 0.100899 5.68289
0 0.958968 0.0971253 5.43225
0 0.959016 0.0946507 6.97019
0 0.958982 0.0970409 6.26761
0 0.958978 0.0946694 7.7007
0 0.95901 0.0939124 6.64498
0 0.959024 0.0942323 6.1221
0 0.959059 0.135382 9.01671
0 0.95899 0.0974547 7.15854
0 0.958987 0.094893 8.30222
0 0.958979 0.0937262 7.12381
0 0.958974 0.0940289 7.73111
0 0.958986 0.095664 7.66773
0 0.958992 0.0972638 6.25316
0 0.959007 0.0942498 7.27544
0 0.95902 0.102847 11.9295
0 0.959035 0.0982081 7.83962
0 0.958993 0.0978604 6.41597
0 0.959001 0.0999299 4.42997
0 0.958998 0.0944615 7.33074
0 0.958957 0.0941732 7.1683
0 0.958916 0.133606 14.4338
0 0.958979 0.0944415 6.55476
0 0.958992 0.0942994 6.61008
0 0.958991 0.0932323 6.9963
0 0.958978 0.0940989 7.83737
0 0.958999 0.097861 6.03356
0 0.958986 0.0943754 6.84741
0 0.958987 0.0936861 6.89473
0 0.95899 0.0932681 6.52233
0 0.958994 0.132476 13.0864
0 0.95899 0.0958109 8.46781
0 0.959002 0.100565 7.08759
0 0.959022 0.0978463 7.09467
0 0.958985 0.0949948 7.52981
0 0.958982 0.0993256 6.80648
0 0.959001 0.0950651 6.93131
0 0.958987 0.0995936 9.4585
0 0.959013 0.0959589 8.30577
0 0.958988 0.0958902 7.55437
0 0.958987 0.0971257 5.8954
0 0.95899 0.0938275 7.30045
0 0.958967 0.136597 13.5438
0 0.958976 0.0933205 6.89699
0 0.958983 0.0983911 7.068
0 0.958972 0.0955056 7.57522
0 0.958991 0.0957445 6.8718
0 0.958999 0.0973146 6.44566
0 0.958971 0.094805 7.4674
0 0.95897 0.0932748 6.90942
0 0.958978 0.133254 8.24276
0 0.959003 0.100977 6.15687
0 0.958987 0.0995564 5.28441
0 0.958971 0.0993296 7.57713
0 0.958975 0.0939754 7.43665
0 0.958994 0.0963933 6.56976
0 0.958989 0.0951922 7.23716
0 0.958997 0.0958871 7.88139
0 0.958988 0.0995322 5.73261
0 0.958972 0.0944324 7.28256
0 0.958973 0.09349 7.70515
0 0.958985 0.0932689 7.33703
0 0.958991 0.135101 15.3799
0 0.958995 0.0994954 9.74803
0 0.958992 0.0953407 6.68228
0 0.959015 0.0954498 6.64315
0 0.958973 0.0942198 6.65204
0 0.958913 0.0938815 7.26548
0 0.958916 0.135019 22.7628
0 0.958983 0.0950642 6.76945
0 0.958987 0.095491 6.77953
0 0.958993 0.0971033 7.14537
0 0.958987 0.0954628 6.80496
0 0.958988 0.0962865 6.34162
0 0.958976 0.0945394 6.78876
0 0.958977 0.0936004 6.19965
0 0.958981 0.0930814 6.85127
0 0.95898 0.134531 10.6622
0 0.959004 0.0941753 6.96231
0 0.959009 0.0947332 6.98511
0 0.958998 0.0953124 7.70597
0 0.958944 0.0939256 7.10903
0 0.95888 0.134611 18.7339
0 0.958979 0.0933317 7.33805
0 0.958994 0.0945184 7.18148
0 0.958981 0.0949188 6.82939
0 0.958971 0.0946931 7.82384
0 0.958971 0.0936616 6.74275
0 0.95897 0.0931707 6.72332
0 0.958978 0.135671 15.714
0 0.95901 0.0950548 5.87922
0 0.959028 0.0943586 6.66792
0 0.959023 0.0944712 6.14702
0 0.958978 0.13523 15.4065
0 0.959009 0.0936034 7.48925
0 0.958966 0.0943091 7.34699
0 0.958991 0.0941382 7.14533
0 0.958973 0.094307 7.29385
0 0.958968 0.0944932 8.20666
0 0.958964 0.0942776 8.11275
0 0.958957 0.136873 12.2918
0 0.959038 0.0941105 6.086
0 0.959058 0.0934838 6.29955
0 0.959054 0.134201 8.71552
0 0.959021 0.0943573 7.56801
0 0.958977 0.101372 9.37376
0 0.958998 0.0952435 8.23373
0 0.958992 0.0947945 7.2146
0 0.958981 0.135523 15.4607
0 0.959042 0.0937408 6.65721
0 0.959057 0.135405 6.01659
0 0.959012 0.0947504 6.43114
0 0.958996 0.096527 6.4393
0 0.959001 0.132349 17.7725
0 0.959018 0.135868 11.8551
0 0.958992 0.1328 9.01134
VECTORS fa_u float
0.00692493 0.00277937 -0
0.00667496 0.00383688 -0
0.00340449 0.000924915 -0
0.00698391 0.0010597 -0
1e-08 0 0
0.00516187 0.00398106 -0
0.00276673 0.00268994 -0
1e-08 0 0
1e-08 0 0
0.00453347 0.00558497 -0
0.0049298 0.00832345 -0
0.0066528 0.00011914 -0
0.00617129 -0.000684934 0
1e-08 0 0
1e-08 0 0
1e-08 0 0
1e-08 0 0
1e-08 0 0
1e-08 0 0
1e-08 0 0
1e-08 0 0
0.00284698 0.00700088 -0
0.0016312 0.0063558 -0
1e-08 0 0
1e-08 0 0
1e-08 0 0
0.00862407 -0.00219453 0
1e-08 0 0
0.0102515 -0.00445966 0
1e-08 0 0
1e-08 0 0
1e-08 0 0
0.000848579 0.00714143 -0
1e-08 0 0
1e-08 0 0
1e-08 0 0
1e-08 0 0
1e-08 0 0
1e-08 0 0
1e-08 0 0
1e-08 0 0
1e-08 0 0
1e-08 0 0
-0.00015195 0.00763561 -0
1e-08 0 0
1e-08 0 0
1e-08 0 0
0.00550573 -0.00345427 0
1e-08 0 0
0.00313391 -0.00251039 0
1e-08 0 0
1e-08 0 0
1e-08 0 0
1e-08 0 0
1e-08 0 0
1e-08 0 0
1e-08 0 0
1e-08 0 0
1e-08 0 0
1e-08 0 0
1e-08 0 0
1e-08 0 0
1e-08 0 0
-0.000624073 0.0043308 0
1e-08 0 0
1e-08 0 0
1e-08 0 0
1e-08 0 0
1e-08 0 0
0.00333852 -0.00331172 0
1e-08 0 0
0.00291716 -0.00360596 0
1e-08 0 0
1e-08 0 0
1e-08 0 0
1e-08 0 0
1e-08 0 0
1e-08 0 0
1e-08 0 0
1e-08 0 0
1e-08 0 0
1e-08 0 0
1e-08 0 0
1e-08 0 0
1e-08 0 0
-0.00141368 0.00541009 0
1e-08 0 0
1e-08 0 0
1e-08 0 0
1e-08 0 0
1e-08 0 0
1e-08 0 0
0.00533662 -0.0088157 0
1e-08 0 0
1e-08 0 0
1e-08 0 0
1e-08 0 0
1e-08 0 0
0.00347656 -0.00856516 0
1e-08 0 0
1e-08 0 0
1e-08 0 0
1e-08 0 0
1e-08 0 0
1e-08 0 0
1e-08 0 0
1e-08 0 0
1e-08 0 0
1e-08 0 0
-0.00280964 0.00693956 0
1e-08 0 0
1e-08 0 0
1e-08 0 0
1e-08 0 0
1e-08 0 0
1e-08 0 0
1e-08 0 0
1e-08 0 0
1e-08 0 0
1e-08 0 0
1e-08 0 0
1e-08 0 0
1e-08 0 0
1e-08 0 0
0.00141902 -0.00561517 0
1e-08 0 0
1e-08 0 0
1e-08 0 0
1e-08 0 0
1e-08 0 0
1e-08 0 0
1e-08 0 0
1e-08 0 0
1e-08 0 0
-0.00366773 0.00636226 0
1e-08 0 0
1e-08 0 0
1e-08 0 0
1e-08 0 0
1e-08 0 0
1e-08 0 0
1e-08 0 0
1e-08 0 0
1e-08 0 0
1e-08 0 0
1e-08 0 0
1e-08 0 0
1e-08 0 0
1e-08 0 0
1e-08 0 0
0.000551093 -0.00404364 0
1e-08 0 0
1e-08 0 0
1e-08 0 0
1e-08 0 0
1e-08 0 0
1e-08 0 0
1e-08 0 0
1e-08 0 0
1e-08 0 0
1e-08 0 0
-0.00458288 0.00589347 0
1e-08 0 0
1e-08 0 0
1e-08 0 0
1e-08 0 0
1e-08 0 0
1e-08 0 0
1e-08 0 0
1e-08 0 0
1e-08 0 0
1e-08 0 0
1e-08 0 0
1e-08 0 0
0.000102581 -0.00772802 0
1e-08 0 0
1e-08 0 0
1e-08 0 0
1e-08 0 0
1e-08 0 0
1e-08 0 0
1e-08 0 0
1e-08 0 0
1e-08 0 0
1e-08 0 0
1e-08 0 0
1e-08 0 0
-0.00253859 0.00257505 0
1e-08 0 0
1e-08 0 0
1e-08 0 0
1e-08 0 0
1e-08 0 0
1e-08 0 0
1e-08 0 0
1e-08 0 0
1e-08 0 0
1e-08 0 0
1e-08 0 0
1e-08 0 0
1e-08 0 0
-0.000858351 -0.00687749 0
1e-08 0 0
1e-08 0 0
1e-08 0 0
1e-08 0 0
1e-08 0 0
1e-08 0 0
1e-08 0 0
1e-08 0 0
-0.00482461 0.00391225 0
1e-08 0 0
1e-08 0 0
1e-08 0 0
1e-08 0 0
1e-08 0 0
1e-08 0 0
1e-08 0 0
1e-08 0 0
1e-08 0 0
1e-08 0 0
1e-08 0 0
-0.00163457 -0.00625245 0
1e-08 0 0
1e-08 0 0
1e-08 0 0
1e-08 0 0
1e-08 0 0
1e-08 0 0
1e-08 0 0
-0.00832044 0.00497565 0
1e-08 0 0
1e-08 0 0
1e-08 0 0
1e-08 0 0
1e-08 0 0
1e-08 0 0
1e-08 0 0
1e-08 0 0
1e-08 0 0
1e-08 0 0
1e-08 0 0
-0.00287983 -0.00700262 0
1e-08 0 0
1e-08 0 0
1e-08 0 0
1e-08 0 0
1e-08 0 0
-0.00723947 0.002968 0
1e-08 0 0
1e-08 0 0
1e-08 0 0
1e-08 0 0
1e-08 0 0
1e-08 0 0
1e-08 0 0
1e-08 0 0
-0.00485683 -0.00814118 0
1e-08 0 0
1e-08 0 0
1e-08 0 0
1e-08 0 0
-0.00631024 0.00163251 0
1e-08 0 0
1e-08 0 0
1e-08 0 0
1e-08 0 0
1e-08 0 0
1e-08 0 0
-0.0036213 -0.00450399 0
1e-08 0 0
1e-08 0 0
1e-08 0 0
-0.00700633 0.000850973 0
1e-08 0 0
1e-08 0 0
1e-08 0 0
1e-08 0 0
1e-08 0 0
1e-08 0 0
-0.00283028 -0.00281264 0
1e-08 0 0
1e-08 0 0
-0.00820435 -0.000156265 0
1e-08 0 0
1e-08 0 0
1e-08 0 0
1e-08 0 0
-0.00595451 -0.00464196 0
1e-08 0 0
-0.00382949 -0.000547168 0
1e-08 0 0
1e-08 0 0
-0.00646866 -0.00373111 0
-0.00567516 -0.00146513 0
-0.00705855 -0.00285064 0
