# vtk DataFile Version 2.0
CellBP Time: 4.08
ASCII
DATASET UNSTRUCTURED_GRID
POINTS 296 double
-9.03814 -3.70651 0
-8.47282 -4.86686 0
-9.44 -2.47823 0
-9.70749 -1.22903 0
-8.19659 -2.74767 0
-7.75164 -5.94028 0
-6.89756 -6.91112 0
-7.75541 -3.78607 0
-7.18979 -4.76684 0
-5.95113 -7.7774 0
-4.89939 -8.50681 0
-9.80744 0.0419476 0
-9.74007 1.32916 0
-8.51001 -1.64288 0
-8.65319 -0.513703 0
-7.43513 -1.94821 0
-7.06612 -2.82805 0
-6.51721 -5.68074 0
-5.72999 -6.50384 0
-6.63679 -3.79624 0
-6.08895 -4.58183 0
-3.74061 -9.07656 0
-2.50802 -9.48421 0
-4.84505 -7.21557 0
-3.87615 -7.79943 0
-8.66901 0.63291 0
-9.50653 2.6091 0
-8.51275 1.74444 0
-9.09221 3.834 0
-7.60313 -0.899834 0
-7.66437 0.0858701 0
-6.81627 -1.2766 0
-1.23174 -9.7286 0
-6.31578 -2.09951 0
-6.18972 -2.98472 0
-5.43306 -5.38498 0
-4.71773 -6.02654 0
-5.54649 -3.68194 0
-5.16219 -4.4768 0
-2.83701 -8.26726 0
-1.75986 -8.52978 0
-3.87777 -6.64055 0
-3.02838 -7.07137 0
0.0534296 -9.79867 0
-7.58651 1.12591 0
-8.24543 2.88392 0
-7.44061 2.07305 0
-8.49159 4.97454 0
-7.77218 3.91667 0
-7.74619 6.03099 0
-6.65633 -0.379619 0
-6.83538 0.548434 0
-5.67532 -0.984484 0
-0.584843 -8.69045 0
0.55187 -8.63356 0
-5.2119 -2.43198 0
-4.40452 -5.01139 0
-3.83813 -5.69434 0
-4.36404 -3.74539 0
-2.03923 -7.47251 0
-1.12267 -7.68439 0
-2.95324 -6.02177 0
-2.28441 -6.54057 0
1.32789 -9.69288 0
-6.58465 1.39639 0
-7.05743 3.06155 0
-6.55743 2.32995 0
-7.18206 4.90162 0
-6.61251 3.93179 0
-6.89573 6.99158 0
-6.46774 5.79226 0
-5.93678 7.85082 0
-4.4021 -1.16806 0
-5.73204 0.500643 0
-4.60519 -0.0197622 0
-0.00365843 -7.72817 0
1.69851 -8.48932 0
0.918776 -7.62996 0
-3.99094 -2.37412 0
-3.4669 -1.38445 0
-3.24929 -4.74012 0
-3.23607 -3.22979 0
-1.36955 -6.58467 0
-0.517079 -6.91842 0
-1.95781 -5.47047 0
2.5901 -9.44292 0
-5.4298 2.00853 0
-6.00045 3.01733 0
-6.00747 4.77965 0
-5.67004 3.91642 0
-5.66262 6.59962 0
-5.36224 5.51501 0
-4.88579 8.5935 0
-4.75392 7.268 0
-3.47653 -0.421066 0
-4.39646 1.23311 0
-3.67644 0.586988 0
-4.01126 2.30315 0
-3.73434 9.16637 0
2.79555 -8.16288 0
0.391118 -6.67789 0
1.96735 -7.37601 0
1.25972 -6.7728 0
-2.4335 -0.866527 0
-2.82327 -2.11589 0
-2.27605 -4.05343 0
-2.3107 -2.94655 0
-0.450639 -5.77299 0
-1.21061 -4.45342 0
3.81209 -9.03919 0
-4.72222 3.3403 0
-5.00664 4.50706 0
-4.56688 6.15959 0
-4.46369 5.25902 0
-3.7862 7.86641 0
-3.75669 6.70987 0
-2.73818 8.2799 0
-1.64146 -0.131189 0
-1.44187 -0.883307 0
-2.47724 0.513328 0
-3.22315 1.43907 0
-3.20029 3.28025 0
-2.8828 2.36464 0
-1.35183 0.634079 0
-2.5063 9.56545 0
3.84809 -7.72595 0
2.88449 -6.99573 0
0.92041 -5.7173 0
2.01122 -6.28095 0
-1.67281 -1.98275 0
-1.42197 -3.25093 0
0.0829147 -4.68455 0
-0.556105 -3.66316 0
4.83299 -7.16702 0
4.96695 -8.47381 0
-3.72152 4.47963 0
-3.67381 5.64817 0
-2.83238 7.15354 0
-2.95907 6.23921 0
-1.64001 8.59752 0
-1.90133 7.49228 0
-2.31336 4.00484 0
-0.725705 -1.32123 0
-0.833057 -0.251643 0
-1.93189 1.68719 0
-2.11028 2.8619 0
-1.30226 3.52039 0
-0.871761 1.35884 0
-0.282643 0.463195 0
-0.527979 8.74649 0
-1.23678 9.8085 0
1.0868 -4.50299 0
3.81063 -6.55029 0
2.91165 -5.95736 0
2.06554 -5.31814 0
4.68719 -6.06122 0
-0.55199 -2.46413 0
0.490497 -3.42998 0
0.0548736 -1.60608 0
1.45625 -3.63064 0
5.76196 -6.48137 0
6.03926 -7.75416 0
-2.43891 5.26632 0
-2.08792 6.4234 0
-0.885205 7.68997 0
-1.24032 6.82082 0
0.0907154 7.7771 0
-1.13176 4.4457 0
0.15079 -0.612643 0
-0.802382 2.49333 0
-0.340052 3.58391 0
0.0577672 1.51581 0
0.736436 0.476331 0
0.64084 8.7663 0
0.045266 9.90997 0
2.33681 -4.20598 0
3.77637 -5.5089 0
2.93545 -5.10221 0
5.48215 -5.37825 0
4.60193 -5.15751 0
0.631727 -2.28847 0
1.24478 -2.92285 0
0.757415 -1.38824 0
2.13487 -3.09431 0
2.95195 -3.41916 0
6.06487 -4.70374 0
6.5553 -5.66784 0
7.00537 -6.89426 0
-0.999314 5.73888 0
-0.355132 6.78254 0
1.11116 7.67496 0
0.560322 6.98644 0
-0.00126154 4.68022 0
0.594896 3.79955 0
1.3336 -0.64093 0
0.52906 2.6426 0
0.956362 1.57399 0
1.90118 0.212245 0
1.60266 1.06463 0
2.11177 7.49853 0
1.78167 8.60964 0
1.33635 9.83293 0
3.75743 -4.26176 0
5.03417 -4.34816 0
5.7643 -3.85927 0
3.73386 -3.14831 0
1.80272 -1.87953 0
2.98473 -2.54451 0
6.70217 -3.88673 0
7.28646 -4.82612 0
7.86934 -5.9424 0
0.484719 5.80896 0
1.41844 6.66301 0
2.35316 6.59627 0
1.1954 4.51427 0
1.47321 3.37359 0
2.41959 -0.688606 0
2.80906 0.143058 0
1.77518 2.15466 0
2.59731 1.14384 0
3.04395 7.09157 0
2.87537 8.28305 0
2.61028 9.58423 0
4.8429 -3.26196 0
6.04362 -3.05396 0
4.12718 -2.24758 0
3.21584 -1.49193 0
6.65975 -2.28774 0
7.15585 -3.00883 0
7.87535 -3.87219 0
8.60205 -4.89252 0
2.00619 5.53973 0
3.04253 6.07997 0
2.34753 4.08651 0
2.4001 3.03675 0
3.49592 -0.457578 0
3.58795 0.614982 0
2.93681 2.27094 0
3.51219 1.51386 0
3.94529 5.82345 0
3.93264 6.71099 0
3.93775 7.85048 0
3.8404 9.17349 0
5.50871 -1.89261 0
4.46666 -1.11783 0
6.63773 -1.32006 0
7.5085 -2.00948 0
8.30267 -2.8317 0
9.17479 -3.73693 0
3.36428 4.81454 0
3.29577 3.34751 0
4.64488 0.133598 0
4.45991 1.29198 0
4.00401 2.41084 0
4.47987 5.07473 0
4.76585 6.10759 0
4.91464 7.29044 0
4.99645 8.60099 0
5.81217 -0.434181 0
6.9164 -0.487536 0
7.669 -1.06746 0
8.58404 -1.72765 0
9.58403 -2.50522 0
4.46889 3.76905 0
5.72712 1.07063 0
5.27103 2.48755 0
5.26527 4.54005 0
5.50645 5.43694 0
5.80424 6.57494 0
6.04625 7.86974 0
6.74 0.442837 0
7.74291 -0.0275906 0
8.75329 -0.573058 0
9.82986 -1.22949 0
6.84096 1.3106 0
5.59972 3.70545 0
6.41761 2.14225 0
6.24716 3.01939 0
6.15928 4.59861 0
6.57103 5.73949 0
7.00212 7.01024 0
7.66536 0.943203 0
8.73565 0.562868 0
9.90295 0.058992 0
7.47908 1.95731 0
6.67203 3.81493 0
7.11949 2.87771 0
7.24013 4.79552 0
7.86271 6.04618 0
8.57747 1.695 0
9.79541 1.33304 0
8.26068 2.77794 0
7.83437 3.8405 0
8.58199 4.97471 0
9.54903 2.59686 0
9.14679 3.81945 0
CELLS 542 2168
3 2 0 4
3 0 1 7
3 4 0 7
3 1 5 8
3 7 1 8
3 3 2 13
3 13 2 4
3 11 3 14
3 14 3 13
3 13 4 15
3 4 7 16
3 15 4 16
3 5 6 17
3 8 5 17
3 6 9 18
3 17 6 18
3 7 8 19
3 16 7 19
3 8 17 20
3 19 8 20
3 9 10 23
3 18 9 23
3 10 21 24
3 23 10 24
3 12 11 25
3 25 11 14
3 26 12 27
3 27 12 25
3 14 13 29
3 29 13 15
3 25 14 30
3 30 14 29
3 29 15 31
3 15 16 33
3 31 15 33
3 16 19 34
3 33 16 34
3 17 18 35
3 20 17 35
3 18 23 36
3 35 18 36
3 19 20 37
3 34 19 37
3 20 35 38
3 37 20 38
3 21 22 39
3 24 21 39
3 22 32 40
3 39 22 40
3 23 24 41
3 36 23 41
3 24 39 42
3 41 24 42
3 27 25 44
3 44 25 30
3 28 26 45
3 45 26 27
3 45 27 46
3 46 27 44
3 47 28 48
3 48 28 45
3 30 29 50
3 50 29 31
3 44 30 51
3 51 30 50
3 50 31 52
3 31 33 52
3 32 43 53
3 40 32 53
3 53 43 54
3 33 34 55
3 34 37 55
3 33 55 52
3 35 36 56
3 38 35 56
3 36 41 57
3 56 36 57
3 37 38 58
3 38 56 58
3 37 58 55
3 39 40 59
3 42 39 59
3 40 53 60
3 59 40 60
3 41 42 61
3 57 41 61
3 42 59 62
3 61 42 62
3 43 63 54
3 46 44 64
3 64 44 51
3 48 45 65
3 65 45 46
3 65 46 66
3 66 46 64
3 49 47 67
3 67 47 48
3 67 48 68
3 68 48 65
3 69 49 70
3 70 49 67
3 52 55 72
3 64 51 73
3 51 50 73
3 50 52 73
3 73 52 74
3 74 52 72
3 53 54 75
3 60 53 75
3 54 63 76
3 54 76 77
3 75 54 77
3 55 58 78
3 72 55 78
3 72 78 79
3 56 57 80
3 57 61 80
3 56 80 58
3 58 80 81
3 78 58 81
3 59 60 82
3 62 59 82
3 60 75 83
3 82 60 83
3 61 62 84
3 62 82 84
3 61 84 80
3 63 85 76
3 66 64 86
3 64 73 86
3 68 65 87
3 87 65 66
3 87 66 86
3 70 67 88
3 88 67 68
3 88 68 89
3 89 68 87
3 71 69 90
3 90 69 70
3 90 70 91
3 91 70 88
3 92 71 93
3 93 71 90
3 74 72 94
3 94 72 79
3 86 73 95
3 95 73 74
3 95 74 96
3 96 74 94
3 97 86 95
3 76 85 99
3 75 77 100
3 83 75 100
3 76 99 101
3 77 76 101
3 77 101 102
3 100 77 102
3 94 79 103
3 78 81 104
3 79 78 104
3 79 104 103
3 80 84 105
3 81 80 105
3 81 105 106
3 104 81 106
3 82 83 107
3 83 100 107
3 82 107 84
3 84 107 108
3 105 84 108
3 85 109 99
3 89 87 110
3 87 86 110
3 110 86 97
3 91 88 111
3 111 88 89
3 111 89 110
3 93 90 112
3 112 90 91
3 112 91 113
3 113 91 111
3 98 92 114
3 114 92 93
3 114 93 115
3 115 93 112
3 116 98 114
3 117 103 118
3 96 94 119
3 94 103 119
3 119 103 117
3 97 95 120
3 120 95 96
3 120 96 119
3 121 110 97
3 121 97 122
3 122 97 120
3 123 119 117
3 124 98 116
3 99 109 125
3 99 125 126
3 101 99 126
3 100 102 127
3 100 127 107
3 101 126 128
3 102 101 128
3 102 128 127
3 104 106 129
3 104 129 103
3 103 129 118
3 105 108 130
3 106 105 130
3 106 130 129
3 107 127 131
3 108 107 131
3 108 131 132
3 108 132 130
3 109 134 125
3 125 134 133
3 113 111 135
3 111 110 135
3 135 110 121
3 115 112 136
3 136 112 113
3 136 113 135
3 116 114 137
3 137 114 115
3 137 115 138
3 138 115 136
3 139 124 116
3 139 116 140
3 140 116 137
3 141 135 121
3 118 129 142
3 118 142 143
3 117 118 143
3 123 117 143
3 122 120 144
3 120 119 144
3 144 119 123
3 141 121 145
3 145 121 122
3 145 122 144
3 146 141 145
3 147 144 123
3 147 123 148
3 143 148 123
3 150 124 139
3 149 150 139
3 131 127 151
3 125 133 152
3 126 125 152
3 126 152 153
3 128 126 153
3 128 153 154
3 128 154 127
3 127 154 151
3 152 133 155
3 130 132 156
3 130 156 129
3 129 156 142
3 131 151 157
3 132 131 157
3 132 157 156
3 156 158 142
3 157 151 159
3 133 160 155
3 134 161 133
3 133 161 160
3 138 136 162
3 136 135 162
3 162 135 141
3 140 137 163
3 163 137 138
3 163 138 162
3 149 139 164
3 164 139 140
3 164 140 165
3 165 140 163
3 166 149 164
3 167 162 141
3 167 141 146
3 142 158 168
3 143 142 168
3 143 168 148
3 146 145 169
3 145 144 169
3 169 144 147
3 170 167 146
3 170 146 169
3 171 169 147
3 171 147 148
3 171 148 172
3 168 172 148
3 173 149 166
3 174 150 149
3 173 174 149
3 154 175 151
3 151 175 159
3 152 155 176
3 153 152 176
3 153 176 177
3 153 177 154
3 154 177 175
3 155 160 178
3 155 178 179
3 176 155 179
3 156 157 180
3 156 180 158
3 157 159 181
3 157 181 180
3 158 180 182
3 158 182 168
3 159 175 183
3 159 183 181
3 175 184 183
3 160 186 178
3 178 186 185
3 161 187 160
3 160 187 186
3 165 163 188
3 163 162 188
3 188 162 167
3 166 164 189
3 189 164 165
3 189 165 188
3 190 173 166
3 190 166 191
3 191 166 189
3 192 188 167
3 192 167 170
3 193 192 170
3 182 194 168
3 194 172 168
3 193 170 195
3 170 169 195
3 195 169 171
3 196 195 171
3 196 171 172
3 194 197 172
3 197 198 172
3 198 196 172
3 200 173 190
3 199 200 190
3 201 174 173
3 200 201 173
3 176 179 202
3 177 176 202
3 177 202 175
3 175 202 184
3 178 185 203
3 178 203 179
3 179 203 202
3 203 185 204
3 202 205 184
3 183 206 181
3 180 181 206
3 180 206 182
3 182 206 194
3 183 184 207
3 205 207 184
3 183 207 206
3 185 208 204
3 186 209 185
3 185 209 208
3 187 210 186
3 186 210 209
3 191 189 211
3 189 188 211
3 211 188 192
3 199 190 212
3 212 190 191
3 212 191 211
3 213 199 212
3 214 211 192
3 214 192 193
3 215 214 193
3 215 193 195
3 206 216 194
3 216 197 194
3 216 217 197
3 215 195 218
3 218 195 196
3 198 218 196
3 217 219 197
3 219 218 198
3 197 219 198
3 220 199 213
3 221 200 199
3 220 221 199
3 222 201 200
3 221 222 200
3 203 204 223
3 203 223 202
3 202 223 205
3 204 208 224
3 204 224 223
3 205 223 225
3 205 225 207
3 207 225 226
3 207 226 206
3 226 216 206
3 208 228 224
3 224 228 227
3 209 229 208
3 229 228 208
3 210 230 209
3 209 230 229
3 213 212 231
3 212 211 231
3 231 211 214
3 232 220 213
3 232 213 231
3 233 231 214
3 233 214 215
3 234 233 215
3 234 215 218
3 226 235 216
3 235 217 216
3 235 236 217
3 217 236 219
3 237 234 218
3 237 218 219
3 236 238 219
3 238 237 219
3 240 220 232
3 239 240 232
3 241 221 220
3 240 241 220
3 242 222 221
3 241 242 221
3 224 227 243
3 224 243 223
3 223 243 225
3 225 243 244
3 225 244 226
3 226 244 235
3 227 245 243
3 228 246 227
3 227 246 245
3 229 247 228
3 228 247 246
3 230 248 229
3 229 248 247
3 239 232 249
3 232 231 249
3 249 231 233
3 250 249 233
3 250 233 234
3 237 250 234
3 244 251 235
3 235 251 236
3 251 252 236
3 236 252 238
3 252 253 238
3 253 250 237
3 253 237 238
3 254 239 249
3 255 240 239
3 254 255 239
3 256 241 240
3 255 256 240
3 257 242 241
3 256 257 241
3 245 258 243
3 243 258 244
3 244 258 251
3 245 259 258
3 246 260 245
3 245 260 259
3 247 261 246
3 246 261 260
3 248 262 247
3 247 262 261
3 254 249 263
3 263 249 250
3 253 263 250
3 258 264 251
3 251 264 252
3 264 265 252
3 265 263 253
3 252 265 253
3 266 254 263
3 267 255 254
3 266 267 254
3 268 256 255
3 267 268 255
3 269 257 256
3 268 269 256
3 259 270 258
3 270 264 258
3 260 271 259
3 259 271 270
3 261 272 260
3 260 272 271
3 262 273 261
3 273 272 261
3 270 274 264
3 275 266 263
3 275 263 265
3 274 276 264
3 276 265 264
3 276 277 265
3 277 275 265
3 278 267 266
3 275 278 266
3 279 268 267
3 278 279 267
3 280 269 268
3 279 280 268
3 271 281 270
3 270 281 274
3 272 282 271
3 271 282 281
3 273 283 272
3 272 283 282
3 281 284 274
3 274 284 276
3 285 278 275
3 277 285 275
3 284 286 276
3 286 285 277
3 276 286 277
3 287 279 278
3 285 287 278
3 288 280 279
3 287 288 279
3 282 289 281
3 281 289 284
3 283 290 282
3 282 290 289
3 289 291 284
3 284 291 286
3 291 292 286
3 292 287 285
3 286 292 285
3 293 288 287
3 292 293 287
3 290 294 289
3 289 294 291
3 294 295 291
3 295 293 292
3 291 295 292
CELL_TYPES 542
5
5
5
5
5
5
5
5
5
5
5
5
5
5
5
5
5
5
5
5
5
5
5
5
5
5
5
5
5
5
5
5
5
5
5
5
5
5
5
5
5
5
5
5
5
5
5
5
5
5
5
5
5
5
5
5
5
5
5
5
5
5
5
5
5
5
5
5
5
5
5
5
5
5
5
5
5
5
5
5
5
5
5
5
5
5
5
5
5
5
5
5
5
5
5
5
5
5
5
5
5
5
5
5
5
5
5
5
5
5
5
5
5
5
5
5
5
5
5
5
5
5
5
5
5
5
5
5
5
5
5
5
5
5
5
5
5
5
5
5
5
5
5
5
5
5
5
5
5
5
5
5
5
5
5
5
5
5
5
5
5
5
5
5
5
5
5
5
5
5
5
5
5
5
5
5
5
5
5
5
5
5
5
5
5
5
5
5
5
5
5
5
5
5
5
5
5
5
5
5
5
5
5
5
5
5
5
5
5
5
5
5
5
5
5
5
5
5
5
5
5
5
5
5
5
5
5
5
5
5
5
5
5
5
5
5
5
5
5
5
5
5
5
5
5
5
5
5
5
5
5
5
5
5
5
5
5
5
5
5
5
5
5
5
5
5
5
5
5
5
5
5
5
5
5
5
5
5
5
5
5
5
5
5
5
5
5
5
5
5
5
5
5
5
5
5
5
5
5
5
5
5
5
5
5
5
5
5
5
5
5
5
5
5
5
5
5
5
5
5
5
5
5
5
5
5
5
5
5
5
5
5
5
5
5
5
5
5
5
5
5
5
5
5
5
5
5
5
5
5
5
5
5
5
5
5
5
5
5
5
5
5
5
5
5
5
5
5
5
5
5
5
5
5
5
5
5
5
5
5
5
5
5
5
5
5
5
5
5
5
5
5
5
5
5
5
5
5
5
5
5
5
5
5
5
5
5
5
5
5
5
5
5
5
5
5
5
5
5
5
5
5
5
5
5
5
5
5
5
5
5
5
5
5
5
5
5
5
5
5
5
5
5
5
5
5
5
5
5
5
5
5
5
5
5
5
5
5
5
5
5
5
5
5
5
5
5
5
5
5
5
5
5
5
5
5
5
5
5
5
5
5
5
5
5
5
5
5
5
5
5
5
5
5
5
5
5
5
5
5
5
5
5
5
5
5
5
5
5
5
5
5
5
5
5
5
5
5
5
5
5
5
5
5
5
5
5
5
5
5
5
5
5
5
5
5
5
5
5
5
5
5
POINT_DATA 296
SCALARS concentrations float 4
LOOKUP_TABLE default
0 0.971008 0.16118 5.6241
0 0.970928 0.167139 11.0773
0 0.970984 0.168465 13.9868
0 0.970905 0.166067 15.0993
0 0.970979 0.0948348 8.81977
0 0.970844 0.163558 21.2378
0 0.970768 0.161377 23.9179
0 0.970953 0.095342 8.72452
0 0.970883 0.0955663 9.11567
0 0.970763 0.168824 20.457
0 0.970813 0.166288 20.2498
0 0.970965 0.165977 12.717
0 0.970975 0.160781 7.05566
0 0.970921 0.0930636 8.2324
0 0.970915 0.0933087 8.08189
0 0.970885 0.0942438 7.51153
0 0.970909 0.0949393 9.17562
0 0.970815 0.0938075 8.36749
0 0.970783 0.0933343 8.09748
0 0.970893 0.0945623 6.99466
0 0.970853 0.0950935 8.67541
0 0.970878 0.166663 14.3289
0 0.970792 0.16698 24.714
0 0.970804 0.0932792 7.39117
0 0.970851 0.0933922 7.36922
0 0.970963 0.0938955 8.0241
0 0.97088 0.165519 21.2565
0 0.970917 0.0946559 8.07129
0 0.97087 0.167987 16.9901
0 0.970875 0.094033 7.69926
0 0.970898 0.0939141 7.63852
0 0.970839 0.0941238 8.24644
0 0.970661 0.161376 25.0978
0 0.97085 0.0944115 8.40889
0 0.970864 0.0944093 7.6565
0 0.970829 0.0938394 7.66822
0 0.970831 0.0932355 7.06554
0 0.970851 0.0948666 8.56055
0 0.970845 0.0936722 7.98965
0 0.970857 0.0940103 7.61631
0 0.97075 0.0936694 7.33803
0 0.970842 0.0946303 7.1377
0 0.970849 0.0949021 6.81431
0 0.970771 0.16702 17.5195
0 0.970908 0.0942437 7.66587
0 0.970874 0.0940595 6.9121
0 0.97089 0.0944004 7.57396
0 0.97085 0.164005 20.4283
0 0.970867 0.0940417 6.26049
0 0.970815 0.167235 14.5175
0 0.970847 0.0939217 7.93575
0 0.970865 0.0941599 7.46314
0 0.970844 0.0935566 6.73965
0 0.970744 0.0936691 7.07664
0 0.970835 0.0932223 7.00082
0 0.970845 0.0951025 8.28169
0 0.970848 0.094947 6.76948
0 0.970854 0.0940149 7.19435
0 0.970846 0.0942743 5.88148
0 0.970843 0.0962116 7.36531
0 0.97083 0.0941955 7.24481
0 0.970856 0.0953934 6.61812
0 0.970859 0.098513 7.7259
0 0.970892 0.159913 22.143
0 0.970876 0.0944639 7.31655
0 0.970869 0.0950487 6.2931
0 0.970874 0.0957331 5.67939
0 0.970843 0.0940462 6.1319
0 0.970858 0.0946566 6.86093
0 0.970762 0.15899 29.613
0 0.9708 0.0945602 6.0586
0 0.970818 0.163033 16.966
0 0.970842 0.0941557 6.04059
0 0.970854 0.0946756 7.85108
0 0.970853 0.0936434 6.44409
0 0.97083 0.0936555 7.32858
0 0.970921 0.093486 7.31127
0 0.970855 0.09419 7.45999
0 0.970845 0.0942534 7.07376
0 0.970857 0.0979132 8.8793
0 0.970855 0.0941242 7.05007
0 0.970854 0.0945407 6.42756
0 0.970866 0.0960581 6.95378
0 0.970858 0.0937234 6.56701
0 0.970858 0.0952566 7.51212
0 0.970987 0.162048 8.78125
0 0.970863 0.0951568 7.5585
0 0.970856 0.0944009 7.4681
0 0.970847 0.0946768 6.1434
0 0.970856 0.095169 6.8062
0 0.970797 0.0954326 8.99119
0 0.970832 0.0956389 5.40368
0 0.970887 0.159496 25.0697
0 0.970836 0.0950032 6.8945
0 0.970877 0.10187 4.24427
0 0.970863 0.0935862 6.88747
0 0.970868 0.0941232 7.20213
0 0.970856 0.0935802 6.69373
0 0.97094 0.162339 16.6313
0 0.970946 0.094478 8.02847
0 0.97085 0.0937622 7.00735
0 0.970879 0.0944772 7.8042
0 0.970849 0.0939848 7.38731
0 0.970882 0.10248 8.88581
0 0.970854 0.094849 6.67872
0 0.970851 0.0935962 7.0595
0 0.970857 0.0942221 6.55422
0 0.970855 0.0941203 7.68712
0 0.970849 0.0951134 7.99857
0 0.970958 0.156013 10.2273
0 0.970854 0.0944405 6.90631
0 0.970852 0.0961318 5.93474
0 0.970826 0.095623 5.56864
0 0.970854 0.0970896 9.65033
0 0.97089 0.0957557 9.22304
0 0.970843 0.101412 8.1201
0 0.97091 0.0958937 9.15727
0 0.970897 0.0940363 7.0138
0 0.970884 0.0945389 6.75779
0 0.970892 0.0939574 6.64106
0 0.970872 0.0953125 7.6757
0 0.970854 0.0934835 6.43521
0 0.970866 0.0962567 7.28416
0 0.970904 0.0954568 7.73458
0 0.970982 0.163573 13.1616
0 0.970932 0.0945538 7.84203
0 0.970882 0.0948487 8.07856
0 0.970852 0.0937642 7.39967
0 0.970853 0.0941295 7.58181
0 0.970862 0.095147 6.37283
0 0.970858 0.0954832 6.63408
0 0.97085 0.0941593 7.1307
0 0.970859 0.0943254 7.2566
0 0.970948 0.0942028 7.89762
0 0.970978 0.165205 15.3231
0 0.970857 0.0945569 8.65677
0 0.970856 0.0952746 5.59622
0 0.970844 0.100281 3.31018
0 0.97085 0.0971635 6.42775
0 0.970942 0.0952726 5.76145
0 0.970833 0.0956513 4.51589
0 0.970858 0.0941036 6.70829
0 0.970883 0.0945834 7.86342
0 0.970907 0.0947469 7.42421
0 0.970888 0.0949072 6.53767
0 0.970871 0.0939581 7.39246
0 0.970867 0.0937772 6.92599
0 0.9709 0.0940563 6.64897
0 0.970907 0.0965771 6.79466
0 0.970956 0.094199 5.29818
0 0.971012 0.1603 16.9915
0 0.970858 0.0957829 6.55466
0 0.970878 0.0963675 8.5518
0 0.970852 0.0943184 7.89287
0 0.970855 0.093977 7.04133
0 0.970878 0.0945269 7.96582
0 0.970871 0.0954871 7.78955
0 0.970871 0.0965396 8.76047
0 0.970877 0.0951247 6.50427
0 0.970871 0.0946577 7.48361
0 0.970895 0.0935442 7.54299
0 0.970965 0.164088 18.7049
0 0.970857 0.095321 8.61476
0 0.970836 0.0951754 9.83535
0 0.970863 0.0943248 8.36919
0 0.970844 0.0949471 8.21421
0 0.97089 0.0950006 5.80782
0 0.970861 0.0941671 6.65801
0 0.970894 0.0947295 6.70595
0 0.970885 0.0943758 6.86355
0 0.970877 0.0956603 6.21016
0 0.970891 0.0952812 6.92731
0 0.970889 0.0947845 6.60196
0 0.970955 0.0937621 8.51391
0 0.970998 0.161974 7.86461
0 0.970861 0.0952901 7.16248
0 0.970856 0.0943756 7.96896
0 0.970855 0.0945977 7.62297
0 0.970869 0.0937522 7.66196
0 0.970866 0.0950271 8.2544
0 0.970884 0.0991728 5.97821
0 0.970891 0.0965384 6.57792
0 0.970882 0.0975635 6.38586
0 0.970878 0.0942573 7.03906
0 0.97087 0.0944248 6.93055
0 0.97086 0.0934047 6.97126
0 0.970812 0.0928182 7.31295
0 0.970834 0.162258 18.6018
0 0.970865 0.0944231 5.9965
0 0.970866 0.0953252 9.01811
0 0.970905 0.0950937 7.39892
0 0.970871 0.0959941 8.15909
0 0.970873 0.0941661 6.60617
0 0.970886 0.0954115 7.28996
0 0.970885 0.0952488 7.2109
0 0.970886 0.0953549 7.59442
0 0.970888 0.0958263 6.42949
0 0.970884 0.0990126 5.98189
0 0.970882 0.0959096 7.40072
0 0.970908 0.0947386 5.92001
0 0.970954 0.0935732 5.93747
0 0.970982 0.164654 10.4466
0 0.970863 0.0943542 7.94516
0 0.970868 0.0970996 7.28693
0 0.97087 0.0943437 6.51129
0 0.97087 0.0944948 6.68481
0 0.970883 0.102992 4.21191
0 0.970875 0.0951204 7.58308
0 0.970866 0.0936486 7.57153
0 0.970815 0.0930737 6.8816
0 0.970766 0.159802 16.3703
0 0.970871 0.0964816 9.88501
0 0.970878 0.0961717 6.33667
0 0.970879 0.0977712 5.57688
0 0.970885 0.0948079 6.77022
0 0.97089 0.0951683 7.50771
0 0.970884 0.0956599 6.65553
0 0.970886 0.095591 8.12555
0 0.970889 0.0957121 6.54851
0 0.970886 0.0958859 6.08665
0 0.970908 0.0948186 6.29871
0 0.970918 0.0935657 6.00345
0 0.970953 0.162044 17.9586
0 0.970868 0.0932361 6.92422
0 0.970878 0.0941456 6.78267
0 0.970866 0.0935919 6.72796
0 0.970872 0.0953352 7.02784
0 0.970866 0.100776 5.59974
0 0.970871 0.0952464 6.70577
0 0.970877 0.0940498 6.55786
0 0.970834 0.166981 20.1791
0 0.970874 0.09521 5.95491
0 0.970876 0.0943172 8.34832
0 0.970879 0.0956828 8.05251
0 0.970884 0.0960451 6.8435
0 0.970869 0.0952854 7.79295
0 0.970878 0.0955145 6.26274
0 0.970884 0.096572 5.8992
0 0.970879 0.0953178 6.55302
0 0.970889 0.0942431 8.24086
0 0.970919 0.0942419 6.2096
0 0.970923 0.0941867 6.71531
0 0.970898 0.159192 12.0698
0 0.970865 0.0951805 7.1072
0 0.970865 0.0953614 6.38995
0 0.970854 0.095645 7.24353
0 0.970851 0.0950723 7.14181
0 0.970888 0.0944115 6.8414
0 0.97092 0.16363 18.6934
0 0.970875 0.0949168 6.50819
0 0.970879 0.0951779 7.61956
0 0.970865 0.0948196 6.21637
0 0.970864 0.0955787 6.34937
0 0.970868 0.0963932 6.75732
0 0.970893 0.0951279 7.65921
0 0.970922 0.0942282 8.01115
0 0.970906 0.0935849 6.64385
0 0.970925 0.160795 18.8812
0 0.970866 0.0942917 7.64348
0 0.970871 0.0947217 7.29914
0 0.970858 0.0941259 6.68977
0 0.970836 0.0937773 7.18495
0 0.970871 0.166908 18.4335
0 0.970874 0.0962917 5.35073
0 0.970867 0.0942286 7.61364
0 0.970857 0.0951742 6.71618
0 0.970897 0.0961123 5.81267
0 0.970923 0.0947515 7.57517
0 0.970836 0.0934336 7.50407
0 0.970806 0.160308 14.7782
0 0.970879 0.0944483 7.35048
0 0.970882 0.0937603 6.8523
0 0.970826 0.0937927 7.58166
0 0.970801 0.166218 20.0471
0 0.97089 0.0940845 7.60132
0 0.970874 0.0964407 5.34635
0 0.970885 0.0945052 7.60247
0 0.970879 0.0953711 7.32627
0 0.970937 0.0958638 6.13637
0 0.970885 0.094017 7.4364
0 0.970776 0.158629 19.3848
0 0.970912 0.0941697 7.38395
0 0.970888 0.0938443 7.64592
0 0.970816 0.164596 17.3001
0 0.970922 0.0943022 6.99771
0 0.970938 0.0961878 7.80205
0 0.970926 0.0962199 5.90684
0 0.970986 0.0951236 6.91383
0 0.970922 0.157876 12.7534
0 0.970938 0.0936923 6.78171
0 0.970925 0.15925 11.1631
0 0.97089 0.0946737 6.545
0 0.970941 0.0959023 8.12483
0 0.970995 0.158264 11.2577
0 0.970905 0.163517 18.2075
0 0.970863 0.160638 17.8942
VECTORS fa_u float
0.00672401 0.00272261 -0
0.00638252 0.00367588 -0
0.0041519 0.00112173 -0
0.00677785 0.000988202 -0
1e-08 0 0
0.00515171 0.00396978 -0
0.00323105 0.00316668 -0
1e-08 0 0
1e-08 0 0
0.00440998 0.00552235 -0
0.0043778 0.00744883 -0
0.00664514 8.4638e-05 -0
0.00628024 -0.000736143 0
1e-08 0 0
1e-08 0 0
1e-08 0 0
1e-08 0 0
1e-08 0 0
1e-08 0 0
1e-08 0 0
1e-08 0 0
0.00275414 0.00673843 -0
0.00163593 0.00629462 -0
1e-08 0 0
1e-08 0 0
1e-08 0 0
0.00788605 -0.00203969 0
1e-08 0 0
0.00889881 -0.0038182 0
1e-08 0 0
1e-08 0 0
1e-08 0 0
0.000851796 0.00693825 -0
1e-08 0 0
1e-08 0 0
1e-08 0 0
1e-08 0 0
1e-08 0 0
1e-08 0 0
1e-08 0 0
1e-08 0 0
1e-08 0 0
1e-08 0 0
-0.000102097 0.00731671 -0
1e-08 0 0
1e-08 0 0
1e-08 0 0
0.00553978 -0.00339401 0
1e-08 0 0
0.00368919 -0.00291885 0
1e-08 0 0
1e-08 0 0
1e-08 0 0
1e-08 0 0
1e-08 0 0
1e-08 0 0
1e-08 0 0
1e-08 0 0
1e-08 0 0
1e-08 0 0
1e-08 0 0
1e-08 0 0
1e-08 0 0
-0.000685501 0.00488797 0
1e-08 0 0
1e-08 0 0
1e-08 0 0
1e-08 0 0
1e-08 0 0
0.00367046 -0.00364945 0
1e-08 0 0
0.00321761 -0.00403715 0
1e-08 0 0
1e-08 0 0
1e-08 0 0
1e-08 0 0
1e-08 0 0
1e-08 0 0
1e-08 0 0
1e-08 0 0
1e-08 0 0
1e-08 0 0
1e-08 0 0
1e-08 0 0
1e-08 0 0
-0.00150571 0.00572212 0
1e-08 0 0
1e-08 0 0
1e-08 0 0
1e-08 0 0
1e-08 0 0
1e-08 0 0
0.00467328 -0.0078238 0
1e-08 0 0
1e-08 0 0
1e-08 0 0
1e-08 0 0
1e-08 0 0
0.00317606 -0.00777552 0
1e-08 0 0
1e-08 0 0
1e-08 0 0
1e-08 0 0
1e-08 0 0
1e-08 0 0
1e-08 0 0
1e-08 0 0
1e-08 0 0
1e-08 0 0
-0.00271042 0.00664757 0
1e-08 0 0
1e-08 0 0
1e-08 0 0
1e-08 0 0
1e-08 0 0
1e-08 0 0
1e-08 0 0
1e-08 0 0
1e-08 0 0
1e-08 0 0
1e-08 0 0
1e-08 0 0
1e-08 0 0
1e-08 0 0
0.00150184 -0.00584146 0
1e-08 0 0
1e-08 0 0
1e-08 0 0
1e-08 0 0
1e-08 0 0
1e-08 0 0
1e-08 0 0
1e-08 0 0
1e-08 0 0
-0.00356298 0.00617524 0
1e-08 0 0
1e-08 0 0
1e-08 0 0
1e-08 0 0
1e-08 0 0
1e-08 0 0
1e-08 0 0
1e-08 0 0
1e-08 0 0
1e-08 0 0
1e-08 0 0
1e-08 0 0
1e-08 0 0
1e-08 0 0
1e-08 0 0
0.000628324 -0.00465344 0
1e-08 0 0
1e-08 0 0
1e-08 0 0
1e-08 0 0
1e-08 0 0
1e-08 0 0
1e-08 0 0
1e-08 0 0
1e-08 0 0
1e-08 0 0
-0.0043804 0.00565293 0
1e-08 0 0
1e-08 0 0
1e-08 0 0
1e-08 0 0
1e-08 0 0
1e-08 0 0
1e-08 0 0
1e-08 0 0
1e-08 0 0
1e-08 0 0
1e-08 0 0
1e-08 0 0
7.04113e-05 -0.00741538 0
1e-08 0 0
1e-08 0 0
1e-08 0 0
1e-08 0 0
1e-08 0 0
1e-08 0 0
1e-08 0 0
1e-08 0 0
1e-08 0 0
1e-08 0 0
1e-08 0 0
1e-08 0 0
-0.00308485 0.00311603 0
1e-08 0 0
1e-08 0 0
1e-08 0 0
1e-08 0 0
1e-08 0 0
1e-08 0 0
1e-08 0 0
1e-08 0 0
1e-08 0 0
1e-08 0 0
1e-08 0 0
1e-08 0 0
1e-08 0 0
-0.000859305 -0.00676664 0
1e-08 0 0
1e-08 0 0
1e-08 0 0
1e-08 0 0
1e-08 0 0
1e-08 0 0
1e-08 0 0
1e-08 0 0
-0.004953 0.00395074 0
1e-08 0 0
1e-08 0 0
1e-08 0 0
1e-08 0 0
1e-08 0 0
1e-08 0 0
1e-08 0 0
1e-08 0 0
1e-08 0 0
1e-08 0 0
1e-08 0 0
-0.00163944 -0.00622533 0
1e-08 0 0
1e-08 0 0
1e-08 0 0
1e-08 0 0
1e-08 0 0
1e-08 0 0
1e-08 0 0
-0.00741707 0.00439027 0
1e-08 0 0
1e-08 0 0
1e-08 0 0
1e-08 0 0
1e-08 0 0
1e-08 0 0
1e-08 0 0
1e-08 0 0
1e-08 0 0
1e-08 0 0
1e-08 0 0
-0.00277551 -0.00673567 0
1e-08 0 0
1e-08 0 0
1e-08 0 0
1e-08 0 0
1e-08 0 0
-0.00691304 0.00284357 0
1e-08 0 0
1e-08 0 0
1e-08 0 0
1e-08 0 0
1e-08 0 0
1e-08 0 0
1e-08 0 0
1e-08 0 0
-0.00435231 -0.0073638 0
1e-08 0 0
1e-08 0 0
1e-08 0 0
1e-08 0 0
-0.00631383 0.00164949 0
1e-08 0 0
1e-08 0 0
1e-08 0 0
1e-08 0 0
1e-08 0 0
1e-08 0 0
-0.00371033 -0.00467812 0
1e-08 0 0
1e-08 0 0
1e-08 0 0
-0.00682429 0.000848752 0
1e-08 0 0
1e-08 0 0
1e-08 0 0
1e-08 0 0
1e-08 0 0
1e-08 0 0
-0.00329827 -0.00328542 0
1e-08 0 0
1e-08 0 0
-0.00769151 -0.000103402 0
1e-08 0 0
1e-08 0 0
1e-08 0 0
1e-08 0 0
-0.00576363 -0.00447343 0
1e-08 0 0
-0.00451769 -0.000630006 0
1e-08 0 0
1e-08 0 0
-0.00623926 -0.00359796 0
-0.00588332 -0.00153476 0
-0.00671773 -0.002732 0
