# vtk DataFile Version 2.0
CellBP Time: 0.32
ASCII
DATASET UNSTRUCTURED_GRID
POINTS 296 double
-9.18854 -3.77687 0
-8.61037 -4.95014 0
-9.6091 -2.53783 0
-9.86399 -1.25485 0
-8.35848 -2.81899 0
-7.88342 -6.03729 0
-7.02075 -7.0206 0
-7.91754 -3.87532 0
-7.34288 -4.86844 0
-6.0378 -7.88394 0
-4.94961 -8.60966 0
-9.94998 0.0497913 0
-9.86417 1.35536 0
-8.65866 -1.68435 0
-8.78749 -0.529803 0
-7.59028 -2.00467 0
-7.22615 -2.90702 0
-6.63805 -5.77958 0
-5.82295 -6.59792 0
-6.79076 -3.88952 0
-6.22141 -4.67642 0
-3.77675 -9.18821 0
-2.53814 -9.60871 0
-4.90744 -7.30964 0
-3.91359 -7.88744 0
-8.79399 0.643018 0
-9.60903 2.63837 0
-8.62464 1.77407 0
-9.18842 3.87652 0
-7.74492 -0.929486 0
-7.79552 0.0798638 0
-6.953 -1.31637 0
-1.25501 -9.86409 0
-6.44191 -2.15365 0
-6.31979 -3.05672 0
-5.53748 -5.47493 0
-4.79685 -6.11601 0
-5.65996 -3.75712 0
-5.27026 -4.56168 0
-2.86651 -8.36521 0
-1.77929 -8.64119 0
-3.92897 -6.72446 0
-3.05698 -7.15388 0
0.0499142 -9.95035 0
-7.7068 1.14357 0
-8.33987 2.91603 0
-7.55303 2.11243 0
-8.60956 5.04961 0
-7.88132 3.97864 0
-7.88357 6.13754 0
-6.77932 -0.397327 0
-6.95764 0.552248 0
-5.77258 -1.00383 0
-0.591126 -8.8109 0
0.565369 -8.77201 0
-5.30354 -2.48082 0
-4.49281 -5.09588 0
-3.90338 -5.77585 0
-4.43994 -3.80509 0
-2.0615 -7.56299 0
-1.13464 -7.78693 0
-2.99516 -6.10311 0
-2.3083 -6.62089 0
1.35503 -9.8643 0
-6.69051 1.42249 0
-7.17323 3.11873 0
-6.66026 2.37359 0
-7.29565 4.98956 0
-6.71912 4.00379 0
-7.02075 7.12115 0
-6.57355 5.89484 0
-6.03716 7.98297 0
-4.45399 -1.1809 0
-5.81559 0.514168 0
-4.65715 -0.00985908 0
0.00917992 -7.84921 0
1.73824 -8.6449 0
0.949559 -7.76448 0
-4.03976 -2.40684 0
-3.48671 -1.39073 0
-3.2953 -4.80626 0
-3.26624 -3.26876 0
-1.37779 -6.67652 0
-0.508059 -7.02603 0
-1.97626 -5.53797 0
2.63809 -9.60872 0
-5.50833 2.03758 0
-6.09576 3.07292 0
-6.10622 4.87036 0
-5.76278 3.99224 0
-5.76238 6.71777 0
-5.45323 5.62005 0
-4.94994 8.71068 0
-4.83933 7.40541 0
-3.50257 -0.423509 0
-4.45026 1.24979 0
-3.71243 0.593006 0
-4.06315 2.32075 0
-3.77681 9.28888 0
2.86229 -8.33385 0
0.420103 -6.79652 0
2.02282 -7.52674 0
1.30631 -6.90657 0
-2.44364 -0.874521 0
-2.83951 -2.13165 0
-2.2947 -4.09857 0
-2.32597 -2.97475 0
-0.442748 -5.8623 0
-1.22316 -4.50034 0
3.8766 -9.18812 0
-4.79093 3.39258 0
-5.08906 4.59488 0
-4.6482 6.28211 0
-4.53996 5.36031 0
-3.84446 7.99465 0
-3.82763 6.84635 0
-2.78412 8.42384 0
-1.64795 -0.138333 0
-1.44921 -0.891257 0
-2.48816 0.507118 0
-3.25429 1.44538 0
-3.24005 3.31741 0
-2.91127 2.37312 0
-1.35403 0.626925 0
-2.53799 9.70906 0
3.93346 -7.888 0
2.96536 -7.15823 0
0.953766 -5.82299 0
2.07409 -6.4164 0
-1.68314 -1.99318 0
-1.43472 -3.27905 0
0.0899113 -4.74809 0
-0.566519 -3.69566 0
4.93304 -7.31966 0
5.05003 -8.6099 0
-3.77803 4.55212 0
-3.73573 5.75252 0
-2.88828 7.29086 0
-3.01048 6.35403 0
-1.66337 8.73454 0
-1.94025 7.62057 0
-2.3392 4.05239 0
-0.729774 -1.32796 0
-0.835755 -0.258028 0
-1.93522 1.68129 0
-2.12578 2.87714 0
-1.30674 3.54594 0
-0.868345 1.35123 0
-0.281146 0.456059 0
-0.534098 8.87272 0
-1.25491 9.96383 0
1.11258 -4.57545 0
3.91053 -6.71842 0
2.98781 -6.09553 0
2.11771 -5.42573 0
4.78538 -6.20617 0
-0.559003 -2.47811 0
0.494845 -3.46479 0
0.0544596 -1.61119 0
1.48189 -3.68285 0
5.86837 -6.6154 0
6.13741 -7.88319 0
-2.47648 5.34883 0
-2.13106 6.53478 0
-0.904048 7.80476 0
-1.27243 6.93266 0
0.0868643 7.88195 0
-1.14504 4.4955 0
0.151332 -0.617911 0
-0.796952 2.48958 0
-0.331675 3.60197 0
0.0640944 1.51343 0
0.742702 0.473501 0
0.6462 8.87553 0
0.0502061 10.0502 0
2.38109 -4.28589 0
3.85948 -5.64155 0
3.0015 -5.2135 0
5.57496 -5.49305 0
4.69207 -5.28397 0
0.629382 -2.29452 0
1.2562 -2.95195 0
0.758427 -1.39209 0
2.16454 -3.13646 0
2.99398 -3.47732 0
6.15664 -4.79298 0
6.65718 -5.77025 0
7.12132 -7.02073 0
-1.0201 5.82078 0
-0.372652 6.88448 0
1.12364 7.77093 0
0.558558 7.08143 0
0.000274004 4.72596 0
0.607084 3.82909 0
1.33993 -0.642144 0
0.539636 2.65219 0
0.96715 1.57559 0
1.91147 0.213811 0
1.61603 1.06534 0
2.13061 7.585 0
1.79891 8.71402 0
1.35537 9.96386 0
3.82319 -4.35265 0
5.11773 -4.45019 0
5.84717 -3.93632 0
3.78438 -3.20193 0
1.81269 -1.88321 0
3.0195 -2.57456 0
6.78521 -3.94901 0
7.38336 -4.89805 0
7.9837 -6.03768 0
0.483155 5.88222 0
1.42929 6.74321 0
2.37471 6.67021 0
1.21024 4.55762 0
1.48845 3.39893 0
2.43644 -0.692811 0
2.82922 0.142048 0
1.78964 2.16392 0
2.61329 1.15036 0
3.07232 7.17185 0
2.90449 8.37895 0
2.63827 9.70846 0
4.91218 -3.32903 0
6.1223 -3.10985 0
4.17351 -2.27616 0
3.24502 -1.50372 0
6.73341 -2.31375 0
7.2343 -3.04351 0
7.96706 -3.91382 0
8.70999 -4.9498 0
2.02372 5.60097 0
3.08767 6.15529 0
2.36468 4.12832 0
2.42034 3.06211 0
3.52667 -0.461632 0
3.6172 0.613158 0
2.9621 2.28906 0
3.5469 1.52603 0
4.01366 5.90004 0
3.98595 6.79557 0
3.97476 7.94144 0
3.8768 9.28842 0
5.57056 -1.91671 0
4.51055 -1.13046 0
6.7163 -1.33641 0
7.59529 -2.03717 0
8.40019 -2.86206 0
9.28854 -3.77672 0
3.42045 4.87847 0
3.34002 3.38673 0
4.693 0.130069 0
4.52075 1.31062 0
4.0662 2.44501 0
4.57235 5.15451 0
4.84567 6.19335 0
4.982 7.38356 0
5.05008 8.71015 0
5.88571 -0.434925 0
7.01382 -0.488339 0
7.76278 -1.08563 0
8.6883 -1.74658 0
9.70894 -2.53811 0
4.55402 3.82919 0
5.82003 1.09913 0
5.37288 2.53625 0
5.38221 4.62283 0
5.61451 5.52617 0
5.89954 6.67497 0
6.13699 7.98261 0
6.84925 0.463777 0
7.85702 -0.0256348 0
8.86432 -0.584344 0
9.9638 -1.25507 0
6.9638 1.35008 0
5.72334 3.78047 0
6.54436 2.19878 0
6.38277 3.08974 0
6.29509 4.68945 0
6.69639 5.84013 0
7.12076 7.12039 0
7.78822 0.968046 0
8.86351 0.57245 0
10.0499 0.0500025 0
7.61999 2.00529 0
6.83213 3.90639 0
7.27277 2.94853 0
7.3813 4.88849 0
7.98367 6.13776 0
8.72698 1.72795 0
9.96325 1.35499 0
8.42494 2.83857 0
7.98547 3.91772 0
8.70964 5.04967 0
9.70883 2.63809 0
9.2883 3.87692 0
CELLS 542 2168
3 2 0 4
3 0 1 7
3 4 0 7
3 1 5 8
3 7 1 8
3 3 2 13
3 13 2 4
3 11 3 14
3 14 3 13
3 13 4 15
3 4 7 16
3 15 4 16
3 5 6 17
3 8 5 17
3 6 9 18
3 17 6 18
3 7 8 19
3 16 7 19
3 8 17 20
3 19 8 20
3 9 10 23
3 18 9 23
3 10 21 24
3 23 10 24
3 12 11 25
3 25 11 14
3 26 12 27
3 27 12 25
3 14 13 29
3 29 13 15
3 25 14 30
3 30 14 29
3 29 15 31
3 15 16 33
3 31 15 33
3 16 19 34
3 33 16 34
3 17 18 35
3 20 17 35
3 18 23 36
3 35 18 36
3 19 20 37
3 34 19 37
3 20 35 38
3 37 20 38
3 21 22 39
3 24 21 39
3 22 32 40
3 39 22 40
3 23 24 41
3 36 23 41
3 24 39 42
3 41 24 42
3 27 25 44
3 44 25 30
3 28 26 45
3 45 26 27
3 45 27 46
3 46 27 44
3 47 28 48
3 48 28 45
3 30 29 50
3 50 29 31
3 44 30 51
3 51 30 50
3 50 31 52
3 31 33 52
3 32 43 53
3 40 32 53
3 53 43 54
3 33 34 55
3 34 37 55
3 33 55 52
3 35 36 56
3 38 35 56
3 36 41 57
3 56 36 57
3 37 38 58
3 38 56 58
3 37 58 55
3 39 40 59
3 42 39 59
3 40 53 60
3 59 40 60
3 41 42 61
3 57 41 61
3 42 59 62
3 61 42 62
3 43 63 54
3 46 44 64
3 64 44 51
3 48 45 65
3 65 45 46
3 65 46 66
3 66 46 64
3 49 47 67
3 67 47 48
3 67 48 68
3 68 48 65
3 69 49 70
3 70 49 67
3 52 55 72
3 64 51 73
3 51 50 73
3 50 52 73
3 73 52 74
3 74 52 72
3 53 54 75
3 60 53 75
3 54 63 76
3 54 76 77
3 75 54 77
3 55 58 78
3 72 55 78
3 72 78 79
3 56 57 80
3 57 61 80
3 56 80 58
3 58 80 81
3 78 58 81
3 59 60 82
3 62 59 82
3 60 75 83
3 82 60 83
3 61 62 84
3 62 82 84
3 61 84 80
3 63 85 76
3 66 64 86
3 64 73 86
3 68 65 87
3 87 65 66
3 87 66 86
3 70 67 88
3 88 67 68
3 88 68 89
3 89 68 87
3 71 69 90
3 90 69 70
3 90 70 91
3 91 70 88
3 92 71 93
3 93 71 90
3 74 72 94
3 94 72 79
3 86 73 95
3 95 73 74
3 95 74 96
3 96 74 94
3 97 86 95
3 76 85 99
3 75 77 100
3 83 75 100
3 76 99 101
3 77 76 101
3 77 101 102
3 100 77 102
3 94 79 103
3 78 81 104
3 79 78 104
3 79 104 103
3 80 84 105
3 81 80 105
3 81 105 106
3 104 81 106
3 82 83 107
3 83 100 107
3 82 107 84
3 84 107 108
3 105 84 108
3 85 109 99
3 89 87 110
3 87 86 110
3 110 86 97
3 91 88 111
3 111 88 89
3 111 89 110
3 93 90 112
3 112 90 91
3 112 91 113
3 113 91 111
3 98 92 114
3 114 92 93
3 114 93 115
3 115 93 112
3 116 98 114
3 117 103 118
3 96 94 119
3 94 103 119
3 119 103 117
3 97 95 120
3 120 95 96
3 120 96 119
3 121 110 97
3 121 97 122
3 122 97 120
3 123 119 117
3 124 98 116
3 99 109 125
3 99 125 126
3 101 99 126
3 100 102 127
3 100 127 107
3 101 126 128
3 102 101 128
3 102 128 127
3 104 106 129
3 104 129 103
3 103 129 118
3 105 108 130
3 106 105 130
3 106 130 129
3 107 127 131
3 108 107 131
3 108 131 132
3 108 132 130
3 109 134 125
3 125 134 133
3 113 111 135
3 111 110 135
3 135 110 121
3 115 112 136
3 136 112 113
3 136 113 135
3 116 114 137
3 137 114 115
3 137 115 138
3 138 115 136
3 139 124 116
3 139 116 140
3 140 116 137
3 141 135 121
3 118 129 142
3 118 142 143
3 117 118 143
3 123 117 143
3 122 120 144
3 120 119 144
3 144 119 123
3 141 121 145
3 145 121 122
3 145 122 144
3 146 141 145
3 147 144 123
3 147 123 148
3 143 148 123
3 150 124 139
3 149 150 139
3 131 127 151
3 125 133 152
3 126 125 152
3 126 152 153
3 128 126 153
3 128 153 154
3 128 154 127
3 127 154 151
3 152 133 155
3 130 132 156
3 130 156 129
3 129 156 142
3 131 151 157
3 132 131 157
3 132 157 156
3 156 158 142
3 157 151 159
3 133 160 155
3 134 161 133
3 133 161 160
3 138 136 162
3 136 135 162
3 162 135 141
3 140 137 163
3 163 137 138
3 163 138 162
3 149 139 164
3 164 139 140
3 164 140 165
3 165 140 163
3 166 149 164
3 167 162 141
3 167 141 146
3 142 158 168
3 143 142 168
3 143 168 148
3 146 145 169
3 145 144 169
3 169 144 147
3 170 167 146
3 170 146 169
3 171 169 147
3 171 147 148
3 171 148 172
3 168 172 148
3 173 149 166
3 174 150 149
3 173 174 149
3 154 175 151
3 151 175 159
3 152 155 176
3 153 152 176
3 153 176 177
3 153 177 154
3 154 177 175
3 155 160 178
3 155 178 179
3 176 155 179
3 156 157 180
3 156 180 158
3 157 159 181
3 157 181 180
3 158 180 182
3 158 182 168
3 159 175 183
3 159 183 181
3 175 184 183
3 160 186 178
3 178 186 185
3 161 187 160
3 160 187 186
3 165 163 188
3 163 162 188
3 188 162 167
3 166 164 189
3 189 164 165
3 189 165 188
3 190 173 166
3 190 166 191
3 191 166 189
3 192 188 167
3 192 167 170
3 193 192 170
3 182 194 168
3 194 172 168
3 193 170 195
3 170 169 195
3 195 169 171
3 196 195 171
3 196 171 172
3 194 197 172
3 197 198 172
3 198 196 172
3 200 173 190
3 199 200 190
3 201 174 173
3 200 201 173
3 176 179 202
3 177 176 202
3 177 202 175
3 175 202 184
3 178 185 203
3 178 203 179
3 179 203 202
3 203 185 204
3 202 205 184
3 183 206 181
3 180 181 206
3 180 206 182
3 182 206 194
3 183 184 207
3 205 207 184
3 183 207 206
3 185 208 204
3 186 209 185
3 185 209 208
3 187 210 186
3 186 210 209
3 191 189 211
3 189 188 211
3 211 188 192
3 199 190 212
3 212 190 191
3 212 191 211
3 213 199 212
3 214 211 192
3 214 192 193
3 215 214 193
3 215 193 195
3 206 216 194
3 216 197 194
3 216 217 197
3 215 195 218
3 218 195 196
3 198 218 196
3 217 219 197
3 219 218 198
3 197 219 198
3 220 199 213
3 221 200 199
3 220 221 199
3 222 201 200
3 221 222 200
3 203 204 223
3 203 223 202
3 202 223 205
3 204 208 224
3 204 224 223
3 205 223 225
3 205 225 207
3 207 225 226
3 207 226 206
3 226 216 206
3 208 228 224
3 224 228 227
3 209 229 208
3 229 228 208
3 210 230 209
3 209 230 229
3 213 212 231
3 212 211 231
3 231 211 214
3 232 220 213
3 232 213 231
3 233 231 214
3 233 214 215
3 234 233 215
3 234 215 218
3 226 235 216
3 235 217 216
3 235 236 217
3 217 236 219
3 237 234 218
3 237 218 219
3 236 238 219
3 238 237 219
3 240 220 232
3 239 240 232
3 241 221 220
3 240 241 220
3 242 222 221
3 241 242 221
3 224 227 243
3 224 243 223
3 223 243 225
3 225 243 244
3 225 244 226
3 226 244 235
3 227 245 243
3 228 246 227
3 227 246 245
3 229 247 228
3 228 247 246
3 230 248 229
3 229 248 247
3 239 232 249
3 232 231 249
3 249 231 233
3 250 249 233
3 250 233 234
3 237 250 234
3 244 251 235
3 235 251 236
3 251 252 236
3 236 252 238
3 252 253 238
3 253 250 237
3 253 237 238
3 254 239 249
3 255 240 239
3 254 255 239
3 256 241 240
3 255 256 240
3 257 242 241
3 256 257 241
3 245 258 243
3 243 258 244
3 244 258 251
3 245 259 258
3 246 260 245
3 245 260 259
3 247 261 246
3 246 261 260
3 248 262 247
3 247 262 261
3 254 249 263
3 263 249 250
3 253 263 250
3 258 264 251
3 251 264 252
3 264 265 252
3 265 263 253
3 252 265 253
3 266 254 263
3 267 255 254
3 266 267 254
3 268 256 255
3 267 268 255
3 269 257 256
3 268 269 256
3 259 270 258
3 270 264 258
3 260 271 259
3 259 271 270
3 261 272 260
3 260 272 271
3 262 273 261
3 273 272 261
3 270 274 264
3 275 266 263
3 275 263 265
3 274 276 264
3 276 265 264
3 276 277 265
3 277 275 265
3 278 267 266
3 275 278 266
3 279 268 267
3 278 279 267
3 280 269 268
3 279 280 268
3 271 281 270
3 270 281 274
3 272 282 271
3 271 282 281
3 273 283 272
3 272 283 282
3 281 284 274
3 274 284 276
3 285 278 275
3 277 285 275
3 284 286 276
3 286 285 277
3 276 286 277
3 287 279 278
3 285 287 278
3 288 280 279
3 287 288 279
3 282 289 281
3 281 289 284
3 283 290 282
3 282 290 289
3 289 291 284
3 284 291 286
3 291 292 286
3 292 287 285
3 286 292 285
3 293 288 287
3 292 293 287
3 290 294 289
3 289 294 291
3 294 295 291
3 295 293 292
3 291 295 292
CELL_TYPES 542
5
5
5
5
5
5
5
5
5
5
5
5
5
5
5
5
5
5
5
5
5
5
5
5
5
5
5
5
5
5
5
5
5
5
5
5
5
5
5
5
5
5
5
5
5
5
5
5
5
5
5
5
5
5
5
5
5
5
5
5
5
5
5
5
5
5
5
5
5
5
5
5
5
5
5
5
5
5
5
5
5
5
5
5
5
5
5
5
5
5
5
5
5
5
5
5
5
5
5
5
5
5
5
5
5
5
5
5
5
5
5
5
5
5
5
5
5
5
5
5
5
5
5
5
5
5
5
5
5
5
5
5
5
5
5
5
5
5
5
5
5
5
5
5
5
5
5
5
5
5
5
5
5
5
5
5
5
5
5
5
5
5
5
5
5
5
5
5
5
5
5
5
5
5
5
5
5
5
5
5
5
5
5
5
5
5
5
5
5
5
5
5
5
5
5
5
5
5
5
5
5
5
5
5
5
5
5
5
5
5
5
5
5
5
5
5
5
5
5
5
5
5
5
5
5
5
5
5
5
5
5
5
5
5
5
5
5
5
5
5
5
5
5
5
5
5
5
5
5
5
5
5
5
5
5
5
5
5
5
5
5
5
5
5
5
5
5
5
5
5
5
5
5
5
5
5
5
5
5
5
5
5
5
5
5
5
5
5
5
5
5
5
5
5
5
5
5
5
5
5
5
5
5
5
5
5
5
5
5
5
5
5
5
5
5
5
5
5
5
5
5
5
5
5
5
5
5
5
5
5
5
5
5
5
5
5
5
5
5
5
5
5
5
5
5
5
5
5
5
5
5
5
5
5
5
5
5
5
5
5
5
5
5
5
5
5
5
5
5
5
5
5
5
5
5
5
5
5
5
5
5
5
5
5
5
5
5
5
5
5
5
5
5
5
5
5
5
5
5
5
5
5
5
5
5
5
5
5
5
5
5
5
5
5
5
5
5
5
5
5
5
5
5
5
5
5
5
5
5
5
5
5
5
5
5
5
5
5
5
5
5
5
5
5
5
5
5
5
5
5
5
5
5
5
5
5
5
5
5
5
5
5
5
5
5
5
5
5
5
5
5
5
5
5
5
5
5
5
5
5
5
5
5
5
5
5
5
5
5
5
5
5
5
5
5
5
5
5
5
5
5
5
5
5
5
5
5
5
5
5
5
5
5
5
5
5
5
5
5
5
5
5
5
5
5
5
5
5
5
5
5
5
5
5
5
5
5
5
5
5
5
5
POINT_DATA 296
SCALARS concentrations float 4
LOOKUP_TABLE default
0 0.999909 0.108197 13.3378
0 0.999933 0.104965 12.4298
0 0.999956 0.107856 11.4312
0 0.999953 0.105229 10.2754
0 0.999933 0.0913417 8.18361
0 1.00001 0.109589 8.66816
0 1.00001 0.110829 5.62552
0 0.999914 0.091535 7.93305
0 0.999952 0.0910012 7.58849
0 0.999959 0.108521 8.136
0 0.999923 0.107319 11.29
0 0.999936 0.104353 8.99099
0 0.999965 0.105312 7.83898
0 0.999963 0.0911311 8.28152
0 0.999947 0.090838 8.28699
0 0.999945 0.0914462 8.20111
0 0.99993 0.0916996 8.1334
0 0.999996 0.0906351 7.88297
0 0.999975 0.0906284 8.39131
0 0.999919 0.0919299 8.60216
0 0.99994 0.0915018 8.58377
0 0.999907 0.106854 9.80167
0 0.999881 0.104949 10.7158
0 0.999945 0.0902834 8.39844
0 0.999927 0.0899123 8.33196
0 0.999961 0.0908459 8.32889
0 0.999909 0.107091 12.8055
0 0.999955 0.0910631 8.00598
0 0.999901 0.105346 12.9667
0 0.999953 0.0908268 7.79183
0 0.99996 0.0913058 8.4521
0 0.999927 0.090625 7.46116
0 0.999922 0.106983 12.8203
0 0.999921 0.091139 7.71983
0 0.999917 0.0917395 8.211
0 0.99996 0.0906749 8.01137
0 0.999957 0.0905121 8.13027
0 0.999921 0.0907187 7.09911
0 0.99994 0.0902348 7.29641
0 0.999908 0.0898295 8.21066
0 0.999904 0.0898581 8.1867
0 0.99995 0.09044 8.53675
0 0.999939 0.09019 8.4403
0 0.999971 0.107542 5.92742
0 0.999972 0.0914753 8.21545
0 0.999913 0.0909905 7.3613
0 0.999954 0.0910819 6.97752
0 0.999884 0.105833 12.0398
0 0.999909 0.0906158 7.47984
0 0.999869 0.108271 14.1051
0 0.999933 0.0907554 7.70037
0 0.999957 0.0917816 8.63129
0 0.999918 0.0921528 8.86371
0 0.999944 0.0897382 7.7557
0 0.999941 0.0894546 7.74738
0 0.999913 0.0904277 7.31681
0 0.999944 0.0901185 7.3553
0 0.999947 0.0906073 8.21404
0 0.999937 0.0911343 7.7071
0 0.999926 0.0895301 6.7851
0 0.999924 0.0896143 6.94252
0 0.999947 0.0907176 8.91958
0 0.99994 0.0896723 7.2181
0 0.99992 0.106803 12.5763
0 0.999957 0.0908589 6.43144
0 0.999926 0.0907104 6.8026
0 0.99994 0.0908752 6.38865
0 0.999883 0.0898796 7.3341
0 0.999911 0.0900294 7.02659
0 0.999868 0.106174 12.6776
0 0.999882 0.0899473 7.55222
0 0.999908 0.103359 11.1896
0 0.99992 0.0925839 5.00407
0 0.999938 0.0911159 5.47546
0 0.999935 0.09103 5.28539
0 0.999928 0.0898838 6.99068
0 0.999913 0.0900146 7.46224
0 0.999929 0.0904753 6.72461
0 0.999928 0.0920313 7.96287
0 0.999929 0.0907837 5.49144
0 0.999948 0.0911653 9.13137
0 0.999958 0.0902743 8.18293
0 0.999932 0.089772 7.07726
0 0.999927 0.0898558 7.16621
0 0.99994 0.0906987 8.68451
0 0.999905 0.107903 14.8377
0 0.999939 0.0905425 5.74687
0 0.999925 0.0902708 6.64292
0 0.999904 0.0901274 7.42171
0 0.999918 0.0901835 7.04735
0 0.99989 0.0902999 7.60063
0 0.999907 0.0903414 7.54218
0 1.00001 0.105923 10.0912
0 0.999947 0.0911329 7.39833
0 0.999941 0.0906918 5.43361
0 0.999944 0.0908488 5.19659
0 0.999948 0.0906227 5.24858
0 0.999939 0.0906235 5.78841
0 1.00003 0.108496 6.66457
0 0.999929 0.0908407 7.81758
0 0.999935 0.0900101 7.60539
0 0.999933 0.0918024 5.78191
0 0.999942 0.0902942 7.88677
0 0.999933 0.0906277 8.5991
0 0.999946 0.0916225 6.56819
0 0.999947 0.090449 8.51566
0 0.999957 0.0904678 8.2575
0 0.999939 0.090348 8.24897
0 0.999938 0.0908064 8.20964
0 0.999933 0.10502 10.9719
0 0.999927 0.0905078 7.16315
0 0.999916 0.0904429 7.42984
0 0.999919 0.0907687 7.60922
0 0.999912 0.0906355 7.75773
0 1.00001 0.091387 7.14542
0 0.999941 0.0915084 7.74909
0 0.999979 0.0913186 7.43324
0 0.999919 0.0905175 7.93983
0 0.999919 0.0905191 7.26635
0 0.999941 0.0916085 9.41718
0 0.999949 0.0907311 5.05632
0 0.999933 0.0909697 7.72822
0 0.999941 0.0905925 5.25484
0 0.999926 0.0907247 7.91584
0 0.999935 0.108818 10.9424
0 0.999957 0.0928139 5.29474
0 0.999952 0.091897 6.45222
0 0.999947 0.0903443 8.09226
0 0.999946 0.0908322 8.52074
0 0.999944 0.0902566 7.15275
0 0.999943 0.0908245 8.09619
0 0.999949 0.0905786 7.63552
0 0.999945 0.0910978 7.60778
0 0.999974 0.0923001 5.96285
0 0.999952 0.106058 11.4408
0 0.999921 0.0907331 8.18081
0 0.999916 0.0905899 8.23308
0 0.999956 0.0918521 7.29061
0 0.999923 0.0905598 8.30727
0 0.999921 0.090332 7.77934
0 0.999943 0.0916774 7.23013
0 0.999933 0.0911499 8.32877
0 0.999929 0.0914475 6.21522
0 0.999907 0.0910782 6.68521
0 0.999939 0.091961 6.44026
0 0.999939 0.0905881 5.46113
0 0.999945 0.0907268 6.21358
0 0.999926 0.0918768 6.27539
0 0.999918 0.0916472 6.43143
0 0.99991 0.0899481 7.61495
0 0.999895 0.106905 14.5913
0 0.999947 0.0906726 7.39556
0 0.99997 0.0930288 5.45335
0 0.999952 0.0914939 8.79882
0 0.999946 0.0909879 8.16603
0 0.999969 0.0923558 6.17148
0 0.999949 0.0915313 7.31341
0 0.999952 0.0910434 6.70303
0 0.999947 0.0924605 5.81819
0 0.999941 0.0910527 6.90961
0 0.999982 0.0908121 7.55232
0 0.999989 0.105026 11.6838
0 0.999923 0.0905807 8.49216
0 0.99993 0.0905595 7.81411
0 0.999934 0.0916889 7.24356
0 0.99994 0.0908275 7.81458
0 0.999936 0.0910622 7.24326
0 0.999938 0.0909137 8.34192
0 0.999919 0.0926135 4.66369
0 0.999935 0.0917222 5.635
0 0.999947 0.0908982 6.54972
0 0.999929 0.0917372 5.68134
0 0.99993 0.0913211 6.60189
0 0.999904 0.0899317 7.88368
0 0.999889 0.103483 9.04254
0 0.999938 0.0913613 7.60637
0 0.999948 0.0917004 6.80339
0 0.999944 0.0915252 8.30659
0 0.999965 0.0923031 5.63438
0 0.999942 0.0927004 5.82274
0 0.999956 0.0921072 6.27216
0 0.999954 0.0913298 6.33417
0 0.999944 0.09318 5.58946
0 0.999939 0.0912012 6.98768
0 0.99993 0.091201 7.36469
0 0.999962 0.0918944 5.90578
0 0.999957 0.0906429 6.77534
0 0.999965 0.109202 9.96704
0 0.999938 0.0904681 7.93103
0 0.999944 0.0909027 8.18202
0 0.999935 0.0899807 7.42268
0 0.999955 0.0919934 7.0542
0 0.999943 0.0905511 6.52786
0 0.999944 0.091256 6.81489
0 0.999938 0.0927333 4.67025
0 0.999938 0.0910976 5.73569
0 0.999937 0.0912749 5.98827
0 0.999945 0.0913327 6.07712
0 0.99994 0.0910344 6.62209
0 0.999922 0.0897271 7.23574
0 0.999875 0.0900648 7.78614
0 0.999872 0.111553 14.7748
0 0.999931 0.091272 7.01147
0 0.999946 0.0926194 5.59404
0 0.999951 0.0921518 5.84587
0 0.999918 0.0911054 7.27062
0 0.999947 0.0914942 6.10143
0 0.999933 0.0911345 7.10099
0 0.999952 0.0914475 6.20366
0 0.999958 0.0908657 6.37733
0 0.999959 0.103654 10.9961
0 0.999948 0.0909186 7.59171
0 0.999948 0.0901066 7.27762
0 0.999942 0.0920872 7.5163
0 0.999946 0.0918038 6.69117
0 0.999944 0.0914284 6.79128
0 0.999944 0.0916534 6.80046
0 0.999944 0.0920722 6.49384
0 0.999942 0.0912092 6.14176
0 0.999939 0.0908148 6.87373
0 0.999922 0.0909637 8.05663
0 0.999857 0.0910533 7.65904
0 0.999816 0.107651 12.2067
0 0.999928 0.0917223 6.21774
0 0.999945 0.0919738 5.97737
0 0.999915 0.0910324 6.95829
0 0.999929 0.0911208 6.67755
0 0.999944 0.091301 6.6303
0 0.999945 0.0910666 6.49957
0 0.999922 0.0908253 6.25305
0 0.999926 0.108002 11.5156
0 0.999949 0.0915189 8.80777
0 0.999944 0.090163 7.48071
0 0.999947 0.091533 6.89594
0 0.999942 0.091697 7.55836
0 0.999931 0.0914249 6.83724
0 0.999929 0.0912506 6.12578
0 0.99993 0.0914706 8.09765
0 0.999918 0.0906472 6.74172
0 0.999934 0.0896687 7.36724
0 0.999925 0.0900347 7.28196
0 0.999889 0.0905134 7.1308
0 0.999844 0.106758 13.6838
0 0.999926 0.0915867 6.6851
0 0.999923 0.0916229 6.43524
0 0.999933 0.0900299 7.04521
0 0.999934 0.0906952 6.64046
0 0.999926 0.0896193 6.88141
0 0.999911 0.10663 9.02833
0 0.999943 0.0895637 7.22611
0 0.999938 0.0907035 6.89094
0 0.999932 0.0905037 6.44266
0 0.999922 0.0902629 6.90125
0 0.999926 0.0909946 6.95675
0 0.999928 0.089716 7.40037
0 0.999923 0.0895825 7.35791
0 0.999915 0.0898036 7.21885
0 0.99989 0.104579 14.2266
0 0.999928 0.0896433 6.93943
0 0.999923 0.0895313 7.03887
0 0.999925 0.089953 6.85383
0 0.999905 0.0897551 6.78736
0 0.999902 0.107764 10.2353
0 0.999934 0.0899804 7.19954
0 0.999928 0.0902696 7.0579
0 0.999926 0.0905408 7.11618
0 0.999925 0.0898999 7.36505
0 0.999921 0.0897531 7.42523
0 0.999921 0.089681 7.3391
0 0.999926 0.106145 9.71283
0 0.99992 0.0899876 7.06333
0 0.999917 0.0893445 7.07178
0 0.999918 0.0894653 7.0067
0 0.999893 0.102803 8.497
0 0.999927 0.0904522 7.27112
0 0.999927 0.090217 7.19648
0 0.999929 0.0909358 7.59511
0 0.999925 0.0905882 7.18759
0 0.999922 0.0901582 7.31947
0 0.99989 0.090611 7.80483
0 0.999888 0.106472 13.7232
0 0.999916 0.0897404 7.21747
0 0.999922 0.089415 7.09469
0 0.999923 0.105527 11.221
0 0.999921 0.0905566 7.52204
0 0.999935 0.0908684 7.36511
0 0.999929 0.0908635 7.40773
0 0.999937 0.0904264 7.45062
0 0.999895 0.107565 9.29603
0 0.999917 0.0901592 7.35873
0 0.999924 0.105595 11.3391
0 0.999915 0.0901276 7.50474
0 0.999939 0.0908012 7.59542
0 0.999961 0.105867 8.91521
0 0.999922 0.108347 12.7596
0 0.999916 0.106915 10.7713
VECTORS fa_u float
0.00600485 0.00248609 -0
0.00570747 0.00329538 -0
0.00632378 0.00169362 -0
0.00641219 0.000844691 -0
1e-08 0 0
0.00516466 0.00396523 -0
0.0045498 0.00454727 -0
1e-08 0 0
1e-08 0 0
0.00407167 0.00530691 -0
0.00321249 0.00556905 -0
0.00658131 4.7001e-07 -0
0.00644699 -0.000849141 0
1e-08 0 0
1e-08 0 0
1e-08 0 0
1e-08 0 0
1e-08 0 0
1e-08 0 0
1e-08 0 0
1e-08 0 0
0.00250138 0.00603777 -0
0.00168716 0.00629494 -0
1e-08 0 0
1e-08 0 0
1e-08 0 0
0.00633136 -0.00169701 0
1e-08 0 0
0.00603117 -0.00249995 0
1e-08 0 0
1e-08 0 0
1e-08 0 0
0.000848381 0.00642668 -0
1e-08 0 0
1e-08 0 0
1e-08 0 0
1e-08 0 0
1e-08 0 0
1e-08 0 0
1e-08 0 0
1e-08 0 0
1e-08 0 0
1e-08 0 0
5.31764e-07 0.0066219 -0
1e-08 0 0
1e-08 0 0
1e-08 0 0
0.00558059 -0.00322061 0
1e-08 0 0
0.00523506 -0.00401514 0
1e-08 0 0
1e-08 0 0
1e-08 0 0
1e-08 0 0
1e-08 0 0
1e-08 0 0
1e-08 0 0
1e-08 0 0
1e-08 0 0
1e-08 0 0
1e-08 0 0
1e-08 0 0
1e-08 0 0
-0.000852485 0.00645838 0
1e-08 0 0
1e-08 0 0
1e-08 0 0
1e-08 0 0
1e-08 0 0
0.0046358 -0.00463826 0
1e-08 0 0
0.0038997 -0.00508048 0
1e-08 0 0
1e-08 0 0
1e-08 0 0
1e-08 0 0
1e-08 0 0
1e-08 0 0
1e-08 0 0
1e-08 0 0
1e-08 0 0
1e-08 0 0
1e-08 0 0
1e-08 0 0
1e-08 0 0
-0.00168678 0.00629021 0
1e-08 0 0
1e-08 0 0
1e-08 0 0
1e-08 0 0
1e-08 0 0
1e-08 0 0
0.00331508 -0.00573793 0
1e-08 0 0
1e-08 0 0
1e-08 0 0
1e-08 0 0
1e-08 0 0
0.00249754 -0.00603369 0
1e-08 0 0
1e-08 0 0
1e-08 0 0
1e-08 0 0
1e-08 0 0
1e-08 0 0
1e-08 0 0
1e-08 0 0
1e-08 0 0
1e-08 0 0
-0.00247986 0.00598836 0
1e-08 0 0
1e-08 0 0
1e-08 0 0
1e-08 0 0
1e-08 0 0
1e-08 0 0
1e-08 0 0
1e-08 0 0
1e-08 0 0
1e-08 0 0
1e-08 0 0
1e-08 0 0
1e-08 0 0
1e-08 0 0
0.00168935 -0.00631213 0
1e-08 0 0
1e-08 0 0
1e-08 0 0
1e-08 0 0
1e-08 0 0
1e-08 0 0
1e-08 0 0
1e-08 0 0
1e-08 0 0
-0.00328332 0.00568839 0
1e-08 0 0
1e-08 0 0
1e-08 0 0
1e-08 0 0
1e-08 0 0
1e-08 0 0
1e-08 0 0
1e-08 0 0
1e-08 0 0
1e-08 0 0
1e-08 0 0
1e-08 0 0
1e-08 0 0
1e-08 0 0
1e-08 0 0
0.000840119 -0.00637328 0
1e-08 0 0
1e-08 0 0
1e-08 0 0
1e-08 0 0
1e-08 0 0
1e-08 0 0
1e-08 0 0
1e-08 0 0
1e-08 0 0
1e-08 0 0
-0.00395204 0.00515099 0
1e-08 0 0
1e-08 0 0
1e-08 0 0
1e-08 0 0
1e-08 0 0
1e-08 0 0
1e-08 0 0
1e-08 0 0
1e-08 0 0
1e-08 0 0
1e-08 0 0
1e-08 0 0
6.88316e-08 -0.006655 0
1e-08 0 0
1e-08 0 0
1e-08 0 0
1e-08 0 0
1e-08 0 0
1e-08 0 0
1e-08 0 0
1e-08 0 0
1e-08 0 0
1e-08 0 0
1e-08 0 0
1e-08 0 0
-0.00461979 0.00462177 0
1e-08 0 0
1e-08 0 0
1e-08 0 0
1e-08 0 0
1e-08 0 0
1e-08 0 0
1e-08 0 0
1e-08 0 0
1e-08 0 0
1e-08 0 0
1e-08 0 0
1e-08 0 0
1e-08 0 0
-0.000848404 -0.00642442 0
1e-08 0 0
1e-08 0 0
1e-08 0 0
1e-08 0 0
1e-08 0 0
1e-08 0 0
1e-08 0 0
1e-08 0 0
-0.00522146 0.00400554 0
1e-08 0 0
1e-08 0 0
1e-08 0 0
1e-08 0 0
1e-08 0 0
1e-08 0 0
1e-08 0 0
1e-08 0 0
1e-08 0 0
1e-08 0 0
1e-08 0 0
-0.00167745 -0.00626193 0
1e-08 0 0
1e-08 0 0
1e-08 0 0
1e-08 0 0
1e-08 0 0
1e-08 0 0
1e-08 0 0
-0.00561703 0.00324168 0
1e-08 0 0
1e-08 0 0
1e-08 0 0
1e-08 0 0
1e-08 0 0
1e-08 0 0
1e-08 0 0
1e-08 0 0
1e-08 0 0
1e-08 0 0
1e-08 0 0
-0.00249831 -0.00603568 0
1e-08 0 0
1e-08 0 0
1e-08 0 0
1e-08 0 0
1e-08 0 0
-0.00603625 0.00250026 0
1e-08 0 0
1e-08 0 0
1e-08 0 0
1e-08 0 0
1e-08 0 0
1e-08 0 0
1e-08 0 0
1e-08 0 0
-0.00331717 -0.00574162 0
1e-08 0 0
1e-08 0 0
1e-08 0 0
1e-08 0 0
-0.00632528 0.00169383 0
1e-08 0 0
1e-08 0 0
1e-08 0 0
1e-08 0 0
1e-08 0 0
1e-08 0 0
-0.00390685 -0.00508872 0
1e-08 0 0
1e-08 0 0
1e-08 0 0
-0.00640696 0.000843953 0
1e-08 0 0
1e-08 0 0
1e-08 0 0
1e-08 0 0
1e-08 0 0
1e-08 0 0
-0.00458696 -0.00459152 0
1e-08 0 0
1e-08 0 0
-0.0066476 -1.40922e-06 0
1e-08 0 0
1e-08 0 0
1e-08 0 0
1e-08 0 0
-0.00528575 -0.0040558 0
1e-08 0 0
-0.00633149 -0.000834269 0
1e-08 0 0
1e-08 0 0
-0.00557587 -0.00321757 0
-0.00636292 -0.00170293 0
-0.00604923 -0.00250639 0
