# vtk DataFile Version 2.0
CellBP Time: 1.76
ASCII
DATASET UNSTRUCTURED_GRID
POINTS 296 double
-9.14268 -3.7552 0
-8.56829 -4.9245 0
-9.55767 -2.5199 0
-9.81644 -1.2472 0
-8.31093 -2.79839 0
-7.84333 -6.00789 0
-6.98351 -6.98743 0
-7.86995 -3.84972 0
-7.29827 -4.83875 0
-6.01154 -7.85143 0
-4.93443 -8.57851 0
-9.9062 0.0475465 0
-9.82528 1.34713 0
-8.61495 -1.67376 0
-8.74835 -0.526142 0
-7.54371 -1.98842 0
-7.17909 -2.88427 0
-6.60275 -5.75052 0
-5.79586 -6.57133 0
-6.74591 -3.86231 0
-6.18269 -4.64919 0
-3.76545 -9.15417 0
-2.52883 -9.57103 0
-4.89058 -7.28247 0
-3.90164 -7.86259 0
-8.75701 0.639842 0
-9.57694 2.62917 0
-8.59098 1.76531 0
-9.15826 3.86345 0
-7.70272 -0.92046 0
-7.75648 0.0817095 0
-6.91251 -1.30458 0
-1.24818 -9.8237 0
-6.40462 -2.13779 0
-6.28162 -3.03604 0
-5.50709 -5.44888 0
-4.77399 -6.0905 0
-5.62619 -3.73527 0
-5.23856 -4.53706 0
-2.85832 -8.33814 0
-1.77347 -8.60773 0
-3.91535 -6.69961 0
-3.04847 -7.12908 0
0.051032 -9.90476 0
-7.67097 1.13856 0
-8.31201 2.90661 0
-7.51885 2.1006 0
-8.57309 5.02665 0
-7.8479 3.96034 0
-7.84144 6.1052 0
-6.74153 -0.392088 0
-6.92143 0.550905 0
-5.74278 -0.998257 0
-0.589758 -8.778 0
0.562948 -8.73194 0
-5.27631 -2.46636 0
-4.46761 -5.07177 0
-3.88441 -5.75178 0
-4.41703 -3.78641 0
-2.05493 -7.53758 0
-1.13127 -7.75848 0
-2.98292 -6.07826 0
-2.30084 -6.59823 0
1.34701 -9.81318 0
-6.65836 1.41419 0
-7.13857 3.10168 0
-6.62931 2.36079 0
-7.26242 4.96421 0
-6.6874 3.98286 0
-6.98292 7.0819 0
-6.54216 5.86497 0
-6.00628 7.94248 0
-4.43877 -1.17734 0
-5.79111 0.509944 0
-4.64174 -0.0130411 0
0.00572554 -7.81523 0
1.72791 -8.60004 0
0.941481 -7.72578 0
-4.02403 -2.3977 0
-3.48118 -1.38937 0
-3.28301 -4.78641 0
-3.25695 -3.25723 0
-1.37486 -6.65011 0
-0.51014 -6.99556 0
-1.97048 -5.51821 0
2.62367 -9.55897 0
-5.48508 2.02753 0
-6.0673 3.0565 0
-6.07652 4.84349 0
-5.73597 3.97008 0
-5.7335 6.6827 0
-5.42517 5.58875 0
-4.93042 8.67492 0
-4.81388 7.36449 0
-3.49423 -0.423245 0
-4.43307 1.2452 0
-3.70209 0.591062 0
-4.04694 2.31593 0
-3.76372 9.25146 0
2.84296 -8.28474 0
0.411613 -6.76284 0
2.00732 -7.48298 0
1.29321 -6.86739 0
-2.44113 -0.873027 0
-2.83437 -2.12754 0
-2.28945 -4.08579 0
-2.3215 -2.96708 0
-0.44352 -5.83678 0
-1.21938 -4.48705 0
3.85719 -9.14336 0
-4.77171 3.37697 0
-5.06405 4.56903 0
-4.6233 6.2448 0
-4.5183 5.33054 0
-3.82802 7.95594 0
-3.80626 6.80667 0
-2.76958 8.38054 0
-1.64641 -0.136141 0
-1.44812 -0.889292 0
-2.48419 0.508981 0
-3.24549 1.44369 0
-3.22819 3.30787 0
-2.90249 2.37101 0
-1.35287 0.629245 0
-2.52831 9.66537 0
3.90851 -7.84112 0
2.94225 -7.11107 0
0.943737 -5.79243 0
2.05545 -6.37748 0
-1.68061 -1.98979 0
-1.43107 -3.271 0
0.0871486 -4.72878 0
-0.563274 -3.68653 0
4.90441 -7.27576 0
5.02486 -8.56904 0
-3.76076 4.53111 0
-3.71786 5.72112 0
-2.87107 7.24983 0
-2.99583 6.32027 0
-1.65664 8.69522 0
-1.92815 7.58325 0
-2.33195 4.03813 0
-0.728785 -1.32626 0
-0.835221 -0.256521 0
-1.93446 1.68345 0
-2.12103 2.87292 0
-1.30519 3.53891 0
-0.869167 1.35297 0
-0.281728 0.458154 0
-0.532509 8.83703 0
-1.24944 9.91661 0
1.1056 -4.55427 0
3.88046 -6.66957 0
2.96596 -6.05537 0
2.10306 -5.3948 0
4.7574 -6.16435 0
-0.555509 -2.47464 0
0.494194 -3.45508 0
0.0543629 -1.60963 0
1.47545 -3.66764 0
5.83716 -6.57605 0
6.10792 -7.84458 0
-2.4648 5.32481 0
-2.11775 6.50165 0
-0.898213 7.77091 0
-1.26255 6.8984 0
0.0877409 7.85136 0
-1.14051 4.48103 0
0.150564 -0.616961 0
-0.799004 2.49067 0
-0.334576 3.59721 0
0.0626818 1.51411 0
0.740981 0.473644 0
0.645331 8.84379 0
0.0486448 10.0074 0
2.3685 -4.26397 0
3.83557 -5.60263 0
2.98176 -5.18185 0
5.54807 -5.46012 0
4.66524 -5.24729 0
0.630307 -2.29324 0
1.25295 -2.94376 0
0.757966 -1.39034 0
2.15514 -3.12442 0
2.98151 -3.45993 0
6.1306 -4.76736 0
6.62632 -5.74084 0
7.08603 -6.98281 0
-1.01332 5.79641 0
-0.366972 6.85531 0
1.11841 7.74365 0
0.558674 7.0542 0
0.000168209 4.71244 0
0.603663 3.81972 0
1.33895 -0.641458 0
0.53664 2.64926 0
0.964298 1.57504 0
1.90837 0.213181 0
1.61225 1.06498 0
2.12577 7.55902 0
1.79444 8.6839 0
1.34944 9.92404 0
3.80324 -4.3271 0
5.09304 -4.42073 0
5.82339 -3.91391 0
3.76927 -3.18672 0
1.81002 -1.88292 0
3.01035 -2.56621 0
6.76037 -3.93046 0
7.35728 -4.87545 0
7.9489 -6.00895 0
0.483872 5.8597 0
1.4257 6.71943 0
2.36896 6.64825 0
1.20614 4.54427 0
1.48451 3.39248 0
2.4318 -0.69181 0
2.82293 0.142633 0
1.78537 2.16118 0
2.60914 1.14837 0
3.06365 7.14789 0
2.89563 8.35213 0
2.62951 9.67044 0
4.89261 -3.30999 0
6.09868 -3.09325 0
4.16019 -2.26793 0
3.23688 -1.4998 0
6.71194 -2.30601 0
7.21076 -3.03263 0
7.94031 -3.90256 0
8.67703 -4.93243 0
2.01919 5.58297 0
3.0743 6.13298 0
2.35998 4.11649 0
2.41471 3.05532 0
3.51694 -0.460705 0
3.60742 0.613528 0
2.95523 2.2846 0
3.53638 1.52197 0
3.99377 5.87791 0
3.97071 6.77026 0
3.96417 7.91417 0
3.86559 9.25331 0
5.55256 -1.91041 0
4.49658 -1.12693 0
6.69234 -1.33147 0
7.56949 -2.02821 0
8.37135 -2.85392 0
9.25362 -3.76445 0
3.40455 4.85938 0
3.32762 3.37564 0
4.6779 0.130687 0
4.5026 1.30558 0
4.04748 2.43509 0
4.54542 5.13204 0
4.82323 6.16696 0
4.96205 7.35749 0
5.0337 8.67693 0
5.86412 -0.434614 0
6.9847 -0.487987 0
7.73395 -1.08148 0
8.65789 -1.74124 0
9.67044 -2.52792 0
4.52968 3.81183 0
5.79305 1.09023 0
5.34315 2.5215 0
5.34867 4.59846 0
5.58225 5.50027 0
5.8707 6.64639 0
6.10913 7.94819 0
6.81753 0.457236 0
7.82274 -0.0263403 0
8.83169 -0.581012 0
9.92231 -1.24726 0
6.92762 1.33818 0
5.68746 3.75879 0
6.50679 2.18253 0
6.34255 3.06888 0
6.25535 4.66264 0
6.6599 5.8108 0
7.08483 7.08714 0
7.752 0.960712 0
8.82565 0.568746 0
10.0049 0.0528358 0
7.57807 1.99042 0
6.78545 3.87953 0
7.22756 2.92791 0
7.34024 4.86176 0
7.94733 6.11015 0
8.68271 1.71719 0
9.9121 1.34848 0
8.37745 2.81995 0
7.94067 3.8946 0
8.67057 5.0268 0
9.66036 2.62567 0
9.24505 3.85914 0
CELLS 542 2168
3 2 0 4
3 0 1 7
3 4 0 7
3 1 5 8
3 7 1 8
3 3 2 13
3 13 2 4
3 11 3 14
3 14 3 13
3 13 4 15
3 4 7 16
3 15 4 16
3 5 6 17
3 8 5 17
3 6 9 18
3 17 6 18
3 7 8 19
3 16 7 19
3 8 17 20
3 19 8 20
3 9 10 23
3 18 9 23
3 10 21 24
3 23 10 24
3 12 11 25
3 25 11 14
3 26 12 27
3 27 12 25
3 14 13 29
3 29 13 15
3 25 14 30
3 30 14 29
3 29 15 31
3 15 16 33
3 31 15 33
3 16 19 34
3 33 16 34
3 17 18 35
3 20 17 35
3 18 23 36
3 35 18 36
3 19 20 37
3 34 19 37
3 20 35 38
3 37 20 38
3 21 22 39
3 24 21 39
3 22 32 40
3 39 22 40
3 23 24 41
3 36 23 41
3 24 39 42
3 41 24 42
3 27 25 44
3 44 25 30
3 28 26 45
3 45 26 27
3 45 27 46
3 46 27 44
3 47 28 48
3 48 28 45
3 30 29 50
3 50 29 31
3 44 30 51
3 51 30 50
3 50 31 52
3 31 33 52
3 32 43 53
3 40 32 53
3 53 43 54
3 33 34 55
3 34 37 55
3 33 55 52
3 35 36 56
3 38 35 56
3 36 41 57
3 56 36 57
3 37 38 58
3 38 56 58
3 37 58 55
3 39 40 59
3 42 39 59
3 40 53 60
3 59 40 60
3 41 42 61
3 57 41 61
3 42 59 62
3 61 42 62
3 43 63 54
3 46 44 64
3 64 44 51
3 48 45 65
3 65 45 46
3 65 46 66
3 66 46 64
3 49 47 67
3 67 47 48
3 67 48 68
3 68 48 65
3 69 49 70
3 70 49 67
3 52 55 72
3 64 51 73
3 51 50 73
3 50 52 73
3 73 52 74
3 74 52 72
3 53 54 75
3 60 53 75
3 54 63 76
3 54 76 77
3 75 54 77
3 55 58 78
3 72 55 78
3 72 78 79
3 56 57 80
3 57 61 80
3 56 80 58
3 58 80 81
3 78 58 81
3 59 60 82
3 62 59 82
3 60 75 83
3 82 60 83
3 61 62 84
3 62 82 84
3 61 84 80
3 63 85 76
3 66 64 86
3 64 73 86
3 68 65 87
3 87 65 66
3 87 66 86
3 70 67 88
3 88 67 68
3 88 68 89
3 89 68 87
3 71 69 90
3 90 69 70
3 90 70 91
3 91 70 88
3 92 71 93
3 93 71 90
3 74 72 94
3 94 72 79
3 86 73 95
3 95 73 74
3 95 74 96
3 96 74 94
3 97 86 95
3 76 85 99
3 75 77 100
3 83 75 100
3 76 99 101
3 77 76 101
3 77 101 102
3 100 77 102
3 94 79 103
3 78 81 104
3 79 78 104
3 79 104 103
3 80 84 105
3 81 80 105
3 81 105 106
3 104 81 106
3 82 83 107
3 83 100 107
3 82 107 84
3 84 107 108
3 105 84 108
3 85 109 99
3 89 87 110
3 87 86 110
3 110 86 97
3 91 88 111
3 111 88 89
3 111 89 110
3 93 90 112
3 112 90 91
3 112 91 113
3 113 91 111
3 98 92 114
3 114 92 93
3 114 93 115
3 115 93 112
3 116 98 114
3 117 103 118
3 96 94 119
3 94 103 119
3 119 103 117
3 97 95 120
3 120 95 96
3 120 96 119
3 121 110 97
3 121 97 122
3 122 97 120
3 123 119 117
3 124 98 116
3 99 109 125
3 99 125 126
3 101 99 126
3 100 102 127
3 100 127 107
3 101 126 128
3 102 101 128
3 102 128 127
3 104 106 129
3 104 129 103
3 103 129 118
3 105 108 130
3 106 105 130
3 106 130 129
3 107 127 131
3 108 107 131
3 108 131 132
3 108 132 130
3 109 134 125
3 125 134 133
3 113 111 135
3 111 110 135
3 135 110 121
3 115 112 136
3 136 112 113
3 136 113 135
3 116 114 137
3 137 114 115
3 137 115 138
3 138 115 136
3 139 124 116
3 139 116 140
3 140 116 137
3 141 135 121
3 118 129 142
3 118 142 143
3 117 118 143
3 123 117 143
3 122 120 144
3 120 119 144
3 144 119 123
3 141 121 145
3 145 121 122
3 145 122 144
3 146 141 145
3 147 144 123
3 147 123 148
3 143 148 123
3 150 124 139
3 149 150 139
3 131 127 151
3 125 133 152
3 126 125 152
3 126 152 153
3 128 126 153
3 128 153 154
3 128 154 127
3 127 154 151
3 152 133 155
3 130 132 156
3 130 156 129
3 129 156 142
3 131 151 157
3 132 131 157
3 132 157 156
3 156 158 142
3 157 151 159
3 133 160 155
3 134 161 133
3 133 161 160
3 138 136 162
3 136 135 162
3 162 135 141
3 140 137 163
3 163 137 138
3 163 138 162
3 149 139 164
3 164 139 140
3 164 140 165
3 165 140 163
3 166 149 164
3 167 162 141
3 167 141 146
3 142 158 168
3 143 142 168
3 143 168 148
3 146 145 169
3 145 144 169
3 169 144 147
3 170 167 146
3 170 146 169
3 171 169 147
3 171 147 148
3 171 148 172
3 168 172 148
3 173 149 166
3 174 150 149
3 173 174 149
3 154 175 151
3 151 175 159
3 152 155 176
3 153 152 176
3 153 176 177
3 153 177 154
3 154 177 175
3 155 160 178
3 155 178 179
3 176 155 179
3 156 157 180
3 156 180 158
3 157 159 181
3 157 181 180
3 158 180 182
3 158 182 168
3 159 175 183
3 159 183 181
3 175 184 183
3 160 186 178
3 178 186 185
3 161 187 160
3 160 187 186
3 165 163 188
3 163 162 188
3 188 162 167
3 166 164 189
3 189 164 165
3 189 165 188
3 190 173 166
3 190 166 191
3 191 166 189
3 192 188 167
3 192 167 170
3 193 192 170
3 182 194 168
3 194 172 168
3 193 170 195
3 170 169 195
3 195 169 171
3 196 195 171
3 196 171 172
3 194 197 172
3 197 198 172
3 198 196 172
3 200 173 190
3 199 200 190
3 201 174 173
3 200 201 173
3 176 179 202
3 177 176 202
3 177 202 175
3 175 202 184
3 178 185 203
3 178 203 179
3 179 203 202
3 203 185 204
3 202 205 184
3 183 206 181
3 180 181 206
3 180 206 182
3 182 206 194
3 183 184 207
3 205 207 184
3 183 207 206
3 185 208 204
3 186 209 185
3 185 209 208
3 187 210 186
3 186 210 209
3 191 189 211
3 189 188 211
3 211 188 192
3 199 190 212
3 212 190 191
3 212 191 211
3 213 199 212
3 214 211 192
3 214 192 193
3 215 214 193
3 215 193 195
3 206 216 194
3 216 197 194
3 216 217 197
3 215 195 218
3 218 195 196
3 198 218 196
3 217 219 197
3 219 218 198
3 197 219 198
3 220 199 213
3 221 200 199
3 220 221 199
3 222 201 200
3 221 222 200
3 203 204 223
3 203 223 202
3 202 223 205
3 204 208 224
3 204 224 223
3 205 223 225
3 205 225 207
3 207 225 226
3 207 226 206
3 226 216 206
3 208 228 224
3 224 228 227
3 209 229 208
3 229 228 208
3 210 230 209
3 209 230 229
3 213 212 231
3 212 211 231
3 231 211 214
3 232 220 213
3 232 213 231
3 233 231 214
3 233 214 215
3 234 233 215
3 234 215 218
3 226 235 216
3 235 217 216
3 235 236 217
3 217 236 219
3 237 234 218
3 237 218 219
3 236 238 219
3 238 237 219
3 240 220 232
3 239 240 232
3 241 221 220
3 240 241 220
3 242 222 221
3 241 242 221
3 224 227 243
3 224 243 223
3 223 243 225
3 225 243 244
3 225 244 226
3 226 244 235
3 227 245 243
3 228 246 227
3 227 246 245
3 229 247 228
3 228 247 246
3 230 248 229
3 229 248 247
3 239 232 249
3 232 231 249
3 249 231 233
3 250 249 233
3 250 233 234
3 237 250 234
3 244 251 235
3 235 251 236
3 251 252 236
3 236 252 238
3 252 253 238
3 253 250 237
3 253 237 238
3 254 239 249
3 255 240 239
3 254 255 239
3 256 241 240
3 255 256 240
3 257 242 241
3 256 257 241
3 245 258 243
3 243 258 244
3 244 258 251
3 245 259 258
3 246 260 245
3 245 260 259
3 247 261 246
3 246 261 260
3 248 262 247
3 247 262 261
3 254 249 263
3 263 249 250
3 253 263 250
3 258 264 251
3 251 264 252
3 264 265 252
3 265 263 253
3 252 265 253
3 266 254 263
3 267 255 254
3 266 267 254
3 268 256 255
3 267 268 255
3 269 257 256
3 268 269 256
3 259 270 258
3 270 264 258
3 260 271 259
3 259 271 270
3 261 272 260
3 260 272 271
3 262 273 261
3 273 272 261
3 270 274 264
3 275 266 263
3 275 263 265
3 274 276 264
3 276 265 264
3 276 277 265
3 277 275 265
3 278 267 266
3 275 278 266
3 279 268 267
3 278 279 267
3 280 269 268
3 279 280 268
3 271 281 270
3 270 281 274
3 272 282 271
3 271 282 281
3 273 283 272
3 272 283 282
3 281 284 274
3 274 284 276
3 285 278 275
3 277 285 275
3 284 286 276
3 286 285 277
3 276 286 277
3 287 279 278
3 285 287 278
3 288 280 279
3 287 288 279
3 282 289 281
3 281 289 284
3 283 290 282
3 282 290 289
3 289 291 284
3 284 291 286
3 291 292 286
3 292 287 285
3 286 292 285
3 293 288 287
3 292 293 287
3 290 294 289
3 289 294 291
3 294 295 291
3 295 293 292
3 291 295 292
CELL_TYPES 542
5
5
5
5
5
5
5
5
5
5
5
5
5
5
5
5
5
5
5
5
5
5
5
5
5
5
5
5
5
5
5
5
5
5
5
5
5
5
5
5
5
5
5
5
5
5
5
5
5
5
5
5
5
5
5
5
5
5
5
5
5
5
5
5
5
5
5
5
5
5
5
5
5
5
5
5
5
5
5
5
5
5
5
5
5
5
5
5
5
5
5
5
5
5
5
5
5
5
5
5
5
5
5
5
5
5
5
5
5
5
5
5
5
5
5
5
5
5
5
5
5
5
5
5
5
5
5
5
5
5
5
5
5
5
5
5
5
5
5
5
5
5
5
5
5
5
5
5
5
5
5
5
5
5
5
5
5
5
5
5
5
5
5
5
5
5
5
5
5
5
5
5
5
5
5
5
5
5
5
5
5
5
5
5
5
5
5
5
5
5
5
5
5
5
5
5
5
5
5
5
5
5
5
5
5
5
5
5
5
5
5
5
5
5
5
5
5
5
5
5
5
5
5
5
5
5
5
5
5
5
5
5
5
5
5
5
5
5
5
5
5
5
5
5
5
5
5
5
5
5
5
5
5
5
5
5
5
5
5
5
5
5
5
5
5
5
5
5
5
5
5
5
5
5
5
5
5
5
5
5
5
5
5
5
5
5
5
5
5
5
5
5
5
5
5
5
5
5
5
5
5
5
5
5
5
5
5
5
5
5
5
5
5
5
5
5
5
5
5
5
5
5
5
5
5
5
5
5
5
5
5
5
5
5
5
5
5
5
5
5
5
5
5
5
5
5
5
5
5
5
5
5
5
5
5
5
5
5
5
5
5
5
5
5
5
5
5
5
5
5
5
5
5
5
5
5
5
5
5
5
5
5
5
5
5
5
5
5
5
5
5
5
5
5
5
5
5
5
5
5
5
5
5
5
5
5
5
5
5
5
5
5
5
5
5
5
5
5
5
5
5
5
5
5
5
5
5
5
5
5
5
5
5
5
5
5
5
5
5
5
5
5
5
5
5
5
5
5
5
5
5
5
5
5
5
5
5
5
5
5
5
5
5
5
5
5
5
5
5
5
5
5
5
5
5
5
5
5
5
5
5
5
5
5
5
5
5
5
5
5
5
5
5
5
5
5
5
5
5
5
5
5
5
5
5
5
5
5
5
5
5
5
5
5
5
5
5
5
5
5
5
5
5
5
5
5
5
5
5
5
5
5
5
5
5
5
5
5
5
5
5
5
POINT_DATA 296
SCALARS concentrations float 4
LOOKUP_TABLE default
0 0.991027 0.186986 21.7049
0 0.990981 0.183085 26.2002
0 0.991197 0.179867 18.5709
0 0.991073 0.178607 10.9131
0 0.991111 0.0967772 8.82
0 0.99112 0.186776 16.3881
0 0.991285 0.176059 10.4993
0 0.991013 0.100105 11.1296
0 0.991055 0.0961185 6.96118
0 0.991188 0.184799 17.5698
0 0.991008 0.178681 13.3543
0 0.990967 0.175814 15.6937
0 0.990898 0.18389 32.714
0 0.991136 0.0956763 9.1731
0 0.991051 0.094728 7.48327
0 0.991064 0.0967682 6.3754
0 0.991045 0.0985095 9.23358
0 0.991181 0.0957989 8.35021
0 0.991222 0.0948335 7.59954
0 0.991036 0.095413 6.25701
0 0.991076 0.096678 6.14029
0 0.990928 0.182275 23.9218
0 0.991045 0.187494 22.7194
0 0.991112 0.0955149 6.8951
0 0.991024 0.0954062 7.83691
0 0.990992 0.0955913 7.42031
0 0.99089 0.187948 30.8223
0 0.990957 0.094888 6.73458
0 0.990883 0.178702 25.8791
0 0.991092 0.0943643 7.41477
0 0.991085 0.0952267 7.1357
0 0.991032 0.0941144 7.81974
0 0.991118 0.179488 10.971
0 0.991014 0.0958981 9.58131
0 0.991001 0.0951437 6.85072
0 0.991123 0.0962747 7.51708
0 0.991106 0.0953958 6.00962
0 0.990985 0.0976518 8.61941
0 0.991028 0.0973995 6.39487
0 0.991027 0.0950327 6.97131
0 0.9911 0.0958576 6.90898
0 0.991115 0.0959611 6.88222
0 0.991096 0.0973121 8.12476
0 0.991012 0.190537 25.7278
0 0.991056 0.0961289 7.02273
0 0.990938 0.095866 6.66485
0 0.991038 0.0989886 6.1569
0 0.990969 0.182448 28.7562
0 0.990969 0.095778 7.39948
0 0.9909 0.185174 27.1579
0 0.991045 0.0944009 6.89965
0 0.991057 0.0948641 6.80739
0 0.991014 0.0965211 6.54864
0 0.991077 0.0950533 7.97723
0 0.990982 0.09415 7.66536
0 0.990993 0.0962931 8.15063
0 0.991005 0.0954042 7.96835
0 0.991028 0.0974636 6.51668
0 0.990977 0.0957891 6.94502
0 0.991068 0.0975745 9.73118
0 0.991056 0.0964377 6.94592
0 0.991044 0.0958075 5.81242
0 0.991045 0.0983 8.10011
0 0.990948 0.186016 20.778
0 0.991053 0.0944764 6.65264
0 0.991055 0.10331 8.86292
0 0.991064 0.0955227 6.77552
0 0.990956 0.095832 7.12113
0 0.991026 0.104679 6.83165
0 0.990937 0.187749 19.9457
0 0.990936 0.095713 7.59193
0 0.991058 0.177952 30.3329
0 0.991017 0.0962903 7.74789
0 0.991031 0.0965589 7.13364
0 0.991032 0.0958542 6.94466
0 0.991038 0.0955208 7.6444
0 0.990985 0.0947827 7.75557
0 0.991013 0.0952801 8.04621
0 0.990995 0.0947656 7.48533
0 0.991041 0.098966 5.85012
0 0.990996 0.098467 6.28611
0 0.991007 0.0979176 7.02385
0 0.991039 0.0975083 5.54624
0 0.991034 0.0965522 7.46139
0 0.991021 0.0962149 6.1158
0 0.99102 0.183059 28.4169
0 0.991045 0.0961661 7.22793
0 0.991076 0.0985286 6.17477
0 0.990993 0.0958092 7.78307
0 0.991045 0.0953823 7.33694
0 0.991018 0.0953894 7.8167
0 0.991022 0.096495 8.04947
0 0.991099 0.177539 12.3139
0 0.991082 0.0957775 7.67266
0 0.991057 0.0955107 7.55654
0 0.991041 0.095332 7.54663
0 0.991052 0.0940288 7.11153
0 0.991038 0.095001 6.65341
0 0.991167 0.182027 11.4834
0 0.99102 0.0970854 7.85901
0 0.99103 0.100425 4.79458
0 0.991004 0.0982801 7.00153
0 0.991021 0.0997873 8.11855
0 0.991078 0.0959108 8.28517
0 0.991043 0.0960423 8.09587
0 0.991025 0.0967361 5.42223
0 0.991048 0.0953692 7.50144
0 0.991029 0.0961294 7.36502
0 0.991023 0.0959023 6.90161
0 0.991034 0.186606 24.904
0 0.991043 0.0952587 7.24126
0 0.99104 0.0950879 7.62075
0 0.991054 0.0971333 8.49708
0 0.991046 0.0948619 8.07245
0 0.991131 0.0946871 8.21788
0 0.991084 0.0972572 7.42501
0 0.991144 0.095699 8.58042
0 0.991096 0.0946436 7.58677
0 0.99109 0.094944 7.75348
0 0.991072 0.0961039 7.64196
0 0.99105 0.096973 7.18731
0 0.991037 0.0948223 7.72065
0 0.991047 0.0951735 7.50671
0 0.991098 0.094862 6.8355
0 0.991123 0.184469 16.4955
0 0.991041 0.0988012 7.55559
0 0.991038 0.0987907 5.86994
0 0.991021 0.0958002 5.88905
0 0.991031 0.10385 6.53357
0 0.991068 0.0974582 7.03504
0 0.991044 0.0981935 6.94259
0 0.991033 0.0945537 6.84589
0 0.991044 0.0938651 7.18101
0 0.991057 0.0980577 7.64357
0 0.991057 0.184897 22.9629
0 0.991038 0.0946356 7.68902
0 0.991048 0.0951482 7.93654
0 0.991111 0.107086 9.59353
0 0.991048 0.0957486 8.30901
0 0.991092 0.0939596 8.04175
0 0.991099 0.094576 8.56009
0 0.991041 0.0981459 8.21765
0 0.991075 0.0938834 7.05051
0 0.991101 0.0939264 7.04817
0 0.991064 0.0946281 6.52806
0 0.99105 0.0942392 7.18289
0 0.99105 0.0943584 6.821
0 0.991088 0.100126 8.8719
0 0.991112 0.0942012 7.11234
0 0.991021 0.0933612 8.11795
0 0.991082 0.182338 24.6019
0 0.991017 0.094654 7.64582
0 0.991049 0.1022 10.1092
0 0.991053 0.0956166 7.70519
0 0.991023 0.0952624 7.08951
0 0.991018 0.0958338 7.83342
0 0.991051 0.0933306 6.95812
0 0.991032 0.103232 3.82752
0 0.99106 0.0940964 6.72816
0 0.991016 0.0944306 7.21146
0 0.991024 0.0967439 7.39715
0 0.991065 0.182348 16.7581
0 0.99104 0.0944601 7.52727
0 0.991064 0.0997021 7.99403
0 0.99105 0.0946052 8.42194
0 0.991066 0.0986835 8.18777
0 0.991024 0.0943618 8.05616
0 0.991045 0.0939286 6.49895
0 0.991096 0.1024 6.80967
0 0.991065 0.0938572 6.89196
0 0.991054 0.0950865 6.67774
0 0.991092 0.0976554 8.19661
0 0.991106 0.0942615 6.75136
0 0.990974 0.0943927 7.75269
0 0.990962 0.180367 23.091
0 0.991019 0.0971596 7.36562
0 0.99103 0.0992727 7.60227
0 0.991036 0.105248 10.3405
0 0.991017 0.095412 7.9845
0 0.991025 0.104331 7.66601
0 0.991042 0.0982204 8.41668
0 0.991029 0.0967344 7.88043
0 0.99107 0.0964184 7.34302
0 0.991026 0.101374 9.15763
0 0.991018 0.0947414 6.93058
0 0.991032 0.0951673 7.68437
0 0.991037 0.0953784 8.01806
0 0.991024 0.180856 28.7856
0 0.991049 0.0954164 6.66596
0 0.991053 0.0948909 8.00476
0 0.99102 0.0955566 5.66507
0 0.991042 0.0972885 7.9656
0 0.99105 0.0956155 7.31615
0 0.991058 0.0944739 6.81979
0 0.991099 0.0941575 7.21005
0 0.991066 0.0938132 7.16402
0 0.991083 0.0940497 7.27878
0 0.991106 0.0949225 7.49759
0 0.991096 0.100012 4.20057
0 0.991055 0.0945585 6.42254
0 0.991031 0.0942882 8.12036
0 0.990991 0.186893 21.6071
0 0.991031 0.0950817 7.92369
0 0.991039 0.103012 4.20387
0 0.991039 0.095972 6.49324
0 0.991028 0.0997626 8.10939
0 0.991055 0.0952317 7.40791
0 0.991034 0.0955051 7.17536
0 0.991038 0.0954706 8.04372
0 0.991099 0.0944928 7.81418
0 0.991123 0.180101 23.4729
0 0.991052 0.0957411 6.9518
0 0.991049 0.0969868 8.7398
0 0.991078 0.0970025 7.05766
0 0.991055 0.097008 7.14574
0 0.991058 0.0946305 6.30968
0 0.991076 0.0951686 6.79859
0 0.991084 0.0945411 7.04862
0 0.991075 0.0944678 7.25838
0 0.991093 0.095366 6.97066
0 0.991087 0.095077 8.11157
0 0.991009 0.0939248 8.13346
0 0.991024 0.18343 28.1703
0 0.991035 0.0961808 7.73092
0 0.99102 0.100352 10.121
0 0.991045 0.0952065 6.45215
0 0.991046 0.095096 7.3885
0 0.991024 0.0992808 4.84979
0 0.991033 0.0959499 6.19553
0 0.991062 0.0945623 7.82467
0 0.99113 0.1879 17.7742
0 0.991058 0.0964776 6.86988
0 0.991092 0.0969705 6.58873
0 0.991055 0.0972874 7.24908
0 0.99106 0.0938209 7.82747
0 0.991047 0.0944142 7.10037
0 0.991058 0.0947932 6.78698
0 0.991067 0.094928 7.24432
0 0.991067 0.0948707 7.21212
0 0.991108 0.0949907 7.16907
0 0.991098 0.0943598 8.15908
0 0.990979 0.0943009 7.93579
0 0.990911 0.171717 21.5781
0 0.991034 0.103172 7.47082
0 0.991046 0.0960066 7.50399
0 0.991036 0.0986071 7.82081
0 0.991036 0.0960865 8.16315
0 0.991005 0.0945132 6.3161
0 0.991031 0.188146 18.8012
0 0.991064 0.0959262 7.54679
0 0.991048 0.093917 7.53502
0 0.991039 0.0945494 6.72397
0 0.991044 0.0942895 6.98303
0 0.991047 0.0939992 7.22323
0 0.991092 0.0948323 7.39152
0 0.991097 0.0938913 6.18539
0 0.990961 0.0937477 6.37368
0 0.990897 0.179601 19.8439
0 0.991038 0.0976561 6.6345
0 0.991053 0.0945866 7.89237
0 0.991026 0.0949823 6.87778
0 0.990921 0.0946006 7.44128
0 0.990917 0.188082 26.8245
0 0.99105 0.0948137 6.33341
0 0.991045 0.0943766 7.40732
0 0.991045 0.094527 6.90532
0 0.991092 0.0953815 6.76025
0 0.991118 0.0939893 6.31667
0 0.990977 0.0933297 6.53479
0 0.990837 0.176776 31.9545
0 0.991064 0.0951242 7.59158
0 0.991052 0.0945538 6.9004
0 0.990896 0.0941148 7.6808
0 0.9908 0.18043 32.2582
0 0.991073 0.0954615 6.67145
0 0.991064 0.0949047 6.78498
0 0.991059 0.094533 7.18256
0 0.991057 0.0946373 6.92441
0 0.991119 0.0953879 6.363
0 0.991103 0.0943883 6.47037
0 0.990982 0.181771 23.49
0 0.991068 0.0938561 7.60945
0 0.990915 0.0936728 7.62201
0 0.990799 0.176451 22.8103
0 0.991055 0.0939856 7.39706
0 0.991076 0.0950412 6.96326
0 0.991048 0.0953385 6.77845
0 0.991111 0.0952796 6.9383
0 0.991116 0.174163 9.50257
0 0.990956 0.0937339 7.45856
0 0.990835 0.176851 25.9352
0 0.990998 0.0950484 6.60831
0 0.991047 0.0952386 6.3461
0 0.99108 0.178362 28.7468
0 0.99093 0.182576 25.758
0 0.991003 0.179848 30.8714
VECTORS fa_u float
0.00620833 0.00255445 -0
0.00586799 0.00338467 -0
0.00564487 0.00151644 -0
0.00656139 0.000890699 -0
1e-08 0 0
0.00517584 0.00397617 -0
0.00415818 0.00413169 -0
1e-08 0 0
1e-08 0 0
0.00414959 0.00534407 -0
0.00356187 0.00614108 -0
0.00661801 2.25561e-05 -0
0.00632177 -0.00080628 0
1e-08 0 0
1e-08 0 0
1e-08 0 0
1e-08 0 0
1e-08 0 0
1e-08 0 0
1e-08 0 0
1e-08 0 0
0.00255616 0.00619546 -0
0.00166683 0.00626686 -0
1e-08 0 0
1e-08 0 0
1e-08 0 0
0.00679538 -0.0018013 0
1e-08 0 0
0.00681972 -0.0028555 0
1e-08 0 0
1e-08 0 0
1e-08 0 0
0.000860661 0.00665332 -0
1e-08 0 0
1e-08 0 0
1e-08 0 0
1e-08 0 0
1e-08 0 0
1e-08 0 0
1e-08 0 0
1e-08 0 0
1e-08 0 0
1e-08 0 0
-2.74229e-05 0.00676088 -0
1e-08 0 0
1e-08 0 0
1e-08 0 0
0.00556932 -0.00327147 0
1e-08 0 0
0.0047334 -0.00366227 0
1e-08 0 0
1e-08 0 0
1e-08 0 0
1e-08 0 0
1e-08 0 0
1e-08 0 0
1e-08 0 0
1e-08 0 0
1e-08 0 0
1e-08 0 0
1e-08 0 0
1e-08 0 0
1e-08 0 0
-0.000810505 0.00603007 0
1e-08 0 0
1e-08 0 0
1e-08 0 0
1e-08 0 0
1e-08 0 0
0.00439833 -0.00439327 0
1e-08 0 0
0.00364407 -0.00469516 0
1e-08 0 0
1e-08 0 0
1e-08 0 0
1e-08 0 0
1e-08 0 0
1e-08 0 0
1e-08 0 0
1e-08 0 0
1e-08 0 0
1e-08 0 0
1e-08 0 0
1e-08 0 0
1e-08 0 0
-0.001628 0.00610097 0
1e-08 0 0
1e-08 0 0
1e-08 0 0
1e-08 0 0
1e-08 0 0
1e-08 0 0
0.00371334 -0.00636171 0
1e-08 0 0
1e-08 0 0
1e-08 0 0
1e-08 0 0
1e-08 0 0
0.00268479 -0.00651132 0
1e-08 0 0
1e-08 0 0
1e-08 0 0
1e-08 0 0
1e-08 0 0
1e-08 0 0
1e-08 0 0
1e-08 0 0
1e-08 0 0
1e-08 0 0
-0.00254658 0.00617706 0
1e-08 0 0
1e-08 0 0
1e-08 0 0
1e-08 0 0
1e-08 0 0
1e-08 0 0
1e-08 0 0
1e-08 0 0
1e-08 0 0
1e-08 0 0
1e-08 0 0
1e-08 0 0
1e-08 0 0
1e-08 0 0
0.00163465 -0.00617902 0
1e-08 0 0
1e-08 0 0
1e-08 0 0
1e-08 0 0
1e-08 0 0
1e-08 0 0
1e-08 0 0
1e-08 0 0
1e-08 0 0
-0.00335441 0.00581306 0
1e-08 0 0
1e-08 0 0
1e-08 0 0
1e-08 0 0
1e-08 0 0
1e-08 0 0
1e-08 0 0
1e-08 0 0
1e-08 0 0
1e-08 0 0
1e-08 0 0
1e-08 0 0
1e-08 0 0
1e-08 0 0
1e-08 0 0
0.000775948 -0.00584537 0
1e-08 0 0
1e-08 0 0
1e-08 0 0
1e-08 0 0
1e-08 0 0
1e-08 0 0
1e-08 0 0
1e-08 0 0
1e-08 0 0
1e-08 0 0
-0.00410496 0.00533405 0
1e-08 0 0
1e-08 0 0
1e-08 0 0
1e-08 0 0
1e-08 0 0
1e-08 0 0
1e-08 0 0
1e-08 0 0
1e-08 0 0
1e-08 0 0
1e-08 0 0
1e-08 0 0
1.95864e-05 -0.00685731 0
1e-08 0 0
1e-08 0 0
1e-08 0 0
1e-08 0 0
1e-08 0 0
1e-08 0 0
1e-08 0 0
1e-08 0 0
1e-08 0 0
1e-08 0 0
1e-08 0 0
1e-08 0 0
-0.00412175 0.00413375 0
1e-08 0 0
1e-08 0 0
1e-08 0 0
1e-08 0 0
1e-08 0 0
1e-08 0 0
1e-08 0 0
1e-08 0 0
1e-08 0 0
1e-08 0 0
1e-08 0 0
1e-08 0 0
1e-08 0 0
-0.000855906 -0.00655461 0
1e-08 0 0
1e-08 0 0
1e-08 0 0
1e-08 0 0
1e-08 0 0
1e-08 0 0
1e-08 0 0
1e-08 0 0
-0.00514298 0.00399072 0
1e-08 0 0
1e-08 0 0
1e-08 0 0
1e-08 0 0
1e-08 0 0
1e-08 0 0
1e-08 0 0
1e-08 0 0
1e-08 0 0
1e-08 0 0
1e-08 0 0
-0.00165916 -0.00622411 0
1e-08 0 0
1e-08 0 0
1e-08 0 0
1e-08 0 0
1e-08 0 0
1e-08 0 0
1e-08 0 0
-0.00613326 0.00356524 0
1e-08 0 0
1e-08 0 0
1e-08 0 0
1e-08 0 0
1e-08 0 0
1e-08 0 0
1e-08 0 0
1e-08 0 0
1e-08 0 0
1e-08 0 0
1e-08 0 0
-0.00257842 -0.00623953 0
1e-08 0 0
1e-08 0 0
1e-08 0 0
1e-08 0 0
1e-08 0 0
-0.00628775 0.00259774 0
1e-08 0 0
1e-08 0 0
1e-08 0 0
1e-08 0 0
1e-08 0 0
1e-08 0 0
1e-08 0 0
1e-08 0 0
-0.00362276 -0.00622763 0
1e-08 0 0
1e-08 0 0
1e-08 0 0
1e-08 0 0
-0.00632556 0.00168038 0
1e-08 0 0
1e-08 0 0
1e-08 0 0
1e-08 0 0
1e-08 0 0
1e-08 0 0
-0.00381715 -0.00492483 0
1e-08 0 0
1e-08 0 0
1e-08 0 0
-0.00647877 0.000839604 0
1e-08 0 0
1e-08 0 0
1e-08 0 0
1e-08 0 0
1e-08 0 0
1e-08 0 0
-0.00419402 -0.0041944 0
1e-08 0 0
1e-08 0 0
-0.00697085 -2.7415e-05 0
1e-08 0 0
1e-08 0 0
1e-08 0 0
1e-08 0 0
-0.00548859 -0.00422431 0
1e-08 0 0
-0.00575847 -0.000771115 0
1e-08 0 0
1e-08 0 0
-0.00572637 -0.00330127 0
-0.00626833 -0.00166542 0
-0.00620745 -0.00255881 0
