# vtk DataFile Version 2.0
CellBP Time: 8.56
ASCII
DATASET UNSTRUCTURED_GRID
POINTS 296 double
-8.94182 -3.66201 0
-8.38489 -4.81415 0
-9.33319 -2.44083 0
-9.60871 -1.21201 0
-8.09928 -2.70766 0
-7.66819 -5.87929 0
-6.81977 -6.84253 0
-7.65842 -3.73247 0
-7.10064 -4.70592 0
-5.89544 -7.71009 0
-4.86628 -8.44166 0
-9.71717 0.0382686 0
-9.6609 1.31397 0
-8.41919 -1.61662 0
-8.57346 -0.50102 0
-7.34412 -1.91496 0
-6.97161 -2.78226 0
-6.4441 -5.62049 0
-5.67339 -6.44968 0
-6.54621 -3.74261 0
-6.01128 -4.52781 0
-3.71684 -9.00536 0
-2.4887 -9.40547 0
-4.80198 -7.15588 0
-3.85183 -7.74498 0
-8.58971 0.631095 0
-9.44168 2.59146 0
-8.44331 1.72497 0
-9.03141 3.80737 0
-7.52089 -0.882744 0
-7.58455 0.0882506 0
-6.73744 -1.25329 0
-1.21727 -9.64309 0
-6.24002 -2.06733 0
-6.11077 -2.94279 0
-5.36908 -5.32921 0
-4.66934 -5.97254 0
-5.47514 -3.63563 0
-5.09878 -4.42713 0
-2.8177 -8.20463 0
-1.74769 -8.46219 0
-3.84593 -6.58615 0
-3.0113 -7.02274 0
0.055328 -9.70333 0
-7.51352 1.11762 0
-8.18732 2.86332 0
-7.37374 2.04952 0
-8.41852 4.92837 0
-7.70838 3.87856 0
-7.66217 5.96559 0
-6.58336 -0.369687 0
-6.76401 0.548932 0
-5.61867 -0.97143 0
-0.575428 -8.61197 0
0.548072 -8.54652 0
-5.15825 -2.40034 0
-4.34986 -4.96186 0
-3.79858 -5.64488 0
-4.31972 -3.70649 0
-2.025 -7.41424 0
-1.11659 -7.62255 0
-2.92822 -5.97384 0
-2.27221 -6.49248 0
1.31103 -9.5856 0
-6.51983 1.38299 0
-6.99099 3.02966 0
-6.4947 2.30652 0
-7.11258 4.84776 0
-6.54904 3.8895 0
-6.81955 6.91258 0
-6.40415 5.73128 0
-5.8749 7.76889 0
-4.36945 -1.1594 0
-5.68157 0.494488 0
-4.57418 -0.0244819 0
-0.00954671 -7.65229 0
1.67701 -8.39586 0
0.90262 -7.54968 0
-3.96187 -2.35507 0
-3.45564 -1.37977 0
-3.22077 -4.70036 0
-3.21537 -3.20489 0
-1.36255 -6.53009 0
-0.520713 -6.85616 0
-1.9457 -5.43117 0
2.56034 -9.33813 0
-5.38198 1.99315 0
-5.94371 2.98528 0
-5.94969 4.72697 0
-5.61618 3.87312 0
-5.60417 6.52775 0
-5.3092 5.45407 0
-4.8456 8.52026 0
-4.70446 7.1885 0
-3.46224 -0.420844 0
-4.36185 1.22434 0
-3.65366 0.584368 0
-3.98074 2.29378 0
-3.70765 9.0888 0
2.75736 -8.06054 0
0.37252 -6.60803 0
1.93577 -7.28941 0
1.23169 -6.6963 0
-2.42651 -0.863509 0
-2.81358 -2.10638 0
-2.26197 -4.02476 0
-2.29862 -2.92583 0
-0.45609 -5.72113 0
-1.20224 -4.42607 0
3.77199 -8.94502 0
-4.67943 3.3094 0
-4.95795 4.45712 0
-4.51991 6.08921 0
-4.41814 5.20034 0
-3.75347 7.79186 0
-3.71457 6.63046 0
-2.71408 8.19619 0
-1.63479 -0.128333 0
-1.43685 -0.879443 0
-2.47111 0.516702 0
-3.20468 1.43644 0
-3.17545 3.25605 0
-2.86569 2.35915 0
-1.35051 0.638357 0
-2.48674 9.47475 0
3.79648 -7.63004 0
2.8351 -6.89929 0
0.899676 -5.65713 0
1.97397 -6.20321 0
-1.66709 -1.97479 0
-1.41349 -3.23025 0
0.0784241 -4.64882 0
-0.549989 -3.64561 0
4.77411 -7.0775 0
4.91546 -8.3878 0
-3.68615 4.4386 0
-3.6352 5.58538 0
-2.79956 7.07408 0
-2.92901 6.17226 0
-1.62198 8.51316 0
-1.88034 7.4161 0
-2.29829 3.97658 0
-0.722804 -1.31624 0
-0.830021 -0.245796 0
-1.9298 1.69002 0
-2.1022 2.85356 0
-1.29857 3.50661 0
-0.872196 1.36353 0
-0.284253 0.467645 0
-0.520779 8.66751 0
-1.22584 9.71099 0
1.07112 -4.45894 0
3.75168 -6.45043 0
2.86551 -5.87548 0
2.03389 -5.25331 0
4.62972 -5.97722 0
-0.54785 -2.45707 0
0.488187 -3.40878 0
0.057255 -1.60396 0
1.43939 -3.59785 0
5.69576 -6.40045 0
5.97831 -7.67293 0
-2.41614 5.21745 0
-2.06407 6.35866 0
-0.874426 7.61775 0
-1.22458 6.75472 0
0.0934225 7.70834 0
-1.12593 4.41765 0
0.149285 -0.610495 0
-0.807195 2.49438 0
-0.346402 3.57422 0
0.0549866 1.52093 0
0.733862 0.476704 0
0.637824 8.6957 0
0.0420297 9.82096 0
2.30865 -4.15871 0
3.72842 -5.43008 0
2.89723 -5.03611 0
5.42387 -5.30873 0
4.5476 -5.08587 0
0.632083 -2.28302 0
1.23828 -2.90288 0
0.756204 -1.38525 0
2.11745 -3.06659 0
2.92615 -3.38216 0
6.01385 -4.65362 0
6.49282 -5.6098 0
6.93385 -6.81501 0
-0.98631 5.69006 0
-0.347067 6.72116 0
1.10239 7.61568 0
0.559089 6.93228 0
-0.00294196 4.65305 0
0.588169 3.78502 0
1.32922 -0.63797 0
0.520864 2.63797 0
0.948392 1.57657 0
1.89487 0.210555 0
1.59327 1.06301 0
2.09957 7.44836 0
1.77054 8.54579 0
1.32406 9.74935 0
3.71546 -4.20918 0
4.98474 -4.28799 0
5.71517 -3.81305 0
3.702 -3.11177 0
1.79825 -1.87612 0
2.96485 -2.52707 0
6.6484 -3.84662 0
7.23147 -4.78085 0
7.79839 -5.88258 0
0.484502 5.76531 0
1.41092 6.61596 0
2.33656 6.55467 0
1.18629 4.48939 0
1.46437 3.35702 0
2.40851 -0.68706 0
2.79646 0.141581 0
1.76689 2.14798 0
2.584 1.14023 0
3.02692 7.04154 0
2.85884 8.2257 0
2.59203 9.50516 0
4.8009 -3.22544 0
5.99721 -3.02121 0
4.1002 -2.2309 0
3.19977 -1.48556 0
6.61548 -2.27214 0
7.10838 -2.98985 0
7.81903 -3.84605 0
8.53481 -4.85643 0
1.99523 5.50419 0
3.01381 6.03292 0
2.33591 4.06249 0
2.38995 3.02066 0
3.47796 -0.451855 0
3.57235 0.616114 0
2.92208 2.26021 0
3.48926 1.50622 0
3.9044 5.77832 0
3.89891 6.65978 0
3.91304 7.79609 0
3.81635 9.10025 0
5.47409 -1.8775 0
4.43966 -1.11083 0
6.59087 -1.30937 0
7.45701 -1.99396 0
8.24253 -2.8134 0
9.10333 -3.71212 0
3.32748 4.77517 0
3.26906 3.32488 0
4.61595 0.135447 0
4.42535 1.28173 0
3.96823 2.39063 0
4.42403 5.02738 0
4.71772 6.05147 0
4.87341 7.23043 0
4.96108 8.53165 0
5.76814 -0.433331 0
6.85814 -0.488338 0
7.61233 -1.06111 0
8.51911 -1.7146 0
9.50545 -2.48513 0
4.41714 3.73155 0
5.67214 1.05252 0
5.20944 2.45659 0
5.19673 4.49061 0
5.44301 5.38056 0
5.74564 6.51598 0
5.98839 7.79863 0
6.67548 0.429879 0
7.67604 -0.0288993 0
8.6815 -0.566238 0
9.74582 -1.21477 0
6.76913 1.28594 0
5.52707 3.65916 0
6.34143 2.10772 0
6.16595 2.97584 0
6.07927 4.54366 0
6.49598 5.68176 0
6.92674 6.94097 0
7.5876 0.931819 0
8.65338 0.559913 0
9.81077 0.0630408 0
7.39561 1.92792 0
6.57534 3.7592 0
7.02647 2.83601 0
7.15231 4.73907 0
7.78576 5.98787 0
8.48822 1.67953 0
9.69034 1.3184 0
8.15887 2.74457 0
7.74447 3.79611 0
8.50052 4.92683 0
9.44867 2.57011 0
9.05746 3.78276 0
CELLS 542 2168
3 2 0 4
3 0 1 7
3 4 0 7
3 1 5 8
3 7 1 8
3 3 2 13
3 13 2 4
3 11 3 14
3 14 3 13
3 13 4 15
3 4 7 16
3 15 4 16
3 5 6 17
3 8 5 17
3 6 9 18
3 17 6 18
3 7 8 19
3 16 7 19
3 8 17 20
3 19 8 20
3 9 10 23
3 18 9 23
3 10 21 24
3 23 10 24
3 12 11 25
3 25 11 14
3 26 12 27
3 27 12 25
3 14 13 29
3 29 13 15
3 25 14 30
3 30 14 29
3 29 15 31
3 15 16 33
3 31 15 33
3 16 19 34
3 33 16 34
3 17 18 35
3 20 17 35
3 18 23 36
3 35 18 36
3 19 20 37
3 34 19 37
3 20 35 38
3 37 20 38
3 21 22 39
3 24 21 39
3 22 32 40
3 39 22 40
3 23 24 41
3 36 23 41
3 24 39 42
3 41 24 42
3 27 25 44
3 44 25 30
3 28 26 45
3 45 26 27
3 45 27 46
3 46 27 44
3 47 28 48
3 48 28 45
3 30 29 50
3 50 29 31
3 44 30 51
3 51 30 50
3 50 31 52
3 31 33 52
3 32 43 53
3 40 32 53
3 53 43 54
3 33 34 55
3 34 37 55
3 33 55 52
3 35 36 56
3 38 35 56
3 36 41 57
3 56 36 57
3 37 38 58
3 38 56 58
3 37 58 55
3 39 40 59
3 42 39 59
3 40 53 60
3 59 40 60
3 41 42 61
3 57 41 61
3 42 59 62
3 61 42 62
3 43 63 54
3 46 44 64
3 64 44 51
3 48 45 65
3 65 45 46
3 65 46 66
3 66 46 64
3 49 47 67
3 67 47 48
3 67 48 68
3 68 48 65
3 69 49 70
3 70 49 67
3 52 55 72
3 64 51 73
3 51 50 73
3 50 52 73
3 73 52 74
3 74 52 72
3 53 54 75
3 60 53 75
3 54 63 76
3 54 76 77
3 75 54 77
3 55 58 78
3 72 55 78
3 72 78 79
3 56 57 80
3 57 61 80
3 56 80 58
3 58 80 81
3 78 58 81
3 59 60 82
3 62 59 82
3 60 75 83
3 82 60 83
3 61 62 84
3 62 82 84
3 61 84 80
3 63 85 76
3 66 64 86
3 64 73 86
3 68 65 87
3 87 65 66
3 87 66 86
3 70 67 88
3 88 67 68
3 88 68 89
3 89 68 87
3 71 69 90
3 90 69 70
3 90 70 91
3 91 70 88
3 92 71 93
3 93 71 90
3 74 72 94
3 94 72 79
3 86 73 95
3 95 73 74
3 95 74 96
3 96 74 94
3 97 86 95
3 76 85 99
3 75 77 100
3 83 75 100
3 76 99 101
3 77 76 101
3 77 101 102
3 100 77 102
3 94 79 103
3 78 81 104
3 79 78 104
3 79 104 103
3 80 84 105
3 81 80 105
3 81 105 106
3 104 81 106
3 82 83 107
3 83 100 107
3 82 107 84
3 84 107 108
3 105 84 108
3 85 109 99
3 89 87 110
3 87 86 110
3 110 86 97
3 91 88 111
3 111 88 89
3 111 89 110
3 93 90 112
3 112 90 91
3 112 91 113
3 113 91 111
3 98 92 114
3 114 92 93
3 114 93 115
3 115 93 112
3 116 98 114
3 117 103 118
3 96 94 119
3 94 103 119
3 119 103 117
3 97 95 120
3 120 95 96
3 120 96 119
3 121 110 97
3 121 97 122
3 122 97 120
3 123 119 117
3 124 98 116
3 99 109 125
3 99 125 126
3 101 99 126
3 100 102 127
3 100 127 107
3 101 126 128
3 102 101 128
3 102 128 127
3 104 106 129
3 104 129 103
3 103 129 118
3 105 108 130
3 106 105 130
3 106 130 129
3 107 127 131
3 108 107 131
3 108 131 132
3 108 132 130
3 109 134 125
3 125 134 133
3 113 111 135
3 111 110 135
3 135 110 121
3 115 112 136
3 136 112 113
3 136 113 135
3 116 114 137
3 137 114 115
3 137 115 138
3 138 115 136
3 139 124 116
3 139 116 140
3 140 116 137
3 141 135 121
3 118 129 142
3 118 142 143
3 117 118 143
3 123 117 143
3 122 120 144
3 120 119 144
3 144 119 123
3 141 121 145
3 145 121 122
3 145 122 144
3 146 141 145
3 147 144 123
3 147 123 148
3 143 148 123
3 150 124 139
3 149 150 139
3 131 127 151
3 125 133 152
3 126 125 152
3 126 152 153
3 128 126 153
3 128 153 154
3 128 154 127
3 127 154 151
3 152 133 155
3 130 132 156
3 130 156 129
3 129 156 142
3 131 151 157
3 132 131 157
3 132 157 156
3 156 158 142
3 157 151 159
3 133 160 155
3 134 161 133
3 133 161 160
3 138 136 162
3 136 135 162
3 162 135 141
3 140 137 163
3 163 137 138
3 163 138 162
3 149 139 164
3 164 139 140
3 164 140 165
3 165 140 163
3 166 149 164
3 167 162 141
3 167 141 146
3 142 158 168
3 143 142 168
3 143 168 148
3 146 145 169
3 145 144 169
3 169 144 147
3 170 167 146
3 170 146 169
3 171 169 147
3 171 147 148
3 171 148 172
3 168 172 148
3 173 149 166
3 174 150 149
3 173 174 149
3 154 175 151
3 151 175 159
3 152 155 176
3 153 152 176
3 153 176 177
3 153 177 154
3 154 177 175
3 155 160 178
3 155 178 179
3 176 155 179
3 156 157 180
3 156 180 158
3 157 159 181
3 157 181 180
3 158 180 182
3 158 182 168
3 159 175 183
3 159 183 181
3 175 184 183
3 160 186 178
3 178 186 185
3 161 187 160
3 160 187 186
3 165 163 188
3 163 162 188
3 188 162 167
3 166 164 189
3 189 164 165
3 189 165 188
3 190 173 166
3 190 166 191
3 191 166 189
3 192 188 167
3 192 167 170
3 193 192 170
3 182 194 168
3 194 172 168
3 193 170 195
3 170 169 195
3 195 169 171
3 196 195 171
3 196 171 172
3 194 197 172
3 197 198 172
3 198 196 172
3 200 173 190
3 199 200 190
3 201 174 173
3 200 201 173
3 176 179 202
3 177 176 202
3 177 202 175
3 175 202 184
3 178 185 203
3 178 203 179
3 179 203 202
3 203 185 204
3 202 205 184
3 183 206 181
3 180 181 206
3 180 206 182
3 182 206 194
3 183 184 207
3 205 207 184
3 183 207 206
3 185 208 204
3 186 209 185
3 185 209 208
3 187 210 186
3 186 210 209
3 191 189 211
3 189 188 211
3 211 188 192
3 199 190 212
3 212 190 191
3 212 191 211
3 213 199 212
3 214 211 192
3 214 192 193
3 215 214 193
3 215 193 195
3 206 216 194
3 216 197 194
3 216 217 197
3 215 195 218
3 218 195 196
3 198 218 196
3 217 219 197
3 219 218 198
3 197 219 198
3 220 199 213
3 221 200 199
3 220 221 199
3 222 201 200
3 221 222 200
3 203 204 223
3 203 223 202
3 202 223 205
3 204 208 224
3 204 224 223
3 205 223 225
3 205 225 207
3 207 225 226
3 207 226 206
3 226 216 206
3 208 228 224
3 224 228 227
3 209 229 208
3 229 228 208
3 210 230 209
3 209 230 229
3 213 212 231
3 212 211 231
3 231 211 214
3 232 220 213
3 232 213 231
3 233 231 214
3 233 214 215
3 234 233 215
3 234 215 218
3 226 235 216
3 235 217 216
3 235 236 217
3 217 236 219
3 237 234 218
3 237 218 219
3 236 238 219
3 238 237 219
3 240 220 232
3 239 240 232
3 241 221 220
3 240 241 220
3 242 222 221
3 241 242 221
3 224 227 243
3 224 243 223
3 223 243 225
3 225 243 244
3 225 244 226
3 226 244 235
3 227 245 243
3 228 246 227
3 227 246 245
3 229 247 228
3 228 247 246
3 230 248 229
3 229 248 247
3 239 232 249
3 232 231 249
3 249 231 233
3 250 249 233
3 250 233 234
3 237 250 234
3 244 251 235
3 235 251 236
3 251 252 236
3 236 252 238
3 252 253 238
3 253 250 237
3 253 237 238
3 254 239 249
3 255 240 239
3 254 255 239
3 256 241 240
3 255 256 240
3 257 242 241
3 256 257 241
3 245 258 243
3 243 258 244
3 244 258 251
3 245 259 258
3 246 260 245
3 245 260 259
3 247 261 246
3 246 261 260
3 248 262 247
3 247 262 261
3 254 249 263
3 263 249 250
3 253 263 250
3 258 264 251
3 251 264 252
3 264 265 252
3 265 263 253
3 252 265 253
3 266 254 263
3 267 255 254
3 266 267 254
3 268 256 255
3 267 268 255
3 269 257 256
3 268 269 256
3 259 270 258
3 270 264 258
3 260 271 259
3 259 271 270
3 261 272 260
3 260 272 271
3 262 273 261
3 273 272 261
3 270 274 264
3 275 266 263
3 275 263 265
3 274 276 264
3 276 265 264
3 276 277 265
3 277 275 265
3 278 267 266
3 275 278 266
3 279 268 267
3 278 279 267
3 280 269 268
3 279 280 268
3 271 281 270
3 270 281 274
3 272 282 271
3 271 282 281
3 273 283 272
3 272 283 282
3 281 284 274
3 274 284 276
3 285 278 275
3 277 285 275
3 284 286 276
3 286 285 277
3 276 286 277
3 287 279 278
3 285 287 278
3 288 280 279
3 287 288 279
3 282 289 281
3 281 289 284
3 283 290 282
3 282 290 289
3 289 291 284
3 284 291 286
3 291 292 286
3 292 287 285
3 286 292 285
3 293 288 287
3 292 293 287
3 290 294 289
3 289 294 291
3 294 295 291
3 295 293 292
3 291 295 292
CELL_TYPES 542
5
5
5
5
5
5
5
5
5
5
5
5
5
5
5
5
5
5
5
5
5
5
5
5
5
5
5
5
5
5
5
5
5
5
5
5
5
5
5
5
5
5
5
5
5
5
5
5
5
5
5
5
5
5
5
5
5
5
5
5
5
5
5
5
5
5
5
5
5
5
5
5
5
5
5
5
5
5
5
5
5
5
5
5
5
5
5
5
5
5
5
5
5
5
5
5
5
5
5
5
5
5
5
5
5
5
5
5
5
5
5
5
5
5
5
5
5
5
5
5
5
5
5
5
5
5
5
5
5
5
5
5
5
5
5
5
5
5
5
5
5
5
5
5
5
5
5
5
5
5
5
5
5
5
5
5
5
5
5
5
5
5
5
5
5
5
5
5
5
5
5
5
5
5
5
5
5
5
5
5
5
5
5
5
5
5
5
5
5
5
5
5
5
5
5
5
5
5
5
5
5
5
5
5
5
5
5
5
5
5
5
5
5
5
5
5
5
5
5
5
5
5
5
5
5
5
5
5
5
5
5
5
5
5
5
5
5
5
5
5
5
5
5
5
5
5
5
5
5
5
5
5
5
5
5
5
5
5
5
5
5
5
5
5
5
5
5
5
5
5
5
5
5
5
5
5
5
5
5
5
5
5
5
5
5
5
5
5
5
5
5
5
5
5
5
5
5
5
5
5
5
5
5
5
5
5
5
5
5
5
5
5
5
5
5
5
5
5
5
5
5
5
5
5
5
5
5
5
5
5
5
5
5
5
5
5
5
5
5
5
5
5
5
5
5
5
5
5
5
5
5
5
5
5
5
5
5
5
5
5
5
5
5
5
5
5
5
5
5
5
5
5
5
5
5
5
5
5
5
5
5
5
5
5
5
5
5
5
5
5
5
5
5
5
5
5
5
5
5
5
5
5
5
5
5
5
5
5
5
5
5
5
5
5
5
5
5
5
5
5
5
5
5
5
5
5
5
5
5
5
5
5
5
5
5
5
5
5
5
5
5
5
5
5
5
5
5
5
5
5
5
5
5
5
5
5
5
5
5
5
5
5
5
5
5
5
5
5
5
5
5
5
5
5
5
5
5
5
5
5
5
5
5
5
5
5
5
5
5
5
5
5
5
5
5
5
5
5
5
5
5
5
5
5
5
5
5
5
5
5
5
5
5
5
5
5
5
5
5
5
5
5
5
5
5
5
5
5
5
5
5
5
5
5
5
5
5
5
5
5
5
5
POINT_DATA 296
SCALARS concentrations float 4
LOOKUP_TABLE default
0 0.952808 0.121042 13.3568
0 0.952813 0.117594 8.70681
0 0.952813 0.117394 9.2265
0 0.952751 0.120306 12.5199
0 0.95281 0.095677 7.87995
0 0.952753 0.119528 8.34554
0 0.9527 0.118406 13.031
0 0.952807 0.0940562 7.85318
0 0.952799 0.0964545 6.91227
0 0.952774 0.119064 13.7246
0 0.952837 0.118797 11.121
0 0.952736 0.119369 15.401
0 0.952774 0.118368 11.2486
0 0.952788 0.0934101 6.50248
0 0.952747 0.0930812 7.86557
0 0.952798 0.0965926 5.97746
0 0.952802 0.0996301 7.43671
0 0.952743 0.0950965 5.71455
0 0.952754 0.0941982 6.35888
0 0.952807 0.0941336 5.85892
0 0.952794 0.0938872 7.41464
0 0.952809 0.1186 11.6213
0 0.95275 0.120317 13.4226
0 0.952806 0.0935876 6.96728
0 0.952812 0.093849 6.83952
0 0.952768 0.0931227 6.30986
0 0.9528 0.117209 6.64326
0 0.952794 0.0940692 6.90987
0 0.952836 0.12137 12.327
0 0.95278 0.09414 6.15672
0 0.952776 0.0939079 5.93195
0 0.952788 0.0953906 8.1826
0 0.952714 0.120386 16.6421
0 0.952798 0.0940535 8.39878
0 0.952803 0.0957037 7.40505
0 0.952782 0.0946801 7.19843
0 0.952786 0.0938847 7.00801
0 0.952804 0.094627 8.53475
0 0.952792 0.0952697 8.44337
0 0.952775 0.0939144 6.86482
0 0.952747 0.0945212 7.09682
0 0.952788 0.0947319 7.78081
0 0.952784 0.0959972 8.13636
0 0.95274 0.116144 10.2995
0 0.95278 0.0953869 6.97777
0 0.952834 0.0956028 6.11659
0 0.952803 0.0968944 8.32166
0 0.952825 0.116507 9.55233
0 0.952845 0.0951214 6.16548
0 0.952756 0.116459 8.57545
0 0.952787 0.0941168 7.58317
0 0.952781 0.0940787 6.85116
0 0.952795 0.0939604 7.51734
0 0.952742 0.0940969 6.71454
0 0.952763 0.0937615 7.61585
0 0.952804 0.0943813 6.57558
0 0.952782 0.0959192 8.29598
0 0.952777 0.09534 7.39649
0 0.952794 0.0934219 7.82146
0 0.95278 0.0940223 7.32283
0 0.952771 0.095214 6.22144
0 0.95278 0.0945747 6.20296
0 0.952792 0.0956398 8.45307
0 0.952737 0.12032 12.4705
0 0.952762 0.0957446 7.28096
0 0.952833 0.0964683 8.56175
0 0.952758 0.0977581 4.34608
0 0.952803 0.0942286 6.63707
0 0.952826 0.0946249 6.24607
0 0.952713 0.11741 14.5566
0 0.95275 0.0940109 6.87245
0 0.952719 0.118065 16.073
0 0.95279 0.0999477 4.23511
0 0.952782 0.0942191 7.34586
0 0.952783 0.0948732 8.39827
0 0.952783 0.0945602 6.05886
0 0.952754 0.093659 7.38221
0 0.952789 0.0944247 7.83084
0 0.952804 0.0941722 7.6183
0 0.952791 0.100902 8.49335
0 0.952781 0.0945876 8.14303
0 0.95281 0.0983873 4.99398
0 0.952784 0.0974834 9.38966
0 0.952781 0.0922509 7.79915
0 0.952782 0.096699 7.25057
0 0.952752 0.117193 11.4583
0 0.952772 0.0959088 6.66349
0 0.952793 0.0994138 5.16924
0 0.952792 0.0952579 6.94291
0 0.952809 0.0957525 7.83468
0 0.952732 0.0941951 7.22338
0 0.95277 0.0949708 7.09357
0 0.952733 0.118441 14.4334
0 0.952741 0.0953336 6.92058
0 0.952775 0.100198 6.90484
0 0.952789 0.0944773 5.9026
0 0.952782 0.0946196 5.77008
0 0.952793 0.0952686 6.85453
0 0.952725 0.118533 14.1312
0 0.952781 0.0936199 6.68489
0 0.952797 0.0959803 9.25245
0 0.952782 0.0943765 8.36354
0 0.952794 0.0957783 8.8674
0 0.952795 0.0945472 8.25278
0 0.952813 0.0991618 9.10867
0 0.952783 0.100758 8.02437
0 0.952816 0.0933212 7.97163
0 0.952796 0.0938857 7.59287
0 0.952788 0.0975329 7.0061
0 0.952782 0.120203 9.92927
0 0.952797 0.0950018 6.66183
0 0.952796 0.0943167 6.34727
0 0.952767 0.0976706 6.02091
0 0.952792 0.0951013 7.61199
0 0.952736 0.0949166 7.01684
0 0.952763 0.0956151 7.05969
0 0.952745 0.0954573 6.64567
0 0.952803 0.0947873 6.086
0 0.952807 0.093522 7.62464
0 0.952795 0.0943887 5.37846
0 0.952796 0.0946333 8.93905
0 0.952791 0.0986316 9.3406
0 0.952788 0.094527 8.92739
0 0.952809 0.094156 6.08918
0 0.952766 0.118844 11.5152
0 0.952789 0.0943208 8.88299
0 0.952796 0.0942746 8.58715
0 0.952799 0.0931957 7.4837
0 0.952796 0.0957844 9.22759
0 0.952803 0.0954189 6.00352
0 0.952799 0.0931938 7.47166
0 0.952805 0.0946855 7.35417
0 0.952812 0.0952835 8.44385
0 0.952785 0.094743 8.63967
0 0.95277 0.119187 9.97011
0 0.952804 0.0947483 7.47616
0 0.952794 0.0965989 6.21207
0 0.952764 0.0955179 7.04771
0 0.952788 0.0956712 6.32719
0 0.952785 0.0931983 6.74915
0 0.952775 0.0940836 6.71301
0 0.952795 0.0952554 6.53747
0 0.95281 0.0957843 5.99007
0 0.952813 0.0955315 6.35299
0 0.95281 0.0957177 9.18614
0 0.952798 0.0977043 6.80671
0 0.952796 0.0964103 8.08191
0 0.952809 0.0943561 5.60833
0 0.952809 0.0940665 7.68692
0 0.95279 0.0929756 7.32212
0 0.952806 0.119535 12.399
0 0.952804 0.0962977 6.46551
0 0.952802 0.096318 9.30118
0 0.952806 0.0957175 5.4721
0 0.952803 0.0935699 6.82414
0 0.952805 0.0941296 8.40488
0 0.952808 0.0952381 6.20583
0 0.952804 0.096582 9.1695
0 0.952816 0.0944066 7.52296
0 0.952785 0.0958455 8.13057
0 0.952809 0.0943 5.84066
0 0.952795 0.11798 11.5669
0 0.952798 0.0974664 8.09688
0 0.952785 0.094998 6.47897
0 0.952782 0.0929333 6.91451
0 0.952781 0.099124 6.91066
0 0.952785 0.092774 7.18322
0 0.952791 0.0944326 7.16192
0 0.952813 0.0945546 7.17265
0 0.95281 0.0959618 7.08759
0 0.952793 0.0940924 8.33459
0 0.952807 0.0950782 8.11168
0 0.952801 0.0951028 7.3526
0 0.952775 0.0927885 7.367
0 0.952786 0.118822 10.9624
0 0.952799 0.0954817 7.40103
0 0.952808 0.0946404 9.08498
0 0.95281 0.0948945 8.84617
0 0.952812 0.0933456 6.30666
0 0.952811 0.093862 8.09453
0 0.952814 0.0970094 7.68282
0 0.952803 0.101716 6.56473
0 0.952813 0.0957591 7.71551
0 0.952812 0.0950823 7.66585
0 0.952806 0.0961597 5.59229
0 0.952821 0.0925296 7.64519
0 0.952796 0.0933044 7.96135
0 0.952797 0.116401 8.75337
0 0.952786 0.0943262 7.16662
0 0.952785 0.0948327 6.78747
0 0.952784 0.0933617 7.59153
0 0.952792 0.0926485 6.86074
0 0.952793 0.0940428 7.70941
0 0.952798 0.0937063 8.25782
0 0.952797 0.0949778 6.21768
0 0.952804 0.094251 7.91024
0 0.952807 0.0938916 8.48489
0 0.952794 0.0941044 8.16871
0 0.952782 0.0944433 8.49806
0 0.952786 0.0934499 6.56505
0 0.95275 0.0929627 7.2509
0 0.952739 0.118535 15.3519
0 0.952801 0.0930716 6.65561
0 0.952808 0.0928969 6.52387
0 0.952819 0.0930872 6.65322
0 0.952795 0.0954487 6.38131
0 0.952813 0.0944974 5.48747
0 0.952807 0.0958538 7.94014
0 0.952833 0.0939941 7.0394
0 0.952824 0.0937403 7.56376
0 0.952792 0.118529 13.1976
0 0.952794 0.0946891 6.53543
0 0.952794 0.0940492 7.51397
0 0.952796 0.0933087 6.41145
0 0.952801 0.0938115 6.42417
0 0.952805 0.0941057 7.50444
0 0.952809 0.0957885 7.8244
0 0.952826 0.0936715 8.1597
0 0.952797 0.0948285 8.568
0 0.952801 0.101216 9.11992
0 0.952793 0.0931015 7.53397
0 0.952776 0.093065 7.32569
0 0.952743 0.117124 15.2744
0 0.952796 0.0947164 6.99412
0 0.952817 0.0950699 7.43069
0 0.952787 0.0946732 6.57793
0 0.9528 0.0961883 6.1434
0 0.952805 0.0985338 4.64688
0 0.952825 0.0948914 7.721
0 0.952817 0.0944136 6.22668
0 0.952822 0.11988 5.72764
0 0.952797 0.0938851 6.78019
0 0.952798 0.0942016 7.91012
0 0.952802 0.0938639 6.13928
0 0.952802 0.0936224 6.22397
0 0.952809 0.100151 8.36587
0 0.952825 0.0977067 4.93865
0 0.952795 0.0958048 7.4851
0 0.952816 0.0986129 6.34997
0 0.9528 0.0937814 6.80291
0 0.952795 0.0924917 7.4704
0 0.952788 0.0928251 7.35499
0 0.952785 0.118233 11.7037
0 0.952791 0.0963028 6.80695
0 0.952782 0.0980928 6.96218
0 0.952803 0.094583 6.47838
0 0.952807 0.0941164 7.20852
0 0.952797 0.0929361 6.89974
0 0.952788 0.119709 10.621
0 0.952799 0.0937621 6.36395
0 0.952796 0.0938722 5.86278
0 0.952799 0.0954084 6.01596
0 0.952813 0.0938159 6.83969
0 0.952798 0.0945121 5.97667
0 0.952801 0.0942901 7.7422
0 0.952795 0.0931977 7.00734
0 0.952777 0.0923128 7.23372
0 0.952776 0.1208 13.895
0 0.952796 0.0945115 7.0063
0 0.952806 0.0959119 6.01446
0 0.952797 0.0988273 5.72236
0 0.952777 0.0949212 6.70304
0 0.952768 0.118103 14.1187
0 0.952795 0.0942883 7.30865
0 0.952802 0.0950225 7.42152
0 0.952799 0.0930427 6.9602
0 0.9528 0.093423 6.75702
0 0.952796 0.0934352 6.87938
0 0.95278 0.0936663 6.92364
0 0.952767 0.117372 8.74411
0 0.952802 0.0949336 7.67727
0 0.952798 0.0937378 7.5008
0 0.95278 0.0940188 6.68999
0 0.952755 0.120231 11.1843
0 0.952799 0.094068 6.09668
0 0.952797 0.0939318 6.88164
0 0.952799 0.0938021 6.29815
0 0.9528 0.0944381 8.09985
0 0.95279 0.0939299 6.21211
0 0.952781 0.0940517 7.5974
0 0.952774 0.11736 11.4922
0 0.952802 0.0936772 7.9085
0 0.952815 0.0934642 6.66541
0 0.9528 0.118123 12.8314
0 0.952805 0.0945443 6.19335
0 0.952795 0.0952343 8.77044
0 0.952805 0.095382 6.15495
0 0.952786 0.0942706 6.03731
0 0.952779 0.116368 11.1534
0 0.952815 0.093172 7.73146
0 0.952828 0.118494 10.4774
0 0.952829 0.0944193 7.90251
0 0.952804 0.0939962 6.34823
0 0.952794 0.118756 13.885
0 0.952833 0.11787 11.2821
0 0.952834 0.11775 8.72531
VECTORS fa_u float
0.00708788 0.00283209 -0
0.0067932 0.00390209 -0
0.0030411 0.000827786 -0
0.00703471 0.00108958 -0
1e-08 0 0
0.00517902 0.00399619 -0
0.00253447 0.0024541 -0
1e-08 0 0
1e-08 0 0
0.00459635 0.00561487 -0
0.00524626 0.00882399 -0
0.00671214 0.000138685 -0
0.00610171 -0.000658378 0
1e-08 0 0
1e-08 0 0
1e-08 0 0
1e-08 0 0
1e-08 0 0
1e-08 0 0
1e-08 0 0
1e-08 0 0
0.0028926 0.00713564 -0
0.0016148 0.00632919 -0
1e-08 0 0
1e-08 0 0
1e-08 0 0
0.00903981 -0.00228221 0
1e-08 0 0
0.0108747 -0.0047612 0
1e-08 0 0
1e-08 0 0
1e-08 0 0
0.000852486 0.00728099 -0
1e-08 0 0
1e-08 0 0
1e-08 0 0
1e-08 0 0
1e-08 0 0
1e-08 0 0
1e-08 0 0
1e-08 0 0
1e-08 0 0
1e-08 0 0
-0.000177008 0.00778404 -0
1e-08 0 0
1e-08 0 0
1e-08 0 0
0.00552844 -0.0035074 0
1e-08 0 0
0.00287106 -0.00231363 0
1e-08 0 0
1e-08 0 0
1e-08 0 0
1e-08 0 0
1e-08 0 0
1e-08 0 0
1e-08 0 0
1e-08 0 0
1e-08 0 0
1e-08 0 0
1e-08 0 0
1e-08 0 0
1e-08 0 0
-0.000591603 0.00405796 0
1e-08 0 0
1e-08 0 0
1e-08 0 0
1e-08 0 0
1e-08 0 0
0.00320676 -0.00317827 0
1e-08 0 0
0.002767 -0.00339741 0
1e-08 0 0
1e-08 0 0
1e-08 0 0
1e-08 0 0
1e-08 0 0
1e-08 0 0
1e-08 0 0
1e-08 0 0
1e-08 0 0
1e-08 0 0
1e-08 0 0
1e-08 0 0
1e-08 0 0
-0.00137704 0.00529025 0
1e-08 0 0
1e-08 0 0
1e-08 0 0
1e-08 0 0
1e-08 0 0
1e-08 0 0
0.00567901 -0.00932475 0
1e-08 0 0
1e-08 0 0
1e-08 0 0
1e-08 0 0
1e-08 0 0
0.00361089 -0.00892364 0
1e-08 0 0
1e-08 0 0
1e-08 0 0
1e-08 0 0
1e-08 0 0
1e-08 0 0
1e-08 0 0
1e-08 0 0
1e-08 0 0
1e-08 0 0
-0.00285739 0.00708118 0
1e-08 0 0
1e-08 0 0
1e-08 0 0
1e-08 0 0
1e-08 0 0
1e-08 0 0
1e-08 0 0
1e-08 0 0
1e-08 0 0
1e-08 0 0
1e-08 0 0
1e-08 0 0
1e-08 0 0
1e-08 0 0
0.00138416 -0.00552114 0
1e-08 0 0
1e-08 0 0
1e-08 0 0
1e-08 0 0
1e-08 0 0
1e-08 0 0
1e-08 0 0
1e-08 0 0
1e-08 0 0
-0.0037466 0.00649811 0
1e-08 0 0
1e-08 0 0
1e-08 0 0
1e-08 0 0
1e-08 0 0
1e-08 0 0
1e-08 0 0
1e-08 0 0
1e-08 0 0
1e-08 0 0
1e-08 0 0
1e-08 0 0
1e-08 0 0
1e-08 0 0
1e-08 0 0
0.000515911 -0.00376836 0
1e-08 0 0
1e-08 0 0
1e-08 0 0
1e-08 0 0
1e-08 0 0
1e-08 0 0
1e-08 0 0
1e-08 0 0
1e-08 0 0
1e-08 0 0
-0.00464535 0.00596148 0
1e-08 0 0
1e-08 0 0
1e-08 0 0
1e-08 0 0
1e-08 0 0
1e-08 0 0
1e-08 0 0
1e-08 0 0
1e-08 0 0
1e-08 0 0
1e-08 0 0
1e-08 0 0
0.000118665 -0.00788753 0
1e-08 0 0
1e-08 0 0
1e-08 0 0
1e-08 0 0
1e-08 0 0
1e-08 0 0
1e-08 0 0
1e-08 0 0
1e-08 0 0
1e-08 0 0
1e-08 0 0
1e-08 0 0
-0.00229575 0.00233388 0
1e-08 0 0
1e-08 0 0
1e-08 0 0
1e-08 0 0
1e-08 0 0
1e-08 0 0
1e-08 0 0
1e-08 0 0
1e-08 0 0
1e-08 0 0
1e-08 0 0
1e-08 0 0
1e-08 0 0
-0.000859543 -0.00694068 0
1e-08 0 0
1e-08 0 0
1e-08 0 0
1e-08 0 0
1e-08 0 0
1e-08 0 0
1e-08 0 0
1e-08 0 0
-0.00476922 0.00389839 0
1e-08 0 0
1e-08 0 0
1e-08 0 0
1e-08 0 0
1e-08 0 0
1e-08 0 0
1e-08 0 0
1e-08 0 0
1e-08 0 0
1e-08 0 0
1e-08 0 0
-0.00162314 -0.00623223 0
1e-08 0 0
1e-08 0 0
1e-08 0 0
1e-08 0 0
1e-08 0 0
1e-08 0 0
1e-08 0 0
-0.00873653 0.00525264 0
1e-08 0 0
1e-08 0 0
1e-08 0 0
1e-08 0 0
1e-08 0 0
1e-08 0 0
1e-08 0 0
1e-08 0 0
1e-08 0 0
1e-08 0 0
1e-08 0 0
-0.00295596 -0.00719341 0
1e-08 0 0
1e-08 0 0
1e-08 0 0
1e-08 0 0
1e-08 0 0
-0.00747968 0.00306163 0
1e-08 0 0
1e-08 0 0
1e-08 0 0
1e-08 0 0
1e-08 0 0
1e-08 0 0
1e-08 0 0
1e-08 0 0
-0.00507289 -0.00846525 0
1e-08 0 0
1e-08 0 0
1e-08 0 0
1e-08 0 0
-0.0062817 0.00161609 0
1e-08 0 0
1e-08 0 0
1e-08 0 0
1e-08 0 0
1e-08 0 0
1e-08 0 0
-0.00360972 -0.00446062 0
1e-08 0 0
1e-08 0 0
1e-08 0 0
-0.00713427 0.000854842 0
1e-08 0 0
1e-08 0 0
1e-08 0 0
1e-08 0 0
1e-08 0 0
1e-08 0 0
-0.00259615 -0.00257696 0
1e-08 0 0
1e-08 0 0
-0.00840074 -0.000184002 0
1e-08 0 0
1e-08 0 0
1e-08 0 0
1e-08 0 0
-0.00606418 -0.00473836 0
1e-08 0 0
-0.00352121 -0.000508583 0
1e-08 0 0
1e-08 0 0
-0.00660579 -0.0038096 0
-0.00557764 -0.0014324 0
-0.00720981 -0.00290062 0
