# vtk DataFile Version 2.0
CellBP Time: 5.68
ASCII
DATASET UNSTRUCTURED_GRID
POINTS 296 double
-8.99129 -3.6847 0
-8.43035 -4.84137 0
-9.3881 -2.45982 0
-9.65968 -1.22077 0
-8.14753 -2.72873 0
-7.71138 -5.91068 0
-6.8599 -6.87781 0
-7.70681 -3.75947 0
-7.14544 -4.73647 0
-5.92415 -7.74485 0
-4.8838 -8.47586 0
-9.76373 0.0399135 0
-9.70175 1.32154 0
-8.46429 -1.63106 0
-8.61412 -0.509638 0
-7.3903 -1.93136 0
-7.01974 -2.80465 0
-6.48194 -5.65074 0
-5.70358 -6.47442 0
-6.59201 -3.76905 0
-6.05033 -4.55482 0
-3.72925 -9.04241 0
-2.49867 -9.44648 0
-4.824 -7.18691 0
-3.86459 -7.77228 0
-8.63016 0.63098 0
-9.47547 2.60054 0
-8.4795 1.73373 0
-9.06307 3.82108 0
-7.56197 -0.891097 0
-7.62507 0.0875725 0
-6.77635 -1.26443 0
-1.22456 -9.68772 0
-6.27746 -2.08335 0
-6.14966 -2.96354 0
-5.4009 -5.35864 0
-4.69261 -6.00164 0
-5.51047 -3.65998 0
-5.13007 -4.45296 0
-2.82818 -8.23558 0
-1.75449 -8.49623 0
-3.86126 -6.61314 0
-3.02018 -7.04726 0
0.0544408 -9.75275 0
-7.55083 1.12037 0
-8.21747 2.87365 0
-7.40682 2.06181 0
-8.45626 4.95179 0
-7.73927 3.89906 0
-7.70495 5.99865 0
-6.61887 -0.374945 0
-6.79867 0.547946 0
-5.64733 -0.978949 0
-0.579713 -8.65272 0
0.549869 -8.59163 0
-5.18467 -2.41594 0
-4.37661 -4.98738 0
-3.81817 -5.67006 0
-4.34232 -3.72547 0
-2.03306 -7.44441 0
-1.12033 -7.654 0
-2.94064 -5.99822 0
-2.2791 -6.51669 0
1.31965 -9.64101 0
-6.55239 1.38939 0
-7.02422 3.04565 0
-6.52555 2.31755 0
-7.14783 4.87591 0
-6.5807 3.91036 0
-6.85856 6.95293 0
-6.43541 5.76281 0
-5.90679 7.81092 0
-4.38728 -1.16499 0
-5.70644 0.497682 0
-4.58983 -0.0229875 0
-0.00801916 -7.69213 0
1.68761 -8.44285 0
0.90894 -7.59099 0
-3.97613 -2.36409 0
-3.46087 -1.38208 0
-3.23472 -4.71965 0
-3.22569 -3.21744 0
-1.36609 -6.55808 0
-0.518785 -6.88683 0
-1.95207 -5.45091 0
2.57542 -9.39191 0
-5.40601 1.99964 0
-5.97292 3.00039 0
-5.9784 4.75333 0
-5.64312 3.8948 0
-5.63243 6.56496 0
-5.33554 5.48549 0
-4.86645 8.55821 0
-4.72856 7.22783 0
-3.46985 -0.420974 0
-4.37922 1.22884 0
-3.66568 0.585751 0
-3.99449 2.29893 0
-3.72166 9.12905 0
2.77591 -8.11224 0
0.381793 -6.64395 0
1.9496 -7.33281 0
1.24549 -6.7342 0
-2.43004 -0.86484 0
-2.818 -2.11175 0
-2.26869 -4.03864 0
-2.30495 -2.93725 0
-0.454376 -5.74678 0
-1.20609 -4.43922 0
3.7924 -8.99328 0
-4.70111 3.32484 0
-4.98256 4.48238 0
-4.54315 6.12541 0
-4.44137 5.23068 0
-3.76963 7.82981 0
-3.73553 6.67003 0
-2.72556 8.23773 0
-1.63764 -0.129733 0
-1.43939 -0.881372 0
-2.47461 0.515192 0
-3.21299 1.43754 0
-3.18789 3.26821 0
-2.87342 2.36172 0
-1.35203 0.636875 0
-2.49685 9.52165 0
3.8212 -7.67774 0
2.85978 -6.94703 0
0.910423 -5.68707 0
1.99277 -6.24142 0
-1.66929 -1.97937 0
-1.41718 -3.24158 0
0.0806967 -4.66681 0
-0.553234 -3.65318 0
4.80297 -7.12166 0
4.94169 -8.43199 0
-3.70396 4.45861 0
-3.65424 5.61722 0
-2.81643 7.11339 0
-2.94308 6.20612 0
-1.63128 8.55517 0
-1.89219 7.45411 0
-2.30478 3.99048 0
-0.724344 -1.31836 0
-0.831801 -0.249538 0
-1.92985 1.68845 0
-2.10583 2.85805 0
-1.29938 3.51266 0
-0.873297 1.36119 0
-0.283374 0.464891 0
-0.525632 8.70854 0
-1.23144 9.76126 0
1.07896 -4.4813 0
3.78177 -6.50011 0
2.88902 -5.91635 0
2.04976 -5.28645 0
4.65788 -6.01809 0
-0.550018 -2.4601 0
0.490131 -3.41961 0
0.056561 -1.60534 0
1.44819 -3.61432 0
5.72878 -6.44135 0
6.00966 -7.71487 0
-2.42677 5.2416 0
-2.07551 6.39085 0
-0.880812 7.65554 0
-1.23277 6.78753 0
0.0918999 7.74449 0
-1.1282 4.43106 0
0.150563 -0.611359 0
-0.805283 2.49435 0
-0.342836 3.57894 0
0.0549447 1.51737 0
0.734132 0.477548 0
0.640089 8.73152 0
0.0437228 9.86668 0
2.3229 -4.18266 0
3.75181 -5.46915 0
2.91695 -5.06894 0
5.45439 -5.34411 0
4.57492 -5.11988 0
0.632437 -2.28573 0
1.24092 -2.91269 0
0.756844 -1.38702 0
2.12617 -3.08073 0
2.93921 -3.40026 0
6.0378 -4.6782 0
6.52324 -5.63842 0
6.97054 -6.85561 0
-0.992069 5.71362 0
-0.351912 6.75125 0
1.10651 7.646 0
0.56065 6.95818 0
-0.00217863 4.66656 0
0.591416 3.79142 0
1.33114 -0.639691 0
0.524431 2.63982 0
0.95267 1.57517 0
1.89743 0.211311 0
1.59754 1.06438 0
2.10598 7.47235 0
1.77737 8.57708 0
1.33034 9.79282 0
3.73669 -4.23494 0
5.0093 -4.31844 0
5.73896 -3.83669 0
3.71735 -3.13071 0
1.79964 -1.87729 0
2.97463 -2.53507 0
6.67674 -3.86712 0
7.25863 -4.80183 0
7.83485 -5.91334 0
0.484897 5.78613 0
1.41377 6.64018 0
2.34495 6.57457 0
1.18971 4.50222 0
1.46911 3.36512 0
2.41415 -0.686716 0
2.80376 0.142831 0
1.77166 2.15197 0
2.59104 1.14176 0
3.03465 7.06723 0
2.86812 8.25591 0
2.60162 9.54624 0
4.82137 -3.24342 0
6.02085 -3.03755 0
4.11332 -2.23892 0
3.20731 -1.48816 0
6.63778 -2.28005 0
7.13355 -2.99844 0
7.84946 -3.85883 0
8.56954 -4.87512 0
2.00086 5.52184 0
3.02861 6.05644 0
2.34213 4.07437 0
2.39472 3.02882 0
3.48659 -0.455525 0
3.57974 0.615169 0
2.9298 2.26503 0
3.49965 1.51051 0
3.92436 5.80043 0
3.91507 6.68506 0
3.92657 7.82373 0
3.82905 9.1382 0
5.49116 -1.88525 0
4.45319 -1.11449 0
6.61456 -1.31446 0
7.48338 -2.00218 0
8.27318 -2.82333 0
9.14032 -3.72497 0
3.34583 4.79487 0
3.28149 3.33595 0
4.6302 0.134422 0
4.44311 1.28711 0
3.98678 2.40133 0
4.45209 5.05137 0
4.74193 6.08065 0
4.89393 7.25972 0
4.97961 8.5677 0
5.78958 -0.433483 0
6.88789 -0.488949 0
7.64153 -1.06365 0
8.55239 -1.72139 0
9.54601 -2.49552 0
4.44289 3.75074 0
5.69909 1.06167 0
5.24063 2.47165 0
5.22986 4.51625 0
5.47509 5.40985 0
5.77718 6.54475 0
6.01834 7.8353 0
6.70794 0.435997 0
7.70928 -0.0293864 0
8.71802 -0.568557 0
9.78899 -1.22213 0
6.80581 1.29932 0
5.56314 3.68261 0
6.3784 2.12593 0
6.20593 2.9979 0
6.11832 4.5711 0
6.53332 5.71023 0
6.96555 6.97667 0
7.6262 0.935855 0
8.69699 0.56092 0
9.85819 0.0612833 0
7.43689 1.94392 0
6.62406 3.78771 0
7.07237 2.85695 0
7.19682 4.76741 0
7.82551 6.01802 0
8.53266 1.68648 0
9.74404 1.32604 0
8.21182 2.76111 0
7.78899 3.81884 0
8.5426 4.95163 0
9.50026 2.58411 0
9.10354 3.80163 0
CELLS 542 2168
3 2 0 4
3 0 1 7
3 4 0 7
3 1 5 8
3 7 1 8
3 3 2 13
3 13 2 4
3 11 3 14
3 14 3 13
3 13 4 15
3 4 7 16
3 15 4 16
3 5 6 17
3 8 5 17
3 6 9 18
3 17 6 18
3 7 8 19
3 16 7 19
3 8 17 20
3 19 8 20
3 9 10 23
3 18 9 23
3 10 21 24
3 23 10 24
3 12 11 25
3 25 11 14
3 26 12 27
3 27 12 25
3 14 13 29
3 29 13 15
3 25 14 30
3 30 14 29
3 29 15 31
3 15 16 33
3 31 15 33
3 16 19 34
3 33 16 34
3 17 18 35
3 20 17 35
3 18 23 36
3 35 18 36
3 19 20 37
3 34 19 37
3 20 35 38
3 37 20 38
3 21 22 39
3 24 21 39
3 22 32 40
3 39 22 40
3 23 24 41
3 36 23 41
3 24 39 42
3 41 24 42
3 27 25 44
3 44 25 30
3 28 26 45
3 45 26 27
3 45 27 46
3 46 27 44
3 47 28 48
3 48 28 45
3 30 29 50
3 50 29 31
3 44 30 51
3 51 30 50
3 50 31 52
3 31 33 52
3 32 43 53
3 40 32 53
3 53 43 54
3 33 34 55
3 34 37 55
3 33 55 52
3 35 36 56
3 38 35 56
3 36 41 57
3 56 36 57
3 37 38 58
3 38 56 58
3 37 58 55
3 39 40 59
3 42 39 59
3 40 53 60
3 59 40 60
3 41 42 61
3 57 41 61
3 42 59 62
3 61 42 62
3 43 63 54
3 46 44 64
3 64 44 51
3 48 45 65
3 65 45 46
3 65 46 66
3 66 46 64
3 49 47 67
3 67 47 48
3 67 48 68
3 68 48 65
3 69 49 70
3 70 49 67
3 52 55 72
3 64 51 73
3 51 50 73
3 50 52 73
3 73 52 74
3 74 52 72
3 53 54 75
3 60 53 75
3 54 63 76
3 54 76 77
3 75 54 77
3 55 58 78
3 72 55 78
3 72 78 79
3 56 57 80
3 57 61 80
3 56 80 58
3 58 80 81
3 78 58 81
3 59 60 82
3 62 59 82
3 60 75 83
3 82 60 83
3 61 62 84
3 62 82 84
3 61 84 80
3 63 85 76
3 66 64 86
3 64 73 86
3 68 65 87
3 87 65 66
3 87 66 86
3 70 67 88
3 88 67 68
3 88 68 89
3 89 68 87
3 71 69 90
3 90 69 70
3 90 70 91
3 91 70 88
3 92 71 93
3 93 71 90
3 74 72 94
3 94 72 79
3 86 73 95
3 95 73 74
3 95 74 96
3 96 74 94
3 97 86 95
3 76 85 99
3 75 77 100
3 83 75 100
3 76 99 101
3 77 76 101
3 77 101 102
3 100 77 102
3 94 79 103
3 78 81 104
3 79 78 104
3 79 104 103
3 80 84 105
3 81 80 105
3 81 105 106
3 104 81 106
3 82 83 107
3 83 100 107
3 82 107 84
3 84 107 108
3 105 84 108
3 85 109 99
3 89 87 110
3 87 86 110
3 110 86 97
3 91 88 111
3 111 88 89
3 111 89 110
3 93 90 112
3 112 90 91
3 112 91 113
3 113 91 111
3 98 92 114
3 114 92 93
3 114 93 115
3 115 93 112
3 116 98 114
3 117 103 118
3 96 94 119
3 94 103 119
3 119 103 117
3 97 95 120
3 120 95 96
3 120 96 119
3 121 110 97
3 121 97 122
3 122 97 120
3 123 119 117
3 124 98 116
3 99 109 125
3 99 125 126
3 101 99 126
3 100 102 127
3 100 127 107
3 101 126 128
3 102 101 128
3 102 128 127
3 104 106 129
3 104 129 103
3 103 129 118
3 105 108 130
3 106 105 130
3 106 130 129
3 107 127 131
3 108 107 131
3 108 131 132
3 108 132 130
3 109 134 125
3 125 134 133
3 113 111 135
3 111 110 135
3 135 110 121
3 115 112 136
3 136 112 113
3 136 113 135
3 116 114 137
3 137 114 115
3 137 115 138
3 138 115 136
3 139 124 116
3 139 116 140
3 140 116 137
3 141 135 121
3 118 129 142
3 118 142 143
3 117 118 143
3 123 117 143
3 122 120 144
3 120 119 144
3 144 119 123
3 141 121 145
3 145 121 122
3 145 122 144
3 146 141 145
3 147 144 123
3 147 123 148
3 143 148 123
3 150 124 139
3 149 150 139
3 131 127 151
3 125 133 152
3 126 125 152
3 126 152 153
3 128 126 153
3 128 153 154
3 128 154 127
3 127 154 151
3 152 133 155
3 130 132 156
3 130 156 129
3 129 156 142
3 131 151 157
3 132 131 157
3 132 157 156
3 156 158 142
3 157 151 159
3 133 160 155
3 134 161 133
3 133 161 160
3 138 136 162
3 136 135 162
3 162 135 141
3 140 137 163
3 163 137 138
3 163 138 162
3 149 139 164
3 164 139 140
3 164 140 165
3 165 140 163
3 166 149 164
3 167 162 141
3 167 141 146
3 142 158 168
3 143 142 168
3 143 168 148
3 146 145 169
3 145 144 169
3 169 144 147
3 170 167 146
3 170 146 169
3 171 169 147
3 171 147 148
3 171 148 172
3 168 172 148
3 173 149 166
3 174 150 149
3 173 174 149
3 154 175 151
3 151 175 159
3 152 155 176
3 153 152 176
3 153 176 177
3 153 177 154
3 154 177 175
3 155 160 178
3 155 178 179
3 176 155 179
3 156 157 180
3 156 180 158
3 157 159 181
3 157 181 180
3 158 180 182
3 158 182 168
3 159 175 183
3 159 183 181
3 175 184 183
3 160 186 178
3 178 186 185
3 161 187 160
3 160 187 186
3 165 163 188
3 163 162 188
3 188 162 167
3 166 164 189
3 189 164 165
3 189 165 188
3 190 173 166
3 190 166 191
3 191 166 189
3 192 188 167
3 192 167 170
3 193 192 170
3 182 194 168
3 194 172 168
3 193 170 195
3 170 169 195
3 195 169 171
3 196 195 171
3 196 171 172
3 194 197 172
3 197 198 172
3 198 196 172
3 200 173 190
3 199 200 190
3 201 174 173
3 200 201 173
3 176 179 202
3 177 176 202
3 177 202 175
3 175 202 184
3 178 185 203
3 178 203 179
3 179 203 202
3 203 185 204
3 202 205 184
3 183 206 181
3 180 181 206
3 180 206 182
3 182 206 194
3 183 184 207
3 205 207 184
3 183 207 206
3 185 208 204
3 186 209 185
3 185 209 208
3 187 210 186
3 186 210 209
3 191 189 211
3 189 188 211
3 211 188 192
3 199 190 212
3 212 190 191
3 212 191 211
3 213 199 212
3 214 211 192
3 214 192 193
3 215 214 193
3 215 193 195
3 206 216 194
3 216 197 194
3 216 217 197
3 215 195 218
3 218 195 196
3 198 218 196
3 217 219 197
3 219 218 198
3 197 219 198
3 220 199 213
3 221 200 199
3 220 221 199
3 222 201 200
3 221 222 200
3 203 204 223
3 203 223 202
3 202 223 205
3 204 208 224
3 204 224 223
3 205 223 225
3 205 225 207
3 207 225 226
3 207 226 206
3 226 216 206
3 208 228 224
3 224 228 227
3 209 229 208
3 229 228 208
3 210 230 209
3 209 230 229
3 213 212 231
3 212 211 231
3 231 211 214
3 232 220 213
3 232 213 231
3 233 231 214
3 233 214 215
3 234 233 215
3 234 215 218
3 226 235 216
3 235 217 216
3 235 236 217
3 217 236 219
3 237 234 218
3 237 218 219
3 236 238 219
3 238 237 219
3 240 220 232
3 239 240 232
3 241 221 220
3 240 241 220
3 242 222 221
3 241 242 221
3 224 227 243
3 224 243 223
3 223 243 225
3 225 243 244
3 225 244 226
3 226 244 235
3 227 245 243
3 228 246 227
3 227 246 245
3 229 247 228
3 228 247 246
3 230 248 229
3 229 248 247
3 239 232 249
3 232 231 249
3 249 231 233
3 250 249 233
3 250 233 234
3 237 250 234
3 244 251 235
3 235 251 236
3 251 252 236
3 236 252 238
3 252 253 238
3 253 250 237
3 253 237 238
3 254 239 249
3 255 240 239
3 254 255 239
3 256 241 240
3 255 256 240
3 257 242 241
3 256 257 241
3 245 258 243
3 243 258 244
3 244 258 251
3 245 259 258
3 246 260 245
3 245 260 259
3 247 261 246
3 246 261 260
3 248 262 247
3 247 262 261
3 254 249 263
3 263 249 250
3 253 263 250
3 258 264 251
3 251 264 252
3 264 265 252
3 265 263 253
3 252 265 253
3 266 254 263
3 267 255 254
3 266 267 254
3 268 256 255
3 267 268 255
3 269 257 256
3 268 269 256
3 259 270 258
3 270 264 258
3 260 271 259
3 259 271 270
3 261 272 260
3 260 272 271
3 262 273 261
3 273 272 261
3 270 274 264
3 275 266 263
3 275 263 265
3 274 276 264
3 276 265 264
3 276 277 265
3 277 275 265
3 278 267 266
3 275 278 266
3 279 268 267
3 278 279 267
3 280 269 268
3 279 280 268
3 271 281 270
3 270 281 274
3 272 282 271
3 271 282 281
3 273 283 272
3 272 283 282
3 281 284 274
3 274 284 276
3 285 278 275
3 277 285 275
3 284 286 276
3 286 285 277
3 276 286 277
3 287 279 278
3 285 287 278
3 288 280 279
3 287 288 279
3 282 289 281
3 281 289 284
3 283 290 282
3 282 290 289
3 289 291 284
3 284 291 286
3 291 292 286
3 292 287 285
3 286 292 285
3 293 288 287
3 292 293 287
3 290 294 289
3 289 294 291
3 294 295 291
3 295 293 292
3 291 295 292
CELL_TYPES 542
5
5
5
5
5
5
5
5
5
5
5
5
5
5
5
5
5
5
5
5
5
5
5
5
5
5
5
5
5
5
5
5
5
5
5
5
5
5
5
5
5
5
5
5
5
5
5
5
5
5
5
5
5
5
5
5
5
5
5
5
5
5
5
5
5
5
5
5
5
5
5
5
5
5
5
5
5
5
5
5
5
5
5
5
5
5
5
5
5
5
5
5
5
5
5
5
5
5
5
5
5
5
5
5
5
5
5
5
5
5
5
5
5
5
5
5
5
5
5
5
5
5
5
5
5
5
5
5
5
5
5
5
5
5
5
5
5
5
5
5
5
5
5
5
5
5
5
5
5
5
5
5
5
5
5
5
5
5
5
5
5
5
5
5
5
5
5
5
5
5
5
5
5
5
5
5
5
5
5
5
5
5
5
5
5
5
5
5
5
5
5
5
5
5
5
5
5
5
5
5
5
5
5
5
5
5
5
5
5
5
5
5
5
5
5
5
5
5
5
5
5
5
5
5
5
5
5
5
5
5
5
5
5
5
5
5
5
5
5
5
5
5
5
5
5
5
5
5
5
5
5
5
5
5
5
5
5
5
5
5
5
5
5
5
5
5
5
5
5
5
5
5
5
5
5
5
5
5
5
5
5
5
5
5
5
5
5
5
5
5
5
5
5
5
5
5
5
5
5
5
5
5
5
5
5
5
5
5
5
5
5
5
5
5
5
5
5
5
5
5
5
5
5
5
5
5
5
5
5
5
5
5
5
5
5
5
5
5
5
5
5
5
5
5
5
5
5
5
5
5
5
5
5
5
5
5
5
5
5
5
5
5
5
5
5
5
5
5
5
5
5
5
5
5
5
5
5
5
5
5
5
5
5
5
5
5
5
5
5
5
5
5
5
5
5
5
5
5
5
5
5
5
5
5
5
5
5
5
5
5
5
5
5
5
5
5
5
5
5
5
5
5
5
5
5
5
5
5
5
5
5
5
5
5
5
5
5
5
5
5
5
5
5
5
5
5
5
5
5
5
5
5
5
5
5
5
5
5
5
5
5
5
5
5
5
5
5
5
5
5
5
5
5
5
5
5
5
5
5
5
5
5
5
5
5
5
5
5
5
5
5
5
5
5
5
5
5
5
5
5
5
5
5
5
5
5
5
5
5
5
5
5
5
5
5
5
5
5
5
5
5
5
5
5
5
5
5
5
5
5
5
5
5
5
5
5
5
5
5
5
5
5
POINT_DATA 296
SCALARS concentrations float 4
LOOKUP_TABLE default
0 0.962122 0.1447 16.6981
0 0.962215 0.142224 4.79747
0 0.962073 0.148091 14.0926
0 0.962054 0.147772 12.3112
0 0.962091 0.0934883 7.57044
0 0.962187 0.143456 8.17174
0 0.962138 0.147555 15.0252
0 0.962153 0.0938749 7.21471
0 0.96218 0.0933231 7.9154
0 0.96212 0.144014 20.0125
0 0.962122 0.142544 8.6874
0 0.962061 0.14466 15.6106
0 0.962159 0.145095 15.0988
0 0.962081 0.0928237 7.8436
0 0.962067 0.0928817 7.57381
0 0.962099 0.0931997 7.98653
0 0.962104 0.0933922 7.96145
0 0.96214 0.0927232 7.7842
0 0.962111 0.0927273 7.55531
0 0.962118 0.0935298 7.74931
0 0.962112 0.0933471 7.57517
0 0.962061 0.148732 16.1618
0 0.961978 0.144397 20.0712
0 0.962113 0.0926689 6.77591
0 0.962101 0.0929169 7.03836
0 0.9621 0.0937973 6.44902
0 0.962174 0.143574 13.0021
0 0.962149 0.0948913 7.76995
0 0.962067 0.143947 15.1508
0 0.962098 0.092984 7.96113
0 0.962094 0.0934849 6.93081
0 0.962102 0.0929227 7.88595
0 0.96198 0.143174 19.2301
0 0.962092 0.0932559 7.74782
0 0.96209 0.0937182 6.43843
0 0.962093 0.0932157 7.45239
0 0.962091 0.0927385 6.82117
0 0.962087 0.0936294 6.417
0 0.962081 0.0930274 7.35268
0 0.962042 0.0934047 7.37835
0 0.962002 0.0929175 7.24219
0 0.962096 0.0931189 7.01454
0 0.96209 0.0936559 7.15338
0 0.962031 0.147814 17.3604
0 0.962091 0.0933197 7.61585
0 0.962113 0.0945748 7.61792
0 0.962097 0.0970008 6.38453
0 0.962011 0.141169 15.105
0 0.96205 0.0938279 7.26582
0 0.96207 0.147433 17.5988
0 0.962097 0.0930983 6.49705
0 0.962089 0.0933957 7.61673
0 0.96209 0.0937859 7.56866
0 0.962024 0.0926715 7.26807
0 0.962057 0.0929193 7.28563
0 0.962077 0.094836 6.83582
0 0.962081 0.0929172 6.82501
0 0.962088 0.0933377 6.92574
0 0.962078 0.0937978 7.33186
0 0.96207 0.0932926 7.43033
0 0.962057 0.0929443 6.88745
0 0.962092 0.0938842 6.49763
0 0.962092 0.0944533 6.82349
0 0.962089 0.146033 16.3833
0 0.962095 0.0946284 6.31842
0 0.962097 0.0942784 7.45695
0 0.962101 0.0953258 8.19479
0 0.962049 0.0937145 7.57876
0 0.962082 0.0945813 6.77063
0 0.962149 0.145821 13.6815
0 0.962115 0.0942326 7.61194
0 0.962159 0.140891 8.35849
0 0.962077 0.0957908 7.35038
0 0.962098 0.0944148 6.24123
0 0.962097 0.0947059 7.59734
0 0.962057 0.0935922 7.49451
0 0.962092 0.0932304 7.11217
0 0.962062 0.0932794 7.06407
0 0.962071 0.0954445 7.18099
0 0.962089 0.0994967 7.45757
0 0.962085 0.0937205 7.37709
0 0.962078 0.0948993 7.05136
0 0.962081 0.0945378 6.78377
0 0.962076 0.0932352 7.00616
0 0.962085 0.0938609 6.28467
0 0.962132 0.143583 16.7909
0 0.962099 0.0939799 6.57058
0 0.962097 0.0943262 7.87499
0 0.962095 0.0945487 7.57533
0 0.962095 0.0954988 6.91208
0 0.962143 0.0974566 6.37032
0 0.962111 0.0962385 7.68613
0 0.962151 0.139395 17.2435
0 0.962138 0.0949256 6.04604
0 0.962104 0.0978683 6.58757
0 0.962099 0.0930472 6.7871
0 0.962102 0.0934244 6.96665
0 0.962091 0.0935792 6.51885
0 0.962145 0.142615 12.9467
0 0.962093 0.0949963 6.70784
0 0.962076 0.0943051 6.76381
0 0.962067 0.0951881 7.34694
0 0.962073 0.0934086 7.01998
0 0.962113 0.0956429 7.21362
0 0.962095 0.0964858 8.09287
0 0.962083 0.0944042 7.65784
0 0.962092 0.0951247 7.65694
0 0.962084 0.0934877 7.16922
0 0.962082 0.0939533 6.74304
0 0.962079 0.141658 17.7336
0 0.962089 0.0941582 7.23258
0 0.962095 0.0963183 7.59152
0 0.962109 0.0954164 6.94613
0 0.96209 0.0941403 6.69478
0 0.962137 0.0985712 6.21745
0 0.962105 0.097004 6.48737
0 0.962126 0.096424 6.41115
0 0.962113 0.0939474 6.95678
0 0.962113 0.0989736 6.2539
0 0.96211 0.0950674 7.02104
0 0.962098 0.0932788 6.9781
0 0.962083 0.0941639 6.97941
0 0.962095 0.0936458 7.20691
0 0.962116 0.0947276 7.471
0 0.962109 0.143196 10.2332
0 0.962067 0.0995769 10.4426
0 0.962063 0.0954971 7.15555
0 0.96208 0.0948787 6.76378
0 0.962071 0.0940843 6.9076
0 0.96211 0.0955791 6.40012
0 0.962096 0.0947903 7.47615
0 0.962087 0.0943347 7.27831
0 0.962087 0.0954832 7.268
0 0.962143 0.0963673 8.39022
0 0.962073 0.142612 14.3917
0 0.962081 0.09414 6.17622
0 0.962087 0.0941403 7.93685
0 0.962118 0.0969177 9.13378
0 0.962096 0.0948055 6.2334
0 0.962122 0.0934001 6.87665
0 0.962129 0.0945099 8.16591
0 0.962086 0.10019 5.60857
0 0.96211 0.0940547 7.43928
0 0.962111 0.0956842 8.33251
0 0.962107 0.0939993 7.25801
0 0.962096 0.100164 6.45045
0 0.962098 0.0945127 6.3201
0 0.962112 0.0955885 6.72568
0 0.962113 0.0938501 6.4646
0 0.96213 0.093346 7.0282
0 0.962134 0.143422 12.3946
0 0.962081 0.094988 6.08078
0 0.962087 0.0953822 6.53957
0 0.962074 0.0948771 7.07624
0 0.962072 0.0943742 7.00381
0 0.962131 0.0972685 8.3372
0 0.962097 0.0970697 6.44996
0 0.962085 0.0953221 7.93619
0 0.962113 0.0964425 6.97367
0 0.96209 0.0951454 8.06258
0 0.962221 0.0955034 8.27712
0 0.962223 0.141941 7.75459
0 0.962088 0.0971782 5.85923
0 0.962117 0.095808 6.19225
0 0.962127 0.0943405 7.8537
0 0.962127 0.0973993 8.70634
0 0.962127 0.0936913 6.77817
0 0.96209 0.0942634 7.65566
0 0.962114 0.0945572 6.34891
0 0.962103 0.0953139 8.40684
0 0.962099 0.0953428 7.38081
0 0.962113 0.0949877 7.1108
0 0.962114 0.0933146 7.02001
0 0.962115 0.0935334 6.91774
0 0.96211 0.144605 18.2693
0 0.962083 0.0947173 6.74269
0 0.962091 0.103293 6.89362
0 0.962094 0.095126 6.93225
0 0.962132 0.0956617 7.16437
0 0.962099 0.0949853 6.6185
0 0.962109 0.0966063 7.06363
0 0.962101 0.0959046 9.20998
0 0.96213 0.0953891 7.52855
0 0.962087 0.0995345 10.6621
0 0.962089 0.095874 7.57316
0 0.962106 0.0958128 8.38855
0 0.962167 0.0948476 7.55296
0 0.962262 0.140056 12.2592
0 0.962095 0.100847 6.84357
0 0.962106 0.0953652 6.8017
0 0.96214 0.0953207 7.39342
0 0.962113 0.0967456 9.13858
0 0.962092 0.0937945 7.68089
0 0.962105 0.0960686 7.14919
0 0.962115 0.0978364 8.65605
0 0.962108 0.0953334 7.71207
0 0.962116 0.0939281 7.45511
0 0.96211 0.0961222 5.66258
0 0.96211 0.0946639 7.49609
0 0.962143 0.0973712 5.50075
0 0.962118 0.0942623 6.51005
0 0.962094 0.140664 8.59889
0 0.962098 0.094119 6.72586
0 0.962096 0.0933765 6.78704
0 0.962117 0.0981103 9.98438
0 0.962108 0.0971573 5.2929
0 0.962111 0.0973491 9.95937
0 0.962089 0.0963099 6.70741
0 0.962112 0.0939548 8.12877
0 0.962093 0.0943985 7.17744
0 0.96214 0.146747 13.9505
0 0.962094 0.0968672 6.0875
0 0.962114 0.0942301 7.15388
0 0.962104 0.0993624 9.89464
0 0.96211 0.098623 8.96749
0 0.962111 0.0947091 6.89429
0 0.962118 0.094795 7.32708
0 0.962114 0.0943722 7.33263
0 0.962112 0.0953221 6.40205
0 0.962115 0.0972652 7.96358
0 0.96212 0.0986103 6.15692
0 0.962093 0.0938616 6.66479
0 0.962073 0.143474 13.7692
0 0.962113 0.0976172 9.92053
0 0.962119 0.0977814 8.53454
0 0.962114 0.0996407 7.95391
0 0.96211 0.0962502 6.76112
0 0.962119 0.0998934 5.84716
0 0.962087 0.0943279 7.01225
0 0.962081 0.0935293 7.78218
0 0.962066 0.14417 15.283
0 0.962106 0.101369 5.85523
0 0.962103 0.100733 6.24521
0 0.96212 0.0964945 7.98631
0 0.962118 0.0954152 6.51498
0 0.962107 0.0947277 6.96856
0 0.962108 0.0957078 8.46559
0 0.962114 0.0957105 8.092
0 0.962108 0.0938947 8.1611
0 0.962103 0.0954504 8.45541
0 0.962106 0.0947895 7.40879
0 0.962092 0.094842 7.68091
0 0.962047 0.139709 13.495
0 0.962128 0.0957464 5.68093
0 0.962106 0.0975492 5.24906
0 0.96211 0.1014 9.17989
0 0.962085 0.0947243 8.00334
0 0.962086 0.0937948 6.90045
0 0.962079 0.144547 14.7001
0 0.962109 0.0951716 8.16829
0 0.962109 0.0950619 8.29065
0 0.962096 0.0938419 6.38078
0 0.962097 0.0944632 6.89909
0 0.962096 0.0938637 6.11186
0 0.962089 0.0944226 7.4455
0 0.962083 0.0948127 6.98331
0 0.96211 0.0940136 6.26689
0 0.962097 0.143373 15.7571
0 0.962098 0.0966397 6.14358
0 0.962071 0.0935379 8.2861
0 0.962063 0.0941935 6.58406
0 0.962067 0.0934024 7.59093
0 0.962078 0.147385 15.6873
0 0.962094 0.0945943 8.49842
0 0.962097 0.094556 5.70358
0 0.962092 0.0943645 5.50519
0 0.96208 0.0947556 8.26518
0 0.962074 0.094911 6.45221
0 0.962109 0.0937534 5.96802
0 0.96214 0.142578 16.005
0 0.962094 0.0962116 7.88483
0 0.962076 0.0936846 8.19716
0 0.962057 0.0936992 7.72321
0 0.962053 0.14357 19.4377
0 0.962101 0.0936587 6.95474
0 0.962085 0.0950032 5.38585
0 0.962097 0.0946494 8.76023
0 0.962092 0.095732 5.79781
0 0.962078 0.0958565 8.85578
0 0.962101 0.094409 6.32161
0 0.962129 0.143655 17.319
0 0.96209 0.0936898 8.37842
0 0.962074 0.093386 7.07238
0 0.962055 0.144772 14.9519
0 0.962091 0.0937236 7.86184
0 0.962087 0.0990465 5.72755
0 0.962091 0.0959944 8.49258
0 0.962101 0.096674 8.24309
0 0.962119 0.14341 13.8134
0 0.962092 0.0931299 7.94282
0 0.962089 0.146729 14.2468
0 0.96209 0.0947654 7.30872
0 0.962096 0.0939887 8.32932
0 0.962102 0.143602 16.8868
0 0.962093 0.142125 14.4182
0 0.962096 0.144472 16.8056
VECTORS fa_u float
0.00686478 0.0027607 -0
0.00661157 0.00380159 -0
0.0035838 0.000972175 -0
0.00692274 0.00104026 -0
1e-08 0 0
0.00517005 0.003987 -0
0.00287753 0.00280388 -0
1e-08 0 0
1e-08 0 0
0.00446843 0.00552555 -0
0.00483729 0.00818256 -0
0.00667665 0.000110479 -0
0.0061654 -0.000694064 0
1e-08 0 0
1e-08 0 0
1e-08 0 0
1e-08 0 0
1e-08 0 0
1e-08 0 0
1e-08 0 0
1e-08 0 0
0.00280699 0.00689768 -0
0.00162454 0.00630551 -0
1e-08 0 0
1e-08 0 0
1e-08 0 0
0.00846875 -0.00216393 0
1e-08 0 0
0.00985778 -0.00427312 0
1e-08 0 0
1e-08 0 0
1e-08 0 0
0.000855438 0.00713112 -0
1e-08 0 0
1e-08 0 0
1e-08 0 0
1e-08 0 0
1e-08 0 0
1e-08 0 0
1e-08 0 0
1e-08 0 0
1e-08 0 0
1e-08 0 0
-0.000138239 0.00753047 -0
1e-08 0 0
1e-08 0 0
1e-08 0 0
0.00555179 -0.00346258 0
1e-08 0 0
0.00322975 -0.00257862 0
1e-08 0 0
1e-08 0 0
1e-08 0 0
1e-08 0 0
1e-08 0 0
1e-08 0 0
1e-08 0 0
1e-08 0 0
1e-08 0 0
1e-08 0 0
1e-08 0 0
1e-08 0 0
1e-08 0 0
-0.000643367 0.00449482 0
1e-08 0 0
1e-08 0 0
1e-08 0 0
1e-08 0 0
1e-08 0 0
0.00344988 -0.00342301 0
1e-08 0 0
0.00299409 -0.00371559 0
1e-08 0 0
1e-08 0 0
1e-08 0 0
1e-08 0 0
1e-08 0 0
1e-08 0 0
1e-08 0 0
1e-08 0 0
1e-08 0 0
1e-08 0 0
1e-08 0 0
1e-08 0 0
1e-08 0 0
-0.00143764 0.00548822 0
1e-08 0 0
1e-08 0 0
1e-08 0 0
1e-08 0 0
1e-08 0 0
1e-08 0 0
0.00515981 -0.00855369 0
1e-08 0 0
1e-08 0 0
1e-08 0 0
1e-08 0 0
1e-08 0 0
0.00339197 -0.00834263 0
1e-08 0 0
1e-08 0 0
1e-08 0 0
1e-08 0 0
1e-08 0 0
1e-08 0 0
1e-08 0 0
1e-08 0 0
1e-08 0 0
1e-08 0 0
-0.00277602 0.00684312 0
1e-08 0 0
1e-08 0 0
1e-08 0 0
1e-08 0 0
1e-08 0 0
1e-08 0 0
1e-08 0 0
1e-08 0 0
1e-08 0 0
1e-08 0 0
1e-08 0 0
1e-08 0 0
1e-08 0 0
1e-08 0 0
0.00144305 -0.00568409 0
1e-08 0 0
1e-08 0 0
1e-08 0 0
1e-08 0 0
1e-08 0 0
1e-08 0 0
1e-08 0 0
1e-08 0 0
1e-08 0 0
-0.00364135 0.00631556 0
1e-08 0 0
1e-08 0 0
1e-08 0 0
1e-08 0 0
1e-08 0 0
1e-08 0 0
1e-08 0 0
1e-08 0 0
1e-08 0 0
1e-08 0 0
1e-08 0 0
1e-08 0 0
1e-08 0 0
1e-08 0 0
1e-08 0 0
0.00057271 -0.00421706 0
1e-08 0 0
1e-08 0 0
1e-08 0 0
1e-08 0 0
1e-08 0 0
1e-08 0 0
1e-08 0 0
1e-08 0 0
1e-08 0 0
1e-08 0 0
-0.00453827 0.00584091 0
1e-08 0 0
1e-08 0 0
1e-08 0 0
1e-08 0 0
1e-08 0 0
1e-08 0 0
1e-08 0 0
1e-08 0 0
1e-08 0 0
1e-08 0 0
1e-08 0 0
1e-08 0 0
9.34067e-05 -0.0075819 0
1e-08 0 0
1e-08 0 0
1e-08 0 0
1e-08 0 0
1e-08 0 0
1e-08 0 0
1e-08 0 0
1e-08 0 0
1e-08 0 0
1e-08 0 0
1e-08 0 0
1e-08 0 0
-0.00267096 0.00270602 0
1e-08 0 0
1e-08 0 0
1e-08 0 0
1e-08 0 0
1e-08 0 0
1e-08 0 0
1e-08 0 0
1e-08 0 0
1e-08 0 0
1e-08 0 0
1e-08 0 0
1e-08 0 0
1e-08 0 0
-0.000863623 -0.00689388 0
1e-08 0 0
1e-08 0 0
1e-08 0 0
1e-08 0 0
1e-08 0 0
1e-08 0 0
1e-08 0 0
1e-08 0 0
-0.00485979 0.00392365 0
1e-08 0 0
1e-08 0 0
1e-08 0 0
1e-08 0 0
1e-08 0 0
1e-08 0 0
1e-08 0 0
1e-08 0 0
1e-08 0 0
1e-08 0 0
1e-08 0 0
-0.00163281 -0.00623252 0
1e-08 0 0
1e-08 0 0
1e-08 0 0
1e-08 0 0
1e-08 0 0
1e-08 0 0
1e-08 0 0
-0.00805083 0.00480274 0
1e-08 0 0
1e-08 0 0
1e-08 0 0
1e-08 0 0
1e-08 0 0
1e-08 0 0
1e-08 0 0
1e-08 0 0
1e-08 0 0
1e-08 0 0
1e-08 0 0
-0.00285594 -0.00694036 0
1e-08 0 0
1e-08 0 0
1e-08 0 0
1e-08 0 0
1e-08 0 0
-0.00719726 0.00295341 0
1e-08 0 0
1e-08 0 0
1e-08 0 0
1e-08 0 0
1e-08 0 0
1e-08 0 0
1e-08 0 0
1e-08 0 0
-0.00471239 -0.00791834 0
1e-08 0 0
1e-08 0 0
1e-08 0 0
1e-08 0 0
-0.00630884 0.00163508 0
1e-08 0 0
1e-08 0 0
1e-08 0 0
1e-08 0 0
1e-08 0 0
1e-08 0 0
-0.00365366 -0.00456054 0
1e-08 0 0
1e-08 0 0
1e-08 0 0
-0.00694822 0.000848357 0
1e-08 0 0
1e-08 0 0
1e-08 0 0
1e-08 0 0
1e-08 0 0
1e-08 0 0
-0.00293801 -0.00292165 0
1e-08 0 0
1e-08 0 0
-0.00806549 -0.000142298 0
1e-08 0 0
1e-08 0 0
1e-08 0 0
1e-08 0 0
-0.00591647 -0.00460759 0
1e-08 0 0
-0.00398007 -0.000564677 0
1e-08 0 0
1e-08 0 0
-0.00642388 -0.00370419 0
-0.00575457 -0.00148885 0
-0.00695044 -0.00281146 0
