# vtk DataFile Version 2.0
CellBP Time: 10.48
ASCII
DATASET UNSTRUCTURED_GRID
POINTS 296 double
-8.92398 -3.65355 0
-8.36811 -4.80384 0
-9.31349 -2.43359 0
-9.59042 -1.20859 0
-8.08286 -2.70056 0
-7.65244 -5.86718 0
-6.80523 -6.82915 0
-7.64195 -3.72335 0
-7.08477 -4.69631 0
-5.88459 -7.69725 0
-4.85956 -8.42869 0
-9.70026 0.0379025 0
-9.64561 1.31129 0
-8.40062 -1.61219 0
-8.56002 -0.50235 0
-7.32949 -1.90716 0
-6.95488 -2.77309 0
-6.42898 -5.60821 0
-5.66156 -6.43767 0
-6.53175 -3.73326 0
-6.0007 -4.52039 0
-3.71159 -8.99165 0
-2.48485 -9.39048 0
-4.79325 -7.14454 0
-3.84907 -7.73688 0
-8.57426 0.631291 0
-9.42809 2.58823 0
-8.43254 1.72114 0
-9.01895 3.802 0
-7.50393 -0.877802 0
-7.56879 0.0910872 0
-6.72316 -1.24934 0
-1.21444 -9.62734 0
-6.22736 -2.06277 0
-6.09917 -2.93604 0
-5.35611 -5.31824 0
-4.65977 -5.96117 0
-5.46287 -3.62951 0
-5.08898 -4.41968 0
-2.81557 -8.19612 0
-1.7455 -8.4495 0
-3.84136 -6.57642 0
-3.00894 -7.01421 0
0.0555624 -9.6857 0
-7.50246 1.11642 0
-8.17721 2.85779 0
-7.36305 2.04713 0
-8.40433 4.91953 0
-7.69939 3.87075 0
-7.64666 5.95368 0
-6.57031 -0.369398 0
-6.75102 0.549268 0
-5.60778 -0.966982 0
-0.573186 -8.598 0
0.548044 -8.53163 0
-5.14858 -2.39562 0
-4.34101 -4.9531 0
-3.79075 -5.63581 0
-4.31164 -3.70004 0
-2.02312 -7.40692 0
-1.11462 -7.61058 0
-2.92341 -5.96526 0
-2.2719 -6.48569 0
1.30812 -9.56629 0
-6.51089 1.38118 0
-6.97859 3.02484 0
-6.48262 2.30219 0
-7.09809 4.84047 0
-6.53957 3.88324 0
-6.80563 6.89861 0
-6.39159 5.71984 0
-5.86367 7.75444 0
-4.36474 -1.15861 0
-5.67215 0.49262 0
-4.56864 -0.0247141 0
-0.0109041 -7.63853 0
1.67423 -8.38026 0
0.898673 -7.53338 0
-3.95652 -2.35042 0
-3.4527 -1.37897 0
-3.2173 -4.69332 0
-3.21133 -3.19992 0
-1.36291 -6.5219 0
-0.522974 -6.84625 0
-1.94268 -5.42516 0
2.55492 -9.31941 0
-5.37496 1.9909 0
-5.93597 2.97946 0
-5.93811 4.71597 0
-5.60692 3.86309 0
-5.59528 6.51389 0
-5.2988 5.44179 0
-4.838 8.50701 0
-4.6956 7.1758 0
-3.46141 -0.420573 0
-4.35727 1.22348 0
-3.65088 0.582945 0
-3.97627 2.29257 0
-3.70271 9.07456 0
2.75039 -8.04276 0
0.369492 -6.59571 0
1.93015 -7.2762 0
1.22843 -6.68227 0
-2.42596 -0.862731 0
-2.81106 -2.10408 0
-2.25927 -4.01883 0
-2.29633 -2.92186 0
-0.455252 -5.71295 0
-1.19889 -4.42147 0
3.76467 -8.92803 0
-4.67025 3.30512 0
-4.95017 4.44798 0
-4.51295 6.07952 0
-4.40931 5.1902 0
-3.74687 7.78109 0
-3.70929 6.61728 0
-2.70913 8.18375 0
-1.6322 -0.127375 0
-1.43558 -0.877768 0
-2.46959 0.516954 0
-3.20043 1.43562 0
-3.17128 3.25257 0
-2.86352 2.35882 0
-1.35029 0.639317 0
-2.48302 9.45832 0
3.78705 -7.61477 0
2.82584 -6.88233 0
0.896339 -5.64532 0
1.96925 -6.18945 0
-1.66568 -1.97362 0
-1.41263 -3.22799 0
0.0765954 -4.6428 0
-0.548541 -3.64185 0
4.76573 -7.06282 0
4.90596 -8.37208 0
-3.6814 4.43188 0
-3.62889 5.57761 0
-2.79453 7.06137 0
-2.92411 6.16172 0
-1.62008 8.49751 0
-1.87849 7.40276 0
-2.29507 3.97114 0
-0.72244 -1.31729 0
-0.829619 -0.244537 0
-1.93069 1.69009 0
-2.10012 2.85388 0
-1.29777 3.50444 0
-0.871552 1.36432 0
-0.284352 0.4691 0
-0.520501 8.65303 0
-1.22383 9.69333 0
1.06902 -4.4521 0
3.74345 -6.43482 0
2.85912 -5.86187 0
2.02914 -5.24302 0
4.61907 -5.96402 0
-0.546797 -2.45479 0
0.487409 -3.40616 0
0.0565465 -1.60313 0
1.43789 -3.59214 0
5.68434 -6.39 0
5.96685 -7.65835 0
-2.41198 5.2102 0
-2.05993 6.3502 0
-0.873142 7.60447 0
-1.22044 6.74668 0
0.0938881 7.6952 0
-1.12663 4.4115 0
0.148571 -0.609426 0
-0.807743 2.49394 0
-0.346452 3.57193 0
0.0550015 1.52053 0
0.735493 0.477903 0
0.63608 8.68284 0
0.0416404 9.80426 0
2.30368 -4.15019 0
3.72106 -5.41801 0
2.89048 -5.024 0
5.41538 -5.29783 0
4.54063 -5.07641 0
0.632112 -2.28256 0
1.238 -2.90041 0
0.754877 -1.38471 0
2.11438 -3.06374 0
2.9215 -3.37523 0
6.00433 -4.64531 0
6.48011 -5.59828 0
6.92041 -6.80074 0
-0.985005 5.68263 0
-0.345473 6.71209 0
1.10055 7.60624 0
0.561 6.92515 0
-0.00345454 4.64787 0
0.586067 3.78143 0
1.32785 -0.637925 0
0.520074 2.63817 0
0.948764 1.57642 0
1.89417 0.209806 0
1.5918 1.06314 0
2.09791 7.44175 0
1.76758 8.53472 0
1.32171 9.7336 0
3.7081 -4.20008 0
4.97618 -4.27814 0
5.70706 -3.80625 0
3.69618 -3.10477 0
1.79707 -1.876 0
2.96229 -2.52479 0
6.64058 -3.84123 0
7.22003 -4.77221 0
7.78506 -5.87158 0
0.483732 5.75793 0
1.40953 6.60946 0
2.33462 6.54709 0
1.18636 4.48436 0
1.46254 3.35274 0
2.4075 -0.687068 0
2.79452 0.139251 0
1.766 2.14605 0
2.58224 1.13953 0
3.02338 7.0331 0
2.85538 8.21509 0
2.58823 9.49024 0
4.7949 -3.21934 0
5.98921 -3.01647 0
4.09518 -2.22834 0
3.19741 -1.48378 0
6.60818 -2.27008 0
7.09847 -2.98504 0
7.80876 -3.84 0
8.52178 -4.84951 0
1.99353 5.4989 0
3.00858 6.02533 0
2.33251 4.0584 0
2.38797 3.01686 0
3.4744 -0.451648 0
3.56877 0.615682 0
2.92026 2.25733 0
3.48491 1.50497 0
3.89764 5.76894 0
3.89253 6.6495 0
3.90742 7.78592 0
3.81141 9.08608 0
5.46813 -1.87639 0
4.43595 -1.10932 0
6.58303 -1.30838 0
7.44929 -1.99373 0
8.2313 -2.8093 0
9.08952 -3.7076 0
3.32179 4.76922 0
3.26414 3.32248 0
4.61064 0.135359 0
4.42012 1.28107 0
3.96207 2.38903 0
4.41433 5.01891 0
4.70875 6.04194 0
4.86468 7.21854 0
4.95409 8.51832 0
5.76086 -0.431557 0
6.84909 -0.490405 0
7.60292 -1.06192 0
8.50709 -1.71333 0
9.49042 -2.48168 0
4.40799 3.72602 0
5.66071 1.04878 0
5.20038 2.45066 0
5.18466 4.48284 0
5.43281 5.37001 0
5.7343 6.50444 0
5.97714 7.78501 0
6.66344 0.42853 0
7.66273 -0.031458 0
8.66739 -0.565559 0
9.72963 -1.21248 0
6.75594 1.28228 0
5.51438 3.65079 0
6.32848 2.10205 0
6.15245 2.96774 0
6.06543 4.53374 0
6.48316 5.67323 0
6.91274 6.92747 0
7.57268 0.929516 0
8.63759 0.558197 0
9.7932 0.0633631 0
7.38243 1.9242 0
6.56053 3.74899 0
7.01116 2.83072 0
7.13771 4.72986 0
7.77105 5.97692 0
8.47154 1.67694 0
9.67048 1.31554 0
8.14389 2.7367 0
7.73216 3.78983 0
8.48496 4.91778 0
9.42969 2.56511 0
9.04031 3.77559 0
CELLS 542 2168
3 2 0 4
3 0 1 7
3 4 0 7
3 1 5 8
3 7 1 8
3 3 2 13
3 13 2 4
3 11 3 14
3 14 3 13
3 13 4 15
3 4 7 16
3 15 4 16
3 5 6 17
3 8 5 17
3 6 9 18
3 17 6 18
3 7 8 19
3 16 7 19
3 8 17 20
3 19 8 20
3 9 10 23
3 18 9 23
3 10 21 24
3 23 10 24
3 12 11 25
3 25 11 14
3 26 12 27
3 27 12 25
3 14 13 29
3 29 13 15
3 25 14 30
3 30 14 29
3 29 15 31
3 15 16 33
3 31 15 33
3 16 19 34
3 33 16 34
3 17 18 35
3 20 17 35
3 18 23 36
3 35 18 36
3 19 20 37
3 34 19 37
3 20 35 38
3 37 20 38
3 21 22 39
3 24 21 39
3 22 32 40
3 39 22 40
3 23 24 41
3 36 23 41
3 24 39 42
3 41 24 42
3 27 25 44
3 44 25 30
3 28 26 45
3 45 26 27
3 45 27 46
3 46 27 44
3 47 28 48
3 48 28 45
3 30 29 50
3 50 29 31
3 44 30 51
3 51 30 50
3 50 31 52
3 31 33 52
3 32 43 53
3 40 32 53
3 53 43 54
3 33 34 55
3 34 37 55
3 33 55 52
3 35 36 56
3 38 35 56
3 36 41 57
3 56 36 57
3 37 38 58
3 38 56 58
3 37 58 55
3 39 40 59
3 42 39 59
3 40 53 60
3 59 40 60
3 41 42 61
3 57 41 61
3 42 59 62
3 61 42 62
3 43 63 54
3 46 44 64
3 64 44 51
3 48 45 65
3 65 45 46
3 65 46 66
3 66 46 64
3 49 47 67
3 67 47 48
3 67 48 68
3 68 48 65
3 69 49 70
3 70 49 67
3 52 55 72
3 64 51 73
3 51 50 73
3 50 52 73
3 73 52 74
3 74 52 72
3 53 54 75
3 60 53 75
3 54 63 76
3 54 76 77
3 75 54 77
3 55 58 78
3 72 55 78
3 72 78 79
3 56 57 80
3 57 61 80
3 56 80 58
3 58 80 81
3 78 58 81
3 59 60 82
3 62 59 82
3 60 75 83
3 82 60 83
3 61 62 84
3 62 82 84
3 61 84 80
3 63 85 76
3 66 64 86
3 64 73 86
3 68 65 87
3 87 65 66
3 87 66 86
3 70 67 88
3 88 67 68
3 88 68 89
3 89 68 87
3 71 69 90
3 90 69 70
3 90 70 91
3 91 70 88
3 92 71 93
3 93 71 90
3 74 72 94
3 94 72 79
3 86 73 95
3 95 73 74
3 95 74 96
3 96 74 94
3 97 86 95
3 76 85 99
3 75 77 100
3 83 75 100
3 76 99 101
3 77 76 101
3 77 101 102
3 100 77 102
3 94 79 103
3 78 81 104
3 79 78 104
3 79 104 103
3 80 84 105
3 81 80 105
3 81 105 106
3 104 81 106
3 82 83 107
3 83 100 107
3 82 107 84
3 84 107 108
3 105 84 108
3 85 109 99
3 89 87 110
3 87 86 110
3 110 86 97
3 91 88 111
3 111 88 89
3 111 89 110
3 93 90 112
3 112 90 91
3 112 91 113
3 113 91 111
3 98 92 114
3 114 92 93
3 114 93 115
3 115 93 112
3 116 98 114
3 117 103 118
3 96 94 119
3 94 103 119
3 119 103 117
3 97 95 120
3 120 95 96
3 120 96 119
3 121 110 97
3 121 97 122
3 122 97 120
3 123 119 117
3 124 98 116
3 99 109 125
3 99 125 126
3 101 99 126
3 100 102 127
3 100 127 107
3 101 126 128
3 102 101 128
3 102 128 127
3 104 106 129
3 104 129 103
3 103 129 118
3 105 108 130
3 106 105 130
3 106 130 129
3 107 127 131
3 108 107 131
3 108 131 132
3 108 132 130
3 109 134 125
3 125 134 133
3 113 111 135
3 111 110 135
3 135 110 121
3 115 112 136
3 136 112 113
3 136 113 135
3 116 114 137
3 137 114 115
3 137 115 138
3 138 115 136
3 139 124 116
3 139 116 140
3 140 116 137
3 141 135 121
3 118 129 142
3 118 142 143
3 117 118 143
3 123 117 143
3 122 120 144
3 120 119 144
3 144 119 123
3 141 121 145
3 145 121 122
3 145 122 144
3 146 141 145
3 147 144 123
3 147 123 148
3 143 148 123
3 150 124 139
3 149 150 139
3 131 127 151
3 125 133 152
3 126 125 152
3 126 152 153
3 128 126 153
3 128 153 154
3 128 154 127
3 127 154 151
3 152 133 155
3 130 132 156
3 130 156 129
3 129 156 142
3 131 151 157
3 132 131 157
3 132 157 156
3 156 158 142
3 157 151 159
3 133 160 155
3 134 161 133
3 133 161 160
3 138 136 162
3 136 135 162
3 162 135 141
3 140 137 163
3 163 137 138
3 163 138 162
3 149 139 164
3 164 139 140
3 164 140 165
3 165 140 163
3 166 149 164
3 167 162 141
3 167 141 146
3 142 158 168
3 143 142 168
3 143 168 148
3 146 145 169
3 145 144 169
3 169 144 147
3 170 167 146
3 170 146 169
3 171 169 147
3 171 147 148
3 171 148 172
3 168 172 148
3 173 149 166
3 174 150 149
3 173 174 149
3 154 175 151
3 151 175 159
3 152 155 176
3 153 152 176
3 153 176 177
3 153 177 154
3 154 177 175
3 155 160 178
3 155 178 179
3 176 155 179
3 156 157 180
3 156 180 158
3 157 159 181
3 157 181 180
3 158 180 182
3 158 182 168
3 159 175 183
3 159 183 181
3 175 184 183
3 160 186 178
3 178 186 185
3 161 187 160
3 160 187 186
3 165 163 188
3 163 162 188
3 188 162 167
3 166 164 189
3 189 164 165
3 189 165 188
3 190 173 166
3 190 166 191
3 191 166 189
3 192 188 167
3 192 167 170
3 193 192 170
3 182 194 168
3 194 172 168
3 193 170 195
3 170 169 195
3 195 169 171
3 196 195 171
3 196 171 172
3 194 197 172
3 197 198 172
3 198 196 172
3 200 173 190
3 199 200 190
3 201 174 173
3 200 201 173
3 176 179 202
3 177 176 202
3 177 202 175
3 175 202 184
3 178 185 203
3 178 203 179
3 179 203 202
3 203 185 204
3 202 205 184
3 183 206 181
3 180 181 206
3 180 206 182
3 182 206 194
3 183 184 207
3 205 207 184
3 183 207 206
3 185 208 204
3 186 209 185
3 185 209 208
3 187 210 186
3 186 210 209
3 191 189 211
3 189 188 211
3 211 188 192
3 199 190 212
3 212 190 191
3 212 191 211
3 213 199 212
3 214 211 192
3 214 192 193
3 215 214 193
3 215 193 195
3 206 216 194
3 216 197 194
3 216 217 197
3 215 195 218
3 218 195 196
3 198 218 196
3 217 219 197
3 219 218 198
3 197 219 198
3 220 199 213
3 221 200 199
3 220 221 199
3 222 201 200
3 221 222 200
3 203 204 223
3 203 223 202
3 202 223 205
3 204 208 224
3 204 224 223
3 205 223 225
3 205 225 207
3 207 225 226
3 207 226 206
3 226 216 206
3 208 228 224
3 224 228 227
3 209 229 208
3 229 228 208
3 210 230 209
3 209 230 229
3 213 212 231
3 212 211 231
3 231 211 214
3 232 220 213
3 232 213 231
3 233 231 214
3 233 214 215
3 234 233 215
3 234 215 218
3 226 235 216
3 235 217 216
3 235 236 217
3 217 236 219
3 237 234 218
3 237 218 219
3 236 238 219
3 238 237 219
3 240 220 232
3 239 240 232
3 241 221 220
3 240 241 220
3 242 222 221
3 241 242 221
3 224 227 243
3 224 243 223
3 223 243 225
3 225 243 244
3 225 244 226
3 226 244 235
3 227 245 243
3 228 246 227
3 227 246 245
3 229 247 228
3 228 247 246
3 230 248 229
3 229 248 247
3 239 232 249
3 232 231 249
3 249 231 233
3 250 249 233
3 250 233 234
3 237 250 234
3 244 251 235
3 235 251 236
3 251 252 236
3 236 252 238
3 252 253 238
3 253 250 237
3 253 237 238
3 254 239 249
3 255 240 239
3 254 255 239
3 256 241 240
3 255 256 240
3 257 242 241
3 256 257 241
3 245 258 243
3 243 258 244
3 244 258 251
3 245 259 258
3 246 260 245
3 245 260 259
3 247 261 246
3 246 261 260
3 248 262 247
3 247 262 261
3 254 249 263
3 263 249 250
3 253 263 250
3 258 264 251
3 251 264 252
3 264 265 252
3 265 263 253
3 252 265 253
3 266 254 263
3 267 255 254
3 266 267 254
3 268 256 255
3 267 268 255
3 269 257 256
3 268 269 256
3 259 270 258
3 270 264 258
3 260 271 259
3 259 271 270
3 261 272 260
3 260 272 271
3 262 273 261
3 273 272 261
3 270 274 264
3 275 266 263
3 275 263 265
3 274 276 264
3 276 265 264
3 276 277 265
3 277 275 265
3 278 267 266
3 275 278 266
3 279 268 267
3 278 279 267
3 280 269 268
3 279 280 268
3 271 281 270
3 270 281 274
3 272 282 271
3 271 282 281
3 273 283 272
3 272 283 282
3 281 284 274
3 274 284 276
3 285 278 275
3 277 285 275
3 284 286 276
3 286 285 277
3 276 286 277
3 287 279 278
3 285 287 278
3 288 280 279
3 287 288 279
3 282 289 281
3 281 289 284
3 283 290 282
3 282 290 289
3 289 291 284
3 284 291 286
3 291 292 286
3 292 287 285
3 286 292 285
3 293 288 287
3 292 293 287
3 290 294 289
3 289 294 291
3 294 295 291
3 295 293 292
3 291 295 292
CELL_TYPES 542
5
5
5
5
5
5
5
5
5
5
5
5
5
5
5
5
5
5
5
5
5
5
5
5
5
5
5
5
5
5
5
5
5
5
5
5
5
5
5
5
5
5
5
5
5
5
5
5
5
5
5
5
5
5
5
5
5
5
5
5
5
5
5
5
5
5
5
5
5
5
5
5
5
5
5
5
5
5
5
5
5
5
5
5
5
5
5
5
5
5
5
5
5
5
5
5
5
5
5
5
5
5
5
5
5
5
5
5
5
5
5
5
5
5
5
5
5
5
5
5
5
5
5
5
5
5
5
5
5
5
5
5
5
5
5
5
5
5
5
5
5
5
5
5
5
5
5
5
5
5
5
5
5
5
5
5
5
5
5
5
5
5
5
5
5
5
5
5
5
5
5
5
5
5
5
5
5
5
5
5
5
5
5
5
5
5
5
5
5
5
5
5
5
5
5
5
5
5
5
5
5
5
5
5
5
5
5
5
5
5
5
5
5
5
5
5
5
5
5
5
5
5
5
5
5
5
5
5
5
5
5
5
5
5
5
5
5
5
5
5
5
5
5
5
5
5
5
5
5
5
5
5
5
5
5
5
5
5
5
5
5
5
5
5
5
5
5
5
5
5
5
5
5
5
5
5
5
5
5
5
5
5
5
5
5
5
5
5
5
5
5
5
5
5
5
5
5
5
5
5
5
5
5
5
5
5
5
5
5
5
5
5
5
5
5
5
5
5
5
5
5
5
5
5
5
5
5
5
5
5
5
5
5
5
5
5
5
5
5
5
5
5
5
5
5
5
5
5
5
5
5
5
5
5
5
5
5
5
5
5
5
5
5
5
5
5
5
5
5
5
5
5
5
5
5
5
5
5
5
5
5
5
5
5
5
5
5
5
5
5
5
5
5
5
5
5
5
5
5
5
5
5
5
5
5
5
5
5
5
5
5
5
5
5
5
5
5
5
5
5
5
5
5
5
5
5
5
5
5
5
5
5
5
5
5
5
5
5
5
5
5
5
5
5
5
5
5
5
5
5
5
5
5
5
5
5
5
5
5
5
5
5
5
5
5
5
5
5
5
5
5
5
5
5
5
5
5
5
5
5
5
5
5
5
5
5
5
5
5
5
5
5
5
5
5
5
5
5
5
5
5
5
5
5
5
5
5
5
5
5
5
5
5
5
5
5
5
5
5
5
5
5
5
5
5
5
5
5
5
5
5
5
5
5
5
5
5
5
5
5
5
5
POINT_DATA 296
SCALARS concentrations float 4
LOOKUP_TABLE default
0 0.949385 0.109184 9.22545
0 0.949413 0.107288 10.0785
0 0.949382 0.106025 8.99788
0 0.949435 0.111089 8.58264
0 0.949382 0.0944368 6.64277
0 0.949408 0.10919 11.7767
0 0.949419 0.112033 7.35083
0 0.949402 0.0937876 6.84545
0 0.949406 0.094085 6.91336
0 0.949397 0.111399 9.7713
0 0.949417 0.110754 10.7683
0 0.949449 0.108704 7.23139
0 0.949445 0.110476 10.3327
0 0.949407 0.0935451 7.61641
0 0.94943 0.0931714 6.96343
0 0.949397 0.0943803 7.26414
0 0.949405 0.095269 6.52803
0 0.949425 0.094086 7.99937
0 0.949414 0.0939984 8.21204
0 0.949412 0.094879 6.22191
0 0.949417 0.0944084 7.58578
0 0.94939 0.109934 9.51662
0 0.949449 0.107961 6.96907
0 0.949412 0.0942885 8.51305
0 0.949398 0.0946942 8.16912
0 0.94943 0.0929573 6.52136
0 0.94941 0.105072 11.0486
0 0.949415 0.0932926 6.37809
0 0.949365 0.111168 11.79
0 0.9494 0.0934594 7.13275
0 0.94941 0.093173 6.92553
0 0.949393 0.0943373 7.13384
0 0.949441 0.109695 5.45128
0 0.949403 0.0938468 7.76386
0 0.949412 0.0942554 8.12206
0 0.949421 0.0948689 8.53553
0 0.94942 0.0942029 6.30346
0 0.949404 0.0952859 8.57148
0 0.94941 0.0964898 8.83072
0 0.949403 0.0940006 7.7331
0 0.949447 0.094003 6.98548
0 0.949403 0.0944147 6.17329
0 0.949403 0.0961654 9.09267
0 0.949386 0.108351 12.7478
0 0.949406 0.0942271 6.78271
0 0.949385 0.0937798 7.21203
0 0.94939 0.095277 6.54473
0 0.949382 0.106158 9.93366
0 0.949368 0.0931244 7.34054
0 0.949449 0.108538 7.72503
0 0.949402 0.0939345 7.30947
0 0.949411 0.0939016 7.37491
0 0.949398 0.0954445 5.62298
0 0.9494 0.0937344 6.18845
0 0.94941 0.0934036 6.31284
0 0.949398 0.0964678 6.22072
0 0.949422 0.0943558 6.66554
0 0.949412 0.094759 6.11159
0 0.949408 0.0937611 7.18295
0 0.949419 0.0941721 6.32192
0 0.949409 0.094667 5.98903
0 0.949415 0.0977105 6.36782
0 0.949411 0.0984657 9.88967
0 0.949432 0.109443 7.05009
0 0.949404 0.0944172 7.33974
0 0.94938 0.0934953 6.70685
0 0.94939 0.0936435 6.55372
0 0.949408 0.0928544 6.75253
0 0.949386 0.0931353 6.76274
0 0.949473 0.107439 8.3038
0 0.949439 0.0932282 6.60997
0 0.949402 0.107342 6.78417
0 0.949404 0.096391 8.24612
0 0.9494 0.0955567 7.48631
0 0.949397 0.0960087 7.48255
0 0.949406 0.0938816 6.29435
0 0.949422 0.0929915 6.95854
0 0.949415 0.093752 6.42244
0 0.949386 0.0963241 7.57805
0 0.94941 0.102996 3.42853
0 0.949433 0.0964747 7.29315
0 0.949396 0.100029 11.0967
0 0.949408 0.0957604 6.4896
0 0.949413 0.0956506 7.12183
0 0.949425 0.0976502 4.12401
0 0.949411 0.104976 6.95283
0 0.949402 0.0932096 7.10335
0 0.94939 0.0936656 7.48537
0 0.949398 0.093337 6.95501
0 0.949388 0.093364 7.18185
0 0.94943 0.0937692 6.58696
0 0.949404 0.093922 6.44889
0 0.949356 0.109547 8.63728
0 0.949371 0.0945366 7.249
0 0.949418 0.097883 6.24004
0 0.949405 0.0945988 6.88148
0 0.9494 0.0945775 7.95992
0 0.94941 0.0945946 7.88802
0 0.949417 0.106228 9.11958
0 0.949401 0.0930634 6.88985
0 0.949414 0.0949588 6.13167
0 0.94941 0.0943391 6.88046
0 0.949409 0.0945611 7.89569
0 0.949429 0.097145 5.22212
0 0.949392 0.0988319 5.49676
0 0.949421 0.0962394 7.94662
0 0.949395 0.0968701 9.11078
0 0.949419 0.095412 6.13261
0 0.949427 0.095831 6.49547
0 0.949384 0.106534 6.88903
0 0.949396 0.0939837 6.61868
0 0.949395 0.094441 7.92893
0 0.949386 0.0943218 7.89483
0 0.949391 0.0939871 6.38031
0 0.949377 0.0953208 6.63108
0 0.949381 0.0973961 10.4543
0 0.949419 0.0948171 5.89073
0 0.949411 0.0953005 7.24253
0 0.94942 0.0952126 8.89345
0 0.949407 0.0975514 8.2136
0 0.949409 0.0951107 8.12211
0 0.949401 0.0950163 7.86313
0 0.949415 0.0964284 6.88747
0 0.949405 0.09577 9.33474
0 0.949425 0.106683 8.74477
0 0.949397 0.094237 7.14665
0 0.949412 0.0947547 7.00353
0 0.949414 0.0946183 6.17173
0 0.949409 0.0941962 6.77999
0 0.949418 0.0975191 9.1811
0 0.949419 0.0939625 7.84411
0 0.949422 0.0939663 8.00562
0 0.949423 0.0944546 8.0154
0 0.949426 0.0936345 6.86238
0 0.949409 0.106257 8.17947
0 0.949391 0.0949047 7.91233
0 0.94938 0.0946323 7.26054
0 0.949397 0.0979734 9.81341
0 0.949384 0.0982062 6.98474
0 0.949386 0.0941563 6.92371
0 0.949406 0.0952871 8.73723
0 0.949389 0.0959023 6.44911
0 0.949412 0.0951028 6.55859
0 0.949398 0.094221 7.46698
0 0.949417 0.099697 6.19745
0 0.949423 0.0972358 6.19831
0 0.949395 0.101746 8.74544
0 0.949421 0.0973354 9.76852
0 0.949409 0.095277 6.1359
0 0.949374 0.0942723 6.5419
0 0.949363 0.105219 12.6238
0 0.949413 0.0935853 6.64887
0 0.949417 0.0946543 6.92081
0 0.949412 0.0941985 7.17294
0 0.949408 0.0939622 6.65525
0 0.949419 0.0939032 7.09041
0 0.949412 0.0959568 4.57038
0 0.949412 0.0949818 7.47117
0 0.949408 0.0959413 5.38224
0 0.949411 0.0941644 8.05046
0 0.949424 0.093077 7.22987
0 0.949447 0.10731 8.08293
0 0.949375 0.095869 5.97455
0 0.949395 0.0961638 5.48011
0 0.949396 0.094479 7.93087
0 0.94941 0.0957309 6.24373
0 0.949385 0.0943822 7.55571
0 0.949374 0.0971939 2.73939
0 0.949414 0.0942285 6.92348
0 0.949419 0.0992263 8.44071
0 0.949403 0.0998168 6.13914
0 0.949407 0.0959168 6.94172
0 0.949413 0.0954407 7.8802
0 0.949392 0.0941067 6.8768
0 0.949393 0.107339 10.8878
0 0.949405 0.0942246 6.74637
0 0.949413 0.0936372 6.82807
0 0.949401 0.0934359 7.07251
0 0.949411 0.093037 7.14021
0 0.949414 0.0936008 7.11543
0 0.949403 0.096409 9.0393
0 0.949413 0.0952856 8.47743
0 0.949413 0.0954032 6.89393
0 0.949406 0.0949417 6.10402
0 0.949403 0.0931223 6.63271
0 0.949405 0.0929491 7.05184
0 0.949393 0.0927254 7.13602
0 0.949409 0.107281 10.2499
0 0.949398 0.0957713 8.56223
0 0.949411 0.0961938 7.96727
0 0.94938 0.096184 6.1749
0 0.94941 0.097934 9.36621
0 0.949418 0.0960879 10.7284
0 0.949428 0.0964498 5.13569
0 0.949424 0.0945334 7.27737
0 0.949415 0.0976739 4.90553
0 0.949398 0.0962385 8.94372
0 0.949425 0.0954912 7.35306
0 0.949417 0.0948041 7.30904
0 0.949409 0.095285 7.58931
0 0.949392 0.0940614 7.31094
0 0.949397 0.109636 12.7742
0 0.949408 0.0932489 6.66806
0 0.94941 0.0940494 6.68212
0 0.94941 0.0945538 6.7375
0 0.949413 0.0928402 6.79924
0 0.949416 0.0953559 7.13383
0 0.949408 0.0936891 7.96769
0 0.94941 0.0934036 7.11298
0 0.949398 0.0930417 7.15286
0 0.949381 0.108317 13.3801
0 0.949433 0.0958306 10.0791
0 0.949423 0.0997833 8.70795
0 0.949432 0.0957307 8.14268
0 0.949443 0.0947008 8.21519
0 0.949435 0.0956707 9.38959
0 0.949428 0.0940098 6.20061
0 0.949426 0.0956338 7.45048
0 0.949417 0.0946247 7.80479
0 0.949418 0.0974443 6.54073
0 0.949423 0.0976206 5.04967
0 0.949414 0.0947501 6.43363
0 0.949401 0.107879 6.29341
0 0.949411 0.0931943 6.9342
0 0.949411 0.0944789 7.4864
0 0.94941 0.0950573 6.5139
0 0.949414 0.0941263 6.35842
0 0.949418 0.0941028 7.72399
0 0.94942 0.0943099 7.50401
0 0.949413 0.0935245 7.37598
0 0.949411 0.107168 6.18103
0 0.949451 0.0986247 5.47008
0 0.94944 0.0982317 5.71722
0 0.949456 0.0951803 6.02067
0 0.949441 0.0957066 6.1067
0 0.949425 0.0942659 6.54315
0 0.949417 0.0956571 7.33354
0 0.949422 0.0984676 4.88842
0 0.949415 0.100501 10.291
0 0.949425 0.0951005 5.97578
0 0.949414 0.0941269 8.21713
0 0.949411 0.0959901 6.30388
0 0.949411 0.107096 8.87467
0 0.949411 0.0942599 7.73416
0 0.949411 0.0947121 6.35997
0 0.949418 0.0947187 7.64454
0 0.949422 0.0946745 6.79609
0 0.949418 0.0935745 7.51538
0 0.949412 0.107798 11.6119
0 0.949446 0.0964792 8.4725
0 0.949438 0.0945584 6.77861
0 0.949413 0.0942032 6.84535
0 0.949406 0.0942871 7.02999
0 0.949425 0.0955567 7.06635
0 0.949408 0.0962375 5.61029
0 0.949387 0.0955369 5.97883
0 0.949403 0.0948206 5.98906
0 0.949411 0.108832 9.43235
0 0.949413 0.0962556 6.58237
0 0.949414 0.0948812 6.81254
0 0.949411 0.0951338 6.85515
0 0.949418 0.094624 6.92062
0 0.949422 0.108629 7.09807
0 0.949428 0.0938289 7.31435
0 0.949402 0.0945871 7.06641
0 0.94942 0.0971966 6.61059
0 0.949394 0.0962818 8.07705
0 0.94937 0.0945811 6.73652
0 0.949347 0.0934884 6.6027
0 0.949369 0.109798 11.4201
0 0.949413 0.0941897 7.52533
0 0.949415 0.0939203 6.98402
0 0.949415 0.0934191 7.03722
0 0.949412 0.107847 10.5337
0 0.949407 0.0946284 6.58485
0 0.949424 0.09589 6.02873
0 0.949407 0.0943349 6.45074
0 0.949434 0.0950302 7.17197
0 0.949378 0.0948371 8.48703
0 0.949328 0.0940077 6.07962
0 0.949297 0.107955 13.299
0 0.949415 0.0933579 7.06434
0 0.949405 0.0934018 7.0356
0 0.949407 0.109517 10.395
0 0.949417 0.0931174 7.62276
0 0.949418 0.0969976 5.87651
0 0.949428 0.0949463 8.4298
0 0.949366 0.0955566 7.94164
0 0.94932 0.106388 11.2175
0 0.949408 0.0940477 7.71012
0 0.949391 0.108793 12.8704
0 0.949425 0.0943794 7.42616
0 0.949413 0.0954558 7.80857
0 0.949386 0.107976 9.06273
0 0.94942 0.10666 9.32784
0 0.949423 0.106369 9.16821
VECTORS fa_u float
0.00719849 0.00287116 -0
0.00682709 0.00392158 -0
0.0028565 0.000778622 -0
0.00709515 0.00111032 -0
1e-08 0 0
0.00517237 0.00399137 -0
0.00242276 0.00234038 -0
1e-08 0 0
1e-08 0 0
0.00465224 0.00565898 -0
0.00538303 0.00903695 -0
0.00674574 0.000147726 -0
0.00610627 -0.000651663 0
1e-08 0 0
1e-08 0 0
1e-08 0 0
1e-08 0 0
1e-08 0 0
1e-08 0 0
1e-08 0 0
1e-08 0 0
0.00291803 0.00720476 -0
0.0016091 0.0063209 -0
1e-08 0 0
1e-08 0 0
1e-08 0 0
0.00916085 -0.00230487 0
1e-08 0 0
0.0112366 -0.00493438 0
1e-08 0 0
1e-08 0 0
1e-08 0 0
0.000859122 0.00739273 -0
1e-08 0 0
1e-08 0 0
1e-08 0 0
1e-08 0 0
1e-08 0 0
1e-08 0 0
1e-08 0 0
1e-08 0 0
1e-08 0 0
1e-08 0 0
-0.000189312 0.00782184 -0
1e-08 0 0
1e-08 0 0
1e-08 0 0
0.00550773 -0.00351269 0
1e-08 0 0
0.00275034 -0.00222173 0
1e-08 0 0
1e-08 0 0
1e-08 0 0
1e-08 0 0
1e-08 0 0
1e-08 0 0
1e-08 0 0
1e-08 0 0
1e-08 0 0
1e-08 0 0
1e-08 0 0
1e-08 0 0
1e-08 0 0
-0.000576995 0.00393708 0
1e-08 0 0
1e-08 0 0
1e-08 0 0
1e-08 0 0
1e-08 0 0
0.00313784 -0.00310688 0
1e-08 0 0
0.00271042 -0.00331578 0
1e-08 0 0
1e-08 0 0
1e-08 0 0
1e-08 0 0
1e-08 0 0
1e-08 0 0
1e-08 0 0
1e-08 0 0
1e-08 0 0
1e-08 0 0
1e-08 0 0
1e-08 0 0
1e-08 0 0
-0.00135982 0.00523371 0
1e-08 0 0
1e-08 0 0
1e-08 0 0
1e-08 0 0
1e-08 0 0
1e-08 0 0
0.00585313 -0.00958118 0
1e-08 0 0
1e-08 0 0
1e-08 0 0
1e-08 0 0
1e-08 0 0
0.00368575 -0.00912412 0
1e-08 0 0
1e-08 0 0
1e-08 0 0
1e-08 0 0
1e-08 0 0
1e-08 0 0
1e-08 0 0
1e-08 0 0
1e-08 0 0
1e-08 0 0
-0.00288707 0.00716498 0
1e-08 0 0
1e-08 0 0
1e-08 0 0
1e-08 0 0
1e-08 0 0
1e-08 0 0
1e-08 0 0
1e-08 0 0
1e-08 0 0
1e-08 0 0
1e-08 0 0
1e-08 0 0
1e-08 0 0
1e-08 0 0
0.00136547 -0.0054703 0
1e-08 0 0
1e-08 0 0
1e-08 0 0
1e-08 0 0
1e-08 0 0
1e-08 0 0
1e-08 0 0
1e-08 0 0
1e-08 0 0
-0.00376775 0.00653497 0
1e-08 0 0
1e-08 0 0
1e-08 0 0
1e-08 0 0
1e-08 0 0
1e-08 0 0
1e-08 0 0
1e-08 0 0
1e-08 0 0
1e-08 0 0
1e-08 0 0
1e-08 0 0
1e-08 0 0
1e-08 0 0
1e-08 0 0
0.00050051 -0.00365269 0
1e-08 0 0
1e-08 0 0
1e-08 0 0
1e-08 0 0
1e-08 0 0
1e-08 0 0
1e-08 0 0
1e-08 0 0
1e-08 0 0
1e-08 0 0
-0.00470532 0.00603219 0
1e-08 0 0
1e-08 0 0
1e-08 0 0
1e-08 0 0
1e-08 0 0
1e-08 0 0
1e-08 0 0
1e-08 0 0
1e-08 0 0
1e-08 0 0
1e-08 0 0
1e-08 0 0
0.000125446 -0.00793023 0
1e-08 0 0
1e-08 0 0
1e-08 0 0
1e-08 0 0
1e-08 0 0
1e-08 0 0
1e-08 0 0
1e-08 0 0
1e-08 0 0
1e-08 0 0
1e-08 0 0
1e-08 0 0
-0.00216602 0.00220412 0
1e-08 0 0
1e-08 0 0
1e-08 0 0
1e-08 0 0
1e-08 0 0
1e-08 0 0
1e-08 0 0
1e-08 0 0
1e-08 0 0
1e-08 0 0
1e-08 0 0
1e-08 0 0
1e-08 0 0
-0.000860007 -0.0069744 0
1e-08 0 0
1e-08 0 0
1e-08 0 0
1e-08 0 0
1e-08 0 0
1e-08 0 0
1e-08 0 0
1e-08 0 0
-0.00475153 0.00389958 0
1e-08 0 0
1e-08 0 0
1e-08 0 0
1e-08 0 0
1e-08 0 0
1e-08 0 0
1e-08 0 0
1e-08 0 0
1e-08 0 0
1e-08 0 0
1e-08 0 0
-0.00162657 -0.00625414 0
1e-08 0 0
1e-08 0 0
1e-08 0 0
1e-08 0 0
1e-08 0 0
1e-08 0 0
1e-08 0 0
-0.0089446 0.00539187 0
1e-08 0 0
1e-08 0 0
1e-08 0 0
1e-08 0 0
1e-08 0 0
1e-08 0 0
1e-08 0 0
1e-08 0 0
1e-08 0 0
1e-08 0 0
1e-08 0 0
-0.00297614 -0.00724453 0
1e-08 0 0
1e-08 0 0
1e-08 0 0
1e-08 0 0
1e-08 0 0
-0.00758747 0.00310391 0
1e-08 0 0
1e-08 0 0
1e-08 0 0
1e-08 0 0
1e-08 0 0
1e-08 0 0
1e-08 0 0
1e-08 0 0
-0.00522246 -0.00869325 0
1e-08 0 0
1e-08 0 0
1e-08 0 0
1e-08 0 0
-0.00629771 0.00161564 0
1e-08 0 0
1e-08 0 0
1e-08 0 0
1e-08 0 0
1e-08 0 0
1e-08 0 0
-0.00358067 -0.00440851 0
1e-08 0 0
1e-08 0 0
1e-08 0 0
-0.00717381 0.000853446 0
1e-08 0 0
1e-08 0 0
1e-08 0 0
1e-08 0 0
1e-08 0 0
1e-08 0 0
-0.00247879 -0.00245934 0
1e-08 0 0
1e-08 0 0
-0.00853658 -0.00019972 0
1e-08 0 0
1e-08 0 0
1e-08 0 0
1e-08 0 0
-0.00612666 -0.00479303 0
1e-08 0 0
-0.0033524 -0.00048711 0
1e-08 0 0
1e-08 0 0
-0.00669004 -0.00385737 0
-0.00554508 -0.00142045 0
-0.00726215 -0.00291615 0
