# vtk DataFile Version 2.0
CellBP Time: 3.72
ASCII
DATASET UNSTRUCTURED_GRID
POINTS 296 double
-9.0505 -3.71224 0
-8.4842 -4.87368 0
-9.45416 -2.48319 0
-9.7208 -1.23121 0
-8.20993 -2.7535 0
-7.76314 -5.94864 0
-6.90836 -6.9206 0
-7.76977 -3.79318 0
-7.20248 -4.77587 0
-5.95875 -7.78664 0
-4.90381 -8.5156 0
-9.81968 0.0426584 0
-9.75019 1.33134 0
-8.52298 -1.64716 0
-8.66475 -0.515382 0
-7.44801 -1.95266 0
-7.07933 -2.83455 0
-6.52729 -5.68906 0
-5.73738 -6.51226 0
-6.64964 -3.80403 0
-6.09968 -4.58962 0
-3.7438 -9.08611 0
-2.51058 -9.49551 0
-4.8504 -7.22411 0
-3.87884 -7.80768 0
-8.67987 0.633517 0
-9.51556 2.61169 0
-8.52264 1.74662 0
-9.10061 3.83777 0
-7.61503 -0.902171 0
-7.67544 0.0855454 0
-6.82763 -1.28008 0
-1.2338 -9.74083 0
-6.32634 -2.10442 0
-6.20074 -2.99148 0
-5.44166 -5.39236 0
-4.72413 -6.03388 0
-5.55585 -3.68803 0
-5.17178 -4.48338 0
-2.83961 -8.27632 0
-1.76112 -8.53927 0
-3.88299 -6.64796 0
-3.03144 -7.0786 0
0.0531335 -9.81179 0
-7.59657 1.12756 0
-8.25417 2.88665 0
-7.44975 2.07647 0
-8.50211 4.9813 0
-7.78129 3.92238 0
-7.758 6.04017 0
-6.66657 -0.380958 0
-6.84563 0.548949 0
-5.68317 -0.985718 0
-0.585223 -8.7017 0
0.552606 -8.64575 0
-5.21921 -2.43635 0
-4.41236 -5.01914 0
-3.84355 -5.70062 0
-4.37098 -3.7505 0
-2.04134 -7.4802 0
-1.12357 -7.69441 0
-2.95653 -6.02813 0
-2.28668 -6.54806 0
1.33029 -9.70812 0
-6.59355 1.39879 0
-7.06688 3.06672 0
-6.56637 2.33402 0
-7.19166 4.90935 0
-6.62136 3.93797 0
-6.90704 7.00344 0
-6.47653 5.80098 0
-5.94567 7.86239 0
-4.40648 -1.16935 0
-5.73945 0.501513 0
-4.60986 -0.0191795 0
-0.0027609 -7.73804 0
1.7015 -8.50297 0
0.921148 -7.64141 0
-3.99503 -2.37632 0
-3.46817 -1.38464 0
-3.25381 -4.74593 0
-3.23843 -3.23353 0
-1.37017 -6.59257 0
-0.515895 -6.92758 0
-1.95918 -5.47639 0
2.59417 -9.45718 0
-5.43623 2.01048 0
-6.00876 3.02233 0
-6.01568 4.78714 0
-5.6779 3.92315 0
-5.67154 6.60958 0
-5.36972 5.52393 0
-4.89128 8.60362 0
-4.76107 7.27986 0
-3.47852 -0.421253 0
-4.40134 1.2339 0
-3.67948 0.588065 0
-4.01573 2.30514 0
-3.73802 9.17696 0
2.80115 -8.17726 0
0.39378 -6.68769 0
1.97186 -7.38882 0
1.26382 -6.78395 0
-2.43425 -0.867586 0
-2.82439 -2.11766 0
-2.27793 -4.05689 0
-2.31189 -2.94928 0
-0.44996 -5.78145 0
-1.21151 -4.45776 0
3.81761 -9.05167 0
-4.72813 3.34527 0
-5.01313 4.5146 0
-4.57359 6.17008 0
-4.47124 5.26803 0
-3.79163 7.87708 0
-3.76319 6.72149 0
-2.74298 8.29207 0
-1.64182 -0.131509 0
-1.44265 -0.883577 0
-2.47809 0.513446 0
-3.22562 1.43956 0
-3.20351 3.28376 0
-2.88493 2.36502 0
-1.35156 0.633301 0
-2.50906 9.57784 0
3.85538 -7.7394 0
2.89114 -7.00952 0
0.923244 -5.72633 0
2.01632 -6.29221 0
-1.67409 -1.98385 0
-1.42306 -3.25307 0
0.0835428 -4.68927 0
-0.557139 -3.6653 0
4.84175 -7.17979 0
4.974 -8.48551 0
-3.72678 4.48582 0
-3.6788 5.65735 0
-2.83693 7.16544 0
-2.96321 6.24881 0
-1.64198 8.60947 0
-1.90394 7.50362 0
-2.31538 4.00933 0
-0.725679 -1.32172 0
-0.833526 -0.251606 0
-1.93274 1.68694 0
-2.11198 2.86354 0
-1.30246 3.52311 0
-0.871424 1.35734 0
-0.282361 0.46228 0
-0.528473 8.75771 0
-1.23837 9.82152 0
1.08958 -4.50968 0
3.81922 -6.56415 0
2.9178 -5.96902 0
2.07 -5.32734 0
4.69574 -6.07316 0
-0.552096 -2.46561 0
0.490457 -3.43309 0
0.0543229 -1.60672 0
1.45774 -3.63494 0
5.77116 -6.49256 0
6.04761 -7.76528 0
-2.44256 5.27314 0
-2.09178 6.43245 0
-0.88695 7.69949 0
-1.24305 6.83015 0
0.0903493 7.78633 0
-1.13232 4.44998 0
0.150519 -0.613269 0
-0.802238 2.49336 0
-0.339627 3.58536 0
0.0579636 1.51568 0
0.736913 0.475681 0
0.640789 8.7757 0
0.0456875 9.92181 0
2.3407 -4.21346 0
3.78328 -5.5201 0
2.94063 -5.11193 0
5.49044 -5.38747 0
4.60944 -5.16788 0
0.631626 -2.28906 0
1.2453 -2.92506 0
0.757165 -1.38851 0
2.13703 -3.09764 0
2.9552 -3.42397 0
6.07316 -4.71123 0
6.56399 -5.67618 0
7.0152 -6.90526 0
-1.00108 5.74638 0
-0.356866 6.7911 0
1.11198 7.68305 0
0.560061 6.99472 0
-0.000699862 4.6845 0
0.596177 3.80225 0
1.33435 -0.641304 0
0.530135 2.64357 0
0.957155 1.5737 0
1.90189 0.212384 0
1.60394 1.06492 0
2.11423 7.50602 0
1.78363 8.61898 0
1.33796 9.84422 0
3.76281 -4.26929 0
5.04107 -4.35715 0
5.77203 -3.86586 0
3.73862 -3.15319 0
1.80335 -1.88003 0
2.98789 -2.54714 0
6.70928 -3.89194 0
7.29525 -4.83212 0
7.87878 -5.95034 0
0.484329 5.81512 0
1.41962 6.67014 0
2.35529 6.60295 0
1.19694 4.51807 0
1.47463 3.37627 0
2.42104 -0.688492 0
2.81121 0.143312 0
1.77607 2.15547 0
2.59825 1.14439 0
3.04677 7.09787 0
2.87785 8.29169 0
2.61266 9.59491 0
4.8489 -3.26768 0
6.05039 -3.05873 0
4.13107 -2.25076 0
3.21818 -1.49312 0
6.66583 -2.28975 0
7.16263 -3.01228 0
7.88354 -3.87549 0
8.61119 -4.89744 0
2.00806 5.54544 0
3.04606 6.08596 0
2.34894 4.09021 0
2.40183 3.03847 0
3.49897 -0.45773 0
3.59044 0.614434 0
2.93896 2.27211 0
3.51491 1.51497 0
3.95099 5.83011 0
3.93742 6.71899 0
3.941 7.85895 0
3.84378 9.18363 0
5.51392 -1.89516 0
4.47039 -1.11928 0
6.64451 -1.32117 0
7.51514 -2.01173 0
8.31121 -2.83443 0
9.18448 -3.74032 0
3.3689 4.82041 0
3.29961 3.3502 0
4.64864 0.133316 0
4.46498 1.2925 0
4.00923 2.41389 0
4.48761 5.08112 0
4.77274 6.11464 0
4.92083 7.2978 0
5.00112 8.61054 0
5.81855 -0.434004 0
6.92411 -0.486781 0
7.6775 -1.06958 0
8.59267 -1.72905 0
9.59482 -2.50801 0
4.47592 3.77445 0
5.73454 1.07358 0
5.27972 2.49173 0
5.27515 4.54754 0
5.51552 5.44416 0
5.81219 6.58393 0
6.0539 7.87926 0
6.74861 0.444248 0
7.7527 -0.0279435 0
8.76231 -0.573811 0
9.84128 -1.23163 0
6.85098 1.31435 0
5.61013 3.71211 0
6.42814 2.14749 0
6.2584 3.02599 0
6.1709 4.6062 0
6.58154 5.74851 0
7.01242 7.02007 0
7.67551 0.94562 0
8.74618 0.563939 0
9.91529 0.0583011 0
7.49137 1.96095 0
6.68558 3.82266 0
7.13251 2.88386 0
7.25212 4.80402 0
7.87297 6.05393 0
8.59054 1.69754 0
9.8093 1.33501 0
8.27505 2.78268 0
7.84698 3.84728 0
8.59287 4.98112 0
9.56257 2.60042 0
9.15881 3.82417 0
CELLS 542 2168
3 2 0 4
3 0 1 7
3 4 0 7
3 1 5 8
3 7 1 8
3 3 2 13
3 13 2 4
3 11 3 14
3 14 3 13
3 13 4 15
3 4 7 16
3 15 4 16
3 5 6 17
3 8 5 17
3 6 9 18
3 17 6 18
3 7 8 19
3 16 7 19
3 8 17 20
3 19 8 20
3 9 10 23
3 18 9 23
3 10 21 24
3 23 10 24
3 12 11 25
3 25 11 14
3 26 12 27
3 27 12 25
3 14 13 29
3 29 13 15
3 25 14 30
3 30 14 29
3 29 15 31
3 15 16 33
3 31 15 33
3 16 19 34
3 33 16 34
3 17 18 35
3 20 17 35
3 18 23 36
3 35 18 36
3 19 20 37
3 34 19 37
3 20 35 38
3 37 20 38
3 21 22 39
3 24 21 39
3 22 32 40
3 39 22 40
3 23 24 41
3 36 23 41
3 24 39 42
3 41 24 42
3 27 25 44
3 44 25 30
3 28 26 45
3 45 26 27
3 45 27 46
3 46 27 44
3 47 28 48
3 48 28 45
3 30 29 50
3 50 29 31
3 44 30 51
3 51 30 50
3 50 31 52
3 31 33 52
3 32 43 53
3 40 32 53
3 53 43 54
3 33 34 55
3 34 37 55
3 33 55 52
3 35 36 56
3 38 35 56
3 36 41 57
3 56 36 57
3 37 38 58
3 38 56 58
3 37 58 55
3 39 40 59
3 42 39 59
3 40 53 60
3 59 40 60
3 41 42 61
3 57 41 61
3 42 59 62
3 61 42 62
3 43 63 54
3 46 44 64
3 64 44 51
3 48 45 65
3 65 45 46
3 65 46 66
3 66 46 64
3 49 47 67
3 67 47 48
3 67 48 68
3 68 48 65
3 69 49 70
3 70 49 67
3 52 55 72
3 64 51 73
3 51 50 73
3 50 52 73
3 73 52 74
3 74 52 72
3 53 54 75
3 60 53 75
3 54 63 76
3 54 76 77
3 75 54 77
3 55 58 78
3 72 55 78
3 72 78 79
3 56 57 80
3 57 61 80
3 56 80 58
3 58 80 81
3 78 58 81
3 59 60 82
3 62 59 82
3 60 75 83
3 82 60 83
3 61 62 84
3 62 82 84
3 61 84 80
3 63 85 76
3 66 64 86
3 64 73 86
3 68 65 87
3 87 65 66
3 87 66 86
3 70 67 88
3 88 67 68
3 88 68 89
3 89 68 87
3 71 69 90
3 90 69 70
3 90 70 91
3 91 70 88
3 92 71 93
3 93 71 90
3 74 72 94
3 94 72 79
3 86 73 95
3 95 73 74
3 95 74 96
3 96 74 94
3 97 86 95
3 76 85 99
3 75 77 100
3 83 75 100
3 76 99 101
3 77 76 101
3 77 101 102
3 100 77 102
3 94 79 103
3 78 81 104
3 79 78 104
3 79 104 103
3 80 84 105
3 81 80 105
3 81 105 106
3 104 81 106
3 82 83 107
3 83 100 107
3 82 107 84
3 84 107 108
3 105 84 108
3 85 109 99
3 89 87 110
3 87 86 110
3 110 86 97
3 91 88 111
3 111 88 89
3 111 89 110
3 93 90 112
3 112 90 91
3 112 91 113
3 113 91 111
3 98 92 114
3 114 92 93
3 114 93 115
3 115 93 112
3 116 98 114
3 117 103 118
3 96 94 119
3 94 103 119
3 119 103 117
3 97 95 120
3 120 95 96
3 120 96 119
3 121 110 97
3 121 97 122
3 122 97 120
3 123 119 117
3 124 98 116
3 99 109 125
3 99 125 126
3 101 99 126
3 100 102 127
3 100 127 107
3 101 126 128
3 102 101 128
3 102 128 127
3 104 106 129
3 104 129 103
3 103 129 118
3 105 108 130
3 106 105 130
3 106 130 129
3 107 127 131
3 108 107 131
3 108 131 132
3 108 132 130
3 109 134 125
3 125 134 133
3 113 111 135
3 111 110 135
3 135 110 121
3 115 112 136
3 136 112 113
3 136 113 135
3 116 114 137
3 137 114 115
3 137 115 138
3 138 115 136
3 139 124 116
3 139 116 140
3 140 116 137
3 141 135 121
3 118 129 142
3 118 142 143
3 117 118 143
3 123 117 143
3 122 120 144
3 120 119 144
3 144 119 123
3 141 121 145
3 145 121 122
3 145 122 144
3 146 141 145
3 147 144 123
3 147 123 148
3 143 148 123
3 150 124 139
3 149 150 139
3 131 127 151
3 125 133 152
3 126 125 152
3 126 152 153
3 128 126 153
3 128 153 154
3 128 154 127
3 127 154 151
3 152 133 155
3 130 132 156
3 130 156 129
3 129 156 142
3 131 151 157
3 132 131 157
3 132 157 156
3 156 158 142
3 157 151 159
3 133 160 155
3 134 161 133
3 133 161 160
3 138 136 162
3 136 135 162
3 162 135 141
3 140 137 163
3 163 137 138
3 163 138 162
3 149 139 164
3 164 139 140
3 164 140 165
3 165 140 163
3 166 149 164
3 167 162 141
3 167 141 146
3 142 158 168
3 143 142 168
3 143 168 148
3 146 145 169
3 145 144 169
3 169 144 147
3 170 167 146
3 170 146 169
3 171 169 147
3 171 147 148
3 171 148 172
3 168 172 148
3 173 149 166
3 174 150 149
3 173 174 149
3 154 175 151
3 151 175 159
3 152 155 176
3 153 152 176
3 153 176 177
3 153 177 154
3 154 177 175
3 155 160 178
3 155 178 179
3 176 155 179
3 156 157 180
3 156 180 158
3 157 159 181
3 157 181 180
3 158 180 182
3 158 182 168
3 159 175 183
3 159 183 181
3 175 184 183
3 160 186 178
3 178 186 185
3 161 187 160
3 160 187 186
3 165 163 188
3 163 162 188
3 188 162 167
3 166 164 189
3 189 164 165
3 189 165 188
3 190 173 166
3 190 166 191
3 191 166 189
3 192 188 167
3 192 167 170
3 193 192 170
3 182 194 168
3 194 172 168
3 193 170 195
3 170 169 195
3 195 169 171
3 196 195 171
3 196 171 172
3 194 197 172
3 197 198 172
3 198 196 172
3 200 173 190
3 199 200 190
3 201 174 173
3 200 201 173
3 176 179 202
3 177 176 202
3 177 202 175
3 175 202 184
3 178 185 203
3 178 203 179
3 179 203 202
3 203 185 204
3 202 205 184
3 183 206 181
3 180 181 206
3 180 206 182
3 182 206 194
3 183 184 207
3 205 207 184
3 183 207 206
3 185 208 204
3 186 209 185
3 185 209 208
3 187 210 186
3 186 210 209
3 191 189 211
3 189 188 211
3 211 188 192
3 199 190 212
3 212 190 191
3 212 191 211
3 213 199 212
3 214 211 192
3 214 192 193
3 215 214 193
3 215 193 195
3 206 216 194
3 216 197 194
3 216 217 197
3 215 195 218
3 218 195 196
3 198 218 196
3 217 219 197
3 219 218 198
3 197 219 198
3 220 199 213
3 221 200 199
3 220 221 199
3 222 201 200
3 221 222 200
3 203 204 223
3 203 223 202
3 202 223 205
3 204 208 224
3 204 224 223
3 205 223 225
3 205 225 207
3 207 225 226
3 207 226 206
3 226 216 206
3 208 228 224
3 224 228 227
3 209 229 208
3 229 228 208
3 210 230 209
3 209 230 229
3 213 212 231
3 212 211 231
3 231 211 214
3 232 220 213
3 232 213 231
3 233 231 214
3 233 214 215
3 234 233 215
3 234 215 218
3 226 235 216
3 235 217 216
3 235 236 217
3 217 236 219
3 237 234 218
3 237 218 219
3 236 238 219
3 238 237 219
3 240 220 232
3 239 240 232
3 241 221 220
3 240 241 220
3 242 222 221
3 241 242 221
3 224 227 243
3 224 243 223
3 223 243 225
3 225 243 244
3 225 244 226
3 226 244 235
3 227 245 243
3 228 246 227
3 227 246 245
3 229 247 228
3 228 247 246
3 230 248 229
3 229 248 247
3 239 232 249
3 232 231 249
3 249 231 233
3 250 249 233
3 250 233 234
3 237 250 234
3 244 251 235
3 235 251 236
3 251 252 236
3 236 252 238
3 252 253 238
3 253 250 237
3 253 237 238
3 254 239 249
3 255 240 239
3 254 255 239
3 256 241 240
3 255 256 240
3 257 242 241
3 256 257 241
3 245 258 243
3 243 258 244
3 244 258 251
3 245 259 258
3 246 260 245
3 245 260 259
3 247 261 246
3 246 261 260
3 248 262 247
3 247 262 261
3 254 249 263
3 263 249 250
3 253 263 250
3 258 264 251
3 251 264 252
3 264 265 252
3 265 263 253
3 252 265 253
3 266 254 263
3 267 255 254
3 266 267 254
3 268 256 255
3 267 268 255
3 269 257 256
3 268 269 256
3 259 270 258
3 270 264 258
3 260 271 259
3 259 271 270
3 261 272 260
3 260 272 271
3 262 273 261
3 273 272 261
3 270 274 264
3 275 266 263
3 275 263 265
3 274 276 264
3 276 265 264
3 276 277 265
3 277 275 265
3 278 267 266
3 275 278 266
3 279 268 267
3 278 279 267
3 280 269 268
3 279 280 268
3 271 281 270
3 270 281 274
3 272 282 271
3 271 282 281
3 273 283 272
3 272 283 282
3 281 284 274
3 274 284 276
3 285 278 275
3 277 285 275
3 284 286 276
3 286 285 277
3 276 286 277
3 287 279 278
3 285 287 278
3 288 280 279
3 287 288 279
3 282 289 281
3 281 289 284
3 283 290 282
3 282 290 289
3 289 291 284
3 284 291 286
3 291 292 286
3 292 287 285
3 286 292 285
3 293 288 287
3 292 293 287
3 290 294 289
3 289 294 291
3 294 295 291
3 295 293 292
3 291 295 292
CELL_TYPES 542
5
5
5
5
5
5
5
5
5
5
5
5
5
5
5
5
5
5
5
5
5
5
5
5
5
5
5
5
5
5
5
5
5
5
5
5
5
5
5
5
5
5
5
5
5
5
5
5
5
5
5
5
5
5
5
5
5
5
5
5
5
5
5
5
5
5
5
5
5
5
5
5
5
5
5
5
5
5
5
5
5
5
5
5
5
5
5
5
5
5
5
5
5
5
5
5
5
5
5
5
5
5
5
5
5
5
5
5
5
5
5
5
5
5
5
5
5
5
5
5
5
5
5
5
5
5
5
5
5
5
5
5
5
5
5
5
5
5
5
5
5
5
5
5
5
5
5
5
5
5
5
5
5
5
5
5
5
5
5
5
5
5
5
5
5
5
5
5
5
5
5
5
5
5
5
5
5
5
5
5
5
5
5
5
5
5
5
5
5
5
5
5
5
5
5
5
5
5
5
5
5
5
5
5
5
5
5
5
5
5
5
5
5
5
5
5
5
5
5
5
5
5
5
5
5
5
5
5
5
5
5
5
5
5
5
5
5
5
5
5
5
5
5
5
5
5
5
5
5
5
5
5
5
5
5
5
5
5
5
5
5
5
5
5
5
5
5
5
5
5
5
5
5
5
5
5
5
5
5
5
5
5
5
5
5
5
5
5
5
5
5
5
5
5
5
5
5
5
5
5
5
5
5
5
5
5
5
5
5
5
5
5
5
5
5
5
5
5
5
5
5
5
5
5
5
5
5
5
5
5
5
5
5
5
5
5
5
5
5
5
5
5
5
5
5
5
5
5
5
5
5
5
5
5
5
5
5
5
5
5
5
5
5
5
5
5
5
5
5
5
5
5
5
5
5
5
5
5
5
5
5
5
5
5
5
5
5
5
5
5
5
5
5
5
5
5
5
5
5
5
5
5
5
5
5
5
5
5
5
5
5
5
5
5
5
5
5
5
5
5
5
5
5
5
5
5
5
5
5
5
5
5
5
5
5
5
5
5
5
5
5
5
5
5
5
5
5
5
5
5
5
5
5
5
5
5
5
5
5
5
5
5
5
5
5
5
5
5
5
5
5
5
5
5
5
5
5
5
5
5
5
5
5
5
5
5
5
5
5
5
5
5
5
5
5
5
5
5
5
5
5
5
5
5
5
5
5
5
5
5
5
5
5
5
5
5
5
5
5
5
5
5
5
5
5
5
5
5
5
5
5
5
5
5
5
5
5
5
5
5
5
5
POINT_DATA 296
SCALARS concentrations float 4
LOOKUP_TABLE default
0 0.973226 0.166016 24.0421
0 0.973321 0.17046 24.4093
0 0.973296 0.170461 25.3421
0 0.973349 0.172415 20.5079
0 0.973265 0.0948462 7.68601
0 0.973316 0.163613 13.7767
0 0.973389 0.167718 13.9029
0 0.973296 0.104643 8.65691
0 0.973342 0.106603 6.69979
0 0.973484 0.166587 12.2717
0 0.973464 0.167798 18.0808
0 0.973243 0.16778 16.0884
0 0.973232 0.165536 30.2858
0 0.973325 0.0935385 7.38503
0 0.973305 0.0934127 7.70156
0 0.973304 0.0956246 6.68754
0 0.973307 0.0951797 6.78548
0 0.973349 0.0950479 7.33821
0 0.973425 0.0943983 7.31888
0 0.973342 0.0969975 7.20093
0 0.973359 0.0980592 7.47181
0 0.973485 0.170741 15.1147
0 0.973623 0.168585 9.5751
0 0.97343 0.0947801 6.71294
0 0.973409 0.0961469 5.93074
0 0.973236 0.09339 7.75718
0 0.973422 0.166206 18.7382
0 0.973315 0.0938122 7.82716
0 0.97351 0.16813 16.1272
0 0.973312 0.0950109 7.02856
0 0.973301 0.0937989 7.35023
0 0.973323 0.095053 7.01748
0 0.973568 0.166459 8.22778
0 0.973323 0.0944734 7.19083
0 0.973329 0.0950356 7.41527
0 0.973372 0.0948708 7.20488
0 0.973362 0.0948555 6.04128
0 0.973337 0.0948502 7.15631
0 0.973333 0.0977479 5.95643
0 0.973482 0.0955143 5.99407
0 0.973517 0.0943445 5.54116
0 0.973346 0.0987782 5.47691
0 0.973363 0.095663 8.65005
0 0.973458 0.169415 16.5941
0 0.9733 0.0942727 7.49267
0 0.97343 0.0937337 7.77994
0 0.973329 0.0949832 7.22174
0 0.97346 0.170316 9.00147
0 0.973447 0.0940144 7.20489
0 0.973446 0.171996 17.3387
0 0.973326 0.0940743 7.00419
0 0.973321 0.0944499 6.86711
0 0.973329 0.0940121 7.35752
0 0.973448 0.0947147 6.1232
0 0.973393 0.094259 7.83469
0 0.973324 0.0947033 6.59245
0 0.973328 0.100307 8.84304
0 0.973334 0.0989917 7.47974
0 0.973317 0.0944997 7.84414
0 0.973354 0.0993426 7.6579
0 0.973337 0.0954319 8.22589
0 0.973341 0.0989731 4.49426
0 0.973331 0.105393 11.8692
0 0.973358 0.16725 11.2754
0 0.973321 0.0948232 6.70387
0 0.973361 0.0947843 7.07635
0 0.973331 0.0946441 6.94634
0 0.973419 0.0939999 7.81928
0 0.973375 0.0941757 7.20908
0 0.973559 0.16618 2.09383
0 0.973481 0.0948332 8.70358
0 0.973532 0.163998 5.93584
0 0.973326 0.0956797 5.87669
0 0.973334 0.0944033 7.54367
0 0.973339 0.0953436 6.7471
0 0.973353 0.0956786 7.70251
0 0.973362 0.0946598 8.10445
0 0.973371 0.0942344 8.39628
0 0.973319 0.0961215 6.87329
0 0.973335 0.0964655 8.21654
0 0.973326 0.0967151 8.33945
0 0.973322 0.0968544 7.22806
0 0.973302 0.103029 8.36557
0 0.973306 0.0976152 6.89705
0 0.973328 0.0982672 6.35259
0 0.97332 0.172653 14.4941
0 0.973336 0.0946698 7.53399
0 0.973344 0.095528 7.33577
0 0.973394 0.0938311 7.78634
0 0.973343 0.0953504 7.50839
0 0.973522 0.0942869 6.2033
0 0.973424 0.0941805 8.08237
0 0.973495 0.163058 20.7865
0 0.973484 0.0947644 6.2236
0 0.973343 0.0945206 7.6837
0 0.973343 0.0937145 7.71346
0 0.97335 0.0940192 7.60142
0 0.973339 0.0942067 7.01169
0 0.973402 0.168456 12.8636
0 0.973301 0.0938307 7.18762
0 0.973335 0.0946959 8.41316
0 0.973365 0.0947147 8.09204
0 0.973352 0.0947425 8.18532
0 0.973365 0.0959462 5.93564
0 0.97335 0.0948272 7.93454
0 0.973331 0.0975154 7.04752
0 0.973349 0.099704 6.41899
0 0.973316 0.0966132 6.75881
0 0.973325 0.0962115 7.05815
0 0.973209 0.16292 27.5532
0 0.973338 0.094268 6.81071
0 0.973353 0.0964552 8.0514
0 0.973422 0.0948508 8.31722
0 0.973357 0.0963236 7.80984
0 0.973437 0.0948009 6.82202
0 0.973406 0.0951596 8.10902
0 0.973371 0.0936513 7.73391
0 0.973391 0.0940673 8.01503
0 0.973384 0.094319 7.18687
0 0.973373 0.0957834 7.64516
0 0.973358 0.0942437 7.91596
0 0.973331 0.094352 7.0881
0 0.973344 0.0950602 7.80398
0 0.973385 0.100479 9.26042
0 0.973332 0.171993 11.6133
0 0.973257 0.0950258 6.4536
0 0.973348 0.0955678 7.67717
0 0.973333 0.0949249 6.26605
0 0.973353 0.0944525 8.26184
0 0.973365 0.0971717 5.86663
0 0.973345 0.0952273 8.67018
0 0.973322 0.0953316 8.09123
0 0.97333 0.0953378 8.75434
0 0.973275 0.0944777 7.97873
0 0.973226 0.168918 21.7276
0 0.973336 0.0945383 6.99949
0 0.973353 0.0954638 7.58118
0 0.973383 0.10638 10.0225
0 0.973362 0.0953882 7.11752
0 0.973316 0.0929887 7.62132
0 0.973358 0.0955969 7.44505
0 0.97333 0.0938294 6.96932
0 0.973373 0.0943194 7.60725
0 0.973388 0.0941306 6.2909
0 0.973366 0.100747 5.94274
0 0.97334 0.0945855 6.45999
0 0.973342 0.0955072 6.80214
0 0.973372 0.0959469 8.2907
0 0.973387 0.0949691 7.64476
0 0.973282 0.0937639 6.77895
0 0.973248 0.163048 29.6989
0 0.97333 0.0941098 7.3563
0 0.973334 0.104364 11.4664
0 0.973354 0.095069 7.85491
0 0.973337 0.0945296 6.63751
0 0.973324 0.0945335 6.85559
0 0.973348 0.0950012 8.01449
0 0.973328 0.0952494 6.05086
0 0.973373 0.094858 6.30138
0 0.973327 0.0952442 6.52679
0 0.973263 0.0945011 7.91005
0 0.973237 0.169981 23.0831
0 0.973336 0.0946101 6.87049
0 0.973344 0.0952799 8.11518
0 0.973347 0.0934742 7.82754
0 0.973347 0.0949805 7.72
0 0.973347 0.0938009 6.88764
0 0.973338 0.0940309 7.19736
0 0.973382 0.0949841 6.03179
0 0.973355 0.0988889 8.52686
0 0.97335 0.095325 6.69745
0 0.973379 0.0952985 8.60821
0 0.97338 0.0947932 6.16126
0 0.973338 0.0933271 6.90436
0 0.973271 0.168438 18.6897
0 0.973329 0.0949948 7.87007
0 0.973343 0.0951853 7.89531
0 0.973338 0.0945523 7.6927
0 0.973308 0.0948903 6.42249
0 0.973337 0.0942792 6.4434
0 0.973359 0.0981957 8.8468
0 0.973349 0.0947103 6.29096
0 0.973369 0.0961073 6.42912
0 0.973336 0.0949149 6.38136
0 0.973326 0.0947745 7.8487
0 0.973305 0.0947584 7.60673
0 0.973207 0.0933054 7.96525
0 0.973183 0.171647 20.7071
0 0.973337 0.0943645 7.07938
0 0.973349 0.0941646 7.89505
0 0.973362 0.0945333 7.48933
0 0.973351 0.0933704 6.66789
0 0.973342 0.0945888 7.37511
0 0.973349 0.0958321 7.22274
0 0.973362 0.0948907 8.28759
0 0.973361 0.0953586 8.47241
0 0.973375 0.0954032 8.67624
0 0.973366 0.0942103 6.22011
0 0.973366 0.0951943 6.4657
0 0.973366 0.0958733 7.36136
0 0.973406 0.0937404 6.55959
0 0.973383 0.17095 12.924
0 0.973337 0.0946532 7.05009
0 0.973339 0.104933 7.8816
0 0.97334 0.0948675 6.1355
0 0.973334 0.0950076 7.96824
0 0.973344 0.100496 6.20494
0 0.973331 0.0947188 6.43899
0 0.973342 0.0940368 7.79587
0 0.973268 0.09404 7.84962
0 0.97316 0.163119 30.6965
0 0.973343 0.0934584 6.8664
0 0.973352 0.0963454 6.5756
0 0.973348 0.104019 7.08449
0 0.973347 0.0962414 7.36373
0 0.973349 0.0941525 7.34495
0 0.97334 0.0957286 6.72606
0 0.973364 0.0945077 8.07176
0 0.973357 0.0947154 8.08815
0 0.973362 0.0956484 7.01642
0 0.973373 0.0948074 7.5353
0 0.973478 0.0931664 6.88595
0 0.973491 0.171065 20.0567
0 0.973351 0.0949681 6.45115
0 0.973367 0.0951581 5.98758
0 0.973346 0.0952254 6.78719
0 0.973329 0.0945861 6.68132
0 0.973388 0.0943726 7.34497
0 0.973382 0.094714 7.98898
0 0.973308 0.0939926 6.86493
0 0.973281 0.168867 19.9751
0 0.973358 0.0972597 7.76912
0 0.973346 0.0958363 7.33713
0 0.973363 0.0947169 7.40813
0 0.973347 0.0943138 7.7149
0 0.973345 0.0947778 8.00748
0 0.973351 0.0944657 7.98041
0 0.973355 0.0951723 7.40936
0 0.973348 0.0941195 8.12775
0 0.973333 0.0935315 7.19432
0 0.973367 0.0946405 7.19667
0 0.973453 0.0936641 6.72046
0 0.97355 0.162611 3.44489
0 0.973361 0.0948535 8.35723
0 0.973344 0.0940611 7.20666
0 0.973372 0.0952568 7.06952
0 0.973392 0.0942059 6.78318
0 0.973328 0.0939345 6.57792
0 0.973255 0.164403 18.0274
0 0.97335 0.102579 8.63292
0 0.973359 0.0945955 7.64094
0 0.973342 0.0937639 7.50816
0 0.973339 0.0949394 7.53165
0 0.973346 0.0950427 7.80659
0 0.973336 0.0940181 6.9271
0 0.973365 0.0935246 7.24921
0 0.973415 0.0940039 7.47759
0 0.97345 0.172656 13.7931
0 0.973352 0.0939582 7.85004
0 0.973355 0.0945826 6.50095
0 0.973363 0.0954568 6.21242
0 0.973347 0.0940838 7.9269
0 0.973314 0.165136 13.1391
0 0.973348 0.0941173 7.05712
0 0.973346 0.0937041 7.40622
0 0.973344 0.0946318 6.82513
0 0.973352 0.0947732 7.35054
0 0.973377 0.0940503 7.32415
0 0.973469 0.0930524 6.72501
0 0.973491 0.167078 21.1404
0 0.973346 0.0945819 7.63077
0 0.973327 0.0941257 6.55593
0 0.973275 0.0937059 6.64014
0 0.973278 0.167631 18.6905
0 0.973334 0.0938935 7.44321
0 0.973351 0.0944791 7.23181
0 0.973337 0.0942653 7.68927
0 0.973342 0.0949811 7.72381
0 0.973382 0.0949388 7.50807
0 0.97346 0.093792 6.99708
0 0.973538 0.167934 6.63771
0 0.97331 0.0943337 7.18106
0 0.973259 0.0940501 7.24543
0 0.973193 0.162653 24.1302
0 0.973314 0.0943487 7.03212
0 0.973364 0.0951898 7.54356
0 0.973334 0.0953365 7.53794
0 0.97345 0.0953518 7.80458
0 0.97349 0.163429 16.635
0 0.973309 0.0936625 6.97813
0 0.973283 0.169854 24.4462
0 0.973311 0.0943339 7.19799
0 0.973385 0.0952531 7.40318
0 0.973479 0.165864 11.8872
0 0.973317 0.170937 20.3597
0 0.973339 0.162659 20.6908
VECTORS fa_u float
0.00663512 0.00269227 -0
0.00627994 0.00361499 -0
0.00432392 0.0011682 -0
0.00675571 0.000977619 -0
1e-08 0 0
0.00519376 0.00399844 -0
0.00334245 0.00328132 -0
1e-08 0 0
1e-08 0 0
0.00438637 0.00551268 -0
0.00426058 0.00726219 -0
0.0066916 7.67355e-05 -0
0.00619451 -0.00073331 0
1e-08 0 0
1e-08 0 0
1e-08 0 0
1e-08 0 0
1e-08 0 0
1e-08 0 0
1e-08 0 0
1e-08 0 0
0.00271516 0.00663125 -0
0.00165255 0.00633535 -0
1e-08 0 0
1e-08 0 0
1e-08 0 0
0.00781516 -0.00202543 0
1e-08 0 0
0.00859383 -0.00367545 0
1e-08 0 0
1e-08 0 0
1e-08 0 0
0.000855478 0.00693415 -0
1e-08 0 0
1e-08 0 0
1e-08 0 0
1e-08 0 0
1e-08 0 0
1e-08 0 0
1e-08 0 0
1e-08 0 0
1e-08 0 0
1e-08 0 0
-9.1558e-05 0.00717642 -0
1e-08 0 0
1e-08 0 0
1e-08 0 0
0.00559649 -0.00341169 0
1e-08 0 0
0.00374068 -0.00295065 0
1e-08 0 0
1e-08 0 0
1e-08 0 0
1e-08 0 0
1e-08 0 0
1e-08 0 0
1e-08 0 0
1e-08 0 0
1e-08 0 0
1e-08 0 0
1e-08 0 0
1e-08 0 0
1e-08 0 0
-0.000709368 0.00508302 0
1e-08 0 0
1e-08 0 0
1e-08 0 0
1e-08 0 0
1e-08 0 0
0.00382598 -0.0038052 0
1e-08 0 0
0.00326209 -0.0041093 0
1e-08 0 0
1e-08 0 0
1e-08 0 0
1e-08 0 0
1e-08 0 0
1e-08 0 0
1e-08 0 0
1e-08 0 0
1e-08 0 0
1e-08 0 0
1e-08 0 0
1e-08 0 0
1e-08 0 0
-0.00151873 0.00575453 0
1e-08 0 0
1e-08 0 0
1e-08 0 0
1e-08 0 0
1e-08 0 0
1e-08 0 0
0.00452729 -0.00760305 0
1e-08 0 0
1e-08 0 0
1e-08 0 0
1e-08 0 0
1e-08 0 0
0.00311476 -0.00761633 0
1e-08 0 0
1e-08 0 0
1e-08 0 0
1e-08 0 0
1e-08 0 0
1e-08 0 0
1e-08 0 0
1e-08 0 0
1e-08 0 0
1e-08 0 0
-0.00267301 0.00654676 0
1e-08 0 0
1e-08 0 0
1e-08 0 0
1e-08 0 0
1e-08 0 0
1e-08 0 0
1e-08 0 0
1e-08 0 0
1e-08 0 0
1e-08 0 0
1e-08 0 0
1e-08 0 0
1e-08 0 0
1e-08 0 0
0.0015239 -0.00590973 0
1e-08 0 0
1e-08 0 0
1e-08 0 0
1e-08 0 0
1e-08 0 0
1e-08 0 0
1e-08 0 0
1e-08 0 0
1e-08 0 0
-0.00354688 0.00614866 0
1e-08 0 0
1e-08 0 0
1e-08 0 0
1e-08 0 0
1e-08 0 0
1e-08 0 0
1e-08 0 0
1e-08 0 0
1e-08 0 0
1e-08 0 0
1e-08 0 0
1e-08 0 0
1e-08 0 0
1e-08 0 0
1e-08 0 0
0.000641108 -0.00476165 0
1e-08 0 0
1e-08 0 0
1e-08 0 0
1e-08 0 0
1e-08 0 0
1e-08 0 0
1e-08 0 0
1e-08 0 0
1e-08 0 0
1e-08 0 0
-0.00434127 0.00560764 0
1e-08 0 0
1e-08 0 0
1e-08 0 0
1e-08 0 0
1e-08 0 0
1e-08 0 0
1e-08 0 0
1e-08 0 0
1e-08 0 0
1e-08 0 0
1e-08 0 0
1e-08 0 0
6.46417e-05 -0.00733591 0
1e-08 0 0
1e-08 0 0
1e-08 0 0
1e-08 0 0
1e-08 0 0
1e-08 0 0
1e-08 0 0
1e-08 0 0
1e-08 0 0
1e-08 0 0
1e-08 0 0
1e-08 0 0
-0.00323 0.00325888 0
1e-08 0 0
1e-08 0 0
1e-08 0 0
1e-08 0 0
1e-08 0 0
1e-08 0 0
1e-08 0 0
1e-08 0 0
1e-08 0 0
1e-08 0 0
1e-08 0 0
1e-08 0 0
1e-08 0 0
-0.000860735 -0.00675885 0
1e-08 0 0
1e-08 0 0
1e-08 0 0
1e-08 0 0
1e-08 0 0
1e-08 0 0
1e-08 0 0
1e-08 0 0
-0.00492991 0.00391871 0
1e-08 0 0
1e-08 0 0
1e-08 0 0
1e-08 0 0
1e-08 0 0
1e-08 0 0
1e-08 0 0
1e-08 0 0
1e-08 0 0
1e-08 0 0
1e-08 0 0
-0.00163469 -0.0062008 0
1e-08 0 0
1e-08 0 0
1e-08 0 0
1e-08 0 0
1e-08 0 0
1e-08 0 0
1e-08 0 0
-0.00727163 0.00429612 0
1e-08 0 0
1e-08 0 0
1e-08 0 0
1e-08 0 0
1e-08 0 0
1e-08 0 0
1e-08 0 0
1e-08 0 0
1e-08 0 0
1e-08 0 0
1e-08 0 0
-0.0027657 -0.00671064 0
1e-08 0 0
1e-08 0 0
1e-08 0 0
1e-08 0 0
1e-08 0 0
-0.00682672 0.00281026 0
1e-08 0 0
1e-08 0 0
1e-08 0 0
1e-08 0 0
1e-08 0 0
1e-08 0 0
1e-08 0 0
1e-08 0 0
-0.0042677 -0.00723118 0
1e-08 0 0
1e-08 0 0
1e-08 0 0
1e-08 0 0
-0.00633504 0.00165858 0
1e-08 0 0
1e-08 0 0
1e-08 0 0
1e-08 0 0
1e-08 0 0
1e-08 0 0
-0.00368239 -0.00465673 0
1e-08 0 0
1e-08 0 0
1e-08 0 0
-0.00679053 0.000847999 0
1e-08 0 0
1e-08 0 0
1e-08 0 0
1e-08 0 0
1e-08 0 0
1e-08 0 0
-0.00345413 -0.00344229 0
1e-08 0 0
1e-08 0 0
-0.00760117 -9.46888e-05 0
1e-08 0 0
1e-08 0 0
1e-08 0 0
1e-08 0 0
-0.00568391 -0.00440575 0
1e-08 0 0
-0.00462916 -0.000642304 0
1e-08 0 0
1e-08 0 0
-0.00619351 -0.00357165 0
-0.00595013 -0.00155494 0
-0.00664786 -0.00270781 0
