# vtk DataFile Version 2.0
CellBP Time: 1.88
ASCII
DATASET UNSTRUCTURED_GRID
POINTS 296 double
-9.13637 -3.75235 0
-8.56278 -4.92125 0
-9.55042 -2.5174 0
-9.80939 -1.24607 0
-8.30419 -2.79562 0
-7.83785 -6.00389 0
-6.97797 -6.98252 0
-7.86315 -3.84575 0
-7.29212 -4.8346 0
-6.00793 -7.84706 0
-4.93232 -8.5742 0
-9.90002 0.0472406 0
-9.82052 1.34618 0
-8.60868 -1.67218 0
-8.74273 -0.525745 0
-7.53758 -1.98593 0
-7.17205 -2.88043 0
-6.59766 -5.74653 0
-5.79212 -6.56736 0
-6.73954 -3.85855 0
-6.17713 -4.64514 0
-3.76414 -9.14993 0
-2.52758 -9.56586 0
-4.88806 -7.27841 0
-3.90046 -7.85929 0
-8.75191 0.639067 0
-9.57312 2.62791 0
-8.5865 1.76397 0
-9.15422 3.86172 0
-7.69692 -0.91912 0
-7.75104 0.0818758 0
-6.90698 -1.30282 0
-1.24712 -9.81766 0
-6.39939 -2.13554 0
-6.27593 -3.03308 0
-5.5028 -5.44508 0
-4.77045 -6.08638 0
-5.62137 -3.73253 0
-5.23429 -4.53368 0
-2.85723 -8.33432 0
-1.77267 -8.60298 0
-3.91272 -6.69604 0
-3.04733 -7.12586 0
0.0511848 -9.89846 0
-7.66591 1.1379 0
-8.3081 2.90485 0
-7.51422 2.09879 0
-8.56864 5.02389 0
-7.84337 3.95762 0
-7.83562 6.10067 0
-6.73657 -0.391362 0
-6.91649 0.550858 0
-5.73851 -0.997297 0
-0.589638 -8.77293 0
0.562082 -8.72624 0
-5.27234 -2.46376 0
-4.46391 -5.06829 0
-3.88189 -5.74859 0
-4.4142 -3.78383 0
-2.05411 -7.53417 0
-1.1309 -7.75426 0
-2.98097 -6.07457 0
-2.29992 -6.59472 0
1.34593 -9.80628 0
-6.65406 1.41315 0
-7.1335 3.09969 0
-6.62508 2.35881 0
-7.25765 4.96046 0
-6.68279 3.97972 0
-6.97769 7.07661 0
-6.53751 5.86087 0
-6.00239 7.93745 0
-4.43687 -1.17649 0
-5.7878 0.509179 0
-4.6396 -0.0131883 0
0.00507798 -7.8102 0
1.726 -8.59359 0
0.940014 -7.72014 0
-4.02194 -2.39585 0
-3.48016 -1.38925 0
-3.28089 -4.78349 0
-3.25628 -3.25589 0
-1.37417 -6.64603 0
-0.510909 -6.99104 0
-1.97013 -5.51552 0
2.62168 -9.55227 0
-5.48189 2.0261 0
-6.06338 3.05412 0
-6.07243 4.83974 0
-5.73213 3.9669 0
-5.72912 6.67774 0
-5.42134 5.58445 0
-4.92747 8.66965 0
-4.81059 7.3588 0
-3.49355 -0.423187 0
-4.43127 1.24476 0
-3.70022 0.590692 0
-4.04503 2.31506 0
-3.76182 9.24619 0
2.84024 -8.27702 0
0.41002 -6.75765 0
2.0044 -7.47668 0
1.29126 -6.8618 0
-2.44041 -0.872806 0
-2.83336 -2.1268 0
-2.28892 -4.08425 0
-2.32116 -2.96599 0
-0.443971 -5.83326 0
-1.21886 -4.48481 0
3.85467 -9.13726 0
-4.7689 3.37487 0
-5.06049 4.56557 0
-4.6197 6.23986 0
-4.51496 5.32645 0
-3.82578 7.95079 0
-3.80366 6.80074 0
-2.76795 8.37425 0
-1.64585 -0.13573 0
-1.44757 -0.88878 0
-2.48384 0.509018 0
-3.24449 1.44359 0
-3.22668 3.30654 0
-2.90144 2.37049 0
-1.35272 0.629132 0
-2.52703 9.65963 0
3.90503 -7.83392 0
2.93846 -7.10427 0
0.942594 -5.78802 0
2.05251 -6.37183 0
-1.67975 -1.98952 0
-1.43016 -3.26963 0
0.086561 -4.72622 0
-0.562877 -3.68493 0
4.89985 -7.26921 0
5.02147 -8.56336 0
-3.7582 4.52824 0
-3.71508 5.71682 0
-2.86882 7.24423 0
-2.99373 6.31553 0
-1.65556 8.68964 0
-1.9263 7.57803 0
-2.33073 4.03625 0
-0.728436 -1.3259 0
-0.834898 -0.256454 0
-1.93427 1.68344 0
-2.1204 2.87184 0
-1.30488 3.53752 0
-0.869195 1.35343 0
-0.281585 0.458495 0
-0.532171 8.83198 0
-1.24869 9.91028 0
1.1048 -4.55123 0
3.87667 -6.66198 0
2.96294 -6.04916 0
2.10049 -5.3903 0
4.7534 -6.15791 0
-0.55518 -2.47383 0
0.493998 -3.45369 0
0.0545357 -1.60922 0
1.47414 -3.66556 0
5.83298 -6.57 0
6.10371 -7.83885 0
-2.46363 5.32124 0
-2.11646 6.49687 0
-0.897199 7.76613 0
-1.26121 6.89377 0
0.0881211 7.84704 0
-1.13976 4.47896 0
0.15024 -0.616372 0
-0.798995 2.49092 0
-0.334774 3.5963 0
0.0624398 1.51385 0
0.740383 0.473666 0
0.645108 8.83934 0
0.0484785 10.0018 0
2.36672 -4.26034 0
3.8321 -5.59693 0
2.97875 -5.17706 0
5.54434 -5.45479 0
4.6615 -5.24166 0
0.630134 -2.29253 0
1.25259 -2.94234 0
0.757861 -1.38999 0
2.15444 -3.12302 0
2.97935 -3.45755 0
6.12646 -4.76354 0
6.62231 -5.73597 0
7.08141 -6.97776 0
-1.01281 5.79307 0
-0.366151 6.85117 0
1.11812 7.73941 0
0.558998 7.05031 0
0.000168218 4.71029 0
0.603538 3.81853 0
1.33853 -0.641268 0
0.535975 2.64913 0
0.96398 1.57487 0
1.90813 0.213453 0
1.61159 1.0654 0
2.1249 7.55571 0
1.79371 8.67987 0
1.34866 9.91851 0
3.80058 -4.3228 0
5.08964 -4.41643 0
5.81929 -3.91049 0
3.76684 -3.18448 0
1.80936 -1.88277 0
3.00906 -2.5647 0
6.75694 -3.9274 0
7.35294 -4.87237 0
7.94433 -6.00503 0
0.484112 5.85648 0
1.42546 6.71633 0
2.3678 6.64536 0
1.20577 4.54243 0
1.48407 3.39112 0
2.43106 -0.691993 0
2.82229 0.142298 0
1.78485 2.16058 0
2.6081 1.14814 0
3.06278 7.14469 0
2.89442 8.34831 0
2.62854 9.66584 0
4.88958 -3.30661 0
6.09552 -3.0909 0
4.15826 -2.26717 0
3.23567 -1.49916 0
6.70866 -2.30486 0
7.2071 -3.03109 0
7.93675 -3.90098 0
8.67224 -4.92987 0
2.0181 5.58051 0
3.07202 6.12993 0
2.35904 4.11471 0
2.41379 3.05401 0
3.51599 -0.460468 0
3.60662 0.613315 0
2.95401 2.28361 0
3.53472 1.52131 0
3.99078 5.87474 0
3.96878 6.76681 0
3.96259 7.91072 0
3.86406 9.24834 0
5.54954 -1.9097 0
4.49487 -1.12667 0
6.68909 -1.33047 0
7.56615 -2.02707 0
8.36743 -2.85308 0
9.24885 -3.76279 0
3.402 4.85688 0
3.32555 3.37408 0
4.67544 0.13066 0
4.5005 1.30454 0
4.04487 2.43396 0
4.54155 5.12882 0
4.82003 6.1634 0
4.95946 7.35342 0
5.03157 8.67255 0
5.86117 -0.434666 0
6.98021 -0.487524 0
7.72997 -1.08029 0
8.65354 -1.7404 0
9.66522 -2.52654 0
4.52585 3.80956 0
5.78935 1.08896 0
5.33884 2.51972 0
5.34355 4.5952 0
5.57782 5.4963 0
5.8668 6.64222 0
6.1054 7.94343 0
6.8129 0.456802 0
7.81818 -0.0262765 0
8.82699 -0.580557 0
9.91721 -1.24621 0
6.92228 1.33688 0
5.68211 3.75595 0
6.50141 2.17999 0
6.33686 3.06571 0
6.24949 4.65913 0
6.65456 5.80635 0
7.07998 7.08271 0
7.74688 0.959689 0
8.82031 0.568247 0
9.99867 0.0532533 0
7.57223 1.98831 0
6.77893 3.87571 0
7.22119 2.92514 0
7.33423 4.85761 0
7.94182 6.10606 0
8.67665 1.7157 0
9.90507 1.34761 0
8.37046 2.81702 0
7.93435 3.89105 0
8.6656 5.02387 0
9.65361 2.62404 0
9.23967 3.85705 0
CELLS 542 2168
3 2 0 4
3 0 1 7
3 4 0 7
3 1 5 8
3 7 1 8
3 3 2 13
3 13 2 4
3 11 3 14
3 14 3 13
3 13 4 15
3 4 7 16
3 15 4 16
3 5 6 17
3 8 5 17
3 6 9 18
3 17 6 18
3 7 8 19
3 16 7 19
3 8 17 20
3 19 8 20
3 9 10 23
3 18 9 23
3 10 21 24
3 23 10 24
3 12 11 25
3 25 11 14
3 26 12 27
3 27 12 25
3 14 13 29
3 29 13 15
3 25 14 30
3 30 14 29
3 29 15 31
3 15 16 33
3 31 15 33
3 16 19 34
3 33 16 34
3 17 18 35
3 20 17 35
3 18 23 36
3 35 18 36
3 19 20 37
3 34 19 37
3 20 35 38
3 37 20 38
3 21 22 39
3 24 21 39
3 22 32 40
3 39 22 40
3 23 24 41
3 36 23 41
3 24 39 42
3 41 24 42
3 27 25 44
3 44 25 30
3 28 26 45
3 45 26 27
3 45 27 46
3 46 27 44
3 47 28 48
3 48 28 45
3 30 29 50
3 50 29 31
3 44 30 51
3 51 30 50
3 50 31 52
3 31 33 52
3 32 43 53
3 40 32 53
3 53 43 54
3 33 34 55
3 34 37 55
3 33 55 52
3 35 36 56
3 38 35 56
3 36 41 57
3 56 36 57
3 37 38 58
3 38 56 58
3 37 58 55
3 39 40 59
3 42 39 59
3 40 53 60
3 59 40 60
3 41 42 61
3 57 41 61
3 42 59 62
3 61 42 62
3 43 63 54
3 46 44 64
3 64 44 51
3 48 45 65
3 65 45 46
3 65 46 66
3 66 46 64
3 49 47 67
3 67 47 48
3 67 48 68
3 68 48 65
3 69 49 70
3 70 49 67
3 52 55 72
3 64 51 73
3 51 50 73
3 50 52 73
3 73 52 74
3 74 52 72
3 53 54 75
3 60 53 75
3 54 63 76
3 54 76 77
3 75 54 77
3 55 58 78
3 72 55 78
3 72 78 79
3 56 57 80
3 57 61 80
3 56 80 58
3 58 80 81
3 78 58 81
3 59 60 82
3 62 59 82
3 60 75 83
3 82 60 83
3 61 62 84
3 62 82 84
3 61 84 80
3 63 85 76
3 66 64 86
3 64 73 86
3 68 65 87
3 87 65 66
3 87 66 86
3 70 67 88
3 88 67 68
3 88 68 89
3 89 68 87
3 71 69 90
3 90 69 70
3 90 70 91
3 91 70 88
3 92 71 93
3 93 71 90
3 74 72 94
3 94 72 79
3 86 73 95
3 95 73 74
3 95 74 96
3 96 74 94
3 97 86 95
3 76 85 99
3 75 77 100
3 83 75 100
3 76 99 101
3 77 76 101
3 77 101 102
3 100 77 102
3 94 79 103
3 78 81 104
3 79 78 104
3 79 104 103
3 80 84 105
3 81 80 105
3 81 105 106
3 104 81 106
3 82 83 107
3 83 100 107
3 82 107 84
3 84 107 108
3 105 84 108
3 85 109 99
3 89 87 110
3 87 86 110
3 110 86 97
3 91 88 111
3 111 88 89
3 111 89 110
3 93 90 112
3 112 90 91
3 112 91 113
3 113 91 111
3 98 92 114
3 114 92 93
3 114 93 115
3 115 93 112
3 116 98 114
3 117 103 118
3 96 94 119
3 94 103 119
3 119 103 117
3 97 95 120
3 120 95 96
3 120 96 119
3 121 110 97
3 121 97 122
3 122 97 120
3 123 119 117
3 124 98 116
3 99 109 125
3 99 125 126
3 101 99 126
3 100 102 127
3 100 127 107
3 101 126 128
3 102 101 128
3 102 128 127
3 104 106 129
3 104 129 103
3 103 129 118
3 105 108 130
3 106 105 130
3 106 130 129
3 107 127 131
3 108 107 131
3 108 131 132
3 108 132 130
3 109 134 125
3 125 134 133
3 113 111 135
3 111 110 135
3 135 110 121
3 115 112 136
3 136 112 113
3 136 113 135
3 116 114 137
3 137 114 115
3 137 115 138
3 138 115 136
3 139 124 116
3 139 116 140
3 140 116 137
3 141 135 121
3 118 129 142
3 118 142 143
3 117 118 143
3 123 117 143
3 122 120 144
3 120 119 144
3 144 119 123
3 141 121 145
3 145 121 122
3 145 122 144
3 146 141 145
3 147 144 123
3 147 123 148
3 143 148 123
3 150 124 139
3 149 150 139
3 131 127 151
3 125 133 152
3 126 125 152
3 126 152 153
3 128 126 153
3 128 153 154
3 128 154 127
3 127 154 151
3 152 133 155
3 130 132 156
3 130 156 129
3 129 156 142
3 131 151 157
3 132 131 157
3 132 157 156
3 156 158 142
3 157 151 159
3 133 160 155
3 134 161 133
3 133 161 160
3 138 136 162
3 136 135 162
3 162 135 141
3 140 137 163
3 163 137 138
3 163 138 162
3 149 139 164
3 164 139 140
3 164 140 165
3 165 140 163
3 166 149 164
3 167 162 141
3 167 141 146
3 142 158 168
3 143 142 168
3 143 168 148
3 146 145 169
3 145 144 169
3 169 144 147
3 170 167 146
3 170 146 169
3 171 169 147
3 171 147 148
3 171 148 172
3 168 172 148
3 173 149 166
3 174 150 149
3 173 174 149
3 154 175 151
3 151 175 159
3 152 155 176
3 153 152 176
3 153 176 177
3 153 177 154
3 154 177 175
3 155 160 178
3 155 178 179
3 176 155 179
3 156 157 180
3 156 180 158
3 157 159 181
3 157 181 180
3 158 180 182
3 158 182 168
3 159 175 183
3 159 183 181
3 175 184 183
3 160 186 178
3 178 186 185
3 161 187 160
3 160 187 186
3 165 163 188
3 163 162 188
3 188 162 167
3 166 164 189
3 189 164 165
3 189 165 188
3 190 173 166
3 190 166 191
3 191 166 189
3 192 188 167
3 192 167 170
3 193 192 170
3 182 194 168
3 194 172 168
3 193 170 195
3 170 169 195
3 195 169 171
3 196 195 171
3 196 171 172
3 194 197 172
3 197 198 172
3 198 196 172
3 200 173 190
3 199 200 190
3 201 174 173
3 200 201 173
3 176 179 202
3 177 176 202
3 177 202 175
3 175 202 184
3 178 185 203
3 178 203 179
3 179 203 202
3 203 185 204
3 202 205 184
3 183 206 181
3 180 181 206
3 180 206 182
3 182 206 194
3 183 184 207
3 205 207 184
3 183 207 206
3 185 208 204
3 186 209 185
3 185 209 208
3 187 210 186
3 186 210 209
3 191 189 211
3 189 188 211
3 211 188 192
3 199 190 212
3 212 190 191
3 212 191 211
3 213 199 212
3 214 211 192
3 214 192 193
3 215 214 193
3 215 193 195
3 206 216 194
3 216 197 194
3 216 217 197
3 215 195 218
3 218 195 196
3 198 218 196
3 217 219 197
3 219 218 198
3 197 219 198
3 220 199 213
3 221 200 199
3 220 221 199
3 222 201 200
3 221 222 200
3 203 204 223
3 203 223 202
3 202 223 205
3 204 208 224
3 204 224 223
3 205 223 225
3 205 225 207
3 207 225 226
3 207 226 206
3 226 216 206
3 208 228 224
3 224 228 227
3 209 229 208
3 229 228 208
3 210 230 209
3 209 230 229
3 213 212 231
3 212 211 231
3 231 211 214
3 232 220 213
3 232 213 231
3 233 231 214
3 233 214 215
3 234 233 215
3 234 215 218
3 226 235 216
3 235 217 216
3 235 236 217
3 217 236 219
3 237 234 218
3 237 218 219
3 236 238 219
3 238 237 219
3 240 220 232
3 239 240 232
3 241 221 220
3 240 241 220
3 242 222 221
3 241 242 221
3 224 227 243
3 224 243 223
3 223 243 225
3 225 243 244
3 225 244 226
3 226 244 235
3 227 245 243
3 228 246 227
3 227 246 245
3 229 247 228
3 228 247 246
3 230 248 229
3 229 248 247
3 239 232 249
3 232 231 249
3 249 231 233
3 250 249 233
3 250 233 234
3 237 250 234
3 244 251 235
3 235 251 236
3 251 252 236
3 236 252 238
3 252 253 238
3 253 250 237
3 253 237 238
3 254 239 249
3 255 240 239
3 254 255 239
3 256 241 240
3 255 256 240
3 257 242 241
3 256 257 241
3 245 258 243
3 243 258 244
3 244 258 251
3 245 259 258
3 246 260 245
3 245 260 259
3 247 261 246
3 246 261 260
3 248 262 247
3 247 262 261
3 254 249 263
3 263 249 250
3 253 263 250
3 258 264 251
3 251 264 252
3 264 265 252
3 265 263 253
3 252 265 253
3 266 254 263
3 267 255 254
3 266 267 254
3 268 256 255
3 267 268 255
3 269 257 256
3 268 269 256
3 259 270 258
3 270 264 258
3 260 271 259
3 259 271 270
3 261 272 260
3 260 272 271
3 262 273 261
3 273 272 261
3 270 274 264
3 275 266 263
3 275 263 265
3 274 276 264
3 276 265 264
3 276 277 265
3 277 275 265
3 278 267 266
3 275 278 266
3 279 268 267
3 278 279 267
3 280 269 268
3 279 280 268
3 271 281 270
3 270 281 274
3 272 282 271
3 271 282 281
3 273 283 272
3 272 283 282
3 281 284 274
3 274 284 276
3 285 278 275
3 277 285 275
3 284 286 276
3 286 285 277
3 276 286 277
3 287 279 278
3 285 287 278
3 288 280 279
3 287 288 279
3 282 289 281
3 281 289 284
3 283 290 282
3 282 290 289
3 289 291 284
3 284 291 286
3 291 292 286
3 292 287 285
3 286 292 285
3 293 288 287
3 292 293 287
3 290 294 289
3 289 294 291
3 294 295 291
3 295 293 292
3 291 295 292
CELL_TYPES 542
5
5
5
5
5
5
5
5
5
5
5
5
5
5
5
5
5
5
5
5
5
5
5
5
5
5
5
5
5
5
5
5
5
5
5
5
5
5
5
5
5
5
5
5
5
5
5
5
5
5
5
5
5
5
5
5
5
5
5
5
5
5
5
5
5
5
5
5
5
5
5
5
5
5
5
5
5
5
5
5
5
5
5
5
5
5
5
5
5
5
5
5
5
5
5
5
5
5
5
5
5
5
5
5
5
5
5
5
5
5
5
5
5
5
5
5
5
5
5
5
5
5
5
5
5
5
5
5
5
5
5
5
5
5
5
5
5
5
5
5
5
5
5
5
5
5
5
5
5
5
5
5
5
5
5
5
5
5
5
5
5
5
5
5
5
5
5
5
5
5
5
5
5
5
5
5
5
5
5
5
5
5
5
5
5
5
5
5
5
5
5
5
5
5
5
5
5
5
5
5
5
5
5
5
5
5
5
5
5
5
5
5
5
5
5
5
5
5
5
5
5
5
5
5
5
5
5
5
5
5
5
5
5
5
5
5
5
5
5
5
5
5
5
5
5
5
5
5
5
5
5
5
5
5
5
5
5
5
5
5
5
5
5
5
5
5
5
5
5
5
5
5
5
5
5
5
5
5
5
5
5
5
5
5
5
5
5
5
5
5
5
5
5
5
5
5
5
5
5
5
5
5
5
5
5
5
5
5
5
5
5
5
5
5
5
5
5
5
5
5
5
5
5
5
5
5
5
5
5
5
5
5
5
5
5
5
5
5
5
5
5
5
5
5
5
5
5
5
5
5
5
5
5
5
5
5
5
5
5
5
5
5
5
5
5
5
5
5
5
5
5
5
5
5
5
5
5
5
5
5
5
5
5
5
5
5
5
5
5
5
5
5
5
5
5
5
5
5
5
5
5
5
5
5
5
5
5
5
5
5
5
5
5
5
5
5
5
5
5
5
5
5
5
5
5
5
5
5
5
5
5
5
5
5
5
5
5
5
5
5
5
5
5
5
5
5
5
5
5
5
5
5
5
5
5
5
5
5
5
5
5
5
5
5
5
5
5
5
5
5
5
5
5
5
5
5
5
5
5
5
5
5
5
5
5
5
5
5
5
5
5
5
5
5
5
5
5
5
5
5
5
5
5
5
5
5
5
5
5
5
5
5
5
5
5
5
5
5
5
5
5
5
5
5
5
5
5
5
5
5
5
5
5
5
5
5
5
5
5
5
5
5
POINT_DATA 296
SCALARS concentrations float 4
LOOKUP_TABLE default
0 0.989779 0.194698 25.1683
0 0.989838 0.190016 19.5373
0 0.989719 0.187749 28.3535
0 0.989788 0.182126 30.0453
0 0.989747 0.095576 7.67278
0 0.989821 0.194119 19.2008
0 0.989723 0.18336 30.0728
0 0.989813 0.0972274 6.4169
0 0.989848 0.0971342 7.72597
0 0.989796 0.193702 19.2876
0 0.989984 0.186269 17.0048
0 0.989837 0.187501 25.8419
0 0.989799 0.187518 21.2247
0 0.989739 0.0955316 7.19227
0 0.9898 0.0951968 7.68612
0 0.989765 0.0955566 6.83609
0 0.989793 0.100601 7.78126
0 0.989796 0.0956088 7.29734
0 0.989771 0.0940009 7.52128
0 0.989822 0.095539 7.55623
0 0.989833 0.0995473 4.75915
0 0.990027 0.183424 10.684
0 0.989829 0.196621 23.2181
0 0.989877 0.0939371 6.81124
0 0.98998 0.0944096 7.16689
0 0.989826 0.0950512 7.6259
0 0.989751 0.180672 20.2379
0 0.989805 0.0939664 7.6381
0 0.989823 0.187838 28.5676
0 0.989765 0.094785 7.07315
0 0.9898 0.0947543 7.58393
0 0.989788 0.0949283 6.85807
0 0.989784 0.190441 23.4941
0 0.989799 0.0962098 6.56637
0 0.98981 0.0948903 7.33381
0 0.989827 0.0957262 6.97239
0 0.989834 0.0953383 6.64576
0 0.989816 0.097857 8.6269
0 0.989819 0.0974548 6.92222
0 0.989905 0.0945641 8.1327
0 0.989792 0.0947985 6.26909
0 0.989864 0.0947811 7.73858
0 0.989866 0.097736 8.4989
0 0.989839 0.193837 24.6743
0 0.989848 0.0952612 7.37064
0 0.989828 0.0947635 7.33889
0 0.989875 0.0985127 4.86741
0 0.989764 0.179168 12.0151
0 0.989829 0.094939 7.43069
0 0.989804 0.185796 32.3175
0 0.989797 0.0942656 7.26703
0 0.989817 0.0944602 7.46077
0 0.989795 0.0948631 7.05259
0 0.989799 0.0936947 7.56301
0 0.989863 0.0947442 8.08166
0 0.989805 0.0956793 6.09181
0 0.989818 0.0947735 7.47812
0 0.989828 0.0970743 6.9543
0 0.989807 0.0945273 7.50002
0 0.989836 0.101748 9.60518
0 0.989805 0.0949317 8.17944
0 0.989827 0.0951995 6.87922
0 0.989822 0.0998686 7.01549
0 0.989934 0.192703 11.869
0 0.989837 0.0940144 7.55568
0 0.989877 0.0991422 7.08975
0 0.989851 0.0951435 7.91143
0 0.989772 0.0954549 7.37087
0 0.989835 0.106569 5.69623
0 0.989955 0.188971 20.6397
0 0.989856 0.0954853 7.44936
0 0.989894 0.185248 14.3754
0 0.989799 0.0943606 6.65861
0 0.989806 0.0947062 7.51298
0 0.989801 0.0949177 6.91466
0 0.989817 0.0948675 8.0389
0 0.989894 0.0954412 8.21546
0 0.989836 0.095056 7.94869
0 0.989807 0.0942538 6.49695
0 0.98983 0.0959594 7.10016
0 0.98982 0.0979462 5.36207
0 0.989818 0.0956205 7.68048
0 0.989818 0.096739 5.9667
0 0.989823 0.0952751 6.88186
0 0.989823 0.0971208 6.60641
0 0.989937 0.187561 19.6385
0 0.989819 0.0962616 7.8476
0 0.989842 0.0957708 7.55362
0 0.989794 0.0954013 7.20627
0 0.989818 0.0951894 7.29212
0 0.989878 0.0947756 7.2329
0 0.989808 0.0959305 7.17765
0 0.989933 0.179651 29.477
0 0.989849 0.0962572 6.84669
0 0.989834 0.0941058 6.88907
0 0.989813 0.0943875 7.20837
0 0.989825 0.0938644 6.84313
0 0.989822 0.0951306 7.77609
0 0.990021 0.183868 20.4273
0 0.989904 0.0957396 6.3957
0 0.989825 0.0994276 6.5966
0 0.989832 0.0966863 7.20823
0 0.989824 0.0968556 7.7889
0 0.98986 0.0960413 7.00785
0 0.989841 0.0945432 6.91639
0 0.989836 0.095988 8.03286
0 0.98985 0.0931247 7.03606
0 0.989821 0.0947536 7.76395
0 0.989831 0.0944607 7.16855
0 0.990016 0.18788 18.4602
0 0.989818 0.0946363 7.46236
0 0.98981 0.0950935 7.18291
0 0.989807 0.0962161 7.23441
0 0.989816 0.0953839 7.10942
0 0.98992 0.0950686 6.97684
0 0.98981 0.096203 6.09521
0 0.989955 0.0945823 6.73845
0 0.989877 0.0934527 6.65535
0 0.989868 0.0931827 6.67142
0 0.989861 0.0956107 7.54968
0 0.989838 0.0951936 7.72009
0 0.989826 0.0944446 7.07004
0 0.989832 0.0953842 7.33908
0 0.989882 0.0943545 7.24538
0 0.989994 0.191144 10.1859
0 0.989936 0.0954544 7.18205
0 0.989808 0.097132 8.01987
0 0.989818 0.0946781 7.42074
0 0.989808 0.100081 8.02687
0 0.989859 0.0949919 7.18688
0 0.989849 0.0951679 7.41712
0 0.98982 0.0936055 7.65274
0 0.989832 0.0930862 7.32286
0 0.989914 0.096559 7.59472
0 0.990039 0.185143 21.1799
0 0.989822 0.0949017 6.97322
0 0.989808 0.0953569 7.04551
0 0.989846 0.102834 6.95724
0 0.989817 0.0959791 6.91132
0 0.989908 0.0941926 7.32575
0 0.989866 0.0950594 7.24045
0 0.989821 0.0959444 6.43764
0 0.989873 0.0927393 6.97833
0 0.989889 0.0933461 6.73225
0 0.98985 0.0961339 7.09759
0 0.989833 0.094012 7.55599
0 0.989835 0.0949859 7.28663
0 0.989873 0.0985143 6.69842
0 0.98989 0.094079 6.79045
0 0.989872 0.0940179 7.3303
0 0.989893 0.187671 21.2786
0 0.989814 0.094375 6.79504
0 0.989797 0.0988944 7.233
0 0.989793 0.094113 6.85333
0 0.989808 0.0943827 7.61957
0 0.989791 0.0945612 7.23676
0 0.989856 0.0925136 7.1832
0 0.989837 0.102093 6.11317
0 0.98987 0.0936482 7.77041
0 0.989831 0.0937179 7.4956
0 0.989869 0.0964957 6.85184
0 0.989974 0.183695 27.6634
0 0.989823 0.0941734 7.06201
0 0.989847 0.0961619 6.75394
0 0.989869 0.0947334 7.21566
0 0.989862 0.0964171 6.73268
0 0.989862 0.0943536 7.32742
0 0.989826 0.0932273 7.20652
0 0.989879 0.0969885 7.15166
0 0.98986 0.0954029 6.57067
0 0.989857 0.0941387 7.40722
0 0.989886 0.0944996 6.99024
0 0.989887 0.0929075 7.59208
0 0.98989 0.0943743 7.46347
0 0.989892 0.191981 17.4718
0 0.989821 0.094511 6.57386
0 0.989804 0.096 7.01807
0 0.989817 0.0980861 8.00309
0 0.9898 0.0942048 7.10247
0 0.989806 0.102453 8.26776
0 0.989865 0.0950266 8.06616
0 0.989854 0.0951993 7.53859
0 0.989868 0.093892 7.76695
0 0.989837 0.0968513 6.9291
0 0.989828 0.0937685 7.52072
0 0.989803 0.0936756 7.54443
0 0.989819 0.093675 7.20381
0 0.989893 0.188957 20.0393
0 0.989845 0.0949066 6.91916
0 0.989863 0.094575 7.08509
0 0.989861 0.0946805 7.39154
0 0.989856 0.0951925 6.97991
0 0.98985 0.0937375 7.11766
0 0.989865 0.0930761 7.16119
0 0.989874 0.0936553 7.85776
0 0.989875 0.0936006 7.41702
0 0.989892 0.0931697 6.84293
0 0.989876 0.0928597 7.23184
0 0.989885 0.0977852 7.0964
0 0.989868 0.094331 6.9382
0 0.989893 0.0940415 7.30805
0 0.989915 0.192151 25.4894
0 0.989825 0.0935009 6.89139
0 0.989821 0.102303 8.92448
0 0.989813 0.0967139 8.02082
0 0.989838 0.0964267 7.46346
0 0.989856 0.0935224 7.81508
0 0.98984 0.0940851 7.33002
0 0.989792 0.093781 7.07901
0 0.989799 0.0933831 7.27488
0 0.989803 0.181975 18.735
0 0.989856 0.0946058 7.37289
0 0.989854 0.0950479 7.02268
0 0.98986 0.0953794 6.75511
0 0.989858 0.09485 7.26269
0 0.989867 0.0938717 7.8493
0 0.989864 0.0931133 6.92151
0 0.989864 0.0931882 6.7749
0 0.989873 0.0929169 7.47208
0 0.989863 0.0934557 6.80783
0 0.989864 0.0941186 7.31136
0 0.989896 0.0933386 6.97004
0 0.989907 0.178215 11.2984
0 0.989837 0.0949841 7.26072
0 0.989824 0.101806 7.35978
0 0.989841 0.0940566 7.25442
0 0.989848 0.0933311 7.31861
0 0.989847 0.100427 5.99494
0 0.989806 0.0948927 7.30252
0 0.989834 0.0941888 7.14109
0 0.989849 0.184056 30.8099
0 0.989851 0.0947474 6.94404
0 0.989855 0.0949169 6.48834
0 0.98985 0.0943478 6.86153
0 0.989859 0.0932913 6.69015
0 0.989848 0.0927845 7.07081
0 0.989845 0.0931882 7.17066
0 0.98985 0.0932811 6.78788
0 0.989843 0.0931901 6.89937
0 0.989861 0.0940756 6.88826
0 0.989846 0.0941035 7.26019
0 0.989858 0.0937371 6.95658
0 0.98991 0.179969 29.0807
0 0.989844 0.0983706 6.56544
0 0.989841 0.0939796 6.72106
0 0.989851 0.0962154 6.66323
0 0.98983 0.0946012 7.06151
0 0.989785 0.0935391 7.2758
0 0.989839 0.190554 21.9412
0 0.989846 0.0944323 6.69564
0 0.989841 0.0930355 6.73595
0 0.989835 0.0940815 7.46892
0 0.98983 0.0928803 7.27368
0 0.989834 0.0928274 7.01627
0 0.98987 0.0942466 7.27795
0 0.989846 0.0941505 7.41743
0 0.989748 0.0932042 7.45038
0 0.989787 0.189525 17.436
0 0.989839 0.0951092 7.30399
0 0.989848 0.0939729 6.77598
0 0.989847 0.0942184 7.05568
0 0.989774 0.0931757 7.13493
0 0.989728 0.185926 28.4886
0 0.989845 0.0941595 7.02932
0 0.989833 0.0930264 7.24786
0 0.989838 0.0934114 7.1342
0 0.989882 0.0946741 6.56067
0 0.989872 0.0939262 7.56725
0 0.989722 0.0935073 7.34763
0 0.989625 0.177732 35.6087
0 0.989842 0.0942964 7.25696
0 0.98985 0.094094 7.23032
0 0.98981 0.0929368 7.19713
0 0.989763 0.184908 16.7987
0 0.989849 0.0946722 6.94195
0 0.989871 0.0945031 6.5716
0 0.989854 0.0935984 7.36013
0 0.989874 0.0937884 7.64406
0 0.989897 0.0958242 6.61658
0 0.989777 0.0938566 7.43084
0 0.989668 0.18825 22.3326
0 0.989843 0.0942875 7.19099
0 0.989791 0.0934475 7.24717
0 0.989763 0.189122 24.7277
0 0.989863 0.0946423 7.19978
0 0.989919 0.0954185 7.86967
0 0.989909 0.0951567 7.2916
0 0.989828 0.0944009 7.23765
0 0.989709 0.176274 29.9866
0 0.98975 0.0945281 7.32701
0 0.989715 0.188001 26.1791
0 0.989828 0.0940143 7.61163
0 0.989917 0.0944541 7.42851
0 0.989837 0.178864 19.576
0 0.989689 0.181503 29.122
0 0.989864 0.178961 14.8772
VECTORS fa_u float
0.00622884 0.00255917 -0
0.00593468 0.00342266 -0
0.00556211 0.00149362 -0
0.00652996 0.000890132 -0
1e-08 0 0
0.00519272 0.00399242 -0
0.00404269 0.00401363 -0
1e-08 0 0
1e-08 0 0
0.00419788 0.0053952 -0
0.00358556 0.00617501 -0
0.00659143 2.83155e-05 -0
0.00636534 -0.000806328 0
1e-08 0 0
1e-08 0 0
1e-08 0 0
1e-08 0 0
1e-08 0 0
1e-08 0 0
1e-08 0 0
1e-08 0 0
0.00259417 0.00629071 -0
0.00166255 0.00626705 -0
1e-08 0 0
1e-08 0 0
1e-08 0 0
0.00689066 -0.00182516 0
1e-08 0 0
0.00685664 -0.00287453 0
1e-08 0 0
1e-08 0 0
1e-08 0 0
0.000852318 0.00660833 -0
1e-08 0 0
1e-08 0 0
1e-08 0 0
1e-08 0 0
1e-08 0 0
1e-08 0 0
1e-08 0 0
1e-08 0 0
1e-08 0 0
1e-08 0 0
-2.98561e-05 0.00680536 -0
1e-08 0 0
1e-08 0 0
1e-08 0 0
0.00565444 -0.00333009 0
1e-08 0 0
0.0046147 -0.00357661 0
1e-08 0 0
1e-08 0 0
1e-08 0 0
1e-08 0 0
1e-08 0 0
1e-08 0 0
1e-08 0 0
1e-08 0 0
1e-08 0 0
1e-08 0 0
1e-08 0 0
1e-08 0 0
1e-08 0 0
-0.000805794 0.00598302 0
1e-08 0 0
1e-08 0 0
1e-08 0 0
1e-08 0 0
1e-08 0 0
0.00434208 -0.0043337 0
1e-08 0 0
0.00368347 -0.00474059 0
1e-08 0 0
1e-08 0 0
1e-08 0 0
1e-08 0 0
1e-08 0 0
1e-08 0 0
1e-08 0 0
1e-08 0 0
1e-08 0 0
1e-08 0 0
1e-08 0 0
1e-08 0 0
1e-08 0 0
-0.00162059 0.00607698 0
1e-08 0 0
1e-08 0 0
1e-08 0 0
1e-08 0 0
1e-08 0 0
1e-08 0 0
0.00371251 -0.00635588 0
1e-08 0 0
1e-08 0 0
1e-08 0 0
1e-08 0 0
1e-08 0 0
0.00270798 -0.00656609 0
1e-08 0 0
1e-08 0 0
1e-08 0 0
1e-08 0 0
1e-08 0 0
1e-08 0 0
1e-08 0 0
1e-08 0 0
1e-08 0 0
1e-08 0 0
-0.00255957 0.00621131 0
1e-08 0 0
1e-08 0 0
1e-08 0 0
1e-08 0 0
1e-08 0 0
1e-08 0 0
1e-08 0 0
1e-08 0 0
1e-08 0 0
1e-08 0 0
1e-08 0 0
1e-08 0 0
1e-08 0 0
1e-08 0 0
0.00163877 -0.00620163 0
1e-08 0 0
1e-08 0 0
1e-08 0 0
1e-08 0 0
1e-08 0 0
1e-08 0 0
1e-08 0 0
1e-08 0 0
1e-08 0 0
-0.00337639 0.0058484 0
1e-08 0 0
1e-08 0 0
1e-08 0 0
1e-08 0 0
1e-08 0 0
1e-08 0 0
1e-08 0 0
1e-08 0 0
1e-08 0 0
1e-08 0 0
1e-08 0 0
1e-08 0 0
1e-08 0 0
1e-08 0 0
1e-08 0 0
0.00076503 -0.00575819 0
1e-08 0 0
1e-08 0 0
1e-08 0 0
1e-08 0 0
1e-08 0 0
1e-08 0 0
1e-08 0 0
1e-08 0 0
1e-08 0 0
1e-08 0 0
-0.00407296 0.0052914 0
1e-08 0 0
1e-08 0 0
1e-08 0 0
1e-08 0 0
1e-08 0 0
1e-08 0 0
1e-08 0 0
1e-08 0 0
1e-08 0 0
1e-08 0 0
1e-08 0 0
1e-08 0 0
2.19212e-05 -0.0069164 0
1e-08 0 0
1e-08 0 0
1e-08 0 0
1e-08 0 0
1e-08 0 0
1e-08 0 0
1e-08 0 0
1e-08 0 0
1e-08 0 0
1e-08 0 0
1e-08 0 0
1e-08 0 0
-0.00409439 0.00410959 0
1e-08 0 0
1e-08 0 0
1e-08 0 0
1e-08 0 0
1e-08 0 0
1e-08 0 0
1e-08 0 0
1e-08 0 0
1e-08 0 0
1e-08 0 0
1e-08 0 0
1e-08 0 0
1e-08 0 0
-0.000845927 -0.00649607 0
1e-08 0 0
1e-08 0 0
1e-08 0 0
1e-08 0 0
1e-08 0 0
1e-08 0 0
1e-08 0 0
1e-08 0 0
-0.00515768 0.00400657 0
1e-08 0 0
1e-08 0 0
1e-08 0 0
1e-08 0 0
1e-08 0 0
1e-08 0 0
1e-08 0 0
1e-08 0 0
1e-08 0 0
1e-08 0 0
1e-08 0 0
-0.0016862 -0.00632896 0
1e-08 0 0
1e-08 0 0
1e-08 0 0
1e-08 0 0
1e-08 0 0
1e-08 0 0
1e-08 0 0
-0.0061481 0.00357691 0
1e-08 0 0
1e-08 0 0
1e-08 0 0
1e-08 0 0
1e-08 0 0
1e-08 0 0
1e-08 0 0
1e-08 0 0
1e-08 0 0
1e-08 0 0
1e-08 0 0
-0.00255687 -0.0061858 0
1e-08 0 0
1e-08 0 0
1e-08 0 0
1e-08 0 0
1e-08 0 0
-0.00634521 0.00262163 0
1e-08 0 0
1e-08 0 0
1e-08 0 0
1e-08 0 0
1e-08 0 0
1e-08 0 0
1e-08 0 0
1e-08 0 0
-0.00368783 -0.00633427 0
1e-08 0 0
1e-08 0 0
1e-08 0 0
1e-08 0 0
-0.00628892 0.00167022 0
1e-08 0 0
1e-08 0 0
1e-08 0 0
1e-08 0 0
1e-08 0 0
1e-08 0 0
-0.0037904 -0.00488368 0
1e-08 0 0
1e-08 0 0
1e-08 0 0
-0.0065768 0.0008501 0
1e-08 0 0
1e-08 0 0
1e-08 0 0
1e-08 0 0
1e-08 0 0
1e-08 0 0
-0.00418649 -0.00418434 0
1e-08 0 0
1e-08 0 0
-0.00696296 -3.25656e-05 0
1e-08 0 0
1e-08 0 0
1e-08 0 0
1e-08 0 0
-0.00540569 -0.00416321 0
1e-08 0 0
-0.00568928 -0.000763642 0
1e-08 0 0
1e-08 0 0
-0.00580076 -0.00334747 0
-0.00619751 -0.00164334 0
-0.00629651 -0.00259228 0
