# vtk DataFile Version 2.0
CellBP Time: 2.68
ASCII
DATASET UNSTRUCTURED_GRID
POINTS 296 double
-9.09487 -3.73301 0
-8.52489 -4.89813 0
-9.50382 -2.50066 0
-9.76657 -1.2389 0
-8.25741 -2.77539 0
-7.80123 -5.97669 0
-6.94395 -6.95216 0
-7.81687 -3.82013 0
-7.24801 -4.80544 0
-5.98387 -7.8174 0
-4.91814 -8.54519 0
-9.86111 0.0449612 0
-9.78679 1.33895 0
-8.56663 -1.66012 0
-8.70468 -0.521005 0
-7.49363 -1.96941 0
-7.12606 -2.85803 0
-6.56267 -5.71864 0
-5.76602 -6.54084 0
-6.69575 -3.83129 0
-6.13904 -4.61821 0
-3.75407 -9.1185 0
-2.51927 -9.53147 0
-4.8699 -7.25184 0
-3.88974 -7.83365 0
-8.71643 0.635989 0
-9.54502 2.62001 0
-8.55511 1.75477 0
-9.12882 3.85023 0
-7.65645 -0.911268 0
-7.71386 0.0830563 0
-6.86717 -1.29167 0
-1.24045 -9.78019 0
-6.36361 -2.12014 0
-6.23886 -3.01203 0
-5.47251 -5.41855 0
-4.74739 -6.05987 0
-5.58933 -3.71005 0
-5.20387 -4.50855 0
-2.84865 -8.30558 0
-1.76637 -8.57197 0
-3.89844 -6.67251 0
-3.03963 -7.10235 0
0.0523574 -9.85604 0
-7.63149 1.13263 0
-8.28274 2.89499 0
-7.48198 2.08779 0
-8.53617 5.00312 0
-7.81244 3.94088 0
-7.79791 6.07125 0
-6.70207 -0.386838 0
-6.88114 0.549328 0
-5.71077 -0.992308 0
-0.587638 -8.73873 0
0.558295 -8.68642 0
-5.24589 -2.45078 0
-4.43876 -5.04401 0
-3.86327 -5.72548 0
-4.39351 -3.76723 0
-2.04795 -7.5083 0
-1.12768 -7.72453 0
-2.96899 -6.05247 0
-2.29348 -6.57226 0
1.33838 -9.7582 0
-6.62432 1.40592 0
-7.10077 3.08339 0
-6.59609 2.34647 0
-7.2249 4.93507 0
-6.65261 3.95884 0
-6.94283 7.04047 0
-6.50794 5.83045 0
-5.97465 7.90093 0
-4.42202 -1.17336 0
-5.76343 0.505352 0
-4.6251 -0.0163891 0
0.000937985 -7.77541 0
1.71333 -8.54889 0
0.930228 -7.68092 0
-4.00842 -2.38611 0
-3.47452 -1.38674 0
-3.2672 -4.76446 0
-3.24796 -3.24471 0
-1.37245 -6.61946 0
-0.513393 -6.96032 0
-1.96477 -5.49667 0
2.60838 -9.50599 0
-5.46004 2.01895 0
-6.03612 3.03815 0
-6.04442 4.81351 0
-5.70547 3.94579 0
-5.7011 6.64433 0
-5.39563 5.55465 0
-4.91003 8.6378 0
-4.78612 7.31978 0
-3.48664 -0.422294 0
-4.41615 1.23949 0
-3.69125 0.589278 0
-4.03014 2.30991 0
-3.7502 9.21236 0
2.82084 -8.22801 0
0.401703 -6.72321 0
1.98792 -7.43354 0
1.27764 -6.8232 0
-2.43732 -0.870456 0
-2.82912 -2.12194 0
-2.28328 -4.07107 0
-2.31606 -2.9579 0
-0.446964 -5.8077 0
-1.21577 -4.47218 0
3.83678 -9.09593 0
-4.74891 3.36128 0
-5.03709 4.5406 0
-4.59667 6.20577 0
-4.4933 5.29779 0
-3.80902 7.91421 0
-3.78341 6.76148 0
-2.75555 8.33392 0
-1.64379 -0.13364 0
-1.44546 -0.885603 0
-2.4813 0.510882 0
-3.23515 1.44174 0
-3.21492 3.29505 0
-2.89313 2.36746 0
-1.35194 0.630821 0
-2.51818 9.61938 0
3.88084 -7.78743 0
2.91558 -7.05744 0
0.93314 -5.75723 0
2.035 -6.3322 0
-1.67704 -1.98602 0
-1.42641 -3.26142 0
0.0843462 -4.70718 0
-0.56045 -3.67467 0
4.87169 -7.22513 0
4.99861 -8.52575 0
-3.74252 4.50857 0
-3.69772 5.68773 0
-2.85365 7.2059 0
-2.97855 6.28167 0
-1.64845 8.65005 0
-1.91584 7.54152 0
-2.32342 4.02244 0
-0.727831 -1.32367 0
-0.834495 -0.25453 0
-1.9336 1.68539 0
-2.11572 2.86768 0
-1.30341 3.53033 0
-0.870206 1.35516 0
-0.281879 0.459966 0
-0.529705 8.79518 0
-1.24367 9.867 0
1.09811 -4.53008 0
3.84821 -6.61425 0
2.9411 -6.01001 0
2.08613 -5.35976 0
4.72463 -6.1161 0
-0.553536 -2.46923 0
0.492992 -3.44329 0
0.0540635 -1.60859 0
1.46671 -3.65087 0
5.80391 -6.5316 0
6.07672 -7.80343 0
-2.45349 5.29715 0
-2.10436 6.46522 0
-0.891373 7.7339 0
-1.25221 6.86268 0
0.089693 7.81797 0
-1.13636 4.46449 0
0.150178 -0.614345 0
-0.80089 2.49156 0
-0.336986 3.5909 0
0.0600839 1.51465 0
0.738471 0.474674 0
0.643338 8.80935 0
0.0471804 9.96303 0
2.35436 -4.23723 0
3.80841 -5.55868 0
2.96028 -5.14483 0
5.51864 -5.42163 0
4.63528 -5.2064 0
0.630906 -2.29014 0
1.24895 -2.93419 0
0.757251 -1.38887 0
2.1462 -3.1112 0
2.96768 -3.44039 0
6.1005 -4.73699 0
6.5945 -5.70642 0
7.04938 -6.9426 0
-1.00749 5.77074 0
-0.3624 6.82091 0
1.11577 7.71129 0
0.559193 7.02217 0
-1.42364e-05 4.69748 0
0.60033 3.80993 0
1.33585 -0.641649 0
0.533475 2.64652 0
0.960404 1.5739 0
1.90448 0.212512 0
1.60804 1.06423 0
2.11927 7.53211 0
1.78881 8.65075 0
1.34346 9.88233 0
3.78113 -4.29726 0
5.0661 -4.3875 0
5.7963 -3.88848 0
3.75318 -3.16846 0
1.80652 -1.88147 0
2.99904 -2.55599 0
6.73391 -3.90899 0
7.32503 -4.85249 0
7.91243 -5.97843 0
0.484245 5.83725 0
1.42195 6.69355 0
2.36183 6.62424 0
1.2017 4.52974 0
1.47958 3.38285 0
2.42599 -0.690519 0
2.81615 0.143311 0
1.78103 2.15867 0
2.60351 1.14688 0
3.05472 7.12139 0
2.88649 8.32022 0
2.62092 9.63131 0
4.86966 -3.28772 0
6.07391 -3.07545 0
4.14493 -2.25903 0
3.22716 -1.49631 0
6.68808 -2.29767 0
7.18531 -3.02182 0
7.91121 -3.88899 0
8.64314 -4.9143 0
2.0136 5.56248 0
3.05921 6.10949 0
2.35449 4.10317 0
2.40855 3.04665 0
3.50695 -0.458918 0
3.59876 0.613698 0
2.94729 2.2778 0
3.52517 1.51839 0
3.97139 5.85292 0
3.95359 6.74415 0
3.95153 7.88588 0
3.85416 9.21669 0
5.53228 -1.90291 0
4.48222 -1.12297 0
6.66715 -1.32616 0
7.5418 -2.01978 0
8.34043 -2.84451 0
9.21751 -3.75179 0
3.3862 4.83938 0
3.31328 3.36329 0
4.66219 0.132105 0
4.4832 1.29852 0
4.02812 2.42471 0
4.51472 5.10558 0
4.79695 6.13967 0
4.94169 7.32622 0
5.01674 8.64224 0
5.84077 -0.433871 0
6.95333 -0.486942 0
7.70474 -1.07543 0
8.62384 -1.73447 0
9.63123 -2.51759 0
4.50177 3.79172 0
5.76192 1.08096 0
5.30978 2.50586 0
5.30969 4.57185 0
5.54729 5.47109 0
5.83977 6.61391 0
6.08051 7.91235 0
6.78108 0.450414 0
7.78607 -0.0282136 0
8.7959 -0.577604 0
9.88036 -1.23907 0
6.88739 1.32558 0
5.64669 3.73415 0
6.46554 2.16435 0
6.29846 3.04639 0
6.21077 4.63334 0
6.61893 5.77836 0
7.0473 7.05251 0
7.71199 0.953035 0
8.78378 0.566538 0
9.95831 0.0558178 0
7.5329 1.97489 0
6.73296 3.85028 0
7.17789 2.90465 0
7.29376 4.83121 0
7.9086 6.08098 0
8.63472 1.70668 0
9.85903 1.34191 0
8.32351 2.79972 0
7.89177 3.86889 0
8.63057 5.0032 0
9.60919 2.61264 0
9.20056 3.8411 0
CELLS 542 2168
3 2 0 4
3 0 1 7
3 4 0 7
3 1 5 8
3 7 1 8
3 3 2 13
3 13 2 4
3 11 3 14
3 14 3 13
3 13 4 15
3 4 7 16
3 15 4 16
3 5 6 17
3 8 5 17
3 6 9 18
3 17 6 18
3 7 8 19
3 16 7 19
3 8 17 20
3 19 8 20
3 9 10 23
3 18 9 23
3 10 21 24
3 23 10 24
3 12 11 25
3 25 11 14
3 26 12 27
3 27 12 25
3 14 13 29
3 29 13 15
3 25 14 30
3 30 14 29
3 29 15 31
3 15 16 33
3 31 15 33
3 16 19 34
3 33 16 34
3 17 18 35
3 20 17 35
3 18 23 36
3 35 18 36
3 19 20 37
3 34 19 37
3 20 35 38
3 37 20 38
3 21 22 39
3 24 21 39
3 22 32 40
3 39 22 40
3 23 24 41
3 36 23 41
3 24 39 42
3 41 24 42
3 27 25 44
3 44 25 30
3 28 26 45
3 45 26 27
3 45 27 46
3 46 27 44
3 47 28 48
3 48 28 45
3 30 29 50
3 50 29 31
3 44 30 51
3 51 30 50
3 50 31 52
3 31 33 52
3 32 43 53
3 40 32 53
3 53 43 54
3 33 34 55
3 34 37 55
3 33 55 52
3 35 36 56
3 38 35 56
3 36 41 57
3 56 36 57
3 37 38 58
3 38 56 58
3 37 58 55
3 39 40 59
3 42 39 59
3 40 53 60
3 59 40 60
3 41 42 61
3 57 41 61
3 42 59 62
3 61 42 62
3 43 63 54
3 46 44 64
3 64 44 51
3 48 45 65
3 65 45 46
3 65 46 66
3 66 46 64
3 49 47 67
3 67 47 48
3 67 48 68
3 68 48 65
3 69 49 70
3 70 49 67
3 52 55 72
3 64 51 73
3 51 50 73
3 50 52 73
3 73 52 74
3 74 52 72
3 53 54 75
3 60 53 75
3 54 63 76
3 54 76 77
3 75 54 77
3 55 58 78
3 72 55 78
3 72 78 79
3 56 57 80
3 57 61 80
3 56 80 58
3 58 80 81
3 78 58 81
3 59 60 82
3 62 59 82
3 60 75 83
3 82 60 83
3 61 62 84
3 62 82 84
3 61 84 80
3 63 85 76
3 66 64 86
3 64 73 86
3 68 65 87
3 87 65 66
3 87 66 86
3 70 67 88
3 88 67 68
3 88 68 89
3 89 68 87
3 71 69 90
3 90 69 70
3 90 70 91
3 91 70 88
3 92 71 93
3 93 71 90
3 74 72 94
3 94 72 79
3 86 73 95
3 95 73 74
3 95 74 96
3 96 74 94
3 97 86 95
3 76 85 99
3 75 77 100
3 83 75 100
3 76 99 101
3 77 76 101
3 77 101 102
3 100 77 102
3 94 79 103
3 78 81 104
3 79 78 104
3 79 104 103
3 80 84 105
3 81 80 105
3 81 105 106
3 104 81 106
3 82 83 107
3 83 100 107
3 82 107 84
3 84 107 108
3 105 84 108
3 85 109 99
3 89 87 110
3 87 86 110
3 110 86 97
3 91 88 111
3 111 88 89
3 111 89 110
3 93 90 112
3 112 90 91
3 112 91 113
3 113 91 111
3 98 92 114
3 114 92 93
3 114 93 115
3 115 93 112
3 116 98 114
3 117 103 118
3 96 94 119
3 94 103 119
3 119 103 117
3 97 95 120
3 120 95 96
3 120 96 119
3 121 110 97
3 121 97 122
3 122 97 120
3 123 119 117
3 124 98 116
3 99 109 125
3 99 125 126
3 101 99 126
3 100 102 127
3 100 127 107
3 101 126 128
3 102 101 128
3 102 128 127
3 104 106 129
3 104 129 103
3 103 129 118
3 105 108 130
3 106 105 130
3 106 130 129
3 107 127 131
3 108 107 131
3 108 131 132
3 108 132 130
3 109 134 125
3 125 134 133
3 113 111 135
3 111 110 135
3 135 110 121
3 115 112 136
3 136 112 113
3 136 113 135
3 116 114 137
3 137 114 115
3 137 115 138
3 138 115 136
3 139 124 116
3 139 116 140
3 140 116 137
3 141 135 121
3 118 129 142
3 118 142 143
3 117 118 143
3 123 117 143
3 122 120 144
3 120 119 144
3 144 119 123
3 141 121 145
3 145 121 122
3 145 122 144
3 146 141 145
3 147 144 123
3 147 123 148
3 143 148 123
3 150 124 139
3 149 150 139
3 131 127 151
3 125 133 152
3 126 125 152
3 126 152 153
3 128 126 153
3 128 153 154
3 128 154 127
3 127 154 151
3 152 133 155
3 130 132 156
3 130 156 129
3 129 156 142
3 131 151 157
3 132 131 157
3 132 157 156
3 156 158 142
3 157 151 159
3 133 160 155
3 134 161 133
3 133 161 160
3 138 136 162
3 136 135 162
3 162 135 141
3 140 137 163
3 163 137 138
3 163 138 162
3 149 139 164
3 164 139 140
3 164 140 165
3 165 140 163
3 166 149 164
3 167 162 141
3 167 141 146
3 142 158 168
3 143 142 168
3 143 168 148
3 146 145 169
3 145 144 169
3 169 144 147
3 170 167 146
3 170 146 169
3 171 169 147
3 171 147 148
3 171 148 172
3 168 172 148
3 173 149 166
3 174 150 149
3 173 174 149
3 154 175 151
3 151 175 159
3 152 155 176
3 153 152 176
3 153 176 177
3 153 177 154
3 154 177 175
3 155 160 178
3 155 178 179
3 176 155 179
3 156 157 180
3 156 180 158
3 157 159 181
3 157 181 180
3 158 180 182
3 158 182 168
3 159 175 183
3 159 183 181
3 175 184 183
3 160 186 178
3 178 186 185
3 161 187 160
3 160 187 186
3 165 163 188
3 163 162 188
3 188 162 167
3 166 164 189
3 189 164 165
3 189 165 188
3 190 173 166
3 190 166 191
3 191 166 189
3 192 188 167
3 192 167 170
3 193 192 170
3 182 194 168
3 194 172 168
3 193 170 195
3 170 169 195
3 195 169 171
3 196 195 171
3 196 171 172
3 194 197 172
3 197 198 172
3 198 196 172
3 200 173 190
3 199 200 190
3 201 174 173
3 200 201 173
3 176 179 202
3 177 176 202
3 177 202 175
3 175 202 184
3 178 185 203
3 178 203 179
3 179 203 202
3 203 185 204
3 202 205 184
3 183 206 181
3 180 181 206
3 180 206 182
3 182 206 194
3 183 184 207
3 205 207 184
3 183 207 206
3 185 208 204
3 186 209 185
3 185 209 208
3 187 210 186
3 186 210 209
3 191 189 211
3 189 188 211
3 211 188 192
3 199 190 212
3 212 190 191
3 212 191 211
3 213 199 212
3 214 211 192
3 214 192 193
3 215 214 193
3 215 193 195
3 206 216 194
3 216 197 194
3 216 217 197
3 215 195 218
3 218 195 196
3 198 218 196
3 217 219 197
3 219 218 198
3 197 219 198
3 220 199 213
3 221 200 199
3 220 221 199
3 222 201 200
3 221 222 200
3 203 204 223
3 203 223 202
3 202 223 205
3 204 208 224
3 204 224 223
3 205 223 225
3 205 225 207
3 207 225 226
3 207 226 206
3 226 216 206
3 208 228 224
3 224 228 227
3 209 229 208
3 229 228 208
3 210 230 209
3 209 230 229
3 213 212 231
3 212 211 231
3 231 211 214
3 232 220 213
3 232 213 231
3 233 231 214
3 233 214 215
3 234 233 215
3 234 215 218
3 226 235 216
3 235 217 216
3 235 236 217
3 217 236 219
3 237 234 218
3 237 218 219
3 236 238 219
3 238 237 219
3 240 220 232
3 239 240 232
3 241 221 220
3 240 241 220
3 242 222 221
3 241 242 221
3 224 227 243
3 224 243 223
3 223 243 225
3 225 243 244
3 225 244 226
3 226 244 235
3 227 245 243
3 228 246 227
3 227 246 245
3 229 247 228
3 228 247 246
3 230 248 229
3 229 248 247
3 239 232 249
3 232 231 249
3 249 231 233
3 250 249 233
3 250 233 234
3 237 250 234
3 244 251 235
3 235 251 236
3 251 252 236
3 236 252 238
3 252 253 238
3 253 250 237
3 253 237 238
3 254 239 249
3 255 240 239
3 254 255 239
3 256 241 240
3 255 256 240
3 257 242 241
3 256 257 241
3 245 258 243
3 243 258 244
3 244 258 251
3 245 259 258
3 246 260 245
3 245 260 259
3 247 261 246
3 246 261 260
3 248 262 247
3 247 262 261
3 254 249 263
3 263 249 250
3 253 263 250
3 258 264 251
3 251 264 252
3 264 265 252
3 265 263 253
3 252 265 253
3 266 254 263
3 267 255 254
3 266 267 254
3 268 256 255
3 267 268 255
3 269 257 256
3 268 269 256
3 259 270 258
3 270 264 258
3 260 271 259
3 259 271 270
3 261 272 260
3 260 272 271
3 262 273 261
3 273 272 261
3 270 274 264
3 275 266 263
3 275 263 265
3 274 276 264
3 276 265 264
3 276 277 265
3 277 275 265
3 278 267 266
3 275 278 266
3 279 268 267
3 278 279 267
3 280 269 268
3 279 280 268
3 271 281 270
3 270 281 274
3 272 282 271
3 271 282 281
3 273 283 272
3 272 283 282
3 281 284 274
3 274 284 276
3 285 278 275
3 277 285 275
3 284 286 276
3 286 285 277
3 276 286 277
3 287 279 278
3 285 287 278
3 288 280 279
3 287 288 279
3 282 289 281
3 281 289 284
3 283 290 282
3 282 290 289
3 289 291 284
3 284 291 286
3 291 292 286
3 292 287 285
3 286 292 285
3 293 288 287
3 292 293 287
3 290 294 289
3 289 294 291
3 294 295 291
3 295 293 292
3 291 295 292
CELL_TYPES 542
5
5
5
5
5
5
5
5
5
5
5
5
5
5
5
5
5
5
5
5
5
5
5
5
5
5
5
5
5
5
5
5
5
5
5
5
5
5
5
5
5
5
5
5
5
5
5
5
5
5
5
5
5
5
5
5
5
5
5
5
5
5
5
5
5
5
5
5
5
5
5
5
5
5
5
5
5
5
5
5
5
5
5
5
5
5
5
5
5
5
5
5
5
5
5
5
5
5
5
5
5
5
5
5
5
5
5
5
5
5
5
5
5
5
5
5
5
5
5
5
5
5
5
5
5
5
5
5
5
5
5
5
5
5
5
5
5
5
5
5
5
5
5
5
5
5
5
5
5
5
5
5
5
5
5
5
5
5
5
5
5
5
5
5
5
5
5
5
5
5
5
5
5
5
5
5
5
5
5
5
5
5
5
5
5
5
5
5
5
5
5
5
5
5
5
5
5
5
5
5
5
5
5
5
5
5
5
5
5
5
5
5
5
5
5
5
5
5
5
5
5
5
5
5
5
5
5
5
5
5
5
5
5
5
5
5
5
5
5
5
5
5
5
5
5
5
5
5
5
5
5
5
5
5
5
5
5
5
5
5
5
5
5
5
5
5
5
5
5
5
5
5
5
5
5
5
5
5
5
5
5
5
5
5
5
5
5
5
5
5
5
5
5
5
5
5
5
5
5
5
5
5
5
5
5
5
5
5
5
5
5
5
5
5
5
5
5
5
5
5
5
5
5
5
5
5
5
5
5
5
5
5
5
5
5
5
5
5
5
5
5
5
5
5
5
5
5
5
5
5
5
5
5
5
5
5
5
5
5
5
5
5
5
5
5
5
5
5
5
5
5
5
5
5
5
5
5
5
5
5
5
5
5
5
5
5
5
5
5
5
5
5
5
5
5
5
5
5
5
5
5
5
5
5
5
5
5
5
5
5
5
5
5
5
5
5
5
5
5
5
5
5
5
5
5
5
5
5
5
5
5
5
5
5
5
5
5
5
5
5
5
5
5
5
5
5
5
5
5
5
5
5
5
5
5
5
5
5
5
5
5
5
5
5
5
5
5
5
5
5
5
5
5
5
5
5
5
5
5
5
5
5
5
5
5
5
5
5
5
5
5
5
5
5
5
5
5
5
5
5
5
5
5
5
5
5
5
5
5
5
5
5
5
5
5
5
5
5
5
5
5
5
5
5
5
5
5
5
5
5
5
5
5
5
5
5
5
5
5
5
5
5
POINT_DATA 296
SCALARS concentrations float 4
LOOKUP_TABLE default
0 0.981739 0.179517 18.7214
0 0.981764 0.182342 15.7923
0 0.981681 0.182431 24.0092
0 0.981791 0.185718 17.6024
0 0.981766 0.0988379 7.3872
0 0.981735 0.185881 32.3316
0 0.981666 0.190515 29.3787
0 0.981793 0.107932 8.95335
0 0.981748 0.101111 6.69885
0 0.981546 0.17976 22.6418
0 0.981641 0.185016 32.96
0 0.981839 0.189004 20.154
0 0.981845 0.187505 14.4546
0 0.981785 0.0961437 7.59755
0 0.981841 0.0950058 7.66889
0 0.981831 0.0970607 6.27979
0 0.981842 0.0985505 8.05988
0 0.981724 0.0952338 6.44525
0 0.981645 0.0947713 7.06621
0 0.981801 0.107711 8.00638
0 0.981756 0.0966797 9.10661
0 0.981743 0.196931 22.8808
0 0.981768 0.194905 18.1177
0 0.981637 0.0947106 6.52561
0 0.981725 0.0945853 6.49919
0 0.981827 0.0946522 6.76116
0 0.981952 0.179364 23.8052
0 0.981865 0.0960523 8.69855
0 0.982041 0.177602 5.95681
0 0.981842 0.0978449 7.88923
0 0.981819 0.0947012 7.41004
0 0.981799 0.101223 6.11305
0 0.981708 0.19267 18.5996
0 0.981787 0.0973788 6.83823
0 0.981801 0.105033 9.36549
0 0.981747 0.0996812 5.08465
0 0.981738 0.0951998 6.72397
0 0.981773 0.0958743 5.92576
0 0.98178 0.0956365 6.57235
0 0.981778 0.094224 6.39583
0 0.981782 0.093756 7.59192
0 0.981749 0.0949056 7.70291
0 0.981785 0.098007 8.43993
0 0.981642 0.176044 25.3613
0 0.981811 0.094438 6.87971
0 0.981961 0.0959485 8.62648
0 0.98185 0.0965566 6.41023
0 0.981911 0.187851 12.7564
0 0.981954 0.0976912 7.01945
0 0.98176 0.186471 20.0075
0 0.981796 0.0957575 7.59957
0 0.981785 0.0968708 8.10771
0 0.981775 0.0948648 7.05395
0 0.981717 0.093678 7.72257
0 0.981758 0.0938262 6.36071
0 0.981768 0.0958095 7.16726
0 0.981782 0.0954929 7.7524
0 0.981778 0.0955205 7.65778
0 0.981776 0.0948347 7.6162
0 0.981811 0.0946963 8.12007
0 0.981811 0.0948607 7.77571
0 0.981796 0.0955088 7.39629
0 0.981815 0.0971462 7.20664
0 0.981817 0.190461 16.7914
0 0.981789 0.101839 7.39088
0 0.981883 0.100108 4.82309
0 0.981805 0.0971661 7.5086
0 0.981829 0.0941145 7.23718
0 0.981864 0.0942101 8.28117
0 0.981801 0.177295 29.594
0 0.981771 0.0939673 7.94595
0 0.981919 0.185319 10.1228
0 0.981771 0.0963391 6.60405
0 0.981778 0.0949237 6.96268
0 0.981774 0.0953236 6.4965
0 0.981806 0.0940671 8.54416
0 0.981873 0.0946127 8.39021
0 0.981816 0.0936659 7.32697
0 0.981773 0.094972 6.98701
0 0.981764 0.0958446 6.88764
0 0.981782 0.0953034 6.69551
0 0.981789 0.0970674 8.00708
0 0.981809 0.0976908 6.61373
0 0.981809 0.0953191 8.57062
0 0.981793 0.0947594 7.69182
0 0.98196 0.185357 11.4119
0 0.981772 0.105418 4.40994
0 0.981803 0.102136 4.1197
0 0.98181 0.0942872 6.99085
0 0.981812 0.0949239 8.11334
0 0.981854 0.0952579 7.82422
0 0.981804 0.0949476 7.84043
0 0.9819 0.185199 13.742
0 0.981881 0.0990329 8.59757
0 0.98178 0.0947819 6.71644
0 0.981784 0.096705 7.38321
0 0.981787 0.094222 7.62018
0 0.981778 0.0946687 7.84377
0 0.981892 0.183497 19.2674
0 0.981972 0.0940357 7.41726
0 0.981799 0.0942278 8.28445
0 0.981828 0.0950415 8.94887
0 0.98178 0.0943256 8.30718
0 0.98179 0.0963186 8.22355
0 0.98179 0.101597 9.9282
0 0.981783 0.0944832 7.0582
0 0.981805 0.094742 7.20269
0 0.981789 0.0958796 8.66046
0 0.98178 0.0938254 7.96863
0 0.982118 0.181542 7.90282
0 0.98177 0.0939354 7.3332
0 0.981786 0.0995153 7.22229
0 0.981821 0.095185 7.55411
0 0.981788 0.0954833 7.60669
0 0.981869 0.0957956 7.41749
0 0.981821 0.0982819 7.10065
0 0.981822 0.094659 7.94516
0 0.981821 0.0956839 8.67871
0 0.981819 0.0943023 6.93219
0 0.981803 0.0961378 5.69841
0 0.981791 0.0949463 7.95505
0 0.98177 0.095215 7.8846
0 0.98178 0.0961204 8.8651
0 0.981837 0.0963305 8.48141
0 0.981778 0.186512 22.7483
0 0.982039 0.0948548 7.41236
0 0.98185 0.0947319 8.16406
0 0.981777 0.0940039 8.09853
0 0.981782 0.101262 5.68162
0 0.981803 0.095878 6.0391
0 0.98179 0.0946796 6.14869
0 0.981779 0.0934451 6.03441
0 0.981786 0.0938946 6.1278
0 0.981985 0.0951056 7.59134
0 0.982121 0.182414 7.58148
0 0.981771 0.0953215 6.98739
0 0.981809 0.095541 7.4186
0 0.981812 0.0959563 7.90474
0 0.981832 0.0962461 6.78576
0 0.981765 0.0936704 7.54112
0 0.981795 0.0948189 7.18163
0 0.981754 0.0952116 7.89754
0 0.98182 0.0950455 5.79887
0 0.981838 0.0954881 8.7719
0 0.981812 0.0989764 7.57198
0 0.981788 0.0952026 8.89614
0 0.981782 0.0956081 8.03947
0 0.981847 0.0962961 8.25931
0 0.981854 0.095478 8.69046
0 0.981835 0.0947503 6.57919
0 0.981792 0.182576 24.6542
0 0.981776 0.0936626 5.8734
0 0.981872 0.0971803 8.84758
0 0.981799 0.0962445 9.21839
0 0.981779 0.0943937 7.60342
0 0.981842 0.106623 4.32693
0 0.981798 0.094822 6.60836
0 0.981784 0.0938358 6.63481
0 0.981822 0.094385 7.2338
0 0.981784 0.093375 7.07387
0 0.981887 0.0963527 9.66543
0 0.981996 0.186498 8.75851
0 0.98179 0.102257 5.24826
0 0.981819 0.0947819 7.61215
0 0.981796 0.0944904 7.5232
0 0.981802 0.0946022 7.43155
0 0.981819 0.0942193 7.60104
0 0.981763 0.0949322 8.46908
0 0.981838 0.0953519 5.96422
0 0.981828 0.0957358 6.2249
0 0.981802 0.0957055 7.86537
0 0.981856 0.09616 8.70966
0 0.981851 0.0942892 5.79312
0 0.981907 0.0943566 7.72658
0 0.981926 0.191027 11.662
0 0.981783 0.0935399 7.41307
0 0.98181 0.0973854 9.48279
0 0.981787 0.0943263 7.89875
0 0.981787 0.0944135 8.29464
0 0.981789 0.0952183 9.63683
0 0.981803 0.0966036 6.82112
0 0.981791 0.0977118 7.68217
0 0.981834 0.0967238 7.17961
0 0.981797 0.095538 7.64105
0 0.981797 0.0936946 6.89897
0 0.981769 0.0952901 5.4506
0 0.981846 0.0941785 6.15361
0 0.981913 0.185608 12.9599
0 0.981795 0.0943177 6.98067
0 0.981804 0.0941827 6.7495
0 0.98183 0.09424 6.86405
0 0.981811 0.0945795 6.54241
0 0.981793 0.0951138 8.28712
0 0.981815 0.0956161 8.32502
0 0.981836 0.0949704 6.09004
0 0.981839 0.0953461 8.95671
0 0.981862 0.0945533 7.52317
0 0.981839 0.0945622 6.43338
0 0.981852 0.0941084 7.1768
0 0.981818 0.0949634 6.70623
0 0.981874 0.0936733 6.90937
0 0.981956 0.188022 19.3357
0 0.981791 0.0949139 9.46521
0 0.981778 0.0951905 9.71304
0 0.981766 0.0950908 7.9505
0 0.9818 0.0939639 6.57564
0 0.981817 0.0980718 6.8209
0 0.981805 0.0954954 6.40909
0 0.981769 0.0942908 6.16302
0 0.981825 0.0938891 8.0825
0 0.981882 0.180618 26.3157
0 0.981805 0.0946733 6.94772
0 0.981811 0.100531 7.49151
0 0.981807 0.0960932 7.234
0 0.981809 0.0945268 7.35666
0 0.981828 0.0946348 7.28763
0 0.98183 0.0948665 5.96474
0 0.981818 0.095703 5.32124
0 0.981837 0.0963725 4.75249
0 0.98182 0.0971172 5.60936
0 0.981787 0.0947174 7.82894
0 0.981802 0.0944308 6.37855
0 0.981847 0.19186 15.5162
0 0.981786 0.0954747 5.16471
0 0.981775 0.0970431 8.24303
0 0.981791 0.0960318 5.84472
0 0.981809 0.0953421 5.64809
0 0.981782 0.0955002 8.74043
0 0.981764 0.0969168 9.39655
0 0.981811 0.0949285 6.08651
0 0.981859 0.181988 11.2969
0 0.981806 0.0943603 6.78113
0 0.981802 0.0940781 7.85142
0 0.981819 0.0969537 6.69969
0 0.981839 0.0964004 4.86757
0 0.981813 0.0954116 5.26626
0 0.981797 0.0952439 8.53102
0 0.981822 0.101788 7.95961
0 0.981807 0.0958762 7.90421
0 0.981811 0.0942422 7.6912
0 0.981782 0.0942147 7.66041
0 0.981734 0.0938359 7.32521
0 0.981759 0.184355 22.1904
0 0.981792 0.097186 6.09743
0 0.981801 0.0956151 6.67061
0 0.981806 0.0986704 9.98689
0 0.981778 0.0970473 8.11094
0 0.981825 0.0947021 7.52456
0 0.981857 0.184945 24.8374
0 0.981804 0.0949208 6.96267
0 0.981812 0.10183 9.87979
0 0.981795 0.0968484 7.0205
0 0.981791 0.0941705 6.58408
0 0.9818 0.0963594 8.48225
0 0.981818 0.0992842 5.98248
0 0.981828 0.0945424 8.10288
0 0.981808 0.0939136 8.09294
0 0.981721 0.177675 23.6151
0 0.981806 0.0986939 8.58764
0 0.981824 0.0993119 7.42468
0 0.981805 0.097996 10.2218
0 0.981819 0.094259 7.57338
0 0.981884 0.184004 16.9981
0 0.981795 0.0947668 7.05045
0 0.981791 0.0952279 5.25827
0 0.981791 0.0969581 8.94576
0 0.981829 0.0958701 8.2608
0 0.981867 0.0945532 8.25125
0 0.981932 0.0940139 6.38989
0 0.981928 0.179071 24.2819
0 0.981815 0.0955023 5.83909
0 0.981822 0.0950761 5.98199
0 0.981776 0.0966501 8.93458
0 0.981789 0.184162 20.4265
0 0.981801 0.0952008 9.18066
0 0.981819 0.0966634 7.1087
0 0.981792 0.095609 9.38898
0 0.981813 0.0975783 9.12566
0 0.981886 0.0955937 9.45161
0 0.981941 0.0963132 9.01975
0 0.981985 0.176729 7.23732
0 0.981806 0.0948534 8.70157
0 0.981776 0.094417 8.45247
0 0.981753 0.185347 23.9157
0 0.981796 0.0955573 8.96898
0 0.981892 0.102635 2.95051
0 0.981849 0.0961529 9.31623
0 0.981936 0.0961296 9.18192
0 0.981953 0.183442 14.5153
0 0.981742 0.094932 7.8453
0 0.981722 0.17563 11.349
0 0.981816 0.0959862 6.95276
0 0.981935 0.0992776 10.5777
0 0.981952 0.179014 7.21086
0 0.981723 0.17806 33.6215
0 0.981897 0.182193 14.9199
VECTORS fa_u float
0.00643462 0.00262738 -0
0.00614729 0.00354435 -0
0.00493126 0.00132805 -0
0.0066536 0.000933851 -0
1e-08 0 0
0.00514077 0.00395671 -0
0.00370527 0.00365827 -0
1e-08 0 0
1e-08 0 0
0.00430156 0.00547019 -0
0.00388407 0.00665641 -0
0.00660557 5.1827e-05 -0
0.00634735 -0.000779122 0
1e-08 0 0
1e-08 0 0
1e-08 0 0
1e-08 0 0
1e-08 0 0
1e-08 0 0
1e-08 0 0
1e-08 0 0
0.00265138 0.00644879 -0
0.00166246 0.0063154 -0
1e-08 0 0
1e-08 0 0
1e-08 0 0
0.00722446 -0.00189285 0
1e-08 0 0
0.00780058 -0.00330225 0
1e-08 0 0
1e-08 0 0
1e-08 0 0
0.000855624 0.00677924 -0
1e-08 0 0
1e-08 0 0
1e-08 0 0
1e-08 0 0
1e-08 0 0
1e-08 0 0
1e-08 0 0
1e-08 0 0
1e-08 0 0
1e-08 0 0
-5.94849e-05 0.00697692 -0
1e-08 0 0
1e-08 0 0
1e-08 0 0
0.00556246 -0.00333321 0
1e-08 0 0
0.00423131 -0.00330917 0
1e-08 0 0
1e-08 0 0
1e-08 0 0
1e-08 0 0
1e-08 0 0
1e-08 0 0
1e-08 0 0
1e-08 0 0
1e-08 0 0
1e-08 0 0
1e-08 0 0
1e-08 0 0
1e-08 0 0
-0.000755006 0.00551291 0
1e-08 0 0
1e-08 0 0
1e-08 0 0
1e-08 0 0
1e-08 0 0
0.00401647 -0.0040024 0
1e-08 0 0
0.003489 -0.00444017 0
1e-08 0 0
1e-08 0 0
1e-08 0 0
1e-08 0 0
1e-08 0 0
1e-08 0 0
1e-08 0 0
1e-08 0 0
1e-08 0 0
1e-08 0 0
1e-08 0 0
1e-08 0 0
1e-08 0 0
-0.00156903 0.00591919 0
1e-08 0 0
1e-08 0 0
1e-08 0 0
1e-08 0 0
1e-08 0 0
1e-08 0 0
0.00413345 -0.0070111 0
1e-08 0 0
1e-08 0 0
1e-08 0 0
1e-08 0 0
1e-08 0 0
0.00289518 -0.00705479 0
1e-08 0 0
1e-08 0 0
1e-08 0 0
1e-08 0 0
1e-08 0 0
1e-08 0 0
1e-08 0 0
1e-08 0 0
1e-08 0 0
1e-08 0 0
-0.00262336 0.00639686 0
1e-08 0 0
1e-08 0 0
1e-08 0 0
1e-08 0 0
1e-08 0 0
1e-08 0 0
1e-08 0 0
1e-08 0 0
1e-08 0 0
1e-08 0 0
1e-08 0 0
1e-08 0 0
1e-08 0 0
1e-08 0 0
0.00156917 -0.00600822 0
1e-08 0 0
1e-08 0 0
1e-08 0 0
1e-08 0 0
1e-08 0 0
1e-08 0 0
1e-08 0 0
1e-08 0 0
1e-08 0 0
-0.00345287 0.00598393 0
1e-08 0 0
1e-08 0 0
1e-08 0 0
1e-08 0 0
1e-08 0 0
1e-08 0 0
1e-08 0 0
1e-08 0 0
1e-08 0 0
1e-08 0 0
1e-08 0 0
1e-08 0 0
1e-08 0 0
1e-08 0 0
1e-08 0 0
0.00070663 -0.00527494 0
1e-08 0 0
1e-08 0 0
1e-08 0 0
1e-08 0 0
1e-08 0 0
1e-08 0 0
1e-08 0 0
1e-08 0 0
1e-08 0 0
1e-08 0 0
-0.004222 0.00546903 0
1e-08 0 0
1e-08 0 0
1e-08 0 0
1e-08 0 0
1e-08 0 0
1e-08 0 0
1e-08 0 0
1e-08 0 0
1e-08 0 0
1e-08 0 0
1e-08 0 0
1e-08 0 0
4.23806e-05 -0.00714992 0
1e-08 0 0
1e-08 0 0
1e-08 0 0
1e-08 0 0
1e-08 0 0
1e-08 0 0
1e-08 0 0
1e-08 0 0
1e-08 0 0
1e-08 0 0
1e-08 0 0
1e-08 0 0
-0.00366046 0.00368193 0
1e-08 0 0
1e-08 0 0
1e-08 0 0
1e-08 0 0
1e-08 0 0
1e-08 0 0
1e-08 0 0
1e-08 0 0
1e-08 0 0
1e-08 0 0
1e-08 0 0
1e-08 0 0
1e-08 0 0
-0.000851448 -0.00660623 0
1e-08 0 0
1e-08 0 0
1e-08 0 0
1e-08 0 0
1e-08 0 0
1e-08 0 0
1e-08 0 0
1e-08 0 0
-0.0049976 0.00392693 0
1e-08 0 0
1e-08 0 0
1e-08 0 0
1e-08 0 0
1e-08 0 0
1e-08 0 0
1e-08 0 0
1e-08 0 0
1e-08 0 0
1e-08 0 0
1e-08 0 0
-0.00166583 -0.00628321 0
1e-08 0 0
1e-08 0 0
1e-08 0 0
1e-08 0 0
1e-08 0 0
1e-08 0 0
1e-08 0 0
-0.00677173 0.00396907 0
1e-08 0 0
1e-08 0 0
1e-08 0 0
1e-08 0 0
1e-08 0 0
1e-08 0 0
1e-08 0 0
1e-08 0 0
1e-08 0 0
1e-08 0 0
1e-08 0 0
-0.00265081 -0.00642106 0
1e-08 0 0
1e-08 0 0
1e-08 0 0
1e-08 0 0
1e-08 0 0
-0.00650478 0.00268173 0
1e-08 0 0
1e-08 0 0
1e-08 0 0
1e-08 0 0
1e-08 0 0
1e-08 0 0
1e-08 0 0
1e-08 0 0
-0.00394777 -0.00673838 0
1e-08 0 0
1e-08 0 0
1e-08 0 0
1e-08 0 0
-0.00634807 0.00167459 0
1e-08 0 0
1e-08 0 0
1e-08 0 0
1e-08 0 0
1e-08 0 0
1e-08 0 0
-0.00374866 -0.00478813 0
1e-08 0 0
1e-08 0 0
1e-08 0 0
-0.00665625 0.000846012 0
1e-08 0 0
1e-08 0 0
1e-08 0 0
1e-08 0 0
1e-08 0 0
1e-08 0 0
-0.00382571 -0.00381885 0
1e-08 0 0
1e-08 0 0
-0.00724443 -5.98783e-05 0
1e-08 0 0
1e-08 0 0
1e-08 0 0
1e-08 0 0
-0.00554445 -0.00428359 0
1e-08 0 0
-0.00523933 -0.000715394 0
1e-08 0 0
1e-08 0 0
-0.00599837 -0.00345987 0
-0.00600198 -0.00158135 0
-0.00647848 -0.00265209 0
