# vtk DataFile Version 2.0
CellBP Time: 4.64
ASCII
DATASET UNSTRUCTURED_GRID
POINTS 296 double
-9.01964 -3.69793 0
-8.45623 -4.85692 0
-9.41972 -2.47107 0
-9.68863 -1.22583 0
-8.17726 -2.74006 0
-7.73603 -5.92889 0
-6.88317 -6.89844 0
-7.73673 -3.7757 0
-7.17213 -4.75538 0
-5.94071 -7.76481 0
-4.89352 -8.49501 0
-9.79027 0.0410871 0
-9.72477 1.32607 0
-8.49177 -1.6382 0
-8.63751 -0.512492 0
-7.41728 -1.94182 0
-7.04765 -2.81896 0
-6.50313 -5.66932 0
-5.71958 -6.492 0
-6.61871 -3.78577 0
-6.07384 -4.57061 0
-3.73644 -9.06362 0
-2.50455 -9.4697 0
-4.83666 -7.20402 0
-3.87144 -7.78856 0
-8.65364 0.632116 0
-9.49446 2.60569 0
-8.49985 1.73953 0
-9.08061 3.82877 0
-7.58688 -0.896519 0
-7.64917 0.0866405 0
-6.80055 -1.27247 0
-1.22898 -9.71321 0
-6.30015 -2.09321 0
-6.17434 -2.9761 0
-5.42065 -5.37521 0
-4.70841 -6.01728 0
-5.53266 -3.67377 0
-5.14937 -4.46763 0
-2.83412 -8.2549 0
-1.75793 -8.51642 0
-3.87176 -6.62945 0
-3.0251 -7.0618 0
0.053808 -9.78075 0
-7.57255 1.12351 0
-8.23441 2.87948 0
-7.4276 2.06903 0
-8.4776 4.96542 0
-7.75916 3.90974 0
-7.72984 6.01808 0
-6.64229 -0.377917 0
-6.82074 0.548276 0
-5.66475 -0.98222 0
-0.58291 -8.67559 0
0.550843 -8.61698 0
-5.20034 -2.42609 0
-4.39418 -5.0021 0
-3.82991 -5.68536 0
-4.35553 -3.73681 0
-2.03766 -7.46147 0
-1.12231 -7.67192 0
-2.9478 -6.01282 0
-2.28279 -6.53082 0
1.32461 -9.6723 0
-6.5722 1.39369 0
-7.04389 3.05489 0
-6.54496 2.32556 0
-7.1682 4.89273 0
-6.60003 3.92337 0
-6.88121 6.97645 0
-6.45505 5.78116 0
-5.92469 7.83474 0
-4.39608 -1.16658 0
-5.72221 0.499093 0
-4.59876 -0.0203448 0
-0.00637701 -7.71423 0
1.69392 -8.4711 0
0.914712 -7.61456 0
-3.98465 -2.37027 0
-3.4646 -1.38349 0
-3.24387 -4.73185 0
-3.23224 -3.22537 0
-1.36786 -6.57467 0
-0.517804 -6.90603 0
-1.95545 -5.46291 0
2.58422 -9.42248 0
-5.42013 2.00427 0
-5.98968 3.01088 0
-5.99607 4.76987 0
-5.65926 3.90797 0
-5.65084 6.58629 0
-5.35175 5.50329 0
-4.8783 8.57986 0
-4.7449 7.25152 0
-3.47404 -0.421079 0
-4.38987 1.23165 0
-3.67219 0.586378 0
-4.00498 2.3017 0
-3.72934 9.15166 0
2.78758 -8.1428 0
0.387426 -6.66437 0
1.96044 -7.35869 0
1.25383 -6.75759 0
-2.43232 -0.866139 0
-2.82139 -2.11476 0
-2.27328 -4.04798 0
-2.30842 -2.94278 0
-0.451784 -5.76275 0
-1.20902 -4.44771 0
3.80424 -9.02094 0
-4.71403 3.33445 0
-4.9972 4.49773 0
-4.55774 6.14566 0
-4.45467 5.24758 0
-3.78076 7.8521 0
-3.7481 6.69407 0
-2.73391 8.26322 0
-1.64005 -0.130718 0
-1.44077 -0.882929 0
-2.47641 0.5137 0
-3.2191 1.43922 0
-3.1961 3.27547 0
-2.87862 2.36401 0
-1.3523 0.635019 0
-2.50261 9.5481 0
3.8371 -7.7071 0
2.87441 -6.97662 0
0.915918 -5.70467 0
2.00321 -6.26547 0
-1.67156 -1.98164 0
-1.41967 -3.24712 0
0.0818809 -4.67713 0
-0.555186 -3.65944 0
4.82069 -7.14911 0
4.957 -8.45719 0
-3.71393 4.47158 0
-3.66521 5.63579 0
-2.82619 7.13781 0
-2.95303 6.22564 0
-1.63532 8.58135 0
-1.89785 7.47738 0
-2.30946 3.99901 0
-0.72496 -1.32044 0
-0.832553 -0.250921 0
-1.9316 1.68752 0
-2.10897 2.85977 0
-1.30078 3.51753 0
-0.872263 1.35969 0
-0.283056 0.463575 0
-0.527844 8.73098 0
-1.23476 9.78988 0
1.08477 -4.49379 0
3.79915 -6.53015 0
2.90234 -5.94123 0
2.05948 -5.30567 0
4.67612 -6.04421 0
-0.550855 -2.46244 0
0.490057 -3.42588 0
0.0553974 -1.60557 0
1.45284 -3.62377 0
5.74873 -6.46567 0
6.02752 -7.73853 0
-2.43366 5.25634 0
-2.0825 6.4105 0
-0.884078 7.67586 0
-1.23783 6.80733 0
0.0909711 7.76459 0
-1.12965 4.44021 0
0.150602 -0.611823 0
-0.803685 2.49342 0
-0.341322 3.58165 0
0.0566212 1.51633 0
0.735085 0.476693 0
0.64077 8.7525 0
0.0446828 9.89277 0
2.33121 -4.19664 0
3.76609 -5.49367 0
2.92759 -5.08937 0
5.47121 -5.36498 0
4.59145 -5.14254 0
0.632219 -2.2873 0
1.24334 -2.91867 0
0.757288 -1.38778 0
2.13157 -3.0883 0
2.94662 -3.41141 0
6.0541 -4.69356 0
6.54263 -5.65612 0
6.99167 -6.87912 0
-0.996398 5.72838 0
-0.35455 6.77005 0
1.10855 7.66334 0
0.560081 6.97514 0
-0.00171772 4.67475 0
0.593395 3.79631 0
1.33245 -0.640767 0
0.526874 2.64096 0
0.954044 1.57409 0
1.89979 0.212297 0
1.60021 1.06451 0
2.10975 7.48781 0
1.77959 8.59694 0
1.33404 9.81691 0
3.74893 -4.25084 0
5.02384 -4.33673 0
5.7543 -3.84998 0
3.72773 -3.14095 0
1.80121 -1.87901 0
2.98041 -2.54065 0
6.69181 -3.87858 0
7.27474 -4.81656 0
7.85573 -5.93093 0
0.485425 5.80011 0
1.41615 6.65363 0
2.34986 6.58732 0
1.19296 4.5091 0
1.47241 3.37068 0
2.41703 -0.687891 0
2.80695 0.14335 0
1.77311 2.1531 0
2.59475 1.14256 0
3.04 7.0819 0
2.87207 8.27281 0
2.60685 9.56896 0
4.83414 -3.25504 0
6.03439 -3.04769 0
4.12186 -2.2436 0
3.21199 -1.4904 0
6.65103 -2.28494 0
7.1466 -3.00415 0
7.86528 -3.8664 0
8.58939 -4.88571 0
2.00424 5.53214 0
3.03654 6.0704 0
2.34582 4.08168 0
2.39795 3.03367 0
3.49241 -0.456587 0
3.58533 0.61466 0
2.93498 2.26895 0
3.50749 1.51272 0
3.93761 5.81419 0
3.925 6.70038 0
3.93324 7.83991 0
3.83608 9.15946 0
5.5021 -1.88919 0
4.46063 -1.11706 0
6.6283 -1.31739 0
7.49888 -2.00679 0
8.29094 -2.82826 0
9.16122 -3.73215 0
3.35672 4.80632 0
3.29038 3.34242 0
4.63937 0.133868 0
4.45291 1.28967 0
3.99745 2.40665 0
4.4692 5.06466 0
4.75649 6.0964 0
4.90635 7.27853 0
4.98984 8.58784 0
5.80304 -0.43354 0
6.90464 -0.488109 0
7.65747 -1.06618 0
8.57137 -1.72571 0
9.56931 -2.50143 0
4.45936 3.76106 0
5.71615 1.06728 0
5.25912 2.48185 0
5.25122 4.53091 0
5.49345 5.42648 0
5.79353 6.5635 0
6.03536 7.85627 0
6.72764 0.440321 0
7.72991 -0.0282317 0
8.73901 -0.571634 0
9.81404 -1.22655 0
6.82688 1.30631 0
5.58507 3.69694 0
6.40201 2.13623 0
6.23064 3.01112 0
6.14267 4.58736 0
6.55544 5.72861 0
6.98763 6.9971 0
7.65078 0.940057 0
8.72016 0.561969 0
9.88502 0.0599585 0
7.46216 1.95237 0
6.653 3.80399 0
7.10113 2.86963 0
7.22311 4.78488 0
7.84803 6.0352 0
8.55943 1.69163 0
9.775 1.3304 0
8.24135 2.7711 0
7.81683 3.83156 0
8.56633 4.96557 0
9.5301 2.59193 0
9.12984 3.81245 0
CELLS 542 2168
3 2 0 4
3 0 1 7
3 4 0 7
3 1 5 8
3 7 1 8
3 3 2 13
3 13 2 4
3 11 3 14
3 14 3 13
3 13 4 15
3 4 7 16
3 15 4 16
3 5 6 17
3 8 5 17
3 6 9 18
3 17 6 18
3 7 8 19
3 16 7 19
3 8 17 20
3 19 8 20
3 9 10 23
3 18 9 23
3 10 21 24
3 23 10 24
3 12 11 25
3 25 11 14
3 26 12 27
3 27 12 25
3 14 13 29
3 29 13 15
3 25 14 30
3 30 14 29
3 29 15 31
3 15 16 33
3 31 15 33
3 16 19 34
3 33 16 34
3 17 18 35
3 20 17 35
3 18 23 36
3 35 18 36
3 19 20 37
3 34 19 37
3 20 35 38
3 37 20 38
3 21 22 39
3 24 21 39
3 22 32 40
3 39 22 40
3 23 24 41
3 36 23 41
3 24 39 42
3 41 24 42
3 27 25 44
3 44 25 30
3 28 26 45
3 45 26 27
3 45 27 46
3 46 27 44
3 47 28 48
3 48 28 45
3 30 29 50
3 50 29 31
3 44 30 51
3 51 30 50
3 50 31 52
3 31 33 52
3 32 43 53
3 40 32 53
3 53 43 54
3 33 34 55
3 34 37 55
3 33 55 52
3 35 36 56
3 38 35 56
3 36 41 57
3 56 36 57
3 37 38 58
3 38 56 58
3 37 58 55
3 39 40 59
3 42 39 59
3 40 53 60
3 59 40 60
3 41 42 61
3 57 41 61
3 42 59 62
3 61 42 62
3 43 63 54
3 46 44 64
3 64 44 51
3 48 45 65
3 65 45 46
3 65 46 66
3 66 46 64
3 49 47 67
3 67 47 48
3 67 48 68
3 68 48 65
3 69 49 70
3 70 49 67
3 52 55 72
3 64 51 73
3 51 50 73
3 50 52 73
3 73 52 74
3 74 52 72
3 53 54 75
3 60 53 75
3 54 63 76
3 54 76 77
3 75 54 77
3 55 58 78
3 72 55 78
3 72 78 79
3 56 57 80
3 57 61 80
3 56 80 58
3 58 80 81
3 78 58 81
3 59 60 82
3 62 59 82
3 60 75 83
3 82 60 83
3 61 62 84
3 62 82 84
3 61 84 80
3 63 85 76
3 66 64 86
3 64 73 86
3 68 65 87
3 87 65 66
3 87 66 86
3 70 67 88
3 88 67 68
3 88 68 89
3 89 68 87
3 71 69 90
3 90 69 70
3 90 70 91
3 91 70 88
3 92 71 93
3 93 71 90
3 74 72 94
3 94 72 79
3 86 73 95
3 95 73 74
3 95 74 96
3 96 74 94
3 97 86 95
3 76 85 99
3 75 77 100
3 83 75 100
3 76 99 101
3 77 76 101
3 77 101 102
3 100 77 102
3 94 79 103
3 78 81 104
3 79 78 104
3 79 104 103
3 80 84 105
3 81 80 105
3 81 105 106
3 104 81 106
3 82 83 107
3 83 100 107
3 82 107 84
3 84 107 108
3 105 84 108
3 85 109 99
3 89 87 110
3 87 86 110
3 110 86 97
3 91 88 111
3 111 88 89
3 111 89 110
3 93 90 112
3 112 90 91
3 112 91 113
3 113 91 111
3 98 92 114
3 114 92 93
3 114 93 115
3 115 93 112
3 116 98 114
3 117 103 118
3 96 94 119
3 94 103 119
3 119 103 117
3 97 95 120
3 120 95 96
3 120 96 119
3 121 110 97
3 121 97 122
3 122 97 120
3 123 119 117
3 124 98 116
3 99 109 125
3 99 125 126
3 101 99 126
3 100 102 127
3 100 127 107
3 101 126 128
3 102 101 128
3 102 128 127
3 104 106 129
3 104 129 103
3 103 129 118
3 105 108 130
3 106 105 130
3 106 130 129
3 107 127 131
3 108 107 131
3 108 131 132
3 108 132 130
3 109 134 125
3 125 134 133
3 113 111 135
3 111 110 135
3 135 110 121
3 115 112 136
3 136 112 113
3 136 113 135
3 116 114 137
3 137 114 115
3 137 115 138
3 138 115 136
3 139 124 116
3 139 116 140
3 140 116 137
3 141 135 121
3 118 129 142
3 118 142 143
3 117 118 143
3 123 117 143
3 122 120 144
3 120 119 144
3 144 119 123
3 141 121 145
3 145 121 122
3 145 122 144
3 146 141 145
3 147 144 123
3 147 123 148
3 143 148 123
3 150 124 139
3 149 150 139
3 131 127 151
3 125 133 152
3 126 125 152
3 126 152 153
3 128 126 153
3 128 153 154
3 128 154 127
3 127 154 151
3 152 133 155
3 130 132 156
3 130 156 129
3 129 156 142
3 131 151 157
3 132 131 157
3 132 157 156
3 156 158 142
3 157 151 159
3 133 160 155
3 134 161 133
3 133 161 160
3 138 136 162
3 136 135 162
3 162 135 141
3 140 137 163
3 163 137 138
3 163 138 162
3 149 139 164
3 164 139 140
3 164 140 165
3 165 140 163
3 166 149 164
3 167 162 141
3 167 141 146
3 142 158 168
3 143 142 168
3 143 168 148
3 146 145 169
3 145 144 169
3 169 144 147
3 170 167 146
3 170 146 169
3 171 169 147
3 171 147 148
3 171 148 172
3 168 172 148
3 173 149 166
3 174 150 149
3 173 174 149
3 154 175 151
3 151 175 159
3 152 155 176
3 153 152 176
3 153 176 177
3 153 177 154
3 154 177 175
3 155 160 178
3 155 178 179
3 176 155 179
3 156 157 180
3 156 180 158
3 157 159 181
3 157 181 180
3 158 180 182
3 158 182 168
3 159 175 183
3 159 183 181
3 175 184 183
3 160 186 178
3 178 186 185
3 161 187 160
3 160 187 186
3 165 163 188
3 163 162 188
3 188 162 167
3 166 164 189
3 189 164 165
3 189 165 188
3 190 173 166
3 190 166 191
3 191 166 189
3 192 188 167
3 192 167 170
3 193 192 170
3 182 194 168
3 194 172 168
3 193 170 195
3 170 169 195
3 195 169 171
3 196 195 171
3 196 171 172
3 194 197 172
3 197 198 172
3 198 196 172
3 200 173 190
3 199 200 190
3 201 174 173
3 200 201 173
3 176 179 202
3 177 176 202
3 177 202 175
3 175 202 184
3 178 185 203
3 178 203 179
3 179 203 202
3 203 185 204
3 202 205 184
3 183 206 181
3 180 181 206
3 180 206 182
3 182 206 194
3 183 184 207
3 205 207 184
3 183 207 206
3 185 208 204
3 186 209 185
3 185 209 208
3 187 210 186
3 186 210 209
3 191 189 211
3 189 188 211
3 211 188 192
3 199 190 212
3 212 190 191
3 212 191 211
3 213 199 212
3 214 211 192
3 214 192 193
3 215 214 193
3 215 193 195
3 206 216 194
3 216 197 194
3 216 217 197
3 215 195 218
3 218 195 196
3 198 218 196
3 217 219 197
3 219 218 198
3 197 219 198
3 220 199 213
3 221 200 199
3 220 221 199
3 222 201 200
3 221 222 200
3 203 204 223
3 203 223 202
3 202 223 205
3 204 208 224
3 204 224 223
3 205 223 225
3 205 225 207
3 207 225 226
3 207 226 206
3 226 216 206
3 208 228 224
3 224 228 227
3 209 229 208
3 229 228 208
3 210 230 209
3 209 230 229
3 213 212 231
3 212 211 231
3 231 211 214
3 232 220 213
3 232 213 231
3 233 231 214
3 233 214 215
3 234 233 215
3 234 215 218
3 226 235 216
3 235 217 216
3 235 236 217
3 217 236 219
3 237 234 218
3 237 218 219
3 236 238 219
3 238 237 219
3 240 220 232
3 239 240 232
3 241 221 220
3 240 241 220
3 242 222 221
3 241 242 221
3 224 227 243
3 224 243 223
3 223 243 225
3 225 243 244
3 225 244 226
3 226 244 235
3 227 245 243
3 228 246 227
3 227 246 245
3 229 247 228
3 228 247 246
3 230 248 229
3 229 248 247
3 239 232 249
3 232 231 249
3 249 231 233
3 250 249 233
3 250 233 234
3 237 250 234
3 244 251 235
3 235 251 236
3 251 252 236
3 236 252 238
3 252 253 238
3 253 250 237
3 253 237 238
3 254 239 249
3 255 240 239
3 254 255 239
3 256 241 240
3 255 256 240
3 257 242 241
3 256 257 241
3 245 258 243
3 243 258 244
3 244 258 251
3 245 259 258
3 246 260 245
3 245 260 259
3 247 261 246
3 246 261 260
3 248 262 247
3 247 262 261
3 254 249 263
3 263 249 250
3 253 263 250
3 258 264 251
3 251 264 252
3 264 265 252
3 265 263 253
3 252 265 253
3 266 254 263
3 267 255 254
3 266 267 254
3 268 256 255
3 267 268 255
3 269 257 256
3 268 269 256
3 259 270 258
3 270 264 258
3 260 271 259
3 259 271 270
3 261 272 260
3 260 272 271
3 262 273 261
3 273 272 261
3 270 274 264
3 275 266 263
3 275 263 265
3 274 276 264
3 276 265 264
3 276 277 265
3 277 275 265
3 278 267 266
3 275 278 266
3 279 268 267
3 278 279 267
3 280 269 268
3 279 280 268
3 271 281 270
3 270 281 274
3 272 282 271
3 271 282 281
3 273 283 272
3 272 283 282
3 281 284 274
3 274 284 276
3 285 278 275
3 277 285 275
3 284 286 276
3 286 285 277
3 276 286 277
3 287 279 278
3 285 287 278
3 288 280 279
3 287 288 279
3 282 289 281
3 281 289 284
3 283 290 282
3 282 290 289
3 289 291 284
3 284 291 286
3 291 292 286
3 292 287 285
3 286 292 285
3 293 288 287
3 292 293 287
3 290 294 289
3 289 294 291
3 294 295 291
3 295 293 292
3 291 295 292
CELL_TYPES 542
5
5
5
5
5
5
5
5
5
5
5
5
5
5
5
5
5
5
5
5
5
5
5
5
5
5
5
5
5
5
5
5
5
5
5
5
5
5
5
5
5
5
5
5
5
5
5
5
5
5
5
5
5
5
5
5
5
5
5
5
5
5
5
5
5
5
5
5
5
5
5
5
5
5
5
5
5
5
5
5
5
5
5
5
5
5
5
5
5
5
5
5
5
5
5
5
5
5
5
5
5
5
5
5
5
5
5
5
5
5
5
5
5
5
5
5
5
5
5
5
5
5
5
5
5
5
5
5
5
5
5
5
5
5
5
5
5
5
5
5
5
5
5
5
5
5
5
5
5
5
5
5
5
5
5
5
5
5
5
5
5
5
5
5
5
5
5
5
5
5
5
5
5
5
5
5
5
5
5
5
5
5
5
5
5
5
5
5
5
5
5
5
5
5
5
5
5
5
5
5
5
5
5
5
5
5
5
5
5
5
5
5
5
5
5
5
5
5
5
5
5
5
5
5
5
5
5
5
5
5
5
5
5
5
5
5
5
5
5
5
5
5
5
5
5
5
5
5
5
5
5
5
5
5
5
5
5
5
5
5
5
5
5
5
5
5
5
5
5
5
5
5
5
5
5
5
5
5
5
5
5
5
5
5
5
5
5
5
5
5
5
5
5
5
5
5
5
5
5
5
5
5
5
5
5
5
5
5
5
5
5
5
5
5
5
5
5
5
5
5
5
5
5
5
5
5
5
5
5
5
5
5
5
5
5
5
5
5
5
5
5
5
5
5
5
5
5
5
5
5
5
5
5
5
5
5
5
5
5
5
5
5
5
5
5
5
5
5
5
5
5
5
5
5
5
5
5
5
5
5
5
5
5
5
5
5
5
5
5
5
5
5
5
5
5
5
5
5
5
5
5
5
5
5
5
5
5
5
5
5
5
5
5
5
5
5
5
5
5
5
5
5
5
5
5
5
5
5
5
5
5
5
5
5
5
5
5
5
5
5
5
5
5
5
5
5
5
5
5
5
5
5
5
5
5
5
5
5
5
5
5
5
5
5
5
5
5
5
5
5
5
5
5
5
5
5
5
5
5
5
5
5
5
5
5
5
5
5
5
5
5
5
5
5
5
5
5
5
5
5
5
5
5
5
5
5
5
5
5
5
5
5
5
5
5
5
5
5
5
5
5
5
5
5
5
5
5
5
5
5
5
5
5
5
5
5
5
5
5
5
5
5
POINT_DATA 296
SCALARS concentrations float 4
LOOKUP_TABLE default
0 0.967479 0.156823 17.7092
0 0.967512 0.155192 10.7951
0 0.967454 0.158994 14.8336
0 0.967374 0.158732 19.7348
0 0.967449 0.0950269 7.44065
0 0.967578 0.154232 12.9663
0 0.967524 0.158693 10.0168
0 0.967461 0.0960914 8.30872
0 0.967498 0.0955142 7.96524
0 0.967408 0.155455 19.7859
0 0.967419 0.15769 11.2174
0 0.967308 0.152217 16.252
0 0.967337 0.153591 19.1034
0 0.967416 0.0938888 6.91657
0 0.967366 0.0931574 7.40068
0 0.967405 0.0945206 7.01856
0 0.96742 0.0943044 7.79501
0 0.967512 0.0936763 7.4347
0 0.967443 0.0929598 7.78519
0 0.967412 0.0958992 7.20433
0 0.967419 0.0941119 7.96125
0 0.96753 0.155075 5.94495
0 0.967582 0.156249 16.9819
0 0.967409 0.0942011 6.35506
0 0.96747 0.0945184 6.21451
0 0.967362 0.0932935 6.3053
0 0.967374 0.153345 15.7732
0 0.967403 0.0940357 8.3338
0 0.967319 0.153961 24.1375
0 0.967409 0.0936665 7.33422
0 0.967423 0.0944823 6.50922
0 0.967399 0.0941314 7.11468
0 0.967552 0.153081 4.82074
0 0.967401 0.0942405 7.12155
0 0.967401 0.096057 6.08355
0 0.967424 0.0946999 7.52901
0 0.967423 0.0943687 7.74296
0 0.967388 0.0951589 7.46467
0 0.967404 0.0947344 7.56403
0 0.967522 0.0944281 6.70615
0 0.967545 0.0942315 7.11083
0 0.967438 0.0948443 7.15804
0 0.967455 0.0949439 8.70051
0 0.967353 0.155435 15.4761
0 0.967443 0.0941734 8.03378
0 0.96739 0.095001 6.43638
0 0.967446 0.0966747 6.52546
0 0.967282 0.154586 22.7839
0 0.967344 0.0943159 8.10693
0 0.96734 0.157116 19.1695
0 0.967417 0.0944137 6.88215
0 0.967441 0.0958838 6.18074
0 0.967386 0.0944293 7.18095
0 0.967455 0.093539 6.17296
0 0.967341 0.0938132 6.3036
0 0.9674 0.0949938 7.30632
0 0.967407 0.0946669 7.04938
0 0.967414 0.094324 5.76462
0 0.967395 0.094909 6.57484
0 0.967461 0.0949065 8.56511
0 0.967454 0.0940318 8.4084
0 0.967417 0.0942014 8.3053
0 0.967428 0.0961076 7.95675
0 0.967277 0.155573 23.0307
0 0.967447 0.0946469 7.27867
0 0.967425 0.0989508 8.70948
0 0.967436 0.0979431 6.41885
0 0.967356 0.0938758 6.5713
0 0.96743 0.0949438 5.85532
0 0.967324 0.156809 16.2843
0 0.967377 0.0933015 6.80352
0 0.967316 0.152497 27.9592
0 0.967408 0.10166 5.90244
0 0.967416 0.0973062 4.70835
0 0.967392 0.0953689 8.07084
0 0.967427 0.0934215 8.24703
0 0.967333 0.0945792 8.49422
0 0.967404 0.0937187 8.12229
0 0.967401 0.0994538 8.22626
0 0.967443 0.101277 9.54757
0 0.967402 0.0933932 6.88809
0 0.967394 0.0952123 6.33076
0 0.967421 0.0952526 5.84907
0 0.967421 0.0939012 8.19544
0 0.96741 0.0936958 7.89286
0 0.967309 0.157398 19.5468
0 0.96742 0.0959747 7.53171
0 0.967429 0.0966393 6.80985
0 0.967426 0.0939426 6.65944
0 0.967437 0.0950572 6.7204
0 0.967344 0.0934322 7.06687
0 0.967409 0.0939188 7.07141
0 0.967343 0.155057 15.1893
0 0.967354 0.0940513 7.33682
0 0.967434 0.0964636 6.1735
0 0.967409 0.0955912 8.13278
0 0.96742 0.0951592 7.67191
0 0.967405 0.0943769 7.4151
0 0.9674 0.154714 18.3534
0 0.967388 0.0954708 9.13755
0 0.96742 0.0937718 8.12888
0 0.967415 0.0941775 8.38681
0 0.967422 0.0951812 8.60747
0 0.967443 0.0943868 8.60502
0 0.967415 0.0969908 7.76524
0 0.967406 0.0933725 7.13849
0 0.967417 0.0949906 6.91698
0 0.96741 0.0942503 6.50416
0 0.967407 0.0954761 7.22842
0 0.967401 0.155431 13.9307
0 0.967417 0.0941696 7.70171
0 0.967428 0.0938347 6.78683
0 0.967392 0.0939164 7.28355
0 0.967415 0.093957 7.18777
0 0.967378 0.093327 7.7123
0 0.967395 0.0952748 6.60321
0 0.96744 0.0932582 7.72525
0 0.967436 0.0940083 7.81571
0 0.967441 0.0951669 7.9741
0 0.967426 0.0961389 7.69967
0 0.967421 0.0939715 7.51254
0 0.967416 0.0939826 7.287
0 0.967421 0.0943825 7.59755
0 0.967427 0.0939927 6.80296
0 0.967498 0.154519 13.3977
0 0.967455 0.0965174 8.61066
0 0.96744 0.0957165 7.36748
0 0.967414 0.093438 6.70614
0 0.967422 0.0944037 8.15305
0 0.967434 0.0943849 7.69099
0 0.967417 0.0947021 7.06258
0 0.967406 0.0932914 6.62374
0 0.967409 0.093795 6.89149
0 0.96748 0.09599 7.48815
0 0.967462 0.15519 12.9103
0 0.967421 0.0934852 6.90702
0 0.967407 0.0940935 6.62204
0 0.967411 0.094771 6.93736
0 0.967404 0.0939063 6.8771
0 0.967492 0.0931083 6.45419
0 0.967427 0.0933042 7.94445
0 0.967418 0.094363 7.11157
0 0.967442 0.0957203 6.82211
0 0.967443 0.0934023 7.86363
0 0.967422 0.0950921 7.45736
0 0.967418 0.0937885 7.27622
0 0.967413 0.0944323 7.26915
0 0.967431 0.0960724 6.8968
0 0.967442 0.0944859 6.99229
0 0.967508 0.0930922 7.04476
0 0.967542 0.157861 10.8931
0 0.967404 0.0941428 6.66838
0 0.967453 0.0974268 6.03365
0 0.967411 0.0961808 6.89318
0 0.967402 0.09529 7.06318
0 0.967458 0.0959563 8.63112
0 0.967425 0.094838 7.53377
0 0.96741 0.0949853 6.47997
0 0.967444 0.0957153 7.96892
0 0.967402 0.0951606 7.42617
0 0.967508 0.0950012 8.74163
0 0.967496 0.156107 13.2603
0 0.967412 0.0933053 6.73762
0 0.967409 0.0935606 7.34866
0 0.967441 0.0932381 7.84912
0 0.967414 0.0937813 7.97775
0 0.967451 0.093224 7.51229
0 0.967414 0.0932368 7.18651
0 0.967445 0.0960523 7.76612
0 0.967424 0.0979304 7.35384
0 0.967418 0.0949668 6.85141
0 0.967441 0.0944053 6.49614
0 0.967444 0.093196 7.02584
0 0.967507 0.0933716 5.94583
0 0.967543 0.155961 9.51321
0 0.96739 0.0941066 6.88073
0 0.967403 0.0951636 8.08958
0 0.967387 0.0946465 7.50333
0 0.967466 0.0944121 8.33277
0 0.967419 0.0966581 6.02301
0 0.967421 0.0938847 7.02256
0 0.967412 0.0931665 7.23174
0 0.967434 0.0957992 8.12678
0 0.967402 0.0946527 7.26419
0 0.967394 0.0939803 7.41622
0 0.967452 0.0946513 7.83141
0 0.967517 0.0944031 7.86497
0 0.967548 0.154447 7.80455
0 0.967409 0.0937116 6.49851
0 0.967415 0.0937713 7.49219
0 0.967442 0.0935279 7.32915
0 0.967422 0.0938801 7.24015
0 0.967414 0.093967 6.26775
0 0.967428 0.0938501 6.51486
0 0.967436 0.095289 6.17954
0 0.967432 0.0943493 6.22874
0 0.967445 0.0946993 6.36539
0 0.967438 0.097331 8.45519
0 0.967444 0.0944652 7.81471
0 0.967428 0.0937927 5.68046
0 0.967452 0.0935658 6.27738
0 0.967515 0.155326 9.38656
0 0.967394 0.0956506 7.08738
0 0.967417 0.0948118 8.95705
0 0.967409 0.0980454 9.52351
0 0.967394 0.0935247 6.80415
0 0.967416 0.095296 7.25861
0 0.967403 0.0960056 8.094
0 0.967439 0.0949599 7.16317
0 0.967494 0.0941346 5.88143
0 0.967528 0.15616 11.9382
0 0.967416 0.0938208 5.8262
0 0.967422 0.0940339 8.29954
0 0.967424 0.0939362 8.24166
0 0.967427 0.093997 6.14716
0 0.967427 0.0940682 7.62042
0 0.967421 0.0942504 7.55673
0 0.967437 0.101007 6.56113
0 0.967428 0.0958627 6.24521
0 0.96744 0.0969499 5.75029
0 0.967428 0.0936621 8.06764
0 0.967422 0.0940007 8.08915
0 0.967418 0.153479 22.4218
0 0.967404 0.0946551 8.36372
0 0.967418 0.1018 6.58466
0 0.967407 0.0943382 6.49566
0 0.967415 0.09452 7.36094
0 0.96742 0.0973953 6.78993
0 0.96743 0.0983369 7.43517
0 0.967475 0.0940286 7.10853
0 0.967513 0.153792 12.2166
0 0.967422 0.0938262 6.81719
0 0.967425 0.0938487 7.68772
0 0.967419 0.0940474 7.60855
0 0.967412 0.0955142 7.45892
0 0.967418 0.0937374 6.73916
0 0.96743 0.0952388 7.00775
0 0.967414 0.0953484 8.03553
0 0.967419 0.096752 6.3323
0 0.967426 0.0937788 8.0249
0 0.96743 0.0932009 7.20878
0 0.967415 0.0929892 7.02696
0 0.96742 0.156307 11.9134
0 0.967424 0.0961278 5.99114
0 0.967417 0.0936748 7.34934
0 0.967431 0.101961 7.91761
0 0.967432 0.101704 6.6179
0 0.967456 0.0950164 7.02296
0 0.967473 0.156447 16.5666
0 0.967414 0.0931301 7.3008
0 0.967407 0.0940574 6.23276
0 0.967413 0.0972604 7.53039
0 0.967412 0.0946365 6.66433
0 0.967409 0.0954093 7.05478
0 0.967419 0.0934289 7.76601
0 0.96743 0.0931507 7.6568
0 0.967411 0.0929611 6.28901
0 0.967385 0.154692 18.3992
0 0.967421 0.105131 11.203
0 0.967426 0.0964855 7.76236
0 0.967431 0.095571 9.04583
0 0.967444 0.0942705 8.36778
0 0.967458 0.152686 9.13449
0 0.96741 0.0939917 6.47247
0 0.967406 0.102581 9.43407
0 0.967406 0.0943066 7.40379
0 0.967415 0.0938648 8.15711
0 0.967421 0.093878 7.76502
0 0.967429 0.0932439 6.84596
0 0.967417 0.154612 13.458
0 0.967414 0.0946313 7.26313
0 0.967409 0.0950396 7.80462
0 0.967391 0.0942345 6.57854
0 0.967396 0.154711 11.3415
0 0.967408 0.0959313 7.41459
0 0.967402 0.094254 8.31389
0 0.967408 0.0941256 7.0689
0 0.967407 0.0950751 7.43982
0 0.967399 0.0947563 6.4789
0 0.967383 0.0933138 7.75469
0 0.967404 0.156047 20.9791
0 0.967413 0.0972659 7.1854
0 0.967388 0.0943078 6.18238
0 0.967371 0.15496 26.0773
0 0.967433 0.0938689 7.28474
0 0.967405 0.105336 7.49285
0 0.967437 0.102315 9.65373
0 0.96735 0.0946594 7.29553
0 0.967323 0.151324 15.324
0 0.967422 0.09324 7.10279
0 0.967391 0.158068 16.9605
0 0.967462 0.0945688 7.09494
0 0.967415 0.0950678 7.85724
0 0.967353 0.154525 21.7435
0 0.967458 0.153669 9.17423
0 0.967447 0.157068 17.6125
VECTORS fa_u float
0.00674761 0.0027249 -0
0.00647321 0.00372444 -0
0.00394822 0.00106845 -0
0.00681387 0.00100508 -0
1e-08 0 0
0.00515582 0.00397275 -0
0.00311507 0.00304619 -0
1e-08 0 0
1e-08 0 0
0.00440883 0.00549428 -0
0.00455773 0.00773517 -0
0.00668313 9.46456e-05 -0
0.00618733 -0.000713655 0
1e-08 0 0
1e-08 0 0
1e-08 0 0
1e-08 0 0
1e-08 0 0
1e-08 0 0
1e-08 0 0
1e-08 0 0
0.00278397 0.00682351 -0
0.00162186 0.00626047 -0
1e-08 0 0
1e-08 0 0
1e-08 0 0
0.00817098 -0.0021031 0
1e-08 0 0
0.0092391 -0.00398135 0
1e-08 0 0
1e-08 0 0
1e-08 0 0
0.000861259 0.00708384 -0
1e-08 0 0
1e-08 0 0
1e-08 0 0
1e-08 0 0
1e-08 0 0
1e-08 0 0
1e-08 0 0
1e-08 0 0
1e-08 0 0
1e-08 0 0
-0.000118231 0.00738007 -0
1e-08 0 0
1e-08 0 0
1e-08 0 0
0.00554921 -0.00342376 0
1e-08 0 0
0.00348626 -0.00276746 0
1e-08 0 0
1e-08 0 0
1e-08 0 0
1e-08 0 0
1e-08 0 0
1e-08 0 0
1e-08 0 0
1e-08 0 0
1e-08 0 0
1e-08 0 0
1e-08 0 0
1e-08 0 0
1e-08 0 0
-0.000668967 0.00472486 0
1e-08 0 0
1e-08 0 0
1e-08 0 0
1e-08 0 0
1e-08 0 0
0.00362952 -0.00360654 0
1e-08 0 0
0.00307144 -0.00383669 0
1e-08 0 0
1e-08 0 0
1e-08 0 0
1e-08 0 0
1e-08 0 0
1e-08 0 0
1e-08 0 0
1e-08 0 0
1e-08 0 0
1e-08 0 0
1e-08 0 0
1e-08 0 0
1e-08 0 0
-0.00147183 0.005603 0
1e-08 0 0
1e-08 0 0
1e-08 0 0
1e-08 0 0
1e-08 0 0
1e-08 0 0
0.00491351 -0.00819098 0
1e-08 0 0
1e-08 0 0
1e-08 0 0
1e-08 0 0
1e-08 0 0
0.00325078 -0.00797618 0
1e-08 0 0
1e-08 0 0
1e-08 0 0
1e-08 0 0
1e-08 0 0
1e-08 0 0
1e-08 0 0
1e-08 0 0
1e-08 0 0
1e-08 0 0
-0.00273907 0.00673287 0
1e-08 0 0
1e-08 0 0
1e-08 0 0
1e-08 0 0
1e-08 0 0
1e-08 0 0
1e-08 0 0
1e-08 0 0
1e-08 0 0
1e-08 0 0
1e-08 0 0
1e-08 0 0
1e-08 0 0
1e-08 0 0
0.00147578 -0.00576832 0
1e-08 0 0
1e-08 0 0
1e-08 0 0
1e-08 0 0
1e-08 0 0
1e-08 0 0
1e-08 0 0
1e-08 0 0
1e-08 0 0
-0.00359752 0.00623699 0
1e-08 0 0
1e-08 0 0
1e-08 0 0
1e-08 0 0
1e-08 0 0
1e-08 0 0
1e-08 0 0
1e-08 0 0
1e-08 0 0
1e-08 0 0
1e-08 0 0
1e-08 0 0
1e-08 0 0
1e-08 0 0
1e-08 0 0
0.000608232 -0.0044952 0
1e-08 0 0
1e-08 0 0
1e-08 0 0
1e-08 0 0
1e-08 0 0
1e-08 0 0
1e-08 0 0
1e-08 0 0
1e-08 0 0
1e-08 0 0
-0.00442785 0.00570903 0
1e-08 0 0
1e-08 0 0
1e-08 0 0
1e-08 0 0
1e-08 0 0
1e-08 0 0
1e-08 0 0
1e-08 0 0
1e-08 0 0
1e-08 0 0
1e-08 0 0
1e-08 0 0
7.8642e-05 -0.00747305 0
1e-08 0 0
1e-08 0 0
1e-08 0 0
1e-08 0 0
1e-08 0 0
1e-08 0 0
1e-08 0 0
1e-08 0 0
1e-08 0 0
1e-08 0 0
1e-08 0 0
1e-08 0 0
-0.00293374 0.00296717 0
1e-08 0 0
1e-08 0 0
1e-08 0 0
1e-08 0 0
1e-08 0 0
1e-08 0 0
1e-08 0 0
1e-08 0 0
1e-08 0 0
1e-08 0 0
1e-08 0 0
1e-08 0 0
1e-08 0 0
-0.000861829 -0.00681938 0
1e-08 0 0
1e-08 0 0
1e-08 0 0
1e-08 0 0
1e-08 0 0
1e-08 0 0
1e-08 0 0
1e-08 0 0
-0.00489943 0.0039269 0
1e-08 0 0
1e-08 0 0
1e-08 0 0
1e-08 0 0
1e-08 0 0
1e-08 0 0
1e-08 0 0
1e-08 0 0
1e-08 0 0
1e-08 0 0
1e-08 0 0
-0.0016302 -0.00620399 0
1e-08 0 0
1e-08 0 0
1e-08 0 0
1e-08 0 0
1e-08 0 0
1e-08 0 0
1e-08 0 0
-0.00769019 0.00456591 0
1e-08 0 0
1e-08 0 0
1e-08 0 0
1e-08 0 0
1e-08 0 0
1e-08 0 0
1e-08 0 0
1e-08 0 0
1e-08 0 0
1e-08 0 0
1e-08 0 0
-0.00281252 -0.00683116 0
1e-08 0 0
1e-08 0 0
1e-08 0 0
1e-08 0 0
1e-08 0 0
-0.00698945 0.0028726 0
1e-08 0 0
1e-08 0 0
1e-08 0 0
1e-08 0 0
1e-08 0 0
1e-08 0 0
1e-08 0 0
1e-08 0 0
-0.00448558 -0.00756989 0
1e-08 0 0
1e-08 0 0
1e-08 0 0
1e-08 0 0
-0.00633068 0.00164943 0
1e-08 0 0
1e-08 0 0
1e-08 0 0
1e-08 0 0
1e-08 0 0
1e-08 0 0
-0.0037013 -0.00464843 0
1e-08 0 0
1e-08 0 0
1e-08 0 0
-0.00691937 0.000852869 0
1e-08 0 0
1e-08 0 0
1e-08 0 0
1e-08 0 0
1e-08 0 0
1e-08 0 0
-0.00314633 -0.00313182 0
1e-08 0 0
1e-08 0 0
-0.00777663 -0.000118735 0
1e-08 0 0
1e-08 0 0
1e-08 0 0
1e-08 0 0
-0.0058393 -0.00453771 0
1e-08 0 0
-0.00428385 -0.00060049 0
1e-08 0 0
1e-08 0 0
-0.00628115 -0.0036222 0
-0.00587996 -0.00152838 0
-0.00681025 -0.00276516 0
