# vtk DataFile Version 2.0
CellBP Time: 6.08
ASCII
DATASET UNSTRUCTURED_GRID
POINTS 296 double
-8.98231 -3.68046 0
-8.42187 -4.83613 0
-9.37792 -2.45616 0
-9.65049 -1.21915 0
-8.13811 -2.7244 0
-7.70322 -5.90467 0
-6.85257 -6.87128 0
-7.69793 -3.75441 0
-7.13708 -4.73117 0
-5.91897 -7.73855 0
-4.88062 -8.46949 0
-9.75551 0.0395415 0
-9.69445 1.32007 0
-8.45656 -1.62876 0
-8.60627 -0.508147 0
-7.38116 -1.92803 0
-7.01032 -2.80001 0
-6.47537 -5.64497 0
-5.69869 -6.46953 0
-6.5833 -3.76427 0
-6.04282 -4.55005 0
-3.72682 -9.0353 0
-2.49684 -9.43928 0
-4.81975 -7.18088 0
-3.86251 -7.76631 0
-8.62254 0.630555 0
-9.46951 2.59884 0
-8.47307 1.73228 0
-9.05755 3.81855 0
-7.55465 -0.889567 0
-7.61798 0.0879784 0
-6.76882 -1.26194 0
-1.2232 -9.6794 0
-6.27039 -2.08095 0
-6.14274 -2.95998 0
-5.39451 -5.35242 0
-4.6889 -5.99664 0
-5.50322 -3.65593 0
-5.12446 -4.44803 0
-2.82622 -8.2291 0
-1.75367 -8.48936 0
-3.85891 -6.60745 0
-3.01883 -7.04223 0
0.0546283 -9.74342 0
-7.54357 1.11977 0
-8.21188 2.87233 0
-7.40046 2.05946 0
-8.44954 4.94753 0
-7.73317 3.8948 0
-7.69705 5.99246 0
-6.61238 -0.373978 0
-6.79168 0.548555 0
-5.64243 -0.977677 0
-0.579068 -8.64462 0
0.549527 -8.58281 0
-5.17906 -2.41221 0
-4.37217 -4.98287 0
-3.81466 -5.66574 0
-4.33782 -3.72174 0
-2.03182 -7.43798 0
-1.1203 -7.64735 0
-2.9378 -5.99319 0
-2.2777 -6.51196 0
1.31807 -9.63057 0
-6.54605 1.3879 0
-7.01815 3.04184 0
-6.52022 2.31545 0
-7.14186 4.87056 0
-6.57414 3.90671 0
-6.85141 6.94546 0
-6.42978 5.75633 0
-5.90079 7.80284 0
-4.38387 -1.16349 0
-5.70167 0.496966 0
-4.58664 -0.0227363 0
-0.00787552 -7.68467 0
1.68581 -8.43313 0
0.907686 -7.58229 0
-3.97378 -2.3623 0
-3.46004 -1.38132 0
-3.23193 -4.71561 0
-3.22367 -3.2144 0
-1.3658 -6.55292 0
-0.519163 -6.88106 0
-1.95092 -5.44679 0
2.57264 -9.38176 0
-5.40196 1.99853 0
-5.96731 2.99725 0
-5.97319 4.74782 0
-5.63798 3.89027 0
-5.62687 6.55857 0
-5.33072 5.47997 0
-4.86279 8.55125 0
-4.72319 7.21994 0
-3.46862 -0.420298 0
-4.3766 1.22837 0
-3.66385 0.585667 0
-3.99237 2.29765 0
-3.71904 9.12156 0
2.77206 -8.10283 0
0.379632 -6.63741 0
1.94673 -7.32442 0
1.24228 -6.72683 0
-2.42956 -0.864277 0
-2.81745 -2.11059 0
-2.26717 -4.03566 0
-2.30377 -2.93488 0
-0.454921 -5.74109 0
-1.20561 -4.43657 0
3.78868 -8.98431 0
-4.69714 3.32186 0
-4.97807 4.47739 0
-4.5393 6.11775 0
-4.43738 5.2251 0
-3.76633 7.82233 0
-3.73188 6.66214 0
-2.72249 8.22989 0
-1.63737 -0.129103 0
-1.43889 -0.880884 0
-2.47429 0.515736 0
-3.2113 1.43727 0
-3.186 3.26588 0
-2.87191 2.36133 0
-1.35179 0.637161 0
-2.49499 9.51282 0
3.81629 -7.66812 0
2.85512 -6.93787 0
0.907945 -5.68141 0
1.9894 -6.23412 0
-1.66871 -1.97797 0
-1.41731 -3.24037 0
0.0805128 -4.66273 0
-0.552788 -3.65115 0
4.79703 -7.11206 0
4.93682 -8.42356 0
-3.70035 4.45492 0
-3.65086 5.6106 0
-2.81297 7.10577 0
-2.94038 6.19987 0
-1.62909 8.54758 0
-1.88964 7.44651 0
-2.30384 3.98805 0
-0.723813 -1.31803 0
-0.831951 -0.249887 0
-1.92973 1.68845 0
-2.10525 2.85747 0
-1.29947 3.51111 0
-0.873579 1.36214 0
-0.283857 0.465907 0
-0.524217 8.7017 0
-1.23041 9.7519 0
1.07702 -4.47717 0
3.77576 -6.49024 0
2.88495 -5.90828 0
2.04632 -5.28061 0
4.65267 -6.01038 0
-0.549907 -2.45926 0
0.489641 -3.41736 0
0.0567005 -1.60493 0
1.4462 -3.61051 0
5.7236 -6.43399 0
6.00372 -7.70688 0
-2.4242 5.237 0
-2.07338 6.38437 0
-0.880306 7.64845 0
-1.23063 6.78071 0
0.0915699 7.73789 0
-1.12767 4.42846 0
0.150899 -0.611136 0
-0.806205 2.49417 0
-0.343106 3.57834 0
0.0547828 1.51862 0
0.732957 0.477504 0
0.639867 8.72522 0
0.0434625 9.85828 0
2.31988 -4.17774 0
3.74649 -5.46101 0
2.91286 -5.06282 0
5.44883 -5.33759 0
4.56979 -5.11296 0
0.632964 -2.28466 0
1.24008 -2.91074 0
0.756714 -1.38646 0
2.12466 -3.07802 0
2.93634 -3.39674 0
6.03349 -4.67273 0
6.51727 -5.63264 0
6.96344 -6.84782 0
-0.990537 5.70899 0
-0.350426 6.74574 0
1.10592 7.64042 0
0.560522 6.95261 0
-0.00241999 4.66391 0
0.590822 3.79035 0
1.3305 -0.639412 0
0.524107 2.63936 0
0.951326 1.57533 0
1.89637 0.211985 0
1.59633 1.06442 0
2.1055 7.46762 0
1.77591 8.57079 0
1.32923 9.78506 0
3.7331 -4.23034 0
5.00503 -4.31313 0
5.73493 -3.83248 0
3.71429 -3.1276 0
1.7994 -1.87746 0
2.97293 -2.53361 0
6.67166 -3.86277 0
7.25401 -4.79827 0
7.82806 -5.90746 0
0.485144 5.78192 0
1.41334 6.63573 0
2.34399 6.57068 0
1.18914 4.50004 0
1.46764 3.36393 0
2.4138 -0.686769 0
2.80276 0.141976 0
1.77073 2.15087 0
2.59024 1.14134 0
3.03313 7.06339 0
2.86693 8.25018 0
2.59985 9.53882 0
4.81679 -3.24039 0
6.01626 -3.03363 0
4.11108 -2.23753 0
3.20639 -1.48765 0
6.63361 -2.27865 0
7.12912 -2.99736 0
7.84422 -3.85576 0
8.56335 -4.87188 0
2.00001 5.51885 0
3.0256 6.05217 0
2.34173 4.07235 0
2.39402 3.02814 0
3.4847 -0.454379 0
3.57917 0.615381 0
2.92928 2.2644 0
3.49803 1.50984 0
3.92062 5.79571 0
3.91213 6.68057 0
3.92496 7.81953 0
3.82696 9.13125 0
5.48814 -1.88344 0
4.45073 -1.11279 0
6.6096 -1.31355 0
7.47871 -2.00096 0
8.26797 -2.82064 0
9.1336 -3.72261 0
3.34288 4.79128 0
3.27928 3.33385 0
4.62721 0.134958 0
4.43967 1.28601 0
3.98308 2.39973 0
4.44734 5.04687 0
4.73766 6.07595 0
4.88996 7.25373 0
4.97644 8.56136 0
5.78544 -0.433436 0
6.88219 -0.488269 0
7.63643 -1.06348 0
8.54641 -1.71937 0
9.53871 -2.49348 0
4.43761 3.74702 0
5.69428 1.0595 0
5.23508 2.46903 0
5.22362 4.51118 0
5.46915 5.40448 0
5.77158 6.53848 0
6.01296 7.82882 0
6.70159 0.435156 0
7.70259 -0.0290208 0
8.71153 -0.567044 0
9.78149 -1.22072 0
6.7995 1.29684 0
5.55549 3.67813 0
6.37194 2.12203 0
6.19878 2.99346 0
6.11129 4.5659 0
6.5258 5.70496 0
6.95864 6.97043 0
7.61858 0.934969 0
8.68929 0.561018 0
9.84974 0.0615783 0
7.42939 1.94112 0
6.6143 3.78234 0
7.06372 2.85254 0
7.18858 4.76231 0
7.81819 6.01256 0
8.52405 1.68513 0
9.73424 1.32462 0
8.20178 2.75807 0
7.78092 3.81396 0
8.53513 4.94724 0
9.49102 2.58162 0
9.09523 3.79817 0
CELLS 542 2168
3 2 0 4
3 0 1 7
3 4 0 7
3 1 5 8
3 7 1 8
3 3 2 13
3 13 2 4
3 11 3 14
3 14 3 13
3 13 4 15
3 4 7 16
3 15 4 16
3 5 6 17
3 8 5 17
3 6 9 18
3 17 6 18
3 7 8 19
3 16 7 19
3 8 17 20
3 19 8 20
3 9 10 23
3 18 9 23
3 10 21 24
3 23 10 24
3 12 11 25
3 25 11 14
3 26 12 27
3 27 12 25
3 14 13 29
3 29 13 15
3 25 14 30
3 30 14 29
3 29 15 31
3 15 16 33
3 31 15 33
3 16 19 34
3 33 16 34
3 17 18 35
3 20 17 35
3 18 23 36
3 35 18 36
3 19 20 37
3 34 19 37
3 20 35 38
3 37 20 38
3 21 22 39
3 24 21 39
3 22 32 40
3 39 22 40
3 23 24 41
3 36 23 41
3 24 39 42
3 41 24 42
3 27 25 44
3 44 25 30
3 28 26 45
3 45 26 27
3 45 27 46
3 46 27 44
3 47 28 48
3 48 28 45
3 30 29 50
3 50 29 31
3 44 30 51
3 51 30 50
3 50 31 52
3 31 33 52
3 32 43 53
3 40 32 53
3 53 43 54
3 33 34 55
3 34 37 55
3 33 55 52
3 35 36 56
3 38 35 56
3 36 41 57
3 56 36 57
3 37 38 58
3 38 56 58
3 37 58 55
3 39 40 59
3 42 39 59
3 40 53 60
3 59 40 60
3 41 42 61
3 57 41 61
3 42 59 62
3 61 42 62
3 43 63 54
3 46 44 64
3 64 44 51
3 48 45 65
3 65 45 46
3 65 46 66
3 66 46 64
3 49 47 67
3 67 47 48
3 67 48 68
3 68 48 65
3 69 49 70
3 70 49 67
3 52 55 72
3 64 51 73
3 51 50 73
3 50 52 73
3 73 52 74
3 74 52 72
3 53 54 75
3 60 53 75
3 54 63 76
3 54 76 77
3 75 54 77
3 55 58 78
3 72 55 78
3 72 78 79
3 56 57 80
3 57 61 80
3 56 80 58
3 58 80 81
3 78 58 81
3 59 60 82
3 62 59 82
3 60 75 83
3 82 60 83
3 61 62 84
3 62 82 84
3 61 84 80
3 63 85 76
3 66 64 86
3 64 73 86
3 68 65 87
3 87 65 66
3 87 66 86
3 70 67 88
3 88 67 68
3 88 68 89
3 89 68 87
3 71 69 90
3 90 69 70
3 90 70 91
3 91 70 88
3 92 71 93
3 93 71 90
3 74 72 94
3 94 72 79
3 86 73 95
3 95 73 74
3 95 74 96
3 96 74 94
3 97 86 95
3 76 85 99
3 75 77 100
3 83 75 100
3 76 99 101
3 77 76 101
3 77 101 102
3 100 77 102
3 94 79 103
3 78 81 104
3 79 78 104
3 79 104 103
3 80 84 105
3 81 80 105
3 81 105 106
3 104 81 106
3 82 83 107
3 83 100 107
3 82 107 84
3 84 107 108
3 105 84 108
3 85 109 99
3 89 87 110
3 87 86 110
3 110 86 97
3 91 88 111
3 111 88 89
3 111 89 110
3 93 90 112
3 112 90 91
3 112 91 113
3 113 91 111
3 98 92 114
3 114 92 93
3 114 93 115
3 115 93 112
3 116 98 114
3 117 103 118
3 96 94 119
3 94 103 119
3 119 103 117
3 97 95 120
3 120 95 96
3 120 96 119
3 121 110 97
3 121 97 122
3 122 97 120
3 123 119 117
3 124 98 116
3 99 109 125
3 99 125 126
3 101 99 126
3 100 102 127
3 100 127 107
3 101 126 128
3 102 101 128
3 102 128 127
3 104 106 129
3 104 129 103
3 103 129 118
3 105 108 130
3 106 105 130
3 106 130 129
3 107 127 131
3 108 107 131
3 108 131 132
3 108 132 130
3 109 134 125
3 125 134 133
3 113 111 135
3 111 110 135
3 135 110 121
3 115 112 136
3 136 112 113
3 136 113 135
3 116 114 137
3 137 114 115
3 137 115 138
3 138 115 136
3 139 124 116
3 139 116 140
3 140 116 137
3 141 135 121
3 118 129 142
3 118 142 143
3 117 118 143
3 123 117 143
3 122 120 144
3 120 119 144
3 144 119 123
3 141 121 145
3 145 121 122
3 145 122 144
3 146 141 145
3 147 144 123
3 147 123 148
3 143 148 123
3 150 124 139
3 149 150 139
3 131 127 151
3 125 133 152
3 126 125 152
3 126 152 153
3 128 126 153
3 128 153 154
3 128 154 127
3 127 154 151
3 152 133 155
3 130 132 156
3 130 156 129
3 129 156 142
3 131 151 157
3 132 131 157
3 132 157 156
3 156 158 142
3 157 151 159
3 133 160 155
3 134 161 133
3 133 161 160
3 138 136 162
3 136 135 162
3 162 135 141
3 140 137 163
3 163 137 138
3 163 138 162
3 149 139 164
3 164 139 140
3 164 140 165
3 165 140 163
3 166 149 164
3 167 162 141
3 167 141 146
3 142 158 168
3 143 142 168
3 143 168 148
3 146 145 169
3 145 144 169
3 169 144 147
3 170 167 146
3 170 146 169
3 171 169 147
3 171 147 148
3 171 148 172
3 168 172 148
3 173 149 166
3 174 150 149
3 173 174 149
3 154 175 151
3 151 175 159
3 152 155 176
3 153 152 176
3 153 176 177
3 153 177 154
3 154 177 175
3 155 160 178
3 155 178 179
3 176 155 179
3 156 157 180
3 156 180 158
3 157 159 181
3 157 181 180
3 158 180 182
3 158 182 168
3 159 175 183
3 159 183 181
3 175 184 183
3 160 186 178
3 178 186 185
3 161 187 160
3 160 187 186
3 165 163 188
3 163 162 188
3 188 162 167
3 166 164 189
3 189 164 165
3 189 165 188
3 190 173 166
3 190 166 191
3 191 166 189
3 192 188 167
3 192 167 170
3 193 192 170
3 182 194 168
3 194 172 168
3 193 170 195
3 170 169 195
3 195 169 171
3 196 195 171
3 196 171 172
3 194 197 172
3 197 198 172
3 198 196 172
3 200 173 190
3 199 200 190
3 201 174 173
3 200 201 173
3 176 179 202
3 177 176 202
3 177 202 175
3 175 202 184
3 178 185 203
3 178 203 179
3 179 203 202
3 203 185 204
3 202 205 184
3 183 206 181
3 180 181 206
3 180 206 182
3 182 206 194
3 183 184 207
3 205 207 184
3 183 207 206
3 185 208 204
3 186 209 185
3 185 209 208
3 187 210 186
3 186 210 209
3 191 189 211
3 189 188 211
3 211 188 192
3 199 190 212
3 212 190 191
3 212 191 211
3 213 199 212
3 214 211 192
3 214 192 193
3 215 214 193
3 215 193 195
3 206 216 194
3 216 197 194
3 216 217 197
3 215 195 218
3 218 195 196
3 198 218 196
3 217 219 197
3 219 218 198
3 197 219 198
3 220 199 213
3 221 200 199
3 220 221 199
3 222 201 200
3 221 222 200
3 203 204 223
3 203 223 202
3 202 223 205
3 204 208 224
3 204 224 223
3 205 223 225
3 205 225 207
3 207 225 226
3 207 226 206
3 226 216 206
3 208 228 224
3 224 228 227
3 209 229 208
3 229 228 208
3 210 230 209
3 209 230 229
3 213 212 231
3 212 211 231
3 231 211 214
3 232 220 213
3 232 213 231
3 233 231 214
3 233 214 215
3 234 233 215
3 234 215 218
3 226 235 216
3 235 217 216
3 235 236 217
3 217 236 219
3 237 234 218
3 237 218 219
3 236 238 219
3 238 237 219
3 240 220 232
3 239 240 232
3 241 221 220
3 240 241 220
3 242 222 221
3 241 242 221
3 224 227 243
3 224 243 223
3 223 243 225
3 225 243 244
3 225 244 226
3 226 244 235
3 227 245 243
3 228 246 227
3 227 246 245
3 229 247 228
3 228 247 246
3 230 248 229
3 229 248 247
3 239 232 249
3 232 231 249
3 249 231 233
3 250 249 233
3 250 233 234
3 237 250 234
3 244 251 235
3 235 251 236
3 251 252 236
3 236 252 238
3 252 253 238
3 253 250 237
3 253 237 238
3 254 239 249
3 255 240 239
3 254 255 239
3 256 241 240
3 255 256 240
3 257 242 241
3 256 257 241
3 245 258 243
3 243 258 244
3 244 258 251
3 245 259 258
3 246 260 245
3 245 260 259
3 247 261 246
3 246 261 260
3 248 262 247
3 247 262 261
3 254 249 263
3 263 249 250
3 253 263 250
3 258 264 251
3 251 264 252
3 264 265 252
3 265 263 253
3 252 265 253
3 266 254 263
3 267 255 254
3 266 267 254
3 268 256 255
3 267 268 255
3 269 257 256
3 268 269 256
3 259 270 258
3 270 264 258
3 260 271 259
3 259 271 270
3 261 272 260
3 260 272 271
3 262 273 261
3 273 272 261
3 270 274 264
3 275 266 263
3 275 263 265
3 274 276 264
3 276 265 264
3 276 277 265
3 277 275 265
3 278 267 266
3 275 278 266
3 279 268 267
3 278 279 267
3 280 269 268
3 279 280 268
3 271 281 270
3 270 281 274
3 272 282 271
3 271 282 281
3 273 283 272
3 272 283 282
3 281 284 274
3 274 284 276
3 285 278 275
3 277 285 275
3 284 286 276
3 286 285 277
3 276 286 277
3 287 279 278
3 285 287 278
3 288 280 279
3 287 288 279
3 282 289 281
3 281 289 284
3 283 290 282
3 282 290 289
3 289 291 284
3 284 291 286
3 291 292 286
3 292 287 285
3 286 292 285
3 293 288 287
3 292 293 287
3 290 294 289
3 289 294 291
3 294 295 291
3 295 293 292
3 291 295 292
CELL_TYPES 542
5
5
5
5
5
5
5
5
5
5
5
5
5
5
5
5
5
5
5
5
5
5
5
5
5
5
5
5
5
5
5
5
5
5
5
5
5
5
5
5
5
5
5
5
5
5
5
5
5
5
5
5
5
5
5
5
5
5
5
5
5
5
5
5
5
5
5
5
5
5
5
5
5
5
5
5
5
5
5
5
5
5
5
5
5
5
5
5
5
5
5
5
5
5
5
5
5
5
5
5
5
5
5
5
5
5
5
5
5
5
5
5
5
5
5
5
5
5
5
5
5
5
5
5
5
5
5
5
5
5
5
5
5
5
5
5
5
5
5
5
5
5
5
5
5
5
5
5
5
5
5
5
5
5
5
5
5
5
5
5
5
5
5
5
5
5
5
5
5
5
5
5
5
5
5
5
5
5
5
5
5
5
5
5
5
5
5
5
5
5
5
5
5
5
5
5
5
5
5
5
5
5
5
5
5
5
5
5
5
5
5
5
5
5
5
5
5
5
5
5
5
5
5
5
5
5
5
5
5
5
5
5
5
5
5
5
5
5
5
5
5
5
5
5
5
5
5
5
5
5
5
5
5
5
5
5
5
5
5
5
5
5
5
5
5
5
5
5
5
5
5
5
5
5
5
5
5
5
5
5
5
5
5
5
5
5
5
5
5
5
5
5
5
5
5
5
5
5
5
5
5
5
5
5
5
5
5
5
5
5
5
5
5
5
5
5
5
5
5
5
5
5
5
5
5
5
5
5
5
5
5
5
5
5
5
5
5
5
5
5
5
5
5
5
5
5
5
5
5
5
5
5
5
5
5
5
5
5
5
5
5
5
5
5
5
5
5
5
5
5
5
5
5
5
5
5
5
5
5
5
5
5
5
5
5
5
5
5
5
5
5
5
5
5
5
5
5
5
5
5
5
5
5
5
5
5
5
5
5
5
5
5
5
5
5
5
5
5
5
5
5
5
5
5
5
5
5
5
5
5
5
5
5
5
5
5
5
5
5
5
5
5
5
5
5
5
5
5
5
5
5
5
5
5
5
5
5
5
5
5
5
5
5
5
5
5
5
5
5
5
5
5
5
5
5
5
5
5
5
5
5
5
5
5
5
5
5
5
5
5
5
5
5
5
5
5
5
5
5
5
5
5
5
5
5
5
5
5
5
5
5
5
5
5
5
5
5
5
5
5
5
5
5
5
5
5
5
5
5
5
5
5
5
5
5
5
5
5
5
5
5
5
POINT_DATA 296
SCALARS concentrations float 4
LOOKUP_TABLE default
0 0.960259 0.13903 17.3443
0 0.960312 0.138908 14.5919
0 0.960243 0.139917 22.421
0 0.960313 0.14119 14.9854
0 0.960283 0.0937526 7.88919
0 0.960336 0.142899 18.1983
0 0.960402 0.140768 14.3388
0 0.960319 0.094156 6.37424
0 0.960337 0.0944369 7.5533
0 0.960445 0.141065 14.2086
0 0.960467 0.138437 9.55215
0 0.960362 0.140047 14.2147
0 0.960327 0.137784 18.2117
0 0.960306 0.0936495 7.50628
0 0.960361 0.0938818 6.86114
0 0.960355 0.0947973 7.80948
0 0.960361 0.0948032 7.84506
0 0.960362 0.0936917 7.41818
0 0.960401 0.0932714 7.45993
0 0.960366 0.0941821 7.26954
0 0.96036 0.0937119 7.42264
0 0.960423 0.138925 23.6844
0 0.960414 0.142451 6.28993
0 0.960416 0.0930963 6.96113
0 0.96041 0.0941034 6.7668
0 0.960362 0.0943197 6.75375
0 0.960355 0.135713 13.3852
0 0.960359 0.0950081 7.47389
0 0.960398 0.140349 13.8485
0 0.960367 0.0935559 6.84376
0 0.960382 0.0943098 6.6871
0 0.96037 0.0942868 7.68965
0 0.960436 0.1421 12.9405
0 0.960374 0.0944657 7.29756
0 0.960377 0.0943401 6.841
0 0.960365 0.093413 7.05345
0 0.960367 0.0938468 7.68161
0 0.960371 0.0949712 6.92932
0 0.960371 0.0947713 7.83688
0 0.960395 0.0938884 6.98893
0 0.960413 0.0941474 6.85339
0 0.960369 0.0950578 7.81172
0 0.960367 0.0941007 5.84742
0 0.960463 0.140503 12.9986
0 0.960382 0.0947611 7.32846
0 0.960387 0.0948663 6.47255
0 0.96039 0.0995963 7.22825
0 0.960435 0.137759 8.23462
0 0.960425 0.09507 6.88094
0 0.960379 0.137959 15.708
0 0.960368 0.0937457 6.81656
0 0.960374 0.0956153 6.95967
0 0.960366 0.0937793 6.21496
0 0.96043 0.0935542 6.53966
0 0.960429 0.0945149 6.27357
0 0.960371 0.0938758 7.97706
0 0.960376 0.0944915 7.60658
0 0.960369 0.0944934 8.09494
0 0.960376 0.0950553 6.64981
0 0.960375 0.0954773 7.36419
0 0.960383 0.0951519 6.90568
0 0.960364 0.0964684 8.19946
0 0.960358 0.0978788 4.60572
0 0.960424 0.141343 10.3492
0 0.960375 0.095819 7.4424
0 0.960401 0.0967374 6.04975
0 0.960379 0.103177 3.85229
0 0.960413 0.0938112 7.37174
0 0.960413 0.0942123 7.80898
0 0.960371 0.13775 9.57157
0 0.960384 0.0943251 6.7143
0 0.960404 0.140433 16.1421
0 0.960367 0.0950676 7.57465
0 0.960365 0.0954305 6.81037
0 0.960369 0.0946871 8.06603
0 0.960389 0.0950409 6.27256
0 0.960417 0.094558 6.04214
0 0.960404 0.0950031 5.89501
0 0.960388 0.0973686 8.74843
0 0.960416 0.0992447 5.78597
0 0.960372 0.0957279 7.68887
0 0.960374 0.0946159 8.42197
0 0.96037 0.0961013 7.58245
0 0.96038 0.0949049 8.61232
0 0.960374 0.0971599 8.29761
0 0.960418 0.140444 11.8195
0 0.960368 0.0957724 7.95076
0 0.960372 0.0958089 6.7662
0 0.960409 0.0974949 6.67358
0 0.960391 0.100193 9.92368
0 0.960399 0.0968084 8.05829
0 0.960398 0.0978089 7.82593
0 0.960383 0.137372 12.1928
0 0.960416 0.0955945 7.79947
0 0.960389 0.095848 8.64045
0 0.960371 0.0964204 8.51047
0 0.960381 0.0953816 7.32957
0 0.960374 0.0937375 6.58984
0 0.960337 0.138322 14.9192
0 0.960428 0.0942958 7.59284
0 0.960386 0.0941545 7.77627
0 0.960411 0.0944417 7.24189
0 0.96038 0.0941788 7.92759
0 0.960417 0.0965185 6.21202
0 0.960413 0.103345 5.02149
0 0.960383 0.0963247 6.4264
0 0.960382 0.0947427 7.55777
0 0.960391 0.0961155 9.06634
0 0.960401 0.0962416 5.28712
0 0.960428 0.137784 8.54995
0 0.96037 0.0953488 7.3552
0 0.960376 0.0957817 8.02282
0 0.960404 0.0978469 7.57448
0 0.960372 0.102574 6.34543
0 0.960382 0.1017 4.94632
0 0.960411 0.0985686 6.4567
0 0.960351 0.0951964 7.21085
0 0.960413 0.0945024 7.29703
0 0.960401 0.0965304 6.96937
0 0.960406 0.0957342 6.38124
0 0.960387 0.0955209 8.27521
0 0.96038 0.0958144 6.63927
0 0.960385 0.0949691 7.71902
0 0.960415 0.094637 7.32439
0 0.960319 0.137111 15.3495
0 0.960399 0.10393 10.4381
0 0.960395 0.0947286 7.25969
0 0.960376 0.0951882 8.52555
0 0.960369 0.0944983 8.19387
0 0.960394 0.0968414 7.73194
0 0.960397 0.095362 7.60171
0 0.960389 0.0974255 8.47667
0 0.960391 0.101327 4.97667
0 0.960386 0.0959972 6.31109
0 0.960384 0.138794 13.7066
0 0.960374 0.0947778 7.10815
0 0.960386 0.102837 9.4083
0 0.960409 0.101762 8.65532
0 0.960411 0.096931 6.77782
0 0.960353 0.0946396 7.17712
0 0.960402 0.0975861 6.79238
0 0.960371 0.10078 6.85681
0 0.960421 0.0955179 7.63727
0 0.960424 0.0954721 7.73843
0 0.960398 0.0964375 6.02103
0 0.960382 0.0946856 6.73732
0 0.960377 0.0964709 6.33853
0 0.960408 0.095534 6.91551
0 0.960426 0.0949432 7.0948
0 0.960398 0.0942597 7.28809
0 0.960364 0.141429 14.7904
0 0.960359 0.0971778 6.10885
0 0.960392 0.0971044 3.96017
0 0.960381 0.0957167 8.74444
0 0.96036 0.096041 8.76516
0 0.960392 0.0945002 7.52096
0 0.960406 0.104188 8.94352
0 0.960383 0.0988562 8.3923
0 0.960435 0.094528 7.42202
0 0.960363 0.0958229 6.31222
0 0.960387 0.0940425 8.05175
0 0.960399 0.137389 12.2525
0 0.960382 0.0960438 7.49335
0 0.960409 0.0950982 6.53814
0 0.960387 0.0944435 7.27518
0 0.960406 0.0981936 6.80448
0 0.960397 0.0940245 7.18521
0 0.960365 0.09432 6.71156
0 0.960432 0.0949234 7.67443
0 0.960401 0.0959387 6.60318
0 0.960382 0.100645 4.71605
0 0.960413 0.0939187 7.71809
0 0.960422 0.0952536 7.46059
0 0.960433 0.0943687 7.01602
0 0.960433 0.138576 19.0303
0 0.960359 0.0946108 5.80711
0 0.960388 0.095807 6.56091
0 0.960373 0.0949594 8.48044
0 0.960365 0.0952273 7.55326
0 0.960379 0.0945847 7.59191
0 0.960406 0.100945 9.28298
0 0.960382 0.0954677 7.24
0 0.960417 0.100534 5.39868
0 0.960373 0.100402 4.90291
0 0.960375 0.0951881 5.81222
0 0.960358 0.09516 7.56815
0 0.960353 0.0945251 7.7165
0 0.960368 0.137616 19.0709
0 0.960391 0.101686 4.88971
0 0.960398 0.095367 7.21651
0 0.960397 0.095005 7.23438
0 0.960388 0.09633 6.07499
0 0.960377 0.0954634 7.23929
0 0.960372 0.0943578 7.10543
0 0.960422 0.0954432 7.4764
0 0.9604 0.0940403 7.34713
0 0.960416 0.0948124 7.49397
0 0.96041 0.0959544 7.03392
0 0.960406 0.0950922 7.50208
0 0.960403 0.0967162 7.00394
0 0.960426 0.0936192 6.95287
0 0.960454 0.137871 6.26687
0 0.96037 0.0943019 8.44306
0 0.960364 0.0939136 7.71146
0 0.960364 0.0946717 8.19096
0 0.960376 0.0944613 8.32736
0 0.960402 0.0997013 5.52342
0 0.960387 0.0967322 8.07294
0 0.960373 0.0940427 6.94399
0 0.960387 0.0933755 7.85978
0 0.960369 0.142964 18.744
0 0.960392 0.0972448 6.69292
0 0.960389 0.0999503 5.04623
0 0.96041 0.0973972 6.12537
0 0.960384 0.0949243 6.80354
0 0.960386 0.094807 7.82736
0 0.960422 0.095787 7.444
0 0.960399 0.0963299 7.34543
0 0.960401 0.0951778 6.90904
0 0.960403 0.0989993 7.61017
0 0.960408 0.102681 9.07293
0 0.960385 0.0947646 6.23666
0 0.960414 0.13871 15.8084
0 0.960378 0.0969227 7.93104
0 0.960381 0.0959771 6.84586
0 0.960392 0.100882 6.13667
0 0.960403 0.096821 7.72084
0 0.960399 0.0992294 7.60846
0 0.960378 0.0955323 7.08645
0 0.960402 0.0933453 6.77689
0 0.960421 0.140749 6.12767
0 0.960388 0.0975809 6.26248
0 0.960405 0.0955381 6.29051
0 0.96038 0.0945137 7.48649
0 0.960382 0.0947164 7.49025
0 0.960397 0.0951172 6.97257
0 0.960389 0.0951393 7.23953
0 0.960398 0.0947785 7.90329
0 0.960403 0.0951359 7.02425
0 0.960406 0.0962264 7.63954
0 0.960417 0.0962827 8.34678
0 0.960355 0.0941885 7.88636
0 0.960339 0.136733 17.5712
0 0.960405 0.0957054 5.94477
0 0.960399 0.0940776 6.88163
0 0.960394 0.0970667 8.38986
0 0.96038 0.096141 5.66495
0 0.960403 0.0939814 7.1128
0 0.960418 0.139263 14.4758
0 0.960377 0.0974882 5.83555
0 0.960375 0.0945033 7.95053
0 0.960387 0.0958107 7.15648
0 0.960378 0.0957251 6.84966
0 0.960379 0.0976331 8.32701
0 0.960386 0.0965823 9.05853
0 0.960437 0.0939869 7.63861
0 0.960383 0.0945422 6.64743
0 0.960326 0.13622 12.4822
0 0.96039 0.0951677 8.14609
0 0.960388 0.0951347 7.17583
0 0.960381 0.0951721 6.96881
0 0.960387 0.0937903 6.23773
0 0.960409 0.140357 18.3864
0 0.960364 0.0962278 5.60036
0 0.96038 0.0943955 7.28008
0 0.960373 0.0957894 8.06862
0 0.960378 0.0947558 7.58234
0 0.960446 0.0957416 7.3795
0 0.960462 0.0947416 6.90419
0 0.960393 0.137695 10.6066
0 0.960392 0.09561 7.9779
0 0.960401 0.0945152 7.19631
0 0.960392 0.0938225 7.10913
0 0.960384 0.140738 11.3526
0 0.960389 0.094132 7.75614
0 0.960378 0.0977967 6.96921
0 0.960385 0.0944171 8.34874
0 0.96039 0.0955245 8.67152
0 0.960439 0.0964068 7.46872
0 0.96049 0.0961923 5.63832
0 0.960496 0.140042 5.38573
0 0.960408 0.0948707 7.18019
0 0.960422 0.0937894 6.98938
0 0.96041 0.1397 13.2338
0 0.960411 0.0949102 7.73659
0 0.960431 0.0985032 6.7898
0 0.960425 0.0957667 6.5597
0 0.960472 0.0993545 4.7042
0 0.960484 0.136979 12.7827
0 0.960423 0.0950489 7.67954
0 0.960442 0.139525 14.8233
0 0.960432 0.0961445 7.39474
0 0.96047 0.0950667 7.96157
0 0.960485 0.136228 6.31917
0 0.960413 0.136214 8.17095
0 0.960463 0.137282 10.727
VECTORS fa_u float
0.00694506 0.00278988 -0
0.0066288 0.00381209 -0
0.00345194 0.000937107 -0
0.00695367 0.00105209 -0
1e-08 0 0
0.00514713 0.00396895 -0
0.00282198 0.0027456 -0
1e-08 0 0
1e-08 0 0
0.00450758 0.00556165 -0
0.00491445 0.00830787 -0
0.00670721 0.000116135 -0
0.00614035 -0.00068619 0
1e-08 0 0
1e-08 0 0
1e-08 0 0
1e-08 0 0
1e-08 0 0
1e-08 0 0
1e-08 0 0
1e-08 0 0
0.00279423 0.00686835 -0
0.00164446 0.00639198 -0
1e-08 0 0
1e-08 0 0
1e-08 0 0
0.00857144 -0.00218501 0
1e-08 0 0
0.0100487 -0.00436385 0
1e-08 0 0
1e-08 0 0
1e-08 0 0
0.000850325 0.00713338 -0
1e-08 0 0
1e-08 0 0
1e-08 0 0
1e-08 0 0
1e-08 0 0
1e-08 0 0
1e-08 0 0
1e-08 0 0
1e-08 0 0
1e-08 0 0
-0.000145366 0.00756626 -0
1e-08 0 0
1e-08 0 0
1e-08 0 0
0.00556387 -0.00348204 0
1e-08 0 0
0.00314412 -0.00251497 0
1e-08 0 0
1e-08 0 0
1e-08 0 0
1e-08 0 0
1e-08 0 0
1e-08 0 0
1e-08 0 0
1e-08 0 0
1e-08 0 0
1e-08 0 0
1e-08 0 0
1e-08 0 0
1e-08 0 0
-0.000633998 0.00441408 0
1e-08 0 0
1e-08 0 0
1e-08 0 0
1e-08 0 0
1e-08 0 0
0.00342393 -0.00339722 0
1e-08 0 0
0.00291857 -0.00361436 0
1e-08 0 0
1e-08 0 0
1e-08 0 0
1e-08 0 0
1e-08 0 0
1e-08 0 0
1e-08 0 0
1e-08 0 0
1e-08 0 0
1e-08 0 0
1e-08 0 0
1e-08 0 0
1e-08 0 0
-0.00142254 0.00543824 0
1e-08 0 0
1e-08 0 0
1e-08 0 0
1e-08 0 0
1e-08 0 0
1e-08 0 0
0.00528789 -0.00874855 0
1e-08 0 0
1e-08 0 0
1e-08 0 0
1e-08 0 0
1e-08 0 0
0.00342701 -0.00843878 0
1e-08 0 0
1e-08 0 0
1e-08 0 0
1e-08 0 0
1e-08 0 0
1e-08 0 0
1e-08 0 0
1e-08 0 0
1e-08 0 0
1e-08 0 0
-0.00280368 0.00691761 0
1e-08 0 0
1e-08 0 0
1e-08 0 0
1e-08 0 0
1e-08 0 0
1e-08 0 0
1e-08 0 0
1e-08 0 0
1e-08 0 0
1e-08 0 0
1e-08 0 0
1e-08 0 0
1e-08 0 0
1e-08 0 0
0.00142881 -0.00564102 0
1e-08 0 0
1e-08 0 0
1e-08 0 0
1e-08 0 0
1e-08 0 0
1e-08 0 0
1e-08 0 0
1e-08 0 0
1e-08 0 0
-0.003654 0.00633598 0
1e-08 0 0
1e-08 0 0
1e-08 0 0
1e-08 0 0
1e-08 0 0
1e-08 0 0
1e-08 0 0
1e-08 0 0
1e-08 0 0
1e-08 0 0
1e-08 0 0
1e-08 0 0
1e-08 0 0
1e-08 0 0
1e-08 0 0
0.000562221 -0.00413122 0
1e-08 0 0
1e-08 0 0
1e-08 0 0
1e-08 0 0
1e-08 0 0
1e-08 0 0
1e-08 0 0
1e-08 0 0
1e-08 0 0
1e-08 0 0
-0.00456388 0.00586978 0
1e-08 0 0
1e-08 0 0
1e-08 0 0
1e-08 0 0
1e-08 0 0
1e-08 0 0
1e-08 0 0
1e-08 0 0
1e-08 0 0
1e-08 0 0
1e-08 0 0
1e-08 0 0
9.88296e-05 -0.0076278 0
1e-08 0 0
1e-08 0 0
1e-08 0 0
1e-08 0 0
1e-08 0 0
1e-08 0 0
1e-08 0 0
1e-08 0 0
1e-08 0 0
1e-08 0 0
1e-08 0 0
1e-08 0 0
-0.00258273 0.00261849 0
1e-08 0 0
1e-08 0 0
1e-08 0 0
1e-08 0 0
1e-08 0 0
1e-08 0 0
1e-08 0 0
1e-08 0 0
1e-08 0 0
1e-08 0 0
1e-08 0 0
1e-08 0 0
1e-08 0 0
-0.000865987 -0.00692986 0
1e-08 0 0
1e-08 0 0
1e-08 0 0
1e-08 0 0
1e-08 0 0
1e-08 0 0
1e-08 0 0
1e-08 0 0
-0.00483001 0.00391081 0
1e-08 0 0
1e-08 0 0
1e-08 0 0
1e-08 0 0
1e-08 0 0
1e-08 0 0
1e-08 0 0
1e-08 0 0
1e-08 0 0
1e-08 0 0
1e-08 0 0
-0.0016294 -0.00622473 0
1e-08 0 0
1e-08 0 0
1e-08 0 0
1e-08 0 0
1e-08 0 0
1e-08 0 0
1e-08 0 0
-0.00822737 0.00491621 0
1e-08 0 0
1e-08 0 0
1e-08 0 0
1e-08 0 0
1e-08 0 0
1e-08 0 0
1e-08 0 0
1e-08 0 0
1e-08 0 0
1e-08 0 0
1e-08 0 0
-0.00286574 -0.00696772 0
1e-08 0 0
1e-08 0 0
1e-08 0 0
1e-08 0 0
1e-08 0 0
-0.00723041 0.00296515 0
1e-08 0 0
1e-08 0 0
1e-08 0 0
1e-08 0 0
1e-08 0 0
1e-08 0 0
1e-08 0 0
1e-08 0 0
-0.00479158 -0.00804216 0
1e-08 0 0
1e-08 0 0
1e-08 0 0
1e-08 0 0
-0.00628466 0.00162748 0
1e-08 0 0
1e-08 0 0
1e-08 0 0
1e-08 0 0
1e-08 0 0
1e-08 0 0
-0.00363677 -0.00453119 0
1e-08 0 0
1e-08 0 0
1e-08 0 0
-0.0070182 0.000854326 0
1e-08 0 0
1e-08 0 0
1e-08 0 0
1e-08 0 0
1e-08 0 0
1e-08 0 0
-0.00289366 -0.00287608 0
1e-08 0 0
1e-08 0 0
-0.0081286 -0.000150892 0
1e-08 0 0
1e-08 0 0
1e-08 0 0
1e-08 0 0
-0.00590307 -0.00459973 0
1e-08 0 0
-0.00387158 -0.000551104 0
1e-08 0 0
1e-08 0 0
-0.0064878 -0.00374154 0
-0.00574233 -0.00148345 0
-0.00697757 -0.00281948 0
