# vtk DataFile Version 2.0
CellBP Time: 11.2
ASCII
DATASET UNSTRUCTURED_GRID
POINTS 296 double
-8.91975 -3.65149 0
-8.3646 -4.80162 0
-9.30897 -2.43198 0
-9.58583 -1.20763 0
-8.07843 -2.69989 0
-7.64881 -5.86454 0
-6.80177 -6.82581 0
-7.63808 -3.72147 0
-7.08131 -4.69316 0
-5.88202 -7.69382 0
-4.8574 -8.42541 0
-9.69583 0.0378277 0
-9.64166 1.31073 0
-8.39594 -1.61153 0
-8.5556 -0.502136 0
-7.3275 -1.90546 0
-6.95079 -2.77152 0
-6.42593 -5.6048 0
-5.65924 -6.43422 0
-6.52884 -3.73022 0
-5.99919 -4.51794 0
-3.71022 -8.98809 0
-2.4837 -9.38638 0
-4.79112 -7.14136 0
-3.848 -7.73361 0
-8.57006 0.630698 0
-9.42462 2.58731 0
-8.4293 1.71902 0
-9.01568 3.80101 0
-7.49994 -0.876192 0
-7.5655 0.0923631 0
-6.72069 -1.25003 0
-1.21365 -9.62349 0
-6.2243 -2.06038 0
-6.09593 -2.93316 0
-5.35342 -5.31485 0
-4.65778 -5.9598 0
-5.45925 -3.6283 0
-5.08558 -4.41892 0
-2.81557 -8.19397 0
-1.74504 -8.44605 0
-3.83964 -6.575 0
-3.00816 -7.01144 0
0.0557677 -9.68159 0
-7.49888 1.11679 0
-8.17526 2.85802 0
-7.36048 2.04747 0
-8.40065 4.91724 0
-7.69755 3.87072 0
-7.64306 5.95055 0
-6.56619 -0.369052 0
-6.74813 0.550373 0
-5.60527 -0.966862 0
-0.5724 -8.5941 0
0.548926 -8.52798 0
-5.14566 -2.39583 0
-4.33796 -4.95122 0
-3.78879 -5.63445 0
-4.31028 -3.69834 0
-2.02265 -7.40494 0
-1.11505 -7.60778 0
-2.92266 -5.96379 0
-2.27158 -6.4826 0
1.30761 -9.56161 0
-6.50931 1.38108 0
-6.97664 3.02377 0
-6.48114 2.30162 0
-7.09545 4.83706 0
-6.53788 3.88193 0
-6.80238 6.89492 0
-6.38897 5.716 0
-5.86067 7.75037 0
-4.36397 -1.15818 0
-5.67081 0.492167 0
-4.56781 -0.0249875 0
-0.0119066 -7.63609 0
1.67415 -8.37571 0
0.896746 -7.53146 0
-3.95555 -2.3495 0
-3.45177 -1.37899 0
-3.21564 -4.69117 0
-3.21166 -3.19999 0
-1.36222 -6.52081 0
-0.522841 -6.84412 0
-1.94215 -5.42369 0
2.55373 -9.31427 0
-5.37397 1.99133 0
-5.93334 2.97773 0
-5.93559 4.71246 0
-5.60419 3.86004 0
-5.59302 6.51056 0
-5.29689 5.44007 0
-4.83614 8.50343 0
-4.69413 7.17179 0
-3.46139 -0.420385 0
-4.35559 1.22269 0
-3.64966 0.584382 0
-3.97529 2.29173 0
-3.70115 9.07072 0
2.74967 -8.03882 0
0.368269 -6.59286 0
1.92763 -7.27292 0
1.22754 -6.67935 0
-2.4264 -0.862613 0
-2.81073 -2.10358 0
-2.25985 -4.01766 0
-2.2956 -2.92054 0
-0.455288 -5.7098 0
-1.19809 -4.41986 0
3.76282 -8.92355 0
-4.66848 3.30407 0
-4.94827 4.44655 0
-4.50995 6.07687 0
-4.40795 5.1867 0
-3.74581 7.77705 0
-3.70746 6.61338 0
-2.70841 8.17968 0
-1.63113 -0.126337 0
-1.43594 -0.877727 0
-2.47072 0.516664 0
-3.19932 1.43677 0
-3.16986 3.25285 0
-2.86366 2.35714 0
-1.35035 0.639162 0
-2.48217 9.45401 0
3.78571 -7.61011 0
2.82334 -6.87787 0
0.896315 -5.64398 0
1.96835 -6.18689 0
-1.66575 -1.97272 0
-1.4126 -3.22796 0
0.0760615 -4.63999 0
-0.548326 -3.64102 0
4.76405 -7.05856 0
4.90332 -8.3678 0
-3.67959 4.43145 0
-3.62803 5.57401 0
-2.79333 7.0588 0
-2.92294 6.15798 0
-1.62074 8.49436 0
-1.87827 7.40041 0
-2.29548 3.96865 0
-0.723193 -1.31644 0
-0.828638 -0.244058 0
-1.93032 1.69057 0
-2.09987 2.85318 0
-1.29835 3.50282 0
-0.872358 1.3644 0
-0.28416 0.469177 0
-0.51946 8.64886 0
-1.22332 9.68868 0
1.06798 -4.45023 0
3.74081 -6.43142 0
2.85842 -5.85898 0
2.02866 -5.24123 0
4.61624 -5.96037 0
-0.546609 -2.45439 0
0.486663 -3.40541 0
0.0559802 -1.6036 0
1.43662 -3.59012 0
5.68073 -6.38707 0
5.96393 -7.65467 0
-2.41119 5.20776 0
-2.05894 6.34693 0
-0.874055 7.60162 0
-1.22086 6.74462 0
0.0932435 7.69174 0
-1.12625 4.40985 0
0.14817 -0.608744 0
-0.807856 2.49349 0
-0.346074 3.57197 0
0.0553412 1.52041 0
0.736504 0.477757 0
0.634978 8.67898 0
0.0414253 9.79958 0
2.30222 -4.14883 0
3.71903 -5.41427 0
2.88963 -5.02157 0
5.41451 -5.29585 0
4.5381 -5.07317 0
0.631568 -2.28307 0
1.2372 -2.89922 0
0.75448 -1.38431 0
2.11406 -3.06238 0
2.91949 -3.37428 0
6.00287 -4.64344 0
6.47656 -5.59581 0
6.91737 -6.79735 0
-0.984304 5.68048 0
-0.344999 6.70932 0
1.1005 7.60467 0
0.562721 6.92295 0
-0.00303837 4.646 0
0.58679 3.78186 0
1.32849 -0.638696 0
0.51918 2.63777 0
0.949079 1.57693 0
1.89358 0.209818 0
1.59206 1.06296 0
2.09667 7.43946 0
1.76663 8.53115 0
1.32078 9.72947 0
3.70697 -4.19675 0
4.97476 -4.27644 0
5.70417 -3.8043 0
3.69544 -3.1042 0
1.79691 -1.87544 0
2.96207 -2.52463 0
6.63892 -3.83998 0
7.2169 -4.77027 0
7.7818 -5.8689 0
0.483252 5.75539 0
1.40968 6.60757 0
2.33457 6.54498 0
1.1857 4.48344 0
1.46252 3.35222 0
2.40645 -0.686504 0
2.79509 0.138696 0
1.76545 2.14616 0
2.58184 1.13874 0
3.02218 7.03076 0
2.85447 8.21183 0
2.58701 9.48608 0
4.79317 -3.21742 0
5.98653 -3.01483 0
4.09474 -2.22792 0
3.1962 -1.48344 0
6.60609 -2.26915 0
7.09735 -2.98432 0
7.80742 -3.83917 0
8.51852 -4.84762 0
1.99267 5.49737 0
3.00814 6.0232 0
2.33186 4.05732 0
2.38779 3.01629 0
3.47295 -0.451529 0
3.568 0.615695 0
2.92017 2.25604 0
3.48493 1.50482 0
3.89648 5.76651 0
3.89047 6.64683 0
3.90766 7.78488 0
3.81019 9.08222 0
5.46667 -1.87636 0
4.43512 -1.10958 0
6.5812 -1.30865 0
7.44642 -1.99303 0
8.22801 -2.80839 0
9.08583 -3.70605 0
3.31927 4.76769 0
3.26311 3.32113 0
4.60865 0.135168 0
4.41909 1.28194 0
3.96079 2.38741 0
4.41214 5.01602 0
4.70655 6.03886 0
4.86322 7.21504 0
4.95206 8.51488 0
5.75983 -0.431633 0
6.84588 -0.490481 0
7.60125 -1.06183 0
8.50377 -1.71212 0
9.48671 -2.48124 0
4.40588 3.72513 0
5.65872 1.04752 0
5.19836 2.45034 0
5.18181 4.48026 0
5.42922 5.36897 0
5.73218 6.50103 0
5.97438 7.78173 0
6.6616 0.427407 0
7.65923 -0.0328181 0
8.66502 -0.566271 0
9.72548 -1.2117 0
6.75234 1.28167 0
5.511 3.64877 0
6.32474 2.10103 0
6.14965 2.96646 0
6.0634 4.53217 0
6.48066 5.67007 0
6.90928 6.92477 0
7.5688 0.92898 0
8.63384 0.559148 0
9.78856 0.0633444 0
7.37862 1.92421 0
6.55682 3.74683 0
7.00861 2.82946 0
7.13526 4.72875 0
7.76758 5.97426 0
8.46671 1.67642 0
9.66559 1.31455 0
8.14006 2.73504 0
7.72856 3.78747 0
8.48093 4.91543 0
9.42475 2.56379 0
9.0362 3.77371 0
CELLS 542 2168
3 2 0 4
3 0 1 7
3 4 0 7
3 1 5 8
3 7 1 8
3 3 2 13
3 13 2 4
3 11 3 14
3 14 3 13
3 13 4 15
3 4 7 16
3 15 4 16
3 5 6 17
3 8 5 17
3 6 9 18
3 17 6 18
3 7 8 19
3 16 7 19
3 8 17 20
3 19 8 20
3 9 10 23
3 18 9 23
3 10 21 24
3 23 10 24
3 12 11 25
3 25 11 14
3 26 12 27
3 27 12 25
3 14 13 29
3 29 13 15
3 25 14 30
3 30 14 29
3 29 15 31
3 15 16 33
3 31 15 33
3 16 19 34
3 33 16 34
3 17 18 35
3 20 17 35
3 18 23 36
3 35 18 36
3 19 20 37
3 34 19 37
3 20 35 38
3 37 20 38
3 21 22 39
3 24 21 39
3 22 32 40
3 39 22 40
3 23 24 41
3 36 23 41
3 24 39 42
3 41 24 42
3 27 25 44
3 44 25 30
3 28 26 45
3 45 26 27
3 45 27 46
3 46 27 44
3 47 28 48
3 48 28 45
3 30 29 50
3 50 29 31
3 44 30 51
3 51 30 50
3 50 31 52
3 31 33 52
3 32 43 53
3 40 32 53
3 53 43 54
3 33 34 55
3 34 37 55
3 33 55 52
3 35 36 56
3 38 35 56
3 36 41 57
3 56 36 57
3 37 38 58
3 38 56 58
3 37 58 55
3 39 40 59
3 42 39 59
3 40 53 60
3 59 40 60
3 41 42 61
3 57 41 61
3 42 59 62
3 61 42 62
3 43 63 54
3 46 44 64
3 64 44 51
3 48 45 65
3 65 45 46
3 65 46 66
3 66 46 64
3 49 47 67
3 67 47 48
3 67 48 68
3 68 48 65
3 69 49 70
3 70 49 67
3 52 55 72
3 64 51 73
3 51 50 73
3 50 52 73
3 73 52 74
3 74 52 72
3 53 54 75
3 60 53 75
3 54 63 76
3 54 76 77
3 75 54 77
3 55 58 78
3 72 55 78
3 72 78 79
3 56 57 80
3 57 61 80
3 56 80 58
3 58 80 81
3 78 58 81
3 59 60 82
3 62 59 82
3 60 75 83
3 82 60 83
3 61 62 84
3 62 82 84
3 61 84 80
3 63 85 76
3 66 64 86
3 64 73 86
3 68 65 87
3 87 65 66
3 87 66 86
3 70 67 88
3 88 67 68
3 88 68 89
3 89 68 87
3 71 69 90
3 90 69 70
3 90 70 91
3 91 70 88
3 92 71 93
3 93 71 90
3 74 72 94
3 94 72 79
3 86 73 95
3 95 73 74
3 95 74 96
3 96 74 94
3 97 86 95
3 76 85 99
3 75 77 100
3 83 75 100
3 76 99 101
3 77 76 101
3 77 101 102
3 100 77 102
3 94 79 103
3 78 81 104
3 79 78 104
3 79 104 103
3 80 84 105
3 81 80 105
3 81 105 106
3 104 81 106
3 82 83 107
3 83 100 107
3 82 107 84
3 84 107 108
3 105 84 108
3 85 109 99
3 89 87 110
3 87 86 110
3 110 86 97
3 91 88 111
3 111 88 89
3 111 89 110
3 93 90 112
3 112 90 91
3 112 91 113
3 113 91 111
3 98 92 114
3 114 92 93
3 114 93 115
3 115 93 112
3 116 98 114
3 117 103 118
3 96 94 119
3 94 103 119
3 119 103 117
3 97 95 120
3 120 95 96
3 120 96 119
3 121 110 97
3 121 97 122
3 122 97 120
3 123 119 117
3 124 98 116
3 99 109 125
3 99 125 126
3 101 99 126
3 100 102 127
3 100 127 107
3 101 126 128
3 102 101 128
3 102 128 127
3 104 106 129
3 104 129 103
3 103 129 118
3 105 108 130
3 106 105 130
3 106 130 129
3 107 127 131
3 108 107 131
3 108 131 132
3 108 132 130
3 109 134 125
3 125 134 133
3 113 111 135
3 111 110 135
3 135 110 121
3 115 112 136
3 136 112 113
3 136 113 135
3 116 114 137
3 137 114 115
3 137 115 138
3 138 115 136
3 139 124 116
3 139 116 140
3 140 116 137
3 141 135 121
3 118 129 142
3 118 142 143
3 117 118 143
3 123 117 143
3 122 120 144
3 120 119 144
3 144 119 123
3 141 121 145
3 145 121 122
3 145 122 144
3 146 141 145
3 147 144 123
3 147 123 148
3 143 148 123
3 150 124 139
3 149 150 139
3 131 127 151
3 125 133 152
3 126 125 152
3 126 152 153
3 128 126 153
3 128 153 154
3 128 154 127
3 127 154 151
3 152 133 155
3 130 132 156
3 130 156 129
3 129 156 142
3 131 151 157
3 132 131 157
3 132 157 156
3 156 158 142
3 157 151 159
3 133 160 155
3 134 161 133
3 133 161 160
3 138 136 162
3 136 135 162
3 162 135 141
3 140 137 163
3 163 137 138
3 163 138 162
3 149 139 164
3 164 139 140
3 164 140 165
3 165 140 163
3 166 149 164
3 167 162 141
3 167 141 146
3 142 158 168
3 143 142 168
3 143 168 148
3 146 145 169
3 145 144 169
3 169 144 147
3 170 167 146
3 170 146 169
3 171 169 147
3 171 147 148
3 171 148 172
3 168 172 148
3 173 149 166
3 174 150 149
3 173 174 149
3 154 175 151
3 151 175 159
3 152 155 176
3 153 152 176
3 153 176 177
3 153 177 154
3 154 177 175
3 155 160 178
3 155 178 179
3 176 155 179
3 156 157 180
3 156 180 158
3 157 159 181
3 157 181 180
3 158 180 182
3 158 182 168
3 159 175 183
3 159 183 181
3 175 184 183
3 160 186 178
3 178 186 185
3 161 187 160
3 160 187 186
3 165 163 188
3 163 162 188
3 188 162 167
3 166 164 189
3 189 164 165
3 189 165 188
3 190 173 166
3 190 166 191
3 191 166 189
3 192 188 167
3 192 167 170
3 193 192 170
3 182 194 168
3 194 172 168
3 193 170 195
3 170 169 195
3 195 169 171
3 196 195 171
3 196 171 172
3 194 197 172
3 197 198 172
3 198 196 172
3 200 173 190
3 199 200 190
3 201 174 173
3 200 201 173
3 176 179 202
3 177 176 202
3 177 202 175
3 175 202 184
3 178 185 203
3 178 203 179
3 179 203 202
3 203 185 204
3 202 205 184
3 183 206 181
3 180 181 206
3 180 206 182
3 182 206 194
3 183 184 207
3 205 207 184
3 183 207 206
3 185 208 204
3 186 209 185
3 185 209 208
3 187 210 186
3 186 210 209
3 191 189 211
3 189 188 211
3 211 188 192
3 199 190 212
3 212 190 191
3 212 191 211
3 213 199 212
3 214 211 192
3 214 192 193
3 215 214 193
3 215 193 195
3 206 216 194
3 216 197 194
3 216 217 197
3 215 195 218
3 218 195 196
3 198 218 196
3 217 219 197
3 219 218 198
3 197 219 198
3 220 199 213
3 221 200 199
3 220 221 199
3 222 201 200
3 221 222 200
3 203 204 223
3 203 223 202
3 202 223 205
3 204 208 224
3 204 224 223
3 205 223 225
3 205 225 207
3 207 225 226
3 207 226 206
3 226 216 206
3 208 228 224
3 224 228 227
3 209 229 208
3 229 228 208
3 210 230 209
3 209 230 229
3 213 212 231
3 212 211 231
3 231 211 214
3 232 220 213
3 232 213 231
3 233 231 214
3 233 214 215
3 234 233 215
3 234 215 218
3 226 235 216
3 235 217 216
3 235 236 217
3 217 236 219
3 237 234 218
3 237 218 219
3 236 238 219
3 238 237 219
3 240 220 232
3 239 240 232
3 241 221 220
3 240 241 220
3 242 222 221
3 241 242 221
3 224 227 243
3 224 243 223
3 223 243 225
3 225 243 244
3 225 244 226
3 226 244 235
3 227 245 243
3 228 246 227
3 227 246 245
3 229 247 228
3 228 247 246
3 230 248 229
3 229 248 247
3 239 232 249
3 232 231 249
3 249 231 233
3 250 249 233
3 250 233 234
3 237 250 234
3 244 251 235
3 235 251 236
3 251 252 236
3 236 252 238
3 252 253 238
3 253 250 237
3 253 237 238
3 254 239 249
3 255 240 239
3 254 255 239
3 256 241 240
3 255 256 240
3 257 242 241
3 256 257 241
3 245 258 243
3 243 258 244
3 244 258 251
3 245 259 258
3 246 260 245
3 245 260 259
3 247 261 246
3 246 261 260
3 248 262 247
3 247 262 261
3 254 249 263
3 263 249 250
3 253 263 250
3 258 264 251
3 251 264 252
3 264 265 252
3 265 263 253
3 252 265 253
3 266 254 263
3 267 255 254
3 266 267 254
3 268 256 255
3 267 268 255
3 269 257 256
3 268 269 256
3 259 270 258
3 270 264 258
3 260 271 259
3 259 271 270
3 261 272 260
3 260 272 271
3 262 273 261
3 273 272 261
3 270 274 264
3 275 266 263
3 275 263 265
3 274 276 264
3 276 265 264
3 276 277 265
3 277 275 265
3 278 267 266
3 275 278 266
3 279 268 267
3 278 279 267
3 280 269 268
3 279 280 268
3 271 281 270
3 270 281 274
3 272 282 271
3 271 282 281
3 273 283 272
3 272 283 282
3 281 284 274
3 274 284 276
3 285 278 275
3 277 285 275
3 284 286 276
3 286 285 277
3 276 286 277
3 287 279 278
3 285 287 278
3 288 280 279
3 287 288 279
3 282 289 281
3 281 289 284
3 283 290 282
3 282 290 289
3 289 291 284
3 284 291 286
3 291 292 286
3 292 287 285
3 286 292 285
3 293 288 287
3 292 293 287
3 290 294 289
3 289 294 291
3 294 295 291
3 295 293 292
3 291 295 292
CELL_TYPES 542
5
5
5
5
5
5
5
5
5
5
5
5
5
5
5
5
5
5
5
5
5
5
5
5
5
5
5
5
5
5
5
5
5
5
5
5
5
5
5
5
5
5
5
5
5
5
5
5
5
5
5
5
5
5
5
5
5
5
5
5
5
5
5
5
5
5
5
5
5
5
5
5
5
5
5
5
5
5
5
5
5
5
5
5
5
5
5
5
5
5
5
5
5
5
5
5
5
5
5
5
5
5
5
5
5
5
5
5
5
5
5
5
5
5
5
5
5
5
5
5
5
5
5
5
5
5
5
5
5
5
5
5
5
5
5
5
5
5
5
5
5
5
5
5
5
5
5
5
5
5
5
5
5
5
5
5
5
5
5
5
5
5
5
5
5
5
5
5
5
5
5
5
5
5
5
5
5
5
5
5
5
5
5
5
5
5
5
5
5
5
5
5
5
5
5
5
5
5
5
5
5
5
5
5
5
5
5
5
5
5
5
5
5
5
5
5
5
5
5
5
5
5
5
5
5
5
5
5
5
5
5
5
5
5
5
5
5
5
5
5
5
5
5
5
5
5
5
5
5
5
5
5
5
5
5
5
5
5
5
5
5
5
5
5
5
5
5
5
5
5
5
5
5
5
5
5
5
5
5
5
5
5
5
5
5
5
5
5
5
5
5
5
5
5
5
5
5
5
5
5
5
5
5
5
5
5
5
5
5
5
5
5
5
5
5
5
5
5
5
5
5
5
5
5
5
5
5
5
5
5
5
5
5
5
5
5
5
5
5
5
5
5
5
5
5
5
5
5
5
5
5
5
5
5
5
5
5
5
5
5
5
5
5
5
5
5
5
5
5
5
5
5
5
5
5
5
5
5
5
5
5
5
5
5
5
5
5
5
5
5
5
5
5
5
5
5
5
5
5
5
5
5
5
5
5
5
5
5
5
5
5
5
5
5
5
5
5
5
5
5
5
5
5
5
5
5
5
5
5
5
5
5
5
5
5
5
5
5
5
5
5
5
5
5
5
5
5
5
5
5
5
5
5
5
5
5
5
5
5
5
5
5
5
5
5
5
5
5
5
5
5
5
5
5
5
5
5
5
5
5
5
5
5
5
5
5
5
5
5
5
5
5
5
5
5
5
5
5
5
5
5
5
5
5
5
5
5
5
5
5
5
5
5
5
5
5
5
5
5
5
5
5
5
5
5
5
5
5
5
5
5
5
5
5
5
5
5
5
5
5
5
5
POINT_DATA 296
SCALARS concentrations float 4
LOOKUP_TABLE default
0 0.948567 0.104487 11.9884
0 0.948526 0.110876 4.937
0 0.948537 0.10371 7.2306
0 0.948494 0.108878 10.5354
0 0.948544 0.0936268 7.65249
0 0.948476 0.109969 6.67264
0 0.948531 0.110536 14.4307
0 0.948555 0.0942465 7.5281
0 0.948508 0.092932 7.55946
0 0.948563 0.106465 9.61064
0 0.948569 0.104407 8.52235
0 0.948527 0.104437 9.16916
0 0.948564 0.103569 8.70437
0 0.948519 0.0926026 7.50315
0 0.948515 0.0926913 7.32184
0 0.948539 0.093109 6.75422
0 0.948547 0.0938768 7.15865
0 0.948521 0.0926377 7.58856
0 0.948552 0.0925584 7.76131
0 0.948546 0.0941745 8.19602
0 0.948546 0.0934532 6.63339
0 0.948537 0.109715 7.8193
0 0.94854 0.107496 9.51673
0 0.948568 0.0926296 7.70292
0 0.948562 0.0935561 7.40156
0 0.948546 0.0929458 7.04042
0 0.948589 0.111413 11.7094
0 0.948562 0.093386 7.57798
0 0.948577 0.111546 12.7863
0 0.948535 0.0927012 6.92808
0 0.948539 0.0927576 6.7843
0 0.948548 0.0926859 7.34186
0 0.948588 0.110165 2.61316
0 0.948551 0.0935318 7.39406
0 0.948552 0.0936946 6.76978
0 0.948556 0.0925203 6.84888
0 0.948563 0.0937699 6.38947
0 0.948553 0.0937493 7.93314
0 0.948562 0.0941009 8.21891
0 0.948543 0.0929393 7.20171
0 0.948568 0.0934858 6.6785
0 0.948565 0.0939201 5.97404
0 0.948562 0.0938782 5.80886
0 0.948634 0.110761 6.0608
0 0.94854 0.0932185 6.87822
0 0.948561 0.0935069 6.6939
0 0.948531 0.0936946 6.37298
0 0.948531 0.107391 8.12956
0 0.948538 0.0928492 6.58959
0 0.948564 0.108413 7.61893
0 0.948548 0.0933412 7.37415
0 0.948544 0.0928908 6.72821
0 0.948548 0.0929094 7.45131
0 0.948594 0.0929057 6.26359
0 0.94861 0.0937381 7.59481
0 0.948552 0.0931128 7.51807
0 0.948565 0.0942407 6.57896
0 0.948563 0.0943326 6.15501
0 0.948559 0.0936896 6.34773
0 0.948562 0.0942922 5.8024
0 0.948565 0.0936526 6.32735
0 0.948566 0.0930315 8.29441
0 0.948563 0.0946443 6.78274
0 0.948609 0.112455 9.27946
0 0.948538 0.0930402 6.84031
0 0.948522 0.0937401 7.3399
0 0.948525 0.094166 6.81019
0 0.948535 0.0924097 7.33485
0 0.948526 0.0931683 6.76162
0 0.948599 0.106213 8.37357
0 0.948578 0.0923424 7.30293
0 0.948567 0.103023 10.2533
0 0.94855 0.0932157 7.02784
0 0.948547 0.0929266 7.15536
0 0.948547 0.0930926 7.1307
0 0.948563 0.0929925 6.65356
0 0.948551 0.0930395 6.86121
0 0.948545 0.0931309 7.36896
0 0.948556 0.0936929 6.86837
0 0.948554 0.0943091 7.06653
0 0.948565 0.0937196 6.01396
0 0.948561 0.0930466 7.63416
0 0.948556 0.0958658 8.88422
0 0.948549 0.0935428 8.38944
0 0.948562 0.0957256 5.80458
0 0.948528 0.111852 13.1496
0 0.94854 0.0929534 7.15376
0 0.948526 0.0934071 6.89385
0 0.948545 0.0926501 7.44147
0 0.948531 0.0927092 7.39761
0 0.948569 0.0926739 6.94382
0 0.948553 0.0928002 7.20865
0 0.948568 0.107908 7.91155
0 0.948556 0.0932079 7.08098
0 0.948548 0.0933069 7.11504
0 0.948547 0.0926625 6.78424
0 0.948546 0.0927279 6.81676
0 0.948543 0.0931518 6.80213
0 0.948569 0.104036 8.47767
0 0.948524 0.0934027 7.52135
0 0.948543 0.093304 5.65862
0 0.94853 0.093302 6.37
0 0.948536 0.0937424 8.10573
0 0.948557 0.0929662 7.10094
0 0.948556 0.0929966 7.02509
0 0.948561 0.0945075 8.00521
0 0.948559 0.0927773 6.64747
0 0.948555 0.0943689 5.59941
0 0.948552 0.0947117 8.13476
0 0.948529 0.104458 6.92578
0 0.948537 0.0931633 6.66806
0 0.948538 0.0923416 6.76372
0 0.948547 0.0930008 7.27469
0 0.94854 0.092621 7.42463
0 0.948564 0.0930476 7.13047
0 0.94855 0.0933811 7.24149
0 0.948565 0.0931635 7.11497
0 0.948563 0.0925488 6.9603
0 0.948565 0.0933685 7.23503
0 0.948553 0.0930313 7.71914
0 0.948547 0.0924755 6.74183
0 0.948539 0.0925887 6.73509
0 0.948545 0.0927556 7.29481
0 0.948559 0.0933777 6.93941
0 0.948579 0.104855 7.19871
0 0.948542 0.0934996 6.51475
0 0.948532 0.0943576 6.40049
0 0.948553 0.0939271 7.91695
0 0.948542 0.0934595 7.96007
0 0.94856 0.0929726 7.25141
0 0.948557 0.0928016 6.79834
0 0.948551 0.095255 7.4048
0 0.948547 0.0941286 7.28822
0 0.948573 0.0931964 7.35887
0 0.948565 0.105131 8.28023
0 0.948536 0.0924277 6.57603
0 0.948538 0.0932482 6.85767
0 0.948554 0.0938604 7.35813
0 0.948544 0.0935838 7.49367
0 0.948583 0.09246 7.32619
0 0.948559 0.0928597 7.21649
0 0.948539 0.0930637 7.36431
0 0.948568 0.0937553 7.39757
0 0.948567 0.093593 6.26497
0 0.948552 0.0929968 6.90935
0 0.948543 0.096751 6.48481
0 0.948543 0.0926569 7.29652
0 0.948553 0.0938868 7.31577
0 0.948553 0.0942893 6.6439
0 0.948575 0.0924975 7.04532
0 0.9486 0.108418 4.92533
0 0.948556 0.0937821 6.99236
0 0.948547 0.0943871 6.17135
0 0.948551 0.093597 7.63644
0 0.948559 0.0942895 7.25906
0 0.948562 0.0937041 6.52108
0 0.948559 0.0934283 7.23338
0 0.948552 0.0959431 7.33766
0 0.948569 0.0947927 7.78947
0 0.948562 0.0940477 7.4162
0 0.948596 0.0932925 6.95328
0 0.948597 0.106763 7.42858
0 0.948541 0.0927563 6.53532
0 0.948547 0.0929252 6.83171
0 0.948558 0.0926898 7.17826
0 0.948548 0.0930198 7.15917
0 0.948552 0.0930031 7.14453
0 0.948545 0.0928537 7.47562
0 0.948565 0.0944029 7.72321
0 0.948552 0.0941449 6.16729
0 0.948553 0.0935639 6.4642
0 0.948548 0.0931861 6.61405
0 0.94855 0.0937095 6.1072
0 0.948556 0.0927058 7.1446
0 0.948568 0.107068 9.58845
0 0.948561 0.0930747 7.17675
0 0.948553 0.0938814 6.71602
0 0.948559 0.0936881 7.21119
0 0.948576 0.0933666 7.2627
0 0.948561 0.0939654 6.85703
0 0.948566 0.0953099 7.70799
0 0.948573 0.0949915 7.6884
0 0.948565 0.0976255 8.84922
0 0.948578 0.0937499 6.92656
0 0.948567 0.0936187 7.4406
0 0.948571 0.0929846 6.99985
0 0.948604 0.0929305 7.0642
0 0.948628 0.106608 4.07773
0 0.948546 0.0925794 7.34019
0 0.948548 0.0931848 7.0372
0 0.948551 0.093543 6.95711
0 0.948548 0.0935929 7.28182
0 0.94855 0.0931591 6.46879
0 0.948557 0.0933247 6.46679
0 0.948553 0.0946084 6.25313
0 0.948556 0.0933671 7.46839
0 0.948549 0.0932901 6.68323
0 0.948558 0.0939173 7.20039
0 0.948555 0.093618 7.01866
0 0.948556 0.0931237 6.94032
0 0.948556 0.0927803 7.16339
0 0.948558 0.107451 10.3415
0 0.948559 0.0944062 7.11395
0 0.948564 0.0936685 7.19851
0 0.948562 0.0941594 7.31739
0 0.948559 0.0939741 6.69123
0 0.948564 0.100866 7.40028
0 0.948566 0.0944158 6.43966
0 0.948567 0.0933828 6.83567
0 0.948553 0.0933008 7.3576
0 0.948581 0.104219 8.18237
0 0.94855 0.0932241 7.24652
0 0.948551 0.093342 7.26352
0 0.948554 0.0936205 7.27166
0 0.948555 0.0929442 7.4358
0 0.94856 0.0931882 6.67219
0 0.948547 0.0947612 7.92222
0 0.948558 0.0945667 6.54536
0 0.948555 0.0938227 7.39983
0 0.94856 0.0953197 6.37269
0 0.948557 0.0929715 6.97986
0 0.948564 0.0925829 6.95312
0 0.94856 0.106725 7.8945
0 0.94856 0.0940132 7.10649
0 0.948566 0.0941741 7.25055
0 0.948554 0.0936305 6.96605
0 0.948552 0.0938798 7.27174
0 0.948559 0.100881 7.33669
0 0.948573 0.0939441 6.68937
0 0.948562 0.0934585 7.03905
0 0.948533 0.109196 9.31156
0 0.948555 0.0938953 7.37617
0 0.948552 0.092859 7.15177
0 0.948554 0.0949784 7.65337
0 0.948551 0.0936674 7.10845
0 0.948548 0.0943833 7.66028
0 0.948548 0.0949662 6.83878
0 0.948551 0.0984323 7.74859
0 0.948551 0.0965501 6.85876
0 0.948545 0.0922584 7.18906
0 0.948547 0.0924538 7.01442
0 0.948555 0.092299 7.11177
0 0.948562 0.105131 6.94344
0 0.948559 0.0947326 7.17165
0 0.948551 0.095239 6.64209
0 0.94856 0.0962783 7.34383
0 0.948567 0.0937913 6.87454
0 0.948574 0.0937123 7.45334
0 0.948568 0.108627 10.6408
0 0.948548 0.0928159 7.25303
0 0.948547 0.0933463 6.88697
0 0.948546 0.0936487 7.50138
0 0.948547 0.0934765 7.23153
0 0.948552 0.0936822 7.39079
0 0.948544 0.0933092 7.05106
0 0.948548 0.0923274 7.03123
0 0.948536 0.0922941 7.22913
0 0.948537 0.104174 8.96734
0 0.948556 0.093581 6.81475
0 0.948553 0.0938411 7.65596
0 0.948553 0.0947974 6.49122
0 0.948565 0.0936137 7.24924
0 0.948574 0.10821 7.85653
0 0.948549 0.0925581 7.10194
0 0.948552 0.0927419 7.1882
0 0.948554 0.0941155 7.43585
0 0.948546 0.0926169 7.03502
0 0.948555 0.0930546 7.13523
0 0.948573 0.09267 7.32649
0 0.948546 0.107911 9.00206
0 0.948547 0.0937316 6.83963
0 0.948528 0.0932665 7.33517
0 0.948516 0.0930675 6.83077
0 0.948535 0.104306 8.77098
0 0.948543 0.0933222 7.20584
0 0.948552 0.093922 7.21802
0 0.948551 0.0935459 7.1936
0 0.948553 0.0935472 7.3075
0 0.948556 0.0937184 6.96448
0 0.94859 0.0933946 7.24322
0 0.948617 0.112318 7.20243
0 0.94852 0.0932072 7.27363
0 0.948492 0.0927894 7.28565
0 0.948473 0.105839 10.201
0 0.948524 0.0936397 7.26119
0 0.948538 0.0942031 7.4817
0 0.948525 0.0939991 7.40267
0 0.948549 0.0932172 7.07903
0 0.948581 0.10853 6.8795
0 0.948502 0.0935417 7.35481
0 0.948484 0.107005 12.9888
0 0.948503 0.0928465 7.25301
0 0.948522 0.0943629 6.67528
0 0.948538 0.105856 12.3326
0 0.948495 0.102495 8.351
0 0.948512 0.105309 8.71241
VECTORS fa_u float
0.00716761 0.00285649 -0
0.00689797 0.00396146 -0
0.00284616 0.000775729 -0
0.00708476 0.00110974 -0
1e-08 0 0
0.00517354 0.00399437 -0
0.00238802 0.00230644 -0
1e-08 0 0
1e-08 0 0
0.00466542 0.00567097 -0
0.00540133 0.0090635 -0
0.0067341 0.000149278 -0
0.00611244 -0.000650247 0
1e-08 0 0
1e-08 0 0
1e-08 0 0
1e-08 0 0
1e-08 0 0
1e-08 0 0
1e-08 0 0
1e-08 0 0
0.00293569 0.00725146 -0
0.00159487 0.00626652 -0
1e-08 0 0
1e-08 0 0
1e-08 0 0
0.00918504 -0.00230883 0
1e-08 0 0
0.0113537 -0.00498976 0
1e-08 0 0
1e-08 0 0
1e-08 0 0
0.000864888 0.00744017 -0
1e-08 0 0
1e-08 0 0
1e-08 0 0
1e-08 0 0
1e-08 0 0
1e-08 0 0
1e-08 0 0
1e-08 0 0
1e-08 0 0
1e-08 0 0
-0.000192885 0.00785969 -0
1e-08 0 0
1e-08 0 0
1e-08 0 0
0.00547315 -0.00349496 0
1e-08 0 0
0.0027363 -0.00221136 0
1e-08 0 0
1e-08 0 0
1e-08 0 0
1e-08 0 0
1e-08 0 0
1e-08 0 0
1e-08 0 0
1e-08 0 0
1e-08 0 0
1e-08 0 0
1e-08 0 0
1e-08 0 0
1e-08 0 0
-0.00057889 0.00393674 0
1e-08 0 0
1e-08 0 0
1e-08 0 0
1e-08 0 0
1e-08 0 0
0.00313917 -0.00310876 0
1e-08 0 0
0.00266495 -0.00325763 0
1e-08 0 0
1e-08 0 0
1e-08 0 0
1e-08 0 0
1e-08 0 0
1e-08 0 0
1e-08 0 0
1e-08 0 0
1e-08 0 0
1e-08 0 0
1e-08 0 0
1e-08 0 0
1e-08 0 0
-0.00134222 0.00516472 0
1e-08 0 0
1e-08 0 0
1e-08 0 0
1e-08 0 0
1e-08 0 0
1e-08 0 0
0.00592275 -0.00968705 0
1e-08 0 0
1e-08 0 0
1e-08 0 0
1e-08 0 0
1e-08 0 0
0.00369098 -0.00914022 0
1e-08 0 0
1e-08 0 0
1e-08 0 0
1e-08 0 0
1e-08 0 0
1e-08 0 0
1e-08 0 0
1e-08 0 0
1e-08 0 0
1e-08 0 0
-0.00290758 0.00721803 0
1e-08 0 0
1e-08 0 0
1e-08 0 0
1e-08 0 0
1e-08 0 0
1e-08 0 0
1e-08 0 0
1e-08 0 0
1e-08 0 0
1e-08 0 0
1e-08 0 0
1e-08 0 0
1e-08 0 0
1e-08 0 0
0.00136569 -0.00547602 0
1e-08 0 0
1e-08 0 0
1e-08 0 0
1e-08 0 0
1e-08 0 0
1e-08 0 0
1e-08 0 0
1e-08 0 0
1e-08 0 0
-0.00374814 0.00650186 0
1e-08 0 0
1e-08 0 0
1e-08 0 0
1e-08 0 0
1e-08 0 0
1e-08 0 0
1e-08 0 0
1e-08 0 0
1e-08 0 0
1e-08 0 0
1e-08 0 0
1e-08 0 0
1e-08 0 0
1e-08 0 0
1e-08 0 0
0.000497928 -0.00363621 0
1e-08 0 0
1e-08 0 0
1e-08 0 0
1e-08 0 0
1e-08 0 0
1e-08 0 0
1e-08 0 0
1e-08 0 0
1e-08 0 0
1e-08 0 0
-0.00471599 0.00604809 0
1e-08 0 0
1e-08 0 0
1e-08 0 0
1e-08 0 0
1e-08 0 0
1e-08 0 0
1e-08 0 0
1e-08 0 0
1e-08 0 0
1e-08 0 0
1e-08 0 0
1e-08 0 0
0.000126563 -0.00789373 0
1e-08 0 0
1e-08 0 0
1e-08 0 0
1e-08 0 0
1e-08 0 0
1e-08 0 0
1e-08 0 0
1e-08 0 0
1e-08 0 0
1e-08 0 0
1e-08 0 0
1e-08 0 0
-0.00215928 0.0021981 0
1e-08 0 0
1e-08 0 0
1e-08 0 0
1e-08 0 0
1e-08 0 0
1e-08 0 0
1e-08 0 0
1e-08 0 0
1e-08 0 0
1e-08 0 0
1e-08 0 0
1e-08 0 0
1e-08 0 0
-0.000865218 -0.00702547 0
1e-08 0 0
1e-08 0 0
1e-08 0 0
1e-08 0 0
1e-08 0 0
1e-08 0 0
1e-08 0 0
1e-08 0 0
-0.00474433 0.00389614 0
1e-08 0 0
1e-08 0 0
1e-08 0 0
1e-08 0 0
1e-08 0 0
1e-08 0 0
1e-08 0 0
1e-08 0 0
1e-08 0 0
1e-08 0 0
1e-08 0 0
-0.00161906 -0.00622715 0
1e-08 0 0
1e-08 0 0
1e-08 0 0
1e-08 0 0
1e-08 0 0
1e-08 0 0
1e-08 0 0
-0.00900884 0.00543161 0
1e-08 0 0
1e-08 0 0
1e-08 0 0
1e-08 0 0
1e-08 0 0
1e-08 0 0
1e-08 0 0
1e-08 0 0
1e-08 0 0
1e-08 0 0
1e-08 0 0
-0.00298513 -0.00726932 0
1e-08 0 0
1e-08 0 0
1e-08 0 0
1e-08 0 0
1e-08 0 0
-0.00754662 0.00308762 0
1e-08 0 0
1e-08 0 0
1e-08 0 0
1e-08 0 0
1e-08 0 0
1e-08 0 0
1e-08 0 0
1e-08 0 0
-0.00524321 -0.00872539 0
1e-08 0 0
1e-08 0 0
1e-08 0 0
1e-08 0 0
-0.0063601 0.001631 0
1e-08 0 0
1e-08 0 0
1e-08 0 0
1e-08 0 0
1e-08 0 0
1e-08 0 0
-0.00357093 -0.00439535 0
1e-08 0 0
1e-08 0 0
1e-08 0 0
-0.00717405 0.000851029 0
1e-08 0 0
1e-08 0 0
1e-08 0 0
1e-08 0 0
1e-08 0 0
1e-08 0 0
-0.00247749 -0.00245793 0
1e-08 0 0
1e-08 0 0
-0.00853286 -0.000202296 0
1e-08 0 0
1e-08 0 0
1e-08 0 0
1e-08 0 0
-0.00614938 -0.00480989 0
1e-08 0 0
-0.00334038 -0.000486014 0
1e-08 0 0
1e-08 0 0
-0.0066608 -0.00383997 0
-0.00549506 -0.00140639 0
-0.00732821 -0.00294114 0
