# vtk DataFile Version 2.0
CellBP Time: 6.4
ASCII
DATASET UNSTRUCTURED_GRID
POINTS 296 double
-8.97563 -3.67745 0
-8.41585 -4.83277 0
-9.37061 -2.45367 0
-9.64341 -1.218 0
-8.13134 -2.72133 0
-7.69756 -5.9006 0
-6.847 -6.86639 0
-7.69107 -3.75061 0
-7.13097 -4.72649 0
-5.91508 -7.73407 0
-4.87816 -8.46467 0
-9.74885 0.0393596 0
-9.68888 1.31899 0
-8.45014 -1.62654 0
-8.60011 -0.506935 0
-7.37477 -1.92558 0
-7.00368 -2.79699 0
-6.47039 -5.64034 0
-5.69481 -6.46512 0
-6.57732 -3.76036 0
-6.03783 -4.54592 0
-3.72522 -9.03051 0
-2.49561 -9.43364 0
-4.81706 -7.17649 0
-3.8604 -7.76311 0
-8.61674 0.630457 0
-9.46474 2.59753 0
-8.46798 1.73156 0
-9.05319 3.8167 0
-7.54845 -0.888208 0
-7.61224 0.0886061 0
-6.76288 -1.25978 0
-1.222 -9.67332 0
-6.2651 -2.07811 0
-6.13742 -2.9576 0
-5.39049 -5.34845 0
-4.6853 -5.99366 0
-5.49836 -3.65329 0
-5.1201 -4.44503 0
-2.82479 -8.2245 0
-1.75295 -8.48462 0
-3.85734 -6.60387 0
-3.01769 -7.03908 0
0.0547075 -9.73701 0
-7.53842 1.11946 0
-8.20724 2.87052 0
-7.39553 2.05751 0
-8.44399 4.94414 0
-7.72873 3.89167 0
-7.69118 5.98802 0
-6.607 -0.373055 0
-6.7862 0.548875 0
-5.63759 -0.976936 0
-0.578418 -8.639 0
0.54932 -8.57683 0
-5.17604 -2.41015 0
-4.36826 -4.97979 0
-3.81243 -5.6625 0
-4.33507 -3.71925 0
-2.03068 -7.43363 0
-1.11972 -7.6432 0
-2.93589 -5.9902 0
-2.27709 -6.5087 0
1.3169 -9.62294 0
-6.54076 1.38698 0
-7.01322 3.03978 0
-6.51567 2.31359 0
-7.13734 4.86672 0
-6.56916 3.9041 0
-6.84599 6.93984 0
-6.42561 5.7516 0
-5.89659 7.7974 0
-4.38128 -1.16258 0
-5.69826 0.496744 0
-4.5844 -0.0226048 0
-0.00785659 -7.67916 0
1.68441 -8.42679 0
0.906511 -7.57681 0
-3.97183 -2.3616 0
-3.45904 -1.38147 0
-3.23025 -4.7129 0
-3.222 -3.21295 0
-1.36523 -6.54913 0
-0.519831 -6.87677 0
-1.95002 -5.44427 0
2.57063 -9.37461 0
-5.39903 1.99723 0
-5.96301 2.995 0
-5.96936 4.74462 0
-5.63378 3.88747 0
-5.62369 6.55347 0
-5.32681 5.47632 0
-4.85989 8.54618 0
-4.71981 7.21486 0
-3.46706 -0.419916 0
-4.3744 1.22841 0
-3.66244 0.585209 0
-3.99043 2.29647 0
-3.71721 9.11633 0
2.76958 -8.09576 0
0.378287 -6.63225 0
1.94375 -7.31835 0
1.23995 -6.72112 0
-2.4291 -0.864501 0
-2.81655 -2.10985 0
-2.26591 -4.03328 0
-2.30311 -2.93383 0
-0.454322 -5.73767 0
-1.20542 -4.43541 0
3.78588 -8.97777 0
-4.69407 3.32022 0
-4.97455 4.47454 0
-4.53598 6.11294 0
-4.43409 5.22076 0
-3.76438 7.81725 0
-3.72849 6.65672 0
-2.72075 8.22407 0
-1.63716 -0.129439 0
-1.43858 -0.881302 0
-2.47376 0.51549 0
-3.21064 1.43659 0
-3.18432 3.26383 0
-2.87079 2.36081 0
-1.35139 0.636983 0
-2.49363 9.50668 0
3.81318 -7.66178 0
2.85165 -6.93097 0
0.907141 -5.67642 0
1.9867 -6.22839 0
-1.66845 -1.9774 0
-1.41631 -3.23884 0
0.0798204 -4.66036 0
-0.551822 -3.64995 0
4.7929 -7.10636 0
4.93338 -8.41767 0
-3.69808 4.45202 0
-3.64835 5.60633 0
-2.81011 7.10036 0
-2.93849 6.1952 0
-1.62793 8.54285 0
-1.8882 7.44168 0
-2.30242 3.98607 0
-0.723417 -1.31784 0
-0.831678 -0.249581 0
-1.92912 1.68932 0
-2.10418 2.85672 0
-1.29904 3.51047 0
-0.873002 1.36271 0
-0.28384 0.465972 0
-0.523446 8.69609 0
-1.22972 9.74514 0
1.07614 -4.4741 0
3.77139 -6.48418 0
2.88174 -5.90244 0
2.04422 -5.27602 0
4.64932 -6.00448 0
-0.548883 -2.45877 0
0.489924 -3.41633 0
0.0568446 -1.6043 0
1.44471 -3.60838 0
5.71885 -6.42899 0
5.99957 -7.70131 0
-2.42282 5.23428 0
-2.07169 6.38045 0
-0.879629 7.64315 0
-1.2301 6.7762 0
0.0916968 7.73303 0
-1.12713 4.42698 0
0.150682 -0.610143 0
-0.806346 2.49382 0
-0.343876 3.57803 0
0.0549082 1.51898 0
0.732593 0.477048 0
0.63907 8.72016 0
0.0432844 9.85238 0
2.31842 -4.17451 0
3.74358 -5.45571 0
2.91065 -5.05791 0
5.44543 -5.33268 0
4.56569 -5.1079 0
0.63285 -2.28454 0
1.24034 -2.90936 0
0.756791 -1.38591 0
2.12399 -3.07601 0
2.93507 -3.39433 0
6.02969 -4.66911 0
6.51295 -5.62852 0
6.95878 -6.84259 0
-0.989587 5.70566 0
-0.350151 6.7418 0
1.10567 7.63629 0
0.56035 6.94948 0
-0.00231355 4.66239 0
0.590098 3.7894 0
1.3307 -0.639472 0
0.524034 2.63909 0
0.951319 1.57525 0
1.89587 0.212224 0
1.59616 1.06462 0
2.10482 7.46428 0
1.77506 8.56594 0
1.32842 9.77904 0
3.73039 -4.22656 0
5.00205 -4.3086 0
5.73137 -3.82937 0
3.71265 -3.12529 0
1.79917 -1.87705 0
2.9711 -2.53248 0
6.66756 -3.8604 0
7.24971 -4.79557 0
7.82348 -5.9036 0
0.484756 5.77908 0
1.41259 6.63172 0
2.34289 6.56777 0
1.18865 4.49859 0
1.46706 3.36264 0
2.41292 -0.686633 0
2.80163 0.141526 0
1.77024 2.15019 0
2.58916 1.14091 0
3.03151 7.05962 0
2.86587 8.24575 0
2.59857 9.53338 0
4.81384 -3.23778 0
6.01298 -3.03158 0
4.10911 -2.23615 0
3.20485 -1.48716 0
6.63052 -2.27783 0
7.12547 -2.9965 0
7.84002 -3.85414 0
8.55871 -4.86925 0
1.99923 5.51605 0
3.02348 6.04878 0
2.34088 4.07026 0
2.3927 3.02672 0
3.48294 -0.45398 0
3.5784 0.615129 0
2.92784 2.26334 0
3.49621 1.50904 0
3.91766 5.7928 0
3.90987 6.6776 0
3.9236 7.81561 0
3.82512 9.12608 0
5.48611 -1.8827 0
4.44836 -1.11218 0
6.60684 -1.31284 0
7.47559 -1.99992 0
8.26358 -2.81982 0
9.12852 -3.72089 0
3.3402 4.78821 0
3.27728 3.33231 0
4.62549 0.134729 0
4.43688 1.28511 0
3.98085 2.39847 0
4.44331 5.04293 0
4.7338 6.07156 0
4.88708 7.24908 0
4.97391 8.55649 0
5.78278 -0.433415 0
6.87858 -0.487832 0
7.6325 -1.06349 0
8.54263 -1.7182 0
9.5335 -2.49231 0
4.43421 3.74478 0
5.69059 1.05785 0
5.23051 2.46698 0
5.21924 4.50757 0
5.4642 5.39989 0
5.76715 6.53372 0
6.00877 7.82355 0
6.69657 0.434506 0
7.69808 -0.0286989 0
8.70636 -0.566433 0
9.77556 -1.21976 0
6.79465 1.29484 0
5.55106 3.67545 0
6.36685 2.11941 0
6.19339 2.99013 0
6.10576 4.56232 0
6.52044 5.70144 0
6.95323 6.96523 0
7.61306 0.93422 0
8.6837 0.561093 0
9.84356 0.0617679 0
7.42368 1.9382 0
6.60781 3.77862 0
7.05725 2.84914 0
7.18252 4.75829 0
7.81283 6.00831 0
8.51765 1.68404 0
9.72744 1.32354 0
8.1946 2.75574 0
7.77433 3.81061 0
8.52957 4.94365 0
9.48402 2.57961 0
9.08895 3.79549 0
CELLS 542 2168
3 2 0 4
3 0 1 7
3 4 0 7
3 1 5 8
3 7 1 8
3 3 2 13
3 13 2 4
3 11 3 14
3 14 3 13
3 13 4 15
3 4 7 16
3 15 4 16
3 5 6 17
3 8 5 17
3 6 9 18
3 17 6 18
3 7 8 19
3 16 7 19
3 8 17 20
3 19 8 20
3 9 10 23
3 18 9 23
3 10 21 24
3 23 10 24
3 12 11 25
3 25 11 14
3 26 12 27
3 27 12 25
3 14 13 29
3 29 13 15
3 25 14 30
3 30 14 29
3 29 15 31
3 15 16 33
3 31 15 33
3 16 19 34
3 33 16 34
3 17 18 35
3 20 17 35
3 18 23 36
3 35 18 36
3 19 20 37
3 34 19 37
3 20 35 38
3 37 20 38
3 21 22 39
3 24 21 39
3 22 32 40
3 39 22 40
3 23 24 41
3 36 23 41
3 24 39 42
3 41 24 42
3 27 25 44
3 44 25 30
3 28 26 45
3 45 26 27
3 45 27 46
3 46 27 44
3 47 28 48
3 48 28 45
3 30 29 50
3 50 29 31
3 44 30 51
3 51 30 50
3 50 31 52
3 31 33 52
3 32 43 53
3 40 32 53
3 53 43 54
3 33 34 55
3 34 37 55
3 33 55 52
3 35 36 56
3 38 35 56
3 36 41 57
3 56 36 57
3 37 38 58
3 38 56 58
3 37 58 55
3 39 40 59
3 42 39 59
3 40 53 60
3 59 40 60
3 41 42 61
3 57 41 61
3 42 59 62
3 61 42 62
3 43 63 54
3 46 44 64
3 64 44 51
3 48 45 65
3 65 45 46
3 65 46 66
3 66 46 64
3 49 47 67
3 67 47 48
3 67 48 68
3 68 48 65
3 69 49 70
3 70 49 67
3 52 55 72
3 64 51 73
3 51 50 73
3 50 52 73
3 73 52 74
3 74 52 72
3 53 54 75
3 60 53 75
3 54 63 76
3 54 76 77
3 75 54 77
3 55 58 78
3 72 55 78
3 72 78 79
3 56 57 80
3 57 61 80
3 56 80 58
3 58 80 81
3 78 58 81
3 59 60 82
3 62 59 82
3 60 75 83
3 82 60 83
3 61 62 84
3 62 82 84
3 61 84 80
3 63 85 76
3 66 64 86
3 64 73 86
3 68 65 87
3 87 65 66
3 87 66 86
3 70 67 88
3 88 67 68
3 88 68 89
3 89 68 87
3 71 69 90
3 90 69 70
3 90 70 91
3 91 70 88
3 92 71 93
3 93 71 90
3 74 72 94
3 94 72 79
3 86 73 95
3 95 73 74
3 95 74 96
3 96 74 94
3 97 86 95
3 76 85 99
3 75 77 100
3 83 75 100
3 76 99 101
3 77 76 101
3 77 101 102
3 100 77 102
3 94 79 103
3 78 81 104
3 79 78 104
3 79 104 103
3 80 84 105
3 81 80 105
3 81 105 106
3 104 81 106
3 82 83 107
3 83 100 107
3 82 107 84
3 84 107 108
3 105 84 108
3 85 109 99
3 89 87 110
3 87 86 110
3 110 86 97
3 91 88 111
3 111 88 89
3 111 89 110
3 93 90 112
3 112 90 91
3 112 91 113
3 113 91 111
3 98 92 114
3 114 92 93
3 114 93 115
3 115 93 112
3 116 98 114
3 117 103 118
3 96 94 119
3 94 103 119
3 119 103 117
3 97 95 120
3 120 95 96
3 120 96 119
3 121 110 97
3 121 97 122
3 122 97 120
3 123 119 117
3 124 98 116
3 99 109 125
3 99 125 126
3 101 99 126
3 100 102 127
3 100 127 107
3 101 126 128
3 102 101 128
3 102 128 127
3 104 106 129
3 104 129 103
3 103 129 118
3 105 108 130
3 106 105 130
3 106 130 129
3 107 127 131
3 108 107 131
3 108 131 132
3 108 132 130
3 109 134 125
3 125 134 133
3 113 111 135
3 111 110 135
3 135 110 121
3 115 112 136
3 136 112 113
3 136 113 135
3 116 114 137
3 137 114 115
3 137 115 138
3 138 115 136
3 139 124 116
3 139 116 140
3 140 116 137
3 141 135 121
3 118 129 142
3 118 142 143
3 117 118 143
3 123 117 143
3 122 120 144
3 120 119 144
3 144 119 123
3 141 121 145
3 145 121 122
3 145 122 144
3 146 141 145
3 147 144 123
3 147 123 148
3 143 148 123
3 150 124 139
3 149 150 139
3 131 127 151
3 125 133 152
3 126 125 152
3 126 152 153
3 128 126 153
3 128 153 154
3 128 154 127
3 127 154 151
3 152 133 155
3 130 132 156
3 130 156 129
3 129 156 142
3 131 151 157
3 132 131 157
3 132 157 156
3 156 158 142
3 157 151 159
3 133 160 155
3 134 161 133
3 133 161 160
3 138 136 162
3 136 135 162
3 162 135 141
3 140 137 163
3 163 137 138
3 163 138 162
3 149 139 164
3 164 139 140
3 164 140 165
3 165 140 163
3 166 149 164
3 167 162 141
3 167 141 146
3 142 158 168
3 143 142 168
3 143 168 148
3 146 145 169
3 145 144 169
3 169 144 147
3 170 167 146
3 170 146 169
3 171 169 147
3 171 147 148
3 171 148 172
3 168 172 148
3 173 149 166
3 174 150 149
3 173 174 149
3 154 175 151
3 151 175 159
3 152 155 176
3 153 152 176
3 153 176 177
3 153 177 154
3 154 177 175
3 155 160 178
3 155 178 179
3 176 155 179
3 156 157 180
3 156 180 158
3 157 159 181
3 157 181 180
3 158 180 182
3 158 182 168
3 159 175 183
3 159 183 181
3 175 184 183
3 160 186 178
3 178 186 185
3 161 187 160
3 160 187 186
3 165 163 188
3 163 162 188
3 188 162 167
3 166 164 189
3 189 164 165
3 189 165 188
3 190 173 166
3 190 166 191
3 191 166 189
3 192 188 167
3 192 167 170
3 193 192 170
3 182 194 168
3 194 172 168
3 193 170 195
3 170 169 195
3 195 169 171
3 196 195 171
3 196 171 172
3 194 197 172
3 197 198 172
3 198 196 172
3 200 173 190
3 199 200 190
3 201 174 173
3 200 201 173
3 176 179 202
3 177 176 202
3 177 202 175
3 175 202 184
3 178 185 203
3 178 203 179
3 179 203 202
3 203 185 204
3 202 205 184
3 183 206 181
3 180 181 206
3 180 206 182
3 182 206 194
3 183 184 207
3 205 207 184
3 183 207 206
3 185 208 204
3 186 209 185
3 185 209 208
3 187 210 186
3 186 210 209
3 191 189 211
3 189 188 211
3 211 188 192
3 199 190 212
3 212 190 191
3 212 191 211
3 213 199 212
3 214 211 192
3 214 192 193
3 215 214 193
3 215 193 195
3 206 216 194
3 216 197 194
3 216 217 197
3 215 195 218
3 218 195 196
3 198 218 196
3 217 219 197
3 219 218 198
3 197 219 198
3 220 199 213
3 221 200 199
3 220 221 199
3 222 201 200
3 221 222 200
3 203 204 223
3 203 223 202
3 202 223 205
3 204 208 224
3 204 224 223
3 205 223 225
3 205 225 207
3 207 225 226
3 207 226 206
3 226 216 206
3 208 228 224
3 224 228 227
3 209 229 208
3 229 228 208
3 210 230 209
3 209 230 229
3 213 212 231
3 212 211 231
3 231 211 214
3 232 220 213
3 232 213 231
3 233 231 214
3 233 214 215
3 234 233 215
3 234 215 218
3 226 235 216
3 235 217 216
3 235 236 217
3 217 236 219
3 237 234 218
3 237 218 219
3 236 238 219
3 238 237 219
3 240 220 232
3 239 240 232
3 241 221 220
3 240 241 220
3 242 222 221
3 241 242 221
3 224 227 243
3 224 243 223
3 223 243 225
3 225 243 244
3 225 244 226
3 226 244 235
3 227 245 243
3 228 246 227
3 227 246 245
3 229 247 228
3 228 247 246
3 230 248 229
3 229 248 247
3 239 232 249
3 232 231 249
3 249 231 233
3 250 249 233
3 250 233 234
3 237 250 234
3 244 251 235
3 235 251 236
3 251 252 236
3 236 252 238
3 252 253 238
3 253 250 237
3 253 237 238
3 254 239 249
3 255 240 239
3 254 255 239
3 256 241 240
3 255 256 240
3 257 242 241
3 256 257 241
3 245 258 243
3 243 258 244
3 244 258 251
3 245 259 258
3 246 260 245
3 245 260 259
3 247 261 246
3 246 261 260
3 248 262 247
3 247 262 261
3 254 249 263
3 263 249 250
3 253 263 250
3 258 264 251
3 251 264 252
3 264 265 252
3 265 263 253
3 252 265 253
3 266 254 263
3 267 255 254
3 266 267 254
3 268 256 255
3 267 268 255
3 269 257 256
3 268 269 256
3 259 270 258
3 270 264 258
3 260 271 259
3 259 271 270
3 261 272 260
3 260 272 271
3 262 273 261
3 273 272 261
3 270 274 264
3 275 266 263
3 275 263 265
3 274 276 264
3 276 265 264
3 276 277 265
3 277 275 265
3 278 267 266
3 275 278 266
3 279 268 267
3 278 279 267
3 280 269 268
3 279 280 268
3 271 281 270
3 270 281 274
3 272 282 271
3 271 282 281
3 273 283 272
3 272 283 282
3 281 284 274
3 274 284 276
3 285 278 275
3 277 285 275
3 284 286 276
3 286 285 277
3 276 286 277
3 287 279 278
3 285 287 278
3 288 280 279
3 287 288 279
3 282 289 281
3 281 289 284
3 283 290 282
3 282 290 289
3 289 291 284
3 284 291 286
3 291 292 286
3 292 287 285
3 286 292 285
3 293 288 287
3 292 293 287
3 290 294 289
3 289 294 291
3 294 295 291
3 295 293 292
3 291 295 292
CELL_TYPES 542
5
5
5
5
5
5
5
5
5
5
5
5
5
5
5
5
5
5
5
5
5
5
5
5
5
5
5
5
5
5
5
5
5
5
5
5
5
5
5
5
5
5
5
5
5
5
5
5
5
5
5
5
5
5
5
5
5
5
5
5
5
5
5
5
5
5
5
5
5
5
5
5
5
5
5
5
5
5
5
5
5
5
5
5
5
5
5
5
5
5
5
5
5
5
5
5
5
5
5
5
5
5
5
5
5
5
5
5
5
5
5
5
5
5
5
5
5
5
5
5
5
5
5
5
5
5
5
5
5
5
5
5
5
5
5
5
5
5
5
5
5
5
5
5
5
5
5
5
5
5
5
5
5
5
5
5
5
5
5
5
5
5
5
5
5
5
5
5
5
5
5
5
5
5
5
5
5
5
5
5
5
5
5
5
5
5
5
5
5
5
5
5
5
5
5
5
5
5
5
5
5
5
5
5
5
5
5
5
5
5
5
5
5
5
5
5
5
5
5
5
5
5
5
5
5
5
5
5
5
5
5
5
5
5
5
5
5
5
5
5
5
5
5
5
5
5
5
5
5
5
5
5
5
5
5
5
5
5
5
5
5
5
5
5
5
5
5
5
5
5
5
5
5
5
5
5
5
5
5
5
5
5
5
5
5
5
5
5
5
5
5
5
5
5
5
5
5
5
5
5
5
5
5
5
5
5
5
5
5
5
5
5
5
5
5
5
5
5
5
5
5
5
5
5
5
5
5
5
5
5
5
5
5
5
5
5
5
5
5
5
5
5
5
5
5
5
5
5
5
5
5
5
5
5
5
5
5
5
5
5
5
5
5
5
5
5
5
5
5
5
5
5
5
5
5
5
5
5
5
5
5
5
5
5
5
5
5
5
5
5
5
5
5
5
5
5
5
5
5
5
5
5
5
5
5
5
5
5
5
5
5
5
5
5
5
5
5
5
5
5
5
5
5
5
5
5
5
5
5
5
5
5
5
5
5
5
5
5
5
5
5
5
5
5
5
5
5
5
5
5
5
5
5
5
5
5
5
5
5
5
5
5
5
5
5
5
5
5
5
5
5
5
5
5
5
5
5
5
5
5
5
5
5
5
5
5
5
5
5
5
5
5
5
5
5
5
5
5
5
5
5
5
5
5
5
5
5
5
5
5
5
5
5
5
5
5
5
5
5
5
5
5
5
5
5
5
5
5
5
5
5
5
5
5
5
5
5
5
5
5
5
5
POINT_DATA 296
SCALARS concentrations float 4
LOOKUP_TABLE default
0 0.959102 0.135601 16.9156
0 0.959106 0.134046 9.96273
0 0.959149 0.138241 15.6868
0 0.959107 0.138418 17.6345
0 0.959127 0.0950925 8.51282
0 0.959124 0.13726 12.0191
0 0.959127 0.137565 20.9307
0 0.959106 0.0968611 10.1896
0 0.95912 0.0953668 9.00241
0 0.959084 0.135753 10.8018
0 0.959084 0.138848 18.192
0 0.959036 0.136598 20.9782
0 0.959082 0.135683 14.0421
0 0.959137 0.0938606 8.36308
0 0.959088 0.0940301 8.45226
0 0.959123 0.0956935 8.8959
0 0.959114 0.0948321 8.0074
0 0.959129 0.0945398 8.59248
0 0.959106 0.0946265 8.22061
0 0.959118 0.0948082 7.34026
0 0.959131 0.0950247 8.47992
0 0.959158 0.1356 16.7396
0 0.959229 0.139871 7.25687
0 0.959081 0.0946299 8.25431
0 0.959109 0.0946698 5.678
0 0.959084 0.0942441 8.04697
0 0.959126 0.133657 13.0382
0 0.959128 0.0937498 8.35384
0 0.959158 0.135433 10.9084
0 0.959125 0.0940716 8.25957
0 0.959127 0.0938226 8.54415
0 0.959115 0.0951729 8.88502
0 0.959206 0.138421 18.8813
0 0.959111 0.0951929 8.90119
0 0.959109 0.0951165 5.57829
0 0.959127 0.0942935 7.67474
0 0.959112 0.0948809 6.01407
0 0.959122 0.0945531 5.88192
0 0.959132 0.0954107 5.96631
0 0.959164 0.0931795 6.82487
0 0.959191 0.0949466 8.68242
0 0.959109 0.0954048 8.60973
0 0.959118 0.0939061 7.19885
0 0.959118 0.135481 6.98281
0 0.959143 0.0952988 9.00235
0 0.959146 0.0942232 7.31017
0 0.959144 0.0956485 5.45479
0 0.959195 0.137556 17.5619
0 0.959167 0.0939717 6.1912
0 0.959193 0.13641 10.8749
0 0.959122 0.0940318 8.30263
0 0.959134 0.0951162 8.27467
0 0.959115 0.0944375 6.92434
0 0.959144 0.0936253 7.19273
0 0.959104 0.0945197 5.93529
0 0.959116 0.0956173 8.30204
0 0.95913 0.095784 5.84923
0 0.959132 0.0953791 8.38239
0 0.959121 0.0931654 7.17925
0 0.959126 0.0960286 8.31035
0 0.959125 0.0940212 7.64284
0 0.959127 0.0953369 6.32694
0 0.959105 0.0972926 8.57036
0 0.959078 0.135286 17.9852
0 0.959133 0.0952614 7.86217
0 0.959148 0.0942047 8.09304
0 0.959133 0.0987297 6.27541
0 0.959192 0.0935276 6.11768
0 0.959157 0.0941751 8.26452
0 0.959098 0.135028 14.1715
0 0.959146 0.0935601 6.44482
0 0.959095 0.13477 10.0837
0 0.95912 0.0946311 8.07781
0 0.959121 0.0972445 8.28421
0 0.959126 0.0954785 7.57349
0 0.959121 0.0940376 6.53405
0 0.959112 0.0946316 6.22311
0 0.959131 0.0948465 5.96651
0 0.959124 0.0958843 5.74178
0 0.959114 0.101649 9.93502
0 0.959136 0.0949201 8.43056
0 0.95914 0.093993 7.12844
0 0.959116 0.0949906 6.23449
0 0.959127 0.0942113 7.921
0 0.959129 0.0941842 7.88457
0 0.959126 0.137137 10.8413
0 0.959128 0.0948248 6.07763
0 0.959138 0.0986723 9.08878
0 0.959148 0.0947953 7.96531
0 0.959133 0.0964194 8.66318
0 0.959121 0.0940813 6.5961
0 0.959144 0.0948935 7.76945
0 0.95907 0.135051 16.8649
0 0.959121 0.0979335 6.77191
0 0.959135 0.0958754 7.38228
0 0.959127 0.0951962 8.33497
0 0.959139 0.0939643 6.89193
0 0.959131 0.0945034 6.58
0 0.959083 0.132646 14.6711
0 0.959161 0.0961578 6.38612
0 0.959129 0.0955056 8.3753
0 0.959141 0.0950129 8.72877
0 0.959135 0.0954669 8.57638
0 0.95913 0.0966227 6.06045
0 0.959126 0.102171 8.75428
0 0.959145 0.0938168 6.76357
0 0.959153 0.0946905 6.51909
0 0.959134 0.0963223 5.87647
0 0.959145 0.0940237 7.66273
0 0.959203 0.136121 13.2998
0 0.95913 0.0944874 8.1675
0 0.959131 0.0951693 7.81961
0 0.959153 0.101263 5.00454
0 0.959136 0.0969169 6.9219
0 0.959115 0.102185 6.72024
0 0.959161 0.096037 7.27676
0 0.959112 0.101197 8.92459
0 0.959151 0.0952608 7.44879
0 0.959143 0.0952702 7.70009
0 0.95914 0.0956537 6.93072
0 0.959131 0.0953338 6.55533
0 0.95913 0.094611 6.74881
0 0.95913 0.0931987 7.32528
0 0.95914 0.0942472 7.81752
0 0.959088 0.136344 14.0146
0 0.959167 0.0968235 5.27403
0 0.959133 0.0963519 8.54405
0 0.959133 0.0942404 6.73901
0 0.959132 0.0950434 8.21278
0 0.959136 0.0951623 6.74634
0 0.959161 0.0951848 6.74428
0 0.959132 0.0959052 7.90227
0 0.959149 0.0955595 6.5976
0 0.959155 0.101463 8.90279
0 0.959184 0.135256 14.0002
0 0.959132 0.0949397 6.34026
0 0.959143 0.0973818 7.30404
0 0.959148 0.0992714 8.54774
0 0.959143 0.100793 5.16587
0 0.959108 0.0936441 7.39206
0 0.959131 0.0947447 7.6444
0 0.959123 0.0954247 6.90502
0 0.959125 0.09559 7.4038
0 0.959139 0.0941384 7.32317
0 0.959143 0.0962645 7.73348
0 0.959133 0.095451 8.47408
0 0.959127 0.0949518 7.59787
0 0.959153 0.0938409 7.33192
0 0.959152 0.0954972 8.20718
0 0.959148 0.0945887 7.56794
0 0.959116 0.136232 16.215
0 0.959117 0.0949089 6.84424
0 0.959124 0.0959635 7.96223
0 0.959118 0.094743 8.04641
0 0.959115 0.0938432 7.75997
0 0.959137 0.0951859 5.71383
0 0.959134 0.10029 8.50231
0 0.959131 0.0965623 6.86457
0 0.959121 0.0954118 6.72649
0 0.959127 0.0943826 7.46425
0 0.959174 0.0940876 7.61891
0 0.959192 0.133866 13.4243
0 0.959128 0.0952804 6.33513
0 0.959132 0.0955675 7.62649
0 0.959135 0.0947412 6.41568
0 0.959136 0.094963 6.48235
0 0.959147 0.0948963 6.53167
0 0.959121 0.0946145 7.31402
0 0.959145 0.0944203 6.44671
0 0.959144 0.0942084 7.12849
0 0.959128 0.0956658 6.37194
0 0.959151 0.0933714 7.94959
0 0.959153 0.0948361 8.08094
0 0.959171 0.094874 6.18422
0 0.959179 0.136203 10.4082
0 0.959113 0.0953871 6.4067
0 0.959126 0.0960497 5.54942
0 0.959107 0.0946943 6.38703
0 0.959155 0.0946022 6.20001
0 0.959133 0.0954133 8.21129
0 0.95914 0.099663 10.9578
0 0.959141 0.0956887 7.29537
0 0.959151 0.0953264 6.51047
0 0.959128 0.0968148 6.68433
0 0.959123 0.0946934 6.76582
0 0.959158 0.0940404 7.51519
0 0.95917 0.094412 7.67946
0 0.959181 0.137903 10.8518
0 0.959134 0.0977614 8.03526
0 0.959142 0.0950272 6.42776
0 0.959144 0.0941426 6.85033
0 0.95914 0.0948191 7.06345
0 0.959132 0.0942763 7.02595
0 0.95913 0.0966214 7.59091
0 0.959149 0.0943861 8.07397
0 0.959138 0.10167 10.133
0 0.959146 0.0985378 9.36349
0 0.959156 0.0967753 5.50878
0 0.959139 0.0995833 9.60006
0 0.959119 0.0949719 7.92955
0 0.95915 0.0944426 6.56335
0 0.959168 0.133849 10.2764
0 0.959115 0.0947157 7.60353
0 0.95913 0.0946082 7.36128
0 0.959129 0.0934446 7.17563
0 0.95912 0.0939987 6.73351
0 0.959137 0.098016 7.60949
0 0.959129 0.0946398 6.91946
0 0.959143 0.0943127 6.93743
0 0.959182 0.0933047 7.32091
0 0.95918 0.133665 9.43638
0 0.959133 0.0963151 5.78555
0 0.959117 0.100277 4.5404
0 0.959104 0.0992196 7.56344
0 0.959135 0.0940882 7.23157
0 0.959143 0.0986875 8.62511
0 0.959148 0.0950307 6.21
0 0.959152 0.0987769 5.38063
0 0.959136 0.0955436 7.45307
0 0.959131 0.0968893 7.00153
0 0.959121 0.0970675 7.71903
0 0.959132 0.0939433 6.95409
0 0.959146 0.138329 11.1103
0 0.959114 0.093511 7.14658
0 0.959118 0.097251 4.63736
0 0.959128 0.0962086 6.81986
0 0.959137 0.0965506 6.41726
0 0.959117 0.0991006 8.15812
0 0.959114 0.0950818 6.41571
0 0.959131 0.0935965 6.93665
0 0.959186 0.13476 9.20912
0 0.959122 0.101565 4.81009
0 0.959133 0.098103 8.99027
0 0.959137 0.100165 7.98379
0 0.959142 0.0945516 6.44051
0 0.959133 0.0971268 7.161
0 0.959131 0.0954473 7.70957
0 0.959123 0.0973294 6.802
0 0.959126 0.0996356 7.48604
0 0.959136 0.0951709 7.51621
0 0.959134 0.0937855 6.96485
0 0.959137 0.0931483 7.11692
0 0.95913 0.136688 17.1801
0 0.959113 0.0973779 10.0973
0 0.959124 0.0957542 7.13885
0 0.959127 0.0962999 8.06476
0 0.959114 0.0950469 8.12788
0 0.959061 0.0942205 6.29936
0 0.959068 0.135518 20.2284
0 0.959129 0.0953339 6.23071
0 0.959127 0.0956949 6.10666
0 0.959125 0.0991002 8.48252
0 0.959132 0.0956387 6.05294
0 0.959127 0.0962327 6.0582
0 0.959125 0.0956171 6.53683
0 0.959126 0.0932904 6.86639
0 0.959137 0.093536 7.107
0 0.959151 0.134534 9.15979
0 0.959121 0.0946314 7.96103
0 0.959125 0.0949194 7.90858
0 0.959139 0.0951209 6.39918
0 0.959106 0.0943544 7.92668
0 0.959044 0.135325 11.7342
0 0.959125 0.0941988 7.20733
0 0.959127 0.0950599 7.9567
0 0.959128 0.0949027 5.56165
0 0.959119 0.0948835 7.81674
0 0.959125 0.0942438 6.72687
0 0.95913 0.0935184 6.65738
0 0.959131 0.135659 16.7126
0 0.959124 0.0952511 7.21944
0 0.959139 0.0942036 7.61258
0 0.959179 0.0947087 7.30714
0 0.959149 0.135609 16.7256
0 0.959129 0.094294 7.22357
0 0.959114 0.0951087 7.66311
0 0.959127 0.0945283 7.72053
0 0.959127 0.0948841 7.86007
0 0.959118 0.0942119 7.96595
0 0.959148 0.0945961 6.95477
0 0.959148 0.137887 13.306
0 0.959144 0.0941257 6.71058
0 0.959211 0.0934893 6.97316
0 0.959242 0.1358 9.20373
0 0.959136 0.0946778 8.12264
0 0.959137 0.1009 6.32639
0 0.959148 0.0956734 7.65838
0 0.959194 0.0953304 7.80365
0 0.959198 0.135958 14.2308
0 0.959188 0.0941398 6.5456
0 0.959243 0.134959 3.74348
0 0.959162 0.0949442 5.6618
0 0.959201 0.0963602 5.50981
0 0.959255 0.133008 7.53717
0 0.95919 0.137447 11.0849
0 0.959193 0.133411 13.8377
VECTORS fa_u float
0.00694907 0.00278876 -0
0.00667139 0.00383531 -0
0.00340129 0.000923504 -0
0.00695916 0.00105583 -0
1e-08 0 0
0.00517347 0.0039911 -0
0.00274104 0.00266482 -0
1e-08 0 0
1e-08 0 0
0.0045632 0.00562118 -0
0.00492815 0.0083243 -0
0.0066721 0.000119578 -0
0.00616641 -0.000684829 0
1e-08 0 0
1e-08 0 0
1e-08 0 0
1e-08 0 0
1e-08 0 0
1e-08 0 0
1e-08 0 0
1e-08 0 0
0.0028292 0.00695654 -0
0.00163724 0.00637572 -0
1e-08 0 0
1e-08 0 0
1e-08 0 0
0.00862255 -0.00219451 0
1e-08 0 0
0.0102371 -0.00445303 0
1e-08 0 0
1e-08 0 0
1e-08 0 0
0.000847419 0.00712402 -0
1e-08 0 0
1e-08 0 0
1e-08 0 0
1e-08 0 0
1e-08 0 0
1e-08 0 0
1e-08 0 0
1e-08 0 0
1e-08 0 0
1e-08 0 0
-0.000152084 0.0076643 -0
1e-08 0 0
1e-08 0 0
1e-08 0 0
0.005503 -0.00345188 0
1e-08 0 0
0.00312481 -0.0025021 0
1e-08 0 0
1e-08 0 0
1e-08 0 0
1e-08 0 0
1e-08 0 0
1e-08 0 0
1e-08 0 0
1e-08 0 0
1e-08 0 0
1e-08 0 0
1e-08 0 0
1e-08 0 0
1e-08 0 0
-0.000620922 0.00431064 0
1e-08 0 0
1e-08 0 0
1e-08 0 0
1e-08 0 0
1e-08 0 0
0.00336074 -0.00333327 0
1e-08 0 0
0.00291859 -0.0036086 0
1e-08 0 0
1e-08 0 0
1e-08 0 0
1e-08 0 0
1e-08 0 0
1e-08 0 0
1e-08 0 0
1e-08 0 0
1e-08 0 0
1e-08 0 0
1e-08 0 0
1e-08 0 0
1e-08 0 0
-0.00142192 0.0054415 0
1e-08 0 0
1e-08 0 0
1e-08 0 0
1e-08 0 0
1e-08 0 0
1e-08 0 0
0.00533295 -0.00881209 0
1e-08 0 0
1e-08 0 0
1e-08 0 0
1e-08 0 0
1e-08 0 0
0.0034653 -0.00853701 0
1e-08 0 0
1e-08 0 0
1e-08 0 0
1e-08 0 0
1e-08 0 0
1e-08 0 0
1e-08 0 0
1e-08 0 0
1e-08 0 0
1e-08 0 0
-0.00280496 0.00692564 0
1e-08 0 0
1e-08 0 0
1e-08 0 0
1e-08 0 0
1e-08 0 0
1e-08 0 0
1e-08 0 0
1e-08 0 0
1e-08 0 0
1e-08 0 0
1e-08 0 0
1e-08 0 0
1e-08 0 0
1e-08 0 0
0.00142245 -0.00562698 0
1e-08 0 0
1e-08 0 0
1e-08 0 0
1e-08 0 0
1e-08 0 0
1e-08 0 0
1e-08 0 0
1e-08 0 0
1e-08 0 0
-0.00367347 0.00637071 0
1e-08 0 0
1e-08 0 0
1e-08 0 0
1e-08 0 0
1e-08 0 0
1e-08 0 0
1e-08 0 0
1e-08 0 0
1e-08 0 0
1e-08 0 0
1e-08 0 0
1e-08 0 0
1e-08 0 0
1e-08 0 0
1e-08 0 0
0.000551491 -0.00404717 0
1e-08 0 0
1e-08 0 0
1e-08 0 0
1e-08 0 0
1e-08 0 0
1e-08 0 0
1e-08 0 0
1e-08 0 0
1e-08 0 0
1e-08 0 0
-0.00456499 0.00587017 0
1e-08 0 0
1e-08 0 0
1e-08 0 0
1e-08 0 0
1e-08 0 0
1e-08 0 0
1e-08 0 0
1e-08 0 0
1e-08 0 0
1e-08 0 0
1e-08 0 0
1e-08 0 0
0.000102328 -0.00772336 0
1e-08 0 0
1e-08 0 0
1e-08 0 0
1e-08 0 0
1e-08 0 0
1e-08 0 0
1e-08 0 0
1e-08 0 0
1e-08 0 0
1e-08 0 0
1e-08 0 0
1e-08 0 0
-0.00253896 0.00257595 0
1e-08 0 0
1e-08 0 0
1e-08 0 0
1e-08 0 0
1e-08 0 0
1e-08 0 0
1e-08 0 0
1e-08 0 0
1e-08 0 0
1e-08 0 0
1e-08 0 0
1e-08 0 0
1e-08 0 0
-0.000859233 -0.00688274 0
1e-08 0 0
1e-08 0 0
1e-08 0 0
1e-08 0 0
1e-08 0 0
1e-08 0 0
1e-08 0 0
1e-08 0 0
-0.00485038 0.00393252 0
1e-08 0 0
1e-08 0 0
1e-08 0 0
1e-08 0 0
1e-08 0 0
1e-08 0 0
1e-08 0 0
1e-08 0 0
1e-08 0 0
1e-08 0 0
1e-08 0 0
-0.00163657 -0.00625769 0
1e-08 0 0
1e-08 0 0
1e-08 0 0
1e-08 0 0
1e-08 0 0
1e-08 0 0
1e-08 0 0
-0.0082868 0.00495466 0
1e-08 0 0
1e-08 0 0
1e-08 0 0
1e-08 0 0
1e-08 0 0
1e-08 0 0
1e-08 0 0
1e-08 0 0
1e-08 0 0
1e-08 0 0
1e-08 0 0
-0.00287076 -0.00698035 0
1e-08 0 0
1e-08 0 0
1e-08 0 0
1e-08 0 0
1e-08 0 0
-0.00723164 0.00296572 0
1e-08 0 0
1e-08 0 0
1e-08 0 0
1e-08 0 0
1e-08 0 0
1e-08 0 0
1e-08 0 0
1e-08 0 0
-0.00486005 -0.00814772 0
1e-08 0 0
1e-08 0 0
1e-08 0 0
1e-08 0 0
-0.00634029 0.00164024 0
1e-08 0 0
1e-08 0 0
1e-08 0 0
1e-08 0 0
1e-08 0 0
1e-08 0 0
-0.00361885 -0.00450139 0
1e-08 0 0
1e-08 0 0
1e-08 0 0
-0.00698535 0.000848017 0
1e-08 0 0
1e-08 0 0
1e-08 0 0
1e-08 0 0
1e-08 0 0
1e-08 0 0
-0.00283266 -0.00281522 0
1e-08 0 0
1e-08 0 0
-0.00818209 -0.000154814 0
1e-08 0 0
1e-08 0 0
1e-08 0 0
1e-08 0 0
-0.00593554 -0.00462827 0
1e-08 0 0
-0.00385213 -0.000550076 0
1e-08 0 0
1e-08 0 0
-0.00652541 -0.00376316 0
-0.00568493 -0.00146838 0
-0.00700117 -0.00282664 0
