# vtk DataFile Version 2.0
CellBP Time: 7.48
ASCII
DATASET UNSTRUCTURED_GRID
POINTS 296 double
-8.95692 -3.66896 0
-8.39851 -4.8224 0
-9.34968 -2.44637 0
-9.62369 -1.21475 0
-8.113 -2.71468 0
-7.68122 -5.88882 0
-6.83193 -6.85332 0
-7.67235 -3.74067 0
-7.11381 -4.71384 0
-5.90417 -7.72088 0
-4.87161 -8.45202 0
-9.73096 0.0386288 0
-9.67302 1.31617 0
-8.43229 -1.6215 0
-8.58463 -0.50361 0
-7.35805 -1.91967 0
-6.98585 -2.78908 0
-6.45569 -5.62771 0
-5.68294 -6.45668 0
-6.56032 -3.74988 0
-6.02284 -4.53576 0
-3.72054 -9.01631 0
-2.49175 -9.41797 0
-4.80882 -7.16432 0
-3.85573 -7.75238 0
-8.60184 0.630675 0
-9.4516 2.59421 0
-8.45434 1.72709 0
-9.04089 3.81139 0
-7.5324 -0.885976 0
-7.59725 0.0882995 0
-6.74819 -1.25544 0
-1.21946 -9.65648 0
-6.24979 -2.07153 0
-6.12233 -2.94902 0
-5.37805 -5.33848 0
-4.6753 -5.98169 0
-5.48482 -3.64389 0
-5.10785 -4.43512 0
-2.82133 -8.21328 0
-1.75099 -8.47232 0
-3.85155 -6.59379 0
-3.01403 -7.03002 0
0.055015 -9.71781 0
-7.52413 1.11826 0
-8.19566 2.8663 0
-7.38277 2.05227 0
-8.42945 4.935 0
-7.71562 3.88341 0
-7.67464 5.97532 0
-6.59278 -0.371629 0
-6.773 0.548931 0
-5.62652 -0.974315 0
-0.576794 -8.62418 0
0.547803 -8.55883 0
-5.16618 -2.40456 0
-4.35755 -4.97026 0
-3.80392 -5.6516 0
-4.32674 -3.71244 0
-2.02752 -7.4224 0
-1.11817 -7.63126 0
-2.93176 -5.98167 0
-2.27434 -6.49902 0
1.31362 -9.60186 0
-6.528 1.38425 0
-7.00029 3.03463 0
-6.50304 2.30948 0
-7.12322 4.85578 0
-6.55645 3.89531 0
-6.8309 6.92462 0
-6.41485 5.73994 0
-5.88424 7.78114 0
-4.37484 -1.16073 0
-5.68813 0.495363 0
-4.57864 -0.0231169 0
-0.00942263 -7.66297 0
1.68056 -8.41017 0
0.904121 -7.56124 0
-3.96686 -2.35808 0
-3.45646 -1.38037 0
-3.22488 -4.70639 0
-3.2185 -3.20813 0
-1.36411 -6.53804 0
-0.520761 -6.86422 0
-1.9472 -5.4371 0
2.56482 -9.35372 0
-5.38988 1.99503 0
-5.95248 2.98983 0
-5.95865 4.73506 0
-5.62368 3.87994 0
-5.61198 6.53865 0
-5.31655 5.46376 0
-4.8519 8.5317 0
-4.71035 7.19931 0
-3.46507 -0.420504 0
-4.36721 1.22572 0
-3.65758 0.584708 0
-3.9847 2.29504 0
-3.71194 9.10102 0
2.76201 -8.07552 0
0.374878 -6.61745 0
1.93854 -7.30202 0
1.23502 -6.70703 0
-2.42718 -0.863579 0
-2.81504 -2.10738 0
-2.2635 -4.02786 0
-2.30041 -2.9293 0
-0.455516 -5.72771 0
-1.20353 -4.43044 0
3.77798 -8.95886 0
-4.6866 3.31417 0
-4.9655 4.46468 0
-4.52653 6.09997 0
-4.42488 5.2091 0
-3.75736 7.8032 0
-3.71956 6.64168 0
-2.71685 8.20801 0
-1.6368 -0.128812 0
-1.43705 -0.879638 0
-2.4725 0.515901 0
-3.20627 1.43669 0
-3.17851 3.26016 0
-2.86823 2.35971 0
-1.35142 0.638276 0
-2.48965 9.48878 0
3.80191 -7.64275 0
2.8418 -6.91225 0
0.902792 -5.66492 0
1.9792 -6.21406 0
-1.6679 -1.9762 0
-1.4146 -3.23358 0
0.0794035 -4.65255 0
-0.551571 -3.64677 0
4.78112 -7.08978 0
4.92329 -8.40045 0
-3.69079 4.44444 0
-3.64106 5.5947 0
-2.80383 7.08503 0
-2.93229 6.18149 0
-1.62481 8.52626 0
-1.8831 7.42758 0
-2.30018 3.98036 0
-0.722701 -1.31766 0
-0.83018 -0.24771 0
-1.92946 1.69046 0
-2.10299 2.85468 0
-1.29868 3.50869 0
-0.872466 1.36319 0
-0.284772 0.467167 0
-0.522313 8.68009 0
-1.22749 9.7261 0
1.07356 -4.46571 0
3.76045 -6.4645 0
2.87214 -5.8872 0
2.03794 -5.26347 0
4.63866 -5.98807 0
-0.548113 -2.45713 0
0.488743 -3.41165 0
0.0568198 -1.60346 0
1.44238 -3.60187 0
5.70624 -6.41315 0
5.98751 -7.685 0
-2.41924 5.22436 0
-2.06699 6.36782 0
-0.876654 7.62946 0
-1.22725 6.76422 0
0.0929288 7.71933 0
-1.12607 4.42186 0
0.14989 -0.610164 0
-0.807612 2.49448 0
-0.34445 3.57504 0
0.0551313 1.52038 0
0.73261 0.477695 0
0.639516 8.7064 0
0.0425012 9.83499 0
2.31269 -4.16489 0
3.73442 -5.4413 0
2.90158 -5.04503 0
5.43324 -5.31895 0
4.5546 -5.09504 0
0.632676 -2.28311 0
1.23884 -2.90522 0
0.757134 -1.38635 0
2.12008 -3.07124 0
2.93051 -3.38776 0
6.01974 -4.66003 0
6.49974 -5.61716 0
6.94457 -6.82674 0
-0.987811 5.69617 0
-0.348516 6.73049 0
1.10371 7.62401 0
0.559109 6.93957 0
-0.00218789 4.65714 0
0.589843 3.7866 0
1.32979 -0.639056 0
0.522164 2.63926 0
0.95009 1.57557 0
1.89564 0.212191 0
1.59429 1.06437 0
2.10226 7.45478 0
1.77408 8.55508 0
1.3259 9.76249 0
3.72243 -4.21751 0
4.99274 -4.29751 0
5.72375 -3.82015 0
3.70699 -3.11789 0
1.79858 -1.87694 0
2.96802 -2.52961 0
6.65749 -3.85228 0
7.23767 -4.78674 0
7.80927 -5.89163 0
0.484476 5.77124 0
1.41139 6.62385 0
2.33871 6.55995 0
1.18634 4.49331 0
1.46534 3.36025 0
2.41014 -0.68763 0
2.79824 0.141634 0
1.76866 2.14923 0
2.58665 1.14053 0
3.02837 7.05 0
2.86234 8.23347 0
2.59484 9.51783 0
4.80661 -3.23066 0
6.00361 -3.02544 0
4.10416 -2.23311 0
3.20203 -1.48583 0
6.62202 -2.27373 0
7.11636 -2.99349 0
7.82839 -3.84949 0
8.54511 -4.86185 0
1.99672 5.509 0
3.01789 6.03999 0
2.33819 4.06606 0
2.39068 3.02315 0
3.48025 -0.452562 0
3.57528 0.615964 0
2.92453 2.26207 0
3.49246 1.50784 0
3.90987 5.78486 0
3.90296 6.66901 0
3.91799 7.80413 0
3.82018 9.11165 0
5.47917 -1.88 0
4.44404 -1.11113 0
6.5979 -1.31132 0
7.46588 -1.99674 0
8.25108 -2.81718 0
9.11442 -3.7158 0
3.33308 4.77973 0
3.27318 3.32801 0
4.62027 0.135077 0
4.42999 1.28267 0
3.97356 2.39384 0
4.43205 5.03313 0
4.72424 6.06051 0
4.88004 7.23933 0
4.96653 8.54239 0
5.77492 -0.434092 0
6.86665 -0.488538 0
7.62137 -1.06228 0
8.52939 -1.71641 0
9.51766 -2.48828 0
4.42334 3.73639 0
5.67948 1.05485 0
5.21945 2.46055 0
5.20606 4.49905 0
5.45193 5.38884 0
5.75534 6.52284 0
5.99743 7.80953 0
6.68441 0.432276 0
7.6852 -0.0282967 0
8.69161 -0.565964 0
9.75892 -1.21684 0
6.7791 1.29006 0
5.5371 3.66694 0
6.35252 2.11301 0
6.17749 2.98212 0
6.09035 4.55226 0
6.5065 5.68966 0
6.93836 6.95141 0
7.59779 0.932233 0
8.66656 0.560719 0
9.82487 0.0625713 0
7.40755 1.93268 0
6.58912 3.76768 0
7.03955 2.84165 0
7.166 4.74762 0
7.79766 5.99686 0
8.50052 1.68087 0
9.7062 1.32066 0
8.17452 2.7495 0
7.75708 3.80326 0
8.51327 4.93439 0
9.46392 2.57429 0
9.07118 3.78827 0
CELLS 542 2168
3 2 0 4
3 0 1 7
3 4 0 7
3 1 5 8
3 7 1 8
3 3 2 13
3 13 2 4
3 11 3 14
3 14 3 13
3 13 4 15
3 4 7 16
3 15 4 16
3 5 6 17
3 8 5 17
3 6 9 18
3 17 6 18
3 7 8 19
3 16 7 19
3 8 17 20
3 19 8 20
3 9 10 23
3 18 9 23
3 10 21 24
3 23 10 24
3 12 11 25
3 25 11 14
3 26 12 27
3 27 12 25
3 14 13 29
3 29 13 15
3 25 14 30
3 30 14 29
3 29 15 31
3 15 16 33
3 31 15 33
3 16 19 34
3 33 16 34
3 17 18 35
3 20 17 35
3 18 23 36
3 35 18 36
3 19 20 37
3 34 19 37
3 20 35 38
3 37 20 38
3 21 22 39
3 24 21 39
3 22 32 40
3 39 22 40
3 23 24 41
3 36 23 41
3 24 39 42
3 41 24 42
3 27 25 44
3 44 25 30
3 28 26 45
3 45 26 27
3 45 27 46
3 46 27 44
3 47 28 48
3 48 28 45
3 30 29 50
3 50 29 31
3 44 30 51
3 51 30 50
3 50 31 52
3 31 33 52
3 32 43 53
3 40 32 53
3 53 43 54
3 33 34 55
3 34 37 55
3 33 55 52
3 35 36 56
3 38 35 56
3 36 41 57
3 56 36 57
3 37 38 58
3 38 56 58
3 37 58 55
3 39 40 59
3 42 39 59
3 40 53 60
3 59 40 60
3 41 42 61
3 57 41 61
3 42 59 62
3 61 42 62
3 43 63 54
3 46 44 64
3 64 44 51
3 48 45 65
3 65 45 46
3 65 46 66
3 66 46 64
3 49 47 67
3 67 47 48
3 67 48 68
3 68 48 65
3 69 49 70
3 70 49 67
3 52 55 72
3 64 51 73
3 51 50 73
3 50 52 73
3 73 52 74
3 74 52 72
3 53 54 75
3 60 53 75
3 54 63 76
3 54 76 77
3 75 54 77
3 55 58 78
3 72 55 78
3 72 78 79
3 56 57 80
3 57 61 80
3 56 80 58
3 58 80 81
3 78 58 81
3 59 60 82
3 62 59 82
3 60 75 83
3 82 60 83
3 61 62 84
3 62 82 84
3 61 84 80
3 63 85 76
3 66 64 86
3 64 73 86
3 68 65 87
3 87 65 66
3 87 66 86
3 70 67 88
3 88 67 68
3 88 68 89
3 89 68 87
3 71 69 90
3 90 69 70
3 90 70 91
3 91 70 88
3 92 71 93
3 93 71 90
3 74 72 94
3 94 72 79
3 86 73 95
3 95 73 74
3 95 74 96
3 96 74 94
3 97 86 95
3 76 85 99
3 75 77 100
3 83 75 100
3 76 99 101
3 77 76 101
3 77 101 102
3 100 77 102
3 94 79 103
3 78 81 104
3 79 78 104
3 79 104 103
3 80 84 105
3 81 80 105
3 81 105 106
3 104 81 106
3 82 83 107
3 83 100 107
3 82 107 84
3 84 107 108
3 105 84 108
3 85 109 99
3 89 87 110
3 87 86 110
3 110 86 97
3 91 88 111
3 111 88 89
3 111 89 110
3 93 90 112
3 112 90 91
3 112 91 113
3 113 91 111
3 98 92 114
3 114 92 93
3 114 93 115
3 115 93 112
3 116 98 114
3 117 103 118
3 96 94 119
3 94 103 119
3 119 103 117
3 97 95 120
3 120 95 96
3 120 96 119
3 121 110 97
3 121 97 122
3 122 97 120
3 123 119 117
3 124 98 116
3 99 109 125
3 99 125 126
3 101 99 126
3 100 102 127
3 100 127 107
3 101 126 128
3 102 101 128
3 102 128 127
3 104 106 129
3 104 129 103
3 103 129 118
3 105 108 130
3 106 105 130
3 106 130 129
3 107 127 131
3 108 107 131
3 108 131 132
3 108 132 130
3 109 134 125
3 125 134 133
3 113 111 135
3 111 110 135
3 135 110 121
3 115 112 136
3 136 112 113
3 136 113 135
3 116 114 137
3 137 114 115
3 137 115 138
3 138 115 136
3 139 124 116
3 139 116 140
3 140 116 137
3 141 135 121
3 118 129 142
3 118 142 143
3 117 118 143
3 123 117 143
3 122 120 144
3 120 119 144
3 144 119 123
3 141 121 145
3 145 121 122
3 145 122 144
3 146 141 145
3 147 144 123
3 147 123 148
3 143 148 123
3 150 124 139
3 149 150 139
3 131 127 151
3 125 133 152
3 126 125 152
3 126 152 153
3 128 126 153
3 128 153 154
3 128 154 127
3 127 154 151
3 152 133 155
3 130 132 156
3 130 156 129
3 129 156 142
3 131 151 157
3 132 131 157
3 132 157 156
3 156 158 142
3 157 151 159
3 133 160 155
3 134 161 133
3 133 161 160
3 138 136 162
3 136 135 162
3 162 135 141
3 140 137 163
3 163 137 138
3 163 138 162
3 149 139 164
3 164 139 140
3 164 140 165
3 165 140 163
3 166 149 164
3 167 162 141
3 167 141 146
3 142 158 168
3 143 142 168
3 143 168 148
3 146 145 169
3 145 144 169
3 169 144 147
3 170 167 146
3 170 146 169
3 171 169 147
3 171 147 148
3 171 148 172
3 168 172 148
3 173 149 166
3 174 150 149
3 173 174 149
3 154 175 151
3 151 175 159
3 152 155 176
3 153 152 176
3 153 176 177
3 153 177 154
3 154 177 175
3 155 160 178
3 155 178 179
3 176 155 179
3 156 157 180
3 156 180 158
3 157 159 181
3 157 181 180
3 158 180 182
3 158 182 168
3 159 175 183
3 159 183 181
3 175 184 183
3 160 186 178
3 178 186 185
3 161 187 160
3 160 187 186
3 165 163 188
3 163 162 188
3 188 162 167
3 166 164 189
3 189 164 165
3 189 165 188
3 190 173 166
3 190 166 191
3 191 166 189
3 192 188 167
3 192 167 170
3 193 192 170
3 182 194 168
3 194 172 168
3 193 170 195
3 170 169 195
3 195 169 171
3 196 195 171
3 196 171 172
3 194 197 172
3 197 198 172
3 198 196 172
3 200 173 190
3 199 200 190
3 201 174 173
3 200 201 173
3 176 179 202
3 177 176 202
3 177 202 175
3 175 202 184
3 178 185 203
3 178 203 179
3 179 203 202
3 203 185 204
3 202 205 184
3 183 206 181
3 180 181 206
3 180 206 182
3 182 206 194
3 183 184 207
3 205 207 184
3 183 207 206
3 185 208 204
3 186 209 185
3 185 209 208
3 187 210 186
3 186 210 209
3 191 189 211
3 189 188 211
3 211 188 192
3 199 190 212
3 212 190 191
3 212 191 211
3 213 199 212
3 214 211 192
3 214 192 193
3 215 214 193
3 215 193 195
3 206 216 194
3 216 197 194
3 216 217 197
3 215 195 218
3 218 195 196
3 198 218 196
3 217 219 197
3 219 218 198
3 197 219 198
3 220 199 213
3 221 200 199
3 220 221 199
3 222 201 200
3 221 222 200
3 203 204 223
3 203 223 202
3 202 223 205
3 204 208 224
3 204 224 223
3 205 223 225
3 205 225 207
3 207 225 226
3 207 226 206
3 226 216 206
3 208 228 224
3 224 228 227
3 209 229 208
3 229 228 208
3 210 230 209
3 209 230 229
3 213 212 231
3 212 211 231
3 231 211 214
3 232 220 213
3 232 213 231
3 233 231 214
3 233 214 215
3 234 233 215
3 234 215 218
3 226 235 216
3 235 217 216
3 235 236 217
3 217 236 219
3 237 234 218
3 237 218 219
3 236 238 219
3 238 237 219
3 240 220 232
3 239 240 232
3 241 221 220
3 240 241 220
3 242 222 221
3 241 242 221
3 224 227 243
3 224 243 223
3 223 243 225
3 225 243 244
3 225 244 226
3 226 244 235
3 227 245 243
3 228 246 227
3 227 246 245
3 229 247 228
3 228 247 246
3 230 248 229
3 229 248 247
3 239 232 249
3 232 231 249
3 249 231 233
3 250 249 233
3 250 233 234
3 237 250 234
3 244 251 235
3 235 251 236
3 251 252 236
3 236 252 238
3 252 253 238
3 253 250 237
3 253 237 238
3 254 239 249
3 255 240 239
3 254 255 239
3 256 241 240
3 255 256 240
3 257 242 241
3 256 257 241
3 245 258 243
3 243 258 244
3 244 258 251
3 245 259 258
3 246 260 245
3 245 260 259
3 247 261 246
3 246 261 260
3 248 262 247
3 247 262 261
3 254 249 263
3 263 249 250
3 253 263 250
3 258 264 251
3 251 264 252
3 264 265 252
3 265 263 253
3 252 265 253
3 266 254 263
3 267 255 254
3 266 267 254
3 268 256 255
3 267 268 255
3 269 257 256
3 268 269 256
3 259 270 258
3 270 264 258
3 260 271 259
3 259 271 270
3 261 272 260
3 260 272 271
3 262 273 261
3 273 272 261
3 270 274 264
3 275 266 263
3 275 263 265
3 274 276 264
3 276 265 264
3 276 277 265
3 277 275 265
3 278 267 266
3 275 278 266
3 279 268 267
3 278 279 267
3 280 269 268
3 279 280 268
3 271 281 270
3 270 281 274
3 272 282 271
3 271 282 281
3 273 283 272
3 272 283 282
3 281 284 274
3 274 284 276
3 285 278 275
3 277 285 275
3 284 286 276
3 286 285 277
3 276 286 277
3 287 279 278
3 285 287 278
3 288 280 279
3 287 288 279
3 282 289 281
3 281 289 284
3 283 290 282
3 282 290 289
3 289 291 284
3 284 291 286
3 291 292 286
3 292 287 285
3 286 292 285
3 293 288 287
3 292 293 287
3 290 294 289
3 289 294 291
3 294 295 291
3 295 293 292
3 291 295 292
CELL_TYPES 542
5
5
5
5
5
5
5
5
5
5
5
5
5
5
5
5
5
5
5
5
5
5
5
5
5
5
5
5
5
5
5
5
5
5
5
5
5
5
5
5
5
5
5
5
5
5
5
5
5
5
5
5
5
5
5
5
5
5
5
5
5
5
5
5
5
5
5
5
5
5
5
5
5
5
5
5
5
5
5
5
5
5
5
5
5
5
5
5
5
5
5
5
5
5
5
5
5
5
5
5
5
5
5
5
5
5
5
5
5
5
5
5
5
5
5
5
5
5
5
5
5
5
5
5
5
5
5
5
5
5
5
5
5
5
5
5
5
5
5
5
5
5
5
5
5
5
5
5
5
5
5
5
5
5
5
5
5
5
5
5
5
5
5
5
5
5
5
5
5
5
5
5
5
5
5
5
5
5
5
5
5
5
5
5
5
5
5
5
5
5
5
5
5
5
5
5
5
5
5
5
5
5
5
5
5
5
5
5
5
5
5
5
5
5
5
5
5
5
5
5
5
5
5
5
5
5
5
5
5
5
5
5
5
5
5
5
5
5
5
5
5
5
5
5
5
5
5
5
5
5
5
5
5
5
5
5
5
5
5
5
5
5
5
5
5
5
5
5
5
5
5
5
5
5
5
5
5
5
5
5
5
5
5
5
5
5
5
5
5
5
5
5
5
5
5
5
5
5
5
5
5
5
5
5
5
5
5
5
5
5
5
5
5
5
5
5
5
5
5
5
5
5
5
5
5
5
5
5
5
5
5
5
5
5
5
5
5
5
5
5
5
5
5
5
5
5
5
5
5
5
5
5
5
5
5
5
5
5
5
5
5
5
5
5
5
5
5
5
5
5
5
5
5
5
5
5
5
5
5
5
5
5
5
5
5
5
5
5
5
5
5
5
5
5
5
5
5
5
5
5
5
5
5
5
5
5
5
5
5
5
5
5
5
5
5
5
5
5
5
5
5
5
5
5
5
5
5
5
5
5
5
5
5
5
5
5
5
5
5
5
5
5
5
5
5
5
5
5
5
5
5
5
5
5
5
5
5
5
5
5
5
5
5
5
5
5
5
5
5
5
5
5
5
5
5
5
5
5
5
5
5
5
5
5
5
5
5
5
5
5
5
5
5
5
5
5
5
5
5
5
5
5
5
5
5
5
5
5
5
5
5
5
5
5
5
5
5
5
5
5
5
5
5
5
5
5
5
5
5
5
5
5
5
5
5
5
5
5
5
5
5
5
POINT_DATA 296
SCALARS concentrations float 4
LOOKUP_TABLE default
0 0.955595 0.12631 8.89299
0 0.955615 0.126405 12.7429
0 0.955539 0.126015 10.5865
0 0.955521 0.125336 17.196
0 0.955564 0.0943452 7.34617
0 0.955638 0.12817 9.26084
0 0.955627 0.125379 10.1936
0 0.955581 0.0955798 7.02843
0 0.9556 0.0978376 7.76751
0 0.955608 0.126854 8.50457
0 0.955569 0.126045 9.91905
0 0.95555 0.129436 12.812
0 0.9556 0.127022 10.4175
0 0.95553 0.0930868 6.90028
0 0.955531 0.0932275 6.71756
0 0.955548 0.0942459 7.5555
0 0.955561 0.0953606 7.67241
0 0.955618 0.0945093 6.6996
0 0.955609 0.0938524 6.27649
0 0.955552 0.0962118 7.92417
0 0.955571 0.0950411 7.62199
0 0.955545 0.127382 18.2907
0 0.955554 0.127485 6.21627
0 0.955584 0.0940829 6.83438
0 0.955557 0.0949072 6.24207
0 0.955568 0.0931172 6.48879
0 0.95554 0.128447 12.6362
0 0.955571 0.0938654 6.21689
0 0.955539 0.125466 13.2774
0 0.955536 0.0932352 7.41341
0 0.955544 0.0936381 7.71869
0 0.955545 0.0932473 6.98443
0 0.95561 0.1271 10.2029
0 0.955545 0.0950155 6.79063
0 0.955543 0.0942798 7.08009
0 0.955591 0.0945798 7.6772
0 0.955578 0.0949391 6.05459
0 0.955537 0.095157 7.14334
0 0.955563 0.0949665 8.2845
0 0.955556 0.0941795 5.90179
0 0.955571 0.094498 7.82106
0 0.95556 0.0954214 8.99599
0 0.955559 0.0959516 9.02558
0 0.955665 0.124547 12.1576
0 0.955557 0.0941892 6.63174
0 0.955531 0.093914 7.13631
0 0.955553 0.0940111 7.96587
0 0.955585 0.125514 16.1406
0 0.955569 0.0938126 7.59296
0 0.955585 0.126464 7.80315
0 0.955544 0.0936255 6.99794
0 0.955547 0.0932512 7.31342
0 0.955543 0.0929703 7.85491
0 0.955612 0.0942407 8.18069
0 0.955625 0.0944202 7.93161
0 0.955547 0.0958299 7.61421
0 0.955576 0.0944492 6.26047
0 0.955556 0.0955571 6.88008
0 0.955571 0.0954391 4.72007
0 0.955545 0.0953641 8.54284
0 0.955551 0.0951338 8.34734
0 0.95556 0.0948714 5.19721
0 0.955539 0.0973714 8.44713
0 0.955623 0.124495 8.38438
0 0.95555 0.0937539 7.78441
0 0.955554 0.0938689 6.72429
0 0.955552 0.0954597 8.40459
0 0.955584 0.093314 7.43211
0 0.955574 0.0940244 7.63623
0 0.955603 0.127396 9.9259
0 0.955591 0.0934356 7.6916
0 0.955584 0.126642 15.494
0 0.95556 0.0951509 6.46317
0 0.955546 0.0933577 7.32728
0 0.955549 0.0936475 7.89315
0 0.955566 0.0945938 7.92763
0 0.955566 0.0932707 7.06509
0 0.955566 0.0936995 6.68375
0 0.955576 0.0951999 6.49888
0 0.955579 0.095803 9.43777
0 0.955573 0.0962305 5.15253
0 0.955595 0.0961627 9.26882
0 0.955535 0.096892 5.26566
0 0.955542 0.0957067 8.34549
0 0.95556 0.0964693 10.484
0 0.955516 0.124535 13.3324
0 0.955547 0.0936107 6.84105
0 0.955559 0.0940457 6.50578
0 0.955583 0.094341 6.46097
0 0.95557 0.0947339 6.31561
0 0.95558 0.0961795 5.4907
0 0.955564 0.0940852 7.56787
0 0.95557 0.124238 12.2998
0 0.955568 0.0946781 5.8749
0 0.955567 0.0937936 8.26564
0 0.955552 0.0940517 6.99655
0 0.955553 0.0942295 8.67933
0 0.95556 0.0999576 8.31787
0 0.955524 0.125885 11.738
0 0.955509 0.0942982 7.40594
0 0.955546 0.0965398 9.63269
0 0.955549 0.0948505 6.95876
0 0.955551 0.0957569 6.38273
0 0.955578 0.0941262 8.49187
0 0.95559 0.0942473 8.47826
0 0.955579 0.0951065 6.74637
0 0.955595 0.0960501 8.2698
0 0.955568 0.096883 9.06959
0 0.955586 0.0944518 7.05164
0 0.955474 0.126303 18.3725
0 0.955552 0.0937214 7.59459
0 0.955554 0.0954909 6.90176
0 0.95555 0.094526 6.14836
0 0.955533 0.0953471 6.03268
0 0.955547 0.0985739 9.68173
0 0.955554 0.0951781 6.10996
0 0.955515 0.0956309 8.01095
0 0.955566 0.0940507 8.63556
0 0.955578 0.0940455 8.20466
0 0.955557 0.0944675 6.30358
0 0.955566 0.0934032 7.88393
0 0.955559 0.0950846 7.61297
0 0.955571 0.094055 6.69578
0 0.955558 0.0938148 8.02747
0 0.955501 0.124055 16.8037
0 0.955509 0.0945148 6.77613
0 0.955545 0.0938116 6.79507
0 0.955557 0.0936476 7.72102
0 0.955561 0.0958354 5.23064
0 0.955584 0.0939275 7.90626
0 0.955585 0.0957082 8.807
0 0.955581 0.0938149 7.16319
0 0.955577 0.0948043 8.49319
0 0.955538 0.0952198 5.98178
0 0.955516 0.127094 13.9472
0 0.955542 0.0949356 6.69976
0 0.955531 0.0953948 5.804
0 0.955553 0.0961121 5.46683
0 0.955557 0.0990898 5.99867
0 0.955532 0.0936083 5.89859
0 0.955552 0.094935 5.45809
0 0.955545 0.0944081 6.67268
0 0.95556 0.0945292 7.79296
0 0.955568 0.0945018 8.80413
0 0.955565 0.0957659 7.48698
0 0.955576 0.0955654 6.69234
0 0.955565 0.103227 9.39117
0 0.955569 0.0944477 6.59058
0 0.955565 0.0980133 8.58796
0 0.955558 0.0927606 6.53713
0 0.955544 0.12588 14.3673
0 0.955551 0.0944548 6.25756
0 0.95555 0.0971112 8.49059
0 0.955565 0.0951991 6.81865
0 0.955553 0.0960849 8.0381
0 0.955558 0.0939367 7.45448
0 0.95555 0.0951711 7.31711
0 0.955549 0.0957107 8.67381
0 0.955532 0.0958762 9.84825
0 0.95556 0.0959517 5.58573
0 0.955524 0.0948897 6.70289
0 0.955527 0.125334 15.784
0 0.955539 0.09391 7.57383
0 0.955565 0.0956881 5.42751
0 0.955558 0.0935663 6.5916
0 0.95556 0.094033 6.60594
0 0.955561 0.0936212 6.42611
0 0.955537 0.093796 6.49038
0 0.955567 0.0953344 6.21946
0 0.955581 0.0946539 7.5409
0 0.955558 0.0939272 6.55372
0 0.95557 0.0952768 7.76838
0 0.95557 0.0939659 7.49927
0 0.955549 0.0931718 6.74891
0 0.955548 0.124641 9.61199
0 0.955554 0.0946978 6.89716
0 0.955569 0.095078 7.96457
0 0.955554 0.095683 5.28115
0 0.955563 0.0936576 7.12022
0 0.955574 0.0943981 6.57385
0 0.955533 0.100507 9.61815
0 0.955562 0.0968835 6.97436
0 0.95556 0.0984443 4.88181
0 0.955573 0.0965221 5.19658
0 0.955561 0.0950756 7.80189
0 0.955554 0.0936522 6.4593
0 0.955518 0.0939943 6.42127
0 0.955493 0.12789 14.7665
0 0.955549 0.0939623 7.54842
0 0.955552 0.0936514 7.17875
0 0.955562 0.0939064 6.93158
0 0.955557 0.0954676 8.18802
0 0.955553 0.0935691 6.26798
0 0.95556 0.0938453 6.60944
0 0.955585 0.0963051 7.87117
0 0.955565 0.0945211 7.42136
0 0.955565 0.094795 7.08428
0 0.955584 0.0950603 7.37435
0 0.955572 0.0947747 7.35975
0 0.955561 0.0952521 7.75959
0 0.955552 0.0943824 7.14047
0 0.955536 0.128014 14.4614
0 0.955557 0.094867 5.68457
0 0.955558 0.0942347 6.62869
0 0.955556 0.0953433 7.80043
0 0.95555 0.0942613 7.56249
0 0.955577 0.0985588 7.78957
0 0.955571 0.0986312 7.80352
0 0.955549 0.0938407 7.53385
0 0.955523 0.0940965 6.51102
0 0.955501 0.125046 12.7205
0 0.955555 0.094766 8.64363
0 0.955561 0.0943614 8.75882
0 0.955564 0.0978479 8.63502
0 0.955558 0.0941419 7.68282
0 0.955561 0.0944752 7.3978
0 0.955586 0.094324 6.9311
0 0.955582 0.0944241 6.78534
0 0.955567 0.0935182 6.3207
0 0.955585 0.0950147 7.64395
0 0.95555 0.0953415 8.74581
0 0.955543 0.0949298 7.50388
0 0.955549 0.126405 8.78834
0 0.95556 0.0958708 8.74562
0 0.955568 0.095511 6.42384
0 0.955564 0.0945391 7.44262
0 0.95558 0.0946321 7.25821
0 0.955581 0.0959196 7.3364
0 0.955551 0.0944304 6.74272
0 0.955534 0.0946177 6.53952
0 0.955518 0.123561 13.3356
0 0.955557 0.0955357 7.64166
0 0.955556 0.0953334 9.00161
0 0.955554 0.0950777 8.53809
0 0.955556 0.0951189 7.37677
0 0.955578 0.0939156 7.51451
0 0.95558 0.0949993 7.73911
0 0.955559 0.0945923 8.13037
0 0.955567 0.102641 4.60908
0 0.955556 0.0950911 8.90472
0 0.955549 0.0958649 8.48093
0 0.955538 0.0951285 8.07165
0 0.955533 0.124895 12.724
0 0.955576 0.100288 6.48009
0 0.955571 0.0946949 7.05152
0 0.955575 0.0964986 6.28876
0 0.955547 0.0943443 6.55971
0 0.955526 0.0947445 6.59644
0 0.955534 0.126316 15.1534
0 0.955561 0.0946307 8.06064
0 0.955549 0.0946832 6.00139
0 0.955568 0.0964102 6.6489
0 0.955557 0.0927141 6.53724
0 0.955544 0.0949339 8.04426
0 0.955568 0.0958318 5.79723
0 0.955554 0.0951673 5.93131
0 0.955559 0.093611 6.34898
0 0.955548 0.124881 17.9968
0 0.955564 0.0945258 6.04384
0 0.955557 0.0944905 6.73728
0 0.955538 0.0941158 6.61845
0 0.955506 0.0941781 6.73253
0 0.955502 0.128455 15.1016
0 0.95556 0.0963411 8.26257
0 0.955557 0.093512 6.88974
0 0.955558 0.0951496 6.11248
0 0.955562 0.0957311 9.2392
0 0.955556 0.0957489 9.25078
0 0.955576 0.0943097 9.0719
0 0.955579 0.127712 9.36427
0 0.95555 0.094107 7.89778
0 0.955535 0.0937593 7.97563
0 0.955507 0.0941822 6.85911
0 0.955487 0.125049 11.2879
0 0.955554 0.0931421 7.74808
0 0.955563 0.0962278 8.39229
0 0.955557 0.0940097 6.66127
0 0.955576 0.0954268 7.82021
0 0.955546 0.0955769 5.55357
0 0.955593 0.0954376 6.85064
0 0.955613 0.125588 12.7784
0 0.955538 0.0939794 7.14257
0 0.955507 0.0929059 7.50416
0 0.9555 0.128097 18.1825
0 0.955547 0.0940167 6.75251
0 0.955572 0.101799 4.77568
0 0.955558 0.0956975 7.80117
0 0.955576 0.0949326 8.01286
0 0.955617 0.125934 11.0892
0 0.955518 0.0933419 6.52805
0 0.955491 0.127608 16.829
0 0.955534 0.0959379 8.81
0 0.955539 0.0963482 7.47011
0 0.955548 0.121989 10.1397
0 0.95553 0.124294 16.3872
0 0.955524 0.125761 13.3798
VECTORS fa_u float
0.00706528 0.00282835 -0
0.00671217 0.00385732 -0
0.00319746 0.000868709 -0
0.00696999 0.00106942 -0
1e-08 0 0
0.00517495 0.00399176 -0
0.00263587 0.0025567 -0
1e-08 0 0
1e-08 0 0
0.00457612 0.00561126 -0
0.00512134 0.00863281 -0
0.00670822 0.000130733 -0
0.00612787 -0.000669856 0
1e-08 0 0
1e-08 0 0
1e-08 0 0
1e-08 0 0
1e-08 0 0
1e-08 0 0
1e-08 0 0
1e-08 0 0
0.00284607 0.00701201 -0
0.00162924 0.00636523 -0
1e-08 0 0
1e-08 0 0
1e-08 0 0
0.0088478 -0.00224145 0
1e-08 0 0
0.0106231 -0.00463874 0
1e-08 0 0
1e-08 0 0
1e-08 0 0
0.000853347 0.00724819 -0
1e-08 0 0
1e-08 0 0
1e-08 0 0
1e-08 0 0
1e-08 0 0
1e-08 0 0
1e-08 0 0
1e-08 0 0
1e-08 0 0
1e-08 0 0
-0.000165559 0.00767774 -0
1e-08 0 0
1e-08 0 0
1e-08 0 0
0.00549446 -0.00346906 0
1e-08 0 0
0.00297926 -0.00239369 0
1e-08 0 0
1e-08 0 0
1e-08 0 0
1e-08 0 0
1e-08 0 0
1e-08 0 0
1e-08 0 0
1e-08 0 0
1e-08 0 0
1e-08 0 0
1e-08 0 0
1e-08 0 0
1e-08 0 0
-0.000609079 0.00419865 0
1e-08 0 0
1e-08 0 0
1e-08 0 0
1e-08 0 0
1e-08 0 0
0.00328954 -0.00326146 0
1e-08 0 0
0.00280961 -0.0034598 0
1e-08 0 0
1e-08 0 0
1e-08 0 0
1e-08 0 0
1e-08 0 0
1e-08 0 0
1e-08 0 0
1e-08 0 0
1e-08 0 0
1e-08 0 0
1e-08 0 0
1e-08 0 0
1e-08 0 0
-0.0013944 0.00534422 0
1e-08 0 0
1e-08 0 0
1e-08 0 0
1e-08 0 0
1e-08 0 0
1e-08 0 0
0.00554297 -0.00912281 0
1e-08 0 0
1e-08 0 0
1e-08 0 0
1e-08 0 0
1e-08 0 0
0.00355525 -0.00877502 0
1e-08 0 0
1e-08 0 0
1e-08 0 0
1e-08 0 0
1e-08 0 0
1e-08 0 0
1e-08 0 0
1e-08 0 0
1e-08 0 0
1e-08 0 0
-0.00282727 0.00699495 0
1e-08 0 0
1e-08 0 0
1e-08 0 0
1e-08 0 0
1e-08 0 0
1e-08 0 0
1e-08 0 0
1e-08 0 0
1e-08 0 0
1e-08 0 0
1e-08 0 0
1e-08 0 0
1e-08 0 0
1e-08 0 0
0.00139565 -0.00554715 0
1e-08 0 0
1e-08 0 0
1e-08 0 0
1e-08 0 0
1e-08 0 0
1e-08 0 0
1e-08 0 0
1e-08 0 0
1e-08 0 0
-0.00371847 0.0064497 0
1e-08 0 0
1e-08 0 0
1e-08 0 0
1e-08 0 0
1e-08 0 0
1e-08 0 0
1e-08 0 0
1e-08 0 0
1e-08 0 0
1e-08 0 0
1e-08 0 0
1e-08 0 0
1e-08 0 0
1e-08 0 0
1e-08 0 0
0.000531596 -0.00388803 0
1e-08 0 0
1e-08 0 0
1e-08 0 0
1e-08 0 0
1e-08 0 0
1e-08 0 0
1e-08 0 0
1e-08 0 0
1e-08 0 0
1e-08 0 0
-0.00461308 0.00592504 0
1e-08 0 0
1e-08 0 0
1e-08 0 0
1e-08 0 0
1e-08 0 0
1e-08 0 0
1e-08 0 0
1e-08 0 0
1e-08 0 0
1e-08 0 0
1e-08 0 0
1e-08 0 0
0.000111738 -0.00783924 0
1e-08 0 0
1e-08 0 0
1e-08 0 0
1e-08 0 0
1e-08 0 0
1e-08 0 0
1e-08 0 0
1e-08 0 0
1e-08 0 0
1e-08 0 0
1e-08 0 0
1e-08 0 0
-0.00239074 0.0024286 0
1e-08 0 0
1e-08 0 0
1e-08 0 0
1e-08 0 0
1e-08 0 0
1e-08 0 0
1e-08 0 0
1e-08 0 0
1e-08 0 0
1e-08 0 0
1e-08 0 0
1e-08 0 0
1e-08 0 0
-0.000856294 -0.00689084 0
1e-08 0 0
1e-08 0 0
1e-08 0 0
1e-08 0 0
1e-08 0 0
1e-08 0 0
1e-08 0 0
1e-08 0 0
-0.00482151 0.00392745 0
1e-08 0 0
1e-08 0 0
1e-08 0 0
1e-08 0 0
1e-08 0 0
1e-08 0 0
1e-08 0 0
1e-08 0 0
1e-08 0 0
1e-08 0 0
1e-08 0 0
-0.00163611 -0.00627023 0
1e-08 0 0
1e-08 0 0
1e-08 0 0
1e-08 0 0
1e-08 0 0
1e-08 0 0
1e-08 0 0
-0.00851275 0.00510628 0
1e-08 0 0
1e-08 0 0
1e-08 0 0
1e-08 0 0
1e-08 0 0
1e-08 0 0
1e-08 0 0
1e-08 0 0
1e-08 0 0
1e-08 0 0
1e-08 0 0
-0.00292243 -0.00710562 0
1e-08 0 0
1e-08 0 0
1e-08 0 0
1e-08 0 0
1e-08 0 0
-0.00739393 0.00302959 0
1e-08 0 0
1e-08 0 0
1e-08 0 0
1e-08 0 0
1e-08 0 0
1e-08 0 0
1e-08 0 0
1e-08 0 0
-0.00495126 -0.00827892 0
1e-08 0 0
1e-08 0 0
1e-08 0 0
1e-08 0 0
-0.00629258 0.0016229 0
1e-08 0 0
1e-08 0 0
1e-08 0 0
1e-08 0 0
1e-08 0 0
1e-08 0 0
-0.00363539 -0.00450562 0
1e-08 0 0
1e-08 0 0
1e-08 0 0
-0.00710591 0.000855795 0
1e-08 0 0
1e-08 0 0
1e-08 0 0
1e-08 0 0
1e-08 0 0
1e-08 0 0
-0.00268338 -0.00266496 0
1e-08 0 0
1e-08 0 0
-0.00828619 -0.000172167 0
1e-08 0 0
1e-08 0 0
1e-08 0 0
1e-08 0 0
-0.00601461 -0.00469627 0
1e-08 0 0
-0.00364776 -0.000524196 0
1e-08 0 0
1e-08 0 0
-0.00658996 -0.00379991 0
-0.00562796 -0.0014483 0
-0.00711209 -0.00286478 0
