# vtk DataFile Version 2.0
CellBP Time: 5.2
ASCII
DATASET UNSTRUCTURED_GRID
POINTS 296 double
-9.00361 -3.6904 0
-8.44131 -4.84787 0
-9.40191 -2.4647 0
-9.67225 -1.22299 0
-8.16043 -2.73351 0
-7.72203 -5.91853 0
-6.86984 -6.88657 0
-7.72012 -3.76727 0
-7.15669 -4.74438 0
-5.93142 -7.7535 0
-4.88795 -8.48395 0
-9.77529 0.0404947 0
-9.71183 1.32357 0
-8.47529 -1.63437 0
-8.62405 -0.511126 0
-7.40159 -1.93574 0
-7.03156 -2.81056 0
-6.49081 -5.6585 0
-5.71031 -6.48147 0
-6.60358 -3.7762 0
-6.06039 -4.56179 0
-3.73235 -9.05157 0
-2.50121 -9.45634 0
-4.82937 -7.19359 0
-3.86777 -7.77872 0
-8.64075 0.63151 0
-9.48365 2.6027 0
-8.48839 1.73687 0
-9.07087 3.82448 0
-7.57242 -0.893131 0
-7.63608 0.0877229 0
-6.78665 -1.26815 0
-1.22646 -9.6986 0
-6.28666 -2.0878 0
-6.16103 -2.96946 0
-5.40949 -5.36653 0
-4.69978 -6.00833 0
-5.52045 -3.6663 0
-5.13798 -4.45948 0
-2.8309 -8.2439 0
-1.75549 -8.50449 0
-3.86599 -6.61996 0
-3.02141 -7.05355 0
0.0541933 -9.76483 0
-7.56016 1.12124 0
-8.22478 2.87681 0
-7.41617 2.06486 0
-8.46546 4.95778 0
-7.74715 3.90308 0
-7.7159 6.00738 0
-6.62962 -0.375978 0
-6.80808 0.548026 0
-5.6551 -0.980148 0
-0.581405 -8.66235 0
0.550173 -8.60255 0
-5.19169 -2.41985 0
-4.38457 -4.99372 0
-3.82289 -5.67595 0
-4.34739 -3.73066 0
-2.03535 -7.45184 0
-1.12149 -7.66157 0
-2.94409 -6.00399 0
-2.28005 -6.52307 0
1.32175 -9.65444 0
-6.56174 1.39093 0
-7.03216 3.04922 0
-6.53347 2.32155 0
-7.15669 4.88328 0
-6.5897 3.91599 0
-6.86843 6.96319 0
-6.4432 5.77136 0
-5.91465 7.82128 0
-4.39082 -1.16578 0
-5.71278 0.497728 0
-4.5941 -0.0218181 0
-0.00720467 -7.70227 0
1.68998 -8.45447 0
0.911377 -7.60119 0
-3.97956 -2.36673 0
-3.46222 -1.38255 0
-3.23847 -4.72536 0
-3.22847 -3.22123 0
-1.36705 -6.5651 0
-0.517906 -6.89537 0
-1.95323 -5.45585 0
2.57913 -9.4048 0
-5.41259 2.00203 0
-5.97992 3.00541 0
-5.98643 4.76077 0
-5.64997 3.89994 0
-5.64017 6.57453 0
-5.34222 5.49337 0
-4.87174 8.56769 0
-4.73541 7.23807 0
-3.47166 -0.420845 0
-4.38387 1.23005 0
-3.66902 0.586032 0
-3.99934 2.29957 0
-3.72495 9.13877 0
2.78034 -8.12561 0
0.384699 -6.65271 0
1.95437 -7.34389 0
1.24886 -6.7443 0
-2.4313 -0.865248 0
-2.81993 -2.11266 0
-2.27091 -4.0426 0
-2.30713 -2.93957 0
-0.452845 -5.75353 0
-1.20807 -4.44279 0
3.79757 -9.00522 0
-4.70664 3.32859 0
-4.98873 4.48883 0
-4.54904 6.13383 0
-4.44772 5.23745 0
-3.77445 7.83934 0
-3.74067 6.68027 0
-2.72956 8.24853 0
-1.63886 -0.130381 0
-1.43967 -0.881682 0
-2.47544 0.514649 0
-3.21546 1.43846 0
-3.19118 3.27111 0
-2.87527 2.36239 0
-1.3523 0.635669 0
-2.49925 9.53275 0
3.82809 -7.69055 0
2.86574 -6.95937 0
0.912416 -5.69481 0
1.99723 -6.25195 0
-1.67031 -1.97986 0
-1.41807 -3.2434 0
0.0807432 -4.67137 0
-0.553668 -3.65647 0
4.81059 -7.13363 0
4.94824 -8.44284 0
-3.70874 4.46398 0
-3.65825 5.62564 0
-2.82051 7.12412 0
-2.94749 6.21416 0
-1.63297 8.56635 0
-1.89424 7.46413 0
-2.30693 3.99377 0
-0.724006 -1.31918 0
-0.8323 -0.250796 0
-1.93056 1.68813 0
-2.10711 2.85874 0
-1.29993 3.51496 0
-0.872657 1.36048 0
-0.282853 0.464999 0
-0.526746 8.71709 0
-1.23283 9.77345 0
1.08144 -4.48625 0
3.78912 -6.51249 0
2.89444 -5.92681 0
2.05362 -5.29498 0
4.66638 -6.02931 0
-0.549835 -2.46097 0
0.489625 -3.42205 0
0.0561155 -1.60552 0
1.44958 -3.61833 0
5.7373 -6.45174 0
6.0173 -7.72487 0
-2.42971 5.24734 0
-2.07871 6.39879 0
-0.882274 7.66385 0
-1.23479 6.7956 0
0.0912625 7.75362 0
-1.12854 4.43519 0
0.15071 -0.611025 0
-0.804459 2.49389 0
-0.341862 3.58024 0
0.0560713 1.51729 0
0.7347 0.477396 0
0.640265 8.7402 0
0.0441936 9.87787 0
2.32666 -4.18893 0
3.75798 -5.47955 0
2.92124 -5.07771 0
5.46169 -5.35229 0
4.58143 -5.12964 0
0.632224 -2.28596 0
1.24169 -2.91519 0
0.757191 -1.38781 0
2.12841 -3.08367 0
2.94213 -3.40493 0
6.04485 -4.685 0
6.53181 -5.64631 0
6.97972 -6.86554 0
-0.993873 5.72011 0
-0.352834 6.75964 0
1.1073 7.65355 0
0.560548 6.96558 0
-0.00174033 4.67014 0
0.592399 3.79395 0
1.33183 -0.640005 0
0.525281 2.63986 0
0.953405 1.57493 0
1.89807 0.211972 0
1.59891 1.06466 0
2.10748 7.47933 0
1.77836 8.58566 0
1.33204 9.80297 0
3.74216 -4.24218 0
5.01537 -4.32599 0
5.74581 -3.84226 0
3.72147 -3.13525 0
1.79988 -1.87843 0
2.977 -2.53693 0
6.68409 -3.87194 0
7.26505 -4.80808 0
7.84377 -5.92084 0
0.485091 5.79201 0
1.41463 6.64581 0
2.34712 6.57981 0
1.1914 4.50536 0
1.47042 3.36732 0
2.41553 -0.687008 0
2.80551 0.142675 0
1.77229 2.15287 0
2.5925 1.14165 0
3.03687 7.07364 0
2.86917 8.26275 0
2.60395 9.55616 0
4.82705 -3.24846 0
6.02655 -3.04217 0
4.1172 -2.2412 0
3.20957 -1.48885 0
6.64345 -2.28208 0
7.13889 -3.00115 0
7.85687 -3.86198 0
8.57792 -4.87961 0
2.00258 5.52638 0
3.0317 6.06191 0
2.34381 4.07753 0
2.39654 3.03103 0
3.48908 -0.455588 0
3.58222 0.615099 0
2.9321 2.26659 0
3.50315 1.51098 0
3.93028 5.80628 0
3.91947 6.69168 0
3.92966 7.83011 0
3.83215 9.14726 0
5.49585 -1.88722 0
4.45594 -1.11556 0
6.62067 -1.31581 0
7.48998 -2.0045 0
8.28112 -2.82532 0
9.1493 -3.72808 0
3.35102 4.79937 0
3.28528 3.33849 0
4.63415 0.134232 0
4.44707 1.28838 0
3.99077 2.40375 0
4.45966 5.05693 0
4.74796 6.08748 0
4.8991 7.26779 0
4.98421 8.57656 0
5.79563 -0.433434 0
6.89515 -0.489015 0
7.64774 -1.06505 0
8.56025 -1.72279 0
9.55592 -2.49806 0
4.45017 3.7554 0
5.7059 1.06409 0
5.24846 2.47584 0
5.23932 4.52253 0
5.48274 5.4167 0
5.78406 6.55261 0
6.02566 7.84434 0
6.71626 0.437273 0
7.71891 -0.0291866 0
8.72696 -0.569454 0
9.79962 -1.22405 0
6.81457 1.30224 0
5.57287 3.68869 0
6.38907 2.13009 0
6.21637 3.00369 0
6.12928 4.57785 0
6.54256 5.71842 0
6.97503 6.98544 0
7.63694 0.937866 0
8.70603 0.561776 0
9.87 0.0606528 0
7.44736 1.94783 0
6.63596 3.79466 0
7.08421 2.86209 0
7.20855 4.77472 0
7.83525 6.02536 0
8.5435 1.68869 0
9.75708 1.32786 0
8.22412 2.76524 0
7.80121 3.82425 0
8.55301 4.95773 0
9.51275 2.58738 0
9.11493 3.80633 0
CELLS 542 2168
3 2 0 4
3 0 1 7
3 4 0 7
3 1 5 8
3 7 1 8
3 3 2 13
3 13 2 4
3 11 3 14
3 14 3 13
3 13 4 15
3 4 7 16
3 15 4 16
3 5 6 17
3 8 5 17
3 6 9 18
3 17 6 18
3 7 8 19
3 16 7 19
3 8 17 20
3 19 8 20
3 9 10 23
3 18 9 23
3 10 21 24
3 23 10 24
3 12 11 25
3 25 11 14
3 26 12 27
3 27 12 25
3 14 13 29
3 29 13 15
3 25 14 30
3 30 14 29
3 29 15 31
3 15 16 33
3 31 15 33
3 16 19 34
3 33 16 34
3 17 18 35
3 20 17 35
3 18 23 36
3 35 18 36
3 19 20 37
3 34 19 37
3 20 35 38
3 37 20 38
3 21 22 39
3 24 21 39
3 22 32 40
3 39 22 40
3 23 24 41
3 36 23 41
3 24 39 42
3 41 24 42
3 27 25 44
3 44 25 30
3 28 26 45
3 45 26 27
3 45 27 46
3 46 27 44
3 47 28 48
3 48 28 45
3 30 29 50
3 50 29 31
3 44 30 51
3 51 30 50
3 50 31 52
3 31 33 52
3 32 43 53
3 40 32 53
3 53 43 54
3 33 34 55
3 34 37 55
3 33 55 52
3 35 36 56
3 38 35 56
3 36 41 57
3 56 36 57
3 37 38 58
3 38 56 58
3 37 58 55
3 39 40 59
3 42 39 59
3 40 53 60
3 59 40 60
3 41 42 61
3 57 41 61
3 42 59 62
3 61 42 62
3 43 63 54
3 46 44 64
3 64 44 51
3 48 45 65
3 65 45 46
3 65 46 66
3 66 46 64
3 49 47 67
3 67 47 48
3 67 48 68
3 68 48 65
3 69 49 70
3 70 49 67
3 52 55 72
3 64 51 73
3 51 50 73
3 50 52 73
3 73 52 74
3 74 52 72
3 53 54 75
3 60 53 75
3 54 63 76
3 54 76 77
3 75 54 77
3 55 58 78
3 72 55 78
3 72 78 79
3 56 57 80
3 57 61 80
3 56 80 58
3 58 80 81
3 78 58 81
3 59 60 82
3 62 59 82
3 60 75 83
3 82 60 83
3 61 62 84
3 62 82 84
3 61 84 80
3 63 85 76
3 66 64 86
3 64 73 86
3 68 65 87
3 87 65 66
3 87 66 86
3 70 67 88
3 88 67 68
3 88 68 89
3 89 68 87
3 71 69 90
3 90 69 70
3 90 70 91
3 91 70 88
3 92 71 93
3 93 71 90
3 74 72 94
3 94 72 79
3 86 73 95
3 95 73 74
3 95 74 96
3 96 74 94
3 97 86 95
3 76 85 99
3 75 77 100
3 83 75 100
3 76 99 101
3 77 76 101
3 77 101 102
3 100 77 102
3 94 79 103
3 78 81 104
3 79 78 104
3 79 104 103
3 80 84 105
3 81 80 105
3 81 105 106
3 104 81 106
3 82 83 107
3 83 100 107
3 82 107 84
3 84 107 108
3 105 84 108
3 85 109 99
3 89 87 110
3 87 86 110
3 110 86 97
3 91 88 111
3 111 88 89
3 111 89 110
3 93 90 112
3 112 90 91
3 112 91 113
3 113 91 111
3 98 92 114
3 114 92 93
3 114 93 115
3 115 93 112
3 116 98 114
3 117 103 118
3 96 94 119
3 94 103 119
3 119 103 117
3 97 95 120
3 120 95 96
3 120 96 119
3 121 110 97
3 121 97 122
3 122 97 120
3 123 119 117
3 124 98 116
3 99 109 125
3 99 125 126
3 101 99 126
3 100 102 127
3 100 127 107
3 101 126 128
3 102 101 128
3 102 128 127
3 104 106 129
3 104 129 103
3 103 129 118
3 105 108 130
3 106 105 130
3 106 130 129
3 107 127 131
3 108 107 131
3 108 131 132
3 108 132 130
3 109 134 125
3 125 134 133
3 113 111 135
3 111 110 135
3 135 110 121
3 115 112 136
3 136 112 113
3 136 113 135
3 116 114 137
3 137 114 115
3 137 115 138
3 138 115 136
3 139 124 116
3 139 116 140
3 140 116 137
3 141 135 121
3 118 129 142
3 118 142 143
3 117 118 143
3 123 117 143
3 122 120 144
3 120 119 144
3 144 119 123
3 141 121 145
3 145 121 122
3 145 122 144
3 146 141 145
3 147 144 123
3 147 123 148
3 143 148 123
3 150 124 139
3 149 150 139
3 131 127 151
3 125 133 152
3 126 125 152
3 126 152 153
3 128 126 153
3 128 153 154
3 128 154 127
3 127 154 151
3 152 133 155
3 130 132 156
3 130 156 129
3 129 156 142
3 131 151 157
3 132 131 157
3 132 157 156
3 156 158 142
3 157 151 159
3 133 160 155
3 134 161 133
3 133 161 160
3 138 136 162
3 136 135 162
3 162 135 141
3 140 137 163
3 163 137 138
3 163 138 162
3 149 139 164
3 164 139 140
3 164 140 165
3 165 140 163
3 166 149 164
3 167 162 141
3 167 141 146
3 142 158 168
3 143 142 168
3 143 168 148
3 146 145 169
3 145 144 169
3 169 144 147
3 170 167 146
3 170 146 169
3 171 169 147
3 171 147 148
3 171 148 172
3 168 172 148
3 173 149 166
3 174 150 149
3 173 174 149
3 154 175 151
3 151 175 159
3 152 155 176
3 153 152 176
3 153 176 177
3 153 177 154
3 154 177 175
3 155 160 178
3 155 178 179
3 176 155 179
3 156 157 180
3 156 180 158
3 157 159 181
3 157 181 180
3 158 180 182
3 158 182 168
3 159 175 183
3 159 183 181
3 175 184 183
3 160 186 178
3 178 186 185
3 161 187 160
3 160 187 186
3 165 163 188
3 163 162 188
3 188 162 167
3 166 164 189
3 189 164 165
3 189 165 188
3 190 173 166
3 190 166 191
3 191 166 189
3 192 188 167
3 192 167 170
3 193 192 170
3 182 194 168
3 194 172 168
3 193 170 195
3 170 169 195
3 195 169 171
3 196 195 171
3 196 171 172
3 194 197 172
3 197 198 172
3 198 196 172
3 200 173 190
3 199 200 190
3 201 174 173
3 200 201 173
3 176 179 202
3 177 176 202
3 177 202 175
3 175 202 184
3 178 185 203
3 178 203 179
3 179 203 202
3 203 185 204
3 202 205 184
3 183 206 181
3 180 181 206
3 180 206 182
3 182 206 194
3 183 184 207
3 205 207 184
3 183 207 206
3 185 208 204
3 186 209 185
3 185 209 208
3 187 210 186
3 186 210 209
3 191 189 211
3 189 188 211
3 211 188 192
3 199 190 212
3 212 190 191
3 212 191 211
3 213 199 212
3 214 211 192
3 214 192 193
3 215 214 193
3 215 193 195
3 206 216 194
3 216 197 194
3 216 217 197
3 215 195 218
3 218 195 196
3 198 218 196
3 217 219 197
3 219 218 198
3 197 219 198
3 220 199 213
3 221 200 199
3 220 221 199
3 222 201 200
3 221 222 200
3 203 204 223
3 203 223 202
3 202 223 205
3 204 208 224
3 204 224 223
3 205 223 225
3 205 225 207
3 207 225 226
3 207 226 206
3 226 216 206
3 208 228 224
3 224 228 227
3 209 229 208
3 229 228 208
3 210 230 209
3 209 230 229
3 213 212 231
3 212 211 231
3 231 211 214
3 232 220 213
3 232 213 231
3 233 231 214
3 233 214 215
3 234 233 215
3 234 215 218
3 226 235 216
3 235 217 216
3 235 236 217
3 217 236 219
3 237 234 218
3 237 218 219
3 236 238 219
3 238 237 219
3 240 220 232
3 239 240 232
3 241 221 220
3 240 241 220
3 242 222 221
3 241 242 221
3 224 227 243
3 224 243 223
3 223 243 225
3 225 243 244
3 225 244 226
3 226 244 235
3 227 245 243
3 228 246 227
3 227 246 245
3 229 247 228
3 228 247 246
3 230 248 229
3 229 248 247
3 239 232 249
3 232 231 249
3 249 231 233
3 250 249 233
3 250 233 234
3 237 250 234
3 244 251 235
3 235 251 236
3 251 252 236
3 236 252 238
3 252 253 238
3 253 250 237
3 253 237 238
3 254 239 249
3 255 240 239
3 254 255 239
3 256 241 240
3 255 256 240
3 257 242 241
3 256 257 241
3 245 258 243
3 243 258 244
3 244 258 251
3 245 259 258
3 246 260 245
3 245 260 259
3 247 261 246
3 246 261 260
3 248 262 247
3 247 262 261
3 254 249 263
3 263 249 250
3 253 263 250
3 258 264 251
3 251 264 252
3 264 265 252
3 265 263 253
3 252 265 253
3 266 254 263
3 267 255 254
3 266 267 254
3 268 256 255
3 267 268 255
3 269 257 256
3 268 269 256
3 259 270 258
3 270 264 258
3 260 271 259
3 259 271 270
3 261 272 260
3 260 272 271
3 262 273 261
3 273 272 261
3 270 274 264
3 275 266 263
3 275 263 265
3 274 276 264
3 276 265 264
3 276 277 265
3 277 275 265
3 278 267 266
3 275 278 266
3 279 268 267
3 278 279 267
3 280 269 268
3 279 280 268
3 271 281 270
3 270 281 274
3 272 282 271
3 271 282 281
3 273 283 272
3 272 283 282
3 281 284 274
3 274 284 276
3 285 278 275
3 277 285 275
3 284 286 276
3 286 285 277
3 276 286 277
3 287 279 278
3 285 287 278
3 288 280 279
3 287 288 279
3 282 289 281
3 281 289 284
3 283 290 282
3 282 290 289
3 289 291 284
3 284 291 286
3 291 292 286
3 292 287 285
3 286 292 285
3 293 288 287
3 292 293 287
3 290 294 289
3 289 294 291
3 294 295 291
3 295 293 292
3 291 295 292
CELL_TYPES 542
5
5
5
5
5
5
5
5
5
5
5
5
5
5
5
5
5
5
5
5
5
5
5
5
5
5
5
5
5
5
5
5
5
5
5
5
5
5
5
5
5
5
5
5
5
5
5
5
5
5
5
5
5
5
5
5
5
5
5
5
5
5
5
5
5
5
5
5
5
5
5
5
5
5
5
5
5
5
5
5
5
5
5
5
5
5
5
5
5
5
5
5
5
5
5
5
5
5
5
5
5
5
5
5
5
5
5
5
5
5
5
5
5
5
5
5
5
5
5
5
5
5
5
5
5
5
5
5
5
5
5
5
5
5
5
5
5
5
5
5
5
5
5
5
5
5
5
5
5
5
5
5
5
5
5
5
5
5
5
5
5
5
5
5
5
5
5
5
5
5
5
5
5
5
5
5
5
5
5
5
5
5
5
5
5
5
5
5
5
5
5
5
5
5
5
5
5
5
5
5
5
5
5
5
5
5
5
5
5
5
5
5
5
5
5
5
5
5
5
5
5
5
5
5
5
5
5
5
5
5
5
5
5
5
5
5
5
5
5
5
5
5
5
5
5
5
5
5
5
5
5
5
5
5
5
5
5
5
5
5
5
5
5
5
5
5
5
5
5
5
5
5
5
5
5
5
5
5
5
5
5
5
5
5
5
5
5
5
5
5
5
5
5
5
5
5
5
5
5
5
5
5
5
5
5
5
5
5
5
5
5
5
5
5
5
5
5
5
5
5
5
5
5
5
5
5
5
5
5
5
5
5
5
5
5
5
5
5
5
5
5
5
5
5
5
5
5
5
5
5
5
5
5
5
5
5
5
5
5
5
5
5
5
5
5
5
5
5
5
5
5
5
5
5
5
5
5
5
5
5
5
5
5
5
5
5
5
5
5
5
5
5
5
5
5
5
5
5
5
5
5
5
5
5
5
5
5
5
5
5
5
5
5
5
5
5
5
5
5
5
5
5
5
5
5
5
5
5
5
5
5
5
5
5
5
5
5
5
5
5
5
5
5
5
5
5
5
5
5
5
5
5
5
5
5
5
5
5
5
5
5
5
5
5
5
5
5
5
5
5
5
5
5
5
5
5
5
5
5
5
5
5
5
5
5
5
5
5
5
5
5
5
5
5
5
5
5
5
5
5
5
5
5
5
5
5
5
5
5
5
5
5
5
5
5
5
5
5
5
5
5
5
5
5
5
5
5
5
5
5
5
5
5
5
5
5
5
5
5
5
5
5
POINT_DATA 296
SCALARS concentrations float 4
LOOKUP_TABLE default
0 0.964317 0.150431 19.5045
0 0.96428 0.149957 20.5758
0 0.964404 0.148058 13.0713
0 0.964407 0.150969 15.8057
0 0.964383 0.0932894 7.24951
0 0.964322 0.149192 13.3706
0 0.964344 0.15068 21.1228
0 0.96432 0.0941205 7.58636
0 0.964328 0.0935518 6.88224
0 0.964387 0.149861 19.1544
0 0.964389 0.151946 17.268
0 0.964438 0.147369 14.5286
0 0.964374 0.147128 13.626
0 0.964414 0.0929982 6.97278
0 0.964434 0.0936577 7.66278
0 0.964408 0.0939026 6.94783
0 0.964389 0.0939085 6.97817
0 0.964348 0.0929479 7.08488
0 0.96436 0.0929423 7.25533
0 0.964374 0.0941633 7.52719
0 0.964373 0.0938068 7.34523
0 0.964387 0.151255 13.2294
0 0.964298 0.146869 24.5922
0 0.96438 0.0934279 7.47062
0 0.964388 0.0938526 7.43257
0 0.964425 0.0933586 7.13986
0 0.964336 0.147478 16.4594
0 0.964385 0.0935942 7.29906
0 0.964375 0.147747 12.0925
0 0.964422 0.093827 7.09272
0 0.964425 0.0941803 7.3632
0 0.964396 0.0939069 6.97307
0 0.964336 0.151773 16.7824
0 0.964385 0.094856 7.83699
0 0.964385 0.0942154 7.47515
0 0.964366 0.0933569 7.17347
0 0.96436 0.0935034 7.30589
0 0.964382 0.0942322 7.27761
0 0.964383 0.0937269 7.12575
0 0.964354 0.0938098 7.83178
0 0.964327 0.0938284 7.73706
0 0.964371 0.0942439 7.35593
0 0.964376 0.0949693 7.49163
0 0.964316 0.146968 15.6473
0 0.964421 0.0942297 6.76878
0 0.964397 0.09566 7.36554
0 0.96443 0.101754 6.10579
0 0.964428 0.147662 15.8022
0 0.96442 0.0946808 6.21102
0 0.964498 0.147558 6.12289
0 0.96439 0.0939057 7.08017
0 0.964395 0.0944088 6.83344
0 0.964375 0.0941599 6.46277
0 0.964346 0.0934796 7.60221
0 0.964326 0.0938445 7.61538
0 0.964377 0.0939838 7.52879
0 0.964376 0.0942594 7.29416
0 0.964369 0.0945442 6.83327
0 0.964385 0.0938169 7.30429
0 0.964369 0.0937633 8.12748
0 0.964367 0.0936037 6.15079
0 0.964373 0.0954665 6.76972
0 0.964379 0.0955574 7.74905
0 0.964308 0.150138 20.5618
0 0.9644 0.0953036 7.79911
0 0.964428 0.0970065 6.51196
0 0.964404 0.0951473 7.48325
0 0.964467 0.0935281 6.68989
0 0.964438 0.0951273 8.09468
0 0.964555 0.146195 7.3138
0 0.964514 0.0933509 7.40395
0 0.964557 0.146466 8.31656
0 0.964365 0.0985344 8.27414
0 0.96438 0.0945809 6.26561
0 0.964369 0.0952743 6.53115
0 0.964359 0.0940929 7.9619
0 0.964311 0.0943918 7.36352
0 0.964354 0.0939906 7.1479
0 0.964382 0.097138 6.78801
0 0.964374 0.0967957 7.13165
0 0.964378 0.0938688 7.80463
0 0.964385 0.0951734 6.7512
0 0.96438 0.0960167 5.33338
0 0.964377 0.094479 8.04307
0 0.964373 0.0960623 7.19403
0 0.964253 0.14909 26.5824
0 0.964392 0.0948252 7.80409
0 0.964393 0.0955452 7.91278
0 0.964458 0.0940708 6.90601
0 0.964404 0.0943058 7.22421
0 0.964528 0.0936267 7.71899
0 0.964457 0.0947469 8.02585
0 0.964543 0.147129 5.22415
0 0.964518 0.0941671 7.9045
0 0.964378 0.103519 8.33995
0 0.964391 0.093682 6.69278
0 0.96439 0.0946213 6.32592
0 0.964386 0.0946761 7.01702
0 0.96447 0.149076 11.4339
0 0.964317 0.0954469 6.67176
0 0.964373 0.0945839 7.41125
0 0.964367 0.0935864 6.60211
0 0.964381 0.0935443 6.58159
0 0.964389 0.0977527 5.3383
0 0.964388 0.0980877 6.31772
0 0.964374 0.0942609 7.43971
0 0.964387 0.09576 7.53662
0 0.96438 0.0944349 6.22013
0 0.964376 0.0941381 6.30122
0 0.964323 0.14752 14.1516
0 0.964377 0.0945615 6.80397
0 0.964392 0.0949345 7.87517
0 0.964451 0.0944554 7.97881
0 0.964397 0.0941074 7.71937
0 0.964481 0.0956568 6.313
0 0.964426 0.0950969 7.17138
0 0.964435 0.0937132 6.56895
0 0.964406 0.0955237 6.88263
0 0.96439 0.102024 6.6552
0 0.964417 0.100058 7.01661
0 0.964406 0.0964668 7.13454
0 0.964379 0.0940353 6.85256
0 0.964391 0.0936278 7.00138
0 0.96443 0.0949209 7.02571
0 0.964425 0.149717 17.1195
0 0.964397 0.0986155 5.04138
0 0.964401 0.0977552 5.1165
0 0.964376 0.094046 6.66749
0 0.964393 0.0951253 7.40718
0 0.964389 0.0956902 7.43247
0 0.964383 0.0943676 7.39531
0 0.964377 0.0960935 6.52237
0 0.964383 0.0945834 6.70768
0 0.964434 0.0970988 8.48315
0 0.964433 0.148777 13.9383
0 0.964377 0.094105 6.45987
0 0.964382 0.0947473 7.48111
0 0.964411 0.0951525 7.41773
0 0.964367 0.0959065 7.26386
0 0.964403 0.0932771 6.99522
0 0.964403 0.0936637 6.10318
0 0.964382 0.0985483 8.17888
0 0.964393 0.0998987 9.2285
0 0.964401 0.0946302 7.68736
0 0.964411 0.0953498 6.7887
0 0.964389 0.0947216 6.98662
0 0.964389 0.0951584 7.61634
0 0.96441 0.101931 8.26596
0 0.964411 0.0957913 6.88622
0 0.964412 0.0935154 6.10904
0 0.9644 0.152021 11.7618
0 0.964366 0.0949208 7.034
0 0.964417 0.0994769 8.75179
0 0.964406 0.0965247 6.90312
0 0.96438 0.095128 7.55398
0 0.964408 0.0978122 9.29408
0 0.964391 0.0950491 7.85488
0 0.964379 0.0969688 7.03229
0 0.964393 0.101401 5.2957
0 0.964374 0.0951548 7.55721
0 0.964364 0.0943085 6.80623
0 0.964405 0.150276 16.4005
0 0.964374 0.0945297 6.5213
0 0.964379 0.0945704 6.11788
0 0.964396 0.0934556 6.33756
0 0.964386 0.0938227 5.96384
0 0.964398 0.0938282 7.61242
0 0.964388 0.094064 7.90085
0 0.964397 0.0940025 6.67572
0 0.964395 0.0962599 6.39572
0 0.964404 0.0976518 7.76958
0 0.964413 0.0947317 6.1448
0 0.964428 0.093494 6.62036
0 0.964412 0.0939061 6.3538
0 0.964434 0.151042 13.978
0 0.964365 0.0969346 7.84497
0 0.964393 0.095102 6.26572
0 0.964374 0.0972036 6.7397
0 0.964384 0.0951763 6.74499
0 0.964387 0.0960777 8.29411
0 0.964383 0.0966031 6.49022
0 0.96437 0.0974451 6.13325
0 0.964391 0.0971272 7.38319
0 0.96438 0.094272 7.2397
0 0.964386 0.0947696 7.12074
0 0.964381 0.0939279 6.943
0 0.964324 0.0933012 7.13964
0 0.964295 0.14822 14.9505
0 0.964386 0.0939218 7.9354
0 0.964386 0.0938473 6.63742
0 0.964391 0.0963505 8.15746
0 0.96439 0.0968152 8.04127
0 0.964401 0.0942772 6.68912
0 0.964417 0.103223 10.5624
0 0.964419 0.0962947 6.5863
0 0.964415 0.0939158 7.95883
0 0.964429 0.0957165 6.26578
0 0.964433 0.0974265 8.71468
0 0.964424 0.100366 5.05737
0 0.964386 0.0971278 7.45495
0 0.964404 0.094108 6.74032
0 0.964405 0.148581 13.94
0 0.964374 0.0949931 7.39006
0 0.964386 0.0954156 7.54591
0 0.964387 0.0948686 6.94693
0 0.964386 0.0947975 7.20514
0 0.964393 0.0974905 7.48427
0 0.964394 0.0964487 6.47145
0 0.964367 0.0944566 6.9
0 0.964339 0.094622 5.96077
0 0.964289 0.145637 18.0538
0 0.964383 0.0949814 6.09217
0 0.964377 0.100458 6.38194
0 0.964373 0.100302 5.5611
0 0.964394 0.0994266 8.35905
0 0.964412 0.0950287 8.1292
0 0.964415 0.0957374 5.92521
0 0.964417 0.0985363 9.25863
0 0.964409 0.0957326 6.66331
0 0.964406 0.0973658 7.88626
0 0.964387 0.102604 5.17026
0 0.96443 0.0944772 6.9736
0 0.964433 0.150533 12.6761
0 0.964386 0.0953127 6.04651
0 0.964384 0.0957633 7.73279
0 0.964388 0.0957039 8.04677
0 0.9644 0.0960954 7.07678
0 0.964388 0.0967566 6.45779
0 0.964361 0.0953935 7.88549
0 0.964345 0.0943879 6.677
0 0.964334 0.14895 21.509
0 0.964382 0.101624 10.6128
0 0.964373 0.101909 4.16376
0 0.964395 0.0976613 5.42213
0 0.964396 0.0958672 7.53812
0 0.964404 0.0970752 7.4279
0 0.964396 0.0984139 7.59031
0 0.964384 0.0978547 6.80691
0 0.964378 0.0986363 8.99296
0 0.964366 0.0949117 6.92757
0 0.964383 0.0947438 7.33451
0 0.964451 0.0945045 7.09827
0 0.96447 0.148067 15.0908
0 0.964396 0.0957118 7.45335
0 0.96439 0.0953208 7.04068
0 0.964393 0.0956759 7.07302
0 0.964365 0.0996066 6.55967
0 0.964342 0.0936137 7.23302
0 0.964331 0.149476 17.3538
0 0.964382 0.095329 7.22057
0 0.964382 0.0949867 6.72581
0 0.964384 0.094817 7.50528
0 0.964375 0.0959061 6.1206
0 0.964382 0.0958298 7.63699
0 0.96437 0.0949406 7.56356
0 0.964373 0.096535 6.37598
0 0.964442 0.0950933 6.93692
0 0.964502 0.147939 9.044
0 0.964384 0.104612 9.89913
0 0.964377 0.0952503 7.06839
0 0.964366 0.0950031 6.72829
0 0.964336 0.0941724 6.74157
0 0.964331 0.151954 17.4121
0 0.964381 0.0949736 7.26785
0 0.964368 0.0954849 6.37224
0 0.964377 0.0954232 6.76206
0 0.964379 0.0949641 7.43336
0 0.964364 0.0939989 7.65297
0 0.964372 0.0932782 7.59766
0 0.964432 0.150761 13.8637
0 0.96437 0.095273 6.55757
0 0.964354 0.0938618 6.79271
0 0.964366 0.0940253 6.3712
0 0.964334 0.150284 20.9357
0 0.964351 0.0947412 7.47455
0 0.964383 0.094956 7.51655
0 0.964358 0.0951154 7.70863
0 0.964378 0.0958595 7.30378
0 0.964385 0.0951622 7.57023
0 0.964399 0.0942869 6.82028
0 0.964376 0.147796 18.4219
0 0.964328 0.0940505 6.43173
0 0.964339 0.0936446 6.47026
0 0.964392 0.149289 10.0736
0 0.964327 0.0942765 6.44208
0 0.964392 0.100845 7.69876
0 0.964369 0.0950619 6.2062
0 0.964453 0.0951522 7.37158
0 0.964476 0.146675 12.7803
0 0.964275 0.0938075 6.58746
0 0.964277 0.147557 23.7827
0 0.964354 0.0948628 7.3477
0 0.964432 0.0954238 7.30238
0 0.964488 0.146777 10.5726
0 0.96429 0.14578 22.1277
0 0.964431 0.146964 13.1068
VECTORS fa_u float
0.00683369 0.00275451 -0
0.00650412 0.00374104 -0
0.00374993 0.00101619 -0
0.00686659 0.0010234 -0
1e-08 0 0
0.00519358 0.00400331 -0
0.00295883 0.00288731 -0
1e-08 0 0
1e-08 0 0
0.00447085 0.00554702 -0
0.00469396 0.00795205 -0
0.00667726 0.000103786 -0
0.00619222 -0.000704816 0
1e-08 0 0
1e-08 0 0
1e-08 0 0
1e-08 0 0
1e-08 0 0
1e-08 0 0
1e-08 0 0
1e-08 0 0
0.00280775 0.00689168 -0
0.00161926 0.00627131 -0
1e-08 0 0
1e-08 0 0
1e-08 0 0
0.00829956 -0.00212711 0
1e-08 0 0
0.00963026 -0.0041635 0
1e-08 0 0
1e-08 0 0
1e-08 0 0
0.000857572 0.00710369 -0
1e-08 0 0
1e-08 0 0
1e-08 0 0
1e-08 0 0
1e-08 0 0
1e-08 0 0
1e-08 0 0
1e-08 0 0
1e-08 0 0
1e-08 0 0
-0.000129653 0.00748216 -0
1e-08 0 0
1e-08 0 0
1e-08 0 0
0.0055168 -0.00342437 0
1e-08 0 0
0.0033673 -0.0026816 0
1e-08 0 0
1e-08 0 0
1e-08 0 0
1e-08 0 0
1e-08 0 0
1e-08 0 0
1e-08 0 0
1e-08 0 0
1e-08 0 0
1e-08 0 0
1e-08 0 0
1e-08 0 0
1e-08 0 0
-0.000656452 0.00460375 0
1e-08 0 0
1e-08 0 0
1e-08 0 0
1e-08 0 0
1e-08 0 0
0.00351486 -0.00349037 0
1e-08 0 0
0.00302483 -0.00376418 0
1e-08 0 0
1e-08 0 0
1e-08 0 0
1e-08 0 0
1e-08 0 0
1e-08 0 0
1e-08 0 0
1e-08 0 0
1e-08 0 0
1e-08 0 0
1e-08 0 0
1e-08 0 0
1e-08 0 0
-0.00144151 0.00549722 0
1e-08 0 0
1e-08 0 0
1e-08 0 0
1e-08 0 0
1e-08 0 0
1e-08 0 0
0.00506735 -0.00842207 0
1e-08 0 0
1e-08 0 0
1e-08 0 0
1e-08 0 0
1e-08 0 0
0.00333002 -0.0081865 0
1e-08 0 0
1e-08 0 0
1e-08 0 0
1e-08 0 0
1e-08 0 0
1e-08 0 0
1e-08 0 0
1e-08 0 0
1e-08 0 0
1e-08 0 0
-0.00277266 0.00682843 0
1e-08 0 0
1e-08 0 0
1e-08 0 0
1e-08 0 0
1e-08 0 0
1e-08 0 0
1e-08 0 0
1e-08 0 0
1e-08 0 0
1e-08 0 0
1e-08 0 0
1e-08 0 0
1e-08 0 0
1e-08 0 0
0.0014487 -0.00568838 0
1e-08 0 0
1e-08 0 0
1e-08 0 0
1e-08 0 0
1e-08 0 0
1e-08 0 0
1e-08 0 0
1e-08 0 0
1e-08 0 0
-0.00362605 0.00628645 0
1e-08 0 0
1e-08 0 0
1e-08 0 0
1e-08 0 0
1e-08 0 0
1e-08 0 0
1e-08 0 0
1e-08 0 0
1e-08 0 0
1e-08 0 0
1e-08 0 0
1e-08 0 0
1e-08 0 0
1e-08 0 0
1e-08 0 0
0.000589051 -0.00434108 0
1e-08 0 0
1e-08 0 0
1e-08 0 0
1e-08 0 0
1e-08 0 0
1e-08 0 0
1e-08 0 0
1e-08 0 0
1e-08 0 0
1e-08 0 0
-0.00447818 0.00576766 0
1e-08 0 0
1e-08 0 0
1e-08 0 0
1e-08 0 0
1e-08 0 0
1e-08 0 0
1e-08 0 0
1e-08 0 0
1e-08 0 0
1e-08 0 0
1e-08 0 0
1e-08 0 0
8.69739e-05 -0.00755645 0
1e-08 0 0
1e-08 0 0
1e-08 0 0
1e-08 0 0
1e-08 0 0
1e-08 0 0
1e-08 0 0
1e-08 0 0
1e-08 0 0
1e-08 0 0
1e-08 0 0
1e-08 0 0
-0.00278723 0.0028219 0
1e-08 0 0
1e-08 0 0
1e-08 0 0
1e-08 0 0
1e-08 0 0
1e-08 0 0
1e-08 0 0
1e-08 0 0
1e-08 0 0
1e-08 0 0
1e-08 0 0
1e-08 0 0
1e-08 0 0
-0.000857345 -0.00682152 0
1e-08 0 0
1e-08 0 0
1e-08 0 0
1e-08 0 0
1e-08 0 0
1e-08 0 0
1e-08 0 0
1e-08 0 0
-0.00488092 0.003928 0
1e-08 0 0
1e-08 0 0
1e-08 0 0
1e-08 0 0
1e-08 0 0
1e-08 0 0
1e-08 0 0
1e-08 0 0
1e-08 0 0
1e-08 0 0
1e-08 0 0
-0.00164214 -0.00626115 0
1e-08 0 0
1e-08 0 0
1e-08 0 0
1e-08 0 0
1e-08 0 0
1e-08 0 0
1e-08 0 0
-0.00787448 0.00468832 0
1e-08 0 0
1e-08 0 0
1e-08 0 0
1e-08 0 0
1e-08 0 0
1e-08 0 0
1e-08 0 0
1e-08 0 0
1e-08 0 0
1e-08 0 0
1e-08 0 0
-0.00282075 -0.00685394 0
1e-08 0 0
1e-08 0 0
1e-08 0 0
1e-08 0 0
1e-08 0 0
-0.00712822 0.00292726 0
1e-08 0 0
1e-08 0 0
1e-08 0 0
1e-08 0 0
1e-08 0 0
1e-08 0 0
1e-08 0 0
1e-08 0 0
-0.00463958 -0.0078109 0
1e-08 0 0
1e-08 0 0
1e-08 0 0
1e-08 0 0
-0.00631344 0.00163966 0
1e-08 0 0
1e-08 0 0
1e-08 0 0
1e-08 0 0
1e-08 0 0
1e-08 0 0
-0.00366555 -0.00458636 0
1e-08 0 0
1e-08 0 0
1e-08 0 0
-0.00689983 0.000846945 0
1e-08 0 0
1e-08 0 0
1e-08 0 0
1e-08 0 0
1e-08 0 0
1e-08 0 0
-0.0030227 -0.0030071 0
1e-08 0 0
1e-08 0 0
-0.00802373 -0.00013376 0
1e-08 0 0
1e-08 0 0
1e-08 0 0
1e-08 0 0
-0.00587217 -0.00456978 0
1e-08 0 0
-0.00408061 -0.000576961 0
1e-08 0 0
1e-08 0 0
-0.00638626 -0.00368286 0
-0.00576996 -0.00149494 0
-0.0069154 -0.0028 0
