# vtk DataFile Version 2.0
CellBP Time: 11.44
ASCII
DATASET UNSTRUCTURED_GRID
POINTS 296 double
-8.9185 -3.65105 0
-8.36335 -4.80096 0
-9.30772 -2.43185 0
-9.58506 -1.2072 0
-8.07717 -2.69981 0
-7.64765 -5.86326 0
-6.80082 -6.82501 0
-7.63659 -3.72086 0
-7.07989 -4.69221 0
-5.88086 -7.69297 0
-4.85722 -8.42438 0
-9.695 0.0381374 0
-9.64059 1.3106 0
-8.3946 -1.61149 0
-8.55445 -0.502405 0
-7.32705 -1.90532 0
-6.94993 -2.77046 0
-6.42469 -5.60384 0
-5.65837 -6.4331 0
-6.52754 -3.72997 0
-5.99813 -4.51782 0
-3.70993 -8.98711 0
-2.48362 -9.38516 0
-4.79046 -7.14025 0
-3.84745 -7.73261 0
-8.56898 0.630322 0
-9.42381 2.58705 0
-8.4285 1.71846 0
-9.01511 3.8007 0
-7.49919 -0.875437 0
-7.56482 0.0929734 0
-6.72022 -1.25013 0
-1.21327 -9.62238 0
-6.22358 -2.05952 0
-6.09533 -2.93213 0
-5.35236 -5.31381 0
-4.65683 -5.95877 0
-5.45907 -3.62792 0
-5.08483 -4.41776 0
-2.81501 -8.19297 0
-1.74439 -8.44508 0
-3.83898 -6.574 0
-3.00755 -7.01076 0
0.0556138 -9.68021 0
-7.49834 1.11714 0
-8.17493 2.85839 0
-7.35937 2.04732 0
-8.39969 4.91652 0
-7.69649 3.87066 0
-7.64207 5.94981 0
-6.56501 -0.368759 0
-6.74762 0.550848 0
-5.60517 -0.967057 0
-0.572208 -8.59287 0
0.549176 -8.52681 0
-5.14526 -2.39519 0
-4.33707 -4.95022 0
-3.78806 -5.63341 0
-4.30972 -3.69814 0
-2.02248 -7.40386 0
-1.11455 -7.60676 0
-2.92293 -5.96341 0
-2.27132 -6.48177 0
1.3075 -9.56067 0
-6.50889 1.38137 0
-6.97658 3.02369 0
-6.48086 2.30192 0
-7.09451 4.83623 0
-6.5375 3.88207 0
-6.80125 6.8941 0
-6.38812 5.71497 0
-5.86011 7.74934 0
-4.36351 -1.15817 0
-5.6703 0.491755 0
-4.56796 -0.0253437 0
-0.011519 -7.63504 0
1.67429 -8.37451 0
0.896655 -7.53121 0
-3.95517 -2.34979 0
-3.45163 -1.37855 0
-3.21487 -4.6907 0
-3.21162 -3.19923 0
-1.36271 -6.5206 0
-0.522982 -6.84399 0
-1.94164 -5.42385 0
2.553 -9.3133 0
-5.3739 1.99165 0
-5.93238 2.97734 0
-5.93458 4.71175 0
-5.60317 3.85957 0
-5.592 6.50991 0
-5.29693 5.43944 0
-4.83578 8.50254 0
-4.69362 7.17039 0
-3.4607 -0.420255 0
-4.35488 1.22264 0
-3.64909 0.584265 0
-3.97463 2.29159 0
-3.70086 9.06945 0
2.74965 -8.03776 0
0.368028 -6.5916 0
1.9275 -7.2716 0
1.22683 -6.67902 0
-2.42645 -0.862254 0
-2.81072 -2.10322 0
-2.25962 -4.01783 0
-2.29534 -2.92074 0
-0.455067 -5.70899 0
-1.19816 -4.41921 0
3.76247 -8.92259 0
-4.66765 3.3037 0
-4.94739 4.44606 0
-4.50908 6.07623 0
-4.40712 5.18575 0
-3.74512 7.7758 0
-3.70711 6.61196 0
-2.70849 8.17879 0
-1.6306 -0.126236 0
-1.43543 -0.877443 0
-2.47082 0.517005 0
-3.19868 1.43666 0
-3.16916 3.25257 0
-2.86401 2.35689 0
-1.35054 0.639575 0
-2.4818 9.45246 0
3.78518 -7.60964 0
2.82263 -6.87732 0
0.896296 -5.64385 0
1.96796 -6.18667 0
-1.66589 -1.97267 0
-1.41276 -3.22829 0
0.0763348 -4.63939 0
-0.548347 -3.64075 0
4.76326 -7.05722 0
4.90302 -8.36717 0
-3.67881 4.43104 0
-3.6275 5.5736 0
-2.7928 7.05791 0
-2.92297 6.15713 0
-1.62108 8.49341 0
-1.87843 7.3994 0
-2.29568 3.96797 0
-0.723322 -1.31625 0
-0.828157 -0.243864 0
-1.92993 1.69041 0
-2.09997 2.85344 0
-1.29799 3.5029 0
-0.872195 1.36483 0
-0.284355 0.468542 0
-0.519583 8.64758 0
-1.22325 9.68777 0
1.06748 -4.44947 0
3.73961 -6.43061 0
2.85821 -5.85865 0
2.02841 -5.24117 0
4.61532 -5.9592 0
-0.546589 -2.45421 0
0.4867 -3.40481 0
0.0559293 -1.60348 0
1.43717 -3.58992 0
5.67962 -6.38605 0
5.96322 -7.65329 0
-2.41048 5.20722 0
-2.05815 6.3463 0
-0.87433 7.60093 0
-1.22078 6.74439 0
0.0928634 7.69106 0
-1.12609 4.40977 0
0.147697 -0.60913 0
-0.80781 2.49376 0
-0.346119 3.57219 0
0.0546219 1.52034 0
0.736723 0.478095 0
0.634601 8.678 0
0.0418629 9.79875 0
2.30201 -4.14818 0
3.71819 -5.41316 0
2.88925 -5.02129 0
5.41436 -5.29542 0
4.53758 -5.07305 0
0.631796 -2.28283 0
1.2372 -2.89875 0
0.754535 -1.38462 0
2.11324 -3.06201 0
2.91979 -3.3744 0
6.00248 -4.64249 0
6.47548 -5.59507 0
6.9162 -6.79671 0
-0.983738 5.68004 0
-0.345114 6.70833 0
1.10007 7.60393 0
0.563333 6.92235 0
-0.00255582 4.64579 0
0.587162 3.78175 0
1.32861 -0.638833 0
0.519552 2.63792 0
0.948392 1.57688 0
1.89406 0.20967 0
1.59139 1.06314 0
2.09618 7.43917 0
1.76621 8.53018 0
1.32116 9.72801 0
3.70667 -4.1959 0
4.97454 -4.27627 0
5.7033 -3.80369 0
3.69488 -3.10336 0
1.79679 -1.87546 0
2.96171 -2.52412 0
6.63855 -3.8392 0
7.21588 -4.76962 0
7.78071 -5.86809 0
0.482811 5.75493 0
1.40983 6.60764 0
2.33415 6.54465 0
1.18607 4.48321 0
1.46286 3.35228 0
2.40617 -0.686882 0
2.79528 0.13885 0
1.76481 2.14575 0
2.58161 1.13883 0
3.0216 7.03016 0
2.85389 8.21111 0
2.58725 9.48512 0
4.79262 -3.21767 0
5.98616 -3.01419 0
4.09435 -2.22812 0
3.19608 -1.48329 0
6.60554 -2.26867 0
7.0972 -2.98376 0
7.80625 -3.83911 0
8.51757 -4.8474 0
1.99224 5.49714 0
3.00819 6.0231 0
2.33208 4.05656 0
2.38731 3.01573 0
3.47286 -0.451337 0
3.56777 0.616054 0
2.91984 2.25585 0
3.48468 1.50502 0
3.89658 5.76614 0
3.88966 6.64616 0
3.90738 7.78382 0
3.80977 9.08118 0
5.46634 -1.87623 0
4.43464 -1.10888 0
6.5811 -1.30827 0
7.44606 -1.99344 0
8.22697 -2.80804 0
9.0846 -3.70556 0
3.31848 4.76697 0
3.26243 3.3206 0
4.60862 0.135517 0
4.41869 1.28181 0
3.95991 2.3868 0
4.41113 5.01542 0
4.70556 6.038 0
4.86242 7.21411 0
4.95154 8.51395 0
5.75892 -0.432014 0
6.8452 -0.490839 0
7.60095 -1.0622 0
8.5027 -1.7118 0
9.48536 -2.48081 0
4.40554 3.72489 0
5.65796 1.04707 0
5.19808 2.45015 0
5.18072 4.47952 0
5.42808 5.36824 0
5.73117 6.50004 0
5.97401 7.78093 0
6.66119 0.42675 0
7.65808 -0.0332027 0
8.66487 -0.566088 0
9.72457 -1.21196 0
6.75137 1.28106 0
5.50978 3.64807 0
6.32426 2.10057 0
6.14892 2.96599 0
6.06272 4.5317 0
6.48014 5.66962 0
6.90834 6.92361 0
7.56778 0.928519 0
8.63256 0.558878 0
9.78731 0.0633632 0
7.37745 1.9235 0
6.55615 3.74619 0
7.00801 2.82895 0
7.13401 4.72851 0
7.76642 5.97337 0
8.4653 1.67591 0
9.66456 1.31419 0
8.13856 2.73432 0
7.7271 3.78683 0
8.47991 4.91434 0
9.42365 2.56366 0
9.03506 3.77355 0
CELLS 542 2168
3 2 0 4
3 0 1 7
3 4 0 7
3 1 5 8
3 7 1 8
3 3 2 13
3 13 2 4
3 11 3 14
3 14 3 13
3 13 4 15
3 4 7 16
3 15 4 16
3 5 6 17
3 8 5 17
3 6 9 18
3 17 6 18
3 7 8 19
3 16 7 19
3 8 17 20
3 19 8 20
3 9 10 23
3 18 9 23
3 10 21 24
3 23 10 24
3 12 11 25
3 25 11 14
3 26 12 27
3 27 12 25
3 14 13 29
3 29 13 15
3 25 14 30
3 30 14 29
3 29 15 31
3 15 16 33
3 31 15 33
3 16 19 34
3 33 16 34
3 17 18 35
3 20 17 35
3 18 23 36
3 35 18 36
3 19 20 37
3 34 19 37
3 20 35 38
3 37 20 38
3 21 22 39
3 24 21 39
3 22 32 40
3 39 22 40
3 23 24 41
3 36 23 41
3 24 39 42
3 41 24 42
3 27 25 44
3 44 25 30
3 28 26 45
3 45 26 27
3 45 27 46
3 46 27 44
3 47 28 48
3 48 28 45
3 30 29 50
3 50 29 31
3 44 30 51
3 51 30 50
3 50 31 52
3 31 33 52
3 32 43 53
3 40 32 53
3 53 43 54
3 33 34 55
3 34 37 55
3 33 55 52
3 35 36 56
3 38 35 56
3 36 41 57
3 56 36 57
3 37 38 58
3 38 56 58
3 37 58 55
3 39 40 59
3 42 39 59
3 40 53 60
3 59 40 60
3 41 42 61
3 57 41 61
3 42 59 62
3 61 42 62
3 43 63 54
3 46 44 64
3 64 44 51
3 48 45 65
3 65 45 46
3 65 46 66
3 66 46 64
3 49 47 67
3 67 47 48
3 67 48 68
3 68 48 65
3 69 49 70
3 70 49 67
3 52 55 72
3 64 51 73
3 51 50 73
3 50 52 73
3 73 52 74
3 74 52 72
3 53 54 75
3 60 53 75
3 54 63 76
3 54 76 77
3 75 54 77
3 55 58 78
3 72 55 78
3 72 78 79
3 56 57 80
3 57 61 80
3 56 80 58
3 58 80 81
3 78 58 81
3 59 60 82
3 62 59 82
3 60 75 83
3 82 60 83
3 61 62 84
3 62 82 84
3 61 84 80
3 63 85 76
3 66 64 86
3 64 73 86
3 68 65 87
3 87 65 66
3 87 66 86
3 70 67 88
3 88 67 68
3 88 68 89
3 89 68 87
3 71 69 90
3 90 69 70
3 90 70 91
3 91 70 88
3 92 71 93
3 93 71 90
3 74 72 94
3 94 72 79
3 86 73 95
3 95 73 74
3 95 74 96
3 96 74 94
3 97 86 95
3 76 85 99
3 75 77 100
3 83 75 100
3 76 99 101
3 77 76 101
3 77 101 102
3 100 77 102
3 94 79 103
3 78 81 104
3 79 78 104
3 79 104 103
3 80 84 105
3 81 80 105
3 81 105 106
3 104 81 106
3 82 83 107
3 83 100 107
3 82 107 84
3 84 107 108
3 105 84 108
3 85 109 99
3 89 87 110
3 87 86 110
3 110 86 97
3 91 88 111
3 111 88 89
3 111 89 110
3 93 90 112
3 112 90 91
3 112 91 113
3 113 91 111
3 98 92 114
3 114 92 93
3 114 93 115
3 115 93 112
3 116 98 114
3 117 103 118
3 96 94 119
3 94 103 119
3 119 103 117
3 97 95 120
3 120 95 96
3 120 96 119
3 121 110 97
3 121 97 122
3 122 97 120
3 123 119 117
3 124 98 116
3 99 109 125
3 99 125 126
3 101 99 126
3 100 102 127
3 100 127 107
3 101 126 128
3 102 101 128
3 102 128 127
3 104 106 129
3 104 129 103
3 103 129 118
3 105 108 130
3 106 105 130
3 106 130 129
3 107 127 131
3 108 107 131
3 108 131 132
3 108 132 130
3 109 134 125
3 125 134 133
3 113 111 135
3 111 110 135
3 135 110 121
3 115 112 136
3 136 112 113
3 136 113 135
3 116 114 137
3 137 114 115
3 137 115 138
3 138 115 136
3 139 124 116
3 139 116 140
3 140 116 137
3 141 135 121
3 118 129 142
3 118 142 143
3 117 118 143
3 123 117 143
3 122 120 144
3 120 119 144
3 144 119 123
3 141 121 145
3 145 121 122
3 145 122 144
3 146 141 145
3 147 144 123
3 147 123 148
3 143 148 123
3 150 124 139
3 149 150 139
3 131 127 151
3 125 133 152
3 126 125 152
3 126 152 153
3 128 126 153
3 128 153 154
3 128 154 127
3 127 154 151
3 152 133 155
3 130 132 156
3 130 156 129
3 129 156 142
3 131 151 157
3 132 131 157
3 132 157 156
3 156 158 142
3 157 151 159
3 133 160 155
3 134 161 133
3 133 161 160
3 138 136 162
3 136 135 162
3 162 135 141
3 140 137 163
3 163 137 138
3 163 138 162
3 149 139 164
3 164 139 140
3 164 140 165
3 165 140 163
3 166 149 164
3 167 162 141
3 167 141 146
3 142 158 168
3 143 142 168
3 143 168 148
3 146 145 169
3 145 144 169
3 169 144 147
3 170 167 146
3 170 146 169
3 171 169 147
3 171 147 148
3 171 148 172
3 168 172 148
3 173 149 166
3 174 150 149
3 173 174 149
3 154 175 151
3 151 175 159
3 152 155 176
3 153 152 176
3 153 176 177
3 153 177 154
3 154 177 175
3 155 160 178
3 155 178 179
3 176 155 179
3 156 157 180
3 156 180 158
3 157 159 181
3 157 181 180
3 158 180 182
3 158 182 168
3 159 175 183
3 159 183 181
3 175 184 183
3 160 186 178
3 178 186 185
3 161 187 160
3 160 187 186
3 165 163 188
3 163 162 188
3 188 162 167
3 166 164 189
3 189 164 165
3 189 165 188
3 190 173 166
3 190 166 191
3 191 166 189
3 192 188 167
3 192 167 170
3 193 192 170
3 182 194 168
3 194 172 168
3 193 170 195
3 170 169 195
3 195 169 171
3 196 195 171
3 196 171 172
3 194 197 172
3 197 198 172
3 198 196 172
3 200 173 190
3 199 200 190
3 201 174 173
3 200 201 173
3 176 179 202
3 177 176 202
3 177 202 175
3 175 202 184
3 178 185 203
3 178 203 179
3 179 203 202
3 203 185 204
3 202 205 184
3 183 206 181
3 180 181 206
3 180 206 182
3 182 206 194
3 183 184 207
3 205 207 184
3 183 207 206
3 185 208 204
3 186 209 185
3 185 209 208
3 187 210 186
3 186 210 209
3 191 189 211
3 189 188 211
3 211 188 192
3 199 190 212
3 212 190 191
3 212 191 211
3 213 199 212
3 214 211 192
3 214 192 193
3 215 214 193
3 215 193 195
3 206 216 194
3 216 197 194
3 216 217 197
3 215 195 218
3 218 195 196
3 198 218 196
3 217 219 197
3 219 218 198
3 197 219 198
3 220 199 213
3 221 200 199
3 220 221 199
3 222 201 200
3 221 222 200
3 203 204 223
3 203 223 202
3 202 223 205
3 204 208 224
3 204 224 223
3 205 223 225
3 205 225 207
3 207 225 226
3 207 226 206
3 226 216 206
3 208 228 224
3 224 228 227
3 209 229 208
3 229 228 208
3 210 230 209
3 209 230 229
3 213 212 231
3 212 211 231
3 231 211 214
3 232 220 213
3 232 213 231
3 233 231 214
3 233 214 215
3 234 233 215
3 234 215 218
3 226 235 216
3 235 217 216
3 235 236 217
3 217 236 219
3 237 234 218
3 237 218 219
3 236 238 219
3 238 237 219
3 240 220 232
3 239 240 232
3 241 221 220
3 240 241 220
3 242 222 221
3 241 242 221
3 224 227 243
3 224 243 223
3 223 243 225
3 225 243 244
3 225 244 226
3 226 244 235
3 227 245 243
3 228 246 227
3 227 246 245
3 229 247 228
3 228 247 246
3 230 248 229
3 229 248 247
3 239 232 249
3 232 231 249
3 249 231 233
3 250 249 233
3 250 233 234
3 237 250 234
3 244 251 235
3 235 251 236
3 251 252 236
3 236 252 238
3 252 253 238
3 253 250 237
3 253 237 238
3 254 239 249
3 255 240 239
3 254 255 239
3 256 241 240
3 255 256 240
3 257 242 241
3 256 257 241
3 245 258 243
3 243 258 244
3 244 258 251
3 245 259 258
3 246 260 245
3 245 260 259
3 247 261 246
3 246 261 260
3 248 262 247
3 247 262 261
3 254 249 263
3 263 249 250
3 253 263 250
3 258 264 251
3 251 264 252
3 264 265 252
3 265 263 253
3 252 265 253
3 266 254 263
3 267 255 254
3 266 267 254
3 268 256 255
3 267 268 255
3 269 257 256
3 268 269 256
3 259 270 258
3 270 264 258
3 260 271 259
3 259 271 270
3 261 272 260
3 260 272 271
3 262 273 261
3 273 272 261
3 270 274 264
3 275 266 263
3 275 263 265
3 274 276 264
3 276 265 264
3 276 277 265
3 277 275 265
3 278 267 266
3 275 278 266
3 279 268 267
3 278 279 267
3 280 269 268
3 279 280 268
3 271 281 270
3 270 281 274
3 272 282 271
3 271 282 281
3 273 283 272
3 272 283 282
3 281 284 274
3 274 284 276
3 285 278 275
3 277 285 275
3 284 286 276
3 286 285 277
3 276 286 277
3 287 279 278
3 285 287 278
3 288 280 279
3 287 288 279
3 282 289 281
3 281 289 284
3 283 290 282
3 282 290 289
3 289 291 284
3 284 291 286
3 291 292 286
3 292 287 285
3 286 292 285
3 293 288 287
3 292 293 287
3 290 294 289
3 289 294 291
3 294 295 291
3 295 293 292
3 291 295 292
CELL_TYPES 542
5
5
5
5
5
5
5
5
5
5
5
5
5
5
5
5
5
5
5
5
5
5
5
5
5
5
5
5
5
5
5
5
5
5
5
5
5
5
5
5
5
5
5
5
5
5
5
5
5
5
5
5
5
5
5
5
5
5
5
5
5
5
5
5
5
5
5
5
5
5
5
5
5
5
5
5
5
5
5
5
5
5
5
5
5
5
5
5
5
5
5
5
5
5
5
5
5
5
5
5
5
5
5
5
5
5
5
5
5
5
5
5
5
5
5
5
5
5
5
5
5
5
5
5
5
5
5
5
5
5
5
5
5
5
5
5
5
5
5
5
5
5
5
5
5
5
5
5
5
5
5
5
5
5
5
5
5
5
5
5
5
5
5
5
5
5
5
5
5
5
5
5
5
5
5
5
5
5
5
5
5
5
5
5
5
5
5
5
5
5
5
5
5
5
5
5
5
5
5
5
5
5
5
5
5
5
5
5
5
5
5
5
5
5
5
5
5
5
5
5
5
5
5
5
5
5
5
5
5
5
5
5
5
5
5
5
5
5
5
5
5
5
5
5
5
5
5
5
5
5
5
5
5
5
5
5
5
5
5
5
5
5
5
5
5
5
5
5
5
5
5
5
5
5
5
5
5
5
5
5
5
5
5
5
5
5
5
5
5
5
5
5
5
5
5
5
5
5
5
5
5
5
5
5
5
5
5
5
5
5
5
5
5
5
5
5
5
5
5
5
5
5
5
5
5
5
5
5
5
5
5
5
5
5
5
5
5
5
5
5
5
5
5
5
5
5
5
5
5
5
5
5
5
5
5
5
5
5
5
5
5
5
5
5
5
5
5
5
5
5
5
5
5
5
5
5
5
5
5
5
5
5
5
5
5
5
5
5
5
5
5
5
5
5
5
5
5
5
5
5
5
5
5
5
5
5
5
5
5
5
5
5
5
5
5
5
5
5
5
5
5
5
5
5
5
5
5
5
5
5
5
5
5
5
5
5
5
5
5
5
5
5
5
5
5
5
5
5
5
5
5
5
5
5
5
5
5
5
5
5
5
5
5
5
5
5
5
5
5
5
5
5
5
5
5
5
5
5
5
5
5
5
5
5
5
5
5
5
5
5
5
5
5
5
5
5
5
5
5
5
5
5
5
5
5
5
5
5
5
5
5
5
5
5
5
5
5
5
5
5
5
5
5
5
5
5
5
5
5
5
5
5
5
5
5
5
5
5
5
5
5
5
POINT_DATA 296
SCALARS concentrations float 4
LOOKUP_TABLE default
0 0.948372 0.106756 7.50244
0 0.948324 0.110799 4.38611
0 0.948402 0.110099 11.3305
0 0.948369 0.10549 8.50898
0 0.948379 0.0931198 7.33634
0 0.948302 0.106107 13.2872
0 0.948278 0.106698 6.93868
0 0.948338 0.0937879 7.13001
0 0.94832 0.0936824 6.90008
0 0.948316 0.107076 7.00156
0 0.94837 0.11025 8.76331
0 0.948376 0.107877 7.121
0 0.948366 0.104144 5.39747
0 0.948374 0.0927339 6.98731
0 0.948371 0.0925067 7.04886
0 0.948352 0.0936467 7.60319
0 0.948338 0.0936654 7.00354
0 0.948297 0.0928216 7.10085
0 0.948303 0.0924724 7.13194
0 0.948322 0.0940433 7.62286
0 0.948312 0.0930052 7.22596
0 0.948347 0.110542 2.9609
0 0.948365 0.108569 11.3724
0 0.948344 0.0925923 7.1614
0 0.948355 0.0930841 7.21491
0 0.948369 0.0931214 6.67234
0 0.94835 0.106335 9.48547
0 0.948346 0.0925559 6.78072
0 0.948326 0.105966 9.50652
0 0.94836 0.0931378 7.0715
0 0.948354 0.0931766 7.14982
0 0.948338 0.0934237 7.44683
0 0.948399 0.107535 9.09127
0 0.948328 0.0935312 7.17853
0 0.948317 0.0938531 6.79763
0 0.948315 0.0927422 7.20345
0 0.948328 0.0929711 7.27227
0 0.948311 0.0933539 6.90749
0 0.948315 0.0931331 7.18011
0 0.948333 0.0930716 7.33777
0 0.948365 0.093116 7.29811
0 0.948335 0.0938686 7.56516
0 0.94833 0.0939042 7.94187
0 0.948384 0.107567 10.0507
0 0.94834 0.0935581 7.38543
0 0.948334 0.0930974 7.27287
0 0.948322 0.094898 6.12014
0 0.948266 0.105444 9.41095
0 0.948285 0.0938647 6.38544
0 0.948326 0.106614 8.89937
0 0.948337 0.0939897 6.64485
0 0.948332 0.0932766 7.41592
0 0.948327 0.0936916 7.06998
0 0.948362 0.0930788 7.23981
0 0.948359 0.0930005 6.93454
0 0.948321 0.093895 7.11048
0 0.94832 0.0934204 7.25151
0 0.948321 0.0935451 7.28003
0 0.948317 0.0942033 6.96859
0 0.948321 0.09483 7.68271
0 0.948319 0.0934806 7.38125
0 0.94832 0.0935299 6.59191
0 0.948315 0.0945703 7.56045
0 0.948378 0.112961 10.9584
0 0.948317 0.0936332 7.46221
0 0.9483 0.0943565 8.1719
0 0.948306 0.0936646 7.27697
0 0.948289 0.0925582 6.78219
0 0.948286 0.0932267 7.2385
0 0.948328 0.10569 6.67004
0 0.948331 0.0930924 6.88866
0 0.948339 0.105838 8.69978
0 0.948324 0.0965968 7.11756
0 0.948319 0.0934754 6.77059
0 0.948322 0.0944194 6.73667
0 0.948317 0.0933146 7.04082
0 0.948354 0.0931339 6.60094
0 0.948317 0.0926666 7.31457
0 0.948316 0.0948999 6.62984
0 0.948315 0.097384 7.83464
0 0.94832 0.0935521 7.77931
0 0.948319 0.0953496 7.1568
0 0.948306 0.0941699 6.78832
0 0.948306 0.0937072 6.98451
0 0.948306 0.0952 6.88541
0 0.948376 0.104976 5.67358
0 0.948308 0.0936304 7.36801
0 0.948299 0.0940282 6.19719
0 0.948301 0.0930626 6.74688
0 0.948295 0.0934903 6.58547
0 0.948334 0.0925027 7.06472
0 0.948325 0.0925353 7.11457
0 0.948333 0.1102 5.59877
0 0.948344 0.0946223 7.02567
0 0.94832 0.0941052 7.26301
0 0.948314 0.0933737 6.38059
0 0.948321 0.093131 6.59787
0 0.948309 0.0938538 6.22073
0 0.948337 0.105732 5.82653
0 0.948357 0.0940144 6.6929
0 0.948306 0.0931903 6.89373
0 0.948318 0.0936072 6.48123
0 0.948307 0.0936714 7.53109
0 0.948321 0.0945075 7.97811
0 0.948321 0.0942645 7.42403
0 0.948315 0.0950253 6.56928
0 0.948327 0.0954069 6.94068
0 0.948304 0.0947898 7.80086
0 0.948296 0.0949052 7.69008
0 0.948382 0.106124 8.41157
0 0.948305 0.0932492 6.22352
0 0.948306 0.0932437 6.33984
0 0.948343 0.093743 7.38792
0 0.948324 0.0941573 7.26968
0 0.948341 0.094749 7.49608
0 0.948347 0.095847 6.96071
0 0.948348 0.0946567 6.96938
0 0.94832 0.0942409 7.12978
0 0.948324 0.0954694 7.35373
0 0.948323 0.0934168 7.52238
0 0.94832 0.0927157 6.40333
0 0.948312 0.0923128 6.4518
0 0.94832 0.0952217 8.32808
0 0.948319 0.0940393 7.59011
0 0.948348 0.104947 10.9884
0 0.948375 0.0940973 8.11641
0 0.948328 0.095591 8.27254
0 0.948309 0.0932244 7.27658
0 0.948308 0.0932682 7.50663
0 0.948325 0.0949124 6.22559
0 0.948314 0.0954176 6.51923
0 0.948302 0.0951414 8.15614
0 0.948299 0.0953267 5.07547
0 0.948391 0.0942466 6.77301
0 0.948414 0.111569 9.95012
0 0.948314 0.09312 6.7566
0 0.94833 0.0941728 7.50306
0 0.948349 0.0948956 7.01222
0 0.948333 0.0953307 6.62777
0 0.948351 0.0923521 6.9557
0 0.948336 0.093209 6.77145
0 0.948317 0.0949073 7.90364
0 0.948319 0.0947337 7.03464
0 0.948318 0.0949581 7.21524
0 0.948328 0.0937013 6.91753
0 0.948329 0.0953958 7.21465
0 0.948326 0.0938898 6.83451
0 0.948321 0.0946797 7.37646
0 0.948313 0.0947995 7.24432
0 0.948343 0.0941377 7.68465
0 0.948358 0.113662 8.63647
0 0.948309 0.0950468 7.32435
0 0.948342 0.0945407 7.76319
0 0.948309 0.0939117 7.62672
0 0.948308 0.0940446 7.4066
0 0.948324 0.0935083 6.39938
0 0.948316 0.0951053 6.7569
0 0.948305 0.096135 8.21609
0 0.948293 0.0958536 5.31145
0 0.948315 0.0968091 8.15095
0 0.948342 0.0934289 7.1319
0 0.948401 0.1093 11.1821
0 0.94832 0.0929444 6.9697
0 0.948325 0.0924521 7.0555
0 0.948336 0.0932271 7.21781
0 0.948322 0.0951521 7.00309
0 0.948325 0.0935576 7.34682
0 0.948318 0.095225 6.88058
0 0.948306 0.0978126 5.85274
0 0.948324 0.0968436 6.76066
0 0.948312 0.0965739 7.53622
0 0.948315 0.093523 7.43222
0 0.948317 0.0950669 7.2902
0 0.9483 0.0938067 7.97853
0 0.94831 0.105503 10.0824
0 0.948325 0.0942818 7.14282
0 0.948309 0.0942271 6.49679
0 0.94831 0.0951446 7.18819
0 0.948307 0.0936398 7.52603
0 0.948307 0.0943221 7.65156
0 0.948305 0.0975651 6.00553
0 0.948312 0.0951805 7.78862
0 0.948287 0.0962856 9.47655
0 0.948324 0.0967292 5.64432
0 0.948334 0.0958013 8.94603
0 0.948308 0.0939987 6.6458
0 0.94832 0.0933864 6.8134
0 0.948336 0.106121 8.01761
0 0.94832 0.0933312 7.06558
0 0.948323 0.0945172 7.84582
0 0.94831 0.0939069 7.68642
0 0.948312 0.0936466 6.8755
0 0.948311 0.0930355 6.28382
0 0.948311 0.0927917 6.48293
0 0.948316 0.0960574 9.02905
0 0.948315 0.0930719 6.49638
0 0.948313 0.0943379 7.24954
0 0.948328 0.0952332 7.63126
0 0.948321 0.09499 7.1562
0 0.948315 0.0941572 7.16346
0 0.948335 0.0941813 7.96022
0 0.948303 0.106319 12.1813
0 0.948317 0.0944028 6.61222
0 0.948311 0.0945648 8.17923
0 0.948309 0.0949178 6.05303
0 0.948334 0.0934829 6.53315
0 0.948303 0.0991248 10.4791
0 0.948321 0.0939857 7.1386
0 0.948306 0.0941093 6.76794
0 0.948316 0.0935947 6.55512
0 0.948325 0.105117 7.6264
0 0.948313 0.0935238 7.27424
0 0.94831 0.0957408 6.4221
0 0.948309 0.0940981 7.25874
0 0.948308 0.0938478 7.13411
0 0.948319 0.0943216 6.42653
0 0.948309 0.0955472 6.1005
0 0.948324 0.0955502 7.58292
0 0.948316 0.0939002 7.50762
0 0.948324 0.0963417 6.12732
0 0.948323 0.094128 7.90182
0 0.948361 0.0935383 7.84863
0 0.948381 0.107018 6.38808
0 0.948323 0.0951901 6.72035
0 0.948324 0.0946317 7.25426
0 0.948328 0.0938404 7.02254
0 0.94831 0.0942406 8.34317
0 0.94832 0.0993397 5.11053
0 0.948312 0.094955 7.39756
0 0.948306 0.0942993 6.85994
0 0.948316 0.111177 7.38842
0 0.948308 0.094875 7.1631
0 0.948307 0.0956159 5.50478
0 0.948308 0.0952985 6.66683
0 0.948309 0.0943387 6.85014
0 0.948319 0.0948565 8.56983
0 0.948327 0.0945346 8.0796
0 0.948305 0.0983157 5.61322
0 0.948316 0.0953534 8.07261
0 0.948302 0.0932057 6.34224
0 0.948318 0.0932975 7.68227
0 0.948351 0.0943072 7.67451
0 0.948379 0.102851 8.01537
0 0.94832 0.0959631 9.01426
0 0.948318 0.0952176 7.70251
0 0.948324 0.0969883 7.42844
0 0.948305 0.0944792 7.17853
0 0.948285 0.0947585 6.21408
0 0.94829 0.108053 13.766
0 0.948303 0.0935373 7.90146
0 0.948297 0.0942604 6.61657
0 0.948331 0.0949469 7.42733
0 0.948317 0.0955439 6.98828
0 0.948305 0.0943724 7.80905
0 0.948313 0.0943238 7.98942
0 0.948323 0.0930873 7.79577
0 0.948335 0.0934151 7.83915
0 0.948347 0.103882 7.29352
0 0.948333 0.0969152 7.66111
0 0.94834 0.0963081 5.54344
0 0.948322 0.0954291 8.46516
0 0.948287 0.0947625 6.0821
0 0.948269 0.10317 8.24402
0 0.948315 0.0949716 5.5926
0 0.948332 0.0956966 5.52815
0 0.948312 0.0939804 6.97338
0 0.948327 0.0946369 8.36513
0 0.948335 0.093699 6.98177
0 0.948372 0.0938248 7.77402
0 0.948358 0.106639 6.97104
0 0.948347 0.0961272 8.27171
0 0.94833 0.0943189 6.64757
0 0.948317 0.0944237 7.88741
0 0.948302 0.10359 8.51489
0 0.948347 0.0944902 6.29691
0 0.948326 0.095134 6.51847
0 0.948328 0.0950339 6.32666
0 0.948319 0.0954204 5.82353
0 0.948347 0.095327 5.60004
0 0.948406 0.094096 6.48429
0 0.948436 0.113307 6.40188
0 0.948347 0.0951476 5.90424
0 0.948337 0.0942409 6.45922
0 0.948321 0.105168 12.4714
0 0.948347 0.0948919 6.09633
0 0.94834 0.0933741 6.63145
0 0.948342 0.0933124 6.84952
0 0.948377 0.095357 6.85625
0 0.948428 0.103081 7.79799
0 0.948369 0.094086 6.67715
0 0.948363 0.10672 6.61821
0 0.948364 0.0934922 7.42801
0 0.948355 0.0954294 6.42536
0 0.948371 0.104495 10.4843
0 0.948382 0.107425 7.55426
0 0.948369 0.107667 10.7742
VECTORS fa_u float
0.00716861 0.00285753 -0
0.00691189 0.00397064 -0
0.00282987 0.000771853 -0
0.00712159 0.00111664 -0
1e-08 0 0
0.00512938 0.00395978 -0
0.00241436 0.00233134 -0
1e-08 0 0
1e-08 0 0
0.00463517 0.0056328 -0
0.00542571 0.00910163 -0
0.00675223 0.000148921 -0
0.00607735 -0.000646612 0
1e-08 0 0
1e-08 0 0
1e-08 0 0
1e-08 0 0
1e-08 0 0
1e-08 0 0
1e-08 0 0
1e-08 0 0
0.00294113 0.00726601 -0
0.00159018 0.00624963 -0
1e-08 0 0
1e-08 0 0
1e-08 0 0
0.009188 -0.00230792 0
1e-08 0 0
0.0114287 -0.00502444 0
1e-08 0 0
1e-08 0 0
1e-08 0 0
0.00086751 0.00746597 -0
1e-08 0 0
1e-08 0 0
1e-08 0 0
1e-08 0 0
1e-08 0 0
1e-08 0 0
1e-08 0 0
1e-08 0 0
1e-08 0 0
1e-08 0 0
-0.000190983 0.00780168 -0
1e-08 0 0
1e-08 0 0
1e-08 0 0
0.00543921 -0.00347504 0
1e-08 0 0
0.00274167 -0.00221603 0
1e-08 0 0
1e-08 0 0
1e-08 0 0
1e-08 0 0
1e-08 0 0
1e-08 0 0
1e-08 0 0
1e-08 0 0
1e-08 0 0
1e-08 0 0
1e-08 0 0
1e-08 0 0
1e-08 0 0
-0.000583841 0.00397395 0
1e-08 0 0
1e-08 0 0
1e-08 0 0
1e-08 0 0
1e-08 0 0
0.00312234 -0.00309184 0
1e-08 0 0
0.00266606 -0.00325787 0
1e-08 0 0
1e-08 0 0
1e-08 0 0
1e-08 0 0
1e-08 0 0
1e-08 0 0
1e-08 0 0
1e-08 0 0
1e-08 0 0
1e-08 0 0
1e-08 0 0
1e-08 0 0
1e-08 0 0
-0.00133756 0.00514619 0
1e-08 0 0
1e-08 0 0
1e-08 0 0
1e-08 0 0
1e-08 0 0
1e-08 0 0
0.00595203 -0.00973549 0
1e-08 0 0
1e-08 0 0
1e-08 0 0
1e-08 0 0
1e-08 0 0
0.00368845 -0.0091402 0
1e-08 0 0
1e-08 0 0
1e-08 0 0
1e-08 0 0
1e-08 0 0
1e-08 0 0
1e-08 0 0
1e-08 0 0
1e-08 0 0
1e-08 0 0
-0.00290008 0.00720328 0
1e-08 0 0
1e-08 0 0
1e-08 0 0
1e-08 0 0
1e-08 0 0
1e-08 0 0
1e-08 0 0
1e-08 0 0
1e-08 0 0
1e-08 0 0
1e-08 0 0
1e-08 0 0
1e-08 0 0
1e-08 0 0
0.00134964 -0.00540804 0
1e-08 0 0
1e-08 0 0
1e-08 0 0
1e-08 0 0
1e-08 0 0
1e-08 0 0
1e-08 0 0
1e-08 0 0
1e-08 0 0
-0.00379854 0.00658602 0
1e-08 0 0
1e-08 0 0
1e-08 0 0
1e-08 0 0
1e-08 0 0
1e-08 0 0
1e-08 0 0
1e-08 0 0
1e-08 0 0
1e-08 0 0
1e-08 0 0
1e-08 0 0
1e-08 0 0
1e-08 0 0
1e-08 0 0
0.000503999 -0.00367308 0
1e-08 0 0
1e-08 0 0
1e-08 0 0
1e-08 0 0
1e-08 0 0
1e-08 0 0
1e-08 0 0
1e-08 0 0
1e-08 0 0
1e-08 0 0
-0.00466193 0.00597618 0
1e-08 0 0
1e-08 0 0
1e-08 0 0
1e-08 0 0
1e-08 0 0
1e-08 0 0
1e-08 0 0
1e-08 0 0
1e-08 0 0
1e-08 0 0
1e-08 0 0
1e-08 0 0
0.000125744 -0.00795067 0
1e-08 0 0
1e-08 0 0
1e-08 0 0
1e-08 0 0
1e-08 0 0
1e-08 0 0
1e-08 0 0
1e-08 0 0
1e-08 0 0
1e-08 0 0
1e-08 0 0
1e-08 0 0
-0.00217126 0.00221053 0
1e-08 0 0
1e-08 0 0
1e-08 0 0
1e-08 0 0
1e-08 0 0
1e-08 0 0
1e-08 0 0
1e-08 0 0
1e-08 0 0
1e-08 0 0
1e-08 0 0
1e-08 0 0
1e-08 0 0
-0.000854877 -0.00693824 0
1e-08 0 0
1e-08 0 0
1e-08 0 0
1e-08 0 0
1e-08 0 0
1e-08 0 0
1e-08 0 0
1e-08 0 0
-0.00471306 0.0038718 0
1e-08 0 0
1e-08 0 0
1e-08 0 0
1e-08 0 0
1e-08 0 0
1e-08 0 0
1e-08 0 0
1e-08 0 0
1e-08 0 0
1e-08 0 0
1e-08 0 0
-0.00163361 -0.00628519 0
1e-08 0 0
1e-08 0 0
1e-08 0 0
1e-08 0 0
1e-08 0 0
1e-08 0 0
1e-08 0 0
-0.00908005 0.00547483 0
1e-08 0 0
1e-08 0 0
1e-08 0 0
1e-08 0 0
1e-08 0 0
1e-08 0 0
1e-08 0 0
1e-08 0 0
1e-08 0 0
1e-08 0 0
1e-08 0 0
-0.00297609 -0.00724517 0
1e-08 0 0
1e-08 0 0
1e-08 0 0
1e-08 0 0
1e-08 0 0
-0.00752649 0.00307785 0
1e-08 0 0
1e-08 0 0
1e-08 0 0
1e-08 0 0
1e-08 0 0
1e-08 0 0
1e-08 0 0
1e-08 0 0
-0.00523485 -0.00871327 0
1e-08 0 0
1e-08 0 0
1e-08 0 0
1e-08 0 0
-0.00631162 0.00161984 0
1e-08 0 0
1e-08 0 0
1e-08 0 0
1e-08 0 0
1e-08 0 0
1e-08 0 0
-0.00361186 -0.00444414 0
1e-08 0 0
1e-08 0 0
1e-08 0 0
-0.00724943 0.000860393 0
1e-08 0 0
1e-08 0 0
1e-08 0 0
1e-08 0 0
1e-08 0 0
1e-08 0 0
-0.00245111 -0.00243056 0
1e-08 0 0
1e-08 0 0
-0.0084852 -0.000201592 0
1e-08 0 0
1e-08 0 0
1e-08 0 0
1e-08 0 0
-0.0061501 -0.00481039 0
1e-08 0 0
-0.00335206 -0.000487542 0
1e-08 0 0
1e-08 0 0
-0.00664073 -0.00382972 0
-0.00549636 -0.00140684 0
-0.00735047 -0.00295102 0
