# vtk DataFile Version 2.0
CellBP Time: 8.8
ASCII
DATASET UNSTRUCTURED_GRID
POINTS 296 double
-8.93926 -3.66097 0
-8.38234 -4.81269 0
-9.33016 -2.4396 0
-9.60598 -1.21138 0
-8.09735 -2.70616 0
-7.66581 -5.8773 0
-6.81761 -6.84046 0
-7.65602 -3.73151 0
-7.0984 -4.70482 0
-5.89378 -7.70827 0
-4.86549 -8.43965 0
-9.71475 0.0382351 0
-9.65854 1.31356 0
-8.41629 -1.6161 0
-8.57174 -0.501 0
-7.34131 -1.91357 0
-6.96867 -2.78142 0
-6.44184 -5.61857 0
-5.67201 -6.44768 0
-6.54446 -3.74085 0
-6.00931 -4.52685 0
-3.71591 -9.00341 0
-2.4881 -9.4032 0
-4.80093 -7.15399 0
-3.85141 -7.74422 0
-8.58724 0.631181 0
-9.43949 2.59092 0
-8.44159 1.72383 0
-9.02956 3.80651 0
-7.51821 -0.881936 0
-7.58223 0.0889166 0
-6.73517 -1.25325 0
-1.21661 -9.64081 0
-6.23789 -2.06696 0
-6.10873 -2.94206 0
-5.36745 -5.32729 0
-4.66802 -5.97065 0
-5.47327 -3.6349 0
-5.09696 -4.42622 0
-2.81749 -8.20371 0
-1.74753 -8.46006 0
-3.84555 -6.58422 0
-3.01032 -7.02149 0
0.0553642 -9.70065 0
-7.51197 1.11671 0
-8.18618 2.86215 0
-7.37137 2.04942 0
-8.41642 4.92677 0
-7.70626 3.87715 0
-7.65983 5.96348 0
-6.58088 -0.36895 0
-6.76152 0.549329 0
-5.61668 -0.970505 0
-0.575214 -8.60968 0
0.547783 -8.54388 0
-5.15706 -2.40023 0
-4.3487 -4.96121 0
-3.79694 -5.64334 0
-4.31844 -3.70594 0
-2.02453 -7.41335 0
-1.11608 -7.62138 0
-2.92725 -5.97218 0
-2.27253 -6.49093 0
1.31058 -9.58269 0
-6.51735 1.38304 0
-6.98957 3.02958 0
-6.49254 2.30623 0
-7.11042 4.84699 0
-6.54713 3.88897 0
-6.81745 6.91044 0
-6.40203 5.73003 0
-5.87339 7.76661 0
-4.36838 -1.15937 0
-5.67959 0.494689 0
-4.57289 -0.0247086 0
-0.0101232 -7.65011 0
1.67646 -8.39304 0
0.902027 -7.54705 0
-3.96132 -2.354 0
-3.45517 -1.37963 0
-3.2203 -4.69871 0
-3.21459 -3.20426 0
-1.36245 -6.52875 0
-0.521332 -6.85442 0
-1.94527 -5.43071 0
2.55956 -9.33534 0
-5.3809 1.99206 0
-5.94268 2.98411 0
-5.94837 4.72516 0
-5.61446 3.87134 0
-5.60314 6.5257 0
-5.30802 5.45213 0
-4.84442 8.51827 0
-4.70263 7.1866 0
-3.46177 -0.420818 0
-4.36136 1.22367 0
-3.65326 0.583781 0
-3.9804 2.29363 0
-3.7069 9.08692 0
2.75636 -8.05839 0
0.371448 -6.60576 0
1.93518 -7.28748 0
1.23044 -6.69374 0
-2.42609 -0.863387 0
-2.81362 -2.10587 0
-2.2617 -4.02344 0
-2.29863 -2.92496 0
-0.456234 -5.71968 0
-1.20203 -4.42538 0
3.77091 -8.94233 0
-4.67781 3.30887 0
-4.9563 4.45635 0
-4.51911 6.08733 0
-4.41672 5.19828 0
-3.7523 7.79006 0
-3.71351 6.62867 0
-2.71293 8.1944 0
-1.63427 -0.12807 0
-1.43629 -0.878984 0
-2.47117 0.516917 0
-3.20455 1.4362 0
-3.17505 3.25532 0
-2.86458 2.35912 0
-1.35026 0.638754 0
-2.48618 9.47233 0
3.79549 -7.62793 0
2.83329 -6.89647 0
0.899176 -5.65604 0
1.97285 -6.20139 0
-1.66673 -1.97419 0
-1.41282 -3.23004 0
0.0786759 -4.64808 0
-0.549919 -3.64539 0
4.77298 -7.0754 0
4.91392 -8.38535 0
-3.68526 4.43698 0
-3.63445 5.58384 0
-2.79844 7.07222 0
-2.92838 6.17023 0
-1.62189 8.51071 0
-1.88029 7.41406 0
-2.2975 3.97572 0
-0.722493 -1.31673 0
-0.830032 -0.245186 0
-1.92969 1.68977 0
-2.10201 2.85382 0
-1.29808 3.50659 0
-0.872451 1.36388 0
-0.28381 0.467936 0
-0.521091 8.66539 0
-1.22548 9.70817 0
1.07058 -4.45801 0
3.75011 -6.44732 0
2.86425 -5.87351 0
2.0334 -5.25191 0
4.62807 -5.97466 0
-0.547781 -2.45667 0
0.487885 -3.40836 0
0.056986 -1.60352 0
1.43893 -3.59705 0
5.69363 -6.39816 0
5.97663 -7.67066 0
-2.41587 5.21607 0
-2.06373 6.3572 0
-0.874188 7.61554 0
-1.22443 6.75312 0
0.0933366 7.70637 0
-1.12558 4.41647 0
0.149007 -0.610515 0
-0.807641 2.49449 0
-0.346885 3.57375 0
0.0547491 1.52125 0
0.734129 0.476859 0
0.637175 8.69384 0
0.0420695 9.81823 0
2.30806 -4.15744 0
3.727 -5.42781 0
2.89582 -5.03372 0
5.42242 -5.3073 0
4.54613 -5.08364 0
0.632028 -2.283 0
1.23766 -2.90257 0
0.755994 -1.38537 0
2.11695 -3.06582 0
2.9253 -3.38139 0
6.01208 -4.6527 0
6.4906 -5.60845 0
6.93155 -6.81277 0
-0.985796 5.68943 0
-0.346734 6.71941 0
1.10215 7.61467 0
0.55916 6.93061 0
-0.00330855 4.6521 0
0.58835 3.78444 0
1.32931 -0.638347 0
0.520693 2.63817 0
0.948617 1.57696 0
1.89488 0.210299 0
1.59287 1.06345 0
2.09885 7.44667 0
1.77014 8.54372 0
1.32373 9.74696 0
3.71432 -4.20743 0
4.98325 -4.28668 0
5.7137 -3.81204 0
3.70114 -3.11113 0
1.79758 -1.87636 0
2.96413 -2.52622 0
6.64734 -3.84608 0
7.22972 -4.77927 0
7.79638 -5.88103 0
0.485025 5.76396 0
1.41095 6.61455 0
2.33658 6.55367 0
1.18605 4.48806 0
1.46452 3.35645 0
2.40861 -0.687106 0
2.7962 0.141118 0
1.76709 2.14824 0
2.58435 1.13992 0
3.0264 7.04028 0
2.85828 8.22377 0
2.59145 9.50299 0
4.79975 -3.22421 0
5.99578 -3.02107 0
4.09961 -2.23082 0
3.19939 -1.48494 0
6.61411 -2.27183 0
7.10675 -2.989 0
7.81766 -3.84487 0
8.53269 -4.85518 0
1.99485 5.50277 0
3.01314 6.03153 0
2.33507 4.06173 0
2.38951 3.0196 0
3.47695 -0.451318 0
3.57217 0.61628 0
2.92177 2.25942 0
3.48867 1.5063 0
3.90362 5.77747 0
3.89782 6.65807 0
3.9123 7.79432 0
3.81571 9.09806 0
5.47353 -1.87727 0
4.43886 -1.11078 0
6.58955 -1.30974 0
7.45588 -1.99389 0
8.24042 -2.81305 0
9.10094 -3.71131 0
3.3267 4.77465 0
3.2688 3.32466 0
4.61499 0.134931 0
4.42462 1.2819 0
3.96774 2.39046 0
4.42283 5.02638 0
4.71634 6.04976 0
4.87223 7.22851 0
4.96005 8.52977 0
5.76674 -0.433823 0
6.85683 -0.488449 0
7.61075 -1.06124 0
8.51768 -1.71464 0
9.50299 -2.48462 0
4.41569 3.73089 0
5.67034 1.05204 0
5.20793 2.45634 0
5.19479 4.48971 0
5.44146 5.37869 0
5.74373 6.51423 0
5.98671 7.79651 0
6.67379 0.429039 0
7.67434 -0.0295032 0
8.6794 -0.566406 0
9.74337 -1.21428 0
6.76708 1.28492 0
5.52547 3.65831 0
6.33925 2.10652 0
6.16406 2.97493 0
6.07718 4.54176 0
6.49391 5.67997 0
6.92483 6.93887 0
7.58542 0.931847 0
8.65119 0.55927 0
9.80806 0.0631479 0
7.39352 1.92755 0
6.57293 3.75706 0
7.02437 2.83539 0
7.15015 4.73718 0
7.78355 5.98621 0
8.48571 1.6794 0
9.68742 1.31782 0
8.15655 2.74384 0
7.74241 3.79541 0
8.49837 4.92545 0
9.44591 2.56938 0
9.05505 3.7815 0
CELLS 542 2168
3 2 0 4
3 0 1 7
3 4 0 7
3 1 5 8
3 7 1 8
3 3 2 13
3 13 2 4
3 11 3 14
3 14 3 13
3 13 4 15
3 4 7 16
3 15 4 16
3 5 6 17
3 8 5 17
3 6 9 18
3 17 6 18
3 7 8 19
3 16 7 19
3 8 17 20
3 19 8 20
3 9 10 23
3 18 9 23
3 10 21 24
3 23 10 24
3 12 11 25
3 25 11 14
3 26 12 27
3 27 12 25
3 14 13 29
3 29 13 15
3 25 14 30
3 30 14 29
3 29 15 31
3 15 16 33
3 31 15 33
3 16 19 34
3 33 16 34
3 17 18 35
3 20 17 35
3 18 23 36
3 35 18 36
3 19 20 37
3 34 19 37
3 20 35 38
3 37 20 38
3 21 22 39
3 24 21 39
3 22 32 40
3 39 22 40
3 23 24 41
3 36 23 41
3 24 39 42
3 41 24 42
3 27 25 44
3 44 25 30
3 28 26 45
3 45 26 27
3 45 27 46
3 46 27 44
3 47 28 48
3 48 28 45
3 30 29 50
3 50 29 31
3 44 30 51
3 51 30 50
3 50 31 52
3 31 33 52
3 32 43 53
3 40 32 53
3 53 43 54
3 33 34 55
3 34 37 55
3 33 55 52
3 35 36 56
3 38 35 56
3 36 41 57
3 56 36 57
3 37 38 58
3 38 56 58
3 37 58 55
3 39 40 59
3 42 39 59
3 40 53 60
3 59 40 60
3 41 42 61
3 57 41 61
3 42 59 62
3 61 42 62
3 43 63 54
3 46 44 64
3 64 44 51
3 48 45 65
3 65 45 46
3 65 46 66
3 66 46 64
3 49 47 67
3 67 47 48
3 67 48 68
3 68 48 65
3 69 49 70
3 70 49 67
3 52 55 72
3 64 51 73
3 51 50 73
3 50 52 73
3 73 52 74
3 74 52 72
3 53 54 75
3 60 53 75
3 54 63 76
3 54 76 77
3 75 54 77
3 55 58 78
3 72 55 78
3 72 78 79
3 56 57 80
3 57 61 80
3 56 80 58
3 58 80 81
3 78 58 81
3 59 60 82
3 62 59 82
3 60 75 83
3 82 60 83
3 61 62 84
3 62 82 84
3 61 84 80
3 63 85 76
3 66 64 86
3 64 73 86
3 68 65 87
3 87 65 66
3 87 66 86
3 70 67 88
3 88 67 68
3 88 68 89
3 89 68 87
3 71 69 90
3 90 69 70
3 90 70 91
3 91 70 88
3 92 71 93
3 93 71 90
3 74 72 94
3 94 72 79
3 86 73 95
3 95 73 74
3 95 74 96
3 96 74 94
3 97 86 95
3 76 85 99
3 75 77 100
3 83 75 100
3 76 99 101
3 77 76 101
3 77 101 102
3 100 77 102
3 94 79 103
3 78 81 104
3 79 78 104
3 79 104 103
3 80 84 105
3 81 80 105
3 81 105 106
3 104 81 106
3 82 83 107
3 83 100 107
3 82 107 84
3 84 107 108
3 105 84 108
3 85 109 99
3 89 87 110
3 87 86 110
3 110 86 97
3 91 88 111
3 111 88 89
3 111 89 110
3 93 90 112
3 112 90 91
3 112 91 113
3 113 91 111
3 98 92 114
3 114 92 93
3 114 93 115
3 115 93 112
3 116 98 114
3 117 103 118
3 96 94 119
3 94 103 119
3 119 103 117
3 97 95 120
3 120 95 96
3 120 96 119
3 121 110 97
3 121 97 122
3 122 97 120
3 123 119 117
3 124 98 116
3 99 109 125
3 99 125 126
3 101 99 126
3 100 102 127
3 100 127 107
3 101 126 128
3 102 101 128
3 102 128 127
3 104 106 129
3 104 129 103
3 103 129 118
3 105 108 130
3 106 105 130
3 106 130 129
3 107 127 131
3 108 107 131
3 108 131 132
3 108 132 130
3 109 134 125
3 125 134 133
3 113 111 135
3 111 110 135
3 135 110 121
3 115 112 136
3 136 112 113
3 136 113 135
3 116 114 137
3 137 114 115
3 137 115 138
3 138 115 136
3 139 124 116
3 139 116 140
3 140 116 137
3 141 135 121
3 118 129 142
3 118 142 143
3 117 118 143
3 123 117 143
3 122 120 144
3 120 119 144
3 144 119 123
3 141 121 145
3 145 121 122
3 145 122 144
3 146 141 145
3 147 144 123
3 147 123 148
3 143 148 123
3 150 124 139
3 149 150 139
3 131 127 151
3 125 133 152
3 126 125 152
3 126 152 153
3 128 126 153
3 128 153 154
3 128 154 127
3 127 154 151
3 152 133 155
3 130 132 156
3 130 156 129
3 129 156 142
3 131 151 157
3 132 131 157
3 132 157 156
3 156 158 142
3 157 151 159
3 133 160 155
3 134 161 133
3 133 161 160
3 138 136 162
3 136 135 162
3 162 135 141
3 140 137 163
3 163 137 138
3 163 138 162
3 149 139 164
3 164 139 140
3 164 140 165
3 165 140 163
3 166 149 164
3 167 162 141
3 167 141 146
3 142 158 168
3 143 142 168
3 143 168 148
3 146 145 169
3 145 144 169
3 169 144 147
3 170 167 146
3 170 146 169
3 171 169 147
3 171 147 148
3 171 148 172
3 168 172 148
3 173 149 166
3 174 150 149
3 173 174 149
3 154 175 151
3 151 175 159
3 152 155 176
3 153 152 176
3 153 176 177
3 153 177 154
3 154 177 175
3 155 160 178
3 155 178 179
3 176 155 179
3 156 157 180
3 156 180 158
3 157 159 181
3 157 181 180
3 158 180 182
3 158 182 168
3 159 175 183
3 159 183 181
3 175 184 183
3 160 186 178
3 178 186 185
3 161 187 160
3 160 187 186
3 165 163 188
3 163 162 188
3 188 162 167
3 166 164 189
3 189 164 165
3 189 165 188
3 190 173 166
3 190 166 191
3 191 166 189
3 192 188 167
3 192 167 170
3 193 192 170
3 182 194 168
3 194 172 168
3 193 170 195
3 170 169 195
3 195 169 171
3 196 195 171
3 196 171 172
3 194 197 172
3 197 198 172
3 198 196 172
3 200 173 190
3 199 200 190
3 201 174 173
3 200 201 173
3 176 179 202
3 177 176 202
3 177 202 175
3 175 202 184
3 178 185 203
3 178 203 179
3 179 203 202
3 203 185 204
3 202 205 184
3 183 206 181
3 180 181 206
3 180 206 182
3 182 206 194
3 183 184 207
3 205 207 184
3 183 207 206
3 185 208 204
3 186 209 185
3 185 209 208
3 187 210 186
3 186 210 209
3 191 189 211
3 189 188 211
3 211 188 192
3 199 190 212
3 212 190 191
3 212 191 211
3 213 199 212
3 214 211 192
3 214 192 193
3 215 214 193
3 215 193 195
3 206 216 194
3 216 197 194
3 216 217 197
3 215 195 218
3 218 195 196
3 198 218 196
3 217 219 197
3 219 218 198
3 197 219 198
3 220 199 213
3 221 200 199
3 220 221 199
3 222 201 200
3 221 222 200
3 203 204 223
3 203 223 202
3 202 223 205
3 204 208 224
3 204 224 223
3 205 223 225
3 205 225 207
3 207 225 226
3 207 226 206
3 226 216 206
3 208 228 224
3 224 228 227
3 209 229 208
3 229 228 208
3 210 230 209
3 209 230 229
3 213 212 231
3 212 211 231
3 231 211 214
3 232 220 213
3 232 213 231
3 233 231 214
3 233 214 215
3 234 233 215
3 234 215 218
3 226 235 216
3 235 217 216
3 235 236 217
3 217 236 219
3 237 234 218
3 237 218 219
3 236 238 219
3 238 237 219
3 240 220 232
3 239 240 232
3 241 221 220
3 240 241 220
3 242 222 221
3 241 242 221
3 224 227 243
3 224 243 223
3 223 243 225
3 225 243 244
3 225 244 226
3 226 244 235
3 227 245 243
3 228 246 227
3 227 246 245
3 229 247 228
3 228 247 246
3 230 248 229
3 229 248 247
3 239 232 249
3 232 231 249
3 249 231 233
3 250 249 233
3 250 233 234
3 237 250 234
3 244 251 235
3 235 251 236
3 251 252 236
3 236 252 238
3 252 253 238
3 253 250 237
3 253 237 238
3 254 239 249
3 255 240 239
3 254 255 239
3 256 241 240
3 255 256 240
3 257 242 241
3 256 257 241
3 245 258 243
3 243 258 244
3 244 258 251
3 245 259 258
3 246 260 245
3 245 260 259
3 247 261 246
3 246 261 260
3 248 262 247
3 247 262 261
3 254 249 263
3 263 249 250
3 253 263 250
3 258 264 251
3 251 264 252
3 264 265 252
3 265 263 253
3 252 265 253
3 266 254 263
3 267 255 254
3 266 267 254
3 268 256 255
3 267 268 255
3 269 257 256
3 268 269 256
3 259 270 258
3 270 264 258
3 260 271 259
3 259 271 270
3 261 272 260
3 260 272 271
3 262 273 261
3 273 272 261
3 270 274 264
3 275 266 263
3 275 263 265
3 274 276 264
3 276 265 264
3 276 277 265
3 277 275 265
3 278 267 266
3 275 278 266
3 279 268 267
3 278 279 267
3 280 269 268
3 279 280 268
3 271 281 270
3 270 281 274
3 272 282 271
3 271 282 281
3 273 283 272
3 272 283 282
3 281 284 274
3 274 284 276
3 285 278 275
3 277 285 275
3 284 286 276
3 286 285 277
3 276 286 277
3 287 279 278
3 285 287 278
3 288 280 279
3 287 288 279
3 282 289 281
3 281 289 284
3 283 290 282
3 282 290 289
3 289 291 284
3 284 291 286
3 291 292 286
3 292 287 285
3 286 292 285
3 293 288 287
3 292 293 287
3 290 294 289
3 289 294 291
3 294 295 291
3 295 293 292
3 291 295 292
CELL_TYPES 542
5
5
5
5
5
5
5
5
5
5
5
5
5
5
5
5
5
5
5
5
5
5
5
5
5
5
5
5
5
5
5
5
5
5
5
5
5
5
5
5
5
5
5
5
5
5
5
5
5
5
5
5
5
5
5
5
5
5
5
5
5
5
5
5
5
5
5
5
5
5
5
5
5
5
5
5
5
5
5
5
5
5
5
5
5
5
5
5
5
5
5
5
5
5
5
5
5
5
5
5
5
5
5
5
5
5
5
5
5
5
5
5
5
5
5
5
5
5
5
5
5
5
5
5
5
5
5
5
5
5
5
5
5
5
5
5
5
5
5
5
5
5
5
5
5
5
5
5
5
5
5
5
5
5
5
5
5
5
5
5
5
5
5
5
5
5
5
5
5
5
5
5
5
5
5
5
5
5
5
5
5
5
5
5
5
5
5
5
5
5
5
5
5
5
5
5
5
5
5
5
5
5
5
5
5
5
5
5
5
5
5
5
5
5
5
5
5
5
5
5
5
5
5
5
5
5
5
5
5
5
5
5
5
5
5
5
5
5
5
5
5
5
5
5
5
5
5
5
5
5
5
5
5
5
5
5
5
5
5
5
5
5
5
5
5
5
5
5
5
5
5
5
5
5
5
5
5
5
5
5
5
5
5
5
5
5
5
5
5
5
5
5
5
5
5
5
5
5
5
5
5
5
5
5
5
5
5
5
5
5
5
5
5
5
5
5
5
5
5
5
5
5
5
5
5
5
5
5
5
5
5
5
5
5
5
5
5
5
5
5
5
5
5
5
5
5
5
5
5
5
5
5
5
5
5
5
5
5
5
5
5
5
5
5
5
5
5
5
5
5
5
5
5
5
5
5
5
5
5
5
5
5
5
5
5
5
5
5
5
5
5
5
5
5
5
5
5
5
5
5
5
5
5
5
5
5
5
5
5
5
5
5
5
5
5
5
5
5
5
5
5
5
5
5
5
5
5
5
5
5
5
5
5
5
5
5
5
5
5
5
5
5
5
5
5
5
5
5
5
5
5
5
5
5
5
5
5
5
5
5
5
5
5
5
5
5
5
5
5
5
5
5
5
5
5
5
5
5
5
5
5
5
5
5
5
5
5
5
5
5
5
5
5
5
5
5
5
5
5
5
5
5
5
5
5
5
5
5
5
5
5
5
5
5
5
5
5
5
5
5
5
5
5
5
5
5
5
5
5
5
5
5
5
5
5
5
5
5
5
5
5
5
POINT_DATA 296
SCALARS concentrations float 4
LOOKUP_TABLE default
0 0.952288 0.115825 8.9931
0 0.952238 0.114447 10.253
0 0.952324 0.116975 11.6274
0 0.952348 0.118484 11.007
0 0.952296 0.0934293 7.55664
0 0.952209 0.1178 13.4487
0 0.952258 0.11878 12.9492
0 0.952272 0.0935523 7.365
0 0.952237 0.0946858 7.71503
0 0.952302 0.11928 9.63181
0 0.952312 0.117704 12.7644
0 0.952305 0.117007 8.07064
0 0.952279 0.113961 10.6666
0 0.952322 0.0929304 6.88762
0 0.952314 0.0921537 6.95062
0 0.952288 0.0935208 6.78893
0 0.952283 0.0945992 6.73581
0 0.952237 0.0942296 6.45032
0 0.952277 0.0926829 6.71531
0 0.952278 0.0936456 7.42741
0 0.952264 0.0933205 7.47137
0 0.952279 0.117304 9.4555
0 0.952274 0.119622 13.2301
0 0.952292 0.0926158 6.69844
0 0.952289 0.0932068 7.5788
0 0.952292 0.0928408 7.51701
0 0.952299 0.118529 10.477
0 0.952289 0.0932355 6.87042
0 0.952296 0.11642 10.6133
0 0.952293 0.0928738 7.17002
0 0.952293 0.0932744 7.27492
0 0.952282 0.0928163 7.103
0 0.952243 0.11808 12.9978
0 0.952284 0.0928113 7.0369
0 0.952287 0.0933108 7.09692
0 0.952262 0.0931827 6.77802
0 0.952268 0.0929971 6.67511
0 0.952279 0.0928528 7.28441
0 0.95227 0.09324 7.54613
0 0.952265 0.0931694 7.62353
0 0.952262 0.093026 6.51588
0 0.952273 0.0932138 6.6398
0 0.952269 0.0945489 7.93172
0 0.952245 0.118123 9.58287
0 0.952293 0.0936782 6.44107
0 0.952299 0.0947604 5.85914
0 0.952291 0.0947874 8.39672
0 0.952262 0.115252 10.2523
0 0.952278 0.0931518 7.69911
0 0.952238 0.117459 13.6021
0 0.952284 0.0924872 7.68591
0 0.952289 0.0927873 7.80488
0 0.952286 0.0929442 7.80722
0 0.952242 0.0930002 6.61483
0 0.952264 0.0930518 6.35018
0 0.952285 0.0938081 7.14041
0 0.952269 0.0937512 7.65524
0 0.952269 0.0937741 7.23099
0 0.952278 0.0930173 7.32793
0 0.952258 0.0934931 7.6598
0 0.952257 0.0935286 7.48126
0 0.952269 0.0936559 6.81834
0 0.952263 0.0934518 6.66881
0 0.952268 0.115299 11.1702
0 0.952285 0.0941569 8.22952
0 0.952285 0.0940356 6.71488
0 0.952282 0.0960493 8.71794
0 0.952259 0.0930041 7.57264
0 0.952276 0.0937052 7.64449
0 0.952216 0.115382 12.8784
0 0.952235 0.092497 7.34069
0 0.952272 0.117752 13.9755
0 0.952286 0.0997442 8.21807
0 0.952282 0.0928641 8.34425
0 0.952282 0.0948773 8.6824
0 0.952258 0.0937239 6.12161
0 0.952273 0.0932917 6.15198
0 0.952269 0.0935989 6.18978
0 0.952285 0.0940639 7.06866
0 0.952283 0.0982735 7.74786
0 0.952273 0.0936733 6.67757
0 0.952287 0.0942037 7.52332
0 0.952269 0.0959201 6.49138
0 0.952266 0.094298 6.32662
0 0.952273 0.0948836 7.26655
0 0.95228 0.116046 7.26817
0 0.95228 0.0930838 7.23767
0 0.952279 0.0948876 5.91829
0 0.952266 0.0928529 6.65287
0 0.952278 0.0931701 6.74073
0 0.952251 0.0932818 7.34946
0 0.952264 0.0926736 6.72386
0 0.952276 0.114179 15.022
0 0.952274 0.0963845 6.23187
0 0.952286 0.0990662 9.09104
0 0.952281 0.0942989 5.50146
0 0.952288 0.095069 5.86673
0 0.952279 0.0961238 6.05475
0 0.952259 0.115562 8.27342
0 0.95228 0.093975 8.04591
0 0.95227 0.0941792 6.50838
0 0.952278 0.0943416 8.3122
0 0.952276 0.094079 6.15956
0 0.952279 0.0951885 7.84662
0 0.952284 0.0996366 6.76776
0 0.952282 0.0977098 6.37816
0 0.952287 0.0943971 6.64928
0 0.952277 0.0939684 6.39997
0 0.95228 0.095328 6.54583
0 0.952267 0.116257 12.7615
0 0.95228 0.0931953 7.54458
0 0.952275 0.0928404 7.59697
0 0.952268 0.0961377 7.33025
0 0.952276 0.0941521 6.66819
0 0.952269 0.0959104 6.41249
0 0.952266 0.0954065 7.48153
0 0.952264 0.0961349 6.30238
0 0.952282 0.0946058 8.36932
0 0.952289 0.0948103 8.12485
0 0.952281 0.102492 7.38567
0 0.952289 0.0940479 7.03512
0 0.952286 0.095534 6.13571
0 0.952284 0.0958204 8.90633
0 0.952276 0.0990392 8.52264
0 0.952263 0.115187 9.40642
0 0.952265 0.0938971 8.12404
0 0.952277 0.0944746 5.73956
0 0.952278 0.0942737 8.02334
0 0.952277 0.0942593 7.89674
0 0.952284 0.0939794 7.50995
0 0.952286 0.094287 7.89356
0 0.952279 0.0939475 7.49984
0 0.952284 0.0964578 7.0743
0 0.952262 0.0941932 8.26429
0 0.952254 0.115579 12.1549
0 0.952288 0.0943546 6.49418
0 0.952273 0.0958377 7.95395
0 0.952278 0.0956426 5.75334
0 0.952274 0.0989966 8.8373
0 0.952269 0.0945408 7.55312
0 0.952277 0.0953709 7.80428
0 0.952286 0.0980715 7.36582
0 0.952293 0.0958297 8.08838
0 0.9523 0.0954555 6.2588
0 0.952282 0.0970447 8.56036
0 0.95229 0.0961503 5.80073
0 0.952271 0.0964225 8.76084
0 0.952287 0.09812 6.46119
0 0.952297 0.0933153 7.46455
0 0.952241 0.0946511 7.75535
0 0.952252 0.117732 15.0532
0 0.952269 0.0960894 8.20661
0 0.952273 0.0951621 5.60216
0 0.952272 0.0934025 6.8509
0 0.952271 0.0941179 7.89214
0 0.952273 0.0937179 6.46633
0 0.952283 0.0964428 6.47427
0 0.952261 0.100712 4.59102
0 0.952304 0.096228 6.00404
0 0.952258 0.0969899 6.79482
0 0.952256 0.093529 6.32832
0 0.952243 0.117043 9.53305
0 0.952282 0.0978808 5.44549
0 0.95229 0.0971282 7.80092
0 0.952265 0.0948484 7.36512
0 0.952287 0.101312 4.21775
0 0.952246 0.0957535 8.04743
0 0.952273 0.0955864 7.10937
0 0.95229 0.0952084 7.73561
0 0.952289 0.0989013 8.7595
0 0.95228 0.0948 7.10398
0 0.952309 0.100033 5.12967
0 0.952294 0.094158 7.95881
0 0.952236 0.0950647 7.85699
0 0.95222 0.117702 14.1062
0 0.952263 0.096526 5.75098
0 0.952278 0.0940293 6.74508
0 0.952267 0.0955541 5.53036
0 0.952286 0.0939009 7.53624
0 0.952284 0.0941126 6.8555
0 0.952283 0.102069 6.8209
0 0.95226 0.100538 8.20914
0 0.952306 0.0996946 4.83267
0 0.952275 0.0964431 5.76649
0 0.952269 0.094849 7.61854
0 0.952298 0.0943261 7.86676
0 0.952286 0.0936334 7.38254
0 0.952251 0.114465 12.2474
0 0.952284 0.0947266 7.29334
0 0.952267 0.0968913 8.05281
0 0.952251 0.0949359 7.63036
0 0.952249 0.095325 6.68866
0 0.952285 0.0940969 7.12678
0 0.952297 0.0949876 7.04324
0 0.952284 0.0966945 8.66372
0 0.952301 0.0966948 5.44304
0 0.952302 0.0948835 7.1445
0 0.952293 0.0958339 7.35132
0 0.952288 0.096219 6.72885
0 0.952279 0.0964225 8.54216
0 0.95229 0.0937739 6.62897
0 0.952259 0.119481 12.0656
0 0.952274 0.0942395 5.83096
0 0.952289 0.0940333 6.8882
0 0.95229 0.0946179 7.1811
0 0.952272 0.0954775 7.91002
0 0.952284 0.0965123 7.63166
0 0.952282 0.0971203 5.73797
0 0.952292 0.09425 7.25012
0 0.95232 0.0933044 6.27862
0 0.952303 0.116792 5.20456
0 0.952279 0.0958558 6.67862
0 0.952267 0.0962545 6.40981
0 0.952281 0.0974845 5.06461
0 0.952295 0.0943853 6.77445
0 0.952304 0.0946827 6.8229
0 0.952276 0.0949317 6.98222
0 0.952287 0.0947872 7.99393
0 0.952297 0.0958911 7.5566
0 0.95229 0.102007 9.59324
0 0.952289 0.0941607 7.44986
0 0.952333 0.0936477 6.66001
0 0.952354 0.118646 9.37925
0 0.952281 0.0961349 6.47135
0 0.952274 0.0939272 7.21934
0 0.952286 0.0957239 6.86413
0 0.952278 0.0950387 6.60288
0 0.952272 0.100571 6.1283
0 0.952269 0.0941021 6.88178
0 0.952296 0.0937947 6.96654
0 0.952335 0.117341 8.06808
0 0.952282 0.0949878 6.70581
0 0.952275 0.09702 9.19069
0 0.952292 0.0960361 7.9453
0 0.952296 0.094485 7.22375
0 0.952275 0.0981053 5.60479
0 0.952286 0.0950206 7.00048
0 0.952288 0.0948897 7.25243
0 0.952292 0.100842 6.638
0 0.952269 0.0940194 7.72773
0 0.952272 0.093814 6.2841
0 0.95228 0.0934602 6.6692
0 0.952332 0.116165 11.3219
0 0.952277 0.0961551 7.00074
0 0.952285 0.0959726 6.9596
0 0.952272 0.0938474 7.13815
0 0.952269 0.0943517 7.16492
0 0.952255 0.0940378 7.08594
0 0.952271 0.117278 14.6797
0 0.952277 0.0943728 7.67124
0 0.952284 0.0939213 6.96137
0 0.952278 0.0945446 7.23265
0 0.952281 0.0944725 6.80207
0 0.952277 0.0950578 6.76507
0 0.952269 0.0935714 7.53392
0 0.952266 0.0931841 6.81197
0 0.95227 0.0931567 6.61183
0 0.952256 0.116003 9.18365
0 0.952272 0.0942276 7.02529
0 0.95227 0.0975431 8.03129
0 0.952271 0.0951955 7.54299
0 0.952271 0.0930749 7.17452
0 0.952266 0.117931 13.8192
0 0.952275 0.0949352 7.57512
0 0.952275 0.0943196 7.04217
0 0.952273 0.0932668 7.42309
0 0.952269 0.0951589 8.16701
0 0.952261 0.0941969 6.62028
0 0.952281 0.0938188 6.78601
0 0.952288 0.118155 11.2542
0 0.952275 0.0946406 6.97408
0 0.952275 0.0937842 6.99542
0 0.952271 0.0938961 7.26883
0 0.95228 0.117695 8.05458
0 0.952277 0.0948866 6.64467
0 0.952278 0.0946112 7.40578
0 0.952278 0.0941305 6.67631
0 0.95228 0.0935139 7.30315
0 0.952268 0.0935275 6.45945
0 0.952261 0.0933983 6.78441
0 0.952281 0.115589 8.60273
0 0.952273 0.0935775 7.15191
0 0.952243 0.0929355 6.73977
0 0.952245 0.119182 13.553
0 0.952278 0.0937128 7.38602
0 0.952287 0.0948722 6.13701
0 0.95229 0.0935698 7.60841
0 0.952276 0.0947766 6.33228
0 0.952259 0.116577 12.5754
0 0.952259 0.0932118 7.11386
0 0.952225 0.115321 10.236
0 0.9523 0.0933476 7.25104
0 0.952325 0.0929986 7.73335
0 0.952322 0.114569 11.3593
0 0.952278 0.116535 9.78347
0 0.952338 0.116804 7.64748
VECTORS fa_u float
0.00714278 0.00285285 -0
0.00679417 0.00390379 -0
0.00299201 0.000814357 -0
0.0070427 0.00109312 -0
1e-08 0 0
0.00516312 0.00398412 -0
0.00251846 0.00243738 -0
1e-08 0 0
1e-08 0 0
0.00460944 0.00562672 -0
0.00526706 0.00885696 -0
0.00674154 0.000140324 -0
0.00609472 -0.000657202 0
1e-08 0 0
1e-08 0 0
1e-08 0 0
1e-08 0 0
1e-08 0 0
1e-08 0 0
1e-08 0 0
1e-08 0 0
0.00289824 0.00715093 -0
0.00161097 0.00631671 -0
1e-08 0 0
1e-08 0 0
1e-08 0 0
0.00903612 -0.00227984 0
1e-08 0 0
0.0109544 -0.00479789 0
1e-08 0 0
1e-08 0 0
1e-08 0 0
0.000855158 0.00731229 -0
1e-08 0 0
1e-08 0 0
1e-08 0 0
1e-08 0 0
1e-08 0 0
1e-08 0 0
1e-08 0 0
1e-08 0 0
1e-08 0 0
1e-08 0 0
-0.000178903 0.00777866 -0
1e-08 0 0
1e-08 0 0
1e-08 0 0
0.00552367 -0.00350767 0
1e-08 0 0
0.00284114 -0.00229016 0
1e-08 0 0
1e-08 0 0
1e-08 0 0
1e-08 0 0
1e-08 0 0
1e-08 0 0
1e-08 0 0
1e-08 0 0
1e-08 0 0
1e-08 0 0
1e-08 0 0
1e-08 0 0
1e-08 0 0
-0.000589187 0.0040389 0
1e-08 0 0
1e-08 0 0
1e-08 0 0
1e-08 0 0
1e-08 0 0
0.00320125 -0.00317163 0
1e-08 0 0
0.0027637 -0.00339144 0
1e-08 0 0
1e-08 0 0
1e-08 0 0
1e-08 0 0
1e-08 0 0
1e-08 0 0
1e-08 0 0
1e-08 0 0
1e-08 0 0
1e-08 0 0
1e-08 0 0
1e-08 0 0
1e-08 0 0
-0.00137827 0.0052954 0
1e-08 0 0
1e-08 0 0
1e-08 0 0
1e-08 0 0
1e-08 0 0
1e-08 0 0
0.00568978 -0.00933637 0
1e-08 0 0
1e-08 0 0
1e-08 0 0
1e-08 0 0
1e-08 0 0
0.00363807 -0.00899249 0
1e-08 0 0
1e-08 0 0
1e-08 0 0
1e-08 0 0
1e-08 0 0
1e-08 0 0
1e-08 0 0
1e-08 0 0
1e-08 0 0
1e-08 0 0
-0.00285755 0.00708188 0
1e-08 0 0
1e-08 0 0
1e-08 0 0
1e-08 0 0
1e-08 0 0
1e-08 0 0
1e-08 0 0
1e-08 0 0
1e-08 0 0
1e-08 0 0
1e-08 0 0
1e-08 0 0
1e-08 0 0
1e-08 0 0
0.00138087 -0.00551545 0
1e-08 0 0
1e-08 0 0
1e-08 0 0
1e-08 0 0
1e-08 0 0
1e-08 0 0
1e-08 0 0
1e-08 0 0
1e-08 0 0
-0.00374553 0.00649665 0
1e-08 0 0
1e-08 0 0
1e-08 0 0
1e-08 0 0
1e-08 0 0
1e-08 0 0
1e-08 0 0
1e-08 0 0
1e-08 0 0
1e-08 0 0
1e-08 0 0
1e-08 0 0
1e-08 0 0
1e-08 0 0
1e-08 0 0
0.000511901 -0.00374167 0
1e-08 0 0
1e-08 0 0
1e-08 0 0
1e-08 0 0
1e-08 0 0
1e-08 0 0
1e-08 0 0
1e-08 0 0
1e-08 0 0
1e-08 0 0
-0.00467118 0.00599317 0
1e-08 0 0
1e-08 0 0
1e-08 0 0
1e-08 0 0
1e-08 0 0
1e-08 0 0
1e-08 0 0
1e-08 0 0
1e-08 0 0
1e-08 0 0
1e-08 0 0
1e-08 0 0
0.00011978 -0.00787151 0
1e-08 0 0
1e-08 0 0
1e-08 0 0
1e-08 0 0
1e-08 0 0
1e-08 0 0
1e-08 0 0
1e-08 0 0
1e-08 0 0
1e-08 0 0
1e-08 0 0
1e-08 0 0
-0.00225408 0.00229202 0
1e-08 0 0
1e-08 0 0
1e-08 0 0
1e-08 0 0
1e-08 0 0
1e-08 0 0
1e-08 0 0
1e-08 0 0
1e-08 0 0
1e-08 0 0
1e-08 0 0
1e-08 0 0
1e-08 0 0
-0.000860041 -0.00695538 0
1e-08 0 0
1e-08 0 0
1e-08 0 0
1e-08 0 0
1e-08 0 0
1e-08 0 0
1e-08 0 0
1e-08 0 0
-0.00480505 0.00393012 0
1e-08 0 0
1e-08 0 0
1e-08 0 0
1e-08 0 0
1e-08 0 0
1e-08 0 0
1e-08 0 0
1e-08 0 0
1e-08 0 0
1e-08 0 0
1e-08 0 0
-0.00162708 -0.00624846 0
1e-08 0 0
1e-08 0 0
1e-08 0 0
1e-08 0 0
1e-08 0 0
1e-08 0 0
1e-08 0 0
-0.00875101 0.00526158 0
1e-08 0 0
1e-08 0 0
1e-08 0 0
1e-08 0 0
1e-08 0 0
1e-08 0 0
1e-08 0 0
1e-08 0 0
1e-08 0 0
1e-08 0 0
1e-08 0 0
-0.00295175 -0.00718392 0
1e-08 0 0
1e-08 0 0
1e-08 0 0
1e-08 0 0
1e-08 0 0
-0.00747528 0.00305972 0
1e-08 0 0
1e-08 0 0
1e-08 0 0
1e-08 0 0
1e-08 0 0
1e-08 0 0
1e-08 0 0
1e-08 0 0
-0.00511045 -0.00852425 0
1e-08 0 0
1e-08 0 0
1e-08 0 0
1e-08 0 0
-0.00628358 0.00161665 0
1e-08 0 0
1e-08 0 0
1e-08 0 0
1e-08 0 0
1e-08 0 0
1e-08 0 0
-0.00359071 -0.00443455 0
1e-08 0 0
1e-08 0 0
1e-08 0 0
-0.00715755 0.000857038 0
1e-08 0 0
1e-08 0 0
1e-08 0 0
1e-08 0 0
1e-08 0 0
1e-08 0 0
-0.00258847 -0.00256924 0
1e-08 0 0
1e-08 0 0
-0.00840557 -0.000185756 0
1e-08 0 0
1e-08 0 0
1e-08 0 0
1e-08 0 0
-0.0060564 -0.00473325 0
1e-08 0 0
-0.00349955 -0.00050568 0
1e-08 0 0
1e-08 0 0
-0.00663527 -0.00382669 0
-0.00557626 -0.00143129 0
-0.00721184 -0.00290037 0
