# vtk DataFile Version 2.0
CellBP Time: 11.56
ASCII
DATASET UNSTRUCTURED_GRID
POINTS 296 double
-8.91794 -3.6506 0
-8.36257 -4.80065 0
-9.30693 -2.43131 0
-9.58426 -1.20712 0
-8.07651 -2.6996 0
-7.64735 -5.86299 0
-6.80021 -6.82465 0
-7.63614 -3.72091 0
-7.07924 -4.69195 0
-5.88053 -7.69229 0
-4.85665 -8.42377 0
-9.69398 0.0379668 0
-9.63995 1.31054 0
-8.39407 -1.61156 0
-8.55394 -0.502537 0
-7.32692 -1.90521 0
-6.94989 -2.77028 0
-6.42413 -5.60346 0
-5.65801 -6.43257 0
-6.52691 -3.72963 0
-5.99757 -4.51767 0
-3.70977 -8.98689 0
-2.48348 -9.38461 0
-4.7902 -7.13971 0
-3.84719 -7.73212 0
-8.56879 0.630002 0
-9.42337 2.58723 0
-8.42807 1.71818 0
-9.01477 3.80066 0
-7.49903 -0.875138 0
-7.56465 0.0932273 0
-6.72013 -1.25014 0
-1.21353 -9.62168 0
-6.22361 -2.05933 0
-6.09513 -2.93168 0
-5.35186 -5.31342 0
-4.65636 -5.95844 0
-5.45898 -3.62744 0
-5.08463 -4.41726 0
-2.81481 -8.19243 0
-1.74419 -8.44453 0
-3.83861 -6.574 0
-3.00761 -7.01089 0
0.0556579 -9.67955 0
-7.49831 1.11684 0
-8.17493 2.85848 0
-7.35908 2.04754 0
-8.39903 4.91629 0
-7.69602 3.87074 0
-7.64125 5.94976 0
-6.56448 -0.368559 0
-6.74745 0.550464 0
-5.60512 -0.967225 0
-0.572443 -8.59228 0
0.549404 -8.52628 0
-5.14531 -2.39533 0
-4.33706 -4.94974 0
-3.7882 -5.63301 0
-4.3094 -3.69763 0
-2.02261 -7.40334 0
-1.11435 -7.60624 0
-2.9226 -5.96278 0
-2.27154 -6.4815 0
1.307 -9.55973 0
-6.50859 1.38085 0
-6.97588 3.02374 0
-6.48091 2.30187 0
-7.09413 4.83575 0
-6.537 3.88211 0
-6.80063 6.89344 0
-6.3878 5.71442 0
-5.85913 7.74902 0
-4.36321 -1.15812 0
-5.66989 0.492025 0
-4.56796 -0.0256405 0
-0.0112456 -7.63466 0
1.67446 -8.37391 0
0.896896 -7.53086 0
-3.95475 -2.34955 0
-3.45139 -1.37862 0
-3.21494 -4.69085 0
-3.21188 -3.19936 0
-1.36249 -6.51989 0
-0.522785 -6.84389 0
-1.94131 -5.42335 0
2.55307 -9.31228 0
-5.37377 1.99115 0
-5.93226 2.97687 0
-5.93408 4.71141 0
-5.60272 3.85916 0
-5.59153 6.50971 0
-5.29657 5.43878 0
-4.83534 8.5021 0
-4.69318 7.16981 0
-3.46049 -0.420406 0
-4.3548 1.22226 0
-3.64916 0.583931 0
-3.97465 2.2912 0
-3.70036 9.06879 0
2.74969 -8.0375 0
0.367581 -6.59138 0
1.92697 -7.27113 0
1.2265 -6.67876 0
-2.4262 -0.862198 0
-2.81067 -2.10363 0
-2.25934 -4.01732 0
-2.29511 -2.92042 0
-0.455187 -5.7092 0
-1.1983 -4.41947 0
3.76218 -8.92236 0
-4.66777 3.30325 0
-4.94741 4.44548 0
-4.50891 6.07619 0
-4.40682 5.18524 0
-3.74494 7.7752 0
-3.70673 6.61134 0
-2.7083 8.17871 0
-1.6304 -0.126306 0
-1.43521 -0.877439 0
-2.47073 0.517246 0
-3.19867 1.4363 0
-3.16894 3.25221 0
-2.8642 2.35694 0
-1.35053 0.639827 0
-2.48161 9.452 0
3.7847 -7.60886 0
2.82292 -6.87665 0
0.896565 -5.64345 0
1.96813 -6.18636 0
-1.66546 -1.97262 0
-1.41251 -3.22843 0
0.0762502 -4.63963 0
-0.548324 -3.64093 0
4.76281 -7.05717 0
4.90231 -8.36656 0
-3.67855 4.43109 0
-3.62743 5.57356 0
-2.79309 7.05717 0
-2.923 6.15708 0
-1.62128 8.49294 0
-1.87805 7.39878 0
-2.29547 3.96756 0
-0.723113 -1.31605 0
-0.827977 -0.244003 0
-1.92988 1.69017 0
-2.10024 2.85316 0
-1.29833 3.50284 0
-0.872447 1.36505 0
-0.284297 0.468298 0
-0.519454 8.64699 0
-1.22287 9.68681 0
1.06711 -4.44956 0
3.73964 -6.42969 0
2.85833 -5.85831 0
2.02865 -5.24085 0
4.61474 -5.95877 0
-0.546236 -2.45435 0
0.486848 -3.4053 0
0.0562951 -1.60374 0
1.43724 -3.59009 0
5.67913 -6.38567 0
5.96307 -7.65284 0
-2.41021 5.20679 0
-2.05798 6.34561 0
-0.874224 7.60091 0
-1.22057 6.74429 0
0.0929508 7.69111 0
-1.12607 4.4092 0
0.147451 -0.609336 0
-0.807968 2.49322 0
-0.346241 3.57184 0
0.0547157 1.52002 0
0.736787 0.477766 0
0.634522 8.67808 0
0.0413034 9.79802 0
2.30164 -4.14825 0
3.7177 -5.41275 0
2.88904 -5.02122 0
5.41431 -5.29532 0
4.53742 -5.07294 0
0.631762 -2.28261 0
1.23694 -2.89892 0
0.754916 -1.3844 0
2.11302 -3.06205 0
2.91947 -3.37449 0
6.00187 -4.64221 0
6.47503 -5.59466 0
6.91588 -6.79578 0
-0.98417 5.67982 0
-0.34472 6.70836 0
1.10019 7.60404 0
0.563193 6.92168 0
-0.00239406 4.64545 0
0.586691 3.78172 0
1.32835 -0.638225 0
0.519176 2.63809 0
0.948322 1.57657 0
1.89391 0.209256 0
1.59112 1.0633 0
2.09606 7.43922 0
1.76588 8.53005 0
1.32061 9.72785 0
3.70624 -4.19606 0
4.97427 -4.27625 0
5.70287 -3.80335 0
3.69442 -3.10336 0
1.79699 -1.87562 0
2.96135 -2.52419 0
6.63796 -3.83914 0
7.21544 -4.76929 0
7.7801 -5.86771 0
0.482986 5.75441 0
1.40932 6.6074 0
2.3345 6.54432 0
1.18551 4.48314 0
1.46245 3.35245 0
2.40649 -0.6866 0
2.79487 0.139021 0
1.76472 2.14544 0
2.58183 1.139 0
3.02166 7.03026 0
2.85383 8.21117 0
2.58721 9.4848 0
4.79271 -3.21778 0
5.98557 -3.01399 0
4.0945 -2.22813 0
3.19642 -1.48363 0
6.60576 -2.26893 0
7.09657 -2.9837 0
7.80578 -3.839 0
8.51718 -4.84694 0
1.99262 5.49686 0
3.00787 6.02242 0
2.33187 4.05613 0
2.38727 3.01536 0
3.47285 -0.451906 0
3.56736 0.615846 0
2.91926 2.25589 0
3.48421 1.50489 0
3.89662 5.76581 0
3.88923 6.64574 0
3.90745 7.78329 0
3.80965 9.08098 0
5.46584 -1.87606 0
4.43418 -1.1091 0
6.58046 -1.30841 0
7.44617 -1.99355 0
8.22658 -2.80772 0
9.0843 -3.70554 0
3.31814 4.7665 0
3.26241 3.32017 0
4.60805 0.135344 0
4.41895 1.28172 0
3.95952 2.38651 0
4.41089 5.01544 0
4.70507 6.03753 0
4.86192 7.21381 0
4.95168 8.51338 0
5.75878 -0.432302 0
6.8453 -0.490567 0
7.60033 -1.06221 0
8.50232 -1.71144 0
9.48472 -2.48059 0
4.40554 3.72453 0
5.65793 1.04734 0
5.19753 2.45025 0
5.18039 4.47952 0
5.42786 5.3676 0
5.73057 6.49968 0
5.97298 7.78031 0
6.66053 0.426516 0
7.65781 -0.0335653 0
8.66442 -0.565754 0
9.72382 -1.21148 0
6.75132 1.28079 0
5.50943 3.64749 0
6.3234 2.10017 0
6.1482 2.96537 0
6.06251 4.53115 0
6.47998 5.66931 0
6.90788 6.92293 0
7.56774 0.928258 0
8.63214 0.558508 0
9.78677 0.0631081 0
7.37726 1.92311 0
6.55587 3.74568 0
7.00753 2.82832 0
7.13353 4.72848 0
7.76593 5.9727 0
8.46478 1.67548 0
9.66379 1.31431 0
8.13795 2.7344 0
7.72662 3.78622 0
8.47914 4.91404 0
9.42264 2.56303 0
9.03413 3.77289 0
CELLS 542 2168
3 2 0 4
3 0 1 7
3 4 0 7
3 1 5 8
3 7 1 8
3 3 2 13
3 13 2 4
3 11 3 14
3 14 3 13
3 13 4 15
3 4 7 16
3 15 4 16
3 5 6 17
3 8 5 17
3 6 9 18
3 17 6 18
3 7 8 19
3 16 7 19
3 8 17 20
3 19 8 20
3 9 10 23
3 18 9 23
3 10 21 24
3 23 10 24
3 12 11 25
3 25 11 14
3 26 12 27
3 27 12 25
3 14 13 29
3 29 13 15
3 25 14 30
3 30 14 29
3 29 15 31
3 15 16 33
3 31 15 33
3 16 19 34
3 33 16 34
3 17 18 35
3 20 17 35
3 18 23 36
3 35 18 36
3 19 20 37
3 34 19 37
3 20 35 38
3 37 20 38
3 21 22 39
3 24 21 39
3 22 32 40
3 39 22 40
3 23 24 41
3 36 23 41
3 24 39 42
3 41 24 42
3 27 25 44
3 44 25 30
3 28 26 45
3 45 26 27
3 45 27 46
3 46 27 44
3 47 28 48
3 48 28 45
3 30 29 50
3 50 29 31
3 44 30 51
3 51 30 50
3 50 31 52
3 31 33 52
3 32 43 53
3 40 32 53
3 53 43 54
3 33 34 55
3 34 37 55
3 33 55 52
3 35 36 56
3 38 35 56
3 36 41 57
3 56 36 57
3 37 38 58
3 38 56 58
3 37 58 55
3 39 40 59
3 42 39 59
3 40 53 60
3 59 40 60
3 41 42 61
3 57 41 61
3 42 59 62
3 61 42 62
3 43 63 54
3 46 44 64
3 64 44 51
3 48 45 65
3 65 45 46
3 65 46 66
3 66 46 64
3 49 47 67
3 67 47 48
3 67 48 68
3 68 48 65
3 69 49 70
3 70 49 67
3 52 55 72
3 64 51 73
3 51 50 73
3 50 52 73
3 73 52 74
3 74 52 72
3 53 54 75
3 60 53 75
3 54 63 76
3 54 76 77
3 75 54 77
3 55 58 78
3 72 55 78
3 72 78 79
3 56 57 80
3 57 61 80
3 56 80 58
3 58 80 81
3 78 58 81
3 59 60 82
3 62 59 82
3 60 75 83
3 82 60 83
3 61 62 84
3 62 82 84
3 61 84 80
3 63 85 76
3 66 64 86
3 64 73 86
3 68 65 87
3 87 65 66
3 87 66 86
3 70 67 88
3 88 67 68
3 88 68 89
3 89 68 87
3 71 69 90
3 90 69 70
3 90 70 91
3 91 70 88
3 92 71 93
3 93 71 90
3 74 72 94
3 94 72 79
3 86 73 95
3 95 73 74
3 95 74 96
3 96 74 94
3 97 86 95
3 76 85 99
3 75 77 100
3 83 75 100
3 76 99 101
3 77 76 101
3 77 101 102
3 100 77 102
3 94 79 103
3 78 81 104
3 79 78 104
3 79 104 103
3 80 84 105
3 81 80 105
3 81 105 106
3 104 81 106
3 82 83 107
3 83 100 107
3 82 107 84
3 84 107 108
3 105 84 108
3 85 109 99
3 89 87 110
3 87 86 110
3 110 86 97
3 91 88 111
3 111 88 89
3 111 89 110
3 93 90 112
3 112 90 91
3 112 91 113
3 113 91 111
3 98 92 114
3 114 92 93
3 114 93 115
3 115 93 112
3 116 98 114
3 117 103 118
3 96 94 119
3 94 103 119
3 119 103 117
3 97 95 120
3 120 95 96
3 120 96 119
3 121 110 97
3 121 97 122
3 122 97 120
3 123 119 117
3 124 98 116
3 99 109 125
3 99 125 126
3 101 99 126
3 100 102 127
3 100 127 107
3 101 126 128
3 102 101 128
3 102 128 127
3 104 106 129
3 104 129 103
3 103 129 118
3 105 108 130
3 106 105 130
3 106 130 129
3 107 127 131
3 108 107 131
3 108 131 132
3 108 132 130
3 109 134 125
3 125 134 133
3 113 111 135
3 111 110 135
3 135 110 121
3 115 112 136
3 136 112 113
3 136 113 135
3 116 114 137
3 137 114 115
3 137 115 138
3 138 115 136
3 139 124 116
3 139 116 140
3 140 116 137
3 141 135 121
3 118 129 142
3 118 142 143
3 117 118 143
3 123 117 143
3 122 120 144
3 120 119 144
3 144 119 123
3 141 121 145
3 145 121 122
3 145 122 144
3 146 141 145
3 147 144 123
3 147 123 148
3 143 148 123
3 150 124 139
3 149 150 139
3 131 127 151
3 125 133 152
3 126 125 152
3 126 152 153
3 128 126 153
3 128 153 154
3 128 154 127
3 127 154 151
3 152 133 155
3 130 132 156
3 130 156 129
3 129 156 142
3 131 151 157
3 132 131 157
3 132 157 156
3 156 158 142
3 157 151 159
3 133 160 155
3 134 161 133
3 133 161 160
3 138 136 162
3 136 135 162
3 162 135 141
3 140 137 163
3 163 137 138
3 163 138 162
3 149 139 164
3 164 139 140
3 164 140 165
3 165 140 163
3 166 149 164
3 167 162 141
3 167 141 146
3 142 158 168
3 143 142 168
3 143 168 148
3 146 145 169
3 145 144 169
3 169 144 147
3 170 167 146
3 170 146 169
3 171 169 147
3 171 147 148
3 171 148 172
3 168 172 148
3 173 149 166
3 174 150 149
3 173 174 149
3 154 175 151
3 151 175 159
3 152 155 176
3 153 152 176
3 153 176 177
3 153 177 154
3 154 177 175
3 155 160 178
3 155 178 179
3 176 155 179
3 156 157 180
3 156 180 158
3 157 159 181
3 157 181 180
3 158 180 182
3 158 182 168
3 159 175 183
3 159 183 181
3 175 184 183
3 160 186 178
3 178 186 185
3 161 187 160
3 160 187 186
3 165 163 188
3 163 162 188
3 188 162 167
3 166 164 189
3 189 164 165
3 189 165 188
3 190 173 166
3 190 166 191
3 191 166 189
3 192 188 167
3 192 167 170
3 193 192 170
3 182 194 168
3 194 172 168
3 193 170 195
3 170 169 195
3 195 169 171
3 196 195 171
3 196 171 172
3 194 197 172
3 197 198 172
3 198 196 172
3 200 173 190
3 199 200 190
3 201 174 173
3 200 201 173
3 176 179 202
3 177 176 202
3 177 202 175
3 175 202 184
3 178 185 203
3 178 203 179
3 179 203 202
3 203 185 204
3 202 205 184
3 183 206 181
3 180 181 206
3 180 206 182
3 182 206 194
3 183 184 207
3 205 207 184
3 183 207 206
3 185 208 204
3 186 209 185
3 185 209 208
3 187 210 186
3 186 210 209
3 191 189 211
3 189 188 211
3 211 188 192
3 199 190 212
3 212 190 191
3 212 191 211
3 213 199 212
3 214 211 192
3 214 192 193
3 215 214 193
3 215 193 195
3 206 216 194
3 216 197 194
3 216 217 197
3 215 195 218
3 218 195 196
3 198 218 196
3 217 219 197
3 219 218 198
3 197 219 198
3 220 199 213
3 221 200 199
3 220 221 199
3 222 201 200
3 221 222 200
3 203 204 223
3 203 223 202
3 202 223 205
3 204 208 224
3 204 224 223
3 205 223 225
3 205 225 207
3 207 225 226
3 207 226 206
3 226 216 206
3 208 228 224
3 224 228 227
3 209 229 208
3 229 228 208
3 210 230 209
3 209 230 229
3 213 212 231
3 212 211 231
3 231 211 214
3 232 220 213
3 232 213 231
3 233 231 214
3 233 214 215
3 234 233 215
3 234 215 218
3 226 235 216
3 235 217 216
3 235 236 217
3 217 236 219
3 237 234 218
3 237 218 219
3 236 238 219
3 238 237 219
3 240 220 232
3 239 240 232
3 241 221 220
3 240 241 220
3 242 222 221
3 241 242 221
3 224 227 243
3 224 243 223
3 223 243 225
3 225 243 244
3 225 244 226
3 226 244 235
3 227 245 243
3 228 246 227
3 227 246 245
3 229 247 228
3 228 247 246
3 230 248 229
3 229 248 247
3 239 232 249
3 232 231 249
3 249 231 233
3 250 249 233
3 250 233 234
3 237 250 234
3 244 251 235
3 235 251 236
3 251 252 236
3 236 252 238
3 252 253 238
3 253 250 237
3 253 237 238
3 254 239 249
3 255 240 239
3 254 255 239
3 256 241 240
3 255 256 240
3 257 242 241
3 256 257 241
3 245 258 243
3 243 258 244
3 244 258 251
3 245 259 258
3 246 260 245
3 245 260 259
3 247 261 246
3 246 261 260
3 248 262 247
3 247 262 261
3 254 249 263
3 263 249 250
3 253 263 250
3 258 264 251
3 251 264 252
3 264 265 252
3 265 263 253
3 252 265 253
3 266 254 263
3 267 255 254
3 266 267 254
3 268 256 255
3 267 268 255
3 269 257 256
3 268 269 256
3 259 270 258
3 270 264 258
3 260 271 259
3 259 271 270
3 261 272 260
3 260 272 271
3 262 273 261
3 273 272 261
3 270 274 264
3 275 266 263
3 275 263 265
3 274 276 264
3 276 265 264
3 276 277 265
3 277 275 265
3 278 267 266
3 275 278 266
3 279 268 267
3 278 279 267
3 280 269 268
3 279 280 268
3 271 281 270
3 270 281 274
3 272 282 271
3 271 282 281
3 273 283 272
3 272 283 282
3 281 284 274
3 274 284 276
3 285 278 275
3 277 285 275
3 284 286 276
3 286 285 277
3 276 286 277
3 287 279 278
3 285 287 278
3 288 280 279
3 287 288 279
3 282 289 281
3 281 289 284
3 283 290 282
3 282 290 289
3 289 291 284
3 284 291 286
3 291 292 286
3 292 287 285
3 286 292 285
3 293 288 287
3 292 293 287
3 290 294 289
3 289 294 291
3 294 295 291
3 295 293 292
3 291 295 292
CELL_TYPES 542
5
5
5
5
5
5
5
5
5
5
5
5
5
5
5
5
5
5
5
5
5
5
5
5
5
5
5
5
5
5
5
5
5
5
5
5
5
5
5
5
5
5
5
5
5
5
5
5
5
5
5
5
5
5
5
5
5
5
5
5
5
5
5
5
5
5
5
5
5
5
5
5
5
5
5
5
5
5
5
5
5
5
5
5
5
5
5
5
5
5
5
5
5
5
5
5
5
5
5
5
5
5
5
5
5
5
5
5
5
5
5
5
5
5
5
5
5
5
5
5
5
5
5
5
5
5
5
5
5
5
5
5
5
5
5
5
5
5
5
5
5
5
5
5
5
5
5
5
5
5
5
5
5
5
5
5
5
5
5
5
5
5
5
5
5
5
5
5
5
5
5
5
5
5
5
5
5
5
5
5
5
5
5
5
5
5
5
5
5
5
5
5
5
5
5
5
5
5
5
5
5
5
5
5
5
5
5
5
5
5
5
5
5
5
5
5
5
5
5
5
5
5
5
5
5
5
5
5
5
5
5
5
5
5
5
5
5
5
5
5
5
5
5
5
5
5
5
5
5
5
5
5
5
5
5
5
5
5
5
5
5
5
5
5
5
5
5
5
5
5
5
5
5
5
5
5
5
5
5
5
5
5
5
5
5
5
5
5
5
5
5
5
5
5
5
5
5
5
5
5
5
5
5
5
5
5
5
5
5
5
5
5
5
5
5
5
5
5
5
5
5
5
5
5
5
5
5
5
5
5
5
5
5
5
5
5
5
5
5
5
5
5
5
5
5
5
5
5
5
5
5
5
5
5
5
5
5
5
5
5
5
5
5
5
5
5
5
5
5
5
5
5
5
5
5
5
5
5
5
5
5
5
5
5
5
5
5
5
5
5
5
5
5
5
5
5
5
5
5
5
5
5
5
5
5
5
5
5
5
5
5
5
5
5
5
5
5
5
5
5
5
5
5
5
5
5
5
5
5
5
5
5
5
5
5
5
5
5
5
5
5
5
5
5
5
5
5
5
5
5
5
5
5
5
5
5
5
5
5
5
5
5
5
5
5
5
5
5
5
5
5
5
5
5
5
5
5
5
5
5
5
5
5
5
5
5
5
5
5
5
5
5
5
5
5
5
5
5
5
5
5
5
5
5
5
5
5
5
5
5
5
5
5
5
5
5
5
5
5
5
5
5
5
5
5
5
5
5
5
5
5
5
5
5
5
5
5
5
5
5
5
5
POINT_DATA 296
SCALARS concentrations float 4
LOOKUP_TABLE default
0 0.948182 0.104728 8.23857
0 0.948126 0.110764 12.5188
0 0.948175 0.109738 12.2135
0 0.948174 0.104322 10.6256
0 0.948176 0.093154 7.15101
0 0.948087 0.106138 8.26813
0 0.948178 0.105442 5.98438
0 0.948174 0.0940105 7.85514
0 0.948117 0.0938521 7.29983
0 0.948184 0.105419 10.9139
0 0.948131 0.108698 12.814
0 0.948188 0.107148 12.7891
0 0.948152 0.103541 8.04695
0 0.948176 0.0928024 7.24388
0 0.948172 0.0925513 6.94654
0 0.948184 0.0931936 7.15472
0 0.948183 0.0938311 6.96647
0 0.948149 0.0931926 7.15838
0 0.94819 0.0924823 6.76522
0 0.94818 0.0939194 7.25149
0 0.948177 0.0936216 7.75143
0 0.948196 0.10753 8.47897
0 0.948236 0.105363 9.22111
0 0.948166 0.0925108 6.89346
0 0.948171 0.0928917 7.01391
0 0.948178 0.0927334 6.82737
0 0.948075 0.106904 14.8972
0 0.948128 0.0934078 6.34737
0 0.948125 0.102849 9.37251
0 0.948181 0.092955 7.23044
0 0.948181 0.093023 7.51237
0 0.948194 0.0928183 7.35201
0 0.948203 0.103061 8.41304
0 0.948193 0.0933205 7.17866
0 0.948194 0.0934688 6.41492
0 0.948186 0.0931846 6.96264
0 0.948186 0.0933912 7.10065
0 0.948196 0.0935304 6.64027
0 0.948197 0.093223 6.19023
0 0.948222 0.0927963 6.76101
0 0.948215 0.0928395 6.83698
0 0.94819 0.0939034 7.55907
0 0.948204 0.0933867 7.70818
0 0.94822 0.105921 7.71432
0 0.948177 0.0941817 7.52068
0 0.94812 0.0941591 8.12538
0 0.948172 0.094316 7.16147
0 0.948175 0.105232 12.4253
0 0.94816 0.0931975 7.11215
0 0.948139 0.112332 15.6084
0 0.948196 0.0929756 6.85372
0 0.948194 0.0935548 7.32947
0 0.948199 0.0924162 7.53075
0 0.948196 0.0926284 6.82896
0 0.948229 0.0931331 7.33716
0 0.948198 0.0930207 7.73926
0 0.948195 0.093595 6.25015
0 0.948196 0.0936285 6.48454
0 0.948198 0.0933688 6.64942
0 0.948209 0.0935426 6.3683
0 0.948197 0.0932817 6.86587
0 0.9482 0.0927414 6.78682
0 0.948205 0.0943501 6.65545
0 0.948261 0.111833 9.94025
0 0.948196 0.0934517 7.17753
0 0.948172 0.0943188 7.45534
0 0.948197 0.0949755 8.00739
0 0.94816 0.0929293 6.32569
0 0.948161 0.093296 7.70623
0 0.948086 0.103582 11.5507
0 0.948121 0.0926752 6.5584
0 0.948083 0.10432 12.0082
0 0.948203 0.094609 6.01855
0 0.948203 0.0933725 6.52728
0 0.948206 0.0931556 7.26944
0 0.948191 0.0934636 7.31181
0 0.948221 0.0933318 7.39633
0 0.948191 0.0926578 7.17277
0 0.948204 0.0935764 6.43001
0 0.948211 0.0947791 6.12041
0 0.948198 0.0929905 7.54178
0 0.948202 0.0936921 7.902
0 0.9482 0.0942318 7.1323
0 0.948189 0.0934497 7.59738
0 0.9482 0.0943023 6.90237
0 0.948215 0.10611 11.8323
0 0.948207 0.0947604 7.4607
0 0.948189 0.0940386 6.22906
0 0.948155 0.0938675 6.34835
0 0.948178 0.0942108 6.23864
0 0.948101 0.0931362 6.84191
0 0.948151 0.0930297 6.8363
0 0.948177 0.114195 5.11775
0 0.948139 0.0935175 6.6647
0 0.948209 0.0934051 6.12912
0 0.948211 0.0930931 6.68204
0 0.948212 0.092884 6.96639
0 0.948214 0.0937319 6.7039
0 0.948179 0.107241 14.2312
0 0.948192 0.0932552 7.22376
0 0.948187 0.0932725 7.29692
0 0.948191 0.0935518 7.42037
0 0.94819 0.0937054 7.2234
0 0.948212 0.0937994 6.27578
0 0.948208 0.0934425 7.22407
0 0.948201 0.0936255 6.7492
0 0.948199 0.0937078 6.54548
0 0.948198 0.0931795 7.50652
0 0.948203 0.0940214 7.27661
0 0.948187 0.108718 7.29935
0 0.948205 0.0934106 7.03897
0 0.948185 0.0936925 6.89195
0 0.948163 0.0936336 7.60307
0 0.948189 0.0940352 6.07301
0 0.948191 0.0938326 6.29568
0 0.948184 0.095274 6.76093
0 0.948173 0.0938022 7.4514
0 0.948215 0.0932847 6.46445
0 0.948215 0.0935945 6.46022
0 0.948216 0.0937298 7.05051
0 0.948218 0.092949 6.90028
0 0.948215 0.0933621 6.61526
0 0.94822 0.0946557 7.23786
0 0.948218 0.0932547 7.12424
0 0.948142 0.109772 11.1525
0 0.948186 0.0945376 7.1397
0 0.948188 0.0965298 7.63176
0 0.948196 0.0929606 7.07754
0 0.948195 0.0931411 7.07674
0 0.948203 0.0951204 6.96652
0 0.948194 0.0937951 7.05376
0 0.948206 0.0933255 7.16096
0 0.948202 0.100443 3.90021
0 0.948157 0.0930523 7.3555
0 0.948178 0.106987 5.64903
0 0.948208 0.0940286 7.3811
0 0.948202 0.093891 7.40406
0 0.948194 0.0941581 7.24369
0 0.948206 0.0940354 7.89324
0 0.948156 0.0931502 7.37517
0 0.94819 0.0930059 6.69997
0 0.948215 0.0954761 7.00834
0 0.948206 0.0935039 6.97768
0 0.948216 0.0935783 6.51386
0 0.94822 0.0945345 6.79012
0 0.948215 0.0957572 6.74552
0 0.948212 0.0958654 6.27851
0 0.948218 0.0935133 7.28996
0 0.948211 0.0933883 6.84255
0 0.948196 0.0934731 6.60927
0 0.948152 0.108575 10.1548
0 0.948197 0.093698 7.18904
0 0.948184 0.0946468 7.13158
0 0.948189 0.0931257 6.9497
0 0.948191 0.0933619 6.96908
0 0.948168 0.0933148 7.44066
0 0.948196 0.0947989 6.78597
0 0.9482 0.095942 7.03328
0 0.94821 0.0967266 6.44682
0 0.948199 0.0947473 6.81241
0 0.948109 0.0927362 7.03151
0 0.948102 0.104322 13.7095
0 0.948212 0.0937016 6.43315
0 0.948211 0.0933322 6.45612
0 0.9482 0.0926741 7.37944
0 0.948215 0.0942559 7.15306
0 0.948227 0.0931309 7.22918
0 0.948208 0.0948812 6.74621
0 0.948212 0.0950465 7.31662
0 0.948217 0.0948479 7.01873
0 0.948212 0.098124 4.87783
0 0.948209 0.0934838 6.93519
0 0.948201 0.0933962 6.56285
0 0.948244 0.0935505 6.88923
0 0.948218 0.103375 7.89101
0 0.948196 0.0938261 7.24558
0 0.948183 0.0933097 7.44562
0 0.948187 0.093935 6.98648
0 0.948154 0.0929102 7.0505
0 0.94818 0.094098 6.80043
0 0.948206 0.0984274 5.53429
0 0.948201 0.0949166 7.53823
0 0.948226 0.0984423 7.36311
0 0.948208 0.0985348 6.09217
0 0.948203 0.0956319 6.71493
0 0.948169 0.0929394 7.09281
0 0.948125 0.0924142 7.02756
0 0.94808 0.108849 10.4571
0 0.948215 0.0937992 7.64773
0 0.948224 0.0940723 6.92871
0 0.948259 0.0932426 7.20027
0 0.948237 0.0940675 6.87271
0 0.948206 0.0951191 6.78538
0 0.948207 0.094414 7.05829
0 0.948212 0.0980154 8.36593
0 0.948214 0.0935821 7.32579
0 0.948202 0.0931296 6.82994
0 0.948203 0.0940105 6.34912
0 0.948204 0.0929299 7.42002
0 0.948266 0.0938406 7.23817
0 0.948287 0.0940451 6.78265
0 0.948266 0.105864 9.83674
0 0.948195 0.0934396 7.16594
0 0.948187 0.0948801 6.73731
0 0.948187 0.0937287 7.16347
0 0.948204 0.09326 7.14058
0 0.948216 0.0965394 7.61184
0 0.948212 0.0938471 7.16186
0 0.948182 0.0927611 6.7958
0 0.948185 0.0924953 7.05537
0 0.948153 0.102238 12.4627
0 0.948221 0.0947618 7.0268
0 0.94824 0.0947647 7.64494
0 0.948235 0.0946223 6.65765
0 0.948211 0.0929458 7.18778
0 0.948207 0.0933003 7.43375
0 0.948213 0.0945008 7.21808
0 0.948211 0.0944931 7.24486
0 0.948209 0.0931919 6.78386
0 0.948209 0.0951532 7.78677
0 0.948251 0.0936189 6.9689
0 0.948287 0.0934723 6.85933
0 0.948302 0.108395 7.4572
0 0.948198 0.0936698 7.17698
0 0.948191 0.0936259 6.63741
0 0.948204 0.0932376 7.24457
0 0.948208 0.094348 6.4432
0 0.94819 0.0986027 6.48888
0 0.948179 0.0937505 6.54278
0 0.948178 0.0930755 6.70968
0 0.948192 0.105185 8.40905
0 0.94822 0.0950285 6.63142
0 0.948226 0.0947034 7.14825
0 0.948216 0.0934651 6.58877
0 0.948212 0.0930302 6.70528
0 0.948207 0.0944095 6.54403
0 0.948209 0.0932289 6.64333
0 0.948211 0.0967793 7.60742
0 0.948208 0.0932962 6.83331
0 0.948217 0.0934561 7.4619
0 0.948222 0.0935527 6.71901
0 0.948248 0.0939782 6.61573
0 0.948289 0.107186 5.28239
0 0.948197 0.0988802 8.99501
0 0.948202 0.0937146 6.51441
0 0.94819 0.0952349 6.68329
0 0.948168 0.0928345 7.38541
0 0.94817 0.0934443 7.20573
0 0.948176 0.105532 8.5633
0 0.948219 0.0933507 6.70873
0 0.948214 0.0929257 7.01032
0 0.948204 0.0933053 6.6354
0 0.948202 0.0940719 7.70555
0 0.948202 0.0943529 6.6989
0 0.948207 0.0928481 7.32793
0 0.948206 0.0929268 6.69633
0 0.948192 0.0930739 6.69947
0 0.94821 0.106693 9.49069
0 0.948197 0.0963425 6.14557
0 0.948179 0.0953029 8.27478
0 0.948159 0.0944957 6.22171
0 0.94814 0.0935213 7.2932
0 0.948149 0.103262 10.5547
0 0.948203 0.0940535 7.61518
0 0.948195 0.0946812 8.10874
0 0.948192 0.0936666 7.32929
0 0.948201 0.0930745 7.17198
0 0.948211 0.0925509 7.06913
0 0.948217 0.092795 6.78556
0 0.948193 0.111552 12.7212
0 0.948179 0.0946914 6.06044
0 0.948157 0.0934272 7.12133
0 0.948162 0.0934669 6.86064
0 0.948141 0.106681 8.25738
0 0.948184 0.0928775 7.61344
0 0.948191 0.0930071 7.1969
0 0.948186 0.0934414 6.67722
0 0.948186 0.0935856 6.97442
0 0.9482 0.0938335 7.58726
0 0.948223 0.0932087 7.4008
0 0.948237 0.110643 8.48603
0 0.948163 0.0935748 7.78507
0 0.948177 0.0930421 7.19701
0 0.948198 0.108703 13.4733
0 0.948168 0.0930109 7.53249
0 0.948179 0.0932792 7.38305
0 0.948169 0.0931214 6.98347
0 0.948189 0.0965838 8.18924
0 0.948218 0.105091 6.3985
0 0.948163 0.0928422 7.14395
0 0.94819 0.102355 6.5913
0 0.948146 0.0931806 7.13384
0 0.948149 0.0940668 7.46129
0 0.948162 0.103305 11.7657
0 0.948155 0.107416 11.7574
0 0.948125 0.106355 11.0597
VECTORS fa_u float
0.00719936 0.00286948 -0
0.00687083 0.00394596 -0
0.00281273 0.000767008 -0
0.00714784 0.00112042 -0
1e-08 0 0
0.00517319 0.00399328 -0
0.00240414 0.00232202 -0
1e-08 0 0
1e-08 0 0
0.00463766 0.00563658 -0
0.00539624 0.00904834 -0
0.00670547 0.000148332 -0
0.00608825 -0.00064629 0
1e-08 0 0
1e-08 0 0
1e-08 0 0
1e-08 0 0
1e-08 0 0
1e-08 0 0
1e-08 0 0
1e-08 0 0
0.00296857 0.00733202 -0
0.00158527 0.00623387 -0
1e-08 0 0
1e-08 0 0
1e-08 0 0
0.00920786 -0.00231178 0
1e-08 0 0
0.0114687 -0.00504401 0
1e-08 0 0
1e-08 0 0
1e-08 0 0
0.000866385 0.00745874 -0
1e-08 0 0
1e-08 0 0
1e-08 0 0
1e-08 0 0
1e-08 0 0
1e-08 0 0
1e-08 0 0
1e-08 0 0
1e-08 0 0
1e-08 0 0
-0.000192536 0.00783343 -0
1e-08 0 0
1e-08 0 0
1e-08 0 0
0.00541452 -0.00346049 0
1e-08 0 0
0.00275328 -0.00222586 0
1e-08 0 0
1e-08 0 0
1e-08 0 0
1e-08 0 0
1e-08 0 0
1e-08 0 0
1e-08 0 0
1e-08 0 0
1e-08 0 0
1e-08 0 0
1e-08 0 0
1e-08 0 0
1e-08 0 0
-0.00058108 0.00395128 0
1e-08 0 0
1e-08 0 0
1e-08 0 0
1e-08 0 0
1e-08 0 0
0.00310885 -0.00307923 0
1e-08 0 0
0.00265806 -0.00324733 0
1e-08 0 0
1e-08 0 0
1e-08 0 0
1e-08 0 0
1e-08 0 0
1e-08 0 0
1e-08 0 0
1e-08 0 0
1e-08 0 0
1e-08 0 0
1e-08 0 0
1e-08 0 0
1e-08 0 0
-0.00132521 0.00510472 0
1e-08 0 0
1e-08 0 0
1e-08 0 0
1e-08 0 0
1e-08 0 0
1e-08 0 0
0.00597771 -0.00977783 0
1e-08 0 0
1e-08 0 0
1e-08 0 0
1e-08 0 0
1e-08 0 0
0.0036709 -0.00909603 0
1e-08 0 0
1e-08 0 0
1e-08 0 0
1e-08 0 0
1e-08 0 0
1e-08 0 0
1e-08 0 0
1e-08 0 0
1e-08 0 0
1e-08 0 0
-0.00293818 0.00729864 0
1e-08 0 0
1e-08 0 0
1e-08 0 0
1e-08 0 0
1e-08 0 0
1e-08 0 0
1e-08 0 0
1e-08 0 0
1e-08 0 0
1e-08 0 0
1e-08 0 0
1e-08 0 0
1e-08 0 0
1e-08 0 0
0.00136322 -0.00546482 0
1e-08 0 0
1e-08 0 0
1e-08 0 0
1e-08 0 0
1e-08 0 0
1e-08 0 0
1e-08 0 0
1e-08 0 0
1e-08 0 0
-0.00375742 0.00651406 0
1e-08 0 0
1e-08 0 0
1e-08 0 0
1e-08 0 0
1e-08 0 0
1e-08 0 0
1e-08 0 0
1e-08 0 0
1e-08 0 0
1e-08 0 0
1e-08 0 0
1e-08 0 0
1e-08 0 0
1e-08 0 0
1e-08 0 0
0.00049721 -0.00362527 0
1e-08 0 0
1e-08 0 0
1e-08 0 0
1e-08 0 0
1e-08 0 0
1e-08 0 0
1e-08 0 0
1e-08 0 0
1e-08 0 0
1e-08 0 0
-0.00470921 0.00603669 0
1e-08 0 0
1e-08 0 0
1e-08 0 0
1e-08 0 0
1e-08 0 0
1e-08 0 0
1e-08 0 0
1e-08 0 0
1e-08 0 0
1e-08 0 0
1e-08 0 0
1e-08 0 0
0.000127983 -0.00793191 0
1e-08 0 0
1e-08 0 0
1e-08 0 0
1e-08 0 0
1e-08 0 0
1e-08 0 0
1e-08 0 0
1e-08 0 0
1e-08 0 0
1e-08 0 0
1e-08 0 0
1e-08 0 0
-0.00214742 0.00218578 0
1e-08 0 0
1e-08 0 0
1e-08 0 0
1e-08 0 0
1e-08 0 0
1e-08 0 0
1e-08 0 0
1e-08 0 0
1e-08 0 0
1e-08 0 0
1e-08 0 0
1e-08 0 0
1e-08 0 0
-0.000859689 -0.00698771 0
1e-08 0 0
1e-08 0 0
1e-08 0 0
1e-08 0 0
1e-08 0 0
1e-08 0 0
1e-08 0 0
1e-08 0 0
-0.00471541 0.0038745 0
1e-08 0 0
1e-08 0 0
1e-08 0 0
1e-08 0 0
1e-08 0 0
1e-08 0 0
1e-08 0 0
1e-08 0 0
1e-08 0 0
1e-08 0 0
1e-08 0 0
-0.00163022 -0.00627281 0
1e-08 0 0
1e-08 0 0
1e-08 0 0
1e-08 0 0
1e-08 0 0
1e-08 0 0
1e-08 0 0
-0.00906733 0.00546935 0
1e-08 0 0
1e-08 0 0
1e-08 0 0
1e-08 0 0
1e-08 0 0
1e-08 0 0
1e-08 0 0
1e-08 0 0
1e-08 0 0
1e-08 0 0
1e-08 0 0
-0.00298598 -0.00726797 0
1e-08 0 0
1e-08 0 0
1e-08 0 0
1e-08 0 0
1e-08 0 0
-0.00757991 0.00309924 0
1e-08 0 0
1e-08 0 0
1e-08 0 0
1e-08 0 0
1e-08 0 0
1e-08 0 0
1e-08 0 0
1e-08 0 0
-0.0052655 -0.00875778 0
1e-08 0 0
1e-08 0 0
1e-08 0 0
1e-08 0 0
-0.00629559 0.00161429 0
1e-08 0 0
1e-08 0 0
1e-08 0 0
1e-08 0 0
1e-08 0 0
1e-08 0 0
-0.00356283 -0.00438216 0
1e-08 0 0
1e-08 0 0
1e-08 0 0
-0.00721649 0.000856913 0
1e-08 0 0
1e-08 0 0
1e-08 0 0
1e-08 0 0
1e-08 0 0
1e-08 0 0
-0.00246493 -0.00244495 0
1e-08 0 0
1e-08 0 0
-0.00852609 -0.000202624 0
1e-08 0 0
1e-08 0 0
1e-08 0 0
1e-08 0 0
-0.00615323 -0.00481275 0
1e-08 0 0
-0.00336347 -0.000489909 0
1e-08 0 0
1e-08 0 0
-0.0066605 -0.00383981 0
-0.00546537 -0.00139972 0
-0.00733227 -0.00294258 0
