# vtk DataFile Version 2.0
CellBP Time: 9.92
ASCII
DATASET UNSTRUCTURED_GRID
POINTS 296 double
-8.92828 -3.65551 0
-8.37219 -4.80628 0
-9.31833 -2.43524 0
-9.59501 -1.20941 0
-8.08732 -2.70143 0
-7.65632 -5.87017 0
-6.80866 -6.83219 0
-7.64582 -3.72614 0
-7.08817 -4.69949 0
-5.887 -7.7003 0
-4.86101 -8.43164 0
-9.70455 0.0382191 0
-9.64942 1.31203 0
-8.40516 -1.61371 0
-8.56407 -0.502309 0
-7.33211 -1.90926 0
-6.9588 -2.77506 0
-6.4327 -5.61115 0
-5.66464 -6.44026 0
-6.53528 -3.7352 0
-6.00331 -4.52171 0
-3.71291 -8.99477 0
-2.48581 -9.39388 0
-4.7956 -7.14681 0
-3.8504 -7.73943 0
-8.57834 0.631591 0
-9.4316 2.58889 0
-8.4359 1.72219 0
-9.02203 3.80341 0
-7.5083 -0.87852 0
-7.57302 0.0909325 0
-6.72711 -1.24994 0
-1.21519 -9.63086 0
-6.23041 -2.06364 0
-6.10228 -2.93712 0
-5.35947 -5.32083 0
-4.66166 -5.96375 0
-5.46662 -3.63139 0
-5.09098 -4.42122 0
-2.81566 -8.19681 0
-1.74646 -8.4526 0
-3.84234 -6.57894 0
-3.01004 -7.0161 0
0.0556084 -9.6898 0
-7.50523 1.11614 0
-8.18013 2.8592 0
-7.36575 2.04724 0
-8.40792 4.92164 0
-7.70097 3.8718 0
-7.65055 5.95666 0
-6.57421 -0.369503 0
-6.75451 0.55007 0
-5.61047 -0.968154 0
-0.573246 -8.60144 0
0.548194 -8.53539 0
-5.15041 -2.39656 0
-4.3431 -4.95541 0
-3.79173 -5.63818 0
-4.31371 -3.70137 0
-2.02253 -7.4085 0
-1.11441 -7.61352 0
-2.92412 -5.96688 0
-2.27194 -6.48692 0
1.30877 -9.57075 0
-6.51245 1.38187 0
-6.98205 3.02595 0
-6.48564 2.30379 0
-7.10183 4.84268 0
-6.54305 3.88509 0
-6.80913 6.90203 0
-6.39487 5.72263 0
-5.86659 7.75796 0
-4.36584 -1.15841 0
-5.67509 0.493081 0
-4.5702 -0.0246158 0
-0.0108157 -7.64173 0
1.67424 -8.38409 0
0.899954 -7.53703 0
-3.95765 -2.35108 0
-3.45335 -1.37943 0
-3.21817 -4.69496 0
-3.2125 -3.20131 0
-1.36226 -6.52241 0
-0.522081 -6.84806 0
-1.94322 -5.42655 0
2.5563 -9.32367 0
-5.37584 1.99114 0
-5.93807 2.98076 0
-5.94133 4.71847 0
-5.60973 3.86539 0
-5.59788 6.5168 0
-5.30171 5.44459 0
-4.84014 8.51021 0
-4.69756 7.17886 0
-3.46186 -0.420695 0
-4.35854 1.2231 0
-3.65227 0.583452 0
-3.97745 2.29256 0
-3.70403 9.07804 0
2.75143 -8.04735 0
0.369887 -6.59894 0
1.93254 -7.27866 0
1.22872 -6.68571 0
-2.42623 -0.86365 0
-2.81174 -2.10468 0
-2.25979 -4.01947 0
-2.29679 -2.92245 0
-0.455766 -5.71466 0
-1.2001 -4.42283 0
3.76652 -8.93202 0
-4.6727 3.30653 0
-4.95108 4.45051 0
-4.51433 6.0821 0
-4.4107 5.19218 0
-3.74848 7.78412 0
-3.71046 6.62024 0
-2.71019 8.18642 0
-1.633 -0.127077 0
-1.43566 -0.877848 0
-2.46983 0.517498 0
-3.20174 1.43615 0
-3.17175 3.25343 0
-2.86347 2.35847 0
-1.35049 0.639561 0
-2.48411 9.46232 0
3.78998 -7.61879 0
2.82864 -6.88644 0
0.897643 -5.64825 0
1.96998 -6.19318 0
-1.66603 -1.97343 0
-1.4133 -3.22833 0
0.0769549 -4.64409 0
-0.548561 -3.64251 0
4.76742 -7.06677 0
4.90812 -8.3758 0
-3.68191 4.43317 0
-3.63035 5.57951 0
-2.79532 7.06395 0
-2.92565 6.16381 0
-1.62144 8.50128 0
-1.87935 7.40663 0
-2.29607 3.97223 0
-0.722744 -1.31699 0
-0.829566 -0.244483 0
-1.93087 1.69003 0
-2.10049 2.85392 0
-1.29776 3.50499 0
-0.871973 1.3642 0
-0.284345 0.468838 0
-0.521307 8.65633 0
-1.22435 9.69758 0
1.06955 -4.45337 0
3.74484 -6.43745 0
2.85992 -5.86534 0
2.0299 -5.24566 0
4.6224 -5.96743 0
-0.546771 -2.45502 0
0.487223 -3.40708 0
0.056762 -1.60298 0
1.43847 -3.59285 0
5.68698 -6.39174 0
5.9697 -7.66173 0
-2.41331 5.21216 0
-2.06046 6.35231 0
-0.873913 7.60746 0
-1.22087 6.74817 0
0.0938543 7.69861 0
-1.12649 4.41227 0
0.14867 -0.609343 0
-0.808379 2.49434 0
-0.346273 3.57214 0
0.05414 1.52103 0
0.735102 0.477977 0
0.635755 8.68561 0
0.0415995 9.80827 0
2.30494 -4.1527 0
3.72226 -5.42107 0
2.89152 -5.02724 0
5.41702 -5.29896 0
4.54179 -5.07812 0
0.632106 -2.28267 0
1.23845 -2.90063 0
0.755202 -1.38506 0
2.11562 -3.06391 0
2.92304 -3.37721 0
6.00659 -4.64819 0
6.48321 -5.60119 0
6.9236 -6.80418 0
-0.984576 5.68415 0
-0.345446 6.71373 0
1.1016 7.60926 0
0.560697 6.9267 0
-0.0035591 4.64866 0
0.586841 3.7817 0
1.32821 -0.638361 0
0.520955 2.63814 0
0.948861 1.57675 0
1.8942 0.210192 0
1.59197 1.06292 0
2.09787 7.4436 0
1.76759 8.53725 0
1.32238 9.73763 0
3.71045 -4.20277 0
4.97861 -4.27995 0
5.70969 -3.80758 0
3.69771 -3.10662 0
1.79738 -1.87566 0
2.9628 -2.52503 0
6.64256 -3.84349 0
7.22334 -4.77394 0
7.78845 -5.87437 0
0.484596 5.75912 0
1.41005 6.611 0
2.33511 6.54881 0
1.1866 4.48557 0
1.46227 3.35365 0
2.40776 -0.687204 0
2.79528 0.140454 0
1.76633 2.14716 0
2.58309 1.13936 0
3.02356 7.03483 0
2.85653 8.21715 0
2.58915 9.49382 0
4.79607 -3.22044 0
5.99056 -3.01861 0
4.09726 -2.22882 0
3.19756 -1.48443 0
6.6098 -2.27065 0
7.10048 -2.98681 0
7.81174 -3.84103 0
8.52493 -4.8511 0
1.99448 5.50053 0
3.0107 6.0267 0
2.33314 4.05886 0
2.38855 3.0173 0
3.47638 -0.451589 0
3.57007 0.61584 0
2.92068 2.25826 0
3.48673 1.50504 0
3.90001 5.77104 0
3.89307 6.65147 0
3.90915 7.78811 0
3.8127 9.08963 0
5.46969 -1.87679 0
4.43711 -1.10985 0
6.58542 -1.30864 0
7.4515 -1.99326 0
8.23322 -2.81096 0
9.09305 -3.70843 0
3.32304 4.77059 0
3.26624 3.32293 0
4.61207 0.135439 0
4.42171 1.28138 0
3.96392 2.38934 0
4.41656 5.02186 0
4.71125 6.04485 0
4.86631 7.22184 0
4.95586 8.52163 0
5.76259 -0.432521 0
6.85235 -0.489686 0
7.60528 -1.06133 0
8.51041 -1.71378 0
9.49414 -2.48246 0
4.4092 3.728 0
5.66346 1.04957 0
5.2022 2.45232 0
5.18755 4.4852 0
5.43632 5.37216 0
5.73619 6.50777 0
5.97989 7.7883 0
6.66668 0.42823 0
7.66639 -0.0310695 0
8.67111 -0.565464 0
9.73368 -1.21272 0
6.75989 1.28363 0
5.51646 3.65298 0
6.33103 2.10426 0
6.15466 2.96977 0
6.0685 4.53462 0
6.48608 5.67654 0
6.91623 6.93081 0
7.57578 0.929101 0
8.64148 0.558002 0
9.79773 0.0633595 0
7.38576 1.92416 0
6.56417 3.751 0
7.01535 2.83174 0
7.14054 4.73165 0
7.77487 5.97931 0
8.47442 1.67665 0
9.67544 1.31594 0
8.14659 2.73805 0
7.73527 3.79125 0
8.48878 4.91997 0
9.43441 2.56645 0
9.04445 3.7772 0
CELLS 542 2168
3 2 0 4
3 0 1 7
3 4 0 7
3 1 5 8
3 7 1 8
3 3 2 13
3 13 2 4
3 11 3 14
3 14 3 13
3 13 4 15
3 4 7 16
3 15 4 16
3 5 6 17
3 8 5 17
3 6 9 18
3 17 6 18
3 7 8 19
3 16 7 19
3 8 17 20
3 19 8 20
3 9 10 23
3 18 9 23
3 10 21 24
3 23 10 24
3 12 11 25
3 25 11 14
3 26 12 27
3 27 12 25
3 14 13 29
3 29 13 15
3 25 14 30
3 30 14 29
3 29 15 31
3 15 16 33
3 31 15 33
3 16 19 34
3 33 16 34
3 17 18 35
3 20 17 35
3 18 23 36
3 35 18 36
3 19 20 37
3 34 19 37
3 20 35 38
3 37 20 38
3 21 22 39
3 24 21 39
3 22 32 40
3 39 22 40
3 23 24 41
3 36 23 41
3 24 39 42
3 41 24 42
3 27 25 44
3 44 25 30
3 28 26 45
3 45 26 27
3 45 27 46
3 46 27 44
3 47 28 48
3 48 28 45
3 30 29 50
3 50 29 31
3 44 30 51
3 51 30 50
3 50 31 52
3 31 33 52
3 32 43 53
3 40 32 53
3 53 43 54
3 33 34 55
3 34 37 55
3 33 55 52
3 35 36 56
3 38 35 56
3 36 41 57
3 56 36 57
3 37 38 58
3 38 56 58
3 37 58 55
3 39 40 59
3 42 39 59
3 40 53 60
3 59 40 60
3 41 42 61
3 57 41 61
3 42 59 62
3 61 42 62
3 43 63 54
3 46 44 64
3 64 44 51
3 48 45 65
3 65 45 46
3 65 46 66
3 66 46 64
3 49 47 67
3 67 47 48
3 67 48 68
3 68 48 65
3 69 49 70
3 70 49 67
3 52 55 72
3 64 51 73
3 51 50 73
3 50 52 73
3 73 52 74
3 74 52 72
3 53 54 75
3 60 53 75
3 54 63 76
3 54 76 77
3 75 54 77
3 55 58 78
3 72 55 78
3 72 78 79
3 56 57 80
3 57 61 80
3 56 80 58
3 58 80 81
3 78 58 81
3 59 60 82
3 62 59 82
3 60 75 83
3 82 60 83
3 61 62 84
3 62 82 84
3 61 84 80
3 63 85 76
3 66 64 86
3 64 73 86
3 68 65 87
3 87 65 66
3 87 66 86
3 70 67 88
3 88 67 68
3 88 68 89
3 89 68 87
3 71 69 90
3 90 69 70
3 90 70 91
3 91 70 88
3 92 71 93
3 93 71 90
3 74 72 94
3 94 72 79
3 86 73 95
3 95 73 74
3 95 74 96
3 96 74 94
3 97 86 95
3 76 85 99
3 75 77 100
3 83 75 100
3 76 99 101
3 77 76 101
3 77 101 102
3 100 77 102
3 94 79 103
3 78 81 104
3 79 78 104
3 79 104 103
3 80 84 105
3 81 80 105
3 81 105 106
3 104 81 106
3 82 83 107
3 83 100 107
3 82 107 84
3 84 107 108
3 105 84 108
3 85 109 99
3 89 87 110
3 87 86 110
3 110 86 97
3 91 88 111
3 111 88 89
3 111 89 110
3 93 90 112
3 112 90 91
3 112 91 113
3 113 91 111
3 98 92 114
3 114 92 93
3 114 93 115
3 115 93 112
3 116 98 114
3 117 103 118
3 96 94 119
3 94 103 119
3 119 103 117
3 97 95 120
3 120 95 96
3 120 96 119
3 121 110 97
3 121 97 122
3 122 97 120
3 123 119 117
3 124 98 116
3 99 109 125
3 99 125 126
3 101 99 126
3 100 102 127
3 100 127 107
3 101 126 128
3 102 101 128
3 102 128 127
3 104 106 129
3 104 129 103
3 103 129 118
3 105 108 130
3 106 105 130
3 106 130 129
3 107 127 131
3 108 107 131
3 108 131 132
3 108 132 130
3 109 134 125
3 125 134 133
3 113 111 135
3 111 110 135
3 135 110 121
3 115 112 136
3 136 112 113
3 136 113 135
3 116 114 137
3 137 114 115
3 137 115 138
3 138 115 136
3 139 124 116
3 139 116 140
3 140 116 137
3 141 135 121
3 118 129 142
3 118 142 143
3 117 118 143
3 123 117 143
3 122 120 144
3 120 119 144
3 144 119 123
3 141 121 145
3 145 121 122
3 145 122 144
3 146 141 145
3 147 144 123
3 147 123 148
3 143 148 123
3 150 124 139
3 149 150 139
3 131 127 151
3 125 133 152
3 126 125 152
3 126 152 153
3 128 126 153
3 128 153 154
3 128 154 127
3 127 154 151
3 152 133 155
3 130 132 156
3 130 156 129
3 129 156 142
3 131 151 157
3 132 131 157
3 132 157 156
3 156 158 142
3 157 151 159
3 133 160 155
3 134 161 133
3 133 161 160
3 138 136 162
3 136 135 162
3 162 135 141
3 140 137 163
3 163 137 138
3 163 138 162
3 149 139 164
3 164 139 140
3 164 140 165
3 165 140 163
3 166 149 164
3 167 162 141
3 167 141 146
3 142 158 168
3 143 142 168
3 143 168 148
3 146 145 169
3 145 144 169
3 169 144 147
3 170 167 146
3 170 146 169
3 171 169 147
3 171 147 148
3 171 148 172
3 168 172 148
3 173 149 166
3 174 150 149
3 173 174 149
3 154 175 151
3 151 175 159
3 152 155 176
3 153 152 176
3 153 176 177
3 153 177 154
3 154 177 175
3 155 160 178
3 155 178 179
3 176 155 179
3 156 157 180
3 156 180 158
3 157 159 181
3 157 181 180
3 158 180 182
3 158 182 168
3 159 175 183
3 159 183 181
3 175 184 183
3 160 186 178
3 178 186 185
3 161 187 160
3 160 187 186
3 165 163 188
3 163 162 188
3 188 162 167
3 166 164 189
3 189 164 165
3 189 165 188
3 190 173 166
3 190 166 191
3 191 166 189
3 192 188 167
3 192 167 170
3 193 192 170
3 182 194 168
3 194 172 168
3 193 170 195
3 170 169 195
3 195 169 171
3 196 195 171
3 196 171 172
3 194 197 172
3 197 198 172
3 198 196 172
3 200 173 190
3 199 200 190
3 201 174 173
3 200 201 173
3 176 179 202
3 177 176 202
3 177 202 175
3 175 202 184
3 178 185 203
3 178 203 179
3 179 203 202
3 203 185 204
3 202 205 184
3 183 206 181
3 180 181 206
3 180 206 182
3 182 206 194
3 183 184 207
3 205 207 184
3 183 207 206
3 185 208 204
3 186 209 185
3 185 209 208
3 187 210 186
3 186 210 209
3 191 189 211
3 189 188 211
3 211 188 192
3 199 190 212
3 212 190 191
3 212 191 211
3 213 199 212
3 214 211 192
3 214 192 193
3 215 214 193
3 215 193 195
3 206 216 194
3 216 197 194
3 216 217 197
3 215 195 218
3 218 195 196
3 198 218 196
3 217 219 197
3 219 218 198
3 197 219 198
3 220 199 213
3 221 200 199
3 220 221 199
3 222 201 200
3 221 222 200
3 203 204 223
3 203 223 202
3 202 223 205
3 204 208 224
3 204 224 223
3 205 223 225
3 205 225 207
3 207 225 226
3 207 226 206
3 226 216 206
3 208 228 224
3 224 228 227
3 209 229 208
3 229 228 208
3 210 230 209
3 209 230 229
3 213 212 231
3 212 211 231
3 231 211 214
3 232 220 213
3 232 213 231
3 233 231 214
3 233 214 215
3 234 233 215
3 234 215 218
3 226 235 216
3 235 217 216
3 235 236 217
3 217 236 219
3 237 234 218
3 237 218 219
3 236 238 219
3 238 237 219
3 240 220 232
3 239 240 232
3 241 221 220
3 240 241 220
3 242 222 221
3 241 242 221
3 224 227 243
3 224 243 223
3 223 243 225
3 225 243 244
3 225 244 226
3 226 244 235
3 227 245 243
3 228 246 227
3 227 246 245
3 229 247 228
3 228 247 246
3 230 248 229
3 229 248 247
3 239 232 249
3 232 231 249
3 249 231 233
3 250 249 233
3 250 233 234
3 237 250 234
3 244 251 235
3 235 251 236
3 251 252 236
3 236 252 238
3 252 253 238
3 253 250 237
3 253 237 238
3 254 239 249
3 255 240 239
3 254 255 239
3 256 241 240
3 255 256 240
3 257 242 241
3 256 257 241
3 245 258 243
3 243 258 244
3 244 258 251
3 245 259 258
3 246 260 245
3 245 260 259
3 247 261 246
3 246 261 260
3 248 262 247
3 247 262 261
3 254 249 263
3 263 249 250
3 253 263 250
3 258 264 251
3 251 264 252
3 264 265 252
3 265 263 253
3 252 265 253
3 266 254 263
3 267 255 254
3 266 267 254
3 268 256 255
3 267 268 255
3 269 257 256
3 268 269 256
3 259 270 258
3 270 264 258
3 260 271 259
3 259 271 270
3 261 272 260
3 260 272 271
3 262 273 261
3 273 272 261
3 270 274 264
3 275 266 263
3 275 263 265
3 274 276 264
3 276 265 264
3 276 277 265
3 277 275 265
3 278 267 266
3 275 278 266
3 279 268 267
3 278 279 267
3 280 269 268
3 279 280 268
3 271 281 270
3 270 281 274
3 272 282 271
3 271 282 281
3 273 283 272
3 272 283 282
3 281 284 274
3 274 284 276
3 285 278 275
3 277 285 275
3 284 286 276
3 286 285 277
3 276 286 277
3 287 279 278
3 285 287 278
3 288 280 279
3 287 288 279
3 282 289 281
3 281 289 284
3 283 290 282
3 282 290 289
3 289 291 284
3 284 291 286
3 291 292 286
3 292 287 285
3 286 292 285
3 293 288 287
3 292 293 287
3 290 294 289
3 289 294 291
3 294 295 291
3 295 293 292
3 291 295 292
CELL_TYPES 542
5
5
5
5
5
5
5
5
5
5
5
5
5
5
5
5
5
5
5
5
5
5
5
5
5
5
5
5
5
5
5
5
5
5
5
5
5
5
5
5
5
5
5
5
5
5
5
5
5
5
5
5
5
5
5
5
5
5
5
5
5
5
5
5
5
5
5
5
5
5
5
5
5
5
5
5
5
5
5
5
5
5
5
5
5
5
5
5
5
5
5
5
5
5
5
5
5
5
5
5
5
5
5
5
5
5
5
5
5
5
5
5
5
5
5
5
5
5
5
5
5
5
5
5
5
5
5
5
5
5
5
5
5
5
5
5
5
5
5
5
5
5
5
5
5
5
5
5
5
5
5
5
5
5
5
5
5
5
5
5
5
5
5
5
5
5
5
5
5
5
5
5
5
5
5
5
5
5
5
5
5
5
5
5
5
5
5
5
5
5
5
5
5
5
5
5
5
5
5
5
5
5
5
5
5
5
5
5
5
5
5
5
5
5
5
5
5
5
5
5
5
5
5
5
5
5
5
5
5
5
5
5
5
5
5
5
5
5
5
5
5
5
5
5
5
5
5
5
5
5
5
5
5
5
5
5
5
5
5
5
5
5
5
5
5
5
5
5
5
5
5
5
5
5
5
5
5
5
5
5
5
5
5
5
5
5
5
5
5
5
5
5
5
5
5
5
5
5
5
5
5
5
5
5
5
5
5
5
5
5
5
5
5
5
5
5
5
5
5
5
5
5
5
5
5
5
5
5
5
5
5
5
5
5
5
5
5
5
5
5
5
5
5
5
5
5
5
5
5
5
5
5
5
5
5
5
5
5
5
5
5
5
5
5
5
5
5
5
5
5
5
5
5
5
5
5
5
5
5
5
5
5
5
5
5
5
5
5
5
5
5
5
5
5
5
5
5
5
5
5
5
5
5
5
5
5
5
5
5
5
5
5
5
5
5
5
5
5
5
5
5
5
5
5
5
5
5
5
5
5
5
5
5
5
5
5
5
5
5
5
5
5
5
5
5
5
5
5
5
5
5
5
5
5
5
5
5
5
5
5
5
5
5
5
5
5
5
5
5
5
5
5
5
5
5
5
5
5
5
5
5
5
5
5
5
5
5
5
5
5
5
5
5
5
5
5
5
5
5
5
5
5
5
5
5
5
5
5
5
5
5
5
5
5
5
5
5
5
5
5
5
5
5
5
5
5
5
5
5
5
5
5
5
5
5
5
5
5
5
5
5
5
POINT_DATA 296
SCALARS concentrations float 4
LOOKUP_TABLE default
0 0.950219 0.113916 10.5534
0 0.950251 0.108725 9.64558
0 0.950231 0.11134 10.1087
0 0.950285 0.111885 7.69439
0 0.950223 0.0931125 6.50036
0 0.95025 0.106765 7.58081
0 0.950201 0.109947 11.1107
0 0.950232 0.0936143 7.54256
0 0.950249 0.0930988 7.53797
0 0.950167 0.110422 10.4329
0 0.95019 0.111035 11.729
0 0.950262 0.10817 9.9773
0 0.950234 0.10987 9.41411
0 0.950253 0.0923134 7.10811
0 0.950268 0.0928307 6.6931
0 0.950232 0.093412 6.63143
0 0.950227 0.0929315 7.56732
0 0.950229 0.0928115 7.29119
0 0.950194 0.0922712 7.12121
0 0.950234 0.0938392 7.3518
0 0.950234 0.0929797 6.87379
0 0.950232 0.110066 7.90828
0 0.950205 0.112874 10.178
0 0.950192 0.0927117 6.62358
0 0.950219 0.0934995 6.73183
0 0.950238 0.0925147 6.71799
0 0.950199 0.107825 9.62936
0 0.95022 0.0930581 7.31626
0 0.950197 0.110028 11.7596
0 0.95024 0.0925832 6.81241
0 0.950241 0.0923298 6.76563
0 0.950226 0.0926442 6.7219
0 0.950225 0.113461 10.9057
0 0.950227 0.0931361 6.57459
0 0.950231 0.0932682 6.49831
0 0.950222 0.0928151 7.25988
0 0.950219 0.0927188 7.02891
0 0.950232 0.092724 7.07833
0 0.950229 0.0933798 6.88686
0 0.950226 0.0933094 7.5475
0 0.950213 0.0933081 6.48846
0 0.950223 0.093224 7.52277
0 0.950227 0.0932581 6.20023
0 0.950266 0.110732 6.70481
0 0.950228 0.0927683 7.71691
0 0.950196 0.0926 6.6373
0 0.950215 0.0936341 7.42837
0 0.950232 0.10842 9.76004
0 0.95022 0.09275 6.98331
0 0.950247 0.111094 6.19933
0 0.950229 0.0928046 6.83709
0 0.950234 0.0928801 6.53322
0 0.950223 0.0927683 6.86146
0 0.950249 0.093178 6.58692
0 0.950255 0.0932437 7.10782
0 0.950228 0.0940323 7.25596
0 0.950228 0.0929138 7.07278
0 0.950224 0.0931346 7.55485
0 0.950229 0.0929254 7.14862
0 0.950233 0.0946049 7.59645
0 0.950238 0.0936629 6.43762
0 0.950223 0.093852 7.00768
0 0.950235 0.0938723 7.00935
0 0.950258 0.108146 9.11487
0 0.950228 0.0934124 7.72044
0 0.950215 0.0937521 7.18045
0 0.950218 0.0940487 6.25803
0 0.950245 0.0925855 6.5457
0 0.950239 0.0928499 7.62473
0 0.950229 0.108393 10.946
0 0.950241 0.0923317 6.72123
0 0.950244 0.107298 8.0173
0 0.95022 0.0945483 6.9699
0 0.950227 0.0933344 7.3641
0 0.950224 0.0962013 7.96847
0 0.950239 0.0933252 7.59631
0 0.950246 0.0924808 7.46167
0 0.950236 0.092733 6.50363
0 0.950226 0.0966786 6.26922
0 0.950223 0.097829 6.07586
0 0.95023 0.0938282 6.54196
0 0.950231 0.0945318 7.16595
0 0.950242 0.0996782 7.74557
0 0.950237 0.0931791 7.73947
0 0.950234 0.0936138 7.35193
0 0.950239 0.109187 10.1845
0 0.950228 0.0928459 6.29064
0 0.950227 0.0932664 7.8766
0 0.950246 0.0925751 6.5525
0 0.950242 0.0930826 7.3896
0 0.950231 0.0926287 7.18731
0 0.950235 0.092709 6.66147
0 0.95024 0.108482 9.46993
0 0.950241 0.0930739 7.25204
0 0.950226 0.0953284 7.69686
0 0.950231 0.0930413 8.10807
0 0.950238 0.0931348 8.05549
0 0.950234 0.0928543 6.22279
0 0.950234 0.109706 7.71974
0 0.950233 0.0940143 6.56636
0 0.950236 0.0935326 6.60723
0 0.950236 0.093191 7.43129
0 0.950235 0.093766 6.62011
0 0.950238 0.0942842 8.24692
0 0.950231 0.0961399 6.78204
0 0.950237 0.0935519 6.63699
0 0.950236 0.0947457 7.41602
0 0.950238 0.0932588 6.89704
0 0.950234 0.0934051 7.4059
0 0.95022 0.110536 8.12124
0 0.950235 0.0927578 6.25211
0 0.950239 0.0929908 6.75897
0 0.950235 0.0926513 6.51228
0 0.950235 0.0927031 6.59093
0 0.950234 0.0935779 7.15631
0 0.95024 0.0937863 7.30034
0 0.950236 0.0928244 7.38816
0 0.950249 0.0942958 6.63134
0 0.950246 0.0932169 7.96035
0 0.950244 0.0933049 6.06047
0 0.950239 0.0930322 6.21379
0 0.950238 0.0930118 6.2461
0 0.950236 0.0930103 7.5124
0 0.950242 0.0936922 6.51447
0 0.950237 0.10883 8.6215
0 0.950229 0.09541 6.59355
0 0.950231 0.0955205 6.75351
0 0.950234 0.0934521 6.69226
0 0.95023 0.0936303 7.71477
0 0.950238 0.0946937 7.92948
0 0.950238 0.0949476 7.2233
0 0.950229 0.0933326 6.73765
0 0.950231 0.0929836 6.67007
0 0.950237 0.0933491 6.75876
0 0.95024 0.110406 8.91394
0 0.950241 0.0924615 6.39294
0 0.950242 0.0928409 6.57979
0 0.95024 0.0950312 7.57335
0 0.950246 0.0935202 7.32329
0 0.950235 0.0922951 7.15888
0 0.950231 0.0933144 7.26914
0 0.950243 0.0930474 6.45869
0 0.950245 0.0941406 7.89032
0 0.950246 0.0936528 6.46008
0 0.950243 0.0935529 8.17163
0 0.950244 0.0940511 6.17918
0 0.950247 0.0933487 6.4783
0 0.950242 0.0934576 8.10303
0 0.950238 0.0937201 8.00541
0 0.950241 0.0930834 7.18927
0 0.950246 0.11246 11.7747
0 0.950226 0.092951 7.18281
0 0.950227 0.0952734 7.47188
0 0.950222 0.0937636 6.62508
0 0.950227 0.0937153 7.31135
0 0.950224 0.0932067 6.47788
0 0.950238 0.0951538 6.96033
0 0.950228 0.0938314 7.37116
0 0.950244 0.0940321 7.24012
0 0.950225 0.095308 6.80395
0 0.950219 0.0937202 7.18383
0 0.95023 0.109273 10.532
0 0.950245 0.0930661 6.86176
0 0.950242 0.0938644 7.18628
0 0.950227 0.0930418 7.11608
0 0.950233 0.093701 7.02734
0 0.950231 0.0938114 7.45795
0 0.950245 0.0932561 7.69188
0 0.950238 0.0939113 7.29941
0 0.950247 0.0945808 7.65514
0 0.95024 0.0940135 6.98623
0 0.950241 0.0941858 7.77531
0 0.950239 0.0933206 6.71479
0 0.95025 0.0938484 7.18539
0 0.950251 0.115483 11.8045
0 0.950226 0.0931583 6.99303
0 0.950225 0.0933894 7.40183
0 0.950227 0.0936115 6.99089
0 0.950223 0.0932025 7.32212
0 0.950223 0.0940738 7.59599
0 0.950236 0.0974238 6.38474
0 0.950223 0.0946029 6.87697
0 0.950239 0.0998978 8.89857
0 0.950224 0.0934312 6.74856
0 0.950227 0.0931139 6.99225
0 0.950225 0.093308 7.37838
0 0.950223 0.0932407 6.75534
0 0.950213 0.112293 10.8074
0 0.950242 0.0935861 6.99976
0 0.950232 0.0937484 7.15212
0 0.950247 0.0938571 7.6587
0 0.950235 0.0935398 7.16312
0 0.950239 0.0930866 7.47355
0 0.950238 0.0933989 7.48548
0 0.950233 0.0940889 7.63408
0 0.95024 0.0939514 6.69659
0 0.950245 0.094487 6.63168
0 0.950235 0.0932362 7.19629
0 0.950246 0.0930742 7.10824
0 0.950253 0.0950259 6.4776
0 0.950262 0.0932416 6.7962
0 0.950269 0.108921 7.39131
0 0.950225 0.0934199 6.77206
0 0.950219 0.094009 6.68265
0 0.950216 0.0932511 6.83101
0 0.950221 0.0931508 7.06261
0 0.950226 0.0994115 5.17535
0 0.950219 0.0936743 7.5093
0 0.950223 0.0936356 7.73976
0 0.950218 0.0931434 6.7009
0 0.95021 0.109021 6.71686
0 0.950235 0.0927775 6.78033
0 0.950246 0.0953822 6.31042
0 0.950253 0.0929845 7.132
0 0.950234 0.0934186 7.08598
0 0.950239 0.0935855 7.45736
0 0.950226 0.093029 7.49716
0 0.950226 0.0932489 7.40694
0 0.950243 0.0942681 6.88908
0 0.95024 0.101017 9.2408
0 0.950238 0.0948383 6.05774
0 0.950245 0.092648 7.29692
0 0.950266 0.109756 11.8046
0 0.950216 0.093473 6.62421
0 0.950215 0.093532 7.79218
0 0.950219 0.0937675 6.40274
0 0.950221 0.0932887 7.7688
0 0.950219 0.0948923 8.01377
0 0.950216 0.0935206 7.95516
0 0.95022 0.0930982 6.90126
0 0.95021 0.110432 10.0561
0 0.950233 0.0957433 5.93679
0 0.950239 0.0936342 6.49613
0 0.95023 0.0950932 6.78486
0 0.950236 0.0939722 7.01366
0 0.950226 0.0940216 6.56525
0 0.950226 0.0939742 7.35448
0 0.950241 0.0961625 6.4705
0 0.950232 0.0945147 6.99192
0 0.950232 0.093959 7.04667
0 0.950224 0.093832 7.21285
0 0.950207 0.0938169 7.2938
0 0.950218 0.111723 7.3198
0 0.950221 0.0942895 8.0019
0 0.950224 0.0938472 6.45607
0 0.950222 0.0938984 5.96747
0 0.95021 0.0937699 7.30402
0 0.950207 0.0928873 7.80665
0 0.950214 0.109188 8.74578
0 0.95023 0.0928577 7.17024
0 0.95023 0.0937321 6.79734
0 0.95022 0.0976519 6.56316
0 0.95022 0.0942824 6.61005
0 0.950227 0.0942969 6.86582
0 0.950232 0.0937729 6.93674
0 0.95023 0.0927838 7.07927
0 0.950212 0.0925333 7.08004
0 0.95018 0.111927 10.1484
0 0.950221 0.094286 7.95722
0 0.950221 0.0941625 6.56116
0 0.950208 0.0934041 7.92278
0 0.950206 0.092723 7.73705
0 0.950211 0.110622 11.7717
0 0.950227 0.0930169 7.26931
0 0.950221 0.0937022 7.48498
0 0.950224 0.0941705 6.78194
0 0.950228 0.0929643 7.19161
0 0.950232 0.09287 7.06455
0 0.950248 0.0924927 7.21614
0 0.95024 0.111315 11.7939
0 0.950222 0.0928373 7.82209
0 0.950216 0.0924731 7.67161
0 0.950197 0.0929608 7.49874
0 0.950198 0.110327 13.161
0 0.950226 0.0931327 6.69256
0 0.950225 0.0930532 7.23695
0 0.950225 0.0927506 7.35177
0 0.950223 0.0929696 7.20969
0 0.950222 0.0929442 7.07678
0 0.950226 0.0925444 7.33879
0 0.950251 0.110015 8.52526
0 0.950232 0.0923896 7.44629
0 0.950229 0.0921642 7.40275
0 0.950199 0.11173 8.79715
0 0.950233 0.0927304 7.34935
0 0.950212 0.0931523 7.09698
0 0.950216 0.0931605 7.47539
0 0.950206 0.0927615 6.93231
0 0.950209 0.112962 13.1189
0 0.950259 0.0921449 7.1453
0 0.950267 0.113664 11.1616
0 0.95023 0.0924381 6.94298
0 0.950202 0.0926909 7.35313
0 0.950193 0.105875 8.9764
0 0.950261 0.112891 8.13171
0 0.950216 0.110728 11.6274
VECTORS fa_u float
0.00716244 0.00285811 -0
0.0068139 0.00391348 -0
0.00289835 0.00079 -0
0.00708833 0.00110682 -0
1e-08 0 0
0.00519842 0.00401195 -0
0.00243691 0.00235594 -0
1e-08 0 0
1e-08 0 0
0.00464352 0.00565443 -0
0.00534128 0.00897079 -0
0.00674681 0.000145563 -0
0.0060922 -0.000651937 0
1e-08 0 0
1e-08 0 0
1e-08 0 0
1e-08 0 0
1e-08 0 0
1e-08 0 0
1e-08 0 0
1e-08 0 0
0.0029166 0.00719937 -0
0.0016105 0.0063239 -0
1e-08 0 0
1e-08 0 0
1e-08 0 0
0.00914591 -0.00230316 0
1e-08 0 0
0.0111388 -0.00488807 0
1e-08 0 0
1e-08 0 0
1e-08 0 0
0.000855997 0.0073513 -0
1e-08 0 0
1e-08 0 0
1e-08 0 0
1e-08 0 0
1e-08 0 0
1e-08 0 0
1e-08 0 0
1e-08 0 0
1e-08 0 0
1e-08 0 0
-0.000186431 0.0078276 -0
1e-08 0 0
1e-08 0 0
1e-08 0 0
0.00550979 -0.00350937 0
1e-08 0 0
0.00278404 -0.00224759 0
1e-08 0 0
1e-08 0 0
1e-08 0 0
1e-08 0 0
1e-08 0 0
1e-08 0 0
1e-08 0 0
1e-08 0 0
1e-08 0 0
1e-08 0 0
1e-08 0 0
1e-08 0 0
1e-08 0 0
-0.000580558 0.00396518 0
1e-08 0 0
1e-08 0 0
1e-08 0 0
1e-08 0 0
1e-08 0 0
0.00315059 -0.00312025 0
1e-08 0 0
0.00272486 -0.0033362 0
1e-08 0 0
1e-08 0 0
1e-08 0 0
1e-08 0 0
1e-08 0 0
1e-08 0 0
1e-08 0 0
1e-08 0 0
1e-08 0 0
1e-08 0 0
1e-08 0 0
1e-08 0 0
1e-08 0 0
-0.00136017 0.00523372 0
1e-08 0 0
1e-08 0 0
1e-08 0 0
1e-08 0 0
1e-08 0 0
1e-08 0 0
0.00581422 -0.00952486 0
1e-08 0 0
1e-08 0 0
1e-08 0 0
1e-08 0 0
1e-08 0 0
0.00366564 -0.00907081 0
1e-08 0 0
1e-08 0 0
1e-08 0 0
1e-08 0 0
1e-08 0 0
1e-08 0 0
1e-08 0 0
1e-08 0 0
1e-08 0 0
1e-08 0 0
-0.00288673 0.00716251 0
1e-08 0 0
1e-08 0 0
1e-08 0 0
1e-08 0 0
1e-08 0 0
1e-08 0 0
1e-08 0 0
1e-08 0 0
1e-08 0 0
1e-08 0 0
1e-08 0 0
1e-08 0 0
1e-08 0 0
1e-08 0 0
0.00137109 -0.00548774 0
1e-08 0 0
1e-08 0 0
1e-08 0 0
1e-08 0 0
1e-08 0 0
1e-08 0 0
1e-08 0 0
1e-08 0 0
1e-08 0 0
-0.00375739 0.00651681 0
1e-08 0 0
1e-08 0 0
1e-08 0 0
1e-08 0 0
1e-08 0 0
1e-08 0 0
1e-08 0 0
1e-08 0 0
1e-08 0 0
1e-08 0 0
1e-08 0 0
1e-08 0 0
1e-08 0 0
1e-08 0 0
1e-08 0 0
0.000503572 -0.00367645 0
1e-08 0 0
1e-08 0 0
1e-08 0 0
1e-08 0 0
1e-08 0 0
1e-08 0 0
1e-08 0 0
1e-08 0 0
1e-08 0 0
1e-08 0 0
-0.00469323 0.0060187 0
1e-08 0 0
1e-08 0 0
1e-08 0 0
1e-08 0 0
1e-08 0 0
1e-08 0 0
1e-08 0 0
1e-08 0 0
1e-08 0 0
1e-08 0 0
1e-08 0 0
1e-08 0 0
0.000124173 -0.0078968 0
1e-08 0 0
1e-08 0 0
1e-08 0 0
1e-08 0 0
1e-08 0 0
1e-08 0 0
1e-08 0 0
1e-08 0 0
1e-08 0 0
1e-08 0 0
1e-08 0 0
1e-08 0 0
-0.00218753 0.00222593 0
1e-08 0 0
1e-08 0 0
1e-08 0 0
1e-08 0 0
1e-08 0 0
1e-08 0 0
1e-08 0 0
1e-08 0 0
1e-08 0 0
1e-08 0 0
1e-08 0 0
1e-08 0 0
1e-08 0 0
-0.000864985 -0.00700786 0
1e-08 0 0
1e-08 0 0
1e-08 0 0
1e-08 0 0
1e-08 0 0
1e-08 0 0
1e-08 0 0
1e-08 0 0
-0.00478659 0.00392452 0
1e-08 0 0
1e-08 0 0
1e-08 0 0
1e-08 0 0
1e-08 0 0
1e-08 0 0
1e-08 0 0
1e-08 0 0
1e-08 0 0
1e-08 0 0
1e-08 0 0
-0.00161742 -0.00621593 0
1e-08 0 0
1e-08 0 0
1e-08 0 0
1e-08 0 0
1e-08 0 0
1e-08 0 0
1e-08 0 0
-0.00886322 0.00533855 0
1e-08 0 0
1e-08 0 0
1e-08 0 0
1e-08 0 0
1e-08 0 0
1e-08 0 0
1e-08 0 0
1e-08 0 0
1e-08 0 0
1e-08 0 0
1e-08 0 0
-0.002978 -0.00724968 0
1e-08 0 0
1e-08 0 0
1e-08 0 0
1e-08 0 0
1e-08 0 0
-0.00757103 0.00309795 0
1e-08 0 0
1e-08 0 0
1e-08 0 0
1e-08 0 0
1e-08 0 0
1e-08 0 0
1e-08 0 0
1e-08 0 0
-0.00518985 -0.00864297 0
1e-08 0 0
1e-08 0 0
1e-08 0 0
1e-08 0 0
-0.00629099 0.00161487 0
1e-08 0 0
1e-08 0 0
1e-08 0 0
1e-08 0 0
1e-08 0 0
1e-08 0 0
-0.00357683 -0.00440774 0
1e-08 0 0
1e-08 0 0
1e-08 0 0
-0.00715207 0.000852881 0
1e-08 0 0
1e-08 0 0
1e-08 0 0
1e-08 0 0
1e-08 0 0
1e-08 0 0
-0.00251648 -0.00249699 0
1e-08 0 0
1e-08 0 0
-0.0085335 -0.000196549 0
1e-08 0 0
1e-08 0 0
1e-08 0 0
1e-08 0 0
-0.0061057 -0.00477485 0
1e-08 0 0
-0.00338068 -0.000490696 0
1e-08 0 0
1e-08 0 0
-0.00667628 -0.00384906 0
-0.00557163 -0.0014284 0
-0.0072241 -0.00290262 0
